# vtk DataFile Version 4.2
vtk output
ASCII
DATASET POLYDATA
POINTS 548 float
-9.80124 -0.378388 -24.4723 -35.1253 -34.1438 -17.0456 -26.6839 -34.1438 -18.4225 
-18.2426 -34.1438 -18.9895 -9.80124 -34.1438 -19.1336 -1.3599 -34.1438 -19.4482 
7.08145 -34.1438 -19.2536 15.5228 -34.1438 -18.5464 23.9641 -34.1438 -18.1347 
32.4055 -34.1438 -17.3714 40.8468 -34.1438 -16.3827 -52.008 -25.7024 -16.6509 
-43.5666 -25.7024 -19.1747 -35.1253 -25.7024 -20.3139 -26.6839 -25.7024 -20.3942 
-18.2426 -25.7024 -21.1442 -9.80124 -25.7024 -21.1001 -1.3599 -25.7024 -21.8954 
7.08145 -25.7024 -22.3125 15.5228 -25.7024 -21.9334 23.9641 -25.7024 -21.8761 
32.4055 -25.7024 -21.8896 40.8468 -25.7024 -20.5886 49.2882 -25.7024 -18.1016 
-52.008 -17.2611 -19.0156 -43.5666 -17.2611 -20.4817 -35.1253 -17.2611 -21.9255 
-26.6839 -17.2611 -20.9507 -18.2426 -17.2611 -20.7219 -9.80124 -17.2611 -21.0433 
-1.3599 -17.2611 -21.7319 7.08145 -17.2611 -22.3422 15.5228 -17.2611 -22.1196 
23.9641 -17.2611 -22.094 32.4055 -17.2611 -22.1171 40.8468 -17.2611 -21.4208 
49.2882 -17.2611 -20.2592 -60.4493 -8.81973 -17.7059 -52.008 -8.81973 -21.1889 
-43.5666 -8.81973 -21.7235 -35.1253 -8.81973 -21.2362 -26.6839 -8.81973 -20.11 
-18.2426 -8.81973 -19.6986 -9.80124 -0.565756 -24.4387 -9.80124 -8.81973 -22.8709 
-1.3599 -8.81973 -22.1576 7.08145 -8.81973 -22.3433 15.5228 -8.81973 -21.6767 
23.9641 -8.81973 -21.515 32.4055 -8.81973 -21.1351 40.8468 -8.81973 -20.5046 
49.2882 -8.81973 -19.2118 57.7295 -8.81973 -17.236 -60.4493 -0.378388 -18.7555 
-52.008 -0.378388 -22.22 -43.5666 -0.378388 -22.308 -35.1253 -0.378388 -21.5822 
-26.6839 -0.378388 -20.1499 -9.85676 -0.378388 -24.4387 -18.2426 -0.378388 -19.2682 
-9.70584 -0.378388 -24.4387 -9.80124 -0.213657 -24.4387 -1.3599 -0.378388 -21.2381 
7.08145 -0.378388 -22.2387 15.5228 -0.378388 -23.6224 23.9641 -0.378388 -21.124 
32.4055 -0.378388 -19.5579 40.8468 -0.378388 -18.3114 49.2882 -0.378388 -16.6038 
-60.4493 8.06296 -18.2051 -52.008 8.06296 -22.1794 -43.5666 8.06296 -22.6108 
-35.1253 8.06296 -22.265 -26.6839 8.06296 -20.8691 -18.2426 8.06296 -19.5357 
-9.80124 8.06296 -22.485 -1.3599 8.06296 -22.5117 7.08145 8.06296 -20.9298 
15.5228 8.06296 -23.429 23.9641 8.06296 -22.0045 32.4055 8.06296 -17.9673 
-60.4493 16.5043 -16.4308 -52.008 16.5043 -21.024 -43.5666 16.5043 -22.2008 
-35.1253 16.5043 -22.3609 -26.6839 16.5043 -21.6986 -18.2426 16.5043 -20.4262 
-9.80124 16.5043 -20.654 -1.3599 16.5043 -22.187 7.08145 16.5043 -21.2163 
15.5228 16.5043 -22.6769 23.9641 16.5043 -21.7573 32.4055 16.5043 -16.3663 
-52.008 24.9457 -19.0941 -43.5666 24.9457 -21.0982 -35.1253 24.9457 -22.0526 
-26.6839 24.9457 -20.9025 -18.2426 24.9457 -19.8817 -9.80124 24.9457 -18.7159 
-1.3599 24.9457 -19.1731 7.08145 24.9457 -20.276 15.5228 24.9457 -21.0319 
23.9641 24.9457 -19.3893 -43.5666 33.387 -18.1071 -35.1253 33.387 -19.5062 
-26.6839 33.387 -18.8715 -18.2426 33.387 -16.9719 7.08145 33.387 -16.0553 
15.5228 33.387 -16.1923 -35.1253 -35.353 -15.9974 -26.6839 -37.4236 -15.9974 
-18.2426 -37.9107 -15.9974 -9.80124 -38.3708 -15.9974 -1.3599 -38.4397 -15.9974 
7.08145 -37.809 -15.9974 15.5228 -36.8517 -15.9974 23.9641 -36.2213 -15.9974 
32.4055 -35.6183 -15.9974 40.8468 -34.4906 -15.9974 -52.008 -26.7582 -15.9974 
-52.008 -34.1438 -8.47941 -39.2059 -34.1438 -15.9974 -43.5666 -32.0371 -15.9974 
-43.5666 -34.1438 -14.3127 41.7052 -34.1438 -15.9974 49.2882 -29.1349 -15.9974 
49.2882 -34.1438 -9.1782 -53.1685 -25.7024 -15.9974 -60.4493 -25.7024 -8.92673 
53.3959 -25.7024 -15.9974 57.7295 -25.7024 -12.7245 -58.5053 -17.2611 -15.9974 
-60.4493 -14.5065 -15.9974 -60.4493 -17.2611 -14.7305 57.1906 -17.2611 -15.9974 
57.7295 -15.5019 -15.9974 57.7295 -17.2611 -15.7459 66.1709 -17.2611 -8.3357 
-63.2298 -8.81973 -15.9974 61.7133 -8.81973 -15.9974 57.7295 -6.06802 -15.9974 
66.1709 -8.81973 -13.8822 -64.0658 -0.378388 -15.9974 -68.8907 -0.378388 -9.34457 
40.8468 7.34622 -15.9974 51.1293 -0.378388 -15.9974 49.2882 1.47866 -15.9974 
57.7295 -0.378388 -13.701 66.1709 -0.378388 -8.70694 -63.8045 8.06296 -15.9974 
39.9914 8.06296 -15.9974 40.8468 8.06296 -15.7688 49.2882 8.06296 -13.663 
57.7295 8.06296 -10.9993 -61.0716 16.5043 -15.9974 -60.4493 17.5518 -15.9974 
33.143 16.5043 -15.9974 32.4055 17.3616 -15.9974 40.8468 16.5043 -12.7067 
49.2882 16.5043 -9.76644 -56.4107 24.9457 -15.9974 -60.4493 24.9457 -8.92482 
-52.008 29.9112 -15.9974 -9.80124 32.6041 -15.9974 -1.3599 32.3006 -15.9974 
28.6322 24.9457 -15.9974 23.9641 29.8866 -15.9974 32.4055 24.9457 -12.837 
40.8468 24.9457 -8.28752 -47.6867 33.387 -15.9974 -52.008 33.387 -10.7606 
-43.5666 35.7973 -15.9974 -35.1253 37.4405 -15.9974 -26.6839 38.3935 -15.9974 
-11.855 33.387 -15.9974 -18.2426 35.2234 -15.9974 -9.80124 33.387 -15.6725 
6.27978 33.387 -15.9974 -1.3599 33.387 -15.4553 7.08145 33.4543 -15.9974 
16.108 33.387 -15.9974 15.5228 33.5842 -15.9974 23.9641 33.387 -12.1084 
-35.1253 41.8283 -8.7298 -26.6839 41.8283 -10.9471 -18.2426 41.8283 -10.4911 
-9.80124 41.8283 -8.4769 -52.008 -34.712 -7.55605 -43.5666 -38.4389 -7.55605 
-35.1253 -40.6829 -7.55605 -26.6839 -42.2501 -7.55605 -18.2426 -42.2819 -7.55605 
-9.80124 -42.4305 -7.55605 -1.3599 -42.3698 -7.55605 7.08145 -41.4316 -7.55605 
15.5228 -40.1162 -7.55605 23.9641 -39.5065 -7.55605 32.4055 -39.3198 -7.55605 
40.8468 -37.3265 -7.55605 49.2882 -34.885 -7.55605 -52.8067 -34.1438 -7.55605 
-60.4493 -26.7903 -7.55605 50.8156 -34.1438 -7.55605 49.2882 -34.1438 -4.95489 
57.7295 -30.0467 -7.55605 -61.3591 -25.7024 -7.55605 62.3237 -25.7024 -7.55605 
66.1709 -18.3946 -7.55605 -66.0191 -17.2611 -7.55605 66.7538 -17.2611 -7.55605 
-68.4076 -8.81973 -7.55605 -68.8907 -6.14187 -7.55605 71.5843 -8.81973 -7.55605 
-69.8097 -0.378388 -7.55605 -68.8907 4.22616 -7.55605 -68.8907 -0.378388 -1.56521 
67.5102 -0.378388 -7.55605 66.1709 5.73773 -7.55605 -68.0455 8.06296 -7.55605 
65.2644 8.06296 -7.55605 57.7295 13.7366 -7.55605 66.1709 8.06296 -6.94428 
-65.5039 16.5043 -7.55605 54.3699 16.5043 -7.55605 49.2882 20.102 -7.55605 
57.7295 16.5043 -5.82184 66.1709 16.5043 -1.75908 -61.0307 24.9457 -7.55605 
-60.4493 25.7448 -7.55605 -60.4493 24.9457 -5.54504 32.4055 31.4038 -7.55605 
42.4446 24.9457 -7.55605 40.8468 25.9229 -7.55605 49.2882 24.9457 -4.07845 
57.7295 24.9457 -0.152011 -53.7087 33.387 -7.55605 -52.008 34.8622 -7.55605 
-52.008 33.387 -3.52844 -43.5666 39.816 -7.55605 -1.3599 41.2267 -7.55605 
7.08145 40.1238 -7.55605 15.5228 38.7457 -7.55605 29.5912 33.387 -7.55605 
23.9641 36.1747 -7.55605 32.4055 33.387 -5.48675 40.8468 33.387 -0.370526 
-36.9994 41.8283 -7.55605 -35.1253 42.352 -7.55605 -35.1253 41.8283 -3.64632 
-26.6839 43.2171 -7.55605 -18.2426 43.5771 -7.55605 -5.39093 41.8283 -7.55605 
-9.80124 42.4093 -7.55605 -1.3599 41.8283 -5.766 7.08145 41.8283 -2.52179 
15.5228 41.8283 0.371457 -52.008 -35.0248 0.8853 -43.5666 -38.7786 0.8853 
-35.1253 -40.7429 0.8853 -26.6839 -42.2807 0.8853 -18.2426 -42.0807 0.8853 
-9.80124 -42.2264 0.8853 -1.3599 -42.2451 0.8853 7.08145 -41.2363 0.8853 
15.5228 -39.6325 0.8853 23.9641 -38.4302 0.8853 32.4055 -37.6477 0.8853 
40.8468 -35.9777 0.8853 -53.1159 -34.1438 0.8853 -60.4493 -27.1825 0.8853 
-52.008 -34.1438 3.03869 23.9641 -34.1438 8.17311 32.4055 -34.1438 5.8685 
45.4135 -34.1438 0.8853 40.8468 -34.1438 3.56566 49.2882 -32.4041 0.8853 
57.7295 -28.3639 0.8853 -61.7985 -25.7024 0.8853 -60.4493 -25.7024 3.56071 
61.9961 -25.7024 0.8853 57.7295 -25.7024 4.06462 66.1709 -22.2203 0.8853 
-65.6251 -17.2611 0.8853 69.1544 -17.2611 0.8853 66.1709 -17.2611 6.18527 
-67.4775 -8.81973 0.8853 73.0852 -8.81973 0.8853 -68.4476 -0.378388 0.8853 
74.3838 -0.378388 0.8853 -66.302 8.06296 0.8853 72.3532 8.06296 0.8853 
-63.5301 16.5043 0.8853 -60.4493 21.3198 0.8853 -60.4493 16.5043 4.99237 
68.4814 16.5043 0.8853 66.1709 19.0701 0.8853 -58.1013 24.9457 0.8853 
-52.008 31.3472 0.8853 -52.008 24.9457 8.30738 49.2882 30.3014 0.8853 
58.8809 24.9457 0.8853 57.7295 25.9524 0.8853 -49.6061 33.387 0.8853 
-43.5666 38.2211 0.8853 -43.5666 33.387 7.17736 -35.1253 41.2086 0.8853 
23.9641 40.6279 0.8853 32.4055 38.0608 0.8853 43.1668 33.387 0.8853 
40.8468 34.3848 0.8853 49.2882 33.387 8.31544 -32.9781 41.8283 0.8853 
-26.6839 43.5917 0.8853 -26.6839 41.8283 4.95882 -18.2426 44.2963 0.8853 
-18.2426 41.8283 9.30219 -9.80124 44.2357 0.8853 -1.3599 43.6476 0.8853 
7.08145 42.8609 0.8853 16.8118 41.8283 0.8853 15.5228 42.0149 0.8853 
23.9641 41.8283 6.14283 -43.5666 -35.8681 9.32665 -35.1253 -38.7053 9.32665 
-26.6839 -39.8505 9.32665 -18.2426 -39.8594 9.32665 -9.80124 -39.8379 9.32665 
-1.3599 -39.3475 9.32665 7.08145 -37.8163 9.32665 15.5228 -35.5677 9.32665 
-46.8869 -34.1438 9.32665 -52.008 -30.6788 9.32665 -43.5666 -34.1438 11.7851 
-35.1253 -34.1438 15.8279 -26.6839 -34.1438 17.281 -18.2426 -34.1438 17.3337 
-9.80124 -34.1438 16.8308 -1.3599 -34.1438 15.3351 7.08145 -34.1438 13.2302 
21.0208 -34.1438 9.32665 15.5228 -34.1438 10.9219 23.9641 -33.1087 9.32665 
32.4055 -30.7492 9.32665 40.8468 -27.9517 9.32665 49.2882 -26.7945 9.32665 
-56.9065 -25.7024 9.32665 -60.4493 -19.0584 9.32665 -52.008 -25.7024 13.9905 
15.5228 -25.7024 16.4968 23.9641 -25.7024 14.3842 32.4055 -25.7024 12.6608 
40.8468 -25.7024 11.0111 50.8253 -25.7024 9.32665 49.2882 -25.7024 10.1081 
57.7295 -20.6908 9.32665 -61.4037 -17.2611 9.32665 -60.4493 -17.2611 10.2454 
-52.008 -17.2611 17.2702 23.9641 -17.2611 17.2402 32.4055 -17.2611 16.1841 
40.8468 -17.2611 15.4847 49.2882 -17.2611 14.5824 62.611 -17.2611 9.32665 
57.7295 -17.2611 12.1704 66.1709 -13.9755 9.32665 -63.0223 -8.81973 9.32665 
-60.4493 -8.81973 12.2413 57.7295 -8.81973 17.0802 70.913 -8.81973 9.32665 
66.1709 -8.81973 13.8505 -63.7872 -0.378388 9.32665 -60.4493 -0.378388 12.9282 
72.9154 -0.378388 9.32665 66.1709 -0.378388 16.1165 -61.2637 8.06296 9.32665 
-60.4493 9.68482 9.32665 -60.4493 8.06296 10.0725 -52.008 8.06296 16.9909 
74.0158 8.06296 9.32665 -57.0162 16.5043 9.32665 -52.008 23.6927 9.32665 
-52.008 16.5043 13.7325 69.3888 16.5043 9.32665 66.1709 20.7775 9.32665 
[...]
POINT_DATA 548
SCALARS ImageScalars float
LOOKUP_TABLE default
0 0 0 0 0 0 0 0 0 
0 0 0 0 0 0 0 0 0 
0 0 0 0 0 0 0 0 0 
0 0 0 0 0 0 0 0 0 
0 0 0 0 0 0 0 0 0 
0 0 0 0 0 0 0 0 0 
0 0 0 0 0 0 0 0 0 
0 0 0 0 0 0 0 0 0 
0 0 0 0 0 0 0 0 0 
0 0 0 0 0 0 0 0 0 
0 0 0 0 0 0 0 0 0 
0 0 0 0 0 0 0 0 0 
0 0 0 0 0 0 0 0 0 
0 0 0 0 0 0 0 0 0 
0 0 0 0 0 0 0 0 0 
0 0 0 0 0 0 0 0 0 
0 0 0 0 0 0 0 0 0 
0 0 0 0 0 0 0 0 0 
0 0 0 0 0 0 0 0 0 
0 0 0 0 0 0 0 0 0 
0 0 0 0 0 0 0 0 0 
0 0 0 0 0 0 0 0 0 
0 0 0 0 0 0 0 0 0 
0 0 0 0 0 0 0 0 0 
0 0 0 0 0 0 0 0 0 
0 0 0 0 0 0 0 0 0 
0 0 0 0 0 0 0 0 0 
0 0 0 0 0 0 0 0 0 
0 0 0 0 0 0 0 0 0 
0 0 0 0 0 0 0 0 0 
0 0 0 0 0 0 0 0 0 
0 0 0 0 0 0 0 0 0 
0 0 0 0 0 0 0 0 0 
0 0 0 0 0 0 0 0 0 
0 0 0 0 0 0 0 0 0 
0 0 0 0 0 0 0 0 0 
0 0 0 0 0 0 0 0 0 
0 0 0 0 0 0 0 0 0 
0 0 0 0 0 0 0 0 0 
0 0 0 0 0 0 0 0 0 
0 0 0 0 0 0 0 0 0 
0 0 0 0 0 0 0 0 0 
0 0 0 0 0 0 0 0 0 
0 0 0 0 0 0 0 0 0 
0 0 0 0 0 0 0 0 0 
0 0 0 0 0 0 0 0 0 
0 0 0 0 0 0 0 0 0 
0 0 0 0 0 0 0 0 0 
0 0 0 0 0 0 0 0 0 
0 0 0 0 0 0 0 0 0 
0 0 0 0 0 0 0 0 0 
0 0 0 0 0 0 0 0 0 
0 0 0 0 0 0 0 0 0 
0 0 0 0 0 0 0 0 0 
0 0 0 0 0 0 0 0 0 
0 0 0 0 0 0 0 0 0 
0 0 0 0 0 0 0 0 0 
0 0 0 0 0 0 0 0 0 
0 0 0 0 0 0 0 0 0 
0 0 0 0 0 0 0 0 0 
0 0 0 0 0 0 0 0 
NORMALS Normals float
0.145523 -0.0142269 0.989253 0.195802 0.566848 0.800216 0.0995601 0.45401 0.885417 
0.0427567 0.459548 0.887123 0.0255331 0.447021 0.894159 0.00805491 0.491772 0.870687 
-0.0493793 0.560785 0.826488 -0.0615749 0.617641 0.784046 -0.0654394 0.66889 0.740475 
-0.089702 0.673914 0.733344 -0.241352 0.746823 0.619681 0.392196 0.414151 0.821378 
0.21247 0.302555 0.929148 0.0639966 0.254464 0.964963 0.0472057 0.140244 0.988991 
0.0421879 0.0817388 0.995761 0.0430726 0.106032 0.993429 0.070156 0.121304 0.990133 
0.00185963 0.157872 0.987458 -0.0250882 0.179454 0.983446 -0.0026346 0.193624 0.981072 
-0.0802896 0.247495 0.965557 -0.203205 0.24766 0.947297 -0.366762 0.357941 0.858699 
0.262144 0.251543 0.931669 0.15711 0.135631 0.978223 0.0268116 0.0502332 0.998378 
-0.0693125 -0.0170849 0.997449 0.00539469 -0.0845702 0.996403 0.0595149 0.0921811 0.993962 
0.0768564 0.0152725 0.996925 0.0228954 0.00176313 0.999736 -0.0146949 -0.0153673 0.999774 
-0.000155286 -0.0217122 0.999764 -0.038788 -0.0449517 0.998236 -0.104746 -0.00313883 0.994494 
-0.292221 0.0577543 0.954605 0.474847 0.179359 0.861598 0.248168 0.181116 0.951635 
-0.000560087 0.107468 0.994208 -0.0945187 -0.0190086 0.995342 -0.0927738 -0.0483649 0.994512 
0.147118 -0.0870665 0.985279 0.14626 -0.008353 0.989211 0.158603 0.186612 0.969547 
-0.027395 -0.0224168 0.999373 -0.0288788 -0.00546891 0.999568 -0.0490098 0.0838855 0.995269 
-0.0319015 -0.0567135 0.997881 -0.0597242 -0.151093 0.986714 -0.108447 -0.177499 0.978127 
-0.173012 -0.205884 0.963161 -0.296723 -0.128464 0.946283 0.499666 0.0298222 0.865705 
0.203498 0.0522996 0.977678 -0.0386794 0.0522215 0.997886 -0.12688 0.0608393 0.990051 
-0.132616 0.0446662 0.990161 0.146846 -0.0141346 0.989058 0.166293 -0.0106388 0.986019 
0.142501 -0.0136192 0.989701 0.147094 -0.018941 0.988941 -0.0865759 0.015797 0.99612 
0.139473 -0.0884201 0.98627 -0.0712448 0.107195 0.991682 -0.235134 0.0211283 0.971733 
-0.159101 -0.178866 0.970924 -0.162945 -0.256992 0.952578 -0.240312 -0.284259 0.928142 
0.518829 -0.126032 0.845537 0.268665 -0.0657485 0.960987 0.00222583 -0.00615745 0.999979 
-0.101938 0.0458003 0.993736 -0.158067 0.0858932 0.983686 0.0643495 0.0684852 0.995575 
0.191399 -0.200578 0.960799 -0.101288 0.0526955 0.993461 0.0607715 -0.0537818 0.996702 
0.0748731 -0.0559672 0.995621 -0.322604 0.0390308 0.945729 -0.324154 -0.161285 0.932154 
0.587385 -0.300492 0.751454 0.325449 -0.179603 0.928346 0.0700253 -0.0917771 0.993314 
-0.0262204 -0.0114326 0.999591 -0.119323 0.00262684 0.992852 -0.0566769 0.0209125 0.998174 
0.104008 -0.212304 0.971653 0.0283698 -0.191192 0.981143 0.0309137 -0.0340918 0.99894 
0.0366218 -0.140443 0.989411 -0.290982 -0.135573 0.947074 -0.5074 -0.25737 0.822378 
0.416563 -0.384985 0.823566 0.160784 -0.221823 0.96174 -0.00974009 -0.144629 0.989438 
-0.12102 -0.161075 0.979494 -0.132062 -0.190196 0.972823 -0.0409022 -0.263122 0.963895 
0.0857661 -0.361139 0.92856 0.109718 -0.264231 0.958198 -0.0406088 -0.316948 0.947573 
-0.395607 -0.403154 0.825204 0.303361 -0.561535 0.769838 0.0391573 -0.48852 0.871673 
-0.131836 -0.382014 0.914705 -0.183507 -0.407179 0.894724 0.0374219 -0.603316 0.796623 
-0.126873 -0.698011 0.704758 0.206821 0.6246 0.753061 0.114654 0.631368 0.76696 
0.0439921 0.691146 0.721375 0.0228482 0.697369 0.716348 -0.02818 0.727621 0.6854 
-0.0783898 0.753906 0.652288 -0.0821423 0.767745 0.635469 -0.0636218 0.778174 0.624818 
-0.0965427 0.741426 0.664053 -0.245597 0.762439 0.598639 0.408186 0.45359 0.792237 
0.515794 0.787727 0.336812 0.260562 0.600491 0.755988 0.294625 0.544201 0.78552 
0.331139 0.676254 0.658048 -0.263563 0.753677 0.602085 -0.413826 0.530928 0.739502 
-0.388926 0.905831 0.167951 0.430124 0.432301 0.792533 0.735099 0.576059 0.357471 
-0.460825 0.387558 0.798398 -0.614932 0.539171 0.57546 0.4895 0.340403 0.802817 
0.526205 0.315059 0.789839 0.597949 0.38518 0.702918 -0.437459 0.162873 0.884365 
-0.421159 0.118501 0.899212 -0.454965 0.17308 0.873528 -0.826094 0.353066 0.43922 
0.598966 0.180336 0.780204 -0.414838 -0.097886 0.904615 -0.310347 -0.183109 0.932821 
-0.58455 -0.0500628 0.809812 0.645433 0.0208076 0.763533 0.958852 -0.0138989 0.283566 
-0.227392 -0.296188 0.927667 -0.263353 -0.284883 0.921676 -0.237067 -0.301677 0.923466 
-0.377684 -0.285464 0.880832 -0.602347 -0.242047 0.760652 0.670843 -0.11609 0.732457 
-0.241612 -0.288234 0.926577 -0.234082 -0.301515 0.92428 -0.235218 -0.377118 0.895798 
-0.325001 -0.387038 0.862888 0.611983 -0.314275 0.725746 0.612794 -0.33014 0.717977 
-0.491312 -0.271282 0.827658 -0.511696 -0.276336 0.813514 -0.326168 -0.376711 0.867008 
-0.307537 -0.438168 0.844648 0.62958 -0.433285 0.644897 0.825307 -0.548586 0.133869 
0.516898 -0.541498 0.663021 -0.0765083 -0.418571 0.904956 0.0258035 -0.49159 0.870444 
-0.506364 -0.420671 0.752749 -0.41841 -0.599013 0.682728 -0.512167 -0.438148 0.738723 
-0.374668 -0.508203 0.77547 0.414167 -0.631458 0.655536 0.614279 -0.745112 0.259751 
0.301637 -0.703102 0.643943 0.119537 -0.696394 0.707634 -0.0532231 -0.624079 0.779546 
-0.106667 -0.428953 0.897007 -0.181951 -0.47176 0.862749 -0.0811162 -0.442422 0.893131 
0.0352137 -0.594949 0.802992 0.0145465 -0.523402 0.851962 0.036303 -0.605666 0.794891 
-0.146974 -0.702613 0.696229 -0.129203 -0.705342 0.696993 -0.380914 -0.734035 0.562225 
0.186492 -0.959388 0.211648 0.0431014 -0.913214 0.405194 -0.0877108 -0.861458 0.500196 
-0.137991 -0.875303 0.463469 0.514007 0.80637 0.292514 0.34713 0.897702 0.271351 
0.212735 0.948381 0.235196 0.0863089 0.97713 0.194341 0.01078 0.987311 0.15843 
0.00529355 0.987933 0.154794 -0.0587564 0.985026 0.162086 -0.132072 0.979238 0.153785 
-0.113833 0.985507 0.125769 -0.0466192 0.993661 0.102294 -0.12797 0.987523 0.0917686 
-0.238708 0.968241 0.0743533 -0.371239 0.92522 0.0784182 0.536017 0.792614 0.290601 
0.742027 0.606303 0.285992 -0.412055 0.907417 0.0824916 -0.383908 0.921938 -0.0514393 
-0.617538 0.768668 0.166722 0.761685 0.579816 0.289222 -0.726303 0.640715 0.248934 
-0.836549 0.387851 0.386985 0.897723 0.38188 0.219683 -0.838557 0.365829 0.403721 
0.968355 0.208362 0.13738 0.980407 0.131473 0.146686 -0.827894 0.0738527 0.556001 
0.983596 -0.0236802 0.178824 0.984543 -0.135972 0.110396 0.982757 -0.0541416 -0.176799 
-0.625276 -0.226118 0.746928 -0.566941 -0.330761 0.754437 0.969941 -0.235642 0.0607281 
-0.520775 -0.378897 0.765003 -0.38097 -0.465466 0.798876 -0.565361 -0.372085 0.736152 
0.919002 -0.386596 0.0773213 -0.363712 -0.473128 0.802411 -0.330444 -0.494381 0.803987 
-0.412753 -0.511802 0.753455 -0.620063 -0.532523 0.576143 0.831912 -0.551709 0.0594971 
0.820609 -0.5685 0.0583834 0.828049 -0.558652 -0.0473529 -0.432378 -0.632921 0.642231 
-0.369126 -0.521881 0.769017 -0.373502 -0.529916 0.761371 -0.362544 -0.613867 0.701234 
-0.511769 -0.650305 0.561423 0.656406 -0.753327 0.0403744 0.615093 -0.787385 0.0410663 
0.631249 -0.753709 -0.182884 0.40705 -0.904238 0.129088 -0.120558 -0.877394 0.464377 
-0.129849 -0.891509 0.433994 -0.199016 -0.891822 0.406259 -0.407642 -0.709666 0.574632 
-0.331905 -0.809581 0.484167 -0.403385 -0.701814 0.587144 -0.352629 -0.765166 0.538678 
0.231364 -0.961281 0.149695 0.18321 -0.971523 0.150257 0.223645 -0.973475 -0.0482565 
0.070583 -0.97488 0.211253 -0.0466633 -0.9418 0.33292 -0.12958 -0.889767 0.437633 
-0.13387 -0.898263 0.418572 -0.116381 -0.91891 0.376908 -0.114509 -0.955307 0.272536 
-0.126942 -0.960152 0.248987 0.549243 0.820314 -0.15943 0.325662 0.935694 -0.135726 
0.194221 0.973985 -0.11675 0.0752365 0.989109 -0.126504 -0.00305094 0.990522 -0.137317 
0.00967226 0.989778 -0.142289 -0.05686 0.986373 -0.154384 -0.149639 0.972006 -0.181144 
-0.158973 0.960604 -0.227964 -0.109048 0.945173 -0.307825 -0.144323 0.90521 -0.399706 
-0.258857 0.883765 -0.389811 0.578991 0.79925 -0.161152 0.759534 0.625742 -0.17764 
0.552604 0.794953 -0.250356 -0.190038 0.754835 -0.627782 -0.170744 0.780239 -0.601725 
-0.330171 0.862747 -0.382956 -0.241355 0.817053 -0.523614 -0.377851 0.847041 -0.373831 
-0.461867 0.810179 -0.360955 0.792276 0.581781 -0.183931 0.766089 0.564862 -0.306657 
-0.585162 0.747693 -0.313911 -0.467133 0.723622 -0.508093 -0.75315 0.631835 -0.183167 
0.928123 0.313388 -0.200938 -0.868245 0.489183 -0.0827692 -0.677479 0.58431 -0.446771 
0.946696 0.153763 -0.28306 -0.956032 0.292871 -0.0151732 0.941431 -0.0671486 -0.330454 
-0.979463 -0.00843692 0.201449 0.919616 -0.239568 -0.311309 -0.831861 -0.387029 0.397764 
0.828068 -0.410131 -0.382225 0.775155 -0.481964 -0.408467 0.747514 -0.42032 -0.514348 
-0.727129 -0.532125 0.433735 -0.647006 -0.628551 0.431632 0.724528 -0.54849 -0.417394 
0.603434 -0.671551 -0.429985 0.5849 -0.537457 -0.607481 -0.384343 -0.753676 0.533154 
-0.541897 -0.674139 0.501882 -0.526942 -0.676228 0.514827 0.574826 -0.700155 -0.423507 
0.454619 -0.801059 -0.389393 0.476551 -0.681127 -0.555846 0.263952 -0.921032 -0.286408 
-0.200058 -0.919621 0.338044 -0.313779 -0.848057 0.427015 -0.358983 -0.784875 0.505077 
-0.350624 -0.792612 0.498827 -0.429427 -0.901722 0.0499091 0.238121 -0.936595 -0.257078 
0.172131 -0.967781 -0.183766 0.215524 -0.912932 -0.346562 0.0368106 -0.994403 -0.0990312 
0.157714 -0.891375 -0.424944 -0.0383881 -0.999194 0.0117253 -0.0807323 -0.992195 0.095037 
-0.0957057 -0.979776 0.175727 -0.132729 -0.958137 0.253686 -0.122128 -0.96322 0.239356 
-0.15646 -0.98459 0.0781243 0.383064 0.809076 -0.445712 0.202619 0.894621 -0.398245 
0.0692895 0.906531 -0.416414 -0.000688169 0.919565 -0.392937 -0.0265669 0.904846 -0.424909 
-0.105461 0.861445 -0.49678 -0.193034 0.803278 -0.563455 -0.222663 0.766078 -0.602948 
0.443707 0.763789 -0.468775 0.55179 0.648571 -0.524294 0.392416 0.749821 -0.532709 
0.204031 0.687329 -0.697102 0.0647323 0.62478 -0.778113 -0.0200334 0.634072 -0.773014 
-0.0890809 0.61449 -0.783879 -0.163923 0.630087 -0.759025 -0.197874 0.652656 -0.731359 
-0.206912 0.729069 -0.652415 -0.222519 0.711939 -0.666054 -0.197322 0.69515 -0.691253 
-0.186573 0.625898 -0.75726 -0.148958 0.599164 -0.786647 -0.271647 0.591946 -0.75882 
0.673051 0.488837 -0.555014 0.723853 0.326598 -0.607759 0.55383 0.462507 -0.692358 
-0.202027 0.425267 -0.882232 -0.205626 0.425366 -0.881352 -0.168257 0.473176 -0.864751 
-0.142033 0.551944 -0.821696 -0.307907 0.571197 -0.760873 -0.269928 0.558135 -0.784617 
-0.388817 0.573663 -0.720925 0.739094 0.282337 -0.611577 0.714808 0.282037 -0.639925 
0.502625 0.208007 -0.839108 -0.202189 0.275086 -0.939919 -0.095279 0.338122 -0.936267 
-0.0850595 0.405807 -0.909992 -0.162353 0.459718 -0.873098 -0.45506 0.572768 -0.681804 
-0.319526 0.539042 -0.779318 -0.545395 0.570113 -0.614422 0.790072 0.102596 -0.604368 
0.717409 0.113995 -0.687262 -0.198874 0.404622 -0.892597 -0.714306 0.47009 -0.518442 
-0.475444 0.449135 -0.756459 0.784571 -0.0638005 -0.616748 0.675314 -0.0947407 -0.73142 
-0.920853 0.126632 -0.368773 -0.515494 0.209501 -0.830888 0.694873 -0.297772 -0.654587 
0.680766 -0.323136 -0.657375 0.67507 -0.300657 -0.67371 0.508069 -0.233698 -0.829006 
-0.971775 -0.200338 -0.124574 0.645893 -0.394105 -0.653837 0.578791 -0.504322 -0.640828 
0.551772 -0.364653 -0.750051 -0.828813 -0.522238 -0.20084 -0.755583 -0.633712 -0.16584 
-0.697948 -0.51073 -0.502019 0.562937 -0.526502 -0.637101 0.461268 -0.634615 -0.620077 
0.446112 -0.487656 -0.75045 -0.672836 -0.735415 -0.0803546 -0.593765 -0.802692 -0.0559375 
-0.550728 -0.54462 -0.632525 0.420253 -0.669455 -0.612551 0.349353 -0.721899 -0.597339 
0.347982 -0.645227 -0.68014 0.254448 -0.808071 -0.531297 0.272053 -0.598492 -0.753521 
0.158081 -0.890806 -0.425998 -0.275813 -0.960416 -0.0391027 -0.381422 -0.924253 -0.0165136 
-0.290216 -0.676203 -0.677144 -0.438161 -0.898858 -0.00829179 -0.428713 -0.90341 -0.00744113 
-0.430373 -0.899543 -0.0748448 0.157337 -0.891316 -0.425207 0.0725793 -0.93673 -0.342445 
0.0843882 -0.908326 -0.409661 0.0385406 -0.965856 -0.256196 0.0582488 -0.916689 -0.395333 
-0.00471824 -0.985448 -0.16991 0.0235264 -0.921271 -0.388209 -0.0518357 -0.993196 -0.104281 
-0.0393031 -0.948987 -0.312856 -0.185045 -0.981032 -0.0577512 -0.13352 -0.988647 -0.0689219 
-0.131474 -0.972884 -0.190293 0.335937 0.444418 -0.830445 0.185445 0.547159 -0.816227 
0.0634239 0.58308 -0.809935 -0.0216895 0.591486 -0.806024 -0.091571 0.530957 -0.842436 
-0.163136 0.473164 -0.865738 -0.185513 0.404581 -0.895488 0.369064 0.404467 -0.836778 
0.32911 0.396279 -0.857117 0.135936 0.330186 -0.934076 0.0301914 0.266793 -0.963281 
-0.0256941 0.201134 -0.979227 -0.0801376 0.263785 -0.961247 -0.144245 0.350599 -0.92535 
-0.188916 0.39384 -0.899556 -0.184094 0.385525 -0.904146 -0.203741 0.386328 -0.899578 
0.471053 0.203036 -0.858421 0.493863 0.158756 -0.854925 0.270753 0.179122 -0.945837 
0.0813165 0.135765 -0.987398 -0.0524367 0.101614 -0.993441 -0.0273182 0.00524901 -0.999613 
0.0389604 0.104578 -0.993753 -0.0628418 0.126639 -0.989956 -0.134502 0.194727 -0.971592 
-0.204859 0.288148 -0.935416 -0.202553 0.343097 -0.9172 -0.208033 0.258969 -0.943216 
-0.056007 0.303873 -0.951065 -0.0410571 0.355853 -0.93364 -0.10071 0.40094 -0.910552 
0.512772 0.0775427 -0.855016 0.482429 0.0755376 -0.872672 0.255173 0.0661717 -0.964629 
0.0463252 0.0609137 -0.997067 -0.107493 0.0218216 -0.993966 -0.0266994 0.0465868 -0.998557 
0.0494542 0.146988 -0.987901 -0.0566206 -0.0230941 -0.998129 0.0382586 0.104216 -0.993819 
-0.121442 0.26583 -0.95634 -0.227556 0.209656 -0.950927 -0.034603 0.281331 -0.958987 
-0.0250235 0.334352 -0.942116 -0.137429 0.392922 -0.909244 -0.0884578 0.384219 -0.918995 
-0.218433 0.340951 -0.914352 0.501477 -0.0847481 -0.86101 0.492914 -0.170954 -0.853118 
0.474302 -0.0839233 -0.876353 0.256807 -0.0709994 -0.963851 0.0352611 -0.0378927 -0.998659 
-0.0670282 -0.000906566 -0.997751 0.087019 0.0306438 -0.995735 -0.00773421 -0.0481862 -0.998808 
-0.111092 0.00483328 -0.993798 0.164545 0.162144 -0.972951 -0.14767 -0.0116662 -0.988968 
-0.171472 0.0926277 -0.980825 0.0396577 0.189395 -0.9811 0.0168353 0.237871 -0.971151 
-0.115112 0.189568 -0.975097 -0.369292 0.194756 -0.908677 -0.274171 0.19454 -0.941798 
-0.468548 0.0370257 -0.882662 0.468843 -0.224502 -0.854275 0.303226 -0.189458 -0.933895 
0.11798 -0.131873 -0.984221 -0.0393226 -0.0447706 -0.998223 -0.0569811 -0.0235886 -0.998097 
0.0159347 -0.159213 -0.987116 0.124042 -0.014769 -0.992167 0.0311993 -0.0520056 -0.998159 
-0.18861 -0.184064 -0.964648 -0.0158976 0.0277537 -0.999488 0.108011 0.060781 -0.99229 
-0.00460877 0.067527 -0.997707 -0.10395 0.137333 -0.985055 -0.141738 -0.0111536 -0.989841 
-0.511589 -0.0817517 -0.855332 -0.510343 -0.179276 -0.841077 -0.479676 -0.0591789 -0.875448 
0.407731 -0.321167 -0.854755 0.390366 -0.349782 -0.851626 0.370864 -0.310716 -0.875166 
0.183566 -0.221903 -0.957634 0.0396114 -0.134715 -0.990092 -0.0269269 -0.0204773 -0.999428 
-0.01948 0.00445344 -0.9998 0.0348791 -0.0295717 -0.998954 -0.0076094 -0.115528 -0.993275 
-0.0481881 -0.0275046 -0.99846 0.0419628 0.0461611 -0.998052 0.0812206 0.00747973 -0.996668 
0.100072 -0.0761038 -0.992065 -0.216579 -0.102471 -0.970872 -0.470978 -0.287108 -0.834116 
-0.467323 -0.348619 -0.812449 -0.420516 -0.221733 -0.879773 0.339556 -0.425646 -0.838765 
0.318721 -0.446905 -0.835879 0.306162 -0.407604 -0.860304 0.249357 -0.502251 -0.827989 
0.171246 -0.285803 -0.942863 0.0819155 -0.169537 -0.982114 0.00686971 -0.0872338 -0.996164 
0.00384941 -0.0687648 -0.997625 0.0123815 -0.0782174 -0.996859 -0.00789417 -0.0144378 -0.999865 
0.0169555 -0.0111048 -0.999795 -0.0104376 -0.137827 -0.990401 -0.286569 -0.667307 -0.687445 
-0.112615 -0.224903 -0.967852 -0.442609 -0.455674 -0.772307 -0.355994 -0.573853 -0.737537 
-0.312342 -0.466339 -0.827629 0.224104 -0.545898 -0.807324 0.1898 -0.562653 -0.80461 
0.184166 -0.511078 -0.839573 0.0992731 -0.593943 -0.798359 0.085748 -0.439738 -0.894023 
0.059049 -0.579662 -0.812715 0.0385859 -0.387468 -0.921075 0.0737792 -0.614895 -0.78515 
0.0595708 -0.368272 -0.927808 -0.00321986 -0.671582 -0.740924 0.0196801 -0.313235 -0.949472 
-0.104906 -0.64054 -0.760726 -0.0867558 -0.390563 -0.916479 -0.285605 -0.667468 -0.687689 
-0.197151 -0.641893 -0.741016 -0.163413 -0.448256 -0.878841 
