# vtk DataFile Version 4.2
vtk output
ASCII
DATASET POLYDATA
POINTS 504 float
-23.9284 -33.1411 -16.5641 -15.8913 -33.1411 -18.9525 -7.85423 -33.1411 -20.4683 
0.182861 -33.1411 -21.5745 8.21995 -33.1411 -21.8539 16.257 -33.1411 -20.6 
24.2941 -33.1411 -19.6309 32.3312 -33.1411 -16.9138 -31.9655 -25.104 -18.3506 
-23.9284 -25.104 -20.7561 -15.8913 -25.104 -21.8793 -7.85423 -25.104 -22.5253 
0.182861 -25.104 -22.7699 8.21995 -25.104 -22.6904 16.257 -25.104 -22.3446 
24.2941 -25.104 -21.9132 32.3312 -25.104 -21.8084 40.3683 -25.104 -19.9106 
48.4054 -25.104 -18.1322 -40.0026 -17.0669 -17.8517 -31.9655 -17.0669 -19.8539 
-23.9284 -17.0669 -20.5217 -15.8913 -17.0669 -21.495 -7.85423 -17.0669 -22.0661 
0.182861 -17.0669 -22.0299 8.21995 -17.0669 -22.0526 16.257 -17.0669 -21.9448 
24.2941 -17.0669 -22.0035 32.3312 -17.0669 -22.2439 40.3683 -17.0669 -21.9635 
48.4054 -17.0669 -21.7839 56.4425 -17.0669 -16.8054 -48.0397 -9.02985 -15.9849 
-40.0026 -9.02985 -18.4656 -31.9655 -9.02985 -19.5441 -23.9284 -9.02985 -19.6741 
-15.8913 -9.02985 -19.8117 -7.85423 -9.02985 -21.2603 0.182861 -9.02985 -20.7627 
8.21995 -9.02985 -21.6383 16.257 -9.02985 -21.0854 24.2941 -9.02985 -21.2873 
32.3312 -9.02985 -21.7155 40.3683 -9.02985 -22.1068 48.4054 -9.02985 -20.8764 
56.4425 -9.02985 -18.7904 -48.0397 -0.992761 -16.6364 -40.0026 -0.992761 -19.0409 
-31.9655 -0.992761 -20.0183 -23.9284 -0.992761 -20.0909 -15.8913 -0.992761 -20.5101 
-7.85423 -0.992761 -23.1472 0.182861 -0.992761 -19.6913 8.21995 -0.992761 -21.7334 
16.257 -0.992761 -20.3061 24.2941 -0.992761 -19.5918 32.3312 -0.992761 -20.4518 
40.3683 -0.992761 -20.9093 48.4054 -0.992761 -20.5573 56.4425 -0.992761 -18.336 
-48.0397 7.04433 -16.069 -40.0026 7.04433 -18.9969 -31.9655 7.04433 -21.0341 
-23.9284 7.04433 -21.3325 -15.8913 7.04433 -22.4092 -7.85423 7.04433 -22.6074 
0.182861 7.04433 -18.6707 8.21995 7.04433 -19.7911 16.257 7.04433 -18.1068 
24.2941 7.04433 -17.7277 32.3312 7.04433 -18.672 40.3683 7.04433 -19.0939 
48.4054 7.04433 -18.5836 56.4425 7.04433 -16.3178 -40.0026 15.0814 -17.8098 
-31.9655 15.0814 -20.0385 -23.9284 15.0814 -21.029 -15.8913 15.0814 -21.4372 
-7.85423 15.0814 -21.065 0.182861 15.0814 -20.1111 8.21995 15.0814 -18.7748 
24.2941 15.0814 -15.8454 32.3312 15.0814 -16.4456 40.3683 15.0814 -16.5508 
48.4054 15.0814 -15.9226 -31.9655 23.1185 -16.1252 -23.9284 23.1185 -17.8263 
-15.8913 23.1185 -18.2072 -7.85423 23.1185 -18.342 0.182861 23.1185 -17.6286 
-23.9284 -34.3166 -15.3863 -15.8913 -36.6942 -15.3863 -7.85423 -37.9583 -15.3863 
0.182861 -39.3456 -15.3863 8.21995 -39.9895 -15.3863 16.257 -39.1848 -15.3863 
24.2941 -37.169 -15.3863 32.3312 -34.6083 -15.3863 -26.8711 -33.1411 -15.3863 
-31.9655 -30.2668 -15.3863 -31.9655 -33.1411 -11.6475 37.9958 -33.1411 -15.3863 
40.3683 -32.3049 -15.3863 40.3683 -33.1411 -12.9485 48.4054 -28.1715 -15.3863 
-48.0397 -25.104 -8.95711 -38.4693 -25.104 -15.3863 -40.0026 -23.469 -15.3863 
-40.0026 -25.104 -14.5211 52.2504 -25.104 -15.3863 56.4425 -19.6608 -15.3863 
-56.0768 -17.0669 -7.56837 -46.6791 -17.0669 -15.3863 -48.0397 -13.0616 -15.3863 
-48.0397 -17.0669 -14.6617 58.3055 -17.0669 -15.3863 -49.1473 -9.02985 -15.3863 
-56.0768 -9.02985 -11.0414 61.3186 -9.02985 -15.3863 64.4796 -9.02985 -10.3148 
-50.4328 -0.992761 -15.3863 -56.0768 -0.992761 -12.2228 60.6054 -0.992761 -15.3863 
64.4796 -0.992761 -10.3169 -49.22 7.04433 -15.3863 -56.0768 7.04433 -10.6742 
-48.0397 10.0199 -15.3863 16.257 15.0619 -15.3863 57.8142 7.04433 -15.3863 
56.4425 8.94949 -15.3863 64.4796 7.04433 -8.61283 -45.5357 15.0814 -15.3863 
-48.0397 15.0814 -14.0314 -40.0026 19.7939 -15.3863 16.2412 15.0814 -15.3863 
8.21995 20.9718 -15.3863 16.3653 15.0814 -15.3863 16.257 15.0814 -15.3797 
24.2941 16.0943 -15.3863 32.3312 17.2876 -15.3863 40.3683 17.4421 -15.3863 
49.7339 15.0814 -15.3863 48.4054 15.9621 -15.3863 56.4425 15.0814 -11.8857 
-34.1201 23.1185 -15.3863 -40.0026 23.1185 -13.0121 -31.9655 23.9533 -15.3863 
-23.9284 26.0449 -15.3863 -15.8913 26.8939 -15.3863 -7.85423 26.9803 -15.3863 
5.27546 23.1185 -15.3863 0.182861 25.8077 -15.3863 8.21995 23.1185 -13.9188 
16.257 23.1185 -11.6182 24.2941 23.1185 -11.8739 32.3312 23.1185 -12.4504 
40.3683 23.1185 -12.2764 48.4054 23.1185 -9.59172 -23.9284 31.1556 -8.69182 
-15.8913 31.1556 -10.6851 -7.85423 31.1556 -10.9966 0.182861 31.1556 -9.61754 
8.21995 31.1556 -8.07246 16.257 31.1556 -7.50446 24.2941 31.1556 -7.51116 
-31.9655 -35.0382 -7.34917 -23.9284 -37.1726 -7.34917 -15.8913 -38.6667 -7.34917 
-7.85423 -39.477 -7.34917 0.182861 -40.4071 -7.34917 8.21995 -40.9572 -7.34917 
16.257 -40.1904 -7.34917 24.2941 -38.4621 -7.34917 32.3312 -36.5492 -7.34917 
40.3683 -34.2628 -7.34917 -48.0397 -26.6027 -7.34917 -36.629 -33.1411 -7.34917 
-40.0026 -31.6017 -7.34917 42.8094 -33.1411 -7.34917 40.3683 -33.1411 -4.45637 
48.4054 -30.1105 -7.34917 -49.7785 -25.104 -7.34917 -56.0768 -17.3856 -7.34917 
55.5717 -25.104 -7.34917 56.4425 -24.3456 -7.34917 -56.302 -17.0669 -7.34917 
62.7683 -17.0669 -7.34917 64.4796 -12.9212 -7.34917 -60.1277 -9.02985 -7.34917 
65.9628 -9.02985 -7.34917 64.4796 -9.02985 -0.653085 -61.8041 -0.992761 -7.34917 
-64.1139 -0.992761 -2.04252 66.2985 -0.992761 -7.34917 64.4796 -0.992761 -0.517417 
-59.5663 7.04433 -7.34917 -56.0768 14.2432 -7.34917 65.3882 7.04433 -7.34917 
64.4796 8.66385 -7.34917 -55.6441 15.0814 -7.34917 -56.0768 15.0814 -6.7386 
-48.0397 22.8222 -7.34917 60.7606 15.0814 -7.34917 56.4425 20.4313 -7.34917 
-47.6513 23.1185 -7.34917 -48.0397 23.1185 -6.90482 -40.0026 27.5725 -7.34917 
-31.9655 30.2437 -7.34917 32.3312 29.8155 -7.34917 40.3683 28.1367 -7.34917 
52.3352 23.1185 -7.34917 48.4054 25.261 -7.34917 -27.9487 31.1556 -7.34917 
-31.9655 31.1556 -5.47121 -23.9284 32.0194 -7.34917 -15.8913 33.4955 -7.34917 
-7.85423 33.9426 -7.34917 0.182861 33.1348 -7.34917 8.21995 32.0312 -7.34917 
16.257 31.4292 -7.34917 25.3448 31.1556 -7.34917 24.2941 31.3999 -7.34917 
32.3312 31.1556 -5.9169 40.3683 31.1556 -2.34209 0.182861 39.1927 -0.255724 
8.21995 39.1927 -1.26719 16.257 39.1927 -2.23562 24.2941 39.1927 -0.752745 
-31.9655 -34.804 0.68792 -23.9284 -36.5769 0.68792 -15.8913 -37.5099 0.68792 
-7.85423 -38.0835 0.68792 0.182861 -38.5572 0.68792 8.21995 -38.5826 0.68792 
16.257 -37.6478 0.68792 24.2941 -35.6866 0.68792 32.3312 -33.2851 0.68792 
-48.0397 -29.0638 0.68792 -37.4851 -33.1411 0.68792 -40.0026 -32.3583 0.68792 
-31.9655 -33.1411 6.47652 -23.9284 -33.1411 8.53833 8.21995 -33.1411 8.39391 
16.257 -33.1411 7.52732 24.2941 -33.1411 4.71963 32.7658 -33.1411 0.68792 
32.3312 -33.1411 0.904049 40.3683 -30.4533 0.68792 48.4054 -26.1109 0.68792 
-53.3368 -25.104 0.68792 -56.0768 -22.571 0.68792 40.3683 -25.104 6.89399 
49.9804 -25.104 0.68792 48.4054 -25.104 1.72631 56.4425 -19.6987 0.68792 
-60.348 -17.0669 0.68792 48.4054 -17.0669 8.56436 58.8452 -17.0669 0.68792 
56.4425 -17.0669 2.65886 -63.6935 -9.02985 0.68792 -64.1139 -6.48472 0.68792 
64.0441 -9.02985 0.68792 56.4425 -9.02985 6.77046 -64.9612 -0.992761 0.68792 
-64.1139 4.03459 0.68792 -64.1139 -0.992761 6.97259 64.1526 -0.992761 0.68792 
64.4796 3.14727 0.68792 -63.5469 7.04433 0.68792 64.7902 7.04433 0.68792 
64.4796 7.90355 0.68792 64.4796 7.04433 1.38279 -60.3412 15.0814 0.68792 
-56.0768 21.1181 0.68792 61.4973 15.0814 0.68792 56.4425 21.1754 0.68792 
56.4425 15.0814 7.06392 -53.9905 23.1185 0.68792 -48.0397 27.2446 0.68792 
-40.0026 30.7937 0.68792 54.5414 23.1185 0.68792 48.4054 27.8316 0.68792 
-38.9979 31.1556 0.68792 -31.9655 33.6504 0.68792 -23.9284 35.7156 0.68792 
-15.8913 37.6912 0.68792 -7.85423 38.9992 0.68792 32.3312 36.6369 0.68792 
43.0339 31.1556 0.68792 40.3683 32.7509 0.68792 40.3683 31.1556 6.14377 
-15.8913 39.1927 7.39255 -6.12449 39.1927 0.68792 -7.85423 39.1927 1.23073 
0.182861 39.8495 0.68792 8.21995 40.849 0.68792 16.257 41.4375 0.68792 
26.9273 39.1927 0.68792 24.2941 40.2634 0.68792 -15.8913 -33.7621 8.72501 
-7.85423 -33.9845 8.72501 0.182861 -33.5563 8.72501 -48.0397 -26.5722 8.72501 
-40.0026 -30.0503 8.72501 -31.9655 -32.3589 8.72501 -22.9177 -33.1411 8.72501 
-23.9284 -33.0431 8.72501 -15.8913 -33.1411 9.5345 -7.85423 -33.1411 9.72773 
5.1378 -33.1411 8.72501 0.182861 -33.1411 9.16217 8.21995 -32.8255 8.72501 
16.257 -32.1931 8.72501 24.2941 -30.1417 8.72501 32.3312 -26.9777 8.72501 
-50.7486 -25.104 8.72501 -56.0768 -20.7613 8.72501 -48.0397 -25.104 10.6484 
-40.0026 -25.104 15.0996 -31.9655 -25.104 16.5828 -23.9284 -25.104 16.7507 
-15.8913 -25.104 16.6031 -7.85423 -25.104 15.597 0.182861 -25.104 14.3813 
8.21995 -25.104 14.4811 16.257 -25.104 15.1003 24.2941 -25.104 13.6614 
36.4874 -25.104 8.72501 32.3312 -25.104 10.4441 40.3683 -22.5908 8.72501 
-58.5068 -17.0669 8.72501 -56.0768 -17.0669 11.8124 32.3312 -17.0669 15.1574 
48.0552 -17.0669 8.72501 40.3683 -17.0669 11.8837 48.4054 -16.7035 8.72501 
-62.4941 -9.02985 8.72501 40.3683 -9.02985 15.1906 53.5224 -9.02985 8.72501 
48.4054 -9.02985 11.7852 56.4425 -3.40271 8.72501 -63.8325 -0.992761 8.72501 
48.4054 -0.992761 14.2689 57.6603 -0.992761 8.72501 56.4425 -0.992761 9.45598 
-62.586 7.04433 8.72501 48.4054 7.04433 15.2309 59.1175 7.04433 8.72501 
56.4425 11.7726 8.72501 56.4425 7.04433 10.4315 -59.4623 15.0814 8.72501 
-56.0768 20.1579 8.72501 -56.0768 15.0814 13.8013 40.3683 15.0814 16.4597 
54.523 15.0814 8.72501 48.4054 15.0814 12.9818 -53.3401 23.1185 8.72501 
-48.0397 27.0629 8.72501 -48.0397 23.1185 15.4164 -40.0026 31.1323 8.72501 
40.3683 29.9919 8.72501 40.3683 23.1185 13.3778 48.5846 23.1185 8.72501 
48.4054 23.2845 8.72501 48.4054 23.1185 8.86084 -39.9497 31.1556 8.72501 
-31.9655 34.535 8.72501 -23.9284 37.1552 8.72501 39.1905 31.1556 8.72501 
32.3312 36.6974 8.72501 32.3312 31.1556 14.1834 -16.8674 39.1927 8.72501 
-15.8913 39.4792 8.72501 -15.8913 39.1927 9.78496 -7.85423 41.5917 8.72501 
-7.85423 39.1927 16.2199 0.182861 42.5409 8.72501 8.21995 43.6067 8.72501 
16.257 44.0533 8.72501 29.028 39.1927 8.72501 24.2941 42.0218 8.72501 
24.2941 39.1927 13.5701 -48.0397 -18.1804 16.7621 -40.0026 -22.9354 16.7621 
[...]
POINT_DATA 504
SCALARS ImageScalars float
LOOKUP_TABLE default
0 0 0 0 0 0 0 0 0 
0 0 0 0 0 0 0 0 0 
0 0 0 0 0 0 0 0 0 
0 0 0 0 0 0 0 0 0 
0 0 0 0 0 0 0 0 0 
0 0 0 0 0 0 0 0 0 
0 0 0 0 0 0 0 0 0 
0 0 0 0 0 0 0 0 0 
0 0 0 0 0 0 0 0 0 
0 0 0 0 0 0 0 0 0 
0 0 0 0 0 0 0 0 0 
0 0 0 0 0 0 0 0 0 
0 0 0 0 0 0 0 0 0 
0 0 0 0 0 0 0 0 0 
0 0 0 0 0 0 0 0 0 
0 0 0 0 0 0 0 0 0 
0 0 0 0 0 0 0 0 0 
0 0 0 0 0 0 0 0 0 
0 0 0 0 0 0 0 0 0 
0 0 0 0 0 0 0 0 0 
0 0 0 0 0 0 0 0 0 
0 0 0 0 0 0 0 0 0 
0 0 0 0 0 0 0 0 0 
0 0 0 0 0 0 0 0 0 
0 0 0 0 0 0 0 0 0 
0 0 0 0 0 0 0 0 0 
0 0 0 0 0 0 0 0 0 
0 0 0 0 0 0 0 0 0 
0 0 0 0 0 0 0 0 0 
0 0 0 0 0 0 0 0 0 
0 0 0 0 0 0 0 0 0 
0 0 0 0 0 0 0 0 0 
0 0 0 0 0 0 0 0 0 
0 0 0 0 0 0 0 0 0 
0 0 0 0 0 0 0 0 0 
0 0 0 0 0 0 0 0 0 
0 0 0 0 0 0 0 0 0 
0 0 0 0 0 0 0 0 0 
0 0 0 0 0 0 0 0 0 
0 0 0 0 0 0 0 0 0 
0 0 0 0 0 0 0 0 0 
0 0 0 0 0 0 0 0 0 
0 0 0 0 0 0 0 0 0 
0 0 0 0 0 0 0 0 0 
0 0 0 0 0 0 0 0 0 
0 0 0 0 0 0 0 0 0 
0 0 0 0 0 0 0 0 0 
0 0 0 0 0 0 0 0 0 
0 0 0 0 0 0 0 0 0 
0 0 0 0 0 0 0 0 0 
0 0 0 0 0 0 0 0 0 
0 0 0 0 0 0 0 0 0 
0 0 0 0 0 0 0 0 0 
0 0 0 0 0 0 0 0 0 
0 0 0 0 0 0 0 0 0 
0 0 0 0 0 0 0 0 0 

NORMALS Normals float
0.295706 0.688192 0.662533 0.214882 0.592189 0.776619 0.149181 0.520411 0.840784 
0.0774425 0.411961 0.907905 -0.0614799 0.362749 0.929857 -0.128923 0.43958 0.888903 
-0.216004 0.539068 0.814094 -0.258507 0.728049 0.634916 0.3502 0.32738 0.8776 
0.21128 0.187903 0.959194 0.117264 0.130736 0.984458 0.0528298 0.075091 0.995776 
0.0108759 0.0190493 0.999759 -0.0262466 0.00712427 0.99963 -0.0477194 0.07752 0.995848 
-0.0340214 0.125194 0.991549 -0.131949 0.294633 0.946457 -0.22527 0.384118 0.895381 
-0.395716 0.574812 0.71624 0.281895 0.193907 0.939646 0.173911 0.0700461 0.982267 
0.0961018 -0.0676838 0.993068 0.0973712 -0.128892 0.986867 0.0316973 -0.080079 0.996284 
-0.000863624 -0.126611 0.991952 -0.00537846 -0.0658669 0.997814 -0.00296164 -0.0774593 0.996991 
0.0185913 -0.0389081 0.99907 -0.00189157 -0.00857596 0.999961 -0.0266473 0.13522 0.990457 
-0.303136 0.149917 0.941081 -0.571787 0.34702 0.743395 0.387445 0.105701 0.915813 
0.204568 0.0749061 0.975982 0.0721211 0.011447 0.99733 0.0165437 -0.026794 0.999504 
0.0999539 -0.0598163 0.993192 0.0593826 0.0600541 0.996427 0.0233241 -0.131883 0.990991 
0.0204273 -0.0202142 0.999587 -0.0219518 -0.0970633 0.995036 0.038877 -0.147785 0.988255 
0.0502582 -0.109842 0.992678 -0.0607237 -0.0653447 0.996013 -0.197407 -0.0590111 0.978544 
-0.435707 0.0873897 0.895836 0.37406 0.00509526 0.927391 0.196742 0.0319892 0.979933 
0.0630636 0.0907626 0.993874 0.0286537 0.106074 0.993945 0.187935 0.163637 0.968454 
-0.0331666 0.0893267 0.99545 -0.0961206 -0.137598 0.985813 0.0316496 -0.118651 0.992432 
-0.131711 -0.184175 0.974029 0.0129126 -0.218045 0.975853 0.0801319 -0.184824 0.979499 
0.00751291 -0.181182 0.983421 -0.167601 -0.133612 0.976759 -0.423957 -0.137502 0.895184 
0.428228 -0.13337 0.893775 0.281823 -0.0709869 0.956837 0.142891 0.00304989 0.989734 
0.0799294 0.0573357 0.99515 0.0832337 0.0526318 0.995139 -0.214081 -0.127838 0.968415 
-0.174334 0.0373284 0.983979 -0.0341 -0.170992 0.984682 -0.128258 -0.277116 0.952238 
0.0349662 -0.222862 0.974223 0.0810654 -0.236112 0.968339 -0.00354595 -0.255773 0.96673 
-0.160139 -0.286688 0.944545 -0.415335 -0.340513 0.843533 0.331072 -0.291053 0.897597 
0.19048 -0.254131 0.948227 0.0850169 -0.195475 0.977017 0.00245684 -0.236464 0.971637 
-0.0812288 -0.236188 0.968306 -0.131993 -0.0519726 0.989887 -0.28333 -0.296267 0.912113 
0.0602967 -0.329683 0.942164 0.0419421 -0.358026 0.932769 -0.0328326 -0.380459 0.924215 
-0.225033 -0.442751 0.867947 0.236842 -0.602877 0.76187 0.107973 -0.549994 0.828159 
0.0284681 -0.507532 0.861163 -0.0313132 -0.485468 0.873693 -0.216193 -0.515301 0.829292 
0.298484 0.752628 0.586906 0.20284 0.825333 0.526955 0.154183 0.871099 0.466277 
0.121335 0.899645 0.419425 -0.0071961 0.913384 0.407036 -0.164316 0.879575 0.446483 
-0.265261 0.850693 0.453826 -0.276066 0.799594 0.533326 0.330103 0.714729 0.616599 
0.389857 0.5869 0.70962 0.368752 0.825188 0.427887 -0.325331 0.797764 0.507673 
-0.33953 0.786543 0.51582 -0.366062 0.877346 0.310262 -0.457053 0.703837 0.543798 
0.581824 0.622401 0.523543 0.414444 0.444211 0.7943 0.394019 0.414937 0.820108 
0.431125 0.493349 0.755472 -0.582742 0.599865 0.548246 -0.621107 0.453605 0.639116 
0.689843 0.42081 0.589097 0.45342 0.268936 0.849755 0.443499 0.193451 0.875149 
0.500196 0.294144 0.814422 -0.636111 0.378575 0.672342 0.417618 0.113377 0.901521 
0.640763 0.219459 0.735704 -0.703426 0.106557 0.702736 -0.93297 0.173976 0.315117 
0.429831 6.28385e-05 0.902909 0.59726 -0.0160199 0.801888 -0.636577 -0.140837 0.758244 
-0.927086 -0.0700629 0.368244 0.457414 -0.13458 0.879011 0.662788 -0.222185 0.715085 
0.439882 -0.214002 0.872185 -0.165675 -0.378236 0.910763 -0.469424 -0.340032 0.814874 
-0.430716 -0.378599 0.819235 -0.877204 -0.31274 0.364288 0.413422 -0.338897 0.845122 
0.466997 -0.376012 0.80033 0.351961 -0.464041 0.81289 -0.166054 -0.378451 0.910605 
-0.338961 -0.516897 0.786081 -0.162682 -0.37798 0.911408 -0.165687 -0.37849 0.910656 
0.0612665 -0.347498 0.935677 0.0366941 -0.394187 0.918297 -0.0520542 -0.415425 0.908137 
-0.264659 -0.450508 0.852642 -0.230787 -0.46744 0.853368 -0.53789 -0.527495 0.657588 
0.270596 -0.602784 0.750619 0.35957 -0.619331 0.697953 0.235159 -0.632206 0.738252 
0.129731 -0.661014 0.739074 0.0430924 -0.643091 0.764576 -0.0499628 -0.630342 0.774708 
-0.307938 -0.564954 0.765507 -0.223142 -0.618157 0.753717 -0.319306 -0.561526 0.763369 
-0.0948404 -0.427846 0.898862 0.0472181 -0.463378 0.884902 0.0226188 -0.512032 0.858668 
-0.138833 -0.567962 0.811261 -0.338972 -0.70557 0.622309 0.167121 -0.841861 0.513166 
0.0821936 -0.797551 0.597626 -0.0451564 -0.767954 0.638911 -0.130426 -0.72761 0.673479 
-0.0941809 -0.610968 0.786033 -0.0290744 -0.493314 0.869365 -0.0656771 -0.533488 0.843254 
0.318967 0.930221 0.181518 0.215902 0.971156 0.101206 0.143537 0.989078 0.0335024 
0.106945 0.994265 0.000298412 0.0917244 0.994598 -0.0485894 -0.0128994 0.996748 -0.0795393 
-0.151264 0.984661 -0.0869556 -0.221407 0.971732 -0.0819544 -0.271192 0.959995 -0.0697424 
-0.358663 0.929005 -0.091159 0.586916 0.676333 0.445087 0.372679 0.895977 0.241528 
0.419798 0.852165 0.312385 -0.39467 0.915129 -0.0823077 -0.352277 0.903595 -0.243758 
-0.490529 0.868263 -0.0741697 0.619586 0.637819 0.457494 0.692175 0.432688 0.577646 
-0.665726 0.745968 -0.0184301 -0.690193 0.723607 -0.00517975 0.694942 0.424621 0.580303 
-0.860699 0.505844 0.0576151 -0.931738 0.347944 0.103923 0.774048 0.240894 0.585509 
-0.970939 0.206613 0.120785 -0.896301 0.212711 -0.3891 0.819496 -0.0267793 0.572459 
0.971151 -0.0144836 0.238026 -0.985721 -0.0309507 0.165518 -0.960442 0.0259464 -0.277268 
0.764012 -0.267045 0.587344 0.718454 -0.403651 0.566471 -0.906777 -0.316172 0.27891 
-0.891746 -0.348651 0.2885 0.711238 -0.423369 0.561159 0.731168 -0.428389 0.53092 
0.491868 -0.685651 0.536609 -0.772732 -0.527549 0.352955 -0.571136 -0.728971 0.377367 
0.482629 -0.694778 0.533248 0.493405 -0.700575 0.515506 0.339381 -0.815188 0.46935 
0.235609 -0.847438 0.47575 -0.136979 -0.669714 0.729877 -0.219268 -0.783805 0.581008 
-0.454547 -0.765308 0.455732 -0.374359 -0.768704 0.518603 0.204558 -0.855403 0.47586 
0.245606 -0.875137 0.416908 0.174798 -0.858211 0.482617 0.102813 -0.845363 0.524205 
-0.0141025 -0.81618 0.577625 -0.0867886 -0.739542 0.667492 -0.0703263 -0.616303 0.784363 
-0.0268305 -0.499253 0.866041 -0.0797839 -0.555139 0.827922 -0.0692028 -0.538645 0.839686 
-0.199676 -0.725482 0.658639 -0.381317 -0.885475 0.265577 0.0904781 -0.859485 0.503089 
0.085641 -0.771663 0.63024 -0.0157822 -0.753557 0.657193 -0.246242 -0.817384 0.520816 
0.234828 0.960422 -0.149817 0.159731 0.960428 -0.228176 0.0893233 0.957223 -0.275218 
0.0608878 0.951281 -0.302253 0.0293693 0.929735 -0.367056 -0.0495711 0.904316 -0.423976 
-0.158189 0.888672 -0.430392 -0.2319 0.872082 -0.430924 -0.268604 0.840778 -0.470047 
0.501073 0.86523 -0.0174114 0.294274 0.948233 -0.119407 0.327467 0.939574 -0.0998348 
0.197384 0.909953 -0.364726 0.0748673 0.847249 -0.525894 -0.0645712 0.730036 -0.680352 
-0.129535 0.783076 -0.608287 -0.234986 0.816856 -0.52681 -0.270907 0.838508 -0.472772 
-0.269262 0.83753 -0.475439 -0.339034 0.783923 -0.520116 -0.439292 0.701977 -0.560582 
0.634928 0.770029 0.0626267 0.725638 0.681199 0.097047 -0.380397 0.617596 -0.688385 
-0.473061 0.679688 -0.560568 -0.44042 0.674123 -0.592949 -0.608394 0.54247 -0.579296 
0.852611 0.515943 0.0828039 -0.426838 0.446435 -0.786451 -0.653781 0.495127 -0.572206 
-0.596062 0.470266 -0.650816 0.963913 0.251672 0.0867893 0.981649 0.171018 0.0843678 
-0.842019 0.216344 -0.494164 -0.563636 0.338037 -0.753688 0.995749 -0.00671272 0.0918627 
0.98097 -0.162178 0.106756 0.962985 0.0027654 -0.269543 -0.933237 0.0416691 -0.356837 
-0.951615 -0.0542099 -0.302472 0.958751 -0.256065 0.123398 -0.955963 -0.141652 -0.25704 
-0.95309 -0.171544 -0.249382 -0.94659 -0.142966 -0.289012 0.85563 -0.492941 0.157819 
0.724771 -0.672426 0.150169 -0.854179 -0.463866 -0.234961 -0.703613 -0.677664 -0.213776 
-0.642288 -0.422836 -0.639278 0.656146 -0.738866 0.15346 0.529444 -0.827647 0.18625 
0.343228 -0.920146 0.188486 -0.653628 -0.73848 -0.165584 -0.547236 -0.835215 -0.0543003 
0.332688 -0.922748 0.194561 0.274757 -0.931409 0.238717 0.238843 -0.927515 0.287524 
0.183849 -0.923079 0.337823 0.119207 -0.902644 0.413551 -0.413059 -0.863797 0.288509 
-0.476086 -0.877069 0.0639753 -0.457832 -0.880976 0.119464 -0.561268 -0.770271 -0.302754 
0.257373 -0.965748 0.0330234 0.117131 -0.896499 0.427281 0.125007 -0.913308 0.38761 
0.106719 -0.873217 0.475503 0.094465 -0.828762 0.551571 -0.0338648 -0.848849 0.52755 
-0.328015 -0.856292 0.398961 -0.264942 -0.852275 0.451035 0.0508205 0.829395 -0.556347 
-0.0097084 0.793569 -0.608403 -0.0569283 0.729225 -0.681902 0.434994 0.79529 -0.422249 
0.280567 0.858863 -0.428528 0.170299 0.868915 -0.464742 0.0698262 0.841391 -0.535897 
0.0725952 0.842515 -0.533759 0.0458967 0.810529 -0.583897 -0.0195332 0.762876 -0.646249 
-0.0623871 0.723233 -0.687781 -0.0594399 0.714195 -0.697418 -0.0620073 0.717879 -0.693401 
-0.119242 0.756312 -0.643252 -0.235632 0.732478 -0.638713 -0.300569 0.650116 -0.697859 
0.503714 0.765248 -0.400833 0.685941 0.61958 -0.381582 0.425933 0.751743 -0.503452 
0.231005 0.669058 -0.706398 0.0773335 0.61819 -0.782216 -0.000186968 0.565772 -0.824561 
-0.0623907 0.502569 -0.862283 -0.121502 0.465757 -0.876532 -0.0604983 0.447345 -0.892313 
0.0366797 0.480611 -0.876167 -0.0331948 0.538479 -0.841985 -0.232522 0.572228 -0.78644 
-0.340133 0.603998 -0.720761 -0.307389 0.598144 -0.740092 -0.372731 0.541242 -0.753743 
0.76589 0.514981 -0.384976 0.673938 0.51759 -0.527169 -0.310816 0.370276 -0.875379 
-0.422758 0.443927 -0.790066 -0.356541 0.411083 -0.838981 -0.426733 0.438355 -0.791039 
0.893784 0.262901 -0.363365 -0.32691 0.299934 -0.896197 -0.507334 0.316186 -0.801648 
-0.421326 0.303391 -0.854657 -0.524035 0.225354 -0.821342 0.92936 0.00559866 -0.369132 
-0.430869 0.176494 -0.884987 -0.551193 0.183436 -0.813964 -0.517373 0.177983 -0.837047 
0.914791 -0.224871 -0.335546 -0.411221 -0.0589021 -0.90963 -0.636114 -0.127595 -0.760972 
-0.580463 -0.276108 -0.766047 -0.541499 -0.0991728 -0.834831 0.824018 -0.476084 -0.307145 
0.736346 -0.61048 -0.291734 0.682192 -0.433737 -0.588631 -0.317771 -0.238767 -0.917612 
-0.568375 -0.371523 -0.734112 -0.462367 -0.314382 -0.829084 0.66804 -0.69619 -0.262761 
0.567028 -0.791863 -0.226787 0.53394 -0.587178 -0.608383 0.40002 -0.907647 -0.127124 
-0.563124 -0.643852 -0.518022 -0.437216 -0.414106 -0.798347 -0.550154 -0.527741 -0.647163 
-0.549624 -0.531169 -0.644805 -0.546779 -0.524941 -0.65228 0.399402 -0.907982 -0.126677 
0.33516 -0.936949 -0.098965 0.301193 -0.951523 -0.062336 -0.579475 -0.662322 -0.474908 
-0.587272 -0.749754 -0.304927 -0.521649 -0.496842 -0.693563 0.273306 -0.961512 -0.0282696 
0.269041 -0.962816 -0.0245312 0.268483 -0.959575 -0.0844567 0.182485 -0.983166 0.00913199 
0.164059 -0.844465 -0.509866 0.129313 -0.99128 0.0253381 0.0895116 -0.995827 0.0177948 
-0.0902399 -0.995867 0.0102709 -0.529925 -0.818303 -0.222621 -0.411189 -0.901557 -0.134602 
-0.503275 -0.713262 -0.487822 0.38579 0.469059 -0.79445 0.216542 0.573833 -0.789826 
0.0754707 0.607658 -0.790605 -0.000395884 0.565072 -0.825042 -0.0647966 0.493131 -0.867539 
-0.126992 0.426027 -0.895754 -0.0637067 0.457073 -0.887145 0.0489118 0.383207 -0.922366 
-0.0209982 0.413218 -0.91039 -0.214097 0.351804 -0.911261 0.412355 0.451242 -0.791419 
0.561337 0.285636 -0.776733 0.378294 0.436744 -0.816179 0.180741 0.376199 -0.908739 
0.0349753 0.329994 -0.943335 -0.0453105 0.30994 -0.949676 -0.0930077 0.311495 -0.945685 
-0.110578 0.362267 -0.925492 -0.0643901 0.474942 -0.877658 0.0378266 0.338232 -0.940302 
-0.0265086 0.2525 -0.967234 -0.245206 0.315124 -0.916826 -0.207176 0.285012 -0.935867 
-0.260826 0.295547 -0.919033 0.571129 0.266296 -0.776465 0.55585 0.264513 -0.788076 
0.301078 0.193393 -0.933783 0.176055 0.162631 -0.970853 -0.0116666 0.133527 -0.990977 
-0.0503802 0.130434 -0.990176 -0.0264768 0.18643 -0.982111 0.0196193 0.253283 -0.967193 
-0.09784 0.265372 -0.959169 -0.17352 0.200792 -0.964144 -0.0647488 0.103378 -0.992532 
-0.109477 0.183071 -0.976985 -0.267004 0.27121 -0.924745 -0.227052 0.250774 -0.941042 
-0.307556 0.189709 -0.932427 0.644407 0.0189424 -0.764448 0.544254 0.0188628 -0.838708 
0.266126 0.0304524 -0.963457 0.108164 -0.00226535 -0.99413 0.0130715 0.00254216 -0.999911 
0.0129897 0.0527708 -0.998522 0.0321237 0.115987 -0.992731 -0.0122906 0.162306 -0.986664 
-0.105939 0.108861 -0.988396 -0.155848 0.231898 -0.960174 -0.0530665 0.192727 -0.979817 
-0.0624299 0.14229 -0.987854 -0.199917 0.131968 -0.970885 -0.329472 0.150564 -0.932083 
-0.300149 0.140911 -0.943427 0.607343 -0.188428 -0.77177 0.592286 -0.237027 -0.770075 
0.576401 -0.186368 -0.795631 0.300225 -0.088329 -0.94977 0.133436 -0.0528659 -0.989646 
0.0448931 0.00792741 -0.99896 0.0623415 0.0371165 -0.997364 0.0851689 0.0497 -0.995126 
0.0144422 0.044351 -0.998912 -0.0349401 0.0588081 -0.997658 -0.0994138 0.128661 -0.986693 
-0.149419 0.118363 -0.981664 -0.159745 0.000140612 -0.987158 -0.227778 -0.0364543 -0.97303 
-0.327932 -0.0540952 -0.943151 -0.306847 -0.19578 -0.931405 -0.277936 -0.0556663 -0.958985 
0.525591 -0.357906 -0.771788 0.493748 -0.49702 -0.713572 0.418507 -0.283781 -0.86274 
0.196485 -0.193959 -0.961132 0.104123 -0.0940007 -0.990112 0.0537314 -0.0378367 -0.997838 
0.0403826 -0.0154662 -0.999065 -0.00280713 -0.0543023 -0.998521 -0.0213266 -0.0380753 -0.999047 
-0.0862042 -0.0418774 -0.995397 -0.196706 -0.0200743 -0.980257 -0.21872 -0.0985601 -0.970797 
-0.308274 -0.228406 -0.923471 -0.252101 -0.159295 -0.9545 0.472066 -0.527238 -0.706522 
0.371719 -0.614098 -0.69621 0.298868 -0.419739 -0.857028 0.194758 -0.327757 -0.92447 
0.134448 -0.224554 -0.965142 0.068884 -0.148147 -0.986563 -0.00720066 -0.141855 -0.989861 
-0.0227436 -0.111071 -0.993552 -0.0796681 -0.102385 -0.991549 -0.205818 -0.0856153 -0.974838 
-0.297603 -0.118638 -0.94729 -0.372214 -0.265712 -0.8893 -0.389107 -0.286814 -0.875405 
-0.358663 -0.239078 -0.902332 0.311609 -0.702474 -0.639867 0.309329 -0.703229 -0.640144 
0.307976 -0.698603 -0.645836 0.288254 -0.730888 -0.618637 0.261225 -0.585154 -0.767695 
0.229885 -0.788417 -0.570571 0.143028 -0.46505 -0.873654 0.158441 -0.816319 -0.555445 
0.0428893 -0.356965 -0.933133 0.0222018 -0.282333 -0.95906 -0.0614677 -0.231067 -0.970994 
-0.199068 -0.221839 -0.954547 -0.431312 -0.356859 -0.828626 -0.449354 -0.422655 -0.787047 
-0.397064 -0.292895 -0.8698 0.149898 -0.822474 -0.548696 0.110916 -0.822171 -0.558331 
0.104954 -0.792549 -0.600708 0.0627215 -0.793453 -0.605391 0.0316144 -0.719544 -0.693727 
-0.350452 -0.606407 -0.71376 -0.199707 -0.693416 -0.692309 -0.204232 -0.58321 -0.786229 

