# vtk DataFile Version 4.2
vtk output
ASCII
DATASET POLYDATA
POINTS 564 float
-15.8298 -40.6363 -12.0874 -7.5238 -40.6363 -13.5148 0.782185 -40.6363 -13.8352 
9.08817 -40.6363 -13.6415 17.3941 -40.6363 -13.1997 -49.0537 -32.3304 -13.2334 
-40.7477 -32.3304 -15.3044 -32.4417 -32.3304 -14.3741 -24.1358 -32.3304 -14.6825 
-15.8298 -32.3304 -15.3611 -7.5238 -32.3304 -16.255 0.782185 -32.3304 -16.8555 
9.08817 -32.3304 -16.3444 17.3941 -32.3304 -15.354 25.7001 -32.3304 -13.4909 
-57.3597 -24.0244 -14.6449 -49.0537 -24.0244 -19.0562 -40.7477 -24.0244 -16.379 
-32.4417 -24.0244 -16.9605 -24.1358 -24.0244 -15.5743 -15.8298 -24.0244 -16.0219 
-7.5238 -24.0244 -17.3794 0.782185 -24.0244 -17.4207 9.08817 -24.0244 -16.979 
17.3941 -24.0244 -15.5261 25.7001 -24.0244 -14.3791 34.0061 -24.0244 -13.0521 
-65.6657 -15.7184 -14.6248 -57.3597 -15.7184 -17.5387 -49.0537 -15.7184 -16.9206 
-40.7477 -15.7184 -17.7933 -32.4417 -15.7184 -16.2212 -24.1358 -15.7184 -15.606 
-15.8298 -15.7184 -14.6047 -7.5238 -15.7184 -18.059 0.782185 -15.7184 -17.7022 
9.08817 -15.7184 -17.394 17.3941 -15.7184 -14.8887 25.7001 -15.7184 -13.0704 
34.0061 -15.7184 -12.1254 50.6181 -15.7184 -12.131 -65.6657 -7.41242 -14.7881 
-57.3597 -7.41242 -18.3619 -49.0537 -7.41242 -17.279 -40.7477 -7.41242 -17.9548 
-32.4417 -7.41242 -16.2327 -24.1358 -7.41242 -13.8722 -7.5238 -7.41242 -18.1036 
0.782185 -7.41242 -16.2117 9.08817 -7.41242 -19.0453 17.3941 -7.41242 -18.5806 
25.7001 -7.41242 -14.114 34.0061 -7.41242 -13.2832 42.3121 -7.41242 -12.9537 
-65.6657 0.893559 -14.5338 -57.3597 0.893559 -17.4024 -49.0537 0.893559 -16.9782 
-40.7477 0.893559 -17.7142 -32.4417 0.893559 -16.1184 -24.1358 0.893559 -14.4686 
-15.8298 0.893559 -13.3065 -7.5238 0.893559 -15.763 0.782185 0.893559 -15.3538 
9.08817 0.893559 -17.0344 17.3941 0.893559 -19.3826 25.7001 0.893559 -17.619 
34.0061 0.893559 -15.0663 42.3121 0.893559 -13.7102 50.6181 0.893559 -12.2318 
-65.6657 9.19954 -13.2269 -57.3597 9.19954 -16.1869 -49.0537 9.19954 -16.6622 
-40.7477 9.19954 -17.6649 -32.4417 9.19954 -16.7487 -24.1358 9.19954 -15.784 
-15.8298 9.19954 -15.0277 -7.5238 9.19954 -12.0697 0.782185 9.19954 -18.9483 
9.08817 9.19954 -14.1611 17.3941 9.19954 -16.8784 25.7001 9.19954 -18.5013 
34.0061 9.19954 -17.0112 42.3121 9.19954 -14.9854 50.6181 9.19954 -12.7512 
-57.3597 17.5055 -13.8261 -49.0537 17.5055 -16.6367 -40.7477 17.5055 -17.6374 
-32.4417 17.5055 -17.1396 -24.1358 17.5055 -16.596 -15.8298 17.5055 -15.8157 
-7.5238 17.5055 -15.025 0.782185 17.5055 -15.4558 9.08817 17.5055 -14.9548 
17.3941 17.5055 -16.8057 25.7001 17.5055 -18.0085 34.0061 17.5055 -17.4494 
42.3121 17.5055 -14.9321 -57.3597 25.8115 -13.5098 -49.0537 25.8115 -15.2406 
-40.7477 25.8115 -15.8117 -32.4417 25.8115 -17.0459 -24.1358 25.8115 -16.4681 
-15.8298 25.8115 -16.8857 -7.5238 25.8115 -16.3752 0.782185 25.8115 -16.0801 
9.08817 25.8115 -15.3695 17.3941 25.8115 -16.7576 25.7001 25.8115 -17.0948 
34.0061 25.8115 -16.151 42.3121 25.8115 -13.9029 -49.0537 34.1175 -12.9629 
-40.7477 34.1175 -13.5066 -32.4417 34.1175 -14.6157 -24.1358 34.1175 -14.5581 
-15.8298 34.1175 -15.248 -7.5238 34.1175 -15.3121 0.782185 34.1175 -14.6951 
9.08817 34.1175 -13.7283 17.3941 34.1175 -14.7208 25.7001 34.1175 -14.8919 
34.0061 34.1175 -12.8053 -15.8298 -40.8502 -11.9476 -7.5238 -42.8202 -11.9476 
0.782185 -43.1442 -11.9476 9.08817 -43.6451 -11.9476 17.3941 -42.6929 -11.9476 
-49.0537 -33.9913 -11.9476 -40.7477 -38.4133 -11.9476 -40.7477 -40.6363 -9.61406 
-32.4417 -40.5776 -11.9476 -32.4417 -40.6363 -11.9093 -16.8042 -40.6363 -11.9476 
-24.1358 -38.3984 -11.9476 -24.1358 -40.6363 -10.5747 21.6012 -40.6363 -11.9476 
25.7001 -36.8103 -11.9476 25.7001 -40.6363 -10.3757 34.0061 -40.6363 -7.48573 
-55.3068 -32.3304 -11.9476 -57.3597 -31.2732 -11.9476 -57.3597 -32.3304 -11.0579 
32.0108 -32.3304 -11.9476 34.0061 -29.8209 -11.9476 34.0061 -32.3304 -11.5219 
42.3121 -32.3304 -9.29671 50.6181 -32.3304 -5.69659 -64.107 -24.0244 -11.9476 
-65.6657 -22.8904 -11.9476 -65.6657 -24.0244 -10.7178 37.5444 -24.0244 -11.9476 
42.3121 -24.0244 -10.7948 50.6181 -16.3105 -11.9476 50.6181 -24.0244 -8.2646 
58.924 -24.0244 -5.055 -70.0586 -15.7184 -11.9476 -15.8298 -8.00362 -11.9476 
37.1642 -15.7184 -11.9476 46.9357 -15.7184 -11.9476 42.3121 -13.8304 -11.9476 
42.3121 -15.7184 -11.6488 51.0303 -15.7184 -11.9476 50.6181 -13.9253 -11.9476 
58.924 -15.7184 -6.82663 -69.9591 -7.41242 -11.9476 -16.6025 -7.41242 -11.9476 
-15.256 -7.41242 -11.9476 -15.8298 -6.11315 -11.9476 -15.8298 -7.41242 -11.7448 
46.7993 -7.41242 -11.9476 50.6181 -1.17227 -11.9476 50.6181 -7.41242 -11.2206 
58.924 -7.41242 -9.23231 67.23 -7.41242 -5.79333 -69.1925 0.893559 -11.9476 
-73.9716 0.893559 -4.55397 51.9312 0.893559 -11.9476 58.924 0.893559 -10.2417 
67.23 0.893559 -6.36759 -67.5789 9.19954 -11.9476 -65.6657 14.2872 -11.9476 
53.8738 9.19954 -11.9476 50.6181 17.0726 -11.9476 58.924 9.19954 -10.4848 
67.23 9.19954 -6.21001 -62.6128 17.5055 -11.9476 -65.6657 17.5055 -10.5402 
50.4982 17.5055 -11.9476 50.6181 17.5055 -11.905 58.924 17.5055 -8.04888 
-59.8714 25.8115 -11.9476 -65.6657 25.8115 -5.24876 -57.3597 28.7399 -11.9476 
46.1467 25.8115 -11.9476 42.3121 29.3201 -11.9476 50.6181 25.8115 -9.59544 
58.924 25.8115 -4.25232 -51.1805 34.1175 -11.9476 -57.3597 34.1175 -6.8527 
-49.0537 35.4881 -11.9476 -40.7477 37.0074 -11.9476 -32.4417 39.1931 -11.9476 
-24.1358 38.4516 -11.9476 -15.8298 39.3005 -11.9476 -7.5238 39.6712 -11.9476 
0.782185 38.6191 -11.9476 9.08817 36.9779 -11.9476 17.3941 37.6266 -11.9476 
25.7001 37.8376 -11.9476 36.2021 34.1175 -11.9476 34.0061 35.2122 -11.9476 
42.3121 34.1175 -8.50642 -40.7477 42.4235 -6.17692 -32.4417 42.4235 -8.38307 
-24.1358 42.4235 -7.8252 -15.8298 42.4235 -8.32989 -7.5238 42.4235 -8.71785 
0.782185 42.4235 -7.4831 9.08817 42.4235 -5.59094 17.3941 42.4235 -4.98595 
25.7001 42.4235 -3.76395 -40.7477 -42.871 -3.64161 -32.4417 -44.3098 -3.64161 
-24.1358 -45.4785 -3.64161 -15.8298 -46.5641 -3.64161 -7.5238 -47.3834 -3.64161 
0.782185 -48.5686 -3.64161 9.08817 -48.8472 -3.64161 17.3941 -48.1226 -3.64161 
25.7001 -46.3748 -3.64161 34.0061 -43.5252 -3.64161 -57.3597 -35.735 -3.64161 
-46.8283 -40.6363 -3.64161 -49.0537 -39.7031 -3.64161 -40.7477 -40.6363 2.9251 
42.0568 -40.6363 -3.64161 42.3121 -40.4798 -3.64161 42.3121 -40.6363 1.57162 
50.6181 -34.8112 -3.64161 -61.4491 -32.3304 -3.64161 -65.6657 -28.2989 -3.64161 
-57.3597 -32.3304 1.2269 53.6244 -32.3304 -3.64161 58.924 -26.4707 -3.64161 
-68.8567 -24.0244 -3.64161 -65.6657 -24.0244 0.937921 60.9183 -24.0244 -3.64161 
-72.9139 -15.7184 -3.64161 65.0711 -15.7184 -3.64161 67.23 -13.1988 -3.64161 
67.23 -15.7184 -1.91938 -73.9677 -7.41242 -3.64161 -73.9716 -7.3421 -3.64161 
69.9707 -7.41242 -3.64161 -74.4408 0.893559 -3.64161 -73.9716 3.13626 -3.64161 
-73.9716 0.893559 -2.5685 70.4852 0.893559 -3.64161 75.536 0.893559 4.17542 
-72.7033 9.19954 -3.64161 70.3809 9.19954 -3.64161 67.23 15.5037 -3.64161 
-70.8082 17.5055 -3.64161 65.6463 17.5055 -3.64161 67.23 17.5055 -2.28526 
-66.7067 25.8115 -3.64161 -65.6657 27.4972 -3.64161 -65.6657 25.8115 1.86908 
50.6181 32.7003 -3.64161 59.6618 25.8115 -3.64161 58.924 26.542 -3.64161 
-60.2457 34.1175 -3.64161 -57.3597 36.7223 -3.64161 -49.0537 41.2615 -3.64161 
34.0061 40.8844 -3.64161 48.6326 34.1175 -3.64161 42.3121 37.4699 -3.64161 
50.6181 34.1175 0.261021 -44.7874 42.4235 -3.64161 -40.7477 43.4548 -3.64161 
-32.4417 44.7268 -3.64161 -24.1358 44.6674 -3.64161 -15.8298 44.6927 -3.64161 
-7.5238 45.0175 -3.64161 0.782185 44.3913 -3.64161 9.08817 43.415 -3.64161 
17.3941 43.061 -3.64161 17.3941 42.4235 4.27016 25.9899 42.4235 -3.64161 
25.7001 42.4749 -3.64161 25.7001 42.4235 -2.92853 -32.4417 -41.9865 4.66437 
-24.1358 -42.1646 4.66437 -15.8298 -43.5596 4.66437 -7.5238 -44.3826 4.66437 
0.782185 -45.7445 4.66437 9.08817 -46.4184 4.66437 17.3941 -45.7537 4.66437 
25.7001 -44.2002 4.66437 34.0061 -42.263 4.66437 42.3121 -40.6824 4.66437 
-49.0537 -32.9036 4.66437 -37.9247 -40.6363 4.66437 -40.7477 -39.3194 4.66437 
-32.4417 -40.6363 6.1539 -24.1358 -40.6363 6.60555 -15.8298 -40.6363 7.48558 
-7.5238 -40.6363 8.2087 0.782185 -40.6363 9.32134 9.08817 -40.6363 10.0421 
17.3941 -40.6363 9.39029 25.7001 -40.6363 7.94251 34.0061 -40.6363 7.23918 
42.4117 -40.6363 4.66437 42.3121 -40.6363 4.73137 50.6181 -36.5642 4.66437 
-50.1913 -32.3304 4.66437 -57.3597 -29.3852 4.66437 -49.0537 -32.3304 5.0545 
-40.7477 -32.3304 9.42494 -32.4417 -32.3304 10.5 -24.1358 -32.3304 11.772 
-15.8298 -32.3304 11.8151 -7.5238 -32.3304 12.29 25.7001 -32.3304 12.7609 
34.0061 -32.3304 12.7752 42.3121 -32.3304 11.4476 57.1736 -32.3304 4.66437 
50.6181 -32.3304 10.3986 58.924 -30.9538 4.66437 -62.2681 -24.0244 4.66437 
-65.6657 -18.4318 4.66437 -57.3597 -24.0244 7.7076 -49.0537 -24.0244 10.5127 
-40.7477 -24.0244 11.0073 65.8716 -24.0244 4.66437 67.23 -22.2974 4.66437 
-67.1208 -15.7184 4.66437 -65.6657 -15.7184 5.73746 -57.3597 -15.7184 8.91275 
-49.0537 -15.7184 11.3867 71.3165 -15.7184 4.66437 67.23 -15.7184 11.7051 
-69.2632 -7.41242 4.66437 -65.6657 -7.41242 7.43884 -57.3597 -7.41242 12.0677 
-49.0537 -7.41242 12.5805 74.9904 -7.41242 4.66437 75.536 -2.03558 4.66437 
-70.5785 0.893559 4.66437 -65.6657 0.893559 8.82857 -57.3597 0.893559 11.3303 
75.8146 0.893559 4.66437 75.536 4.69703 4.66437 75.536 0.893559 5.48229 
-69.6611 9.19954 4.66437 -65.6657 9.19954 8.15996 75.1819 9.19954 4.66437 
-68.4352 17.5055 4.66437 -65.6657 24.4773 4.66437 -65.6657 17.5055 7.34953 
71.868 17.5055 4.66437 67.23 23.5854 4.66437 -64.8316 25.8115 4.66437 
-57.3597 25.8115 11.3478 64.9585 25.8115 4.66437 58.924 31.563 4.66437 
-58.8693 34.1175 4.66437 -57.3597 35.5517 4.66437 -57.3597 34.1175 6.02079 
-49.0537 40.4448 4.66437 -49.0537 34.1175 11.746 -40.7477 34.1175 12.0514 
17.3941 42.3872 4.66437 25.7001 41.8107 4.66437 34.0061 40.9668 4.66437 
42.3121 38.395 4.66437 53.5996 34.1175 4.66437 50.6181 35.2761 4.66437 
50.6181 34.1175 9.17285 -42.5302 42.4235 4.66437 -40.7477 42.9133 4.66437 
[...]
POINT_DATA 564
SCALARS ImageScalars float
LOOKUP_TABLE default
0 0 0 0 0 0 0 0 0 
0 0 0 0 0 0 0 0 0 
0 0 0 0 0 0 0 0 0 
0 0 0 0 0 0 0 0 0 
0 0 0 0 0 0 0 0 0 
0 0 0 0 0 0 0 0 0 
0 0 0 0 0 0 0 0 0 
0 0 0 0 0 0 0 0 0 
0 0 0 0 0 0 0 0 0 
0 0 0 0 0 0 0 0 0 
0 0 0 0 0 0 0 0 0 
0 0 0 0 0 0 0 0 0 
0 0 0 0 0 0 0 0 0 
0 0 0 0 0 0 0 0 0 
0 0 0 0 0 0 0 0 0 
0 0 0 0 0 0 0 0 0 
0 0 0 0 0 0 0 0 0 
0 0 0 0 0 0 0 0 0 
0 0 0 0 0 0 0 0 0 
0 0 0 0 0 0 0 0 0 
0 0 0 0 0 0 0 0 0 
0 0 0 0 0 0 0 0 0 
0 0 0 0 0 0 0 0 0 
0 0 0 0 0 0 0 0 0 
0 0 0 0 0 0 0 0 0 
0 0 0 0 0 0 0 0 0 
0 0 0 0 0 0 0 0 0 
0 0 0 0 0 0 0 0 0 
0 0 0 0 0 0 0 0 0 
0 0 0 0 0 0 0 0 0 
0 0 0 0 0 0 0 0 0 
0 0 0 0 0 0 0 0 0 
0 0 0 0 0 0 0 0 0 
0 0 0 0 0 0 0 0 0 
0 0 0 0 0 0 0 0 0 
0 0 0 0 0 0 0 0 0 
0 0 0 0 0 0 0 0 0 
0 0 0 0 0 0 0 0 0 
0 0 0 0 0 0 0 0 0 
0 0 0 0 0 0 0 0 0 
0 0 0 0 0 0 0 0 0 
0 0 0 0 0 0 0 0 0 
0 0 0 0 0 0 0 0 0 
0 0 0 0 0 0 0 0 0 
0 0 0 0 0 0 0 0 0 
0 0 0 0 0 0 0 0 0 
0 0 0 0 0 0 0 0 0 
0 0 0 0 0 0 0 0 0 
0 0 0 0 0 0 0 0 0 
0 0 0 0 0 0 0 0 0 
0 0 0 0 0 0 0 0 0 
0 0 0 0 0 0 0 0 0 
0 0 0 0 0 0 0 0 0 
0 0 0 0 0 0 0 0 0 
0 0 0 0 0 0 0 0 0 
0 0 0 0 0 0 0 0 0 
0 0 0 0 0 0 0 0 0 
0 0 0 0 0 0 0 0 0 
0 0 0 0 0 0 0 0 0 
0 0 0 0 0 0 0 0 0 
0 0 0 0 0 0 0 0 0 
0 0 0 0 0 0 0 0 0 
0 0 0 0 0 0 
NORMALS Normals float
0.149778 0.519615 0.84117 0.101725 0.5052 0.856986 0.008408 0.502163 0.864732 
-0.0388281 0.425191 0.904271 -0.158031 0.430775 0.888515 0.207281 0.575643 0.790993 
0.0464796 0.369652 0.928007 -0.0250566 0.297542 0.95438 0.060861 0.230739 0.97111 
0.0898767 0.215923 0.972265 0.0897081 0.222965 0.97069 0.00488128 0.188708 0.982021 
-0.0892597 0.17939 0.97972 -0.160424 0.137841 0.977376 -0.221576 0.198167 0.954795 
0.341551 0.348205 0.872981 0.0736057 0.176592 0.981528 -0.0881011 0.134873 0.986938 
-0.0515644 0.108338 0.992776 -0.053386 0.0525248 0.997192 0.110697 -0.0419579 0.992968 
0.0814738 0.0990663 0.99174 -0.0239723 0.0487154 0.998525 -0.111342 0.0617378 0.991863 
-0.15537 -0.0223896 0.987603 -0.146378 -0.0295426 0.988788 -0.228901 0.028781 0.973024 
0.417483 0.136185 0.898422 0.200006 0.210951 0.956816 0.0223791 -0.0748535 0.996943 
-0.0428853 0.0929099 0.99475 -0.129455 -0.0414573 0.990718 -0.0977384 -0.10459 0.989701 
0.11453 -0.213665 0.97017 0.201542 0.0477015 0.978318 -0.036778 -0.060715 0.997477 
-0.148347 0.120119 0.981613 -0.280891 0.0851156 0.955958 -0.150038 -0.0239237 0.988391 
-0.0840055 0.0164034 0.99633 -0.22997 0.119659 0.965813 0.452439 -0.00451155 0.891784 
0.23223 -0.00804387 0.972628 -0.0115283 0.00327345 0.999928 -0.0620287 -0.00482993 0.998063 
-0.239605 -0.00602649 0.970852 -0.234299 -0.0682451 0.969766 0.250885 -0.150438 0.956256 
0.125333 -0.1305 0.983495 0.142727 -0.00405354 0.989754 -0.31278 0.290283 0.904381 
-0.204899 0.269693 0.940894 -0.0614483 0.173952 0.982835 -0.129492 0.121125 0.984155 
0.451951 -0.108342 0.885439 0.191537 -0.12738 0.973184 0.0237866 -0.037118 0.999028 
-0.0513703 -0.017433 0.998528 -0.191633 0.0307088 0.980986 -0.153945 0.114945 0.981371 
0.054858 0.201823 0.977885 0.117717 -0.287826 0.95042 0.0934637 0.0972655 0.99086 
0.202468 -0.269039 0.941608 0.0264939 -0.118679 0.992579 -0.257127 0.239816 0.936149 
-0.213731 0.218515 0.95214 -0.160653 0.115822 0.980192 -0.191466 0.0968451 0.97671 
0.46298 -0.177791 0.868355 0.275969 -0.211991 0.937497 0.082779 -0.0206893 0.996353 
0.00508924 -0.00459267 0.999977 -0.111605 0.0607996 0.991891 -0.103474 0.127552 0.98642 
-0.195118 0.12818 0.972368 0.0418645 0.000833782 0.999123 0.170313 -0.114904 0.978668 
0.000776432 -0.116415 0.9932 0.234509 -0.148212 0.960749 0.00200072 0.0171115 0.999852 
-0.206078 0.137684 0.968801 -0.243851 0.0712973 0.967188 -0.247948 -0.0156994 0.968646 
0.324097 -0.136554 0.936116 0.193062 -0.0670992 0.97889 0.037786 -0.106692 0.993574 
-0.061481 0.0181193 0.997944 -0.0809014 0.0416759 0.99585 -0.094676 0.110881 0.989314 
-0.0225219 0.233807 0.972022 -0.00455244 -0.0740372 0.997245 0.0719054 0.0621329 0.995474 
0.189464 -0.00704553 0.981862 0.0326244 -0.082819 0.99603 -0.177681 -0.0467319 0.982978 
-0.311492 -0.0506622 0.948897 0.386434 -0.264031 0.883717 0.167126 -0.274282 0.947015 
0.0968224 -0.211558 0.972558 0.0396603 -0.158142 0.98662 -0.00844092 -0.113695 0.99348 
-0.00615693 -0.0219673 0.99974 -0.0476565 0.017228 0.998715 -0.0615369 -0.0458914 0.997049 
0.0379396 -0.0681518 0.996953 0.105747 -0.110943 0.988185 -0.0330812 -0.178732 0.983341 
-0.164518 -0.258654 0.951857 -0.361825 -0.299406 0.882858 0.244668 -0.461919 0.852507 
0.112329 -0.400686 0.909303 0.0493736 -0.381617 0.923001 0.0337248 -0.361207 0.931875 
0.0427656 -0.368819 0.928517 -0.0336081 -0.32619 0.944706 -0.092881 -0.353771 0.930709 
-0.00574747 -0.385528 0.922678 0.0689573 -0.441584 0.894566 -0.104476 -0.47566 0.873403 
-0.293069 -0.532917 0.793795 0.152047 0.530256 0.834093 0.0917036 0.626623 0.773908 
0.0301667 0.624454 0.780479 -0.0168897 0.581221 0.813571 -0.176601 0.539893 0.822999 
0.218091 0.640711 0.736156 0.199289 0.630802 0.749915 0.251194 0.818278 0.517032 
-0.00236974 0.638382 0.769716 -0.00165417 0.642955 0.765902 0.136635 0.532683 0.835212 
0.0281185 0.523585 0.85151 0.0362872 0.699787 0.71343 -0.211473 0.460728 0.86198 
-0.248167 0.351652 0.902637 -0.285031 0.563083 0.77569 -0.34788 0.735949 0.580826 
0.340218 0.552043 0.761249 0.389734 0.507472 0.768492 0.43135 0.589374 0.683063 
-0.202145 0.220677 0.954169 -0.205434 0.168742 0.964014 -0.204721 0.236464 0.949828 
-0.373684 0.382174 0.845164 -0.467862 0.503504 0.726353 0.569856 0.527011 0.630495 
0.593551 0.529599 0.605988 0.665749 0.588167 0.45917 -0.227858 0.0580308 0.971964 
-0.238115 0.103941 0.965659 -0.239099 0.138328 0.961092 -0.41574 0.373307 0.829338 
-0.495017 0.355574 0.792795 0.67617 0.257694 0.690208 0.0545014 -0.118149 0.991499 
-0.0515972 0.065667 0.996507 -0.133532 0.132908 0.982092 -0.0275788 0.141201 0.989597 
-0.00010606 0.143383 0.989667 -0.233177 0.12878 0.963869 -0.221508 0.0957534 0.970446 
-0.402319 0.235806 0.88461 0.687511 -0.0425943 0.724924 0.0173789 -0.102595 0.994571 
0.0682108 -0.11118 0.991457 0.0495253 -0.053942 0.997315 0.0489008 -0.108369 0.992907 
-0.161347 0.0552892 0.985348 -0.191288 0.0715769 0.978921 -0.192476 0.0091987 0.981259 
-0.37447 0.189323 0.907705 -0.513232 0.14064 0.846649 0.573556 -0.121773 0.810065 
0.991449 -0.0829945 0.100705 -0.223659 0.0931903 0.970202 -0.383653 0.0682646 0.920951 
-0.52494 0.0245885 0.850784 0.528811 -0.213501 0.821448 0.534344 -0.301001 0.789857 
-0.327411 -0.0539876 0.943338 -0.350434 -0.143169 0.92558 -0.432553 -0.116119 0.8941 
-0.530574 -0.121407 0.838899 0.501299 -0.265429 0.823557 0.641688 -0.383755 0.664054 
-0.354775 -0.148707 0.92305 -0.355576 -0.150105 0.922515 -0.406121 -0.3187 0.856444 
0.448572 -0.347247 0.823531 0.793117 -0.525541 0.307851 0.465584 -0.404102 0.787359 
-0.410178 -0.335852 0.847914 -0.390838 -0.428867 0.814444 -0.468877 -0.413586 0.780449 
-0.567788 -0.512564 0.644123 0.331028 -0.512122 0.79256 0.622242 -0.665964 0.411469 
0.27259 -0.535796 0.799136 0.152473 -0.52569 0.8369 0.0325678 -0.60519 0.795414 
0.00548352 -0.581589 0.813464 0.0449894 -0.614545 0.787598 -0.0271664 -0.628894 0.777016 
-0.101295 -0.589943 0.801066 -0.0345887 -0.526628 0.849392 0.035275 -0.645485 0.762958 
-0.105115 -0.678442 0.727095 -0.328437 -0.549983 0.767885 -0.295916 -0.579749 0.75916 
-0.432837 -0.671765 0.601152 0.218942 -0.915431 0.337713 0.0379646 -0.857266 0.513472 
-0.00147715 -0.886872 0.462013 0.0306134 -0.871976 0.48859 -0.0288783 -0.863017 0.504348 
-0.102003 -0.894398 0.435486 -0.0797492 -0.937483 0.338772 -0.0500511 -0.964039 0.261007 
-0.122534 -0.976478 0.177416 0.255339 0.966428 0.0286198 0.175288 0.981617 0.0755149 
0.141276 0.984977 0.0993035 0.118901 0.990647 0.0669417 0.126402 0.990922 0.0457732 
0.0870982 0.993046 0.0792105 -0.0247684 0.998871 0.0405338 -0.144009 0.98529 0.0920062 
-0.25645 0.949933 0.178497 -0.356407 0.900948 0.247521 0.553967 0.828224 -0.0846536 
0.342571 0.939492 -0.000958212 0.384463 0.923066 -0.0117027 0.320495 0.799354 -0.508247 
-0.462946 0.790346 0.401291 -0.465914 0.784781 0.408709 -0.387729 0.918636 -0.0759848 
-0.533049 0.660654 0.528578 0.631548 0.768973 -0.0991356 0.749505 0.653267 -0.107169 
0.528249 0.755866 -0.386806 -0.516847 0.634482 0.574719 -0.543347 0.497968 0.675871 
0.851831 0.511395 -0.113398 0.770399 0.513568 -0.377801 -0.580266 0.391735 0.714028 
0.945747 0.287661 -0.151042 -0.587366 0.424816 0.688863 -0.605391 0.415281 0.679002 
-0.705078 0.531819 0.469078 0.994817 0.0858497 -0.0544919 0.994976 0.0844731 -0.0537299 
-0.646591 0.17874 0.741601 0.996847 -0.0758455 0.0233136 0.99295 -0.109592 0.0451604 
0.997606 -0.0656614 -0.0217161 -0.669529 0.0199402 0.742518 -0.990037 0.0109985 0.140378 
0.973897 -0.21377 0.0763396 -0.674693 -0.228255 0.701918 -0.686072 -0.416349 0.596623 
0.924082 -0.349855 0.153862 -0.680305 -0.444775 0.582547 -0.736824 -0.492199 0.463499 
0.843549 -0.508252 0.173508 0.805658 -0.553739 0.210449 0.816281 -0.498276 -0.292245 
-0.498635 -0.725591 0.474216 -0.580988 -0.529432 0.618186 -0.574995 -0.540683 0.614039 
0.67858 -0.69389 0.240928 0.617886 -0.749897 0.236371 0.33935 -0.910833 0.234999 
-0.277175 -0.930271 0.240352 -0.483441 -0.765167 0.42521 -0.419505 -0.847772 0.324497 
-0.450242 -0.860059 0.239958 0.262401 -0.944747 0.196467 0.201302 -0.964212 0.172547 
0.0748632 -0.976645 0.201397 -0.00201948 -0.978512 0.206178 0.0212258 -0.984487 0.174166 
-0.0185285 -0.985287 0.1699 -0.0975556 -0.97684 0.190437 -0.0814703 -0.97353 0.213545 
-0.0559386 -0.980244 0.189719 -0.0613158 -0.94746 -0.313944 -0.127626 -0.976584 0.17319 
-0.12265 -0.977576 0.171181 -0.12002 -0.983848 0.132812 0.128967 0.815114 -0.564763 
0.0849685 0.816182 -0.571514 0.110973 0.793279 -0.59866 0.110841 0.795462 -0.595781 
0.101205 0.821473 -0.561195 0.000676092 0.848455 -0.529267 -0.108959 0.83676 -0.536619 
-0.183569 0.824317 -0.535541 -0.21132 0.899349 -0.382773 -0.305388 0.894199 -0.327333 
0.329913 0.537485 -0.776058 0.254519 0.743305 -0.618642 0.330143 0.67608 -0.658727 
0.142934 0.759579 -0.634515 0.0730257 0.744023 -0.664152 0.073007 0.66409 -0.74408 
0.098539 0.62383 -0.775324 0.0957185 0.583994 -0.806095 0.00434443 0.564885 -0.825158 
-0.112321 0.592741 -0.797522 -0.104212 0.675961 -0.729532 -0.158711 0.814553 -0.557955 
-0.307288 0.893985 -0.326136 -0.305403 0.892591 -0.331678 -0.487744 0.844637 -0.220666 
0.338889 0.543295 -0.768105 0.440392 0.552307 -0.707822 0.318092 0.51462 -0.79623 
0.277439 0.392693 -0.876824 0.114452 0.378231 -0.918609 0.0842635 0.291236 -0.952933 
0.0294116 0.329393 -0.943735 0.0937452 0.304744 -0.94781 -0.0196227 0.385732 -0.922402 
-0.0891323 0.371737 -0.924049 -0.110252 0.565542 -0.817317 -0.622599 0.771041 -0.133666 
-0.317675 0.637097 -0.702275 -0.641881 0.759924 -0.102491 0.581852 0.401018 -0.707554 
0.565576 0.3612 -0.741389 0.360182 0.260633 -0.895734 0.251318 0.360673 -0.898195 
0.160508 0.194029 -0.967776 -0.741318 0.670883 -0.0190635 -0.780546 0.625091 -0.00311292 
0.54436 0.310806 -0.779148 0.484438 0.279433 -0.828998 0.395158 0.233558 -0.888426 
0.201634 0.102268 -0.974107 -0.885484 0.463785 -0.0286575 -0.561362 0.473687 -0.678597 
0.669395 0.177464 -0.721399 0.506114 0.188197 -0.841683 0.335865 0.0993489 -0.936656 
0.0976214 0.183018 -0.978251 -0.965282 0.253295 0.0638051 -0.990784 0.0944609 0.0970764 
0.813747 0.0183576 -0.58093 0.475856 0.0541719 -0.877854 0.318098 0.0905348 -0.943725 
-0.993865 0.0132175 0.109808 -0.986319 -0.0992532 0.131617 -0.997848 0.0191934 0.0626931 
0.809662 -0.122011 -0.574074 0.594601 -0.0903149 -0.798932 -0.960002 -0.240574 0.143252 
0.807781 -0.266589 -0.525757 0.735923 -0.416428 -0.533858 0.660852 -0.236293 -0.712349 
-0.884063 -0.446506 0.138078 -0.714118 -0.693421 0.0959282 0.734592 -0.436801 -0.51921 
0.563128 -0.422811 -0.710013 -0.658448 -0.75029 0.0592582 -0.54923 -0.832978 0.067035 
0.676718 -0.601694 -0.424283 0.632418 -0.632775 -0.446815 0.616075 -0.592204 -0.519371 
0.351363 -0.850388 -0.391642 0.283306 -0.446417 -0.848793 0.111726 -0.449835 -0.886096 
-0.0610887 -0.939052 -0.338303 -0.077876 -0.946553 -0.313007 -0.20027 -0.949334 -0.242192 
-0.303596 -0.942745 -0.13806 -0.424737 -0.904571 0.0367491 -0.375919 -0.926646 -0.00336684 
-0.319583 -0.89717 -0.304881 0.245682 -0.912005 -0.32846 0.215936 -0.923872 -0.315962 
0.222917 -0.900737 -0.372802 0.0722043 -0.938863 -0.336633 0.0487244 -0.856135 -0.51445 
-0.0117836 -0.931052 -0.364696 -0.0159466 -0.86702 -0.498017 -0.00703582 -0.938636 -0.344837 
0.00363328 -0.870764 -0.491688 -0.0251135 -0.934416 -0.355297 -0.0198933 -0.872165 -0.488807 
-0.064438 -0.93951 -0.336405 -0.0625208 -0.894444 -0.442788 -0.0616779 -0.939357 -0.337348 
-0.0708974 -0.941715 -0.328858 -0.0710969 -0.924001 -0.375722 0.0890329 0.327791 -0.940546 
-0.0110522 0.33133 -0.94345 -0.0634598 0.306703 -0.949687 0.121271 0.197693 -0.972734 
0.0391189 0.14765 -0.988266 0.0303159 0.212008 -0.976798 0.0911558 0.299141 -0.949845 
0.0836534 0.23133 -0.969272 0.0869429 0.300028 -0.94996 -0.0163865 0.271331 -0.962347 
-0.0425262 0.333964 -0.941626 -0.0612215 0.295652 -0.953332 -0.0149546 0.368286 -0.929592 
-0.0783762 0.354124 -0.931908 -0.0821725 0.455433 -0.88647 -0.204637 0.461084 -0.863438 
-0.35961 0.428964 -0.828656 0.128189 0.174784 -0.976226 0.143192 0.161676 -0.9764 
0.125538 0.17612 -0.976331 0.0268068 0.11499 -0.993005 0.0336126 0.143748 -0.989043 
0.069361 0.143719 -0.987185 0.0774562 0.113926 -0.990465 -0.00251007 0.0995631 -0.995028 
0.0103065 0.147155 -0.98906 0.0228644 0.197854 -0.979965 0.040534 0.199967 -0.978964 
-0.0453094 0.288221 -0.956491 -0.190622 0.405862 -0.893834 -0.369027 0.423473 -0.827339 
-0.344518 0.406582 -0.846167 0.144987 0.158535 -0.97665 0.143191 0.161446 -0.976438 
0.0447945 0.0769476 -0.996028 0.0477223 0.0884462 -0.994937 0.0608747 0.0943612 -0.993675 
0.065336 0.171783 -0.982966 0.0373512 0.0656039 -0.997146 0.0187391 0.155377 -0.987677 
0.0483189 0.151692 -0.987246 0.053432 0.059769 -0.996781 0.0547069 0.127657 -0.990308 
0.0348543 0.196932 -0.979797 -0.104239 0.191661 -0.97591 -0.438997 0.392137 -0.8084 
-0.321114 0.303889 -0.89696 -0.490676 0.386706 -0.78083 0.0994055 0.163661 -0.981496 
0.125111 0.168062 -0.977805 0.114078 0.112056 -0.987132 0.0591557 0.123572 -0.990571 
0.0481327 0.129846 -0.990365 0.120114 0.135818 -0.983426 0.0461951 0.154856 -0.986856 
0.0696932 0.0960878 -0.99293 0.126804 0.325484 -0.937007 -0.154474 0.148572 -0.976762 
-0.00512999 0.0276714 -0.999604 0.157129 0.098508 -0.982653 0.0407209 0.104014 -0.993742 
-0.0131706 0.134275 -0.990857 -0.183941 0.368246 -0.911351 -0.698204 0.18471 -0.69166 
-0.464874 0.157133 -0.871322 0.268869 0.0982267 -0.958155 0.344382 0.123995 -0.930605 
0.2295 0.105243 -0.967602 0.076607 0.118763 -0.989963 0.0615164 0.0955689 -0.99352 
0.0556333 0.0792238 -0.995303 0.0784706 0.0273179 -0.996542 0.0383831 0.178047 -0.983273 
0.176012 0.143771 -0.973832 0.0713313 -0.159005 -0.984698 -0.25111 -0.097671 -0.963018 
0.0565478 0.0992985 -0.99345 0.135207 0.101553 -0.985599 0.0582606 0.035396 -0.997674 
0.131474 0.100884 -0.986173 -0.63807 -0.0306644 -0.769367 -0.548125 -0.048514 -0.834988 
0.381206 0.114188 -0.917411 0.347598 0.129001 -0.928727 0.139385 0.00958085 -0.990192 
0.0998091 0.0554454 -0.993461 0.0198539 0.0304706 -0.999338 -0.0131622 0.0342998 -0.999325 
0.191434 -0.010744 -0.981447 0.228831 0.028156 -0.973059 -0.233444 -0.0511442 -0.971024 
-0.101054 -0.230151 -0.967894 0.082895 0.0282428 -0.996158 0.153819 0.129398 -0.97959 
0.0875277 0.0779787 -0.993105 0.0405306 0.0562035 -0.997596 0.146287 0.00434559 -0.989233 
-0.735106 -0.088612 -0.672136 -0.57893 -0.01966 -0.81514 0.397707 -0.121313 -0.909457 
0.442741 -0.234054 -0.865563 0.372656 -0.0951456 -0.923079 0.160893 -0.0782318 -0.983867 
0.0953283 -0.0244268 -0.995146 0.0396043 -0.0215964 -0.998982 0.0151822 -0.0278134 -0.999498 
0.0897642 0.0314149 -0.995467 0.00938118 -0.187678 -0.982186 -0.118655 -0.134237 -0.98382 
0.0825588 -0.0569415 -0.994958 0.157832 0.0362198 -0.986801 0.109091 0.00500825 -0.994019 
0.0641834 -0.0507907 -0.996645 -0.0136465 -0.059669 -0.998125 -0.0470914 -0.175854 -0.983289 
-0.281797 -0.391535 -0.875951 -0.677219 -0.357483 -0.643102 -0.61954 -0.424694 -0.660155 
-0.592564 -0.330946 -0.7344 0.231298 -0.141691 -0.96251 0.225629 -0.142515 -0.963733 
0.223648 -0.135501 -0.965205 0.115622 -0.369607 -0.921966 0.14115 -0.190644 -0.971458 
0.0139987 -0.149799 -0.988617 0.0417681 -0.165037 -0.985403 0.0638653 -0.117978 -0.99096 
-0.0184741 -0.207362 -0.97809 -0.0665488 -0.129135 -0.989391 0.0629693 -0.159363 -0.98521 
0.145697 -0.19986 -0.968932 0.0630212 -0.228853 -0.971419 0.0120825 -0.273897 -0.961683 
-0.0770156 -0.355218 -0.931606 -0.259306 -0.755993 -0.601029 -0.226067 -0.378579 -0.897536 
-0.544553 -0.537793 -0.643615 -0.53396 -0.552649 -0.639895 -0.521227 -0.521303 -0.675696 
0.0939573 -0.381577 -0.919549 0.0716084 -0.409746 -0.909385 0.0817428 -0.348858 -0.933604 
0.0116615 -0.436697 -0.899533 0.0205389 -0.389165 -0.920939 0.0490764 -0.491949 -0.86924 
0.0497219 -0.423023 -0.904754 0.00725588 -0.513032 -0.858339 0.00442958 -0.41351 -0.910489 
-0.0638864 -0.482077 -0.873796 -0.0634913 -0.3928 -0.91743 -0.0342352 -0.448039 -0.893358 
-0.0269777 -0.420861 -0.906724 0.0440332 -0.579223 -0.813979 0.0601449 -0.54069 -0.839069 
0.0237884 -0.658538 -0.752171 0.0291944 -0.587695 -0.808555 -0.0570619 -0.68405 -0.7272 
-0.0455184 -0.620138 -0.783171 -0.177723 -0.760108 -0.62502 -0.137587 -0.744296 -0.653524 
-0.129956 -0.712792 -0.689231 -0.168405 0.190138 -0.967206 -0.117516 0.153199 -0.981183 
-0.182398 0.158933 -0.970294 -0.158889 0.150469 -0.975763 -0.0223741 -0.0577446 -0.998081 
-0.210159 -0.108045 -0.971679 -0.207846 -0.219409 -0.953236 -0.142167 -0.0922969 -0.98553 

