# vtk DataFile Version 4.2
vtk output
ASCII
DATASET POLYDATA
POINTS 524 float
-37.2129 -28.3115 -16.4132 -29.6063 -28.3115 -17.0349 -21.9997 -28.3115 -16.8192 
-14.3931 -28.3115 -16.2549 -6.78647 -28.3115 -15.4049 0.820145 -28.3115 -14.9438 
8.42676 -28.3115 -14.8058 16.0334 -28.3115 -14.4792 23.64 -28.3115 -14.377 
-44.8196 -20.7048 -16.2249 -37.2129 -20.7048 -18.5347 -29.6063 -20.7048 -18.4819 
-21.9997 -20.7048 -17.8237 -14.3931 -20.7048 -17.2111 -6.78647 -20.7048 -15.9223 
0.820145 -20.7048 -16.1943 8.42676 -20.7048 -16.4672 16.0334 -20.7048 -17.0384 
23.64 -20.7048 -17.3723 31.2466 -20.7048 -17.0149 38.8532 -20.7048 -14.6727 
-44.8196 -13.0982 -17.1027 -37.2129 -13.0982 -18.5107 -29.6063 -13.0982 -18.6724 
-21.9997 -13.0982 -17.5639 -14.3931 -13.0982 -16.3915 -6.78647 -13.0982 -16.9895 
0.820145 -13.0982 -19.17 8.42676 -13.0982 -17.8812 16.0334 -13.0982 -17.4045 
23.64 -13.0982 -18.0339 31.2466 -13.0982 -17.9198 38.8532 -13.0982 -16.9749 
-52.4262 -5.49161 -15.0587 -44.8196 -5.49161 -18.6901 -37.2129 -5.49161 -19.6985 
-29.6063 -5.49161 -19.447 -21.9997 -5.49161 -18.3817 -14.3931 -5.49161 -18.3115 
-6.78647 -5.49161 -21.5092 0.820145 -5.49161 -19.639 8.42676 -5.49161 -19.6395 
16.0334 -5.49161 -17.4384 23.64 -5.49161 -16.9456 31.2466 -5.49161 -17.3959 
38.8532 -5.49161 -16.6675 46.4598 -5.49161 -15.0706 -52.4262 2.11501 -15.63 
-44.8196 2.11501 -19.2871 -37.2129 2.11501 -20.2851 -29.6063 2.11501 -19.9846 
-21.9997 2.11501 -19.0443 -14.3931 2.11501 -18.8408 -6.78647 2.11501 -20.5167 
0.820145 2.11501 -17.7817 8.42676 2.11501 -20.8833 16.0334 2.11501 -16.7172 
23.64 2.11501 -15.8564 31.2466 2.11501 -16.2732 38.8532 2.11501 -15.9038 
-52.4262 9.72163 -14.7628 -44.8196 9.72163 -18.3133 -37.2129 9.72163 -19.4854 
-29.6063 9.72163 -19.4035 -21.9997 9.72163 -18.3057 -14.3931 9.72163 -16.6804 
-6.78647 9.72163 -18.0209 0.820145 9.72163 -20.0797 8.42676 9.72163 -17.9217 
16.0334 9.72163 -15.3592 23.64 9.72163 -15.4533 31.2466 9.72163 -15.5802 
38.8532 9.72163 -15.0137 -44.8196 17.3282 -16.0039 -37.2129 17.3282 -18.0541 
-29.6063 17.3282 -18.6484 -21.9997 17.3282 -17.7684 -14.3931 17.3282 -17.0567 
-6.78647 17.3282 -18.0374 0.820145 17.3282 -18.3835 8.42676 17.3282 -16.2679 
16.0334 17.3282 -15.9703 23.64 17.3282 -16.1123 31.2466 17.3282 -15.5022 
-37.2129 24.9349 -15.157 -29.6063 24.9349 -16.3194 -21.9997 24.9349 -16.3769 
-14.3931 24.9349 -16.4662 -6.78647 24.9349 -16.4041 0.820145 24.9349 -16.3272 
8.42676 24.9349 -15.6361 16.0334 24.9349 -15.9099 23.64 24.9349 -15.201 
31.2466 24.9349 -14.5766 -37.2129 -31.2445 -14.3291 -29.6063 -33.922 -14.3291 
-29.6063 -35.9181 -11.8613 -21.9997 -34.0597 -14.3291 -21.9997 -35.9181 -12.8486 
-14.3931 -32.7602 -14.3291 -14.3931 -35.9181 -12.5018 -6.78647 -30.9758 -14.3291 
-6.78647 -35.9181 -11.9733 0.820145 -29.9612 -14.3291 0.820145 -35.9181 -11.6244 
8.42676 -29.3653 -14.3291 8.42676 -35.9181 -10.4833 16.0334 -28.5533 -14.3291 
16.0334 -35.9181 -7.68402 23.64 -28.371 -14.3291 -40.912 -28.3115 -14.3291 
-44.8196 -24.2588 -14.3291 -44.8196 -28.3115 -10.0281 23.8866 -28.3115 -14.3291 
31.2466 -25.8571 -14.3291 31.2466 -28.3115 -11.8692 38.8532 -21.2959 -14.3291 
38.8532 -28.3115 -7.46956 -47.5378 -20.7048 -14.3291 -52.4262 -20.7048 -7.56078 
39.5442 -20.7048 -14.3291 46.4598 -20.7048 -9.559 -50.4371 -13.0982 -14.3291 
-52.4262 -8.87078 -14.3291 -52.4262 -13.0982 -12.9544 44.4171 -13.0982 -14.3291 
46.4598 -9.07501 -14.3291 46.4598 -13.0982 -13.2479 -53.599 -5.49161 -14.3291 
47.8481 -5.49161 -14.3291 46.4598 1.02379 -14.3291 54.0665 -5.49161 -9.81773 
-54.5548 2.11501 -14.3291 45.8607 2.11501 -14.3291 46.4598 2.11501 -14.1811 
54.0665 2.11501 -9.52155 -53.0973 9.72163 -14.3291 -52.4262 10.8653 -14.3291 
42.0385 9.72163 -14.3291 38.8532 15.6391 -14.3291 46.4598 9.72163 -13.2721 
54.0665 9.72163 -9.20713 -47.8258 17.3282 -14.3291 -52.4262 17.3282 -10.8399 
-44.8196 20.9088 -14.3291 37.7867 17.3282 -14.3291 38.8532 17.3282 -14.15 
46.4598 17.3282 -12.2963 54.0665 17.3282 -7.13999 -39.5347 24.9349 -14.3291 
-44.8196 24.9349 -11.921 -37.2129 26.1878 -14.3291 -29.6063 28.5015 -14.3291 
-21.9997 28.7272 -14.3291 -14.3931 28.8757 -14.3291 -6.78647 28.8324 -14.3291 
0.820145 29.5545 -14.3291 8.42676 29.8368 -14.3291 16.0334 30.4287 -14.3291 
23.64 27.9655 -14.3291 33.1222 24.9349 -14.3291 31.2466 25.7616 -14.3291 
38.8532 24.9349 -13.4256 46.4598 24.9349 -8.86821 -37.2129 32.5415 -8.44841 
-29.6063 32.5415 -10.8092 -21.9997 32.5415 -11.7506 -14.3931 32.5415 -11.3656 
-6.78647 32.5415 -11.5448 0.820145 32.5415 -12.7073 8.42676 32.5415 -13.4821 
16.0334 32.5415 -13.6397 23.64 32.5415 -12.8038 31.2466 32.5415 -11.9261 
38.8532 32.5415 -8.52176 -29.6063 -38.1254 -6.7225 -21.9997 -39.2753 -6.7225 
-14.3931 -40.1642 -6.7225 -6.78647 -41.0897 -6.7225 0.820145 -41.1389 -6.7225 
0.820145 -43.5247 -0.312468 8.42676 -39.4362 -6.7225 16.0334 -36.6171 -6.7225 
-44.8196 -30.4938 -6.7225 -36.4794 -35.9181 -6.7225 -37.2129 -35.6527 -6.7225 
17.896 -35.9181 -6.7225 23.64 -33.846 -6.7225 23.64 -35.9181 0.423331 
31.2466 -31.6123 -6.7225 38.8532 -28.8331 -6.7225 -47.1525 -28.3115 -6.7225 
-52.4262 -21.4736 -6.7225 -44.8196 -28.3115 0.0480101 39.7184 -28.3115 -6.7225 
46.4598 -23.53 -6.7225 -52.9445 -20.7048 -6.7225 -52.4262 -20.7048 -2.82927 
49.2359 -20.7048 -6.7225 -56.9885 -13.0982 -6.7225 53.9593 -13.0982 -6.7225 
54.0665 -12.8658 -6.7225 54.0665 -13.0982 -6.52569 -58.832 -5.49161 -6.7225 
57.0331 -5.49161 -6.7225 -59.6449 2.11501 -6.7225 57.2108 2.11501 -6.7225 
-58.6063 9.72163 -6.7225 56.2297 9.72163 -6.7225 -55.8548 17.3282 -6.7225 
-52.4262 22.4108 -6.7225 54.3346 17.3282 -6.7225 54.0665 17.9282 -6.7225 
-50.3741 24.9349 -6.7225 -52.4262 24.9349 0.489743 -44.8196 30.7324 -6.7225 
49.5268 24.9349 -6.7225 46.4598 28.4566 -6.7225 -40.9597 32.5415 -6.7225 
-37.2129 33.847 -6.7225 -29.6063 35.4799 -6.7225 -21.9997 36.1687 -6.7225 
-14.3931 36.0214 -6.7225 -6.78647 36.2873 -6.7225 0.820145 38.1281 -6.7225 
8.42676 39.6138 -6.7225 16.0334 39.8245 -6.7225 23.64 39.0764 -6.7225 
31.2466 37.6715 -6.7225 41.9649 32.5415 -6.7225 38.8532 34.3022 -6.7225 
0.820145 40.1481 -1.37377 8.42676 40.1481 -5.17802 16.0334 40.1481 -5.56636 
23.64 40.1481 -1.80691 0.820145 -43.8717 0.88412 -29.6063 -36.1458 0.88412 
-21.9997 -38.7071 0.88412 -14.3931 -40.7773 0.88412 -1.45439 -43.5247 0.88412 
-6.78647 -42.6897 0.88412 2.73941 -43.5247 0.88412 0.820145 -43.5247 3.25573 
8.42676 -42.4844 0.88412 16.0334 -39.3691 0.88412 23.64 -36.0431 0.88412 
-30.1643 -35.9181 0.88412 -37.2129 -32.9562 0.88412 -29.6063 -35.9181 1.20838 
-21.9997 -35.9181 5.98865 24.0064 -35.9181 0.88412 31.2466 -33.4049 0.88412 
38.8532 -30.9292 0.88412 -44.4001 -28.3115 0.88412 -44.8196 -27.984 0.88412 
-37.2129 -28.3115 6.15241 42.5399 -28.3115 0.88412 46.4598 -25.6554 0.88412 
-51.809 -20.7048 0.88412 -52.4262 -19.8205 0.88412 -44.8196 -20.7048 7.54426 
51.95 -20.7048 0.88412 54.0665 -17.9161 0.88412 -56.7644 -13.0982 0.88412 
-52.4262 -13.0982 5.92583 57.0767 -13.0982 0.88412 -58.862 -5.49161 0.88412 
60.0995 -5.49161 0.88412 -59.8821 2.11501 0.88412 60.3803 2.11501 0.88412 
-59.3127 9.72163 0.88412 59.6643 9.72163 0.88412 -56.6988 17.3282 0.88412 
57.2696 17.3282 0.88412 54.0665 22.6748 0.88412 -52.5143 24.9349 0.88412 
-52.4262 25.0426 0.88412 -52.4262 24.9349 1.08083 -44.8196 32.2498 0.88412 
52.5022 24.9349 0.88412 46.4598 31.1447 0.88412 -44.3509 32.5415 0.88412 
-37.2129 36.4208 0.88412 -29.6063 37.8277 0.88412 -21.9997 38.1418 0.88412 
-14.3931 38.3351 0.88412 -6.78647 39.098 0.88412 31.2466 39.2928 0.88412 
44.4412 32.5415 0.88412 38.8532 35.851 0.88412 -2.27831 40.1481 0.88412 
0.820145 40.8546 0.88412 0.820145 40.1481 4.83795 8.42676 41.8161 0.88412 
8.42676 40.1481 8.35299 16.0334 41.6081 0.88412 16.0334 40.1481 6.12848 
26.4786 40.1481 0.88412 23.64 40.6237 0.88412 23.64 40.1481 2.36477 
-14.3931 -37.6467 8.49074 -6.78647 -41.5388 8.49074 0.820145 -42.685 8.49074 
8.42676 -42.1115 8.49074 16.0334 -39.8908 8.49074 23.64 -36.6325 8.49074 
-29.6063 -29.5936 8.49074 -18.4038 -35.9181 8.49074 -21.9997 -33.9401 8.49074 
-14.3931 -35.9181 10.566 -6.78647 -35.9181 15.3407 25.5062 -35.9181 8.49074 
23.64 -35.9181 11.7132 31.2466 -33.6463 8.49074 38.8532 -30.071 8.49074 
-32.2012 -28.3115 8.49074 -37.2129 -24.9753 8.49074 -29.6063 -28.3115 9.49841 
-21.9997 -28.3115 12.5255 41.7254 -28.3115 8.49074 38.8532 -28.3115 12.9423 
46.4598 -24.7725 8.49074 -42.9558 -20.7048 8.49074 -44.8196 -18.9799 8.49074 
-37.2129 -20.7048 10.8885 -29.6063 -20.7048 12.8921 -21.9997 -20.7048 14.7143 
50.5471 -20.7048 8.49074 46.4598 -20.7048 14.0352 54.0665 -15.4379 8.49074 
-49.2818 -13.0982 8.49074 -52.4262 -8.62914 8.49074 -44.8196 -13.0982 11.1603 
-37.2129 -13.0982 13.6512 -29.6063 -13.0982 14.9296 -21.9997 -13.0982 15.2572 
55.3999 -13.0982 8.49074 54.0665 -13.0982 10.3545 -54.1976 -5.49161 8.49074 
-52.4262 -5.49161 9.76588 -44.8196 -5.49161 13.472 -37.2129 -5.49161 15.9089 
-21.9997 -5.49161 15.8435 -14.3931 -5.49161 15.6963 57.9406 -5.49161 8.49074 
54.0665 -5.49161 13.9385 -55.6512 2.11501 8.49074 -52.4262 2.11501 11.3354 
-44.8196 2.11501 14.5434 -21.9997 2.11501 15.6648 -14.3931 2.11501 15.8561 
58.187 2.11501 8.49074 54.0665 2.11501 13.159 -55.1957 9.72163 8.49074 
-52.4262 9.72163 11.0643 -44.8196 9.72163 14.6014 -21.9997 9.72163 15.9803 
-14.3931 9.72163 14.9433 46.4598 9.72163 15.4126 56.7471 9.72163 8.49074 
54.0665 9.72163 11.2799 -52.7708 17.3282 8.49074 -52.4262 17.8865 8.49074 
-52.4262 17.3282 8.75807 -44.8196 17.3282 14.0689 -37.2129 17.3282 15.9221 
-21.9997 17.3282 16.0705 -14.3931 17.3282 16.0585 38.8532 17.3282 15.9485 
46.4598 17.3282 13.8098 54.1905 17.3282 8.49074 54.0665 17.5271 8.49074 
54.0665 17.3282 8.6227 -48.3598 24.9349 8.49074 -44.8196 28.7931 8.49074 
-44.8196 24.9349 11.2211 -37.2129 24.9349 14.0082 -29.6063 24.9349 15.8164 
-21.9997 24.9349 15.9163 -14.3931 24.9349 15.9825 31.2466 24.9349 15.6236 
38.8532 24.9349 14.3509 48.4038 24.9349 8.49074 46.4598 26.9019 8.49074 
[...]
POINT_DATA 524
SCALARS ImageScalars float
LOOKUP_TABLE default
0 0 0 0 0 0 0 0 0 
0 0 0 0 0 0 0 0 0 
0 0 0 0 0 0 0 0 0 
0 0 0 0 0 0 0 0 0 
0 0 0 0 0 0 0 0 0 
0 0 0 0 0 0 0 0 0 
0 0 0 0 0 0 0 0 0 
0 0 0 0 0 0 0 0 0 
0 0 0 0 0 0 0 0 0 
0 0 0 0 0 0 0 0 0 
0 0 0 0 0 0 0 0 0 
0 0 0 0 0 0 0 0 0 
0 0 0 0 0 0 0 0 0 
0 0 0 0 0 0 0 0 0 
0 0 0 0 0 0 0 0 0 
0 0 0 0 0 0 0 0 0 
0 0 0 0 0 0 0 0 0 
0 0 0 0 0 0 0 0 0 
0 0 0 0 0 0 0 0 0 
0 0 0 0 0 0 0 0 0 
0 0 0 0 0 0 0 0 0 
0 0 0 0 0 0 0 0 0 
0 0 0 0 0 0 0 0 0 
0 0 0 0 0 0 0 0 0 
0 0 0 0 0 0 0 0 0 
0 0 0 0 0 0 0 0 0 
0 0 0 0 0 0 0 0 0 
0 0 0 0 0 0 0 0 0 
0 0 0 0 0 0 0 0 0 
0 0 0 0 0 0 0 0 0 
0 0 0 0 0 0 0 0 0 
0 0 0 0 0 0 0 0 0 
0 0 0 0 0 0 0 0 0 
0 0 0 0 0 0 0 0 0 
0 0 0 0 0 0 0 0 0 
0 0 0 0 0 0 0 0 0 
0 0 0 0 0 0 0 0 0 
0 0 0 0 0 0 0 0 0 
0 0 0 0 0 0 0 0 0 
0 0 0 0 0 0 0 0 0 
0 0 0 0 0 0 0 0 0 
0 0 0 0 0 0 0 0 0 
0 0 0 0 0 0 0 0 0 
0 0 0 0 0 0 0 0 0 
0 0 0 0 0 0 0 0 0 
0 0 0 0 0 0 0 0 0 
0 0 0 0 0 0 0 0 0 
0 0 0 0 0 0 0 0 0 
0 0 0 0 0 0 0 0 0 
0 0 0 0 0 0 0 0 0 
0 0 0 0 0 0 0 0 0 
0 0 0 0 0 0 0 0 0 
0 0 0 0 0 0 0 0 0 
0 0 0 0 0 0 0 0 0 
0 0 0 0 0 0 0 0 0 
0 0 0 0 0 0 0 0 0 
0 0 0 0 0 0 0 0 0 
0 0 0 0 0 0 0 0 0 
0 0 
NORMALS Normals float
0.283563 0.436382 0.85391 0.0271643 0.31826 0.947614 -0.0495912 0.24762 0.967587 
-0.090972 0.254966 0.962661 -0.0841894 0.220861 0.971665 -0.0370938 0.257891 0.965462 
-0.0279225 0.320666 0.946781 -0.0281901 0.448046 0.893566 -0.0979614 0.590604 0.800993 
0.441254 0.27164 0.855282 0.15567 0.142087 0.977537 -0.0461341 0.11115 0.992732 
-0.0836479 0.0450506 0.995476 -0.124381 0.0098575 0.992186 -0.0671283 0.0925158 0.993446 
0.0351847 0.246255 0.968566 0.0524409 0.192681 0.979859 0.0608858 0.176761 0.982369 
-0.00337402 0.223654 0.974663 -0.161992 0.281346 0.945834 -0.377824 0.393205 0.838235 
0.281287 0.161543 0.945929 0.0925888 0.0764082 0.992768 -0.0620148 0.0612478 0.996194 
-0.143681 0.0370222 0.988931 -0.0456945 0.0547022 0.997457 0.163905 0.302279 0.939022 
0.047971 0.239691 0.969663 -0.102925 0.201337 0.9741 0.0124449 0.0258422 0.999589 
0.0311876 -0.0261836 0.999171 -0.0647269 0.0278167 0.997515 -0.285706 0.116335 0.95123 
0.513045 0.12574 0.849102 0.289972 0.12612 0.948689 0.0431611 0.115269 0.992396 
-0.0871812 0.0873875 0.992352 -0.0715063 0.0953623 0.992871 0.167446 0.162118 0.972461 
0.0748401 0.23193 0.969849 -0.0959049 -0.0933444 0.991004 -0.148849 0.193659 0.969711 
-0.169483 -0.03393 0.984949 -0.00269512 -0.140264 0.990111 -0.0213369 -0.107047 0.994025 
-0.153625 -0.0649813 0.98599 -0.376201 0.0442028 0.925483 0.503168 -0.0173472 0.864014 
0.288987 -0.0213057 0.957096 0.0391127 -0.0134349 0.999144 -0.0769286 -0.00428448 0.997027 
-0.075749 -0.00297124 0.997122 0.0970211 -0.125079 0.987392 -0.0754621 -0.208566 0.975093 
0.0376859 0.0439969 0.998321 -0.0135504 -0.074994 0.997092 -0.353059 -0.15244 0.923099 
-0.0146626 -0.0994702 0.994933 0.00281749 -0.118507 0.992949 -0.139685 -0.111339 0.983917 
0.508041 -0.224915 0.831449 0.28847 -0.189615 0.938526 0.0630556 -0.150899 0.986536 
-0.0737325 -0.0854752 0.993608 -0.177629 -0.0808978 0.980767 -0.0248371 -0.101785 0.994496 
0.238925 -0.1558 0.958458 0.0126038 0.0390228 0.999159 -0.332508 -0.312152 0.889944 
-0.121915 -0.0258478 0.992204 0.0144609 0.0176923 0.999739 -0.0277158 -0.0500167 0.998364 
-0.138747 -0.112878 0.983874 0.365306 -0.316495 0.875433 0.153014 -0.25382 0.955072 
-0.0169282 -0.205637 0.978482 -0.102888 -0.117388 0.987742 0.0136117 -0.014509 0.999802 
0.088094 -0.104786 0.990585 -0.117735 -0.248558 0.961435 -0.147692 -0.123605 0.981279 
-0.00973083 0.0362665 0.999295 -0.0306955 -0.0151449 0.999414 -0.120497 -0.0595888 0.990924 
0.223259 -0.480676 0.848001 0.0692895 -0.395791 0.915723 0.00988989 -0.327918 0.944654 
0.00144199 -0.287237 0.957859 -0.00899635 -0.338629 0.940877 -0.0490765 -0.319796 0.946215 
-0.0265671 -0.17034 0.985027 -0.028852 -0.148628 0.988472 -0.080674 -0.187684 0.978911 
-0.107283 -0.208533 0.972113 0.376606 0.59624 0.708989 0.13598 0.633172 0.761972 
0.202867 0.838194 0.506236 -0.0330216 0.587867 0.808283 0.011958 0.763856 0.645276 
-0.0861694 0.454583 0.886526 -0.044837 0.66889 0.742008 -0.0754763 0.335589 0.93898 
-0.0469477 0.59685 0.800978 -0.043067 0.314434 0.948302 -0.079844 0.566873 0.819927 
-0.0441369 0.35806 0.932655 -0.182172 0.654833 0.733489 -0.0337305 0.456722 0.88897 
-0.295072 0.802799 0.518118 -0.0991117 0.593161 0.79896 0.451146 0.545134 0.706609 
0.515958 0.45091 0.728332 0.637604 0.693879 0.334653 -0.10341 0.594658 0.797301 
-0.23821 0.567592 0.788096 -0.275297 0.745031 0.60757 -0.383899 0.413317 0.825706 
-0.409621 0.800568 0.43738 0.559952 0.326291 0.761569 0.828279 0.501845 0.249209 
-0.395591 0.397252 0.828069 -0.606139 0.521546 0.600487 0.507841 0.274624 0.816504 
0.541183 0.21844 0.812037 0.641027 0.350391 0.68287 -0.406245 0.225882 0.885405 
-0.415833 0.144926 0.897819 -0.469501 0.265565 0.842048 0.564229 0.137792 0.814039 
-0.433148 0.0466154 0.900117 -0.351968 -0.0875112 0.931912 -0.701005 0.110436 0.704554 
0.59461 -0.0209752 0.803741 -0.329936 -0.110888 0.937468 -0.347177 -0.109275 0.931411 
-0.637884 -0.0292283 0.769577 0.535896 -0.235199 0.810862 0.52373 -0.251981 0.813765 
-0.195895 -0.122321 0.972966 -0.19025 -0.0931659 0.977305 -0.298874 -0.126044 0.945932 
-0.674997 -0.0967252 0.731453 0.47382 -0.347354 0.809222 0.68754 -0.427349 0.587078 
0.397639 -0.432806 0.80905 -0.19147 -0.0841971 0.97788 -0.204303 -0.0899404 0.974767 
-0.317279 -0.243744 0.916473 -0.813455 -0.292019 0.503007 0.284256 -0.51352 0.809627 
0.453333 -0.58444 0.672993 0.246184 -0.523868 0.815448 0.09649 -0.536813 0.838166 
0.0141363 -0.487089 0.873238 0.00345043 -0.496515 0.868021 0.0187844 -0.502607 0.864311 
0.0295456 -0.452924 0.89106 0.0187511 -0.336486 0.941502 -0.0358312 -0.350814 0.935759 
-0.0857451 -0.289619 0.953294 -0.154636 -0.226101 0.961752 -0.1171 -0.236775 0.964482 
-0.310714 -0.297046 0.902896 -0.530664 -0.466394 0.707723 0.264636 -0.797749 0.541816 
0.146811 -0.75577 0.638168 0.0236497 -0.711006 0.702788 -0.0107179 -0.732919 0.680231 
0.0689215 -0.709722 0.701102 0.0975653 -0.580333 0.808514 0.0489285 -0.450531 0.891419 
-0.0381333 -0.443701 0.895363 -0.099152 -0.497994 0.861494 -0.228787 -0.53343 0.814315 
-0.414306 -0.675538 0.609917 0.230852 0.96849 0.0934621 0.133015 0.969158 0.207459 
0.111813 0.939711 0.323173 0.065416 0.879095 0.472136 -0.0943677 0.820531 0.563759 
-0.0263137 0.990392 0.135759 -0.248941 0.797327 0.549816 -0.310901 0.823679 0.474229 
0.642954 0.755223 0.127467 0.403111 0.912434 0.0704602 0.424803 0.902524 0.0706601 
-0.302338 0.834457 0.46073 -0.276652 0.867257 0.413918 -0.357094 0.917732 0.173934 
-0.277783 0.886879 0.369163 -0.410025 0.820536 0.398247 0.701049 0.702179 0.124395 
0.827448 0.526934 0.194091 0.584875 0.704133 -0.402639 -0.429901 0.812308 0.394133 
-0.619517 0.65791 0.428198 0.836372 0.510425 0.199869 0.832912 0.546699 -0.0858903 
-0.682031 0.569726 0.458525 0.910247 0.3549 0.213298 -0.777559 0.382403 0.499169 
-0.77925 0.376603 0.500939 -0.783938 0.386007 0.48625 0.96257 0.163149 0.216429 
-0.79183 0.179302 0.583829 0.975334 -0.0148603 0.220232 -0.751938 -0.0406415 0.65798 
0.939549 -0.21104 0.269647 -0.764839 -0.169152 0.621618 0.830054 -0.430798 0.354152 
0.736887 -0.567019 0.368086 -0.826967 -0.292978 0.479886 -0.821468 -0.30919 0.479157 
0.680705 -0.619744 0.390588 0.795784 -0.601114 -0.0734127 0.49549 -0.754902 0.429665 
-0.631073 -0.525059 0.571017 -0.582613 -0.612466 0.534273 0.367008 -0.813423 0.451274 
0.257933 -0.845121 0.468233 0.138453 -0.87807 0.458066 0.0315019 -0.908544 0.4166 
0.00560034 -0.887013 0.46171 0.119437 -0.857307 0.500758 0.194235 -0.834287 0.515983 
0.0965376 -0.868158 0.486808 -0.0293322 -0.889911 0.45519 -0.123829 -0.879193 0.460094 
-0.256277 -0.851701 0.457086 -0.514282 -0.710854 0.479793 -0.435388 -0.757789 0.485996 
0.18806 -0.964754 0.184074 0.0879877 -0.920491 0.380729 -0.0375824 -0.926451 0.374536 
-0.14388 -0.984474 0.100549 -0.0150368 0.997462 0.0696002 0.322216 0.848435 -0.419922 
0.272093 0.920677 -0.279857 0.248626 0.960823 -0.122488 0.0463415 0.997112 0.0601636 
0.195473 0.980293 0.0285679 -0.0813508 0.992955 0.0861524 -0.00663826 0.99897 -0.0448925 
-0.27826 0.950814 0.136104 -0.398775 0.898628 0.182885 -0.361365 0.91857 0.16014 
0.32694 0.846318 -0.420543 0.407728 0.799912 -0.44034 0.32257 0.840929 -0.434496 
0.344497 0.792215 -0.503703 -0.357924 0.920263 0.158138 -0.302511 0.946058 0.116019 
-0.453513 0.889466 0.0563666 0.55507 0.688199 -0.467204 0.563566 0.68233 -0.465639 
0.408661 0.57978 -0.704877 -0.524322 0.849577 0.0574876 -0.595497 0.801932 0.047844 
0.749949 0.538382 -0.384345 0.763322 0.525374 -0.375927 0.475215 0.490001 -0.730801 
-0.739337 0.671309 0.0521993 -0.814924 0.576769 0.0568905 0.863623 0.413086 -0.288991 
0.644265 0.455491 -0.61437 -0.901925 0.426664 0.066998 0.962555 0.177096 -0.205243 
-0.975156 0.219437 0.0303094 0.973177 0.0272615 -0.228435 -0.999472 -0.0283341 0.0158799 
0.963489 -0.195637 -0.1828 -0.979882 -0.199563 -0.00228131 0.905617 -0.40613 -0.122129 
-0.910136 -0.413857 -0.0193728 -0.840209 -0.537811 -0.0693456 0.796753 -0.596901 -0.0943094 
0.794918 -0.599429 -0.0937512 0.796035 -0.596423 -0.102992 0.561369 -0.823859 -0.0782365 
-0.796218 -0.599683 -0.0801059 -0.618131 -0.778401 -0.109568 0.546283 -0.834345 -0.0737769 
0.336547 -0.941666 -0.000846604 0.103719 -0.994446 0.0178847 0.0332138 -0.998231 0.0493227 
0.0608747 -0.995918 0.0666488 0.168459 -0.981588 0.0900361 -0.286811 -0.953625 -0.0913141 
-0.561245 -0.819926 -0.112805 -0.444414 -0.89161 -0.0867604 0.174917 -0.981627 0.0762382 
0.17398 -0.982834 0.0613801 0.162053 -0.968533 -0.188899 0.048829 -0.99863 0.0188097 
0.000484712 -0.889402 -0.457126 -0.0767464 -0.99663 -0.0289573 -0.1142 -0.939678 -0.322435 
-0.199524 -0.976855 -0.0771011 -0.150272 -0.986082 -0.0711318 -0.15734 -0.975849 -0.151537 
0.380162 0.774362 -0.505806 0.280168 0.884143 -0.373894 0.0215375 0.945978 -0.323515 
-0.180256 0.954726 -0.236657 -0.332935 0.935395 -0.119125 -0.386371 0.92039 -0.0599952 
0.323844 0.557375 -0.764499 0.366295 0.737784 -0.567012 0.369006 0.669152 -0.645035 
0.384797 0.707619 -0.592627 0.32003 0.59571 -0.736689 -0.390599 0.91815 -0.0665824 
-0.365163 0.900086 -0.2377 -0.39601 0.913356 -0.0946384 -0.470559 0.858837 -0.20242 
0.346825 0.522073 -0.779199 0.349937 0.475198 -0.807299 0.326738 0.51494 -0.792514 
0.377238 0.403071 -0.833801 -0.524511 0.826714 -0.20355 -0.508579 0.754704 -0.414451 
-0.645033 0.715497 -0.268322 0.418932 0.463756 -0.780658 0.448749 0.448997 -0.772675 
0.288471 0.40803 -0.866196 0.230148 0.324703 -0.917387 0.273928 0.156695 -0.948899 
-0.725373 0.609451 -0.320007 -0.627789 0.483493 -0.610013 -0.797279 0.467123 -0.382285 
0.50359 0.406997 -0.76207 0.566964 0.344822 -0.748098 0.384827 0.343711 -0.856605 
0.221272 0.291672 -0.930573 0.0981904 0.199598 -0.974946 0.0991046 0.0699378 -0.992616 
-0.828047 0.394076 -0.398802 -0.777561 0.387558 -0.495175 0.631762 0.248999 -0.734082 
0.553288 0.260019 -0.791368 0.351671 0.193757 -0.915853 0.172896 0.150494 -0.973375 
-0.0379362 0.0272858 -0.998908 0.131634 -0.0408034 -0.990458 -0.899687 0.160925 -0.405792 
-0.673339 0.108694 -0.7313 0.728994 0.0365544 -0.683543 0.568869 0.0750271 -0.818999 
0.297663 0.0697583 -0.952119 -0.0308781 0.00969981 -0.999476 0.269932 -0.0529702 -0.961421 
-0.885396 -0.06739 -0.459928 -0.611891 -0.140675 -0.778331 0.734059 -0.126959 -0.667112 
0.602946 -0.1403 -0.785348 0.33852 -0.0235133 -0.940665 -0.113785 0.0265095 -0.993152 
0.144241 0.0190343 -0.98936 -0.348029 -0.178217 -0.920388 -0.793476 -0.242656 -0.558134 
-0.653183 -0.25498 -0.712978 0.64701 -0.347879 -0.678496 0.646752 -0.362072 -0.671279 
0.63529 -0.342502 -0.69217 0.395729 -0.197532 -0.896872 0.12382 -0.193857 -0.973184 
-0.0124875 -0.00373813 -0.999915 0.0841317 0.0649071 -0.994338 -0.201039 -0.176171 -0.963612 
-0.413306 -0.312334 -0.855352 -0.688551 -0.413556 -0.595709 -0.686048 -0.417737 -0.595679 
-0.683273 -0.412752 -0.602306 0.65151 -0.485961 -0.582561 0.536234 -0.607893 -0.585593 
0.466965 -0.45424 -0.758689 0.263398 -0.322786 -0.909083 0.132818 -0.190487 -0.972663 
0.0107689 -0.165697 -0.986118 0.0617587 -0.119767 -0.990879 -0.137748 -0.29037 -0.946948 
-0.31871 -0.388321 -0.864656 -0.585825 -0.522411 -0.619593 -0.542698 -0.568605 -0.618196 
-0.521231 -0.494622 -0.695462 0.39209 -0.740495 -0.545832 0.336738 -0.768795 -0.543656 
0.345077 -0.708148 -0.615994 0.194224 -0.84259 -0.502314 0.192925 -0.650069 -0.734976 
0.090934 -0.887233 -0.45227 0.0695967 -0.593542 -0.801788 0.0610536 -0.90796 -0.414586 
0.043676 -0.54469 -0.837499 0.125344 -0.892243 -0.43381 0.0623363 -0.557901 -0.827563 
0.133097 -0.881621 -0.452802 0.076758 -0.518779 -0.851455 -0.000408786 -0.884347 -0.466829 
0.00568356 -0.492744 -0.870156 -0.126445 -0.869066 -0.478263 -0.0942732 -0.485769 -0.868989 
-0.197748 -0.812009 -0.549124 -0.172796 -0.571975 -0.801864 -0.278508 -0.749795 -0.6002 
-0.257974 -0.623529 -0.738012 -0.421889 -0.697442 -0.579296 -0.41011 -0.704395 -0.579342 
-0.40734 -0.691077 -0.597065 0.130662 0.653269 -0.745766 -0.0289897 0.721853 -0.691439 
-0.178782 0.780714 -0.598768 0.379665 0.325313 -0.866041 0.264166 0.584694 -0.76704 
0.313093 0.529705 -0.78828 0.147223 0.583236 -0.79885 -0.00491311 0.621298 -0.783559 
-0.244057 0.79184 -0.559844 -0.168907 0.727922 -0.66453 -0.295115 0.78643 -0.542619 
-0.407363 0.741073 -0.533728 0.3766 0.311128 -0.872566 0.376717 0.306141 -0.874278 
0.268504 0.234106 -0.934398 0.117216 0.193375 -0.974098 0.0753628 0.188026 -0.979269 
-0.0227951 0.291215 -0.956386 -0.162623 0.388737 -0.906883 -0.480746 0.65616 -0.581668 
-0.359589 0.556726 -0.748834 -0.500979 0.578518 -0.64369 0.294879 0.0721482 -0.952807 
0.312956 0.00674884 -0.949744 0.229959 -0.0261771 -0.972848 0.127318 -0.0236939 -0.991579 
0.0956149 -0.0261685 -0.995074 0.0302651 -0.0392848 -0.99877 -0.0797054 0.0670334 -0.994562 
-0.183074 0.13626 -0.97361 -0.548329 0.399988 -0.734401 -0.388566 0.307483 -0.868603 
-0.54687 0.300007 -0.78162 0.00872898 0.106973 -0.994224 0.187142 -0.0528537 -0.98091 
0.180684 -0.0746527 -0.980704 0.223665 -0.10467 -0.96903 0.234945 -0.117241 -0.964912 
0.123129 -0.155023 -0.980208 0.0632243 -0.0574234 -0.996346 0.0800966 -0.148462 -0.985669 
0.0289573 -0.0957226 -0.994987 -0.0827869 -0.0258148 -0.996233 -0.272503 0.068786 -0.959693 
-0.534322 0.222578 -0.81545 -0.4951 0.197268 -0.846145 0.0852964 0.121977 -0.988861 
0.123758 0.0755188 -0.989435 -0.0185166 0.0660011 -0.997648 -0.0035255 0.0934462 -0.995618 
0.140771 -0.0218014 -0.989802 0.178326 0.0565758 -0.982344 0.191991 -0.206131 -0.959505 
0.107574 0.0160376 -0.994068 -0.0061931 -0.0697712 -0.997544 0.0348513 -0.171838 -0.984509 
-0.0264147 -0.137783 -0.99011 -0.153074 -0.107732 -0.982325 -0.495872 0.0434292 -0.867309 
-0.362288 -0.00874629 -0.932025 0.118002 0.0619258 -0.991081 0.11446 0.0617682 -0.991506 
-0.0299153 0.0229919 -0.999288 -0.0306761 0.030272 -0.999071 0.263595 -0.047106 -0.963483 
0.0458097 0.056599 -0.997346 0.0849527 0.00121068 -0.996384 0.185894 -0.110674 -0.976317 
-0.109886 -0.113912 -0.987395 -0.0322337 -0.163946 -0.985942 -0.0234506 -0.164428 -0.98611 
-0.148736 -0.180966 -0.972177 -0.365802 -0.166298 -0.915715 -0.332847 -0.166018 -0.928252 
-0.322256 -0.170187 -0.931229 0.204659 -0.00908998 -0.978791 0.12461 -0.161976 -0.978895 
0.133197 -0.00979911 -0.991041 -0.10516 0.0217657 -0.994217 -0.0561852 -0.00379886 -0.998413 
0.191854 -0.0400177 -0.980607 0.236303 -0.155055 -0.959228 0.0422271 0.0897174 -0.995072 
0.00996378 -0.138841 -0.990265 -0.0673203 -0.0922588 -0.993457 -0.014897 -0.0872844 -0.996072 
-0.0443998 -0.138084 -0.989425 -0.291933 -0.171342 -0.940966 -0.198966 -0.174025 -0.964431 
-0.189446 -0.176434 -0.965909 0.0623509 -0.123086 -0.990435 -0.0092622 -0.0118899 -0.999886 
0.0535643 -0.103538 -0.993182 0.00841091 -0.0576206 -0.998303 0.0864979 0.060112 -0.994437 
0.160748 -0.0979402 -0.982124 0.0790343 -0.0530912 -0.995457 0.0034566 -0.0766458 -0.997052 
-0.0544908 -0.0647271 -0.996414 -0.0806099 -0.0754653 -0.993885 -0.190543 -0.175104 -0.965936 
-0.127981 -0.257519 -0.95776 -0.115475 -0.184974 -0.975936 0.0688639 -0.128861 -0.989269 
0.0984543 -0.285904 -0.953187 0.115225 -0.197446 -0.973519 0.0747591 -0.379901 -0.922001 
0.0676629 -0.209838 -0.975392 0.00181649 -0.406171 -0.913795 -0.0017718 -0.19706 -0.98039 
-0.0842883 -0.359418 -0.929362 -0.0680248 -0.215394 -0.974155 -0.130023 -0.27086 -0.953797 
-0.135198 -0.322644 -0.936815 -0.132386 -0.242225 -0.961146 
