# vtk DataFile Version 4.2
vtk output
ASCII
DATASET POLYDATA
POINTS 554 float
-34.5052 -26.3025 -28.6896 -42.9354 -34.7327 -23.0908 -34.5052 -29.6838 -27.9834 
-34.5052 -34.7327 -26.4777 -26.075 -34.7327 -25.2099 -17.6447 -34.7327 -24.0456 
-9.21453 -34.7327 -22.6873 -0.784313 -34.7327 -21.4985 -51.3656 -26.3025 -22.5968 
-39.032 -26.3025 -27.9834 -42.9354 -26.3025 -27.3201 -28.265 -26.3025 -27.9834 
-34.5052 -21.9943 -27.9834 -26.075 -26.3025 -27.7441 -17.6447 -26.3025 -26.8897 
-9.21453 -26.3025 -24.7064 -0.784313 -26.3025 -23.7792 7.6459 -26.3025 -22.6207 
16.0761 -26.3025 -20.4096 -51.3656 -17.8723 -22.4795 -42.9354 -17.8723 -26.6752 
-34.5052 -17.8723 -27.3491 -26.075 -17.8723 -27.1442 -17.6447 -17.8723 -26.3128 
-9.21453 -17.8723 -24.6448 -0.784313 -17.8723 -24.0255 7.6459 -17.8723 -23.8665 
16.0761 -17.8723 -22.5184 24.5063 -17.8723 -21.9879 32.9366 -17.8723 -21.8132 
41.3668 -17.8723 -20.1701 -51.3656 -9.44208 -20.2168 -42.9354 -9.44208 -23.9706 
-34.5052 -9.44208 -25.0784 -26.075 -9.44208 -24.8678 -17.6447 -9.44208 -24.4998 
-9.21453 -9.44208 -24.2107 -0.784313 -9.44208 -24.0806 7.6459 -9.44208 -23.9242 
16.0761 -9.44208 -22.9856 24.5063 -9.44208 -22.8922 32.9366 -9.44208 -23.6479 
41.3668 -9.44208 -22.7495 49.797 -9.44208 -19.7795 -42.9354 -1.01186 -21.3346 
-34.5052 -1.01186 -22.5882 -26.075 -1.01186 -22.7094 -17.6447 -1.01186 -23.2329 
-9.21453 -1.01186 -24.8367 -0.784313 -1.01186 -22.4084 7.6459 -1.01186 -23.1888 
16.0761 -1.01186 -22.7586 24.5063 -1.01186 -22.9955 32.9366 -1.01186 -23.3903 
41.3668 -1.01186 -23.0492 49.797 -1.01186 -20.5711 -34.5052 7.41835 -20.2733 
-26.075 7.41835 -21.3818 -17.6447 7.41835 -23.3551 -9.21453 7.41835 -24.1114 
-0.784313 7.41835 -22.4107 7.6459 7.41835 -24.0761 16.0761 7.41835 -23.1462 
24.5063 7.41835 -22.7227 32.9366 7.41835 -23.2635 41.3668 7.41835 -22.4365 
49.797 7.41835 -19.6787 -26.075 15.8486 -19.6571 -17.6447 15.8486 -20.9493 
-9.21453 15.8486 -21.6402 -0.784313 15.8486 -22.769 7.6459 15.8486 -23.5419 
16.0761 15.8486 -22.3191 24.5063 15.8486 -21.7714 32.9366 15.8486 -21.4352 
41.3668 15.8486 -20.0154 -9.21453 24.2788 -19.7503 -0.784313 24.2788 -20.7197 
7.6459 24.2788 -20.5331 16.0761 24.2788 -19.8915 -42.9354 -38.2527 -19.5532 
-34.5052 -39.5699 -19.5532 -26.075 -40.3979 -19.5532 -17.6447 -39.0934 -19.5532 
-9.21453 -37.9873 -19.5532 -0.784313 -36.8905 -19.5532 -48.6418 -34.7327 -19.5532 
-51.3656 -31.9742 -19.5532 6.47937 -34.7327 -19.5532 7.6459 -34.0785 -19.5532 
7.6459 -34.7327 -19.0987 16.0761 -27.896 -19.5532 16.0761 -34.7327 -13.9099 
24.5063 -34.7327 -11.2445 -55.4965 -26.3025 -19.5532 21.5105 -26.3025 -19.5532 
24.5063 -24.9961 -19.5532 24.5063 -26.3025 -19.0284 32.9366 -23.0657 -19.5532 
32.9366 -26.3025 -17.7991 41.3668 -19.0692 -19.5532 41.3668 -26.3025 -14.7768 
-55.1765 -17.8723 -19.5532 42.923 -17.8723 -19.5532 49.797 -10.103 -19.5532 
49.797 -17.8723 -16.1292 -52.132 -9.44208 -19.5532 -51.3656 -7.48493 -19.5532 
50.1831 -9.44208 -19.5532 58.2272 -9.44208 -12.4243 -47.0401 -1.01186 -19.5532 
-51.3656 -1.01186 -17.024 -42.9354 3.11002 -19.5532 51.5914 -1.01186 -19.5532 
58.2272 -1.01186 -14.1724 -51.3656 7.41835 -12.6654 -37.0575 7.41835 -19.5532 
-42.9354 7.41835 -17.7049 -34.5052 9.89035 -19.5532 50.0247 7.41835 -19.5532 
49.797 7.81568 -19.5532 58.2272 7.41835 -12.7934 -42.9354 15.8486 -14.4721 
-26.5461 15.8486 -19.5532 -34.5052 15.8486 -17.749 -26.075 16.3508 -19.5532 
-17.6447 22.2913 -19.5532 24.5063 23.2766 -19.5532 32.9366 21.3871 -19.5532 
42.6391 15.8486 -19.5532 41.3668 16.9719 -19.5532 49.797 15.8486 -16.3722 
-34.5052 24.2788 -15.6551 -26.075 24.2788 -17.8473 -11.8787 24.2788 -19.5532 
-17.6447 24.2788 -19.1225 -9.21453 25.1527 -19.5532 -0.784313 27.5598 -19.5532 
7.6459 26.9965 -19.5532 20.5275 24.2788 -19.5532 16.0761 25.107 -19.5532 
24.5063 24.2788 -19.2412 32.9366 24.2788 -18.4615 41.3668 24.2788 -15.7753 
-34.5052 32.709 -11.9616 -26.075 32.709 -15.5267 -17.6447 32.709 -17.005 
-9.21453 32.709 -17.7079 -0.784313 32.709 -17.6163 7.6459 32.709 -17.3375 
16.0761 32.709 -16.1226 24.5063 32.709 -14.9048 32.9366 32.709 -12.0888 
-17.6447 41.1392 -12.618 -9.21453 41.1392 -12.942 -0.784313 41.1392 -12.6106 
7.6459 41.1392 -11.6948 -42.9354 -38.2554 -11.123 -34.5052 -40.5188 -11.123 
-26.075 -41.2359 -11.123 -17.6447 -40.6501 -11.123 -9.21453 -41.0803 -11.123 
-0.784313 -41.2153 -11.123 7.6459 -39.3449 -11.123 16.0761 -36.6278 -11.123 
24.5063 -34.8307 -11.123 -51.2558 -34.7327 -11.123 -51.3656 -34.664 -11.123 
25.0439 -34.7327 -11.123 32.9366 -33.1838 -11.123 32.9366 -34.7327 -9.09946 
41.3668 -30.1351 -11.123 41.3668 -34.7327 -4.5298 -57.8186 -26.3025 -11.123 
47.4312 -26.3025 -11.123 49.797 -24.4622 -11.123 49.797 -26.3025 -8.36946 
-59.5294 -17.8723 -11.123 55.3905 -17.8723 -11.123 58.2272 -12.0032 -11.123 
58.2272 -17.8723 -5.21188 -58.8238 -9.44208 -11.123 -59.7958 -9.44208 -3.17255 
59.166 -9.44208 -11.123 -57.0879 -1.01186 -11.123 60.5031 -1.01186 -11.123 
-52.9107 7.41835 -11.123 -51.3656 10.7261 -11.123 59.4994 7.41835 -11.123 
58.2272 10.2408 -11.123 -48.1605 15.8486 -11.123 -51.3656 15.8486 -7.74115 
-42.9354 23.3535 -11.123 55.3066 15.8486 -11.123 49.797 22.7964 -11.123 
58.2272 15.8486 -4.17472 -42.2348 24.2788 -11.123 -42.9354 24.2788 -10.5864 
48.1256 24.2788 -11.123 41.3668 29.4736 -11.123 49.797 24.2788 -8.275 
-36.0402 32.709 -11.123 -42.9354 32.709 -5.32736 -34.5052 34.3654 -11.123 
-26.075 40.7672 -11.123 16.0761 39.609 -11.123 24.5063 37.144 -11.123 
35.0384 32.709 -11.123 32.9366 33.6502 -11.123 41.3668 32.709 -4.40839 
-34.5052 41.1392 -5.35216 -25.0363 41.1392 -11.123 -26.075 41.1392 -10.8417 
-17.6447 42.966 -11.123 -9.21453 43.1404 -11.123 -0.784313 42.7166 -11.123 
10.3139 41.1392 -11.123 7.6459 41.7383 -11.123 16.0761 41.1392 -9.48684 
24.5063 41.1392 -5.00339 -42.9354 -35.4264 -2.69277 -34.5052 -37.3277 -2.69277 
-26.075 -37.8107 -2.69277 -17.6447 -37.665 -2.69277 -9.21453 -39.0631 -2.69277 
-0.784313 -40.5633 -2.69277 7.6459 -40.5676 -2.69277 16.0761 -40.2023 -2.69277 
24.5063 -39.9865 -2.69277 24.5063 -43.1629 4.45597 32.9366 -38.9675 -2.69277 
41.3668 -35.7007 -2.69277 -44.7018 -34.7327 -2.69277 -51.3656 -31.0123 -2.69277 
-42.9354 -34.7327 -1.33468 -34.5052 -34.7327 3.59554 -26.075 -34.7327 4.72676 
-17.6447 -34.7327 5.4519 42.754 -34.7327 -2.69277 49.797 -29.0131 -2.69277 
-55.293 -26.3025 -2.69277 -51.3656 -26.3025 3.18444 52.4359 -26.3025 -2.69277 
58.2272 -19.1037 -2.69277 -58.7889 -17.8723 -2.69277 -59.7958 -9.86405 -2.69277 
59.0622 -17.8723 -2.69277 -59.8469 -9.44208 -2.69277 -59.7958 -6.48151 -2.69277 
-59.7958 -9.44208 -2.47867 62.1463 -9.44208 -2.69277 -59.6951 -1.01186 -2.69277 
63.3292 -1.01186 -2.69277 -57.5718 7.41835 -2.69277 62.3737 7.41835 -2.69277 
-54.333 15.8486 -2.69277 -51.3656 21.8899 -2.69277 58.7085 15.8486 -2.69277 
58.2272 16.5556 -2.69277 -49.9626 24.2788 -2.69277 -51.3656 24.2788 3.10783 
51.9295 24.2788 -2.69277 49.797 26.3763 -2.69277 -44.7671 32.709 -2.69277 
-42.9354 35.0024 -2.69277 32.9366 38.3661 -2.69277 42.1936 32.709 -2.69277 
41.3668 33.3206 -2.69277 -36.667 41.1392 -2.69277 -34.5052 42.8291 -2.69277 
-26.075 46.6736 -2.69277 -17.6447 48.3654 -2.69277 -9.21453 48.6835 -2.69277 
-0.784313 48.2435 -2.69277 7.6459 47.3928 -2.69277 16.0761 45.5223 -2.69277 
27.1358 41.1392 -2.69277 24.5063 42.3139 -2.69277 -17.6447 49.5694 5.30686 
-9.21453 49.5694 2.0369 -0.784313 49.5694 3.5949 24.5063 -43.6682 5.73745 
-9.21453 -36.505 5.73745 -0.784313 -39.2153 5.73745 7.6459 -41.2865 5.73745 
19.3014 -43.1629 5.73745 16.0761 -42.8355 5.73745 27.5228 -43.1629 5.73745 
24.5063 -43.1629 10.7171 32.9366 -42.1249 5.73745 41.3668 -37.8336 5.73745 
-42.9354 -30.592 5.73745 -34.5052 -33.8126 5.73745 -26.075 -34.2902 5.73745 
-17.1653 -34.7327 5.73745 -17.6447 -34.631 5.73745 -9.21453 -34.7327 9.67672 
45.0414 -34.7327 5.73745 49.797 -30.3566 5.73745 -49.024 -26.3025 5.73745 
-51.3656 -23.3205 5.73745 -42.9354 -26.3025 10.9005 53.3217 -26.3025 5.73745 
58.2272 -19.584 5.73745 -54.3603 -17.8723 5.73745 -51.3656 -17.8723 9.34573 
59.3389 -17.8723 5.73745 58.2272 -17.8723 9.17528 -57.494 -9.44208 5.73745 
-51.3656 -9.44208 13.7543 62.1222 -9.44208 5.73745 -57.9116 -1.01186 5.73745 
63.2061 -1.01186 5.73745 -57.4931 7.41835 5.73745 62.1862 7.41835 5.73745 
58.2272 7.41835 13.8481 -55.5581 15.8486 5.73745 58.3067 15.8486 5.73745 
58.2272 15.9642 5.73745 58.2272 15.8486 5.90953 -51.9083 24.2788 5.73745 
-51.3656 25.1999 5.73745 -51.3656 24.2788 7.17448 51.0812 24.2788 5.73745 
49.797 25.5795 5.73745 49.797 24.2788 7.90936 -46.4075 32.709 5.73745 
-42.9354 36.9301 5.73745 -42.9354 32.709 12.7133 32.9366 39.0142 5.73745 
41.7845 32.709 5.73745 41.3668 33.0412 5.73745 41.3668 32.709 6.39809 
-38.342 41.1392 5.73745 -34.5052 43.9392 5.73745 -34.5052 41.1392 11.5803 
-26.075 47.7643 5.73745 7.6459 49.1607 5.73745 16.0761 47.1609 5.73745 
29.3645 41.1392 5.73745 24.5063 43.7881 5.73745 24.5063 41.1392 12.9689 
-17.946 49.5694 5.73745 -17.6447 49.6327 5.73745 -17.6447 49.5694 5.95302 
-9.21453 50.2192 5.73745 -9.21453 49.5694 7.91705 3.48527 49.5694 5.73745 
-0.784313 49.9861 5.73745 -0.784313 49.5694 7.31062 -0.784313 -35.6993 14.1677 
7.6459 -39.1434 14.1677 16.0761 -41.8156 14.1677 24.5063 -42.7644 14.1677 
32.9366 -41.062 14.1677 41.3668 -35.9788 14.1677 -34.5052 -28.11 14.1677 
-26.075 -30.0927 14.1677 -17.6447 -30.7014 14.1677 -3.30964 -34.7327 14.1677 
-9.21453 -31.8527 14.1677 -0.784313 -34.7327 15.1903 7.6459 -34.7327 18.9737 
16.0761 -34.7327 21.6588 32.9366 -34.7327 20.5251 42.8105 -34.7327 14.1677 
41.3668 -34.7327 15.6402 49.797 -26.9081 14.1677 -37.815 -26.3025 14.1677 
-42.9354 -21.7638 14.1677 -34.5052 -26.3025 15.928 -26.075 -26.3025 18.1295 
-17.6447 -26.3025 18.4033 -9.21453 -26.3025 18.1049 -0.784313 -26.3025 20.0548 
41.3668 -26.3025 21.3623 50.2777 -26.3025 14.1677 49.797 -26.3025 14.7345 
-46.0227 -17.8723 14.1677 -42.9354 -17.8723 16.406 -34.5052 -17.8723 20.3269 
-26.075 -17.8723 21.4747 -17.6447 -17.8723 21.5492 -9.21453 -17.8723 20.906 
[...]
POINT_DATA 554
SCALARS ImageScalars float
LOOKUP_TABLE default
0 0 0 0 0 0 0 0 0 
0 0 0 0 0 0 0 0 0 
0 0 0 0 0 0 0 0 0 
0 0 0 0 0 0 0 0 0 
0 0 0 0 0 0 0 0 0 
0 0 0 0 0 0 0 0 0 
0 0 0 0 0 0 0 0 0 
0 0 0 0 0 0 0 0 0 
0 0 0 0 0 0 0 0 0 
0 0 0 0 0 0 0 0 0 
0 0 0 0 0 0 0 0 0 
0 0 0 0 0 0 0 0 0 
0 0 0 0 0 0 0 0 0 
0 0 0 0 0 0 0 0 0 
0 0 0 0 0 0 0 0 0 
0 0 0 0 0 0 0 0 0 
0 0 0 0 0 0 0 0 0 
0 0 0 0 0 0 0 0 0 
0 0 0 0 0 0 0 0 0 
0 0 0 0 0 0 0 0 0 
0 0 0 0 0 0 0 0 0 
0 0 0 0 0 0 0 0 0 
0 0 0 0 0 0 0 0 0 
0 0 0 0 0 0 0 0 0 
0 0 0 0 0 0 0 0 0 
0 0 0 0 0 0 0 0 0 
0 0 0 0 0 0 0 0 0 
0 0 0 0 0 0 0 0 0 
0 0 0 0 0 0 0 0 0 
0 0 0 0 0 0 0 0 0 
0 0 0 0 0 0 0 0 0 
0 0 0 0 0 0 0 0 0 
0 0 0 0 0 0 0 0 0 
0 0 0 0 0 0 0 0 0 
0 0 0 0 0 0 0 0 0 
0 0 0 0 0 0 0 0 0 
0 0 0 0 0 0 0 0 0 
0 0 0 0 0 0 0 0 0 
0 0 0 0 0 0 0 0 0 
0 0 0 0 0 0 0 0 0 
0 0 0 0 0 0 0 0 0 
0 0 0 0 0 0 0 0 0 
0 0 0 0 0 0 0 0 0 
0 0 0 0 0 0 0 0 0 
0 0 0 0 0 0 0 0 0 
0 0 0 0 0 0 0 0 0 
0 0 0 0 0 0 0 0 0 
0 0 0 0 0 0 0 0 0 
0 0 0 0 0 0 0 0 0 
0 0 0 0 0 0 0 0 0 
0 0 0 0 0 0 0 0 0 
0 0 0 0 0 0 0 0 0 
0 0 0 0 0 0 0 0 0 
0 0 0 0 0 0 0 0 0 
0 0 0 0 0 0 0 0 0 
0 0 0 0 0 0 0 0 0 
0 0 0 0 0 0 0 0 0 
0 0 0 0 0 0 0 0 0 
0 0 0 0 0 0 0 0 0 
0 0 0 0 0 0 0 0 0 
0 0 0 0 0 0 0 0 0 
0 0 0 0 0 
NORMALS Normals float
0.0255004 0.0262909 0.999329 0.386121 0.643286 0.661131 0.0415803 0.221102 0.974364 
0.0843426 0.552276 0.829384 -0.121361 0.533822 0.836843 -0.135765 0.563773 0.814695 
-0.143781 0.514042 0.845629 -0.183446 0.522719 0.832534 0.601298 0.194769 0.774923 
0.175907 0.0864896 0.9806 0.303392 0.144802 0.941799 -0.0697317 0.0773667 0.994561 
0.0218901 -0.0981788 0.994928 -0.100189 0.0970713 0.990222 -0.182592 0.115051 0.976434 
-0.172874 0.0886797 0.980944 -0.119658 0.12256 0.985221 -0.191079 0.23911 0.952006 
-0.20502 0.372827 0.904968 0.551682 -0.108059 0.827025 0.269047 -0.181672 0.945838 
0.0241844 -0.201854 0.979117 -0.0623475 -0.178839 0.981901 -0.148456 -0.139922 0.97897 
-0.129001 -0.0293528 0.99121 -0.0456835 0.0175589 0.998802 -0.0879078 0.0749517 0.993305 
-0.109729 0.142957 0.983627 -0.0411301 0.214662 0.975822 -0.0983379 0.306633 0.946734 
-0.269386 0.37191 0.888321 0.553128 -0.266099 0.789456 0.23372 -0.286567 0.929115 
0.0475432 -0.264452 0.963226 -0.0337905 -0.257279 0.965746 -0.0386514 -0.172453 0.984259 
-0.0245919 0.0110167 0.999637 -0.0168179 -0.089472 0.995847 -0.0650277 -0.0402398 0.997072 
-0.0605824 0.0136277 0.99807 0.0384117 0.0582095 0.997565 -0.00469194 0.0907079 0.995866 
-0.216924 0.157706 0.963365 -0.435885 0.202555 0.876913 0.249474 -0.344221 0.905138 
0.0749762 -0.289375 0.954275 0.0356463 -0.198758 0.9794 0.128495 -0.0693353 0.989283 
-0.04531 -0.00490044 0.998961 -0.101056 -0.10454 0.989373 0.0181539 0.0090991 0.999794 
-0.0113747 0.0089165 0.999896 0.0374268 -0.0100508 0.999249 0.00249716 -0.0223362 0.999747 
-0.158511 -0.0170436 0.98721 -0.415244 -0.0055628 0.909693 0.197426 -0.261825 0.944707 
0.177013 -0.176975 0.968166 0.160009 -0.133093 0.978102 -0.054921 -0.183203 0.98154 
-0.000513478 0.0215536 0.999768 0.0423133 0.0222992 0.998856 -0.081393 -0.0245473 0.99638 
0.00698018 -0.0709176 0.997458 -0.0136809 -0.113204 0.993478 -0.201793 -0.169276 0.964689 
-0.412495 -0.198891 0.888983 0.180782 -0.1995 0.963077 0.113472 -0.241561 0.963728 
0.1053 -0.252698 0.961798 0.10937 -0.0985974 0.989099 -0.0251727 -0.201339 0.979198 
-0.102699 -0.188299 0.976727 -0.0508199 -0.197682 0.978948 -0.0943574 -0.259326 0.961169 
-0.247156 -0.324934 0.91287 0.0915676 -0.216264 0.972031 0.0455387 -0.287987 0.956551 
-0.0473537 -0.34099 0.938874 -0.0713898 -0.334087 0.939835 0.37077 0.848687 0.377173 
0.109259 0.92302 0.368914 -0.0237964 0.908219 0.417819 -0.130747 0.86195 0.489845 
-0.123827 0.770639 0.625126 -0.182563 0.675728 0.714186 0.585766 0.6973 0.413099 
0.669883 0.565267 0.481383 -0.297343 0.604751 0.738825 -0.307238 0.58285 0.752257 
-0.315039 0.62434 0.714808 -0.229391 0.435411 0.870515 -0.279591 0.765093 0.580053 
-0.168532 0.785434 0.595558 0.786124 0.27941 0.551307 -0.155541 0.435363 0.886716 
-0.115015 0.42785 0.896502 -0.129529 0.473106 0.871431 -0.149753 0.456222 0.877175 
-0.187907 0.562754 0.804984 -0.281038 0.402429 0.871245 -0.349745 0.622771 0.699882 
0.707306 -0.134263 0.69404 -0.309362 0.383952 0.869986 -0.440173 0.220959 0.870301 
-0.525683 0.455661 0.718353 0.592819 -0.267589 0.75958 0.558999 -0.292914 0.775707 
-0.447707 0.205008 0.870362 -0.810129 0.234989 0.537096 0.395376 -0.361837 0.844247 
0.579487 -0.364884 0.728735 0.304776 -0.348717 0.886289 -0.476157 -0.00212931 0.879358 
-0.781161 0.0133114 0.624188 0.631405 -0.347902 0.693031 0.243659 -0.287933 0.926134 
0.360673 -0.347245 0.865642 0.219685 -0.255532 0.94151 -0.419495 -0.200514 0.885335 
-0.415899 -0.208514 0.885184 -0.788724 -0.253321 0.560128 0.443756 -0.343264 0.827798 
0.185836 -0.201828 0.961629 0.276104 -0.247919 0.928603 0.180741 -0.200195 0.962941 
0.107621 -0.230079 0.967203 -0.0726891 -0.334492 0.939591 -0.130619 -0.374432 0.918009 
-0.282887 -0.335277 0.898646 -0.259745 -0.345806 0.901638 -0.527348 -0.428691 0.733572 
0.342216 -0.301163 0.89005 0.185946 -0.222129 0.957122 0.096296 -0.219309 0.970892 
0.107283 -0.226558 0.968071 0.0864339 -0.228083 0.969798 0.0200921 -0.331806 0.943134 
-0.0556171 -0.367493 0.928362 -0.0736211 -0.343533 0.936251 -0.0750834 -0.346823 0.93492 
-0.0765164 -0.35433 0.931985 -0.160492 -0.450099 0.878438 -0.381938 -0.551087 0.741907 
0.419809 -0.410333 0.80956 0.267681 -0.339238 0.901812 0.113283 -0.338743 0.934034 
0.0354978 -0.351046 0.935685 -0.0192481 -0.411215 0.911335 -0.0783963 -0.44293 0.893122 
-0.120709 -0.488536 0.864154 -0.188771 -0.574933 0.796127 -0.30404 -0.711755 0.633217 
0.0954666 -0.599938 0.79433 0.00061153 -0.626133 0.779716 -0.060257 -0.653579 0.754455 
-0.129232 -0.676113 0.725376 0.317433 0.934789 -0.159394 0.160243 0.98107 -0.108737 
0.00785174 0.987431 -0.157853 -0.00508355 0.995936 -0.0899186 0.0341138 0.999187 0.0214748 
-0.09961 0.983684 0.149812 -0.258532 0.918444 0.299369 -0.242235 0.838053 0.488865 
-0.16743 0.787572 0.593041 0.644434 0.761215 -0.0725086 0.649783 0.756793 -0.0710394 
-0.16916 0.785423 0.595396 -0.196749 0.745144 0.637221 -0.197297 0.786517 0.585205 
-0.373058 0.706684 0.601186 -0.455342 0.804748 0.380847 0.905255 0.423828 -0.0297172 
-0.518198 0.659929 0.544027 -0.578304 0.624348 0.525123 -0.614787 0.667431 0.420205 
0.989208 0.0447284 0.139524 -0.712799 0.484271 0.507345 -0.814993 0.312612 0.487914 
-0.83135 0.490592 0.261106 0.936201 -0.114834 0.332177 0.998002 0.0438187 -0.0455222 
-0.841524 0.237627 0.48515 0.824791 -0.299254 0.479758 -0.867905 0.0195559 0.496344 
0.687432 -0.348266 0.637297 0.661178 -0.357725 0.659452 -0.83209 -0.256743 0.49164 
-0.80699 -0.333227 0.487574 0.598031 -0.381436 0.704887 0.7444 -0.407691 0.528826 
0.560657 -0.372422 0.739572 -0.725655 -0.476464 0.496393 -0.610767 -0.625973 0.484893 
-0.843022 -0.505372 0.184152 0.556933 -0.370067 0.743557 0.583244 -0.380074 0.717893 
-0.579524 -0.64972 0.491952 -0.463317 -0.711857 0.527822 -0.645834 -0.68078 0.345595 
0.458547 -0.423524 0.781256 0.704451 -0.53486 0.466554 0.435459 -0.452848 0.778013 
0.263069 -0.626022 0.734092 -0.183315 -0.676884 0.712898 -0.253589 -0.710247 0.65669 
-0.352828 -0.734409 0.579789 -0.321672 -0.732964 0.599409 -0.551288 -0.807959 0.208045 
0.540115 -0.718556 0.438124 0.241076 -0.635281 0.733689 0.26446 -0.644893 0.717059 
0.100926 -0.668081 0.737212 -0.0120539 -0.694824 0.719078 -0.0639531 -0.705975 0.705344 
-0.150204 -0.690771 0.7073 -0.13098 -0.694031 0.70793 -0.210388 -0.743347 0.634959 
-0.353153 -0.854058 0.381927 0.268443 0.884174 -0.382329 0.128124 0.913017 -0.387279 
0.0162158 0.926104 -0.376921 0.0718588 0.934177 -0.349499 0.168734 0.950471 -0.261025 
0.0873225 0.989494 -0.11522 -0.0198083 0.993714 0.110182 -0.0334909 0.939392 0.341205 
-0.0657333 0.888204 0.454722 -0.0394939 0.979489 0.197589 -0.229089 0.871181 0.434237 
-0.469468 0.818251 0.331762 0.334011 0.85859 -0.388921 0.630035 0.665476 -0.400247 
0.281899 0.873131 -0.397713 0.158081 0.896637 -0.413584 0.0382476 0.916043 -0.399253 
0.115415 0.933678 -0.339006 -0.500552 0.805665 0.316784 -0.668937 0.703549 0.23988 
0.772061 0.529385 -0.351672 0.640058 0.562656 -0.523205 -0.721651 0.658023 0.215003 
-0.841924 0.511212 0.172702 0.944783 0.216628 -0.24588 0.995479 0.0592223 -0.0742567 
-0.858375 0.484771 0.167896 0.996501 0.0515677 -0.0657832 0.999095 -0.012359 -0.0407088 
0.995808 0.054262 -0.0736381 -0.957079 0.246357 0.152667 0.990934 -0.13406 0.00881507 
-0.989575 0.0137395 0.143362 0.936222 -0.288937 0.200007 -0.9544 -0.266202 0.135121 
0.859349 -0.401929 0.316184 0.81407 -0.462327 0.351488 -0.854883 -0.50367 0.124465 
-0.843659 -0.522317 0.124196 0.794546 -0.475994 0.376996 0.872955 -0.484154 0.0595364 
-0.709519 -0.697207 0.102399 -0.681444 -0.724184 0.10579 0.75022 -0.558018 0.354663 
0.723806 -0.595333 0.348832 -0.465922 -0.852037 0.23864 -0.573586 -0.807742 0.136204 
-0.563587 -0.814123 0.139908 0.593554 -0.738617 0.319591 0.542177 -0.778121 0.317129 
0.284443 -0.904114 0.318858 0.111019 -0.947762 0.299034 -0.0057765 -0.94082 0.338858 
-0.0707029 -0.93313 0.352519 -0.150652 -0.920386 0.360823 -0.270776 -0.89688 0.349696 
-0.406082 -0.869969 0.279734 -0.375925 -0.876737 0.30002 0.134897 -0.989389 -0.0539663 
0.0105823 -0.99381 0.110584 -0.0647474 -0.996176 0.0586573 -0.0359859 0.988341 0.147944 
0.253847 0.905105 -0.341097 0.2638 0.932529 -0.246576 0.201888 0.977284 -0.0644751 
0.0745424 0.990327 0.117026 0.139012 0.98579 0.0943093 -0.129489 0.98135 0.142071 
-0.0328668 0.990716 -0.131914 -0.297532 0.947501 0.117117 -0.564907 0.824578 0.0308457 
0.389921 0.748405 -0.536518 0.172462 0.883815 -0.434888 0.0424762 0.913334 -0.40499 
0.124439 0.932425 -0.339261 0.117021 0.933318 -0.339445 0.247182 0.854648 -0.456595 
-0.631498 0.775376 -0.00161452 -0.720888 0.690675 -0.0573498 0.561755 0.587768 -0.582203 
0.652249 0.485117 -0.582437 0.45276 0.60413 -0.655771 -0.782523 0.616226 -0.0890188 
-0.86241 0.490749 -0.124154 0.761467 0.339582 -0.552134 0.682224 0.366919 -0.632408 
-0.87958 0.456585 -0.133675 -0.856923 0.440065 -0.268376 0.889757 0.170934 -0.42322 
0.637187 0.231229 -0.735205 -0.961344 0.225766 -0.157629 0.934483 -0.00224226 -0.356001 
-0.982845 0.00857146 -0.184232 0.971075 -0.133041 -0.198277 -0.932526 -0.291857 -0.212639 
-0.762905 -0.30424 -0.570451 0.94813 -0.303098 -0.0958138 -0.827645 -0.511412 -0.231216 
-0.825829 -0.514289 -0.231328 -0.825619 -0.511783 -0.237551 0.87977 -0.469509 -0.074612 
0.872305 -0.483186 -0.0749343 0.869551 -0.469845 -0.152075 -0.693037 -0.677416 -0.24659 
-0.680664 -0.69124 -0.242657 -0.67203 -0.660844 -0.334156 0.793839 -0.600243 -0.0976123 
0.730556 -0.673592 -0.112076 0.664536 -0.566071 -0.487807 -0.542779 -0.827694 -0.142526 
-0.607234 -0.764554 -0.216156 -0.604118 -0.767579 -0.214158 -0.602863 -0.759727 -0.243662 
0.613135 -0.780007 -0.125118 0.521726 -0.844346 -0.121993 0.524701 -0.728415 -0.440568 
0.2996 -0.947692 -0.110085 -0.161296 -0.98603 -0.0415736 -0.294015 -0.954276 -0.0539612 
-0.497294 -0.860787 -0.108373 -0.431968 -0.899109 -0.0707551 -0.425164 -0.791028 -0.439898 
0.140744 -0.987421 -0.0720421 0.135753 -0.988196 -0.0709883 0.136402 -0.987345 -0.0809025 
0.0208316 -0.998049 -0.0588545 0.0251105 -0.985823 -0.165898 -0.112077 -0.993003 -0.0371945 
-0.0622074 -0.997469 -0.0344478 -0.0605403 -0.991731 -0.113158 0.343247 0.732347 -0.58809 
0.326148 0.831895 -0.448975 0.191213 0.91099 -0.365425 -0.0313195 0.942995 -0.33133 
-0.335194 0.863572 -0.376681 -0.574457 0.709759 -0.407727 0.303091 0.677742 -0.669926 
0.121119 0.788748 -0.602666 0.079259 0.779238 -0.621696 0.311526 0.734985 -0.602286 
0.206541 0.705493 -0.677954 0.339503 0.690725 -0.638464 0.331128 0.576453 -0.747032 
0.188125 0.472565 -0.860983 -0.321705 0.528314 -0.785742 -0.600157 0.686382 -0.41072 
-0.562351 0.666723 -0.489123 -0.696428 0.550084 -0.460864 0.381615 0.607775 -0.696405 
0.485536 0.458241 -0.744493 0.317714 0.610817 -0.725231 0.120318 0.60453 -0.787444 
-0.00319997 0.564691 -0.825297 0.0980922 0.453423 -0.885881 0.256507 0.329085 -0.908794 
-0.394914 0.395052 -0.829444 -0.702106 0.54095 -0.463056 -0.688536 0.536653 -0.487772 
0.550431 0.368296 -0.749255 0.483845 0.351184 -0.801601 0.259732 0.276032 -0.925389 
0.0628722 0.220726 -0.973307 -0.0328901 0.200071 -0.979229 0.0165802 0.250237 -0.968043 
0.123489 0.16906 -0.977839 -0.778382 0.397097 -0.486246 -0.53823 0.321048 -0.779254 
-0.828091 0.24455 -0.504441 0.617915 0.232469 -0.751092 0.647022 0.198049 -0.736301 
0.404031 0.20697 -0.891023 0.204744 0.134183 -0.969575 0.050241 0.102657 -0.993447 
0.00370973 0.104587 -0.994509 -0.00333346 -0.00390832 -0.999987 -0.43946 0.0871929 -0.89402 
-0.838767 0.178565 -0.514378 -0.814448 0.17177 -0.554229 0.716528 0.101074 -0.690196 
0.67523 0.106211 -0.72992 0.381538 0.134791 -0.914473 -0.402817 -0.0643083 -0.913019 
-0.832349 -0.042996 -0.552582 -0.763059 -0.279328 -0.582852 -0.780795 -0.0529767 -0.622537 
0.7656 -0.0190769 -0.643034 0.699903 -0.0154275 -0.714071 0.39776 0.0223365 -0.917217 
0.0285344 -0.0407762 -0.998761 -0.750856 -0.304269 -0.586205 -0.448062 -0.259633 -0.855472 
0.758447 -0.239304 -0.606211 0.751782 -0.26617 -0.603305 0.739718 -0.234182 -0.630854 
0.439503 -0.1287 -0.888973 -0.0215863 0.0560786 -0.998193 -0.145158 -0.191696 -0.970661 
-0.270927 -0.339553 -0.900723 -0.641976 -0.485879 -0.593117 -0.5961 -0.532566 -0.600865 
-0.526155 -0.473867 -0.706124 0.701316 -0.416414 -0.578581 0.629157 -0.525792 -0.572454 
0.544322 -0.344253 -0.764986 -0.283911 -0.284431 -0.915693 -0.557891 -0.575063 -0.598382 
-0.527818 -0.607244 -0.593854 -0.466279 -0.510471 -0.722498 0.61088 -0.541278 -0.577792 
0.49346 -0.634091 -0.595336 0.411239 -0.452167 -0.791472 0.226375 -0.318725 -0.920418 
-0.112339 -0.306888 -0.945092 -0.415661 -0.752893 -0.510272 -0.257914 -0.40407 -0.877614 
-0.540292 -0.629325 -0.558601 -0.52912 -0.648589 -0.547142 -0.506807 -0.579102 -0.638583 
0.451396 -0.68018 -0.577579 0.307334 -0.770095 -0.559017 0.301515 -0.648501 -0.698953 
0.156827 -0.822135 -0.547265 0.127707 -0.590055 -0.797199 0.0378927 -0.848896 -0.527199 
0.0306978 -0.536892 -0.843093 -0.0519491 -0.849817 -0.524511 -0.0590843 -0.497421 -0.865495 
-0.160638 -0.823935 -0.543439 -0.13753 -0.552264 -0.822247 -0.398935 -0.762263 -0.509712 
-0.280252 -0.791919 -0.542515 -0.24864 -0.670466 -0.699038 -0.0499686 0.436944 -0.8981 
0.239832 0.215786 -0.946529 -0.00757 0.429165 -0.903194 0.163552 0.330521 -0.92952 
-0.0735806 0.429282 -0.900168 -0.0497315 0.423637 -0.904466 -0.230465 0.34123 -0.911289 
0.23508 0.205065 -0.950098 0.23209 0.192625 -0.953431 0.124398 0.115938 -0.985436 
-0.0206716 0.138642 -0.990127 -0.279301 0.321901 -0.904638 -0.186798 0.25988 -0.947401 
-0.326959 0.307948 -0.893457 0.0322831 0.150852 -0.988029 0.122355 0.0275733 -0.992103 
0.0200888 0.0903001 -0.995712 0.0722635 -0.0311061 -0.9969 0.120712 -0.0507549 -0.991389 
0.125306 -0.0638596 -0.990061 0.104052 -0.0223072 -0.994322 -0.0544979 0.11562 -0.991797 
-0.386104 0.248715 -0.888293 -0.258935 0.188988 -0.947225 0.162642 0.138082 -0.976975 
0.050129 0.102725 -0.993446 0.0238649 0.134388 -0.990641 0.00540853 0.108316 -0.994102 
0.0327569 0.147433 -0.98853 -0.0241017 0.0263723 -0.999362 -0.0390404 0.0455776 -0.998198 
0.0967721 -0.0401046 -0.994498 0.0069329 0.0745353 -0.997194 0.15937 -0.0642843 -0.985124 
0.157894 -0.0441001 -0.986471 0.0249969 -0.0267364 -0.99933 -0.426108 0.0837816 -0.900785 
-0.174031 0.0401374 -0.983922 0.171306 0.138898 -0.975378 0.156197 0.138756 -0.977931 
0.0336919 0.112098 -0.993126 0.0133888 0.129174 -0.991532 -0.0410175 0.0521823 -0.997795 
-0.0223469 -0.0561859 -0.99817 -0.0267169 -0.0574355 -0.997992 0.0123055 0.121609 -0.992502 
0.0813498 0.0230358 -0.996419 0.143429 -0.0626203 -0.987678 0.0319451 -0.0971989 -0.994752 
-0.395562 -0.0642231 -0.916191 -0.151348 -0.0775962 -0.98543 0.290535 0.0381242 -0.956105 
0.171161 0.0533347 -0.983798 0.0455934 0.104819 -0.993446 -0.0546776 0.0989685 -0.993587 
-0.0407608 -0.0224162 -0.998917 -0.154024 0.0130506 -0.987981 0.0425626 -0.0249552 -0.998782 
0.0767129 0.0127419 -0.996972 -0.0222191 0.0483825 -0.998582 0.0392808 -0.0591517 -0.997476 
-0.137818 -0.189907 -0.972081 0.0113066 -0.155698 -0.98774 -0.293495 -0.238374 -0.925764 
-0.193045 -0.269354 -0.943494 -0.149031 -0.219288 -0.964211 0.309785 -0.0846894 -0.947027 
0.233767 -0.0683357 -0.969888 0.0760314 -0.00728291 -0.997079 -0.0760191 0.0208405 -0.996889 
-0.083734 0.0481369 -0.995325 -0.18544 0.0358651 -0.982001 0.0404273 0.000859917 -0.999182 
-0.0460453 0.04467 -0.99794 0.101549 -0.0536945 -0.99338 0.00823747 0.0127334 -0.999885 
-0.138763 -0.179486 -0.973925 -0.065487 -0.0458679 -0.996799 0.290326 -0.237906 -0.926883 
0.284497 -0.244602 -0.926947 0.278133 -0.233985 -0.931608 0.220137 -0.307853 -0.925617 
0.130546 -0.145074 -0.980771 -0.0131548 -0.0867344 -0.996145 -0.119565 -9.74451e-05 -0.992826 
-0.0614474 0.0384405 -0.99737 0.0357912 -0.0325124 -0.99883 -0.0774703 -0.231028 -0.969858 
-0.0151214 -0.0904174 -0.995789 -0.172327 -0.160153 -0.971933 -0.167217 -0.174841 -0.970293 
-0.159181 -0.146685 -0.976291 0.208927 -0.313637 -0.926273 0.0820284 -0.343849 -0.935435 
0.0706079 -0.278147 -0.95794 -0.0198324 -0.306921 -0.951528 -0.0512256 -0.191315 -0.980191 
-0.0619856 -0.143245 -0.987744 -0.0620007 -0.140057 -0.9882 -0.0427476 -0.208268 -0.977137 
-0.0337355 -0.200501 -0.979112 -0.0306334 -0.191613 -0.980992 
