# vtk DataFile Version 4.2
vtk output
ASCII
DATASET POLYDATA
POINTS 550 float
-15.4677 -32.4592 -12.037 -8.2878 -32.4592 -12.4054 -1.10788 -32.4592 -12.0781 
-29.8276 -25.2793 -13.2711 -22.6477 -25.2793 -14.6334 -15.4677 -25.2793 -15.1138 
-8.2878 -25.2793 -15.0875 -1.10788 -25.2793 -14.5594 6.07205 -25.2793 -14.4605 
13.252 -25.2793 -14.3585 20.4319 -25.2793 -14.2238 27.6118 -25.2793 -13.0896 
-37.0075 -18.0994 -13.9125 -29.8276 -18.0994 -15.299 -22.6477 -18.0994 -15.923 
-15.4677 -18.0994 -15.7169 -8.2878 -18.0994 -15.4436 -1.10788 -18.0994 -15.2301 
6.07205 -18.0994 -15.0355 13.252 -18.0994 -15.5837 20.4319 -18.0994 -15.8748 
27.6118 -18.0994 -16.0299 34.7918 -18.0994 -15.8179 41.9717 -18.0994 -13.8407 
-44.1875 -10.9194 -13.7148 -37.0075 -10.9194 -15.4407 -29.8276 -10.9194 -15.7049 
-22.6477 -10.9194 -15.4965 -15.4677 -10.9194 -15.0546 -8.2878 -10.9194 -15.3055 
-1.10788 -10.9194 -15.2086 6.07205 -10.9194 -15.6274 13.252 -10.9194 -16.1312 
20.4319 -10.9194 -16.6966 27.6118 -10.9194 -17.3243 34.7918 -10.9194 -17.3552 
41.9717 -10.9194 -16.6379 49.1516 -10.9194 -14.7045 -44.1875 -3.7395 -14.804 
-37.0075 -3.7395 -16.0463 -29.8276 -3.7395 -16.3512 -22.6477 -3.7395 -15.6431 
-15.4677 -3.7395 -14.5745 -8.2878 -3.7395 -17.4102 -1.10788 -3.7395 -14.7918 
6.07205 -3.7395 -18.1138 13.252 -3.7395 -17.1537 20.4319 -3.7395 -16.8956 
27.6118 -3.7395 -17.9253 34.7918 -3.7395 -18.7052 41.9717 -3.7395 -17.9476 
49.1516 -3.7395 -16.4192 56.3316 -3.7395 -11.8307 -44.1875 3.44043 -14.795 
-37.0075 3.44043 -16.4378 -29.8276 3.44043 -16.6636 -22.6477 3.44043 -16.1808 
-15.4677 3.44043 -15.0711 -8.2878 3.44043 -15.7333 -1.10788 3.44043 -14.3123 
6.07205 3.44043 -18.2801 13.252 3.44043 -16.2317 20.4319 3.44043 -16.792 
27.6118 3.44043 -18.1517 34.7918 3.44043 -18.9446 41.9717 3.44043 -18.3046 
49.1516 3.44043 -16.6812 56.3316 3.44043 -11.8334 -44.1875 10.6204 -15.3056 
-37.0075 10.6204 -16.8458 -29.8276 10.6204 -17.8164 -22.6477 10.6204 -17.2347 
-15.4677 10.6204 -16.1877 -8.2878 10.6204 -15.6924 -1.10788 10.6204 -16.6392 
6.07205 10.6204 -16.4629 13.252 10.6204 -15.8434 20.4319 10.6204 -16.9547 
27.6118 10.6204 -18.143 34.7918 10.6204 -18.6046 41.9717 10.6204 -18.5013 
49.1516 10.6204 -15.4399 -44.1875 17.8003 -13.4705 -37.0075 17.8003 -16.6751 
-29.8276 17.8003 -17.3953 -22.6477 17.8003 -17.5258 -15.4677 17.8003 -17.3539 
-8.2878 17.8003 -17.2047 -1.10788 17.8003 -17.1131 6.07205 17.8003 -16.3021 
13.252 17.8003 -16.3901 20.4319 17.8003 -17.3354 27.6118 17.8003 -18.4993 
34.7918 17.8003 -17.5119 41.9717 17.8003 -16.2592 49.1516 17.8003 -12.6821 
-37.0075 24.9802 -13.9233 -29.8276 24.9802 -16.6678 -22.6477 24.9802 -17.4858 
-15.4677 24.9802 -17.7162 -8.2878 24.9802 -18.0451 -1.10788 24.9802 -17.6465 
6.07205 24.9802 -16.7457 13.252 24.9802 -16.2875 20.4319 24.9802 -16.8498 
27.6118 24.9802 -16.2604 34.7918 24.9802 -15.1668 -29.8276 32.1601 -12.3559 
-22.6477 32.1601 -14.9578 -15.4677 32.1601 -16.2115 -8.2878 32.1601 -16.6004 
-1.10788 32.1601 -16.2201 6.07205 32.1601 -15.2699 13.252 32.1601 -14.6749 
20.4319 32.1601 -13.8528 27.6118 32.1601 -12.1798 -8.2878 39.3401 -12.2186 
-1.10788 39.3401 -11.9142 -15.4677 -32.7493 -11.8062 -8.2878 -33.287 -11.8062 
-1.10788 -32.8254 -11.8062 -37.0075 -32.4592 -4.8407 -29.8276 -27.9987 -11.8062 
-29.8276 -32.4592 -8.31043 -17.4231 -32.4592 -11.8062 -22.6477 -31.3762 -11.8062 
-22.6477 -32.4592 -11.0345 1.7318 -32.4592 -11.8062 6.07205 -31.5958 -11.8062 
6.07205 -32.4592 -11.2723 13.252 -30.288 -11.8062 13.252 -32.4592 -10.2104 
20.4319 -29.3644 -11.8062 20.4319 -32.4592 -8.53636 27.6118 -26.9461 -11.8062 
27.6118 -32.4592 -5.16102 -44.1875 -25.2793 -7.74443 -36.5627 -25.2793 -11.8062 
-37.0075 -24.9751 -11.8062 -37.0075 -25.2793 -11.692 33.0822 -25.2793 -11.8062 
34.7918 -24.675 -11.8062 34.7918 -25.2793 -11.2816 41.9717 -21.5385 -11.8062 
41.9717 -25.2793 -7.52998 -51.3674 -18.0994 -7.35774 -43.9605 -18.0994 -11.8062 
-44.1875 -17.871 -11.8062 -44.1875 -18.0994 -11.7314 47.6744 -18.0994 -11.8062 
49.1516 -16.8042 -11.8062 49.1516 -18.0994 -10.852 -50.112 -10.9194 -11.8062 
-51.3674 -10.9194 -11.0922 53.58 -10.9194 -11.8062 56.3316 -3.83491 -11.8062 
56.3316 -10.9194 -9.34934 -49.9865 -3.7395 -11.8062 -51.3674 -3.7395 -10.8197 
56.3579 -3.7395 -11.8062 -50.4591 3.44043 -11.8062 -51.3674 3.44043 -11.2694 
56.3578 3.44043 -11.8062 56.3316 3.61142 -11.8062 -49.7823 10.6204 -11.8062 
-51.3674 10.6204 -10.3063 54.9764 10.6204 -11.8062 56.3316 10.6204 -9.44238 
-46.9048 17.8003 -11.8062 -51.3674 17.8003 -6.59591 -44.1875 20.8606 -11.8062 
41.9717 24.9383 -11.8062 50.0889 17.8003 -11.8062 49.1516 18.765 -11.8062 
-40.513 24.9802 -11.8062 -44.1875 24.9802 -7.31799 -37.0075 27.8398 -11.8062 
41.9123 24.9802 -11.8062 34.7918 28.9125 -11.8062 41.9717 24.9802 -11.7039 
-30.7682 32.1601 -11.8062 -29.8276 32.7206 -11.8062 -22.6477 35.8473 -11.8062 
-15.4677 38.4972 -11.8062 6.07205 37.8931 -11.8062 13.252 36.231 -11.8062 
20.4319 34.2765 -11.8062 28.4409 32.1601 -11.8062 27.6118 32.5124 -11.8062 
-10.8386 39.3401 -11.8062 -15.4677 39.3401 -10.1397 -8.2878 39.6919 -11.8062 
-0.439116 39.3401 -11.8062 -1.10788 39.4297 -11.8062 6.07205 39.3401 -9.11656 
13.252 39.3401 -4.74909 -37.0075 -32.5907 -4.62632 -29.8276 -35.0072 -4.62632 
-22.6477 -37.228 -4.62632 -15.4677 -38.7002 -4.62632 -8.2878 -39.0644 -4.62632 
-1.10788 -38.4903 -4.62632 6.07205 -37.4749 -4.62632 13.252 -36.3093 -4.62632 
20.4319 -34.7887 -4.62632 27.6118 -32.765 -4.62632 -37.2536 -32.4592 -4.62632 
-44.1875 -27.596 -4.62632 28.4631 -32.4592 -4.62632 34.7918 -30.0688 -4.62632 
41.9717 -26.8565 -4.62632 -46.9953 -25.2793 -4.62632 -51.3674 -21.2866 -4.62632 
44.9856 -25.2793 -4.62632 49.1516 -22.5753 -4.62632 -53.5324 -18.0994 -4.62632 
55.5668 -18.0994 -4.62632 56.3316 -17.1993 -4.62632 -56.3264 -10.9194 -4.62632 
59.1914 -10.9194 -4.62632 -57.5361 -3.7395 -4.62632 -58.5473 -3.7395 0.353323 
61.363 -3.7395 -4.62632 -57.5244 3.44043 -4.62632 60.9125 3.44043 -4.62632 
-55.8706 10.6204 -4.62632 58.1962 10.6204 -4.62632 56.3316 13.8166 -4.62632 
-52.428 17.8003 -4.62632 -51.3674 19.2135 -4.62632 53.3579 17.8003 -4.62632 
49.1516 21.6202 -4.62632 -45.9226 24.9802 -4.62632 -44.1875 26.6605 -4.62632 
-37.0075 31.4 -4.62632 34.7918 31.6906 -4.62632 44.7288 24.9802 -4.62632 
41.9717 26.8529 -4.62632 41.9717 24.9802 1.01619 -35.8102 32.1601 -4.62632 
-29.8276 35.5812 -4.62632 -22.6477 39.0708 -4.62632 20.4319 37.333 -4.62632 
33.708 32.1601 -4.62632 27.6118 34.6276 -4.62632 27.6118 32.1601 2.11122 
-21.8138 39.3401 -4.62632 -15.4677 41.2486 -4.62632 -15.4677 39.3401 1.74147 
-8.2878 42.0283 -4.62632 -1.10788 41.5911 -4.62632 -1.10788 39.3401 0.63208 
6.07205 40.6824 -4.62632 6.07205 39.3401 -1.5873 13.397 39.3401 -4.62632 
13.252 39.3786 -4.62632 13.252 39.3401 -4.53187 -37.0075 -33.7794 2.55361 
-29.8276 -36.043 2.55361 -22.6477 -38.0166 2.55361 -15.4677 -39.371 2.55361 
-8.2878 -39.6188 2.55361 -1.10788 -38.754 2.55361 6.07205 -37.4816 2.55361 
13.252 -36.4969 2.55361 20.4319 -35.3149 2.55361 27.6118 -33.5466 2.55361 
-39.4881 -32.4592 2.55361 -44.1875 -29.8735 2.55361 -37.0075 -32.4592 6.65375 
13.252 -32.4592 9.66972 20.4319 -32.4592 8.56576 30.6816 -32.4592 2.55361 
27.6118 -32.4592 5.58231 34.7918 -31.004 2.55361 41.9717 -27.8242 2.55361 
-49.9845 -25.2793 2.55361 -51.3674 -23.7289 2.55361 46.8018 -25.2793 2.55361 
49.1516 -23.8288 2.55361 -55.1421 -18.0994 2.55361 55.7014 -18.0994 2.55361 
56.3316 -17.228 2.55361 -57.8932 -10.9194 2.55361 -58.5473 -6.24604 2.55361 
59.6449 -10.9194 2.55361 -58.9025 -3.7395 2.55361 -58.5473 -0.0627728 2.55361 
-58.5473 -3.7395 3.49931 61.1338 -3.7395 2.55361 -58.2046 3.44043 2.55361 
60.5883 3.44043 2.55361 -56.5126 10.6204 2.55361 56.7601 10.6204 2.55361 
56.3316 11.3519 2.55361 56.3316 10.6204 3.25195 -52.4062 17.8003 2.55361 
-51.3674 19.1157 2.55361 -51.3674 17.8003 4.68056 41.9717 24.3896 2.55361 
50.7659 17.8003 2.55361 49.1516 19.0869 2.55361 49.1516 17.8003 4.23322 
-45.4453 24.9802 2.55361 -44.1875 26.1521 2.55361 -44.1875 24.9802 4.58444 
-37.0075 30.5625 2.55361 27.6118 31.9769 2.55361 41.068 24.9802 2.55361 
34.7918 28.6483 2.55361 34.7918 24.9802 7.4923 -34.0132 32.1601 2.55361 
-29.8276 34.2523 2.55361 -29.8276 32.1601 6.49919 -22.6477 37.117 2.55361 
-22.6477 32.1601 9.54499 -15.4677 39.0508 2.55361 -1.10788 38.2744 2.55361 
-1.10788 32.1601 8.53533 6.07205 37.0505 2.55361 6.07205 32.1601 7.58639 
13.252 35.9996 2.55361 13.252 32.1601 7.22514 27.1658 32.1601 2.55361 
20.4319 34.5943 2.55361 20.4319 32.1601 6.0484 -8.31575 39.3401 2.55361 
-8.27967 39.3401 2.55361 -8.2878 39.3411 2.55361 -8.2878 39.3401 2.55512 
-29.8276 -33.2884 9.73354 -22.6477 -34.9042 9.73354 -15.4677 -35.6229 9.73354 
-8.2878 -35.1442 9.73354 -1.10788 -34.044 9.73354 6.07205 -33.0126 9.73354 
-44.1875 -27.361 9.73354 -32.9835 -32.4592 9.73354 -37.0075 -31.1997 9.73354 
-29.8276 -32.4592 10.7474 -22.6477 -32.4592 12.1634 -15.4677 -32.4592 12.6705 
-8.2878 -32.4592 12.0558 -1.10788 -32.4592 10.9787 12.676 -32.4592 9.73354 
6.07205 -32.4592 10.213 13.252 -32.3972 9.73354 20.4319 -31.6711 9.73354 
27.6118 -30.5305 9.73354 34.7918 -28.3748 9.73354 41.9717 -25.6277 9.73354 
-46.7643 -25.2793 9.73354 -51.3674 -19.784 9.73354 -44.1875 -25.2793 11.9625 
-37.0075 -25.2793 14.7884 -29.8276 -25.2793 16.5675 -22.6477 -25.2793 16.3741 
-15.4677 -25.2793 16.1462 -8.2878 -25.2793 14.9894 -1.10788 -25.2793 14.0235 
6.07205 -25.2793 13.7165 13.252 -25.2793 14.1743 20.4319 -25.2793 14.4597 
27.6118 -25.2793 14.6082 34.7918 -25.2793 12.9938 42.605 -25.2793 9.73354 
41.9717 -25.2793 10.2027 49.1516 -20.8487 9.73354 -52.4595 -18.0994 9.73354 
-51.3674 -18.0994 10.9155 -44.1875 -18.0994 15.291 -8.2878 -18.0994 16.6965 
-1.10788 -18.0994 15.3453 6.07205 -18.0994 15.024 13.252 -18.0994 15.7016 
20.4319 -18.0994 16.7323 41.9717 -18.0994 15.76 52.3279 -18.0994 9.73354 
49.1516 -18.0994 12.3932 56.3316 -11.2303 9.73354 -54.7796 -10.9194 9.73354 
-51.3674 -10.9194 13.4532 -44.1875 -10.9194 16.8335 6.07205 -10.9194 16.4563 
[...]
POINT_DATA 550
SCALARS ImageScalars float
LOOKUP_TABLE default
0 0 0 0 0 0 0 0 0 
0 0 0 0 0 0 0 0 0 
0 0 0 0 0 0 0 0 0 
0 0 0 0 0 0 0 0 0 
0 0 0 0 0 0 0 0 0 
0 0 0 0 0 0 0 0 0 
0 0 0 0 0 0 0 0 0 
0 0 0 0 0 0 0 0 0 
0 0 0 0 0 0 0 0 0 
0 0 0 0 0 0 0 0 0 
0 0 0 0 0 0 0 0 0 
0 0 0 0 0 0 0 0 0 
0 0 0 0 0 0 0 0 0 
0 0 0 0 0 0 0 0 0 
0 0 0 0 0 0 0 0 0 
0 0 0 0 0 0 0 0 0 
0 0 0 0 0 0 0 0 0 
0 0 0 0 0 0 0 0 0 
0 0 0 0 0 0 0 0 0 
0 0 0 0 0 0 0 0 0 
0 0 0 0 0 0 0 0 0 
0 0 0 0 0 0 0 0 0 
0 0 0 0 0 0 0 0 0 
0 0 0 0 0 0 0 0 0 
0 0 0 0 0 0 0 0 0 
0 0 0 0 0 0 0 0 0 
0 0 0 0 0 0 0 0 0 
0 0 0 0 0 0 0 0 0 
0 0 0 0 0 0 0 0 0 
0 0 0 0 0 0 0 0 0 
0 0 0 0 0 0 0 0 0 
0 0 0 0 0 0 0 0 0 
0 0 0 0 0 0 0 0 0 
0 0 0 0 0 0 0 0 0 
0 0 0 0 0 0 0 0 0 
0 0 0 0 0 0 0 0 0 
0 0 0 0 0 0 0 0 0 
0 0 0 0 0 0 0 0 0 
0 0 0 0 0 0 0 0 0 
0 0 0 0 0 0 0 0 0 
0 0 0 0 0 0 0 0 0 
0 0 0 0 0 0 0 0 0 
0 0 0 0 0 0 0 0 0 
0 0 0 0 0 0 0 0 0 
0 0 0 0 0 0 0 0 0 
0 0 0 0 0 0 0 0 0 
0 0 0 0 0 0 0 0 0 
0 0 0 0 0 0 0 0 0 
0 0 0 0 0 0 0 0 0 
0 0 0 0 0 0 0 0 0 
0 0 0 0 0 0 0 0 0 
0 0 0 0 0 0 0 0 0 
0 0 0 0 0 0 0 0 0 
0 0 0 0 0 0 0 0 0 
0 0 0 0 0 0 0 0 0 
0 0 0 0 0 0 0 0 0 
0 0 0 0 0 0 0 0 0 
0 0 0 0 0 0 0 0 0 
0 0 0 0 0 0 0 0 0 
0 0 0 0 0 0 0 0 0 
0 0 0 0 0 0 0 0 0 
0 
NORMALS Normals float
-0.0763293 -0.552555 -0.829974 -0.00088214 -0.524612 -0.851341 0.0643563 -0.517569 -0.853218 
-0.186336 -0.381153 -0.905539 -0.115341 -0.293504 -0.948974 -0.0325502 -0.222235 -0.97445 
0.0371833 -0.191428 -0.980802 0.0450625 -0.200533 -0.97865 0.0132317 -0.214566 -0.97662 
0.0167275 -0.305223 -0.952134 0.0732206 -0.37558 -0.923893 0.182537 -0.520504 -0.83412 
-0.229948 -0.223232 -0.947255 -0.1277 -0.149581 -0.980468 -0.0328753 -0.0632585 -0.997456 
0.0331388 0.00520577 -0.999437 0.0337065 -0.0161023 -0.999302 0.0284001 -0.0442467 -0.998617 
-0.0260999 -0.0797141 -0.996476 -0.0565599 -0.114432 -0.99182 -0.0313041 -0.171354 -0.984712 
0.00262545 -0.260607 -0.965441 0.139941 -0.363674 -0.920955 0.277742 -0.436035 -0.855998 
-0.275465 -0.196594 -0.940994 -0.146314 -0.149746 -0.977839 -0.00276282 -0.0750451 -0.997176 
0.0441285 0.0186049 -0.998853 0.0135429 0.0802475 -0.996683 -0.0103832 -0.123155 -0.992333 
-0.0207605 0.0270413 -0.999419 -0.0664247 -0.196547 -0.978242 -0.0723221 -0.104863 -0.991853 
-0.0820033 -0.0690227 -0.994239 -0.0455818 -0.126572 -0.99091 0.0444506 -0.187076 -0.981339 
0.152426 -0.276605 -0.948818 0.401578 -0.337892 -0.851213 -0.308897 -0.0743778 -0.948183 
-0.111158 -0.0647425 -0.991692 0.026542 -0.0666221 -0.997425 0.124633 -0.0453456 -0.991166 
-0.104738 -0.00165656 -0.994498 -0.0415466 -0.0481552 -0.997975 -0.0406425 0.0672192 -0.99691 
-0.152758 -0.186811 -0.970447 0.0810997 -0.0122405 -0.996631 -0.0554819 -0.0067132 -0.998437 
-0.123903 -0.0569544 -0.990658 0.000320403 -0.107426 -0.994213 0.159123 -0.107861 -0.981349 
0.337707 -0.105356 -0.935337 0.692782 -0.0969368 -0.714602 -0.307035 -0.0369846 -0.950979 
-0.120347 -0.0592896 -0.99096 0.0158712 -0.103281 -0.994526 0.112431 -0.108246 -0.987746 
0.0315811 -0.107288 -0.993726 0.0430755 0.115455 -0.992378 -0.160949 -0.143371 -0.976494 
-0.118597 0.121245 -0.985512 0.0876145 0.0930561 -0.991799 -0.131397 -0.00410805 -0.991321 
-0.148041 -0.015021 -0.988867 -0.00848769 0.00771974 -0.999934 0.157276 -0.0367091 -0.986872 
0.350441 0.0603669 -0.934637 0.740469 0.0579731 -0.669585 -0.373929 0.0805466 -0.923953 
-0.171717 -0.0173197 -0.984994 -0.036321 -0.0520894 -0.997982 0.110888 -0.0907237 -0.989683 
0.104124 -0.161379 -0.981384 -0.0330222 -0.104252 -0.994003 -0.0536634 -0.172848 -0.983486 
0.0575064 0.122124 -0.990848 -0.0363885 -0.013286 -0.999249 -0.158734 -0.037292 -0.986617 
-0.114356 -0.0228292 -0.993177 -0.0255076 0.0971108 -0.994947 0.201094 0.116728 -0.972592 
0.441946 0.220353 -0.869556 -0.463021 0.3566 -0.811448 -0.250684 0.187661 -0.949706 
-0.0534131 0.071763 -0.995991 0.00309929 -0.0161998 -0.999864 0.0222088 -0.100114 -0.994728 
0.0168561 -0.162197 -0.986614 0.0625854 -0.0681643 -0.995709 0.0506961 -0.019921 -0.998515 
-0.071228 -0.0308511 -0.996983 -0.142272 0.00527617 -0.989814 -0.0141608 0.138425 -0.990272 
0.141644 0.21043 -0.967293 0.272681 0.394655 -0.877435 0.593822 0.538857 -0.597502 
-0.408554 0.47358 -0.78026 -0.232909 0.296433 -0.926219 -0.0656611 0.148159 -0.986781 
-0.0376003 0.0755014 -0.996437 0.00457771 0.0333374 -0.999434 0.0875202 0.0502458 -0.994895 
0.0941183 0.0617238 -0.993646 -0.00538265 0.115684 -0.993271 0.0027155 0.19878 -0.98004 
0.101881 0.377828 -0.920253 0.279892 0.532329 -0.798928 -0.388437 0.660414 -0.642627 
-0.245806 0.510725 -0.823856 -0.0969387 0.381601 -0.91923 -0.002604 0.3516 -0.936147 
0.0911418 0.350834 -0.931992 0.109365 0.371117 -0.922124 0.0869988 0.438592 -0.894465 
0.165891 0.618428 -0.768133 0.283818 0.759454 -0.585387 -0.0490442 0.785984 -0.616299 
0.0854562 0.800887 -0.592687 -0.0766298 -0.567349 -0.819904 -0.00340414 -0.564033 -0.825745 
0.0672314 -0.536553 -0.841184 -0.400517 -0.838806 -0.368769 -0.221351 -0.500334 -0.83706 
-0.277056 -0.766983 -0.578771 -0.102229 -0.563152 -0.820006 -0.163419 -0.538518 -0.826616 
-0.17925 -0.609037 -0.772621 0.077015 -0.550421 -0.831328 0.0853794 -0.553231 -0.828641 
0.0988258 -0.61849 -0.779553 0.0818723 -0.547276 -0.832938 0.127105 -0.704413 -0.698317 
0.141188 -0.575507 -0.805517 0.208482 -0.811548 -0.545825 0.205548 -0.586124 -0.783715 
0.296254 -0.889857 -0.34697 -0.533709 -0.606096 -0.589748 -0.253012 -0.437151 -0.863067 
-0.256864 -0.43013 -0.865453 -0.260077 -0.443319 -0.857804 0.215364 -0.597694 -0.772257 
0.215868 -0.5997 -0.770559 0.232562 -0.633437 -0.738019 0.327271 -0.580607 -0.745512 
0.409622 -0.798611 -0.440942 -0.681504 -0.42754 -0.593938 -0.366702 -0.287136 -0.884919 
-0.367056 -0.286876 -0.884857 -0.371966 -0.290663 -0.881565 0.417944 -0.537752 -0.73222 
0.448461 -0.526815 -0.722045 0.469506 -0.582727 -0.66332 -0.519643 -0.1786 -0.835508 
-0.589213 -0.172647 -0.789317 0.570243 -0.340631 -0.747525 0.692724 -0.0994863 -0.714308 
0.734599 -0.337509 -0.588601 -0.543502 -0.0118196 -0.839324 -0.610346 -0.0128621 -0.792031 
0.693419 -0.0968171 -0.714 -0.539056 0.0133366 -0.842165 -0.588562 0.0238148 -0.808101 
0.741126 0.0581883 -0.668839 0.741758 0.0632441 -0.667679 -0.619584 0.131802 -0.773785 
-0.709522 0.177465 -0.681971 0.710214 0.300446 -0.636654 0.831573 0.355823 -0.42647 
-0.554499 0.388157 -0.736115 -0.787191 0.503694 -0.355839 -0.525673 0.470812 -0.708523 
0.499525 0.693043 -0.519775 0.625653 0.560527 -0.542557 0.610979 0.584591 -0.533815 
-0.513656 0.539614 -0.667064 -0.648797 0.673189 -0.354794 -0.457501 0.614878 -0.642353 
0.498962 0.693658 -0.519496 0.382231 0.729817 -0.566804 0.502069 0.698068 -0.510517 
-0.40636 0.682424 -0.607593 -0.398436 0.687348 -0.607291 -0.322831 0.712604 -0.622877 
-0.190706 0.775502 -0.601854 0.157513 0.74394 -0.649418 0.178832 0.713341 -0.677616 
0.224509 0.737869 -0.63651 0.298573 0.77531 -0.55655 0.288402 0.778299 -0.557741 
-0.103141 0.803756 -0.58595 -0.203273 0.871256 -0.446759 -0.0484835 0.808404 -0.586628 
0.0935246 0.804597 -0.58641 0.085614 0.807031 -0.58427 0.176082 0.922679 -0.343013 
0.226491 0.973294 0.0374245 -0.401621 -0.843766 -0.356033 -0.295364 -0.885526 -0.358614 
-0.239722 -0.917626 -0.31701 -0.11883 -0.936256 -0.330613 0.0147865 -0.949454 -0.313559 
0.105574 -0.95075 -0.291424 0.148125 -0.948527 -0.279921 0.181022 -0.941395 -0.284618 
0.232722 -0.927983 -0.291013 0.299851 -0.900306 -0.315498 -0.407291 -0.841057 -0.356 
-0.563632 -0.723443 -0.398685 0.30736 -0.899077 -0.311755 0.363163 -0.879286 -0.30817 
0.430537 -0.853566 -0.293365 -0.599111 -0.681046 -0.421002 -0.710943 -0.548474 -0.440155 
0.48157 -0.823208 -0.300698 0.55452 -0.768004 -0.320433 -0.792585 -0.424772 -0.437468 
0.697133 -0.658499 -0.28352 0.732798 -0.619629 -0.281188 -0.861174 -0.25535 -0.439518 
0.885269 -0.364636 -0.288684 -0.900385 -0.0665911 -0.429968 -0.998404 -0.035043 -0.0442883 
0.965311 -0.112949 -0.235408 -0.927102 0.108424 -0.358785 0.954151 0.202224 -0.220686 
-0.891993 0.310559 -0.328484 0.895282 0.438616 -0.0780075 0.845985 0.529089 -0.0661371 
-0.815739 0.530734 -0.229981 -0.787673 0.575859 -0.218993 0.737655 0.674152 -0.0371966 
0.661907 0.749546 0.00771104 -0.673316 0.714242 -0.19106 -0.641588 0.744588 -0.184265 
-0.515547 0.848371 -0.120325 0.475734 0.878739 0.038673 0.588599 0.807824 0.0311778 
0.547913 0.835506 0.0414975 0.519617 0.790705 0.323703 -0.501846 0.858059 -0.109018 
-0.454907 0.887631 -0.0719135 -0.376453 0.925811 -0.0340251 0.303922 0.952579 0.0150225 
0.457934 0.888039 0.0410249 0.362248 0.931896 0.0185973 0.368465 0.822226 0.433796 
-0.356731 0.933736 -0.0296791 -0.199147 0.97975 -0.0207324 -0.147995 0.906692 0.394978 
-0.023271 0.999231 0.0315559 0.0938184 0.994602 0.0443344 0.125184 0.887907 0.442663 
0.155907 0.985871 0.061249 0.157699 0.944917 0.286815 0.227614 0.972614 0.0470575 
0.225999 0.972994 0.0469813 0.225743 0.972727 0.0533226 -0.393774 -0.91673 0.0674374 
-0.275431 -0.956745 0.0936843 -0.216087 -0.969074 0.119174 -0.114699 -0.979393 0.166231 
0.040731 -0.981329 0.187976 0.14466 -0.969594 0.197387 0.154167 -0.960005 0.233716 
0.146982 -0.966561 0.210133 0.204715 -0.964462 0.167049 0.285765 -0.951332 0.115349 
-0.441772 -0.894709 0.0658349 -0.540296 -0.840818 0.0332544 -0.37847 -0.870168 0.315546 
0.0692291 -0.704065 0.706753 0.122591 -0.82049 0.558361 0.314325 -0.943661 0.103457 
0.256745 -0.923594 0.284702 0.355458 -0.930554 0.0878539 0.447284 -0.891688 0.0694918 
-0.700247 -0.713256 0.0303304 -0.755302 -0.653744 0.0462422 0.527498 -0.846027 0.0773641 
0.583862 -0.807765 0.0813648 -0.889114 -0.45426 0.0558991 0.753978 -0.642215 0.13812 
0.784354 -0.602465 0.14773 -0.96831 -0.23725 0.0780224 -0.990523 -0.0976525 0.0965817 
0.93056 -0.331563 0.155321 -0.994208 -0.0227233 0.105043 -0.989834 0.0647174 0.126646 
-0.985937 -0.0189024 0.166042 0.973338 -0.0567488 0.222245 -0.977484 0.150592 0.147808 
0.930187 0.264134 0.254921 -0.913631 0.369448 0.169667 0.788608 0.512728 0.339421 
0.778455 0.522536 0.347798 0.771263 0.519055 0.368422 -0.795216 0.571381 0.202866 
-0.766703 0.607753 0.206891 -0.757626 0.571559 0.315157 0.501287 0.760944 0.411917 
0.611036 0.677811 0.40891 0.566863 0.710512 0.41694 0.556076 0.683703 0.472578 
-0.631792 0.739839 0.23125 -0.607597 0.758535 0.23548 -0.604395 0.723746 0.333013 
-0.45622 0.849456 0.265117 0.365881 0.80872 0.460547 0.492613 0.766458 0.412158 
0.422963 0.779742 0.461633 0.368186 0.679733 0.634352 -0.42164 0.859541 0.288806 
-0.385042 0.868368 0.312538 -0.33914 0.811427 0.475993 -0.297394 0.869123 0.395199 
-0.15725 0.695529 0.70108 -0.137328 0.882236 0.450333 0.131985 0.797518 0.588681 
0.129966 0.571181 0.81047 0.13141 0.791372 0.597044 0.0701497 0.636186 0.76834 
0.14873 0.827 0.542172 0.070834 0.719661 0.690703 0.358116 0.812607 0.459807 
0.224188 0.854643 0.468322 0.201775 0.785209 0.585435 0.0400933 0.868413 0.494218 
0.0408613 0.868242 0.494456 0.0407564 0.868301 0.494361 0.040773 0.868267 0.494418 
-0.208402 -0.812962 0.543747 -0.137966 -0.782129 0.607651 -0.0166469 -0.754982 0.655534 
0.0798476 -0.698089 0.711545 0.115042 -0.642881 0.757277 0.0827459 -0.649876 0.755523 
-0.500673 -0.706744 0.499839 -0.267777 -0.804261 0.530528 -0.338818 -0.777623 0.529627 
-0.195419 -0.78159 0.592392 -0.101294 -0.670064 0.73536 0.00733363 -0.589389 0.807816 
0.101633 -0.549734 0.829134 0.113439 -0.555672 0.823626 0.069173 -0.695716 0.714979 
0.0767706 -0.621109 0.779955 0.0674814 -0.698998 0.711932 0.0938134 -0.75457 0.649479 
0.184644 -0.800037 0.570831 0.285493 -0.795703 0.534182 0.398006 -0.793066 0.461127 
-0.573548 -0.640492 0.510698 -0.715572 -0.442486 0.540521 -0.477259 -0.596779 0.645041 
-0.256803 -0.523517 0.812393 -0.0886571 -0.40869 0.908357 0.025865 -0.368336 0.929333 
0.0945938 -0.300881 0.948959 0.138931 -0.277088 0.950747 0.0851762 -0.260875 0.961608 
-0.00794863 -0.297635 0.954647 -0.0480572 -0.360938 0.931351 -0.0273179 -0.441321 0.896933 
0.0785681 -0.531077 0.843673 0.223931 -0.659311 0.71775 0.410836 -0.785943 0.462068 
0.393649 -0.780741 0.485268 0.557493 -0.653116 0.512484 -0.747199 -0.39169 0.53691 
-0.690826 -0.391587 0.607798 -0.415188 -0.26578 0.870046 0.150359 -0.225444 0.962584 
0.109916 -0.219685 0.969359 -0.0261103 -0.177864 0.983709 -0.113004 -0.163293 0.980084 
-0.138045 -0.247747 0.958939 0.279522 -0.433299 0.856808 0.638485 -0.56388 0.52381 
0.520431 -0.528506 0.670696 0.764808 -0.267129 0.586269 -0.778493 -0.171025 0.603903 
-0.61382 -0.156785 0.773721 -0.282389 -0.125918 0.951 0.0412358 -0.289377 0.956327 
-0.118514 -0.195016 0.973613 0.484517 -0.173705 0.857362 0.767929 -0.25415 0.587956 
0.762815 -0.253254 0.594959 -0.770566 0.0151476 0.63718 -0.58712 0.0343162 0.808773 
1.5529e-05 -0.0350689 0.999385 0.435162 0.0192595 0.900146 0.780105 -0.00942745 0.625578 
0.720983 -0.00444782 0.692939 -0.748192 0.141549 0.648207 -0.614545 0.131649 0.777819 
-0.313479 0.116509 0.94242 0.461115 0.261811 0.847837 0.705587 0.294321 0.644611 
0.69368 0.317024 0.646764 0.691418 0.294699 0.659617 -0.730818 0.324124 0.600708 
-0.693414 0.393827 0.603388 -0.653118 0.313327 0.689393 -0.370732 0.21172 0.904285 
0.193066 0.302383 0.933429 0.0345252 0.0966597 0.994718 -0.0860083 0.168301 0.981976 
-0.00699497 0.261381 0.96521 0.152036 0.352768 0.923276 0.279142 0.451021 0.847738 
0.542841 0.519015 0.660263 0.513641 0.536795 0.669346 0.496436 0.506597 0.704919 
-0.609886 0.5226 0.595759 -0.545356 0.586976 0.598369 -0.493064 0.464955 0.735326 
-0.241385 0.368909 0.897574 0.102027 0.214047 0.97148 0.125918 0.289156 0.948964 
0.04759 0.374732 0.925911 -0.0691166 0.272439 0.959687 -0.00164602 0.148162 0.988962 
0.0890761 0.222592 0.970834 0.144768 0.380381 0.913429 0.327854 0.594902 0.733896 
0.257538 0.476193 0.840782 0.396117 0.591125 0.702611 0.39445 0.591381 0.703333 
0.391885 0.589123 0.706654 -0.444784 0.665785 0.599081 -0.381212 0.702691 0.600751 
-0.362793 0.64439 0.673159 -0.270217 0.714209 0.645669 -0.189478 0.528263 0.827669 
-0.152076 0.686706 0.71085 -0.0541627 0.449752 0.89151 0.0757204 0.375911 0.923557 
0.144954 0.356113 0.923131 0.118172 0.503117 0.856101 0.081287 0.375705 0.923167 
0.0206459 0.541573 0.8404 -0.035798 0.445977 0.894328 0.0194511 0.618993 0.785156 
-0.0169837 0.485759 0.873928 0.151458 0.641298 0.752195 0.136099 0.493102 0.85926 
0.295624 0.608269 0.736624 0.273996 0.612333 0.741602 0.262273 0.575063 0.774929 
-0.13428 0.680107 0.720711 -0.0292272 0.634098 0.7727 -0.0183017 0.60506 0.79597 
0.114212 0.55022 0.827172 0.10973 0.560155 0.821088 0.111352 0.548753 0.828535 
-0.224217 -0.326121 0.918353 -0.0740367 -0.365718 0.927776 0.0394881 -0.307829 0.950622 
0.103549 -0.219546 0.970091 -0.019717 -0.341472 0.939685 0.126556 -0.400766 0.907397 
-0.29702 -0.228919 0.927025 -0.202696 -0.202393 0.958098 -0.0196188 -0.156926 0.987415 
0.0677485 -0.151752 0.986094 0.140604 -0.20801 0.967968 0.110675 -0.151365 0.982263 
0.140979 -0.218807 0.96553 0.127598 -0.132573 0.982926 -0.122335 -0.255577 0.959017 
-0.142241 -0.232268 0.962195 -0.0468856 -0.287151 0.956737 0.166892 -0.386091 0.907238 
0.117395 -0.369236 0.921891 0.26064 -0.318529 0.911376 -0.273769 -0.120815 0.954177 
-0.281595 -0.0866925 0.955609 -0.128437 -0.0292477 0.991286 -0.0256458 -0.014819 0.999561 
0.0312535 -0.00620217 0.999492 0.0268821 -0.0498938 0.998393 0.0689286 -0.168631 0.983266 
0.087583 -0.199793 0.975916 0.0248686 -0.0489899 0.99849 0.129024 -0.10687 0.985866 
0.0160714 -0.28015 0.959822 -0.123467 -0.187137 0.974544 -0.103059 -0.181047 0.97806 
-0.160739 -0.113722 0.980423 -0.0847009 -0.109224 0.990402 0.0516724 -0.152108 0.987012 
0.365714 -0.165739 0.915851 0.245914 -0.172551 0.953809 -0.301904 0.0179411 0.953169 
-0.292414 0.0561989 0.954639 -0.282185 0.0161125 0.959225 -0.105895 0.00899208 0.994337 
0.00475556 0.0123593 0.999912 0.0326198 0.0222169 0.999221 -0.0481677 -0.00147055 0.998838 
0.00424195 -0.0372331 0.999298 0.0939482 -0.073028 0.992895 -0.00562552 -0.0427778 0.999069 
0.000153244 -0.0427996 0.999084 -0.123088 -0.197066 0.972633 0.059728 -0.0475041 0.997084 
-0.0530308 0.0446922 0.997592 -0.0871989 0.0537178 0.994742 0.0454968 0.0595589 0.997187 
0.366931 0.0221029 0.929986 0.262772 0.0292034 0.964416 -0.276954 0.109067 0.954673 
-0.132693 0.072571 0.988497 -0.0125713 0.0385897 0.999176 0.0169185 0.00551556 0.999842 
-0.0689809 0.0251274 0.997301 0.0254244 0.0646603 0.997583 0.00407987 -0.113386 0.993543 
0.183186 0.294964 0.937784 0.0354347 0.17681 0.983607 0.121217 0.204077 0.971421 
0.135247 0.225033 0.964919 -0.0832984 0.173935 0.981228 -0.0732747 0.172953 0.982201 
-0.0091153 0.25812 0.96607 -0.063042 0.17577 0.982411 0.10187 0.317587 0.942741 
0.0237459 0.25363 0.96701 0.315835 0.259037 0.91277 0.225448 0.333588 0.915365 
0.207688 0.264587 0.941732 -0.223943 0.163564 0.960779 -0.197722 0.215689 0.956234 
-0.181669 0.15004 0.971846 -0.0617699 0.107037 0.992334 0.0189564 0.0807392 0.996555 
0.0798398 0.189449 0.978639 0.0174934 0.127053 0.991742 0.0453974 0.27698 0.959803 
-0.0313844 0.263761 0.964077 0.182427 0.294567 0.938057 0.0803211 0.296016 0.9518 
0.0967995 0.227203 0.969025 -0.101998 0.28682 0.952539 -0.0924946 0.287228 0.953386 
-0.0884758 0.279348 0.956105 0.0620312 0.225905 0.972172 0.0258155 0.25738 0.965965 
0.0353373 0.23394 0.971609 
