# vtk DataFile Version 4.2
vtk output
ASCII
DATASET POLYDATA
POINTS 542 float
-18.7786 -39.6711 -9.62263 -11.1311 -39.6711 -10.3551 -3.48359 -39.6711 -10.6476 
4.16393 -39.6711 -10.6504 11.8115 -39.6711 -10.1369 19.459 -39.6711 -10.4185 
27.1065 -39.6711 -9.12439 -34.0737 -32.0235 -10.1519 -26.4262 -32.0235 -12.3348 
-18.7786 -32.0235 -12.8075 -11.1311 -32.0235 -13.1165 -3.48359 -32.0235 -13.379 
4.16393 -32.0235 -13.4409 11.8115 -32.0235 -13.7559 19.459 -32.0235 -13.2716 
27.1065 -32.0235 -13.1898 34.754 -32.0235 -12.663 42.4015 -32.0235 -11.8073 
-41.7212 -24.376 -9.8875 -34.0737 -24.376 -12.9141 -26.4262 -24.376 -13.836 
-18.7786 -24.376 -14.1213 -11.1311 -24.376 -13.9333 -3.48359 -24.376 -13.4336 
4.16393 -24.376 -14.5496 11.8115 -24.376 -15.1769 19.459 -24.376 -14.7724 
27.1065 -24.376 -15.2617 34.754 -24.376 -14.4234 42.4015 -24.376 -14.9779 
50.0491 -24.376 -12.3065 -41.7212 -16.7285 -10.8504 -34.0737 -16.7285 -13.1065 
-26.4262 -16.7285 -14.2677 -18.7786 -16.7285 -14.3645 -11.1311 -16.7285 -13.5944 
-3.48359 -16.7285 -12.8133 4.16393 -16.7285 -15.2494 11.8115 -16.7285 -15.2933 
19.459 -16.7285 -14.7964 27.1065 -16.7285 -15.1861 34.754 -16.7285 -15.7719 
42.4015 -16.7285 -14.6074 50.0491 -16.7285 -13.9387 57.6966 -16.7285 -12.1337 
-49.3687 -9.08099 -9.28985 -41.7212 -9.08099 -11.7929 -34.0737 -9.08099 -13.0059 
-26.4262 -9.08099 -13.7822 -18.7786 -9.08099 -14.3795 -11.1311 -9.08099 -13.724 
-3.48359 -9.08099 -14.7369 4.16393 -9.08099 -15.1756 11.8115 -9.08099 -14.1313 
19.459 -9.08099 -14.3733 27.1065 -9.08099 -15.2444 34.754 -9.08099 -15.407 
42.4015 -9.08099 -15.1296 50.0491 -9.08099 -14.767 57.6966 -9.08099 -11.5204 
-49.3687 -1.43347 -10.0776 -41.7212 -1.43347 -11.6226 -34.0737 -1.43347 -12.3823 
-26.4262 -1.43347 -12.7686 -18.7786 -1.43347 -13.3685 -11.1311 -1.43347 -14.909 
-3.48359 -1.43347 -13.1753 4.16393 -1.43347 -11.8809 11.8115 -1.43347 -15.8342 
19.459 -1.43347 -14.0509 27.1065 -1.43347 -14.7167 34.754 -1.43347 -15.1459 
42.4015 -1.43347 -14.999 50.0491 -1.43347 -14.8459 57.6966 -1.43347 -11.391 
-49.3687 6.21406 -10.3809 -41.7212 6.21406 -11.6321 -34.0737 6.21406 -12.2089 
-26.4262 6.21406 -12.5485 -18.7786 6.21406 -12.4909 -11.1311 6.21406 -13.4804 
-3.48359 6.21406 -14.1405 4.16393 6.21406 -13.4162 11.8115 6.21406 -12.9648 
19.459 6.21406 -13.2989 27.1065 6.21406 -14.3431 34.754 6.21406 -15.2372 
42.4015 6.21406 -14.6764 50.0491 6.21406 -14.3167 57.6966 6.21406 -10.9846 
-49.3687 13.8616 -10.8131 -41.7212 13.8616 -11.7675 -34.0737 13.8616 -12.4683 
-26.4262 13.8616 -12.9733 -18.7786 13.8616 -12.9629 -11.1311 13.8616 -12.6933 
-3.48359 13.8616 -13.1001 4.16393 13.8616 -13.48 11.8115 13.8616 -12.9443 
19.459 13.8616 -13.2275 27.1065 13.8616 -14.2082 34.754 13.8616 -14.8159 
42.4015 13.8616 -14.3299 50.0491 13.8616 -12.1314 57.6966 13.8616 -8.96283 
-49.3687 21.5091 -10.4899 -41.7212 21.5091 -10.7813 -34.0737 21.5091 -12.5854 
-26.4262 21.5091 -13.1506 -18.7786 21.5091 -13.1771 -11.1311 21.5091 -13.3406 
-3.48359 21.5091 -13.6487 4.16393 21.5091 -14.6383 11.8115 21.5091 -14.82 
19.459 21.5091 -14.8402 27.1065 21.5091 -15.2511 34.754 21.5091 -14.1143 
42.4015 21.5091 -14.1704 50.0491 21.5091 -11.2296 -34.0737 29.1566 -9.89124 
-26.4262 29.1566 -12.7728 -18.7786 29.1566 -12.4682 -11.1311 29.1566 -13.6522 
-3.48359 29.1566 -14.1689 4.16393 29.1566 -15.0662 11.8115 29.1566 -15.5916 
19.459 29.1566 -15.4035 27.1065 29.1566 -14.6521 34.754 29.1566 -14.7494 
42.4015 29.1566 -12.0242 -18.7786 36.8041 -10.9198 -11.1311 36.8041 -12.3458 
-3.48359 36.8041 -13.5977 4.16393 36.8041 -14.4986 11.8115 36.8041 -14.9791 
19.459 36.8041 -14.3243 27.1065 36.8041 -14.5194 34.754 36.8041 -11.6438 
-11.1311 44.4517 -10.513 -3.48359 44.4517 -11.1839 4.16393 44.4517 -12.043 
11.8115 44.4517 -12.2902 19.459 44.4517 -11.3922 27.1065 44.4517 -8.82233 
-18.7786 -40.8773 -8.67437 -11.1311 -41.7842 -8.67437 -11.1311 -47.3186 -1.11746 
-3.48359 -42.0921 -8.67437 4.16393 -41.9387 -8.67437 11.8115 -41.2092 -8.67437 
19.459 -41.4665 -8.67437 27.1065 -40.125 -8.67437 -34.0737 -34.283 -8.67437 
-34.0737 -39.6711 -2.19678 -24.2049 -39.6711 -8.67437 -26.4262 -38.948 -8.67437 
-26.4262 -39.6711 -8.10373 29.735 -39.6711 -8.67437 34.754 -38.1427 -8.67437 
34.754 -39.6711 -6.70994 42.4015 -35.8639 -8.67437 -36.8776 -32.0235 -8.67437 
-41.7212 -26.902 -8.67437 -41.7212 -32.0235 -4.5735 48.8451 -32.0235 -8.67437 
50.0491 -31.0243 -8.67437 50.0491 -32.0235 -7.18034 -43.7828 -24.376 -8.67437 
-49.3687 -24.376 -3.6924 55.9558 -24.376 -8.67437 57.6966 -20.7134 -8.67437 
57.6966 -24.376 -5.55594 -46.9356 -16.7285 -8.67437 -49.3687 -11.6822 -8.67437 
-49.3687 -16.7285 -7.54584 60.1823 -16.7285 -8.67437 -50.1757 -9.08099 -8.67437 
-57.0162 -9.08099 -3.3529 61.2152 -9.08099 -8.67437 -51.9742 -1.43347 -8.67437 
-57.0162 -1.43347 -5.24476 61.217 -1.43347 -8.67437 -52.6633 6.21406 -8.67437 
-57.0162 6.21406 -6.01928 60.5264 6.21406 -8.67437 -53.4912 13.8616 -8.67437 
-57.0162 13.8616 -6.33018 57.8862 13.8616 -8.67437 57.6966 14.1318 -8.67437 
-52.8719 21.5091 -8.67437 -57.0162 21.5091 -5.45721 -49.3687 23.4438 -8.67437 
-41.7212 28.0411 -8.67437 53.8616 21.5091 -8.67437 50.0491 26.6619 -8.67437 
-49.3687 29.1566 -3.55187 -39.8801 29.1566 -8.67437 -41.7212 29.1566 -8.04262 
-34.0737 31.167 -8.67437 -26.4262 35.5775 -8.67437 47.9594 29.1566 -8.67437 
42.4015 34.8791 -8.67437 50.0491 29.1566 -4.13238 -24.471 36.8041 -8.67437 
-26.4262 36.8041 -5.36685 -18.7786 39.8683 -8.67437 40.1215 36.8041 -8.67437 
34.754 40.6921 -8.67437 42.4015 36.8041 -4.44186 -14.2076 44.4517 -8.67437 
-11.1311 46.4992 -8.67437 -3.48359 47.4678 -8.67437 4.16393 48.062 -8.67437 
11.8115 47.9786 -8.67437 19.459 47.0049 -8.67437 27.4162 44.4517 -8.67437 
27.1065 44.5888 -8.67437 -11.1311 -47.3622 -1.02685 -34.0737 -40.4341 -1.02685 
-26.4262 -44.2407 -1.02685 -11.6436 -47.3186 -1.02685 -18.7786 -46.6774 -1.02685 
-7.09165 -47.3186 -1.02685 -11.1311 -47.3186 -0.789451 -3.48359 -47.2804 -1.02685 
4.16393 -46.7233 -1.02685 11.8115 -45.6173 -1.02685 19.459 -44.6404 -1.02685 
27.1065 -43.1907 -1.02685 34.754 -41.9978 -1.02685 -35.1763 -39.6711 -1.02685 
-41.7212 -34.8443 -1.02685 27.1065 -39.6711 4.69949 40.8955 -39.6711 -1.02685 
34.754 -39.6711 4.64758 42.4015 -39.0361 -1.02685 50.0491 -35.2387 -1.02685 
-45.0124 -32.0235 -1.02685 -49.3687 -27.3162 -1.02685 42.4015 -32.0235 5.84806 
54.157 -32.0235 -1.02685 50.0491 -32.0235 3.48353 57.6966 -27.7808 -1.02685 
-52.2505 -24.376 -1.02685 50.0491 -24.376 5.60355 59.798 -24.376 -1.02685 
57.6966 -24.376 1.68159 -55.922 -16.7285 -1.02685 -57.0162 -14.1623 -1.02685 
61.5247 -16.7285 -1.02685 57.6966 -16.7285 6.51425 -59.8046 -9.08099 -1.02685 
63.7634 -9.08099 -1.02685 -63.248 -1.43347 -1.02685 63.9049 -1.43347 -1.02685 
-62.3286 6.21406 -1.02685 62.8328 6.21406 -1.02685 -63.1559 13.8616 -1.02685 
-64.6638 13.8616 6.536 59.6431 13.8616 -1.02685 57.6966 19.5912 -1.02685 
57.6966 13.8616 2.96358 -60.1346 21.5091 -1.02685 -57.0162 24.5338 -1.02685 
56.9728 21.5091 -1.02685 -52.19 29.1566 -1.02685 -49.3687 31.5191 -1.02685 
-49.3687 29.1566 4.45931 -41.7212 33.0611 -1.02685 -34.0737 34.915 -1.02685 
-26.4262 29.1566 6.13765 -18.7786 29.1566 6.55598 42.4015 29.1566 4.9472 
51.2612 29.1566 -1.02685 50.0491 30.4405 -1.02685 50.0491 29.1566 0.625162 
-28.6289 36.8041 -1.02685 -26.4262 37.7915 -1.02685 -26.4262 36.8041 0.333667 
-18.7786 42.2754 -1.02685 -18.7786 36.8041 3.3991 34.754 42.1102 -1.02685 
34.754 36.8041 4.61769 43.7445 36.8041 -1.02685 42.4015 37.9284 -1.02685 
42.4015 36.8041 0.816803 -16.1586 44.4517 -1.02685 -11.1311 47.9685 -1.02685 
-11.1311 44.4517 2.91796 -3.48359 50.9876 -1.02685 4.16393 51.0473 -1.02685 
11.8115 50.0624 -1.02685 19.459 48.4225 -1.02685 19.459 44.4517 4.80778 
30.9246 44.4517 -1.02685 27.1065 46.3531 -1.02685 27.1065 44.4517 2.5793 
-34.0737 -39.9851 6.62067 -26.4262 -43.6906 6.62067 -18.7786 -45.4665 6.62067 
-11.1311 -45.6902 6.62067 -3.48359 -44.7093 6.62067 4.16393 -42.9722 6.62067 
11.8115 -42.7719 6.62067 19.459 -40.3847 6.62067 -34.5559 -39.6711 6.62067 
-41.7212 -34.6322 6.62067 -34.0737 -39.6711 7.07009 -26.4262 -39.6711 12.1818 
-18.7786 -39.6711 13.0603 -11.1311 -39.6711 12.7883 -3.48359 -39.6711 11.9145 
4.16393 -39.6711 9.75918 11.8115 -39.6711 8.63056 21.6317 -39.6711 6.62067 
19.459 -39.6711 7.1404 27.1065 -37.352 6.62067 34.754 -37.689 6.62067 
-44.9434 -32.0235 6.62067 -49.3687 -27.5525 6.62067 -41.7212 -32.0235 9.9153 
4.16393 -32.0235 13.2748 11.8115 -32.0235 11.7811 19.459 -32.0235 10.9385 
27.1065 -32.0235 9.52184 40.6087 -32.0235 6.62067 34.754 -32.0235 9.7272 
42.4015 -30.7567 6.62067 -52.1158 -24.376 6.62067 -49.3687 -24.376 9.70367 
11.8115 -24.376 12.9691 19.459 -24.376 11.969 27.1065 -24.376 11.4654 
34.754 -24.376 10.4436 48.3195 -24.376 6.62067 42.4015 -24.376 11.1307 
50.0491 -21.4802 6.62067 -56.872 -16.7285 6.62067 -57.0162 -16.4689 6.62067 
11.8115 -16.7285 13.0803 19.459 -16.7285 12.0983 27.1065 -16.7285 11.9163 
34.754 -16.7285 11.6374 42.4015 -16.7285 10.1504 57.5162 -16.7285 6.62067 
50.0491 -16.7285 8.73405 57.6966 -16.564 6.62067 -60.8411 -9.08099 6.62067 
-57.0162 -9.08099 11.5655 -3.48359 -9.08099 13.6978 4.16393 -9.08099 13.6732 
11.8115 -9.08099 13.1078 19.459 -9.08099 12.1489 27.1065 -9.08099 12.1969 
34.754 -9.08099 11.3915 42.4015 -9.08099 10.5584 50.0491 -9.08099 9.6084 
59.6358 -9.08099 6.62067 57.6966 -9.08099 7.98272 -63.3404 -1.43347 6.62067 
-57.0162 -1.43347 13.7424 -11.1311 -1.43347 13.7646 -3.48359 -1.43347 13.173 
4.16393 -1.43347 8.58544 11.8115 -1.43347 14.029 19.459 -1.43347 13.6739 
27.1065 -1.43347 11.7434 34.754 -1.43347 11.4299 42.4015 -1.43347 10.5911 
50.0491 -1.43347 9.82193 59.1411 -1.43347 6.62067 57.6966 -1.43347 7.65452 
-64.1772 6.21406 6.62067 -64.6638 13.6353 6.62067 -11.1311 6.21406 11.8892 
-3.48359 6.21406 10.2345 4.16393 6.21406 10.9024 19.459 6.21406 13.0283 
27.1065 6.21406 11.7595 34.754 6.21406 11.1133 42.4015 6.21406 10.2616 
50.0491 6.21406 9.27894 58.8966 6.21406 6.62067 57.6966 9.85515 6.62067 
[...]
POINT_DATA 542
SCALARS ImageScalars float
LOOKUP_TABLE default
0 0 0 0 0 0 0 0 0 
0 0 0 0 0 0 0 0 0 
0 0 0 0 0 0 0 0 0 
0 0 0 0 0 0 0 0 0 
0 0 0 0 0 0 0 0 0 
0 0 0 0 0 0 0 0 0 
0 0 0 0 0 0 0 0 0 
0 0 0 0 0 0 0 0 0 
0 0 0 0 0 0 0 0 0 
0 0 0 0 0 0 0 0 0 
0 0 0 0 0 0 0 0 0 
0 0 0 0 0 0 0 0 0 
0 0 0 0 0 0 0 0 0 
0 0 0 0 0 0 0 0 0 
0 0 0 0 0 0 0 0 0 
0 0 0 0 0 0 0 0 0 
0 0 0 0 0 0 0 0 0 
0 0 0 0 0 0 0 0 0 
0 0 0 0 0 0 0 0 0 
0 0 0 0 0 0 0 0 0 
0 0 0 0 0 0 0 0 0 
0 0 0 0 0 0 0 0 0 
0 0 0 0 0 0 0 0 0 
0 0 0 0 0 0 0 0 0 
0 0 0 0 0 0 0 0 0 
0 0 0 0 0 0 0 0 0 
0 0 0 0 0 0 0 0 0 
0 0 0 0 0 0 0 0 0 
0 0 0 0 0 0 0 0 0 
0 0 0 0 0 0 0 0 0 
0 0 0 0 0 0 0 0 0 
0 0 0 0 0 0 0 0 0 
0 0 0 0 0 0 0 0 0 
0 0 0 0 0 0 0 0 0 
0 0 0 0 0 0 0 0 0 
0 0 0 0 0 0 0 0 0 
0 0 0 0 0 0 0 0 0 
0 0 0 0 0 0 0 0 0 
0 0 0 0 0 0 0 0 0 
0 0 0 0 0 0 0 0 0 
0 0 0 0 0 0 0 0 0 
0 0 0 0 0 0 0 0 0 
0 0 0 0 0 0 0 0 0 
0 0 0 0 0 0 0 0 0 
0 0 0 0 0 0 0 0 0 
0 0 0 0 0 0 0 0 0 
0 0 0 0 0 0 0 0 0 
0 0 0 0 0 0 0 0 0 
0 0 0 0 0 0 0 0 0 
0 0 0 0 0 0 0 0 0 
0 0 0 0 0 0 0 0 0 
0 0 0 0 0 0 0 0 0 
0 0 0 0 0 0 0 0 0 
0 0 0 0 0 0 0 0 0 
0 0 0 0 0 0 0 0 0 
0 0 0 0 0 0 0 0 0 
0 0 0 0 0 0 0 0 0 
0 0 0 0 0 0 0 0 0 
0 0 0 0 0 0 0 0 0 
0 0 0 0 0 0 0 0 0 
0 0 
NORMALS Normals float
0.119675 0.537818 0.834524 0.0572573 0.506965 0.860063 0.016239 0.511054 0.859395 
-0.0261151 0.547678 0.836281 -0.00973538 0.618808 0.785482 -0.065417 0.609695 0.789932 
-0.156626 0.724598 0.671138 0.343378 0.430353 0.834798 0.168823 0.333874 0.927376 
0.0460435 0.263269 0.963623 0.0363193 0.203015 0.978502 0.0205899 0.143469 0.989441 
0.0228641 0.210692 0.977285 -0.00928314 0.2696 0.962928 -0.0367244 0.280099 0.959268 
-0.0309906 0.361571 0.931829 -0.112666 0.462227 0.879575 -0.205152 0.508018 0.836559 
0.435998 0.269145 0.858759 0.254727 0.18474 0.949202 0.0720758 0.114663 0.990786 
0.00567419 0.0970143 0.995267 -0.0448291 0.0303215 0.998534 0.0400454 -0.0371512 0.998507 
0.11299 0.114166 0.987015 0.0143444 0.0931422 0.995549 0.00391083 0.0942415 0.995542 
-0.0222289 0.144017 0.989325 -0.0238384 0.182327 0.982949 -0.196721 0.235984 0.951637 
-0.374413 0.272131 0.886431 0.311907 0.118653 0.942675 0.21128 0.00422785 0.977417 
0.0799375 -0.00442787 0.99679 -0.0400566 0.0167771 0.999057 -0.10561 -0.0142967 0.994305 
0.103434 0.05214 0.993269 0.165468 0.0420193 0.985319 -0.0293078 -0.0684041 0.997227 
-0.00714222 -0.0265228 0.999623 0.063301 -0.000898626 0.997994 -0.0373555 0.0631551 0.997304 
-0.113466 0.0148685 0.993431 -0.116007 0.219538 0.968682 -0.594397 0.213074 0.77543 
0.4841 0.159994 0.860261 0.21781 0.0490118 0.97476 0.124767 -0.0470617 0.991069 
0.0877364 -0.0972084 0.991389 -0.00355622 -0.0632074 0.997994 0.0069578 0.08818 0.99608 
0.109419 0.0629207 0.992002 -0.0497502 -0.176902 0.98297 -0.0473229 0.0245863 0.998577 
0.0726452 -0.0481378 0.996195 0.0679991 -0.030835 0.997209 -0.00753826 -0.0409366 0.999133 
-0.0391642 0.0257226 0.998902 -0.306385 0.0559226 0.950263 -0.539396 -0.0272501 0.841611 
0.353357 0.0604459 0.933534 0.169112 -0.0101551 0.985545 0.0723744 -0.0517062 0.996036 
0.0627317 -0.0803239 0.994793 0.143642 -0.125695 0.981615 0.0166815 -0.0134653 0.99977 
-0.229489 -0.026994 0.972937 0.218627 -0.145597 0.964885 0.0870145 -0.038895 0.995447 
-0.062596 -0.0694567 0.995619 0.0722484 -0.0595579 0.995607 0.018789 -0.0113244 0.999759 
-0.0184226 -0.0304676 0.999366 -0.31585 -0.029611 0.948347 -0.543575 -0.0418612 0.838316 
0.32181 0.0540884 0.945258 0.131851 0.00922213 0.991227 0.0587333 0.00566052 0.998258 
0.0183278 0.0134682 0.999741 0.058219 -0.0242116 0.99801 0.105556 -0.150097 0.98302 
0.00291049 -0.026969 0.999632 -0.0738667 0.0934459 0.99288 -0.00383258 -0.200107 0.979767 
0.0865884 -0.0545458 0.99475 0.123777 -0.033156 0.991756 0.0222494 -0.021672 0.999518 
-0.0584166 -0.0506324 0.997007 -0.31552 -0.175044 0.932634 -0.589317 -0.0828516 0.803643 
0.291989 0.0171139 0.956269 0.126205 -0.0518949 0.990646 0.0776473 0.0255212 0.996654 
0.0321329 0.0389849 0.998723 -0.0182787 0.0447607 0.99883 0.00880848 -0.009628 0.999915 
0.0537016 -0.0242192 0.998263 -0.00810827 0.0818069 0.996615 -0.0168605 0.125013 0.992012 
0.0830307 0.103224 0.991186 0.103569 0.0585223 0.992899 0.000800482 -0.0750806 0.997177 
-0.146135 -0.0297818 0.988816 -0.291613 -0.215078 0.932043 -0.711101 -0.538477 0.452081 
0.275415 -0.370264 0.887159 0.142486 -0.214658 0.96624 0.136739 -0.135018 0.981363 
0.0446544 -0.00732361 0.998976 0.0124425 -0.0313489 0.999431 0.0322626 0.0686742 0.997117 
0.0841924 0.07015 0.993977 0.0747874 0.102997 0.991866 0.013077 0.163078 0.986526 
0.0274868 0.140607 0.989684 -0.0475332 0.0308048 0.998395 -0.0729953 -0.0120197 0.99726 
-0.256684 -0.203216 0.94489 -0.477773 -0.245022 0.843621 0.261482 -0.489454 0.831902 
0.16212 -0.337746 0.92717 0.0847836 -0.150102 0.985028 0.110799 -0.064618 0.99174 
0.0969317 -0.00230929 0.995288 0.0928829 -0.0072077 0.995651 0.0219887 0.0126871 0.999678 
-0.0603219 -0.0295912 0.99774 -0.0463759 -0.0476753 0.997786 -0.193752 -0.160778 0.967786 
-0.385082 -0.331133 0.861431 0.325185 -0.481137 0.814102 0.169805 -0.234336 0.957211 
0.142642 -0.171069 0.974879 0.0909283 -0.169554 0.981317 -0.0112957 -0.184245 0.982815 
-0.0329603 -0.258286 0.965506 -0.178239 -0.318922 0.93087 -0.363574 -0.502309 0.784538 
0.358582 -0.571366 0.738214 0.103624 -0.512513 0.852404 0.062647 -0.554391 0.829895 
-0.0440439 -0.606898 0.793559 -0.205151 -0.640304 0.740219 -0.356478 -0.760188 0.543174 
0.12531 0.595896 0.793225 0.055331 0.598056 0.799542 0.0371149 0.987504 0.153162 
0.00671383 0.613481 0.789681 -0.043708 0.646642 0.761541 -0.0188588 0.687252 0.726175 
-0.0714651 0.735185 0.674089 -0.155415 0.74782 0.645454 0.375087 0.518615 0.768341 
0.504232 0.809685 0.300266 0.230942 0.599562 0.766284 0.268682 0.593508 0.758656 
0.289067 0.637899 0.71381 -0.189956 0.723919 0.663218 -0.230747 0.661147 0.713891 
-0.277535 0.801109 0.530282 -0.308962 0.724632 0.615996 0.412204 0.47553 0.777148 
0.470246 0.362095 0.804833 0.601458 0.631732 0.489043 -0.512848 0.663266 0.545037 
-0.548191 0.635738 0.543437 -0.581553 0.70359 0.408359 0.483243 0.302578 0.821537 
0.674809 0.523582 0.520091 -0.684464 0.429207 0.589313 -0.738996 0.45382 0.497929 
-0.846811 0.454963 0.275535 0.383493 0.213282 0.898579 0.465357 0.207316 0.860501 
0.464997 0.283346 0.838745 -0.770317 0.390633 0.504001 0.505063 0.162276 0.84769 
0.70078 0.255569 0.666027 -0.816075 0.0405939 0.576519 0.419562 0.0955131 0.902688 
0.589626 0.159844 0.791701 -0.785108 -0.0459097 0.617656 0.404493 0.0598024 0.912584 
0.577008 0.0664598 0.81403 -0.780756 -0.144297 0.607946 0.415968 0.0180387 0.9092 
0.570599 -0.00616426 0.821206 -0.721848 -0.550923 0.41883 -0.719016 -0.554593 0.418858 
0.421699 -0.348612 0.837042 0.679846 -0.383894 0.624848 0.287703 -0.490634 0.822499 
0.303786 -0.484843 0.820147 -0.654411 -0.408554 0.636263 -0.656098 -0.531558 0.535707 
0.477564 -0.777718 0.408763 0.303128 -0.527755 0.793466 0.325272 -0.577546 0.748758 
0.28098 -0.601423 0.747891 0.342194 -0.68048 0.647959 -0.643905 -0.573892 0.505999 
-0.583506 -0.658654 0.475075 -0.735352 -0.671159 0.0938246 0.362027 -0.67976 0.637858 
0.424525 -0.863067 0.273669 0.468026 -0.628044 0.621701 -0.560915 -0.685022 0.464886 
-0.470247 -0.743732 0.475111 -0.63334 -0.765963 0.110369 0.448522 -0.670588 0.59088 
0.361073 -0.743305 0.563137 0.104635 -0.7277 0.677867 0.025443 -0.754917 0.655327 
-0.0759196 -0.8096 0.582052 -0.205899 -0.846083 0.49168 -0.365531 -0.767012 0.527332 
-0.360009 -0.766241 0.532229 0.036517 0.988499 0.146753 0.507703 0.829267 0.233566 
0.358555 0.906582 0.222591 0.0467386 0.987624 0.149714 0.195456 0.961054 0.195377 
-0.00492869 0.993249 0.115898 0.0349191 0.990781 0.130894 -0.0416765 0.995202 0.0885202 
-0.109198 0.993567 0.0300106 -0.138389 0.985871 0.0943799 -0.163153 0.9866 0.00119917 
-0.176143 0.982802 -0.0554472 -0.268618 0.963201 -0.00938245 0.526726 0.818074 0.2309 
0.63294 0.733496 0.24773 -0.126691 0.789152 -0.60099 -0.368067 0.929657 -0.0162625 
-0.211103 0.789518 -0.576279 -0.395882 0.91736 -0.0415799 -0.582778 0.807014 -0.0953823 
0.67495 0.689767 0.262036 0.705128 0.63611 0.313302 -0.293949 0.510166 -0.808285 
-0.700768 0.704672 -0.11118 -0.535418 0.598473 -0.59595 -0.833783 0.532251 -0.146678 
0.748422 0.572328 0.335119 -0.467367 0.251077 -0.847661 -0.898108 0.40547 -0.170285 
-0.809388 0.455847 -0.370262 0.873479 0.368254 0.31847 0.846128 0.368138 0.38541 
-0.929128 0.275644 -0.246459 -0.55427 0.319188 -0.768702 0.796012 0.355657 0.489768 
-0.980144 0.151102 -0.128398 0.864086 0.120288 0.488761 -0.985445 -0.059356 -0.159295 
0.869142 0.00930251 0.494475 -0.951683 -0.269622 -0.146983 0.909158 -0.0877667 0.407099 
0.965652 -0.189195 -0.178103 -0.923801 -0.348307 -0.158975 -0.884257 -0.440852 -0.154073 
-0.767019 -0.399875 -0.501778 0.810776 -0.502883 0.299586 0.695495 -0.672732 0.252424 
-0.854504 -0.490435 -0.171163 0.531541 -0.819749 0.213249 0.432282 -0.888649 0.153085 
0.38783 -0.875617 -0.287893 0.212392 -0.975046 0.0646176 0.25518 -0.966676 -0.020489 
-0.0510608 -0.593996 -0.802846 0.157776 -0.370532 -0.915321 -0.45937 -0.401994 -0.792073 
-0.734825 -0.661839 -0.148328 -0.719684 -0.678415 -0.147674 -0.679986 -0.667108 -0.304281 
0.376999 -0.911901 -0.162196 0.435171 -0.871551 -0.225885 0.363212 -0.86068 -0.356802 
0.59091 -0.75479 -0.28481 0.474677 -0.536583 -0.697682 -0.513219 -0.831754 -0.211642 
-0.395237 -0.606015 -0.690314 -0.639791 -0.75612 -0.13766 -0.609345 -0.781041 -0.136653 
-0.60532 -0.731956 -0.312774 0.573363 -0.771949 -0.274498 0.488756 -0.839808 -0.236304 
0.482757 -0.687253 -0.542797 0.176837 -0.979907 -0.0922542 -0.0602811 -0.994407 -0.0867281 
-0.182059 -0.976402 -0.116165 -0.228727 -0.957295 -0.176832 -0.175306 -0.760023 -0.625806 
-0.455803 -0.876449 -0.155182 -0.377439 -0.914481 -0.14582 -0.346852 -0.83455 -0.428041 
0.495609 0.810098 -0.313231 0.31198 0.900395 -0.303243 0.126382 0.900753 -0.415538 
-0.0395914 0.882509 -0.468627 -0.148966 0.81686 -0.557269 -0.103997 0.754951 -0.647483 
-0.126662 0.714951 -0.687605 -0.211732 0.607371 -0.765683 0.503617 0.806665 -0.309291 
0.595162 0.752492 -0.282024 0.492108 0.803127 -0.335883 0.249817 0.657908 -0.710457 
0.0239831 0.609624 -0.792328 -0.0572426 0.576946 -0.814774 -0.160791 0.560611 -0.812319 
-0.179949 0.571148 -0.800879 -0.15792 0.532062 -0.831848 -0.177266 0.605523 -0.775834 
-0.197972 0.571706 -0.796216 -0.0983761 0.593861 -0.798531 -0.192838 0.597583 -0.778272 
0.643566 0.71618 -0.270015 0.702807 0.659627 -0.266373 0.55245 0.676783 -0.486584 
-0.195647 0.25957 -0.945698 -0.136044 0.257523 -0.956647 -0.144 0.292108 -0.945482 
-0.0738736 0.348343 -0.934451 -0.268548 0.446898 -0.853325 -0.197391 0.318604 -0.927107 
-0.283723 0.45244 -0.845458 0.749022 0.599108 -0.282905 0.665039 0.569876 -0.482664 
-0.166035 0.0867686 -0.982295 -0.0997916 0.0677492 -0.992699 -0.0916659 0.140456 -0.985834 
-0.0419301 0.114149 -0.992578 -0.420375 0.243671 -0.874019 -0.252823 0.205555 -0.945425 
-0.383758 0.241055 -0.891416 0.872735 0.473737 -0.117923 0.873929 0.471384 -0.118511 
-0.189591 0.00887243 -0.981823 -0.073783 0.011729 -0.997205 -0.0296476 0.0507494 -0.998271 
-0.114816 0.0586775 -0.991652 -0.161985 -0.0207217 -0.986576 -0.544219 0.318244 -0.776239 
-0.314757 0.259308 -0.913065 -0.5485 0.314341 -0.774814 0.898461 0.369563 -0.237046 
0.728437 0.258312 -0.634551 -0.116787 -0.13869 -0.983425 -0.040652 -0.311811 -0.949274 
-0.0944914 0.0547698 -0.994018 -0.0575314 0.0921771 -0.994079 -0.0494892 -0.0112178 -0.998712 
-0.104557 -0.013022 -0.994434 -0.106092 0.0284802 -0.993948 -0.235678 0.0647593 -0.969671 
-0.633323 0.0936118 -0.768205 -0.4648 0.0855721 -0.881271 0.94061 0.219106 -0.259317 
0.543552 0.154868 -0.824965 -0.243604 -0.24991 -0.937124 -0.285453 -0.286138 -0.914681 
0.210918 -0.190359 -0.958789 0.206724 0.0807058 -0.975065 -0.157968 0.0625936 -0.985458 
-0.133062 -0.0283862 -0.990701 -0.0741285 -0.0180715 -0.997085 -0.096346 -0.0192411 -0.995162 
-0.245833 -0.019093 -0.969124 -0.600729 -0.0453768 -0.798164 -0.498887 -0.0383645 -0.865818 
0.990687 0.0751237 -0.113562 0.966465 -0.182368 -0.180796 -0.30751 -0.155863 -0.938693 
-0.0757345 0.0131688 -0.997041 0.271771 0.192515 -0.94291 -0.175709 -0.00936553 -0.984398 
-0.120206 0.00798256 -0.992717 -0.0974475 -0.00788892 -0.995209 -0.109115 -0.0219969 -0.993786 
-0.247542 -0.18328 -0.951384 -0.614559 -0.166834 -0.771028 -0.546286 -0.2813 -0.788949 
-0.523144 -0.160203 -0.837051 0.964504 -0.190154 -0.183229 0.964168 -0.191379 -0.183724 
0.964001 -0.190623 -0.185376 0.531808 -0.155878 -0.832395 -0.275581 -0.355422 -0.893157 
-0.0767359 -0.11907 -0.989916 0.084936 0.120928 -0.989021 0.187478 0.150789 -0.970626 
-0.184314 0.0507059 -0.981559 -0.137354 -0.00106576 -0.990521 -0.126529 -0.0600261 -0.990145 
-0.227601 -0.0667187 -0.971466 -0.401859 -0.139132 -0.90507 -0.376576 -0.101964 -0.920757 
0.762703 -0.57407 -0.297874 0.560872 -0.76667 -0.312472 0.573652 -0.531322 -0.623394 
0.316447 -0.821053 -0.475113 -0.182013 -0.457637 -0.87031 -0.0630331 -0.571968 -0.817851 
-0.212978 -0.4805 -0.850741 0.151618 -0.368533 -0.917167 -0.100966 -0.388125 -0.916059 
0.173733 -0.1246 -0.976878 0.206779 0.00730432 -0.97836 0.15787 0.0340555 -0.986872 
-0.181024 -0.0315467 -0.982973 -0.227486 -0.0429591 -0.972833 -0.167369 -0.150566 -0.974329 
-0.316659 -0.381871 -0.868275 -0.219662 -0.335997 -0.91589 -0.499237 -0.270595 -0.823129 
-0.460924 -0.297856 -0.835961 -0.447461 -0.24535 -0.85999 0.250954 -0.827018 -0.503054 
0.116766 -0.825022 -0.552906 0.0858595 -0.778841 -0.621316 -0.0874224 -0.594853 -0.799067 
-0.0911557 -0.680983 -0.726603 -0.138381 -0.633058 -0.761635 0.161931 -0.361002 -0.918399 
0.342128 -0.097242 -0.934608 0.230403 -0.0902591 -0.9689 0.0900722 -0.132933 -0.987024 
0.00528199 -0.179834 -0.983683 -0.145757 -0.203006 -0.968268 -0.258078 -0.189636 -0.94733 
-0.387204 -0.33039 -0.860764 -0.350965 -0.445707 -0.82351 -0.334146 -0.27849 -0.900439 
0.394871 -0.340202 -0.853428 0.412659 -0.422165 -0.807149 0.384328 -0.273159 -0.881859 
0.174253 -0.301696 -0.937345 0.0489213 -0.328384 -0.943277 -0.0404479 -0.387414 -0.921018 
-0.156038 -0.630194 -0.760597 -0.1741 -0.41501 -0.893004 -0.333487 -0.475973 -0.813779 
-0.294855 -0.548576 -0.782384 -0.299225 -0.40058 -0.866025 0.246557 -0.522203 -0.816403 
0.22533 -0.524991 -0.820738 0.222492 -0.513159 -0.828954 -0.00645239 -0.601446 -0.798888 
-0.000287346 -0.559637 -0.828738 -0.145486 -0.617456 -0.773034 -0.146198 -0.610618 -0.778314 
-0.139611 -0.602335 -0.78594 0.319319 0.532901 -0.783615 0.174734 0.498458 -0.849122 
0.00362134 0.501299 -0.865267 -0.0848466 0.434835 -0.896504 -0.176938 0.287664 -0.941245 
0.348109 0.518077 -0.781292 0.433221 0.459264 -0.775497 0.297144 0.472003 -0.830011 
0.110446 0.38083 -0.918025 -0.0300644 0.29448 -0.955185 -0.133754 0.264577 -0.955044 
-0.187958 0.233153 -0.954102 -0.18476 0.228623 -0.955822 -0.198488 0.139229 -0.970164 
0.467459 0.405491 -0.785531 0.414816 0.32876 -0.848437 0.372474 0.357406 -0.85646 
0.175946 0.253003 -0.951332 0.0301483 0.166041 -0.985658 -0.084133 0.104604 -0.990949 
-0.134919 0.0263193 -0.990507 -0.185464 0.0423977 -0.981736 -0.192942 0.105616 -0.975509 
-0.19862 0.108197 -0.974086 0.438199 0.307459 -0.84466 0.386718 0.295907 -0.873435 
0.295101 0.207338 -0.932699 0.0901652 0.136471 -0.986532 -0.0466821 0.0639885 -0.996858 
-0.175989 0.0124523 -0.984313 -0.204936 -0.114184 -0.972092 -0.110111 -0.128977 -0.985515 
-0.106637 -0.151165 -0.98274 -0.168215 -0.0266981 -0.985389 -0.0887328 -0.195716 -0.976638 
-0.152892 -0.0479864 -0.987077 0.522259 0.14138 -0.840986 0.4092 0.137325 -0.902052 
0.2038 0.0362171 -0.978342 0.0552419 0.000818826 -0.998473 -0.0864233 -0.0511516 -0.994945 
-0.258927 -0.101234 -0.960577 -0.172526 -0.140335 -0.974957 -0.248808 -0.234473 -0.939743 
-0.30364 -0.17995 -0.935639 0.480889 0.131458 -0.86687 0.453152 -0.0285449 -0.890976 
0.271725 0.046148 -0.961268 0.136001 -0.0378144 -0.989987 0.0013225 -0.0724185 -0.997373 
-0.147585 -0.148762 -0.977798 -0.242544 -0.244643 -0.938788 -0.297324 -0.20347 -0.932844 
0.130785 0.0456013 -0.990361 0.448957 -0.0522183 -0.892026 0.445826 -0.0569409 -0.893307 
0.443735 -0.0538307 -0.89454 0.217597 -0.00670067 -0.976016 0.102424 -0.0835763 -0.991224 
-0.0583058 -0.164074 -0.984723 -0.22431 -0.201143 -0.953534 -0.328109 -0.208992 -0.921231 
-0.307881 -0.287314 -0.907006 -0.333783 -0.216978 -0.917338 0.123313 0.041891 -0.991483 
0.115827 0.040121 -0.992459 0.122039 0.0412014 -0.99167 0.425976 -0.132253 -0.895016 
0.217147 -0.124663 -0.968146 -0.00936618 -0.238123 -0.97119 -0.177957 -0.411229 -0.893992 
-0.112389 -0.314012 -0.942743 -0.246672 -0.357666 -0.900682 -0.222172 -0.383678 -0.896343 
-0.205222 -0.347383 -0.914992 0.087768 0.0378811 -0.99542 -0.01729 0.0282746 -0.999451 
0.0659926 0.0151232 -0.997706 0.156704 -0.562516 -0.8118 0.141904 -0.569668 -0.809532 
0.142258 -0.566847 -0.811448 -0.0911663 -0.492916 -0.865288 -0.0464246 -0.523039 -0.851044 
-0.0548272 -0.507376 -0.859979 0.0614831 -0.0509044 -0.996809 -0.0482591 -0.0573702 -0.997186 
0.0270789 -0.101427 -0.994474 0.0335944 -0.0730804 -0.99676 
