# vtk DataFile Version 4.2
vtk output
ASCII
DATASET POLYDATA
POINTS 576 float
-37.5526 -40.2166 -13.4068 -29.2951 -40.2166 -14.9476 -21.0376 -40.2166 -15.799 
-12.7801 -40.2166 -15.1934 -4.52257 -40.2166 -15.5291 3.73495 -40.2166 -16.0083 
11.9925 -40.2166 -15.8088 20.25 -40.2166 -14.7953 28.5075 -40.2166 -14.1014 
-54.0677 -31.9591 -13.6615 -45.8101 -31.9591 -16.6189 -37.5526 -31.9591 -17.1011 
-29.2951 -31.9591 -18.9454 -21.0376 -31.9591 -18.1551 -12.7801 -31.9591 -17.9627 
-4.52257 -31.9591 -17.5814 3.73495 -31.9591 -17.9194 11.9925 -31.9591 -18.0495 
20.25 -31.9591 -17.5297 28.5075 -31.9591 -17.4726 36.765 -31.9591 -16.6688 
45.0225 -31.9591 -14.5429 53.28 -31.9591 -12.8644 -54.0677 -23.7016 -15.7408 
-45.8101 -23.7016 -17.1509 -37.5526 -23.7016 -19.0675 -29.2951 -23.7016 -19.0681 
-21.0376 -23.7016 -18.9038 -12.7801 -23.7016 -18.4276 -4.52257 -23.7016 -17.3439 
3.73495 -23.7016 -17.6031 11.9925 -23.7016 -18.2925 20.25 -23.7016 -18.0021 
28.5075 -23.7016 -17.943 36.765 -23.7016 -18.1388 45.0225 -23.7016 -16.3383 
53.28 -23.7016 -14.5735 -62.3252 -15.4441 -14.1418 -54.0677 -15.4441 -17.2329 
-45.8101 -15.4441 -17.8725 -37.5526 -15.4441 -18.331 -29.2951 -15.4441 -18.3177 
-21.0376 -15.4441 -18.1801 -12.7801 -15.4441 -18.0242 -4.52257 -15.4441 -17.7248 
3.73495 -15.4441 -18.309 11.9925 -15.4441 -17.7665 20.25 -15.4441 -17.6501 
28.5075 -15.4441 -17.9317 36.765 -15.4441 -18.2631 45.0225 -15.4441 -18.0308 
53.28 -15.4441 -17.2068 61.5376 -15.4441 -12.7524 -62.3252 -7.18654 -14.2967 
-54.0677 -7.18654 -17.8976 -45.8101 -7.18654 -18.1348 -37.5526 -7.18654 -18.1635 
-29.2951 -7.18654 -17.6086 -21.0376 -7.18654 -16.7863 -12.7801 -7.18654 -18.3847 
-4.52257 -7.18654 -18.5794 3.73495 -7.18654 -18.8395 11.9925 -7.18654 -18.4664 
20.25 -7.18654 -17.3052 28.5075 -7.18654 -18.1986 36.765 -7.18654 -18.7811 
45.0225 -7.18654 -18.7506 53.28 -7.18654 -17.6035 61.5376 -7.18654 -14.4011 
-62.3252 1.07097 -14.2898 -54.0677 1.07097 -16.6321 -45.8101 1.07097 -18.402 
-37.5526 1.07097 -18.4451 -29.2951 1.07097 -17.9178 -21.0376 1.07097 -17.2155 
-12.7801 1.07097 -19.8348 -4.52257 1.07097 -17.9158 3.73495 1.07097 -17.691 
11.9925 1.07097 -19.3885 20.25 1.07097 -17.3395 28.5075 1.07097 -18.5423 
36.765 1.07097 -19.2494 45.0225 1.07097 -19.3425 53.28 1.07097 -17.4067 
61.5376 1.07097 -14.3429 -62.3252 9.32849 -12.8647 -54.0677 9.32849 -16.8048 
-45.8101 9.32849 -18.0252 -37.5526 9.32849 -18.8751 -29.2951 9.32849 -18.6329 
-21.0376 9.32849 -18.0137 -12.7801 9.32849 -17.2764 -4.52257 9.32849 -17.6555 
3.73495 9.32849 -19.8775 11.9925 9.32849 -16.6074 20.25 9.32849 -17.2679 
28.5075 9.32849 -18.6695 36.765 9.32849 -19.3893 45.0225 9.32849 -19.4088 
53.28 9.32849 -17.5605 61.5376 9.32849 -13.8257 -54.0677 17.586 -14.6977 
-45.8101 17.586 -17.2817 -37.5526 17.586 -18.6118 -29.2951 17.586 -18.9277 
-21.0376 17.586 -18.6966 -12.7801 17.586 -17.8201 -4.52257 17.586 -17.793 
3.73495 17.586 -18.3653 11.9925 17.586 -17.7393 20.25 17.586 -18.5542 
28.5075 17.586 -18.9212 36.765 17.586 -19.1906 45.0225 17.586 -18.7253 
53.28 17.586 -17.4846 -54.0677 25.8435 -12.6738 -45.8101 25.8435 -15.6251 
-37.5526 25.8435 -17.859 -29.2951 25.8435 -18.4394 -21.0376 25.8435 -18.7653 
-12.7801 25.8435 -19.2009 -4.52257 25.8435 -18.7923 3.73495 25.8435 -18.4545 
11.9925 25.8435 -18.5587 20.25 25.8435 -18.6566 28.5075 25.8435 -19.403 
36.765 25.8435 -19.4262 45.0225 25.8435 -17.6994 53.28 25.8435 -13.5187 
-37.5526 34.101 -14.5842 -29.2951 34.101 -16.8869 -21.0376 34.101 -18.1424 
-12.7801 34.101 -18.4102 -4.52257 34.101 -17.7485 3.73495 34.101 -16.1501 
11.9925 34.101 -16.3019 20.25 34.101 -17.1297 28.5075 34.101 -17.6899 
36.765 34.101 -16.6971 45.0225 34.101 -13.4828 -21.0376 42.3585 -12.9514 
-12.7801 42.3585 -12.8695 -37.5526 -41.2459 -12.4239 -29.2951 -43.955 -12.4239 
-21.0376 -44.326 -12.4239 -12.7801 -43.8401 -12.4239 -12.7801 -48.4741 -4.52773 
-4.52257 -44.354 -12.4239 -4.52257 -48.4741 -4.2508 3.73495 -44.8352 -12.4239 
3.73495 -48.4741 -4.8531 11.9925 -44.5148 -12.4239 20.25 -43.3454 -12.4239 
28.5075 -42.6452 -12.4239 -54.0677 -33.8743 -12.4239 -43.096 -40.2166 -12.4239 
-45.8101 -39.4205 -12.4239 -45.8101 -40.2166 -11.6874 34.6254 -40.2166 -12.4239 
36.765 -39.361 -12.4239 36.765 -40.2166 -11.5738 45.0225 -36.5567 -12.4239 
45.0225 -40.2166 -9.68418 53.28 -32.5976 -12.4239 -55.9882 -31.9591 -12.4239 
-62.3252 -31.9591 -4.96878 54.0051 -31.9591 -12.4239 61.5376 -31.9591 -4.80724 
-60.8057 -23.7016 -12.4239 -62.3252 -21.7447 -12.4239 -62.3252 -23.7016 -11.5186 
60.1461 -23.7016 -12.4239 61.5376 -19.097 -12.4239 61.5376 -23.7016 -11.9405 
-64.7466 -15.4441 -12.4239 -70.5827 -15.4441 -4.51104 62.0859 -15.4441 -12.4239 
69.7951 -15.4441 -6.27529 -64.8235 -7.18654 -12.4239 65.3377 -7.18654 -12.4239 
69.7951 -7.18654 -9.17213 -64.7208 1.07097 -12.4239 64.6109 1.07097 -12.4239 
69.7951 1.07097 -7.93704 -62.8559 9.32849 -12.4239 -62.3252 10.8673 -12.4239 
63.5862 9.32849 -12.4239 61.5376 16.1093 -12.4239 69.7951 9.32849 -5.23428 
-58.0054 17.586 -12.4239 -62.3252 17.586 -8.90956 61.0514 17.586 -12.4239 
61.5376 17.586 -11.9996 -54.41 25.8435 -12.4239 -54.0677 26.235 -12.4239 
-45.8101 33.5865 -12.4239 54.8944 25.8435 -12.4239 53.28 27.9253 -12.4239 
-45.0298 34.101 -12.4239 -45.8101 34.101 -12.0298 -37.5526 37.2099 -12.4239 
-29.2951 40.5296 -12.4239 -4.52257 40.0313 -12.4239 3.73495 37.8515 -12.4239 
11.9925 38.6356 -12.4239 20.25 40.9869 -12.4239 28.5075 40.65 -12.4239 
36.765 39.6115 -12.4239 46.8906 34.101 -12.4239 45.0225 35.3453 -12.4239 
-37.5526 42.3585 -5.13427 -23.2437 42.3585 -12.4239 -29.2951 42.3585 -10.4191 
-21.0376 42.8189 -12.4239 -11.5604 42.3585 -12.4239 -12.7801 42.7308 -12.4239 
-4.52257 42.3585 -7.08734 11.9925 42.3585 -5.66373 20.25 42.3585 -8.35165 
28.5075 42.3585 -9.35371 36.765 42.3585 -7.4448 -12.7801 -48.6087 -4.16639 
-4.52257 -48.5004 -4.16639 3.73495 -48.6805 -4.16639 -45.8101 -44.0582 -4.16639 
-37.5526 -46.309 -4.16639 -29.2951 -47.822 -4.16639 -20.8154 -48.4741 -4.16639 
-21.0376 -48.4704 -4.16639 -12.7801 -48.4741 -3.73464 -4.52257 -48.4741 -4.09546 
6.53609 -48.4741 -4.16639 3.73495 -48.4741 -3.72093 11.9925 -48.072 -4.16639 
20.25 -47.5829 -4.16639 28.5075 -46.6433 -4.16639 36.765 -45.3854 -4.16639 
45.0225 -42.9388 -4.16639 -62.3252 -32.5878 -4.16639 -53.313 -40.2166 -4.16639 
-54.0677 -39.7499 -4.16639 50.8426 -40.2166 -4.16639 53.28 -38.9142 -4.16639 
61.5376 -32.5012 -4.16639 -62.9721 -31.9591 -4.16639 -62.3252 -31.9591 -1.38884 
62.0464 -31.9591 -4.16639 -67.4933 -23.7016 -4.16639 -70.5827 -15.9816 -4.16639 
69.2386 -23.7016 -4.16639 69.7951 -21.7776 -4.16639 -70.7731 -15.4441 -4.16639 
-70.5827 -8.85534 -4.16639 -70.5827 -15.4441 -2.51288 71.2993 -15.4441 -4.16639 
-70.5216 -7.18654 -4.16639 73.0676 -7.18654 -4.16639 -69.9401 1.07097 -4.16639 
72.2325 1.07097 -4.16639 -68.2133 9.32849 -4.16639 70.3684 9.32849 -4.16639 
69.7951 10.6045 -4.16639 -65.3024 17.586 -4.16639 -62.3252 23.5376 -4.16639 
66.6581 17.586 -4.16639 61.5376 25.0714 -4.16639 -60.912 25.8435 -4.16639 
-54.0677 33.7466 -4.16639 60.9379 25.8435 -4.16639 53.28 33.955 -4.16639 
-53.6376 34.101 -4.16639 -54.0677 34.101 -0.269758 -45.8101 39.0583 -4.16639 
3.73495 41.5835 -4.16639 53.108 34.101 -4.16639 45.0225 39.926 -4.16639 
-38.683 42.3585 -4.16639 -37.5526 42.8229 -4.16639 -29.2951 45.7102 -4.16639 
-21.0376 46.642 -4.16639 -12.7801 45.9153 -4.16639 0.189577 42.3585 -4.16639 
-4.52257 43.3763 -4.16639 8.15177 42.3585 -4.16639 3.73495 42.3585 -1.75518 
11.9925 42.9942 -4.16639 20.25 43.3135 -4.16639 28.5075 44.4189 -4.16639 
39.872 42.3585 -4.16639 36.765 43.7789 -4.16639 -45.8101 -42.6255 4.09113 
-37.5526 -44.7203 4.09113 -29.2951 -45.7193 4.09113 -21.0376 -45.9985 4.09113 
-12.7801 -45.24 4.09113 -4.52257 -44.1404 4.09113 3.73495 -43.4089 4.09113 
11.9925 -43.391 4.09113 20.25 -43.3205 4.09113 28.5075 -43.1431 4.09113 
36.765 -42.7114 4.09113 45.0225 -41.4268 4.09113 -50.4561 -40.2166 4.09113 
-54.0677 -37.5315 4.09113 -45.8101 -40.2166 6.93595 -37.5526 -40.2166 10.0877 
-29.2951 -40.2166 9.86397 -21.0376 -40.2166 9.84302 -12.7801 -40.2166 8.71873 
-4.52257 -40.2166 7.39134 3.73495 -40.2166 6.76213 11.9925 -40.2166 6.84339 
20.25 -40.2166 7.03426 28.5075 -40.2166 7.46874 36.765 -40.2166 7.12427 
48.2126 -40.2166 4.09113 45.0225 -40.2166 5.9979 53.28 -38.0673 4.09113 
61.5376 -32.5457 4.09113 -60.579 -31.9591 4.09113 -62.3252 -30.3543 4.09113 
-54.0677 -31.9591 9.30599 -45.8101 -31.9591 12.1701 -4.52257 -31.9591 11.5041 
3.73495 -31.9591 10.8031 11.9925 -31.9591 11.1059 20.25 -31.9591 11.8623 
45.0225 -31.9591 11.3136 53.28 -31.9591 10.5252 62.1311 -31.9591 4.09113 
61.5376 -31.9591 4.76202 -66.4189 -23.7016 4.09113 -62.3252 -23.7016 8.6232 
-54.0677 -23.7016 12.1726 68.6313 -23.7016 4.09113 61.5376 -23.7016 10.9948 
69.7951 -20.6979 4.09113 -69.3686 -15.4441 4.09113 -62.3252 -15.4441 11.5395 
71.4755 -15.4441 4.09113 69.7951 -15.4441 6.44504 -69.4657 -7.18654 4.09113 
72.75 -7.18654 4.09113 69.7951 -7.18654 8.95557 -69.1529 1.07097 4.09113 
72.1829 1.07097 4.09113 69.7951 1.07097 7.64097 -67.7653 9.32849 4.09113 
-62.3252 9.32849 11.6742 69.8446 9.32849 4.09113 69.7951 9.424 4.09113 
69.7951 9.32849 4.16317 -65.2843 17.586 4.09113 -62.3252 23.5577 4.09113 
-62.3252 17.586 8.89701 65.986 17.586 4.09113 61.5376 23.48 4.09113 
61.5376 17.586 9.83109 -61.0907 25.8435 4.09113 59.18 25.8435 4.09113 
53.28 31.987 4.09113 53.28 25.8435 11.1094 -54.3994 34.101 4.09113 
-54.0677 34.4069 4.09113 -54.0677 34.101 4.73804 -45.8101 40.1928 4.09113 
51.1505 34.101 4.09113 45.0225 38.8007 4.09113 45.0225 34.101 9.82969 
-41.0531 42.3585 4.09113 -37.5526 43.7746 4.09113 -37.5526 42.3585 9.82595 
-29.2951 46.5739 4.09113 -21.0376 47.6734 4.09113 -12.7801 47.1567 4.09113 
-4.52257 45.9753 4.09113 3.73495 44.4126 4.09113 11.9925 44.6562 4.09113 
20.25 44.7898 4.09113 28.5075 44.7495 4.09113 28.5075 42.3585 11.7222 
38.1829 42.3585 4.09113 36.765 43.0465 4.09113 36.765 42.3585 5.51178 
-37.5526 -35.8733 12.3486 -29.2951 -36.6898 12.3486 -21.0376 -35.6841 12.3486 
[...]
POINT_DATA 576
SCALARS ImageScalars float
LOOKUP_TABLE default
0 0 0 0 0 0 0 0 0 
0 0 0 0 0 0 0 0 0 
0 0 0 0 0 0 0 0 0 
0 0 0 0 0 0 0 0 0 
0 0 0 0 0 0 0 0 0 
0 0 0 0 0 0 0 0 0 
0 0 0 0 0 0 0 0 0 
0 0 0 0 0 0 0 0 0 
0 0 0 0 0 0 0 0 0 
0 0 0 0 0 0 0 0 0 
0 0 0 0 0 0 0 0 0 
0 0 0 0 0 0 0 0 0 
0 0 0 0 0 0 0 0 0 
0 0 0 0 0 0 0 0 0 
0 0 0 0 0 0 0 0 0 
0 0 0 0 0 0 0 0 0 
0 0 0 0 0 0 0 0 0 
0 0 0 0 0 0 0 0 0 
0 0 0 0 0 0 0 0 0 
0 0 0 0 0 0 0 0 0 
0 0 0 0 0 0 0 0 0 
0 0 0 0 0 0 0 0 0 
0 0 0 0 0 0 0 0 0 
0 0 0 0 0 0 0 0 0 
0 0 0 0 0 0 0 0 0 
0 0 0 0 0 0 0 0 0 
0 0 0 0 0 0 0 0 0 
0 0 0 0 0 0 0 0 0 
0 0 0 0 0 0 0 0 0 
0 0 0 0 0 0 0 0 0 
0 0 0 0 0 0 0 0 0 
0 0 0 0 0 0 0 0 0 
0 0 0 0 0 0 0 0 0 
0 0 0 0 0 0 0 0 0 
0 0 0 0 0 0 0 0 0 
0 0 0 0 0 0 0 0 0 
0 0 0 0 0 0 0 0 0 
0 0 0 0 0 0 0 0 0 
0 0 0 0 0 0 0 0 0 
0 0 0 0 0 0 0 0 0 
0 0 0 0 0 0 0 0 0 
0 0 0 0 0 0 0 0 0 
0 0 0 0 0 0 0 0 0 
0 0 0 0 0 0 0 0 0 
0 0 0 0 0 0 0 0 0 
0 0 0 0 0 0 0 0 0 
0 0 0 0 0 0 0 0 0 
0 0 0 0 0 0 0 0 0 
0 0 0 0 0 0 0 0 0 
0 0 0 0 0 0 0 0 0 
0 0 0 0 0 0 0 0 0 
0 0 0 0 0 0 0 0 0 
0 0 0 0 0 0 0 0 0 
0 0 0 0 0 0 0 0 0 
0 0 0 0 0 0 0 0 0 
0 0 0 0 0 0 0 0 0 
0 0 0 0 0 0 0 0 0 
0 0 0 0 0 0 0 0 0 
0 0 0 0 0 0 0 0 0 
0 0 0 0 0 0 0 0 0 
0 0 0 0 0 0 0 0 0 
0 0 0 0 0 0 0 0 0 
0 0 0 0 0 0 0 0 0 
0 0 0 0 0 0 0 0 0 

NORMALS Normals float
-0.180892 -0.607772 -0.773235 -0.119149 -0.51679 -0.84778 -0.0183753 -0.480839 -0.876616 
0.0213643 -0.479108 -0.877496 -0.0437932 -0.411425 -0.910391 -0.0150649 -0.450219 -0.892791 
0.068217 -0.444982 -0.892938 0.100398 -0.495016 -0.863064 0.151646 -0.520114 -0.840526 
-0.433034 -0.392191 -0.811583 -0.225156 -0.299612 -0.927112 -0.122722 -0.275339 -0.953482 
-0.0574205 -0.233408 -0.970682 0.053662 -0.18715 -0.980865 0.0344864 -0.171217 -0.98463 
0.00264319 -0.0877003 -0.996143 -0.027286 -0.0728408 -0.99697 0.0237099 -0.12885 -0.991381 
0.0336629 -0.169379 -0.984976 0.062996 -0.238904 -0.968998 0.137054 -0.292035 -0.946537 
0.272668 -0.336476 -0.901353 0.370197 -0.417281 -0.829959 -0.350181 -0.225586 -0.909112 
-0.180255 -0.0670651 -0.981331 -0.11504 -0.0685736 -0.990991 0.0099532 0.0390651 -0.999187 
0.0386453 -0.000378433 -0.999253 0.094227 -0.0027376 -0.995547 0.0497298 -0.00857425 -0.998726 
-0.0573847 -0.0239991 -0.998064 -0.0242211 0.0166242 -0.999568 0.0211258 -0.00772974 -0.999747 
-0.00772178 -0.0248955 -0.99966 0.0964282 -0.112062 -0.989012 0.189111 -0.179086 -0.965487 
0.270654 -0.255516 -0.928148 -0.49102 -0.149925 -0.85815 -0.252438 -0.107747 -0.961595 
-0.0614023 -0.0587618 -0.996382 -0.0264447 0.0534154 -0.998222 0.00910593 0.0878303 -0.996094 
0.0181679 0.131083 -0.991205 0.0270514 0.00455234 -0.999624 -0.0174577 -0.0732183 -0.997163 
-0.00283366 -0.0735701 -0.997286 0.0399371 -0.00703431 -0.999177 -0.0105311 0.043407 -0.999002 
-0.0360966 -0.0154465 -0.999229 -0.00657628 -0.0385174 -0.999236 0.0590426 -0.145251 -0.987632 
0.283767 -0.158422 -0.945716 0.490767 -0.128807 -0.861717 -0.52413 -0.00981071 -0.851582 
-0.254645 0.04979 -0.965752 -0.0139314 -0.0318729 -0.999395 0.0318636 -0.0068975 -0.999468 
0.0831384 0.0241068 -0.996246 -0.0383569 0.0589501 -0.997524 -0.117223 -0.10362 -0.987685 
-0.0269905 -0.0231751 -0.999367 0.0068406 0.0197716 -0.999781 0.0966331 -0.0905958 -0.991188 
0.0102835 0.0176013 -0.999792 -0.0890704 -0.0368287 -0.995344 -0.0333596 -0.0595722 -0.997666 
0.0776745 -0.0777242 -0.993944 0.228293 -0.0089118 -0.973552 0.414816 -0.0853523 -0.905893 
-0.521912 0.0901503 -0.848222 -0.252368 0.0537388 -0.966138 -0.121692 0.00645244 -0.992547 
0.0293617 -0.0429849 -0.998644 0.0745863 -0.0621564 -0.995276 -0.090379 -0.0745404 -0.993114 
-0.0841045 0.0732619 -0.99376 0.1383 0.066728 -0.98814 -0.0896488 -0.072182 -0.993354 
0.0581363 0.115381 -0.991619 0.0250634 0.00226333 -0.999683 -0.114976 -0.0283044 -0.992965 
-0.0481991 -0.0367551 -0.998161 0.110658 -0.039764 -0.993063 0.27245 0.00291599 -0.962166 
0.436935 0.0297735 -0.899 -0.570554 0.223895 -0.790151 -0.327519 0.0925785 -0.940298 
-0.113882 0.0663953 -0.991273 -0.0350355 -0.0102747 -0.999333 0.0519354 -0.0609377 -0.99679 
0.0785832 -0.0891351 -0.992915 0.0261694 0.105883 -0.994034 -0.151886 0.00336458 -0.988392 
0.0622699 -0.00244211 -0.998056 0.149197 0.0741398 -0.986024 -0.120465 -0.0641488 -0.990643 
-0.127147 -0.0227575 -0.991623 -0.0446237 0.00354125 -0.998998 0.12139 0.0363124 -0.99194 
0.284316 -0.00532745 -0.958716 0.529605 0.127086 -0.83867 -0.428035 0.234824 -0.872722 
-0.20439 0.140316 -0.968781 -0.0949516 0.0577008 -0.993808 -0.00492151 0.0110114 -0.999927 
0.0671638 -0.0456564 -0.996697 0.0551973 -0.114616 -0.991875 -0.0337488 -0.0694936 -0.997011 
0.000777925 0.0765661 -0.997064 -0.0058665 -0.114918 -0.993358 -0.0720354 -0.0885459 -0.993464 
-0.0358962 -0.0434334 -0.998411 0.0103402 -0.000991508 -0.999946 0.0912695 0.10889 -0.989855 
0.370853 0.197655 -0.907414 -0.509355 0.394549 -0.76478 -0.290175 0.275586 -0.916434 
-0.168427 0.230541 -0.958375 -0.0530123 0.111488 -0.992351 -0.0453485 0.0337817 -0.9984 
-0.00167167 -0.0393167 -0.999225 0.0458548 -0.00706502 -0.998923 0.013984 0.108436 -0.994005 
-0.0127359 0.0771502 -0.996938 -0.0489644 0.0821403 -0.995417 -0.0478647 0.0627973 -0.996878 
0.105176 0.135716 -0.985149 0.291738 0.236481 -0.926804 0.540703 0.403079 -0.738355 
-0.248867 0.478211 -0.842247 -0.218943 0.371174 -0.902382 -0.0792528 0.270948 -0.959326 
0.0184945 0.295092 -0.95529 0.127541 0.396382 -0.909183 0.0794417 0.546922 -0.833406 
-0.0622028 0.511711 -0.856903 -0.0796738 0.384727 -0.919585 0.023615 0.383594 -0.9232 
0.19917 0.458852 -0.865902 0.40581 0.59792 -0.691238 -0.0866422 0.762624 -0.641013 
0.138241 0.782688 -0.606869 -0.193209 -0.65656 -0.729109 -0.135932 -0.692038 -0.708947 
0.00482517 -0.725566 -0.688135 0.00525163 -0.679464 -0.73369 -0.00394857 -0.998727 -0.0502855 
-0.0455759 -0.698551 -0.714107 -0.00461963 -0.999677 0.0249914 -0.0063654 -0.690767 -0.72305 
0.0243647 -0.99926 0.0297543 0.0694727 -0.735915 -0.6735 0.0849362 -0.683327 -0.725155 
0.167687 -0.64506 -0.745506 -0.469652 -0.498759 -0.728469 -0.272952 -0.627601 -0.729119 
-0.305759 -0.604121 -0.7359 -0.32601 -0.658784 -0.678028 0.179322 -0.639407 -0.747665 
0.183098 -0.640057 -0.746192 0.193573 -0.707914 -0.679254 0.292688 -0.502954 -0.813247 
0.335193 -0.751236 -0.568586 0.386269 -0.447692 -0.806454 -0.504466 -0.438199 -0.743973 
-0.715112 -0.652397 -0.250983 0.38347 -0.439694 -0.81217 0.676995 -0.662057 -0.321493 
-0.515769 -0.318816 -0.795197 -0.542998 -0.303921 -0.782806 -0.58432 -0.353384 -0.730541 
0.411663 -0.277524 -0.868052 0.471202 -0.197799 -0.85956 0.456568 -0.297322 -0.838538 
-0.593984 -0.163134 -0.787763 -0.948702 -0.180748 -0.259414 0.50366 -0.133447 -0.853533 
0.848257 -0.243298 -0.47039 -0.618041 0.00164781 -0.786144 0.573125 -0.083097 -0.815244 
0.822857 -0.076936 -0.563016 -0.638167 0.106914 -0.762439 0.579221 0.0579266 -0.81311 
0.860706 0.137791 -0.490101 -0.59023 0.22914 -0.77403 -0.583788 0.248571 -0.772919 
0.615122 0.153978 -0.77325 0.613379 0.252537 -0.748325 0.904474 0.327892 -0.272788 
-0.527628 0.281904 -0.801336 -0.730024 0.389911 -0.561279 0.611453 0.28043 -0.739922 
0.636219 0.290935 -0.714551 -0.526102 0.398731 -0.751153 -0.518026 0.40524 -0.753279 
-0.399201 0.570115 -0.718058 0.577772 0.423971 -0.697444 0.566283 0.457663 -0.685469 
-0.390484 0.580111 -0.714838 -0.410571 0.598096 -0.688268 -0.284739 0.609837 -0.73961 
-0.236978 0.672242 -0.701379 0.249262 0.754942 -0.606573 0.0705095 0.7689 -0.635469 
-0.143075 0.756113 -0.638609 -0.109061 0.788603 -0.605154 0.0636278 0.791583 -0.60774 
0.217325 0.727974 -0.650249 0.45636 0.622693 -0.635602 0.420733 0.649781 -0.633063 
-0.363429 0.878982 -0.308722 -0.124321 0.763322 -0.633943 -0.235112 0.783285 -0.575488 
-0.0852991 0.781297 -0.618303 0.161523 0.796504 -0.582659 0.13845 0.799238 -0.584851 
0.263501 0.891978 -0.367345 -0.118911 0.920995 -0.370982 -0.10045 0.921596 -0.374927 
0.0340309 0.907004 -0.419744 0.243777 0.913313 -0.326238 -0.00181707 -0.999563 -0.0294995 
-0.00423812 -0.999557 0.0294463 0.0257512 -0.996493 0.0796137 -0.376774 -0.917041 -0.130681 
-0.218605 -0.968676 -0.117807 -0.128657 -0.990823 -0.041448 -0.0463705 -0.995387 -0.0839881 
-0.0475991 -0.995204 -0.0854624 0.00173217 -0.999993 -0.00339039 -0.00360021 -0.999413 0.0340641 
0.03954 -0.996291 0.0764296 0.0268612 -0.993577 0.109921 0.0666604 -0.995594 0.065949 
0.0875541 -0.995913 0.0221783 0.132084 -0.991231 0.0038689 0.229027 -0.966919 -0.112312 
0.353936 -0.925316 -0.136089 -0.711269 -0.67138 -0.208198 -0.535331 -0.829269 -0.160415 
-0.551729 -0.818566 -0.15983 0.45991 -0.866729 -0.193038 0.506407 -0.832539 -0.224566 
0.683544 -0.669927 -0.289767 -0.726813 -0.65362 -0.211005 -0.725389 -0.688275 0.00934945 
0.693324 -0.663556 -0.281059 -0.905568 -0.355709 -0.23112 -0.951613 -0.191468 -0.240361 
0.845215 -0.443147 -0.298718 0.864468 -0.395991 -0.309656 -0.954624 -0.1798 -0.237414 
-0.968184 0.00048092 -0.250239 -0.975328 -0.189641 -0.113015 0.912845 -0.232143 -0.335891 
-0.966927 0.046229 -0.25083 0.956518 -0.0524015 -0.286929 -0.957437 0.14239 -0.251076 
0.940679 0.155993 -0.301313 -0.934791 0.24802 -0.254267 0.916641 0.331121 -0.223895 
0.909605 0.353054 -0.219023 -0.870515 0.410974 -0.270748 -0.813319 0.517875 -0.265174 
0.860804 0.462068 -0.213329 0.790536 0.598113 -0.131583 -0.787367 0.553297 -0.271874 
-0.632445 0.71824 -0.290076 0.781871 0.611059 -0.123631 0.646942 0.758859 -0.0748291 
-0.622638 0.727087 -0.289252 -0.660224 0.747066 -0.0774349 -0.483139 0.821193 -0.303675 
0.0282021 0.939907 -0.340264 0.643242 0.761955 -0.0752614 0.486817 0.866611 -0.109519 
-0.379437 0.883705 -0.274033 -0.36042 0.89298 -0.269599 -0.214329 0.937156 -0.27532 
-0.0120919 0.966385 -0.256816 0.184104 0.956616 -0.225814 0.123746 0.940817 -0.315515 
0.253136 0.926333 -0.27898 -0.0455644 0.942038 -0.332399 0.0292591 0.953254 -0.300752 
-0.104636 0.939917 -0.324972 -0.0862127 0.97718 -0.194128 -0.0297752 0.978792 -0.202681 
0.34531 0.929437 -0.130028 0.259346 0.953359 -0.154425 -0.357568 -0.824196 0.439143 
-0.169826 -0.885007 0.4335 -0.0730431 -0.879759 0.469776 0.0216698 -0.859358 0.510914 
0.0864955 -0.802169 0.590799 0.0878305 -0.705651 0.703095 0.0331618 -0.668143 0.743294 
0.00407192 -0.704826 0.709368 0.0121641 -0.753798 0.656993 0.0297068 -0.816734 0.576249 
0.101553 -0.857664 0.504082 0.24738 -0.890999 0.380688 -0.464588 -0.775443 0.427605 
-0.535185 -0.727088 0.430023 -0.358952 -0.737355 0.572243 -0.132314 -0.64084 0.756186 
0.0107318 -0.638603 0.769461 0.059959 -0.610301 0.789897 0.124243 -0.609443 0.783034 
0.10193 -0.586375 0.803601 0.0277733 -0.569834 0.82129 -0.013259 -0.597734 0.801584 
-0.0283246 -0.640188 0.767696 -0.00727531 -0.710685 0.703472 0.0592869 -0.757806 0.649781 
0.318681 -0.860524 0.397417 0.253686 -0.805818 0.53507 0.428866 -0.81163 0.39665 
0.65014 -0.691201 0.315531 -0.622938 -0.635031 0.45682 -0.669279 -0.58562 0.45729 
-0.498766 -0.534522 0.682289 -0.208896 -0.407683 0.888908 0.148455 -0.33453 0.930619 
0.0228739 -0.342739 0.939152 -0.0605102 -0.347246 0.93582 -0.107979 -0.333614 0.936505 
0.116512 -0.438932 0.890934 0.288617 -0.526458 0.799714 0.665783 -0.677158 0.313352 
0.645978 -0.671673 0.362723 -0.858528 -0.374023 0.350765 -0.582527 -0.404876 0.704796 
-0.34458 -0.215995 0.91357 0.804545 -0.461684 0.373571 0.503179 -0.478955 0.719314 
0.849949 -0.386239 0.358337 -0.875116 -0.182639 0.448123 -0.51859 -0.200582 0.831162 
0.921407 -0.233593 0.310554 0.84634 -0.259806 0.464984 -0.907034 0.0115033 0.4209 
0.95851 -0.0423831 0.281892 0.818482 -0.0595392 0.571438 -0.917986 0.105177 0.382414 
0.94585 0.153817 0.285845 0.829959 0.183452 0.526795 -0.919509 0.202368 0.336973 
-0.619111 0.146846 0.771452 0.863032 0.380109 0.332705 0.862344 0.381274 0.333157 
0.861536 0.37987 0.33683 -0.881174 0.383574 0.276413 -0.842406 0.481641 0.241609 
-0.761019 0.327451 0.560023 0.809256 0.482863 0.334586 0.722638 0.595412 0.351112 
0.606193 0.456153 0.651502 -0.826594 0.512916 0.231647 0.695587 0.623558 0.356839 
0.641624 0.681746 0.351485 0.554335 0.469033 0.687547 -0.664215 0.729837 0.16173 
-0.657288 0.736573 0.159477 -0.661393 0.724276 0.194895 -0.518823 0.848188 0.10677 
0.611769 0.709129 0.350536 0.51123 0.797959 0.319227 0.508716 0.600906 0.616539 
-0.415299 0.907067 0.0689684 -0.346499 0.936468 0.0544727 -0.383436 0.870673 0.308068 
-0.213087 0.976132 0.0419672 -0.0392938 0.999227 -0.000661185 0.0924509 0.99354 -0.0658156 
0.164858 0.969057 -0.183712 0.0717744 0.972788 -0.220299 -0.0214043 0.994224 -0.105171 
-0.00568726 0.998362 -0.0569258 0.094505 0.988194 0.120586 0.284935 0.821307 0.494233 
0.364974 0.892444 0.265212 0.333667 0.904547 0.265445 0.34613 0.881357 0.321564 
-0.152119 -0.444683 0.882676 0.00885977 -0.480618 0.876885 0.0838243 -0.414952 0.905974 
0.144928 -0.398444 0.90567 -0.0429329 -0.388608 0.920403 0.0990793 -0.38922 0.915801 
-0.203877 -0.39575 0.895442 -0.206344 -0.395444 0.895012 -0.159809 -0.304154 0.939123 
0.000851964 -0.32184 0.946794 0.0836222 -0.289856 0.95341 0.149471 -0.334615 0.930425 
0.146103 -0.335113 0.930781 0.138205 -0.260665 0.955486 0.01678 -0.291131 0.956536 
-0.0491471 -0.243032 0.968772 -0.0827212 -0.33058 0.940146 -0.102744 -0.27081 0.957134 
-0.0480926 -0.335181 0.940925 0.103408 -0.380603 0.918939 0.100807 -0.373297 0.922219 
0.108251 -0.39183 0.913647 0.241097 -0.346782 0.906429 -0.335213 -0.213566 0.917617 
-0.334605 -0.209787 0.91871 -0.197048 -0.214314 0.956683 -0.0564371 -0.165216 0.984641 
0.0048292 -0.102179 0.994754 0.0711572 -0.0762972 0.994543 0.11343 -0.0627191 0.991564 
0.119502 -0.151521 0.981204 0.0134603 -0.277057 0.960759 -0.0376153 -0.170517 0.984637 
-0.0783567 -0.113161 0.990482 -0.0775734 -0.139488 0.987181 -0.0524802 -0.21224 0.975807 
0.100933 -0.285993 0.952901 0.324727 -0.36121 0.874117 0.225005 -0.293361 0.929146 
0.460072 -0.360459 0.81142 -0.441378 -0.200979 0.874525 -0.523367 -0.12066 0.843521 
-0.264578 -0.183165 0.94681 -0.152439 -0.0727647 0.985631 -0.0274517 -0.0971472 0.994891 
0.094953 -0.027397 0.995105 0.10359 -0.00832959 0.994585 0.0750311 -0.0309359 0.996701 
-0.0708484 -0.0818398 0.994124 -0.03126 -0.275054 0.96092 0.127458 -0.105049 0.986265 
-0.0722236 -0.0418678 0.996509 -0.156269 -0.077283 0.984686 -0.0714428 -0.128731 0.989103 
0.0287848 -0.109021 0.993623 0.166343 -0.269482 0.94853 0.517586 -0.201851 0.831481 
0.414306 -0.129253 0.900913 -0.550417 -0.0648851 0.832365 -0.535069 -0.0668175 0.842162 
-0.278963 -0.122862 0.95241 -0.100478 -0.10875 0.988978 -0.0101669 -0.0728629 0.99729 
0.094596 -0.100076 0.990473 0.055702 -0.101326 0.993293 0.0298162 -0.162295 0.986292 
-0.0935687 -0.0981435 0.990764 -0.0986959 -0.00990381 0.995068 0.222958 -0.289534 0.930838 
-0.0595229 -0.187747 0.980412 -0.173948 -0.153534 0.972712 -0.079524 -0.107904 0.990976 
-0.0391101 -0.124684 0.991425 0.184616 -0.0491516 0.981581 0.530609 -0.00733708 0.847585 
0.391344 0.00821248 0.920208 -0.595486 0.0493676 0.801848 -0.589542 0.103354 0.801098 
-0.56898 0.0438765 0.82118 -0.311055 -0.0367024 0.949683 -0.101328 -0.0806362 0.99158 
-0.0158352 -0.12681 0.991801 0.067711 -0.131257 0.989033 0.0526009 -0.140322 0.988708 
0.0737703 0.012017 0.997203 0.0785298 -0.177805 0.980927 -0.203829 -0.0755057 0.976091 
-0.0378503 -0.0699635 0.996831 0.0465751 -0.307201 0.950504 -0.0791291 -0.205796 0.975391 
-0.048168 -0.13194 0.990087 0.0836304 -0.0699607 0.994038 0.245416 0.0746404 0.96654 
0.541196 0.0612191 0.838665 0.460519 0.0224514 0.887366 -0.573953 0.135922 0.807529 
-0.38068 0.0541857 0.923118 -0.185629 -0.0368748 0.981928 -0.0623117 -0.105122 0.992505 
0.0785577 -0.127307 0.988748 0.184146 -0.130554 0.97419 0.022478 -0.108217 0.993873 
-0.152185 -0.216234 0.964408 -0.00259089 -0.141116 0.98999 -0.0646219 -0.0120671 0.997837 
-0.0938419 -0.16709 0.981466 -0.00185851 -0.15806 0.987428 0.0588204 -0.0585469 0.99655 
0.180208 0.0571781 0.981965 0.290516 0.13497 0.947303 0.574763 0.223231 0.787283 
0.540831 0.30484 0.783948 0.50462 0.19298 0.841497 -0.590466 0.220103 0.776469 
-0.471008 0.139611 0.871011 -0.242753 0.0273075 0.969704 -0.104487 -0.0252046 0.994207 
0.040387 -0.113883 0.992673 0.065515 -0.175674 0.982266 -0.00532645 -0.284277 0.958727 
0.0103594 -0.165425 0.986168 0.0292785 -0.133675 0.990593 -0.0784952 -0.122153 0.989402 
-0.0886863 -0.0713272 0.993502 0.039083 -0.0394833 0.998456 0.161403 0.0475237 0.985744 
0.258796 0.193613 0.946329 0.483283 0.374095 0.791512 0.502497 0.405708 0.763477 
0.407949 0.291414 0.865249 -0.647344 0.33661 0.683841 -0.631432 0.362775 0.685338 
-0.612813 0.327338 0.719243 -0.331814 0.170762 0.92776 -0.197953 0.107564 0.974292 
0.0514647 -0.0930485 0.994331 -0.00494927 -0.0679883 0.997674 -0.0189289 0.0186231 0.999647 
0.115905 0.105017 0.987693 0.28294 0.211927 0.935431 0.50023 0.432436 0.750179 
0.446398 0.486913 0.750762 0.372495 0.358968 0.855798 -0.558419 0.583586 0.589573 
-0.521433 0.638035 0.566585 -0.502372 0.548587 0.668337 -0.387368 0.798065 0.461562 
-0.256304 0.361392 0.896495 -0.1833 0.279018 0.94263 0.0663414 0.159824 0.984914 
0.0428597 0.151982 0.987454 0.0938793 0.266119 0.959358 0.297645 0.791578 0.533678 
0.228352 0.386539 0.893556 0.460254 0.532984 0.709996 0.401302 0.638259 0.65695 
0.393137 0.479658 0.784456 -0.362194 0.816101 0.450327 -0.274857 0.835176 0.476378 
-0.256071 0.708769 0.657323 -0.134138 0.900525 0.413596 -0.140065 0.63803 0.757165 
0.0129166 0.940755 0.338842 -0.00902296 0.628534 0.777729 0.116546 0.94842 0.294817 
0.0729299 0.687054 0.722937 0.104823 0.957331 0.269314 0.0814418 0.77944 0.621161 
0.058485 0.949606 0.307942 0.0768755 0.793783 0.603323 0.285517 0.808334 0.514855 
0.158108 0.902537 0.400535 0.177694 0.792025 0.584056 -0.0242337 -0.0283346 0.999305 
0.0182609 -0.122976 0.992242 -0.013338 -0.122941 0.992324 0.0170532 -0.114243 0.993306 
-0.106831 0.0524543 0.992893 -0.098962 0.0929809 0.990738 -0.0675804 0.0298018 0.997269 
0.0138903 -0.116598 0.993082 -0.0141605 -0.10813 0.994036 0.0422217 -0.095811 0.994504 
0.0180827 -0.10333 0.994483 -0.123476 0.195661 0.972867 -0.0969653 0.235404 0.967049 
-0.0875404 0.153392 0.98428 0.00639554 0.170477 0.985341 0.00940625 0.123567 0.992292 
0.0564113 0.154704 0.986349 0.0320468 0.219063 0.975184 0.0292496 0.149162 0.98838 

