# vtk DataFile Version 4.2
vtk output
ASCII
DATASET POLYDATA
POINTS 574 float
-11.1148 -4.04695 -17.6244 25.7866 18.0939 -17.7615 -25.8754 -33.5681 -11.2735 
-18.4951 -33.5681 -11.259 -11.1148 -33.5681 -10.431 -3.73454 -33.5681 -10.2673 
3.64574 -33.5681 -10.429 -40.6359 -26.1878 -10.9355 -33.2557 -26.1878 -13.4946 
-25.8754 -26.1878 -14.2391 -18.4951 -26.1878 -14.4513 -11.1148 -26.1878 -13.7953 
-3.73454 -26.1878 -12.6545 3.64574 -26.1878 -12.3726 11.026 -26.1878 -11.9439 
18.4063 -26.1878 -10.7373 25.7866 -26.1878 -10.9167 33.1668 -26.1878 -10.8546 
40.5471 -26.1878 -11.1339 -48.0162 -18.8075 -10.9979 -40.6359 -18.8075 -14.47 
-33.2557 -18.8075 -14.496 -25.8754 -18.8075 -15.2516 -18.4951 -18.8075 -15.1079 
-11.1148 -18.8075 -14.6688 -3.73454 -18.8075 -12.7836 3.64574 -18.8075 -12.8836 
11.026 -18.8075 -12.2817 18.4063 -18.8075 -12.3034 25.7866 -18.8075 -13.3587 
33.1668 -18.8075 -13.3829 40.5471 -18.8075 -13.8064 47.9274 -18.8075 -11.6471 
-55.3965 -11.4272 -10.9025 -48.0162 -11.4272 -13.2196 -40.6359 -11.4272 -14.3483 
-33.2557 -11.4272 -14.9608 -25.8754 -11.4272 -15.3552 -18.4951 -11.4272 -14.9226 
-11.1148 -4.1222 -17.6028 -11.1148 -11.4272 -15.4373 -3.73454 -11.4272 -13.9029 
3.64574 -11.4272 -13.9782 11.026 -11.4272 -13.1054 18.4063 -11.4272 -13.2854 
25.7866 -11.4272 -14.3474 33.1668 -11.4272 -15.3264 40.5471 -11.4272 -14.4549 
47.9274 -11.4272 -13.6985 55.3077 -11.4272 -11.988 -55.3965 -4.04695 -12.3635 
-48.0162 -4.04695 -15.241 -40.6359 -4.04695 -15.571 -33.2557 -4.04695 -15.7173 
-25.8754 -4.04695 -15.3865 -11.1808 -4.04695 -17.6028 -18.4951 -4.04695 -15.2272 
-10.988 -4.04695 -17.6028 -11.1148 -3.9669 -17.6028 -3.73454 -4.04695 -15.8982 
3.64574 -4.04695 -16.355 11.026 -4.04695 -13.9377 18.4063 -4.04695 -13.2101 
25.7866 -4.04695 -14.5257 33.1668 -4.04695 -15.0965 40.5471 -4.04695 -14.7762 
47.9274 -4.04695 -14.3802 55.3077 -4.04695 -12.6378 -55.3965 3.33333 -12.7947 
-48.0162 3.33333 -16.2443 -40.6359 3.33333 -16.1438 -33.2557 3.33333 -16.117 
-25.8754 3.33333 -15.6645 -18.4951 3.33333 -15.104 -11.1148 3.33333 -15.5664 
-3.73454 3.33333 -13.7139 3.64574 3.33333 -14.8739 11.026 3.33333 -13.4592 
18.4063 3.33333 -13.5752 25.7866 3.33333 -14.6471 33.1668 3.33333 -15.2472 
40.5471 3.33333 -15.2031 47.9274 3.33333 -14.4184 55.3077 3.33333 -12.4301 
-55.3965 10.7136 -11.9686 -48.0162 10.7136 -15.2698 -40.6359 10.7136 -15.6976 
-33.2557 10.7136 -15.9726 -25.8754 10.7136 -15.5388 -18.4951 10.7136 -14.7883 
-11.1148 10.7136 -14.966 -3.73454 10.7136 -16.4961 3.64574 10.7136 -13.247 
11.026 10.7136 -14.1154 18.4063 10.7136 -15.5829 25.7866 17.3473 -17.6028 
25.7866 10.7136 -16.1828 33.1668 10.7136 -16.3075 40.5471 10.7136 -15.1813 
47.9274 10.7136 -13.9333 55.3077 10.7136 -11.0621 -48.0162 18.0939 -13.0065 
-40.6359 18.0939 -14.8067 -33.2557 18.0939 -16.495 -25.8754 18.0939 -16.0973 
-18.4951 18.0939 -15.643 -11.1148 18.0939 -15.7046 -3.73454 18.0939 -15.0482 
3.64574 18.0939 -13.998 11.026 18.0939 -15.0874 24.5319 18.0939 -17.6028 
18.4063 18.0939 -16.8294 27.3526 18.0939 -17.6028 25.7866 20.0331 -17.6028 
33.1668 18.0939 -16.984 40.5471 18.0939 -15.1958 47.9274 18.0939 -12.9801 
-48.0162 25.4742 -11.4285 -40.6359 25.4742 -14.4763 -33.2557 25.4742 -15.3106 
-25.8754 25.4742 -15.7103 -18.4951 25.4742 -16.074 -11.1148 25.4742 -15.569 
-3.73454 25.4742 -14.8402 3.64574 25.4742 -14.728 11.026 25.4742 -15.593 
18.4063 25.4742 -17.1096 25.7866 25.4742 -17.1528 33.1668 25.4742 -16.7188 
40.5471 25.4742 -14.2067 47.9274 25.4742 -10.5248 -40.6359 32.8544 -12.18 
-33.2557 32.8544 -14.3494 -25.8754 32.8544 -14.3285 -18.4951 32.8544 -15.0612 
-11.1148 32.8544 -14.7312 -3.73454 32.8544 -13.7567 3.64574 32.8544 -14.2847 
11.026 32.8544 -15.0029 18.4063 32.8544 -16.5424 25.7866 32.8544 -15.9571 
33.1668 32.8544 -13.6289 40.5471 32.8544 -10.341 -25.8754 40.2347 -10.4774 
-18.4951 40.2347 -10.5182 3.64574 40.2347 -10.7259 11.026 40.2347 -11.611 
18.4063 40.2347 -11.3899 -25.8754 -34.7046 -10.2225 -18.4951 -34.7201 -10.2225 
-11.1148 -33.7893 -10.2225 -3.73454 -33.6264 -10.2225 3.64574 -33.877 -10.2225 
-40.6359 -27.763 -10.2225 -40.6359 -33.5681 -6.14182 -30.2096 -33.5681 -10.2225 
-33.2557 -32.5099 -10.2225 -33.2557 -33.5681 -9.31121 5.11526 -33.5681 -10.2225 
11.026 -31.2756 -10.2225 11.026 -33.5681 -9.25494 18.4063 -27.4519 -10.2225 
18.4063 -33.5681 -7.3386 25.7866 -27.7179 -10.2225 25.7866 -33.5681 -7.25243 
33.1668 -27.1702 -10.2225 33.1668 -33.5681 -5.56937 40.5471 -27.5453 -10.2225 
40.5471 -33.5681 -4.00826 -42.9546 -26.1878 -10.2225 -48.0162 -21.3174 -10.2225 
-48.0162 -26.1878 -8.31322 45.5205 -26.1878 -10.2225 47.9274 -24.2026 -10.2225 
47.9274 -26.1878 -9.47828 55.3077 -26.1878 -3.26881 -49.7295 -18.8075 -10.2225 
-55.3965 -13.1582 -10.2225 -55.3965 -18.8075 -6.95389 52.5793 -18.8075 -10.2225 
55.3077 -16.7905 -10.2225 55.3077 -18.8075 -9.23086 -56.3385 -11.4272 -10.2225 
57.9353 -11.4272 -10.2225 62.688 -11.4272 -4.9197 -58.3079 -4.04695 -10.2225 
-62.7768 -4.04695 -3.48698 58.9157 -4.04695 -10.2225 62.688 -4.04695 -5.92981 
-58.7535 3.33333 -10.2225 -62.7768 3.33333 -3.07674 58.4536 3.33333 -10.2225 
62.688 3.33333 -5.28901 -57.6074 10.7136 -10.2225 -55.3965 15.4626 -10.2225 
56.5006 10.7136 -10.2225 55.3077 14.322 -10.2225 -53.0759 18.0939 -10.2225 
-55.3965 18.0939 -7.82739 53.0586 18.0939 -10.2225 55.3077 18.0939 -8.42655 
-49.6902 25.4742 -10.2225 -48.0162 27.5562 -10.2225 48.3021 25.4742 -10.2225 
47.9274 25.9101 -10.2225 -43.5275 32.8544 -10.2225 -40.6359 35.3683 -10.2225 
-33.2557 39.411 -10.2225 -11.1148 39.3101 -10.2225 -3.73454 39.2607 -10.2225 
25.7866 39.7705 -10.2225 33.1668 36.9683 -10.2225 40.6949 32.8544 -10.2225 
40.5471 32.9685 -10.2225 -28.1513 40.2347 -10.2225 -33.2557 40.2347 -7.18304 
-25.8754 40.4398 -10.2225 -16.5635 40.2347 -10.2225 -18.4951 40.4673 -10.2225 
-11.1148 40.2347 -8.04199 0.323397 40.2347 -10.2225 -3.73454 40.2347 -7.94786 
3.64574 40.7989 -10.2225 11.026 41.7389 -10.2225 23.6465 40.2347 -10.2225 
18.4063 41.344 -10.2225 25.7866 40.2347 -7.01437 -40.6359 -35.6429 -2.84225 
-33.2557 -37.7825 -2.84225 -25.8754 -39.2504 -2.84225 -18.4951 -38.4207 -2.84225 
-11.1148 -37.7707 -2.84225 -3.73454 -38.4591 -2.84225 3.64574 -39.8065 -2.84225 
11.026 -39.9838 -2.84225 11.026 -40.9483 2.70279 18.4063 -38.6985 -2.84225 
25.7866 -37.3339 -2.84225 33.1668 -35.8242 -2.84225 40.5471 -34.3746 -2.84225 
-44.7702 -33.5681 -2.84225 -48.0162 -31.5591 -2.84225 42.4926 -33.5681 -2.84225 
47.9274 -30.9835 -2.84225 55.3077 -26.6575 -2.84225 -53.4483 -26.1878 -2.84225 
-55.3965 -23.7966 -2.84225 55.6965 -26.1878 -2.84225 -58.5966 -18.8075 -2.84225 
61.9553 -18.8075 -2.84225 62.688 -16.7876 -2.84225 -62.0985 -11.4272 -2.84225 
-62.7768 -6.71632 -2.84225 64.2105 -11.4272 -2.84225 -63.1301 -4.04695 -2.84225 
-62.7768 -4.04695 -0.822242 64.9152 -4.04695 -2.84225 -62.8904 3.33333 -2.84225 
-62.7768 3.92513 -2.84225 -62.7768 3.33333 -2.38422 64.4118 3.33333 -2.84225 
62.688 8.4012 -2.84225 -61.3587 10.7136 -2.84225 61.837 10.7136 -2.84225 
-57.7859 18.0939 -2.84225 -55.3965 22.2401 -2.84225 -55.3965 18.0939 3.17068 
58.4972 18.0939 -2.84225 55.3077 22.1021 -2.84225 -53.2054 25.4742 -2.84225 
-48.0162 31.6021 -2.84225 52.2014 25.4742 -2.84225 47.9274 29.4662 -2.84225 
-46.7167 32.8544 -2.84225 -40.6359 37.4089 -2.84225 33.1668 38.0639 -2.84225 
43.2287 32.8544 -2.84225 40.5471 34.587 -2.84225 40.5471 32.8544 1.82565 
-34.6793 40.2347 -2.84225 -33.2557 40.8225 -2.84225 -33.2557 40.2347 -1.73233 
-25.8754 42.2962 -2.84225 -25.8754 40.2347 1.34086 -18.4951 42.2572 -2.84225 
-18.4951 40.2347 0.928732 -11.1148 41.5227 -2.84225 -11.1148 40.2347 -0.514522 
-3.73454 41.4656 -2.84225 -3.73454 40.2347 -0.580925 3.64574 42.4673 -2.84225 
3.64574 40.2347 1.26007 11.026 42.9837 -2.84225 11.026 40.2347 2.33685 
18.4063 42.5727 -2.84225 18.4063 40.2347 1.73551 27.2245 40.2347 -2.84225 
25.7866 40.7322 -2.84225 25.7866 40.2347 -1.85801 11.026 -41.2237 4.53802 
-40.6359 -36.0191 4.53802 -33.2557 -37.6688 4.53802 -25.8754 -39.1171 4.53802 
-18.4951 -38.2366 4.53802 -11.1148 -37.7784 4.53802 -3.73454 -38.6181 4.53802 
8.98031 -40.9483 4.53802 3.64574 -40.2461 4.53802 14.5244 -40.9483 4.53802 
11.026 -40.9483 5.1955 18.4063 -40.646 4.53802 25.7866 -39.4695 4.53802 
33.1668 -37.8008 4.53802 40.5471 -35.6243 4.53802 -45.4252 -33.5681 4.53802 
-48.0162 -31.6669 4.53802 -40.6359 -33.5681 9.3347 33.1668 -33.5681 11.8031 
45.3503 -33.5681 4.53802 40.5471 -33.5681 7.85233 47.9274 -32.3498 4.53802 
55.3077 -26.989 4.53802 -54.1981 -26.1878 4.53802 -55.3965 -24.7186 4.53802 
47.9274 -26.1878 10.7605 56.046 -26.1878 4.53802 55.3077 -26.1878 5.49021 
-58.4486 -18.8075 4.53802 -55.3965 -18.8075 8.54517 61.5956 -18.8075 4.53802 
62.688 -16.1867 4.53802 -60.7321 -11.4272 4.53802 55.3077 -11.4272 11.8645 
64.0544 -11.4272 4.53802 62.688 -11.4272 6.446 -61.3644 -4.04695 4.53802 
-55.3965 -4.04695 11.3287 64.7433 -4.04695 4.53802 62.688 -4.04695 7.43591 
-60.0259 3.33333 4.53802 -55.3965 3.33333 8.99805 63.8958 3.33333 4.53802 
62.688 6.9308 4.53802 62.688 3.33333 6.26238 -57.2091 10.7136 4.53802 
-55.3965 15.8737 4.53802 -55.3965 10.7136 6.32785 -48.0162 10.7136 10.5907 
61.0009 10.7136 4.53802 55.3077 10.7136 11.4974 -54.2872 18.0939 4.53802 
-48.0162 18.0939 8.5447 -40.6359 18.0939 10.8721 -11.1148 18.0939 11.8404 
47.9274 18.0939 11.0136 56.9607 18.0939 4.53802 55.3077 19.9933 4.53802 
55.3077 18.0939 6.57635 -49.0993 25.4742 4.53802 -48.0162 26.6286 4.53802 
-48.0162 25.4742 5.33569 -40.6359 25.4742 8.41774 -33.2557 25.4742 9.76636 
-25.8754 25.4742 10.541 -18.4951 25.4742 9.97017 -11.1148 25.4742 9.39932 
-3.73454 25.4742 9.59722 3.64574 25.4742 10.4785 11.026 25.4742 11.0738 
18.4063 25.4742 11.4447 25.7866 25.4742 11.6199 33.1668 25.4742 11.586 
40.5471 31.328 4.53802 40.5471 25.4742 9.15515 48.8817 25.4742 4.53802 
47.9274 26.1982 4.53802 47.9274 25.4742 5.51977 -40.8721 32.8544 4.53802 
-40.6359 33.0186 4.53802 -40.6359 32.8544 4.67789 -33.2557 34.6884 4.53802 
[...]
POINT_DATA 574
SCALARS ImageScalars float
LOOKUP_TABLE default
0 0 0 0 0 0 0 0 0 
0 0 0 0 0 0 0 0 0 
0 0 0 0 0 0 0 0 0 
0 0 0 0 0 0 0 0 0 
0 0 0 0 0 0 0 0 0 
0 0 0 0 0 0 0 0 0 
0 0 0 0 0 0 0 0 0 
0 0 0 0 0 0 0 0 0 
0 0 0 0 0 0 0 0 0 
0 0 0 0 0 0 0 0 0 
0 0 0 0 0 0 0 0 0 
0 0 0 0 0 0 0 0 0 
0 0 0 0 0 0 0 0 0 
0 0 0 0 0 0 0 0 0 
0 0 0 0 0 0 0 0 0 
0 0 0 0 0 0 0 0 0 
0 0 0 0 0 0 0 0 0 
0 0 0 0 0 0 0 0 0 
0 0 0 0 0 0 0 0 0 
0 0 0 0 0 0 0 0 0 
0 0 0 0 0 0 0 0 0 
0 0 0 0 0 0 0 0 0 
0 0 0 0 0 0 0 0 0 
0 0 0 0 0 0 0 0 0 
0 0 0 0 0 0 0 0 0 
0 0 0 0 0 0 0 0 0 
0 0 0 0 0 0 0 0 0 
0 0 0 0 0 0 0 0 0 
0 0 0 0 0 0 0 0 0 
0 0 0 0 0 0 0 0 0 
0 0 0 0 0 0 0 0 0 
0 0 0 0 0 0 0 0 0 
0 0 0 0 0 0 0 0 0 
0 0 0 0 0 0 0 0 0 
0 0 0 0 0 0 0 0 0 
0 0 0 0 0 0 0 0 0 
0 0 0 0 0 0 0 0 0 
0 0 0 0 0 0 0 0 0 
0 0 0 0 0 0 0 0 0 
0 0 0 0 0 0 0 0 0 
0 0 0 0 0 0 0 0 0 
0 0 0 0 0 0 0 0 0 
0 0 0 0 0 0 0 0 0 
0 0 0 0 0 0 0 0 0 
0 0 0 0 0 0 0 0 0 
0 0 0 0 0 0 0 0 0 
0 0 0 0 0 0 0 0 0 
0 0 0 0 0 0 0 0 0 
0 0 0 0 0 0 0 0 0 
0 0 0 0 0 0 0 0 0 
0 0 0 0 0 0 0 0 0 
0 0 0 0 0 0 0 0 0 
0 0 0 0 0 0 0 0 0 
0 0 0 0 0 0 0 0 0 
0 0 0 0 0 0 0 0 0 
0 0 0 0 0 0 0 0 0 
0 0 0 0 0 0 0 0 0 
0 0 0 0 0 0 0 0 0 
0 0 0 0 0 0 0 0 0 
0 0 0 0 0 0 0 0 0 
0 0 0 0 0 0 0 0 0 
0 0 0 0 0 0 0 0 0 
0 0 0 0 0 0 0 0 0 
0 0 0 0 0 0 0 
NORMALS Normals float
0.0801215 0.00867838 0.996747 0.0129 0.0669987 0.99767 0.104433 0.591876 0.799235 
-0.0495941 0.63042 0.774668 -0.0653045 0.661469 0.747124 0.00163821 0.544715 0.83862 
-0.0585823 0.461599 0.885152 0.316164 0.393901 0.863066 0.191031 0.279681 0.940896 
0.0678521 0.227892 0.971319 -0.0292015 0.231206 0.972467 -0.120095 0.245774 0.961859 
-0.0934223 0.158864 0.982871 -0.0478223 0.159115 0.986101 -0.105472 0.182888 0.97746 
-0.072227 0.291805 0.953747 0.00850361 0.382058 0.924099 0.0175352 0.448721 0.8935 
-0.07937 0.496932 0.864152 0.378542 0.2696 0.88545 0.209803 0.196545 0.957785 
0.0540667 0.105022 0.992999 0.0395879 0.0710182 0.996689 -0.0388543 0.0307074 0.998773 
-0.147225 0.107376 0.983257 -0.12048 0.0695165 0.990279 -0.0342721 0.0918622 0.995182 
-0.0390496 0.07641 0.996312 0.0696016 0.166342 0.983609 0.0751499 0.217455 0.973173 
0.0272005 0.273376 0.961523 -0.106738 0.2412 0.964588 -0.248703 0.263883 0.93194 
0.461318 0.277261 0.8428 0.236955 0.252767 0.938062 0.106422 0.0730845 0.991632 
0.0659436 0.0800966 0.994603 -0.00255042 0.00909817 0.999955 0.00415033 0.00801473 0.999959 
0.0793209 0.0107888 0.996791 -0.0504573 0.202995 0.977879 -0.110453 0.19189 0.975181 
-0.06032 0.237941 0.969405 -0.036283 0.102235 0.994098 0.0833229 0.0611709 0.994643 
0.135382 0.0749022 0.987958 0.0074513 0.108405 0.994079 -0.104073 0.0610782 0.992692 
-0.192829 0.177837 0.964982 -0.417812 0.175602 0.891402 0.486649 0.128875 0.864039 
0.235535 0.172774 0.956385 0.0294534 0.120369 0.992292 -0.0127381 0.0780798 0.996866 
-0.033104 0.0209414 0.999232 0.0809663 0.00888513 0.996677 0.146831 0.0128839 0.989078 
0.0778017 0.00852679 0.996932 0.0789443 0.00669595 0.996857 -0.102253 -0.0108435 0.994699 
-0.112923 0.0395372 0.992817 -0.215053 0.0301492 0.976137 0.0472249 0.0198207 0.998688 
0.126755 0.0208314 0.991715 0.0139216 -0.00496061 0.999891 -0.0461168 0.0498864 0.99769 
-0.173418 0.0470233 0.983725 -0.399123 0.0331078 0.9163 0.499026 -0.0265367 0.866181 
0.24265 0.00443553 0.970104 -0.00763584 0.00889948 0.999931 -0.0324085 0.0172456 0.999326 
-0.0671547 0.0102932 0.997689 -0.00818678 -0.0302087 0.99951 -0.0700203 -0.177245 0.981673 
-0.0591132 0.0713108 0.995701 -0.0245547 -0.194628 0.98057 -0.0886841 0.0220524 0.995816 
0.0805076 0.155445 0.984559 0.112286 0.110696 0.987491 0.0370132 0.0816809 0.995971 
-0.0525288 0.0274095 0.998243 -0.212514 -0.0271136 0.976782 -0.433185 -0.109205 0.894665 
0.536779 -0.237599 0.809577 0.268018 -0.179191 0.946603 0.0433197 -0.0898039 0.995017 
-0.0114018 0.0240912 0.999645 -0.079958 0.0279956 0.996405 -0.0395325 0.037927 0.998498 
0.104634 0.0101174 0.994459 -0.0945405 0.0584777 0.993802 -0.146912 -0.0557823 0.987575 
0.150564 0.107891 0.982695 0.138137 0.218197 0.966079 0.0158564 0.0816387 0.996536 
0.0462949 0.201868 0.978318 -0.0665239 0.114926 0.991144 -0.149403 -0.000538103 0.988776 
-0.312098 -0.0867729 0.946079 -0.494935 -0.212047 0.84266 0.385908 -0.247107 0.888827 
0.20983 -0.0762427 0.974761 0.0867544 -0.0410119 0.995385 -0.057457 0.0118469 0.998278 
-0.0256119 0.08626 0.995943 -0.0385369 0.0412231 0.998407 -0.116134 -0.100428 0.988143 
0.004967 0.0934477 0.995612 0.194235 0.100233 0.975821 0.0416864 0.0720432 0.99653 
0.173795 0.0968644 0.980007 -0.026114 0.0602964 0.997839 0.00397759 0.0178314 0.999833 
-0.16786 0.0302267 0.985347 -0.231723 -0.0635464 0.970704 -0.424111 -0.229944 0.875931 
0.506851 -0.386685 0.770439 0.274029 -0.188394 0.943088 0.0760844 -0.135835 0.987806 
0.0496173 -0.108512 0.992856 -0.00989276 -0.0294598 0.999517 -0.0840502 -0.0567924 0.994842 
-0.0580775 -0.088704 0.994363 0.0507121 0.0175253 0.99856 0.159392 -0.00881051 0.987176 
0.107229 -0.0138763 0.994137 -0.0235695 -0.118172 0.992713 -0.20733 -0.213877 0.954605 
-0.392389 -0.270401 0.879155 -0.599941 -0.437653 0.669724 0.452618 -0.505125 0.734837 
0.157326 -0.352033 0.922671 0.0467101 -0.313873 0.948315 0.0309499 -0.315428 0.948445 
-0.0962817 -0.292084 0.951534 -0.0173285 -0.334787 0.942135 0.0918576 -0.252933 0.963113 
0.144125 -0.246527 0.958359 0.0741721 -0.308675 0.948271 -0.185389 -0.359555 0.914523 
-0.34852 -0.534537 0.769938 -0.524579 -0.680369 0.511777 0.0525527 -0.803421 0.593088 
-0.0556087 -0.821793 0.567065 0.135323 -0.734851 0.664591 0.047865 -0.720187 0.692126 
-0.0952889 -0.786448 0.610262 0.102966 0.655546 0.748102 -0.0510318 0.696026 0.716201 
-0.0632205 0.673935 0.736081 0.00263134 0.548254 0.836307 -0.0559667 0.478729 0.876177 
0.329241 0.436114 0.837499 0.392441 0.7578 0.521276 0.172059 0.631221 0.756278 
0.213904 0.596731 0.773406 0.221527 0.679463 0.699468 -0.0823372 0.46467 0.881648 
-0.154935 0.381326 0.911365 -0.173132 0.497644 0.849927 -0.0824782 0.324045 0.94244 
-0.120936 0.561947 0.818285 -0.014062 0.421955 0.906508 -0.0943457 0.640705 0.761968 
0.00393383 0.477193 0.87879 -0.178749 0.747696 0.639531 -0.065547 0.554279 0.829746 
-0.264543 0.833226 0.485542 0.348657 0.403122 0.846127 0.39847 0.320046 0.85953 
0.479117 0.496713 0.723687 -0.290252 0.426916 0.856444 -0.361489 0.342723 0.867102 
-0.398001 0.418479 0.816377 -0.658247 0.642485 0.392332 0.408235 0.312672 0.85766 
0.471462 0.339065 0.8141 0.632816 0.525275 0.568885 -0.42539 0.398211 0.812694 
-0.495307 0.41244 0.764568 -0.535998 0.484396 0.691424 0.503867 0.281622 0.816582 
-0.54364 0.234079 0.806016 -0.855851 0.209865 0.472733 0.630131 0.128441 0.765793 
0.970419 0.0567927 0.234653 -0.58919 0.0270276 0.807542 -0.854938 0.0194905 0.518364 
0.677137 -0.0431892 0.734588 0.985434 -0.109724 0.129925 -0.590018 -0.123489 0.79789 
-0.871032 -0.180066 0.457034 0.653512 -0.262588 0.709908 0.605079 -0.354605 0.712836 
-0.551209 -0.238999 0.799405 -0.573929 -0.304052 0.760367 0.559367 -0.350579 0.751135 
0.744598 -0.451393 0.491749 -0.580263 -0.341544 0.739353 -0.694591 -0.437056 0.571424 
0.603707 -0.426334 0.67363 0.578874 -0.452848 0.678111 -0.611097 -0.448441 0.652274 
-0.611345 -0.454599 0.647764 0.547276 -0.557899 0.623889 0.486257 -0.62072 0.615029 
0.284027 -0.764669 0.578454 -0.0618463 -0.830158 0.554088 0.073818 -0.738033 0.670715 
-0.236711 -0.888005 0.394227 -0.407195 -0.774704 0.483761 -0.528046 -0.682869 0.504835 
-0.52571 -0.685592 0.503581 0.130822 -0.811741 0.569176 0.315725 -0.919266 0.235093 
0.0506059 -0.818836 0.571793 -0.0605667 -0.840724 0.538065 -0.0578891 -0.836665 0.544648 
-0.0649336 -0.952346 0.298027 0.109499 -0.764312 0.635482 0.0796537 -0.912325 0.401646 
0.136384 -0.769126 0.624375 0.0332923 -0.817322 0.575219 -0.20646 -0.880839 0.426024 
-0.129101 -0.84094 0.525503 -0.275545 -0.953067 0.125452 0.384838 0.872048 0.302377 
0.229501 0.943369 0.239551 0.041256 0.974869 0.218925 -0.0977835 0.977805 0.1853 
0.00277064 0.977006 0.213193 0.134386 0.95815 0.252764 0.104563 0.94841 0.299308 
-0.0556849 0.907396 0.416572 0.010896 0.999921 -0.00625546 -0.170602 0.845777 0.505526 
-0.172479 0.837502 0.518499 -0.207795 0.854097 0.476802 -0.299866 0.855198 0.42275 
0.489755 0.813814 0.312806 0.576068 0.752846 0.318385 -0.317387 0.866746 0.38473 
-0.374723 0.877755 0.298546 -0.658855 0.655666 0.3688 0.698035 0.632081 0.336482 
0.734568 0.590614 0.334043 -0.67268 0.645307 0.362049 0.836962 0.491698 0.240268 
-0.819121 0.452522 0.352512 -0.849647 0.388667 0.356424 0.93682 0.27208 0.219866 
0.96918 0.135358 0.205838 -0.924711 0.199267 0.324349 0.981022 0.0528038 0.186567 
0.999347 0.0348079 0.00974285 -0.953083 0.0131704 0.302421 0.987208 -0.110947 0.114503 
0.98546 -0.127491 0.112312 0.989969 -0.116942 0.0792791 -0.938529 -0.200034 0.281335 
-0.910016 -0.323693 0.259024 0.942462 -0.331963 0.0395642 -0.899221 -0.370534 0.232606 
0.886344 -0.462226 0.0272163 0.840308 -0.542063 0.00704582 0.740038 -0.418169 -0.526763 
-0.837473 -0.516031 0.179864 -0.766655 -0.630956 0.118885 0.78589 -0.618005 -0.0211501 
0.706491 -0.705186 -0.0598591 -0.703794 -0.707593 0.0631383 -0.636896 -0.770832 -0.0134365 
0.685981 -0.723614 -0.0762354 0.537142 -0.832215 -0.137466 -0.382655 -0.908967 -0.165389 
-0.542724 -0.837954 -0.0572969 -0.492508 -0.866183 -0.0846374 -0.454837 -0.8113 -0.367309 
0.329936 -0.927152 -0.177569 0.286504 -0.942458 -0.172303 0.302789 -0.922987 -0.237517 
0.0984185 -0.987064 -0.126563 0.100374 -0.864804 -0.491974 -0.0544205 -0.98497 -0.163928 
-0.0725701 -0.87968 -0.469996 -0.0570436 -0.987077 -0.149747 -0.0620677 -0.928448 -0.36624 
0.0672288 -0.986918 -0.146538 0.0730696 -0.931803 -0.355534 0.10703 -0.979082 -0.173039 
0.112896 -0.870358 -0.479304 0.00739323 -0.982457 -0.186345 0.0196934 -0.829909 -0.557551 
-0.153137 -0.972408 -0.175986 -0.148172 -0.850374 -0.504886 -0.315445 -0.929948 -0.18892 
-0.294687 -0.936533 -0.189911 -0.294008 -0.92237 -0.250586 0.0262698 0.991328 -0.128761 
0.358134 0.910726 -0.205715 0.194467 0.960607 -0.198535 0.035833 0.975472 -0.217187 
-0.0858032 0.982465 -0.165533 0.0256156 0.991883 -0.12455 0.164193 0.976713 -0.138103 
0.0684663 0.988187 -0.137109 0.174427 0.972216 -0.156114 -0.0402184 0.992573 -0.114814 
0.0264983 0.984953 -0.17078 -0.114788 0.988715 -0.0962631 -0.191779 0.97923 -0.0658007 
-0.26351 0.961388 -0.0793426 -0.34152 0.923251 -0.175985 0.516056 0.827133 -0.222569 
0.604742 0.759877 -0.238483 0.382992 0.773611 -0.50482 -0.307909 0.600071 -0.738313 
-0.409049 0.896415 -0.170642 -0.341876 0.829923 -0.440849 -0.456553 0.871531 -0.178866 
-0.727057 0.627767 -0.278024 0.738529 0.629871 -0.240494 0.776944 0.572134 -0.262716 
-0.41913 0.476038 -0.773122 -0.744154 0.60689 -0.279141 -0.72605 0.606862 -0.323372 
0.864944 0.361519 -0.348104 0.70753 0.329954 -0.624925 -0.81955 0.44608 -0.359653 
-0.857053 0.36075 -0.367859 0.872824 0.182896 -0.452467 -0.490013 0.0286413 -0.871244 
-0.920459 0.195729 -0.338298 -0.851804 0.205059 -0.482059 0.858151 -0.0287264 -0.512593 
0.554782 -0.137285 -0.820591 -0.93349 -0.0121177 -0.358399 -0.861044 -0.00937701 -0.508445 
0.766259 -0.199365 -0.61082 0.567952 -0.217139 -0.793903 -0.901032 -0.221272 -0.373068 
-0.877653 -0.307809 -0.367394 -0.861343 -0.219458 -0.458178 0.719522 -0.275588 -0.637448 
0.678872 -0.346142 -0.647548 0.67277 -0.281656 -0.684142 0.362758 -0.202555 -0.909603 
-0.839057 -0.397024 -0.371961 -0.552111 -0.247746 -0.796113 0.647732 -0.38148 -0.659481 
0.440219 -0.34042 -0.830856 0.181983 -0.266497 -0.9465 0.0217316 -0.341738 -0.939544 
-0.411121 -0.425908 -0.805966 -0.720809 -0.552847 -0.418084 -0.680074 -0.593477 -0.430447 
-0.641366 -0.549695 -0.535243 0.544099 -0.50211 -0.672191 0.533584 -0.500455 -0.681786 
0.486868 -0.46648 -0.738482 0.296795 -0.425179 -0.855064 0.111048 -0.340969 -0.933493 
0.0147511 -0.30347 -0.952727 -0.0695242 -0.335092 -0.939617 -0.027038 -0.349394 -0.936586 
0.0670527 -0.392855 -0.917153 0.0913675 -0.362489 -0.927499 0.0604539 -0.323161 -0.944411 
0.0328969 -0.408233 -0.912285 0.0092881 -0.478395 -0.878096 -0.127213 -0.51188 -0.849586 
-0.398357 -0.727389 -0.558764 -0.270115 -0.601346 -0.751945 -0.529046 -0.706798 -0.469625 
-0.508963 -0.716895 -0.476465 -0.495875 -0.695662 -0.519771 0.357377 -0.589609 -0.724322 
0.34623 -0.592432 -0.727426 0.3432 -0.585765 -0.73423 0.179499 -0.608588 -0.772917 
0.150105 -0.525714 -0.837313 0.0810836 -0.625018 -0.776388 0.044295 -0.490809 -0.870141 
-0.0640081 -0.616571 -0.784693 -0.0627582 -0.487497 -0.870866 -0.0410827 -0.55925 -0.82798 
-0.0339551 -0.494158 -0.868709 0.0775244 -0.563577 -0.822417 0.0727367 -0.493432 -0.866738 
0.109015 -0.642799 -0.758238 0.103089 -0.470652 -0.876276 0.0220616 -0.680111 -0.732777 
0.0276053 -0.476376 -0.878808 -0.116964 -0.675378 -0.728138 -0.056227 -0.519624 -0.852543 
-0.164392 -0.697982 -0.69699 -0.0982831 -0.622332 -0.776559 -0.31958 -0.747689 -0.58209 
-0.22145 -0.741499 -0.633355 -0.187461 -0.714234 -0.674335 0.205401 0.753585 -0.624436 
0.0836217 0.815661 -0.572455 0.016594 0.879561 -0.475497 0.0249207 0.902191 -0.430617 
0.0659212 0.864113 -0.498962 0.0708728 0.792679 -0.605506 -0.00521617 0.732256 -0.681009 
-0.0836499 0.725797 -0.682804 -0.169704 0.71545 -0.67774 0.522445 0.407152 -0.749185 
0.270817 0.715792 -0.643661 0.36308 0.590982 -0.720356 0.21001 0.714106 -0.667794 
0.114115 0.725585 -0.678604 0.0494342 0.779365 -0.624617 0.0148148 0.780521 -0.624954 
0.00568583 0.71963 -0.694335 -0.00518633 0.611353 -0.791341 -0.0427073 0.554223 -0.831272 
-0.074836 0.557308 -0.826927 -0.303399 0.594092 -0.744986 -0.179005 0.581501 -0.793608 
-0.305212 0.588395 -0.748757 -0.29592 0.528239 -0.795861 0.526563 0.4034 -0.748331 
0.519415 0.401609 -0.754267 0.33634 0.342785 -0.87714 0.283482 0.311479 -0.906983 
0.134411 0.30683 -0.942226 -0.0907421 0.23757 -0.967123 -0.0616057 0.207956 -0.976196 
-0.061908 0.22458 -0.972487 -0.0946005 0.239598 -0.966252 -0.128641 0.25076 -0.959464 
-0.194641 0.330476 -0.923526 -0.354679 0.414004 -0.838334 -0.271775 0.366612 -0.889795 
-0.339506 0.390388 -0.855764 -0.536356 0.282052 -0.795468 0.491207 0.209756 -0.84541 
0.606468 0.149297 -0.780966 0.452518 0.174109 -0.874593 0.315138 0.131079 -0.93995 
0.241188 0.0367943 -0.969781 -0.0719273 -0.0146941 -0.997302 -0.034758 0.0331296 -0.998846 
-0.0674093 0.0580762 -0.996034 -0.104877 0.0721974 -0.991861 -0.145148 0.120258 -0.982074 
-0.157879 0.190753 -0.968859 -0.247278 0.271073 -0.930254 -0.539752 0.262602 -0.799818 
-0.495621 0.0584399 -0.866571 -0.527131 0.250148 -0.812132 0.615446 0.12856 -0.777624 
0.584263 0.0108312 -0.811492 0.605846 0.126231 -0.785504 0.341586 0.0454308 -0.938752 
0.194752 -0.0493672 -0.979609 0.208089 -0.0724957 -0.97542 -0.109517 -0.142667 -0.983693 
0.0128417 -0.0473245 -0.998797 0.0131661 -0.00673093 -0.999891 -0.0582472 -0.00946424 -0.998257 
-0.0628661 0.0078101 -0.997991 -0.0735744 0.0591178 -0.995536 -0.168587 0.0992697 -0.980675 
-0.485961 0.0287902 -0.873506 -0.292467 0.08639 -0.952365 -0.487742 0.0263148 -0.872591 
0.504784 -0.143761 -0.851191 0.312114 -0.163583 -0.935856 0.209311 -0.144959 -0.967045 
0.197369 -0.152701 -0.968363 0.169655 -0.16485 -0.971618 -0.133942 -0.17426 -0.975547 
-0.0417061 -0.230982 -0.972064 0.0655961 -0.0168315 -0.997704 0.00357559 -0.0381895 -0.999264 
-0.0529912 0.00973165 -0.998548 -0.0377036 0.0410788 -0.998444 -0.0571518 0.051568 -0.997033 
-0.140541 0.0100683 -0.990024 -0.278706 0.0260452 -0.960023 -0.529364 0.00992886 -0.848336 
-0.462149 0.0140622 -0.886691 0.336142 -0.214346 -0.917096 0.309253 -0.207249 -0.928122 
0.304915 -0.213348 -0.928175 0.226516 -0.174542 -0.958241 0.1886 -0.202089 -0.961036 
0.182124 -0.239986 -0.95354 0.00286279 -0.271812 -0.962346 -0.238835 -0.272896 -0.931926 
0.0737356 -0.170211 -0.982645 0.198846 -0.174229 -0.964419 0.0409463 -0.212412 -0.976322 
0.0217899 -0.0986706 -0.994882 -0.0205822 -0.0245308 -0.999487 -0.106969 -0.030958 -0.99378 
-0.185914 -0.06446 -0.980449 -0.291828 -0.0767834 -0.953384 -0.527603 -0.0674403 -0.84681 
-0.528421 -0.130274 -0.838928 -0.514529 -0.0642623 -0.855062 0.286039 -0.207024 -0.935587 
0.196614 -0.241528 -0.950267 0.227175 -0.223862 -0.947775 0.125305 -0.251271 -0.959772 
0.0856451 -0.309548 -0.947019 -0.0109596 -0.413214 -0.910568 0.0215254 -0.341387 -0.939676 
-0.00856434 -0.345042 -0.938548 0.0451616 -0.123348 -0.991335 0.00354874 -0.334832 -0.942271 
0.0894027 -0.345047 -0.934318 0.140314 -0.268717 -0.952945 0.0311804 -0.214443 -0.976239 
-0.09171 -0.212501 -0.972848 -0.178704 -0.194444 -0.964498 -0.517244 -0.247957 -0.819131 
-0.377039 -0.388536 -0.840762 -0.310371 -0.276035 -0.909656 0.119266 -0.296813 -0.947459 
0.116955 -0.298707 -0.947151 0.117368 -0.298374 -0.947205 0.0213932 -0.28462 -0.958402 
0.0244836 -0.287447 -0.957484 0.0106856 -0.342906 -0.939309 -0.0544799 -0.344733 -0.937118 
-0.0496412 -0.351212 -0.934979 0.0274361 -0.345574 -0.93799 0.0797048 -0.389236 -0.917683 
0.0835197 -0.38618 -0.918635 0.0543032 -0.336316 -0.940182 0.0155764 -0.321633 -0.946736 
0.0727934 -0.299618 -0.951278 0.0936238 -0.274961 -0.956886 0.0498009 -0.398965 -0.915613 
0.140936 -0.349835 -0.92615 0.0134922 -0.470388 -0.882357 0.0288737 -0.379105 -0.924903 
-0.118477 -0.496737 -0.859776 -0.067725 -0.366212 -0.928064 -0.359783 -0.407906 -0.839147 
-0.228943 -0.503753 -0.832957 -0.216898 -0.390972 -0.894481 0.0646954 0.35764 -0.931616 
-0.031768 0.332024 -0.942736 0.10655 0.301064 -0.947633 0.140567 0.242706 -0.959862 
0.0631751 0.29462 -0.953524 -0.0874029 0.238427 -0.967219 -0.0396864 0.256399 -0.965756 
-0.0915447 0.221209 -0.97092 0.204297 0.0411959 -0.978042 0.164822 0.0554083 -0.984766 
0.020617 0.0346931 -0.999185 -0.0600174 0.00415462 -0.998189 -0.0773963 -0.0192115 -0.996815 
-0.10644 -0.0945253 -0.989816 -0.100684 -0.0423719 -0.994016 0.167863 -0.0888775 -0.981796 
0.159146 -0.132753 -0.978289 0.147621 -0.0965402 -0.984321 0.0126248 -0.0709674 -0.997399 
-0.116175 -0.122677 -0.985624 -0.131213 -0.160586 -0.978261 -0.120684 -0.0991694 -0.987725 
0.0992449 -0.142083 -0.984867 -0.0987146 -0.160695 -0.982055 0.0132997 -0.187588 -0.982158 
0.0200784 -0.114221 -0.993252 
