# vtk DataFile Version 4.2
vtk output
ASCII
DATASET POLYDATA
POINTS 544 float
-2.90518 -28.931 -23.6265 -20.6111 -46.6369 -16.8504 -11.7581 -46.6369 -19.1554 
-2.90518 -46.6369 -20.2526 5.94776 -46.6369 -19.5504 14.8007 -46.6369 -17.5092 
-29.464 -37.7839 -18.0197 -20.6111 -37.7839 -21.1464 -11.7581 -37.7839 -22.7218 
-2.90518 -31.411 -23.5517 -2.90518 -37.7839 -23.353 5.94776 -37.7839 -22.7126 
14.8007 -37.7839 -21.966 23.6536 -37.7839 -19.8498 32.5066 -37.7839 -17.5241 
-38.3169 -28.931 -16.334 -29.464 -28.931 -19.7703 -20.6111 -28.931 -22.0216 
-4.26898 -28.931 -23.5517 -11.7581 -28.931 -23.1394 -1.89438 -28.931 -23.5517 
-2.90518 -28.5436 -23.5517 5.94776 -28.931 -22.9701 14.8007 -28.931 -22.59 
23.6536 -28.931 -22.0475 32.5066 -28.931 -21.4341 41.3595 -28.931 -19.3894 
-38.3169 -20.078 -17.5785 -29.464 -20.078 -20.4073 -20.6111 -20.078 -21.6867 
-11.7581 -20.078 -22.1708 -2.90518 -20.078 -21.9072 5.94776 -20.078 -21.3982 
14.8007 -20.078 -21.3355 23.6536 -20.078 -22.5342 32.5066 -20.078 -22.7284 
41.3595 -20.078 -21.4986 50.2125 -20.078 -17.9168 -38.3169 -11.2251 -17.9916 
-29.464 -11.2251 -20.5917 -20.6111 -11.2251 -21.406 -11.7581 -11.2251 -21.1971 
-2.90518 -11.2251 -21.5206 5.94776 -11.2251 -21.4639 14.8007 -11.2251 -21.0353 
23.6536 -11.2251 -22.3937 32.5066 -11.2251 -23.2281 41.3595 -11.2251 -22.1507 
50.2125 -11.2251 -19.5304 -47.1699 -2.37217 -14.8003 -38.3169 -2.37217 -18.0154 
-29.464 -2.37217 -20.2663 -20.6111 -2.37217 -21.3554 -11.7581 -2.37217 -22.099 
-2.90518 -2.37217 -22.2424 5.94776 -2.37217 -23.2427 14.8007 -2.37217 -21.7054 
23.6536 -2.37217 -21.3491 32.5066 -2.37217 -22.2093 41.3595 -2.37217 -22.0813 
50.2125 -2.37217 -20.3222 59.0654 -2.37217 -15.7153 -47.1699 6.48077 -15.3437 
-38.3169 6.48077 -18.0266 -29.464 6.48077 -19.659 -20.6111 6.48077 -19.749 
-11.7581 6.48077 -20.6424 -2.90518 6.48077 -21.1187 5.94776 6.48077 -21.8267 
14.8007 6.48077 -21.7719 23.6536 6.48077 -20.7447 32.5066 6.48077 -21.5038 
41.3595 6.48077 -21.614 50.2125 6.48077 -20.7854 59.0654 6.48077 -17.2321 
-47.1699 15.3337 -15.7606 -38.3169 15.3337 -18.4385 -29.464 15.3337 -19.7633 
-20.6111 15.3337 -19.3544 -11.7581 15.3337 -18.9999 -2.90518 15.3337 -21.238 
5.94776 15.3337 -21.6441 14.8007 15.3337 -20.2394 23.6536 15.3337 -19.9295 
32.5066 15.3337 -20.5749 41.3595 15.3337 -20.7237 50.2125 15.3337 -19.6755 
59.0654 15.3337 -16.7488 -47.1699 24.1867 -17.1866 -38.3169 24.1867 -19.7326 
-29.464 24.1867 -20.1868 -20.6111 24.1867 -19.4544 -11.7581 24.1867 -18.7175 
-2.90518 24.1867 -18.6219 5.94776 24.1867 -18.3781 14.8007 24.1867 -18.0321 
23.6536 24.1867 -18.5864 32.5066 24.1867 -19.0261 41.3595 24.1867 -19.4382 
50.2125 24.1867 -18.1425 -47.1699 33.0396 -17.4008 -38.3169 33.0396 -18.2234 
-29.464 33.0396 -19.1613 -20.6111 33.0396 -18.3815 -11.7581 33.0396 -17.1611 
-2.90518 33.0396 -15.6813 14.8007 33.0396 -14.9805 23.6536 33.0396 -15.5142 
32.5066 33.0396 -15.7419 41.3595 33.0396 -16.1103 -38.3169 41.8925 -15.8236 
-29.464 41.8925 -15.8601 -20.6111 41.8925 -14.8511 -20.6111 -48.8573 -14.6987 
-11.7581 -51.273 -14.6987 -2.90518 -52.4265 -14.6987 -2.90518 -55.4898 -6.51352 
5.94776 -51.8003 -14.6987 14.8007 -49.1655 -14.6987 -38.3169 -46.6369 -6.14307 
-25.2208 -46.6369 -14.6987 -29.464 -43.4395 -14.6987 -29.464 -46.6369 -12.0642 
20.7279 -46.6369 -14.6987 23.6536 -45.1676 -14.6987 23.6536 -46.6369 -12.1273 
32.5066 -40.7009 -14.6987 -47.1699 -37.7839 -7.37985 -35.7824 -37.7839 -14.6987 
-38.3169 -33.9559 -14.6987 -38.3169 -37.7839 -13.222 37.4276 -37.7839 -14.6987 
41.3595 -34.9659 -14.6987 41.3595 -37.7839 -9.90592 -41.165 -28.931 -14.6987 
-47.1699 -28.931 -10.7868 48.3094 -28.931 -14.6987 50.2125 -26.5577 -14.6987 
50.2125 -28.931 -11.6817 -56.0228 -20.078 -7.41429 -44.3669 -20.078 -14.6987 
-47.1699 -20.078 -13.249 54.0803 -20.078 -14.6987 -56.0228 -11.2251 -7.54851 
-47.1472 -11.2251 -14.6987 -47.1699 -10.5456 -14.6987 -47.1699 -11.2251 -14.6889 
57.268 -11.2251 -14.6987 59.0654 -6.25101 -14.6987 59.0654 -11.2251 -12.4487 
-47.4049 -2.37217 -14.6987 -56.0228 -2.37217 -9.4056 60.3273 -2.37217 -14.6987 
-48.326 6.48077 -14.6987 -56.0228 6.48077 -9.39361 63.4011 6.48077 -14.6987 
67.9183 6.48077 -8.29701 -49.1828 15.3337 -14.6987 -56.0228 15.3337 -10.6062 
61.9978 15.3337 -14.6987 59.0654 21.2922 -14.6987 67.9183 15.3337 -8.64659 
-51.9721 24.1867 -14.6987 -56.0228 24.1867 -11.2727 5.94776 32.8865 -14.6987 
57.5553 24.1867 -14.6987 50.2125 30.8346 -14.6987 59.0654 24.1867 -13.6986 
-51.0568 33.0396 -14.6987 -56.0228 33.0396 -10.0092 -47.1699 37.16 -14.6987 
-11.7581 39.5153 -14.6987 5.38053 33.0396 -14.6987 -2.90518 35.0196 -14.6987 
7.61205 33.0396 -14.6987 5.94776 33.0396 -14.6304 14.8007 33.5087 -14.6987 
23.6536 34.4126 -14.6987 32.5066 34.751 -14.6987 46.1249 33.0396 -14.6987 
41.3595 35.5428 -14.6987 50.2125 33.0396 -13.0432 59.0654 33.0396 -9.93204 
-56.0228 41.8925 -6.36662 -40.6031 41.8925 -14.6987 -47.1699 41.8925 -11.5562 
-38.3169 43.5266 -14.6987 -29.464 44.0421 -14.6987 -19.4064 41.8925 -14.6987 
-20.6111 42.1098 -14.6987 -11.7581 41.8925 -13.5307 -2.90518 41.8925 -9.9361 
5.94776 41.8925 -7.33575 14.8007 41.8925 -7.42523 23.6536 41.8925 -8.60599 
32.5066 41.8925 -8.4207 41.3595 41.8925 -8.06104 -38.3169 50.7455 -7.68737 
-29.464 50.7455 -8.34019 -20.6111 50.7455 -6.33279 -2.90518 -55.6862 -5.84579 
-38.3169 -46.8118 -5.84579 -29.464 -50.6135 -5.84579 -20.6111 -53.8315 -5.84579 
-5.79284 -55.4898 -5.84579 -11.7581 -55.0468 -5.84579 0.249706 -55.4898 -5.84579 
-2.90518 -55.4898 -3.96074 5.94776 -55.1092 -5.84579 14.8007 -52.8752 -5.84579 
23.6536 -49.1514 -5.84579 -38.575 -46.6369 -5.84579 -47.1699 -39.2577 -5.84579 
28.6658 -46.6369 -5.84579 32.5066 -44.6721 -5.84579 41.3595 -39.4502 -5.84579 
-48.4614 -37.7839 -5.84579 43.6043 -37.7839 -5.84579 50.2125 -31.6988 -5.84579 
-53.435 -28.931 -5.84579 -56.0228 -23.9715 -5.84579 -56.0228 -28.931 0.19449 
52.5228 -28.931 -5.84579 -57.3989 -20.078 -5.84579 58.2453 -20.078 -5.84579 
59.0654 -18.4624 -5.84579 -57.6109 -11.2251 -5.84579 62.5005 -11.2251 -5.84579 
-59.4316 -2.37217 -5.84579 66.4165 -2.37217 -5.84579 67.9183 2.85495 -5.84579 
-60.0623 6.48077 -5.84579 -64.8758 6.48077 2.95095 69.0319 6.48077 -5.84579 
-61.5949 15.3337 -5.84579 -64.8758 15.3337 1.41178 69.3888 15.3337 -5.84579 
67.9183 23.5723 -5.84579 -60.7984 24.1867 -5.84579 67.7595 24.1867 -5.84579 
67.9183 24.1867 -3.11569 -59.2621 33.0396 -5.84579 50.2125 41.0649 -5.84579 
61.7802 33.0396 -5.84579 59.0654 35.5178 -5.84579 -56.3887 41.8925 -5.84579 
-56.0228 42.3138 -5.84579 -47.1699 49.1653 -5.84579 -11.7581 48.2902 -5.84579 
-2.90518 44.9505 -5.84579 5.94776 42.9449 -5.84579 14.8007 43.021 -5.84579 
23.6536 43.975 -5.84579 32.5066 43.5975 -5.84579 47.447 41.8925 -5.84579 
41.3595 43.1548 -5.84579 -42.7942 50.7455 -5.84579 -38.3169 51.7323 -5.84579 
-29.464 52.0471 -5.84579 -19.4944 50.7455 -5.84579 -20.6111 51.0574 -5.84579 
-38.3169 -47.542 3.00715 -29.464 -50.8177 3.00715 -20.6111 -53.5915 3.00715 
-11.7581 -54.2647 3.00715 -2.90518 -54.716 3.00715 5.94776 -54.1209 3.00715 
14.8007 -51.5954 3.00715 23.6536 -47.4721 3.00715 -39.9255 -46.6369 3.00715 
-47.1699 -41.5717 3.00715 -38.3169 -46.6369 5.04707 -29.464 -46.6369 11.3137 
14.8007 -46.6369 11.1423 25.3088 -46.6369 3.00715 23.6536 -46.6369 4.4533 
32.5066 -43.1127 3.00715 41.3595 -37.8242 3.00715 -51.0173 -37.7839 3.00715 
-56.0228 -30.4939 3.00715 -47.1699 -37.7839 10.3205 32.5066 -37.7839 10.3427 
41.4157 -37.7839 3.00715 41.3595 -37.7839 3.07606 50.2125 -30.4127 3.00715 
-56.851 -28.931 3.00715 -56.0228 -28.931 5.46417 51.5036 -28.931 3.00715 
50.2125 -28.931 5.26674 -60.6817 -20.078 3.00715 57.5436 -20.078 3.00715 
59.0654 -17.2195 3.00715 -63.1013 -11.2251 3.00715 61.9993 -11.2251 3.00715 
59.0654 -11.2251 8.7752 -64.1722 -2.37217 3.00715 -64.8758 6.21939 3.00715 
66.1995 -2.37217 3.00715 67.9183 3.95089 3.00715 -64.8971 6.48077 3.00715 
-64.8758 6.48077 3.1029 68.7377 6.48077 3.00715 67.9183 6.48077 5.31687 
-65.3808 15.3337 3.00715 -64.8758 20.6191 3.00715 -64.8758 15.3337 4.9637 
69.5675 15.3337 3.00715 67.9183 15.3337 6.4012 -64.5349 24.1867 3.00715 
68.2048 24.1867 3.00715 67.9183 24.6658 3.00715 67.9183 24.1867 3.54378 
-62.0992 33.0396 3.00715 50.2125 41.7385 3.00715 62.3892 33.0396 3.00715 
59.0654 36.0739 3.00715 59.0654 33.0396 9.0767 -57.209 41.8925 3.00715 
-56.0228 43.0461 3.00715 -56.0228 41.8925 4.72217 -47.1699 49.2258 3.00715 
-11.7581 48.7279 3.00715 -2.90518 46.1261 3.00715 -2.90518 41.8925 10.8987 
5.94776 44.4591 3.00715 5.94776 41.8925 8.94544 14.8007 44.6232 3.00715 
14.8007 41.8925 9.47598 23.6536 45.4726 3.00715 23.6536 41.8925 10.7494 
32.5066 44.9526 3.00715 32.5066 41.8925 10.492 49.6586 41.8925 3.00715 
41.3595 43.9032 3.00715 41.3595 41.8925 8.01152 -41.3463 50.7455 3.00715 
-38.3169 51.4364 3.00715 -38.3169 50.7455 4.27429 -29.464 51.8805 3.00715 
-29.464 50.7455 5.32659 -18.8509 50.7455 3.00715 -20.6111 51.2179 3.00715 
-20.6111 50.7455 3.93491 -20.6111 -48.0412 11.8601 -11.7581 -49.3328 11.8601 
-2.90518 -50.3286 11.8601 5.94776 -49.4619 11.8601 -38.3169 -42.3305 11.8601 
-27.6368 -46.6369 11.8601 -29.464 -46.1439 11.8601 -20.6111 -46.6369 13.0811 
-11.7581 -46.6369 14.3835 -2.90518 -46.6369 15.3804 13.4393 -46.6369 11.8601 
5.94776 -46.6369 14.5261 14.8007 -45.9034 11.8601 23.6536 -40.6145 11.8601 
-45.6879 -37.7839 11.8601 -47.1699 -36.288 11.8601 -38.3169 -37.7839 14.9024 
-29.464 -37.7839 16.8809 -20.6111 -37.7839 17.8681 -11.7581 -37.7839 19.0188 
-2.90518 -37.7839 19.7479 5.94776 -37.7839 18.9287 14.8007 -37.7839 16.5096 
29.3104 -37.7839 11.8601 23.6536 -37.7839 13.7874 32.5066 -35.8336 11.8601 
41.3595 -30.8759 11.8601 -52.3736 -28.931 11.8601 -56.0228 -24.2484 11.8601 
-47.1699 -28.931 15.6988 -38.3169 -28.931 18.1796 -29.464 -28.931 19.3024 
-20.6111 -28.931 19.9756 -11.7581 -28.931 20.5587 5.94776 -28.931 20.5446 
14.8007 -28.931 18.214 23.6536 -28.931 16.9329 32.5066 -28.931 15.794 
43.8463 -28.931 11.8601 41.3595 -28.931 13.244 50.2125 -22.0385 11.8601 
[...]
POINT_DATA 544
SCALARS ImageScalars float
LOOKUP_TABLE default
0 0 0 0 0 0 0 0 0 
0 0 0 0 0 0 0 0 0 
0 0 0 0 0 0 0 0 0 
0 0 0 0 0 0 0 0 0 
0 0 0 0 0 0 0 0 0 
0 0 0 0 0 0 0 0 0 
0 0 0 0 0 0 0 0 0 
0 0 0 0 0 0 0 0 0 
0 0 0 0 0 0 0 0 0 
0 0 0 0 0 0 0 0 0 
0 0 0 0 0 0 0 0 0 
0 0 0 0 0 0 0 0 0 
0 0 0 0 0 0 0 0 0 
0 0 0 0 0 0 0 0 0 
0 0 0 0 0 0 0 0 0 
0 0 0 0 0 0 0 0 0 
0 0 0 0 0 0 0 0 0 
0 0 0 0 0 0 0 0 0 
0 0 0 0 0 0 0 0 0 
0 0 0 0 0 0 0 0 0 
0 0 0 0 0 0 0 0 0 
0 0 0 0 0 0 0 0 0 
0 0 0 0 0 0 0 0 0 
0 0 0 0 0 0 0 0 0 
0 0 0 0 0 0 0 0 0 
0 0 0 0 0 0 0 0 0 
0 0 0 0 0 0 0 0 0 
0 0 0 0 0 0 0 0 0 
0 0 0 0 0 0 0 0 0 
0 0 0 0 0 0 0 0 0 
0 0 0 0 0 0 0 0 0 
0 0 0 0 0 0 0 0 0 
0 0 0 0 0 0 0 0 0 
0 0 0 0 0 0 0 0 0 
0 0 0 0 0 0 0 0 0 
0 0 0 0 0 0 0 0 0 
0 0 0 0 0 0 0 0 0 
0 0 0 0 0 0 0 0 0 
0 0 0 0 0 0 0 0 0 
0 0 0 0 0 0 0 0 0 
0 0 0 0 0 0 0 0 0 
0 0 0 0 0 0 0 0 0 
0 0 0 0 0 0 0 0 0 
0 0 0 0 0 0 0 0 0 
0 0 0 0 0 0 0 0 0 
0 0 0 0 0 0 0 0 0 
0 0 0 0 0 0 0 0 0 
0 0 0 0 0 0 0 0 0 
0 0 0 0 0 0 0 0 0 
0 0 0 0 0 0 0 0 0 
0 0 0 0 0 0 0 0 0 
0 0 0 0 0 0 0 0 0 
0 0 0 0 0 0 0 0 0 
0 0 0 0 0 0 0 0 0 
0 0 0 0 0 0 0 0 0 
0 0 0 0 0 0 0 0 0 
0 0 0 0 0 0 0 0 0 
0 0 0 0 0 0 0 0 0 
0 0 0 0 0 0 0 0 0 
0 0 0 0 0 0 0 0 0 
0 0 0 0 
NORMALS Normals float
-0.00955798 -0.0811402 0.996657 0.297798 0.603267 0.739855 0.162581 0.579719 0.798432 
0.0191286 0.537992 0.842733 -0.122191 0.547481 0.827849 -0.284813 0.645776 0.708417 
0.384293 0.322007 0.865235 0.246032 0.246969 0.93727 0.112793 0.186455 0.975967 
-0.00648038 -0.0134654 0.999888 0.00119146 0.16653 0.986036 -0.0739656 0.165875 0.983369 
-0.153182 0.208997 0.965845 -0.215075 0.394493 0.893374 -0.348122 0.580966 0.735724 
0.424218 0.204384 0.882194 0.297352 0.118051 0.947442 0.183355 0.0258223 0.982708 
0.00547237 -0.0731992 0.997302 0.0887451 -0.0295038 0.995617 -0.0150346 -0.0798228 0.996696 
-0.0108298 -0.0829555 0.996494 -0.0581352 -0.0697018 0.995872 -0.0524168 -0.0393357 0.99785 
-0.0614639 0.142048 0.98795 -0.130895 0.251999 0.958834 -0.371323 0.41328 0.831456 
0.372435 0.0833209 0.924311 0.22283 0.0436902 0.973878 0.0989409 -0.0344119 0.994498 
0.0124112 -0.110251 0.993826 -0.0425368 -0.121027 0.991737 -0.0333234 -0.0884034 0.995527 
0.0634797 -0.0882147 0.994077 0.0792873 0.0199278 0.996653 -0.0551825 0.0948006 0.993966 
-0.243692 0.130405 0.961046 -0.542833 0.291224 0.787731 0.323619 0.0236293 0.945892 
0.185006 -0.00787355 0.982706 0.0328403 -0.0186208 0.999287 0.00644223 -0.00326779 0.999974 
0.0156799 0.0167905 0.999736 -0.0292828 0.102858 0.994265 0.0501962 0.0205509 0.998528 
0.125831 -0.0667916 0.989801 -0.0146887 -0.0297641 0.999449 -0.19045 0.0311541 0.981202 
-0.406 0.122763 0.90559 0.388174 0.0368429 0.920849 0.29867 0.00188369 0.954355 
0.18151 -0.0518218 0.982023 0.102251 -0.0928316 0.990418 0.0495175 -0.0260376 0.998434 
0.0629444 -0.0224158 0.997765 -0.0344203 0.0180006 0.999245 -0.102554 0.0424928 0.993819 
0.0287647 -0.0897835 0.995546 0.0404232 -0.0965841 0.994504 -0.100224 -0.0303866 0.994501 
-0.310707 0.0629724 0.948417 -0.591232 0.185956 0.784771 0.412558 0.0507904 0.909514 
0.240872 0.0232876 0.970277 0.0936138 -0.0279597 0.995216 0.0521217 -0.112142 0.992324 
0.0791124 -0.180191 0.980445 0.0646924 -0.0545322 0.996414 0.0375441 -0.0868265 0.995516 
-0.0617087 -0.0833574 0.994607 -0.0120116 -0.0795791 0.996756 0.0481122 -0.0916341 0.99463 
-0.0371701 -0.0757967 0.99643 -0.243573 -0.035417 0.969236 -0.472247 0.0521878 0.87992 
0.383149 0.107391 0.917422 0.214868 0.0907786 0.972415 0.0492662 0.0295482 0.998349 
-0.0429785 -0.0165129 0.99894 0.10014 -0.104653 0.989454 0.152534 -0.137461 0.978692 
-0.0570334 -0.186288 0.980838 -0.0943915 -0.201926 0.974842 0.0191631 -0.123515 0.992158 
0.04416 -0.135486 0.989795 -0.0466284 -0.115665 0.992193 -0.187183 -0.153086 0.970323 
-0.459073 -0.169199 0.872137 0.364766 0.0816243 0.927514 0.176936 -0.00883996 0.984183 
-0.0173151 -0.0384533 0.99911 -0.0843959 -0.0504912 0.995152 -0.0456853 -0.093965 0.994527 
-0.0186309 -0.290414 0.95672 -0.031552 -0.365337 0.93034 0.0138856 -0.28368 0.958819 
0.0525019 -0.230443 0.971668 0.0463234 -0.247702 0.967728 -0.0570045 -0.266726 0.962085 
-0.253005 -0.285852 0.924271 0.35971 -0.253327 0.898017 0.0939301 -0.182354 0.978736 
0.00844167 -0.220879 0.975265 -0.110882 -0.231711 0.966445 -0.14333 -0.269874 0.952168 
-0.130757 -0.38517 0.913535 0.0453561 -0.441987 0.895874 0.0390698 -0.445648 0.894355 
0.0335721 -0.445257 0.894773 -0.109673 -0.436783 0.892856 0.205441 -0.43279 0.877774 
-0.0473907 -0.440965 0.896272 -0.109367 -0.497179 0.860728 0.294998 0.701828 0.648393 
0.163433 0.794076 0.585434 0.0255027 0.825829 0.563344 0.00459539 0.992119 0.125218 
-0.154723 0.80069 0.578754 -0.309623 0.762342 0.568303 0.527966 0.78419 0.326033 
0.340417 0.630808 0.697279 0.383006 0.527671 0.758202 0.376383 0.703233 0.603157 
-0.351206 0.737472 0.576879 -0.3555 0.712758 0.604644 -0.394553 0.812703 0.428767 
-0.40242 0.690366 0.601209 0.679461 0.520217 0.517403 0.435154 0.351498 0.828909 
0.444686 0.287704 0.848222 0.46673 0.381631 0.797823 -0.458992 0.661349 0.593249 
-0.489962 0.631064 0.601411 -0.562413 0.770407 0.300274 0.472165 0.21382 0.855185 
0.590577 0.261887 0.763304 -0.614783 0.533435 0.580938 -0.647486 0.48367 0.588918 
-0.711743 0.578441 0.398533 0.750655 0.161836 0.640568 0.44694 0.144831 0.882762 
0.485606 0.172775 0.856934 -0.71081 0.351525 0.609245 0.705976 0.0780288 0.703924 
0.447543 0.0774633 0.890901 0.443444 0.0745517 0.893196 0.44799 0.0775818 0.890666 
-0.690633 0.244263 0.680707 -0.661736 0.23021 0.713519 -0.790869 0.313173 0.525784 
0.393491 0.0368608 0.918589 0.646128 0.0729266 0.759737 -0.631443 0.215959 0.744742 
0.43982 0.0449949 0.896958 0.63785 0.0570858 0.768042 -0.6318 0.0784701 0.771149 
-0.923924 0.165432 0.34496 0.42763 0.11238 0.896941 0.604761 0.0807327 0.792305 
-0.563684 -0.176434 0.806927 -0.507766 -0.222945 0.832148 -0.898032 -0.0918911 0.430227 
0.541939 0.0500842 0.838924 0.706851 -0.00999474 0.707292 -0.0351344 -0.458424 0.888039 
-0.479414 -0.254332 0.839927 -0.244465 -0.501098 0.830143 -0.544387 -0.260272 0.797435 
0.506293 -0.246236 0.826459 0.744062 -0.182706 0.642643 0.367207 -0.386389 0.846087 
-0.176896 -0.474889 0.862083 -0.0413051 -0.455679 0.889185 -0.154065 -0.433395 0.887937 
-0.0200352 -0.457069 0.889206 -0.0353622 -0.461517 0.886426 0.0453923 -0.45545 0.889104 
0.0387532 -0.482836 0.874853 0.0370679 -0.503736 0.863062 -0.178208 -0.5063 0.843743 
-0.116356 -0.523097 0.844293 -0.263796 -0.595563 0.75876 -0.559197 -0.62758 0.541703 
0.731591 -0.548771 0.404506 0.256659 -0.449292 0.855724 0.411175 -0.536888 0.736673 
0.202905 -0.497521 0.843387 -0.0516371 -0.527137 0.84821 -0.11997 -0.504707 0.854914 
-0.112233 -0.504475 0.856101 -0.203287 -0.579716 0.789052 -0.259708 -0.738649 0.622052 
-0.0984505 -0.861306 0.498457 0.0513358 -0.858776 0.509772 0.039678 -0.817198 0.57499 
-0.0195261 -0.862354 0.505929 -0.122423 -0.890817 0.437558 0.13868 -0.918349 0.37068 
-0.054624 -0.919367 0.38959 -0.201604 -0.913766 0.352686 0.00279082 0.995328 0.0965089 
0.526095 0.791353 0.311423 0.360532 0.896749 0.256628 0.229745 0.952985 0.197578 
0.0327107 0.993805 0.10622 0.0980581 0.986808 0.12882 -0.0500534 0.994183 0.095363 
0.000868162 0.999645 0.0266168 -0.147511 0.984546 0.0943918 -0.320558 0.942283 0.096667 
-0.42056 0.903515 0.0823996 0.531408 0.78679 0.313953 0.688195 0.577075 0.439741 
-0.447013 0.891193 0.0771591 -0.468519 0.879641 0.0819841 -0.573865 0.814505 0.085206 
0.709858 0.541363 0.450587 -0.606777 0.789792 0.089724 -0.745983 0.65826 0.101009 
0.726277 0.396143 0.561775 0.778122 0.278233 0.563128 0.879767 0.451913 0.147598 
-0.789242 0.604925 0.105649 0.798703 0.168438 0.57767 -0.868806 0.47786 0.129717 
-0.874325 0.464976 0.139114 0.742313 0.0849614 0.664645 -0.889078 0.420319 0.181309 
0.753473 0.104836 0.649066 -0.919633 0.327434 0.216939 -0.948331 0.248886 0.196784 
0.749311 0.0885732 0.656268 0.993956 0.0704765 0.0841722 -0.961294 0.180286 0.208351 
0.788778 0.0282825 0.614028 0.992724 -0.013515 0.11965 -0.96001 -0.0615561 0.273115 
-0.868635 -0.36697 0.332876 0.820464 -0.098395 0.563167 -0.85567 -0.39067 0.339421 
-0.905381 -0.391954 0.163269 0.845387 -0.226379 0.483811 -0.386109 -0.855483 0.345062 
-0.68676 -0.662138 0.29989 -0.599124 -0.744085 0.295615 0.746638 -0.547144 0.378371 
0.735942 -0.563944 0.374641 0.463755 -0.826523 0.319048 -0.303744 -0.890969 0.33751 
-0.280529 -0.882908 0.376534 -0.0997658 -0.903487 0.416844 0.0549749 -0.903059 0.425984 
0.0313611 -0.90475 0.424788 -0.0451099 -0.92242 0.383544 -0.306232 -0.893075 0.329605 
-0.131766 -0.937323 0.322588 0.299512 -0.915281 0.269358 0.134015 -0.957142 0.256748 
-0.038023 -0.96672 0.252997 -0.212897 -0.920589 0.327399 -0.198715 -0.92374 0.327441 
0.41795 0.895433 -0.153355 0.306404 0.93114 -0.197726 0.181339 0.955967 -0.230744 
0.0611947 0.964152 -0.258198 -0.0074499 0.96881 -0.247692 -0.162018 0.952656 -0.257286 
-0.339677 0.897339 -0.281784 -0.427616 0.841284 -0.330734 0.456019 0.878386 -0.143128 
0.671501 0.735857 -0.08718 0.414807 0.872977 -0.256604 0.2305 0.752617 -0.616796 
-0.346176 0.654492 -0.672163 -0.431011 0.83944 -0.331014 -0.425161 0.817086 -0.38937 
-0.440605 0.831184 -0.339116 -0.544894 0.778805 -0.310729 0.750633 0.658143 -0.0582864 
0.879855 0.474868 -0.0188683 0.587957 0.598103 -0.544591 -0.367781 0.655746 -0.659343 
-0.545839 0.778183 -0.31063 -0.544589 0.77806 -0.313121 -0.71657 0.641233 -0.274493 
0.896678 0.442373 -0.0165744 0.867197 0.466677 -0.173731 -0.740018 0.616578 -0.268711 
-0.702989 0.611686 -0.362832 0.942179 0.333504 0.0327604 -0.835744 0.489081 -0.249663 
-0.847637 0.474378 -0.237648 0.979456 0.188451 0.0717746 -0.86222 0.449722 -0.23308 
-0.770897 0.406188 -0.490642 0.992008 0.0987482 0.0785386 0.994164 0.0712441 0.0810091 
-0.91578 0.331487 -0.226856 -0.953375 0.238493 -0.184927 0.994231 0.0703098 0.0809976 
0.994734 0.0700897 0.0747797 -0.963708 0.2014 -0.175228 -0.939811 0.193147 -0.281869 
0.999329 -0.0203912 0.03044 0.993679 -0.11201 0.00747516 0.994949 -0.0319506 -0.0951634 
-0.974214 -0.0287003 -0.223791 -0.917723 -0.0586159 -0.392873 0.984605 -0.174595 -0.00835354 
-0.91018 -0.352841 -0.21697 -0.904157 -0.366861 -0.218893 -0.903452 -0.354769 -0.24065 
0.928351 -0.36288 -0.0805209 -0.385995 -0.905088 -0.17839 -0.722692 -0.666604 -0.182633 
-0.619721 -0.765149 -0.174622 -0.574352 -0.657822 -0.487227 0.721436 -0.656706 -0.219697 
0.681114 -0.694449 -0.232001 0.678996 -0.673722 -0.291656 0.389548 -0.891785 -0.230154 
-0.271899 -0.937621 -0.216651 -0.23462 -0.959052 -0.158657 -0.131358 -0.760779 -0.635579 
-0.0822462 -0.989755 -0.11671 -0.0471845 -0.896242 -0.441048 0.0575357 -0.992532 -0.107562 
0.0483153 -0.89215 -0.449149 0.01901 -0.991857 -0.125931 0.0254513 -0.838224 -0.544732 
-0.0868548 -0.989978 -0.111354 -0.0646745 -0.849243 -0.524027 -0.373138 -0.910849 -0.176414 
-0.183014 -0.971657 -0.149626 -0.186909 -0.901564 -0.390189 0.228762 -0.933561 -0.275918 
0.142584 -0.945757 -0.291913 0.141862 -0.931836 -0.334002 -0.0131915 -0.971116 -0.238242 
-0.00895514 -0.925198 -0.379378 -0.195308 -0.951386 -0.238158 -0.173266 -0.953771 -0.245562 
-0.17181 -0.940321 -0.293731 0.141117 0.679585 -0.719896 0.0986269 0.734101 -0.67184 
0.00606568 0.763686 -0.64556 -0.17672 0.730488 -0.659665 0.330671 0.617559 -0.713636 
0.204123 0.717829 -0.665624 0.220099 0.719997 -0.65815 0.128127 0.629085 -0.766704 
0.109216 0.63586 -0.764038 0.00739626 0.607162 -0.794544 -0.319724 0.637037 -0.701399 
-0.189715 0.617289 -0.76352 -0.337651 0.611683 -0.715427 -0.335067 0.558042 -0.759157 
0.501343 0.549356 -0.668478 0.533719 0.536861 -0.653395 0.272097 0.449529 -0.850815 
0.162749 0.364871 -0.916723 0.112271 0.341457 -0.933168 0.100127 0.298919 -0.949011 
-0.00239961 0.264231 -0.964456 -0.173156 0.289809 -0.94129 -0.263803 0.323871 -0.908579 
-0.334041 0.574565 -0.747189 -0.28451 0.470772 -0.835121 -0.319544 0.579174 -0.749966 
-0.390554 0.560722 -0.730108 0.608198 0.451 -0.653218 0.710923 0.353093 -0.608205 
0.433019 0.33291 -0.837655 0.17094 0.232439 -0.957471 0.0972694 0.156662 -0.982851 
0.0678353 0.147003 -0.986807 0.0516396 0.135482 -0.989433 -0.147835 0.0675855 -0.9867 
-0.191111 0.0779534 -0.978468 -0.128253 0.233003 -0.963982 -0.188511 0.370274 -0.909594 
-0.43951 0.532454 -0.723411 -0.361082 0.506073 -0.783269 -0.58801 0.448056 -0.673416 
0.777694 0.258532 -0.573021 0.663821 0.25995 -0.701262 0.279929 0.103067 -0.954472 
0.146833 0.0439927 -0.988182 0.0933373 -0.0013268 -0.995634 0.0874231 0.0421711 -0.995278 
-0.214298 0.136227 -0.967222 -0.106004 -0.0179004 -0.994205 0.0291587 0.0947182 -0.995077 
-0.0444316 0.200826 -0.978619 -0.251584 0.307802 -0.917586 -0.607461 0.423115 -0.672283 
-0.567395 0.405311 -0.716788 0.732482 0.147837 -0.664541 0.567581 0.126377 -0.81356 
0.195089 0.0828948 -0.977276 0.0641051 0.00984904 -0.997895 0.0885625 -0.0636987 -0.994032 
0.298779 -0.09596 -0.949486 -0.226291 0.0780147 -0.97093 0.100073 0.0653968 -0.992829 
0.0245049 0.119576 -0.992523 -0.166903 0.170383 -0.97114 -0.656031 0.358368 -0.664225 
-0.427272 0.264016 -0.864716 -0.682203 0.334336 -0.650245 0.763403 0.11684 -0.635267 
0.49984 0.0978791 -0.86057 0.132708 0.0676512 -0.988844 0.000128579 0.0252186 -0.999682 
-0.0173534 -0.00468457 -0.999838 0.358912 -0.137994 -0.923114 -0.258781 0.284537 -0.923077 
0.0727522 0.13738 -0.987843 0.064866 0.127682 -0.989692 -0.107763 0.156025 -0.981857 
-0.324755 0.213029 -0.921495 -0.680635 0.314326 -0.661767 -0.623293 0.292672 -0.725154 
0.791996 0.0391653 -0.609268 0.489026 0.0227845 -0.871972 0.111713 0.0257457 -0.993407 
-0.00485992 0.0348256 -0.999382 -0.0633638 0.0375713 -0.997283 0.226269 -0.00102348 -0.974064 
-0.246103 0.0822741 -0.965745 -0.757241 0.147667 -0.636224 -0.537961 0.112457 -0.835435 
0.765359 -0.0709704 -0.639679 0.469389 -0.0822901 -0.879149 0.143841 -0.0643293 -0.987508 
0.0109453 -0.0043071 -0.999931 -0.054027 0.00920954 -0.998497 0.0555423 0.000678527 -0.998456 
0.247625 -0.291623 -0.923925 -0.281457 -0.109508 -0.953305 -0.717091 -0.0897409 -0.691178 
-0.547151 -0.092109 -0.83195 0.700171 -0.194834 -0.686877 0.519483 -0.192698 -0.832469 
0.213647 -0.104118 -0.971347 0.0630717 -0.119974 -0.990772 -0.0587283 -0.0796902 -0.995088 
-0.0447011 -0.0878105 -0.995134 0.110708 -0.185469 -0.976394 0.208495 -0.31422 -0.926173 
-0.329769 -0.254212 -0.909191 -0.671266 -0.298282 -0.678549 -0.547605 -0.517825 -0.657257 
-0.523709 -0.279059 -0.804894 0.612378 -0.385219 -0.690362 0.576195 -0.451472 -0.681302 
0.542935 -0.356599 -0.760301 0.229377 -0.297496 -0.926759 0.0395903 -0.294859 -0.95472 
-0.0106449 -0.277926 -0.960543 -0.0520783 -0.248979 -0.967108 -0.0112334 -0.304642 -0.952401 
-0.104136 -0.704091 -0.702432 0.0510156 -0.443069 -0.895035 -0.0136357 -0.781847 -0.623322 
0.0843645 -0.546142 -0.833434 0.0438914 -0.807129 -0.588741 0.0413682 -0.549291 -0.834606 
0.0229244 -0.791155 -0.611187 -0.00919809 -0.514007 -0.857737 -0.0585243 -0.789922 -0.610408 
-0.0824395 -0.498134 -0.863172 -0.194102 -0.77085 -0.606725 -0.190709 -0.51799 -0.833856 
-0.451229 -0.60875 -0.652546 -0.364167 -0.646823 -0.670077 -0.345128 -0.573319 -0.743096 
0.361396 -0.562867 -0.743353 0.304622 -0.578433 -0.756717 0.272044 -0.514126 -0.813429 
0.0859417 -0.635849 -0.767014 0.0782722 -0.524915 -0.847548 0.0164458 -0.592617 -0.805317 
0.00323898 -0.481388 -0.876502 -0.103899 -0.613926 -0.782496 -0.0806933 -0.521049 -0.849704 
-0.123046 -0.676013 -0.726544 -0.137971 -0.628869 -0.765172 -0.122089 -0.592337 -0.796386 
-4.86451e-05 0.130244 -0.991482 0.0259318 0.122194 -0.992167 0.0541663 0.150791 -0.987081 
-0.0735768 0.088399 -0.993364 -0.00076528 0.108887 -0.994054 0.0852897 0.0624607 -0.994396 
0.063739 0.223673 -0.972578 -0.166448 0.14779 -0.974912 -0.0658105 0.15944 -0.985012 
-0.239649 0.156037 -0.958238 0.298494 -0.0947069 -0.949701 0.148516 0.21335 -0.965621 
-0.0570768 -0.00828141 -0.998335 -0.337794 0.173272 -0.925134 -0.316836 0.236888 -0.918422 
0.358042 -0.130172 -0.924587 0.0768938 -0.0263586 -0.996691 -0.100679 -0.109162 -0.988912 
-0.23903 0.226991 -0.944108 -0.0666037 -0.00782885 -0.997749 -0.221634 0.292577 -0.930202 
-0.00877867 0.19213 -0.98133 0.0646505 0.127451 -0.989736 -0.106041 0.151818 -0.982704 
0.251222 -0.141875 -0.957475 0.247617 -0.293154 -0.923443 0.202295 -0.274779 -0.939986 
-0.0235391 0.110141 -0.993637 0.026309 0.0203462 -0.999447 -0.134098 0.245096 -0.96018 
-0.0329418 0.207469 -0.977687 0.041845 0.10596 -0.99349 -0.22554 0.0817698 -0.970796 
-0.0737358 0.0771432 -0.99429 0.247069 -0.286051 -0.925814 0.209353 -0.306506 -0.928561 
0.197353 -0.0856286 -0.976586 0.0622953 -0.0538809 -0.996602 -0.0730986 0.00983038 -0.997276 
-0.0910497 0.0719816 -0.993241 -0.0608775 -0.00149607 -0.998144 -0.235021 -0.0832541 -0.968418 
-0.132345 -0.0226367 -0.990945 0.204904 -0.315339 -0.926594 0.115502 -0.408329 -0.905498 
0.124645 -0.32855 -0.936226 0.0285903 -0.422495 -0.905914 0.0029589 -0.268756 -0.963204 
-0.0277385 -0.363877 -0.931034 -0.0548966 -0.212444 -0.97563 -0.0677169 -0.316254 -0.946254 
-0.0547468 -0.192683 -0.979733 -0.228329 -0.240108 -0.943511 -0.180971 -0.296147 -0.937841 
-0.178259 -0.239568 -0.954375 
