# vtk DataFile Version 4.2
vtk output
ASCII
DATASET POLYDATA
POINTS 560 float
-20.3215 -37.2697 -12.7717 -11.8647 -37.2697 -13.2014 -3.40788 -37.2697 -14.5612 
5.04892 -37.2697 -15.2612 13.5057 -37.2697 -14.4147 21.9625 -37.2697 -12.7818 
-45.6919 -28.8129 -13.2497 -37.2351 -28.8129 -14.9112 -28.7783 -28.8129 -15.1774 
-20.3215 -28.8129 -15.2158 -11.8647 -28.8129 -15.7737 -3.40788 -28.8129 -17.0983 
5.04892 -28.8129 -17.8399 13.5057 -28.8129 -17.2792 21.9625 -28.8129 -17.2546 
30.4193 -28.8129 -17.2444 38.8761 -28.8129 -16.1225 47.3329 -28.8129 -13.4101 
-62.6055 -20.3561 -12.9886 -54.1487 -20.3561 -15.1666 -45.6919 -20.3561 -16.7104 
-37.2351 -20.3561 -17.0479 -28.7783 -20.3561 -16.6076 -20.3215 -20.3561 -16.195 
-11.8647 -20.3561 -16.11 -3.40788 -20.3561 -17.683 5.04892 -20.3561 -18.4628 
13.5057 -20.3561 -17.2458 21.9625 -20.3561 -18.0384 30.4193 -20.3561 -19.0395 
38.8761 -20.3561 -18.297 47.3329 -20.3561 -16.4444 55.7897 -20.3561 -13.0157 
-62.6055 -11.8993 -14.8284 -54.1487 -11.8993 -18.873 -45.6919 -11.8993 -17.8779 
-37.2351 -11.8993 -17.5561 -28.7783 -11.8993 -16.7835 -20.3215 -11.8993 -16.2696 
-11.8647 -11.8993 -16.8107 -3.40788 -11.8993 -18.654 5.04892 -11.8993 -19.3636 
13.5057 -11.8993 -16.9717 21.9625 -11.8993 -18.2817 30.4193 -11.8993 -18.7809 
38.8761 -11.8993 -18.3986 47.3329 -11.8993 -16.5564 55.7897 -11.8993 -14.7054 
64.2465 -11.8993 -12.3374 -71.0623 -3.44246 -14.6144 -62.6055 -3.44246 -16.4179 
-54.1487 -3.44246 -17.7583 -45.6919 -3.44246 -18.7996 -37.2351 -3.44246 -18.0473 
-28.7783 -3.44246 -16.9056 -20.3215 -3.44246 -16.0728 -11.8647 -3.44246 -19.779 
-3.40788 -3.44246 -17.066 5.04892 -3.44246 -17.3605 13.5057 -3.44246 -18.0754 
21.9625 -3.44246 -18.1433 30.4193 -3.44246 -17.969 38.8761 -3.44246 -17.5819 
47.3329 -3.44246 -16.8315 55.7897 -3.44246 -15.762 64.2465 -3.44246 -14.586 
-71.0623 5.01433 -13.9873 -62.6055 5.01433 -16.9912 -54.1487 5.01433 -18.0582 
-45.6919 5.01433 -19.0849 -37.2351 5.01433 -18.2176 -28.7783 5.01433 -16.9045 
-20.3215 5.01433 -15.6642 -11.8647 5.01433 -18.5296 -3.40788 5.01433 -17.7861 
5.04892 5.01433 -15.7145 13.5057 5.01433 -17.8506 21.9625 5.01433 -17.2688 
30.4193 5.01433 -16.9843 38.8761 5.01433 -17.1801 47.3329 5.01433 -17.1778 
55.7897 5.01433 -16.0853 64.2465 5.01433 -14.9043 -71.0623 13.4711 -13.2405 
-62.6055 13.4711 -16.3019 -54.1487 13.4711 -18.1183 -45.6919 13.4711 -18.6938 
-37.2351 13.4711 -18.0979 -28.7783 13.4711 -17.4385 -20.3215 13.4711 -16.4425 
-11.8647 13.4711 -16.2717 -3.40788 13.4711 -17.27 5.04892 13.4711 -17.7006 
13.5057 13.4711 -16.3607 21.9625 13.4711 -15.3823 30.4193 13.4711 -16.1715 
38.8761 13.4711 -16.9272 47.3329 13.4711 -16.0912 55.7897 13.4711 -15.4192 
64.2465 13.4711 -14.7499 -62.6055 21.9279 -13.5775 -54.1487 21.9279 -17.8549 
-45.6919 21.9279 -17.3308 -37.2351 21.9279 -18.313 -28.7783 21.9279 -17.4383 
-20.3215 21.9279 -17.2287 -11.8647 21.9279 -17.1832 -3.40788 21.9279 -17.517 
5.04892 21.9279 -17.9217 13.5057 21.9279 -16.4847 21.9625 21.9279 -14.3949 
30.4193 21.9279 -14.616 38.8761 21.9279 -15.4843 47.3329 21.9279 -15.2448 
55.7897 21.9279 -12.9498 64.2465 21.9279 -12.7672 -54.1487 30.3847 -13.0849 
-45.6919 30.3847 -16.449 -37.2351 30.3847 -15.9632 -28.7783 30.3847 -17.7296 
-20.3215 30.3847 -16.8312 -11.8647 30.3847 -17.5555 -3.40788 30.3847 -17.0081 
5.04892 30.3847 -16.7328 13.5057 30.3847 -15.4427 21.9625 30.3847 -12.7598 
47.3329 30.3847 -12.1253 -37.2351 38.8415 -12.12 -28.7783 38.8415 -13.6231 
-20.3215 38.8415 -14.9482 -11.8647 38.8415 -14.2552 -3.40788 38.8415 -13.5645 
5.04892 38.8415 -12.0841 -20.3215 -38.5379 -11.9394 -11.8647 -38.9525 -11.9394 
-3.40788 -40.7909 -11.9394 5.04892 -41.6103 -11.9394 5.04892 -45.7265 -3.80775 
13.5057 -40.014 -11.9394 21.9625 -38.1939 -11.9394 -45.6919 -30.7802 -11.9394 
-45.6919 -37.2697 -4.86867 -37.2351 -33.8233 -11.9394 -37.2351 -37.2697 -8.6429 
-25.5367 -37.2697 -11.9394 -28.7783 -36.0689 -11.9394 -28.7783 -37.2697 -11.2366 
27.6303 -37.2697 -11.9394 30.4193 -36.6682 -11.9394 30.4193 -37.2697 -10.9652 
38.8761 -34.2071 -11.9394 38.8761 -37.2697 -3.54734 47.3329 -30.4048 -11.9394 
-62.6055 -22.1719 -11.9394 -62.6055 -28.8129 -4.40161 -53.9687 -28.8129 -11.9394 
-54.1487 -28.7431 -11.9394 -54.1487 -28.8129 -11.9002 50.0501 -28.8129 -11.9394 
55.7897 -22.7409 -11.9394 55.7897 -28.8129 -7.86467 -64.372 -20.3561 -11.9394 
-71.0623 -20.3561 -4.65055 57.5205 -20.3561 -11.9394 64.2465 -12.8008 -11.9394 
64.2465 -20.3561 -7.91036 -70.1078 -11.8993 -11.9394 -71.0623 -10.5434 -11.9394 
-71.0623 -11.8993 -11.4991 64.9836 -11.8993 -11.9394 72.7033 -11.8993 -6.06949 
-73.2875 -3.44246 -11.9394 69.0835 -3.44246 -11.9394 72.7033 -3.44246 -9.48358 
-74.0187 5.01433 -11.9394 -79.5191 5.01433 -4.31366 69.764 5.01433 -11.9394 
72.7033 5.01433 -10.2314 -72.8601 13.4711 -11.9394 -71.0623 17.2932 -11.9394 
69.9039 13.4711 -11.9394 72.7033 13.4711 -10.2501 81.1601 13.4711 -3.4976 
-66.4528 21.9279 -11.9394 -71.0623 21.9279 -9.1234 -62.6055 26.8274 -11.9394 
30.4193 29.2022 -11.9394 38.8761 28.7283 -11.9394 55.7897 25.559 -11.9394 
65.2134 21.9279 -11.9394 64.2465 22.8802 -11.9394 72.7033 21.9279 -7.22926 
-58.2 30.3847 -11.9394 -62.6055 30.3847 -10.1393 -54.1487 32.9128 -11.9394 
-45.6919 38.4568 -11.9394 13.5057 36.1474 -11.9394 27.3223 30.3847 -11.9394 
21.9625 31.6275 -11.9394 30.4193 30.3847 -11.4375 45.9989 30.3847 -11.9394 
38.8761 30.3847 -10.9167 48.4321 30.3847 -11.9394 47.3329 30.6042 -11.9394 
55.7897 30.3847 -10.1986 64.2465 30.3847 -6.27252 -54.1487 38.8415 -5.84127 
-40.8108 38.8415 -11.9394 -45.6919 38.8415 -11.5216 -37.2351 39.0316 -11.9394 
-28.7783 41.1936 -11.9394 -20.3215 42.2293 -11.9394 -11.8647 41.1676 -11.9394 
-3.40788 40.2816 -11.9394 5.62118 38.8415 -11.9394 5.04892 38.9639 -11.9394 
13.5057 38.8415 -7.96296 21.9625 38.8415 -4.20981 5.04892 -45.8417 -3.48257 
-45.6919 -37.9914 -3.48257 -37.2351 -40.8195 -3.48257 -28.7783 -43.2221 -3.48257 
-20.3215 -44.4097 -3.48257 -11.8647 -44.8894 -3.48257 2.50736 -45.7265 -3.48257 
-3.40788 -45.458 -3.48257 5.88615 -45.7265 -3.48257 5.04892 -45.7265 -2.69969 
13.5057 -44.6535 -3.48257 21.9625 -42.2544 -3.48257 30.4193 -39.8522 -3.48257 
38.8761 -37.2881 -3.48257 -62.6055 -29.3925 -3.48257 -47.5896 -37.2697 -3.48257 
-54.1487 -34.5318 -3.48257 -45.6919 -37.2697 2.888 38.9543 -37.2697 -3.48257 
38.8761 -37.2697 -3.34461 47.3329 -35.1989 -3.48257 55.7897 -31.4133 -3.48257 
-63.3686 -28.8129 -3.48257 -71.0623 -21.3619 -3.48257 -62.6055 -28.8129 1.46552 
59.6983 -28.8129 -3.48257 64.2465 -25.1995 -3.48257 -71.9686 -20.3561 -3.48257 
-71.0623 -20.3561 3.45817 69.249 -20.3561 -3.48257 72.7033 -15.4555 -3.48257 
-77.0708 -11.8993 -3.48257 75.2138 -11.8993 -3.48257 -79.4627 -3.44246 -3.48257 
-79.5191 -2.55488 -3.48257 78.9339 -3.44246 -3.48257 81.1601 -3.44246 2.94304 
-79.9874 5.01433 -3.48257 -79.5191 8.04288 -3.48257 -79.5191 5.01433 -0.655261 
81.0581 5.01433 -3.48257 81.1601 12.9125 -3.48257 81.1601 5.01433 -3.02726 
-78.6796 13.4711 -3.48257 81.1681 13.4711 -3.48257 81.1601 13.4893 -3.48257 
-74.9191 21.9279 -3.48257 -71.0623 28.9207 -3.48257 77.2362 21.9279 -3.48257 
72.7033 26.8066 -3.48257 -69.7291 30.3847 -3.48257 -62.6055 35.0728 -3.48257 
30.4193 38.1203 -3.48257 38.8761 37.3774 -3.48257 47.3329 36.3975 -3.48257 
55.7897 35.1733 -3.48257 68.1531 30.3847 -3.48257 64.2465 33.4567 -3.48257 
-56.0016 38.8415 -3.48257 -54.1487 39.7343 -3.48257 -54.1487 38.8415 -0.647444 
-45.6919 42.3946 -3.48257 -37.2351 43.9974 -3.48257 -28.7783 45.2314 -3.48257 
-20.3215 45.1628 -3.48257 -11.8647 44.033 -3.48257 -3.40788 42.1056 -3.48257 
-3.40788 38.8415 3.35376 5.04892 40.9903 -3.48257 5.04892 38.8415 1.53903 
13.5057 40.528 -3.48257 13.5057 38.8415 0.921204 25.2614 38.8415 -3.48257 
21.9625 39.2332 -3.48257 21.9625 38.8415 -1.41284 -37.2351 -39.3078 4.97422 
-28.7783 -41.8776 4.97422 -20.3215 -43.4642 4.97422 -11.8647 -43.8275 4.97422 
-3.40788 -44.0133 4.97422 5.04892 -44.5071 4.97422 13.5057 -44.145 4.97422 
21.9625 -41.5874 4.97422 30.4193 -38.6516 4.97422 -54.1487 -32.6384 4.97422 
-44.7295 -37.2697 4.97422 -45.6919 -36.9566 4.97422 -37.2351 -37.2697 7.4076 
-28.7783 -37.2697 10.2429 -20.3215 -37.2697 12.6555 -11.8647 -37.2697 12.7816 
-3.40788 -37.2697 12.8969 21.9625 -37.2697 13.1131 35.0724 -37.2697 4.97422 
30.4193 -37.2697 7.73206 38.8761 -36.048 4.97422 47.3329 -33.9661 4.97422 
55.7897 -30.5506 4.97422 -61.5656 -28.8129 4.97422 -62.6055 -28.2033 4.97422 
-54.1487 -28.8129 10.0202 -45.6919 -28.8129 12.5694 47.3329 -28.8129 11.8792 
59.1061 -28.8129 4.97422 55.7897 -28.8129 8.90965 64.2465 -25.7479 4.97422 
-70.7956 -20.3561 4.97422 -71.0623 -19.9247 4.97422 -62.6055 -20.3561 12.5144 
71.0003 -20.3561 4.97422 72.7033 -18.4173 4.97422 -74.9485 -11.8993 4.97422 
-71.0623 -11.8993 9.42202 77.1992 -11.8993 4.97422 72.7033 -11.8993 11.7072 
81.1601 -4.87774 4.97422 -78.0031 -3.44246 4.97422 -71.0623 -3.44246 12.2529 
81.8446 -3.44246 4.97422 81.1601 -3.44246 6.14141 -78.007 5.01433 4.97422 
-71.0623 5.01433 11.6673 82.8464 5.01433 4.97422 81.1601 5.01433 7.75304 
-76.1145 13.4711 4.97422 -71.0623 13.4711 9.94184 21.9625 13.4711 13.2512 
82.9764 13.4711 4.97422 81.1601 18.0046 4.97422 81.1601 13.4711 7.35965 
-72.8899 21.9279 4.97422 -71.0623 24.9058 4.97422 -71.0623 21.9279 6.69297 
-62.6055 21.9279 12.7945 -20.3215 21.9279 13.3951 -3.40788 21.9279 13.1872 
5.04892 21.9279 12.5964 13.5057 21.9279 12.7794 21.9625 21.9279 12.8577 
30.4193 21.9279 13.2285 79.0712 21.9279 4.97422 72.7033 27.6578 4.97422 
72.7033 21.9279 11.9601 -66.0202 30.3847 4.97422 -62.6055 32.7473 4.97422 
-62.6055 30.3847 7.15182 -54.1487 36.2261 4.97422 -54.1487 30.3847 10.7613 
-45.6919 30.3847 11.553 -37.2351 30.3847 12.1038 -28.7783 30.3847 12.3562 
-20.3215 30.3847 11.6165 -11.8647 30.3847 11.2976 -3.40788 37.6891 4.97422 
-3.40788 30.3847 10.3755 5.04892 36.6825 4.97422 5.04892 30.3847 9.77607 
13.5057 36.6328 4.97422 13.5057 30.3847 9.89218 21.9625 36.9603 4.97422 
21.9625 30.3847 10.2048 30.4193 36.675 4.97422 30.4193 30.3847 10.3459 
[...]
POINT_DATA 560
SCALARS ImageScalars float
LOOKUP_TABLE default
0 0 0 0 0 0 0 0 0 
0 0 0 0 0 0 0 0 0 
0 0 0 0 0 0 0 0 0 
0 0 0 0 0 0 0 0 0 
0 0 0 0 0 0 0 0 0 
0 0 0 0 0 0 0 0 0 
0 0 0 0 0 0 0 0 0 
0 0 0 0 0 0 0 0 0 
0 0 0 0 0 0 0 0 0 
0 0 0 0 0 0 0 0 0 
0 0 0 0 0 0 0 0 0 
0 0 0 0 0 0 0 0 0 
0 0 0 0 0 0 0 0 0 
0 0 0 0 0 0 0 0 0 
0 0 0 0 0 0 0 0 0 
0 0 0 0 0 0 0 0 0 
0 0 0 0 0 0 0 0 0 
0 0 0 0 0 0 0 0 0 
0 0 0 0 0 0 0 0 0 
0 0 0 0 0 0 0 0 0 
0 0 0 0 0 0 0 0 0 
0 0 0 0 0 0 0 0 0 
0 0 0 0 0 0 0 0 0 
0 0 0 0 0 0 0 0 0 
0 0 0 0 0 0 0 0 0 
0 0 0 0 0 0 0 0 0 
0 0 0 0 0 0 0 0 0 
0 0 0 0 0 0 0 0 0 
0 0 0 0 0 0 0 0 0 
0 0 0 0 0 0 0 0 0 
0 0 0 0 0 0 0 0 0 
0 0 0 0 0 0 0 0 0 
0 0 0 0 0 0 0 0 0 
0 0 0 0 0 0 0 0 0 
0 0 0 0 0 0 0 0 0 
0 0 0 0 0 0 0 0 0 
0 0 0 0 0 0 0 0 0 
0 0 0 0 0 0 0 0 0 
0 0 0 0 0 0 0 0 0 
0 0 0 0 0 0 0 0 0 
0 0 0 0 0 0 0 0 0 
0 0 0 0 0 0 0 0 0 
0 0 0 0 0 0 0 0 0 
0 0 0 0 0 0 0 0 0 
0 0 0 0 0 0 0 0 0 
0 0 0 0 0 0 0 0 0 
0 0 0 0 0 0 0 0 0 
0 0 0 0 0 0 0 0 0 
0 0 0 0 0 0 0 0 0 
0 0 0 0 0 0 0 0 0 
0 0 0 0 0 0 0 0 0 
0 0 0 0 0 0 0 0 0 
0 0 0 0 0 0 0 0 0 
0 0 0 0 0 0 0 0 0 
0 0 0 0 0 0 0 0 0 
0 0 0 0 0 0 0 0 0 
0 0 0 0 0 0 0 0 0 
0 0 0 0 0 0 0 0 0 
0 0 0 0 0 0 0 0 0 
0 0 0 0 0 0 0 0 0 
0 0 0 0 0 0 0 0 0 
0 0 0 0 0 0 0 0 0 
0 0 
NORMALS Normals float
0.0924267 0.470722 0.877427 0.103625 0.482113 0.869959 0.111372 0.475327 0.872732 
-0.00122961 0.479914 0.877314 -0.137482 0.541951 0.829088 -0.145707 0.687987 0.710945 
0.18349 0.507622 0.841814 0.0915971 0.374284 0.922779 0.019279 0.261896 0.964903 
0.0340839 0.196254 0.979961 0.110088 0.152833 0.982101 0.119846 0.170461 0.978049 
0.00871836 0.174448 0.984628 -0.0335504 0.12848 0.991144 -0.0020133 0.266267 0.963897 
-0.0665784 0.386527 0.919872 -0.181036 0.452277 0.87331 -0.388668 0.555683 0.734952 
0.395713 0.367722 0.841541 0.24735 0.386086 0.888682 0.0914313 0.218581 0.971526 
-0.00299788 0.169148 0.985586 -0.0493119 0.0890427 0.994806 -0.0293292 0.0610435 0.997704 
0.0799201 0.0559961 0.995227 0.145062 0.0865317 0.985631 -0.0295263 0.0824585 0.996157 
-0.0214013 -0.0176947 0.999614 0.10593 0.0617946 0.992452 0.0177647 0.0761824 0.996936 
-0.156271 0.128491 0.979321 -0.26592 0.133065 0.954767 -0.468857 0.284517 0.836196 
0.336994 0.201934 0.919596 0.147196 0.116821 0.982184 -0.0699342 0.135735 0.988274 
-0.0639773 0.0574985 0.996294 -0.077274 0.0178005 0.996851 -0.000925159 -0.007328 0.999973 
0.133915 0.206619 0.969214 0.148364 -0.0303306 0.988468 -0.111641 -0.0528351 0.992343 
-0.0427352 0.0468821 0.997986 0.104733 0.00618271 0.994481 0.00819598 -0.0626752 0.998 
-0.133354 -0.04247 0.990158 -0.200882 0.0229711 0.979346 -0.257759 0.145111 0.95525 
-0.384822 0.367875 0.846511 0.511226 0.0831671 0.855413 0.163852 0.12522 0.978505 
0.12707 -0.03708 0.9912 0.0166168 0.0699876 0.997409 -0.110776 0.0388034 0.993088 
-0.116026 0.0071102 0.993221 0.148088 -0.0370968 0.988278 0.0874613 0.113551 0.989675 
-0.147132 -0.0545671 0.987611 0.0644852 -0.221052 0.973128 0.0397013 0.0510623 0.997906 
-0.0064449 -0.0590637 0.998233 -0.0324904 -0.105769 0.99386 -0.0676118 -0.0688866 0.995331 
-0.103541 0.0362953 0.993963 -0.151933 0.0782443 0.985289 -0.302776 0.145963 0.941818 
0.470259 -0.0686087 0.879858 0.287971 -0.00625967 0.957619 0.114979 0.0218103 0.993128 
0.00906031 -0.00608853 0.99994 -0.127342 0.00296477 0.991854 -0.149517 0.0284248 0.98835 
0.0603815 0.0224225 0.997923 0.151975 -0.227074 0.961947 -0.171047 0.00831059 0.985228 
0.0227377 0.0394568 0.998963 0.0862701 -0.100694 0.99117 -0.0512662 -0.164554 0.985035 
-0.00512062 -0.105875 0.994366 0.0114147 -0.0377167 0.999223 -0.0620731 -0.0436149 0.997118 
-0.155 -0.0195199 0.987722 -0.292355 0.0105967 0.956251 0.479707 -0.18511 0.85768 
0.328874 -0.177228 0.927595 0.116083 -0.00909029 0.993198 0.00569361 -0.101855 0.994783 
-0.0700712 0.00518472 0.997528 -0.10176 0.0327901 0.994268 -0.064595 0.0937728 0.993496 
0.0483042 -0.0510833 0.997526 0.0852536 -0.0113649 0.996294 -0.0521904 0.122642 0.991078 
-0.137323 -0.0800981 0.987282 -0.0101748 -0.168282 0.985686 0.0893296 -0.134159 0.986925 
-0.00478403 -0.111527 0.99375 -0.0821032 -0.10402 0.991181 -0.0926908 -0.174344 0.980312 
-0.245078 -0.0875705 0.96554 0.380057 -0.25689 0.888574 0.206691 -0.275885 0.938705 
0.0294463 -0.122017 0.992091 0.00456146 -0.121152 0.992624 -0.062315 0.0150027 0.997944 
-0.015131 0.0235008 0.999609 0.0171312 0.0763139 0.996937 0.0437545 -0.0164712 0.998906 
-0.0593667 -0.0555796 0.996688 -0.207962 -0.0490315 0.976907 -0.107283 -0.140291 0.984281 
0.0711868 -0.236119 0.969113 0.0347049 -0.29739 0.954125 -0.146901 -0.244232 0.958525 
-0.127306 -0.268224 0.954908 -0.339282 -0.494139 0.800446 0.269097 -0.446076 0.853583 
0.139898 -0.316327 0.938278 0.0683929 -0.300241 0.951408 0.0479437 -0.21903 0.97454 
-0.0050577 -0.126871 0.991906 0.00955795 -0.13614 0.990644 -0.0490476 -0.194974 0.979581 
-0.0904268 -0.289837 0.952794 -0.219202 -0.313973 0.923781 -0.208705 -0.38083 0.900783 
-0.0178518 -0.600385 0.799512 0.120209 -0.641521 0.757629 0.142795 -0.553509 0.82051 
0.0478073 -0.52429 0.850197 -0.0805035 -0.623963 0.777296 -0.113071 -0.731629 0.67226 
-0.184173 -0.803965 0.565439 0.0980398 0.53541 0.838883 0.096745 0.57478 0.812569 
0.111975 0.658884 0.743864 -0.0361651 0.704478 0.708804 -0.0458266 0.99172 0.119968 
-0.164048 0.701069 0.693968 -0.156331 0.726621 0.669016 0.199369 0.560683 0.80367 
0.326879 0.904833 0.272814 0.154736 0.574013 0.804093 0.23706 0.791323 0.56357 
0.155561 0.538068 0.828422 0.164509 0.534772 0.828828 0.197213 0.608703 0.768497 
-0.172502 0.755098 0.632511 -0.179788 0.759204 0.625528 -0.197215 0.812464 0.548642 
-0.249571 0.752922 0.608953 -0.270895 0.959615 0.0758554 -0.391859 0.635614 0.665163 
0.446568 0.434064 0.78241 0.596984 0.758516 0.261272 0.300923 0.530591 0.792413 
0.303174 0.529378 0.792366 0.304733 0.532589 0.789612 -0.42924 0.569459 0.701049 
-0.486406 0.354258 0.798693 -0.525433 0.686678 0.502388 0.434246 0.423593 0.794984 
0.694167 0.653215 0.302392 -0.473694 0.318423 0.821109 -0.392973 0.384881 0.835128 
-0.543868 0.516095 0.661705 0.560135 0.349187 0.751211 0.583298 0.342822 0.736368 
0.600409 0.380617 0.703306 -0.402328 0.369316 0.837698 -0.659177 0.457185 0.597048 
0.612012 0.175256 0.771185 -0.392321 0.157017 0.906328 -0.526693 0.204479 0.825096 
0.572429 -0.0218135 0.819664 0.96517 -0.0482129 0.257142 -0.370207 0.0307634 0.92844 
-0.449146 0.0451454 0.892317 0.540926 -0.186414 0.820152 0.47563 -0.328962 0.815819 
-0.383569 -0.159421 0.909648 -0.489505 -0.180455 0.853124 -0.914293 -0.195396 0.354807 
0.414467 -0.367942 0.832367 0.613586 -0.533891 0.581784 0.43108 -0.437001 0.78943 
-0.0811015 -0.440726 0.89397 0.0316007 -0.517675 0.854994 -0.200536 -0.310286 0.929251 
-0.365416 -0.497672 0.786634 -0.34268 -0.538648 0.769694 -0.541812 -0.453204 0.707846 
0.360253 -0.498809 0.788294 0.493503 -0.635929 0.593337 0.316135 -0.511152 0.799239 
0.147788 -0.675578 0.722325 -0.271101 -0.632326 0.725719 -0.153052 -0.440975 0.884373 
-0.215945 -0.448281 0.867417 -0.111797 -0.49384 0.862336 -0.0068144 -0.596971 0.802234 
0.0178665 -0.598854 0.800659 -0.0518459 -0.578695 0.813895 -0.0137316 -0.61184 0.790862 
-0.273851 -0.493668 0.825407 -0.418597 -0.678034 0.60419 0.402826 -0.88992 0.213948 
0.131569 -0.663927 0.736132 0.153277 -0.709373 0.687965 0.122633 -0.648028 0.751678 
0.15239 -0.641542 0.751799 -0.0086043 -0.752771 0.658227 -0.11646 -0.775728 0.620228 
-0.127347 -0.8206 0.557134 -0.190837 -0.804051 0.563101 -0.183735 -0.810669 0.55593 
-0.202219 -0.921535 0.331484 -0.143801 -0.965382 0.217621 -0.0455491 0.993714 0.102262 
0.333892 0.924625 0.183264 0.302257 0.93069 0.20605 0.208325 0.958646 0.193903 
0.09784 0.978376 0.182231 0.0612277 0.98253 0.175741 -0.0156205 0.994339 0.105104 
0.0552598 0.991983 0.113648 -0.0602551 0.992338 0.10786 -0.0416657 0.997058 0.064341 
-0.199966 0.965427 0.167224 -0.289508 0.945128 0.151388 -0.262195 0.960999 0.0879425 
-0.270723 0.959915 0.0726094 0.591331 0.778508 0.210364 0.356443 0.915318 0.187459 
0.461046 0.869201 0.17868 0.319607 0.915385 -0.244789 -0.271355 0.959706 0.0730078 
-0.270671 0.960352 0.0667872 -0.339996 0.930894 0.133564 -0.50001 0.844907 0.190059 
0.605053 0.764779 0.221411 0.708486 0.663348 0.240868 0.573497 0.813015 -0.100542 
-0.564691 0.787324 0.247478 -0.628239 0.691671 0.356241 0.726999 0.649944 0.221462 
0.75713 0.571594 -0.316282 -0.714488 0.586151 0.382012 -0.716761 0.557451 0.418931 
0.911001 0.361503 0.198475 -0.746566 0.498627 0.440466 0.961645 0.166491 0.21799 
0.965138 0.145533 0.217552 -0.888273 0.281393 0.363028 -0.954976 0.295419 -0.0273659 
0.979843 -0.0496321 0.193504 0.972064 -0.12844 0.196454 0.997633 -0.060833 -0.0320488 
-0.945814 0.12818 0.298339 -0.920296 -0.173086 0.35085 -0.954677 0.126229 0.269553 
0.95128 -0.258487 0.16808 -0.914719 -0.195238 0.353796 -0.914575 -0.195895 0.353805 
0.8689 -0.488036 0.0826723 0.735502 -0.657242 0.16453 -0.730162 -0.526179 0.435889 
-0.605523 -0.70245 0.37404 0.695547 -0.70004 0.161735 0.557068 -0.818506 0.140442 
-0.114689 -0.974916 0.190751 -0.0845243 -0.963749 0.253068 -0.143178 -0.940287 0.308805 
-0.14173 -0.959983 0.241549 -0.550501 -0.742931 0.380792 -0.418368 -0.789045 0.449863 
0.421117 -0.905796 0.0468454 0.377816 -0.925238 0.034479 0.389392 -0.909539 -0.145298 
0.254684 -0.964806 0.065466 0.168624 -0.984435 0.0495266 0.0710428 -0.997334 -0.0166592 
-0.0708706 -0.996107 -0.0524279 -0.181602 -0.980655 -0.0730473 -0.179761 -0.977676 -0.108793 
-0.144141 -0.827757 -0.542256 -0.0933116 -0.991524 -0.0904108 -0.0689017 -0.911336 -0.405857 
-0.103296 -0.994617 -0.00817291 -0.0451124 -0.958214 -0.282472 -0.129491 -0.975911 0.175584 
-0.13777 -0.975278 0.17278 -0.113253 -0.993092 0.0306793 0.267109 0.8532 -0.447998 
0.220831 0.885828 -0.408095 0.100856 0.929031 -0.355992 0.0288018 0.926827 -0.374383 
0.037662 0.918555 -0.393494 0.00604945 0.936351 -0.351013 -0.153178 0.950102 -0.271742 
-0.30716 0.917438 -0.252903 -0.288389 0.910584 -0.296088 0.42633 0.812828 -0.396929 
0.29545 0.867577 -0.400023 0.301288 0.867405 -0.396023 0.239273 0.782714 -0.57455 
0.230929 0.676593 -0.699209 0.113135 0.59979 -0.792119 0.010407 0.644841 -0.764246 
0.0652141 0.584934 -0.808455 -0.246924 0.762149 -0.598462 -0.260085 0.915777 -0.306119 
-0.286521 0.867644 -0.406324 -0.246132 0.918264 -0.310178 -0.304987 0.890507 -0.337609 
-0.404927 0.878787 -0.252524 0.502665 0.787976 -0.355559 0.52286 0.77644 -0.351794 
0.319039 0.677625 -0.6626 0.190194 0.590912 -0.783996 -0.249581 0.720355 -0.647146 
-0.464121 0.85349 -0.236952 -0.37833 0.805031 -0.456937 -0.559776 0.801918 -0.208754 
0.729986 0.528075 -0.433887 0.736546 0.514364 -0.439237 0.46616 0.371613 -0.802869 
-0.709801 0.683891 -0.168745 -0.751923 0.639161 -0.161508 0.816427 0.326357 -0.47638 
0.715218 0.326006 -0.61821 -0.81344 0.561942 -0.150121 -0.624957 0.545304 -0.558635 
-0.928259 0.349354 -0.127617 0.862038 0.139836 -0.487172 0.675573 0.0980835 -0.73074 
-0.949967 0.290995 -0.113507 -0.935487 0.293367 -0.196978 0.844747 -0.0762572 -0.529704 
0.66805 -0.103824 -0.736837 -0.981782 0.0701871 -0.176574 -0.93366 0.0423077 -0.355653 
0.795602 -0.243548 -0.554709 0.660203 -0.266059 -0.702385 0.0191803 -0.0473303 -0.998695 
-0.945306 -0.218118 -0.24253 -0.863286 -0.408337 -0.296645 -0.862622 -0.2594 -0.434276 
0.736279 -0.413894 -0.535336 0.670545 -0.479929 -0.565719 0.641856 -0.405226 -0.651009 
0.36501 -0.337893 -0.867523 -0.0441794 -0.159378 -0.986229 -0.0657908 -0.215964 -0.974182 
-0.0237725 -0.250945 -0.96771 0.0153102 -0.224945 -0.974251 0.027171 -0.158396 -0.987002 
0.171757 -0.22725 -0.95857 -0.783379 -0.549145 -0.291131 -0.612132 -0.734457 -0.293033 
-0.609475 -0.599801 -0.518439 0.529641 -0.637654 -0.559355 0.462422 -0.720479 -0.516795 
0.453121 -0.592387 -0.666153 0.333974 -0.771926 -0.540918 0.27004 -0.595233 -0.756819 
0.0602734 -0.464183 -0.883686 0.0465473 -0.35256 -0.934631 -0.0301283 -0.322336 -0.946146 
-0.0548606 -0.328985 -0.94274 -0.0670501 -0.389157 -0.918728 -0.128001 -0.739644 -0.660713 
-0.0840568 -0.450719 -0.888699 -0.0435719 -0.745711 -0.664843 -0.0263675 -0.473365 -0.880472 
0.0113718 -0.781659 -0.623602 0.0218027 -0.453319 -0.891082 0.000232583 -0.843091 -0.537771 
0.0263661 -0.461145 -0.886933 -0.0367926 -0.881384 -0.470966 0.00680245 -0.521525 -0.853209 
-0.0195783 -0.885564 -0.464104 0.073256 -0.643995 -0.761514 -0.0526435 -0.930526 -0.362421 
-0.0401778 -0.615437 -0.787162 -0.10129 -0.913184 -0.39476 -0.148343 -0.63094 -0.761517 
-0.558066 -0.761913 -0.328711 -0.399574 -0.836161 -0.375733 -0.373802 -0.740171 -0.558944 
0.286337 -0.789465 -0.542914 0.239886 -0.79776 -0.553203 0.239213 -0.766316 -0.596269 
0.0644984 -0.848283 -0.525601 0.0661037 -0.678908 -0.731241 -0.0243111 -0.751647 -0.659117 
-0.060432 -0.673742 -0.736491 -0.0658036 -0.728688 -0.681677 -0.068975 -0.663558 -0.744938 
-0.133029 -0.747556 -0.65074 -0.138662 -0.742227 -0.655647 -0.131547 -0.714144 -0.687528 
0.0954486 0.579439 -0.809407 -0.0552548 0.697438 -0.714512 0.153694 0.526679 -0.836055 
0.157312 0.464856 -0.871299 0.115223 0.531601 -0.839121 0.00919078 0.601614 -0.798734 
0.0782444 0.561937 -0.823471 0.0563637 0.540761 -0.839286 0.0995867 0.542925 -0.833855 
-0.223749 0.747046 -0.625986 -0.0290323 0.636698 -0.770566 -0.242071 0.748854 -0.616943 
-0.258201 0.691335 -0.674824 -0.252473 0.699712 -0.668327 0.265365 0.473782 -0.83971 
0.163722 0.545104 -0.822227 0.173546 0.545149 -0.820179 0.131529 0.471772 -0.871855 
0.10904 0.363334 -0.925256 0.127017 0.274699 -0.953104 0.0132385 0.327269 -0.944839 
-0.0114619 0.299277 -0.954098 0.142125 0.208214 -0.967702 0.117069 0.276098 -0.953973 
-0.101517 0.375531 -0.921233 -0.216943 0.507085 -0.834147 -0.245399 0.665061 -0.705318 
-0.235097 0.593831 -0.769476 -0.238148 0.618584 -0.748759 -0.275197 0.591798 -0.757656 
-0.427571 0.514235 -0.743468 0.399256 0.351575 -0.846752 0.433348 0.265875 -0.861115 
0.275742 0.374577 -0.885245 0.126624 0.299734 -0.945582 0.0326791 0.266958 -0.963154 
0.00901968 0.199721 -0.979811 0.09278 0.0775772 -0.99266 0.0538494 0.0471918 -0.997433 
-0.0776433 0.249445 -0.965271 0.0955776 0.0563705 -0.993825 0.163943 0.0485701 -0.985273 
-0.00853458 0.0269043 -0.999602 -0.108432 0.124612 -0.986263 -0.142148 0.203706 -0.968658 
-0.178439 0.3257 -0.928482 -0.239284 0.456966 -0.856694 -0.435293 0.503684 -0.746206 
-0.416983 0.4896 -0.765779 0.47746 0.191876 -0.857447 0.385504 0.145936 -0.911092 
0.229341 0.124214 -0.965388 0.0849408 0.1294 -0.987948 -0.00335545 0.0848079 -0.996392 
-0.0657376 0.0590569 -0.996088 -0.0316003 -0.00958865 -0.999455 0.186015 -0.131481 -0.97371 
-0.0148561 0.0803687 -0.996655 -0.0513788 0.0149401 -0.998567 0.107821 -0.0390485 -0.993403 
-0.0107186 -0.215632 -0.976416 -0.0368167 -0.126676 -0.991261 -0.0276425 -0.00116719 -0.999617 
-0.0669406 0.105543 -0.992159 -0.166043 0.12942 -0.977589 -0.515995 0.43781 -0.736255 
-0.335319 0.260346 -0.905418 -0.536831 0.455182 -0.710367 0.536516 0.0689486 -0.841069 
0.251266 0.0113298 -0.967852 0.207435 0.00247457 -0.978246 0.0883181 -0.0366011 -0.99542 
-0.0286971 -0.0523118 -0.998218 -0.0877141 -0.0805741 -0.992882 -0.0976289 -0.0969644 -0.990488 
0.0869475 -0.00290754 -0.996209 0.0934525 -0.292443 -0.951706 -0.0204896 -0.115087 -0.993144 
-0.0980178 -0.12393 -0.987438 -0.0510981 -0.373407 -0.926259 0.104297 -0.221164 -0.969643 
0.0922456 -0.127086 -0.987593 -0.0199132 -0.0432141 -0.998867 -0.0749233 -0.004716 -0.997178 
-0.222515 0.126214 -0.966725 -0.587003 0.238967 -0.773513 -0.413736 0.168103 -0.894742 
0.466704 -0.0936519 -0.879441 0.301832 -0.083052 -0.949737 0.175084 -0.0600886 -0.982718 
0.027736 -0.148621 -0.988505 -0.0480375 -0.16124 -0.985745 -0.108453 -0.178243 -0.977992 
0.02744 -0.197184 -0.979982 0.0500919 -0.120461 -0.991453 -0.161198 -0.357161 -0.920028 
0.0150304 -0.262722 -0.964754 -0.275964 -0.402985 -0.872609 0.0495934 -0.121162 -0.991393 
0.0863227 -0.229771 -0.969409 0.210433 -0.200644 -0.956797 0.147381 -0.137812 -0.979432 
0.0564863 -0.147212 -0.987491 -0.0233713 0.0314437 -0.999232 -0.173268 -0.132286 -0.97595 
-0.628235 -0.0105628 -0.777952 -0.350126 0.104899 -0.93081 0.330675 -0.115623 -0.936635 
0.322209 -0.190103 -0.927385 0.293203 -0.0971282 -0.951104 0.167044 -0.247188 -0.95446 
-0.003343 -0.154933 -0.987919 -0.0545032 -0.190763 -0.980122 -0.121272 -0.16864 -0.978189 
-0.0447444 -0.159149 -0.98624 -0.0499194 -0.159452 -0.985943 0.0127065 -0.250063 -0.968146 
-0.0571656 -0.198754 -0.978381 -0.0197013 -0.152489 -0.988109 -0.0206705 -0.215222 -0.976346 
-0.00482333 -0.19371 -0.981047 -0.000687048 -0.0617909 -0.998089 -0.0273143 -0.184907 -0.982376 
-0.101228 -0.178392 -0.978739 0.0441334 -0.0665564 -0.996806 0.17419 -0.214795 -0.961 
0.186202 -0.164699 -0.968609 0.149341 -0.126539 -0.980655 0.148595 -0.141262 -0.978757 
-0.0494807 -0.20445 -0.977626 -0.104787 -0.178987 -0.978255 -0.627083 -0.379099 -0.680479 
-0.59922 -0.560526 -0.571617 -0.456003 0.0428998 -0.888944 0.20926 -0.286327 -0.935001 
0.143886 -0.287105 -0.947031 0.135258 -0.258977 -0.956366 0.0489701 -0.379799 -0.923772 
0.0583701 -0.299423 -0.952334 0.00141304 -0.289116 -0.957293 -0.054531 -0.239908 -0.969263 
-0.0452792 -0.160333 -0.986024 -0.0560308 -0.248989 -0.966884 -0.0803001 -0.194565 -0.977597 
-0.0405726 -0.162686 -0.985843 -0.0413463 -0.203585 -0.978184 -0.0174457 -0.211927 -0.97713 
-0.0116346 -0.191906 -0.981344 0.169546 -0.231755 -0.957885 0.133843 -0.439976 -0.887979 
0.147867 -0.28449 -0.947207 -0.0609223 -0.510926 -0.857463 -0.0412625 -0.281342 -0.95872 
-0.0423726 -0.517282 -0.854766 -0.0266152 -0.513528 -0.85766 -0.478359 -0.55005 -0.684556 
-0.16166 -0.505583 -0.847498 -0.063068 -0.317745 -0.946076 
