# vtk DataFile Version 4.2
vtk output
ASCII
DATASET POLYDATA
POINTS 526 float
-26.2886 -39.779 -15.1901 -18.0413 -39.779 -16.1665 -9.794 -39.779 -16.9584 
-1.54671 -39.779 -17.5589 6.70059 -39.779 -17.545 14.9479 -39.779 -16.5164 
23.1952 -39.779 -14.4154 -34.5359 -31.5317 -18.5817 -26.2886 -31.5317 -20.4667 
-18.0413 -31.5317 -20.3249 -9.794 -31.5317 -20.0435 -1.54671 -31.5317 -20.0164 
6.70059 -31.5317 -19.9435 14.9479 -31.5317 -19.6653 23.1952 -31.5317 -18.9045 
31.4425 -31.5317 -17.796 39.6898 -31.5317 -14.4699 -42.7832 -23.2844 -19.5275 
-34.5359 -23.2844 -22.0926 -26.2886 -23.2844 -22.3415 -18.0413 -23.2844 -21.5722 
-9.794 -23.2844 -20.8996 -1.54671 -23.2844 -20.436 6.70059 -23.2844 -20.6242 
14.9479 -23.2844 -20.0927 23.1952 -23.2844 -20.0638 31.4425 -23.2844 -20.0327 
39.6898 -23.2844 -19.3603 47.937 -23.2844 -15.0701 -51.0305 -15.0371 -16.809 
-42.7832 -15.0371 -20.9056 -34.5359 -15.0371 -22.4673 -26.2886 -15.0371 -22.369 
-18.0413 -15.0371 -21.4294 -9.794 -15.0371 -20.217 -1.54671 -15.0371 -20.8345 
6.70059 -15.0371 -21.0195 14.9479 -15.0371 -19.4798 23.1952 -15.0371 -19.8703 
31.4425 -15.0371 -20.5182 39.6898 -15.0371 -20.0907 47.937 -15.0371 -18.0775 
-51.0305 -6.78981 -18.4108 -42.7832 -6.78981 -21.4363 -34.5359 -6.78981 -21.9877 
-26.2886 -6.78981 -21.7975 -18.0413 -6.78981 -20.852 -9.794 -6.78981 -21.4448 
-1.54671 -6.78981 -20.8491 6.70059 -6.78981 -21.7708 14.9479 -6.78981 -18.9722 
23.1952 -6.78981 -19.7577 31.4425 -6.78981 -20.6539 39.6898 -6.78981 -20.8134 
47.937 -6.78981 -19.4698 56.1843 -6.78981 -15.2021 -51.0305 1.45748 -19.0581 
-42.7832 1.45748 -21.3555 -34.5359 1.45748 -21.5322 -26.2886 1.45748 -20.705 
-18.0413 1.45748 -19.875 -9.794 1.45748 -22.3788 -1.54671 1.45748 -18.3666 
6.70059 1.45748 -21.4116 14.9479 1.45748 -19.9564 23.1952 1.45748 -19.2767 
31.4425 1.45748 -20.2106 39.6898 1.45748 -20.3067 47.937 1.45748 -18.9098 
56.1843 1.45748 -14.5844 -51.0305 9.70477 -18.4987 -42.7832 9.70477 -20.9584 
-34.5359 9.70477 -21.3657 -26.2886 9.70477 -20.628 -18.0413 9.70477 -19.8553 
-9.794 9.70477 -19.3776 -1.54671 9.70477 -17.7088 6.70059 9.70477 -19.1102 
14.9479 9.70477 -17.5592 23.1952 9.70477 -18.1442 31.4425 9.70477 -19.1915 
39.6898 9.70477 -19.0378 47.937 9.70477 -17.368 -51.0305 17.9521 -17.0884 
-42.7832 17.9521 -20.3039 -34.5359 17.9521 -21.4344 -26.2886 17.9521 -21.7929 
-18.0413 17.9521 -20.9754 -9.794 17.9521 -19.3385 -1.54671 17.9521 -17.0449 
6.70059 17.9521 -15.6861 14.9479 17.9521 -15.8913 23.1952 17.9521 -17.2606 
31.4425 17.9521 -18.068 39.6898 17.9521 -17.8404 47.937 17.9521 -15.2931 
-42.7832 26.1994 -18.9265 -34.5359 26.1994 -21.1871 -26.2886 26.1994 -21.457 
-18.0413 26.1994 -21.4832 -9.794 26.1994 -19.6875 -1.54671 26.1994 -17.3954 
6.70059 26.1994 -15.1927 14.9479 26.1994 -15.1804 23.1952 26.1994 -15.4753 
31.4425 26.1994 -15.9857 39.6898 26.1994 -14.8297 -34.5359 34.4467 -18.7337 
-26.2886 34.4467 -19.9783 -18.0413 34.4467 -19.9381 -9.794 34.4467 -18.3559 
-1.54671 34.4467 -15.7392 -18.0413 42.6939 -14.7083 -26.2886 -40.4218 -14.3716 
-18.0413 -41.6588 -14.3716 -9.794 -42.8845 -14.3716 -1.54671 -44.047 -14.3716 
-1.54671 -48.0263 -6.5451 6.70059 -44.1397 -14.3716 6.70059 -48.0263 -7.00811 
14.9479 -42.5659 -14.3716 23.1952 -39.8232 -14.3716 -27.9026 -39.779 -14.3716 
-34.5359 -36.4407 -14.3716 -34.5359 -39.779 -7.20698 23.3071 -39.779 -14.3716 
31.4425 -35.8548 -14.3716 31.4425 -39.779 -7.32978 39.6898 -31.64 -14.3716 
-42.066 -31.5317 -14.3716 -42.7832 -30.876 -14.3716 -42.7832 -31.5317 -13.3951 
39.8408 -31.5317 -14.3716 47.937 -24.2821 -14.3716 -49.0698 -23.2844 -14.3716 
-51.0305 -20.1161 -14.3716 -51.0305 -23.2844 -10.5153 48.8573 -23.2844 -14.3716 
-53.4615 -15.0371 -14.3716 53.5405 -15.0371 -14.3716 56.1843 -9.30793 -14.3716 
56.1843 -15.0371 -11.5483 -55.5239 -6.78981 -14.3716 57.1328 -6.78981 -14.3716 
-56.656 1.45748 -14.3716 -59.2778 1.45748 -8.90119 56.4363 1.45748 -14.3716 
56.1843 2.43222 -14.3716 -55.793 9.70477 -14.3716 -59.2778 9.70477 -7.19218 
53.4541 9.70477 -14.3716 56.1843 9.70477 -12.1639 -53.9915 17.9521 -14.3716 
-51.0305 23.8366 -14.3716 49.4347 17.9521 -14.3716 47.937 19.7227 -14.3716 
56.1843 17.9521 -7.3936 -49.2743 26.1994 -14.3716 -51.0305 26.1994 -11.2467 
-42.7832 33.8135 -14.3716 6.70059 30.7569 -14.3716 14.9479 28.291 -14.3716 
23.1952 29.0645 -14.3716 31.4425 28.8725 -14.3716 40.6972 26.1994 -14.3716 
39.6898 26.8894 -14.3716 47.937 26.1994 -9.30842 -42.1124 34.4467 -14.3716 
-42.7832 34.4467 -13.3251 -34.5359 39.0525 -14.3716 -26.2886 42.2323 -14.3716 
-9.794 41.1174 -14.3716 3.85763 34.4467 -14.3716 -1.54671 37.299 -14.3716 
6.70059 34.4467 -13.6089 14.9479 34.4467 -11.6508 23.1952 34.4467 -11.5508 
31.4425 34.4467 -9.93632 39.6898 34.4467 -6.51986 -21.5373 42.6939 -14.3716 
-26.2886 42.6939 -13.2104 -16.2122 42.6939 -14.3716 -18.0413 42.984 -14.3716 
-9.794 42.6939 -12.7364 -1.54671 42.6939 -9.93971 -1.54671 -48.1772 -6.12429 
6.70059 -48.352 -6.12429 -34.5359 -40.18 -6.12429 -26.2886 -43.3336 -6.12429 
-18.0413 -45.2401 -6.12429 -2.48713 -48.0263 -6.12429 -9.794 -46.8335 -6.12429 
-1.54671 -48.0263 -5.24757 8.62748 -48.0263 -6.12429 6.70059 -48.0263 -4.63151 
14.9479 -46.9087 -6.12429 23.1952 -43.8949 -6.12429 31.4425 -40.2162 -6.12429 
-35.2583 -39.779 -6.12429 -42.7832 -34.8183 -6.12429 -34.5359 -39.779 -1.07616 
32.2425 -39.779 -6.12429 31.4425 -39.779 -4.6654 39.6898 -35.5094 -6.12429 
-46.408 -31.5317 -6.12429 -51.0305 -25.7764 -6.12429 45.344 -31.5317 -6.12429 
47.937 -29.4387 -6.12429 -52.7022 -23.2844 -6.12429 53.7931 -23.2844 -6.12429 
56.1843 -20.1131 -6.12429 -56.7234 -15.0371 -6.12429 59.3562 -15.0371 -6.12429 
-59.2399 -6.78981 -6.12429 -59.2778 -6.48837 -6.12429 62.066 -6.78981 -6.12429 
-60.2064 1.45748 -6.12429 -59.2778 1.45748 -3.47732 61.9567 1.45748 -6.12429 
-59.654 9.70477 -6.12429 -59.2778 11.0212 -6.12429 -59.2778 9.70477 -5.1475 
60.2697 9.70477 -6.12429 -57.0396 17.9521 -6.12429 56.9831 17.9521 -6.12429 
56.1843 19.1132 -6.12429 -52.9849 26.1994 -6.12429 -51.0305 29.0302 -6.12429 
-51.0305 26.1994 -1.53626 50.5346 26.1994 -6.12429 47.937 28.6836 -6.12429 
-46.1049 34.4467 -6.12429 -42.7832 37.1355 -6.12429 -42.7832 34.4467 0.340132 
-34.5359 41.8614 -6.12429 6.70059 42.5024 -6.12429 14.9479 40.2107 -6.12429 
23.1952 38.9477 -6.12429 31.4425 37.4415 -6.12429 40.1021 34.4467 -6.12429 
39.6898 34.6923 -6.12429 -32.2606 42.6939 -6.12429 -26.2886 44.7325 -6.12429 
-26.2886 42.6939 1.56586 -18.0413 46.2663 -6.12429 -9.794 46.1892 -6.12429 
6.12243 42.6939 -6.12429 -1.54671 44.8456 -6.12429 6.70059 42.6939 -5.38152 
-26.2886 -42.7132 2.123 -18.0413 -44.4029 2.123 -9.794 -45.7163 2.123 
-1.54671 -46.6345 2.123 6.70059 -46.3554 2.123 14.9479 -44.5489 2.123 
23.1952 -41.319 2.123 -42.7832 -34.1293 2.123 -33.926 -39.779 2.123 
-34.5359 -39.5169 2.123 14.9479 -39.779 8.47201 26.6206 -39.779 2.123 
23.1952 -39.779 4.57592 31.4425 -37.5488 2.123 39.6898 -33.3968 2.123 
-45.4678 -31.5317 2.123 -51.0305 -24.1638 2.123 -42.7832 -31.5317 8.33391 
42.4201 -31.5317 2.123 39.6898 -31.5317 5.31641 47.937 -27.4525 2.123 
-51.5957 -23.2844 2.123 -51.0305 -23.2844 3.55071 52.4167 -23.2844 2.123 
47.937 -23.2844 8.56663 56.1843 -18.5978 2.123 -54.8172 -15.0371 2.123 
-51.0305 -15.0371 9.68831 58.4679 -15.0371 2.123 56.1843 -15.0371 6.72126 
-56.6103 -6.78981 2.123 61.8662 -6.78981 2.123 -57.2212 1.45748 2.123 
62.0728 1.45748 2.123 -56.3466 9.70477 2.123 -51.0305 9.70477 9.65079 
60.6416 9.70477 2.123 -53.688 17.9521 2.123 -51.0305 23.2975 2.123 
-51.0305 17.9521 5.9 57.2634 17.9521 2.123 56.1843 19.5206 2.123 
56.1843 17.9521 5.47487 -49.3282 26.1994 2.123 -42.7832 33.5891 2.123 
-42.7832 26.1994 10.1787 50.7328 26.1994 2.123 47.937 28.8831 2.123 
47.937 26.1994 9.3091 -41.7897 34.4467 2.123 -34.5359 39.2021 2.123 
-34.5359 34.4467 9.48048 -26.2886 42.5239 2.123 14.9479 42.5915 2.123 
23.1952 40.7937 2.123 31.4425 38.4169 2.123 39.9638 34.4467 2.123 
39.6898 34.6107 2.123 39.6898 34.4467 2.82753 -25.5332 42.6939 2.123 
-18.0413 44.2107 2.123 -18.0413 42.6939 5.28087 -9.794 45.093 2.123 
-9.794 42.6939 7.82656 -1.54671 45.2099 2.123 14.44 42.6939 2.123 
6.70059 44.2354 2.123 -26.2886 -39.904 10.3703 -18.0413 -40.9744 10.3703 
-9.794 -41.2543 10.3703 -1.54671 -40.9844 10.3703 6.70059 -39.9093 10.3703 
-26.6335 -39.779 10.3703 -34.5359 -36.3197 10.3703 -26.2886 -39.779 10.5554 
-18.0413 -39.779 11.9358 -9.794 -39.779 12.0348 -1.54671 -39.779 11.5056 
7.25778 -39.779 10.3703 6.70059 -39.779 10.4842 14.9479 -37.6709 10.3703 
23.1952 -35.1146 10.3703 31.4425 -31.7883 10.3703 -41.5128 -31.5317 10.3703 
-42.7832 -30.1786 10.3703 -34.5359 -31.5317 15.6899 -26.2886 -31.5317 18.3186 
-9.794 -31.5317 18.3499 -1.54671 -31.5317 16.8975 6.70059 -31.5317 15.6329 
14.9479 -31.5317 14.7962 23.1952 -31.5317 13.3752 32.0094 -31.5317 10.3703 
31.4425 -31.5317 10.6266 39.6898 -27.5625 10.3703 -47.6144 -23.2844 10.3703 
-42.7832 -23.2844 15.2507 6.70059 -23.2844 18.3538 14.9479 -23.2844 18.3372 
23.1952 -23.2844 18.1952 31.4425 -23.2844 16.6572 45.85 -23.2844 10.3703 
39.6898 -23.2844 13.8955 47.937 -21.5727 10.3703 -50.6168 -15.0371 10.3703 
-51.0305 -12.4465 10.3703 -42.7832 -15.0371 18.1088 53.5305 -15.0371 10.3703 
47.937 -15.0371 14.8336 56.1843 -10.4916 10.3703 -51.8184 -6.78981 10.3703 
-51.0305 -6.78981 11.3258 47.937 -6.78981 18.0893 57.8633 -6.78981 10.3703 
56.1843 -6.78981 12.2836 -51.7723 1.45748 10.3703 -51.0305 6.06263 10.3703 
-51.0305 1.45748 11.1783 -42.7832 1.45748 17.8583 58.7533 1.45748 10.3703 
56.1843 1.45748 13.5474 -50.2859 9.70477 10.3703 -42.7832 9.70477 16.3585 
57.5391 9.70477 10.3703 56.1843 13.4793 10.3703 56.1843 9.70477 12.1756 
-46.7583 17.9521 10.3703 -42.7832 25.8436 10.3703 -42.7832 17.9521 13.6882 
54.1267 17.9521 10.3703 47.937 25.6354 10.3703 47.937 17.9521 16.6312 
-42.5647 26.1994 10.3703 -34.5359 33.5814 10.3703 -34.5359 26.1994 15.9688 
47.3769 26.1994 10.3703 39.6898 32.1912 10.3703 39.6898 26.1994 17.2889 
-33.0473 34.4467 10.3703 -26.2886 37.5146 10.3703 -26.2886 34.4467 13.6245 
[...]
POINT_DATA 526
SCALARS ImageScalars float
LOOKUP_TABLE default
0 0 0 0 0 0 0 0 0 
0 0 0 0 0 0 0 0 0 
0 0 0 0 0 0 0 0 0 
0 0 0 0 0 0 0 0 0 
0 0 0 0 0 0 0 0 0 
0 0 0 0 0 0 0 0 0 
0 0 0 0 0 0 0 0 0 
0 0 0 0 0 0 0 0 0 
0 0 0 0 0 0 0 0 0 
0 0 0 0 0 0 0 0 0 
0 0 0 0 0 0 0 0 0 
0 0 0 0 0 0 0 0 0 
0 0 0 0 0 0 0 0 0 
0 0 0 0 0 0 0 0 0 
0 0 0 0 0 0 0 0 0 
0 0 0 0 0 0 0 0 0 
0 0 0 0 0 0 0 0 0 
0 0 0 0 0 0 0 0 0 
0 0 0 0 0 0 0 0 0 
0 0 0 0 0 0 0 0 0 
0 0 0 0 0 0 0 0 0 
0 0 0 0 0 0 0 0 0 
0 0 0 0 0 0 0 0 0 
0 0 0 0 0 0 0 0 0 
0 0 0 0 0 0 0 0 0 
0 0 0 0 0 0 0 0 0 
0 0 0 0 0 0 0 0 0 
0 0 0 0 0 0 0 0 0 
0 0 0 0 0 0 0 0 0 
0 0 0 0 0 0 0 0 0 
0 0 0 0 0 0 0 0 0 
0 0 0 0 0 0 0 0 0 
0 0 0 0 0 0 0 0 0 
0 0 0 0 0 0 0 0 0 
0 0 0 0 0 0 0 0 0 
0 0 0 0 0 0 0 0 0 
0 0 0 0 0 0 0 0 0 
0 0 0 0 0 0 0 0 0 
0 0 0 0 0 0 0 0 0 
0 0 0 0 0 0 0 0 0 
0 0 0 0 0 0 0 0 0 
0 0 0 0 0 0 0 0 0 
0 0 0 0 0 0 0 0 0 
0 0 0 0 0 0 0 0 0 
0 0 0 0 0 0 0 0 0 
0 0 0 0 0 0 0 0 0 
0 0 0 0 0 0 0 0 0 
0 0 0 0 0 0 0 0 0 
0 0 0 0 0 0 0 0 0 
0 0 0 0 0 0 0 0 0 
0 0 0 0 0 0 0 0 0 
0 0 0 0 0 0 0 0 0 
0 0 0 0 0 0 0 0 0 
0 0 0 0 0 0 0 0 0 
0 0 0 0 0 0 0 0 0 
0 0 0 0 0 0 0 0 0 
0 0 0 0 0 0 0 0 0 
0 0 0 0 0 0 0 0 0 
0 0 0 0 
NORMALS Normals float
0.238222 0.771595 0.589824 0.0911753 0.673096 0.733914 0.078929 0.557363 0.826509 
0.0331577 0.477072 0.878239 -0.0592502 0.464788 0.883437 -0.160872 0.548321 0.820649 
-0.289359 0.686928 0.666634 0.301209 0.517303 0.801044 0.0938658 0.366945 0.925495 
-0.0240922 0.282146 0.959069 -0.0189083 0.219357 0.975461 -0.00595031 0.165567 0.986181 
-0.0219934 0.178434 0.983706 -0.0575365 0.193542 0.979403 -0.10505 0.287139 0.952111 
-0.247726 0.464527 0.850204 -0.435523 0.627907 0.645022 0.443777 0.328149 0.833894 
0.140159 0.213033 0.96694 -0.0333778 0.103345 0.994085 -0.085959 0.0669528 0.994046 
-0.0691601 0.00880474 0.997567 -0.0165847 0.0478797 0.998715 -0.0206053 0.061968 0.997865 
-0.0338851 -0.0100788 0.999375 -0.00356492 0.0526298 0.998608 -0.0351987 0.137603 0.989862 
-0.271824 0.298745 0.914802 -0.530374 0.464954 0.708887 0.660639 0.266896 0.701657 
0.291206 0.0933433 0.952096 0.0907919 -0.00851619 0.995833 -0.0625057 -0.0328922 0.997502 
-0.12957 -0.0433473 0.990622 -0.0372886 0.0264113 0.998955 0.0489133 0.025547 0.998476 
-0.0848821 0.0705255 0.993892 -0.0634203 -0.0675349 0.995699 0.0627317 -0.018373 0.997861 
0.0143009 0.0360377 0.999248 -0.139569 0.0786635 0.987083 -0.374456 0.238815 0.895963 
0.542865 0.126164 0.830289 0.183616 0.0289302 0.982572 0.0205606 -0.0576533 0.998125 
-0.0685041 -0.100365 0.99259 -0.0245138 -0.0935215 0.995315 0.00155934 0.135249 0.99081 
0.0228804 -0.13341 0.990797 -0.116374 0.0241476 0.992912 -0.122681 0.023306 0.992172 
0.102161 -0.0360545 0.994114 0.06347 -0.01855 0.997811 -0.0646766 0.0122099 0.997832 
-0.300945 0.0464639 0.952509 -0.630278 0.104495 0.769305 0.446615 0.00342499 0.894719 
0.128991 -0.0286773 0.991231 -0.0397322 -0.0375882 0.998503 -0.0996981 -0.0703838 0.992525 
0.098406 -0.0632865 0.993132 -0.0566909 -0.12857 0.990079 -0.0807967 -0.204205 0.975588 
0.0888784 -0.139992 0.986156 -0.128552 -0.0821979 0.98829 0.01998 -0.0976396 0.995021 
0.0618303 -0.0876345 0.994232 -0.0718476 -0.105524 0.991818 -0.31206 -0.117612 0.942754 
-0.618854 -0.126992 0.775173 0.48218 -0.119698 0.867857 0.149959 -0.0666824 0.986441 
-0.020933 -0.00552727 0.999766 -0.0910682 0.0655237 0.993687 -0.0746789 0.0663273 0.994999 
-0.132448 -0.179539 0.974794 -0.0376539 -0.0748894 0.996481 -0.00273822 -0.369813 0.929102 
-0.0360027 -0.245022 0.968849 0.0958178 -0.121466 0.98796 0.0537183 -0.126563 0.990503 
-0.1013 -0.14133 0.984766 -0.320189 -0.210593 0.92365 0.60163 -0.271692 0.751149 
0.243924 -0.101946 0.964421 0.0902258 -0.00938042 0.995877 -0.025693 0.0504302 0.998397 
-0.145435 0.09731 0.984571 -0.231571 0.0189226 0.972634 -0.220231 -0.0197537 0.975248 
-0.0661385 -0.180371 0.981373 0.0924986 -0.132211 0.986896 0.128294 -0.156082 0.979377 
0.0370589 -0.18014 0.982943 -0.161535 -0.25209 0.954126 -0.418345 -0.350127 0.838092 
0.415221 -0.326322 0.849179 0.131631 -0.139165 0.981482 0.0167449 -0.107291 0.994087 
-0.108826 -0.0525416 0.992671 -0.235829 -0.0504011 0.970487 -0.268915 -0.0699342 0.960622 
-0.128469 -0.116692 0.984824 0.0165374 -0.225789 0.974036 0.0444064 -0.29453 0.95461 
-0.0387396 -0.395011 0.917859 -0.272481 -0.474249 0.837163 0.302357 -0.503523 0.809349 
0.0593569 -0.352387 0.93397 -0.0945565 -0.341118 0.935253 -0.231011 -0.30874 0.922666 
-0.26582 -0.311448 0.912327 -0.0362559 -0.774261 0.631827 0.248635 0.799795 0.54636 
0.131808 0.758121 0.638654 0.116608 0.71266 0.691751 0.0601951 0.701455 0.710168 
0.0895494 0.989177 0.116229 -0.0666169 0.694179 0.716713 -0.0734525 0.988996 0.128418 
-0.200066 0.675117 0.710064 -0.290249 0.688815 0.664297 0.280551 0.789818 0.545416 
0.391944 0.715942 0.57776 0.434132 0.882953 0.178674 -0.291351 0.68881 0.663818 
-0.345101 0.660821 0.666499 -0.455189 0.88408 0.105857 -0.437354 0.632002 0.639761 
0.560462 0.62469 0.543732 0.575895 0.613541 0.540289 0.592951 0.642869 0.484901 
-0.439582 0.630514 0.639702 -0.545871 0.504244 0.669151 0.681011 0.476813 0.555764 
0.723444 0.404537 0.559445 0.794498 0.510536 0.328826 -0.558833 0.482218 0.674665 
0.768583 0.288528 0.570992 -0.625778 0.315778 0.713223 -0.667696 0.186645 0.720657 
-0.776722 0.384242 0.49906 0.780504 0.164937 0.603 -0.668341 0.117738 0.734478 
0.807015 0.0130937 0.590386 0.988811 0.0217157 0.147585 -0.627315 -0.128483 0.768094 
-0.625441 -0.144938 0.766692 0.776212 -0.143914 0.613827 0.982556 -0.180914 0.0430601 
-0.556408 -0.249789 0.792475 -0.721964 -0.284297 0.630827 0.766054 -0.278399 0.579357 
0.677409 -0.43078 0.596277 -0.47278 -0.369357 0.800034 -0.446282 -0.401984 0.799525 
-0.799406 -0.483773 0.35625 0.6351 -0.482105 0.603508 0.768209 -0.530028 0.35906 
0.548246 -0.619667 0.56164 -0.176933 -0.250607 0.951783 -0.00931127 -0.297307 0.954736 
0.0117303 -0.388337 0.921443 -0.0844706 -0.482915 0.871584 -0.304791 -0.48937 0.81708 
-0.279979 -0.49965 0.819733 -0.603247 -0.645193 0.468849 0.539404 -0.631645 0.556838 
0.571858 -0.663229 0.482811 0.379202 -0.743144 0.551309 0.184639 -0.832613 0.522173 
-0.184607 -0.66095 0.727369 -0.229891 -0.34461 0.910161 -0.267655 -0.442201 0.856049 
-0.219208 -0.380123 0.898585 -0.111928 -0.561209 0.820071 -0.0739343 -0.643844 0.761576 
-0.210474 -0.757148 0.618408 -0.424374 -0.848087 0.317262 0.0626977 -0.817041 0.573161 
0.201744 -0.87707 0.435944 -0.0659033 -0.770813 0.633643 -0.0332111 -0.787826 0.615002 
-0.158533 -0.792158 0.589367 -0.255829 -0.81873 0.514035 0.0898282 0.991638 0.0926534 
-0.0725747 0.994528 0.0751523 0.431232 0.893 0.128802 0.285571 0.950238 0.124488 
0.20954 0.969799 0.12483 0.0991499 0.990716 0.0930076 0.175627 0.977808 0.114222 
0.0866056 0.995055 0.0486398 -0.115877 0.990995 0.0670944 -0.0829886 0.996528 -0.0067034 
-0.262644 0.963289 0.0556082 -0.380931 0.923449 0.0461879 -0.455195 0.889878 0.0302552 
0.450153 0.883719 0.128072 0.641771 0.756667 0.124844 0.441451 0.895183 -0.0613809 
-0.461487 0.886645 0.029845 -0.456207 0.888821 -0.0432827 -0.52829 0.846554 0.0652443 
0.714446 0.690049 0.115759 0.822189 0.560682 0.0981884 -0.615524 0.784578 0.0746122 
-0.66241 0.743566 0.0912278 0.852969 0.514057 0.0904933 -0.765013 0.630606 0.130733 
-0.821629 0.547562 0.158438 0.93922 0.33919 0.0530594 -0.893403 0.408823 0.186267 
0.978879 0.204265 0.00852059 0.980235 0.197702 0.00734555 -0.96023 0.163972 0.22599 
0.999695 0.0240065 -0.00581681 0.98855 0.0130298 -0.150327 -0.961214 -0.102104 0.256207 
0.983869 -0.178189 -0.0158178 0.978226 -0.206561 -0.0201422 0.980735 -0.181821 -0.0714173 
-0.912157 -0.289256 0.290347 0.931777 -0.361862 -0.0290939 -0.82305 -0.488168 0.290313 
-0.809063 -0.512512 0.287659 0.850242 -0.526115 -0.0170789 0.805976 -0.591166 -0.0304012 
0.798014 -0.536166 -0.275136 -0.686858 -0.666882 0.288955 -0.630988 -0.719431 0.290298 
0.672062 -0.739853 -0.0308309 0.599609 -0.799898 -0.0251277 0.610619 -0.718803 -0.332364 
0.393148 -0.919339 -0.0158394 -0.250164 -0.874394 0.415756 -0.184054 -0.844021 0.503738 
-0.148734 -0.8776 0.455736 -0.254396 -0.88948 0.379615 -0.436983 -0.849519 0.295571 
-0.427469 -0.853889 0.296891 0.350066 -0.936628 -0.0134693 0.251608 -0.967737 0.0133242 
0.280899 -0.896786 -0.341863 0.0878798 -0.994973 0.0480204 -0.0834612 -0.983977 0.157554 
-0.248257 -0.881153 0.402415 -0.221415 -0.932747 0.284532 -0.242521 -0.894177 0.376338 
0.271517 0.943126 -0.191811 0.179719 0.955626 -0.233408 0.126828 0.949378 -0.287395 
0.0411033 0.92909 -0.367563 -0.120076 0.899722 -0.419622 -0.271746 0.857875 -0.436124 
-0.363883 0.836747 -0.409199 0.649821 0.736225 -0.18896 0.426071 0.886209 -0.181927 
0.439405 0.879593 -0.182317 -0.21335 0.707039 -0.674224 -0.391845 0.826771 -0.403619 
-0.345299 0.804538 -0.483206 -0.410774 0.819445 -0.399718 -0.483624 0.799867 -0.355417 
0.715541 0.669176 -0.200512 0.844944 0.482756 -0.230254 0.658214 0.645819 -0.386874 
-0.532334 0.772052 -0.347212 -0.468282 0.758345 -0.45346 -0.609427 0.722869 -0.325668 
0.853949 0.464865 -0.23382 0.84643 0.457149 -0.273078 -0.677677 0.672953 -0.296459 
-0.54737 0.633473 -0.546898 -0.792724 0.544681 -0.273698 0.900096 0.287675 -0.327217 
0.816081 0.199607 -0.542374 -0.859513 0.439881 -0.260272 -0.769773 0.459372 -0.4432 
0.905561 0.135615 -0.401955 -0.95161 0.214433 -0.220129 0.891778 -0.0150472 -0.452222 
-0.982529 -0.0698623 -0.1725 0.857003 -0.192468 -0.478018 0.713591 -0.198992 -0.671707 
-0.951549 -0.271319 -0.14471 0.826012 -0.338509 -0.450683 0.754319 -0.461883 -0.466548 
0.738051 -0.354685 -0.574003 -0.858246 -0.49713 -0.127577 -0.83729 -0.531837 -0.126867 
-0.831947 -0.491335 -0.257785 0.714769 -0.521052 -0.466487 0.603788 -0.679363 -0.417021 
0.602365 -0.443152 -0.663907 -0.714293 -0.687436 -0.131215 -0.661333 -0.738994 -0.128555 
-0.647527 -0.653249 -0.392395 0.579984 -0.702258 -0.412859 0.42508 -0.812129 -0.399691 
0.42818 -0.674236 -0.601721 0.281049 -0.886238 -0.368231 -0.202798 -0.975527 0.0849669 
-0.249105 -0.96752 0.0430428 -0.340356 -0.939092 -0.0475798 -0.489614 -0.865221 -0.108031 
-0.484096 -0.86845 -0.106986 -0.487743 -0.863388 -0.129104 0.269115 -0.89108 -0.365449 
0.141803 -0.928227 -0.343929 0.159884 -0.891936 -0.422951 0.0576072 -0.96442 -0.258022 
0.122347 -0.895073 -0.428807 -0.0516852 -0.99203 -0.114912 -0.199845 -0.97647 0.0810392 
-0.155717 -0.987389 0.0285649 0.224776 0.84821 -0.479599 0.0757084 0.842735 -0.532978 
0.00269692 0.780538 -0.625103 -0.0617274 0.693471 -0.717836 -0.132741 0.647561 -0.750363 
0.23281 0.846573 -0.478658 0.425302 0.772129 -0.472159 0.223551 0.844477 -0.486707 
0.0582602 0.803811 -0.592025 -0.0217628 0.733724 -0.6791 -0.075451 0.659296 -0.748088 
-0.137009 0.647061 -0.750027 -0.132644 0.64405 -0.753396 -0.183265 0.635822 -0.749763 
-0.243285 0.674641 -0.696902 -0.302996 0.687751 -0.659691 0.614918 0.635521 -0.466892 
0.654212 0.58982 -0.473413 0.360361 0.58728 -0.724736 0.152046 0.505119 -0.849551 
-0.112187 0.461417 -0.880062 -0.144103 0.422075 -0.895035 -0.107325 0.412301 -0.904704 
-0.117749 0.497859 -0.859227 -0.196156 0.591128 -0.782362 -0.30887 0.687177 -0.657561 
-0.299547 0.682719 -0.666458 -0.405549 0.650095 -0.642578 0.756103 0.400809 -0.517359 
0.60035 0.349304 -0.719421 -0.0819717 0.258726 -0.962466 -0.00866101 0.251458 -0.967829 
-0.0890587 0.324365 -0.94173 -0.214894 0.434879 -0.874471 -0.492679 0.604391 -0.626082 
-0.361747 0.559081 -0.746034 -0.524461 0.579577 -0.623723 0.802004 0.190645 -0.566078 
0.798647 0.147601 -0.583418 0.548236 0.151677 -0.822454 -0.650811 0.449721 -0.611715 
-0.486872 0.418178 -0.766865 -0.732306 0.339479 -0.590324 0.781684 0.0563392 -0.621125 
0.764442 0.0492338 -0.642809 -0.421695 0.248944 -0.871895 -0.773446 0.240501 -0.586465 
-0.717376 0.245133 -0.652136 0.733976 -0.0676174 -0.675801 0.713593 -0.14197 -0.686024 
0.718117 -0.0717545 -0.692213 0.547193 -0.113729 -0.829244 -0.839273 -0.0202287 -0.543333 
-0.746633 0.000574422 -0.665236 0.692903 -0.198386 -0.693202 0.547397 -0.19831 -0.813037 
-0.833607 -0.227286 -0.503428 -0.806937 -0.336121 -0.48567 -0.793416 -0.214311 -0.569703 
0.629147 -0.310042 -0.712775 0.60116 -0.434219 -0.670865 0.584207 -0.283962 -0.760307 
-0.753425 -0.461461 -0.468406 -0.641151 -0.630494 -0.437496 -0.584142 -0.385552 -0.714232 
0.597768 -0.441659 -0.669037 0.431189 -0.645245 -0.630662 0.44972 -0.426842 -0.784575 
-0.631771 -0.642678 -0.433395 -0.510053 -0.761899 -0.399194 -0.484307 -0.546568 -0.683161 
0.401636 -0.670901 -0.623362 0.284522 -0.749651 -0.597554 0.282774 -0.666091 -0.690189 
0.184264 -0.800804 -0.569877 0.205474 -0.635522 -0.744239 0.15366 -0.842723 -0.515952 
0.214891 -0.587424 -0.780228 -0.18056 -0.954885 -0.235781 -0.297618 -0.913838 -0.276269 
-0.444664 -0.814744 -0.372111 -0.385296 -0.85377 -0.350178 -0.392134 -0.777662 -0.491399 
0.0929822 -0.906817 -0.411142 0.087175 -0.91166 -0.401593 0.0895199 -0.908582 -0.408001 
-0.095755 -0.959844 -0.263685 -0.0443442 -0.958051 -0.283145 -0.0369411 -0.947606 -0.317299 
0.00219194 0.477435 -0.878664 0.320666 0.398336 -0.859361 0.0892663 0.484224 -0.870379 
0.145606 0.481985 -0.863997 -0.0689606 0.459952 -0.885262 -0.000312732 0.457915 -0.888996 
-0.113043 0.446483 -0.887623 -0.167117 0.353561 -0.920362 0.401524 0.313375 -0.860566 
0.313457 0.307723 -0.89836 0.0884742 0.274787 -0.957426 -0.0207318 0.262144 -0.964806 
-0.116319 0.295086 -0.948364 -0.100609 0.268663 -0.957965 -0.177276 0.315705 -0.93215 
-0.0948397 0.247044 -0.964352 -0.0129367 0.218167 -0.975826 -0.0658121 0.273453 -0.959631 
-0.0958025 0.317417 -0.943434 -0.231207 0.356798 -0.905118 0.513141 0.149071 -0.84526 
0.546978 0.0113212 -0.837071 0.289517 0.140749 -0.946768 0.0994142 0.170811 -0.980276 
0.0149355 0.235217 -0.971828 -0.0579989 0.265411 -0.962389 -0.201817 0.211646 -0.956282 
-0.178195 0.179297 -0.967522 -0.0343484 0.111913 -0.993124 -0.00717879 0.154159 -0.98802 
-0.0512468 0.278234 -0.959145 -0.239527 0.351472 -0.905038 -0.226192 0.34813 -0.909749 
0.549448 -0.0132979 -0.835422 0.54707 -0.0240679 -0.836741 0.546842 -0.0134479 -0.837128 
0.331883 0.0234776 -0.943028 0.176696 0.104613 -0.97869 0.073469 0.217013 -0.9734 
-0.146618 0.191221 -0.970535 -0.269672 0.0485734 -0.961726 -0.183633 0.158767 -0.970088 
-0.031102 0.194268 -0.980455 0.0910003 0.201498 -0.975252 0.00391702 0.225032 -0.974344 
-0.380094 0.244328 -0.892095 -0.197558 0.225534 -0.953994 -0.428416 0.189496 -0.883488 
0.522266 -0.113646 -0.845176 0.397294 -0.102119 -0.911992 0.279856 -0.0375872 -0.959306 
-0.235584 0.174974 -0.955973 -0.0316735 0.237971 -0.970756 0.00259087 0.288084 -0.957602 
0.0170322 0.244337 -0.969541 -0.0392915 0.164911 -0.985526 -0.201259 0.114661 -0.972804 
-0.492319 0.0625762 -0.868162 -0.441703 0.0697645 -0.894445 0.480181 -0.187009 -0.857003 
0.408151 -0.177333 -0.895525 0.280678 -0.172032 -0.944259 0.174364 -0.201308 -0.963884 
-0.0973834 0.160659 -0.982194 -0.0762969 0.188722 -0.979062 -0.0231854 0.160266 -0.986802 
-0.0277652 0.128227 -0.991356 -0.121578 0.0767992 -0.989606 -0.280386 -0.0312751 -0.959378 
-0.540524 -0.141283 -0.829381 -0.531699 -0.218098 -0.81837 -0.504602 -0.131994 -0.853203 
0.44791 -0.247036 -0.859273 0.43702 -0.269839 -0.858021 0.433774 -0.244014 -0.867351 
0.259802 -0.246146 -0.933764 0.175048 -0.269339 -0.947003 0.150862 -0.244548 -0.957829 
0.0563816 -0.097674 -0.99362 -0.0424462 0.00502657 -0.999086 -0.0614819 0.0163681 -0.997974 
-0.0683444 -0.0695453 -0.995235 -0.190431 -0.153563 -0.969616 -0.508811 -0.342496 -0.789815 
-0.460521 -0.475826 -0.74934 -0.391003 -0.27408 -0.878633 0.320944 -0.412212 -0.852688 
0.271186 -0.453506 -0.848994 0.267699 -0.409539 -0.872132 0.18876 -0.5121 -0.837928 
0.170139 -0.38569 -0.906805 0.214775 -0.576498 -0.788367 0.193529 -0.361386 -0.912111 
0.151808 -0.295567 -0.943183 0.0365784 -0.208239 -0.977394 -0.0980052 -0.200658 -0.974747 
-0.196607 -0.304103 -0.93213 -0.442733 -0.511836 -0.736214 -0.372881 -0.586619 -0.718914 
-0.317159 -0.440192 -0.840025 0.213065 -0.585313 -0.782312 0.179792 -0.663014 -0.726696 
0.189506 -0.575063 -0.795858 0.0385096 -0.730994 -0.681296 0.053941 -0.551927 -0.832146 
-0.156883 -0.736856 -0.657595 -0.144918 -0.581602 -0.800461 -0.328355 -0.669909 -0.665887 
-0.31034 -0.683484 -0.660711 -0.309791 -0.654573 -0.689611 0.094879 0.0648789 -0.993372 
-0.208014 0.0745902 -0.975278 0.134832 -0.00658447 -0.990847 0.124567 -0.0602761 -0.990379 
0.103152 0.000375978 -0.994666 -0.21305 0.0681745 -0.97466 -0.211978 0.0656887 -0.975064 
0.0355991 -0.109831 -0.993313 0.00172372 -0.0599361 -0.998201 0.0274565 -0.107741 -0.9938 
0.0195299 -0.099318 -0.994864 
