# vtk DataFile Version 4.2
vtk output
ASCII
DATASET POLYDATA
POINTS 562 float
-27.9151 -43.2367 -13.0082 -19.8213 -43.2367 -15.3576 -11.7275 -43.2367 -16.5271 
-3.63375 -43.2367 -17.3834 4.46003 -43.2367 -17.2208 12.5538 -43.2367 -16.3557 
20.6476 -43.2367 -16.0655 28.7414 -43.2367 -14.0534 -36.0089 -35.1429 -15.8417 
-27.9151 -35.1429 -17.6706 -19.8213 -35.1429 -18.4117 -11.7275 -35.1429 -18.8761 
-3.63375 -35.1429 -19.0684 4.46003 -35.1429 -18.6356 12.5538 -35.1429 -18.099 
20.6476 -35.1429 -17.674 28.7414 -35.1429 -17.406 36.8352 -35.1429 -15.619 
-44.1026 -27.0491 -16.0183 -36.0089 -27.0491 -18.9109 -27.9151 -27.0491 -19.1713 
-19.8213 -27.0491 -19.154 -11.7275 -27.0491 -18.9823 -3.63375 -27.0491 -18.578 
4.46003 -27.0491 -18.1416 12.5538 -27.0491 -18.0828 20.6476 -27.0491 -19.0839 
28.7414 -27.0491 -17.8833 36.8352 -27.0491 -16.489 44.9289 -27.0491 -14.7162 
-52.1964 -18.9554 -13.8726 -44.1026 -18.9554 -18.1436 -36.0089 -18.9554 -19.203 
-27.9151 -18.9554 -19.4241 -19.8213 -18.9554 -18.8112 -11.7275 -18.9554 -18.3701 
-3.63375 -18.9554 -17.2899 4.46003 -18.9554 -16.7491 12.5538 -18.9554 -17.4104 
20.6476 -18.9554 -17.8942 28.7414 -18.9554 -17.7997 36.8352 -18.9554 -17.0857 
44.9289 -18.9554 -15.2029 -52.1964 -10.8616 -15.5224 -44.1026 -10.8616 -19.3314 
-36.0089 -10.8616 -19.8663 -27.9151 -10.8616 -19.4863 -19.8213 -10.8616 -18.6863 
-11.7275 -10.8616 -17.9544 -3.63375 -10.8616 -18.0053 4.46003 -10.8616 -18.7855 
12.5538 -10.8616 -16.8352 20.6476 -10.8616 -16.2879 28.7414 -10.8616 -16.8686 
36.8352 -10.8616 -16.7004 44.9289 -10.8616 -15.16 -52.1964 -2.76779 -15.8708 
-44.1026 -2.76779 -18.7309 -36.0089 -2.76779 -20.2129 -27.9151 -2.76779 -19.5226 
-19.8213 -2.76779 -18.7072 -11.7275 -2.76779 -20.4851 -3.63375 -2.76779 -16.9559 
4.46003 -2.76779 -17.8096 12.5538 -2.76779 -16.8675 20.6476 -2.76779 -16.3153 
28.7414 -2.76779 -17.3465 36.8352 -2.76779 -17.2853 44.9289 -2.76779 -15.5759 
-52.1964 5.32599 -15.4524 -44.1026 5.32599 -19.4818 -36.0089 5.32599 -20.0801 
-27.9151 5.32599 -19.4794 -19.8213 5.32599 -18.3978 -11.7275 5.32599 -19.3626 
-3.63375 5.32599 -18.7544 4.46003 5.32599 -19.6962 12.5538 5.32599 -17.677 
20.6476 5.32599 -17.8287 28.7414 5.32599 -18.2621 36.8352 5.32599 -17.631 
44.9289 5.32599 -15.3305 -52.1964 13.4198 -14.1022 -44.1026 13.4198 -18.1193 
-36.0089 13.4198 -19.2694 -27.9151 13.4198 -19.0177 -19.8213 13.4198 -18.2498 
-11.7275 13.4198 -17.9643 -3.63375 13.4198 -19.0618 4.46003 13.4198 -18.098 
12.5538 13.4198 -16.6978 20.6476 13.4198 -17.5921 28.7414 13.4198 -18.1318 
36.8352 13.4198 -16.9041 44.9289 13.4198 -13.7092 -44.1026 21.5135 -16.3645 
-36.0089 21.5135 -18.217 -27.9151 21.5135 -19.2719 -19.8213 21.5135 -18.8645 
-11.7275 21.5135 -18.6689 -3.63375 21.5135 -18.5886 4.46003 21.5135 -17.975 
12.5538 21.5135 -17.3301 20.6476 21.5135 -17.7054 28.7414 21.5135 -17.3672 
36.8352 21.5135 -15.5128 -36.0089 29.6073 -16.0732 -27.9151 29.6073 -17.9647 
-19.8213 29.6073 -18.8075 -11.7275 29.6073 -18.7833 -3.63375 29.6073 -18.7543 
4.46003 29.6073 -18.4368 12.5538 29.6073 -18.0906 20.6476 29.6073 -17.7787 
28.7414 29.6073 -16.7678 36.8352 29.6073 -13.2727 -27.9151 37.7011 -15.3434 
-19.8213 37.7011 -17.0796 -11.7275 37.7011 -17.6288 -3.63375 37.7011 -17.7211 
4.46003 37.7011 -17.6379 12.5538 37.7011 -17.4812 20.6476 37.7011 -16.5625 
28.7414 37.7011 -14.7201 -11.7275 45.7949 -13.5027 -3.63375 45.7949 -14.4772 
4.46003 45.7949 -14.7342 12.5538 45.7949 -14.0685 -27.9151 -43.5354 -12.7494 
-19.8213 -46.2173 -12.7494 -11.7275 -47.6746 -12.7494 -3.63375 -48.8711 -12.7494 
4.46003 -48.6175 -12.7494 12.5538 -47.8818 -12.7494 20.6476 -47.2939 -12.7494 
28.7414 -45.1956 -12.7494 -28.7179 -43.2367 -12.7494 -36.0089 -40.0282 -12.7494 
-36.0089 -43.2367 -7.1913 32.0824 -43.2367 -12.7494 36.8352 -40.295 -12.7494 
36.8352 -43.2367 -8.9095 -41.9429 -35.1429 -12.7494 -44.1026 -33.0938 -12.7494 
-44.1026 -35.1429 -10.6507 41.8731 -35.1429 -12.7494 44.9289 -30.6254 -12.7494 
44.9289 -35.1429 -10.0694 -50.5251 -27.0491 -12.7494 -52.1964 -22.8871 -12.7494 
-52.1964 -27.0491 -10.4082 47.7276 -27.0491 -12.7494 53.0227 -27.0491 -8.0531 
-53.3352 -18.9554 -12.7494 49.5594 -18.9554 -12.7494 53.0227 -18.9554 -10.3385 
-55.999 -10.8616 -12.7494 50.4559 -10.8616 -12.7494 53.0227 -10.8616 -11.4493 
-56.6266 -2.76779 -12.7494 -60.2902 -2.76779 -5.00984 50.9319 -2.76779 -12.7494 
53.0227 -2.76779 -11.5719 -55.7646 5.32599 -12.7494 49.8691 5.32599 -12.7494 
53.0227 5.32599 -10.5371 -53.5109 13.4198 -12.7494 -52.1964 16.5153 -12.7494 
46.437 13.4198 -12.7494 44.9289 16.3761 -12.7494 53.0227 13.4198 -7.19538 
-49.8799 21.5135 -12.7494 -52.1964 21.5135 -9.67859 -44.1026 29.5353 -12.7494 
41.9285 21.5135 -12.7494 44.9289 21.5135 -10.6009 -44.0152 29.6073 -12.7494 
-44.1026 29.6073 -12.6949 -36.0089 36.3252 -12.7494 37.7827 29.6073 -12.7494 
36.8352 30.8398 -12.7494 44.9289 29.6073 -6.74404 -34.4083 37.7011 -12.7494 
-36.0089 37.7011 -11.5863 -27.9151 41.2696 -12.7494 -19.8213 44.2193 -12.7494 
20.6476 44.5323 -12.7494 32.1621 37.7011 -12.7494 28.7414 40.6672 -12.7494 
36.8352 37.7011 -8.63225 -27.9151 45.7949 -5.59808 -15.1019 45.7949 -12.7494 
-19.8213 45.7949 -11.0599 -11.7275 46.6666 -12.7494 -3.63375 47.8964 -12.7494 
4.46003 48.2214 -12.7494 17.8521 45.7949 -12.7494 12.5538 47.326 -12.7494 
20.6476 45.7949 -11.4135 28.7414 45.7949 -5.49835 -36.0089 -44.2154 -4.65567 
-27.9151 -47.8177 -4.65567 -19.8213 -49.859 -4.65567 -11.7275 -50.6786 -4.65567 
-3.63375 -50.6533 -4.65567 4.46003 -50.2106 -4.65567 12.5538 -49.8407 -4.65567 
20.6476 -49.1895 -4.65567 28.7414 -48.1321 -4.65567 36.8352 -45.4536 -4.65567 
-37.7723 -43.2367 -4.65567 -44.1026 -39.1212 -4.65567 -36.0089 -43.2367 3.30871 
40.7076 -43.2367 -4.65567 36.8352 -43.2367 0.13173 44.9289 -40.3222 -4.65567 
-48.6518 -35.1429 -4.65567 -52.1964 -30.7619 -4.65567 50.1503 -35.1429 -4.65567 
53.0227 -31.0448 -4.65567 -54.5732 -27.0491 -4.65567 55.4138 -27.0491 -4.65567 
-58.0946 -18.9554 -4.65567 58.9212 -18.9554 -4.65567 -59.9452 -10.8616 -4.65567 
-60.2902 -4.77006 -4.65567 60.7583 -10.8616 -4.65567 61.1165 -10.8616 -3.51203 
-60.4017 -2.76779 -4.65567 -60.2902 -1.85193 -4.65567 -60.2902 -2.76779 -3.92821 
60.2304 -2.76779 -4.65567 61.1165 -2.76779 -2.3353 -59.408 5.32599 -4.65567 
58.6315 5.32599 -4.65567 61.1165 5.32599 1.37161 -57.5212 13.4198 -4.65567 
54.981 13.4198 -4.65567 53.0227 17.2249 -4.65567 -54.6404 21.5135 -4.65567 
-52.1964 25.6468 -4.65567 50.4422 21.5135 -4.65567 53.0227 21.5135 2.49199 
-49.5906 29.6073 -4.65567 -44.1026 35.7471 -4.65567 46.5633 29.6073 -4.65567 
44.9289 31.6307 -4.65567 -41.711 37.7011 -4.65567 -36.0089 41.8667 -4.65567 
40.1207 37.7011 -4.65567 36.8352 40.996 -4.65567 -28.7865 45.7949 -4.65567 
-27.9151 46.23 -4.65567 -19.8213 49.4714 -4.65567 -11.7275 51.3202 -4.65567 
-3.63375 52.2702 -4.65567 4.46003 52.3428 -4.65567 12.5538 51.09 -4.65567 
20.6476 49.0381 -4.65567 29.5075 45.7949 -4.65567 28.7414 46.2159 -4.65567 
28.7414 45.7949 -0.136149 -27.9151 -46.3909 3.43811 -19.8213 -47.6842 3.43811 
-11.7275 -47.0294 3.43811 -3.63375 -45.9058 3.43811 4.46003 -44.3853 3.43811 
12.5538 -44.7487 3.43811 20.6476 -44.2868 3.43811 28.7414 -43.6624 3.43811 
-44.1026 -37.9136 3.43811 -35.9701 -43.2367 3.43811 -36.0089 -43.2189 3.43811 
-27.9151 -43.2367 8.13691 -19.8213 -43.2367 9.09265 -11.7275 -43.2367 7.68152 
-3.63375 -43.2367 6.0447 4.46003 -43.2367 4.48117 12.5538 -43.2367 4.79807 
20.6476 -43.2367 4.26736 30.5037 -43.2367 3.43811 28.7414 -43.2367 3.87035 
36.8352 -40.9714 3.43811 44.9289 -37.229 3.43811 -47.2507 -35.1429 3.43811 
-52.1964 -29.0523 3.43811 -44.1026 -35.1429 7.44984 -3.63375 -35.1429 10.5142 
4.46003 -35.1429 8.74587 12.5538 -35.1429 8.73836 20.6476 -35.1429 9.28899 
28.7414 -35.1429 8.79633 36.8352 -35.1429 8.10571 47.5539 -35.1429 3.43811 
44.9289 -35.1429 5.53965 53.0227 -30.0413 3.43811 -53.5018 -27.0491 3.43811 
-52.1964 -27.0491 5.59345 55.5012 -27.0491 3.43811 53.0227 -27.0491 6.57061 
-57.0409 -18.9554 3.43811 60.7038 -18.9554 3.43811 61.1165 -17.6617 3.43811 
-58.6713 -10.8616 3.43811 62.7464 -10.8616 3.43811 61.1165 -10.8616 7.87199 
-59.008 -2.76779 3.43811 62.7855 -2.76779 3.43811 61.1165 -2.76779 10.5648 
-57.6684 5.32599 3.43811 -52.1964 5.32599 11.1069 61.7331 5.32599 3.43811 
61.1165 6.66878 3.43811 61.1165 5.32599 6.58605 -56.1799 13.4198 3.43811 
-52.1964 13.4198 9.6853 57.788 13.4198 3.43811 -52.9946 21.5135 3.43811 
-52.1964 23.0807 3.43811 -52.1964 21.5135 4.841 53.3107 21.5135 3.43811 
53.0227 22.0108 3.43811 53.0227 21.5135 5.34662 -48.5356 29.6073 3.43811 
-44.1026 35.0359 3.43811 -44.1026 29.6073 10.4589 48.3479 29.6073 3.43811 
44.9289 34.265 3.43811 -41.3258 37.7011 3.43811 -36.0089 41.7478 3.43811 
28.7414 45.4262 3.43811 41.6479 37.7011 3.43811 36.8352 41.5601 3.43811 
36.8352 37.7011 9.85803 -29.0662 45.7949 3.43811 -27.9151 46.4037 3.43811 
-27.9151 45.7949 5.17885 -19.8213 49.356 3.43811 -11.7275 51.5145 3.43811 
-3.63375 52.2162 3.43811 4.46003 51.4536 3.43811 12.5538 49.954 3.43811 
12.5538 45.7949 9.99932 27.665 45.7949 3.43811 20.6476 47.8969 3.43811 
20.6476 45.7949 7.45027 -36.0089 -36.7825 11.5319 -27.9151 -40.0077 11.5319 
-19.8213 -40.3083 11.5319 -11.7275 -37.9371 11.5319 -38.6415 -35.1429 11.5319 
-44.1026 -30.7062 11.5319 -36.0089 -35.1429 12.7493 -27.9151 -35.1429 14.9677 
-19.8213 -35.1429 14.8335 -6.66521 -35.1429 11.5319 -11.7275 -35.1429 13.1692 
-3.63375 -32.4918 11.5319 4.46003 -28.2136 11.5319 12.5538 -27.6137 11.5319 
20.6476 -28.3542 11.5319 28.7414 -29.7256 11.5319 36.8352 -28.235 11.5319 
44.9289 -27.5112 11.5319 -47.1032 -27.0491 11.5319 -52.1964 -19.4778 11.5319 
-44.1026 -27.0491 13.6547 -36.0089 -27.0491 17.0652 -27.9151 -27.0491 17.8259 
-19.8213 -27.0491 17.5456 -11.7275 -27.0491 16.0512 -3.63375 -27.0491 13.6173 
4.46003 -27.0491 11.9999 12.5538 -27.0491 11.7392 20.6476 -27.0491 11.9716 
28.7414 -27.0491 12.6967 36.8352 -27.0491 12.0258 45.5918 -27.0491 11.5319 
44.9289 -27.0491 11.8353 53.0227 -21.3262 11.5319 -52.4396 -18.9554 11.5319 
[...]
POINT_DATA 562
SCALARS ImageScalars float
LOOKUP_TABLE default
0 0 0 0 0 0 0 0 0 
0 0 0 0 0 0 0 0 0 
0 0 0 0 0 0 0 0 0 
0 0 0 0 0 0 0 0 0 
0 0 0 0 0 0 0 0 0 
0 0 0 0 0 0 0 0 0 
0 0 0 0 0 0 0 0 0 
0 0 0 0 0 0 0 0 0 
0 0 0 0 0 0 0 0 0 
0 0 0 0 0 0 0 0 0 
0 0 0 0 0 0 0 0 0 
0 0 0 0 0 0 0 0 0 
0 0 0 0 0 0 0 0 0 
0 0 0 0 0 0 0 0 0 
0 0 0 0 0 0 0 0 0 
0 0 0 0 0 0 0 0 0 
0 0 0 0 0 0 0 0 0 
0 0 0 0 0 0 0 0 0 
0 0 0 0 0 0 0 0 0 
0 0 0 0 0 0 0 0 0 
0 0 0 0 0 0 0 0 0 
0 0 0 0 0 0 0 0 0 
0 0 0 0 0 0 0 0 0 
0 0 0 0 0 0 0 0 0 
0 0 0 0 0 0 0 0 0 
0 0 0 0 0 0 0 0 0 
0 0 0 0 0 0 0 0 0 
0 0 0 0 0 0 0 0 0 
0 0 0 0 0 0 0 0 0 
0 0 0 0 0 0 0 0 0 
0 0 0 0 0 0 0 0 0 
0 0 0 0 0 0 0 0 0 
0 0 0 0 0 0 0 0 0 
0 0 0 0 0 0 0 0 0 
0 0 0 0 0 0 0 0 0 
0 0 0 0 0 0 0 0 0 
0 0 0 0 0 0 0 0 0 
0 0 0 0 0 0 0 0 0 
0 0 0 0 0 0 0 0 0 
0 0 0 0 0 0 0 0 0 
0 0 0 0 0 0 0 0 0 
0 0 0 0 0 0 0 0 0 
0 0 0 0 0 0 0 0 0 
0 0 0 0 0 0 0 0 0 
0 0 0 0 0 0 0 0 0 
0 0 0 0 0 0 0 0 0 
0 0 0 0 0 0 0 0 0 
0 0 0 0 0 0 0 0 0 
0 0 0 0 0 0 0 0 0 
0 0 0 0 0 0 0 0 0 
0 0 0 0 0 0 0 0 0 
0 0 0 0 0 0 0 0 0 
0 0 0 0 0 0 0 0 0 
0 0 0 0 0 0 0 0 0 
0 0 0 0 0 0 0 0 0 
0 0 0 0 0 0 0 0 0 
0 0 0 0 0 0 0 0 0 
0 0 0 0 0 0 0 0 0 
0 0 0 0 0 0 0 0 0 
0 0 0 0 0 0 0 0 0 
0 0 0 0 0 0 0 0 0 
0 0 0 0 0 0 0 0 0 
0 0 0 0 
NORMALS Normals float
0.277149 0.638829 0.717695 0.186621 0.571487 0.799109 0.12656 0.484005 0.865865 
0.0386695 0.446798 0.893799 -0.0607642 0.371207 0.92656 -0.0761504 0.434485 0.897454 
-0.148742 0.472954 0.868441 -0.317457 0.530153 0.786231 0.298013 0.432319 0.851051 
0.158063 0.330125 0.930609 0.0658416 0.211186 0.975226 0.0434686 0.129641 0.990608 
-0.0151826 0.0579606 0.998203 -0.0623409 0.0412361 0.997203 -0.0602227 0.091809 0.993954 
-0.0416313 0.1899 0.98092 -0.143315 0.239907 0.960159 -0.335809 0.272263 0.901723 
0.378151 0.322466 0.867766 0.185305 0.194953 0.963149 0.0134299 0.0985964 0.995037 
-0.0116391 0.0278695 0.999544 -0.0355469 -0.0313828 0.998875 -0.0520255 -0.108517 0.992732 
-0.0303684 -0.114545 0.992954 0.0569665 -0.0423788 0.997476 -0.0117713 0.0123683 0.999854 
-0.152967 0.021297 0.988002 -0.170076 0.0939169 0.980945 -0.406915 0.249355 0.878773 
0.630503 0.221052 0.744044 0.259037 0.201513 0.944612 0.0730144 0.0569849 0.995702 
-0.0243823 0.0189974 0.999522 -0.0664893 -0.0295348 0.99735 -0.0940665 -0.0635414 0.993536 
-0.101758 -0.0384715 0.994065 0.00759357 0.0140584 0.999872 0.0704062 -0.074016 0.994769 
0.0238989 -0.16723 0.985628 -0.04792 -0.0627657 0.996877 -0.173016 0.0111083 0.984856 
-0.346462 0.0193484 0.937864 0.527797 0.0926224 0.844305 0.248396 0.0260012 0.968309 
0.00578058 0.0622197 0.998046 -0.0721939 0.0059329 0.997373 -0.0947474 -0.00643604 0.995481 
-0.0429686 0.123197 0.991452 0.0431275 -0.00648759 0.999049 -0.0746913 0.0876114 0.993351 
-0.138103 -0.036387 0.989749 0.004716 -0.0986014 0.995116 0.024868 -0.0296661 0.99925 
-0.100734 0.012923 0.994829 -0.287365 0.0212902 0.957585 0.498362 -0.00357802 0.866962 
0.247506 0.00803865 0.968853 0.0572484 0.013204 0.998273 -0.0946812 -0.000258584 0.995508 
0.0556521 -0.0177421 0.998293 -0.0619116 0.0978404 0.993275 -0.200662 0.0384593 0.978905 
-0.00927773 0.0549293 0.998447 -0.0905394 0.0550934 0.994368 0.0325686 0.0960616 0.994842 
0.0609073 0.087777 0.994276 -0.103111 0.0570788 0.993031 -0.313646 0.0109185 0.949477 
0.554812 -0.0814657 0.827977 0.257414 -0.0252131 0.965972 -0.00198335 -0.0581155 0.998308 
-0.105918 -0.0318947 0.993863 -0.00951551 -0.0283069 0.999554 0.0308104 -0.165204 0.985778 
0.0149266 0.121279 0.992506 -0.0806669 0.00694165 0.996717 -0.0934897 -0.019612 0.995427 
0.0358544 0.0789314 0.996235 -0.0114203 0.0457273 0.998889 -0.170088 -0.0233917 0.985151 
-0.378679 -0.104072 0.919658 0.643078 -0.250815 0.723562 0.246728 -0.193343 0.949602 
0.0479392 -0.119093 0.991725 -0.0625067 -0.0114364 0.997979 -0.0649437 0.0287858 0.997474 
0.0462402 -0.0332363 0.998377 0.0153239 -0.0129241 0.999799 -0.154025 -0.0929429 0.983686 
-0.0221816 -0.0184479 0.999584 0.0882173 -0.00755683 0.996073 -0.0414875 -0.0537349 0.997693 
-0.247629 -0.120594 0.96132 -0.473316 -0.229074 0.850587 0.36547 -0.255144 0.895172 
0.169068 -0.17347 0.970219 0.0447222 -0.0711793 0.99646 -0.0363883 0.0345298 0.998741 
-0.0168044 0.050482 0.998584 -0.0437383 -0.0176603 0.998887 -0.0763468 0.0217444 0.996844 
-0.0168821 0.0876085 0.996012 0.00285095 0.0114049 0.999931 -0.12401 -0.0804408 0.989015 
-0.340194 -0.215304 0.915375 0.276184 -0.329197 0.902968 0.146684 -0.220611 0.964269 
0.0550169 -0.0972781 0.993735 -0.00322207 -0.0652608 0.997863 -0.0214343 -0.0513701 0.99845 
-0.0409205 -0.0190076 0.998982 -0.0401385 0.00745619 0.999166 -0.0759127 -0.0618296 0.995196 
-0.255588 -0.159414 0.953552 -0.443675 -0.314003 0.839378 0.241649 -0.477425 0.84479 
0.136868 -0.376195 0.916376 0.0340036 -0.283991 0.958224 0.00084135 -0.244613 0.969621 
-0.015289 -0.214219 0.976666 -0.0578218 -0.220078 0.973767 -0.181749 -0.32882 0.926739 
-0.35053 -0.402514 0.845642 0.15169 -0.644171 0.749689 0.0699554 -0.573747 0.81604 
-0.0240258 -0.557159 0.830058 -0.150775 -0.614138 0.774662 0.281382 0.652143 0.703941 
0.191181 0.734957 0.650606 0.142493 0.788331 0.598523 0.0489713 0.817335 0.574077 
-0.0517022 0.868992 0.492118 -0.0796907 0.822877 0.562604 -0.122398 0.797639 0.590584 
-0.323792 0.639132 0.697616 0.290811 0.654646 0.697759 0.369942 0.64562 0.66807 
0.449774 0.855961 0.255017 -0.367391 0.598956 0.711531 -0.387653 0.536252 0.749773 
-0.434779 0.826812 0.35686 0.480872 0.552605 0.680727 0.499276 0.529969 0.685461 
0.572847 0.63168 0.522329 -0.482033 0.35487 0.801069 -0.482741 0.335543 0.808933 
-0.632226 0.492211 0.598347 0.624854 0.390836 0.675874 0.668155 0.311956 0.675465 
0.751602 0.441396 0.490167 -0.502837 0.271822 0.820529 -0.779445 0.352386 0.517967 
0.679339 0.238873 0.693858 -0.471069 0.0839381 0.878094 -0.619641 0.152716 0.769885 
0.702531 0.144922 0.696741 -0.442908 0.0451197 0.895431 -0.537573 0.0641747 0.840771 
0.723632 -0.0109945 0.690098 0.994306 -0.0324377 0.10151 -0.49386 -0.0196731 0.869319 
-0.571378 -0.0387154 0.819774 0.719173 -0.137235 0.681143 -0.515871 -0.151412 0.84318 
-0.632592 -0.195463 0.749414 0.704584 -0.282206 0.651092 0.694195 -0.316392 0.646521 
-0.512719 -0.251083 0.821021 -0.52056 -0.256031 0.814534 -0.738388 -0.350166 0.576339 
0.651718 -0.352851 0.671387 0.80678 -0.411944 0.423566 0.511203 -0.524635 0.680757 
-0.507476 -0.266534 0.819407 -0.628848 -0.316111 0.710369 0.50981 -0.525258 0.68132 
0.513612 -0.527878 0.676423 0.43847 -0.580533 0.686095 -0.466342 -0.327144 0.821889 
-0.46885 -0.342796 0.814046 -0.71959 -0.47969 0.502083 0.418774 -0.60348 0.678557 
0.47683 -0.651955 0.589566 0.30411 -0.648736 0.69761 0.227513 -0.63942 0.734425 
-0.281962 -0.620996 0.731342 -0.462383 -0.445027 0.766911 -0.388 -0.53814 0.748239 
-0.643225 -0.558813 0.52344 0.40329 -0.877673 0.258934 0.191235 -0.669546 0.717731 
0.258852 -0.74554 0.614138 0.157616 -0.67662 0.719266 0.0772162 -0.666789 0.741235 
-0.0305069 -0.678378 0.734079 -0.246823 -0.658759 0.710715 -0.16116 -0.687338 0.708233 
-0.306509 -0.727691 0.613611 -0.424326 -0.875776 0.230139 0.460263 0.880517 0.113349 
0.324677 0.93999 0.104894 0.176942 0.982184 0.0632988 0.0491592 0.99741 -0.0524998 
-0.03022 0.981617 -0.188453 -0.0523623 0.96874 -0.242491 -0.0672392 0.976059 -0.206852 
-0.112339 0.988732 -0.0989387 -0.216333 0.967205 -0.133097 -0.41886 0.907942 0.0140347 
0.490637 0.863917 0.113677 0.615854 0.773261 0.150971 0.4336 0.850501 -0.297723 
-0.5169 0.856042 0.0024266 -0.406321 0.827221 -0.388083 -0.646844 0.759832 0.0651729 
0.713785 0.683987 0.150572 0.807551 0.577953 0.117607 -0.741316 0.649258 0.170042 
-0.809515 0.540716 0.228717 0.860725 0.496437 0.112708 -0.854138 0.422577 0.303113 
0.944622 0.297325 0.138877 -0.867876 0.283949 0.407632 0.985786 0.138504 0.0950887 
0.996471 0.00928367 0.0834205 -0.873103 0.0678991 0.482784 -0.911918 0.0780716 0.402877 
0.996192 -0.0330497 0.0806767 0.995812 -0.0484813 0.0775152 0.998366 -0.0351751 0.0450428 
-0.85447 -0.0981423 0.510146 -0.928556 -0.0883496 0.360524 0.983243 -0.171822 0.0609134 
-0.813083 -0.277753 0.511615 -0.938869 -0.303225 0.163031 0.95185 -0.292359 0.0922344 
-0.795288 -0.378799 0.473316 -0.79215 -0.39162 0.468115 0.894728 -0.433688 0.106663 
0.850081 -0.513842 0.11545 -0.782518 -0.40861 0.469791 -0.860561 -0.497854 0.107596 
0.793293 -0.592493 0.140134 0.681764 -0.711064 0.172007 -0.766399 -0.503983 0.398288 
-0.748216 -0.534497 0.393046 0.634151 -0.751442 0.182176 0.515463 -0.830891 0.209567 
-0.707031 -0.620048 0.34007 -0.638926 -0.707342 0.302391 0.415933 -0.883492 0.215502 
0.407053 -0.887204 0.217204 0.301098 -0.927794 0.220315 0.167131 -0.958679 0.230222 
0.0619007 -0.977426 0.202009 -0.0808584 -0.986293 0.143831 -0.190023 -0.975471 0.111123 
-0.294896 -0.947339 0.12484 -0.436717 -0.879067 0.191102 -0.419544 -0.889094 0.183016 
-0.38872 -0.91865 -0.0705645 0.244073 0.898791 -0.364147 0.044072 0.891356 -0.451156 
-0.0984851 0.803473 -0.587138 -0.135089 0.717553 -0.683278 -0.0591593 0.655518 -0.752858 
0.00062285 0.680673 -0.732587 -0.0612907 0.687625 -0.723474 -0.12405 0.719335 -0.683498 
0.60443 0.733412 -0.311079 0.431577 0.849064 -0.304685 0.432542 0.848655 -0.304453 
0.189928 0.791481 -0.580935 -0.0268717 0.725212 -0.688001 -0.149723 0.68244 -0.715443 
-0.161054 0.617278 -0.770085 -0.0632765 0.614783 -0.786154 -0.0079858 0.614179 -0.789126 
-0.0550262 0.653846 -0.754624 -0.167716 0.708508 -0.685483 -0.122608 0.702386 -0.701157 
-0.309039 0.660907 -0.683884 -0.481329 0.703737 -0.522567 0.671042 0.673633 -0.309713 
0.788936 0.531738 -0.307953 0.569657 0.654587 -0.496998 -0.257042 0.425341 -0.867764 
-0.0930416 0.41323 -0.905861 0.0331486 0.402191 -0.914956 0.00477628 0.404838 -0.914376 
-0.0608347 0.483164 -0.873414 -0.170254 0.542909 -0.822352 -0.539293 0.696245 -0.473715 
-0.416441 0.653827 -0.631733 -0.678776 0.658594 -0.324834 0.817479 0.487581 -0.306583 
0.773762 0.488764 -0.402991 -0.733057 0.601276 -0.317955 -0.628297 0.567679 -0.531962 
0.912533 0.273042 -0.304519 -0.902943 0.411309 -0.124572 -0.925915 0.361134 -0.110741 
0.937658 0.11406 -0.328312 -0.990419 0.123652 -0.0614892 -0.908821 0.18313 -0.374844 
0.935344 -0.0554252 -0.349372 -0.997654 -0.0622481 0.0284826 -0.902167 0.0124926 -0.431206 
0.910309 -0.160018 -0.381748 0.716814 -0.130763 -0.684893 -0.953253 -0.297592 0.0524236 
-0.943481 -0.326642 0.0561019 -0.948541 -0.286176 -0.13555 0.898165 -0.26618 -0.349927 
0.75355 -0.215059 -0.621219 -0.893046 -0.444956 0.0669494 0.850046 -0.399336 -0.343442 
0.843578 -0.421399 -0.332866 0.832083 -0.390078 -0.394306 -0.861454 -0.503508 0.0661586 
-0.859942 -0.506648 0.0617123 -0.859412 -0.51024 -0.03264 0.798652 -0.528489 -0.287844 
0.701907 -0.669466 -0.243193 0.688075 -0.458585 -0.562364 -0.825086 -0.563976 -0.0341158 
-0.762883 -0.645591 -0.0349597 0.64051 -0.740124 -0.204849 0.547042 -0.816349 -0.185253 
-0.343639 -0.895962 -0.28136 -0.657227 -0.747334 -0.0976912 -0.518774 -0.835334 -0.181909 
-0.407608 -0.757318 -0.510221 0.431377 -0.888929 -0.15401 0.414122 -0.897613 -0.150976 
0.414507 -0.882332 -0.222877 0.303872 -0.935645 -0.179528 0.168782 -0.972799 -0.158664 
-0.0026363 -0.983605 -0.180315 -0.131465 -0.954417 -0.267964 -0.218443 -0.919143 -0.32781 
-0.207899 -0.768889 -0.604639 -0.328406 -0.90116 -0.28295 -0.247832 -0.92078 -0.301237 
-0.223949 -0.852916 -0.471573 0.335743 0.587768 -0.736074 0.137206 0.634557 -0.7606 
-0.0665724 0.59553 -0.80057 -0.220928 0.488303 -0.844246 0.387392 0.565174 -0.728358 
0.495137 0.508437 -0.704508 0.318945 0.540443 -0.778585 0.108251 0.458198 -0.882234 
-0.100142 0.419071 -0.902414 -0.252191 0.420376 -0.871598 -0.226499 0.411553 -0.882792 
-0.252985 0.366563 -0.895338 -0.0987451 0.387146 -0.916715 0.000883213 0.306084 -0.952004 
0.0536463 0.261567 -0.963693 -0.00568761 0.375073 -0.926978 -0.0733822 0.399825 -0.913649 
-0.240365 0.503555 -0.829854 0.55637 0.444894 -0.701799 0.704915 0.272732 -0.654761 
0.468605 0.425598 -0.774129 0.221201 0.366754 -0.903638 0.0246886 0.291984 -0.956104 
-0.100648 0.231735 -0.967558 -0.219953 0.166167 -0.961254 -0.234809 0.224778 -0.945695 
-0.100085 0.386628 -0.916789 -0.0012842 0.298364 -0.954451 0.0594152 0.238943 -0.969214 
0.00700373 0.320801 -0.947121 -0.0578252 0.380887 -0.922812 -0.264825 0.497831 -0.825852 
-0.238936 0.495825 -0.834906 -0.446589 0.430227 -0.784515 0.710433 0.260055 -0.653954 
0.70291 0.260766 -0.661754 0.407507 0.265982 -0.873608 0.154797 0.230255 -0.96074 
-0.227324 0.136478 -0.964208 -0.256085 0.0487212 -0.965426 -0.0239875 0.0575123 -0.998057 
-0.050235 0.363343 -0.9303 -0.139425 0.112305 -0.983844 0.0499763 0.148482 -0.987652 
0.105009 0.254392 -0.961383 0.0257765 0.344203 -0.938542 -0.146219 0.360174 -0.921355 
-0.506194 0.425113 -0.750365 -0.403367 0.421853 -0.811995 0.751084 0.0576181 -0.657688 
0.706316 0.0557453 -0.705698 0.389337 0.0726663 -0.918225 -0.311427 0.234174 -0.920965 
0.0760985 0.206196 -0.975547 -0.0464912 0.0295592 -0.998481 -0.224297 0.146414 -0.963459 
0.190829 0.265347 -0.94508 0.197242 0.290502 -0.936325 0.0600839 0.30653 -0.949963 
-0.0963983 0.280369 -0.95504 -0.702456 0.242642 -0.669089 -0.418104 0.296693 -0.858582 
0.719808 -0.0946963 -0.687683 0.707448 -0.122917 -0.695995 0.688588 -0.098698 -0.718405 
0.381175 -0.0808975 -0.920957 -0.223087 0.232205 -0.946738 -0.0945189 0.0750741 -0.992688 
0.0864102 0.374955 -0.923007 0.169249 0.334366 -0.927122 0.133284 0.266489 -0.954578 
-0.864182 0.0270968 -0.50245 -0.42836 0.0897458 -0.89914 0.698752 -0.129257 -0.703589 
0.442423 -0.131149 -0.887165 -0.0749935 -0.0514447 -0.995856 0.0513893 0.0259732 -0.998341 
0.0692738 0.179054 -0.981397 0.0613929 0.137665 -0.988574 -0.859696 -0.238501 -0.451707 
-0.518474 -0.100192 -0.849203 0.678513 -0.18854 -0.70998 0.485591 -0.132549 -0.864079 
0.296155 -0.0716045 -0.952452 -0.0987018 0.156473 -0.982738 0.0215438 0.104717 -0.994269 
0.0402887 0.0502567 -0.997923 0.0584535 -0.000399406 -0.99829 -0.808258 -0.406723 -0.425788 
-0.784966 -0.472696 -0.400483 -0.677342 -0.342409 -0.651125 0.690292 -0.295862 -0.660274 
0.670488 -0.411555 -0.617307 0.606088 -0.243939 -0.757067 0.347575 -0.115002 -0.930573 
0.00567863 -0.0169602 -0.99984 -0.766776 -0.495654 -0.4079 -0.440977 -0.376993 -0.814503 
0.662035 -0.439231 -0.607278 0.447159 -0.325207 -0.83324 -0.104742 -0.167057 -0.980368 
-0.0607743 -0.270141 -0.960901 -0.0807323 -0.342376 -0.936088 -0.368006 -0.7085 -0.602162 
-0.252647 -0.447478 -0.857865 -0.67056 -0.575568 -0.468049 -0.65808 -0.584802 -0.474276 
-0.651659 -0.569051 -0.501519 0.522265 -0.662216 -0.537317 0.518048 -0.666616 -0.535956 
0.516684 -0.660489 -0.544787 0.382253 -0.749876 -0.539972 0.302996 -0.551904 -0.776914 
0.169075 -0.442788 -0.880541 0.0805934 -0.344739 -0.935233 -0.179546 -0.371158 -0.911046 
-0.203414 -0.703372 -0.681095 -0.173692 -0.423094 -0.889282 -0.190162 -0.687031 -0.701304 
-0.147568 -0.495504 -0.855978 -0.329087 -0.709225 -0.623459 -0.257487 -0.696123 -0.67016 
-0.229641 -0.63151 -0.740581 0.270722 -0.795817 -0.541651 0.259425 -0.797795 -0.544263 
0.256628 -0.789423 -0.557632 0.144779 -0.811867 -0.565606 0.13163 -0.726669 -0.674259 
-0.0536583 -0.804295 -0.591803 -0.0590672 -0.682975 -0.72805 -0.204984 -0.734855 -0.646506 
-0.199425 -0.754393 -0.625396 -0.198946 -0.710561 -0.674925 -0.0209841 0.215294 -0.976324 
0.0828759 0.219072 -0.972183 0.152452 0.208777 -0.966008 -0.0941622 0.180207 -0.979111 
-0.028628 0.199821 -0.979414 -0.239994 0.102865 -0.965309 0.292211 0.0716733 -0.953664 
0.140018 0.0629037 -0.988149 -0.0674229 0.0688223 -0.995348 -0.248399 0.104368 -0.963019 
-0.24239 0.0927645 -0.965734 -0.161522 0.102963 -0.981483 0.0375324 0.247649 -0.968123 
-0.158124 0.185 -0.969934 0.248276 -0.0683495 -0.966275 0.147119 -0.0563651 -0.987511 
-0.00331024 -0.0427911 -0.999079 -0.0598051 -0.0124357 -0.998133 -0.159493 0.117023 -0.980238 
-0.115245 0.0352798 -0.99271 -0.128181 0.0695741 -0.989307 0.120533 0.192022 -0.973961 
0.120733 0.261029 -0.957751 0.129846 0.258363 -0.957282 0.0219241 0.215582 -0.97624 
-0.197285 0.160772 -0.967073 -0.170945 0.17119 -0.970295 0.2241 -0.0778528 -0.971452 
0.265998 -0.0696628 -0.961453 0.177483 -0.0621894 -0.982157 -0.0269274 0.00740341 -0.99961 
-0.12746 -0.0144998 -0.991738 -0.129138 -0.0129076 -0.991543 0.0653513 0.136474 -0.988486 
0.104691 0.131327 -0.985796 0.082845 0.124231 -0.988789 -0.0238153 0.0818924 -0.996357 
-0.321766 -0.0268177 -0.946439 -0.19737 0.0110071 -0.980267 0.271857 -0.0610984 -0.960396 
0.048468 0.0390424 -0.998061 -0.111025 0.133667 -0.984788 -0.125887 0.100581 -0.986933 
-0.0909231 0.148666 -0.984699 -0.0241999 0.141539 -0.989637 0.0226802 0.0511313 -0.998434 
0.0801173 -0.00189979 -0.996784 0.140232 -0.0057239 -0.990102 0.0827072 -0.0634068 -0.994555 
-0.095957 -0.109938 -0.989296 -0.350713 -0.19791 -0.915332 -0.331149 -0.213973 -0.918997 
-0.319012 -0.184263 -0.929666 0.279414 -0.0982252 -0.955133 0.134622 -0.0645679 -0.988791 
-0.0136087 0.0336797 -0.99934 -0.0693122 0.120399 -0.990303 -0.0485582 0.15861 -0.986147 
-0.000588494 -0.00619072 -0.999981 -0.0369693 0.0567973 -0.997701 0.0101931 -0.0284359 -0.999544 
0.00642227 -0.163438 -0.986533 0.0418591 -0.106683 -0.993412 -0.0396961 -0.236496 -0.970821 
-0.0230577 -0.204199 -0.978658 -0.161024 -0.265155 -0.950665 -0.153113 -0.267118 -0.951422 
-0.150592 -0.261537 -0.953373 0.237038 -0.25548 -0.937306 0.207684 -0.281334 -0.936866 
0.198764 -0.247412 -0.948304 0.109625 -0.290632 -0.950534 0.0608447 -0.162678 -0.984801 
0.0770394 -0.325498 -0.942399 0.0199681 -0.0730307 -0.99713 -0.0430475 -0.0169944 -0.998928 
-0.119739 -0.135114 -0.983568 -0.158826 -0.204664 -0.965861 -0.137388 -0.0900109 -0.986419 
-0.000188075 -0.342791 -0.939412 -0.0715312 -0.3424 -0.936828 -0.06283 -0.347012 -0.935754 
-0.062944 -0.340357 -0.938187 
