# vtk DataFile Version 4.2
vtk output
ASCII
DATASET POLYDATA
POINTS 570 float
41.8087 -6.00141 -19.3475 34.118 1.68928 -19.4935 34.118 9.37997 -19.0175 
41.8087 9.37997 -19.3201 -42.7889 17.0707 -19.2278 -35.0982 24.7614 -19.929 
11.0459 -36.7642 -11.5541 -12.0261 -29.0735 -11.4302 -4.33544 -29.0735 -11.6511 
3.35525 -29.0735 -12.0548 11.0459 -29.0735 -12.2167 18.7366 -29.0735 -12.1558 
26.4273 -29.0735 -13.2205 34.118 -29.0735 -11.5127 41.8087 -29.0735 -11.601 
-19.7168 -21.3828 -12.2911 -12.0261 -21.3828 -12.7099 -4.33544 -21.3828 -12.2123 
3.35525 -21.3828 -12.062 11.0459 -21.3828 -11.7878 18.7366 -21.3828 -12.694 
26.4273 -21.3828 -14.095 34.118 -21.3828 -14.6176 41.8087 -21.3828 -14.7176 
49.4994 -21.3828 -11.5453 -35.0982 -13.6921 -12.1617 -27.4075 -13.6921 -13.0155 
-19.7168 -13.6921 -13.1331 -12.0261 -13.6921 -13.2991 -4.33544 -13.6921 -12.4643 
3.35525 -13.6921 -11.4968 18.7366 -13.6921 -13.4922 26.4273 -13.6921 -16.0867 
34.118 -13.6921 -17.0591 41.8087 -7.53756 -18.9432 41.8087 -13.6921 -17.0023 
49.4994 -13.6921 -14.3363 -42.7889 -6.00141 -13.8942 -35.0982 -6.00141 -14.814 
-27.4075 -6.00141 -14.3014 -19.7168 -6.00141 -13.0704 -12.0261 -6.00141 -12.2137 
-4.33544 -6.00141 -11.8922 3.35525 -6.00141 -13.8052 11.0459 -6.00141 -12.3597 
18.7366 -6.00141 -15.0719 26.4273 -6.00141 -17.4111 35.5177 -6.00141 -18.9432 
34.118 -4.82749 -18.9432 34.118 -6.00141 -18.8427 43.0438 -6.00141 -18.9432 
41.8087 -1.3173 -18.9432 49.4994 -6.00141 -16.4359 -50.4796 1.68928 -14.4483 
-42.7889 1.68928 -17.2976 -35.0982 1.68928 -17.0383 -27.4075 1.68928 -16.03 
-19.7168 1.68928 -13.8715 -12.0261 1.68928 -11.6594 -4.33544 1.68928 -14.442 
3.35525 1.68928 -12.4242 11.0459 1.68928 -13.8998 18.7366 1.68928 -16.0076 
30.9374 1.68928 -18.9432 26.4273 1.68928 -18.1127 39.1788 1.68928 -18.9432 
41.8087 4.77254 -18.9432 41.8087 1.68928 -18.6778 49.4994 1.68928 -16.3841 
-50.4796 9.37997 -15.8354 -42.7889 12.1789 -18.9432 -42.7889 9.37997 -18.7833 
-35.0982 9.37997 -18.5584 -27.4075 9.37997 -17.3708 -19.7168 9.37997 -15.0728 
-12.0261 9.37997 -12.4817 -4.33544 9.37997 -12.7052 3.35525 9.37997 -14.6533 
11.0459 9.37997 -13.7481 18.7366 9.37997 -16.0487 33.5994 9.37997 -18.9432 
26.4273 9.37997 -17.9135 34.118 10.0064 -18.9432 42.7447 9.37997 -18.9432 
41.8087 11.1696 -18.9432 49.4994 9.37997 -15.5434 -44.0897 17.0707 -18.9432 
-50.4796 17.0707 -17.0675 -37.8417 17.0707 -18.9432 -42.7889 18.1735 -18.9432 
-35.0982 17.8831 -18.9432 -35.0982 17.0707 -18.8025 -27.4075 17.0707 -18.231 
-19.7168 17.0707 -16.7733 -12.0261 17.0707 -14.9379 -4.33544 17.0707 -14.9189 
3.35525 17.0707 -15.7238 11.0459 17.0707 -15.7726 18.7366 17.0707 -16.7342 
26.4273 17.0707 -17.7357 34.118 17.0707 -18.0999 41.8087 17.0707 -17.3672 
49.4994 17.0707 -14.3348 -50.4796 24.7614 -14.1253 -38.4828 24.7614 -18.9432 
-42.7889 24.7614 -17.4681 -29.8117 24.7614 -18.9432 -35.0982 27.6972 -18.9432 
-27.4075 24.7614 -18.4007 -19.7168 24.7614 -18.3171 -12.0261 24.7614 -16.7779 
-4.33544 24.7614 -16.8057 3.35525 24.7614 -17.5867 11.0459 24.7614 -17.5315 
18.7366 24.7614 -17.2435 26.4273 24.7614 -17.0892 34.118 24.7614 -17.0796 
41.8087 24.7614 -14.6351 -42.7889 32.4521 -14.6439 -35.0982 32.4521 -16.724 
-27.4075 32.4521 -18.7429 -19.7168 32.4521 -17.2156 -12.0261 32.4521 -17.1522 
-4.33544 32.4521 -17.6621 3.35525 32.4521 -18.3429 11.0459 32.4521 -17.9673 
18.7366 32.4521 -16.8236 26.4273 32.4521 -15.7301 34.118 32.4521 -13.3206 
-35.0982 40.1427 -12.0059 -27.4075 40.1427 -14.5858 -19.7168 40.1427 -15.4929 
-12.0261 40.1427 -15.2541 -4.33544 40.1427 -15.9705 3.35525 40.1427 -16.9202 
11.0459 40.1427 -16.4333 18.7366 40.1427 -15.1157 26.4273 40.1427 -11.2864 
-19.7168 -44.4549 -3.7518 -12.0261 -44.4549 -6.20165 -4.33544 -44.4549 -6.72326 
3.35525 -44.4549 -8.39755 11.0459 -37.5892 -11.2525 11.0459 -44.4549 -8.11548 
18.7366 -44.4549 -7.40367 26.4273 -44.4549 -4.81015 -27.4075 -36.7642 -5.68588 
-19.7168 -36.7642 -7.72774 -12.0261 -29.694 -11.2525 -12.0261 -36.7642 -9.10006 
-4.33544 -31.1933 -11.2525 -4.33544 -36.7642 -10.1282 6.22072 -36.7642 -11.2525 
3.35525 -35.4564 -11.2525 3.35525 -36.7642 -11.075 14.5569 -36.7642 -11.2525 
18.7366 -34.7126 -11.2525 18.7366 -36.7642 -10.8807 26.4273 -33.6237 -11.2525 
26.4273 -36.7642 -9.55438 34.118 -29.8804 -11.2525 34.118 -36.7642 -7.85586 
41.8087 -29.5595 -11.2525 -35.0982 -29.0735 -5.30457 -27.4075 -29.0735 -8.64959 
-13.7555 -29.0735 -11.2525 -19.7168 -26.2401 -11.2525 -19.7168 -29.0735 -10.5962 
42.3634 -29.0735 -11.2525 49.4994 -21.7752 -11.2525 -42.7889 -21.3828 -5.90727 
-35.0982 -16.003 -11.2525 -35.0982 -21.3828 -9.11799 -25.617 -21.3828 -11.2525 
-27.4075 -20.183 -11.2525 -27.4075 -21.3828 -10.9219 11.0459 -14.2503 -11.2525 
49.8163 -21.3828 -11.2525 -50.4796 -13.6921 -4.85636 -38.7355 -13.6921 -11.2525 
-42.7889 -11.547 -11.2525 -42.7889 -13.6921 -10.138 9.78349 -13.6921 -11.2525 
11.1925 -13.6921 -11.2525 11.0459 -13.3303 -11.2525 11.0459 -13.6921 -11.2103 
53.2521 -13.6921 -11.2525 -48.7947 -6.00141 -11.2525 -50.4796 -4.6325 -11.2525 
-50.4796 -6.00141 -10.3157 56.1769 -6.00141 -11.2525 57.1901 -6.00141 -7.94157 
-55.4291 1.68928 -11.2525 -58.1703 1.68928 -4.56506 -4.33544 1.68928 -8.73923 
55.773 1.68928 -11.2525 57.1901 1.68928 -7.05517 -56.4957 9.37997 -11.2525 
54.9946 9.37997 -11.2525 57.1901 9.37997 -5.59788 -55.4957 17.0707 -11.2525 
52.5389 17.0707 -11.2525 49.4994 23.0368 -11.2525 -52.9828 24.7614 -11.2525 
-50.4796 28.1862 -11.2525 48.2056 24.7614 -11.2525 41.8087 30.7855 -11.2525 
49.4994 24.7614 -9.63993 -46.2135 32.4521 -11.2525 -42.7889 35.588 -11.2525 
39.3452 32.4521 -11.2525 34.118 35.168 -11.2525 41.8087 32.4521 -8.66209 
-36.1104 40.1427 -11.2525 -35.0982 40.7154 -11.2525 -27.4075 43.9959 -11.2525 
-19.7168 45.2104 -11.2525 -12.0261 44.9348 -11.2525 -4.33544 45.6952 -11.2525 
3.35525 46.9479 -11.2525 11.0459 46.3067 -11.2525 18.7366 44.8755 -11.2525 
26.4881 40.1427 -11.2525 26.4273 40.1771 -11.2525 -4.33544 47.8334 -4.15503 
3.35525 47.8334 -8.51164 11.0459 47.8334 -6.29856 -19.7168 -44.6786 -3.5618 
-12.0261 -47.4109 -3.5618 -4.33544 -47.9562 -3.5618 -4.33544 -52.1456 3.76551 
3.35525 -49.5798 -3.5618 3.35525 -52.1456 2.25842 11.0459 -49.0327 -3.5618 
18.7366 -47.9401 -3.5618 26.4273 -45.475 -3.5618 -20.1942 -44.4549 -3.5618 
-27.4075 -40.1628 -3.5618 -27.4075 -44.4549 0.590729 28.3014 -44.4549 -3.5618 
34.118 -40.4839 -3.5618 -31.3169 -36.7642 -3.5618 -35.0982 -32.3217 -3.5618 
-35.0982 -36.7642 -0.666933 38.1357 -36.7642 -3.5618 41.8087 -33.5562 -3.5618 
-38.4255 -29.0735 -3.5618 -42.7889 -25.297 -3.5618 -42.7889 -29.0735 -0.29028 
46.6547 -29.0735 -3.5618 49.4994 -25.7095 -3.5618 -46.1011 -21.3828 -3.5618 
-50.4796 -15.5927 -3.5618 -50.4796 -21.3828 4.01399 52.4853 -21.3828 -3.5618 
-51.4987 -13.6921 -3.5618 55.7903 -13.6921 -3.5618 57.1901 -9.21772 -3.5618 
-55.7489 -6.00141 -3.5618 -58.1703 0.891001 -3.5618 -4.33544 -1.58202 -3.5618 
58.0974 -6.00141 -3.5618 57.1901 -6.00141 0.178177 -58.434 1.68928 -3.5618 
-58.1703 6.32063 -3.5618 -58.1703 1.68928 -2.7961 -7.24204 1.68928 -3.5618 
1.12916 1.68928 -3.5618 -4.33544 4.54136 -3.5618 -4.33544 1.68928 -1.05035 
58.0901 1.68928 -3.5618 57.1901 1.68928 0.843274 -57.9961 9.37997 -3.5618 
57.7599 9.37997 -3.5618 57.1901 12.2281 -3.5618 57.1901 9.37997 0.726302 
-56.1912 17.0707 -3.5618 56.1696 17.0707 -3.5618 -52.4075 24.7614 -3.5618 
-50.4796 27.3699 -3.5618 -50.4796 24.7614 -0.807956 52.178 24.7614 -3.5618 
49.4994 27.8958 -3.5618 -46.4616 32.4521 -3.5618 -42.7889 35.9947 -3.5618 
-42.7889 32.4521 1.34723 34.118 38.5453 -3.5618 44.3431 32.4521 -3.5618 
41.8087 34.2638 -3.5618 -37.7009 40.1427 -3.5618 -35.0982 41.892 -3.5618 
-35.0982 40.1427 -0.167062 -27.4075 45.4171 -3.5618 -19.7168 47.2402 -3.5618 
-12.0261 47.5029 -3.5618 18.7366 46.5358 -3.5618 31.2273 40.1427 -3.5618 
26.4273 42.7516 -3.5618 -6.49282 47.8334 -3.5618 -4.33544 47.9613 -3.5618 
-4.33544 47.8334 -3.14023 3.35525 48.931 -3.5618 3.35525 47.8334 -0.117534 
13.5634 47.8334 -3.5618 11.0459 48.4366 -3.5618 11.0459 47.8334 -1.6262 
-4.33544 -52.2873 4.12889 3.35525 -52.7153 4.12889 -27.4075 -46.8785 4.12889 
-19.7168 -50.2831 4.12889 -6.20003 -52.1456 4.12889 -12.0261 -51.6894 4.12889 
-4.33544 -52.1456 4.82439 6.92892 -52.1456 4.12889 3.35525 -52.1456 5.61693 
11.0459 -51.4692 4.12889 18.7366 -49.4876 4.12889 26.4273 -45.8813 4.12889 
-30.9524 -44.4549 4.12889 -35.0982 -41.0719 4.12889 18.7366 -44.4549 9.99516 
28.7383 -44.4549 4.12889 26.4273 -44.4549 6.11777 34.118 -39.793 4.12889 
-39.4912 -36.7642 4.12889 -42.7889 -32.997 4.12889 26.4273 -36.7642 11.1515 
37.0136 -36.7642 4.12889 34.118 -36.7642 6.80809 41.8087 -31.5855 4.12889 
-45.7212 -29.0735 4.12889 -50.4796 -21.455 4.12889 34.118 -29.0735 10.3333 
43.9107 -29.0735 4.12889 41.8087 -29.0735 6.25203 49.4994 -21.6271 4.12889 
-50.5206 -21.3828 4.12889 -50.4796 -21.3828 4.45546 41.8087 -21.3828 10.1426 
49.6656 -21.3828 4.12889 49.4994 -21.3828 4.31856 -53.5014 -13.6921 4.12889 
-50.4796 -13.6921 11.0657 52.9117 -13.6921 4.12889 49.4994 -13.6921 8.15901 
-55.082 -6.00141 4.12889 -50.4796 -6.00141 10.5069 55.8665 -6.00141 4.12889 
49.4994 -6.00141 11.1388 -55.1396 1.68928 4.12889 -50.4796 1.68928 9.42098 
56.4113 1.68928 4.12889 -54.4366 9.37997 4.12889 -50.4796 9.37997 8.77427 
56.683 9.37997 4.12889 -51.7904 17.0707 4.12889 -50.4796 19.3463 4.12889 
-50.4796 17.0707 5.44753 -42.7889 17.0707 10.0016 55.1555 17.0707 4.12889 
-45.7434 24.7614 4.12889 -42.7889 28.8042 4.12889 -42.7889 24.7614 6.33504 
-35.0982 24.7614 10.5906 51.4377 24.7614 4.12889 49.4994 26.996 4.12889 
49.4994 24.7614 7.32921 -39.4236 32.4521 4.12889 -35.0982 36.2207 4.12889 
-35.0982 32.4521 6.66601 -27.4075 32.4521 10.186 34.118 36.9015 4.12889 
34.118 32.4521 9.97061 43.1462 32.4521 4.12889 41.8087 33.3666 4.12889 
41.8087 32.4521 5.89269 -30.4907 40.1427 4.12889 -27.4075 41.7039 4.12889 
-27.4075 40.1427 5.74383 -19.7168 43.3637 4.12889 -19.7168 40.1427 7.2378 
-12.0261 44.2174 4.12889 -12.0261 40.1427 8.25888 -4.33544 45.0378 4.12889 
[...]
POINT_DATA 570
SCALARS ImageScalars float
LOOKUP_TABLE default
0 0 0 0 0 0 0 0 0 
0 0 0 0 0 0 0 0 0 
0 0 0 0 0 0 0 0 0 
0 0 0 0 0 0 0 0 0 
0 0 0 0 0 0 0 0 0 
0 0 0 0 0 0 0 0 0 
0 0 0 0 0 0 0 0 0 
0 0 0 0 0 0 0 0 0 
0 0 0 0 0 0 0 0 0 
0 0 0 0 0 0 0 0 0 
0 0 0 0 0 0 0 0 0 
0 0 0 0 0 0 0 0 0 
0 0 0 0 0 0 0 0 0 
0 0 0 0 0 0 0 0 0 
0 0 0 0 0 0 0 0 0 
0 0 0 0 0 0 0 0 0 
0 0 0 0 0 0 0 0 0 
0 0 0 0 0 0 0 0 0 
0 0 0 0 0 0 0 0 0 
0 0 0 0 0 0 0 0 0 
0 0 0 0 0 0 0 0 0 
0 0 0 0 0 0 0 0 0 
0 0 0 0 0 0 0 0 0 
0 0 0 0 0 0 0 0 0 
0 0 0 0 0 0 0 0 0 
0 0 0 0 0 0 0 0 0 
0 0 0 0 0 0 0 0 0 
0 0 0 0 0 0 0 0 0 
0 0 0 0 0 0 0 0 0 
0 0 0 0 0 0 0 0 0 
0 0 0 0 0 0 0 0 0 
0 0 0 0 0 0 0 0 0 
0 0 0 0 0 0 0 0 0 
0 0 0 0 0 0 0 0 0 
0 0 0 0 0 0 0 0 0 
0 0 0 0 0 0 0 0 0 
0 0 0 0 0 0 0 0 0 
0 0 0 0 0 0 0 0 0 
0 0 0 0 0 0 0 0 0 
0 0 0 0 0 0 0 0 0 
0 0 0 0 0 0 0 0 0 
0 0 0 0 0 0 0 0 0 
0 0 0 0 0 0 0 0 0 
0 0 0 0 0 0 0 0 0 
0 0 0 0 0 0 0 0 0 
0 0 0 0 0 0 0 0 0 
0 0 0 0 0 0 0 0 0 
0 0 0 0 0 0 0 0 0 
0 0 0 0 0 0 0 0 0 
0 0 0 0 0 0 0 0 0 
0 0 0 0 0 0 0 0 0 
0 0 0 0 0 0 0 0 0 
0 0 0 0 0 0 0 0 0 
0 0 0 0 0 0 0 0 0 
0 0 0 0 0 0 0 0 0 
0 0 0 0 0 0 0 0 0 
0 0 0 0 0 0 0 0 0 
0 0 0 0 0 0 0 0 0 
0 0 0 0 0 0 0 0 0 
0 0 0 0 0 0 0 0 0 
0 0 0 0 0 0 0 0 0 
0 0 0 0 0 0 0 0 0 
0 0 0 0 0 0 0 0 0 
0 0 0 
NORMALS Normals float
0.139707 -0.091174 -0.985986 -0.0330088 -0.0111192 -0.999393 -0.0931314 0.0894771 -0.991625 
0.196086 0.0682284 -0.97821 -0.0830698 0.0946887 -0.992035 -0.0531332 0.102331 -0.99333 
0.00793208 -0.224794 -0.974374 -0.0641647 -0.221164 -0.973123 -0.0400808 -0.12796 -0.990969 
-0.0366692 -0.0658002 -0.997159 -0.0065313 -0.0113503 -0.999914 -0.0771121 -0.107151 -0.991248 
0.0314198 -0.256615 -0.966003 0.12552 -0.341623 -0.931418 0.317011 -0.598385 -0.735826 
-0.112305 -0.162328 -0.980325 0.00550497 -0.119573 -0.99281 0.0418569 -0.0518772 -0.997776 
0.0280583 0.0321216 -0.99909 -0.0401898 0.0644826 -0.997109 -0.147055 -0.0847849 -0.985488 
-0.122574 -0.181473 -0.975727 -0.0397487 -0.341825 -0.938923 0.166558 -0.346008 -0.923329 
0.629905 -0.49202 -0.600946 -0.165158 -0.344923 -0.923987 -0.0606768 -0.215044 -0.974718 
-0.0177975 -0.0490733 -0.998637 0.0415467 0.0325014 -0.998608 0.109892 0.0141047 -0.993843 
0.0872234 -0.0711076 -0.993648 -0.298727 -0.14737 -0.942891 -0.229518 -0.214849 -0.949295 
-0.0512819 -0.25879 -0.964571 0.143836 -0.140755 -0.97954 0.162168 -0.313468 -0.935649 
0.509926 -0.29634 -0.807563 -0.228652 -0.407457 -0.884136 -0.0229509 -0.30675 -0.951513 
0.110481 -0.189862 -0.975575 0.13514 -0.0465332 -0.989733 0.0749235 0.100754 -0.992086 
-0.0787334 -0.105 -0.991351 -0.0434598 -0.0813173 -0.99574 -0.1132 -0.194991 -0.974251 
-0.293768 -0.15981 -0.942423 -0.227414 -0.116813 -0.966767 -0.077353 -0.144692 -0.986449 
-0.112776 -0.133921 -0.984554 -0.125888 -0.154588 -0.979926 0.183087 -0.0973194 -0.978268 
0.166173 -0.0358824 -0.985444 0.460559 -0.12048 -0.879414 -0.436482 -0.273695 -0.857073 
-0.173635 -0.303877 -0.936755 0.0783511 -0.230918 -0.969813 0.199577 -0.194521 -0.960381 
0.243225 -0.128384 -0.961436 0.00899007 -0.00975467 -0.999912 -0.0853423 -0.198386 -0.976401 
0.0116011 -0.131079 -0.991304 -0.212911 -0.069027 -0.97463 -0.260536 -0.0590238 -0.963658 
-0.109298 -0.020132 -0.993805 -0.214629 -0.0323301 -0.97616 0.112415 -0.00301148 -0.993657 
0.188361 0.0286896 -0.981681 0.181362 0.00167147 -0.983415 0.468114 0.054734 -0.881972 
-0.500241 -0.152974 -0.852266 -0.126386 -0.0410068 -0.991133 -0.150339 -0.111281 -0.982352 
0.088208 -0.112541 -0.989724 0.21937 -0.138023 -0.96583 0.284447 -0.183494 -0.940968 
0.163511 -0.207704 -0.964429 -0.151626 -0.0607778 -0.986567 -0.0380085 -0.197731 -0.979519 
-0.0953233 -0.124172 -0.987671 -0.266308 -0.0469216 -0.962745 -0.100109 0.0853102 -0.991312 
-0.187657 0.0233512 -0.981957 -0.0851687 0.0914343 -0.992162 0.232325 0.0687177 -0.970208 
0.191627 0.120143 -0.974087 0.528391 0.107944 -0.842111 -0.15172 0.0890139 -0.984407 
-0.52872 0.0668876 -0.846157 0.0147581 -0.0354264 -0.999263 -0.11381 0.112053 -0.987163 
0.0482826 -0.0786104 -0.995736 0.0607092 -0.100561 -0.993077 0.138033 -0.0695677 -0.987981 
0.206646 -0.193389 -0.959113 0.119287 -0.253201 -0.960031 -0.0520617 -0.237175 -0.970071 
-0.0523934 -0.180038 -0.982263 -0.0652691 -0.242098 -0.968054 -0.126201 -0.0765656 -0.989045 
-0.0928486 0.0556678 -0.994123 0.0189731 0.118715 -0.992747 0.192476 0.29149 -0.93701 
0.567052 0.282032 -0.773892 -0.673107 0.447723 -0.588618 -0.160956 0.140961 -0.976843 
-0.327504 0.220588 -0.918739 0.0573187 0.0125392 -0.998277 -0.097671 0.201807 -0.974543 
0.112286 -0.0295292 -0.993237 0.111441 -0.0296986 -0.993327 0.0855068 -0.139212 -0.986564 
-0.0491816 -0.166331 -0.984843 -0.0478416 -0.169258 -0.98441 0.0219654 -0.139155 -0.990027 
0.0286378 -0.00621728 -0.99957 0.0105527 0.118649 -0.99288 0.152016 0.293361 -0.943838 
0.36272 0.395985 -0.843582 -0.474439 0.593238 -0.650366 -0.214137 0.42832 -0.877888 
-0.0182803 0.260358 -0.965339 0.0882847 0.171189 -0.981275 -0.0284523 0.0804778 -0.99635 
-0.077302 0.0377938 -0.996291 -0.0199834 0.0306847 -0.999329 0.0990953 0.0575204 -0.993414 
0.134759 0.127905 -0.982589 0.225069 0.338665 -0.913592 0.314031 0.556504 -0.769213 
-0.436985 0.762673 -0.476837 -0.166528 0.603496 -0.779783 -0.0461722 0.452149 -0.890746 
-0.0281989 0.458938 -0.88802 -0.0977341 0.397096 -0.912559 -0.0260264 0.404559 -0.914142 
0.110961 0.36711 -0.923536 0.29479 0.453553 -0.841064 0.469954 0.675846 -0.567781 
-0.314676 -0.588007 -0.745135 -0.170059 -0.535971 -0.826931 -0.115304 -0.558833 -0.821225 
-0.0727858 -0.532424 -0.843343 0.0144311 -0.259598 -0.965609 0.0483024 -0.594188 -0.802874 
0.175094 -0.646715 -0.742362 0.385654 -0.792359 -0.472692 -0.366692 -0.433573 -0.823135 
-0.205747 -0.39513 -0.895288 -0.0705346 -0.230706 -0.970464 -0.145356 -0.334357 -0.93117 
-0.0626791 -0.164961 -0.984306 -0.121923 -0.274547 -0.953813 -0.0508032 -0.200783 -0.978318 
-0.0771034 -0.166065 -0.983096 -0.0853096 -0.190276 -0.978017 0.0662742 -0.238046 -0.96899 
0.0703385 -0.214008 -0.974296 0.133606 -0.26361 -0.955332 0.081416 -0.371332 -0.924924 
0.14987 -0.48628 -0.860855 0.139856 -0.358832 -0.922865 0.405111 -0.649767 -0.643185 
0.334371 -0.610477 -0.717993 -0.415889 -0.451023 -0.789693 -0.287642 -0.315932 -0.904129 
-0.087941 -0.234157 -0.968213 -0.149542 -0.235551 -0.960288 -0.171449 -0.277807 -0.945214 
0.348823 -0.60862 -0.712674 0.636377 -0.502942 -0.584871 -0.468138 -0.483868 -0.739404 
-0.199671 -0.353415 -0.913909 -0.277583 -0.374823 -0.884565 -0.176055 -0.243029 -0.953908 
-0.176033 -0.258729 -0.949775 -0.195117 -0.265984 -0.944024 -0.120444 -0.0142157 -0.992618 
0.644129 -0.493485 -0.58444 -0.703618 -0.502156 -0.502754 -0.244538 -0.394686 -0.885678 
-0.305717 -0.437428 -0.845691 -0.342639 -0.443735 -0.828069 -0.0943258 -0.0274114 -0.995164 
-0.12975 -0.0226233 -0.991289 -0.127057 -0.0273908 -0.991517 -0.12675 -0.020189 -0.991729 
0.729074 -0.337001 -0.595719 -0.45065 -0.462368 -0.76363 -0.495874 -0.442318 -0.747304 
-0.534777 -0.479728 -0.695611 0.858589 -0.123607 -0.497541 0.959272 -0.132799 -0.249324 
-0.708383 -0.293425 -0.641947 -0.987201 -0.156231 -0.0320316 0.653057 -0.403682 -0.640747 
0.840533 0.0583673 -0.538607 0.971413 0.040714 -0.233877 -0.840671 0.00628952 -0.541509 
0.791893 0.160482 -0.589195 0.973541 0.130779 -0.187389 -0.885503 0.201153 -0.418834 
0.719797 0.330745 -0.610327 0.640318 0.476153 -0.60272 -0.824068 0.463803 -0.325269 
-0.761602 0.563814 -0.319493 0.604141 0.504297 -0.617007 0.477563 0.63568 -0.606502 
0.67777 0.545466 -0.493046 -0.639973 0.690884 -0.336324 -0.571249 0.738153 -0.358894 
0.446907 0.659606 -0.604314 0.398405 0.660677 -0.636223 0.524617 0.748731 -0.40519 
-0.474966 0.778632 -0.410048 -0.451098 0.78932 -0.416515 -0.249132 0.817243 -0.51966 
-0.0577974 0.833493 -0.549499 -0.0247758 0.811622 -0.583657 -0.106216 0.841297 -0.530035 
-0.0321972 0.832637 -0.552882 0.112769 0.859227 -0.499012 0.331415 0.788648 -0.517879 
0.470706 0.677117 -0.56564 0.470596 0.677192 -0.565642 -0.0935341 0.99554 0.0123202 
-0.0327844 0.948616 -0.314728 0.1422 0.983917 -0.108108 -0.315495 -0.595832 -0.738544 
-0.165415 -0.697099 -0.697632 -0.112199 -0.689236 -0.715797 -0.0697801 -0.990812 -0.115854 
-0.0504409 -0.796757 -0.602191 0.0317986 -0.993981 -0.104837 0.0862751 -0.824731 -0.558906 
0.222372 -0.844653 -0.486942 0.391798 -0.82827 -0.400578 -0.320988 -0.593563 -0.738004 
-0.374715 -0.552435 -0.744583 -0.469448 -0.74341 -0.476403 0.440035 -0.810193 -0.387241 
0.582021 -0.758232 -0.293829 -0.422685 -0.453112 -0.784874 -0.446621 -0.448153 -0.774396 
-0.540849 -0.523312 -0.658503 0.631704 -0.747965 -0.203712 0.656689 -0.745646 -0.113012 
-0.45536 -0.46914 -0.756674 -0.497483 -0.483205 -0.720433 -0.621 -0.544387 -0.563916 
0.718961 -0.693219 -0.0504284 0.792293 -0.609913 -0.0166668 -0.609458 -0.472244 -0.636826 
-0.734387 -0.483041 -0.47681 -0.884703 -0.451643 -0.115406 0.860938 -0.508586 0.0112408 
-0.753132 -0.493339 -0.43521 0.944462 -0.327171 0.0308277 0.976364 -0.214484 0.0266261 
-0.886202 -0.409848 -0.216032 -0.986958 -0.159818 0.0193093 0.382957 0.437903 -0.813379 
0.990037 -0.139503 0.0191224 0.962067 -0.163918 0.218077 -0.990121 -0.134368 0.04008 
-0.996656 0.0290549 0.0763683 -0.988698 -0.123894 0.0844239 0.703014 -0.0888379 -0.705605 
-0.678916 -0.269777 -0.682857 0.28124 -0.616522 -0.735394 0.530317 -0.0627114 -0.845477 
0.99949 0.0215616 -0.0235503 0.977672 -0.0104894 0.209873 -0.985537 0.13778 0.0986628 
0.990138 0.120701 -0.071118 0.977816 0.194398 -0.0780036 0.98414 0.102262 0.144952 
-0.929774 0.306077 0.204541 0.940289 0.324558 -0.102557 -0.783847 0.545832 0.296059 
-0.753758 0.586057 0.297299 -0.710652 0.550197 0.438472 0.807799 0.574375 -0.132492 
0.722876 0.679118 -0.127474 -0.715636 0.650721 0.253824 -0.658927 0.713012 0.239644 
-0.611118 0.596501 0.52031 0.490033 0.869863 -0.0566129 0.583843 0.80505 -0.104984 
0.539778 0.836476 -0.0945925 -0.583814 0.790146 0.186627 -0.528081 0.833382 0.163112 
-0.547047 0.75413 0.363357 -0.314745 0.940792 0.125881 -0.137177 0.987007 0.0836645 
-0.0468189 0.997657 0.0498809 0.335568 0.939288 0.07164 0.489731 0.871214 -0.0339049 
0.480067 0.877214 -0.00556873 -0.079169 0.995809 0.0457923 -0.0919178 0.994792 0.0440472 
-0.0927327 0.993443 0.066873 -0.0310463 0.998064 0.0538908 -0.0302078 0.968356 0.24774 
0.20778 0.97656 0.0562035 0.148353 0.987822 0.0468931 0.148826 0.977249 0.151115 
-0.0649169 -0.993816 -0.090083 0.0536871 -0.997843 0.0377832 -0.487803 -0.831991 -0.264269 
-0.292878 -0.93043 -0.220279 -0.077723 -0.99205 -0.098971 -0.12268 -0.985047 -0.12096 
-0.0596484 -0.997298 -0.0428909 0.114822 -0.992176 0.049012 0.0682536 -0.986951 0.145842 
0.188023 -0.979947 0.0659582 0.361683 -0.907251 0.214663 0.4962 -0.820998 0.282397 
-0.545536 -0.791493 -0.275551 -0.596756 -0.733415 -0.325552 0.372175 -0.604703 0.704145 
0.548317 -0.777894 0.306966 0.489218 -0.746633 0.450783 0.658815 -0.6476 0.382853 
-0.702609 -0.630188 -0.33046 -0.752113 -0.597657 -0.277728 0.374029 -0.35498 0.856791 
0.673394 -0.616511 0.407989 0.605887 -0.526768 0.596168 0.662545 -0.592397 0.458367 
-0.800294 -0.549794 -0.239283 -0.885576 -0.451399 -0.109516 0.393696 -0.356444 0.84732 
0.670774 -0.55978 0.486527 0.602334 -0.521092 0.604696 0.722097 -0.460161 0.516553 
-0.885986 -0.450765 -0.108812 -0.891405 -0.443784 -0.0919428 0.45232 -0.38785 0.803106 
0.724718 -0.455637 0.516893 0.718336 -0.455192 0.526111 -0.95876 -0.276691 0.064976 
-0.841391 -0.0315177 0.539507 0.807438 -0.315813 0.498303 0.682475 -0.310568 0.661645 
-0.938392 -0.104575 0.329369 -0.733912 0.0687999 0.675751 0.869346 -0.187493 0.457257 
0.607042 -0.207038 0.767226 -0.834205 0.0300709 0.550634 -0.683046 0.0725102 0.726767 
0.915905 -0.0437349 0.399006 -0.782192 0.189744 0.593442 -0.613582 0.216711 0.759311 
0.940982 0.0808957 0.328648 -0.680517 0.344536 0.646677 -0.644204 0.387223 0.659591 
-0.625938 0.351953 0.695939 -0.419556 0.312019 0.852418 0.902845 0.290439 0.317042 
-0.575172 0.462268 0.674897 -0.554403 0.487626 0.674432 -0.528968 0.420163 0.73733 
-0.331657 0.327527 0.88472 0.766676 0.574057 0.287519 0.699984 0.654774 0.28512 
0.685666 0.568551 0.454547 -0.514047 0.52734 0.676512 -0.484285 0.582401 0.652899 
-0.436339 0.489499 0.754983 -0.301476 0.392268 0.869044 0.401232 0.840333 0.36449 
0.29617 0.713596 0.634873 0.521113 0.804778 0.284207 0.493175 0.820889 0.287957 
0.477787 0.795179 0.373377 -0.376989 0.672666 0.63671 -0.292993 0.715454 0.634256 
-0.279959 0.657103 0.699884 -0.138506 0.764056 0.630107 -0.132527 0.651199 0.747246 
-0.0869053 0.809446 0.580728 -0.100855 0.64466 0.757788 -0.0985284 0.831647 0.546493 
-0.0956844 0.623969 0.775569 -0.0295208 0.845544 0.533089 -0.0353412 0.592478 0.804811 
0.129915 0.843044 0.521918 0.0750192 0.615343 0.784681 0.280297 0.81972 0.499492 
0.218644 0.698345 0.681548 0.377248 0.831137 0.408527 0.371778 0.828165 0.419433 
0.36032 0.820414 0.443949 -0.414966 -0.830015 0.372663 -0.155917 -0.90208 0.40242 
-0.0403182 -0.849907 0.525388 0.0446236 -0.793531 0.606892 0.146019 -0.678653 0.719797 
0.247316 -0.557457 0.792513 -0.501923 -0.81602 0.286679 -0.574106 -0.787602 0.223797 
-0.33924 -0.745336 0.573925 -0.111538 -0.545401 0.830721 0.0539597 -0.474477 0.878612 
0.127404 -0.441297 0.888271 0.167789 -0.451505 0.87635 0.293044 -0.486673 0.822967 
0.232491 -0.455529 0.859326 0.323556 -0.420285 0.847745 -0.753995 -0.62249 0.209756 
-0.78894 -0.564749 0.242139 -0.451726 -0.521126 0.724134 0.0855602 -0.220813 0.971556 
0.0803313 -0.191442 0.978211 0.0991251 -0.191753 0.976425 0.0952454 -0.222867 0.970185 
0.189826 -0.255143 0.948087 0.340226 -0.325823 0.882092 0.288494 -0.283379 0.914586 
0.33356 -0.302518 0.892872 -0.81311 -0.47851 0.331481 -0.714548 -0.378202 0.588544 
0.100582 -0.0235277 0.994651 0.0833577 -0.0266763 0.996163 0.10045 -0.0773448 0.991931 
0.177626 -0.0526121 0.982691 0.247184 -0.119168 0.961613 0.32335 -0.284044 0.902642 
0.279362 -0.227188 0.932922 0.323969 -0.321099 0.88991 -0.907641 -0.216766 0.359445 
-0.460397 -0.120197 0.879538 0.149338 0.0541652 0.987302 0.0474424 0.0473297 0.997752 
0.0683719 0.00082919 0.99766 0.162208 0.0511738 0.985429 0.136641 -0.0518887 0.989261 
0.165646 -0.182784 0.969098 0.353369 -0.338747 0.871998 0.279399 -0.301365 0.911655 
0.409017 -0.326854 0.851981 -0.797327 0.00606718 0.603517 -0.40996 0.112715 0.905112 
0.143948 -0.0322855 0.989058 0.030448 0.00232711 0.999534 0.102133 0.0971081 0.99002 
0.128759 0.106182 0.985975 0.00697516 -0.0195018 0.999785 0.0354688 -0.133966 0.990351 
0.159066 -0.236964 0.958408 0.471972 -0.295032 0.830782 0.375044 -0.277658 0.884448 
-0.64987 0.100945 0.753313 -0.409838 0.16901 0.896364 -0.183228 0.203059 0.96187 
-0.0359933 0.199727 0.97919 -0.0172412 0.168271 0.98559 0.0414934 0.0251524 0.998822 
0.191132 0.13208 0.972637 0.168996 0.0724684 0.982949 0.0378727 0.0629287 0.997299 
-0.0973442 0.0288415 0.994833 -0.0572968 -0.07313 0.995675 0.101125 -0.139456 0.985051 
0.563365 -0.203177 0.800836 0.322313 -0.180601 0.929246 0.600945 -0.156863 0.783746 
-0.56284 0.118162 0.818076 -0.378869 0.204792 0.902507 -0.183746 0.217689 0.958566 
-0.0518907 0.199036 0.978617 -0.0271489 0.199448 0.979532 0.101453 0.286468 0.952703 
0.0893607 0.284655 0.954456 0.0108916 0.100815 0.994846 0.0760938 0.0847324 0.993494 
-0.135698 0.012862 0.990667 -0.125219 -0.0277669 0.991741 0.0538311 -0.0613768 0.996662 
0.296432 -0.0909222 0.950716 0.627712 -0.100335 0.771953 0.598719 -0.101291 0.794529 
-0.383573 0.27646 0.881159 -0.34866 0.290765 0.891006 -0.327368 0.282987 0.901526 
-0.224006 0.226174 0.94798 -0.0622796 0.188668 0.980064 0.0655345 0.159771 0.984976 
0.129259 0.207861 0.96958 -0.00460817 0.0433138 0.999051 -0.0282386 0.118779 0.992519 
-0.0471796 -0.0260183 0.998547 -0.195474 -0.0572522 0.979036 -0.129124 -0.0386198 0.990876 
0.0345614 0.022732 0.999144 0.270146 0.0241212 0.962517 0.648228 0.0196876 0.761192 
0.584857 0.00561833 0.811117 -0.326705 0.281079 0.902363 -0.294018 0.291494 0.910266 
-0.265592 0.263899 0.927264 -0.125523 0.215487 0.968405 -0.00465043 0.128439 0.991706 
0.0293795 0.0308236 0.999093 -0.0162467 -0.0451031 0.99885 -0.054961 -0.000184037 0.998488 
-0.103241 -0.0735326 0.991935 -0.162369 -0.00732432 0.986703 -0.0541231 0.0928606 0.994207 
0.115345 0.134668 0.984154 0.272656 0.168358 0.947267 0.653974 0.230542 0.720534 
0.638665 0.266387 0.721903 0.63216 0.22822 0.740465 -0.252921 0.286528 0.924085 
-0.236645 0.305472 0.922326 -0.200346 0.258457 0.945019 -0.116256 0.162413 0.97985 
-0.0476283 0.110639 0.992719 -0.0391278 0.0691845 0.996836 -0.0552531 0.051057 0.997166 
-0.0472588 0.0779154 0.995839 -0.0358391 0.173832 0.984123 0.0203461 0.292635 0.956008 
0.256072 0.609193 0.75054 0.130544 0.371338 0.919275 0.484403 0.489211 0.725277 
0.406686 0.557247 0.723935 0.391622 0.459679 0.797074 -0.191577 0.369637 0.909212 
-0.147528 0.399822 0.904643 -0.146109 0.359035 0.921817 -0.0719618 0.410377 0.909072 
-0.0636225 0.350762 0.934301 -0.0951272 0.426406 0.899516 -0.08377 0.300526 0.950088 
-0.0389045 0.467178 0.883307 -0.0436658 0.287018 0.95693 0.0564217 0.480567 0.875141 
0.0293703 0.315139 0.948591 0.117935 0.512639 0.850466 0.0680898 0.40056 0.913737 
0.225277 0.612984 0.757299 0.198248 0.594618 0.779183 0.1643 0.536709 0.827616 
-0.0917341 -0.348585 0.932777 -0.139212 -0.339778 0.930146 -0.310787 -0.268501 0.911767 
-0.00232194 -0.267736 0.96349 -0.0778119 -0.305965 0.948858 0.0902433 -0.163488 0.982409 
-0.370688 -0.18504 0.910138 -0.257082 -0.153055 0.954192 0.0267743 -0.0648873 0.997533 
0.098391 -0.0413793 0.994287 0.0917336 -0.107446 0.98997 -0.250129 0.004286 0.968203 
-0.170738 0.0464233 0.984222 -0.0200877 0.00588813 0.999781 0.143224 0.0356881 0.989047 
0.126214 2.54553e-05 0.992003 -0.223308 0.115062 0.967933 -0.186325 0.140722 0.972358 
-0.191095 0.116862 0.97459 -0.0305507 0.178274 0.983506 -0.0119496 0.107387 0.994145 
0.147853 0.0509807 0.987695 0.0518726 0.142696 0.988406 0.144515 0.103397 0.984086 

