# vtk DataFile Version 4.2
vtk output
ASCII
DATASET POLYDATA
POINTS 548 float
-19.7315 -41.8199 -12.8022 -11.8377 -41.8199 -14.2139 -3.94392 -41.8199 -14.1802 
3.94987 -41.8199 -13.4185 11.8437 -41.8199 -12.7476 19.7375 -41.8199 -11.7971 
-35.5191 -33.9261 -11.4802 -27.6253 -33.9261 -14.7301 -19.7315 -33.9261 -16.339 
-11.8377 -33.9261 -16.1925 -3.94392 -33.9261 -16.0772 3.94987 -33.9261 -15.4091 
11.8437 -33.9261 -15.3221 19.7375 -33.9261 -15.6182 27.6312 -33.9261 -14.6036 
35.525 -33.9261 -13.9037 -43.4129 -26.0323 -12.8465 -35.5191 -26.0323 -15.1522 
-27.6253 -26.0323 -16.4547 -19.7315 -26.0323 -16.6144 -11.8377 -26.0323 -16.3721 
-3.94392 -26.0323 -16.4197 3.94987 -26.0323 -15.8627 11.8437 -26.0323 -16.1724 
19.7375 -26.0323 -16.0949 27.6312 -26.0323 -16.4735 35.525 -26.0323 -15.2729 
43.4188 -26.0323 -14.4087 -51.3067 -18.1385 -12.7894 -43.4129 -18.1385 -16.1921 
-35.5191 -18.1385 -17.2435 -27.6253 -18.1385 -17.6003 -19.7315 -18.1385 -16.6313 
-11.8377 -18.1385 -15.3554 -3.94392 -18.1385 -15.3534 3.94987 -18.1385 -15.3494 
11.8437 -18.1385 -15.0985 19.7375 -18.1385 -15.6912 27.6312 -18.1385 -16.35 
35.525 -18.1385 -16.6552 43.4188 -18.1385 -15.1231 51.3126 -18.1385 -13.4732 
-59.2004 -10.2447 -11.9629 -51.3067 -10.2447 -16.3666 -43.4129 -10.2447 -17.6351 
-35.5191 -10.2447 -17.8378 -27.6253 -10.2447 -17.3982 -19.7315 -10.2447 -16.3207 
-11.8377 -10.2447 -14.942 -3.94392 -10.2447 -15.644 3.94987 -10.2447 -16.5855 
11.8437 -10.2447 -14.5698 19.7375 -10.2447 -14.7849 27.6312 -10.2447 -15.9177 
35.525 -10.2447 -16.4282 43.4188 -10.2447 -16.0494 51.3126 -10.2447 -16.5035 
59.2064 -10.2447 -13.6524 -59.2004 -2.3509 -13.6881 -51.3067 -2.3509 -16.1326 
-43.4129 -2.3509 -17.9895 -35.5191 -2.3509 -17.5511 -27.6253 -2.3509 -16.5918 
-19.7315 -2.3509 -15.0326 -11.8377 -2.3509 -16.8309 -3.94392 -2.3509 -16.1289 
3.94987 -2.3509 -13.2578 11.8437 -2.3509 -13.7931 19.7375 -2.3509 -13.2325 
27.6312 -2.3509 -14.9411 35.525 -2.3509 -16.0199 43.4188 -2.3509 -16.4163 
51.3126 -2.3509 -17.9993 59.2064 -2.3509 -13.5366 -59.2004 5.54289 -13.4293 
-51.3067 5.54289 -17.1233 -43.4129 5.54289 -17.1809 -35.5191 5.54289 -16.9016 
-27.6253 5.54289 -15.813 -19.7315 5.54289 -14.2619 -11.8377 5.54289 -13.4166 
-3.94392 5.54289 -16.0172 3.94987 5.54289 -15.9238 19.7375 5.54289 -11.8346 
27.6312 5.54289 -14.0981 35.525 5.54289 -15.7042 43.4188 5.54289 -16.1151 
51.3126 5.54289 -17.5125 59.2064 5.54289 -13.7255 67.1002 5.54289 -11.5851 
-59.2004 13.4367 -11.6461 -51.3067 13.4367 -14.7466 -43.4129 13.4367 -15.8906 
-35.5191 13.4367 -16.3681 -27.6253 13.4367 -16.2099 -19.7315 13.4367 -14.9747 
-11.8377 13.4367 -13.7174 -3.94392 13.4367 -12.1698 3.94987 13.4367 -12.8311 
19.7375 13.4367 -11.37 27.6312 13.4367 -13.0028 35.525 13.4367 -14.3816 
43.4188 13.4367 -14.8782 51.3126 13.4367 -15.4765 59.2064 13.4367 -12.0787 
-51.3067 21.3305 -11.6968 -43.4129 21.3305 -14.6484 -35.5191 21.3305 -15.1987 
-27.6253 21.3305 -15.6395 -19.7315 21.3305 -15.3366 -11.8377 21.3305 -14.3414 
-3.94392 21.3305 -13.4059 3.94987 21.3305 -11.9868 27.6312 21.3305 -11.7101 
35.525 21.3305 -12.966 43.4188 21.3305 -13.3881 51.3126 21.3305 -11.466 
-35.5191 29.2243 -12.0211 -27.6253 29.2243 -13.5553 -19.7315 29.2243 -13.9557 
-11.8377 29.2243 -13.7617 -3.94392 29.2243 -13.0821 3.94987 29.2243 -11.7085 
-11.8377 37.118 -11.2604 -19.7315 -44.1592 -11.2164 -11.8377 -46.3637 -11.2164 
-3.94392 -46.1678 -11.2164 -3.94392 -49.7136 -3.46241 3.94987 -45.0829 -11.2164 
11.8437 -44.009 -11.2164 19.7375 -42.4272 -11.2164 -35.5191 -34.2936 -11.2164 
-24.093 -41.8199 -11.2164 -27.6253 -39.862 -11.2164 -27.6253 -41.8199 -8.97903 
22.3878 -41.8199 -11.2164 27.6312 -40.1895 -11.2164 27.6312 -41.8199 -9.26521 
35.525 -37.8263 -11.2164 -35.9937 -33.9261 -11.2164 -43.4129 -28.3224 -11.2164 
42.4572 -33.9261 -11.2164 43.4188 -33.1433 -11.2164 43.4188 -33.9261 -9.22554 
-45.8917 -26.0323 -11.2164 -51.3067 -20.5928 -11.2164 50.3443 -26.0323 -11.2164 
51.3126 -24.7898 -11.2164 51.3126 -26.0323 -9.65489 -53.4092 -18.1385 -11.2164 
-59.2004 -11.6618 -11.2164 56.0395 -18.1385 -11.2164 59.2064 -15.6775 -11.2164 
59.2064 -18.1385 -7.52149 -60.0608 -10.2447 -11.2164 62.7341 -10.2447 -11.2164 
-62.2225 -2.3509 -11.2164 11.8437 1.79054 -11.2164 64.5963 -2.3509 -11.2164 
67.1002 4.22682 -11.2164 67.1002 -2.3509 -9.44658 -62.0914 5.54289 -11.2164 
-67.0942 5.54289 -3.50116 9.22735 5.54289 -11.2164 17.4194 5.54289 -11.2164 
11.8437 5.54289 -9.75469 67.3204 5.54289 -11.2164 67.1002 6.37276 -11.2164 
-59.7755 13.4367 -11.2164 -59.2004 14.3317 -11.2164 7.97111 13.4367 -11.2164 
18.7422 13.4367 -11.2164 11.8437 13.4367 -10.1632 19.7375 15.7485 -11.2164 
61.7766 13.4367 -11.2164 59.2064 18.2704 -11.2164 67.1002 13.4367 -8.86074 
-52.2405 21.3305 -11.2164 -59.2004 21.3305 -6.30161 -51.3067 22.1023 -11.2164 
-43.4129 27.3443 -11.2164 8.25438 21.3305 -11.2164 11.8437 21.3305 -10.5811 
23.15 21.3305 -11.2164 19.7375 21.3305 -10.8455 27.6312 22.8806 -11.2164 
35.525 25.3601 -11.2164 43.4188 26.8753 -11.2164 53.7783 21.3305 -11.2164 
51.3126 22.2702 -11.2164 59.2064 21.3305 -10.593 67.1002 21.3305 -4.06541 
-51.3067 29.2243 -4.83424 -38.8378 29.2243 -11.2164 -43.4129 29.2243 -9.86408 
-35.5191 30.3652 -11.2164 -27.6253 32.9126 -11.2164 -19.7315 34.7788 -11.2164 
-3.94392 35.8445 -11.2164 6.01331 29.2243 -11.2164 3.94987 30.6431 -11.2164 
11.8437 29.2243 -9.87749 19.7375 29.2243 -9.14341 27.6312 29.2243 -9.27954 
35.525 29.2243 -9.16002 43.4188 29.2243 -9.87998 51.3126 29.2243 -8.49159 
-27.6253 37.118 -7.08777 -12.1334 37.118 -11.2164 -19.7315 37.118 -9.66404 
-11.0104 37.118 -11.2164 -11.8377 37.1795 -11.2164 -3.94392 37.118 -10.763 
3.94987 37.118 -8.59859 11.8437 37.118 -6.35019 19.7375 37.118 -5.08296 
27.6312 37.118 -4.37323 -3.94392 -49.7563 -3.32259 -27.6253 -45.1921 -3.32259 
-19.7315 -48.5293 -3.32259 -8.07316 -49.7136 -3.32259 -11.8377 -49.6744 -3.32259 
-3.36738 -49.7136 -3.32259 -3.94392 -49.7136 -3.13572 3.94987 -49.1644 -3.32259 
11.8437 -48.3081 -3.32259 19.7375 -46.8608 -3.32259 27.6312 -44.393 -3.32259 
-32.9089 -41.8199 -3.32259 -35.5191 -39.9255 -3.32259 33.1437 -41.8199 -3.32259 
27.6312 -41.8199 2.20835 35.525 -40.5771 -3.32259 43.4188 -34.9618 -3.32259 
-42.4998 -33.9261 -3.32259 -43.4129 -33.1209 -3.32259 44.6759 -33.9261 -3.32259 
43.4188 -33.9261 -1.7451 51.3126 -27.9867 -3.32259 -51.071 -26.0323 -3.32259 
-51.3067 -25.8155 -3.32259 53.2587 -26.0323 -3.32259 51.3126 -26.0323 -0.405737 
59.2064 -20.092 -3.32259 -58.5801 -18.1385 -3.32259 -59.2004 -17.3497 -3.32259 
60.942 -18.1385 -3.32259 59.2064 -18.1385 -0.0646044 -64.0014 -10.2447 -3.32259 
66.517 -10.2447 -3.32259 67.1002 -9.22127 -3.32259 -66.8995 -2.3509 -3.32259 
-67.0942 2.85133 -3.32259 70.484 -2.3509 -3.32259 67.1002 -2.3509 4.14224 
-67.1903 5.54289 -3.32259 -67.0942 7.09734 -3.32259 -67.0942 5.54289 -1.3605 
72.2482 5.54289 -3.32259 -66.598 13.4367 -3.32259 71.1037 13.4367 -3.32259 
-61.3752 21.3305 -3.32259 -59.2004 23.8157 -3.32259 59.2064 29.1555 -3.32259 
67.6488 21.3305 -3.32259 67.1002 21.9666 -3.32259 67.1002 21.3305 -0.858417 
-52.7423 29.2243 -3.32259 -51.3067 30.4048 -3.32259 -43.4129 34.1759 -3.32259 
-35.5191 37.0739 -3.32259 35.525 36.5944 -3.32259 43.4188 35.2288 -3.32259 
59.0816 29.2243 -3.32259 51.3126 32.6081 -3.32259 -35.3982 37.118 -3.32259 
-35.5191 37.118 -3.15016 -27.6253 39.824 -3.32259 -19.7315 41.8839 -3.32259 
-11.8377 43.4645 -3.32259 -3.94392 43.7068 -3.32259 3.94987 42.4258 -3.32259 
11.8437 40.3085 -3.32259 19.7375 38.7807 -3.32259 33.0723 37.118 -3.32259 
27.6312 37.9518 -3.32259 35.525 37.118 -1.6896 -3.94392 45.0118 3.26269 
-27.6253 -43.2399 4.5712 -19.7315 -45.6506 4.5712 -11.8377 -47.0942 4.5712 
-3.94392 -47.4414 4.5712 3.94987 -46.9925 4.5712 11.8437 -45.5054 4.5712 
19.7375 -42.9034 4.5712 -29.9219 -41.8199 4.5712 -35.5191 -36.8538 4.5712 
-27.6253 -41.8199 6.30118 -19.7315 -41.8199 8.10978 -11.8377 -41.8199 9.37527 
-3.94392 -41.8199 9.94063 3.94987 -41.8199 9.67371 11.8437 -41.8199 8.03703 
23.1458 -41.8199 4.5712 19.7375 -41.8199 5.81966 27.6312 -39.4871 4.5712 
35.525 -35.5529 4.5712 -39.0276 -33.9261 4.5712 -43.4129 -30.0202 4.5712 
-35.5191 -33.9261 7.08666 -27.6253 -33.9261 11.3351 11.8437 -33.9261 11.9973 
19.7375 -33.9261 9.84248 27.6312 -33.9261 7.85917 37.7233 -33.9261 4.5712 
35.525 -33.9261 5.81637 43.4188 -29.2439 4.5712 -47.5741 -26.0323 4.5712 
-51.3067 -22.4412 4.5712 -43.4129 -26.0323 8.25643 -35.5191 -26.0323 12.2836 
19.7375 -26.0323 11.7553 27.6312 -26.0323 10.0781 35.525 -26.0323 8.11507 
47.2152 -26.0323 4.5712 43.4188 -26.0323 6.6887 51.3126 -22.0919 4.5712 
-55.4569 -18.1385 4.5712 -59.2004 -13.5933 4.5712 -51.3067 -18.1385 8.99051 
19.7375 -18.1385 12.2845 27.6312 -18.1385 11.4897 35.525 -18.1385 10.5928 
43.4188 -18.1385 9.81831 55.6135 -18.1385 4.5712 51.3126 -18.1385 6.92195 
59.2064 -14.1951 4.5712 -61.484 -10.2447 4.5712 -59.2004 -10.2447 7.64497 
35.525 -10.2447 12.1254 43.4188 -10.2447 11.1901 51.3126 -10.2447 10.0997 
61.9178 -10.2447 4.5712 59.2064 -10.2447 6.65159 -65.0973 -2.3509 4.5712 
51.3126 -2.3509 11.4059 66.6717 -2.3509 4.5712 59.2064 -2.3509 8.95846 
67.1002 -1.67269 4.5712 -66.7268 5.54289 4.5712 -59.2004 5.54289 12.0992 
59.2064 5.54289 11.0251 69.2943 5.54289 4.5712 67.1002 5.54289 7.00391 
-65.8753 13.4367 4.5712 51.3126 13.4367 12.3989 59.2064 13.4367 10.8227 
68.7376 13.4367 4.5712 67.1002 18.0938 4.5712 67.1002 13.4367 6.0803 
-61.831 21.3305 4.5712 -59.2004 24.6253 4.5712 -59.2004 21.3305 9.09895 
51.3126 21.3305 11.0449 65.5814 21.3305 4.5712 59.2064 28.3584 4.5712 
59.2064 21.3305 9.33815 -54.4281 29.2243 4.5712 -51.3067 31.8226 4.5712 
-51.3067 29.2243 10.007 -43.4129 35.8259 4.5712 43.4188 36.4747 4.5712 
43.4188 29.2243 10.2043 58.16 29.2243 4.5712 51.3126 33.0273 4.5712 
51.3126 29.2243 9.07168 -40.1894 37.118 4.5712 -35.5191 38.8909 4.5712 
-35.5191 37.118 12.1654 -27.6253 41.8199 4.5712 -19.7315 43.6096 4.5712 
-11.8377 44.8387 4.5712 3.94987 44.9576 4.5712 11.8437 43.7235 4.5712 
[...]
POINT_DATA 548
SCALARS ImageScalars float
LOOKUP_TABLE default
0 0 0 0 0 0 0 0 0 
0 0 0 0 0 0 0 0 0 
0 0 0 0 0 0 0 0 0 
0 0 0 0 0 0 0 0 0 
0 0 0 0 0 0 0 0 0 
0 0 0 0 0 0 0 0 0 
0 0 0 0 0 0 0 0 0 
0 0 0 0 0 0 0 0 0 
0 0 0 0 0 0 0 0 0 
0 0 0 0 0 0 0 0 0 
0 0 0 0 0 0 0 0 0 
0 0 0 0 0 0 0 0 0 
0 0 0 0 0 0 0 0 0 
0 0 0 0 0 0 0 0 0 
0 0 0 0 0 0 0 0 0 
0 0 0 0 0 0 0 0 0 
0 0 0 0 0 0 0 0 0 
0 0 0 0 0 0 0 0 0 
0 0 0 0 0 0 0 0 0 
0 0 0 0 0 0 0 0 0 
0 0 0 0 0 0 0 0 0 
0 0 0 0 0 0 0 0 0 
0 0 0 0 0 0 0 0 0 
0 0 0 0 0 0 0 0 0 
0 0 0 0 0 0 0 0 0 
0 0 0 0 0 0 0 0 0 
0 0 0 0 0 0 0 0 0 
0 0 0 0 0 0 0 0 0 
0 0 0 0 0 0 0 0 0 
0 0 0 0 0 0 0 0 0 
0 0 0 0 0 0 0 0 0 
0 0 0 0 0 0 0 0 0 
0 0 0 0 0 0 0 0 0 
0 0 0 0 0 0 0 0 0 
0 0 0 0 0 0 0 0 0 
0 0 0 0 0 0 0 0 0 
0 0 0 0 0 0 0 0 0 
0 0 0 0 0 0 0 0 0 
0 0 0 0 0 0 0 0 0 
0 0 0 0 0 0 0 0 0 
0 0 0 0 0 0 0 0 0 
0 0 0 0 0 0 0 0 0 
0 0 0 0 0 0 0 0 0 
0 0 0 0 0 0 0 0 0 
0 0 0 0 0 0 0 0 0 
0 0 0 0 0 0 0 0 0 
0 0 0 0 0 0 0 0 0 
0 0 0 0 0 0 0 0 0 
0 0 0 0 0 0 0 0 0 
0 0 0 0 0 0 0 0 0 
0 0 0 0 0 0 0 0 0 
0 0 0 0 0 0 0 0 0 
0 0 0 0 0 0 0 0 0 
0 0 0 0 0 0 0 0 0 
0 0 0 0 0 0 0 0 0 
0 0 0 0 0 0 0 0 0 
0 0 0 0 0 0 0 0 0 
0 0 0 0 0 0 0 0 0 
0 0 0 0 0 0 0 0 0 
0 0 0 0 0 0 0 0 0 
0 0 0 0 0 0 0 0 
NORMALS Normals float
0.241813 0.514151 0.822906 0.0851729 0.429659 0.898965 -0.0514476 0.429723 0.901494 
-0.0931225 0.445151 0.8906 -0.0868785 0.511868 0.85466 -0.155101 0.636616 0.755423 
0.45554 0.520346 0.722305 0.236611 0.345802 0.907985 0.0952944 0.224519 0.969799 
-0.0155187 0.133956 0.990866 -0.0489715 0.139891 0.988955 -0.0471033 0.150359 0.987509 
0.0111094 0.204053 0.978897 -0.0415755 0.215097 0.975707 -0.0975629 0.366001 0.925486 
-0.25644 0.420263 0.870412 0.408788 0.523179 0.747781 0.201095 0.315549 0.927356 
0.0825839 0.176088 0.980904 -0.00478425 0.016842 0.999847 -0.012149 -0.0529392 0.998524 
-0.032216 -0.0420784 0.998595 -0.0158526 -0.00422192 0.999865 0.015083 -0.00563736 0.99987 
0.0222609 0.00158066 0.999751 -0.0440687 0.0958144 0.994423 -0.142309 0.164953 0.975981 
-0.300535 0.279807 0.911804 0.526509 0.441978 0.726253 0.23187 0.242136 0.942129 
0.0865626 0.153201 0.984397 -0.0385306 0.0650155 0.99714 -0.137891 -0.0183719 0.990277 
-0.0820084 -0.0918816 0.992387 -0.000389817 -0.0540584 0.998538 -0.0150779 0.03495 0.999275 
0.0223445 -0.102192 0.994514 0.0760765 -0.0817796 0.993743 0.0602708 -0.0360384 0.997531 
-0.0767219 0.0676038 0.994758 -0.18784 0.0972524 0.977373 -0.365335 0.350995 0.862168 
0.603558 0.344958 0.718833 0.347247 0.156057 0.924698 0.0804127 0.119783 0.989538 
-0.0156642 0.0213326 0.99965 -0.0954425 -0.0627226 0.993457 -0.15325 -0.0989686 0.983219 
-0.0530737 0.0530954 0.997178 0.105562 0.0400303 0.993607 -0.0788823 -0.0767119 0.993928 
-0.100977 -0.0648186 0.992775 0.0859494 -0.1534 0.984419 0.103897 -0.0891795 0.990582 
0.00858526 -0.0393323 0.999189 -0.00130482 0.0809182 0.99672 -0.204114 0.283316 0.937054 
-0.440839 0.233618 0.866651 0.517294 0.0880204 0.851269 0.259132 0.0387178 0.965066 
0.105845 -0.0296816 0.99394 -0.0864455 -0.0588871 0.994515 -0.156653 -0.0986382 0.982716 
-0.0261252 -0.129642 0.991217 0.111831 -0.0414101 0.992864 -0.278636 0.036306 0.95971 
-0.17134 -0.142057 0.974917 -0.0127719 -0.244022 0.969686 0.0887484 -0.192379 0.977299 
0.172049 -0.115196 0.97833 0.0926049 -0.0440581 0.994728 0.111601 0.00407776 0.993745 
-0.137766 0.0440387 0.989485 -0.38877 0.00221993 0.921332 0.525139 -0.114923 0.843221 
0.250367 -0.0551943 0.966576 -0.0149502 -0.130163 0.99138 -0.084896 -0.0744229 0.993607 
-0.156571 -0.0238502 0.987379 -0.141029 -0.00352395 0.989999 0.0810249 -0.147505 0.985737 
0.155243 -0.321007 0.934267 -0.280857 -0.0206882 0.959527 0.247205 -0.114163 0.962214 
0.230217 -0.118877 0.965851 0.129939 -0.105222 0.985923 0.103249 -0.0966332 0.98995 
-0.112724 -0.134938 0.984421 -0.286188 -0.0836537 0.954515 -0.683224 -0.0480205 0.728628 
0.495552 -0.330912 0.803072 0.258609 -0.302788 0.917301 0.0926168 -0.147748 0.984679 
0.018802 -0.102312 0.994575 -0.0876968 -0.014089 0.996048 -0.155064 0.0623567 0.985934 
-0.168367 0.0521646 0.984343 -0.0718171 -0.0942456 0.992955 -0.113042 -0.211506 0.970818 
0.173249 -0.0613165 0.982967 0.185595 -0.146338 0.971669 0.116783 -0.168428 0.978772 
0.0628659 -0.156914 0.985609 -0.159881 -0.351715 0.922353 -0.321825 -0.158883 0.933373 
0.366034 -0.41796 0.831462 0.193611 -0.318953 0.927784 0.0599445 -0.238584 0.96927 
0.00729544 -0.160255 0.987049 -0.0840795 -0.0569682 0.994829 -0.120774 0.00302626 0.992675 
-0.147341 0.0525033 0.987691 -0.176401 -0.0527468 0.982904 0.130779 -0.225989 0.965311 
0.0998692 -0.290754 0.951571 -0.0840988 -0.237937 0.967633 -0.145894 -0.340189 0.928971 
0.205743 -0.501743 0.840192 0.100194 -0.421012 0.901504 0.0129171 -0.286763 0.957914 
-0.0523984 -0.181343 0.982023 -0.124517 -0.152588 0.980415 -0.201088 -0.181709 0.962572 
0.0457236 -0.509146 0.859465 0.272102 0.62062 0.735386 0.0867845 0.709487 0.699355 
-0.0575985 0.700232 0.711588 -0.0323245 0.998365 0.0471383 -0.0998709 0.644567 0.757997 
-0.118237 0.633593 0.764578 -0.16791 0.667549 0.725385 0.463893 0.532745 0.707804 
0.322029 0.604095 0.728949 0.341887 0.600333 0.72299 0.414515 0.738848 0.531302 
-0.171924 0.672815 0.719557 -0.173338 0.667406 0.72424 -0.255903 0.818241 0.514778 
-0.338842 0.660576 0.669944 0.466236 0.533634 0.705591 0.463773 0.592534 0.658648 
-0.506669 0.601118 0.618016 -0.515722 0.590408 0.620845 -0.592245 0.699003 0.4008 
0.479319 0.578127 0.66032 0.558469 0.496844 0.664272 -0.56538 0.487897 0.665058 
-0.560585 0.480844 0.674191 -0.647433 0.576172 0.498856 0.586018 0.462198 0.66555 
0.626813 0.382956 0.678565 -0.500507 0.47099 0.726403 -0.552616 0.450596 0.701126 
-0.695155 0.63142 0.343609 0.635036 0.358853 0.684071 -0.660317 0.329033 0.67507 
0.666756 0.113373 0.736602 -0.0846096 -0.306717 0.948033 -0.627501 0.16228 0.761516 
-0.709478 0.00288092 0.704722 -0.802152 0.301424 0.515457 0.65099 -0.108328 0.751317 
0.96529 -0.0144739 0.26078 -0.314195 -0.189144 0.930326 0.166455 -0.144347 0.975426 
-0.12357 -0.226162 0.96622 -0.707876 -0.0452496 0.704886 -0.686785 -0.0886407 0.721436 
0.516223 -0.334708 0.788343 0.504352 -0.358898 0.78538 -0.10938 -0.0496375 0.99276 
0.150618 -0.0482014 0.987416 -0.0713626 0.063878 0.995403 0.145771 -0.0817365 0.985936 
-0.38688 -0.235188 0.891634 -0.348219 -0.334049 0.875874 -0.665823 -0.417293 0.618503 
0.389581 -0.432813 0.812957 0.671889 -0.582914 0.45692 0.374716 -0.447955 0.811741 
0.267553 -0.550358 0.7909 -0.120852 -0.0273394 0.992294 -0.0729146 -0.017709 0.997181 
0.0975653 -0.174087 0.979885 0.0719454 -0.13415 0.988346 0.108642 -0.249717 0.962205 
0.0822717 -0.406771 0.909818 -0.0310956 -0.548673 0.835459 -0.20452 -0.370107 0.906197 
-0.166666 -0.341194 0.925099 -0.368688 -0.469195 0.80245 -0.768749 -0.584094 0.2605 
0.511568 -0.749853 0.419544 0.243188 -0.553053 0.796864 0.297336 -0.645314 0.703677 
0.222719 -0.545407 0.808039 0.145341 -0.571661 0.807515 0.131063 -0.536341 0.833763 
-0.140125 -0.413782 0.899528 -0.187591 -0.191558 0.963387 -0.208187 -0.236458 0.949076 
-0.152776 -0.225122 0.962278 -0.0391751 -0.316954 0.947631 0.00176153 -0.392787 0.919628 
0.0212721 -0.552968 0.832931 -0.0187314 -0.708675 0.705287 -0.317372 -0.575048 0.754052 
0.232806 -0.777413 0.58432 0.0511859 -0.514154 0.856169 0.190383 -0.67076 0.716823 
0.0263913 -0.505597 0.862366 0.0466003 -0.512196 0.857603 -0.139887 -0.479893 0.866103 
-0.232844 -0.539925 0.808866 -0.186895 -0.596068 0.78088 -0.109969 -0.670104 0.734076 
-0.112241 -0.804299 0.583528 -0.0318109 0.998759 0.0383256 0.470189 0.876831 0.100445 
0.266534 0.962873 0.0428442 0.0227314 0.999439 0.0245818 0.0730356 0.997256 0.012107 
-0.0360864 0.998561 0.0396696 -0.0314357 0.999128 0.027482 -0.0924752 0.993814 0.0614986 
-0.148256 0.987428 0.0548233 -0.243804 0.969816 0.00410827 -0.369685 0.928395 -0.0376107 
0.567513 0.818813 0.0864546 0.608467 0.790963 0.0643883 -0.470148 0.872939 -0.13015 
-0.392895 0.774441 -0.495858 -0.509504 0.84543 -0.160169 -0.615684 0.773121 -0.152373 
0.658045 0.751208 0.0516064 0.661942 0.748052 0.0474449 -0.625051 0.760089 -0.177692 
-0.625573 0.725244 -0.28754 -0.691879 0.709685 -0.132854 0.671344 0.740159 0.0382232 
0.673247 0.738415 0.0384986 -0.70176 0.70251 -0.118377 -0.662956 0.675008 -0.32381 
-0.743015 0.666648 -0.0592424 0.790216 0.609142 0.0671193 0.80023 0.596118 0.065383 
-0.767885 0.639081 -0.0439085 -0.711105 0.634476 -0.302936 0.889014 0.448296 0.0931909 
-0.844678 0.534419 -0.0302459 -0.861222 0.507883 -0.0187282 0.966194 0.19538 0.168212 
0.972566 0.0590184 0.225017 -0.945538 0.323732 0.0339968 -0.670858 0.360897 -0.647845 
0.968034 -0.0137838 0.250441 0.963955 -0.0745709 0.255402 0.994016 -0.00215438 0.109212 
-0.993777 0.0418127 0.103245 0.909637 -0.321866 0.262607 -0.954703 -0.288079 0.0745198 
0.756709 -0.591047 0.279382 0.695028 -0.657498 0.290917 -0.559623 -0.764444 0.320074 
-0.786279 -0.582618 0.205721 -0.769506 -0.603362 0.209322 -0.81375 -0.580935 -0.0180335 
0.551525 -0.761015 0.341579 0.524754 -0.770364 0.362179 0.340174 -0.85814 0.384548 
0.318275 -0.879419 0.354011 -0.140481 -0.837302 0.528384 -0.223246 -0.881733 0.415582 
-0.555448 -0.767338 0.320421 -0.295538 -0.922374 0.248764 0.317866 -0.879487 0.354208 
0.31938 -0.882626 0.344918 0.27475 -0.867356 0.414977 0.210482 -0.894554 0.394297 
0.107343 -0.925188 0.364013 -0.0543505 -0.915641 0.398307 -0.184795 -0.835985 0.516701 
-0.198988 -0.763405 0.614505 -0.139311 -0.777157 0.613694 -0.129959 -0.840755 0.525587 
-0.116754 -0.843427 0.524404 -0.169722 -0.904065 0.392251 -0.00107128 -0.999966 0.00815857 
0.390093 0.788439 -0.475596 0.215938 0.797671 -0.563108 0.0879535 0.831903 -0.547907 
-0.00631671 0.854374 -0.51962 -0.0978317 0.855753 -0.508051 -0.211256 0.792835 -0.57165 
-0.273887 0.722219 -0.635127 0.45275 0.756994 -0.471145 0.552884 0.667532 -0.498719 
0.365024 0.733148 -0.573804 0.159894 0.636834 -0.754239 0.097029 0.588858 -0.802391 
0.0171544 0.583146 -0.812186 -0.102023 0.601624 -0.792237 -0.186541 0.616461 -0.764969 
-0.310937 0.682203 -0.661754 -0.270915 0.667171 -0.693894 -0.332968 0.604417 -0.723749 
-0.358647 0.557184 -0.748944 0.562969 0.659225 -0.498487 0.595969 0.645603 -0.477513 
0.488246 0.597721 -0.635882 0.277061 0.419442 -0.864468 -0.210608 0.289638 -0.933678 
-0.235309 0.292073 -0.926997 -0.256706 0.39592 -0.881674 -0.422286 0.505955 -0.75212 
-0.369335 0.479112 -0.796268 -0.451909 0.463159 -0.762406 0.598484 0.63367 -0.490183 
0.612919 0.622646 -0.486459 0.517435 0.548587 -0.656744 0.261142 0.368519 -0.892188 
-0.210274 0.144353 -0.966927 -0.227984 0.200044 -0.952893 -0.214043 0.299463 -0.929789 
-0.463392 0.523984 -0.714639 -0.344654 0.456821 -0.820078 -0.481438 0.514221 -0.709785 
0.664428 0.570095 -0.483247 0.725493 0.499754 -0.473188 0.53727 0.516393 -0.666843 
-0.113102 0.0667574 -0.991338 -0.104009 0.161768 -0.981332 -0.0964055 0.258342 -0.961231 
-0.238504 0.297855 -0.924337 -0.506654 0.501498 -0.701286 -0.395367 0.427434 -0.81301 
-0.564133 0.458065 -0.686972 0.766741 0.447294 -0.460474 0.668845 0.449593 -0.592042 
-0.0930962 0.166203 -0.981687 -0.117423 0.195239 -0.973701 -0.28529 0.294057 -0.912217 
-0.623118 0.402532 -0.670591 -0.485807 0.364227 -0.794563 0.858289 0.266995 -0.43824 
-0.226228 0.168211 -0.95944 -0.638922 0.348218 -0.685947 -0.470313 0.260353 -0.843221 
-0.653043 0.338552 -0.677435 0.933709 0.0346329 -0.356355 0.599479 0.0942958 -0.794817 
-0.407659 0.106534 -0.906898 -0.797501 0.117345 -0.591795 -0.6515 0.116099 -0.749712 
0.906253 -0.273029 -0.322739 -0.216358 -0.135219 -0.966905 -0.474768 -0.115046 -0.872559 
-0.765053 -0.206842 -0.609845 -0.73168 -0.364597 -0.575946 -0.654719 -0.211317 -0.725733 
0.816342 -0.533434 -0.221434 0.75642 -0.627706 -0.183883 0.704534 -0.504116 -0.499498 
-0.265414 -0.185052 -0.946209 -0.720514 -0.448491 -0.528882 -0.597661 -0.672192 -0.436988 
-0.49845 -0.382821 -0.777815 0.637601 -0.760963 -0.12 0.568512 -0.815568 -0.107906 
0.586398 -0.653818 -0.478183 0.400008 -0.915485 -0.043375 -0.343873 -0.895731 -0.28181 
-0.244105 -0.510856 -0.824281 -0.574168 -0.705892 -0.414787 -0.412819 -0.845374 -0.339003 
-0.352452 -0.582039 -0.732808 0.361683 -0.93216 -0.0162025 0.337033 -0.941492 -0.0014246 
0.335954 -0.796869 -0.50213 0.282509 -0.959203 -0.0108821 0.185912 -0.981772 -0.0395029 
0.100983 -0.992614 -0.0672261 -0.0953532 -0.995347 -0.0138291 -0.181682 -0.983293 0.0112263 
-0.214386 -0.97653 -0.0206596 -0.238667 -0.966574 -0.0936636 -0.251302 -0.721656 -0.645027 
-0.320205 -0.916924 -0.238156 -0.250094 -0.956416 -0.150736 -0.260468 -0.890714 -0.372539 
0.0603047 -0.996185 -0.0630804 -0.0754656 -0.996893 -0.0225621 0.00753501 -0.998246 -0.0587239 
0.00759963 -0.994905 -0.100531 0.10011 0.354185 -0.929801 0.0726066 0.337469 -0.938532 
0.0220426 0.366355 -0.930214 -0.0993456 0.368381 -0.924352 0.10418 0.353998 -0.929426 
0.213863 0.343224 -0.914582 0.0996946 0.352477 -0.930495 0.0691923 0.29077 -0.954288 
0.0225915 0.264831 -0.96403 -0.175 0.287871 -0.941544 -0.102883 0.285788 -0.952754 
-0.205446 0.223479 -0.952811 0.277562 0.339362 -0.898773 0.24654 0.355497 -0.901577 
0.250927 0.35717 -0.899703 0.14641 0.249646 -0.957205 0.032856 0.198417 -0.979567 
-0.00420595 0.103514 -0.994619 0.00729418 0.0236936 -0.999693 -0.067972 0.0443527 -0.996701 
-0.202896 0.115682 -0.972343 -0.191167 0.0765936 -0.978565 0.292235 0.34477 -0.892038 
0.374124 0.352321 -0.857847 0.254786 0.317714 -0.913314 0.177312 0.25273 -0.951151 
0.0720936 0.167363 -0.983256 -0.0538784 0.111358 -0.992319 -0.109085 0.0502738 -0.99276 
-0.0349718 -0.0266112 -0.999034 -0.0531247 -0.0802254 -0.99536 -0.115193 0.0503289 -0.992067 
-0.126774 -0.0201423 -0.991727 -0.0844403 0.0609662 -0.994562 -0.0564246 0.115929 -0.991654 
0.38644 0.343044 -0.856146 0.577337 0.157639 -0.801144 0.343707 0.324447 -0.881249 
0.191119 0.266408 -0.944722 0.110925 0.191672 -0.975171 0.00392481 0.119998 -0.992766 
-0.0868985 0.0549095 -0.994703 -0.136989 0.0959852 -0.985911 -0.126534 0.16454 -0.978221 
-0.0615596 -0.0629966 -0.996113 -0.0429272 0.0982817 -0.994232 -0.0290709 0.0503969 -0.998306 
-0.0653389 0.13081 -0.989252 -0.0442391 0.104405 -0.99355 -0.0664736 0.160494 -0.984796 
-0.114061 0.170596 -0.978717 0.579342 0.149298 -0.801294 0.579753 0.136118 -0.803342 
0.574866 0.148387 -0.804681 0.332892 0.211994 -0.918826 0.123118 0.228248 -0.965787 
0.0235257 0.156157 -0.987452 -0.0686983 0.100499 -0.992563 -0.0813888 0.0339255 -0.996105 
0.00617709 -0.00306058 -0.999976 -0.193956 0.232087 -0.953161 -0.110678 0.182327 -0.976989 
-0.0204889 0.114065 -0.993262 -0.102485 0.0492838 -0.993513 0.0187717 0.0853492 -0.996174 
0.00337902 0.150338 -0.988629 -0.162881 0.160362 -0.973526 -0.124556 0.162682 -0.978785 
-0.1769 0.0979218 -0.979346 0.576023 0.0962477 -0.811747 0.598026 0.0681159 -0.798577 
0.340357 0.0480514 -0.939068 0.169255 0.110646 -0.979342 -0.0180689 0.0961185 -0.995206 
-0.112193 0.0939272 -0.989237 -0.197434 0.0855845 -0.976573 0.0508116 0.0339141 -0.998132 
0.100635 0.0303474 -0.994461 -0.186394 0.286346 -0.939821 -0.18992 0.0864689 -0.977984 
-0.0558853 0.121161 -0.991058 0.0565404 0.100699 -0.993309 -0.0182384 0.0912182 -0.995664 
-0.0845088 0.0775492 -0.9934 -0.235545 0.0777468 -0.968749 -0.209916 -0.117627 -0.970618 
-0.144006 0.0628265 -0.98758 0.683728 -0.114119 -0.720758 0.635561 -0.279858 -0.719543 
0.581775 -0.0950573 -0.807776 0.293902 -0.055101 -0.954246 0.19429 -0.0475067 -0.979793 
0.00548668 0.0014061 -0.999984 -0.0825091 0.0581635 -0.994892 -0.138576 0.144206 -0.979797 
-0.0468632 0.200748 -0.978521 0.0588923 0.0517396 -0.996923 -0.0647399 0.133638 -0.988913 
-0.179908 0.167008 -0.969403 -0.0874153 0.166728 -0.98212 -0.0117466 0.0651018 -0.997809 
-0.022772 -0.0204616 -0.999531 -0.213122 -0.1315 -0.968136 -0.142658 0.00684778 -0.989748 
0.547648 -0.42148 -0.722798 0.526794 -0.510746 -0.679431 0.461603 -0.326798 -0.824698 
0.205062 -0.241122 -0.948583 0.0863964 -0.0930794 -0.991903 0.0289384 -0.0329439 -0.999038 
-0.0505254 0.0867854 -0.994945 -0.0374056 0.116125 -0.99253 0.0194445 0.125645 -0.991885 
-0.071979 0.0808628 -0.994123 -0.16867 0.103687 -0.980204 -0.156192 0.0555924 -0.986161 
-0.128809 -0.0447136 -0.990661 -0.0802129 -0.102884 -0.991454 -0.227784 -0.221028 -0.948294 
-0.205819 -0.330073 -0.921244 -0.202953 -0.254318 -0.945586 0.506372 -0.56125 -0.654664 
0.402028 -0.673471 -0.620331 0.354416 -0.482265 -0.80113 0.333643 -0.781944 -0.526542 
0.233449 -0.362841 -0.902135 0.0929625 -0.223353 -0.970295 0.0116992 -0.144199 -0.98948 
-0.00427152 -0.107309 -0.994217 0.0227712 -0.0993979 -0.994787 -0.0896739 -0.118149 -0.988939 
-0.190452 -0.122153 -0.974067 -0.24661 -0.173316 -0.953491 -0.205884 -0.400783 -0.89274 
-0.170613 -0.258508 -0.950823 -0.227064 -0.31956 -0.919958 -0.236042 -0.352832 -0.905424 
-0.230111 -0.293758 -0.927769 0.32979 -0.785185 -0.524141 0.222563 -0.815478 -0.534285 
0.214075 -0.687273 -0.694138 0.137443 -0.811659 -0.567732 0.102174 -0.628342 -0.771198 
0.0808408 -0.78835 -0.609893 0.0335634 -0.499924 -0.865418 0.00728113 -0.806097 -0.591738 
0.00631819 -0.493873 -0.869511 -0.102261 -0.792351 -0.601434 -0.104925 -0.505923 -0.856173 
-0.208391 -0.729443 -0.651526 -0.216404 -0.547808 -0.808131 -0.256499 -0.569414 -0.781009 
-0.266023 -0.615363 -0.741998 -0.269299 -0.554932 -0.787101 
