# vtk DataFile Version 4.2
vtk output
ASCII
DATASET POLYDATA
POINTS 530 float
-23.3715 -28.7857 -16.3558 -15.6536 -28.7857 -17.57 -7.93582 -28.7857 -17.7219 
-0.217998 -28.7857 -17.9529 7.49982 -28.7857 -18.1949 15.2176 -28.7857 -16.8377 
-31.0893 -21.0679 -17.0009 -23.3715 -21.0679 -17.7811 -15.6536 -21.0679 -18.4626 
-7.93582 -21.0679 -19.2015 -0.217998 -21.0679 -19.4526 7.49982 -21.0679 -19.5479 
15.2176 -21.0679 -18.235 22.9355 -21.0679 -16.326 -38.8071 -13.3501 -17.8391 
-31.0893 -13.3501 -18.6147 -23.3715 -13.3501 -18.6842 -15.6536 -13.3501 -18.6995 
-7.93582 -13.3501 -20.5719 -0.217998 -13.3501 -20.3084 7.49982 -13.3501 -20.0897 
15.2176 -13.3501 -18.0055 22.9355 -13.3501 -17.1594 30.6533 -13.3501 -17.4121 
38.3711 -13.3501 -16.1029 -46.5249 -5.63223 -16.2446 -38.8071 -5.63223 -18.9095 
-31.0893 -5.63223 -19.4784 -23.3715 -5.63223 -18.8558 -15.6536 -5.63223 -20.0375 
-7.93582 -5.63223 -22.2238 -0.217998 -5.63223 -18.9989 7.49982 -5.63223 -21.5286 
15.2176 -5.63223 -19.9158 22.9355 -5.63223 -19.5056 30.6533 -5.63223 -19.8589 
38.3711 -5.63223 -19.3448 46.0889 -5.63223 -16.8446 -46.5249 2.08559 -17.3115 
-38.8071 2.08559 -19.9839 -31.0893 2.08559 -20.5028 -23.3715 2.08559 -19.9956 
-15.6536 2.08559 -20.569 -7.93582 2.08559 -21.4175 -0.217998 2.08559 -19.1925 
7.49982 2.08559 -22.9989 15.2176 2.08559 -20.8544 22.9355 2.08559 -20.556 
30.6533 2.08559 -21.4964 38.3711 2.08559 -21.0927 46.0889 2.08559 -18.9996 
-46.5249 9.80341 -16.7643 -38.8071 9.80341 -19.8559 -31.0893 9.80341 -20.8059 
-23.3715 9.80341 -20.8008 -15.6536 9.80341 -20.5404 -7.93582 9.80341 -20.9092 
-0.217998 9.80341 -21.4805 7.49982 9.80341 -22.0968 15.2176 9.80341 -20.4199 
22.9355 9.80341 -20.9716 30.6533 9.80341 -21.5491 38.3711 9.80341 -21.1308 
46.0889 9.80341 -18.7213 -46.5249 17.5212 -15.4485 -38.8071 17.5212 -19.0202 
-31.0893 17.5212 -20.3047 -23.3715 17.5212 -20.8901 -15.6536 17.5212 -21.279 
-7.93582 17.5212 -21.6746 -0.217998 17.5212 -22.1212 7.49982 17.5212 -22.0823 
15.2176 17.5212 -21.4917 22.9355 17.5212 -21.2745 30.6533 17.5212 -21.0608 
38.3711 17.5212 -19.7909 46.0889 17.5212 -16.5415 -38.8071 25.239 -16.5377 
-31.0893 25.239 -19.0907 -23.3715 25.239 -20.5843 -15.6536 25.239 -21.4182 
-7.93582 25.239 -22.3152 -0.217998 25.239 -22.1225 7.49982 25.239 -22.5033 
15.2176 25.239 -21.9609 22.9355 25.239 -21.482 30.6533 25.239 -20.235 
38.3711 25.239 -17.8067 -31.0893 32.9569 -16.0164 -23.3715 32.9569 -18.4665 
-15.6536 32.9569 -19.6789 -7.93582 32.9569 -20.6197 -0.217998 32.9569 -20.7253 
7.49982 32.9569 -20.6527 15.2176 32.9569 -20.1124 22.9355 32.9569 -19.4296 
30.6533 32.9569 -16.2512 -23.3715 -30.4994 -15.4388 -23.3715 -36.5035 -10.598 
-15.6536 -33.4373 -15.4388 -15.6536 -36.5035 -13.3046 -7.93582 -34.5584 -15.4388 
-7.93582 -36.5035 -14.3895 -0.217998 -34.9387 -15.4388 -0.217998 -36.5035 -14.614 
7.49982 -34.8734 -15.4388 7.49982 -36.5035 -14.4897 15.2176 -32.2299 -15.4388 
15.2176 -36.5035 -13.1381 22.9355 -36.5035 -9.99066 -38.8071 -28.7857 -8.8469 
-26.9191 -28.7857 -15.4388 -31.0893 -25.6915 -15.4388 -31.0893 -28.7857 -14.1237 
19.9088 -28.7857 -15.4388 22.9355 -24.9899 -15.4388 22.9355 -28.7857 -14.4061 
30.6533 -28.7857 -11.4238 -46.5249 -21.0679 -8.63426 -37.1454 -21.0679 -15.4388 
-38.8071 -20.0107 -15.4388 -38.8071 -21.0679 -14.9264 27.2699 -21.0679 -15.4388 
30.6533 -18.9086 -15.4388 30.6533 -21.0679 -14.608 38.3711 -14.6136 -15.4388 
38.3711 -21.0679 -11.7283 -45.914 -13.3501 -15.4388 -46.5249 -11.397 -15.4388 
-46.5249 -13.3501 -15.0622 40.8157 -13.3501 -15.4388 46.0889 -9.30906 -15.4388 
46.0889 -13.3501 -13.1932 -47.5878 -5.63223 -15.4388 48.3316 -5.63223 -15.4388 
53.8067 -5.63223 -9.21277 -48.923 2.08559 -15.4388 -54.2427 2.08559 -8.25972 
50.8621 2.08559 -15.4388 53.8067 2.08559 -11.9767 -48.1063 9.80341 -15.4388 
50.548 9.80341 -15.4388 53.8067 9.80341 -11.4097 -46.5354 17.5212 -15.4388 
-46.5249 17.5404 -15.4388 47.5924 17.5212 -15.4388 46.0889 19.7934 -15.4388 
-40.3857 25.239 -15.4388 -46.5249 25.239 -8.26099 -38.8071 27.1025 -15.4388 
41.8487 25.239 -15.4388 38.3711 28.2781 -15.4388 46.0889 25.239 -11.1126 
-32.1664 32.9569 -15.4388 -38.8071 32.9569 -9.87346 -31.0893 33.627 -15.4388 
-23.3715 37.4558 -15.4388 -15.6536 39.046 -15.4388 -7.93582 40.0167 -15.4388 
-0.217998 39.8265 -15.4388 7.49982 39.407 -15.4388 15.2176 38.5219 -15.4388 
22.9355 37.0525 -15.4388 32.192 32.9569 -15.4388 30.6533 33.7853 -15.4388 
-23.3715 40.6747 -9.76464 -15.6536 40.6747 -12.5349 -7.93582 40.6747 -14.0389 
-0.217998 40.6747 -13.46 7.49982 40.6747 -11.3975 -23.3715 -38.3514 -7.72102 
-15.6536 -40.3856 -7.72102 -7.93582 -41.5241 -7.72102 -0.217998 -42.2007 -7.72102 
7.49982 -42.227 -7.72102 7.49982 -44.2213 -0.411954 15.2176 -41.1808 -7.72102 
22.9355 -38.396 -7.72102 -38.8071 -29.5572 -7.72102 -27.3892 -36.5035 -7.72102 
-31.0893 -34.5665 -7.72102 25.9428 -36.5035 -7.72102 30.6533 -32.8125 -7.72102 
30.6533 -36.5035 -0.752712 -39.7469 -28.7857 -7.72102 -46.5249 -21.866 -7.72102 
35.4439 -28.7857 -7.72102 38.3711 -26.2275 -7.72102 38.3711 -28.7857 -3.44141 
-47.1595 -21.0679 -7.72102 43.6845 -21.0679 -7.72102 46.0889 -18.5826 -7.72102 
46.0889 -21.0679 -2.98654 -51.5212 -13.3501 -7.72102 50.216 -13.3501 -7.72102 
53.8067 -7.18093 -7.72102 -53.764 -5.63223 -7.72102 -54.2427 -0.714866 -7.72102 
-54.2427 -5.63223 -0.555068 54.5702 -5.63223 -7.72102 -54.5064 2.08559 -7.72102 
-54.2427 3.74842 -7.72102 56.1732 2.08559 -7.72102 -53.2794 9.80341 -7.72102 
55.7968 9.80341 -7.72102 53.8067 16.6542 -7.72102 -50.8606 17.5212 -7.72102 
53.5157 17.5212 -7.72102 53.8067 17.5212 -5.20784 -46.833 25.239 -7.72102 
-46.5249 25.6971 -7.72102 38.3711 32.9253 -7.72102 48.1436 25.239 -7.72102 
46.0889 27.3359 -7.72102 -40.4095 32.9569 -7.72102 -38.8071 34.4047 -7.72102 
-31.0893 39.018 -7.72102 15.2176 40.4764 -7.72102 22.9355 38.9385 -7.72102 
38.313 32.9569 -7.72102 30.6533 36.7347 -7.72102 38.3711 32.9569 -7.31408 
-25.9333 40.6747 -7.72102 -23.3715 41.4172 -7.72102 -15.6536 42.4263 -7.72102 
-7.93582 42.7408 -7.72102 -0.217998 42.3378 -7.72102 13.7891 40.6747 -7.72102 
7.49982 41.5364 -7.72102 7.49982 40.6747 -2.44402 7.49982 -44.3183 -0.0032041 
-23.3715 -38.7682 -0.0032041 -15.6536 -41.133 -0.0032041 -7.93582 -42.8517 -0.0032041 
5.80502 -44.2213 -0.0032041 -0.217998 -43.8789 -0.0032041 8.35567 -44.2213 -0.0032041 
7.49982 -44.2213 0.739348 15.2176 -43.4188 -0.0032041 22.9355 -41.0003 -0.0032041 
30.6533 -36.7916 -0.0032041 -38.8071 -30.3787 -0.0032041 -29.0645 -36.5035 -0.0032041 
-31.0893 -35.6238 -0.0032041 31.0585 -36.5035 -0.0032041 30.6533 -36.5035 1.6349 
38.3711 -30.4548 -0.0032041 -40.7605 -28.7857 -0.0032041 -46.5249 -22.8077 -0.0032041 
-38.8071 -28.7857 5.98288 40.1802 -28.7857 -0.0032041 46.0889 -22.4554 -0.0032041 
-47.8464 -21.0679 -0.0032041 -46.5249 -21.0679 4.3619 47.2349 -21.0679 -0.0032041 
46.0889 -21.0679 5.45216 -52.1221 -13.3501 -0.0032041 -54.2427 -5.77603 -0.0032041 
52.4032 -13.3501 -0.0032041 53.8067 -9.98667 -0.0032041 -54.2769 -5.63223 -0.0032041 
-54.2427 -5.63223 0.101703 55.5264 -5.63223 -0.0032041 53.8067 -5.63223 5.3935 
-54.7499 2.08559 -0.0032041 -54.2427 6.95563 -0.0032041 -54.2427 2.08559 1.51046 
56.7865 2.08559 -0.0032041 53.8067 2.08559 7.42895 -53.8993 9.80341 -0.0032041 
56.3346 9.80341 -0.0032041 53.8067 9.80341 6.56665 -50.8533 17.5212 -0.0032041 
54.3302 17.5212 -0.0032041 53.8067 18.3946 -0.0032041 53.8067 17.5212 1.5029 
-46.8928 25.239 -0.0032041 -46.5249 25.8594 -0.0032041 -46.5249 25.239 0.765255 
48.6542 25.239 -0.0032041 46.0889 27.6558 -0.0032041 46.0889 25.239 6.85161 
-40.9746 32.9569 -0.0032041 -38.8071 34.8105 -0.0032041 -38.8071 32.9569 3.24023 
-31.0893 39.3871 -0.0032041 7.49982 40.2319 -0.0032041 15.2176 39.0515 -0.0032041 
22.9355 37.5905 -0.0032041 30.6533 35.9548 -0.0032041 30.6533 32.9569 6.65321 
39.1436 32.9569 -0.0032041 38.3711 33.4124 -0.0032041 38.3711 32.9569 1.34397 
-25.8919 40.6747 -0.0032041 -23.3715 41.2199 -0.0032041 -23.3715 40.6747 1.30187 
-15.6536 41.9066 -0.0032041 -15.6536 40.6747 2.74955 -7.93582 41.2974 -0.0032041 
-7.93582 40.6747 1.18561 0.495573 40.6747 -0.0032041 -0.217998 40.7175 -0.0032041 
-0.217998 40.6747 0.0787377 -23.3715 -37.3131 7.71462 -15.6536 -39.6245 7.71462 
-7.93582 -41.4067 7.71462 -0.217998 -42.8644 7.71462 7.49982 -43.2619 7.71462 
15.2176 -42.14 7.71462 22.9355 -39.5069 7.71462 -25.1785 -36.5035 7.71462 
-31.0893 -33.5611 7.71462 -23.3715 -36.5035 10.2095 28.5919 -36.5035 7.71462 
22.9355 -36.5035 12.6562 30.6533 -35.2698 7.71462 38.3711 -29.3365 7.71462 
-38.2236 -28.7857 7.71462 -38.8071 -28.2861 7.71462 38.9704 -28.7857 7.71462 
38.3711 -28.7857 8.58969 -45.4729 -21.0679 7.71462 -46.5249 -19.3228 7.71462 
45.6094 -21.0679 7.71462 46.0889 -20.2676 7.71462 -49.5922 -13.3501 7.71462 
-46.5249 -13.3501 13.322 49.9794 -13.3501 7.71462 46.0889 -13.3501 12.7458 
-51.5666 -5.63223 7.71462 52.9333 -5.63223 7.71462 46.0889 -5.63223 14.7382 
-51.924 2.08559 7.71462 53.6717 2.08559 7.71462 46.0889 2.08559 14.8554 
-50.3675 9.80341 7.71462 -46.5249 9.80341 13.3487 53.2449 9.80341 7.71462 
46.0889 9.80341 14.2102 -47.3885 17.5212 7.71462 -46.5249 19.1843 7.71462 
-46.5249 17.5212 8.87295 51 17.5212 7.71462 46.0889 24.7472 7.71462 
46.0889 17.5212 12.6205 -42.8913 25.239 7.71462 -38.8071 30.0434 7.71462 
-38.8071 25.239 11.6248 -31.0893 25.239 15.1349 -0.217998 25.239 15.2044 
7.49982 25.239 14.7614 30.6533 32.4306 7.71462 30.6533 25.239 15.1339 
45.5905 25.239 7.71462 38.3711 29.966 7.71462 38.3711 25.239 12.6805 
-35.2823 32.9569 7.71462 -31.0893 35.571 7.71462 -31.0893 32.9569 10.581 
-23.3715 37.3974 7.71462 -23.3715 32.9569 12.2842 -15.6536 37.696 7.71462 
-15.6536 32.9569 12.4914 -7.93582 36.5985 7.71462 -7.93582 32.9569 11.4142 
-0.217998 35.6886 7.71462 -0.217998 32.9569 10.3795 7.49982 35.2483 7.71462 
7.49982 32.9569 9.98557 15.2176 34.7662 7.71462 15.2176 32.9569 9.81282 
28.0953 32.9569 7.71462 22.9355 33.9314 7.71462 22.9355 32.9569 9.0055 
-15.6536 -36.7349 15.4324 -7.93582 -38.2057 15.4324 -0.217998 -39.0921 15.4324 
[...]
POINT_DATA 530
SCALARS ImageScalars float
LOOKUP_TABLE default
0 0 0 0 0 0 0 0 0 
0 0 0 0 0 0 0 0 0 
0 0 0 0 0 0 0 0 0 
0 0 0 0 0 0 0 0 0 
0 0 0 0 0 0 0 0 0 
0 0 0 0 0 0 0 0 0 
0 0 0 0 0 0 0 0 0 
0 0 0 0 0 0 0 0 0 
0 0 0 0 0 0 0 0 0 
0 0 0 0 0 0 0 0 0 
0 0 0 0 0 0 0 0 0 
0 0 0 0 0 0 0 0 0 
0 0 0 0 0 0 0 0 0 
0 0 0 0 0 0 0 0 0 
0 0 0 0 0 0 0 0 0 
0 0 0 0 0 0 0 0 0 
0 0 0 0 0 0 0 0 0 
0 0 0 0 0 0 0 0 0 
0 0 0 0 0 0 0 0 0 
0 0 0 0 0 0 0 0 0 
0 0 0 0 0 0 0 0 0 
0 0 0 0 0 0 0 0 0 
0 0 0 0 0 0 0 0 0 
0 0 0 0 0 0 0 0 0 
0 0 0 0 0 0 0 0 0 
0 0 0 0 0 0 0 0 0 
0 0 0 0 0 0 0 0 0 
0 0 0 0 0 0 0 0 0 
0 0 0 0 0 0 0 0 0 
0 0 0 0 0 0 0 0 0 
0 0 0 0 0 0 0 0 0 
0 0 0 0 0 0 0 0 0 
0 0 0 0 0 0 0 0 0 
0 0 0 0 0 0 0 0 0 
0 0 0 0 0 0 0 0 0 
0 0 0 0 0 0 0 0 0 
0 0 0 0 0 0 0 0 0 
0 0 0 0 0 0 0 0 0 
0 0 0 0 0 0 0 0 0 
0 0 0 0 0 0 0 0 0 
0 0 0 0 0 0 0 0 0 
0 0 0 0 0 0 0 0 0 
0 0 0 0 0 0 0 0 0 
0 0 0 0 0 0 0 0 0 
0 0 0 0 0 0 0 0 0 
0 0 0 0 0 0 0 0 0 
0 0 0 0 0 0 0 0 0 
0 0 0 0 0 0 0 0 0 
0 0 0 0 0 0 0 0 0 
0 0 0 0 0 0 0 0 0 
0 0 0 0 0 0 0 0 0 
0 0 0 0 0 0 0 0 0 
0 0 0 0 0 0 0 0 0 
0 0 0 0 0 0 0 0 0 
0 0 0 0 0 0 0 0 0 
0 0 0 0 0 0 0 0 0 
0 0 0 0 0 0 0 0 0 
0 0 0 0 0 0 0 0 0 
0 0 0 0 0 0 0 0 
NORMALS Normals float
0.197048 0.337015 0.920648 0.0804725 0.267082 0.960308 0.0242998 0.280613 0.959513 
0.0291035 0.28192 0.958996 -0.0720441 0.298523 0.951679 -0.215815 0.276706 0.936407 
0.156594 0.25299 0.954712 0.0900358 0.140365 0.985998 0.0909414 0.0728444 0.993189 
0.0624751 0.172314 0.983059 0.0226129 0.146177 0.989 -0.080678 0.116878 0.989864 
-0.213982 0.0742584 0.974011 -0.224634 0.156182 0.961846 0.211057 0.215497 0.953423 
0.0565682 0.150636 0.986969 0.00577918 0.0691685 0.997588 0.119945 0.0938373 0.988336 
0.104216 0.19345 0.975559 -0.0302343 -0.0249254 0.999232 -0.146308 0.124619 0.981358 
-0.189518 0.0965554 0.977118 -0.0383385 0.204936 0.978024 -0.0589342 0.329163 0.942432 
-0.200937 0.427799 0.881256 0.496477 0.128461 0.858492 0.17997 0.142682 0.973269 
-0.00518036 0.12615 0.991998 0.0271807 0.0808784 0.996353 0.225511 0.127178 0.965904 
-0.0754366 0.0548157 0.995643 -0.0416672 -0.0786628 0.99603 0.0640386 0.18758 0.98016 
-0.135509 0.191481 0.972097 -0.00169469 0.218391 0.97586 -0.00842506 0.253044 0.967418 
-0.16558 0.296077 0.940703 -0.433371 0.299559 0.849973 0.499 0.0294236 0.866102 
0.180699 0.0611746 0.981634 0.000758001 0.0855205 0.996336 0.00217222 0.128852 0.991661 
0.0910392 0.0297496 0.995403 -0.0762973 -0.0861067 0.99336 0.102756 0.182278 0.977863 
0.0901541 0.0386159 0.995179 -0.155265 0.0278704 0.98748 0.0419163 0.0924699 0.994833 
0.0358156 0.105686 0.993754 -0.137059 0.106841 0.984784 -0.437798 0.101049 0.893377 
0.546726 -0.109684 0.830096 0.227121 -0.0646188 0.97172 0.0567975 -0.0126501 0.998306 
-0.0171761 0.0545677 0.998362 0.00696161 0.0460368 0.998915 0.0603002 0.0185706 0.998008 
0.0749628 0.169268 0.982715 -0.0719223 -0.0565398 0.995806 -0.0665397 0.0432081 0.996848 
0.0729241 0.0466539 0.996246 0.0118828 -0.0277785 0.999543 -0.162838 -0.081029 0.98332 
-0.452276 -0.127994 0.882646 0.646005 -0.291138 0.705632 0.283552 -0.176473 0.942579 
0.121075 -0.102454 0.987342 0.0625254 -0.0131773 0.997956 0.0507597 0.0566203 0.997105 
0.0540526 0.0896955 0.994501 0.0264567 0.0410581 0.998806 -0.0406261 0.0258134 0.998841 
-0.0521798 0.0987289 0.993745 -0.0275131 0.0324508 0.999095 -0.0905697 -0.0792201 0.992734 
-0.251539 -0.179301 0.951094 -0.510353 -0.327215 0.79528 0.440325 -0.412098 0.797678 
0.233559 -0.240351 0.942168 0.141805 -0.149259 0.978577 0.109573 -0.0967791 0.989256 
0.044919 -0.0638807 0.996946 0.0119324 -0.0793107 0.996779 -0.00994525 -0.0816826 0.996609 
-0.0644978 -0.0791523 0.994774 -0.106204 -0.0994604 0.989358 -0.204394 -0.277918 0.938608 
-0.427875 -0.432424 0.793683 0.37439 -0.536429 0.756357 0.203877 -0.414968 0.886699 
0.134178 -0.386958 0.912283 0.0654715 -0.390447 0.918294 0.00227058 -0.381292 0.924452 
-0.0388224 -0.436804 0.898719 -0.0753463 -0.460541 0.884435 -0.226306 -0.50598 0.832328 
-0.40209 -0.651604 0.643223 0.220867 0.419979 0.880247 0.32568 0.810031 0.487629 
0.124065 0.469317 0.874271 0.166482 0.689251 0.705136 0.0450828 0.485619 0.873008 
0.0614928 0.596458 0.800285 0.0076804 0.493444 0.869744 0.00437896 0.573098 0.819475 
-0.0708556 0.50812 0.858367 -0.0722658 0.586903 0.806425 -0.21121 0.399703 0.89198 
-0.210566 0.612911 0.761579 -0.426249 0.667587 0.610442 0.590822 0.717038 0.369845 
0.249931 0.400129 0.881721 0.246251 0.384099 0.889847 0.334893 0.517076 0.787705 
-0.258107 0.301081 0.918004 -0.255887 0.235031 0.937701 -0.301745 0.32984 0.894514 
-0.449638 0.507707 0.734887 0.736793 0.571441 0.361374 0.308924 0.379511 0.872088 
0.331792 0.384652 0.861369 0.366655 0.422134 0.829076 -0.240771 0.239427 0.940587 
-0.201983 0.309013 0.929362 -0.259712 0.31424 0.913128 -0.226972 0.440593 0.86854 
-0.419349 0.534197 0.734016 0.539003 0.27913 0.794709 0.552241 0.242521 0.79763 
0.577574 0.290205 0.763014 -0.288807 0.451714 0.844124 -0.463281 0.388937 0.796303 
-0.534731 0.509827 0.673899 0.552252 0.130105 0.823462 -0.526803 0.307207 0.792529 
-0.861156 0.340443 0.377504 0.609662 0.019509 0.792421 0.95796 -0.0294402 0.285386 
-0.650075 0.0756207 0.756097 -0.849059 0.0661976 0.524134 0.62441 -0.124656 0.771085 
-0.64627 -0.130251 0.751911 -0.862939 -0.14685 0.483498 0.646523 -0.291178 0.705141 
0.646245 -0.291586 0.705227 -0.571 -0.344149 0.745333 -0.554701 -0.391973 0.733937 
0.493916 -0.441455 0.749109 0.805642 -0.527261 0.270068 0.467051 -0.469307 0.749409 
-0.529239 -0.500191 0.685358 -0.486699 -0.576163 0.656629 -0.66558 -0.612386 0.426599 
0.399477 -0.551904 0.731998 0.605272 -0.696232 0.385885 0.382781 -0.566524 0.729746 
0.247897 -0.683252 0.686814 0.117833 -0.743605 0.658155 0.0346372 -0.815613 0.57756 
-0.0316877 -0.822005 0.568597 -0.0679152 -0.840255 0.537922 -0.131646 -0.835194 0.533967 
-0.267158 -0.817837 0.509676 -0.430024 -0.675366 0.599133 -0.407126 -0.693776 0.594074 
0.22083 -0.938464 0.265556 0.101886 -0.900408 0.422947 0.0261739 -0.885309 0.464265 
-0.0473139 -0.91248 0.406376 -0.101626 -0.963668 0.247015 0.341945 0.886593 0.311489 
0.200211 0.927133 0.316765 0.115379 0.923849 0.364953 0.0440582 0.909978 0.412308 
-0.0585483 0.893742 0.444745 -0.0294657 0.997029 0.0711697 -0.214724 0.854655 0.472715 
-0.42316 0.758405 0.495739 0.600002 0.740451 0.30287 0.40846 0.859603 0.306991 
0.460957 0.825368 0.326017 -0.478729 0.710544 0.515699 -0.522828 0.64236 0.560379 
-0.555578 0.820902 0.132113 0.615408 0.727653 0.302976 0.748171 0.587129 0.309062 
-0.54159 0.620584 0.567059 -0.537301 0.626427 0.564709 -0.637002 0.704408 0.313109 
0.761912 0.569855 0.307824 -0.606997 0.5986 0.522716 -0.661656 0.586681 0.466922 
-0.740479 0.632899 0.226118 0.871939 0.37793 0.311273 -0.752242 0.520784 0.403628 
-0.874534 0.369677 0.313894 0.942974 0.174881 0.283226 0.963816 0.04256 0.263147 
0.982148 0.155202 -0.106295 -0.89474 0.334151 0.296283 0.966822 -0.0318345 0.253459 
0.964506 -0.072245 0.253987 -0.956355 0.0709006 0.283476 0.941297 -0.218539 0.257294 
-0.948687 -0.15837 0.273701 -0.878567 -0.392056 0.272786 0.901473 -0.368984 0.226266 
-0.864469 -0.421738 0.273551 -0.892733 -0.426266 0.146033 0.815851 -0.526283 0.239612 
0.809169 -0.535518 0.241797 -0.4957 -0.845802 0.197233 -0.72355 -0.643062 0.250891 
-0.669761 -0.703466 0.237817 0.65348 -0.708606 0.266162 0.61226 -0.744612 0.265876 
0.379328 -0.888311 0.25887 -0.164192 -0.986343 0.0130045 -0.229485 -0.973129 0.0188868 
-0.49453 -0.846715 0.196252 -0.358272 -0.927593 0.105891 -0.493562 -0.850959 0.179626 
0.255335 -0.948416 0.187913 0.202853 -0.965882 0.161004 0.0827066 -0.988483 0.126728 
-0.0057665 -0.998055 0.062072 -0.0773152 -0.996457 0.0330989 -0.155416 -0.987726 0.0156245 
-0.119164 -0.992384 0.0312063 -0.107173 -0.970603 -0.215508 -0.0278897 0.9982 0.0530946 
0.326608 0.942843 -0.066134 0.252752 0.966493 -0.0448062 0.172317 0.984975 -0.0114071 
-0.00226359 0.998819 0.0485311 0.0901479 0.995389 0.0327863 -0.0461007 0.997557 0.0524858 
-0.0292956 0.999312 0.0227274 -0.197862 0.979055 0.0479685 -0.399369 0.915307 0.052125 
-0.551516 0.829248 0.0904279 0.618091 0.783336 -0.0659477 0.40995 0.909977 -0.0623159 
0.448229 0.891936 -0.0595126 -0.557786 0.824853 0.092152 -0.551923 0.833825 0.0108569 
-0.665954 0.736183 0.120581 0.653903 0.753252 -0.0708713 0.796123 0.598545 -0.0890601 
0.630218 0.740122 -0.234617 -0.685754 0.718372 0.116978 -0.761356 0.644444 0.0709138 
0.823417 0.559949 -0.0918802 0.801025 0.554216 -0.226283 -0.77913 0.62366 0.0632911 
-0.792553 0.568151 -0.221506 0.926588 0.358511 -0.113598 0.978472 0.156391 -0.134667 
-0.888619 0.457811 -0.0276481 -0.926763 0.370769 -0.0603399 0.979012 0.152773 -0.134889 
0.978525 0.152701 -0.138463 -0.959618 0.265772 -0.0921882 -0.904584 0.229782 -0.359066 
0.987696 -0.022275 -0.154792 0.974652 -0.15239 -0.1638 0.977707 -0.030288 -0.207779 
-0.989233 0.0504387 -0.137382 -0.855045 0.0194359 -0.51819 0.958921 -0.228194 -0.168518 
-0.979225 -0.150738 -0.135636 -0.866547 -0.133336 -0.480955 0.905006 -0.379601 -0.192008 
-0.902307 -0.414623 -0.118027 -0.888629 -0.444093 -0.114542 -0.892161 -0.410339 -0.188866 
0.853497 -0.483021 -0.195537 0.846251 -0.497139 -0.191604 0.846054 -0.480275 -0.231363 
-0.718635 -0.686866 -0.108535 -0.662284 -0.739134 -0.122722 -0.615277 -0.65345 -0.440951 
0.667841 -0.723869 -0.173212 0.60413 -0.7761 -0.180819 0.595242 -0.719366 -0.35805 
0.337393 -0.921723 -0.191291 -0.0989877 -0.936928 -0.335211 -0.15572 -0.935336 -0.317644 
-0.179412 -0.940521 -0.288498 -0.270956 -0.9316 -0.242291 -0.208981 -0.851581 -0.480767 
-0.453542 -0.880593 -0.137315 -0.430534 -0.891668 -0.13989 -0.425217 -0.883292 -0.197448 
0.208491 -0.955258 -0.209793 0.151931 -0.964358 -0.216637 0.15198 -0.950731 -0.27021 
0.00721723 -0.970785 -0.239843 -0.0104304 -0.928797 -0.370443 -0.0787316 -0.937061 -0.340174 
-0.0849665 -0.919824 -0.383019 -0.0665534 -0.933645 -0.351963 -0.0634127 -0.933114 -0.353946 
-0.063331 -0.931976 -0.356945 0.341352 0.910067 -0.235069 0.255589 0.935003 -0.245851 
0.197589 0.943862 -0.264731 0.115722 0.957804 -0.263096 -0.0420941 0.958813 -0.280902 
-0.220897 0.92592 -0.306394 -0.384215 0.863113 -0.327741 0.370361 0.896854 -0.241838 
0.477224 0.83396 -0.27707 0.339464 0.890638 -0.302537 -0.483516 0.817945 -0.311735 
-0.366441 0.762415 -0.533333 -0.520259 0.79627 -0.308682 -0.634867 0.718239 -0.284738 
0.619025 0.732973 -0.282063 0.632512 0.71978 -0.286086 -0.644405 0.7093 -0.285718 
-0.633121 0.70278 -0.324436 0.770323 0.546044 -0.3293 0.800107 0.496822 -0.336151 
-0.776736 0.529501 -0.341043 -0.784388 0.511193 -0.351307 0.866823 0.338248 -0.366341 
0.793517 0.322895 -0.515819 -0.824004 0.368388 -0.430475 -0.705819 0.285996 -0.648094 
0.910558 0.130829 -0.392133 -0.849843 0.206046 -0.485089 -0.564105 0.0944138 -0.820287 
0.902967 -0.0684039 -0.424231 -0.845016 0.0176763 -0.534448 -0.500528 -0.0293589 -0.865223 
0.84392 -0.255399 -0.471774 0.717703 -0.296119 -0.630251 -0.825082 -0.131594 -0.549475 
-0.503681 -0.111189 -0.856704 0.780022 -0.381295 -0.496165 0.764506 -0.398373 -0.506784 
0.747355 -0.392219 -0.536307 -0.773462 -0.367402 -0.516499 -0.609028 -0.626657 -0.486195 
-0.563047 -0.327799 -0.758634 0.674894 -0.473474 -0.565986 0.553999 -0.595507 -0.58177 
0.515695 -0.475395 -0.712782 0.268266 -0.39086 -0.880489 -0.0974287 -0.480402 -0.87162 
0.0128892 -0.430638 -0.902433 -0.202757 -0.827479 -0.523611 -0.137142 -0.502053 -0.853894 
-0.591233 -0.644823 -0.484403 -0.381835 -0.773931 -0.505206 -0.366009 -0.579259 -0.728352 
0.451519 -0.674468 -0.584144 0.321765 -0.749986 -0.577917 0.328478 -0.646575 -0.688508 
0.115408 -0.805198 -0.581668 0.0963652 -0.629662 -0.77087 -0.0406999 -0.775063 -0.630572 
-0.0428606 -0.628623 -0.776529 -0.101947 -0.76077 -0.640965 -0.107288 -0.650609 -0.751796 
-0.0690427 -0.731764 -0.678052 -0.0721034 -0.644727 -0.761005 -0.0477607 -0.740121 -0.670776 
-0.0282006 -0.664533 -0.746726 -0.0718631 -0.792115 -0.606127 -0.0435721 -0.7337 -0.678075 
-0.174595 -0.832832 -0.525269 -0.125218 -0.832977 -0.538952 -0.116589 -0.805051 -0.581636 
0.207171 0.843973 -0.494762 0.130637 0.818718 -0.559138 0.0495041 0.786579 -0.615502 
-0.0705104 0.756858 -0.649765 -0.2293 0.723119 -0.651552 0.484544 0.712555 -0.507428 
0.219622 0.842229 -0.492359 0.334492 0.802081 -0.494753 0.20366 0.836222 -0.509172 
0.105341 0.754069 -0.648293 0.0223615 0.685251 -0.727964 -0.0731236 0.656881 -0.75044 
-0.275953 0.702425 -0.656086 -0.22436 0.67768 -0.700294 -0.337864 0.659342 -0.671652 
-0.449989 0.573857 -0.684251 0.519192 0.68274 -0.514106 0.629234 0.541112 -0.557909 
0.470688 0.658738 -0.586955 0.297124 0.523263 -0.798695 0.0936804 0.397254 -0.912915 
-0.0133625 0.387861 -0.921621 -0.0211811 0.355721 -0.934352 -0.0607026 0.370109 -0.927003 
-0.16197 0.397341 -0.903264 -0.299694 0.467525 -0.831627 -0.467036 0.559127 -0.685022 
-0.442623 0.543983 -0.712859 -0.540053 0.418575 -0.730163 0.65548 0.493052 -0.572054 
0.607477 0.474346 -0.637156 0.344052 0.352812 -0.870145 -0.249382 0.186542 -0.950269 
-0.367665 0.255242 -0.894245 -0.546779 0.399185 -0.735991 -0.530289 0.389396 -0.753103 
0.738841 0.310432 -0.598119 0.771151 0.179888 -0.61071 0.490232 0.229973 -0.840705 
-0.247491 -0.0820173 -0.965413 -0.278975 0.00962183 -0.96025 -0.579808 0.206419 -0.788171 
-0.427217 0.125016 -0.895465 0.777707 0.0903042 -0.622107 0.749541 0.0848025 -0.656503 
0.401359 -0.00285713 -0.915917 -0.215241 -0.251671 -0.943575 -0.16727 -0.118009 -0.978823 
-0.511468 0.0641367 -0.856906 -0.30976 -0.044472 -0.949774 0.730431 -0.12718 -0.671041 
0.713522 -0.17094 -0.67946 0.712825 -0.128723 -0.689428 0.364803 -0.18591 -0.912336 
0.137255 -0.193796 -0.971393 -0.124962 -0.116926 -0.985247 0.00402554 -0.0814779 -0.996667 
-0.279869 -0.26581 -0.922507 -0.103464 -0.151368 -0.983048 -0.0791912 -0.103864 -0.991434 
-0.44727 -0.037701 -0.893604 -0.244819 -0.0706128 -0.966994 0.601028 -0.314834 -0.734605 
0.364348 -0.318685 -0.875037 0.141684 -0.295274 -0.944849 0.0326914 -0.26593 -0.963438 
0.103251 -0.220935 -0.969808 0.07053 -0.158148 -0.984893 -0.0318656 -0.0730356 -0.99682 
-0.18993 -0.293176 -0.937003 -0.220725 -0.179993 -0.958584 -0.0572323 -0.0640123 -0.996307 
-0.0871334 -0.0607435 -0.994343 -0.396196 -0.0991798 -0.912794 -0.252805 -0.0857525 -0.96371 
0.424813 -0.381015 -0.821195 0.423957 -0.381292 -0.821509 0.423594 -0.380863 -0.821895 
0.260705 -0.382526 -0.886401 0.20209 -0.338081 -0.919163 0.096765 -0.267085 -0.958802 
0.0856857 -0.255461 -0.963015 0.00619064 -0.369457 -0.929227 -0.100959 -0.479707 -0.871601 
-0.138324 -0.452888 -0.880772 -0.00494367 -0.427345 -0.904075 -0.0964796 -0.442109 -0.891757 
-0.000755947 -0.24724 -0.968954 0.00567127 -0.184029 -0.982904 -0.132384 -0.473129 -0.87099 
-0.101714 -0.212186 -0.971921 -0.353158 -0.256031 -0.899849 -0.311711 -0.325755 -0.892592 
-0.292363 -0.233581 -0.927342 0.241778 -0.386152 -0.890185 0.1179 -0.439475 -0.890484 
0.126359 -0.369846 -0.92046 -0.027654 -0.490007 -0.87128 -0.00932009 -0.398668 -0.917048 
-0.103421 -0.482671 -0.869674 -0.122666 -0.518346 -0.846328 -0.122055 -0.492653 -0.861624 
0.047951 -0.409102 -0.911228 0.0480005 -0.409135 -0.91121 0.0480109 -0.409068 -0.91124 
-0.0577615 -0.461583 -0.885214 -0.016792 -0.449385 -0.893181 -0.0147362 -0.440185 -0.897786 
0.195034 0.256344 -0.946705 0.091643 0.379588 -0.920605 -0.0123328 0.353902 -0.935201 
-0.0204852 0.323662 -0.945951 -0.0553442 0.318829 -0.946195 -0.146853 0.265307 -0.952915 
0.221587 0.236583 -0.946006 0.252704 0.226124 -0.940749 0.161102 0.173881 -0.9715 
0.0665054 0.10759 -0.991969 0.00876357 0.149549 -0.988715 -0.01346 0.178502 -0.983847 
-0.0470572 0.201149 -0.97843 -0.198446 0.184927 -0.962508 -0.139073 0.187544 -0.972361 
0.286331 0.152157 -0.945972 0.183122 0.116156 -0.976204 0.0408075 0.0293132 -0.998737 
0.0705218 -0.0347886 -0.996903 0.0572265 -0.0207399 -0.998146 0.0227945 -0.0457566 -0.998693 
-0.0475853 0.0100007 -0.998817 -0.241349 -0.0764537 -0.967422 -0.176322 -0.0145867 -0.984224 
0.243973 -0.0542726 -0.968262 0.139806 -0.169687 -0.975531 0.148428 -0.0770553 -0.985917 
0.00726297 -0.0619886 -0.99805 0.0157809 -0.101952 -0.994664 -0.124576 -0.117032 -0.985284 
-0.00597856 -0.143784 -0.989591 0.0125867 -0.238303 -0.971109 0.0161718 -0.294093 -0.95564 
-0.0132549 -0.163725 -0.986417 -0.2384 -0.251149 -0.938131 -0.251379 -0.255694 -0.933504 
-0.237375 -0.242854 -0.940572 0.065924 -0.197335 -0.978117 0.0153206 -0.204353 -0.978777 
0.014134 -0.199391 -0.979818 -0.039099 -0.160182 -0.986313 -0.0106337 -0.174149 -0.984662 
-0.0107321 -0.174103 -0.984669 -0.00321671 -0.157654 -0.987489 -0.0158545 -0.166245 -0.985957 
-0.0214573 -0.173261 -0.984642 -0.00290564 -0.160781 -0.986986 
