# vtk DataFile Version 4.2
vtk output
ASCII
DATASET POLYDATA
POINTS 502 float
-32.3724 -35.3248 -16.2013 -23.9212 -35.3248 -17.6154 -15.4699 -35.3248 -17.8095 
-7.01864 -35.3248 -17.6341 1.43262 -35.3248 -17.5086 9.88388 -35.3248 -16.97 
18.3351 -35.3248 -16.6055 -49.275 -26.8735 -16.0931 -40.8237 -26.8735 -19.4641 
-32.3724 -26.8735 -20.8296 -23.9212 -26.8735 -21.1664 -15.4699 -26.8735 -21.2651 
-7.01864 -26.8735 -20.4845 1.43262 -26.8735 -20.8149 9.88388 -26.8735 -20.6484 
18.3351 -26.8735 -20.1984 26.7864 -26.8735 -20.6161 35.2377 -26.8735 -19.3923 
43.6889 -26.8735 -17.6485 -49.275 -18.4222 -19.0065 -40.8237 -18.4222 -21.1621 
-32.3724 -18.4222 -21.5953 -23.9212 -18.4222 -22.0027 -15.4699 -18.4222 -21.7867 
-7.01864 -18.4222 -21.4744 1.43262 -18.4222 -22.3613 9.88388 -18.4222 -21.782 
18.3351 -18.4222 -21.2775 26.7864 -18.4222 -22.018 35.2377 -18.4222 -21.9048 
43.6889 -18.4222 -20.9331 52.1402 -18.4222 -18.1952 -57.7262 -9.97097 -17.0443 
-49.275 -9.97097 -20.9296 -40.8237 -9.97097 -21.7919 -32.3724 -9.97097 -21.5801 
-23.9212 -9.97097 -21.1696 -15.4699 -9.97097 -21.9759 -7.01864 -9.97097 -22.5441 
1.43262 -9.97097 -22.3646 9.88388 -9.97097 -22.8158 18.3351 -9.97097 -21.2529 
26.7864 -9.97097 -22.0946 35.2377 -9.97097 -22.8067 43.6889 -9.97097 -22.2339 
52.1402 -9.97097 -19.9257 -57.7262 -1.5197 -17.3522 -49.275 -1.5197 -21.1333 
-40.8237 -1.5197 -21.7284 -32.3724 -1.5197 -21.2833 -23.9212 -1.5197 -20.2256 
-15.4699 -1.5197 -22.4921 -7.01864 -1.5197 -23.0561 1.43262 -1.5197 -19.838 
9.88388 -1.5197 -24.3865 18.3351 -1.5197 -21.5023 26.7864 -1.5197 -22.1142 
35.2377 -1.5197 -22.8716 43.6889 -1.5197 -22.652 52.1402 -1.5197 -20.7524 
-49.275 6.93156 -19.8992 -40.8237 6.93156 -21.2061 -32.3724 6.93156 -21.2583 
-23.9212 6.93156 -20.679 -15.4699 6.93156 -21.8584 -7.01864 6.93156 -22.4257 
1.43262 6.93156 -20.2347 9.88388 6.93156 -21.9923 18.3351 6.93156 -20.1881 
26.7864 6.93156 -21.3917 35.2377 6.93156 -22.2884 43.6889 6.93156 -22.2719 
52.1402 6.93156 -20.7908 60.5915 6.93156 -16.5508 -49.275 15.3828 -17.1693 
-40.8237 15.3828 -19.6883 -32.3724 15.3828 -20.3531 -23.9212 15.3828 -20.3952 
-15.4699 15.3828 -20.4238 -7.01864 15.3828 -20.4364 1.43262 15.3828 -19.9946 
9.88388 15.3828 -19.8165 18.3351 15.3828 -19.7595 26.7864 15.3828 -21.4012 
35.2377 15.3828 -21.4467 43.6889 15.3828 -21.0992 52.1402 15.3828 -19.0133 
-40.8237 23.8341 -16.8726 -32.3724 23.8341 -18.8835 -23.9212 23.8341 -19.6948 
-15.4699 23.8341 -20.0489 -7.01864 23.8341 -20.2136 1.43262 23.8341 -20.0067 
9.88388 23.8341 -19.9804 18.3351 23.8341 -20.6564 26.7864 23.8341 -20.7332 
35.2377 23.8341 -20.2431 43.6889 23.8341 -19.6535 52.1402 23.8341 -16.3742 
-23.9212 32.2853 -17.7572 -15.4699 32.2853 -19.0512 -7.01864 32.2853 -19.0338 
1.43262 32.2853 -18.8322 9.88388 32.2853 -18.9406 18.3351 32.2853 -18.8182 
26.7864 32.2853 -17.9259 35.2377 32.2853 -16.8718 -32.3724 -35.4325 -16.0835 
-23.9212 -36.9912 -16.0835 -15.4699 -37.3931 -16.0835 -7.01864 -37.434 -16.0835 
1.43262 -37.2361 -16.0835 9.88388 -36.401 -16.0835 18.3351 -35.9394 -16.0835 
-49.275 -26.889 -16.0835 -32.7302 -35.3248 -16.0835 -40.8237 -31.8686 -16.0835 
-40.8237 -35.3248 -11.9299 22.2677 -35.3248 -16.0835 26.7864 -34.3284 -16.0835 
26.7864 -35.3248 -15.1961 35.2377 -32.6818 -16.0835 35.2377 -35.3248 -13.3295 
43.6889 -28.8886 -16.0835 43.6889 -35.3248 -8.07063 -49.2911 -26.8735 -16.0835 
46.4394 -26.8735 -16.0835 52.1402 -22.0368 -16.0835 52.1402 -26.8735 -11.3972 
-54.8787 -18.4222 -16.0835 -57.7262 -13.4972 -16.0835 -57.7262 -18.4222 -14.0458 
54.9379 -18.4222 -16.0835 60.5915 -18.4222 -8.86308 -59.2357 -9.97097 -16.0835 
58.2388 -9.97097 -16.0835 60.5915 -9.97097 -13.8678 -59.4162 -1.5197 -16.0835 
-57.7262 4.96117 -16.0835 60.2529 -1.5197 -16.0835 60.5915 1.05775 -16.0835 
60.5915 -1.5197 -15.8175 -56.8666 6.93156 -16.0835 -57.7262 6.93156 -15.4809 
61.1657 6.93156 -16.0835 60.5915 8.53075 -16.0835 -51.0318 15.3828 -16.0835 
-57.7262 15.3828 -9.40471 -49.275 17.48 -16.0835 57.2358 15.3828 -16.0835 
60.5915 15.3828 -13.3459 -42.4222 23.8341 -16.0835 -49.275 23.8341 -11.037 
-40.8237 25.1515 -16.0835 -32.3724 30.827 -16.0835 43.6889 30.1546 -16.0835 
52.6153 23.8341 -16.0835 52.1402 24.3185 -16.0835 -40.8237 32.2853 -9.96426 
-30.1745 32.2853 -16.0835 -32.3724 32.2853 -15.3406 -23.9212 36.2346 -16.0835 
-15.4699 39.0802 -16.0835 -7.01864 40.2481 -16.0835 1.43262 39.3406 -16.0835 
9.88388 37.9641 -16.0835 18.3351 36.5896 -16.0835 26.7864 35.122 -16.0835 
38.2838 32.2853 -16.0835 35.2377 33.1604 -16.0835 43.6889 32.2853 -13.8465 
-23.9212 40.7366 -12.9642 -15.4699 40.7366 -15.031 -7.01864 40.7366 -15.8412 
1.43262 40.7366 -15.3174 9.88388 40.7366 -13.894 18.3351 40.7366 -11.3731 
-40.8237 -37.6831 -7.63223 -32.3724 -39.6681 -7.63223 -23.9212 -41.0397 -7.63223 
-15.4699 -42.3266 -7.63223 -7.01864 -43.0046 -7.63223 1.43262 -43.2164 -7.63223 
9.88388 -42.4872 -7.63223 18.3351 -41.2497 -7.63223 26.7864 -40.1228 -7.63223 
35.2377 -38.4979 -7.63223 43.6889 -35.557 -7.63223 -45.5272 -35.3248 -7.63223 
-49.275 -33.3198 -7.63223 44.085 -35.3248 -7.63223 52.1402 -29.5698 -7.63223 
-57.294 -26.8735 -7.63223 -57.7262 -26.3323 -7.63223 -57.7262 -26.8735 -2.40842 
54.9749 -26.8735 -7.63223 60.5915 -19.5987 -7.63223 -62.6321 -18.4222 -7.63223 
61.3566 -18.4222 -7.63223 -65.244 -9.97097 -7.63223 64.9833 -9.97097 -7.63223 
-65.6845 -1.5197 -7.63223 66.8889 -1.5197 -7.63223 -63.3019 6.93156 -7.63223 
67.2797 6.93156 -7.63223 -58.8609 15.3828 -7.63223 -57.7262 17.3372 -7.63223 
64.9638 15.3828 -7.63223 60.5915 23.5061 -7.63223 -52.4708 23.8341 -7.63223 
-49.275 26.8194 -7.63223 60.3756 23.8341 -7.63223 52.1402 31.0848 -7.63223 
-43.1934 32.2853 -7.63223 -40.8237 34.1306 -7.63223 -32.3724 39.9514 -7.63223 
26.7864 40.3363 -7.63223 35.2377 38.2252 -7.63223 50.1238 32.2853 -7.63223 
43.6889 35.4161 -7.63223 -31.0128 40.7366 -7.63223 -32.3724 40.7366 -5.19673 
-23.9212 44.0892 -7.63223 -15.4699 46.1499 -7.63223 -7.01864 46.8366 -7.63223 
1.43262 46.508 -7.63223 9.88388 44.9815 -7.63223 25.3724 40.7366 -7.63223 
18.3351 42.7183 -7.63223 -40.8237 -38.0985 0.819032 -32.3724 -39.8801 0.819032 
-23.9212 -41.1072 0.819032 -15.4699 -42.2824 0.819032 -7.01864 -43.0234 0.819032 
1.43262 -43.4634 0.819032 9.88388 -43.063 0.819032 18.3351 -42.0053 0.819032 
26.7864 -40.7705 0.819032 35.2377 -39.0166 0.819032 43.6889 -36.2143 0.819032 
-57.7262 -27.1142 0.819032 -46.8224 -35.3248 0.819032 -49.275 -34.0953 0.819032 
45.1794 -35.3248 0.819032 43.6889 -35.3248 3.30984 52.1402 -30.6865 0.819032 
-57.9592 -26.8735 0.819032 -57.7262 -26.8735 1.48446 56.3344 -26.8735 0.819032 
60.5915 -21.9904 0.819032 -63.1878 -18.4222 0.819032 63.1477 -18.4222 0.819032 
60.5915 -18.4222 8.61155 -65.622 -9.97097 0.819032 66.5211 -9.97097 0.819032 
-65.9678 -1.5197 0.819032 68.3789 -1.5197 0.819032 -63.7907 6.93156 0.819032 
68.7184 6.93156 0.819032 -60.0377 15.3828 0.819032 -57.7262 19.2795 0.819032 
65.8213 15.3828 0.819032 60.5915 23.5559 0.819032 -54.6525 23.8341 0.819032 
-49.275 29.9282 0.819032 60.3474 23.8341 0.819032 52.1402 30.8825 0.819032 
-46.9017 32.2853 0.819032 -40.8237 37.4513 0.819032 26.7864 38.6351 0.819032 
26.7864 32.2853 9.25015 35.2377 36.6551 0.819032 35.2377 32.2853 6.89566 
48.7796 32.2853 0.819032 43.6889 34.2445 0.819032 43.6889 32.2853 4.08258 
-35.3876 40.7366 0.819032 -32.3724 42.3143 0.819032 -23.9212 45.1284 0.819032 
-15.4699 46.5512 0.819032 -7.01864 47.4614 0.819032 1.43262 46.7751 0.819032 
9.88388 45.3016 0.819032 21.8222 40.7366 0.819032 18.3351 42.2341 0.819032 
18.3351 40.7366 3.5694 -40.8237 -35.6723 9.2703 -32.3724 -38.0408 9.2703 
-23.9212 -39.4913 9.2703 -15.4699 -40.2415 9.2703 -7.01864 -40.6379 9.2703 
1.43262 -40.7413 9.2703 9.88388 -40.3079 9.2703 18.3351 -39.1947 9.2703 
26.7864 -37.8091 9.2703 35.2377 -35.9 9.2703 -41.6454 -35.3248 9.2703 
-49.275 -31.3295 9.2703 -40.8237 -35.3248 9.86265 -32.3724 -35.3248 14.4792 
-23.9212 -35.3248 17.3584 -15.4699 -35.3248 17.5208 -7.01864 -35.3248 16.8571 
1.43262 -35.3248 16.0425 9.88388 -35.3248 15.237 18.3351 -35.3248 14.1361 
26.7864 -35.3248 12.4618 36.9412 -35.3248 9.2703 35.2377 -35.3248 10.0642 
43.6889 -32.6038 9.2703 52.1402 -27.3712 9.2703 -54.3757 -26.8735 9.2703 
-57.7262 -22.4045 9.2703 -49.275 -26.8735 14.2625 43.6889 -26.8735 15.6186 
52.7173 -26.8735 9.2703 52.1402 -26.8735 9.87122 -59.9066 -18.4222 9.2703 
-57.7262 -18.4222 12.0761 60.2999 -18.4222 9.2703 52.1402 -18.4222 17.0801 
60.5915 -17.8727 9.2703 -62.6833 -9.97097 9.2703 -57.7262 -9.97097 15.879 
64.0584 -9.97097 9.2703 60.5915 -9.97097 13.6242 -63.1201 -1.5197 9.2703 
-57.7262 -1.5197 16.5906 65.7668 -1.5197 9.2703 60.5915 -1.5197 15.46 
-61.2569 6.93156 9.2703 -57.7262 6.93156 14.5859 65.9064 6.93156 9.2703 
60.5915 6.93156 15.1011 -58.1591 15.3828 9.2703 -57.7262 16.1206 9.2703 
-57.7262 15.3828 10.0048 52.1402 15.3828 16.7251 62.2705 15.3828 9.2703 
60.5915 17.8034 9.2703 60.5915 15.3828 11.1597 -53.1437 23.8341 9.2703 
-49.275 28.7537 9.2703 -49.275 23.8341 16.1987 9.88388 23.8341 17.7023 
18.3351 23.8341 15.7253 26.7864 32.2631 9.2703 26.7864 23.8341 15.5657 
35.2377 30.4845 9.2703 35.2377 23.8341 15.249 43.6889 28.9645 9.2703 
43.6889 23.8341 14.3711 54.3536 23.8341 9.2703 52.1402 25.6056 9.2703 
52.1402 23.8341 10.9052 -45.9767 32.2853 9.2703 -40.8237 36.8068 9.2703 
-40.8237 32.2853 16.2621 1.43262 32.2853 17.3143 9.88388 32.2853 14.9249 
26.7298 32.2853 9.2703 18.3351 35.8678 9.2703 18.3351 32.2853 11.6843 
-33.3771 40.7366 9.2703 -32.3724 41.1946 9.2703 -32.3724 40.7366 10.1794 
-23.9212 43.0391 9.2703 -23.9212 40.7366 12.9003 -15.4699 43.4329 9.2703 
-15.4699 40.7366 12.9974 -7.01864 43.2225 9.2703 -7.01864 40.7366 12.1568 
1.43262 42.629 9.2703 1.43262 40.7366 11.3342 10.0719 40.7366 9.2703 
9.88388 40.8136 9.2703 9.88388 40.7366 9.35433 -40.8237 -28.9221 17.7216 
-32.3724 -32.5718 17.7216 -23.9212 -34.9675 17.7216 -15.4699 -35.1073 17.7216 
-7.01864 -34.1378 17.7216 1.43262 -32.8473 17.7216 9.88388 -31.6357 17.7216 
[...]
POINT_DATA 502
SCALARS ImageScalars float
LOOKUP_TABLE default
0 0 0 0 0 0 0 0 0 
0 0 0 0 0 0 0 0 0 
0 0 0 0 0 0 0 0 0 
0 0 0 0 0 0 0 0 0 
0 0 0 0 0 0 0 0 0 
0 0 0 0 0 0 0 0 0 
0 0 0 0 0 0 0 0 0 
0 0 0 0 0 0 0 0 0 
0 0 0 0 0 0 0 0 0 
0 0 0 0 0 0 0 0 0 
0 0 0 0 0 0 0 0 0 
0 0 0 0 0 0 0 0 0 
0 0 0 0 0 0 0 0 0 
0 0 0 0 0 0 0 0 0 
0 0 0 0 0 0 0 0 0 
0 0 0 0 0 0 0 0 0 
0 0 0 0 0 0 0 0 0 
0 0 0 0 0 0 0 0 0 
0 0 0 0 0 0 0 0 0 
0 0 0 0 0 0 0 0 0 
0 0 0 0 0 0 0 0 0 
0 0 0 0 0 0 0 0 0 
0 0 0 0 0 0 0 0 0 
0 0 0 0 0 0 0 0 0 
0 0 0 0 0 0 0 0 0 
0 0 0 0 0 0 0 0 0 
0 0 0 0 0 0 0 0 0 
0 0 0 0 0 0 0 0 0 
0 0 0 0 0 0 0 0 0 
0 0 0 0 0 0 0 0 0 
0 0 0 0 0 0 0 0 0 
0 0 0 0 0 0 0 0 0 
0 0 0 0 0 0 0 0 0 
0 0 0 0 0 0 0 0 0 
0 0 0 0 0 0 0 0 0 
0 0 0 0 0 0 0 0 0 
0 0 0 0 0 0 0 0 0 
0 0 0 0 0 0 0 0 0 
0 0 0 0 0 0 0 0 0 
0 0 0 0 0 0 0 0 0 
0 0 0 0 0 0 0 0 0 
0 0 0 0 0 0 0 0 0 
0 0 0 0 0 0 0 0 0 
0 0 0 0 0 0 0 0 0 
0 0 0 0 0 0 0 0 0 
0 0 0 0 0 0 0 0 0 
0 0 0 0 0 0 0 0 0 
0 0 0 0 0 0 0 0 0 
0 0 0 0 0 0 0 0 0 
0 0 0 0 0 0 0 0 0 
0 0 0 0 0 0 0 0 0 
0 0 0 0 0 0 0 0 0 
0 0 0 0 0 0 0 0 0 
0 0 0 0 0 0 0 0 0 
0 0 0 0 0 0 0 0 0 
0 0 0 0 0 0 0 
NORMALS Normals float
0.212094 0.715177 0.665987 0.0773293 0.626931 0.775227 0.00041075 0.561257 0.827642 
-0.0160135 0.502227 0.864588 -0.0337732 0.51848 0.854423 -0.050322 0.573254 0.817831 
-0.0785171 0.59937 0.796612 0.44787 0.441829 0.777303 0.256455 0.37531 0.890715 
0.0913157 0.25923 0.961489 0.0239819 0.232872 0.972212 -0.0394604 0.202733 0.978439 
-0.0253351 0.213225 0.976674 0.00926751 0.267531 0.963505 -0.0344367 0.245302 0.968835 
-0.00497763 0.256159 0.966622 -0.042588 0.33403 0.9416 -0.145212 0.402883 0.903659 
-0.328466 0.518362 0.789564 0.32474 0.259562 0.90949 0.138977 0.122076 0.982743 
0.0488152 0.0406863 0.997979 0.0111471 -0.00194592 0.999936 -0.0312096 0.0401566 0.998706 
0.0319082 0.11713 0.992604 0.018838 0.0867344 0.996053 -0.0635755 0.125609 0.990041 
0.0135098 0.0591589 0.998157 0.036877 0.0780388 0.996268 -0.0618552 0.18088 0.981558 
-0.205624 0.224246 0.952592 -0.488445 0.34301 0.80235 0.504772 0.13333 0.852894 
0.272426 0.110243 0.95584 0.0333337 0.0327723 0.998907 -0.0363749 -0.0184366 0.999168 
0.0233958 -0.101895 0.99452 0.0821833 0.0377105 0.995904 0.0240031 0.0908259 0.995577 
0.0152515 -0.126313 0.991873 -0.0681696 0.153128 0.985852 -0.0371145 0.0132682 0.999223 
0.0912932 0.00557043 0.995808 0.00934326 0.0614517 0.998066 -0.155296 0.10346 0.982435 
-0.389393 0.143502 0.909824 0.531895 -0.0703922 0.84388 0.254068 -0.0533356 0.965715 
0.00471857 -0.0342569 0.999402 -0.0831287 -0.0189572 0.996359 0.0519089 -0.0301533 0.998196 
0.171663 -0.00389225 0.985148 -0.153121 -0.00629787 0.988187 0.115946 -0.140143 0.983319 
0.0524892 -0.0368501 0.997941 -0.130633 -0.0650517 0.989294 0.081155 -0.0415117 0.995837 
0.0319774 -0.0305597 0.999021 -0.116226 0.00208011 0.993221 -0.34838 0.0449441 0.936275 
0.300712 -0.202058 0.932065 0.0722525 -0.118567 0.990314 -0.0311234 -0.0541025 0.99805 
0.0286926 0.0079503 0.999557 0.109156 -0.125422 0.98608 -0.100404 -0.157045 0.982474 
-0.0315705 0.00531335 0.999487 -0.00689183 -0.283841 0.958847 -0.0226741 -0.104455 0.994271 
0.123907 -0.042113 0.9914 0.0516535 -0.0838702 0.995137 -0.0807908 -0.0906361 0.992602 
-0.315907 -0.096351 0.943885 -0.588822 -0.0903675 0.803195 0.404326 -0.369114 0.836825 
0.166945 -0.226823 0.959521 0.0395429 -0.132088 0.990449 0.00414635 -0.0573148 0.998348 
0.00243026 -0.0985181 0.995132 -0.0255775 -0.122729 0.992111 -0.0364607 -0.0129237 0.999252 
-0.0136393 -0.101807 0.994711 0.0961703 0.0272491 0.994992 0.0937043 -0.0441169 0.994622 
-0.0170359 -0.11576 0.993131 -0.131828 -0.143602 0.980816 -0.343338 -0.238635 0.90839 
0.326828 -0.423913 0.844678 0.148827 -0.261899 0.953551 0.0649304 -0.145967 0.987156 
0.0302408 -0.0817572 0.996193 -0.0024816 -0.0807299 0.996733 -0.0137619 -0.0668796 0.997666 
0.0374332 -0.0528943 0.997898 0.0455003 -0.0484427 0.997789 -0.021508 -0.179697 0.983487 
-0.0646544 -0.227121 0.971718 -0.21333 -0.331788 0.918916 -0.454034 -0.414891 0.788491 
0.197769 -0.308663 0.930384 0.069172 -0.257833 0.96371 -0.0126446 -0.238381 0.971089 
-0.00503956 -0.248526 0.968612 -0.000234962 -0.287646 0.957737 -0.0563677 -0.369188 0.927644 
-0.0993101 -0.486192 0.868191 -0.179403 -0.5937 0.784433 0.212568 0.720161 0.660441 
0.098753 0.711948 0.695254 0.0223138 0.666674 0.745016 -0.00660599 0.604396 0.796656 
-0.0429587 0.599645 0.799112 -0.0569417 0.622438 0.780595 -0.081313 0.627401 0.774439 
0.448029 0.4425 0.776829 0.216656 0.717177 0.662357 0.291075 0.596412 0.748043 
0.330724 0.814227 0.477133 -0.0945093 0.635591 0.766219 -0.106238 0.635745 0.764554 
-0.120186 0.698925 0.705025 -0.196733 0.626561 0.754133 -0.23376 0.7884 0.569018 
-0.350895 0.584284 0.731768 -0.425642 0.853979 0.299246 0.448304 0.442078 0.776911 
-0.400129 0.552921 0.730873 -0.520874 0.444934 0.728508 -0.595516 0.637155 0.489279 
0.51092 0.321985 0.797049 0.543241 0.232918 0.806622 0.651095 0.383978 0.654703 
-0.592025 0.35613 0.722965 -0.800744 0.44251 0.403726 0.564847 0.13972 0.813281 
-0.616178 0.210521 0.758951 -0.731251 0.254726 0.632761 0.596775 -0.0795368 0.798457 
0.555149 -0.237924 0.796996 -0.627304 0.101633 0.772114 -0.626007 0.0433518 0.778612 
-0.643929 0.105542 0.75777 0.533831 -0.282146 0.797131 0.578019 -0.298116 0.759619 
-0.605665 -0.0926198 0.790311 -0.603195 -0.134171 0.786228 0.460149 -0.389276 0.797952 
0.778025 -0.484171 0.400319 0.438502 -0.411026 0.799233 -0.534739 -0.281082 0.796898 
-0.708332 -0.341771 0.617623 0.364019 -0.452595 0.814032 0.575183 -0.614385 0.540088 
0.350021 -0.458577 0.816818 0.291231 -0.449066 0.844704 -0.289477 -0.595808 0.749143 
-0.465768 -0.423481 0.776997 -0.461692 -0.436735 0.772077 0.512544 -0.681279 0.522644 
0.28979 -0.441243 0.84931 0.329268 -0.500501 0.800676 0.247111 -0.465646 0.849771 
0.092572 -0.527526 0.84448 0.010603 -0.51581 0.856637 -0.0635467 -0.509948 0.857854 
-0.0795704 -0.535005 0.841093 -0.100723 -0.587648 0.802823 -0.138293 -0.623281 0.769672 
-0.230899 -0.632304 0.739512 -0.19427 -0.636941 0.746033 -0.339577 -0.749548 0.568212 
0.313995 -0.719005 0.620032 0.107706 -0.62548 0.77277 0.0124955 -0.542858 0.839732 
-0.0816449 -0.589466 0.803657 -0.140595 -0.717558 0.682161 -0.210869 -0.882648 0.42008 
0.337177 0.907834 0.249298 0.183229 0.958551 0.218191 0.153606 0.968177 0.197584 
0.114188 0.972131 0.204749 0.0527431 0.97167 0.230383 -0.0288769 0.965648 0.258242 
-0.113308 0.952293 0.283372 -0.135092 0.94844 0.286727 -0.154175 0.944755 0.289253 
-0.260619 0.926637 0.270965 -0.425769 0.861181 0.277646 0.427487 0.871096 0.241759 
0.511383 0.821612 0.251874 -0.434295 0.856993 0.277401 -0.626711 0.719182 0.300018 
0.716013 0.634972 0.290062 0.728952 0.618902 0.292556 0.747004 0.663477 0.0422394 
-0.68701 0.658166 0.307951 -0.806139 0.477143 0.349964 0.873183 0.390225 0.292022 
-0.816338 0.452928 0.358397 0.955866 0.157179 0.248224 -0.881688 0.300179 0.364032 
0.948775 -0.1037 0.29845 -0.912989 0.123528 0.388834 0.896692 -0.35265 0.267545 
-0.933302 -0.0960192 0.346016 0.815963 -0.486149 0.312832 0.792123 -0.518134 0.322611 
-0.877166 -0.338659 0.340425 -0.756609 -0.589426 0.283054 0.666987 -0.646914 0.369636 
0.629323 -0.669027 0.395417 -0.749481 -0.600306 0.279127 -0.531576 -0.819284 0.214941 
0.568723 -0.704955 0.423784 0.540695 -0.719931 0.435142 0.468936 -0.781061 0.412362 
-0.257084 -0.961674 0.0953493 -0.284192 -0.949272 0.134599 -0.486512 -0.853036 0.188777 
-0.37626 -0.914669 0.147679 0.452632 -0.800633 0.392571 0.457647 -0.8365 0.301375 
0.330723 -0.882005 0.335693 0.155898 -0.939007 0.30653 0.0214828 -0.955029 0.295732 
-0.113937 -0.945475 0.305115 -0.216016 -0.93153 0.292557 -0.25735 -0.960058 0.109812 
-0.262193 -0.942545 0.207036 0.318643 0.942113 -0.104359 0.170036 0.981203 -0.091262 
0.138438 0.986217 -0.0906193 0.113882 0.986078 -0.121167 0.0713385 0.988582 -0.132727 
0.00232168 0.991564 -0.129595 -0.0857712 0.990168 -0.110499 -0.133896 0.985563 -0.103623 
-0.17049 0.978032 -0.119948 -0.263223 0.954957 -0.137006 -0.43056 0.893373 -0.128468 
0.737631 0.666684 -0.106926 0.452477 0.888274 -0.0789534 0.511969 0.855597 -0.0764331 
-0.46173 0.877787 -0.127653 -0.430387 0.871492 -0.235095 -0.616236 0.780848 -0.102613 
0.742755 0.661165 -0.105716 0.737286 0.662585 -0.131872 -0.708637 0.700381 -0.0854336 
-0.81184 0.58074 -0.0604697 0.909635 0.391254 -0.139589 -0.867768 0.494684 -0.047614 
-0.764078 0.483761 -0.426802 0.977567 0.155307 -0.142279 -0.952162 0.302113 -0.0459936 
0.983085 -0.110095 -0.146366 -0.990916 0.121002 -0.0586852 0.940337 -0.322911 -0.107214 
-0.987769 -0.14482 -0.0577916 0.874706 -0.483434 -0.034361 0.843764 -0.535582 -0.0348602 
-0.918318 -0.373191 -0.13199 -0.723229 -0.65779 -0.210363 0.791932 -0.610594 0.00421701 
0.71861 -0.691669 0.072072 -0.712867 -0.667604 -0.214768 -0.454645 -0.85969 -0.232875 
0.684497 -0.723781 0.0872053 0.583798 -0.803883 0.113804 -0.271375 -0.887899 -0.371471 
-0.200183 -0.66054 -0.723612 -0.242415 -0.895707 -0.372752 -0.189031 -0.789875 -0.583408 
-0.374957 -0.885541 -0.27427 -0.291023 -0.899614 -0.325577 -0.247375 -0.860137 -0.446062 
0.462111 -0.883593 0.0756055 0.401397 -0.914391 0.0526228 0.23113 -0.971107 -0.0594119 
0.133973 -0.981378 -0.137655 0.0138767 -0.984194 -0.176548 -0.12393 -0.974489 -0.187118 
-0.250284 -0.947278 -0.200057 -0.346147 -0.884633 -0.31242 -0.387639 -0.879271 -0.276803 
-0.393549 -0.825978 -0.403585 0.321601 0.8628 -0.390063 0.204741 0.921324 -0.330521 
0.121392 0.945393 -0.302482 0.0651469 0.935622 -0.346939 0.0287148 0.907996 -0.417994 
-0.0169553 0.884489 -0.466253 -0.0821905 0.871625 -0.483233 -0.134312 0.86306 -0.486917 
-0.174528 0.847501 -0.50128 -0.251565 0.832672 -0.493328 0.339334 0.855774 -0.390517 
0.530521 0.729457 -0.431787 0.324258 0.85247 -0.410062 0.231659 0.807786 -0.542048 
0.0941437 0.723049 -0.684352 -0.0211229 0.68403 -0.729148 -0.0589971 0.659401 -0.749473 
-0.0673952 0.651665 -0.755507 -0.0813564 0.662988 -0.744196 -0.121525 0.689616 -0.713905 
-0.164247 0.751929 -0.638456 -0.281556 0.822512 -0.494166 -0.248859 0.815515 -0.522498 
-0.39843 0.7664 -0.503869 -0.548227 0.690533 -0.471816 0.631245 0.62424 -0.460276 
0.726099 0.494416 -0.477843 0.521096 0.561665 -0.642644 -0.331507 0.586764 -0.73879 
-0.560623 0.681045 -0.471041 -0.544248 0.675877 -0.496974 0.79487 0.365385 -0.484433 
0.71723 0.373413 -0.58834 -0.747692 0.479504 -0.459383 -0.450403 0.394077 -0.801149 
-0.756212 0.466457 -0.45887 0.861098 0.161702 -0.482039 0.686078 0.170444 -0.707281 
-0.844424 0.288539 -0.451324 -0.720161 0.272743 -0.637949 0.876752 -0.0756251 -0.47496 
0.689756 -0.0402743 -0.722921 -0.877769 0.0943493 -0.469702 -0.64704 0.0578794 -0.760256 
0.8702 -0.254862 -0.421661 0.765296 -0.213773 -0.607143 -0.846845 -0.184686 -0.498744 
-0.602395 -0.19553 -0.773879 0.844181 -0.411562 -0.343474 0.840355 -0.422205 -0.339921 
0.835461 -0.405846 -0.370531 -0.36933 -0.410662 -0.833638 -0.723222 -0.429147 -0.541094 
-0.658203 -0.506803 -0.556704 -0.657813 -0.43982 -0.611424 0.792599 -0.542963 -0.277447 
0.738745 -0.62846 -0.243503 0.687886 -0.459206 -0.562089 -0.23154 -0.266956 -0.93548 
-0.118856 -0.364259 -0.923682 -0.199691 -0.659825 -0.724399 -0.0254093 -0.507752 -0.861129 
-0.141435 -0.740746 -0.656728 -0.0585384 -0.573594 -0.817045 -0.203782 -0.748643 -0.630878 
-0.194266 -0.608957 -0.769047 -0.478511 -0.636742 -0.604638 -0.426417 -0.666447 -0.61157 
-0.425014 -0.620558 -0.658993 0.667331 -0.703876 -0.243367 0.553841 -0.795395 -0.246184 
0.483141 -0.654899 -0.581104 -0.169382 -0.399157 -0.901101 -0.290792 -0.404722 -0.866972 
-0.20075 -0.659354 -0.724536 -0.337117 -0.616004 -0.711963 -0.29129 -0.506677 -0.811436 
0.338993 -0.897066 -0.283471 0.31264 -0.904401 -0.29037 0.304297 -0.893834 -0.32934 
0.119543 -0.907349 -0.403023 0.0786278 -0.833135 -0.547452 0.0117318 -0.872818 -0.487904 
-0.0337623 -0.770155 -0.636963 -0.0405679 -0.800888 -0.597439 -0.0691275 -0.721408 -0.689052 
-0.118043 -0.783287 -0.61035 -0.122607 -0.721641 -0.681323 -0.2639 -0.716993 -0.645196 
-0.26141 -0.718437 -0.644603 -0.261265 -0.715909 -0.647469 0.329497 0.549203 -0.767989 
0.217984 0.643867 -0.733429 0.09127 0.697897 -0.710359 -0.0234306 0.669062 -0.742837 
-0.0696424 0.590623 -0.803936 -0.0721058 0.535088 -0.841713 -0.0869367 0.487864 -0.86858 
-0.10637 0.412593 -0.904683 -0.080586 0.425824 -0.90121 -0.118104 0.469325 -0.875092 
0.382511 0.496923 -0.778943 0.479125 0.38947 -0.786608 0.319509 0.476166 -0.819256 
0.176813 0.413684 -0.893086 0.0235281 0.331056 -0.943318 -0.0547684 0.287626 -0.956176 
-0.0792067 0.286332 -0.954851 -0.0666618 0.330486 -0.941454 -0.0927837 0.319595 -0.943 
-0.0978554 0.314771 -0.94411 -0.071577 0.386722 -0.919414 -0.125345 0.470486 -0.873459 
-0.116754 0.465743 -0.877184 -0.269833 0.451723 -0.850375 0.50692 0.331469 -0.795714 
0.468977 0.321364 -0.82267 0.24134 0.258243 -0.935449 0.0790571 0.149018 -0.985669 
-0.0201351 0.118007 -0.992809 -0.0809253 0.130207 -0.988179 -0.0436281 0.14096 -0.989053 
-0.0433524 0.118767 -0.991975 -0.111793 0.135683 -0.984425 -0.0621572 0.099036 -0.993141 
0.0199374 0.167385 -0.98569 -0.0589458 0.257958 -0.964356 -0.398294 0.369042 -0.839744 
-0.20559 0.289265 -0.934911 -0.428389 0.333424 -0.839828 0.589926 0.167758 -0.789838 
0.393633 0.14251 -0.908154 0.171812 0.0845933 -0.981491 0.0420399 0.0648145 -0.997011 
-0.00352135 0.0325656 -0.999463 -0.0347121 0.101717 -0.994208 -0.0883016 0.18196 -0.979333 
-0.0750357 -0.0303724 -0.996718 -0.122729 0.102898 -0.987091 -0.0594024 0.0563117 -0.996645 
0.0774831 0.0879862 -0.993104 0.00832316 0.0988823 -0.995064 -0.15158 0.154584 -0.976282 
-0.469236 0.198146 -0.860555 -0.366153 0.17418 -0.914108 0.631762 -0.0271365 -0.774688 
0.376256 0.010249 -0.926459 0.164335 0.00885113 -0.986365 0.0209832 -0.000920336 -0.999779 
0.0144095 -0.0696301 -0.997469 0.0759123 -0.147899 -0.986085 -0.193546 -0.0161958 -0.980957 
-0.11377 0.0447985 -0.992497 -0.0218687 0.070881 -0.997245 -0.0750518 0.0545298 -0.995688 
0.0642029 0.0201309 -0.997734 0.00835142 -0.00514063 -0.999952 -0.132821 0.00295409 -0.991136 
-0.492505 0.0352395 -0.869596 -0.351091 0.0194066 -0.93614 0.632666 -0.165218 -0.756596 
0.422567 -0.117061 -0.89874 0.164547 -0.0196585 -0.986173 -0.0376077 -0.0313912 -0.998799 
-0.142122 -0.0853785 -0.98616 -0.00401595 -0.21093 -0.977493 0.107618 -0.263886 -0.958531 
0.0198524 0.0222693 -0.999555 -0.112398 -0.171526 -0.978747 -0.110959 -0.156676 -0.981397 
0.0180073 -0.148507 -0.988747 -0.00913168 -0.155904 -0.98773 -0.126708 -0.175056 -0.976371 
-0.431798 -0.1932 -0.881036 -0.356458 -0.337234 -0.871327 -0.333631 -0.191632 -0.923021 
0.613744 -0.276007 -0.739688 0.633826 -0.382156 -0.672474 0.530269 -0.229312 -0.816229 
0.249964 -0.140117 -0.958063 -0.0465819 -0.0897293 -0.994876 -0.170335 -0.0228502 -0.985121 
-0.0953008 -0.0308217 -0.994971 0.0587904 -0.148301 -0.987193 -0.0559876 -0.221936 -0.973453 
-0.231311 -0.267551 -0.935367 -0.203947 -0.347007 -0.915419 -0.0583749 -0.345186 -0.936717 
-0.0382912 -0.341545 -0.939085 0.0319137 -0.415982 -0.908812 0.0686979 -0.344586 -0.936238 
-0.0318804 -0.456579 -0.889111 -0.0117625 -0.358246 -0.933553 -0.292946 -0.396321 -0.870122 
-0.173051 -0.4501 -0.87605 -0.169493 -0.37698 -0.910581 0.61959 -0.423336 -0.660981 
0.44187 -0.585837 -0.679371 0.298075 -0.316423 -0.900571 0.0688375 -0.221763 -0.972668 
-0.0995185 -0.133564 -0.986031 -0.129331 -0.105938 -0.985926 -0.0805579 -0.174136 -0.981421 
-0.230994 -0.266959 -0.935615 -0.169574 -0.376704 -0.91068 -0.160796 -0.277905 -0.947055 
0.379951 -0.609283 -0.695997 0.195919 -0.628799 -0.752481 0.167796 -0.50918 -0.844145 
0.00439545 -0.600662 -0.799491 -0.0293077 -0.4489 -0.893101 -0.0985601 -0.48288 -0.870122 
-0.119457 -0.367227 -0.922428 -0.148461 -0.399086 -0.904815 -0.118994 -0.430053 -0.894927 
-0.119542 -0.400743 -0.908358 
