# vtk DataFile Version 4.2
vtk output
ASCII
DATASET POLYDATA
POINTS 562 float
-15.0741 -36.6536 -15.1855 -7.37581 -36.6536 -16.6105 0.32252 -36.6536 -16.3766 
8.02084 -36.6536 -15.1743 -38.1691 -28.9553 -16.6757 -30.4708 -28.9553 -17.33 
-22.7725 -28.9553 -17.6617 -15.0741 -28.9553 -18.0952 -7.37581 -28.9553 -18.3733 
0.32252 -28.9553 -18.5643 8.02084 -28.9553 -17.4828 15.7192 -28.9553 -17.5092 
23.4175 -28.9553 -16.8524 31.1158 -28.9553 -15.6478 -45.8674 -21.257 -16.7188 
-38.1691 -21.257 -18.7976 -30.4708 -21.257 -18.8704 -22.7725 -21.257 -18.4077 
-15.0741 -21.257 -18.2154 -7.37581 -21.257 -18.375 0.32252 -21.257 -18.3018 
8.02084 -21.257 -17.9433 15.7192 -21.257 -18.602 23.4175 -21.257 -18.3695 
31.1158 -21.257 -18.3965 38.8141 -21.257 -17.6983 46.5125 -21.257 -14.8155 
-45.8674 -13.5587 -17.5634 -38.1691 -13.5587 -18.803 -30.4708 -13.5587 -18.8563 
-22.7725 -13.5587 -18.0041 -15.0741 -13.5587 -16.8354 -7.37581 -13.5587 -17.1909 
0.32252 -13.5587 -17.5318 8.02084 -13.5587 -17.2219 15.7192 -13.5587 -17.5112 
23.4175 -13.5587 -18.8167 31.1158 -13.5587 -19.3083 38.8141 -13.5587 -18.506 
46.5125 -13.5587 -17.2502 -53.5658 -5.86034 -15.4696 -45.8674 -5.86034 -19.0224 
-38.1691 -5.86034 -19.8023 -30.4708 -5.86034 -19.2542 -22.7725 -5.86034 -17.9183 
-15.0741 -5.86034 -17.2858 -7.37581 -5.86034 -19.2984 0.32252 -5.86034 -17.2133 
8.02084 -5.86034 -19.6209 15.7192 -5.86034 -16.2115 23.4175 -5.86034 -17.0416 
31.1158 -5.86034 -18.4595 38.8141 -5.86034 -19.0944 46.5125 -5.86034 -18.962 
54.2108 -5.86034 -16.7005 -53.5658 1.83798 -16.3346 -45.8674 1.83798 -19.2641 
-38.1691 1.83798 -20.6886 -30.4708 1.83798 -20.2101 -22.7725 1.83798 -19.115 
-15.0741 1.83798 -20.5095 -7.37581 1.83798 -21.5731 8.02084 1.83798 -21.2639 
15.7192 1.83798 -16.2083 23.4175 1.83798 -16.5715 31.1158 1.83798 -18.2472 
38.8141 1.83798 -19.0445 46.5125 1.83798 -18.9486 54.2108 1.83798 -16.8981 
-53.5658 9.53631 -15.8626 -45.8674 9.53631 -20.0987 -38.1691 9.53631 -20.9773 
-30.4708 9.53631 -20.6735 -22.7725 9.53631 -20.0165 -15.0741 9.53631 -19.6344 
-7.37581 9.53631 -19.9674 0.32252 9.53631 -18.8241 8.02084 9.53631 -18.58 
15.7192 9.53631 -15.7173 23.4175 9.53631 -17.1137 31.1158 9.53631 -17.9428 
38.8141 9.53631 -18.5964 46.5125 9.53631 -18.2048 54.2108 9.53631 -16.3843 
-45.8674 17.2346 -18.3674 -38.1691 17.2346 -20.25 -30.4708 17.2346 -20.2322 
-22.7725 17.2346 -19.9749 -15.0741 17.2346 -17.9933 -7.37581 17.2346 -16.6249 
0.32252 17.2346 -17.6709 8.02084 17.2346 -15.8779 15.7192 17.2346 -14.6941 
23.4175 17.2346 -15.769 31.1158 17.2346 -17.2206 38.8141 17.2346 -18.0827 
46.5125 17.2346 -16.4906 -45.8674 24.933 -16.1614 -38.1691 24.933 -18.8503 
-30.4708 24.933 -18.9072 -22.7725 24.933 -18.1554 -15.0741 24.933 -16.6074 
-7.37581 24.933 -14.7236 31.1158 24.933 -15.1316 38.8141 24.933 -15.6644 
-38.1691 32.6313 -14.7727 -30.4708 32.6313 -15.8572 -22.7725 32.6313 -14.8457 
-15.0741 -37.4632 -14.5813 -7.37581 -39.4032 -14.5813 0.32252 -39.3498 -14.5813 
0.32252 -44.352 -6.88375 8.02084 -37.422 -14.5813 -38.1691 -31.9286 -14.5813 
-38.1691 -36.6536 -7.85353 -30.4708 -33.9519 -14.5813 -30.4708 -36.6536 -11.1651 
-20.4857 -36.6536 -14.5813 -22.7725 -36.0887 -14.5813 -22.7725 -36.6536 -14.0335 
10.0403 -36.6536 -14.5813 15.7192 -33.8319 -14.5813 15.7192 -36.6536 -11.7255 
23.4175 -32.154 -14.5813 23.4175 -36.6536 -7.74047 31.1158 -30.1434 -14.5813 
-42.3811 -28.9553 -14.5813 -45.8674 -25.5682 -14.5813 -45.8674 -28.9553 -11.6767 
34.359 -28.9553 -14.5813 38.8141 -26.7977 -14.5813 38.8141 -28.9553 -12.3118 
46.5125 -21.6167 -14.5813 -49.1033 -21.257 -14.5813 -53.5658 -21.257 -9.34468 
46.9283 -21.257 -14.5813 -52.007 -13.5587 -14.5813 -53.5658 -10.0924 -14.5813 
-53.5658 -13.5587 -13.554 53.0659 -13.5587 -14.5813 54.2108 -12.2314 -14.5813 
54.2108 -13.5587 -13.9567 -54.906 -5.86034 -14.5813 0.32252 -0.210473 -14.5813 
57.4818 -5.86034 -14.5813 61.9091 -5.86034 -10.2606 -55.7797 1.83798 -14.5813 
-0.900806 1.83798 -14.5813 1.44678 1.83798 -14.5813 0.32252 3.25401 -14.5813 
0.32252 1.83798 -13.5264 57.8635 1.83798 -14.5813 61.9091 1.83798 -10.5151 
-55.294 9.53631 -14.5813 -53.5658 14.5089 -14.5813 57.2328 9.53631 -14.5813 
54.2108 15.196 -14.5813 61.9091 9.53631 -10.2733 -52.3118 17.2346 -14.5813 
-53.5658 17.2346 -13.4732 0.32252 24.859 -14.5813 8.02084 20.6251 -14.5813 
15.7192 17.6216 -14.5813 23.4175 23.2976 -14.5813 52.4997 17.2346 -14.5813 
46.5125 22.7991 -14.5813 54.2108 17.2346 -13.8952 -48.2951 24.933 -14.5813 
-53.5658 24.933 -8.55357 -45.8674 27.7999 -14.5813 -15.0741 29.0964 -14.5813 
-1.02133 24.933 -14.5813 -7.37581 25.2233 -14.5813 0.32252 24.933 -14.5494 
8.02084 24.933 -12.9826 15.7192 24.933 -12.3592 26.4081 24.933 -14.5813 
23.4175 24.933 -14.2174 31.1158 25.8357 -14.5813 43.5581 24.933 -14.5813 
38.8141 26.7392 -14.5813 46.5125 24.933 -13.7143 54.2108 24.933 -8.63284 
-38.6661 32.6313 -14.5813 -45.8674 32.6313 -9.8859 -38.1691 32.8729 -14.5813 
-30.4708 34.0224 -14.5813 -21.9085 32.6313 -14.5813 -22.7725 32.9764 -14.5813 
-15.0741 32.6313 -12.231 -7.37581 32.6313 -9.44227 0.32252 32.6313 -8.19066 
8.02084 32.6313 -7.43971 15.7192 32.6313 -7.08167 23.4175 32.6313 -8.43616 
31.1158 32.6313 -9.75951 38.8141 32.6313 -9.22443 0.32252 -44.3523 -6.88293 
-38.1691 -37.2215 -6.88293 -30.4708 -38.703 -6.88293 -22.7725 -39.8119 -6.88293 
-15.0741 -41.6091 -6.88293 0.319134 -44.352 -6.88293 -7.37581 -43.6047 -6.88293 
0.323883 -44.352 -6.88293 0.32252 -44.352 -6.87692 8.02084 -42.4677 -6.88293 
15.7192 -39.4314 -6.88293 23.4175 -37.0582 -6.88293 -39.1952 -36.6536 -6.88293 
-45.8674 -32.6363 -6.88293 24.9833 -36.6536 -6.88293 31.1158 -34.9856 -6.88293 
38.8141 -31.9834 -6.88293 -49.8239 -28.9553 -6.88293 -53.5658 -23.9193 -6.88293 
44.1187 -28.9553 -6.88293 46.5125 -27.4394 -6.88293 -55.2757 -21.257 -6.88293 
54.198 -21.257 -6.88293 54.2108 -21.2444 -6.88293 54.2108 -21.257 -6.77975 
-58.7932 -13.5587 -6.88293 60.5112 -13.5587 -6.88293 61.9091 -11.0105 -6.88293 
-60.1792 -5.86034 -6.88293 64.2805 -5.86034 -6.88293 -61.1833 1.83798 -6.88293 
-61.2641 1.83798 -5.63016 64.5653 1.83798 -6.88293 -60.2628 9.53631 -6.88293 
63.7943 9.53631 -6.88293 61.9091 14.9351 -6.88293 -58.0216 17.2346 -6.88293 
60.9584 17.2346 -6.88293 -54.6286 24.933 -6.88293 -53.5658 26.4794 -6.88293 
46.5125 31.7854 -6.88293 55.312 24.933 -6.88293 54.2108 26.2502 -6.88293 
-48.2575 32.6313 -6.88293 -45.8674 34.6036 -6.88293 -38.1691 39.0295 -6.88293 
-30.4708 39.3736 -6.88293 -22.7725 38.2847 -6.88293 -15.0741 36.9054 -6.88293 
-7.37581 34.5005 -6.88293 0.32252 33.5343 -6.88293 8.02084 33.0555 -6.88293 
15.7192 32.8063 -6.88293 23.4175 34.0248 -6.88293 31.1158 35.1959 -6.88293 
44.2171 32.6313 -6.88293 38.8141 34.5233 -6.88293 46.5125 32.6313 -4.80941 
-30.4708 40.3296 -2.28936 -38.1691 -36.8591 0.815398 -30.4708 -38.1811 0.815398 
-22.7725 -38.9084 0.815398 -15.0741 -40.7356 0.815398 -7.37581 -42.4926 0.815398 
0.32252 -43.9355 0.815398 8.02084 -42.9756 0.815398 15.7192 -40.5086 0.815398 
23.4175 -38.0199 0.815398 -38.5816 -36.6536 0.815398 -45.8674 -32.9029 0.815398 
-38.1691 -36.6536 1.33934 -30.4708 -36.6536 4.41499 -22.7725 -36.6536 5.74941 
-15.0741 -36.6536 8.32427 27.5979 -36.6536 0.815398 23.4175 -36.6536 6.68478 
31.1158 -35.4665 0.815398 38.8141 -32.2171 0.815398 -50.4651 -28.9553 0.815398 
-53.5658 -25.0941 0.815398 44.678 -28.9553 0.815398 46.5125 -27.9024 0.815398 
54.2108 -22.0866 0.815398 -56.0394 -21.257 0.815398 -53.5658 -21.257 6.83804 
55.2925 -21.257 0.815398 54.2108 -21.257 3.35941 -59.2751 -13.5587 0.815398 
61.6052 -13.5587 0.815398 61.9091 -12.978 0.815398 -60.802 -5.86034 0.815398 
-61.2641 -1.67437 0.815398 65.2431 -5.86034 0.815398 -61.6511 1.83798 0.815398 
-61.2641 4.99673 0.815398 -61.2641 1.83798 1.91365 65.5007 1.83798 0.815398 
-60.7079 9.53631 0.815398 64.4492 9.53631 0.815398 61.9091 16.7817 0.815398 
61.9091 9.53631 6.884 -58.553 17.2346 0.815398 61.7444 17.2346 0.815398 
-55.2918 24.933 0.815398 -53.5658 27.3737 0.815398 -53.5658 24.933 5.86016 
56.9206 24.933 0.815398 54.2108 28.5459 0.815398 54.2108 24.933 6.36795 
-49.3671 32.6313 0.815398 -45.8674 35.7161 0.815398 -38.1691 40.2516 0.815398 
-22.7725 40.0562 0.815398 -15.0741 38.8883 0.815398 -7.37581 36.8269 0.815398 
0.32252 35.9403 0.815398 8.02084 35.9266 0.815398 15.7192 36.5208 0.815398 
23.4175 37.8709 0.815398 31.1158 39.2549 0.815398 38.8141 37.5972 0.815398 
49.7982 32.6313 0.815398 46.5125 34.8063 0.815398 46.5125 32.6313 7.37831 
-37.3981 40.3296 0.815398 -25.1701 40.3296 0.815398 -30.4708 40.939 0.815398 
-30.4708 40.3296 4.04458 -7.37581 -38.2504 8.51372 0.32252 -40.0942 8.51372 
8.02084 -39.9185 8.51372 15.7192 -38.4423 8.51372 -45.8674 -29.5505 8.51372 
-38.1691 -33.5886 8.51372 -30.4708 -34.8007 8.51372 -22.7725 -35.3776 8.51372 
-14.608 -36.6536 8.51372 -15.0741 -36.5398 8.51372 -7.37581 -36.6536 10.1863 
0.32252 -36.6536 11.7566 8.02084 -36.6536 11.8684 21.8696 -36.6536 8.51372 
15.7192 -36.6536 10.7274 23.4175 -36.1767 8.51372 31.1158 -33.4903 8.51372 
38.8141 -29.9859 8.51372 -46.5787 -28.9553 8.51372 -45.8674 -28.9553 9.21351 
-38.1691 -28.9553 13.9503 -30.4708 -28.9553 15.6228 -22.7725 -28.9553 15.9284 
-15.0741 -28.9553 14.9445 -7.37581 -28.9553 14.8891 0.32252 -28.9553 15.2419 
8.02084 -28.9553 15.6632 15.7192 -28.9553 15.868 23.4175 -28.9553 15.585 
31.1158 -28.9553 14.2203 40.6939 -28.9553 8.51372 38.8141 -28.9553 10.062 
46.5125 -25.6948 8.51372 -52.6408 -21.257 8.51372 -53.5658 -19.5699 8.51372 
-45.8674 -21.257 15.3239 0.32252 -21.257 15.67 8.02084 -21.257 16.1014 
52.2248 -21.257 8.51372 46.5125 -21.257 14.3468 54.2108 -19.4127 8.51372 
-56.3163 -13.5587 8.51372 -53.5658 -13.5587 11.6805 0.32252 -13.5587 16.1196 
59.044 -13.5587 8.51372 54.2108 -13.5587 14.3292 61.9091 -7.01509 8.51372 
-57.9284 -5.86034 8.51372 -53.5658 -5.86034 13.572 62.423 -5.86034 8.51372 
61.9091 -5.86034 9.19475 -58.6893 1.83798 8.51372 -53.5658 1.83798 14.3236 
0.32252 1.83798 15.8892 62.8746 1.83798 8.51372 61.9091 6.07487 8.51372 
[...]
POINT_DATA 562
SCALARS ImageScalars float
LOOKUP_TABLE default
0 0 0 0 0 0 0 0 0 
0 0 0 0 0 0 0 0 0 
0 0 0 0 0 0 0 0 0 
0 0 0 0 0 0 0 0 0 
0 0 0 0 0 0 0 0 0 
0 0 0 0 0 0 0 0 0 
0 0 0 0 0 0 0 0 0 
0 0 0 0 0 0 0 0 0 
0 0 0 0 0 0 0 0 0 
0 0 0 0 0 0 0 0 0 
0 0 0 0 0 0 0 0 0 
0 0 0 0 0 0 0 0 0 
0 0 0 0 0 0 0 0 0 
0 0 0 0 0 0 0 0 0 
0 0 0 0 0 0 0 0 0 
0 0 0 0 0 0 0 0 0 
0 0 0 0 0 0 0 0 0 
0 0 0 0 0 0 0 0 0 
0 0 0 0 0 0 0 0 0 
0 0 0 0 0 0 0 0 0 
0 0 0 0 0 0 0 0 0 
0 0 0 0 0 0 0 0 0 
0 0 0 0 0 0 0 0 0 
0 0 0 0 0 0 0 0 0 
0 0 0 0 0 0 0 0 0 
0 0 0 0 0 0 0 0 0 
0 0 0 0 0 0 0 0 0 
0 0 0 0 0 0 0 0 0 
0 0 0 0 0 0 0 0 0 
0 0 0 0 0 0 0 0 0 
0 0 0 0 0 0 0 0 0 
0 0 0 0 0 0 0 0 0 
0 0 0 0 0 0 0 0 0 
0 0 0 0 0 0 0 0 0 
0 0 0 0 0 0 0 0 0 
0 0 0 0 0 0 0 0 0 
0 0 0 0 0 0 0 0 0 
0 0 0 0 0 0 0 0 0 
0 0 0 0 0 0 0 0 0 
0 0 0 0 0 0 0 0 0 
0 0 0 0 0 0 0 0 0 
0 0 0 0 0 0 0 0 0 
0 0 0 0 0 0 0 0 0 
0 0 0 0 0 0 0 0 0 
0 0 0 0 0 0 0 0 0 
0 0 0 0 0 0 0 0 0 
0 0 0 0 0 0 0 0 0 
0 0 0 0 0 0 0 0 0 
0 0 0 0 0 0 0 0 0 
0 0 0 0 0 0 0 0 0 
0 0 0 0 0 0 0 0 0 
0 0 0 0 0 0 0 0 0 
0 0 0 0 0 0 0 0 0 
0 0 0 0 0 0 0 0 0 
0 0 0 0 0 0 0 0 0 
0 0 0 0 0 0 0 0 0 
0 0 0 0 0 0 0 0 0 
0 0 0 0 0 0 0 0 0 
0 0 0 0 0 0 0 0 0 
0 0 0 0 0 0 0 0 0 
0 0 0 0 0 0 0 0 0 
0 0 0 0 0 0 0 0 0 
0 0 0 0 
NORMALS Normals float
-0.149299 -0.581167 -0.799972 -0.074945 -0.46334 -0.883006 0.090242 -0.441268 -0.892826 
0.210959 -0.516566 -0.829853 -0.253217 -0.433647 -0.864772 -0.0610416 -0.343405 -0.937202 
-0.0531418 -0.229751 -0.971797 -0.043295 -0.173659 -0.983854 -0.0316488 -0.111733 -0.993234 
0.0576591 -0.111441 -0.992097 0.0677436 -0.16722 -0.983589 0.0387202 -0.332583 -0.942279 
0.103081 -0.419679 -0.9018 0.226107 -0.569398 -0.790355 -0.402579 -0.247786 -0.881211 
-0.143961 -0.137869 -0.979932 0.0259598 -0.102073 -0.994438 0.0418033 -0.0218756 -0.998886 
0.00220563 0.076364 -0.997078 -0.00499855 0.0771517 -0.997007 0.028606 0.0679449 -0.997279 
-0.0197051 0.0176629 -0.99965 -0.0283807 0.00309242 -0.999592 0.0131804 -0.120578 -0.992616 
0.0408783 -0.192218 -0.9805 0.216643 -0.294828 -0.930668 0.434291 -0.450138 -0.780235 
-0.267693 -0.147286 -0.95218 -0.0760784 -0.0646674 -0.995003 0.0462609 -0.0241158 -0.998638 
0.129843 0.0331415 -0.990981 0.0472946 0.0603124 -0.997059 -0.0442555 -0.0327532 -0.998483 
-0.0020074 0.066377 -0.997793 0.00273035 -0.080812 -0.996726 -0.107042 0.150271 -0.982833 
-0.108859 0.0872678 -0.990219 0.020486 -0.0015134 -0.999789 0.120397 -0.0850642 -0.989075 
0.24034 -0.248529 -0.938334 -0.521256 -0.140216 -0.841803 -0.266566 -0.101876 -0.958417 
-0.0104647 -0.121664 -0.992516 0.121565 -0.0881609 -0.98866 0.119103 -0.0665727 -0.990647 
-0.0705369 -0.225038 -0.971793 0.0157511 -0.265864 -0.963882 -0.0228112 0.212535 -0.976887 
0.0633984 -0.264528 -0.962292 0.137903 0.0852535 -0.98677 -0.140396 0.145762 -0.979307 
-0.131399 0.0611845 -0.98944 -0.0330479 -0.0341375 -0.998871 0.161158 -0.108195 -0.98098 
0.420186 -0.141967 -0.896264 -0.542445 -0.0243403 -0.839739 -0.263494 -0.0594633 -0.962827 
-0.0662154 -0.0757858 -0.994923 0.0950211 -0.0897844 -0.991418 -0.00479827 -0.141819 -0.989881 
-0.147084 -0.138277 -0.979411 0.330822 -0.0262937 -0.943327 -0.151109 0.0513613 -0.987182 
0.279086 0.0356018 -0.959606 -0.123708 -0.00464435 -0.992308 -0.158622 0.0330857 -0.986785 
-0.0454533 0.0321429 -0.998449 0.146686 0.0478561 -0.988025 0.408625 0.0133463 -0.912605 
-0.573081 0.12678 -0.809633 -0.303384 0.0410042 -0.951986 -0.0308944 0.0277922 -0.999136 
0.0616022 -0.00163061 -0.998099 0.065993 -0.0508751 -0.996522 0.00529803 0.157548 -0.987497 
0.0489078 0.289778 -0.955844 0.0864115 -0.169338 -0.981762 0.205727 0.320532 -0.924627 
0.0537076 0.0896648 -0.994523 -0.139985 0.0524353 -0.988764 -0.0968937 0.0662317 -0.993089 
-0.0182017 0.0604222 -0.998007 0.122891 0.156255 -0.980042 0.383298 0.170509 -0.90775 
-0.335383 0.240424 -0.910886 -0.107429 0.126911 -0.986079 0.0173562 0.109639 -0.99382 
0.141889 0.119405 -0.982654 0.210757 0.188724 -0.959148 0.0221371 0.308271 -0.951041 
0.0357779 0.265459 -0.963458 0.19752 0.325333 -0.92474 -0.0024999 0.202308 -0.979319 
-0.158834 0.18474 -0.969867 -0.145536 0.169363 -0.974749 0.0426863 0.19506 -0.979862 
0.228246 0.264886 -0.936877 -0.433659 0.359357 -0.826319 -0.163088 0.319993 -0.933277 
0.0452801 0.253543 -0.966264 0.142159 0.283953 -0.948241 0.212049 0.310651 -0.92657 
0.129598 0.347878 -0.928539 -0.0946625 0.411215 -0.90661 0.0782802 0.433833 -0.897586 
-0.228864 0.586444 -0.776984 -0.00979569 0.577203 -0.816542 0.195792 0.568266 -0.799211 
-0.163376 -0.62887 -0.760152 -0.0908371 -0.638425 -0.764305 0.0974725 -0.594578 -0.798108 
0.0692152 -0.98376 -0.165604 0.223155 -0.559188 -0.798443 -0.305099 -0.584316 -0.75199 
-0.348183 -0.891321 -0.29037 -0.15506 -0.609887 -0.77717 -0.196794 -0.859422 -0.471875 
-0.154713 -0.670113 -0.725956 -0.147178 -0.670347 -0.727306 -0.157347 -0.730804 -0.664204 
0.220023 -0.569093 -0.79229 0.171568 -0.575415 -0.799664 0.276954 -0.770758 -0.573784 
0.159558 -0.608182 -0.777596 0.255218 -0.914822 -0.312992 0.24512 -0.631442 -0.735661 
-0.411632 -0.518025 -0.749806 -0.473744 -0.4318 -0.767538 -0.557172 -0.624555 -0.547258 
0.286159 -0.62572 -0.725663 0.319778 -0.579533 -0.749589 0.377416 -0.732611 -0.566425 
0.440094 -0.467273 -0.766794 -0.546239 -0.291433 -0.785296 -0.794753 -0.414845 -0.443025 
0.444368 -0.459217 -0.769192 -0.525578 -0.250616 -0.812994 -0.55522 -0.22432 -0.800882 
-0.620124 -0.294234 -0.727236 0.463888 -0.37913 -0.800668 0.488165 -0.360862 -0.794653 
0.515658 -0.414103 -0.750077 -0.581126 -0.14192 -0.801344 -0.0386989 -0.00455723 -0.999241 
0.550331 -0.16184 -0.819112 0.807678 -0.19086 -0.557879 -0.64684 -0.0138285 -0.7625 
0.047569 -0.129153 -0.990483 -0.0615408 -0.0983899 -0.993243 -0.00334122 -0.161685 -0.986837 
-0.0410867 -0.134888 -0.990009 0.566156 0.00334767 -0.824291 0.81091 -0.00311212 -0.585163 
-0.642881 0.141854 -0.752716 -0.630285 0.25449 -0.733468 0.513744 0.180262 -0.838792 
0.444842 0.260749 -0.856811 0.834587 0.18634 -0.518404 -0.612989 0.300642 -0.730657 
-0.690083 0.32382 -0.647245 0.098867 0.442686 -0.891209 0.167171 0.347862 -0.922522 
-0.00682443 0.210475 -0.977575 -0.162745 0.308689 -0.937137 0.411107 0.27855 -0.867987 
0.242933 0.368417 -0.897359 0.485129 0.303799 -0.819973 -0.529604 0.396862 -0.74968 
-0.786646 0.484327 -0.382905 -0.468456 0.479788 -0.741858 0.228124 0.463801 -0.856065 
0.104589 0.428253 -0.897586 0.131287 0.358937 -0.924082 0.0993413 0.445095 -0.889956 
0.130037 0.414714 -0.900612 -0.0689393 0.403816 -0.912239 -0.137661 0.371571 -0.918142 
-0.162992 0.351311 -0.921962 -0.0883731 0.439809 -0.893733 0.177623 0.42437 -0.887897 
0.068693 0.5023 -0.861961 0.263911 0.43917 -0.858767 0.669914 0.600128 -0.437106 
-0.246837 0.593248 -0.766243 -0.544414 0.705624 -0.453551 -0.230239 0.595505 -0.769652 
-0.0109481 0.646394 -0.762926 0.199932 0.573727 -0.79427 0.19397 0.582965 -0.789004 
0.238774 0.65454 -0.717331 0.189485 0.772766 -0.605745 0.0895644 0.837657 -0.538803 
0.0514806 0.811682 -0.581827 -0.0468259 0.771127 -0.634957 -0.137656 0.736494 -0.66229 
-0.0370496 0.708268 -0.704971 0.148688 0.764489 -0.627255 0.0692123 -0.983768 -0.165558 
-0.348271 -0.907619 -0.234382 -0.153583 -0.971134 -0.182514 -0.178728 -0.974854 -0.133104 
-0.247353 -0.95843 -0.142227 0.0691112 -0.983778 -0.165541 -0.173317 -0.976033 -0.131609 
0.069252 -0.983764 -0.16557 0.0691424 -0.983821 -0.165273 0.302261 -0.916747 -0.261177 
0.325206 -0.89683 -0.299894 0.259183 -0.926426 -0.273056 -0.376544 -0.896569 -0.233194 
-0.575434 -0.777259 -0.25445 0.269231 -0.925238 -0.267301 0.315187 -0.913259 -0.2581 
0.416915 -0.876843 -0.239431 -0.69786 -0.665097 -0.265776 -0.807523 -0.511399 -0.293901 
0.502794 -0.830856 -0.238488 0.546897 -0.797763 -0.253926 -0.838602 -0.445533 -0.313445 
0.636058 -0.713025 -0.294999 0.63628 -0.712762 -0.29516 0.636738 -0.714485 -0.289959 
-0.914629 -0.288447 -0.283289 0.826602 -0.459372 -0.325125 0.86593 -0.37225 -0.334059 
-0.954153 -0.141968 -0.263509 0.903038 -0.226865 -0.364767 -0.953789 -0.00532918 -0.300431 
-0.973398 -0.00351113 -0.229095 0.922841 0.0311216 -0.383922 -0.94949 0.18428 -0.253989 
0.92952 0.216939 -0.298212 0.883982 0.353731 -0.305697 -0.905031 0.326576 -0.272518 
0.846176 0.421785 -0.325706 -0.818271 0.490212 -0.300209 -0.797996 0.523168 -0.299162 
0.376733 0.804008 -0.460048 0.712706 0.62202 -0.324254 0.683452 0.650805 -0.330676 
-0.636858 0.705149 -0.311731 -0.555235 0.767863 -0.319533 -0.251393 0.901795 -0.351523 
0.0472222 0.928047 -0.369458 0.151283 0.928855 -0.338143 0.231905 0.873235 -0.42858 
0.201953 0.860303 -0.468074 0.0861584 0.87575 -0.475014 0.0448981 0.831118 -0.55428 
-0.0483633 0.778878 -0.625308 -0.138601 0.78672 -0.60155 -0.0226875 0.803307 -0.595133 
0.316513 0.816666 -0.482572 0.173434 0.827038 -0.534723 0.412023 0.84972 -0.328957 
0.0303343 0.988664 -0.147048 -0.310602 -0.929018 0.201125 -0.123583 -0.965513 0.229156 
-0.141541 -0.954389 0.262884 -0.226981 -0.931632 0.2838 -0.193969 -0.931013 0.309179 
-0.0280959 -0.973481 0.227036 0.215478 -0.967205 0.134472 0.305779 -0.950484 0.0554973 
0.307538 -0.950329 0.0479076 -0.322972 -0.925009 0.200119 -0.555368 -0.815786 0.161431 
-0.310257 -0.924448 0.221669 -0.109133 -0.92821 0.355691 -0.107945 -0.909625 0.401162 
-0.167134 -0.798962 0.57769 0.332998 -0.940338 0.0698324 0.295668 -0.904665 0.306859 
0.354435 -0.931095 0.0862418 0.434385 -0.894732 0.103746 -0.694604 -0.705254 0.141921 
-0.810121 -0.571022 0.13281 0.495979 -0.863059 0.0955719 0.519857 -0.849648 0.0885817 
0.633488 -0.769592 0.0801286 -0.881595 -0.457021 0.117995 -0.76451 -0.470518 0.440609 
0.650654 -0.755116 0.0803125 0.631884 -0.753466 0.181691 -0.943452 -0.30237 0.135908 
0.88415 -0.460788 0.0771541 0.894291 -0.440154 0.0806738 -0.981191 -0.145054 0.12737 
-0.988682 -0.062234 0.136508 0.96946 -0.229449 0.0866008 -0.989919 0.0061568 0.141498 
-0.986986 0.0813901 0.138689 -0.981261 0.00512576 0.192615 0.995401 0.046967 0.0834928 
-0.973311 0.189087 0.130049 0.962102 0.238854 0.131564 0.904915 0.397513 0.152025 
0.871812 0.266707 0.410867 -0.936556 0.326071 0.12861 0.900363 0.408119 0.150949 
-0.856596 0.505797 0.102043 -0.825953 0.552499 0.112008 -0.795082 0.494285 0.351465 
0.797658 0.59673 0.0874915 0.746419 0.660683 0.0797365 0.688572 0.572961 0.444503 
-0.710403 0.697522 0.0937579 -0.590329 0.803869 0.0728423 -0.297393 0.953276 0.0531328 
0.121985 0.990966 -0.0557343 0.216788 0.97219 -0.0885987 0.172266 0.971339 -0.163781 
0.0573858 0.982981 -0.174515 -0.036264 0.979044 -0.200395 -0.121145 0.965715 -0.229605 
-0.168854 0.965802 -0.196761 0.0219406 0.981728 -0.189019 0.244794 0.964446 -0.0996024 
0.581284 0.813646 0.009388 0.470741 0.882088 -0.0179612 0.559084 0.717207 0.41598 
-0.267004 0.962519 0.047605 0.0872584 0.995413 -0.0392405 0.0114354 0.999929 -0.00347943 
-0.0156379 0.989266 0.145289 -0.187903 -0.748589 0.635851 -0.092154 -0.756244 0.647768 
0.101498 -0.80343 0.586684 0.217211 -0.848909 0.481842 -0.533551 -0.672626 0.512735 
-0.286143 -0.801845 0.524563 -0.0993773 -0.852457 0.513265 -0.0876412 -0.863481 0.496709 
-0.166442 -0.791101 0.588605 -0.163324 -0.793082 0.58681 -0.169007 -0.687246 0.706491 
-0.0897014 -0.594295 0.799229 0.0515736 -0.643745 0.7635 0.272582 -0.870135 0.410566 
0.173553 -0.776166 0.606174 0.283359 -0.87176 0.399677 0.338213 -0.84682 0.410497 
0.427456 -0.810755 0.399948 -0.55486 -0.654126 0.514052 -0.533931 -0.652558 0.537667 
-0.291016 -0.614922 0.732926 -0.0922366 -0.590374 0.801843 0.0420544 -0.508761 0.85988 
0.0540003 -0.484504 0.873121 -0.0184562 -0.326628 0.944973 -0.0466377 -0.214828 0.975538 
-0.0401555 -0.240635 0.969785 0.00372552 -0.353874 0.935286 0.081549 -0.44624 0.89119 
0.230659 -0.634307 0.737869 0.44348 -0.803368 0.397398 0.413355 -0.780199 0.469497 
0.502803 -0.768163 0.396377 -0.710284 -0.458998 0.533683 -0.732626 -0.424328 0.53217 
-0.484657 -0.358292 0.797957 0.00702126 -0.0546984 0.998478 -0.116631 -0.0560502 0.991592 
0.585906 -0.703339 0.402528 0.439917 -0.601483 0.666852 0.626694 -0.660527 0.413472 
-0.811617 -0.277948 0.513831 -0.696353 -0.285091 0.658647 -0.000184922 -0.0845418 0.99642 
0.774169 -0.452289 0.442829 0.579597 -0.446781 0.681509 0.844367 -0.232658 0.482612 
-0.851246 -0.136167 0.506793 -0.616122 -0.129822 0.776878 0.84728 -0.204315 0.490278 
0.836383 -0.197355 0.511385 -0.844203 -0.00241505 0.536018 -0.600466 -0.00185357 0.799648 
-0.0590519 -0.153907 0.986319 0.851337 0.0702523 0.519893 0.844328 0.18082 0.504395 
0.823614 0.0638245 0.563548 -0.856781 0.170226 0.486775 -0.622186 0.153645 0.767644 
0.823183 0.265469 0.501892 0.463051 0.2505 0.850196 -0.810269 0.296224 0.505683 
-0.760344 0.420745 0.494824 -0.726842 0.29514 0.620155 0.757353 0.364414 0.541866 
0.629396 0.516824 0.580305 0.567706 0.380007 0.730277 -0.735229 0.468161 0.490166 
-0.491559 0.339649 0.801878 0.613111 0.532257 0.583779 0.561111 0.660466 0.498938 
0.50112 0.396252 0.769326 -0.612179 0.64878 0.452019 -0.593443 0.667481 0.449772 
-0.594429 0.64573 0.479256 -0.33875 0.831001 0.441233 -0.349084 0.54854 0.759766 
-0.0675166 0.925337 0.373086 0.0626965 0.959455 0.2748 0.121112 0.959797 0.253223 
0.129842 0.9699 0.205999 0.0832705 0.586671 0.805533 0.0526614 0.976306 0.209887 
0.049029 0.683341 0.728451 -0.0328758 0.977194 0.209786 -0.0438922 0.696429 0.716282 
-0.0916921 0.97502 0.202306 -0.0802155 0.640614 0.763662 -0.0936557 0.967297 0.235724 
0.0881982 0.935699 0.341596 0.152835 0.576317 0.802807 0.543887 0.685591 0.483892 
0.322205 0.870348 0.372396 0.327497 0.623749 0.709706 -0.25315 -0.42227 0.870404 
-0.0853445 -0.534923 0.840579 0.0468661 -0.47629 0.878038 0.105908 -0.362603 0.925906 
0.148548 -0.105493 0.983262 -0.023854 -0.300437 0.953503 0.0425279 -0.374349 0.926312 
0.127511 -0.479693 0.868122 0.243022 -0.53019 0.812305 -0.399869 -0.327102 0.856218 
-0.429899 -0.234645 0.871853 -0.214047 -0.263758 0.94054 -0.0596544 -0.244947 0.967699 
0.0646624 -0.199289 0.977805 0.16203 -0.184069 0.969466 0.148543 -0.105483 0.983264 
0.148553 -0.105487 0.983262 -0.117566 -0.0600271 0.991249 -0.112421 -0.0853237 0.989991 
-0.129372 -0.110298 0.985443 -0.0536285 -0.213875 0.975388 0.0343422 -0.337159 0.940821 
0.31357 -0.524163 0.791787 0.205196 -0.464874 0.86127 0.388355 -0.498815 0.774832 
-0.418414 -0.154305 0.895053 -0.384267 -0.141155 0.912367 -0.177678 -0.110434 0.977873 
-0.0167114 -0.0350841 0.999245 0.112424 -0.0118184 0.99359 0.170135 0.0365508 0.984743 
0.0262689 -0.0741275 0.996903 0.123893 -0.0318535 0.991784 -0.0203987 -0.105643 0.994195 
-0.0164425 -0.0752564 0.997029 -0.0976678 -0.18372 0.978115 -0.167988 -0.0213491 0.985558 
-0.154618 -0.110194 0.98181 -0.063031 -0.164547 0.984353 0.0781483 -0.259494 0.962578 
0.477265 -0.399881 0.782504 0.323251 -0.333237 0.885699 0.548081 -0.293193 0.783355 
-0.433042 -0.101992 0.895585 -0.349419 -0.0926054 0.932379 -0.102795 -0.0453292 0.993669 
0.0408719 0.0181242 0.999 0.140182 0.0478767 0.988967 0.142185 0.0560874 0.98825 
0.0245757 -0.131565 0.991003 -0.0871048 -0.103903 0.990766 -0.161694 0.00552838 0.986825 
-0.0356915 -0.17654 0.983646 -0.0573959 0.000605214 0.998351 -0.20712 -0.0106408 0.978258 
-0.124401 -0.0436906 0.99127 0.0514008 -0.0691148 0.996284 0.240745 -0.0606787 0.96869 
0.596978 -0.142828 0.789441 0.516575 -0.131425 0.846096 -0.46201 -0.00299255 0.88687 
-0.329321 -0.00700379 0.944192 -0.0694038 0.00712452 0.997563 0.0745897 0.00521072 0.997201 
0.15371 0.0137977 0.98802 -0.00637387 -0.0182835 0.999813 -0.0405837 -0.143919 0.988757 
0.0555757 -0.0936831 0.99405 -0.0633878 -0.140275 0.988081 -0.0612693 -0.155174 0.985985 
-0.0783346 -0.0366454 0.996253 0.00246139 -0.0517687 0.998656 -0.20874 0.0434437 0.977006 
-0.122409 0.0780582 0.989405 0.0598709 0.121588 0.990773 0.252191 0.110586 0.961338 
0.548668 0.125477 0.82657 0.46825 0.203762 0.859781 0.490121 0.145048 0.859501 
-0.424417 0.119589 0.897535 -0.333996 0.106718 0.936514 -0.0910607 0.0444862 0.994851 
0.047408 -0.0033621 0.99887 0.117786 -0.101616 0.987826 0.0395548 -0.121047 0.991858 
-0.0844083 0.00413318 0.996423 -0.0900247 -0.159205 0.983132 0.0225913 -0.00647971 0.999724 
0.0240728 -0.129558 0.99128 -0.0801467 -0.0370943 0.996093 -0.0478518 0.0555543 0.997308 
0.0816263 0.183414 0.979641 0.392859 0.246526 0.885938 0.283122 0.214209 0.934856 
-0.423239 0.17933 0.888093 -0.420256 0.200784 0.884913 -0.40655 0.175356 0.896642 
-0.179205 0.0902117 0.979667 -0.0709878 0.0239369 0.99719 0.0344547 -0.0379188 0.998687 
0.100856 -0.112253 0.988548 0.0104828 -0.0271696 0.999576 -0.0591304 0.0356597 0.997613 
-0.0497002 0.0629216 0.99678 -0.0320672 -0.0389224 0.998728 -0.0221616 0.000468472 0.999754 
0.0882878 0.0801431 0.992866 0.221171 0.142587 0.964755 0.346051 0.255758 0.902683 
0.35282 0.263332 0.897872 0.329007 0.24785 0.911221 -0.380385 0.289863 0.878229 
-0.307431 0.403029 0.862006 -0.264233 0.251003 0.931224 -0.0808325 0.157509 0.984204 
-0.018003 0.178245 0.983822 0.0477593 0.126657 0.990796 0.0799169 0.551572 0.83029 
0.0624104 0.144159 0.987584 0.0372121 0.521487 0.852447 -0.000599023 0.200541 0.979685 
-0.0438932 0.525707 0.849532 -0.0500651 0.241311 0.969155 -0.0787077 0.624571 0.776992 
-0.0373504 0.20404 0.97825 0.0450639 0.200143 0.97873 0.147179 0.495468 0.856067 
0.0933397 0.248391 0.964152 0.346476 0.307497 0.886228 0.278271 0.372452 0.88535 
0.262232 0.270365 0.926357 -0.2025 0.517209 0.831558 -0.134571 0.551648 0.82315 
-0.132611 0.513275 0.847917 0.0046786 0.547549 0.83676 0.00557635 0.470223 0.88253 
0.077622 0.567938 0.819403 0.0714653 0.579503 0.811831 0.0661752 0.538951 0.839734 
-0.059429 0.622562 0.78031 0.0778759 0.561603 0.823734 0.0233996 0.5891 0.807721 
0.0258192 0.563688 0.825584 
