# vtk DataFile Version 4.2
vtk output
ASCII
DATASET POLYDATA
POINTS 578 float
-9.75005 -1.23971 -20.248 -18.0572 -42.7755 -13.015 -9.75005 -42.7755 -13.261 
-1.44289 -42.7755 -12.8179 -42.9787 -34.4683 -13.1687 -34.6715 -34.4683 -14.6497 
-26.3644 -34.4683 -15.2397 -18.0572 -34.4683 -16.1673 -9.75005 -34.4683 -15.6057 
-1.44289 -34.4683 -15.0311 6.86426 -34.4683 -13.9558 15.1714 -34.4683 -11.8001 
-51.2858 -26.1612 -11.9091 -42.9787 -26.1612 -15.7957 -34.6715 -26.1612 -15.9483 
-26.3644 -26.1612 -16.1359 -18.0572 -26.1612 -16.3255 -9.75005 -26.1612 -15.7009 
-1.44289 -26.1612 -14.9044 6.86426 -26.1612 -14.3335 15.1714 -26.1612 -13.2219 
23.4786 -26.1612 -12.3363 31.7857 -26.1612 -12.3214 -59.593 -17.854 -13.6495 
-51.2858 -17.854 -16.1832 -42.9787 -17.854 -16.28 -34.6715 -17.854 -17.1934 
-26.3644 -17.854 -15.8619 -18.0572 -17.854 -15.1472 -9.75005 -17.854 -14.5775 
-1.44289 -17.854 -14.5523 6.86426 -17.854 -14.1438 15.1714 -17.854 -13.7484 
23.4786 -17.854 -14.9767 31.7857 -17.854 -15.6519 40.0929 -17.854 -15.6337 
48.4 -17.854 -14.496 56.7072 -17.854 -12.6249 -67.9001 -9.54686 -11.8315 
-59.593 -9.54686 -15.0386 -51.2858 -9.54686 -16.864 -42.9787 -9.54686 -17.5266 
-34.6715 -9.54686 -16.8164 -26.3644 -9.54686 -15.321 -18.0572 -9.54686 -13.8323 
-9.75005 -1.86493 -19.9283 -9.75005 -9.54686 -14.1073 -1.44289 -9.54686 -16.9099 
6.86426 -9.54686 -17.2875 15.1714 -9.54686 -15.0527 23.4786 -9.54686 -16.5241 
31.7857 -9.54686 -17.843 40.0929 -9.54686 -17.8199 48.4 -9.54686 -17.0432 
56.7072 -9.54686 -15.3149 65.0143 -9.54686 -11.7753 -67.9001 -1.23971 -13.6184 
-59.593 -1.23971 -16.8378 -51.2858 -1.23971 -17.7002 -42.9787 -1.23971 -18.636 
-34.6715 -1.23971 -17.6194 -26.3644 -1.23971 -16.1538 -10.2476 -1.23971 -19.9283 
-18.0572 -1.23971 -14.6932 -9.126 -1.23971 -19.9283 -9.75005 0.324921 -19.9283 
-1.44289 -1.23971 -13.7384 6.86426 -1.23971 -17.4729 15.1714 -1.23971 -15.0832 
23.4786 -1.23971 -16.5549 31.7857 -1.23971 -17.5523 40.0929 -1.23971 -18.2099 
48.4 -1.23971 -17.9111 56.7072 -1.23971 -16.7931 65.0143 -1.23971 -14.2008 
-67.9001 7.06744 -13.7822 -59.593 7.06744 -17.0764 -51.2858 7.06744 -18.148 
-42.9787 7.06744 -19.3046 -34.6715 7.06744 -18.3312 -26.3644 7.06744 -17.1206 
-18.0572 7.06744 -15.616 -9.75005 7.06744 -17.9774 -1.44289 7.06744 -17.4081 
6.86426 7.06744 -17.602 15.1714 7.06744 -16.935 23.4786 7.06744 -16.9834 
31.7857 7.06744 -18.1645 40.0929 7.06744 -18.2641 48.4 7.06744 -18.0134 
56.7072 7.06744 -17.6213 65.0143 7.06744 -15.3331 -67.9001 15.3746 -13.4873 
-59.593 15.3746 -16.871 -51.2858 15.3746 -17.9658 -42.9787 15.3746 -19.4843 
-34.6715 15.3746 -18.8897 -26.3644 15.3746 -17.3942 -18.0572 15.3746 -16.2435 
-9.75005 15.3746 -16.5566 -1.44289 15.3746 -17.3901 6.86426 15.3746 -16.1171 
15.1714 15.3746 -17.8139 23.4786 15.3746 -18.5412 31.7857 15.3746 -18.5512 
40.0929 15.3746 -18.4498 48.4 15.3746 -17.693 56.7072 15.3746 -16.0306 
65.0143 15.3746 -13.5323 -59.593 23.6818 -14.5433 -51.2858 23.6818 -19.9018 
-42.9787 23.6818 -18.5263 -34.6715 23.6818 -18.3175 -26.3644 23.6818 -17.4471 
-18.0572 23.6818 -16.5657 -9.75005 23.6818 -16.1253 -1.44289 23.6818 -18.0409 
6.86426 23.6818 -17.3359 15.1714 23.6818 -17.6015 23.4786 23.6818 -18.8496 
31.7857 23.6818 -18.1334 40.0929 23.6818 -18.2146 48.4 23.6818 -16.3912 
56.7072 23.6818 -13.8279 -59.593 31.9889 -12.937 -51.2858 31.9889 -15.4721 
-42.9787 31.9889 -18.7293 -34.6715 31.9889 -16.3194 -26.3644 31.9889 -15.0353 
-18.0572 31.9889 -12.7275 -9.75005 31.9889 -12.7453 -1.44289 31.9889 -16.0715 
6.86426 31.9889 -16.8606 15.1714 31.9889 -15.8086 23.4786 31.9889 -16.0217 
31.7857 31.9889 -15.9797 40.0929 31.9889 -15.0228 48.4 31.9889 -12.8642 
-34.6715 40.2961 -11.8446 -18.0572 -44.7499 -11.6211 -9.75005 -45.3905 -11.6211 
-1.44289 -44.9463 -11.6211 -42.9787 -36.5172 -11.6211 -34.6715 -40.3169 -11.6211 
-34.6715 -42.7755 -8.45962 -25.74 -42.7755 -11.6211 -26.3644 -42.5259 -11.6211 
-26.3644 -42.7755 -11.4263 4.66857 -42.7755 -11.6211 6.86426 -41.4124 -11.6211 
6.86426 -42.7755 -11.0635 15.1714 -34.8945 -11.6211 15.1714 -42.7755 -7.21649 
-45.9279 -34.4683 -11.6211 -51.2858 -26.7886 -11.6211 -51.2858 -34.4683 -5.26398 
15.8047 -34.4683 -11.6211 23.4786 -28.2152 -11.6211 23.4786 -34.4683 -9.28341 
31.7857 -27.6615 -11.6211 31.7857 -34.4683 -6.99518 40.0929 -34.4683 -4.00432 
-52.1293 -26.1612 -11.6211 -59.593 -22.1274 -11.6211 -59.593 -26.1612 -7.66727 
36.3442 -26.1612 -11.6211 40.0929 -25.1261 -11.6211 40.0929 -26.1612 -10.9551 
48.4 -22.8503 -11.6211 48.4 -26.1612 -9.26129 56.7072 -19.251 -11.6211 
56.7072 -26.1612 -3.60954 -62.9812 -17.854 -11.6211 -67.9001 -9.87663 -11.6211 
-67.9001 -17.854 -6.04687 58.4237 -17.854 -11.6211 65.0143 -9.77416 -11.6211 
65.0143 -17.854 -5.81869 -68.077 -9.54686 -11.6211 65.1932 -9.54686 -11.6211 
-70.7975 -1.23971 -11.6211 -76.2073 -1.23971 -4.1439 68.6362 -1.23971 -11.6211 
73.3215 -1.23971 -6.61843 -70.7295 7.06744 -11.6211 -76.2073 7.06744 -3.39251 
70.3093 7.06744 -11.6211 73.3215 7.06744 -8.4847 -70.2978 15.3746 -11.6211 
-67.9001 20.7996 -11.6211 67.8665 15.3746 -11.6211 65.0143 22.5778 -11.6211 
73.3215 15.3746 -6.33241 -65.4171 23.6818 -11.6211 -67.9001 23.6818 -9.81883 
63.8396 23.6818 -11.6211 56.7072 31.5982 -11.6211 65.0143 23.6818 -11.1944 
73.3215 23.6818 -3.33444 -61.7399 31.9889 -11.6211 -59.593 34.0949 -11.6211 
-51.2858 38.9151 -11.6211 -42.9787 39.7389 -11.6211 -26.3644 37.1402 -11.6211 
-18.0572 33.219 -11.6211 -9.75005 33.0199 -11.6211 -1.44289 36.0847 -11.6211 
6.86426 37.7652 -11.6211 15.1714 37.2803 -11.6211 23.4786 36.7757 -11.6211 
31.7857 37.4615 -11.6211 40.0929 36.797 -11.6211 55.9546 31.9889 -11.6211 
48.4 33.6297 -11.6211 56.7072 31.9889 -11.4642 65.0143 31.9889 -3.46234 
-59.593 40.2961 -3.48519 -51.2858 40.2961 -10.1535 -37.4483 40.2961 -11.6211 
-42.9787 40.2961 -11.0684 -33.8931 40.2961 -11.6211 -34.6715 40.5018 -11.6211 
-26.3644 40.2961 -5.52385 23.4786 40.2961 -3.92496 31.7857 40.2961 -4.13017 
40.0929 40.2961 -4.73981 -34.6715 -44.5316 -3.31395 -26.3644 -47.3728 -3.31395 
-18.0572 -49.4129 -3.31395 -9.75005 -50.7433 -3.31395 -1.44289 -50.9943 -3.31395 
6.86426 -49.6853 -3.31395 15.1714 -46.2094 -3.31395 -51.2858 -35.5048 -3.31395 
-38.4324 -42.7755 -3.31395 -42.9787 -40.5287 -3.31395 -34.6715 -42.7755 3.95147 
22.7175 -42.7755 -3.31395 23.4786 -42.3544 -3.31395 23.4786 -42.7755 -2.10353 
31.7857 -37.9631 -3.31395 40.0929 -34.9914 -3.31395 -52.7043 -34.4683 -3.31395 
-59.593 -29.0541 -3.31395 -51.2858 -34.4683 1.77688 41.1974 -34.4683 -3.31395 
48.4 -30.9925 -3.31395 56.7072 -26.4001 -3.31395 -62.8126 -26.1612 -3.31395 
-67.9001 -20.3657 -3.31395 57.0028 -26.1612 -3.31395 65.0143 -19.9392 -3.31395 
-69.8891 -17.854 -3.31395 67.0522 -17.854 -3.31395 -74.089 -9.54686 -3.31395 
-76.2073 -2.74029 -3.31395 72.7126 -9.54686 -3.31395 73.3215 -8.13551 -3.31395 
73.3215 -9.54686 1.00977 -76.6743 -1.23971 -3.31395 -76.2073 -1.23971 1.3624 
75.7713 -1.23971 -3.31395 -76.2496 7.06744 -3.31395 -76.2073 7.72108 -3.31395 
-76.2073 7.06744 -2.93545 77.5633 7.06744 -3.31395 -75.6627 15.3746 -3.31395 
75.7092 15.3746 -3.31395 -72.0075 23.6818 -3.31395 -67.9001 31.8727 -3.31395 
73.338 23.6818 -3.31395 73.3215 23.7042 -3.31395 -67.8242 31.9889 -3.31395 
-18.0572 38.8057 -3.31395 -9.75005 36.5454 -3.31395 -1.44289 38.4181 -3.31395 
6.86426 40.1671 -3.31395 15.1714 40.2209 -3.31395 48.4 40.0835 -3.31395 
56.7072 37.1492 -3.31395 65.1497 31.9889 -3.31395 65.0143 32.1222 -3.31395 
-59.7054 40.2961 -3.31395 -59.593 40.3806 -3.31395 -59.593 40.2961 -2.99157 
-51.2858 43.4165 -3.31395 -42.9787 46.2152 -3.31395 -34.6715 43.9435 -3.31395 
-23.699 40.2961 -3.31395 -26.3644 41.1385 -3.31395 17.4419 40.2961 -3.31395 
23.4786 40.496 -3.31395 23.4786 40.2961 -2.10473 31.7857 40.5241 -3.31395 
31.7857 40.2961 1.32691 46.1619 40.2961 -3.31395 40.0929 40.7881 -3.31395 
40.0929 40.2961 1.56298 -26.3644 -44.7517 4.9932 -18.0572 -47.2168 4.9932 
-9.75005 -48.7481 4.9932 -1.44289 -49.7088 4.9932 6.86426 -49.1626 4.9932 
15.1714 -46.9057 4.9932 23.4786 -44.5609 4.9932 -42.9787 -37.2417 4.9932 
-33.6273 -42.7755 4.9932 -34.6715 -42.4267 4.9932 -26.3644 -42.7755 7.34711 
-18.0572 -42.7755 9.71804 -9.75005 -42.7755 11.1332 -1.44289 -42.7755 12.1431 
6.86426 -42.7755 12.1553 15.1714 -42.7755 10.9786 28.1152 -42.7755 4.9932 
23.4786 -42.7755 8.30705 31.7857 -41.376 4.9932 40.0929 -37.8072 4.9932 
-59.593 -27.0795 4.9932 -49.3499 -34.4683 4.9932 -51.2858 -33.376 4.9932 
-42.9787 -34.4683 8.22244 -34.6715 -34.4683 11.2888 46.5262 -34.4683 4.9932 
40.0929 -34.4683 12.9948 48.4 -33.4496 4.9932 56.7072 -28.3145 4.9932 
-60.6728 -26.1612 4.9932 -67.9001 -18.5176 4.9932 -59.593 -26.1612 6.04847 
-51.2858 -26.1612 11.1526 -42.9787 -26.1612 12.9269 59.5186 -26.1612 4.9932 
56.7072 -26.1612 9.90221 65.0143 -21.5066 4.9932 -68.4331 -17.854 4.9932 
-67.9001 -17.854 5.53914 -59.593 -17.854 12.1973 68.2972 -17.854 4.9932 
65.0143 -17.854 10.4657 73.3215 -10.3414 4.9932 -72.0659 -9.54686 4.9932 
-67.9001 -9.54686 9.55792 73.8612 -9.54686 4.9932 73.3215 -9.54686 5.97275 
-75.6784 -1.23971 4.9932 -67.9001 -1.23971 13.2496 76.8211 -1.23971 4.9932 
73.3215 -1.23971 11.1335 -74.9478 7.06744 4.9932 -67.9001 7.06744 12.2867 
78.4417 7.06744 4.9932 -74.3575 15.3746 4.9932 -67.9001 15.3746 11.0127 
6.86426 15.3746 11.4974 76.7262 15.3746 4.9932 73.3215 15.3746 10.3183 
-70.278 23.6818 4.9932 -67.9001 27.8928 4.9932 -67.9001 23.6818 7.47335 
-9.75005 23.6818 13.1849 6.86426 23.6818 12.1911 15.1714 23.6818 12.7115 
74.2798 23.6818 4.9932 73.3215 24.924 4.9932 73.3215 23.6818 6.46523 
-64.9519 31.9889 4.9932 -59.593 37.4287 4.9932 -59.593 31.9889 9.07424 
-42.9787 31.9889 13.0567 -26.3644 31.9889 13.287 -18.0572 37.7109 4.9932 
-18.0572 31.9889 11.5451 -9.75005 36.152 4.9932 -9.75005 31.9889 9.63847 
-1.44289 37.2961 4.9932 -1.44289 31.9889 10.5345 6.86426 38.4206 4.9932 
6.86426 31.9889 10.7303 15.1714 38.2253 4.9932 15.1714 31.9889 10.2313 
23.4786 38.8806 4.9932 23.4786 31.9889 11.688 31.7857 40.0524 4.9932 
[...]
POINT_DATA 578
SCALARS ImageScalars float
LOOKUP_TABLE default
0 0 0 0 0 0 0 0 0 
0 0 0 0 0 0 0 0 0 
0 0 0 0 0 0 0 0 0 
0 0 0 0 0 0 0 0 0 
0 0 0 0 0 0 0 0 0 
0 0 0 0 0 0 0 0 0 
0 0 0 0 0 0 0 0 0 
0 0 0 0 0 0 0 0 0 
0 0 0 0 0 0 0 0 0 
0 0 0 0 0 0 0 0 0 
0 0 0 0 0 0 0 0 0 
0 0 0 0 0 0 0 0 0 
0 0 0 0 0 0 0 0 0 
0 0 0 0 0 0 0 0 0 
0 0 0 0 0 0 0 0 0 
0 0 0 0 0 0 0 0 0 
0 0 0 0 0 0 0 0 0 
0 0 0 0 0 0 0 0 0 
0 0 0 0 0 0 0 0 0 
0 0 0 0 0 0 0 0 0 
0 0 0 0 0 0 0 0 0 
0 0 0 0 0 0 0 0 0 
0 0 0 0 0 0 0 0 0 
0 0 0 0 0 0 0 0 0 
0 0 0 0 0 0 0 0 0 
0 0 0 0 0 0 0 0 0 
0 0 0 0 0 0 0 0 0 
0 0 0 0 0 0 0 0 0 
0 0 0 0 0 0 0 0 0 
0 0 0 0 0 0 0 0 0 
0 0 0 0 0 0 0 0 0 
0 0 0 0 0 0 0 0 0 
0 0 0 0 0 0 0 0 0 
0 0 0 0 0 0 0 0 0 
0 0 0 0 0 0 0 0 0 
0 0 0 0 0 0 0 0 0 
0 0 0 0 0 0 0 0 0 
0 0 0 0 0 0 0 0 0 
0 0 0 0 0 0 0 0 0 
0 0 0 0 0 0 0 0 0 
0 0 0 0 0 0 0 0 0 
0 0 0 0 0 0 0 0 0 
0 0 0 0 0 0 0 0 0 
0 0 0 0 0 0 0 0 0 
0 0 0 0 0 0 0 0 0 
0 0 0 0 0 0 0 0 0 
0 0 0 0 0 0 0 0 0 
0 0 0 0 0 0 0 0 0 
0 0 0 0 0 0 0 0 0 
0 0 0 0 0 0 0 0 0 
0 0 0 0 0 0 0 0 0 
0 0 0 0 0 0 0 0 0 
0 0 0 0 0 0 0 0 0 
0 0 0 0 0 0 0 0 0 
0 0 0 0 0 0 0 0 0 
0 0 0 0 0 0 0 0 0 
0 0 0 0 0 0 0 0 0 
0 0 0 0 0 0 0 0 0 
0 0 0 0 0 0 0 0 0 
0 0 0 0 0 0 0 0 0 
0 0 0 0 0 0 0 0 0 
0 0 0 0 0 0 0 0 0 
0 0 0 0 0 0 0 0 0 
0 0 0 0 0 0 0 0 0 
0 0 
NORMALS Normals float
0.0772688 0.188433 0.979042 0.0861358 0.512548 0.854327 -0.0128862 0.453231 0.8913 
-0.111003 0.412972 0.903954 0.33689 0.511174 0.7907 0.134833 0.320924 0.937458 
0.0815831 0.225314 0.970864 0.0172986 0.196732 0.980305 -0.066204 0.141165 0.98777 
-0.0957402 0.122318 0.987862 -0.199139 0.163943 0.966161 -0.250397 0.282927 0.92588 
0.347102 0.421297 0.837872 0.2087 0.199146 0.957489 0.0193692 0.137951 0.99025 
0.0221988 0.0345578 0.999156 -0.0260736 -0.0616211 0.997759 -0.0855707 -0.061418 0.994437 
-0.0802259 -0.0292003 0.996349 -0.106619 0.0101692 0.994248 -0.112279 0.111336 0.98742 
-0.0551524 0.308597 0.949593 -0.0675407 0.400165 0.913951 0.390551 0.304696 0.868695 
0.193274 0.282701 0.939535 0.0573942 0.0956439 0.99376 -0.0266405 0.0504234 0.998373 
-0.120127 -0.0485244 0.991572 -0.0770428 -0.142139 0.986844 -0.0360992 -0.0883479 0.995435 
-0.0263571 0.0879938 0.995772 -0.0496199 0.148659 0.987643 0.0480515 0.110782 0.992682 
0.112776 0.24681 0.962479 0.0386299 0.317452 0.947487 -0.0589185 0.370519 0.926954 
-0.178855 0.401145 0.898384 -0.355873 0.462094 0.812295 0.586728 0.345799 0.732239 
0.242045 0.191835 0.951112 0.131385 0.083358 0.987821 -0.00312427 0.140884 0.990021 
-0.130822 0.0258663 0.991068 -0.17272 0.0175375 0.984815 -0.0821137 -0.0290926 0.996198 
0.0939565 0.210826 0.972998 0.16909 0.227118 0.959076 0.158359 0.0189843 0.987199 
-0.127028 0.215347 0.96824 -0.0230584 0.0802754 0.996506 0.165548 0.092066 0.981895 
0.0770019 0.104801 0.991508 -0.0460962 0.146174 0.988184 -0.139561 0.181143 0.973504 
-0.258545 0.252124 0.932517 -0.515099 0.412995 0.751071 0.460178 0.0743082 0.884711 
0.292379 0.11693 0.949127 0.099838 0.076695 0.992043 -0.00520033 0.105967 0.994356 
-0.146681 0.089925 0.985088 -0.174014 0.107149 0.978896 0.0950305 0.187101 0.977733 
0.121407 0.110679 0.986413 0.0630303 0.18053 0.981548 0.0945723 0.11154 0.98925 
-0.0512388 0.0815552 0.995351 0.00692379 0.0179055 0.999816 -0.0445976 0.11695 0.992136 
0.151769 0.0274054 0.988036 0.0974396 0.0183669 0.995072 0.021716 0.0265318 0.999412 
-0.0809053 0.0568068 0.995102 -0.23282 0.124148 0.964563 -0.447812 0.174596 0.876915 
0.51478 -0.00790453 0.857286 0.29829 0.00200747 0.954473 0.125669 0.0159509 0.991944 
0.010616 0.050932 0.998646 -0.130661 0.0761702 0.988497 -0.161136 0.0734261 0.984197 
0.0144109 0.0941776 0.995451 0.130915 -0.19516 0.971995 -0.0177081 0.164761 0.986174 
-0.0330451 -0.0943323 0.994992 -0.0311598 0.169072 0.985111 0.0727073 0.121707 0.9899 
0.075843 0.0613051 0.995233 -0.00927988 0.0155237 0.999836 -0.0367365 -0.0125467 0.999246 
-0.19784 -0.0440344 0.979245 -0.396473 -0.0406324 0.917147 0.518086 -0.140556 0.8437 
0.302422 -0.138866 0.943004 0.143016 0.0838925 0.986158 0.0549037 -0.0458301 0.997439 
-0.124296 -0.00562163 0.992229 -0.151463 0.019354 0.988273 -0.0543309 0.0586838 0.996797 
0.0705242 -0.0926749 0.993196 -0.0324503 0.0393195 0.9987 0.0266533 -0.00207543 0.999643 
0.145141 0.0395144 0.988622 0.0439828 0.106755 0.993312 -0.00610092 -0.0026639 0.999978 
-0.0476213 -0.00174548 0.998864 -0.138627 -0.101757 0.985103 -0.265223 -0.207621 0.941568 
-0.438852 -0.209011 0.873913 0.434944 -0.215896 0.874193 0.180439 -0.100054 0.978484 
-0.0846377 -0.0489872 0.995207 -0.0590673 -0.135125 0.989066 -0.110627 -0.122888 0.986235 
-0.0800293 -0.169276 0.982314 0.0919244 -0.185691 0.978299 0.0716986 -0.0552182 0.995897 
-0.0267372 0.0498845 0.998397 0.0868704 -0.116504 0.989384 0.0312461 -0.111982 0.993219 
-0.0364486 -0.14568 0.98866 -0.119291 -0.208488 0.970723 -0.221934 -0.223787 0.949034 
-0.278364 -0.270055 0.921729 0.414657 -0.372963 0.830035 0.301486 -0.371885 0.877957 
0.0272908 -0.318915 0.94739 -0.175912 -0.369096 0.912591 -0.195749 -0.424197 0.88416 
-0.127136 -0.598944 0.790634 0.178509 -0.679116 0.711994 0.215837 -0.530052 0.820036 
-0.0257195 -0.371332 0.928144 -0.046295 -0.439081 0.897254 0.010522 -0.524102 0.851591 
-0.0605166 -0.458264 0.886754 -0.15245 -0.477094 0.865529 -0.219041 -0.560874 0.798399 
-0.0909845 -0.73786 0.668794 0.117907 0.613976 0.780469 0.0114437 0.590566 0.806908 
-0.117183 0.523165 0.844136 0.369304 0.589008 0.718808 0.263652 0.610071 0.747195 
0.358575 0.826512 0.433938 0.157561 0.634251 0.756902 0.160597 0.631835 0.758283 
0.167082 0.654761 0.737138 -0.240387 0.452896 0.858545 -0.272733 0.41603 0.867488 
-0.289488 0.486655 0.824235 -0.255678 0.296668 0.920118 -0.385237 0.670688 0.633854 
0.413975 0.535144 0.736373 0.362401 0.431697 0.826017 0.593024 0.756612 0.275427 
-0.247171 0.293885 0.92333 -0.0917651 0.334927 0.937765 -0.24163 0.459832 0.8545 
-0.089905 0.431889 0.897435 -0.247599 0.668653 0.70114 -0.328593 0.786651 0.522691 
0.354784 0.438574 0.825701 0.426944 0.449086 0.784882 0.55319 0.678472 0.483379 
-0.107958 0.471476 0.875246 -0.130801 0.515852 0.846633 -0.14814 0.540716 0.828058 
-0.225974 0.545464 0.807097 -0.290871 0.664534 0.688323 -0.367662 0.521329 0.770091 
-0.528628 0.745372 0.406167 0.466284 0.376247 0.800636 0.588589 0.358186 0.724752 
0.718448 0.583397 0.378788 -0.401336 0.482119 0.778775 -0.517786 0.418537 0.74614 
-0.638815 0.603735 0.476885 0.593804 0.348125 0.7254 -0.520093 0.414303 0.746898 
0.548828 0.122667 0.826886 0.955128 0.126663 0.267744 -0.569106 0.209009 0.795257 
-0.796028 0.23528 0.557659 0.620327 -0.0258148 0.783919 0.97193 -0.0594379 0.227639 
-0.582397 -0.0295082 0.812369 -0.747208 -0.0168435 0.664377 0.59869 -0.199369 0.775772 
0.627087 -0.315115 0.712366 -0.522311 -0.262796 0.811252 -0.518366 -0.440214 0.73315 
-0.77865 -0.257665 0.572113 0.613426 -0.323625 0.720399 0.73004 -0.407779 0.548414 
-0.50143 -0.438752 0.745697 -0.361396 -0.50794 0.781914 -0.533267 -0.47083 0.702813 
-0.785069 -0.459425 0.415446 0.494278 -0.434061 0.75318 0.468018 -0.463178 0.752612 
0.251093 -0.751518 0.61006 0.0533725 -0.66647 0.743619 -0.308987 -0.666432 0.678524 
-0.155311 -0.65388 0.740486 0.167389 -0.741891 0.649291 0.258244 -0.814079 0.520178 
0.0744681 -0.82644 0.558079 -0.048423 -0.785581 0.616861 0.00810342 -0.767385 0.641135 
0.00298636 -0.781412 0.624008 -0.145034 -0.710272 0.688825 -0.349749 -0.524396 0.776328 
-0.229124 -0.608927 0.759414 -0.364232 -0.525403 0.768952 -0.636233 -0.694344 0.336294 
0.540707 -0.832585 0.120157 0.266697 -0.852049 0.450427 -0.0435752 -0.723957 0.688468 
0.0520047 -0.702553 0.709728 -0.115044 -0.748038 0.653609 -0.0935489 -0.750091 0.654685 
-0.334508 -0.901701 0.273936 0.0178782 -0.993428 0.113052 0.0162857 -0.988868 0.147903 
-0.0387613 -0.979297 0.198683 0.379436 0.924184 0.0437228 0.287448 0.955526 0.0659024 
0.196428 0.976957 0.0834898 0.0980313 0.989244 0.108565 -0.0555611 0.988036 0.143869 
-0.260328 0.935009 0.240807 -0.391734 0.837188 0.381655 0.579859 0.803668 0.13372 
0.424592 0.903574 0.0572342 0.494584 0.867221 0.0575743 0.347272 0.848428 -0.399465 
-0.394536 0.782347 0.481949 -0.391724 0.773835 0.497726 -0.390786 0.828208 0.401694 
-0.343815 0.764508 0.54527 -0.335199 0.804972 0.489552 0.591886 0.794117 0.138019 
0.640665 0.752174 0.154212 0.550503 0.798283 -0.244317 -0.337446 0.805366 0.487355 
-0.381334 0.80732 0.450353 -0.533158 0.746999 0.397159 0.691311 0.704752 0.159417 
0.76235 0.616433 0.197061 -0.53598 0.746893 0.393543 -0.649009 0.675359 0.350255 
0.79944 0.57807 0.163494 -0.702903 0.623072 0.343086 0.919226 0.346743 0.18653 
0.962453 0.16176 0.217986 -0.827267 0.452136 0.33347 -0.837725 0.425173 0.342703 
-0.872549 0.483981 0.0664917 0.970005 0.124768 0.208622 0.98032 0.134872 -0.14416 
-0.895171 0.263199 0.359716 0.973155 -0.0595168 0.222322 0.972352 -0.0737347 0.221574 
0.97871 -0.0608589 0.196016 -0.946298 -0.00060105 0.323296 0.952137 -0.23308 0.19776 
-0.885379 -0.256758 0.387531 0.889727 -0.426416 0.162959 0.803141 -0.587109 0.101326 
-0.785608 -0.459624 0.414205 -0.785196 -0.460472 0.414045 0.801531 -0.589448 0.100495 
-0.264322 -0.945962 0.187855 -0.0170676 -0.987144 0.158921 0.215831 -0.974478 0.0617224 
0.105535 -0.994081 0.0257849 0.0198162 -0.998923 0.0419427 -0.215086 -0.953148 0.212715 
-0.373398 -0.891476 0.2566 -0.637912 -0.697077 0.32734 -0.635404 -0.699941 0.326106 
0.54219 -0.832929 0.11072 0.538155 -0.835655 0.109866 0.541864 -0.836012 0.0864126 
0.319708 -0.943213 0.0902049 0.0268057 -0.993569 0.110007 -0.251632 -0.961934 0.106603 
-0.300959 -0.937683 0.173708 -0.323141 -0.93101 0.169706 0.0193297 -0.998436 0.0524498 
0.0181549 -0.99664 0.0798737 0.0283559 -0.999432 0.0182315 0.0168655 -0.99363 0.111419 
0.0382677 -0.985911 -0.162835 -0.162269 -0.969074 0.185913 -0.024622 -0.992482 0.119888 
-0.0200304 -0.988261 -0.151459 0.251351 0.823964 -0.507844 0.20513 0.850129 -0.484977 
0.126373 0.877719 -0.462211 0.0205226 0.912606 -0.408326 -0.159585 0.925696 -0.342956 
-0.260174 0.938108 -0.228608 -0.313722 0.939218 -0.139454 0.430679 0.737071 -0.520809 
0.323815 0.820352 -0.471345 0.336502 0.815492 -0.470891 0.224782 0.76032 -0.609415 
0.177056 0.670837 -0.720159 0.114855 0.582219 -0.804878 0.0499488 0.522845 -0.850963 
-0.0459198 0.570785 -0.819814 -0.146402 0.731583 -0.665847 -0.342872 0.935266 -0.0878456 
-0.26319 0.893931 -0.362794 -0.369943 0.928194 -0.0399891 -0.426822 0.904285 -0.009564 
0.564436 0.683333 -0.463107 0.466346 0.729623 -0.500171 0.477309 0.725689 -0.495532 
0.368748 0.640902 -0.673253 0.266744 0.483333 -0.833808 -0.478241 0.878208 -0.00597387 
-0.362229 0.681485 -0.6359 -0.4981 0.867035 -0.0121192 -0.577711 0.812807 -0.0747999 
0.579349 0.672372 -0.460728 0.701021 0.521774 -0.486129 0.55512 0.665509 -0.498938 
0.317284 0.496572 -0.807928 0.184262 0.352809 -0.917373 -0.60638 0.790829 -0.0830222 
-0.575784 0.710111 -0.405235 -0.70454 0.696171 -0.13773 0.710427 0.507908 -0.487158 
0.695377 0.505078 -0.511221 0.416407 0.354409 -0.837257 -0.781036 0.602495 -0.164266 
-0.666474 0.530649 -0.523664 -0.853532 0.490412 -0.17601 0.815321 0.332644 -0.47392 
0.687531 0.356923 -0.632382 -0.85892 0.479487 -0.179859 -0.849875 0.477023 -0.223967 
0.88059 0.1306 -0.455527 0.607621 0.124338 -0.784434 -0.948546 0.248581 -0.196134 
-0.745118 0.248717 -0.618821 0.884244 -0.0651137 -0.462463 0.535068 -0.108548 -0.837806 
-0.982182 -0.00275884 -0.187914 0.859314 -0.244069 -0.449454 0.559044 -0.254099 -0.789243 
-0.00194845 -0.168864 -0.985637 -0.940753 -0.256139 -0.222209 -0.78765 -0.309741 -0.532605 
0.766773 -0.460636 -0.447071 0.740843 -0.541877 -0.396889 0.671412 -0.382157 -0.63495 
-0.0137951 -0.225637 -0.974114 -0.0425357 -0.038219 -0.998364 0.172888 -0.190314 -0.96638 
-0.832317 -0.494907 -0.249632 -0.796448 -0.548233 -0.255169 -0.800084 -0.505853 -0.322457 
0.697356 -0.598553 -0.394245 0.505865 -0.668567 -0.545086 0.398517 -0.562439 -0.724463 
-0.00144226 -0.385874 -0.92255 -0.0927199 -0.424501 -0.900667 -0.263661 -0.88646 -0.380357 
-0.188491 -0.49612 -0.847547 -0.0180414 -0.919546 -0.392568 -0.0417314 -0.655027 -0.754452 
0.123353 -0.897634 -0.423128 0.0583352 -0.565601 -0.822613 0.0545749 -0.872378 -0.485776 
-0.0196047 -0.430491 -0.902382 0.0257963 -0.868613 -0.494819 0.0517517 -0.455382 -0.888791 
0.0879874 -0.903433 -0.419603 0.144914 -0.497056 -0.855532 0.055138 -0.912076 -0.406298 
0.115845 -0.543657 -0.831274 -0.0152501 -0.934241 -0.356315 -0.178296 -0.9257 -0.333603 
-0.069539 -0.567494 -0.820436 -0.332625 -0.897425 -0.289807 -0.223461 -0.596778 -0.770663 
-0.611198 -0.747431 -0.260353 -0.60342 -0.753763 -0.26024 -0.607164 -0.743082 -0.281392 
0.332008 -0.782145 -0.527276 0.241344 -0.830068 -0.502733 0.249848 -0.781971 -0.571049 
0.0688383 -0.815165 -0.575123 0.0890168 -0.744214 -0.661984 -0.0693025 -0.900835 -0.428595 
-0.0726079 -0.786057 -0.613875 -0.284698 -0.884015 -0.370761 -0.284379 -0.876204 -0.389095 
-0.272651 -0.843171 -0.463383 0.178632 0.453766 -0.873033 0.0886465 0.42912 -0.898887 
0.0725709 0.401794 -0.91285 0.0466415 0.397433 -0.916445 -0.00544146 0.466843 -0.884323 
-0.0678756 0.551414 -0.831466 -0.101274 0.642143 -0.759865 -0.203455 0.72627 -0.656611 
0.19711 0.419186 -0.886245 0.203057 0.35043 -0.914312 0.169715 0.394693 -0.903003 
0.0576884 0.339739 -0.938749 0.028084 0.256554 -0.966122 0.0429035 0.219068 -0.974766 
0.0740264 0.28824 -0.954693 0.0416087 0.360858 -0.931692 -0.0236085 0.501539 -0.864813 
-0.348402 0.664149 -0.661455 -0.179881 0.510689 -0.840737 -0.351868 0.659656 -0.664111 
-0.387207 0.632893 -0.670461 0.215249 0.354831 -0.909815 0.174961 0.329319 -0.927867 
0.17033 0.324934 -0.930272 0.162033 0.275789 -0.947463 0.110674 0.12826 -0.985546 
0.0097531 0.0998249 -0.994957 -0.024886 0.0238486 -0.999406 0.0810845 0.00801013 -0.996675 
0.135934 0.10038 -0.98562 0.097352 0.0999903 -0.990214 0.00979526 0.115569 -0.993251 
-0.0707248 0.247751 -0.966239 -0.175877 0.340123 -0.923788 -0.46448 0.568305 -0.679182 
-0.325225 0.463589 -0.824205 -0.489383 0.543054 -0.682346 0.291517 0.312747 -0.903995 
0.358101 0.207112 -0.910422 0.183881 0.302492 -0.935247 0.135281 0.20731 -0.968876 
0.0505902 0.126317 -0.990699 -0.00630977 0.00751268 -0.999952 -0.0496343 -0.0689829 -0.996382 
-0.0709229 -0.0479589 -0.996328 0.129983 -0.0375342 -0.990806 0.165386 -0.046394 -0.985137 
0.0863354 -0.12265 -0.988688 0.12988 -0.0753795 -0.98866 0.0160014 0.0546521 -0.998377 
-0.100619 0.123131 -0.987276 -0.155767 0.269984 -0.950182 -0.52762 0.443837 -0.724311 
-0.38881 0.378994 -0.839756 -0.577555 0.362355 -0.731525 0.373002 0.176844 -0.910821 
0.325541 0.14925 -0.933674 0.166839 0.149917 -0.97452 0.0152036 0.155544 -0.987712 
-0.0514739 0.044372 -0.997688 -0.0821664 -0.013421 -0.996528 -0.0457639 -0.114435 -0.992376 
0.0095407 0.0303505 -0.999494 0.094181 -0.0473581 -0.994428 0.0278392 -0.0747998 -0.99681 
0.0747689 -0.137017 -0.987743 0.186429 -0.0843462 -0.978841 0.132811 -0.0620263 -0.989199 
0.0486651 0.0678894 -0.996505 -0.104695 0.138679 -0.984788 -0.254992 0.140992 -0.956609 
-0.618537 0.309064 -0.722421 -0.515953 0.278254 -0.810165 0.60038 0.123504 -0.79012 
0.192623 0.0839014 -0.977679 0.147507 0.0245912 -0.988755 0.0224243 0.0615615 -0.997851 
-0.117724 0.0252385 -0.992726 -0.165352 -0.0178111 -0.986074 -0.0238902 -0.0770209 -0.996743 
0.0209361 0.09074 -0.995655 0.0583292 0.0433078 -0.997358 0.0724464 -0.0427937 -0.996454 
0.0755964 -0.0296494 -0.996698 0.202965 -0.0503819 -0.977889 0.166316 -0.038034 -0.985339 
0.0993103 -0.0102516 -0.995004 -0.0719484 0.0326132 -0.996875 -0.224964 0.0600477 -0.972515 
-0.596127 0.205125 -0.776245 -0.431891 0.13811 -0.891289 -0.628399 0.0415434 -0.776781 
0.443949 -0.114642 -0.888688 0.281084 -0.0940337 -0.955065 0.151303 0.0067284 -0.988464 
0.0155159 -0.0736042 -0.997167 -0.132844 -0.043897 -0.990164 -0.178068 -0.02229 -0.983766 
0.01429 -0.0157565 -0.999774 0.170878 -0.121178 -0.977812 -0.0402296 -0.0424607 -0.998288 
-0.00606946 -0.265646 -0.964052 -0.0354126 -0.339397 -0.939976 0.072893 -0.139892 -0.98748 
0.174629 -0.0920104 -0.980326 0.172839 -0.0741089 -0.982158 0.119103 -0.0847076 -0.989262 
-0.0259134 -0.0936172 -0.995271 -0.16899 -0.0509244 -0.984301 -0.377066 -0.0708251 -0.923474 
-0.632827 -0.0331288 -0.773584 -0.628885 -0.0919811 -0.772038 -0.598333 -0.0259677 -0.800827 
0.343495 -0.0852846 -0.935274 0.31679 -0.0644358 -0.946305 0.183426 -0.130835 -0.974288 
-0.0268951 -0.127501 -0.991474 -0.0676956 -0.108907 -0.991744 -0.138771 -0.0306867 -0.989849 
-0.0780649 -0.0288795 -0.99653 -0.0153381 -0.217946 -0.97584 -0.0186302 -0.187967 -0.981999 
-0.143391 -0.157136 -0.977112 -0.184247 -0.156832 -0.970287 0.211748 -0.173708 -0.961763 
0.222371 -0.175682 -0.959003 0.25007 -0.169908 -0.953203 0.262114 -0.120751 -0.957453 
0.169523 -0.118001 -0.978436 0.0787578 -0.168939 -0.982475 -0.0372881 -0.239013 -0.9703 
-0.187042 -0.168054 -0.967871 -0.567002 -0.243328 -0.786957 -0.398888 -0.196305 -0.895741 
0.384361 -0.234076 -0.893015 0.353656 -0.295978 -0.887313 0.352147 -0.233819 -0.906268 
0.146825 -0.220798 -0.964205 -0.000487758 -0.367151 -0.930161 0.0311076 -0.191028 -0.981092 
-0.0449495 -0.160813 -0.985961 -0.092636 -0.4227 -0.901523 -0.100282 -0.150134 -0.983567 
-0.0378928 -0.203385 -0.978365 -0.133023 -0.198491 -0.971034 -0.119886 -0.13405 -0.983696 
-0.0336847 -0.197718 -0.97968 -0.0566276 -0.151327 -0.98686 -0.0535099 -0.181703 -0.981896 
-0.0580106 -0.165893 -0.984436 0.185331 -0.196406 -0.962848 0.184533 -0.353866 -0.916911 
0.222978 -0.223955 -0.948749 0.116546 -0.528193 -0.841088 0.122952 -0.294286 -0.947776 
0.00169018 -0.265914 -0.963995 -0.065649 -0.51032 -0.857475 -0.0546534 -0.349698 -0.935267 
-0.200129 -0.540183 -0.817405 -0.161488 -0.371826 -0.914148 -0.444603 -0.383306 -0.809571 
-0.42309 -0.416098 -0.804896 -0.373254 -0.343805 -0.861673 0.217799 -0.397889 -0.891206 
0.0834863 -0.382532 -0.920163 0.220416 -0.396864 -0.891019 0.207296 -0.373482 -0.904179 
0.00411465 -0.369439 -0.929246 -0.0893085 -0.422145 -0.902118 0.00408149 -0.381425 -0.924391 
0.0111109 -0.355045 -0.934783 0.0857284 -0.544297 -0.834501 -0.0473945 -0.550255 -0.833651 
-0.0244712 -0.58678 -0.809376 -0.0261377 -0.553883 -0.832184 
