# vtk DataFile Version 4.2
vtk output
ASCII
DATASET POLYDATA
POINTS 506 float
-9.56305 -38.0961 -15.5481 -1.85302 -38.0961 -15.8267 5.85702 -38.0961 -14.5041 
-24.9831 -30.3861 -14.5136 -17.2731 -30.3861 -17.8744 -9.56305 -30.3861 -19.4952 
-1.85302 -30.3861 -19.2935 5.85702 -30.3861 -18.0844 13.5671 -30.3861 -16.8787 
21.2771 -30.3861 -16.2728 28.9871 -30.3861 -14.6628 -32.6931 -22.6761 -15.6037 
-24.9831 -22.6761 -18.1811 -17.2731 -22.6761 -19.7893 -9.56305 -22.6761 -20.9086 
-1.85302 -22.6761 -20.3861 5.85702 -22.6761 -19.336 13.5671 -22.6761 -18.6917 
21.2771 -22.6761 -18.5097 28.9871 -22.6761 -18.4691 36.6972 -22.6761 -17.3143 
-40.4032 -14.966 -14.9088 -32.6931 -14.966 -18.2359 -24.9831 -14.966 -19.8344 
-17.2731 -14.966 -20.4091 -9.56305 -14.966 -20.8004 -1.85302 -14.966 -20.4186 
5.85702 -14.966 -20.4296 13.5671 -14.966 -19.9055 21.2771 -14.966 -19.8139 
28.9871 -14.966 -20.1761 36.6972 -14.966 -19.9098 44.4072 -14.966 -18.2834 
-40.4032 -7.25599 -16.4347 -32.6931 -7.25599 -18.5968 -24.9831 -7.25599 -19.3366 
-17.2731 -7.25599 -20.3505 -9.56305 -7.25599 -21.1132 -1.85302 -7.25599 -19.6099 
5.85702 -7.25599 -21.5913 13.5671 -7.25599 -20.7143 21.2771 -7.25599 -19.8018 
28.9871 -7.25599 -20.6619 36.6972 -7.25599 -21.1029 44.4072 -7.25599 -20.1155 
52.1172 -7.25599 -16.1099 -40.4032 0.454044 -16.3214 -32.6931 0.454044 -17.9052 
-24.9831 0.454044 -18.172 -17.2731 0.454044 -19.0075 -9.56305 0.454044 -21.5899 
-1.85302 0.454044 -19.1173 5.85702 0.454044 -21.8529 13.5671 0.454044 -20.1358 
21.2771 0.454044 -19.4961 28.9871 0.454044 -20.7596 36.6972 0.454044 -21.41 
44.4072 0.454044 -20.6264 52.1172 0.454044 -17.3054 -40.4032 8.16408 -15.6558 
-32.6931 8.16408 -17.6859 -24.9831 8.16408 -18.1732 -17.2731 8.16408 -18.6183 
-9.56305 8.16408 -20.7467 -1.85302 8.16408 -20.3633 5.85702 8.16408 -20.9351 
13.5671 8.16408 -19.6524 21.2771 8.16408 -19.8475 28.9871 8.16408 -20.9141 
36.6972 8.16408 -21.4438 44.4072 8.16408 -20.4431 52.1172 8.16408 -16.4325 
-32.6931 15.8741 -16.5428 -24.9831 15.8741 -17.7084 -17.2731 15.8741 -18.875 
-9.56305 15.8741 -20.1439 -1.85302 15.8741 -20.4253 5.85702 15.8741 -20.3273 
13.5671 15.8741 -20.4976 21.2771 15.8741 -20.8896 28.9871 15.8741 -21.4056 
36.6972 15.8741 -21.4776 44.4072 15.8741 -20.435 -24.9831 23.5841 -15.9389 
-17.2731 23.5841 -17.4106 -9.56305 23.5841 -18.9256 -1.85302 23.5841 -19.9671 
5.85702 23.5841 -20.5993 13.5671 23.5841 -20.785 21.2771 23.5841 -21.387 
28.9871 23.5841 -20.884 36.6972 23.5841 -19.913 44.4072 23.5841 -17.3265 
-9.56305 31.2942 -14.8246 -1.85302 31.2942 -17.2205 5.85702 31.2942 -18.8847 
13.5671 31.2942 -19.711 21.2771 31.2942 -20.3016 28.9871 31.2942 -19.2717 
36.6972 31.2942 -17.2268 13.5671 39.0042 -15.5406 21.2771 39.0042 -16.0561 
28.9871 39.0042 -14.4843 -9.56305 -39.3533 -14.4153 -1.85302 -39.7934 -14.4153 
5.85702 -38.2132 -14.4153 -24.9831 -30.5105 -14.4153 -12.7387 -38.0961 -14.4153 
-17.2731 -35.7942 -14.4153 -17.2731 -38.0961 -11.4917 6.31326 -38.0961 -14.4153 
13.5671 -35.3301 -14.4153 13.5671 -38.0961 -12.7744 21.2771 -34.1678 -14.4153 
21.2771 -38.0961 -11.624 28.9871 -30.748 -14.4153 -25.1645 -30.3861 -14.4153 
-32.6931 -24.4654 -14.4153 -32.6931 -30.3861 -7.2357 29.9105 -30.3861 -14.4153 
36.6972 -27.3271 -14.4153 36.6972 -30.3861 -11.3903 -34.8562 -22.6761 -14.4153 
-40.4032 -16.017 -14.4153 -40.4032 -22.6761 -9.47399 43.6374 -22.6761 -14.4153 
44.4072 -22.0904 -14.4153 44.4072 -22.6761 -13.7738 -41.1127 -14.966 -14.4153 
-48.1132 -14.966 -7.48595 50.1422 -14.966 -14.4153 52.1172 -11.5599 -14.4153 
52.1172 -14.966 -9.94427 -43.7919 -7.25599 -14.4153 -48.1132 -7.25599 -11.2724 
53.6525 -7.25599 -14.4153 -44.6942 0.454044 -14.4153 -48.1132 0.454044 -12.5066 
54.7731 0.454044 -14.4153 -42.9054 8.16408 -14.4153 -48.1132 8.16408 -11.4054 
-40.4032 13.4979 -14.4153 53.9375 8.16408 -14.4153 52.1172 14.5217 -14.4153 
-48.1132 15.8741 -8.14519 -38.8812 15.8741 -14.4153 -40.4032 15.8741 -13.839 
-32.6931 21.9989 -14.4153 51.5868 15.8741 -14.4153 52.1172 15.8741 -11.9455 
-40.4032 23.5841 -9.39381 -30.5676 23.5841 -14.4153 -32.6931 23.5841 -13.7082 
-24.9831 25.7777 -14.4153 -17.2731 28.2888 -14.4153 47.3642 23.5841 -14.4153 
44.4072 27.5355 -14.4153 -24.9831 31.2942 -8.23776 -10.7772 31.2942 -14.4153 
-17.2731 31.2942 -11.1569 -9.56305 31.74 -14.4153 -1.85302 34.925 -14.4153 
5.85702 38.2003 -14.4153 40.2522 31.2942 -14.4153 36.6972 34.3015 -14.4153 
-1.85302 39.0042 -7.84809 8.54809 39.0042 -14.4153 5.85702 39.0042 -13.3912 
13.5671 40.1891 -14.4153 21.2771 40.6317 -14.4153 29.1056 39.0042 -14.4153 
28.9871 39.06 -14.4153 -17.2731 -40.6236 -6.70524 -9.56305 -43.6551 -6.70524 
-1.85302 -44.7848 -6.70524 5.85702 -44.6527 -6.70524 5.85702 -45.8062 0.0235189 
13.5671 -43.7685 -6.70524 21.2771 -41.7626 -6.70524 -32.6931 -30.699 -6.70524 
-21.5521 -38.0961 -6.70524 -24.9831 -35.9185 -6.70524 28.9497 -38.0961 -6.70524 
28.9871 -38.075 -6.70524 28.9871 -38.0961 -6.60378 36.6972 -33.1287 -6.70524 
-33.1214 -30.3861 -6.70524 -40.4032 -24.6566 -6.70524 39.9956 -30.3861 -6.70524 
44.4072 -26.3221 -6.70524 -42.5863 -22.6761 -6.70524 -48.1132 -15.8146 -6.70524 
47.639 -22.6761 -6.70524 52.1172 -16.2445 -6.70524 -48.6833 -14.966 -6.70524 
52.8888 -14.966 -6.70524 52.1172 -14.966 -4.46845 -52.1144 -7.25599 -6.70524 
55.4184 -7.25599 -6.70524 52.1172 -7.25599 -0.825995 -53.4982 0.454044 -6.70524 
-55.8232 0.454044 -0.55283 55.9151 0.454044 -6.70524 52.1172 0.454044 -0.599292 
-52.8337 8.16408 -6.70524 54.9442 8.16408 -6.70524 52.1172 8.16408 -0.607086 
-49.4124 15.8741 -6.70524 -48.1132 17.8526 -6.70524 52.8223 15.8741 -6.70524 
52.1172 17.3693 -6.70524 52.1172 15.8741 -5.26528 -43.3519 23.5841 -6.70524 
-40.4032 25.8802 -6.70524 -32.6931 30.1282 -6.70524 48.8794 23.5841 -6.70524 
44.4072 30.2496 -6.70524 44.4072 23.5841 -0.259955 -28.6962 31.2942 -6.70524 
-32.6931 31.2942 -3.79395 -24.9831 32.2652 -6.70524 -17.2731 33.9791 -6.70524 
-9.56305 36.3539 -6.70524 43.5847 31.2942 -6.70524 36.6972 37.6576 -6.70524 
-3.14094 39.0042 -6.70524 -1.85302 39.5299 -6.70524 5.85702 42.4054 -6.70524 
13.5671 44.1505 -6.70524 21.2771 43.9123 -6.70524 34.5035 39.0042 -6.70524 
28.9871 41.8939 -6.70524 5.85702 -45.9534 1.00479 -17.2731 -40.9687 1.00479 
-9.56305 -43.6925 1.00479 4.29343 -45.8062 1.00479 -1.85302 -45.2203 1.00479 
13.4638 -45.8062 1.00479 5.85702 -45.8062 1.59065 13.5671 -45.8041 1.00479 
21.2771 -43.4275 1.00479 28.9871 -39.4949 1.00479 -32.6931 -31.8915 1.00479 
-22.7973 -38.0961 1.00479 -24.9831 -36.8902 1.00479 30.7913 -38.0961 1.00479 
28.9871 -38.0961 4.67397 36.6972 -32.2819 1.00479 -34.7633 -30.3861 1.00479 
-40.4032 -26.0735 1.00479 -32.6931 -30.3861 7.19943 38.832 -30.3861 1.00479 
36.6972 -30.3861 3.60273 44.4072 -22.9953 1.00479 -44.2237 -22.6761 1.00479 
-48.1132 -18.3698 1.00479 44.6221 -22.6761 1.00479 44.4072 -22.6761 1.26705 
-50.5972 -14.966 1.00479 49.6169 -14.966 1.00479 44.4072 -14.966 6.21385 
-54.5685 -7.25599 1.00479 -55.8232 -1.78777 1.00479 50.8849 -7.25599 1.00479 
44.4072 -7.25599 7.37657 -56.325 0.454044 1.00479 -55.8232 5.67197 1.00479 
-55.8232 0.454044 7.74195 50.7721 0.454044 1.00479 44.4072 0.454044 6.57159 
-55.5735 8.16408 1.00479 50.8224 8.16408 1.00479 44.4072 8.16408 5.24969 
-52.5854 15.8741 1.00479 -48.1132 21.9606 1.00479 36.6972 15.8741 8.48343 
47.5472 15.8741 1.00479 44.4072 21.4751 1.00479 44.4072 15.8741 3.53389 
-46.6176 23.5841 1.00479 -40.4032 28.5506 1.00479 43.414 23.5841 1.00479 
36.6972 23.5841 7.30743 -35.6096 31.2942 1.00479 -32.6931 32.7961 1.00479 
-24.9831 35.1028 1.00479 -17.2731 36.7759 1.00479 -9.56305 38.7427 1.00479 
38.8552 31.2942 1.00479 36.6972 33.6325 1.00479 36.6972 31.2942 2.91074 
-8.69995 39.0042 1.00479 -9.56305 39.0042 3.00118 -1.85302 40.963 1.00479 
5.85702 42.8225 1.00479 13.5671 43.6682 1.00479 21.2771 42.8824 1.00479 
21.2771 39.0042 6.50124 30.3044 39.0042 1.00479 28.9871 39.7163 1.00479 
28.9871 39.0042 1.99019 -17.2731 -38.6252 8.71482 -9.56305 -40.975 8.71482 
-1.85302 -42.6908 8.71482 5.85702 -43.7406 8.71482 13.5671 -43.3795 8.71482 
21.2771 -40.5329 8.71482 -18.3967 -38.0961 8.71482 -24.9831 -34.8188 8.71482 
-17.2731 -38.0961 9.50222 -9.56305 -38.0961 12.6445 -1.85302 -38.0961 14.7305 
5.85702 -38.0961 15.79 13.5671 -38.0961 14.8236 25.7029 -38.0961 8.71482 
21.2771 -38.0961 11.3362 28.9871 -35.1703 8.71482 -40.4032 -24.1286 8.71482 
-32.085 -30.3861 8.71482 -32.6931 -29.9769 8.71482 -24.9831 -30.3861 14.6689 
21.2771 -30.3861 16.3348 32.5463 -30.3861 8.71482 28.9871 -30.3861 11.6424 
36.6972 -24.3839 8.71482 -42.0556 -22.6761 8.71482 -48.1132 -16.3414 8.71482 
-40.4032 -22.6761 10.7715 28.9871 -22.6761 14.9913 37.8443 -22.6761 8.71482 
36.6972 -22.6761 9.71996 -49.1648 -14.966 8.71482 -48.1132 -14.966 10.4899 
41.3263 -14.966 8.71482 36.6972 -14.966 11.9846 -53.4933 -7.25599 8.71482 
42.4208 -7.25599 8.71482 36.6972 -7.25599 12.3247 -55.7399 0.454044 8.71482 
28.9871 0.454044 15.034 40.8764 0.454044 8.71482 36.6972 0.454044 11.1519 
-54.6679 8.16408 8.71482 28.9871 8.16408 13.3247 38.4456 8.16408 8.71482 
36.6972 14.432 8.71482 36.6972 8.16408 9.6713 -51.7169 15.8741 8.71482 
-48.1132 21.0772 8.71482 -48.1132 15.8741 14.6252 21.2771 15.8741 15.5756 
36.2569 15.8741 8.71482 28.9871 15.8741 12.4121 -45.8645 23.5841 8.71482 
-40.4032 28.2121 8.71482 -40.4032 23.5841 16.3073 21.2771 23.5841 14.606 
34.1275 23.5841 8.71482 28.9871 23.5841 11.3063 -35.436 31.2942 8.71482 
-32.6931 32.7735 8.71482 -32.6931 31.2942 12.8255 -24.9831 35.8098 8.71482 
-17.2731 38.3717 8.71482 13.5671 31.2942 15.039 21.2771 36.7106 8.71482 
21.2771 31.2942 12.279 29.4733 31.2942 8.71482 28.9871 31.7541 8.71482 
28.9871 31.2942 8.99437 -13.7777 39.0042 8.71482 -9.56305 39.7252 8.71482 
-9.56305 39.0042 10.9702 -1.85302 40.464 8.71482 -1.85302 39.0042 11.9173 
5.85702 40.5644 8.71482 5.85702 39.0042 11.0906 15.4988 39.0042 8.71482 
13.5671 39.5515 8.71482 13.5671 39.0042 9.33893 -17.2731 -31.7033 16.4249 
-9.56305 -33.8868 16.4249 -1.85302 -35.9554 16.4249 5.85702 -37.1873 16.4249 
[...]
POINT_DATA 506
SCALARS ImageScalars float
LOOKUP_TABLE default
0 0 0 0 0 0 0 0 0 
0 0 0 0 0 0 0 0 0 
0 0 0 0 0 0 0 0 0 
0 0 0 0 0 0 0 0 0 
0 0 0 0 0 0 0 0 0 
0 0 0 0 0 0 0 0 0 
0 0 0 0 0 0 0 0 0 
0 0 0 0 0 0 0 0 0 
0 0 0 0 0 0 0 0 0 
0 0 0 0 0 0 0 0 0 
0 0 0 0 0 0 0 0 0 
0 0 0 0 0 0 0 0 0 
0 0 0 0 0 0 0 0 0 
0 0 0 0 0 0 0 0 0 
0 0 0 0 0 0 0 0 0 
0 0 0 0 0 0 0 0 0 
0 0 0 0 0 0 0 0 0 
0 0 0 0 0 0 0 0 0 
0 0 0 0 0 0 0 0 0 
0 0 0 0 0 0 0 0 0 
0 0 0 0 0 0 0 0 0 
0 0 0 0 0 0 0 0 0 
0 0 0 0 0 0 0 0 0 
0 0 0 0 0 0 0 0 0 
0 0 0 0 0 0 0 0 0 
0 0 0 0 0 0 0 0 0 
0 0 0 0 0 0 0 0 0 
0 0 0 0 0 0 0 0 0 
0 0 0 0 0 0 0 0 0 
0 0 0 0 0 0 0 0 0 
0 0 0 0 0 0 0 0 0 
0 0 0 0 0 0 0 0 0 
0 0 0 0 0 0 0 0 0 
0 0 0 0 0 0 0 0 0 
0 0 0 0 0 0 0 0 0 
0 0 0 0 0 0 0 0 0 
0 0 0 0 0 0 0 0 0 
0 0 0 0 0 0 0 0 0 
0 0 0 0 0 0 0 0 0 
0 0 0 0 0 0 0 0 0 
0 0 0 0 0 0 0 0 0 
0 0 0 0 0 0 0 0 0 
0 0 0 0 0 0 0 0 0 
0 0 0 0 0 0 0 0 0 
0 0 0 0 0 0 0 0 0 
0 0 0 0 0 0 0 0 0 
0 0 0 0 0 0 0 0 0 
0 0 0 0 0 0 0 0 0 
0 0 0 0 0 0 0 0 0 
0 0 0 0 0 0 0 0 0 
0 0 0 0 0 0 0 0 0 
0 0 0 0 0 0 0 0 0 
0 0 0 0 0 0 0 0 0 
0 0 0 0 0 0 0 0 0 
0 0 0 0 0 0 0 0 0 
0 0 0 0 0 0 0 0 0 
0 0 
NORMALS Normals float
0.167231 0.636691 0.752767 -0.0631469 0.580224 0.812005 -0.159698 0.565803 0.808927 
0.427897 0.559978 0.709456 0.281003 0.386074 0.878626 0.0846436 0.307335 0.947829 
-0.092289 0.269928 0.958447 -0.143417 0.28068 0.949026 -0.117091 0.3307 0.936444 
-0.119464 0.374409 0.919536 -0.222552 0.525602 0.821105 0.402362 0.442349 0.801519 
0.246347 0.298437 0.922089 0.168288 0.15081 0.974133 0.0381543 0.0777412 0.996243 
-0.0985212 0.0685949 0.992768 -0.110759 0.151773 0.98219 -0.051157 0.18203 0.981961 
-0.0143587 0.2269 0.973812 -0.0619423 0.319587 0.94553 -0.256386 0.44129 0.859959 
0.492032 0.283285 0.823197 0.279833 0.170164 0.944848 0.130472 0.0697471 0.988996 
0.0613013 0.0363436 0.997457 0.000445538 0.0133969 0.99991 -0.0240004 -0.0491349 0.998504 
-0.0329777 0.141171 0.989436 -0.039489 0.12819 0.990963 0.0173113 0.0807004 0.996588 
0.00737624 0.132393 0.99117 -0.101473 0.212635 0.971848 -0.389707 0.371418 0.84272 
0.409027 0.07461 0.909467 0.165448 -0.0252678 0.985895 0.113711 -0.103553 0.988103 
0.115956 -0.0858147 0.98954 -0.0484633 0.0517331 0.997484 0.0266178 -0.0843739 0.996079 
0.0754254 0.0906695 0.993021 -0.121498 0.0194235 0.992402 0.00159497 -0.0205258 0.999788 
0.0859152 0.0380464 0.995576 -0.0361088 0.0915708 0.995144 -0.268532 0.126244 0.954962 
-0.737521 0.239963 0.631253 0.316509 -0.0445515 0.947543 0.116903 -0.060107 0.991323 
0.0695805 -0.076066 0.994672 0.226092 -0.112378 0.967602 0.00114103 -0.0222732 0.999751 
-0.00394571 0.05274 0.9986 0.0757283 -0.0446442 0.996129 -0.15161 -0.0704281 0.985928 
0.044592 0.00286725 0.999001 0.123257 0.0162311 0.992242 -0.00692379 0.0220424 0.999733 
-0.232333 0.0221195 0.972385 -0.704984 0.0197099 0.70895 0.344043 -0.144056 0.927837 
0.152665 -0.0867899 0.98446 0.0579139 -0.0289754 0.997901 0.164323 -0.00724502 0.98638 
0.112888 -0.0947233 0.989082 0.0122317 0.0818658 0.996568 -0.044138 -0.0929363 0.994693 
-0.0704444 0.0273099 0.997142 0.0827953 0.0921175 0.9923 0.105529 0.0426694 0.9935 
-0.0341518 0.00426723 0.999408 -0.267274 -0.012217 0.963543 -0.764709 -0.188207 0.616278 
0.229144 -0.21657 0.948995 0.145675 -0.13251 0.980418 0.155111 -0.0702708 0.985395 
0.0986755 -0.112907 0.988694 0.0117788 -0.0244123 0.999633 0.00469218 -0.0214388 0.999759 
0.0363633 0.0714341 0.996782 0.0583852 0.0982864 0.993444 0.0379557 -0.004819 0.999268 
-0.04682 -0.108799 0.992961 -0.398324 -0.178101 0.899788 0.207838 -0.417617 0.884534 
0.182052 -0.359228 0.915321 0.157103 -0.296087 0.942152 0.103636 -0.183569 0.977529 
0.0517157 -0.0887356 0.994712 0.0500372 -0.0506344 0.997463 0.0037173 -0.0305845 0.999525 
-0.0927182 -0.131302 0.986997 -0.21474 -0.225562 0.950268 -0.588004 -0.461396 0.664353 
0.280642 -0.643637 0.71202 0.237505 -0.496802 0.834733 0.149809 -0.365987 0.918483 
0.0845415 -0.28997 0.953294 -0.0283463 -0.272316 0.96179 -0.157427 -0.340703 0.926897 
-0.434731 -0.53784 0.722313 0.116325 -0.672188 0.731185 -0.0475148 -0.669228 0.741537 
-0.292183 -0.779405 0.554217 0.17589 0.691546 0.70059 -0.0494757 0.655495 0.753577 
-0.159493 0.570136 0.80592 0.430064 0.56398 0.704962 0.268245 0.669455 0.69273 
0.37214 0.610715 0.698956 0.423346 0.759903 0.493281 -0.15841 0.567065 0.808297 
-0.128927 0.494027 0.859834 -0.141068 0.612917 0.777453 -0.15611 0.497202 0.853475 
-0.230316 0.688939 0.687254 -0.232366 0.534202 0.812794 0.43061 0.563591 0.704939 
0.438128 0.50451 0.743984 0.559957 0.764578 0.319168 -0.247596 0.54259 0.802678 
-0.357792 0.577795 0.733579 -0.492281 0.714165 0.497622 0.455193 0.47696 0.75187 
0.506063 0.319557 0.801114 0.612882 0.638092 0.466062 -0.501795 0.580437 0.641323 
-0.518131 0.579408 0.629148 -0.549351 0.603324 0.578112 0.511131 0.291259 0.808649 
0.781242 0.443356 0.439428 -0.661266 0.469508 0.585055 -0.752679 0.372198 0.543087 
-0.857095 0.477609 0.193073 0.504806 0.127564 0.853756 0.66988 0.211459 0.71172 
-0.823813 0.237228 0.514835 0.436285 -0.0214214 0.899554 0.575087 0.00185975 0.81809 
-0.867148 0.018692 0.4977 0.407144 -0.162069 0.89887 0.608885 -0.204651 0.766405 
0.389449 -0.24442 0.888025 -0.862546 -0.189349 0.469214 -0.79974 -0.352006 0.486321 
0.699181 -0.407175 0.587669 0.374385 -0.275567 0.88538 0.41826 -0.29786 0.858101 
0.303343 -0.441237 0.844567 -0.78215 -0.382398 0.491948 -0.874394 -0.400893 0.273348 
0.501019 -0.611876 0.612035 0.29115 -0.481582 0.826626 0.324856 -0.514621 0.793495 
0.227018 -0.534133 0.814349 0.232681 -0.600525 0.765003 -0.733217 -0.476773 0.48485 
-0.662258 -0.549653 0.509211 0.220848 -0.839107 0.497118 0.27842 -0.661164 0.696667 
0.246435 -0.783908 0.569876 0.287474 -0.661166 0.692978 0.296152 -0.658622 0.691745 
0.240649 -0.703337 0.668884 -0.572165 -0.619067 0.537943 -0.490974 -0.668861 0.558184 
0.354597 -0.871632 0.338406 0.199903 -0.720363 0.664165 0.254494 -0.762685 0.594596 
0.120329 -0.721565 0.68181 -0.0740898 -0.744241 0.663789 -0.295163 -0.781181 0.550123 
-0.292427 -0.782492 0.549721 0.432373 0.872883 0.226116 0.246698 0.944579 0.216589 
0.0625206 0.960853 0.269913 -0.057217 0.922806 0.380992 0.0272625 0.999628 -0.00111353 
-0.181099 0.861021 0.475233 -0.303205 0.858574 0.413422 0.562082 0.772695 0.294967 
0.491778 0.832874 0.253918 0.53293 0.797895 0.28169 -0.492869 0.797299 0.348418 
-0.493461 0.79707 0.348102 -0.495546 0.798233 0.342429 -0.585891 0.786131 0.1968 
0.5656 0.769893 0.295568 0.630393 0.706073 0.322592 -0.629809 0.757644 0.171217 
-0.715458 0.693165 0.0874191 0.662608 0.672523 0.329641 0.787037 0.473609 0.395306 
-0.782844 0.621649 0.0266212 -0.882181 0.469358 -0.0382179 0.796554 0.45297 0.400399 
-0.895926 0.440748 -0.0552902 -0.893996 0.406517 -0.188456 0.838796 0.259459 0.478646 
-0.971444 0.198223 -0.130396 -0.862818 0.0941403 -0.496671 0.86443 0.0411902 0.501063 
0.980404 0.061405 0.187185 -0.980915 -0.030733 -0.191994 -0.815353 0.0079398 -0.57891 
0.827256 -0.209871 0.521155 -0.964429 -0.206784 -0.164672 -0.808332 -0.1527 -0.568579 
0.741531 -0.419092 0.523921 0.713494 -0.476518 0.513671 -0.912259 -0.367954 -0.179981 
-0.904392 -0.391983 -0.168597 -0.890562 -0.369685 -0.265014 0.584785 -0.659503 0.472315 
0.514277 -0.724863 0.458358 0.327404 -0.829902 0.45174 -0.863669 -0.476404 -0.164664 
-0.779314 -0.622395 -0.0727606 -0.746057 -0.361613 -0.559138 0.26625 -0.856003 0.443137 
0.346428 -0.880511 0.323557 0.220129 -0.866832 0.447377 0.233416 -0.879328 0.415091 
0.31859 -0.876604 0.360645 -0.759565 -0.648442 -0.0508325 -0.582909 -0.812479 0.00973398 
0.351622 -0.885778 0.30292 0.357032 -0.886931 0.293056 0.280021 -0.930938 0.234399 
0.0922889 -0.980695 0.172397 -0.134709 -0.986194 0.0963089 -0.516613 -0.855831 0.0257823 
-0.361726 -0.931124 0.0465 0.0376013 0.998012 -0.05057 0.402304 0.908651 -0.111825 
0.261878 0.953094 -0.151764 0.0579976 0.996322 -0.0630733 0.140862 0.983341 -0.114886 
-0.154056 0.987789 -0.0232395 0.0381523 0.996332 -0.0765923 -0.156705 0.987381 -0.0228495 
-0.371512 0.92751 -0.0412707 -0.568345 0.817812 -0.0903771 0.572274 0.819235 -0.0368399 
0.479032 0.874699 -0.073685 0.507954 0.859453 -0.0576565 -0.61027 0.784622 -0.10926 
-0.594811 0.74895 -0.292018 -0.672071 0.683086 -0.285855 0.586859 0.808953 -0.0345133 
0.638025 0.769549 -0.0268201 0.545937 0.78575 -0.290773 -0.688686 0.656911 -0.306888 
-0.660266 0.622431 -0.420272 -0.749069 0.48516 -0.451128 0.694511 0.719148 -0.0219027 
0.780306 0.625369 0.00595134 -0.749596 0.479884 -0.45587 -0.747122 0.475038 -0.464917 
0.833151 0.552587 0.0225221 -0.790503 0.292981 -0.537835 -0.658388 0.244917 -0.711717 
0.94297 0.326976 0.0624061 0.984521 0.140904 0.104233 -0.791402 0.0565713 -0.608673 
-0.58251 0.0100044 -0.812762 0.990419 0.0635236 0.122618 0.987117 -0.130341 0.0927921 
0.97199 0.0707093 -0.224132 -0.735811 -0.00403594 -0.677175 -0.558068 -0.11284 -0.822087 
0.971944 -0.22141 0.0793836 -0.718559 -0.140158 -0.681197 -0.541632 -0.166898 -0.823881 
0.881693 -0.459691 0.106312 0.741906 -0.663258 0.0983097 -0.488103 -0.132918 -0.862605 
-0.674764 -0.30316 -0.672894 -0.692784 -0.319832 -0.646342 -0.605055 -0.251331 -0.755474 
0.691563 -0.716167 0.09405 0.535752 -0.836851 0.112475 -0.706368 -0.331231 -0.625564 
-0.526616 -0.239247 -0.815743 0.431538 -0.892683 0.129969 0.376008 -0.915002 0.146249 
0.250435 -0.946395 0.20401 0.22092 -0.940775 0.257172 0.25806 -0.945202 0.199996 
-0.621737 -0.522209 -0.58373 -0.580411 -0.595588 -0.555336 -0.579753 -0.509181 -0.636098 
0.257075 -0.948806 0.183521 0.228104 -0.965515 0.125497 0.253627 -0.965921 0.0516638 
0.168972 -0.979655 -0.10828 0.0114091 -0.966481 -0.256486 -0.228806 -0.896135 -0.380249 
-0.278562 -0.732469 -0.621202 -0.447838 -0.766688 -0.460034 -0.422304 -0.78589 -0.451704 
-0.421903 -0.759249 -0.495519 0.33588 0.841073 -0.424006 0.231135 0.854742 -0.464749 
0.157421 0.874976 -0.45786 0.0408741 0.89609 -0.441987 -0.165045 0.865645 -0.472672 
-0.387568 0.759156 -0.522946 0.353007 0.837844 -0.416417 0.451718 0.809462 -0.375131 
0.328942 0.82618 -0.45741 0.213296 0.74983 -0.626307 0.137137 0.683606 -0.716851 
0.000846968 0.630954 -0.775819 -0.204098 0.627283 -0.751572 -0.497851 0.679024 -0.539509 
-0.381577 0.657399 -0.649789 -0.583886 0.5726 -0.575505 0.597561 0.723428 -0.345792 
0.527177 0.77131 -0.356603 0.533198 0.767787 -0.355251 0.364142 0.654837 -0.66226 
-0.406413 0.330927 -0.851655 -0.604683 0.466226 -0.645749 -0.561424 0.400161 -0.724344 
-0.61454 0.379323 -0.691704 0.620294 0.707367 -0.338921 0.751342 0.583174 -0.308858 
0.576518 0.693827 -0.431544 -0.442037 0.252193 -0.860815 -0.621777 0.344322 -0.703446 
-0.602741 0.333315 -0.724986 0.770376 0.555569 -0.312832 0.744894 0.541423 -0.389865 
-0.605257 0.181981 -0.77495 -0.550344 0.126441 -0.825309 0.882215 0.352037 -0.312676 
-0.545435 -0.01018 -0.838092 -0.507918 -0.0486677 -0.86003 0.958656 0.0710828 -0.275548 
-0.410831 -0.186565 -0.892419 -0.508787 -0.130342 -0.850968 -0.474391 -0.150698 -0.86732 
0.931511 -0.227454 -0.283815 -0.399405 -0.14989 -0.904438 -0.470797 -0.151499 -0.869137 
-0.480732 -0.135529 -0.866331 -0.451646 -0.149401 -0.8796 0.848378 -0.446305 -0.284721 
0.742987 -0.61859 -0.255572 0.717528 -0.412499 -0.561247 -0.34928 -0.112289 -0.930266 
-0.483549 -0.131451 -0.86539 -0.41724 -0.119169 -0.900949 0.679974 -0.692184 -0.241903 
0.573391 -0.793425 -0.204205 0.542705 -0.561492 -0.624659 -0.352573 -0.190345 -0.916221 
-0.479424 -0.209874 -0.852118 -0.424191 -0.192886 -0.884792 0.471596 -0.866548 -0.163376 
0.425214 -0.892873 -0.148227 0.451635 -0.815042 -0.362949 0.338875 -0.938209 -0.0701922 
0.248931 -0.967799 -0.037384 -0.32301 -0.403763 -0.855944 -0.300383 -0.615281 -0.728834 
-0.338329 -0.398929 -0.852284 -0.455102 -0.408857 -0.791023 -0.445488 -0.42262 -0.789261 
-0.44637 -0.40623 -0.797327 0.1965 -0.978566 -0.0616187 0.132638 -0.98686 -0.0922704 
0.107872 -0.970365 -0.216232 0.0521104 -0.968653 -0.242892 -0.0140931 -0.91257 -0.408678 
-0.0477993 -0.895488 -0.442512 -0.108025 -0.832938 -0.54272 -0.209454 -0.735451 -0.644392 
-0.179759 -0.761103 -0.623225 -0.191007 -0.742089 -0.642511 0.20683 0.5628 -0.800299 
0.162467 0.554858 -0.815927 0.118296 0.578697 -0.806917 -0.00301139 0.584723 -0.811227 
-0.207418 0.506206 -0.837098 0.400794 0.557159 -0.727281 0.255991 0.56919 -0.781339 
0.30768 0.559984 -0.769254 0.191877 0.520845 -0.831807 0.135317 0.429303 -0.892966 
0.0827122 0.365768 -0.927023 -0.0329095 0.321492 -0.94634 -0.400446 0.329225 -0.855134 
-0.208433 0.29467 -0.93259 -0.402033 0.322094 -0.857103 0.413057 0.552628 -0.723869 
0.45994 0.511587 -0.725764 0.378707 0.524323 -0.762671 0.201048 0.370945 -0.906631 
0.0907087 0.284764 -0.954296 0.0522601 0.222791 -0.973464 0.0261946 0.150175 -0.988312 
-0.0748068 0.0796382 -0.994013 -0.205813 0.076745 -0.975577 -0.379475 0.205837 -0.902014 
-0.315865 0.151621 -0.936611 -0.39922 0.0897883 -0.912448 0.512385 0.46035 -0.724941 
0.647795 0.31768 -0.692417 0.42263 0.448342 -0.787638 0.216419 0.331068 -0.918453 
0.0982587 0.220858 -0.970344 0.0425106 0.176403 -0.9834 -0.00199716 0.189702 -0.98184 
-0.0644219 0.0974921 -0.993149 -0.113873 -0.0175018 -0.993341 -0.155503 0.00322843 -0.98783 
-0.240508 0.064188 -0.968522 -0.399832 0.0830904 -0.912815 -0.397592 0.0829577 -0.913804 
0.648073 0.317138 -0.692405 0.647486 0.316933 -0.693048 0.329152 0.241181 -0.912957 
0.102236 0.191155 -0.976221 0.0259079 0.150124 -0.988328 0.0583517 0.118063 -0.99129 
-0.0207898 0.137562 -0.990275 -0.183569 0.0996636 -0.977941 -0.169785 0.0860978 -0.981713 
-0.128849 0.0356351 -0.991024 -0.235405 -0.040585 -0.97105 -0.408933 -0.0832286 -0.908761 
-0.4072 -0.0902608 -0.908868 -0.406154 -0.0835635 -0.909976 0.690471 0.0832034 -0.718559 
0.580385 0.0712911 -0.811215 0.299861 0.0880315 -0.949913 0.123577 0.0501273 -0.991068 
0.0214457 0.080151 -0.996552 0.0270725 0.0584875 -0.997921 -0.11257 0.0337969 -0.993069 
-0.168859 0.129463 -0.977101 -0.283478 -0.00732599 -0.958951 -0.390865 -0.1828 -0.902114 
-0.35657 -0.164365 -0.919697 0.688054 -0.191032 -0.700063 0.669633 -0.300769 -0.679065 
0.627906 -0.167899 -0.759963 0.326737 -0.0674382 -0.942706 0.0819165 -0.0226227 -0.996382 
-0.0462389 -0.0401208 -0.998124 -0.0431655 -0.0388587 -0.998312 -0.200935 -0.0803223 -0.976306 
-0.415465 -0.15834 -0.895722 -0.388014 -0.160801 -0.907518 -0.385621 -0.158295 -0.908977 
-0.3881 -0.16099 -0.907447 0.644739 -0.379704 -0.663428 0.540487 -0.555463 -0.631929 
0.412168 -0.328505 -0.849824 0.212168 -0.131347 -0.968366 -0.0981824 -0.0243807 -0.99487 
-0.15131 -0.0852779 -0.984801 -0.287685 -0.198062 -0.937021 -0.348808 -0.125916 -0.928697 
-0.353665 -0.166041 -0.920517 0.539542 -0.557942 -0.630551 0.45328 -0.682093 -0.573835 
0.365392 -0.421767 -0.82982 0.139965 -0.253868 -0.957058 0.00518433 -0.204925 -0.978764 
-0.113763 -0.145584 -0.982783 -0.216714 -0.181608 -0.959194 -0.303208 -0.207554 -0.930046 
-0.327655 -0.189783 -0.92554 -0.32415 -0.268349 -0.907147 -0.318967 -0.189782 -0.92857 
0.418458 -0.733421 -0.535711 0.339393 -0.796449 -0.500481 0.320304 -0.674394 -0.66528 
0.16939 -0.830633 -0.530431 0.103779 -0.582357 -0.806282 0.0087183 -0.809875 -0.586538 
-0.063067 -0.483164 -0.873255 -0.136902 -0.686303 -0.714315 -0.19509 -0.449414 -0.871761 
-0.301621 -0.401822 -0.864618 -0.250524 -0.510807 -0.822383 -0.269556 -0.408014 -0.872275 
-0.0208082 0.101582 -0.99461 0.0235699 0.0692012 -0.997324 0.0169847 0.0447444 -0.998854 
0.0061992 0.0509365 -0.998683 -0.0632468 0.0108064 -0.997939 -0.0365579 -0.0273631 -0.998957 
-0.0210998 -0.00873815 -0.999739 0.0507851 0.00241684 -0.998707 0.0335812 0.0173541 -0.999285 
-0.0368731 0.00582947 -0.999303 -0.0301248 0.0376367 -0.998837 0.108661 -0.0713151 -0.991517 
0.0934334 -0.102835 -0.9903 0.0807804 -0.0596286 -0.994947 -0.075637 -0.0212568 -0.996909 
-3.54582e-05 -0.17929 -0.983796 -0.0306482 -0.014136 -0.99943 
