# vtk DataFile Version 4.2
vtk output
ASCII
DATASET POLYDATA
POINTS 536 float
-36.9714 -26.8161 -14.8968 -29.035 -26.8161 -14.1409 -44.9078 -18.8797 -15.3619 
-36.9714 -18.8797 -15.7838 -29.035 -18.8797 -15.5212 -21.0986 -18.8797 -14.6126 
-44.9078 -10.9433 -15.0684 -36.9714 -10.9433 -16.9725 -29.035 -10.9433 -16.0563 
-21.0986 -10.9433 -15.2104 -13.1622 -10.9433 -14.1695 -5.22581 -10.9433 -16.1471 
2.71058 -10.9433 -16.9296 10.647 -10.9433 -14.1345 -44.9078 -3.00694 -15.4071 
-36.9714 -3.00694 -16.3598 -29.035 -3.00694 -16.0928 -21.0986 -3.00694 -14.904 
-13.1622 -3.00694 -15.2684 -5.22581 -3.00694 -18.03 2.71058 -3.00694 -16.1268 
10.647 -3.00694 -18.8702 18.5834 -3.00694 -16.5625 -44.9078 4.92946 -15.7235 
-36.9714 4.92946 -16.8414 -29.035 4.92946 -16.9199 -21.0986 4.92946 -16.5175 
-13.1622 4.92946 -16.1321 -5.22581 4.92946 -19.9871 2.71058 4.92946 -19.6945 
10.647 4.92946 -18.2997 18.5834 4.92946 -19.1578 26.5198 4.92946 -14.9448 
-44.9078 12.8658 -15.5205 -36.9714 12.8658 -17.4317 -29.035 12.8658 -18.2099 
-21.0986 12.8658 -18.0713 -13.1622 12.8658 -17.6249 -5.22581 12.8658 -18.1382 
2.71058 12.8658 -18.6855 10.647 12.8658 -17.8945 18.5834 12.8658 -18.4287 
26.5198 12.8658 -16.2517 -44.9078 20.8022 -15.502 -36.9714 20.8022 -18.0964 
-29.035 20.8022 -19.0954 -21.0986 20.8022 -19.1467 -13.1622 20.8022 -18.8343 
-5.22581 20.8022 -18.5907 2.71058 20.8022 -18.0993 10.647 20.8022 -18.1649 
18.5834 20.8022 -18.0925 26.5198 20.8022 -16.3026 -36.9714 28.7386 -15.9862 
-29.035 28.7386 -18.387 -21.0986 28.7386 -19.6536 -13.1622 28.7386 -19.3734 
-5.22581 28.7386 -19.3582 2.71058 28.7386 -18.9081 10.647 28.7386 -18.3395 
18.5834 28.7386 -17.7126 26.5198 28.7386 -15.4999 -29.035 36.675 -15.8703 
-21.0986 36.675 -17.9664 -13.1622 36.675 -18.7776 -5.22581 36.675 -19.0418 
2.71058 36.675 -18.6146 10.647 36.675 -17.6014 18.5834 36.675 -16.5151 
26.5198 36.675 -14.2565 -21.0986 44.6114 -14.56 -13.1622 44.6114 -15.8599 
-5.22581 44.6114 -16.737 2.71058 44.6114 -16.4553 10.647 44.6114 -14.9868 
-36.9714 -42.6889 -6.71464 -29.035 -42.6889 -7.26217 -21.0986 -42.6889 -7.0574 
-13.1622 -42.6889 -6.9514 -5.22581 -42.6889 -7.52709 2.71058 -42.6889 -7.59015 
10.647 -42.6889 -7.41034 18.5834 -42.6889 -6.6432 -44.9078 -34.7525 -8.92619 
-36.9714 -30.0725 -13.481 -36.9714 -34.7525 -11.3148 -29.035 -28.7569 -13.481 
-29.035 -34.7525 -11.216 -21.0986 -34.7525 -10.5683 -13.1622 -34.7525 -10.1854 
-5.22581 -34.7525 -10.298 2.71058 -34.7525 -10.5021 10.647 -34.7525 -10.9488 
18.5834 -34.7525 -10.1597 26.5198 -34.7525 -9.54659 34.4562 -34.7525 -7.60994 
42.3925 -34.7525 -6.03171 -52.8442 -26.8161 -9.03803 -42.2294 -26.8161 -13.481 
-44.9078 -24.7112 -13.481 -44.9078 -26.8161 -12.6753 -24.396 -26.8161 -13.481 
-21.0986 -24.5178 -13.481 -21.0986 -26.8161 -13.0125 -13.1622 -26.8161 -11.5536 
-5.22581 -26.8161 -10.9938 2.71058 -26.8161 -11.5158 10.647 -26.8161 -11.9379 
18.5834 -26.8161 -11.4572 26.5198 -26.8161 -11.3872 34.4562 -26.8161 -9.55427 
42.3925 -26.8161 -7.89763 -48.655 -18.8797 -13.481 -52.8442 -18.8797 -10.5275 
-17.1381 -18.8797 -13.481 -13.1622 -13.7744 -13.481 -13.1622 -18.8797 -12.3423 
-5.22581 -14.5499 -13.481 -5.22581 -18.8797 -11.3073 2.71058 -16.5024 -13.481 
2.71058 -18.8797 -12.1904 10.647 -12.689 -13.481 10.647 -18.8797 -12.0419 
18.5834 -18.8797 -11.4673 26.5198 -18.8797 -11.3579 34.4562 -18.8797 -10.6724 
42.3925 -18.8797 -9.34849 50.3289 -18.8797 -5.55595 -50.1796 -10.9433 -13.481 
-52.8442 -10.9433 -12.6396 12.1025 -10.9433 -13.481 18.5834 -7.09437 -13.481 
18.5834 -10.9433 -11.7564 26.5198 -10.9433 -11.8376 34.4562 -10.9433 -10.803 
42.3925 -10.9433 -9.45786 50.3289 -10.9433 -6.64395 -51.4915 -3.00694 -13.481 
-52.8442 -3.00694 -13.0672 24.3376 -3.00694 -13.481 26.5198 -0.182988 -13.481 
26.5198 -3.00694 -12.667 34.4562 -3.00694 -11.2487 42.3925 -3.00694 -9.87831 
50.3289 -3.00694 -7.26078 -51.787 4.92946 -13.481 -52.8442 4.92946 -13.1004 
31.0683 4.92946 -13.481 34.4562 4.92946 -12.4512 42.3925 4.92946 -10.3346 
50.3289 4.92946 -7.02545 -49.9414 12.8658 -13.481 -52.8442 12.8658 -11.9886 
34.0568 12.8658 -13.481 34.4562 12.8658 -13.3346 42.3925 12.8658 -10.3469 
50.3289 12.8658 -5.96322 -48.175 20.8022 -13.481 -52.8442 20.8022 -8.78344 
-44.9078 26.0898 -13.481 33.9714 20.8022 -13.481 34.4562 20.8022 -13.299 
42.3925 20.8022 -9.44518 50.3289 20.8022 -5.77698 -42.3325 28.7386 -13.481 
-44.9078 28.7386 -11.7777 -36.9714 34.6599 -13.481 31.1348 28.7386 -13.481 
34.4562 28.7386 -11.7833 42.3925 28.7386 -6.7338 -34.7925 36.675 -13.481 
-36.9714 36.675 -12.0912 -29.035 40.5048 -13.481 18.5834 43.897 -13.481 
27.7684 36.675 -13.481 26.5198 37.9136 -13.481 34.4562 36.675 -7.33883 
-23.5771 44.6114 -13.481 -29.035 44.6114 -8.54989 -21.0986 45.8575 -13.481 
-13.1622 47.5317 -13.481 -5.22581 48.9431 -13.481 2.71058 48.953 -13.481 
17.2237 44.6114 -13.481 10.647 46.6913 -13.481 18.5834 44.6114 -13.049 
26.5198 44.6114 -5.81029 -5.22581 52.5478 -8.35302 2.71058 52.5478 -9.142 
10.647 52.5478 -6.19247 -36.9714 -43.768 -5.54457 -29.035 -44.0588 -5.54457 
-21.0986 -44.5161 -5.54457 -13.1622 -44.5811 -5.54457 -5.22581 -45.2918 -5.54457 
-5.22581 -50.6253 1.88299 2.71058 -46.0454 -5.54457 2.71058 -50.6253 2.05 
10.647 -45.466 -5.54457 18.5834 -43.9356 -5.54457 -39.3038 -42.6889 -5.54457 
-44.9078 -38.2978 -5.54457 22.4563 -42.6889 -5.54457 26.5198 -41.4238 -5.54457 
26.5198 -42.6889 -4.13941 34.4562 -38.6737 -5.54457 34.4562 -42.6889 -1.25558 
42.3925 -35.4374 -5.54457 -48.4788 -34.7525 -5.54457 -52.8442 -30.6504 -5.54457 
43.2018 -34.7525 -5.54457 -55.4859 -26.8161 -5.54457 48.8655 -26.8161 -5.54457 
50.3289 -19.0527 -5.54457 50.3289 -26.8161 -4.91813 -57.6782 -18.8797 -5.54457 
50.3518 -18.8797 -5.54457 58.2653 -18.8797 0.0215945 -59.9586 -10.9433 -5.54457 
52.5667 -10.9433 -5.54457 58.2653 -10.9433 -1.54948 -60.6199 -3.00694 -5.54457 
53.5064 -3.00694 -5.54457 58.2653 -3.00694 -1.90262 -60.1508 4.92946 -5.54457 
52.8551 4.92946 -5.54457 58.2653 4.92946 -1.09729 -58.3204 12.8658 -5.54457 
50.9223 12.8658 -5.54457 58.2653 12.8658 2.17859 -55.0946 20.8022 -5.54457 
-52.8442 24.5183 -5.54457 50.6072 20.8022 -5.54457 50.3289 21.3155 -5.54457 
-49.8359 28.7386 -5.54457 -44.9078 34.3226 -5.54457 43.9517 28.7386 -5.54457 
42.3925 30.311 -5.54457 -42.4 36.675 -5.54457 -36.9714 41.0628 -5.54457 
36.6919 36.675 -5.54457 34.4562 38.3961 -5.54457 -31.5104 44.6114 -5.54457 
-29.035 46.0526 -5.54457 -29.035 44.6114 -1.54149 -21.0986 49.9173 -5.54457 
-13.1622 52.3026 -5.54457 18.5834 49.5953 -5.54457 26.7744 44.6114 -5.54457 
26.5198 44.7873 -5.54457 26.5198 44.6114 -4.57451 -11.8899 52.5478 -5.54457 
-5.22581 53.774 -5.54457 -5.22581 52.5478 -2.05054 2.71058 54.2037 -5.54457 
2.71058 52.5478 -0.0739976 11.4824 52.5478 -5.54457 10.647 52.8592 -5.54457 
10.647 52.5478 -4.52636 -5.22581 -50.8297 2.39182 2.71058 -50.7374 2.39182 
-36.9714 -44.7843 2.39182 -29.035 -48.2708 2.39182 -21.0986 -49.8093 2.39182 
-8.91023 -50.6253 2.39182 -13.1622 -50.364 2.39182 -5.22581 -50.6253 3.11108 
3.80978 -50.6253 2.39182 2.71058 -50.6253 2.76325 10.647 -49.8795 2.39182 
18.5834 -48.6571 2.39182 26.5198 -46.6234 2.39182 34.4562 -44.2011 2.39182 
-40.1011 -42.6889 2.39182 -44.9078 -38.7127 2.39182 -36.9714 -42.6889 5.53771 
37.5834 -42.6889 2.39182 34.4562 -42.6889 7.28605 42.3925 -40.1963 2.39182 
-48.5122 -34.7525 2.39182 -52.8442 -27.059 2.39182 -44.9078 -34.7525 5.94547 
49.4237 -34.7525 2.39182 50.3289 -33.8851 2.39182 -52.9736 -26.8161 2.39182 
-52.8442 -26.8161 2.52734 -44.9078 -26.8161 8.66325 55.8779 -26.8161 2.39182 
58.2653 -22.0208 2.39182 -55.8914 -18.8797 2.39182 -52.8442 -18.8797 5.40417 
59.6326 -18.8797 2.39182 58.2653 -18.8797 9.71362 -58.0422 -10.9433 2.39182 
-52.8442 -10.9433 7.33124 -44.9078 -10.9433 10.1487 60.6534 -10.9433 2.39182 
-58.1638 -3.00694 2.39182 -52.8442 -3.00694 7.23506 60.8651 -3.00694 2.39182 
-58.2623 4.92946 2.39182 -52.8442 4.92946 7.65904 60.3363 4.92946 2.39182 
-56.7352 12.8658 2.39182 -52.8442 12.8658 6.14279 -44.9078 12.8658 10.0089 
58.3847 12.8658 2.39182 58.2653 13.2436 2.39182 58.2653 12.8658 2.99405 
-53.0546 20.8022 2.39182 -52.8442 21.155 2.39182 -52.8442 20.8022 2.64094 
-44.9078 20.8022 9.27847 55.4965 20.8022 2.39182 50.3289 27.8632 2.39182 
-47.4708 28.7386 2.39182 -44.9078 31.5787 2.39182 -44.9078 28.7386 4.88628 
-36.9714 28.7386 10.2783 49.5438 28.7386 2.39182 42.3925 35.1394 2.39182 
-39.3053 36.675 2.39182 -36.9714 38.4581 2.39182 -36.9714 36.675 4.33749 
-29.035 42.7034 2.39182 -29.035 36.675 8.07046 -21.0986 36.675 9.27516 
26.5198 43.177 2.39182 26.5198 36.675 9.61388 39.7445 36.675 2.39182 
34.4562 39.3894 2.39182 34.4562 36.675 6.69338 -25.2192 44.6114 2.39182 
-21.0986 46.2266 2.39182 -21.0986 44.6114 4.16084 -13.1622 48.8403 2.39182 
-13.1622 44.6114 6.74 -5.22581 50.5056 2.39182 -5.22581 44.6114 8.5308 
2.71058 51.4927 2.39182 2.71058 44.6114 8.31133 10.647 49.8519 2.39182 
10.647 44.6114 8.22491 24.0453 44.6114 2.39182 18.5834 47.2445 2.39182 
18.5834 44.6114 5.43221 -29.035 -43.1164 10.3282 -21.0986 -44.3229 10.3282 
-13.1622 -46.557 10.3282 -5.22581 -47.3903 10.3282 2.71058 -46.9617 10.3282 
10.647 -46.0496 10.3282 18.5834 -43.9657 10.3282 26.5198 -43.7559 10.3282 
-29.856 -42.6889 10.3282 -36.9714 -36.6238 10.3282 -29.035 -42.6889 10.6429 
-21.0986 -42.6889 11.5422 -13.1622 -42.6889 12.7971 -5.22581 -42.6889 13.4688 
2.71058 -42.6889 13.3457 10.647 -42.6889 12.6941 18.5834 -42.6889 11.5966 
30.6303 -42.6889 10.3282 26.5198 -42.6889 11.3996 34.4562 -40.9649 10.3282 
42.3925 -36.3113 10.3282 -38.5538 -34.7525 10.3282 -36.9714 -34.7525 11.1087 
-29.035 -34.7525 13.3942 -21.0986 -34.7525 14.3099 -13.1622 -34.7525 15.7143 
-5.22581 -34.7525 16.2067 2.71058 -34.7525 16.1324 10.647 -34.7525 15.7508 
18.5834 -34.7525 15.7467 26.5198 -34.7525 15.4334 34.4562 -34.7525 14.7991 
44.8326 -34.7525 10.3282 42.3925 -34.7525 11.8222 50.3289 -31.2259 10.3282 
-41.0799 -26.8161 10.3282 -44.9078 -21.4804 10.3282 -36.9714 -26.8161 11.7715 
[...]
POINT_DATA 536
SCALARS ImageScalars float
LOOKUP_TABLE default
0 0 0 0 0 0 0 0 0 
0 0 0 0 0 0 0 0 0 
0 0 0 0 0 0 0 0 0 
0 0 0 0 0 0 0 0 0 
0 0 0 0 0 0 0 0 0 
0 0 0 0 0 0 0 0 0 
0 0 0 0 0 0 0 0 0 
0 0 0 0 0 0 0 0 0 
0 0 0 0 0 0 0 0 0 
0 0 0 0 0 0 0 0 0 
0 0 0 0 0 0 0 0 0 
0 0 0 0 0 0 0 0 0 
0 0 0 0 0 0 0 0 0 
0 0 0 0 0 0 0 0 0 
0 0 0 0 0 0 0 0 0 
0 0 0 0 0 0 0 0 0 
0 0 0 0 0 0 0 0 0 
0 0 0 0 0 0 0 0 0 
0 0 0 0 0 0 0 0 0 
0 0 0 0 0 0 0 0 0 
0 0 0 0 0 0 0 0 0 
0 0 0 0 0 0 0 0 0 
0 0 0 0 0 0 0 0 0 
0 0 0 0 0 0 0 0 0 
0 0 0 0 0 0 0 0 0 
0 0 0 0 0 0 0 0 0 
0 0 0 0 0 0 0 0 0 
0 0 0 0 0 0 0 0 0 
0 0 0 0 0 0 0 0 0 
0 0 0 0 0 0 0 0 0 
0 0 0 0 0 0 0 0 0 
0 0 0 0 0 0 0 0 0 
0 0 0 0 0 0 0 0 0 
0 0 0 0 0 0 0 0 0 
0 0 0 0 0 0 0 0 0 
0 0 0 0 0 0 0 0 0 
0 0 0 0 0 0 0 0 0 
0 0 0 0 0 0 0 0 0 
0 0 0 0 0 0 0 0 0 
0 0 0 0 0 0 0 0 0 
0 0 0 0 0 0 0 0 0 
0 0 0 0 0 0 0 0 0 
0 0 0 0 0 0 0 0 0 
0 0 0 0 0 0 0 0 0 
0 0 0 0 0 0 0 0 0 
0 0 0 0 0 0 0 0 0 
0 0 0 0 0 0 0 0 0 
0 0 0 0 0 0 0 0 0 
0 0 0 0 0 0 0 0 0 
0 0 0 0 0 0 0 0 0 
0 0 0 0 0 0 0 0 0 
0 0 0 0 0 0 0 0 0 
0 0 0 0 0 0 0 0 0 
0 0 0 0 0 0 0 0 0 
0 0 0 0 0 0 0 0 0 
0 0 0 0 0 0 0 0 0 
0 0 0 0 0 0 0 0 0 
0 0 0 0 0 0 0 0 0 
0 0 0 0 0 0 0 0 0 
0 0 0 0 0 
NORMALS Normals float
0.0746435 0.26465 0.961451 -0.119976 0.245517 0.961939 0.261857 0.122987 0.957238 
0.0144916 0.135589 0.990659 -0.0721807 0.117394 0.990459 -0.200712 0.137745 0.969918 
0.234474 -0.000875924 0.972122 0.0602794 0.0353578 0.997555 -0.108275 0.0354271 0.99349 
-0.112198 0.0177956 0.993527 0.018503 0.188202 0.981956 0.182703 0.440641 0.878894 
-0.0889841 0.240997 0.966438 -0.329586 0.480854 0.812497 0.181017 0.0405685 0.982643 
0.0418806 -0.00711364 0.999097 -0.0945084 0.0538672 0.994066 -0.0488836 0.0815117 0.995473 
0.207139 0.122161 0.970654 0.0424352 0.178203 0.983078 0.0518398 0.138585 0.988993 
0.0846902 0.168508 0.982055 -0.396916 0.421383 0.81541 0.20693 0.00776637 0.978325 
0.0712759 0.0671261 0.995195 -0.0204102 0.131384 0.991121 -0.048352 0.199574 0.978689 
0.17016 0.144074 0.974827 0.253139 0.0163346 0.967292 -0.114242 0.179308 0.977137 
-0.0218046 -0.063078 0.99777 -0.198543 0.0598614 0.978262 -0.382152 0.199575 0.902291 
0.284663 -0.0135472 0.958532 0.153974 0.0729406 0.985379 0.0399934 0.131978 0.990446 
-0.0364449 0.163732 0.985831 0.00219323 0.166674 0.98601 0.0710786 -0.070878 0.994949 
-0.0191989 -0.093362 0.995447 -0.0151597 -0.00730881 0.999858 -0.093558 -0.0619319 0.993686 
-0.309914 0.0781422 0.947548 0.419533 -0.152297 0.894873 0.233012 -0.0749083 0.969584 
0.0613202 0.0086293 0.998081 -0.0163988 0.0971941 0.99513 -0.0339516 0.108854 0.993478 
-0.0474209 0.0767042 0.995926 -0.0253698 0.015369 0.99956 -0.00031625 0.0279806 0.999608 
-0.113085 -0.0443597 0.992595 -0.2845 -0.0455012 0.957596 0.341823 -0.301785 0.88999 
0.201481 -0.168177 0.964946 0.0692185 -0.08055 0.994344 -0.0178559 -0.00215255 0.999838 
-0.0292449 0.0264462 0.999222 -0.0640139 0.0331879 0.997397 -0.0732658 -0.0334113 0.996753 
-0.17749 -0.0904832 0.979954 -0.325758 -0.123693 0.937327 0.327467 -0.41288 0.84988 
0.153709 -0.284839 0.946171 0.069712 -0.188235 0.979647 -0.0101375 -0.14258 0.989731 
-0.0893798 -0.134266 0.986906 -0.121264 -0.184454 0.975332 -0.213936 -0.273231 0.937857 
-0.407869 -0.359525 0.839276 0.252418 -0.618076 0.744491 0.13112 -0.5177 0.845455 
0.0332014 -0.437927 0.898397 -0.0953145 -0.381807 0.919314 -0.188689 -0.456473 0.869499 
0.233988 0.790787 0.565602 0.0235064 0.672782 0.739467 -0.013929 0.555592 0.831339 
0.02468 0.51917 0.854314 0.033637 0.504415 0.862806 -0.00757391 0.476485 0.87915 
-0.0467907 0.516216 0.855179 -0.163614 0.586597 0.79318 0.483801 0.611197 0.626398 
0.0669725 0.345566 0.936001 0.0839508 0.48209 0.87209 -0.103864 0.260372 0.959906 
-0.0497935 0.366278 0.929172 -0.0590665 0.305105 0.950485 -0.0162985 0.244992 0.969388 
0.0196593 0.174929 0.984385 0.0373981 0.239228 0.970243 -0.0174753 0.262621 0.964741 
-0.0904901 0.247136 0.964746 -0.125399 0.328372 0.936187 -0.265983 0.383465 0.884425 
-0.378232 0.452149 0.807776 0.727286 0.407084 0.552573 0.212957 0.296495 0.930989 
0.280112 0.260601 0.923918 0.30215 0.331567 0.893738 -0.143992 0.242298 0.959457 
-0.170676 0.209685 0.962757 -0.158562 0.238233 0.958177 -0.124483 0.126347 0.984144 
0.000123528 0.0605729 0.998164 0.0571192 0.103013 0.993039 -0.00203661 0.0644001 0.997922 
-0.0341925 0.07619 0.996507 -0.12007 0.128271 0.984444 -0.192899 0.165102 0.967229 
-0.306175 0.240571 0.921077 0.410109 0.137418 0.901625 0.674882 0.205439 0.708752 
-0.202088 0.148406 0.968058 -0.0739888 0.174597 0.981856 -0.199555 0.155531 0.967465 
0.0896764 0.410286 0.907537 -0.010177 0.256765 0.96642 0.0049055 0.324762 0.945783 
0.0469668 0.299859 0.952827 -0.27553 0.401226 0.873557 -0.0451004 0.104666 0.993484 
-0.0430382 0.019713 0.998879 -0.0493362 0.0284092 0.998378 -0.131742 0.0777689 0.988229 
-0.276063 0.0786215 0.957919 -0.472251 0.0878394 0.877076 0.350078 0.0805886 0.933247 
0.454332 0.14679 0.878655 -0.307818 0.446751 0.840037 -0.286205 0.386007 0.876975 
-0.119694 0.246635 0.961688 -0.0678609 0.0768146 0.994733 -0.139337 0.0333335 0.989684 
-0.241078 0.0323106 0.969968 -0.37163 0.0954232 0.923464 0.363689 0.0323339 0.930959 
0.420516 0.0298984 0.906793 -0.317922 0.277463 0.906609 -0.312924 0.201382 0.928183 
-0.264294 0.195649 0.944389 -0.162705 0.103464 0.981235 -0.219929 0.0523824 0.974108 
-0.417103 0.0217415 0.908599 0.408249 -0.040933 0.911953 0.455845 -0.0538278 0.88843 
-0.315657 0.161103 0.935097 -0.268443 0.124613 0.955202 -0.295755 0.0283489 0.954843 
-0.447879 -0.0659599 0.891658 0.437769 -0.118528 0.89124 0.603129 -0.227332 0.764562 
-0.348593 0.0530405 0.935772 -0.349945 0.0512829 0.935365 -0.40275 -0.052425 0.913807 
-0.560455 -0.0685727 0.825341 0.52907 -0.212931 0.821429 0.813039 -0.39128 0.431123 
0.491803 -0.342693 0.800432 -0.387599 -0.0751325 0.918761 -0.394256 -0.0786844 0.915626 
-0.449469 -0.163678 0.878172 -0.618231 -0.225617 0.752919 0.47163 -0.389361 0.791178 
0.58858 -0.495859 0.638512 0.41481 -0.434039 0.799714 -0.378414 -0.198394 0.904125 
-0.451136 -0.296109 0.8419 -0.57845 -0.439591 0.687136 0.400663 -0.479249 0.78089 
0.478345 -0.559826 0.676595 0.381596 -0.578046 0.721281 -0.343381 -0.484731 0.804441 
-0.431259 -0.373083 0.821477 -0.42021 -0.410409 0.809313 -0.626875 -0.585427 0.514104 
0.309673 -0.662709 0.681851 0.474983 -0.844235 0.248311 0.26859 -0.681076 0.681172 
0.153599 -0.674685 0.721947 0.067211 -0.682887 0.727426 -0.0979784 -0.637676 0.764048 
-0.324524 -0.500067 0.802881 -0.188335 -0.561492 0.805765 -0.368102 -0.525764 0.766859 
-0.555571 -0.804072 0.211682 0.116724 -0.967745 0.22326 -0.0772612 -0.945608 0.316001 
-0.267769 -0.95538 0.124696 0.235128 0.835537 0.496581 0.0376522 0.75592 0.65358 
0.0264731 0.632649 0.773986 0.0305841 0.599966 0.799441 0.0580284 0.623338 0.779796 
0.0251755 0.994499 0.101679 0.00470041 0.638672 0.769465 -0.0583932 0.997513 0.0394651 
-0.0868964 0.644017 0.76006 -0.183059 0.647197 0.740017 0.334627 0.818064 0.467757 
0.58981 0.718281 0.369049 -0.172523 0.653473 0.737027 -0.165034 0.647842 0.743683 
-0.193264 0.767321 0.611446 -0.291545 0.540317 0.789341 -0.376386 0.852965 0.361641 
-0.402706 0.494099 0.770516 0.669093 0.673277 0.314662 0.791809 0.570102 0.219141 
-0.418087 0.481096 0.770552 0.874135 0.449279 0.18449 -0.470947 0.26814 0.840422 
-0.473496 0.092046 0.875973 -0.532892 0.295467 0.792922 0.932638 0.278649 0.229219 
-0.473375 0.0882349 0.876431 -0.88982 0.303562 0.340692 0.972738 0.166717 0.1612 
-0.51359 0.0940944 0.852861 -0.905696 0.0861834 0.415075 0.989789 0.0129517 0.141952 
-0.523225 0.00506079 0.85218 -0.835119 -0.01785 0.549779 0.980535 -0.132382 0.145001 
-0.523733 -0.0875198 0.847375 -0.86928 -0.150628 0.470812 0.93137 -0.316167 0.180522 
-0.584642 -0.0773248 0.807598 -0.937156 -0.28914 0.195287 0.880151 -0.444959 0.165364 
0.845255 -0.515128 0.142081 -0.630613 -0.231952 0.740625 -0.629416 -0.248617 0.736224 
0.791353 -0.600575 0.114322 0.702997 -0.706282 0.0834327 -0.605313 -0.491808 0.625876 
-0.606317 -0.515876 0.605187 0.660212 -0.747811 0.0699881 0.58603 -0.808627 0.0518816 
-0.641943 -0.639116 0.423604 -0.634626 -0.676305 0.37398 0.505381 -0.862317 0.0316282 
0.475692 -0.878323 0.0476028 0.471418 -0.847712 -0.243207 0.370581 -0.9288 0.000242584 
0.231903 -0.972707 0.00781653 -0.461138 -0.883712 0.0800293 -0.55795 -0.806458 0.19575 
-0.556045 -0.808297 0.193572 -0.553755 -0.822634 0.128953 0.212433 -0.977117 0.010664 
0.116305 -0.992252 0.0436954 0.148451 -0.964874 -0.216751 -0.0582187 -0.995918 0.0689788 
-0.0471526 -0.933794 -0.354691 -0.285158 -0.955116 0.0802375 -0.26652 -0.960024 0.0855678 
-0.272529 -0.962006 0.0164876 0.0227286 0.997823 0.0619041 -0.0599799 0.998098 0.0142175 
0.54158 0.819516 -0.187309 0.29859 0.952984 -0.0516312 0.133094 0.991061 -0.00915772 
0.0435509 0.997409 0.0572604 0.0651112 0.996451 0.053346 0.0224388 0.999733 0.0054543 
-0.0697019 0.997475 0.0135828 -0.0604817 0.998098 -0.0119223 -0.128117 0.991674 0.0129699 
-0.205012 0.97869 -0.0116425 -0.272751 0.960498 0.0552306 -0.384533 0.922089 0.0434259 
0.60575 0.767574 -0.209517 0.693098 0.670113 -0.265639 0.528063 0.724795 -0.442518 
-0.435805 0.898263 0.0565489 -0.384097 0.851326 -0.35737 -0.522808 0.850576 0.0564904 
0.754033 0.559707 -0.343747 0.731313 0.409144 -0.545695 0.655565 0.423628 -0.62512 
-0.669373 0.732856 0.121904 -0.691128 0.708466 0.142891 0.731039 0.402692 -0.550837 
0.726927 0.399794 -0.558339 0.551068 0.290014 -0.782442 -0.858284 0.47721 0.188732 
-0.908989 0.367849 0.196025 0.806868 0.306172 -0.505196 0.666898 0.275058 -0.692525 
-0.935075 0.289459 0.20457 -0.817469 0.297337 -0.493289 0.859329 0.147733 -0.489621 
0.528966 0.115577 -0.840736 0.286928 -0.0140784 -0.957849 -0.974674 0.0867915 0.206102 
0.843875 0.0164482 -0.536287 0.539572 0.0230161 -0.841625 -0.979674 -0.0211943 0.199473 
0.880598 -0.087353 -0.465743 0.539841 -0.0674873 -0.839057 -0.969488 -0.156101 0.18901 
0.818682 -0.335291 -0.466196 0.615397 -0.286406 -0.734342 0.371347 -0.0784431 -0.925174 
-0.939597 -0.289082 0.183272 -0.937111 -0.297992 0.181723 -0.9461 -0.295264 0.133094 
0.743671 -0.454671 -0.490131 0.742254 -0.458169 -0.48902 0.737143 -0.450261 -0.503871 
0.472872 -0.262227 -0.841207 -0.874668 -0.465538 0.135022 -0.749954 -0.660076 0.0432331 
0.685484 -0.545038 -0.482747 0.632179 -0.607752 -0.48061 0.598219 -0.510481 -0.617692 
0.355261 -0.367479 -0.859505 -0.727759 -0.685231 0.0287263 -0.56581 -0.823558 -0.0401333 
0.525779 -0.700842 -0.482055 0.485637 -0.724004 -0.489872 0.460678 -0.664988 -0.587849 
0.398001 -0.725762 -0.561127 0.246958 -0.556391 -0.793373 0.135325 -0.455561 -0.879859 
-0.425803 -0.804023 -0.415017 -0.154667 -0.609382 -0.777645 -0.508558 -0.855106 -0.100811 
-0.436718 -0.870859 -0.22557 -0.313277 -0.801267 -0.509734 0.368177 -0.737263 -0.56647 
0.306042 -0.758616 -0.575187 0.301729 -0.695034 -0.652601 0.232329 -0.798324 -0.55561 
0.213028 -0.562809 -0.798664 0.148617 -0.793111 -0.590667 0.0866027 -0.555907 -0.826721 
-0.0369633 -0.82184 -0.568518 -0.0142665 -0.556247 -0.830895 -0.235068 -0.800503 -0.551306 
-0.142824 -0.594707 -0.791154 -0.408313 -0.79847 -0.44241 -0.35265 -0.809109 -0.470085 
-0.324498 -0.68058 -0.656896 0.228429 0.520243 -0.822902 0.162045 0.565996 -0.808326 
0.121681 0.681114 -0.721995 0.0161423 0.731644 -0.681496 -0.0590109 0.71716 -0.694406 
-0.134648 0.687128 -0.713951 -0.109232 0.689498 -0.716003 -0.133861 0.760263 -0.635674 
0.242016 0.511079 -0.824759 0.381868 0.31899 -0.867423 0.225395 0.500007 -0.836176 
0.148137 0.491911 -0.857951 0.104946 0.48299 -0.869314 0.0366567 0.488246 -0.871936 
-0.0481893 0.496912 -0.866462 -0.0895737 0.522631 -0.84784 -0.083259 0.631965 -0.770511 
-0.238483 0.746964 -0.620621 -0.127386 0.720196 -0.681975 -0.337192 0.710458 -0.617699 
-0.407303 0.696445 -0.590821 0.40149 0.25307 -0.880205 0.367782 0.239662 -0.898498 
0.228182 0.184343 -0.956008 0.132913 0.155812 -0.978804 0.113739 0.20781 -0.971534 
0.0255181 0.233655 -0.971985 -0.0296996 0.256293 -0.966143 -0.0231363 0.25641 -0.966291 
-0.0199262 0.274483 -0.961385 -0.0471608 0.345981 -0.937056 -0.186419 0.479912 -0.857282 
-0.435158 0.671614 -0.599643 -0.399825 0.603527 -0.689852 -0.571791 0.587522 -0.572602 
0.407914 0.186728 -0.893722 0.439805 0.130108 -0.888619 0.255265 0.0986942 -0.961821 
0.168522 -0.0032126 -0.985693 0.173842 -0.00345039 -0.984768 0.157209 -0.0227842 -0.987303 
0.0833739 0.0748925 -0.9937 -0.00978623 0.0899658 -0.995897 -0.0146124 0.095532 -0.995319 
0.00934235 0.139446 -0.990186 0.0171843 0.195271 -0.980599 -0.126601 0.183275 -0.974876 
-0.253787 0.281193 -0.925485 -0.74809 0.457638 -0.480551 -0.455292 0.435425 -0.776604 
0.414567 0.0794823 -0.906541 0.312562 0.00297529 -0.949893 0.393927 0.0553713 -0.917472 
0.171623 0.0220068 -0.984917 0.104541 -0.00573654 -0.994504 0.126215 -0.0857297 -0.988292 
0.189831 -0.134831 -0.972515 0.143329 -0.00347745 -0.989669 -0.0120904 -0.03512 -0.99931 
0.0319933 0.0171168 -0.999341 0.0810402 0.0787846 -0.993592 -0.0800921 0.0293027 -0.996357 
-0.158392 0.143685 -0.976866 -0.786392 0.287374 -0.546813 -0.419175 0.202122 -0.885121 
-0.792388 0.258294 -0.552635 0.276098 -0.0137184 -0.961031 0.287707 0.00300996 -0.957714 
0.185926 0.000263279 -0.982564 0.0687498 -0.00192864 -0.997632 0.0468476 -0.0443725 -0.997916 
0.218976 -0.103119 -0.970266 0.190645 -0.10429 -0.976103 0.0143664 -0.113717 -0.993409 
0.104367 0.0843359 -0.990957 -0.0727751 -0.0342318 -0.996761 -0.0768305 0.00992821 -0.996995 
-0.376868 0.0742734 -0.923284 -0.80883 0.0738611 -0.583385 -0.769215 0.0663188 -0.635539 
0.306618 0.0360238 -0.951151 0.289695 0.037439 -0.956387 0.157168 0.035918 -0.986918 
0.064091 0.0388506 -0.997188 0.0257633 0.0806273 -0.996411 0.120154 0.125329 -0.984812 
0.142013 0.0206792 -0.989649 0.173652 -0.0316617 -0.984298 -0.0359013 -0.0538878 -0.997901 
-0.0359261 -0.0115807 -0.999287 -0.0417779 0.0135788 -0.999035 -0.35775 0.00309519 -0.933812 
-0.816622 -0.0166483 -0.576933 -0.759899 -0.0136436 -0.649898 0.311288 -0.043252 -0.949331 
0.335148 -0.0563047 -0.940482 0.293053 -0.0375793 -0.955357 0.185503 0.00682974 -0.98262 
0.115112 0.0663202 -0.991136 0.135716 0.116758 -0.983844 0.167318 0.168398 -0.971415 
0.0173508 0.073369 -0.997154 0.0649468 0.107722 -0.992057 -0.0352251 -0.0269512 -0.999016 
0.000834014 0.00628118 -0.99998 -0.00495169 0.0171032 -0.999841 -0.0567217 -0.049232 -0.997175 
-0.387074 -0.117706 -0.914505 -0.811183 -0.153566 -0.564269 -0.800219 -0.187182 -0.569747 
-0.786013 -0.150372 -0.599643 0.353117 -0.0696834 -0.932981 0.253402 -0.0471007 -0.966214 
0.171078 0.000685386 -0.985257 0.124713 0.00387551 -0.992185 0.0978651 -0.0877686 -0.991322 
0.0724255 -0.139911 -0.987512 0.0300955 0.0139248 -0.99945 0.0205672 -0.146764 -0.988958 
0.0354689 -0.0985704 -0.994498 0.00879836 -0.0375432 -0.999256 -0.0891902 -0.0236056 -0.995735 
-0.195366 -0.134687 -0.971438 -0.756452 -0.270943 -0.59529 -0.469556 -0.21926 -0.855244 
0.394751 -0.21436 -0.893432 0.35287 -0.361914 -0.862845 0.274449 -0.153766 -0.949228 
0.162627 -0.156243 -0.974238 0.0441287 -0.168899 -0.984645 0.0272194 -0.214851 -0.976268 
0.121185 -0.203499 -0.971546 0.0523161 -0.16826 -0.984353 -0.0168898 -0.200384 -0.979572 
0.0737425 -0.24107 -0.967702 0.0721017 -0.241325 -0.967762 -0.0995146 -0.244135 -0.964622 
-0.258666 -0.259592 -0.930432 -0.742435 -0.427088 -0.516126 -0.616887 -0.547122 -0.565781 
-0.555805 -0.403775 -0.726668 0.349695 -0.365563 -0.862599 0.178709 -0.411358 -0.893783 
0.145923 -0.313344 -0.938361 0.108102 -0.404802 -0.907992 0.0691834 -0.312414 -0.947423 
0.0553125 -0.22975 -0.971677 0.11419 -0.204412 -0.972202 0.0391837 -0.254158 -0.966369 
-0.0578658 -0.257865 -0.964447 -0.0164731 -0.344409 -0.938675 -0.125129 -0.570874 -0.811447 
-0.0255442 -0.437316 -0.898945 -0.199768 -0.621959 -0.757139 -0.135332 -0.531001 -0.836495 
-0.393427 -0.655878 -0.644236 -0.359415 -0.654419 -0.66525 -0.341489 -0.629963 -0.697519 
0.137776 -0.379613 -0.914829 0.150848 -0.366188 -0.918233 0.142081 -0.354868 -0.924057 
0.092284 -0.411688 -0.90664 0.101636 -0.290741 -0.951388 -0.00370438 -0.449479 -0.893283 
-2.63316e-05 -0.365319 -0.930882 -0.117224 -0.441811 -0.889417 -0.105977 -0.330235 -0.937931 
-0.122269 -0.473332 -0.872357 -0.124589 -0.429523 -0.89442 -0.11598 -0.425546 -0.897474 
0.0117166 0.110754 -0.993779 0.0550531 0.0827877 -0.995045 0.0819534 0.0550728 -0.995113 
-0.0793582 0.0297868 -0.996401 0.00921586 0.0900997 -0.99589 0.0879048 0.0289325 -0.995709 
0.144694 0.075041 -0.986627 0.0828907 0.0121819 -0.996484 -0.0588973 -0.0347268 -0.99766 
-0.0321738 -0.0459127 -0.998427 -0.0260877 -0.0359924 -0.999012 0.162536 0.0556844 -0.98513 
0.160676 0.0683232 -0.98464 -0.0420475 -0.0421793 -0.998225 -0.0421576 -0.0397736 -0.998319 
-0.0427859 -0.0409863 -0.998243 0.0954785 -0.0607494 -0.993576 0.0610124 -0.0602664 -0.996316 
0.0862844 -0.0838821 -0.992733 0.0974017 -0.0729731 -0.992566 
