# vtk DataFile Version 4.2
vtk output
ASCII
DATASET POLYDATA
POINTS 554 float
-25.6791 -47.6871 -11.579 -17.598 -47.6871 -12.4123 -9.51691 -47.6871 -11.9841 
-33.7602 -39.6061 -12.1263 -25.6791 -39.6061 -14.5936 -17.598 -39.6061 -15.1375 
-9.51691 -39.6061 -14.916 -1.43581 -39.6061 -13.5498 6.64528 -39.6061 -12.0016 
-41.8413 -31.525 -12.1321 -33.7602 -31.525 -15.2001 -25.6791 -31.525 -16.49 
-17.598 -31.525 -16.3435 -9.51691 -31.525 -15.8689 -1.43581 -31.525 -14.8408 
6.64528 -31.525 -14.0618 14.7264 -31.525 -12.9889 22.8075 -31.525 -11.6875 
-49.9224 -23.4439 -12.4556 -41.8413 -23.4439 -14.962 -33.7602 -23.4439 -16.7574 
-25.6791 -23.4439 -16.5589 -17.598 -23.4439 -16.1483 -9.51691 -23.4439 -15.6385 
-1.43581 -23.4439 -14.7348 6.64528 -23.4439 -14.5328 14.7264 -23.4439 -14.7156 
22.8075 -23.4439 -14.4812 30.8886 -23.4439 -13.9886 38.9697 -23.4439 -13.2386 
47.0508 -23.4439 -11.3569 -49.9224 -15.3628 -14.0431 -41.8413 -15.3628 -16.0275 
-33.7602 -15.3628 -16.7578 -25.6791 -15.3628 -16.4022 -17.598 -15.3628 -15.8258 
-9.51691 -15.3628 -14.7165 -1.43581 -15.3628 -14.4786 6.64528 -15.3628 -14.7586 
14.7264 -15.3628 -14.666 22.8075 -15.3628 -15.4479 30.8886 -15.3628 -15.9177 
38.9697 -15.3628 -15.9693 47.0508 -15.3628 -16.183 55.1319 -15.3628 -12.3493 
-58.0035 -7.28167 -11.5502 -49.9224 -7.28167 -15.7419 -41.8413 -7.28167 -16.6457 
-33.7602 -7.28167 -16.984 -25.6791 -7.28167 -16.4318 -17.598 -7.28167 -15.4748 
-9.51691 -7.28167 -15.5232 -1.43581 -7.28167 -17.9332 6.64528 -7.28167 -17.3126 
14.7264 -7.28167 -14.302 22.8075 -7.28167 -15.7393 30.8886 -7.28167 -16.7203 
38.9697 -7.28167 -17.4074 47.0508 -7.28167 -16.1952 55.1319 -7.28167 -15.2137 
63.2129 -7.28167 -13.8193 -58.0035 0.799424 -12.6291 -49.9224 0.799424 -16.2909 
-41.8413 0.799424 -16.5987 -33.7602 0.799424 -16.6556 -25.6791 0.799424 -16.1009 
-17.598 0.799424 -15.5959 -9.51691 0.799424 -17.8412 -1.43581 0.799424 -13.9072 
6.64528 0.799424 -16.397 14.7264 0.799424 -16.9476 22.8075 0.799424 -15.731 
30.8886 0.799424 -16.3513 38.9697 0.799424 -16.7592 47.0508 0.799424 -15.7889 
55.1319 0.799424 -14.4918 63.2129 0.799424 -12.1747 -58.0035 8.88052 -12.668 
-49.9224 8.88052 -15.9885 -41.8413 8.88052 -16.3971 -33.7602 8.88052 -16.5103 
-25.6791 8.88052 -15.8751 -17.598 8.88052 -14.8924 -9.51691 8.88052 -15.8382 
-1.43581 8.88052 -18.0928 6.64528 8.88052 -15.9051 14.7264 8.88052 -16.8426 
22.8075 8.88052 -15.3696 30.8886 8.88052 -15.2612 38.9697 8.88052 -15.293 
47.0508 8.88052 -15.3195 55.1319 8.88052 -12.9629 63.2129 8.88052 -11.0086 
-58.0035 16.9616 -11.5881 -49.9224 16.9616 -14.6644 -41.8413 16.9616 -15.9332 
-33.7602 16.9616 -16.5154 -25.6791 16.9616 -16.5953 -17.598 16.9616 -15.8425 
-9.51691 16.9616 -15.7549 -1.43581 16.9616 -16.0324 6.64528 16.9616 -15.0987 
14.7264 16.9616 -15.7557 22.8075 16.9616 -15.5396 30.8886 16.9616 -14.9416 
38.9697 16.9616 -14.0494 47.0508 16.9616 -13.229 55.1319 16.9616 -12.5907 
-49.9224 25.0427 -12.8661 -41.8413 25.0427 -15.4846 -33.7602 25.0427 -16.7442 
-25.6791 25.0427 -16.5241 -17.598 25.0427 -16.8089 -9.51691 25.0427 -16.5996 
-1.43581 25.0427 -16.6091 6.64528 25.0427 -15.4772 14.7264 25.0427 -15.8247 
22.8075 25.0427 -15.3015 30.8886 25.0427 -14.1225 38.9697 25.0427 -13.8392 
47.0508 25.0427 -10.6429 -49.9224 33.1238 -11.0769 -41.8413 33.1238 -13.3824 
-33.7602 33.1238 -15.1769 -25.6791 33.1238 -15.7896 -17.598 33.1238 -16.0659 
-9.51691 33.1238 -16.2428 -1.43581 33.1238 -15.6888 6.64528 33.1238 -14.5935 
14.7264 33.1238 -13.8354 22.8075 33.1238 -13.8747 30.8886 33.1238 -12.7527 
-33.7602 41.2049 -12.2939 -25.6791 41.2049 -12.7182 -17.598 41.2049 -13.0843 
-9.51691 41.2049 -13.0785 -1.43581 41.2049 -11.9603 -25.6791 -48.7945 -10.6117 
-17.598 -49.8399 -10.6117 -9.51691 -49.608 -10.6117 -9.51691 -55.7682 -3.49257 
-27.677 -47.6871 -10.6117 -33.7602 -42.0197 -10.6117 -33.7602 -47.6871 -3.23793 
-4.26965 -47.6871 -10.6117 -1.43581 -46.2349 -10.6117 -1.43581 -47.6871 -9.76741 
6.64528 -42.5915 -10.6117 6.64528 -47.6871 -6.74165 -36.7312 -39.6061 -10.6117 
-41.8413 -34.4553 -10.6117 -41.8413 -39.6061 -4.71278 11.0572 -39.6061 -10.6117 
14.7264 -36.8831 -10.6117 14.7264 -39.6061 -9.0475 22.8075 -33.4987 -10.6117 
22.8075 -39.6061 -5.12837 -44.3281 -31.525 -10.6117 -49.9224 -26.6876 -10.6117 
27.1974 -31.525 -10.6117 30.8886 -29.8099 -10.6117 30.8886 -31.525 -9.43904 
38.9697 -28.2676 -10.6117 38.9697 -31.525 -7.19116 47.0508 -24.3231 -10.6117 
-52.2138 -23.4439 -10.6117 48.9425 -23.4439 -10.6117 55.1319 -18.8523 -10.6117 
55.1319 -23.4439 -6.43338 -55.4785 -15.3628 -10.6117 -58.0035 -10.6998 -10.6117 
-58.0035 -15.3628 -7.42951 58.8076 -15.3628 -10.6117 63.2129 -11.5205 -10.6117 
63.2129 -15.3628 -7.6729 -59.1111 -7.28167 -10.6117 65.752 -7.28167 -10.6117 
71.294 -7.28167 -3.38494 -60.5968 0.799424 -10.6117 65.4877 0.799424 -10.6117 
71.294 0.799424 -4.63418 -60.7707 8.88052 -10.6117 -66.0846 8.88052 -2.97236 
64.1444 8.88052 -10.6117 63.2129 9.5901 -10.6117 71.294 8.88052 -4.80672 
-59.3219 16.9616 -10.6117 -58.0035 22.488 -10.6117 58.7404 16.9616 -10.6117 
55.1319 21.273 -10.6117 63.2129 16.9616 -7.46721 -56.4247 25.0427 -10.6117 
-58.0035 25.0427 -9.90403 38.9697 31.1731 -10.6117 47.1632 25.0427 -10.6117 
47.0508 25.1402 -10.6117 55.1319 25.0427 -8.2704 -50.6245 33.1238 -10.6117 
-49.9224 33.832 -10.6117 -41.8413 38.6527 -10.6117 6.64528 40.2635 -10.6117 
14.7264 38.256 -10.6117 22.8075 38.0662 -10.6117 36.2393 33.1238 -10.6117 
30.8886 36.2718 -10.6117 38.9697 33.1238 -9.72718 47.0508 33.1238 -7.29425 
-38.6611 41.2049 -10.6117 -41.8413 41.2049 -8.64517 -33.7602 43.0358 -10.6117 
-25.6791 43.3732 -10.6117 -17.598 44.3068 -10.6117 -9.51691 43.9741 -10.6117 
4.07161 41.2049 -10.6117 -1.43581 42.6219 -10.6117 6.64528 41.2049 -9.42513 
14.7264 41.2049 -7.151 22.8075 41.2049 -6.49836 30.8886 41.2049 -4.74405 
-9.51691 -56.2693 -2.53059 -33.7602 -48.0234 -2.53059 -25.6791 -52.8375 -2.53059 
-14.9648 -55.7682 -2.53059 -17.598 -55.5049 -2.53059 -7.50107 -55.7682 -2.53059 
-9.51691 -55.7682 4.80258 -1.43581 -53.9923 -2.53059 6.64528 -50.5936 -2.53059 
-34.16 -47.6871 -2.53059 -41.8413 -40.642 -2.53059 -33.7602 -47.6871 -1.38931 
11.762 -47.6871 -2.53059 14.7264 -45.7723 -2.53059 22.8075 -41.3766 -2.53059 
-42.8284 -39.6061 -2.53059 -41.8413 -39.6061 -0.0332373 26.2102 -39.6061 -2.53059 
30.8886 -37.2689 -2.53059 38.9697 -33.7418 -2.53059 -49.632 -31.525 -2.53059 
-49.9224 -31.1536 -2.53059 43.6458 -31.525 -2.53059 47.0508 -29.7926 -2.53059 
55.1319 -25.6958 -2.53059 -55.4954 -23.4439 -2.53059 -58.0035 -19.2752 -2.53059 
58.3588 -23.4439 -2.53059 63.2129 -19.6576 -2.53059 -60.2283 -15.3628 -2.53059 
-58.0035 -15.3628 3.93207 67.1079 -15.3628 -2.53059 71.294 -8.34416 -2.53059 
-63.4935 -7.28167 -2.53059 71.8337 -7.28167 -2.53059 -65.8444 0.799424 -2.53059 
-66.0846 4.73178 -2.53059 72.8985 0.799424 -2.53059 -66.3401 8.88052 -2.53059 
-66.0846 11.3781 -2.53059 -66.0846 8.88052 2.23979 72.4265 8.88052 -2.53059 
71.294 11.0138 -2.53059 -65.4909 16.9616 -2.53059 68.5488 16.9616 -2.53059 
63.2129 24.2769 -2.53059 -63.0121 25.0427 -2.53059 -58.0035 32.6172 -2.53059 
62.5117 25.0427 -2.53059 55.1319 32.4183 -2.53059 63.2129 25.0427 1.74681 
-57.5701 33.1238 -2.53059 -49.9224 39.9834 -2.53059 38.9697 40.5154 -2.53059 
54.1314 33.1238 -2.53059 47.0508 37.0206 -2.53059 -47.9855 41.2049 -2.53059 
-41.8413 44.4905 -2.53059 -33.7602 46.7647 -2.53059 -25.6791 47.6855 -2.53059 
-17.598 47.906 -2.53059 -9.51691 47.3468 -2.53059 -1.43581 45.9 -2.53059 
6.64528 44.2568 -2.53059 14.7264 43.4294 -2.53059 14.7264 41.2049 5.24071 
22.8075 43.2689 -2.53059 22.8075 41.2049 4.26048 35.7709 41.2049 -2.53059 
30.8886 42.2128 -2.53059 30.8886 41.2049 4.02141 -25.6791 -50.3675 5.55051 
-17.598 -54.9608 5.55051 -9.51691 -55.7067 5.55051 -1.43581 -54.3908 5.55051 
6.64528 -51.3193 5.55051 -30.0528 -47.6871 5.55051 -33.7602 -44.6112 5.55051 
-25.6791 -47.6871 8.11768 -17.598 -47.6871 12.282 -9.51691 -47.6871 13.5246 
-1.43581 -47.6871 13.5733 13.7139 -47.6871 5.55051 6.64528 -47.6871 10.7391 
14.7264 -47.1423 5.55051 22.8075 -42.2538 5.55051 -38.6927 -39.6061 5.55051 
-41.8413 -35.6114 5.55051 -33.7602 -39.6061 8.93942 -25.6791 -39.6061 13.3507 
14.7264 -39.6061 13.5727 26.9365 -39.6061 5.55051 22.8075 -39.6061 9.30423 
30.8886 -37.1599 5.55051 38.9697 -32.578 5.55051 -45.0021 -31.525 5.55051 
-49.9224 -24.0981 5.55051 -41.8413 -31.525 7.81618 -33.7602 -31.525 12.7484 
30.8886 -31.525 12.2133 41.3623 -31.525 5.55051 38.9697 -31.525 6.87535 
47.0508 -28.6669 5.55051 55.1319 -24.3156 5.55051 -50.3512 -23.4439 5.55051 
-49.9224 -23.4439 5.93314 -41.8413 -23.4439 11.5625 47.0508 -23.4439 10.0295 
56.3665 -23.4439 5.55051 55.1319 -23.4439 6.52807 63.2129 -17.9326 5.55051 
-57.1233 -15.3628 5.55051 -58.0035 -13.578 5.55051 -49.9224 -15.3628 10.2415 
55.1319 -15.3628 11.062 65.4743 -15.3628 5.55051 63.2129 -15.3628 7.7374 
71.294 -8.2175 5.55051 -60.4843 -7.28167 5.55051 -58.0035 -7.28167 8.77277 
63.2129 -7.28167 12.4837 71.9284 -7.28167 5.55051 71.294 -7.28167 6.24474 
-64.6651 0.799424 5.55051 -58.0035 0.799424 11.1199 72.2507 0.799424 5.55051 
71.294 0.799424 6.69352 -65.8377 8.88052 5.55051 -58.0035 8.88052 11.8875 
72.1931 8.88052 5.55051 71.294 11.0118 5.55051 71.294 8.88052 6.68272 
-65.2548 16.9616 5.55051 -58.0035 16.9616 11.594 55.1319 16.9616 13.1109 
67.8892 16.9616 5.55051 63.2129 16.9616 10.5844 -61.8333 25.0427 5.55051 
-58.0035 31.5773 5.55051 -58.0035 25.0427 10.9669 47.0508 25.0427 12.7543 
55.1319 32.7437 5.55051 55.1319 25.0427 11.9835 63.7911 25.0427 5.55051 
63.2129 25.654 5.55051 63.2129 25.0427 6.09391 -56.7532 33.1238 5.55051 
-49.9224 38.5623 5.55051 -49.9224 33.1238 10.0046 -41.8413 33.1238 13.5302 
6.64528 33.1238 12.8749 14.7264 41.082 5.55051 14.7264 33.1238 11.9112 
22.8075 40.6334 5.55051 22.8075 33.1238 12.0477 30.8886 40.799 5.55051 
30.8886 33.1238 11.0382 38.9697 39.2953 5.55051 38.9697 33.1238 10.123 
54.3094 33.1238 5.55051 47.0508 35.9043 5.55051 47.0508 33.1238 8.51775 
[...]
POINT_DATA 554
SCALARS ImageScalars float
LOOKUP_TABLE default
0 0 0 0 0 0 0 0 0 
0 0 0 0 0 0 0 0 0 
0 0 0 0 0 0 0 0 0 
0 0 0 0 0 0 0 0 0 
0 0 0 0 0 0 0 0 0 
0 0 0 0 0 0 0 0 0 
0 0 0 0 0 0 0 0 0 
0 0 0 0 0 0 0 0 0 
0 0 0 0 0 0 0 0 0 
0 0 0 0 0 0 0 0 0 
0 0 0 0 0 0 0 0 0 
0 0 0 0 0 0 0 0 0 
0 0 0 0 0 0 0 0 0 
0 0 0 0 0 0 0 0 0 
0 0 0 0 0 0 0 0 0 
0 0 0 0 0 0 0 0 0 
0 0 0 0 0 0 0 0 0 
0 0 0 0 0 0 0 0 0 
0 0 0 0 0 0 0 0 0 
0 0 0 0 0 0 0 0 0 
0 0 0 0 0 0 0 0 0 
0 0 0 0 0 0 0 0 0 
0 0 0 0 0 0 0 0 0 
0 0 0 0 0 0 0 0 0 
0 0 0 0 0 0 0 0 0 
0 0 0 0 0 0 0 0 0 
0 0 0 0 0 0 0 0 0 
0 0 0 0 0 0 0 0 0 
0 0 0 0 0 0 0 0 0 
0 0 0 0 0 0 0 0 0 
0 0 0 0 0 0 0 0 0 
0 0 0 0 0 0 0 0 0 
0 0 0 0 0 0 0 0 0 
0 0 0 0 0 0 0 0 0 
0 0 0 0 0 0 0 0 0 
0 0 0 0 0 0 0 0 0 
0 0 0 0 0 0 0 0 0 
0 0 0 0 0 0 0 0 0 
0 0 0 0 0 0 0 0 0 
0 0 0 0 0 0 0 0 0 
0 0 0 0 0 0 0 0 0 
0 0 0 0 0 0 0 0 0 
0 0 0 0 0 0 0 0 0 
0 0 0 0 0 0 0 0 0 
0 0 0 0 0 0 0 0 0 
0 0 0 0 0 0 0 0 0 
0 0 0 0 0 0 0 0 0 
0 0 0 0 0 0 0 0 0 
0 0 0 0 0 0 0 0 0 
0 0 0 0 0 0 0 0 0 
0 0 0 0 0 0 0 0 0 
0 0 0 0 0 0 0 0 0 
0 0 0 0 0 0 0 0 0 
0 0 0 0 0 0 0 0 0 
0 0 0 0 0 0 0 0 0 
0 0 0 0 0 0 0 0 0 
0 0 0 0 0 0 0 0 0 
0 0 0 0 0 0 0 0 0 
0 0 0 0 0 0 0 0 0 
0 0 0 0 0 0 0 0 0 
0 0 0 0 0 0 0 0 0 
0 0 0 0 0 
NORMALS Normals float
0.272229 0.602591 0.750184 0.0309601 0.518973 0.85423 -0.133647 0.489222 0.861859 
0.390118 0.490803 0.779051 0.149557 0.283984 0.947093 0.0223918 0.211958 0.977022 
-0.0952169 0.212684 0.972471 -0.174039 0.262774 0.949031 -0.225856 0.347184 0.910194 
0.486295 0.421761 0.765268 0.214939 0.233347 0.948341 0.0807305 0.131202 0.988063 
-0.0378238 0.0590667 0.997537 -0.0924617 0.0415809 0.994848 -0.113317 0.0685819 0.991189 
-0.108071 0.151091 0.982595 -0.144222 0.293906 0.944891 -0.180528 0.433682 0.882797 
0.53326 0.358975 0.766009 0.253286 0.197808 0.946952 0.106162 0.109134 0.988342 
-0.0369273 -0.00561883 0.999302 -0.0581711 -0.0327033 0.997771 -0.0871105 -0.071414 0.993636 
-0.0681743 -0.0212092 0.997448 -0.00138223 0.04402 0.99903 -0.00390013 0.0982348 0.995156 
-0.0414124 0.211024 0.976603 -0.074851 0.341098 0.937043 -0.144639 0.422017 0.894976 
-0.258809 0.595598 0.760448 0.418048 0.199958 0.886145 0.14782 0.107491 0.983155 
0.0213041 0.0140234 0.999675 -0.059031 -0.00806298 0.998224 -0.10549 -0.0413433 0.993561 
-0.0832046 -0.0125433 0.996454 0.00233959 0.1782 0.983991 0.0113428 0.144588 0.989427 
0.0403769 -0.0260234 0.998846 0.0771801 0.0832109 0.993539 0.0296392 0.157201 0.987122 
0.0140989 0.238476 0.971046 -0.194991 0.246092 0.94943 -0.371916 0.330207 0.867549 
0.600791 0.197557 0.77461 0.313253 0.115172 0.94266 0.068644 0.0349601 0.997028 
-0.0139879 -0.00633183 0.999882 -0.0913513 -0.0185561 0.995646 -0.0572709 -0.0143739 0.998255 
0.133984 0.197454 0.971113 0.11529 0.0106965 0.993274 -0.25039 0.123134 0.960283 
-0.0572793 0.131414 0.989671 0.148176 0.0161599 0.988829 0.101593 0.0264318 0.994475 
-0.0315998 0.0457914 0.998451 -0.125145 -0.0242198 0.991843 -0.124443 0.122897 0.984586 
-0.526299 0.135635 0.839412 0.517444 0.0651701 0.853232 0.255917 0.0117686 0.966627 
0.0200594 -0.0154223 0.99968 -0.0308217 -0.029278 0.999096 -0.065402 -0.0343476 0.997268 
0.104932 -0.0371072 0.993787 -0.047442 0.028115 0.998478 -0.13233 0.0151827 0.991089 
0.167391 -0.0808625 0.982569 -0.0484342 0.167675 0.984652 -0.0303272 -0.0230153 0.999275 
0.0623874 -0.0896179 0.99402 -0.0343078 -0.128838 0.991072 -0.133035 -0.0517437 0.98976 
-0.244785 -0.132722 0.96045 -0.455058 -0.110979 0.883519 0.507652 -0.0648925 0.859115 
0.252511 -0.0880687 0.963578 0.0287876 -0.0410393 0.998743 -0.0323455 -0.00867066 0.999439 
-0.0996327 0.0304682 0.994558 -0.0132263 0.0152383 0.999796 0.200493 -0.140442 0.969576 
-0.0101913 0.0761474 0.997045 -0.0621368 -0.0815517 0.99473 -0.0399393 -0.075971 0.99631 
-0.0967935 -0.011194 0.995242 -0.00473766 -0.0866238 0.99623 0.00349266 -0.16551 0.986202 
-0.134164 -0.146297 0.980101 -0.218257 -0.11257 0.969377 -0.299903 -0.30376 0.904316 
0.498414 -0.128534 0.857358 0.292999 -0.175668 0.939836 0.105482 -0.0594508 0.992643 
0.040333 0.0138988 0.99909 -0.041872 0.0404042 0.998306 -0.0513494 0.117485 0.991746 
0.0119889 0.0494412 0.998705 -0.0419441 -0.0737283 0.996396 -0.0171323 -0.0225629 0.999599 
0.0271789 -0.0628215 0.997655 -0.0490071 -0.00405207 0.99879 -0.0930605 -0.0690718 0.993262 
-0.100925 -0.0874214 0.991046 -0.100455 -0.279225 0.954957 -0.292831 -0.223092 0.929774 
0.303282 -0.221729 0.926745 0.202606 -0.126653 0.971035 0.0749544 -0.0938268 0.992763 
0.00446344 -0.0468202 0.998893 0.00470981 0.0116703 0.999921 -0.012497 0.0284267 0.999518 
-0.0682136 -0.0189456 0.997491 -0.0491717 -0.0311576 0.998304 -0.011258 -0.107343 0.994158 
-0.100978 -0.104733 0.989361 -0.0894965 -0.119784 0.988758 -0.206841 -0.244355 0.947369 
-0.281225 -0.28114 0.917536 0.424105 -0.398773 0.81309 0.281229 -0.38849 0.877488 
0.119876 -0.25105 0.960523 0.0617573 -0.194183 0.979019 0.0259578 -0.206528 0.978096 
-0.0215799 -0.194942 0.980577 -0.10186 -0.250717 0.962686 -0.106564 -0.282393 0.953361 
-0.0448708 -0.363872 0.930367 -0.0530027 -0.366875 0.928759 -0.248195 -0.371819 0.894511 
0.185764 -0.604843 0.774375 0.0500533 -0.587113 0.807956 0.0174791 -0.55526 0.831493 
-0.062784 -0.590921 0.804282 -0.174997 -0.656477 0.733767 0.277878 0.662497 0.695616 
0.0517838 0.643231 0.763919 -0.128562 0.570706 0.811028 -0.0847659 0.952823 0.291449 
0.335567 0.633596 0.697102 0.445679 0.546819 0.708773 0.613904 0.78003 0.121146 
-0.194539 0.536133 0.821411 -0.215879 0.50481 0.835801 -0.238935 0.583658 0.77605 
-0.269676 0.453377 0.849543 -0.381199 0.726258 0.572046 0.468618 0.533168 0.704364 
0.533603 0.48475 0.693026 0.710879 0.679519 0.181397 -0.266218 0.447716 0.853626 
-0.247089 0.455726 0.855138 -0.325421 0.571689 0.753175 -0.219654 0.495108 0.840607 
-0.404073 0.78289 0.473084 0.549444 0.487009 0.678921 0.61245 0.456374 0.645467 
-0.180001 0.526428 0.830947 -0.15645 0.550784 0.819854 -0.199684 0.638777 0.743028 
-0.22518 0.606033 0.762901 -0.336689 0.812711 0.475542 -0.289891 0.632644 0.718139 
0.670077 0.39935 0.625713 -0.323984 0.623878 0.711204 -0.437055 0.489084 0.754837 
-0.525764 0.773261 0.354457 0.615676 0.298612 0.729228 0.64447 0.267826 0.71619 
0.801435 0.413967 0.431664 -0.431433 0.450314 0.781718 -0.546272 0.423992 0.72237 
-0.601525 0.60738 0.518901 0.6469 0.212105 0.732484 -0.654197 0.196607 0.730324 
-0.894286 0.283667 0.346101 0.627207 0.0855777 0.774137 -0.539672 -0.0381524 0.84101 
-0.87675 0.0568674 0.477572 0.627055 -0.0614719 0.776546 0.955637 -0.022543 0.293684 
-0.332047 -0.290808 0.897316 -0.318277 -0.302991 0.898274 -0.884318 -0.235167 0.403333 
0.54602 -0.137252 0.826453 0.495287 -0.347449 0.796222 -0.400157 -0.223431 0.888793 
-0.25557 -0.28777 0.922969 -0.602717 -0.338072 0.7228 0.457979 -0.400916 0.793424 
0.521263 -0.470019 0.712297 -0.236997 -0.406451 0.8824 -0.280356 -0.282006 0.917536 
-0.279695 -0.284823 0.916868 -0.333671 -0.426058 0.840915 0.445115 -0.414012 0.794019 
0.434348 -0.429418 0.791796 0.362104 -0.549923 0.752639 -0.178386 -0.685497 0.705885 
-0.0847105 -0.644373 0.760005 -0.069965 -0.636392 0.768186 -0.251243 -0.425499 0.869383 
-0.238913 -0.541986 0.805712 -0.256816 -0.475918 0.841158 -0.284996 -0.734811 0.615491 
0.305498 -0.62981 0.71415 0.41001 -0.694757 0.590936 0.179237 -0.726782 0.66307 
0.0683142 -0.691976 0.718681 0.0284994 -0.7049 0.708734 -0.0901942 -0.732268 0.675017 
-0.183137 -0.714875 0.674844 -0.185623 -0.726141 0.662014 -0.183558 -0.787465 0.588392 
-0.0928397 -0.903881 0.417589 -0.0743827 -0.917475 0.390778 -0.174233 -0.938534 0.29799 
-0.0798033 0.970009 0.229595 0.610944 0.788188 0.0742083 0.404669 0.908661 0.10285 
0.108805 0.968516 0.223917 0.196182 0.956037 0.217958 -0.141971 0.958432 0.247491 
-0.0446421 0.958973 -0.27996 -0.32053 0.893362 0.314904 -0.425222 0.841496 0.333273 
0.617514 0.78322 0.0724063 0.719538 0.693995 0.0252286 0.62089 0.783895 -0.00178071 
-0.471875 0.811354 0.34502 -0.486104 0.789395 0.37491 -0.452571 0.828348 0.330181 
0.730704 0.682417 0.0194555 0.730145 0.667154 -0.147627 -0.438934 0.848469 0.295698 
-0.41886 0.864913 0.276554 -0.412875 0.896047 0.163201 0.782707 0.622381 -0.00331058 
0.784678 0.61984 -0.00886889 -0.421411 0.891045 0.168677 -0.431418 0.88272 0.186236 
-0.515303 0.843326 0.152526 0.83385 0.551595 -0.0208872 0.867268 0.496876 0.0309934 
-0.556289 0.815349 0.160465 -0.667784 0.720844 0.185602 0.893961 0.446046 0.0433208 
0.790862 0.419801 -0.445313 -0.794064 0.589036 0.149997 -0.900877 0.334191 0.277015 
0.938109 0.331359 0.100759 -0.907003 0.299372 0.29618 0.962711 0.162894 0.215993 
0.966513 0.0777712 0.24455 -0.947776 0.0457815 0.315633 0.963461 -0.0205902 0.267055 
0.957707 -0.0784459 0.276847 0.992487 0.00370726 -0.12229 -0.93994 -0.276752 0.199804 
-0.9218 -0.326252 0.209393 0.938699 -0.196206 0.283456 -0.832141 -0.483881 0.270925 
-0.705087 -0.680059 0.200928 0.904428 -0.40853 0.122937 0.740741 -0.622196 0.25333 
-0.700572 -0.68452 0.20157 -0.610566 -0.780699 0.133108 -0.732752 -0.671574 -0.109831 
0.73146 -0.633002 0.253527 0.547685 -0.814548 0.191186 -0.290797 -0.930662 0.222047 
-0.595544 -0.793248 0.126827 -0.468622 -0.837176 0.282012 0.505206 -0.844996 0.175355 
0.376857 -0.91677 0.132328 0.201701 -0.97099 0.128429 0.0698577 -0.990995 0.114232 
-0.0213726 -0.994265 0.104789 -0.12415 -0.990101 0.0654792 -0.189959 -0.980662 0.0470973 
-0.15121 -0.9863 0.0659376 -0.0617721 -0.994161 0.0884712 -0.0747925 -0.862129 -0.501138 
-0.0764366 -0.992 0.100465 -0.0218319 -0.887121 -0.461021 -0.238644 -0.952865 0.187343 
-0.166728 -0.975285 0.144986 -0.0877296 -0.942836 -0.321503 0.442966 0.730452 -0.519828 
0.263212 0.890896 -0.370167 -0.0397485 0.943375 -0.329337 -0.242594 0.939636 -0.241313 
-0.396989 0.89254 -0.213944 0.517887 0.666055 -0.536809 0.559976 0.605307 -0.565713 
0.429092 0.625546 -0.651593 0.294316 0.522166 -0.800451 0.0601819 0.457969 -0.886929 
-0.105149 0.504434 -0.857024 -0.468098 0.858977 -0.207467 -0.348038 0.697732 -0.62613 
-0.47896 0.853332 -0.205963 -0.529573 0.822535 -0.207336 0.610115 0.530634 -0.588377 
0.610698 0.506837 -0.608412 0.497727 0.461645 -0.734269 0.321534 0.370233 -0.871518 
-0.286189 0.447218 -0.847403 -0.514776 0.821162 -0.246372 -0.484848 0.713305 -0.50608 
-0.500884 0.815089 -0.291111 -0.424632 0.819051 -0.385802 0.61373 0.478136 -0.628269 
0.645676 0.44875 -0.61784 0.541903 0.433084 -0.720263 0.397322 0.302415 -0.866418 
-0.37929 0.505131 -0.77523 -0.422803 0.818997 -0.387919 -0.414674 0.780492 -0.467844 
-0.444095 0.786283 -0.42958 -0.510117 0.734205 -0.448022 0.645202 0.449875 -0.617517 
0.635167 0.440911 -0.634161 0.407906 0.323196 -0.853907 -0.37945 0.532057 -0.756923 
-0.524331 0.723559 -0.448931 -0.503546 0.706651 -0.497077 -0.628138 0.610156 -0.482858 
0.711967 0.395798 -0.580041 0.738454 0.380387 -0.556768 0.469206 0.35193 -0.809933 
-0.336642 0.403293 -0.850898 -0.678504 0.551364 -0.485418 -0.596671 0.540235 -0.593405 
-0.783636 0.408778 -0.467778 0.780159 0.357204 -0.513573 0.68115 0.316515 -0.660191 
-0.445613 0.324843 -0.83421 -0.806989 0.375625 -0.455714 -0.771201 0.375221 -0.514255 
0.852547 0.255904 -0.455716 0.581911 0.131195 -0.802601 -0.891624 0.01773 -0.45243 
-0.844284 0.0265423 -0.535238 0.916377 0.0222995 -0.399695 0.581434 0.0213918 -0.813312 
-0.893081 -0.217792 -0.393666 -0.872347 -0.282497 -0.399006 -0.863099 -0.215115 -0.456931 
0.893929 -0.198924 -0.401646 0.57724 -0.0378365 -0.815697 -0.25213 -0.141622 -0.957274 
-0.808881 -0.421295 -0.41015 -0.620834 -0.476976 -0.622141 0.833772 -0.400693 -0.379828 
0.724652 -0.564632 -0.395058 0.621308 -0.319865 -0.715307 -0.128746 -0.34003 -0.93156 
-0.483972 -0.782601 -0.391544 -0.352972 -0.399204 -0.846196 -0.706492 -0.593261 -0.385889 
-0.697204 -0.607686 -0.380295 -0.690941 -0.589283 -0.418743 0.677249 -0.608477 -0.413629 
0.486199 -0.758629 -0.433695 0.440749 -0.531112 -0.723644 0.268235 -0.329254 -0.905341 
-0.125487 -0.37569 -0.91821 -0.0752081 -0.846747 -0.526652 -0.0492984 -0.430859 -0.901072 
-0.0153825 -0.818406 -0.574435 -0.0441082 -0.447789 -0.893051 -0.063449 -0.888204 -0.455048 
-0.116837 -0.442543 -0.889103 -0.21084 -0.840361 -0.499339 -0.113401 -0.551423 -0.826482 
-0.465328 -0.79117 -0.396888 -0.347749 -0.833654 -0.429059 -0.272106 -0.707733 -0.651976 
0.379736 -0.838057 -0.391741 0.330994 -0.85799 -0.392805 0.308414 -0.799037 -0.516159 
0.211767 -0.857842 -0.468254 0.157649 -0.700541 -0.695981 0.0905318 -0.896947 -0.432771 
0.0969808 -0.634065 -0.767174 -0.0392686 -0.904943 -0.423717 -0.0414807 -0.612597 -0.789306 
-0.174493 -0.872399 -0.456587 -0.145873 -0.664536 -0.73288 -0.196554 -0.85409 -0.481557 
-0.188214 -0.73476 -0.651693 -0.0827919 -0.849415 -0.521191 -0.151422 -0.855131 -0.495804 
-0.15073 -0.819062 -0.553551 0.241891 0.380211 -0.892708 0.0616654 0.44845 -0.891678 
-0.103378 0.498575 -0.86066 -0.25151 0.461562 -0.850708 0.300136 0.351143 -0.886914 
0.30906 0.348713 -0.884806 0.191761 0.227982 -0.954595 0.0876883 0.256847 -0.962466 
-0.0392292 0.251282 -0.967119 -0.282453 0.44217 -0.851297 -0.176724 0.32992 -0.927319 
-0.281933 0.43961 -0.852794 -0.273498 0.400606 -0.874479 0.344883 0.267417 -0.899746 
0.348859 0.256404 -0.901418 0.231693 0.201775 -0.951633 0.123588 0.120475 -0.984993 
0.0750277 0.0282306 -0.996782 -0.0169261 0.0178978 -0.999697 -0.112614 0.0500312 -0.992378 
-0.138292 0.163164 -0.976859 -0.289842 0.395656 -0.871463 -0.218313 0.32276 -0.920959 
-0.274974 0.351857 -0.894755 -0.255428 0.339641 -0.905208 0.320682 0.240291 -0.9162 
0.339784 0.261847 -0.903318 0.286759 0.203644 -0.936108 0.148831 0.113058 -0.982378 
0.0313018 0.0341967 -0.998925 -0.0229117 -0.0950701 -0.995207 -0.018871 -0.105985 -0.994189 
-0.0169417 -0.116969 -0.992991 -0.0345466 0.00709227 -0.999378 -0.0895457 0.0872338 -0.992155 
-0.173918 0.206219 -0.962926 -0.255236 0.338753 -0.905594 -0.254038 0.336723 -0.906687 
-0.259651 0.323817 -0.909793 0.34474 0.260165 -0.901925 0.337381 0.322279 -0.884483 
0.33206 0.252222 -0.908911 0.202374 0.149707 -0.967798 0.0566747 0.0630419 -0.9964 
-0.0831146 -0.0230967 -0.996272 -0.0678651 -0.104185 -0.99224 -0.0374776 0.108202 -0.993422 
0.00250944 -0.0742732 -0.997235 0.0642024 -0.0100302 -0.997886 -0.0181538 -0.0289664 -0.999416 
-0.0898 0.0530391 -0.994547 -0.103359 0.168577 -0.980254 -0.262327 0.309532 -0.913988 
-0.248309 0.301429 -0.920588 -0.146125 0.22487 -0.963369 0.345796 0.321432 -0.881537 
0.333633 0.320942 -0.886389 0.186486 0.208413 -0.960097 0.0953903 0.0951827 -0.990879 
-0.0246258 -0.00779983 -0.999666 -0.133967 -0.0884107 -0.987034 0.106731 -0.00584181 -0.994271 
0.0287289 -0.0217043 -0.999352 -0.138542 0.00825392 -0.990322 0.00549727 0.00424819 -0.999976 
-0.0278546 -0.108496 -0.993707 0.0294783 -0.0126112 -0.999486 -0.0547673 0.0912997 -0.994316 
-0.134499 0.0916225 -0.986669 -0.201096 0.243681 -0.948778 -0.130126 0.214178 -0.968088 
-0.408866 0.183313 -0.893994 0.442842 0.130917 -0.88699 0.328357 0.151106 -0.932389 
0.152904 0.11946 -0.980994 -0.0173098 0.0365205 -0.999183 -0.124965 -0.0398275 -0.991361 
-0.0830293 -0.0629998 -0.994554 -0.0452027 0.0402866 -0.998165 -0.0371637 -0.375813 -0.92595 
0.0898024 0.0301613 -0.995503 -0.0673525 -0.141661 -0.987621 -0.0164717 -0.129498 -0.991443 
0.10591 -0.0475122 -0.99324 0.00822581 -0.0152866 -0.999849 -0.0904883 0.0339746 -0.995318 
-0.139344 0.0568175 -0.988613 -0.41745 0.108268 -0.902227 -0.396152 0.103425 -0.912341 
0.478095 0.0172647 -0.878138 0.313074 0.052926 -0.948253 0.096243 -0.00918047 -0.995316 
-0.0600234 -0.0220165 -0.997954 -0.122608 -0.0109794 -0.992394 -0.0626039 0.0518225 -0.996692 
-0.0923081 0.00882677 -0.995691 0.000492576 -0.0205201 -0.999789 0.00438203 -0.0383664 -0.999254 
-0.159518 -0.111459 -0.980883 0.0781112 -0.0368024 -0.996265 0.145308 -0.0253158 -0.989063 
0.0273052 -0.0907631 -0.995498 -0.0694187 0.0107735 -0.997529 -0.183332 -0.127802 -0.974708 
-0.086737 -0.119799 -0.989002 -0.419003 -0.136102 -0.897726 -0.420412 -0.265313 -0.867677 
-0.331613 -0.0979777 -0.938314 0.461436 -0.0716151 -0.884278 0.340059 -0.14053 -0.929845 
0.0584638 -0.139641 -0.988475 -0.0191464 -0.0231946 -0.999548 -0.052252 0.000598296 -0.998634 
-0.058945 0.077336 -0.995261 -0.137638 0.00588557 -0.990465 -0.0693274 0.060132 -0.99578 
-0.0061258 -0.081785 -0.996631 -0.0568419 0.0040041 -0.998375 0.0627346 0.0254904 -0.997705 
0.0533975 -0.0941778 -0.994122 0.0398038 -0.0875886 -0.995361 -0.217642 -0.14339 -0.965438 
-0.118657 -0.283049 -0.951737 -0.117872 -0.181404 -0.976319 0.259938 -0.329393 -0.907707 
0.227294 -0.343058 -0.911399 0.218302 -0.336435 -0.916054 0.263768 -0.320022 -0.909952 
0.186413 -0.202567 -0.961362 0.0811508 -0.164895 -0.982967 -0.0235488 -0.0767711 -0.996771 
-0.0528665 -0.0461546 -0.997534 -0.127933 -0.0556205 -0.990222 -0.0903239 -0.0147808 -0.995803 
-0.098044 -0.270009 -0.957853 -0.0538359 -0.129033 -0.990178 -0.0377053 -0.195286 -0.980021 
-0.0366811 -0.132031 -0.990567 -0.0303548 -0.198593 -0.979612 -0.0285324 -0.116175 -0.992819 
0.0199648 -0.229873 -0.973016 0.0222803 -0.227649 -0.973488 -0.0896004 -0.31236 -0.945729 
-0.0647906 -0.350206 -0.934429 -0.0587865 -0.302171 -0.951439 0.255073 -0.330142 -0.908815 
0.118197 -0.441284 -0.889549 0.115015 -0.372799 -0.920756 0.0872132 -0.466339 -0.880296 
0.069016 -0.296541 -0.952523 -0.0309705 -0.465322 -0.8846 -0.0287028 -0.276119 -0.960695 
-0.122949 -0.423069 -0.897717 -0.111062 -0.267172 -0.957228 -0.139709 -0.320033 -0.937049 
-0.154464 -0.332161 -0.930489 -0.148407 -0.288868 -0.945796 
