# vtk DataFile Version 4.2
vtk output
ASCII
DATASET POLYDATA
POINTS 528 float
-37.9733 4.0034 -24.5212 -37.9733 -25.3111 -17.3059 -30.6447 -25.3111 -19.4883 
-23.3161 -25.3111 -20.0983 -15.9874 -25.3111 -19.1569 -8.65883 -25.3111 -17.456 
-45.3019 -17.9825 -18.9869 -37.9733 -17.9825 -22.0824 -30.6447 -17.9825 -22.9087 
-23.3161 -17.9825 -23.0462 -15.9874 -17.9825 -22.2551 -8.65883 -17.9825 -21.0352 
-1.3302 -17.9825 -20.0103 5.99842 -17.9825 -18.2199 27.9843 -17.9825 -17.5431 
-52.6306 -10.6538 -18.3539 -45.3019 -10.6538 -22.1421 -37.9733 -10.6538 -23.4096 
-30.6447 -10.6538 -23.8309 -23.3161 -10.6538 -23.6872 -15.9874 -10.6538 -22.8874 
-8.65883 -10.6538 -21.8993 -1.3302 -10.6538 -21.3354 5.99842 -10.6538 -20.1948 
13.327 -10.6538 -18.1887 20.6557 -10.6538 -18.7144 27.9843 -10.6538 -19.1645 
35.3129 -10.6538 -18.8456 -52.6306 -3.32522 -20.019 -45.3019 -3.32522 -23.18 
-37.9733 3.32805 -24.5084 -37.9733 -3.32522 -24.3818 -30.6447 -3.32522 -24.4227 
-23.3161 -3.32522 -23.7821 -15.9874 -3.32522 -22.9269 -8.65883 -3.32522 -22.534 
-1.3302 -3.32522 -21.4464 5.99842 -3.32522 -20.879 13.327 -3.32522 -19.3911 
20.6557 -3.32522 -19.1386 27.9843 -3.32522 -19.5611 35.3129 -3.32522 -19.3044 
42.6415 -3.32522 -17.6667 -52.6306 4.0034 -20.2317 -38.0638 4.0034 -24.5084 
-45.3019 4.0034 -23.3904 -34.1797 4.0034 -24.5084 -37.9733 4.09652 -24.5084 
-30.6447 4.0034 -24.4968 -23.3161 4.0034 -23.8083 -15.9874 4.0034 -22.7674 
-8.65883 4.0034 -22.2964 -1.3302 4.0034 -20.3815 5.99842 4.0034 -20.1448 
13.327 4.0034 -20.1124 20.6557 4.0034 -19.0832 27.9843 4.0034 -18.896 
35.3129 4.0034 -18.259 42.6415 4.0034 -17.2184 -52.6306 11.332 -18.9361 
-45.3019 11.332 -22.1815 -37.9733 11.332 -23.485 -30.6447 11.332 -23.8475 
-23.3161 11.332 -23.4639 -15.9874 11.332 -22.8461 -8.65883 11.332 -21.943 
-1.3302 11.332 -20.0962 5.99842 11.332 -19.4667 13.327 11.332 -19.2055 
20.6557 11.332 -17.4708 -45.3019 18.6606 -18.6371 -37.9733 18.6606 -21.2909 
-30.6447 18.6606 -22.4552 -23.3161 18.6606 -22.7648 -15.9874 18.6606 -22.7888 
-8.65883 18.6606 -21.9723 -1.3302 18.6606 -20.0568 5.99842 18.6606 -18.253 
-30.6447 25.9893 -18.1044 -23.3161 25.9893 -20.2401 -15.9874 25.9893 -20.7403 
-8.65883 25.9893 -19.9603 -37.9733 -25.4403 -17.1798 -30.6447 -27.6265 -17.1798 
-23.3161 -28.4899 -17.1798 -15.9874 -27.5079 -17.1798 -8.65883 -25.6105 -17.1798 
-38.2409 -25.3111 -17.1798 -45.3019 -20.7305 -17.1798 -7.60274 -25.3111 -17.1798 
-1.3302 -22.9031 -17.1798 -1.3302 -25.3111 -15.2288 5.99842 -19.837 -17.1798 
5.99842 -25.3111 -13.3018 13.327 -25.3111 -12.1125 20.6557 -25.3111 -12.4816 
27.9843 -18.6394 -17.1798 27.9843 -25.3111 -12.2807 35.3129 -25.3111 -10.8199 
-48.342 -17.9825 -17.1798 -52.6306 -12.6496 -17.1798 -52.6306 -17.9825 -11.984 
10.8767 -17.9825 -17.1798 13.327 -15.6337 -17.1798 13.327 -17.9825 -16.672 
23.7599 -17.9825 -17.1798 20.6557 -17.0167 -17.1798 20.6557 -17.9825 -16.9355 
30.9214 -17.9825 -17.1798 35.3129 -16.3241 -17.1798 35.3129 -17.9825 -16.6601 
42.6415 -17.9825 -14.0544 -53.8833 -10.6538 -17.1798 42.1746 -10.6538 -17.1798 
42.6415 -9.29736 -17.1798 42.6415 -10.6538 -17.0562 49.9701 -10.6538 -13.2603 
-55.7238 -3.32522 -17.1798 -59.9592 -3.32522 -10.7962 44.0209 -3.32522 -17.1798 
49.9701 -3.32522 -14.6282 -55.7912 4.0034 -17.1798 -59.9592 4.0034 -10.0312 
27.9843 9.02968 -17.1798 35.3129 6.89143 -17.1798 42.7433 4.0034 -17.1798 
42.6415 4.09038 -17.1798 49.9701 4.0034 -13.8069 -54.395 11.332 -17.1798 
-52.6306 13.6729 -17.1798 13.327 18.1137 -17.1798 22.6178 11.332 -17.1798 
20.6557 12.0406 -17.1798 27.9843 11.332 -16.3208 35.3129 11.332 -15.3373 
42.6415 11.332 -13.5491 49.9701 11.332 -10.4566 -47.4723 18.6606 -17.1798 
-45.3019 20.3122 -17.1798 -37.9733 23.974 -17.1798 -1.3302 25.0835 -17.1798 
12.3208 18.6606 -17.1798 5.99842 20.5575 -17.1798 13.327 18.6606 -16.9793 
20.6557 18.6606 -13.5325 27.9843 18.6606 -11.0997 -33.1991 25.9893 -17.1798 
-37.9733 25.9893 -13.2713 -30.6447 26.8181 -17.1798 -23.3161 29.1893 -17.1798 
-15.9874 30.432 -17.1798 -2.42203 25.9893 -17.1798 -8.65883 29.095 -17.1798 
-1.3302 25.9893 -16.5124 5.99842 25.9893 -12.5074 -15.9874 33.3179 -10.9356 
-37.9733 -28.9659 -9.85115 -30.6447 -31.6417 -9.85115 -23.3161 -32.2279 -9.85115 
-15.9874 -31.8622 -9.85115 -8.65883 -30.7313 -9.85115 -1.3302 -29.4674 -9.85115 
5.99842 -28.2232 -9.85115 13.327 -27.2124 -9.85115 20.6557 -27.4469 -9.85115 
27.9843 -27.092 -9.85115 35.3129 -26.0915 -9.85115 -52.6306 -19.2384 -9.85115 
-44.9337 -25.3111 -9.85115 -45.3019 -25.0778 -9.85115 37.6817 -25.3111 -9.85115 
42.6415 -23.1878 -9.85115 42.6415 -25.3111 -4.83924 -53.7659 -17.9825 -9.85115 
49.2461 -17.9825 -9.85115 49.9701 -17.0647 -9.85115 49.9701 -17.9825 -8.84893 
-58.8374 -10.6538 -9.85115 -59.9592 -5.547 -9.85115 53.5926 -10.6538 -9.85115 
57.2988 -10.6538 -3.46553 -60.3762 -3.32522 -9.85115 55.5993 -3.32522 -9.85115 
57.2988 -3.32522 -7.66246 -60.0329 4.0034 -9.85115 -59.9592 4.26363 -9.85115 
-59.9592 4.0034 -8.83983 55.0898 4.0034 -9.85115 57.2988 4.0034 -7.36997 
-57.6179 11.332 -9.85115 -52.6306 17.5681 -9.85115 35.3129 18.547 -9.85115 
42.6415 16.2143 -9.85115 50.7456 11.332 -9.85115 49.9701 12.1473 -9.85115 
-51.4503 18.6606 -9.85115 -45.3019 23.0846 -9.85115 13.327 25.9144 -9.85115 
20.6557 21.9295 -9.85115 34.7953 18.6606 -9.85115 27.9843 19.8452 -9.85115 
35.3129 18.6606 -9.7324 42.6415 18.6606 -7.18394 -40.2129 25.9893 -9.85115 
-37.9733 27.1841 -9.85115 -30.6447 30.1449 -9.85115 -23.3161 32.3021 -9.85115 
-8.65883 33.1471 -9.85115 -1.3302 30.5826 -9.85115 13.0732 25.9893 -9.85115 
5.99842 27.8926 -9.85115 13.327 25.9893 -9.66357 -18.0414 33.3179 -9.85115 
-10.8685 33.3179 -9.85115 -15.9874 33.6986 -9.85115 -8.65883 33.3179 -8.79706 
-37.9733 -28.6323 -2.52253 -30.6447 -31.2643 -2.52253 -23.3161 -32.3295 -2.52253 
-15.9874 -32.6389 -2.52253 -8.65883 -32.2716 -2.52253 -1.3302 -31.6971 -2.52253 
5.99842 -30.9311 -2.52253 13.327 -29.9362 -2.52253 20.6557 -29.543 -2.52253 
27.9843 -29.3964 -2.52253 35.3129 -28.7566 -2.52253 42.6415 -25.993 -2.52253 
-52.6306 -19.3417 -2.52253 -44.7319 -25.3111 -2.52253 -45.3019 -24.9904 -2.52253 
43.879 -25.3111 -2.52253 49.9701 -21.1128 -2.52253 -53.8831 -17.9825 -2.52253 
-52.6306 -17.9825 0.28979 53.4571 -17.9825 -2.52253 57.2988 -11.6194 -2.52253 
-58.7262 -10.6538 -2.52253 -59.9592 -5.18674 -2.52253 57.7435 -10.6538 -2.52253 
-60.3304 -3.32522 -2.52253 -59.9592 -0.00325248 -2.52253 -59.9592 -3.32522 -1.65452 
60.2147 -3.32522 -2.52253 -59.4472 4.0034 -2.52253 60.1697 4.0034 -2.52253 
57.2988 10.5697 -2.52253 -56.7731 11.332 -2.52253 -52.6306 16.2798 -2.52253 
-52.6306 11.332 4.16639 56.8418 11.332 -2.52253 49.9701 18.2363 -2.52253 
57.2988 11.332 -1.26578 -50.1168 18.6606 -2.52253 -45.3019 22.1664 -2.52253 
-45.3019 18.6606 3.86513 20.6557 25.8918 -2.52253 27.9843 24.2858 -2.52253 
35.3129 23.3899 -2.52253 49.2949 18.6606 -2.52253 42.6415 22.1333 -2.52253 
49.9701 18.6606 -1.50928 -39.4417 25.9893 -2.52253 -37.9733 26.7701 -2.52253 
-37.9733 25.9893 -0.555994 -30.6447 29.3367 -2.52253 -23.3161 31.758 -2.52253 
-1.3302 33.0689 -2.52253 5.99842 30.9879 -2.52253 20.38 25.9893 -2.52253 
13.327 28.4626 -2.52253 20.6557 25.9893 -2.20527 27.9843 25.9893 2.15422 
35.3129 25.9893 4.80249 -17.6803 33.3179 -2.52253 -15.9874 33.7639 -2.52253 
-15.9874 33.3179 -0.464392 -2.77951 33.3179 -2.52253 -8.65883 34.2634 -2.52253 
-1.3302 33.3179 0.810519 -37.9733 -26.0779 4.80609 -30.6447 -28.2992 4.80609 
-23.3161 -29.9441 4.80609 -15.9874 -30.5354 4.80609 -8.65883 -30.2931 4.80609 
-1.3302 -29.7695 4.80609 5.99842 -29.4327 4.80609 13.327 -29.1292 4.80609 
20.6557 -29.1596 4.80609 27.9843 -29.2273 4.80609 35.3129 -28.8063 4.80609 
42.6415 -25.9696 4.80609 -39.4788 -25.3111 4.80609 -45.3019 -21.9963 4.80609 
-37.9733 -25.3111 5.94316 -30.6447 -25.3111 8.99773 -23.3161 -25.3111 11.0956 
-15.9874 -25.3111 11.8734 -8.65883 -25.3111 10.9849 -1.3302 -25.3111 10.6105 
5.99842 -25.3111 11.1518 43.8878 -25.3111 4.80609 42.6415 -25.3111 7.28643 
49.9701 -21.3473 4.80609 -50.159 -17.9825 4.80609 -52.6306 -14.9929 4.80609 
-45.3019 -17.9825 9.31297 53.8159 -17.9825 4.80609 57.2988 -12.7263 4.80609 
-55.3735 -10.6538 4.80609 -52.6306 -10.6538 8.09112 58.3028 -10.6538 4.80609 
57.2988 -10.6538 8.12869 -56.2952 -3.32522 4.80609 -52.6306 -3.32522 9.05625 
61.2461 -3.32522 4.80609 -54.7704 4.0034 4.80609 -52.6306 10.1417 4.80609 
-52.6306 4.0034 7.13381 61.3502 4.0034 4.80609 -52.0432 11.332 4.80609 
-45.3019 17.8538 4.80609 -45.3019 11.332 9.29884 59.0325 11.332 4.80609 
57.2988 14.4969 4.80609 57.2988 11.332 11.3066 -44.3224 18.6606 4.80609 
-37.9733 22.7774 4.80609 -37.9733 18.6606 8.84321 42.6415 24.3253 4.80609 
53.4544 18.6606 4.80609 49.9701 20.8216 4.80609 -31.4173 25.9893 4.80609 
-30.6447 26.2975 4.80609 -30.6447 25.9893 5.28858 -23.3161 29.4896 4.80609 
-23.3161 25.9893 11.2893 -15.9874 32.1163 4.80609 5.99842 32.4115 4.80609 
13.327 30.2195 4.80609 20.6557 27.9759 4.80609 27.9843 26.9302 4.80609 
35.3179 25.9893 4.80609 35.3129 25.9905 4.80609 -9.94714 33.3179 4.80609 
-8.65883 33.5621 4.80609 -8.65883 33.3179 5.52671 0.420033 33.3179 4.80609 
-1.3302 33.5995 4.80609 -1.3302 33.3179 6.14961 13.327 -25.8645 12.1347 
20.6557 -26.5718 12.1347 27.9843 -27.014 12.1347 35.3129 -26.2824 12.1347 
-37.9733 -19.3397 12.1347 -30.6447 -22.6032 12.1347 -23.3161 -24.2988 12.1347 
-15.9874 -25.037 12.1347 -8.65883 -24.0644 12.1347 -1.3302 -23.8084 12.1347 
10.0244 -25.3111 12.1347 5.99842 -24.5067 12.1347 13.327 -25.3111 12.8512 
20.6557 -25.3111 14.1114 27.9843 -25.3111 15.1136 38.3727 -25.3111 12.1347 
35.3129 -25.3111 13.6988 42.6415 -23.6807 12.1347 49.9701 -18.5852 12.1347 
-40.1485 -17.9825 12.1347 -45.3019 -12.5232 12.1347 -37.9733 -17.9825 13.1966 
-30.6447 -17.9825 15.8327 -23.3161 -17.9825 17.1522 -15.9874 -17.9825 17.3251 
-8.65883 -17.9825 16.8423 -1.3302 -17.9825 17.1547 5.99842 -17.9825 17.8748 
13.327 -17.9825 19.3415 42.6415 -17.9825 18.5128 50.6176 -17.9825 12.1347 
49.9701 -17.9825 12.8916 -46.7004 -10.6538 12.1347 -45.3019 -10.6538 12.9226 
[...]
POINT_DATA 528
SCALARS ImageScalars float
LOOKUP_TABLE default
0 0 0 0 0 0 0 0 0 
0 0 0 0 0 0 0 0 0 
0 0 0 0 0 0 0 0 0 
0 0 0 0 0 0 0 0 0 
0 0 0 0 0 0 0 0 0 
0 0 0 0 0 0 0 0 0 
0 0 0 0 0 0 0 0 0 
0 0 0 0 0 0 0 0 0 
0 0 0 0 0 0 0 0 0 
0 0 0 0 0 0 0 0 0 
0 0 0 0 0 0 0 0 0 
0 0 0 0 0 0 0 0 0 
0 0 0 0 0 0 0 0 0 
0 0 0 0 0 0 0 0 0 
0 0 0 0 0 0 0 0 0 
0 0 0 0 0 0 0 0 0 
0 0 0 0 0 0 0 0 0 
0 0 0 0 0 0 0 0 0 
0 0 0 0 0 0 0 0 0 
0 0 0 0 0 0 0 0 0 
0 0 0 0 0 0 0 0 0 
0 0 0 0 0 0 0 0 0 
0 0 0 0 0 0 0 0 0 
0 0 0 0 0 0 0 0 0 
0 0 0 0 0 0 0 0 0 
0 0 0 0 0 0 0 0 0 
0 0 0 0 0 0 0 0 0 
0 0 0 0 0 0 0 0 0 
0 0 0 0 0 0 0 0 0 
0 0 0 0 0 0 0 0 0 
0 0 0 0 0 0 0 0 0 
0 0 0 0 0 0 0 0 0 
0 0 0 0 0 0 0 0 0 
0 0 0 0 0 0 0 0 0 
0 0 0 0 0 0 0 0 0 
0 0 0 0 0 0 0 0 0 
0 0 0 0 0 0 0 0 0 
0 0 0 0 0 0 0 0 0 
0 0 0 0 0 0 0 0 0 
0 0 0 0 0 0 0 0 0 
0 0 0 0 0 0 0 0 0 
0 0 0 0 0 0 0 0 0 
0 0 0 0 0 0 0 0 0 
0 0 0 0 0 0 0 0 0 
0 0 0 0 0 0 0 0 0 
0 0 0 0 0 0 0 0 0 
0 0 0 0 0 0 0 0 0 
0 0 0 0 0 0 0 0 0 
0 0 0 0 0 0 0 0 0 
0 0 0 0 0 0 0 0 0 
0 0 0 0 0 0 0 0 0 
0 0 0 0 0 0 0 0 0 
0 0 0 0 0 0 0 0 0 
0 0 0 0 0 0 0 0 0 
0 0 0 0 0 0 0 0 0 
0 0 0 0 0 0 0 0 0 
0 0 0 0 0 0 0 0 0 
0 0 0 0 0 0 0 0 0 
0 0 0 0 0 0 
NORMALS Normals float
-0.0688652 0.0591389 -0.995872 -0.310687 -0.680501 -0.66362 -0.16471 -0.620741 -0.766519 
0.0231376 -0.57706 -0.816374 0.153981 -0.573526 -0.804586 0.207005 -0.62817 -0.750034 
-0.422653 -0.482135 -0.767404 -0.241223 -0.351907 -0.904419 -0.0575294 -0.247966 -0.967059 
0.0439404 -0.216005 -0.975403 0.13349 -0.216971 -0.967008 0.145128 -0.250725 -0.957118 
0.180352 -0.332178 -0.925814 0.217808 -0.380362 -0.898824 0.0181422 -0.370892 -0.928499 
-0.619699 -0.30804 -0.721862 -0.273485 -0.257715 -0.926708 -0.114881 -0.141016 -0.983319 
-0.0179991 -0.0986984 -0.994955 0.0650099 -0.0482332 -0.996718 0.118856 -0.0434605 -0.99196 
0.106689 -0.101123 -0.989137 0.110467 -0.0913456 -0.989673 0.215102 -0.170035 -0.961675 
0.0931421 -0.175512 -0.980061 -0.0657227 -0.140586 -0.987885 -0.00962784 -0.12342 -0.992308 
0.131489 -0.171987 -0.976284 -0.563612 -0.0964634 -0.820388 -0.24826 -0.0876194 -0.964723 
-0.0697514 0.0468599 -0.996463 -0.0778922 -0.0747163 -0.994158 0.0408522 -0.0449997 -0.998151 
0.101634 -0.00820523 -0.994788 0.0845205 0.00809656 -0.996389 0.100376 -0.0264767 -0.994597 
0.112301 0.0607271 -0.991817 0.138242 0.00471833 -0.990387 0.119886 -0.131598 -0.984027 
-0.0103659 -0.0249417 -0.999635 -0.0121121 0.0175136 -0.999773 0.128566 0.0338604 -0.991123 
0.283489 -0.00633267 -0.958955 -0.575811 0.0629047 -0.81516 -0.0707187 0.0593383 -0.99573 
-0.2415 0.0697374 -0.967892 -0.00749203 0.0485496 -0.998793 -0.0694535 0.0606599 -0.995739 
0.0484112 0.0387437 -0.998076 0.117276 0.0215672 -0.992865 0.102226 0.00548783 -0.994746 
0.154854 0.0395786 -0.987144 0.150494 0.0948451 -0.984051 0.0175841 0.0973739 -0.995093 
0.072666 0.0116203 -0.997289 0.0818367 0.107762 -0.990803 0.0521167 0.208116 -0.976715 
0.117947 0.249727 -0.961106 0.257454 0.256334 -0.931671 -0.626339 0.364001 -0.689349 
-0.273388 0.295019 -0.915545 -0.110897 0.190795 -0.975346 0.00261899 0.130536 -0.99144 
0.0678043 0.069228 -0.995294 0.101047 -0.00149818 -0.994881 0.183139 0.0217413 -0.982847 
0.169188 0.0213673 -0.985352 0.0587461 0.122444 -0.990735 0.129593 0.198758 -0.971443 
0.188245 0.306824 -0.932965 -0.429135 0.604059 -0.671532 -0.239811 0.454129 -0.858055 
-0.087608 0.322566 -0.942484 -0.0212858 0.191973 -0.981169 0.053442 0.133182 -0.98965 
0.182269 0.109782 -0.977101 0.247784 0.189547 -0.950092 0.199004 0.335478 -0.920789 
-0.268419 0.71409 -0.64655 -0.148244 0.567511 -0.80991 0.0163507 0.470295 -0.882358 
0.241593 0.499272 -0.832082 -0.311614 -0.686607 -0.656862 -0.173149 -0.736147 -0.654298 
0.00599682 -0.746436 -0.66543 0.15537 -0.69667 -0.700365 0.207508 -0.64305 -0.737175 
-0.316058 -0.684563 -0.656872 -0.439772 -0.597259 -0.670733 0.207531 -0.636337 -0.742971 
0.206356 -0.561652 -0.801227 0.199048 -0.695127 -0.690781 0.205344 -0.451428 -0.868359 
0.152869 -0.709528 -0.687897 0.0412179 -0.735205 -0.676591 -0.00983764 -0.749938 -0.661435 
0.0204193 -0.398524 -0.916931 0.0825053 -0.776859 -0.624246 0.206437 -0.802558 -0.559718 
-0.523837 -0.506056 -0.685202 -0.648702 -0.356851 -0.672193 -0.715836 -0.61244 -0.335405 
0.126194 -0.345104 -0.930042 0.0836904 -0.274457 -0.957951 0.0773784 -0.33154 -0.940263 
-0.0247914 -0.360595 -0.932393 -0.0554932 -0.324641 -0.944208 -0.0531044 -0.354845 -0.933416 
0.0891998 -0.38339 -0.919269 0.177394 -0.345873 -0.921359 0.190495 -0.404963 -0.894269 
0.396325 -0.473044 -0.786864 -0.669766 -0.311956 -0.673867 0.311513 -0.20846 -0.927094 
0.316627 -0.172877 -0.932663 0.324748 -0.211575 -0.921832 0.580569 -0.263817 -0.770286 
-0.700716 -0.0936938 -0.707261 -0.958928 -0.0739875 -0.27383 0.318696 -0.0107003 -0.947797 
0.509645 -0.0246758 -0.860031 -0.725215 0.0778119 -0.684111 -0.970766 0.162577 -0.176582 
0.10242 0.3512 -0.930682 0.138562 0.340391 -0.930018 0.260529 0.256597 -0.930743 
0.257746 0.259313 -0.930765 0.501904 0.243601 -0.82991 -0.710991 0.372661 -0.596335 
-0.671889 0.451031 -0.587482 0.23985 0.413618 -0.878289 0.169814 0.338398 -0.925554 
0.200274 0.331156 -0.922077 0.123878 0.427114 -0.895672 0.170114 0.482938 -0.858971 
0.276206 0.50032 -0.820603 0.502023 0.488823 -0.71346 -0.50873 0.629983 -0.586783 
-0.439728 0.683249 -0.582933 -0.334415 0.717076 -0.61153 0.352138 0.555654 -0.753159 
0.241838 0.418807 -0.87528 0.223107 0.430195 -0.874732 0.251034 0.436241 -0.864104 
0.319681 0.615142 -0.720697 0.188639 0.695899 -0.692921 -0.303425 0.74944 -0.588449 
-0.396971 0.857705 -0.326737 -0.278998 0.752683 -0.596346 -0.208358 0.759198 -0.616608 
0.000445315 0.75664 -0.653831 0.348385 0.593524 -0.725505 0.262883 0.689823 -0.674564 
0.361533 0.616484 -0.699458 0.273225 0.763904 -0.584635 -0.0479641 0.97256 -0.227654 
-0.373974 -0.913307 -0.161287 -0.2213 -0.957563 -0.184661 -0.0126356 -0.978098 -0.207761 
0.0946181 -0.956585 -0.275669 0.150468 -0.917521 -0.368123 0.153558 -0.87508 -0.458972 
0.137997 -0.833934 -0.534331 0.0458731 -0.830865 -0.55458 0.00810443 -0.865712 -0.500476 
0.0841512 -0.869126 -0.48738 0.208774 -0.831264 -0.515182 -0.711049 -0.673906 -0.200648 
-0.542352 -0.823773 -0.165083 -0.551775 -0.817109 -0.166962 0.27843 -0.816851 -0.505204 
0.438053 -0.731131 -0.523027 0.428644 -0.872637 -0.234028 -0.739222 -0.638504 -0.214157 
0.608421 -0.566719 -0.555565 0.628804 -0.53668 -0.562655 0.635845 -0.589796 -0.497837 
-0.898073 -0.38029 -0.221009 -0.962155 -0.164892 -0.216954 0.714541 -0.302737 -0.6307 
0.885078 -0.365428 -0.288268 -0.973481 -0.071768 -0.21722 0.732571 -0.0773746 -0.676279 
0.822746 -0.109724 -0.557718 -0.972569 0.163347 -0.16561 -0.970873 0.173739 -0.164988 
-0.9796 0.169815 -0.107455 0.671367 0.226494 -0.705667 0.784184 0.220802 -0.579916 
-0.871307 0.473101 -0.130382 -0.736886 0.667711 -0.105646 0.174983 0.710908 -0.681169 
0.273989 0.653399 -0.705691 0.527829 0.491013 -0.693039 0.505383 0.512694 -0.69407 
-0.697172 0.70936 -0.103735 -0.5135 0.85316 -0.0918446 0.334444 0.830391 -0.445644 
0.331624 0.750607 -0.571502 0.175571 0.713231 -0.678584 0.184375 0.735354 -0.65212 
0.175047 0.715653 -0.676165 0.289792 0.736379 -0.611364 -0.433726 0.893131 -0.119156 
-0.415508 0.901132 -0.123749 -0.326001 0.93596 -0.133049 -0.233872 0.962719 -0.135928 
0.187873 0.941878 -0.278511 0.322374 0.851254 -0.414055 0.33194 0.8314 -0.445634 
0.274044 0.833806 -0.479237 0.333903 0.833819 -0.439607 -0.101432 0.981591 -0.161838 
0.11463 0.962315 -0.246598 -0.0533575 0.98343 -0.173257 0.166623 0.956276 -0.240359 
-0.368093 -0.912759 0.177142 -0.237844 -0.952866 0.188354 -0.0894207 -0.986706 0.135705 
0.00434101 -0.997127 0.0756234 0.0640538 -0.997698 0.0222458 0.0913377 -0.995681 -0.0166231 
0.12004 -0.990728 -0.0636216 0.0942008 -0.989828 -0.10662 0.0365589 -0.99344 -0.108352 
0.0503842 -0.990357 -0.129052 0.219021 -0.963177 -0.15595 0.418062 -0.898743 -0.132232 
-0.707157 -0.689262 0.157629 -0.51711 -0.838108 0.173701 -0.530764 -0.82987 0.172063 
0.456697 -0.878625 -0.13945 0.652389 -0.733826 -0.189441 -0.742553 -0.64775 0.170399 
-0.72381 -0.622769 0.297082 0.735826 -0.64414 -0.208912 0.883121 -0.401131 -0.243292 
-0.905962 -0.370426 0.204982 -0.967431 -0.128164 0.218291 0.896082 -0.371044 -0.243646 
-0.974906 -0.0450966 0.218 -0.967573 0.0645958 0.244191 -0.964123 -0.0415502 0.262185 
0.937552 -0.145817 -0.315807 -0.939772 0.200924 0.276512 0.919501 0.189176 -0.344574 
0.792067 0.447702 -0.414962 -0.820375 0.494686 0.286827 -0.725645 0.620115 0.298155 
-0.6731 0.465566 0.574617 0.767242 0.481317 -0.42388 0.484312 0.766504 -0.421797 
0.809925 0.47033 -0.350445 -0.657584 0.696207 0.287888 -0.524706 0.808154 0.267527 
-0.529129 0.666977 0.524561 0.261131 0.899 -0.351583 0.151411 0.902726 -0.402691 
0.133892 0.882746 -0.45037 0.463193 0.777928 -0.424595 0.297392 0.843701 -0.446908 
0.487323 0.790381 -0.371234 -0.42833 0.875894 0.222133 -0.409932 0.885867 0.217244 
-0.417203 0.860359 0.292788 -0.338241 0.913957 0.224222 -0.285708 0.942896 0.171226 
0.212057 0.960055 -0.182557 0.284404 0.919155 -0.272521 0.263794 0.899676 -0.347844 
0.321063 0.908107 -0.268813 0.259531 0.902906 -0.342644 0.140506 0.951803 -0.272635 
0.186127 0.967793 -0.169511 -0.190215 0.974852 0.116114 -0.16217 0.981618 0.100637 
-0.186794 0.970249 0.15403 0.178428 0.972392 -0.150387 0.0457293 0.998625 -0.0256336 
0.151302 0.986189 -0.0673743 -0.348587 -0.817175 0.459034 -0.236201 -0.84652 0.477089 
-0.128659 -0.883433 0.450547 -0.0211577 -0.902719 0.42971 0.0472047 -0.897616 0.438244 
0.0539318 -0.898868 0.434888 0.041096 -0.927551 0.37143 0.017068 -0.967964 0.250507 
-0.00651377 -0.98227 0.187358 0.0217363 -0.987999 0.15292 0.211432 -0.965586 0.151461 
0.408832 -0.904422 0.121975 -0.367782 -0.806526 0.462874 -0.479554 -0.729667 0.487457 
-0.348347 -0.792172 0.501117 -0.220206 -0.77035 0.59839 -0.118914 -0.731697 0.671177 
0.00862595 -0.702307 0.711822 0.0576701 -0.702411 0.709432 -0.00402521 -0.736423 0.67651 
-0.0881906 -0.781586 0.617532 0.446731 -0.886178 0.12296 0.411369 -0.886428 0.21218 
0.642596 -0.755458 0.127878 -0.646404 -0.571985 0.50497 -0.719837 -0.451369 0.527352 
-0.502599 -0.555402 0.662513 0.738463 -0.661245 0.132011 0.868287 -0.483555 0.110695 
-0.780205 -0.303528 0.546947 -0.679993 -0.2962 0.670727 0.898407 -0.427313 0.101339 
0.866605 -0.424591 0.262143 -0.797109 0.0211609 0.603464 -0.686254 0.0402303 0.726249 
0.977819 -0.188396 0.0915207 -0.757483 0.209649 0.618278 -0.677608 0.416896 0.605843 
-0.697956 0.212028 0.684033 0.989242 0.13075 0.0656175 -0.649428 0.46068 0.604994 
-0.520713 0.633065 0.572789 -0.464728 0.441797 0.767361 0.910402 0.413621 -0.00923994 
0.84474 0.534001 -0.0354528 0.862131 0.341046 0.374724 -0.512698 0.647247 0.564103 
-0.430471 0.719623 0.544828 -0.432445 0.575965 0.693726 0.303558 0.949255 -0.0822606 
0.632634 0.770305 -0.0800254 0.501783 0.859765 -0.0949598 -0.365608 0.809022 0.460233 
-0.360342 0.81559 0.452733 -0.36488 0.80584 0.466353 -0.347584 0.86396 0.364361 
-0.408149 0.743123 0.530267 -0.25089 0.921232 0.297299 0.222902 0.973271 -0.0552978 
0.294088 0.947842 -0.122915 0.214754 0.962196 -0.16751 0.128009 0.972055 -0.196779 
0.186239 0.967807 -0.169309 0.186159 0.967811 -0.16937 -0.120962 0.966566 0.226096 
-0.0940075 0.972831 0.211571 -0.10275 0.966906 0.23353 0.111916 0.9929 0.0403052 
0.0773294 0.994648 0.0685205 0.0533163 0.991671 0.117244 -0.115214 -0.825762 0.552126 
-0.070342 -0.888455 0.45354 0.0167749 -0.914359 0.404556 0.192256 -0.879433 0.435472 
-0.354281 -0.564726 0.745365 -0.216949 -0.674737 0.705453 -0.109806 -0.697407 0.708214 
0.00991538 -0.692177 0.72166 0.0534828 -0.662978 0.746726 -0.0233235 -0.690958 0.722519 
-0.112919 -0.793186 0.598419 -0.107144 -0.747261 0.655836 -0.125217 -0.804976 0.579943 
-0.09629 -0.836065 0.540115 0.013683 -0.845313 0.534096 0.279293 -0.862372 0.422267 
0.19318 -0.849251 0.49138 0.410493 -0.805829 0.426772 0.619112 -0.645593 0.447113 
-0.396298 -0.525253 0.753032 -0.479149 -0.323505 0.815942 -0.352563 -0.523068 0.77595 
-0.218769 -0.524133 0.823058 -0.0869357 -0.546807 0.832733 0.0177473 -0.546 0.837597 
0.0108682 -0.559941 0.828461 -0.0583852 -0.584674 0.809165 -0.121477 -0.541877 0.831633 
-0.157184 -0.475562 0.865525 0.390686 -0.523668 0.757058 0.634692 -0.628831 0.449152 
0.617078 -0.624431 0.478853 -0.50123 -0.262998 0.824379 -0.473069 -0.249493 0.844961 
-0.384789 -0.230995 0.893632 -0.279214 -0.243219 0.928916 0.775787 -0.407882 0.481443 
0.575055 -0.346512 0.741108 0.823095 -0.293306 0.486299 -0.5568 0.025022 0.83027 
-0.470438 0.0275585 0.882002 -0.375449 0.0407647 0.925946 0.849385 -0.174283 0.498167 
0.795688 -0.175452 0.579739 -0.462214 0.251041 0.850492 -0.446377 0.272524 0.852337 
-0.446648 0.250584 0.858902 -0.385372 0.236643 0.891902 -0.386767 0.194733 0.901383 
0.871204 0.0902054 0.482562 0.850172 0.299135 0.433274 0.802173 0.0833793 0.591242 
-0.416761 0.393883 0.819247 -0.411224 0.427698 0.804965 -0.402673 0.38141 0.832094 
-0.414251 0.316799 0.853249 0.841062 0.329697 0.428853 0.478842 0.319956 0.81752 
-0.435703 0.508232 0.742875 -0.442394 0.537434 0.71795 -0.446281 0.490704 0.74836 
-0.418115 0.714079 0.56149 -0.47604 0.431279 0.76641 0.353422 0.893817 0.276015 
0.342086 0.497057 0.79744 0.599899 0.709381 0.370001 0.542573 0.761717 0.35412 
0.549438 0.704096 0.449853 -0.397859 0.736963 0.546438 -0.298157 0.811016 0.503344 
-0.306735 0.72152 0.620744 -0.187191 0.867027 0.461762 -0.213517 0.677249 0.704092 
-0.0670619 0.932414 0.355114 0.0980917 0.968603 0.228442 0.220627 0.961877 0.161608 
0.21421 0.965823 0.145943 0.225294 0.784707 0.577475 0.161444 0.969142 0.186278 
0.175611 0.907169 0.382367 0.243088 0.944769 0.219818 0.241588 0.945146 0.219851 
0.241499 0.9442 0.223974 -0.141504 -0.528331 0.837164 -0.0203504 -0.59392 0.804267 
0.179186 -0.584861 0.791095 -0.127784 -0.418469 0.899197 0.00440018 -0.493258 0.869872 
0.0112544 -0.479841 0.877283 -0.04478 -0.455963 0.888872 -0.0929865 -0.47289 0.876201 
-0.155054 -0.473044 0.867288 -0.155323 -0.466437 0.870811 -0.143131 -0.461954 0.875278 
-0.028326 -0.449751 0.892705 0.319764 -0.500428 0.804564 0.171318 -0.470194 0.865776 
0.376023 -0.443561 0.813548 -0.259408 -0.257299 0.930862 -0.306386 -0.145759 0.940682 
-0.15995 -0.32941 0.93054 -0.0118446 -0.437591 0.899096 0.0248117 -0.421945 0.906282 
-0.0283681 -0.335879 0.941478 -0.052163 -0.392165 0.918415 -0.10593 -0.281179 0.953791 
-0.122518 -0.185779 0.974923 -0.0143928 -0.154536 0.987882 0.134252 -0.192943 0.971982 
0.471708 -0.3003 0.829042 0.329236 -0.264221 0.906527 0.493141 -0.198748 0.846942 
-0.352247 0.0287847 0.935464 -0.367413 0.0973268 0.924952 -0.346357 0.0244275 0.937785 
-0.294987 -0.0804228 0.952111 -0.0731164 -0.210528 0.97485 0.114026 -0.209926 0.971045 
-0.032162 -0.112274 0.993157 -0.0653238 -0.167689 0.983673 0.0321318 -0.117969 0.992497 
-0.0325842 -0.00184627 0.999467 -0.033854 -0.00449304 0.999417 0.0713995 -0.0528906 0.996045 
0.270524 -0.0867007 0.958801 0.498653 -0.148373 0.854009 0.464077 -0.134805 0.875477 
-0.396672 0.18062 0.900016 -0.413536 0.117211 0.902912 -0.135578 0.0148919 0.990655 
0.141635 -0.0603547 0.988077 0.0100207 -0.078212 0.996886 -0.0582795 -0.0156615 0.998177 
0.0684826 -0.0130394 0.997567 -0.0087685 0.0337243 0.999393 -0.0643845 0.0632362 0.99592 
0.05822 0.0840101 0.994763 0.261134 0.0834773 0.961686 0.491307 0.0704943 0.868129 
0.451081 0.221102 0.864662 0.426445 0.0661401 0.902092 -0.456198 0.263019 0.85012 
-0.475785 0.324673 0.817445 -0.469935 0.245595 0.847847 -0.238788 0.20386 0.949432 
0.0220863 0.0741768 0.997001 0.0129794 -0.0610244 0.998052 -0.000885985 -0.0180385 0.999837 
0.0842429 0.00146087 0.996444 0.0431997 0.0183299 0.998898 0.0161879 0.121479 0.992462 
0.0918818 0.213017 0.972719 0.419383 0.294655 0.85866 0.33395 0.466803 0.818885 
0.238754 0.240667 0.940785 -0.424681 0.426188 0.798755 -0.318936 0.562308 0.762948 
-0.314725 0.432083 0.845135 -0.208731 0.630158 0.747885 -0.133028 0.337991 0.9317 
-0.0791396 0.186324 0.979296 0.00492224 0.169766 0.985472 0.0972578 0.178491 0.979123 
0.217365 0.659454 0.719634 0.12227 0.272725 0.954291 0.156377 0.592576 0.79019 
0.139494 0.389966 0.910202 0.321499 0.482686 0.814649 0.176707 0.572115 0.800912 
0.170599 0.433307 0.884952 -0.194294 0.651081 0.733718 -0.155469 0.671788 0.724244 
-0.155499 0.612359 0.775136 0.00667735 0.72757 0.686001 -0.0041404 0.603754 0.79716 
0.205572 0.707347 0.676314 0.178331 0.733039 0.656393 0.173657 0.66202 0.72909 

