# vtk DataFile Version 4.2
vtk output
ASCII
DATASET POLYDATA
POINTS 514 float
-23.927 -30.876 -15.8913 -16.2365 -30.876 -16.5716 -8.54611 -30.876 -16.2368 
-0.855679 -30.876 -15.0562 22.2156 -30.876 -14.6456 -31.6174 -23.1855 -16.5867 
-23.927 -23.1855 -17.8618 -16.2365 -23.1855 -18.344 -8.54611 -23.1855 -17.7411 
-0.855679 -23.1855 -16.9818 6.83475 -23.1855 -16.8519 14.5252 -23.1855 -17.3516 
22.2156 -23.1855 -17.8296 29.906 -23.1855 -17.5526 37.5965 -23.1855 -16.7873 
-39.3078 -15.4951 -15.739 -31.6174 -15.4951 -18.0671 -23.927 -15.4951 -18.8242 
-16.2365 -15.4951 -18.8169 -8.54611 -15.4951 -18.44 -0.855679 -15.4951 -17.9817 
6.83475 -15.4951 -18.3018 14.5252 -15.4951 -18.1585 22.2156 -15.4951 -18.9734 
29.906 -15.4951 -18.8228 37.5965 -15.4951 -18.4583 45.2869 -15.4951 -17.1059 
-39.3078 -7.80469 -17.5633 -31.6174 -7.80469 -18.7517 -23.927 -7.80469 -19.127 
-16.2365 -7.80469 -19.2025 -8.54611 -7.80469 -19.3796 -0.855679 -7.80469 -17.5086 
6.83475 -7.80469 -19.7761 14.5252 -7.80469 -19.1728 22.2156 -7.80469 -18.7052 
29.906 -7.80469 -19.4384 37.5965 -7.80469 -19.7838 45.2869 -7.80469 -19.4464 
52.9773 -7.80469 -15.9433 -46.9983 -0.114261 -15.2931 -39.3078 -0.114261 -18.2334 
-31.6174 -0.114261 -19.4786 -23.927 -0.114261 -19.5163 -16.2365 -0.114261 -19.5051 
-8.54611 -0.114261 -21.1487 -0.855679 -0.114261 -17.6968 6.83475 -0.114261 -21.4886 
14.5252 -0.114261 -20.3801 22.2156 -0.114261 -18.9922 29.906 -0.114261 -19.9763 
37.5965 -0.114261 -20.4424 45.2869 -0.114261 -19.4296 52.9773 -0.114261 -16.899 
-46.9983 7.57617 -15.2036 -39.3078 7.57617 -18.1918 -31.6174 7.57617 -19.4926 
-23.927 7.57617 -19.4791 -16.2365 7.57617 -19.0447 -8.54611 7.57617 -20.8899 
-0.855679 7.57617 -20.3908 6.83475 7.57617 -19.8973 14.5252 7.57617 -19.4393 
22.2156 7.57617 -19.7204 29.906 7.57617 -20.2844 37.5965 7.57617 -20.5879 
45.2869 7.57617 -20.1922 52.9773 7.57617 -16.7355 -39.3078 15.2666 -17.4943 
-31.6174 15.2666 -19.7296 -23.927 15.2666 -19.8034 -16.2365 15.2666 -18.999 
-8.54611 15.2666 -19.7381 -0.855679 15.2666 -19.8447 6.83475 15.2666 -19.3297 
14.5252 15.2666 -19.9583 22.2156 15.2666 -20.4878 29.906 15.2666 -20.5079 
37.5965 15.2666 -20.0764 45.2869 15.2666 -18.7713 -39.3078 22.957 -14.995 
-31.6174 22.957 -18.1399 -23.927 22.957 -18.4831 -16.2365 22.957 -19.1525 
-8.54611 22.957 -19.0586 -0.855679 22.957 -19.4344 6.83475 22.957 -19.8026 
14.5252 22.957 -20.2991 22.2156 22.957 -21.0002 29.906 22.957 -20.7143 
37.5965 22.957 -19.0974 45.2869 22.957 -16.2395 -23.927 30.6475 -16.2008 
-16.2365 30.6475 -16.7872 -8.54611 30.6475 -16.8638 -0.855679 30.6475 -16.986 
6.83475 30.6475 -17.4856 14.5252 30.6475 -18.5314 22.2156 30.6475 -19.2101 
29.906 30.6475 -17.9548 37.5965 30.6475 -15.0441 -23.927 -33.5199 -14.602 
-23.927 -38.5664 -10.181 -16.2365 -34.8703 -14.602 -16.2365 -38.5664 -12.3642 
-8.54611 -34.261 -14.602 -8.54611 -38.5664 -12.1416 -0.855679 -31.8411 -14.602 
-0.855679 -38.5664 -10.9544 6.83475 -38.5664 -9.71493 14.5252 -38.5664 -8.7838 
22.2156 -30.9397 -14.602 22.2156 -38.5664 -7.3569 -27.5957 -30.876 -14.602 
-31.6174 -27.7105 -14.602 -31.6174 -30.876 -12.7164 3.03318 -30.876 -14.602 
6.83475 -29.6758 -14.602 6.83475 -30.876 -14.1505 21.279 -30.876 -14.602 
14.5252 -30.1496 -14.602 14.5252 -30.876 -14.2766 22.6743 -30.876 -14.602 
29.906 -29.522 -14.602 29.906 -30.876 -13.8154 37.5965 -27.1119 -14.602 
37.5965 -30.876 -11.2496 -36.2648 -23.1855 -14.602 -39.3078 -18.7625 -14.602 
-39.3078 -23.1855 -12.5746 43.9303 -23.1855 -14.602 45.2869 -21.9861 -14.602 
45.2869 -23.1855 -13.8046 -41.0653 -15.4951 -14.602 -46.9983 -15.4951 -9.10512 
49.8779 -15.4951 -14.602 52.9773 -11.4602 -14.602 52.9773 -15.4951 -11.6799 
-45.3443 -7.80469 -14.602 -46.9983 -3.43165 -14.602 -46.9983 -7.80469 -13.394 
54.6942 -7.80469 -14.602 -47.8251 -0.114261 -14.602 55.9446 -0.114261 -14.602 
-47.7077 7.57617 -14.602 -46.9983 10.0871 -14.602 55.7149 7.57617 -14.602 
52.9773 14.227 -14.602 -44.8327 15.2666 -14.602 -46.9983 15.2666 -12.731 
52.3243 15.2666 -14.602 52.9773 15.2666 -14.0429 -39.941 22.957 -14.602 
-46.9983 22.957 -7.33718 -39.3078 23.6636 -14.602 -31.6174 29.9327 -14.602 
47.5009 22.957 -14.602 45.2869 25.3902 -14.602 -39.3078 30.6475 -8.29352 
-30.0779 30.6475 -14.602 -31.6174 30.6475 -14.0666 -23.927 32.913 -14.602 
-16.2365 33.6066 -14.602 -8.54611 33.8293 -14.602 -0.855679 33.7535 -14.602 
6.83475 34.3326 -14.602 14.5252 35.4034 -14.602 22.2156 35.9648 -14.602 
29.906 34.8131 -14.602 38.3072 30.6475 -14.602 37.5965 31.1033 -14.602 
-23.927 38.3379 -7.34565 -16.2365 38.3379 -8.30113 -8.54611 38.3379 -7.86461 
22.2156 38.3379 -7.51168 -23.927 -40.5555 -6.9116 -16.2365 -42.8859 -6.9116 
-8.54611 -43.4748 -6.9116 -0.855679 -42.7296 -6.9116 -0.855679 -46.2568 0.367994 
6.83475 -41.3479 -6.9116 14.5252 -40.1998 -6.9116 22.2156 -38.8868 -6.9116 
-27.8536 -38.5664 -6.9116 -31.6174 -36.3655 -6.9116 23.6333 -38.5664 -6.9116 
29.906 -37.1026 -6.9116 37.5965 -33.2532 -6.9116 -37.9137 -30.876 -6.9116 
-39.3078 -29.2856 -6.9116 -39.3078 -30.876 0.592382 41.1069 -30.876 -6.9116 
45.2869 -27.4632 -6.9116 -43.9567 -23.1855 -6.9116 -46.9983 -18.2064 -6.9116 
49.5032 -23.1855 -6.9116 45.2869 -23.1855 0.695446 52.9773 -18.9992 -6.9116 
-48.5184 -15.4951 -6.9116 55.4866 -15.4951 -6.9116 52.9773 -15.4951 -2.04818 
-51.8427 -7.80469 -6.9116 58.8912 -7.80469 -6.9116 -53.5978 -0.114261 -6.9116 
-54.6887 -0.114261 -0.135002 60.1692 -0.114261 -6.9116 -53.0283 7.57617 -6.9116 
59.8036 7.57617 -6.9116 -51.068 15.2666 -6.9116 57.4451 15.2666 -6.9116 
52.9773 21.8653 -6.9116 -47.2847 22.957 -6.9116 -46.9983 23.3546 -6.9116 
52.122 22.957 -6.9116 45.2869 29.7049 -6.9116 -40.4852 30.6475 -6.9116 
-39.3078 31.5905 -6.9116 -31.6174 36.1178 -6.9116 -0.855679 38.2227 -6.9116 
6.83475 37.9819 -6.9116 14.5252 38.2906 -6.9116 29.906 37.7259 -6.9116 
43.9472 30.6475 -6.9116 37.5965 34.5493 -6.9116 -24.661 38.3379 -6.9116 
-23.927 38.5533 -6.9116 -16.2365 39.0327 -6.9116 -2.45869 38.3379 -6.9116 
-8.54611 38.7761 -6.9116 -0.855679 38.3379 -5.9918 6.83475 38.3379 -0.94806 
16.4338 38.3379 -6.9116 23.7665 38.3379 -6.9116 22.2156 38.4827 -6.9116 
22.2156 38.3379 -6.06804 -0.855679 -46.4116 0.778826 -23.927 -41.3802 0.778826 
-16.2365 -43.9371 0.778826 -2.6412 -46.2568 0.778826 -8.54611 -45.7299 0.778826 
1.13647 -46.2568 0.778826 -0.855679 -46.2568 1.6938 6.83475 -45.7731 0.778826 
14.5252 -43.8795 0.778826 22.2156 -40.8644 0.778826 -39.3078 -30.9082 0.778826 
-29.3034 -38.5664 0.778826 -31.6174 -37.2254 0.778826 27.1015 -38.5664 0.778826 
22.2156 -38.5664 7.23967 29.906 -37.036 0.778826 37.5965 -31.271 0.778826 
-39.3391 -30.876 0.778826 -39.3078 -30.876 0.886793 38.1558 -30.876 0.778826 
37.5965 -30.876 1.22037 -45.6474 -23.1855 0.778826 -46.9983 -21.0519 0.778826 
45.2361 -23.1855 0.778826 37.5965 -23.1855 7.78385 45.2869 -23.1211 0.778826 
-50.1351 -15.4951 0.778826 51.162 -15.4951 0.778826 45.2869 -15.4951 5.78799 
52.9773 -11.913 0.778826 -53.3608 -7.80469 0.778826 -54.6887 -0.789455 0.778826 
55.2473 -7.80469 0.778826 52.9773 -7.80469 3.45106 -54.8238 -0.114261 0.778826 
-54.6887 4.99618 0.778826 -54.6887 -0.114261 1.71701 57.8148 -0.114261 0.778826 
52.9773 -0.114261 5.00151 -54.625 7.57617 0.778826 57.6959 7.57617 0.778826 
52.9773 7.57617 5.67665 -52.7613 15.2666 0.778826 54.9239 15.2666 0.778826 
52.9773 19.151 0.778826 52.9773 15.2666 3.16313 -49.26 22.957 0.778826 
-46.9983 26.0579 0.778826 50.6252 22.957 0.778826 45.2869 28.1216 0.778826 
45.2869 22.957 6.12531 -42.7882 30.6475 0.778826 -39.3078 33.3816 0.778826 
-31.6174 37.302 0.778826 14.5252 37.8166 0.778826 22.2156 37.1086 0.778826 
29.906 35.7105 0.778826 41.8779 30.6475 0.778826 37.5965 33.0261 0.778826 
37.5965 30.6475 4.46367 -27.4551 38.3379 0.778826 -23.927 39.1757 0.778826 
-23.927 38.3379 7.51958 -16.2365 40.0704 0.778826 -8.54611 39.7658 0.778826 
-0.855679 39.1542 0.778826 8.137 38.3379 0.778826 6.83475 38.4418 0.778826 
6.83475 38.3379 1.72435 -23.927 -38.8944 8.46926 -16.2365 -41.3068 8.46926 
-8.54611 -43.2037 8.46926 -0.855679 -44.8935 8.46926 6.83475 -44.6767 8.46926 
14.5252 -42.1539 8.46926 -24.5981 -38.5664 8.46926 -31.6174 -34.6893 8.46926 
-23.927 -38.5664 8.99685 -16.2365 -38.5664 11.9647 -8.54611 -38.5664 14.2119 
-0.855679 -38.5664 15.6448 6.83475 -38.5664 15.322 21.3062 -38.5664 8.46926 
14.5252 -38.5664 12.5943 22.2156 -37.9456 8.46926 29.906 -31.5863 8.46926 
-36.6103 -30.876 8.46926 -39.3078 -28.2834 8.46926 -31.6174 -30.876 13.4434 
22.2156 -30.876 13.9489 30.5396 -30.876 8.46926 29.906 -30.876 8.97048 
-43.5808 -23.1855 8.46926 -46.9983 -17.9446 8.46926 -39.3078 -23.1855 13.755 
22.2156 -23.1855 16.0291 36.3609 -23.1855 8.46926 29.906 -23.1855 11.6574 
37.5965 -20.5616 8.46926 -48.4198 -15.4951 8.46926 -46.9983 -15.4951 10.8449 
29.906 -15.4951 13.1648 39.9772 -15.4951 8.46926 37.5965 -15.4951 9.6501 
45.2869 -8.21881 8.46926 -51.9603 -7.80469 8.46926 -46.9983 -7.80469 15.8984 
29.906 -7.80469 14.3284 37.5965 -7.80469 11.6169 45.6235 -7.80469 8.46926 
45.2869 -7.80469 8.60714 -53.6961 -0.114261 8.46926 29.906 -0.114261 15.9464 
37.5965 -0.114261 13.3186 47.9182 -0.114261 8.46926 45.2869 -0.114261 10.0383 
-53.5179 7.57617 8.46926 37.5965 7.57617 14.5786 49.2062 7.57617 8.46926 
45.2869 7.57617 10.9898 -51.7319 15.2666 8.46926 37.5965 15.2666 14.2871 
48.2541 15.2666 8.46926 45.2869 19.7975 8.46926 45.2869 15.2666 10.7869 
-48.1157 22.957 8.46926 -46.9983 24.4622 8.46926 -46.9983 22.957 10.5339 
29.906 22.957 14.963 42.3079 22.957 8.46926 37.5965 26.8747 8.46926 
37.5965 22.957 11.515 -41.2681 30.6475 8.46926 -39.3078 32.196 8.46926 
-39.3078 30.6475 11.4261 -31.6174 36.3444 8.46926 -23.927 38.2165 8.46926 
6.83475 37.5321 8.46926 14.5252 35.4956 8.46926 14.5252 30.6475 14.7763 
22.2156 33.4349 8.46926 22.2156 30.6475 11.8941 31.22 30.6475 8.46926 
29.906 31.2248 8.46926 29.906 30.6475 9.13247 -23.1585 38.3379 8.46926 
-16.2365 39.3849 8.46926 -16.2365 38.3379 10.8106 -8.54611 39.2659 8.46926 
-8.54611 38.3379 10.7129 1.92825 38.3379 8.46926 -0.855679 38.7484 8.46926 
[...]
POINT_DATA 514
SCALARS ImageScalars float
LOOKUP_TABLE default
0 0 0 0 0 0 0 0 0 
0 0 0 0 0 0 0 0 0 
0 0 0 0 0 0 0 0 0 
0 0 0 0 0 0 0 0 0 
0 0 0 0 0 0 0 0 0 
0 0 0 0 0 0 0 0 0 
0 0 0 0 0 0 0 0 0 
0 0 0 0 0 0 0 0 0 
0 0 0 0 0 0 0 0 0 
0 0 0 0 0 0 0 0 0 
0 0 0 0 0 0 0 0 0 
0 0 0 0 0 0 0 0 0 
0 0 0 0 0 0 0 0 0 
0 0 0 0 0 0 0 0 0 
0 0 0 0 0 0 0 0 0 
0 0 0 0 0 0 0 0 0 
0 0 0 0 0 0 0 0 0 
0 0 0 0 0 0 0 0 0 
0 0 0 0 0 0 0 0 0 
0 0 0 0 0 0 0 0 0 
0 0 0 0 0 0 0 0 0 
0 0 0 0 0 0 0 0 0 
0 0 0 0 0 0 0 0 0 
0 0 0 0 0 0 0 0 0 
0 0 0 0 0 0 0 0 0 
0 0 0 0 0 0 0 0 0 
0 0 0 0 0 0 0 0 0 
0 0 0 0 0 0 0 0 0 
0 0 0 0 0 0 0 0 0 
0 0 0 0 0 0 0 0 0 
0 0 0 0 0 0 0 0 0 
0 0 0 0 0 0 0 0 0 
0 0 0 0 0 0 0 0 0 
0 0 0 0 0 0 0 0 0 
0 0 0 0 0 0 0 0 0 
0 0 0 0 0 0 0 0 0 
0 0 0 0 0 0 0 0 0 
0 0 0 0 0 0 0 0 0 
0 0 0 0 0 0 0 0 0 
0 0 0 0 0 0 0 0 0 
0 0 0 0 0 0 0 0 0 
0 0 0 0 0 0 0 0 0 
0 0 0 0 0 0 0 0 0 
0 0 0 0 0 0 0 0 0 
0 0 0 0 0 0 0 0 0 
0 0 0 0 0 0 0 0 0 
0 0 0 0 0 0 0 0 0 
0 0 0 0 0 0 0 0 0 
0 0 0 0 0 0 0 0 0 
0 0 0 0 0 0 0 0 0 
0 0 0 0 0 0 0 0 0 
0 0 0 0 0 0 0 0 0 
0 0 0 0 0 0 0 0 0 
0 0 0 0 0 0 0 0 0 
0 0 0 0 0 0 0 0 0 
0 0 0 0 0 0 0 0 0 
0 0 0 0 0 0 0 0 0 
0 
NORMALS Normals float
0.19991 0.360966 0.9109 0.0230368 0.334425 0.942141 -0.091429 0.308745 0.94674 
-0.124571 0.337714 0.932969 -0.0213498 0.523214 0.851934 0.278221 0.282652 0.917987 
0.110721 0.182869 0.976883 -0.0060944 0.138169 0.99039 -0.0866099 0.134752 0.987087 
-0.0562604 0.180173 0.982025 0.0227734 0.256061 0.966392 0.0652961 0.228308 0.971397 
0.0122839 0.247964 0.968691 -0.0592618 0.276166 0.959281 -0.218849 0.365141 0.904863 
0.423287 0.275254 0.86317 0.177739 0.141382 0.973869 0.0462017 0.084521 0.99535 
-0.0248763 0.0550368 0.998174 -0.0538029 0.10255 0.993272 -0.00901856 0.0331773 0.999409 
0.0113843 0.181114 0.983396 0.0426848 0.109227 0.9931 0.0439331 0.0611387 0.997162 
-0.0318323 0.116099 0.992727 -0.0953826 0.172398 0.980398 -0.342628 0.334349 0.877962 
0.293631 0.138572 0.945822 0.100523 0.0878145 0.991052 0.0289013 0.0446863 0.998583 
0.0161072 0.044546 0.998877 -0.110734 0.170319 0.979147 0.0209374 -0.0205022 0.999571 
0.11627 0.200516 0.972767 -0.0722857 0.144508 0.98686 0.0198387 0.000680703 0.999803 
0.0693489 0.0745036 0.994806 0.00367398 0.127099 0.991883 -0.236608 0.1244 0.963608 
-0.558679 0.238178 0.794449 0.565741 0.0903696 0.819616 0.256363 0.0419764 0.965669 
0.0783246 0.0479288 0.995775 0.00169746 0.0228488 0.999738 0.101065 -0.0104756 0.994825 
-0.0917164 0.0992613 0.990826 0.00185873 0.199343 0.979928 0.169926 0.00740901 0.985429 
-0.164021 0.0116682 0.986388 -0.0154212 0.0644755 0.9978 0.0910265 0.0547146 0.994344 
-0.0411189 0.0516685 0.997817 -0.221929 0.0406127 0.974217 -0.515328 0.0479876 0.855648 
0.57594 -0.115187 0.809336 0.266668 -0.0487083 0.962557 0.0786509 0.0153643 0.996784 
-0.0289098 0.0183221 0.999414 0.0829548 -0.0325066 0.996023 0.0915785 -0.0941703 0.991335 
-0.0615792 0.117747 0.991132 -0.064206 -0.132097 0.989155 -0.0113092 -0.0205183 0.999726 
0.0562879 0.0976472 0.993628 0.0537257 0.0344001 0.997963 -0.0026162 -0.0229945 0.999732 
-0.241045 -0.0231406 0.970238 -0.537663 -0.155874 0.828627 0.360606 -0.173556 0.916429 
0.147636 -0.0891424 0.985016 -0.0483358 -0.0635299 0.996809 -0.00379796 0.00676346 0.99997 
0.0547493 -0.1126 0.992131 -0.0266281 -0.0602925 0.997826 0.00737036 -0.00485578 0.999961 
0.0750772 0.0554273 0.995636 0.0355562 0.0791801 0.996226 -0.0255602 0.0270345 0.999308 
-0.101577 -0.0984838 0.989941 -0.337925 -0.233385 0.911777 0.46778 -0.393513 0.79141 
0.188437 -0.298994 0.935465 0.0639881 -0.219154 0.97359 0.0364774 -0.120605 0.99203 
0.0175419 -0.174972 0.984417 0.0474453 -0.171061 0.984117 0.0560053 -0.108594 0.992507 
0.0762691 -0.0794173 0.993919 0.0284222 -0.0629556 0.997612 -0.120364 -0.143007 0.982375 
-0.271808 -0.261091 0.926257 -0.490844 -0.427325 0.759253 0.144403 -0.469103 0.871258 
0.0417431 -0.460491 0.886682 0.0119054 -0.460155 0.887759 0.0389654 -0.496031 0.86743 
0.095433 -0.494423 0.863967 0.106265 -0.463515 0.879694 -0.0361169 -0.446773 0.893918 
-0.225984 -0.514793 0.826994 -0.4209 -0.653618 0.628988 0.227133 0.473743 0.850869 
0.341399 0.786078 0.515294 0.0244104 0.471848 0.881342 0.0696051 0.671807 0.737449 
-0.0886278 0.429742 0.898592 -0.0767994 0.632756 0.770533 -0.123999 0.366025 0.922307 
-0.12502 0.614011 0.779333 -0.114608 0.636527 0.762691 -0.109907 0.731609 0.672806 
-0.021935 0.524943 0.850855 -0.175181 0.86125 0.477032 0.30302 0.431976 0.849456 
0.360694 0.411651 0.836925 0.449134 0.542411 0.709978 -0.0844647 0.364917 0.927201 
-0.0351822 0.36866 0.928898 -0.0481045 0.392445 0.918517 -0.015365 0.517201 0.855726 
0.0345035 0.446919 0.893909 0.0277578 0.471896 0.881217 -0.0271287 0.525951 0.850082 
-0.116233 0.515014 0.849265 -0.137361 0.592619 0.793684 -0.28444 0.529327 0.799316 
-0.432679 0.764597 0.477682 0.438953 0.352391 0.826523 0.477675 0.329486 0.814411 
0.587854 0.430791 0.684724 -0.439552 0.489524 0.7531 -0.461863 0.479603 0.746099 
-0.514152 0.540973 0.66558 0.482266 0.303013 0.82195 0.764419 0.419355 0.489698 
-0.499349 0.401322 0.767848 -0.585045 0.347071 0.732983 -0.729095 0.510564 0.45579 
0.543856 0.22954 0.807176 0.589445 0.161356 0.79153 0.638988 0.256007 0.725366 
-0.640127 0.246646 0.727601 0.604126 0.0894627 0.791851 -0.688266 0.0499174 0.723739 
0.61043 -0.116182 0.783503 0.602496 -0.169387 0.77994 -0.680237 -0.1585 0.71565 
-0.575824 -0.354806 0.736573 0.56203 -0.253795 0.787217 0.683465 -0.295863 0.667338 
-0.559741 -0.369737 0.741609 -0.603094 -0.392902 0.694194 0.486205 -0.402514 0.77562 
0.77268 -0.502886 0.38739 0.475866 -0.415548 0.775159 0.300403 -0.569276 0.765299 
-0.585214 -0.462598 0.665978 -0.538825 -0.519249 0.663361 0.572771 -0.706189 0.416209 
0.277525 -0.574801 0.769795 0.315789 -0.607605 0.728761 0.15685 -0.585076 0.795666 
0.0421819 -0.621741 0.782086 0.00599798 -0.632201 0.774781 0.0253621 -0.667836 0.743876 
0.0834766 -0.713404 0.695763 0.083321 -0.776816 0.624191 -0.0302449 -0.820307 0.571123 
-0.247574 -0.758639 0.602639 -0.434912 -0.664929 0.607224 -0.424928 -0.673385 0.60497 
0.175095 -0.935289 0.307534 0.0183585 -0.929794 0.367622 -0.0462497 -0.94317 0.329077 
-0.0337439 -0.997172 0.0671532 0.368864 0.872984 0.319122 0.172397 0.910517 0.375817 
-0.00148953 0.862693 0.505725 -0.114172 0.781757 0.613042 -0.000840456 0.991742 0.128243 
-0.140469 0.755939 0.639395 -0.138964 0.79822 0.586117 -0.183676 0.873329 0.451176 
0.456274 0.831428 0.317082 0.534417 0.773296 0.341193 -0.21137 0.881546 0.422137 
-0.328045 0.899287 0.289256 -0.504703 0.850562 0.147713 0.678561 0.644458 0.352461 
0.706278 0.615488 0.349779 0.72287 0.690023 -0.0364193 -0.57452 0.807661 0.132709 
-0.662931 0.743656 0.0865933 0.768469 0.520405 0.372336 0.803429 0.462557 0.37489 
-0.74021 0.670787 0.0461875 -0.651225 0.512332 -0.55984 -0.814021 0.579921 0.0325842 
0.823322 0.427209 0.373676 -0.862712 0.505683 0.00359832 -0.81162 0.468544 -0.348911 
0.882081 0.281196 0.377972 -0.951974 0.302765 0.0456013 0.924231 0.0718758 0.375008 
0.995594 0.0829609 0.0437064 -0.991796 0.0544496 0.115657 0.914575 -0.144429 0.377747 
-0.978876 -0.176902 0.102503 0.872886 -0.30689 0.379326 -0.901611 -0.424509 0.0829997 
-0.802087 -0.579733 0.143408 0.782172 -0.503395 0.36715 0.775777 -0.512892 0.367575 
-0.781003 -0.607802 0.143565 -0.595678 -0.795617 0.110279 0.604635 -0.714195 0.352623 
0.576602 -0.738581 0.349326 0.363695 -0.869522 0.334153 -0.0500721 -0.963325 0.263624 
0.00479032 -0.980113 0.198383 0.0324581 -0.993705 0.107225 -0.236032 -0.971545 0.0197549 
-0.561627 -0.820141 0.109291 -0.435085 -0.896994 0.0781254 0.191345 -0.938297 0.288072 
0.174211 -0.94248 0.285276 0.0148207 -0.952899 0.302924 -0.0503066 -0.962546 0.26641 
-0.0508286 -0.957638 0.283454 -0.0548048 -0.97059 0.234417 -0.0660225 -0.997523 0.0242803 
0.0161683 -0.995909 0.0889075 -0.0753178 -0.996696 0.0303957 -0.0347623 -0.998792 0.0347338 
-0.043647 -0.999047 0.000433369 0.00435827 0.994545 0.104214 0.389798 0.915781 -0.0969638 
0.271802 0.959718 -0.0711637 0.0397421 0.996239 0.0769951 0.155854 0.987618 -0.0179058 
-0.0355511 0.992102 0.12029 0.0140307 0.998593 0.0511331 -0.153507 0.974322 0.164721 
-0.302859 0.945995 0.115631 -0.391503 0.919973 -0.0193839 0.721924 0.690484 -0.0453564 
0.490382 0.86678 -0.0906532 0.541035 0.836512 -0.0867629 -0.44162 0.888119 -0.127341 
-0.466954 0.765472 -0.442727 -0.49895 0.841267 -0.208132 -0.560366 0.705399 -0.434052 
0.722405 0.689989 -0.0452327 0.721727 0.690404 -0.0495179 -0.566408 0.69631 -0.440834 
-0.560939 0.688854 -0.45916 0.819537 0.572797 -0.0162034 0.84414 0.535993 -0.0117535 
-0.649158 0.509129 -0.565139 -0.5109 0.35475 -0.783029 -0.64896 0.508303 -0.566109 
0.895478 0.44507 -0.00568394 -0.708271 0.407316 -0.576581 -0.502763 0.381239 -0.775813 
-0.734844 0.373539 -0.566103 0.96078 0.277298 0.00260508 0.994847 0.101378 0.00157051 
-0.7399 0.341225 -0.579753 -0.683159 0.288278 -0.670962 0.996464 0.083999 0.00196976 
0.998148 -0.0581163 0.0179602 0.995762 0.0861551 -0.0321639 -0.78519 0.122385 -0.607041 
-0.647378 0.0943277 -0.756309 0.991636 -0.12647 0.0257704 -0.851588 -0.162941 -0.498246 
-0.676314 -0.0746647 -0.732819 0.952332 -0.303183 0.033821 -0.808847 -0.35007 -0.472459 
-0.796554 -0.432895 -0.422023 -0.772409 -0.303785 -0.557762 0.850465 -0.524696 0.0374669 
0.795706 -0.604734 0.0339011 -0.735059 -0.559939 -0.382304 -0.582983 -0.72487 -0.367006 
-0.555113 -0.534079 -0.637659 0.660815 -0.750047 0.0274412 0.571806 -0.819977 0.0259849 
0.328724 -0.944383 0.00898773 -0.0844266 -0.982424 -0.166479 -0.12683 -0.948178 -0.29133 
-0.23758 -0.904118 -0.355144 -0.492075 -0.797168 -0.349835 -0.39103 -0.849376 -0.354479 
-0.399736 -0.757519 -0.516117 0.235963 -0.971716 -0.00947426 0.169096 -0.985393 -0.0202013 
0.189383 -0.958671 -0.21233 0.0381903 -0.999096 0.018695 -0.0591839 -0.997841 0.0284671 
-0.0855531 -0.995826 0.0317877 -0.0856983 -0.99516 -0.0480851 -0.0860167 -0.995983 -0.0248774 
-0.0994038 -0.993503 -0.0554051 0.344125 0.833853 -0.431587 0.254051 0.843379 -0.473466 
0.198021 0.858342 -0.473324 0.0851199 0.912662 -0.399753 -0.155617 0.914603 -0.373208 
-0.351397 0.828172 -0.436636 0.355703 0.830377 -0.428893 0.493395 0.764614 -0.414641 
0.339335 0.826163 -0.449784 0.216434 0.757524 -0.615884 0.164852 0.67114 -0.722769 
0.0498185 0.553906 -0.831087 -0.149182 0.533593 -0.83248 -0.462706 0.723134 -0.512816 
-0.351375 0.642822 -0.680673 -0.473604 0.701382 -0.532694 -0.579556 0.458649 -0.673614 
0.605682 0.693396 -0.390321 0.6682 0.641548 -0.376731 0.44715 0.645006 -0.619696 
-0.427929 0.374496 -0.822575 -0.582554 0.437912 -0.684736 -0.579029 0.425413 -0.695521 
0.741931 0.557964 -0.371771 0.799491 0.490696 -0.346455 0.604017 0.519906 -0.604037 
-0.410684 0.178156 -0.894203 -0.495568 0.324929 -0.805502 -0.478136 0.227992 -0.848178 
-0.474708 0.30356 -0.826138 0.819736 0.458218 -0.343613 0.775934 0.448658 -0.443432 
-0.43306 0.156606 -0.887656 -0.430416 0.270397 -0.861178 -0.411541 0.226173 -0.882881 
-0.391048 0.249991 -0.885769 0.894412 0.293985 -0.337046 0.663262 0.275416 -0.695866 
-0.368363 0.162503 -0.915369 -0.346146 0.209816 -0.914418 -0.397033 0.241987 -0.885329 
-0.387576 0.242298 -0.889425 0.949698 0.0991146 -0.29707 -0.307019 0.179844 -0.934556 
-0.346762 0.179972 -0.920525 -0.506201 0.103653 -0.856164 -0.451476 0.13907 -0.881379 
0.947836 -0.116771 -0.296599 -0.362913 0.0578007 -0.930028 -0.556104 0.00083997 -0.831112 
-0.4781 0.0434567 -0.87723 0.909691 -0.299632 -0.287547 -0.387566 -0.156309 -0.908494 
-0.611528 -0.228462 -0.757522 -0.539081 -0.383102 -0.750083 -0.526605 -0.214915 -0.822495 
0.809739 -0.519135 -0.273537 0.784853 -0.555797 -0.274037 0.776162 -0.51501 -0.363781 
-0.289659 -0.399776 -0.869642 -0.493676 -0.49143 -0.717482 -0.419442 -0.586278 -0.69307 
-0.437314 -0.452164 -0.77737 0.624885 -0.734311 -0.265155 0.572546 -0.775534 -0.265967 
0.564547 -0.727497 -0.389917 0.329458 -0.905689 -0.266805 0.191161 -0.951233 -0.242101 
-0.194113 -0.937923 -0.287439 -0.235943 -0.871355 -0.430198 -0.281565 -0.606091 -0.743892 
-0.237312 -0.801633 -0.548696 -0.257189 -0.690923 -0.675633 -0.31357 -0.720481 -0.618531 
-0.29474 -0.738514 -0.606403 -0.299851 -0.719376 -0.626568 0.179527 -0.953491 -0.242126 
0.0654881 -0.963406 -0.259923 0.0614139 -0.926285 -0.371785 -0.0416193 -0.972341 -0.22983 
-0.0359741 -0.938597 -0.343134 -0.137819 -0.960363 -0.242298 -0.107771 -0.968965 -0.22247 
-0.111173 -0.955797 -0.272201 0.259665 0.587144 -0.766705 0.146229 0.586153 -0.796895 
0.112099 0.558029 -0.822215 0.0363855 0.509397 -0.859762 -0.140941 0.449224 -0.882232 
-0.268131 0.376532 -0.886752 0.310037 0.569689 -0.761138 0.395821 0.526612 -0.752333 
0.245964 0.538267 -0.806083 0.107109 0.47598 -0.872909 0.0325379 0.393487 -0.918754 
-0.0439414 0.299079 -0.953216 -0.131671 0.273521 -0.952811 -0.302081 0.330053 -0.894322 
-0.25254 0.320671 -0.912904 0.485447 0.467211 -0.738955 0.530357 0.424716 -0.733715 
0.336327 0.3915 -0.856512 0.153626 0.25826 -0.953782 0.0425219 0.204045 -0.978038 
-0.0450324 0.178813 -0.982852 -0.0912908 0.13436 -0.986718 -0.126905 0.125836 -0.983901 
-0.402836 0.177739 -0.897849 -0.234523 0.177803 -0.955712 -0.409765 0.170131 -0.896185 
0.573076 0.366093 -0.733185 0.458967 0.327261 -0.825984 0.198416 0.204398 -0.958568 
0.0655464 0.0771772 -0.99486 0.0254107 0.0209101 -0.999458 -0.0428914 0.0694934 -0.99666 
-0.106598 0.0862169 -0.990557 -0.0933125 0.0505266 -0.994354 -0.193837 0.120845 -0.973562 
-0.413823 0.118144 -0.902659 -0.399796 0.110796 -0.909883 0.646446 0.271924 -0.712856 
0.654311 0.257103 -0.711178 0.33298 0.199764 -0.921531 0.0699305 0.11675 -0.990696 
-0.0384508 0.0447092 -0.99826 0.0339346 -0.00518244 -0.999411 0.023891 0.14404 -0.989283 
-0.116099 0.161496 -0.98002 -0.0899571 0.0192108 -0.99576 -0.168522 0.0279163 -0.985303 
-0.386425 0.117912 -0.914753 -0.390748 0.0758412 -0.917368 0.686983 0.115538 -0.717429 
0.605184 0.105039 -0.789126 0.269746 0.0628219 -0.96088 0.0490799 0.0319605 -0.998283 
-0.0517415 0.0338594 -0.998086 0.116768 -0.0157921 -0.993034 -0.213447 0.0729144 -0.97423 
-0.140943 -0.0100181 -0.989967 -0.304859 0.173654 -0.936432 -0.275544 0.0906887 -0.957001 
-0.305756 0.163362 -0.93799 0.713217 -0.0873431 -0.695481 0.622887 -0.0660307 -0.77952 
0.272146 -0.0159091 -0.962124 0.0456255 0.00123187 -0.998958 -0.0881024 0.00859597 -0.996074 
0.0095244 -0.0262403 -0.99961 0.184482 -0.207807 -0.960616 -0.240614 0.0481773 -0.969425 
-0.161571 -0.0206955 -0.986644 -0.200284 0.0350226 -0.979112 -0.321642 0.0677999 -0.944431 
-0.294932 0.0738426 -0.952661 0.699878 -0.272192 -0.660366 0.694555 -0.287167 -0.659642 
0.689555 -0.26989 -0.672067 0.318995 -0.186469 -0.929232 0.0692895 -0.0652334 -0.995461 
-0.0788632 -0.0382339 -0.996152 -0.0768839 -0.0126607 -0.99696 0.0545317 -0.0769634 -0.995542 
0.0113009 -0.176777 -0.984186 -0.154192 -0.106933 -0.982237 -0.153041 -0.11926 -0.980997 
-0.17373 -0.144134 -0.974189 -0.327983 -0.134146 -0.935111 -0.290928 -0.254744 -0.922207 
-0.290172 -0.130537 -0.94803 0.572067 -0.445123 -0.688916 0.49214 -0.546935 -0.677244 
0.447681 -0.400986 -0.799245 0.186325 -0.303117 -0.93456 -0.0298068 -0.197563 -0.979837 
-0.0268365 -0.129076 -0.991271 0.00525237 -0.097513 -0.99522 -0.0744088 -0.181675 -0.980539 
-0.180157 -0.216443 -0.959529 -0.260738 -0.487118 -0.833506 -0.201078 -0.282476 -0.937963 
-0.240488 -0.375442 -0.895103 -0.221519 -0.420551 -0.87981 -0.20923 -0.364693 -0.907316 
0.350829 -0.636946 -0.686454 0.285367 -0.659125 -0.695788 0.269914 -0.606348 -0.747989 
0.151245 -0.696733 -0.701204 0.122005 -0.526263 -0.841524 0.0448627 -0.692682 -0.719846 
0.0323751 -0.451172 -0.891849 -0.0240766 -0.70435 -0.709444 -0.00913732 -0.451659 -0.892144 
-0.118726 -0.693706 -0.710405 -0.106142 -0.474293 -0.873945 -0.265857 -0.556283 -0.787318 
-0.242863 -0.618008 -0.747719 -0.24033 -0.514335 -0.823226 0.109091 0.0691711 -0.991622 
-0.25032 0.138732 -0.958172 0.143323 0.0168395 -0.989533 0.162157 -0.0664987 -0.984522 
0.146575 0.0297191 -0.988753 -0.255204 0.135973 -0.957278 -0.255153 0.137023 -0.957143 
-0.00770089 -0.13041 -0.99143 -0.0843589 -0.0849632 -0.992807 -0.0480731 -0.116854 -0.991985 
-0.0612014 -0.106181 -0.992462 
