# vtk DataFile Version 4.2
vtk output
ASCII
DATASET POLYDATA
POINTS 518 float
29.2947 9.30777 -25.3978 36.9812 9.30777 -25.2379 -24.5107 -29.1246 -18.9191 
-16.8242 -29.1246 -19.9671 -9.1377 -29.1246 -18.9438 -1.45122 -29.1246 -17.9217 
-32.1971 -21.4382 -20.5994 -24.5107 -21.4382 -23.0405 -16.8242 -21.4382 -23.7679 
-9.1377 -21.4382 -23.2621 -1.45122 -21.4382 -22.4749 6.23526 -21.4382 -21.236 
13.9217 -21.4382 -18.2806 21.6082 -21.4382 -17.5463 29.2947 -21.4382 -18.7458 
36.9812 -21.4382 -18.963 -39.8836 -13.7517 -19.1702 -32.1971 -13.7517 -22.4118 
-24.5107 -13.7517 -24.2231 -16.8242 -13.7517 -24.8173 -9.1377 -13.7517 -23.9182 
-1.45122 -13.7517 -23.3818 6.23526 -13.7517 -22.3593 13.9217 -13.7517 -18.6086 
21.6082 -13.7517 -19.2084 29.2947 -13.7517 -21.3482 36.9812 -13.7517 -22.8244 
44.6677 -13.7517 -21.6167 52.3541 -13.7517 -17.8037 -39.8836 -6.06519 -20.4743 
-32.1971 -6.06519 -22.6542 -24.5107 -6.06519 -24.0404 -16.8242 -6.06519 -24.4921 
-9.1377 -6.06519 -23.4434 -1.45122 -6.06519 -22.702 6.23526 -6.06519 -22.6242 
13.9217 -6.06519 -18.6331 21.6082 -6.06519 -20.6716 29.2947 -6.06519 -22.6385 
36.9812 -6.06519 -23.7422 44.6677 -6.06519 -23.4703 52.3541 -6.06519 -21.2398 
-39.8836 1.62129 -20.5315 -32.1971 1.62129 -22.3528 -24.5107 1.62129 -23.2509 
-16.8242 1.62129 -24.0036 -9.1377 1.62129 -24.0685 -1.45122 1.62129 -23.3462 
6.23526 1.62129 -23.7382 13.9217 1.62129 -21.8564 21.6082 1.62129 -23.0113 
29.2947 7.8629 -25.2171 29.2947 1.62129 -24.4045 36.9812 8.51707 -25.2171 
36.9812 1.62129 -25.0377 44.6677 1.62129 -24.3291 52.3541 1.62129 -20.83 
-39.8836 9.30777 -19.5825 -32.1971 9.30777 -21.8788 -24.5107 9.30777 -22.6994 
-16.8242 9.30777 -23.5494 -9.1377 9.30777 -24.5722 -1.45122 9.30777 -23.7128 
6.23526 9.30777 -21.7495 13.9217 9.30777 -22.3575 28.1423 9.30777 -25.2171 
21.6082 9.30777 -24.1192 29.2947 10.3887 -25.2171 37.1113 9.30777 -25.2171 
36.9812 9.40644 -25.2171 44.6677 9.30777 -23.8996 52.3541 9.30777 -19.8349 
-39.8836 16.9942 -18.2398 -32.1971 16.9942 -20.626 -24.5107 16.9942 -21.7336 
-16.8242 16.9942 -22.3828 -9.1377 16.9942 -22.646 -1.45122 16.9942 -21.2419 
6.23526 16.9942 -19.4219 13.9217 16.9942 -20.3851 21.6082 16.9942 -22.7164 
29.2947 16.9942 -23.9732 36.9812 16.9942 -23.6179 44.6677 16.9942 -21.4043 
-32.1971 24.6807 -18.2808 -24.5107 24.6807 -19.4062 -16.8242 24.6807 -19.7945 
-9.1377 24.6807 -18.935 -1.45122 24.6807 -17.5763 13.9217 24.6807 -17.7821 
21.6082 24.6807 -19.2012 29.2947 24.6807 -19.8775 36.9812 24.6807 -19.1981 
-24.5107 -30.5544 -17.5306 -16.8242 -31.5536 -17.5306 -9.1377 -30.58 -17.5306 
-1.45122 -29.5044 -17.5306 -28.0149 -29.1246 -17.5306 -32.1971 -26.6284 -17.5306 
-32.1971 -29.1246 -15.0415 0.627984 -29.1246 -17.5306 6.23526 -27.6276 -17.5306 
6.23526 -29.1246 -15.9467 13.9217 -23.0153 -17.5306 13.9217 -29.1246 -12.2058 
21.6082 -21.4667 -17.5306 29.2947 -22.9775 -17.5306 36.9812 -23.2572 -17.5306 
-37.8556 -21.4382 -17.5306 -39.8836 -18.2726 -17.5306 -39.8836 -21.4382 -15.9274 
43.6884 -21.4382 -17.5306 44.6677 -21.0957 -17.5306 44.6677 -21.4382 -17.2303 
52.3541 -14.2097 -17.5306 -42.3453 -13.7517 -17.5306 -47.5701 -13.7517 -12.8041 
52.6584 -13.7517 -17.5306 -44.7561 -6.06519 -17.5306 -47.5701 -6.06519 -15.4006 
56.1277 -6.06519 -17.5306 60.0406 -6.06519 -10.3246 -45.184 1.62129 -17.5306 
-47.5701 1.62129 -15.8458 56.0902 1.62129 -17.5306 -43.6249 9.30777 -17.5306 
-47.5701 9.30777 -14.8614 54.5689 9.30777 -17.5306 52.3541 15.2999 -17.5306 
-41.048 16.9942 -17.5306 -47.5701 16.9942 -11.5026 -39.8836 18.4522 -17.5306 
6.23526 23.9259 -17.5306 51.4048 16.9942 -17.5306 44.6677 23.014 -17.5306 
52.3541 16.9942 -16.2003 -33.6891 24.6807 -17.5306 -39.8836 24.6807 -13.23 
-32.1971 25.7764 -17.5306 -24.5107 27.7941 -17.5306 -16.8242 28.0629 -17.5306 
-9.1377 26.6604 -17.5306 -0.176692 24.6807 -17.5306 -1.45122 24.7514 -17.5306 
9.79292 24.6807 -17.5306 6.23526 24.6807 -17.2941 13.9217 25.0956 -17.5306 
21.6082 27.022 -17.5306 29.2947 27.418 -17.5306 41.5565 24.6807 -17.5306 
36.9812 26.4977 -17.5306 44.6677 24.6807 -15.3059 -32.1971 32.3672 -10.8172 
-24.5107 32.3672 -13.4354 -16.8242 32.3672 -13.4695 -9.1377 32.3672 -12.2209 
-1.45122 32.3672 -11.0314 6.23526 32.3672 -10.9765 13.9217 32.3672 -11.3864 
21.6082 32.3672 -11.6239 29.2947 32.3672 -10.6914 -32.1971 -32.3298 -9.8441 
-24.5107 -35.1342 -9.8441 -16.8242 -35.6943 -9.8441 -16.8242 -36.8111 -2.69942 
-9.1377 -34.9924 -9.8441 -1.45122 -33.8694 -9.8441 6.23526 -32.4615 -9.8441 
13.9217 -30.4111 -9.8441 -37.5405 -29.1246 -9.8441 -39.8836 -27.2445 -9.8441 
21.5274 -29.1246 -9.8441 21.6082 -29.1106 -9.8441 21.6082 -29.1246 -9.75708 
29.2947 -29.0578 -9.8441 29.2947 -29.1246 -9.17103 36.9812 -28.642 -9.8441 
36.9812 -29.1246 -2.77123 44.6677 -26.23 -9.8441 -45.3005 -21.4382 -9.8441 
-47.5701 -17.9347 -9.8441 52.1971 -21.4382 -9.8441 52.3541 -21.2918 -9.8441 
-49.7782 -13.7517 -9.8441 57.7935 -13.7517 -9.8441 60.0406 -6.69929 -9.8441 
-51.9737 -6.06519 -9.8441 60.2291 -6.06519 -9.8441 60.0406 -1.62391 -9.8441 
60.0406 -6.06519 -3.92645 -52.524 1.62129 -9.8441 59.9029 1.62129 -9.8441 
-51.762 9.30777 -9.8441 58.2277 9.30777 -9.8441 -48.8152 16.9942 -9.8441 
-47.5701 19.1649 -9.8441 54.8876 16.9942 -9.8441 52.3541 20.2959 -9.8441 
-43.4351 24.6807 -9.8441 -39.8836 28.0561 -9.8441 36.9812 31.6643 -9.8441 
47.9872 24.6807 -9.8441 44.6677 27.2742 -9.8441 -33.525 32.3672 -9.8441 
-32.1971 33.0476 -9.8441 -24.5107 34.8452 -9.8441 -16.8242 35.0383 -9.8441 
-9.1377 34.1099 -9.8441 -1.45122 33.2475 -9.8441 6.23526 33.2301 -9.8441 
13.9217 33.5039 -9.8441 21.6082 33.4484 -9.8441 32.624 32.3672 -9.8441 
29.2947 32.8429 -9.8441 -16.8242 -36.8917 -2.15762 -32.1971 -33.7109 -2.15762 
-17.9052 -36.8111 -2.15762 -24.5107 -36.2955 -2.15762 -15.5731 -36.8111 -2.15762 
-16.8242 -36.8111 -0.787189 -9.1377 -36.3964 -2.15762 -1.45122 -35.3771 -2.15762 
6.23526 -33.8627 -2.15762 13.9217 -31.7461 -2.15762 21.6082 -30.2442 -2.15762 
29.2947 -29.7762 -2.15762 36.9812 -29.1644 -2.15762 -39.8016 -29.1246 -2.15762 
-39.8836 -29.0632 -2.15762 29.2947 -29.1246 1.99277 37.0908 -29.1246 -2.15762 
36.9812 -29.1246 -2.00886 44.6677 -26.4871 -2.15762 -47.3682 -21.4382 -2.15762 
-47.5701 -21.1407 -2.15762 52.1274 -21.4382 -2.15762 52.3541 -21.207 -2.15762 
-51.8083 -13.7517 -2.15762 57.5538 -13.7517 -2.15762 -54.225 -6.06519 -2.15762 
59.9838 -6.06519 -2.15762 -55.2386 1.62129 -2.15762 -55.2566 1.62129 -1.71755 
59.6085 1.62129 -2.15762 -54.5459 9.30777 -2.15762 57.9052 9.30777 -2.15762 
-51.9102 16.9942 -2.15762 -47.5701 24.3152 -2.15762 54.5906 16.9942 -2.15762 
52.3541 19.9671 -2.15762 52.3541 16.9942 3.11983 -47.3018 24.6807 -2.15762 
-47.5701 24.6807 0.071745 -39.8836 31.2626 -2.15762 36.9812 31.3012 -2.15762 
47.7582 24.6807 -2.15762 44.6677 27.1522 -2.15762 44.6677 24.6807 2.80102 
-38.0309 32.3672 -2.15762 -32.1971 35.2031 -2.15762 -24.5107 36.8743 -2.15762 
-16.8242 37.0251 -2.15762 -9.1377 36.3576 -2.15762 -1.45122 35.5808 -2.15762 
6.23526 35.3246 -2.15762 13.9217 35.2031 -2.15762 21.6082 34.7082 -2.15762 
33.4785 32.3672 -2.15762 29.2947 33.5846 -2.15762 29.2947 32.3672 1.32285 
-32.1971 -32.925 5.52886 -24.5107 -35.653 5.52886 -16.8242 -36.4345 5.52886 
-9.1377 -35.9996 5.52886 -1.45122 -34.8851 5.52886 6.23526 -33.3378 5.52886 
13.9217 -31.3852 5.52886 21.6082 -29.6858 5.52886 -38.4811 -29.1246 5.52886 
-39.8836 -28.0633 5.52886 13.9217 -29.1246 12.9508 25.4211 -29.1246 5.52886 
21.6082 -29.1246 7.59211 29.2947 -28.542 5.52886 36.9812 -26.9448 5.52886 
44.6677 -23.6215 5.52886 -46.3472 -21.4382 5.52886 -47.5701 -19.6737 5.52886 
47.7371 -21.4382 5.52886 44.6677 -21.4382 8.64965 52.3541 -16.3545 5.52886 
-51.0373 -13.7517 5.52886 53.9987 -13.7517 5.52886 52.3541 -13.7517 7.69729 
-54.0423 -6.06519 5.52886 -55.2566 0.0524698 5.52886 56.6263 -6.06519 5.52886 
52.3541 -6.06519 10.8303 -55.5447 1.62129 5.52886 -55.2566 5.73135 5.52886 
-55.2566 1.62129 6.7992 56.1468 1.62129 5.52886 52.3541 1.62129 10.1672 
-55.0056 9.30777 5.52886 54.1785 9.30777 5.52886 52.3541 13.9857 5.52886 
52.3541 9.30777 7.84006 -52.7266 16.9942 5.52886 50.7043 16.9942 5.52886 
44.6677 22.6829 5.52886 44.6677 16.9942 10.0223 -48.1957 24.6807 5.52886 
-47.5701 25.352 5.52886 -47.5701 24.6807 7.47699 -39.8836 31.2982 5.52886 
29.2947 30.6386 5.52886 29.2947 24.6807 11.832 41.9798 24.6807 5.52886 
36.9812 27.7499 5.52886 36.9812 24.6807 8.60793 -37.6662 32.3672 5.52886 
-32.1971 34.7354 5.52886 -32.1971 32.3672 11.762 -24.5107 35.8533 5.52886 
-24.5107 32.3672 12.3175 -16.8242 36.0106 5.52886 -16.8242 32.3672 12.0162 
-9.1377 35.5408 5.52886 -9.1377 32.3672 11.2494 -1.45122 34.84 5.52886 
-1.45122 32.3672 10.2144 6.23526 34.3096 5.52886 6.23526 32.3672 9.31709 
13.9217 33.6862 5.52886 13.9217 32.3672 7.95566 22.3374 32.3672 5.52886 
21.6082 32.5316 5.52886 21.6082 32.3672 5.80538 -32.1971 -30.3611 13.2153 
-24.5107 -33.4266 13.2153 -16.8242 -34.5406 13.2153 -9.1377 -33.9788 13.2153 
-1.45122 -32.3955 13.2153 6.23526 -30.586 13.2153 -34.1763 -29.1246 13.2153 
-39.8836 -24.6263 13.2153 -32.1971 -29.1246 15.2479 -24.5107 -29.1246 20.8271 
-1.45122 -29.1246 19.1144 13.4891 -29.1246 13.2153 6.23526 -29.1246 15.7599 
13.9217 -29.0349 13.2153 21.6082 -27.3938 13.2153 29.2947 -25.5035 13.2153 
36.9812 -22.8603 13.2153 -42.9018 -21.4382 13.2153 -47.5701 -14.698 13.2153 
-39.8836 -21.4382 17.1753 21.6082 -21.4382 20.2195 29.2947 -21.4382 17.7909 
39.3671 -21.4382 13.2153 36.9812 -21.4382 14.8465 44.6677 -17.0236 13.2153 
-48.1245 -13.7517 13.2153 -47.5701 -13.7517 14.1205 36.9812 -13.7517 18.8183 
47.4056 -13.7517 13.2153 44.6677 -13.7517 15.3591 -51.5592 -6.06519 13.2153 
-47.5701 -6.06519 19.8601 36.9812 -6.06519 19.8569 49.6397 -6.06519 13.2153 
44.6677 -6.06519 16.658 -53.6503 1.62129 13.2153 21.6082 1.62129 20.7806 
29.2947 1.62129 19.7936 36.9812 1.62129 18.7821 48.6979 1.62129 13.2153 
44.6677 1.62129 15.839 -53.5075 9.30777 13.2153 21.6082 9.30777 19.0491 
29.2947 9.30777 18.1445 36.9812 9.30777 16.7765 46.0061 9.30777 13.2153 
[...]
POINT_DATA 518
SCALARS ImageScalars float
LOOKUP_TABLE default
0 0 0 0 0 0 0 0 0 
0 0 0 0 0 0 0 0 0 
0 0 0 0 0 0 0 0 0 
0 0 0 0 0 0 0 0 0 
0 0 0 0 0 0 0 0 0 
0 0 0 0 0 0 0 0 0 
0 0 0 0 0 0 0 0 0 
0 0 0 0 0 0 0 0 0 
0 0 0 0 0 0 0 0 0 
0 0 0 0 0 0 0 0 0 
0 0 0 0 0 0 0 0 0 
0 0 0 0 0 0 0 0 0 
0 0 0 0 0 0 0 0 0 
0 0 0 0 0 0 0 0 0 
0 0 0 0 0 0 0 0 0 
0 0 0 0 0 0 0 0 0 
0 0 0 0 0 0 0 0 0 
0 0 0 0 0 0 0 0 0 
0 0 0 0 0 0 0 0 0 
0 0 0 0 0 0 0 0 0 
0 0 0 0 0 0 0 0 0 
0 0 0 0 0 0 0 0 0 
0 0 0 0 0 0 0 0 0 
0 0 0 0 0 0 0 0 0 
0 0 0 0 0 0 0 0 0 
0 0 0 0 0 0 0 0 0 
0 0 0 0 0 0 0 0 0 
0 0 0 0 0 0 0 0 0 
0 0 0 0 0 0 0 0 0 
0 0 0 0 0 0 0 0 0 
0 0 0 0 0 0 0 0 0 
0 0 0 0 0 0 0 0 0 
0 0 0 0 0 0 0 0 0 
0 0 0 0 0 0 0 0 0 
0 0 0 0 0 0 0 0 0 
0 0 0 0 0 0 0 0 0 
0 0 0 0 0 0 0 0 0 
0 0 0 0 0 0 0 0 0 
0 0 0 0 0 0 0 0 0 
0 0 0 0 0 0 0 0 0 
0 0 0 0 0 0 0 0 0 
0 0 0 0 0 0 0 0 0 
0 0 0 0 0 0 0 0 0 
0 0 0 0 0 0 0 0 0 
0 0 0 0 0 0 0 0 0 
0 0 0 0 0 0 0 0 0 
0 0 0 0 0 0 0 0 0 
0 0 0 0 0 0 0 0 0 
0 0 0 0 0 0 0 0 0 
0 0 0 0 0 0 0 0 0 
0 0 0 0 0 0 0 0 0 
0 0 0 0 0 0 0 0 0 
0 0 0 0 0 0 0 0 0 
0 0 0 0 0 0 0 0 0 
0 0 0 0 0 0 0 0 0 
0 0 0 0 0 0 0 0 0 
0 0 0 0 0 0 0 0 0 
0 0 0 0 0 
NORMALS Normals float
0.0694595 -0.0214147 0.997355 -0.0903017 -0.091558 0.991697 0.214552 0.650703 0.728391 
0.000911509 0.642417 0.766355 -0.108237 0.665353 0.738641 -0.131012 0.70707 0.694901 
0.376415 0.3437 0.860338 0.189083 0.291672 0.937643 0.0136749 0.263598 0.964536 
-0.0811717 0.266019 0.960544 -0.123238 0.291365 0.948641 -0.260814 0.307439 0.915127 
-0.226532 0.241874 0.943493 0.0214543 0.367409 0.929812 0.0876605 0.500054 0.861546 
-0.0715758 0.565915 0.821351 0.472869 0.227428 0.851276 0.299879 0.121531 0.946204 
0.146883 0.0606145 0.987295 -0.0188454 0.0456472 0.99878 -0.093997 0.0101918 0.99552 
-0.0931108 0.0120618 0.995583 -0.323025 0.0841609 0.942641 -0.180265 0.0214318 0.983384 
0.168888 0.188083 0.967524 0.223785 0.225554 0.94818 0.0129269 0.283665 0.958836 
-0.246518 0.319056 0.915113 -0.591028 0.391475 0.70529 0.388511 0.0765971 0.918255 
0.213422 -0.00553179 0.976944 0.120146 -0.0628804 0.990763 -0.0374856 -0.0527428 0.997904 
-0.118818 0.00980779 0.992868 -0.0522794 -0.00314834 0.998628 -0.276574 0.0961356 0.956172 
-0.0847491 0.200934 0.975932 0.250779 0.234252 0.939274 0.191146 0.193508 0.962298 
0.0544642 0.138722 0.988833 -0.129235 0.181534 0.974856 -0.519507 0.150389 0.841127 
0.354147 -0.0519733 0.933744 0.160645 -0.0483278 0.985828 0.108845 -0.0875559 0.990195 
0.0525492 -0.060922 0.996758 -0.0425819 0.0736585 0.996374 -0.021575 0.0650151 0.997651 
-0.0894536 -0.0635904 0.993959 -0.0534007 0.236525 0.970157 0.168061 0.226596 0.95938 
0.0784525 0.0150022 0.996805 0.121388 0.1735 0.977324 -0.0812738 -0.0724497 0.994055 
-0.0019698 0.0946728 0.995506 -0.236568 0.0260151 0.971267 -0.565609 -0.0677067 0.82189 
0.376903 -0.140409 0.915549 0.187096 -0.113135 0.975805 0.103701 -0.0959906 0.989966 
0.123524 -0.103361 0.986944 0.0130348 -0.0842983 0.996355 -0.180162 -0.124808 0.975687 
-0.0836811 -0.280566 0.95618 0.150848 -0.0864267 0.984772 0.0879811 -0.0201412 0.995919 
0.195347 -0.0145081 0.980627 0.0655766 -0.0602286 0.996028 -0.0931401 -0.092773 0.991321 
-0.0909561 -0.0945304 0.991358 -0.277927 -0.166571 0.94605 -0.647605 -0.214318 0.731215 
0.43067 -0.293873 0.853324 0.219082 -0.218774 0.950863 0.11201 -0.201184 0.973128 
0.057658 -0.233018 0.970762 -0.0662923 -0.337266 0.939072 -0.203269 -0.36512 0.908498 
-0.0506387 -0.274265 0.96032 0.195824 -0.28634 0.937903 0.216318 -0.296274 0.930284 
0.048886 -0.312304 0.948723 -0.141813 -0.330207 0.933195 -0.381563 -0.41177 0.82756 
0.291375 -0.460037 0.838729 0.0924989 -0.418027 0.903713 -0.025449 -0.451523 0.891897 
-0.13051 -0.520939 0.843558 -0.0922218 -0.498877 0.861752 0.110462 -0.432964 0.894617 
0.124822 -0.507195 0.852744 0.00301697 -0.588913 0.808191 -0.180535 -0.653919 0.734708 
0.207701 0.70851 0.674444 0.000954757 0.757307 0.653059 -0.109943 0.725049 0.679865 
-0.132393 0.723554 0.677453 0.301127 0.660114 0.688166 0.404276 0.553187 0.728385 
0.41625 0.704954 0.574261 -0.152119 0.714303 0.683104 -0.222946 0.64581 0.730223 
-0.21094 0.760226 0.614459 -0.2284 0.341976 0.911529 -0.218523 0.859148 0.462724 
0.0209539 0.36893 0.929221 0.0662984 0.574211 0.816019 -0.0806084 0.637623 0.76612 
0.502026 0.405916 0.763676 0.523012 0.341238 0.781034 0.573481 0.453242 0.682416 
-0.272062 0.6252 0.731511 -0.299631 0.617723 0.727076 -0.305897 0.639661 0.705167 
-0.592933 0.405256 0.695844 0.551914 0.242648 0.797818 0.763232 0.327704 0.556855 
-0.605279 0.388946 0.69452 0.570293 0.107316 0.814401 0.699319 0.133187 0.702292 
-0.720827 0.159506 0.674512 -0.971184 0.126392 0.202056 0.56098 -0.0361424 0.82704 
0.671329 -0.0270911 0.740664 -0.742381 -0.0799411 0.665192 0.506881 -0.153961 0.848156 
0.672684 -0.190673 0.714941 -0.74698 -0.246229 0.617569 -0.689397 -0.422821 0.588179 
0.471052 -0.303344 0.828307 0.748138 -0.385298 0.540217 0.451397 -0.337775 0.825923 
0.00630471 -0.397717 0.917486 -0.655688 -0.470989 0.59012 -0.451833 -0.636401 0.625173 
-0.71312 -0.491232 0.50015 0.339218 -0.480563 0.808696 0.545568 -0.568585 0.615684 
0.299373 -0.505462 0.809249 0.0965267 -0.53911 0.836686 -0.0473506 -0.584361 0.810111 
-0.129296 -0.578984 0.805022 -0.0745773 -0.485224 0.871204 -0.0916618 -0.500722 0.860741 
0.0568879 -0.422834 0.90442 0.0126688 -0.417095 0.908775 0.107381 -0.448333 0.887393 
0.0921285 -0.593278 0.799708 -0.0290266 -0.677787 0.734685 -0.347351 -0.688677 0.636452 
-0.19698 -0.719632 0.66583 -0.492176 -0.726546 0.479472 0.331305 -0.807062 0.488762 
0.112395 -0.791549 0.600681 -0.05434 -0.792322 0.607679 -0.110011 -0.811118 0.574444 
-0.0557063 -0.832441 0.551306 0.0163207 -0.831959 0.554597 0.0289028 -0.842818 0.537422 
-0.0217174 -0.889275 0.456856 -0.102685 -0.930211 0.352368 0.416842 0.854177 0.310846 
0.19565 0.930658 0.309187 -0.0104368 0.956237 0.292406 0.00373567 0.99811 0.0613323 
-0.112951 0.94192 0.316274 -0.155614 0.933073 0.324283 -0.211857 0.924499 0.316888 
-0.210566 0.917766 0.336702 0.555731 0.765396 0.324548 0.626353 0.70149 0.339992 
-0.0849543 0.939177 0.332759 -0.0835611 0.939182 0.333098 -0.0841307 0.940485 0.329257 
-0.0273113 0.951149 0.307521 -0.0310859 0.96022 0.27751 -0.185939 0.937219 0.295037 
-0.215786 0.97405 -0.0682807 -0.377332 0.897066 0.229988 0.742857 0.560713 0.365739 
0.791009 0.47143 0.389948 -0.642818 0.738444 0.20368 -0.65048 0.731913 0.202926 
0.83205 0.357673 0.423985 -0.89767 0.389205 0.206658 -0.973775 0.143111 0.176868 
0.878339 0.155453 0.452057 -0.976416 0.124878 0.176116 -0.985276 -0.0166404 0.170159 
-0.986153 0.124903 -0.109093 0.873074 -0.0112726 0.487458 -0.978999 -0.120226 0.164644 
0.841361 -0.206896 0.499305 -0.938303 -0.305856 0.161368 0.784274 -0.393775 0.479432 
0.754849 -0.449084 0.478045 -0.841113 -0.519031 0.152103 -0.774035 -0.613483 0.15655 
0.635324 -0.59619 0.490837 0.560324 -0.68058 0.472067 -0.317735 -0.920451 0.22763 
-0.632918 -0.75353 0.177783 -0.540061 -0.821302 0.183843 0.37155 -0.812689 0.448874 
0.333759 -0.829831 0.447196 0.119906 -0.893359 0.433049 -0.0449025 -0.890837 0.452098 
-0.108993 -0.873676 0.474143 -0.0534822 -0.867008 0.495416 0.0159788 -0.868879 0.494766 
0.0134805 -0.889037 0.457636 -0.0407705 -0.928071 0.370165 -0.199249 -0.941017 0.273472 
-0.110225 -0.944658 0.308985 0.00482779 0.998982 0.0448474 0.412651 0.910322 0.0321335 
0.0311767 0.998603 0.0426574 0.197575 0.979851 0.029262 -0.0116499 0.998815 0.047253 
0.00746568 0.999905 0.0115746 -0.0973771 0.993422 0.0602518 -0.161486 0.985023 0.0604326 
-0.232102 0.971261 0.0527256 -0.231228 0.971168 0.0580207 -0.125553 0.991521 0.0335104 
-0.0680171 0.997203 -0.0309926 -0.216923 0.971225 -0.0983156 0.613063 0.789458 0.0301446 
0.615425 0.787613 0.0302936 -0.119318 0.982445 -0.143406 -0.219447 0.970645 -0.0984419 
-0.217989 0.970479 -0.103209 -0.412149 0.901747 -0.130324 0.801314 0.596526 0.0453033 
0.80773 0.587761 0.0459331 -0.673616 0.719542 -0.168821 -0.683916 0.70939 -0.170365 
0.913002 0.401863 0.0702364 -0.897916 0.390197 -0.203701 0.971758 0.204188 0.118294 
-0.973457 0.122874 -0.193087 0.984687 0.0201173 0.173168 0.987205 0.0222688 0.157894 
-0.970518 -0.124452 -0.206414 0.963749 -0.193714 0.183475 -0.928675 -0.305128 -0.210856 
0.88876 -0.402068 0.220106 0.766174 -0.607924 0.20834 -0.832222 -0.516452 -0.2017 
-0.775466 -0.599049 -0.199482 -0.749462 -0.503149 -0.430287 0.756256 -0.620568 0.207297 
0.763922 -0.633183 0.124505 0.548901 -0.823777 0.141775 -0.367212 -0.912794 -0.178781 
-0.649931 -0.731126 -0.207472 -0.564091 -0.800764 -0.201441 -0.559574 -0.712835 -0.422779 
0.491107 -0.862334 0.123265 0.321473 -0.942339 0.0930218 0.119069 -0.991301 0.056075 
-0.0336831 -0.997972 0.0540208 -0.0934348 -0.992362 0.080543 -0.0669715 -0.993655 0.0903611 
-0.024427 -0.997926 0.0595577 -0.0397551 -0.999175 0.00831056 -0.102298 -0.993457 -0.0507825 
-0.295607 -0.943644 -0.148836 -0.214579 -0.96963 -0.11736 -0.22415 -0.932168 -0.284289 
0.421656 0.887967 -0.183631 0.210781 0.961834 -0.174492 0.0197322 0.989286 -0.14465 
-0.0984175 0.984051 -0.148182 -0.168073 0.969589 -0.177898 -0.22022 0.956261 -0.192532 
-0.228278 0.960282 -0.160458 -0.173592 0.971316 -0.162512 0.58082 0.790917 -0.192609 
0.620268 0.759854 -0.19465 -0.184105 0.896092 -0.403886 -0.166892 0.965498 -0.199903 
-0.178649 0.957386 -0.226926 -0.165551 0.95574 -0.243215 -0.28022 0.888773 -0.362711 
-0.463136 0.769177 -0.440309 0.770772 0.602602 -0.206839 0.804097 0.557808 -0.205616 
-0.540736 0.69836 -0.468933 -0.490361 0.678455 -0.547033 -0.71849 0.479271 -0.504055 
0.878482 0.433107 -0.201711 -0.773343 0.374248 -0.511741 -0.736289 0.370416 -0.566277 
0.952109 0.263564 -0.154993 0.989798 0.0965478 -0.104781 -0.839243 0.116108 -0.531216 
-0.719491 0.100831 -0.687143 0.994098 0.0562525 -0.0927659 0.994947 -0.06754 -0.0742855 
0.988718 0.0657283 -0.134599 -0.834095 -0.125168 -0.537232 -0.713811 -0.122628 -0.689519 
0.98304 -0.173918 -0.0581859 -0.783933 -0.283274 -0.552454 -0.734028 -0.402863 -0.546722 
-0.727345 -0.275667 -0.628472 0.928234 -0.370027 -0.0382337 -0.675102 -0.486888 -0.554236 
-0.528672 -0.63531 -0.562927 -0.475428 -0.482263 -0.735792 0.758448 -0.64755 -0.0737237 
0.739375 -0.668635 -0.0790705 0.733536 -0.660934 -0.158402 0.480637 -0.863502 -0.152811 
-0.241078 -0.824003 -0.512739 -0.270593 -0.56255 -0.781227 -0.483626 -0.671909 -0.560932 
-0.38498 -0.735907 -0.556984 -0.368632 -0.624283 -0.688754 0.413341 -0.893477 -0.175635 
0.261464 -0.942883 -0.206417 0.208574 -0.861443 -0.463046 0.0841853 -0.953189 -0.29042 
0.00335024 -0.823866 -0.566775 -0.0198346 -0.951254 -0.307771 -0.0367344 -0.795003 -0.605492 
-0.0745263 -0.952507 -0.295255 -0.0642388 -0.799395 -0.597361 -0.077686 -0.955767 -0.283679 
-0.0678126 -0.844244 -0.531652 -0.0716836 -0.951484 -0.299231 -0.077438 -0.874559 -0.478696 
-0.10776 -0.930938 -0.348915 -0.121317 -0.884871 -0.449762 -0.181468 -0.886605 -0.425442 
-0.176132 -0.890943 -0.418567 -0.178671 -0.885595 -0.428717 0.436369 0.810521 -0.390689 
0.231549 0.900903 -0.367096 0.0309013 0.936856 -0.348348 -0.126902 0.926135 -0.355205 
-0.201163 0.897877 -0.3916 -0.198443 0.884125 -0.423018 0.483938 0.7806 -0.39556 
0.63343 0.657999 -0.40719 0.440502 0.774957 -0.45321 0.253443 0.739923 -0.623122 
-0.20871 0.799689 -0.562973 -0.183227 0.891995 -0.413247 -0.20321 0.84673 -0.491686 
-0.182558 0.891769 -0.414029 -0.198926 0.871107 -0.448999 -0.254467 0.811163 -0.526556 
-0.37823 0.711038 -0.592763 0.692435 0.591286 -0.413419 0.790288 0.455954 -0.40933 
0.625824 0.575052 -0.526934 -0.226098 0.509141 -0.830455 -0.263624 0.59513 -0.75916 
-0.430193 0.657449 -0.618624 -0.393259 0.644548 -0.655671 -0.53179 0.462298 -0.709563 
0.80075 0.437825 -0.40879 0.787509 0.437949 -0.433626 -0.353362 0.252845 -0.900669 
-0.60265 0.33908 -0.722383 -0.520237 0.330925 -0.7873 0.871698 0.299174 -0.388121 
0.743157 0.29084 -0.602602 -0.259756 -0.00522077 -0.96566 -0.631115 0.0687025 -0.772641 
-0.469256 0.0285721 -0.8826 0.923842 0.112936 -0.365733 -0.216368 -0.205682 -0.9544 
-0.121719 -0.193938 -0.973433 -0.235649 -0.194667 -0.952142 -0.5773 -0.127829 -0.806464 
-0.450688 -0.155289 -0.879071 0.92749 -0.136346 -0.348098 -0.215466 -0.212199 -0.953177 
-0.142562 -0.250759 -0.957495 -0.249192 -0.29314 -0.923024 -0.478611 -0.297853 -0.825963 
-0.442725 -0.337019 -0.830911 -0.436734 -0.299414 -0.848301 0.844268 -0.394534 -0.362704 
0.699985 -0.591682 -0.399918 0.660045 -0.42446 -0.619818 -0.182262 -0.428604 -0.884918 
0.00358287 -0.380492 -0.924777 0.0148753 -0.384886 -0.922844 -0.174655 -0.322916 -0.930173 
-0.227654 -0.283711 -0.931494 -0.249219 -0.483383 -0.839184 -0.207944 -0.362059 -0.908665 
-0.310981 -0.43935 -0.84277 -0.294119 -0.448967 -0.843755 -0.287501 -0.433223 -0.854202 
0.594198 -0.680711 -0.42844 0.402807 -0.792737 -0.45751 0.347355 -0.662994 -0.663162 
0.184063 -0.827444 -0.530525 0.0839967 -0.616215 -0.783086 -0.0078377 -0.793904 -0.607993 
-0.0808447 -0.571699 -0.81647 -0.0491371 -0.742157 -0.668422 -0.157014 -0.511868 -0.844593 
-0.0684618 -0.680358 -0.729675 -0.112326 -0.442786 -0.889563 -0.0490117 -0.670586 -0.740211 
-0.0129024 -0.437007 -0.899366 -0.0672063 -0.69811 -0.712829 -0.0284693 -0.505713 -0.862232 
-0.146021 -0.666834 -0.73076 -0.15215 -0.520429 -0.84024 -0.247318 -0.520526 -0.817243 
-0.233166 -0.555487 -0.798166 -0.233187 -0.498991 -0.834644 0.0362496 0.774363 -0.631703 
-0.123693 0.769146 -0.626988 0.432437 0.622107 -0.652672 0.245419 0.739593 -0.626715 
0.253259 0.736767 -0.626924 0.0351859 0.727156 -0.68557 -0.15487 0.764671 -0.625534 
-0.122788 0.745809 -0.654746 -0.207773 0.738202 -0.641785 -0.224982 0.685699 -0.692243 
-0.217904 0.583637 -0.782231 0.518397 0.54906 -0.65559 0.588617 0.470964 -0.657056 
0.408238 0.515145 -0.753636 0.189879 0.409617 -0.892278 0.022988 0.325347 -0.945315 
-0.069155 0.324896 -0.943218 -0.15324 0.403597 -0.902013 -0.230658 0.503063 -0.832901 
-0.224252 0.500313 -0.8363 -0.227548 0.511506 -0.828604 -0.228865 0.400514 -0.887248 
-0.227245 0.194004 -0.954318 0.628767 0.41196 -0.6595 0.555923 0.391601 -0.733211 
0.308688 0.260329 -0.914845 -0.0638105 0.0365212 -0.997294 -0.0652505 -0.00626434 -0.997849 
-0.173289 0.107642 -0.978971 -0.269951 0.13702 -0.953075 -0.23362 0.114518 -0.965561 
-0.236874 0.168163 -0.956876 -0.222264 0.159963 -0.961775 0.705974 0.281429 -0.649921 
0.72219 0.218423 -0.656303 0.441577 0.213365 -0.871485 0.19051 0.0830973 -0.978162 
-0.177177 -0.0423467 -0.983268 -0.0720598 -0.133891 -0.988373 -0.0957465 -0.0917259 -0.991171 
-0.264003 -0.0863126 -0.960652 -0.21688 -0.198371 -0.955831 -0.216532 -0.11229 -0.969796 
-0.169254 -0.0705546 -0.983044 -0.145663 -0.10383 -0.983871 -0.15138 -0.0849565 -0.984818 
0.732852 0.090225 -0.67438 0.683073 0.0854901 -0.725329 0.343727 -0.00858885 -0.93903 
-0.115628 -0.176035 -0.977569 -0.188096 -0.16158 -0.968768 -0.11213 -0.174332 -0.978282 
-0.121367 -0.175097 -0.977042 -0.222031 -0.204654 -0.95332 -0.311897 -0.175334 -0.933798 
0.697201 -0.153069 -0.700343 0.652227 -0.253177 -0.714493 0.654896 -0.159151 -0.738771 
0.2982 -0.209617 -0.931202 0.0617622 -0.232758 -0.970572 -0.0914928 -0.308966 -0.946662 
-0.145389 -0.373651 -0.916104 -0.182413 -0.440555 -0.878998 -0.159983 -0.434091 -0.88655 
-0.0220074 -0.401331 -0.915669 -0.0660734 -0.402402 -0.913076 -0.00722421 -0.37662 -0.92634 
-0.085709 -0.332964 -0.939036 -0.264417 -0.230863 -0.936368 -0.241416 -0.27041 -0.931985 
-0.283708 -0.24145 -0.928015 0.504604 -0.422127 -0.753116 0.311038 -0.533163 -0.786761 
0.301724 -0.418975 -0.856401 0.0732608 -0.579427 -0.811725 0.0239769 -0.419572 -0.907405 
-0.0997764 -0.52957 -0.842378 -0.141655 -0.413097 -0.899602 -0.201147 -0.427821 -0.881197 
-0.204814 -0.444738 -0.871929 -0.22135 -0.418785 -0.880695 0.0903046 0.196803 -0.976275 
-0.0621364 0.0986217 -0.993183 0.116862 0.18414 -0.975928 0.0780971 0.170607 -0.982239 
-0.0624311 0.0974763 -0.993278 -0.0624141 0.0978637 -0.993241 0.188443 0.0821751 -0.97864 
0.18003 0.0636288 -0.981601 0.0252613 0.0146367 -0.999574 -0.137092 -0.0162814 -0.990424 
-0.117351 -0.138945 -0.983322 -0.122257 -0.00677492 -0.992475 0.120237 -0.0621806 -0.990796 
0.106441 -0.074561 -0.99152 0.109622 -0.0646419 -0.991869 -0.0960693 -0.170086 -0.980735 
-0.0294414 -0.184769 -0.982341 -0.0112683 -0.145828 -0.989246 
