# vtk DataFile Version 4.2
vtk output
ASCII
DATASET POLYDATA
POINTS 532 float
-15.4902 -39.7348 -12.491 -7.90716 -39.7348 -13.325 -0.324093 -39.7348 -13.7126 
7.25897 -39.7348 -13.7296 14.842 -39.7348 -12.2195 -30.6564 -32.1517 -12.6642 
-23.0733 -32.1517 -13.9553 -15.4902 -32.1517 -15.1789 -7.90716 -32.1517 -15.6983 
-0.324093 -32.1517 -16.1587 7.25897 -32.1517 -15.87 14.842 -32.1517 -15.5373 
22.4251 -32.1517 -15.1685 30.0082 -32.1517 -14.2958 37.5912 -32.1517 -13.3177 
-38.2394 -24.5686 -13.3566 -30.6564 -24.5686 -14.7345 -23.0733 -24.5686 -15.2801 
-15.4902 -24.5686 -16.0849 -7.90716 -24.5686 -16.1301 -0.324093 -24.5686 -16.4562 
7.25897 -24.5686 -16.222 14.842 -24.5686 -16.2293 22.4251 -24.5686 -16.6115 
30.0082 -24.5686 -16.7169 37.5912 -24.5686 -15.7372 45.1743 -24.5686 -14.3001 
-45.8225 -16.9856 -12.1266 -38.2394 -16.9856 -14.2981 -30.6564 -16.9856 -15.1937 
-23.0733 -16.9856 -15.9121 -15.4902 -16.9856 -15.5862 -7.90716 -16.9856 -15.5343 
-0.324093 -16.9856 -15.642 7.25897 -16.9856 -15.561 14.842 -16.9856 -15.7408 
22.4251 -16.9856 -16.4581 30.0082 -16.9856 -17.1064 37.5912 -16.9856 -17.1621 
45.1743 -16.9856 -15.9079 52.7574 -16.9856 -12.5661 -45.8225 -9.40249 -13.0292 
-38.2394 -9.40249 -14.6571 -30.6564 -9.40249 -15.1606 -23.0733 -9.40249 -14.9656 
-15.4902 -9.40249 -14.8387 -7.90716 -9.40249 -16.8695 -0.324093 -9.40249 -16.8423 
7.25897 -9.40249 -16.0031 14.842 -9.40249 -14.9918 22.4251 -9.40249 -15.9154 
30.0082 -9.40249 -16.6408 37.5912 -9.40249 -16.6992 45.1743 -9.40249 -15.7733 
52.7574 -9.40249 -13.6406 -45.8225 -1.81942 -12.9109 -38.2394 -1.81942 -14.4412 
-30.6564 -1.81942 -15.1738 -23.0733 -1.81942 -15.4054 -15.4902 -1.81942 -17.086 
-7.90716 -1.81942 -18.7942 -0.324093 -1.81942 -13.1011 7.25897 -1.81942 -17.8826 
14.842 -1.81942 -15.0753 22.4251 -1.81942 -15.2821 30.0082 -1.81942 -16.6306 
37.5912 -1.81942 -16.8498 45.1743 -1.81942 -16.2211 52.7574 -1.81942 -14.3041 
-38.2394 5.76364 -14.0278 -30.6564 5.76364 -15.2743 -23.0733 5.76364 -16.191 
-15.4902 5.76364 -17.8608 -7.90716 5.76364 -18.2589 -0.324093 5.76364 -16.4061 
7.25897 5.76364 -17.3614 14.842 5.76364 -14.9323 22.4251 5.76364 -15.7555 
30.0082 5.76364 -16.9282 37.5912 5.76364 -17.0406 45.1743 5.76364 -16.4961 
52.7574 5.76364 -14.9372 -38.2394 13.3467 -13.2524 -30.6564 13.3467 -15.0971 
-23.0733 13.3467 -16.0278 -15.4902 13.3467 -16.3767 -7.90716 13.3467 -15.6163 
-0.324093 13.3467 -14.3206 7.25897 13.3467 -15.0352 14.842 13.3467 -15.4446 
22.4251 13.3467 -15.9966 30.0082 13.3467 -16.6895 37.5912 13.3467 -17.0789 
45.1743 13.3467 -15.1498 52.7574 13.3467 -11.906 -38.2394 20.9298 -12.086 
-30.6564 20.9298 -14.2638 -23.0733 20.9298 -15.5488 -15.4902 20.9298 -15.839 
-7.90716 20.9298 -15.0435 -0.324093 20.9298 -14.2262 7.25897 20.9298 -15.1106 
14.842 20.9298 -15.8686 22.4251 20.9298 -15.8542 30.0082 20.9298 -15.5739 
37.5912 20.9298 -15.3018 45.1743 20.9298 -12.9493 -30.6564 28.5128 -12.6221 
-23.0733 28.5128 -14.4285 -15.4902 28.5128 -14.7945 -7.90716 28.5128 -14.4384 
-0.324093 28.5128 -14.2618 7.25897 28.5128 -15.184 14.842 28.5128 -15.3729 
22.4251 28.5128 -14.7612 30.0082 28.5128 -13.404 -15.4902 36.0959 -12.4603 
-7.90716 36.0959 -12.7453 -0.324093 36.0959 -12.933 7.25897 36.0959 -13.6034 
14.842 36.0959 -13.5787 22.4251 36.0959 -12.0301 -15.4902 -40.7931 -11.8456 
-7.90716 -41.8194 -11.8456 -7.90716 -47.3178 -4.5202 -0.324093 -42.2055 -11.8456 
7.25897 -42.0238 -11.8456 14.842 -40.2157 -11.8456 -30.6564 -33.7275 -11.8456 
-30.6564 -39.7348 -5.18724 -17.9014 -39.7348 -11.8456 -23.0733 -36.6821 -11.8456 
-23.0733 -39.7348 -9.74636 16.8852 -39.7348 -11.8456 22.4251 -37.9231 -11.8456 
22.4251 -39.7348 -10.1947 30.0082 -36.5339 -11.8456 30.0082 -39.7348 -7.65298 
37.5912 -33.827 -11.8456 -32.8267 -32.1517 -11.8456 -38.2394 -27.9391 -11.8456 
-38.2394 -32.1517 -8.87801 43.3396 -32.1517 -11.8456 45.1743 -31.0923 -11.8456 
45.1743 -32.1517 -10.7915 -53.4056 -24.5686 -4.45571 -41.7996 -24.5686 -11.8456 
-45.8225 -17.9067 -11.8456 -45.8225 -24.5686 -9.61078 50.2017 -24.5686 -11.8456 
52.7574 -19.7614 -11.8456 52.7574 -24.5686 -9.25572 -46.5084 -16.9856 -11.8456 
-53.4056 -16.9856 -7.93864 53.6166 -16.9856 -11.8456 -48.9525 -9.40249 -11.8456 
-53.4056 -9.40249 -9.72812 55.3824 -9.40249 -11.8456 60.3404 -9.40249 -5.47637 
-48.8721 -1.81942 -11.8456 -53.4056 -1.81942 -9.69613 -45.8225 5.24463 -11.8456 
56.7091 -1.81942 -11.8456 60.3404 -1.81942 -7.43443 -53.4056 5.76364 -7.24632 
-45.5824 5.76364 -11.8456 -45.8225 5.76364 -11.7653 56.924 5.76364 -11.8456 
60.3404 5.76364 -7.08818 -53.4056 13.3467 -5.39389 -41.8311 13.3467 -11.8456 
-45.8225 13.3467 -10.1757 52.8425 13.3467 -11.8456 52.7574 13.5634 -11.8456 
-38.9717 20.9298 -11.8456 -45.8225 20.9298 -8.26531 -38.2394 21.588 -11.8456 
37.5912 26.9067 -11.8456 47.8333 20.9298 -11.8456 45.1743 22.5906 -11.8456 
52.7574 20.9298 -7.79301 -32.4501 28.5128 -11.8456 -38.2394 28.5128 -8.69894 
-30.6564 30.1238 -11.8456 -23.0733 35.1426 -11.8456 34.6872 28.5128 -11.8456 
30.0082 31.0476 -11.8456 37.5912 28.5128 -10.3916 45.1743 28.5128 -4.84646 
-30.6564 36.0959 -7.80822 -20.2186 36.0959 -11.8456 -23.0733 36.0959 -11.4142 
-15.4902 37.1066 -11.8456 -7.90716 37.9053 -11.8456 -0.324093 38.4963 -11.8456 
7.25897 39.7819 -11.8456 14.842 39.201 -11.8456 22.8236 36.0959 -11.8456 
22.4251 36.417 -11.8456 30.0082 36.0959 -6.94328 -15.4902 43.679 -6.51988 
-7.90716 43.679 -8.15918 -0.324093 43.679 -8.96223 7.25897 43.679 -9.48989 
14.842 43.679 -8.23457 -7.90716 -47.4415 -4.26256 -30.6564 -40.1973 -4.26256 
-23.0733 -43.4788 -4.26256 -8.54801 -47.3178 -4.26256 -15.4902 -45.888 -4.26256 
-4.14933 -47.3178 -4.26256 -7.90716 -47.3178 -3.36752 -0.324093 -47.1904 -4.26256 
7.25897 -46.1888 -4.26256 14.842 -44.8344 -4.26256 22.4251 -43.3882 -4.26256 
30.0082 -41.1084 -4.26256 -31.6952 -39.7348 -4.26256 -38.2394 -36.2291 -4.26256 
34.2554 -39.7348 -4.26256 37.5912 -38.6086 -4.26256 45.1743 -34.5739 -4.26256 
-53.4056 -24.7467 -4.26256 -44.871 -32.1517 -4.26256 -45.8225 -31.4427 -4.26256 
48.2014 -32.1517 -4.26256 45.1743 -32.1517 2.03641 52.7574 -27.5488 -4.26256 
-53.5596 -24.5686 -4.26256 54.9073 -24.5686 -4.26256 52.7574 -24.5686 1.3985 
-56.6684 -16.9856 -4.26256 58.8449 -16.9856 -4.26256 60.3404 -11.3891 -4.26256 
-58.3925 -9.40249 -4.26256 60.8585 -9.40249 -4.26256 60.3404 -9.40249 -2.46981 
-58.5894 -1.81942 -4.26256 -60.9886 -1.81942 2.93537 61.6151 -1.81942 -4.26256 
60.3404 -1.81942 0.0961526 -56.0441 5.76364 -4.26256 61.4944 5.76364 -4.26256 
60.3404 9.60557 -4.26256 60.3404 5.76364 -0.31897 -54.441 13.3467 -4.26256 
-53.4056 15.3504 -4.26256 59.0969 13.3467 -4.26256 -49.6405 20.9298 -4.26256 
-45.8225 27.1587 -4.26256 54.5969 20.9298 -4.26256 52.7574 22.9874 -4.26256 
52.7574 20.9298 3.09701 -44.8145 28.5128 -4.26256 -45.8225 28.5128 -2.0491 
-38.2394 34.6629 -4.26256 37.5912 33.1387 -4.26256 45.6615 28.5128 -4.26256 
45.1743 28.819 -4.26256 45.1743 28.5128 -1.57916 -36.3765 36.0959 -4.26256 
-38.2394 36.0959 -0.542207 -30.6564 39.4345 -4.26256 -23.0733 43.3988 -4.26256 
22.4251 42.8908 -4.26256 32.9988 36.0959 -4.26256 30.0082 38.0717 -4.26256 
-22.1462 43.679 -4.26256 -23.0733 43.679 -2.76032 -15.4902 45.4392 -4.26256 
-7.90716 47.0777 -4.26256 -0.324093 47.8765 -4.26256 7.25897 48.0157 -4.26256 
20.9476 43.679 -4.26256 14.842 46.5273 -4.26256 -30.6564 -39.8587 3.32051 
-23.0733 -43.0834 3.32051 -15.4902 -45.0912 3.32051 -7.90716 -46.2313 3.32051 
-0.324093 -45.8115 3.32051 7.25897 -45.0085 3.32051 14.842 -43.9633 3.32051 
22.4251 -42.4274 3.32051 30.0082 -39.9348 3.32051 -30.9543 -39.7348 3.32051 
-38.2394 -36.5056 3.32051 -30.6564 -39.7348 3.55413 -23.0733 -39.7348 8.48571 
-15.4902 -39.7348 10.6075 -7.90716 -39.7348 10.8249 -0.324093 -39.7348 10.217 
7.25897 -39.7348 10.0183 14.842 -39.7348 9.42645 22.4251 -39.7348 7.18044 
30.4816 -39.7348 3.32051 30.0082 -39.7348 3.64964 37.5912 -36.3738 3.32051 
-53.4056 -25.8422 3.32051 -44.9828 -32.1517 3.32051 -45.8225 -31.5837 3.32051 
-38.2394 -32.1517 10.2317 30.0082 -32.1517 10.2224 44.417 -32.1517 3.32051 
37.5912 -32.1517 8.00826 45.1743 -31.4144 3.32051 -54.6633 -24.5686 3.32051 
-53.4056 -24.5686 5.30897 51.6292 -24.5686 3.32051 45.1743 -24.5686 8.38324 
52.7574 -23.3183 3.32051 -59.1087 -16.9856 3.32051 45.1743 -16.9856 10.5125 
56.2509 -16.9856 3.32051 52.7574 -16.9856 7.08957 -60.9109 -9.40249 3.32051 
-60.9886 -5.81885 3.32051 57.9893 -9.40249 3.32051 52.7574 -9.40249 8.40512 
-61.0753 -1.81942 3.32051 -60.9886 -1.49569 3.32051 -60.9886 -1.81942 3.53653 
58.977 -1.81942 3.32051 52.7574 -1.81942 9.54152 -58.9728 5.76364 3.32051 
58.9077 5.76364 3.32051 52.7574 5.76364 9.93181 -56.3212 13.3467 3.32051 
-53.4056 19.3987 3.32051 -53.4056 13.3467 9.83413 56.9729 13.3467 3.32051 
52.7574 20.8437 3.32051 52.7574 13.3467 7.69998 -52.6197 20.9298 3.32051 
52.6863 20.9298 3.32051 45.1743 27.7929 3.32051 45.1743 20.9298 10.2008 
-47.4076 28.5128 3.32051 -45.8225 30.2995 3.32051 -45.8225 28.5128 6.88886 
44.2546 28.5128 3.32051 37.5912 32.7321 3.32051 37.5912 28.5128 8.42282 
-39.506 36.0959 3.32051 -38.2394 37.07 3.32051 -38.2394 36.0959 5.91551 
-30.6564 41.454 3.32051 22.4251 42.4008 3.32051 32.4658 36.0959 3.32051 
30.0082 37.6902 3.32051 30.0082 36.0959 5.89516 -25.4204 43.679 3.32051 
-23.0733 44.6055 3.32051 -23.0733 43.679 5.87491 -15.4902 46.9893 3.32051 
-15.4902 43.679 9.86991 -7.90716 48.7247 3.32051 -0.324093 49.3222 3.32051 
7.25897 48.6115 3.32051 7.25897 43.679 10.8129 20.3501 43.679 3.32051 
14.842 46.6076 3.32051 14.842 43.679 7.77789 -30.6564 -34.4213 10.9036 
-23.0733 -37.213 10.9036 -15.4902 -39.3697 10.9036 -7.90716 -39.6174 10.9036 
-0.324093 -38.6561 10.9036 7.25897 -38.5334 10.9036 14.842 -38.0695 10.9036 
22.4251 -35.8534 10.9036 -45.8225 -25.7105 10.9036 -36.7793 -32.1517 10.9036 
-38.2394 -31.5521 10.9036 -30.6564 -32.1517 12.6142 -23.0733 -32.1517 14.3107 
-15.4902 -32.1517 14.9939 -7.90716 -32.1517 14.5586 -0.324093 -32.1517 13.9792 
7.25897 -32.1517 14.2367 14.842 -32.1517 14.3815 28.5429 -32.1517 10.9036 
[...]
POINT_DATA 532
SCALARS ImageScalars float
LOOKUP_TABLE default
0 0 0 0 0 0 0 0 0 
0 0 0 0 0 0 0 0 0 
0 0 0 0 0 0 0 0 0 
0 0 0 0 0 0 0 0 0 
0 0 0 0 0 0 0 0 0 
0 0 0 0 0 0 0 0 0 
0 0 0 0 0 0 0 0 0 
0 0 0 0 0 0 0 0 0 
0 0 0 0 0 0 0 0 0 
0 0 0 0 0 0 0 0 0 
0 0 0 0 0 0 0 0 0 
0 0 0 0 0 0 0 0 0 
0 0 0 0 0 0 0 0 0 
0 0 0 0 0 0 0 0 0 
0 0 0 0 0 0 0 0 0 
0 0 0 0 0 0 0 0 0 
0 0 0 0 0 0 0 0 0 
0 0 0 0 0 0 0 0 0 
0 0 0 0 0 0 0 0 0 
0 0 0 0 0 0 0 0 0 
0 0 0 0 0 0 0 0 0 
0 0 0 0 0 0 0 0 0 
0 0 0 0 0 0 0 0 0 
0 0 0 0 0 0 0 0 0 
0 0 0 0 0 0 0 0 0 
0 0 0 0 0 0 0 0 0 
0 0 0 0 0 0 0 0 0 
0 0 0 0 0 0 0 0 0 
0 0 0 0 0 0 0 0 0 
0 0 0 0 0 0 0 0 0 
0 0 0 0 0 0 0 0 0 
0 0 0 0 0 0 0 0 0 
0 0 0 0 0 0 0 0 0 
0 0 0 0 0 0 0 0 0 
0 0 0 0 0 0 0 0 0 
0 0 0 0 0 0 0 0 0 
0 0 0 0 0 0 0 0 0 
0 0 0 0 0 0 0 0 0 
0 0 0 0 0 0 0 0 0 
0 0 0 0 0 0 0 0 0 
0 0 0 0 0 0 0 0 0 
0 0 0 0 0 0 0 0 0 
0 0 0 0 0 0 0 0 0 
0 0 0 0 0 0 0 0 0 
0 0 0 0 0 0 0 0 0 
0 0 0 0 0 0 0 0 0 
0 0 0 0 0 0 0 0 0 
0 0 0 0 0 0 0 0 0 
0 0 0 0 0 0 0 0 0 
0 0 0 0 0 0 0 0 0 
0 0 0 0 0 0 0 0 0 
0 0 0 0 0 0 0 0 0 
0 0 0 0 0 0 0 0 0 
0 0 0 0 0 0 0 0 0 
0 0 0 0 0 0 0 0 0 
0 0 0 0 0 0 0 0 0 
0 0 0 0 0 0 0 0 0 
0 0 0 0 0 0 0 0 0 
0 0 0 0 0 0 0 0 0 
0 
NORMALS Normals float
0.173295 0.488676 0.855082 0.0774362 0.469131 0.879727 0.0254442 0.484224 0.874574 
-0.0935933 0.51415 0.852578 -0.183121 0.596461 0.781473 0.254805 0.379342 0.88948 
0.171006 0.279939 0.944665 0.104973 0.220732 0.969669 0.0646176 0.166185 0.983975 
0.0115804 0.162122 0.986703 -0.041684 0.15946 0.986324 -0.0418942 0.239447 0.970005 
-0.0819187 0.36024 0.929256 -0.094519 0.400737 0.911305 -0.198441 0.527516 0.826044 
0.278592 0.261294 0.924182 0.134112 0.166555 0.976869 0.0843274 0.118346 0.989385 
0.0548078 0.0290071 0.998075 0.0244411 -0.0115428 0.999635 0.00604027 -0.0348998 0.999373 
-0.014946 -0.0192784 0.999702 0.0253505 0.0152394 0.999562 0.032931 0.0734165 0.996758 
-0.0514702 0.164534 0.985028 -0.145479 0.198729 0.969197 -0.323183 0.310809 0.89384 
0.316673 0.179687 0.93136 0.179705 0.0853259 0.980013 0.101252 0.0257021 0.994529 
0.0259243 -0.0213666 0.999436 -0.0251647 -0.0827549 0.996252 0.00368275 0.0356952 0.999356 
0.00199284 0.0211386 0.999775 0.00664865 -0.0179374 0.999817 0.0593005 -0.0801083 0.995021 
0.0895045 -0.0455127 0.994946 0.0462891 -0.00332682 0.998923 -0.0939231 0.0589382 0.993833 
-0.239529 0.070172 0.96835 -0.597728 0.173832 0.782626 0.304324 0.0492209 0.951296 
0.1232 0.00899065 0.992341 0.0193099 -0.00131656 0.999813 -0.0211687 -0.0332047 0.999224 
0.109086 0.0808383 0.99074 0.14574 0.212265 0.966283 -0.0541085 -0.0951795 0.993989 
-0.122744 0.140688 0.982416 0.00120741 -0.0465164 0.998917 0.107022 -0.0751356 0.991414 
0.0522595 -0.031649 0.998132 -0.054685 -0.0189609 0.998324 -0.170076 0.0186979 0.985253 
-0.459155 0.0996912 0.882745 0.283122 -0.075935 0.956073 0.13871 -0.0406206 0.9895 
0.0623561 0.00745398 0.998026 0.110835 0.0814383 0.990497 0.221957 0.214288 0.951218 
-0.186593 0.087139 0.978565 -0.0578202 -0.083115 0.994861 0.074277 0.0888895 0.993268 
-0.162858 -0.00473308 0.986638 0.0972631 -0.0129351 0.995175 0.0993609 0.0182585 0.994884 
-0.0269407 0.0224825 0.999384 -0.142676 0.0466559 0.988669 -0.436175 0.0740041 0.896814 
0.211858 -0.0761431 0.97433 0.139789 -0.00488279 0.990169 0.160873 0.0403622 0.98615 
0.142304 -0.0555686 0.988262 -0.0758534 -0.199157 0.977028 -0.068242 0.0390715 0.996903 
-0.115512 -0.191856 0.974602 -0.0985493 0.0269917 0.994766 0.129768 0.045756 0.990488 
0.0821545 0.00266036 0.996616 -0.0274848 0.0149663 0.99951 -0.116233 -0.068352 0.990867 
-0.46899 -0.13732 0.872463 0.292678 -0.122442 0.948339 0.17432 -0.0619912 0.982736 
0.0834552 -0.0418277 0.995633 -0.0241862 -0.126845 0.991628 -0.127145 -0.208625 0.969696 
-0.0365688 -0.128214 0.991072 0.0682747 -0.138579 0.987995 0.0630123 0.061411 0.996122 
0.0816385 0.00563441 0.996646 0.0696715 -0.091838 0.993334 -0.101191 -0.122674 0.987275 
-0.280592 -0.194696 0.939873 -0.511349 -0.279251 0.812737 0.301034 -0.254129 0.919128 
0.226099 -0.162956 0.960377 0.0992421 -0.100013 0.990024 -0.0303646 -0.102469 0.994273 
-0.108943 -0.0767278 0.991082 0.00404945 -0.00300503 0.999987 0.11166 0.00964994 0.9937 
0.0455924 -0.00401976 0.998952 -0.0206788 -0.0744989 0.997007 -0.0356978 -0.20889 0.977287 
-0.140688 -0.338091 0.930538 -0.355381 -0.434468 0.827612 0.310512 -0.325896 0.892958 
0.141069 -0.253738 0.956931 -0.00115185 -0.207114 0.978316 -0.0346038 -0.141692 0.989306 
0.0442983 -0.0800412 0.995807 0.0757461 -0.0957523 0.992519 -0.0247528 -0.141282 0.98966 
-0.132371 -0.245103 0.960418 -0.215107 -0.426137 0.878713 0.0780735 -0.424548 0.902033 
0.0289877 -0.335537 0.941581 0.0522857 -0.287574 0.95633 0.0403494 -0.301129 0.952729 
-0.0985559 -0.361357 0.927204 -0.318902 -0.445497 0.836561 0.184814 0.546783 0.816622 
0.0592666 0.587032 0.807392 0.0798891 0.978816 0.188511 0.00723283 0.628529 0.777753 
-0.0976861 0.65933 0.745481 -0.183109 0.621905 0.761383 0.278019 0.45095 0.848145 
0.405525 0.872921 0.271217 0.207773 0.534768 0.819057 0.233556 0.489294 0.840264 
0.305123 0.702997 0.642414 -0.173417 0.615144 0.769106 -0.133318 0.584024 0.800713 
-0.16769 0.728978 0.66368 -0.162337 0.637998 0.752732 -0.249031 0.908593 0.335324 
-0.225562 0.619713 0.751717 0.289163 0.429028 0.855757 0.320652 0.390322 0.863036 
0.423343 0.634881 0.646303 -0.401378 0.568146 0.718405 -0.441778 0.538345 0.717647 
-0.495009 0.622985 0.605686 0.733439 0.538673 0.414606 0.35361 0.294136 0.887944 
0.328934 0.194678 0.924069 0.478192 0.404543 0.779537 -0.530529 0.389669 0.752793 
-0.622736 0.250025 0.741409 -0.73141 0.48546 0.478924 0.336845 0.182677 0.923669 
0.675338 0.234047 0.699386 -0.648192 0.181067 0.739636 0.408755 0.0597626 0.910686 
0.583647 0.0755024 0.80849 -0.57367 0.130255 0.808664 -0.967766 0.188671 0.166827 
0.39142 -0.0888503 0.915913 0.582328 -0.111885 0.805218 0.356062 -0.164697 0.919834 
-0.6056 0.059258 0.79356 -0.939284 0.0486031 0.339682 0.673147 -0.212989 0.708173 
0.356997 -0.168137 0.918849 0.363264 -0.171217 0.915819 -0.639649 -0.14898 0.754091 
-0.939275 -0.16631 0.300173 0.75132 -0.314956 0.579932 0.361372 -0.131833 0.923055 
0.459189 -0.175298 0.870871 -0.514577 -0.279378 0.810653 -0.513195 -0.284309 0.809814 
0.322007 -0.260314 0.910246 0.587776 -0.356969 0.726011 0.313199 -0.26969 0.91059 
-0.297775 -0.576005 0.761281 -0.433626 -0.460786 0.774367 -0.375458 -0.50119 0.779641 
-0.684286 -0.608821 0.401359 0.345444 -0.349424 0.87096 0.479047 -0.45145 0.752799 
0.327317 -0.379352 0.865422 0.214503 -0.43514 0.874438 -0.286693 -0.558376 0.778475 
-0.282288 -0.510589 0.812165 -0.358177 -0.667767 0.652531 -0.519145 -0.827242 0.214846 
0.41515 -0.636613 0.649904 0.169584 -0.450051 0.876753 0.231075 -0.473401 0.849998 
0.0851537 -0.4643 0.881575 0.046919 -0.405433 0.91292 0.0566732 -0.382025 0.922412 
0.0173649 -0.446842 0.894444 -0.12152 -0.496473 0.859504 -0.325179 -0.456246 0.82831 
-0.323461 -0.458099 0.82796 -0.485469 -0.752663 0.444767 0.189514 -0.804148 0.56341 
0.125243 -0.713267 0.689611 0.0698739 -0.669365 0.739641 -0.028502 -0.689517 0.723708 
-0.238076 -0.783407 0.574102 0.0810409 0.981707 0.17229 0.410494 0.887656 0.208715 
0.354899 0.905748 0.231661 0.0950785 0.981074 0.16868 0.248713 0.956767 0.150792 
-0.000533407 0.987936 0.154861 0.0789062 0.990401 0.113487 -0.080924 0.987202 0.13742 
-0.15026 0.977301 0.149348 -0.183111 0.968288 0.169969 -0.240615 0.955011 0.173373 
-0.281932 0.952967 0.111216 0.420158 0.88199 0.213448 0.493884 0.81429 0.304976 
-0.324433 0.942906 0.0753046 -0.378307 0.92369 0.0606715 -0.567514 0.823315 -0.00900284 
0.736442 0.542457 0.404219 0.563944 0.774518 0.286514 0.573433 0.764152 0.295373 
-0.638789 0.769379 0.00208732 -0.582342 0.679289 -0.446593 -0.779152 0.62656 0.0185534 
0.740586 0.537568 0.403179 -0.838416 0.544565 0.022509 -0.726764 0.556696 -0.402373 
0.819213 0.262379 0.509949 -0.934284 0.350156 0.0671129 -0.972162 0.226104 0.061473 
0.828029 0.0966506 0.552292 -0.980708 0.183216 0.0681396 -0.978784 0.192924 -0.0690035 
0.823081 -0.125574 0.553867 0.989981 -0.127185 -0.061334 -0.997673 0.0417228 0.0539183 
-0.955435 0.0427752 -0.292086 0.794049 -0.222223 0.565777 -0.986044 -0.156565 0.0566172 
-0.961705 -0.265126 0.069515 -0.956865 -0.151625 -0.247828 0.790457 -0.319857 0.522369 
0.772991 -0.362779 0.520457 -0.917584 -0.382967 0.106662 0.717994 -0.462483 0.520186 
0.676523 -0.53722 0.503698 -0.762166 -0.639637 0.0998342 -0.70975 -0.695614 0.111251 
-0.693517 -0.580889 -0.426148 0.660749 -0.553677 0.506806 0.723891 -0.605727 0.330268 
0.554435 -0.675602 0.485967 -0.501798 -0.835478 0.224 -0.532595 -0.828699 0.17205 
-0.524695 -0.83305 0.175282 -0.557088 -0.830453 0.000366639 0.532366 -0.706004 0.467059 
0.589429 -0.781983 0.202673 0.455957 -0.762414 0.459161 0.321621 -0.867904 0.378554 
-0.500089 -0.839795 0.21132 -0.5175 -0.819772 0.245289 -0.527988 -0.809307 0.257394 
0.307666 -0.870734 0.383619 0.331018 -0.901172 0.279849 0.221237 -0.869056 0.442488 
0.154092 -0.868403 0.471309 0.0571172 -0.888626 0.455061 -0.086454 -0.92488 0.370301 
-0.465743 -0.855743 0.225359 -0.307639 -0.90241 0.301686 0.396012 0.879924 -0.262504 
0.315237 0.902474 -0.293541 0.190966 0.92538 -0.327419 0.047204 0.925511 -0.375768 
-0.0727186 0.913556 -0.40016 -0.111547 0.921798 -0.371275 -0.160421 0.929325 -0.332597 
-0.249878 0.901645 -0.352984 -0.361584 0.856238 -0.368937 0.397852 0.879318 -0.261751 
0.457131 0.858877 -0.231001 0.394121 0.877049 -0.274689 0.261409 0.768704 -0.583746 
0.0968592 0.654885 -0.749496 -0.0204894 0.581824 -0.813057 -0.0391135 0.592757 -0.804431 
-0.0356464 0.647416 -0.761303 -0.128332 0.716446 -0.685738 -0.234333 0.791379 -0.56463 
-0.365742 0.85215 -0.374263 -0.362839 0.846986 -0.388539 -0.410101 0.775449 -0.4801 
0.695036 0.694826 -0.184776 0.539852 0.824853 -0.16786 0.549094 0.81896 -0.166736 
0.305827 0.700574 -0.644722 -0.31388 0.448279 -0.836974 -0.552263 0.644069 -0.52932 
-0.37453 0.561888 -0.73757 -0.564862 0.624467 -0.539418 0.730664 0.659708 -0.175827 
0.673419 0.675496 -0.300352 -0.649205 0.525467 -0.549925 -0.463038 0.407923 -0.786889 
-0.675778 0.495282 -0.545912 0.932481 0.347374 -0.0990447 -0.396729 0.199718 -0.895946 
-0.792584 0.326953 -0.514697 -0.59241 0.312162 -0.742702 0.989442 0.119457 -0.0820583 
0.996262 0.00546086 -0.0862146 -0.805294 0.162305 -0.570227 -0.594039 0.132112 -0.793514 
0.98796 -0.125873 -0.0899553 0.98706 -0.133013 -0.0895594 0.986339 -0.126311 -0.105741 
-0.830744 0.043855 -0.554924 -0.573156 0.0729264 -0.816194 0.952182 -0.293378 -0.0853176 
-0.835978 -0.116924 -0.536162 -0.570669 -0.105533 -0.814371 0.913796 -0.397989 -0.0811307 
0.876062 -0.476082 -0.076562 0.730007 -0.295023 -0.616483 -0.835931 -0.316411 -0.448446 
-0.690154 -0.573143 -0.441809 -0.577577 -0.304978 -0.757228 0.864748 -0.496356 -0.0764257 
-0.68855 -0.576154 -0.440393 -0.574973 -0.742696 -0.343233 -0.492915 -0.359882 -0.792161 
0.767074 -0.639007 -0.0571648 0.735291 -0.675524 -0.0548932 0.723484 -0.608165 -0.326658 
-0.561086 -0.756564 -0.335846 -0.510701 -0.806692 -0.297376 -0.443746 -0.634602 -0.632747 
0.600457 -0.798072 -0.0503316 0.576662 -0.815254 -0.0531156 0.567856 -0.789437 -0.233085 
0.452381 -0.887107 -0.0916153 -0.508743 -0.814616 -0.278534 -0.519045 -0.812389 -0.265739 
-0.523585 -0.809162 -0.266674 -0.49582 -0.760873 -0.41861 0.373222 -0.923105 -0.0926379 
0.336708 -0.936604 -0.0969566 0.323541 -0.910739 -0.256663 0.259699 -0.958859 -0.11466 
0.181672 -0.795424 -0.578184 0.155926 -0.980648 -0.118388 -0.00593565 -0.990874 -0.134657 
-0.175428 -0.961604 -0.211052 -0.182322 -0.639016 -0.747274 -0.473889 -0.837474 -0.272151 
-0.35737 -0.895714 -0.264544 -0.345702 -0.768244 -0.538788 0.254552 0.627496 -0.735834 
0.205658 0.636497 -0.743354 0.0917633 0.633605 -0.768196 -0.0213938 0.575583 -0.817464 
-0.0354695 0.536545 -0.843126 -0.0213888 0.580575 -0.813926 -0.108928 0.614413 -0.781429 
-0.234672 0.55875 -0.795442 0.465851 0.536343 -0.703789 0.276141 0.661729 -0.697038 
0.288082 0.662918 -0.691049 0.219542 0.549023 -0.806458 0.1462 0.453729 -0.879065 
0.0103974 0.369647 -0.929114 -0.0644181 0.311848 -0.947946 -0.0210686 0.30083 -0.953445 
0.0254166 0.35991 -0.932641 -0.0560117 0.379054 -0.923678 -0.298652 0.428188 -0.852914 
-0.230563 0.392275 -0.890484 -0.299096 0.398397 -0.867076 -0.261946 0.336764 -0.904419 
0.475271 0.527378 -0.704266 0.598203 0.410488 -0.688224 0.451239 0.504103 -0.736385 
0.23365 0.375804 -0.89676 0.148217 0.3167 -0.936874 0.0410735 0.206363 -0.977613 
-0.0665381 0.163357 -0.984321 -0.105935 0.146695 -0.983493 0.0199206 0.13762 -0.990285 
0.0584519 0.16353 -0.984805 -0.0900529 0.129042 -0.987542 -0.201272 0.154157 -0.967329 
-0.242017 0.274398 -0.930663 -0.26819 0.330751 -0.904808 -0.257096 0.327232 -0.909297 
0.688737 0.28907 -0.664891 0.552998 0.272232 -0.787453 0.288689 0.224452 -0.930742 
0.170787 0.186121 -0.967569 0.0190473 0.0903377 -0.995729 -0.00933463 0.00509211 -0.999943 
-0.0617702 -0.0335931 -0.997525 -0.0979735 0.0358256 -0.994544 -0.00304528 0.177233 -0.984164 
0.0280058 0.0465063 -0.998525 -0.0625049 0.0340099 -0.997465 -0.0961011 0.116501 -0.98853 
-0.150635 0.184314 -0.971256 -0.380559 0.196518 -0.903635 -0.261799 0.197353 -0.944729 
-0.385246 0.182617 -0.904564 0.683002 0.0497503 -0.72872 0.512318 0.0394522 -0.857889 
0.264526 0.0622265 -0.962369 0.0931546 0.00229313 -0.995649 -0.0246496 -0.00804781 -0.999664 
-0.0856922 -0.0537632 -0.99487 -0.0384985 -0.0906558 -0.995138 0.108581 0.0184951 -0.993915 
0.031589 0.0287355 -0.999088 -0.0918297 -0.0214205 -0.995544 -0.0206946 0.0734327 -0.997085 
-0.0455085 0.100584 -0.993887 -0.149583 0.0967019 -0.984009 -0.237404 0.102185 -0.966021 
-0.431239 0.149258 -0.889806 -0.35713 0.144792 -0.922764 0.658215 -0.105342 -0.745423 
0.555911 -0.100251 -0.825174 0.244405 -0.0551657 -0.968103 0.0860243 -0.0443568 -0.995305 
-0.03712 -0.0416361 -0.998443 -0.0919566 -0.020848 -0.995545 0.0085792 0.0128831 -0.99988 
0.0163578 0.0639779 -0.997817 -0.044356 -0.0314092 -0.998522 0.0827209 0.0299731 -0.996122 
0.0583829 -0.0145479 -0.998188 -0.0764878 -0.0206988 -0.996856 -0.142633 0.000208536 -0.989776 
-0.222488 0.0225035 -0.974676 -0.477952 0.0660126 -0.875902 -0.344239 0.052398 -0.937419 
0.670633 -0.149068 -0.726657 0.667146 -0.186066 -0.721315 0.650254 -0.147199 -0.74532 
0.297452 -0.12607 -0.946377 0.111443 -0.0424916 -0.992862 -0.00240621 0.00183087 -0.999995 
-0.0316705 0.0386996 -0.998749 0.0413114 0.0548173 -0.997641 0.0728579 -0.122888 -0.989743 
-0.00638603 -0.0666498 -0.997756 -0.074884 0.0406001 -0.996365 -0.0706768 -0.0606986 -0.995651 
-0.0314041 -0.0675637 -0.997221 -0.103687 -0.0611565 -0.992728 -0.190726 -0.0594785 -0.97984 
-0.493261 -0.106561 -0.86333 -0.319402 -0.0858933 -0.943718 0.644678 -0.267281 -0.716206 
0.370156 -0.186546 -0.910047 0.24152 -0.103337 -0.964878 0.0458926 -0.0245357 -0.998645 
-0.0401329 0.0353283 -0.99857 -0.134836 0.029266 -0.990436 -0.103632 -0.0872884 -0.990778 
0.106766 -0.102835 -0.988952 0.0811965 -0.0553814 -0.995158 -0.050805 0.0150825 -0.998595 
-0.0764716 -0.0190779 -0.996889 -0.135527 -0.0707439 -0.988245 -0.244438 -0.126336 -0.9614 
-0.378593 -0.174312 -0.909001 -0.428408 -0.250928 -0.868045 -0.366285 -0.155171 -0.917473 
0.597325 -0.362036 -0.715635 0.588817 -0.40655 -0.698579 0.550041 -0.320713 -0.771102 
0.257276 -0.164811 -0.95218 0.127564 -0.1139 -0.985269 0.0209393 -0.0615272 -0.997886 
-0.0901853 -0.00747331 -0.995897 -0.069271 0.0669443 -0.995349 0.0424146 0.0651556 -0.996973 
0.0448426 -0.0331942 -0.998442 -0.0334867 -0.0441531 -0.998463 -0.116017 -0.108414 -0.987313 
-0.220676 -0.194364 -0.955785 -0.440298 -0.327934 -0.835821 -0.346612 -0.442833 -0.826897 
-0.274071 -0.273828 -0.921902 0.557742 -0.479341 -0.677611 0.470356 -0.58069 -0.664503 
0.438702 -0.419581 -0.794665 0.160542 -0.257892 -0.952742 0.0662293 -0.188264 -0.979883 
-0.00910534 -0.123377 -0.992318 -0.028028 -0.0528792 -0.998208 0.00616749 -0.0498203 -0.998739 
-0.0273129 -0.0787342 -0.996521 -0.127871 -0.195797 -0.972272 -0.218494 -0.303664 -0.927388 
-0.371631 -0.48194 -0.793488 -0.373077 -0.50153 -0.780565 -0.323972 -0.403054 -0.855914 
0.393366 -0.652897 -0.647294 0.36631 -0.661704 -0.65419 0.350093 -0.634598 -0.688999 
0.246965 -0.712623 -0.65664 0.158706 -0.453227 -0.877153 0.153374 -0.715489 -0.681581 
0.0659606 -0.352443 -0.933506 0.0155777 -0.284308 -0.958607 0.00413715 -0.265013 -0.964236 
-0.181358 -0.631441 -0.753918 -0.111578 -0.352312 -0.929208 -0.282162 -0.568774 -0.77258 
-0.2493 -0.413465 -0.875726 -0.331941 -0.549335 -0.766842 -0.330378 -0.549133 -0.767661 
-0.32776 -0.543934 -0.772469 0.124857 -0.698248 -0.704883 0.0952302 -0.66317 -0.742386 
0.0828305 -0.636836 -0.766537 -0.172241 -0.634351 -0.753613 -0.0371943 -0.653567 -0.755955 
-0.0358991 -0.607319 -0.793646 
