# vtk DataFile Version 4.2
vtk output
ASCII
DATASET POLYDATA
POINTS 514 float
-35.3586 -34.6137 -14.9694 -26.8415 -34.6137 -14.8602 -18.3243 -34.6137 -15.134 
-9.80709 -34.6137 -15.3666 -1.2899 -34.6137 -14.8658 -43.8758 -26.0965 -17.3368 
-35.3586 -26.0965 -18.6245 -26.8415 -26.0965 -18.773 -18.3243 -26.0965 -17.4895 
-9.80709 -26.0965 -16.2158 -1.2899 -26.0965 -15.7339 7.22728 -26.0965 -14.7452 
-52.393 -17.5793 -15.9124 -43.8758 -17.5793 -20.3328 -35.3586 -17.5793 -20.7969 
-26.8415 -17.5793 -20.1106 -18.3243 -17.5793 -18.6911 -9.80709 -17.5793 -16.8851 
-1.2899 -17.5793 -16.4013 7.22728 -17.5793 -16.761 15.7445 -17.5793 -16.5211 
24.2616 -17.5793 -16.6243 32.7788 -17.5793 -16.982 41.296 -17.5793 -16.0051 
-52.393 -9.06214 -18.2212 -43.8758 -9.06214 -20.2498 -35.3586 -9.06214 -20.7805 
-26.8415 -9.06214 -19.7316 -18.3243 -9.06214 -18.5171 -9.80709 -9.06214 -18.4484 
-1.2899 -9.06214 -18.6971 7.22728 -9.06214 -20.7127 15.7445 -9.06214 -17.8235 
24.2616 -9.06214 -17.8162 32.7788 -9.06214 -19.0043 41.296 -9.06214 -18.4947 
49.8132 -9.06214 -16.7411 -52.393 -0.544959 -17.5805 -43.8758 -0.544959 -20.3897 
-35.3586 -0.544959 -20.7556 -26.8415 -0.544959 -19.4884 -18.3243 -0.544959 -17.7424 
-9.80709 -0.544959 -19.5734 -1.2899 -0.544959 -16.5485 7.22728 -0.544959 -21.7957 
15.7445 -0.544959 -18.3344 24.2616 -0.544959 -17.963 32.7788 -0.544959 -18.9832 
41.296 -0.544959 -18.9373 49.8132 -0.544959 -17.0849 -52.393 7.97222 -16.5047 
-43.8758 7.97222 -19.9345 -35.3586 7.97222 -20.6955 -26.8415 7.97222 -19.9091 
-18.3243 7.97222 -18.4436 -9.80709 7.97222 -19.5316 -1.2899 7.97222 -20.0082 
7.22728 7.97222 -21.285 15.7445 7.97222 -19.1713 24.2616 7.97222 -18.8965 
32.7788 7.97222 -19.405 41.296 7.97222 -18.8957 49.8132 7.97222 -17.3161 
-43.8758 16.4894 -19.1351 -35.3586 16.4894 -20.9319 -26.8415 16.4894 -20.6954 
-18.3243 16.4894 -19.6476 -9.80709 16.4894 -19.0122 -1.2899 16.4894 -19.3547 
7.22728 16.4894 -19.1207 15.7445 16.4894 -19.6612 24.2616 16.4894 -20.2774 
32.7788 16.4894 -20.0412 41.296 16.4894 -18.9955 49.8132 16.4894 -14.7916 
-35.3586 25.0066 -19.3544 -26.8415 25.0066 -20.5476 -18.3243 25.0066 -20.8479 
-9.80709 25.0066 -20.5484 -1.2899 25.0066 -21.1439 7.22728 25.0066 -20.9513 
15.7445 25.0066 -20.505 24.2616 25.0066 -20.1027 32.7788 25.0066 -18.8901 
41.296 25.0066 -16.5958 -35.3586 33.5238 -17.243 -26.8415 33.5238 -19.5822 
-18.3243 33.5238 -21.6337 -9.80709 33.5238 -21.5454 -1.2899 33.5238 -22.2288 
7.22728 33.5238 -22.0642 15.7445 33.5238 -20.9323 24.2616 33.5238 -19.5047 
32.7788 33.5238 -16.4608 -26.8415 42.041 -17.547 -18.3243 42.041 -19.6535 
-9.80709 42.041 -20.7357 -1.2899 42.041 -21.582 7.22728 42.041 -21.2105 
15.7445 42.041 -19.5316 24.2616 42.041 -16.6256 -18.3243 50.5581 -15.5776 
-9.80709 50.5581 -17.5202 -1.2899 50.5581 -18.1869 7.22728 50.5581 -17.309 
-35.3586 -35.2824 -14.4488 -26.8415 -35.2646 -14.4488 -26.8415 -43.1309 -7.98257 
-18.3243 -35.9556 -14.4488 -18.3243 -43.1309 -10.31 -9.80709 -37.0094 -14.4488 
-9.80709 -43.1309 -11.5375 -1.2899 -35.7204 -14.4488 -1.2899 -43.1309 -10.9396 
7.22728 -43.1309 -8.02968 -36.5232 -34.6137 -14.4488 -43.8758 -30.1564 -14.4488 
-43.8758 -34.6137 -8.88704 0.680519 -34.6137 -14.4488 7.22728 -27.5295 -14.4488 
7.22728 -34.6137 -12.9364 15.7445 -34.6137 -10.6975 24.2616 -34.6137 -9.44525 
32.7788 -34.6137 -7.502 -48.5318 -26.0965 -14.4488 -52.393 -20.6286 -14.4488 
-52.393 -26.0965 -9.7391 10.2231 -26.0965 -14.4488 15.7445 -24.3463 -14.4488 
15.7445 -26.0965 -13.8988 24.2616 -24.6689 -14.4488 24.2616 -26.0965 -13.9756 
32.7788 -23.914 -14.4488 32.7788 -26.0965 -13.4333 41.296 -20.6847 -14.4488 
41.296 -26.0965 -11.3458 49.8132 -26.0965 -7.03932 -54.2943 -17.5793 -14.4488 
46.206 -17.5793 -14.4488 49.8132 -14.9243 -14.4488 49.8132 -17.5793 -13.0872 
58.3304 -17.5793 -6.585 -56.8794 -9.06214 -14.4488 53.6634 -9.06214 -14.4488 
58.3304 -9.06214 -10.1246 -56.252 -0.544959 -14.4488 54.5226 -0.544959 -14.4488 
58.3304 -0.544959 -11.2952 -54.5752 7.97222 -14.4488 -52.393 11.8946 -14.4488 
54.1936 7.97222 -14.4488 58.3304 7.97222 -9.16734 -49.3248 16.4894 -14.4488 
-43.8758 24.8883 -14.4488 50.2896 16.4894 -14.4488 49.8132 17.1253 -14.4488 
-43.7872 25.0066 -14.4488 -43.8758 25.0066 -14.1489 44.1489 25.0066 -14.4488 
41.296 28.3217 -14.4488 -38.4535 33.5238 -14.4488 -35.3586 38.2511 -14.4488 
35.5984 33.5238 -14.4488 32.7788 36.2508 -14.4488 -31.6381 42.041 -14.4488 
-35.3586 42.041 -8.40885 -26.8415 46.2796 -14.4488 15.7445 49.976 -14.4488 
27.2014 42.041 -14.4488 24.2616 44.5218 -14.4488 -20.6406 50.5581 -14.4488 
-26.8415 50.5581 -7.77997 -18.3243 51.6617 -14.4488 -9.80709 53.7476 -14.4488 
-1.2899 54.1131 -14.4488 14.5732 50.5581 -14.4488 7.22728 53.1563 -14.4488 
15.7445 50.5581 -13.0059 -26.8415 -44.8149 -5.93166 -18.3243 -47.7984 -5.93166 
-9.80709 -49.3508 -5.93166 -9.80709 -51.6481 0.445385 -1.2899 -48.4476 -5.93166 
7.22728 -45.3013 -5.93166 -43.8758 -36.7698 -5.93166 -31.3143 -43.1309 -5.93166 
-35.3586 -41.6887 -5.93166 -35.3586 -43.1309 1.94266 12.9269 -43.1309 -5.93166 
15.7445 -41.7585 -5.93166 15.7445 -43.1309 -4.46474 24.2616 -39.7439 -5.93166 
24.2616 -43.1309 -1.76971 32.7788 -36.6004 -5.93166 -46.6413 -34.6137 -5.93166 
-52.393 -29.1278 -5.93166 37.0799 -34.6137 -5.93166 41.296 -32.7518 -5.93166 
41.296 -34.6137 -3.69215 49.8132 -27.1915 -5.93166 -54.8137 -26.0965 -5.93166 
50.9922 -26.0965 -5.93166 58.3304 -18.1596 -5.93166 -58.837 -17.5793 -5.93166 
58.7269 -17.5793 -5.93166 -60.756 -9.06214 -5.93166 61.5052 -9.06214 -5.93166 
-60.8025 -0.544959 -5.93166 61.9194 -0.544959 -5.93166 -57.4916 7.97222 -5.93166 
-52.393 16.238 -5.93166 60.2635 7.97222 -5.93166 58.3304 11.7758 -5.93166 
-52.1797 16.4894 -5.93166 55.7678 16.4894 -5.93166 49.8132 24.2683 -5.93166 
-45.5685 25.0066 -5.93166 -43.8758 28.124 -5.93166 -43.8758 25.0066 -2.44114 
49.1775 25.0066 -5.93166 41.296 32.9283 -5.93166 -40.5389 33.5238 -5.93166 
40.6488 33.5238 -5.93166 32.7788 40.3125 -5.93166 -36.2135 42.041 -5.93166 
-35.3586 43.2293 -5.93166 -35.3586 42.041 -3.55823 30.6986 42.041 -5.93166 
24.2616 47.5316 -5.93166 -27.9044 50.5581 -5.93166 -26.8415 51.3258 -5.93166 
-26.8415 50.5581 -3.56397 -18.3243 55.3747 -5.93166 -9.80709 57.0181 -5.93166 
-1.2899 56.8021 -5.93166 7.22728 55.4843 -5.93166 19.484 50.5581 -5.93166 
15.7445 52.6993 -5.93166 15.7445 50.5581 -1.41064 -9.80709 -52.2358 2.58552 
-35.3586 -43.2478 2.58552 -26.8415 -47.6336 2.58552 -13.3272 -51.6481 2.58552 
-18.3243 -50.7913 2.58552 -3.07208 -51.6481 2.58552 -9.80709 -51.6481 5.39188 
-1.2899 -51.4943 2.58552 7.22728 -49.3839 2.58552 15.7445 -47.1558 2.58552 
24.2616 -45.4154 2.58552 -35.5541 -43.1309 2.58552 -43.8758 -37.3441 2.58552 
-35.3586 -43.1309 3.0232 30.7913 -43.1309 2.58552 32.7788 -42.3587 2.58552 
41.296 -38.4562 2.58552 -46.8373 -34.6137 2.58552 -52.393 -28.1573 2.58552 
-43.8758 -34.6137 8.31312 46.6903 -34.6137 2.58552 49.8132 -32.1022 2.58552 
-53.9279 -26.0965 2.58552 -52.393 -26.0965 5.43584 55.4386 -26.0965 2.58552 
58.3304 -21.9518 2.58552 -57.8968 -17.5793 2.58552 60.9379 -17.5793 2.58552 
58.3304 -17.5793 10.3849 -59.8143 -9.06214 2.58552 62.9164 -9.06214 2.58552 
-59.639 -0.544959 2.58552 62.4203 -0.544959 2.58552 -55.7824 7.97222 2.58552 
-52.393 12.4025 2.58552 -52.393 7.97222 9.42419 59.8717 7.97222 2.58552 
58.3304 10.6557 2.58552 58.3304 7.97222 5.65295 -48.7051 16.4894 2.58552 
-43.8758 21.9706 2.58552 -43.8758 16.4894 10.9601 54.5951 16.4894 2.58552 
49.8132 22.0644 2.58552 49.8132 16.4894 9.98031 -41.1993 25.0066 2.58552 
46.7366 25.0066 2.58552 41.296 29.7118 2.58552 41.296 25.0066 8.6547 
-36.8308 33.5238 2.58552 -35.3586 36.6935 2.58552 -35.3586 33.5238 4.8734 
24.2616 33.5238 10.6692 36.2074 33.5238 2.58552 32.7788 36.0451 2.58552 
32.7788 33.5238 5.61403 -32.5889 42.041 2.58552 -26.8415 48.0169 2.58552 
-26.8415 42.041 9.28987 15.7445 48.3737 2.58552 15.7445 42.041 8.84314 
24.8646 42.041 2.58552 24.2616 42.5195 2.58552 24.2616 42.041 3.10553 
-22.6305 50.5581 2.58552 -18.3243 52.5635 2.58552 -18.3243 50.5581 5.5519 
-9.80709 54.4583 2.58552 -9.80709 50.5581 7.81631 -1.2899 54.0792 2.58552 
-1.2899 50.5581 7.4338 11.4535 50.5581 2.58552 7.22728 52.3121 2.58552 
7.22728 50.5581 4.98957 -26.8415 -45.4299 11.1027 -18.3243 -49.2309 11.1027 
-9.80709 -50.211 11.1027 -1.2899 -49.7941 11.1027 7.22728 -48.1163 11.1027 
15.7445 -46.2221 11.1027 24.2616 -44.5814 11.1027 -31.0947 -43.1309 11.1027 
-35.3586 -39.9787 11.1027 -26.8415 -43.1309 13.6347 -18.3243 -43.1309 16.8916 
-9.80709 -43.1309 18.2188 -1.2899 -43.1309 18.4374 7.22728 -43.1309 17.3031 
15.7445 -43.1309 14.964 29.5863 -43.1309 11.1027 24.2616 -43.1309 12.9103 
32.7788 -42.1866 11.1027 41.296 -37.6457 11.1027 -41.8534 -34.6137 11.1027 
-43.8758 -32.3726 11.1027 -35.3586 -34.6137 15.1006 -26.8415 -34.6137 18.3545 
24.2616 -34.6137 18.7852 32.7788 -34.6137 18.1334 45.321 -34.6137 11.1027 
41.296 -34.6137 14.2373 49.8132 -30.1315 11.1027 -48.4235 -26.0965 11.1027 
-52.393 -19.8978 11.1027 -43.8758 -26.0965 14.5555 -35.3586 -26.0965 18.5743 
41.296 -26.0965 19.4374 53.0005 -26.0965 11.1027 49.8132 -26.0965 14.9511 
-53.474 -17.5793 11.1027 -52.393 -17.5793 12.288 -43.8758 -17.5793 17.9226 
58.0083 -17.5793 11.1027 49.8132 -17.5793 17.8028 58.3304 -16.4471 11.1027 
-55.2369 -9.06214 11.1027 -52.393 -9.06214 14.0168 49.8132 -9.06214 18.5985 
60.0345 -9.06214 11.1027 58.3304 -9.06214 13.1517 -54.8694 -0.544959 11.1027 
-52.393 5.57693 11.1027 -52.393 -0.544959 13.6131 -43.8758 -0.544959 18.7851 
-1.2899 -0.544959 17.7532 49.8132 -0.544959 17.5084 58.7554 -0.544959 11.1027 
58.3304 0.664123 11.1027 58.3304 -0.544959 11.5931 -51.0979 7.97222 11.1027 
-43.8758 16.3633 11.1027 -43.8758 7.97222 17.074 41.296 7.97222 18.4908 
54.6711 7.97222 11.1027 49.8132 15.1957 11.1027 49.8132 7.97222 14.941 
-43.7613 16.4894 11.1027 -35.3586 16.4894 16.8479 -26.8415 16.4894 19.4288 
-9.80709 16.4894 18.751 -1.2899 16.4894 18.6185 7.22728 16.4894 19.2813 
15.7445 16.4894 19.3293 24.2616 16.4894 19.1144 32.7788 16.4894 18.0597 
[...]
POINT_DATA 514
SCALARS ImageScalars float
LOOKUP_TABLE default
0 0 0 0 0 0 0 0 0 
0 0 0 0 0 0 0 0 0 
0 0 0 0 0 0 0 0 0 
0 0 0 0 0 0 0 0 0 
0 0 0 0 0 0 0 0 0 
0 0 0 0 0 0 0 0 0 
0 0 0 0 0 0 0 0 0 
0 0 0 0 0 0 0 0 0 
0 0 0 0 0 0 0 0 0 
0 0 0 0 0 0 0 0 0 
0 0 0 0 0 0 0 0 0 
0 0 0 0 0 0 0 0 0 
0 0 0 0 0 0 0 0 0 
0 0 0 0 0 0 0 0 0 
0 0 0 0 0 0 0 0 0 
0 0 0 0 0 0 0 0 0 
0 0 0 0 0 0 0 0 0 
0 0 0 0 0 0 0 0 0 
0 0 0 0 0 0 0 0 0 
0 0 0 0 0 0 0 0 0 
0 0 0 0 0 0 0 0 0 
0 0 0 0 0 0 0 0 0 
0 0 0 0 0 0 0 0 0 
0 0 0 0 0 0 0 0 0 
0 0 0 0 0 0 0 0 0 
0 0 0 0 0 0 0 0 0 
0 0 0 0 0 0 0 0 0 
0 0 0 0 0 0 0 0 0 
0 0 0 0 0 0 0 0 0 
0 0 0 0 0 0 0 0 0 
0 0 0 0 0 0 0 0 0 
0 0 0 0 0 0 0 0 0 
0 0 0 0 0 0 0 0 0 
0 0 0 0 0 0 0 0 0 
0 0 0 0 0 0 0 0 0 
0 0 0 0 0 0 0 0 0 
0 0 0 0 0 0 0 0 0 
0 0 0 0 0 0 0 0 0 
0 0 0 0 0 0 0 0 0 
0 0 0 0 0 0 0 0 0 
0 0 0 0 0 0 0 0 0 
0 0 0 0 0 0 0 0 0 
0 0 0 0 0 0 0 0 0 
0 0 0 0 0 0 0 0 0 
0 0 0 0 0 0 0 0 0 
0 0 0 0 0 0 0 0 0 
0 0 0 0 0 0 0 0 0 
0 0 0 0 0 0 0 0 0 
0 0 0 0 0 0 0 0 0 
0 0 0 0 0 0 0 0 0 
0 0 0 0 0 0 0 0 0 
0 0 0 0 0 0 0 0 0 
0 0 0 0 0 0 0 0 0 
0 0 0 0 0 0 0 0 0 
0 0 0 0 0 0 0 0 0 
0 0 0 0 0 0 0 0 0 
0 0 0 0 0 0 0 0 0 
0 
NORMALS Normals float
0.194698 0.564539 0.802115 0.00851935 0.496633 0.867919 0.0282028 0.366279 0.930077 
-0.0181547 0.242699 0.969932 -0.135783 0.240938 0.960995 0.314658 0.442869 0.839558 
0.0816732 0.32457 0.942329 -0.0665712 0.279722 0.95777 -0.145565 0.192865 0.970368 
-0.101269 0.0900911 0.990772 -0.0848945 0.0905031 0.992271 -0.105952 0.205459 0.972914 
0.558915 0.327737 0.76171 0.253392 0.16389 0.953379 -0.017103 0.123744 0.992167 
-0.121058 0.0527796 0.991241 -0.187587 0.0592503 0.980459 -0.13212 0.12999 0.982673 
-0.00956812 0.171485 0.98514 0.00642802 0.346376 0.938074 -0.00658939 0.223053 0.974784 
0.0264826 0.214039 0.976466 -0.0317165 0.304792 0.951891 -0.188241 0.368315 0.910445 
0.47028 0.0935465 0.877545 0.146015 0.00376151 0.989275 -0.0300816 -0.00239279 0.999545 
-0.135307 -0.0370878 0.990109 -0.0761285 -0.0562384 0.995511 0.0101065 0.147363 0.989031 
0.132712 0.0300537 0.990699 -0.0523404 0.261325 0.963831 -0.168537 0.104629 0.980127 
0.0737254 0.0797126 0.994088 0.0327217 0.112401 0.993124 -0.131617 0.156287 0.978903 
-0.373625 0.18732 0.908469 0.506741 -0.100863 0.856178 0.160131 -0.0176658 0.986938 
-0.0529415 -0.00498005 0.998585 -0.174901 0.0102818 0.984532 -0.0135426 -0.00487787 0.999896 
-0.0392565 0.0724389 0.9966 0.11562 0.0915406 0.989066 0.0982145 0.0443734 0.994175 
-0.213309 0.0875325 0.973056 0.0421909 0.0613454 0.997225 0.0569701 0.0234701 0.9981 
-0.104837 0.0243645 0.994191 -0.348236 0.0344495 0.936774 0.614027 -0.279314 0.738211 
0.2321 -0.0669221 0.970387 -0.00285441 0.00951138 0.999951 -0.134818 0.0728821 0.988186 
-0.0282994 0.111893 0.993317 0.0976339 -0.0341763 0.994635 0.0876016 0.12662 0.988076 
-0.0497085 -0.170128 0.984167 -0.123948 0.0717761 0.989689 0.014565 0.136049 0.990595 
-0.000425232 0.0609235 0.998142 -0.123312 0.00241979 0.992365 -0.378623 -0.125414 0.917015 
0.455461 -0.276708 0.846161 0.0744075 -0.0854589 0.993559 -0.074158 0.0363805 0.996583 
-0.0977992 0.139896 0.985324 -0.017443 0.063268 0.997844 0.00579761 0.0616173 0.998083 
0.0163672 0.00501965 0.999853 0.069518 0.0787252 0.99447 0.02075 0.0696241 0.997357 
-0.0662384 -0.0269621 0.99744 -0.292909 -0.125328 0.947891 -0.539473 -0.39632 0.742899 
0.316794 -0.212249 0.924441 0.0841451 -0.0596927 0.994664 0.00164096 0.113646 0.99352 
0.0155616 0.146536 0.989083 0.0238654 0.170559 0.985058 -0.0370252 0.173406 0.984154 
-0.0511312 0.073659 0.995972 -0.0898898 -0.0418461 0.995072 -0.200935 -0.180061 0.962914 
-0.464714 -0.419522 0.779771 0.540061 -0.406827 0.736767 0.237484 -0.160175 0.958095 
0.10581 -0.0696323 0.991945 0.035113 0.0135685 0.999291 0.0304778 0.0251264 0.99922 
-0.0756121 0.0191121 0.996954 -0.142182 -0.0539149 0.988371 -0.239661 -0.183045 0.953445 
-0.482176 -0.451685 0.750658 0.429548 -0.405955 0.806653 0.15514 -0.301823 0.940656 
0.113945 -0.217564 0.969372 0.028122 -0.216082 0.97597 -0.122719 -0.245471 0.961605 
-0.240065 -0.340943 0.908915 -0.485717 -0.530356 0.69484 0.291107 -0.672381 0.680559 
0.140964 -0.596677 0.790003 -0.00735898 -0.597488 0.801844 -0.207087 -0.660885 0.721351 
0.204564 0.585712 0.78428 0.0180823 0.513812 0.857712 0.257513 0.774264 0.578102 
0.0471751 0.391875 0.918808 0.158482 0.614381 0.772929 -0.00123434 0.311776 0.950155 
0.029071 0.538176 0.842331 -0.140814 0.273191 0.951598 -0.16799 0.554046 0.81536 
-0.2837 0.648521 0.706353 0.230489 0.587457 0.775738 0.391889 0.576241 0.717196 
0.51729 0.747692 0.416374 -0.157649 0.258243 0.95313 -0.125969 0.22324 0.96659 
-0.221688 0.327134 0.918606 -0.189587 0.429653 0.882867 -0.156142 0.525611 0.836273 
-0.239044 0.616814 0.749932 0.516695 0.487257 0.703994 0.599027 0.402483 0.692224 
0.737492 0.547621 0.395242 -0.083612 0.243532 0.966282 -0.0322573 0.294912 0.95498 
-0.0433237 0.313394 0.948634 -0.0112712 0.352278 0.935828 -0.0218342 0.3825 0.923697 
-0.100756 0.431362 0.896535 -0.12778 0.477618 0.869226 -0.219444 0.423279 0.879022 
-0.280854 0.544018 0.790674 -0.515685 0.615626 0.595881 0.63738 0.336319 0.693279 
-0.28015 0.423151 0.861661 -0.365863 0.375206 0.851684 -0.376765 0.461942 0.802906 
-0.770621 0.458562 0.442566 0.743837 0.0841711 0.66304 -0.531745 0.173281 0.828988 
-0.774868 0.16364 0.610575 0.715634 -0.122668 0.68762 -0.544513 0.0183395 0.838552 
-0.781669 -0.0222531 0.623296 0.730473 -0.310277 0.608389 0.707108 -0.40219 0.581586 
-0.60918 -0.171885 0.774181 -0.864022 -0.296727 0.406719 0.701248 -0.476187 0.530564 
0.726096 -0.491021 0.481335 -0.554694 -0.405354 0.726638 -0.554197 -0.416267 0.720824 
0.725813 -0.490475 0.482317 0.735576 -0.496678 0.460694 -0.580174 -0.47515 0.661537 
-0.553771 -0.517456 0.652363 0.69676 -0.486272 0.527319 0.641482 -0.520921 0.563154 
-0.551145 -0.549331 0.628072 -0.562229 -0.556841 0.611414 0.582234 -0.52812 0.618136 
0.814885 -0.557128 0.15991 0.500341 -0.606948 0.617473 -0.396817 -0.74263 0.539479 
-0.573791 -0.607247 0.549559 -0.535939 -0.640756 0.549728 0.364497 -0.70348 0.610129 
0.567071 -0.812473 0.135345 0.303635 -0.721493 0.622297 0.13531 -0.774499 0.617934 
-0.0343769 -0.831336 0.554706 -0.379403 -0.759089 0.528997 -0.216122 -0.82268 0.525822 
-0.416545 -0.800808 0.430345 0.298808 0.816806 0.493499 0.222418 0.813615 0.537179 
0.0283697 0.836127 0.547802 0.0363879 0.988952 0.1437 -0.1892 0.811093 0.553473 
-0.296108 0.728067 0.618254 0.550647 0.783964 0.286685 0.330977 0.840833 0.428315 
0.36713 0.857377 0.36072 0.489146 0.872163 -0.00828057 -0.250176 0.704519 0.664127 
-0.224497 0.680784 0.697233 -0.233609 0.768659 0.595475 -0.189078 0.671471 0.716503 
-0.244391 0.859369 0.449174 -0.278502 0.661398 0.696412 0.609384 0.751359 0.2532 
0.756761 0.624969 0.191645 -0.3211 0.671481 0.667839 -0.364546 0.690948 0.624257 
-0.419453 0.751271 0.50956 -0.527117 0.63603 0.563572 0.813174 0.552536 0.182899 
-0.555416 0.621513 0.55248 -0.776841 0.471952 0.416867 0.943015 0.304764 0.13357 
-0.787093 0.458894 0.412191 0.986069 0.105524 0.128581 -0.893723 0.178577 0.411545 
0.97377 -0.191176 0.123388 -0.946903 -0.0667323 0.314518 0.900904 -0.431415 0.0474702 
0.77624 -0.62915 -0.0402682 -0.909769 -0.337951 0.241058 -0.880103 -0.429895 0.201518 
0.773716 -0.632092 -0.0426939 -0.829775 -0.535102 0.158556 -0.763287 -0.634575 0.121278 
0.825132 -0.553422 -0.113495 0.842864 -0.525837 -0.114346 0.793503 -0.551432 -0.257442 
-0.756938 -0.643823 0.11197 -0.67668 -0.735872 0.024415 0.879257 -0.468537 -0.0859094 
-0.670889 -0.741291 0.0199034 -0.640056 -0.766724 -0.0496279 0.848118 -0.529728 -0.00914375 
0.828344 -0.560219 -4.82212e-05 0.845638 -0.517426 -0.131021 -0.634375 -0.769775 -0.0708177 
-0.586283 -0.805617 -0.0851659 0.587199 -0.808357 0.0419096 0.558387 -0.828565 0.0410282 
0.563185 -0.82097 -0.093973 0.306946 -0.95116 0.0328326 0.0840959 -0.996136 0.025332 
-0.0834791 -0.996483 -0.00721246 -0.2241 -0.973416 -0.047326 -0.497927 -0.863369 -0.081626 
-0.43072 -0.900458 -0.0604675 -0.44973 -0.830727 -0.328079 0.0394095 0.998679 0.0329644 
0.495787 0.86768 -0.0364134 0.397724 0.91703 0.0295146 0.128975 0.990578 0.0460408 
0.254963 0.964859 0.0635696 -0.120419 0.99169 0.0452798 0.0297783 0.993058 -0.113793 
-0.161612 0.985616 0.0494332 -0.251167 0.960869 0.11682 -0.227316 0.955935 0.185783 
-0.273042 0.941115 0.199374 0.498382 0.866098 -0.0386094 0.645883 0.74948 -0.145311 
0.499913 0.864207 -0.0568635 -0.353744 0.913869 0.199269 -0.373675 0.904278 0.206516 
-0.492184 0.845777 0.20595 0.695646 0.698024 -0.16982 0.790982 0.561796 -0.242349 
0.639692 0.647235 -0.414584 -0.589519 0.789928 0.168762 -0.650618 0.748282 0.129497 
0.817189 0.518808 -0.25108 0.775752 0.51564 -0.363765 -0.786518 0.614552 0.0609578 
-0.867242 0.49784 0.00681488 0.91616 0.296171 -0.270061 -0.922632 0.383542 -0.0405605 
-0.821857 0.324351 -0.468345 0.957954 0.0945475 -0.270896 -0.992828 0.0863997 -0.0826332 
0.931786 -0.219999 -0.288748 -0.974182 -0.1545 -0.164618 0.809591 -0.499807 -0.307824 
0.741316 -0.577357 -0.342214 0.709722 -0.481042 -0.514678 -0.878713 -0.415453 -0.235079 
-0.850698 -0.464814 -0.245479 -0.829099 -0.425627 -0.362543 0.701642 -0.621309 -0.348817 
0.70839 -0.580109 -0.402067 0.619531 -0.576672 -0.53257 -0.769219 -0.574881 -0.278951 
-0.698182 -0.640247 -0.320352 -0.612703 -0.543409 -0.573848 0.741061 -0.523502 -0.420445 
-0.649027 -0.673017 -0.354699 -0.570632 -0.713049 -0.407358 -0.50325 -0.64834 -0.57131 
0.825286 -0.383773 -0.414272 0.81242 -0.402857 -0.421522 0.796272 -0.389255 -0.463068 
-0.347152 -0.546989 -0.761767 -0.522749 -0.718374 -0.458991 -0.506037 -0.71203 -0.486765 
-0.457737 -0.691677 -0.558623 0.736853 -0.503598 -0.451041 0.534018 -0.710314 -0.458562 
0.502153 -0.552872 -0.664962 -0.442861 -0.710224 -0.547226 -0.38769 -0.573913 -0.721333 
-0.520193 -0.667663 -0.532565 -0.518306 -0.668184 -0.533751 -0.514512 -0.659531 -0.547993 
0.40439 -0.78889 -0.462732 0.29109 -0.848278 -0.442369 0.298324 -0.771667 -0.561723 
0.082551 -0.881405 -0.465091 0.0676539 -0.740849 -0.668255 -0.113384 -0.875309 -0.470084 
-0.10887 -0.747266 -0.655546 -0.361894 -0.779335 -0.511536 -0.261386 -0.839976 -0.475519 
-0.278831 -0.774749 -0.567466 0.408374 0.771516 -0.487846 0.250807 0.864235 -0.436112 
0.0211682 0.89087 -0.453766 -0.10871 0.9009 -0.420191 -0.1945 0.89688 -0.397211 
-0.197662 0.89704 -0.395284 -0.227385 0.885518 -0.405159 0.467561 0.7346 -0.49168 
0.511699 0.670964 -0.53663 0.379839 0.67814 -0.629165 0.22061 0.534009 -0.81619 
0.0733723 0.532956 -0.842956 -0.0371124 0.575617 -0.816877 -0.158448 0.644497 -0.748009 
-0.198009 0.730738 -0.653311 -0.294942 0.89729 -0.328451 -0.203481 0.825627 -0.526247 
-0.337368 0.894534 -0.293242 -0.525274 0.754795 -0.392901 0.57538 0.5825 -0.574135 
0.59748 0.544758 -0.588435 0.414578 0.473991 -0.776825 0.277706 0.344145 -0.896908 
-0.120764 0.362539 -0.924111 -0.213859 0.402076 -0.890281 -0.596564 0.695288 -0.400857 
-0.48262 0.633633 -0.604638 -0.670492 0.619417 -0.408366 0.629245 0.437035 -0.642691 
0.70846 0.332807 -0.622353 0.511311 0.371234 -0.775078 0.311845 0.260442 -0.913741 
-0.251961 0.319014 -0.913644 -0.726297 0.524624 -0.444143 -0.613657 0.456522 -0.644215 
0.728535 0.278067 -0.626032 0.694685 0.273532 -0.665276 0.390271 0.243953 -0.887792 
-0.800635 0.313638 -0.510505 -0.46469 0.152502 -0.872242 -0.810945 0.27971 -0.513937 
0.756001 0.0722264 -0.650573 0.665448 0.0604237 -0.743995 -0.379847 -0.0163673 -0.924905 
-0.837857 0.0383236 -0.544543 -0.767426 0.0270707 -0.640566 0.759143 -0.185571 -0.623912 
0.706658 -0.393895 -0.587776 0.683027 -0.168437 -0.710707 0.348037 -0.113973 -0.930527 
-0.13828 -0.125013 -0.982472 -0.427795 -0.182644 -0.88523 -0.773351 -0.221543 -0.594009 
-0.761055 -0.250947 -0.598182 -0.754883 -0.222499 -0.616965 0.675846 -0.467344 -0.569931 
0.61777 -0.574355 -0.537101 0.483208 -0.343769 -0.805191 -0.245858 -0.251097 -0.936218 
-0.658075 -0.403759 -0.635544 -0.589364 -0.509093 -0.627276 -0.496612 -0.34203 -0.797742 
0.617041 -0.574786 -0.537477 0.395375 -0.422465 -0.815599 0.138896 -0.173699 -0.974955 
-0.0632119 -0.117942 -0.991006 0.0301191 -0.171607 -0.984705 0.0417968 -0.232459 -0.971708 
-0.00923418 -0.233167 -0.972393 -0.0706667 -0.260133 -0.962983 -0.192609 -0.318778 -0.928053 
-0.571154 -0.526728 -0.629556 -0.456414 -0.589784 -0.666214 -0.360813 -0.433496 -0.825769 
0.665008 -0.47349 -0.577556 0.669064 -0.458077 -0.585252 0.651154 -0.460677 -0.603138 
0.306042 -0.302331 -0.902737 0.055452 -0.197609 -0.978711 -0.0643509 -0.123625 -0.99024 
-0.0385821 -0.124975 -0.991409 -0.0321416 -0.203318 -0.978585 -0.0979817 -0.284411 -0.953682 
-0.33254 -0.537306 -0.775061 -0.158846 -0.434272 -0.886666 -0.414732 -0.606335 -0.678495 
-0.349348 -0.603484 -0.716773 -0.294315 -0.54654 -0.784011 0.585308 -0.400117 -0.70521 
0.47645 -0.485288 -0.733138 0.438629 -0.369586 -0.819152 0.129824 -0.307509 -0.942647 
0.00451678 -0.249214 -0.968438 -0.0548898 -0.216978 -0.974632 -0.123788 -0.286674 -0.949997 
-0.335316 -0.530938 -0.778247 -0.331374 -0.503513 -0.797913 -0.252845 -0.396659 -0.882458 
0.361719 -0.520645 -0.773361 0.233272 -0.54333 -0.80646 0.204099 -0.480135 -0.85312 
0.0557781 -0.566327 -0.822291 0.0475078 -0.419337 -0.906587 -0.0958799 -0.560532 -0.822564 
-0.0833177 -0.426215 -0.900777 -0.287007 -0.506434 -0.813112 -0.24007 -0.513839 -0.823611 
-0.224724 -0.469017 -0.854121 0.183829 0.301301 -0.935641 0.0783229 0.388149 -0.918262 
-0.0231427 0.472147 -0.881216 -0.125153 0.437341 -0.890544 -0.155329 0.339815 -0.927577 
0.218764 0.274747 -0.9363 0.215819 0.246727 -0.944747 0.174464 0.226821 -0.958183 
0.102333 0.211112 -0.97209 -0.00697167 0.267127 -0.963636 -0.117536 0.286425 -0.950866 
-0.133767 0.312653 -0.940401 -0.147267 0.284259 -0.947369 -0.086712 0.254854 -0.963084 
-0.12296 0.254437 -0.959241 0.239639 0.212904 -0.94723 0.242693 0.184151 -0.952464 
0.159685 0.161539 -0.973861 0.0965008 0.0595717 -0.993549 0.122577 0.0216575 -0.992223 
0.0398047 0.0883853 -0.995291 -0.135592 0.146771 -0.979833 -0.130285 0.0665564 -0.98924 
-0.0411409 0.128664 -0.990835 -0.221794 0.296186 -0.929022 -0.0652433 0.188446 -0.979914 
-0.239318 0.274217 -0.931414 0.256406 0.16842 -0.951783 0.336439 0.0431704 -0.940715 
0.192497 0.126743 -0.973078 0.0639433 0.0417087 -0.997082 0.0344397 0.0207001 -0.999192 
0.137845 0.0494549 -0.989218 0.119035 -0.0655934 -0.990721 -0.145822 0.0384018 -0.988565 
-0.165466 0.0250506 -0.985897 0.000541544 0.0338803 -0.999426 -0.0377895 0.0586729 -0.997562 
-0.269241 0.0918591 -0.958682 -0.193184 0.0754719 -0.978255 0.337549 0.0382081 -0.940532 
0.335562 0.0315249 -0.94149 0.335007 0.0381208 -0.941444 0.101566 0.0188359 -0.99465 
0.0635165 -0.0110565 -0.99792 0.104974 -0.00827931 -0.994441 0.0309471 0.0655294 -0.997371 
-0.0672623 -0.235952 -0.969434 0.0331577 -0.316542 -0.947999 -0.0331796 -0.148078 -0.988419 
-0.146336 0.0185833 -0.98906 -0.00484692 -0.0236528 -0.999708 -0.0202039 -0.0232337 -0.999526 
-0.284888 -0.0148955 -0.958445 -0.169224 -0.0121743 -0.985502 0.256857 -0.0719825 -0.963765 
0.135733 -0.0247692 -0.990436 0.0351411 -0.0600109 -0.997579 0.112362 -0.103712 -0.98824 
-0.161639 -0.153065 -0.974907 -0.153448 -0.165642 -0.974175 0.072745 -0.144963 -0.986759 
0.0183858 -0.00642483 -0.99981 0.221754 -0.14937 -0.963594 -0.0397926 -0.0480517 -0.998052 
-0.0410046 -0.0529166 -0.997757 -0.0265415 -0.101064 -0.994526 -0.246325 -0.144486 -0.958357 
-0.210399 -0.175884 -0.961664 -0.193847 -0.137789 -0.971307 0.24124 -0.228792 -0.943111 
0.198977 -0.248156 -0.948065 0.147368 -0.189729 -0.970714 0.107076 -0.159238 -0.981416 
-0.0116297 -0.103088 -0.994604 -0.00219397 -0.0938592 -0.995583 -0.0245124 -0.192277 -0.981035 
0.00559723 -0.251588 -0.967818 0.0566149 -0.0517764 -0.997053 0.0703751 0.0302176 -0.997063 
0.0411029 -0.215635 -0.975609 0.0397794 -0.116037 -0.992448 -0.0184802 -0.21664 -0.976077 
-0.0631022 -0.143001 -0.987709 -0.0655186 -0.195706 -0.978472 -0.0587595 -0.0874466 -0.994435 
-0.135316 -0.184104 -0.973548 -0.121819 -0.189823 -0.974232 -0.109893 -0.168401 -0.979574 
0.0118846 -0.121658 -0.992501 -0.0416772 -0.101363 -0.993976 -0.0340634 -0.106273 -0.993753 
-0.0399091 -0.0998619 -0.994201 
