# vtk DataFile Version 4.2
vtk output
ASCII
DATASET POLYDATA
POINTS 528 float
-35.2529 -33.3091 -15.2431 13.3481 -33.3091 -16.072 21.4482 -33.3091 -15.3303 
-51.4532 -25.2089 -15.4423 -43.3531 -25.2089 -17.1938 -35.2529 -25.2089 -18.4318 
-27.1527 -25.2089 -18.2488 -19.0526 -25.2089 -17.6963 -10.9524 -25.2089 -17.2227 
-2.85224 -25.2089 -16.6376 5.24792 -25.2089 -17.8484 13.3481 -25.2089 -18.702 
21.4482 -25.2089 -17.8128 29.5484 -25.2089 -17.5455 37.6486 -25.2089 -15.5472 
-51.4532 -17.1088 -17.6642 -43.3531 -17.1088 -19.7099 -35.2529 -17.1088 -19.9158 
-27.1527 -17.1088 -19.2124 -19.0526 -17.1088 -18.3546 -10.9524 -17.1088 -17.748 
-2.85224 -17.1088 -17.4333 5.24792 -17.1088 -19.3909 13.3481 -17.1088 -19.2684 
21.4482 -17.1088 -18.3013 29.5484 -17.1088 -18.9539 37.6486 -17.1088 -18.0572 
45.7487 -17.1088 -17.2619 53.8489 -17.1088 -15.0233 -59.5534 -9.00862 -15.7518 
-51.4532 -9.00862 -19.1884 -43.3531 -9.00862 -20.3895 -35.2529 -9.00862 -20.2014 
-27.1527 -9.00862 -19.4521 -19.0526 -9.00862 -18.1626 -10.9524 -9.00862 -19.6782 
-2.85224 -9.00862 -19.2031 5.24792 -9.00862 -21.0704 13.3481 -9.00862 -19.7834 
21.4482 -9.00862 -17.9629 29.5484 -9.00862 -19.0738 37.6486 -9.00862 -19.8677 
45.7487 -9.00862 -19.8152 53.8489 -9.00862 -18.022 -59.5534 -0.908462 -16.3543 
-51.4532 -0.908462 -19.7356 -43.3531 -0.908462 -20.73 -35.2529 -0.908462 -20.5509 
-27.1527 -0.908462 -19.2469 -19.0526 -0.908462 -18.0641 -10.9524 -0.908462 -22.6475 
-2.85224 -0.908462 -18.5314 5.24792 -0.908462 -19.8582 13.3481 -0.908462 -21.0712 
21.4482 -0.908462 -18.2812 29.5484 -0.908462 -19.864 37.6486 -0.908462 -20.8916 
45.7487 -0.908462 -20.2274 53.8489 -0.908462 -18.586 -51.4532 7.1917 -19.0422 
-43.3531 7.1917 -20.5844 -35.2529 7.1917 -20.679 -27.1527 7.1917 -19.4251 
-19.0526 7.1917 -17.9582 -10.9524 7.1917 -19.8351 -2.85224 7.1917 -20.2355 
5.24792 7.1917 -20.1258 13.3481 7.1917 -19.8051 21.4482 7.1917 -18.7876 
29.5484 7.1917 -20.1053 37.6486 7.1917 -21.1494 45.7487 7.1917 -20.511 
53.8489 7.1917 -18.7215 61.949 7.1917 -15.0078 -51.4532 15.2919 -18.1387 
-43.3531 15.2919 -20.1083 -35.2529 15.2919 -21.5383 -27.1527 15.2919 -20.455 
-19.0526 15.2919 -19.6248 -10.9524 15.2919 -19.4032 -2.85224 15.2919 -19.5791 
5.24792 15.2919 -19.5774 13.3481 15.2919 -19.5386 21.4482 15.2919 -19.4874 
29.5484 15.2919 -20.0066 37.6486 15.2919 -20.2841 45.7487 15.2919 -20.2774 
53.8489 15.2919 -17.3048 -43.3531 23.392 -18.6482 -35.2529 23.392 -19.9261 
-27.1527 23.392 -20.206 -19.0526 23.392 -20.7803 -10.9524 23.392 -20.121 
-2.85224 23.392 -19.9632 5.24792 23.392 -19.9507 13.3481 23.392 -19.8407 
21.4482 23.392 -19.6038 29.5484 23.392 -19.4776 37.6486 23.392 -18.5971 
45.7487 23.392 -16.7176 -35.2529 31.4922 -17.6259 -27.1527 31.4922 -19.1949 
-19.0526 31.4922 -20.0207 -10.9524 31.4922 -19.5281 -2.85224 31.4922 -19.1553 
5.24792 31.4922 -19.079 13.3481 31.4922 -18.8418 21.4482 31.4922 -17.7076 
29.5484 31.4922 -16.0019 -10.9524 39.5923 -15.2372 -2.85224 39.5923 -15.5669 
5.24792 39.5923 -15.3484 -35.2529 -33.6847 -14.941 13.3481 -34.8437 -14.941 
21.4482 -33.8492 -14.941 -51.4532 -25.7924 -14.941 -51.4532 -33.3091 -7.34688 
-36.3809 -33.3091 -14.941 -43.3531 -29.5024 -14.941 -43.3531 -33.3091 -11.983 
-29.7978 -33.3091 -14.941 -27.1527 -32.9597 -14.941 -27.1527 -33.3091 -14.7357 
-19.0526 -33.2993 -14.941 -19.0526 -33.3091 -14.9358 -10.9524 -31.774 -14.941 
-10.9524 -33.3091 -14.1684 -2.85224 -30.4855 -14.941 -2.85224 -33.3091 -13.697 
7.54426 -33.3091 -14.941 5.24792 -32.2347 -14.941 5.24792 -33.3091 -14.3948 
22.9537 -33.3091 -14.941 29.5484 -30.4825 -14.941 29.5484 -33.3091 -12.7206 
37.6486 -26.2942 -14.941 37.6486 -33.3091 -9.37257 -52.1788 -25.2089 -14.941 
-59.5534 -25.2089 -9.25075 41.0122 -25.2089 -14.941 45.7487 -23.1233 -14.941 
45.7487 -25.2089 -13.8408 53.8489 -17.2455 -14.941 53.8489 -25.2089 -7.65193 
-57.3615 -17.1088 -14.941 -59.5534 -12.0814 -14.941 -59.5534 -17.1088 -13.5758 
54.0247 -17.1088 -14.941 61.949 -17.1088 -8.57352 -60.5091 -9.00862 -14.941 
59.4047 -9.00862 -14.941 61.949 -9.00862 -12.8567 -61.1725 -0.908462 -14.941 
-59.5534 5.50455 -14.941 61.2493 -0.908462 -14.941 61.949 6.12674 -14.941 
61.949 -0.908462 -14.5039 -59.0122 7.1917 -14.941 -59.5534 7.1917 -14.5148 
62.0224 7.1917 -14.941 61.949 7.34665 -14.941 -56.207 15.2919 -14.941 
-59.5534 15.2919 -10.6086 -51.4532 23.0529 -14.941 57.7131 15.2919 -14.941 
53.8489 20.0579 -14.941 61.949 15.2919 -10.7628 -51.1076 23.392 -14.941 
-51.4532 23.392 -14.6721 -43.3531 30.785 -14.941 37.6486 29.97 -14.941 
49.7109 23.392 -14.941 45.7487 25.9713 -14.941 53.8489 23.392 -11.9569 
-42.3648 31.4922 -14.941 -43.3531 31.4922 -14.2203 -35.2529 34.7498 -14.941 
-27.1527 38.0818 -14.941 -19.0526 39.2419 -14.941 13.3481 38.2008 -14.941 
21.4482 35.3678 -14.941 33.7697 31.4922 -14.941 29.5484 32.8063 -14.941 
37.6486 31.4922 -12.7877 -27.1527 39.5923 -12.1903 -15.4218 39.5923 -14.941 
-19.0526 39.5923 -14.3994 -10.9524 39.8883 -14.941 -2.85224 40.2486 -14.941 
7.66775 39.5923 -14.941 5.24792 40.0245 -14.941 13.3481 39.5923 -12.6647 
-51.4532 -33.6655 -6.84083 -43.3531 -36.8083 -6.84083 -35.2529 -38.1998 -6.84083 
-27.1527 -39.0506 -6.84083 -19.0526 -38.6262 -6.84083 -10.9524 -38.3193 -6.84083 
-2.85224 -38.4428 -6.84083 5.24792 -39.63 -6.84083 13.3481 -40.7011 -6.84083 
21.4482 -40.2817 -6.84083 29.5484 -37.9987 -6.84083 37.6486 -35.0765 -6.84083 
-52.0857 -33.3091 -6.84083 -59.5534 -27.6238 -6.84083 41.4824 -33.3091 -6.84083 
45.7487 -31.143 -6.84083 53.8489 -25.8563 -6.84083 -61.5086 -25.2089 -6.84083 
54.6939 -25.2089 -6.84083 61.949 -18.5718 -6.84083 -65.9267 -17.1088 -6.84083 
63.0787 -17.1088 -6.84083 -67.1843 -9.00862 -6.84083 67.3153 -9.00862 -6.84083 
-67.2804 -0.908462 -6.84083 68.5444 -0.908462 -6.84083 -64.9673 7.1917 -6.84083 
68.5385 7.1917 -6.84083 -61.8391 15.2919 -6.84083 -59.5534 19.3831 -6.84083 
64.7007 15.2919 -6.84083 61.949 19.3993 -6.84083 -56.958 23.392 -6.84083 
-51.4532 29.4337 -6.84083 45.7487 31.3096 -6.84083 58.2656 23.392 -6.84083 
53.8489 27.2665 -6.84083 -48.9339 31.4922 -6.84083 -43.3531 35.1332 -6.84083 
-35.2529 38.8723 -6.84083 21.4482 39.2674 -6.84083 29.5484 36.534 -6.84083 
45.2362 31.4922 -6.84083 37.6486 34.0895 -6.84083 -33.0578 39.5923 -6.84083 
-27.1527 41.4533 -6.84083 -19.0526 42.4608 -6.84083 -10.9524 43.0285 -6.84083 
-2.85224 43.407 -6.84083 5.24792 43.188 -6.84083 20.4089 39.5923 -6.84083 
13.3481 41.7427 -6.84083 -51.4532 -34.927 1.25933 -43.3531 -37.1915 1.25933 
-35.2529 -38.1765 1.25933 -27.1527 -38.8351 1.25933 -19.0526 -38.1317 1.25933 
-10.9524 -38.0328 1.25933 -2.85224 -38.9711 1.25933 5.24792 -40.5092 1.25933 
13.3481 -41.3028 1.25933 21.4482 -40.7325 1.25933 29.5484 -38.6988 1.25933 
37.6486 -35.842 1.25933 -53.7165 -33.3091 1.25933 -59.5534 -28.5608 1.25933 
-51.4532 -33.3091 4.17924 43.9828 -33.3091 1.25933 37.6486 -33.3091 8.40849 
45.7487 -32.5664 1.25933 53.8489 -28.1137 1.25933 -62.4815 -25.2089 1.25933 
-59.5534 -25.2089 6.66564 57.6392 -25.2089 1.25933 61.949 -21.3337 1.25933 
-66.1862 -17.1088 1.25933 65.3818 -17.1088 1.25933 -67.3888 -9.00862 1.25933 
69.2071 -9.00862 1.25933 -67.5392 -0.908462 1.25933 69.7987 -0.908462 1.25933 
-65.2264 7.1917 1.25933 69.2232 7.1917 1.25933 -61.9741 15.2919 1.25933 
-59.5534 19.2434 1.25933 -59.5534 15.2919 6.76381 64.7245 15.2919 1.25933 
61.949 19.0124 1.25933 61.949 15.2919 7.12799 -56.5656 23.392 1.25933 
-51.4532 28.451 1.25933 45.7487 29.7945 1.25933 57.1437 23.392 1.25933 
53.8489 25.9832 1.25933 53.8489 23.392 5.48107 -47.523 31.4922 1.25933 
-43.3531 34.199 1.25933 -43.3531 31.4922 7.08152 -35.2529 37.94 1.25933 
21.4482 37.1721 1.25933 29.5484 34.9526 1.25933 29.5484 31.4922 7.1066 
40.649 31.4922 1.25933 37.6486 32.5153 1.25933 37.6486 31.4922 3.29913 
-30.0357 39.5923 1.25933 -27.1527 40.5036 1.25933 -27.1527 39.5923 3.69612 
-19.0526 41.5624 1.25933 -19.0526 39.5923 8.41465 -10.9524 41.8812 1.25933 
-10.9524 39.5923 8.4679 -2.85224 41.9219 1.25933 -2.85224 39.5923 6.33207 
5.24792 41.3521 1.25933 5.24792 39.5923 4.49678 13.6473 39.5923 1.25933 
13.3481 39.6866 1.25933 13.3481 39.5923 1.43459 -43.3531 -33.69 9.35949 
-35.2529 -35.0755 9.35949 -27.1527 -34.9204 9.35949 -19.0526 -34.3864 9.35949 
-10.9524 -34.3467 9.35949 -2.85224 -35.355 9.35949 5.24792 -36.7735 9.35949 
13.3481 -37.5128 9.35949 21.4482 -36.6424 9.35949 29.5484 -34.9994 9.35949 
-44.3168 -33.3091 9.35949 -51.4532 -29.8475 9.35949 -43.3531 -33.3091 9.80445 
-35.2529 -33.3091 11.363 -27.1527 -33.3091 11.1778 -19.0526 -33.3091 10.6723 
-10.9524 -33.3091 10.5842 -2.85224 -33.3091 11.4599 5.24792 -33.3091 12.4815 
13.3481 -33.3091 13.2941 21.4482 -33.3091 12.5502 36.1135 -33.3091 9.35949 
29.5484 -33.3091 11.1761 37.6486 -32.9177 9.35949 45.7487 -29.9765 9.35949 
53.8489 -26.0216 9.35949 -57.3163 -25.2089 9.35949 -59.5534 -21.6984 9.35949 
-51.4532 -25.2089 13.1837 -43.3531 -25.2089 15.2867 -35.2529 -25.2089 16.8032 
-27.1527 -25.2089 16.6068 -19.0526 -25.2089 16.6607 -10.9524 -25.2089 16.1733 
-2.85224 -25.2089 15.8535 5.24792 -25.2089 15.8777 13.3481 -25.2089 15.9846 
21.4482 -25.2089 16.7056 29.5484 -25.2089 17.2918 37.6486 -25.2089 17.1083 
45.7487 -25.2089 15.9242 54.81 -25.2089 9.35949 53.8489 -25.2089 10.3769 
61.949 -18.6974 9.35949 -61.7309 -17.1088 9.35949 -59.5534 -17.1088 11.3857 
-51.4532 -17.1088 17.0886 -2.85224 -17.1088 17.3837 5.24792 -17.1088 16.5947 
13.3481 -17.1088 17.0959 63.2087 -17.1088 9.35949 61.949 -17.1088 11.2128 
-63.6389 -9.00862 9.35949 -59.5534 -9.00862 13.6561 67.1637 -9.00862 9.35949 
61.949 -9.00862 16.1711 -64.0152 -0.908462 9.35949 -59.5534 -0.908462 14.0233 
67.4592 -0.908462 9.35949 61.949 -0.908462 16.3897 -61.9015 7.1917 9.35949 
-59.5534 12.6661 9.35949 -59.5534 7.1917 12.1712 66.0531 7.1917 9.35949 
61.949 13.3734 9.35949 61.949 7.1917 13.7967 -58.16 15.2919 9.35949 
-51.4532 15.2919 15.8925 45.7487 15.2919 17.3354 60.4708 15.2919 9.35949 
53.8489 20.9353 9.35949 53.8489 15.2919 15.2677 -52.068 23.392 9.35949 
[...]
POINT_DATA 528
SCALARS ImageScalars float
LOOKUP_TABLE default
0 0 0 0 0 0 0 0 0 
0 0 0 0 0 0 0 0 0 
0 0 0 0 0 0 0 0 0 
0 0 0 0 0 0 0 0 0 
0 0 0 0 0 0 0 0 0 
0 0 0 0 0 0 0 0 0 
0 0 0 0 0 0 0 0 0 
0 0 0 0 0 0 0 0 0 
0 0 0 0 0 0 0 0 0 
0 0 0 0 0 0 0 0 0 
0 0 0 0 0 0 0 0 0 
0 0 0 0 0 0 0 0 0 
0 0 0 0 0 0 0 0 0 
0 0 0 0 0 0 0 0 0 
0 0 0 0 0 0 0 0 0 
0 0 0 0 0 0 0 0 0 
0 0 0 0 0 0 0 0 0 
0 0 0 0 0 0 0 0 0 
0 0 0 0 0 0 0 0 0 
0 0 0 0 0 0 0 0 0 
0 0 0 0 0 0 0 0 0 
0 0 0 0 0 0 0 0 0 
0 0 0 0 0 0 0 0 0 
0 0 0 0 0 0 0 0 0 
0 0 0 0 0 0 0 0 0 
0 0 0 0 0 0 0 0 0 
0 0 0 0 0 0 0 0 0 
0 0 0 0 0 0 0 0 0 
0 0 0 0 0 0 0 0 0 
0 0 0 0 0 0 0 0 0 
0 0 0 0 0 0 0 0 0 
0 0 0 0 0 0 0 0 0 
0 0 0 0 0 0 0 0 0 
0 0 0 0 0 0 0 0 0 
0 0 0 0 0 0 0 0 0 
0 0 0 0 0 0 0 0 0 
0 0 0 0 0 0 0 0 0 
0 0 0 0 0 0 0 0 0 
0 0 0 0 0 0 0 0 0 
0 0 0 0 0 0 0 0 0 
0 0 0 0 0 0 0 0 0 
0 0 0 0 0 0 0 0 0 
0 0 0 0 0 0 0 0 0 
0 0 0 0 0 0 0 0 0 
0 0 0 0 0 0 0 0 0 
0 0 0 0 0 0 0 0 0 
0 0 0 0 0 0 0 0 0 
0 0 0 0 0 0 0 0 0 
0 0 0 0 0 0 0 0 0 
0 0 0 0 0 0 0 0 0 
0 0 0 0 0 0 0 0 0 
0 0 0 0 0 0 0 0 0 
0 0 0 0 0 0 0 0 0 
0 0 0 0 0 0 0 0 0 
0 0 0 0 0 0 0 0 0 
0 0 0 0 0 0 0 0 0 
0 0 0 0 0 0 0 0 0 
0 0 0 0 0 0 0 0 0 
0 0 0 0 0 0 
NORMALS Normals float
-0.102819 -0.610263 -0.785498 -0.0462955 -0.504958 -0.861901 0.162999 -0.498149 -0.851633 
-0.371603 -0.46709 -0.802333 -0.157035 -0.361451 -0.919072 -0.0573331 -0.27545 -0.959604 
0.0454953 -0.228578 -0.972462 0.0601314 -0.195294 -0.9789 0.0638925 -0.192517 -0.979211 
-0.0353167 -0.203074 -0.978526 -0.123844 -0.273281 -0.953929 0.00746519 -0.181496 -0.983363 
0.0707209 -0.167895 -0.983265 0.117064 -0.297772 -0.947432 0.225571 -0.404621 -0.886228 
-0.318191 -0.181735 -0.930444 -0.125919 -0.175966 -0.976309 0.0305737 -0.115142 -0.992878 
0.0947614 -0.0691931 -0.993092 0.0896375 -0.0276492 -0.995591 0.0566263 -0.135889 -0.989105 
-0.0929362 -0.152928 -0.983858 -0.115643 -0.186985 -0.975532 0.0690436 -0.0629931 -0.995623 
0.0164866 -0.0100671 -0.999813 0.0134952 -0.103899 -0.994496 0.0948166 -0.236422 -0.967013 
0.173018 -0.332061 -0.927254 0.333371 -0.45512 -0.825669 -0.553007 -0.134708 -0.822215 
-0.231362 -0.122052 -0.965181 -0.0560562 -0.0648092 -0.996322 0.0553688 -0.0400021 -0.997664 
0.13051 -0.00220147 -0.991444 -0.0100347 0.0184325 -0.99978 -0.0706471 -0.273544 -0.959262 
-0.0828533 -0.0842144 -0.992997 -0.048595 -0.0438711 -0.997855 0.205712 -0.0960473 -0.973888 
0.0289229 0.0022685 -0.999579 -0.118042 -0.0561839 -0.991418 -0.0443025 -0.170421 -0.984375 
0.115538 -0.168177 -0.978962 0.337317 -0.195945 -0.920773 -0.560083 0.0578997 -0.826411 
-0.222939 0.00806595 -0.974799 -0.0452398 -0.0121632 -0.998902 0.0909246 -0.0293405 -0.995425 
0.156037 0.0005625 -0.987751 -0.137933 0.0130256 -0.990356 -0.127829 -0.0366336 -0.991119 
0.164365 -0.073483 -0.983659 -0.141002 0.0664046 -0.98778 0.128344 0.00336478 -0.991724 
0.0260362 -0.0499662 -0.998411 -0.156176 -0.0624695 -0.985752 -0.0226255 -0.0789793 -0.996619 
0.134483 -0.0426685 -0.989997 0.294682 -0.0431852 -0.954619 -0.30712 0.0991135 -0.946496 
-0.0915546 0.0409803 -0.994956 0.0710652 -0.0590456 -0.995723 0.170086 -0.0755468 -0.982529 
0.00373142 -0.0974623 -0.995232 -0.159828 0.177042 -0.971139 -0.0132968 -0.0351657 -0.999293 
0.0255294 0.0228747 -0.999412 0.0834451 0.0780042 -0.993455 -0.0255256 -0.0750899 -0.99685 
-0.139356 -0.00877989 -0.990203 -0.02079 0.036439 -0.99912 0.134179 -0.00468063 -0.990946 
0.301835 0.0800222 -0.949996 0.61057 0.151485 -0.777339 -0.405384 0.224979 -0.88603 
-0.197738 0.100389 -0.975101 -0.0296019 0.0447157 -0.998561 0.114938 -0.0475811 -0.992233 
0.0650566 -0.173437 -0.982694 0.00281246 -0.0245673 -0.999694 -0.0107644 0.0131231 -0.999856 
0.00250068 0.00957843 -0.999951 0.00555653 -0.00380306 -0.999977 -0.0288275 -0.0469662 -0.99848 
-0.0486248 0.0365217 -0.998149 -0.0170256 0.161641 -0.986703 0.179958 0.207717 -0.961493 
0.412061 0.265696 -0.871557 -0.297228 0.328862 -0.896385 -0.083294 0.209531 -0.974248 
-0.0515679 0.0763319 -0.995748 0.00541249 -0.03111 -0.999501 0.0497373 -0.00592072 -0.998745 
0.010539 0.0245951 -0.999642 0.00757087 0.0290545 -0.999549 0.0211288 0.0424983 -0.998873 
0.0221902 0.0948271 -0.995246 0.0653176 0.230454 -0.970889 0.151321 0.32584 -0.933236 
0.301015 0.471027 -0.829171 -0.267731 0.479735 -0.835568 -0.128787 0.336976 -0.932663 
-0.0186369 0.286978 -0.957756 0.0482836 0.253884 -0.966029 0.0289692 0.239407 -0.970487 
0.0192453 0.249 -0.968312 0.0768339 0.311763 -0.947048 0.184437 0.444156 -0.87676 
0.209733 0.587469 -0.781596 -0.0457581 0.744117 -0.66648 -0.00623548 0.688257 -0.72544 
0.0917042 0.694479 -0.713645 -0.105822 -0.632124 -0.767607 -0.0462168 -0.577679 -0.814955 
0.163985 -0.523021 -0.836396 -0.377297 -0.490024 -0.785827 -0.422991 -0.814981 -0.396086 
-0.13618 -0.624302 -0.769222 -0.270658 -0.535539 -0.799964 -0.322397 -0.754802 -0.571257 
-0.0228126 -0.607051 -0.794335 0.0217607 -0.585556 -0.81034 0.0185946 -0.609837 -0.792309 
0.0247158 -0.562123 -0.826684 0.0246826 -0.562826 -0.826207 0.0595186 -0.488171 -0.870716 
0.0547347 -0.593475 -0.802989 -0.015752 -0.41588 -0.909283 -0.0144138 -0.580043 -0.814458 
-0.101896 -0.522461 -0.846553 -0.123578 -0.491976 -0.861793 -0.124413 -0.544955 -0.829184 
0.178431 -0.522167 -0.833969 0.203775 -0.501585 -0.840767 0.258789 -0.666657 -0.698997 
0.242204 -0.434264 -0.867613 0.364153 -0.782501 -0.505059 -0.396006 -0.471797 -0.787774 
-0.693786 -0.510386 -0.508102 0.259796 -0.4576 -0.850358 0.269147 -0.476904 -0.836733 
0.320392 -0.557111 -0.766144 0.33551 -0.458546 -0.822903 0.535467 -0.715091 -0.449355 
-0.478347 -0.26348 -0.837713 -0.552206 -0.191227 -0.811481 -0.575943 -0.298846 -0.760908 
0.339561 -0.455516 -0.822924 0.723541 -0.498639 -0.477335 -0.593487 -0.126015 -0.794917 
0.541089 -0.200386 -0.816742 0.658877 -0.228525 -0.716699 -0.629058 0.0646079 -0.774669 
-0.628327 0.187914 -0.754913 0.564061 -0.0907028 -0.820736 0.609865 0.118147 -0.783649 
0.599687 -0.0968599 -0.794351 -0.620653 0.211117 -0.755129 -0.653618 0.227198 -0.721918 
0.612291 0.15174 -0.775934 0.612273 0.155217 -0.775261 -0.625251 0.276581 -0.72977 
-0.812143 0.376294 -0.445899 -0.506171 0.493642 -0.707183 0.537144 0.31781 -0.781328 
0.453704 0.471486 -0.75621 0.757536 0.414908 -0.503975 -0.499023 0.499958 -0.707826 
-0.515757 0.510861 -0.687761 -0.436369 0.596423 -0.673693 0.263928 0.670437 -0.693438 
0.398173 0.548465 -0.735285 0.355811 0.597523 -0.718586 0.532093 0.674196 -0.512188 
-0.429332 0.607161 -0.668602 -0.458578 0.641728 -0.614728 -0.32544 0.659053 -0.67804 
-0.191225 0.736546 -0.648793 -0.0821472 0.782675 -0.616986 0.185036 0.701813 -0.68791 
0.246103 0.666389 -0.703817 0.252721 0.675857 -0.692351 0.234582 0.656545 -0.716882 
0.303377 0.812849 -0.49723 -0.208762 0.878871 -0.428956 -0.0675248 0.776329 -0.626701 
-0.0851122 0.816646 -0.570829 -0.0494266 0.758503 -0.649793 -0.0084805 0.724274 -0.68946 
0.125653 0.722641 -0.679707 0.0936226 0.717283 -0.690464 0.219449 0.852413 -0.474588 
-0.422935 -0.827326 -0.369673 -0.256851 -0.921474 -0.291399 -0.135278 -0.963827 -0.229645 
-0.02589 -0.966482 -0.255427 0.0459667 -0.974485 -0.219697 0.0118757 -0.969259 -0.245755 
-0.079858 -0.941719 -0.326785 -0.13555 -0.931487 -0.337577 -0.0378825 -0.955568 -0.292328 
0.156649 -0.939273 -0.30533 0.297656 -0.894762 -0.332869 0.374742 -0.862006 -0.341341 
-0.439132 -0.820263 -0.366513 -0.701861 -0.614902 -0.359565 0.407884 -0.837288 -0.364115 
0.442893 -0.808979 -0.386521 0.541209 -0.734602 -0.409209 -0.769701 -0.52493 -0.36333 
0.550073 -0.726965 -0.411025 0.729034 -0.559896 -0.393732 -0.898368 -0.311574 -0.309608 
0.760628 -0.511808 -0.399372 -0.960246 -0.0644897 -0.271602 0.842934 -0.307177 -0.441707 
-0.959031 0.123391 -0.255019 0.921794 -0.0627443 -0.38257 -0.918039 0.298458 -0.261012 
0.908588 0.232092 -0.347277 -0.871803 0.424444 -0.244556 -0.837348 0.501995 -0.216448 
0.840237 0.467247 -0.275104 0.770887 0.594924 -0.227591 -0.784323 0.591509 -0.186962 
-0.671788 0.719278 -0.17703 0.354141 0.927283 -0.121367 0.663201 0.725641 -0.183326 
0.571038 0.800266 -0.183004 -0.613921 0.773405 -0.15794 -0.501165 0.854206 -0.13844 
-0.347946 0.9306 -0.113655 0.319013 0.94717 -0.0331723 0.295618 0.952093 -0.0782875 
0.348987 0.92977 -0.117203 0.308749 0.946078 -0.0980344 -0.308874 0.945367 -0.104294 
-0.209524 0.972338 -0.103236 -0.0986585 0.988948 -0.110675 -0.0576425 0.994036 -0.0925725 
-0.00970383 0.997147 -0.0748643 0.0988271 0.993621 -0.0543146 0.308547 0.950704 -0.0309938 
0.237329 0.970315 -0.0465149 -0.453038 -0.876298 0.163885 -0.185278 -0.967123 0.174199 
-0.0989577 -0.982209 0.159601 0.002717 -0.975279 0.22096 0.0492597 -0.971136 0.233383 
-0.051258 -0.9755 0.213947 -0.150589 -0.976348 0.155135 -0.141949 -0.981421 0.129086 
-0.0144232 -0.988766 0.148777 0.158935 -0.971865 0.173831 0.283191 -0.948404 0.142592 
0.343151 -0.932582 0.111978 -0.515676 -0.840963 0.163891 -0.710774 -0.686605 0.152887 
-0.442957 -0.826015 0.348552 0.412339 -0.90773 0.0774749 0.272682 -0.86697 0.417142 
0.433683 -0.898698 0.0652795 0.554358 -0.832227 -0.0092735 -0.818731 -0.553599 0.152342 
-0.689751 -0.517074 0.506831 0.610511 -0.791997 0.00405829 0.727665 -0.685922 0.00384149 
-0.934677 -0.287242 0.209455 0.852387 -0.522911 -0.000308252 -0.979233 -0.0753159 0.18823 
0.963706 -0.266464 0.0163335 -0.975687 0.129901 0.176522 0.998016 -0.00273297 0.0628938 
-0.940726 0.299305 0.159533 0.94256 0.311533 0.120531 -0.872004 0.460982 0.164635 
-0.831569 0.52502 0.18124 -0.790159 0.454605 0.411075 0.829291 0.534987 0.161448 
0.752804 0.628743 0.194853 0.70162 0.539733 0.465207 -0.76157 0.617401 0.197045 
-0.639072 0.733304 0.232061 0.343825 0.876185 0.337762 0.603631 0.757534 0.248539 
0.507514 0.808847 0.296977 0.466381 0.771746 0.432315 -0.5518 0.799109 0.238624 
-0.477106 0.845647 0.23927 -0.465936 0.768093 0.439245 -0.347248 0.906693 0.239428 
0.265484 0.888358 0.374618 0.257228 0.899927 0.352087 0.215162 0.792613 0.570499 
0.307651 0.894599 0.324104 0.285332 0.905143 0.315121 0.284469 0.875509 0.390591 
-0.261497 0.936209 0.234803 -0.212842 0.948806 0.233377 -0.228901 0.922686 0.31025 
-0.0806064 0.978721 0.188698 -0.102675 0.912716 0.395483 -0.0213626 0.974846 0.221853 
0.054104 0.909103 0.413043 0.0299257 0.950404 0.309576 0.0973013 0.889483 0.446489 
0.127274 0.922668 0.363986 0.140764 0.876472 0.460415 0.235864 0.900411 0.365551 
0.234491 0.900841 0.365377 0.234418 0.89883 0.370341 -0.243589 -0.773112 0.58563 
-0.0715079 -0.824703 0.561028 0.0371058 -0.795149 0.605278 0.0303863 -0.811765 0.583193 
-0.0509364 -0.80423 0.592131 -0.12575 -0.775936 0.618151 -0.11534 -0.75652 0.643719 
0.0068973 -0.773484 0.633779 0.128079 -0.756345 0.641512 0.194807 -0.77873 0.596347 
-0.259582 -0.760424 0.595292 -0.390165 -0.638961 0.662947 -0.246937 -0.755812 0.606441 
-0.0681255 -0.747321 0.660962 0.0312484 -0.738168 0.673893 0.0278008 -0.771638 0.635454 
-0.0411472 -0.762934 0.645166 -0.0974904 -0.681865 0.724953 -0.0979831 -0.574214 0.812821 
-0.00597354 -0.5447 0.83861 0.106607 -0.624183 0.77397 0.246164 -0.835974 0.49046 
0.156458 -0.728426 0.667021 0.255867 -0.845993 0.46779 0.330451 -0.835425 0.439166 
0.522641 -0.749214 0.406847 -0.568534 -0.473308 0.672866 -0.63562 -0.385312 0.668971 
-0.389741 -0.514788 0.763607 -0.199149 -0.439546 0.875865 -0.0717555 -0.350364 0.933861 
0.00843842 -0.36501 0.930965 0.0250198 -0.339905 0.940127 0.0470837 -0.348058 0.93629 
0.016702 -0.306173 0.951829 -0.00839744 -0.225119 0.974295 -0.0459669 -0.200895 0.978534 
-0.079123 -0.335633 0.938664 -0.0245 -0.45987 0.887648 0.055546 -0.569759 0.819932 
0.261146 -0.680037 0.685093 0.540365 -0.737994 0.404192 0.514016 -0.72966 0.450981 
0.722955 -0.570884 0.389136 -0.7039 -0.278497 0.653425 -0.627142 -0.297949 0.719666 
-0.370857 -0.252968 0.893573 0.0633804 -0.16408 0.984409 0.0164487 -0.163263 0.986445 
-0.126049 -0.137688 0.982422 0.761112 -0.516273 0.392645 0.724786 -0.510448 0.462739 
-0.808195 -0.113329 0.577908 -0.634168 -0.139779 0.760455 0.889194 -0.241237 0.388765 
0.635086 -0.199509 0.746232 -0.82759 0.0949584 0.553244 -0.643519 0.0663937 0.762545 
0.90495 0.0501649 0.422551 0.630191 0.103668 0.769488 -0.803425 0.28018 0.525364 
-0.752257 0.389032 0.531756 -0.722596 0.266403 0.637875 0.794803 0.331344 0.508429 
0.664288 0.490925 0.563661 0.621195 0.385997 0.681999 -0.721273 0.439897 0.535028 
-0.508619 0.336452 0.792531 0.149098 0.514859 0.84421 0.619245 0.53814 0.571788 
0.416092 0.706597 0.572354 0.398301 0.526701 0.750961 -0.598779 0.614263 0.51395 
-0.586566 0.625231 0.514807 -0.579802 0.613124 0.536572 -0.447717 0.710959 0.542299 
-0.335978 0.519657 0.785542 0.139301 0.314455 0.938996 0.11482 0.403793 0.907616 
0.185872 0.721111 0.66742 0.11643 0.525189 0.842983 0.220424 0.726226 0.65116 
0.159487 0.627051 0.762477 0.330347 0.731885 0.595999 0.299528 0.738173 0.60447 
0.27514 0.695559 0.663699 -0.41606 0.731951 0.539576 -0.338448 0.763563 0.549931 
-0.323553 0.670071 0.668071 -0.264135 0.814014 0.517314 -0.258269 0.537756 0.802568 
-0.105882 0.896496 0.430213 0.0632293 0.894107 0.443368 0.140851 0.824006 0.548794 
0.20943 0.555265 0.804873 0.164984 0.74891 0.641805 0.18748 0.560791 0.806452 
0.210006 0.722104 0.659138 0.192537 0.60761 0.770545 0.21736 0.717456 0.661824 
0.228695 0.711222 0.664727 0.222947 0.69321 0.685386 -0.134344 -0.332675 0.933423 
-0.0483613 -0.309353 0.949717 0.0277282 -0.275409 0.960927 0.0426538 -0.189895 0.980878 
0.0330272 -0.155624 0.987264 -0.124354 -0.287275 0.949742 -0.0332621 -0.450318 0.892248 
0.0447475 -0.551936 0.832685 0.22342 -0.59514 0.771941 0.419892 -0.509172 0.751289 
-0.315961 -0.258099 0.912992 -0.356804 -0.17806 0.917053 -0.111178 -0.280112 0.953508 
0.00754201 -0.238134 0.971203 0.0575618 -0.177256 0.98248 0.0533996 -0.109256 0.992578 
0.0528475 -0.154462 0.986584 0.0303719 -0.133933 0.990525 0.0586144 -0.160084 0.985362 
0.019812 -0.215789 0.976239 -0.14 -0.157782 0.977499 -0.120105 -0.167601 0.978512 
-0.192469 -0.213187 0.957866 -0.184125 -0.306082 0.93403 -0.00714665 -0.3496 0.936872 
0.158583 -0.37435 0.913626 0.482451 -0.45748 0.746962 0.399151 -0.456854 0.794961 
-0.35967 -0.0877647 0.928943 -0.335222 -0.0856424 0.938239 -0.15371 -0.121873 0.980571 
0.014558 -0.142862 0.989636 0.127307 -0.149855 0.980478 0.0638564 -0.139512 0.988159 
-0.00139381 -0.223073 0.974801 -0.00834658 -0.106723 0.994254 0.0180405 -0.296686 0.954805 
-0.104045 -0.229012 0.967847 -0.247762 -0.170122 0.953768 -0.192544 -0.142419 0.970898 
-0.0429348 -0.119497 0.991906 0.119339 -0.157885 0.98022 0.557999 -0.17821 0.810481 
0.389537 -0.140167 0.910282 -0.421416 0.00653409 0.906844 -0.359203 -0.00853573 0.93322 
-0.15717 -0.0370878 0.986875 -0.00902252 -0.0555259 0.998416 0.0742689 -0.0659151 0.995057 
-0.0155246 -0.0781642 0.99682 0.0508746 -0.0713433 0.996154 -0.0103988 -0.218669 0.975744 
-0.105896 -0.314585 0.943304 -0.00078254 -0.156381 0.987697 -0.128159 0.031406 0.991256 
-0.139875 0.0725378 0.987509 -0.0225315 0.0953422 0.99519 0.144435 0.112203 0.983132 
0.561696 0.109249 0.820099 0.378376 0.127915 0.916771 -0.447685 0.143286 0.882636 
-0.444019 0.187454 0.87619 -0.420082 0.136614 0.897144 -0.186233 0.0924041 0.978151 
-0.0143569 0.0523743 0.998524 0.0927107 0.048854 0.994494 0.0600038 0.0498988 0.99695 
-0.138314 0.0794477 0.987197 -0.226213 -0.133238 0.964922 0.0503394 0.0340774 0.998151 
0.25761 0.158337 0.953187 -0.0393135 0.230554 0.972265 -0.119884 0.271903 0.954828 
-0.0019099 0.318322 0.947981 0.148628 0.509081 0.847789 0.160579 0.328667 0.930694 
0.43888 0.338437 0.832373 0.381285 0.402237 0.832362 0.368339 0.322157 0.87209 
-0.382941 0.307613 0.871051 -0.255728 0.389307 0.884897 -0.22776 0.287702 0.930244 
-0.0578445 0.237133 0.969754 0.0636705 0.120271 0.990697 0.0107216 0.0179815 0.999781 
-0.136564 -0.0162934 0.990497 -0.0682257 0.147778 0.986665 0.187449 0.364115 0.912296 
0.148781 0.267217 0.952082 0.168922 0.237009 0.956709 0.0184688 0.27564 0.961084 
-0.00197064 0.249725 0.968315 0.0145176 0.410687 0.911661 -0.0217257 0.380446 0.924548 
0.137012 0.508269 0.85023 0.0718371 0.488473 0.869617 0.0539777 0.463573 0.884413 
-0.198475 0.391006 0.898734 -0.195586 0.390716 0.899493 -0.191143 0.383337 0.903613 
-0.186576 0.370736 0.909805 -0.119937 0.243728 0.962399 -0.0807037 0.086529 0.992975 
0.000936836 0.110959 0.993825 0.190353 0.450703 0.872142 0.142169 0.291177 0.946046 
0.162377 0.34702 0.923694 0.171952 0.370551 0.912756 0.170472 0.359852 0.917304 
-0.133928 0.467535 0.87377 -0.117456 0.474851 0.872193 -0.11779 0.461723 0.879169 
0.118778 0.495128 0.860662 0.0780352 0.506362 0.858783 0.0764783 0.47314 0.877662 

