# vtk DataFile Version 4.2
vtk output
ASCII
DATASET POLYDATA
POINTS 526 float
-43.4675 -8.01094 -24.7174 -43.4675 8.49399 -24.6772 -18.7101 -32.7683 -16.7896 
-35.215 -24.5159 -19.1214 -26.9625 -24.5159 -19.5169 -18.7101 -24.5159 -19.2673 
-10.4576 -24.5159 -18.3644 -51.7199 -16.2634 -17.3441 -43.4675 -8.22409 -24.6488 
-43.4675 -16.2634 -21.4542 -35.215 -16.2634 -22.5507 -26.9625 -16.2634 -21.6483 
-18.7101 -16.2634 -20.56 -10.4576 -16.2634 -19.6168 -2.20513 -16.2634 -17.4537 
-43.6517 -8.01094 -24.6488 -51.7199 -8.01094 -20.6577 -40.7735 -8.01094 -24.6488 
-43.4675 -6.62222 -24.6488 -35.215 -8.01094 -24.4869 -26.9625 -8.01094 -23.1769 
-18.7101 -8.01094 -21.142 -10.4576 -8.01094 -20.2917 -2.20513 -8.01094 -18.1383 
6.04733 -8.01094 -16.7387 -51.7199 0.241525 -21.5922 -43.4675 7.85638 -24.6488 
-43.4675 0.241525 -24.2882 -35.215 0.241525 -24.4725 -26.9625 0.241525 -23.4744 
-18.7101 0.241525 -20.913 -10.4576 0.241525 -20.4817 -2.20513 0.241525 -18.5937 
6.04733 0.241525 -17.9479 14.2998 0.241525 -18.0556 22.5523 0.241525 -16.7514 
30.8047 0.241525 -16.9423 39.0572 0.241525 -17.0588 -43.5787 8.49399 -24.6488 
-51.7199 8.49399 -21.3556 -42.741 8.49399 -24.6488 -43.4675 8.59872 -24.6488 
-35.215 8.49399 -24.3167 -26.9625 8.49399 -22.9041 -18.7101 8.49399 -20.5961 
-10.4576 8.49399 -19.2958 -2.20513 8.49399 -20.6742 6.04733 8.49399 -18.782 
14.2998 8.49399 -18.7624 22.5523 8.49399 -19.4932 30.8047 8.49399 -19.3952 
39.0572 8.49399 -18.4083 -51.7199 16.7465 -17.8058 -43.4675 16.7465 -21.95 
-35.215 16.7465 -22.8112 -26.9625 16.7465 -22.3298 -18.7101 16.7465 -21.009 
-10.4576 16.7465 -19.9583 -2.20513 16.7465 -19.2551 6.04733 16.7465 -18.9889 
14.2998 16.7465 -19.7509 22.5523 16.7465 -20.5773 30.8047 16.7465 -20.5234 
39.0572 16.7465 -19.0221 -43.4675 24.9989 -18.9496 -35.215 24.9989 -21.4065 
-26.9625 24.9989 -21.5735 -18.7101 24.9989 -21.7625 -10.4576 24.9989 -20.6395 
-2.20513 24.9989 -20.1633 6.04733 24.9989 -20.1034 14.2998 24.9989 -20.4926 
22.5523 24.9989 -20.7191 30.8047 24.9989 -20.276 39.0572 24.9989 -18.2069 
-35.215 33.2514 -17.4681 -26.9625 33.2514 -19.8499 -18.7101 33.2514 -20.4865 
-10.4576 33.2514 -20.2169 -2.20513 33.2514 -19.7111 6.04733 33.2514 -19.6865 
14.2998 33.2514 -19.8566 22.5523 33.2514 -19.1822 30.8047 33.2514 -17.2552 
-10.4576 41.5039 -16.6251 -2.20513 41.5039 -16.9479 6.04733 41.5039 -16.7707 
-18.7101 -33.5724 -16.3963 -18.7101 -41.0208 -11.636 -10.4576 -41.0208 -11.6796 
-2.20513 -41.0208 -10.6622 6.04733 -41.0208 -8.91918 -35.215 -28.5827 -16.3963 
-35.215 -32.7683 -12.4875 -22.4938 -32.7683 -16.3963 -26.9625 -31.771 -16.3963 
-26.9625 -32.7683 -15.8367 -12.9781 -32.7683 -16.3963 -10.4576 -32.1351 -16.3963 
-10.4576 -32.7683 -16.2269 -2.20513 -32.7683 -14.4182 6.04733 -32.7683 -12.3869 
14.2998 -32.7683 -10.357 22.5523 -32.7683 -8.92061 -51.7199 -17.4335 -16.3963 
-43.0841 -24.5159 -16.3963 -43.4675 -24.3076 -16.3963 -43.4675 -24.5159 -16.1967 
-2.69948 -24.5159 -16.3963 -2.20513 -23.5839 -16.3963 -2.20513 -24.5159 -16.2676 
6.04733 -24.5159 -13.7993 14.2998 -24.5159 -12.3377 22.5523 -24.5159 -11.2108 
30.8047 -24.5159 -10.7957 39.0572 -24.5159 -9.90002 -52.6698 -16.2634 -16.3963 
0.771674 -16.2634 -16.3963 6.04733 -9.29645 -16.3963 6.04733 -16.2634 -14.6432 
14.2998 -16.2634 -13.164 22.5523 -16.2634 -12.6842 30.8047 -16.2634 -12.8238 
39.0572 -16.2634 -12.6746 47.3097 -16.2634 -11.1354 -56.2876 -8.01094 -16.3963 
7.60131 -8.01094 -16.3963 14.2998 -4.11553 -16.3963 14.2998 -8.01094 -14.9247 
22.5523 -0.717607 -16.3963 22.5523 -8.01094 -13.886 30.8047 -1.58124 -16.3963 
30.8047 -8.01094 -14.6129 39.0572 -1.94702 -16.3963 39.0572 -8.01094 -14.4294 
47.3097 -8.01094 -13.1848 55.5621 -8.01094 -10.2059 -57.7084 0.241525 -16.3963 
-59.9724 0.241525 -10.1788 41.6379 0.241525 -16.3963 47.3097 0.241525 -14.8754 
55.5621 0.241525 -11.4499 -56.0804 8.49399 -16.3963 46.771 8.49399 -16.3963 
47.3097 8.49399 -16.2555 55.5621 8.49399 -12.0964 -53.0273 16.7465 -16.3963 
-51.7199 18.9933 -16.3963 46.3955 16.7465 -16.3963 47.3097 16.7465 -16.0146 
55.5621 16.7465 -9.0659 -46.7233 24.9989 -16.3963 -51.7199 24.9989 -8.25388 
-43.4675 28.3578 -16.3963 42.2343 24.9989 -16.3963 39.0572 28.3747 -16.3963 
47.3097 24.9989 -12.549 -37.04 33.2514 -16.3963 -43.4675 33.2514 -9.06238 
-35.215 34.3557 -16.3963 -26.9625 38.2158 -16.3963 -18.7101 40.1767 -16.3963 
14.2998 40.7181 -16.3963 22.5523 38.0393 -16.3963 33.0714 33.2514 -16.3963 
30.8047 34.5934 -16.3963 39.0572 33.2514 -12.1725 -26.9625 41.5039 -11.3207 
-12.3375 41.5039 -16.3963 -18.7101 41.5039 -15.1072 -10.4576 41.7868 -16.3963 
-2.20513 42.2104 -16.3963 9.96179 41.5039 -16.3963 6.04733 41.975 -16.3963 
14.2998 41.5039 -15.7383 22.5523 41.5039 -12.9162 -18.7101 -43.9095 -8.14384 
-10.4576 -44.6352 -8.14384 -2.20513 -43.7346 -8.14384 6.04733 -41.9308 -8.14384 
-35.215 -36.1898 -8.14384 -26.4653 -41.0208 -8.14384 -26.9625 -40.8051 -8.14384 
-26.9625 -41.0208 -7.5806 8.11476 -41.0208 -8.14384 14.2998 -36.9898 -8.14384 
14.2998 -41.0208 -4.99977 22.5523 -33.956 -8.14384 22.5523 -41.0208 -0.682254 
-40.321 -32.7683 -8.14384 -43.4675 -30.5906 -8.14384 25.6931 -32.7683 -8.14384 
30.8047 -29.9681 -8.14384 30.8047 -32.7683 -6.57083 39.0572 -27.6205 -8.14384 
39.0572 -32.7683 -3.52236 47.3097 -32.7683 -0.562139 -50.5042 -24.5159 -8.14384 
-51.7199 -23.1661 -8.14384 -51.7199 -24.5159 -0.937607 44.5916 -24.5159 -8.14384 
47.3097 -22.6753 -8.14384 47.3097 -24.5159 -7.02286 55.5621 -24.5159 -0.903015 
-56.626 -16.2634 -8.14384 53.5627 -16.2634 -8.14384 55.5621 -12.97 -8.14384 
55.5621 -16.2634 -6.88368 -59.677 -8.01094 -8.14384 -59.9724 -5.20327 -8.14384 
58.5899 -8.01094 -8.14384 63.8146 -8.01094 -3.034 -60.545 0.241525 -8.14384 
-59.9724 4.04647 -8.14384 60.7316 0.241525 -8.14384 63.8146 0.241525 -2.11028 
-59.3031 8.49399 -8.14384 59.6072 8.49399 -8.14384 -56.381 16.7465 -8.14384 
56.4069 16.7465 -8.14384 55.5621 18.1073 -8.14384 -51.7663 24.9989 -8.14384 
-51.7199 25.059 -8.14384 50.9346 24.9989 -8.14384 47.3097 28.7487 -8.14384 
-43.9676 33.2514 -8.14384 -43.4675 33.6668 -8.14384 -35.215 39.0897 -8.14384 
30.8047 40.6534 -8.14384 42.2384 33.2514 -8.14384 39.0572 35.6519 -8.14384 
-30.2217 41.5039 -8.14384 -26.9625 42.958 -8.14384 -18.7101 45.4499 -8.14384 
-10.4576 46.8522 -8.14384 -2.20513 47.2322 -8.14384 6.04733 47.0003 -8.14384 
14.2998 46.0626 -8.14384 28.9703 41.5039 -8.14384 22.5523 44.2185 -8.14384 
-26.9625 -43.4324 0.108624 -18.7101 -47.0974 0.108624 -10.4576 -48.8994 0.108624 
-2.20513 -49.14 0.108624 6.04733 -47.7621 0.108624 14.2998 -44.852 0.108624 
22.5523 -41.6023 0.108624 -31.2281 -41.0208 0.108624 -35.215 -38.592 0.108624 
24.4822 -41.0208 0.108624 30.8047 -39.1218 0.108624 39.0572 -35.8935 0.108624 
47.3097 -33.2153 0.108624 -51.7199 -24.6902 0.108624 -43.2548 -32.7683 0.108624 
-43.4675 -32.5997 0.108624 48.0486 -32.7683 0.108624 55.5621 -25.3288 0.108624 
-51.8736 -24.5159 0.108624 -51.7199 -24.5159 0.631161 56.2737 -24.5159 0.108624 
-56.8488 -16.2634 0.108624 62.7963 -16.2634 0.108624 63.8146 -13.5542 0.108624 
-59.4274 -8.01094 0.108624 -59.9724 -3.8505 0.108624 65.4517 -8.01094 0.108624 
-60.5016 0.241525 0.108624 -59.9724 3.98834 0.108624 -59.9724 0.241525 1.66952 
64.5225 0.241525 0.108624 63.8146 4.54452 0.108624 63.8146 0.241525 6.43328 
-59.2916 8.49399 0.108624 63.1549 8.49399 0.108624 -56.2584 16.7465 0.108624 
58.989 16.7465 0.108624 55.5621 21.6559 0.108624 -51.8168 24.9989 0.108624 
-51.7199 25.1222 0.108624 -51.7199 24.9989 0.345624 52.6912 24.9989 0.108624 
47.3097 30.0816 0.108624 -43.7611 33.2514 0.108624 -43.4675 33.486 0.108624 
-43.4675 33.2514 0.619508 -35.215 38.522 0.108624 30.8047 41.2335 0.108624 
43.3879 33.2514 0.108624 39.0572 36.314 0.108624 -28.1208 41.5039 0.108624 
-26.9625 41.9689 0.108624 -26.9625 41.5039 1.07471 -18.7101 44.6149 0.108624 
-18.7101 41.5039 5.67382 -10.4576 46.2485 0.108624 -10.4576 41.5039 8.08113 
-2.20513 46.8542 0.108624 6.04733 46.7961 0.108624 14.2998 46.2246 0.108624 
30.1579 41.5039 0.108624 22.5523 44.3472 0.108624 22.5523 41.5039 7.90358 
-26.9625 -42.0714 8.36109 -18.7101 -45.8308 8.36109 -10.4576 -48.0526 8.36109 
-2.20513 -48.6052 8.36109 6.04733 -47.5868 8.36109 14.2998 -45.4638 8.36109 
22.5523 -43.1114 8.36109 -28.765 -41.0208 8.36109 -35.215 -36.9155 8.36109 
-26.9625 -41.0208 10.1357 -18.7101 -41.0208 15.394 14.2998 -41.0208 14.9962 
28.5229 -41.0208 8.36109 22.5523 -41.0208 11.8298 30.8047 -40.2217 8.36109 
39.0572 -37.7059 8.36109 47.3097 -33.9633 8.36109 -40.7016 -32.7683 8.36109 
-43.4675 -30.361 8.36109 -35.215 -32.7683 13.7651 39.0572 -32.7683 14.9685 
49.2427 -32.7683 8.36109 47.3097 -32.7683 10.2921 55.5621 -27.5261 8.36109 
-49.1068 -24.5159 8.36109 -51.7199 -20.5823 8.36109 -43.4675 -24.5159 14.0756 
58.128 -24.5159 8.36109 55.5621 -24.5159 11.5208 -54.0883 -16.2634 8.36109 
-51.7199 -16.2634 11.4977 62.7511 -16.2634 8.36109 55.5621 -16.2634 16.4688 
63.8146 -12.1344 8.36109 -56.6996 -8.01094 8.36109 -51.7199 -8.01094 14.7377 
64.8766 -8.01094 8.36109 63.8146 -1.22447 8.36109 63.8146 -8.01094 9.85712 
-57.4432 0.241525 8.36109 -51.7199 0.241525 15.8931 63.5615 0.241525 8.36109 
-56.2595 8.49399 8.36109 -51.7199 8.49399 14.2415 61.2147 8.49399 8.36109 
55.5621 8.49399 14.6641 -53.2554 16.7465 8.36109 -51.7199 19.4093 8.36109 
-51.7199 16.7465 10.3963 56.8674 16.7465 8.36109 55.5621 18.4063 8.36109 
55.5621 16.7465 9.93969 -47.786 24.9989 8.36109 -43.4675 29.1403 8.36109 
-43.4675 24.9989 12.6589 -35.215 24.9989 16.3319 39.0572 24.9989 15.0532 
49.2937 24.9989 8.36109 47.3097 26.8056 8.36109 47.3097 24.9989 10.3359 
-37.2495 33.2514 8.36109 -35.215 34.413 8.36109 -35.215 33.2514 9.74974 
-26.9625 37.3243 8.36109 -26.9625 33.2514 12.3041 -18.7101 39.6128 8.36109 
-18.7101 33.2514 13.5259 -10.4576 41.2546 8.36109 -10.4576 33.2514 14.0511 
-2.20513 33.2514 14.1486 6.04733 33.2514 14.9393 14.2998 33.2514 15.5922 
22.5523 41.2874 8.36109 22.5523 33.2514 15.5191 30.8047 37.8142 8.36109 
30.8047 33.2514 13.0336 39.1249 33.2514 8.36109 39.0572 33.3009 8.36109 
[...]
POINT_DATA 526
SCALARS ImageScalars float
LOOKUP_TABLE default
0 0 0 0 0 0 0 0 0 
0 0 0 0 0 0 0 0 0 
0 0 0 0 0 0 0 0 0 
0 0 0 0 0 0 0 0 0 
0 0 0 0 0 0 0 0 0 
0 0 0 0 0 0 0 0 0 
0 0 0 0 0 0 0 0 0 
0 0 0 0 0 0 0 0 0 
0 0 0 0 0 0 0 0 0 
0 0 0 0 0 0 0 0 0 
0 0 0 0 0 0 0 0 0 
0 0 0 0 0 0 0 0 0 
0 0 0 0 0 0 0 0 0 
0 0 0 0 0 0 0 0 0 
0 0 0 0 0 0 0 0 0 
0 0 0 0 0 0 0 0 0 
0 0 0 0 0 0 0 0 0 
0 0 0 0 0 0 0 0 0 
0 0 0 0 0 0 0 0 0 
0 0 0 0 0 0 0 0 0 
0 0 0 0 0 0 0 0 0 
0 0 0 0 0 0 0 0 0 
0 0 0 0 0 0 0 0 0 
0 0 0 0 0 0 0 0 0 
0 0 0 0 0 0 0 0 0 
0 0 0 0 0 0 0 0 0 
0 0 0 0 0 0 0 0 0 
0 0 0 0 0 0 0 0 0 
0 0 0 0 0 0 0 0 0 
0 0 0 0 0 0 0 0 0 
0 0 0 0 0 0 0 0 0 
0 0 0 0 0 0 0 0 0 
0 0 0 0 0 0 0 0 0 
0 0 0 0 0 0 0 0 0 
0 0 0 0 0 0 0 0 0 
0 0 0 0 0 0 0 0 0 
0 0 0 0 0 0 0 0 0 
0 0 0 0 0 0 0 0 0 
0 0 0 0 0 0 0 0 0 
0 0 0 0 0 0 0 0 0 
0 0 0 0 0 0 0 0 0 
0 0 0 0 0 0 0 0 0 
0 0 0 0 0 0 0 0 0 
0 0 0 0 0 0 0 0 0 
0 0 0 0 0 0 0 0 0 
0 0 0 0 0 0 0 0 0 
0 0 0 0 0 0 0 0 0 
0 0 0 0 0 0 0 0 0 
0 0 0 0 0 0 0 0 0 
0 0 0 0 0 0 0 0 0 
0 0 0 0 0 0 0 0 0 
0 0 0 0 0 0 0 0 0 
0 0 0 0 0 0 0 0 0 
0 0 0 0 0 0 0 0 0 
0 0 0 0 0 0 0 0 0 
0 0 0 0 0 0 0 0 0 
0 0 0 0 0 0 0 0 0 
0 0 0 0 0 0 0 0 0 
0 0 0 0 
NORMALS Normals float
0.189214 0.148419 0.970654 0.119706 -0.125253 0.984877 0.0159164 0.377586 0.925838 
0.155485 0.488137 0.858805 0.00672586 0.319559 0.947543 -0.069091 0.217803 0.973544 
-0.170068 0.19579 0.965786 0.608805 0.475774 0.634819 0.190135 0.154763 0.969483 
0.253946 0.412438 0.874875 0.00606994 0.298827 0.954288 -0.115811 0.217499 0.969166 
-0.123247 0.108647 0.986411 -0.171563 0.112343 0.978747 -0.308529 0.107644 0.945104 
0.196279 0.149372 0.969104 0.565303 0.20421 0.799207 0.0999101 0.138636 0.985291 
0.182424 0.123339 0.975453 -0.0931693 0.113325 0.98918 -0.191032 0.106701 0.975767 
-0.177112 0.0217874 0.98395 -0.161028 0.051807 0.985589 -0.23226 0.065524 0.970444 
-0.175016 0.191651 0.965733 0.508801 0.0396044 0.859973 0.121762 -0.115783 0.985783 
0.148542 -0.00259269 0.988903 -0.0464565 -0.010785 0.998862 -0.214133 -0.0168525 0.976659 
-0.172176 -0.0329707 0.984514 -0.11509 -0.0576887 0.991679 -0.175395 0.174954 0.968828 
-0.0271384 0.131313 0.990969 -0.0706767 0.21635 0.973754 -0.062095 0.335511 0.939988 
0.0182385 0.284953 0.958368 -0.119881 0.227726 0.966317 0.124775 -0.125774 0.984181 
0.575303 -0.179579 0.797983 0.100032 -0.123396 0.987303 0.120665 -0.127014 0.984534 
-0.104782 -0.0995961 0.989495 -0.219358 -0.0653564 0.973453 -0.216059 0.0050033 0.976367 
0.000327794 -0.0278479 0.999612 -0.0327514 0.0103365 0.99941 -0.111223 0.0588145 0.992054 
0.0426016 0.0985806 0.994217 0.0385635 0.215527 0.975736 -0.065069 0.20491 0.976616 
-0.17905 0.119923 0.976504 0.652683 -0.399962 0.643456 0.246004 -0.283757 0.926803 
0.018687 -0.166936 0.985791 -0.103516 -0.0795787 0.991439 -0.147022 0.0710435 0.986579 
-0.102569 0.0794069 0.991551 -0.0583731 -0.0250302 0.997981 0.0303572 0.0812123 0.996234 
0.0946173 0.105322 0.989927 0.0464513 0.0732104 0.996234 -0.0904158 0.0499314 0.994652 
-0.248933 -0.00245731 0.968518 0.440371 -0.469324 0.765381 0.123586 -0.268332 0.955366 
0.0204138 -0.147901 0.988792 -0.0577862 -0.0260569 0.997989 -0.0951857 0.0144494 0.995355 
-0.0324094 0.0281326 0.999079 0.0199139 0.0396509 0.999015 0.0371184 0.00478191 0.999299 
-0.0116438 -0.0762626 0.99702 -0.128497 -0.18592 0.974126 -0.377821 -0.284092 0.881217 
0.37535 -0.598336 0.707889 0.141034 -0.400293 0.905469 0.0204399 -0.327486 0.944635 
-0.0437352 -0.216331 0.97534 -0.0340121 -0.1814 0.982821 0.00923237 -0.186311 0.982447 
-0.0262581 -0.237536 0.971024 -0.155157 -0.339854 0.927591 -0.285144 -0.474416 0.83284 
0.0743763 -0.61351 0.786177 0.0082649 -0.552366 0.83356 -0.055915 -0.566317 0.822289 
0.0239073 0.401829 0.915403 0.149929 0.716598 0.681182 -0.0478102 0.638387 0.768229 
-0.146841 0.586204 0.796745 -0.250016 0.565689 0.785804 0.2573 0.576272 0.775698 
0.390744 0.702392 0.594949 0.090497 0.44313 0.891878 0.157017 0.491944 0.856351 
0.185445 0.525136 0.830568 -0.0904844 0.354546 0.93065 -0.138912 0.332246 0.932907 
-0.13527 0.344454 0.929007 -0.213607 0.281891 0.935366 -0.236287 0.268566 0.933831 
-0.19496 0.351578 0.915633 -0.203202 0.446687 0.871309 0.619886 0.514318 0.592637 
0.400547 0.615996 0.678314 0.40784 0.616181 0.673786 0.414106 0.622928 0.663685 
-0.267041 0.175639 0.947544 -0.277541 0.166053 0.946254 -0.2729 0.17324 0.946316 
-0.228371 0.1259 0.965399 -0.151893 0.161868 0.975053 -0.0913466 0.223074 0.970512 
-0.0804913 0.341701 0.936355 -0.181239 0.410359 0.893732 0.648084 0.481362 0.59015 
-0.28973 0.129876 0.948256 -0.18862 0.187674 0.963951 -0.240925 0.173007 0.954999 
-0.11677 0.149768 0.981802 -0.0203836 0.157201 0.987356 0.0001558 0.217871 0.975978 
-0.105883 0.277378 0.954909 -0.273542 0.300261 0.913793 0.770144 0.240211 0.590912 
-0.178818 0.212352 0.960693 -0.130428 0.281129 0.950766 -0.183458 0.300054 0.936115 
-0.0578805 0.326265 0.943505 -0.0152003 0.239447 0.970791 0.025005 0.274056 0.961389 
0.0320906 0.237472 0.970864 -0.105509 0.23309 0.966714 -0.0790427 0.252151 0.964454 
-0.209294 0.236745 0.948761 -0.464688 0.237901 0.852917 0.823478 -0.0124191 0.567213 
0.97418 -0.0208446 0.224808 -0.176795 0.208152 0.961986 -0.308591 0.169094 0.936044 
-0.498353 0.0891055 0.862383 0.79635 -0.237698 0.556171 -0.316283 0.0732811 0.94583 
-0.327188 0.0692872 0.942416 -0.627916 -0.103749 0.771335 0.712629 -0.399588 0.576619 
0.682873 -0.445561 0.57893 -0.456795 -0.121079 0.881293 -0.488928 -0.142018 0.860686 
-0.750959 -0.390559 0.532471 0.565445 -0.53211 0.630183 0.79882 -0.57372 0.180919 
0.508486 -0.579316 0.637051 -0.466654 -0.346157 0.813886 -0.434236 -0.430951 0.791025 
-0.637397 -0.506379 0.580781 0.428923 -0.62938 0.648002 0.61927 -0.755701 0.213122 
0.398912 -0.642866 0.653906 0.23489 -0.665238 0.70872 0.13979 -0.626618 0.766686 
-0.129653 -0.604855 0.785711 -0.21581 -0.573227 0.790466 -0.341728 -0.516314 0.785265 
-0.307904 -0.530124 0.79004 -0.5356 -0.693677 0.481607 0.327002 -0.886661 0.326958 
0.0939024 -0.630325 0.770631 0.174619 -0.728931 0.661942 0.0761794 -0.625487 0.776507 
0.00890359 -0.586115 0.810179 -0.0961645 -0.605234 0.790218 -0.0579403 -0.588466 0.806443 
-0.143779 -0.668759 0.729444 -0.278787 -0.809488 0.516727 0.199655 0.824654 0.529229 
-0.00203594 0.772248 0.635318 -0.129712 0.694789 0.70742 -0.24588 0.606522 0.756092 
0.470806 0.781077 0.410195 0.383173 0.799147 0.463187 0.392592 0.796164 0.460428 
0.4007 0.808375 0.431242 -0.265899 0.583409 0.767418 -0.255298 0.489744 0.833651 
-0.336753 0.700505 0.629198 -0.207153 0.490874 0.846245 -0.306145 0.83803 0.451641 
0.520489 0.768042 0.373099 0.558264 0.756427 0.340823 -0.214271 0.46295 0.860096 
-0.176677 0.43385 0.883493 -0.244032 0.531299 0.811276 -0.198522 0.509314 0.83737 
-0.270562 0.735912 0.620669 -0.415396 0.818015 0.397865 0.686998 0.667292 0.287672 
0.72285 0.637707 0.266114 0.770501 0.637214 -0.0169497 -0.272476 0.460465 0.844825 
-0.311475 0.442746 0.840809 -0.339654 0.496147 0.799045 -0.674575 0.625199 0.392525 
0.865738 0.459585 0.198191 -0.474215 0.301335 0.827235 -0.507843 0.281287 0.814231 
-0.556459 0.326521 0.764027 0.967035 0.209037 0.14542 0.981355 0.130584 0.141035 
-0.563859 0.244988 0.788698 -0.888175 0.144633 0.436149 0.990742 -0.022493 0.133882 
0.982614 -0.118076 0.143275 -0.718237 0.0102595 0.695723 -0.963672 -0.117364 0.239921 
0.961063 -0.229399 0.154056 -0.798238 -0.201856 0.567512 0.901725 -0.403038 0.156371 
-0.773483 -0.401822 0.490166 -0.763446 -0.433091 0.479147 0.800263 -0.573239 0.175999 
0.799365 -0.574476 0.176049 -0.719591 -0.590333 0.365643 -0.668654 -0.667511 0.327614 
0.630934 -0.756933 0.170219 0.621969 -0.764501 0.169391 0.472968 -0.865721 0.163795 
-0.445811 -0.861105 0.244439 -0.596669 -0.753189 0.276936 -0.560055 -0.785593 0.263023 
0.395057 -0.906157 0.15103 0.348599 -0.924894 0.15182 0.235197 -0.955405 0.178561 
0.107386 -0.974577 0.196644 0.00900792 -0.978485 0.206123 -0.0703038 -0.973949 0.215593 
-0.164113 -0.956763 0.24015 -0.414266 -0.877778 0.240603 -0.304631 -0.919318 0.249107 
0.451431 0.889989 0.064264 0.305736 0.947147 0.0971496 0.113671 0.980719 0.15896 
-0.0603021 0.975774 0.210308 -0.237208 0.935362 0.262357 -0.334519 0.882801 0.329786 
-0.316557 0.855766 0.409214 0.496366 0.866281 0.0563748 0.54217 0.839226 0.0418452 
-0.305948 0.867971 0.39118 -0.282802 0.892211 0.352111 -0.327037 0.835858 0.440895 
-0.420692 0.834982 0.354715 0.773024 0.631689 -0.0583323 0.630994 0.775739 0.00867954 
0.633652 0.773587 0.00699467 -0.443018 0.822886 0.355801 -0.685893 0.646731 0.333602 
0.775827 0.628116 -0.0596898 0.775242 0.626563 -0.0801168 -0.69795 0.634815 0.331476 
0.909525 0.395255 -0.1286 -0.871238 0.396395 0.289507 -0.921668 0.292452 0.254953 
0.965948 0.20215 -0.161495 0.98123 0.0976443 -0.166292 -0.968444 0.0978418 0.229222 
0.985641 -0.00713913 -0.168702 0.979786 -0.109721 -0.167272 0.974825 -0.00923926 -0.222779 
-0.985382 -0.133855 0.105385 -0.970632 -0.222994 0.090261 -0.941094 -0.189562 -0.280016 
0.958361 -0.234221 -0.163358 -0.948654 -0.305922 0.0804218 0.907605 -0.389493 -0.156677 
-0.854021 -0.519915 0.0183595 -0.793941 -0.607592 -0.0221304 0.798151 -0.578493 -0.168228 
0.796062 -0.581294 -0.168471 0.795853 -0.579103 -0.1768 -0.73637 -0.673555 -0.0638929 
-0.647622 -0.756141 -0.0940089 0.60151 -0.774284 -0.196648 0.595881 -0.778385 -0.197593 
0.593523 -0.775292 -0.215993 0.435382 -0.869226 -0.234282 -0.427262 -0.894538 -0.131334 
-0.59483 -0.796172 -0.110847 -0.543625 -0.831493 -0.114417 0.338787 -0.900976 -0.271045 
0.32631 -0.904367 -0.275029 0.320634 -0.894098 -0.312702 0.244491 -0.925077 -0.290615 
0.206946 -0.821739 -0.530959 0.127467 -0.946952 -0.295016 0.114373 -0.739718 -0.663126 
0.0316241 -0.959911 -0.278514 -0.036854 -0.967048 -0.251913 -0.14767 -0.969424 -0.195985 
-0.414499 -0.900303 -0.132837 -0.279197 -0.948842 -0.14747 -0.237233 -0.828914 -0.506578 
0.454544 0.831702 -0.318845 0.315386 0.892961 -0.321174 0.15722 0.940941 -0.299852 
-0.027293 0.961795 -0.272408 -0.18196 0.949817 -0.254436 -0.269178 0.93524 -0.229933 
-0.301375 0.935217 -0.185854 0.474788 0.819962 -0.319749 0.541184 0.767809 -0.342915 
0.445229 0.802139 -0.397925 0.26544 0.661095 -0.70178 -0.220853 0.690811 -0.68848 
-0.30468 0.940947 -0.147611 -0.262461 0.867861 -0.42182 -0.307987 0.940582 -0.142999 
-0.356948 0.915072 -0.187702 -0.472917 0.855248 -0.211897 0.596491 0.719411 -0.355874 
0.629863 0.678282 -0.378426 0.490843 0.626063 -0.605903 -0.299292 0.66678 -0.682517 
-0.518062 0.826437 -0.220486 -0.476819 0.820576 -0.315117 -0.722176 0.65763 -0.21444 
0.716173 0.559566 -0.417112 0.769607 0.470295 -0.431889 0.565209 0.471728 -0.676766 
-0.781466 0.594885 -0.188211 -0.688221 0.596498 -0.412967 0.813388 0.372165 -0.447093 
0.72602 0.356952 -0.587775 -0.887275 0.32812 -0.32416 -0.50018 0.263781 -0.824766 
-0.91595 0.191106 -0.352866 0.866007 0.173218 -0.469071 0.655274 0.16981 -0.736058 
-0.927256 0.050759 -0.370972 -0.905631 -0.157294 -0.393817 -0.890714 0.0465914 -0.452169 
0.878027 -0.0242623 -0.477996 0.586859 -0.0206664 -0.809426 -0.895406 -0.200194 -0.397706 
0.856896 -0.212432 -0.469682 0.670993 -0.211861 -0.710551 -0.83418 -0.365714 -0.412793 
-0.544789 -0.334075 -0.769155 0.79466 -0.394171 -0.461676 0.759569 -0.452654 -0.467075 
0.741734 -0.390775 -0.545093 -0.726007 -0.534791 -0.432333 -0.707442 -0.553816 -0.439106 
-0.686817 -0.522367 -0.505386 0.646313 -0.587169 -0.487353 0.540203 -0.674028 -0.503853 
0.4883 -0.561522 -0.668024 0.217698 -0.45544 -0.863239 -0.33386 -0.496345 -0.801361 
-0.614525 -0.639359 -0.462146 -0.57356 -0.668929 -0.472824 -0.54556 -0.62964 -0.553098 
0.401983 -0.740945 -0.537969 0.361455 -0.757047 -0.54427 0.346387 -0.724323 -0.596131 
0.245093 -0.745921 -0.619299 0.17197 -0.640604 -0.748367 0.168908 -0.730538 -0.661652 
0.0846365 -0.536427 -0.839692 0.111659 -0.725875 -0.678703 0.0332212 -0.442571 -0.896118 
0.0486943 -0.416148 -0.907992 0.0800511 -0.411302 -0.907977 0.0327672 -0.407827 -0.912471 
-0.232912 -0.81474 -0.53099 -0.118804 -0.473552 -0.872716 -0.38038 -0.766349 -0.517707 
-0.318244 -0.606484 -0.728628 -0.505708 -0.718741 -0.477149 -0.505223 -0.719193 -0.476982 
-0.504786 -0.717713 -0.479665 0.098526 -0.731784 -0.674378 0.0494692 -0.740824 -0.669875 
0.0519186 -0.719545 -0.692502 0.0214462 -0.775913 -0.630475 0.0280079 -0.749212 -0.661738 
-0.205722 -0.818904 -0.535793 -0.051595 -0.818705 -0.571891 -0.0468706 -0.783663 -0.619415 
0.12652 0.602213 -0.788246 -0.0181266 0.598358 -0.801024 -0.143239 0.567873 -0.810557 
0.339278 0.539573 -0.770553 0.19036 0.594818 -0.780996 0.232747 0.577467 -0.782535 
0.119651 0.551013 -0.825874 -0.0209362 0.511409 -0.859082 -0.163061 0.567609 -0.806989 
-0.139047 0.53207 -0.835205 -0.182522 0.544425 -0.818711 -0.15133 0.507128 -0.848481 
-0.187999 0.512007 -0.838156 0.382872 0.50988 -0.770345 0.411997 0.454887 -0.789516 
0.298267 0.429503 -0.852387 0.142126 0.323575 -0.935467 0.0385594 0.2632 -0.96397 
-0.0391843 0.203808 -0.978226 -0.0688251 0.23525 -0.969495 -0.0957337 0.275647 -0.95648 
-0.130317 0.367204 -0.920966 -0.214705 0.514659 -0.830077 -0.167127 0.431639 -0.886429 
-0.24756 0.523365 -0.815355 -0.367312 0.369717 -0.853458 0.448357 0.371177 -0.813144 
0.463436 0.336055 -0.819935 0.322824 0.294477 -0.899482 0.171916 0.154472 -0.972925 
0.0902715 0.0719504 -0.993315 -0.0151715 0.0716788 -0.997312 -0.0533746 0.0334327 -0.998015 
-0.0503246 0.0320005 -0.99822 -0.0604083 0.0374041 -0.997473 -0.026432 0.094913 -0.995135 
-0.0485025 0.183188 -0.981881 -0.172822 0.256909 -0.950858 -0.368523 0.362816 -0.855895 
-0.357738 0.351281 -0.865231 0.47099 0.289987 -0.833112 0.421179 0.265732 -0.867176 
0.181903 0.0883674 -0.979338 0.0545438 -0.0173684 -0.99836 0.0565043 -0.0781508 -0.995339 
-0.00242503 0.0188205 -0.99982 -0.0812888 0.00913571 -0.996649 -0.0665936 -0.0112543 -0.997717 
-0.0346566 -0.0520113 -0.998045 0.0188086 -0.0224419 -0.999571 0.0172138 0.0360942 -0.9992 
-0.0403924 0.0972105 -0.994444 -0.487515 0.26051 -0.833345 -0.258673 0.217204 -0.941228 
-0.49465 0.247452 -0.83312 0.519653 0.137525 -0.843236 0.274542 0.0592246 -0.95975 
0.067592 -0.00165292 -0.997712 0.0106629 -0.0560276 -0.998372 0.123725 -0.132049 -0.983491 
0.0752823 -0.0140045 -0.997064 -0.0843212 -0.0718766 -0.993843 -0.10867 0.00798402 -0.994046 
-0.0738658 -0.0136828 -0.997174 0.0650319 -0.0376044 -0.997174 0.0689703 0.0147969 -0.997509 
-0.0112654 0.0331899 -0.999386 -0.201483 -0.012548 -0.979412 -0.546398 0.0439868 -0.83637 
-0.453397 0.0442313 -0.890211 0.515137 -0.0194354 -0.856887 0.253437 -0.01372 -0.967255 
0.063785 0.00277225 -0.99796 -0.0697773 -0.0112526 -0.997499 0.0857452 -0.0487524 -0.995124 
0.063188 -0.150816 -0.98654 -0.0569755 -0.0381573 -0.997646 -0.0017292 -0.0678703 -0.997693 
-0.0806479 -0.0835532 -0.993235 0.0474999 -0.0200753 -0.99867 0.0883352 -0.0259902 -0.995752 
-0.0662463 -0.0523942 -0.996427 -0.224803 -0.10812 -0.968387 -0.538926 -0.166689 -0.825696 
-0.501189 -0.222133 -0.836341 -0.498784 -0.167274 -0.850432 0.506185 -0.168486 -0.845807 
0.295485 -0.0941668 -0.950695 0.0692759 -0.0581618 -0.995901 -0.0436335 -0.0297467 -0.998605 
-0.00854596 -0.0136302 -0.999871 0.0887737 -0.197085 -0.976359 -0.00411246 -0.0363169 -0.999332 
-0.157478 -0.134277 -0.978351 -0.0236866 -0.0917247 -0.995503 0.117221 -0.00966723 -0.993059 
0.0362329 -0.0800998 -0.996128 -0.100527 -0.141105 -0.984877 -0.398631 -0.2694 -0.876651 
-0.288867 -0.190057 -0.938314 0.432566 -0.329754 -0.839136 0.407939 -0.35736 -0.840166 
0.402507 -0.322451 -0.856746 0.209363 -0.433373 -0.876559 0.132857 -0.223134 -0.965692 
-0.02309 -0.156855 -0.987352 -0.0736528 -0.125103 -0.989406 0.0219351 -0.185614 -0.982378 
0.0108573 -0.24707 -0.968937 -0.0572754 -0.143117 -0.988047 0.0459378 -0.0232747 -0.998673 
0.065814 -0.0814708 -0.9945 -0.0396576 -0.174194 -0.983913 -0.263963 -0.406846 -0.874528 
-0.170659 -0.261917 -0.949881 -0.413036 -0.370134 -0.832107 -0.412181 -0.370867 -0.832205 
-0.411643 -0.369719 -0.832981 0.182328 -0.437994 -0.880294 0.0807136 -0.429319 -0.899539 
0.0644472 -0.385585 -0.920419 -0.00737561 -0.353646 -0.93535 -0.0355502 -0.297488 -0.954063 
-0.0258511 -0.264746 -0.963972 -0.0309406 -0.248315 -0.968185 0.046327 -0.309543 -0.949756 
0.046128 -0.294434 -0.954558 0.0690346 -0.285096 -0.95601 0.0602318 -0.211101 -0.975607 
0.0415177 -0.303806 -0.951829 0.0432247 -0.164364 -0.985452 -0.0867918 -0.374197 -0.923279 
-0.0402657 -0.215137 -0.975753 -0.222973 -0.388882 -0.893898 -0.19795 -0.37813 -0.904341 
-0.170767 -0.335959 -0.926267 
