# vtk DataFile Version 4.2
vtk output
ASCII
DATASET POLYDATA
POINTS 542 float
-28.0807 -33.6449 -21.4782 -19.3013 -33.6449 -22.8968 -10.522 -33.6449 -22.1878 
-45.6393 -24.8656 -20.9614 -36.86 -24.8656 -23.8224 -28.0807 -24.8656 -25.0012 
-19.3013 -24.8656 -25.0687 -10.522 -24.8656 -24.6564 -1.74269 -24.8656 -23.2334 
-54.4187 -16.0862 -21.0811 -45.6393 -16.0862 -26.4269 -36.86 -16.0862 -27.067 
-28.0807 -16.0862 -26.9857 -19.3013 -16.0862 -26.1909 -10.522 -16.0862 -25.7848 
-1.74269 -16.0862 -25.9079 7.03664 -16.0862 -24.3264 15.816 -16.0862 -21.5932 
-54.4187 -7.30691 -25.0094 -45.6393 -7.30691 -27.9942 -36.86 -7.30691 -28.5597 
-28.0807 -7.30691 -27.7454 -19.3013 -7.30691 -26.7157 -10.522 -7.30691 -26.7158 
-1.74269 -7.30691 -25.8857 7.03664 -7.30691 -26.4338 15.816 -7.30691 -24.89 
24.5953 -7.30691 -21.7987 -54.4187 1.47242 -26.3961 -45.6393 1.47242 -28.7144 
-36.86 1.47242 -28.7391 -28.0807 1.47242 -27.6068 -19.3013 1.47242 -26.2163 
-10.522 1.47242 -27.4015 -1.74269 1.47242 -26.0339 7.03664 1.47242 -25.676 
15.816 1.47242 -24.5741 24.5953 1.47242 -22.5608 33.3746 1.47242 -22.014 
42.154 1.47242 -20.4553 -54.4187 10.2518 -25.582 -45.6393 10.2518 -27.8958 
-36.86 10.2518 -27.844 -28.0807 10.2518 -26.5212 -19.3013 10.2518 -25.0606 
-10.522 10.2518 -26.5006 -1.74269 10.2518 -27.4199 7.03664 10.2518 -25.504 
15.816 10.2518 -23.796 24.5953 10.2518 -22.8428 33.3746 10.2518 -23.0153 
42.154 10.2518 -22.0282 -54.4187 19.0311 -22.5425 -45.6393 19.0311 -26.9832 
-36.86 19.0311 -26.48 -28.0807 19.0311 -25.2831 -19.3013 19.0311 -23.9716 
-10.522 19.0311 -24.8812 -1.74269 19.0311 -25.4824 7.03664 19.0311 -24.4239 
15.816 19.0311 -23.5513 24.5953 19.0311 -23.053 33.3746 19.0311 -22.9279 
42.154 19.0311 -21.6964 -45.6393 27.8104 -22.427 -36.86 27.8104 -23.0952 
-28.0807 27.8104 -22.48 -19.3013 27.8104 -21.0825 -10.522 27.8104 -20.6642 
-1.74269 27.8104 -20.792 7.03664 27.8104 -20.6565 15.816 27.8104 -21.0292 
24.5953 27.8104 -21.0159 33.3746 27.8104 -20.6699 -28.0807 -35.6814 -19.9746 
-28.0807 -42.4242 -12.6154 -19.3013 -38.6892 -19.9746 -19.3013 -42.4242 -16.6807 
-10.522 -38.1832 -19.9746 -10.522 -42.4242 -17.3666 -1.74269 -42.4242 -15.7348 
7.03664 -42.4242 -13.3759 -45.6393 -26.1605 -19.9746 -32.578 -33.6449 -19.9746 
-36.86 -31.4526 -19.9746 -36.86 -33.6449 -17.9621 -1.77001 -33.6449 -19.9746 
-1.74269 -33.6267 -19.9746 -1.74269 -33.6449 -19.9677 7.03664 -33.6449 -17.2286 
15.816 -33.6449 -14.9861 24.5953 -33.6449 -13.0255 -47.3388 -24.8656 -19.9746 
-54.4187 -17.8837 -19.9746 -54.4187 -24.8656 -11.4715 6.14626 -24.8656 -19.9746 
7.03664 -24.1293 -19.9746 7.03664 -24.8656 -19.6109 15.816 -19.6818 -19.9746 
15.816 -24.8656 -17.9199 24.5953 -24.8656 -16.6425 33.3746 -24.8656 -13.4105 
-55.6532 -16.0862 -19.9746 23.3109 -16.0862 -19.9746 24.5953 -15.0292 -19.9746 
24.5953 -16.0862 -19.7118 33.3746 -16.0862 -16.9771 42.154 -16.0862 -13.3312 
-60.0129 -7.30691 -19.9746 33.2092 -7.30691 -19.9746 33.3746 -7.16102 -19.9746 
33.3746 -7.30691 -19.9389 42.154 -0.148915 -19.9746 42.154 -7.30691 -17.6348 
50.9333 -7.30691 -13.7983 -61.2928 1.47242 -19.9746 -63.198 1.47242 -12.0139 
43.6932 1.47242 -19.9746 50.9333 1.47242 -17.6113 59.7126 1.47242 -12.7732 
-60.4979 10.2518 -19.9746 50.0809 10.2518 -19.9746 50.9333 10.2518 -19.7384 
59.7126 10.2518 -15.2619 -57.2242 19.0311 -19.9746 -54.4187 24.085 -19.9746 
49.2177 19.0311 -19.9746 42.154 25.8514 -19.9746 50.9333 19.0311 -19.5602 
59.7126 19.0311 -16.1467 -50.8267 27.8104 -19.9746 -54.4187 27.8104 -16.3619 
-45.6393 31.151 -19.9746 -36.86 32.1142 -19.9746 -28.0807 31.2539 -19.9746 
-19.3013 29.3306 -19.9746 -10.522 28.6459 -19.9746 -1.74269 28.7752 -19.9746 
7.03664 28.6656 -19.9746 15.816 29.2002 -19.9746 24.5953 29.3174 -19.9746 
38.3824 27.8104 -19.9746 33.3746 28.8546 -19.9746 42.154 27.8104 -19.4061 
50.9333 27.8104 -16.4301 -45.6393 36.5897 -12.6866 -36.86 36.5897 -15.8416 
-28.0807 36.5897 -13.9246 24.5953 36.5897 -11.4299 33.3746 36.5897 -12.4675 
-28.0807 -43.2941 -11.1952 -19.3013 -46.463 -11.1952 -10.522 -47.7255 -11.1952 
-1.74269 -47.4049 -11.1952 7.03664 -45.2673 -11.1952 -29.8289 -42.4242 -11.1952 
-36.86 -38.5151 -11.1952 14.2009 -42.4242 -11.1952 15.816 -41.4989 -11.1952 
15.816 -42.4242 -10.564 24.5953 -36.8195 -11.1952 24.5953 -42.4242 -5.985 
-54.4187 -25.0201 -11.1952 -44.2081 -33.6449 -11.1952 -45.6393 -32.644 -11.1952 
-45.6393 -33.6449 -4.70817 28.6025 -33.6449 -11.1952 33.3746 -29.1713 -11.1952 
33.3746 -33.6449 -8.37451 -54.5657 -24.8656 -11.1952 38.5276 -24.8656 -11.1952 
42.154 -21.1245 -11.1952 42.154 -24.8656 -9.3545 -60.3203 -16.0862 -11.1952 
46.5241 -16.0862 -11.1952 50.9333 -12.0067 -11.1952 50.9333 -16.0862 -8.80735 
-62.8837 -7.30691 -11.1952 -63.198 -1.56453 -11.1952 55.1508 -7.30691 -11.1952 
59.7126 -1.77369 -11.1952 59.7126 -7.30691 -7.72085 -63.3633 1.47242 -11.1952 
-63.198 3.17712 -11.1952 -63.198 1.47242 -9.4657 61.506 1.47242 -11.1952 
-62.5121 10.2518 -11.1952 64.407 10.2518 -11.1952 68.492 10.2518 -5.52795 
-60.5716 19.0311 -11.1952 64.2596 19.0311 -11.1952 59.7126 27.0215 -11.1952 
68.492 19.0311 -3.18472 -57.4267 27.8104 -11.1952 -54.4187 31.5449 -11.1952 
-19.3013 36.4446 -11.1952 -10.522 35.4309 -11.1952 -1.74269 35.8799 -11.1952 
7.03664 35.893 -11.1952 15.816 35.8674 -11.1952 42.154 36.3406 -11.1952 
58.901 27.8104 -11.1952 50.9333 33.2644 -11.1952 59.7126 27.8104 -10.2235 
-47.3898 36.5897 -11.1952 -45.6393 37.4629 -11.1952 -36.86 39.5441 -11.1952 
-19.93 36.5897 -11.1952 -28.0807 38.4123 -11.1952 -19.3013 36.5897 -10.8672 
-10.522 36.5897 -8.56711 -1.74269 36.5897 -9.75789 7.03664 36.5897 -9.74621 
23.1476 36.5897 -11.1952 15.816 36.5897 -9.40217 24.5953 36.726 -11.1952 
40.3808 36.5897 -11.1952 33.3746 37.4621 -11.1952 42.154 36.5897 -10.5215 
50.9333 36.5897 -3.83027 -28.0807 -44.5261 -2.4159 -19.3013 -47.9968 -2.4159 
-10.522 -50.1163 -2.4159 -1.74269 -51.1404 -2.4159 7.03664 -50.9372 -2.4159 
15.816 -48.8208 -2.4159 24.5953 -44.9468 -2.4159 -45.6393 -33.968 -2.4159 
-32.0942 -42.4242 -2.4159 -36.86 -39.7772 -2.4159 -28.0807 -42.4242 6.14199 
28.4304 -42.4242 -2.4159 33.3746 -39.0649 -2.4159 -46.0698 -33.6449 -2.4159 
-54.4187 -26.3771 -2.4159 -45.6393 -33.6449 -0.949183 40.4412 -33.6449 -2.4159 
42.154 -32.1783 -2.4159 42.154 -33.6449 0.0193331 -55.7587 -24.8656 -2.4159 
-54.4187 -24.8656 3.85165 50.2517 -24.8656 -2.4159 50.9333 -24.1611 -2.4159 
50.9333 -24.8656 -1.56212 -60.96 -16.0862 -2.4159 58.4953 -16.0862 -2.4159 
59.7126 -14.4651 -2.4159 59.7126 -16.0862 -0.66844 -62.5867 -7.30691 -2.4159 
64.8225 -7.30691 -2.4159 -62.5263 1.47242 -2.4159 68.0515 1.47242 -2.4159 
68.492 3.29142 -2.4159 68.492 1.47242 -0.21036 -61.6264 10.2518 -2.4159 
70.1178 10.2518 -2.4159 -60.2944 19.0311 -2.4159 68.8758 19.0311 -2.4159 
68.492 19.8264 -2.4159 -58.6079 27.8104 -2.4159 -54.4187 33.9543 -2.4159 
63.8336 27.8104 -2.4159 59.7126 31.9935 -2.4159 -51.7129 36.5897 -2.4159 
-45.6393 40.2927 -2.4159 -36.86 41.8259 -2.4159 -28.0807 41.9018 -2.4159 
-19.3013 39.8389 -2.4159 -10.522 38.9996 -2.4159 -1.74269 39.745 -2.4159 
7.03664 39.7086 -2.4159 15.816 39.1582 -2.4159 24.5953 39.6376 -2.4159 
33.3746 40.6486 -2.4159 42.154 39.0602 -2.4159 51.9447 36.5897 -2.4159 
50.9333 37.1139 -2.4159 50.9333 36.5897 4.989 -19.3013 -46.0419 6.36343 
-10.522 -48.4658 6.36343 -1.74269 -50.0203 6.36343 7.03664 -50.2695 6.36343 
15.816 -48.8727 6.36343 24.5953 -45.6888 6.36343 -36.86 -37.6522 6.36343 
-27.9434 -42.4242 6.36343 -28.0807 -42.3631 6.36343 -19.3013 -42.4242 12.4513 
31.991 -42.4242 6.36343 24.5953 -42.4242 12.993 33.3746 -41.8019 6.36343 
42.154 -36.6483 6.36343 -43.0218 -33.6449 6.36343 -45.6393 -31.8599 6.36343 
-36.86 -33.6449 12.0643 47.1906 -33.6449 6.36343 50.9333 -30.7308 6.36343 
-53.7477 -24.8656 6.36343 -54.4187 -24.0112 6.36343 57.6913 -24.8656 6.36343 
59.7126 -22.4761 6.36343 -59.1709 -16.0862 6.36343 -54.4187 -16.0862 14.2501 
64.2077 -16.0862 6.36343 -60.57 -7.30691 6.36343 67.6873 -7.30691 6.36343 
68.492 -4.03026 6.36343 -60.119 1.47242 6.36343 69.7062 1.47242 6.36343 
68.492 1.47242 9.60536 -59.4628 10.2518 6.36343 70.7803 10.2518 6.36343 
68.492 10.2518 11.459 -58.4496 19.0311 6.36343 69.1105 19.0311 6.36343 
68.492 20.1719 6.36343 68.492 19.0311 7.57514 -57.6922 27.8104 6.36343 
-54.4187 32.6284 6.36343 -54.4187 27.8104 12.9958 50.9333 36.4834 6.36343 
62.2681 27.8104 6.36343 59.7126 30.4759 6.36343 59.7126 27.8104 10.6307 
-51.1475 36.5897 6.36343 -45.6393 40.6554 6.36343 -36.86 42.6853 6.36343 
-28.0807 42.7721 6.36343 -19.3013 40.6681 6.36343 -10.522 39.7772 6.36343 
-10.522 36.5897 13.286 -1.74269 40.7737 6.36343 -1.74269 36.5897 15.0726 
7.03664 41.1742 6.36343 15.816 40.6998 6.36343 24.5953 40.6916 6.36343 
33.3746 40.9541 6.36343 50.6536 36.5897 6.36343 42.154 39.2149 6.36343 
42.154 36.5897 12.116 -10.522 -42.7763 15.1428 -1.74269 -43.9094 15.1428 
7.03664 -44.0119 15.1428 15.816 -42.7237 15.1428 -28.0807 -35.7228 15.1428 
-11.9597 -42.4242 15.1428 -19.3013 -40.1725 15.1428 -10.522 -42.4242 15.4897 
-1.74269 -42.4242 16.4688 7.03664 -42.4242 16.4975 17.4731 -42.4242 15.1428 
15.816 -42.4242 15.4099 24.5953 -40.978 15.1428 33.3746 -38.0509 15.1428 
42.154 -35.2716 15.1428 -45.6393 -25.3308 15.1428 -31.9914 -33.6449 15.1428 
-36.86 -30.5521 15.1428 -28.0807 -33.6449 16.7809 -19.3013 -33.6449 19.6867 
-10.522 -33.6449 21.2409 -1.74269 -33.6449 21.4925 7.03664 -33.6449 21.3439 
15.816 -33.6449 20.8457 24.5953 -33.6449 20.4873 33.3746 -33.6449 19.1337 
45.0586 -33.6449 15.1428 42.154 -33.6449 17.455 50.9333 -29.7106 15.1428 
-46.162 -24.8656 15.1428 -45.6393 -24.8656 15.4925 -36.86 -24.8656 18.7562 
-28.0807 -24.8656 20.5641 -19.3013 -24.8656 22.3008 -10.522 -24.8656 23.6248 
-1.74269 -24.8656 23.5943 7.03664 -24.8656 23.3985 15.816 -24.8656 23.5545 
33.3746 -24.8656 23.7942 42.154 -24.8656 22.9539 56.5449 -24.8656 15.1428 
50.9333 -24.8656 20.3245 59.7126 -20.4822 15.1428 -53.6292 -16.0862 15.1428 
-54.4187 -14.2159 15.1428 -45.6393 -16.0862 20.1428 -36.86 -16.0862 22.1982 
[...]
POINT_DATA 542
SCALARS ImageScalars float
LOOKUP_TABLE default
0 0 0 0 0 0 0 0 0 
0 0 0 0 0 0 0 0 0 
0 0 0 0 0 0 0 0 0 
0 0 0 0 0 0 0 0 0 
0 0 0 0 0 0 0 0 0 
0 0 0 0 0 0 0 0 0 
0 0 0 0 0 0 0 0 0 
0 0 0 0 0 0 0 0 0 
0 0 0 0 0 0 0 0 0 
0 0 0 0 0 0 0 0 0 
0 0 0 0 0 0 0 0 0 
0 0 0 0 0 0 0 0 0 
0 0 0 0 0 0 0 0 0 
0 0 0 0 0 0 0 0 0 
0 0 0 0 0 0 0 0 0 
0 0 0 0 0 0 0 0 0 
0 0 0 0 0 0 0 0 0 
0 0 0 0 0 0 0 0 0 
0 0 0 0 0 0 0 0 0 
0 0 0 0 0 0 0 0 0 
0 0 0 0 0 0 0 0 0 
0 0 0 0 0 0 0 0 0 
0 0 0 0 0 0 0 0 0 
0 0 0 0 0 0 0 0 0 
0 0 0 0 0 0 0 0 0 
0 0 0 0 0 0 0 0 0 
0 0 0 0 0 0 0 0 0 
0 0 0 0 0 0 0 0 0 
0 0 0 0 0 0 0 0 0 
0 0 0 0 0 0 0 0 0 
0 0 0 0 0 0 0 0 0 
0 0 0 0 0 0 0 0 0 
0 0 0 0 0 0 0 0 0 
0 0 0 0 0 0 0 0 0 
0 0 0 0 0 0 0 0 0 
0 0 0 0 0 0 0 0 0 
0 0 0 0 0 0 0 0 0 
0 0 0 0 0 0 0 0 0 
0 0 0 0 0 0 0 0 0 
0 0 0 0 0 0 0 0 0 
0 0 0 0 0 0 0 0 0 
0 0 0 0 0 0 0 0 0 
0 0 0 0 0 0 0 0 0 
0 0 0 0 0 0 0 0 0 
0 0 0 0 0 0 0 0 0 
0 0 0 0 0 0 0 0 0 
0 0 0 0 0 0 0 0 0 
0 0 0 0 0 0 0 0 0 
0 0 0 0 0 0 0 0 0 
0 0 0 0 0 0 0 0 0 
0 0 0 0 0 0 0 0 0 
0 0 0 0 0 0 0 0 0 
0 0 0 0 0 0 0 0 0 
0 0 0 0 0 0 0 0 0 
0 0 0 0 0 0 0 0 0 
0 0 0 0 0 0 0 0 0 
0 0 0 0 0 0 0 0 0 
0 0 0 0 0 0 0 0 0 
0 0 0 0 0 0 0 0 0 
0 0 0 0 0 0 0 0 0 
0 0 
NORMALS Normals float
0.221598 0.502348 0.835787 0.0290003 0.380977 0.92413 -0.153383 0.358563 0.920818 
0.380069 0.568397 0.729707 0.197549 0.421241 0.885172 0.0640637 0.271609 0.960273 
-0.0196994 0.185281 0.982488 -0.0971948 0.190896 0.976786 -0.256306 0.320197 0.91202 
0.600117 0.428163 0.675674 0.2725 0.340691 0.899818 0.025042 0.248812 0.968228 
-0.049785 0.150046 0.987425 -0.0673941 0.0917357 0.9935 -0.015888 0.113835 0.993373 
-0.0707888 0.141419 0.987416 -0.232381 0.358236 0.904249 -0.236285 0.380844 0.893939 
0.514912 0.262297 0.816128 0.180066 0.114525 0.976965 -0.0155014 0.0905116 0.995775 
-0.103651 0.0342732 0.994023 -0.058435 0.00124304 0.99829 -0.0474013 0.0922462 0.994607 
-0.0159547 0.00681716 0.999849 -0.0499878 0.0598781 0.996953 -0.260981 0.14878 0.95381 
-0.259734 0.153075 0.953471 0.465829 0.028862 0.884404 0.122515 -0.00590015 0.992449 
-0.0625467 -0.0403598 0.997226 -0.143096 -0.0687818 0.987316 -0.0114263 -0.0936845 0.995536 
-0.00678765 -0.00850125 0.999941 -0.102311 0.0889676 0.990766 -0.0775923 -0.0521645 0.99562 
-0.183315 -0.062866 0.981042 -0.135543 0.0573771 0.989109 -0.115745 0.168307 0.978916 
-0.232391 0.226117 0.945973 0.48161 -0.204003 0.852311 0.117477 -0.0901499 0.988975 
-0.0772963 -0.124554 0.989197 -0.156298 -0.127271 0.979476 -0.00749735 -0.126416 0.991949 
0.139294 -0.145431 0.979514 -0.0610595 -0.0287586 0.99772 -0.199752 -0.067734 0.977502 
-0.150158 -0.0545362 0.987157 -0.0436823 0.0277677 0.998659 -0.0451954 0.0512955 0.99766 
-0.176295 0.0677115 0.982006 0.578501 -0.370081 0.726895 0.184523 -0.292493 0.938296 
-0.0892749 -0.241163 0.96637 -0.139203 -0.217643 0.966051 -0.0215805 -0.211538 0.977131 
0.0840067 -0.298949 0.950564 -0.0255346 -0.333815 0.942293 -0.105612 -0.245021 0.963748 
-0.0754997 -0.145421 0.986485 -0.0350655 -0.0952498 0.994836 -0.0733813 -0.119872 0.990074 
-0.181207 -0.139882 0.973446 0.222135 -0.519126 0.825327 0.00363696 -0.490123 0.871646 
-0.104852 -0.472129 0.875271 -0.096911 -0.498958 0.86119 -0.0160798 -0.592649 0.8053 
-0.000257028 -0.6094 0.792863 0.0135044 -0.560075 0.828332 0.018379 -0.499741 0.86598 
-0.0195057 -0.442521 0.896546 -0.0857842 -0.438134 0.894807 0.245558 0.56163 0.790109 
0.365767 0.840233 0.400279 0.0917176 0.555351 0.826543 0.162303 0.745246 0.646735 
-0.121492 0.488313 0.86417 -0.0544798 0.655608 0.753134 -0.189261 0.565392 0.802815 
-0.246835 0.521233 0.816939 0.409518 0.59599 0.690718 0.29465 0.564132 0.771322 
0.318375 0.567321 0.759464 0.388853 0.653254 0.649656 -0.250472 0.368457 0.895267 
-0.250807 0.368382 0.895204 -0.250747 0.368453 0.895191 -0.263983 0.317868 0.910644 
-0.208779 0.364423 0.907528 -0.296571 0.437625 0.848841 0.439755 0.586891 0.679834 
0.613591 0.479441 0.62741 0.708138 0.654733 0.264321 -0.2874 0.350512 0.891371 
-0.286111 0.355584 0.889776 -0.284998 0.350498 0.892147 -0.196686 0.36221 0.911108 
-0.153365 0.335078 0.929624 -0.224231 0.338592 0.913825 -0.361688 0.395927 0.844052 
0.635897 0.442355 0.632421 -0.231749 0.294543 0.927112 -0.235379 0.265326 0.934986 
-0.232513 0.28058 0.931243 -0.314723 0.330755 0.889691 -0.387001 0.393177 0.834051 
0.799149 0.249208 0.547043 -0.215286 0.262181 0.940698 -0.21293 0.262727 0.941082 
-0.21468 0.264361 0.940226 -0.243177 0.249049 0.937464 -0.299544 0.359588 0.883725 
-0.425296 0.425035 0.799042 0.88264 0.0205185 0.469601 0.99624 -0.018102 0.0847207 
-0.257916 0.234449 0.93729 -0.38073 0.280789 0.881023 -0.580662 0.292254 0.759881 
0.848102 -0.196455 0.492065 -0.322618 0.0993257 0.941303 -0.339361 0.10331 0.934966 
-0.564054 0.161916 0.809708 0.708879 -0.371749 0.599411 0.596185 -0.478517 0.644659 
-0.261124 -0.142703 0.954699 -0.19064 -0.343296 0.919676 -0.282586 -0.146698 0.947958 
-0.568566 -0.192908 0.7997 0.437857 -0.543538 0.716134 0.668824 -0.546516 0.503979 
0.235295 -0.622485 0.746424 0.00526937 -0.594708 0.803924 -0.106586 -0.59839 0.794084 
-0.105324 -0.566033 0.817627 -0.021323 -0.621828 0.782863 0.0010725 -0.639206 0.769035 
0.0174338 -0.591931 0.8058 0.0265072 -0.566943 0.823331 -0.0119539 -0.515503 0.856805 
-0.145697 -0.419018 0.896212 -0.0795646 -0.478443 0.874506 -0.193189 -0.414154 0.889469 
-0.395546 -0.508232 0.765012 0.322166 -0.841067 0.434529 0.0290534 -0.786521 0.616879 
-0.163244 -0.814458 0.556785 0.0804248 -0.894219 0.440345 -0.021847 -0.844629 0.534906 
0.379476 0.863282 0.33278 0.228803 0.894757 0.383484 0.0504428 0.872927 0.485236 
-0.101998 0.788507 0.60651 -0.23043 0.63526 0.73712 0.402646 0.855915 0.324478 
0.496083 0.812791 0.305407 -0.272337 0.560976 0.781753 -0.270508 0.545599 0.793188 
-0.285545 0.5865 0.757946 -0.345082 0.510509 0.787591 -0.455691 0.738784 0.496533 
0.709328 0.656805 0.255856 0.55436 0.77872 0.293735 0.567156 0.771173 0.289181 
0.589111 0.806574 0.0488657 -0.383122 0.4814 0.788335 -0.418846 0.462744 0.781304 
-0.493047 0.559745 0.666026 0.71247 0.653656 0.255188 -0.42494 0.441143 0.790454 
-0.433258 0.433845 0.789978 -0.473771 0.484169 0.735609 0.889112 0.398586 0.224964 
-0.428018 0.433635 0.792944 -0.451736 0.454716 0.767573 -0.481032 0.483422 0.731376 
0.981729 0.156245 0.108608 0.996657 0.0399977 0.071237 -0.501762 0.447629 0.740178 
-0.586161 0.354973 0.728293 -0.602422 0.475596 0.641011 0.998393 -0.021285 0.052524 
0.997675 -0.0464194 0.049893 0.999584 -0.0278678 0.00743244 -0.628191 0.293731 0.720485 
0.987459 -0.151777 0.0434627 -0.698151 0.119907 0.705838 -0.902183 0.0589402 0.427308 
0.95789 -0.253186 0.135439 -0.773032 -0.217951 0.595751 -0.608289 -0.543097 0.578817 
-0.918616 -0.28704 0.271574 0.824547 -0.49744 0.269582 0.713791 -0.627559 0.310921 
-0.148482 -0.874935 0.460915 -0.027446 -0.8774 0.478975 0.023043 -0.86444 0.502208 
-0.000672367 -0.870248 0.492613 0.0414681 -0.893883 0.446378 -0.187012 -0.871459 0.453415 
-0.582315 -0.576297 0.573404 -0.383871 -0.739274 0.553279 -0.613095 -0.591265 0.523947 
0.394782 -0.836309 0.380441 0.330229 -0.858414 0.392524 0.046242 -0.92021 0.388683 
-0.150898 -0.874428 0.461092 -0.167636 -0.86092 0.480328 -0.149419 -0.880383 0.450111 
-0.0209467 -0.917317 0.397607 0.0259939 -0.888265 0.458596 -0.00733699 -0.891903 0.452167 
0.0749825 -0.897805 0.433963 0.0324092 -0.915747 0.400447 0.08186 -0.897748 0.432837 
-0.152161 -0.875957 0.457763 -0.0183012 -0.871428 0.490183 -0.186881 -0.886031 0.424293 
-0.358167 -0.912576 0.197284 0.422051 0.905677 -0.0402819 0.29896 0.954027 -0.0213196 
0.172601 0.984593 0.0280226 0.0465025 0.993864 0.100355 -0.120312 0.974692 0.188418 
-0.302462 0.911144 0.279882 -0.465166 0.828373 0.31212 0.589152 0.80737 -0.0324656 
0.464106 0.884805 -0.0415437 0.512753 0.857731 -0.0371809 0.400255 0.843141 -0.359039 
-0.489219 0.792881 0.363324 -0.520055 0.732103 0.439963 0.594147 0.803712 -0.032199 
0.751639 0.658875 -0.0303526 0.587076 0.805868 -0.076929 -0.528008 0.665328 0.527774 
-0.524337 0.653677 0.545689 -0.531762 0.72832 0.43218 0.781245 0.623208 -0.0356121 
0.746836 0.621712 -0.236031 -0.556497 0.569108 0.605333 -0.557705 0.564791 0.608258 
-0.570208 0.586061 0.575669 0.936392 0.34643 -0.0561832 -0.632943 0.492554 0.597306 
-0.649913 0.48993 0.581017 -0.690197 0.504379 0.518875 0.988942 0.0792159 -0.125374 
-0.750026 0.426881 0.505207 0.982735 -0.0538703 -0.177002 -0.881447 0.252916 0.398854 
-0.904681 0.205096 0.373481 -0.935736 0.230681 0.266803 0.978077 -0.122496 -0.168404 
-0.960511 0.0233919 0.277256 0.980219 -0.158142 -0.119001 -0.925734 -0.289336 0.24352 
-0.917875 -0.31565 0.240561 0.923018 -0.384672 0.00801686 0.777604 -0.627235 0.0436823 
-0.758713 -0.63659 0.138232 -0.62295 -0.77193 0.126717 0.627751 -0.77316 0.0902939 
0.347578 -0.922794 0.166253 0.0830527 -0.979971 0.180992 -0.109736 -0.969028 0.221228 
-0.16196 -0.962274 0.218628 -0.0053262 -0.9739 0.226916 0.0398708 -0.966616 0.253108 
-0.032759 -0.960389 0.276732 -0.00366854 -0.965857 0.259051 0.0824583 -0.973726 0.212268 
-0.0320654 -0.982522 0.183362 -0.18523 -0.971371 0.148758 -0.378029 -0.915471 0.137867 
-0.353241 -0.925367 0.137541 -0.387158 -0.893362 -0.228066 0.308251 0.883513 -0.352683 
0.204265 0.916058 -0.345129 0.0954003 0.941116 -0.324344 -0.0624851 0.951436 -0.301439 
-0.241346 0.934824 -0.260494 -0.383689 0.906094 -0.178257 0.481847 0.798916 -0.35994 
0.397751 0.840863 -0.367074 0.399121 0.839978 -0.367613 0.292088 0.771148 -0.5657 
-0.439862 0.896275 -0.0566779 -0.252876 0.815187 -0.521079 -0.449612 0.89246 -0.0369344 
-0.515106 0.852078 0.0928988 0.53411 0.778155 -0.330458 0.558368 0.765178 -0.320511 
0.417777 0.69264 -0.587972 -0.563519 0.8166 0.124945 -0.613038 0.774097 0.157981 
0.718819 0.615994 -0.322257 0.743169 0.58677 -0.321559 -0.719999 0.671207 0.176302 
-0.763771 0.625104 0.160931 0.882803 0.332961 -0.331355 0.693864 0.359369 -0.624025 
-0.862292 0.49298 0.115858 0.951217 0.0425181 -0.305578 -0.959433 0.274493 0.064361 
-0.975171 0.221454 -0.000705899 0.948732 -0.0605773 -0.310222 -0.982486 0.158874 -0.0973664 
-0.962396 0.107471 -0.249489 0.955276 -0.0910172 -0.281362 -0.982682 -0.0349309 -0.181978 
-0.868636 -0.0787181 -0.489158 0.959121 -0.0929994 -0.267279 -0.898026 -0.366294 -0.243676 
-0.879249 -0.406291 -0.248693 -0.873504 -0.375152 -0.310244 0.913185 -0.33063 -0.23828 
0.821117 -0.526881 -0.219459 0.794137 -0.326882 -0.512342 -0.389066 -0.872737 -0.294887 
-0.703554 -0.648405 -0.290832 -0.645102 -0.708773 -0.285455 -0.626035 -0.59878 -0.499542 
0.670901 -0.718821 -0.182176 0.418307 -0.896114 -0.148317 0.110854 -0.989077 -0.0971456 
-0.112491 -0.985709 -0.125389 -0.168423 -0.975985 -0.138157 0.00702668 -0.98763 -0.156643 
-0.00555535 -0.819909 -0.572467 0.0797058 -0.987387 -0.136799 0.101198 -0.723587 -0.682774 
-0.00419891 -0.996067 -0.0885087 -0.0274702 -0.997258 -0.0687188 0.0137051 -0.993957 -0.108913 
-0.0882821 -0.979029 -0.183596 -0.382494 -0.877008 -0.290783 -0.22494 -0.955372 -0.191484 
-0.266779 -0.811611 -0.519727 0.143958 0.705212 -0.694227 0.0548773 0.671427 -0.739036 
-0.0495572 0.663065 -0.746919 -0.12141 0.664537 -0.737326 0.341813 0.598845 -0.724257 
0.164359 0.704202 -0.690713 0.270224 0.667917 -0.693445 0.141117 0.695178 -0.70485 
0.0454882 0.625537 -0.778867 -0.0492405 0.61821 -0.784469 -0.135036 0.680615 -0.720089 
-0.118078 0.656891 -0.744682 -0.191089 0.733322 -0.652476 -0.269403 0.770789 -0.577327 
-0.378068 0.835303 -0.399166 0.442641 0.568697 -0.693291 0.350114 0.595181 -0.723311 
0.344978 0.586793 -0.732574 0.322043 0.537017 -0.77968 0.225385 0.425351 -0.876514 
0.0909248 0.390739 -0.916 0.00514513 0.353562 -0.935397 -0.0336538 0.342223 -0.939016 
-0.0451373 0.400876 -0.91502 -0.0833657 0.487003 -0.869413 -0.13883 0.636624 -0.758575 
-0.430895 0.813084 -0.391438 -0.346304 0.774659 -0.529128 -0.550444 0.745961 -0.374905 
0.4525 0.561479 -0.69281 0.43706 0.557985 -0.70543 0.25375 0.450389 -0.856015 
0.185591 0.290217 -0.938792 0.169821 0.180868 -0.968735 0.0720353 0.188396 -0.979448 
-0.0127537 0.150031 -0.988599 -0.00238188 0.165412 -0.986222 0.0354537 0.195732 -0.980016 
-0.0543618 0.300761 -0.952149 -0.168836 0.393117 -0.903855 -0.673392 0.634724 -0.379036 
-0.456299 0.546172 -0.702486 -0.746206 0.520055 -0.415595 0.65134 0.359146 -0.668409 
0.691387 0.309372 -0.652895 0.350422 0.342324 -0.871791 0.122817 0.295097 -0.947541 
0.0546802 0.196157 -0.979047 0.133507 0.10535 -0.985433 -0.382877 0.149659 -0.911596 
-0.794781 0.4213 -0.436841 -0.703368 0.401503 -0.586574 0.784602 0.111316 -0.609924 
0.697632 0.131633 -0.70426 0.340007 0.196135 -0.919743 -0.0204333 -0.180721 -0.983322 
-0.152757 -0.0441214 -0.987278 -0.902303 0.179375 -0.392012 -0.50259 0.0962441 -0.859151 
0.82831 -0.0226028 -0.559814 0.751976 -0.0107383 -0.659103 0.341933 0.0613849 -0.937717 
-0.0608745 -0.0551609 -0.99662 -0.184585 -0.140367 -0.972741 -0.0110321 -0.0945174 -0.995462 
0.0838593 -0.119271 -0.989314 -0.0384328 -0.124156 -0.991518 -0.173309 -0.11129 -0.978559 
-0.780757 -0.0453758 -0.623185 -0.450436 -0.154354 -0.879365 0.840584 -0.0685826 -0.537322 
0.785587 -0.0668586 -0.615129 -0.12913 -0.0740992 -0.988855 0.00462891 -0.207389 -0.978248 
0.00175214 -0.0268329 -0.999638 -0.0553332 -0.166315 -0.984519 -0.0606764 -0.087846 -0.994284 
-0.00656847 0.00584232 -0.999961 0.0300706 -0.0715741 -0.996982 -0.0192026 -0.131948 -0.991071 
-0.21428 -0.16814 -0.962192 -0.644295 -0.151528 -0.749615 -0.42547 -0.175771 -0.887738 
0.827674 -0.127498 -0.546534 0.8035 -0.185612 -0.565629 0.812246 -0.131039 -0.568406 
0.389202 -0.101724 -0.915519 -0.136588 -0.0895565 -0.986572 -0.0282494 -0.170763 -0.984907 
-0.0145401 -0.172055 -0.98498 -0.0309788 -0.134226 -0.990466 0.00633815 -0.0729994 -0.997312 
0.000967699 -0.0483465 -0.99883 -0.0564345 -0.0901562 -0.994327 -0.126974 -0.158229 -0.979204 
-0.209656 -0.290963 -0.93348 -0.543569 -0.322235 -0.775047 -0.518525 -0.383315 -0.764331 
-0.485184 -0.30286 -0.820288 0.725949 -0.325134 -0.606041 0.411616 -0.315235 -0.855102 
0.0422608 -0.27361 -0.960912 -0.111299 -0.316416 -0.942069 -0.184536 -0.357249 -0.915598 
-0.0195672 -0.70013 -0.713747 -0.0715607 -0.385307 -0.92001 0.101007 -0.718462 -0.688194 
0.0449014 -0.356252 -0.933311 0.0449015 -0.270784 -0.961592 0.0287022 -0.268606 -0.962822 
-0.0177479 -0.285461 -0.958226 -0.0814174 -0.299202 -0.95071 -0.276051 -0.628986 -0.726754 
-0.240336 -0.371366 -0.896842 -0.399601 -0.497492 -0.769949 -0.316162 -0.538882 -0.780799 
-0.303594 -0.465968 -0.831087 0.477036 -0.670331 -0.568413 0.454272 -0.684214 -0.570516 
0.454401 -0.671361 -0.585486 0.0964072 -0.85839 -0.503857 0.088506 -0.657263 -0.748446 
-0.162081 -0.783695 -0.599627 -0.176596 -0.686515 -0.705344 -0.153519 -0.762362 -0.628678 
-0.174579 -0.765286 -0.619564 -0.174408 -0.759892 -0.626216 0.0992516 -0.721072 -0.685715 
0.0476986 -0.756379 -0.652393 0.0513304 -0.706882 -0.705467 -0.0164925 -0.783428 -0.621264 
-0.014803 -0.739139 -0.673391 -0.0373137 -0.784447 -0.619072 -0.0384639 -0.755589 -0.653915 
-0.129685 -0.75662 -0.640865 -0.116321 -0.76274 -0.636158 -0.116859 -0.756679 -0.643258 
0.0101352 0.234286 -0.972115 0.069508 0.179586 -0.981284 -0.0182458 0.096064 -0.995208 
0.00337902 0.124734 -0.992184 0.0183075 0.218849 -0.975587 0.0358885 0.137506 -0.98985 
-0.0189929 0.261224 -0.965091 0.0126593 0.225921 -0.974063 -0.0465203 0.279819 -0.958925 
-0.140569 0.276703 -0.950619 0.0867101 0.220814 -0.971454 -0.011504 0.135309 -0.990737 
0.102993 0.12838 -0.986363 0.129454 0.0668975 -0.989326 0.0621094 0.157207 -0.985611 
-0.0255442 0.0332966 -0.999119 0.00722542 0.092658 -0.995672 0.0351053 0.0547857 -0.997881 
0.00452041 -0.134776 -0.990866 0.0622317 -0.0293291 -0.997631 0.0385869 0.0171619 -0.999108 
-0.314011 0.121882 -0.941563 -0.111722 0.065184 -0.991599 0.173028 0.196587 -0.965098 
0.0727138 0.192442 -0.978611 -0.0225199 0.124302 -0.991989 0.127433 0.0535731 -0.990399 
0.000665536 0.0573615 -0.998353 -0.0761547 -0.0772725 -0.994097 -0.079721 -0.0805471 -0.993558 
0.0207421 0.0280016 -0.999393 -0.0539372 -0.125198 -0.990665 -0.152858 -0.108235 -0.982303 
-0.0950229 -0.047651 -0.994334 0.0353899 -0.143571 -0.989007 0.0661625 -0.125453 -0.989891 
0.0600274 -0.12709 -0.990073 -0.119264 -0.0709705 -0.990323 -0.0333219 -0.136955 -0.990017 
-0.0224215 -0.143611 -0.98938 0.321471 0.0610791 -0.944947 0.355641 -0.0160515 -0.934485 
0.0483633 0.054587 -0.997337 -0.0808745 0.0496212 -0.995488 0.0225558 -0.0620268 -0.99782 
0.0671148 -0.0578132 -0.996069 -0.0644256 -0.112792 -0.991528 -0.0235859 -0.211584 -0.977075 
-0.0604486 -0.205332 -0.976824 -0.00676051 -0.0983432 -0.99513 -0.121712 -0.140174 -0.982618 
-0.00416733 -0.15198 -0.988375 0.0392057 -0.132098 -0.990461 0.365594 -0.0508258 -0.929386 
0.362437 -0.0526907 -0.930518 0.361951 -0.0503151 -0.930838 0.0532079 -0.0458227 -0.997532 
-0.134796 -0.048993 -0.989661 -0.13483 -0.00899645 -0.990828 0.218432 -0.100291 -0.970685 
0.0500655 -0.230508 -0.971782 0.0798347 -0.102555 -0.991518 -0.119143 -0.105284 -0.987279 
-0.111648 -0.186471 -0.976096 -0.108598 -0.113683 -0.987564 
