# vtk DataFile Version 4.2
vtk output
ASCII
DATASET POLYDATA
POINTS 530 float
-16.2805 -33.7856 -14.6105 -8.92882 -33.7856 -15.2021 -1.57711 -33.7856 -15.2063 
5.77461 -33.7856 -14.7847 13.1263 -33.7856 -13.7392 -38.3357 -26.4338 -13.8622 
-30.984 -26.4338 -15.5601 -23.6323 -26.4338 -16.4159 -16.2805 -26.4338 -17.6068 
-8.92882 -26.4338 -16.6904 -1.57711 -26.4338 -16.3251 5.77461 -26.4338 -16.0449 
13.1263 -26.4338 -16.1234 20.4781 -26.4338 -15.3953 27.8298 -26.4338 -14.5837 
-45.6874 -19.0821 -13.8622 -38.3357 -19.0821 -15.965 -30.984 -19.0821 -16.4992 
-23.6323 -19.0821 -16.8176 -16.2805 -19.0821 -17.1522 -8.92882 -19.0821 -16.6467 
-1.57711 -19.0821 -16.119 5.77461 -19.0821 -16.2859 13.1263 -19.0821 -16.4704 
20.4781 -19.0821 -16.728 27.8298 -19.0821 -16.8026 35.1815 -19.0821 -16.1458 
42.5332 -19.0821 -14.5793 -45.6874 -11.7304 -16.0289 -38.3357 -11.7304 -17.5288 
-30.984 -11.7304 -17.214 -23.6323 -11.7304 -16.4917 -16.2805 -11.7304 -15.733 
-8.92882 -11.7304 -15.5344 -1.57711 -11.7304 -16.0022 5.77461 -11.7304 -16.6915 
13.1263 -11.7304 -16.8128 20.4781 -11.7304 -17.2154 27.8298 -11.7304 -17.7989 
35.1815 -11.7304 -17.7434 42.5332 -11.7304 -16.6319 49.8849 -11.7304 -13.7839 
-45.6874 -4.37869 -15.8603 -38.3357 -4.37869 -17.0444 -30.984 -4.37869 -17.5026 
-23.6323 -4.37869 -16.3244 -16.2805 -4.37869 -14.6359 -8.92882 -4.37869 -18.0156 
-1.57711 -4.37869 -16.1482 5.77461 -4.37869 -19.4633 13.1263 -4.37869 -18.5565 
20.4781 -4.37869 -17.6377 27.8298 -4.37869 -18.3922 35.1815 -4.37869 -18.8436 
42.5332 -4.37869 -18.358 49.8849 -4.37869 -15.6244 -45.6874 2.97303 -15.7581 
-38.3357 2.97303 -16.9366 -30.984 2.97303 -17.3974 -23.6323 2.97303 -16.2285 
-16.2805 2.97303 -14.7066 -8.92882 2.97303 -18.2619 -1.57711 2.97303 -14.5269 
5.77461 2.97303 -18.9751 13.1263 2.97303 -17.9451 20.4781 2.97303 -17.0697 
27.8298 2.97303 -18.1018 35.1815 2.97303 -18.7707 42.5332 2.97303 -18.1954 
49.8849 2.97303 -15.6528 -45.6874 10.3247 -15.9709 -38.3357 10.3247 -17.3776 
-30.984 10.3247 -17.0204 -23.6323 10.3247 -16.4274 -16.2805 10.3247 -15.6349 
-8.92882 10.3247 -16.1278 -1.57711 10.3247 -15.7225 5.77461 10.3247 -16.8228 
13.1263 10.3247 -15.6396 20.4781 10.3247 -16.2764 27.8298 10.3247 -17.3269 
35.1815 10.3247 -17.72 42.5332 10.3247 -16.8203 49.8849 10.3247 -14.1577 
-45.6874 17.6765 -13.7777 -38.3357 17.6765 -15.9983 -30.984 17.6765 -16.3746 
-23.6323 17.6765 -16.6681 -16.2805 17.6765 -16.6303 -8.92882 17.6765 -16.6453 
-1.57711 17.6765 -16.187 5.77461 17.6765 -16.3234 13.1263 17.6765 -16.3422 
20.4781 17.6765 -16.3962 27.8298 17.6765 -16.7962 35.1815 17.6765 -16.3682 
42.5332 17.6765 -15.1956 -38.3357 25.0282 -13.894 -30.984 25.0282 -15.4693 
-23.6323 25.0282 -15.966 -16.2805 25.0282 -16.4266 -8.92882 25.0282 -16.1521 
-1.57711 25.0282 -16.0857 5.77461 25.0282 -16.143 13.1263 25.0282 -15.8442 
20.4781 25.0282 -15.5627 27.8298 25.0282 -15.2116 -8.92882 32.3799 -13.6036 
-1.57711 32.3799 -13.7974 5.77461 32.3799 -13.7954 -16.2805 -35.2665 -13.4883 
-8.92882 -36.2723 -13.4883 -1.57711 -36.5932 -13.4883 5.77461 -36.0201 -13.4883 
5.77461 -41.1373 -6.3142 13.1263 -34.1756 -13.4883 -38.3357 -26.9749 -13.4883 
-30.984 -30.3108 -13.4883 -30.984 -33.7856 -9.17907 -22.4539 -33.7856 -13.4883 
-23.6323 -33.2935 -13.4883 -23.6323 -33.7856 -13.0718 14.1851 -33.7856 -13.4883 
20.4781 -30.5555 -13.4883 20.4781 -33.7856 -11.2736 27.8298 -28.0482 -13.4883 
27.8298 -33.7856 -7.3452 -39.0525 -26.4338 -13.4883 -45.6874 -19.776 -13.4883 
-45.6874 -26.4338 -7.19061 33.4871 -26.4338 -13.4883 35.1815 -25.7681 -13.4883 
35.1815 -26.4338 -13.063 42.5332 -20.8605 -13.4883 42.5332 -26.4338 -7.64963 
-46.6413 -19.0821 -13.4883 -53.0391 -19.0821 -7.06133 44.5898 -19.0821 -13.4883 
49.8849 -12.3664 -13.4883 49.8849 -19.0821 -9.2416 -50.7038 -11.7304 -13.4883 
-53.0391 -11.7304 -11.6488 50.3889 -11.7304 -13.4883 57.2366 -11.7304 -6.46096 
-51.7841 -4.37869 -13.4883 -53.0391 -4.37869 -12.9238 53.3118 -4.37869 -13.4883 
57.2366 -4.37869 -9.70234 -51.6756 2.97303 -13.4883 -53.0391 2.97303 -12.8955 
53.3976 2.97303 -13.4883 57.2366 2.97303 -9.67343 -50.4642 10.3247 -13.4883 
-53.0391 10.3247 -11.5758 51.061 10.3247 -13.4883 49.8849 12.1156 -13.4883 
57.2366 10.3247 -7.16023 -46.5195 17.6765 -13.4883 -53.0391 17.6765 -7.69845 
-45.6874 18.3072 -13.4883 35.1815 24.6014 -13.4883 46.0596 17.6765 -13.4883 
42.5332 21.0152 -13.4883 49.8849 17.6765 -10.5451 -39.2055 25.0282 -13.4883 
-45.6874 25.0282 -8.44522 -38.3357 25.6533 -13.4883 -30.984 28.8603 -13.4883 
-23.6323 30.533 -13.4883 -16.2805 31.9089 -13.4883 13.1263 31.9511 -13.4883 
20.4781 29.7186 -13.4883 34.4737 25.0282 -13.4883 27.8298 28.3762 -13.4883 
35.1815 25.0282 -13.2414 42.5332 25.0282 -9.96891 -30.984 32.3799 -10.0487 
-23.6323 32.3799 -12.1666 -11.376 32.3799 -13.4883 -16.2805 32.3799 -13.1555 
-8.92882 32.5281 -13.4883 -1.57711 32.7895 -13.4883 10.6443 32.3799 -13.4883 
5.77461 32.7779 -13.4883 13.1263 32.3799 -13.2522 20.4781 32.3799 -11.6101 
27.8298 32.3799 -9.47068 5.77461 -41.2128 -6.1366 -30.984 -34.9658 -6.1366 
-23.6323 -37.1231 -6.1366 -16.2805 -38.7837 -6.1366 -8.92882 -40.0817 -6.1366 
-0.417049 -41.1373 -6.1366 -1.57711 -41.1229 -6.1366 6.24219 -41.1373 -6.1366 
5.77461 -41.1373 -5.76043 13.1263 -39.9354 -6.1366 20.4781 -37.4004 -6.1366 
27.8298 -34.4728 -6.1366 -45.6874 -27.2288 -6.1366 -33.8655 -33.7856 -6.1366 
-38.3357 -31.8041 -6.1366 -30.984 -33.7856 -2.25632 29.4546 -33.7856 -6.1366 
35.1815 -31.3178 -6.1366 42.5332 -27.4954 -6.1366 -46.6464 -26.4338 -6.1366 
-53.0391 -19.6901 -6.1366 44.3667 -26.4338 -6.1366 49.8849 -22.2808 -6.1366 
-53.5059 -19.0821 -6.1366 53.3869 -19.0821 -6.1366 57.2366 -12.2363 -6.1366 
-58.2629 -11.7304 -6.1366 57.4328 -11.7304 -6.1366 -59.9837 -4.37869 -6.1366 
-60.3909 -4.37869 -3.61241 59.8657 -4.37869 -6.1366 -60.0747 2.97303 -6.1366 
-60.3909 2.97303 -4.30974 59.771 2.97303 -6.1366 -58.4704 10.3247 -6.1366 
57.8408 10.3247 -6.1366 57.2366 11.7664 -6.1366 -53.8647 17.6765 -6.1366 
-53.0391 18.952 -6.1366 54.0891 17.6765 -6.1366 49.8849 21.8089 -6.1366 
-48.0866 25.0282 -6.1366 -45.6874 26.9512 -6.1366 -38.3357 31.6761 -6.1366 
35.1815 31.5403 -6.1366 46.2704 25.0282 -6.1366 42.5332 27.8382 -6.1366 
-36.4762 32.3799 -6.1366 -30.984 34.2624 -6.1366 -23.6323 36.3849 -6.1366 
-16.2805 37.0562 -6.1366 -8.92882 37.5799 -6.1366 -1.57711 37.8419 -6.1366 
5.77461 37.621 -6.1366 13.1263 36.8882 -6.1366 20.4781 35.8641 -6.1366 
33.0877 32.3799 -6.1366 27.8298 34.1879 -6.1366 -23.6323 -34.6042 1.21511 
-16.2805 -36.2912 1.21511 -8.92882 -37.7745 1.21511 -1.57711 -39.1857 1.21511 
5.77461 -39.4579 1.21511 13.1263 -38.3144 1.21511 20.4781 -36.348 1.21511 
27.8298 -33.8688 1.21511 -45.6874 -26.4606 1.21511 -38.3357 -29.9965 1.21511 
-26.6361 -33.7856 1.21511 -30.984 -32.6394 1.21511 -23.6323 -33.7856 2.41906 
-16.2805 -33.7856 4.47474 -8.92882 -33.7856 6.4246 -1.57711 -33.7856 7.35241 
5.77461 -33.7856 7.12376 13.1263 -33.7856 6.69608 20.4781 -33.7856 4.42317 
28.0509 -33.7856 1.21511 27.8298 -33.7856 1.3565 35.1815 -31.3539 1.21511 
42.5332 -27.9868 1.21511 -45.7322 -26.4338 1.21511 -53.0391 -20.8532 1.21511 
-45.6874 -26.4338 1.26197 -38.3357 -26.4338 8.05141 45.2886 -26.4338 1.21511 
42.5332 -26.4338 4.4706 49.8849 -23.4383 1.21511 -54.3724 -19.0821 1.21511 
-53.0391 -19.0821 4.00614 54.7774 -19.0821 1.21511 57.2366 -15.4651 1.21511 
-59.4141 -11.7304 1.21511 -60.3909 -7.58287 1.21511 59.0733 -11.7304 1.21511 
57.2366 -11.7304 6.1544 -61.0285 -4.37869 1.21511 -60.3909 -4.37869 3.27418 
61.7182 -4.37869 1.21511 -61.1666 2.97303 1.21511 -60.3909 6.65081 1.21511 
-60.3909 2.97303 3.77257 61.5444 2.97303 1.21511 -59.5505 10.3247 1.21511 
59.3932 10.3247 1.21511 57.2366 14.8989 1.21511 57.2366 10.3247 7.53981 
-55.249 17.6765 1.21511 -53.0391 20.4724 1.21511 -53.0391 17.6765 6.2518 
55.5204 17.6765 1.21511 49.8849 23.079 1.21511 -48.2922 25.0282 1.21511 
-45.6874 27.1794 1.21511 -45.6874 25.0282 5.13972 -38.3357 31.1144 1.21511 
35.1815 31.3808 1.21511 47.2729 25.0282 1.21511 42.5332 28.0056 1.21511 
42.5332 25.0282 8.2901 -34.9155 32.3799 1.21511 -30.984 33.854 1.21511 
-30.984 32.3799 4.2878 -23.6323 35.6017 1.21511 -23.6323 32.3799 6.89228 
-16.2805 36.6551 1.21511 -8.92882 37.6768 1.21511 -1.57711 38.1588 1.21511 
5.77461 37.6588 1.21511 13.1263 36.515 1.21511 20.4781 35.2746 1.21511 
20.4781 32.3799 7.39741 32.195 32.3799 1.21511 27.8298 33.9071 1.21511 
27.8298 32.3799 4.578 -30.984 -27.5583 8.56683 -23.6323 -28.9074 8.56683 
-16.2805 -30.2528 8.56683 -8.92882 -31.3676 8.56683 -1.57711 -31.8753 8.56683 
5.77461 -31.11 8.56683 13.1263 -30.61 8.56683 20.4781 -29.3429 8.56683 
27.8298 -28.2666 8.56683 35.1815 -26.7429 8.56683 -45.6874 -22.119 8.56683 
-36.69 -26.4338 8.56683 -38.3357 -26.068 8.56683 -30.984 -26.4338 9.71634 
-23.6323 -26.4338 10.8942 -16.2805 -26.4338 11.7955 -8.92882 -26.4338 11.9827 
-1.57711 -26.4338 11.1891 5.77461 -26.4338 10.744 13.1263 -26.4338 10.529 
20.4781 -26.4338 10.5061 27.8298 -26.4338 10.103 36.111 -26.4338 8.56683 
35.1815 -26.4338 8.89501 42.5332 -23.92 8.56683 49.8849 -19.4447 8.56683 
-49.8392 -19.0821 8.56683 -53.0391 -15.8281 8.56683 -45.6874 -19.0821 12.156 
-38.3357 -19.0821 14.1408 -30.984 -19.0821 15.4676 -23.6323 -19.0821 15.6635 
-16.2805 -19.0821 15.64 -8.92882 -19.0821 14.7817 -1.57711 -19.0821 12.5954 
5.77461 -19.0821 11.8079 13.1263 -19.0821 12.7395 20.4781 -19.0821 13.5916 
27.8298 -19.0821 14.608 35.1815 -19.0821 14.1379 42.5332 -19.0821 12.8009 
50.3397 -19.0821 8.56683 49.8849 -19.0821 8.92147 -56.1586 -11.7304 8.56683 
-53.0391 -11.7304 11.745 -1.57711 -11.7304 13.9277 5.77461 -11.7304 13.6208 
13.1263 -11.7304 14.1216 20.4781 -11.7304 15.1961 55.974 -11.7304 8.56683 
49.8849 -11.7304 13.8363 57.2366 -9.5438 8.56683 -58.5623 -4.37869 8.56683 
-53.0391 -4.37869 15.0386 13.1263 -4.37869 14.2231 59.3463 -4.37869 8.56683 
57.2366 -4.37869 11.1284 -58.7773 2.97303 8.56683 -53.0391 2.97303 15.3021 
59.1487 2.97303 8.56683 57.2366 9.19709 8.56683 57.2366 2.97303 11.0305 
[...]
POINT_DATA 530
SCALARS ImageScalars float
LOOKUP_TABLE default
0 0 0 0 0 0 0 0 0 
0 0 0 0 0 0 0 0 0 
0 0 0 0 0 0 0 0 0 
0 0 0 0 0 0 0 0 0 
0 0 0 0 0 0 0 0 0 
0 0 0 0 0 0 0 0 0 
0 0 0 0 0 0 0 0 0 
0 0 0 0 0 0 0 0 0 
0 0 0 0 0 0 0 0 0 
0 0 0 0 0 0 0 0 0 
0 0 0 0 0 0 0 0 0 
0 0 0 0 0 0 0 0 0 
0 0 0 0 0 0 0 0 0 
0 0 0 0 0 0 0 0 0 
0 0 0 0 0 0 0 0 0 
0 0 0 0 0 0 0 0 0 
0 0 0 0 0 0 0 0 0 
0 0 0 0 0 0 0 0 0 
0 0 0 0 0 0 0 0 0 
0 0 0 0 0 0 0 0 0 
0 0 0 0 0 0 0 0 0 
0 0 0 0 0 0 0 0 0 
0 0 0 0 0 0 0 0 0 
0 0 0 0 0 0 0 0 0 
0 0 0 0 0 0 0 0 0 
0 0 0 0 0 0 0 0 0 
0 0 0 0 0 0 0 0 0 
0 0 0 0 0 0 0 0 0 
0 0 0 0 0 0 0 0 0 
0 0 0 0 0 0 0 0 0 
0 0 0 0 0 0 0 0 0 
0 0 0 0 0 0 0 0 0 
0 0 0 0 0 0 0 0 0 
0 0 0 0 0 0 0 0 0 
0 0 0 0 0 0 0 0 0 
0 0 0 0 0 0 0 0 0 
0 0 0 0 0 0 0 0 0 
0 0 0 0 0 0 0 0 0 
0 0 0 0 0 0 0 0 0 
0 0 0 0 0 0 0 0 0 
0 0 0 0 0 0 0 0 0 
0 0 0 0 0 0 0 0 0 
0 0 0 0 0 0 0 0 0 
0 0 0 0 0 0 0 0 0 
0 0 0 0 0 0 0 0 0 
0 0 0 0 0 0 0 0 0 
0 0 0 0 0 0 0 0 0 
0 0 0 0 0 0 0 0 0 
0 0 0 0 0 0 0 0 0 
0 0 0 0 0 0 0 0 0 
0 0 0 0 0 0 0 0 0 
0 0 0 0 0 0 0 0 0 
0 0 0 0 0 0 0 0 0 
0 0 0 0 0 0 0 0 0 
0 0 0 0 0 0 0 0 0 
0 0 0 0 0 0 0 0 0 
0 0 0 0 0 0 0 0 0 
0 0 0 0 0 0 0 0 0 
0 0 0 0 0 0 0 0 
NORMALS Normals float
0.122484 0.565205 0.815807 0.0405946 0.441389 0.896397 -0.0297226 0.373315 0.927228 
-0.098842 0.369975 0.923769 -0.184622 0.481051 0.857032 0.353938 0.469201 0.80906 
0.186764 0.320516 0.928649 0.125947 0.200782 0.971506 0.0154314 0.159214 0.987123 
-0.0825093 0.0975676 0.991803 -0.0436943 0.0646845 0.996949 -0.0132874 0.103422 0.994549 
-0.0407765 0.174072 0.983888 -0.0976261 0.29096 0.951741 -0.150263 0.448709 0.880955 
0.314982 0.411171 0.855409 0.178352 0.250059 0.951662 0.0546437 0.103049 0.993174 
0.0439988 0.00374528 0.999025 -0.0117504 -0.12626 0.991928 -0.0684461 -0.0780311 0.994599 
-0.0250103 -0.0221983 0.999441 0.0234024 0.041803 0.998852 0.0298656 0.0479614 0.998403 
0.0224246 0.118851 0.992659 -0.0404163 0.193638 0.98024 -0.144108 0.288475 0.946581 
-0.345007 0.401823 0.848239 0.310144 0.12677 0.9422 0.0907035 0.0625549 0.993911 
-0.0690239 0.067335 0.99534 -0.0999734 -0.0333704 0.99443 -0.0648811 -0.165874 0.98401 
0.018493 0.0540781 0.998365 0.0760342 0.00116109 0.997105 0.0574052 0.187885 0.980512 
0.0351387 0.12844 0.991095 0.0670006 0.06171 0.995843 0.0353853 0.104629 0.993882 
-0.0752399 0.184092 0.980025 -0.241391 0.244276 0.93918 -0.440684 0.323329 0.83741 
0.238364 -0.0190911 0.970988 0.106285 -0.0380448 0.993608 -0.0497538 0.0126759 0.998681 
-0.190241 -0.0181309 0.98157 0.0638684 -0.0734551 0.995251 0.119274 0.211617 0.970047 
0.0968412 -0.0860661 0.991572 0.166277 0.170652 0.9712 -0.125254 0.0932255 0.987735 
-0.0031962 -0.0102056 0.999943 0.0811282 0.020469 0.996493 -5.7629e-06 0.0682922 0.997665 
-0.209275 0.0978214 0.972952 -0.443411 0.108896 0.889679 0.234341 0.0094317 0.972109 
0.106129 0.0207066 0.994137 -0.0490284 -0.0333505 0.99824 -0.175152 0.00714638 0.984515 
0.108415 0.0718479 0.991506 0.0234519 -0.150377 0.988351 0.019909 -0.0195922 0.99961 
0.213073 -0.207241 0.954804 -0.131439 -0.223292 0.965849 0.021489 -0.0946594 0.995278 
0.114942 -0.0722137 0.990744 0.00868878 -0.0761101 0.997062 -0.205789 -0.0968415 0.973793 
-0.432023 -0.0872475 0.897633 0.314574 -0.127403 0.940644 0.0817651 -0.0553011 0.995116 
-0.0630752 -0.0686568 0.995644 -0.0940263 0.0298887 0.995121 -0.0203984 0.124476 0.992013 
0.00615132 -0.0899961 0.995923 0.0461525 0.094124 0.99449 -0.00558641 -0.1513 0.988472 
-0.0376551 -0.0840542 0.995749 0.113778 -0.0453079 0.992473 0.0976756 -0.0874307 0.99137 
-0.0306217 -0.168469 0.985231 -0.225772 -0.201937 0.953021 -0.430981 -0.264699 0.862664 
0.305205 -0.381632 0.872472 0.175654 -0.235071 0.955975 0.0437113 -0.0968979 0.994334 
0.0170005 -0.0303002 0.999396 -0.00159148 0.0546879 0.998502 -0.0303811 0.00290234 0.999534 
-0.0218841 0.0247436 0.999454 0.0105474 -0.0454042 0.998913 0.00504061 0.0143313 0.999885 
0.029812 -0.044961 0.998544 -0.0032392 -0.149087 0.988819 -0.104549 -0.261328 0.959571 
-0.297142 -0.344431 0.890547 0.31069 -0.436196 0.844514 0.147145 -0.301094 0.942173 
0.0615284 -0.23858 0.969172 0.0124932 -0.202466 0.97921 -0.0240057 -0.192204 0.981061 
-0.000571588 -0.153205 0.988194 -0.0162414 -0.159051 0.987137 -0.0374832 -0.186185 0.981799 
-0.0438941 -0.2458 0.968326 -0.132514 -0.342175 0.930245 0.0353822 -0.550288 0.834225 
0.012632 -0.526711 0.84995 -0.0306075 -0.539251 0.841589 0.148672 0.653254 0.742399 
0.0687117 0.619379 0.782079 -0.0086428 0.565925 0.824411 -0.10641 0.51153 0.852651 
-0.0767353 0.98889 0.127309 -0.191581 0.500959 0.844001 0.364609 0.499023 0.786153 
0.263921 0.536731 0.801415 0.356024 0.88458 0.301273 0.193409 0.647409 0.737194 
0.200442 0.631307 0.749182 0.210518 0.688131 0.694376 -0.196684 0.50165 0.842415 
-0.195576 0.475235 0.857847 -0.294346 0.712753 0.636666 -0.185869 0.516618 0.835798 
-0.376288 0.874042 0.30734 0.373094 0.486635 0.789929 0.331564 0.436279 0.836496 
0.598873 0.739574 0.307216 -0.258151 0.538483 0.802119 -0.274411 0.535262 0.79887 
-0.295699 0.574903 0.762921 -0.386192 0.482579 0.786113 -0.487522 0.779368 0.393585 
0.353481 0.418354 0.836679 0.780406 0.541829 0.312071 -0.411061 0.440069 0.798353 
-0.450437 0.3414 0.824956 -0.589044 0.577487 0.565275 0.52405 0.136891 0.840614 
0.65436 0.204753 0.727935 -0.459213 0.325948 0.826366 -0.861681 0.321261 0.392806 
0.449551 0.040938 0.892316 0.512342 0.0652427 0.8563 -0.568257 0.106304 0.815956 
-0.780726 0.114055 0.614377 0.437681 -0.0535739 0.897533 0.50418 -0.0777714 0.86009 
-0.57192 -0.0782903 0.816565 -0.792248 -0.090268 0.603485 0.505471 -0.12244 0.854112 
0.635775 -0.184263 0.749558 -0.476595 -0.274599 0.835137 -0.465815 -0.309409 0.829025 
-0.854951 -0.303432 0.420699 0.337698 -0.383211 0.859715 0.772362 -0.490582 0.403467 
0.316885 -0.399474 0.860235 -0.256009 -0.492385 0.831875 -0.441418 -0.384126 0.810924 
-0.34136 -0.459721 0.819835 -0.60929 -0.502497 0.613402 0.330461 -0.451963 0.828568 
0.579558 -0.667331 0.467742 0.319268 -0.467685 0.82422 0.207853 -0.518053 0.82971 
0.0990024 -0.542168 0.834417 0.0618648 -0.58566 0.808192 -0.0986256 -0.551644 0.828228 
-0.108163 -0.505828 0.855826 -0.254028 -0.490696 0.833479 -0.180961 -0.502114 0.845656 
-0.271252 -0.514068 0.81373 -0.451918 -0.690649 0.564601 0.287651 -0.826133 0.484521 
0.1198 -0.701966 0.702062 0.0456566 -0.571488 0.819339 0.0669616 -0.625822 0.777086 
0.0360037 -0.557563 0.829354 0.0128637 -0.547217 0.836892 -0.0779032 -0.563771 0.822249 
-0.0321699 -0.559866 0.827958 -0.103655 -0.587368 0.802654 -0.164696 -0.735658 0.657025 
-0.259902 -0.839986 0.476313 -0.0755972 0.990593 0.114068 0.335325 0.941333 0.0380723 
0.248429 0.967856 0.0392205 0.20509 0.978039 0.0371228 0.159713 0.986377 0.0394095 
0.0529365 0.994769 0.0873674 0.0765867 0.99364 0.0825418 -0.0866267 0.989592 0.114904 
-0.0755918 0.993234 0.088159 -0.254563 0.954976 0.152376 -0.352288 0.910589 0.21615 
-0.383155 0.897506 0.218346 0.600281 0.765566 0.231455 0.371781 0.926273 0.0616259 
0.449719 0.88441 0.124788 0.317392 0.92919 -0.189391 -0.386742 0.894692 0.223508 
-0.404918 0.874874 0.265776 -0.49043 0.812702 0.314632 0.61568 0.749897 0.242058 
0.782754 0.57065 0.248305 -0.520127 0.791486 0.320963 -0.611301 0.697354 0.374178 
0.792621 0.556011 0.250206 -0.698649 0.600334 0.389216 -0.862891 0.339351 0.374513 
0.855118 0.35172 0.380877 -0.868421 0.323576 0.37569 0.92281 0.0974412 0.37273 
0.973152 0.102284 0.206185 -0.884645 0.13991 0.444779 0.922238 -0.0842335 0.377336 
0.96239 -0.0881286 0.256979 -0.891435 -0.123711 0.435934 0.859036 -0.325361 0.395218 
-0.877354 -0.310687 0.365681 -0.86256 -0.352268 0.363178 0.798627 -0.523307 0.297228 
0.784978 -0.55054 0.284105 -0.74306 -0.560396 0.365812 -0.655758 -0.68091 0.326104 
0.651402 -0.699647 0.293546 0.596878 -0.746376 0.294382 0.413152 -0.877465 0.24364 
-0.384929 -0.886806 0.255744 -0.597559 -0.746536 0.292589 -0.520289 -0.807116 0.27904 
0.377792 -0.898827 0.222222 0.291838 -0.936575 0.194057 0.190486 -0.9577 0.215696 
0.081677 -0.969272 0.232035 0.0534403 -0.963278 0.263133 0.00267432 -0.961029 0.276435 
-0.0650129 -0.9669 0.246734 -0.119098 -0.968218 0.219932 -0.189285 -0.95636 0.222589 
-0.349577 -0.907313 0.233624 -0.269437 -0.937219 0.221416 0.211829 0.859069 -0.465971 
0.193154 0.852751 -0.485291 0.16452 0.870384 -0.464074 0.106113 0.880505 -0.462008 
-0.0566188 0.883218 -0.465533 -0.181238 0.876732 -0.445526 -0.286642 0.870245 -0.400636 
-0.309209 0.899895 -0.307538 0.473012 0.835714 -0.279002 0.361148 0.876646 -0.317905 
0.237372 0.863687 -0.444634 0.271928 0.872489 -0.405978 0.197936 0.836686 -0.510664 
0.174409 0.790823 -0.58667 0.129153 0.721566 -0.680193 0.0316889 0.626151 -0.779058 
-0.0345852 0.59653 -0.801845 -0.124811 0.643413 -0.755276 -0.236637 0.780848 -0.578169 
-0.309883 0.900256 -0.305796 -0.307217 0.897912 -0.315233 -0.342647 0.907305 -0.243704 
-0.456193 0.873437 -0.170283 0.47438 0.835179 -0.278279 0.740505 0.654022 -0.154623 
0.472776 0.835248 -0.280792 0.301001 0.745758 -0.594343 -0.513417 0.841849 -0.166413 
-0.43059 0.836411 -0.339129 -0.623051 0.768645 -0.144891 0.7773 0.613838 -0.137867 
0.719256 0.624124 -0.305188 -0.75066 0.65023 -0.117094 -0.853652 0.512775 -0.0913202 
0.912144 0.396845 -0.102507 0.968821 0.229306 -0.0938331 -0.914642 0.401129 -0.0502455 
-0.811727 0.432626 -0.392345 0.990815 0.10789 -0.0815155 0.974505 0.110893 -0.195045 
-0.987524 0.152236 -0.0402541 0.992798 -0.0953749 -0.0724935 0.971195 -0.221698 -0.0873544 
0.97298 -0.0948595 -0.210505 -0.988833 -0.141871 -0.0456309 0.931262 -0.352545 -0.0919994 
-0.928203 -0.369568 -0.043108 -0.857578 -0.509075 -0.0734991 -0.816126 -0.374193 -0.440362 
0.809006 -0.581962 -0.082637 0.762727 -0.637074 -0.111283 0.711354 -0.57976 -0.397308 
-0.78789 -0.60944 -0.0883841 -0.658136 -0.745104 -0.108062 0.631792 -0.755148 -0.174899 
0.557498 -0.805667 -0.200242 0.510994 -0.76523 -0.391547 0.391631 -0.880785 -0.266164 
-0.357243 -0.912452 -0.199522 -0.592787 -0.795352 -0.126564 -0.472593 -0.865467 -0.166199 
-0.422409 -0.776801 -0.467066 0.342271 -0.90324 -0.258861 0.279685 -0.92823 -0.245285 
0.272541 -0.874918 -0.4003 0.177286 -0.937423 -0.299681 0.156607 -0.822812 -0.54631 
0.136667 -0.959045 -0.248104 0.0995019 -0.976882 -0.189213 -0.00136117 -0.986841 -0.161685 
-0.109159 -0.977194 -0.182142 -0.1572 -0.962869 -0.219482 -0.170789 -0.954339 -0.245088 
-0.165969 -0.837023 -0.521389 -0.315704 -0.924385 -0.214111 -0.247635 -0.9418 -0.227354 
-0.239921 -0.893558 -0.379462 0.141506 0.734585 -0.663597 0.132777 0.703241 -0.698443 
0.112265 0.687617 -0.717342 0.0706342 0.620583 -0.780953 -0.00151607 0.521922 -0.852992 
-0.0406088 0.458061 -0.887993 -0.0657967 0.496895 -0.865313 -0.0884964 0.578927 -0.810562 
-0.126813 0.661578 -0.739076 -0.200615 0.714167 -0.670611 0.423452 0.709247 -0.563611 
0.259333 0.7331 -0.628737 0.292348 0.728947 -0.619007 0.134237 0.707924 -0.693414 
0.108758 0.646972 -0.754718 0.0584686 0.576528 -0.814983 -0.0433929 0.465065 -0.884213 
-0.0739283 0.299917 -0.951096 -0.0432668 0.272124 -0.961289 -0.0149699 0.366962 -0.930115 
-0.0241346 0.492077 -0.870217 -0.0859266 0.61232 -0.785926 -0.218054 0.716924 -0.662173 
-0.194409 0.703769 -0.683312 -0.349011 0.71196 -0.609348 -0.504916 0.638093 -0.581289 
0.537241 0.631198 -0.55943 0.630107 0.539201 -0.558773 0.394185 0.616275 -0.681779 
0.168553 0.55183 -0.816745 0.0834058 0.482126 -0.872123 0.00992077 0.421899 -0.906589 
-0.0555926 0.341034 -0.938406 -0.198672 0.280325 -0.939121 -0.191638 0.173709 -0.965971 
0.0118028 0.172226 -0.984987 0.115958 0.226412 -0.967105 0.119967 0.292503 -0.94871 
0.0364932 0.368073 -0.929081 -0.0985407 0.44116 -0.892002 -0.272823 0.526402 -0.805275 
-0.517195 0.629336 -0.580038 -0.49943 0.62589 -0.599025 0.742849 0.421854 -0.519822 
0.587478 0.453222 -0.670417 -0.204301 0.271119 -0.940614 0.0166965 0.353898 -0.935135 
0.0997403 0.100442 -0.989931 0.157661 0.152689 -0.975617 -0.697756 0.42867 -0.573915 
-0.450812 0.385595 -0.805037 -0.752984 0.351587 -0.556239 0.854074 0.135396 -0.50222 
0.591779 0.168031 -0.788393 -0.0589818 0.129732 -0.989793 -0.847733 0.148442 -0.509228 
-0.737144 0.176731 -0.652215 0.867741 -0.0993423 -0.486987 0.585102 -0.0861049 -0.806376 
-0.859754 -0.133706 -0.492895 -0.794657 -0.334022 -0.506901 -0.768681 -0.136271 -0.624948 
0.790462 -0.351953 -0.501297 0.665266 -0.521442 -0.534341 0.615215 -0.380291 -0.690572 
-0.777556 -0.370165 -0.508316 -0.478926 -0.285637 -0.830085 0.624882 -0.560447 -0.543528 
0.451637 -0.691731 -0.5635 0.40918 -0.518258 -0.750986 -0.418352 -0.769191 -0.483039 
-0.338787 -0.464847 -0.81801 -0.622836 -0.593478 -0.509764 -0.570558 -0.641298 -0.51303 
-0.550154 -0.594444 -0.586487 0.379335 -0.725363 -0.574416 0.328795 -0.741744 -0.584559 
0.298206 -0.686118 -0.663562 0.222546 -0.739577 -0.635216 0.145865 -0.610859 -0.778187 
0.14258 -0.759782 -0.634352 0.0922268 -0.509981 -0.855227 0.0518255 -0.449045 -0.892005 
0.0416098 -0.37448 -0.926301 0.0226162 -0.325998 -0.9451 0.0202406 -0.360927 -0.932374 
-0.0211127 -0.421087 -0.906775 -0.16046 -0.794805 -0.585267 -0.0884973 -0.51378 -0.853345 
-0.203767 -0.785735 -0.584037 -0.145905 -0.592939 -0.791918 -0.411717 -0.771441 -0.485148 
-0.285356 -0.774978 -0.563898 -0.229892 -0.685017 -0.691304 0.158052 -0.75929 -0.631267 
0.163611 -0.755605 -0.634265 0.160563 -0.741887 -0.651017 0.127617 -0.766562 -0.629363 
0.12261 -0.681136 -0.721818 0.0120934 -0.786377 -0.617629 0.0180995 -0.653254 -0.756922 
-0.106604 -0.79008 -0.603664 -0.0912221 -0.692315 -0.715807 -0.157896 -0.800532 -0.578116 
-0.154141 -0.799866 -0.580047 -0.147479 -0.77049 -0.620158 0.355004 0.371946 -0.857688 
0.150404 0.467331 -0.871195 0.0725069 0.459038 -0.885453 0.00105536 0.405563 -0.914066 
-0.0651899 0.314348 -0.947067 -0.2128 0.238653 -0.947502 0.0797643 0.248041 -0.96546 
-0.0453349 0.315886 -0.947714 -0.15822 0.324439 -0.93258 0.364587 0.359349 -0.859037 
0.352581 0.35561 -0.86558 0.144394 0.372093 -0.916895 0.0067974 0.32738 -0.944869 
-0.0852614 0.262257 -0.961224 -0.11294 0.167035 -0.979461 -0.212229 0.231688 -0.949358 
-0.212248 0.217754 -0.952646 -0.0948541 0.269519 -0.958312 -0.0999039 0.324657 -0.940541 
0.126577 0.173895 -0.976596 0.222177 0.127418 -0.966645 0.100185 0.195187 -0.975636 
-0.0264091 0.270683 -0.962306 -0.176215 0.320748 -0.930628 -0.153008 0.31541 -0.936539 
-0.407578 0.172847 -0.896663 0.531196 0.168529 -0.830318 0.35822 0.158237 -0.92013 
0.106607 0.179223 -0.978015 -0.048579 0.161341 -0.985702 -0.160534 0.127708 -0.978734 
-0.109764 0.126189 -0.985915 -0.119119 0.243444 -0.962572 -0.0715463 0.270978 -0.959923 
-0.122513 0.226319 -0.966318 -0.151525 0.276788 -0.948909 0.219668 0.12659 -0.967327 
-0.0643759 0.254962 -0.964806 0.225048 0.126443 -0.966108 0.170034 0.152694 -0.973536 
0.0428824 0.184314 -0.981931 -0.14576 0.173325 -0.974019 -0.421271 0.137184 -0.896499 
-0.401431 0.134791 -0.905916 0.539566 -0.0859509 -0.837545 0.338866 -0.10482 -0.934977 
0.159726 -0.0997921 -0.982104 -0.0453389 -0.0668599 -0.996732 -0.132456 -0.0423748 -0.990283 
0.0111641 0.0319656 -0.999427 -0.0116497 0.137115 -0.990487 -0.163119 0.309151 -0.936919 
-0.165452 0.162235 -0.972782 -0.0626076 0.269227 -0.961039 0.182351 0.161539 -0.969873 
0.143308 0.0884291 -0.98572 -0.00838394 0.028973 -0.999545 -0.190786 -0.0101288 -0.981579 
-0.452194 -0.0507622 -0.890474 -0.452682 -0.16638 -0.876012 -0.424686 -0.0461485 -0.904164 
0.419871 -0.317401 -0.850274 0.361573 -0.384319 -0.849449 0.339762 -0.292054 -0.894017 
0.153809 -0.292168 -0.943918 0.0089154 -0.257644 -0.966199 -0.0596305 -0.201046 -0.977765 
0.0557448 -0.144624 -0.987915 0.125891 -0.225887 -0.965985 -0.0539469 -0.132629 -0.989697 
-0.162197 -0.0650872 -0.984609 -0.0758574 0.0763741 -0.994189 0.0545702 0.0184006 -0.99834 
0.04848 -0.0755166 -0.995965 -0.0559584 -0.163899 -0.984889 -0.429076 -0.276656 -0.859857 
-0.292174 -0.383139 -0.876264 -0.230971 -0.247741 -0.940892 0.175476 -0.449017 -0.876123 
0.166031 -0.44944 -0.877746 0.164419 -0.446177 -0.879712 0.0721802 -0.461172 -0.88437 
0.0576307 -0.412082 -0.909323 0.0318536 -0.386611 -0.921693 0.00352287 -0.34245 -0.939529 
0.0235229 -0.35252 -0.935509 0.00452632 -0.291398 -0.956591 0.00858715 -0.346999 -0.937826 
-0.00964628 -0.34025 -0.940286 0.0142719 -0.340737 -0.94005 0.00706119 -0.365369 -0.930836 
0.0293918 -0.321987 -0.946288 0.028241 -0.288741 -0.956991 -0.00377915 -0.341683 -0.939808 
0.0207804 -0.188942 -0.981768 -0.0404547 -0.383364 -0.922711 0.0160934 -0.23182 -0.972626 
-0.0824037 -0.436483 -0.895931 -0.0392833 -0.321357 -0.946143 -0.243559 -0.419485 -0.874478 
-0.171235 -0.450738 -0.876079 -0.164224 -0.390056 -0.906028 
