# vtk DataFile Version 4.2
vtk output
ASCII
DATASET POLYDATA
POINTS 530 float
-31.9426 -36.2647 -12.531 -24.0115 -36.2647 -15.2464 -16.0805 -36.2647 -16.6139 
-8.14945 -36.2647 -17.0196 -0.218394 -36.2647 -16.8596 7.71266 -36.2647 -16.8451 
15.6437 -36.2647 -16.6854 23.5748 -36.2647 -16.1723 31.5058 -36.2647 -14.3981 
-39.8737 -28.3337 -13.5574 -31.9426 -28.3337 -16.3994 -24.0115 -28.3337 -17.9909 
-16.0805 -28.3337 -18.4911 -8.14945 -28.3337 -18.6006 -0.218394 -28.3337 -18.4485 
7.71266 -28.3337 -18.7027 15.6437 -28.3337 -18.403 23.5748 -28.3337 -17.6523 
31.5058 -28.3337 -18.0236 39.4369 -28.3337 -15.6767 -47.8047 -20.4026 -13.4681 
-39.8737 -20.4026 -16.242 -31.9426 -20.4026 -17.5241 -24.0115 -20.4026 -18.2636 
-16.0805 -20.4026 -18.4705 -8.14945 -20.4026 -18.3166 -0.218394 -20.4026 -17.6038 
7.71266 -20.4026 -18.4595 15.6437 -20.4026 -18.1832 23.5748 -20.4026 -17.6613 
31.5058 -20.4026 -17.2432 39.4369 -20.4026 -17.0554 47.3679 -20.4026 -16.9769 
55.299 -20.4026 -14.0206 -55.7358 -12.4716 -13.6958 -47.8047 -12.4716 -16.0905 
-39.8737 -12.4716 -18.237 -31.9426 -12.4716 -17.9708 -24.0115 -12.4716 -17.6746 
-16.0805 -12.4716 -17.2464 -8.14945 -12.4716 -17.944 -0.218394 -12.4716 -16.9677 
7.71266 -12.4716 -18.288 15.6437 -12.4716 -17.2471 23.5748 -12.4716 -16.6089 
31.5058 -12.4716 -17.2593 39.4369 -12.4716 -18.6379 47.3679 -12.4716 -16.1952 
55.299 -12.4716 -13.9292 -55.7358 -4.54052 -13.765 -47.8047 -4.54052 -16.6906 
-39.8737 -4.54052 -17.8112 -31.9426 -4.54052 -17.9409 -24.0115 -4.54052 -16.4072 
-16.0805 -4.54052 -14.9758 -8.14945 -4.54052 -19.9667 -0.218394 -4.54052 -16.4042 
7.71266 -4.54052 -19.0708 15.6437 -4.54052 -17.5308 23.5748 -4.54052 -16.059 
31.5058 -4.54052 -17.1696 39.4369 -4.54052 -17.1703 47.3679 -4.54052 -16.6512 
55.299 -4.54052 -14.919 -55.7358 3.39053 -14.3719 -47.8047 3.39053 -17.0704 
-39.8737 3.39053 -18.0408 -31.9426 3.39053 -18.0964 -24.0115 3.39053 -16.4128 
-16.0805 3.39053 -14.5598 -8.14945 3.39053 -17.1074 -0.218394 3.39053 -15.3477 
7.71266 3.39053 -18.5766 15.6437 3.39053 -16.6948 23.5748 3.39053 -16.1154 
31.5058 3.39053 -16.9734 39.4369 3.39053 -16.8536 47.3679 3.39053 -16.1138 
55.299 3.39053 -14.0968 -55.7358 11.3216 -13.3136 -47.8047 11.3216 -17.0972 
-39.8737 11.3216 -18.0352 -31.9426 11.3216 -18.1489 -24.0115 11.3216 -17.2481 
-16.0805 11.3216 -15.7161 -8.14945 11.3216 -15.382 -0.218394 11.3216 -18.3348 
7.71266 11.3216 -18.0228 15.6437 11.3216 -16.8276 23.5748 11.3216 -16.576 
31.5058 11.3216 -16.8186 39.4369 11.3216 -16.5452 47.3679 11.3216 -15.3685 
-47.8047 19.2526 -14.7901 -39.8737 19.2526 -16.5702 -31.9426 19.2526 -16.8503 
-24.0115 19.2526 -16.5316 -16.0805 19.2526 -14.9186 -8.14945 19.2526 -14.4898 
-0.218394 19.2526 -15.4957 7.71266 19.2526 -16.1826 15.6437 19.2526 -16.8814 
23.5748 19.2526 -16.8307 31.5058 19.2526 -16.5584 39.4369 19.2526 -14.8475 
47.3679 19.2526 -12.528 -39.8737 27.1837 -13.4629 -31.9426 27.1837 -13.8696 
-24.0115 27.1837 -13.9729 -16.0805 27.1837 -13.7312 -8.14945 27.1837 -14.6371 
-0.218394 27.1837 -15.2073 7.71266 27.1837 -15.7768 15.6437 27.1837 -15.8766 
23.5748 27.1837 -15.6892 31.5058 27.1837 -14.2586 -8.14945 35.1147 -12.9923 
-0.218394 35.1147 -14.5323 7.71266 35.1147 -14.4854 15.6437 35.1147 -13.2746 
-31.9426 -36.3274 -12.4765 -24.0115 -39.5483 -12.4765 -16.0805 -41.8234 -12.4765 
-8.14945 -42.0566 -12.4765 -8.14945 -44.1958 -4.73661 -0.218394 -41.7069 -12.4765 
7.71266 -41.708 -12.4765 15.6437 -41.7206 -12.4765 23.5748 -40.6155 -12.4765 
31.5058 -38.6615 -12.4765 -32.0513 -36.2647 -12.4765 -39.8737 -30.1845 -12.4765 
36.1495 -36.2647 -12.4765 39.4369 -34.1423 -12.4765 39.4369 -36.2647 -8.29779 
-42.2026 -28.3337 -12.4765 -47.8047 -22.2458 -12.4765 -47.8047 -28.3337 -6.35946 
47.3039 -28.3337 -12.4765 47.3679 -28.2666 -12.4765 47.3679 -28.3337 -12.4199 
55.299 -23.1973 -12.4765 -49.4409 -20.4026 -12.4765 -55.7358 -14.9121 -12.4765 
-55.7358 -20.4026 -4.86501 57.2189 -20.4026 -12.4765 -57.2237 -12.4716 -12.4765 
57.7743 -12.4716 -12.4765 63.23 -12.4716 -5.60835 -57.4402 -4.54052 -12.4765 
59.7773 -4.54052 -12.4765 63.23 -4.54052 -9.03768 -58.308 3.39053 -12.4765 
-63.6668 3.39053 -5.17316 58.2791 3.39053 -12.4765 55.299 8.53721 -12.4765 
63.23 3.39053 -7.87452 -56.8068 11.3216 -12.4765 -55.7358 14.7111 -12.4765 
53.8104 11.3216 -12.4765 55.299 11.3216 -11.536 -53.5019 19.2526 -12.4765 
-55.7358 19.2526 -10.4217 -47.8047 24.5171 -12.4765 39.4369 25.8644 -12.4765 
47.493 19.2526 -12.4765 47.3679 19.3599 -12.4765 55.299 19.2526 -7.13589 
-43.4834 27.1837 -12.4765 -47.8047 27.1837 -9.97088 -39.8737 28.5865 -12.4765 
-31.9426 29.6605 -12.4765 -24.0115 30.5441 -12.4765 -16.0805 33.5853 -12.4765 
23.5748 34.7718 -12.4765 37.7141 27.1837 -12.4765 31.5058 30.4022 -12.4765 
39.4369 27.1837 -11.8502 47.3679 27.1837 -6.52259 -31.9426 35.1147 -7.75645 
-24.0115 35.1147 -10.0857 -13.0491 35.1147 -12.4765 -16.0805 35.1147 -12.0873 
-8.14945 36.0805 -12.4765 -0.218394 38.8216 -12.4765 7.71266 38.5291 -12.4765 
22.1644 35.1147 -12.4765 15.6437 36.342 -12.4765 23.5748 35.1147 -12.2587 
31.5058 35.1147 -8.66749 -8.14945 43.0458 -7.0421 -0.218394 43.0458 -9.10678 
7.71266 43.0458 -8.63203 15.6437 43.0458 -6.07415 -8.14945 -44.2387 -4.54543 
-31.9426 -40.4647 -4.54543 -24.0115 -43.074 -4.54543 -9.80299 -44.1958 -4.54543 
-16.0805 -44.0589 -4.54543 -4.87859 -44.1958 -4.54543 -8.14945 -44.1958 -4.36709 
-0.218394 -44.1358 -4.54543 7.71266 -44.0205 -4.54543 15.6437 -43.2808 -4.54543 
23.5748 -42.7927 -4.54543 31.5058 -41.6152 -4.54543 39.4369 -37.5779 -4.54543 
-47.8047 -29.2453 -4.54543 -39.3838 -36.2647 -4.54543 -39.8737 -35.9362 -4.54543 
31.5058 -36.2647 3.30197 41.9767 -36.2647 -4.54543 39.4369 -36.2647 -2.21078 
47.3679 -33.2441 -4.54543 -48.733 -28.3337 -4.54543 -55.7358 -20.5723 -4.54543 
-47.8047 -28.3337 1.79077 53.5305 -28.3337 -4.54543 47.3679 -28.3337 2.87915 
55.299 -26.5495 -4.54543 -55.8686 -20.4026 -4.54543 -55.7358 -20.4026 -3.75826 
60.5051 -20.4026 -4.54543 55.299 -20.4026 3.26435 63.23 -13.6964 -4.54543 
-60.9646 -12.4716 -4.54543 63.6317 -12.4716 -4.54543 63.23 -12.4716 -3.61143 
-63.2697 -4.54052 -4.54543 -63.6668 0.0213191 -4.54543 65.2379 -4.54052 -4.54543 
63.23 -4.54052 1.5389 -63.9282 3.39053 -4.54543 -63.6668 5.89387 -4.54543 
-63.6668 3.39053 -2.67026 64.8121 3.39053 -4.54543 63.23 7.78503 -4.54543 
63.23 3.39053 0.452054 -62.9564 11.3216 -4.54543 61.6923 11.3216 -4.54543 
-58.5893 19.2526 -4.54543 -55.7358 22.955 -4.54543 56.9995 19.2526 -4.54543 
55.299 21.1553 -4.54543 -51.4635 27.1837 -4.54543 -47.8047 30.091 -4.54543 
-39.8737 34.5694 -4.54543 39.4369 33.7387 -4.54543 48.9667 27.1837 -4.54543 
47.3679 28.4583 -4.54543 -38.3768 35.1147 -4.54543 -31.9426 37.3166 -4.54543 
-24.0115 40.119 -4.54543 -16.0805 42.7716 -4.54543 23.5748 41.5356 -4.54543 
37.0567 35.1147 -4.54543 31.5058 38.0699 -4.54543 -15.1706 43.0458 -4.54543 
-16.0805 43.0458 -0.425009 -8.14945 44.6519 -4.54543 -0.218394 45.8971 -4.54543 
7.71266 45.5771 -4.54543 18.9741 43.0458 -4.54543 15.6437 44.0141 -4.54543 
-31.9426 -39.6722 3.38562 -24.0115 -41.9565 3.38562 -16.0805 -43.2198 3.38562 
-8.14945 -42.2877 3.38562 -0.218394 -41.413 3.38562 7.71266 -40.6043 3.38562 
15.6437 -39.2783 3.38562 23.5748 -38.2218 3.38562 -38.0251 -36.2647 3.38562 
-39.8737 -35.0612 3.38562 -31.9426 -36.2647 9.153 -0.218394 -36.2647 10.9782 
7.71266 -36.2647 9.10617 15.6437 -36.2647 6.61697 31.2765 -36.2647 3.38562 
23.5748 -36.2647 5.33907 31.5058 -36.1708 3.38562 39.4369 -31.339 3.38562 
-47.5498 -28.3337 3.38562 -47.8047 -28.0594 3.38562 23.5748 -28.3337 9.89098 
31.5058 -28.3337 7.96197 46.2684 -28.3337 3.38562 39.4369 -28.3337 5.65785 
47.3679 -27.6159 3.38562 -54.3433 -20.4026 3.38562 -55.7358 -18.2399 3.38562 
-47.8047 -20.4026 9.71363 39.4369 -20.4026 9.56874 55.1252 -20.4026 3.38562 
47.3679 -20.4026 6.98608 55.299 -20.2619 3.38562 -59.2645 -12.4716 3.38562 
-55.7358 -12.4716 7.62701 47.3679 -12.4716 9.70586 59.6254 -12.4716 3.38562 
55.299 -12.4716 6.91751 -61.3996 -4.54052 3.38562 -55.7358 -4.54052 11.0285 
62.2133 -4.54052 3.38562 55.299 -4.54052 9.24069 -62.5942 3.39053 3.38562 
61.8895 3.39053 3.38562 55.299 3.39053 9.83584 -61.4008 11.3216 3.38562 
-55.7358 11.3216 11.119 60.5622 11.3216 3.38562 55.299 11.3216 9.6376 
-57.4821 19.2526 3.38562 -55.7358 21.6753 3.38562 -55.7358 19.2526 5.91995 
56.7145 19.2526 3.38562 55.299 21.0539 3.38562 55.299 19.2526 5.68097 
-50.6806 27.1837 3.38562 -47.8047 29.7569 3.38562 -47.8047 27.1837 7.0491 
-39.8737 34.9007 3.38562 39.4369 34.4329 3.38562 49.3257 27.1837 3.38562 
47.3679 28.8863 3.38562 47.3679 27.1837 6.81039 -39.4377 35.1147 3.38562 
-31.9426 38.5259 3.38562 -31.9426 35.1147 9.45685 -24.0115 40.8971 3.38562 
23.5748 42.6702 3.38562 38.3471 35.1147 3.38562 31.5058 38.9841 3.38562 
-16.7305 43.0458 3.38562 -16.0805 43.2232 3.38562 -16.0805 43.0458 3.73772 
-8.14945 44.5561 3.38562 -8.14945 43.0458 6.01538 -0.218394 45.5318 3.38562 
-0.218394 43.0458 8.37363 7.71266 45.8627 3.38562 7.71266 43.0458 10.4289 
22.3232 43.0458 3.38562 15.6437 44.927 3.38562 15.6437 43.0458 9.10603 
-24.0115 -37.4728 11.3167 -16.0805 -37.9005 11.3167 -8.14945 -36.9668 11.3167 
-39.8737 -28.433 11.3167 -27.6397 -36.2647 11.3167 -31.9426 -34.1656 11.3167 
-24.0115 -36.2647 12.5241 -16.0805 -36.2647 12.8611 -2.46138 -36.2647 11.3167 
-8.14945 -36.2647 11.9887 -0.218394 -35.9127 11.3167 7.71266 -33.7672 11.3167 
15.6437 -29.535 11.3167 -39.974 -28.3337 11.3167 -39.8737 -28.3337 11.3983 
-31.9426 -28.3337 15.0737 -24.0115 -28.3337 17.1253 -16.0805 -28.3337 17.4701 
-8.14945 -28.3337 16.5779 -0.218394 -28.3337 16.0747 7.71266 -28.3337 14.9706 
18.3182 -28.3337 11.3167 15.6437 -28.3337 12.0627 23.5748 -25.2858 11.3167 
31.5058 -21.4454 11.3167 -45.5672 -20.4026 11.3167 -47.8047 -16.5468 11.3167 
-39.8737 -20.4026 14.6488 -31.9426 -20.4026 17.115 -24.0115 -20.4026 18.9556 
-8.14945 -20.4026 18.9727 -0.218394 -20.4026 18.4084 7.71266 -20.4026 18.5781 
15.6437 -20.4026 17.1327 23.5748 -20.4026 13.4517 33.1178 -20.4026 11.3167 
[...]
POINT_DATA 530
SCALARS ImageScalars float
LOOKUP_TABLE default
0 0 0 0 0 0 0 0 0 
0 0 0 0 0 0 0 0 0 
0 0 0 0 0 0 0 0 0 
0 0 0 0 0 0 0 0 0 
0 0 0 0 0 0 0 0 0 
0 0 0 0 0 0 0 0 0 
0 0 0 0 0 0 0 0 0 
0 0 0 0 0 0 0 0 0 
0 0 0 0 0 0 0 0 0 
0 0 0 0 0 0 0 0 0 
0 0 0 0 0 0 0 0 0 
0 0 0 0 0 0 0 0 0 
0 0 0 0 0 0 0 0 0 
0 0 0 0 0 0 0 0 0 
0 0 0 0 0 0 0 0 0 
0 0 0 0 0 0 0 0 0 
0 0 0 0 0 0 0 0 0 
0 0 0 0 0 0 0 0 0 
0 0 0 0 0 0 0 0 0 
0 0 0 0 0 0 0 0 0 
0 0 0 0 0 0 0 0 0 
0 0 0 0 0 0 0 0 0 
0 0 0 0 0 0 0 0 0 
0 0 0 0 0 0 0 0 0 
0 0 0 0 0 0 0 0 0 
0 0 0 0 0 0 0 0 0 
0 0 0 0 0 0 0 0 0 
0 0 0 0 0 0 0 0 0 
0 0 0 0 0 0 0 0 0 
0 0 0 0 0 0 0 0 0 
0 0 0 0 0 0 0 0 0 
0 0 0 0 0 0 0 0 0 
0 0 0 0 0 0 0 0 0 
0 0 0 0 0 0 0 0 0 
0 0 0 0 0 0 0 0 0 
0 0 0 0 0 0 0 0 0 
0 0 0 0 0 0 0 0 0 
0 0 0 0 0 0 0 0 0 
0 0 0 0 0 0 0 0 0 
0 0 0 0 0 0 0 0 0 
0 0 0 0 0 0 0 0 0 
0 0 0 0 0 0 0 0 0 
0 0 0 0 0 0 0 0 0 
0 0 0 0 0 0 0 0 0 
0 0 0 0 0 0 0 0 0 
0 0 0 0 0 0 0 0 0 
0 0 0 0 0 0 0 0 0 
0 0 0 0 0 0 0 0 0 
0 0 0 0 0 0 0 0 0 
0 0 0 0 0 0 0 0 0 
0 0 0 0 0 0 0 0 0 
0 0 0 0 0 0 0 0 0 
0 0 0 0 0 0 0 0 0 
0 0 0 0 0 0 0 0 0 
0 0 0 0 0 0 0 0 0 
0 0 0 0 0 0 0 0 0 
0 0 0 0 0 0 0 0 0 
0 0 0 0 0 0 0 0 0 
0 0 0 0 0 0 0 0 
NORMALS Normals float
-0.373186 -0.613186 -0.696229 -0.234995 -0.519509 -0.821515 -0.100945 -0.425801 -0.899168 
-0.0156336 -0.424281 -0.905396 0.011528 -0.43981 -0.898017 0.0115272 -0.458861 -0.888433 
0.0392916 -0.446863 -0.893739 0.15889 -0.469524 -0.868505 0.267444 -0.574392 -0.773658 
-0.381804 -0.428596 -0.81886 -0.262004 -0.274218 -0.925288 -0.122718 -0.164644 -0.978689 
-0.0366368 -0.109633 -0.993297 0.00267207 -0.0787162 -0.996893 -0.00642009 -0.0423227 -0.999083 
0.00302062 -0.0969895 -0.995281 0.0647853 -0.0895284 -0.993875 0.0283467 -0.0772556 -0.996608 
0.146386 -0.175087 -0.97361 0.276565 -0.29766 -0.913734 -0.432817 -0.423035 -0.796059 
-0.211326 -0.277825 -0.937099 -0.119655 -0.0901907 -0.98871 -0.058949 0.0208302 -0.998044 
-0.00391393 0.0775413 -0.996981 0.0562161 0.0417907 -0.997544 -0.00952928 0.0940667 -0.99552 
-0.0381264 0.0264754 -0.998922 0.0506107 0.0699835 -0.996263 0.0578806 0.0660553 -0.996136 
0.0374476 0.0402311 -0.998488 0.0162284 -0.198779 -0.97991 0.214865 -0.161478 -0.963202 
0.549774 -0.292623 -0.782381 -0.586575 -0.256048 -0.768354 -0.274995 -0.152952 -0.949201 
-0.12556 -0.0856154 -0.988385 0.0342673 -0.0260964 -0.999072 0.0450885 0.109073 -0.993011 
-0.0160748 0.219167 -0.975555 0.018851 -0.0408599 -0.998987 -0.0239169 0.069581 -0.99729 
-0.0231775 -0.0315334 -0.999234 0.109494 0.0445634 -0.992988 -0.00379335 0.101196 -0.994859 
-0.121552 0.00460996 -0.992574 0.0673219 -0.00114156 -0.997731 0.248461 0.00899619 -0.9686 
0.423886 -0.0504756 -0.904308 -0.52944 -0.0378445 -0.847503 -0.217422 -0.0637357 -0.973995 
-0.0738673 0.0103759 -0.997214 0.0829868 -0.00737803 -0.996523 0.182247 0.0819247 -0.979834 
-0.072331 0.178021 -0.981365 -0.184674 0.0071765 -0.982774 -0.040958 0.105907 -0.993532 
-0.0712329 -0.029639 -0.997019 0.204863 0.0354207 -0.97815 -0.0027602 0.0317486 -0.999492 
-0.0710305 0.0183024 -0.997306 0.0316445 0.106095 -0.993852 0.125298 0.00516397 -0.992106 
0.378765 -0.00645318 -0.92547 -0.509426 0.0240725 -0.860178 -0.19463 -0.0247963 -0.980563 
-0.0608906 -0.014065 -0.998045 0.0962068 -0.0127721 -0.995279 0.219189 -0.0540286 -0.974185 
-0.0102915 -0.0481489 -0.998787 -0.104017 0.224374 -0.968936 -0.10733 -0.137785 -0.98463 
-0.0457736 0.0702656 -0.996478 0.143305 0.0329727 -0.989129 -0.0222567 -0.0331734 -0.999202 
-0.0464922 0.0220717 -0.998675 0.051937 0.0378162 -0.997934 0.14717 0.0815679 -0.985742 
0.384806 0.183363 -0.904601 -0.610118 0.167713 -0.774357 -0.24204 0.134097 -0.960955 
-0.0691817 0.0812657 -0.994289 0.0487171 0.0767602 -0.995859 0.151041 -0.00397473 -0.988519 
0.113915 -0.0227011 -0.993231 -0.14671 0.148377 -0.977988 -0.153431 0.0500487 -0.986891 
0.0938236 0.14658 -0.984739 0.0863507 -0.0106552 -0.996208 0.000546196 -0.0455982 -0.99896 
0.00125575 0.0276743 -0.999616 0.0984676 0.122786 -0.987536 0.260139 0.18238 -0.948191 
-0.29794 0.367841 -0.880866 -0.12871 0.294506 -0.946942 0.00348538 0.247715 -0.968827 
0.121545 0.191872 -0.973864 0.1254 0.121321 -0.984661 -0.0359271 0.0380362 -0.99863 
-0.107466 0.167738 -0.979957 -0.0855058 0.135377 -0.987098 -0.0407975 0.0579804 -0.997484 
0.0213305 0.0565053 -0.998174 0.115445 0.142115 -0.983095 0.231535 0.241637 -0.942339 
0.328335 0.41615 -0.847948 -0.155746 0.523621 -0.837594 -0.0308563 0.430746 -0.901945 
0.00875085 0.356341 -0.934315 -0.0422571 0.173727 -0.983887 -0.091681 0.0852131 -0.992136 
-0.0717281 0.0545623 -0.995931 -0.0409596 0.0946147 -0.994671 0.00561223 0.207538 -0.978211 
0.0913509 0.265827 -0.959683 0.208636 0.393152 -0.89549 -0.140222 0.343986 -0.928446 
-0.0872608 0.292171 -0.952377 0.0702731 0.348753 -0.934576 0.126562 0.446162 -0.885958 
-0.373846 -0.616072 -0.693322 -0.267195 -0.704384 -0.65761 -0.123801 -0.789589 -0.601018 
0.00748381 -0.815808 -0.578274 -0.00562023 -0.999978 -0.00346604 0.0183725 -0.815745 -0.57812 
-0.000711221 -0.821646 -0.569998 0.054054 -0.830727 -0.554049 0.175377 -0.778004 -0.603285 
0.289512 -0.716164 -0.635053 -0.375364 -0.615086 -0.693377 -0.418683 -0.502896 -0.756175 
0.349644 -0.697325 -0.625689 0.375493 -0.656869 -0.653856 0.45457 -0.868652 -0.197002 
-0.447342 -0.4772 -0.756416 -0.476839 -0.472754 -0.741032 -0.685119 -0.683978 -0.250571 
0.488005 -0.49751 -0.717172 0.487617 -0.49718 -0.717664 0.491384 -0.50171 -0.711919 
0.594631 -0.413772 -0.689352 -0.483995 -0.473252 -0.736058 -0.619655 -0.35307 -0.700978 
-0.7862 -0.604831 -0.126767 0.667316 -0.323891 -0.67066 -0.657462 -0.268532 -0.704013 
0.521094 -0.0956204 -0.848126 0.961252 -0.26747 -0.0667359 -0.598802 -0.0466166 -0.799539 
0.558406 -0.0164941 -0.829404 0.880341 -0.048048 -0.471901 -0.608494 0.0270611 -0.793097 
-0.982499 0.0152696 -0.185642 0.502336 0.196259 -0.842105 0.475486 0.227371 -0.849833 
0.897207 0.22907 -0.377553 -0.643049 0.174348 -0.745715 -0.622033 0.271232 -0.734512 
0.478043 0.245615 -0.843296 0.55721 0.283299 -0.78055 -0.529792 0.412405 -0.741109 
-0.679262 0.463888 -0.568692 -0.391755 0.529275 -0.752593 0.313938 0.443233 -0.839635 
0.331919 0.417443 -0.845915 0.330336 0.418938 -0.845795 0.686632 0.588567 -0.426762 
-0.287571 0.565379 -0.773078 -0.492476 0.669637 -0.555926 -0.176745 0.57496 -0.798863 
-0.0708396 0.523647 -0.848985 -0.0643301 0.412331 -0.90876 -0.130411 0.350798 -0.927326 
0.19252 0.529303 -0.826302 0.302185 0.469129 -0.829821 0.264216 0.510801 -0.818091 
0.33942 0.506797 -0.792434 0.579201 0.712318 -0.396395 -0.26216 0.804903 -0.532356 
-0.190716 0.590163 -0.784433 -0.144235 0.377208 -0.914828 -0.155688 0.409349 -0.898997 
-0.142954 0.385673 -0.911494 -0.078227 0.474102 -0.876988 0.0906606 0.502665 -0.859714 
0.183673 0.525421 -0.830781 0.133739 0.496734 -0.857537 0.200352 0.547454 -0.812498 
0.366179 0.738482 -0.566178 -0.205934 0.861279 -0.464532 -0.0680808 0.799444 -0.59687 
0.121231 0.812357 -0.57042 0.233278 0.872594 -0.42914 -0.00596098 -0.99995 0.00797285 
-0.410401 -0.90076 -0.142137 -0.217439 -0.97205 -0.0885348 -0.0202229 -0.999784 -0.00487907 
-0.0711243 -0.996123 -0.0517679 0.00182237 -0.99979 0.0203985 -0.00357915 -0.999873 0.0155475 
0.0134463 -0.999192 0.0378803 0.0549932 -0.995541 0.0766435 0.0761829 -0.988351 0.131754 
0.101837 -0.982399 0.156596 0.325634 -0.941411 0.0877884 0.460653 -0.882278 0.0968728 
-0.690889 -0.710639 -0.132904 -0.570415 -0.808415 -0.145232 -0.579707 -0.801356 -0.14754 
0.292532 -0.611802 0.734931 0.480243 -0.867407 0.130274 0.469306 -0.838557 0.27672 
0.548214 -0.826162 0.13007 -0.701011 -0.700823 -0.132024 -0.788589 -0.605731 -0.105912 
-0.704941 -0.670753 0.230539 0.693343 -0.711921 0.11155 0.446479 -0.590546 0.672244 
0.720422 -0.680953 0.131509 -0.790692 -0.603009 -0.105766 -0.795158 -0.603507 -0.0591889 
0.840875 -0.537294 0.0651542 0.604303 -0.609286 0.513408 0.954523 -0.296869 0.0274619 
-0.898289 -0.424777 -0.112431 0.965128 -0.261083 0.0190927 0.957958 -0.27591 0.0786768 
-0.976999 -0.1683 -0.130951 -0.988766 -0.0618289 -0.136082 0.996235 -0.0711978 -0.0494554 
0.879151 -0.120258 0.461119 -0.98971 0.0142463 -0.142375 -0.984004 0.106822 -0.142563 
-0.999701 0.0152956 -0.0190985 0.975721 0.204684 -0.0779302 0.938762 0.318847 -0.130621 
0.932481 0.158646 0.324517 -0.937277 0.313342 -0.152739 0.883677 0.419845 -0.206991 
-0.827598 0.54227 -0.145 -0.751918 0.641262 -0.152979 0.752719 0.614346 -0.236629 
0.717317 0.651958 -0.245778 -0.630596 0.755638 -0.177084 -0.555382 0.809182 -0.191771 
-0.401021 0.870798 -0.284417 0.493874 0.820341 -0.288323 0.619677 0.737031 -0.269789 
0.598398 0.752325 -0.275548 -0.384955 0.873268 -0.298687 -0.31382 0.87649 -0.365079 
-0.287986 0.889162 -0.355606 -0.274634 0.895963 -0.349037 0.33547 0.879542 -0.337441 
0.470608 0.831163 -0.296136 0.41631 0.846027 -0.333053 -0.26583 0.902292 -0.339416 
-0.256902 0.965945 -0.0308562 -0.195466 0.938063 -0.286059 -0.058208 0.966325 -0.250656 
0.114845 0.949305 -0.292627 0.280756 0.898152 -0.338377 0.237796 0.906566 -0.3487 
-0.369576 -0.883652 0.287355 -0.198933 -0.93427 0.295913 -0.0225112 -0.948199 0.316879 
0.101926 -0.920452 0.377333 0.0939413 -0.900944 0.423644 0.115934 -0.850323 0.513333 
0.133168 -0.768659 0.625644 0.142964 -0.717755 0.681461 -0.52778 -0.801047 0.282439 
-0.571802 -0.768564 0.28697 -0.379296 -0.742941 0.551518 0.12699 -0.703074 0.699686 
0.191374 -0.711137 0.676506 0.173591 -0.675505 0.716631 0.287333 -0.609751 0.738676 
0.170173 -0.633628 0.754689 0.290627 -0.606073 0.740413 0.331269 -0.601765 0.726732 
-0.690568 -0.650153 0.316885 -0.693092 -0.645926 0.320004 0.219645 -0.434022 0.873716 
0.214191 -0.462572 0.860319 0.410203 -0.572585 0.709845 0.280901 -0.558859 0.780238 
0.428874 -0.559245 0.709445 -0.754184 -0.539661 0.374129 -0.773802 -0.503064 0.384912 
-0.584504 -0.397226 0.707508 0.245402 -0.34769 0.904925 0.597737 -0.604986 0.526025 
0.289236 -0.431988 0.854242 0.601813 -0.601989 0.524815 -0.82238 -0.379203 0.424142 
-0.68928 -0.369397 0.623249 0.321875 -0.272572 0.906698 0.69451 -0.316075 0.646337 
0.490945 -0.206039 0.846476 -0.886447 -0.176082 0.428026 -0.624 -0.203225 0.754535 
0.779588 -0.120817 0.614529 0.523825 -0.171315 0.834421 -0.91311 0.00971692 0.407598 
0.823641 0.0903965 0.559861 0.588463 -0.0179844 0.808324 -0.884477 0.272137 0.379 
-0.623098 0.244646 0.742898 0.875986 0.272431 0.398033 0.649754 0.139921 0.747155 
-0.784067 0.516683 0.343914 -0.742977 0.582607 0.329475 -0.725583 0.505836 0.46654 
0.788312 0.55029 0.275219 0.759162 0.597893 0.257287 0.755778 0.524331 0.392272 
-0.666071 0.688465 0.286993 -0.623665 0.734899 0.266393 -0.606018 0.636868 0.476594 
-0.458511 0.866866 0.195732 0.532601 0.837695 0.120848 0.668679 0.71992 0.185969 
0.645055 0.74482 0.170723 0.645269 0.672532 0.362394 -0.451781 0.871227 0.191983 
-0.349139 0.92312 0.161092 -0.325186 0.767913 0.551872 -0.27056 0.948221 0.166357 
0.35124 0.932202 0.0873457 0.51938 0.846614 0.116145 0.45018 0.886482 0.107178 
-0.226103 0.946575 0.229942 -0.221103 0.946309 0.235825 -0.217867 0.942568 0.253178 
-0.153309 0.949125 0.275059 -0.155683 0.899614 0.407993 -0.0812115 0.96535 0.247999 
-0.138251 0.868701 0.475653 0.0363315 0.986205 0.161495 -0.0387718 0.86765 0.495661 
0.326989 0.94088 0.0884458 0.197257 0.975714 0.0952521 0.165789 0.905999 0.389461 
-0.154493 -0.724557 0.671676 0.0230219 -0.708934 0.704899 0.0953463 -0.693805 0.713824 
-0.503501 -0.503013 0.70247 -0.249798 -0.698115 0.670996 -0.361738 -0.626947 0.689988 
-0.144667 -0.678991 0.719752 0.0266152 -0.647746 0.761391 0.118593 -0.690428 0.713614 
0.0935191 -0.666475 0.739639 0.127283 -0.684925 0.71741 0.218514 -0.622976 0.751101 
0.264312 -0.515531 0.815087 -0.504734 -0.500864 0.703121 -0.502836 -0.499694 0.70531 
-0.293137 -0.370838 0.881221 -0.1315 -0.350601 0.927247 0.0332346 -0.361715 0.931696 
0.0800701 -0.370724 0.925285 0.090309 -0.390623 0.91611 0.215789 -0.476709 0.852164 
0.255106 -0.476976 0.841079 0.273834 -0.499877 0.821667 0.237549 -0.410256 0.880489 
0.222775 -0.346501 0.911213 -0.519397 -0.336532 0.785476 -0.506429 -0.334211 0.794879 
-0.393261 -0.237477 0.888229 -0.25617 -0.181178 0.949501 -0.144478 -0.142447 0.979201 
0.0628401 -0.276251 0.959029 0.0240729 -0.25122 0.967631 0.0612369 -0.276548 0.959047 
0.293118 -0.47616 0.829068 0.290768 -0.395811 0.871084 0.227937 -0.330223 0.915968 
0.226355 -0.327722 0.917257 0.24225 -0.29288 0.924952 -0.50679 -0.32197 0.799687 
-0.44116 -0.280054 0.852613 -0.280955 -0.173554 0.943898 -0.188318 -0.139464 0.972155 
0.423025 -0.365838 0.828983 0.265972 -0.268636 0.925794 0.280117 -0.258971 0.924375 
0.24376 -0.269718 0.931576 0.275825 -0.233884 0.932319 -0.606747 -0.203172 0.768492 
-0.620769 -0.170874 0.765145 -0.389606 -0.146072 0.909324 -0.274543 -0.137261 0.951728 
0.298263 -0.332682 0.89463 0.238316 -0.266548 0.933894 0.327864 -0.221094 0.918489 
0.261934 -0.229349 0.937438 -0.655524 -0.000506348 0.755175 -0.621165 0.213001 0.754178 
-0.615411 -0.00453947 0.788194 -0.395982 -0.023846 0.917949 -0.301583 -0.0567474 0.95175 
0.34784 -0.195614 0.91692 0.500694 -0.0504461 0.864153 0.391274 -0.122286 0.912113 
-0.610917 0.242495 0.753642 -0.422409 0.141831 0.89524 -0.338255 0.106462 0.935013 
0.375165 -0.0136897 0.926857 0.55038 0.0970844 0.829251 0.449734 0.0238577 0.892844 
-0.546774 0.400435 0.735316 -0.522613 0.444009 0.727826 -0.508307 0.372631 0.776383 
-0.331203 0.304952 0.892922 0.34408 0.214661 0.914073 0.601317 0.329145 0.728067 
0.588758 0.413361 0.69462 0.555324 0.283272 0.781903 -0.437899 0.527728 0.727838 
-0.397215 0.570775 0.718634 -0.383976 0.503742 0.773826 -0.299369 0.667415 0.681862 
-0.253188 0.469111 0.846068 -0.106818 0.417301 0.902469 -0.0743173 0.353257 0.93257 
-0.103522 0.273192 0.956373 0.132776 0.244827 0.960432 0.292436 0.407927 0.864915 
0.527801 0.552062 0.645488 0.476066 0.61887 0.624789 0.437651 0.507677 0.742109 
-0.248516 0.696354 0.673298 -0.191056 0.720911 0.666171 -0.185567 0.663211 0.725063 
-0.120533 0.719032 0.684445 -0.114322 0.620002 0.776227 -0.160693 0.706988 0.688727 
-0.150747 0.577825 0.802118 -0.171533 0.761263 0.625344 -0.178529 0.511556 0.840499 
-0.0499516 0.836164 0.5462 -0.0452822 0.424406 0.904339 0.15075 0.836595 0.526672 
0.122448 0.450424 0.884378 0.329245 0.770234 0.546202 0.299885 0.552546 0.777665 
0.422561 0.691415 0.585993 0.41765 0.694716 0.58561 0.41467 0.682519 0.601844 
0.00231241 -0.193138 0.981169 -0.0568463 -0.16304 0.98498 -0.135308 -0.111991 0.984454 
0.0250048 -0.217353 0.975773 -0.00118575 -0.175873 0.984412 0.0566327 -0.26267 0.963222 
0.0488894 -0.213071 0.975813 0.00950816 -0.189172 0.981898 0.211265 -0.373426 0.903283 
-0.138913 -0.0996175 0.985282 -0.182628 -0.147372 0.972074 -0.128236 -0.0894584 0.987701 
-0.104759 -0.108869 0.988521 0.00630404 -0.158495 0.98734 0.0838265 -0.164284 0.982845 
-0.0309088 -0.111586 0.993274 0.289758 -0.33119 0.897972 0.116203 -0.26488 0.957254 
0.380719 -0.286147 0.879303 -0.190222 -0.146892 0.97069 -0.182917 -0.149125 0.971753 
-0.112668 -0.175676 0.97798 -0.0632152 -0.112828 0.991602 0.0100189 0.0309371 0.999471 
0.0656958 -0.144708 0.987291 -0.0594045 -0.20033 0.977926 0.0222453 -0.088374 0.995839 
0.348268 -0.269057 0.897952 0.351177 -0.240744 0.90483 0.272236 -0.267443 0.924317 
-0.279671 -0.0673172 0.957733 -0.22381 -0.0886627 0.970591 -0.0900002 -0.10819 0.990048 
0.097771 -0.0380572 0.994481 -0.0209344 0.0631816 0.997782 -0.156394 -0.04628 0.98661 
0.036407 -0.0235323 0.99906 0.0917101 0.0960231 0.991145 0.153328 -0.0797122 0.984955 
0.283349 -0.238257 0.928949 0.26368 -0.246698 0.93253 -0.302471 0.0967993 0.948231 
-0.232261 0.0913868 0.968351 -0.0574265 0.112907 0.991945 0.113145 0.116234 0.986756 
0.0112508 0.0471895 0.998823 -0.01633 0.156601 0.987527 0.0805001 0.196445 0.977205 
-0.0530656 0.138942 0.988878 -0.00454033 0.0545987 0.998498 0.28955 -0.00689499 0.957138 
0.213374 5.45873e-05 0.976971 -0.214136 0.267136 0.939566 -0.214116 0.267172 0.93956 
-0.21411 0.267131 0.939573 -0.0800336 0.333816 0.939235 -0.0682295 0.277582 0.958276 
-0.0194774 0.281957 0.959229 0.0317856 0.225345 0.97376 -0.0650579 0.210899 0.975341 
0.00439031 0.103229 0.994648 -0.0105587 0.112374 0.99361 0.0196262 0.0334848 0.999246 
-0.0317273 0.0456141 0.998455 0.124271 0.23708 0.963509 0.0158471 0.148091 0.988847 
0.21948 0.184299 0.958051 0.211092 0.227836 0.950542 0.18933 0.178571 0.96554 
-0.0866006 0.233914 0.968393 -0.0873782 0.24066 0.966668 -0.0684555 0.191242 0.979153 
-0.0171555 0.239082 0.970848 0.00263801 0.107213 0.994233 0.116585 0.222855 0.967855 
0.0655391 0.196578 0.978295 0.0534215 0.132799 0.989702 
