# vtk DataFile Version 4.2
vtk output
ASCII
DATASET POLYDATA
POINTS 532 float
-19.989 -45.3755 -16.8746 -11.3837 -45.3755 -18.4304 -2.77843 -45.3755 -16.9227 
5.82686 -45.3755 -14.8436 -28.5943 -36.7702 -17.8328 -19.989 -36.7702 -19.6148 
-11.3837 -36.7702 -20.1538 -2.77843 -36.7702 -19.2861 5.82686 -36.7702 -17.6999 
14.4322 -36.7702 -17.1254 23.0374 -36.7702 -16.7364 31.6427 -36.7702 -15.7301 
-37.1996 -28.1649 -18.3991 -28.5943 -28.1649 -19.8954 -19.989 -28.1649 -19.8641 
-11.3837 -28.1649 -19.6911 -2.77843 -28.1649 -18.977 5.82686 -28.1649 -18.4792 
14.4322 -28.1649 -18.8872 23.0374 -28.1649 -19.6321 31.6427 -28.1649 -19.8997 
40.248 -28.1649 -19.6317 48.8533 -28.1649 -16.5162 -45.8049 -19.5596 -18.9848 
-37.1996 -19.5596 -20.61 -28.5943 -19.5596 -20.7311 -19.989 -19.5596 -19.475 
-11.3837 -19.5596 -18.35 -2.77843 -19.5596 -17.1171 5.82686 -19.5596 -17.8007 
14.4322 -19.5596 -18.9989 23.0374 -19.5596 -20.6915 31.6427 -19.5596 -21.2785 
40.248 -19.5596 -21.4866 48.8533 -19.5596 -20.2103 57.4586 -19.5596 -15.1056 
-54.4102 -10.9543 -16.0086 -45.8049 -10.9543 -19.9776 -37.1996 -10.9543 -21.7131 
-28.5943 -10.9543 -20.9856 -19.989 -10.9543 -19.1154 -11.3837 -10.9543 -17.7967 
-2.77843 -10.9543 -18.3809 5.82686 -10.9543 -18.0608 14.4322 -10.9543 -18.0852 
23.0374 -10.9543 -20.1493 31.6427 -10.9543 -21.9041 40.248 -10.9543 -22.8643 
48.8533 -10.9543 -21.3604 57.4586 -10.9543 -17.81 -54.4102 -2.349 -15.7878 
-45.8049 -2.349 -19.0977 -37.1996 -2.349 -20.8418 -28.5943 -2.349 -20.0845 
-19.989 -2.349 -18.8305 -11.3837 -2.349 -20.8658 -2.77843 -2.349 -19.1176 
5.82686 -2.349 -19.7896 14.4322 -2.349 -19.2197 23.0374 -2.349 -19.9361 
31.6427 -2.349 -21.7567 40.248 -2.349 -23.0088 48.8533 -2.349 -21.7201 
57.4586 -2.349 -18.6111 -45.8049 6.25629 -16.9014 -37.1996 6.25629 -18.7869 
-28.5943 6.25629 -19.1373 -19.989 6.25629 -18.9813 -11.3837 6.25629 -20.4869 
-2.77843 6.25629 -17.6131 5.82686 6.25629 -22.6919 14.4322 6.25629 -20.4936 
23.0374 6.25629 -19.4001 31.6427 6.25629 -20.964 40.248 6.25629 -21.9925 
48.8533 6.25629 -22.0907 57.4586 6.25629 -18.0568 -37.1996 14.8616 -16.8998 
-28.5943 14.8616 -17.705 -19.989 14.8616 -17.929 -11.3837 14.8616 -18.7183 
-2.77843 14.8616 -19.4956 5.82686 14.8616 -19.8837 14.4322 14.8616 -18.1172 
23.0374 14.8616 -18.9 31.6427 14.8616 -19.9104 40.248 14.8616 -20.2326 
48.8533 14.8616 -19.573 57.4586 14.8616 -14.9946 -28.5943 23.4669 -15.1129 
-19.989 23.4669 -15.4372 -11.3837 23.4669 -16.8182 -2.77843 23.4669 -18.1252 
5.82686 23.4669 -17.7021 14.4322 23.4669 -17.9608 23.0374 23.4669 -18.3456 
31.6427 23.4669 -18.8667 40.248 23.4669 -19.0503 48.8533 23.4669 -16.4005 
-2.77843 32.0722 -15.2906 5.82686 32.0722 -15.3212 14.4322 32.0722 -15.5986 
23.0374 32.0722 -16.5523 31.6427 32.0722 -16.1784 40.248 32.0722 -15.1231 
-19.989 -48.2881 -14.8164 -11.3837 -50.2003 -14.8164 -11.3837 -53.9807 -8.3811 
-2.77843 -48.0127 -14.8164 5.82686 -45.405 -14.8164 -23.7124 -45.3755 -14.8164 
-28.5943 -41.259 -14.8164 -28.5943 -45.3755 -8.67699 5.89513 -45.3755 -14.8164 
14.4322 -40.4899 -14.8164 14.4322 -45.3755 -6.62733 23.0374 -38.8582 -14.8164 
31.6427 -37.6457 -14.8164 -33.4826 -36.7702 -14.8164 -37.1996 -33.4214 -14.8164 
-37.1996 -36.7702 -9.04193 34.9941 -36.7702 -14.8164 40.248 -34.8561 -14.8164 
40.248 -36.7702 -11.7229 48.8533 -30.1249 -14.8164 -44.8386 -28.1649 -14.8164 
-45.8049 -27.3439 -14.8164 -45.8049 -28.1649 -13.8558 51.0743 -28.1649 -14.8164 
57.4586 -19.8759 -14.8164 -52.6067 -19.5596 -14.8164 -54.4102 -15.4393 -14.8164 
-54.4102 -19.5596 -13.0255 57.6677 -19.5596 -14.8164 -55.9345 -10.9543 -14.8164 
60.7959 -10.9543 -14.8164 -55.8839 -2.349 -14.8164 -54.4102 0.421436 -14.8164 
61.9586 -2.349 -14.8164 -50.0267 6.25629 -14.8164 -54.4102 6.25629 -12.1741 
-45.8049 14.1029 -14.8164 61.3274 6.25629 -14.8164 -54.4102 14.8616 -8.29732 
-45.124 14.8616 -14.8164 -45.8049 14.8616 -14.5844 -37.1996 20.6147 -14.8164 
57.6754 14.8616 -14.8164 57.4586 15.1954 -14.8164 -45.8049 23.4669 -10.2785 
-30.4717 23.4669 -14.8164 -37.1996 23.4669 -13.6619 -28.5943 24.1715 -14.8164 
-19.989 25.2664 -14.8164 -11.3837 30.1819 -14.8164 51.3399 23.4669 -14.8164 
48.8533 25.8269 -14.8164 -37.1996 32.0722 -9.03945 -28.5943 32.0722 -10.9821 
-19.989 32.0722 -12.3517 -6.61314 32.0722 -14.8164 -11.3837 32.0722 -14.2243 
-2.77843 33.0502 -14.8164 5.82686 33.1209 -14.8164 14.4322 33.621 -14.8164 
23.0374 35.2177 -14.8164 31.6427 34.151 -14.8164 40.8339 32.0722 -14.8164 
40.248 32.4482 -14.8164 -19.989 40.6775 -7.80613 -11.3837 40.6775 -9.91397 
-2.77843 40.6775 -10.6633 5.82686 40.6775 -10.6004 14.4322 40.6775 -10.6986 
23.0374 40.6775 -10.4896 31.6427 40.6775 -7.1689 -11.3837 -54.7803 -6.21109 
-28.5943 -46.6434 -6.21109 -18.8686 -53.9807 -6.21109 -19.989 -53.8305 -6.21109 
-7.6725 -53.9807 -6.21109 -11.3837 -53.9807 -3.82698 -2.77843 -52.9081 -6.21109 
5.82686 -49.1683 -6.21109 14.4322 -45.5499 -6.21109 -29.8799 -45.3755 -6.21109 
-37.1996 -38.0688 -6.21109 -28.5943 -45.3755 -1.4857 15.1876 -45.3755 -6.21109 
14.4322 -45.3755 -5.54055 23.0374 -43.6855 -6.21109 31.6427 -41.7814 -6.21109 
40.248 -38.9617 -6.21109 -38.6029 -36.7702 -6.21109 -45.8049 -31.4846 -6.21109 
-37.1996 -36.7702 -0.728448 44.5167 -36.7702 -6.21109 40.248 -36.7702 1.58122 
48.8533 -34.1949 -6.21109 -50.1026 -28.1649 -6.21109 -54.4102 -24.2521 -6.21109 
54.9151 -28.1649 -6.21109 57.4586 -24.6642 -6.21109 -58.2939 -19.5596 -6.21109 
60.7152 -19.5596 -6.21109 -62.0162 -10.9543 -6.21109 63.6081 -10.9543 -6.21109 
-62.8997 -2.349 -6.21109 -63.0155 -2.349 -4.81774 64.8317 -2.349 -6.21109 
-59.9989 6.25629 -6.21109 64.5137 6.25629 -6.21109 -55.9841 14.8616 -6.21109 
-54.4102 18.6506 -6.21109 61.7465 14.8616 -6.21109 57.4586 22.1505 -6.21109 
-51.73 23.4669 -6.21109 -54.4102 23.4669 -1.36756 -45.8049 29.7426 -6.21109 
56.5603 23.4669 -6.21109 48.8533 31.8576 -6.21109 -42.9101 32.0722 -6.21109 
-45.8049 32.0722 -3.81434 -37.1996 35.9988 -6.21109 -28.5943 39.5332 -6.21109 
48.5903 32.0722 -6.21109 40.248 37.7901 -6.21109 -37.1996 40.6775 -1.16861 
-25.8914 40.6775 -6.21109 -28.5943 40.6775 -5.31542 -19.989 43.0663 -6.21109 
-11.3837 45.9816 -6.21109 -2.77843 46.7817 -6.21109 5.82686 46.1709 -6.21109 
14.4322 45.483 -6.21109 23.0374 43.7694 -6.21109 32.9274 40.6775 -6.21109 
31.6427 41.1742 -6.21109 -19.989 49.2827 -0.475766 -11.3837 49.2827 -2.92717 
-2.77843 49.2827 -3.61702 5.82686 49.2827 -2.16929 14.4322 49.2827 2.07103 
-19.989 -50.4768 2.3942 -11.3837 -51.6462 2.3942 -2.77843 -50.0557 2.3942 
5.82686 -46.7542 2.3942 -27.3626 -45.3755 2.3942 -28.5943 -44.3662 2.3942 
-19.989 -45.3755 10.8109 -2.77843 -45.3755 8.89483 8.99361 -45.3755 2.3942 
5.82686 -45.3755 4.39592 14.4322 -43.2954 2.3942 23.0374 -41.414 2.3942 
31.6427 -39.5375 2.3942 -45.8049 -29.9159 2.3942 -36.4655 -36.7702 2.3942 
-37.1996 -36.0883 2.3942 23.0374 -36.7702 9.5031 39.6111 -36.7702 2.3942 
31.6427 -36.7702 6.80172 40.248 -36.4919 2.3942 48.8533 -30.9821 2.3942 
-48.1796 -28.1649 2.3942 -54.4102 -23.1933 2.3942 -45.8049 -28.1649 6.34929 
51.8339 -28.1649 2.3942 48.8533 -28.1649 6.2961 57.4586 -20.7792 2.3942 
-57.8355 -19.5596 2.3942 -54.4102 -19.5596 9.17319 58.2337 -19.5596 2.3942 
57.4586 -19.5596 3.67392 -62.6383 -10.9543 2.3942 -63.0155 -7.51373 2.3942 
61.1628 -10.9543 2.3942 57.4586 -10.9543 7.83817 -63.5205 -2.349 2.3942 
-63.0155 0.46973 2.3942 -63.0155 -2.349 3.93613 62.4835 -2.349 2.3942 
57.4586 -2.349 9.4572 -61.9682 6.25629 2.3942 62.1426 6.25629 2.3942 
57.4586 6.25629 8.96206 -59.2584 14.8616 2.3942 58.9894 14.8616 2.3942 
57.4586 17.5979 2.3942 57.4586 14.8616 4.53238 -55.6345 23.4669 2.3942 
-54.4102 25.4784 2.3942 -54.4102 23.4669 7.39079 53.5959 23.4669 2.3942 
48.8533 28.7249 2.3942 48.8533 23.4669 7.69308 -49.7205 32.0722 2.3942 
-45.8049 36.3784 2.3942 45.2144 32.0722 2.3942 40.248 36.0634 2.3942 
40.248 32.0722 7.63199 -40.5647 40.6775 2.3942 -37.1996 43.0553 2.3942 
-28.5943 47.4654 2.3942 23.0374 46.2562 2.3942 33.7645 40.6775 2.3942 
31.6427 41.9756 2.3942 31.6427 40.6775 4.9639 -24.7422 49.2827 2.3942 
-19.989 51.2223 2.3942 -11.3837 52.6475 2.3942 -2.77843 52.7869 2.3942 
5.82686 51.6063 2.3942 14.7494 49.2827 2.3942 14.4322 49.3927 2.3942 
14.4322 49.2827 3.35761 -11.3837 -45.7185 10.9995 -28.5943 -40.0094 10.9995 
-17.7026 -45.3755 10.9995 -19.989 -45.2323 10.9995 -9.96929 -45.3755 10.9995 
-11.3837 -45.3755 11.3579 -2.77843 -43.2782 10.9995 5.82686 -40.2483 10.9995 
14.4322 -37.5222 10.9995 -32.0278 -36.7702 10.9995 -37.1996 -31.9728 10.9995 
-28.5943 -36.7702 14.2127 -19.989 -36.7702 17.6314 -11.3837 -36.7702 17.4775 
-2.77843 -36.7702 15.8359 5.82686 -36.7702 13.878 17.7632 -36.7702 10.9995 
14.4322 -36.7702 11.754 23.0374 -35.3458 10.9995 31.6427 -33.0835 10.9995 
40.248 -29.231 10.9995 -42.3513 -28.1649 10.9995 -45.8049 -25.137 10.9995 
-37.1996 -28.1649 14.6293 -28.5943 -28.1649 18.3253 -2.77843 -28.1649 18.8465 
5.82686 -28.1649 17.8394 14.4322 -28.1649 16.9371 23.0374 -28.1649 16.0801 
31.6427 -28.1649 14.8514 42.0621 -28.1649 10.9995 40.248 -28.1649 11.8842 
48.8533 -22.1812 10.9995 -52.7528 -19.5596 10.9995 -54.4102 -17.7361 10.9995 
-45.8049 -19.5596 15.3858 -37.1996 -19.5596 18.2306 -28.5943 -19.5596 19.4765 
-11.3837 -19.5596 19.5984 -2.77843 -19.5596 19.0568 5.82686 -19.5596 18.8457 
14.4322 -19.5596 18.7778 23.0374 -19.5596 19.1938 31.6427 -19.5596 18.8103 
40.248 -19.5596 17.2069 50.8191 -19.5596 10.9995 48.8533 -19.5596 12.488 
-58.279 -10.9543 10.9995 -54.4102 -10.9543 15.1964 -45.8049 -10.9543 18.7912 
-19.989 -10.9543 19.4408 -11.3837 -10.9543 18.9969 40.248 -10.9543 19.4128 
54.5611 -10.9543 10.9995 48.8533 -10.9543 15.4527 -59.8799 -2.349 10.9995 
-54.4102 -2.349 15.6487 -19.989 -2.349 19.5753 55.8969 -2.349 10.9995 
48.8533 -2.349 16.1563 -58.5189 6.25629 10.9995 -54.4102 6.25629 15.5222 
-19.989 6.25629 19.5415 40.248 6.25629 18.5234 55.097 6.25629 10.9995 
48.8533 6.25629 15.0865 -56.5871 14.8616 10.9995 -54.4102 20.8025 10.9995 
-54.4102 14.8616 13.3398 -45.8049 14.8616 17.5113 -37.1996 14.8616 19.4778 
[...]
POINT_DATA 532
SCALARS ImageScalars float
LOOKUP_TABLE default
0 0 0 0 0 0 0 0 0 
0 0 0 0 0 0 0 0 0 
0 0 0 0 0 0 0 0 0 
0 0 0 0 0 0 0 0 0 
0 0 0 0 0 0 0 0 0 
0 0 0 0 0 0 0 0 0 
0 0 0 0 0 0 0 0 0 
0 0 0 0 0 0 0 0 0 
0 0 0 0 0 0 0 0 0 
0 0 0 0 0 0 0 0 0 
0 0 0 0 0 0 0 0 0 
0 0 0 0 0 0 0 0 0 
0 0 0 0 0 0 0 0 0 
0 0 0 0 0 0 0 0 0 
0 0 0 0 0 0 0 0 0 
0 0 0 0 0 0 0 0 0 
0 0 0 0 0 0 0 0 0 
0 0 0 0 0 0 0 0 0 
0 0 0 0 0 0 0 0 0 
0 0 0 0 0 0 0 0 0 
0 0 0 0 0 0 0 0 0 
0 0 0 0 0 0 0 0 0 
0 0 0 0 0 0 0 0 0 
0 0 0 0 0 0 0 0 0 
0 0 0 0 0 0 0 0 0 
0 0 0 0 0 0 0 0 0 
0 0 0 0 0 0 0 0 0 
0 0 0 0 0 0 0 0 0 
0 0 0 0 0 0 0 0 0 
0 0 0 0 0 0 0 0 0 
0 0 0 0 0 0 0 0 0 
0 0 0 0 0 0 0 0 0 
0 0 0 0 0 0 0 0 0 
0 0 0 0 0 0 0 0 0 
0 0 0 0 0 0 0 0 0 
0 0 0 0 0 0 0 0 0 
0 0 0 0 0 0 0 0 0 
0 0 0 0 0 0 0 0 0 
0 0 0 0 0 0 0 0 0 
0 0 0 0 0 0 0 0 0 
0 0 0 0 0 0 0 0 0 
0 0 0 0 0 0 0 0 0 
0 0 0 0 0 0 0 0 0 
0 0 0 0 0 0 0 0 0 
0 0 0 0 0 0 0 0 0 
0 0 0 0 0 0 0 0 0 
0 0 0 0 0 0 0 0 0 
0 0 0 0 0 0 0 0 0 
0 0 0 0 0 0 0 0 0 
0 0 0 0 0 0 0 0 0 
0 0 0 0 0 0 0 0 0 
0 0 0 0 0 0 0 0 0 
0 0 0 0 0 0 0 0 0 
0 0 0 0 0 0 0 0 0 
0 0 0 0 0 0 0 0 0 
0 0 0 0 0 0 0 0 0 
0 0 0 0 0 0 0 0 0 
0 0 0 0 0 0 0 0 0 
0 0 0 0 0 0 0 0 0 
0 
NORMALS Normals float
0.320369 0.465592 0.824978 0.00227594 0.422678 0.906277 -0.195778 0.485924 0.851792 
-0.304656 0.628405 0.715745 0.3699 0.395864 0.840515 0.113226 0.144707 0.982975 
-0.0181059 0.0561891 0.998256 -0.140992 0.096408 0.985305 -0.124241 0.197917 0.972313 
-0.0507888 0.396344 0.916696 -0.0763862 0.572352 0.816442 -0.160703 0.675067 0.720041 
0.297212 0.422752 0.856123 0.0701446 0.14971 0.986239 -0.0117695 -0.00838653 0.999896 
-0.0511592 -0.102647 0.993401 -0.0710903 -0.117819 0.990487 -0.00548544 0.00357917 0.999979 
0.0676209 0.109234 0.991713 0.0570744 0.187062 0.980689 0.00313735 0.276509 0.961006 
-0.176202 0.394576 0.901811 -0.468079 0.538828 0.700404 0.36336 0.290956 0.88505 
0.0855078 0.166788 0.982278 -0.0657881 0.0609878 0.995968 -0.141067 -0.0426193 0.989082 
-0.133795 -0.107659 0.985144 -0.0327962 -0.0534882 0.99803 0.107223 -0.025563 0.993906 
0.165404 -0.0456292 0.98517 0.132587 0.0309913 0.990687 0.0454163 0.110583 0.992829 
-0.050613 0.167294 0.984607 -0.268201 0.286816 0.919676 -0.730026 0.447008 0.516959 
0.586072 0.100235 0.804035 0.280071 -0.00623211 0.959959 0.0651775 0.0130449 0.997788 
-0.140198 -0.033407 0.98956 -0.179506 -0.0384924 0.983004 -0.0483087 0.13402 0.9898 
0.0136771 0.115189 0.993249 -0.0134249 0.105329 0.994347 0.122107 0.00155835 0.992516 
0.220336 -0.0428308 0.974483 0.15382 0.0279377 0.987704 -0.0342597 0.0872779 0.995595 
-0.255625 0.0764659 0.963747 -0.608494 0.142129 0.780727 0.508343 -0.16543 0.845116 
0.270417 -0.161988 0.949018 0.0671453 -0.16877 0.983366 -0.118962 -0.109591 0.986832 
0.0341506 -0.00633822 0.999397 0.052913 0.143065 0.988298 -0.068319 -0.06094 0.995801 
-0.000342366 0.258984 0.965882 0.0120376 0.14651 0.989136 0.136834 -0.043953 0.989618 
0.173915 -0.055362 0.983203 -0.0123687 -0.0501997 0.998663 -0.229628 0.0384366 0.972519 
-0.555169 0.0110408 0.831664 0.308981 -0.261869 0.914306 0.118703 -0.227412 0.966537 
0.0107026 -0.135729 0.990688 0.0776881 -0.0520578 0.995618 -0.0684572 -0.121355 0.990246 
0.0618765 0.0535435 0.996647 0.197276 -0.00445899 0.980338 -0.185444 -0.0864043 0.978849 
0.0389582 -0.0558283 0.99768 0.145825 -0.102658 0.98397 0.0648418 -0.15813 0.985287 
-0.208199 -0.105738 0.972354 -0.558607 -0.187318 0.808004 0.171397 -0.272557 0.94675 
0.0593239 -0.226296 0.97225 0.0576088 -0.200044 0.978092 0.090598 -0.207097 0.974117 
0.0643024 0.0239169 0.997644 -0.0817225 -0.258316 0.962598 -0.0558539 -0.127626 0.990248 
0.107549 -0.0631939 0.992189 0.0705487 -0.118948 0.990391 -0.0155769 -0.160533 0.986908 
-0.27089 -0.315525 0.90943 -0.60865 -0.405237 0.68215 0.0931382 -0.353298 0.930863 
0.0942626 -0.306932 0.947052 0.151874 -0.246069 0.95728 0.0482829 -0.228563 0.972331 
-0.00902334 -0.241157 0.970444 0.0373864 -0.133335 0.990366 0.0501561 -0.126552 0.990691 
0.0395071 -0.193502 0.980304 -0.140079 -0.291814 0.946162 -0.408354 -0.453482 0.792213 
0.0586697 -0.383843 0.921533 0.0161853 -0.360665 0.932555 0.0696093 -0.366705 0.92773 
0.0315935 -0.360373 0.932273 -0.0854141 -0.45921 0.884212 -0.294933 -0.575875 0.762485 
0.341826 0.627416 0.699646 -0.0210977 0.670611 0.741509 -0.052395 0.984159 0.169367 
-0.228392 0.61909 0.751375 -0.30502 0.629875 0.714297 0.439712 0.572654 0.691896 
0.505275 0.556662 0.659412 0.670731 0.708056 0.220855 -0.304566 0.630159 0.71424 
-0.170935 0.584934 0.792864 -0.307221 0.9465 0.0987529 -0.131104 0.682665 0.718875 
-0.16767 0.715341 0.678361 0.51714 0.560789 0.646592 0.495997 0.583348 0.643189 
0.662535 0.710961 0.23576 -0.234502 0.715575 0.657998 -0.32013 0.6953 0.643487 
-0.385211 0.832651 0.397874 -0.496967 0.622508 0.604572 0.501582 0.60242 0.620891 
0.509971 0.592587 0.623515 0.53266 0.640273 0.553466 -0.558651 0.576652 0.596139 
-0.73529 0.457523 0.500022 0.582396 0.398899 0.708304 0.618256 0.26546 0.739791 
0.665236 0.449729 0.59599 -0.737897 0.452089 0.501123 0.639639 0.11633 0.759822 
-0.768332 0.213926 0.603243 0.566414 -0.168634 0.806683 0.535745 -0.20485 0.819154 
-0.783864 0.0266023 0.620362 0.445123 -0.276141 0.851829 0.623827 -0.306947 0.718765 
0.336958 -0.319172 0.88577 -0.741537 -0.19425 0.642175 0.721204 -0.365059 0.588725 
0.324816 -0.320976 0.889646 0.342466 -0.326359 0.881026 0.20888 -0.359015 0.909658 
-0.615951 -0.407986 0.673908 -0.614191 -0.412917 0.672509 0.440517 -0.432318 0.786795 
0.122389 -0.364844 0.92299 0.231203 -0.402436 0.885771 0.098732 -0.360899 0.927364 
0.106676 -0.324704 0.939781 0.157196 -0.338624 0.927698 -0.502035 -0.499596 0.70595 
-0.456281 -0.538093 0.708706 0.27254 -0.531102 0.80228 0.17128 -0.465538 0.868296 
0.165157 -0.392035 0.905004 0.103531 -0.376103 0.920776 0.158042 -0.365095 0.917458 
0.0584374 -0.400658 0.914362 0.0151245 -0.383578 0.923384 0.0635795 -0.402514 0.913203 
0.00821503 -0.462576 0.886541 -0.117926 -0.537289 0.835113 -0.315167 -0.587543 0.745294 
-0.302069 -0.589731 0.74898 0.212091 -0.528941 0.821729 0.139601 -0.515801 0.845258 
0.0356332 -0.542471 0.839318 0.00149127 -0.572961 0.819582 -0.00372559 -0.620382 0.784291 
-0.105379 -0.751314 0.651477 -0.311362 -0.892662 0.325895 -0.0534302 0.99842 0.0173975 
0.684292 0.725163 0.0766959 0.309538 0.950713 0.0181676 0.365335 0.930644 0.0207656 
-0.163284 0.98641 0.018248 -0.0499361 0.992616 -0.110545 -0.309632 0.950165 0.0362477 
-0.40744 0.910219 0.0741256 -0.307382 0.948795 0.072837 0.693101 0.716397 0.079911 
0.684701 0.725324 0.0713427 0.667027 0.73676 -0.110722 -0.298429 0.951799 0.0708472 
-0.307107 0.950875 0.039014 -0.218915 0.972906 0.0743673 -0.251557 0.965119 0.0725534 
-0.390558 0.918844 0.0564862 0.669628 0.739199 0.0719961 0.603091 0.793169 0.0846426 
0.674592 0.726368 -0.131587 -0.487284 0.872227 0.0421315 -0.428237 0.822681 -0.373909 
-0.605118 0.795415 0.0338607 0.621411 0.776414 0.105025 0.708971 0.687396 0.157631 
-0.779756 0.62586 0.0167528 -0.840157 0.542102 0.0161523 0.833581 0.518501 0.190525 
-0.895221 0.445503 0.0103492 0.936208 0.235277 0.261073 -0.974517 0.224313 0.000463406 
0.948463 -0.0891534 0.304089 0.969259 -0.0811439 0.232275 -0.998736 0.0500482 0.00464557 
0.840118 -0.320817 0.437354 -0.985396 -0.169527 0.0159884 0.776169 -0.383371 0.500588 
0.749714 -0.4154 0.515143 -0.916418 -0.399494 0.0241502 -0.82045 -0.569257 0.0529906 
0.669544 -0.466005 0.578403 0.842578 -0.481284 0.241718 0.527623 -0.57018 0.62969 
-0.796225 -0.602276 0.0573484 -0.641524 -0.760341 0.101635 0.461363 -0.595528 0.65764 
0.596041 -0.637442 0.488265 0.330465 -0.622752 0.709206 0.246253 -0.605442 0.756835 
-0.636553 -0.764296 0.103208 -0.456657 -0.87369 0.167722 0.45502 -0.775998 0.436787 
0.245367 -0.594046 0.766097 0.268752 -0.642123 0.717949 0.229458 -0.575832 0.784708 
0.123673 -0.651021 0.748917 0.00570548 -0.689646 0.724125 -0.0515233 -0.724999 0.686821 
-0.124028 -0.790306 0.600027 -0.211578 -0.880313 0.424598 -0.338266 -0.903594 0.262859 
-0.319866 -0.905593 0.278546 0.276331 -0.808183 0.520078 0.113412 -0.796745 0.593579 
-0.0175594 -0.807989 0.588936 -0.137476 -0.877823 0.458832 -0.287299 -0.949803 0.123828 
0.332056 0.854969 -0.398455 -0.0265983 0.883764 -0.467177 -0.23333 0.860996 -0.451932 
-0.361158 0.833077 -0.418983 0.595188 0.750477 -0.287288 0.632589 0.726814 -0.26753 
0.239832 0.744275 -0.623326 -0.2287 0.731366 -0.642495 -0.33973 0.847412 -0.408015 
-0.345251 0.80938 -0.475085 -0.272464 0.876829 -0.396149 -0.200769 0.898153 -0.391169 
-0.241404 0.883252 -0.401983 0.561519 0.787364 -0.254469 0.658736 0.71048 -0.247557 
0.651296 0.71745 -0.24714 -0.180596 0.743089 -0.644363 -0.412252 0.808978 -0.419051 
-0.248051 0.792319 -0.557405 -0.424574 0.801742 -0.42065 -0.578872 0.693219 -0.429366 
0.5701 0.780918 -0.25525 0.666828 0.705266 -0.24071 0.559624 0.738245 -0.376584 
-0.655863 0.627826 -0.419139 -0.57176 0.623562 -0.533161 -0.797498 0.452502 -0.399048 
0.774302 0.593144 -0.220537 0.635187 0.587638 -0.501218 -0.813816 0.426845 -0.394345 
-0.79 0.429199 -0.437821 0.943234 0.291263 -0.159613 0.976601 0.157702 -0.146218 
-0.878933 0.223181 -0.421506 -0.77198 0.192595 -0.605767 0.991367 -0.0400448 -0.124851 
0.989054 -0.102754 -0.1059 0.979466 -0.0322177 -0.199017 -0.903239 0.0504561 -0.426161 
-0.735592 0.0379898 -0.676359 0.970465 -0.233111 -0.062097 -0.884686 -0.180069 -0.430007 
-0.711667 -0.182181 -0.678484 0.934267 -0.356465 0.00884282 -0.808312 -0.389825 -0.441213 
-0.765667 -0.459576 -0.450048 -0.751163 -0.402515 -0.523197 0.883112 -0.467999 0.0330255 
0.863392 -0.502898 0.0405935 0.836238 -0.467416 -0.286755 -0.68649 -0.568475 -0.453395 
-0.634766 -0.644584 -0.426126 -0.579743 -0.506065 -0.638589 0.75755 -0.639369 0.131623 
0.682244 -0.708676 0.179783 -0.607943 -0.688892 -0.394758 -0.577608 -0.739596 -0.345495 
-0.558943 -0.591527 -0.5811 0.572278 -0.786322 0.232799 0.49917 -0.821851 0.274572 
0.404348 -0.841381 0.358583 -0.39064 -0.920122 0.0278555 -0.5246 -0.826193 -0.205427 
-0.503503 -0.847593 -0.167541 -0.530072 -0.798752 -0.284638 0.358468 -0.85749 0.369069 
0.279453 -0.881091 0.381556 0.0857519 -0.929795 0.357949 -0.0599451 -0.952026 0.300089 
-0.19897 -0.953197 0.227653 -0.293409 -0.949886 0.107831 -0.290006 -0.950737 0.109523 
-0.30104 -0.951498 0.0634581 -0.0742335 0.728764 -0.68073 0.536949 0.664739 -0.519431 
0.154487 0.744617 -0.649368 0.236588 0.739176 -0.630591 -0.0984791 0.721949 -0.684902 
-0.0749261 0.720815 -0.689066 -0.216681 0.658815 -0.720425 -0.240399 0.66459 -0.70748 
-0.200039 0.700927 -0.684607 0.574379 0.642555 -0.507161 0.561356 0.645082 -0.51841 
0.493553 0.565213 -0.661015 0.134384 0.435941 -0.889886 -0.0919299 0.428806 -0.898707 
-0.183919 0.459399 -0.86898 -0.199099 0.560298 -0.804006 -0.189153 0.698193 -0.690469 
-0.192963 0.677987 -0.709295 -0.172562 0.678935 -0.713631 -0.231396 0.657019 -0.717483 
-0.348829 0.612922 -0.708974 0.536819 0.652573 -0.534765 0.529236 0.628327 -0.570188 
0.467855 0.551117 -0.690928 0.270376 0.243991 -0.931324 -0.1432 0.16769 -0.975384 
-0.107205 0.251841 -0.961812 -0.0952014 0.335097 -0.937361 -0.109777 0.448325 -0.887104 
-0.199367 0.519013 -0.831191 -0.383784 0.596251 -0.70512 -0.339574 0.592352 -0.730622 
-0.546886 0.442715 -0.710577 0.584933 0.559044 -0.587642 0.622394 0.517318 -0.587374 
0.412019 0.469231 -0.781065 0.198034 0.272983 -0.941415 0.0928671 0.108977 -0.989697 
-0.0491942 -0.0817126 -0.995441 -0.0435582 0.0967984 -0.99435 -0.0160741 0.141556 -0.9898 
0.0184626 0.152528 -0.988127 0.00351498 0.258895 -0.965899 -0.102303 0.318595 -0.942354 
-0.292136 0.362301 -0.885096 -0.584929 0.382274 -0.715349 -0.54051 0.37145 -0.7549 
0.743747 0.299751 -0.597487 0.585266 0.256623 -0.769161 0.249317 0.251698 -0.935141 
-0.0769978 -0.0179942 -0.996869 0.0676241 0.133067 -0.988797 -0.27532 0.13318 -0.952083 
-0.673765 0.177611 -0.717283 -0.52953 0.168808 -0.831325 0.786017 0.0105452 -0.618115 
0.574342 0.0134486 -0.818505 0.0981761 0.00530738 -0.995155 -0.678752 0.0246657 -0.733953 
-0.495075 -0.0194797 -0.868632 0.798429 -0.165882 -0.578787 0.620196 -0.112322 -0.776364 
0.110669 0.0648353 -0.99174 -0.263041 -0.181741 -0.947512 -0.626422 -0.181839 -0.757978 
-0.471565 -0.174476 -0.864398 0.775195 -0.27466 -0.568889 0.748235 -0.383218 -0.541561 
0.66927 -0.262086 -0.695261 0.320111 -0.244263 -0.91535 0.120813 -0.0657892 -0.990493 
-0.112029 -0.0923971 -0.9894 -0.168212 -0.194434 -0.966385 -0.304159 -0.285575 -0.908809 
-0.548645 -0.34771 -0.76032 -0.526188 -0.38683 -0.757291 -0.507643 -0.334142 -0.794133 
0.724351 -0.403287 -0.559174 0.491017 -0.182616 -0.851794 -0.188677 -0.108066 -0.976075 
-0.313379 -0.25361 -0.915137 -0.478148 -0.423561 -0.769397 -0.481977 -0.453845 -0.749481 
-0.417454 -0.379013 -0.825882 0.748408 -0.496771 -0.439436 0.71094 -0.566338 -0.416924 
0.657899 -0.426066 -0.620996 0.355861 -0.303379 -0.883925 -0.171125 -0.10583 -0.979549 
-0.280304 -0.266681 -0.922123 -0.509757 -0.492573 -0.705351 -0.519525 -0.55908 -0.646161 
-0.465227 -0.404457 -0.787387 0.636763 -0.673092 -0.376139 0.601802 -0.720082 -0.345421 
0.596596 -0.611308 -0.519977 0.477531 -0.865495 -0.151269 0.405113 -0.351325 -0.84407 
-0.171942 -0.312189 -0.934331 -0.376996 -0.836387 -0.397908 -0.289301 -0.361835 -0.886217 
-0.511313 -0.640506 -0.572984 -0.484395 -0.695364 -0.530876 -0.458261 -0.572224 -0.680115 
0.457756 -0.876404 -0.149583 0.284232 -0.935606 -0.209411 0.234215 -0.799082 -0.553724 
0.0553418 -0.978847 -0.196967 0.0235925 -0.672869 -0.739385 -0.15116 -0.949748 -0.274097 
-0.181952 -0.732327 -0.656194 -0.344635 -0.86412 -0.366774 -0.280646 -0.89345 -0.350692 
-0.27365 -0.802582 -0.530073 0.108815 0.160033 -0.981096 -0.0746888 0.20102 -0.976736 
0.139517 0.135992 -0.980837 0.107216 0.109586 -0.988178 -0.106789 0.140134 -0.984357 
-0.0493473 -0.0800884 -0.995566 -0.0651294 0.115197 -0.991205 0.115338 0.207534 -0.971404 
0.0650751 0.0636627 -0.995848 0.0700784 0.0975793 -0.992757 -0.047844 -0.0805125 -0.995605 
-0.0460436 -0.0226023 -0.998684 0.00767648 -0.0307897 -0.999496 0.0012747 0.107441 -0.994211 
-0.0341297 0.172251 -0.984462 0.0243761 0.183963 -0.982631 0.020753 0.227244 -0.973617 
-0.0928948 0.251917 -0.96328 0.156724 0.213832 -0.964216 0.266083 0.143705 -0.953178 
0.0765968 0.176923 -0.98124 -0.0716812 -0.00711489 -0.997402 -0.0506062 0.0382061 -0.997988 
0.0749398 0.133355 -0.988231 0.0736221 0.149562 -0.986008 0.0826025 0.12914 -0.98818 
-0.0566509 0.206642 -0.976775 0.0243846 0.187363 -0.981988 0.0691929 0.128303 -0.989318 
-0.249736 0.134074 -0.958987 -0.0781739 0.142341 -0.986726 -0.277039 0.0480834 -0.959655 
0.331395 0.0407963 -0.94261 0.281513 0.0378134 -0.958812 -0.00201463 0.0295988 -0.99956 
0.0883013 0.00447658 -0.996084 -0.101147 -0.00929519 -0.994828 0.0983734 0.00741181 -0.995122 
0.103471 0.185332 -0.977213 0.020673 0.0807155 -0.996523 0.0588466 0.171078 -0.983499 
-0.0550208 0.179836 -0.982157 -0.045805 -0.0124202 -0.998873 -0.0908703 -0.0434158 -0.994916 
-0.290363 -0.0485075 -0.955686 -0.274805 -0.0718137 -0.958814 -0.277282 -0.0500731 -0.959483 
0.243585 -0.144611 -0.959038 0.234973 -0.152544 -0.959957 0.231389 -0.145175 -0.961968 
0.11132 -0.0692612 -0.991368 0.0301668 -0.104208 -0.994098 0.0912063 0.0559513 -0.994259 
-0.0762766 -0.0201511 -0.996883 0.111994 0.0651494 -0.991571 0.115095 0.0699381 -0.990889 
0.160968 0.0611598 -0.985063 0.0698925 0.140587 -0.987598 0.0382387 -0.0261695 -0.998926 
-0.172463 -0.0852979 -0.981316 -0.112804 -0.0929919 -0.989256 -0.140442 -0.10752 -0.984233 
-0.164197 -0.157138 -0.973831 -0.135509 -0.164935 -0.976951 -0.116884 -0.148078 -0.982044 
0.101526 -0.0377718 -0.994116 0.186815 -0.0821715 -0.978952 0.0709113 0.00718235 -0.997457 
0.184339 0.155731 -0.970447 0.162908 0.0813343 -0.983283 -0.0611165 0.0399793 -0.99733 
-0.153468 -0.159894 -0.975132 -0.112693 -0.0939379 -0.989179 -0.138028 -0.148459 -0.979239 
0.264226 -0.101659 -0.959088 0.261939 -0.111471 -0.958625 0.256668 -0.0992127 -0.961394 
0.144239 0.0510683 -0.988224 0.198289 0.109326 -0.974027 0.0367212 0.0375552 -0.99862 
-0.184244 -0.060698 -0.981005 -0.148427 -0.0690401 -0.98651 -0.131763 -0.0982476 -0.9864 
-0.131981 -0.0965058 -0.986543 -0.0928984 -0.0931365 -0.99131 0.296803 -0.151884 -0.942783 
0.342378 -0.21277 -0.915154 0.279546 -0.0693584 -0.957624 0.167922 -0.0500617 -0.984528 
-0.016395 -0.0656308 -0.997709 -0.165087 -0.0768218 -0.983283 -0.178504 -0.094924 -0.97935 
-0.176579 -0.240011 -0.954575 -0.19638 -0.0764111 -0.977546 0.317472 -0.310098 -0.896131 
0.185669 -0.439161 -0.879013 0.183563 -0.288461 -0.939731 0.00958587 -0.497063 -0.867662 
0.00240538 -0.316684 -0.948528 -0.168767 -0.302874 -0.937968 -0.180924 -0.434614 -0.882257 
-0.181023 -0.27968 -0.942873 
