# vtk DataFile Version 4.2
vtk output
ASCII
DATASET POLYDATA
POINTS 558 float
-26.18 -29.174 -13.0277 -19.0971 -29.174 -13.0783 -12.0142 -29.174 -13.3275 
-4.93138 -29.174 -12.6495 2.15148 -29.174 -12.4355 9.23433 -29.174 -12.4884 
-33.2628 -22.0911 -12.9232 -26.18 -22.0911 -14.5049 -19.0971 -22.0911 -14.1903 
-12.0142 -22.0911 -13.9306 -4.93138 -22.0911 -12.8984 2.15148 -22.0911 -13.0757 
9.23433 -22.0911 -13.5349 16.3172 -22.0911 -13.878 23.4 -22.0911 -14.0478 
30.4829 -22.0911 -13.351 -40.3457 -15.0082 -13.4146 -33.2628 -15.0082 -14.7709 
-26.18 -15.0082 -14.8081 -19.0971 -15.0082 -14.4834 -12.0142 -15.0082 -13.6303 
-4.93138 -15.0082 -12.683 2.15148 -15.0082 -13.1199 9.23433 -15.0082 -14.7228 
16.3172 -15.0082 -15.0759 23.4 -15.0082 -15.5696 30.4829 -15.0082 -14.9913 
37.5658 -15.0082 -14.076 -40.3457 -7.92539 -13.8907 -33.2628 -7.92539 -15.0556 
-26.18 -7.92539 -15.1057 -19.0971 -7.92539 -14.0942 -12.0142 -7.92539 -14.1221 
-4.93138 -7.92539 -16.2234 2.15148 -7.92539 -16.7853 9.23433 -7.92539 -18.6179 
16.3172 -7.92539 -15.013 23.4 -7.92539 -15.1913 30.4829 -7.92539 -15.4021 
37.5658 -7.92539 -15.1388 44.6486 -7.92539 -13.5366 -40.3457 -0.842531 -14.7232 
-33.2628 -0.842531 -15.7057 -26.18 -0.842531 -15.613 -19.0971 -0.842531 -14.4147 
-12.0142 -0.842531 -13.5123 -4.93138 -0.842531 -16.2907 2.15148 -0.842531 -14.7435 
9.23433 -0.842531 -18.0759 16.3172 -0.842531 -14.1195 23.4 -0.842531 -14.7778 
30.4829 -0.842531 -15.4882 37.5658 -0.842531 -15.5314 44.6486 -0.842531 -14.0524 
-40.3457 6.24033 -15.1568 -33.2628 6.24033 -16.4286 -26.18 6.24033 -16.7182 
-19.0971 6.24033 -15.6571 -12.0142 6.24033 -14.094 -4.93138 6.24033 -15.2519 
2.15148 6.24033 -14.8118 9.23433 6.24033 -14.3426 16.3172 6.24033 -14.5001 
23.4 6.24033 -15.1022 30.4829 6.24033 -15.6115 37.5658 6.24033 -15.4969 
44.6486 6.24033 -13.8161 -40.3457 13.3232 -14.7424 -33.2628 13.3232 -16.6088 
-26.18 13.3232 -16.9324 -19.0971 13.3232 -16.1865 -12.0142 13.3232 -14.6225 
-4.93138 13.3232 -13.7369 2.15148 13.3232 -15.1908 9.23433 13.3232 -16.1114 
16.3172 13.3232 -16.193 23.4 13.3232 -16.1361 30.4829 13.3232 -15.6274 
37.5658 13.3232 -14.6306 -40.3457 20.406 -13.0363 -33.2628 20.406 -15.9858 
-26.18 20.406 -16.1374 -19.0971 20.406 -15.9655 -12.0142 20.406 -14.8603 
-4.93138 20.406 -14.7627 2.15148 20.406 -16.2633 9.23433 20.406 -17.217 
16.3172 20.406 -17.302 23.4 20.406 -16.967 30.4829 20.406 -15.2462 
37.5658 20.406 -13.3467 -33.2628 27.4889 -12.7891 -26.18 27.4889 -14.2614 
-19.0971 27.4889 -14.4844 -12.0142 27.4889 -14.7958 -4.93138 27.4889 -15.431 
2.15148 27.4889 -16.3918 9.23433 27.4889 -17.0713 16.3172 27.4889 -17.2563 
23.4 27.4889 -15.5006 30.4829 27.4889 -13.4223 -19.0971 34.5718 -12.9251 
-12.0142 34.5718 -13.4594 -4.93138 34.5718 -14.394 2.15148 34.5718 -15.2216 
9.23433 34.5718 -15.3969 16.3172 34.5718 -14.5659 -26.18 -30.5358 -12.2771 
-26.18 -36.2568 -7.38533 -19.0971 -31.2367 -12.2771 -19.0971 -36.2568 -9.98667 
-12.0142 -32.8986 -12.2771 -12.0142 -36.2568 -11.1226 -4.93138 -31.4861 -12.2771 
-4.93138 -36.2568 -11.2554 2.15148 -29.9057 -12.2771 2.15148 -36.2568 -10.4954 
9.23433 -29.8064 -12.2771 9.23433 -36.2568 -9.55012 16.3172 -36.2568 -7.20635 
-40.3457 -29.174 -7.03156 -28.5016 -29.174 -12.2771 -33.2628 -24.0186 -12.2771 
-33.2628 -29.174 -10.2118 11.3828 -29.174 -12.2771 16.3172 -27.465 -12.2771 
16.3172 -29.174 -11.7403 23.4 -26.5882 -12.2771 23.4 -29.174 -11.0703 
30.4829 -24.2579 -12.2771 30.4829 -29.174 -9.34778 37.5658 -29.174 -6.37932 
-47.4285 -22.0911 -6.5341 -35.5173 -22.0911 -12.2771 -40.3457 -18.4272 -12.2771 
-40.3457 -22.0911 -10.7261 36.9844 -22.0911 -12.2771 37.5658 -21.7452 -12.2771 
37.5658 -22.0911 -12.1721 44.6486 -22.0911 -7.88173 -42.636 -15.0082 -12.2771 
-47.4285 -15.0082 -8.94483 44.0212 -15.0082 -12.2771 44.6486 -14.1877 -12.2771 
44.6486 -15.0082 -12.0778 51.7315 -15.0082 -6.52786 -44.5677 -7.92539 -12.2771 
-47.4285 -7.92539 -11.0299 47.9008 -7.92539 -12.2771 51.7315 -7.92539 -9.38367 
-46.1826 -0.842531 -12.2771 -47.4285 -0.842531 -11.6879 47.784 -0.842531 -12.2771 
51.7315 -0.842531 -8.93401 -46.0077 6.24033 -12.2771 -47.4285 6.24033 -11.3497 
48.2645 6.24033 -12.2771 44.6486 12.3306 -12.2771 51.7315 6.24033 -9.36662 
-44.5043 13.3232 -12.2771 -47.4285 13.3232 -9.57096 43.8985 13.3232 -12.2771 
44.6486 13.3232 -11.9543 -41.5031 20.406 -12.2771 -40.3457 21.8426 -12.2771 
39.477 20.406 -12.2771 37.5658 22.3603 -12.2771 44.6486 20.406 -7.60939 
-34.3174 27.4889 -12.2771 -40.3457 27.4889 -6.75503 -33.2628 28.239 -12.2771 
-26.18 31.0908 -12.2771 23.4 34.1261 -12.2771 32.4232 27.4889 -12.2771 
30.4829 29.0726 -12.2771 37.5658 27.4889 -7.2415 -21.164 34.5718 -12.2771 
-26.18 34.5718 -9.63526 -19.0971 35.493 -12.2771 -12.0142 36.5443 -12.2771 
-4.93138 38.6467 -12.2771 2.15148 39.667 -12.2771 9.23433 38.9822 -12.2771 
22.6634 34.5718 -12.2771 16.3172 37.0989 -12.2771 23.4 34.5718 -11.8416 
-12.0142 41.6546 -7.59971 -4.93138 41.6546 -9.39361 2.15148 41.6546 -9.92137 
9.23433 41.6546 -8.18247 -26.18 -38.186 -5.19419 -19.0971 -41.032 -5.19419 
-12.0142 -41.8848 -5.19419 -4.93138 -42.223 -5.19419 2.15148 -41.6452 -5.19419 
9.23433 -40.6462 -5.19419 16.3172 -38.104 -5.19419 -40.3457 -30.4267 -5.19419 
-30.8263 -36.2568 -5.19419 -33.2628 -35.086 -5.19419 21.6344 -36.2568 -5.19419 
23.4 -35.6417 -5.19419 23.4 -36.2568 -3.33569 30.4829 -33.4304 -5.19419 
37.5658 -30.1329 -5.19419 -41.8643 -29.174 -5.19419 -47.4285 -23.3651 -5.19419 
39.2088 -29.174 -5.19419 44.6486 -24.9895 -5.19419 -48.4432 -22.0911 -5.19419 
47.3603 -22.0911 -5.19419 51.7315 -16.4895 -5.19419 -51.425 -15.0082 -5.19419 
52.5496 -15.0082 -5.19419 -53.7906 -7.92539 -5.19419 54.1415 -7.92539 -5.19419 
-54.0865 -0.842531 -5.19419 -54.5114 -0.842531 -2.32724 54.6193 -0.842531 -5.19419 
-52.588 6.24033 -5.19419 54.1374 6.24033 -5.19419 51.7315 13.0975 -5.19419 
-50.502 13.3232 -5.19419 -47.4285 20.1998 -5.19419 51.6388 13.3232 -5.19419 
-47.3231 20.406 -5.19419 46.6196 20.406 -5.19419 44.6486 22.5999 -5.19419 
-41.3768 27.4889 -5.19419 -40.3457 28.4879 -5.19419 -33.2628 34.0277 -5.19419 
30.4829 34.0472 -5.19419 39.3706 27.4889 -5.19419 37.5658 28.9367 -5.19419 
-32.3414 34.5718 -5.19419 -26.18 37.9812 -5.19419 -19.0971 41.0415 -5.19419 
16.3172 41.1559 -5.19419 29.6569 34.5718 -5.19419 23.4 38.1785 -5.19419 
-17.1416 41.6546 -5.19419 -12.0142 43.1284 -5.19419 -4.93138 44.0245 -5.19419 
2.15148 44.1108 -5.19419 14.4879 41.6546 -5.19419 9.23433 43.0423 -5.19419 
-26.18 -39.1577 1.88866 -19.0971 -41.5763 1.88866 -12.0142 -42.9113 1.88866 
-4.93138 -43.3081 1.88866 2.15148 -43.1991 1.88866 9.23433 -41.6998 1.88866 
16.3172 -39.8598 1.88866 23.4 -37.7159 1.88866 -40.3457 -30.9544 1.88866 
-32.0305 -36.2568 1.88866 -33.2628 -35.6204 1.88866 -26.18 -36.2568 7.68207 
27.8597 -36.2568 1.88866 23.4 -36.2568 6.65013 30.4829 -35.3627 1.88866 
37.5658 -32.0587 1.88866 -42.6381 -29.174 1.88866 -47.4285 -24.4972 1.88866 
-40.3457 -29.174 5.42375 41.8728 -29.174 1.88866 44.6486 -26.8841 1.88866 
-49.4383 -22.0911 1.88866 -47.4285 -22.0911 5.6513 48.9454 -22.0911 1.88866 
51.7315 -17.4266 1.88866 -53.0696 -15.0082 1.88866 52.9998 -15.0082 1.88866 
51.7315 -15.0082 4.50933 -54.4996 -7.92539 1.88866 -54.5114 -7.76711 1.88866 
54.7323 -7.92539 1.88866 51.7315 -7.92539 7.94085 -55.0274 -0.842531 1.88866 
-54.5114 1.04371 1.88866 -54.5114 -0.842531 3.00067 54.9523 -0.842531 1.88866 
51.7315 -0.842531 7.87103 -53.0703 6.24033 1.88866 54.2474 6.24033 1.88866 
51.7315 13.0708 1.88866 51.7315 6.24033 6.68011 -50.4112 13.3232 1.88866 
-47.4285 19.861 1.88866 -47.4285 13.3232 7.36637 51.6303 13.3232 1.88866 
-47.1237 20.406 1.88866 47.0254 20.406 1.88866 44.6486 23.0679 1.88866 
44.6486 20.406 6.0464 -41.1333 27.4889 1.88866 -40.3457 28.2555 1.88866 
-40.3457 27.4889 3.18662 -33.2628 33.6647 1.88866 30.4829 34.2095 1.88866 
39.9568 27.4889 1.88866 37.5658 29.4646 1.88866 37.5658 27.4889 5.85484 
-31.7607 34.5718 1.88866 -26.18 37.6067 1.88866 -26.18 34.5718 7.08696 
-19.0971 40.7415 1.88866 16.3172 40.4748 1.88866 29.8215 34.5718 1.88866 
23.4 37.8524 1.88866 23.4 34.5718 8.27168 -16.0053 41.6546 1.88866 
-12.0142 42.7727 1.88866 -12.0142 41.6546 4.17088 -4.93138 43.5446 1.88866 
-4.93138 41.6546 5.75402 2.15148 43.3718 1.88866 2.15148 41.6546 5.20213 
11.9474 41.6546 1.88866 9.23433 42.3565 1.88866 9.23433 41.6546 3.31383 
-19.0971 -37.3117 8.97152 -12.0142 -38.9546 8.97152 -4.93138 -39.468 8.97152 
2.15148 -39.1247 8.97152 9.23433 -37.9141 8.97152 16.3172 -36.5328 8.97152 
-33.2628 -30.9924 8.97152 -23.1252 -36.2568 8.97152 -26.18 -35.2853 8.97152 
-19.0971 -36.2568 9.99773 -12.0142 -36.2568 11.3831 -4.93138 -36.2568 11.6274 
2.15148 -36.2568 11.2832 9.23433 -36.2568 10.4153 18.0498 -36.2568 8.97152 
16.3172 -36.2568 9.31471 23.4 -35.2907 8.97152 30.4829 -32.6709 8.97152 
37.5658 -29.6643 8.97152 -36.4092 -29.174 8.97152 -40.3457 -26.246 8.97152 
-33.2628 -29.174 10.6239 -26.18 -29.174 13.1435 -19.0971 -29.174 14.4067 
-12.0142 -29.174 15.1222 -4.93138 -29.174 15.1015 2.15148 -29.174 14.2635 
9.23433 -29.174 14.0271 16.3172 -29.174 13.9371 23.4 -29.174 14.1285 
30.4829 -29.174 12.323 38.2706 -29.174 8.97152 37.5658 -29.174 9.5609 
44.6486 -23.1271 8.97152 -44.5967 -22.0911 8.97152 -47.4285 -18.9949 8.97152 
-40.3457 -22.0911 11.7869 -33.2628 -22.0911 14.348 -26.18 -22.0911 15.4704 
2.15148 -22.0911 15.4935 9.23433 -22.0911 15.3433 16.3172 -22.0911 15.918 
37.5658 -22.0911 14.4293 45.5014 -22.0911 8.97152 44.6486 -22.0911 9.84097 
-49.5493 -15.0082 8.97152 -47.4285 -15.0082 10.9175 -40.3457 -15.0082 14.0068 
-33.2628 -15.0082 15.6104 2.15148 -15.0082 15.3766 9.23433 -15.0082 15.6527 
49.0031 -15.0082 8.97152 44.6486 -15.0082 13.8286 -50.2312 -7.92539 8.97152 
-47.4285 -7.92539 11.4456 -40.3457 -7.92539 14.6321 -19.0971 -7.92539 15.9925 
-12.0142 -7.92539 15.7389 -4.93138 -7.92539 16.0527 50.9832 -7.92539 8.97152 
44.6486 -7.92539 13.7755 -50.4996 -0.842531 8.97152 -47.4285 -0.842531 11.6248 
-40.3457 -0.842531 14.6739 -33.2628 -0.842531 15.9262 -19.0971 -0.842531 15.7698 
[...]
POINT_DATA 558
SCALARS ImageScalars float
LOOKUP_TABLE default
0 0 0 0 0 0 0 0 0 
0 0 0 0 0 0 0 0 0 
0 0 0 0 0 0 0 0 0 
0 0 0 0 0 0 0 0 0 
0 0 0 0 0 0 0 0 0 
0 0 0 0 0 0 0 0 0 
0 0 0 0 0 0 0 0 0 
0 0 0 0 0 0 0 0 0 
0 0 0 0 0 0 0 0 0 
0 0 0 0 0 0 0 0 0 
0 0 0 0 0 0 0 0 0 
0 0 0 0 0 0 0 0 0 
0 0 0 0 0 0 0 0 0 
0 0 0 0 0 0 0 0 0 
0 0 0 0 0 0 0 0 0 
0 0 0 0 0 0 0 0 0 
0 0 0 0 0 0 0 0 0 
0 0 0 0 0 0 0 0 0 
0 0 0 0 0 0 0 0 0 
0 0 0 0 0 0 0 0 0 
0 0 0 0 0 0 0 0 0 
0 0 0 0 0 0 0 0 0 
0 0 0 0 0 0 0 0 0 
0 0 0 0 0 0 0 0 0 
0 0 0 0 0 0 0 0 0 
0 0 0 0 0 0 0 0 0 
0 0 0 0 0 0 0 0 0 
0 0 0 0 0 0 0 0 0 
0 0 0 0 0 0 0 0 0 
0 0 0 0 0 0 0 0 0 
0 0 0 0 0 0 0 0 0 
0 0 0 0 0 0 0 0 0 
0 0 0 0 0 0 0 0 0 
0 0 0 0 0 0 0 0 0 
0 0 0 0 0 0 0 0 0 
0 0 0 0 0 0 0 0 0 
0 0 0 0 0 0 0 0 0 
0 0 0 0 0 0 0 0 0 
0 0 0 0 0 0 0 0 0 
0 0 0 0 0 0 0 0 0 
0 0 0 0 0 0 0 0 0 
0 0 0 0 0 0 0 0 0 
0 0 0 0 0 0 0 0 0 
0 0 0 0 0 0 0 0 0 
0 0 0 0 0 0 0 0 0 
0 0 0 0 0 0 0 0 0 
0 0 0 0 0 0 0 0 0 
0 0 0 0 0 0 0 0 0 
0 0 0 0 0 0 0 0 0 
0 0 0 0 0 0 0 0 0 
0 0 0 0 0 0 0 0 0 
0 0 0 0 0 0 0 0 0 
0 0 0 0 0 0 0 0 0 
0 0 0 0 0 0 0 0 0 
0 0 0 0 0 0 0 0 0 
0 0 0 0 0 0 0 0 0 
0 0 0 0 0 0 0 0 0 
0 0 0 0 0 0 0 0 0 
0 0 0 0 0 0 0 0 0 
0 0 0 0 0 0 0 0 0 
0 0 0 0 0 0 0 0 0 
0 0 0 0 0 0 0 0 0 

NORMALS Normals float
0.158467 0.37045 0.915235 0.0231756 0.258736 0.96567 -0.0307017 0.185099 0.98224 
-0.0642318 0.0972839 0.993182 -0.0111236 0.150244 0.988586 -0.0448445 0.242227 0.969183 
0.227466 0.267402 0.936352 0.0854344 0.135217 0.987126 -0.0390651 0.0940151 0.994804 
-0.0914401 0.0239418 0.995523 -0.0596699 0.00328567 0.998213 0.0446154 0.0472442 0.997886 
0.0546944 0.152784 0.986745 0.0364879 0.222499 0.97425 -0.0324329 0.286912 0.957408 
-0.128225 0.328184 0.93587 0.326866 0.182997 0.927184 0.109537 0.14909 0.982738 
-0.0205105 0.0396957 0.999001 -0.0825543 -0.0049887 0.996574 -0.122689 0.00761091 0.992416 
-0.0406756 0.156682 0.986811 0.144303 0.236882 0.960762 0.125711 0.313266 0.941308 
0.0579532 0.077182 0.995331 -0.00641258 0.0864618 0.996235 -0.0981838 0.13076 0.98654 
-0.177041 0.196987 0.964289 0.242081 0.0904412 0.966032 0.0787702 0.0632091 0.994887 
-0.0649516 0.056926 0.996263 -0.067036 -0.00614964 0.997732 0.112702 0.000950942 0.993628 
0.184934 0.280298 0.94193 0.152439 0.148265 0.977128 -0.154628 0.263005 0.952323 
-0.204628 -0.0608149 0.976949 0.0273369 -0.0549485 0.998115 -0.00289349 0.0349073 0.999386 
-0.13529 0.10023 0.985723 -0.306648 0.1236 0.943764 0.240426 0.0837225 0.96705 
0.0596233 0.097464 0.993451 -0.0882971 0.113018 0.989662 -0.1325 0.109369 0.985131 
0.131561 0.00368091 0.991301 0.0919667 -0.0672746 0.993487 0.0516448 -0.148599 0.987548 
-0.0966227 -0.351204 0.9313 -0.135626 -0.0410716 0.989908 0.0897382 -0.00634626 0.995945 
0.0529295 0.0147622 0.998489 -0.110575 0.0249675 0.993554 -0.361165 0.01887 0.932311 
0.295426 0.00258992 0.955362 0.105648 0.0649922 0.992277 -0.0540918 0.0898797 0.994483 
-0.180444 0.120606 0.976163 -0.0418574 0.069395 0.996711 0.0522249 -0.189963 0.980401 
-0.0599651 0.0305146 0.997734 -0.0223702 -0.0350089 0.999137 0.0544436 0.138827 0.988819 
0.0780304 0.0956889 0.992348 0.0281788 0.00981038 0.999555 -0.134977 -0.061124 0.988962 
-0.323335 -0.123301 0.938217 0.379396 -0.139915 0.914594 0.140472 -0.0257953 0.989749 
-0.0284846 -0.0392486 0.998823 -0.161468 0.0214189 0.986645 -0.173437 0.0537929 0.983375 
0.0428516 -0.0178098 0.998923 0.164585 0.101657 0.98111 0.0699316 0.200797 0.977134 
0.00170916 0.198746 0.980049 -0.0393634 0.125454 0.991318 -0.101304 -0.0259555 0.994517 
-0.223782 -0.149053 0.963174 0.487257 -0.346996 0.801358 0.198827 -0.252079 0.947061 
-0.00318709 -0.168994 0.985612 -0.0882922 -0.114757 0.989462 -0.0870548 0.0114676 0.996137 
0.0981952 0.119435 0.987974 0.172545 0.0838604 0.981425 0.0725913 0.0668472 0.995119 
-0.0154447 0.0724061 0.997256 -0.147656 -0.0406897 0.988201 -0.238658 -0.142029 0.960661 
-0.389875 -0.327311 0.860735 0.308767 -0.515374 0.799408 0.115016 -0.380587 0.917565 
0.0344952 -0.218314 0.975269 0.0689391 -0.0880726 0.993726 0.109308 -0.0277295 0.993621 
0.118913 -0.0754938 0.990031 0.0593414 -0.122751 0.990662 -0.106101 -0.151979 0.982672 
-0.250706 -0.294671 0.922126 -0.403465 -0.449983 0.7967 0.187579 -0.453065 0.87152 
0.112899 -0.355872 0.92769 0.114794 -0.310885 0.94349 0.0719063 -0.334551 0.93963 
-0.0338337 -0.422618 0.905676 -0.213717 -0.547794 0.808855 0.168833 0.423812 0.889876 
0.306469 0.756723 0.577448 0.0676751 0.329867 0.941598 0.223878 0.575069 0.786876 
0.026312 0.283609 0.958579 0.0727357 0.430138 0.899828 -0.0538864 0.17689 0.982754 
-0.0352628 0.404723 0.913759 -0.0201665 0.179132 0.983618 -0.099808 0.501605 0.85932 
-0.0568389 0.261032 0.963655 -0.186935 0.554773 0.810729 -0.289181 0.726485 0.623373 
0.564193 0.679209 0.469428 0.203023 0.379181 0.902776 0.246116 0.298295 0.922197 
0.334267 0.47102 0.816337 -0.0594601 0.283106 0.957244 -0.0585542 0.340657 0.938362 
-0.0927267 0.38597 0.917839 -0.0899778 0.42184 0.902195 -0.134257 0.520729 0.843099 
-0.159906 0.4056 0.899955 -0.266874 0.638335 0.722016 -0.39682 0.756217 0.52026 
0.721164 0.495023 0.48464 0.255928 0.285006 0.923728 0.326938 0.249272 0.911578 
0.365981 0.353708 0.860784 -0.264919 0.39113 0.881383 -0.272955 0.385779 0.881289 
-0.279148 0.398305 0.873745 -0.579601 0.556832 0.59498 0.406163 0.190027 0.893824 
0.634871 0.242051 0.733724 -0.364017 0.308584 0.878787 -0.37241 0.29967 0.878356 
-0.388132 0.322935 0.863172 -0.82593 0.374617 0.421308 0.391334 0.12205 0.912119 
0.530754 0.164922 0.831325 -0.462647 0.115455 0.878992 -0.765626 0.106213 0.634457 
0.455746 0.0373051 0.889328 0.523269 0.0229928 0.851857 -0.503421 0.0117731 0.863961 
-0.775181 -0.000395692 0.631739 0.547246 -0.0665443 0.834323 0.63769 -0.101917 0.763521 
-0.506247 -0.131858 0.852248 -0.428658 -0.301842 0.851554 -0.786789 -0.154717 0.597516 
0.566084 -0.189215 0.802338 0.765902 -0.275874 0.580764 -0.424149 -0.306601 0.852111 
-0.457813 -0.332471 0.824543 0.533188 -0.366446 0.762514 0.510836 -0.408106 0.756635 
-0.454533 -0.366623 0.81178 -0.442559 -0.407818 0.79864 -0.678524 -0.564364 0.470211 
0.351192 -0.536254 0.767526 0.655826 -0.682862 0.321855 0.326262 -0.54512 0.772268 
0.237388 -0.483381 0.842609 -0.387775 -0.617511 0.684333 -0.450741 -0.502848 0.737548 
-0.437432 -0.524984 0.730099 -0.585906 -0.701208 0.406228 0.231391 -0.49339 0.838466 
0.394298 -0.67165 0.627229 0.19516 -0.506566 0.839824 0.144322 -0.473283 0.869008 
0.12517 -0.522751 0.843246 0.00609195 -0.629258 0.777173 -0.129212 -0.669984 0.731045 
-0.37984 -0.631731 0.675749 -0.258593 -0.676049 0.689991 -0.401806 -0.651978 0.643021 
0.223511 -0.878328 0.422591 0.100303 -0.815453 0.570067 -0.0367648 -0.833056 0.551965 
-0.184819 -0.908651 0.374427 0.367554 0.834776 0.409942 0.236669 0.897061 0.373188 
0.0726993 0.93251 0.353751 -0.00985149 0.921115 0.389166 -0.0973461 0.862529 0.496556 
-0.217508 0.872806 0.436921 -0.307431 0.814839 0.49145 0.590551 0.740186 0.321519 
0.433611 0.833687 0.341975 0.465764 0.82241 0.32666 -0.269036 0.823162 0.500024 
-0.255215 0.825132 0.504007 -0.27661 0.890097 0.362235 -0.330259 0.818111 0.470768 
-0.414891 0.788436 0.45413 0.618843 0.712965 0.329719 0.742953 0.55074 0.380402 
-0.449944 0.773341 0.446648 -0.612573 0.664941 0.427326 0.766494 0.51245 0.387147 
-0.69161 0.592304 0.413341 -0.846702 0.416679 0.33087 0.816491 0.321571 0.479514 
-0.870446 0.368409 0.326494 0.909135 0.146408 0.38992 -0.934259 0.155128 0.321084 
0.928649 -0.0781404 0.362637 0.985374 -0.0928333 0.142898 -0.933726 -0.000739483 0.357988 
0.92044 -0.217857 0.324545 -0.93411 -0.215809 0.284366 -0.866627 -0.420763 0.268172 
0.90015 -0.347328 0.262855 0.832709 -0.499833 0.238252 -0.863209 -0.426876 0.269529 
0.829947 -0.504977 0.237037 -0.729696 -0.611345 0.306269 -0.696485 -0.653428 0.296548 
0.689896 -0.688269 0.224342 0.665067 -0.711739 0.226084 0.526628 -0.815334 0.240612 
-0.53525 -0.809609 0.240919 -0.615665 -0.736225 0.280942 -0.595265 -0.753494 0.279117 
0.517431 -0.819985 0.244724 0.447414 -0.858931 0.249115 0.318775 -0.907265 0.274322 
-0.313957 -0.936076 0.158724 -0.525173 -0.8187 0.232212 -0.444468 -0.875266 0.190678 
0.287 -0.91975 0.26775 0.205394 -0.945269 0.253536 0.067371 -0.976449 0.204957 
-0.0689612 -0.982194 0.174755 -0.281811 -0.946477 0.157363 -0.199744 -0.966545 0.160913 
0.38956 0.907811 -0.155316 0.252815 0.94782 -0.194221 0.116395 0.983359 -0.139488 
0.0204184 0.990307 -0.137386 -0.111426 0.986109 -0.123177 -0.227619 0.9642 -0.136042 
-0.272616 0.958202 -0.086772 -0.304866 0.952201 -0.0192309 0.592264 0.789107 -0.162892 
0.465783 0.868204 -0.171077 0.479972 0.859147 -0.177462 0.324288 0.771699 -0.547099 
-0.343164 0.938806 -0.0296833 -0.249566 0.899438 -0.358787 -0.368802 0.928674 -0.0393761 
-0.488659 0.872031 -0.0278135 0.632254 0.758751 -0.156691 0.757935 0.635417 -0.147584 
0.564084 0.735935 -0.374444 -0.585967 0.808357 -0.0565831 -0.671084 0.737206 -0.0785694 
0.808066 0.570813 -0.145611 0.712945 0.57156 -0.406237 -0.809388 0.577599 -0.10616 
-0.890898 0.420174 -0.172494 0.944178 0.304924 -0.124693 -0.918311 0.353719 -0.177728 
-0.871707 0.3476 -0.3454 0.976931 0.129012 -0.170181 0.977527 0.124203 -0.170338 
-0.973587 0.137801 -0.182042 -0.808339 0.114843 -0.577407 0.980739 -0.102523 -0.166255 
0.971331 -0.155439 -0.179874 0.961625 -0.105388 -0.253318 -0.974881 -0.0327601 -0.220304 
-0.799554 -0.0450519 -0.598902 0.937623 -0.290124 -0.19155 -0.946564 -0.227323 -0.228783 
-0.877094 -0.419465 -0.233999 -0.821224 -0.223012 -0.525222 0.886256 -0.401851 -0.230359 
0.81819 -0.520986 -0.243187 0.730562 -0.380389 -0.567084 -0.87387 -0.425984 -0.234285 
0.810635 -0.531814 -0.24504 -0.75993 -0.621563 -0.190172 -0.715328 -0.675012 -0.180736 
-0.693197 -0.569393 -0.441893 0.682965 -0.690405 -0.238537 0.665422 -0.70724 -0.2388 
0.655822 -0.689151 -0.30817 0.533995 -0.808436 -0.247549 -0.503009 -0.844133 -0.185527 
-0.634808 -0.755259 -0.163104 -0.600508 -0.783454 -0.159968 -0.574422 -0.716014 -0.396691 
0.51758 -0.820522 -0.2426 0.446313 -0.857964 -0.254369 0.380077 -0.73684 -0.559114 
0.32592 -0.909297 -0.258756 -0.286456 -0.915873 -0.281281 -0.493048 -0.849382 -0.188295 
-0.394765 -0.889137 -0.231508 -0.301832 -0.744899 -0.594998 0.266809 -0.92968 -0.253983 
0.187849 -0.948142 -0.256398 0.190383 -0.906163 -0.377654 0.0417722 -0.963688 -0.263744 
0.0350541 -0.880944 -0.471921 -0.0851405 -0.952579 -0.292136 -0.0872328 -0.883044 -0.46111 
-0.227485 -0.933351 -0.27768 -0.191212 -0.940231 -0.281786 -0.189081 -0.915267 -0.355717 
0.192682 0.709442 -0.677913 0.114708 0.724609 -0.679547 0.00984594 0.725156 -0.688515 
-0.0829921 0.691613 -0.717484 -0.143855 0.70766 -0.691754 -0.150543 0.787469 -0.597687 
0.396561 0.641775 -0.656402 0.250595 0.711089 -0.656928 0.296704 0.700845 -0.648678 
0.18197 0.669118 -0.720533 0.091404 0.606847 -0.789546 -0.00755785 0.56998 -0.821624 
-0.0749896 0.546933 -0.833811 -0.107863 0.628893 -0.769973 -0.163912 0.796721 -0.581695 
-0.143511 0.774464 -0.616125 -0.205891 0.809301 -0.550127 -0.322419 0.77019 -0.550322 
-0.454182 0.730897 -0.50942 0.433076 0.628288 -0.646297 0.484876 0.58429 -0.650769 
0.355201 0.575902 -0.736322 0.213928 0.445836 -0.869175 0.126614 0.366148 -0.921903 
0.0456802 0.329325 -0.943111 -0.0575384 0.283058 -0.957375 -0.0718102 0.276463 -0.958338 
-0.0215091 0.30251 -0.952904 0.00490962 0.360823 -0.932621 -0.0884009 0.499071 -0.86204 
-0.254601 0.631394 -0.732475 -0.473156 0.717495 -0.511199 -0.447767 0.710028 -0.543475 
-0.644762 0.523049 -0.557406 0.553087 0.507577 -0.660652 0.639409 0.401146 -0.655925 
0.430776 0.412384 -0.802727 0.218688 0.285496 -0.933096 0.123648 0.231457 -0.964956 
-0.0522622 0.0731658 -0.99595 0.0319437 0.114984 -0.992854 0.10141 0.21039 -0.972344 
-0.379197 0.4003 -0.834247 -0.660915 0.497628 -0.561745 -0.625327 0.492328 -0.605458 
0.719303 0.249459 -0.648362 0.601393 0.24237 -0.761304 0.30843 0.151393 -0.939122 
0.188725 0.111509 -0.975679 -0.0343312 0.0874117 -0.99558 0.119496 0.0654386 -0.990676 
-0.726649 0.288065 -0.623699 -0.569517 0.206406 -0.795643 0.707941 0.0584187 -0.703851 
0.550154 0.0474161 -0.833716 0.289572 0.0492295 -0.955889 -0.0421941 -0.0711363 -0.996574 
0.00379301 0.020921 -0.999774 0.0742414 0.0458319 -0.996187 -0.751622 0.102051 -0.651651 
-0.507565 -0.016964 -0.861446 0.681204 -0.0648387 -0.729217 0.556714 -0.0513957 -0.829113 
0.268863 -0.0496548 -0.961898 0.0943207 -0.0456188 -0.994496 0.0368829 -0.000466936 -0.999319 
-0.0446233 -0.0150276 -0.998891 -0.735168 -0.048014 -0.676182 -0.491301 -0.0330377 -0.870363 
0.710387 -0.217367 -0.669405 0.671236 -0.307241 -0.674571 0.617456 -0.20579 -0.759209 
0.305069 -0.141394 -0.941775 0.151797 -0.0391821 -0.987635 0.00355576 0.0170947 -0.999848 
-0.704386 -0.204499 -0.679721 -0.508997 -0.156314 -0.846456 0.636343 -0.346826 -0.689043 
0.438644 -0.228305 -0.869177 0.248908 -0.131391 -0.959573 -0.0226822 -0.0273359 -0.999369 
0.0222162 0.023553 -0.999476 0.0175964 -0.0728061 -0.997191 -0.329354 -0.243196 -0.91235 
-0.658092 -0.335453 -0.674082 -0.63609 -0.409752 -0.65383 -0.598489 -0.314513 -0.736812 
0.594135 -0.439966 -0.673375 0.563106 -0.489941 -0.665485 0.537297 -0.403436 -0.740642 
0.281158 -0.326493 -0.902415 0.146777 -0.240375 -0.959519 0.107401 -0.13407 -0.985135 
-0.074606 -0.0860958 -0.99349 -0.0124706 -0.107055 -0.994175 0.0198161 -0.190894 -0.981411 
-0.039436 -0.237096 -0.970685 -0.224894 -0.314266 -0.922312 -0.58116 -0.496413 -0.644847 
-0.507098 -0.599023 -0.619696 -0.442438 -0.436834 -0.783214 0.438803 -0.589615 -0.67809 
0.427542 -0.592658 -0.682616 0.41422 -0.573692 -0.706611 0.334648 -0.64232 -0.689519 
0.258246 -0.444832 -0.857574 0.163802 -0.335822 -0.927573 0.108187 -0.277156 -0.954715 
-0.00259275 -0.242543 -0.970137 -0.0885833 -0.241943 -0.966238 -0.0811286 -0.272447 -0.958744 
-0.0534965 -0.340035 -0.93889 -0.282628 -0.707901 -0.647301 -0.162485 -0.428776 -0.888679 
-0.46028 -0.632315 -0.623153 -0.396542 -0.65807 -0.640077 -0.344054 -0.573728 -0.743278 
0.300391 -0.651003 -0.697109 0.266539 -0.649645 -0.711982 0.254042 -0.600423 -0.758258 
0.177241 -0.705245 -0.686451 0.158188 -0.532068 -0.831793 0.0263182 -0.732992 -0.679727 
0.00177381 -0.508242 -0.861212 -0.0875121 -0.700949 -0.707822 -0.0902037 -0.495538 -0.863889 
-0.157086 -0.666817 -0.728477 -0.13008 -0.524833 -0.841207 -0.257824 -0.704448 -0.661271 
-0.187542 -0.674416 -0.714136 -0.165784 -0.625604 -0.762322 0.0877197 0.172728 -0.981056 
0.0139437 0.182265 -0.983151 -0.0818797 0.0755794 -0.993772 -0.00195856 0.332319 -0.943165 
-0.151087 0.362218 -0.919767 0.0918057 0.170936 -0.980996 0.103995 0.153756 -0.982621 
0.0837164 0.154143 -0.984496 -0.00967254 0.0808789 -0.996677 -0.0808687 0.0673451 -0.994447 
-0.0829238 0.0671175 -0.994293 0.0906096 0.2196 -0.971373 0.111726 0.196018 -0.974215 
0.0268374 0.270798 -0.962262 -0.176995 0.352405 -0.918958 -0.143918 0.345192 -0.927432 
-0.287831 0.21965 -0.932152 0.149174 0.0909728 -0.984617 0.119321 0.0313257 -0.992361 
0.0836352 0.0600895 -0.994683 -0.0412049 -0.0667951 -0.996916 -0.0290578 -0.0158742 -0.999452 
-0.0219486 -0.0248332 -0.999451 -0.0453319 -0.0675895 -0.996683 -0.0636344 0.00769795 -0.997944 
0.0716259 0.04495 -0.996418 -0.0675474 -0.00274453 -0.997712 -0.0103176 0.0686642 -0.997586 
0.137445 0.0726769 -0.98784 0.0624742 0.0473884 -0.996921 0.183952 0.0872989 -0.979051 
0.0753122 0.0906186 -0.993034 -0.11725 0.121747 -0.985612 -0.334384 0.16215 -0.928383 
-0.259652 0.146779 -0.954483 0.11732 0.0247999 -0.992784 0.107578 0.00591418 -0.994179 
0.112082 0.0236299 -0.993418 -0.0358534 -0.0664604 -0.997145 -0.00731137 -0.0458379 -0.998922 
0.0281628 0.0252744 -0.999284 0.074128 0.0458428 -0.996194 0.073998 0.0457722 -0.996207 
-0.0389714 -0.00911516 -0.999199 0.0163878 0.0472934 -0.998747 0.0301058 0.0378849 -0.998829 
0.136987 -0.0389534 -0.989807 0.0613975 -0.0551979 -0.996586 -0.0924955 -0.0451772 -0.994688 
-0.336927 -0.0237673 -0.941231 -0.275066 -0.0130068 -0.961337 0.0196126 -0.0253954 -0.999485 
-0.00335659 -0.0143897 -0.999891 -0.0111807 -0.0169751 -0.999793 0.0502157 0.00906652 -0.998697 
0.0812448 0.0322701 -0.996172 -0.0460066 -0.0129034 -0.998858 -0.053763 0.0093582 -0.99851 
-0.0112734 -0.000171522 -0.999936 -0.034671 -0.00934951 -0.999355 0.0428415 0.0241346 -0.99879 
0.0908591 -0.0442059 -0.994882 0.0707201 -0.0765539 -0.994554 -0.0712375 -0.0532328 -0.996038 
-0.287573 -0.0464203 -0.956633 -0.257055 -0.0522336 -0.964984 0.0442991 0.0141512 -0.998918 
0.0252875 0.0172308 -0.999532 0.037339 0.0171403 -0.999156 0.00727996 -0.00961474 -0.999927 
0.0200518 0.00878375 -0.99976 0.0123287 -0.0452251 -0.998901 0.0314158 -0.0332877 -0.998952 
0.0331032 0.0254002 -0.999129 0.0137415 -0.0601807 -0.998093 0.000330089 -0.0238688 -0.999715 
0.0364068 0.00230283 -0.999334 0.0538022 -0.0338508 -0.997978 -0.0709217 -0.0747932 -0.994674 
-0.258138 -0.107295 -0.960131 -0.254948 -0.114462 -0.960156 -0.250453 -0.105816 -0.962328 
0.107209 -0.0975087 -0.989443 -0.0147814 -0.0342708 -0.999303 0.061502 -0.112972 -0.991693 
0.0417641 -0.0805744 -0.995873 0.0222721 0.0244295 -0.999453 0.0250199 0.0189204 -0.999508 
0.0229365 0.0334397 -0.999178 -0.00136579 -0.0621959 -0.998063 -0.0626653 -0.0743814 -0.995259 
-0.032658 -0.0457799 -0.998418 0.0334307 -0.0689784 -0.997058 0.0405075 -0.147094 -0.988293 
0.0798445 -0.0574028 -0.995153 -0.0334533 -0.210065 -0.977115 -0.00825353 -0.0841906 -0.996415 
-0.192852 -0.176543 -0.965215 -0.172516 -0.205091 -0.963419 -0.146384 -0.154142 -0.977145 
0.0892115 -0.0941409 -0.991554 0.0827403 -0.125882 -0.988589 0.0713301 -0.0570452 -0.99582 
-0.0684233 -0.0804075 -0.994411 -0.0191649 -0.15364 -0.987941 -0.0360245 -0.0541523 -0.997883 

