# vtk DataFile Version 4.2
vtk output
ASCII
DATASET POLYDATA
POINTS 510 float
-28.3845 -42.1668 -13.674 -20.0555 -42.1668 -16.0141 -11.7265 -42.1668 -16.1774 
-3.39755 -42.1668 -16.8352 4.93144 -42.1668 -16.7722 13.2604 -42.1668 -17.226 
21.5894 -42.1668 -15.841 -36.7135 -33.8378 -15.1112 -28.3845 -33.8378 -17.6648 
-20.0555 -33.8378 -18.3273 -11.7265 -33.8378 -18.9887 -3.39755 -33.8378 -18.9071 
4.93144 -33.8378 -19.2092 13.2604 -33.8378 -20.0049 21.5894 -33.8378 -19.0134 
29.9184 -33.8378 -17.5954 38.2474 -33.8378 -14.1077 -45.0425 -25.5088 -14.6905 
-36.7135 -25.5088 -17.9019 -28.3845 -25.5088 -18.5234 -20.0555 -25.5088 -19.0228 
-11.7265 -25.5088 -19.4129 -3.39755 -25.5088 -19.3565 4.93144 -25.5088 -19.2625 
13.2604 -25.5088 -20.1078 21.5894 -25.5088 -19.7531 29.9184 -25.5088 -19.2157 
38.2474 -25.5088 -17.9706 46.5764 -25.5088 -14.5135 -45.0425 -17.1798 -17.2965 
-36.7135 -17.1798 -18.687 -28.3845 -17.1798 -19.1158 -20.0555 -17.1798 -18.7925 
-11.7265 -17.1798 -19.4006 -3.39755 -17.1798 -20.0458 4.93144 -17.1798 -18.396 
13.2604 -17.1798 -18.4865 21.5894 -17.1798 -19.2221 29.9184 -17.1798 -19.5924 
38.2474 -17.1798 -18.8401 46.5764 -17.1798 -17.0887 -53.3715 -8.85081 -15.7124 
-45.0425 -8.85081 -18.8393 -36.7135 -8.85081 -20.3219 -28.3845 -8.85081 -19.9901 
-20.0555 -8.85081 -18.9613 -11.7265 -8.85081 -20.2209 -3.39755 -8.85081 -21.5484 
4.93144 -8.85081 -19.2613 13.2604 -8.85081 -17.9351 21.5894 -8.85081 -18.7997 
29.9184 -8.85081 -19.586 38.2474 -8.85081 -19.6047 46.5764 -8.85081 -18.5897 
54.9054 -8.85081 -15.6861 -53.3715 -0.521821 -16.8129 -45.0425 -0.521821 -19.6639 
-36.7135 -0.521821 -20.5422 -28.3845 -0.521821 -20.1546 -20.0555 -0.521821 -19.3045 
-11.7265 -0.521821 -19.3948 -3.39755 -0.521821 -17.109 4.93144 -0.521821 -19.0005 
13.2604 -0.521821 -19.0258 21.5894 -0.521821 -18.5099 29.9184 -0.521821 -19.4844 
38.2474 -0.521821 -19.6963 46.5764 -0.521821 -18.8124 54.9054 -0.521821 -15.617 
-53.3715 7.80717 -16.2791 -45.0425 7.80717 -19.4763 -36.7135 7.80717 -21.2169 
-28.3845 7.80717 -20.4285 -20.0555 7.80717 -19.2145 -11.7265 7.80717 -19.1698 
-3.39755 7.80717 -18.7416 4.93144 7.80717 -17.9779 13.2604 7.80717 -17.2538 
21.5894 7.80717 -18.0676 29.9184 7.80717 -18.9952 38.2474 7.80717 -19.086 
46.5764 7.80717 -18.0137 54.9054 7.80717 -14.8055 -53.3715 16.1362 -14.3487 
-45.0425 16.1362 -18.5965 -36.7135 16.1362 -20.1157 -28.3845 16.1362 -20.1135 
-20.0555 16.1362 -19.6698 -11.7265 16.1362 -19.1005 -3.39755 16.1362 -18.5387 
4.93144 16.1362 -18.0952 13.2604 16.1362 -17.6258 21.5894 16.1362 -18.0921 
29.9184 16.1362 -18.7395 38.2474 16.1362 -17.9654 46.5764 16.1362 -16.5901 
-45.0425 24.4651 -16.1148 -36.7135 24.4651 -18.4316 -28.3845 24.4651 -19.7106 
-20.0555 24.4651 -19.4415 -11.7265 24.4651 -18.8783 -3.39755 24.4651 -17.8718 
4.93144 24.4651 -17.6771 13.2604 24.4651 -17.6333 21.5894 24.4651 -17.6603 
29.9184 24.4651 -16.7258 38.2474 24.4651 -15.4332 -36.7135 32.7941 -15.1204 
-28.3845 32.7941 -17.4476 -20.0555 32.7941 -18.0682 -11.7265 32.7941 -17.5827 
-3.39755 32.7941 -16.8116 4.93144 32.7941 -15.9445 13.2604 32.7941 -15.5343 
21.5894 32.7941 -14.7608 29.9184 32.7941 -13.9282 -11.7265 41.1231 -13.6337 
-28.3845 -42.4234 -13.4877 -20.0555 -45.2432 -13.4877 -11.7265 -45.388 -13.4877 
-3.39755 -46.1654 -13.4877 -3.39755 -50.4958 -6.05352 4.93144 -46.7992 -13.4877 
4.93144 -50.4958 -6.61623 13.2604 -46.4457 -13.4877 21.5894 -44.6611 -13.4877 
-28.7969 -42.1668 -13.4877 -36.7135 -36.5876 -13.4877 -36.7135 -42.1668 -5.93802 
26.7422 -42.1668 -13.4877 29.9184 -39.9003 -13.4877 29.9184 -42.1668 -8.79023 
38.2474 -34.5663 -13.4877 -39.74 -33.8378 -13.4877 -45.0425 -27.928 -13.4877 
-45.0425 -33.8378 -7.89365 39.158 -33.8378 -13.4877 46.5764 -27.0022 -13.4877 
-47.3416 -25.5088 -13.4877 48.4035 -25.5088 -13.4877 -51.9677 -17.1798 -13.4877 
-53.3715 -15.1015 -13.4877 -53.3715 -17.1798 -12.2869 53.7934 -17.1798 -13.4877 
54.9054 -15.2003 -13.4877 54.9054 -17.1798 -12.6749 -56.4922 -8.85081 -13.4877 
57.558 -8.85081 -13.4877 -58.5452 -0.521821 -13.4877 -61.7005 -0.521821 -7.19879 
58.2364 -0.521821 -13.4877 63.2344 -0.521821 -6.58494 -57.3111 7.80717 -13.4877 
56.6299 7.80717 -13.4877 54.9054 11.3241 -13.4877 -54.2442 16.1362 -13.4877 
-53.3715 17.621 -13.4877 52.3951 16.1362 -13.4877 46.5764 23.0888 -13.4877 
54.9054 16.1362 -11.4587 -49.065 24.4651 -13.4877 -53.3715 24.4651 -7.43766 
-45.0425 28.7284 -13.4877 44.3549 24.4651 -13.4877 38.2474 28.4422 -13.4877 
46.5764 24.4651 -12.5974 -39.8961 32.7941 -13.4877 -45.0425 32.7941 -7.17529 
-36.7135 34.7911 -13.4877 -28.3845 38.0985 -13.4877 -20.0555 40.9447 -13.4877 
-3.39755 39.9162 -13.4877 4.93144 37.7746 -13.4877 13.2604 36.3098 -13.4877 
21.5894 34.6555 -13.4877 31.4131 32.7941 -13.4877 29.9184 33.4202 -13.4877 
38.2474 32.7941 -10.4724 -28.3845 41.1231 -9.56271 -16.2764 41.1231 -13.4877 
-20.0555 41.1231 -13.2979 -10.157 41.1231 -13.4877 -11.7265 41.2956 -13.4877 
-3.39755 41.1231 -12.7724 4.93144 41.1231 -11.2702 13.2604 41.1231 -9.30763 
21.5894 41.1231 -7.48585 -3.39755 -50.8252 -5.15868 4.93144 -51.026 -5.15868 
-36.7135 -42.5449 -5.15868 -28.3845 -46.7697 -5.15868 -20.0555 -49.1203 -5.15868 
-6.48093 -50.4958 -5.15868 -11.7265 -49.9133 -5.15868 -3.39755 -50.4958 -4.07751 
13.1238 -50.4958 -5.15868 4.93144 -50.4958 -3.32228 13.2604 -50.4864 -5.15868 
21.5894 -47.594 -5.15868 29.9184 -43.3493 -5.15868 -37.2434 -42.1668 -5.15868 
-45.0425 -35.6488 -5.15868 -36.7135 -42.1668 -4.00374 31.7227 -42.1668 -5.15868 
29.9184 -42.1668 -1.84879 38.2474 -37.9849 -5.15868 -46.766 -33.8378 -5.15868 
-45.0425 -33.8378 0.10295 44.4493 -33.8378 -5.15868 46.5764 -32.3287 -5.15868 
-53.3167 -25.5088 -5.15868 -53.3715 -25.4214 -5.15868 54.0504 -25.5088 -5.15868 
54.9054 -24.5377 -5.15868 -57.8456 -17.1798 -5.15868 60.069 -17.1798 -5.15868 
-60.984 -8.85081 -5.15868 -61.7005 -4.54471 -5.15868 63.2007 -8.85081 -5.15868 
63.2344 -8.45769 -5.15868 -62.33 -0.521821 -5.15868 -61.7005 5.75777 -5.15868 
-61.7005 -0.521821 -0.939072 63.8414 -0.521821 -5.15868 63.2344 5.2191 -5.15868 
63.2344 -0.521821 -1.17456 -61.4883 7.80717 -5.15868 62.9176 7.80717 -5.15868 
-59.058 16.1362 -5.15868 59.785 16.1362 -5.15868 54.9054 23.924 -5.15868 
-54.5616 24.4651 -5.15868 -53.3715 25.9651 -5.15868 -53.3715 24.4651 1.12876 
54.4616 24.4651 -5.15868 46.5764 32.0876 -5.15868 -46.2278 32.7941 -5.15868 
-45.0425 33.7269 -5.15868 -36.7135 38.9666 -5.15868 29.9184 40.4116 -5.15868 
45.5147 32.7941 -5.15868 38.2474 36.9216 -5.15868 -32.5536 41.1231 -5.15868 
-28.3845 43.1912 -5.15868 -20.0555 45.8266 -5.15868 -11.7265 47.3696 -5.15868 
-3.39755 47.4673 -5.15868 4.93144 46.0768 -5.15868 13.2604 44.2768 -5.15868 
27.461 41.1231 -5.15868 21.5894 42.6691 -5.15868 29.9184 41.1231 -0.840557 
-28.3845 -44.0033 3.17031 -20.0555 -45.6967 3.17031 -11.7265 -46.7845 3.17031 
-3.39755 -47.5943 3.17031 4.93144 -48.1099 3.17031 13.2604 -47.2017 3.17031 
21.5894 -44.7168 3.17031 -32.0862 -42.1668 3.17031 -36.7135 -38.9358 3.17031 
-28.3845 -42.1668 5.42016 -20.0555 -42.1668 7.43767 -11.7265 -42.1668 8.1372 
-3.39755 -42.1668 8.7822 4.93144 -42.1668 9.05746 13.2604 -42.1668 8.1956 
26.5578 -42.1668 3.17031 21.5894 -42.1668 6.20194 29.9184 -40.1165 3.17031 
38.2474 -35.1849 3.17031 -43.4128 -33.8378 3.17031 -45.0425 -32.6266 3.17031 
-36.7135 -33.8378 8.3529 -28.3845 -33.8378 11.3039 29.9184 -33.8378 9.23083 
40.3449 -33.8378 3.17031 38.2474 -33.8378 4.84972 46.5764 -29.5306 3.17031 
-51.2514 -25.5088 3.17031 -53.3715 -22.4287 3.17031 -45.0425 -25.5088 9.89477 
51.1695 -25.5088 3.17031 46.5764 -25.5088 7.58638 54.9054 -21.5162 3.17031 
-56.4652 -17.1798 3.17031 -53.3715 -17.1798 7.80004 57.9562 -17.1798 3.17031 
54.9054 -17.1798 6.96368 -59.5179 -8.85081 3.17031 61.2932 -8.85081 3.17031 
54.9054 -8.85081 10.6918 -60.9968 -0.521821 3.17031 62.4193 -0.521821 3.17031 
54.9054 -0.521821 11.4143 -59.918 7.80717 3.17031 61.9837 7.80717 3.17031 
-57.4995 16.1362 3.17031 -53.3715 23.8102 3.17031 -53.3715 16.1362 9.50546 
59.4996 16.1362 3.17031 54.9054 23.8431 3.17031 54.9054 16.1362 10.0948 
-52.9129 24.4651 3.17031 54.4789 24.4651 3.17031 46.5764 32.7939 3.17031 
-45.1628 32.7941 3.17031 -45.0425 32.8954 3.17031 -45.0425 32.7941 3.36377 
-36.7135 38.5523 3.17031 46.5761 32.7941 3.17031 38.2474 38.2271 3.17031 
-31.8495 41.1231 3.17031 -28.3845 42.8536 3.17031 -28.3845 41.1231 8.84016 
-20.0555 46.1979 3.17031 -11.7265 48.4412 3.17031 -3.39755 49.0248 3.17031 
4.93144 48.0795 3.17031 13.2604 46.5382 3.17031 21.5894 44.4265 3.17031 
31.4434 41.1231 3.17031 29.9184 41.7269 3.17031 29.9184 41.1231 5.0391 
-20.0555 -37.1021 11.4993 -11.7265 -37.5146 11.4993 -3.39755 -37.7682 11.4993 
4.93144 -37.764 11.4993 13.2604 -36.7578 11.4993 21.5894 -35.0285 11.4993 
-36.7135 -29.1689 11.4993 -27.662 -33.8378 11.4993 -28.3845 -33.4635 11.4993 
-20.0555 -33.8378 13.3611 -11.7265 -33.8378 13.729 -3.39755 -33.8378 13.4815 
4.93144 -33.8378 13.3822 13.2604 -33.8378 13.0133 23.8651 -33.8378 11.4993 
21.5894 -33.8378 12.1765 29.9184 -30.4872 11.4993 38.2474 -25.6474 11.4993 
-41.565 -25.5088 11.4993 -45.0425 -22.9121 11.4993 -36.7135 -25.5088 13.2897 
-28.3845 -25.5088 15.2385 -20.0555 -25.5088 16.7459 -11.7265 -25.5088 17.3494 
-3.39755 -25.5088 15.9638 4.93144 -25.5088 14.9817 13.2604 -25.5088 15.6074 
21.5894 -25.5088 15.6427 29.9184 -25.5088 14.2824 38.4684 -25.5088 11.4993 
38.2474 -25.5088 11.5799 46.5764 -18.1094 11.4993 -49.4665 -17.1798 11.4993 
-53.3715 -9.44266 11.4993 -45.0425 -17.1798 14.3612 -36.7135 -17.1798 17.1187 
-28.3845 -17.1798 18.8659 -20.0555 -17.1798 19.3286 -11.7265 -17.1798 19.4911 
-3.39755 -17.1798 18.1327 4.93144 -17.1798 16.9937 13.2604 -17.1798 19.2992 
21.5894 -17.1798 18.7465 29.9184 -17.1798 17.294 38.2474 -17.1798 14.9732 
47.3704 -17.1798 11.4993 46.5764 -17.1798 11.901 -53.5936 -8.85081 11.4993 
-53.3715 -8.85081 11.7268 -45.0425 -8.85081 17.658 29.9184 -8.85081 18.9896 
38.2474 -8.85081 16.9827 53.6577 -8.85081 11.4993 46.5764 -8.85081 14.5548 
[...]
POINT_DATA 510
SCALARS ImageScalars float
LOOKUP_TABLE default
0 0 0 0 0 0 0 0 0 
0 0 0 0 0 0 0 0 0 
0 0 0 0 0 0 0 0 0 
0 0 0 0 0 0 0 0 0 
0 0 0 0 0 0 0 0 0 
0 0 0 0 0 0 0 0 0 
0 0 0 0 0 0 0 0 0 
0 0 0 0 0 0 0 0 0 
0 0 0 0 0 0 0 0 0 
0 0 0 0 0 0 0 0 0 
0 0 0 0 0 0 0 0 0 
0 0 0 0 0 0 0 0 0 
0 0 0 0 0 0 0 0 0 
0 0 0 0 0 0 0 0 0 
0 0 0 0 0 0 0 0 0 
0 0 0 0 0 0 0 0 0 
0 0 0 0 0 0 0 0 0 
0 0 0 0 0 0 0 0 0 
0 0 0 0 0 0 0 0 0 
0 0 0 0 0 0 0 0 0 
0 0 0 0 0 0 0 0 0 
0 0 0 0 0 0 0 0 0 
0 0 0 0 0 0 0 0 0 
0 0 0 0 0 0 0 0 0 
0 0 0 0 0 0 0 0 0 
0 0 0 0 0 0 0 0 0 
0 0 0 0 0 0 0 0 0 
0 0 0 0 0 0 0 0 0 
0 0 0 0 0 0 0 0 0 
0 0 0 0 0 0 0 0 0 
0 0 0 0 0 0 0 0 0 
0 0 0 0 0 0 0 0 0 
0 0 0 0 0 0 0 0 0 
0 0 0 0 0 0 0 0 0 
0 0 0 0 0 0 0 0 0 
0 0 0 0 0 0 0 0 0 
0 0 0 0 0 0 0 0 0 
0 0 0 0 0 0 0 0 0 
0 0 0 0 0 0 0 0 0 
0 0 0 0 0 0 0 0 0 
0 0 0 0 0 0 0 0 0 
0 0 0 0 0 0 0 0 0 
0 0 0 0 0 0 0 0 0 
0 0 0 0 0 0 0 0 0 
0 0 0 0 0 0 0 0 0 
0 0 0 0 0 0 0 0 0 
0 0 0 0 0 0 0 0 0 
0 0 0 0 0 0 0 0 0 
0 0 0 0 0 0 0 0 0 
0 0 0 0 0 0 0 0 0 
0 0 0 0 0 0 0 0 0 
0 0 0 0 0 0 0 0 0 
0 0 0 0 0 0 0 0 0 
0 0 0 0 0 0 0 0 0 
0 0 0 0 0 0 0 0 0 
0 0 0 0 0 0 0 0 0 
0 0 0 0 0 0 
NORMALS Normals float
-0.352366 -0.559025 -0.750552 -0.145385 -0.510173 -0.847695 -0.0442484 -0.49423 -0.868204 
-0.029568 -0.481432 -0.875984 -0.0187032 -0.460884 -0.887263 0.0479403 -0.518831 -0.853532 
0.272692 -0.599678 -0.752347 -0.3661 -0.404657 -0.837988 -0.190647 -0.269841 -0.943843 
-0.0734665 -0.177034 -0.981459 -0.0327961 -0.160462 -0.986497 -0.0143829 -0.123451 -0.992246 
-0.0617868 -0.137474 -0.988576 0.00520721 -0.134967 -0.990836 0.129229 -0.214568 -0.968122 
0.273802 -0.378892 -0.88401 0.478446 -0.583082 -0.656586 -0.415183 -0.362192 -0.83453 
-0.219309 -0.210314 -0.952718 -0.0635121 -0.0810122 -0.994687 -0.0538336 -0.0260596 -0.99821 
-0.0195232 -0.0230339 -0.999544 0.00918229 -0.0678259 -0.997655 -0.0414451 0.0465347 -0.998057 
-0.0304986 0.0937298 -0.99513 0.050944 -0.00996525 -0.998652 0.0962795 -0.10189 -0.990126 
0.264088 -0.249288 -0.931726 0.442931 -0.450389 -0.775217 -0.2864 -0.253823 -0.923877 
-0.0990285 -0.136337 -0.9857 -0.00568421 -0.0868799 -0.996203 -0.0168825 0.00402579 -0.999849 
-0.0757512 -0.0447188 -0.996123 0.0587688 -0.129689 -0.989812 0.091173 0.00743565 -0.995807 
-0.050211 0.125848 -0.990778 -0.0672493 0.0581874 -0.996038 0.0217748 -0.0213923 -0.999534 
0.139012 -0.089568 -0.986232 0.299247 -0.227887 -0.926563 -0.514728 -0.198586 -0.834038 
-0.252731 -0.130409 -0.958708 -0.0706712 -0.111149 -0.991288 0.0785734 -0.0620442 -0.994976 
-0.00646294 -0.0312745 -0.99949 -0.157034 7.51679e-05 -0.987593 0.0481016 0.127513 -0.99067 
0.219999 -0.0396436 -0.974694 0.0172589 -0.0282614 -0.999452 -0.0995229 0.042403 -0.994131 
-0.0481752 0.0064722 -0.998818 0.0556048 -0.0502565 -0.997187 0.195296 -0.0972238 -0.975913 
0.518537 -0.133971 -0.844494 -0.472939 -0.032164 -0.880508 -0.209923 -0.0370901 -0.977014 
-0.0320254 -0.0517135 -0.998148 0.0741339 -0.0253546 -0.996926 0.0455881 -0.0144513 -0.998856 
0.103615 0.0586269 -0.992888 0.051216 0.18201 -0.981962 -0.105015 0.0864423 -0.990707 
0.0309616 0.0431 -0.998591 -0.0304649 0.0444609 -0.998546 -0.0692708 0.0352966 -0.996973 
0.0373053 0.031024 -0.998822 0.236617 0.0335041 -0.971025 0.474857 0.0405514 -0.879128 
-0.517199 0.109388 -0.848846 -0.270337 0.0564181 -0.961111 -0.0620655 0.0224559 -0.997819 
0.120985 0.00251723 -0.992651 0.071468 -0.021892 -0.997203 0.0269001 0.0176728 -0.999482 
0.0763128 -0.0694784 -0.99466 0.0861353 0.0424606 -0.995378 -0.00540384 0.0777573 -0.996958 
-0.104054 0.0243317 -0.994274 -0.0608864 0.0443211 -0.99716 0.0548028 0.10686 -0.992763 
0.213787 0.134863 -0.967526 0.516679 0.203952 -0.831533 -0.618315 0.333128 -0.711837 
-0.270805 0.204472 -0.940668 -0.0812553 0.168225 -0.982394 0.0267442 0.0408142 -0.998809 
0.0606545 -0.0137492 -0.998064 0.0676448 0.0180191 -0.997547 0.0604635 0.0509001 -0.996872 
0.0538744 0.0186808 -0.998373 0.000197062 -0.0229316 -0.999737 -0.065094 0.0232501 -0.997608 
0.00972587 0.130651 -0.991381 0.125624 0.195126 -0.9727 0.308155 0.255798 -0.916301 
-0.411476 0.382816 -0.827127 -0.196648 0.264999 -0.943984 -0.0637097 0.140046 -0.988093 
0.0508966 0.0972336 -0.993959 0.090748 0.0830598 -0.992404 0.0744826 0.0983458 -0.992361 
0.0139027 0.119854 -0.992694 0.00116113 0.121342 -0.99261 0.0526508 0.174542 -0.983241 
0.120944 0.272247 -0.954596 0.205692 0.3856 -0.899446 -0.327849 0.551155 -0.767296 
-0.166285 0.441376 -0.88178 -0.00342883 0.317474 -0.948261 0.0724568 0.278922 -0.957576 
0.0917027 0.262663 -0.96052 0.0725721 0.32694 -0.942254 0.0631035 0.389216 -0.918982 
0.0940129 0.468874 -0.878248 0.180983 0.491762 -0.851713 0.0268257 0.602083 -0.797983 
-0.355066 -0.571312 -0.739954 -0.12973 -0.692965 -0.709203 -0.0435101 -0.692812 -0.719804 
-0.0622376 -0.68415 -0.726681 -0.0661707 -0.993631 -0.0912073 -0.0116601 -0.688266 -0.725364 
0.0170863 -0.991081 -0.132158 0.111279 -0.733222 -0.670822 0.289167 -0.744594 -0.601633 
-0.362411 -0.567253 -0.739515 -0.418975 -0.51211 -0.749802 -0.557395 -0.822476 -0.113326 
0.405538 -0.691968 -0.59726 0.443766 -0.649228 -0.617718 0.522159 -0.821706 -0.228361 
0.490816 -0.612496 -0.619636 -0.463376 -0.467443 -0.752847 -0.475989 -0.425167 -0.769849 
-0.703233 -0.652367 -0.282633 0.498843 -0.601763 -0.623728 0.477732 -0.509636 -0.715572 
-0.496226 -0.40186 -0.769589 0.498074 -0.484705 -0.719016 -0.597877 -0.328627 -0.731127 
-0.621687 -0.314267 -0.717455 -0.692395 -0.362496 -0.623848 0.566457 -0.307716 -0.764485 
0.591214 -0.28384 -0.754918 0.635652 -0.342923 -0.691628 -0.656803 -0.250686 -0.711172 
0.632678 -0.174356 -0.754532 -0.720483 -0.0342866 -0.692624 -0.978151 -0.0303797 -0.205666 
0.614877 0.0325267 -0.787952 0.97214 0.0171393 -0.233775 -0.697542 0.170842 -0.695879 
0.581898 0.224208 -0.781745 0.565053 0.26969 -0.779732 -0.652899 0.351518 -0.670939 
-0.643244 0.37558 -0.667216 0.531251 0.321323 -0.783916 0.387847 0.463315 -0.796815 
0.657559 0.369467 -0.65659 -0.5737 0.448303 -0.685487 -0.7827 0.567325 -0.255975 
-0.504034 0.553837 -0.662732 0.347804 0.473027 -0.809492 0.268387 0.48093 -0.834671 
0.416552 0.517063 -0.74775 -0.414865 0.625289 -0.660985 -0.601084 0.764529 -0.232795 
-0.358089 0.649136 -0.671114 -0.252008 0.658484 -0.709148 -0.120013 0.691766 -0.712079 
0.101924 0.535155 -0.838582 0.108676 0.494595 -0.862302 0.100902 0.516481 -0.850333 
0.108105 0.534055 -0.83851 0.203415 0.510619 -0.835399 0.184036 0.519042 -0.834701 
0.366803 0.654347 -0.661276 -0.331068 0.836592 -0.436472 -0.0553761 0.659282 -0.749854 
-0.124444 0.704601 -0.698607 0.0414324 0.599159 -0.799557 0.0256369 0.608773 -0.79293 
0.103131 0.597363 -0.795312 0.150119 0.653622 -0.741783 0.158313 0.757162 -0.633753 
0.186706 0.831154 -0.523759 -0.0657001 -0.997279 -0.0334314 0.0211542 -0.999071 -0.037542 
-0.554115 -0.829546 -0.0693523 -0.360912 -0.932358 -0.0212268 -0.191433 -0.981264 -0.0217581 
-0.0782964 -0.996482 -0.0298788 -0.101505 -0.994381 -0.0300389 -0.067706 -0.997187 0.0321524 
0.188103 -0.982044 -0.0143485 0.0203044 -0.996931 0.0756036 0.190877 -0.981514 -0.0140168 
0.370604 -0.928784 0.0035617 0.51458 -0.857241 0.0185878 -0.565011 -0.822472 -0.0655887 
-0.709002 -0.698558 -0.0966021 -0.567205 -0.823566 0.0041514 0.522221 -0.852722 0.0122945 
0.507885 -0.839964 0.191084 0.543864 -0.839091 -0.0117664 -0.735177 -0.669527 -0.106056 
-0.663853 -0.707075 0.243608 0.594283 -0.802437 -0.0540563 0.621214 -0.780244 -0.0728945 
-0.823873 -0.560333 -0.0852051 -0.824768 -0.558953 -0.085616 0.740454 -0.669638 -0.0575624 
0.759746 -0.646833 -0.0662848 -0.896617 -0.416843 -0.149399 0.883228 -0.452791 -0.122015 
-0.962624 -0.251435 -0.100674 -0.986994 -0.135857 -0.0859432 0.968686 -0.215584 -0.123167 
0.970973 -0.204632 -0.123845 -0.996433 -0.0282518 -0.0795132 -0.987871 0.132531 -0.0809119 
-0.990837 -0.0259914 0.132539 0.990139 0.0134119 -0.139448 0.972148 0.163961 -0.167465 
0.993289 -0.0041953 0.11558 -0.979307 0.184359 -0.08348 0.95451 0.234439 -0.184253 
-0.923089 0.370222 -0.104126 0.864187 0.432985 -0.25633 0.754352 0.606032 -0.252344 
-0.808337 0.574901 -0.126806 -0.780714 0.612104 -0.125757 -0.786225 0.580009 0.213167 
0.74441 0.616791 -0.255779 0.583369 0.75325 -0.303799 -0.624098 0.770249 -0.131217 
-0.607137 0.782991 -0.135317 -0.466293 0.871458 -0.152088 0.291884 0.88843 -0.354254 
0.565248 0.76544 -0.307565 0.420347 0.830738 -0.364941 -0.416537 0.893753 -0.166439 
-0.366522 0.911475 -0.186747 -0.250186 0.933809 -0.25575 -0.095042 0.936837 -0.336606 
0.0703668 0.910698 -0.407034 0.177033 0.880432 -0.439884 0.195351 0.869171 -0.454291 
0.26451 0.891428 -0.367955 0.206994 0.887205 -0.412336 0.328682 0.936644 -0.121106 
-0.285608 -0.8083 0.514859 -0.156696 -0.81239 0.561666 -0.0968809 -0.818882 0.565726 
-0.0679952 -0.820228 0.567981 0.0187127 -0.827181 0.561625 0.178667 -0.807107 0.562722 
0.338763 -0.792824 0.506625 -0.407742 -0.742002 0.532145 -0.517215 -0.678133 0.522134 
-0.297855 -0.720996 0.625657 -0.125332 -0.7096 0.693369 -0.0589629 -0.675093 0.735373 
-0.0433362 -0.631037 0.774541 0.0282023 -0.602552 0.797581 0.131155 -0.634572 0.761654 
0.409841 -0.770512 0.488202 0.297081 -0.711656 0.636622 0.446753 -0.749295 0.488844 
0.472665 -0.751291 0.460597 -0.570088 -0.678597 0.463148 -0.596353 -0.667813 0.445409 
-0.402825 -0.591219 0.698707 -0.224099 -0.478605 0.848951 0.326328 -0.588226 0.739933 
0.490534 -0.744246 0.453292 0.451975 -0.72219 0.523603 0.561851 -0.692892 0.451912 
-0.728443 -0.562089 0.391698 -0.777938 -0.50773 0.370167 -0.486511 -0.51362 0.706755 
0.627353 -0.642885 0.439462 0.503694 -0.571059 0.648216 0.707373 -0.553802 0.439234 
-0.839942 -0.411663 0.353598 -0.728308 -0.404173 0.553364 0.782724 -0.438064 0.44209 
0.654192 -0.42872 0.623082 -0.904267 -0.240901 0.352517 0.858971 -0.246382 0.448847 
0.598352 -0.191631 0.77798 -0.93737 -0.0221889 0.347628 0.914285 -0.0299708 0.403961 
0.591146 -0.0437435 0.805378 -0.913429 0.18841 0.360761 0.925606 0.169296 0.338515 
-0.866912 0.352781 0.35215 -0.768665 0.548922 0.328387 -0.722127 0.309297 0.618764 
0.88018 0.375555 0.290243 0.797049 0.558886 0.228823 0.719399 0.273191 0.638617 
-0.757787 0.56439 0.32745 0.787673 0.573928 0.224004 0.625271 0.763665 0.160785 
-0.637069 0.728435 0.252044 -0.635086 0.730415 0.251315 -0.63585 0.727252 0.258454 
-0.498702 0.843082 0.20127 0.625264 0.763671 0.160782 0.45967 0.880068 0.119095 
-0.446159 0.880004 0.162898 -0.415617 0.897165 0.149524 -0.443701 0.82911 0.340157 
-0.316365 0.94581 0.0731884 -0.16188 0.986481 0.0255028 0.0215229 0.999755 0.00520953 
0.14605 0.989251 -0.00716763 0.22537 0.974237 0.00845031 0.263847 0.963584 0.0434868 
0.362262 0.928336 0.0834217 0.344991 0.935427 0.0771804 0.35011 0.922527 0.162378 
-0.126714 -0.531606 0.83746 -0.0203249 -0.541239 0.840623 -0.0081739 -0.472895 0.881081 
0.0293658 -0.431519 0.901626 0.0820767 -0.454645 0.886883 0.189621 -0.474283 0.859709 
-0.311475 -0.477365 0.821649 -0.214011 -0.474316 0.853946 -0.220208 -0.473 0.8531 
-0.128093 -0.448524 0.884544 -0.00596719 -0.464405 0.885603 0.0186171 -0.36839 0.929485 
0.0260078 -0.307064 0.951333 0.0664238 -0.379015 0.923004 0.213269 -0.479935 0.850987 
0.177174 -0.449447 0.875561 0.269064 -0.500877 0.822634 0.308551 -0.446338 0.839987 
-0.380901 -0.467162 0.797919 -0.446917 -0.456352 0.769421 -0.270006 -0.426972 0.863013 
-0.181169 -0.404253 0.896525 -0.117723 -0.336535 0.934284 0.0468022 -0.32076 0.946004 
0.136304 -0.258632 0.956311 0.0200651 -0.191771 0.981235 -0.0381241 -0.321519 0.946135 
0.0699607 -0.364433 0.928598 0.21841 -0.399861 0.890173 0.310938 -0.444934 0.839852 
0.307184 -0.443011 0.842246 0.395086 -0.362292 0.844187 -0.555064 -0.377286 0.741323 
-0.681733 -0.22313 0.696745 -0.416584 -0.379256 0.82621 -0.245721 -0.39523 0.885107 
-0.118343 -0.366114 0.923015 -0.0359324 -0.279612 0.95944 0.0633609 -0.19664 0.978426 
0.145566 -0.2416 0.959396 -0.0571015 -0.419292 0.906054 -0.0920977 -0.514803 0.852347 
0.109473 -0.348674 0.930829 0.204858 -0.260188 0.943576 0.274953 -0.295395 0.914955 
0.404968 -0.349964 0.844704 0.38771 -0.341984 0.855995 -0.686188 -0.211404 0.696028 
-0.681139 -0.211341 0.700988 -0.426851 -0.245692 0.870307 0.268922 -0.193842 0.943454 
0.256471 -0.20057 0.945513 0.547219 -0.19176 0.814727 0.347152 -0.20176 0.915848 
-0.71477 -0.0179768 0.699128 -0.679243 -0.0179388 0.733694 -0.424682 -0.0309988 0.904812 
0.279939 -0.162703 0.94613 0.585977 -0.0443068 0.809115 0.383666 -0.117151 0.916011 
0.597273 -0.021153 0.801759 -0.709369 0.149733 0.68875 -0.698604 0.187454 0.690517 
-0.696884 0.149408 0.701448 -0.444672 0.1593 0.881414 0.292234 -0.0469107 0.955195 
0.421499 -0.0196648 0.906615 0.628625 0.0525789 0.775929 0.637003 0.089528 0.765645 
0.617327 0.0496026 0.785142 -0.64856 0.292538 0.702703 -0.499397 0.285381 0.818022 
0.313881 0.111159 0.942933 0.658228 0.243243 0.712439 0.478096 0.169279 0.86184 
-0.591215 0.443376 0.673708 -0.585682 0.462154 0.665876 -0.577337 0.431167 0.693381 
-0.441152 0.322718 0.8374 0.345706 0.339443 0.874794 0.580139 0.455902 0.674976 
0.561825 0.493493 0.66394 0.547818 0.437049 0.713361 -0.550513 0.602704 0.577654 
-0.537176 0.62883 0.562152 -0.530832 0.580468 0.617474 -0.460677 0.770446 0.440669 
-0.435085 0.434332 0.788706 0.172895 0.301383 0.937697 0.166277 0.436064 0.884421 
0.330399 0.765062 0.552736 0.267482 0.501964 0.822488 0.474208 0.624203 0.620884 
0.4474 0.649559 0.614741 0.438423 0.609838 0.660214 -0.430955 0.800141 0.417195 
-0.350824 0.857393 0.376564 -0.331037 0.730933 0.596784 -0.163323 0.909008 0.383446 
-0.0953453 0.638453 0.763732 0.0334098 0.912694 0.407276 0.0897059 0.587572 0.804184 
0.183733 0.872842 0.452094 0.190144 0.616145 0.764337 0.261782 0.821887 0.505937 
0.253773 0.680092 0.687804 0.283758 0.783541 0.552761 0.2786 0.782149 0.557338 
0.274854 0.770092 0.575685 -0.229097 -0.295362 0.92751 -0.0996223 -0.329794 0.938782 
-0.0146422 -0.268046 0.963295 0.0722183 -0.187629 0.979581 -0.0682434 -0.179852 0.981324 
-0.180652 -0.415767 0.891349 -0.0803715 -0.513871 0.854094 0.190128 -0.326494 0.92588 
-0.275383 -0.262957 0.924672 -0.226162 -0.263472 0.937781 -0.0658051 -0.255333 0.964611 
0.0615254 -0.225218 0.972364 0.104184 -0.162794 0.981144 -0.0862569 -0.174234 0.980919 
-0.293624 -0.325186 0.89891 0.0317044 -0.331565 0.9429 0.290348 -0.215495 0.932341 
0.33462 -0.267248 0.903664 0.270313 -0.181636 0.945484 -0.37319 -0.0349504 0.927096 
-0.245569 -0.0455367 0.968309 -0.0696196 -0.0372255 0.996879 0.0682636 -0.0438557 0.996703 
0.108129 -0.0555033 0.992586 -0.0466753 -0.123278 0.991274 -0.251052 -0.0149491 0.967858 
-0.0161083 0.0463115 0.998797 0.271051 -0.0894817 0.958397 0.27183 -0.167806 0.947602 
0.267233 -0.167853 0.9489 -0.344099 0.138165 0.928712 -0.236721 0.105945 0.965784 
-0.0677179 0.067586 0.995413 0.0442833 0.0301655 0.998563 0.0320231 -0.0125901 0.999408 
-0.068473 -0.0552099 0.996124 -0.114148 0.056046 0.991882 -0.0454091 0.17012 0.984377 
0.12031 0.0499809 0.991477 0.290482 -0.0470603 0.955723 0.225181 -0.0547809 0.972776 
-0.34164 0.186675 0.921105 -0.343809 0.192992 0.918994 -0.33556 0.182787 0.924115 
-0.147758 0.0779364 0.985948 -0.011437 -0.026086 0.999594 0.0237079 -0.100968 0.994607 
0.0144793 -0.0576843 0.99823 -0.0143323 0.0532194 0.99848 -0.0277848 0.157439 0.987138 
0.0369691 0.154918 0.987235 0.295082 0.108249 0.94932 0.183402 0.108523 0.977029 
-0.34577 0.231645 0.909277 -0.373232 0.328064 0.867797 -0.277397 0.170596 0.945488 
-0.128651 0.0308843 0.991209 0.00027158 -0.053323 0.998577 0.0869872 -0.0193441 0.996022 
0.100717 0.0566742 0.9933 0.150797 0.272329 0.950314 0.0619392 0.1719 0.983165 
0.1055 0.32417 0.940098 0.0717244 0.258453 0.963358 0.192101 0.287519 0.938312 
0.180077 0.295634 0.938175 0.175393 0.283729 0.942727 -0.374323 0.384495 0.843828 
-0.275359 0.480943 0.832389 -0.228421 0.287504 0.930143 -0.0805507 0.567401 0.819492 
-0.0262153 0.215542 0.976143 0.0984485 0.503247 0.858517 0.116905 0.192576 0.974293 
0.173667 0.284918 0.942688 0.18475 0.359007 0.914867 0.180119 0.236824 0.95471 

