# vtk DataFile Version 4.2
vtk output
ASCII
DATASET POLYDATA
POINTS 508 float
-31.1441 -38.8216 -16.4902 -23.0317 -38.8216 -18.7077 -14.9193 -38.8216 -19.904 
-6.80683 -38.8216 -19.6784 1.30561 -38.8216 -18.5338 9.41804 -38.8216 -15.0835 
-39.2566 -30.7092 -16.3581 -31.1441 -30.7092 -19.7011 -23.0317 -30.7092 -21.1169 
-14.9193 -30.7092 -21.9011 -6.80683 -30.7092 -21.665 1.30561 -30.7092 -21.3578 
9.41804 -30.7092 -20.4868 17.5305 -30.7092 -16.9202 -39.2566 -22.5968 -18.1886 
-31.1441 -22.5968 -21.7217 -23.0317 -22.5968 -21.9172 -14.9193 -22.5968 -21.8928 
-6.80683 -22.5968 -22.0028 1.30561 -22.5968 -21.9668 9.41804 -22.5968 -21.0337 
17.5305 -22.5968 -19.8017 25.6429 -22.5968 -17.8736 33.7553 -22.5968 -15.3458 
-47.369 -14.4843 -15.9601 -39.2566 -14.4843 -19.3998 -31.1441 -14.4843 -20.9167 
-23.0317 -14.4843 -21.0412 -14.9193 -14.4843 -20.8513 -6.80683 -14.4843 -21.7528 
1.30561 -14.4843 -22.048 9.41804 -14.4843 -20.8137 17.5305 -14.4843 -19.9048 
25.6429 -14.4843 -19.8601 33.7553 -14.4843 -18.5443 41.8678 -14.4843 -16.1897 
-47.369 -6.37191 -17.1657 -39.2566 -6.37191 -20.2632 -31.1441 -6.37191 -20.8955 
-23.0317 -6.37191 -20.336 -14.9193 -6.37191 -19.6492 -6.80683 -6.37191 -21.0592 
1.30561 -6.37191 -21.3764 9.41804 -6.37191 -20.9485 17.5305 -6.37191 -19.5769 
25.6429 -6.37191 -19.6908 33.7553 -6.37191 -19.3812 41.8678 -6.37191 -18.0258 
-47.369 1.74053 -17.987 -39.2566 1.74053 -20.353 -31.1441 1.74053 -20.5571 
-23.0317 1.74053 -19.7054 -14.9193 1.74053 -19.5119 -6.80683 1.74053 -21.4869 
1.30561 1.74053 -20.1156 9.41804 1.74053 -21.3053 17.5305 1.74053 -19.633 
25.6429 1.74053 -19.8796 33.7553 1.74053 -19.7493 41.8678 1.74053 -18.4633 
-47.369 9.85296 -17.3177 -39.2566 9.85296 -19.6962 -31.1441 9.85296 -20.1414 
-23.0317 9.85296 -19.6129 -14.9193 9.85296 -19.5994 -6.80683 9.85296 -22.7086 
1.30561 9.85296 -22.3805 9.41804 9.85296 -20.4028 17.5305 9.85296 -19.8114 
25.6429 9.85296 -20.0796 33.7553 9.85296 -19.9339 41.8678 9.85296 -17.9776 
-47.369 17.9654 -16.5456 -39.2566 17.9654 -19.1359 -31.1441 17.9654 -20.1392 
-23.0317 17.9654 -20.3366 -14.9193 17.9654 -19.8046 -6.80683 17.9654 -20.2406 
1.30561 17.9654 -20.233 9.41804 17.9654 -20.1402 17.5305 17.9654 -20.2307 
25.6429 17.9654 -20.2613 33.7553 17.9654 -19.4142 41.8678 17.9654 -16.5669 
-39.2566 26.0778 -17.4865 -31.1441 26.0778 -19.5158 -23.0317 26.0778 -20.3964 
-14.9193 26.0778 -21.0738 -6.80683 26.0778 -20.2514 1.30561 26.0778 -20.0491 
9.41804 26.0778 -20.0317 17.5305 26.0778 -20.0898 25.6429 26.0778 -19.6978 
33.7553 26.0778 -17.4815 -31.1441 34.1903 -18.4848 -23.0317 34.1903 -19.6926 
-14.9193 34.1903 -21.078 -6.80683 34.1903 -19.9957 1.30561 34.1903 -19.5446 
9.41804 34.1903 -19.2011 17.5305 34.1903 -18.3662 25.6429 34.1903 -16.4526 
-23.0317 42.3027 -16.9152 -14.9193 42.3027 -18.2629 -6.80683 42.3027 -18.3845 
1.30561 42.3027 -17.6276 9.41804 42.3027 -15.8937 -31.1441 -40.377 -15.0552 
-23.0317 -43.1686 -15.0552 -14.9193 -44.3768 -15.0552 -14.9193 -46.9341 -7.54122 
-6.80683 -43.7673 -15.0552 1.30561 -41.9227 -15.0552 9.41804 -38.8438 -15.0552 
-33.265 -38.8216 -15.0552 -39.2566 -32.7371 -15.0552 9.46039 -38.8216 -15.0552 
17.5305 -33.1133 -15.0552 -40.7418 -30.7092 -15.0552 21.0755 -30.7092 -15.0552 
25.6429 -27.1951 -15.0552 25.6429 -30.7092 -11.1006 33.7553 -23.0152 -15.0552 
-44.3756 -22.5968 -15.0552 -47.369 -17.0443 -15.0552 -47.369 -22.5968 -11.3041 
34.5902 -22.5968 -15.0552 41.8678 -16.9243 -15.0552 41.8678 -22.5968 -11.3355 
-48.3549 -14.4843 -15.0552 44.0098 -14.4843 -15.0552 49.9802 -14.4843 -11.3747 
-49.8943 -6.37191 -15.0552 48.7146 -6.37191 -15.0552 49.9802 -6.37191 -14.3178 
-51.2261 1.74053 -15.0552 -55.4814 1.74053 -8.299 49.1094 1.74053 -15.0552 
49.9802 1.74053 -14.4907 -50.2989 9.85296 -15.0552 47.4674 9.85296 -15.0552 
49.9802 9.85296 -13.013 -49.0989 17.9654 -15.0552 -47.369 21.2037 -15.0552 
44.1301 17.9654 -15.0552 41.8678 22.2864 -15.0552 49.9802 17.9654 -8.77168 
-43.1347 26.0778 -15.0552 -47.369 26.0778 -9.61282 -39.2566 31.7681 -15.0552 
39.2811 26.0778 -15.0552 33.7553 31.368 -15.0552 41.8678 26.0778 -12.9013 
-37.3145 34.1903 -15.0552 -39.2566 34.1903 -12.9766 -31.1441 39.986 -15.0552 
17.5305 40.0715 -15.0552 29.7205 34.1903 -15.0552 25.6429 36.2887 -15.0552 
33.7553 34.1903 -12.4359 -27.7121 42.3027 -15.0552 -31.1441 42.3027 -12.3747 
-23.0317 44.6766 -15.0552 -14.9193 47.5408 -15.0552 -6.80683 48.0107 -15.0552 
1.30561 46.5625 -15.0552 12.6316 42.3027 -15.0552 9.41804 43.4616 -15.0552 
17.5305 42.3027 -12.9989 -14.9193 50.4151 -11.466 -6.80683 50.4151 -12.3903 
1.30561 50.4151 -10.709 -14.9193 -47.1041 -6.94276 -31.1441 -44.516 -6.94276 
-19.0957 -46.9341 -6.94276 -23.0317 -46.7691 -6.94276 -13.6445 -46.9341 -6.94276 
-14.9193 -46.9341 -3.06659 -6.80683 -46.0042 -6.94276 1.30561 -44.0995 -6.94276 
9.41804 -41.1404 -6.94276 -39.1639 -38.8216 -6.94276 -39.2566 -38.736 -6.94276 
14.0222 -38.8216 -6.94276 17.5305 -36.9176 -6.94276 17.5305 -38.8216 -2.36424 
25.6429 -33.1439 -6.94276 -45.3423 -30.7092 -6.94276 -47.369 -27.0065 -6.94276 
31.5153 -30.7092 -6.94276 33.7553 -29.7533 -6.94276 33.7553 -30.7092 -5.40623 
41.8678 -26.1496 -6.94276 41.8678 -30.7092 0.223918 -49.6355 -22.5968 -6.94276 
46.9571 -22.5968 -6.94276 49.9802 -19.944 -6.94276 49.9802 -22.5968 -3.23625 
-52.619 -14.4843 -6.94276 54.1567 -14.4843 -6.94276 -54.9778 -6.37191 -6.94276 
-55.4814 -2.48359 -6.94276 56.8143 -6.37191 -6.94276 58.0926 -6.37191 -3.06696 
-56.018 1.74053 -6.94276 -55.4814 9.66335 -6.94276 -55.4814 1.74053 -5.06366 
56.4639 1.74053 -6.94276 58.0926 1.74053 -0.115575 -55.4682 9.85296 -6.94276 
54.4912 9.85296 -6.94276 -52.9105 17.9654 -6.94276 51.0908 17.9654 -6.94276 
49.9802 19.836 -6.94276 -48.6079 26.0778 -6.94276 -47.369 27.9655 -6.94276 
-47.369 26.0778 -3.82391 45.855 26.0778 -6.94276 41.8678 30.7154 -6.94276 
-42.5956 34.1903 -6.94276 -39.2566 37.9641 -6.94276 25.6429 42.2655 -6.94276 
38.1 34.1903 -6.94276 33.7553 37.6109 -6.94276 -34.6763 42.3027 -6.94276 
-31.1441 45.1574 -6.94276 -23.0317 50.0482 -6.94276 9.41804 49.6242 -6.94276 
25.5679 42.3027 -6.94276 17.5305 46.0988 -6.94276 -21.9816 50.4151 -6.94276 
-14.9193 52.6613 -6.94276 -6.80683 53.3378 -6.94276 7.30905 50.4151 -6.94276 
1.30561 52.4665 -6.94276 -31.1441 -43.8626 1.16968 -23.0317 -46.3239 1.16968 
-14.9193 -46.7517 1.16968 -6.80683 -45.8993 1.16968 1.30561 -44.71 1.16968 
9.41804 -42.6087 1.16968 17.5305 -40.1757 1.16968 -38.5196 -38.8216 1.16968 
-39.2566 -38.1664 1.16968 21.7519 -38.8216 1.16968 25.6429 -37.3268 1.16968 
25.6429 -38.8216 4.65681 33.7553 -34.6748 1.16968 41.8678 -31.2723 1.16968 
-45.1933 -30.7092 1.16968 -47.369 -26.676 1.16968 42.5842 -30.7092 1.16968 
49.9802 -24.9304 1.16968 -49.4881 -22.5968 1.16968 -47.369 -22.5968 5.85918 
52.2456 -22.5968 1.16968 -51.8668 -14.4843 1.16968 57.1745 -14.4843 1.16968 
58.0926 -10.8795 1.16968 -53.241 -6.37191 1.16968 59.2407 -6.37191 1.16968 
58.0926 -6.37191 8.20722 -53.4798 1.74053 1.16968 -47.369 1.74053 8.07903 
58.353 1.74053 1.16968 58.0926 2.64573 1.16968 58.0926 1.74053 2.43046 
-52.3265 9.85296 1.16968 -47.369 9.85296 6.49281 55.8551 9.85296 1.16968 
-49.8673 17.9654 1.16968 -47.369 22.1018 1.16968 -47.369 17.9654 3.6182 
51.9332 17.9654 1.16968 49.9802 20.8952 1.16968 49.9802 17.9654 6.89124 
-45.1946 26.0778 1.16968 -39.2566 26.0778 7.72748 46.0806 26.0778 1.16968 
41.8678 30.641 1.16968 -39.2719 34.1903 1.16968 -39.2566 34.2098 1.16968 
-39.2566 34.1903 1.18615 25.6429 41.9888 1.16968 37.7731 34.1903 1.16968 
33.7553 37.2269 1.16968 33.7553 34.1903 6.75076 -31.6285 42.3027 1.16968 
-31.1441 42.7191 1.16968 -31.1441 42.3027 1.66175 -23.0317 48.5287 1.16968 
9.41804 49.8359 1.16968 25.0527 42.3027 1.16968 17.5305 46.1381 1.16968 
17.5305 42.3027 8.15935 -18.9454 50.4151 1.16968 -14.9193 52.2374 1.16968 
-14.9193 50.4151 4.62551 -6.80683 53.3779 1.16968 -6.80683 50.4151 7.47409 
7.77965 50.4151 1.16968 1.30561 52.6074 1.16968 1.30561 50.4151 5.92455 
-31.1441 -40.6353 9.28211 -23.0317 -44.1563 9.28211 -14.9193 -45.6168 9.28211 
-6.80683 -45.8356 9.28211 1.30561 -45.1216 9.28211 9.41804 -45.0964 9.28211 
17.5305 -43.5734 9.28211 25.6429 -40.8959 9.28211 -33.6785 -38.8216 9.28211 
-39.2566 -33.7209 9.28211 -31.1441 -38.8216 11.6049 -23.0317 -38.8216 16.7545 
29.8921 -38.8216 9.28211 33.7553 -37.2191 9.28211 41.8678 -32.3371 9.28211 
-41.6071 -30.7092 9.28211 -39.2566 -30.7092 12.0391 43.9487 -30.7092 9.28211 
41.8678 -30.7092 12.6266 49.9802 -24.6783 9.28211 -45.5525 -22.5968 9.28211 
-47.369 -15.1953 9.28211 -39.2566 -22.5968 15.1833 51.6894 -22.5968 9.28211 
49.9802 -22.5968 11.996 -47.5196 -14.4843 9.28211 -47.369 -14.4843 9.45303 
-39.2566 -14.4843 15.9523 55.6637 -14.4843 9.28211 49.9802 -14.4843 16.1213 
-47.4863 -6.37191 9.28211 -47.369 -5.63852 9.28211 -47.369 -6.37191 9.39513 
-39.2566 -6.37191 14.5419 57.8878 -6.37191 9.28211 -45.4532 1.74053 9.28211 
-39.2566 1.74053 12.4771 -31.1441 1.74053 15.13 56.4874 1.74053 9.28211 
49.9802 1.74053 16.9956 -42.7309 9.85296 9.28211 -39.2566 9.85296 11.0486 
-31.1441 9.85296 14.2369 53.7272 9.85296 9.28211 49.9802 16.5176 9.28211 
49.9802 9.85296 14.1405 -40.1972 17.9654 9.28211 -39.2566 20.6242 9.28211 
-39.2566 17.9654 9.94919 -31.1441 17.9654 14.52 48.9386 17.9654 9.28211 
41.8678 17.9654 15.7214 -37.4182 26.0778 9.28211 -31.1441 26.0778 13.8771 
17.5305 26.0778 17.0444 25.6429 26.0778 16.1017 33.7553 32.4502 9.28211 
33.7553 26.0778 14.352 42.0378 26.0778 9.28211 41.8678 26.2456 9.28211 
41.8678 26.0778 9.4549 -32.7575 34.1903 9.28211 -31.1441 36.0576 9.28211 
-31.1441 34.1903 10.7877 -23.0317 34.1903 15.7144 1.30561 34.1903 16.8581 
9.41804 34.1903 15.2609 17.5305 41.3216 9.28211 17.5305 34.1903 13.8756 
30.5602 34.1903 9.28211 25.6429 36.7226 9.28211 25.6429 34.1903 11.4255 
-24.7341 42.3027 9.28211 -23.0317 43.6017 9.28211 -23.0317 42.3027 10.5923 
-14.9193 47.3965 9.28211 -14.9193 42.3027 13.648 -6.80683 49.2218 9.28211 
-6.80683 42.3027 14.6772 1.30561 48.2037 9.28211 1.30561 42.3027 13.7864 
[...]
POINT_DATA 508
SCALARS ImageScalars float
LOOKUP_TABLE default
0 0 0 0 0 0 0 0 0 
0 0 0 0 0 0 0 0 0 
0 0 0 0 0 0 0 0 0 
0 0 0 0 0 0 0 0 0 
0 0 0 0 0 0 0 0 0 
0 0 0 0 0 0 0 0 0 
0 0 0 0 0 0 0 0 0 
0 0 0 0 0 0 0 0 0 
0 0 0 0 0 0 0 0 0 
0 0 0 0 0 0 0 0 0 
0 0 0 0 0 0 0 0 0 
0 0 0 0 0 0 0 0 0 
0 0 0 0 0 0 0 0 0 
0 0 0 0 0 0 0 0 0 
0 0 0 0 0 0 0 0 0 
0 0 0 0 0 0 0 0 0 
0 0 0 0 0 0 0 0 0 
0 0 0 0 0 0 0 0 0 
0 0 0 0 0 0 0 0 0 
0 0 0 0 0 0 0 0 0 
0 0 0 0 0 0 0 0 0 
0 0 0 0 0 0 0 0 0 
0 0 0 0 0 0 0 0 0 
0 0 0 0 0 0 0 0 0 
0 0 0 0 0 0 0 0 0 
0 0 0 0 0 0 0 0 0 
0 0 0 0 0 0 0 0 0 
0 0 0 0 0 0 0 0 0 
0 0 0 0 0 0 0 0 0 
0 0 0 0 0 0 0 0 0 
0 0 0 0 0 0 0 0 0 
0 0 0 0 0 0 0 0 0 
0 0 0 0 0 0 0 0 0 
0 0 0 0 0 0 0 0 0 
0 0 0 0 0 0 0 0 0 
0 0 0 0 0 0 0 0 0 
0 0 0 0 0 0 0 0 0 
0 0 0 0 0 0 0 0 0 
0 0 0 0 0 0 0 0 0 
0 0 0 0 0 0 0 0 0 
0 0 0 0 0 0 0 0 0 
0 0 0 0 0 0 0 0 0 
0 0 0 0 0 0 0 0 0 
0 0 0 0 0 0 0 0 0 
0 0 0 0 0 0 0 0 0 
0 0 0 0 0 0 0 0 0 
0 0 0 0 0 0 0 0 0 
0 0 0 0 0 0 0 0 0 
0 0 0 0 0 0 0 0 0 
0 0 0 0 0 0 0 0 0 
0 0 0 0 0 0 0 0 0 
0 0 0 0 0 0 0 0 0 
0 0 0 0 0 0 0 0 0 
0 0 0 0 0 0 0 0 0 
0 0 0 0 0 0 0 0 0 
0 0 0 0 0 0 0 0 0 
0 0 0 0 
NORMALS Normals float
0.407326 0.583649 0.702453 0.190706 0.507355 0.84037 0.0589763 0.459112 0.886419 
-0.0746994 0.495506 0.865386 -0.228664 0.625523 0.745945 -0.4051 0.771646 0.490364 
0.569907 0.378842 0.729167 0.266192 0.27482 0.923913 0.129196 0.17607 0.975863 
0.0363945 0.117476 0.992409 -0.0329388 0.117846 0.992485 -0.0702931 0.172712 0.982461 
-0.262213 0.287318 0.921245 -0.438785 0.504844 0.743371 0.454347 0.165138 0.875385 
0.210207 0.0722273 0.974985 0.0095266 -0.0022755 0.999952 0.00528823 -0.064274 0.997918 
0.00456501 0.00643184 0.999969 -0.0592027 0.0437265 0.997288 -0.131706 0.017859 0.991128 
-0.18915 0.157247 0.969276 -0.259735 0.376161 0.889405 -0.303801 0.493779 0.814793 
0.620802 0.223102 0.751552 0.284198 0.122655 0.950888 0.0955519 -0.0464557 0.99434 
-0.00405257 -0.0942105 0.995544 0.0437145 -0.138433 0.989407 0.0737735 -0.0577452 0.995602 
-0.0583907 -0.0341392 0.99771 -0.13166 -0.00521021 0.991281 -0.0585103 -0.0139478 0.998189 
-0.0775593 0.103476 0.991603 -0.203086 0.227418 0.952385 -0.370099 0.318515 0.872682 
0.533154 0.111808 0.838598 0.200527 0.0572816 0.978012 0.00385974 -0.0223688 0.999742 
-0.0778203 -0.0816341 0.99362 0.0454253 -0.0820078 0.995596 0.1064 -0.018029 0.99416 
-0.00730582 -0.118508 0.992926 -0.110272 0.0303129 0.993439 -0.0764108 -0.0166032 0.996938 
-0.0119563 0.00167038 0.999927 -0.1014 0.069862 0.99239 -0.282014 0.122081 0.951612 
0.462937 0.00735009 0.88636 0.137312 -0.0350817 0.989906 -0.0374591 -0.0463077 0.998225 
-0.0656254 -0.0437151 0.996886 0.107426 -0.00327391 0.994208 0.0420582 0.0976774 0.994329 
-0.00767194 0.0675113 0.997689 -0.0367964 -0.033941 0.998746 -0.0864427 0.0144713 0.996152 
0.00717081 0.0239567 0.999687 -0.087071 0.0343091 0.995611 -0.288977 -0.00227753 0.957333 
0.461908 -0.0890793 0.882443 0.151761 -0.0779728 0.985337 -0.00616439 -0.0257464 0.99965 
-0.0334034 0.0353419 0.998817 0.176469 0.0185727 0.984131 0.176147 -0.0855856 0.980636 
-0.141906 -0.0047166 0.989869 -0.155872 -0.0715232 0.985184 -0.019632 0.0367611 0.999131 
0.0072389 0.0233632 0.999701 -0.123986 -0.0184044 0.992113 -0.353213 -0.100414 0.930138 
0.568638 -0.257664 0.781192 0.217016 -0.113772 0.969515 0.0752544 -0.0353097 0.996539 
-0.0204485 0.050252 0.998527 -0.00314944 0.0913561 0.995813 0.0266852 -0.135872 0.990367 
-0.00624084 -0.140924 0.990001 -0.000103388 -0.0227311 0.999742 0.00743611 0.0173866 0.999821 
-0.0475535 -0.020544 0.998657 -0.199479 -0.150213 0.96832 -0.461014 -0.242339 0.853661 
0.39252 -0.301703 0.868852 0.159069 -0.0931949 0.982859 0.0929629 -0.0370806 0.994979 
-0.00925627 0.0793944 0.9968 -0.0626753 -0.0149099 0.997923 -0.0135089 -0.0418269 0.999034 
0.00242014 -0.0582379 0.9983 -0.0187196 -0.107366 0.994043 -0.15356 -0.212485 0.965023 
-0.320602 -0.315127 0.893258 0.32097 -0.320313 0.891279 0.142345 -0.182528 0.972842 
0.0133207 -0.163608 0.986435 -0.0889048 -0.111415 0.989789 -0.0487608 -0.146041 0.988076 
-0.0668222 -0.230263 0.970832 -0.161396 -0.34191 0.92577 -0.261961 -0.481375 0.836454 
0.259041 -0.501131 0.825691 0.0719088 -0.425476 0.902108 -0.0388741 -0.348918 0.936347 
-0.144428 -0.39406 0.907666 -0.218459 -0.529272 0.819846 0.41548 0.657668 0.62837 
0.202855 0.743882 0.63678 0.0297556 0.827503 0.560672 -0.0408886 0.988786 0.143629 
-0.146382 0.83054 0.537378 -0.277531 0.823002 0.495625 -0.405286 0.772639 0.488643 
0.476398 0.614825 0.628519 0.607726 0.44991 0.654408 -0.405826 0.772276 0.488768 
-0.481246 0.621574 0.6181 0.638458 0.407421 0.652978 -0.432239 0.609374 0.664705 
-0.349645 0.577996 0.737339 -0.384624 0.75234 0.534836 -0.309 0.510116 0.802683 
0.622604 0.298856 0.723221 0.659925 0.268743 0.701624 0.800567 0.392497 0.452813 
-0.317276 0.503021 0.803932 -0.392471 0.399468 0.828488 -0.448708 0.615509 0.647927 
0.670586 0.2315 0.704785 -0.419994 0.339228 0.841742 -0.590879 0.394817 0.703549 
0.646178 0.137236 0.750747 -0.493926 0.143483 0.857584 -0.547917 0.142702 0.824272 
0.641119 0.0212844 0.767146 0.988117 0.0309535 0.150557 -0.550119 -0.0415317 0.834053 
-0.592776 -0.050022 0.803812 0.642008 -0.111825 0.758499 -0.546673 -0.166016 0.820723 
-0.684353 -0.212802 0.697407 0.672913 -0.274028 0.687093 0.632805 -0.344156 0.693625 
-0.538814 -0.284805 0.792821 -0.534978 -0.361733 0.76351 -0.813097 -0.425466 0.397305 
0.537689 -0.413215 0.734945 0.814055 -0.534506 0.227197 0.532524 -0.450214 0.716747 
-0.502097 -0.414058 0.759246 -0.414408 -0.508407 0.754844 -0.631003 -0.498867 0.59411 
0.530322 -0.466578 0.707859 0.643832 -0.561113 0.520224 0.438743 -0.548649 0.711681 
-0.257065 -0.581532 0.771841 -0.363026 -0.549225 0.752704 -0.299425 -0.55573 0.77557 
-0.506363 -0.667177 0.546325 0.389316 -0.580732 0.714971 0.533522 -0.697299 0.478673 
0.296982 -0.593924 0.7477 0.132358 -0.623283 0.770714 -0.0385949 -0.617696 0.785469 
-0.181482 -0.588982 0.787505 -0.249997 -0.586656 0.770283 -0.239768 -0.570965 0.785182 
-0.320528 -0.725932 0.60851 0.173787 -0.854766 0.489053 -0.0301754 -0.81448 0.579407 
-0.217254 -0.848673 0.482239 -0.045349 0.991959 0.118153 0.425461 0.889886 0.164576 
0.0468667 0.990211 0.131476 0.137458 0.979885 0.144674 -0.0649781 0.991255 0.114851 
-0.0371242 0.999141 0.0184224 -0.176898 0.978758 0.103631 -0.292834 0.943164 0.157132 
-0.382315 0.899581 0.211162 0.673488 0.716668 0.18111 0.676547 0.713697 0.181441 
-0.40952 0.871776 0.268886 -0.42875 0.84349 0.32357 -0.35759 0.876658 0.32187 
-0.362673 0.825479 0.432495 0.832826 0.514744 0.203568 0.864923 0.457949 0.205403 
-0.34357 0.808806 0.477276 -0.334762 0.793745 0.507842 -0.324202 0.817638 0.475774 
-0.447721 0.720022 0.530202 -0.509192 0.794261 0.331469 0.892568 0.399475 0.209145 
-0.54793 0.657216 0.517533 -0.614264 0.575999 0.539357 -0.638428 0.680168 0.360251 
0.9338 0.313006 0.173333 -0.760282 0.402158 0.510137 0.973069 0.200415 0.113888 
0.989771 0.117179 0.0813809 -0.883134 0.112579 0.455413 -0.964707 0.0906929 0.247216 
0.998213 0.0289667 0.052274 0.983104 -0.179217 0.0372419 0.998766 0.014275 -0.0475593 
-0.898862 -0.123268 0.420537 -0.981129 -0.184558 0.0576572 0.982189 -0.184217 0.0369923 
-0.886998 -0.29144 0.358187 0.921592 -0.382983 0.0631825 -0.845724 -0.440159 0.30168 
-0.833761 -0.468552 0.292064 0.850672 -0.524581 0.0342287 0.83141 -0.554131 0.0411746 
0.848497 -0.510012 -0.141213 -0.774187 -0.580918 0.251333 -0.699931 -0.674699 0.234261 
0.75407 -0.653457 0.0661225 0.715842 -0.69368 0.0798645 -0.441024 -0.872238 0.21142 
-0.63073 -0.744421 0.219129 -0.559782 -0.801541 0.210182 0.645926 -0.757402 0.0955034 
0.587039 -0.803258 0.100804 0.399865 -0.907441 0.129069 -0.359208 -0.895641 0.262291 
-0.440374 -0.872558 0.211456 -0.394805 -0.885656 0.244423 0.370382 -0.919064 0.134677 
0.184778 -0.964645 0.187929 -0.0122953 -0.973981 0.226297 -0.327279 -0.909411 0.256633 
-0.218195 -0.939841 0.262851 0.426244 0.884049 -0.191763 0.156732 0.976299 -0.149251 
-0.0268337 0.99557 -0.0901084 -0.126824 0.991866 -0.0108359 -0.202375 0.977396 0.0611653 
-0.260896 0.942379 0.209417 -0.295264 0.890968 0.344956 0.653381 0.732901 -0.189603 
0.679134 0.709287 -0.188912 -0.304176 0.875973 0.374365 -0.303919 0.858513 0.413025 
-0.330085 0.894349 0.301966 -0.293376 0.876319 0.382094 -0.517926 0.800513 0.301549 
0.824902 0.535612 -0.180711 0.87046 0.452795 -0.19307 -0.529824 0.795011 0.295372 
-0.659186 0.729122 0.183998 0.908124 0.367436 -0.200752 0.849532 0.335296 -0.407274 
-0.721039 0.673279 0.163702 0.936682 0.211844 -0.278836 -0.930938 0.360359 0.0591286 
-0.971252 0.231936 0.0536178 0.912118 0.0948457 -0.398804 -0.995969 0.0711292 0.0546466 
-0.946044 0.0500113 -0.320155 0.886613 -0.05046 -0.459752 0.571127 -0.135217 -0.809648 
-0.981312 -0.192417 -0.0011744 -0.977765 -0.209611 -0.006268 -0.978241 -0.198928 -0.058931 
0.83958 -0.179262 -0.512806 0.594689 -0.208939 -0.776331 -0.931718 -0.360889 -0.0407484 
0.756821 -0.356188 -0.548043 0.752281 -0.409197 -0.516362 0.683428 -0.330263 -0.651039 
-0.856138 -0.508571 -0.0915615 -0.830009 -0.546437 -0.111766 -0.774863 -0.533852 -0.338509 
0.768378 -0.435541 -0.468934 0.609392 -0.340578 -0.715994 -0.765554 -0.624779 -0.153553 
-0.685288 -0.703998 -0.186458 0.705983 -0.547981 -0.448671 0.705818 -0.548232 -0.448622 
0.705773 -0.5478 -0.449221 -0.477004 -0.845673 -0.239384 -0.604853 -0.767894 -0.210929 
-0.542161 -0.809554 -0.22513 -0.482072 -0.736637 -0.474312 0.609058 -0.692197 -0.387184 
0.60321 -0.70031 -0.381711 0.605337 -0.687168 -0.401705 0.425976 -0.844993 -0.323314 
-0.367682 -0.908532 -0.198443 -0.47549 -0.847322 -0.236548 -0.419714 -0.882052 -0.214065 
-0.375417 -0.713013 -0.592178 0.33636 -0.8954 -0.291754 0.268993 -0.929102 -0.253796 
0.284005 -0.862702 -0.418433 0.015408 -0.977656 -0.209646 0.0394439 -0.847135 -0.529911 
-0.335883 -0.92109 -0.196918 -0.20208 -0.958202 -0.202518 -0.201641 -0.869278 -0.451328 
0.476905 0.744156 -0.467753 0.260833 0.879992 -0.396963 0.0960964 0.958542 -0.268259 
-0.0342807 0.987777 -0.152059 -0.0465704 0.995102 -0.0871934 -0.0853672 0.995689 0.0362777 
-0.220832 0.964898 0.142144 -0.348736 0.924655 0.152957 0.538759 0.696367 -0.474144 
0.669357 0.550033 -0.499424 0.487314 0.674906 -0.5541 0.304792 0.57522 -0.759094 
-0.41211 0.904709 0.108014 -0.472197 0.879784 0.0548621 -0.580826 0.804434 -0.124609 
0.720485 0.477408 -0.502975 0.651059 0.446826 -0.613571 -0.62027 0.7729 -0.133755 
-0.618787 0.712627 -0.330553 -0.76629 0.597316 -0.23667 0.770511 0.282423 -0.571445 
0.775363 0.105873 -0.622578 0.587932 0.174622 -0.789838 -0.793895 0.542595 -0.274448 
-0.755466 0.495806 -0.428308 0.774139 0.0882889 -0.626829 0.769322 0.0863881 -0.632993 
0.508292 -0.0430896 -0.860106 -0.868596 0.311975 -0.384984 -0.610149 0.211628 -0.7635 
0.679836 -0.062841 -0.730667 0.665973 -0.0717608 -0.742516 0.676254 -0.0656935 -0.733733 
0.448358 -0.195477 -0.872218 -0.923554 0.04598 -0.380702 0.502119 -0.155432 -0.850716 
0.383383 -0.198933 -0.901911 0.300609 -0.208067 -0.930775 -0.885532 -0.21996 -0.409207 
-0.576451 -0.152572 -0.802761 0.458922 -0.168581 -0.872336 0.412454 -0.134418 -0.901007 
0.364007 -0.0350773 -0.930736 -0.824986 -0.378667 -0.419536 -0.740369 -0.50728 -0.441045 
-0.67783 -0.352484 -0.645214 0.556902 -0.177132 -0.81147 0.561761 -0.220043 -0.7975 
0.542532 -0.165064 -0.823658 0.462517 -0.0152066 -0.88648 -0.712879 -0.532531 -0.456306 
-0.450036 -0.45644 -0.767548 0.582202 -0.294689 -0.757759 0.53767 -0.175673 -0.824651 
-0.0727123 -0.29806 -0.951774 -0.138209 -0.420521 -0.896694 -0.424406 -0.67193 -0.606951 
-0.294173 -0.540434 -0.788285 -0.582351 -0.626064 -0.518566 -0.578785 -0.628228 -0.51994 
-0.576743 -0.625837 -0.525067 0.59768 -0.456986 -0.658742 0.59082 -0.479913 -0.648548 
0.576728 -0.440148 -0.688226 0.344816 -0.401889 -0.848284 -0.153824 -0.264231 -0.952114 
-0.165221 -0.316236 -0.934182 -0.346719 -0.660017 -0.666456 -0.203162 -0.43301 -0.878195 
-0.390974 -0.667921 -0.633262 -0.348238 -0.657864 -0.667792 -0.298861 -0.594871 -0.746197 
0.478393 -0.615193 -0.626639 0.433002 -0.650964 -0.623502 0.431223 -0.613038 -0.66199 
0.258822 -0.708277 -0.656776 0.197229 -0.559436 -0.805067 0.0383389 -0.76668 -0.640883 
0.00360357 -0.488067 -0.872799 -0.187727 -0.723855 -0.663922 -0.165982 -0.482632 -0.859952 
-0.342076 -0.66286 -0.666034 -0.30406 -0.657182 -0.68968 -0.268288 -0.561386 -0.782858 
0.195656 0.622719 -0.757588 0.0928869 0.697652 -0.71039 0.0173519 0.784699 -0.619634 
-0.0243427 0.811226 -0.584226 -0.162463 0.863372 -0.477697 -0.391613 0.794371 -0.464343 
0.386768 0.348356 -0.853849 0.275135 0.550577 -0.788141 0.294445 0.518577 -0.802733 
0.186592 0.507495 -0.841209 0.102849 0.471723 -0.875728 0.0492462 0.506046 -0.861099 
0.0364201 0.561879 -0.826417 -0.122557 0.649597 -0.750336 -0.43172 0.776019 -0.459795 
-0.391136 0.732916 -0.556638 -0.505766 0.669852 -0.543598 0.39173 0.338067 -0.855721 
0.382061 0.334617 -0.861429 0.241289 0.261055 -0.934682 0.103615 0.162509 -0.981252 
0.0739863 0.122333 -0.989728 0.064497 0.127811 -0.989699 0.063209 0.147863 -0.986986 
-0.0639433 0.12151 -0.990528 -0.19058 0.255902 -0.94773 -0.566903 0.515789 -0.642326 
-0.402388 0.403806 -0.821599 -0.51426 0.385943 -0.765888 0.453001 0.131966 -0.881689 
0.331382 0.110304 -0.937027 0.14205 0.0588494 -0.988109 0.0494132 0.0213768 -0.99855 
0.0628954 0.00546769 -0.998005 0.0766654 0.0441478 -0.996079 0.038457 0.0183378 -0.999092 
0.0102317 -0.088945 -0.995984 -0.0774195 -0.00211999 -0.996996 -0.293644 0.0603811 -0.954006 
-0.505189 0.301356 -0.808683 -0.429984 0.258054 -0.865172 0.423829 -0.0697111 -0.903055 
0.306635 -0.0901407 -0.947549 0.148358 -0.04916 -0.987711 0.0498717 0.0872835 -0.994934 
0.09564 0.125408 -0.987485 0.0820388 0.0637824 -0.994586 -0.0717034 0.0090665 -0.997385 
-0.0792385 -0.127691 -0.988644 -0.0442212 -0.0906887 -0.994897 -0.117978 -0.0126095 -0.992936 
-0.506112 0.170529 -0.845441 -0.295746 0.122223 -0.947415 -0.531737 0.0702548 -0.843991 
0.362434 -0.249815 -0.897905 0.344365 -0.2499 -0.904966 0.349044 -0.253871 -0.902063 
0.313246 -0.202461 -0.92784 0.233797 0.0483216 -0.971084 0.0279215 0.0351399 -0.998992 
-0.043923 -0.190164 -0.980769 -0.15749 -0.0863554 -0.983738 -0.0903313 -0.0498863 -0.994662 
0.0335195 -0.00955566 -0.999392 -0.0652314 0.0296502 -0.99743 -0.235531 0.0315394 -0.971355 
-0.529822 0.0407086 -0.847131 -0.542551 -0.0433391 -0.838904 -0.518626 0.0405028 -0.854042 
0.389997 -0.17384 -0.904258 0.397109 -0.170367 -0.90182 0.296327 -0.187176 -0.936566 
-0.119603 -0.159804 -0.979876 -0.0192242 -0.0198137 -0.999619 0.0570317 -0.0280379 -0.997979 
-0.0090572 -0.00537698 -0.999945 0.0363818 -0.0253145 -0.999017 -0.0771133 -0.0464116 -0.995942 
-0.543304 -0.144285 -0.827045 -0.283411 -0.087789 -0.954972 0.390593 0.0699717 -0.917901 
0.390617 0.0781013 -0.917234 0.243073 -0.107712 -0.964009 0.163223 -0.147577 -0.975489 
0.0793025 0.0245357 -0.996549 -0.128048 -0.112394 -0.985379 -0.0881691 -0.137032 -0.986635 
-0.00817169 -0.152951 -0.9882 -0.12871 -0.179837 -0.97524 -0.474814 -0.292462 -0.830071 
-0.397546 -0.368699 -0.840249 -0.345857 -0.263289 -0.90059 0.390582 0.0342562 -0.919931 
0.341689 0.0426724 -0.938844 0.0752115 -0.0547442 -0.995664 0.00636024 -0.18572 -0.982582 
-0.00159008 -0.345543 -0.938401 -0.078071 -0.35252 -0.932542 -0.0641691 -0.29075 -0.954645 
-0.0305764 -0.266498 -0.96335 -0.0873829 -0.37864 -0.92141 -0.0116395 -0.318953 -0.947699 
-0.322675 -0.417055 -0.849674 -0.217866 -0.439332 -0.871506 -0.193712 -0.38385 -0.902848 
0.374469 -0.164851 -0.912468 0.32219 -0.271208 -0.906995 0.312378 -0.167466 -0.93508 
0.0190649 -0.161176 -0.986741 -0.0850281 -0.132096 -0.987583 -0.130446 -0.236689 -0.962789 
-0.084374 -0.196276 -0.976912 -0.0770349 -0.270276 -0.959696 -0.07708 -0.270225 -0.959707 
-0.0770473 -0.270215 -0.959712 0.145689 -0.343281 -0.927865 0.113045 -0.347552 -0.930821 
0.107762 -0.330865 -0.937505 -0.097943 -0.253455 -0.962376 -0.0438528 -0.276144 -0.960115 
-0.050432 -0.242451 -0.968852 
