# vtk DataFile Version 4.2
vtk output
ASCII
DATASET POLYDATA
POINTS 554 float
-29.6233 -37.1832 -12.3576 -21.7776 -37.1832 -13.0342 -13.9319 -37.1832 -13.3456 
-6.08625 -37.1832 -12.5945 1.75942 -37.1832 -11.7474 -45.3146 -29.3376 -13.1743 
-37.469 -29.3376 -15.1094 -29.6233 -29.3376 -15.8938 -21.7776 -29.3376 -16.0991 
-13.9319 -29.3376 -16.0043 -6.08625 -29.3376 -15.6145 1.75942 -29.3376 -14.8248 
9.6051 -29.3376 -13.907 17.4508 -29.3376 -12.3076 25.2965 -29.3376 -11.7222 
-53.1603 -21.4919 -12.8998 -45.3146 -21.4919 -15.7949 -37.469 -21.4919 -16.9818 
-29.6233 -21.4919 -17.1607 -21.7776 -21.4919 -17.0384 -13.9319 -21.4919 -17.0738 
-6.08625 -21.4919 -16.1006 1.75942 -21.4919 -14.8948 9.6051 -21.4919 -14.582 
17.4508 -21.4919 -13.5066 25.2965 -21.4919 -13.6449 33.1421 -21.4919 -13.2767 
40.9878 -21.4919 -13.8847 48.8335 -21.4919 -11.9597 -61.006 -13.6462 -12.0295 
-53.1603 -13.6462 -15.3913 -45.3146 -13.6462 -16.5221 -37.469 -13.6462 -17.3332 
-29.6233 -13.6462 -17.7863 -21.7776 -13.6462 -17.3658 -13.9319 -13.6462 -17.2341 
-6.08625 -13.6462 -17.234 1.75942 -13.6462 -14.7826 9.6051 -13.6462 -14.3978 
17.4508 -13.6462 -13.6135 25.2965 -13.6462 -14.2453 33.1421 -13.6462 -15.1866 
40.9878 -13.6462 -15.0654 48.8335 -13.6462 -14.9474 56.6792 -13.6462 -12.2188 
-61.006 -5.80053 -13.2581 -53.1603 -5.80053 -16.151 -45.3146 -5.80053 -16.891 
-37.469 -5.80053 -17.2722 -29.6233 -5.80053 -17.1068 -21.7776 -5.80053 -16.8988 
-13.9319 -5.80053 -18.2926 -6.08625 -5.80053 -18.115 1.75942 -5.80053 -15.8027 
9.6051 -5.80053 -16.7005 17.4508 -5.80053 -14.3536 25.2965 -5.80053 -15.2279 
33.1421 -5.80053 -16.0765 40.9878 -5.80053 -16.4423 48.8335 -5.80053 -16.0266 
56.6792 -5.80053 -13.9702 -61.006 2.04515 -13.5054 -53.1603 2.04515 -16.2599 
-45.3146 2.04515 -16.658 -37.469 2.04515 -16.8732 -29.6233 2.04515 -16.4653 
-21.7776 2.04515 -16.1755 -13.9319 2.04515 -18.1217 -6.08625 2.04515 -16.1742 
1.75942 2.04515 -15.2886 9.6051 2.04515 -17.0479 17.4508 2.04515 -15.0331 
25.2965 2.04515 -16.1737 33.1421 2.04515 -16.9861 40.9878 2.04515 -17.2843 
48.8335 2.04515 -16.1641 56.6792 2.04515 -14.1192 -61.006 9.89083 -12.4467 
-53.1603 9.89083 -15.2637 -45.3146 9.89083 -16.0585 -37.469 9.89083 -16.7225 
-29.6233 9.89083 -16.6586 -21.7776 9.89083 -16.0842 -13.9319 9.89083 -15.6595 
-6.08625 9.89083 -15.4539 1.75942 9.89083 -17.3035 9.6051 9.89083 -15.8211 
17.4508 9.89083 -15.294 25.2965 9.89083 -16.2523 33.1421 9.89083 -16.9945 
40.9878 9.89083 -17.0089 48.8335 9.89083 -16.0182 56.6792 9.89083 -12.945 
-53.1603 17.7365 -12.8803 -45.3146 17.7365 -15.6644 -37.469 17.7365 -16.5469 
-29.6233 17.7365 -16.3252 -21.7776 17.7365 -16.2483 -13.9319 17.7365 -16.1642 
-6.08625 17.7365 -15.999 1.75942 17.7365 -15.2438 9.6051 17.7365 -15.7944 
17.4508 17.7365 -16.3927 25.2965 17.7365 -16.865 33.1421 17.7365 -16.5875 
40.9878 17.7365 -15.7963 48.8335 17.7365 -14.7464 56.6792 17.7365 -12.33 
-53.1603 25.5822 -11.5231 -45.3146 25.5822 -13.4893 -37.469 25.5822 -15.3598 
-29.6233 25.5822 -16.1851 -21.7776 25.5822 -16.3994 -13.9319 25.5822 -16.8447 
-6.08625 25.5822 -16.9363 1.75942 25.5822 -16.3349 9.6051 25.5822 -16.3126 
17.4508 25.5822 -17.0248 25.2965 25.5822 -16.4008 33.1421 25.5822 -15.7395 
40.9878 25.5822 -15.3211 -37.469 33.4279 -11.5119 -29.6233 33.4279 -13.5772 
-21.7776 33.4279 -14.926 -13.9319 33.4279 -15.9655 -6.08625 33.4279 -16.4521 
1.75942 33.4279 -16.0968 9.6051 33.4279 -15.7595 17.4508 33.4279 -15.8201 
25.2965 33.4279 -15.2091 33.1421 33.4279 -13.5756 -13.9319 41.2735 -12.4229 
-6.08625 41.2735 -13.5537 1.75942 41.2735 -13.8321 9.6051 41.2735 -13.228 
17.4508 41.2735 -12.3943 -29.6233 -38.5889 -11.1325 -21.7776 -39.6785 -11.1325 
-13.9319 -40.1142 -11.1325 -6.08625 -39.2637 -11.1325 1.75942 -38.0496 -11.1325 
-45.3146 -32.9933 -11.1325 -45.3146 -37.1832 -7.51733 -34.8548 -37.1832 -11.1325 
-37.469 -36.4254 -11.1325 -37.469 -37.1832 -10.5153 6.24934 -37.1832 -11.1325 
9.6051 -36.2248 -11.1325 9.6051 -37.1832 -10.4439 17.4508 -31.887 -11.1325 
17.4508 -37.1832 -7.80973 25.2965 -30.6342 -11.1325 25.2965 -37.1832 -6.25119 
33.1421 -37.1832 -5.83435 40.9878 -37.1832 -3.94286 -51.19 -29.3376 -11.1325 
-53.1603 -27.1938 -11.1325 -53.1603 -29.3376 -10.1715 30.5174 -29.3376 -11.1325 
33.1421 -28.3451 -11.1325 33.1421 -29.3376 -10.8105 40.9878 -26.5064 -11.1325 
40.9878 -29.3376 -9.62609 48.8335 -24.3096 -11.1325 48.8335 -29.3376 -9.61642 
56.6792 -29.3376 -5.82258 -56.6505 -21.4919 -11.1325 -61.006 -16.2453 -11.1325 
-61.006 -21.4919 -7.93817 53.655 -21.4919 -11.1325 56.6792 -18.9752 -11.1325 
56.6792 -21.4919 -10.3866 64.5248 -21.4919 -4.86015 -62.1904 -13.6462 -11.1325 
59.1259 -13.6462 -11.1325 64.5248 -13.6462 -8.33739 -63.8468 -5.80053 -11.1325 
-68.8517 -5.80053 -3.63553 63.7066 -5.80053 -11.1325 64.5248 -5.80053 -10.7439 
-64.3803 2.04515 -11.1325 -68.8517 2.04515 -4.90265 63.3684 2.04515 -11.1325 
64.5248 2.04515 -10.4541 -62.7852 9.89083 -11.1325 -61.006 14.3524 -11.1325 
60.3605 9.89083 -11.1325 64.5248 9.89083 -8.12145 -57.6354 17.7365 -11.1325 
-61.006 17.7365 -9.43163 48.8335 25.0729 -11.1325 58.3265 17.7365 -11.1325 
56.6792 19.7986 -11.1325 -53.8251 25.5822 -11.1325 -53.1603 26.205 -11.1325 
-45.3146 31.0647 -11.1325 48.359 25.5822 -11.1325 40.9878 31.6081 -11.1325 
48.8335 25.5822 -10.8737 56.6792 25.5822 -4.05513 -39.4982 33.4279 -11.1325 
-45.3146 33.4279 -9.41586 -37.469 33.9789 -11.1325 -29.6233 37.5356 -11.1325 
-21.7776 39.7346 -11.1325 25.2965 40.9731 -11.1325 38.7107 33.4279 -11.1325 
33.1421 37.9388 -11.1325 40.9878 33.4279 -9.70246 -29.6233 41.2735 -5.8133 
-18.3366 41.2735 -11.1325 -21.7776 41.2735 -9.38933 -13.9319 42.6598 -11.1325 
-6.08625 44.1735 -11.1325 1.75942 44.8265 -11.1325 9.6051 44.1039 -11.1325 
24.3942 41.2735 -11.1325 17.4508 42.9349 -11.1325 25.2965 41.2735 -10.8724 
33.1421 41.2735 -6.73979 -45.3146 -39.7126 -3.2868 -37.469 -42.5756 -3.2868 
-29.6233 -44.5313 -3.2868 -21.7776 -44.7335 -3.2868 -13.9319 -44.7045 -3.2868 
-6.08625 -44.7272 -3.2868 1.75942 -44.0413 -3.2868 9.6051 -41.9951 -3.2868 
17.4508 -40.3994 -3.2868 25.2965 -39.1532 -3.2868 33.1421 -39.0619 -3.2868 
40.9878 -37.6319 -3.2868 -50.009 -37.1832 -3.2868 -53.1603 -35.0445 -3.2868 
42.7217 -37.1832 -3.2868 48.8335 -35.5386 -3.2868 48.8335 -37.1832 3.27517 
56.6792 -31.8581 -3.2868 -58.7035 -29.3376 -3.2868 -61.006 -26.3477 -3.2868 
59.5811 -29.3376 -3.2868 64.5248 -23.3306 -3.2868 -63.9755 -21.4919 -3.2868 
65.9271 -21.4919 -3.2868 -67.7905 -13.6462 -3.2868 -68.8517 -7.09368 -3.2868 
68.8677 -13.6462 -3.2868 -69.0458 -5.80053 -3.2868 -68.8517 -5.80053 -2.15731 
70.7847 -5.80053 -3.2868 -69.8048 2.04515 -3.2868 -68.8517 6.82523 -3.2868 
-68.8517 2.04515 2.0699 69.774 2.04515 -3.2868 -68.1277 9.89083 -3.2868 
67.7637 9.89083 -3.2868 64.5248 16.5595 -3.2868 -65.7507 17.7365 -3.2868 
-61.006 24.8774 -3.2868 63.9175 17.7365 -3.2868 -60.4595 25.5822 -3.2868 
-53.1603 32.3657 -3.2868 48.8335 32.9673 -3.2868 57.2171 25.5822 -3.2868 
56.6792 26.144 -3.2868 56.6792 25.5822 0.648955 -51.451 33.4279 -3.2868 
-45.3146 36.7034 -3.2868 -37.469 39.5229 -3.2868 48.2063 33.4279 -3.2868 
40.9878 38.4126 -3.2868 -32.6192 41.2735 -3.2868 -29.6233 42.3697 -3.2868 
-21.7776 44.3603 -3.2868 -13.9319 46.4657 -3.2868 -6.08625 48.0369 -3.2868 
1.75942 48.7388 -3.2868 9.6051 48.3092 -3.2868 17.4508 47.5499 -3.2868 
25.2965 45.9031 -3.2868 35.9323 41.2735 -3.2868 33.1421 42.7171 -3.2868 
33.1421 41.2735 3.37033 -45.3146 -39.4575 4.55888 -37.469 -42.2642 4.55888 
-29.6233 -44.4619 4.55888 -21.7776 -44.5516 4.55888 -13.9319 -44.5418 4.55888 
-6.08625 -44.6001 4.55888 1.75942 -44.3153 4.55888 9.6051 -42.5984 4.55888 
17.4508 -40.7472 4.55888 25.2965 -40.145 4.55888 33.1421 -40.4418 4.55888 
40.9878 -39.2697 4.55888 48.8335 -37.5204 4.55888 -49.1941 -37.1832 4.55888 
-53.1603 -34.2415 4.55888 -45.3146 -37.1832 8.00028 -37.469 -37.1832 10.8499 
9.6051 -37.1832 12.2047 17.4508 -37.1832 10.4324 25.2965 -37.1832 9.44619 
33.1421 -37.1832 9.56075 40.9878 -37.1832 9.2497 49.4447 -37.1832 4.55888 
48.8335 -37.1832 5.18717 56.6792 -33.4031 4.55888 -57.7646 -29.3376 4.55888 
-61.006 -24.4462 4.55888 -53.1603 -29.3376 9.15632 -45.3146 -29.3376 12.2718 
61.2755 -29.3376 4.55888 56.6792 -29.3376 9.83319 64.5248 -24.6276 4.55888 
-62.6474 -21.4919 4.55888 -61.006 -21.4919 6.41461 -53.1603 -21.4919 11.2698 
66.4666 -21.4919 4.55888 64.5248 -21.4919 7.38613 -66.377 -13.6462 4.55888 
-61.006 -13.6462 10.2118 68.775 -13.6462 4.55888 64.5248 -13.6462 9.63901 
-67.1094 -5.80053 4.55888 -61.006 -5.80053 10.4902 69.6674 -5.80053 4.55888 
64.5248 -5.80053 10.425 -68.1278 2.04515 4.55888 -61.006 2.04515 11.066 
69.0726 2.04515 4.55888 64.5248 2.04515 9.72206 -65.8033 9.89083 4.55888 
-61.006 9.89083 9.19462 66.8332 9.89083 4.55888 64.5248 14.6138 4.55888 
64.5248 9.89083 7.33869 -63.8836 17.7365 4.55888 -61.006 22.9077 4.55888 
-61.006 17.7365 7.39156 -53.1603 17.7365 10.7086 62.8646 17.7365 4.55888 
56.6792 25.0164 4.55888 56.6792 17.7365 11.6045 -59.0484 25.5822 4.55888 
-53.1603 30.7517 4.55888 -53.1603 25.5822 9.03644 -45.3146 25.5822 11.0728 
40.9878 25.5822 12.2775 55.8687 25.5822 4.55888 48.8335 30.9723 4.55888 
48.8335 25.5822 9.05077 -49.2044 33.4279 4.55888 -45.3146 35.635 4.55888 
-45.3146 33.4279 7.33808 -37.469 38.395 4.55888 -37.469 33.4279 9.55393 
33.1421 40.8885 4.55888 33.1421 33.4279 10.0893 45.0763 33.4279 4.55888 
40.9878 35.7678 4.55888 40.9878 33.4279 7.67901 -30.7223 41.2735 4.55888 
-29.6233 41.6782 4.55888 -29.6233 41.2735 5.27299 -21.7776 43.752 4.55888 
-21.7776 41.2735 8.5572 -13.9319 45.8905 4.55888 -13.9319 41.2735 11.8124 
-6.08625 47.4811 4.55888 1.75942 48.1912 4.55888 9.6051 47.6767 4.55888 
9.6051 41.2735 12.1234 17.4508 46.0367 4.55888 17.4508 41.2735 9.78664 
32.1231 41.2735 4.55888 25.2965 43.4202 4.55888 25.2965 41.2735 7.463 
-29.6233 -37.7018 12.4046 -21.7776 -38.5273 12.4046 -13.9319 -37.5643 12.4046 
-6.08625 -37.4376 12.4046 1.75942 -37.7256 12.4046 -31.2927 -37.1832 12.4046 
[...]
POINT_DATA 554
SCALARS ImageScalars float
LOOKUP_TABLE default
0 0 0 0 0 0 0 0 0 
0 0 0 0 0 0 0 0 0 
0 0 0 0 0 0 0 0 0 
0 0 0 0 0 0 0 0 0 
0 0 0 0 0 0 0 0 0 
0 0 0 0 0 0 0 0 0 
0 0 0 0 0 0 0 0 0 
0 0 0 0 0 0 0 0 0 
0 0 0 0 0 0 0 0 0 
0 0 0 0 0 0 0 0 0 
0 0 0 0 0 0 0 0 0 
0 0 0 0 0 0 0 0 0 
0 0 0 0 0 0 0 0 0 
0 0 0 0 0 0 0 0 0 
0 0 0 0 0 0 0 0 0 
0 0 0 0 0 0 0 0 0 
0 0 0 0 0 0 0 0 0 
0 0 0 0 0 0 0 0 0 
0 0 0 0 0 0 0 0 0 
0 0 0 0 0 0 0 0 0 
0 0 0 0 0 0 0 0 0 
0 0 0 0 0 0 0 0 0 
0 0 0 0 0 0 0 0 0 
0 0 0 0 0 0 0 0 0 
0 0 0 0 0 0 0 0 0 
0 0 0 0 0 0 0 0 0 
0 0 0 0 0 0 0 0 0 
0 0 0 0 0 0 0 0 0 
0 0 0 0 0 0 0 0 0 
0 0 0 0 0 0 0 0 0 
0 0 0 0 0 0 0 0 0 
0 0 0 0 0 0 0 0 0 
0 0 0 0 0 0 0 0 0 
0 0 0 0 0 0 0 0 0 
0 0 0 0 0 0 0 0 0 
0 0 0 0 0 0 0 0 0 
0 0 0 0 0 0 0 0 0 
0 0 0 0 0 0 0 0 0 
0 0 0 0 0 0 0 0 0 
0 0 0 0 0 0 0 0 0 
0 0 0 0 0 0 0 0 0 
0 0 0 0 0 0 0 0 0 
0 0 0 0 0 0 0 0 0 
0 0 0 0 0 0 0 0 0 
0 0 0 0 0 0 0 0 0 
0 0 0 0 0 0 0 0 0 
0 0 0 0 0 0 0 0 0 
0 0 0 0 0 0 0 0 0 
0 0 0 0 0 0 0 0 0 
0 0 0 0 0 0 0 0 0 
0 0 0 0 0 0 0 0 0 
0 0 0 0 0 0 0 0 0 
0 0 0 0 0 0 0 0 0 
0 0 0 0 0 0 0 0 0 
0 0 0 0 0 0 0 0 0 
0 0 0 0 0 0 0 0 0 
0 0 0 0 0 0 0 0 0 
0 0 0 0 0 0 0 0 0 
0 0 0 0 0 0 0 0 0 
0 0 0 0 0 0 0 0 0 
0 0 0 0 0 0 0 0 0 
0 0 0 0 0 
NORMALS Normals float
0.138717 0.57693 0.804929 0.0506948 0.541036 0.83947 -0.024116 0.508573 0.860681 
-0.0949096 0.498146 0.861883 -0.114176 0.523128 0.844572 0.304036 0.438905 0.845532 
0.143675 0.332379 0.932138 0.0677531 0.251023 0.965607 0.00622655 0.2322 0.972648 
-0.0302978 0.228312 0.973117 -0.0737284 0.199951 0.977028 -0.108759 0.173891 0.978741 
-0.151273 0.224478 0.962666 -0.144257 0.284377 0.947797 -0.0843329 0.346757 0.934156 
0.396421 0.285773 0.872459 0.219 0.174169 0.960054 0.0953071 0.150275 0.98404 
0.00308688 0.114899 0.993372 -0.0053803 0.082077 0.996611 -0.0587789 0.0748092 0.995464 
-0.139611 0.0979867 0.985346 -0.0957311 -0.00274762 0.995403 -0.0889404 0.0320758 0.99552 
-0.0592103 0.0784743 0.995156 -0.0142437 0.163713 0.986405 0.0115995 0.249272 0.968364 
-0.0762518 0.318903 0.944715 -0.167644 0.300746 0.938854 0.515866 0.228375 0.825667 
0.308182 0.187417 0.932684 0.113846 0.0745395 0.990698 0.0784323 0.0173895 0.996768 
0.0020518 -0.00323543 0.999993 -0.0350406 -0.00888685 0.999346 -0.00841006 0.0713567 0.997415 
-0.161145 0.125747 0.978887 -0.176774 0.0523931 0.982856 -0.074882 0.120978 0.989827 
-0.0106327 0.0524605 0.998566 0.100009 0.101322 0.989814 0.0508081 0.175345 0.983195 
-0.0147974 0.157598 0.987393 -0.173985 0.255725 0.950965 -0.34562 0.174842 0.921942 
0.494535 0.0955406 0.863891 0.274316 0.0503464 0.960321 0.0668186 0.00821135 0.997731 
0.0133464 -0.0292891 0.999482 -0.0238726 -0.0843548 0.99615 0.0670097 -0.0753871 0.9949 
0.0852082 0.0628967 0.994376 -0.159358 -0.0564647 0.985605 -0.0828898 0.0456052 0.995515 
-0.0997443 0.174766 0.979545 -0.0809594 0.092677 0.992399 0.10713 0.120044 0.986971 
0.0764298 0.113286 0.990618 -0.00491958 0.13761 0.990474 -0.143365 0.0704893 0.987156 
-0.264194 0.112074 0.957936 0.45884 -0.0553903 0.886791 0.254544 -0.0544929 0.965525 
0.0359508 -0.0524768 0.997975 -0.0124569 -0.0360966 0.999271 -0.0443637 -0.0279251 0.998625 
0.0813184 -0.0518115 0.995341 0.0219481 -0.183613 0.982754 -0.16437 -0.177235 0.970345 
0.0618972 0.0940858 0.993638 -0.0541785 -0.0568727 0.99691 -0.0345853 0.0589605 0.997661 
0.122483 0.0644582 0.990375 0.0701301 0.0579102 0.995856 -0.0521141 0.0359089 0.997995 
-0.184566 -0.000768001 0.98282 -0.281849 -0.0560355 0.957821 0.505363 -0.192933 0.841061 
0.269514 -0.19772 0.94248 0.0921447 -0.0679841 0.993422 0.0353705 -0.0192998 0.999188 
-0.0411518 -0.00891796 0.999113 -0.064012 0.00469678 0.997938 -0.0401387 -0.0952127 0.994647 
0.0796387 -0.00606141 0.996805 0.0325673 -0.0498657 0.998225 -0.11703 -0.0732381 0.990424 
0.0304657 0.0862312 0.995809 0.107728 0.0436731 0.993221 0.0481077 -0.0253823 0.99852 
-0.0680031 -0.0923799 0.993399 -0.219918 -0.0720531 0.972854 -0.413782 -0.113909 0.903221 
0.351415 -0.22397 0.909035 0.188514 -0.127685 0.973735 0.0530232 -0.101959 0.993374 
-0.0184561 -0.029547 0.999393 -0.0102417 0.019911 0.999749 -0.0151653 0.0753351 0.997043 
-0.0603284 0.0959177 0.993559 -0.00999044 -0.0321886 0.999432 0.0730236 0.0314157 0.996835 
0.068272 0.109866 0.991599 0.0124623 0.00971652 0.999875 -0.0650445 -0.0753966 0.99503 
-0.107604 -0.101815 0.988967 -0.250098 -0.315423 0.915401 -0.471062 -0.292519 0.832186 
0.395684 -0.384709 0.833926 0.27612 -0.369009 0.887463 0.138881 -0.24625 0.959204 
0.0771602 -0.178156 0.980972 0.0416506 -0.0757831 0.996254 0.0337054 -0.0131814 0.999345 
-0.0324641 0.0261965 0.99913 -0.0400286 0.0556742 0.997646 0.0432576 -0.00158396 0.999063 
0.00610823 -0.0384924 0.99924 -0.078732 -0.0982974 0.992038 -0.064641 -0.193646 0.97894 
-0.262217 -0.300275 0.917102 0.217155 -0.582516 0.783274 0.180572 -0.425012 0.886994 
0.157209 -0.322942 0.933271 0.0888688 -0.241411 0.966345 0.0102161 -0.201058 0.979526 
-0.0440524 -0.153461 0.987172 -0.0162753 -0.185488 0.982512 -0.0304918 -0.263202 0.964259 
-0.144549 -0.283545 0.948002 -0.278342 -0.373662 0.884818 0.185594 -0.638791 0.74666 
0.0815222 -0.55266 0.82941 -0.0213552 -0.483532 0.875066 -0.0878178 -0.501176 0.860878 
-0.121061 -0.569253 0.8132 0.149312 0.633943 0.75883 0.0652128 0.65672 0.751309 
-0.0142353 0.662982 0.7485 -0.0908723 0.601575 0.793631 -0.117945 0.564037 0.817283 
0.318093 0.543092 0.77709 0.393774 0.753865 0.525955 0.170623 0.624542 0.762125 
0.179183 0.613901 0.768777 0.188382 0.659182 0.728005 -0.159213 0.565307 0.80937 
-0.19013 0.548358 0.814342 -0.197013 0.620279 0.759236 -0.157028 0.405477 0.900517 
-0.175311 0.752451 0.634889 -0.0896371 0.400372 0.911958 -0.0949342 0.816856 0.568976 
-0.100616 0.797153 0.595334 -0.222945 0.850883 0.475703 0.422068 0.449612 0.787215 
0.455441 0.39783 0.796433 0.489892 0.480343 0.727514 -0.11783 0.371749 0.920825 
-0.11582 0.36827 0.922477 -0.132568 0.391825 0.910439 -0.074733 0.417587 0.905558 
-0.0737173 0.489488 0.868889 -0.180929 0.356189 0.91673 -0.199679 0.517572 0.832014 
-0.539639 0.543246 0.643175 0.536532 0.346571 0.76943 0.56562 0.315598 0.761887 
0.737263 0.489415 0.465742 -0.312254 0.377586 0.871738 -0.396953 0.348149 0.849247 
-0.438722 0.446374 0.779919 -0.676264 0.510431 0.531156 0.556776 0.257485 0.789748 
-0.391325 0.221867 0.893107 -0.621808 0.320451 0.714609 0.621799 0.114112 0.774819 
0.966459 0.129357 0.221864 -0.61839 0.121007 0.776499 -0.666195 0.120474 0.735983 
0.59898 -0.0585937 0.798618 0.946543 -0.0571629 0.317474 -0.628709 -0.0981331 0.771424 
-0.704547 -0.113823 0.700469 0.570166 -0.236402 0.786781 0.560881 -0.332508 0.758189 
-0.526286 -0.196622 0.827262 -0.743859 -0.364451 0.560222 0.507237 -0.318339 0.800856 
0.656133 -0.43211 0.618684 -0.4168 -0.41864 0.806857 -0.532412 -0.347064 0.772065 
-0.513867 -0.411028 0.752992 0.418462 -0.394524 0.818071 0.403343 -0.417566 0.814219 
0.314706 -0.54497 0.777154 -0.423352 -0.419171 0.803162 -0.380978 -0.514297 0.768345 
-0.43847 -0.43304 0.787541 -0.693368 -0.683027 0.229596 0.246006 -0.593975 0.765947 
0.36116 -0.688295 0.629137 0.226632 -0.602912 0.764942 0.205889 -0.618748 0.75813 
0.218032 -0.674704 0.70515 -0.201935 -0.652826 0.730096 -0.372346 -0.507661 0.776942 
-0.328807 -0.580037 0.745281 -0.439063 -0.614062 0.655859 0.2769 -0.904733 0.323705 
0.217763 -0.707007 0.672845 0.240668 -0.802537 0.545906 0.209513 -0.702693 0.679946 
0.113969 -0.69562 0.709312 -0.000509088 -0.66741 0.74469 -0.0920362 -0.63596 0.766214 
-0.195307 -0.65584 0.729197 -0.14302 -0.633398 0.760494 -0.208893 -0.678345 0.704423 
-0.408825 -0.846426 0.341213 0.435449 0.865256 0.248428 0.272568 0.929939 0.24682 
0.139606 0.958473 0.248676 0.00958788 0.976051 0.217329 -0.000371027 0.980081 0.198599 
-0.0380234 0.977898 0.205598 -0.157255 0.953642 0.256587 -0.230418 0.928725 0.290479 
-0.169572 0.928027 0.331681 -0.0892858 0.918945 0.384145 -0.0969431 0.891876 0.441768 
-0.218715 0.871583 0.438756 0.535254 0.811099 0.235843 0.607804 0.758962 0.233563 
-0.237474 0.862737 0.44642 -0.29215 0.839156 0.458765 -0.383383 0.923228 -0.0258316 
-0.568709 0.705346 0.423151 0.737982 0.637791 0.220466 0.78557 0.583783 0.205128 
-0.669319 0.609049 0.425525 -0.717118 0.574698 0.394288 0.850469 0.490871 0.18907 
-0.740806 0.5394 0.400317 0.938218 0.287231 0.192989 0.967224 0.157293 0.199339 
-0.916572 0.286067 0.279395 0.971848 0.129736 0.196674 0.985528 0.132291 0.10599 
-0.954454 0.0555291 0.293143 0.981221 -0.0545581 0.185008 0.963789 -0.167098 0.207821 
0.947886 -0.0593846 -0.313026 -0.946748 -0.179292 0.267438 0.951562 -0.238504 0.194024 
-0.909861 -0.363729 0.199635 -0.840142 -0.493283 0.225462 0.874646 -0.441722 0.19969 
0.770961 -0.606578 0.194118 -0.827344 -0.51585 0.222262 0.757725 -0.62374 0.191838 
0.571974 -0.80148 0.174572 -0.58969 -0.79514 0.141483 -0.703993 -0.682152 0.197645 
-0.699529 -0.686838 0.197263 -0.68613 -0.721974 -0.0893295 0.533549 -0.828677 0.169174 
0.418499 -0.892556 0.167938 0.334024 -0.933545 0.130084 -0.584488 -0.799498 0.138477 
-0.526283 -0.842799 0.112767 0.311683 -0.939969 0.138967 0.300372 -0.94012 0.161091 
0.252389 -0.95192 0.173631 0.225971 -0.961869 0.154097 0.143742 -0.977245 0.155985 
0.0168813 -0.988803 0.148267 -0.0748113 -0.985508 0.15224 -0.149363 -0.98094 0.124283 
-0.306275 -0.946575 0.100953 -0.460901 -0.882945 0.0893243 -0.427339 -0.899951 0.0864242 
-0.38957 -0.839171 -0.37951 0.443936 0.840574 -0.310413 0.285257 0.909382 -0.302743 
0.139572 0.951527 -0.274072 0.00439217 0.966774 -0.255593 0.00305792 0.955664 -0.294444 
-0.0131779 0.963705 -0.266642 -0.119206 0.958108 -0.260422 -0.224803 0.946723 -0.230606 
-0.150933 0.962926 -0.22359 -0.0195782 0.980114 -0.197466 -0.059732 0.981356 -0.182679 
-0.178566 0.977116 -0.115578 -0.388613 0.912214 -0.129788 0.531636 0.780094 -0.329873 
0.623125 0.687145 -0.373561 0.430461 0.719353 -0.545193 0.208799 0.652606 -0.72836 
-0.107617 0.587252 -0.802218 -0.118768 0.730127 -0.672911 -0.0364542 0.837955 -0.544521 
-0.0049192 0.835343 -0.549707 -0.147907 0.86301 -0.48305 -0.397745 0.907958 -0.131955 
-0.393052 0.900955 -0.183821 -0.545379 0.814078 -0.199596 0.721984 0.570077 -0.392111 
0.746316 0.508681 -0.429251 0.542381 0.450657 -0.709036 0.358848 0.349211 -0.865609 
-0.745943 0.62201 -0.238062 -0.485966 0.573218 -0.659741 -0.826027 0.500207 -0.259755 
0.7771 0.463402 -0.42588 0.696178 0.460021 -0.551105 0.485904 0.200052 -0.850809 
-0.860266 0.435011 -0.26591 -0.79628 0.420037 -0.435324 0.854051 0.23714 -0.462992 
0.634811 0.220487 -0.74054 -0.900927 0.20158 -0.384312 -0.737046 0.153809 -0.658107 
0.844054 0.0895652 -0.528725 0.555098 0.0413279 -0.830757 -0.901421 0.016224 -0.432641 
-0.68609 0.000861626 -0.727516 0.836615 -0.0576636 -0.544748 0.610792 -0.0669113 -0.788959 
-0.892867 -0.164032 -0.419383 -0.696608 -0.160296 -0.699316 0.805669 -0.219165 -0.550332 
0.653573 -0.21508 -0.72566 -0.844302 -0.380286 -0.37754 -0.798214 -0.450444 -0.399944 
-0.720269 -0.37766 -0.58188 0.80706 -0.3539 -0.472661 0.718311 -0.496869 -0.486982 
0.607378 -0.355256 -0.710553 0.38521 -0.200361 -0.900816 -0.779475 -0.490107 -0.390145 
-0.614193 -0.687545 -0.38736 -0.463368 -0.347663 -0.81512 0.67374 -0.571756 -0.468155 
0.547112 -0.698863 -0.460716 0.492451 -0.482707 -0.724214 0.301829 -0.344208 -0.889055 
-0.249209 -0.333554 -0.909196 -0.5978 -0.69457 -0.400259 -0.509124 -0.724689 -0.464347 
-0.42203 -0.553014 -0.718377 0.483606 -0.764746 -0.425779 0.410413 -0.810659 -0.417604 
0.391052 -0.695358 -0.602955 0.349016 -0.850213 -0.394114 0.290531 -0.602425 -0.743421 
-0.370603 -0.800771 -0.470551 -0.237562 -0.504626 -0.83001 -0.472848 -0.762067 -0.442344 
-0.446501 -0.774148 -0.4487 -0.380299 -0.692656 -0.612862 0.31325 -0.896259 -0.313996 
0.306167 -0.898664 -0.314111 0.30376 -0.884051 -0.355224 0.256842 -0.917002 -0.305188 
0.248544 -0.801842 -0.543392 0.22723 -0.93083 -0.286221 0.187774 -0.658936 -0.728385 
0.143225 -0.944638 -0.295203 0.013548 -0.942182 -0.334828 -0.128678 -0.92924 -0.346345 
-0.175945 -0.503823 -0.845698 -0.23934 -0.862236 -0.446392 -0.214055 -0.621382 -0.753701 
-0.363871 -0.806437 -0.466109 -0.317029 -0.811473 -0.490922 -0.278648 -0.726059 -0.628644 
0.137745 0.566462 -0.812494 -0.00814044 0.548049 -0.836406 -0.0432211 0.505337 -0.861839 
0.00688609 0.469271 -0.883027 -0.0231127 0.545511 -0.837785 0.149154 0.562325 -0.813353 
0.19876 0.527578 -0.825927 0.134739 0.549357 -0.824653 -0.01281 0.481963 -0.876098 
-0.0430151 0.486914 -0.87239 0.00734942 0.45695 -0.889462 -0.0803469 0.56304 -0.822514 
-0.0179334 0.519797 -0.854101 -0.100954 0.56234 -0.82072 -0.0753437 0.542379 -0.836749 
0.00399991 0.592446 -0.8056 0.00981852 0.645525 -0.763676 -0.167666 0.612958 -0.772121 
-0.29445 0.438485 -0.849135 0.352239 0.344609 -0.870157 0.356532 0.340344 -0.870087 
0.198126 0.271741 -0.941755 0.0333018 0.225328 -0.973714 -0.0457526 0.214267 -0.975703 
-0.0400273 0.19191 -0.980596 0.0303502 0.150365 -0.988165 -0.00210003 0.181503 -0.983388 
-0.0478482 0.228943 -0.972263 0.00802833 0.282982 -0.959092 0.0615469 0.336437 -0.939693 
0.0119127 0.365724 -0.930647 -0.205427 0.342886 -0.91664 -0.301057 0.434826 -0.8487 
-0.294896 0.430316 -0.85315 -0.404128 0.345118 -0.847097 0.439178 0.177253 -0.880741 
0.331885 0.13301 -0.933895 0.328246 0.159022 -0.931111 0.0782427 0.1038 -0.991516 
0.0317562 0.0761369 -0.996592 -0.0689641 0.0728255 -0.994958 -0.101659 0.0423889 -0.993916 
0.00114464 -0.00881269 -0.999961 0.0547708 0.0787494 -0.995389 0.00486683 0.0861989 -0.996266 
0.0276631 0.0637798 -0.997581 0.115246 0.0566257 -0.991722 -0.0391739 0.0811603 -0.995931 
-0.130174 0.106537 -0.985751 -0.161707 0.197553 -0.966863 -0.512464 0.224071 -0.828959 
-0.345809 0.156186 -0.925214 0.326761 0.136079 -0.935259 0.273918 0.119215 -0.954336 
0.235313 -0.0261549 -0.971568 0.142968 -0.000479911 -0.989727 0.0062266 -0.0345733 -0.999383 
-0.0836632 -0.0263819 -0.996145 -0.124568 0.0441747 -0.991227 0.0672494 0.128407 -0.989439 
0.0985475 0.106395 -0.989428 -0.0712675 0.104755 -0.991941 -0.0182051 -0.00153608 -0.999833 
0.0525277 -0.0277915 -0.998233 0.0598041 -0.0784159 -0.995125 -0.0663055 0.0526604 -0.996409 
-0.241631 0.000582653 -0.970368 -0.415965 -0.00944376 -0.909332 -0.355358 -0.0223471 -0.934463 
0.380599 0.0465489 -0.923568 0.290189 0.0337144 -0.956375 0.182102 -0.00428697 -0.98327 
0.0799301 -0.0549363 -0.995286 0.00511548 -0.0685231 -0.997636 0.00487083 -0.0615938 -0.998089 
0.0503339 0.108248 -0.992849 0.0565024 0.130836 -0.989793 0.0391601 -0.0769585 -0.996265 
-0.102662 0.044841 -0.993705 -0.100606 0.0502643 -0.993656 0.0384861 0.00802132 -0.999227 
0.0421363 -0.00736647 -0.999085 -0.0535781 -0.0399765 -0.997763 -0.159633 -0.00884254 -0.987137 
-0.467894 0.00435812 -0.883774 -0.289373 0.0126259 -0.957133 0.408737 -0.0605763 -0.910639 
0.216763 -0.0564535 -0.97459 0.158323 -0.00239029 -0.987385 0.0732796 -0.0430684 -0.996381 
0.00276285 -0.0519403 -0.998646 0.0891717 -0.0274683 -0.995637 0.0775741 -0.024213 -0.996693 
-0.10853 -0.0590332 -0.992339 0.0211663 0.0268305 -0.999416 0.0434175 -0.0993586 -0.994104 
-0.0594586 -0.0100375 -0.99818 -0.00500989 0.0232097 -0.999718 0.0122325 0.00452229 -0.999915 
-0.0632821 -0.0367199 -0.99732 -0.199065 -0.0302085 -0.979521 -0.415342 -0.0992411 -0.904236 
-0.340837 -0.0900447 -0.9358 0.355242 -0.16468 -0.920154 0.347344 -0.162546 -0.923543 
0.34393 -0.16143 -0.925015 0.175409 -0.052244 -0.983108 0.0416743 -0.0807361 -0.995864 
0.0211099 -0.0442684 -0.998797 0.0357947 0.0188307 -0.999182 0.0169579 -0.0663604 -0.997652 
0.0948013 -0.089652 -0.991451 -0.0102918 -0.0848643 -0.996339 -0.1284 -0.173401 -0.976445 
0.0360915 -0.117321 -0.992438 0.0536415 -0.0466185 -0.997471 -0.0173883 -0.0530753 -0.998439 
-0.0879565 -0.10912 -0.99013 -0.238361 -0.150052 -0.959515 -0.414662 -0.0856925 -0.905932 
-0.416347 -0.104086 -0.903228 -0.412475 -0.0834533 -0.907138 0.308753 -0.241331 -0.920017 
0.277925 -0.305148 -0.910847 0.250128 -0.26667 -0.930765 0.0949754 -0.110199 -0.989361 
0.0989959 -0.045727 -0.994037 0.0675057 0.0214143 -0.997489 -0.0314734 0.0288178 -0.999089 
-0.0860457 0.0239758 -0.996003 -0.0544224 -0.0940801 -0.994076 -0.0191416 -0.0330028 -0.999272 
0.0505423 -0.0688298 -0.996347 0.0554926 -0.123626 -0.990776 -0.0505729 -0.189661 -0.980546 
-0.242998 -0.324414 -0.914171 -0.149469 -0.218506 -0.964321 -0.33527 -0.335257 -0.880452 
-0.228106 -0.36781 -0.90149 -0.20138 -0.335964 -0.920095 0.273107 -0.303965 -0.912698 
0.251017 -0.391285 -0.885374 0.224487 -0.261182 -0.938824 0.156475 -0.166631 -0.973524 
0.109137 -0.1095 -0.987977 0.0139416 -0.0504833 -0.998628 -0.0498087 0.000502732 -0.998759 
-0.0812073 0.00707639 -0.996672 -0.0831585 -0.0087544 -0.996498 -0.0504313 -0.103955 -0.993303 
-0.0700487 -0.201988 -0.97688 -0.23535 -0.329716 -0.914274 -0.153226 -0.375559 -0.914044 
-0.121512 -0.325287 -0.937776 0.268038 -0.425332 -0.864435 0.267862 -0.439456 -0.857396 
0.264292 -0.401178 -0.877044 0.212036 -0.52278 -0.825677 0.186318 -0.372089 -0.909305 
0.175842 -0.60761 -0.774526 0.0773731 -0.270855 -0.959505 -0.0251893 -0.213655 -0.976584 
-0.067462 -0.178285 -0.981664 -0.172827 -0.471057 -0.865006 -0.125923 -0.190632 -0.973552 
-0.146898 -0.348109 -0.925873 -0.134915 -0.260551 -0.955987 -0.184156 -0.329986 -0.925849 
-0.188396 -0.344275 -0.919773 -0.178591 -0.307831 -0.934529 0.142831 -0.60826 -0.780781 
0.0750778 -0.583621 -0.808548 0.0701341 -0.548511 -0.833197 -0.149337 -0.499206 -0.853517 
-0.0465673 -0.557565 -0.828826 -0.0530542 -0.505424 -0.861239 
