# vtk DataFile Version 4.2
vtk output
ASCII
DATASET POLYDATA
POINTS 520 float
-28.2935 -22.1532 -25.3912 -19.8236 -22.1532 -25.0783 -45.2333 -5.2134 -25.1981 
-36.7634 -5.2134 -25.3431 -36.7634 3.25651 -25.1184 -28.2935 -39.093 -18.4189 
-19.8236 -39.093 -20.5884 -11.3537 -39.093 -21.235 -2.88376 -39.093 -20.5831 
5.58615 -39.093 -21.0017 14.0561 -39.093 -19.7635 22.526 -39.093 -17.7831 
-45.2333 -30.6231 -18.0641 -36.7634 -30.6231 -21.7814 -28.2935 -24.9485 -24.8388 
-28.2935 -30.6231 -23.7091 -19.8236 -26.5792 -24.8388 -19.8236 -30.6231 -24.6042 
-11.3537 -30.6231 -23.6781 -2.88376 -30.6231 -22.7185 5.58615 -30.6231 -22.2805 
14.0561 -30.6231 -22.4133 22.526 -30.6231 -21.2993 30.9959 -30.6231 -20.2733 
39.4658 -30.6231 -17.4192 -53.7032 -22.1532 -18.1406 -45.2333 -22.1532 -22.0095 
-31.0117 -22.1532 -24.8388 -36.7634 -22.1532 -23.7618 -28.2935 -18.2204 -24.8388 
-18.3345 -22.1532 -24.8388 -19.8236 -20.962 -24.8388 -11.3537 -22.1532 -23.7166 
-2.88376 -22.1532 -22.3027 5.58615 -22.1532 -21.6896 14.0561 -22.1532 -21.7595 
22.526 -22.1532 -22.1543 30.9959 -22.1532 -21.4468 39.4658 -22.1532 -21.1694 
47.9357 -22.1532 -17.5267 -53.7032 -13.6833 -21.1742 -45.2333 -7.99807 -24.8388 
-45.2333 -13.6833 -24.1048 -36.7634 -11.298 -24.8388 -36.7634 -13.6833 -24.6412 
-28.2935 -13.6833 -24.2218 -19.8236 -13.6833 -23.3769 -11.3537 -13.6833 -22.9291 
-2.88376 -13.6833 -20.7712 5.58615 -13.6833 -19.9202 14.0561 -13.6833 -20.162 
22.526 -13.6833 -21.0787 30.9959 -13.6833 -22.0035 39.4658 -13.6833 -22.1428 
47.9357 -13.6833 -20.044 -46.6213 -5.2134 -24.8388 -53.7032 -5.2134 -22.4578 
-45.2333 -1.63108 -24.8388 -33.4347 -5.2134 -24.8388 -28.2935 -5.2134 -24.0161 
-19.8236 -5.2134 -22.2193 -11.3537 -5.2134 -22.5814 -2.88376 -5.2134 -20.9798 
5.58615 -5.2134 -20.7258 14.0561 -5.2134 -19.1747 22.526 -5.2134 -19.9925 
30.9959 -5.2134 -21.527 39.4658 -5.2134 -22.2121 47.9357 -5.2134 -19.7849 
-53.7032 3.25651 -19.9725 -39.9734 3.25651 -24.8388 -45.2333 3.25651 -24.3317 
-34.6082 3.25651 -24.8388 -36.7634 4.85418 -24.8388 -28.2935 3.25651 -23.9836 
-19.8236 3.25651 -21.9012 -11.3537 3.25651 -21.162 -2.88376 3.25651 -20.0558 
5.58615 3.25651 -20.3948 14.0561 3.25651 -18.555 22.526 3.25651 -19.1014 
30.9959 3.25651 -20.1419 39.4658 3.25651 -20.0386 47.9357 3.25651 -18.4832 
-45.2333 11.7264 -21.2276 -36.7634 11.7264 -23.6218 -28.2935 11.7264 -23.6381 
-19.8236 11.7264 -22.4153 -11.3537 11.7264 -21.1797 -2.88376 11.7264 -21.3054 
5.58615 11.7264 -19.3076 14.0561 11.7264 -18.5345 22.526 11.7264 -18.6042 
30.9959 11.7264 -18.8347 39.4658 11.7264 -17.5317 -36.7634 20.1963 -22.1521 
-28.2935 20.1963 -23.9212 -19.8236 20.1963 -23.3372 -11.3537 20.1963 -22.7867 
-2.88376 20.1963 -21.69 5.58615 20.1963 -19.5187 14.0561 20.1963 -18.9418 
22.526 20.1963 -18.5228 30.9959 20.1963 -16.4066 -36.7634 28.6662 -18.6481 
-28.2935 28.6662 -22.0802 -19.8236 28.6662 -23.6142 -11.3537 28.6662 -22.6465 
-2.88376 28.6662 -20.9261 5.58615 28.6662 -19.4067 14.0561 28.6662 -17.9692 
22.526 28.6662 -16.4303 -28.2935 37.1361 -19.3773 -19.8236 37.1361 -21.2205 
-11.3537 37.1361 -20.7257 -2.88376 37.1361 -18.8709 5.58615 37.1361 -17.0389 
-28.2935 -40.7472 -16.3689 -19.8236 -42.8772 -16.3689 -11.3537 -43.6475 -16.3689 
-2.88376 -44.2591 -16.3689 5.58615 -44.3331 -16.3689 5.58615 -47.5629 -8.0802 
14.0561 -43.2042 -16.3689 22.526 -40.7856 -16.3689 -45.2333 -32.0889 -16.3689 
-32.7129 -39.093 -16.3689 -36.7634 -37.2263 -16.3689 26.7472 -39.093 -16.3689 
30.9959 -37.0818 -16.3689 30.9959 -39.093 -13.5672 39.4658 -31.8902 -16.3689 
-47.0322 -30.6231 -16.3689 -53.7032 -24.1183 -16.3689 41.2053 -30.6231 -16.3689 
47.9357 -24.1418 -16.3689 47.9357 -30.6231 -8.5204 -55.3531 -22.1532 -16.3689 
49.5203 -22.1532 -16.3689 -58.6575 -13.6833 -16.3689 -62.1731 -13.6833 -7.96089 
53.5568 -13.6833 -16.3689 56.4056 -13.6833 -13.4368 -59.4057 -5.2134 -16.3689 
-62.1731 -5.2134 -8.9525 54.408 -5.2134 -16.3689 56.4056 -5.2134 -14.7727 
-56.7497 3.25651 -16.3689 -53.7032 7.80625 -16.3689 51.6258 3.25651 -16.3689 
47.9357 7.79617 -16.3689 56.4056 3.25651 -12.8282 -50.7855 11.7264 -16.3689 
-45.2333 19.4651 -16.3689 42.9309 11.7264 -16.3689 39.4658 14.1731 -16.3689 
47.9357 11.7264 -14.2249 -44.6044 20.1963 -16.3689 -45.2333 20.1963 -14.3003 
31.0994 20.1963 -16.3689 30.9959 20.2856 -16.3689 39.4658 20.1963 -12.6636 
-38.9236 28.6662 -16.3689 -36.7634 32.4273 -16.3689 14.0561 34.454 -16.3689 
22.6671 28.6662 -16.3689 22.526 28.7907 -16.3689 30.9959 28.6662 -11.1281 
-32.8337 37.1361 -16.3689 -36.7634 37.1361 -8.51931 -28.2935 41.6956 -16.3689 
-19.8236 44.0612 -16.3689 -11.3537 43.5322 -16.3689 -2.88376 41.1617 -16.3689 
9.47538 37.1361 -16.3689 5.58615 38.3937 -16.3689 14.0561 37.1361 -15.403 
22.526 37.1361 -9.98279 -28.2935 45.6061 -9.33361 -19.8236 45.6061 -14.4897 
-11.3537 45.6061 -14.2405 -2.88376 45.6061 -12.4874 5.58615 45.6061 -10.3036 
5.58615 -47.6143 -7.89901 -28.2935 -41.8219 -7.89901 -19.8236 -44.0828 -7.89901 
-11.3537 -45.9011 -7.89901 4.44112 -47.5629 -7.89901 -2.88376 -47.2343 -7.89901 
6.10892 -47.5629 -7.89901 5.58615 -47.5629 -7.10433 14.0561 -46.7609 -7.89901 
22.526 -44.7753 -7.89901 30.9959 -41.7703 -7.89901 -45.2333 -33.2691 -7.89901 
-34.2346 -39.093 -7.89901 -36.7634 -37.9498 -7.89901 -28.2935 -39.093 -0.564432 
36.2857 -39.093 -7.89901 39.4658 -37.3733 -7.89901 47.9357 -30.9619 -7.89901 
-48.8813 -30.6231 -7.89901 -53.7032 -26.4648 -7.89901 -45.2333 -30.6231 0.189618 
48.3122 -30.6231 -7.89901 47.9357 -30.6231 -0.730459 -57.5848 -22.1532 -7.89901 
-62.1731 -13.7242 -7.89901 55.4847 -22.1532 -7.89901 56.4056 -20.4872 -7.89901 
-62.1916 -13.6833 -7.89901 -62.1731 -13.6833 -7.79497 59.8339 -13.6833 -7.89901 
-62.471 -5.2134 -7.89901 -62.1731 -4.30158 -7.89901 -62.1731 -5.2134 -6.39965 
61.2618 -5.2134 -7.89901 -59.4692 3.25651 -7.89901 -53.7032 11.309 -7.89901 
60.1461 3.25651 -7.89901 56.4056 9.85911 -7.89901 -53.366 11.7264 -7.89901 
54.996 11.7264 -7.89901 47.9357 18.7301 -7.89901 56.4056 11.7264 -5.54388 
-46.8096 20.1963 -7.89901 -45.2333 22.385 -7.89901 46.0735 20.1963 -7.89901 
39.4658 25.0444 -7.89901 47.9357 20.1963 -5.91937 -41.7034 28.6662 -7.89901 
34.6129 28.6662 -7.89901 30.9959 31.4743 -7.89901 39.4658 28.6662 -2.54492 
-36.9782 37.1361 -7.89901 -36.7634 37.436 -7.89901 14.0561 44.0657 -7.89901 
24.4722 37.1361 -7.89901 22.526 38.919 -7.89901 -29.0202 45.6061 -7.89901 
-28.2935 46.0987 -7.89901 -19.8236 49.1974 -7.89901 -11.3537 49.3889 -7.89901 
-2.88376 48.6228 -7.89901 10.057 45.6061 -7.89901 5.58615 47.1156 -7.89901 
14.0561 45.6061 -2.92727 -19.8236 -41.9536 0.570902 -11.3537 -44.8127 0.570902 
-2.88376 -46.658 0.570902 5.58615 -47.0538 0.570902 14.0561 -46.115 0.570902 
22.526 -44.3241 0.570902 30.9959 -41.5969 0.570902 -36.7634 -35.4114 0.570902 
-27.1651 -39.093 0.570902 -28.2935 -38.6456 0.570902 -19.8236 -39.093 7.0577 
36.0545 -39.093 0.570902 30.9959 -39.093 6.99135 39.4658 -37.1495 0.570902 
-53.7032 -23.7032 0.570902 -44.9845 -30.6231 0.570902 -45.2333 -30.472 0.570902 
-36.7634 -30.6231 7.89244 47.8659 -30.6231 0.570902 47.9357 -30.5565 0.570902 
-55.1373 -22.1532 0.570902 -53.7032 -22.1532 2.64435 54.8558 -22.1532 0.570902 
56.4056 -19.6751 0.570902 -60.2555 -13.6833 0.570902 59.6031 -13.6833 0.570902 
-60.7428 -5.2134 0.570902 62.5719 -5.2134 0.570902 -58.7689 3.25651 0.570902 
-53.7032 11.1511 0.570902 62.4396 3.25651 0.570902 -53.3173 11.7264 0.570902 
59.3488 11.7264 0.570902 56.4056 16.2381 0.570902 -47.5506 20.1963 0.570902 
-45.2333 23.4957 0.570902 53.0301 20.1963 0.570902 47.9357 24.7545 0.570902 
-42.1901 28.6662 0.570902 30.9959 36.7892 0.570902 42.4652 28.6662 0.570902 
39.4658 30.7529 0.570902 -37.0346 37.1361 0.570902 -36.7634 37.5166 0.570902 
-36.7634 37.1361 1.85326 30.518 37.1361 0.570902 22.526 42.051 0.570902 
30.9959 37.1361 1.38246 -29.2549 45.6061 0.570902 -28.2935 46.2614 0.570902 
-28.2935 45.6061 2.3971 -19.8236 49.423 0.570902 -11.3537 50.1718 0.570902 
-2.88376 50.2221 0.570902 5.58615 49.1468 0.570902 15.9387 45.6061 0.570902 
14.0561 46.6091 0.570902 -11.3537 -41.6865 9.04081 -2.88376 -43.8237 9.04081 
5.58615 -43.9781 9.04081 14.0561 -42.6043 9.04081 22.526 -40.775 9.04081 
-28.2935 -34.2009 9.04081 -17.7021 -39.093 9.04081 -19.8236 -38.1502 9.04081 
-11.3537 -39.093 12.8996 -2.88376 -39.093 15.5745 5.58615 -39.093 15.2036 
14.0561 -39.093 13.1603 28.0744 -39.093 9.04081 22.526 -39.093 11.0672 
30.9959 -38.0892 9.04081 39.4658 -33.4153 9.04081 -45.2333 -24.3189 9.04081 
-35.409 -30.6231 9.04081 -36.7634 -29.8665 9.04081 -28.2935 -30.6231 13.8929 
22.526 -30.6231 17.1398 30.9959 -30.6231 16.3261 43.1536 -30.6231 9.04081 
39.4658 -30.6231 12.2776 47.9357 -26.0517 9.04081 -47.8529 -22.1532 9.04081 
-53.7032 -15.0543 9.04081 -45.2333 -22.1532 11.367 -36.7634 -22.1532 17.3574 
51.2439 -22.1532 9.04081 47.9357 -22.1532 12.8815 56.4056 -14.6534 9.04081 
-54.6299 -13.6833 9.04081 -53.7032 -13.6833 10.0369 56.9465 -13.6833 9.04081 
56.4056 -13.6833 9.86598 -56.9944 -5.2134 9.04081 -53.7032 -5.2134 13.6966 
60.5421 -5.2134 9.04081 56.4056 -5.2134 15.9728 -56.1874 3.25651 9.04081 
-53.7032 9.03522 9.04081 -53.7032 3.25651 13.777 61.478 3.25651 9.04081 
-52.4671 11.7264 9.04081 60.1559 11.7264 9.04081 56.4056 19.5166 9.04081 
-47.0676 20.1963 9.04081 -45.2333 22.8891 9.04081 -45.2333 20.1963 14.4104 
56.0204 20.1963 9.04081 47.9357 28.6394 9.04081 -41.3676 28.6662 9.04081 
-36.7634 35.0638 9.04081 -36.7634 28.6662 16.3909 47.9046 28.6662 9.04081 
39.4658 35.0009 9.04081 47.9357 28.6662 10.9586 -34.6789 37.1361 9.04081 
-28.2935 42.5077 9.04081 -28.2935 37.1361 14.4644 -19.8236 37.1361 17.3908 
22.526 43.7787 9.04081 35.7293 37.1361 9.04081 30.9959 39.7258 9.04081 
-21.0055 45.6061 9.04081 -19.8236 46.0161 9.04081 -19.8236 45.6061 9.59636 
-11.3537 47.6539 9.04081 -11.3537 45.6061 11.8219 -2.88376 48.2819 9.04081 
-2.88376 45.6061 12.9998 5.58615 48.0817 9.04081 5.58615 45.6061 13.3531 
17.0271 45.6061 9.04081 14.0561 46.5503 9.04081 14.0561 45.6061 11.3525 
[...]
POINT_DATA 520
SCALARS ImageScalars float
LOOKUP_TABLE default
0 0 0 0 0 0 0 0 0 
0 0 0 0 0 0 0 0 0 
0 0 0 0 0 0 0 0 0 
0 0 0 0 0 0 0 0 0 
0 0 0 0 0 0 0 0 0 
0 0 0 0 0 0 0 0 0 
0 0 0 0 0 0 0 0 0 
0 0 0 0 0 0 0 0 0 
0 0 0 0 0 0 0 0 0 
0 0 0 0 0 0 0 0 0 
0 0 0 0 0 0 0 0 0 
0 0 0 0 0 0 0 0 0 
0 0 0 0 0 0 0 0 0 
0 0 0 0 0 0 0 0 0 
0 0 0 0 0 0 0 0 0 
0 0 0 0 0 0 0 0 0 
0 0 0 0 0 0 0 0 0 
0 0 0 0 0 0 0 0 0 
0 0 0 0 0 0 0 0 0 
0 0 0 0 0 0 0 0 0 
0 0 0 0 0 0 0 0 0 
0 0 0 0 0 0 0 0 0 
0 0 0 0 0 0 0 0 0 
0 0 0 0 0 0 0 0 0 
0 0 0 0 0 0 0 0 0 
0 0 0 0 0 0 0 0 0 
0 0 0 0 0 0 0 0 0 
0 0 0 0 0 0 0 0 0 
0 0 0 0 0 0 0 0 0 
0 0 0 0 0 0 0 0 0 
0 0 0 0 0 0 0 0 0 
0 0 0 0 0 0 0 0 0 
0 0 0 0 0 0 0 0 0 
0 0 0 0 0 0 0 0 0 
0 0 0 0 0 0 0 0 0 
0 0 0 0 0 0 0 0 0 
0 0 0 0 0 0 0 0 0 
0 0 0 0 0 0 0 0 0 
0 0 0 0 0 0 0 0 0 
0 0 0 0 0 0 0 0 0 
0 0 0 0 0 0 0 0 0 
0 0 0 0 0 0 0 0 0 
0 0 0 0 0 0 0 0 0 
0 0 0 0 0 0 0 0 0 
0 0 0 0 0 0 0 0 0 
0 0 0 0 0 0 0 0 0 
0 0 0 0 0 0 0 0 0 
0 0 0 0 0 0 0 0 0 
0 0 0 0 0 0 0 0 0 
0 0 0 0 0 0 0 0 0 
0 0 0 0 0 0 0 0 0 
0 0 0 0 0 0 0 0 0 
0 0 0 0 0 0 0 0 0 
0 0 0 0 0 0 0 0 0 
0 0 0 0 0 0 0 0 0 
0 0 0 0 0 0 0 0 0 
0 0 0 0 0 0 0 0 0 
0 0 0 0 0 0 0 
NORMALS Normals float
-0.0823397 -0.0263747 -0.996255 0.0977059 0.0730969 -0.992527 -0.140625 -0.0148003 -0.989952 
0.0679903 -0.0283101 -0.997284 0.0232425 0.100245 -0.994691 -0.272679 -0.788048 -0.55193 
-0.131607 -0.65394 -0.745012 0.0072234 -0.566225 -0.824219 0.00886268 -0.4741 -0.880426 
0.0425163 -0.434252 -0.899787 0.173539 -0.493353 -0.852342 0.248093 -0.600549 -0.760125 
-0.542915 -0.648178 -0.533955 -0.303615 -0.440486 -0.844861 -0.103056 -0.118344 -0.98761 
-0.14904 -0.319547 -0.935776 0.0515113 -0.0729135 -0.996007 0.00560934 -0.215195 -0.976555 
0.105649 -0.106914 -0.988639 0.083791 -0.0901867 -0.992394 0.0182095 -0.026815 -0.999475 
0.0635469 -0.0967907 -0.993274 0.120007 -0.221792 -0.967681 0.195867 -0.316829 -0.928038 
0.407524 -0.558389 -0.722583 -0.644987 -0.491667 -0.585025 -0.305338 -0.300045 -0.903738 
-0.11578 -0.0647205 -0.991164 -0.184703 -0.146726 -0.97178 -0.00897855 0.0212713 -0.999733 
0.108727 0.0670635 -0.991807 0.09422 0.0864172 -0.991794 0.161432 0.0428 -0.985955 
0.119558 0.111059 -0.986596 0.0319389 0.139204 -0.989749 -0.027103 0.127291 -0.991495 
0.0186054 0.0109351 -0.999767 0.0579891 -0.101201 -0.993174 0.187761 -0.218613 -0.957577 
0.534324 -0.376069 -0.757014 -0.529647 -0.204316 -0.823243 -0.143191 -0.0719463 -0.987077 
-0.162799 -0.185513 -0.969062 0.0162832 -0.0776009 -0.996852 -0.00400609 -0.0962251 -0.995352 
0.0735887 0.0777356 -0.994254 0.0762705 0.168829 -0.98269 0.148045 0.0668397 -0.986719 
0.178759 0.0802831 -0.980612 0.0343655 0.0574999 -0.997754 -0.0686429 0.151706 -0.986039 
-0.106945 0.12284 -0.986647 -0.0622528 -0.00462105 -0.99805 0.101092 -0.0668366 -0.99263 
0.396352 -0.107351 -0.911801 -0.199668 -0.0044566 -0.979853 -0.529152 0.0472345 -0.847211 
-0.177496 0.0813291 -0.980755 0.112834 -0.0127636 -0.993532 0.185899 0.0141728 -0.982467 
0.0787102 0.0873983 -0.993059 0.0663822 0.104124 -0.992347 0.114682 0.0428543 -0.992477 
0.104145 -0.0287539 -0.994146 0.0460906 0.0914129 -0.994746 -0.140167 0.118849 -0.982969 
-0.123703 0.108095 -0.986414 0.0986406 0.121205 -0.987714 0.350667 0.0796203 -0.93311 
-0.643684 0.345913 -0.682653 -0.0699647 0.141737 -0.987429 -0.236864 0.213124 -0.947878 
0.064876 0.0814994 -0.99456 -0.00299848 0.109731 -0.993957 0.190292 0.0221794 -0.981477 
0.159858 -0.01162 -0.987072 0.107747 0.0836181 -0.990656 0.0477723 -0.0239801 -0.99857 
0.0798865 0.0816212 -0.993457 0.0784777 0.0389085 -0.996156 -0.0901653 0.0795139 -0.992748 
-0.0555072 0.163554 -0.984972 0.0857271 0.263855 -0.960745 0.34697 0.286292 -0.893112 
-0.435833 0.411811 -0.800288 -0.120683 0.161765 -0.979422 0.071284 0.00314615 -0.997451 
0.14203 -0.084517 -0.986248 0.0661459 -0.0970724 -0.993077 0.104367 -0.0928681 -0.990193 
0.166358 0.0516121 -0.984714 0.0390349 -0.0228163 -0.998977 -0.0184551 0.0338021 -0.999258 
0.0582278 0.199191 -0.978229 0.235098 0.3575 -0.903838 -0.364695 0.263482 -0.89307 
-0.0523195 0.0966118 -0.993946 0.0650298 -0.0696777 -0.995448 0.0954317 -0.0843732 -0.991854 
0.188597 0.0212465 -0.981825 0.160291 -0.00552482 -0.987054 0.056892 0.0309493 -0.997901 
0.136973 0.113189 -0.984087 0.293667 0.352675 -0.888471 -0.617614 0.410072 -0.671114 
-0.246701 0.241286 -0.938573 -0.0352145 0.109909 -0.993318 0.152407 0.105529 -0.982668 
0.187654 0.150301 -0.970668 0.169594 0.133139 -0.976479 0.158921 0.184635 -0.969873 
0.299449 0.361267 -0.883072 -0.367697 0.451248 -0.813126 -0.0701838 0.401272 -0.913266 
0.124994 0.382696 -0.91538 0.19812 0.383381 -0.90209 0.177884 0.382211 -0.906792 
-0.294516 -0.862157 -0.412244 -0.162631 -0.881646 -0.443003 -0.0726231 -0.84695 -0.526689 
-0.0349244 -0.787525 -0.615292 0.0483781 -0.778594 -0.625661 0.0267622 -0.992773 -0.116986 
0.169905 -0.74271 -0.647699 0.267586 -0.684388 -0.678241 -0.559602 -0.716262 -0.41691 
-0.3722 -0.846654 -0.380322 -0.438554 -0.810931 -0.387378 0.306517 -0.680867 -0.665182 
0.336619 -0.650761 -0.680586 0.375813 -0.794033 -0.477783 0.428419 -0.603493 -0.672498 
-0.590877 -0.684338 -0.427254 -0.686635 -0.540652 -0.486033 0.449552 -0.584373 -0.675582 
0.56089 -0.43159 -0.706493 0.665429 -0.715272 -0.213517 -0.722981 -0.492078 -0.484931 
0.593269 -0.388589 -0.705004 -0.773413 -0.216769 -0.595688 -0.967565 -0.24436 -0.064084 
0.614148 -0.174158 -0.769735 0.784498 -0.236522 -0.573255 -0.818039 0.103348 -0.565802 
-0.984848 0.143658 -0.0971464 0.59419 0.0576045 -0.802259 0.709688 0.0377969 -0.703502 
-0.762215 0.395755 -0.512256 -0.736035 0.506887 -0.448685 0.468606 0.303284 -0.829715 
0.394113 0.397278 -0.828761 0.67241 0.312616 -0.670922 -0.695023 0.557442 -0.454094 
-0.696194 0.562232 -0.446328 0.318016 0.411201 -0.854271 0.286038 0.410941 -0.865627 
0.446512 0.493408 -0.746442 -0.69623 0.557707 -0.451914 -0.73257 0.578436 -0.358821 
0.295059 0.355268 -0.886975 0.295878 0.354829 -0.886878 0.418601 0.571861 -0.705513 
-0.715253 0.44995 -0.534751 -0.687032 0.486082 -0.540104 0.228952 0.360374 -0.904274 
0.30313 0.364818 -0.880352 0.302795 0.36531 -0.880263 0.515199 0.596133 -0.615789 
-0.577761 0.544052 -0.60844 -0.807841 0.564461 -0.169636 -0.405701 0.65625 -0.636194 
-0.0664977 0.71247 -0.698545 0.100555 0.666619 -0.738585 0.169116 0.548431 -0.818916 
0.213073 0.411723 -0.88605 0.180308 0.430084 -0.8846 0.276766 0.472415 -0.836794 
0.55369 0.640357 -0.532325 -0.476129 0.848478 -0.231054 -0.0963629 0.813974 -0.572853 
0.0761588 0.791563 -0.606323 0.140872 0.790658 -0.595831 0.238682 0.820839 -0.518897 
0.0264627 -0.993736 -0.108575 -0.339181 -0.935186 0.101895 -0.230175 -0.971795 0.0513137 
-0.180809 -0.98248 -0.0451795 0.00947654 -0.994237 -0.106783 -0.0998996 -0.990159 -0.0980054 
0.0346979 -0.993517 -0.10826 0.0268906 -0.996329 -0.0812759 0.164107 -0.980019 -0.112389 
0.280208 -0.948789 -0.145889 0.387448 -0.903278 -0.184318 -0.545105 -0.834997 0.0751046 
-0.407066 -0.909109 0.0884218 -0.435773 -0.896641 0.0783387 -0.321213 -0.878678 0.353195 
0.456955 -0.86979 -0.186166 0.505924 -0.841061 -0.19146 0.666921 -0.722619 -0.181764 
-0.617986 -0.78461 0.0498093 -0.724576 -0.689019 0.0155543 -0.500888 -0.778571 0.378072 
0.673297 -0.716718 -0.18162 0.676367 -0.725351 0.128038 -0.807363 -0.590052 -0.00220562 
-0.967412 -0.245845 -0.0606194 0.833509 -0.519878 -0.187057 0.858758 -0.47268 -0.197757 
-0.96782 -0.244201 -0.0607451 -0.967995 -0.244589 -0.0562402 0.920661 -0.297635 -0.252581 
-0.988665 0.144282 -0.0415137 -0.984404 0.169848 -0.0458248 -0.990357 0.137496 0.0169581 
0.93123 -0.016632 -0.364053 -0.903665 0.418286 -0.0917954 -0.770773 0.627672 -0.109255 
0.847491 0.290637 -0.444174 0.715002 0.487039 -0.501563 -0.764557 0.634928 -0.11099 
0.670627 0.534082 -0.514797 0.538885 0.625136 -0.564631 0.731431 0.523889 -0.436519 
-0.793917 0.594209 -0.128886 -0.81835 0.558817 -0.134262 0.522968 0.638413 -0.564743 
0.477082 0.67396 -0.564066 0.546611 0.650118 -0.52779 -0.871616 0.463167 -0.160505 
0.515139 0.669787 -0.534806 0.551276 0.656049 -0.515456 0.497986 0.70939 -0.498774 
-0.815347 0.5604 -0.145468 -0.809621 0.568398 -0.146412 0.368536 0.820637 -0.436734 
0.576256 0.6656 -0.474242 0.562119 0.693495 -0.450651 -0.505185 0.846296 -0.169031 
-0.48212 0.859797 -0.168257 -0.187249 0.9519 -0.242535 0.0330013 0.953122 -0.300781 
0.128265 0.914591 -0.3835 0.306418 0.856991 -0.414335 0.237298 0.882135 -0.406851 
0.38145 0.892322 -0.241366 -0.320168 -0.894672 0.311537 -0.255143 -0.939604 0.228135 
-0.123397 -0.975254 0.183445 0.0299201 -0.980749 0.192967 0.153995 -0.964359 0.215167 
0.251437 -0.94649 0.202329 0.36789 -0.911771 0.182565 -0.4068 -0.823264 0.395917 
-0.317291 -0.868515 0.3808 -0.318574 -0.86332 0.391394 -0.354849 -0.833277 0.423948 
0.45123 -0.874613 0.177325 0.348679 -0.838112 0.419513 0.515616 -0.837631 0.180319 
-0.680105 -0.623035 0.386374 -0.494149 -0.775227 0.393496 -0.497454 -0.773282 0.39316 
-0.419208 -0.750762 0.510512 0.669465 -0.719201 0.185922 0.671049 -0.717733 0.185884 
-0.712936 -0.588221 0.381731 -0.67561 -0.589172 0.443201 0.817902 -0.543746 0.188086 
0.852878 -0.493486 0.170501 -0.891182 -0.275269 0.360586 0.912964 -0.381342 0.145172 
-0.949551 0.0825387 0.302557 0.986403 -0.160556 0.035077 -0.919273 0.352138 0.175889 
-0.821283 0.567775 0.0559167 0.985063 0.158927 -0.0662732 -0.814101 0.578922 0.0457105 
0.856511 0.455017 -0.243613 0.757978 0.573982 -0.309862 -0.819221 0.573403 -0.00928035 
-0.840294 0.541921 -0.0150832 0.648425 0.657871 -0.383081 0.563168 0.719798 -0.405873 
-0.869021 0.494615 0.0125901 0.527485 0.760272 -0.379138 0.523758 0.72725 -0.443605 
0.511372 0.728598 -0.45568 -0.807711 0.583691 0.0831116 -0.801086 0.5923 0.0862688 
-0.791899 0.599395 0.116712 0.528439 0.763694 -0.370842 0.501542 0.836805 -0.219573 
0.522672 0.775453 -0.354241 -0.51289 0.84365 0.158739 -0.482243 0.861615 0.158305 
-0.48014 0.848203 0.223645 -0.232345 0.956825 0.174646 -0.0414225 0.994827 0.0927568 
0.0597698 0.998045 0.0182585 0.191437 0.980304 -0.0485476 0.41034 0.901667 -0.136448 
0.385148 0.914949 -0.120538 -0.290982 -0.843817 0.45089 -0.122215 -0.884671 0.449912 
0.0623282 -0.869278 0.490378 0.168442 -0.822157 0.543769 0.227067 -0.809107 0.542021 
-0.379657 -0.778304 0.500103 -0.345415 -0.818427 0.459201 -0.358216 -0.809066 0.465933 
-0.275434 -0.767165 0.579304 -0.0825788 -0.692671 0.716511 0.105842 -0.647774 0.754445 
0.175822 -0.683778 0.708191 0.297932 -0.803278 0.515734 0.213788 -0.753096 0.622207 
0.33301 -0.795464 0.506302 0.48345 -0.729573 0.483735 -0.515175 -0.642323 0.567464 
-0.413234 -0.746566 0.521418 -0.42099 -0.736906 0.528902 -0.362087 -0.710445 0.603457 
0.112426 -0.439639 0.891111 0.197635 -0.541266 0.817296 0.552679 -0.684357 0.475606 
0.447621 -0.665523 0.597256 0.646269 -0.60955 0.459114 -0.557627 -0.597199 0.576546 
-0.689476 -0.413621 0.594592 -0.521602 -0.598675 0.607881 -0.406381 -0.55554 0.725417 
0.691759 -0.560412 0.455421 0.610576 -0.528786 0.589562 0.797151 -0.431117 0.422717 
-0.714712 -0.373363 0.591428 -0.690929 -0.384231 0.612359 0.808155 -0.414398 0.418522 
0.790042 -0.417938 0.44851 -0.859089 -0.0522173 0.509155 -0.767858 -0.13757 0.625674 
0.891113 -0.24998 0.378717 0.705869 -0.270162 0.654798 -0.903405 0.226574 0.364038 
-0.880892 0.398132 0.255971 -0.841897 0.14776 0.519016 0.955137 0.0259307 0.295027 
-0.857751 0.471635 0.204508 0.953146 0.270691 0.135049 0.841078 0.539909 -0.0329485 
-0.821964 0.546715 0.159619 -0.822231 0.547598 0.155151 -0.753873 0.525437 0.394451 
0.822668 0.566509 -0.047811 0.644074 0.746903 -0.165241 -0.794044 0.560639 0.234901 
-0.706501 0.635504 0.311434 -0.5115 0.533066 0.67395 0.643672 0.747138 -0.165745 
0.523149 0.829147 -0.197053 0.670566 0.73789 -0.0765537 -0.647055 0.670062 0.363781 
-0.45255 0.753839 0.476367 -0.365246 0.614606 0.699182 -0.163949 0.44426 0.880769 
0.372913 0.927814 0.0098795 0.483635 0.858156 -0.172236 0.45224 0.882298 -0.130498 
-0.27358 0.823931 0.496278 -0.244585 0.829934 0.501385 -0.241835 0.818879 0.520532 
-0.121419 0.870633 0.476714 -0.133089 0.792983 0.594529 -0.0233583 0.909995 0.413961 
-0.061078 0.798281 0.59918 0.0982189 0.94315 0.317525 0.0340741 0.843731 0.535684 
0.286081 0.949929 0.12567 0.239583 0.952082 0.190104 0.193075 0.93316 0.303207 
-0.271227 -0.626147 0.73101 -0.196322 -0.602405 0.77367 -0.0418279 -0.574685 0.817305 
0.120923 -0.454454 0.882524 0.144016 -0.366549 0.919185 -0.278798 -0.62734 0.727128 
-0.330717 -0.616702 0.714356 -0.261221 -0.612608 0.745973 -0.131819 -0.49338 0.859767 
0.0247453 -0.383026 0.923406 0.133884 -0.283218 0.949664 0.116842 -0.397552 0.91011 
0.130516 -0.295743 0.946309 0.0907527 -0.416808 0.904453 0.154973 -0.478159 0.864493 
0.344692 -0.474425 0.810005 -0.510085 -0.40193 0.760438 -0.402639 -0.553012 0.729424 
-0.405486 -0.549436 0.730549 -0.286391 -0.480148 0.829119 -0.136984 -0.405543 0.903753 
-0.00856003 -0.306189 0.951932 0.149842 -0.194691 0.969352 0.226041 -0.142453 0.963646 
0.0414511 -0.146189 0.988388 -0.0515576 -0.259987 0.964235 0.0738352 -0.339501 0.937703 
0.399422 -0.444349 0.801882 0.316689 -0.419885 0.850532 0.495439 -0.386762 0.777788 
-0.510485 -0.401109 0.760603 -0.509936 -0.401018 0.761019 -0.359041 -0.331922 0.872306 
-0.217405 -0.220419 0.950868 -0.0561051 -0.173051 0.983314 0.10203 -0.0753266 0.991925 
0.199705 0.114575 0.973134 0.190891 -0.086714 0.977774 0.00434377 -0.217217 0.976114 
-0.104266 -0.151329 0.982969 0.00823261 -0.1843 0.982836 0.230598 -0.242606 0.94232 
0.506841 -0.372986 0.77717 0.474323 -0.356921 0.804752 -0.624646 -0.190432 0.757333 
-0.469053 -0.203352 0.85944 -0.247026 -0.156687 0.956257 -0.124956 -0.0309838 0.991678 
0.288516 0.0993193 0.95231 0.146794 0.214625 0.965602 -0.12978 -0.000861855 0.991542 
-0.0132694 -0.0868324 0.996135 -0.0111895 -0.0475735 0.998805 -0.0183562 -0.0729186 0.997169 
0.127736 -0.1229 0.984164 0.618976 -0.264215 0.739635 0.350557 -0.221156 0.910055 
0.692681 -0.0843291 0.716298 -0.708311 0.0573554 0.703566 -0.470919 0.00989668 0.882121 
-0.168934 0.0225342 0.98537 -0.00166897 0.0635399 0.997978 0.0716088 0.187228 0.979703 
0.217147 0.168703 0.96145 0.111628 -0.106564 0.98802 -0.0895551 0.047016 0.994872 
-0.0441893 0.056293 0.997436 -0.0950813 -0.0494141 0.994242 -0.069306 -0.087607 0.993741 
0.0851086 -0.0965566 0.991682 0.33178 -0.111278 0.936771 0.696427 -0.0634352 0.714818 
0.692302 -0.0642653 0.718741 -0.721843 0.32321 0.611946 -0.683861 0.452851 0.572066 
-0.567302 0.266874 0.779068 -0.19159 0.165477 0.967425 0.0358824 0.16057 0.986372 
0.125444 0.183542 0.974975 0.0334986 0.167754 0.98526 0.0171394 -0.0449531 0.998842 
0.016738 -0.0143054 0.999758 -0.112224 -0.0805958 0.990409 -0.15363 -0.150569 0.976589 
-0.0647842 -0.0869912 0.9941 0.111654 -0.0455647 0.992702 0.344218 0.0172437 0.938732 
0.789864 0.0934024 0.606127 0.796422 0.142759 0.587649 0.778233 0.0887752 0.621669 
-0.642817 0.493423 0.585935 -0.455367 0.509642 0.730004 -0.282537 0.379598 0.880953 
0.0103523 0.239071 0.970947 0.0794231 0.185618 0.979407 -0.00921669 0.0890543 0.995984 
-0.0797758 0.0774562 0.993799 -0.116051 -0.0365127 0.992572 -0.180522 -0.0862297 0.979784 
-0.106534 -0.117175 0.987381 0.0534391 -0.00581739 0.998554 0.180095 0.0603743 0.981795 
0.773502 0.413817 0.480053 0.489587 0.216753 0.844585 -0.409779 0.502599 0.761233 
-0.238848 0.492622 0.836824 -0.160056 0.384323 0.909218 -0.158036 0.433487 0.887194 
-0.0288194 0.237014 0.971079 -0.0749117 0.151846 0.985561 -0.109193 0.13417 0.984924 
-0.145787 0.106934 0.98352 -0.178242 0.132971 0.974961 -0.0661512 0.141194 0.987769 
0.106134 0.215521 0.970714 0.522879 0.814012 0.252945 0.317794 0.37697 0.87 
0.717641 0.6467 0.258398 0.716286 0.64861 0.257371 0.71608 0.644764 0.267413 
-0.156481 0.437067 0.885712 -0.119999 0.4456 0.887153 -0.116579 0.401419 0.908445 
-0.118488 0.502392 0.856483 -0.123921 0.368909 0.921168 -0.0617138 0.598437 0.798789 
-0.105998 0.391196 0.914183 0.0122389 0.709 0.705102 -0.0925712 0.463889 0.881044 
0.138894 0.852508 0.503923 0.0146608 0.596353 0.802588 0.448612 0.853619 0.264731 
0.325042 0.877968 0.351454 0.262461 0.769974 0.581597 -0.0458971 -0.139861 0.989107 
-0.0451917 0.0195982 0.998786 0.105618 0.0710582 0.991865 0.0297813 0.0934461 0.995179 
0.0137876 0.0566615 0.998298 
