# vtk DataFile Version 4.2
vtk output
ASCII
DATASET POLYDATA
POINTS 526 float
-23.4986 -34.186 -14.5247 -16.4958 -34.186 -16.8498 -9.49299 -34.186 -17.9772 
-2.4902 -34.186 -18.1306 4.51259 -34.186 -16.7408 11.5154 -34.186 -14.2985 
-30.5013 -27.1832 -16.0397 -23.4986 -27.1832 -18.8929 -16.4958 -27.1832 -19.5938 
-9.49299 -27.1832 -19.9236 -2.4902 -27.1832 -19.7102 4.51259 -27.1832 -19.0339 
11.5154 -27.1832 -17.0063 18.5182 -27.1832 -14.287 -37.5041 -20.1804 -16.1019 
-30.5013 -20.1804 -18.9697 -23.4986 -20.1804 -19.789 -16.4958 -20.1804 -19.8898 
-9.49299 -20.1804 -19.9254 -2.4902 -20.1804 -19.8189 4.51259 -20.1804 -18.5588 
11.5154 -20.1804 -16.9528 18.5182 -20.1804 -15.8303 25.5209 -20.1804 -14.6248 
-44.5069 -13.1777 -14.1145 -37.5041 -13.1777 -18.2686 -30.5013 -13.1777 -19.6409 
-23.4986 -13.1777 -19.855 -16.4958 -13.1777 -19.3328 -9.49299 -13.1777 -19.0595 
-2.4902 -13.1777 -18.9473 4.51259 -13.1777 -17.6766 11.5154 -13.1777 -17.1987 
18.5182 -13.1777 -17.4924 25.5209 -13.1777 -17.4305 32.5237 -13.1777 -16.0269 
-44.5069 -6.17487 -15.5888 -37.5041 -6.17487 -19.1356 -30.5013 -6.17487 -20.1468 
-23.4986 -6.17487 -19.8036 -16.4958 -6.17487 -18.7713 -9.49299 -6.17487 -18.4089 
-2.4902 -6.17487 -18.4889 4.51259 -6.17487 -17.9871 11.5154 -6.17487 -19.2856 
18.5182 -6.17487 -19.3282 25.5209 -6.17487 -19.0285 32.5237 -6.17487 -18.1176 
39.5265 -6.17487 -15.657 -44.5069 0.82792 -15.8612 -37.5041 0.82792 -18.8054 
-30.5013 0.82792 -19.5475 -23.4986 0.82792 -19.091 -16.4958 0.82792 -17.7859 
-9.49299 0.82792 -18.3964 -2.4902 0.82792 -17.9072 4.51259 0.82792 -19.0885 
11.5154 0.82792 -20.7867 18.5182 0.82792 -19.8255 25.5209 0.82792 -19.4515 
32.5237 0.82792 -18.7221 39.5265 0.82792 -16.7462 -44.5069 7.83071 -14.7911 
-37.5041 7.83071 -17.7261 -30.5013 7.83071 -18.4189 -23.4986 7.83071 -18.2685 
-16.4958 7.83071 -17.6521 -9.49299 7.83071 -18.6845 -2.4902 7.83071 -19.5928 
4.51259 7.83071 -20.02 11.5154 7.83071 -20.3043 18.5182 7.83071 -19.3005 
25.5209 7.83071 -19.045 32.5237 7.83071 -18.4154 39.5265 7.83071 -16.4221 
-37.5041 14.8335 -16.273 -30.5013 14.8335 -17.8744 -23.4986 14.8335 -18.0422 
-16.4958 14.8335 -18.2481 -9.49299 14.8335 -19.3732 -2.4902 14.8335 -19.953 
4.51259 14.8335 -19.7829 11.5154 14.8335 -19.6154 18.5182 14.8335 -19.1491 
25.5209 14.8335 -18.7812 32.5237 14.8335 -17.5393 39.5265 14.8335 -14.9051 
-30.5013 21.8363 -16.589 -23.4986 21.8363 -17.2456 -16.4958 21.8363 -18.2474 
-9.49299 21.8363 -18.8249 -2.4902 21.8363 -18.9506 4.51259 21.8363 -18.7614 
11.5154 21.8363 -18.5952 18.5182 21.8363 -18.153 25.5209 21.8363 -17.2581 
32.5237 21.8363 -15.1416 -23.4986 28.8391 -15.0104 -16.4958 28.8391 -15.9635 
-9.49299 28.8391 -16.2288 -2.4902 28.8391 -16.3465 4.51259 28.8391 -16.1686 
11.5154 28.8391 -15.5932 18.5182 28.8391 -14.8299 -23.4986 -34.8766 -13.808 
-16.4958 -37.4668 -13.808 -9.49299 -38.5453 -13.808 -2.4902 -38.755 -13.808 
4.51259 -37.6417 -13.808 11.5154 -34.8326 -13.808 -24.9063 -34.186 -13.808 
-30.5013 -30.4047 -13.808 12.5062 -34.186 -13.808 18.5182 -28.1987 -13.808 
18.5182 -34.186 -10.1248 -34.3705 -27.1832 -13.808 -37.5041 -23.7556 -13.808 
-37.5041 -27.1832 -8.74961 19.6874 -27.1832 -13.808 25.5209 -21.9682 -13.808 
25.5209 -27.1832 -10.999 -40.165 -20.1804 -13.808 -44.5069 -13.7668 -13.808 
27.7592 -20.1804 -13.808 32.5237 -17.1419 -13.808 32.5237 -20.1804 -11.7449 
-44.8056 -13.1777 -13.808 37.793 -13.1777 -13.808 39.5265 -11.1051 -13.808 
39.5265 -13.1777 -12.7993 -46.3311 -6.17487 -13.808 42.3151 -6.17487 -13.808 
46.5293 -6.17487 -9.6324 -46.8863 0.82792 -13.808 44.2392 0.82792 -13.808 
46.5293 0.82792 -11.5839 -45.654 7.83071 -13.808 -44.5069 11.4034 -13.808 
43.8937 7.83071 -13.808 46.5293 7.83071 -11.2296 -42.8499 14.8335 -13.808 
-44.5069 14.8335 -12.5977 -37.5041 21.5257 -13.808 41.0679 14.8335 -13.808 
39.5265 17.1087 -13.808 46.5293 14.8335 -8.08742 -44.5069 21.8363 -7.91414 
-37.2351 21.8363 -13.808 -37.5041 21.8363 -13.6599 -30.5013 27.4602 -13.808 
25.5209 27.446 -13.808 35.3123 21.8363 -13.808 32.5237 23.9414 -13.808 
39.5265 21.8363 -10.6078 -37.5041 28.8391 -8.78273 -27.7629 28.8391 -13.808 
-30.5013 28.8391 -12.8528 -23.4986 30.4918 -13.808 -16.4958 31.3063 -13.808 
-9.49299 31.6162 -13.808 -2.4902 31.6352 -13.808 4.51259 31.4619 -13.808 
11.5154 30.853 -13.808 22.1755 28.8391 -13.808 18.5182 29.9307 -13.808 
25.5209 28.8391 -12.3765 32.5237 28.8391 -7.6901 -23.4986 -37.18 -6.80523 
-16.4958 -39.5347 -6.80523 -9.49299 -40.6336 -6.80523 -2.4902 -41.1546 -6.80523 
4.51259 -41.0076 -6.80523 11.5154 -39.7724 -6.80523 18.5182 -36.9445 -6.80523 
-37.5041 -27.9684 -6.80523 -29.3426 -34.186 -6.80523 -30.5013 -33.4856 -6.80523 
23.6792 -34.186 -6.80523 25.5209 -32.765 -6.80523 25.5209 -34.186 -2.32093 
-38.3159 -27.1832 -6.80523 -37.5041 -27.1832 -0.766414 31.7659 -27.1832 -6.80523 
32.5237 -26.5253 -6.80523 32.5237 -27.1832 -5.79989 -44.0981 -20.1804 -6.80523 
-44.5069 -19.5246 -6.80523 39.5015 -20.1804 -6.80523 39.5265 -20.157 -6.80523 
39.5265 -20.1804 -6.76829 -47.9697 -13.1777 -6.80523 45.1545 -13.1777 -6.80523 
46.5293 -10.5614 -6.80523 46.5293 -13.1777 -3.70899 -50.3701 -6.17487 -6.80523 
48.6444 -6.17487 -6.80523 -51.2575 0.82792 -6.80523 -51.5097 0.82792 -1.06699 
49.8189 0.82792 -6.80523 -50.7261 7.83071 -6.80523 49.4809 7.83071 -6.80523 
-48.6197 14.8335 -6.80523 47.3201 14.8335 -6.80523 46.5293 16.1354 -6.80523 
-45.3337 21.8363 -6.80523 -44.5069 23.0007 -6.80523 42.4341 21.8363 -6.80523 
39.5265 24.658 -6.80523 -39.3364 28.8391 -6.80523 -37.5041 30.3261 -6.80523 
-30.5013 33.8976 -6.80523 -23.4986 35.6396 -6.80523 -16.4958 35.4098 -6.80523 
-9.49299 34.8039 -6.80523 -2.4902 34.5707 -6.80523 4.51259 34.6158 -6.80523 
11.5154 34.3666 -6.80523 18.5182 33.6236 -6.80523 25.5209 31.9843 -6.80523 
33.3099 28.8391 -6.80523 32.5237 29.288 -6.80523 -23.4986 35.8419 -5.61439 
-16.4958 35.8419 -2.83925 -23.4986 -35.2656 0.197556 -16.4958 -37.7227 0.197556 
-9.49299 -39.3156 0.197556 -2.4902 -40.2871 0.197556 4.51259 -40.735 0.197556 
11.5154 -40.138 0.197556 18.5182 -37.8811 0.197556 25.5209 -34.7164 0.197556 
-26.0055 -34.186 0.197556 -30.5013 -32.0004 0.197556 -23.4986 -34.186 1.93377 
-16.4958 -34.186 5.83472 26.4266 -34.186 0.197556 25.5209 -34.186 1.46521 
32.5237 -30.1891 0.197556 -37.3244 -27.1832 0.197556 -37.5041 -27.0341 0.197556 
-30.5013 -27.1832 6.95255 36.2674 -27.1832 0.197556 39.5265 -24.0755 0.197556 
-43.6082 -20.1804 0.197556 -44.5069 -18.8635 0.197556 43.0347 -20.1804 0.197556 
46.5293 -15.4752 0.197556 -47.7761 -13.1777 0.197556 -44.5069 -13.1777 6.62415 
47.9372 -13.1777 0.197556 -50.5928 -6.17487 0.197556 -51.5097 0.399281 0.197556 
50.9783 -6.17487 0.197556 -51.5682 0.82792 0.197556 -51.5097 1.52866 0.197556 
-51.5097 0.82792 0.341722 51.713 0.82792 0.197556 -51.0173 7.83071 0.197556 
51.1033 7.83071 0.197556 -49.5468 14.8335 0.197556 48.8694 14.8335 0.197556 
46.5293 18.4262 0.197556 -46.8588 21.8363 0.197556 -44.5069 25.311 0.197556 
-44.5069 21.8363 6.68604 43.8325 21.8363 0.197556 39.5265 25.9699 0.197556 
-41.4343 28.8391 0.197556 -37.5041 31.8817 0.197556 -30.5013 34.9703 0.197556 
-9.49299 35.4535 0.197556 -2.4902 35.2392 0.197556 4.51259 35.3267 0.197556 
11.5154 35.105 0.197556 18.5182 34.4236 0.197556 25.5209 32.9019 0.197556 
35.1698 28.8391 0.197556 32.5237 30.3551 0.197556 -26.9408 35.8419 0.197556 
-23.4986 36.7596 0.197556 -23.4986 35.8419 3.65896 -13.329 35.8419 0.197556 
-16.4958 36.1677 0.197556 -16.4958 35.8419 1.98107 -9.49299 -35.3541 7.20034 
-2.4902 -36.4608 7.20034 4.51259 -36.3599 7.20034 11.5154 -35.3059 7.20034 
18.5182 -34.4026 7.20034 -23.4986 -30.2456 7.20034 -13.4616 -34.186 7.20034 
-16.4958 -33.1245 7.20034 -9.49299 -34.186 8.50336 -2.4902 -34.186 9.64484 
4.51259 -34.186 9.31164 11.5154 -34.186 8.29202 19.0844 -34.186 7.20034 
18.5182 -34.186 7.42515 25.5209 -31.3093 7.20034 32.5237 -28.7392 7.20034 
-37.5041 -21.7868 7.20034 -30.0956 -27.1832 7.20034 -30.5013 -26.9687 7.20034 
-23.4986 -27.1832 9.92095 -16.4958 -27.1832 12.1276 -9.49299 -27.1832 13.6045 
4.51259 -27.1832 13.2926 11.5154 -27.1832 12.4606 18.5182 -27.1832 11.721 
25.5209 -27.1832 10.8637 34.7766 -27.1832 7.20034 32.5237 -27.1832 9.35529 
39.5265 -23.4236 7.20034 -39.0509 -20.1804 7.20034 -37.5041 -20.1804 8.54515 
-30.5013 -20.1804 12.4681 -23.4986 -20.1804 14.1535 11.5154 -20.1804 13.6251 
42.8953 -20.1804 7.20034 39.5265 -20.1804 11.7546 46.5293 -15.67 7.20034 
-44.1289 -13.1777 7.20034 -44.5069 -12.4705 7.20034 -37.5041 -13.1777 12.5481 
48.1619 -13.1777 7.20034 46.5293 -13.1777 11.507 -47.089 -6.17487 7.20034 
-44.5069 -6.17487 10.1439 51.1574 -6.17487 7.20034 -48.6216 0.82792 7.20034 
-44.5069 0.82792 11.9431 51.6646 0.82792 7.20034 -48.2789 7.83071 7.20034 
-44.5069 7.83071 11.7231 50.8012 7.83071 7.20034 -46.9947 14.8335 7.20034 
-44.5069 21.3656 7.20034 -44.5069 14.8335 10.342 48.2011 14.8335 7.20034 
46.5293 17.3598 7.20034 46.5293 14.8335 11.7473 -44.2814 21.8363 7.20034 
-37.5041 21.8363 13.553 42.9048 21.8363 7.20034 39.5265 24.9469 7.20034 
39.5265 21.8363 13.9658 -38.3949 28.8391 7.20034 -37.5041 29.5589 7.20034 
-37.5041 28.8391 8.16537 -30.5013 33.1858 7.20034 -30.5013 28.8391 12.7015 
-23.4986 34.8087 7.20034 -16.4958 34.8456 7.20034 -9.49299 34.7581 7.20034 
-2.4902 34.8969 7.20034 4.51259 34.8209 7.20034 11.5154 34.2007 7.20034 
18.5182 33.2609 7.20034 25.5209 31.7604 7.20034 25.5209 28.8391 12.5262 
33.2692 28.8391 7.20034 32.5237 29.2482 7.20034 32.5237 28.8391 8.16436 
-2.4902 -27.1973 14.2031 -16.4958 -22.1695 14.2031 -2.58146 -27.1832 14.2031 
-9.49299 -25.4635 14.2031 -2.43439 -27.1832 14.2031 -2.4902 -27.1832 14.2103 
4.51259 -23.534 14.2031 18.5182 -21.2226 14.2031 25.5209 -21.9955 14.2031 
32.5237 -21.2335 14.2031 -30.5013 -16.3194 14.2031 -23.0689 -20.1804 14.2031 
-23.4986 -20.0476 14.2031 -16.4958 -20.1804 14.9316 -9.49299 -20.1804 15.8214 
-2.4902 -20.1804 16.2007 8.63982 -20.1804 14.2031 4.51259 -20.1804 15.0452 
15.5553 -20.1804 14.2031 11.5154 -18.3196 14.2031 18.5182 -20.1804 14.6058 
[...]
POINT_DATA 526
SCALARS ImageScalars float
LOOKUP_TABLE default
0 0 0 0 0 0 0 0 0 
0 0 0 0 0 0 0 0 0 
0 0 0 0 0 0 0 0 0 
0 0 0 0 0 0 0 0 0 
0 0 0 0 0 0 0 0 0 
0 0 0 0 0 0 0 0 0 
0 0 0 0 0 0 0 0 0 
0 0 0 0 0 0 0 0 0 
0 0 0 0 0 0 0 0 0 
0 0 0 0 0 0 0 0 0 
0 0 0 0 0 0 0 0 0 
0 0 0 0 0 0 0 0 0 
0 0 0 0 0 0 0 0 0 
0 0 0 0 0 0 0 0 0 
0 0 0 0 0 0 0 0 0 
0 0 0 0 0 0 0 0 0 
0 0 0 0 0 0 0 0 0 
0 0 0 0 0 0 0 0 0 
0 0 0 0 0 0 0 0 0 
0 0 0 0 0 0 0 0 0 
0 0 0 0 0 0 0 0 0 
0 0 0 0 0 0 0 0 0 
0 0 0 0 0 0 0 0 0 
0 0 0 0 0 0 0 0 0 
0 0 0 0 0 0 0 0 0 
0 0 0 0 0 0 0 0 0 
0 0 0 0 0 0 0 0 0 
0 0 0 0 0 0 0 0 0 
0 0 0 0 0 0 0 0 0 
0 0 0 0 0 0 0 0 0 
0 0 0 0 0 0 0 0 0 
0 0 0 0 0 0 0 0 0 
0 0 0 0 0 0 0 0 0 
0 0 0 0 0 0 0 0 0 
0 0 0 0 0 0 0 0 0 
0 0 0 0 0 0 0 0 0 
0 0 0 0 0 0 0 0 0 
0 0 0 0 0 0 0 0 0 
0 0 0 0 0 0 0 0 0 
0 0 0 0 0 0 0 0 0 
0 0 0 0 0 0 0 0 0 
0 0 0 0 0 0 0 0 0 
0 0 0 0 0 0 0 0 0 
0 0 0 0 0 0 0 0 0 
0 0 0 0 0 0 0 0 0 
0 0 0 0 0 0 0 0 0 
0 0 0 0 0 0 0 0 0 
0 0 0 0 0 0 0 0 0 
0 0 0 0 0 0 0 0 0 
0 0 0 0 0 0 0 0 0 
0 0 0 0 0 0 0 0 0 
0 0 0 0 0 0 0 0 0 
0 0 0 0 0 0 0 0 0 
0 0 0 0 0 0 0 0 0 
0 0 0 0 0 0 0 0 0 
0 0 0 0 0 0 0 0 0 
0 0 0 0 0 0 0 0 0 
0 0 0 0 0 0 0 0 0 
0 0 0 0 
NORMALS Normals float
-0.352368 -0.699055 -0.622221 -0.217498 -0.580964 -0.784332 -0.0831761 -0.498678 -0.862788 
0.0783018 -0.478565 -0.874554 0.241064 -0.488327 -0.838704 0.35912 -0.521006 -0.774329 
-0.414844 -0.479172 -0.773498 -0.22517 -0.312452 -0.922861 -0.0691939 -0.192218 -0.97891 
-0.00710457 -0.109968 -0.99391 0.0616484 -0.0980021 -0.993275 0.193205 -0.101375 -0.975907 
0.309551 -0.160777 -0.937192 0.37286 -0.310892 -0.874255 -0.523407 -0.402074 -0.751253 
-0.201704 -0.226647 -0.952863 -0.0608167 -0.0600328 -0.996342 -0.00953726 0.0197702 -0.999759 
0.00500706 0.061365 -0.998103 0.0922854 0.0537532 -0.994281 0.204734 0.0953693 -0.974161 
0.185347 -0.0134936 -0.98258 0.156424 -0.213601 -0.964316 0.24071 -0.387895 -0.889717 
-0.715817 -0.295164 -0.632839 -0.338548 -0.170256 -0.925418 -0.111109 -0.0794244 -0.990629 
0.022244 -0.000894794 -0.999752 0.0566279 0.0777345 -0.995365 0.027312 0.106313 -0.993958 
0.0980168 0.093611 -0.990772 0.124834 0.038284 -0.991439 0.0136129 -0.156096 -0.987648 
-0.0165874 -0.243511 -0.969756 0.0990599 -0.299946 -0.948799 0.268442 -0.387 -0.882139 
-0.627441 -0.103711 -0.771727 -0.275644 -0.0393071 -0.960456 -0.0425654 0.00724604 -0.999067 
0.0942724 0.0542237 -0.994069 0.100163 0.111975 -0.98865 0.0195572 0.0481271 -0.99865 
0.0298266 0.0729172 -0.996892 -0.0529003 -0.0916806 -0.994382 -0.0948467 -0.2601 -0.960912 
0.0183207 -0.16278 -0.986492 0.0847266 -0.138378 -0.986749 0.216437 -0.180362 -0.959492 
0.456803 -0.232051 -0.858769 -0.544986 0.0498828 -0.83696 -0.228567 0.0935748 -0.969021 
-0.0172273 0.122307 -0.992343 0.124923 0.109132 -0.986146 0.052001 0.0779695 -0.995599 
-0.011044 -0.0191057 -0.999756 -0.0404335 -0.0814769 -0.995855 -0.215541 -0.151641 -0.964649 
-0.0344952 -0.0647017 -0.997308 0.0952793 0.00258903 -0.995447 0.0776674 -0.000777319 -0.996979 
0.184621 -0.0193037 -0.98262 0.403664 -0.0458625 -0.913757 -0.544793 0.18636 -0.8176 
-0.227128 0.183068 -0.956503 -0.0337622 0.116613 -0.992603 0.0544949 0.0742488 -0.99575 
-0.0253102 -0.0328725 -0.999139 -0.142522 -0.0702223 -0.987297 -0.0915615 -0.140264 -0.985871 
-0.0507422 -0.0402662 -0.9979 0.0516492 0.0841134 -0.995117 0.0893797 0.0477929 -0.99485 
0.0645576 0.0466639 -0.996822 0.176205 0.0770764 -0.981331 0.406274 0.106605 -0.907511 
-0.305359 0.241641 -0.921068 -0.131622 0.138844 -0.981528 -0.0261561 0.0756516 -0.996791 
-0.0919977 -0.0423952 -0.994856 -0.123019 -0.00842096 -0.992369 -0.0280134 0.0464463 -0.998528 
0.0241585 0.0889709 -0.995741 0.0443618 0.118021 -0.99202 0.0591767 0.0778973 -0.995204 
0.11018 0.118905 -0.986773 0.238689 0.222722 -0.94521 0.473405 0.307352 -0.825483 
-0.219269 0.290652 -0.931366 -0.114375 0.196832 -0.973743 -0.114083 0.13061 -0.984848 
-0.0488505 0.200555 -0.978464 0.00471055 0.227987 -0.973653 0.0246449 0.228913 -0.973135 
0.0414253 0.256935 -0.96554 0.0895032 0.270555 -0.958535 0.194823 0.355811 -0.914025 
0.34584 0.433789 -0.831999 -0.179328 0.495125 -0.850113 -0.084511 0.521355 -0.849145 
-0.0240415 0.5622 -0.826652 0.00386768 0.572195 -0.820109 0.0490431 0.57002 -0.820166 
0.0849853 0.596738 -0.797923 0.169385 0.63119 -0.756906 -0.364683 -0.734451 -0.572353 
-0.234166 -0.794736 -0.559966 -0.0796191 -0.843839 -0.530657 0.0483528 -0.815054 -0.577364 
0.208572 -0.722424 -0.659243 0.356302 -0.560089 -0.747896 -0.395062 -0.721797 -0.568274 
-0.486627 -0.633163 -0.601913 0.364742 -0.531256 -0.764677 0.382313 -0.343293 -0.857897 
0.430038 -0.656599 -0.619633 -0.555451 -0.570565 -0.604921 -0.605537 -0.53502 -0.589134 
-0.69075 -0.689842 -0.216753 0.380383 -0.333387 -0.862648 0.284794 -0.403366 -0.869591 
0.441204 -0.48606 -0.754377 -0.631996 -0.477715 -0.610221 -0.724409 -0.313243 -0.614094 
0.286283 -0.428202 -0.857138 0.33224 -0.459742 -0.823562 0.402715 -0.521506 -0.752232 
-0.730417 -0.297586 -0.614763 0.453857 -0.429363 -0.780808 0.502015 -0.380525 -0.776648 
0.526414 -0.444939 -0.724512 -0.714345 -0.123276 -0.68885 0.554728 -0.259548 -0.790514 
0.75949 -0.287159 -0.583707 -0.687843 0.0343814 -0.725045 0.610445 -0.0676496 -0.789164 
0.752572 -0.0695538 -0.654827 -0.60488 0.184497 -0.774649 -0.578062 0.242848 -0.779018 
0.594854 0.131374 -0.793025 0.762626 0.14277 -0.630887 -0.528144 0.29088 -0.79778 
-0.637302 0.319521 -0.701251 -0.44257 0.377422 -0.81344 0.533991 0.328124 -0.779223 
0.505971 0.386908 -0.770906 0.808133 0.39566 -0.436318 -0.732648 0.514042 -0.44608 
-0.441234 0.380944 -0.812523 -0.451407 0.38705 -0.804005 -0.282513 0.519145 -0.806644 
0.259336 0.621906 -0.738903 0.429175 0.477724 -0.766543 0.372165 0.532508 -0.760216 
0.595556 0.587677 -0.547676 -0.545058 0.673555 -0.499234 -0.244977 0.549028 -0.799096 
-0.298521 0.594164 -0.746896 -0.170502 0.582364 -0.794847 -0.0608173 0.686273 -0.724797 
-0.0179006 0.737379 -0.675241 0.00927713 0.760539 -0.649226 0.0460505 0.744562 -0.665963 
0.0899523 0.714507 -0.693822 0.224695 0.665269 -0.71199 0.17301 0.695429 -0.697457 
0.279219 0.72618 -0.628251 0.434962 0.834933 -0.337188 -0.381883 -0.924027 -0.0184452 
-0.238267 -0.97119 -0.00443433 -0.11265 -0.993148 -0.0310909 -0.02617 -0.997061 -0.0719986 
0.0885817 -0.984815 -0.149306 0.267653 -0.926671 -0.263899 0.426527 -0.824075 -0.372794 
-0.690904 -0.716124 -0.0990892 -0.515887 -0.855733 -0.0397614 -0.544327 -0.837355 -0.0504435 
0.516048 -0.747775 -0.417765 0.538457 -0.709209 -0.455068 0.511822 -0.854774 -0.0860187 
-0.70493 -0.701519 -0.104618 -0.645109 -0.729497 0.227307 0.55325 -0.636415 -0.537485 
0.552123 -0.638081 -0.536668 0.573705 -0.669594 -0.471706 -0.815373 -0.559793 -0.147645 
-0.825476 -0.54463 -0.148215 0.617216 -0.61013 -0.496776 0.617714 -0.6099 -0.496439 
0.618402 -0.610642 -0.494667 -0.899994 -0.399167 -0.17515 0.748014 -0.472548 -0.466018 
0.791395 -0.403456 -0.459257 0.820006 -0.469925 -0.326741 -0.948898 -0.216059 -0.230024 
0.840108 -0.290361 -0.458159 -0.969894 -0.0241566 -0.242328 -0.994975 -0.0253038 0.0968779 
0.905207 -0.0464179 -0.422429 -0.946707 0.17108 -0.272905 0.90423 0.163089 -0.394677 
-0.878623 0.337268 -0.338041 0.837097 0.401508 -0.371565 0.822287 0.436261 -0.365403 
-0.771335 0.506943 -0.384775 -0.748126 0.533386 -0.394723 0.705016 0.623942 -0.337117 
0.617004 0.712066 -0.335064 -0.608429 0.688869 -0.394048 -0.55134 0.737361 -0.390286 
-0.315348 0.876861 -0.362865 -0.0966821 0.938398 -0.331755 0.0587894 0.963709 -0.2604 
0.0584456 0.974371 -0.217224 0.0134054 0.978098 -0.207714 0.0142569 0.97459 -0.223544 
0.0691721 0.96776 -0.242191 0.16482 0.951503 -0.259763 0.283345 0.916339 -0.282912 
0.451384 0.841993 -0.295466 0.432474 0.852653 -0.293171 -0.0952906 0.959731 -0.264265 
0.0793221 0.992929 -0.0883133 -0.338005 -0.855908 0.391374 -0.25362 -0.888837 0.381635 
-0.162195 -0.930786 0.327612 -0.0910826 -0.953754 0.286457 0.0080217 -0.963041 0.269235 
0.189599 -0.953686 0.233527 0.339507 -0.927573 0.156025 0.468723 -0.879111 0.0863895 
-0.38418 -0.844177 0.37386 -0.478882 -0.812361 0.332777 -0.327604 -0.824298 0.461745 
-0.266624 -0.766383 0.584439 0.484258 -0.871527 0.077043 0.461181 -0.870845 0.170123 
0.600814 -0.795283 -0.0809152 -0.626608 -0.726467 0.282149 -0.631049 -0.723517 0.279823 
-0.397849 -0.663277 0.633861 0.654675 -0.746475 -0.11906 0.703985 -0.69573 -0.142705 
-0.773044 -0.587923 0.238222 -0.80111 -0.552318 0.230581 0.75727 -0.631425 -0.166868 
0.84026 -0.514856 -0.169959 -0.881005 -0.424853 0.208161 -0.731487 -0.414592 0.541333 
0.871482 -0.460686 -0.168187 -0.949812 -0.240334 0.20024 -0.984227 -0.0381879 0.172742 
0.95377 -0.259923 -0.150873 -0.985011 -0.0254355 0.170609 -0.985501 -0.00868567 0.169447 
-0.983656 -0.0261155 0.178154 0.99325 -0.00445523 -0.115912 -0.978111 0.138639 0.155172 
0.97741 0.194907 -0.081742 -0.958116 0.268353 0.1 0.898017 0.436823 -0.0524485 
0.83502 0.548717 -0.0406235 -0.879554 0.472633 0.0547959 -0.808981 0.585607 0.051124 
-0.772908 0.455374 0.441869 0.747288 0.664058 -0.0242652 0.62127 0.783498 -0.0124346 
-0.687158 0.725266 0.0424727 -0.552891 0.832102 0.0437874 -0.294396 0.954696 0.0434316 
0.0654892 0.99785 0.0025504 0.00908688 0.999673 -0.0239184 0.00950144 0.99984 -0.0151454 
0.063601 0.997926 0.00995349 0.158822 0.987033 0.0232481 0.270309 0.962657 0.0149832 
0.498063 0.867141 -3.72208e-05 0.432021 0.901856 0.00371908 -0.190736 0.980442 0.0485182 
-0.0882699 0.994705 0.0526265 -0.0981454 0.970388 0.220714 0.0794927 0.996607 0.0213364 
0.0921507 0.995055 0.0370773 0.071738 0.991711 0.106595 -0.184156 -0.7678 0.613653 
-0.0599467 -0.785888 0.615457 0.0631754 -0.739367 0.670333 0.119401 -0.693933 0.710071 
0.212114 -0.730668 0.648947 -0.296949 -0.679939 0.670451 -0.231174 -0.74507 0.625643 
-0.263801 -0.718706 0.643328 -0.182098 -0.72706 0.661985 -0.0414984 -0.694181 0.718603 
0.0753988 -0.651541 0.754857 0.113946 -0.652558 0.749122 0.225041 -0.729908 0.645439 
0.210404 -0.719752 0.661579 0.309308 -0.734677 0.603803 0.44352 -0.806705 0.390535 
-0.548929 -0.581314 0.600626 -0.38776 -0.657221 0.6463 -0.393233 -0.655226 0.645017 
-0.277447 -0.597341 0.752467 -0.216669 -0.489184 0.844839 -0.126544 -0.420294 0.898521 
0.112816 -0.345669 0.93155 0.107414 -0.310744 0.944405 0.0950689 -0.435505 0.895152 
0.129812 -0.612778 0.77952 0.497315 -0.785206 0.368957 0.390095 -0.752105 0.531191 
0.61426 -0.734778 0.287725 -0.586307 -0.550865 0.593963 -0.535979 -0.538425 0.65025 
-0.308451 -0.472487 0.825599 -0.147224 -0.406065 0.901907 0.0281503 -0.222769 0.974465 
0.690019 -0.682313 0.241499 0.497308 -0.686318 0.530709 0.821013 -0.545121 0.169646 
-0.707255 -0.410829 0.575335 -0.719613 -0.396241 0.570219 -0.464181 -0.347931 0.814543 
0.867526 -0.474382 0.149535 0.768808 -0.509979 0.385817 -0.792565 -0.249706 0.556316 
-0.675332 -0.257223 0.691204 0.959051 -0.242627 0.146131 -0.827771 -0.0736279 0.556214 
-0.640858 -0.0840863 0.763041 0.989505 0.0252686 0.142275 -0.854826 0.103543 0.508479 
-0.671645 0.0810192 0.73643 0.957905 0.231432 0.169874 -0.839929 0.235334 0.489017 
-0.764602 0.435874 0.474761 -0.727718 0.223223 0.648535 0.8631 0.46314 0.201394 
0.821366 0.529871 0.211172 0.79056 0.481919 0.377849 -0.756703 0.450155 0.47409 
-0.525844 0.361789 0.769803 0.707447 0.670505 0.223479 0.599543 0.763274 0.24075 
0.534233 0.667446 0.518759 -0.581761 0.685219 0.438212 -0.552941 0.710065 0.435963 
-0.55363 0.682359 0.477368 -0.301291 0.854965 0.422206 -0.290013 0.653485 0.699178 
-0.107694 0.906836 0.407492 0.00397526 0.94302 0.332714 -0.00420402 0.968372 0.249474 
-0.00447202 0.978248 0.20739 0.0485702 0.96953 0.240111 0.10947 0.946997 0.302014 
0.169504 0.931715 0.32121 0.260942 0.917362 0.300592 0.203072 0.776851 0.596041 
0.427363 0.865958 0.259766 0.410704 0.873633 0.260935 0.406038 0.863685 0.298633 
0.0236434 -0.379047 0.925075 -0.141848 -0.361012 0.92171 0.0218452 -0.379087 0.925103 
-0.114458 -0.375835 0.919591 0.024396 -0.378327 0.925351 0.0237079 -0.378579 0.925265 
0.14761 -0.298761 0.942843 -0.0766153 -0.363259 0.928533 0.00652602 -0.493463 0.869742 
0.182844 -0.565643 0.804124 -0.270956 -0.369862 0.888699 -0.14493 -0.400499 0.904763 
-0.146229 -0.402862 0.903504 -0.113083 -0.323412 0.939477 -0.0848412 -0.267096 0.959928 
0.0498192 -0.283089 0.957799 0.0916781 -0.238721 0.966751 0.18159 -0.272998 0.944721 
-0.0501562 -0.301064 0.952284 0.0192595 -0.274265 0.961461 -0.107049 -0.355963 0.928349 
-0.0268852 -0.476438 0.878797 0.24477 -0.590816 0.768781 0.162621 -0.558921 0.813118 
0.413035 -0.61191 0.674514 -0.340513 -0.316703 0.885297 -0.417361 -0.239739 0.876547 
-0.251363 -0.296421 0.921385 -0.115029 -0.262332 0.958097 -0.0681713 -0.30748 0.949109 
-0.0909568 -0.341819 0.935354 -0.0300146 -0.297287 0.954316 0.169153 -0.482905 0.85918 
0.0189797 -0.438042 0.898754 -0.174506 -0.403189 0.898324 -0.137147 -0.41926 0.897447 
0.0640235 -0.450065 0.890698 0.630223 -0.517537 0.57877 0.356089 -0.499538 0.789723 
0.720997 -0.436014 0.538568 -0.431444 -0.21154 0.876988 -0.404884 -0.204719 0.891156 
-0.228738 -0.167082 0.959042 -0.172297 -0.195444 0.965461 -0.18467 -0.304879 0.934316 
-0.0414182 -0.334758 0.941393 -0.0465597 -0.165229 0.985156 0.0784384 -0.372404 0.92475 
-0.100814 -0.31498 0.943729 0.308589 -0.296551 0.903787 0.807257 -0.274211 0.522632 
0.695656 -0.280637 0.661291 -0.488758 -0.0971032 0.866999 -0.375572 -0.111033 0.920118 
-0.247927 -0.109058 0.962621 -0.238854 -0.127634 0.962631 0.0290653 -0.0974867 0.994812 
0.876325 0.0153669 0.481474 0.711189 0.00176919 0.702998 -0.525047 0.0467094 0.849791 
-0.418656 0.0179613 0.907967 -0.249416 -0.027172 0.968015 -0.160638 0.00125983 0.987013 
-0.0854077 0.149045 0.985135 0.039937 0.193799 0.980228 0.837123 0.251069 0.485994 
0.774411 0.407964 0.483584 0.752838 0.239979 0.612899 -0.522214 0.177342 0.834171 
-0.504824 0.302956 0.808313 -0.459968 0.164142 0.872632 -0.262433 0.104219 0.959306 
-0.0747128 0.137669 0.987656 0.0540714 0.184206 0.981399 0.0535053 0.232572 0.971106 
-0.00489549 0.249187 0.968443 -0.0148175 0.313786 0.949378 -0.087266 0.251902 0.96381 
-0.15154 0.232191 0.960793 -0.0689543 0.311079 0.947879 0.111119 0.368604 0.922921 
0.719415 0.483007 0.499145 0.530304 0.661148 0.530718 0.425685 0.442923 0.789058 
-0.48333 0.351921 0.801588 -0.286306 0.550321 0.784332 -0.270069 0.325786 0.90605 
-0.078751 0.311736 0.9469 0.0262772 0.263017 0.964433 0.0186271 0.210703 0.977373 
0.00265679 0.177259 0.984161 0.051557 0.218776 0.974412 -0.0306 0.25524 0.966393 
-0.0772041 0.377203 0.922907 0.15906 0.694711 0.701482 0.0444328 0.490375 0.870378 
0.521588 0.665351 0.534092 0.307321 0.730504 0.609851 0.231441 0.599035 0.766545 
-0.174422 0.604357 0.777387 -0.134065 0.613739 0.778043 -0.132216 0.589502 0.796873 
-0.0692552 0.630803 0.772846 -0.0657804 0.565615 0.822042 -0.0673145 0.625471 0.777338 
-0.0572847 0.497115 0.865792 0.000930219 0.653544 0.756888 0.00343016 0.48638 0.873741 
0.0958764 0.613608 0.783768 0.081242 0.489187 0.868387 0.0999056 0.598966 0.794518 
0.0921635 0.560189 0.823222 0.105357 0.665477 0.738945 0.0979643 0.66221 0.742887 
0.096966 0.655895 0.748598 0.000408088 -0.24967 0.968331 -0.127578 -0.306607 0.943247 
0.0602746 -0.325455 0.943634 -0.209216 -0.129994 0.969191 -0.0253201 -0.278214 0.960185 
-0.0220247 -0.209596 0.97754 0.00828909 -0.262437 0.964914 -0.0171886 -0.220997 0.975123 
0.0329298 -0.151227 0.98795 -0.109119 -0.286887 0.951729 -0.0964689 -0.198886 0.975263 
-0.121025 -0.26399 0.956903 0.266962 -0.290452 0.918896 0.0512329 -0.253129 0.966075 
0.30543 -0.262819 0.915226 -0.21741 -0.0949521 0.971451 -0.143809 0.0448865 0.988587 
-0.21158 -0.0874281 0.973442 0.0299853 -0.0893362 0.99555 0.0358768 -0.02564 0.999027 
0.0164296 -0.0902312 0.995785 -0.000741256 -0.0163414 0.999866 -0.0424877 -0.0504285 0.997824 
0.0276032 0.0972336 0.994879 0.00895574 -0.0282419 0.999561 -0.0930851 -0.0794746 0.992481 
-0.0883834 -0.0796683 0.992895 0.0461061 -0.0727106 0.996287 0.40648 -0.037588 0.912886 
0.291549 -0.0410043 0.955677 -0.0567067 0.253828 0.965586 -0.0479022 0.274426 0.960414 
-0.0501185 0.274936 0.960155 -0.0598637 0.181671 0.981536 -0.0656589 0.165537 0.984016 
0.0445396 0.201004 0.978577 0.032606 0.256924 0.965882 0.0511046 0.217027 0.974827 
-0.0510166 0.165215 0.984937 -0.15881 0.156173 0.974879 -0.15981 0.129165 0.978661 
-0.0735166 0.296654 0.952151 -0.109267 0.120632 0.986665 0.109887 0.362909 0.925323 
0.0836972 0.13262 0.987627 0.406542 0.200062 0.891459 0.363045 0.252408 0.896933 
0.353205 0.192915 0.91544 
