# vtk DataFile Version 4.2
vtk output
ASCII
DATASET POLYDATA
POINTS 560 float
-27.931 -42.0044 -16.2962 -19.7589 -42.0044 -17.8629 -11.5868 -42.0044 -17.8671 
-3.41471 -42.0044 -16.7839 4.75738 -42.0044 -15.3445 -36.1031 -33.8323 -16.818 
-27.931 -33.8323 -18.9235 -19.7589 -33.8323 -19.9442 -11.5868 -33.8323 -20.2072 
-3.41471 -33.8323 -18.9152 4.75738 -33.8323 -19.2787 12.9295 -33.8323 -17.8636 
21.1016 -33.8323 -15.2105 -44.2752 -25.6602 -15.579 -36.1031 -25.6602 -18.9799 
-27.931 -25.6602 -19.2255 -19.7589 -25.6602 -19.4732 -11.5868 -25.6602 -19.3648 
-3.41471 -25.6602 -18.4496 4.75738 -25.6602 -18.6717 12.9295 -25.6602 -18.8691 
21.1016 -25.6602 -17.3894 29.2737 -25.6602 -15.6523 37.4458 -25.6602 -13.9319 
-44.2752 -17.4881 -16.9279 -36.1031 -17.4881 -18.2538 -27.931 -17.4881 -18.5408 
-19.7589 -17.4881 -18.2601 -11.5868 -17.4881 -17.4749 -3.41471 -17.4881 -17.2298 
4.75738 -17.4881 -18.0619 12.9295 -17.4881 -18.5208 21.1016 -17.4881 -17.8731 
29.2737 -17.4881 -17.2504 37.4458 -17.4881 -16.282 45.6179 -17.4881 -14.1034 
-52.4473 -9.31598 -14.7878 -44.2752 -9.31598 -17.8542 -36.1031 -9.31598 -18.5929 
-27.931 -9.31598 -18.1572 -19.7589 -9.31598 -16.9614 -11.5868 -9.31598 -17.8228 
-3.41471 -9.31598 -20.7758 4.75738 -9.31598 -19.0739 12.9295 -9.31598 -18.2771 
21.1016 -9.31598 -17.863 29.2737 -9.31598 -17.7869 37.4458 -9.31598 -17.2252 
45.6179 -9.31598 -15.4492 -52.4473 -1.14389 -15.1428 -44.2752 -1.14389 -18.4394 
-36.1031 -1.14389 -18.7951 -27.931 -1.14389 -18.0284 -19.7589 -1.14389 -16.185 
-11.5868 -1.14389 -17.3752 -3.41471 -1.14389 -17.836 4.75738 -1.14389 -15.6514 
12.9295 -1.14389 -18.512 21.1016 -1.14389 -17.7294 29.2737 -1.14389 -17.974 
37.4458 -1.14389 -17.6163 45.6179 -1.14389 -16.0095 -52.4473 7.02821 -14.5526 
-44.2752 7.02821 -18.1363 -36.1031 7.02821 -18.6447 -27.931 7.02821 -17.7654 
-19.7589 7.02821 -15.8452 -3.41471 7.02821 -14.8196 4.75738 7.02821 -17.2004 
12.9295 7.02821 -16.9101 21.1016 7.02821 -17.0644 29.2737 7.02821 -17.6209 
37.4458 7.02821 -17.3793 45.6179 7.02821 -15.8415 -44.2752 15.2003 -17.2736 
-36.1031 15.2003 -18.3025 -27.931 15.2003 -17.8419 -19.7589 15.2003 -16.6576 
-11.5868 15.2003 -14.3576 12.9295 15.2003 -14.3909 21.1016 15.2003 -16.1015 
29.2737 15.2003 -17.1301 37.4458 15.2003 -16.7287 45.6179 15.2003 -14.7888 
-44.2752 23.3724 -16.7499 -36.1031 23.3724 -19.0133 -27.931 23.3724 -18.2432 
-19.7589 23.3724 -17.2517 -11.5868 23.3724 -15.9766 -3.41471 23.3724 -14.8203 
4.75738 23.3724 -14.3238 12.9295 23.3724 -14.5434 21.1016 23.3724 -15.2765 
29.2737 23.3724 -15.5873 37.4458 23.3724 -14.7641 -44.2752 31.5445 -14.0736 
-36.1031 31.5445 -16.6785 -27.931 31.5445 -18.8984 -19.7589 31.5445 -17.4247 
-11.5868 31.5445 -16.7138 -3.41471 31.5445 -15.8602 4.75738 31.5445 -15.2781 
12.9295 31.5445 -14.913 21.1016 31.5445 -14.4081 29.2737 31.5445 -13.6341 
-36.1031 39.7166 -13.9244 -27.931 39.7166 -15.4824 -19.7589 39.7166 -16.4175 
-11.5868 39.7166 -16.3822 -3.41471 39.7166 -15.7822 4.75738 39.7166 -14.8651 
12.9295 39.7166 -13.6578 -11.5868 47.8887 -13.7732 -27.931 -45.2261 -13.6024 
-19.7589 -47.2768 -13.6024 -19.7589 -50.1764 -7.71409 -11.5868 -46.6837 -13.6024 
-11.5868 -50.1764 -6.1997 -3.41471 -45.1515 -13.6024 4.75738 -43.6103 -13.6024 
-33.7384 -42.0044 -13.6024 -36.1031 -40.0423 -13.6024 -36.1031 -42.0044 -11.163 
10.1819 -42.0044 -13.6024 12.9295 -40.8194 -13.6024 12.9295 -42.0044 -12.1568 
21.1016 -36.1601 -13.6024 21.1016 -42.0044 -6.70096 -42.0385 -33.8323 -13.6024 
-44.2752 -30.6878 -13.6024 -44.2752 -33.8323 -11.4275 25.2275 -33.8323 -13.6024 
29.2737 -30.4382 -13.6024 29.2737 -33.8323 -11.6442 37.4458 -26.2416 -13.6024 
37.4458 -33.8323 -7.69685 -47.5875 -25.6602 -13.6024 -52.4473 -25.6602 -9.25276 
38.4759 -25.6602 -13.6024 45.6179 -18.961 -13.6024 45.6179 -25.6602 -10.6215 
53.7899 -25.6602 -5.90963 -51.2117 -17.4881 -13.6024 -52.4473 -14.8452 -13.6024 
-52.4473 -17.4881 -12.8278 47.3668 -17.4881 -13.6024 53.7899 -17.4881 -10.6491 
-54.3788 -9.31598 -13.6024 49.9417 -9.31598 -13.6024 53.7899 -9.31598 -11.7075 
-54.9227 -1.14389 -13.6024 -11.5868 5.58849 -13.6024 51.2515 -1.14389 -13.6024 
53.7899 -1.14389 -12.3466 -53.8474 7.02821 -13.6024 -52.4473 13.3995 -13.6024 
-13.0282 7.02821 -13.6024 -8.52651 7.02821 -13.6024 -11.5868 10.2229 -13.6024 
-11.5868 7.02821 -13.1054 -3.41471 12.1533 -13.6024 4.75738 13.7305 -13.6024 
50.8826 7.02821 -13.6024 53.7899 7.02821 -12.0553 -51.882 15.2003 -13.6024 
-52.4473 15.2003 -13.1606 -6.59592 15.2003 -13.6024 -3.41471 17.498 -13.6024 
-3.41471 15.2003 -13.0945 8.09072 15.2003 -13.6024 4.75738 18.6845 -13.6024 
4.75738 15.2003 -13.0664 47.8737 15.2003 -13.6024 45.6179 18.2295 -13.6024 
53.7899 15.2003 -9.07219 -49.5265 23.3724 -13.6024 -52.4473 23.3724 -9.2285 
40.4834 23.3724 -13.6024 37.4458 25.9223 -13.6024 45.6179 23.3724 -10.9567 
-44.8539 31.5445 -13.6024 -44.2752 32.4031 -13.6024 21.1016 34.8809 -13.6024 
29.373 31.5445 -13.6024 29.2737 31.6148 -13.6024 37.4458 31.5445 -9.99004 
-36.7277 39.7166 -13.6024 -36.1031 40.1741 -13.6024 -27.931 43.4731 -13.6024 
-19.7589 47.1664 -13.6024 -3.41471 47.1539 -13.6024 4.75738 43.7925 -13.6024 
13.2983 39.7166 -13.6024 12.9295 39.8647 -13.6024 21.1016 39.7166 -12.332 
29.2737 39.7166 -8.49957 -27.931 47.8887 -10.1028 -14.3389 47.8887 -13.6024 
-19.7589 47.8887 -13.223 -8.40144 47.8887 -13.6024 -11.5868 48.1529 -13.6024 
-3.41471 47.8887 -13.35 4.75738 47.8887 -12.0777 12.9295 47.8887 -9.71594 
21.1016 47.8887 -5.89658 -19.7589 -50.9515 -5.43034 -11.5868 -50.4316 -5.43034 
-36.1031 -44.7579 -5.43034 -22.3949 -50.1764 -5.43034 -27.931 -48.5986 -5.43034 
-19.7589 -50.1764 0.0207615 -10.0327 -50.1764 -5.43034 -11.5868 -50.1764 -2.86258 
-3.41471 -48.969 -5.43034 4.75738 -47.2712 -5.43034 12.9295 -45.1253 -5.43034 
21.1016 -42.7286 -5.43034 -40.1208 -42.0044 -5.43034 -44.2752 -38.5321 -5.43034 
23.3087 -42.0044 -5.43034 29.2737 -39.6634 -5.43034 29.2737 -42.0044 2.03193 
37.4458 -35.9976 -5.43034 -49.0527 -33.8323 -5.43034 -52.4473 -29.8502 -5.43034 
43.3701 -33.8323 -5.43034 45.6179 -32.7207 -5.43034 45.6179 -33.8323 -3.72992 
53.7899 -26.169 -5.43034 -55.5954 -25.6602 -5.43034 54.2449 -25.6602 -5.43034 
-58.5325 -17.4881 -5.43034 58.4431 -17.4881 -5.43034 -60.1451 -9.31598 -5.43034 
61.2316 -9.31598 -5.43034 61.962 -9.31598 -3.30634 -60.4879 -1.14389 -5.43034 
61.404 -1.14389 -5.43034 61.962 -1.14389 -3.4206 -58.903 7.02821 -5.43034 
60.3704 7.02821 -5.43034 61.962 7.02821 1.08174 -56.9679 15.2003 -5.43034 
57.0221 15.2003 -5.43034 53.7899 21.1535 -5.43034 -54.1681 23.3724 -5.43034 
-52.4473 26.7786 -5.43034 -52.4473 23.3724 0.91532 52.3076 23.3724 -5.43034 
45.6179 30.5661 -5.43034 53.7899 23.3724 -0.527573 -49.8034 31.5445 -5.43034 
-44.2752 38.7091 -5.43034 44.4153 31.5445 -5.43034 37.4458 36.9149 -5.43034 
45.6179 31.5445 -2.43598 -43.3605 39.7166 -5.43034 -36.1031 46.2176 -5.43034 
33.8846 39.7166 -5.43034 29.2737 42.9483 -5.43034 -33.3599 47.8887 -5.43034 
-27.931 50.8427 -5.43034 -19.7589 53.7045 -5.43034 -11.5868 55.2105 -5.43034 
-3.41471 55.0302 -5.43034 4.75738 53.9491 -5.43034 12.9295 51.8789 -5.43034 
21.5769 47.8887 -5.43034 21.1016 48.1509 -5.43034 -36.1031 -43.6645 2.74176 
-27.931 -47.6651 2.74176 -19.7589 -49.7702 2.74176 -11.5868 -49.5879 2.74176 
-3.41471 -48.5693 2.74176 4.75738 -47.339 2.74176 12.9295 -46.1909 2.74176 
21.1016 -44.1724 2.74176 29.2737 -42.1848 2.74176 -38.7147 -42.0044 2.74176 
-44.2752 -37.8362 2.74176 -36.1031 -42.0044 5.65823 29.9607 -42.0044 2.74176 
29.2737 -42.0044 4.59749 37.4458 -39.9481 2.74176 45.6179 -36.3075 2.74176 
-48.7245 -33.8323 2.74176 -52.4473 -29.3787 2.74176 -44.2752 -33.8323 8.31692 
49.5337 -33.8323 2.74176 53.7899 -30.2907 2.74176 -55.0048 -25.6602 2.74176 
-52.4473 -25.6602 6.67771 57.6757 -25.6602 2.74176 -58.4115 -17.4881 2.74176 
61.7695 -17.4881 2.74176 61.962 -16.5664 2.74176 -59.4221 -9.31598 2.74176 
63.4374 -9.31598 2.74176 61.962 -9.31598 7.83226 -59.5433 -1.14389 2.74176 
63.2505 -1.14389 2.74176 61.962 -1.14389 6.77236 -57.5589 7.02821 2.74176 
-52.4473 7.02821 9.67138 62.284 7.02821 2.74176 61.962 7.95768 2.74176 
61.962 7.02821 3.87581 -55.0238 15.2003 2.74176 -52.4473 22.0012 2.74176 
-52.4473 15.2003 6.27218 59.4107 15.2003 2.74176 -51.7869 23.3724 2.74176 
-44.2752 23.3724 9.89315 54.5548 23.3724 2.74176 53.7899 24.3314 2.74176 
53.7899 23.3724 4.99026 -47.1388 31.5445 2.74176 -44.2752 35.215 2.74176 
-44.2752 31.5445 6.05414 -36.1031 31.5445 10.8806 37.4458 39.4009 2.74176 
47.0452 31.5445 2.74176 45.6179 32.9314 2.74176 45.6179 31.5445 6.61905 
-40.2991 39.7166 2.74176 -36.1031 43.3978 2.74176 -36.1031 39.7166 6.75217 
-27.931 39.7166 10.1109 37.0237 39.7166 2.74176 29.2737 45.0615 2.74176 
-29.7761 47.8887 2.74176 -27.931 49.0539 2.74176 -27.931 47.8887 4.28693 
-19.7589 52.5543 2.74176 -19.7589 47.8887 8.45282 -11.5868 53.7576 2.74176 
-11.5868 47.8887 9.3889 -3.41471 54.2695 2.74176 -3.41471 47.8887 10.3605 
4.75738 53.9883 2.74176 4.75738 47.8887 10.7191 12.9295 52.4817 2.74176 
12.9295 47.8887 10.235 24.3046 47.8887 2.74176 21.1016 49.5322 2.74176 
21.1016 47.8887 6.47617 -27.931 -42.3018 10.9139 -19.7589 -45.1214 10.9139 
-11.5868 -46.2135 10.9139 -3.41471 -46.1186 10.9139 4.75738 -45.4391 10.9139 
12.9295 -44.5896 10.9139 21.1016 -43.2893 10.9139 -28.5668 -42.0044 10.9139 
-36.1031 -37.4271 10.9139 -27.931 -42.0044 11.1959 -19.7589 -42.0044 13.5843 
-11.5868 -42.0044 14.9948 -3.41471 -42.0044 15.5245 4.75738 -42.0044 15.1333 
12.9295 -42.0044 14.1312 26.6986 -42.0044 10.9139 21.1016 -42.0044 12.7088 
29.2737 -41.227 10.9139 37.4458 -38.59 10.9139 45.6179 -35.0792 10.9139 
-40.9873 -33.8323 10.9139 -44.2752 -30.5911 10.9139 -36.1031 -33.8323 13.4239 
-27.931 -33.8323 15.5042 -19.7589 -33.8323 16.925 -11.5868 -33.8323 17.9408 
-3.41471 -33.8323 18.8671 4.75738 -33.8323 19.0761 12.9295 -33.8323 18.7015 
21.1016 -33.8323 17.9873 29.2737 -33.8323 17.8232 37.4458 -33.8323 15.4394 
47.4224 -33.8323 10.9139 45.6179 -33.8323 12.4509 53.7899 -27.5451 10.9139 
[...]
POINT_DATA 560
SCALARS ImageScalars float
LOOKUP_TABLE default
0 0 0 0 0 0 0 0 0 
0 0 0 0 0 0 0 0 0 
0 0 0 0 0 0 0 0 0 
0 0 0 0 0 0 0 0 0 
0 0 0 0 0 0 0 0 0 
0 0 0 0 0 0 0 0 0 
0 0 0 0 0 0 0 0 0 
0 0 0 0 0 0 0 0 0 
0 0 0 0 0 0 0 0 0 
0 0 0 0 0 0 0 0 0 
0 0 0 0 0 0 0 0 0 
0 0 0 0 0 0 0 0 0 
0 0 0 0 0 0 0 0 0 
0 0 0 0 0 0 0 0 0 
0 0 0 0 0 0 0 0 0 
0 0 0 0 0 0 0 0 0 
0 0 0 0 0 0 0 0 0 
0 0 0 0 0 0 0 0 0 
0 0 0 0 0 0 0 0 0 
0 0 0 0 0 0 0 0 0 
0 0 0 0 0 0 0 0 0 
0 0 0 0 0 0 0 0 0 
0 0 0 0 0 0 0 0 0 
0 0 0 0 0 0 0 0 0 
0 0 0 0 0 0 0 0 0 
0 0 0 0 0 0 0 0 0 
0 0 0 0 0 0 0 0 0 
0 0 0 0 0 0 0 0 0 
0 0 0 0 0 0 0 0 0 
0 0 0 0 0 0 0 0 0 
0 0 0 0 0 0 0 0 0 
0 0 0 0 0 0 0 0 0 
0 0 0 0 0 0 0 0 0 
0 0 0 0 0 0 0 0 0 
0 0 0 0 0 0 0 0 0 
0 0 0 0 0 0 0 0 0 
0 0 0 0 0 0 0 0 0 
0 0 0 0 0 0 0 0 0 
0 0 0 0 0 0 0 0 0 
0 0 0 0 0 0 0 0 0 
0 0 0 0 0 0 0 0 0 
0 0 0 0 0 0 0 0 0 
0 0 0 0 0 0 0 0 0 
0 0 0 0 0 0 0 0 0 
0 0 0 0 0 0 0 0 0 
0 0 0 0 0 0 0 0 0 
0 0 0 0 0 0 0 0 0 
0 0 0 0 0 0 0 0 0 
0 0 0 0 0 0 0 0 0 
0 0 0 0 0 0 0 0 0 
0 0 0 0 0 0 0 0 0 
0 0 0 0 0 0 0 0 0 
0 0 0 0 0 0 0 0 0 
0 0 0 0 0 0 0 0 0 
0 0 0 0 0 0 0 0 0 
0 0 0 0 0 0 0 0 0 
0 0 0 0 0 0 0 0 0 
0 0 0 0 0 0 0 0 0 
0 0 0 0 0 0 0 0 0 
0 0 0 0 0 0 0 0 0 
0 0 0 0 0 0 0 0 0 
0 0 0 0 0 0 0 0 0 
0 0 
NORMALS Normals float
0.256389 0.524005 0.812209 0.0934967 0.453878 0.886145 -0.0531125 0.494986 0.867276 
-0.130982 0.554894 0.821545 -0.2028 0.665091 0.718698 0.348236 0.305148 0.88635 
0.181408 0.160078 0.970292 0.0838259 0.0779134 0.99343 -0.0732859 0.0710967 0.994774 
-0.0532044 0.0685176 0.99623 -0.054186 0.14085 0.988547 -0.235053 0.302804 0.923612 
-0.323747 0.417134 0.849227 0.437926 0.227136 0.869845 0.217576 0.0872381 0.972137 
0.0287777 -0.0225857 0.999331 0.00886967 -0.0952669 0.995412 -0.0646058 -0.156836 0.985509 
-0.0371555 -0.104703 0.993809 0.0253613 -0.0690402 0.997291 -0.0753603 0.0354749 0.996525 
-0.195087 0.151141 0.96907 -0.201989 0.285659 0.936803 -0.254553 0.403672 0.878778 
0.266101 0.136258 0.954266 0.0924568 -0.0186523 0.995542 0.00166435 -0.0647252 0.997902 
-0.0618919 -0.158075 0.985486 -0.0620222 -0.0944681 0.993594 0.0361424 0.0825674 0.99593 
0.0792893 0.023667 0.996571 -0.0126744 -0.0363308 0.999259 -0.0748993 0.0274489 0.996813 
-0.0952958 0.130497 0.986858 -0.190556 0.200904 0.960898 -0.26965 0.245587 0.931115 
0.466925 0.107942 0.877684 0.237048 0.08925 0.96739 0.0149581 0.0330453 0.999342 
-0.0989163 -0.0311634 0.994608 -0.0348656 -0.116024 0.992634 0.219553 0.00359687 0.975594 
0.0345778 0.139997 0.989548 -0.128039 -0.114616 0.985124 -0.0729295 -3.03773e-05 0.997337 
-0.029876 -0.00878314 0.999515 -0.0388991 0.0432056 0.998309 -0.136199 0.0765861 0.987717 
-0.298194 0.113109 0.94778 0.479187 -0.012868 0.877619 0.230672 0.0170483 0.972882 
-0.0271575 0.00315245 0.999626 -0.148774 -0.0236343 0.988589 -0.0726257 -0.0703198 0.994877 
0.106603 -0.305288 0.946274 -0.127823 -0.345617 0.929629 0.121349 -0.17121 0.977733 
0.0940951 -0.0655584 0.993402 -0.0327637 -0.0478864 0.998315 -0.00675118 -0.0102571 0.999925 
-0.115872 0.00932743 0.99322 -0.28713 0.0228349 0.957619 0.530413 -0.0953266 0.842363 
0.248485 -0.0690651 0.96617 -0.025277 -0.030141 0.999226 -0.167619 -0.0113301 0.985787 
-0.255936 0.0298875 0.966232 0.247627 -0.26134 0.932943 0.102545 -0.136813 0.985275 
-0.0030566 -0.272672 0.962102 0.0420184 -0.0999172 0.994108 0.0186708 -0.0511137 0.998518 
-0.102834 -0.0509572 0.993392 -0.283747 -0.0758639 0.955894 0.247047 -0.0858373 0.965194 
0.0295774 0.0192384 0.999377 -0.10356 0.030229 0.994164 -0.211608 0.0857402 0.973587 
-0.207941 0.163099 0.964448 0.171148 -0.118326 0.978114 0.162967 -0.106625 0.980853 
0.0404603 -0.13119 0.990531 -0.146239 -0.166627 0.975115 -0.359199 -0.240166 0.901829 
0.373479 -0.143038 0.916544 0.0978144 -0.0862347 0.991462 -0.102692 0.0602739 0.992885 
-0.140704 0.047683 0.988903 -0.145721 0.139751 0.979405 -0.0994786 0.15808 0.982403 
-0.0175403 0.120847 0.992516 0.0604397 0.0331868 0.99762 0.060865 -0.100811 0.993042 
-0.0325345 -0.211896 0.97675 -0.231405 -0.327691 0.916008 0.507659 -0.432565 0.745097 
0.237774 -0.25702 0.936699 0.0374877 -0.162394 0.986014 -0.123114 -0.0467127 0.991293 
-0.0963398 0.0256794 0.995017 -0.0862165 0.0579392 0.99459 -0.0577831 0.0340077 0.99775 
-0.0516907 -0.0522394 0.997296 -0.0817083 -0.174013 0.981348 -0.208136 -0.354701 0.911519 
0.326447 -0.489003 0.808894 0.121563 -0.396434 0.909979 0.051949 -0.213348 0.975594 
-0.0385468 -0.148502 0.988161 -0.0924831 -0.122844 0.988107 -0.126155 -0.165219 0.978155 
-0.14046 -0.251542 0.9576 0.00357777 -0.45922 0.888315 0.297696 0.716833 0.630498 
0.0781427 0.74235 0.66544 0.109058 0.967259 0.229163 -0.104806 0.7623 0.638682 
-0.114872 0.980905 0.156941 -0.158629 0.758013 0.632656 -0.208518 0.75362 0.623359 
0.445278 0.644966 0.621085 0.492663 0.587368 0.642092 0.5332 0.72196 0.440988 
-0.286583 0.712137 0.640883 -0.313104 0.66707 0.676006 -0.313136 0.759402 0.57031 
-0.341381 0.523133 0.780891 -0.31117 0.863589 0.396721 0.541898 0.436995 0.717901 
0.539137 0.385321 0.748905 0.63003 0.533754 0.564065 -0.337669 0.475836 0.812132 
-0.287845 0.420105 0.860615 -0.354953 0.554356 0.752794 -0.26151 0.421248 0.868425 
-0.322273 0.681832 0.656693 0.520294 0.285415 0.80488 0.732853 0.430848 0.52659 
-0.271813 0.411293 0.870032 -0.288459 0.284104 0.914372 -0.391872 0.468716 0.79167 
-0.616219 0.533842 0.57904 0.532808 0.244877 0.810031 0.54033 0.220293 0.812105 
0.601795 0.273633 0.750312 -0.323874 0.251926 0.911943 -0.575644 0.282472 0.767361 
0.553592 0.128448 0.822822 -0.410687 0.0785916 0.908383 -0.536907 0.0755925 0.840248 
0.589493 -0.0227794 0.807452 -0.0821195 -0.129043 0.988233 -0.443265 0.0239178 0.896072 
-0.536933 0.0195255 0.843399 0.594497 -0.117158 0.795517 0.616957 -0.176534 0.766942 
-0.133318 -0.0739568 0.98831 0.0151277 -0.147853 0.988894 -0.146773 0.0132847 0.989081 
-0.105017 -0.0995034 0.98948 0.0212138 -0.0591234 0.998025 0.100606 -0.133027 0.985993 
-0.444499 -0.112007 0.888749 -0.566137 -0.151977 0.81018 0.6166 -0.185977 0.764995 
0.664962 -0.204757 0.718262 -0.137986 0.086883 0.986616 -0.0893793 0.0692867 0.993585 
-0.0855811 0.0364527 0.995664 0.132248 -0.118845 0.984066 0.0384031 -0.00288573 0.999258 
0.090392 -0.113226 0.989449 -0.430526 -0.261832 0.863766 -0.394297 -0.315441 0.863149 
-0.678273 -0.340082 0.651375 0.648158 -0.243731 0.721448 0.875149 -0.357255 0.326316 
-0.319445 -0.370643 0.872112 -0.283075 -0.386295 0.877864 -0.483374 -0.465838 0.741178 
0.536246 -0.445273 0.717058 0.526521 -0.459565 0.715245 -0.144308 -0.212252 0.966501 
-0.210239 -0.356875 0.910187 -0.209609 -0.356428 0.910507 -0.415428 -0.560686 0.716275 
0.354671 -0.503742 0.787688 0.336811 -0.509248 0.791975 0.192218 -0.505123 0.84137 
0.144575 -0.510273 0.847773 -0.0943756 -0.416052 0.90443 -0.152522 -0.308601 0.938884 
-0.144497 -0.252775 0.956674 -0.140698 -0.256262 0.956313 -0.260976 -0.311899 0.91357 
-0.456003 -0.607014 0.650842 0.344519 -0.780144 0.522189 0.053934 -0.487836 0.871268 
0.160458 -0.557789 0.814324 -0.0348847 -0.454429 0.890099 0.00491031 -0.465796 0.884879 
-0.0948552 -0.456024 0.884898 -0.193288 -0.514175 0.835622 -0.25743 -0.655366 0.710088 
-0.435705 -0.823388 0.363584 0.111421 0.989407 0.0930551 -0.114539 0.98641 0.117794 
0.524137 0.842635 0.123476 0.184508 0.978423 0.0929776 0.332507 0.937634 0.101394 
0.116278 0.980984 -0.155399 -0.125509 0.98451 0.122422 -0.101977 0.99467 0.0152391 
-0.18214 0.971107 0.154195 -0.221695 0.958185 0.180923 -0.252657 0.935599 0.246615 
-0.297172 0.891575 0.341736 0.594975 0.791176 0.14158 0.663721 0.724345 0.186544 
-0.30548 0.878993 0.366133 -0.337227 0.824638 0.454147 -0.255279 0.961266 0.103923 
-0.322151 0.747457 0.580971 0.729212 0.646836 0.223278 0.777878 0.573446 0.257031 
-0.414441 0.69764 0.584411 -0.445944 0.670177 0.593293 -0.467404 0.744788 0.47626 
-0.621082 0.548235 0.560085 0.834614 0.47829 0.273237 -0.632914 0.534219 0.560384 
0.931791 0.248514 0.264587 -0.764174 0.3379 0.54942 0.978632 0.107153 0.175491 
-0.848414 0.133183 0.512304 -0.924305 0.12245 0.361478 0.984032 -0.076024 0.160941 
-0.883525 -0.042769 0.466428 -0.942832 -0.052445 0.329117 0.970043 -0.210115 0.121934 
-0.867182 -0.221987 0.445777 -0.971504 -0.232736 0.0448832 0.955425 -0.280964 0.0906719 
-0.791709 -0.382111 0.476643 -0.740169 -0.502408 0.446919 0.915457 -0.395369 0.0749808 
0.890871 -0.451152 0.0530216 0.847949 -0.416201 -0.328267 -0.710189 -0.547156 0.443003 
-0.598456 -0.668268 0.441892 -0.788322 -0.600065 0.135904 0.839864 -0.541032 0.0437318 
0.748924 -0.662447 0.0166403 -0.585092 -0.677418 0.445839 -0.534035 -0.704362 0.467633 
-0.644204 -0.719992 0.258094 0.732146 -0.680836 0.0205922 0.577462 -0.814745 0.0522352 
-0.539191 -0.702731 0.464158 -0.518913 -0.71875 0.46274 0.51712 -0.852214 0.0794914 
0.400114 -0.904531 0.147421 0.263842 -0.949591 0.169305 0.0844034 -0.984023 0.156763 
-0.0763191 -0.974152 0.212609 -0.181942 -0.936011 0.301298 -0.339965 -0.855428 0.390727 
-0.444722 -0.830067 0.336467 -0.44061 -0.833272 0.333948 0.499487 0.816543 -0.28943 
0.318339 0.903987 -0.285427 0.115074 0.95177 -0.284415 -0.0711653 0.973234 -0.21852 
-0.134148 0.979051 -0.153175 -0.142948 0.98454 -0.101226 -0.18804 0.981889 -0.0231209 
-0.229721 0.972875 0.0272613 -0.246988 0.966067 0.0755793 0.54312 0.790552 -0.282927 
0.626961 0.729461 -0.273508 0.486392 0.766143 -0.420058 -0.256145 0.963375 0.0793651 
-0.252865 0.967414 -0.0130039 -0.349816 0.929036 0.120503 -0.472547 0.877134 0.0856452 
0.696143 0.669735 -0.258535 0.772301 0.576732 -0.266328 0.560193 0.599991 -0.571135 
-0.560766 0.822071 0.0986929 -0.700012 0.710197 0.0748515 0.824042 0.491357 -0.281998 
0.726905 0.477662 -0.493405 -0.824589 0.563786 0.0468781 0.935081 0.224639 -0.274154 
-0.951107 0.308413 -0.0166384 -0.958821 0.283416 -0.0183749 0.940225 0.0667841 -0.333941 
-0.995774 0.0897468 -0.0194856 -0.929355 0.0943372 -0.356931 0.927889 -0.11237 -0.355522 
-0.996383 -0.0679112 -0.051073 -0.95282 -0.0702208 -0.295301 0.891412 -0.245626 -0.380857 
0.652035 -0.191508 -0.733604 -0.972284 -0.229676 -0.0437347 -0.967497 -0.248904 -0.0446767 
-0.967069 -0.231512 -0.105738 0.850406 -0.324505 -0.414132 0.804943 -0.393235 -0.444334 
0.733183 -0.316789 -0.601737 -0.913043 -0.404543 -0.0519284 0.792915 -0.404646 -0.455574 
0.550416 -0.302211 -0.778274 -0.795792 -0.604104 -0.0421166 -0.782651 -0.621109 -0.0409948 
-0.786014 -0.595909 -0.16454 0.724334 -0.490354 -0.484658 0.662358 -0.575317 -0.479888 
0.625118 -0.477761 -0.617229 0.394223 -0.382846 -0.835474 -0.595954 -0.802066 -0.0390902 
-0.684472 -0.728371 -0.0312106 -0.667897 -0.743595 -0.0312965 -0.653158 -0.716067 -0.246239 
0.59302 -0.645555 -0.481234 0.558145 -0.677989 -0.478336 0.489879 -0.56908 -0.66043 
0.308642 -0.47703 -0.822911 -0.59273 -0.80434 -0.0413383 -0.524989 -0.847395 -0.0794314 
0.493031 -0.751051 -0.439139 0.457241 -0.784465 -0.418981 0.4694 -0.729645 -0.497273 
0.271154 -0.872736 -0.405965 0.221775 -0.655918 -0.721517 0.0993406 -0.905137 -0.41335 
0.0898187 -0.632956 -0.76896 0.0110635 -0.934132 -0.356756 0.0657542 -0.629926 -0.773867 
-0.107856 -0.956911 -0.269609 -0.00194405 -0.655875 -0.754867 -0.25626 -0.941451 -0.219091 
-0.124176 -0.758767 -0.639416 -0.448384 -0.88743 -0.106857 -0.399153 -0.908302 -0.125157 
-0.358556 -0.872499 -0.331939 0.305312 0.628308 -0.715551 0.184882 0.709665 -0.679849 
0.047013 0.7949 -0.604916 -0.0460955 0.855866 -0.51514 -0.0901972 0.879683 -0.466929 
-0.137104 0.881788 -0.451279 -0.188029 0.897011 -0.400021 0.31399 0.624664 -0.714986 
0.390033 0.564921 -0.727144 0.302777 0.615729 -0.727464 0.189464 0.56776 -0.801094 
0.10708 0.563721 -0.818995 0.0105486 0.592929 -0.805185 -0.0681449 0.661746 -0.746625 
-0.11885 0.726913 -0.676367 -0.232874 0.902206 -0.363033 -0.167888 0.839305 -0.517088 
-0.255869 0.895785 -0.363456 -0.339251 0.826803 -0.44867 -0.480143 0.768761 -0.422456 
0.450049 0.51439 -0.729972 0.483332 0.475714 -0.734905 0.337364 0.435607 -0.834525 
0.197484 0.297785 -0.933983 0.133623 0.22791 -0.96447 0.119313 0.146395 -0.982005 
0.065109 0.118277 -0.990844 -0.00914148 0.168511 -0.985657 -0.0671825 0.265508 -0.961765 
-0.0493783 0.322077 -0.945425 -0.132627 0.388052 -0.912045 -0.268582 0.59522 -0.757348 
-0.523283 0.730695 -0.438475 -0.46861 0.699138 -0.54001 -0.680847 0.530267 -0.505238 
0.532725 0.39813 -0.746791 0.635397 0.20578 -0.744261 0.416915 0.332933 -0.845776 
0.190331 0.238356 -0.952345 0.113597 0.124721 -0.985668 0.050423 0.0100057 -0.998678 
0.0158496 -0.0914577 -0.995683 0.0714101 -0.0955214 -0.992863 0.0818308 -0.000417378 -0.996646 
-0.373005 0.305746 -0.876006 -0.710773 0.473083 -0.520571 -0.659218 0.477362 -0.580996 
0.653497 0.144878 -0.742935 0.618863 0.143129 -0.772349 0.348815 0.104108 -0.931391 
0.151253 0.0563882 -0.986885 -0.050824 0.00787193 -0.998677 -0.0775042 -0.107024 -0.991231 
0.0108472 -0.158809 -0.98725 0.162085 0.0191564 -0.986591 0.101647 0.109077 -0.988823 
0.00239697 -0.0232777 -0.999726 -0.160122 0.181574 -0.970253 -0.787717 0.256759 -0.559979 
-0.54466 0.232117 -0.805895 0.618013 -0.0362882 -0.78533 0.607191 -0.037317 -0.793679 
0.318337 -0.0149517 -0.94786 0.0883449 -0.0642302 -0.994017 -0.0549732 -0.0355472 -0.997855 
-0.114045 -0.0160628 -0.993346 0.11497 0.135451 -0.984091 0.37229 0.0354594 -0.927439 
-0.806246 0.0857661 -0.58533 -0.495185 -0.0240371 -0.868455 0.585204 -0.0680275 -0.808027 
0.58534 -0.0702808 -0.807736 0.584219 -0.0679609 -0.808746 0.318104 -0.0856233 -0.944181 
0.125256 -0.0446326 -0.99112 0.000360929 0.0194965 -0.99981 0.116242 0.0801918 -0.989978 
-0.157443 0.101051 -0.982344 0.18943 -0.0975414 -0.977037 -0.803582 -0.0619962 -0.591956 
-0.534021 -0.0316637 -0.844878 0.570232 -0.174904 -0.802648 0.362583 -0.124443 -0.923606 
0.196945 -0.0573668 -0.978735 0.068269 -0.00891933 -0.997627 0.0323832 -0.0303363 -0.999015 
0.191502 -0.340956 -0.920367 -0.00519463 -0.126931 -0.991898 -0.804997 -0.213373 -0.55358 
-0.562319 -0.128202 -0.816922 0.510997 -0.2589 -0.819666 0.512088 -0.27492 -0.813748 
0.46029 -0.22789 -0.858021 0.230408 -0.133424 -0.963904 0.02528 -0.117477 -0.992754 
-0.149417 -0.115449 -0.982011 -0.0471567 -0.142427 -0.988681 0.28094 -0.231109 -0.931483 
0.0994659 -0.113952 -0.988495 0.0332768 0.0267809 -0.999087 0.145653 -0.0218121 -0.989095 
-0.314175 -0.250389 -0.915751 -0.759199 -0.349313 -0.549178 -0.72817 -0.423987 -0.53852 
-0.682388 -0.339138 -0.647558 0.493945 -0.288802 -0.820129 0.393197 -0.38159 -0.836532 
0.294023 -0.259186 -0.919985 0.0876459 -0.189607 -0.97794 -0.0316589 -0.0807562 -0.996231 
0.0167344 0.0417631 -0.998987 0.16352 0.0348655 -0.985924 0.15582 -0.048325 -0.986603 
0.0766137 0.0438029 -0.996098 0.0555146 -0.0574138 -0.996806 -0.211316 -0.285912 -0.934666 
-0.659677 -0.517523 -0.544974 -0.579365 -0.626555 -0.521312 -0.473773 -0.439541 -0.763114 
0.3923 -0.381955 -0.836786 0.284605 -0.437903 -0.852784 0.209755 -0.28779 -0.934441 
0.0870462 -0.177798 -0.98021 0.0839236 -0.0734396 -0.993762 0.148315 -0.0596424 -0.98714 
0.122762 -0.109903 -0.986332 0.0214567 -0.13376 -0.990781 -0.0581036 -0.218207 -0.974171 
-0.186816 -0.34865 -0.918446 -0.553909 -0.642337 -0.529706 -0.477147 -0.677024 -0.56033 
-0.385677 -0.53924 -0.748648 0.269425 -0.427895 -0.862738 0.199261 -0.45561 -0.867591 
0.186544 -0.326744 -0.92652 0.0931341 -0.506663 -0.857099 0.119256 -0.298826 -0.946827 
0.069216 -0.583749 -0.808979 0.111035 -0.304148 -0.946132 0.0015076 -0.640956 -0.767576 
0.0671192 -0.334809 -0.939893 -0.10172 -0.714584 -0.692115 -0.0290768 -0.382543 -0.92348 
-0.256046 -0.715101 -0.650439 -0.178764 -0.480588 -0.858533 -0.435859 -0.689566 -0.578382 
-0.409688 -0.689434 -0.597358 -0.380136 -0.646528 -0.661437 -0.0266198 0.14939 -0.98842 
-0.00076078 0.116854 -0.993149 -0.032934 0.204202 -0.978375 -0.178263 0.259947 -0.949026 
0.06979 0.00176837 -0.99756 0.00832283 -0.0142702 -0.999864 0.0262865 0.00930548 -0.999611 
0.0113284 0.0645588 -0.99785 0.0154709 0.114604 -0.993291 -0.207259 0.223736 -0.952358 
-0.1648 0.205945 -0.964587 0.100417 0.106487 -0.98923 0.0513695 -0.00516019 -0.998666 
-0.0556065 0.0253654 -0.998131 0.0549616 -0.00384546 -0.998481 0.0394669 0.0274625 -0.998843 
-0.129365 0.144442 -0.981021 -0.0568976 0.0498169 -0.997136 -0.157099 0.148971 -0.976283 
0.0943761 0.229546 -0.968711 0.358229 0.0316006 -0.933099 0.0789528 -0.0944962 -0.99239 
0.0147857 -0.0777549 -0.996863 -0.089993 0.0541695 -0.994468 0.0627459 0.0466345 -0.996939 
0.0681806 0.0426483 -0.996761 -0.0355319 0.0735191 -0.996661 -0.261609 0.0312217 -0.964669 
-0.164432 0.0613744 -0.984477 0.0976869 0.193456 -0.976234 -0.00160169 0.199012 -0.979996 
0.152397 -0.0484799 -0.98713 0.0822049 0.223794 -0.971163 -0.0521155 0.022168 -0.998395 
0.140615 -0.0778723 -0.986997 -0.114281 0.0265804 -0.993093 0.0788395 -0.0938936 -0.992456 
0.13055 -0.0754181 -0.988569 0.0445668 -0.00150719 -0.999005 0.0669031 0.0409485 -0.996919 
-0.0396805 0.0364628 -0.998547 -0.320794 -0.00210041 -0.947147 -0.255239 0.00617736 -0.966858 
0.188578 -0.292212 -0.937577 0.175153 -0.216676 -0.960403 0.0831464 -0.0944607 -0.99205 
-0.132634 0.000949714 -0.991165 -0.068712 -0.0170512 -0.997491 -0.184128 0.0580497 -0.981187 
0.150938 -0.0643908 -0.986444 0.157595 -0.0330223 -0.986952 0.178862 -0.0533742 -0.982425 
0.105988 -0.0238892 -0.99408 -0.0724737 -0.0579773 -0.995684 -0.307062 -0.0960436 -0.946831 
-0.262445 -0.171247 -0.94963 -0.223054 -0.0867071 -0.970942 0.138064 -0.0288977 -0.990002 
0.060071 -0.0972579 -0.993445 -0.21465 -0.197008 -0.956615 -0.186394 -0.250383 -0.950035 
-0.101156 -0.140086 -0.984958 0.0281206 -0.102745 -0.99431 -0.0971643 -0.214594 -0.971858 
-0.0248225 -0.176633 -0.983964 -0.00537099 -0.156499 -0.987663 
