# vtk DataFile Version 4.2
vtk output
ASCII
DATASET POLYDATA
POINTS 528 float
-10.1799 0.63343 -22.8991 -42.6517 -31.8384 -15.6756 -34.5337 -31.8384 -16.4654 
-26.4158 -31.8384 -15.7014 -50.7696 -23.7204 -17.0854 -42.6517 -23.7204 -18.7127 
-34.5337 -23.7204 -18.5843 -26.4158 -23.7204 -19.0025 -18.2978 -23.7204 -17.1321 
-58.8876 -15.6025 -15.5036 -50.7696 -15.6025 -17.9025 -42.6517 -15.6025 -20.6028 
-34.5337 -15.6025 -19.8835 -26.4158 -15.6025 -18.4358 -18.2978 -15.6025 -17.6798 
-10.1799 -15.6025 -16.8761 -2.06195 -15.6025 -16.8816 6.056 -15.6025 -17.3036 
14.1739 -15.6025 -16.2925 22.2919 -15.6025 -17.1061 30.4098 -15.6025 -17.9544 
38.5278 -15.6025 -17.2274 46.6457 -15.6025 -15.7548 -58.8876 -7.48452 -18.847 
-50.7696 -7.48452 -19.107 -42.6517 -7.48452 -19.2132 -34.5337 -7.48452 -19.2666 
-26.4158 -7.48452 -17.4095 -18.2978 -7.48452 -15.8364 -10.1799 0.459597 -22.835 
-10.1799 -7.48452 -18.7562 -2.06195 -7.48452 -17.1993 6.056 -7.48452 -19.2636 
14.1739 -7.48452 -18.6313 22.2919 -7.48452 -18.4703 30.4098 -7.48452 -18.926 
38.5278 -7.48452 -19.0145 46.6457 -7.48452 -17.886 54.7637 -7.48452 -15.2223 
-58.8876 0.63343 -18.0118 -50.7696 0.63343 -20.3333 -42.6517 0.63343 -19.4041 
-34.5337 0.63343 -19.1909 -26.4158 0.63343 -17.0709 -10.2847 0.63343 -22.835 
-18.2978 0.63343 -15.244 -10.0681 0.63343 -22.835 -10.1799 0.807769 -22.835 
6.056 0.63343 -19.4808 14.1739 0.63343 -17.1919 22.2919 0.63343 -17.4713 
30.4098 0.63343 -18.7756 38.5278 0.63343 -19.1818 46.6457 0.63343 -18.3295 
54.7637 0.63343 -15.5323 -58.8876 8.75138 -19.8717 -50.7696 8.75138 -19.9046 
-42.6517 8.75138 -19.7569 -34.5337 8.75138 -19.8149 -26.4158 8.75138 -18.0033 
-18.2978 8.75138 -16.5624 -10.1799 8.75138 -18.7323 -2.06195 8.75138 -16.8273 
6.056 8.75138 -19.301 14.1739 8.75138 -16.7361 22.2919 8.75138 -17.3336 
30.4098 8.75138 -18.4297 38.5278 8.75138 -18.5503 46.6457 8.75138 -17.5093 
-58.8876 16.8693 -16.9797 -50.7696 16.8693 -18.7199 -42.6517 16.8693 -19.8826 
-34.5337 16.8693 -20.4329 -26.4158 16.8693 -19.1656 -18.2978 16.8693 -18.4161 
-10.1799 16.8693 -17.9724 -2.06195 16.8693 -17.7451 6.056 16.8693 -17.879 
14.1739 16.8693 -17.4753 22.2919 16.8693 -17.9167 30.4098 16.8693 -18.4146 
38.5278 16.8693 -17.4401 46.6457 16.8693 -15.79 -50.7696 24.9873 -17.9757 
-42.6517 24.9873 -20.2574 -34.5337 24.9873 -20.2203 -26.4158 24.9873 -20.4448 
-18.2978 24.9873 -19.6515 -10.1799 24.9873 -18.9018 -2.06195 24.9873 -18.2205 
6.056 24.9873 -17.7865 14.1739 24.9873 -16.8485 22.2919 24.9873 -16.4236 
30.4098 24.9873 -15.5278 -42.6517 33.1052 -17.8543 -34.5337 33.1052 -19.4483 
-26.4158 33.1052 -18.9129 -18.2978 33.1052 -19.0579 -10.1799 33.1052 -18.025 
-2.06195 33.1052 -16.3501 -26.4158 41.2232 -15.4102 -42.6517 -33.033 -14.7171 
-34.5337 -33.9784 -14.7171 -26.4158 -33.0236 -14.7171 -45.1693 -31.8384 -14.7171 
-50.7696 -28.1881 -14.7171 -50.7696 -31.8384 -10.9595 -23.5361 -31.8384 -14.7171 
-18.2978 -28.7102 -14.7171 -18.2978 -31.8384 -12.632 -10.1799 -31.8384 -8.92832 
-55.1099 -23.7204 -14.7171 -58.8876 -17.3301 -14.7171 -58.8876 -23.7204 -10.661 
-10.7536 -23.7204 -14.7171 -10.1799 -23.1058 -14.7171 -10.1799 -23.7204 -14.5071 
-2.06195 -18.9559 -14.7171 -2.06195 -23.7204 -11.7953 6.056 -18.862 -14.7171 
6.056 -23.7204 -11.135 14.1739 -18.0697 -14.7171 14.1739 -23.7204 -10.7097 
22.2919 -19.5105 -14.7171 22.2919 -23.7204 -11.5809 30.4098 -20.9081 -14.7171 
30.4098 -23.7204 -12.2317 38.5278 -19.7649 -14.7171 38.5278 -23.7204 -11.3317 
46.6457 -17.2513 -14.7171 46.6457 -23.7204 -9.31886 -60.0529 -15.6025 -14.7171 
48.9868 -15.6025 -14.7171 54.7637 -8.71458 -14.7171 54.7637 -15.6025 -11.7665 
-64.2029 -7.48452 -14.7171 -2.06195 0.185062 -14.7171 55.6494 -7.48452 -14.7171 
62.8816 -7.48452 -9.33585 -64.3203 0.63343 -14.7171 -67.0055 0.63343 -8.4825 
-2.36125 0.63343 -14.7171 -1.79276 0.63343 -14.7171 -2.06195 1.10063 -14.7171 
-2.06195 0.63343 -14.5274 56.284 0.63343 -14.7171 54.7637 8.27494 -14.7171 
62.8816 0.63343 -9.9666 -65.9473 8.75138 -14.7171 54.619 8.75138 -14.7171 
54.7637 8.75138 -14.6597 62.8816 8.75138 -8.34109 -61.7665 16.8693 -14.7171 
-58.8876 21.2629 -14.7171 38.5278 23.1649 -14.7171 48.8392 16.8693 -14.7171 
46.6457 18.6774 -14.7171 54.7637 16.8693 -10.8353 -56.7548 24.9873 -14.7171 
-58.8876 24.9873 -7.95866 -50.7696 31.6451 -14.7171 6.056 33.0764 -14.7171 
14.1739 29.757 -14.7171 22.2919 27.5024 -14.7171 34.3456 24.9873 -14.7171 
30.4098 26.0154 -14.7171 38.5278 24.9873 -13.2165 46.6457 24.9873 -8.97534 
-49.1719 33.1052 -14.7171 -50.7696 33.1052 -10.1536 -42.6517 37.4935 -14.7171 
-34.5337 40.6915 -14.7171 -18.2978 40.6397 -14.7171 -10.1799 37.8914 -14.7171 
5.98831 33.1052 -14.7171 -2.06195 35.146 -14.7171 6.056 33.1052 -14.6985 
14.1739 33.1052 -11.7358 -31.818 41.2232 -14.7171 -34.5337 41.2232 -13.8668 
-21.1492 41.2232 -14.7171 -26.4158 41.8608 -14.7171 -18.2978 41.2232 -14.0775 
-10.1799 41.2232 -9.74339 -50.7696 -34.5349 -6.59915 -42.6517 -38.3883 -6.59915 
-34.5337 -39.3314 -6.59915 -26.4158 -39.2518 -6.59915 -26.4158 -39.9563 0.893947 
-18.2978 -36.6284 -6.59915 -10.1799 -33.6266 -6.59915 -54.0542 -31.8384 -6.59915 
-58.8876 -26.8419 -6.59915 -2.39549 -31.8384 -6.59915 -2.06195 -31.7312 -6.59915 
-2.06195 -31.8384 -6.47657 6.056 -31.1454 -6.59915 6.056 -31.8384 -5.90549 
14.1739 -29.4197 -6.59915 14.1739 -31.8384 -4.16418 22.2919 -28.6503 -6.59915 
22.2919 -31.8384 -2.4487 30.4098 -28.2473 -6.59915 30.4098 -31.8384 -1.20468 
38.5278 -27.6432 -6.59915 38.5278 -31.8384 0.092465 46.6457 -25.8387 -6.59915 
-61.149 -23.7204 -6.59915 -58.8876 -23.7204 -1.38386 51.0973 -23.7204 -6.59915 
54.7637 -21.4991 -6.59915 54.7637 -23.7204 -2.46589 -64.4414 -15.6025 -6.59915 
61.1985 -15.6025 -6.59915 62.8816 -12.5026 -6.59915 62.8816 -15.6025 -3.86912 
-66.2607 -7.48452 -6.59915 -67.0055 -3.10966 -6.59915 65.3197 -7.48452 -6.59915 
-67.6623 0.63343 -6.59915 -67.0055 8.57828 -6.59915 -67.0055 0.63343 -4.80023 
65.8261 0.63343 -6.59915 -66.9887 8.75138 -6.59915 -58.8876 8.75138 1.07592 
64.3613 8.75138 -6.59915 62.8816 11.6183 -6.59915 -63.7876 16.8693 -6.59915 
59.6784 16.8693 -6.59915 54.7637 21.1901 -6.59915 62.8816 16.8693 -1.07068 
-59.2158 24.9873 -6.59915 -58.8876 25.4354 -6.59915 -58.8876 24.9873 -5.94679 
-50.7696 24.9873 0.456253 22.2919 32.9392 -6.59915 30.4098 30.8737 -6.59915 
38.5278 29.091 -6.59915 49.5517 24.9873 -6.59915 46.6457 26.4977 -6.59915 
-51.7618 33.1052 -6.59915 -50.7696 34.0978 -6.59915 -50.7696 33.1052 -5.03149 
-42.6517 40.8563 -6.59915 -42.6517 33.1052 0.95644 -2.06195 40.176 -6.59915 
6.056 38.2346 -6.59915 21.8035 33.1052 -6.59915 14.1739 35.7764 -6.59915 
22.2919 33.1052 -4.90764 -41.9065 41.2232 -6.59915 -34.5337 43.7268 -6.59915 
-34.5337 41.2232 -2.21265 -26.4158 44.615 -6.59915 -18.2978 44.7645 -6.59915 
-5.66628 41.2232 -6.59915 -10.1799 42.5047 -6.59915 -10.1799 41.2232 1.40812 
-26.4158 -40.0102 1.51879 -50.7696 -32.9577 1.51879 -42.6517 -37.8515 1.51879 
-27.8053 -39.9563 1.51879 -34.5337 -39.6955 1.51879 -26.1499 -39.9563 1.51879 
-26.4158 -39.9563 1.73107 -18.2978 -38.3647 1.51879 -10.1799 -36.6791 1.51879 
-2.06195 -35.911 1.51879 6.056 -35.8518 1.51879 14.1739 -35.2813 1.51879 
22.2919 -34.2964 1.51879 30.4098 -33.3688 1.51879 38.5278 -32.536 1.51879 
-52.4053 -31.8384 1.51879 -50.7696 -31.8384 3.00994 40.4464 -31.8384 1.51879 
46.6457 -29.2669 1.51879 54.7637 -25.6152 1.51879 -57.5019 -23.7204 1.51879 
-58.8876 -19.8587 1.51879 -50.7696 -23.7204 9.38165 57.1341 -23.7204 1.51879 
62.8816 -18.6027 1.51879 -61.2461 -15.6025 1.51879 -58.8876 -15.6025 3.11276 
-50.7696 -15.6025 9.51982 65.2209 -15.6025 1.51879 -62.4284 -7.48452 1.51879 
-58.8876 -7.48452 4.49077 -50.7696 -7.48452 8.2817 69.5176 -7.48452 1.51879 
-61.6276 0.63343 1.51879 -58.8876 6.70185 1.51879 -58.8876 0.63343 3.37593 
-50.7696 0.63343 6.99371 -42.6517 0.63343 9.55881 69.6245 0.63343 1.51879 
-58.0579 8.75138 1.51879 -58.8876 12.5373 1.51879 -50.7696 8.75138 5.23187 
-42.6517 8.75138 8.55049 -34.5337 8.75138 9.48522 68.4589 8.75138 1.51879 
-59.409 16.8693 1.51879 -58.8876 17.9335 1.51879 -58.8876 16.8693 1.92455 
-50.7696 22.9221 1.51879 -50.7696 16.8693 5.07174 -42.6517 16.8693 6.55478 
-34.5337 16.8693 8.39595 -26.4158 16.8693 9.53155 54.7637 24.5701 1.51879 
63.9139 16.8693 1.51879 62.8816 18.084 1.51879 -49.234 24.9873 1.51879 
-42.6517 32.3214 1.51879 -42.6517 24.9873 4.9578 -34.5337 24.9873 7.92066 
-26.4158 24.9873 9.30005 30.4098 32.1562 1.51879 38.5278 31.1444 1.51879 
53.9425 24.9873 1.51879 46.6457 28.1791 1.51879 -41.7865 33.1052 1.51879 
-34.5337 38.06 1.51879 -34.5337 33.1052 4.85752 -26.4158 33.1052 7.72929 
-18.2978 33.1052 9.33113 -10.1799 41.2029 1.51879 -2.06195 39.7554 1.51879 
6.056 38.273 1.51879 14.1739 36.1527 1.51879 25.4946 33.1052 1.51879 
22.2919 33.7252 1.51879 22.2919 33.1052 6.77343 -27.484 41.2232 1.51879 
-26.4158 41.5923 1.51879 -26.4158 41.2232 1.92267 -10.3546 41.2232 1.51879 
-18.2978 42.1752 1.51879 -18.2978 41.2232 2.69611 -42.6517 -33.3433 9.63673 
-34.5337 -36.7465 9.63673 -26.4158 -37.5699 9.63673 -18.2978 -36.297 9.63673 
-10.1799 -34.7325 9.63673 -2.06195 -34.085 9.63673 6.056 -35.0192 9.63673 
14.1739 -35.8164 9.63673 22.2919 -36.0632 9.63673 30.4098 -34.9761 9.63673 
38.5278 -33.5193 9.63673 -44.4958 -31.8384 9.63673 -42.6517 -31.8384 11.0914 
-34.5337 -31.8384 14.5968 -26.4158 -31.8384 15.9114 -18.2978 -31.8384 14.7793 
-10.1799 -31.8384 13.2229 -2.06195 -31.8384 12.8197 6.056 -31.8384 14.5405 
14.1739 -31.8384 16.5574 42.8349 -31.8384 9.63673 38.5278 -31.8384 14.3764 
46.6457 -30.1575 9.63673 54.7637 -25.8254 9.63673 -50.3829 -23.7204 9.63673 
-42.6517 -23.7204 14.2218 -34.5337 -23.7204 17.7541 57.3357 -23.7204 9.63673 
54.7637 -23.7204 13.5528 62.8816 -18.1356 9.63673 -50.5575 -15.6025 9.63673 
-42.6517 -15.6025 13.4284 -34.5337 -15.6025 17.686 64.7037 -15.6025 9.63673 
62.8816 -15.6025 12.6704 -47.5073 -7.48452 9.63673 -42.6517 0.264671 9.63673 
-42.6517 -7.48452 11.66 -34.5337 -7.48452 14.5572 -26.4158 -7.48452 16.9964 
[...]
POINT_DATA 528
SCALARS ImageScalars float
LOOKUP_TABLE default
0 0 0 0 0 0 0 0 0 
0 0 0 0 0 0 0 0 0 
0 0 0 0 0 0 0 0 0 
0 0 0 0 0 0 0 0 0 
0 0 0 0 0 0 0 0 0 
0 0 0 0 0 0 0 0 0 
0 0 0 0 0 0 0 0 0 
0 0 0 0 0 0 0 0 0 
0 0 0 0 0 0 0 0 0 
0 0 0 0 0 0 0 0 0 
0 0 0 0 0 0 0 0 0 
0 0 0 0 0 0 0 0 0 
0 0 0 0 0 0 0 0 0 
0 0 0 0 0 0 0 0 0 
0 0 0 0 0 0 0 0 0 
0 0 0 0 0 0 0 0 0 
0 0 0 0 0 0 0 0 0 
0 0 0 0 0 0 0 0 0 
0 0 0 0 0 0 0 0 0 
0 0 0 0 0 0 0 0 0 
0 0 0 0 0 0 0 0 0 
0 0 0 0 0 0 0 0 0 
0 0 0 0 0 0 0 0 0 
0 0 0 0 0 0 0 0 0 
0 0 0 0 0 0 0 0 0 
0 0 0 0 0 0 0 0 0 
0 0 0 0 0 0 0 0 0 
0 0 0 0 0 0 0 0 0 
0 0 0 0 0 0 0 0 0 
0 0 0 0 0 0 0 0 0 
0 0 0 0 0 0 0 0 0 
0 0 0 0 0 0 0 0 0 
0 0 0 0 0 0 0 0 0 
0 0 0 0 0 0 0 0 0 
0 0 0 0 0 0 0 0 0 
0 0 0 0 0 0 0 0 0 
0 0 0 0 0 0 0 0 0 
0 0 0 0 0 0 0 0 0 
0 0 0 0 0 0 0 0 0 
0 0 0 0 0 0 0 0 0 
0 0 0 0 0 0 0 0 0 
0 0 0 0 0 0 0 0 0 
0 0 0 0 0 0 0 0 0 
0 0 0 0 0 0 0 0 0 
0 0 0 0 0 0 0 0 0 
0 0 0 0 0 0 0 0 0 
0 0 0 0 0 0 0 0 0 
0 0 0 0 0 0 0 0 0 
0 0 0 0 0 0 0 0 0 
0 0 0 0 0 0 0 0 0 
0 0 0 0 0 0 0 0 0 
0 0 0 0 0 0 0 0 0 
0 0 0 0 0 0 0 0 0 
0 0 0 0 0 0 0 0 0 
0 0 0 0 0 0 0 0 0 
0 0 0 0 0 0 0 0 0 
0 0 0 0 0 0 0 0 0 
0 0 0 0 0 0 0 0 0 
0 0 0 0 0 0 
NORMALS Normals float
0.027499 0.00067517 0.999622 0.211597 0.543911 0.812027 0.0075042 0.50283 0.864353 
-0.183783 0.545593 0.81765 0.330833 0.271883 0.903675 0.0987958 0.296056 0.950047 
0.0168743 0.185131 0.982569 -0.0878235 0.134343 0.987035 -0.256082 0.238832 0.936687 
0.477184 0.365613 0.799139 0.259469 0.115537 0.958815 0.118587 0.0204713 0.992733 
-0.130726 0.0411546 0.990564 -0.132978 -0.0948004 0.986575 -0.0949335 -0.0701938 0.993006 
-0.0492971 0.214192 0.975547 0.0240508 0.32372 0.945847 -0.0376968 0.461719 0.886225 
-0.00454688 0.426138 0.904647 0.0993174 0.355555 0.929364 0.00547581 0.328389 0.944527 
-0.124032 0.35954 0.92485 -0.289749 0.409221 0.865207 0.369128 0.0919888 0.924815 
0.0189037 0.151612 0.988259 0.00904464 -0.0680697 0.99764 -0.112581 -0.04311 0.992707 
-0.198785 -0.0824221 0.976571 0.0340134 -0.14586 0.98872 0.0294003 0.0120881 0.999495 
0.105915 0.285914 0.952384 0.0551238 -0.0896546 0.994446 0.0815143 0.12088 0.989315 
-0.0469072 0.0679285 0.996587 0.0188701 0.0164038 0.999687 0.0333214 0.0472653 0.998326 
-0.0605933 0.117407 0.991234 -0.208956 0.149693 0.9664 -0.414709 0.1982 0.888106 
0.368853 0.0375005 0.928731 0.140123 0.0489319 0.988924 -0.0629509 0.0334075 0.997457 
-0.145363 0.0344964 0.988777 -0.20227 0.0359847 0.978668 0.0334339 0.00135901 0.99944 
0.0951363 0.0527879 0.994064 0.023616 -0.000430769 0.999721 0.0265559 -0.00862355 0.99961 
0.0879494 0.00332077 0.996119 -0.107311 -0.129173 0.985799 0.0931864 -0.0698573 0.993195 
0.104017 -0.0303116 0.994114 -0.0249956 -0.0283223 0.999286 -0.218542 -0.0223078 0.975572 
-0.414995 -0.0283825 0.909381 0.362888 0.0329679 0.931249 -0.00911024 -0.0990111 0.995045 
-0.00438055 0.0295323 0.999554 -0.10808 0.0773469 0.991129 -0.190927 0.12613 0.973467 
0.00700679 0.175254 0.984498 0.0132149 -0.190734 0.981553 0.051365 0.138384 0.989046 
-0.00290891 -0.10649 0.99431 -0.106547 0.0263244 0.993959 0.1036 0.0274788 0.994239 
0.0746108 -0.0222157 0.996965 -0.0530537 -0.109259 0.992597 -0.210101 -0.14994 0.966114 
0.489889 -0.368626 0.790015 0.176751 -0.14125 0.974068 0.0946343 0.0277537 0.995125 
-0.0437888 0.0253418 0.998719 -0.122147 0.140742 0.982482 -0.0721769 0.179261 0.98115 
-0.0415863 0.0246929 0.99883 -0.00583371 0.0855368 0.996318 -0.0169097 -0.0816278 0.996519 
0.00204509 0.00590677 0.99998 0.058113 -0.0447105 0.997308 -0.0313299 -0.169615 0.985012 
-0.153215 -0.255736 0.954528 -0.331599 -0.371129 0.867355 0.376049 -0.230885 0.897374 
0.177191 -0.148559 0.9729 0.0107414 -0.0540039 0.998483 -0.0370679 -0.0101551 0.999261 
-0.0902806 0.0426542 0.995003 -0.0895972 0.0106686 0.995921 -0.0691908 -0.0662025 0.995404 
-0.0813628 -0.162152 0.983406 -0.0840038 -0.2411 0.966858 -0.0845578 -0.402676 0.911428 
-0.148355 -0.563978 0.812354 0.277925 -0.451672 0.847791 0.078138 -0.346903 0.93464 
-0.0206501 -0.269677 0.962729 -0.0499267 -0.262989 0.963506 -0.151298 -0.33539 0.929851 
-0.191258 -0.468569 0.862475 0.00313154 -0.724493 0.689275 0.219592 0.601429 0.768155 
0.00399057 0.622374 0.78271 -0.188911 0.595438 0.780875 0.282507 0.588547 0.757498 
0.396448 0.494903 0.77324 0.50806 0.739377 0.441811 -0.222661 0.573644 0.788261 
-0.277862 0.472597 0.836328 -0.297651 0.649981 0.699235 -0.298633 0.720403 0.625969 
0.502095 0.360252 0.786205 0.518324 0.371936 0.770068 0.782181 0.494852 0.378569 
-0.30448 0.353456 0.884511 -0.290466 0.347922 0.891392 -0.307637 0.363929 0.879156 
-0.0826526 0.417036 0.905124 -0.171539 0.505958 0.845329 -0.0339731 0.524589 0.850677 
-0.0582241 0.537258 0.841406 0.0192071 0.487697 0.872802 0.0180787 0.593815 0.804398 
0.105777 0.512663 0.852049 0.0713894 0.657553 0.750018 0.00836859 0.559333 0.828901 
-0.00726957 0.692733 0.721158 -0.132705 0.539153 0.831687 -0.124361 0.727742 0.674482 
-0.294196 0.470318 0.832016 -0.288638 0.735711 0.612714 0.533246 0.36733 0.762048 
-0.345651 0.423631 0.837295 -0.424842 0.239666 0.872966 -0.477082 0.472734 0.740888 
0.734659 0.160537 0.659169 0.0425227 -0.0195681 0.998904 -0.439169 0.203232 0.875116 
-0.704198 0.221298 0.674635 0.715387 0.0564281 0.696446 0.991656 0.0526648 0.117663 
0.0356068 -0.0091494 0.999324 0.0439818 -0.00932659 0.998989 0.0416434 0.0088223 0.999094 
0.0338665 -0.00433866 0.999417 -0.458544 -0.0289063 0.888201 -0.425279 -0.216081 0.878889 
-0.713782 -0.0377716 0.699349 0.799066 -0.0645549 0.597768 -0.421721 -0.226781 0.877907 
-0.426507 -0.228768 0.875076 -0.72926 -0.27866 0.624922 0.672746 -0.417544 0.610794 
0.67175 -0.454822 0.584712 -0.253755 -0.559172 0.789262 -0.388548 -0.396437 0.831786 
-0.355359 -0.4452 0.821899 -0.537791 -0.505915 0.674412 0.671972 -0.439412 0.59613 
0.827434 -0.561334 -0.0160413 0.569845 -0.641029 0.514157 -0.186033 -0.593164 0.783293 
-0.17692 -0.502387 0.846349 -0.143241 -0.55892 0.816756 -0.212455 -0.609407 0.763862 
-0.162633 -0.616781 0.770151 -0.274064 -0.683035 0.677017 -0.385063 -0.783122 0.488309 
0.541168 -0.673374 0.503691 0.665842 -0.735201 0.127017 0.384958 -0.704913 0.595739 
0.207782 -0.74084 0.638735 -0.168857 -0.703578 0.690265 -0.222438 -0.646588 0.729689 
-0.186441 -0.593854 0.782673 -0.213576 -0.600175 0.770827 -0.186636 -0.595397 0.781453 
-0.266927 -0.780672 0.565068 0.146872 -0.756681 0.637073 0.224606 -0.800705 0.555359 
-0.116141 -0.736146 0.666784 0.00215543 -0.763399 0.645924 -0.174961 -0.76279 0.622527 
-0.271949 -0.915296 0.297115 0.540586 0.827304 0.152754 0.271154 0.934983 0.228654 
0.0469735 0.96542 0.256432 -0.150212 0.937878 0.312763 -0.0867064 0.994728 -0.0547618 
-0.303827 0.862279 0.405171 -0.265528 0.814029 0.516577 0.631326 0.760196 0.153394 
0.796341 0.599424 0.0808184 -0.126993 0.707676 0.69503 -0.120921 0.701325 0.702511 
-0.119638 0.710423 0.693532 -0.0888729 0.685648 0.722488 -0.0871095 0.734371 0.673136 
-0.0951002 0.671725 0.734671 -0.125866 0.77731 0.616398 -0.0482181 0.751981 0.657419 
-0.104495 0.850966 0.514721 -0.0501897 0.818 0.573025 -0.0879563 0.89797 0.431177 
-0.128839 0.81111 0.570527 -0.219944 0.907961 0.356694 -0.287409 0.803835 0.520812 
0.865566 0.498146 0.0514442 0.857536 0.416999 -0.301238 -0.404475 0.749652 0.523854 
-0.497449 0.680037 0.538604 -0.526045 0.773848 0.352755 0.943566 0.330121 0.0265198 
-0.677205 0.489905 0.548987 -0.733532 0.387215 0.558565 -0.754474 0.513073 0.409298 
0.978025 0.20343 -0.0456511 0.992797 0.117421 -0.0237922 -0.76922 0.23606 0.593781 
0.999037 0.0396974 -0.0186642 0.959603 -0.188836 -0.208572 0.987066 0.0126605 -0.159811 
-0.807679 -0.0451182 0.587894 0.957624 -0.194055 -0.212837 0.536694 -0.066312 -0.841167 
-0.770378 -0.29051 0.567558 -0.746027 -0.371661 0.55255 0.876365 -0.442818 -0.189464 
-0.656972 -0.542791 0.523226 -0.559038 -0.671492 0.48639 -0.762622 -0.594433 0.255064 
0.82142 -0.557494 -0.12029 0.813701 -0.568274 -0.122289 0.805896 -0.566206 -0.173037 
0.484996 -0.376829 -0.789163 -0.275791 -0.929586 0.24456 -0.227899 -0.922183 0.312476 
-0.261789 -0.889516 0.374469 -0.44095 -0.799614 0.407652 -0.370673 -0.847179 0.380643 
0.689156 -0.711206 -0.138744 0.679798 -0.72221 -0.127622 0.674142 -0.691414 -0.259768 
0.473571 -0.876123 -0.0902115 0.414365 -0.530798 -0.739294 -0.257898 -0.948835 0.182209 
-0.261976 -0.937105 0.230657 -0.277499 -0.929823 0.241708 -0.308761 -0.920095 0.241022 
-0.268639 -0.94456 0.188784 0.444155 -0.891826 -0.0858591 0.220486 -0.971541 -0.0865706 
0.270924 -0.871755 -0.408219 0.0620561 -0.998045 -0.00747206 -0.128228 -0.990096 0.0571533 
-0.262658 -0.954333 0.142336 -0.271252 -0.955922 0.112408 -0.139999 -0.922303 -0.360219 
-0.0813662 0.993204 -0.0832176 0.556074 0.742187 -0.374087 0.369523 0.893914 -0.253714 
-0.0477008 0.994684 -0.091255 0.117011 0.984536 -0.13037 -0.0853775 0.99304 -0.0811363 
-0.0802972 0.992512 -0.0920407 -0.20124 0.979354 -0.0191847 -0.150003 0.987619 0.0459059 
-0.0515169 0.994819 0.0876453 -0.0386829 0.984367 0.171827 -0.0971534 0.948362 0.301945 
-0.115413 0.916328 0.383435 -0.109161 0.926581 0.359904 -0.232226 0.923331 0.305829 
0.596938 0.700723 -0.390707 0.575034 0.685167 -0.447081 -0.259847 0.919469 0.295052 
-0.349455 0.906719 0.236097 -0.530536 0.824391 0.197258 0.798186 0.325031 -0.507202 
0.74396 0.262959 -0.614309 0.559312 0.235032 -0.794941 -0.580032 0.792274 0.189381 
-0.748249 0.64291 0.163674 0.714442 0.221959 -0.663556 0.638831 0.184985 -0.746777 
0.529082 -0.0568389 -0.846665 -0.826673 0.540562 0.156218 0.701441 0.0236325 -0.712335 
0.570524 0.0312673 -0.820686 0.345255 -0.147639 -0.926823 -0.946714 0.269372 0.176552 
0.591475 -0.132328 -0.795391 0.51114 -0.0728051 -0.856408 0.490577 -0.145026 -0.859245 
0.323503 -0.178278 -0.929281 0.248918 -0.161488 -0.954967 -0.984306 -0.0611171 0.165546 
0.500213 -0.0618586 -0.86369 0.550065 -0.107208 -0.828212 0.356539 -0.106773 -0.928159 
0.234356 -0.171799 -0.95685 0.101515 -0.189998 -0.976522 -0.928862 -0.335379 0.157281 
0.607722 -0.182356 -0.77293 0.582784 -0.219415 -0.782445 0.577109 -0.178409 -0.796941 
0.41822 -0.338525 -0.842907 0.329179 -0.241593 -0.912838 0.189246 -0.2188 -0.957242 
0.171063 -0.087835 -0.981337 0.207683 -0.0589429 -0.976419 -0.528217 -0.840211 0.122606 
-0.784989 -0.604379 0.136079 -0.750012 -0.647389 0.135534 0.433567 -0.333253 -0.837235 
0.394389 -0.491435 -0.776498 0.353255 -0.254549 -0.900231 0.267247 -0.209609 -0.940555 
0.210403 -0.0953057 -0.972958 -0.154032 -0.985641 0.0691775 -0.227629 -0.969725 0.0884196 
-0.50682 -0.854357 0.114929 -0.348788 -0.93354 0.0827596 0.38523 -0.505745 -0.771894 
0.30144 -0.621477 -0.723118 0.301644 -0.408077 -0.861675 0.259558 -0.373293 -0.890664 
0.150453 -0.420886 -0.894549 -0.137575 -0.919968 -0.367058 -0.167622 -0.948698 -0.268097 
-0.213946 -0.956622 -0.19774 -0.268349 -0.955843 -0.1198 -0.204099 -0.978734 0.0205823 
-0.237593 -0.97128 -0.0128715 -0.13915 -0.966696 -0.214793 0.199732 -0.759832 -0.618677 
0.184741 -0.772154 -0.607988 0.186055 -0.756174 -0.627364 -0.13545 -0.918962 -0.370354 
-0.0271893 -0.850772 -0.52483 -0.00501662 -0.815079 -0.579327 0.477603 0.601578 -0.640311 
0.210662 0.833326 -0.511066 -0.0282904 0.874331 -0.484505 -0.157099 0.872349 -0.462954 
-0.12698 0.877349 -0.462747 0.0197571 0.902596 -0.430034 0.104831 0.936069 -0.335836 
0.0635944 0.976772 -0.204625 -0.0524498 0.993711 -0.0989354 -0.157657 0.986192 -0.0506979 
-0.269239 0.958193 -0.0968359 0.528792 0.536987 -0.657285 0.488949 0.531198 -0.691923 
0.245915 0.519725 -0.818176 0.0139497 0.57997 -0.814518 -0.131225 0.662129 -0.737811 
-0.0958372 0.742809 -0.662608 0.0499684 0.810287 -0.583899 0.147206 0.783915 -0.603164 
0.133475 0.725281 -0.67539 -0.336623 0.93707 -0.092655 -0.265094 0.88064 -0.392681 
-0.410125 0.906783 -0.0976888 -0.567511 0.801815 -0.187147 0.550125 0.227313 -0.80355 
0.469502 0.108714 -0.876213 0.286011 0.161193 -0.944571 -0.617758 0.762992 -0.190314 
-0.570908 0.713773 -0.4057 -0.771558 0.583788 -0.252765 0.525033 -0.0592817 -0.849015 
0.454761 -0.134201 -0.880445 0.338553 -0.165767 -0.926231 -0.821592 0.506474 -0.261667 
-0.753941 0.495662 -0.431152 0.316187 -0.18578 -0.930329 0.251769 -0.163838 -0.953818 
0.330611 -0.226352 -0.916221 0.279868 -0.344449 -0.896119 0.183765 -0.35852 -0.915256 
-0.91151 0.260561 -0.31821 0.244605 -0.165294 -0.95543 0.105234 -0.195617 -0.975018 
0.172779 -0.273368 -0.946265 0.225492 -0.371511 -0.900629 0.3076 -0.330895 -0.892127 
-0.946611 -0.068298 -0.315059 0.111403 -0.184861 -0.97643 0.200378 -0.0738326 -0.976933 
0.161708 -0.165069 -0.972935 0.298376 -0.215958 -0.929696 0.279334 -0.264599 -0.923017 
0.373729 -0.120375 -0.919694 -0.894376 -0.338955 -0.291892 -0.621061 -0.308687 -0.720414 
0.210136 -0.0574631 -0.975982 0.245166 -0.0472665 -0.968328 0.236304 -0.110824 -0.965338 
0.270316 -0.207103 -0.940233 -0.523349 -0.812832 -0.255755 -0.761188 -0.579212 -0.29173 
-0.75053 -0.592994 -0.291656 -0.750089 -0.579796 -0.318123 0.210788 -0.0978516 -0.972622 
0.161991 -0.379682 -0.910824 0.22718 -0.128274 -0.965368 0.155843 -0.18447 -0.970404 
0.132337 -0.271376 -0.953332 0.15003 -0.371567 -0.916204 0.168395 -0.394228 -0.903453 
-0.0781365 -0.939296 -0.334093 -0.109947 -0.962054 -0.249726 -0.237359 -0.943821 -0.229917 
-0.482577 -0.841798 -0.24186 -0.356906 -0.908807 -0.216075 -0.332622 -0.765255 -0.551132 
0.134226 -0.43538 -0.890184 0.0673472 -0.539839 -0.83907 0.0821566 -0.487334 -0.869342 
-0.00625391 -0.649532 -0.760308 0.0181378 -0.582007 -0.812981 -0.0535038 -0.748834 -0.660595 
-0.0250738 -0.697968 -0.71569 -0.0825073 -0.90923 -0.408036 -0.087493 -0.858193 -0.505816 
-0.0719431 -0.840707 -0.536689 0.0588122 0.722573 -0.688789 -0.0972874 0.779807 -0.618414 
0.0433804 0.365584 -0.929767 -0.0969982 0.345593 -0.933358 0.00768173 0.300745 -0.953674 
0.113841 0.503674 -0.85636 0.140118 0.54063 -0.829509 0.0752321 0.708739 -0.701448 
0.142215 0.606209 -0.782487 0.0601339 0.714192 -0.697362 -0.121348 0.774816 -0.620431 
-0.0952748 0.765714 -0.636086 -0.233837 0.723307 -0.649728 -0.371696 0.68509 -0.626494 
0.285936 0.161198 -0.944593 0.0649016 0.162867 -0.984511 -0.0770184 0.217255 -0.973072 
0.0155799 0.265586 -0.963961 0.125532 0.413788 -0.901677 0.105904 0.3309 -0.937704 
0.153465 0.265907 -0.951705 0.098182 0.31501 -0.943996 -0.0238984 0.325158 -0.945358 
-0.1645 0.437204 -0.88419 -0.441119 0.60966 -0.658581 -0.348276 0.559361 -0.75221 
-0.5294 0.490382 -0.692286 0.328997 -0.164664 -0.929864 0.151448 -0.287978 -0.945586 
0.0909699 -0.133585 -0.986853 -0.0188569 -0.0627679 -0.99785 0.139491 -0.00607931 -0.990205 
0.176266 0.151854 -0.972559 0.0217185 0.0706561 -0.997264 0.124116 0.0541577 -0.990789 
0.13766 0.0123333 -0.990403 0.0204667 0.079103 -0.996656 -0.0451674 0.113081 -0.992559 
-0.200032 0.222942 -0.954088 -0.570755 0.390731 -0.722197 -0.494476 0.352999 -0.794283 
-0.63685 0.251977 -0.728649 0.0743606 -0.209593 -0.974957 0.073347 -0.188086 -0.97941 
0.0483086 -0.171278 -0.984038 0.231404 -0.0502896 -0.971557 0.19267 -0.214691 -0.957489 
0.013814 -0.0350287 -0.999291 0.106591 -0.0685918 -0.991934 0.128637 -0.121441 -0.984228 
0.0852882 -0.0679273 -0.994038 0.0133153 -0.00557647 -0.999896 -0.0952486 0.0286914 -0.99504 
-0.356474 0.144872 -0.923005 -0.654854 0.203153 -0.727939 -0.624886 0.203212 -0.753805 
0.121922 -0.192755 -0.973643 0.106946 -0.175817 -0.978596 0.0858576 -0.163357 -0.982824 
0.245893 -0.212684 -0.945675 0.188894 -0.250645 -0.949471 0.17062 -0.0302406 -0.984873 
0.038859 -0.17093 -0.984517 0.135828 -0.145686 -0.979962 0.138838 -0.118087 -0.983249 
0.0500983 -0.0892925 -0.994745 -0.0736849 -0.0783413 -0.9942 -0.34006 -0.0728375 -0.937579 
-0.652099 -0.0589631 -0.755838 -0.610968 -0.202474 -0.765325 -0.616351 -0.0624283 -0.784993 
0.367084 -0.122143 -0.922134 0.0669097 -0.176382 -0.982045 -0.0200085 -0.137687 -0.990274 
0.183653 -0.106771 -0.977175 0.140958 -0.105522 -0.984376 0.0525529 -0.110284 -0.99251 
-0.0849047 -0.170406 -0.981709 -0.56372 -0.29513 -0.771439 -0.337382 -0.251174 -0.90724 
0.179325 -0.307233 -0.934586 0.163853 -0.322505 -0.932278 0.160952 -0.318953 -0.934004 
0.148246 -0.256885 -0.955004 0.115348 -0.135162 -0.984086 0.166892 -0.130736 -0.977269 
0.125804 -0.177986 -0.975958 -0.0125539 -0.271608 -0.962326 -0.290297 -0.624588 -0.724995 
-0.206386 -0.333253 -0.919972 -0.475419 -0.459031 -0.750511 -0.461135 -0.474721 -0.749663 
-0.451286 -0.451987 -0.769447 0.141898 -0.402996 -0.904135 0.102637 -0.478168 -0.87225 
0.115571 -0.419513 -0.900362 -0.011973 -0.600819 -0.799296 -0.000436659 -0.524207 -0.851591 
-0.193962 -0.635596 -0.74726 -0.136202 -0.625455 -0.76828 -0.128471 -0.588936 -0.797903 

