# vtk DataFile Version 4.2
vtk output
ASCII
DATASET POLYDATA
POINTS 572 float
-13.8764 -34.6833 -20.2182 -5.33664 -34.6833 -19.87 28.8223 -34.6833 -19.9746 
28.8223 -26.1436 -20.3102 37.362 -26.1436 -20.8309 54.4414 -17.6039 -20.4065 
-48.0352 -9.06413 -19.9941 -48.0352 -0.524413 -20.4488 -39.4955 -43.223 -11.5639 
-30.9558 -43.223 -14.4219 -22.4161 -43.223 -17.1278 -13.8764 -36.4017 -19.8683 
-13.8764 -43.223 -18.2143 -5.33664 -34.6917 -19.8683 -5.33664 -43.223 -17.7265 
3.20309 -43.223 -16.729 11.7428 -43.223 -16.0632 20.2825 -43.223 -15.4876 
28.8223 -34.9142 -19.8683 28.8223 -43.223 -14.4829 37.362 -43.223 -12.5927 
-48.0352 -34.6833 -13.3305 -39.4955 -34.6833 -15.8707 -30.9558 -34.6833 -18.7466 
-16.5865 -34.6833 -19.8683 -22.4161 -34.6833 -19.1229 -13.8764 -26.7155 -19.8683 
-5.32156 -34.6833 -19.8683 -5.33664 -34.6665 -19.8683 3.20309 -34.6833 -18.8601 
11.7428 -34.6833 -18.6804 27.8807 -34.6833 -19.8683 20.2825 -34.6833 -18.8618 
29.3602 -34.6833 -19.8683 37.362 -29.5088 -19.8683 37.362 -34.6833 -18.0745 
45.9017 -34.6833 -16.0473 54.4414 -34.6833 -11.3482 -56.575 -26.1436 -13.3638 
-48.0352 -26.1436 -17.2948 -39.4955 -26.1436 -18.3172 -30.9558 -26.1436 -18.8276 
-22.4161 -26.1436 -19.4207 -13.8764 -26.1436 -19.844 -5.33664 -26.1436 -18.9982 
3.20309 -26.1436 -18.628 11.7428 -26.1436 -18.9934 22.339 -26.1436 -19.8683 
20.2825 -26.1436 -19.7294 28.8223 -22.436 -19.8683 41.0778 -26.1436 -19.8683 
37.362 -19.6731 -19.8683 45.9017 -26.1436 -18.5287 54.4414 -19.2281 -19.8683 
54.4414 -26.1436 -15.8147 -56.575 -17.6039 -16.3318 -48.0352 -9.72137 -19.8683 
-48.0352 -17.6039 -18.3509 -39.4955 -17.6039 -18.837 -30.9558 -17.6039 -19.1781 
-22.4161 -17.6039 -18.3549 -13.8764 -17.6039 -18.0001 -5.33664 -17.6039 -17.4702 
3.20309 -17.6039 -16.9919 11.7428 -17.6039 -18.1863 20.2825 -17.6039 -18.8686 
28.8223 -17.6039 -19.3011 37.362 -17.6039 -19.4976 48.3109 -17.6039 -19.8683 
45.9017 -17.6039 -19.576 55.4601 -17.6039 -19.8683 54.4414 -15.1859 -19.8683 
62.9811 -17.6039 -14.5998 -65.1147 -9.06413 -14.3058 -48.4773 -9.06413 -19.8683 
-56.575 -9.06413 -17.7119 -45.713 -9.06413 -19.8683 -39.4955 -9.06413 -19.5444 
-30.9558 -9.06413 -18.6657 -22.4161 -9.06413 -16.9614 -13.8764 -9.06413 -15.7474 
-5.33664 -9.06413 -18.0608 3.20309 -9.06413 -17.6188 11.7428 -9.06413 -17.1873 
20.2825 -9.06413 -16.9112 28.8223 -9.06413 -18.2111 37.362 -9.06413 -19.1845 
45.9017 -9.06413 -19.8248 54.4414 -9.06413 -18.0259 62.9811 -9.06413 -15.9123 
-65.1147 -0.524413 -15.7643 -50.075 -0.524413 -19.8683 -56.575 -0.524413 -18.2709 
-40.1637 -0.524413 -19.8683 -48.0352 3.20851 -19.8683 -39.4955 -0.524413 -19.821 
-30.9558 -0.524413 -18.6818 -22.4161 -0.524413 -17.0059 -13.8764 -0.524413 -17.0732 
-5.33664 -0.524413 -17.9764 3.20309 -0.524413 -15.8071 11.7428 -0.524413 -18.5309 
20.2825 -0.524413 -16.1858 28.8223 -0.524413 -17.6143 37.362 -0.524413 -18.6946 
45.9017 -0.524413 -19.1666 54.4414 -0.524413 -17.8407 62.9811 -0.524413 -14.9479 
-65.1147 8.01531 -14.3652 -56.575 8.01531 -18.8299 -48.0352 8.01531 -19.1209 
-39.4955 8.01531 -18.9924 -30.9558 8.01531 -17.729 -22.4161 8.01531 -16.3313 
-13.8764 8.01531 -16.4464 -5.33664 8.01531 -18.4615 3.20309 8.01531 -17.1964 
11.7428 8.01531 -18.4304 20.2825 8.01531 -16.7183 28.8223 8.01531 -17.2695 
37.362 8.01531 -17.8389 45.9017 8.01531 -17.6467 54.4414 8.01531 -16.8146 
62.9811 8.01531 -14.3743 -56.575 16.555 -14.7165 -48.0352 16.555 -16.5605 
-39.4955 16.555 -17.2225 -30.9558 16.555 -16.6977 -22.4161 16.555 -15.8075 
-13.8764 16.555 -16.2435 -5.33664 16.555 -17.5267 3.20309 16.555 -16.569 
11.7428 16.555 -16.5089 20.2825 16.555 -16.7632 28.8223 16.555 -16.8988 
37.362 16.555 -16.9808 45.9017 16.555 -15.8986 54.4414 16.555 -14.0057 
-56.575 25.0948 -11.7283 -48.0352 25.0948 -13.5977 -39.4955 25.0948 -14.7824 
-30.9558 25.0948 -15.3963 -22.4161 25.0948 -15.4893 -13.8764 25.0948 -16.1993 
-5.33664 25.0948 -16.649 3.20309 25.0948 -16.5222 11.7428 25.0948 -16.4294 
20.2825 25.0948 -16.5367 28.8223 25.0948 -16.162 37.362 25.0948 -14.6806 
45.9017 25.0948 -13.1397 -30.9558 33.6345 -13.2252 -22.4161 33.6345 -13.7342 
-13.8764 33.6345 -14.6805 -5.33664 33.6345 -15.1596 3.20309 33.6345 -15.2451 
11.7428 33.6345 -15.5585 20.2825 33.6345 -15.3076 28.8223 33.6345 -14.2126 
37.362 33.6345 -12.1679 -5.33664 42.1742 -11.6661 3.20309 42.1742 -11.9309 
11.7428 42.1742 -11.9096 -39.4955 -43.4224 -11.3286 -30.9558 -46.6268 -11.3286 
-22.4161 -49.5458 -11.3286 -13.8764 -50.4524 -11.3286 -5.33664 -50.3432 -11.3286 
3.20309 -49.1838 -11.3286 11.7428 -48.796 -11.3286 20.2825 -47.8709 -11.3286 
28.8223 -46.4312 -11.3286 37.362 -44.1907 -11.3286 -39.8034 -43.223 -11.3286 
-48.0352 -36.96 -11.3286 39.9207 -43.223 -11.3286 45.9017 -40.1136 -11.3286 
54.4414 -34.7022 -11.3286 -50.6739 -34.6833 -11.3286 -56.575 -28.9584 -11.3286 
54.465 -34.6833 -11.3286 -59.1423 -26.1436 -11.3286 61.8923 -26.1436 -11.3286 
62.9811 -25.0284 -11.3286 62.9811 -26.1436 -9.39733 -64.6131 -17.6039 -11.3286 
-65.1147 -16.9196 -11.3286 -65.1147 -17.6039 -10.7037 67.3547 -17.6039 -11.3286 
71.5209 -17.6039 -3.12711 -68.4983 -9.06413 -11.3286 70.8078 -9.06413 -11.3286 
71.5209 -9.06413 -10.593 -70.4314 -0.524413 -11.3286 -73.6544 -0.524413 -5.25886 
69.3356 -0.524413 -11.3286 71.5209 -0.524413 -9.54431 -68.863 8.01531 -11.3286 
-73.6544 8.01531 -2.88438 -65.1147 16.2029 -11.3286 68.3206 8.01531 -11.3286 
62.9811 15.6152 -11.3286 71.5209 8.01531 -7.80201 -64.7239 16.555 -11.3286 
-65.1147 16.555 -11.1154 61.8248 16.555 -11.3286 54.4414 23.5386 -11.3286 
62.9811 16.555 -10.741 -57.2346 25.0948 -11.3286 -65.1147 25.0948 -3.9597 
-56.575 25.6537 -11.3286 -48.0352 30.2598 -11.3286 -39.4955 33.2733 -11.3286 
52.2586 25.0948 -11.3286 45.9017 29.3667 -11.3286 54.4414 25.0948 -10.477 
62.9811 25.0948 -3.37016 -56.575 33.6345 -3.02753 -48.0352 33.6345 -9.53001 
-38.8886 33.6345 -11.3286 -39.4955 33.6345 -11.1558 -30.9558 38.03 -11.3286 
-22.4161 39.1629 -11.3286 -13.8764 41.7099 -11.3286 20.2825 41.7913 -11.3286 
28.8223 40.1579 -11.3286 39.9498 33.6345 -11.3286 37.362 34.9484 -11.3286 
45.9017 33.6345 -9.15272 -39.4955 42.1742 -4.78959 -30.9558 42.1742 -8.75538 
-22.4161 42.1742 -9.71591 -10.5709 42.1742 -11.3286 -13.8764 42.1742 -11.0755 
-5.33664 42.6331 -11.3286 3.20309 42.973 -11.3286 18.1611 42.1742 -11.3286 
11.7428 42.8841 -11.3286 20.2825 42.1742 -11.0712 28.8223 42.1742 -9.76427 
37.362 42.1742 -5.10902 -39.4955 -45.2638 -2.7889 -30.9558 -48.6734 -2.7889 
-22.4161 -50.4939 -2.7889 -13.8764 -51.2663 -2.7889 -5.33664 -51.3649 -2.7889 
3.20309 -50.9062 -2.7889 11.7428 -49.8183 -2.7889 20.2825 -49.0672 -2.7889 
28.8223 -47.7044 -2.7889 37.362 -45.3039 -2.7889 -43.2634 -43.223 -2.7889 
-48.0352 -40.3018 -2.7889 -39.4955 -43.223 3.98163 20.2825 -43.223 5.29715 
28.8223 -43.223 5.01119 41.8982 -43.223 -2.7889 37.362 -43.223 0.85924 
45.9017 -40.7604 -2.7889 54.4414 -35.8325 -2.7889 -55.0708 -34.6833 -2.7889 
-56.575 -33.2727 -2.7889 56.0016 -34.6833 -2.7889 54.4414 -34.6833 -0.91949 
62.9811 -28.556 -2.7889 -63.221 -26.1436 -2.7889 -65.1147 -23.4856 -2.7889 
65.3078 -26.1436 -2.7889 62.9811 -26.1436 0.968611 71.5209 -17.8415 -2.7889 
-68.8118 -17.6039 -2.7889 71.6641 -17.6039 -2.7889 71.5209 -17.6039 -2.38459 
-72.4121 -9.06413 -2.7889 -73.6544 -4.60773 -2.7889 75.5534 -9.06413 -2.7889 
-74.7927 -0.524413 -2.7889 -73.6544 -0.524413 4.43662 75.7432 -0.524413 -2.7889 
-73.7001 8.01531 -2.7889 -73.6544 8.23002 -2.7889 -73.6544 8.01531 -2.32197 
74.9639 8.01531 -2.7889 71.5209 14.4101 -2.7889 -71.5177 16.555 -2.7889 
70.2753 16.555 -2.7889 -65.9542 25.0948 -2.7889 -65.1147 26.0652 -2.7889 
54.4414 33.3443 -2.7889 63.5064 25.0948 -2.7889 62.9811 25.6635 -2.7889 
-56.8053 33.6345 -2.7889 -56.575 33.8401 -2.7889 -48.0352 39.2415 -2.7889 
54.1342 33.6345 -2.7889 45.9017 39.3552 -2.7889 54.4414 33.6345 -1.98445 
-42.4001 42.1742 -2.7889 -39.4955 43.585 -2.7889 -30.9558 46.8678 -2.7889 
-22.4161 48.432 -2.7889 -13.8764 49.3075 -2.7889 -5.33664 49.4672 -2.7889 
3.20309 49.1922 -2.7889 11.7428 48.5498 -2.7889 20.2825 47.913 -2.7889 
28.8223 46.4939 -2.7889 40.6267 42.1742 -2.7889 37.362 43.839 -2.7889 
-30.9558 -44.9076 5.75082 -22.4161 -45.8828 5.75082 -13.8764 -46.037 5.75082 
-5.33664 -45.5321 5.75082 3.20309 -44.8893 5.75082 11.7428 -44.2849 5.75082 
-48.0352 -37.2516 5.75082 -37.1232 -43.223 5.75082 -39.4955 -42.5309 5.75082 
-30.9558 -43.223 7.55166 -22.4161 -43.223 8.44407 -13.8764 -43.223 8.3049 
-5.33664 -43.223 7.66134 3.20309 -43.223 7.11956 17.7323 -43.223 5.75082 
11.7428 -43.223 6.64611 20.2825 -42.6679 5.75082 28.8223 -42.4389 5.75082 
37.362 -37.9706 5.75082 45.9017 -35.8607 5.75082 -51.5957 -34.6833 5.75082 
-56.575 -30.1851 5.75082 -48.0352 -34.6833 8.99177 -39.4955 -34.6833 12.8497 
-13.8764 -34.6833 13.9424 -5.33664 -34.6833 12.6218 3.20309 -34.6833 11.7468 
11.7428 -34.6833 11.4354 20.2825 -34.6833 11.0471 28.8223 -34.6833 9.8935 
37.362 -34.6833 8.01311 47.7534 -34.6833 5.75082 45.9017 -34.6833 6.70815 
54.4414 -27.4353 5.75082 -60.3776 -26.1436 5.75082 -65.1147 -20.4815 5.75082 
-56.575 -26.1436 9.84315 20.2825 -26.1436 14.2892 28.8223 -26.1436 12.7916 
37.362 -26.1436 11.528 45.9017 -26.1436 9.95148 56.3287 -26.1436 5.75082 
54.4414 -26.1436 6.62969 62.9811 -21.6663 5.75082 -66.8131 -17.6039 5.75082 
-65.1147 -17.6039 7.98398 -56.575 -17.6039 13.7287 45.9017 -17.6039 13.74 
54.4414 -17.6039 12.0743 66.6435 -17.6039 5.75082 62.9811 -17.6039 8.57234 
71.5209 -11.6408 5.75082 -70.1644 -9.06413 5.75082 -65.1147 -9.06413 12.7681 
62.9811 -9.06413 13.7811 73.221 -9.06413 5.75082 71.5209 -9.06413 7.20059 
-73.3666 -0.524413 5.75082 75.2208 -0.524413 5.75082 71.5209 -0.524413 10.3768 
-72.6261 8.01531 5.75082 -65.1147 8.01531 12.8882 74.7005 8.01531 5.75082 
71.5209 15.9619 5.75082 71.5209 8.01531 11.0393 -70.4418 16.555 5.75082 
-65.1147 16.555 13.8005 71.2429 16.555 5.75082 62.9811 16.555 14.0116 
-66.0676 25.0948 5.75082 -65.1147 26.2958 5.75082 -65.1147 25.0948 7.123 
-56.575 25.0948 13.4651 65.6101 25.0948 5.75082 62.9811 27.9187 5.75082 
[...]
POINT_DATA 572
SCALARS ImageScalars float
LOOKUP_TABLE default
0 0 0 0 0 0 0 0 0 
0 0 0 0 0 0 0 0 0 
0 0 0 0 0 0 0 0 0 
0 0 0 0 0 0 0 0 0 
0 0 0 0 0 0 0 0 0 
0 0 0 0 0 0 0 0 0 
0 0 0 0 0 0 0 0 0 
0 0 0 0 0 0 0 0 0 
0 0 0 0 0 0 0 0 0 
0 0 0 0 0 0 0 0 0 
0 0 0 0 0 0 0 0 0 
0 0 0 0 0 0 0 0 0 
0 0 0 0 0 0 0 0 0 
0 0 0 0 0 0 0 0 0 
0 0 0 0 0 0 0 0 0 
0 0 0 0 0 0 0 0 0 
0 0 0 0 0 0 0 0 0 
0 0 0 0 0 0 0 0 0 
0 0 0 0 0 0 0 0 0 
0 0 0 0 0 0 0 0 0 
0 0 0 0 0 0 0 0 0 
0 0 0 0 0 0 0 0 0 
0 0 0 0 0 0 0 0 0 
0 0 0 0 0 0 0 0 0 
0 0 0 0 0 0 0 0 0 
0 0 0 0 0 0 0 0 0 
0 0 0 0 0 0 0 0 0 
0 0 0 0 0 0 0 0 0 
0 0 0 0 0 0 0 0 0 
0 0 0 0 0 0 0 0 0 
0 0 0 0 0 0 0 0 0 
0 0 0 0 0 0 0 0 0 
0 0 0 0 0 0 0 0 0 
0 0 0 0 0 0 0 0 0 
0 0 0 0 0 0 0 0 0 
0 0 0 0 0 0 0 0 0 
0 0 0 0 0 0 0 0 0 
0 0 0 0 0 0 0 0 0 
0 0 0 0 0 0 0 0 0 
0 0 0 0 0 0 0 0 0 
0 0 0 0 0 0 0 0 0 
0 0 0 0 0 0 0 0 0 
0 0 0 0 0 0 0 0 0 
0 0 0 0 0 0 0 0 0 
0 0 0 0 0 0 0 0 0 
0 0 0 0 0 0 0 0 0 
0 0 0 0 0 0 0 0 0 
0 0 0 0 0 0 0 0 0 
0 0 0 0 0 0 0 0 0 
0 0 0 0 0 0 0 0 0 
0 0 0 0 0 0 0 0 0 
0 0 0 0 0 0 0 0 0 
0 0 0 0 0 0 0 0 0 
0 0 0 0 0 0 0 0 0 
0 0 0 0 0 0 0 0 0 
0 0 0 0 0 0 0 0 0 
0 0 0 0 0 0 0 0 0 
0 0 0 0 0 0 0 0 0 
0 0 0 0 0 0 0 0 0 
0 0 0 0 0 0 0 0 0 
0 0 0 0 0 0 0 0 0 
0 0 0 0 0 0 0 0 0 
0 0 0 0 0 0 0 0 0 
0 0 0 0 0 
NORMALS Normals float
0.0425447 0.0799905 0.995887 -0.076121 0.0504156 0.995823 -0.0456244 0.2684 0.962227 
0.0716942 -0.0373004 0.996729 -0.101979 0.07063 0.992276 -0.265002 0.0597373 0.962396 
0.113328 0.120591 0.986212 0.104258 -0.0512393 0.993229 0.451355 0.727824 0.516285 
0.29087 0.605086 0.741125 0.203952 0.46423 0.861913 0.0432823 0.12954 0.990629 
0.0352227 0.398136 0.91665 -0.0761181 0.0506852 0.99581 -0.0774299 0.419249 0.904563 
-0.0899622 0.457437 0.88468 -0.0742702 0.538918 0.839078 -0.0858393 0.589118 0.803475 
-0.0461766 0.27681 0.959815 -0.136538 0.704446 0.696501 -0.280318 0.815948 0.505619 
0.470881 0.562495 0.679611 0.28781 0.335231 0.897098 0.195906 0.226938 0.954002 
0.0552002 0.0907302 0.994344 0.0834226 0.12126 0.989109 -0.0197607 -0.113743 0.993314 
-0.0761131 0.0504645 0.995821 -0.0761058 0.0500443 0.995843 -0.0700333 0.0898868 0.993487 
0.000144492 0.146989 0.989138 -0.0333687 0.264564 0.963791 0.0703012 0.233664 0.969773 
-0.0533022 0.27359 0.960369 -0.129347 0.178456 0.975409 -0.189509 0.383904 0.903717 
-0.372504 0.520364 0.768416 -0.566294 0.661821 0.491226 0.505279 0.465805 0.726443 
0.277202 0.265698 0.923344 0.0792822 0.172027 0.981897 0.0629552 0.0248294 0.997707 
0.0591691 -0.0449753 0.997234 -0.0241644 -0.126962 0.991613 -0.0696767 -0.136838 0.98814 
-0.000133815 -0.111265 0.993791 0.0626428 -0.0291967 0.997609 0.0768033 -0.00882356 0.997007 
0.0766323 0.00106025 0.997059 0.058035 -0.0757247 0.995438 -0.163607 0.101944 0.981244 
-0.0146375 -0.0609792 0.998032 -0.254556 0.157751 0.954105 -0.290508 0.134048 0.947437 
-0.470904 0.472727 0.744835 0.413213 0.269702 0.869779 0.113033 0.121174 0.986175 
0.12439 0.143702 0.981772 0.0475524 0.0704584 0.996381 -0.028085 -0.00949016 0.99956 
-0.0684755 -0.142854 0.987372 -0.0511911 -0.234166 0.970848 -0.0593069 -0.0589791 0.996496 
0.0423271 -0.0570152 0.997476 0.10824 -0.106009 0.988456 0.0676882 -0.169863 0.98314 
0.0353356 -0.120241 0.992116 0.0157797 -0.104803 0.994368 -0.0373037 0.0832585 0.99583 
0.0615018 0.086652 0.994338 -0.296697 0.0857641 0.951113 -0.248615 0.00218395 0.9686 
-0.555325 0.239741 0.796328 0.559346 0.249565 0.790474 0.124176 0.117206 0.985314 
0.308526 0.0972292 0.946234 0.0609485 0.103452 0.992765 -0.0761945 0.0573322 0.995443 
-0.149437 -0.0288234 0.988351 -0.171166 -0.0802219 0.981971 0.0518053 -0.0663157 0.996453 
0.116503 0.0334462 0.992627 -0.0545175 -0.0404799 0.997692 -0.0412042 -0.000184267 0.999151 
0.0597184 -0.153098 0.986405 0.131926 -0.0981837 0.986385 0.0922446 -0.0466916 0.994641 
-0.0667945 -0.0242782 0.997471 -0.20137 -0.132796 0.970472 -0.337615 0.0307266 0.940783 
0.47479 -0.00186626 0.880097 0.144797 -0.0186873 0.989285 0.252881 0.0571918 0.965805 
-0.0858375 -0.0311702 0.995821 0.0596786 -0.127347 0.990061 -0.101054 -0.0296367 0.994439 
-0.162489 -0.0537783 0.985244 -0.0943619 -0.0368234 0.994857 0.0466826 0.04697 0.997805 
-0.0536531 0.0276911 0.998176 0.0394821 -0.0280808 0.998826 -0.0341255 0.0870699 0.995618 
-0.0182329 -0.0108115 0.999775 0.145397 -0.0541321 0.987891 0.0895937 -0.0782327 0.992901 
-0.0595879 -0.126112 0.990225 -0.211776 -0.0609942 0.975413 -0.397579 -0.0822728 0.913872 
0.529419 -0.181851 0.828641 0.270849 -0.153709 0.950271 0.00699019 -0.221075 0.975232 
-0.0816151 -0.149626 0.985368 -0.152454 -0.115909 0.98149 -0.0764787 -0.0713407 0.994516 
0.119171 -0.0470018 0.991761 0.0431578 -0.0372999 0.998372 0.00109021 0.0208216 0.999783 
-0.0356281 -0.124245 0.991612 -0.0598953 0.0335971 0.997639 0.0655194 -0.0416707 0.996981 
0.0222041 -0.0980801 0.994931 -0.0551334 -0.196207 0.979011 -0.193964 -0.218526 0.95636 
-0.36777 -0.224124 0.902504 0.234418 -0.378523 0.895415 0.12263 -0.284248 0.950876 
0.00673008 -0.236887 0.971514 -0.0812342 -0.132231 0.987885 -0.0263449 -0.0491285 0.998445 
0.101895 -0.0138372 0.994699 0.0189784 -0.100208 0.994785 -0.0595419 -0.0368925 0.997544 
0.0113145 -0.107609 0.994129 0.0227707 -0.0104813 0.999686 0.0125611 -0.0667102 0.997693 
-0.0640289 -0.181502 0.981304 -0.157492 -0.234986 0.959155 -0.284594 -0.332504 0.899137 
0.36123 -0.463333 0.809219 0.172383 -0.380644 0.908512 0.0917834 -0.311583 0.945776 
0.0407079 -0.208111 0.977258 0.0483916 -0.115693 0.992106 0.0660339 -0.0886945 0.993868 
0.0199408 -0.135887 0.990524 -0.0128257 -0.075131 0.997091 0.000824631 -0.0575202 0.998344 
-0.0167234 -0.0798202 0.996669 -0.1014 -0.153157 0.982986 -0.169162 -0.249519 0.95348 
-0.221056 -0.36809 0.90313 0.125052 -0.319965 0.93914 0.0845172 -0.285866 0.954535 
0.0791408 -0.259682 0.962446 0.0324594 -0.268418 0.962756 0.0240057 -0.249784 0.968004 
0.00416093 -0.238645 0.971098 -0.0799266 -0.264479 0.961074 -0.157184 -0.320429 0.93414 
-0.271009 -0.421024 0.865617 0.042191 -0.539945 0.840642 0.0132437 -0.541969 0.840294 
-0.0386944 -0.596796 0.801459 0.452031 0.735779 0.504279 0.33627 0.783098 0.523145 
0.187019 0.887592 0.420957 0.0436205 0.933849 0.354999 -0.0625674 0.915661 0.397052 
-0.0791557 0.871526 0.483918 -0.0711868 0.876004 0.477021 -0.118334 0.865438 0.486842 
-0.197519 0.852531 0.483918 -0.29415 0.862528 0.41173 0.456202 0.73206 0.505932 
0.517405 0.626483 0.582933 -0.347609 0.841293 0.413998 -0.476414 0.776206 0.412958 
-0.566605 0.662725 0.489647 0.547467 0.597118 0.586285 0.584051 0.532655 0.612506 
-0.566929 0.662351 0.489778 0.629824 0.507491 0.588026 -0.617531 0.535832 0.575795 
-0.623508 0.506049 0.595946 -0.663651 0.61201 0.430129 0.644804 0.421413 0.637683 
0.653755 0.415166 0.632646 0.676828 0.43747 0.592051 -0.694782 0.321341 0.643442 
-0.881245 0.470121 0.0489283 0.716286 0.278735 0.639719 -0.727188 0.131865 0.673654 
-0.784789 0.15804 0.599274 0.749309 0.0214004 0.661875 0.96282 0.0627407 0.262757 
-0.603339 -0.086566 0.792773 -0.739768 -0.0988942 0.665555 0.676559 -0.223816 0.701551 
0.968145 -0.164756 0.188547 0.547752 -0.485983 0.68102 -0.517956 -0.30764 0.798172 
-0.473495 -0.437308 0.764568 -0.724899 -0.370027 0.581035 0.535351 -0.49104 0.687226 
0.554344 -0.499094 0.666039 -0.457362 -0.443975 0.770523 -0.375063 -0.444501 0.813478 
-0.492532 -0.466321 0.734817 0.383825 -0.471991 0.793664 0.718583 -0.605414 0.342217 
0.37206 -0.475666 0.797065 0.246018 -0.476456 0.844076 0.188351 -0.44572 0.875133 
-0.347653 -0.45003 0.822563 -0.292545 -0.433358 0.852419 -0.405797 -0.48695 0.773439 
-0.638464 -0.625846 0.447973 0.589521 -0.722818 0.360553 0.323462 -0.593142 0.737262 
0.187678 -0.441344 0.877492 0.194978 -0.455887 0.868418 0.152672 -0.457439 0.876037 
0.093635 -0.464815 0.880443 0.0950142 -0.544921 0.833087 -0.0889102 -0.612805 0.785216 
-0.208411 -0.574564 0.79148 -0.303017 -0.445807 0.842281 -0.288648 -0.463014 0.838034 
-0.394835 -0.542941 0.741162 0.394172 -0.765859 0.508024 0.195747 -0.668457 0.717529 
0.10767 -0.60769 0.786842 0.0753064 -0.553229 0.829619 0.0953426 -0.567334 0.81795 
0.0434476 -0.554577 0.830997 0.00972732 -0.570713 0.821092 -0.0768977 -0.621527 0.779609 
-0.044931 -0.625053 0.779288 -0.0902697 -0.636883 0.765657 -0.228804 -0.692822 0.683847 
-0.383304 -0.786305 0.484564 0.426017 0.903804 -0.0405902 0.288756 0.954077 -0.0797318 
0.14627 0.97589 -0.162 0.050938 0.980277 -0.190949 -0.0187293 0.979733 -0.199432 
-0.0882679 0.979282 -0.182251 -0.102726 0.974861 -0.19772 -0.120964 0.970847 -0.206939 
-0.220329 0.955811 -0.194628 -0.364941 0.906362 -0.2129 0.490173 0.871579 -0.00897909 
0.578678 0.81527 0.0215988 0.361902 0.86248 -0.353772 -0.0737954 0.682561 -0.727093 
-0.147072 0.717869 -0.680465 -0.443995 0.865032 -0.23364 -0.365813 0.816967 -0.445809 
-0.491689 0.841829 -0.222633 -0.542178 0.812735 -0.21332 0.678676 0.731691 0.0634602 
0.694594 0.716262 0.0671414 -0.568903 0.797072 -0.20255 -0.55051 0.786747 -0.279227 
-0.674909 0.729353 -0.111989 0.781313 0.619563 0.0754367 0.815779 0.57088 0.0927433 
-0.703943 0.703997 -0.0940812 -0.627376 0.691632 -0.357834 -0.878991 0.476016 0.0279837 
0.873422 0.478584 0.0899452 -0.881997 0.470319 0.0296949 -0.878801 0.47717 0.00415012 
0.945376 0.311447 0.0962558 0.974368 0.185153 0.127768 -0.965961 0.231719 0.115008 
0.988533 0.0742757 0.131472 0.932972 0.112924 -0.341777 -0.98255 -0.0258667 0.18419 
0.96909 -0.16461 0.183763 0.967986 -0.169855 0.184804 0.974054 -0.163682 0.156292 
-0.919715 -0.338258 0.199262 -0.81866 -0.460075 0.343697 0.889272 -0.409519 0.20369 
-0.789228 -0.497015 0.360688 0.741955 -0.607998 0.282562 0.724133 -0.627778 0.285527 
-0.580199 -0.689215 0.433996 -0.654615 -0.629016 0.419306 -0.644202 -0.639714 0.419249 
0.594268 -0.725374 0.347387 0.591717 -0.727161 0.348006 0.433468 -0.822706 0.367777 
-0.577843 -0.692188 0.432404 -0.479164 -0.788832 0.384897 -0.58922 -0.709099 0.387298 
0.410306 -0.824388 0.389915 0.397503 -0.835024 0.380429 0.26153 -0.881765 0.392546 
0.139378 -0.903193 0.405976 0.0567513 -0.929206 0.36518 -0.00737753 -0.948489 0.316723 
-0.0532682 -0.960363 0.273616 -0.0739505 -0.95809 0.276756 -0.115855 -0.95612 0.269094 
-0.226472 -0.927631 0.297002 -0.424043 -0.828681 0.365344 -0.382359 -0.847869 0.367315 
0.168062 0.791903 -0.587065 0.0512539 0.767623 -0.638849 -0.0139617 0.731051 -0.68218 
-0.0488365 0.680367 -0.731242 -0.0530208 0.668074 -0.742203 -0.0902381 0.65946 -0.746304 
0.504655 0.73687 -0.449828 0.286115 0.823524 -0.489843 0.334109 0.825969 -0.454032 
0.132861 0.745666 -0.652939 0.0312775 0.694363 -0.718945 -0.0384394 0.649301 -0.75956 
-0.0580074 0.60895 -0.791084 -0.0515344 0.613334 -0.78814 -0.0764129 0.656866 -0.750125 
-0.0827038 0.630838 -0.771495 -0.0711979 0.651842 -0.755005 -0.140675 0.665933 -0.732628 
-0.252216 0.576415 -0.777259 -0.33796 0.623864 -0.704682 0.560877 0.699195 -0.443332 
0.641971 0.626582 -0.441891 0.468302 0.665713 -0.580964 0.246576 0.522642 -0.816116 
-0.116744 0.427055 -0.896657 -0.114772 0.380169 -0.917768 -0.0629153 0.385653 -0.920496 
-0.0368704 0.408913 -0.911828 -0.0871788 0.420589 -0.903053 -0.138604 0.400462 -0.90577 
-0.198172 0.491246 -0.848177 -0.369964 0.624726 -0.687637 -0.297274 0.579336 -0.758945 
-0.400099 0.579397 -0.710085 0.68321 0.585196 -0.436772 0.764128 0.47659 -0.434707 
0.588172 0.518176 -0.620924 -0.104339 0.257904 -0.96052 -0.145483 0.261605 -0.954148 
-0.162758 0.320825 -0.933049 -0.219951 0.390399 -0.893985 -0.401172 0.564379 -0.721483 
-0.371269 0.540685 -0.754864 -0.504875 0.527726 -0.683086 0.796393 0.418031 -0.437046 
0.727447 0.416817 -0.545055 0.435073 0.311425 -0.844823 -0.123726 0.37425 -0.919037 
-0.231594 0.406589 -0.88377 -0.586536 0.497711 -0.638951 -0.466957 0.480859 -0.742109 
-0.674566 0.452842 -0.583005 0.835807 0.316875 -0.448349 0.622795 0.304334 -0.720769 
-0.423321 0.294077 -0.856924 -0.697172 0.408722 -0.58898 -0.672686 0.412396 -0.614348 
0.891885 0.118269 -0.436525 -0.913755 0.0494009 -0.403251 -0.764888 0.180873 -0.618249 
0.900097 -0.12393 -0.417693 0.612365 -0.0962727 -0.784692 -0.935532 -0.220717 -0.275796 
-0.87634 -0.42578 -0.225255 -0.777327 -0.155113 -0.609674 0.865697 -0.361166 -0.346595 
0.579843 -0.207624 -0.787829 -0.869509 -0.439757 -0.224871 -0.589569 -0.223464 -0.776191 
0.78557 -0.53701 -0.307409 0.766085 -0.568648 -0.299588 0.748608 -0.538192 -0.387214 
0.505567 -0.387789 -0.770728 -0.761931 -0.635142 -0.126707 -0.729615 -0.67447 -0.112925 
-0.702551 -0.55339 -0.447416 0.642913 -0.728046 -0.237933 0.627519 -0.742663 -0.23382 
0.62351 -0.704554 -0.338879 0.516933 -0.832075 -0.201074 0.418544 -0.568205 -0.708494 
-0.468188 -0.874567 -0.126228 -0.627403 -0.774531 -0.0804203 -0.587656 -0.805358 -0.0778462 
-0.556272 -0.734079 -0.389472 0.480208 -0.856654 -0.188531 0.403176 -0.892743 -0.201142 
0.366459 -0.798757 -0.477173 0.284123 -0.942578 -0.175558 0.273141 -0.590485 -0.759422 
0.116642 -0.977001 -0.178502 0.0204842 -0.983922 -0.177421 -0.0503914 -0.979154 -0.196771 
-0.0611709 -0.972873 -0.223106 -0.0758762 -0.972264 -0.221237 -0.115338 -0.966564 -0.229024 
-0.179372 -0.962255 -0.204675 -0.18836 -0.689267 -0.699594 -0.424969 -0.8943 -0.140102 
-0.329933 -0.923573 -0.195339 -0.297932 -0.832432 -0.467219 0.0939943 0.512558 -0.853492 
-0.0493495 0.482187 -0.874677 0.323938 0.383298 -0.864955 0.143162 0.491831 -0.85884 
0.213005 0.449702 -0.867409 0.0936218 0.483582 -0.870278 -0.0956843 0.438411 -0.893667 
-0.05623 0.458944 -0.886684 -0.121709 0.40413 -0.906568 -0.126634 0.295609 -0.946879 
-0.0334861 0.320496 -0.946658 -0.0206905 0.360012 -0.932718 0.335756 0.374134 -0.86446 
0.317335 0.3663 -0.874713 0.155265 0.332345 -0.93029 0.0497007 0.267497 -0.962276 
-0.0625281 0.236887 -0.969523 -0.149787 0.224927 -0.962794 -0.127352 0.256288 -0.958174 
-0.0280621 0.312991 -0.949341 -0.104021 0.258284 -0.960452 -0.0210175 0.355878 -0.934296 
-0.104407 0.257821 -0.960535 -0.0958752 0.225117 -0.969603 -0.0417613 0.29717 -0.953911 
0.408309 0.293519 -0.864367 0.405905 0.291561 -0.86616 0.285393 0.224599 -0.931722 
0.136828 0.160252 -0.977547 -0.00539861 0.11767 -0.993038 -0.101147 0.0584447 -0.993153 
-0.105705 0.0731562 -0.991703 -0.0308993 0.267373 -0.963098 0.0377879 0.241357 -0.9697 
-0.0900226 0.301619 -0.949169 -0.191855 0.164091 -0.967608 -0.0903913 0.221084 -0.971057 
-0.0485315 0.30632 -0.950691 -0.0387669 0.297042 -0.954077 -0.115389 0.362432 -0.92484 
-0.177047 0.346056 -0.921357 0.524355 0.292441 -0.799707 0.582629 0.188614 -0.79055 
0.323115 0.204066 -0.924096 0.203064 0.17441 -0.963507 0.0365281 0.0810752 -0.996038 
-0.0629192 0.0222964 -0.99777 -0.10817 -0.00698431 -0.994108 0.0476854 0.0595237 -0.997087 
0.0411397 0.149544 -0.987899 0.00926365 -0.0309526 -0.999478 -0.0842369 0.136992 -0.986984 
-0.193251 0.1371 -0.971523 -0.00582563 0.246177 -0.969207 -0.00132097 0.282863 -0.959159 
-0.0776513 0.303118 -0.949784 -0.356625 0.296671 -0.885892 -0.155973 0.319817 -0.934553 
-0.401885 0.224027 -0.887863 0.613783 0.0035435 -0.789467 0.571528 -0.0568244 -0.818613 
0.514185 -0.00561512 -0.857661 0.277059 0.0676027 -0.958472 0.174241 0.0587353 -0.98295 
-0.00829653 0.039575 -0.999182 -0.0882185 0.037843 -0.995382 -0.0618948 0.0745144 -0.995297 
0.0522158 0.197249 -0.978962 -0.132038 0.0617492 -0.98932 0.0646505 0.0439209 -0.996941 
0.0507741 0.0450872 -0.997692 -0.0928995 0.121788 -0.988199 0.0600151 0.202337 -0.977475 
0.0295439 0.218148 -0.975468 -0.0922184 0.19593 -0.976272 -0.233229 0.17449 -0.956639 
-0.417277 0.151904 -0.895994 -0.364973 0.14423 -0.919778 0.538786 -0.0869343 -0.837945 
0.350004 -0.0281477 -0.936325 0.183648 -0.0697469 -0.980515 0.0160062 -0.0218088 -0.999634 
-0.0311644 0.0291098 -0.99909 0.0431734 0.128504 -0.990769 0.0373209 0.135911 -0.990018 
-0.113201 -0.0144099 -0.993468 0.00350886 0.12199 -0.992525 -0.0141032 -0.00463424 -0.99989 
-0.0275798 0.110973 -0.993441 0.0876363 0.104757 -0.990629 -0.00488219 0.0844853 -0.996413 
-0.106731 0.0833861 -0.990785 -0.163207 0.0772415 -0.983564 -0.535559 -0.071669 -0.841451 
-0.567146 -0.200096 -0.798941 -0.399313 -0.0333272 -0.916209 0.545562 -0.207102 -0.812078 
0.457352 -0.35479 -0.815447 0.350343 -0.235191 -0.906612 0.157671 -0.15706 -0.974921 
0.0896469 -0.0595995 -0.994189 0.0613982 -0.000435679 -0.998113 0.0510252 0.0661932 -0.996501 
-0.0810556 -0.010796 -0.996651 -0.135806 -0.00576096 -0.990719 0.0298223 0.0475656 -0.998423 
0.0576237 -0.00823457 -0.998304 0.0157072 0.0783717 -0.9968 0.0349859 0.0499931 -0.998137 
0.0133418 -0.0478357 -0.998766 -0.127018 -0.0656856 -0.989723 -0.573593 -0.212664 -0.791053 
-0.298074 -0.0851591 -0.950737 0.465021 -0.358882 -0.809295 0.390878 -0.502273 -0.771322 
0.278854 -0.253126 -0.926373 0.179453 -0.195633 -0.964118 0.0954406 -0.0706469 -0.992925 
0.0398004 -0.0891667 -0.995221 -0.0440886 -0.0873939 -0.995198 -0.0580311 0.0017504 -0.998313 
-0.00118473 0.0241655 -0.999707 0.0231269 -0.0487342 -0.998544 0.0310492 -0.0461046 -0.998454 
-0.041969 -0.113675 -0.992631 -0.109433 -0.164713 -0.980252 -0.175337 -0.312085 -0.933734 
-0.489362 -0.434796 -0.755961 -0.43216 -0.536827 -0.724607 -0.391375 -0.420357 -0.818612 
0.378774 -0.520985 -0.764922 0.296644 -0.572308 -0.764504 0.262944 -0.396314 -0.879657 
0.269531 -0.578978 -0.769504 0.169754 -0.359771 -0.917469 0.0420353 -0.266462 -0.962928 
0.0122235 -0.20969 -0.977691 -0.022831 -0.209226 -0.977601 -0.0229635 -0.210773 -0.977265 
-0.0168487 -0.248811 -0.968405 -0.0469 -0.272623 -0.960977 -0.182919 -0.649953 -0.737632 
-0.101118 -0.353781 -0.929846 -0.2369 -0.606221 -0.759193 -0.209573 -0.438591 -0.873909 
-0.324711 -0.557942 -0.763717 -0.270324 -0.564198 -0.780132 -0.24947 -0.512627 -0.821571 
0.264782 -0.584708 -0.766816 0.113065 -0.675753 -0.728405 0.135483 -0.566221 -0.813042 
0.010603 -0.675181 -0.737576 0.000866748 -0.590509 -0.80703 -0.0302947 -0.665698 -0.745606 
-0.0366246 -0.566429 -0.823296 -0.051703 -0.674925 -0.736073 -0.0432307 -0.595526 -0.802172 
-0.0450965 -0.674174 -0.737194 -0.0353751 -0.619318 -0.784343 -0.161214 -0.669413 -0.725187 
-0.085107 -0.70199 -0.707083 -0.0872814 -0.656279 -0.749453 
