# vtk DataFile Version 4.2
vtk output
ASCII
DATASET POLYDATA
POINTS 546 float
-43.8953 -18.6959 -21.1876 -36.0793 -18.6959 -21.2365 -36.0793 -10.88 -22.0066 
-28.2634 -34.3278 -13.5091 -20.4475 -34.3278 -14.6542 -12.6316 -34.3278 -14.5757 
-4.81566 -34.3278 -14.309 3.00027 -34.3278 -14.4833 10.8162 -34.3278 -13.7754 
-43.8953 -19.2153 -20.9798 -43.8953 -26.5118 -16.6648 -36.0793 -20.0465 -20.9798 
-36.0793 -26.5118 -19.3829 -28.2634 -26.5118 -19.5969 -20.4475 -26.5118 -19.451 
-12.6316 -26.5118 -18.8881 -4.81566 -26.5118 -17.7786 3.00027 -26.5118 -17.3106 
10.8162 -26.5118 -17.1232 18.6321 -26.5118 -15.9913 26.448 -26.5118 -13.4828 
-44.4725 -18.6959 -20.9798 -51.7112 -18.6959 -17.7612 -43.8953 -15.4068 -20.9798 
-33.4187 -18.6959 -20.9798 -28.2634 -18.6959 -20.5127 -20.4475 -18.6959 -20.0932 
-12.6316 -18.6959 -19.855 -4.81566 -18.6959 -19.2047 3.00027 -18.6959 -18.111 
10.8162 -18.6959 -18.3305 18.6321 -18.6959 -17.3865 26.448 -18.6959 -16.3467 
34.264 -18.6959 -15.6745 42.0799 -18.6959 -14.4229 -59.5271 -10.88 -16.0855 
-51.7112 -10.88 -20.163 -41.9628 -10.88 -20.9798 -43.8953 -10.88 -20.6426 
-31.5099 -10.88 -20.9798 -36.0793 -5.27838 -20.9798 -28.2634 -10.88 -20.2612 
-20.4475 -10.88 -19.0028 -12.6316 -10.88 -18.408 -4.81566 -10.88 -20.107 
3.00027 -10.88 -18.0522 10.8162 -10.88 -18.4451 18.6321 -10.88 -17.7531 
26.448 -10.88 -17.4807 34.264 -10.88 -17.6646 42.0799 -10.88 -17.3881 
49.8958 -10.88 -16.0464 -59.5271 -3.06408 -16.8205 -51.7112 -3.06408 -19.1807 
-43.8953 -3.06408 -20.0096 -36.0793 -3.06408 -20.5322 -28.2634 -3.06408 -19.1664 
-20.4475 -3.06408 -16.8946 -12.6316 -3.06408 -16.941 -4.81566 -3.06408 -19.4024 
3.00027 -3.06408 -15.9755 10.8162 -3.06408 -20.1059 18.6321 -3.06408 -18.4754 
26.448 -3.06408 -18.3616 34.264 -3.06408 -18.7551 42.0799 -3.06408 -18.2371 
49.8958 -3.06408 -16.7786 57.7117 -3.06408 -14.0855 -59.5271 4.75184 -13.3462 
-51.7112 4.75184 -17.5116 -43.8953 4.75184 -18.9264 -36.0793 4.75184 -18.5921 
-28.2634 4.75184 -17.7233 -20.4475 4.75184 -16.7126 -12.6316 4.75184 -18.943 
-4.81566 4.75184 -18.7882 3.00027 4.75184 -17.0995 10.8162 4.75184 -19.8651 
18.6321 4.75184 -18.085 26.448 4.75184 -18.2959 34.264 4.75184 -18.5857 
42.0799 4.75184 -18.6334 49.8958 4.75184 -16.6651 57.7117 4.75184 -13.8182 
-51.7112 12.5678 -13.7525 -43.8953 12.5678 -15.4615 -36.0793 12.5678 -16.3567 
-28.2634 12.5678 -16.481 -20.4475 12.5678 -16.4322 -12.6316 12.5678 -17.7678 
-4.81566 12.5678 -17.3858 3.00027 12.5678 -18.7463 10.8162 12.5678 -17.1686 
18.6321 12.5678 -16.4687 26.448 12.5678 -17.2004 34.264 12.5678 -17.3249 
42.0799 12.5678 -16.7966 49.8958 12.5678 -14.7398 -36.0793 20.3837 -13.6166 
-28.2634 20.3837 -15.1769 -20.4475 20.3837 -15.7904 -12.6316 20.3837 -16.3842 
-4.81566 20.3837 -16.4702 3.00027 20.3837 -17.3255 10.8162 20.3837 -16.1517 
18.6321 20.3837 -15.4936 26.448 20.3837 -15.7159 34.264 20.3837 -15.5616 
42.0799 20.3837 -14.4093 -20.4475 28.1996 -13.9411 -12.6316 28.1996 -14.5126 
-4.81566 28.1996 -14.8121 3.00027 28.1996 -15.3013 10.8162 28.1996 -14.7741 
18.6321 28.1996 -14.0961 -28.2634 -34.5846 -13.1639 -20.4475 -35.6245 -13.1639 
-12.6316 -35.8085 -13.1639 -4.81566 -35.8098 -13.1639 3.00027 -36.1042 -13.1639 
10.8162 -35.0944 -13.1639 -43.8953 -29.5837 -13.1639 -29.2989 -34.3278 -13.1639 
-36.0793 -32.4014 -13.1639 -36.0793 -34.3278 -5.61128 12.7675 -34.3278 -13.1639 
18.6321 -31.2556 -13.1639 18.6321 -34.3278 -9.93928 26.448 -26.9224 -13.1639 
-48.9999 -26.5118 -13.1639 -51.7112 -24.5376 -13.1639 28.1193 -26.5118 -13.1639 
34.264 -24.3563 -13.1639 34.264 -26.5118 -11.687 42.0799 -20.7209 -13.1639 
42.0799 -26.5118 -8.06054 -59.252 -18.6959 -13.1639 -59.5271 -18.1582 -13.1639 
-59.5271 -18.6959 -11.6429 47.5795 -18.6959 -13.1639 49.8958 -17.6215 -13.1639 
49.8958 -18.6959 -12.5296 57.7117 -18.6959 -9.52111 -62.7034 -10.88 -13.1639 
56.3428 -10.88 -13.1639 57.7117 -7.47258 -13.1639 57.7117 -10.88 -12.3976 
65.5276 -10.88 -6.80748 -64.3382 -3.06408 -13.1639 -67.343 -3.06408 -8.17029 
59.4291 -3.06408 -13.1639 65.5276 -3.06408 -9.28951 -59.8053 4.75184 -13.1639 
-67.343 4.75184 -5.81969 -59.5271 5.32808 -13.1639 58.8631 4.75184 -13.1639 
57.7117 8.09267 -13.1639 65.5276 4.75184 -8.85553 -53.291 12.5678 -13.1639 
-59.5271 12.5678 -10.6823 -51.7112 13.484 -13.1639 -43.8953 17.9502 -13.1639 
54.9812 12.5678 -13.1639 49.8958 16.034 -13.1639 57.7117 12.5678 -11.7934 
-51.7112 20.3837 -8.93291 -38.4533 20.3837 -13.1639 -43.8953 20.3837 -12.1051 
-36.0793 21.5141 -13.1639 -28.2634 25.8979 -13.1639 26.448 27.3263 -13.1639 
34.264 25.7215 -13.1639 45.1987 20.3837 -13.1639 42.0799 22.3795 -13.1639 
49.8958 20.3837 -10.4983 -43.8953 28.1996 -6.32009 -36.0793 28.1996 -10.0152 
-24.0243 28.1996 -13.1639 -28.2634 28.1996 -12.1001 -20.4475 29.7196 -13.1639 
-12.6316 31.0794 -13.1639 -4.81566 31.8348 -13.1639 3.00027 32.7245 -13.1639 
10.8162 31.6078 -13.1639 24.5106 28.1996 -13.1639 18.6321 30.1859 -13.1639 
26.448 28.1996 -12.7994 34.264 28.1996 -11.7022 42.0799 28.1996 -7.66478 
-28.2634 36.0155 -5.75211 -20.4475 36.0155 -8.387 -12.6316 36.0155 -9.96505 
-4.81566 36.0155 -10.7155 3.00027 36.0155 -11.1858 10.8162 36.0155 -10.7627 
18.6321 36.0155 -9.15343 26.448 36.0155 -5.95692 -36.0793 -34.3799 -5.34797 
-28.2634 -36.8504 -5.34797 -20.4475 -39.1189 -5.34797 -12.6316 -40.7117 -5.34797 
-4.81566 -41.5694 -5.34797 3.00027 -41.5128 -5.34797 10.8162 -40.0364 -5.34797 
18.6321 -37.0725 -5.34797 -36.2 -34.3278 -5.34797 -43.8953 -30.6416 -5.34797 
-36.0793 -34.3278 -5.19476 24.5714 -34.3278 -5.34797 26.448 -33.4968 -5.34797 
34.264 -30.7915 -5.34797 42.0799 -28.5129 -5.34797 -59.5271 -19.6931 -5.34797 
-50.3782 -26.5118 -5.34797 -51.7112 -25.7072 -5.34797 47.8761 -26.5118 -5.34797 
49.8958 -25.7305 -5.34797 49.8958 -26.5118 -1.49663 57.7117 -21.668 -5.34797 
-60.3871 -18.6959 -5.34797 -59.5271 -18.6959 -3.41443 61.3872 -18.6959 -5.34797 
65.5276 -12.8496 -5.34797 -66.2432 -10.88 -5.34797 -67.343 -6.96868 -5.34797 
66.6292 -10.88 -5.34797 -68.3098 -3.06408 -5.34797 -67.343 -3.06408 -1.24953 
68.5229 -3.06408 -5.34797 -67.5971 4.75184 -5.34797 -67.343 5.64483 -5.34797 
-67.343 4.75184 -1.74431 68.3016 4.75184 -5.34797 65.5276 9.73166 -5.34797 
-64.7392 12.5678 -5.34797 -59.5271 18.8737 -5.34797 63.1926 12.5678 -5.34797 
57.7117 19.6981 -5.34797 -57.6394 20.3837 -5.34797 -59.5271 20.3837 0.837022 
-51.7112 24.7011 -5.34797 57.0003 20.3837 -5.34797 49.8958 25.7758 -5.34797 
57.7117 20.3837 -2.31959 -45.3007 28.1996 -5.34797 -43.8953 28.9183 -5.34797 
-36.0793 33.5455 -5.34797 34.264 33.4048 -5.34797 45.8655 28.1996 -5.34797 
42.0799 30.0227 -5.34797 -29.3207 36.0155 -5.34797 -28.2634 36.3238 -5.34797 
-20.4475 38.2425 -5.34797 -12.6316 39.536 -5.34797 -4.81566 40.488 -5.34797 
3.00027 41.25 -5.34797 10.8162 41.0188 -5.34797 18.6321 39.0717 -5.34797 
27.6002 36.0155 -5.34797 26.448 36.4384 -5.34797 -28.2634 -35.3875 2.46795 
-20.4475 -39.0435 2.46795 -12.6316 -41.251 2.46795 -4.81566 -42.029 2.46795 
3.00027 -41.5296 2.46795 10.8162 -40.1299 2.46795 18.6321 -37.0642 2.46795 
-43.8953 -27.4162 2.46795 -30.363 -34.3278 2.46795 -36.0793 -31.2524 2.46795 
-28.2634 -34.3278 4.85682 24.9711 -34.3278 2.46795 18.6321 -34.3278 9.48684 
26.448 -33.7328 2.46795 34.264 -31.1487 2.46795 42.0799 -29.2971 2.46795 
49.8958 -27.1105 2.46795 -45.2691 -26.5118 2.46795 -51.7112 -22.7882 2.46795 
-43.8953 -26.5118 3.60873 -36.0793 -26.5118 9.18898 42.0799 -26.5118 9.37821 
51.0526 -26.5118 2.46795 49.8958 -26.5118 3.94969 57.7117 -22.2814 2.46795 
-56.7034 -18.6959 2.46795 -59.5271 -16.1675 2.46795 -51.7112 -18.6959 7.23153 
62.3924 -18.6959 2.46795 57.7117 -18.6959 9.38518 65.5276 -14.5668 2.46795 
-64.1311 -10.88 2.46795 -59.5271 -10.88 8.08818 67.5924 -10.88 2.46795 
65.5276 -10.88 6.73661 -66.3947 -3.06408 2.46795 69.7166 -3.06408 2.46795 
-67.0472 4.75184 2.46795 69.348 4.75184 2.46795 65.5276 11.9155 2.46795 
-65.5078 12.5678 2.46795 65.1238 12.5678 2.46795 -59.8338 20.3837 2.46795 
-59.5271 20.7418 2.46795 -59.5271 20.3837 3.0996 -51.7112 27.6126 2.46795 
49.8958 27.3874 2.46795 58.5821 20.3837 2.46795 57.7117 21.1005 2.46795 
57.7117 20.3837 4.23402 -50.8718 28.1996 2.46795 -43.8953 32.422 2.46795 
-36.0793 35.9942 2.46795 34.264 34.1822 2.46795 48.2954 28.1996 2.46795 
42.0799 31.0042 2.46795 42.0799 28.1996 9.36091 -36.0049 36.0155 2.46795 
-28.2634 38.119 2.46795 -28.2634 36.0155 7.71196 -20.4475 39.4864 2.46795 
-12.6316 40.4821 2.46795 -4.81566 41.5207 2.46795 3.00027 42.329 2.46795 
10.8162 41.6769 2.46795 18.6321 40.0138 2.46795 18.6321 36.0155 9.58143 
29.5234 36.0155 2.46795 26.448 37.1851 2.46795 26.448 36.0155 5.56253 
-20.4475 -35.7535 10.2839 -12.6316 -38.28 10.2839 -4.81566 -38.8426 10.2839 
3.00027 -38.5132 10.2839 10.8162 -36.9673 10.2839 -23.1828 -34.3278 10.2839 
-28.2634 -30.6076 10.2839 -20.4475 -34.3278 11.9573 -12.6316 -34.3278 14.5585 
-4.81566 -34.3278 15.3514 3.00027 -34.3278 15.3141 17.7646 -34.3278 10.2839 
10.8162 -34.3278 13.7046 18.6321 -33.9555 10.2839 26.448 -30.4199 10.2839 
34.264 -27.786 10.2839 -43.8953 -20.218 10.2839 -34.4015 -26.5118 10.2839 
-36.0793 -25.286 10.2839 -28.2634 -26.5118 13.3563 -20.4475 -26.5118 16.8453 
18.6321 -26.5118 17.3185 26.448 -26.5118 14.3078 40.1682 -26.5118 10.2839 
34.264 -26.5118 11.6332 42.0799 -26.0085 10.2839 49.8958 -22.179 10.2839 
-46.2399 -18.6959 10.2839 -51.7112 -14.4288 10.2839 -43.8953 -18.6959 11.4796 
-36.0793 -18.6959 14.2359 -28.2634 -18.6959 16.595 26.448 -18.6959 17.8815 
34.264 -18.6959 16.7941 42.0799 -18.6959 15.6518 56.4945 -18.6959 10.2839 
49.8958 -18.6959 13.3454 57.7117 -17.7213 10.2839 -55.8972 -10.88 10.2839 
-59.5271 -3.70666 10.2839 -51.7112 -10.88 12.5649 -43.8953 -10.88 14.8894 
-36.0793 -10.88 16.79 -28.2634 -10.88 17.9804 49.8958 -10.88 17.3015 
62.7707 -10.88 10.2839 57.7117 -10.88 13.9696 65.5276 -5.10741 10.2839 
-59.826 -3.06408 10.2839 -59.5271 -3.06408 10.4484 -51.7112 -3.06408 14.8408 
-43.8953 -3.06408 17.1333 57.7117 -3.06408 17.1166 66.121 -3.06408 10.2839 
[...]
POINT_DATA 546
SCALARS ImageScalars float
LOOKUP_TABLE default
0 0 0 0 0 0 0 0 0 
0 0 0 0 0 0 0 0 0 
0 0 0 0 0 0 0 0 0 
0 0 0 0 0 0 0 0 0 
0 0 0 0 0 0 0 0 0 
0 0 0 0 0 0 0 0 0 
0 0 0 0 0 0 0 0 0 
0 0 0 0 0 0 0 0 0 
0 0 0 0 0 0 0 0 0 
0 0 0 0 0 0 0 0 0 
0 0 0 0 0 0 0 0 0 
0 0 0 0 0 0 0 0 0 
0 0 0 0 0 0 0 0 0 
0 0 0 0 0 0 0 0 0 
0 0 0 0 0 0 0 0 0 
0 0 0 0 0 0 0 0 0 
0 0 0 0 0 0 0 0 0 
0 0 0 0 0 0 0 0 0 
0 0 0 0 0 0 0 0 0 
0 0 0 0 0 0 0 0 0 
0 0 0 0 0 0 0 0 0 
0 0 0 0 0 0 0 0 0 
0 0 0 0 0 0 0 0 0 
0 0 0 0 0 0 0 0 0 
0 0 0 0 0 0 0 0 0 
0 0 0 0 0 0 0 0 0 
0 0 0 0 0 0 0 0 0 
0 0 0 0 0 0 0 0 0 
0 0 0 0 0 0 0 0 0 
0 0 0 0 0 0 0 0 0 
0 0 0 0 0 0 0 0 0 
0 0 0 0 0 0 0 0 0 
0 0 0 0 0 0 0 0 0 
0 0 0 0 0 0 0 0 0 
0 0 0 0 0 0 0 0 0 
0 0 0 0 0 0 0 0 0 
0 0 0 0 0 0 0 0 0 
0 0 0 0 0 0 0 0 0 
0 0 0 0 0 0 0 0 0 
0 0 0 0 0 0 0 0 0 
0 0 0 0 0 0 0 0 0 
0 0 0 0 0 0 0 0 0 
0 0 0 0 0 0 0 0 0 
0 0 0 0 0 0 0 0 0 
0 0 0 0 0 0 0 0 0 
0 0 0 0 0 0 0 0 0 
0 0 0 0 0 0 0 0 0 
0 0 0 0 0 0 0 0 0 
0 0 0 0 0 0 0 0 0 
0 0 0 0 0 0 0 0 0 
0 0 0 0 0 0 0 0 0 
0 0 0 0 0 0 0 0 0 
0 0 0 0 0 0 0 0 0 
0 0 0 0 0 0 0 0 0 
0 0 0 0 0 0 0 0 0 
0 0 0 0 0 0 0 0 0 
0 0 0 0 0 0 0 0 0 
0 0 0 0 0 0 0 0 0 
0 0 0 0 0 0 0 0 0 
0 0 0 0 0 0 0 0 0 
0 0 0 0 0 0 
NORMALS Normals float
0.200987 0.187011 0.961577 -0.0449166 0.146917 0.988129 -0.0278787 -0.0484214 0.998438 
0.172432 0.843846 0.508125 0.0465993 0.750233 0.659529 -0.0192915 0.650673 0.759113 
-0.00333068 0.550478 0.834843 -0.0308331 0.517518 0.855117 -0.184541 0.580299 0.79322 
0.207436 0.208177 0.955841 0.360594 0.650772 0.668182 -0.0146157 0.195054 0.980684 
0.158578 0.474844 0.865665 0.00078089 0.339831 0.940486 -0.0427936 0.266901 0.962773 
-0.105027 0.285368 0.952646 -0.095263 0.28273 0.954457 -0.0395262 0.214764 0.975866 
-0.0753681 0.265712 0.961102 -0.205653 0.339214 0.917955 -0.232399 0.514316 0.825512 
0.21477 0.196838 0.956624 0.420474 0.387381 0.82045 0.166063 0.0802325 0.982846 
-0.0562425 0.106264 0.992746 -0.0700509 0.0366283 0.996871 -0.0421004 -0.0286509 0.998703 
-0.0559556 -0.0320003 0.99792 -0.111605 0.142547 0.983476 -0.0550296 0.0450214 0.997469 
-0.0440305 0.0799474 0.995826 -0.123075 0.101132 0.987231 -0.109452 0.224505 0.968307 
-0.110647 0.319516 0.941099 -0.16827 0.435715 0.884216 0.609929 0.189811 0.769388 
0.249968 0.0981168 0.96327 0.0785305 -0.0703321 0.994428 0.109415 -0.0738566 0.991249 
-0.124987 -0.068643 0.989781 -0.0474191 -0.174096 0.983586 -0.180257 -0.0842702 0.980003 
-0.117257 -0.186518 0.975429 0.0719308 -0.170109 0.982796 -0.0241435 0.02145 0.999478 
-0.104171 -0.117664 0.987575 -0.0191662 0.107346 0.994037 -0.061697 0.0687736 0.995723 
-0.00622581 0.124398 0.992213 -0.0053107 0.198098 0.980168 -0.106985 0.23113 0.967023 
-0.269776 0.21289 0.939095 0.474478 -0.145015 0.86824 0.169148 -0.178567 0.96928 
0.0782045 -0.104259 0.991471 -0.0549721 -0.217144 0.974591 -0.201687 -0.15938 0.966396 
-0.149231 -0.153213 0.97686 0.151375 0.0189245 0.988295 -0.0811043 -0.0873209 0.992873 
0.0861332 -0.0842574 0.992714 0.125418 0.0958705 0.987461 -0.107546 0.0216036 0.993965 
0.0177689 0.0517828 0.9985 -0.0101422 0.0549938 0.998435 -0.119303 0.0732471 0.990152 
-0.249274 0.0409422 0.967567 -0.407843 0.0742182 0.910031 0.55112 -0.288225 0.783067 
0.272187 -0.263471 0.925471 0.0809966 -0.278692 0.956959 -0.0746564 -0.249828 0.965408 
-0.118856 -0.168355 0.978535 0.0554275 -0.0279724 0.998071 0.154614 0.0266717 0.987615 
-0.111527 -0.140191 0.983823 0.0767193 0.188867 0.979001 0.0316703 -0.186764 0.981894 
-0.0865377 -0.129664 0.987774 0.0317015 -0.0736349 0.996781 0.0214796 -0.0891372 0.995788 
-0.118438 -0.0839276 0.989408 -0.276821 -0.118572 0.953578 -0.436742 -0.107127 0.893185 
0.24033 -0.506127 0.828298 0.13457 -0.385168 0.912982 0.0595385 -0.297293 0.952928 
0.00471527 -0.168294 0.985726 0.0780933 -0.0589667 0.995201 0.0636389 -0.157102 0.98553 
0.062152 -0.131034 0.989428 -0.00796967 -0.00433201 0.999959 -0.146586 -0.220743 0.964254 
0.004908 -0.164856 0.986305 0.0535734 -0.159798 0.985695 -0.0246139 -0.182797 0.982843 
-0.152722 -0.257874 0.954032 -0.277797 -0.321262 0.905328 0.188694 -0.346143 0.91901 
0.127311 -0.247362 0.960523 0.0797139 -0.155047 0.984686 0.0430513 -0.193573 0.980141 
0.0593988 -0.16294 0.984846 -0.0217271 -0.213281 0.976749 -0.115545 -0.142424 0.983039 
-0.0283621 -0.148898 0.988446 0.00529961 -0.255228 0.966866 -0.0825009 -0.318776 0.944233 
-0.240853 -0.424342 0.872882 0.135927 -0.359554 0.923171 0.0543731 -0.334878 0.940691 
0.0477323 -0.30873 0.949951 -0.00040099 -0.330963 0.943644 -0.0768792 -0.301362 0.950405 
-0.112404 -0.318942 0.941085 0.174811 0.854314 0.489478 0.0707901 0.803263 0.591403 
0.010334 0.704702 0.709428 0.0132526 0.609818 0.792431 -0.0337803 0.601232 0.798361 
-0.193432 0.61556 0.763983 0.41313 0.820045 0.396043 0.19266 0.852991 0.485065 
0.295191 0.831137 0.471247 0.36715 0.928473 -0.0560183 -0.231782 0.610554 0.757298 
-0.310817 0.558554 0.769032 -0.379444 0.76807 0.51584 -0.239034 0.529988 0.813619 
0.47506 0.796702 0.37361 0.509183 0.756992 0.409507 -0.23051 0.53773 0.810995 
-0.196613 0.526586 0.827074 -0.240937 0.660638 0.71099 -0.195305 0.50754 0.839201 
-0.285932 0.815579 0.503064 0.750762 0.48044 0.45336 0.75672 0.462017 0.46251 
0.779755 0.529137 0.334658 -0.216269 0.488383 0.845405 -0.242541 0.468658 0.849431 
-0.246848 0.524662 0.814737 -0.526193 0.582946 0.619108 0.742111 0.253843 0.620351 
-0.440793 0.209125 0.872908 -0.446186 0.145205 0.883082 -0.486749 0.218118 0.845873 
-0.789095 0.39559 0.469933 0.701488 -0.0836999 0.707749 0.961009 0.0361009 0.274151 
-0.461071 0.0707046 0.884542 -0.752794 0.0830071 0.653002 0.565312 -0.287981 0.772974 
0.941798 -0.207288 0.264667 0.549523 -0.296075 0.781258 -0.470894 -0.118706 0.874167 
-0.473204 -0.197408 0.85855 -0.737538 -0.255354 0.625165 0.283203 -0.500086 0.818358 
0.525969 -0.457613 0.716901 0.254433 -0.515633 0.818161 0.217815 -0.372806 0.901982 
-0.430198 -0.332651 0.839209 -0.32192 -0.416679 0.850145 -0.541384 -0.363627 0.758076 
0.403689 -0.586752 0.701967 0.208063 -0.355283 0.911309 0.255491 -0.399655 0.880341 
0.192452 -0.369068 0.909259 0.186393 -0.391082 0.901284 -0.113604 -0.432307 0.894542 
-0.172091 -0.469853 0.865807 -0.298243 -0.468177 0.831782 -0.270339 -0.495684 0.825357 
-0.433065 -0.567399 0.700366 0.39667 -0.73386 0.551455 0.258466 -0.564477 0.78394 
0.168704 -0.403781 0.899166 0.215295 -0.470237 0.855877 0.145495 -0.417186 0.897099 
0.0661807 -0.445888 0.892639 0.0477121 -0.442769 0.895365 -0.00594304 -0.481271 0.876552 
-0.0770096 -0.422845 0.902924 -0.124265 -0.420925 0.898543 -0.128828 -0.387955 0.91263 
-0.132261 -0.465183 0.875278 -0.238772 -0.591152 0.770407 -0.381268 -0.776422 0.5018 
0.254747 -0.832275 0.492364 0.19262 -0.783555 0.59071 0.111017 -0.724934 0.679813 
0.0588433 -0.668731 0.741172 0.00128829 -0.646665 0.762773 -0.097334 -0.639664 0.762467 
-0.228567 -0.715464 0.660203 -0.317255 -0.859389 0.400998 0.367472 0.927251 -0.0718983 
0.301296 0.952464 0.0450944 0.233036 0.954913 0.183942 0.148407 0.950688 0.272337 
0.0498375 0.957747 0.28326 -0.0925727 0.965659 0.242763 -0.251595 0.939925 0.230738 
-0.393166 0.888976 0.234825 0.368121 0.927004 -0.0717736 0.433576 0.895872 -0.0970813 
0.368581 0.926274 -0.0785158 -0.368944 0.891606 0.262526 -0.360185 0.889289 0.281838 
-0.281909 0.912703 0.295805 -0.305574 0.885421 0.35022 0.741072 0.660905 -0.118393 
0.527797 0.841082 -0.118368 0.545929 0.830816 -0.108193 -0.360836 0.870773 0.333995 
-0.382563 0.859725 0.338405 -0.391039 0.915585 0.0937702 -0.549989 0.766329 0.332043 
0.753928 0.649246 -0.100358 0.723288 0.666413 -0.180965 -0.674021 0.644368 0.361228 
-0.798782 0.45201 0.397032 0.910272 0.412879 0.0305935 0.968562 0.24638 0.0344151 
-0.828584 0.392981 0.398766 0.994563 0.08061 0.0659258 0.980151 0.13699 -0.143311 
-0.901577 0.0908854 0.422965 0.948819 -0.198895 0.245322 0.938847 -0.233404 0.253159 
0.991336 -0.129848 -0.019804 -0.86477 -0.2644 0.426926 -0.789415 -0.453765 0.413427 
0.801323 -0.482874 0.353148 0.664397 -0.609265 0.432866 -0.737748 -0.536084 0.410294 
-0.634691 -0.688991 0.349942 0.613646 -0.63645 0.4673 0.752721 -0.658279 -0.0089576 
0.440285 -0.720247 0.53609 -0.622298 -0.699309 0.351728 -0.519721 -0.757245 0.395562 
-0.649331 -0.743208 0.161283 0.408246 -0.759065 0.507104 0.40959 -0.760217 0.504288 
0.353959 -0.786222 0.506526 -0.347187 -0.874475 0.338756 -0.455407 -0.806771 0.376463 
-0.402527 -0.835989 0.372955 0.268573 -0.84 0.471453 0.255762 -0.843925 0.471567 
0.192403 -0.892772 0.407356 0.141039 -0.907024 0.396756 0.101594 -0.908201 0.406017 
0.0352674 -0.905528 0.422818 -0.131032 -0.902863 0.409474 -0.284534 -0.873773 0.394412 
-0.327083 -0.873843 0.359742 -0.32411 -0.872251 0.366239 0.446325 0.849738 -0.280605 
0.347784 0.921091 -0.175038 0.181711 0.975214 -0.126251 0.0181932 0.989456 -0.143687 
-0.11442 0.979585 -0.165293 -0.265563 0.949451 -0.167388 -0.377861 0.911843 -0.16051 
0.459001 0.741741 -0.489018 0.437612 0.8414 -0.317083 0.402745 0.812118 -0.42221 
0.463346 0.807855 -0.364254 -0.349765 0.925142 -0.147567 -0.348709 0.815734 -0.461497 
-0.342537 0.92783 -0.14765 -0.27313 0.948966 -0.157682 -0.262481 0.954845 -0.139192 
-0.379752 0.916463 -0.126032 0.472803 0.73832 -0.480979 0.499127 0.726304 -0.472605 
0.455731 0.717203 -0.527189 0.410885 0.643322 -0.645996 -0.243456 0.818438 -0.52047 
-0.405764 0.90474 -0.12962 -0.388072 0.896859 -0.212238 -0.564699 0.808775 -0.16431 
0.573651 0.685381 -0.448528 0.629447 0.655376 -0.417468 0.435221 0.576528 -0.691519 
-0.703304 0.690398 -0.169452 -0.5125 0.635246 -0.577759 -0.844758 0.510563 -0.160342 
0.804035 0.436503 -0.403723 0.54017 0.401953 -0.739358 -0.911224 0.394531 -0.118388 
-0.809685 0.444614 -0.383052 0.914778 0.190181 -0.356389 -0.986242 0.0979472 -0.133162 
0.952762 -0.0467483 -0.300098 -0.957152 -0.254153 -0.138805 -0.856204 -0.507933 -0.0944406 
0.895255 -0.385489 -0.223422 -0.842721 -0.53143 -0.0860441 0.756235 -0.644905 -0.110486 
0.750292 -0.651351 -0.113154 0.75077 -0.645084 -0.142164 0.581022 -0.813129 -0.0351379 
-0.512808 -0.852224 -0.103645 -0.653504 -0.750681 -0.0970079 -0.638733 -0.763137 -0.0981957 
-0.627546 -0.755917 -0.186484 0.562956 -0.825997 -0.0284544 0.451501 -0.892228 -0.00872999 
0.34176 -0.939179 -0.0338146 -0.357485 -0.923014 -0.142302 -0.485711 -0.867733 -0.105473 
-0.404371 -0.906889 -0.118475 -0.340308 -0.80443 -0.486911 0.340631 -0.939574 -0.0342367 
0.225681 -0.971134 -0.0772475 0.184902 -0.899596 -0.395649 0.147857 -0.982658 -0.111897 
0.129408 -0.982884 -0.131122 0.115345 -0.983932 -0.136287 0.0125863 -0.987998 -0.153956 
-0.147951 -0.975961 -0.160035 -0.272704 -0.947994 -0.164133 -0.19668 -0.757494 -0.622511 
-0.357596 -0.92424 -0.133815 -0.355013 -0.925563 -0.131525 -0.327865 -0.892685 -0.309222 
0.359005 0.754504 -0.549399 0.166721 0.820353 -0.547015 0.0127933 0.838708 -0.544431 
-0.104388 0.850456 -0.515585 -0.243301 0.833717 -0.495703 0.403114 0.721431 -0.56306 
0.458528 0.631346 -0.625423 0.350074 0.692397 -0.630901 0.161008 0.632476 -0.757662 
0.0395145 0.630565 -0.77513 -0.0718605 0.672765 -0.736358 -0.333022 0.800763 -0.497871 
-0.232505 0.731696 -0.640751 -0.343587 0.792774 -0.503445 -0.322569 0.755928 -0.569669 
-0.232799 0.766428 -0.598659 0.377728 0.571742 -0.728308 0.4134 0.601843 -0.68329 
0.395171 0.595017 -0.699853 0.403483 0.478628 -0.779819 0.262784 0.309853 -0.913748 
-0.266504 0.406027 -0.874138 -0.29663 0.580123 -0.758596 -0.236414 0.780012 -0.579387 
-0.222739 0.716746 -0.660805 -0.24082 0.777887 -0.580429 -0.361742 0.68405 -0.633419 
0.380933 0.542325 -0.748848 0.402871 0.469812 -0.785476 0.371018 0.53081 -0.761962 
0.285391 0.396011 -0.87277 0.243264 0.24988 -0.937221 -0.124711 0.275809 -0.953088 
-0.130656 0.42848 -0.894055 -0.169255 0.471525 -0.865458 -0.472278 0.6113 -0.635032 
-0.319047 0.58287 -0.74731 -0.503537 0.576477 -0.643525 0.453343 0.374406 -0.808888 
0.484162 0.237519 -0.842123 0.394249 0.402735 -0.826058 0.245912 0.31457 -0.916828 
0.187071 0.240129 -0.952545 0.122834 0.139197 -0.982617 -0.242615 0.290814 -0.925508 
-0.624949 0.420052 -0.658023 -0.460047 0.378118 -0.803358 -0.739965 0.191142 -0.644916 
0.49464 0.223383 -0.8399 0.484637 0.227254 -0.844679 0.382016 0.223785 -0.896651 
0.204736 0.212475 -0.955477 -0.462661 0.145759 -0.874471 -0.763972 0.0980833 -0.637751 
-0.738727 0.0999873 -0.666548 0.659516 0.00422983 -0.751679 0.577515 0.047562 -0.814993 
0.368636 0.0703609 -0.926907 -0.468223 -0.171873 -0.866733 -0.756854 -0.216925 -0.616535 
-0.753271 -0.237703 -0.613254 -0.747168 -0.215201 -0.628832 0.656533 -0.270146 -0.704263 
0.639486 -0.362612 -0.677916 0.617017 -0.25486 -0.744538 0.387158 -0.212412 -0.897212 
0.138726 -0.163778 -0.976695 -0.299894 -0.300307 -0.905472 -0.68928 -0.465726 -0.55497 
-0.582066 -0.600431 -0.548344 -0.537628 -0.432284 -0.723938 0.582701 -0.525905 -0.619583 
0.522177 -0.574014 -0.630744 0.468112 -0.490599 -0.734972 0.280549 -0.324301 -0.903394 
0.146342 -0.259465 -0.9546 -0.32837 -0.773019 -0.542785 -0.252367 -0.475725 -0.842613 
-0.511222 -0.670501 -0.537663 -0.472091 -0.688459 -0.550595 -0.432698 -0.604083 -0.669221 
0.4082 -0.706673 -0.577915 0.395084 -0.719116 -0.571647 0.38474 -0.688214 -0.61509 
0.282611 -0.750453 -0.597454 0.234618 -0.558328 -0.795754 0.160505 -0.790816 -0.590633 
0.132194 -0.442484 -0.88698 0.0385519 -0.401471 -0.91506 0.037353 -0.379183 -0.924568 
0.0285451 -0.384275 -0.922777 -0.00554024 -0.388252 -0.921537 -0.0662304 -0.398139 -0.914931 
-0.184065 -0.718552 -0.670673 -0.113124 -0.452062 -0.884784 -0.242196 -0.740147 -0.627315 
-0.171023 -0.556596 -0.812989 -0.316671 -0.773962 -0.548363 -0.271834 -0.754473 -0.597391 
-0.228899 -0.68218 -0.694432 0.118341 -0.794588 -0.595504 0.115741 -0.793434 -0.597551 
0.114938 -0.790282 -0.601867 0.0823347 -0.778933 -0.621679 0.0752129 -0.741435 -0.666796 
0.0648277 -0.750919 -0.657204 0.0532442 -0.69101 -0.720881 0.00131518 -0.742362 -0.669998 
-0.00710673 -0.66355 -0.748098 -0.173561 -0.723374 -0.668286 -0.13625 -0.724863 -0.675285 
-0.129165 -0.673172 -0.728118 0.141863 0.264082 -0.95401 0.0787408 0.367874 -0.926536 
-0.0234569 0.435819 -0.899729 -0.162411 0.407201 -0.898782 0.155879 0.251615 -0.955192 
0.176276 0.14417 -0.973726 0.141609 0.243984 -0.959385 0.0902749 0.257486 -0.962056 
0.000173874 0.280483 -0.959859 -0.217042 0.360583 -0.907123 -0.142994 0.306581 -0.941042 
-0.20936 0.27022 -0.93976 0.172143 0.130255 -0.976422 0.159954 0.113392 -0.98059 
0.116593 0.0346799 -0.992574 0.0984458 0.0338565 -0.994566 -0.000167289 0.00743768 -0.999972 
-0.11266 0.0415091 -0.992766 -0.127735 0.243019 -0.961575 -0.145788 0.121804 -0.981789 
-0.107765 0.25778 -0.960175 -0.0963605 0.338897 -0.935876 -0.141342 0.320225 -0.936738 
0.121746 0.159249 -0.979703 0.112777 0.123678 -0.985893 0.111763 0.130379 -0.985145 
0.0579643 0.0410581 -0.997474 0.0676814 0.0764069 -0.994777 0.0666045 0.04112 -0.996932 
0.00699396 -0.0486633 -0.998791 -0.0325024 0.0159357 -0.999345 -0.019926 0.0476595 -0.998665 
0.0088845 0.145878 -0.989263 -0.0511913 0.233844 -0.970926 -0.183122 0.283324 -0.941379 
-0.139331 0.281959 -0.949255 -0.22031 0.219278 -0.950463 0.128655 0.159635 -0.978757 
0.13944 0.0740217 -0.98746 0.106449 0.142019 -0.984123 0.0380042 0.0745107 -0.996496 
0.0948772 -0.00450297 -0.995479 0.12452 0.0647053 -0.990105 -0.0356233 0.0310317 -0.998883 
-0.0272835 0.0205246 -0.999417 -0.0182999 -0.0402591 -0.999022 -0.0183735 -0.0191703 -0.999647 
0.065664 0.0297147 -0.997399 0.0181097 0.0698759 -0.997391 -0.082358 0.114092 -0.990051 
-0.359045 0.138407 -0.923001 -0.203704 0.124697 -0.971059 0.174648 0.0465351 -0.983531 
0.129115 -0.0433381 -0.990682 0.127476 0.0391448 -0.991069 0.0506835 0.0137036 -0.998621 
-0.0231895 -0.00610138 -0.999712 0.0389262 -0.0317196 -0.998739 0.104666 -0.122093 -0.986985 
0.0262957 -0.0927261 -0.995344 -0.0625238 0.0202692 -0.997838 -0.0744719 -0.0801621 -0.993996 
0.0553765 -0.0406118 -0.997639 0.0979442 -0.0230355 -0.994925 0.0348108 -0.0268889 -0.999032 
-0.0847552 -0.073557 -0.993683 -0.356409 -0.152374 -0.921821 -0.265063 -0.226302 -0.937299 
-0.216948 -0.116605 -0.969194 0.106088 -0.126165 -0.98632 0.130481 -0.221166 -0.966468 
0.0619686 -0.0705857 -0.995579 -0.00705233 -0.0580853 -0.998287 -0.00940406 -0.0327156 -0.99942 
0.0574729 -0.0762615 -0.99543 0.105587 -0.0813307 -0.991079 -0.0117787 -0.0532309 -0.998513 
-0.0806783 -0.0127122 -0.996659 0.0359953 -0.042315 -0.998456 0.0766231 -0.11256 -0.990686 
-0.0332996 -0.158822 -0.986745 -0.248576 -0.276313 -0.928365 -0.195743 -0.333961 -0.922038 
-0.16804 -0.249884 -0.953583 0.0784676 -0.213919 -0.973695 0.017553 -0.182608 -0.983029 
0.0115652 -0.16895 -0.985557 0.0212575 -0.14579 -0.989087 0.0210895 -0.14174 -0.989679 
0.0484896 -0.18202 -0.982099 0.0512961 -0.126402 -0.990652 0.0434818 -0.242938 -0.969067 
0.0529917 -0.156297 -0.986288 -5.44071e-05 -0.298751 -0.954331 0.00466606 -0.197572 -0.980277 
-0.0594898 -0.246015 -0.967439 -0.0594878 -0.147059 -0.987337 -0.0491748 -0.221957 -0.973816 
-0.0409329 -0.181486 -0.982541 -0.0231806 -0.296897 -0.954628 -0.0108507 -0.27463 -0.961489 
-0.135893 -0.405213 -0.904066 -0.126467 -0.410653 -0.902978 -0.120239 -0.397769 -0.909573 

