# vtk DataFile Version 4.2
vtk output
ASCII
DATASET POLYDATA
POINTS 544 float
-38.3417 -34.082 -16.7806 -29.8492 -34.082 -16.826 -21.3566 -34.082 -17.1482 
-12.8641 -34.082 -16.6925 -4.37158 -34.082 -16.6198 4.12095 -34.082 -16.7645 
12.6135 -34.082 -17.1109 21.106 -34.082 -17.4708 29.5985 -34.082 -16.2086 
-46.8342 -25.5895 -17.4045 -38.3417 -25.5895 -19.3087 -29.8492 -25.5895 -19.2909 
-21.3566 -25.5895 -18.5337 -12.8641 -25.5895 -18.289 -4.37158 -25.5895 -18.1153 
4.12095 -25.5895 -18.1388 12.6135 -25.5895 -18.8755 21.106 -25.5895 -18.8742 
29.5985 -25.5895 -18.5067 38.091 -25.5895 -17.691 46.5836 -25.5895 -15.9884 
-55.3267 -17.0969 -16.4339 -46.8342 -17.0969 -20.2661 -38.3417 -17.0969 -20.6712 
-29.8492 -17.0969 -19.9741 -21.3566 -17.0969 -19.0055 -12.8641 -17.0969 -18.5481 
-4.37158 -17.0969 -19.3942 4.12095 -17.0969 -19.016 12.6135 -17.0969 -19.2984 
21.106 -17.0969 -18.8151 29.5985 -17.0969 -18.8329 38.091 -17.0969 -18.7548 
46.5836 -17.0969 -17.7941 55.0761 -17.0969 -15.5373 -55.3267 -8.60441 -17.9753 
-46.8342 -8.60441 -20.577 -38.3417 -8.60441 -21.5673 -29.8492 -8.60441 -20.2499 
-21.3566 -8.60441 -18.5606 -12.8641 -8.60441 -19.9015 -4.37158 -8.60441 -21.1023 
4.12095 -8.60441 -19.9939 12.6135 -8.60441 -21.0241 21.106 -8.60441 -18.1599 
29.5985 -8.60441 -18.7951 38.091 -8.60441 -19.3705 46.5836 -8.60441 -19.2944 
55.0761 -8.60441 -17.2888 -55.3267 -0.111887 -18.7096 -46.8342 -0.111887 -20.5418 
-38.3417 -0.111887 -21.7126 -29.8492 -0.111887 -20.4491 -21.3566 -0.111887 -17.9737 
-12.8641 -0.111887 -21.5192 -4.37158 -0.111887 -20.4749 4.12095 -0.111887 -17.9516 
12.6135 -0.111887 -23.1366 21.106 -0.111887 -17.9149 29.5985 -0.111887 -18.863 
38.091 -0.111887 -19.5948 46.5836 -0.111887 -19.528 55.0761 -0.111887 -17.6024 
-55.3267 8.38064 -17.9934 -46.8342 8.38064 -20.7429 -38.3417 8.38064 -22.5468 
-29.8492 8.38064 -21.1543 -21.3566 8.38064 -20.0558 -12.8641 8.38064 -21.1117 
-4.37158 8.38064 -20.5964 4.12095 8.38064 -19.9449 12.6135 8.38064 -18.8196 
21.106 8.38064 -17.4845 29.5985 8.38064 -18.5865 38.091 8.38064 -19.138 
46.5836 8.38064 -18.6105 55.0761 8.38064 -16.293 -55.3267 16.8732 -16.0226 
-46.8342 16.8732 -20.497 -38.3417 16.8732 -22.1434 -29.8492 16.8732 -21.9696 
-21.3566 16.8732 -21.8541 -12.8641 16.8732 -21.4701 -4.37158 16.8732 -20.7175 
4.12095 16.8732 -18.794 12.6135 16.8732 -16.2493 21.106 16.8732 -16.9913 
29.5985 16.8732 -17.9626 38.091 16.8732 -18.3587 46.5836 16.8732 -16.644 
-46.8342 25.3657 -17.7734 -38.3417 25.3657 -20.1829 -29.8492 25.3657 -21.6775 
-21.3566 25.3657 -21.3926 -12.8641 25.3657 -20.223 -4.37158 25.3657 -17.9787 
4.12095 25.3657 -16.0339 12.6135 25.3657 -15.7923 21.106 25.3657 -15.9736 
29.5985 25.3657 -16.635 38.091 25.3657 -15.6695 -29.8492 33.8582 -16.8838 
-21.3566 33.8582 -16.6513 -12.8641 33.8582 -15.9943 -38.3417 -36.583 -15.1856 
-38.3417 -42.5745 -7.11507 -29.8492 -36.9343 -15.1856 -29.8492 -42.5745 -10.9894 
-21.3566 -38.6169 -15.1856 -21.3566 -42.5745 -12.7749 -12.8641 -39.3696 -15.1856 
-12.8641 -42.5745 -13.9387 -4.37158 -37.9039 -15.1856 -4.37158 -42.5745 -13.1987 
4.12095 -38.2732 -15.1856 4.12095 -42.5745 -13.2934 12.6135 -38.6542 -15.1856 
12.6135 -42.5745 -13.1598 21.106 -39.0579 -15.1856 21.106 -42.5745 -12.6714 
29.5985 -35.7998 -15.1856 29.5985 -42.5745 -9.19551 -42.4211 -34.082 -15.1856 
-46.8342 -30.0851 -15.1856 -46.8342 -34.082 -12.2597 34.9334 -34.082 -15.1856 
38.091 -32.458 -15.1856 38.091 -34.082 -14.3906 46.5836 -27.0039 -15.1856 
46.5836 -34.082 -8.52549 -51.4382 -25.5895 -15.1856 -55.3267 -20.5448 -15.1856 
-55.3267 -25.5895 -12.0838 48.2263 -25.5895 -15.1856 55.0761 -17.7467 -15.1856 
55.0761 -25.5895 -9.9144 -57.1422 -17.0969 -15.1856 55.6752 -17.0969 -15.1856 
63.5686 -17.0969 -7.87969 -58.8509 -8.60441 -15.1856 58.859 -8.60441 -15.1856 
63.5686 -8.60441 -11.0749 -59.8969 -0.111887 -15.1856 -63.8193 -0.111887 -7.69946 
58.9506 -0.111887 -15.1856 63.5686 -0.111887 -10.7687 -58.8899 8.38064 -15.1856 
57.3453 8.38064 -15.1856 55.0761 11.8026 -15.1856 63.5686 8.38064 -9.24281 
-56.5378 16.8732 -15.1856 -55.3267 18.8948 -15.1856 50.5737 16.8732 -15.1856 
46.5836 21.6819 -15.1856 55.0761 16.8732 -12.9908 -51.0522 25.3657 -15.1856 
-55.3267 25.3657 -10.3476 -46.8342 29.5409 -15.1856 -38.3417 33.7857 -15.1856 
-4.37158 30.0312 -15.1856 4.12095 27.6027 -15.1856 12.6135 27.7249 -15.1856 
21.106 28.4727 -15.1856 29.5985 29.4367 -15.1856 40.6597 25.3657 -15.1856 
38.091 26.642 -15.1856 46.5836 25.3657 -13.863 -46.8342 33.8582 -8.66266 
-38.0689 33.8582 -15.1856 -38.3417 33.8582 -15.107 -29.8492 35.5318 -15.1856 
-21.3566 35.3261 -15.1856 -10.7 33.8582 -15.1856 -12.8641 34.6991 -15.1856 
-4.37158 33.8582 -12.9681 4.12095 33.8582 -12.7902 12.6135 33.8582 -13.3864 
21.106 33.8582 -13.7378 29.5985 33.8582 -13.4825 38.091 33.8582 -12.2732 
46.5836 33.8582 -7.06538 -4.37158 42.3507 -7.31295 4.12095 42.3507 -8.62944 
12.6135 42.3507 -9.92684 21.106 42.3507 -9.91716 29.5985 42.3507 -8.65524 
-38.3417 -42.8032 -6.69305 -29.8492 -45.6953 -6.69305 -21.3566 -47.615 -6.69305 
-12.8641 -48.7492 -6.69305 -4.37158 -49.3747 -6.69305 4.12095 -49.2915 -6.69305 
12.6135 -48.4773 -6.69305 21.106 -46.9562 -6.69305 29.5985 -44.3002 -6.69305 
-38.8674 -42.5745 -6.69305 -46.8342 -38.5 -6.69305 33.6117 -42.5745 -6.69305 
38.091 -40.5113 -6.69305 46.5836 -35.4671 -6.69305 -52.2542 -34.082 -6.69305 
-55.3267 -30.7263 -6.69305 48.5719 -34.082 -6.69305 55.0761 -28.6583 -6.69305 
-58.3551 -25.5895 -6.69305 58.1122 -25.5895 -6.69305 63.5686 -18.2773 -6.69305 
-61.7175 -17.0969 -6.69305 64.2229 -17.0969 -6.69305 -63.1747 -8.60441 -6.69305 
-63.8193 -3.47822 -6.69305 66.871 -8.60441 -6.69305 -64.2217 -0.111887 -6.69305 
-63.8193 6.16093 -6.69305 -63.8193 -0.111887 -3.79658 66.6243 -0.111887 -6.69305 
-63.6668 8.38064 -6.69305 65.0362 8.38064 -6.69305 63.5686 11.7208 -6.69305 
-62.0155 16.8732 -6.69305 61.0279 16.8732 -6.69305 55.0761 24.8091 -6.69305 
-57.804 25.3657 -6.69305 -55.3267 28.3231 -6.69305 54.6358 25.3657 -6.69305 
55.0761 25.3657 -4.52655 -48.3538 33.8582 -6.69305 -46.8342 34.7438 -6.69305 
-38.3417 38.7338 -6.69305 -29.8492 40.9187 -6.69305 -21.3566 41.8221 -6.69305 
-12.8641 42.2429 -6.69305 38.091 40.5199 -6.69305 46.8678 33.8582 -6.69305 
46.5836 34.1517 -6.69305 -29.8492 42.3507 -2.37441 -21.3566 42.3507 -5.72712 
-11.7393 42.3507 -6.69305 -12.8641 42.3507 -6.55821 -4.37158 43.121 -6.69305 
4.12095 45.1673 -6.69305 12.6135 46.6203 -6.69305 21.106 46.5951 -6.69305 
34.1985 42.3507 -6.69305 29.5985 44.7687 -6.69305 38.091 42.3507 -3.55367 
4.12095 50.8433 0.099801 12.6135 50.8433 -0.66562 21.106 50.8433 -0.0744969 
-38.3417 -43.2161 1.79947 -29.8492 -46.4242 1.79947 -21.3566 -48.6128 1.79947 
-12.8641 -50.1616 1.79947 -4.37158 -50.9126 1.79947 4.12095 -50.9134 1.79947 
12.6135 -50.0345 1.79947 21.106 -48.1801 1.79947 29.5985 -45.3284 1.79947 
-39.5899 -42.5745 1.79947 -46.8342 -38.2353 1.79947 -38.3417 -42.5745 3.24112 
-29.8492 -42.5745 10.1898 35.646 -42.5745 1.79947 29.5985 -42.5745 9.74398 
38.091 -41.3696 1.79947 46.5836 -36.2593 1.79947 -51.2742 -34.082 1.79947 
-55.3267 -28.6083 1.79947 -46.8342 -34.082 8.86599 49.4903 -34.082 1.79947 
46.5836 -34.082 6.25945 55.0761 -29.3633 1.79947 -57.3931 -25.5895 1.79947 
-55.3267 -25.5895 5.13284 58.7188 -25.5895 1.79947 55.0761 -25.5895 7.44413 
63.5686 -18.5661 1.79947 -59.6718 -17.0969 1.79947 -55.3267 -17.0969 8.67085 
64.421 -17.0969 1.79947 63.5686 -17.0969 3.26063 -61.2241 -8.60441 1.79947 
66.8765 -8.60441 1.79947 63.5686 -8.60441 7.49024 -62.9026 -0.111887 1.79947 
66.596 -0.111887 1.79947 63.5686 -0.111887 7.00431 -62.6229 8.38064 1.79947 
64.967 8.38064 1.79947 63.5686 11.6455 1.79947 63.5686 8.38064 4.21425 
-62.0011 16.8732 1.79947 61.3465 16.8732 1.79947 -58.3994 25.3657 1.79947 
-55.3267 29.4309 1.79947 -55.3267 25.3657 10.2621 56.1619 25.3657 1.79947 
55.0761 26.9677 1.79947 55.0761 25.3657 3.83796 -50.3914 33.8582 1.79947 
-46.8342 36.2598 1.79947 -46.8342 33.8582 9.79769 -38.3417 40.3905 1.79947 
49.9885 33.8582 1.79947 46.5836 37.8044 1.79947 46.5836 33.8582 8.37313 
-33.1315 42.3507 1.79947 -29.8492 43.6511 1.79947 -29.8492 42.3507 10.13 
-21.3566 45.9819 1.79947 -12.8641 47.9153 1.79947 -4.37158 50.0522 1.79947 
29.5985 49.4579 1.79947 41.777 42.3507 1.79947 38.091 45.267 1.79947 
38.091 42.3507 8.70116 -0.726515 50.8433 1.79947 4.12095 51.7174 1.79947 
12.6135 52.0712 1.79947 24.3091 50.8433 1.79947 21.106 51.6305 1.79947 
21.106 50.8433 6.00761 -21.3566 -44.0503 10.292 -12.8641 -45.8486 10.292 
-4.37158 -46.9191 10.292 4.12095 -47.0691 10.292 12.6135 -46.3687 10.292 
21.106 -44.7779 10.292 -38.3417 -38.239 10.292 -29.5272 -42.5745 10.292 
-29.8492 -42.5033 10.292 -21.3566 -42.5745 11.8265 -12.8641 -42.5745 13.4814 
-4.37158 -42.5745 14.3515 4.12095 -42.5745 14.4445 12.6135 -42.5745 14.1356 
28.853 -42.5745 10.292 21.106 -42.5745 12.8239 29.5985 -42.3173 10.292 
38.091 -37.3736 10.292 -45.1958 -34.082 10.292 -46.8342 -32.3624 10.292 
-38.3417 -34.082 13.777 -29.8492 -34.082 16.4545 -21.3566 -34.082 17.6787 
-12.8641 -34.082 18.4004 12.6135 -34.082 18.7088 21.106 -34.082 18.2334 
29.5985 -34.082 16.9975 43.0726 -34.082 10.292 38.091 -34.082 13.4838 
46.5836 -31.1417 10.292 -51.1229 -25.5895 10.292 -46.8342 -25.5895 13.7267 
-38.3417 -25.5895 18.0865 38.091 -25.5895 17.9125 52.4238 -25.5895 10.292 
46.5836 -25.5895 14.6394 55.0761 -22.8777 10.292 -53.8705 -17.0969 10.292 
-55.3267 -10.6324 10.292 -46.8342 -17.0969 15.4947 46.5836 -17.0969 16.9633 
58.857 -17.0969 10.292 55.0761 -17.0969 13.5276 -55.6937 -8.60441 10.292 
-55.3267 -8.60441 10.6677 -46.8342 -8.60441 16.5828 46.5836 -8.60441 17.9008 
61.0244 -8.60441 10.292 55.0761 -8.60441 14.57 -57.3175 -0.111887 10.292 
-55.3267 -0.111887 12.3198 -46.8342 -0.111887 17.394 21.106 -0.111887 18.6147 
46.5836 -0.111887 17.7873 60.6474 -0.111887 10.292 55.0761 -0.111887 14.4511 
-58.0281 8.38064 10.292 -55.3267 8.38064 13.1252 -46.8342 8.38064 18.0701 
46.5836 8.38064 17.0723 58.9564 8.38064 10.292 55.0761 8.38064 13.3401 
[...]
POINT_DATA 544
SCALARS ImageScalars float
LOOKUP_TABLE default
0 0 0 0 0 0 0 0 0 
0 0 0 0 0 0 0 0 0 
0 0 0 0 0 0 0 0 0 
0 0 0 0 0 0 0 0 0 
0 0 0 0 0 0 0 0 0 
0 0 0 0 0 0 0 0 0 
0 0 0 0 0 0 0 0 0 
0 0 0 0 0 0 0 0 0 
0 0 0 0 0 0 0 0 0 
0 0 0 0 0 0 0 0 0 
0 0 0 0 0 0 0 0 0 
0 0 0 0 0 0 0 0 0 
0 0 0 0 0 0 0 0 0 
0 0 0 0 0 0 0 0 0 
0 0 0 0 0 0 0 0 0 
0 0 0 0 0 0 0 0 0 
0 0 0 0 0 0 0 0 0 
0 0 0 0 0 0 0 0 0 
0 0 0 0 0 0 0 0 0 
0 0 0 0 0 0 0 0 0 
0 0 0 0 0 0 0 0 0 
0 0 0 0 0 0 0 0 0 
0 0 0 0 0 0 0 0 0 
0 0 0 0 0 0 0 0 0 
0 0 0 0 0 0 0 0 0 
0 0 0 0 0 0 0 0 0 
0 0 0 0 0 0 0 0 0 
0 0 0 0 0 0 0 0 0 
0 0 0 0 0 0 0 0 0 
0 0 0 0 0 0 0 0 0 
0 0 0 0 0 0 0 0 0 
0 0 0 0 0 0 0 0 0 
0 0 0 0 0 0 0 0 0 
0 0 0 0 0 0 0 0 0 
0 0 0 0 0 0 0 0 0 
0 0 0 0 0 0 0 0 0 
0 0 0 0 0 0 0 0 0 
0 0 0 0 0 0 0 0 0 
0 0 0 0 0 0 0 0 0 
0 0 0 0 0 0 0 0 0 
0 0 0 0 0 0 0 0 0 
0 0 0 0 0 0 0 0 0 
0 0 0 0 0 0 0 0 0 
0 0 0 0 0 0 0 0 0 
0 0 0 0 0 0 0 0 0 
0 0 0 0 0 0 0 0 0 
0 0 0 0 0 0 0 0 0 
0 0 0 0 0 0 0 0 0 
0 0 0 0 0 0 0 0 0 
0 0 0 0 0 0 0 0 0 
0 0 0 0 0 0 0 0 0 
0 0 0 0 0 0 0 0 0 
0 0 0 0 0 0 0 0 0 
0 0 0 0 0 0 0 0 0 
0 0 0 0 0 0 0 0 0 
0 0 0 0 0 0 0 0 0 
0 0 0 0 0 0 0 0 0 
0 0 0 0 0 0 0 0 0 
0 0 0 0 0 0 0 0 0 
0 0 0 0 0 0 0 0 0 
0 0 0 0 
NORMALS Normals float
0.170562 0.455242 0.873878 0.0226152 0.402259 0.915247 -0.00942597 0.29315 0.95602 
-0.0313999 0.232357 0.972124 0.0039976 0.258414 0.966026 0.0277615 0.259004 0.965477 
0.0409123 0.289656 0.956256 -0.0452544 0.301796 0.952298 -0.168078 0.405746 0.898399 
0.304884 0.343146 0.888424 0.0966705 0.225556 0.969422 -0.0460296 0.166409 0.984982 
-0.0567081 0.106106 0.992736 -0.0249835 0.10557 0.994098 -0.00855026 0.154547 0.987948 
0.0423258 0.125495 0.991191 0.0454963 0.12534 0.99107 -0.021568 0.0792016 0.996625 
-0.0633447 0.135024 0.988815 -0.153749 0.241184 0.958223 -0.317023 0.363234 0.876104 
0.53506 0.250622 0.806783 0.244817 0.181555 0.952419 -0.0200052 0.137333 0.990323 
-0.0916149 0.0550678 0.994271 -0.0873928 0.00156814 0.996173 0.0235163 0.072648 0.99708 
0.0286274 0.171965 0.984687 -0.00484891 0.105893 0.994366 -0.0104366 0.110977 0.993768 
-0.0279893 -0.0432176 0.998674 -0.00359182 0.017094 0.999847 -0.0573267 0.0920458 0.994103 
-0.161579 0.190413 0.968316 -0.383764 0.344403 0.856803 0.513385 0.129531 0.848326 
0.198028 0.0135607 0.980103 -0.0134125 0.0597313 0.998124 -0.173386 0.0275367 0.984469 
-0.0448088 -0.0594966 0.997222 0.171106 0.159308 0.972288 -0.0091788 0.0846319 0.99637 
-0.00714128 -0.0225864 0.999719 -0.127555 0.207889 0.9698 -0.109174 -0.0515348 0.992686 
0.0710754 0.0017681 0.997469 0.0296184 0.049202 0.99835 -0.134544 0.0998887 0.98586 
-0.365857 0.0989937 0.925391 0.437348 0.00106853 0.899292 0.166895 0.0104113 0.98592 
-0.00590579 0.0597967 0.998193 -0.207111 0.049534 0.977063 -0.0305934 0.0825346 0.996118 
0.219328 0.0603303 0.973784 -0.180151 -0.0371505 0.982937 0.177244 -0.00304199 0.984162 
-0.141484 -0.0997948 0.984898 -0.163855 -0.0418597 0.985596 0.09836 -0.0121718 0.995076 
0.0393205 -0.013592 0.999134 -0.129784 -0.0397923 0.990744 -0.387864 -0.051288 0.920289 
0.511315 -0.146322 0.846845 0.249407 -0.000595946 0.968399 0.0387073 0.0197956 0.999054 
-0.14449 0.0921581 0.985205 -0.0016695 0.227409 0.973798 0.0326343 0.00831601 0.999433 
-0.0691027 0.0123216 0.997533 -0.0906346 0.0166153 0.995746 -0.155258 -0.366298 0.917454 
0.00711629 -0.0547301 0.998476 0.0966596 -0.0522416 0.993946 0.0028534 -0.0751925 0.997165 
-0.162023 -0.163124 0.973211 -0.361665 -0.228099 0.903974 0.546699 -0.295355 0.783509 
0.320735 -0.158089 0.933883 0.0756516 -0.143295 0.986784 -0.0166339 0.028077 0.999467 
-0.0291652 0.0726183 0.996933 -0.0659904 -0.0509321 0.99652 -0.143984 -0.13092 0.980882 
-0.268305 -0.215464 0.938929 -0.088189 -0.139578 0.986276 0.100694 -0.0884541 0.990978 
0.0818776 -0.117463 0.989696 -0.0693918 -0.188862 0.979549 -0.265029 -0.253693 0.930268 
0.390848 -0.408954 0.824618 0.204924 -0.334067 0.920003 0.0726144 -0.23398 0.969526 
-0.0843721 -0.244556 0.965957 -0.181027 -0.284208 0.941517 -0.235091 -0.404205 0.88394 
-0.113992 -0.322394 0.939717 -0.00246611 -0.154957 0.987918 0.0510286 -0.181494 0.982067 
-0.0145933 -0.247933 0.968667 -0.143358 -0.336307 0.930777 0.072948 -0.666882 0.741584 
-0.0438783 -0.653004 0.756082 -0.182692 -0.635548 0.750135 0.204431 0.578255 0.789828 
0.357565 0.887571 0.290456 0.0594497 0.473924 0.878557 0.20192 0.748381 0.631786 
0.061662 0.452485 0.889638 0.123193 0.648098 0.751526 -0.0119537 0.406112 0.913745 
0.0131259 0.552667 0.833299 -0.0157102 0.363123 0.931609 -0.0273692 0.542902 0.83935 
0.0171626 0.382589 0.923759 -0.00143995 0.549 0.835821 0.019575 0.427332 0.903883 
-0.026758 0.602997 0.797294 -0.0939969 0.478997 0.872769 -0.153799 0.676647 0.720065 
-0.195708 0.464854 0.863487 -0.330174 0.806373 0.490661 0.300692 0.529278 0.793378 
0.391103 0.467402 0.792827 0.488968 0.652535 0.578885 -0.248973 0.473706 0.844758 
-0.267673 0.45793 0.847733 -0.308347 0.532263 0.788428 -0.339155 0.409778 0.846791 
-0.507141 0.74777 0.428543 0.4836 0.389674 0.783763 0.574091 0.328574 0.749972 
0.735638 0.443396 0.512091 -0.357722 0.391105 0.847981 -0.395366 0.361165 0.844539 
-0.61825 0.589093 0.520323 0.616395 0.263514 0.742036 -0.407093 0.347157 0.844842 
-0.853332 0.393787 0.341695 0.706996 0.116424 0.697568 -0.506923 0.0922107 0.857045 
-0.789552 0.0905187 0.606971 0.712251 0.00211803 0.701922 0.983121 0.0254999 0.18117 
-0.542237 -0.040407 0.839254 -0.814415 -0.0595717 0.577217 0.694462 -0.134443 0.706858 
-0.445958 -0.235035 0.863643 -0.413082 -0.269543 0.869891 -0.861059 -0.282638 0.422721 
0.589618 -0.304962 0.747896 0.575576 -0.354409 0.736957 -0.377206 -0.276964 0.883746 
-0.268243 -0.28346 0.920704 -0.557811 -0.373074 0.741392 0.543267 -0.455752 0.70509 
0.712663 -0.542866 0.444306 0.43527 -0.573906 0.693666 0.228242 -0.686106 0.690771 
-0.202563 -0.487097 0.849532 -0.0716952 -0.337703 0.938518 0.0135235 -0.2068 0.97829 
0.0328524 -0.233468 0.971809 -0.0434872 -0.320145 0.94637 -0.176115 -0.330717 0.927152 
-0.141389 -0.344352 0.928133 -0.307611 -0.35495 0.882828 0.467379 -0.814739 0.343157 
0.223334 -0.688885 0.689608 0.229278 -0.690415 0.686118 0.0681881 -0.727299 0.682925 
-0.0399405 -0.697641 0.715333 -0.179353 -0.621186 0.762863 -0.170791 -0.662141 0.729657 
-0.131999 -0.529456 0.838005 0.0229038 -0.396456 0.917768 0.0521663 -0.336122 0.940373 
0.00478705 -0.32872 0.944415 -0.0752646 -0.405103 0.911168 -0.211658 -0.46322 0.860598 
-0.619347 -0.663137 0.420308 0.101244 -0.629751 0.770171 0.135367 -0.521985 0.842145 
0.0695956 -0.512739 0.855719 -0.063947 -0.54435 0.836417 -0.211356 -0.612482 0.761704 
0.361469 0.891861 0.271889 0.261755 0.904585 0.336466 0.171979 0.898794 0.403228 
0.0963651 0.896686 0.432051 0.0285547 0.889884 0.455292 -0.0486391 0.88532 0.46243 
-0.126568 0.892052 0.433848 -0.223949 0.905086 0.361477 -0.336266 0.873856 0.351142 
0.371794 0.888489 0.268992 0.535125 0.80643 0.251619 -0.387475 0.853711 0.34791 
-0.438558 0.830568 0.343256 -0.522247 0.788376 0.325147 0.687167 0.702331 0.185828 
0.799418 0.582222 0.14815 -0.546079 0.773786 0.321019 -0.650952 0.688166 0.320451 
0.884378 0.43717 0.163581 -0.708141 0.629057 0.320662 -0.860744 0.433969 0.266064 
0.957251 0.282469 0.0622976 -0.87505 0.402811 0.268387 0.986385 0.13857 0.0885597 
0.991152 0.0709717 0.112164 -0.934812 0.142324 0.325378 0.990761 0.0284831 0.132594 
0.985618 -0.0783909 0.149706 0.998722 0.0474312 -0.0174341 -0.940528 -0.098203 0.325212 
0.980579 -0.116868 0.157504 -0.91522 -0.310446 0.256896 -0.890103 -0.374267 0.260079 
0.935916 -0.285441 0.206358 -0.81804 -0.485528 0.30834 -0.761723 -0.576667 0.295353 
0.786714 -0.552921 0.274517 0.728916 -0.618189 0.294149 -0.756858 -0.580193 0.300902 
-0.797298 -0.579009 0.170485 0.514229 -0.814886 0.26745 0.466391 -0.842826 0.268559 
0.304042 -0.902851 0.304004 0.171769 -0.896813 0.407704 0.0648952 -0.849357 0.523815 
0.056248 -0.750116 0.65891 -0.398986 -0.720886 0.566686 -0.630378 -0.665823 0.399129 
-0.625327 -0.668664 0.402311 0.257707 -0.937606 0.233413 0.086837 -0.868228 0.488507 
0.0647583 -0.736001 0.673876 0.0598842 -0.753719 0.654462 0.113868 -0.646412 0.754444 
0.141707 -0.61267 0.777531 0.0541827 -0.67718 0.73382 -0.075372 -0.698058 0.712064 
-0.333559 -0.703053 0.628057 -0.24793 -0.689894 0.68013 -0.488736 -0.798202 0.35215 
0.118936 -0.934752 0.334803 0.00905995 -0.933376 0.358786 -0.135682 -0.962879 0.233356 
0.407852 0.895996 -0.175636 0.297965 0.94275 -0.1498 0.218285 0.962336 -0.162051 
0.132866 0.9828 -0.128263 0.0432596 0.993571 -0.104624 -0.0516398 0.994461 -0.0915455 
-0.156403 0.983143 -0.0946957 -0.263189 0.959392 -0.101483 -0.362148 0.926881 -0.0986915 
0.433 0.882539 -0.1834 0.610732 0.758367 -0.227784 0.41469 0.87868 -0.236544 
0.246578 0.758672 -0.603006 -0.446486 0.887092 -0.117123 -0.34187 0.80944 -0.477422 
-0.480175 0.867295 -0.131267 -0.562008 0.813114 -0.151632 0.706109 0.656496 -0.265375 
0.807572 0.494622 -0.321211 0.58973 0.585435 -0.556314 -0.593892 0.78782 -0.163192 
-0.560045 0.738062 -0.376317 -0.676616 0.712204 -0.186963 0.860301 0.402524 -0.312821 
0.795367 0.400527 -0.454939 -0.748317 0.630408 -0.206415 -0.640756 0.593197 -0.487389 
-0.865635 0.433326 -0.250809 0.8969 0.205876 -0.39139 0.758219 0.183725 -0.625579 
-0.883986 0.396522 -0.247669 -0.863454 0.395175 -0.313503 0.907515 0.17389 -0.382334 
-0.963148 0.127295 -0.236942 -0.795663 0.132514 -0.591067 0.932036 0.0861043 -0.351987 
-0.966066 -0.100282 -0.238032 -0.821487 -0.105225 -0.560434 0.952486 -0.050381 -0.300387 
-0.922979 -0.296842 -0.244939 -0.901276 -0.354699 -0.248777 -0.881932 -0.296551 -0.366407 
0.9523 -0.225299 -0.205826 -0.864184 -0.446923 -0.231185 0.850177 -0.509558 -0.132476 
0.760815 -0.639179 -0.112299 0.723317 -0.450597 -0.523235 -0.831717 -0.536624 -0.14241 
-0.821688 -0.551962 -0.142012 -0.806877 -0.52944 -0.261997 0.601631 -0.795053 -0.0770183 
0.523573 -0.850813 -0.0446003 0.554824 -0.71448 -0.42625 0.377801 -0.925796 0.012997 
-0.768884 -0.634734 -0.0770095 -0.725859 -0.6861 -0.0489378 -0.692442 -0.531478 -0.487909 
0.34078 -0.93843 0.0567368 0.319314 -0.944669 0.0750921 0.362273 -0.870309 -0.333648 
0.229364 -0.953809 0.194012 0.222871 -0.930133 0.291857 0.207305 -0.93385 0.291461 
-0.322427 -0.945462 0.0462934 -0.632812 -0.774252 0.00915738 -0.554896 -0.831185 0.034963 
-0.526933 -0.706744 -0.472074 0.167602 -0.94904 0.266893 0.114348 -0.965065 0.235742 
-0.00533009 -0.975138 0.221533 -0.213432 -0.972662 0.0915134 -0.149645 -0.981648 0.118209 
-0.211784 -0.962103 -0.17177 0.159977 0.750328 -0.641417 0.134119 0.763401 -0.631847 
0.0573521 0.776933 -0.626965 -0.0277399 0.780798 -0.624167 -0.113451 0.795201 -0.595637 
-0.205558 0.804354 -0.557459 0.382639 0.670976 -0.635121 0.242036 0.754589 -0.60993 
0.245395 0.754007 -0.609306 0.149595 0.703481 -0.694792 0.117301 0.645388 -0.754795 
0.0460605 0.603349 -0.796146 -0.0103129 0.598788 -0.800842 -0.0733112 0.630082 -0.77306 
-0.325584 0.795598 -0.5109 -0.17823 0.724812 -0.665494 -0.337026 0.7915 -0.509845 
-0.451565 0.690176 -0.565461 0.528394 0.559557 -0.638511 0.5702 0.508514 -0.645202 
0.336394 0.526546 -0.780762 0.189549 0.446676 -0.874387 0.104933 0.395247 -0.912562 
0.0643687 0.331982 -0.941087 -0.0322314 0.300473 -0.953246 -0.0878832 0.354718 -0.930834 
-0.224861 0.441947 -0.868401 -0.493004 0.643559 -0.585474 -0.417217 0.581211 -0.698658 
-0.515888 0.603586 -0.6079 0.642268 0.333802 -0.689977 0.534774 0.288052 -0.794382 
0.277816 0.273777 -0.920796 -0.258924 0.267622 -0.928082 -0.56052 0.528924 -0.637226 
-0.457164 0.418346 -0.784849 -0.595375 0.4623 -0.65712 0.701773 0.171343 -0.691489 
0.711265 0.146341 -0.687522 0.516373 0.137352 -0.845277 -0.319783 0.15163 -0.935279 
-0.672638 0.31204 -0.670962 -0.529528 0.278545 -0.801257 0.712352 0.14088 -0.687537 
0.701499 0.140112 -0.698762 0.457025 0.0998475 -0.883832 -0.259981 0.0488935 -0.964375 
-0.645404 0.0962861 -0.757748 -0.483965 0.0535609 -0.873447 0.728146 0.117649 -0.67525 
0.668391 0.119315 -0.734178 0.380641 0.082237 -0.921059 -0.0520233 -0.0221424 -0.9984 
-0.254595 -0.0465113 -0.965929 -0.64773 -0.0825364 -0.757386 -0.488263 -0.0605317 -0.870595 
0.76197 0.0299167 -0.646921 0.651418 0.035704 -0.757878 0.396019 0.0376627 -0.91747 
-0.289183 -0.11257 -0.950632 -0.641846 -0.219836 -0.734647 -0.516415 -0.183646 -0.836415 
0.790003 -0.144937 -0.595725 0.722977 -0.44894 -0.525126 0.672783 -0.125424 -0.729131 
0.366606 -0.107564 -0.924138 -0.211422 -0.0743985 -0.974559 -0.392089 -0.170756 -0.903941 
-0.652976 -0.315607 -0.688487 -0.643186 -0.335298 -0.688394 -0.630047 -0.312671 -0.710829 
0.72238 -0.450168 -0.524896 0.552752 -0.697745 -0.45565 0.465107 -0.3377 -0.818312 
-0.284659 -0.198473 -0.937858 -0.607477 -0.402123 -0.685032 -0.628613 -0.448528 -0.635349 
-0.527681 -0.322077 -0.786015 0.548826 -0.703013 -0.452287 0.421736 -0.798585 -0.429419 
0.362309 -0.591775 -0.720093 0.362469 -0.866888 -0.342231 0.191354 -0.35604 -0.914669 
-0.0635351 -0.211794 -0.975247 -0.195287 -0.2307 -0.953226 -0.616641 -0.468808 -0.632434 
-0.488611 -0.62861 -0.605069 -0.404699 -0.379263 -0.832093 0.362297 -0.867176 -0.341681 
0.334738 -0.884622 -0.324645 0.287889 -0.727423 -0.622877 0.248276 -0.934204 -0.256167 
0.142917 -0.512168 -0.846911 0.155831 -0.944899 -0.287895 0.00433734 -0.3805 -0.924771 
-0.065608 -0.35158 -0.933856 -0.0977954 -0.391135 -0.915123 -0.24748 -0.832546 -0.495601 
-0.11613 -0.460102 -0.880239 -0.473143 -0.65338 -0.590957 -0.370886 -0.728563 -0.575881 
-0.318148 -0.572186 -0.755901 0.127324 -0.936672 -0.326242 0.0829605 -0.920206 -0.382541 
0.0752772 -0.898419 -0.432639 -0.179251 -0.875556 -0.448632 -0.0825346 -0.904613 -0.418168 
-0.0900077 -0.854744 -0.511186 0.0230231 0.32088 -0.94684 -0.0112584 0.271208 -0.962455 
0.125093 0.282863 -0.950968 0.0716752 0.279733 -0.957399 0.0329225 0.317032 -0.947843 
0.0581881 0.28262 -0.957465 0.02209 0.312931 -0.949519 -0.0150296 0.275342 -0.961229 
-0.0112174 0.269974 -0.962802 -0.029153 0.286327 -0.957688 -0.0648104 0.291899 -0.954251 
-0.164598 0.282473 -0.945049 0.200579 0.250873 -0.947012 0.268884 0.177417 -0.946691 
0.105583 0.226848 -0.96819 0.0345279 0.156126 -0.987133 0.033922 0.0996767 -0.994441 
-0.0197323 0.0942547 -0.995353 -0.0314634 0.0538165 -0.998055 0.0230786 0.0580957 -0.998044 
-0.00258367 0.125327 -0.992112 -0.202341 0.225569 -0.952983 -0.133751 0.18178 -0.9742 
-0.208818 0.126346 -0.969759 0.300292 0.097048 -0.948898 0.262527 0.0959885 -0.960138 
0.0621639 0.0643482 -0.995989 -0.0222487 0.00259472 -0.999749 0.000622299 -0.0384015 -0.999262 
-0.0277781 -0.0259754 -0.999277 -0.0420478 0.0365967 -0.998445 0.0475778 0.0215027 -0.998636 
0.0336418 -0.0402067 -0.998625 -0.0823052 -0.0036791 -0.9966 -0.209664 0.0876488 -0.973837 
-0.193212 0.0813549 -0.977778 0.306194 0.0541603 -0.950427 0.230981 0.0338208 -0.97237 
0.00546848 0.00353519 -0.999979 -0.070104 -0.0390004 -0.996777 0.00528003 0.0370543 -0.999299 
0.0553299 0.0166109 -0.99833 0.0163076 0.0417738 -0.998994 -0.0543995 0.0374081 -0.997818 
-0.0486473 -0.0370595 -0.998128 -0.0273597 -0.111254 -0.993415 -0.00907396 -0.0591215 -0.99821 
-0.174736 0.0271376 -0.984241 -0.111172 0.00791017 -0.99377 0.269088 0.0650596 -0.960916 
0.176059 0.0469448 -0.98326 -0.0103629 -0.0012429 -0.999946 0.0133104 -0.0159056 -0.999785 
0.0675533 0.0626512 -0.995747 -0.0346032 0.118062 -0.992403 -0.0251388 -0.0115622 -0.999617 
-0.0576817 -0.0233337 -0.998062 -0.115312 -0.0385987 -0.992579 -0.0337726 -0.0246643 -0.999125 
-0.0463002 0.00216953 -0.998925 0.0354275 -0.0350064 -0.998759 -0.139769 -0.039142 -0.98941 
-0.0903629 -0.0356153 -0.995272 0.332748 0.0341805 -0.942396 0.144779 0.0254099 -0.989138 
-0.0517995 0.00598029 -0.99864 -0.0240003 0.0266064 -0.999358 0.135741 -0.0500433 -0.98948 
-0.0225573 -0.0285564 -0.999338 -0.122569 -0.0259143 -0.992122 -0.0661671 -0.0461437 -0.996741 
-0.0278336 0.0677203 -0.997316 -0.0228599 0.0135129 -0.999647 -0.129647 -0.0567736 -0.989933 
-0.133827 -0.056576 -0.989388 -0.123928 -0.0546119 -0.990787 0.298736 -0.086524 -0.950405 
0.146178 -0.0523287 -0.987873 -0.00927423 -0.0154869 -0.999837 -0.0340666 0.0421548 -0.99853 
0.0157643 -0.000536927 -0.999876 -0.0122324 -0.0921551 -0.99567 -0.0549444 -0.0511672 -0.997178 
-0.0109282 -0.0167031 -0.999801 0.000311691 0.0256176 -0.999672 -0.163913 -0.0477387 -0.985319 
-0.0845087 -0.00574022 -0.996406 0.291868 -0.257897 -0.921033 0.250646 -0.3211 -0.913275 
0.221058 -0.239272 -0.945453 0.170534 -0.324613 -0.930346 0.0424683 -0.133384 -0.990154 
-0.00348988 -0.0580788 -0.998306 -0.0103946 0.0106124 -0.99989 -0.055478 -0.0637194 -0.996425 
-0.0484186 -0.0645533 -0.996739 0.0113257 -0.0430905 -0.999007 -0.0467396 -0.167346 -0.98479 
-0.0163993 -0.0815058 -0.996538 -0.157779 -0.128145 -0.979124 -0.139572 -0.136714 -0.980729 
-0.12097 -0.109809 -0.986564 0.16032 -0.319127 -0.934053 0.12157 -0.298904 -0.946508 
0.108528 -0.259696 -0.959573 0.0837578 -0.332765 -0.939283 0.0104937 -0.156325 -0.98765 
-0.0481935 -0.227709 -0.972536 -0.0899564 -0.128128 -0.98767 -0.0357288 -0.108754 -0.993426 
-0.0344685 -0.101725 -0.994215 -0.0345767 -0.159598 -0.986576 -0.0330704 -0.157952 -0.986893 
-0.0300256 -0.150626 -0.988135 
