# vtk DataFile Version 4.2
vtk output
ASCII
DATASET POLYDATA
POINTS 516 float
-22.7936 -38.0387 -16.8032 -14.852 -38.0387 -18.1299 -6.91046 -38.0387 -18.7198 
1.0311 -38.0387 -18.0467 8.97266 -38.0387 -16.5093 -38.6767 -30.0971 -16.2916 
-30.7352 -30.0971 -19.537 -22.7936 -30.0971 -20.7633 -14.852 -30.0971 -20.7457 
-6.91046 -30.0971 -21.1354 1.0311 -30.0971 -20.3534 8.97266 -30.0971 -19.3327 
16.9142 -30.0971 -19.343 24.8558 -30.0971 -18.7768 32.7973 -30.0971 -17.1998 
-38.6767 -22.1555 -19.3532 -30.7352 -22.1555 -21.1441 -22.7936 -22.1555 -21.9515 
-14.852 -22.1555 -21.1889 -6.91046 -22.1555 -20.5151 1.0311 -22.1555 -19.4603 
8.97266 -22.1555 -19.8353 16.9142 -22.1555 -20.6178 24.8558 -22.1555 -21.1659 
32.7973 -22.1555 -20.8227 40.7389 -22.1555 -19.0488 48.6805 -22.1555 -16.1286 
-46.6183 -14.214 -15.7648 -38.6767 -14.214 -20.4024 -30.7352 -14.214 -21.8948 
-22.7936 -14.214 -21.6139 -14.852 -14.214 -20.7266 -6.91046 -14.214 -19.6343 
1.0311 -14.214 -18.2363 8.97266 -14.214 -19.6707 16.9142 -14.214 -20.8644 
24.8558 -14.214 -21.3927 32.7973 -14.214 -21.396 40.7389 -14.214 -21.1702 
48.6805 -14.214 -19.661 -46.6183 -6.27241 -15.977 -38.6767 -6.27241 -20.5818 
-30.7352 -6.27241 -21.8548 -22.7936 -6.27241 -20.9028 -14.852 -6.27241 -20.4203 
-6.91046 -6.27241 -20.4826 1.0311 -6.27241 -20.1107 8.97266 -6.27241 -22.7095 
16.9142 -6.27241 -20.3245 24.8558 -6.27241 -20.8639 32.7973 -6.27241 -21.9331 
40.7389 -6.27241 -22.4272 48.6805 -6.27241 -21.7413 56.622 -6.27241 -17.0774 
-46.6183 1.66915 -15.941 -38.6767 1.66915 -20.1988 -30.7352 1.66915 -21.2815 
-22.7936 1.66915 -20.5185 -14.852 1.66915 -21.2543 -6.91046 1.66915 -22.0728 
1.0311 1.66915 -19.4577 8.97266 1.66915 -22.6361 16.9142 1.66915 -19.9024 
24.8558 1.66915 -21.0525 32.7973 1.66915 -22.5168 40.7389 1.66915 -23.0213 
48.6805 1.66915 -21.0775 56.622 1.66915 -16.4738 -38.6767 9.61071 -19.2033 
-30.7352 9.61071 -20.6545 -22.7936 9.61071 -20.8032 -14.852 9.61071 -21.3059 
-6.91046 9.61071 -21.9369 1.0311 9.61071 -20.3018 8.97266 9.61071 -21.9444 
16.9142 9.61071 -21.7213 24.8558 9.61071 -22.4386 32.7973 9.61071 -22.9801 
40.7389 9.61071 -23.1208 48.6805 9.61071 -21.0244 -38.6767 17.5523 -17.9086 
-30.7352 17.5523 -19.9806 -22.7936 17.5523 -20.5255 -14.852 17.5523 -20.7153 
-6.91046 17.5523 -20.2266 1.0311 17.5523 -20.156 8.97266 17.5523 -21.6221 
16.9142 17.5523 -22.3431 24.8558 17.5523 -22.5807 32.7973 17.5523 -22.5476 
40.7389 17.5523 -21.4264 48.6805 17.5523 -16.9519 -30.7352 25.4938 -18.2583 
-22.7936 25.4938 -19.7572 -14.852 25.4938 -20.4644 -6.91046 25.4938 -19.7813 
1.0311 25.4938 -20.0532 8.97266 25.4938 -20.9223 16.9142 25.4938 -21.2679 
24.8558 25.4938 -21.0537 32.7973 25.4938 -20.241 40.7389 25.4938 -16.0397 
-22.7936 33.4354 -17.6101 -14.852 33.4354 -18.5151 -6.91046 33.4354 -18.5932 
1.0311 33.4354 -18.9515 8.97266 33.4354 -19.0958 16.9142 33.4354 -18.3772 
24.8558 33.4354 -15.9211 -22.7936 -39.8998 -15.1882 -14.852 -41.8522 -15.1882 
-6.91046 -42.3756 -15.1882 1.0311 -41.4394 -15.1882 8.97266 -39.4631 -15.1882 
-38.6767 -31.6454 -15.1882 -38.6767 -38.0387 -7.89142 -28.8236 -38.0387 -15.1882 
-30.7352 -37.2944 -15.1882 -30.7352 -38.0387 -14.3086 13.9512 -38.0387 -15.1882 
16.9142 -36.9386 -15.1882 16.9142 -38.0387 -13.1984 24.8558 -34.8325 -15.1882 
24.8558 -38.0387 -8.15988 32.7973 -32.3927 -15.1882 -40.183 -30.0971 -15.1882 
38.2987 -30.0971 -15.1882 40.7389 -28.765 -15.1882 40.7389 -30.0971 -13.5607 
48.6805 -23.4639 -15.1882 -45.5265 -22.1555 -15.1882 -46.6183 -17.4694 -15.1882 
-46.6183 -22.1555 -13.9224 50.075 -22.1555 -15.1882 -47.1575 -14.214 -15.1882 
55.8178 -14.214 -15.1882 56.622 -12.5871 -15.1882 56.622 -14.214 -14.3954 
-47.3571 -6.27241 -15.1882 58.7475 -6.27241 -15.1882 -47.3605 1.66915 -15.1882 
-46.6183 6.92809 -15.1882 57.8596 1.66915 -15.1882 56.622 5.72758 -15.1882 
-46.0205 9.61071 -15.1882 -46.6183 9.61071 -14.7253 55.2016 9.61071 -15.1882 
56.622 9.61071 -11.0326 -43.253 17.5523 -15.1882 -46.6183 17.5523 -11.3713 
-38.6767 24.7031 -15.1882 50.3636 17.5523 -15.1882 48.6805 19.3573 -15.1882 
-37.9216 25.4938 -15.1882 -38.6767 25.4938 -14.7007 -30.7352 32.7403 -15.1882 
32.7973 30.8394 -15.1882 41.6225 25.4938 -15.1882 40.7389 26.1356 -15.1882 
-29.918 33.4354 -15.1882 -30.7352 33.4354 -14.7437 -22.7936 37.1395 -15.1882 
-14.852 38.7432 -15.1882 -6.91046 39.885 -15.1882 1.0311 40.4524 -15.1882 
8.97266 39.9205 -15.1882 16.9142 37.3518 -15.1882 26.4644 33.4354 -15.1882 
24.8558 34.1114 -15.1882 -22.7936 41.377 -9.70587 -14.852 41.377 -12.5373 
-6.91046 41.377 -13.7842 1.0311 41.377 -14.2715 8.97266 41.377 -13.4521 
16.9142 41.377 -8.59123 -38.6767 -38.4062 -7.24667 -30.7352 -42.0883 -7.24667 
-22.7936 -44.38 -7.24667 -14.852 -45.8911 -7.24667 -6.91046 -45.9686 -7.24667 
1.0311 -44.7855 -7.24667 8.97266 -42.407 -7.24667 16.9142 -40.1304 -7.24667 
24.8558 -38.3218 -7.24667 -39.1572 -38.0387 -7.24667 25.9943 -38.0387 -7.24667 
24.8558 -38.0387 -5.31499 32.7973 -36.2715 -7.24667 40.7389 -33.2307 -7.24667 
-46.3386 -30.0971 -7.24667 -46.6183 -29.6172 -7.24667 -46.6183 -30.0971 -5.65589 
46.5299 -30.0971 -7.24667 48.6805 -28.7688 -7.24667 -50.0652 -22.1555 -7.24667 
56.2499 -22.1555 -7.24667 56.622 -21.6408 -7.24667 56.622 -22.1555 0.20589 
-51.2635 -14.214 -7.24667 60.7404 -14.214 -7.24667 -51.7747 -6.27241 -7.24667 
62.6783 -6.27241 -7.24667 -52.2494 1.66915 -7.24667 61.3125 1.66915 -7.24667 
-51.7248 9.61071 -7.24667 57.6708 9.61071 -7.24667 56.622 11.4252 -7.24667 
56.622 9.61071 -3.43064 -49.0992 17.5523 -7.24667 -46.6183 22.0714 -7.24667 
52.3429 17.5523 -7.24667 48.6805 21.3153 -7.24667 -44.5334 25.4938 -7.24667 
-38.6767 32.4246 -7.24667 32.7973 33.0159 -7.24667 43.8903 25.4938 -7.24667 
40.7389 27.9257 -7.24667 -37.6721 33.4354 -7.24667 -38.6767 33.4354 -2.17312 
-30.7352 38.9931 -7.24667 32.0533 33.4354 -7.24667 24.8558 37.6719 -7.24667 
-25.8285 41.377 -7.24667 -22.7936 42.6868 -7.24667 -14.852 44.4426 -7.24667 
-6.91046 45.3251 -7.24667 1.0311 45.4135 -7.24667 8.97266 44.5993 -7.24667 
18.0497 41.377 -7.24667 16.9142 41.961 -7.24667 -38.6767 -39.4099 0.694891 
-30.7352 -42.8578 0.694891 -22.7936 -44.5464 0.694891 -14.852 -45.4064 0.694891 
-6.91046 -45.3836 0.694891 1.0311 -43.4919 0.694891 8.97266 -40.9826 0.694891 
16.9142 -38.7563 0.694891 -40.5366 -38.0387 0.694891 -46.6183 -31.4871 0.694891 
-38.6767 -38.0387 5.29062 8.97266 -38.0387 6.27489 20.404 -38.0387 0.694891 
16.9142 -38.0387 2.07676 24.8558 -37.0956 0.694891 32.7973 -35.3127 0.694891 
40.7389 -32.8376 0.694891 -47.5803 -30.0971 0.694891 -46.6183 -30.0971 5.20324 
46.1947 -30.0971 0.694891 40.7389 -30.0971 6.02728 48.6805 -28.7218 0.694891 
56.622 -22.1821 0.694891 -51.0179 -22.1555 0.694891 56.6466 -22.1555 0.694891 
56.622 -22.1555 0.739773 -52.8207 -14.214 0.694891 60.7025 -14.214 0.694891 
-53.5986 -6.27241 0.694891 62.4278 -6.27241 0.694891 -54.3834 1.66915 0.694891 
-54.5598 1.66915 3.93062 60.1908 1.66915 0.694891 56.622 7.68655 0.694891 
56.622 1.66915 7.88015 -53.7061 9.61071 0.694891 55.4248 9.61071 0.694891 
-51.0507 17.5523 0.694891 -46.6183 24.8288 0.694891 49.4139 17.5523 0.694891 
48.6805 18.3225 0.694891 48.6805 17.5523 2.23427 -46.156 25.4938 0.694891 
32.7973 33.0249 0.694891 41.9032 25.4938 0.694891 40.7389 26.4892 0.694891 
40.7389 25.4938 4.79986 -39.2004 33.4354 0.694891 -38.6767 33.9634 0.694891 
-38.6767 33.4354 5.47471 -30.7352 40.2782 0.694891 32.2348 33.4354 0.694891 
24.8558 38.3584 0.694891 -28.5353 41.377 0.694891 -22.7936 43.9466 0.694891 
-14.852 45.4448 0.694891 -6.91046 46.0878 0.694891 1.0311 45.9629 0.694891 
8.97266 45.0347 0.694891 19.2296 41.377 0.694891 16.9142 42.5444 0.694891 
-30.7352 -39.979 8.63645 -22.7936 -41.3644 8.63645 -14.852 -41.8183 8.63645 
-6.91046 -41.0941 8.63645 1.0311 -39.1451 8.63645 -35.8774 -38.0387 8.63645 
-38.6767 -36.6923 8.63645 -30.7352 -38.0387 11.2068 -22.7936 -38.0387 12.6189 
-14.852 -38.0387 12.5786 -6.91046 -38.0387 11.6308 4.53836 -38.0387 8.63645 
1.0311 -38.0387 9.77787 8.97266 -36.1868 8.63645 16.9142 -33.5467 8.63645 
24.8558 -31.9666 8.63645 32.7973 -30.6599 8.63645 -45.5936 -30.0971 8.63645 
-46.6183 -28.7307 8.63645 -38.6767 -30.0971 15.1821 -6.91046 -30.0971 16.0183 
1.0311 -30.0971 14.6125 8.97266 -30.0971 12.6593 16.9142 -30.0971 11.3601 
24.8558 -30.0971 10.2561 34.8826 -30.0971 8.63645 32.7973 -30.0971 9.27331 
40.7389 -28.1738 8.63645 48.6805 -24.3442 8.63645 -50.0496 -22.1555 8.63645 
-46.6183 -22.1555 14.6428 1.0311 -22.1555 16.2526 8.97266 -22.1555 14.9957 
16.9142 -22.1555 14.3428 24.8558 -22.1555 14.303 32.7973 -22.1555 14.4243 
40.7389 -22.1555 13.4915 51.3306 -22.1555 8.63645 48.6805 -22.1555 10.588 
56.622 -14.7629 8.63645 -52.3242 -14.214 8.63645 8.97266 -14.214 15.9408 
16.9142 -14.214 15.0016 24.8558 -14.214 16.5312 48.6805 -14.214 15.9629 
56.9218 -14.214 8.63645 56.622 -14.214 8.94392 -53.8782 -6.27241 8.63645 
-54.5598 -0.480392 8.63645 48.6805 -6.27241 16.4904 58.815 -6.27241 8.63645 
56.622 0.476362 8.63645 56.622 -6.27241 11.1108 -54.8117 1.66915 8.63645 
-54.5598 4.98789 8.63645 -54.5598 1.66915 9.78483 56.2132 1.66915 8.63645 
48.6805 1.66915 16.4167 -54.2012 9.61071 8.63645 51.6619 9.61071 8.63645 
48.6805 13.9577 8.63645 48.6805 9.61071 12.6377 -51.1974 17.5523 8.63645 
-46.6183 24.4794 8.63645 46.3279 17.5523 8.63645 40.7389 24.4502 8.63645 
-45.8452 25.4938 8.63645 -38.6767 33.1101 8.63645 39.849 25.4938 8.63645 
32.7973 32.1533 8.63645 -38.3156 33.4354 8.63645 -30.7352 39.4263 8.63645 
31.0141 33.4354 8.63645 24.8558 37.5912 8.63645 -26.8142 41.377 8.63645 
-22.7936 43.1633 8.63645 -22.7936 41.377 12.9714 -14.852 44.6856 8.63645 
-6.91046 45.3812 8.63645 1.0311 45.1324 8.63645 8.97266 44.0863 8.63645 
8.97266 41.377 14.686 17.3366 41.377 8.63645 16.9142 41.5746 8.63645 
16.9142 41.377 9.15724 -30.7352 -32.2109 16.578 -22.7936 -32.3123 16.578 
-14.852 -31.1523 16.578 -35.2724 -30.0971 16.578 -38.6767 -28.1355 16.578 
-30.7352 -30.0971 17.8902 -22.7936 -30.0971 17.7798 -10.9828 -30.0971 16.578 
[...]
POINT_DATA 516
SCALARS ImageScalars float
LOOKUP_TABLE default
0 0 0 0 0 0 0 0 0 
0 0 0 0 0 0 0 0 0 
0 0 0 0 0 0 0 0 0 
0 0 0 0 0 0 0 0 0 
0 0 0 0 0 0 0 0 0 
0 0 0 0 0 0 0 0 0 
0 0 0 0 0 0 0 0 0 
0 0 0 0 0 0 0 0 0 
0 0 0 0 0 0 0 0 0 
0 0 0 0 0 0 0 0 0 
0 0 0 0 0 0 0 0 0 
0 0 0 0 0 0 0 0 0 
0 0 0 0 0 0 0 0 0 
0 0 0 0 0 0 0 0 0 
0 0 0 0 0 0 0 0 0 
0 0 0 0 0 0 0 0 0 
0 0 0 0 0 0 0 0 0 
0 0 0 0 0 0 0 0 0 
0 0 0 0 0 0 0 0 0 
0 0 0 0 0 0 0 0 0 
0 0 0 0 0 0 0 0 0 
0 0 0 0 0 0 0 0 0 
0 0 0 0 0 0 0 0 0 
0 0 0 0 0 0 0 0 0 
0 0 0 0 0 0 0 0 0 
0 0 0 0 0 0 0 0 0 
0 0 0 0 0 0 0 0 0 
0 0 0 0 0 0 0 0 0 
0 0 0 0 0 0 0 0 0 
0 0 0 0 0 0 0 0 0 
0 0 0 0 0 0 0 0 0 
0 0 0 0 0 0 0 0 0 
0 0 0 0 0 0 0 0 0 
0 0 0 0 0 0 0 0 0 
0 0 0 0 0 0 0 0 0 
0 0 0 0 0 0 0 0 0 
0 0 0 0 0 0 0 0 0 
0 0 0 0 0 0 0 0 0 
0 0 0 0 0 0 0 0 0 
0 0 0 0 0 0 0 0 0 
0 0 0 0 0 0 0 0 0 
0 0 0 0 0 0 0 0 0 
0 0 0 0 0 0 0 0 0 
0 0 0 0 0 0 0 0 0 
0 0 0 0 0 0 0 0 0 
0 0 0 0 0 0 0 0 0 
0 0 0 0 0 0 0 0 0 
0 0 0 0 0 0 0 0 0 
0 0 0 0 0 0 0 0 0 
0 0 0 0 0 0 0 0 0 
0 0 0 0 0 0 0 0 0 
0 0 0 0 0 0 0 0 0 
0 0 0 0 0 0 0 0 0 
0 0 0 0 0 0 0 0 0 
0 0 0 0 0 0 0 0 0 
0 0 0 0 0 0 0 0 0 
0 0 0 0 0 0 0 0 0 
0 0 0 
NORMALS Normals float
0.188109 0.596647 0.780146 0.110741 0.489086 0.865177 -0.0023311 0.481804 0.876276 
-0.133936 0.505885 0.85214 -0.215465 0.623761 0.75133 0.485426 0.463688 0.741185 
0.22627 0.350952 0.908644 0.0740046 0.28583 0.955418 0.022849 0.176641 0.98401 
-0.0222878 0.0947254 0.995254 -0.115432 0.0703089 0.990824 -0.0592089 0.185945 0.980775 
-0.0306112 0.335423 0.94157 -0.12798 0.45655 0.880445 -0.244264 0.58615 0.772504 
0.369323 0.210827 0.905071 0.152837 0.141191 0.978114 0.00556572 0.0464604 0.998905 
-0.0886983 -0.00207219 0.996056 -0.108084 -0.0929431 0.989788 -0.0429915 -0.12847 0.990781 
0.0708082 0.0206073 0.997277 0.0836004 0.0973985 0.991728 0.01387 0.143843 0.989503 
-0.135712 0.240055 0.961226 -0.258688 0.357494 0.897373 -0.458444 0.486227 0.743917 
0.7211 0.0842919 0.687684 0.331581 0.0769037 0.940287 0.0682427 0.0479875 0.996514 
-0.0726797 -0.0651947 0.995222 -0.122431 -0.0482147 0.991305 -0.156158 -0.00363694 0.987725 
0.00381304 0.0363667 0.999331 0.165894 0.166683 0.971955 0.106161 -0.0186671 0.994174 
0.0337743 -0.0193411 0.999242 -0.0133227 0.0669957 0.997664 -0.0955882 0.209606 0.973102 
-0.348869 0.300869 0.887563 0.704218 0.00915303 0.709925 0.296664 -0.0113114 0.954915 
0.0117587 -0.0391164 0.999165 -0.0880886 -0.0685688 0.99375 -0.0267187 0.0300665 0.999191 
-0.0183061 0.146683 0.989014 0.138202 0.0835401 0.986875 0.0018659 0.193587 0.981081 
-0.107884 -0.0628246 0.992176 0.10155 -0.0224549 0.994577 0.0965926 0.0697471 0.992877 
-0.00500542 0.113916 0.993478 -0.296704 0.0682866 0.952525 -0.624474 0.0997699 0.774647 
0.669897 -0.0608295 0.739958 0.288902 -0.0826409 0.953785 0.01274 -0.0750593 0.997098 
-0.0038012 -0.0062908 0.999973 0.0993315 0.0591712 0.993294 -0.114364 0.0968681 0.988705 
0.04496 0.0161201 0.998859 0.0185412 -0.0505109 0.998551 -0.0998308 0.0852871 0.991342 
0.16683 0.0950255 0.981396 0.115194 0.0653671 0.99119 -0.0861972 0.040789 0.995443 
-0.345258 -0.036835 0.937785 -0.71704 -0.154552 0.679682 0.314711 -0.139793 0.938837 
0.0919943 -0.0846606 0.992154 0.0406761 0.000567828 0.999172 0.0708967 -0.0348019 0.996876 
-0.0661602 -0.118479 0.99075 0.00599843 0.040801 0.999149 0.0892597 -0.0608979 0.994145 
0.0282331 0.152915 0.987836 0.0794163 0.0921646 0.992572 0.0399533 0.00252243 0.999198 
-0.0998176 -0.0982045 0.990148 -0.445247 -0.180026 0.877124 0.398531 -0.226311 0.888795 
0.154852 -0.134907 0.978683 0.0479257 -0.0638026 0.996811 -0.0181712 -0.0523551 0.998463 
-0.0351908 -0.130513 0.990822 0.0860279 -0.0157195 0.996169 0.136313 -0.0640088 0.988596 
0.0587651 -0.0297139 0.997829 0.0129384 -0.0836579 0.996411 -0.0679023 -0.151393 0.986139 
-0.275112 -0.319595 0.906737 -0.639462 -0.545743 0.541529 0.26903 -0.289649 0.918546 
0.127814 -0.176965 0.975883 0.000308695 -0.12236 0.992486 -0.024442 -0.102957 0.994385 
0.0715742 -0.0772632 0.994438 0.0760329 -0.155014 0.984982 0.00848056 -0.212316 0.977164 
-0.0588666 -0.341122 0.938174 -0.212936 -0.492841 0.843662 -0.525086 -0.728852 0.439385 
0.186027 -0.42033 0.888097 0.0599996 -0.367583 0.928053 0.0268351 -0.300998 0.953247 
0.0315546 -0.298373 0.953928 -0.0270183 -0.366592 0.929989 -0.166731 -0.51265 0.842253 
-0.299246 -0.734547 0.60901 0.212047 0.676332 0.705416 0.12494 0.709139 0.69391 
-0.0207465 0.742789 0.669205 -0.161767 0.73197 0.661854 -0.230091 0.713525 0.661771 
0.502113 0.511706 0.697166 0.533081 0.77903 0.330055 0.285502 0.678503 0.676848 
0.307833 0.670894 0.674641 0.319613 0.717626 0.618757 -0.218631 0.730795 0.646637 
-0.198695 0.725584 0.658823 -0.232448 0.843523 0.484187 -0.216908 0.731641 0.64626 
-0.234794 0.963617 0.127725 -0.271896 0.694956 0.665665 0.540415 0.479978 0.691067 
-0.346435 0.659949 0.666671 -0.36663 0.63055 0.684098 -0.397781 0.728327 0.557951 
-0.481648 0.534027 0.69486 0.687247 0.257636 0.679202 0.731545 0.158067 0.663217 
0.75532 0.263311 0.600133 -0.502133 0.50476 0.702197 0.74614 0.0848 0.660366 
-0.60128 0.350109 0.718252 -0.632151 0.303114 0.713097 -0.653411 0.362281 0.664686 
0.738614 0.011272 0.674034 -0.722295 0.0770064 0.687285 0.705029 -0.0573659 0.706854 
0.665442 -0.13098 0.734869 -0.770264 -0.17184 0.614137 -0.778224 -0.270505 0.566741 
0.633398 -0.162895 0.756487 0.667768 -0.167917 0.725183 -0.771653 -0.364792 0.521036 
-0.866977 -0.442485 0.229257 0.592015 -0.289899 0.751982 0.766533 -0.361324 0.530916 
0.519701 -0.436064 0.734683 -0.69913 -0.56935 0.432503 -0.67018 -0.610438 0.422167 
0.506222 -0.446849 0.737607 0.540211 -0.466184 0.700603 0.427261 -0.527431 0.734347 
-0.382331 -0.78443 0.488357 -0.547972 -0.742257 0.385723 -0.535173 -0.750565 0.387611 
0.41493 -0.536511 0.73484 0.44741 -0.557076 0.699636 0.231998 -0.594282 0.770069 
0.109328 -0.627107 0.771222 0.0616116 -0.61524 0.785928 -0.000639698 -0.651573 0.758586 
-0.129312 -0.672429 0.728778 -0.274733 -0.692565 0.666989 -0.324557 -0.768452 0.551492 
-0.315184 -0.755257 0.574671 0.291818 -0.858521 0.421645 0.140215 -0.802108 0.580485 
0.0631285 -0.730518 0.679969 -0.00848383 -0.726399 0.687221 -0.157549 -0.78523 0.598825 
-0.384563 -0.877265 0.287259 0.531264 0.792839 0.298605 0.344018 0.896383 0.27955 
0.22376 0.948415 0.224591 0.095103 0.984832 0.145127 -0.0651277 0.989947 0.125554 
-0.224702 0.971344 0.0774631 -0.276961 0.958506 0.0675283 -0.248178 0.966142 0.0705541 
-0.231061 0.969802 0.0780756 0.546566 0.781567 0.300699 -0.242538 0.966513 0.08383 
-0.226807 0.973836 -0.0141893 -0.311622 0.941266 0.130039 -0.408954 0.89744 0.165404 
0.803786 0.520484 0.28814 0.814997 0.50355 0.286735 0.821351 0.525258 0.222456 
-0.494816 0.847403 0.192521 -0.541023 0.815195 0.206763 0.924557 0.258164 0.280261 
-0.742878 0.617271 0.259055 -0.757953 0.599061 0.258136 -0.768015 0.619314 -0.163104 
0.943854 0.10498 0.31324 -0.921176 0.329101 0.207673 0.940648 0.0563113 0.334678 
-0.983143 0.0314078 0.18012 0.928089 -0.00316641 0.372345 -0.951492 -0.282695 0.121436 
0.910696 -0.16603 0.378241 -0.878811 -0.477168 -0.00119726 -0.859335 -0.511409 -0.00198563 
-0.860161 -0.488542 -0.146455 0.854559 -0.37416 0.360185 0.811904 -0.468191 0.348726 
-0.761201 -0.647842 -0.0295521 -0.699101 -0.714262 -0.0329835 0.771067 -0.536416 0.343094 
0.674425 -0.66648 0.317736 -0.498645 -0.859982 0.108555 -0.631358 -0.775491 0.00106907 
-0.594077 -0.80416 0.0199968 0.655598 -0.6859 0.315805 0.696561 -0.706472 0.125304 
0.498572 -0.803969 0.324129 -0.495692 -0.86011 0.12042 -0.477919 -0.852893 0.210158 
0.365161 -0.877002 0.312289 0.292474 -0.904127 0.311469 0.15481 -0.937985 0.31019 
0.0596486 -0.953061 0.296846 -0.0447729 -0.961548 0.270963 -0.20226 -0.948156 0.245135 
-0.405607 -0.8854 0.227048 -0.391047 -0.891321 0.229411 0.523238 0.848487 -0.0793273 
0.310942 0.943167 -0.117262 0.151995 0.974441 -0.165413 0.0510595 0.974781 -0.217243 
-0.112055 0.959599 -0.258096 -0.255102 0.919515 -0.299024 -0.275891 0.908281 -0.3145 
-0.222936 0.920103 -0.32204 0.583524 0.808773 -0.0733928 0.822922 0.567194 -0.0330308 
0.505693 0.814049 -0.285656 -0.268328 0.790376 -0.550733 -0.210903 0.924087 -0.318721 
-0.221815 0.898656 -0.378438 -0.198604 0.926536 -0.319512 -0.255685 0.919282 -0.299241 
-0.354591 0.90561 -0.232672 0.851881 0.523028 -0.0272216 0.799101 0.56316 -0.210447 
-0.454926 0.86511 -0.211252 -0.321104 0.797219 -0.511208 -0.511282 0.836435 -0.197401 
-0.764101 0.616476 -0.190019 0.955073 0.296361 0.00223841 -0.764712 0.615699 -0.190082 
-0.764197 0.61571 -0.192106 0.984339 0.165521 0.060656 -0.943359 0.275181 -0.185337 
0.987709 0.0959341 0.123398 -0.971719 -0.0205775 -0.235241 0.988873 0.00566033 0.148655 
0.998447 0.0116434 0.0544785 -0.883962 -0.373062 -0.281843 -0.834088 -0.459144 -0.305751 
-0.792472 -0.351203 -0.498643 0.970943 -0.192137 0.142662 -0.812402 -0.495282 -0.30773 
0.903683 -0.413853 0.10992 0.817869 -0.571589 0.0661542 -0.714803 -0.634519 -0.294011 
-0.708474 -0.643687 -0.289365 -0.718874 -0.623609 -0.307135 0.808261 -0.58563 0.0612564 
-0.59123 -0.805328 -0.0435175 -0.666819 -0.724288 -0.175386 -0.657219 -0.736574 -0.159758 
-0.696912 -0.690535 -0.193585 0.70517 -0.708604 0.0248077 0.697466 -0.716229 0.0235909 
0.680122 -0.724146 -0.114223 0.50219 -0.864532 0.0197176 -0.585135 -0.810019 -0.0385437 
-0.507732 -0.861505 -0.00407822 0.437436 -0.899005 0.0209679 0.292497 -0.955947 0.0247119 
0.130143 -0.991416 0.0125409 0.0322496 -0.99948 -0.00026893 -0.0652562 -0.99767 -0.0198945 
-0.204277 -0.978351 -0.0331634 -0.425503 -0.904805 -0.01657 -0.389151 -0.92089 -0.0228821 
0.244401 0.83737 -0.488958 0.101316 0.838319 -0.535683 -0.0114701 0.804347 -0.594049 
-0.139948 0.755943 -0.639503 -0.230536 0.733861 -0.638984 0.391634 0.797539 -0.458862 
0.480427 0.755283 -0.4458 0.219472 0.780025 -0.585997 0.0578858 0.716533 -0.695147 
-0.0514423 0.651859 -0.756593 -0.141287 0.632488 -0.761575 -0.243666 0.723369 -0.646038 
-0.225094 0.693115 -0.684781 -0.251695 0.68133 -0.687342 -0.181133 0.662581 -0.726758 
-0.13877 0.683886 -0.71627 -0.177671 0.741103 -0.647456 0.723112 0.581781 -0.372344 
0.766244 0.538855 -0.350007 0.405608 0.562486 -0.72048 -0.142899 0.319908 -0.93661 
-0.190814 0.336243 -0.922242 -0.191472 0.41232 -0.890691 -0.137111 0.508374 -0.850151 
-0.107884 0.614911 -0.781182 -0.207558 0.73243 -0.648434 -0.171432 0.71878 -0.67377 
-0.276337 0.6976 -0.661054 -0.442008 0.653145 -0.614842 0.888425 0.358374 -0.286824 
0.69228 0.385576 -0.609983 -0.160884 0.217853 -0.96263 -0.119419 0.191649 -0.974171 
-0.0428819 0.21339 -0.976026 0.0042401 0.35571 -0.934587 -0.042284 0.426203 -0.903639 
-0.198264 0.522218 -0.829445 -0.517719 0.588791 -0.620719 -0.419205 0.585489 -0.69388 
-0.722347 0.329841 -0.6078 0.945458 0.232699 -0.227947 -0.221326 0.304581 -0.926415 
0.0395378 0.149065 -0.988037 0.147761 0.239797 -0.959513 -0.390484 0.291322 -0.8733 
-0.72988 0.311674 -0.608387 -0.722336 0.311144 -0.617592 0.981418 0.15022 -0.119386 
0.994369 0.0552314 -0.0904452 -0.398937 0.0216823 -0.916722 -0.822775 -0.0447225 -0.566605 
-0.790388 -0.306385 -0.530485 -0.747073 -0.0185537 -0.664483 0.996475 0.0204952 -0.081352 
0.99338 -0.0753842 -0.0866795 0.990831 0.0215277 -0.13338 -0.779917 -0.345969 -0.521569 
-0.531429 -0.141919 -0.83513 0.973428 -0.208383 -0.0949426 -0.740093 -0.481256 -0.469739 
-0.747263 -0.522979 -0.409988 -0.705267 -0.406154 -0.581065 0.88528 -0.447748 -0.125698 
0.790935 -0.59237 -0.153362 -0.752972 -0.553404 -0.356059 -0.731374 -0.639198 -0.237737 
0.774138 -0.612433 -0.160113 0.660599 -0.722266 -0.204795 -0.719296 -0.65801 -0.222793 
-0.611544 -0.770328 -0.18058 0.654947 -0.726734 -0.207128 0.508996 -0.828886 -0.2321 
-0.584395 -0.791838 -0.177413 -0.501796 -0.84394 -0.189646 0.397109 -0.888572 -0.229659 
0.289814 -0.929072 -0.229853 0.298245 -0.855237 -0.423815 0.132884 -0.965967 -0.221923 
0.0260372 -0.978058 -0.206698 -0.0799076 -0.968709 -0.234983 -0.206508 -0.945815 -0.250575 
-0.188548 -0.831512 -0.52253 -0.369787 -0.902009 -0.222792 -0.362538 -0.904345 -0.225226 
-0.359572 -0.900371 -0.245032 0.138238 0.526529 -0.838843 -0.0299641 0.479117 -0.877239 
-0.0990648 0.39798 -0.91203 0.268671 0.514874 -0.814076 0.361848 0.497547 -0.788361 
0.117991 0.457375 -0.881412 -0.0446976 0.412508 -0.909857 -0.122924 0.343056 -0.931237 
-0.105468 0.366102 -0.924579 -0.157343 0.287598 -0.944738 0.551787 0.37953 -0.742623 
0.632616 0.344003 -0.693872 0.280549 0.35094 -0.893383 0.0684778 0.281124 -0.957225 
-0.0828309 0.25257 -0.964027 -0.172411 0.228077 -0.958256 -0.167098 0.220768 -0.960906 
-0.186944 0.234422 -0.953991 -0.17384 0.23047 -0.957425 0.0211226 0.312604 -0.949649 
-0.0995473 0.340255 -0.935049 0.683717 0.295191 -0.667378 0.60778 0.289894 -0.739301 
0.238324 0.217146 -0.946599 -0.0119796 0.180768 -0.983453 -0.0970308 0.127683 -0.987057 
-0.121764 0.1957 -0.973075 -0.143384 0.284688 -0.947836 -0.232529 0.311159 -0.921472 
-0.223961 0.297143 -0.928196 -0.236846 0.333328 -0.912577 -0.0699988 0.297265 -0.952226 
0.141935 0.242232 -0.95978 0.1479 0.240391 -0.959343 0.04113 0.275067 -0.960545 
-0.252421 0.297877 -0.920627 -0.0849483 0.3033 -0.949101 0.782849 0.231623 -0.577493 
0.514341 0.227385 -0.826891 0.164753 0.129085 -0.977851 -0.0236882 0.124342 -0.991957 
-0.0620842 0.115003 -0.991423 -0.0233933 0.158002 -0.987162 -0.101541 0.19402 -0.975728 
-0.100512 0.0951923 -0.990371 -0.2514 0.348999 -0.902772 -0.0939726 0.325651 -0.940808 
0.134237 0.257504 -0.956908 0.0251729 0.212191 -0.976904 -0.388831 0.0263628 -0.920932 
-0.151063 0.143463 -0.978058 0.858355 0.0318994 -0.512064 0.485168 0.0637808 -0.872092 
0.149884 0.0698755 -0.986231 -0.0641421 0.106725 -0.992217 -0.0358513 0.0890964 -0.995378 
-0.205507 0.0718616 -0.976014 -0.071532 0.112374 -0.991088 -0.0114486 0.0733666 -0.997239 
-0.0823494 0.297952 -0.951022 0.0403154 0.256657 -0.965661 -0.0587014 0.152688 -0.986529 
-0.518038 -0.132168 -0.845085 -0.256389 0.0315369 -0.966059 0.827277 -0.22382 -0.515284 
0.530463 -0.176719 -0.829083 0.180513 -0.0453629 -0.982526 -0.0599944 0.0344984 -0.997602 
-0.0589986 0.0035077 -0.998252 -0.0816472 -0.0227673 -0.996401 -0.0832455 0.155153 -0.984377 
-0.037128 0.0562807 -0.997724 0.0286597 0.166558 -0.985615 -0.0196941 0.133341 -0.990875 
-0.200571 0.0392077 -0.978894 -0.580211 -0.256086 -0.77316 -0.432718 -0.140659 -0.890489 
0.727462 -0.450572 -0.517478 0.696499 -0.499359 -0.515295 0.649012 -0.427039 -0.62962 
0.310887 -0.247708 -0.9176 -0.0682947 -0.0323179 -0.997142 -0.0946159 -0.0313252 -0.995021 
-0.0429807 -0.0330561 -0.998529 -0.00650559 0.0265436 -0.999626 -0.00158299 0.0765325 -0.997066 
-0.00310922 0.0414255 -0.999137 -0.0901951 -0.0404791 -0.995101 -0.310426 -0.13536 -0.940911 
-0.649018 -0.358524 -0.670997 -0.65195 -0.374557 -0.659294 -0.634684 -0.345 -0.691485 
0.620812 -0.565318 -0.543146 0.545983 -0.619757 -0.563741 0.465905 -0.523857 -0.713096 
0.230057 -0.344303 -0.910236 0.0677903 -0.170759 -0.982978 -0.0560687 -0.110999 -0.992238 
-0.0225796 -0.0474191 -0.99862 0.0258079 -0.0487032 -0.99848 -0.0211329 -0.0711967 -0.997238 
-0.0892463 -0.154798 -0.983907 -0.202927 -0.280775 -0.938076 -0.600111 -0.540851 -0.589361 
-0.547537 -0.600151 -0.583114 -0.480374 -0.473062 -0.738548 0.475942 -0.650153 -0.592267 
0.437848 -0.665101 -0.604921 0.413099 -0.592835 -0.6913 0.281125 -0.720519 -0.633894 
0.187603 -0.462664 -0.866457 0.0483823 -0.343485 -0.937911 0.0127646 -0.288944 -0.957261 
-0.0358939 -0.313402 -0.948942 -0.165092 -0.745664 -0.645546 -0.105236 -0.394395 -0.912896 
-0.2681 -0.721832 -0.638029 -0.205399 -0.492694 -0.845614 -0.459174 -0.684095 -0.566722 
-0.427571 -0.698228 -0.574161 -0.410824 -0.657431 -0.631671 0.128995 -0.792603 -0.595937 
0.12402 -0.793705 -0.595526 0.123723 -0.791591 -0.598395 0.00382371 -0.757419 -0.652918 
0.00216534 -0.729377 -0.684108 -0.096409 -0.761615 -0.640818 -0.0904604 -0.760987 -0.64243 
-0.0897089 -0.757528 -0.64661 -0.026478 0.0849621 -0.996032 0.0263745 0.0787726 -0.996544 
-0.0307729 0.0848752 -0.995916 -0.0267448 0.0821295 -0.996263 0.0967646 -0.0178496 -0.995147 
-0.0423224 0.0278215 -0.998717 0.0104672 0.00642407 -0.999925 0.0952391 -0.169937 -0.980842 
-0.045767 -0.0561099 -0.997375 0.0610707 -0.167611 -0.98396 0.0478768 -0.152763 -0.987103 

