# vtk DataFile Version 4.2
vtk output
ASCII
DATASET POLYDATA
POINTS 564 float
-23.3906 -51.6703 -12.6163 -15.0595 -51.6703 -13.1997 -6.72845 -51.6703 -13.4543 
1.60265 -51.6703 -12.9308 -31.7217 -43.3392 -13.2578 -23.3906 -43.3392 -15.6769 
-15.0595 -43.3392 -16.2455 -6.72845 -43.3392 -16.1472 1.60265 -43.3392 -15.3148 
9.93374 -43.3392 -14.1938 18.2648 -43.3392 -14.3438 26.5959 -43.3392 -11.576 
-40.0528 -35.0082 -12.5424 -31.7217 -35.0082 -15.4783 -23.3906 -35.0082 -17.2849 
-15.0595 -35.0082 -17.2457 -6.72845 -35.0082 -16.7748 1.60265 -35.0082 -15.9639 
9.93374 -35.0082 -15.9002 18.2648 -35.0082 -16.3909 26.5959 -35.0082 -14.9094 
34.927 -35.0082 -14.7502 43.2581 -35.0082 -12.4244 -48.3839 -26.6771 -12.4011 
-40.0528 -26.6771 -14.6711 -31.7217 -26.6771 -16.4488 -23.3906 -26.6771 -17.0336 
-15.0595 -26.6771 -16.8764 -6.72845 -26.6771 -16.1063 1.60265 -26.6771 -15.0719 
9.93374 -26.6771 -15.6081 18.2648 -26.6771 -16.3739 26.5959 -26.6771 -16.6329 
34.927 -26.6771 -16.4215 43.2581 -26.6771 -16.7266 51.5892 -26.6771 -12.922 
-48.3839 -18.346 -13.6249 -40.0528 -18.346 -15.3475 -31.7217 -18.346 -16.1696 
-23.3906 -18.346 -16.4243 -15.0595 -18.346 -16.0254 -6.72845 -18.346 -15.0528 
1.60265 -18.346 -13.8347 9.93374 -18.346 -14.9782 18.2648 -18.346 -16.1444 
26.5959 -18.346 -16.9712 34.927 -18.346 -16.9939 43.2581 -18.346 -16.3758 
51.5892 -18.346 -15.7678 59.9203 -18.346 -11.1894 -56.715 -10.0149 -12.0582 
-48.3839 -10.0149 -14.8411 -40.0528 -10.0149 -16.3001 -31.7217 -10.0149 -16.2832 
-23.3906 -10.0149 -15.5699 -15.0595 -10.0149 -14.8575 -6.72845 -10.0149 -16.7837 
1.60265 -10.0149 -18.4539 9.93374 -10.0149 -16.7979 18.2648 -10.0149 -14.8685 
26.5959 -10.0149 -15.9982 34.927 -10.0149 -17.0401 43.2581 -10.0149 -17.0697 
51.5892 -10.0149 -17.5521 59.9203 -10.0149 -13.8928 -56.715 -1.68378 -13.3803 
-48.3839 -1.68378 -15.6948 -40.0528 -1.68378 -17.1509 -31.7217 -1.68378 -16.6548 
-23.3906 -1.68378 -15.7449 -15.0595 -1.68378 -15.234 -6.72845 -1.68378 -17.4381 
1.60265 -1.68378 -12.631 9.93374 -1.68378 -18.1299 18.2648 -1.68378 -14.6354 
26.5959 -1.68378 -15.6327 34.927 -1.68378 -16.6143 43.2581 -1.68378 -16.8167 
51.5892 -1.68378 -17.0831 59.9203 -1.68378 -12.4908 -56.715 6.64732 -12.0431 
-48.3839 6.64732 -15.884 -40.0528 6.64732 -17.4 -31.7217 6.64732 -16.9975 
-23.3906 6.64732 -16.1169 -15.0595 6.64732 -14.9413 -6.72845 6.64732 -17.8674 
1.60265 6.64732 -15.8366 9.93374 6.64732 -16.7003 18.2648 6.64732 -14.9519 
26.5959 6.64732 -15.1383 34.927 6.64732 -15.7856 43.2581 6.64732 -15.7512 
51.5892 6.64732 -15.0601 59.9203 6.64732 -13.0452 -56.715 14.9784 -12.6206 
-48.3839 14.9784 -16.4901 -40.0528 14.9784 -16.9555 -31.7217 14.9784 -17.0041 
-23.3906 14.9784 -16.3102 -15.0595 14.9784 -15.1157 -6.72845 14.9784 -13.7976 
1.60265 14.9784 -13.0461 9.93374 14.9784 -14.5259 18.2648 14.9784 -14.9232 
26.5959 14.9784 -15.0783 34.927 14.9784 -15.0576 43.2581 14.9784 -14.8065 
51.5892 14.9784 -13.0483 -56.715 23.3095 -10.7101 -48.3839 23.3095 -14.2327 
-40.0528 23.3095 -15.8794 -31.7217 23.3095 -17.3347 -23.3906 23.3095 -16.6052 
-15.0595 23.3095 -15.6074 -6.72845 23.3095 -14.7539 1.60265 23.3095 -14.2856 
9.93374 23.3095 -14.7032 18.2648 23.3095 -15.171 26.5959 23.3095 -15.3001 
34.927 23.3095 -13.7619 43.2581 23.3095 -12.6349 51.5892 23.3095 -11.4219 
-48.3839 31.6406 -12.6165 -40.0528 31.6406 -14.8316 -31.7217 31.6406 -15.5528 
-23.3906 31.6406 -16.2862 -15.0595 31.6406 -15.572 -6.72845 31.6406 -15.1243 
1.60265 31.6406 -14.5935 9.93374 31.6406 -14.5225 18.2648 31.6406 -14.5523 
26.5959 31.6406 -13.4437 34.927 31.6406 -12.2131 -40.0528 39.9717 -11.9761 
-31.7217 39.9717 -13.0837 -23.3906 39.9717 -14.3291 -15.0595 39.9717 -14.2344 
-6.72845 39.9717 -14.0267 1.60265 39.9717 -13.3284 9.93374 39.9717 -12.9843 
18.2648 39.9717 -11.8984 -23.3906 48.3028 -10.7388 -15.0595 48.3028 -12.0167 
-23.3906 -53.8716 -10.6803 -15.0595 -54.75 -10.6803 -6.72845 -55.3381 -10.6803 
-6.72845 -60.0014 -3.28022 1.60265 -54.5705 -10.6803 -28.2636 -51.6703 -10.6803 
-31.7217 -48.4291 -10.6803 -31.7217 -51.6703 -6.76741 9.17437 -51.6703 -10.6803 
9.93374 -51.2657 -10.6803 9.93374 -51.6703 -10.4213 18.2648 -49.1967 -10.6803 
18.2648 -51.6703 -6.90342 26.5959 -44.4457 -10.6803 -38.475 -43.3392 -10.6803 
-40.0528 -41.3325 -10.6803 -40.0528 -43.3392 -9.65748 29.8444 -43.3392 -10.6803 
34.927 -41.202 -10.6803 34.927 -43.3392 -4.64983 43.2581 -36.9659 -10.6803 
-43.744 -35.0082 -10.6803 -48.3839 -30.7517 -10.6803 -48.3839 -35.0082 -6.97816 
45.8876 -35.0082 -10.6803 51.5892 -29.8796 -10.6803 -50.7529 -26.6771 -10.6803 
54.7495 -26.6771 -10.6803 59.9203 -19.3337 -10.6803 -53.8133 -18.346 -10.6803 
-56.715 -14.3202 -10.6803 -56.715 -18.346 -8.05463 60.5458 -18.346 -10.6803 
-58.4143 -10.0149 -10.6803 64.4351 -10.0149 -10.6803 68.2514 -10.0149 -3.06886 
-60.2062 -1.68378 -10.6803 62.9777 -1.68378 -10.6803 68.2514 -1.68378 -5.73741 
-58.6353 6.64732 -10.6803 -65.0461 6.64732 -2.55858 63.866 6.64732 -10.6803 
59.9203 14.3414 -10.6803 68.2514 6.64732 -6.39775 -59.2734 14.9784 -10.6803 
59.1993 14.9784 -10.6803 59.9203 14.9784 -10.4433 -56.752 23.3095 -10.6803 
-56.715 23.3734 -10.6803 43.2581 31.6228 -10.6803 52.9325 23.3095 -10.6803 
51.5892 24.7521 -10.6803 59.9203 23.3095 -5.13083 -51.3108 31.6406 -10.6803 
-56.715 31.6406 -3.93732 -48.3839 34.8724 -10.6803 26.5959 38.8291 -10.6803 
43.2344 31.6406 -10.6803 34.927 35.3562 -10.6803 43.2581 31.6406 -10.6747 
51.5892 31.6406 -5.45033 -42.4974 39.9717 -10.6803 -48.3839 39.9717 -4.92756 
-40.0528 41.7011 -10.6803 -31.7217 44.1111 -10.6803 -6.72845 47.2638 -10.6803 
1.60265 45.9352 -10.6803 9.93374 45.0987 -10.6803 24.139 39.9717 -10.6803 
18.2648 41.9066 -10.6803 26.5959 39.9717 -10.1531 34.927 39.9717 -8.43539 
43.2581 39.9717 -3.37344 -23.6124 48.3028 -10.6803 -31.7217 48.3028 -6.82411 
-23.3906 48.367 -10.6803 -8.83546 48.3028 -10.6803 -15.0595 49.8217 -10.6803 
-6.72845 48.3028 -10.0458 1.60265 48.3028 -9.33249 9.93374 48.3028 -8.19942 
18.2648 48.3028 -5.03437 -6.72845 -60.3406 -2.34923 -31.7217 -53.2746 -2.34923 
-23.3906 -57.2994 -2.34923 -9.40316 -60.0014 -2.34923 -15.0595 -59.2743 -2.34923 
-2.76587 -60.0014 -2.34923 -6.72845 -60.0014 -1.27226 1.60265 -59.6104 -2.34923 
9.93374 -57.2418 -2.34923 18.2648 -53.279 -2.34923 -34.2005 -51.6703 -2.34923 
-40.0528 -47.4698 -2.34923 -31.7217 -51.6703 3.5822 21.1935 -51.6703 -2.34923 
18.2648 -51.6703 1.50905 26.5959 -48.5969 -2.34923 34.927 -43.8045 -2.34923 
-44.2942 -43.3392 -2.34923 -48.3839 -38.4927 -2.34923 -40.0528 -43.3392 5.59193 
26.5959 -43.3392 4.69313 35.7365 -43.3392 -2.34923 34.927 -43.3392 -1.37023 
43.2581 -39.0778 -2.34923 -50.9952 -35.0082 -2.34923 48.7663 -35.0082 -2.34923 
43.2581 -35.0082 4.80454 51.5892 -32.776 -2.34923 -56.1132 -26.6771 -2.34923 
-56.715 -25.4252 -2.34923 58.038 -26.6771 -2.34923 51.5892 -26.6771 4.08913 
59.9203 -24.3054 -2.34923 -59.7563 -18.346 -2.34923 64.4174 -18.346 -2.34923 
68.2514 -10.6913 -2.34923 -62.8724 -10.0149 -2.34923 68.5621 -10.0149 -2.34923 
68.2514 -10.0149 -1.64392 -64.8286 -1.68378 -2.34923 -65.0461 4.0238 -2.34923 
70.2006 -1.68378 -2.34923 68.2514 -1.68378 5.02941 -65.1437 6.64732 -2.34923 
-65.0461 8.04963 -2.34923 -65.0461 6.64732 -1.78158 70.9769 6.64732 -2.34923 
68.2514 13.4693 -2.34923 -64.5409 14.9784 -2.34923 67.6185 14.9784 -2.34923 
-62.2097 23.3095 -2.34923 62.6707 23.3095 -2.34923 59.9203 26.857 -2.34923 
-57.7857 31.6406 -2.34923 -56.715 33.222 -2.34923 55.3054 31.6406 -2.34923 
51.5892 34.7522 -2.34923 -50.6824 39.9717 -2.34923 -48.3839 41.8283 -2.34923 
-40.0528 47.1603 -2.34923 26.5959 48.0676 -2.34923 34.927 44.999 -2.34923 
44.5149 39.9717 -2.34923 43.2581 40.7905 -2.34923 -37.4643 48.3028 -2.34923 
-31.7217 50.7643 -2.34923 -23.3906 52.7938 -2.34923 -15.0595 53.8984 -2.34923 
-6.72845 53.9091 -2.34923 1.60265 53.5703 -2.34923 9.93374 51.9083 -2.34923 
25.7406 48.3028 -2.34923 18.2648 50.0205 -2.34923 26.5959 48.3028 2.7817 
-23.3906 -52.6767 5.98187 -15.0595 -55.1779 5.98187 -6.72845 -56.4625 5.98187 
1.60265 -55.556 5.98187 9.93374 -51.999 5.98187 -27.8293 -51.6703 5.98187 
-31.7217 -50.5661 5.98187 -23.3906 -51.6703 7.06501 -15.0595 -51.6703 9.60992 
-6.72845 -51.6703 9.51258 1.60265 -51.6703 8.8529 10.8832 -51.6703 5.98187 
9.93374 -51.6703 6.31808 18.2648 -48.4261 5.98187 -48.3839 -35.9883 5.98187 
-39.7089 -43.3392 5.98187 -40.0528 -43.0466 5.98187 -31.7217 -43.3392 10.5063 
-23.3906 -43.3392 12.6531 -15.0595 -43.3392 14.0041 -6.72845 -43.3392 13.4502 
1.60265 -43.3392 13.6304 9.93374 -43.3392 11.5349 24.5873 -43.3392 5.98187 
18.2648 -43.3392 8.88419 26.5959 -41.9911 5.98187 34.927 -37.252 5.98187 
-49.1227 -35.0082 5.98187 -48.3839 -35.0082 6.84326 -40.0528 -35.0082 11.168 
9.93374 -35.0082 13.5902 18.2648 -35.0082 12.1379 26.5959 -35.0082 10.4733 
40.381 -35.0082 5.98187 34.927 -35.0082 7.57383 43.2581 -33.4047 5.98187 
-52.9186 -26.6771 5.98187 -56.715 -20.9826 5.98187 -48.3839 -26.6771 9.19795 
26.5959 -26.6771 13.3882 34.927 -26.6771 11.4993 48.4776 -26.6771 5.98187 
43.2581 -26.6771 9.68223 51.5892 -23.6421 5.98187 59.9203 -18.7832 5.98187 
-57.871 -18.346 5.98187 -56.715 -18.346 7.30543 -48.3839 -18.346 11.9253 
34.927 -18.346 13.2858 43.2581 -18.346 11.5802 51.5892 -18.346 9.65492 
60.2687 -18.346 5.98187 59.9203 -18.346 6.26976 -59.4099 -10.0149 5.98187 
-56.715 -10.0149 9.16211 -48.3839 -10.0149 13.63 43.2581 -10.0149 13.9779 
51.5892 -10.0149 11.8132 62.5803 -10.0149 5.98187 59.9203 -10.0149 7.8996 
-62.005 -1.68378 5.98187 -56.715 -1.68378 11.8615 51.5892 -1.68378 13.7035 
67.7637 -1.68378 5.98187 59.9203 -1.68378 11.7847 68.2514 1.49906 5.98187 
-63.0451 6.64732 5.98187 -56.715 6.64732 10.7636 59.9203 6.64732 11.9599 
68.6631 6.64732 5.98187 68.2514 8.6766 5.98187 68.2514 6.64732 6.64197 
-62.9038 14.9784 5.98187 -56.715 14.9784 10.9632 66.4173 14.9784 5.98187 
59.9203 14.9784 12.8155 -60.2058 23.3095 5.98187 -56.715 23.3095 10.824 
51.5892 23.3095 14.0209 62.7958 23.3095 5.98187 59.9203 28.0959 5.98187 
[...]
POINT_DATA 564
SCALARS ImageScalars float
LOOKUP_TABLE default
0 0 0 0 0 0 0 0 0 
0 0 0 0 0 0 0 0 0 
0 0 0 0 0 0 0 0 0 
0 0 0 0 0 0 0 0 0 
0 0 0 0 0 0 0 0 0 
0 0 0 0 0 0 0 0 0 
0 0 0 0 0 0 0 0 0 
0 0 0 0 0 0 0 0 0 
0 0 0 0 0 0 0 0 0 
0 0 0 0 0 0 0 0 0 
0 0 0 0 0 0 0 0 0 
0 0 0 0 0 0 0 0 0 
0 0 0 0 0 0 0 0 0 
0 0 0 0 0 0 0 0 0 
0 0 0 0 0 0 0 0 0 
0 0 0 0 0 0 0 0 0 
0 0 0 0 0 0 0 0 0 
0 0 0 0 0 0 0 0 0 
0 0 0 0 0 0 0 0 0 
0 0 0 0 0 0 0 0 0 
0 0 0 0 0 0 0 0 0 
0 0 0 0 0 0 0 0 0 
0 0 0 0 0 0 0 0 0 
0 0 0 0 0 0 0 0 0 
0 0 0 0 0 0 0 0 0 
0 0 0 0 0 0 0 0 0 
0 0 0 0 0 0 0 0 0 
0 0 0 0 0 0 0 0 0 
0 0 0 0 0 0 0 0 0 
0 0 0 0 0 0 0 0 0 
0 0 0 0 0 0 0 0 0 
0 0 0 0 0 0 0 0 0 
0 0 0 0 0 0 0 0 0 
0 0 0 0 0 0 0 0 0 
0 0 0 0 0 0 0 0 0 
0 0 0 0 0 0 0 0 0 
0 0 0 0 0 0 0 0 0 
0 0 0 0 0 0 0 0 0 
0 0 0 0 0 0 0 0 0 
0 0 0 0 0 0 0 0 0 
0 0 0 0 0 0 0 0 0 
0 0 0 0 0 0 0 0 0 
0 0 0 0 0 0 0 0 0 
0 0 0 0 0 0 0 0 0 
0 0 0 0 0 0 0 0 0 
0 0 0 0 0 0 0 0 0 
0 0 0 0 0 0 0 0 0 
0 0 0 0 0 0 0 0 0 
0 0 0 0 0 0 0 0 0 
0 0 0 0 0 0 0 0 0 
0 0 0 0 0 0 0 0 0 
0 0 0 0 0 0 0 0 0 
0 0 0 0 0 0 0 0 0 
0 0 0 0 0 0 0 0 0 
0 0 0 0 0 0 0 0 0 
0 0 0 0 0 0 0 0 0 
0 0 0 0 0 0 0 0 0 
0 0 0 0 0 0 0 0 0 
0 0 0 0 0 0 0 0 0 
0 0 0 0 0 0 0 0 0 
0 0 0 0 0 0 0 0 0 
0 0 0 0 0 0 0 0 0 
0 0 0 0 0 0 
NORMALS Normals float
0.218291 0.596226 0.77257 0.0500487 0.555055 0.830307 -0.0136206 0.504594 0.863249 
-0.157324 0.505129 0.848583 0.354395 0.371321 0.85821 0.142621 0.257002 0.955829 
0.0308714 0.203767 0.978532 -0.0559777 0.167737 0.984241 -0.111882 0.149428 0.982422 
-0.0576194 0.282589 0.957509 -0.128796 0.414113 0.901067 -0.282772 0.590357 0.755988 
0.406059 0.279072 0.870193 0.243853 0.160117 0.956503 0.104937 0.0899207 0.990405 
-0.0304361 0.0355407 0.998905 -0.0766778 -0.00505875 0.997043 -0.0529498 -0.0149791 0.998485 
0.0223444 0.0785325 0.996661 -0.0533133 0.100411 0.993517 -0.0964005 0.276707 0.956107 
-0.16259 0.415348 0.895014 -0.416708 0.61 0.673984 0.473868 0.269479 0.83835 
0.241655 0.139943 0.960218 0.151286 0.0398876 0.987685 0.0242528 -0.0486501 0.998521 
-0.0567438 -0.0711895 0.995847 -0.10616 -0.100221 0.989286 -0.0317971 -0.128179 0.991241 
0.0795831 -0.0585003 0.99511 0.0584689 -0.0146857 0.998181 0.00342051 0.11449 0.993419 
0.000872162 0.1186 0.992942 -0.220432 0.234833 0.946712 -0.470289 0.461326 0.752334 
0.373003 0.16466 0.913102 0.133499 0.097845 0.986207 0.0621029 -0.00923812 0.998027 
-0.0070984 -0.0902328 0.995895 -0.0806683 -0.124299 0.98896 -0.128958 0.0247644 0.991341 
-0.00179645 0.114996 0.993364 0.13884 0.0491455 0.989095 0.118291 -0.0876737 0.989101 
0.0508269 -0.037896 0.997988 -0.0342083 0.0351152 0.998798 -0.0682672 0.0266806 0.99731 
-0.354903 0.305848 0.88346 -0.593117 0.412772 0.691254 0.541951 0.237894 0.806037 
0.254419 0.117995 0.959869 0.0887005 0.107207 0.990272 -0.0436952 0.0290749 0.998622 
-0.0853356 -0.0375403 0.995645 0.0560169 -0.0452211 0.997405 0.201838 0.144178 0.968749 
0.00952174 0.0894704 0.995944 -0.203559 0.200678 0.958276 -0.0225657 -0.0928949 0.99542 
0.127508 -0.0795846 0.988639 0.0640913 -0.0227114 0.997686 0.0259772 0.0256712 0.999333 
-0.207393 0.0569631 0.976598 -0.468772 0.0824565 0.879462 0.487354 0.0128914 0.873109 
0.221256 0.0615972 0.973268 0.0692605 0.0656587 0.995436 -0.0831169 0.0425614 0.995631 
-0.0840291 0.0331426 0.995912 0.0769256 0.00551847 0.997022 -0.0569726 0.0617307 0.996466 
0.0797524 -0.0836166 0.993301 -0.0086206 -0.0150162 0.99985 -0.122599 0.00557251 0.992441 
0.116083 -0.0512345 0.991917 0.0706113 -0.0748716 0.99469 0.0262705 -0.0785789 0.996562 
-0.221277 -0.132402 0.966181 -0.470985 -0.0566554 0.88032 0.530005 -0.0488426 0.846587 
0.264979 0.0406993 0.963395 0.0791861 -0.0116923 0.996791 -0.0762583 0.0209598 0.996868 
-0.123528 0.0340468 0.991757 0.0612687 -0.00615944 0.998102 0.0776119 -0.247104 0.965876 
-0.0518721 -0.0617697 0.996742 -0.0631342 -0.218326 0.973831 -0.0830338 0.0171671 0.996399 
0.0506533 -0.0337036 0.998147 0.0367248 -0.0923931 0.995045 -0.0403929 -0.122436 0.991654 
-0.175412 -0.226326 0.958127 -0.372631 -0.0835408 0.924211 0.524159 -0.0801713 0.847839 
0.264748 -0.0755649 0.961352 0.0267787 -0.0907885 0.99551 -0.0386901 0.019587 0.999059 
-0.112568 0.0291272 0.993217 -0.148165 0.0403099 0.988141 -0.13154 -0.130029 0.982746 
0.0476777 -0.077945 0.995817 0.111193 -0.102718 0.988476 0.0330642 0.0131128 0.999367 
0.00805041 0.00923698 0.999925 -0.0169882 -0.120885 0.992521 -0.110498 -0.172531 0.978787 
-0.222396 -0.219588 0.949906 0.548841 -0.329001 0.768461 0.316451 -0.225672 0.921374 
0.167988 -0.115215 0.979033 0.0403847 -0.082174 0.995799 -0.101826 -0.000745623 0.994802 
-0.110759 0.0272746 0.993473 -0.0789006 0.0762545 0.993962 -0.00296812 0.091837 0.99577 
0.0530401 -0.000205539 0.998592 0.0355916 -0.0205852 0.999154 -0.0825332 -0.0942828 0.992118 
-0.148457 -0.154574 0.976764 -0.144135 -0.255742 0.95594 -0.346112 -0.351443 0.869882 
0.406796 -0.340197 0.847811 0.184172 -0.240922 0.95291 0.078222 -0.224583 0.97131 
-9.63174e-05 -0.143289 0.989681 -0.0678769 -0.0789222 0.994567 -0.0581477 -0.0405191 0.997485 
-0.036266 -0.0539512 0.997885 -0.00246912 -0.104601 0.994511 -0.0644376 -0.174933 0.982469 
-0.126213 -0.269956 0.954565 -0.174635 -0.288635 0.941378 0.282492 -0.477909 0.831746 
0.156015 -0.423063 0.892568 0.0561826 -0.314722 0.94752 -0.0179724 -0.21708 0.975988 
-0.0524677 -0.252403 0.966199 -0.0625079 -0.270653 0.960646 -0.0746352 -0.311065 0.947454 
-0.159632 -0.431085 0.888078 0.201979 -0.651251 0.731489 -0.0182724 -0.560809 0.827743 
0.237768 0.732218 0.638219 0.0710624 0.680322 0.72946 -0.00544406 0.640727 0.76775 
0.019527 0.995627 0.0913499 -0.163378 0.624876 0.763438 0.384233 0.652397 0.653256 
0.459479 0.54752 0.699357 0.527538 0.774766 0.348483 -0.190026 0.57618 0.794926 
-0.188282 0.569211 0.800343 -0.202095 0.598396 0.775293 -0.257183 0.654219 0.711235 
-0.403366 0.843541 0.35459 -0.309322 0.634772 0.708085 0.504661 0.465293 0.7272 
0.504516 0.439258 0.743314 0.568141 0.526823 0.632197 -0.331377 0.672307 0.661961 
-0.353771 0.714818 0.603226 -0.510374 0.858278 0.0536481 -0.449092 0.679482 0.58019 
0.485881 0.385143 0.784592 0.551047 0.37311 0.746415 0.700602 0.542934 0.463012 
-0.480515 0.658438 0.57928 -0.544267 0.571156 0.614455 0.583134 0.319014 0.747118 
-0.613995 0.512019 0.600706 -0.618466 0.445172 0.647551 0.55037 0.292477 0.782017 
0.60034 0.302438 0.740353 0.73778 0.385026 0.554469 -0.614333 0.429805 0.661712 
0.624656 0.253672 0.738549 -0.705977 0.152641 0.691591 -0.948501 0.31445 0.0383122 
0.670021 0.0339276 0.741566 -0.573147 -0.0364112 0.818643 -0.919569 0.103872 0.37895 
0.600636 -0.0483278 0.798061 0.987592 -0.0165468 0.156168 -0.548757 -0.15197 0.822053 
-0.46946 -0.381831 0.796123 -0.857476 -0.19227 0.477249 0.62635 -0.0977329 0.773391 
-0.455879 -0.385817 0.802072 -0.481165 -0.405118 0.777405 0.550243 -0.329314 0.767323 
0.54981 -0.330916 0.766944 -0.310621 -0.397984 0.863205 -0.382138 -0.360863 0.850734 
-0.359507 -0.380761 0.851925 -0.629728 -0.558004 0.540439 0.508363 -0.422418 0.75042 
0.764239 -0.551805 0.333842 0.487399 -0.491228 0.721899 -0.163568 -0.45603 0.874804 
-0.310609 -0.397999 0.863202 -0.210636 -0.394251 0.894538 -0.311116 -0.398468 0.862804 
-0.511309 -0.616876 0.598354 0.376673 -0.550434 0.745077 0.614206 -0.702452 0.359598 
0.332039 -0.550578 0.765907 0.236916 -0.549674 0.80108 -0.137617 -0.555612 0.819974 
-0.0606563 -0.50532 0.860798 -0.12427 -0.53219 0.837455 -0.169389 -0.471218 0.865599 
-0.187236 -0.484491 0.854524 -0.172985 -0.501857 0.847476 -0.294815 -0.599404 0.744177 
-0.509907 -0.749411 0.422348 0.205134 -0.652635 0.729375 0.339269 -0.804623 0.487318 
0.202118 -0.654806 0.72827 -0.119816 -0.594131 0.795395 -0.0148136 -0.668245 0.743793 
-0.14218 -0.625045 0.767531 -0.077284 -0.64847 0.757307 -0.172773 -0.74063 0.64932 
-0.238804 -0.840078 0.487075 0.0203166 0.999518 0.0234825 0.501025 0.864719 0.0351455 
0.343118 0.939161 -0.0156779 0.0677218 0.997512 0.0195628 0.172799 0.984908 0.00986028 
-0.0754395 0.996913 0.0217724 0.0205357 0.998552 -0.0497197 -0.183432 0.982829 0.019972 
-0.352715 0.935623 0.0141767 -0.480635 0.876493 -0.0273815 0.532406 0.845141 0.0477633 
0.639269 0.76794 0.0400425 0.429997 0.818015 -0.382041 -0.496123 0.866919 -0.0480937 
-0.46014 0.83056 -0.313754 -0.50509 0.858554 -0.0881454 -0.519905 0.8454 -0.122466 
0.731657 0.67861 0.0645511 0.790194 0.598616 0.131346 0.565193 0.642557 -0.517375 
-0.384971 0.680514 -0.623457 -0.51934 0.845666 -0.123022 -0.513862 0.837222 -0.187098 
-0.526986 0.840507 -0.125828 0.819444 0.556953 0.135334 -0.592003 0.79661 -0.122251 
-0.428742 0.632512 -0.645064 -0.625543 0.766796 -0.143943 0.868483 0.477911 0.131677 
0.87471 0.464791 0.137299 -0.75906 0.640102 -0.118731 -0.514932 0.546544 -0.660405 
-0.784936 0.616001 -0.0664686 0.911793 0.390873 0.125906 -0.83672 0.547257 -0.0202544 
-0.942365 0.334533 -0.00598095 0.952233 0.294867 0.0794058 -0.948231 0.317545 -0.00476215 
-0.942444 0.331686 -0.0422374 0.983577 0.135299 0.11946 0.989909 0.0307794 0.138322 
-0.981826 0.142682 0.125135 -0.815935 0.216502 -0.536076 0.989498 -0.0159082 0.143665 
0.987488 -0.0416167 0.152102 0.994144 -0.0132062 0.107251 -0.976685 -0.157992 0.145342 
-0.897284 -0.36324 0.250873 0.967546 -0.174423 0.182843 -0.878659 -0.400398 0.260077 
0.918826 -0.356029 0.170299 -0.717909 -0.613674 0.328651 -0.696535 -0.635883 0.332404 
0.797809 -0.550356 0.246189 0.772908 -0.579095 0.25935 -0.66134 -0.661141 0.354292 
-0.583434 -0.719154 0.377388 0.662076 -0.704502 0.255602 0.62076 -0.740936 0.256264 
0.43074 -0.877507 0.210817 -0.291854 -0.89479 0.337893 -0.364862 -0.861307 0.35359 
-0.538424 -0.76273 0.358248 -0.520459 -0.772629 0.363547 0.399846 -0.895035 0.197577 
0.329203 -0.930711 0.159384 0.193071 -0.970709 0.142992 0.0675817 -0.988547 0.134936 
-0.0202205 -0.974901 0.221721 -0.122624 -0.96226 0.242937 -0.215283 -0.935756 0.279309 
-0.286579 -0.898653 0.332108 -0.22606 -0.924693 0.306332 -0.279271 -0.958985 -0.048525 
0.214011 0.737127 -0.64097 0.163624 0.752083 -0.638435 0.0160414 0.737733 -0.674902 
-0.184526 0.7063 -0.68344 -0.283021 0.667798 -0.688437 0.296091 0.74481 -0.597987 
0.374055 0.729808 -0.572244 0.207249 0.700613 -0.682781 0.0958923 0.621574 -0.777464 
-0.0400742 0.544788 -0.837616 -0.136215 0.560005 -0.817215 -0.291678 0.666384 -0.68619 
-0.277339 0.656291 -0.701688 -0.368193 0.610697 -0.701059 0.709771 0.501311 -0.494886 
0.547381 0.629986 -0.550901 0.55119 0.628112 -0.54924 0.289587 0.499478 -0.816493 
0.190815 0.402138 -0.895475 0.0371117 0.300641 -0.953015 -0.0194051 0.326957 -0.94484 
-0.0973532 0.338748 -0.935827 -0.26374 0.338188 -0.903366 -0.35165 0.589525 -0.727189 
-0.316254 0.43553 -0.842792 -0.33896 0.602596 -0.722484 -0.350939 0.582095 -0.733489 
0.725175 0.481472 -0.492245 0.697382 0.46613 -0.544409 0.406503 0.371084 -0.834896 
-0.1715 0.195161 -0.96566 -0.178315 0.312045 -0.933184 -0.215202 0.406512 -0.887939 
-0.377791 0.572964 -0.727314 -0.317833 0.520227 -0.792683 -0.406829 0.553844 -0.726462 
0.70138 0.412451 -0.581335 0.786514 0.33131 -0.521181 0.569655 0.281691 -0.772104 
-0.163242 0.266403 -0.949938 -0.190185 0.281576 -0.940502 -0.448748 0.449616 -0.772315 
-0.370372 0.360642 -0.856015 -0.406431 0.489963 -0.771201 -0.567834 0.418556 -0.708784 
0.806526 0.276602 -0.522501 0.753354 0.271442 -0.598979 0.423703 0.229747 -0.87618 
-0.195925 0.162501 -0.967061 -0.191719 0.221888 -0.956038 -0.318083 0.403187 -0.858058 
-0.574671 0.408637 -0.709062 -0.558849 0.398331 -0.727338 0.777761 0.210803 -0.592157 
0.653799 0.201867 -0.729244 0.311493 0.18616 -0.931835 -0.162162 0.18534 -0.969202 
-0.286711 0.192464 -0.938485 -0.63276 0.294564 -0.716133 -0.519729 0.271949 -0.809892 
0.802903 0.16626 -0.572455 0.569921 0.0367737 -0.820876 -0.157146 0.260042 -0.952724 
-0.756892 0.220028 -0.615388 -0.45651 0.191769 -0.868806 -0.81263 0.115057 -0.571309 
0.832531 0.03695 -0.552745 0.574864 -0.0285928 -0.817749 -0.460881 0.04372 -0.886384 
-0.873498 -0.0652935 -0.48243 -0.869979 -0.122087 -0.477736 -0.853969 -0.0587625 -0.516996 
0.852074 -0.135403 -0.505605 0.599219 0.00669334 -0.800557 -0.84318 -0.275262 -0.461821 
-0.526287 -0.062985 -0.847971 0.845472 -0.280797 -0.454236 0.695429 -0.17603 -0.696701 
-0.299855 -0.151147 -0.941935 -0.845082 -0.437404 -0.307431 -0.779668 -0.561765 -0.276655 
-0.70423 -0.396532 -0.588917 0.811182 -0.443586 -0.381071 0.795238 -0.475872 -0.375691 
0.780411 -0.441155 -0.443105 0.487764 -0.352424 -0.798676 -0.699072 -0.674147 -0.238378 
-0.618986 -0.756203 -0.212163 -0.517829 -0.527139 -0.673779 0.622739 -0.702954 -0.343586 
0.578806 -0.739751 -0.343152 0.561319 -0.67715 -0.475804 0.384752 -0.83964 -0.383368 
0.304586 -0.591453 -0.7466 -0.374796 -0.895783 -0.238959 -0.277658 -0.570894 -0.772649 
-0.509095 -0.839424 -0.190234 -0.469083 -0.862578 -0.189528 -0.445184 -0.80998 -0.381765 
0.267045 -0.893152 -0.361892 0.221635 -0.901331 -0.372131 0.20231 -0.874245 -0.441324 
0.165097 -0.834876 -0.525095 0.102223 -0.767898 -0.632363 0.119472 -0.848729 -0.515156 
0.119221 -0.714283 -0.689628 0.0286488 -0.895999 -0.443131 0.0620917 -0.665216 -0.744065 
-0.0697493 -0.907835 -0.413485 -0.00657362 -0.719716 -0.694237 -0.124007 -0.941846 -0.312327 
-0.0753705 -0.771853 -0.631318 -0.196361 -0.942465 -0.270558 -0.187917 -0.860343 -0.473811 
-0.25591 -0.927814 -0.271424 -0.251518 -0.927798 -0.275552 -0.249466 -0.924666 -0.287678 
0.23437 0.321083 -0.917593 0.128328 0.298458 -0.945756 0.0294047 0.277918 -0.960155 
-0.0364285 0.2483 -0.967998 -0.100663 0.230694 -0.967805 0.259399 0.298592 -0.918452 
0.355664 0.207441 -0.911302 0.231448 0.290503 -0.928461 0.0743134 0.225005 -0.97152 
-0.00962493 0.169564 -0.985472 -0.0609104 0.150417 -0.986745 -0.141125 0.141344 -0.97985 
-0.108127 0.0949833 -0.989589 -0.10922 0.172276 -0.978975 -0.100318 0.249372 -0.963198 
0.358009 0.204091 -0.91114 0.354257 0.203468 -0.912745 0.152029 0.110882 -0.982137 
0.043828 0.0843213 -0.995474 -0.0433115 0.034579 -0.998463 -0.0949674 0.029113 -0.995055 
-0.0642127 0.0300368 -0.997484 -0.0485484 0.153746 -0.986917 -0.103525 0.24816 -0.963171 
-0.0943039 0.245243 -0.964864 -0.172755 0.178084 -0.968732 0.292238 0.108371 -0.950186 
0.260905 0.0780275 -0.962206 0.117513 0.0366042 -0.992397 -0.00142006 0.0132415 -0.999911 
-0.0693158 -0.036914 -0.996912 -0.0608854 0.000770152 -0.998144 0.0155682 0.0923578 -0.995604 
0.0563327 0.12386 -0.990699 -0.0691606 0.119908 -0.990373 -0.186572 0.128491 -0.974002 
-0.18338 0.104441 -0.977478 -0.0886585 0.128826 -0.987696 0.258766 0.157262 -0.953052 
0.248279 0.154342 -0.956314 0.172107 0.0834234 -0.981539 0.0744862 0.0288131 -0.996806 
-0.0285881 -0.0109166 -0.999532 -0.0527145 0.0207349 -0.998394 0.0368331 0.15635 -0.987015 
0.0537261 0.0505849 -0.997274 -0.0220879 0.0805064 -0.996509 -0.117844 -0.019145 -0.992848 
-0.115217 0.013032 -0.993255 -0.10229 0.143241 -0.984387 -0.0746966 0.124625 -0.989388 
-0.142448 0.173095 -0.974549 0.299644 0.087495 -0.95003 0.215123 0.115648 -0.969715 
0.147056 0.0899159 -0.985033 0.024799 0.0523966 -0.998318 -0.0119566 0.0261495 -0.999587 
0.089212 0.0653584 -0.993866 -0.0244056 0.140641 -0.98976 -0.0557539 0.0454517 -0.997409 
-0.0111929 0.0228387 -0.999677 -0.142535 -0.00654119 -0.989768 -0.0398943 0.0806274 -0.995946 
-0.0178298 0.140111 -0.989975 -0.122708 0.211247 -0.9697 -0.0956137 0.15403 -0.983429 
-0.175798 0.224042 -0.958593 0.405487 0.0214881 -0.913848 0.332435 0.0686326 -0.940626 
0.131661 0.0791439 -0.98813 0.0110556 0.104836 -0.994428 -0.013933 0.117039 -0.99303 
0.0744125 0.114351 -0.99065 0.0153349 0.0646025 -0.997793 -0.0779633 0.127366 -0.988787 
-0.0813406 -0.0718113 -0.994096 -0.0476157 0.0225597 -0.998611 0.0263465 0.111749 -0.993387 
-0.000946622 0.126346 -0.991986 -0.0368231 0.12544 -0.991418 -0.326638 0.0757803 -0.942107 
-0.259455 0.103852 -0.960155 0.427621 0.0213146 -0.903707 0.345069 0.0147289 -0.938462 
0.187489 0.0168087 -0.982123 0.0617215 0.070979 -0.995566 -0.00335775 0.101304 -0.99485 
0.0363997 0.100299 -0.994291 -0.021067 0.0210939 -0.999556 -0.18042 0.0760127 -0.980648 
-0.116461 0.0337812 -0.992621 0.041374 0.0577898 -0.997471 0.0599276 0.0555031 -0.996658 
-0.00244001 0.0631333 -0.998002 -0.117996 -0.0135843 -0.992921 -0.368155 -0.0776872 -0.926513 
-0.275241 -0.137621 -0.951474 -0.244759 -0.118953 -0.96226 0.461864 -0.182246 -0.868025 
0.395878 -0.271486 -0.877255 0.351622 -0.19627 -0.915336 0.158679 -0.0694538 -0.984884 
0.0939259 -0.0558767 -0.99401 0.0173122 -0.0523106 -0.998481 -0.00465465 -0.0487715 -0.998799 
-0.00951608 -0.0847945 -0.996353 -0.0684388 -0.00156585 -0.997654 -0.0945917 0.113752 -0.988996 
-0.0259488 0.0543165 -0.998187 0.0311938 0.0102015 -0.999461 -0.0711473 -0.107261 -0.991682 
-0.276475 -0.142052 -0.950465 -0.19926 -0.126538 -0.971743 0.394846 -0.306743 -0.866028 
0.278063 -0.447078 -0.850178 0.26301 -0.249726 -0.931913 0.0807308 -0.250864 -0.96465 
0.00394467 -0.207014 -0.97833 0.00557241 -0.213179 -0.976997 0.0264752 -0.198252 -0.979793 
0.0186371 -0.148553 -0.988729 -0.0592912 -0.0784472 -0.995154 -0.0643347 -0.0825093 -0.994512 
-0.105563 -0.156674 -0.981993 -0.177415 -0.364705 -0.914065 -0.144688 -0.281655 -0.948544 
-0.193644 -0.298578 -0.934534 -0.174748 -0.304028 -0.936499 -0.165534 -0.283892 -0.94446 
0.201722 -0.424253 -0.88279 0.186402 -0.425262 -0.885667 0.18519 -0.401432 -0.896971 
0.0297975 -0.52503 -0.850562 0.043969 -0.437355 -0.898213 0.00836002 -0.461478 -0.887112 
-0.0136021 -0.405937 -0.9138 0.0599759 -0.426576 -0.902461 0.0526234 -0.355582 -0.933162 
0.0402939 -0.482043 -0.87522 0.0554927 -0.358347 -0.931938 -0.0416335 -0.509748 -0.859316 
-0.027265 -0.352035 -0.93559 -0.111741 -0.471694 -0.874654 -0.0940732 -0.358448 -0.928798 
-0.182001 -0.442044 -0.878335 -0.170113 -0.472059 -0.864998 -0.162908 -0.420812 -0.8924 

