# vtk DataFile Version 4.2
vtk output
ASCII
DATASET POLYDATA
POINTS 508 float
-24.006 -38.1654 -15.924 -15.9693 -38.1654 -17.2172 -7.93263 -38.1654 -17.5108 
0.104066 -38.1654 -16.2525 -40.0794 -30.1287 -15.7789 -32.0427 -30.1287 -18.6449 
-24.006 -30.1287 -19.9773 -15.9693 -30.1287 -19.8357 -7.93263 -30.1287 -20.049 
0.104066 -30.1287 -19.5486 8.14076 -30.1287 -17.9883 16.1775 -30.1287 -15.4694 
-48.1161 -22.092 -14.9243 -40.0794 -22.092 -19.1967 -32.0427 -22.092 -21.646 
-24.006 -22.092 -21.4165 -15.9693 -22.092 -20.5597 -7.93263 -22.092 -20.3212 
0.104066 -22.092 -19.6453 8.14076 -22.092 -18.8108 16.1775 -22.092 -18.0465 
24.2142 -22.092 -17.3637 32.2509 -22.092 -16.2871 -48.1161 -14.0553 -17.3703 
-40.0794 -14.0553 -20.7195 -32.0427 -14.0553 -21.9137 -24.006 -14.0553 -21.7401 
-15.9693 -14.0553 -20.9436 -7.93263 -14.0553 -19.7213 0.104066 -14.0553 -19.0838 
8.14076 -14.0553 -18.1135 16.1775 -14.0553 -18.5429 24.2142 -14.0553 -19.9684 
32.2509 -14.0553 -20.2773 40.2876 -14.0553 -18.8148 48.3243 -14.0553 -15.3852 
-48.1161 -6.01865 -18.7689 -40.0794 -6.01865 -21.2814 -32.0427 -6.01865 -21.6027 
-24.006 -6.01865 -21.2076 -15.9693 -6.01865 -21.9778 -7.93263 -6.01865 -22.0612 
0.104066 -6.01865 -18.8724 8.14076 -6.01865 -18.0619 16.1775 -6.01865 -18.8616 
24.2142 -6.01865 -20.8888 32.2509 -6.01865 -22.0157 40.2876 -6.01865 -21.4278 
48.3243 -6.01865 -18.4116 -48.1161 2.01805 -19.3571 -40.0794 2.01805 -21.2549 
-32.0427 2.01805 -21.1371 -24.006 2.01805 -20.2364 -15.9693 2.01805 -20.6875 
-7.93263 2.01805 -22.4846 0.104066 2.01805 -18.6821 8.14076 2.01805 -18.9252 
16.1775 2.01805 -18.2775 24.2142 2.01805 -20.5915 32.2509 2.01805 -22.0142 
40.2876 2.01805 -21.7365 48.3243 2.01805 -18.863 -48.1161 10.0547 -19.0151 
-40.0794 10.0547 -20.9112 -32.0427 10.0547 -20.9573 -24.006 10.0547 -20.2094 
-15.9693 10.0547 -19.5665 -7.93263 10.0547 -21.4464 0.104066 10.0547 -21.5003 
8.14076 10.0547 -19.9461 16.1775 10.0547 -18.3236 24.2142 10.0547 -19.6494 
32.2509 10.0547 -20.7508 40.2876 10.0547 -20.2981 48.3243 10.0547 -17.2221 
-48.1161 18.0914 -17.6485 -40.0794 18.0914 -20.3016 -32.0427 18.0914 -20.6158 
-24.006 18.0914 -20.6249 -15.9693 18.0914 -20.8281 -7.93263 18.0914 -21.5694 
0.104066 18.0914 -21.7392 8.14076 18.0914 -20.3464 16.1775 18.0914 -19.1567 
24.2142 18.0914 -19.3763 32.2509 18.0914 -19.5516 40.2876 18.0914 -17.909 
-40.0794 26.1281 -18.6374 -32.0427 26.1281 -19.9231 -24.006 26.1281 -20.6548 
-15.9693 26.1281 -21.3521 -7.93263 26.1281 -21.9285 0.104066 26.1281 -21.858 
8.14076 26.1281 -20.5334 16.1775 26.1281 -19.2612 24.2142 26.1281 -18.2923 
32.2509 26.1281 -16.7387 -32.0427 34.1648 -17.0813 -24.006 34.1648 -19.2273 
-15.9693 34.1648 -20.6265 -7.93263 34.1648 -20.7527 0.104066 34.1648 -20.628 
8.14076 34.1648 -19.5897 16.1775 34.1648 -17.6026 -15.9693 42.2015 -16.4331 
-7.93263 42.2015 -17.3974 0.104066 42.2015 -17.1748 8.14076 42.2015 -15.4874 
-24.006 -39.1792 -14.9072 -15.9693 -41.0901 -14.9072 -7.93263 -41.3273 -14.9072 
0.104066 -39.593 -14.9072 -40.0794 -31.1411 -14.9072 -26.8037 -38.1654 -14.9072 
-32.0427 -35.88 -14.9072 -32.0427 -38.1654 -11.5168 4.11567 -38.1654 -14.9072 
8.14076 -35.8994 -14.9072 8.14076 -38.1654 -12.5258 16.1775 -31.0605 -14.9072 
16.1775 -38.1654 -7.39051 -41.2474 -30.1287 -14.9072 -48.1161 -22.1182 -14.9072 
18.0478 -30.1287 -14.9072 24.2142 -26.7686 -14.9072 24.2142 -30.1287 -12.5038 
32.2509 -24.0289 -14.9072 32.2509 -30.1287 -8.52144 -48.1338 -22.092 -14.9072 
37.5751 -22.092 -14.9072 40.2876 -20.8787 -14.9072 40.2876 -22.092 -13.7795 
48.3243 -14.6731 -14.9072 -50.7882 -14.0553 -14.9072 48.869 -14.0553 -14.9072 
-52.4898 -6.01865 -14.9072 -56.1528 -6.01865 -7.42712 52.645 -6.01865 -14.9072 
56.361 -6.01865 -9.46529 -53.3354 2.01805 -14.9072 -56.1528 2.01805 -8.85929 
53.0861 2.01805 -14.9072 56.361 2.01805 -9.75605 -52.5726 10.0547 -14.9072 
51.0266 10.0547 -14.9072 48.3243 15.5775 -14.9072 -51.048 18.0914 -14.9072 
-48.1161 23.2235 -14.9072 46.4801 18.0914 -14.9072 40.2876 24.1826 -14.9072 
48.3243 18.0914 -13.104 -45.4132 26.1281 -14.9072 -48.1161 26.1281 -9.92905 
-40.0794 31.4794 -14.9072 24.2142 33.9174 -14.9072 37.5509 26.1281 -14.9072 
32.2509 29.2286 -14.9072 40.2876 26.1281 -13.0706 -36.3315 34.1648 -14.9072 
-40.0794 34.1648 -10.6289 -32.0427 36.7441 -14.9072 -24.006 41.683 -14.9072 
23.8942 34.1648 -14.9072 16.1775 38.9866 -14.9072 24.2142 34.1648 -14.7571 
32.2509 34.1648 -9.17522 -22.5187 42.2015 -14.9072 -24.006 42.2015 -14.2121 
-15.9693 43.9141 -14.9072 -7.93263 45.3041 -14.9072 0.104066 44.8728 -14.9072 
10.0228 42.2015 -14.9072 8.14076 42.8501 -14.9072 16.1775 42.2015 -11.5209 
-32.0427 -40.4379 -6.87053 -24.006 -43.8525 -6.87053 -15.9693 -45.4811 -6.87053 
-7.93263 -45.5529 -6.87053 -7.93263 -46.2021 -1.44113 0.104066 -43.6598 -6.87053 
8.14076 -41.1422 -6.87053 16.1775 -38.4615 -6.87053 -36.0917 -38.1654 -6.87053 
-40.0794 -35.5853 -6.87053 16.9469 -38.1654 -6.87053 24.2142 -35.0151 -6.87053 
24.2142 -38.1654 -0.442718 32.2509 -31.4095 -6.87053 -46.3028 -30.1287 -6.87053 
-48.1161 -27.9479 -6.87053 34.7106 -30.1287 -6.87053 40.2876 -27.1421 -6.87053 
40.2876 -30.1287 -2.17326 -51.8205 -22.092 -6.87053 47.5233 -22.092 -6.87053 
48.3243 -21.4298 -6.87053 48.3243 -22.092 -5.91734 -55.0925 -14.0553 -6.87053 
-56.1528 -7.31059 -6.87053 54.2928 -14.0553 -6.87053 56.361 -9.36701 -6.87053 
56.361 -14.0553 -1.55175 -56.343 -6.01865 -6.87053 -56.1528 -6.01865 -6.21328 
57.6299 -6.01865 -6.87053 -56.7752 2.01805 -6.87053 -56.1528 8.65613 -6.87053 
-56.1528 2.01805 -5.1924 57.6808 2.01805 -6.87053 56.361 8.53244 -6.87053 
-56.0082 10.0547 -6.87053 56.0129 10.0547 -6.87053 -53.6166 18.0914 -6.87053 
52.2565 18.0914 -6.87053 48.3243 23.0387 -6.87053 -49.1737 26.1281 -6.87053 
-48.1161 27.6857 -6.87053 -48.1161 26.1281 -4.77156 45.3225 26.1281 -6.87053 
40.2876 30.3371 -6.87053 -42.1203 34.1648 -6.87053 -40.0794 35.8907 -6.87053 
-40.0794 34.1648 -2.92629 -32.0427 41.5504 -6.87053 24.2142 40.3497 -6.87053 
34.5627 34.1648 -6.87053 32.2509 35.5744 -6.87053 -30.894 42.2015 -6.87053 
-24.006 45.7255 -6.87053 -15.9693 48.411 -6.87053 -7.93263 50.0847 -6.87053 
0.104066 49.4972 -6.87053 8.14076 47.7367 -6.87053 20.8705 42.2015 -6.87053 
16.1775 44.6315 -6.87053 -7.93263 -46.5113 1.16617 -32.0427 -40.315 1.16617 
-24.006 -44.1175 1.16617 -12.5991 -46.2021 1.16617 -15.9693 -45.9853 1.16617 
-6.38931 -46.2021 1.16617 -7.93263 -46.2021 6.07406 0.104066 -44.8916 1.16617 
8.14076 -42.9316 1.16617 16.1775 -41.113 1.16617 24.2142 -38.8234 1.16617 
-35.4859 -38.1654 1.16617 -40.0794 -34.8231 1.16617 -32.0427 -38.1654 8.36043 
25.9772 -38.1654 1.16617 32.2509 -35.5556 1.16617 40.2876 -31.8936 1.16617 
-45.0331 -30.1287 1.16617 -48.1161 -26.1316 1.16617 42.9174 -30.1287 1.16617 
48.3243 -26.0109 1.16617 -50.8369 -22.092 1.16617 -48.1161 -22.092 6.61551 
52.2416 -22.092 1.16617 56.361 -15.6746 1.16617 -53.2098 -14.0553 1.16617 
57.213 -14.0553 1.16617 -53.9263 -6.01865 1.16617 59.3338 -6.01865 1.16617 
-53.585 2.01805 1.16617 -48.1161 2.01805 8.98405 58.4833 2.01805 1.16617 
56.361 9.10648 1.16617 -53.3734 10.0547 1.16617 -48.1161 10.0547 6.65342 
56.0513 10.0547 1.16617 -49.5931 18.0914 1.16617 -48.1161 20.4043 1.16617 
-48.1161 18.0914 2.7311 51.9493 18.0914 1.16617 48.3243 22.8233 1.16617 
-44.7534 26.1281 1.16617 -40.0794 31.9788 1.16617 -40.0794 26.1281 6.44323 
45.2479 26.1281 1.16617 40.2876 30.4721 1.16617 -38.2626 34.1648 1.16617 
-32.0427 39.9419 1.16617 24.2142 40.9449 1.16617 35.0998 34.1648 1.16617 
32.2509 36.0054 1.16617 32.2509 34.1648 5.92501 -28.9727 42.2015 1.16617 
-24.006 45.3527 1.16617 -24.006 42.2015 7.57129 -15.9693 48.5232 1.16617 
-7.93263 49.9587 1.16617 0.104066 49.5809 1.16617 8.14076 48.0474 1.16617 
21.8935 42.2015 1.16617 16.1775 45.1813 1.16617 -24.006 -42.5877 9.20287 
-15.9693 -45.3085 9.20287 -7.93263 -46.0078 9.20287 0.104066 -45.1496 9.20287 
8.14076 -44.2918 9.20287 16.1775 -42.2315 9.20287 24.2142 -39.8694 9.20287 
-40.0794 -31.1966 9.20287 -31.6246 -38.1654 9.20287 -32.0427 -37.8572 9.20287 
-24.006 -38.1654 15.9714 29.0246 -38.1654 9.20287 24.2142 -38.1654 14.2212 
32.2509 -36.9735 9.20287 40.2876 -32.851 9.20287 -41.1135 -30.1287 9.20287 
-40.0794 -30.1287 10.4621 44.3212 -30.1287 9.20287 40.2876 -30.1287 15.1929 
48.3243 -26.765 9.20287 -46.6301 -22.092 9.20287 -48.1161 -17.4079 9.20287 
-40.0794 -22.092 15.6423 52.5476 -22.092 9.20287 48.3243 -22.092 15.857 
56.361 -14.5739 9.20287 -49.0104 -14.0553 9.20287 -48.1161 -14.0553 10.3017 
56.586 -14.0553 9.20287 56.361 -14.0553 9.65441 -49.144 -6.01865 9.20287 
-48.1161 0.889082 9.20287 -48.1161 -6.01865 10.4119 58.3042 -6.01865 9.20287 
56.361 -6.01865 13.1219 -47.9072 2.01805 9.20287 -40.0794 2.01805 15.7024 
56.633 2.01805 9.20287 56.361 2.77767 9.20287 56.361 2.01805 9.66 
-45.3252 10.0547 9.20287 -40.0794 10.0547 13.3587 53.3573 10.0547 9.20287 
48.3243 10.0547 14.9727 -41.6317 18.0914 9.20287 -40.0794 20.9442 9.20287 
-40.0794 18.0914 10.4956 -32.0427 18.0914 15.7816 40.2876 18.0914 16.2244 
48.6885 18.0914 9.20287 48.3243 18.5379 9.20287 48.3243 18.0914 9.65579 
-36.9616 26.1281 9.20287 -32.0427 26.1281 12.8368 32.2509 32.6792 9.20287 
32.2509 26.1281 15.3281 41.0582 26.1281 9.20287 40.2876 26.8184 9.20287 
40.2876 26.1281 9.99678 -32.1076 34.1648 9.20287 -32.0427 34.2335 9.20287 
-32.0427 34.1648 9.26341 -24.006 40.9129 9.20287 -24.006 34.1648 13.9509 
16.1775 34.1648 15.7944 29.9436 34.1648 9.20287 24.2142 37.6375 9.20287 
24.2142 34.1648 12.7732 -22.0382 42.2015 9.20287 -15.9693 44.8985 9.20287 
-15.9693 42.2015 12.1669 -7.93263 46.5291 9.20287 -7.93263 42.2015 13.955 
0.104066 46.3724 9.20287 0.104066 42.2015 13.9678 8.14076 44.939 9.20287 
8.14076 42.2015 12.4151 16.2828 42.2015 9.20287 16.1775 42.2564 9.20287 
16.1775 42.2015 9.27031 -15.9693 -41.0111 17.2396 -7.93263 -42.7866 17.2396 
0.104066 -42.7121 17.2396 8.14076 -41.4046 17.2396 16.1775 -39.8264 17.2396 
-32.0427 -30.2971 17.2396 -21.7411 -38.1654 17.2396 -24.006 -36.6189 17.2396 
[...]
POINT_DATA 508
SCALARS ImageScalars float
LOOKUP_TABLE default
0 0 0 0 0 0 0 0 0 
0 0 0 0 0 0 0 0 0 
0 0 0 0 0 0 0 0 0 
0 0 0 0 0 0 0 0 0 
0 0 0 0 0 0 0 0 0 
0 0 0 0 0 0 0 0 0 
0 0 0 0 0 0 0 0 0 
0 0 0 0 0 0 0 0 0 
0 0 0 0 0 0 0 0 0 
0 0 0 0 0 0 0 0 0 
0 0 0 0 0 0 0 0 0 
0 0 0 0 0 0 0 0 0 
0 0 0 0 0 0 0 0 0 
0 0 0 0 0 0 0 0 0 
0 0 0 0 0 0 0 0 0 
0 0 0 0 0 0 0 0 0 
0 0 0 0 0 0 0 0 0 
0 0 0 0 0 0 0 0 0 
0 0 0 0 0 0 0 0 0 
0 0 0 0 0 0 0 0 0 
0 0 0 0 0 0 0 0 0 
0 0 0 0 0 0 0 0 0 
0 0 0 0 0 0 0 0 0 
0 0 0 0 0 0 0 0 0 
0 0 0 0 0 0 0 0 0 
0 0 0 0 0 0 0 0 0 
0 0 0 0 0 0 0 0 0 
0 0 0 0 0 0 0 0 0 
0 0 0 0 0 0 0 0 0 
0 0 0 0 0 0 0 0 0 
0 0 0 0 0 0 0 0 0 
0 0 0 0 0 0 0 0 0 
0 0 0 0 0 0 0 0 0 
0 0 0 0 0 0 0 0 0 
0 0 0 0 0 0 0 0 0 
0 0 0 0 0 0 0 0 0 
0 0 0 0 0 0 0 0 0 
0 0 0 0 0 0 0 0 0 
0 0 0 0 0 0 0 0 0 
0 0 0 0 0 0 0 0 0 
0 0 0 0 0 0 0 0 0 
0 0 0 0 0 0 0 0 0 
0 0 0 0 0 0 0 0 0 
0 0 0 0 0 0 0 0 0 
0 0 0 0 0 0 0 0 0 
0 0 0 0 0 0 0 0 0 
0 0 0 0 0 0 0 0 0 
0 0 0 0 0 0 0 0 0 
0 0 0 0 0 0 0 0 0 
0 0 0 0 0 0 0 0 0 
0 0 0 0 0 0 0 0 0 
0 0 0 0 0 0 0 0 0 
0 0 0 0 0 0 0 0 0 
0 0 0 0 0 0 0 0 0 
0 0 0 0 0 0 0 0 0 
0 0 0 0 0 0 0 0 0 
0 0 0 0 
NORMALS Normals float
0.224658 0.640068 0.734739 0.0799561 0.514253 0.853903 -0.0522498 0.519714 0.852741 
-0.223423 0.617421 0.754237 0.48693 0.572184 0.659928 0.216234 0.429557 0.876769 
0.0741648 0.291315 0.953748 0.00490926 0.194776 0.980835 -0.017102 0.161671 0.986696 
-0.124442 0.183331 0.975143 -0.235908 0.28011 0.93053 -0.288693 0.427088 0.856885 
0.674428 0.394349 0.624208 0.350205 0.259301 0.900066 0.129959 0.190012 0.973142 
-0.0670093 0.10144 0.992582 -0.0659695 0.0674128 0.995542 -0.0586051 -0.021529 0.998049 
-0.0902764 -0.0290213 0.995494 -0.0977958 0.00443914 0.995197 -0.0866064 0.170787 0.981494 
-0.0999533 0.395029 0.913215 -0.165878 0.553686 0.816037 0.556967 0.203581 0.805197 
0.240797 0.128292 0.962059 0.0582133 -0.00419706 0.998295 -0.0599017 -0.0133817 0.998115 
-0.12465 0.0840299 0.988636 -0.115896 0.101186 0.988094 -0.0994492 -0.0473319 0.993916 
-0.0345886 -0.0461111 0.998337 0.118364 0.0502103 0.9917 0.103509 0.199379 0.97444 
-0.0602931 0.318075 0.946146 -0.2764 0.3919 0.877506 -0.548649 0.468267 0.692611 
0.504901 0.0999187 0.857374 0.148104 0.0323617 0.988442 -0.00587591 -0.0482545 0.998818 
0.02104 -0.0907642 0.99565 0.0543819 -0.00897147 0.99848 -0.189949 0.172142 0.966585 
-0.240941 -0.0243645 0.970234 0.000679368 0.0462191 0.998931 0.170429 -0.0160453 0.985239 
0.195876 0.0403405 0.979799 0.0324652 0.109652 0.99344 -0.194054 0.169108 0.966305 
-0.501769 0.188283 0.844261 0.463928 0.0129218 0.885779 0.0889016 -0.022966 0.995776 
-0.0586471 -0.0399395 0.997479 -0.031686 -0.0644044 0.997421 0.134143 -0.155413 0.978699 
-0.12054 -0.040745 0.991872 -0.20523 0.1704 0.963766 -0.0263858 0.116728 0.992813 
0.0992111 -0.0339857 0.994486 0.230613 -0.0769021 0.970002 0.0653094 -0.0749254 0.995048 
-0.174101 -0.0687223 0.982327 -0.499649 -0.0609743 0.864079 0.501951 -0.103182 0.858719 
0.0969843 -0.0649279 0.993166 -0.0437751 -0.0322823 0.99852 -0.0861978 0.0242888 0.995982 
0.073585 0.015101 0.997175 0.120806 -0.0501571 0.991408 -0.083578 0.172642 0.981432 
-0.206518 0.0859701 0.974659 -0.00901051 0.0545189 0.998472 0.146809 -0.0704825 0.986651 
0.042034 -0.148815 0.987971 -0.181098 -0.227569 0.956774 -0.526469 -0.269389 0.806387 
0.573623 -0.30858 0.758772 0.171122 -0.114123 0.978618 0.0218391 -0.060535 0.997927 
0.0137197 0.0288523 0.99949 0.0585603 0.112511 0.991923 0.0565944 0.0296277 0.997958 
-0.0712854 0.0220157 0.997213 -0.163466 0.0344914 0.985946 -0.0564214 0.0579307 0.996725 
0.023948 -0.0789661 0.99659 -0.0846398 -0.236385 0.967966 -0.294152 -0.352707 0.888297 
0.366343 -0.40737 0.836566 0.110621 -0.183108 0.976849 0.0885591 -0.0861585 0.992338 
0.0762097 -0.00743602 0.997064 0.0340193 -0.0480098 0.998267 -0.0858504 -0.0660664 0.994115 
-0.160239 -0.0473301 0.985943 -0.133443 -0.0838672 0.987501 -0.152068 -0.258503 0.953966 
-0.241634 -0.430653 0.86957 0.355831 -0.519854 0.776618 0.179863 -0.323979 0.928809 
0.0942006 -0.271658 0.957772 -0.000439036 -0.257223 0.966352 -0.0716864 -0.262815 0.96218 
-0.169716 -0.2687 0.948154 -0.282313 -0.337191 0.89811 0.151324 -0.616375 0.772776 
0.0409439 -0.548928 0.834866 -0.102943 -0.570119 0.815087 -0.222632 -0.634309 0.740329 
0.240901 0.684957 0.687605 0.105868 0.673595 0.731479 -0.0802715 0.691232 0.71816 
-0.237342 0.689009 0.684789 0.498924 0.603532 0.621952 0.283247 0.6847 0.671534 
0.330773 0.657843 0.676632 0.405468 0.802838 0.437089 -0.27666 0.66434 0.694343 
-0.305542 0.587937 0.748982 -0.318849 0.75052 0.578839 -0.302349 0.467414 0.830728 
-0.329396 0.839779 0.43159 0.523254 0.584878 0.619776 0.674792 0.395045 0.623374 
-0.288576 0.468739 0.83487 -0.206758 0.509919 0.835005 -0.299487 0.623999 0.721757 
-0.210997 0.600684 0.771141 -0.364824 0.748315 0.554011 0.675254 0.394397 0.623284 
-0.308277 0.622409 0.719425 -0.368002 0.613023 0.699126 -0.387697 0.654939 0.648649 
-0.555621 0.483269 0.676562 0.714544 0.221813 0.663495 -0.570939 0.469459 0.673525 
0.72778 0.12079 0.67509 0.992714 0.103011 0.0625038 -0.699466 0.20231 0.685433 
-0.882322 0.193673 0.42895 0.76067 0.00291454 0.649132 0.992852 -0.0162839 0.118233 
-0.731946 -0.0734238 0.677395 -0.917439 -0.0875609 0.388123 0.756508 -0.127205 0.641494 
-0.66946 -0.276738 0.689375 -0.593695 -0.40756 0.693845 0.76803 -0.309423 0.560702 
0.66863 -0.446375 0.594713 -0.534902 -0.447416 0.716728 -0.419878 -0.53675 0.731848 
-0.648216 -0.493712 0.57971 0.58887 -0.527555 0.612305 0.797002 -0.578339 0.174106 
0.468578 -0.60852 0.640421 -0.32504 -0.516155 0.792422 -0.384668 -0.541841 0.747288 
-0.310488 -0.534144 0.786313 -0.490444 -0.632869 0.599118 0.446418 -0.611299 0.653471 
0.594051 -0.748724 0.294137 0.408361 -0.621178 0.668864 0.300804 -0.696921 0.651013 
-0.328996 -0.517021 0.790222 -0.345014 -0.560601 0.75279 -0.33369 -0.528492 0.780607 
-0.484029 -0.78173 0.393209 0.278681 -0.70377 0.653486 0.316096 -0.737263 0.597099 
0.174146 -0.684041 0.708351 0.0498164 -0.666472 0.743864 -0.11929 -0.67661 0.726614 
-0.257571 -0.652842 0.712359 -0.22902 -0.658578 0.716816 -0.397671 -0.772236 0.495489 
0.439321 0.877892 0.190532 0.285798 0.928666 0.236431 0.0991893 0.967414 0.232963 
-0.105995 0.961326 0.254198 -0.0792134 0.992043 0.0978598 -0.259381 0.92515 0.277163 
-0.29571 0.896976 0.328618 -0.325066 0.850711 0.413064 0.509107 0.842718 0.175034 
0.598416 0.785845 0.156031 -0.32794 0.84573 0.420946 -0.3472 0.788592 0.507518 
-0.322633 0.898655 0.297198 -0.377303 0.772182 0.51125 0.730211 0.670226 0.132622 
0.783886 0.608134 0.125283 -0.392342 0.761835 0.515437 -0.441472 0.744282 0.501145 
-0.466372 0.796673 0.384459 0.878902 0.460221 0.125409 -0.571588 0.664269 0.481699 
-0.592439 0.64828 0.478276 -0.595382 0.663278 0.453411 0.961274 0.262399 0.0842615 
0.991711 0.124248 0.032736 -0.79544 0.452735 0.402872 -0.883752 0.291498 0.366076 
-0.890167 0.405571 0.207641 0.994704 0.0994863 0.0258046 0.995474 0.0947704 -0.00709941 
-0.923921 0.180487 0.337335 0.999421 -0.0208529 -0.0268986 0.986046 -0.164841 0.0232599 
0.993872 -0.0150007 -0.109517 -0.959375 -0.0940527 0.265997 -0.943349 -0.241683 0.227339 
0.980222 -0.194866 0.0345209 -0.933952 -0.281487 0.220224 0.929345 -0.367748 -0.0328462 
-0.828486 -0.520819 0.205814 -0.734811 -0.642327 0.217874 0.826933 -0.558651 -0.0639545 
0.804077 -0.591813 -0.0567271 0.819339 -0.546522 -0.173199 -0.663733 -0.712971 0.226121 
-0.583219 -0.775719 0.241071 0.661324 -0.750095 0.00276479 0.627647 -0.778272 0.0187493 
0.667819 -0.709789 -0.224091 0.513395 -0.850031 0.117781 -0.479384 -0.83045 0.283802 
-0.527397 -0.809003 0.259551 -0.508422 -0.819358 0.264879 0.492934 -0.8611 0.12459 
0.37642 -0.908943 0.179249 0.249308 -0.942825 0.221191 0.0654258 -0.976262 0.206474 
-0.139029 -0.966214 0.217029 -0.280846 -0.927662 0.246106 -0.451916 -0.853735 0.258669 
-0.406519 -0.878691 0.250288 -0.066706 0.997404 0.0271198 0.490572 0.862014 -0.127557 
0.324631 0.943217 -0.0703987 0.0543195 0.998502 0.00655046 0.140119 0.990095 -0.00889296 
-0.0953663 0.994734 0.0375357 -0.0359077 0.994627 -0.0970965 -0.215683 0.972557 0.0872596 
-0.226332 0.957486 0.178869 -0.24257 0.945716 0.21629 -0.314395 0.915464 0.251161 
0.540158 0.827566 -0.152854 0.626881 0.755224 -0.191461 0.540126 0.767307 -0.345693 
-0.332796 0.907671 0.255696 -0.387713 0.878284 0.279814 -0.481893 0.830313 0.279926 
0.721702 0.653179 -0.229137 0.800962 0.539393 -0.259836 -0.52702 0.806108 0.269145 
-0.637915 0.735115 0.2295 0.869906 0.412556 -0.270298 0.809281 0.390287 -0.439022 
-0.736375 0.643842 0.207893 -0.893118 0.431777 0.126133 0.924184 0.169402 -0.342326 
-0.919505 0.376928 0.111514 0.915467 0.0221935 -0.401781 -0.996342 0.0767734 0.0375362 
0.894413 -0.0307056 -0.446187 0.697592 -0.164805 -0.697284 -0.980604 -0.187981 -0.05548 
-0.932915 -0.338184 -0.123699 0.851891 -0.182913 -0.490739 0.677755 -0.260374 -0.687644 
-0.92332 -0.360243 -0.133063 0.724318 -0.392848 -0.566598 0.718125 -0.411786 -0.561007 
0.694527 -0.375022 -0.613995 -0.826513 -0.53829 -0.164683 -0.755162 -0.633214 -0.169621 
0.723182 -0.468249 -0.507692 0.665464 -0.574542 -0.476508 0.609652 -0.444159 -0.656541 
-0.69189 -0.702344 -0.167334 -0.613149 -0.774775 -0.154183 0.65684 -0.617886 -0.432178 
0.583309 -0.742317 -0.32972 -0.495683 -0.859408 -0.125361 -0.555576 -0.819601 -0.139963 
-0.534981 -0.834475 -0.132088 -0.514755 -0.790032 -0.332983 0.533377 -0.796395 -0.285068 
0.450162 -0.863392 -0.227833 0.480339 -0.717501 -0.504447 0.265389 -0.947264 -0.179607 
0.0620382 -0.980818 -0.184789 -0.113548 -0.980389 -0.161073 -0.254915 -0.956074 -0.144713 
-0.469782 -0.874137 -0.123246 -0.399178 -0.908588 -0.12298 0.393784 0.859431 -0.326055 
0.197393 0.954639 -0.222936 -0.014863 0.983859 -0.178325 -0.102636 0.989605 -0.100739 
-0.184951 0.980801 -0.061827 -0.251086 0.966011 -0.0614706 -0.320568 0.943325 -0.0858776 
0.649802 0.607738 -0.456522 0.536909 0.757504 -0.371371 0.543445 0.750347 -0.37636 
0.39853 0.645909 -0.651134 -0.362543 0.9282 -0.0837136 -0.332482 0.857334 -0.392982 
-0.397518 0.913651 -0.0849751 -0.508799 0.852988 -0.116341 0.665576 0.584705 -0.463819 
0.647331 0.572858 -0.502788 -0.581247 0.804977 -0.119016 -0.486956 0.73627 -0.469873 
-0.68634 0.711116 -0.152485 0.765372 0.362551 -0.531755 0.796259 0.220915 -0.563177 
0.571887 0.29222 -0.76652 -0.798842 0.567926 -0.198271 -0.660762 0.463798 -0.590157 
-0.911646 0.315074 -0.263875 0.802409 0.120485 -0.584485 0.781265 0.112488 -0.61398 
-0.915442 0.299775 -0.268515 -0.908839 0.299121 -0.290755 0.77981 -0.0452326 -0.62438 
0.704775 -0.150427 -0.693299 0.754153 -0.0586596 -0.654074 -0.952871 0.00446166 -0.303343 
-0.858316 -0.0190064 -0.512769 0.690625 -0.167396 -0.703573 0.522107 -0.202074 -0.828595 
-0.886183 -0.259184 -0.384062 -0.880318 -0.271381 -0.389092 -0.876307 -0.263067 -0.403585 
0.623659 -0.258369 -0.737763 0.553878 -0.25413 -0.792866 -0.794984 -0.399315 -0.456671 
-0.600495 -0.375287 -0.706091 0.612463 -0.31109 -0.726713 0.590718 -0.352694 -0.725713 
0.591117 -0.313574 -0.743137 0.45469 -0.270202 -0.848674 -0.415895 -0.423667 -0.804697 
-0.696765 -0.543414 -0.468209 -0.690562 -0.550716 -0.468867 -0.686475 -0.541696 -0.485095 
0.56618 -0.390012 -0.726175 0.532452 -0.325145 -0.781521 -0.480557 -0.725645 -0.492447 
-0.334708 -0.518163 -0.787069 -0.588186 -0.651705 -0.478871 -0.578259 -0.660766 -0.478545 
-0.570708 -0.644458 -0.508888 0.57687 -0.502724 -0.643809 0.576013 -0.504519 -0.643172 
0.575877 -0.502347 -0.644991 0.470489 -0.655034 -0.591245 0.410741 -0.44452 -0.796049 
-0.257839 -0.454455 -0.852637 -0.469359 -0.729685 -0.497254 -0.438649 -0.733161 -0.519675 
-0.367207 -0.622605 -0.69103 0.42543 -0.694848 -0.579823 0.271194 -0.770985 -0.576225 
0.262209 -0.676086 -0.688589 0.0781577 -0.821716 -0.564512 0.0849361 -0.657373 -0.748763 
-0.0873373 -0.830057 -0.550797 -0.0705226 -0.667484 -0.741277 -0.221305 -0.81718 -0.532204 
-0.209232 -0.711396 -0.670923 -0.365689 -0.777295 -0.511942 -0.364317 -0.777803 -0.512148 
-0.363978 -0.77605 -0.51504 0.272348 0.678751 -0.682 0.0764852 0.767358 -0.636641 
-0.0758789 0.810377 -0.580975 -0.164667 0.782092 -0.601013 -0.248191 0.780468 -0.573822 
0.449768 0.434267 -0.780462 0.359945 0.602298 -0.712514 0.376249 0.560594 -0.737679 
0.259623 0.54605 -0.796508 0.08803 0.484368 -0.870424 -0.0396055 0.527987 -0.848328 
-0.122176 0.602413 -0.788779 -0.294502 0.752132 -0.589547 -0.237611 0.692169 -0.681501 
-0.296904 0.710701 -0.637772 -0.340826 0.69257 -0.635755 0.45144 0.430606 -0.781524 
0.447281 0.428552 -0.785037 0.300168 0.295717 -0.906891 0.17771 0.182556 -0.967002 
0.0606419 0.155039 -0.986045 0.00215973 0.151187 -0.988503 -0.0690937 0.202844 -0.97677 
-0.139401 0.222879 -0.964828 -0.162149 0.352389 -0.921699 -0.424831 0.660211 -0.619387 
-0.268069 0.514433 -0.814553 -0.452899 0.630675 -0.630183 0.493342 0.250798 -0.832895 
0.514514 0.125222 -0.848289 0.357194 0.187257 -0.915067 0.168939 0.0895229 -0.981552 
0.0933376 -0.0316916 -0.99513 0.0553275 0.00547488 -0.998453 0.0186173 0.0308777 -0.99935 
-0.0451295 0.0395889 -0.998196 -0.0821175 0.00533334 -0.996608 -0.0639092 0.0977146 -0.99316 
-0.0993547 0.178036 -0.978995 -0.59494 0.415025 -0.688332 -0.29735 0.302846 -0.905465 
-0.612294 0.364451 -0.701621 0.51696 0.0808314 -0.852185 0.500016 0.0803225 -0.862283 
0.25736 0.0106905 -0.966257 0.0995144 -0.0581841 -0.993334 0.0898233 -0.0652853 -0.993816 
0.124539 0.02678 -0.991853 0.0366992 0.0260909 -0.998986 -0.0939824 0.0580492 -0.99388 
-0.0690937 -0.0197513 -0.997415 0.0222181 -0.0169188 -0.99961 -0.0200476 0.0248865 -0.999489 
-0.201169 0.0754597 -0.976646 -0.627517 0.229581 -0.743986 -0.542727 0.190297 -0.818068 
0.498327 -0.0983459 -0.861393 0.493995 -0.110136 -0.862461 0.49108 -0.0985567 -0.865521 
0.22601 -0.0740512 -0.971306 0.0931048 -0.0660121 -0.993466 0.179966 -0.0390803 -0.982896 
0.145832 -0.00284591 -0.989305 0.0502668 -0.105521 -0.993146 -0.0818422 0.0563997 -0.995048 
-0.162005 0.0785399 -0.983659 -0.0254096 -0.0311736 -0.999191 -0.012644 -0.0548172 -0.998416 
-0.149053 -0.0651388 -0.986681 -0.632451 -0.0442213 -0.773337 -0.41947 -0.0655791 -0.905397 
0.434012 -0.179786 -0.882786 0.295652 -0.142773 -0.944566 0.1305 -0.0591185 -0.989684 
0.157084 -0.0348312 -0.986971 0.0581846 -0.0706359 -0.995804 0.0901463 -0.060505 -0.994089 
0.0938937 -0.0800921 -0.992355 -0.159067 -0.0146735 -0.987159 -0.107565 -0.0180711 -0.994034 
-0.0592121 -0.0774168 -0.995239 -0.233059 -0.171907 -0.957148 -0.539051 -0.269414 -0.798023 
-0.517236 -0.294114 -0.803719 -0.488012 -0.251242 -0.835896 0.401868 -0.212019 -0.890814 
0.398338 -0.226006 -0.888959 0.366361 -0.200113 -0.908699 0.203207 -0.102029 -0.973805 
0.168913 -0.0474084 -0.98449 0.119227 -0.0884916 -0.988916 0.0363713 -0.0397843 -0.998546 
-0.0382677 -0.253946 -0.966461 -0.0889025 -0.2196 -0.971531 -0.0930049 -0.138825 -0.98594 
-0.157283 -0.193295 -0.968452 -0.456983 -0.325003 -0.827973 -0.3801 -0.373398 -0.846226 
-0.318267 -0.284995 -0.904148 0.389213 -0.224607 -0.893345 0.294187 -0.162979 -0.941749 
0.159887 -0.0885562 -0.983155 0.0669049 -0.141722 -0.987643 -0.0630052 -0.17112 -0.983234 
-0.0910723 -0.24445 -0.965376 -0.0412465 -0.243556 -0.969009 -0.083823 -0.266957 -0.960056 
-0.346036 -0.383447 -0.856287 -0.268732 -0.410838 -0.871203 -0.219456 -0.322196 -0.920885 
0.381521 -0.276592 -0.882008 0.372843 -0.287013 -0.88239 0.369918 -0.273372 -0.887935 
0.191258 -0.213804 -0.957971 0.0390441 -0.198188 -0.979386 -0.0781024 -0.197801 -0.977126 
-0.119246 -0.19 -0.974516 -0.177361 -0.35284 -0.918721 -0.110391 -0.269304 -0.956707 
-0.191403 -0.402682 -0.895104 -0.179016 -0.398273 -0.899629 -0.166963 -0.383254 -0.908427 
0.252976 -0.394602 -0.883342 0.252345 -0.395129 -0.883287 0.252292 -0.394435 -0.883612 
0.0912166 -0.439677 -0.893512 0.0836343 -0.345332 -0.934746 -0.0601364 -0.449264 -0.891373 
-0.0567763 -0.340748 -0.938439 -0.190042 -0.364851 -0.911465 -0.172551 -0.373712 -0.911354 
-0.165597 -0.336663 -0.92695 
