# vtk DataFile Version 4.2
vtk output
ASCII
DATASET POLYDATA
POINTS 554 float
11.2546 -31.8398 -16.3539 19.5993 -31.8398 -19.2193 27.9441 -31.8398 -20.3121 
36.2888 -31.8398 -19.8966 44.6335 -31.8398 -18.4461 -47.1584 -23.4951 -17.0691 
-38.8137 -23.4951 -17.8192 -30.4689 -23.4951 -17.2214 -22.1242 -23.4951 -15.7152 
2.90991 -23.4951 -18.0362 11.2546 -23.4951 -19.8964 19.5993 -23.4951 -21.5593 
27.9441 -23.4951 -22.425 36.2888 -23.4951 -23.0256 44.6335 -23.4951 -21.467 
52.9782 -23.4951 -19.3379 -55.5031 -15.1504 -17.9371 -47.1584 -15.1504 -20.0745 
-38.8137 -15.1504 -20.1754 -30.4689 -15.1504 -19.4366 -22.1242 -15.1504 -18.1613 
-13.7795 -15.1504 -16.8687 -5.4348 -15.1504 -18.5576 2.90991 -15.1504 -18.7389 
11.2546 -15.1504 -19.8894 19.5993 -15.1504 -21.2552 27.9441 -15.1504 -22.4145 
36.2888 -15.1504 -22.6465 44.6335 -15.1504 -22.5217 52.9782 -15.1504 -20.9172 
61.3229 -15.1504 -18.4558 -55.5031 -6.80565 -19.1135 -47.1584 -6.80565 -20.8196 
-38.8137 -6.80565 -21.5207 -30.4689 -6.80565 -20.6442 -22.1242 -6.80565 -19.1625 
-13.7795 -6.80565 -20.0015 -5.4348 -6.80565 -20.4963 2.90991 -6.80565 -16.5842 
11.2546 -6.80565 -20.4161 19.5993 -6.80565 -19.986 27.9441 -6.80565 -20.7178 
36.2888 -6.80565 -21.8127 44.6335 -6.80565 -22.4222 52.9782 -6.80565 -22.4513 
61.3229 -6.80565 -20.1728 -63.8478 1.53906 -16.3055 -55.5031 1.53906 -19.7654 
-47.1584 1.53906 -21.1872 -38.8137 1.53906 -21.7496 -30.4689 1.53906 -20.578 
-22.1242 1.53906 -18.434 -13.7795 1.53906 -20.6287 -5.4348 1.53906 -21.7053 
2.90991 1.53906 -18.9748 11.2546 1.53906 -23.486 19.5993 1.53906 -18.0304 
27.9441 1.53906 -19.3185 36.2888 1.53906 -20.9901 44.6335 1.53906 -21.8428 
52.9782 1.53906 -22.148 61.3229 1.53906 -20.257 -55.5031 9.88378 -19.2546 
-47.1584 9.88378 -21.2592 -38.8137 9.88378 -21.7391 -30.4689 9.88378 -20.5906 
-22.1242 9.88378 -19.3258 -13.7795 9.88378 -19.3784 -5.4348 9.88378 -20.6148 
2.90991 9.88378 -19.2094 11.2546 9.88378 -20.5012 19.5993 9.88378 -18.4047 
27.9441 9.88378 -20.1574 36.2888 9.88378 -20.8056 44.6335 9.88378 -21.5015 
52.9782 9.88378 -21.6946 61.3229 9.88378 -19.8785 69.6676 9.88378 -15.2692 
-55.5031 18.2285 -18.0396 -47.1584 18.2285 -20.484 -38.8137 18.2285 -20.895 
-30.4689 18.2285 -20.5988 -22.1242 18.2285 -20.1694 -13.7795 18.2285 -20.2657 
-5.4348 18.2285 -20.1927 2.90991 18.2285 -19.9293 11.2546 18.2285 -20.4512 
19.5993 18.2285 -20.3284 27.9441 18.2285 -20.5788 36.2888 18.2285 -21.1934 
44.6335 18.2285 -20.8813 52.9782 18.2285 -20.55 61.3229 18.2285 -18.9741 
-47.1584 26.5732 -17.6224 -38.8137 26.5732 -19.5284 -30.4689 26.5732 -20.108 
-22.1242 26.5732 -20.1675 -13.7795 26.5732 -20.7628 -5.4348 26.5732 -20.3229 
2.90991 26.5732 -20.2307 11.2546 26.5732 -20.3491 19.5993 26.5732 -20.4127 
27.9441 26.5732 -20.9644 36.2888 26.5732 -19.9911 44.6335 26.5732 -20.3069 
52.9782 26.5732 -18.5523 -38.8137 34.9179 -16.0207 -30.4689 34.9179 -17.0503 
-22.1242 34.9179 -17.6599 -13.7795 34.9179 -17.7612 -5.4348 34.9179 -17.4551 
2.90991 34.9179 -17.1381 11.2546 34.9179 -17.0653 19.5993 34.9179 -17.3331 
27.9441 34.9179 -17.4764 36.2888 34.9179 -17.9082 44.6335 34.9179 -16.3422 
11.2546 -33.0348 -15.2157 19.5993 -36.3112 -15.2157 27.9441 -37.4215 -15.2157 
36.2888 -37.2299 -15.2157 36.2888 -40.1845 -8.18747 44.6335 -35.7464 -15.2157 
-47.1584 -26.4541 -15.2157 -47.1584 -31.8398 -10.9606 -38.8137 -27.3828 -15.2157 
-38.8137 -31.8398 -11.4257 -30.4689 -26.8073 -15.2157 -30.4689 -31.8398 -10.7959 
-22.1242 -24.2352 -15.2157 -22.1242 -31.8398 -8.96661 8.40016 -31.8398 -15.2157 
2.90991 -28.4429 -15.2157 2.90991 -31.8398 -11.4974 51.0555 -31.8398 -15.2157 
52.9782 -30.4139 -15.2157 52.9782 -31.8398 -13.2353 -53.3104 -23.4951 -15.2157 
-55.5031 -21.9276 -15.2157 -55.5031 -23.4951 -14.3176 -20.5923 -23.4951 -15.2157 
-13.7795 -18.7605 -15.2157 -13.7795 -23.4951 -12.9521 -3.65194 -23.4951 -15.2157 
-5.4348 -21.8442 -15.2157 -5.4348 -23.4951 -14.3385 59.869 -23.4951 -15.2157 
61.3229 -21.286 -15.2157 61.3229 -23.4951 -13.5702 -60.6787 -15.1504 -15.2157 
-63.8478 -15.1504 -12.735 65.8055 -15.1504 -15.2157 69.6676 -15.1504 -10.225 
-63.7797 -6.80565 -15.2157 -63.8478 -6.51596 -15.2157 -63.8478 -6.80565 -15.1755 
69.1069 -6.80565 -15.2157 69.6676 -6.80565 -14.5927 -65.313 1.53906 -15.2157 
-72.1925 1.53906 -7.31687 -63.8478 9.84979 -15.2157 69.5033 1.53906 -15.2157 
69.6676 7.74798 -15.2157 69.6676 1.53906 -15.0442 -63.8403 9.88378 -15.2157 
-63.8478 9.88378 -15.211 69.7306 9.88378 -15.2157 69.6676 11.2107 -15.2157 
-60.3535 18.2285 -15.2157 -63.8478 18.2285 -11.9902 -55.5031 24.9715 -15.2157 
69.0831 18.2285 -15.2157 61.3229 25.1303 -15.2157 69.6676 18.2285 -14.7325 
-53.5346 26.5732 -15.2157 -55.5031 26.5732 -14.173 -47.1584 31.0963 -15.2157 
60.1885 26.5732 -15.2157 52.9782 32.0953 -15.2157 61.3229 26.5732 -14.3064 
-41.194 34.9179 -15.2157 -47.1584 34.9179 -11.9196 -38.8137 35.9222 -15.2157 
-30.4689 36.9161 -15.2157 -22.1242 37.9207 -15.2157 -13.7795 37.8327 -15.2157 
-5.4348 37.4998 -15.2157 2.90991 37.0144 -15.2157 11.2546 36.8448 -15.2157 
19.5993 37.2933 -15.2157 27.9441 37.4749 -15.2157 36.2888 37.7806 -15.2157 
47.6775 34.9179 -15.2157 44.6335 36.5946 -15.2157 52.9782 34.9179 -11.7325 
36.2888 -40.6291 -6.871 -47.1584 -34.9452 -6.871 -38.8137 -35.5184 -6.871 
-30.4689 -34.838 -6.871 -22.1242 -33.7557 -6.871 2.90991 -34.1371 -6.871 
11.2546 -36.2951 -6.871 19.5993 -39.0613 -6.871 29.2122 -40.1845 -6.871 
27.9441 -40.1064 -6.871 38.6472 -40.1845 -6.871 36.2888 -40.1845 0.451693 
44.6335 -39.0346 -6.871 52.9782 -35.0135 -6.871 -53.7339 -31.8398 -6.871 
-55.5031 -30.6933 -6.871 -55.5031 -31.8398 -4.45328 -14.6048 -31.8398 -6.871 
-13.7795 -31.5838 -6.871 -13.7795 -31.8398 -6.55717 -5.00582 -31.8398 -6.871 
-5.4348 -31.6761 -6.871 -5.4348 -31.8398 -6.60836 57.4906 -31.8398 -6.871 
61.3229 -28.5378 -6.871 -63.7176 -23.4951 -6.871 -63.8478 -23.3235 -6.871 
-63.8478 -23.4951 -6.62193 65.8118 -23.4951 -6.871 69.6676 -17.7791 -6.871 
-69.4778 -15.1504 -6.871 71.1459 -15.1504 -6.871 69.6676 -15.1504 -0.490587 
-71.3114 -6.80565 -6.871 -72.1925 -0.397906 -6.871 -72.1925 -6.80565 -1.25018 
74.8337 -6.80565 -6.871 -72.4163 1.53906 -6.871 -72.1925 3.18977 -6.871 
75.5327 1.53906 -6.871 -71.1084 9.88378 -6.871 75.7761 9.88378 -6.871 
-67.9548 18.2285 -6.871 -63.8478 25.4068 -6.871 73.2077 18.2285 -6.871 
69.6676 24.6612 -6.871 -63.0095 26.5732 -6.871 -63.8478 26.5732 -1.75681 
-55.5031 33.2153 -6.871 68.2018 26.5732 -6.871 61.3229 33.4861 -6.871 
-53.001 34.9179 -6.871 -47.1584 38.1458 -6.871 -38.8137 41.1581 -6.871 
-30.4689 42.3557 -6.871 -22.1242 42.2249 -6.871 -13.7795 41.6576 -6.871 
-5.4348 40.987 -6.871 2.90991 40.5446 -6.871 11.2546 40.3743 -6.871 
19.5993 40.3403 -6.871 27.9441 41.2637 -6.871 36.2888 41.5769 -6.871 
44.6335 40.4722 -6.871 59.0537 34.9179 -6.871 52.9782 37.7555 -6.871 
-55.5031 -34.3276 1.47372 -47.1584 -37.2104 1.47372 -38.8137 -39.4075 1.47372 
-30.4689 -38.4298 1.47372 -22.1242 -37.2685 1.47372 -13.7795 -36.4855 1.47372 
-5.4348 -35.6944 1.47372 2.90991 -35.5635 1.47372 11.2546 -36.7877 1.47372 
19.5993 -39.1319 1.47372 27.9441 -39.7298 1.47372 36.2888 -40.1226 1.47372 
44.6335 -38.2455 1.47372 52.9782 -33.7758 1.47372 -58.7529 -31.8398 1.47372 
-63.8478 -27.3084 1.47372 55.5869 -31.8398 1.47372 52.9782 -31.8398 5.305 
61.3229 -26.498 1.47372 -66.7951 -23.4951 1.47372 64.6246 -23.4951 1.47372 
61.3229 -23.4951 5.09288 -71.1385 -15.1504 1.47372 -72.1925 -9.09284 1.47372 
69.1604 -15.1504 1.47372 69.6676 -14.0914 1.47372 -72.5521 -6.80565 1.47372 
-72.1925 -6.80565 2.73569 73.4386 -6.80565 1.47372 69.6676 -6.80565 5.53681 
-73.2632 1.53906 1.47372 -72.1925 7.51889 1.47372 -72.1925 1.53906 4.62678 
74.3608 1.53906 1.47372 69.6676 1.53906 6.38895 -71.7691 9.88378 1.47372 
74.3396 9.88378 1.47372 69.6676 9.88378 6.03943 -68.8188 18.2285 1.47372 
70.6297 18.2285 1.47372 69.6676 21.0023 1.47372 69.6676 18.2285 3.13125 
-64.2275 26.5732 1.47372 -63.8478 27.0238 1.47372 -63.8478 26.5732 2.34922 
-55.5031 34.3342 1.47372 66.6811 26.5732 1.47372 61.3229 30.2388 1.47372 
61.3229 26.5732 5.09528 -54.5488 34.9179 1.47372 -47.1584 38.6633 1.47372 
-38.8137 41.1386 1.47372 -30.4689 42.0144 1.47372 -22.1242 41.5016 1.47372 
-13.7795 40.5735 1.47372 -5.4348 39.896 1.47372 -5.4348 34.9179 8.71784 
2.90991 39.0144 1.47372 2.90991 34.9179 7.89398 11.2546 38.7492 1.47372 
11.2546 34.9179 6.90859 19.5993 39.5219 1.47372 19.5993 34.9179 7.36597 
27.9441 39.9908 1.47372 27.9441 34.9179 8.26095 36.2888 39.9697 1.47372 
36.2888 34.9179 8.47397 44.6335 39.3516 1.47372 44.6335 34.9179 6.94762 
54.4529 34.9179 1.47372 52.9782 35.9199 1.47372 52.9782 34.9179 3.5346 
-55.5031 -33.1869 9.81843 -47.1584 -37.0034 9.81843 -38.8137 -39.3649 9.81843 
-30.4689 -39.0424 9.81843 -22.1242 -38.7094 9.81843 -13.7795 -37.968 9.81843 
-5.4348 -37.8346 9.81843 2.90991 -37.2987 9.81843 11.2546 -37.5044 9.81843 
19.5993 -38.9165 9.81843 27.9441 -38.3689 9.81843 36.2888 -37.4869 9.81843 
44.6335 -34.4769 9.81843 -57.2483 -31.8398 9.81843 -63.8478 -24.6244 9.81843 
-55.5031 -31.8398 12.0125 36.2888 -31.8398 17.1 48.8806 -31.8398 9.81843 
44.6335 -31.8398 12.5363 52.9782 -28.2178 9.81843 -64.5981 -23.4951 9.81843 
-63.8478 -23.4951 10.9502 44.6335 -23.4951 16.7018 57.0475 -23.4951 9.81843 
52.9782 -23.4951 12.6965 61.3229 -16.2673 9.81843 -69.4604 -15.1504 9.81843 
-63.8478 -15.1504 16.7339 52.9782 -15.1504 14.9792 62.0857 -15.1504 9.81843 
61.3229 -15.1504 10.2936 -69.9799 -6.80565 9.81843 -63.8478 -6.80565 17.2952 
52.9782 -6.80565 16.8676 65.5004 -6.80565 9.81843 61.3229 -6.80565 13.0208 
-70.201 1.53906 9.81843 -63.8478 1.53906 16.9025 52.9782 1.53906 16.5576 
66.1242 1.53906 9.81843 61.3229 1.53906 13.127 -68.5225 9.88378 9.81843 
-63.8478 9.88378 15.0073 44.6335 9.88378 17.3429 52.9782 9.88378 15.6687 
65.3905 9.88378 9.81843 61.3229 9.88378 12.5971 -65.108 18.2285 9.81843 
-63.8478 20.3197 9.81843 -63.8478 18.2285 11.1671 -55.5031 18.2285 18.1065 
-13.7795 18.2285 17.8443 11.2546 18.2285 16.3513 19.5993 18.2285 16.1042 
[...]
POINT_DATA 554
SCALARS ImageScalars float
LOOKUP_TABLE default
0 0 0 0 0 0 0 0 0 
0 0 0 0 0 0 0 0 0 
0 0 0 0 0 0 0 0 0 
0 0 0 0 0 0 0 0 0 
0 0 0 0 0 0 0 0 0 
0 0 0 0 0 0 0 0 0 
0 0 0 0 0 0 0 0 0 
0 0 0 0 0 0 0 0 0 
0 0 0 0 0 0 0 0 0 
0 0 0 0 0 0 0 0 0 
0 0 0 0 0 0 0 0 0 
0 0 0 0 0 0 0 0 0 
0 0 0 0 0 0 0 0 0 
0 0 0 0 0 0 0 0 0 
0 0 0 0 0 0 0 0 0 
0 0 0 0 0 0 0 0 0 
0 0 0 0 0 0 0 0 0 
0 0 0 0 0 0 0 0 0 
0 0 0 0 0 0 0 0 0 
0 0 0 0 0 0 0 0 0 
0 0 0 0 0 0 0 0 0 
0 0 0 0 0 0 0 0 0 
0 0 0 0 0 0 0 0 0 
0 0 0 0 0 0 0 0 0 
0 0 0 0 0 0 0 0 0 
0 0 0 0 0 0 0 0 0 
0 0 0 0 0 0 0 0 0 
0 0 0 0 0 0 0 0 0 
0 0 0 0 0 0 0 0 0 
0 0 0 0 0 0 0 0 0 
0 0 0 0 0 0 0 0 0 
0 0 0 0 0 0 0 0 0 
0 0 0 0 0 0 0 0 0 
0 0 0 0 0 0 0 0 0 
0 0 0 0 0 0 0 0 0 
0 0 0 0 0 0 0 0 0 
0 0 0 0 0 0 0 0 0 
0 0 0 0 0 0 0 0 0 
0 0 0 0 0 0 0 0 0 
0 0 0 0 0 0 0 0 0 
0 0 0 0 0 0 0 0 0 
0 0 0 0 0 0 0 0 0 
0 0 0 0 0 0 0 0 0 
0 0 0 0 0 0 0 0 0 
0 0 0 0 0 0 0 0 0 
0 0 0 0 0 0 0 0 0 
0 0 0 0 0 0 0 0 0 
0 0 0 0 0 0 0 0 0 
0 0 0 0 0 0 0 0 0 
0 0 0 0 0 0 0 0 0 
0 0 0 0 0 0 0 0 0 
0 0 0 0 0 0 0 0 0 
0 0 0 0 0 0 0 0 0 
0 0 0 0 0 0 0 0 0 
0 0 0 0 0 0 0 0 0 
0 0 0 0 0 0 0 0 0 
0 0 0 0 0 0 0 0 0 
0 0 0 0 0 0 0 0 0 
0 0 0 0 0 0 0 0 0 
0 0 0 0 0 0 0 0 0 
0 0 0 0 0 0 0 0 0 
0 0 0 0 0 
NORMALS Normals float
0.326053 0.632719 0.702394 0.222316 0.532833 0.816496 0.0340773 0.478169 0.877606 
-0.099737 0.513227 0.852438 -0.257163 0.560915 0.786919 0.165533 0.447222 0.878972 
0.00940627 0.422338 0.90639 -0.116199 0.404119 0.907296 -0.231297 0.457204 0.858758 
0.292865 0.290486 0.91096 0.212156 0.176323 0.961197 0.14345 0.0916869 0.985401 
0.0877987 0.108832 0.990175 -0.0678603 0.149973 0.986358 -0.200768 0.204943 0.957962 
-0.363831 0.289785 0.885241 0.34546 0.231454 0.909443 0.13733 0.222505 0.965211 
-0.0374213 0.206961 0.977633 -0.121193 0.193068 0.973672 -0.146056 0.192992 0.970269 
0.00891954 0.374082 0.927353 0.112414 0.314157 0.942692 0.0742338 -0.0703311 0.994758 
0.155091 0.0289181 0.987477 0.143395 -0.0915912 0.985418 0.08402 -0.102151 0.991214 
0.00593298 -0.0709032 0.997466 -0.0994503 0.063638 0.993005 -0.20366 0.180916 0.962181 
-0.441736 0.304152 0.844015 0.287446 0.106451 0.951863 0.13482 0.0619341 0.988933 
-0.0103049 0.0905135 0.995842 -0.138455 0.0648008 0.988246 -0.0459805 0.0222362 0.998695 
0.0824409 0.222113 0.971529 -0.199952 0.177972 0.963507 0.0215428 -0.0281141 0.999373 
0.185903 0.153947 0.970433 0.0203381 -0.194979 0.980597 0.107341 -0.181308 0.977551 
0.100269 -0.0983595 0.990087 0.0382441 -0.0407505 0.998437 -0.148696 0.0723099 0.986236 
-0.355792 0.0775561 0.931341 0.52328 0.00222497 0.852158 0.248864 0.00805536 0.968505 
0.109347 0.0265489 0.993649 -0.0382927 0.0136474 0.999173 -0.179633 -0.00319095 0.983729 
-0.0420821 0.00914145 0.999072 0.203848 -0.0474024 0.977854 -0.093859 0.00051041 0.995585 
0.0559949 0.169538 0.983932 -0.156173 0.00882738 0.98769 -0.126451 -0.0939167 0.987517 
0.179064 -0.0329878 0.983284 0.149157 -0.059662 0.987012 0.0681403 -0.0547197 0.996174 
-0.112117 -0.0442223 0.99271 -0.319191 -0.0191139 0.947498 0.318937 -0.101116 0.942367 
0.133441 -0.0369395 0.990368 -0.0374064 -0.0503174 0.998033 -0.140668 0.00123345 0.990056 
-0.0750692 0.101641 0.991985 0.0736047 0.00305596 0.997283 -0.0115513 -0.0786802 0.996833 
-0.00610665 0.056278 0.998396 -0.0479179 -0.120089 0.991606 -0.00672559 0.142655 0.98975 
0.139031 0.0759937 0.987368 0.0828173 0.0124117 0.996487 0.0522764 -0.0571452 0.996996 
-0.114812 -0.091621 0.989153 -0.294868 -0.062845 0.953469 -0.671404 -0.00698275 0.741058 
0.381883 -0.226485 0.89603 0.174973 -0.211623 0.961561 0.00515748 -0.137676 0.990464 
-0.0429673 -0.0273059 0.998703 -0.0199437 0.0490606 0.998597 0.0013994 0.0784624 0.996916 
-0.0203151 -0.0147908 0.999684 0.0157764 0.0599017 0.99808 0.0238103 -0.00897258 0.999676 
0.00767405 0.113494 0.993509 0.051375 0.0464105 0.9976 0.0184342 -0.0469994 0.998725 
-0.0360194 -0.0654777 0.997204 -0.0928694 -0.205239 0.974296 -0.336195 -0.269037 0.902547 
0.267697 -0.366621 0.891026 0.130243 -0.259883 0.956816 0.0413124 -0.174457 0.983798 
0.0377375 -0.13811 0.989698 0.00896359 -0.119972 0.992737 -0.0307344 -0.141228 0.9895 
0.00190516 -0.142481 0.989796 0.0105241 -0.159806 0.987092 0.0351363 -0.159291 0.986606 
-0.0260961 -0.180074 0.983307 -0.0383336 -0.186904 0.98163 -0.106499 -0.286757 0.952065 
-0.255893 -0.325243 0.910349 0.190314 -0.581596 0.790902 0.0969039 -0.561695 0.82165 
0.0350393 -0.518514 0.854351 -0.0113412 -0.556355 0.830867 -0.0351615 -0.57341 0.818514 
-0.0220517 -0.607962 0.79366 0.0115303 -0.634722 0.772654 0.0232249 -0.606594 0.794672 
0.0325594 -0.59258 0.804853 -0.0735119 -0.545651 0.834782 -0.253126 -0.534165 0.806595 
0.332571 0.697868 0.634332 0.229277 0.796563 0.559392 0.0432471 0.841586 0.538389 
-0.0770982 0.795584 0.600918 -0.0619126 0.978609 0.196194 -0.292291 0.741954 0.603382 
0.173803 0.535112 0.826709 0.206801 0.742915 0.63664 0.0140142 0.555151 0.831632 
-0.00323906 0.73059 0.682809 -0.118357 0.523394 0.843831 -0.111322 0.749882 0.652139 
-0.230777 0.478931 0.846976 -0.177626 0.731329 0.658488 0.337122 0.668484 0.662932 
0.346348 0.549865 0.76006 0.317845 0.795747 0.515521 -0.456911 0.674876 0.579461 
-0.496302 0.635038 0.591956 -0.517809 0.729874 0.44627 0.324309 0.501683 0.801959 
0.377539 0.465999 0.800193 0.392807 0.525983 0.754351 -0.202686 0.466373 0.861055 
-0.033865 0.41599 0.908738 -0.0660255 0.499655 0.863704 0.297894 0.444 0.845058 
0.260875 0.446795 0.855756 0.283204 0.489451 0.824763 -0.588361 0.454457 0.668806 
-0.581069 0.451989 0.676805 -0.654662 0.518133 0.550414 0.506698 0.266193 0.819999 
0.634446 0.313702 0.706449 -0.609912 0.356136 0.707937 -0.848788 0.420736 0.32022 
0.557919 0.157492 0.814814 0.559222 0.152771 0.81482 0.56107 0.158355 0.81248 
-0.685032 0.126081 0.71752 -0.72775 0.132145 0.672992 0.577655 0.000247096 0.816281 
0.943821 -0.0101017 0.330304 0.575515 -0.182913 0.797073 -0.679055 0.0255745 0.733642 
-0.67549 0.00237405 0.737366 -0.691403 0.0265788 0.72198 0.575454 -0.183542 0.796972 
0.575788 -0.18369 0.796697 -0.672828 -0.00714935 0.739764 -0.66884 -0.0485085 0.741822 
0.538844 -0.271922 0.797312 0.708306 -0.336891 0.620328 0.434538 -0.43503 0.788623 
-0.615694 -0.268609 0.74079 -0.492729 -0.391033 0.777375 -0.658206 -0.271681 0.702107 
0.405681 -0.459748 0.789971 0.46611 -0.507451 0.724731 0.330052 -0.538818 0.775075 
-0.489061 -0.391609 0.779398 -0.284199 -0.608219 0.741148 -0.556984 -0.433881 0.708178 
0.23473 -0.616617 0.751456 0.390869 -0.747642 0.536892 0.197302 -0.624294 0.755863 
0.0981599 -0.646963 0.756177 0.0421478 -0.673451 0.73803 -0.0218082 -0.710538 0.70332 
-0.0431296 -0.713264 0.699567 -0.0333915 -0.723348 0.689676 0.0148261 -0.7389 0.673652 
0.0338172 -0.736063 0.676067 0.0260606 -0.718547 0.69499 -0.0338237 -0.735286 0.676913 
-0.278993 -0.614737 0.737741 -0.264413 -0.600782 0.754418 -0.338235 -0.833277 0.437317 
-0.0616079 0.988914 0.135108 0.21499 0.860952 0.461021 -0.000114822 0.8482 0.529675 
-0.0906018 0.847973 0.522238 -0.163461 0.79453 0.58481 0.247721 0.920544 0.302049 
0.26572 0.94681 0.181504 0.232157 0.964066 0.129148 0.0621243 0.991819 0.111515 
0.0844291 0.990577 0.107834 -0.127228 0.984444 0.121173 -0.0805789 0.987709 -0.133936 
-0.296416 0.950209 0.0961222 -0.524174 0.842979 0.120949 0.449373 0.758934 0.471257 
0.503344 0.722715 0.473633 0.513925 0.77689 0.363763 -0.10826 0.751219 0.651114 
-0.100863 0.744495 0.659965 -0.102007 0.757119 0.645264 0.159429 0.83694 0.52356 
0.154657 0.828362 0.538421 0.146739 0.83619 0.528445 -0.614223 0.780981 0.113131 
-0.697371 0.706816 0.11868 0.708667 0.560259 0.428836 0.711872 0.55642 0.428527 
0.716134 0.560959 0.415304 -0.768618 0.619595 0.15915 -0.856714 0.503173 0.113396 
0.831472 0.372934 0.411795 -0.887848 0.448738 0.101782 -0.882144 0.40685 -0.237265 
0.922718 0.138377 0.359782 0.948643 0.0220963 0.315575 0.990549 0.124623 0.0572827 
-0.950039 0.258182 0.17541 0.951697 -0.0104279 0.306863 0.950454 -0.0517741 0.306524 
-0.981148 0.0552066 0.185204 0.920689 -0.223634 0.319874 -0.971111 -0.150698 0.185024 
0.844731 -0.414474 0.338586 0.764834 -0.563969 0.311396 -0.928291 -0.359969 0.0932612 
-0.787009 -0.597806 0.15246 0.743879 -0.593357 0.307524 0.786732 -0.616782 0.0251454 
0.577161 -0.766517 0.281668 -0.734281 -0.654066 0.181739 -0.603033 -0.797155 0.0299181 
0.527158 -0.805786 0.269839 0.41041 -0.867815 0.280108 0.228668 -0.945584 0.231478 
0.0640045 -0.973596 0.219123 -0.0420898 -0.986979 0.155247 -0.0747408 -0.991224 0.10904 
-0.0669983 -0.99298 0.0974749 -0.037113 -0.995835 0.0832833 -0.0124023 -0.997286 0.0725731 
0.0529657 -0.993578 0.0999903 0.0752955 -0.98949 0.12345 -0.0480058 -0.992677 0.110854 
-0.219122 -0.971252 0.0930346 -0.531184 -0.846294 0.0403871 -0.376598 -0.914483 0.147968 
0.491925 0.863903 0.108077 0.255479 0.959503 0.118673 0.0742634 0.975403 0.207545 
-0.120589 0.969442 0.213638 -0.112894 0.958577 0.261507 -0.0922203 0.94041 0.327299 
-0.052686 0.942767 0.329263 0.0657169 0.979752 0.189122 0.189797 0.97933 0.0699309 
0.186423 0.982428 -0.00900679 0.0527552 0.993517 -0.100701 -0.0829197 0.981788 -0.170928 
-0.329899 0.919945 -0.211821 -0.544262 0.796424 -0.263605 0.57689 0.810794 0.0990481 
0.744412 0.665383 0.055821 -0.594011 0.759038 -0.266482 -0.547162 0.731207 -0.407369 
-0.673299 0.658616 -0.335996 0.841552 0.539421 0.0285671 -0.732018 0.597872 -0.326646 
-0.659413 0.560864 -0.500606 0.947805 0.318522 -0.0144632 0.983088 0.172494 -0.0615091 
-0.854386 0.382512 -0.351724 -0.856533 0.365944 -0.363918 0.990146 0.119856 -0.0724303 
0.986838 0.107684 -0.120643 -0.8517 0.273406 -0.447052 -0.757035 0.177324 -0.628852 
0.9931 -0.0461287 -0.107816 0.974352 -0.183414 -0.130373 0.969532 -0.0579004 -0.238024 
-0.890479 0.049654 -0.452307 -0.736288 0.0225677 -0.676292 0.962024 -0.237996 -0.133668 
-0.856691 -0.194271 -0.477849 -0.709689 -0.0978756 -0.697684 0.896107 -0.424537 -0.129466 
-0.863916 -0.311123 -0.396046 -0.830913 -0.395579 -0.39128 -0.833085 -0.28924 -0.471497 
0.781611 -0.608698 -0.136277 0.770815 -0.622257 -0.136529 0.772015 -0.609194 -0.181315 
0.575081 -0.806129 -0.139419 -0.646958 -0.636408 -0.420035 -0.528202 -0.727834 -0.437333 
-0.494397 -0.602782 -0.626279 0.550683 -0.822629 -0.141528 0.366567 -0.917136 -0.156494 
0.177922 -0.970617 -0.162007 0.0255215 -0.972142 -0.232998 -0.0832726 -0.955741 -0.28218 
-0.0944106 -0.947986 -0.303989 -0.0894842 -0.934437 -0.344702 -0.0941676 -0.720997 -0.68651 
-0.0657819 -0.929353 -0.363284 -0.0724379 -0.762796 -0.642569 0.0274457 -0.916382 -0.399364 
-0.0165953 -0.759149 -0.650705 0.0721013 -0.923053 -0.377856 0.055231 -0.726268 -0.685189 
0.0263548 -0.923586 -0.382486 0.049224 -0.692661 -0.719582 -0.0340244 -0.915491 -0.400897 
-0.0564987 -0.714168 -0.69769 -0.191411 -0.899021 -0.393857 -0.137722 -0.69682 -0.7039 
-0.493128 -0.805537 -0.328534 -0.471485 -0.820327 -0.323675 -0.435121 -0.792527 -0.427282 
0.526082 0.801246 -0.285031 0.311683 0.928707 -0.200891 0.118915 0.976368 -0.180456 
-0.0375023 0.992345 -0.117664 -0.065741 0.99605 -0.0596861 -0.0520045 0.997667 -0.0442241 
-0.0401633 0.998574 0.0351618 -0.0202454 0.999189 0.0348139 0.0919441 0.994855 -0.0425457 
0.0517589 0.978569 -0.199308 -0.0780282 0.949497 -0.303918 -0.192784 0.872365 -0.449236 
-0.402895 0.71866 -0.566748 0.57271 0.764693 -0.295377 0.776305 0.514561 -0.364112 
0.544779 0.742353 -0.390035 -0.303944 0.529692 -0.791861 -0.46939 0.652342 -0.595083 
-0.423402 0.590763 -0.686826 -0.525171 0.542844 -0.655374 0.790902 0.489996 -0.366576 
0.774056 0.483832 -0.408344 -0.368851 0.273995 -0.888187 -0.568783 0.416803 -0.709056 
-0.491039 0.358865 -0.793786 -0.525791 0.353102 -0.773862 0.898587 0.284215 -0.33431 
0.579777 0.232393 -0.78093 -0.418353 0.212021 -0.883192 -0.531881 0.330074 -0.779842 
-0.511876 0.329796 -0.793232 0.898488 0.0393554 -0.43723 0.577965 0.00424618 -0.81605 
-0.315396 0.0814298 -0.94546 -0.617639 0.133923 -0.774975 -0.514388 0.140716 -0.845934 
0.870781 -0.079444 -0.48521 0.566167 -0.109006 -0.817051 -0.305699 -0.0638988 -0.949981 
-0.598354 -0.0015774 -0.80123 -0.46806 -0.0238427 -0.883375 0.823141 -0.246141 -0.511716 
0.631262 -0.261362 -0.730205 -0.149622 -0.15794 -0.976047 -0.276145 -0.154801 -0.948568 
-0.562572 -0.100273 -0.820645 -0.459751 -0.123158 -0.879467 0.720425 -0.416616 -0.554453 
0.693081 -0.450126 -0.563051 0.683429 -0.416294 -0.599687 0.418315 -0.304039 -0.855905 
-0.0603229 -0.236468 -0.969765 -0.171614 -0.388509 -0.905323 0.0278019 -0.350962 -0.935977 
0.0544381 -0.288496 -0.955932 -0.0684803 -0.2607 -0.962988 -0.178677 -0.243876 -0.953205 
-0.268432 -0.28445 -0.920344 -0.429999 -0.343055 -0.835113 -0.39424 -0.375316 -0.838876 
-0.388209 -0.354154 -0.850805 0.594508 -0.561973 -0.575105 0.505898 -0.6451 -0.572637 
0.489691 -0.574971 -0.655447 0.264262 -0.468112 -0.84323 -0.0846892 -0.362286 -0.928211 
-0.146582 -0.397503 -0.905817 -0.128979 -0.390809 -0.911391 -0.089225 -0.663491 -0.742845 
-0.0527029 -0.478797 -0.876342 -0.0726995 -0.676531 -0.732816 -0.075745 -0.534432 -0.841811 
-0.0457629 -0.604388 -0.795374 -0.0720699 -0.452028 -0.889088 0.0417315 -0.580577 -0.813135 
0.0223246 -0.427426 -0.903775 0.0531775 -0.599839 -0.798351 0.0432335 -0.42764 -0.902914 
-0.0590794 -0.637914 -0.767838 -0.0435093 -0.41961 -0.906661 -0.123755 -0.555776 -0.822069 
-0.176632 -0.452528 -0.874082 -0.37412 -0.36388 -0.85301 -0.337604 -0.437258 -0.833564 
-0.347602 -0.347057 -0.871048 0.34075 -0.774125 -0.533498 0.335982 -0.777262 -0.531959 
0.336017 -0.772216 -0.539236 0.135958 -0.785271 -0.604041 0.113279 -0.705748 -0.699348 
-0.0473544 -0.786847 -0.615329 -0.0492502 -0.704277 -0.708215 -0.103509 -0.744194 -0.659895 
-0.119302 -0.68852 -0.715338 -0.111981 -0.679386 -0.725187 -0.122226 -0.683444 -0.719698 
-0.123523 -0.665954 -0.735695 0.3365 0.694459 -0.635999 0.157953 0.742079 -0.651437 
0.0199157 0.805351 -0.592464 -0.0397299 0.799318 -0.599593 0.00301036 0.81025 -0.586076 
0.0349872 0.825104 -0.563897 -0.0122664 0.866259 -0.499444 -0.0602512 0.828463 -0.556793 
-0.130111 0.697314 -0.704858 -0.196313 0.57861 -0.791626 0.390713 0.647107 -0.654672 
0.528423 0.418221 -0.738824 0.339052 0.643738 -0.686036 0.161141 0.585968 -0.79415 
0.0347351 0.581361 -0.812904 -0.0450123 0.539345 -0.840881 -0.0063777 0.582596 -0.812737 
0.0327569 0.540926 -0.840432 -0.00837456 0.578368 -0.815733 -0.0855202 0.550631 -0.830356 
-0.1428 0.513441 -0.84616 -0.25835 0.507976 -0.821715 -0.201836 0.50947 -0.836482 
-0.294136 0.380542 -0.876739 0.555687 0.36861 -0.74521 0.498172 0.346251 -0.794943 
0.286602 0.230686 -0.929862 0.127249 0.199727 -0.971554 -0.056042 0.132668 -0.989575 
-0.0796368 0.122629 -0.989252 -0.0108035 0.0801801 -0.996722 0.0544674 0.106015 -0.992872 
-0.0103117 0.109733 -0.993908 -0.122566 0.0882049 -0.988533 -0.136435 0.0520277 -0.989282 
-0.185157 0.10141 -0.977462 -0.313143 0.209978 -0.926202 -0.265933 0.153821 -0.95164 
-0.308599 0.136834 -0.941299 0.500086 0.191693 -0.844493 0.412318 0.123959 -0.902567 
0.170764 0.0464227 -0.984218 0.0486475 -0.0517405 -0.997475 -0.0490497 -0.0697496 -0.996358 
-0.0925161 -0.0895249 -0.991678 -0.0223749 -0.0887194 -0.995805 0.049707 -0.00963295 -0.998717 
-0.0250324 -0.0845222 -0.996107 -0.146093 -0.0845562 -0.985651 -0.126843 -0.116363 -0.985074 
-0.0984951 -0.088965 -0.991153 -0.154835 0.00791884 -0.987909 -0.307472 0.118934 -0.944095 
-0.296093 0.107134 -0.949132 0.520417 -0.00401695 -0.853903 0.373886 -0.0303477 -0.926978 
0.134845 -0.0631315 -0.988854 0.00218808 -0.0943907 -0.995533 -0.0938496 -0.145908 -0.984837 
-0.0912724 -0.17393 -0.980519 0.0679702 -0.0964647 -0.993013 0.0560102 -0.0131915 -0.998343 
-0.0843684 -0.243591 -0.966201 -0.154019 -0.0562058 -0.986468 -0.149496 -0.0723958 -0.986108 
-0.0569566 -0.0969299 -0.99366 -0.0899646 -0.0530636 -0.99453 -0.205708 0.0171427 -0.978463 
-0.165184 -0.00839519 -0.986227 0.480693 -0.114173 -0.869425 0.335565 -0.126733 -0.933453 
0.118154 -0.125375 -0.985049 -0.0287205 -0.102651 -0.994303 -0.128252 -0.104054 -0.986268 
-0.0530794 -0.125218 -0.990708 0.140765 -0.167458 -0.975778 -0.114344 -0.118362 -0.986365 
-0.0600329 -0.155516 -0.986007 0.0355918 -0.136491 -0.990002 -0.170349 -0.0819448 -0.981971 
-0.0778208 -0.0768896 -0.993998 -0.0695073 -0.0871157 -0.99377 -0.173203 -0.0744675 -0.982067 
-0.155106 -0.0905305 -0.983741 -0.15753 -0.0748033 -0.984677 0.428189 -0.195723 -0.88224 
0.416029 -0.299052 -0.858771 0.345039 -0.17764 -0.921625 0.171944 -0.141949 -0.974826 
0.0184013 -0.124133 -0.992095 -0.122012 -0.12239 -0.984954 -0.147313 -0.0910481 -0.98489 
-0.0348536 -0.231585 -0.97219 0.0813612 -0.222678 -0.971491 0.0660181 -0.266014 -0.961706 
-0.115155 -0.0313263 -0.992853 -0.135145 -0.374831 -0.91719 -0.0875884 -0.339952 -0.936355 
-0.0391388 -0.296455 -0.954244 -0.0826284 -0.259142 -0.962298 -0.0254428 -0.197035 -0.980066 
-0.0621399 -0.155967 -0.985806 -0.092823 -0.133742 -0.98666 -0.0811158 -0.146172 -0.985928 
-0.082284 -0.128923 -0.988235 0.413278 -0.303599 -0.858504 0.220424 -0.392982 -0.892737 
0.185629 -0.300754 -0.935462 0.00143699 -0.262159 -0.965024 -0.0844139 -0.354624 -0.931191 
-0.079296 -0.229003 -0.970191 -0.0763244 -0.232555 -0.969584 -0.149418 -0.312395 -0.938128 
-0.158078 -0.215872 -0.963541 -0.00628773 -0.31008 -0.95069 0.0644006 -0.433967 -0.898624 
0.0850292 -0.428312 -0.899622 -0.155155 -0.37615 -0.913476 -0.123227 -0.405654 -0.905682 
-0.135943 -0.359838 -0.923058 0.105615 -0.406154 -0.907681 -0.0424624 -0.370973 -0.927672 
0.0769798 -0.412766 -0.907578 0.0750491 -0.396348 -0.915028 
