# vtk DataFile Version 4.2
vtk output
ASCII
DATASET POLYDATA
POINTS 522 float
-31.9368 -33.1227 -15.5731 -24.0453 -33.1227 -17.5994 -16.1538 -33.1227 -18.9298 
-8.26228 -33.1227 -20.0254 -0.370778 -33.1227 -20.5412 7.52072 -33.1227 -20.5026 
15.4122 -33.1227 -20.0185 23.3037 -33.1227 -19.7214 31.1952 -33.1227 -17.7842 
-39.8283 -25.2312 -17.1301 -31.9368 -25.2312 -19.9159 -24.0453 -25.2312 -21.1244 
-16.1538 -25.2312 -21.5786 -8.26228 -25.2312 -21.7856 -0.370778 -25.2312 -21.4942 
7.52072 -25.2312 -22.2072 15.4122 -25.2312 -21.6035 23.3037 -25.2312 -21.0682 
31.1952 -25.2312 -20.3595 39.0867 -25.2312 -20.6635 46.9782 -25.2312 -16.4059 
-47.7198 -17.3397 -16.5009 -39.8283 -17.3397 -19.7529 -31.9368 -17.3397 -20.6876 
-24.0453 -17.3397 -21.6947 -16.1538 -17.3397 -21.8047 -8.26228 -17.3397 -21.2386 
-0.370778 -17.3397 -20.8909 7.52072 -17.3397 -21.0549 15.4122 -17.3397 -20.4266 
23.3037 -17.3397 -20.4173 31.1952 -17.3397 -20.2382 39.0867 -17.3397 -19.8591 
46.9782 -17.3397 -19.4247 54.8697 -17.3397 -16.6612 -47.7198 -9.44816 -17.2728 
-39.8283 -9.44816 -19.635 -31.9368 -9.44816 -20.5721 -24.0453 -9.44816 -20.7277 
-16.1538 -9.44816 -20.9746 -8.26228 -9.44816 -21.5357 -0.370778 -9.44816 -20.4311 
7.52072 -9.44816 -20.2858 15.4122 -9.44816 -18.2535 23.3037 -9.44816 -18.6551 
31.1952 -9.44816 -19.6821 39.0867 -9.44816 -20.1098 46.9782 -9.44816 -20.2251 
54.8697 -9.44816 -18.0637 -47.7198 -1.55666 -17.5691 -39.8283 -1.55666 -19.6918 
-31.9368 -1.55666 -20.3299 -24.0453 -1.55666 -20.1584 -16.1538 -1.55666 -20.3513 
-8.26228 -1.55666 -23.3538 -0.370778 -1.55666 -20.5955 7.52072 -1.55666 -21.7011 
15.4122 -1.55666 -19.0021 23.3037 -1.55666 -18.409 31.1952 -1.55666 -19.3683 
39.0867 -1.55666 -19.8666 46.9782 -1.55666 -19.5852 54.8697 -1.55666 -17.789 
-47.7198 6.33484 -17.185 -39.8283 6.33484 -19.4492 -31.9368 6.33484 -20.27 
-24.0453 6.33484 -20.334 -16.1538 6.33484 -20.3931 -8.26228 6.33484 -22.8732 
-0.370778 6.33484 -19.6588 7.52072 6.33484 -20.6396 15.4122 6.33484 -19.6213 
23.3037 6.33484 -17.9462 31.1952 6.33484 -18.4437 39.0867 6.33484 -18.7205 
46.9782 6.33484 -18.1693 54.8697 6.33484 -16.1205 -47.7198 14.2263 -15.4939 
-39.8283 14.2263 -18.2722 -31.9368 14.2263 -19.3239 -24.0453 14.2263 -19.4708 
-16.1538 14.2263 -20.2122 -8.26228 14.2263 -21.6903 -0.370778 14.2263 -21.0824 
7.52072 14.2263 -20.5213 15.4122 14.2263 -17.659 31.1952 14.2263 -16.3017 
39.0867 14.2263 -16.2655 -31.9368 22.1178 -16.209 -24.0453 22.1178 -17.5419 
-16.1538 22.1178 -18.6338 -8.26228 22.1178 -18.9679 -0.370778 22.1178 -18.6113 
7.52072 22.1178 -18.3195 -31.9368 -33.2181 -15.4656 -24.0453 -35.2239 -15.4656 
-16.1538 -37.0626 -15.4656 -8.26228 -38.6787 -15.4656 -0.370778 -39.1632 -15.4656 
-0.370778 -41.0142 -7.7081 7.52072 -38.862 -15.4656 15.4122 -38.2966 -15.4656 
23.3037 -37.7522 -15.4656 31.1952 -35.8673 -15.4656 -32.1499 -33.1227 -15.4656 
-39.8283 -27.6293 -15.4656 38.3638 -33.1227 -15.4656 39.0867 -32.7297 -15.4656 
39.0867 -33.1227 -14.8481 46.9782 -26.8153 -15.4656 -42.9797 -25.2312 -15.4656 
-47.7198 -19.9776 -15.4656 -47.7198 -25.2312 -11.9707 48.827 -25.2312 -15.4656 
54.8697 -19.8812 -15.4656 54.8697 -25.2312 -9.2421 -49.2685 -17.3397 -15.4656 
-55.6113 -17.3397 -9.20451 56.7987 -17.3397 -15.4656 -50.9476 -9.44816 -15.4656 
-55.6113 -9.44816 -12.3581 59.0345 -9.44816 -15.4656 62.7612 -9.44816 -10.8696 
-51.7908 -1.55666 -15.4656 -55.6113 -1.55666 -13.3224 58.4399 -1.55666 -15.4656 
62.7612 -1.55666 -10.772 -50.8332 6.33484 -15.4656 -55.6113 6.33484 -12.3339 
23.3037 14.1907 -15.4656 46.9782 13.9491 -15.4656 55.9185 6.33484 -15.4656 
54.8697 7.88297 -15.4656 62.7612 6.33484 -10.0235 -47.7673 14.2263 -15.4656 
-55.6113 14.2263 -8.68052 -47.7198 14.2853 -15.4656 -39.8283 19.5015 -15.4656 
23.2576 14.2263 -15.4656 15.4122 20.7416 -15.4656 23.4137 14.2263 -15.4656 
23.3037 14.2263 -15.4544 31.1952 15.9956 -15.4656 46.097 14.2263 -15.4656 
39.0867 15.9988 -15.4656 46.9782 14.2263 -15.3565 54.8697 14.2263 -12.4261 
-47.7198 22.1178 -8.5478 -34.4566 22.1178 -15.4656 -39.8283 22.1178 -13.5434 
-31.9368 23.2056 -15.4656 -24.0453 26.1443 -15.4656 -16.1538 28.8094 -15.4656 
-8.26228 28.3789 -15.4656 -0.370778 26.7192 -15.4656 14.3081 22.1178 -15.4656 
7.52072 25.8713 -15.4656 15.4122 22.1178 -14.9886 23.3037 22.1178 -12.7334 
31.1952 22.1178 -12.5662 39.0867 22.1178 -12.1923 46.9782 22.1178 -10.8376 
-31.9368 30.0093 -8.70558 -24.0453 30.0093 -12.6594 -16.1538 30.0093 -14.74 
-8.26228 30.0093 -14.3748 -0.370778 30.0093 -12.7975 7.52072 30.0093 -11.9573 
15.4122 30.0093 -10.062 23.3037 30.0093 -8.44008 -0.370778 -41.039 -7.57413 
-31.9368 -35.4502 -7.57413 -24.0453 -37.4245 -7.57413 -16.1538 -39.2604 -7.57413 
-1.0153 -41.0142 -7.57413 -8.26228 -40.731 -7.57413 0.0455644 -41.0142 -7.57413 
-0.370778 -41.0142 -7.46742 7.52072 -40.5681 -7.57413 15.4122 -40.0945 -7.57413 
23.3037 -39.5969 -7.57413 31.1952 -38.7056 -7.57413 39.0867 -35.7516 -7.57413 
-47.7198 -28.7855 -7.57413 -39.6669 -33.1227 -7.57413 -39.8283 -33.071 -7.57413 
45.205 -33.1227 -7.57413 39.0867 -33.1227 0.177996 46.9782 -32.2829 -7.57413 
54.8697 -26.2396 -7.57413 -51.7752 -25.2312 -7.57413 -55.6113 -19.7887 -7.57413 
55.8536 -25.2312 -7.57413 54.8697 -25.2312 -2.51341 -57.1493 -17.3397 -7.57413 
62.4328 -17.3397 -7.57413 62.7612 -16.3674 -7.57413 -60.5606 -9.44816 -7.57413 
64.9826 -9.44816 -7.57413 62.7612 -9.44816 -0.282085 -61.0685 -1.55666 -7.57413 
-63.5028 -1.55666 -2.19637 65.0514 -1.55666 -7.57413 -60.4596 6.33484 -7.57413 
64.7732 6.33484 -7.57413 62.7612 9.97961 -7.57413 -56.625 14.2263 -7.57413 
-55.6113 15.5573 -7.57413 60.051 14.2263 -7.57413 54.8697 20.1853 -7.57413 
-48.6938 22.1178 -7.57413 -47.7198 22.7835 -7.57413 -39.8283 27.4051 -7.57413 
31.1952 29.9308 -7.57413 39.0867 28.1378 -7.57413 52.3586 22.1178 -7.57413 
46.9782 26.3536 -7.57413 54.8697 22.1178 -4.42646 -33.8547 30.0093 -7.57413 
-39.8283 30.0093 -2.30948 -31.9368 30.8878 -7.57413 -24.0453 34.1051 -7.57413 
-16.1538 36.2923 -7.57413 -8.26228 36.27 -7.57413 -0.370778 35.1538 -7.57413 
7.52072 34.7761 -7.57413 15.4122 33.3048 -7.57413 30.6983 30.0093 -7.57413 
23.3037 31.1427 -7.57413 31.1952 30.0093 -7.50854 39.0867 30.0093 -5.84744 
46.9782 30.0093 -1.93416 -16.1538 37.9008 -3.47298 -8.26228 37.9008 -4.00174 
-0.370778 37.9008 -3.23826 7.52072 37.9008 -3.58399 15.4122 37.9008 -2.89162 
23.3037 37.9008 -0.792329 -31.9368 -34.419 0.31737 -24.0453 -36.1353 0.31737 
-16.1538 -37.3362 0.31737 -8.26228 -38.5672 0.31737 -0.370778 -38.9154 0.31737 
7.52072 -38.7897 0.31737 15.4122 -38.4528 0.31737 23.3037 -37.5071 0.31737 
31.1952 -35.7979 0.31737 -47.7198 -29.8304 0.31737 -37.5759 -33.1227 0.31737 
-39.8283 -32.5868 0.31737 -31.9368 -33.1227 4.07393 -24.0453 -33.1227 6.42468 
-16.1538 -33.1227 8.13539 -0.370778 -33.1227 7.64892 7.52072 -33.1227 8.11998 
23.3037 -33.1227 7.2754 38.9194 -33.1227 0.31737 31.1952 -33.1227 3.7002 
39.0867 -33.0659 0.31737 46.9782 -29.3534 0.31737 -53.8857 -25.2312 0.31737 
-55.6113 -23.5682 0.31737 53.844 -25.2312 0.31737 46.9782 -25.2312 4.30472 
54.8697 -24.297 0.31737 -60.104 -17.3397 0.31737 59.9831 -17.3397 0.31737 
54.8697 -17.3397 4.76382 -63.2146 -9.44816 0.31737 -63.5028 -7.74046 0.31737 
62.5724 -9.44816 0.31737 62.7612 -8.24872 0.31737 -64.4895 -1.55666 0.31737 
-63.5028 5.97348 0.31737 -63.5028 -1.55666 6.23907 63.8197 -1.55666 0.31737 
62.7612 -1.55666 2.79424 -63.4512 6.33484 0.31737 63.7359 6.33484 0.31737 
62.7612 9.91212 0.31737 62.7612 6.33484 2.15227 -60.152 14.2263 0.31737 
-55.6113 21.562 0.31737 61.655 14.2263 0.31737 -55.0393 22.1178 0.31737 
-47.7198 27.0083 0.31737 57.4853 22.1178 0.31737 54.8697 25.2311 0.31737 
54.8697 22.1178 6.25705 -42.4068 30.0093 0.31737 -39.8283 31.2057 0.31737 
-31.9368 34.666 0.31737 -24.0453 37.6466 0.31737 31.1952 37.837 0.31737 
39.0867 34.4279 0.31737 48.8875 30.0093 0.31737 46.9782 31.1605 0.31737 
-22.863 37.9008 0.31737 -24.0453 37.9008 2.19248 -16.1538 39.1954 0.31737 
-8.26228 39.5185 0.31737 -0.370778 39.689 0.31737 7.52072 40.299 0.31737 
15.4122 40.1395 0.31737 30.6993 37.9008 0.31737 23.3037 38.7186 0.31737 
31.1952 37.9008 0.85721 -8.26228 -33.1252 8.20887 15.4122 -33.6391 8.20887 
-47.7198 -26.0686 8.20887 -39.8283 -29.3553 8.20887 -31.9368 -31.3408 8.20887 
-24.0453 -32.1058 8.20887 -8.68577 -33.1227 8.20887 -16.1538 -33.0756 8.20887 
-8.22097 -33.1227 8.20887 -8.26228 -33.1227 8.2116 -0.370778 -32.4062 8.20887 
8.49673 -33.1227 8.20887 7.52072 -33.023 8.20887 18.9136 -33.1227 8.20887 
15.4122 -33.1227 8.77892 23.3037 -32.28 8.20887 31.1952 -28.8329 8.20887 
39.0867 -25.6607 8.20887 -49.2418 -25.2312 8.20887 -55.6113 -20.1492 8.20887 
-47.7198 -25.2312 9.16251 -39.8283 -25.2312 12.9579 -31.9368 -25.2312 14.1598 
-24.0453 -25.2312 14.8778 -16.1538 -25.2312 15.3256 -8.26228 -25.2312 14.2799 
-0.370778 -25.2312 12.6328 7.52072 -25.2312 13.4179 15.4122 -25.2312 14.8336 
23.3037 -25.2312 13.4732 31.1952 -25.2312 11.0078 39.8718 -25.2312 8.20887 
39.0867 -25.2312 8.55562 46.9782 -20.4299 8.20887 -57.5236 -17.3397 8.20887 
-55.6113 -17.3397 10.4205 -47.7198 -17.3397 15.7624 31.1952 -17.3397 15.6331 
39.0867 -17.3397 12.9507 50.3109 -17.3397 8.20887 46.9782 -17.3397 10.1064 
54.8697 -10.1185 8.20887 -61.6514 -9.44816 8.20887 -55.6113 -9.44816 15.9163 
46.9782 -9.44816 12.9048 55.2903 -9.44816 8.20887 54.8697 -9.44816 8.50377 
-63.1452 -1.55666 8.20887 46.9782 -1.55666 14.4821 58.7709 -1.55666 8.20887 
54.8697 -1.55666 10.3165 -62.1268 6.33484 8.20887 46.9782 6.33484 15.4822 
59.2283 6.33484 8.20887 54.8697 6.33484 11.8011 -59.4541 14.2263 8.20887 
-55.6113 20.257 8.20887 -55.6113 14.2263 14.3549 46.9782 14.2263 14.9606 
57.0306 14.2263 8.20887 54.8697 19.5474 8.20887 54.8697 14.2263 9.88673 
-54.0722 22.1178 8.20887 -47.7198 27.4359 8.20887 53.7622 22.1178 8.20887 
46.9782 22.1178 13.9658 -43.764 30.0093 8.20887 -39.8283 32.1983 8.20887 
-39.8283 30.0093 15.0108 -31.9368 35.8141 8.20887 39.0867 35.0504 8.20887 
39.0867 30.0093 14.0194 47.3133 30.0093 8.20887 46.9782 30.2944 8.20887 
[...]
POINT_DATA 522
SCALARS ImageScalars float
LOOKUP_TABLE default
0 0 0 0 0 0 0 0 0 
0 0 0 0 0 0 0 0 0 
0 0 0 0 0 0 0 0 0 
0 0 0 0 0 0 0 0 0 
0 0 0 0 0 0 0 0 0 
0 0 0 0 0 0 0 0 0 
0 0 0 0 0 0 0 0 0 
0 0 0 0 0 0 0 0 0 
0 0 0 0 0 0 0 0 0 
0 0 0 0 0 0 0 0 0 
0 0 0 0 0 0 0 0 0 
0 0 0 0 0 0 0 0 0 
0 0 0 0 0 0 0 0 0 
0 0 0 0 0 0 0 0 0 
0 0 0 0 0 0 0 0 0 
0 0 0 0 0 0 0 0 0 
0 0 0 0 0 0 0 0 0 
0 0 0 0 0 0 0 0 0 
0 0 0 0 0 0 0 0 0 
0 0 0 0 0 0 0 0 0 
0 0 0 0 0 0 0 0 0 
0 0 0 0 0 0 0 0 0 
0 0 0 0 0 0 0 0 0 
0 0 0 0 0 0 0 0 0 
0 0 0 0 0 0 0 0 0 
0 0 0 0 0 0 0 0 0 
0 0 0 0 0 0 0 0 0 
0 0 0 0 0 0 0 0 0 
0 0 0 0 0 0 0 0 0 
0 0 0 0 0 0 0 0 0 
0 0 0 0 0 0 0 0 0 
0 0 0 0 0 0 0 0 0 
0 0 0 0 0 0 0 0 0 
0 0 0 0 0 0 0 0 0 
0 0 0 0 0 0 0 0 0 
0 0 0 0 0 0 0 0 0 
0 0 0 0 0 0 0 0 0 
0 0 0 0 0 0 0 0 0 
0 0 0 0 0 0 0 0 0 
0 0 0 0 0 0 0 0 0 
0 0 0 0 0 0 0 0 0 
0 0 0 0 0 0 0 0 0 
0 0 0 0 0 0 0 0 0 
0 0 0 0 0 0 0 0 0 
0 0 0 0 0 0 0 0 0 
0 0 0 0 0 0 0 0 0 
0 0 0 0 0 0 0 0 0 
0 0 0 0 0 0 0 0 0 
0 0 0 0 0 0 0 0 0 
0 0 0 0 0 0 0 0 0 
0 0 0 0 0 0 0 0 0 
0 0 0 0 0 0 0 0 0 
0 0 0 0 0 0 0 0 0 
0 0 0 0 0 0 0 0 0 
0 0 0 0 0 0 0 0 0 
0 0 0 0 0 0 0 0 0 
0 0 0 0 0 0 0 0 0 
0 0 0 0 0 0 0 0 0 

NORMALS Normals float
0.326895 0.743942 0.582829 0.200487 0.665627 0.71885 0.145354 0.551502 0.821412 
0.0999843 0.452675 0.886052 0.0312205 0.400572 0.915733 -0.0331573 0.456876 0.888912 
-0.0495395 0.465228 0.883803 -0.141328 0.453969 0.879738 -0.257348 0.544831 0.79808 
0.374631 0.452424 0.809298 0.232552 0.288292 0.928874 0.0988427 0.220558 0.970353 
0.0400893 0.160598 0.986205 -0.00557553 0.0688533 0.997611 0.0273628 0.0182514 0.999459 
0.00720221 0.0262333 0.99963 -0.0713373 0.0170376 0.997307 -0.0774304 0.0363326 0.996336 
-0.0306363 0.142898 0.989263 -0.220546 0.223713 0.949374 -0.428991 0.412711 0.803515 
0.51518 0.219528 0.828491 0.256869 0.125183 0.958305 0.126821 0.0355212 0.991289 
0.0697043 -0.0270886 0.9972 -0.0288164 -0.0381475 0.998857 -0.0578424 -0.0154482 0.998206 
-0.0117408 -0.066891 0.997691 -0.0288703 -0.117845 0.992612 -0.0410429 -0.207341 0.977407 
-0.012365 -0.157382 0.98746 -0.0339056 -0.0425702 0.998518 -0.0484459 -0.0235922 0.998547 
-0.225529 0.225393 0.947805 -0.448076 0.308802 0.838969 0.385413 0.0659522 0.920384 
0.191958 -0.00446616 0.981393 0.066805 -0.0225218 0.997512 0.0257691 -0.0985561 0.994798 
0.0507818 -0.0898455 0.99466 -0.033104 0.131012 0.990828 -0.0802081 -0.0205342 0.996567 
-0.135047 0.0388948 0.990075 -0.0992102 -0.101323 0.989894 0.0882164 -0.116335 0.989285 
0.0913202 -0.0547252 0.994317 0.0336853 0.000302069 0.999432 -0.160113 0.00546246 0.987084 
-0.391039 0.0731928 0.917459 0.350455 -0.00502191 0.936566 0.162287 -0.0114988 0.986677 
0.0282516 -0.0190986 0.999418 0.000728655 -0.0252009 0.999682 0.201452 -0.0382672 0.978751 
0.0280123 0.0855617 0.995939 -0.110465 -0.0473522 0.992751 -0.0816688 0.0255279 0.996333 
-0.228646 0.0877394 0.969548 0.0303117 -0.0446204 0.998544 0.0918106 -0.0772902 0.992772 
0.0146168 -0.0857788 0.996207 -0.146525 -0.124294 0.981367 -0.396158 -0.117262 0.910664 
0.375037 -0.121462 0.919018 0.182268 -0.0908476 0.979043 0.0536826 -0.063129 0.996561 
0.0077469 -0.0426909 0.999058 0.166727 -0.00906208 0.985961 -0.02596 -0.102705 0.994373 
-0.161217 0.0411276 0.986062 0.00134148 -0.0765259 0.997067 -0.178141 -0.0831331 0.980487 
-0.0585626 -0.168943 0.983884 0.048054 -0.186252 0.981326 -0.0152622 -0.215795 0.976319 
-0.161058 -0.256683 0.952982 -0.390055 -0.29528 0.872162 0.452009 -0.316798 0.833863 
0.225122 -0.30249 0.926186 0.0753405 -0.231986 0.969797 0.0547913 -0.168558 0.984168 
0.13733 -0.10783 0.984639 0.0535922 -0.229581 0.971813 -0.0739499 -0.0569909 0.995632 
-0.192654 -0.127545 0.972942 -0.319512 -0.254635 0.912728 0.04519 -0.357163 0.932948 
-0.0560644 -0.362194 0.930415 0.210853 -0.502346 0.838564 0.142311 -0.353675 0.924479 
0.0846698 -0.295693 0.951523 0.000600103 -0.41087 0.911694 -0.0373415 -0.451445 0.891518 
-0.197496 -0.46046 0.865432 0.327278 0.748996 0.576102 0.228796 0.788808 0.570468 
0.192259 0.79642 0.573369 0.114751 0.823953 0.554918 0.00886608 0.848033 0.52987 
-0.0103561 0.999813 -0.0163016 -0.0485026 0.857848 0.511609 -0.0629476 0.845817 0.529746 
-0.135122 0.834006 0.534954 -0.26882 0.729386 0.629072 0.330847 0.745574 0.578497 
0.401958 0.558824 0.725359 -0.35825 0.701542 0.616032 -0.363831 0.695246 0.619886 
-0.372013 0.738855 0.561871 -0.458763 0.494912 0.737969 0.400932 0.498871 0.768363 
0.508584 0.315707 0.801044 0.540875 0.588473 0.600961 -0.45428 0.478406 0.751504 
-0.474964 0.432941 0.766141 -0.676528 0.698087 0.23449 0.558661 0.216372 0.800676 
0.730312 0.36128 0.57976 -0.531834 0.321513 0.783442 0.481844 0.0974563 0.870821 
0.651357 0.193932 0.73357 -0.623769 0.0691137 0.778547 -0.906282 0.12703 0.403134 
0.458124 -0.00328138 0.888882 0.604506 -0.00128654 0.7966 -0.56974 -0.123713 0.81246 
-0.878374 -0.0437793 0.475964 0.470617 -0.137725 0.871522 0.647509 -0.208798 0.732895 
-0.0712528 -0.310983 0.947741 -0.206691 -0.409145 0.888752 -0.427 -0.293168 0.855409 
-0.393976 -0.326432 0.8592 -0.830474 -0.265864 0.489519 0.453368 -0.317052 0.833028 
0.69432 -0.451671 0.560279 0.452238 -0.319085 0.832866 0.257614 -0.49334 0.830813 
-0.0729642 -0.311262 0.947519 -0.319732 -0.38584 0.865389 -0.0697586 -0.312269 0.947429 
-0.0713941 -0.311545 0.947546 0.0345745 -0.379463 0.924561 -0.191788 -0.409501 0.891923 
-0.0627897 -0.402305 0.91335 -0.20879 -0.415054 0.885515 -0.46086 -0.483903 0.743939 
0.498037 -0.715298 0.490211 0.231746 -0.53114 0.814975 0.292646 -0.606449 0.739309 
0.224836 -0.534321 0.814831 0.193478 -0.494507 0.847366 0.071352 -0.541631 0.837583 
-0.0761193 -0.558357 0.826101 -0.0895268 -0.578995 0.810401 -0.29993 -0.426806 0.853158 
-0.182402 -0.579023 0.794646 -0.311174 -0.413731 0.855569 -0.132033 -0.398289 0.907708 
-0.0270889 -0.459657 0.887684 -0.0992824 -0.551717 0.828101 -0.26633 -0.566772 0.779639 
0.344755 -0.756675 0.555505 0.257731 -0.666648 0.699397 0.074376 -0.59859 0.797595 
-0.0923994 -0.61092 0.786281 -0.116619 -0.662469 0.739956 -0.13787 -0.659228 0.739196 
-0.179248 -0.566867 0.804072 -0.130055 -0.540415 0.831286 -0.0105694 0.999662 -0.0237359 
0.260037 0.963458 0.0642573 0.229776 0.972509 0.037812 0.209839 0.977733 -0.00231984 
-0.000747595 0.999719 -0.023689 0.111227 0.993555 -0.0218502 -0.0131304 0.999642 -0.0232953 
-0.0102899 0.999538 -0.0285818 -0.0598008 0.998109 -0.014244 -0.061425 0.998097 -0.00546812 
-0.0863848 0.995981 -0.0236562 -0.227953 0.97366 -0.0048545 -0.361747 0.932273 -0.00239422 
0.587104 0.740361 0.327375 0.3427 0.924919 0.164564 0.34538 0.923326 0.167874 
-0.453638 0.890181 0.0423044 -0.290661 0.831956 -0.472616 -0.490887 0.8692 0.0593456 
-0.690112 0.710334 0.138459 0.700415 0.633212 0.329333 0.752 0.47132 0.460819 
-0.706883 0.69616 0.125215 -0.695496 0.680634 -0.230267 0.760673 0.406298 0.50626 
-0.874406 0.461119 0.150943 -0.889611 0.429047 0.15656 0.831184 0.188382 0.523111 
-0.969264 0.166037 0.181548 -0.912622 0.179369 -0.367352 0.849209 -0.00531104 0.52803 
0.973071 0.00782993 0.230374 -0.965641 -0.0138215 0.259511 0.823404 -0.206908 0.528389 
-0.91272 -0.272683 0.30428 -0.859771 -0.388147 0.331867 0.718826 -0.46586 0.516008 
0.691511 -0.501628 0.51979 -0.743345 -0.527161 0.411753 -0.567679 -0.63221 0.527306 
0.52261 -0.718157 0.459489 0.507451 -0.729097 0.459251 0.375243 -0.781607 0.49828 
-0.117826 -0.616686 0.778341 -0.146927 -0.654014 0.742077 -0.490795 -0.636458 0.595014 
-0.298753 -0.67776 0.671854 -0.670897 -0.660195 0.337698 0.360294 -0.781749 0.508976 
0.390234 -0.863997 0.318162 0.355209 -0.778827 0.516968 0.282806 -0.814118 0.507181 
0.116986 -0.867627 0.483256 -0.0554525 -0.847658 0.527636 -0.0764567 -0.779219 0.622071 
-0.0769829 -0.730343 0.678728 -0.154253 -0.631071 0.760233 -0.119336 -0.613469 0.78065 
-0.131334 -0.573255 0.808783 -0.119446 -0.619456 0.775891 -0.191154 -0.722674 0.664231 
-0.419683 -0.852879 0.310585 0.118373 -0.939527 0.321368 -0.0119088 -0.927412 0.373851 
-0.00597612 -0.892496 0.451015 -0.0170104 -0.843439 0.536955 -0.113037 -0.816124 0.566713 
-0.131737 -0.860269 0.492527 0.195996 0.955487 -0.220524 0.172327 0.937263 -0.303053 
0.140675 0.922872 -0.358495 0.0900879 0.907055 -0.411261 0.0124366 0.901356 -0.4329 
-0.027112 0.920413 -0.390005 -0.0721298 0.934416 -0.348803 -0.14218 0.907258 -0.395814 
-0.250644 0.838358 -0.484081 0.465255 0.874832 -0.134932 0.237121 0.945615 -0.222679 
0.262079 0.938917 -0.223047 0.183979 0.918485 -0.350054 0.102381 0.860187 -0.499597 
0.0518464 0.814444 -0.577921 -0.00217794 0.657517 -0.753437 0.0522403 0.698075 -0.714117 
-0.205527 0.75268 -0.625485 -0.287851 0.82783 -0.481498 -0.273115 0.755051 -0.596076 
-0.288902 0.827508 -0.48142 -0.420155 0.744502 -0.518832 0.665201 0.745665 -0.0386151 
0.73142 0.681902 -0.00584769 -0.618784 0.628165 -0.471715 -0.418885 0.624633 -0.659067 
-0.642617 0.605147 -0.469937 0.86873 0.495212 0.00860653 -0.753537 0.439688 -0.488729 
-0.588963 0.430219 -0.68413 0.968901 0.245489 0.0310939 0.979434 0.196332 0.0465107 
-0.893983 0.182087 -0.409436 -0.908406 0.160244 -0.386161 0.993624 0.0151112 0.111727 
0.971605 -0.227663 0.0644409 0.967103 0.0243955 -0.253213 -0.958159 0.0618636 -0.279472 
-0.908079 0.0696875 -0.412959 0.968949 -0.23922 0.0625502 -0.946273 -0.128786 -0.296616 
-0.954298 -0.213467 -0.209158 -0.92642 -0.120145 -0.356808 0.868145 -0.480884 0.122784 
0.699767 -0.696519 0.158708 -0.935302 -0.336836 -0.108404 0.678045 -0.716644 0.163328 
0.556698 -0.800072 0.223544 -0.805535 -0.591528 0.0347622 -0.725943 -0.686708 0.0379288 
-0.725109 -0.525317 -0.445262 0.448398 -0.860089 0.243281 0.39044 -0.886127 0.249671 
0.361715 -0.896143 0.25708 0.265106 -0.931643 0.248515 -0.247537 -0.903158 0.350757 
-0.341617 -0.883268 0.321148 -0.511241 -0.847888 0.140425 -0.462071 -0.868555 0.17917 
0.242534 -0.939991 0.239988 0.259634 -0.949908 0.173966 0.115348 -0.974812 0.190882 
0.0303921 -0.977033 0.210907 0.046913 -0.947944 0.314963 0.0288106 -0.921186 0.388056 
-0.0901234 -0.896736 0.433292 -0.240461 -0.902865 0.35639 -0.141062 -0.883157 0.447364 
-0.256155 -0.913688 0.315529 -0.0221311 0.73648 -0.676097 -0.0314381 0.758244 -0.651213 
0.403234 0.757539 -0.513358 0.249944 0.817233 -0.519286 0.153155 0.826698 -0.5414 
0.084118 0.819171 -0.567347 -0.0182434 0.740952 -0.67131 0.0507857 0.812555 -0.580668 
-0.0220597 0.735998 -0.676624 -0.0221797 0.73642 -0.676161 -0.00834432 0.628065 -0.778116 
0.0424432 0.703423 -0.709503 0.0538332 0.69356 -0.718385 -0.107763 0.746993 -0.656041 
-0.0288012 0.742604 -0.669112 -0.209413 0.717567 -0.664262 -0.271253 0.624462 -0.73244 
-0.301917 0.574829 -0.760538 0.443735 0.738552 -0.507583 0.66392 0.586725 -0.463641 
0.401345 0.73134 -0.551421 0.215161 0.671634 -0.708952 0.0980642 0.598223 -0.795307 
0.0599923 0.530535 -0.845537 -0.0359129 0.48858 -0.87178 -0.145718 0.510681 -0.847332 
-0.0494059 0.469469 -0.881566 0.123186 0.452153 -0.883393 0.00743193 0.483326 -0.875409 
-0.207499 0.503237 -0.838866 -0.256805 0.548458 -0.795767 -0.310626 0.56902 -0.761398 
-0.300837 0.563755 -0.769206 -0.406737 0.486681 -0.773115 0.731374 0.509643 -0.453162 
0.654334 0.519219 -0.549781 0.346262 0.468797 -0.812608 -0.258617 0.419268 -0.870248 
-0.299118 0.404398 -0.864286 -0.474607 0.409813 -0.778975 -0.398548 0.406924 -0.821932 
-0.528335 0.290661 -0.797733 0.871218 0.287786 -0.397691 0.55179 0.304913 -0.776245 
-0.386461 0.250737 -0.887569 -0.534887 0.282817 -0.796185 -0.524679 0.277726 -0.804724 
0.92719 0.0273812 -0.373589 -0.414607 0.143523 -0.898611 -0.61639 0.138172 -0.775224 
-0.488639 0.17051 -0.855663 0.916043 -0.201222 -0.346951 -0.391469 0.0283234 -0.919755 
-0.742422 -0.0755283 -0.665661 -0.539737 -0.0150746 -0.841699 0.852684 -0.440154 -0.281416 
0.749126 -0.602162 -0.276064 0.687857 -0.382706 -0.616757 -0.486494 -0.0778982 -0.870204 
-0.682383 -0.240654 -0.690246 -0.657609 -0.39555 -0.641163 -0.614073 -0.238413 -0.752379 
0.713258 -0.654447 -0.250923 0.598384 -0.785504 -0.157864 -0.667062 -0.452296 -0.591994 
-0.564434 -0.272336 -0.779261 0.517546 -0.847984 -0.114319 0.462235 -0.883771 -0.0727204 
0.49366 -0.752001 -0.4368 0.362836 -0.931182 -0.0353604 -0.442448 -0.862636 -0.245152 
-0.406732 -0.581482 -0.70459 -0.643117 -0.670665 -0.369606 -0.636986 -0.678908 -0.365146 
-0.635996 -0.668376 -0.385723 0.267318 -0.962282 -0.0505336 0.233006 -0.970572 -0.0608062 
0.215758 -0.952687 -0.214094 0.0951392 -0.989799 -0.106053 0.0738359 -0.903674 -0.421806 
0.084191 -0.991012 -0.103958 0.0854627 -0.874086 -0.478195 0.125782 -0.990512 -0.0553583 
0.0673757 -0.996423 -0.0510105 -0.0825237 -0.993955 -0.072417 -0.229602 -0.965674 -0.121478 
-0.243325 -0.832065 -0.498459 -0.354787 -0.91761 -0.179213 -0.334635 -0.926717 -0.170923 
-0.336486 -0.901816 -0.27112 0.171613 0.499717 -0.849018 0.061253 0.496216 -0.866035 
0.0327561 0.435198 -0.899739 -0.0302231 0.414874 -0.909377 -0.133616 0.438179 -0.888901 
-0.0701425 0.527502 -0.846653 0.11963 0.441221 -0.889389 0.01721 0.433816 -0.900837 
-0.17583 0.430316 -0.885388 0.316581 0.458603 -0.830337 0.337536 0.452073 -0.825651 
0.149731 0.411364 -0.899089 0.0106567 0.373897 -0.927409 -0.0254201 0.296824 -0.954594 
-0.00298727 0.221597 -0.975134 -0.0795974 0.354655 -0.931603 -0.0697676 0.533403 -0.842979 
0.108021 0.444266 -0.889359 0.0189199 0.362241 -0.931893 -0.236414 0.414395 -0.878855 
-0.158484 0.398359 -0.903434 -0.260081 0.397207 -0.880105 -0.321822 0.266259 -0.908591 
0.537283 0.304444 -0.786537 0.550295 0.282975 -0.785557 0.307399 0.296741 -0.90413 
0.0632656 0.285127 -0.9564 -0.038577 0.237685 -0.970576 -0.103614 0.221017 -0.96975 
0.0259215 0.213617 -0.976574 0.142518 0.319987 -0.936641 0.00401518 0.280758 -0.95977 
-0.0327681 0.202863 -0.978659 -0.0100507 0.222119 -0.974968 -0.139974 0.259495 -0.955547 
-0.265138 0.262664 -0.927744 -0.32201 0.265607 -0.908715 -0.321867 0.265633 -0.908758 
0.62899 0.0625462 -0.774893 0.548536 0.0646847 -0.833621 0.305478 0.0539128 -0.950672 
0.126337 0.110871 -0.985772 -0.0625057 0.136392 -0.988681 -0.0546328 0.153996 -0.98656 
0.102513 0.206261 -0.973112 0.0131439 0.132501 -0.991096 -0.160205 0.070137 -0.984589 
0.00983231 0.0917122 -0.995737 0.0617917 0.0660341 -0.995902 -0.114966 0.0749383 -0.990539 
-0.258168 0.110585 -0.95975 -0.372751 0.135161 -0.918035 -0.333517 0.13702 -0.932734 
0.647911 -0.137428 -0.749216 0.631549 -0.242478 -0.736444 0.600107 -0.132223 -0.788916 
0.325858 -0.0254094 -0.945077 0.135352 -0.0127035 -0.990716 0.0050292 0.0622617 -0.998047 
-0.0358618 0.0936643 -0.994958 0.00777542 0.0515962 -0.998638 0.0140131 -0.0900963 -0.995834 
-0.0376841 0.0521519 -0.997928 -0.0358801 0.111961 -0.993065 -0.0240843 -0.0249808 -0.999398 
-0.0948819 -0.0457716 -0.994436 -0.207922 0.00703589 -0.97812 -0.37198 0.0336471 -0.927631 
-0.296651 0.0492168 -0.953717 0.602881 -0.336262 -0.723507 0.4558 -0.215581 -0.863581 
0.19587 -0.126304 -0.972462 0.0443166 -0.0459272 -0.997961 -0.0664118 0.0101622 -0.997741 
-0.0827913 0.0483909 -0.995391 0.0158822 -0.0102184 -0.999822 0.0406832 0.0308571 -0.998695 
-0.0727368 0.0245755 -0.997048 -0.0948208 -0.0362248 -0.994835 -0.0853672 -0.0746227 -0.993551 
-0.162765 -0.0505223 -0.98537 -0.426246 -0.046421 -0.903416 -0.294406 0.000617107 -0.95568 
0.591109 -0.511329 -0.623804 0.577289 -0.540237 -0.612276 0.563232 -0.500953 -0.657127 
0.487159 -0.702431 -0.518909 0.305969 -0.32596 -0.894502 0.129328 -0.213829 -0.968272 
0.0487214 -0.129477 -0.990385 -0.0145766 -0.0521722 -0.998532 -0.00216323 -0.0354586 -0.999369 
-0.000510586 -0.0657487 -0.997836 -0.102001 -0.0731758 -0.992089 -0.1237 -0.0953373 -0.987729 
-0.111283 -0.129355 -0.985334 -0.125345 -0.180593 -0.975538 -0.437571 -0.23983 -0.86661 
-0.351996 -0.389935 -0.850911 -0.331691 -0.23974 -0.912418 0.475929 -0.71753 -0.508568 
0.340554 -0.784178 -0.518737 0.266473 -0.575405 -0.773241 0.163562 -0.824516 -0.541684 
0.117869 -0.44022 -0.89012 0.0629679 -0.817534 -0.572428 0.030526 -0.406433 -0.91317 
0.0828198 -0.832625 -0.547609 0.00926472 -0.329284 -0.944185 0.00466247 -0.331001 -0.943619 
-0.0984408 -0.261757 -0.9601 -0.148824 -0.270741 -0.951079 -0.209516 -0.595058 -0.775892 
-0.165122 -0.323364 -0.931757 -0.318025 -0.442204 -0.838639 -0.28362 -0.496558 -0.82036 
-0.26343 -0.387155 -0.883581 0.0881522 -0.832716 -0.546639 0.097164 -0.813824 -0.57293 
0.0898214 -0.783667 -0.614653 -0.00338494 -0.789744 -0.613427 -0.0190536 -0.728016 -0.685295 
-0.191756 -0.673774 -0.713623 -0.176998 -0.679704 -0.71181 -0.176606 -0.652509 -0.736914 

