# vtk DataFile Version 4.2
vtk output
ASCII
DATASET POLYDATA
POINTS 496 float
13.1514 18.6578 -23.9426 -9.55896 26.2279 -24.167 -24.6992 -26.763 -18.4048 
-17.1291 -26.763 -19.4499 -9.55896 -26.763 -19.3364 -1.98882 -26.763 -19.4156 
5.58131 -26.763 -19.6195 13.1514 -26.763 -19.7347 20.7216 -26.763 -19.2984 
28.2917 -26.763 -17.107 -32.2694 -19.1929 -20.1444 -24.6992 -19.1929 -22.0893 
-17.1291 -19.1929 -22.1518 -9.55896 -19.1929 -21.4596 -1.98882 -19.1929 -20.7764 
5.58131 -19.1929 -21.2911 13.1514 -19.1929 -22.0476 20.7216 -19.1929 -22.1838 
28.2917 -19.1929 -21.0137 35.8619 -19.1929 -17.9096 -39.8395 -11.6228 -18.5733 
-32.2694 -11.6228 -22.598 -24.6992 -11.6228 -23.3951 -17.1291 -11.6228 -23.158 
-9.55896 -11.6228 -22.1382 -1.98882 -11.6228 -21.0037 5.58131 -11.6228 -21.7575 
13.1514 -11.6228 -22.7999 20.7216 -11.6228 -22.915 28.2917 -11.6228 -22.1534 
35.8619 -11.6228 -20.4251 -39.8395 -4.05264 -20.3535 -32.2694 -4.05264 -22.8667 
-24.6992 -4.05264 -23.5552 -17.1291 -4.05264 -23.0514 -9.55896 -4.05264 -22.2952 
-1.98882 -4.05264 -21.285 5.58131 -4.05264 -21.8424 13.1514 -4.05264 -21.9657 
20.7216 -4.05264 -22.1384 28.2917 -4.05264 -22.1822 35.8619 -4.05264 -21.2374 
43.432 -4.05264 -17.2063 -39.8395 3.5175 -20.7642 -32.2694 3.5175 -22.9602 
-24.6992 3.5175 -23.5644 -17.1291 3.5175 -23.0089 -9.55896 3.5175 -22.6101 
-1.98882 3.5175 -22.1758 5.58131 3.5175 -22.5938 13.1514 3.5175 -21.8889 
20.7216 3.5175 -21.7651 28.2917 3.5175 -21.8136 35.8619 3.5175 -21.0175 
43.432 3.5175 -17.4159 -39.8395 11.0876 -19.5169 -32.2694 11.0876 -23.0763 
-24.6992 11.0876 -23.4539 -17.1291 11.0876 -23.4004 -9.55896 11.0876 -22.8335 
-1.98882 11.0876 -22.0087 5.58131 11.0876 -22.7036 13.1514 17.6381 -23.8154 
13.1514 11.0876 -22.9839 20.7216 11.0876 -22.4706 28.2917 11.0876 -21.9404 
35.8619 11.0876 -20.4689 -32.2694 18.6578 -21.1627 -24.6992 18.6578 -23.1226 
-17.1291 18.6578 -23.7434 -9.55896 22.0682 -23.8154 -9.55896 18.6578 -23.5057 
-1.98882 18.6578 -23.1156 11.2626 18.6578 -23.8154 5.58131 18.6578 -23.4331 
15.9689 18.6578 -23.8154 13.1514 25.3747 -23.8154 20.7216 18.6578 -23.5898 
28.2917 18.6578 -22.1935 35.8619 18.6578 -19.497 -32.2694 26.2279 -18.1614 
-24.6992 26.2279 -21.9432 -12.5536 26.2279 -23.8154 -17.1291 26.2279 -23.2512 
-4.83775 26.2279 -23.8154 -9.55896 27.9572 -23.8154 -1.98882 26.2279 -23.5878 
5.58131 26.2279 -23.6157 13.1514 26.2279 -23.7987 20.7216 26.2279 -23.1724 
28.2917 26.2279 -20.66 35.8619 26.2279 -16.6024 -24.6992 33.798 -17.9856 
-17.1291 33.798 -20.8678 -9.55896 33.798 -22.4318 -1.98882 33.798 -22.8506 
5.58131 33.798 -22.6651 13.1514 33.798 -21.8375 20.7216 33.798 -20.372 
28.2917 33.798 -16.5716 -9.55896 41.3682 -16.7682 -1.98882 41.3682 -17.6123 
5.58131 41.3682 -17.4413 -24.6992 -29.2575 -16.2452 -24.6992 -34.3332 -9.40437 
-17.1291 -31.2353 -16.2452 -17.1291 -34.3332 -13.0891 -9.55896 -32.2961 -16.2452 
-9.55896 -34.3332 -14.6925 -1.98882 -33.1812 -16.2452 -1.98882 -34.3332 -15.4761 
5.58131 -33.3334 -16.2452 5.58131 -34.3332 -15.5486 13.1514 -33.0036 -16.2452 
13.1514 -34.3332 -15.1553 20.7216 -30.8887 -16.2452 20.7216 -34.3332 -12.3351 
28.2917 -27.745 -16.2452 -29.8486 -26.763 -16.2452 -32.2694 -25.314 -16.2452 
-32.2694 -26.763 -14.6263 29.7051 -26.763 -16.2452 35.8619 -21.5536 -16.2452 
35.8619 -26.763 -8.95842 -38.0596 -19.1929 -16.2452 -39.8395 -16.4038 -16.2452 
-39.8395 -19.1929 -13.7146 37.9789 -19.1929 -16.2452 -42.1238 -11.6228 -16.2452 
42.3503 -11.6228 -16.2452 43.432 -8.23399 -16.2452 43.432 -11.6228 -14.9514 
-43.9387 -4.05264 -16.2452 44.4883 -4.05264 -16.2452 -44.3855 3.5175 -16.2452 
44.7418 3.5175 -16.2452 43.432 10.785 -16.2452 -43.2265 11.0876 -16.2452 
-39.8395 18.6146 -16.2452 43.3556 11.0876 -16.2452 43.432 11.0876 -16.1686 
-39.8144 18.6578 -16.2452 -39.8395 18.6578 -16.2096 40.3495 18.6578 -16.2452 
43.432 18.6578 -11.9271 -34.6298 26.2279 -16.2452 -32.2694 28.8812 -16.2452 
36.3372 26.2279 -16.2452 35.8619 26.8228 -16.2452 -27.1577 33.798 -16.2452 
-24.6992 35.7486 -16.2452 -17.1291 39.5968 -16.2452 13.1514 41.274 -16.2452 
20.7216 38.429 -16.2452 28.8082 33.798 -16.2452 28.2917 34.145 -16.2452 
-11.2857 41.3682 -16.2452 -17.1291 41.3682 -12.6008 -9.55896 41.7996 -16.2452 
-1.98882 42.4651 -16.2452 12.6197 41.3682 -16.2452 5.58131 42.3425 -16.2452 
13.1514 41.3682 -16.0432 20.7216 41.3682 -9.53818 -24.6992 -34.7511 -8.67508 
-17.1291 -37.2292 -8.67508 -9.55896 -38.9837 -8.67508 -1.98882 -39.9029 -8.67508 
5.58131 -39.8663 -8.67508 13.1514 -38.8644 -8.67508 20.7216 -36.6982 -8.67508 
-25.5734 -34.3332 -8.67508 -32.2694 -30.6225 -8.67508 25.544 -34.3332 -8.67508 
28.2917 -32.8566 -8.67508 28.2917 -34.3332 -1.94162 35.8619 -26.919 -8.67508 
-36.6512 -26.763 -8.67508 -39.8395 -22.9139 -8.67508 36.0243 -26.763 -8.67508 
-42.2245 -19.1929 -8.67508 42.5366 -19.1929 -8.67508 43.432 -17.7735 -8.67508 
43.432 -19.1929 -2.22098 -45.4073 -11.6228 -8.67508 46.7764 -11.6228 -8.67508 
-46.9096 -4.05264 -8.67508 48.8747 -4.05264 -8.67508 -47.2964 3.5175 -8.67508 
-47.4096 3.5175 -4.86279 49.0009 3.5175 -8.67508 -46.3544 11.0876 -8.67508 
47.6667 11.0876 -8.67508 -43.372 18.6578 -8.67508 -39.8395 24.6514 -8.67508 
45.0023 18.6578 -8.67508 43.432 21.5972 -8.67508 -38.7867 26.2279 -8.67508 
-32.2694 33.7323 -8.67508 40.6388 26.2279 -8.67508 35.8619 31.627 -8.67508 
-32.1988 33.798 -8.67508 -32.2694 33.798 -6.99804 -24.6992 39.3874 -8.67508 
33.4611 33.798 -8.67508 28.2917 37.5667 -8.67508 -20.4537 41.3682 -8.67508 
-17.1291 42.7092 -8.67508 -9.55896 44.2634 -8.67508 -1.98882 44.803 -8.67508 
5.58131 44.6838 -8.67508 13.1514 43.8198 -8.67508 21.2713 41.3682 -8.67508 
20.7216 41.6323 -8.67508 20.7216 41.3682 -7.08062 -24.6992 -36.5384 -1.10495 
-17.1291 -39.4215 -1.10495 -9.55896 -41.1509 -1.10495 -1.98882 -41.8405 -1.10495 
5.58131 -41.7263 -1.10495 13.1514 -40.807 -1.10495 20.7216 -38.5926 -1.10495 
28.2917 -34.5042 -1.10495 -28.9422 -34.3332 -1.10495 -32.2694 -32.2598 -1.10495 
28.533 -34.3332 -1.10495 28.2917 -34.3332 1.04808 35.8619 -28.2969 -1.10495 
-38.1192 -26.763 -1.10495 -39.8395 -24.5661 -1.10495 37.384 -26.763 -1.10495 
43.432 -19.4023 -1.10495 -43.0781 -19.1929 -1.10495 43.5806 -19.1929 -1.10495 
43.432 -19.1929 0.154635 -45.9491 -11.6228 -1.10495 47.5034 -11.6228 -1.10495 
-47.2527 -4.05264 -1.10495 -47.4096 0.330116 -1.10495 49.4352 -4.05264 -1.10495 
-47.5232 3.5175 -1.10495 -47.4096 4.48639 -1.10495 -47.4096 3.5175 -0.357323 
49.4177 3.5175 -1.10495 -46.5885 11.0876 -1.10495 47.8183 11.0876 -1.10495 
-43.667 18.6578 -1.10495 -39.8395 25.1367 -1.10495 44.8647 18.6578 -1.10495 
43.432 21.1028 -1.10495 43.432 18.6578 2.17956 -39.0886 26.2279 -1.10495 
39.9528 26.2279 -1.10495 35.8619 30.5028 -1.10495 35.8619 26.2279 4.77903 
-32.4834 33.798 -1.10495 -32.2694 33.9906 -1.10495 -32.2694 33.798 -0.656029 
-24.6992 38.8096 -1.10495 20.7216 40.1144 -1.10495 31.8898 33.798 -1.10495 
28.2917 36.311 -1.10495 28.2917 33.798 2.5637 -18.9185 41.3682 -1.10495 
-17.1291 42.0553 -1.10495 -17.1291 41.3682 0.29588 -9.55896 43.3251 -1.10495 
-9.55896 41.3682 2.90948 -1.98882 43.8726 -1.10495 -1.98882 41.3682 4.06586 
5.58131 43.69 -1.10495 5.58131 41.3682 3.46072 17.0963 41.3682 -1.10495 
13.1514 42.4989 -1.10495 13.1514 41.3682 0.938812 -24.6992 -36.4208 6.46519 
-17.1291 -39.6081 6.46519 -9.55896 -41.2638 6.46519 -1.98882 -41.6953 6.46519 
5.58131 -41.3517 6.46519 13.1514 -40.3384 6.46519 20.7216 -38.0829 6.46519 
-28.2053 -34.3332 6.46519 -32.2694 -31.4183 6.46519 -24.6992 -34.3332 13.6255 
27.5459 -34.3332 6.46519 28.2917 -33.868 6.46519 35.8619 -27.4122 6.46519 
-37.1364 -26.763 6.46519 -39.8395 -23.0909 6.46519 36.4984 -26.763 6.46519 
35.8619 -26.763 8.05932 -42.1438 -19.1929 6.46519 -39.8395 -19.1929 11.9126 
42.6487 -19.1929 6.46519 43.432 -17.8352 6.46519 -44.9566 -11.6228 6.46519 
46.5292 -11.6228 6.46519 43.432 -11.6228 14.0159 -46.2196 -4.05264 6.46519 
48.1246 -4.05264 6.46519 -46.3166 3.5175 6.46519 47.6338 3.5175 6.46519 
-45.1613 11.0876 6.46519 45.282 11.0876 6.46519 43.432 14.7654 6.46519 
43.432 11.0876 9.51269 -42.014 18.6578 6.46519 -39.8395 22.0364 6.46519 
-39.8395 18.6578 10.6127 41.1101 18.6578 6.46519 35.8619 24.7652 6.46519 
35.8619 18.6578 12.077 -36.3734 26.2279 6.46519 -32.2694 30.1474 6.46519 
-32.2694 26.2279 11.0773 20.7216 26.2279 13.0873 34.0627 26.2279 6.46519 
28.2917 30.4153 6.46519 28.2917 26.2279 10.2252 -26.6869 33.798 6.46519 
-24.6992 35.0014 6.46519 -24.6992 33.798 7.85187 -17.1291 37.5864 6.46519 
-17.1291 33.798 10.4172 -9.55896 39.1911 6.46519 -9.55896 33.798 11.9281 
-1.98882 39.8965 6.46519 -1.98882 33.798 12.6514 5.58131 39.3766 6.46519 
5.58131 33.798 11.8501 13.1514 37.3213 6.46519 13.1514 33.798 9.67737 
21.9215 33.798 6.46519 20.7216 34.4494 6.46519 20.7216 33.798 7.05933 
-17.1291 -37.8982 14.0353 -9.55896 -39.9574 14.0353 -1.98882 -40.2717 14.0353 
5.58131 -39.5701 14.0353 13.1514 -38.1457 14.0353 20.7216 -35.4788 14.0353 
-32.2694 -27.7081 14.0353 -24.4534 -34.3332 14.0353 -24.6992 -34.1858 14.0353 
-17.1291 -34.3332 19.8509 13.1514 -34.3332 19.5219 22.8326 -34.3332 14.0353 
20.7216 -34.3332 15.6973 28.2917 -30.8903 14.0353 -33.1653 -26.763 14.0353 
-32.2694 -26.763 14.9473 -24.6992 -26.763 21.1954 33.0536 -26.763 14.0353 
28.2917 -26.763 18.6941 35.8619 -23.8627 14.0353 -38.7006 -19.1929 14.0353 
-39.8395 -16.5154 14.0353 -32.2694 -19.1929 19.8323 39.5167 -19.1929 14.0353 
35.8619 -19.1929 18.1607 -41.5825 -11.6228 14.0353 -39.8395 -11.6228 16.0262 
-32.2694 -11.6228 21.4359 43.4225 -11.6228 14.0353 35.8619 -11.6228 20.8196 
43.432 -11.5679 14.0353 -43.0199 -4.05264 14.0353 -39.8395 -4.05264 17.6552 
35.8619 -4.05264 21.1318 44.6206 -4.05264 14.0353 43.432 -4.05264 15.5206 
-43.0751 3.5175 14.0353 -39.8395 3.5175 17.7429 35.8619 3.5175 19.6274 
43.6292 3.5175 14.0353 43.432 4.0198 14.0353 43.432 3.5175 14.2653 
-41.5629 11.0876 14.0353 -39.8395 14.6808 14.0353 -39.8395 11.0876 15.9319 
-32.2694 11.0876 21.0084 20.7216 11.0876 20.8412 28.2917 11.0876 19.7292 
[...]
POINT_DATA 496
SCALARS ImageScalars float
LOOKUP_TABLE default
0 0 0 0 0 0 0 0 0 
0 0 0 0 0 0 0 0 0 
0 0 0 0 0 0 0 0 0 
0 0 0 0 0 0 0 0 0 
0 0 0 0 0 0 0 0 0 
0 0 0 0 0 0 0 0 0 
0 0 0 0 0 0 0 0 0 
0 0 0 0 0 0 0 0 0 
0 0 0 0 0 0 0 0 0 
0 0 0 0 0 0 0 0 0 
0 0 0 0 0 0 0 0 0 
0 0 0 0 0 0 0 0 0 
0 0 0 0 0 0 0 0 0 
0 0 0 0 0 0 0 0 0 
0 0 0 0 0 0 0 0 0 
0 0 0 0 0 0 0 0 0 
0 0 0 0 0 0 0 0 0 
0 0 0 0 0 0 0 0 0 
0 0 0 0 0 0 0 0 0 
0 0 0 0 0 0 0 0 0 
0 0 0 0 0 0 0 0 0 
0 0 0 0 0 0 0 0 0 
0 0 0 0 0 0 0 0 0 
0 0 0 0 0 0 0 0 0 
0 0 0 0 0 0 0 0 0 
0 0 0 0 0 0 0 0 0 
0 0 0 0 0 0 0 0 0 
0 0 0 0 0 0 0 0 0 
0 0 0 0 0 0 0 0 0 
0 0 0 0 0 0 0 0 0 
0 0 0 0 0 0 0 0 0 
0 0 0 0 0 0 0 0 0 
0 0 0 0 0 0 0 0 0 
0 0 0 0 0 0 0 0 0 
0 0 0 0 0 0 0 0 0 
0 0 0 0 0 0 0 0 0 
0 0 0 0 0 0 0 0 0 
0 0 0 0 0 0 0 0 0 
0 0 0 0 0 0 0 0 0 
0 0 0 0 0 0 0 0 0 
0 0 0 0 0 0 0 0 0 
0 0 0 0 0 0 0 0 0 
0 0 0 0 0 0 0 0 0 
0 0 0 0 0 0 0 0 0 
0 0 0 0 0 0 0 0 0 
0 0 0 0 0 0 0 0 0 
0 0 0 0 0 0 0 0 0 
0 0 0 0 0 0 0 0 0 
0 0 0 0 0 0 0 0 0 
0 0 0 0 0 0 0 0 0 
0 0 0 0 0 0 0 0 0 
0 0 0 0 0 0 0 0 0 
0 0 0 0 0 0 0 0 0 
0 0 0 0 0 0 0 0 0 
0 0 0 0 0 0 0 0 0 
0 
NORMALS Normals float
0.0108624 0.0540267 0.99848 0.0218499 -0.0627065 0.997793 0.222315 0.586083 0.779155 
0.0488555 0.476753 0.877678 -0.00100672 0.370813 0.928707 0.018046 0.310233 0.950489 
0.020069 0.331653 0.943188 -0.0174985 0.390833 0.920295 -0.142169 0.489332 0.860431 
-0.37223 0.59169 0.715086 0.378521 0.395856 0.836672 0.116066 0.283001 0.952071 
-0.0405587 0.213707 0.976056 -0.0920084 0.176695 0.979956 -0.0101273 0.102703 0.994661 
0.0833619 0.137889 0.986933 0.0581361 0.187234 0.980594 -0.0613246 0.215184 0.974646 
-0.250593 0.290974 0.92333 -0.499571 0.442334 0.744828 0.628319 0.279385 0.726058 
0.259924 0.159919 0.952295 0.0302705 0.091451 0.995349 -0.0823446 0.0585031 0.994885 
-0.142916 0.0539841 0.988261 -0.0251679 0.0336719 0.999116 0.117314 0.0361803 0.992436 
0.0759055 -0.00547669 0.9971 -0.0424941 -0.00387184 0.999089 -0.155759 0.0687894 0.985397 
-0.377365 0.190843 0.906187 0.553606 0.117804 0.824404 0.172137 0.0218835 0.98483 
0.0136466 0.0115652 0.99984 -0.0833938 -0.00992409 0.996467 -0.115748 0.0309907 0.992795 
-0.0299465 0.0779732 0.996506 0.0447726 0.0555616 0.997451 0.0193019 -0.0591615 0.998062 
0.0142363 -0.0749594 0.997085 -0.0604873 -0.0224565 0.997916 -0.282075 0.0350213 0.958753 
-0.651475 0.105877 0.751246 0.531811 -0.0473663 0.845538 0.148255 0.0130182 0.988863 
0.00520441 -0.00667412 0.999964 -0.0635768 0.0232492 0.997706 -0.0548099 0.0351485 0.997878 
-0.00104079 0.0472111 0.998884 -0.0176831 0.0561303 0.998267 -0.0554169 0.0670661 0.996208 
-0.00483679 0.0229193 0.999726 -0.0501678 -0.0159919 0.998613 -0.25365 -0.0493759 0.966035 
-0.629555 -0.0561346 0.774926 0.578939 -0.231105 0.781934 0.212019 -0.10732 0.971355 
0.0187304 -0.0287135 0.999412 -0.0403951 0.0482141 0.99802 -0.0919643 0.0592177 0.994 
-0.00896474 0.0597416 0.998174 0.0644884 0.0559432 0.996349 0.00742748 0.0645847 0.997885 
-0.0157826 0.131955 0.99113 -0.0683887 0.116486 0.990835 -0.128634 0.024036 0.991401 
-0.326978 -0.0905972 0.940679 0.373495 -0.273756 0.886318 0.15957 -0.0943431 0.982668 
0.024498 -0.0105393 0.999644 -0.0115034 0.0200107 0.999734 -0.0404878 0.0881654 0.995283 
-0.00480836 0.105235 0.994436 0.0218497 0.0549578 0.99825 0.0528919 0.0589917 0.996856 
-0.0340699 0.0523773 0.998046 -0.0217306 -0.109894 0.993706 -0.108989 0.0485032 0.992859 
-0.242363 -0.0787322 0.966986 -0.446289 -0.222413 0.86681 0.544466 -0.455199 0.704522 
0.290883 -0.283843 0.913685 0.0678502 -0.102025 0.992465 0.13828 -0.166757 0.976253 
-0.0149824 -0.0305456 0.999421 0.0431449 -0.126805 0.990989 -0.0375197 -0.0123093 0.99922 
0.0135356 -0.0428321 0.998991 -0.0260058 -0.130623 0.991091 -0.19261 -0.167881 0.966808 
-0.367967 -0.30042 0.87997 -0.586609 -0.426285 0.688601 0.435188 -0.584244 0.685033 
0.249882 -0.464385 0.849651 0.113308 -0.37026 0.921992 0.0151388 -0.301083 0.953478 
-0.0622632 -0.316776 0.946455 -0.128388 -0.408763 0.903565 -0.291479 -0.505906 0.811849 
-0.455523 -0.636672 0.622213 0.153087 -0.810291 0.565679 0.0334336 -0.785303 0.618209 
-0.0737756 -0.78577 0.614103 0.24852 0.665647 0.70367 0.35243 0.851506 0.388241 
0.131349 0.629937 0.765458 0.203848 0.773999 0.599476 0.0725242 0.577961 0.812836 
0.103948 0.682867 0.723109 0.0360632 0.555297 0.83087 0.0397186 0.615854 0.786858 
-0.00622034 0.572936 0.819577 -0.0128218 0.626636 0.779206 -0.103131 0.619353 0.77831 
-0.127962 0.689503 0.712889 -0.220251 0.63013 0.744598 -0.307488 0.785431 0.537168 
-0.385915 0.62465 0.678883 0.378379 0.634176 0.674277 0.446691 0.599208 0.664393 
0.478814 0.662606 0.575927 -0.418282 0.613476 0.669842 -0.540699 0.525768 0.656668 
-0.650689 0.707764 0.275089 0.643631 0.449249 0.619608 0.694339 0.394307 0.602009 
0.749268 0.468476 0.468111 -0.587407 0.477098 0.653705 0.746103 0.29392 0.597445 
-0.673477 0.28126 0.683609 -0.694191 0.206906 0.689412 -0.743021 0.306603 0.594907 
0.801942 0.123983 0.584395 -0.694284 0.113613 0.710677 0.810062 -0.0384554 0.585082 
-0.689325 -0.0586274 0.722076 -0.679302 -0.191455 0.708444 0.763977 -0.246265 0.5964 
0.69979 -0.400026 0.591838 -0.677246 -0.196527 0.709024 -0.68323 -0.198026 0.702838 
0.699262 -0.400633 0.592052 0.70091 -0.401307 0.589642 -0.659891 -0.291989 0.692304 
-0.847986 -0.37904 0.370471 0.625577 -0.501088 0.597966 0.592197 -0.541733 0.596513 
-0.60454 -0.434947 0.667348 -0.597729 -0.450411 0.663212 0.512256 -0.625384 0.588633 
0.461836 -0.665823 0.585993 0.293787 -0.758452 0.581756 -0.203303 -0.808155 0.552768 
-0.349725 -0.739956 0.574593 -0.470335 -0.645557 0.601699 -0.459728 -0.65233 0.602591 
0.185465 -0.820756 0.540335 0.298865 -0.89428 0.33308 0.153572 -0.830364 0.53564 
0.0326337 -0.844415 0.534694 -0.194597 -0.811956 0.550327 -0.0703049 -0.838243 0.540745 
-0.204174 -0.818283 0.537333 -0.370829 -0.921487 0.115534 0.359323 0.861458 0.358854 
0.25189 0.87847 0.406008 0.159537 0.887102 0.433126 0.0529856 0.903599 0.425091 
-0.0620524 0.907164 0.416176 -0.187428 0.894562 0.405746 -0.337779 0.863 0.375682 
0.378879 0.85532 0.353381 0.552374 0.776002 0.304472 -0.441852 0.828939 0.342968 
-0.501878 0.803674 0.319729 -0.545311 0.834209 0.082042 -0.652291 0.710582 0.263798 
0.679686 0.680267 0.274344 0.786649 0.565199 0.248463 -0.655108 0.708223 0.263162 
0.849877 0.47011 0.238129 -0.797485 0.552503 0.2424 -0.819931 0.517787 0.244153 
-0.83143 0.554188 0.0399939 0.937285 0.28315 0.203278 -0.896234 0.360049 0.259093 
0.977676 0.119244 0.173006 -0.956811 0.138187 0.255768 0.986697 -0.0340956 0.158953 
0.998133 -0.0374611 0.0482478 -0.966931 -0.0767868 0.243203 0.95586 -0.238007 0.172292 
-0.942439 -0.24597 0.226513 0.877276 -0.439162 0.193709 0.815422 -0.548314 0.185578 
-0.8938 -0.404716 0.193198 -0.866744 -0.469604 0.168008 0.796585 -0.575566 0.184867 
0.672533 -0.715716 0.188283 -0.800943 -0.583206 0.135501 -0.69502 -0.712481 0.0965341 
0.670837 -0.717437 0.187783 0.671779 -0.732184 0.112339 0.492351 -0.860796 0.128923 
-0.635006 -0.768229 0.0811889 -0.529168 -0.844272 0.0847693 0.375154 -0.919541 0.117067 
0.291 -0.950077 0.112574 0.138228 -0.987347 0.0777056 0.0269955 -0.996765 0.075699 
-0.0623392 -0.995507 0.0712735 -0.202226 -0.977663 0.0572711 -0.380401 -0.922435 0.0663953 
-0.369195 -0.926921 0.067178 -0.375007 -0.926914 -0.0141229 0.415856 0.90403 0.0989603 
0.284193 0.948332 0.14107 0.153153 0.978859 0.135571 0.0368496 0.993782 0.105064 
-0.0662421 0.99409 0.0860021 -0.19442 0.977199 0.0853445 -0.372302 0.92476 0.078799 
-0.548484 0.834455 0.0533822 0.508031 0.858523 0.0695842 0.596371 0.801583 0.0425105 
-0.552947 0.831544 0.052759 -0.552609 0.833367 -0.0110681 -0.693483 0.720045 0.0248297 
0.75172 0.659176 0.0200861 0.808972 0.587748 0.0107619 -0.71732 0.696443 0.0204611 
-0.830845 0.556466 0.00654581 0.898337 0.439282 -0.00469729 -0.833574 0.552371 0.00630647 
-0.833986 0.551026 -0.0289419 0.964435 0.263028 -0.0260968 -0.938672 0.344505 -0.014527 
0.994195 0.0991309 -0.041836 0.998453 0.0179303 -0.0526261 -0.991626 0.121274 -0.0443817 
0.99735 -0.0404943 -0.0604422 0.995979 -0.0652626 -0.061368 0.995929 -0.0424462 -0.0795231 
-0.991251 -0.102871 -0.082696 0.968276 -0.239983 -0.0696371 -0.951425 -0.278241 -0.131805 
0.897471 -0.434721 -0.0745866 0.818331 -0.567024 -0.0939081 -0.868467 -0.455795 -0.194978 
-0.838338 -0.504779 -0.20588 -0.820632 -0.470194 -0.324779 0.800615 -0.590502 -0.101603 
-0.746166 -0.614715 -0.255662 -0.649574 -0.705407 -0.283645 -0.574789 -0.626148 -0.526836 
0.641484 -0.74993 -0.161568 0.636316 -0.754026 -0.162931 0.633637 -0.752366 -0.180138 
0.451483 -0.864649 -0.22033 -0.367734 -0.861109 -0.351089 -0.558052 -0.765851 -0.319452 
-0.483682 -0.806042 -0.341097 -0.443736 -0.741341 -0.5035 0.312289 -0.912406 -0.264557 
0.267484 -0.923505 -0.274937 0.260042 -0.905015 -0.33664 0.117419 -0.951992 -0.282707 
0.120849 -0.887191 -0.445294 0.0234706 -0.9598 -0.279703 0.0167114 -0.873275 -0.48694 
-0.0860391 -0.95123 -0.296241 -0.107332 -0.868376 -0.484152 -0.296723 -0.891774 -0.341606 
-0.214826 -0.915381 -0.340481 -0.218033 -0.879066 -0.423917 0.456983 0.880435 -0.126494 
0.294691 0.951511 -0.088231 0.13138 0.988724 -0.0718653 0.00553195 0.995348 -0.096188 
-0.0866717 0.987543 -0.13133 -0.200332 0.967126 -0.156633 -0.375943 0.910361 -0.172943 
0.528832 0.83479 -0.153174 0.626186 0.754907 -0.194953 0.485167 0.78039 -0.394467 
-0.536109 0.825856 -0.174784 -0.554508 0.813492 -0.17536 -0.695758 0.693731 -0.186168 
0.737029 0.639257 -0.219405 0.816569 0.529219 -0.230528 -0.70512 0.683979 -0.187028 
-0.694019 0.680165 -0.236037 0.87512 0.423884 -0.233424 0.793757 0.40543 -0.453405 
-0.819555 0.533369 -0.209397 -0.84195 0.49376 -0.217534 0.936115 0.246828 -0.250528 
-0.918682 0.312682 -0.241358 -0.817043 0.262361 -0.513427 0.964706 0.0835665 -0.249718 
-0.954351 0.0690568 -0.290593 0.962409 -0.062491 -0.264319 -0.924319 -0.164168 -0.344505 
0.925273 -0.252614 -0.282941 -0.835106 -0.355615 -0.419686 -0.787571 -0.416543 -0.454119 
-0.772256 -0.381666 -0.50789 0.834289 -0.454773 -0.311676 0.778501 -0.530119 -0.336021 
0.748796 -0.476401 -0.46081 -0.710883 -0.49229 -0.50229 -0.552646 -0.600853 -0.577545 
-0.506324 -0.530178 -0.680108 0.662308 -0.634358 -0.398671 0.55162 -0.698251 -0.456246 
0.48163 -0.649899 -0.587931 -0.225968 -0.535524 -0.813728 -0.506174 -0.618168 -0.601379 
-0.390115 -0.659327 -0.642727 -0.358393 -0.607543 -0.708835 0.414099 -0.742055 -0.52714 
0.366089 -0.756366 -0.542116 0.348894 -0.731393 -0.58595 0.212555 -0.764797 -0.608199 
0.187974 -0.674099 -0.714323 0.119842 -0.790047 -0.601218 0.110543 -0.627677 -0.770585 
0.0105868 -0.805005 -0.593173 -0.0044619 -0.608075 -0.793867 -0.124215 -0.774594 -0.620141 
-0.152696 -0.600774 -0.7847 -0.231788 -0.706111 -0.66909 -0.239678 -0.607311 -0.757448 
-0.334507 -0.664815 -0.667927 -0.323528 -0.669887 -0.668267 -0.319519 -0.65578 -0.684003 
0.32927 0.875933 -0.352593 0.139838 0.935451 -0.324617 -0.0233129 0.943554 -0.330398 
-0.125119 0.920766 -0.369507 -0.235258 0.878182 -0.416474 -0.380584 0.816477 -0.434191 
0.640052 0.58728 -0.495415 0.480945 0.775939 -0.408179 0.486785 0.77029 -0.41194 
0.35194 0.700068 -0.621324 -0.246528 0.71994 -0.648776 -0.423701 0.794714 -0.434634 
-0.378335 0.778262 -0.50117 -0.54103 0.715518 -0.441951 0.65289 0.566024 -0.50334 
0.635229 0.552806 -0.539342 0.466974 0.40263 -0.787289 -0.624067 0.643735 -0.442883 
-0.5077 0.564001 -0.651263 -0.668201 0.58981 -0.453467 0.740244 0.390589 -0.547247 
0.76436 0.334943 -0.550969 0.528281 0.303926 -0.79281 -0.731697 0.488477 -0.475404 
-0.614902 0.421783 -0.666328 0.793821 0.232937 -0.561773 0.725186 0.226955 -0.650075 
0.418999 0.14117 -0.896945 -0.816591 0.262127 -0.514265 -0.487538 0.138351 -0.862071 
-0.816841 0.2605 -0.514695 0.825459 0.0844743 -0.558106 0.683539 0.0845178 -0.725004 
-0.419942 -0.0692326 -0.904906 -0.816641 0.0141517 -0.576973 -0.774109 0.00519101 -0.63303 
0.825963 -0.0795997 -0.558076 0.682353 -0.0852179 -0.726039 -0.413119 -0.234723 -0.879908 
-0.747873 -0.226448 -0.624025 -0.742163 -0.238638 -0.626295 -0.740399 -0.227497 -0.632498 
0.768823 -0.281459 -0.574188 0.71697 -0.379548 -0.58472 0.69882 -0.279661 -0.658362 
0.365913 -0.261608 -0.893123 -0.1316 -0.316546 -0.939404 -0.217429 -0.354032 -0.909608 
-0.604156 -0.404375 -0.686641 -0.482378 -0.481795 -0.731563 -0.458928 -0.392465 -0.797092 
0.605718 -0.498822 -0.619905 0.427653 -0.594149 -0.681249 0.381808 -0.488372 -0.784676 
0.135633 -0.457223 -0.878949 0.0442585 -0.481637 -0.875252 0.056403 -0.485136 -0.872618 
-0.0161363 -0.444601 -0.895583 -0.155116 -0.425215 -0.891702 -0.158769 -0.443786 -0.881956 
-0.208808 -0.517803 -0.829626 -0.15155 -0.461905 -0.873886 -0.378068 -0.526268 -0.761647 
-0.288436 -0.545373 -0.787002 -0.265054 -0.513251 -0.816284 0.283445 -0.612044 -0.738282 
0.237173 -0.610132 -0.755968 0.224665 -0.596 -0.770915 0.137578 -0.570992 -0.809345 
0.102792 -0.518074 -0.849136 0.0904353 -0.546629 -0.832477 0.0631368 -0.465295 -0.882901 
-0.0113916 -0.555965 -0.831128 -0.0191908 -0.472927 -0.880893 -0.154737 -0.521518 -0.839092 
-0.153385 -0.45923 -0.874975 -0.198219 -0.494721 -0.846145 -0.190667 -0.485012 -0.853469 
-0.185387 -0.475478 -0.859972 0.134946 0.695297 -0.70594 -0.0354205 0.709191 -0.704126 
-0.155751 0.67439 -0.721761 0.227559 0.665587 -0.710782 0.346772 0.581662 -0.735812 
0.133184 0.657712 -0.741402 -0.0353427 0.654099 -0.755583 -0.167965 0.668252 -0.724726 
-0.155972 0.664221 -0.731084 -0.232172 0.600608 -0.765092 -0.330063 0.521242 -0.786997 
0.448341 0.391337 -0.803645 0.453856 0.360952 -0.814695 0.326029 0.342759 -0.881034 
0.138135 0.330532 -0.933631 -0.0293132 0.325578 -0.945061 -0.134603 0.34939 -0.927258 
-0.200886 0.386313 -0.900226 -0.376932 0.483339 -0.79013 -0.31566 0.453392 -0.833543 
-0.426922 0.349864 -0.833866 0.457433 0.231736 -0.858518 0.400672 0.17154 -0.90002 
0.286331 0.133128 -0.948837 0.12181 0.133428 -0.983544 -0.0194375 0.119094 -0.992693 
-0.0966446 0.134233 -0.986226 -0.165823 0.159784 -0.973125 -0.255502 0.164839 -0.952653 
-0.447037 0.284572 -0.848043 -0.389102 0.248278 -0.887106 0.411361 0.136158 -0.901245 
0.41016 0.128227 -0.902955 0.34205 0.0650366 -0.937428 0.304379 0.0381937 -0.951785 
0.119752 0.0429604 -0.991874 -0.0315501 -0.0036275 -0.999496 -0.0965473 -0.0195098 -0.995137 
-0.18039 -0.0379273 -0.982864 -0.226569 -0.0530537 -0.972549 -0.428419 0.108303 -0.897066 
-0.295895 0.0382158 -0.954456 0.423232 0.0675043 -0.903503 0.372981 0.0624319 -0.925736 
0.296329 0.0129383 -0.954998 0.280378 -0.0371465 -0.959171 0.0774359 -0.084598 -0.993402 
-0.0835732 -0.164147 -0.982889 -0.128853 -0.191724 -0.972954 -0.199117 -0.209536 -0.957313 
-0.184924 -0.184578 -0.965264 -0.374896 -0.0774552 -0.923826 -0.202707 -0.115575 -0.972395 
0.41518 -0.0859298 -0.905672 0.360814 -0.192811 -0.912489 0.358281 -0.0854585 -0.929694 
0.255891 -0.0952216 -0.962004 0.202657 -0.17964 -0.962632 2.60884e-05 -0.247173 -0.968971 
-0.136272 -0.250067 -0.958591 -0.139312 -0.264406 -0.954296 -0.16783 -0.272287 -0.947466 
-0.133551 -0.279801 -0.950724 -0.139316 -0.230751 -0.962988 -0.214826 -0.229996 -0.949185 
-0.188225 -0.246528 -0.950682 -0.1852 -0.229275 -0.95558 0.31406 -0.266061 -0.91136 
0.161813 -0.358826 -0.919272 0.194979 -0.278585 -0.940412 0.0633333 -0.451039 -0.890255 
0.108113 -0.376637 -0.920031 0.0477234 -0.479939 -0.876003 0.0149784 -0.427771 -0.903763 
-0.024724 -0.427951 -0.903464 -0.0882676 -0.321132 -0.942912 -0.155657 -0.380022 -0.911786 
-0.154987 -0.314474 -0.936528 -0.150508 -0.331845 -0.93125 -0.158422 -0.350147 -0.923201 
-0.158724 -0.339747 -0.927027 
