# vtk DataFile Version 4.2
vtk output
ASCII
DATASET POLYDATA
POINTS 592 float
11.8536 -28.402 -19.4108 -25.3452 -35.8417 -11.9227 -17.9054 -35.8417 -13.5321 
-10.4657 -35.8417 -13.9436 -3.02593 -35.8417 -14.5891 4.41382 -35.8417 -16.2764 
11.8536 -28.8549 -19.2899 11.8536 -35.8417 -17.1775 19.2933 -35.8417 -16.2452 
26.7331 -35.8417 -15.3385 34.1728 -35.8417 -12.1344 -32.785 -28.402 -12.8341 
-25.3452 -28.402 -15.4369 -17.9054 -28.402 -16.3407 -10.4657 -28.402 -16.85 
-3.02593 -28.402 -17.607 9.65448 -28.402 -19.2899 4.41382 -28.402 -18.9978 
18.6538 -28.402 -19.2899 11.8536 -26.696 -19.2899 19.2933 -28.402 -19.2779 
26.7331 -28.402 -17.475 34.1728 -28.402 -16.4071 41.6126 -28.402 -15.0308 
49.0523 -28.402 -12.1786 -40.2247 -20.9622 -13.2414 -32.785 -20.9622 -14.5308 
-25.3452 -20.9622 -15.9185 -17.9054 -20.9622 -17.2534 -10.4657 -20.9622 -17.5712 
-3.02593 -20.9622 -17.9812 4.41382 -20.9622 -18.5892 11.8536 -20.9622 -18.8923 
19.2933 -20.9622 -18.5698 26.7331 -20.9622 -18.6745 34.1728 -20.9622 -17.7704 
41.6126 -20.9622 -16.4747 49.0523 -20.9622 -14.1188 -47.6645 -13.5225 -12.8394 
-40.2247 -13.5225 -14.6042 -32.785 -13.5225 -15.6926 -25.3452 -13.5225 -16.0563 
-17.9054 -13.5225 -17.1303 -10.4657 -13.5225 -17.7982 -3.02593 -13.5225 -16.8671 
4.41382 -13.5225 -17.5039 11.8536 -13.5225 -17.5011 19.2933 -13.5225 -17.7857 
26.7331 -13.5225 -18.3148 34.1728 -13.5225 -18.2821 41.6126 -13.5225 -18.1075 
49.0523 -13.5225 -15.6523 -55.1042 -6.08271 -12.7774 -47.6645 -6.08271 -14.6991 
-40.2247 -6.08271 -16.2501 -32.785 -6.08271 -16.5628 -25.3452 -6.08271 -16.2688 
-17.9054 -6.08271 -16.6711 -10.4657 -6.08271 -18.4039 -3.02593 -6.08271 -16.9063 
4.41382 -6.08271 -17.5214 11.8536 -6.08271 -17.2992 19.2933 -6.08271 -17.3786 
26.7331 -6.08271 -18.0062 34.1728 -6.08271 -18.0425 41.6126 -6.08271 -17.6406 
49.0523 -6.08271 -15.7832 -55.1042 1.35704 -11.9932 -47.6645 1.35704 -15.4859 
-40.2247 1.35704 -16.8705 -32.785 1.35704 -16.8272 -25.3452 1.35704 -16.3526 
-17.9054 1.35704 -15.5665 -10.4657 1.35704 -16.3541 -3.02593 1.35704 -14.5296 
4.41382 1.35704 -15.8733 11.8536 1.35704 -17.5331 19.2933 1.35704 -17.3187 
26.7331 1.35704 -17.4446 34.1728 1.35704 -17.2958 41.6126 1.35704 -16.5574 
49.0523 1.35704 -14.729 56.4921 1.35704 -12.2003 -47.6645 8.7968 -15.0472 
-40.2247 8.7968 -16.3925 -32.785 8.7968 -16.2862 -25.3452 8.7968 -15.5186 
-17.9054 8.7968 -14.0266 -10.4657 8.7968 -13.1971 -3.02593 8.7968 -15.7665 
4.41382 8.7968 -15.4228 11.8536 8.7968 -17.1242 19.2933 8.7968 -17.7097 
26.7331 8.7968 -17.6103 34.1728 8.7968 -16.9205 41.6126 8.7968 -15.9057 
49.0523 8.7968 -14.162 -47.6645 16.2366 -13.6474 -40.2247 16.2366 -14.8588 
-32.785 16.2366 -15.5955 -25.3452 16.2366 -14.6234 -17.9054 16.2366 -13.1767 
-10.4657 16.2366 -12.9346 -3.02593 16.2366 -15.0157 4.41382 16.2366 -15.7665 
11.8536 16.2366 -17.0735 19.2933 16.2366 -17.9342 26.7331 16.2366 -17.9451 
34.1728 16.2366 -16.8741 41.6126 16.2366 -15.4334 49.0523 16.2366 -13.2191 
-47.6645 23.6763 -12.2132 -40.2247 23.6763 -13.0117 -32.785 23.6763 -13.7281 
-25.3452 23.6763 -12.9737 -17.9054 23.6763 -12.6689 -10.4657 23.6763 -12.6714 
-3.02593 23.6763 -14.5022 4.41382 23.6763 -15.6803 11.8536 23.6763 -16.5922 
19.2933 23.6763 -17.3965 26.7331 23.6763 -17.3199 34.1728 23.6763 -16.4478 
41.6126 23.6763 -14.8644 -3.02593 31.1161 -12.6515 4.41382 31.1161 -14.0262 
11.8536 31.1161 -14.8174 19.2933 31.1161 -15.1234 26.7331 31.1161 -14.9776 
34.1728 31.1161 -13.9003 -25.3452 -35.956 -11.8502 -17.9054 -37.9712 -11.8502 
-17.9054 -43.2815 -5.0141 -10.4657 -38.3627 -11.8502 -3.02593 -38.6061 -11.8502 
4.41382 -39.9603 -11.8502 11.8536 -41.3051 -11.8502 19.2933 -40.737 -11.8502 
26.7331 -39.321 -11.8502 34.1728 -36.089 -11.8502 -25.547 -35.8417 -11.8502 
-32.785 -30.584 -11.8502 -32.785 -35.8417 -8.24155 34.6888 -35.8417 -11.8502 
41.6126 -32.0048 -11.8502 41.6126 -35.8417 -5.46914 49.0523 -28.7877 -11.8502 
-47.6645 -28.402 -4.54309 -35.1418 -28.402 -11.8502 -40.2247 -23.5704 -11.8502 
-40.2247 -28.402 -9.14394 49.447 -28.402 -11.8502 -46.6881 -20.9622 -11.8502 
-47.6645 -19.6799 -11.8502 -47.6645 -20.9622 -11.5245 53.19 -20.9622 -11.8502 
56.4921 -20.9622 -8.13966 -50.3342 -13.5225 -11.8502 -55.1042 -9.17377 -11.8502 
-55.1042 -13.5225 -9.80678 56.0158 -13.5225 -11.8502 56.4921 -13.5225 -11.4802 
-56.3333 -6.08271 -11.8502 56.1833 -6.08271 -11.8502 56.4921 -3.64639 -11.8502 
56.4921 -6.08271 -11.6109 -55.3151 1.35704 -11.8502 -62.544 1.35704 -4.86705 
-55.1042 3.00366 -11.8502 56.9251 1.35704 -11.8502 56.4921 3.97997 -11.8502 
-54.267 8.7968 -11.8502 -55.1042 8.7968 -11.3191 54.5793 8.7968 -11.8502 
56.4921 8.7968 -10.6897 -52.7534 16.2366 -11.8502 -55.1042 16.2366 -10.6051 
51.371 16.2366 -11.8502 49.0523 19.8448 -11.8502 56.4921 16.2366 -8.51115 
-48.4156 23.6763 -11.8502 -55.1042 23.6763 -6.34515 -47.6645 24.3286 -11.8502 
-40.2247 26.3672 -11.8502 -32.785 27.3413 -11.8502 -25.3452 26.368 -11.8502 
-17.9054 26.277 -11.8502 -10.4657 27.0784 -11.8502 46.9935 23.6763 -11.8502 
41.6126 29.4289 -11.8502 49.0523 23.6763 -10.2924 56.4921 23.6763 -4.44339 
-47.6645 31.1161 -6.25789 -40.2247 31.1161 -8.80273 -32.785 31.1161 -9.58711 
-25.3452 31.1161 -9.76235 -17.9054 31.1161 -10.0245 -6.33338 31.1161 -11.8502 
-10.4657 31.1161 -10.7521 -3.02593 32.4658 -11.8502 4.41382 34.8423 -11.8502 
11.8536 36.2448 -11.8502 19.2933 36.6922 -11.8502 26.7331 35.6239 -11.8502 
39.2127 31.1161 -11.8502 34.1728 34.4303 -11.8502 41.6126 31.1161 -10.5857 
49.0523 31.1161 -6.25296 -3.02593 38.5558 -6.21036 4.41382 38.5558 -8.39073 
11.8536 38.5558 -9.71489 19.2933 38.5558 -9.94208 26.7331 38.5558 -8.6456 
34.1728 38.5558 -7.2809 -17.9054 -43.5842 -4.41041 -32.785 -38.8031 -4.41041 
-19.8596 -43.2815 -4.41041 -25.3452 -42.2577 -4.41041 -15.7788 -43.2815 -4.41041 
-10.4657 -42.5075 -4.41041 -3.02593 -41.4236 -4.41041 4.41382 -41.6401 -4.41041 
11.8536 -42.5793 -4.41041 19.2933 -42.7108 -4.41041 26.7331 -41.4542 -4.41041 
34.1728 -39.6081 -4.41041 41.6126 -36.2473 -4.41041 -47.6645 -28.5118 -4.41041 
-37.6557 -35.8417 -4.41041 -40.2247 -33.8817 -4.41041 42.3311 -35.8417 -4.41041 
41.6126 -35.8417 -2.96517 49.0523 -31.5964 -4.41041 -47.7849 -28.402 -4.41041 
52.6128 -28.402 -4.41041 56.4921 -23.3938 -4.41041 -55.0198 -20.9622 -4.41041 
-55.1042 -20.8808 -4.41041 -55.1042 -20.9622 -4.07517 58.1601 -20.9622 -4.41041 
56.4921 -20.9622 0.75038 -59.7019 -13.5225 -4.41041 60.6365 -13.5225 -4.41041 
-61.5209 -6.08271 -4.41041 -62.544 -0.571859 -4.41041 62.0053 -6.08271 -4.41041 
-62.8248 1.35704 -4.41041 -62.544 4.04501 -4.41041 61.6488 1.35704 -4.41041 
-61.9512 8.7968 -4.41041 60.9767 8.7968 -4.41041 -59.8571 16.2366 -4.41041 
59.6483 16.2366 -4.41041 -56.544 23.6763 -4.41041 -55.1042 25.5319 -4.41041 
56.5163 23.6763 -4.41041 56.4921 23.7134 -4.41041 -49.6538 31.1161 -4.41041 
-47.6645 32.5983 -4.41041 -40.2247 34.6856 -4.41041 -32.785 36.6221 -4.41041 
-25.3452 37.7178 -4.41041 -17.9054 37.6111 -4.41041 -10.4657 38.3284 -4.41041 
41.6126 36.7544 -4.41041 50.5067 31.1161 -4.41041 49.0523 32.3592 -4.41041 
-32.785 38.5558 1.66805 -25.3452 38.5558 -2.18097 -17.9054 38.5558 -1.76643 
-9.45054 38.5558 -4.41041 -10.4657 38.5558 -3.68068 -3.02593 39.7377 -4.41041 
4.41382 41.1575 -4.41041 11.8536 42.0823 -4.41041 19.2933 41.707 -4.41041 
26.7331 41.074 -4.41041 37.9879 38.5558 -4.41041 34.1728 40.1423 -4.41041 
-17.9054 -43.4972 3.02935 -32.785 -39.5958 3.02935 -19.4133 -43.2815 3.02935 
-25.3452 -42.3709 3.02935 -16.6341 -43.2815 3.02935 -17.9054 -43.2815 3.54235 
-10.4657 -42.1973 3.02935 -3.02593 -40.2999 3.02935 4.41382 -39.596 3.02935 
11.8536 -40.1601 3.02935 19.2933 -39.8421 3.02935 26.7331 -38.964 3.02935 
34.1728 -36.917 3.02935 -47.6645 -29.9106 3.02935 -39.4037 -35.8417 3.02935 
-40.2247 -35.3229 3.02935 4.41382 -35.8417 9.10147 11.8536 -35.8417 8.55949 
19.2933 -35.8417 7.70765 26.7331 -35.8417 6.83516 36.9757 -35.8417 3.02935 
34.1728 -35.8417 4.25275 41.6126 -33.1281 3.02935 49.0523 -28.6331 3.02935 
-49.3658 -28.402 3.02935 -55.1042 -22.2899 3.02935 -47.6645 -28.402 6.10463 
34.1728 -28.402 9.07838 41.6126 -28.402 6.86845 49.3095 -28.402 3.02935 
49.0523 -28.402 3.26665 -56.1302 -20.9622 3.02935 -55.1042 -20.9622 5.0222 
41.6126 -20.9622 10.1896 55.3452 -20.9622 3.02935 49.0523 -20.9622 7.58289 
56.4921 -19.4051 3.02935 -60.3522 -13.5225 3.02935 49.0523 -13.5225 9.92273 
59.0747 -13.5225 3.02935 56.4921 -13.5225 5.83453 -61.918 -6.08271 3.02935 
-62.544 -1.35197 3.02935 61.3658 -6.08271 3.02935 56.4921 -6.08271 8.28472 
-62.8994 1.35704 3.02935 -62.544 4.38671 3.02935 -62.544 1.35704 3.65872 
61.5135 1.35704 3.02935 56.4921 1.35704 9.19093 -61.959 8.7968 3.02935 
61.6078 8.7968 3.02935 56.4921 8.7968 9.76949 -60.8516 16.2366 3.02935 
59.9186 16.2366 3.02935 56.4921 16.2366 7.60819 -57.7936 23.6763 3.02935 
-55.1042 27.4978 3.02935 -55.1042 23.6763 7.87607 56.6683 23.6763 3.02935 
56.4921 23.9437 3.02935 56.4921 23.6763 3.28397 -51.5717 31.1161 3.02935 
-47.6645 34.2866 3.02935 -40.2247 37.4539 3.02935 41.6126 36.5179 3.02935 
50.5033 31.1161 3.02935 49.0523 32.3252 3.02935 49.0523 31.1161 4.76761 
-34.708 38.5558 3.02935 -32.785 38.917 3.02935 -32.785 38.5558 4.64119 
-25.3452 39.9806 3.02935 -25.3452 38.5558 7.63931 -17.9054 39.8603 3.02935 
-17.9054 38.5558 7.07241 -10.4657 40.1418 3.02935 -10.4657 38.5558 8.12608 
-3.02593 41.0685 3.02935 4.41382 42.0939 3.02935 11.8536 42.7026 3.02935 
19.2933 41.9779 3.02935 19.2933 38.5558 9.6591 26.7331 41.2083 3.02935 
26.7331 38.5558 8.47332 37.3111 38.5558 3.02935 34.1728 39.8594 3.02935 
34.1728 38.5558 5.3438 -32.785 -36.1729 10.4691 -25.3452 -37.8761 10.4691 
-17.9054 -39.1739 10.4691 -10.4657 -38.1707 10.4691 -3.02593 -36.1603 10.4691 
-33.3868 -35.8417 10.4691 -40.2247 -30.7442 10.4691 -32.785 -35.8417 10.8337 
-25.3452 -35.8417 12.1702 -17.9054 -35.8417 13.1993 -10.4657 -35.8417 12.6501 
-1.22158 -35.8417 10.4691 -3.02593 -35.8417 10.801 4.41382 -34.4723 10.4691 
11.8536 -33.4167 10.4691 19.2933 -31.1802 10.4691 26.7331 -29.0531 10.4691 
[...]
POINT_DATA 592
SCALARS ImageScalars float
LOOKUP_TABLE default
0 0 0 0 0 0 0 0 0 
0 0 0 0 0 0 0 0 0 
0 0 0 0 0 0 0 0 0 
0 0 0 0 0 0 0 0 0 
0 0 0 0 0 0 0 0 0 
0 0 0 0 0 0 0 0 0 
0 0 0 0 0 0 0 0 0 
0 0 0 0 0 0 0 0 0 
0 0 0 0 0 0 0 0 0 
0 0 0 0 0 0 0 0 0 
0 0 0 0 0 0 0 0 0 
0 0 0 0 0 0 0 0 0 
0 0 0 0 0 0 0 0 0 
0 0 0 0 0 0 0 0 0 
0 0 0 0 0 0 0 0 0 
0 0 0 0 0 0 0 0 0 
0 0 0 0 0 0 0 0 0 
0 0 0 0 0 0 0 0 0 
0 0 0 0 0 0 0 0 0 
0 0 0 0 0 0 0 0 0 
0 0 0 0 0 0 0 0 0 
0 0 0 0 0 0 0 0 0 
0 0 0 0 0 0 0 0 0 
0 0 0 0 0 0 0 0 0 
0 0 0 0 0 0 0 0 0 
0 0 0 0 0 0 0 0 0 
0 0 0 0 0 0 0 0 0 
0 0 0 0 0 0 0 0 0 
0 0 0 0 0 0 0 0 0 
0 0 0 0 0 0 0 0 0 
0 0 0 0 0 0 0 0 0 
0 0 0 0 0 0 0 0 0 
0 0 0 0 0 0 0 0 0 
0 0 0 0 0 0 0 0 0 
0 0 0 0 0 0 0 0 0 
0 0 0 0 0 0 0 0 0 
0 0 0 0 0 0 0 0 0 
0 0 0 0 0 0 0 0 0 
0 0 0 0 0 0 0 0 0 
0 0 0 0 0 0 0 0 0 
0 0 0 0 0 0 0 0 0 
0 0 0 0 0 0 0 0 0 
0 0 0 0 0 0 0 0 0 
0 0 0 0 0 0 0 0 0 
0 0 0 0 0 0 0 0 0 
0 0 0 0 0 0 0 0 0 
0 0 0 0 0 0 0 0 0 
0 0 0 0 0 0 0 0 0 
0 0 0 0 0 0 0 0 0 
0 0 0 0 0 0 0 0 0 
0 0 0 0 0 0 0 0 0 
0 0 0 0 0 0 0 0 0 
0 0 0 0 0 0 0 0 0 
0 0 0 0 0 0 0 0 0 
0 0 0 0 0 0 0 0 0 
0 0 0 0 0 0 0 0 0 
0 0 0 0 0 0 0 0 0 
0 0 0 0 0 0 0 0 0 
0 0 0 0 0 0 0 0 0 
0 0 0 0 0 0 0 0 0 
0 0 0 0 0 0 0 0 0 
0 0 0 0 0 0 0 0 0 
0 0 0 0 0 0 0 0 0 
0 0 0 0 0 0 0 0 0 
0 0 0 0 0 0 0 0 0 
0 0 0 0 0 0 0 
NORMALS Normals float
0.0174027 0.0965373 0.995177 0.255294 0.506069 0.823844 0.126422 0.508582 0.851681 
0.0609713 0.564353 0.823279 0.142372 0.616363 0.774485 0.16359 0.592112 0.789077 
0.0165819 0.117298 0.992958 -0.00603146 0.508412 0.861093 -0.11325 0.533136 0.838415 
-0.206875 0.570425 0.79487 -0.400532 0.681391 0.612601 0.347048 0.311896 0.884465 
0.229798 0.242516 0.942539 0.0895356 0.214931 0.972516 0.0799454 0.215902 0.973137 
0.143893 0.194412 0.970308 0.0483397 0.104219 0.993379 0.12017 0.12381 0.985003 
-0.121039 0.123702 0.98491 0.0138667 0.0453311 0.998876 -0.133394 0.126044 0.983015 
-0.169092 0.193862 0.966346 -0.151071 0.300316 0.9418 -0.284484 0.42888 0.857397 
-0.537628 0.516801 0.666237 0.207273 0.331991 0.920228 0.165337 0.194359 0.966896 
0.177515 0.0378123 0.983391 0.109279 0.0505408 0.992725 0.0477026 0.0653239 0.996723 
0.0692725 -0.0514499 0.99627 0.0621527 -0.100673 0.992976 -0.00143411 -0.126273 0.991995 
-0.0146902 -0.0963256 0.995241 -0.0632826 0.0623102 0.996049 -0.130699 0.105834 0.985757 
-0.228075 0.170541 0.958592 -0.414812 0.223367 0.882064 0.29263 0.223981 0.929624 
0.167247 0.177635 0.96978 0.092654 0.130111 0.987161 0.0952635 0.0231121 0.995184 
0.117222 -0.038132 0.992373 -0.0178336 0.0554713 0.998301 -0.0209916 -0.0699878 0.997327 
0.0432647 -0.0723886 0.996438 0.019217 -0.108186 0.993945 0.0544259 -0.0793612 0.995359 
0.0332614 -0.0443355 0.998463 -0.0129738 0.023394 0.999642 -0.156029 0.0758053 0.984839 
-0.415717 0.0893437 0.905095 0.523314 0.115134 0.844326 0.239241 0.156779 0.958219 
0.133292 0.147609 0.980023 0.00050485 0.0764072 0.997077 0.0063869 0.019838 0.999783 
0.1469 -0.106242 0.983429 0.0146141 -0.0836264 0.99639 -0.0608456 -0.14609 0.987398 
0.0260727 -0.0961161 0.995029 -0.00978853 0.00223263 0.99995 0.0479086 -0.0317338 0.998348 
0.0439205 -0.0583484 0.99733 -0.0235403 -0.0661066 0.997535 -0.155465 -0.0969915 0.983068 
-0.333584 -0.0624225 0.940652 0.543184 -0.0953276 0.834185 0.279739 0.0235565 0.959787 
0.10061 0.00941839 0.994881 -0.0346381 -0.0183266 0.999232 -0.0834321 -0.0497284 0.995272 
-0.00511867 -0.171244 0.985215 -0.0611104 -0.338091 0.939127 -0.035137 -0.0785814 0.996288 
0.209225 -0.152181 0.965953 0.0823695 -0.0119976 0.99653 -0.00592469 0.0223012 0.999734 
-0.00146326 -0.0271167 0.999631 -0.0579708 -0.0750957 0.99549 -0.175533 -0.113747 0.97788 
-0.299357 -0.107608 0.948054 -0.591085 -0.0385244 0.805689 0.290045 -0.106617 0.951056 
0.0910168 -0.13363 0.986843 -0.0581186 -0.0807588 0.995038 -0.14479 -0.114309 0.982837 
-0.150769 -0.160056 0.975526 0.125385 -0.215548 0.96841 0.133259 0.0260983 0.990738 
0.0907855 -0.00302998 0.995866 0.153071 -0.0307926 0.987735 0.0325267 0.0412984 0.998617 
-0.0539131 0.0343523 0.997955 -0.110163 -0.0281236 0.993516 -0.169479 -0.073053 0.982823 
-0.33479 -0.0948159 0.93751 0.278192 -0.229014 0.932825 0.113807 -0.201584 0.972837 
-0.0166229 -0.176253 0.984204 -0.15949 -0.164302 0.973431 -0.111536 -0.0899605 0.98968 
0.122478 -0.0331989 0.991916 0.188727 -0.0855197 0.978299 0.132784 0.0171432 0.990997 
0.149399 -0.034931 0.98816 0.0562221 -0.0211477 0.998194 -0.0700204 -0.0187543 0.997369 
-0.161279 -0.0291818 0.986477 -0.218265 -0.0704072 0.973346 -0.401996 -0.212634 0.89061 
0.312863 -0.381797 0.869683 0.117128 -0.334228 0.935186 -0.00704218 -0.354139 0.935166 
-0.0748282 -0.299442 0.951176 -0.0187646 -0.191834 0.981248 0.121181 -0.131904 0.983827 
0.196817 -0.151891 0.968603 0.137138 -0.115315 0.983817 0.115723 -0.150654 0.98179 
0.0460879 -0.179254 0.982723 -0.0593359 -0.181555 0.981589 -0.171801 -0.193944 0.965852 
-0.338434 -0.244056 0.90879 0.201266 -0.392774 0.897341 0.139561 -0.368461 0.919108 
0.0714654 -0.36941 0.926514 0.011437 -0.40331 0.914992 -0.0781101 -0.427518 0.900626 
-0.230537 -0.436377 0.869728 0.255918 0.511136 0.820516 0.102449 0.618981 0.778695 
0.00874275 0.960236 0.279054 0.0319137 0.701159 0.71229 0.100314 0.785015 0.6113 
0.165094 0.863394 0.476754 0.0540629 0.889383 0.453954 -0.125005 0.847057 0.516592 
-0.243859 0.812096 0.530126 -0.402765 0.694911 0.595718 0.259677 0.508721 0.820835 
0.36885 0.398352 0.839801 0.446883 0.672679 0.589745 -0.406426 0.69117 0.59758 
-0.361116 0.638231 0.679895 -0.463726 0.878483 0.115 -0.538192 0.535909 0.650501 
0.619051 0.661298 0.423628 0.363925 0.368928 0.855249 0.274302 0.3978 0.875507 
0.42844 0.524133 0.736019 -0.551584 0.522376 0.650291 0.395638 0.387298 0.832749 
0.399364 0.362772 0.841965 0.428404 0.400727 0.809869 -0.568521 0.307949 0.762857 
-0.797905 0.459168 0.390529 0.360655 0.281367 0.889247 0.524645 0.22032 0.822318 
0.559388 0.377623 0.737893 -0.626736 0.0872217 0.774335 -0.657286 0.092271 0.747972 
0.593302 0.118233 0.79625 -0.640222 0.0360519 0.767343 -0.635103 0.0149802 0.772282 
-0.659957 0.0376759 0.750358 0.553163 -0.0942313 0.827727 0.93762 0.0221397 0.346957 
0.547045 -0.0880253 0.832462 -0.618515 -0.0348086 0.785002 -0.592917 -0.0887221 0.800361 
0.522924 -0.0672327 0.849723 0.567918 -0.0650061 0.820514 -0.519488 -0.176644 0.83602 
-0.621012 -0.180747 0.762676 0.462162 -0.219567 0.859183 0.582087 -0.237984 0.777521 
-0.461284 -0.224542 0.858369 -0.461252 -0.248441 0.851777 -0.725681 -0.257444 0.638052 
0.342804 -0.397883 0.850984 0.682516 -0.504095 0.529207 0.324706 -0.408192 0.853197 
0.129016 -0.446091 0.88564 -0.00187441 -0.462536 0.886598 -0.0374702 -0.367956 0.929088 
0.0101126 -0.274784 0.961453 0.139062 -0.256696 0.956436 -0.484191 -0.286196 0.826832 
-0.35117 -0.50116 0.790897 -0.562483 -0.342111 0.75271 -0.78164 -0.517932 0.347541 
0.449884 -0.704518 0.54887 0.189207 -0.672649 0.715363 0.0403434 -0.597466 0.800879 
0.0273167 -0.512323 0.858358 0.0586593 -0.470123 0.88065 0.187192 -0.399779 0.897294 
0.163669 -0.429798 0.887968 0.205083 -0.452328 0.867952 0.147286 -0.535255 0.83175 
0.0728016 -0.586888 0.806388 -0.027884 -0.639007 0.768695 -0.0911168 -0.64311 0.760334 
-0.314806 -0.528383 0.788485 -0.239184 -0.57598 0.781689 -0.370268 -0.600281 0.708918 
-0.617568 -0.663698 0.422036 0.18703 -0.848705 0.494691 0.151888 -0.793354 0.589508 
0.0665419 -0.748384 0.659919 -0.04189 -0.78026 0.624051 -0.102017 -0.850417 0.516124 
-0.257563 -0.862306 0.435993 0.00610234 0.969691 0.244258 0.464344 0.81276 0.351862 
0.0777533 0.966534 0.244474 0.287029 0.922876 0.256737 -0.0369179 0.973316 0.226481 
-0.138379 0.972955 0.184958 -0.0561363 0.995012 0.0824583 0.0792025 0.996342 -0.032091 
0.0703691 0.99482 -0.073362 -0.0759186 0.99471 -0.0691947 -0.195346 0.980339 -0.0278348 
-0.329915 0.944006 0.00290651 -0.460028 0.886635 0.0474646 0.621418 0.664307 0.415374 
0.535833 0.755118 0.37773 0.54885 0.725861 0.414595 -0.472054 0.880623 0.0408357 
-0.479678 0.875386 -0.0600628 -0.627807 0.77829 -0.0111073 0.622812 0.66265 0.415933 
-0.73256 0.680692 0.00381764 -0.837524 0.544747 0.0424704 0.682755 0.616663 0.391884 
0.685111 0.614404 0.391318 0.694182 0.619023 0.367318 -0.871934 0.485889 0.06035 
-0.799121 0.561472 -0.214837 0.855346 0.36729 0.36535 -0.957202 0.242374 0.158175 
0.918139 0.190956 0.347214 0.942348 0.0650188 0.328258 -0.96308 0.0706264 0.259788 
0.946263 0.0209603 0.32272 0.947238 -0.0437211 0.317534 -0.948239 -0.0714543 0.309415 
0.935621 -0.161022 0.314143 -0.915254 -0.143111 0.376602 0.850202 -0.349396 0.393801 
-0.89864 -0.256256 0.35606 0.752623 -0.508954 0.417761 0.709799 -0.557977 0.429939 
-0.782323 -0.517874 0.346088 -0.78179 -0.518724 0.346019 0.514736 -0.719861 0.465668 
0.439518 -0.773692 0.456317 0.263393 -0.804445 0.53244 0.146688 -0.839409 0.52333 
0.0588579 -0.846232 0.529554 0.0329874 -0.857437 0.51353 0.128454 -0.874108 0.468438 
-0.451547 -0.851665 0.26603 -0.661848 -0.688214 0.297183 -0.623773 -0.726507 0.288263 
0.16136 -0.981574 0.102351 0.0646912 -0.935488 0.347387 0.0240562 -0.953127 0.301614 
0.134729 -0.881397 0.452755 0.12402 -0.902218 0.413065 0.180281 -0.902194 0.391847 
0.151631 -0.925832 0.346184 0.0360503 -0.946387 0.321018 -0.0655564 -0.962415 0.263553 
-0.101976 -0.958225 0.267218 -0.362216 -0.900363 0.241133 -0.269552 -0.93196 0.242469 
-0.0134145 0.976049 -0.217135 0.412899 0.897798 -0.153208 0.0389763 0.975952 -0.214471 
0.24214 0.948629 -0.203646 -0.0477017 0.974916 -0.217403 -0.0134039 0.969514 -0.244668 
-0.20493 0.952399 -0.2257 -0.164812 0.941097 -0.295251 -0.0127063 0.922017 -0.386942 
0.0173072 0.882675 -0.469666 -0.074306 0.854972 -0.513325 -0.185207 0.823765 -0.535826 
-0.290426 0.786569 -0.544942 0.638619 0.760897 -0.114893 0.544383 0.828611 -0.13058 
0.556951 0.820372 -0.129593 -0.0960259 0.753139 -0.650815 -0.0664848 0.693608 -0.717278 
-0.0865147 0.656279 -0.749542 -0.184417 0.664257 -0.724398 -0.368773 0.740563 -0.561759 
-0.305697 0.72909 -0.612354 -0.445294 0.673498 -0.590012 -0.538249 0.630873 -0.558826 
0.664393 0.738364 -0.115758 0.786591 0.599238 -0.148961 0.62883 0.709833 -0.317348 
-0.202837 0.443729 -0.872904 -0.35276 0.573451 -0.739401 -0.544593 0.625605 -0.558603 
-0.534219 0.621367 -0.57316 0.809683 0.565568 -0.156669 0.777309 0.562203 -0.282344 
-0.249814 0.30599 -0.918675 -0.727807 0.560859 -0.394631 -0.372049 0.436118 -0.819378 
-0.756537 0.525897 -0.388695 0.912773 0.359261 -0.194363 -0.396465 0.23742 -0.886819 
-0.825534 0.323148 -0.462676 -0.684774 0.256655 -0.682065 0.960342 0.149551 -0.235323 
0.961066 0.0615675 -0.269373 -0.883118 0.160217 -0.440946 -0.664866 0.196716 -0.720594 
0.960177 0.00703222 -0.279303 0.959055 -0.0497679 -0.278812 0.947903 0.00716337 -0.318478 
-0.941674 0.0148474 -0.336199 -0.674392 0.083581 -0.733628 0.956127 -0.128178 -0.263422 
-0.956694 -0.106554 -0.270892 -0.608484 -0.0716876 -0.790321 0.93614 -0.284392 -0.206793 
-0.918872 -0.299006 -0.25743 -0.73215 -0.301442 -0.61081 0.865399 -0.472485 -0.166864 
0.781071 -0.609671 -0.13502 0.7431 -0.448366 -0.49676 -0.80437 -0.515234 -0.295842 
-0.799571 -0.520918 -0.298883 -0.798604 -0.514912 -0.311604 0.653356 -0.751219 -0.0937898 
0.523283 -0.849642 -0.0654453 0.294706 -0.9554 -0.0189466 -0.426727 -0.867728 -0.254856 
-0.638586 -0.711779 -0.292538 -0.597395 -0.746345 -0.293409 -0.604875 -0.71269 -0.355245 
0.19401 -0.980937 0.0110907 0.161741 -0.986636 0.0197356 0.16135 -0.983222 -0.0850955 
0.0632181 -0.997913 -0.0131593 0.0357999 -0.943396 -0.329732 0.0108387 -0.999753 -0.01942 
0.0110479 -0.948801 -0.31568 0.0809027 -0.996188 -0.0326309 0.0834656 -0.919597 -0.383895 
0.130514 -0.989504 -0.062036 0.108833 -0.987688 -0.112377 -0.0071945 -0.984699 -0.174114 
-0.0999638 -0.976374 -0.191576 -0.0921583 -0.759507 -0.643938 -0.137283 -0.966847 -0.215315 
-0.16011 -0.812533 -0.560495 -0.351177 -0.894744 -0.275875 -0.294153 -0.913265 -0.281817 
-0.300144 -0.855197 -0.422553 0.320369 0.724512 -0.610284 0.164201 0.695902 -0.699113 
0.00910732 0.716802 -0.697217 -0.163805 0.722924 -0.67123 -0.179858 0.714383 -0.676245 
0.334065 0.718242 -0.610351 0.441155 0.638512 -0.630623 0.315599 0.71118 -0.628188 
0.133032 0.617079 -0.775575 0.0282853 0.57676 -0.816424 -0.133984 0.606724 -0.78354 
-0.16194 0.708625 -0.68675 -0.17779 0.700304 -0.69135 -0.111464 0.666844 -0.736814 
-0.111353 0.555161 -0.824255 -0.140816 0.418087 -0.897426 -0.17742 0.359225 -0.916231 
0.479981 0.606163 -0.63418 0.566154 0.516367 -0.642522 0.395714 0.573566 -0.71724 
0.222947 0.428746 -0.875483 0.094194 0.38412 -0.918466 -0.0235626 0.334268 -0.942184 
-0.0787697 0.290141 -0.953736 -0.102724 0.342068 -0.934043 -0.137535 0.376525 -0.91614 
-0.1573 0.335225 -0.928914 -0.160437 0.316895 -0.934793 -0.178828 0.354192 -0.917915 
-0.176417 0.336472 -0.925021 -0.178491 0.372747 -0.910605 0.610104 0.449866 -0.652223 
0.645672 0.346949 -0.680246 0.532172 0.389802 -0.751563 0.267638 0.326599 -0.906478 
-0.113763 0.149244 -0.982234 -0.0950306 0.147989 -0.984413 -0.144963 0.186979 -0.971609 
-0.190539 0.158641 -0.968777 -0.133904 0.146753 -0.980068 -0.0608549 0.190555 -0.979788 
-0.235731 0.300263 -0.924269 -0.156719 0.277341 -0.947903 -0.24494 0.299245 -0.922202 
0.6652 0.302678 -0.682565 0.620323 0.296036 -0.726335 0.426414 0.156711 -0.890849 
-0.0618179 0.124718 -0.990265 -0.132937 0.0837829 -0.987577 -0.216232 0.253959 -0.942734 
-0.127282 0.234263 -0.963805 -0.0467398 0.170024 -0.984331 -0.0640796 0.161068 -0.984861 
-0.36073 0.237302 -0.901976 -0.222662 0.254178 -0.941178 -0.382334 0.209846 -0.899881 
0.70107 0.0471017 -0.711535 0.594735 0.0420501 -0.802822 0.37034 0.0741798 -0.925929 
-0.00801647 -0.127838 -0.991763 -0.237918 0.302582 -0.922951 -0.141249 0.187556 -0.972045 
-0.0772379 0.149898 -0.98568 -0.176425 0.113254 -0.977777 -0.469584 0.179239 -0.864503 
-0.33827 0.169128 -0.925726 0.681552 0.00820511 -0.731724 0.626431 0.00806844 -0.779435 
0.367944 0.0129641 -0.929758 -0.00929978 0.0192313 -0.999772 -0.177568 0.128429 -0.975692 
-0.1316 0.112931 -0.984849 -0.195678 0.0823117 -0.977208 -0.522629 0.0869576 -0.848114 
-0.300805 0.0839888 -0.94998 0.722519 -0.0342288 -0.690503 0.609716 -0.024847 -0.79223 
0.39598 -0.0495023 -0.916924 -0.0181282 -0.112549 -0.993481 -0.0606085 0.166773 -0.984131 
0.0138905 -0.0750781 -0.997081 -0.0453479 -0.0865524 -0.995215 -0.0917728 0.0379009 -0.995058 
-0.127046 0.0392837 -0.991119 -0.19579 0.0109439 -0.980585 -0.536011 -0.0568104 -0.842297 
-0.348371 0.00319286 -0.937351 0.676783 -0.240617 -0.69575 0.658655 -0.307276 -0.686844 
0.628855 -0.228861 -0.743077 0.431194 -0.0906325 -0.897696 -0.0837913 -0.047633 -0.995344 
0.0756396 -0.0862321 -0.9934 -0.0542225 -0.0223078 -0.99828 -0.0331505 -0.0693032 -0.997045 
-0.0617031 -0.0764109 -0.995165 -0.151434 -0.0778476 -0.985397 -0.230838 -0.0510469 -0.971652 
-0.511119 -0.176509 -0.841191 -0.392307 -0.11756 -0.912291 0.62294 -0.38326 -0.681951 
0.485792 -0.296043 -0.822414 0.210548 -0.2579 -0.942951 -0.110813 -0.230926 -0.966641 
0.0064237 -0.0952973 -0.995428 0.0685182 -0.0563744 -0.996056 -0.0839274 -0.113911 -0.98994 
-0.0972296 -0.158619 -0.982541 -0.100638 -0.217383 -0.970884 -0.107599 -0.224693 -0.968471 
-0.2499 -0.243873 -0.937057 -0.532282 -0.365096 -0.763794 -0.529015 -0.435814 -0.728155 
-0.475404 -0.313812 -0.821896 0.500814 -0.608551 -0.615509 0.5008 -0.608564 -0.615507 
0.500798 -0.608545 -0.615528 0.344947 -0.735814 -0.582743 0.30877 -0.593277 -0.743427 
0.143497 -0.839668 -0.5238 0.0786022 -0.528141 -0.845511 0.00665203 -0.821678 -0.569913 
-0.0363916 -0.492339 -0.869642 0.0152004 -0.786384 -0.617551 -0.00824322 -0.467182 -0.884123 
0.0801125 -0.809133 -0.582139 0.0880589 -0.409133 -0.908216 0.0776189 -0.357242 -0.930781 
-0.0206592 -0.357381 -0.93373 -0.119242 -0.36836 -0.922004 -0.095971 -0.699293 -0.708363 
-0.14269 -0.389216 -0.910028 -0.161012 -0.669284 -0.725351 -0.126392 -0.412514 -0.90214 
-0.20525 -0.597292 -0.775316 -0.163357 -0.493096 -0.8545 -0.383504 -0.589665 -0.710788 
-0.333686 -0.589454 -0.735662 -0.304836 -0.558985 -0.77111 0.0868758 -0.830293 -0.550514 
0.0873336 -0.830401 -0.55028 0.0872387 -0.827879 -0.554082 0.0205584 -0.814002 -0.580498 
0.0159608 -0.788755 -0.614501 -0.07334 -0.744329 -0.663774 -0.0598725 -0.765689 -0.640419 
-0.0640966 -0.750259 -0.658029 0.147748 0.281453 -0.948132 0.0561167 0.28162 -0.957884 
-0.050061 0.23362 -0.971038 0.152998 0.278462 -0.948183 0.274448 0.170513 -0.946363 
0.144414 0.273715 -0.950907 0.0381808 0.235266 -0.971181 -0.101095 0.153617 -0.982945 
-0.0672255 0.165043 -0.983993 -0.106826 0.11577 -0.987515 0.306773 0.121273 -0.944025 
0.280472 0.122567 -0.952005 0.116604 0.104323 -0.987684 -0.0146997 0.0977901 -0.995098 
-0.119698 0.0599291 -0.991 -0.0625894 0.12336 -0.990386 -0.0964085 0.0646644 -0.993239 
-0.0619684 0.124448 -0.990289 -0.0745474 0.226795 -0.971085 0.264025 0.0208345 -0.964291 
0.242567 0.0142881 -0.970029 0.118871 0.0148306 -0.992799 -0.0104258 -0.000601791 -0.999945 
-0.105004 -0.00998531 -0.994422 -0.0523525 0.0182884 -0.998461 -0.0288471 -0.0516397 -0.998249 
-0.0749796 0.10152 -0.992004 -0.00817184 -0.0124277 -0.999889 -0.143782 0.264286 -0.953667 
-0.00805197 0.203206 -0.979103 -0.201108 0.173746 -0.964037 0.270606 0.032061 -0.962156 
0.234869 0.0391062 -0.97124 0.0960362 0.020375 -0.995169 -0.04048 -0.007136 -0.999155 
-0.0980394 -0.0341929 -0.994595 -0.0101884 -0.100743 -0.99486 0.0131812 -0.058869 -0.998179 
-0.153096 0.00440577 -0.988201 -0.204285 0.0100704 -0.97886 0.138161 -0.0396896 -0.989614 
0.0194599 -0.0747823 -0.99701 0.195616 -0.0593701 -0.978882 -0.16431 0.0690181 -0.983991 
-0.0602246 -0.0704894 -0.995693 -0.154706 0.0315357 -0.987457 0.305162 -0.0053393 -0.952285 
0.248516 0.0104382 -0.968571 0.0726432 0.0179716 -0.997196 -0.0637096 -0.0169396 -0.997825 
-0.0377899 -0.102312 -0.994034 -0.153801 -0.0462816 -0.987017 -0.0154747 -0.11958 -0.992704 
-0.0499634 0.0884517 -0.994827 0.0410998 -0.115642 -0.99244 -0.00847198 -0.153681 -0.988084 
0.00230985 0.0733981 -0.9973 0.327055 -0.0939518 -0.940323 0.238001 -0.180744 -0.954299 
0.281097 -0.107571 -0.953631 0.0770119 -0.116969 -0.990145 -0.10705 -0.0852203 -0.990595 
-0.149291 -0.0864794 -0.985004 -0.147912 -0.174337 -0.973514 -0.188612 -0.109967 -0.975875 
0.0424448 0.00504421 -0.999086 -0.0114912 0.0015223 -0.999933 0.0342192 0.0267047 -0.999058 
0.124583 -0.276895 -0.95279 0.0935211 -0.309473 -0.946298 0.0985159 -0.287739 -0.952629 
-0.0897919 -0.237619 -0.967199 -0.0506353 -0.30751 -0.950197 -0.0578554 -0.251319 -0.966174 
0.0145996 -0.0783763 -0.996817 -0.0139752 -0.0896027 -0.99588 0.000988037 -0.102526 -0.99473 
0.00324903 -0.0840204 -0.996459 
