# vtk DataFile Version 4.2
vtk output
ASCII
DATASET POLYDATA
POINTS 552 float
-21.6765 -40.5992 -13.1959 -13.9993 -40.5992 -14.5875 -6.32202 -40.5992 -15.7593 
1.35524 -40.5992 -15.6407 9.0325 -40.5992 -15.5197 16.7098 -40.5992 -14.2219 
-29.3538 -32.9219 -14.9432 -21.6765 -32.9219 -17.1285 -13.9993 -32.9219 -18.2422 
-6.32202 -32.9219 -18.247 1.35524 -32.9219 -18.4841 9.0325 -32.9219 -18.4122 
16.7098 -32.9219 -18.0147 24.387 -32.9219 -16.8539 32.0643 -32.9219 -15.2825 
-29.3538 -25.2446 -16.4061 -21.6765 -25.2446 -18.5534 -13.9993 -25.2446 -19.2318 
-6.32202 -25.2446 -18.8671 1.35524 -25.2446 -19.1162 9.0325 -25.2446 -19.1507 
16.7098 -25.2446 -19.228 24.387 -25.2446 -19.5253 32.0643 -25.2446 -18.3332 
39.7416 -25.2446 -16.7079 -37.0311 -17.5674 -14.3021 -29.3538 -17.5674 -16.8393 
-21.6765 -17.5674 -18.7695 -13.9993 -17.5674 -19.0709 -6.32202 -17.5674 -18.5098 
1.35524 -17.5674 -18.5593 9.0325 -17.5674 -18.4142 16.7098 -17.5674 -18.8127 
24.387 -17.5674 -19.4616 32.0643 -17.5674 -19.6328 39.7416 -17.5674 -18.8186 
47.4188 -17.5674 -15.3544 -37.0311 -9.89011 -15.5034 -29.3538 -9.89011 -17.0219 
-21.6765 -9.89011 -17.7272 -13.9993 -9.89011 -18.4567 -6.32202 -9.89011 -18.2538 
1.35524 -9.89011 -18.9127 9.0325 -9.89011 -17.782 16.7098 -9.89011 -17.8123 
24.387 -9.89011 -18.873 32.0643 -9.89011 -19.3182 39.7416 -9.89011 -18.6927 
47.4188 -9.89011 -16.5614 -44.7083 -2.21285 -14.5939 -37.0311 -2.21285 -16.1512 
-29.3538 -2.21285 -16.3834 -21.6765 -2.21285 -16.7703 -13.9993 -2.21285 -19.0653 
-6.32202 -2.21285 -19.2389 1.35524 -2.21285 -18.295 9.0325 -2.21285 -20.1356 
16.7098 -2.21285 -17.6149 24.387 -2.21285 -18.7516 32.0643 -2.21285 -19.5113 
39.7416 -2.21285 -19.2413 47.4188 -2.21285 -17.4022 -44.7083 5.46441 -14.9087 
-37.0311 5.46441 -16.1378 -29.3538 5.46441 -16.3845 -21.6765 5.46441 -16.0192 
-13.9993 5.46441 -19.1131 -6.32202 5.46441 -19.5363 1.35524 5.46441 -17.531 
9.0325 5.46441 -20.161 16.7098 5.46441 -18.6759 24.387 5.46441 -19.3139 
32.0643 5.46441 -19.8899 39.7416 5.46441 -19.6718 47.4188 5.46441 -18.0084 
-44.7083 13.1417 -13.8319 -37.0311 13.1417 -15.5698 -29.3538 13.1417 -16.1391 
-21.6765 13.1417 -16.6777 -13.9993 13.1417 -18.3566 -6.32202 13.1417 -18.9338 
1.35524 13.1417 -18.3114 9.0325 13.1417 -19.4604 16.7098 13.1417 -19.434 
24.387 13.1417 -19.7955 32.0643 13.1417 -19.9306 39.7416 13.1417 -19.3659 
47.4188 13.1417 -16.6751 -37.0311 20.8189 -13.8849 -29.3538 20.8189 -15.7349 
-21.6765 20.8189 -17.063 -13.9993 20.8189 -18.592 -6.32202 20.8189 -18.7672 
1.35524 20.8189 -18.8165 9.0325 20.8189 -19.4477 16.7098 20.8189 -19.6206 
24.387 20.8189 -19.5807 32.0643 20.8189 -19.2783 39.7416 20.8189 -18.0777 
47.4188 20.8189 -14.0013 -29.3538 28.4962 -14.24 -21.6765 28.4962 -16.4157 
-13.9993 28.4962 -17.8302 -6.32202 28.4962 -18.1851 1.35524 28.4962 -18.3052 
9.0325 28.4962 -18.6502 16.7098 28.4962 -18.4933 24.387 28.4962 -17.8714 
32.0643 28.4962 -16.7661 39.7416 28.4962 -13.4706 -21.6765 36.1735 -13.3866 
-13.9993 36.1735 -14.6412 -6.32202 36.1735 -15.1508 1.35524 36.1735 -15.1637 
9.0325 36.1735 -15.2384 16.7098 36.1735 -14.688 24.387 36.1735 -13.2049 
-21.6765 -40.8066 -13.0092 -13.9993 -42.3717 -13.0092 -6.32202 -43.7952 -13.0092 
-6.32202 -48.2764 -5.55273 1.35524 -43.8299 -13.0092 9.0325 -43.1283 -13.0092 
16.7098 -41.7581 -13.0092 -22.0613 -40.5992 -13.0092 -29.3538 -35.7657 -13.0092 
-29.3538 -40.5992 -6.97866 19.8948 -40.5992 -13.0092 24.387 -38.5031 -13.0092 
24.387 -40.5992 -9.25569 32.0643 -35.4985 -13.0092 -32.0732 -32.9219 -13.0092 
-37.0311 -32.9219 -7.57689 36.6521 -32.9219 -13.0092 39.7416 -30.8171 -13.0092 
39.7416 -32.9219 -9.97559 -44.7083 -25.2446 -5.80011 -36.0115 -25.2446 -13.0092 
-37.0311 -22.955 -13.0092 -37.0311 -25.2446 -12.3495 45.3211 -25.2446 -13.0092 
47.4188 -22.3504 -13.0092 47.4188 -25.2446 -10.5655 -39.8123 -17.5674 -13.0092 
-44.7083 -17.5674 -10.452 51.2166 -17.5674 -13.0092 55.0961 -17.5674 -7.17645 
-52.3856 -9.89011 -9.17217 -44.6039 -9.89011 -13.0092 -44.7083 -9.74767 -13.0092 
-44.7083 -9.89011 -12.9693 52.8737 -9.89011 -13.0092 55.0961 -9.89011 -10.7132 
-47.7222 -2.21285 -13.0092 -52.3856 -2.21285 -9.78321 54.8504 -2.21285 -13.0092 
55.0961 -2.21285 -12.7908 -48.4471 5.46441 -13.0092 -52.3856 5.46441 -10.4037 
55.011 5.46441 -13.0092 55.0961 5.46441 -12.9249 -47.5464 13.1417 -13.0092 
-52.3856 13.1417 -10.4708 -44.7083 16.1103 -13.0092 52.6879 13.1417 -13.0092 
55.0961 13.1417 -10.17 -52.3856 20.8189 -6.24789 -39.8878 20.8189 -13.0092 
-44.7083 20.8189 -11.4497 -37.0311 24.4443 -13.0092 48.7738 20.8189 -13.0092 
47.4188 22.2477 -13.0092 -44.7083 28.4962 -7.79565 -33.5891 28.4962 -13.0092 
-37.0311 28.4962 -11.89 -29.3538 31.1545 -13.0092 32.0643 32.8813 -13.0092 
40.4551 28.4962 -13.0092 39.7416 29.0532 -13.0092 -22.6766 36.1735 -13.0092 
-29.3538 36.1735 -9.68186 -21.6765 36.5935 -13.0092 -13.9993 38.0195 -13.0092 
-6.32202 38.6796 -13.0092 1.35524 38.667 -13.0092 9.0325 38.6868 -13.0092 
16.7098 37.9877 -13.0092 24.8799 36.1735 -13.0092 24.387 36.36 -13.0092 
32.0643 36.1735 -7.90154 -6.32202 -48.3659 -5.33197 -29.3538 -41.6083 -5.33197 
-21.6765 -45.3936 -5.33197 -7.01816 -48.2764 -5.33197 -13.9993 -47.318 -5.33197 
-4.01114 -48.2764 -5.33197 -6.32202 -48.2764 -4.67734 1.35524 -48.0603 -5.33197 
9.0325 -46.9786 -5.33197 16.7098 -44.8713 -5.33197 24.387 -42.1722 -5.33197 
-31.0409 -40.5992 -5.33197 -37.0311 -35.3307 -5.33197 28.4559 -40.5992 -5.33197 
24.387 -40.5992 0.609457 32.0643 -39.1248 -5.33197 39.7416 -35.0045 -5.33197 
-39.284 -32.9219 -5.33197 -44.7083 -25.8374 -5.33197 42.6745 -32.9219 -5.33197 
47.4188 -28.7964 -5.33197 -45.1382 -25.2446 -5.33197 50.6816 -25.2446 -5.33197 
55.0961 -18.7617 -5.33197 -51.4917 -17.5674 -5.33197 -52.3856 -16.0953 -5.33197 
-52.3856 -17.5674 -3.69188 55.8358 -17.5674 -5.33197 -55.412 -9.89011 -5.33197 
58.4424 -9.89011 -5.33197 -57.5761 -2.21285 -5.33197 -60.0629 -2.21285 2.13041 
59.8773 -2.21285 -5.33197 -58.1492 5.46441 -5.33197 -60.0629 5.46441 1.95754 
59.9773 5.46441 -5.33197 -56.7559 13.1417 -5.33197 57.7955 13.1417 -5.33197 
55.0961 18.2264 -5.33197 -53.0924 20.8189 -5.33197 -52.3856 21.9001 -5.33197 
53.4555 20.8189 -5.33197 47.4188 27.123 -5.33197 -46.9986 28.4962 -5.33197 
-44.7083 30.5881 -5.33197 -37.0311 36.1007 -5.33197 45.7993 28.4962 -5.33197 
39.7416 32.945 -5.33197 -36.8919 36.1735 -5.33197 -37.0311 36.1735 -5.13966 
-29.3538 39.4886 -5.33197 -21.6765 41.5253 -5.33197 -13.9993 42.7505 -5.33197 
-6.32202 43.3275 -5.33197 1.35524 43.4026 -5.33197 9.0325 43.2974 -5.33197 
16.7098 42.3809 -5.33197 24.387 40.2637 -5.33197 34.1737 36.1735 -5.33197 
32.0643 37.348 -5.33197 -6.32202 43.8507 -0.149114 1.35524 43.8507 -0.687619 
-29.3538 -41.7513 2.34529 -21.6765 -44.8397 2.34529 -13.9993 -46.5778 2.34529 
-6.32202 -47.2049 2.34529 1.35524 -47.0358 2.34529 9.0325 -45.4273 2.34529 
16.7098 -43.0889 2.34529 -31.2115 -40.5992 2.34529 -37.0311 -36.7553 2.34529 
-29.3538 -40.5992 4.52924 -21.6765 -40.5992 8.66736 9.0325 -40.5992 8.7718 
23.1911 -40.5992 2.34529 16.7098 -40.5992 6.14434 24.387 -40.0852 2.34529 
32.0643 -36.9218 2.34529 39.7416 -33.0877 2.34529 -41.5566 -32.9219 2.34529 
-44.7083 -29.9669 2.34529 32.0643 -32.9219 7.72971 39.9816 -32.9219 2.34529 
39.7416 -32.9219 2.60112 47.4188 -27.0092 2.34529 -49.0107 -25.2446 2.34529 
-52.3856 -20.876 2.34529 49.1885 -25.2446 2.34529 47.4188 -25.2446 4.76193 
55.0961 -17.6534 2.34529 -54.6533 -17.5674 2.34529 55.152 -17.5674 2.34529 
55.0961 -17.5674 2.45346 -58.5259 -9.89011 2.34529 -60.0629 -2.47277 2.34529 
58.22 -9.89011 2.34529 55.0961 -9.89011 7.93283 -60.1135 -2.21285 2.34529 
-60.0629 -2.21285 2.54029 59.8757 -2.21285 2.34529 -60.1382 5.46441 2.34529 
-60.0629 6.00834 2.34529 -60.0629 5.46441 2.57531 59.981 5.46441 2.34529 
-58.9906 13.1417 2.34529 57.3205 13.1417 2.34529 55.0961 17.1176 2.34529 
55.0961 13.1417 6.76588 -55.7401 20.8189 2.34529 -52.3856 25.7603 2.34529 
52.6063 20.8189 2.34529 47.4188 26.3868 2.34529 -50.1388 28.4962 2.34529 
-44.7083 33.467 2.34529 44.9316 28.4962 2.34529 39.7416 32.409 2.34529 
39.7416 28.4962 9.86025 -40.6249 36.1735 2.34529 -37.0311 38.1756 2.34529 
-37.0311 36.1735 9.25625 -29.3538 40.9263 2.34529 -21.6765 42.3132 2.34529 
-13.9993 43.3363 2.34529 9.0325 43.8385 2.34529 16.7098 42.6278 2.34529 
24.387 40.3499 2.34529 33.406 36.1735 2.34529 32.0643 36.9248 2.34529 
32.0643 36.1735 4.14255 -8.75017 43.8507 2.34529 -6.32202 44.0867 2.34529 
-6.32202 43.8507 3.20155 8.70766 43.8507 2.34529 1.35524 44.1254 2.34529 
1.35524 43.8507 3.35685 -13.9993 -41.2608 10.0226 -6.32202 -41.799 10.0226 
1.35524 -41.1261 10.0226 -37.0311 -33.4344 10.0226 -29.3538 -36.6839 10.0226 
-16.833 -40.5992 10.0226 -21.6765 -39.1517 10.0226 -13.9993 -40.5992 10.6185 
-6.32202 -40.5992 11.0393 3.68451 -40.5992 10.0226 1.35524 -40.5992 10.454 
9.0325 -38.9586 10.0226 16.7098 -36.3945 10.0226 24.387 -33.3653 10.0226 
-37.7503 -32.9219 10.0226 -44.7083 -27.6016 10.0226 -37.0311 -32.9219 10.579 
-29.3538 -32.9219 12.7434 -21.6765 -32.9219 14.2007 -13.9993 -32.9219 14.6899 
-6.32202 -32.9219 15.0255 1.35524 -32.9219 14.4503 9.0325 -32.9219 13.481 
16.7098 -32.9219 12.1411 25.6611 -32.9219 10.0226 24.387 -32.9219 10.3606 
32.0643 -30.3386 10.0226 39.7416 -25.4487 10.0226 -47.1853 -25.2446 10.0226 
-52.3856 -18.671 10.0226 -44.7083 -25.2446 12.6157 -37.0311 -25.2446 15.8728 
-29.3538 -25.2446 16.4958 -21.6765 -25.2446 16.8048 -13.9993 -25.2446 16.7994 
-6.32202 -25.2446 17.0187 1.35524 -25.2446 16.2526 9.0325 -25.2446 15.4469 
16.7098 -25.2446 15.0302 24.387 -25.2446 14.2162 32.0643 -25.2446 13.0477 
40.0323 -25.2446 10.0226 39.7416 -25.2446 10.1729 47.4188 -19.6844 10.0226 
-53.1199 -17.5674 10.0226 -52.3856 -17.5674 10.9721 -44.7083 -17.5674 16.4835 
-13.9993 -17.5674 17.5842 1.35524 -17.5674 17.5044 9.0325 -17.5674 16.562 
16.7098 -17.5674 16.7832 24.387 -17.5674 16.3874 32.0643 -17.5674 15.8713 
39.7416 -17.5674 14.3816 49.2501 -17.5674 10.0226 47.4188 -17.5674 11.3478 
[...]
POINT_DATA 552
SCALARS ImageScalars float
LOOKUP_TABLE default
0 0 0 0 0 0 0 0 0 
0 0 0 0 0 0 0 0 0 
0 0 0 0 0 0 0 0 0 
0 0 0 0 0 0 0 0 0 
0 0 0 0 0 0 0 0 0 
0 0 0 0 0 0 0 0 0 
0 0 0 0 0 0 0 0 0 
0 0 0 0 0 0 0 0 0 
0 0 0 0 0 0 0 0 0 
0 0 0 0 0 0 0 0 0 
0 0 0 0 0 0 0 0 0 
0 0 0 0 0 0 0 0 0 
0 0 0 0 0 0 0 0 0 
0 0 0 0 0 0 0 0 0 
0 0 0 0 0 0 0 0 0 
0 0 0 0 0 0 0 0 0 
0 0 0 0 0 0 0 0 0 
0 0 0 0 0 0 0 0 0 
0 0 0 0 0 0 0 0 0 
0 0 0 0 0 0 0 0 0 
0 0 0 0 0 0 0 0 0 
0 0 0 0 0 0 0 0 0 
0 0 0 0 0 0 0 0 0 
0 0 0 0 0 0 0 0 0 
0 0 0 0 0 0 0 0 0 
0 0 0 0 0 0 0 0 0 
0 0 0 0 0 0 0 0 0 
0 0 0 0 0 0 0 0 0 
0 0 0 0 0 0 0 0 0 
0 0 0 0 0 0 0 0 0 
0 0 0 0 0 0 0 0 0 
0 0 0 0 0 0 0 0 0 
0 0 0 0 0 0 0 0 0 
0 0 0 0 0 0 0 0 0 
0 0 0 0 0 0 0 0 0 
0 0 0 0 0 0 0 0 0 
0 0 0 0 0 0 0 0 0 
0 0 0 0 0 0 0 0 0 
0 0 0 0 0 0 0 0 0 
0 0 0 0 0 0 0 0 0 
0 0 0 0 0 0 0 0 0 
0 0 0 0 0 0 0 0 0 
0 0 0 0 0 0 0 0 0 
0 0 0 0 0 0 0 0 0 
0 0 0 0 0 0 0 0 0 
0 0 0 0 0 0 0 0 0 
0 0 0 0 0 0 0 0 0 
0 0 0 0 0 0 0 0 0 
0 0 0 0 0 0 0 0 0 
0 0 0 0 0 0 0 0 0 
0 0 0 0 0 0 0 0 0 
0 0 0 0 0 0 0 0 0 
0 0 0 0 0 0 0 0 0 
0 0 0 0 0 0 0 0 0 
0 0 0 0 0 0 0 0 0 
0 0 0 0 0 0 0 0 0 
0 0 0 0 0 0 0 0 0 
0 0 0 0 0 0 0 0 0 
0 0 0 0 0 0 0 0 0 
0 0 0 0 0 0 0 0 0 
0 0 0 0 0 0 0 0 0 
0 0 0 
NORMALS Normals float
0.282205 0.642718 0.712232 0.144296 0.578958 0.802488 0.0566207 0.523234 0.850306 
-0.0124579 0.537646 0.843079 -0.0804731 0.602075 0.794374 -0.228963 0.678827 0.697689 
0.435591 0.36749 0.821712 0.197929 0.31485 0.928274 0.0727853 0.260747 0.962659 
0.0160457 0.167505 0.985741 0.0107904 0.202404 0.979243 -0.0282624 0.186826 0.981986 
-0.101616 0.285998 0.952827 -0.1617 0.44929 0.87863 -0.317135 0.577962 0.751922 
0.355611 0.113359 0.927734 0.172667 0.100804 0.979809 0.0223568 0.0502225 0.998488 
-0.00741889 0.0176749 0.999816 0.018616 0.00598276 0.999809 0.00716952 0.000941775 0.999974 
0.0235783 0.0459899 0.998664 -0.0598501 0.154308 0.986208 -0.167987 0.248187 0.954035 
-0.361798 0.406697 0.838868 0.364901 0.175292 0.914396 0.272914 0.0384722 0.961269 
0.140815 -0.0504716 0.988749 -0.0176139 -0.0513559 0.998525 -0.0318489 -0.0398768 0.998697 
-0.00625547 -0.0128209 0.999898 0.0165722 -0.0886304 0.995927 0.0677838 -0.0912152 0.993522 
0.0533195 -0.0420278 0.997693 -0.0353152 0.067745 0.997077 -0.257788 0.119141 0.958828 
-0.486654 0.262473 0.833232 0.252481 0.11772 0.960414 0.135533 -0.0300457 0.990317 
0.0936901 -0.130713 0.986983 0.0319886 -0.00284106 0.999484 0.0298688 0.039386 0.998778 
-0.0296087 -0.0108358 0.999503 -0.0739757 0.0775067 0.994244 0.0704877 -0.0775014 0.994497 
0.0977485 -0.0460844 0.994144 -0.0110103 -0.00799381 0.999907 -0.1671 0.0281965 0.985537 
-0.395875 0.126807 0.909507 0.353942 0.117098 0.927908 0.120048 0.0372296 0.99207 
0.0414156 -0.040421 0.998324 0.157278 -0.106403 0.981806 0.169883 0.0451713 0.984428 
-0.0453254 0.0880634 0.995083 0.0445587 -0.102148 0.993771 -0.0707379 0.172574 0.982453 
-0.0517538 0.0563618 0.997068 0.122199 0.028538 0.992095 0.0319254 0.0371945 0.998798 
-0.128074 0.0625632 0.989789 -0.348521 0.0872685 0.933229 0.320885 -0.050073 0.945794 
0.101964 -0.0347544 0.994181 -0.00593714 -0.0150962 0.999868 0.129174 -0.00611378 0.991603 
0.255488 -0.052117 0.965407 -0.107979 -0.0242254 0.993858 0.0619185 0.0095565 0.998035 
0.0625307 -0.0449713 0.997029 -0.0553125 0.118069 0.991464 0.0781573 0.0676582 0.994643 
0.0235948 0.0272902 0.999349 -0.113689 0.00613535 0.993497 -0.366801 -0.0434666 0.929283 
0.258406 -0.208927 0.943173 0.160991 -0.146712 0.97599 0.0704383 -0.0432328 0.996579 
0.142259 0.0673215 0.987537 0.150471 -0.0229239 0.988349 -0.00350072 -0.0462755 0.998923 
0.0347393 0.0793874 0.996238 0.072356 -0.046253 0.996306 0.0217678 0.0605331 0.997929 
0.0323322 0.0174485 0.999325 -0.0310764 -0.0369204 0.998835 -0.18723 -0.0868874 0.978466 
-0.451194 -0.219905 0.864908 0.249705 -0.203511 0.946694 0.194438 -0.11278 0.97441 
0.184381 -0.014979 0.982741 0.109953 -0.0346721 0.993332 0.0144308 -0.0469678 0.998792 
0.0445238 0.0011146 0.999008 0.0517532 -0.0502669 0.997394 0.00866401 -0.0599085 0.998166 
-0.021041 -0.115022 0.99314 -0.089524 -0.174796 0.980526 -0.293982 -0.331972 0.896309 
-0.535198 -0.442474 0.719569 0.256544 -0.302131 0.918097 0.224914 -0.210635 0.951339 
0.108277 -0.224939 0.968338 0.0311273 -0.214377 0.976255 0.029922 -0.216255 0.975878 
0.0114646 -0.240504 0.97058 -0.0462431 -0.276726 0.959836 -0.0991568 -0.354916 0.929625 
-0.248667 -0.495031 0.832532 -0.43327 -0.603564 0.669319 0.241812 -0.592465 0.768448 
0.101891 -0.593722 0.798193 0.0306357 -0.562295 0.826369 0.00501844 -0.56816 0.822903 
-0.0267438 -0.589516 0.807314 -0.107003 -0.635187 0.76491 -0.243905 -0.712779 0.657615 
0.282756 0.651822 0.703689 0.150938 0.673836 0.723299 0.0725093 0.681291 0.728413 
0.0460204 0.98779 0.148841 -0.0343909 0.701863 0.711481 -0.117705 0.737447 0.66507 
-0.237761 0.747087 0.620751 0.291191 0.647778 0.703982 0.462156 0.501933 0.731078 
0.482751 0.804321 0.346437 -0.272246 0.737825 0.617654 -0.291319 0.706421 0.64506 
-0.351784 0.8752 0.332075 -0.350278 0.71305 0.607343 0.521131 0.400923 0.753448 
0.67949 0.522507 0.515053 -0.414176 0.657788 0.629105 -0.465669 0.606793 0.64417 
-0.512796 0.754883 0.408891 0.678733 0.501127 0.536836 0.48756 0.273725 0.829072 
0.46432 0.2641 0.845375 0.51415 0.310924 0.79936 -0.598687 0.476481 0.643847 
-0.597324 0.427985 0.678258 -0.68893 0.553415 0.468088 0.415707 0.21819 0.882939 
0.516918 0.318558 0.794554 -0.6302 0.317817 0.708407 -0.863274 0.429695 0.264802 
0.64013 0.266401 0.7206 0.315474 0.25598 0.913756 0.317514 0.255026 0.913316 
0.317144 0.257562 0.912733 -0.643628 0.142094 0.752032 -0.792588 0.187654 0.580164 
0.456282 0.0852827 0.885739 0.619202 0.0600732 0.782931 -0.678349 0.0876283 0.729496 
-0.695629 0.0882578 0.712959 0.45191 0.00849429 0.892023 0.604123 0.0363468 0.796062 
-0.697592 -0.0938101 0.710328 -0.703537 -0.0948335 0.704302 0.363069 -0.187606 0.91268 
0.609864 -0.17063 0.773919 0.282945 -0.240194 0.928573 -0.669233 -0.249511 0.699908 
-0.814245 -0.308781 0.491588 0.725349 -0.438145 0.53094 0.283501 -0.231331 0.930652 
0.378952 -0.295961 0.876814 0.275657 -0.278584 0.920002 -0.577639 -0.465448 0.670591 
-0.557263 -0.503372 0.660359 0.561319 -0.573249 0.596914 0.284768 -0.337745 0.897126 
0.326321 -0.400161 0.856379 0.283544 -0.401954 0.870653 -0.317265 -0.671674 0.669475 
-0.453318 -0.617504 0.642799 -0.440874 -0.626545 0.642706 0.250834 -0.597435 0.761678 
0.326228 -0.689013 0.647176 0.240347 -0.615729 0.750407 0.106739 -0.682133 0.723396 
0.0337123 -0.686966 0.725907 0.000353537 -0.685866 0.727728 -0.0356888 -0.701877 0.711403 
-0.122311 -0.716168 0.687127 -0.251143 -0.718595 0.648497 -0.245062 -0.721391 0.647719 
-0.409118 -0.85279 0.324609 0.0453294 0.989854 0.134666 0.483836 0.837824 0.252889 
0.332391 0.921085 0.202779 0.0569108 0.988735 0.138435 0.181018 0.966047 0.184351 
0.00549185 0.990549 0.137052 0.0448045 0.994128 0.0985007 -0.088792 0.985799 0.142536 
-0.198445 0.975249 0.0975183 -0.295508 0.953165 0.0644275 -0.355196 0.933024 0.0574565 
0.525412 0.811323 0.256316 0.686947 0.628735 0.364412 -0.40053 0.914568 0.0560506 
-0.35793 0.884008 -0.300694 -0.437314 0.89743 0.0581048 -0.532445 0.843561 0.070046 
0.703204 0.583448 0.406315 0.68727 0.519165 0.508062 -0.589102 0.804718 0.0734054 
-0.700427 0.704956 0.111534 0.684477 0.514611 0.516398 -0.774105 0.616383 0.144339 
-0.869669 0.472805 0.141881 0.714413 0.441715 0.54268 0.730233 0.423867 0.535814 
0.766755 0.474319 0.43256 -0.881923 0.447483 0.148227 0.778552 0.325607 0.536505 
-0.935311 0.260844 0.239067 0.81203 0.144145 0.565534 0.994963 0.100229 0.00143738 
-0.963446 0.0956984 0.250228 0.856223 -0.0385678 0.515164 0.996921 -0.066252 -0.0419431 
-0.958961 -0.135241 0.249208 0.816036 -0.280566 0.505339 -0.915631 -0.347532 0.202092 
-0.844058 -0.510847 0.163101 0.757059 -0.439696 0.483248 0.744335 -0.459044 0.48502 
-0.787175 -0.599628 0.14423 -0.653995 -0.74248 0.144963 0.63212 -0.614719 0.471747 
0.581209 -0.669107 0.463132 0.437247 -0.798496 0.413785 -0.62319 -0.769066 0.142028 
-0.529752 -0.837213 0.135782 0.435194 -0.800424 0.412222 0.437615 -0.804678 0.401232 
0.32456 -0.861234 0.391071 0.191416 -0.933416 0.303469 0.109624 -0.95497 0.275706 
0.0398285 -0.959339 0.279431 -0.00189649 -0.959868 0.280447 -0.0622719 -0.963994 0.258529 
-0.184524 -0.953841 0.236935 -0.306857 -0.928595 0.208685 -0.455142 -0.875798 0.160697 
-0.427017 -0.887672 0.172322 0.0477332 -0.998521 0.0260191 -0.010742 -0.998553 0.0527009 
0.459718 0.861439 -0.215828 0.284272 0.912096 -0.295417 0.142174 0.942047 -0.303866 
0.0301382 0.941643 -0.335262 -0.106251 0.934135 -0.340738 -0.2412 0.886663 -0.394526 
-0.309853 0.866918 -0.390442 0.492799 0.844305 -0.210472 0.592273 0.79637 -0.122502 
0.436818 0.833353 -0.338692 0.224188 0.731402 -0.644043 -0.19084 0.67566 -0.712084 
-0.34386 0.849558 -0.400014 -0.284231 0.772771 -0.567483 -0.349392 0.843827 -0.407285 
-0.394632 0.821279 -0.412027 -0.490175 0.781028 -0.386942 0.658462 0.750638 -0.0544915 
0.706965 0.707219 0.00656087 -0.322253 0.689408 -0.648744 -0.494929 0.777789 -0.387414 
-0.490001 0.775079 -0.398937 -0.648027 0.674992 -0.352771 0.761042 0.644593 0.0729038 
0.814811 0.575929 0.0662497 -0.682144 0.647009 -0.340674 -0.614854 0.641636 -0.458538 
-0.832696 0.479872 -0.276297 0.853455 0.515731 0.0750753 -0.834046 0.478026 -0.275424 
-0.831705 0.478621 -0.281405 0.944675 0.327254 0.0222383 0.994297 0.106088 -0.0109121 
-0.921303 0.296303 -0.251803 -0.772169 0.296986 -0.561742 0.995057 0.0985855 -0.0119077 
0.994923 0.0978323 -0.0235898 -0.969206 0.107895 -0.221356 0.995553 -0.0670919 -0.0661229 
0.994401 -0.0815357 -0.0672277 0.994421 -0.0685475 -0.0801754 -0.960634 -0.156425 -0.229595 
0.957489 -0.280534 -0.0671954 -0.887716 -0.393715 -0.238639 -0.828549 -0.503432 -0.245076 
-0.804308 -0.390917 -0.447518 0.880555 -0.471459 -0.0484631 0.801527 -0.596639 -0.0397105 
-0.752955 -0.60833 -0.250985 -0.653288 -0.720012 -0.23409 0.738141 -0.673988 -0.0298013 
0.598149 -0.801067 -0.0225925 -0.616542 -0.753739 -0.227495 -0.55045 -0.807202 -0.213142 
-0.515514 -0.66532 -0.539996 0.491921 -0.870323 -0.0234785 0.414692 -0.909728 -0.0206174 
0.390899 -0.79608 -0.462012 0.274655 -0.958487 -0.0765997 0.151102 -0.983522 -0.0992588 
0.113556 -0.98863 -0.0985659 -0.0948173 -0.989793 -0.106391 -0.215357 -0.965669 -0.145274 
-0.334797 -0.927357 -0.167093 -0.467202 -0.86094 -0.201256 -0.451103 -0.869568 -0.200893 
-0.44939 -0.849921 -0.275104 0.0703873 -0.993284 -0.0918237 0.0507092 -0.994719 -0.0892329 
0.050648 -0.990053 -0.131264 -0.0914836 -0.990194 -0.105576 -0.0160367 -0.995865 -0.0894233 
-0.0166164 -0.990099 -0.139384 0.113429 0.650586 -0.750914 -0.00447449 0.657712 -0.753256 
-0.113206 0.616787 -0.778947 0.43144 0.710564 -0.55584 0.272863 0.659908 -0.700048 
0.144094 0.65569 -0.741153 0.189268 0.650297 -0.735725 0.107258 0.626631 -0.7719 
-0.00985119 0.614921 -0.788527 -0.133056 0.615672 -0.776688 -0.110813 0.5998 -0.792439 
-0.17448 0.593718 -0.785529 -0.214475 0.557848 -0.801752 -0.225016 0.580556 -0.782511 
0.44449 0.711935 -0.54367 0.57743 0.691548 -0.433976 0.413999 0.698858 -0.583269 
0.193406 0.552591 -0.810702 0.113599 0.416597 -0.901966 0.0483718 0.357347 -0.932718 
-0.0142503 0.34406 -0.93884 -0.0930517 0.335615 -0.937392 -0.139461 0.364981 -0.92051 
-0.174762 0.438871 -0.881391 -0.232331 0.583224 -0.778378 -0.218076 0.567462 -0.793996 
-0.281164 0.579402 -0.76501 -0.373228 0.543402 -0.751941 0.624182 0.652006 -0.430447 
0.779175 0.465125 -0.420173 0.531922 0.598053 -0.599493 0.20272 0.451767 -0.868799 
0.0504833 0.352345 -0.934508 0.0196483 0.244075 -0.969557 0.0133015 0.178578 -0.983836 
-0.0332608 0.206207 -0.977943 -0.102169 0.189915 -0.97647 -0.0755428 0.183659 -0.980083 
-0.0789676 0.280945 -0.95647 -0.119397 0.35007 -0.929083 -0.216992 0.434259 -0.874262 
-0.376798 0.543092 -0.750383 -0.370313 0.539825 -0.755948 -0.509288 0.469148 -0.721474 
0.795323 0.43529 -0.421882 0.764382 0.433492 -0.477289 0.366567 0.31291 -0.876194 
0.00331519 0.0929585 -0.995664 -0.11586 0.233776 -0.965363 -0.0449832 0.231731 -0.971739 
-0.0115717 0.196463 -0.980443 -0.0564138 0.249503 -0.966729 -0.12421 0.310172 -0.942531 
-0.260805 0.372148 -0.890779 -0.544798 0.431665 -0.71893 -0.489184 0.415118 -0.767056 
0.824741 0.245262 -0.509558 0.661004 0.210773 -0.720173 -0.234148 0.251209 -0.939185 
-0.660114 0.28694 -0.694201 -0.454704 0.260182 -0.851792 -0.726649 0.188045 -0.660773 
0.83569 0.0406588 -0.547695 0.580321 0.00309299 -0.814382 0.00882043 -0.0346515 -0.999361 
-0.424111 0.130388 -0.896175 -0.753571 0.119502 -0.646414 -0.718969 0.123491 -0.683984 
0.777172 -0.0827025 -0.62383 0.58774 -0.112714 -0.80116 -0.453077 -0.0665532 -0.888984 
-0.770246 -0.142102 -0.621714 -0.750756 -0.220878 -0.622558 -0.733303 -0.138697 -0.665605 
0.779224 -0.226057 -0.584558 0.594583 -0.21714 -0.774159 0.293387 -0.168275 -0.941067 
-0.693528 -0.357992 -0.625189 -0.537897 -0.288376 -0.792153 0.686652 -0.441132 -0.577851 
0.685626 -0.443031 -0.577616 0.68388 -0.440623 -0.581514 0.440837 -0.278175 -0.853394 
-0.513607 -0.660184 -0.548056 -0.408006 -0.425377 -0.807828 -0.614055 -0.526723 -0.587792 
-0.609004 -0.535702 -0.584925 -0.605136 -0.520881 -0.602074 0.598833 -0.578616 -0.553717 
0.55559 -0.628045 -0.544866 0.526877 -0.541623 -0.655015 0.381255 -0.764159 -0.520294 
0.322703 -0.442535 -0.836675 0.145178 -0.356969 -0.922766 0.00598779 -0.197504 -0.980284 
-0.187797 -0.449677 -0.873225 -0.511817 -0.662097 -0.547423 -0.417142 -0.725623 -0.547232 
-0.348511 -0.558797 -0.75252 0.360764 -0.774346 -0.519845 0.224271 -0.798584 -0.55854 
0.205806 -0.730223 -0.651474 0.162809 -0.826581 -0.538756 0.157216 -0.646287 -0.746724 
0.104498 -0.849394 -0.517311 0.0580119 -0.555733 -0.829334 0.0384712 -0.833404 -0.551324 
-0.00434247 -0.536583 -0.843836 -0.0244224 -0.833677 -0.551712 -0.00169748 -0.535497 -0.844535 
-0.108452 -0.819902 -0.562137 -0.0667067 -0.56637 -0.821447 -0.210109 -0.803924 -0.556382 
-0.178901 -0.651129 -0.737581 -0.34945 -0.767249 -0.537786 -0.320907 -0.778697 -0.53912 
-0.312258 -0.7474 -0.58642 0.144492 0.279017 -0.949353 0.0182347 0.271227 -0.962343 
-0.0401944 0.178205 -0.983172 -0.0173454 0.197874 -0.980074 0.20237 0.25248 -0.946203 
0.323739 0.221353 -0.919889 0.133214 0.227779 -0.964557 -0.00204701 0.207578 -0.978216 
-0.0103083 0.10123 -0.99481 -0.076261 0.138592 -0.987409 0.00204086 0.108675 -0.994075 
0.0141691 0.0950041 -0.995376 -0.0895725 0.223964 -0.970473 -0.00163896 0.193762 -0.981047 
-0.11125 0.214425 -0.970384 -0.0719993 0.241887 -0.96763 -0.0408853 0.200523 -0.978835 
-0.0181337 0.219404 -0.975466 -0.0796373 0.248822 -0.96527 0.397402 0.170218 -0.901719 
0.318801 0.142017 -0.937122 0.0619432 0.118289 -0.991045 -0.0567073 0.0784304 -0.995305 
-0.108733 0.0438685 -0.993103 0.0623554 0.102605 -0.992766 0.111714 0.117263 -0.986798 
-0.00156911 -0.0296799 -0.999558 -0.0539341 -0.00669967 -0.998522 -0.10472 0.241821 -0.964653 
-0.060028 0.205309 -0.976855 -0.00403388 0.207097 -0.978312 -0.148282 0.241917 -0.9589 
-0.06955 0.231249 -0.970406 -0.230318 0.199458 -0.952455 0.375755 -0.0254713 -0.926369 
0.24219 -0.0483648 -0.969023 0.087663 -0.0406961 -0.995319 -0.076507 -0.0265613 -0.996715 
-0.0529234 -0.00849118 -0.998562 0.0761225 0.0164721 -0.996962 -0.0100465 -0.0268842 -0.999588 
-0.105166 0.00402397 -0.994447 0.0287031 -0.017864 -0.999428 0.00937954 0.00386397 -0.999949 
0.150801 0.0739965 -0.985791 -0.0335106 0.156487 -0.987111 -0.0232099 0.169855 -0.985196 
-0.07498 0.147512 -0.986214 -0.284473 0.123729 -0.950666 -0.224754 0.125009 -0.966363 
0.291316 -0.148933 -0.944962 0.271546 -0.151737 -0.950389 0.269659 -0.145723 -0.951866 
0.0912636 -0.109371 -0.989802 -0.0266079 -0.0518172 -0.998302 -0.0665912 -0.00594939 -0.997763 
0.0817918 -0.0520088 -0.995292 0.0646021 -0.0796764 -0.994725 0.0179873 0.163497 -0.98638 
0.0797067 -0.0111895 -0.996756 0.0279149 0.0563108 -0.998023 -0.0203084 0.0797225 -0.99661 
-0.105866 0.0338557 -0.993804 -0.346897 -0.0220598 -0.937644 -0.239054 0.0151011 -0.970889 
0.214285 -0.114775 -0.970004 0.157642 -0.0807132 -0.984192 0.0265365 -0.0183295 -0.99948 
-0.0522672 0.00466413 -0.998622 -0.00168106 0.0110291 -0.999938 0.0985493 -0.0908628 -0.990975 
0.0768279 -0.0577337 -0.995371 0.057654 -0.0784163 -0.995252 0.0588417 -0.0542329 -0.996793 
-0.0447943 -0.0577353 -0.997326 -0.142425 -0.10955 -0.983724 -0.377359 -0.209194 -0.90213 
-0.345939 -0.27657 -0.896569 -0.311595 -0.186166 -0.9318 0.266241 -0.193993 -0.944184 
0.251747 -0.218172 -0.942881 0.239663 -0.183381 -0.95338 0.143727 -0.352679 -0.924641 
0.0657532 -0.107156 -0.992066 -0.0368772 -0.0655614 -0.997167 0.00597002 -0.197339 -0.980317 
-0.0127277 -0.0423962 -0.99902 -0.000155625 -0.0604471 -0.998171 0.0275692 -0.126131 -0.99163 
0.081006 -0.14333 -0.986354 0.0454267 -0.16658 -0.984981 -0.164443 -0.401354 -0.90104 
-0.0767383 -0.226395 -0.971008 -0.291111 -0.336252 -0.89565 -0.261493 -0.354672 -0.89768 
-0.24144 -0.297991 -0.92353 0.107632 -0.337572 -0.935126 0.00592444 -0.198658 -0.980051 
0.00441679 -0.286626 -0.958032 0.00186876 -0.280757 -0.959777 0.00601945 -0.197667 -0.980251 
0.0100721 -0.241981 -0.970229 0.0119999 -0.22609 -0.974033 -0.00606267 -0.236032 -0.971726 
-0.00760567 -0.217574 -0.976014 0.022299 -0.237795 -0.971059 0.0233994 -0.233147 -0.97216 
-0.111491 -0.392591 -0.91293 -0.0526015 -0.373348 -0.926199 -0.0316614 -0.335774 -0.94141 

