# vtk DataFile Version 4.2
vtk output
ASCII
DATASET POLYDATA
POINTS 570 float
39.2295 23.0713 -20.7986 -41.0719 -33.1396 -12.5825 -33.0418 -33.1396 -12.782 
-25.0116 -33.1396 -13.2894 -16.9815 -33.1396 -13.2946 -8.95137 -33.1396 -12.2029 
-49.1021 -25.1095 -12.2189 -41.0719 -25.1095 -13.3424 -33.0418 -25.1095 -14.3815 
-25.0116 -25.1095 -15.1814 -16.9815 -25.1095 -15.5946 -8.95137 -25.1095 -15.032 
-0.921229 -25.1095 -13.6269 7.10891 -25.1095 -12.1888 -49.1021 -17.0793 -12.4249 
-41.0719 -17.0793 -14.2281 -33.0418 -17.0793 -15.5205 -25.0116 -17.0793 -15.1935 
-16.9815 -17.0793 -15.707 -8.95137 -17.0793 -16.4946 -0.921229 -17.0793 -15.4184 
7.10891 -17.0793 -14.1983 15.139 -17.0793 -12.8275 23.1692 -17.0793 -13.8742 
31.1993 -17.0793 -14.6036 39.2295 -17.0793 -14.9636 47.2596 -17.0793 -14.4284 
-57.1322 -9.0492 -12.7781 -49.1021 -9.0492 -15.1 -41.0719 -9.0492 -15.6347 
-33.0418 -9.0492 -15.7839 -25.0116 -9.0492 -15.2773 -16.9815 -9.0492 -15.6367 
-8.95137 -9.0492 -18.108 -0.921229 -9.0492 -16.7268 7.10891 -9.0492 -18.4452 
15.139 -9.0492 -15.9346 23.1692 -9.0492 -16.5795 31.1993 -9.0492 -17.369 
39.2295 -9.0492 -17.7062 47.2596 -9.0492 -17.2125 55.2897 -9.0492 -16.0449 
63.3199 -9.0492 -12.897 -49.1021 -1.01907 -16.4897 -41.0719 -1.01907 -17.49 
-33.0418 -1.01907 -17.1924 -25.0116 -1.01907 -16.6146 -16.9815 -1.01907 -17.3932 
-8.95137 -1.01907 -19.444 -0.921229 -1.01907 -14.289 7.10891 -1.01907 -19.3654 
15.139 -1.01907 -16.9433 23.1692 -1.01907 -17.2254 31.1993 -1.01907 -18.3152 
39.2295 -1.01907 -18.9186 47.2596 -1.01907 -18.8532 55.2897 -1.01907 -17.4623 
63.3199 -1.01907 -13.6839 -57.1322 7.01107 -13.8593 -49.1021 7.01107 -16.9194 
-41.0719 7.01107 -18.4004 -33.0418 7.01107 -18.4642 -25.0116 7.01107 -17.5847 
-16.9815 7.01107 -15.919 -8.95137 7.01107 -17.6258 -0.921229 7.01107 -19.3498 
7.10891 7.01107 -17.7703 15.139 7.01107 -16.0415 23.1692 7.01107 -17.364 
31.1993 7.01107 -18.7347 39.2295 7.01107 -19.4122 47.2596 7.01107 -19.702 
55.2897 7.01107 -18.1998 63.3199 7.01107 -15.5679 -57.1322 15.0412 -14.8061 
-49.1021 15.0412 -17.476 -41.0719 15.0412 -18.8846 -33.0418 15.0412 -19.3339 
-25.0116 15.0412 -18.1616 -16.9815 15.0412 -16.8052 -8.95137 15.0412 -16.2153 
-0.921229 15.0412 -17.2188 7.10891 15.0412 -16.834 15.139 15.0412 -17.2577 
23.1692 15.0412 -18.4881 31.1993 15.0412 -19.0128 39.2295 18.514 -20.0033 
39.2295 15.0412 -19.472 47.2596 15.0412 -19.6932 55.2897 15.0412 -18.4301 
63.3199 15.0412 -14.4011 -57.1322 23.0713 -13.5235 -49.1021 23.0713 -17.8108 
-41.0719 23.0713 -19.6302 -33.0418 23.0713 -19.619 -25.0116 23.0713 -19.2904 
-16.9815 23.0713 -17.6098 -8.95137 23.0713 -16.4379 -0.921229 23.0713 -16.2771 
7.10891 23.0713 -17.0744 15.139 23.0713 -18.0616 23.1692 23.0713 -18.6009 
35.4403 23.0713 -20.0033 31.1993 23.0713 -19.2105 41.2204 23.0713 -20.0033 
39.2295 24.7231 -20.0033 47.2596 23.0713 -17.7344 55.2897 23.0713 -16.0377 
-57.1322 31.1015 -12.5563 -49.1021 31.1015 -16.8476 -41.0719 31.1015 -18.023 
-33.0418 31.1015 -19.2905 -25.0116 31.1015 -17.6673 -16.9815 31.1015 -16.1532 
-8.95137 31.1015 -14.9268 -0.921229 31.1015 -14.6651 7.10891 31.1015 -16.1124 
15.139 31.1015 -17.172 23.1692 31.1015 -17.8471 31.1993 31.1015 -18.7278 
39.2295 31.1015 -16.9322 47.2596 31.1015 -16.0943 55.2897 31.1015 -13.1939 
-49.1021 39.1316 -12.9457 -41.0719 39.1316 -15.0336 -33.0418 39.1316 -16.228 
-25.0116 39.1316 -13.5423 -16.9815 39.1316 -12.1194 15.139 39.1316 -13.229 
23.1692 39.1316 -13.6338 31.1993 39.1316 -13.5523 -41.0719 -34.1944 -11.9731 
-41.0719 -41.1698 -5.67783 -33.0418 -34.8496 -11.9731 -33.0418 -41.1698 -8.62712 
-25.0116 -36.0403 -11.9731 -25.0116 -41.1698 -8.76326 -16.9815 -35.6417 -11.9731 
-16.9815 -41.1698 -8.57776 -8.95137 -33.5677 -11.9731 -8.95137 -41.1698 -7.19364 
-0.921229 -41.1698 -6.07925 7.10891 -41.1698 -5.23462 15.139 -41.1698 -4.57508 
-42.4139 -33.1396 -11.9731 -49.1021 -25.7033 -11.9731 -49.1021 -33.1396 -7.42517 
-7.53971 -33.1396 -11.9731 -0.921229 -30.1286 -11.9731 -0.921229 -33.1396 -10.904 
7.10891 -25.8462 -11.9731 7.10891 -33.1396 -9.81878 15.139 -33.1396 -8.91639 
23.1692 -33.1396 -7.32567 31.1993 -33.1396 -5.86127 39.2295 -33.1396 -4.20267 
-49.5328 -25.1095 -11.9731 -57.1322 -25.1095 -4.84444 8.6695 -25.1095 -11.9731 
15.139 -21.0539 -11.9731 15.139 -25.1095 -11.1019 23.1692 -21.9013 -11.9731 
23.1692 -25.1095 -10.7321 31.1993 -23.6899 -11.9731 31.1993 -25.1095 -11.3968 
39.2295 -22.3007 -11.9731 39.2295 -25.1095 -10.2261 47.2596 -20.6356 -11.9731 
47.2596 -25.1095 -8.86896 55.2897 -25.1095 -4.51351 -50.3385 -17.0793 -11.9731 
-57.1322 -11.4063 -11.9731 -57.1322 -17.0793 -8.88293 55.0087 -17.0793 -11.9731 
55.2897 -16.9121 -11.9731 55.2897 -17.0793 -11.8892 63.3199 -10.7365 -11.9731 
63.3199 -17.0793 -7.00752 -58.1438 -9.0492 -11.9731 -57.1322 -1.77627 -11.9731 
64.6429 -9.0492 -11.9731 -56.9907 -1.01907 -11.9731 -57.1322 -0.540237 -11.9731 
-57.1322 -1.01907 -11.8648 65.8676 -1.01907 -11.9731 71.35 -1.01907 -6.22995 
-59.6377 7.01107 -11.9731 -65.1623 7.01107 -3.96348 68.2486 7.01107 -11.9731 
71.35 7.01107 -8.1419 -60.9057 15.0412 -11.9731 -65.1623 15.0412 -5.24196 
66.4082 15.0412 -11.9731 63.3199 21.9183 -11.9731 -59.0439 23.0713 -11.9731 
62.3824 23.0713 -11.9731 63.3199 23.0713 -10.8062 -57.8142 31.1015 -11.9731 
-57.1322 32.1701 -11.9731 -8.95137 35.8643 -11.9731 -0.921229 35.8042 -11.9731 
7.10891 38.9005 -11.9731 39.2295 38.1967 -11.9731 47.2596 35.6912 -11.9731 
56.8536 31.1015 -11.9731 55.2897 32.4726 -11.9731 -50.6607 39.1316 -11.9731 
-49.1021 40.1209 -11.9731 -41.0719 42.0138 -11.9731 -33.0418 42.4495 -11.9731 
-25.0116 40.6205 -11.9731 -16.5344 39.1316 -11.9731 -16.9815 39.2781 -11.9731 
-8.95137 39.1316 -7.28549 -0.921229 39.1316 -7.86269 7.91656 39.1316 -11.9731 
7.10891 39.1316 -11.6455 15.139 40.2643 -11.9731 23.1692 40.6785 -11.9731 
36.8373 39.1316 -11.9731 31.1993 40.6083 -11.9731 39.2295 39.1316 -9.33218 
-41.0719 -42.5291 -3.943 -33.0418 -45.1456 -3.943 -25.0116 -45.2073 -3.943 
-16.9815 -45.3678 -3.943 -8.95137 -44.5088 -3.943 -0.921229 -43.479 -3.943 
7.10891 -42.5157 -3.943 15.139 -41.8452 -3.943 -43.304 -41.1698 -3.943 
-49.1021 -36.7235 -3.943 17.6948 -41.1698 -3.943 23.1692 -38.9602 -3.943 
23.1692 -41.1698 -1.91568 31.1993 -35.4906 -3.943 31.1993 -41.1698 3.73718 
39.2295 -33.3531 -3.943 -52.4531 -33.1396 -3.943 -57.1322 -26.2565 -3.943 
39.7206 -33.1396 -3.943 47.2596 -29.7991 -3.943 55.2897 -25.5424 -3.943 
-57.7952 -25.1095 -3.943 55.8967 -25.1095 -3.943 63.3199 -19.6415 -3.943 
-60.6616 -17.0793 -3.943 65.617 -17.0793 -3.943 -62.7705 -9.0492 -3.943 
70.4714 -9.0492 -3.943 71.35 -5.98131 -3.943 -64.3982 -1.01907 -3.943 
-65.1623 6.91927 -3.943 72.5762 -1.01907 -3.943 71.35 -1.01907 2.57454 
-65.1703 7.01107 -3.943 -65.1623 7.01107 -3.91326 73.3427 7.01107 -3.943 
71.35 12.742 -3.943 -65.6449 15.0412 -3.943 -65.1623 17.8497 -3.943 
-65.1623 15.0412 -2.0744 70.508 15.0412 -3.943 -64.2651 23.0713 -3.943 
66.569 23.0713 -3.943 63.3199 26.5942 -3.943 63.3199 23.0713 2.7172 
-61.7667 31.1015 -3.943 -57.1322 37.0849 -3.943 47.2596 38.0552 -3.943 
58.8825 31.1015 -3.943 55.2897 33.9247 -3.943 55.2897 31.1015 2.5603 
-54.8733 39.1316 -3.943 -49.1021 42.6155 -3.943 -41.0719 45.0546 -3.943 
-33.0418 45.2311 -3.943 -25.0116 43.7332 -3.943 -16.9815 42.3495 -3.943 
-8.95137 40.5821 -3.943 -8.95137 39.1316 3.22505 -0.921229 40.8026 -3.943 
-0.921229 39.1316 3.10053 7.10891 41.7689 -3.943 15.139 42.1808 -3.943 
15.139 39.1316 3.96222 23.1692 42.2555 -3.943 23.1692 39.1316 3.46603 
31.1993 41.5402 -3.943 31.1993 39.1316 2.95096 43.6453 39.1316 -3.943 
39.2295 40.3382 -3.943 39.2295 39.1316 -1.06968 -41.0719 -44.0201 4.08714 
-33.0418 -46.9798 4.08714 -25.0116 -48.2246 4.08714 -16.9815 -48.7311 4.08714 
-8.95137 -48.9819 4.08714 -0.921229 -48.5028 4.08714 7.10891 -47.8676 4.08714 
15.139 -46.6082 4.08714 23.1692 -44.7069 4.08714 31.1993 -41.3477 4.08714 
-45.4586 -41.1698 4.08714 -49.1021 -37.9455 4.08714 -41.0719 -41.1698 9.5938 
31.5402 -41.1698 4.08714 31.1993 -41.1698 4.90642 39.2295 -37.1776 4.08714 
-53.0987 -33.1396 4.08714 -57.1322 -26.9664 4.08714 -49.1021 -33.1396 9.4263 
45.6938 -33.1396 4.08714 39.2295 -33.1396 9.83307 47.2596 -32.1253 4.08714 
55.2897 -26.4353 4.08714 -58.1156 -25.1095 4.08714 -57.1322 -25.1095 5.61194 
-49.1021 -25.1095 11.0112 47.2596 -25.1095 10.8845 56.8087 -25.1095 4.08714 
55.2897 -25.1095 5.84363 63.3199 -18.7639 4.08714 -59.7365 -17.0793 4.08714 
-57.1322 -17.0793 7.32723 -49.1021 -17.0793 11.6921 55.2897 -17.0793 11.3356 
64.7223 -17.0793 4.08714 63.3199 -17.0793 5.71098 -60.9903 -9.0492 4.08714 
-57.1322 -9.0492 8.46942 69.6822 -9.0492 4.08714 63.3199 -9.0492 10.6099 
-61.1439 -1.01907 4.08714 -57.1322 -1.01907 8.68578 70.9345 -1.01907 4.08714 
63.3199 -1.01907 11.6201 71.35 1.45499 4.08714 -62.0954 7.01107 4.08714 
-57.1322 7.01107 9.72599 63.3199 7.01107 10.8937 72.0002 7.01107 4.08714 
71.35 8.42636 4.08714 71.35 7.01107 4.86125 -62.998 15.0412 4.08714 
-57.1322 15.0412 10.9839 55.2897 15.0412 11.8166 67.8454 15.0412 4.08714 
63.3199 22.1411 4.08714 63.3199 15.0412 8.29634 -62.048 23.0713 4.08714 
-57.1322 23.0713 9.82711 47.2596 23.0713 11.0384 62.1479 23.0713 4.08714 
55.2897 29.7516 4.08714 55.2897 23.0713 8.0906 -58.9255 31.1015 4.08714 
-57.1322 33.992 4.08714 -57.1322 31.1015 6.13442 -49.1021 31.1015 11.7882 
-8.95137 38.9233 4.08714 -0.921229 38.8447 4.08714 7.10891 31.1015 11.4804 
15.139 39.0609 4.08714 15.139 31.1015 10.9674 23.1692 38.7632 4.08714 
23.1692 31.1015 10.5922 31.1993 38.5247 4.08714 31.1993 31.1015 9.79498 
39.2295 36.1878 4.08714 39.2295 31.1015 8.50796 53.7817 31.1015 4.08714 
47.2596 34.1435 4.08714 47.2596 31.1015 7.04507 -51.3261 39.1316 4.08714 
-49.1021 40.2864 4.08714 -49.1021 39.1316 5.56757 -41.0719 42.7577 4.08714 
-41.0719 39.1316 9.48045 -33.0418 42.7389 4.08714 -33.0418 39.1316 10.114 
-25.0116 42.1171 4.08714 -25.0116 39.1316 8.61431 -9.99974 39.1316 4.08714 
-16.9815 40.4004 4.08714 -16.9815 39.1316 5.98634 2.78808 39.1316 4.08714 
[...]
POINT_DATA 570
SCALARS ImageScalars float
LOOKUP_TABLE default
0 0 0 0 0 0 0 0 0 
0 0 0 0 0 0 0 0 0 
0 0 0 0 0 0 0 0 0 
0 0 0 0 0 0 0 0 0 
0 0 0 0 0 0 0 0 0 
0 0 0 0 0 0 0 0 0 
0 0 0 0 0 0 0 0 0 
0 0 0 0 0 0 0 0 0 
0 0 0 0 0 0 0 0 0 
0 0 0 0 0 0 0 0 0 
0 0 0 0 0 0 0 0 0 
0 0 0 0 0 0 0 0 0 
0 0 0 0 0 0 0 0 0 
0 0 0 0 0 0 0 0 0 
0 0 0 0 0 0 0 0 0 
0 0 0 0 0 0 0 0 0 
0 0 0 0 0 0 0 0 0 
0 0 0 0 0 0 0 0 0 
0 0 0 0 0 0 0 0 0 
0 0 0 0 0 0 0 0 0 
0 0 0 0 0 0 0 0 0 
0 0 0 0 0 0 0 0 0 
0 0 0 0 0 0 0 0 0 
0 0 0 0 0 0 0 0 0 
0 0 0 0 0 0 0 0 0 
0 0 0 0 0 0 0 0 0 
0 0 0 0 0 0 0 0 0 
0 0 0 0 0 0 0 0 0 
0 0 0 0 0 0 0 0 0 
0 0 0 0 0 0 0 0 0 
0 0 0 0 0 0 0 0 0 
0 0 0 0 0 0 0 0 0 
0 0 0 0 0 0 0 0 0 
0 0 0 0 0 0 0 0 0 
0 0 0 0 0 0 0 0 0 
0 0 0 0 0 0 0 0 0 
0 0 0 0 0 0 0 0 0 
0 0 0 0 0 0 0 0 0 
0 0 0 0 0 0 0 0 0 
0 0 0 0 0 0 0 0 0 
0 0 0 0 0 0 0 0 0 
0 0 0 0 0 0 0 0 0 
0 0 0 0 0 0 0 0 0 
0 0 0 0 0 0 0 0 0 
0 0 0 0 0 0 0 0 0 
0 0 0 0 0 0 0 0 0 
0 0 0 0 0 0 0 0 0 
0 0 0 0 0 0 0 0 0 
0 0 0 0 0 0 0 0 0 
0 0 0 0 0 0 0 0 0 
0 0 0 0 0 0 0 0 0 
0 0 0 0 0 0 0 0 0 
0 0 0 0 0 0 0 0 0 
0 0 0 0 0 0 0 0 0 
0 0 0 0 0 0 0 0 0 
0 0 0 0 0 0 0 0 0 
0 0 0 0 0 0 0 0 0 
0 0 0 0 0 0 0 0 0 
0 0 0 0 0 0 0 0 0 
0 0 0 0 0 0 0 0 0 
0 0 0 0 0 0 0 0 0 
0 0 0 0 0 0 0 0 0 
0 0 0 0 0 0 0 0 0 
0 0 0 
NORMALS Normals float
-0.0883514 -0.140952 0.986066 0.256406 0.359117 0.89738 0.0450763 0.313512 0.948514 
0.0279217 0.329358 0.943792 -0.0616286 0.378368 0.923601 -0.135764 0.410357 0.901762 
0.382489 0.24209 0.891681 0.160009 0.121746 0.979579 0.110355 0.158219 0.981218 
0.0706929 0.107149 0.991727 -0.00646296 0.138877 0.990289 -0.120745 0.251029 0.960419 
-0.165113 0.258622 0.951763 -0.152111 0.250004 0.956222 0.272967 0.201937 0.94059 
0.16668 0.128963 0.977541 0.0590514 0.0867098 0.994482 0.0122762 0.0060878 0.999906 
0.0817862 0.00280726 0.996646 -0.0155462 0.181504 0.983267 -0.137491 0.189571 0.972193 
-0.15589 0.347561 0.924608 -0.0164187 0.279218 0.960087 0.102459 0.349003 0.931504 
0.0648096 0.364983 0.928756 -0.00663275 0.422193 0.906482 -0.162243 0.444488 0.880969 
0.549328 0.134704 0.824678 0.185027 0.232238 0.954898 0.0468233 0.201817 0.978303 
-0.0224097 0.103018 0.994427 -0.0103085 0.087943 0.996072 0.18102 0.0985665 0.978528 
0.0634234 0.176732 0.982213 0.0107231 -0.0502355 0.99868 -0.042572 0.307357 0.950641 
-0.102062 0.260836 0.959973 0.0871598 0.203085 0.975274 0.0687437 0.213034 0.974623 
-0.00835221 0.232295 0.972609 -0.0911968 0.241798 0.966032 -0.266864 0.329726 0.905574 
-0.479471 0.285798 0.829715 0.26955 0.11664 0.955896 0.050066 0.172895 0.983667 
-0.0532294 0.164591 0.984925 0.00707109 0.143623 0.989607 0.174318 0.0149596 0.984576 
-0.17494 -0.00728246 0.984552 -0.0105785 0.14071 0.989994 0.125248 -0.0418302 0.991243 
-0.117969 0.00171044 0.993016 0.0847736 0.0474484 0.99527 0.104485 0.0837327 0.990995 
0.0333865 0.104562 0.993958 -0.0985652 0.149708 0.983805 -0.265746 0.119762 0.956575 
-0.514664 0.142091 0.845536 0.526584 0.154799 0.835911 0.243492 0.063043 0.967852 
0.0883996 0.084546 0.992491 -0.0505017 0.133488 0.989763 -0.15532 0.0958088 0.983207 
-0.0239923 -0.0275207 0.999333 0.220411 -0.208421 0.95288 -0.00616286 0.14242 0.989787 
-0.205406 -0.149807 0.967143 -0.0138712 0.0206802 0.99969 0.16904 0.0793243 0.982412 
0.126447 0.0430499 0.991039 0.0593094 0.0341343 0.997656 -0.0931877 0.051987 0.99429 
-0.205521 0.0566207 0.977013 -0.46406 0.0256394 0.885433 0.509184 -0.0196767 0.860433 
0.226137 0.0568229 0.972437 0.106157 0.0726636 0.991691 -0.0418923 0.0711278 0.996587 
-0.154896 0.0974567 0.983112 -0.119966 0.102529 0.987469 0.0253115 -0.0540257 0.998219 
0.0406615 -0.18085 0.98267 0.00274166 -0.037335 0.999299 0.102255 0.125823 0.986769 
0.108939 0.0765414 0.991097 0.0634458 0.0304296 0.997521 -0.0118638 -0.0133473 0.999841 
0.0412064 0.07585 0.996267 -0.0516384 -0.121464 0.991252 -0.327084 -0.0974484 0.939957 
-0.530505 -0.206386 0.822173 0.606503 -0.120738 0.785861 0.295772 -0.0250991 0.954929 
0.132134 -0.0427149 0.990311 -0.0186659 -0.00101184 0.999825 -0.130271 -0.0277202 0.991091 
-0.163716 -0.0339421 0.985923 -0.0840742 -0.0816791 0.993106 0.0391547 -0.147002 0.988361 
0.110929 -0.0397755 0.993032 0.0950183 -0.00166785 0.995474 0.0706273 -0.0414042 0.996643 
0.019068 -0.0782628 0.99675 0.125564 -0.0125076 0.992007 -0.13223 -0.151426 0.979584 
-0.0961157 -0.205671 0.97389 -0.255477 -0.188232 0.948314 -0.380886 -0.338377 0.860481 
0.624133 -0.311499 0.716537 0.315335 -0.279819 0.906789 0.135341 -0.237104 0.962011 
-0.0258024 -0.14395 0.989249 -0.180327 -0.276139 0.944049 -0.175233 -0.3108 0.934182 
-0.0880412 -0.370746 0.924552 0.0683679 -0.358542 0.931007 0.148026 -0.277492 0.949256 
0.110582 -0.267556 0.957176 0.0852752 -0.26403 0.960737 -0.0481497 -0.35518 0.933557 
-0.136119 -0.463085 0.875799 -0.255216 -0.472033 0.84383 -0.489332 -0.577 0.65393 
0.390622 -0.636863 0.664695 0.172934 -0.588991 0.78942 -0.0757893 -0.633154 0.770306 
-0.196433 -0.683714 0.702815 -0.219248 -0.709666 0.669555 0.103568 -0.74864 0.654837 
0.0177573 -0.759694 0.650039 -0.110757 -0.771699 0.626269 0.283982 0.401914 0.870528 
0.44023 0.727513 0.526234 0.0600186 0.37215 0.92623 0.144737 0.668479 0.729511 
0.0190788 0.441694 0.896963 -0.00263211 0.689066 0.724693 -0.0741269 0.446378 0.891769 
-0.0766413 0.653281 0.753226 -0.135432 0.420626 0.897069 -0.124464 0.641743 0.756752 
-0.0945739 0.632174 0.769033 -0.0796904 0.640687 0.763655 -0.138909 0.655239 0.74254 
0.322567 0.40132 0.857259 0.403721 0.268513 0.874592 0.605461 0.560155 0.565371 
-0.135928 0.40861 0.90253 -0.148784 0.345061 0.926713 -0.135225 0.403222 0.905056 
-0.149754 0.257726 0.954542 -0.116173 0.365843 0.923398 -0.144633 0.370113 0.917659 
-0.163118 0.45905 0.873308 -0.156741 0.613676 0.773844 -0.269334 0.763126 0.58745 
0.398488 0.257142 0.880389 0.776241 0.466634 0.423914 -0.140149 0.247133 0.958793 
-0.0506167 0.256146 0.965312 -0.0892085 0.23689 0.967432 0.0494244 0.36108 0.931224 
0.0137179 0.369628 0.929078 -0.00434491 0.415727 0.909479 -0.0222415 0.435249 0.900035 
-0.0878589 0.488654 0.868043 -0.134411 0.542058 0.829522 -0.181109 0.534047 0.825829 
-0.236965 0.677445 0.696359 -0.491674 0.791883 0.362185 0.31229 0.224428 0.923097 
0.558298 0.188181 0.808017 0.668072 0.354594 0.654173 -0.310823 0.479418 0.820699 
-0.314305 0.477696 0.820377 -0.317596 0.482606 0.816226 -0.509163 0.337106 0.791905 
-0.679256 0.59843 0.424844 0.615683 0.139475 0.775552 0.584897 0.0436283 0.809933 
-0.528993 0.313949 0.788417 0.581788 0.0360635 0.812541 0.583225 0.0419653 0.811226 
0.591286 0.0367069 0.805626 -0.607709 0.144514 0.780901 -0.931554 0.187907 0.311285 
0.614669 0.142512 0.775804 0.995186 0.0745686 0.0635995 -0.696524 -0.0105043 0.717456 
-0.916139 -0.103278 0.387327 0.655583 -0.0309572 0.754489 0.987227 -0.0563578 0.149016 
-0.685738 -0.246092 0.684984 -0.623259 -0.447294 0.641464 0.702526 -0.131884 0.699331 
-0.609971 -0.468381 0.639183 -0.665229 -0.52196 0.53388 0.658445 -0.320363 0.681042 
0.642455 -0.359456 0.676789 -0.11189 -0.629688 0.768748 0.0999018 -0.596265 0.796547 
0.192314 -0.737078 0.647866 -0.245579 -0.815877 0.523485 -0.325254 -0.746259 0.580781 
-0.5724 -0.597942 0.561092 -0.506264 -0.645858 0.571458 0.441398 -0.659512 0.608451 
0.390164 -0.702934 0.59469 0.141406 -0.769461 0.622843 -0.0783817 -0.819395 0.567846 
-0.179212 -0.773428 0.608023 -0.21311 -0.716312 0.66444 -0.219312 -0.71708 0.661588 
-0.111014 -0.932473 0.343758 0.107134 -0.915832 0.387007 0.184288 -0.751167 0.633865 
0.189684 -0.765792 0.614478 0.102332 -0.816335 0.568442 0.0210154 -0.848698 0.52846 
-0.216468 -0.835711 0.504707 -0.129875 -0.848932 0.512297 -0.245793 -0.927358 0.282122 
0.436277 0.790437 0.429966 0.161841 0.868598 0.468343 0.0127989 0.848121 0.529647 
-0.0334813 0.826399 0.562089 -0.0976373 0.739676 0.665843 -0.0945698 0.701786 0.706083 
-0.0810103 0.686047 0.723033 -0.140709 0.68351 0.716251 0.486472 0.751322 0.445937 
0.610099 0.664924 0.430878 -0.170814 0.670815 0.721685 -0.235936 0.62254 0.746176 
-0.275683 0.750866 0.600166 -0.234981 0.647309 0.725104 -0.437424 0.886403 0.151494 
-0.274044 0.770768 0.575166 0.710589 0.570106 0.412362 0.793479 0.474579 0.381005 
-0.277463 0.773212 0.570226 -0.356643 0.799568 0.483215 -0.504623 0.792679 0.342077 
0.811604 0.45809 0.362564 -0.512154 0.79441 0.326513 -0.685424 0.692498 0.225032 
0.912329 0.315208 0.261342 -0.758413 0.604478 0.243753 0.962001 0.228304 0.149773 
-0.890477 0.406033 0.205396 -0.928488 0.319052 0.190041 0.982169 0.152257 0.110278 
0.995196 0.0753095 0.0625512 -0.974282 0.166353 0.15199 -0.915974 0.143973 -0.374517 
0.99529 0.0744445 0.0620914 0.995413 0.0744657 0.060066 -0.986001 -0.120323 0.115435 
-0.954603 -0.284582 0.0880085 0.996936 -0.0558988 0.0547123 0.99278 -0.105687 0.0567225 
0.996114 -0.0565271 -0.0675371 -0.93094 -0.359407 0.0646292 0.975134 -0.208606 0.0748103 
-0.806952 -0.590382 0.0166214 -0.747345 -0.663607 -0.0331877 -0.644948 -0.694276 -0.31941 
0.863338 -0.502058 0.0508424 0.737804 -0.672645 0.0565198 -0.372825 -0.920564 -0.116461 
-0.644767 -0.758867 -0.0916274 -0.542357 -0.833108 -0.108533 -0.538955 -0.674859 -0.504077 
0.635348 -0.771062 0.0423882 0.401088 -0.916022 0.00557844 0.151272 -0.988419 0.0120338 
-0.0811553 -0.996698 0.00242609 -0.177524 -0.982776 0.0513477 -0.198819 -0.97894 0.0463297 
-0.0961854 -0.989633 0.106655 -0.0913713 -0.93324 -0.347439 0.0746135 -0.9939 0.0812151 
0.0351396 -0.926786 -0.373943 0.0853844 -0.996307 0.00909873 0.030746 -0.996988 -0.0711986 
-0.0337909 -0.835822 -0.54796 -0.0404882 -0.993532 -0.106087 -0.0237967 -0.840496 -0.541294 
-0.117417 -0.989402 -0.0854268 -0.129017 -0.830099 -0.542485 -0.294776 -0.948609 -0.115101 
-0.205821 -0.973557 -0.0991134 -0.225351 -0.936457 -0.268823 0.468106 0.874078 -0.129862 
0.263469 0.96057 -0.0888203 0.106277 0.993436 0.0423171 0.0468545 0.99255 0.112471 
-0.0137671 0.987778 0.155259 -0.0716208 0.976039 0.205473 -0.122125 0.971048 0.205307 
-0.212425 0.956656 0.199209 -0.31787 0.928779 0.190599 -0.437375 0.889974 0.129032 
0.575838 0.800259 -0.167319 0.689263 0.690218 -0.220262 0.472513 0.678389 -0.562601 
-0.439913 0.888801 0.128489 -0.447385 0.890487 0.0829473 -0.519855 0.85422 0.00762049 
0.802656 0.531332 -0.27098 0.857534 0.413648 -0.305827 0.648077 0.399801 -0.648194 
-0.53486 0.841213 -0.0792787 -0.526658 0.625197 -0.575986 -0.538067 0.836309 -0.105222 
-0.656139 0.714324 -0.243355 0.878704 0.372444 -0.298606 0.836138 0.376904 -0.398519 
0.546047 0.111291 -0.83033 -0.425976 0.426361 -0.797973 -0.66842 0.698776 -0.254809 
-0.64848 0.686301 -0.329338 -0.6868 0.622297 -0.375568 0.905725 0.19294 -0.377408 
0.755273 0.156575 -0.636433 0.416174 0.0677138 -0.90676 -0.432318 0.333931 -0.837611 
-0.720894 0.584924 -0.37172 -0.661899 0.578868 -0.476237 0.900394 0.085691 -0.426553 
0.603509 0.06649 -0.794579 -0.869626 0.315877 -0.379437 -0.568335 0.291287 -0.769511 
0.816875 0.0568691 -0.574004 0.666505 0.0564533 -0.74336 -0.860889 0.123352 -0.493614 
-0.533801 0.0172166 -0.845435 -0.86144 0.0367513 -0.506527 0.823271 0.0864418 -0.561028 
0.637326 0.0892052 -0.765413 -0.549046 -0.201031 -0.811256 -0.842591 -0.175696 -0.509089 
-0.833848 -0.222363 -0.505225 -0.805303 -0.167009 -0.568855 0.849751 -0.0174072 -0.526896 
0.624829 -0.00995633 -0.780698 -0.324274 -0.280523 -0.903412 -0.781812 -0.380859 -0.493676 
-0.620422 -0.659584 -0.424293 -0.550531 -0.250685 -0.796287 0.855452 -0.196313 -0.479232 
0.647698 -0.19782 -0.735768 -0.233605 -0.385856 -0.892493 -0.590011 -0.674212 -0.444213 
-0.508636 -0.611363 -0.606238 -0.315771 -0.511672 -0.79905 0.755257 -0.453991 -0.472735 
0.693325 -0.543377 -0.473331 0.678853 -0.454704 -0.576543 0.405636 -0.418725 -0.812483 
-0.0894749 -0.910371 -0.404003 0.026463 -0.896786 -0.441673 -0.0606133 -0.534652 -0.842896 
-0.0347503 -0.830151 -0.556455 -0.04647 -0.549011 -0.834523 -0.0228228 -0.812935 -0.581907 
-0.060875 -0.54119 -0.838694 -0.126797 -0.770662 -0.624502 -0.110213 -0.532452 -0.839254 
-0.205335 -0.742245 -0.637895 -0.147673 -0.571697 -0.807066 -0.474524 -0.642604 -0.60157 
-0.297705 -0.714253 -0.633415 -0.267618 -0.640701 -0.719641 0.457425 -0.754901 -0.469986 
0.375749 -0.794782 -0.476586 0.385519 -0.757145 -0.527359 0.136234 -0.895761 -0.423145 
0.190973 -0.698566 -0.68959 -0.0403191 -0.897675 -0.43881 -0.0357501 -0.762372 -0.646151 
-0.132373 -0.917412 -0.375277 -0.154315 -0.785446 -0.599384 -0.103122 -0.908498 -0.404966 
-0.191024 -0.885846 -0.422832 -0.186797 -0.842709 -0.504925 0.0211076 -0.87939 -0.475634 
-0.0277115 -0.834782 -0.549883 0.0122987 -0.855775 -0.517201 0.0102237 -0.845034 -0.534616 
0.341683 0.633993 -0.693762 0.222714 0.808787 -0.5443 0.109782 0.866703 -0.486595 
0.0291862 0.896954 -0.44116 -0.059425 0.901638 -0.42839 -0.132001 0.86968 -0.475639 
-0.220381 0.858876 -0.462347 -0.310422 0.790347 -0.528195 0.377809 0.587872 -0.715309 
0.417876 0.466844 -0.779382 0.34035 0.576894 -0.742533 0.224239 0.51618 -0.826604 
0.10423 0.504635 -0.857018 0.00929047 0.468625 -0.883348 -0.0704516 0.465006 -0.8825 
-0.0969033 0.514813 -0.851808 -0.18158 0.53066 -0.827906 -0.407294 0.756586 -0.511556 
-0.287309 0.657478 -0.696546 -0.493605 0.656149 -0.570808 0.477001 0.323127 -0.817349 
0.3887 0.302876 -0.87016 0.25088 0.225167 -0.941467 0.218257 0.173264 -0.960387 
-0.0670286 0.128225 -0.989477 -0.0608006 0.135016 -0.988976 -0.15199 0.129267 -0.979892 
-0.235088 0.199865 -0.951203 -0.475116 0.455943 -0.752583 -0.385567 0.246994 -0.889006 
-0.420939 0.430326 -0.798518 0.49126 0.0804767 -0.867287 0.360254 0.0453577 -0.931751 
0.242655 0.0412151 -0.969237 0.186674 0.0142897 -0.982318 -0.0849683 -0.0481333 -0.99522 
-0.107576 -0.0963167 -0.98952 -0.162582 -0.0603643 -0.984847 -0.201569 0.0422133 -0.978564 
-0.367476 0.346838 -0.86294 -0.2738 0.235217 -0.932581 -0.351691 0.350478 -0.868032 
0.395824 0.0485024 -0.917045 0.372081 0.0688043 -0.925647 0.318181 -0.0206769 -0.947804 
0.203458 -0.0558105 -0.977492 0.17609 -0.0886031 -0.980378 -0.103241 -0.0578843 -0.992971 
-0.0966897 0.017258 -0.995165 -0.144204 -0.115433 -0.982792 -0.0953322 -0.10622 -0.989762 
-0.0623571 0.0305304 -0.997587 -0.0704111 0.136486 -0.988137 -0.384601 0.304322 -0.871476 
-0.250018 0.269504 -0.929978 -0.369433 0.260215 -0.89208 0.370026 0.0696395 -0.926408 
0.369875 0.0691643 -0.926504 0.264648 0.0164545 -0.964205 0.171595 -0.0183938 -0.984996 
0.185614 -0.0379393 -0.98189 0.155954 -0.0837271 -0.984209 -0.0512864 0.0059351 -0.998666 
-0.136509 0.053365 -0.9892 -0.240517 0.0748828 -0.967752 -0.0161173 0.0457246 -0.998824 
0.048534 0.0878101 -0.994954 -0.0776689 0.0905003 -0.992863 -0.18594 0.074912 -0.979701 
-0.392034 0.226547 -0.89162 -0.244926 0.166056 -0.955216 0.416576 0.105579 -0.90295 
0.344391 0.106189 -0.932802 0.237094 0.0874145 -0.967546 0.163348 0.116428 -0.979674 
0.106994 0.0636971 -0.992217 0.0555325 -0.107222 -0.992683 0.0189204 -0.235268 -0.971746 
0.0184781 0.0645899 -0.997741 -0.015687 -0.161912 -0.98668 -0.150673 0.0871904 -0.984731 
-0.0781788 0.0962728 -0.99228 -0.016826 0.0319199 -0.999349 -0.0782249 0.00307206 -0.996931 
-0.143919 0.0176252 -0.989432 -0.487942 0.0195988 -0.872656 -0.274999 0.0204761 -0.961226 
0.497722 0.102053 -0.861312 0.382293 0.114715 -0.916893 0.270949 0.150913 -0.95069 
0.145796 0.176559 -0.973432 -0.0429689 0.0919793 -0.994833 -0.136747 -0.0355317 -0.989969 
0.133891 -0.0926257 -0.986658 -0.108517 -0.119032 -0.986942 0.00808359 -0.0827642 -0.996536 
-0.0810883 -0.0295099 -0.99627 -0.0433853 -0.0918754 -0.994825 -0.0901093 -0.0984891 -0.99105 
-0.171061 -0.101611 -0.980007 -0.428309 -0.191098 -0.883195 -0.314102 -0.25429 -0.9147 
-0.238737 -0.144392 -0.960289 0.561423 -0.0102261 -0.827466 0.392024 0.0426919 -0.918964 
0.295714 0.0364454 -0.954581 0.0970322 -0.0148462 -0.995171 -0.101215 -0.0230493 -0.994598 
-0.134009 -0.0609729 -0.989103 0.0214134 -0.0419021 -0.998892 -0.0162761 -0.285942 -0.958109 
-0.0709081 -0.120507 -0.990177 -0.0404934 -0.193086 -0.980346 -0.095622 -0.170349 -0.980733 
-0.084882 -0.198257 -0.976468 -0.0929558 -0.231751 -0.968324 -0.308949 -0.275749 -0.910227 
-0.217501 -0.35066 -0.910896 -0.198948 -0.273243 -0.941147 0.520415 -0.19506 -0.831336 
0.405019 -0.390294 -0.826819 0.416619 -0.163057 -0.894338 0.221797 -0.152315 -0.963123 
0.0791865 -0.236349 -0.968436 -0.0927055 -0.241467 -0.965971 -0.150784 -0.240033 -0.958983 
-0.0847797 -0.267658 -0.959777 -0.051865 -0.355432 -0.933262 -0.057094 -0.49921 -0.864598 
-0.033358 -0.3301 -0.943356 -0.0441778 -0.493683 -0.868519 -0.0359946 -0.357056 -0.933389 
-0.0736252 -0.46177 -0.883939 -0.0846847 -0.333445 -0.938958 -0.107012 -0.411117 -0.90528 
-0.104359 -0.335372 -0.936288 -0.18353 -0.37462 -0.908833 -0.153848 -0.401646 -0.90278 
-0.152661 -0.364152 -0.918743 0.385031 -0.4154 -0.824132 0.222354 -0.537656 -0.813317 
0.215742 -0.416935 -0.882961 -0.0231203 -0.66184 -0.749289 0.00320184 -0.447449 -0.894304 
-0.148168 -0.611114 -0.777551 -0.100888 -0.49658 -0.862108 -0.140831 -0.595005 -0.791287 
-0.134394 -0.526073 -0.839753 -0.083555 -0.568167 -0.81866 -0.0855124 -0.541767 -0.836167 
-0.0622994 -0.532209 -0.844318 -0.0622936 -0.535924 -0.841965 -0.0625996 -0.532411 -0.844168 
0.113857 0.180845 -0.976899 -0.020643 0.179164 -0.983603 0.130499 0.147154 -0.980467 
0.115415 0.144479 -0.982754 -0.056258 0.133004 -0.989518 -0.0211814 0.14816 -0.988737 
-0.0786857 -0.0270057 -0.996534 0.123847 -0.00225984 -0.992299 0.0757811 -0.0136188 -0.997031 
-0.0272939 -0.00735784 -0.9996 -0.0813081 -0.0648842 -0.994575 -0.081622 -0.0652674 -0.994524 
-0.081213 -0.0654492 -0.994546 0.0967622 -0.0483407 -0.994133 0.100182 -0.0504163 -0.993691 
0.0951546 -0.0474891 -0.994329 -0.0764272 -0.0143729 -0.996972 -0.0731165 -0.00928691 -0.99728 
0.0770813 -0.0789748 -0.993892 -0.0399571 -0.0460336 -0.99814 -0.020463 -0.119164 -0.992664 
-0.0371819 -0.0704923 -0.996819 0.0200458 -0.00567713 -0.999783 0.0275571 -0.0259043 -0.999285 
0.010293 -0.0288 -0.999532 0.0152283 -0.0559131 -0.99832 0.0181495 -0.0198445 -0.999638 

