# vtk DataFile Version 4.2
vtk output
ASCII
DATASET POLYDATA
POINTS 532 float
-19.5098 -37.1294 -14.6702 -11.8844 -37.1294 -15.4578 -4.2591 -37.1294 -15.2325 
3.36623 -37.1294 -14.8968 10.9916 -37.1294 -14.3745 -34.7604 -29.5041 -14.9331 
-27.1351 -29.5041 -17.5452 -19.5098 -29.5041 -18.9482 -11.8844 -29.5041 -18.7357 
-4.2591 -29.5041 -17.6363 3.36623 -29.5041 -16.7825 10.9916 -29.5041 -16.4562 
18.6169 -29.5041 -15.7048 26.2422 -29.5041 -14.4689 -42.3857 -21.8788 -15.1143 
-34.7604 -21.8788 -17.8285 -27.1351 -21.8788 -19.1791 -19.5098 -21.8788 -20.1861 
-11.8844 -21.8788 -19.6417 -4.2591 -21.8788 -18.2338 3.36623 -21.8788 -16.3839 
10.9916 -21.8788 -16.6601 18.6169 -21.8788 -16.681 26.2422 -21.8788 -16.0727 
33.8675 -21.8788 -14.4094 -42.3857 -14.2535 -17.4943 -34.7604 -14.2535 -19.3333 
-27.1351 -14.2535 -19.5775 -19.5098 -14.2535 -19.2978 -11.8844 -14.2535 -18.9686 
-4.2591 -14.2535 -18.2956 3.36623 -14.2535 -15.5373 10.9916 -14.2535 -15.5105 
18.6169 -14.2535 -16.1243 26.2422 -14.2535 -16.147 33.8675 -14.2535 -15.7038 
41.4929 -14.2535 -14.6757 -50.0111 -6.62814 -14.8019 -42.3857 -6.62814 -18.1989 
-34.7604 -6.62814 -19.6781 -27.1351 -6.62814 -19.6881 -19.5098 -6.62814 -18.2441 
-11.8844 -6.62814 -17.8978 -4.2591 -6.62814 -19.5544 3.36623 -6.62814 -17.4317 
10.9916 -6.62814 -16.334 18.6169 -6.62814 -14.9299 26.2422 -6.62814 -15.0914 
33.8675 -6.62814 -15.3077 41.4929 -6.62814 -14.4756 -50.0111 0.997188 -14.6834 
-42.3857 0.997188 -17.9811 -34.7604 0.997188 -19.846 -27.1351 0.997188 -19.1128 
-19.5098 0.997188 -18.5512 -11.8844 0.997188 -20.3324 -4.2591 0.997188 -19.8343 
3.36623 0.997188 -16.8541 10.9916 0.997188 -17.9592 26.2422 0.997188 -14.6487 
33.8675 0.997188 -15.238 41.4929 0.997188 -14.8727 -42.3857 8.62251 -16.7497 
-34.7604 8.62251 -18.1978 -27.1351 8.62251 -18.4667 -19.5098 8.62251 -17.6856 
-11.8844 8.62251 -17.9171 -4.2591 8.62251 -18.56 3.36623 8.62251 -17.6904 
10.9916 8.62251 -14.8267 26.2422 8.62251 -15.4205 33.8675 8.62251 -15.2954 
41.4929 8.62251 -14.9037 -42.3857 16.2478 -14.1472 -34.7604 16.2478 -16.6539 
-27.1351 16.2478 -17.3828 -19.5098 16.2478 -17.1527 -11.8844 16.2478 -16.084 
-4.2591 16.2478 -15.375 3.36623 16.2478 -16.3499 10.9916 16.2478 -14.3294 
26.2422 16.2478 -14.2167 33.8675 16.2478 -14.8617 41.4929 16.2478 -14.7773 
-34.7604 23.8732 -14.2339 -27.1351 23.8732 -16.0941 -19.5098 23.8732 -17.0939 
-11.8844 23.8732 -15.8543 -4.2591 23.8732 -14.8296 3.36623 23.8732 -14.4667 
-27.1351 31.4985 -14.5337 -19.5098 31.4985 -15.6233 -11.8844 31.4985 -14.669 
-19.5098 -37.7936 -13.9751 -11.8844 -38.9609 -13.9751 -4.2591 -38.9628 -13.9751 
3.36623 -38.664 -13.9751 3.36623 -44.7548 -6.47963 10.9916 -37.6992 -13.9751 
-34.7604 -30.6861 -13.9751 -21.678 -37.1294 -13.9751 -27.1351 -35.0155 -13.9751 
-27.1351 -37.1294 -10.9526 13.0856 -37.1294 -13.9751 18.6169 -34.493 -13.9751 
18.6169 -37.1294 -12.8105 26.2422 -30.5146 -13.9751 26.2422 -37.1294 -8.66821 
-36.3927 -29.5041 -13.9751 -42.3857 -23.8046 -13.9751 -42.3857 -29.5041 -7.45221 
27.7347 -29.5041 -13.9751 33.8675 -23.2572 -13.9751 33.8675 -29.5041 -11.0322 
-44.1272 -21.8788 -13.9751 -50.0111 -21.8788 -6.74869 34.9613 -21.8788 -13.9751 
41.4929 -16.1671 -13.9751 41.4929 -21.8788 -10.8461 -48.3235 -14.2535 -13.9751 
-50.0111 -10.2016 -13.9751 -50.0111 -14.2535 -12.5773 42.95 -14.2535 -13.9751 
49.1182 -14.2535 -9.89627 -51.2129 -6.62814 -13.9751 18.6169 -0.101525 -13.9751 
43.7568 -6.62814 -13.9751 49.1182 -6.62814 -12.7832 56.7435 -6.62814 -8.08313 
-51.04 0.997188 -13.9751 -50.0111 4.89229 -13.9751 18.177 0.997188 -13.9751 
20.0796 0.997188 -13.9751 18.6169 0.997188 -13.8152 46.0942 0.997188 -13.9751 
49.1182 0.997188 -13.3336 56.7435 0.997188 -9.8628 -48.4162 8.62251 -13.9751 
-50.0111 8.62251 -13.1307 17.3948 8.62251 -13.9751 19.2065 8.62251 -13.9751 
18.6169 8.62251 -13.8545 46.8778 8.62251 -13.9751 49.1182 8.62251 -13.5456 
56.7435 8.62251 -10.276 -42.6847 16.2478 -13.9751 -50.0111 16.2478 -8.40777 
-42.3857 16.6563 -13.9751 15.3664 16.2478 -13.9751 10.9916 19.716 -13.9751 
22.5823 16.2478 -13.9751 18.6169 16.2478 -13.7273 26.2422 17.1268 -13.9751 
33.8675 19.5002 -13.9751 44.1003 16.2478 -13.9751 41.4929 18.5361 -13.9751 
49.1182 16.2478 -12.1841 56.7435 16.2478 -7.59917 -35.3604 23.8732 -13.9751 
-42.3857 23.8732 -10.2307 -34.7604 24.6219 -13.9751 -4.2591 27.9424 -13.9751 
7.40003 23.8732 -13.9751 3.36623 25.0965 -13.9751 10.9916 23.8732 -13.5318 
18.6169 23.8732 -12.7195 26.2422 23.8732 -12.0563 33.8675 23.8732 -12.5559 
41.4929 23.8732 -11.359 49.1182 23.8732 -8.5218 -28.5973 31.4985 -13.9751 
-34.7604 31.4985 -11.0495 -27.1351 32.6132 -13.9751 -19.5098 35.5338 -13.9751 
-8.24082 31.4985 -13.9751 -11.8844 33.1233 -13.9751 -4.2591 31.4985 -13.1026 
3.36623 31.4985 -10.8091 10.9916 31.4985 -8.80376 18.6169 31.4985 -7.28091 
26.2422 31.4985 -6.77374 -27.1351 39.1238 -9.65057 -19.5098 39.1238 -11.8663 
-11.8844 39.1238 -10.4452 -4.2591 39.1238 -6.61558 3.36623 -44.8182 -6.34975 
-27.1351 -39.3597 -6.34975 -19.5098 -41.9597 -6.34975 -11.8844 -43.5328 -6.34975 
2.26712 -44.7548 -6.34975 -4.2591 -44.3655 -6.34975 4.47274 -44.7548 -6.34975 
3.36623 -44.7548 -5.86652 10.9916 -44.3477 -6.34975 18.6169 -42.4438 -6.34975 
26.2422 -38.6037 -6.34975 -42.3857 -30.158 -6.34975 -31.5654 -37.1294 -6.34975 
-34.7604 -35.4132 -6.34975 28.3307 -37.1294 -6.34975 33.8675 -33.035 -6.34975 
-43.1866 -29.5041 -6.34975 -50.0111 -22.1985 -6.34975 38.2374 -29.5041 -6.34975 
41.4929 -26.5684 -6.34975 -50.2606 -21.8788 -6.34975 46.5881 -21.8788 -6.34975 
49.1182 -19.0837 -6.34975 -54.7972 -14.2535 -6.34975 53.7376 -14.2535 -6.34975 
56.7435 -9.37743 -6.34975 -56.5074 -6.62814 -6.34975 58.2374 -6.62814 -6.34975 
-57.0609 0.997188 -6.34975 -57.6364 0.997188 -3.3008 60.1015 0.997188 -6.34975 
-56.0197 8.62251 -6.34975 60.5623 8.62251 -6.34975 -51.8434 16.2478 -6.34975 
-50.0111 19.4752 -6.34975 57.9715 16.2478 -6.34975 56.7435 18.5007 -6.34975 
-46.9408 23.8732 -6.34975 -42.3857 29.0638 -6.34975 33.8675 30.4629 -6.34975 
41.4929 28.8707 -6.34975 52.2154 23.8732 -6.34975 49.1182 25.8682 -6.34975 
-40.2629 31.4985 -6.34975 -42.3857 31.4985 -0.198984 -34.7604 37.3932 -6.34975 
3.36623 35.8397 -6.34975 10.9916 33.5803 -6.34975 18.6169 32.2658 -6.34975 
28.4114 31.4985 -6.34975 26.2422 31.8348 -6.34975 33.8675 31.4985 -4.06246 
41.4929 31.4985 -0.383702 -32.4088 39.1238 -6.34975 -27.1351 42.0917 -6.34975 
-19.5098 43.7805 -6.34975 -11.8844 42.3693 -6.34975 -3.79143 39.1238 -6.34975 
-4.2591 39.3285 -6.34975 -27.1351 -38.8421 1.27558 -19.5098 -41.3037 1.27558 
-11.8844 -42.7439 1.27558 -4.2591 -43.2551 1.27558 3.36623 -43.6902 1.27558 
10.9916 -43.1807 1.27558 18.6169 -41.793 1.27558 26.2422 -38.2247 1.27558 
-42.3857 -30.5447 1.27558 -31.3303 -37.1294 1.27558 -34.7604 -35.6119 1.27558 
-27.1351 -37.1294 4.52709 -19.5098 -37.1294 8.73761 18.6169 -37.1294 8.02741 
27.8993 -37.1294 1.27558 26.2422 -37.1294 3.29734 33.8675 -32.877 1.27558 
-43.686 -29.5041 1.27558 -50.0111 -23.2291 1.27558 -42.3857 -29.5041 3.75466 
38.511 -29.5041 1.27558 33.8675 -29.5041 7.6379 41.4929 -27.2511 1.27558 
-51.1192 -21.8788 1.27558 -50.0111 -21.8788 3.7401 48.6065 -21.8788 1.27558 
49.1182 -21.4664 1.27558 -55.2521 -14.2535 1.27558 56.1535 -14.2535 1.27558 
56.7435 -13.4429 1.27558 -57.4256 -6.62814 1.27558 -57.6364 -4.98799 1.27558 
61.1669 -6.62814 1.27558 -58.4134 0.997188 1.27558 -57.6364 5.42252 1.27558 
-57.6364 0.997188 3.19887 63.1581 0.997188 1.27558 -57.0745 8.62251 1.27558 
63.9073 8.62251 1.27558 -54.2488 16.2478 1.27558 -50.0111 22.9823 1.27558 
61.7926 16.2478 1.27558 56.7435 23.2869 1.27558 -49.3939 23.8732 1.27558 
56.1547 23.8732 1.27558 49.1182 29.0724 1.27558 -42.8324 31.4985 1.27558 
-42.3857 31.9369 1.27558 -42.3857 31.4985 2.58438 -34.7604 38.9704 1.27558 
3.36623 38.3494 1.27558 10.9916 35.8596 1.27558 18.6169 34.9211 1.27558 
26.2422 33.8283 1.27558 33.8675 33.3637 1.27558 43.0528 31.4985 1.27558 
41.4929 32.1193 1.27558 41.4929 31.4985 3.77189 -34.5353 39.1238 1.27558 
-27.1351 43.433 1.27558 -19.5098 45.0756 1.27558 -11.8844 44.3312 1.27558 
1.57915 39.1238 1.27558 -4.2591 41.6381 1.27558 -11.8844 -37.6835 8.90091 
-4.2591 -37.5427 8.90091 3.36623 -37.3191 8.90091 10.9916 -37.3508 8.90091 
-34.7604 -31.2372 8.90091 -27.1351 -34.0928 8.90091 -18.239 -37.1294 8.90091 
-19.5098 -36.9757 8.90091 -11.8844 -37.1294 9.42311 -4.2591 -37.1294 9.26211 
3.36623 -37.1294 9.05535 12.6142 -37.1294 8.90091 10.9916 -37.1294 9.08067 
18.6169 -36.1599 8.90091 26.2422 -32.9814 8.90091 -37.9488 -29.5041 8.90091 
-42.3857 -26.058 8.90091 -34.7604 -29.5041 10.5052 -27.1351 -29.5041 12.5154 
-19.5098 -29.5041 13.6551 -11.8844 -29.5041 13.9818 -4.2591 -29.5041 13.8788 
3.36623 -29.5041 13.1606 10.9916 -29.5041 13.2082 18.6169 -29.5041 13.2954 
32.3715 -29.5041 8.90091 26.2422 -29.5041 11.5843 33.8675 -28.6288 8.90091 
41.4929 -23.3735 8.90091 -46.4619 -21.8788 8.90091 -50.0111 -17.2772 8.90091 
-42.3857 -21.8788 11.8066 -34.7604 -21.8788 14.7755 -27.1351 -21.8788 15.5647 
-19.5098 -21.8788 16.1405 -11.8844 -21.8788 16.0165 -4.2591 -21.8788 16.0461 
3.36623 -21.8788 15.2578 10.9916 -21.8788 15.4326 18.6169 -21.8788 15.7399 
26.2422 -21.8788 15.5465 33.8675 -21.8788 13.8978 43.5773 -21.8788 8.90091 
41.4929 -21.8788 10.5319 49.1182 -17.6383 8.90091 -51.5977 -14.2535 8.90091 
-50.0111 -14.2535 10.4161 -42.3857 -14.2535 14.5636 10.9916 -14.2535 16.1815 
41.4929 -14.2535 15.449 52.5218 -14.2535 8.90091 49.1182 -14.2535 11.9907 
56.7435 -8.77954 8.90091 -53.2098 -6.62814 8.90091 -50.0111 -6.62814 11.928 
-42.3857 -6.62814 15.5909 49.1182 -6.62814 16.5209 58.1429 -6.62814 8.90091 
56.7435 -6.62814 10.4736 -54.4535 0.997188 8.90091 -50.0111 0.997188 13.1009 
-42.3857 0.997188 16.1924 60.4879 0.997188 8.90091 56.7435 0.997188 12.894 
-53.2766 8.62251 8.90091 -50.0111 8.62251 12.1372 -42.3857 8.62251 16.1074 
10.9916 8.62251 16.3012 61.2456 8.62251 8.90091 56.7435 8.62251 13.4575 
-51.5802 16.2478 8.90091 -50.0111 19.1185 8.90091 -50.0111 16.2478 10.6208 
[...]
POINT_DATA 532
SCALARS ImageScalars float
LOOKUP_TABLE default
0 0 0 0 0 0 0 0 0 
0 0 0 0 0 0 0 0 0 
0 0 0 0 0 0 0 0 0 
0 0 0 0 0 0 0 0 0 
0 0 0 0 0 0 0 0 0 
0 0 0 0 0 0 0 0 0 
0 0 0 0 0 0 0 0 0 
0 0 0 0 0 0 0 0 0 
0 0 0 0 0 0 0 0 0 
0 0 0 0 0 0 0 0 0 
0 0 0 0 0 0 0 0 0 
0 0 0 0 0 0 0 0 0 
0 0 0 0 0 0 0 0 0 
0 0 0 0 0 0 0 0 0 
0 0 0 0 0 0 0 0 0 
0 0 0 0 0 0 0 0 0 
0 0 0 0 0 0 0 0 0 
0 0 0 0 0 0 0 0 0 
0 0 0 0 0 0 0 0 0 
0 0 0 0 0 0 0 0 0 
0 0 0 0 0 0 0 0 0 
0 0 0 0 0 0 0 0 0 
0 0 0 0 0 0 0 0 0 
0 0 0 0 0 0 0 0 0 
0 0 0 0 0 0 0 0 0 
0 0 0 0 0 0 0 0 0 
0 0 0 0 0 0 0 0 0 
0 0 0 0 0 0 0 0 0 
0 0 0 0 0 0 0 0 0 
0 0 0 0 0 0 0 0 0 
0 0 0 0 0 0 0 0 0 
0 0 0 0 0 0 0 0 0 
0 0 0 0 0 0 0 0 0 
0 0 0 0 0 0 0 0 0 
0 0 0 0 0 0 0 0 0 
0 0 0 0 0 0 0 0 0 
0 0 0 0 0 0 0 0 0 
0 0 0 0 0 0 0 0 0 
0 0 0 0 0 0 0 0 0 
0 0 0 0 0 0 0 0 0 
0 0 0 0 0 0 0 0 0 
0 0 0 0 0 0 0 0 0 
0 0 0 0 0 0 0 0 0 
0 0 0 0 0 0 0 0 0 
0 0 0 0 0 0 0 0 0 
0 0 0 0 0 0 0 0 0 
0 0 0 0 0 0 0 0 0 
0 0 0 0 0 0 0 0 0 
0 0 0 0 0 0 0 0 0 
0 0 0 0 0 0 0 0 0 
0 0 0 0 0 0 0 0 0 
0 0 0 0 0 0 0 0 0 
0 0 0 0 0 0 0 0 0 
0 0 0 0 0 0 0 0 0 
0 0 0 0 0 0 0 0 0 
0 0 0 0 0 0 0 0 0 
0 0 0 0 0 0 0 0 0 
0 0 0 0 0 0 0 0 0 
0 0 0 0 0 0 0 0 0 
0 
NORMALS Normals float
0.177518 0.68666 0.704972 0.0246553 0.572719 0.819381 -0.0357367 0.471773 0.880996 
-0.0494541 0.418237 0.90699 -0.120896 0.452842 0.883356 0.414318 0.536219 0.735398 
0.2366 0.385071 0.892043 0.072073 0.284333 0.956013 -0.0799245 0.248529 0.965321 
-0.13186 0.186924 0.973485 -0.0712733 0.092795 0.993131 -0.0715937 0.129494 0.988992 
-0.117529 0.216922 0.969088 -0.239504 0.339723 0.90952 0.463067 0.398231 0.791821 
0.246908 0.25262 0.935532 0.148394 0.122236 0.981345 0.0339656 0.0153486 0.999305 
-0.119066 0.0152492 0.992769 -0.217523 0.0414291 0.975176 -0.0934113 -0.0825373 0.992201 
0.0196213 -0.0568334 0.998191 -0.0377199 0.0266212 0.998934 -0.137248 0.0957435 0.985899 
-0.292244 0.239731 0.925809 0.371877 0.187837 0.909079 0.121448 0.125006 0.984695 
-0.00305248 0.0340148 0.999417 -0.0387741 -0.125424 0.991345 -0.066114 -0.115067 0.991155 
-0.220516 0.0851473 0.97166 -0.183245 0.0627566 0.981062 0.0378665 -0.03458 0.998684 
0.0390662 -0.116862 0.992379 -0.0294475 -0.0618613 0.99765 -0.102025 0.0487996 0.993584 
-0.319843 0.171199 0.931875 0.550075 0.0973104 0.829427 0.300007 0.0244306 0.953624 
0.0964644 0.0311587 0.994849 -0.0974364 -0.0315479 0.994742 -0.110836 -0.0497155 0.992594 
0.0879845 0.0697998 0.993673 -0.0243048 0.0968312 0.995004 -0.203559 0.0942706 0.974514 
-0.179921 0.13504 0.974368 -0.0632712 -0.143671 0.987601 0.0250981 -0.0994081 0.99473 
-0.0388688 -0.0320152 0.998731 -0.161825 0.0114751 0.986753 0.535607 -0.0910656 0.839543 
0.306089 -0.0799821 0.948637 0.0734753 -0.0905702 0.993176 -0.0825623 -0.0763617 0.993656 
0.0608836 -0.0368331 0.997465 0.103245 0.027494 0.994276 -0.227423 -0.0596511 0.971967 
-0.121083 0.0222533 0.992393 -0.238315 -0.0890272 0.967099 0.0889281 0.0224954 0.995784 
0.0150117 -0.000808215 0.999887 -0.116322 0.0273173 0.992836 0.304596 -0.239475 0.921885 
0.0966584 -0.210424 0.97282 -0.0346328 -0.116354 0.992604 -0.0384623 -0.0922591 0.994992 
0.0553339 -0.280159 0.958357 -0.0245024 -0.306536 0.951544 -0.185432 -0.0384271 0.981905 
-0.274687 -0.185385 0.943493 0.0907502 -0.0276786 0.995489 -0.0334781 -0.0235108 0.999163 
-0.105547 -0.00718904 0.994388 0.41957 -0.323235 0.848222 0.192313 -0.234823 0.952824 
0.0332026 -0.149472 0.988208 -0.0852914 -0.0388791 0.995597 -0.114959 -0.114249 0.986778 
0.0155522 -0.205888 0.978452 -0.0662687 -0.205379 0.976436 -0.166894 -0.0736362 0.983221 
0.0729441 -0.210408 0.974888 0.0362157 -0.167627 0.985185 -0.162605 -0.185355 0.969125 
0.303676 -0.313121 0.899854 0.168821 -0.176748 0.96967 -0.0171967 -0.108127 0.993988 
-0.143421 -0.0889835 0.985653 -0.0884314 -0.135554 0.986816 -0.0821227 -0.308422 0.947698 
0.25162 -0.323832 0.912042 0.00335184 -0.290529 0.95686 -0.160857 -0.282363 0.945725 
0.188189 0.716478 0.671747 0.0613299 0.65898 0.749656 -0.0120172 0.563223 0.826218 
-0.0507799 0.499576 0.86478 -0.000234293 0.981772 0.190062 -0.127054 0.477784 0.869241 
0.430513 0.587016 0.685617 0.229536 0.711078 0.664591 0.316133 0.659626 0.681875 
0.369702 0.811992 0.451651 -0.15059 0.471428 0.868952 -0.186012 0.40991 0.892958 
-0.245544 0.56238 0.78958 -0.264965 0.382274 0.885246 -0.51712 0.753187 0.406568 
0.451028 0.566368 0.689783 0.503029 0.453822 0.735532 0.608504 0.729269 0.312873 
-0.282828 0.374312 0.883119 -0.323718 0.287615 0.901379 -0.515345 0.592273 0.61938 
0.533636 0.416029 0.73631 0.772101 0.553748 0.311806 -0.308738 0.276297 0.910132 
-0.341708 0.249894 0.905974 -0.48671 0.545617 0.682213 0.551376 0.272545 0.788482 
0.577708 0.186327 0.794692 0.639544 0.310717 0.703164 -0.362432 0.19316 0.911774 
-0.561257 0.409255 0.719375 0.603322 0.101378 0.791028 -0.120538 -0.083843 0.989162 
-0.198412 0.0592248 0.978328 -0.307201 0.19371 0.931721 -0.733196 0.303165 0.608699 
0.577555 -0.091887 0.811164 0.527853 -0.193384 0.827027 -0.136647 -0.0746175 0.987805 
-0.0878787 -0.0540139 0.994666 -0.129673 -0.0723551 0.988913 -0.195973 0.0432747 0.979654 
-0.261851 0.0500443 0.96381 -0.617912 0.0975973 0.780166 0.47065 -0.284143 0.835315 
0.535762 -0.295353 0.791028 0.00456913 -0.0307828 0.999516 0.0582324 -0.00835133 0.998268 
0.0543531 -0.00626951 0.998502 -0.20436 -0.0552838 0.977333 -0.25378 -0.078402 0.964079 
-0.586998 -0.111089 0.801931 0.428906 -0.326947 0.842108 0.693724 -0.442332 0.56841 
0.42559 -0.326284 0.844045 -0.074487 -0.0644926 0.995134 -0.137285 -0.162193 0.977162 
0.034111 -0.140036 0.989559 -0.00748053 -0.0638748 0.99793 0.0637954 -0.23093 0.970877 
0.0178103 -0.274385 0.961455 -0.224603 -0.195737 0.954589 -0.165396 -0.276378 0.94671 
-0.364416 -0.233193 0.901567 -0.663728 -0.328444 0.672004 0.320073 -0.318601 0.892214 
0.564727 -0.453681 0.689388 0.313087 -0.321611 0.893612 -0.152914 -0.260741 0.953222 
-0.0921567 -0.291492 0.952124 -0.102264 -0.341817 0.934186 -0.104181 -0.283593 0.953269 
-0.092247 -0.322156 0.942182 -0.0112571 -0.408515 0.912682 -0.0314057 -0.453443 0.890732 
-0.194896 -0.547578 0.813741 -0.413716 -0.614947 0.671327 0.277488 -0.343488 0.897227 
0.465827 -0.473615 0.747458 0.261336 -0.366774 0.89285 0.0204767 -0.444445 0.895572 
-0.185157 -0.327469 0.926542 -0.177705 -0.34723 0.920789 -0.215312 -0.394356 0.893378 
-0.235316 -0.595683 0.767976 -0.180882 -0.732939 0.655806 -0.107224 -0.784194 0.611181 
-0.097416 -0.832913 0.544762 0.337192 -0.706361 0.622379 0.0337967 -0.639255 0.768251 
-0.247965 -0.675327 0.694584 -0.36719 -0.791252 0.48897 0.00021556 0.98348 0.181017 
0.38836 0.904921 0.174052 0.25499 0.951482 0.17223 0.15098 0.974187 0.167821 
0.012475 0.983915 0.1782 0.0833586 0.982242 0.168084 -0.0213512 0.983154 0.181527 
-0.000199958 0.988817 0.149132 -0.149966 0.969662 0.193042 -0.336803 0.908556 0.247163 
-0.534432 0.810047 0.241261 0.60902 0.752533 0.250578 0.449508 0.870271 0.20142 
0.497201 0.83761 0.226275 -0.564034 0.788787 0.244295 -0.601849 0.752515 0.267393 
0.626763 0.736842 0.253441 0.773428 0.562424 0.292384 -0.611618 0.734042 0.295137 
-0.623339 0.699415 0.349667 0.77725 0.556608 0.293376 -0.667736 0.645037 0.371557 
-0.659291 0.617838 0.428499 0.886381 0.352494 0.300128 -0.692132 0.521948 0.498521 
-0.773663 0.385122 0.503117 0.947985 0.127472 0.291676 -0.781923 0.323224 0.533032 
0.937453 -0.0229897 0.347352 0.9881 -0.0206566 0.152422 -0.757774 0.127235 0.639992 
0.887451 -0.276421 0.36881 -0.757282 -0.113946 0.643071 0.758578 -0.447983 0.473149 
0.729261 -0.497363 0.469903 -0.70975 -0.326821 0.624054 -0.674821 -0.413086 0.611537 
0.689429 -0.543462 0.478892 0.674901 -0.597353 0.433217 -0.158181 -0.826663 0.540006 
-0.237453 -0.798524 0.553151 -0.500906 -0.6533 0.567707 -0.416636 -0.72172 0.552752 
0.66807 -0.617174 0.415665 0.709948 -0.702014 0.0561328 0.584342 -0.700571 0.409567 
-0.314432 -0.79636 0.516665 -0.199738 -0.834458 0.5136 -0.11044 -0.821562 0.559319 
-0.118243 -0.845179 0.52124 -0.0994196 -0.848863 0.51918 -0.152914 -0.913301 0.377489 
-0.26925 -0.951597 0.148213 0.517879 -0.752082 0.407644 0.364887 -0.822194 0.43687 
0.00132342 -0.895317 0.445427 -0.26238 -0.852236 0.452603 -0.366987 -0.799344 0.475783 
-0.368143 -0.799359 0.474864 0.337862 0.905684 -0.256096 0.239576 0.929645 -0.279935 
0.121511 0.941734 -0.313644 0.0594075 0.931661 -0.358438 -0.00524935 0.923633 -0.383242 
-0.119296 0.929977 -0.347723 -0.294181 0.902555 -0.314408 -0.493102 0.833546 -0.249101 
0.594345 0.78987 -0.151192 0.405898 0.885534 -0.226001 0.465985 0.861362 -0.202272 
0.321779 0.849246 -0.418617 0.171196 0.724941 -0.667198 -0.201334 0.7044 -0.68065 
-0.521808 0.818462 -0.240491 -0.477185 0.808451 -0.344532 -0.575115 0.790839 -0.209324 
0.622297 0.767993 -0.151439 0.778073 0.611956 -0.141817 0.589267 0.757839 -0.280081 
-0.574709 0.79834 -0.179898 -0.467594 0.717913 -0.51571 -0.584106 0.797148 -0.152888 
0.800583 0.582871 -0.139027 0.76279 0.584889 -0.275784 -0.653869 0.751845 -0.0847547 
-0.661742 0.745682 -0.0778146 0.911693 0.374768 -0.168419 -0.789082 0.611331 -0.0601942 
-0.804545 0.591311 -0.0552962 0.971389 0.189134 -0.143636 0.980179 0.144026 -0.136035 
-0.900053 0.435178 -0.0229139 0.993843 -0.0222212 -0.108549 0.980505 -0.154311 -0.121647 
0.970987 -0.0179357 -0.238458 -0.987296 0.157426 -0.0215378 0.960397 -0.248128 -0.126769 
-0.996073 -0.0884729 0.00327899 0.898129 -0.438904 -0.0269777 0.818016 -0.574946 -0.0169324 
-0.921268 -0.388882 0.00603788 -0.709937 -0.70375 -0.0269163 0.806268 -0.591332 -0.0161046 
-0.684726 -0.728307 -0.0268418 -0.458439 -0.888507 0.0197496 0.707751 -0.706347 -0.0127653 
0.703846 -0.710201 -0.0146835 0.700376 -0.708781 -0.0842754 0.586811 -0.805061 -0.0867715 
-0.373156 -0.926173 0.0543861 -0.214637 -0.975806 0.0416332 -0.130069 -0.990664 0.0408221 
-0.0978244 -0.993816 0.0525349 -0.106963 -0.992525 0.0587617 -0.307029 -0.950513 0.0475215 
-0.273959 -0.96009 0.0563322 -0.289503 -0.951302 -0.105889 0.580473 -0.809584 -0.087319 
0.370865 -0.924133 -0.0918569 0.0486937 -0.99474 -0.0901151 -0.213459 -0.976735 -0.0205717 
-0.375919 -0.925392 0.0483133 -0.358421 -0.93312 0.0286521 0.0290726 0.690941 -0.722327 
-0.0173666 0.649985 -0.759749 -0.00927993 0.612293 -0.790577 -0.0470157 0.618295 -0.784539 
0.343434 0.688178 -0.639112 0.248035 0.687759 -0.68225 0.144529 0.713914 -0.685156 
0.1682 0.714982 -0.678609 0.0233278 0.671156 -0.740949 -0.020242 0.637834 -0.769907 
-0.00991506 0.606472 -0.795043 -0.0757804 0.627989 -0.774524 -0.0450275 0.610403 -0.79081 
-0.1785 0.654495 -0.734693 -0.33283 0.65526 -0.678128 0.419159 0.664875 -0.618261 
0.520657 0.593989 -0.613264 0.314819 0.62834 -0.711391 0.173583 0.521407 -0.835466 
0.0850005 0.403208 -0.911152 0.0123835 0.370341 -0.928813 -0.0516498 0.393337 -0.917942 
-0.0389481 0.361268 -0.931648 0.00791986 0.363518 -0.931554 -0.0873117 0.420353 -0.90315 
-0.414196 0.677541 -0.607767 -0.262888 0.557608 -0.787378 -0.431618 0.68075 -0.591849 
-0.48016 0.694568 -0.535744 0.591653 0.517352 -0.618298 0.682865 0.386297 -0.620056 
0.457692 0.447788 -0.768117 0.202029 0.353811 -0.913237 0.0807759 0.275572 -0.95788 
0.0298265 0.183069 -0.982647 -0.00581849 0.163351 -0.986551 -0.0486179 0.209427 -0.976615 
-0.0403457 0.220015 -0.974662 0.0319659 0.191036 -0.981062 0.00707969 0.226831 -0.973908 
-0.102027 0.346591 -0.932451 -0.258543 0.489082 -0.833039 -0.490618 0.688464 -0.534146 
-0.452401 0.655275 -0.604936 -0.557228 0.628632 -0.542512 0.719145 0.297598 -0.627906 
0.652301 0.284943 -0.702361 0.356236 0.195692 -0.913674 0.0271033 0.106849 -0.993906 
-0.277783 0.393553 -0.876329 -0.627459 0.56071 -0.540277 -0.512851 0.537626 -0.669285 
-0.713526 0.458609 -0.529677 0.733655 0.151982 -0.662308 0.583227 0.149494 -0.798435 
0.29652 0.103209 -0.949433 -0.396904 0.248852 -0.883482 -0.751246 0.404812 -0.521303 
-0.695667 0.403649 -0.594235 0.737342 0.00228582 -0.675516 0.545013 0.012194 -0.838339 
0.24762 0.0331616 -0.96829 -0.844454 0.169986 -0.507939 -0.635526 0.152634 -0.756842 
0.768694 -0.161095 -0.618998 0.590382 -0.130318 -0.796534 0.323722 -0.061346 -0.944161 
-0.0821782 0.0694188 -0.994197 -0.856267 -0.0997833 -0.506804 -0.585567 -0.0969001 -0.804811 
0.781825 -0.32139 -0.534282 0.755434 -0.39988 -0.519053 0.714053 -0.306054 -0.62965 
0.394629 -0.145497 -0.907248 -0.749927 -0.3779 -0.542955 -0.672205 -0.51931 -0.527691 
-0.655219 -0.36837 -0.659539 0.702057 -0.526034 -0.480004 0.635726 -0.610069 -0.472935 
0.55228 -0.411773 -0.724865 -0.0468777 -0.373798 -0.926325 0.0156968 -0.455727 -0.889981 
-0.29231 -0.826841 -0.480508 -0.548126 -0.667622 -0.503824 -0.454794 -0.750669 -0.479226 
-0.454119 -0.590153 -0.667454 0.583941 -0.65009 -0.486206 0.510397 -0.693843 -0.508012 
0.437142 -0.565308 -0.699524 0.220809 -0.384117 -0.896492 -0.323094 -0.849716 -0.416644 
-0.210157 -0.563619 -0.798854 -0.222229 -0.877567 -0.424841 -0.180589 -0.738582 -0.649526 
-0.094445 -0.894766 -0.436433 -0.0850324 -0.815975 -0.571799 -0.0871373 -0.910128 -0.40506 
-0.0830405 -0.847885 -0.523636 -0.191339 -0.880824 -0.433057 -0.167929 -0.889403 -0.42516 
-0.168397 -0.878494 -0.447091 0.393792 -0.756727 -0.521817 0.325838 -0.777852 -0.537379 
0.30981 -0.726115 -0.61382 0.0781153 -0.81762 -0.570434 0.0834034 -0.699094 -0.710149 
-0.126689 -0.851383 -0.509016 -0.0937551 -0.739187 -0.666942 -0.300999 -0.854903 -0.42254 
-0.289553 -0.854148 -0.43196 -0.278384 -0.822612 -0.495794 0.161885 0.144597 -0.976158 
0.0404564 0.195378 -0.979893 -0.0127066 0.136426 -0.990569 0.0360084 0.196852 -0.979772 
-0.0267216 0.174358 -0.98432 -0.0720971 0.148363 -0.986301 0.0546265 0.16343 -0.985041 
-0.0488418 0.265569 -0.962854 -0.142649 0.329724 -0.933238 0.164627 0.141383 -0.97617 
0.161507 0.140641 -0.976799 0.0153661 0.146389 -0.989108 -0.0437574 0.107052 -0.99329 
0.0362726 0.197065 -0.979719 0.0122711 0.120572 -0.992629 -0.0399957 0.125882 -0.991239 
-0.0777001 0.136579 -0.987577 0.0495157 0.111271 -0.992556 0.0229601 0.0765344 -0.996803 
0.0902632 0.118999 -0.988783 0.00145878 0.1878 -0.982206 -0.17544 0.329535 -0.9277 
-0.123584 0.298752 -0.946295 -0.226663 0.315786 -0.921359 0.204343 0.0779969 -0.975787 
0.142928 0.0571236 -0.988083 0.0404907 0.029227 -0.998752 0.0787285 0.042807 -0.995977 
0.01314 0.237595 -0.971275 -0.124646 0.047909 -0.991044 -0.0531013 0.0125267 -0.998511 
0.0180412 0.0278323 -0.99945 0.0972745 0.0145029 -0.995152 0.101545 0.0711668 -0.992282 
-0.0306936 0.140331 -0.989629 -0.396284 0.248676 -0.88381 -0.168038 0.196381 -0.966022 
-0.39634 0.246542 -0.884382 0.204442 0.0349224 -0.978256 0.0892427 0.0389382 -0.995248 
0.00340187 0.0105204 -0.999939 0.149532 0.00835975 -0.988722 0.0616017 -0.0518069 -0.996755 
-0.229431 0.0889708 -0.96925 -0.0914407 0.096561 -0.991118 0.00752623 -0.0281759 -0.999575 
0.0312937 -0.0539272 -0.998054 0.133883 -0.00943001 -0.990952 0.129013 0.0169642 -0.991498 
0.00879209 0.00308048 -0.999957 -0.146939 0.042654 -0.988225 -0.359181 0.0383059 -0.932482 
-0.336302 0.0311186 -0.94124 0.271841 -0.0450609 -0.961286 0.113827 0.0100513 -0.99345 
0.0110159 0.0500287 -0.998687 0.0212107 0.0722971 -0.997158 0.0774576 -0.0990591 -0.992062 
0.0199583 0.0448344 -0.998795 -0.0923612 0.075377 -0.992868 -0.180725 0.12586 -0.975448 
-0.032271 0.0569839 -0.997853 -0.0846876 0.0669751 -0.994154 0.169219 0.00553812 -0.985563 
0.115683 -0.0404177 -0.992464 -0.00255582 -0.0566958 -0.998388 -0.131936 -0.0401707 -0.990444 
-0.340343 -0.0258509 -0.939946 -0.314089 -0.0196898 -0.949189 0.273903 -0.090578 -0.957482 
0.189782 -0.0643791 -0.979713 0.0628507 -0.000266081 -0.998023 0.00730986 0.0335487 -0.99941 
0.0214789 0.026193 -0.999426 0.0239114 -0.045779 -0.998665 -0.0844745 -0.0473727 -0.995299 
-0.0965993 0.054252 -0.993844 0.027783 -0.031284 -0.999124 -0.0324982 -0.344613 -0.938182 
0.065742 -0.158396 -0.985185 0.0188858 -0.421375 -0.90669 0.0047304 -0.167348 -0.985887 
-0.133288 -0.167982 -0.976738 -0.37438 -0.264875 -0.88864 -0.370528 -0.272829 -0.887847 
-0.366908 -0.263702 -0.892098 0.259383 -0.261343 -0.929742 0.24606 -0.271744 -0.930381 
0.235731 -0.251712 -0.938654 0.180637 -0.309761 -0.933498 0.115388 -0.166688 -0.979235 
0.0494162 -0.109958 -0.992707 -0.00444021 -0.0851968 -0.996354 -0.054026 -0.147553 -0.987577 
-0.133709 -0.375051 -0.917311 -0.0803639 -0.234258 -0.968847 -0.0765653 -0.315684 -0.94577 
-0.0632321 -0.240354 -0.968624 -0.0484938 -0.34116 -0.938754 -0.0593742 -0.324063 -0.94417 
-0.0525726 -0.274865 -0.960045 -0.149777 -0.480865 -0.863907 -0.23655 -0.490889 -0.838494 
-0.230035 -0.497664 -0.83631 -0.230217 -0.488433 -0.841685 0.121623 -0.349479 -0.929017 
0.0851283 -0.359648 -0.929197 0.0846711 -0.338162 -0.937271 -0.0214865 -0.395135 -0.918372 
-0.0143579 -0.335119 -0.942066 -0.134309 -0.40227 -0.905616 -0.13322 -0.401458 -0.906137 
-0.131847 -0.39752 -0.908072 
