# vtk DataFile Version 4.2
vtk output
ASCII
DATASET POLYDATA
POINTS 540 float
-18.0466 -45.9293 -14.5637 -9.91802 -45.9293 -16.4577 -1.78948 -45.9293 -16.4165 
6.33905 -45.9293 -15.8983 14.4676 -45.9293 -13.967 -34.3036 -37.8008 -13.4041 
-26.1751 -37.8008 -17.0771 -18.0466 -37.8008 -18.5327 -9.91802 -37.8008 -19.3327 
-1.78948 -37.8008 -19.2475 6.33905 -37.8008 -18.286 14.4676 -37.8008 -17.2934 
22.5961 -37.8008 -15.772 30.7247 -37.8008 -12.8048 -42.4322 -29.6723 -13.4774 
-34.3036 -29.6723 -17.7645 -26.1751 -29.6723 -19.1383 -18.0466 -29.6723 -19.6091 
-9.91802 -29.6723 -19.9781 -1.78948 -29.6723 -19.7062 6.33905 -29.6723 -18.7938 
14.4676 -29.6723 -18.2254 22.5961 -29.6723 -17.4032 30.7247 -29.6723 -16.0533 
-42.4322 -21.5437 -16.8506 -34.3036 -21.5437 -18.9525 -26.1751 -21.5437 -19.5384 
-18.0466 -21.5437 -19.586 -9.91802 -21.5437 -19.1374 -1.78948 -21.5437 -18.5893 
6.33905 -21.5437 -17.7932 14.4676 -21.5437 -17.7903 22.5961 -21.5437 -17.8859 
30.7247 -21.5437 -17.1799 38.8532 -21.5437 -14.9477 -42.4322 -13.4152 -17.6455 
-34.3036 -13.4152 -19.7059 -26.1751 -13.4152 -19.6676 -18.0466 -13.4152 -18.4597 
-9.91802 -13.4152 -17.7417 -1.78948 -13.4152 -19.3872 6.33905 -13.4152 -17.3021 
14.4676 -13.4152 -17.1154 22.5961 -13.4152 -18.1639 30.7247 -13.4152 -18.4351 
38.8532 -13.4152 -17.1344 46.9817 -13.4152 -13.9566 -42.4322 -5.28664 -17.0713 
-34.3036 -5.28664 -19.0141 -26.1751 -5.28664 -18.8649 -18.0466 -5.28664 -18.4195 
-9.91802 -5.28664 -19.8591 -1.78948 -5.28664 -19.6448 6.33905 -5.28664 -19.0148 
14.4676 -5.28664 -17.4529 22.5961 -5.28664 -17.9113 30.7247 -5.28664 -18.5336 
38.8532 -5.28664 -18.1711 46.9817 -5.28664 -16.7127 -42.4322 2.84189 -15.3931 
-34.3036 2.84189 -17.3926 -26.1751 2.84189 -17.9608 -18.0466 2.84189 -17.9377 
-9.91802 2.84189 -20.4413 -1.78948 2.84189 -17.5531 6.33905 2.84189 -18.7982 
14.4676 2.84189 -15.9201 22.5961 2.84189 -17.2165 30.7247 2.84189 -18.6245 
38.8532 2.84189 -18.8328 46.9817 2.84189 -17.6127 55.1103 2.84189 -13.6669 
-42.4322 10.9704 -14.2475 -34.3036 10.9704 -15.9803 -26.1751 10.9704 -16.8001 
-18.0466 10.9704 -16.9176 -9.91802 10.9704 -17.7136 -1.78948 10.9704 -20.0005 
6.33905 10.9704 -19.8231 14.4676 10.9704 -16.8365 22.5961 10.9704 -17.6233 
30.7247 10.9704 -18.4319 38.8532 10.9704 -18.7396 46.9817 10.9704 -17.4904 
55.1103 10.9704 -13.9029 -34.3036 19.099 -15.5559 -26.1751 19.099 -17.2248 
-18.0466 19.099 -17.5331 -9.91802 19.099 -17.5922 -1.78948 19.099 -18.0573 
6.33905 19.099 -18.6923 14.4676 19.099 -18.3856 22.5961 19.099 -18.241 
30.7247 19.099 -18.7044 38.8532 19.099 -18.818 46.9817 19.099 -16.5869 
-34.3036 27.2275 -14.4957 -26.1751 27.2275 -17.0804 -18.0466 27.2275 -18.2355 
-9.91802 27.2275 -18.24 -1.78948 27.2275 -18.4916 6.33905 27.2275 -18.583 
14.4676 27.2275 -18.4831 22.5961 27.2275 -18.3633 30.7247 27.2275 -17.6384 
38.8532 27.2275 -16.0509 46.9817 27.2275 -13.302 -26.1751 35.356 -15.7238 
-18.0466 35.356 -17.4642 -9.91802 35.356 -17.8843 -1.78948 35.356 -17.9331 
6.33905 35.356 -17.4482 14.4676 35.356 -16.9968 22.5961 35.356 -16.2651 
30.7247 35.356 -14.9912 -26.1751 43.4846 -13.2441 -18.0466 43.4846 -15.3117 
-9.91802 43.4846 -15.6735 -1.78948 43.4846 -15.3896 6.33905 43.4846 -14.7746 
14.4676 43.4846 -12.8603 -18.0466 -47.7818 -12.7768 -9.91802 -49.9582 -12.7768 
-1.78948 -50.1552 -12.7768 -1.78948 -54.0579 -4.6544 6.33905 -49.5992 -12.7768 
14.4676 -47.4005 -12.7768 -34.3036 -38.5173 -12.7768 -22.2543 -45.9293 -12.7768 
-26.1751 -43.7189 -12.7768 -26.1751 -45.9293 -8.70883 17.8738 -45.9293 -12.7768 
22.5961 -43.0553 -12.7768 22.5961 -45.9293 -9.94892 30.7247 -37.8471 -12.7768 
-35.2207 -37.8008 -12.7768 -42.4322 -30.7249 -12.7768 30.7837 -37.8008 -12.7768 
38.8532 -37.8008 -5.50233 -43.282 -29.6723 -12.7768 37.5467 -29.6723 -12.7768 
38.8532 -27.8897 -12.7768 38.8532 -29.6723 -11.9614 -48.0037 -21.5437 -12.7768 
-50.5607 -21.5437 -9.31017 42.8192 -21.5437 -12.7768 46.9817 -16.1132 -12.7768 
46.9817 -21.5437 -9.55492 -50.3815 -13.4152 -12.7768 -50.5607 -13.4152 -12.6207 
48.9254 -13.4152 -12.7768 55.1103 -13.4152 -6.56906 -50.1956 -5.28664 -12.7768 
-50.5607 -5.28664 -12.5257 54.1326 -5.28664 -12.7768 55.1103 -1.73135 -12.7768 
55.1103 -5.28664 -11.8889 -47.5243 2.84189 -12.7768 -50.5607 2.84189 -10.9412 
56.0921 2.84189 -12.7768 -45.1532 10.9704 -12.7768 -50.5607 10.9704 -8.85126 
-42.4322 19.0174 -12.7768 56.4398 10.9704 -12.7768 55.1103 15.7731 -12.7768 
-50.5607 19.099 -7.39063 -42.3852 19.099 -12.7768 -42.4322 19.099 -12.7596 
54.0451 19.099 -12.7768 55.1103 19.099 -11.7575 -37.6857 27.2275 -12.7768 
-42.4322 27.2275 -9.97943 -34.3036 34.6632 -12.7768 38.8532 33.4534 -12.7768 
47.7361 27.2275 -12.7768 46.9817 27.9822 -12.7768 -42.4322 35.356 -7.1159 
-33.8841 35.356 -12.7768 -34.3036 35.356 -12.5928 22.5961 40.6193 -12.7768 
36.4007 35.356 -12.7768 30.7247 38.6247 -12.7768 38.8532 35.356 -11.2651 
-27.1124 43.4846 -12.7768 -34.3036 43.4846 -8.28269 -26.1751 44.0797 -12.7768 
-18.0466 48.6366 -12.7768 -9.91802 48.0835 -12.7768 -1.78948 47.2565 -12.7768 
6.33905 46.0095 -12.7768 14.8102 43.4846 -12.7768 14.4676 43.59 -12.7768 
22.5961 43.4846 -9.89142 30.7247 43.4846 -5.21596 -18.0466 51.6131 -9.46943 
-9.91802 51.6131 -9.3218 -1.78948 51.6131 -8.26152 6.33905 51.6131 -4.8109 
-1.78948 -54.06 -4.64825 -26.1751 -47.3821 -4.64825 -18.0466 -50.9 -4.64825 
-1.81253 -54.0579 -4.64825 -9.91802 -53.2815 -4.64825 -1.75959 -54.0579 -4.64825 
-1.78948 -54.0579 -4.6224 6.33905 -53.461 -4.64825 14.4676 -51.6833 -4.64825 
22.5961 -48.7818 -4.64825 -28.7161 -45.9293 -4.64825 -34.3036 -42.4259 -4.64825 
28.0449 -45.9293 -4.64825 30.7247 -44.2364 -4.64825 38.8532 -38.297 -4.64825 
-40.2267 -37.8008 -4.64825 -42.4322 -35.7322 -4.64825 39.3696 -37.8008 -4.64825 
-47.7979 -29.6723 -4.64825 -50.5607 -25.7819 -4.64825 46.3836 -29.6723 -4.64825 
46.9817 -28.7678 -4.64825 46.9817 -29.6723 -1.44913 -53.1641 -21.5437 -4.64825 
51.1175 -21.5437 -4.64825 55.1103 -15.4444 -4.64825 -56.1755 -13.4152 -4.64825 
56.2289 -13.4152 -4.64825 -57.3605 -5.28664 -4.64825 59.9977 -5.28664 -4.64825 
-56.8488 2.84189 -4.64825 -58.6892 2.84189 2.14636 61.6028 2.84189 -4.64825 
-55.0636 10.9704 -4.64825 61.6845 10.9704 -4.64825 -52.8064 19.099 -4.64825 
-50.5607 24.127 -4.64825 59.7765 19.099 -4.64825 55.1103 26.8323 -4.64825 
-48.7052 27.2275 -4.64825 -50.5607 27.2275 0.501258 54.8138 27.2275 -4.64825 
46.9817 34.6364 -4.64825 -44.5784 35.356 -4.64825 -42.4322 37.9473 -4.64825 
46.0005 35.356 -4.64825 38.8532 39.977 -4.64825 -37.4081 43.4846 -4.64825 
-34.3036 46.208 -4.64825 -26.1751 51.0545 -4.64825 14.4676 49.3083 -4.64825 
22.5961 46.6675 -4.64825 31.3112 43.4846 -4.64825 30.7247 43.7383 -4.64825 
30.7247 43.4846 1.10959 -24.7255 51.6131 -4.64825 -18.0466 53.7352 -4.64825 
-9.91802 54.4429 -4.64825 -1.78948 53.7199 -4.64825 6.67483 51.6131 -4.64825 
6.33905 51.7001 -4.64825 6.33905 51.6131 -1.86855 -26.1751 -46.711 3.48029 
-18.0466 -50.142 3.48029 -9.91802 -52.4771 3.48029 -1.78948 -53.3533 3.48029 
6.33905 -52.717 3.48029 14.4676 -50.791 3.48029 22.5961 -47.8237 3.48029 
-27.5969 -45.9293 3.48029 -34.3036 -41.8314 3.48029 -26.1751 -45.9293 5.36229 
14.4676 -45.9293 11.14 26.4557 -45.9293 3.48029 22.5961 -45.9293 6.76924 
30.7247 -43.8621 3.48029 38.8532 -38.5596 3.48029 -39.5077 -37.8008 3.48029 
-42.4322 -35.1369 3.48029 39.7788 -37.8008 3.48029 38.8532 -37.8008 5.06935 
46.9817 -30.622 3.48029 -47.3791 -29.6723 3.48029 -50.5607 -25.3991 3.48029 
47.7499 -29.6723 3.48029 46.9817 -29.6723 5.65413 -53.1208 -21.5437 3.48029 
-50.5607 -21.5437 9.56851 53.0272 -21.5437 3.48029 55.1103 -17.4739 3.48029 
-56.4847 -13.4152 3.48029 57.0594 -13.4152 3.48029 55.1103 -13.4152 8.34995 
-58.5991 -5.28664 3.48029 -58.6892 -3.31403 3.48029 60.1282 -5.28664 3.48029 
-58.9715 2.84189 3.48029 -58.6892 5.4654 3.48029 -58.6892 2.84189 4.44085 
61.1767 2.84189 3.48029 55.1103 2.84189 11.532 -58.056 10.9704 3.48029 
60.6175 10.9704 3.48029 55.1103 10.9704 10.8999 -55.2298 19.099 3.48029 
58.0902 19.099 3.48029 55.1103 23.9149 3.48029 55.1103 19.099 7.18611 
-51.3994 27.2275 3.48029 -50.5607 28.6261 3.48029 -50.5607 27.2275 6.04177 
52.7188 27.2275 3.48029 46.9817 33.0678 3.48029 46.9817 27.2275 9.72146 
-46.1995 35.356 3.48029 -42.4322 40.2972 3.48029 30.7247 43.3646 3.48029 
44.2061 35.356 3.48029 38.8532 39.0805 3.48029 38.8532 35.356 9.10897 
-39.1174 43.4846 3.48029 -34.3036 47.0711 3.48029 -34.3036 43.4846 10.2123 
-26.1751 51.1629 3.48029 6.33905 51.4247 3.48029 14.4676 49.2217 3.48029 
14.4676 43.4846 11.1788 30.4886 43.4846 3.48029 22.5961 46.7874 3.48029 
22.5961 43.4846 8.60336 -24.7125 51.6131 3.48029 -18.0466 53.4285 3.48029 
-18.0466 51.6131 7.04123 -9.91802 54.3869 3.48029 -9.91802 51.6131 8.39063 
5.60062 51.6131 3.48029 -1.78948 53.2825 3.48029 -1.78948 51.6131 6.55923 
-18.0466 -46.2036 11.6088 -9.91802 -48.3563 11.6088 -1.78948 -49.2944 11.6088 
6.33905 -48.2943 11.6088 -34.3036 -37.8015 11.6088 -18.7466 -45.9293 11.6088 
-26.1751 -42.6988 11.6088 -18.0466 -45.9293 11.9112 -9.91802 -45.9293 13.9494 
-1.78948 -45.9293 14.8176 13.3949 -45.9293 11.6088 6.33905 -45.9293 13.8966 
14.4676 -45.4688 11.6088 22.5961 -42.0924 11.6088 30.7247 -38.7398 11.6088 
-34.3046 -37.8008 11.6088 -42.4322 -30.1306 11.6088 -34.3036 -37.8008 11.6096 
-26.1751 -37.8008 15.9341 -18.0466 -37.8008 17.2543 -9.91802 -37.8008 18.2077 
-1.78948 -37.8008 18.6782 6.33905 -37.8008 18.3318 14.4676 -37.8008 16.7395 
22.5961 -37.8008 14.8855 32.5349 -37.8008 11.6088 30.7247 -37.8008 12.4745 
38.8532 -33.9956 11.6088 -42.8297 -29.6723 11.6088 -42.4322 -29.6723 11.9802 
-34.3036 -29.6723 17.0579 -26.1751 -29.6723 18.8971 -18.0466 -29.6723 19.1359 
-9.91802 -29.6723 19.1939 -1.78948 -29.6723 19.7064 14.4676 -29.6723 18.9103 
22.5961 -29.6723 17.915 30.7247 -29.6723 17.3145 43.9235 -29.6723 11.6088 
38.8532 -29.6723 14.8675 46.9817 -25.8422 11.6088 -49.1623 -21.5437 11.6088 
-50.5607 -17.5717 11.6088 -42.4322 -21.5437 15.6135 -34.3036 -21.5437 18.5256 
[...]
POINT_DATA 540
SCALARS ImageScalars float
LOOKUP_TABLE default
0 0 0 0 0 0 0 0 0 
0 0 0 0 0 0 0 0 0 
0 0 0 0 0 0 0 0 0 
0 0 0 0 0 0 0 0 0 
0 0 0 0 0 0 0 0 0 
0 0 0 0 0 0 0 0 0 
0 0 0 0 0 0 0 0 0 
0 0 0 0 0 0 0 0 0 
0 0 0 0 0 0 0 0 0 
0 0 0 0 0 0 0 0 0 
0 0 0 0 0 0 0 0 0 
0 0 0 0 0 0 0 0 0 
0 0 0 0 0 0 0 0 0 
0 0 0 0 0 0 0 0 0 
0 0 0 0 0 0 0 0 0 
0 0 0 0 0 0 0 0 0 
0 0 0 0 0 0 0 0 0 
0 0 0 0 0 0 0 0 0 
0 0 0 0 0 0 0 0 0 
0 0 0 0 0 0 0 0 0 
0 0 0 0 0 0 0 0 0 
0 0 0 0 0 0 0 0 0 
0 0 0 0 0 0 0 0 0 
0 0 0 0 0 0 0 0 0 
0 0 0 0 0 0 0 0 0 
0 0 0 0 0 0 0 0 0 
0 0 0 0 0 0 0 0 0 
0 0 0 0 0 0 0 0 0 
0 0 0 0 0 0 0 0 0 
0 0 0 0 0 0 0 0 0 
0 0 0 0 0 0 0 0 0 
0 0 0 0 0 0 0 0 0 
0 0 0 0 0 0 0 0 0 
0 0 0 0 0 0 0 0 0 
0 0 0 0 0 0 0 0 0 
0 0 0 0 0 0 0 0 0 
0 0 0 0 0 0 0 0 0 
0 0 0 0 0 0 0 0 0 
0 0 0 0 0 0 0 0 0 
0 0 0 0 0 0 0 0 0 
0 0 0 0 0 0 0 0 0 
0 0 0 0 0 0 0 0 0 
0 0 0 0 0 0 0 0 0 
0 0 0 0 0 0 0 0 0 
0 0 0 0 0 0 0 0 0 
0 0 0 0 0 0 0 0 0 
0 0 0 0 0 0 0 0 0 
0 0 0 0 0 0 0 0 0 
0 0 0 0 0 0 0 0 0 
0 0 0 0 0 0 0 0 0 
0 0 0 0 0 0 0 0 0 
0 0 0 0 0 0 0 0 0 
0 0 0 0 0 0 0 0 0 
0 0 0 0 0 0 0 0 0 
0 0 0 0 0 0 0 0 0 
0 0 0 0 0 0 0 0 0 
0 0 0 0 0 0 0 0 0 
0 0 0 0 0 0 0 0 0 
0 0 0 0 0 0 0 0 0 
0 0 0 0 0 0 0 0 0 

NORMALS Normals float
0.2825 0.661588 0.694618 0.100761 0.551454 0.828098 -0.0347558 0.521522 0.85253 
-0.139425 0.504515 0.852071 -0.259464 0.580198 0.772042 0.47604 0.590957 0.651272 
0.279563 0.411697 0.867381 0.121615 0.263215 0.957041 0.0465858 0.19925 0.978841 
-0.0630734 0.178581 0.981902 -0.121158 0.169416 0.978069 -0.137496 0.234608 0.962317 
-0.268533 0.319946 0.908584 -0.39066 0.467752 0.792839 0.567908 0.4751 0.672132 
0.305026 0.287336 0.907963 0.101988 0.133487 0.985789 0.0500222 0.0656592 0.996588 
0.00601989 -0.0141652 0.999882 -0.0727259 -0.0415871 0.996485 -0.0936688 -0.0313963 0.995108 
-0.0807562 0.0329425 0.996189 -0.128037 0.117897 0.984737 -0.29962 0.249925 0.920742 
0.422707 0.221105 0.878881 0.16111 0.107752 0.981037 0.037152 0.0314294 0.998815 
-0.0255544 -0.0674018 0.997399 -0.0589412 -0.13641 0.988897 -0.0839418 -0.0241532 0.996178 
-0.0493883 -0.0896506 0.994748 0.00590085 -0.070558 0.99749 -0.0367118 0.0457121 0.99828 
-0.168019 0.135733 0.976394 -0.365148 0.273224 0.889952 0.33877 0.0146563 0.940755 
0.112382 0.00353214 0.993659 -0.0705166 -0.0409893 0.996668 -0.122072 -0.0686407 0.990145 
0.0546069 0.0313907 0.998014 -0.0179969 0.0666692 0.997613 -0.137554 0.0779264 0.987424 
0.0553876 -0.0182668 0.998298 0.0774694 0.00162365 0.996993 -0.0573935 0.0836869 0.994838 
-0.248356 0.184949 0.950849 -0.444768 0.354076 0.822685 0.318815 -0.125535 0.939467 
0.100471 -0.140721 0.984938 -0.03623 -0.104433 0.993872 0.0512354 -0.0315334 0.998189 
0.0837433 0.173064 0.981344 -0.0613008 -0.104789 0.992603 -0.129424 0.0867165 0.98779 
-0.0657549 -0.0722899 0.995214 0.0664029 -0.0578223 0.996116 0.0164205 0.0114349 0.9998 
-0.110844 0.0990722 0.988887 -0.303677 0.204072 0.930664 0.335658 -0.165834 0.927272 
0.146991 -0.18161 0.972323 0.0324618 -0.126201 0.991473 0.143322 -0.0945544 0.985149 
0.0167011 -0.127284 0.991726 -0.111407 0.0431494 0.992838 -0.12325 0.0407929 0.991537 
-0.0798552 -0.0433603 0.995863 0.164124 -0.0196716 0.986244 0.0982801 -0.00622114 0.995139 
-0.0580655 0.0341517 0.997728 -0.265759 0.0483063 0.962828 -0.616618 0.0901242 0.782087 
0.353502 -0.152249 0.922961 0.156958 -0.108248 0.981655 0.0564609 -0.0451486 0.997383 
0.0522211 -0.0251044 0.99832 0.184104 -0.168719 0.968318 0.127752 -0.0035395 0.9918 
-0.201288 -0.0154899 0.97941 -0.104615 0.15076 0.983019 0.0982767 0.0651385 0.993025 
0.0645011 0.0046512 0.997907 -0.0524232 -0.00121865 0.998624 -0.251166 -0.0661029 0.965684 
-0.580254 -0.0842181 0.81007 0.268592 -0.0864227 0.959369 0.116366 0.0171914 0.993058 
0.0223825 0.0808261 0.996477 0.0320312 0.0328225 0.998948 0.0677106 -0.0816547 0.994358 
0.0205396 -0.0621467 0.997856 -0.0280123 0.0957077 0.995015 0.0195671 0.0424682 0.998906 
0.0354775 -0.0522878 0.998002 -0.131279 -0.1449 0.980699 -0.331877 -0.188302 0.924338 
0.382229 -0.159937 0.910121 0.211191 -0.083395 0.973881 0.0750662 -0.00873784 0.99714 
0.0157421 0.018652 0.999702 0.0210382 -0.00638086 0.999758 -0.000506899 -0.0741066 0.99725 
-0.013247 -0.0845341 0.996333 -0.0552179 -0.105028 0.992935 -0.128314 -0.213282 0.968528 
-0.225709 -0.354247 0.907504 -0.43632 -0.497939 0.749454 0.287071 -0.201799 0.936412 
0.119363 -0.171336 0.977955 0.0312437 -0.144011 0.989083 -0.0263917 -0.174207 0.984355 
-0.05672 -0.226085 0.972455 -0.0647931 -0.306843 0.949552 -0.121822 -0.405147 0.906099 
-0.216666 -0.477018 0.851769 0.343541 -0.473038 0.811305 0.114992 -0.373913 0.920307 
0.00708552 -0.397826 0.917434 -0.0536193 -0.443378 0.894729 -0.137691 -0.509711 0.849256 
-0.222621 -0.61201 0.75887 0.299106 0.750433 0.589395 0.12372 0.775665 0.6189 
-0.0190998 0.754175 0.656396 0.0106241 0.991071 0.132914 -0.130495 0.727699 0.673368 
-0.276835 0.654303 0.70374 0.487454 0.617833 0.616985 0.359499 0.724521 0.588073 
0.404111 0.681918 0.609658 0.44565 0.830637 0.333824 -0.313812 0.639942 0.701424 
-0.342369 0.580783 0.738563 -0.392496 0.779856 0.487618 -0.391537 0.469574 0.791327 
0.502542 0.6057 0.616911 0.584776 0.507937 0.632484 -0.392382 0.46869 0.791433 
-0.674449 0.679512 0.288761 0.594382 0.488991 0.638434 -0.46655 0.328337 0.821295 
-0.471687 0.3254 0.819528 -0.515947 0.36157 0.776573 0.678758 0.28356 0.677408 
0.809369 0.36616 0.459183 -0.487711 0.32655 0.809631 -0.497196 0.373252 0.783249 
-0.657065 0.412434 0.631002 0.675737 0.106416 0.729421 0.686224 0.111277 0.718828 
-0.504807 0.380767 0.774717 -0.794299 0.452084 0.405844 0.611467 -0.0891843 0.786228 
0.629301 -0.0851752 0.77248 -0.626406 0.256876 0.735955 -0.649913 0.187603 0.73649 
-0.686005 0.26996 0.675661 0.4909 -0.166365 0.855184 0.607895 -0.1757 0.774334 
-0.651086 0.096002 0.752908 0.448819 -0.155021 0.880074 0.654885 -0.179075 0.734205 
0.392694 -0.220581 0.892824 -0.627548 -0.0891602 0.773456 -0.642005 -0.208297 0.737863 
0.72923 -0.259227 0.633265 0.392256 -0.220635 0.893003 0.393158 -0.221373 0.892424 
-0.626536 -0.281512 0.726776 -0.700156 -0.307648 0.644309 0.448915 -0.192472 0.872599 
0.573331 -0.277406 0.770933 0.409429 -0.260229 0.874442 -0.364706 -0.562377 0.742106 
-0.462005 -0.508902 0.72634 -0.448039 -0.521671 0.726031 0.68409 -0.466311 0.56087 
0.40499 -0.268745 0.873933 0.41455 -0.274547 0.867624 -0.181629 -0.610134 0.771199 
-0.342987 -0.584352 0.735454 -0.260068 -0.624903 0.736112 -0.418623 -0.66549 0.617963 
0.368123 -0.480824 0.795797 0.580588 -0.608897 0.54052 0.35392 -0.498166 0.791562 
0.149308 -0.615972 0.773489 -0.050873 -0.601637 0.797148 -0.0906815 -0.606078 0.790219 
-0.15284 -0.629752 0.761612 -0.22262 -0.616466 0.755255 -0.223471 -0.615975 0.755404 
-0.245049 -0.780046 0.575743 -0.36598 -0.905093 0.216484 0.177152 -0.845285 0.504094 
-0.0463721 -0.839272 0.541731 -0.159004 -0.874953 0.457357 -0.251438 -0.933531 0.255538 
0.0106402 0.991109 0.132627 0.448862 0.886126 0.115337 0.341243 0.933989 0.105915 
0.0111209 0.99111 0.132582 0.184563 0.975811 0.117169 0.0101017 0.991109 0.132671 
0.0106579 0.991256 0.131523 -0.139779 0.979403 0.145709 -0.28307 0.94903 0.138615 
-0.404303 0.900408 0.160638 0.481451 0.86859 0.117287 0.565216 0.814312 0.132013 
-0.496334 0.853489 0.158772 -0.543041 0.818978 0.185423 -0.67476 0.697025 0.242599 
0.665208 0.734479 0.13431 0.704129 0.696002 0.140651 -0.683098 0.687239 0.247143 
0.780975 0.602623 0.164082 0.830916 0.521311 0.194457 -0.755603 0.554498 0.348706 
-0.760602 0.545007 0.352779 -0.787948 0.589953 0.176335 0.872907 0.429922 0.230652 
-0.777502 0.486871 0.398054 -0.819817 0.473464 0.322075 0.930682 0.243392 0.273116 
-0.836135 0.454038 0.307778 0.924602 0.0413822 0.37868 -0.907407 0.324115 0.267509 
0.87094 -0.108548 0.47925 0.998558 -0.0410427 0.0346003 -0.96984 0.0980599 0.223148 
0.804813 -0.22548 0.549031 -0.982514 -0.104974 0.153776 0.815209 -0.294035 0.498976 
0.78884 -0.365548 0.49407 -0.906265 -0.390491 0.161868 -0.783732 -0.609639 0.11876 
0.761035 -0.404302 0.507312 0.863477 -0.478723 0.158845 -0.774577 -0.62116 0.119124 
-0.609813 -0.78171 0.130605 0.751739 -0.510311 0.417698 0.718655 -0.558894 0.41373 
-0.594829 -0.792255 0.136053 -0.4897 -0.850074 0.193824 0.655183 -0.669466 0.350071 
0.597686 -0.731806 0.327463 0.40031 -0.879031 0.258951 -0.295522 -0.923042 0.246292 
-0.310548 -0.914999 0.25756 -0.378049 -0.907212 0.184512 -0.369327 -0.910362 0.186649 
-0.420657 -0.89786 -0.129981 0.361903 -0.900704 0.240329 0.19564 -0.96119 0.194521 
-0.00124093 -0.96412 0.265463 -0.1667 -0.956216 0.240545 -0.2544 -0.93507 0.246831 
-0.252209 -0.935541 0.247294 -0.254358 -0.963629 0.0819838 0.430244 0.875891 -0.218416 
0.326113 0.914695 -0.238712 0.185536 0.951316 -0.246116 0.0142582 0.97097 -0.238777 
-0.149531 0.954702 -0.257266 -0.283402 0.912518 -0.294947 -0.387254 0.870833 -0.302794 
0.452461 0.86522 -0.216041 0.56514 0.797535 -0.21108 0.424786 0.858597 -0.286998 
-0.276141 0.694369 -0.664529 -0.418939 0.863151 -0.281887 -0.367825 0.81738 -0.44339 
-0.450974 0.858208 -0.245154 -0.615991 0.769469 -0.168736 0.641156 0.738814 -0.207539 
0.68878 0.694258 -0.208779 -0.633072 0.75777 -0.158129 -0.600275 0.761746 -0.243748 
-0.778205 0.623328 -0.0765503 0.760552 0.613964 -0.211208 0.811456 0.551456 -0.193483 
-0.791507 0.606625 -0.0743146 -0.771947 0.607057 -0.188625 0.85677 0.481662 -0.184248 
0.754181 0.423252 -0.502064 -0.871419 0.488083 -0.0490269 -0.897401 0.432436 -0.0875763 
0.925808 0.32308 -0.196209 -0.913759 0.385707 -0.127572 -0.859965 0.311638 -0.404155 
0.983457 0.143547 -0.110486 0.990428 0.101728 -0.0932937 -0.939549 0.244669 -0.239552 
0.998706 -0.0307751 -0.0404785 0.994976 -0.0930175 -0.0370099 0.994466 -0.0282636 -0.101186 
-0.954638 0.0276854 -0.296478 -0.618909 -0.0348991 -0.784687 0.973485 -0.226909 -0.0289586 
-0.914205 -0.166457 -0.369488 -0.608625 -0.177162 -0.773427 0.931763 -0.361362 -0.0351417 
-0.801435 -0.42052 -0.425282 -0.745667 -0.523503 -0.41222 -0.677146 -0.417043 -0.606258 
0.87271 -0.487853 -0.019414 0.862773 -0.504834 -0.0276652 0.857167 -0.47918 -0.188817 
-0.709961 -0.578805 -0.401174 -0.618758 -0.692322 -0.371254 -0.507122 -0.458006 -0.730108 
0.804459 -0.588732 -0.0789993 0.731114 -0.676515 -0.0883145 -0.428905 -0.864673 -0.261497 
-0.582049 -0.736737 -0.344147 -0.510879 -0.799095 -0.316938 -0.45331 -0.614995 -0.645207 
0.643446 -0.755734 -0.121835 0.535821 -0.827946 -0.165532 0.431576 -0.698047 -0.571378 
0.340332 -0.912916 -0.225294 -0.236956 -0.937379 -0.255289 -0.275511 -0.923559 -0.266708 
-0.199272 -0.616427 -0.76178 -0.426128 -0.866546 -0.259834 -0.32466 -0.909445 -0.259819 
-0.278591 -0.752546 -0.596709 0.310735 -0.922332 -0.229667 0.185773 -0.948624 -0.256125 
0.171483 -0.882417 -0.438102 -0.00904458 -0.96314 -0.268848 -0.0192545 -0.833909 -0.551566 
-0.231662 -0.93857 -0.255772 -0.178186 -0.942156 -0.283886 -0.165772 -0.875246 -0.454382 
0.269892 0.747547 -0.606904 0.158607 0.754519 -0.636824 -0.00309163 0.765123 -0.643877 
-0.178498 0.743309 -0.644694 0.506487 0.659392 -0.555583 0.279027 0.747667 -0.60261 
0.370346 0.719428 -0.587594 0.265984 0.737605 -0.620638 0.142725 0.656494 -0.740706 
-0.00261058 0.6151 -0.788445 -0.262556 0.682548 -0.68205 -0.175794 0.650554 -0.738834 
-0.272328 0.669512 -0.69108 -0.286463 0.651722 -0.70228 -0.33162 0.642047 -0.691233 
0.5065 0.659382 -0.555583 0.623966 0.515822 -0.587021 0.506479 0.659371 -0.555616 
0.279574 0.513567 -0.811226 0.128637 0.371513 -0.919473 0.0819753 0.268085 -0.959901 
0.00861244 0.264367 -0.964384 -0.107972 0.304589 -0.946344 -0.198532 0.390269 -0.899042 
-0.22989 0.489003 -0.841443 -0.358333 0.644282 -0.675646 -0.317031 0.614717 -0.722228 
-0.447574 0.63774 -0.626869 0.628497 0.509435 -0.587765 0.619862 0.501498 -0.603548 
0.345093 0.332808 -0.877582 0.117289 0.210417 -0.97055 0.0168997 0.124231 -0.992109 
0.0351948 0.0276981 -0.998997 0.0355774 -0.0104996 -0.999312 -0.11072 0.134148 -0.984757 
-0.0943046 0.24847 -0.964038 -0.164164 0.369649 -0.914554 -0.58912 0.558941 -0.583543 
-0.375075 0.505378 -0.777117 -0.666903 0.478429 -0.571268 0.679245 0.374552 -0.631139 
0.690941 0.308802 -0.653637 0.445182 0.260652 -0.856664 0.230292 0.0929636 -0.968671 
-0.0700482 0.0133707 -0.997454 -0.0533691 -0.0953494 -0.994012 0.0530332 -0.0866777 -0.994824 
0.0351426 0.0336395 -0.998816 -0.0199888 -0.0118103 -0.99973 0.0190027 0.0684391 -0.997474 
-0.025599 0.132102 -0.990906 -0.275955 0.224123 -0.934675 -0.700812 0.401531 -0.589606 
-0.603357 0.343948 -0.719486 0.68386 0.232715 -0.691505 0.641252 0.207019 -0.738877 
0.307812 0.151026 -0.939384 0.141736 0.0180302 -0.98974 0.0312744 -0.0834207 -0.996024 
-0.119452 -0.0887776 -0.988863 -0.0618219 0.103144 -0.992743 0.176732 0.0346967 -0.983647 
-0.0725424 -0.0608795 -0.995506 0.0614414 -0.0353422 -0.997485 0.00100855 -0.0155847 -0.999878 
-0.200659 0.0119537 -0.979588 -0.736828 0.232512 -0.634841 -0.468414 0.160393 -0.868828 
-0.714483 0.0817859 -0.694856 0.681013 0.163945 -0.713682 0.523091 0.106042 -0.845654 
0.255093 0.0804338 -0.963565 0.00187733 -0.00344913 -0.999992 -0.0509581 -0.104512 -0.993217 
0.12983 -0.146968 -0.980584 0.037553 -0.0831394 -0.99583 -0.147034 -0.0531791 -0.987701 
0.0659407 -0.110563 -0.991679 0.0193268 -0.10641 -0.994135 -0.121376 -0.0834066 -0.989096 
-0.390918 -0.0199412 -0.92021 -0.711324 0.0736266 -0.698997 -0.660211 0.0131337 -0.750965 
-0.70821 0.0724368 -0.702276 0.729617 -0.00131117 -0.683854 0.495346 0.0544638 -0.866987 
0.221236 -0.00884967 -0.97518 -0.0394775 -0.00950095 -0.999175 -0.117363 0.00390843 -0.993081 
0.130694 -0.00505002 -0.99141 -0.0459251 0.0524958 -0.997565 -0.152454 -0.197786 -0.968317 
0.0117446 -0.145001 -0.989362 0.0276533 -0.146622 -0.988806 -0.118938 -0.126571 -0.984801 
-0.612642 -0.0367314 -0.789507 -0.327733 -0.144135 -0.933711 0.74334 -0.198247 -0.638862 
0.553476 -0.107082 -0.825953 0.164404 -0.111467 -0.980075 0.0119744 -0.0290319 -0.999507 
-0.040061 0.0619435 -0.997275 0.0848138 0.136979 -0.986936 -0.131201 0.0111293 -0.991293 
-0.27835 -0.237394 -0.93068 -0.0505081 -0.0930753 -0.994377 0.0903777 -0.0547518 -0.994401 
0.0318552 -0.126923 -0.991401 -0.136342 -0.178008 -0.974538 -0.552102 -0.177653 -0.81463 
-0.325705 -0.192271 -0.925715 0.70404 -0.295295 -0.645855 0.70225 -0.320005 -0.635958 
0.665875 -0.290371 -0.687237 0.2906 -0.192306 -0.937321 0.125207 -0.0337893 -0.991555 
0.0507009 0.0287029 -0.998301 0.00343561 0.0613138 -0.998113 -0.101895 -0.0811264 -0.991482 
-0.201881 -0.147668 -0.968214 -0.0866305 -0.0652197 -0.994103 0.032158 0.0532849 -0.998061 
-0.00637524 -0.0396787 -0.999192 -0.0941311 -0.115955 -0.988784 -0.194698 -0.209954 -0.958129 
-0.408769 -0.287512 -0.866167 -0.404532 -0.316557 -0.857989 -0.373449 -0.269555 -0.887624 
0.661075 -0.367606 -0.6541 0.444128 -0.267458 -0.855112 0.226831 -0.17041 -0.95891 
0.0541876 -0.0898804 -0.994477 -0.0218866 -0.0888387 -0.995806 -0.116047 -0.110224 -0.987109 
-0.145548 -0.0729202 -0.98666 -0.0550867 -0.0133954 -0.998392 -0.027186 -0.0474903 -0.998502 
-0.081225 -0.143222 -0.986352 -0.146447 -0.202255 -0.968321 -0.372757 -0.348035 -0.860188 
-0.345044 -0.400838 -0.848689 -0.28428 -0.280064 -0.916924 0.599406 -0.513408 -0.614105 
0.594876 -0.517237 -0.615296 0.590644 -0.508955 -0.626183 0.387963 -0.628585 -0.674066 
0.293617 -0.378542 -0.877778 0.140075 -0.262926 -0.954594 -0.0117159 -0.249602 -0.968278 
-0.0916929 -0.224269 -0.970204 -0.0970594 -0.195361 -0.975917 -0.0624564 -0.192422 -0.979323 
-0.190454 -0.573581 -0.796701 -0.105663 -0.251806 -0.961992 -0.209757 -0.507751 -0.835578 
-0.162962 -0.337906 -0.926964 -0.26515 -0.485513 -0.83305 -0.239573 -0.490049 -0.838127 
-0.227952 -0.466236 -0.854788 0.35096 -0.647543 -0.676399 0.250023 -0.652523 -0.715334 
0.21841 -0.581556 -0.783639 0.123495 -0.666943 -0.734804 0.0554185 -0.472006 -0.879852 
-0.0330156 -0.630273 -0.775671 -0.0511435 -0.416681 -0.907613 -0.129886 -0.584215 -0.801138 
-0.120717 -0.420513 -0.89922 -0.18644 -0.576204 -0.795757 -0.164506 -0.559953 -0.812028 
-0.143434 -0.488299 -0.860808 -0.0498543 0.0748556 -0.995947 0.05687 0.0379544 -0.99766 
-0.00452157 0.0276877 -0.999606 -0.0509104 0.0719535 -0.996108 -0.038588 0.0654287 -0.997111 
-0.0484787 0.0694328 -0.996408 0.0572907 0.0370629 -0.997669 0.0543404 0.0364853 -0.997856 
0.0558181 0.0333688 -0.997883 0.0565501 0.0368224 -0.99772 0.0300603 0.0551235 -0.998027 
0.0458025 0.169027 -0.984547 0.0683751 0.0910348 -0.993498 -0.0184968 0.0431239 -0.998899 
0.0120662 0.106917 -0.994195 0.105398 0.0754203 -0.991566 0.055228 0.00770106 -0.998444 
0.0847264 0.185425 -0.978999 0.0132042 -0.0693462 -0.997505 -0.122642 -0.0345762 -0.991848 
-0.0692784 -0.0289795 -0.997176 0.0599961 -0.0389922 -0.997437 0.00945423 -0.035176 -0.999336 
0.0289304 -0.0525509 -0.998199 0.057743 -0.229793 -0.971525 0.0483435 -0.237049 -0.970294 
0.0452014 -0.240701 -0.969546 0.0617866 -0.237363 -0.969454 0.0977418 -0.0866645 -0.991431 
0.000603676 -0.0528439 -0.998603 0.0766064 -0.0971452 -0.992318 0.0977921 -0.09843 -0.990327 

