# vtk DataFile Version 4.2
vtk output
ASCII
DATASET POLYDATA
POINTS 520 float
19.8595 -26.0037 -22.8581 -11.3855 -41.6261 -16.9488 -3.57426 -41.6261 -17.8998 
4.23698 -41.6261 -17.9362 12.0482 -41.6261 -17.3657 19.8595 -41.6261 -15.2269 
-27.008 -33.8149 -15.8885 -19.1967 -33.8149 -18.5786 -11.3855 -33.8149 -19.7073 
-3.57426 -33.8149 -20.0222 4.23698 -33.8149 -20.4862 12.0482 -33.8149 -20.9587 
19.8595 -26.4247 -22.7809 19.8595 -33.8149 -21.2203 27.6707 -33.8149 -18.6839 
-34.8192 -26.0037 -15.7913 -27.008 -26.0037 -19.3481 -19.1967 -26.0037 -19.9691 
-11.3855 -26.0037 -20.1288 -3.57426 -26.0037 -20.4775 4.23698 -26.0037 -21.1284 
19.2839 -26.0037 -22.7809 12.0482 -26.0037 -21.8466 20.3005 -26.0037 -22.7809 
19.8595 -23.9774 -22.7809 27.6707 -26.0037 -21.551 35.4819 -26.0037 -19.1361 
-34.8192 -18.1924 -19.0739 -27.008 -18.1924 -20.9296 -19.1967 -18.1924 -20.722 
-11.3855 -18.1924 -20.2276 -3.57426 -18.1924 -20.1416 4.23698 -18.1924 -20.7641 
12.0482 -18.1924 -21.8722 19.8595 -18.1924 -22.5695 27.6707 -18.1924 -22.7175 
35.4819 -18.1924 -22.0333 43.2932 -18.1924 -17.9982 -42.6305 -10.3812 -16.335 
-34.8192 -10.3812 -20.0686 -27.008 -10.3812 -21.0781 -19.1967 -10.3812 -21.0332 
-11.3855 -10.3812 -21.2316 -3.57426 -10.3812 -22.5019 4.23698 -10.3812 -22.1782 
12.0482 -10.3812 -21.3626 19.8595 -10.3812 -21.4196 27.6707 -10.3812 -22.1126 
35.4819 -10.3812 -22.0411 43.2932 -10.3812 -20.3793 -42.6305 -2.56995 -16.6267 
-34.8192 -2.56995 -19.9996 -27.008 -2.56995 -20.7137 -19.1967 -2.56995 -20.3986 
-11.3855 -2.56995 -21.5262 -3.57426 -2.56995 -21.6976 4.23698 -2.56995 -21.7881 
12.0482 -2.56995 -21.3457 19.8595 -2.56995 -21.0727 27.6707 -2.56995 -22.3338 
35.4819 -2.56995 -22.4244 43.2932 -2.56995 -20.9155 51.1044 -2.56995 -15.601 
-42.6305 5.24129 -16.0218 -34.8192 5.24129 -19.4314 -27.008 5.24129 -20.3396 
-19.1967 5.24129 -20.7477 -11.3855 5.24129 -21.7224 -3.57426 5.24129 -21.7147 
4.23698 5.24129 -21.7166 12.0482 5.24129 -21.771 19.8595 5.24129 -21.5843 
27.6707 5.24129 -22.2508 35.4819 5.24129 -21.9934 43.2932 5.24129 -19.9086 
-42.6305 13.0525 -15.2152 -34.8192 13.0525 -19.3588 -27.008 13.0525 -20.9154 
-19.1967 13.0525 -21.4145 -11.3855 13.0525 -21.9344 -3.57426 13.0525 -22.1819 
4.23698 13.0525 -21.9017 12.0482 13.0525 -21.5693 19.8595 13.0525 -21.8195 
27.6707 13.0525 -21.7797 35.4819 13.0525 -20.6266 43.2932 13.0525 -17.4704 
-34.8192 20.8638 -18.2345 -27.008 20.8638 -20.2931 -19.1967 20.8638 -20.9509 
-11.3855 20.8638 -20.871 -3.57426 20.8638 -20.7157 4.23698 20.8638 -20.8687 
12.0482 20.8638 -21.2603 19.8595 20.8638 -21.5998 27.6707 20.8638 -21.0318 
35.4819 20.8638 -18.9336 -27.008 28.675 -17.8732 -19.1967 28.675 -19.059 
-11.3855 28.675 -19.5076 -3.57426 28.675 -19.654 4.23698 28.675 -20.0148 
12.0482 28.675 -20.6693 19.8595 28.675 -20.4663 27.6707 28.675 -19.4499 
35.4819 28.675 -15.3632 -11.3855 36.4862 -16.3518 -3.57426 36.4862 -17.241 
4.23698 36.4862 -17.8153 12.0482 36.4862 -18.0663 19.8595 36.4862 -17.9216 
27.6707 36.4862 -15.6418 -11.3855 -44.2235 -14.9697 -3.57426 -45.4596 -14.9697 
4.23698 -45.3288 -14.9697 12.0482 -44.0438 -14.9697 19.8595 -41.8342 -14.9697 
-27.008 -35.3621 -14.9697 -18.0756 -41.6261 -14.9697 -19.1967 -40.9501 -14.9697 
-19.1967 -41.6261 -14.4122 20.3148 -41.6261 -14.9697 27.6707 -37.8262 -14.9697 
-28.7115 -33.8149 -14.9697 -34.8192 -27.5087 -14.9697 -34.8192 -33.8149 -7.20096 
33.3248 -33.8149 -14.9697 35.4819 -31.8974 -14.9697 -35.9514 -26.0037 -14.9697 
41.2491 -26.0037 -14.9697 43.2932 -23.3804 -14.9697 -41.3515 -18.1924 -14.9697 
-42.6305 -15.2517 -14.9697 -42.6305 -18.1924 -13.0947 46.8521 -18.1924 -14.9697 
-44.1242 -10.3812 -14.9697 50.5993 -10.3812 -14.9697 51.1044 -6.94314 -14.9697 
51.1044 -10.3812 -13.5317 -44.6053 -2.56995 -14.9697 51.6324 -2.56995 -14.9697 
51.1044 2.48884 -14.9697 -43.9571 5.24129 -14.9697 50.6847 5.24129 -14.9697 
51.1044 5.24129 -13.9656 -42.911 13.0525 -14.9697 -42.6305 14.3662 -14.9697 
46.1281 13.0525 -14.9697 43.2932 17.6769 -14.9697 -40.7812 20.8638 -14.9697 
-42.6305 20.8638 -13.2875 -34.8192 27.6986 -14.9697 41.02 20.8638 -14.9697 
43.2932 20.8638 -10.9696 -33.6397 28.675 -14.9697 -34.8192 28.675 -14.2325 
-27.008 32.4961 -14.9697 -19.1967 35.5233 -14.9697 35.8802 28.675 -14.9697 
35.4819 29.2354 -14.9697 -27.008 36.4862 -9.99488 -16.774 36.4862 -14.9697 
-19.1967 36.4862 -14.0495 -11.3855 38.2769 -14.9697 -3.57426 39.7613 -14.9697 
4.23698 40.5707 -14.9697 12.0482 41.5656 -14.9697 19.8595 40.3645 -14.9697 
28.6232 36.4862 -14.9697 27.6707 37.2027 -14.9697 -3.57426 44.2975 -9.40034 
4.23698 44.2975 -10.779 12.0482 44.2975 -12.1197 19.8595 44.2975 -9.09121 
-19.1967 -46.2912 -7.15841 -11.3855 -48.6774 -7.15841 -3.57426 -49.3606 -7.15841 
4.23698 -48.7572 -7.15841 12.0482 -47.1073 -7.15841 19.8595 -44.0111 -7.15841 
-34.8192 -33.8395 -7.15841 -26.9608 -41.6261 -7.15841 -27.008 -41.5922 -7.15841 
-27.008 -41.6261 -6.28119 24.3229 -41.6261 -7.15841 27.6707 -39.6725 -7.15841 
-34.8399 -33.8149 -7.15841 35.3109 -33.8149 -7.15841 35.4819 -33.6664 -7.15841 
-40.5226 -26.0037 -7.15841 -42.6305 -22.5637 -7.15841 43.0899 -26.0037 -7.15841 
43.2932 -25.7665 -7.15841 -45.0282 -18.1924 -7.15841 49.0589 -18.1924 -7.15841 
51.1044 -14.1244 -7.15841 -47.8484 -10.3812 -7.15841 52.7657 -10.3812 -7.15841 
51.1044 -10.3812 -2.19452 -49.1386 -2.56995 -7.15841 54.1013 -2.56995 -7.15841 
-49.4925 5.24129 -7.15841 -50.4417 5.24129 -0.602458 52.9973 5.24129 -7.15841 
51.1044 9.94288 -7.15841 -48.9827 13.0525 -7.15841 49.7723 13.0525 -7.15841 
-46.6732 20.8638 -7.15841 -42.6305 27.8629 -7.15841 44.9525 20.8638 -7.15841 
43.2932 23.6427 -7.15841 -41.9485 28.675 -7.15841 -42.6305 28.675 -5.45494 
-34.8192 34.6499 -7.15841 40.2076 28.675 -7.15841 35.4819 35.5173 -7.15841 
-31.1607 36.4862 -7.15841 -34.8192 36.4862 -0.638848 -27.008 38.2597 -7.15841 
-19.1967 41.1688 -7.15841 -11.3855 43.7315 -7.15841 34.715 36.4862 -7.15841 
27.6707 42.3509 -7.15841 -8.88608 44.2975 -7.15841 -11.3855 44.2975 -4.17763 
-3.57426 45.4689 -7.15841 4.23698 46.3881 -7.15841 12.0482 46.8354 -7.15841 
22.665 44.2975 -7.15841 19.8595 45.2764 -7.15841 -27.008 -41.8705 0.652825 
-19.1967 -46.3561 0.652825 -11.3855 -48.4655 0.652825 -3.57426 -49.1303 0.652825 
4.23698 -48.4527 0.652825 12.0482 -46.279 0.652825 19.8595 -42.8885 0.652825 
-27.2957 -41.6261 0.652825 -34.8192 -34.0842 0.652825 -27.008 -41.6261 1.54521 
22.0204 -41.6261 0.652825 19.8595 -41.6261 4.21606 27.6707 -37.6152 0.652825 
-35.0449 -33.8149 0.652825 -34.8192 -33.8149 1.55623 32.4088 -33.8149 0.652825 
27.6707 -33.8149 7.82634 35.4819 -30.834 0.652825 -40.4656 -26.0037 0.652825 
-42.6305 -22.331 0.652825 40.0247 -26.0037 0.652825 35.4819 -26.0037 6.76692 
43.2932 -21.8402 0.652825 -44.8951 -18.1924 0.652825 45.8964 -18.1924 0.652825 
43.2932 -18.1924 4.03544 -48.0184 -10.3812 0.652825 50.044 -10.3812 0.652825 
51.1044 -7.08087 0.652825 -49.7218 -2.56995 0.652825 -50.4417 3.72396 0.652825 
52.4662 -2.56995 0.652825 51.1044 -2.56995 3.33564 -50.6121 5.24129 0.652825 
-50.4417 12 0.652825 -50.4417 5.24129 1.40856 52.4058 5.24129 0.652825 
51.1044 9.2112 0.652825 51.1044 5.24129 3.90282 -50.4144 13.0525 0.652825 
49.7859 13.0525 0.652825 -48.3416 20.8638 0.652825 45.3385 20.8638 0.652825 
43.2932 24.1108 0.652825 43.2932 20.8638 7.34239 -44.2738 28.675 0.652825 
-42.6305 30.5854 0.652825 40.324 28.675 0.652825 35.4819 35.5231 0.652825 
-35.2438 36.4862 0.652825 -34.8192 36.7728 0.652825 -27.008 40.7632 0.652825 
-19.1967 43.191 0.652825 34.7542 36.4862 0.652825 27.6707 42.8075 0.652825 
-14.8438 44.2975 0.652825 -11.3855 45.1393 0.652825 -3.57426 46.627 0.652825 
4.23698 47.6098 0.652825 12.0482 47.5035 0.652825 24.5387 44.2975 0.652825 
19.8595 46.2703 0.652825 19.8595 44.2975 8.13687 -19.1967 -44.2708 8.46406 
-11.3855 -46.7553 8.46406 -3.57426 -47.467 8.46406 4.23698 -46.6589 8.46406 
12.0482 -44.0058 8.46406 -23.8833 -41.6261 8.46406 -27.008 -39.5746 8.46406 
-19.1967 -41.6261 13.2696 16.8207 -41.6261 8.46406 12.0482 -41.6261 12.5497 
19.8595 -39.8866 8.46406 -32.89 -33.8149 8.46406 -34.8192 -31.5559 8.46406 
-27.008 -33.8149 16.0668 27.278 -33.8149 8.46406 19.8595 -33.8149 16.0136 
27.6707 -33.4447 8.46406 -38.7603 -26.0037 8.46406 -42.6305 -19.2587 8.46406 
-34.8192 -26.0037 14.903 34.3856 -26.0037 8.46406 27.6707 -26.0037 16.2161 
35.4819 -24.4016 8.46406 -43.212 -18.1924 8.46406 -42.6305 -18.1924 9.72919 
39.9022 -18.1924 8.46406 35.4819 -18.1924 12.9231 43.2932 -13.1156 8.46406 
-46.255 -10.3812 8.46406 -42.6305 -10.3812 14.8176 35.4819 -10.3812 16.1171 
44.9236 -10.3812 8.46406 43.2932 -10.3812 10.2029 -47.9618 -2.56995 8.46406 
48.0948 -2.56995 8.46406 43.2932 -2.56995 13.6206 -48.6537 5.24129 8.46406 
-42.6305 5.24129 15.9004 49.1352 5.24129 8.46406 43.2932 5.24129 15.3786 
-48.374 13.0525 8.46406 -42.6305 13.0525 15.0572 47.3515 13.0525 8.46406 
43.2932 20.2795 8.46406 43.2932 13.0525 13.8385 -46.6334 20.8638 8.46406 
-42.6305 20.8638 13.8261 42.8917 20.8638 8.46406 -42.9358 28.675 8.46406 
-42.6305 29.0677 8.46406 -42.6305 28.675 8.97479 37.5489 28.675 8.46406 
35.4819 31.4041 8.46406 35.4819 28.675 11.0886 -35.4502 36.4862 8.46406 
-34.8192 36.9652 8.46406 -34.8192 36.4862 9.65131 -27.008 40.915 8.46406 
-19.1967 43.1076 8.46406 19.8595 44.188 8.46406 31.4564 36.4862 8.46406 
27.6707 39.9537 8.46406 27.6707 36.4862 12.3775 -12.4886 44.2975 8.46406 
-11.3855 44.4898 8.46406 -11.3855 44.2975 8.97976 -3.57426 45.4502 8.46406 
-3.57426 44.2975 10.8768 4.23698 46.1463 8.46406 4.23698 44.2975 11.8078 
19.5006 44.2975 8.46406 12.0482 46.0718 8.46406 12.0482 44.2975 11.5971 
-11.3855 -42.669 16.2753 -3.57426 -43.5903 16.2753 4.23698 -42.3361 16.2753 
-14.3847 -41.6261 16.2753 -19.1967 -39.3749 16.2753 -11.3855 -41.6261 17.4403 
-3.57426 -41.6261 18.4105 6.04611 -41.6261 16.2753 4.23698 -41.6261 16.9926 
12.0482 -38.3912 16.2753 -26.7567 -33.8149 16.2753 -27.008 -33.565 16.2753 
-19.1967 -33.8149 20.2169 -11.3855 -33.8149 22.5217 -3.57426 -33.8149 22.9455 
[...]
POINT_DATA 520
SCALARS ImageScalars float
LOOKUP_TABLE default
0 0 0 0 0 0 0 0 0 
0 0 0 0 0 0 0 0 0 
0 0 0 0 0 0 0 0 0 
0 0 0 0 0 0 0 0 0 
0 0 0 0 0 0 0 0 0 
0 0 0 0 0 0 0 0 0 
0 0 0 0 0 0 0 0 0 
0 0 0 0 0 0 0 0 0 
0 0 0 0 0 0 0 0 0 
0 0 0 0 0 0 0 0 0 
0 0 0 0 0 0 0 0 0 
0 0 0 0 0 0 0 0 0 
0 0 0 0 0 0 0 0 0 
0 0 0 0 0 0 0 0 0 
0 0 0 0 0 0 0 0 0 
0 0 0 0 0 0 0 0 0 
0 0 0 0 0 0 0 0 0 
0 0 0 0 0 0 0 0 0 
0 0 0 0 0 0 0 0 0 
0 0 0 0 0 0 0 0 0 
0 0 0 0 0 0 0 0 0 
0 0 0 0 0 0 0 0 0 
0 0 0 0 0 0 0 0 0 
0 0 0 0 0 0 0 0 0 
0 0 0 0 0 0 0 0 0 
0 0 0 0 0 0 0 0 0 
0 0 0 0 0 0 0 0 0 
0 0 0 0 0 0 0 0 0 
0 0 0 0 0 0 0 0 0 
0 0 0 0 0 0 0 0 0 
0 0 0 0 0 0 0 0 0 
0 0 0 0 0 0 0 0 0 
0 0 0 0 0 0 0 0 0 
0 0 0 0 0 0 0 0 0 
0 0 0 0 0 0 0 0 0 
0 0 0 0 0 0 0 0 0 
0 0 0 0 0 0 0 0 0 
0 0 0 0 0 0 0 0 0 
0 0 0 0 0 0 0 0 0 
0 0 0 0 0 0 0 0 0 
0 0 0 0 0 0 0 0 0 
0 0 0 0 0 0 0 0 0 
0 0 0 0 0 0 0 0 0 
0 0 0 0 0 0 0 0 0 
0 0 0 0 0 0 0 0 0 
0 0 0 0 0 0 0 0 0 
0 0 0 0 0 0 0 0 0 
0 0 0 0 0 0 0 0 0 
0 0 0 0 0 0 0 0 0 
0 0 0 0 0 0 0 0 0 
0 0 0 0 0 0 0 0 0 
0 0 0 0 0 0 0 0 0 
0 0 0 0 0 0 0 0 0 
0 0 0 0 0 0 0 0 0 
0 0 0 0 0 0 0 0 0 
0 0 0 0 0 0 0 0 0 
0 0 0 0 0 0 0 0 0 
0 0 0 0 0 0 0 
NORMALS Normals float
-0.020344 0.0726761 0.997148 0.175272 0.528193 0.830838 0.0619374 0.475343 0.877618 
-0.0307369 0.523209 0.85165 -0.137822 0.661009 0.737613 -0.32644 0.792215 0.515588 
0.39763 0.464384 0.791352 0.235793 0.285174 0.92902 0.0820407 0.184843 0.979338 
0.0504973 0.157751 0.986187 0.0608304 0.190115 0.979876 0.042798 0.245266 0.968511 
-0.0245111 0.0874837 0.995864 -0.118944 0.377484 0.918345 -0.381805 0.5529 0.740626 
0.523254 0.428602 0.73655 0.231079 0.292871 0.927809 0.0453972 0.129207 0.990578 
0.0322414 0.0350131 0.998867 0.0637294 0.00694501 0.997943 0.0874648 0.016503 0.996031 
-0.0104379 0.071779 0.997366 0.108793 0.061057 0.992188 -0.0311435 0.0804959 0.996268 
-0.000460435 0.0286044 0.999591 -0.213144 0.22322 0.951179 -0.438382 0.428238 0.790211 
0.373036 0.263616 0.889579 0.091603 0.10073 0.990688 -0.0441374 0.0670902 0.99677 
-0.0370585 0.0683295 0.996974 0.0342066 0.110873 0.993246 0.110974 0.0667538 0.991579 
0.114763 -0.0303053 0.992931 0.0535679 -0.0908844 0.99442 -0.0297788 0.0374204 0.998856 
-0.252516 0.157244 0.95473 -0.575493 0.371482 0.728566 0.657862 0.131744 0.741526 
0.262551 0.0496592 0.96364 0.0627184 -0.0141479 0.997931 0.00933737 -0.0207409 0.999741 
0.0868382 0.0847986 0.992607 0.0615405 0.10861 0.992178 -0.0707698 0.0674045 0.995213 
-0.048389 -0.0338562 0.998255 0.0477633 -0.0952733 0.994305 0.0397163 -0.0232474 0.998941 
-0.106866 0.0248178 0.993964 -0.381636 0.166263 0.909236 0.598303 -0.0195382 0.801032 
0.23167 -0.0410817 0.971927 0.0276609 -0.0472105 0.998502 0.0501487 -0.0183548 0.998573 
0.0845106 0.0308219 0.995946 0.0173888 -0.0471764 0.998735 -0.0224768 -0.0304229 0.999284 
-0.046373 0.0265466 0.998571 0.0648599 0.010668 0.997837 0.0860237 0.0088254 0.996254 
-0.0896665 -0.0027 0.995968 -0.348204 -0.0245936 0.937096 -0.811992 0.00648398 0.583632 
0.571658 -0.0754034 0.81702 0.24827 -0.0416243 0.967796 0.0863418 0.0148969 0.996154 
0.0843755 0.06427 0.994359 0.0634711 0.0264595 0.997633 -0.000361069 0.0311221 0.999516 
0.00359948 0.00729057 0.999967 -0.00867544 0.0131614 0.999876 0.0312031 0.0481088 0.998355 
0.0265579 -0.0353014 0.999024 -0.135657 -0.112716 0.984323 -0.398987 -0.206814 0.89333 
0.606247 -0.125415 0.785325 0.31366 -0.072586 0.946757 0.117648 -0.00108394 0.993055 
0.0673318 0.0137666 0.997636 0.0487254 -0.0566445 0.997205 -0.00169968 -0.065137 0.997875 
-0.0391855 -0.0548313 0.997726 -0.00467715 -0.0323547 0.999466 0.0134665 0.00107419 0.999909 
-0.0734622 -0.0758958 0.994406 -0.24391 -0.182728 0.952428 -0.560325 -0.360986 0.74547 
0.363795 -0.254174 0.89613 0.168184 -0.176676 0.969794 0.0352757 -0.147796 0.988389 
-0.0146197 -0.147247 0.988992 -0.000406088 -0.159805 0.987149 0.0346819 -0.120115 0.992154 
0.0464297 -0.0558438 0.997359 -0.0132142 -0.0836413 0.996408 -0.156911 -0.13764 0.977974 
-0.42528 -0.282994 0.859681 0.249205 -0.461731 0.851294 0.0917315 -0.371058 0.924068 
0.0371033 -0.268535 0.962555 0.0319944 -0.197518 0.979777 0.0625821 -0.174713 0.982629 
0.0312054 -0.188328 0.98161 -0.0694016 -0.226185 0.971609 -0.264169 -0.298339 0.917174 
-0.611342 -0.478921 0.629996 0.16238 -0.534585 0.829368 0.0859106 -0.454391 0.88665 
0.0467073 -0.432091 0.90062 0.0057228 -0.431752 0.901974 -0.117103 -0.47875 0.870107 
-0.41221 -0.580847 0.701926 0.197499 0.658034 0.726626 0.0538072 0.702429 0.709717 
-0.0814858 0.7329 0.675439 -0.19143 0.780626 0.594961 -0.330598 0.799642 0.501277 
0.430062 0.508584 0.745915 0.333982 0.611411 0.717379 0.350712 0.59294 0.72486 
0.365829 0.639528 0.676146 -0.339074 0.798618 0.49723 -0.459001 0.751841 0.473342 
0.457885 0.497914 0.736493 0.554322 0.464187 0.690838 0.749511 0.630396 0.202076 
-0.575622 0.69464 0.431433 -0.609263 0.662292 0.436082 0.568864 0.45112 0.687667 
-0.677667 0.57388 0.459814 -0.69235 0.544609 0.473341 0.696918 0.35621 0.622431 
0.726064 0.282784 0.626789 0.787713 0.381275 0.483877 -0.716842 0.455521 0.527861 
0.732335 0.157447 0.662493 -0.81942 0.23666 0.522056 -0.83784 0.135865 0.528738 
-0.878245 0.253703 0.405366 0.692246 -0.00592987 0.721637 -0.83775 0.0071647 0.546007 
-0.818942 -0.183512 0.543743 0.628676 -0.0778899 0.773757 -0.787554 -0.287879 0.544871 
-0.830477 -0.289576 0.475872 0.61631 -0.127931 0.777043 0.618293 -0.156603 0.770188 
-0.68067 -0.421878 0.598922 -0.677187 -0.440134 0.589661 0.593507 -0.296758 0.748121 
0.690104 -0.323331 0.647467 0.45029 -0.519076 0.726497 -0.657481 -0.440378 0.611381 
-0.788971 -0.492811 0.366964 0.431987 -0.545316 0.718344 0.466356 -0.564916 0.680721 
0.300327 -0.618391 0.726221 0.230265 -0.630121 0.74157 -0.626336 -0.484439 0.610754 
-0.618328 -0.491672 0.613131 0.338198 -0.800273 0.495161 0.221343 -0.626749 0.747123 
0.255868 -0.680449 0.686674 0.182796 -0.609859 0.771141 0.10318 -0.614296 0.782301 
0.0683941 -0.62637 0.77652 -0.0163352 -0.634124 0.773059 -0.185016 -0.660051 0.72808 
-0.44792 -0.590026 0.671742 -0.419466 -0.606385 0.675533 0.153752 -0.89292 0.423148 
0.0910277 -0.855152 0.510323 -0.0480068 -0.824177 0.564294 -0.253622 -0.893408 0.370807 
0.39373 0.88944 0.232105 0.178577 0.964699 0.193561 0.00433318 0.985689 0.16852 
-0.140102 0.979586 0.144161 -0.286481 0.951152 0.115054 -0.421888 0.904794 0.0579436 
0.749795 0.630723 0.199991 0.592605 0.772434 0.228396 0.59383 0.771472 0.228468 
0.59804 0.777954 0.192707 -0.489036 0.871848 0.026928 -0.547388 0.836874 -0.00294719 
0.750091 0.630389 0.199931 -0.655443 0.754376 -0.0362142 -0.657555 0.752511 -0.0367301 
0.824756 0.537079 0.176985 0.861726 0.481446 0.160119 -0.749475 0.660236 -0.0487476 
-0.751872 0.65751 -0.048674 0.898004 0.407848 0.165075 -0.848328 0.527979 -0.0397266 
-0.917632 0.395781 -0.0361739 0.947884 0.249641 0.197978 -0.958502 0.283337 -0.0315366 
-0.907994 0.313438 -0.278035 0.96032 0.0994473 0.260569 -0.998973 0.019118 0.0410813 
0.943667 -0.00820253 0.330796 0.999285 0.0360434 0.0114072 -0.958765 -0.269037 0.0915885 
-0.917033 -0.374711 0.136533 0.916811 -0.161552 0.365182 -0.879023 -0.44423 0.173143 
0.856534 -0.363806 0.366052 0.705454 -0.594194 0.386353 -0.838319 -0.50921 0.194748 
-0.844251 -0.500217 0.192413 0.679994 -0.621337 0.389292 0.716246 -0.624877 0.310676 
0.49196 -0.785243 0.375991 -0.831098 -0.518905 0.200033 -0.751679 -0.626702 0.205483 
0.418194 -0.825445 0.37915 0.518227 -0.841921 0.150363 0.354818 -0.847373 0.395049 
0.30368 -0.87467 0.377798 0.249577 -0.909728 0.331823 -0.728594 -0.650838 0.213448 
-0.472901 -0.842096 0.259304 0.220807 -0.920521 0.322313 0.236757 -0.947408 0.215322 
0.160159 -0.935181 0.315889 0.0849524 -0.937918 0.336293 -0.0666312 -0.959741 0.272871 
-0.323257 -0.905354 0.275388 -0.252612 -0.924066 0.286862 0.603068 0.791739 -0.0972544 
0.372451 0.921064 -0.113676 0.166038 0.978518 -0.122201 -0.000174894 0.992569 -0.121681 
-0.172488 0.976346 -0.130367 -0.32772 0.927848 -0.178037 -0.45912 0.859771 -0.223613 
0.60974 0.786676 -0.0967353 0.766094 0.636566 -0.0887887 0.601576 0.789324 -0.122773 
-0.49453 0.835389 -0.23993 -0.478476 0.824934 -0.300905 -0.578553 0.757868 -0.301515 
0.769626 0.632314 -0.0886306 0.765112 0.633951 -0.112738 -0.625839 0.70355 -0.336665 
-0.615711 0.671146 -0.412872 -0.65815 0.656202 -0.369104 0.842665 0.529743 -0.0963739 
0.871172 0.479783 -0.104247 -0.693349 0.59548 -0.405796 -0.691769 0.542337 -0.476787 
-0.715044 0.548355 -0.433611 0.901636 0.419602 -0.104822 -0.744042 0.501272 -0.441733 
-0.697942 0.495356 -0.517204 0.949874 0.299802 -0.088651 -0.843223 0.329227 -0.424953 
-0.891323 0.238219 -0.38574 0.985401 0.155264 -0.0698441 0.996704 0.0642339 -0.0495541 
-0.934016 0.127626 -0.333656 -0.896003 0.157229 -0.415281 0.998046 0.0435566 -0.0448026 
0.993089 -0.113325 -0.03051 0.996107 0.0430061 -0.0769563 -0.960361 -0.16398 -0.225426 
-0.942301 -0.280725 -0.182383 -0.937029 -0.119254 -0.32826 0.99002 -0.138062 -0.028275 
-0.907748 -0.396318 -0.137567 0.934296 -0.356394 -0.00857488 -0.849096 -0.518201 -0.102486 
-0.853002 -0.50921 -0.114425 -0.780286 -0.518174 -0.350213 0.793751 -0.607366 0.0326497 
0.746972 -0.663129 0.0478836 -0.843955 -0.519961 -0.131837 -0.75881 -0.631657 -0.1588 
0.532623 -0.839452 0.107853 0.521958 -0.845782 0.110514 0.377272 -0.915195 0.141715 
0.261995 -0.958705 0.110647 -0.740405 -0.65295 -0.159552 -0.519312 -0.845584 -0.123702 
0.231151 -0.970308 0.0712195 0.21094 -0.97662 0.0414485 0.155589 -0.987814 -0.00399461 
0.0557805 -0.998317 -0.0158925 -0.0822211 -0.995542 -0.0462123 -0.409461 -0.907116 -0.0973751 
-0.266457 -0.961942 -0.0605617 -0.337551 -0.85868 -0.385653 0.392447 0.855258 -0.338408 
0.177085 0.930156 -0.321639 -0.00497015 0.950313 -0.311258 -0.196867 0.92327 -0.329872 
-0.373677 0.852297 -0.365999 0.502251 0.797821 -0.333506 0.576984 0.744625 -0.335594 
0.391553 0.763032 -0.514266 -0.45125 0.806397 -0.382227 -0.378796 0.768333 -0.515925 
-0.502529 0.767213 -0.398558 0.70577 0.633213 -0.317695 0.741459 0.59449 -0.311159 
0.519779 0.539124 -0.662702 -0.614029 0.667385 -0.421386 -0.440738 0.529359 -0.724934 
-0.619713 0.660511 -0.423888 0.8009 0.511828 -0.310792 0.85576 0.420374 -0.301596 
0.65713 0.458773 -0.598086 -0.690528 0.528027 -0.494328 -0.52321 0.42639 -0.737864 
-0.691748 0.505887 -0.515328 0.861721 0.407152 -0.302762 0.84653 0.40185 -0.349145 
-0.668229 0.453452 -0.589789 -0.640189 0.357703 -0.679857 -0.67294 0.412587 -0.613941 
0.898159 0.282965 -0.336513 0.764995 0.205306 -0.610436 -0.497628 0.269808 -0.82436 
-0.694883 0.369039 -0.61721 -0.656871 0.369998 -0.65698 0.919308 0.134783 -0.369739 
-0.773522 0.213644 -0.596674 -0.619411 0.237237 -0.748364 0.90667 0.0269034 -0.420982 
0.596779 -0.0576021 -0.800335 -0.865757 -0.0492328 -0.498037 -0.618653 0.0176485 -0.785466 
0.888588 -0.123189 -0.441855 0.629543 -0.098903 -0.770645 -0.843499 -0.32188 -0.430004 
-0.76826 -0.50268 -0.396345 -0.694433 -0.275538 -0.664711 0.875766 -0.300105 -0.378116 
0.698403 -0.230961 -0.677414 -0.760824 -0.513197 -0.39721 0.779563 -0.536551 -0.3231 
0.772911 -0.548357 -0.319239 0.774577 -0.532053 -0.34198 -0.721047 -0.538006 -0.436625 
-0.70494 -0.554845 -0.441821 -0.665095 -0.516685 -0.539152 0.576076 -0.798648 -0.174064 
0.559617 -0.811597 -0.167747 0.56982 -0.789496 -0.228036 0.364591 -0.91955 -0.146633 
0.211635 -0.966256 -0.146836 -0.339437 -0.850435 -0.401924 -0.634724 -0.613715 -0.469552 
-0.531406 -0.706451 -0.467477 -0.520827 -0.582154 -0.624369 0.151736 -0.966087 -0.208929 
0.142994 -0.965067 -0.219541 0.137128 -0.960743 -0.241184 0.10192 -0.94923 -0.297615 
0.0767652 -0.912705 -0.401344 0.0388362 -0.938107 -0.344162 0.0207206 -0.870816 -0.491173 
-0.329161 -0.856111 -0.398406 -0.113572 -0.9283 -0.354062 -0.122518 -0.859004 -0.497093 
0.193598 0.754187 -0.627472 -0.0144414 0.774049 -0.632961 -0.230918 0.702514 -0.673165 
0.26537 0.726954 -0.633337 0.37504 0.648723 -0.662195 0.194635 0.710925 -0.675798 
-0.0251265 0.681176 -0.731688 -0.264791 0.688177 -0.675499 -0.231701 0.670968 -0.704355 
-0.347796 0.586653 -0.731353 0.511778 0.533548 -0.673357 0.513741 0.530067 -0.674611 
0.340797 0.408945 -0.846535 0.159709 0.346483 -0.92436 -0.0668814 0.279843 -0.957713 
-0.230764 0.299217 -0.92586 -0.429609 0.517027 -0.740351 -0.295102 0.369816 -0.880994 
-0.429901 0.513049 -0.742944 0.595651 0.430065 -0.678413 0.614532 0.413793 -0.671659 
0.371535 0.337638 -0.864848 0.227859 0.163387 -0.959888 0.0974441 0.082209 -0.99184 
-0.0984579 0.0582143 -0.993437 -0.173747 0.0690918 -0.982364 -0.183325 0.1576 -0.970337 
-0.519443 0.424203 -0.741775 -0.265207 0.291463 -0.919084 -0.521285 0.422467 -0.741474 
0.660488 0.342324 -0.668259 0.518477 0.281359 -0.807477 0.208997 0.154395 -0.965651 
0.0887955 0.0794707 -0.992875 0.060552 0.0264088 -0.997816 -0.0850679 0.0400679 -0.995569 
-0.14245 0.0474051 -0.988666 -0.0824967 0.11333 -0.990127 -0.16627 0.135213 -0.976766 
-0.544693 0.266177 -0.795273 -0.431762 0.195558 -0.880533 0.692959 0.17649 -0.699042 
0.661322 0.0355224 -0.749261 0.401456 0.0733424 -0.912937 0.185538 -0.0178543 -0.982475 
0.102165 0.0250788 -0.994451 -0.104399 0.0410644 -0.993687 -0.090714 0.135862 -0.986566 
-0.183633 0.0477783 -0.981833 -0.490844 0.262635 -0.830719 -0.324684 0.0916976 -0.941367 
-0.489479 0.265003 -0.830773 0.658767 0.0291026 -0.751784 0.650198 0.0190288 -0.759526 
0.657025 0.0285365 -0.753328 0.329971 -0.0573891 -0.942245 0.181089 -0.104993 -0.977846 
0.211831 -0.0785263 -0.974146 -0.0184928 0.0655062 -0.997681 -0.0768513 0.112386 -0.990688 
-0.212622 0.0427031 -0.976201 -0.228641 0.0872597 -0.969592 -0.488587 0.226 -0.842738 
-0.373089 0.195748 -0.906911 0.566354 -0.0626608 -0.821776 0.292129 -0.0744234 -0.953479 
0.168046 -0.0634574 -0.983735 0.239058 -0.0483004 -0.969803 -0.21311 0.0225902 -0.976767 
-0.186149 0.033645 -0.981945 -0.553633 0.0226331 -0.832453 -0.323581 0.0447414 -0.945142 
0.538036 -0.0875043 -0.838368 0.329424 -0.0364217 -0.943479 0.200444 0.0940688 -0.975178 
0.200186 0.133672 -0.970596 -0.213896 -0.0634451 -0.974794 -0.193073 -0.0943957 -0.976633 
-0.554588 -0.229017 -0.79999 -0.381816 -0.185361 -0.90546 0.566949 -0.151701 -0.809664 
0.460744 -0.0851091 -0.883443 0.301087 0.0322613 -0.953051 -0.0430301 -0.102952 -0.993755 
-0.049279 -0.164632 -0.985123 -0.149264 -0.177362 -0.97276 -0.218874 -0.148859 -0.964331 
-0.291449 -0.238057 -0.926491 -0.497978 -0.35791 -0.789885 -0.49771 -0.358281 -0.789886 
-0.496756 -0.357343 -0.790911 0.614407 -0.342709 -0.710672 0.577762 -0.442448 -0.685879 
0.546981 -0.305532 -0.779398 0.346022 -0.256882 -0.902375 0.109289 -0.215364 -0.970399 
-0.0668667 -0.253486 -0.965025 -0.0791519 -0.255291 -0.963619 -0.0728727 -0.262898 -0.962068 
-0.142956 -0.245259 -0.958859 -0.268634 -0.272646 -0.923851 -0.454458 -0.401439 -0.795182 
-0.437697 -0.414291 -0.797988 -0.418369 -0.376 -0.826796 0.438165 -0.676511 -0.591899 
0.378904 -0.721602 -0.579416 0.37508 -0.656764 -0.654199 0.158432 -0.812619 -0.560847 
0.123754 -0.610618 -0.782196 0.0211157 -0.770095 -0.63758 -0.0300655 -0.571522 -0.820036 
-0.000436109 -0.708345 -0.705866 -0.0321707 -0.517767 -0.854917 -0.0322211 -0.66677 -0.744567 
-0.050508 -0.485528 -0.872761 -0.150087 -0.622134 -0.76839 -0.163863 -0.475549 -0.864293 
-0.328396 -0.508257 -0.796135 -0.312788 -0.520306 -0.794635 -0.30993 -0.501505 -0.807735 
0.0606241 0.0457163 -0.997113 -0.0815021 0.0329546 -0.996128 0.0738605 0.0758283 -0.994382 
0.0599703 0.100547 -0.993123 -0.0818217 0.0227622 -0.996387 -0.0738082 0.0169206 -0.997129 
0.161188 -0.0452413 -0.985886 0.0472995 0.0243248 -0.998585 -0.136974 -0.00818684 -0.990541 
-0.151375 -0.0178892 -0.988315 0.0185186 0.107053 -0.994081 -0.0890459 0.0887887 -0.992062 
0.152178 -0.070993 -0.9858 0.11675 -0.0791716 -0.990001 -0.031623 0.0164788 -0.999364 
0.0275441 0.11543 -0.992934 -0.139098 0.0337832 -0.989702 -0.115216 0.0370727 -0.992648 
0.123771 0.00586741 -0.992293 0.133624 0.0896682 -0.986967 0.110207 -0.0160292 -0.993779 
-0.0202552 -0.0792831 -0.996646 0.0444701 -0.0130875 -0.998925 -0.0386042 -0.135405 -0.990038 
0.000713812 -0.0287327 -0.999587 -0.177098 -0.0844814 -0.980561 -0.162058 -0.115137 -0.980041 
-0.166936 -0.0893231 -0.981913 0.154836 0.0689809 -0.985529 0.112129 -0.116443 -0.986848 
0.117527 0.0736548 -0.990334 -0.040365 -0.0891774 -0.995197 -0.0490976 -0.143195 -0.988476 
-0.0294972 -0.0434554 -0.99862 
