# vtk DataFile Version 4.2
vtk output
ASCII
DATASET POLYDATA
POINTS 504 float
-6.9763 -37.8489 -9.98425 0.210687 -37.8489 -9.88592 -21.3503 -30.6619 -11.7986 
-14.1633 -30.6619 -12.7384 -6.9763 -30.6619 -13.0938 0.210687 -30.6619 -12.6901 
7.39768 -30.6619 -12.457 14.5847 -30.6619 -12.7113 21.7717 -30.6619 -12.826 
28.9586 -30.6619 -12.2714 -35.7243 -23.4749 -9.71503 -28.5373 -23.4749 -12.4827 
-21.3503 -23.4749 -13.4808 -14.1633 -23.4749 -13.9313 -6.9763 -23.4749 -13.5971 
0.210687 -23.4749 -13.1667 7.39768 -23.4749 -13.5395 14.5847 -23.4749 -14.1864 
21.7717 -23.4749 -14.6354 28.9586 -23.4749 -14.5914 36.1456 -23.4749 -12.669 
-35.7243 -16.2879 -12.0686 -28.5373 -16.2879 -13.8057 -21.3503 -16.2879 -13.778 
-14.1633 -16.2879 -13.5395 -6.9763 -16.2879 -13.2241 0.210687 -16.2879 -12.9339 
7.39768 -16.2879 -12.803 14.5847 -16.2879 -14.2058 21.7717 -16.2879 -15.2298 
28.9586 -16.2879 -15.0254 36.1456 -16.2879 -13.5902 43.3326 -16.2879 -10.5721 
-42.9113 -9.10096 -9.89903 -35.7243 -9.10096 -12.8088 -28.5373 -9.10096 -13.9125 
-21.3503 -9.10096 -13.7177 -14.1633 -9.10096 -12.716 -6.9763 -9.10096 -12.5595 
0.210687 -9.10096 -13.7972 7.39768 -9.10096 -11.9987 14.5847 -9.10096 -13.5461 
21.7717 -9.10096 -14.5421 28.9586 -9.10096 -14.8603 36.1456 -9.10096 -13.9913 
43.3326 -9.10096 -11.8001 -42.9113 -1.91397 -9.85819 -35.7243 -1.91397 -12.7832 
-28.5373 -1.91397 -13.784 -21.3503 -1.91397 -13.6136 -14.1633 -1.91397 -12.8761 
-6.9763 -1.91397 -14.7914 0.210687 -1.91397 -12.1571 7.39768 -1.91397 -15.1482 
14.5847 -1.91397 -13.2294 21.7717 -1.91397 -13.9658 28.9586 -1.91397 -14.4174 
36.1456 -1.91397 -14.0216 43.3326 -1.91397 -12.4765 -35.7243 5.27302 -11.9812 
-28.5373 5.27302 -13.1817 -21.3503 5.27302 -12.9092 -14.1633 5.27302 -12.5261 
-6.9763 5.27302 -14.292 0.210687 5.27302 -12.8003 7.39768 5.27302 -15.4784 
14.5847 5.27302 -14.4675 21.7717 5.27302 -14.3632 28.9586 5.27302 -14.5014 
36.1456 5.27302 -14.0021 43.3326 5.27302 -12.6222 -35.7243 12.46 -11.6799 
-28.5373 12.46 -13.206 -21.3503 12.46 -13.7022 -14.1633 12.46 -13.861 
-6.9763 12.46 -16.0884 0.210687 12.46 -16.4771 7.39768 12.46 -15.7427 
14.5847 12.46 -15.9227 21.7717 12.46 -15.7297 28.9586 12.46 -14.8678 
36.1456 12.46 -13.4345 43.3326 12.46 -9.7585 -35.7243 19.647 -11.2019 
-28.5373 19.647 -13.2296 -21.3503 19.647 -14.3247 -14.1633 19.647 -15.1353 
-6.9763 19.647 -16.4871 0.210687 19.647 -16.4954 7.39768 19.647 -15.6684 
14.5847 19.647 -16.1564 21.7717 19.647 -16.192 28.9586 19.647 -15.0905 
36.1456 19.647 -12.6764 -28.5373 26.834 -12.5464 -21.3503 26.834 -14.5219 
-14.1633 26.834 -15.3499 -6.9763 26.834 -16.3438 0.210687 26.834 -16.5511 
7.39768 26.834 -15.9242 14.5847 26.834 -16.42 21.7717 26.834 -15.7014 
28.9586 26.834 -14.1398 -21.3503 34.021 -12.0971 -14.1633 34.021 -14.3424 
-6.9763 34.021 -15.6712 0.210687 34.021 -16.1789 7.39768 34.021 -15.7437 
14.5847 34.021 -16.1933 21.7717 34.021 -13.9477 28.9586 34.021 -11.5163 
-14.1633 41.208 -11.1525 -6.9763 41.208 -13.6433 0.210687 41.208 -14.6098 
7.39768 41.208 -14.0884 14.5847 41.208 -12.9983 21.7717 41.208 -10.5915 
0.210687 48.395 -11.7083 7.39768 48.395 -11.1273 -6.9763 -38.3646 -9.64011 
0.210687 -38.19 -9.64011 -21.3503 -35.0362 -9.64011 -21.3503 -37.8489 -6.6631 
-10.6853 -37.8489 -9.64011 -14.1633 -37.1649 -9.64011 -14.1633 -37.8489 -9.18882 
5.18759 -37.8489 -9.64011 7.39768 -37.6155 -9.64011 7.39768 -37.8489 -9.52445 
14.5847 -37.0218 -9.64011 14.5847 -37.8489 -9.0934 21.7717 -36.4942 -9.64011 
21.7717 -37.8489 -8.51718 28.9586 -35.1687 -9.64011 28.9586 -37.8489 -5.87579 
-35.7243 -23.6149 -9.64011 -35.7243 -30.6619 -3.58225 -28.1237 -30.6619 -9.64011 
-28.5373 -30.3619 -9.64011 -28.5373 -30.6619 -9.45234 35.8017 -30.6619 -9.64011 
36.1456 -30.3699 -9.64011 36.1456 -30.6619 -9.41026 -35.8476 -23.4749 -9.64011 
-42.9113 -23.4749 -3.00478 42.4888 -23.4749 -9.64011 43.3326 -20.9342 -9.64011 
43.3326 -23.4749 -8.54351 -42.0385 -16.2879 -9.64011 -42.9113 -11.8858 -9.64011 
-42.9113 -16.2879 -9.08872 44.4845 -16.2879 -9.64011 -43.2388 -9.10096 -9.64011 
46.3767 -9.10096 -9.64011 50.5196 -9.10096 -3.08077 -43.193 -1.91397 -9.64011 
-42.9113 -0.596496 -9.64011 47.627 -1.91397 -9.64011 50.5196 -1.91397 -5.90831 
-41.0245 5.27302 -9.64011 -42.9113 5.27302 -8.5275 47.589 5.27302 -9.64011 
50.5196 5.27302 -5.20054 -40.8178 12.46 -9.64011 -42.9113 12.46 -8.06959 
43.482 12.46 -9.64011 43.3326 12.9912 -9.64011 -38.4839 19.647 -9.64011 
-42.9113 19.647 -5.33399 -35.7243 23.9924 -9.64011 41.3286 19.647 -9.64011 
36.1456 26.734 -9.64011 43.3326 19.647 -4.21967 -34.2152 26.834 -9.64011 
-35.7243 26.834 -8.25518 -28.5373 32.242 -9.64011 36.0726 26.834 -9.64011 
36.1456 26.834 -9.47084 -26.3951 34.021 -9.64011 -28.5373 34.021 -7.22292 
-21.3503 38.1994 -9.64011 30.9401 34.021 -9.64011 28.9586 36.2926 -9.64011 
-17.3072 41.208 -9.64011 -14.1633 43.1007 -9.64011 -6.9763 48.3109 -9.64011 
14.5847 47.2439 -9.64011 23.1885 41.208 -9.64011 21.7717 42.2015 -9.64011 
-6.77844 48.395 -9.64011 -6.9763 48.395 -7.75781 0.210687 50.0705 -9.64011 
12.0806 48.395 -9.64011 7.39768 49.6338 -9.64011 -21.3503 -39.9815 -2.45312 
-14.1633 -42.5387 -2.45312 -6.9763 -44.1995 -2.45312 0.210687 -44.7963 -2.45312 
7.39768 -44.1534 -2.45312 14.5847 -42.9888 -2.45312 21.7717 -41.8191 -2.45312 
28.9586 -39.2895 -2.45312 -35.7243 -31.4678 -2.45312 -25.8351 -37.8489 -2.45312 
-28.5373 -36.4545 -2.45312 31.7598 -37.8489 -2.45312 36.1456 -35.2792 -2.45312 
-36.6591 -30.6619 -2.45312 -42.9113 -23.9814 -2.45312 41.0355 -30.6619 -2.45312 
43.3326 -27.4348 -2.45312 -43.2905 -23.4749 -2.45312 45.7029 -23.4749 -2.45312 
-47.3357 -16.2879 -2.45312 48.9522 -16.2879 -2.45312 50.5196 -10.0755 -2.45312 
-49.1388 -9.10096 -2.45312 50.7486 -9.10096 -2.45312 50.5196 -9.10096 -1.63844 
-49.4279 -1.91397 -2.45312 -50.0982 -1.91397 3.95851 51.8915 -1.91397 -2.45312 
50.5196 -1.91397 1.84249 -47.8501 5.27302 -2.45312 51.4342 5.27302 -2.45312 
50.5196 7.68475 -2.45312 50.5196 5.27302 0.47084 -46.313 12.46 -2.45312 
48.5467 12.46 -2.45312 43.3326 12.46 4.42686 -44.1965 19.647 -2.45312 
-42.9113 22.0213 -2.45312 43.7601 19.647 -2.45312 43.3326 20.1978 -2.45312 
43.3326 19.647 -1.69052 -39.7301 26.834 -2.45312 -35.7243 31.4572 -2.45312 
-35.7243 26.834 4.57736 38.145 26.834 -2.45312 36.1456 29.5596 -2.45312 
36.1456 26.834 0.368622 -32.2206 34.021 -2.45312 -28.5373 36.3696 -2.45312 
-28.5373 34.021 2.03487 -21.3503 40.1745 -2.45312 32.5552 34.021 -2.45312 
28.9586 38.1228 -2.45312 28.9586 34.021 2.01811 -19.9097 41.208 -2.45312 
-14.1633 44.7332 -2.45312 -14.1633 41.208 2.52559 14.5847 48.1455 -2.45312 
14.5847 41.208 3.91603 25.774 41.208 -2.45312 21.7717 44.3654 -2.45312 
21.7717 41.208 1.76989 -7.24541 48.395 -2.45312 -6.9763 48.527 -2.45312 
-6.9763 48.395 -2.25635 0.210687 50.0194 -2.45312 0.210687 48.395 -0.111236 
13.8415 48.395 -2.45312 7.39768 49.9526 -2.45312 7.39768 48.395 -0.17975 
-21.3503 -39.262 4.73387 -14.1633 -41.8489 4.73387 -6.9763 -44.055 4.73387 
0.210687 -44.4324 4.73387 7.39768 -44.5394 4.73387 14.5847 -42.9262 4.73387 
21.7717 -40.7754 4.73387 28.9586 -38.3751 4.73387 -35.7243 -32.372 4.73387 
-25.6196 -37.8489 4.73387 -28.5373 -36.8449 4.73387 -21.3503 -37.8489 7.14125 
-14.1633 -37.8489 10.1971 14.5847 -37.8489 11.7661 21.7717 -37.8489 8.45777 
29.8948 -37.8489 4.73387 28.9586 -37.8489 5.57298 36.1456 -32.4751 4.73387 
-37.7274 -30.6619 4.73387 -42.9113 -25.515 4.73387 -35.7243 -30.6619 8.34917 
28.9586 -30.6619 11.351 37.8982 -30.6619 4.73387 36.1456 -30.6619 6.65709 
43.3326 -23.5382 4.73387 -44.4911 -23.4749 4.73387 -42.9113 -23.4749 8.31375 
36.1456 -23.4749 10.1469 43.3674 -23.4749 4.73387 43.3326 -23.4749 4.77445 
-48.1781 -16.2879 4.73387 36.1456 -16.2879 11.4929 45.503 -16.2879 4.73387 
43.3326 -16.2879 6.98496 -50.0348 -9.10096 4.73387 -50.0982 -5.81069 4.73387 
36.1456 -9.10096 11.8161 47.7242 -9.10096 4.73387 43.3326 -9.10096 7.95827 
-50.1682 -1.91397 4.73387 -50.0982 -1.59581 4.73387 -50.0982 -1.91397 4.90643 
36.1456 -1.91397 11.6723 48.9608 -1.91397 4.73387 43.3326 -1.91397 8.45528 
-48.4222 5.27302 4.73387 14.5847 5.27302 11.6432 21.7717 5.27302 11.6478 
28.9586 5.27302 11.28 36.1456 5.27302 10.2185 47.8536 5.27302 4.73387 
43.3326 11.8398 4.73387 43.3326 5.27302 7.87228 -45.8314 12.46 4.73387 
-42.9113 12.46 9.36075 14.5847 12.46 11.1785 21.7717 12.46 10.02 
28.9586 12.46 9.71991 42.8479 12.46 4.73387 36.1456 12.46 7.99404 
-43.2337 19.647 4.73387 -42.9113 20.1495 4.73387 -42.9113 19.647 5.21994 
-35.7243 26.7147 4.73387 -35.7243 19.647 10.7691 0.210687 19.647 11.0455 
7.39768 19.647 11.4263 14.5847 19.647 10.8368 21.7717 19.647 9.39939 
28.9586 19.647 7.66942 36.4456 19.647 4.73387 36.1456 19.9962 4.73387 
36.1456 19.647 4.89949 -35.5685 26.834 4.73387 -28.5373 32.162 4.73387 
-28.5373 26.834 8.61066 -21.3503 26.834 9.47499 -14.1633 26.834 9.48122 
-6.9763 26.834 9.20587 0.210687 26.834 9.16255 7.39768 26.834 9.90087 
14.5847 26.834 9.71081 21.7717 26.834 7.82367 30.0804 26.834 4.73387 
28.9586 28.438 4.73387 28.9586 26.834 5.32321 -22.5157 34.021 4.73387 
-21.3503 34.3798 4.73387 -21.3503 34.021 5.05519 -14.1633 37.8749 4.73387 
-14.1633 34.021 6.44561 -6.9763 34.021 7.55301 0.210687 34.021 7.58627 
7.39768 34.021 7.85223 14.5847 40.0261 4.73387 14.5847 34.021 7.84477 
24.3019 34.021 4.73387 21.7717 36.4085 4.73387 21.7717 34.021 5.83359 
-10.0715 41.208 4.73387 -6.9763 42.5696 4.73387 -6.9763 41.208 5.69238 
0.210687 41.4538 4.73387 0.210687 41.208 4.87019 8.90545 41.208 4.73387 
7.39768 41.554 4.73387 7.39768 41.208 4.93465 -6.9763 -38.105 11.9209 
0.210687 -38.6553 11.9209 7.39768 -38.8278 11.9209 -28.5373 -32.7371 11.9209 
-21.3503 -34.8114 11.9209 -8.00968 -37.8489 11.9209 -14.1633 -36.1382 11.9209 
-6.9763 -37.8489 12.128 0.210687 -37.8489 12.6139 13.7085 -37.8489 11.9209 
7.39768 -37.8489 12.7802 14.5847 -37.6706 11.9209 21.7717 -33.8722 11.9209 
-32.6047 -30.6619 11.9209 -35.7243 -28.7319 11.9209 -28.5373 -30.6619 14.5527 
-21.3503 -30.6619 15.8088 -14.1633 -30.6619 15.7898 -6.9763 -30.6619 15.8118 
[...]
POINT_DATA 504
SCALARS ImageScalars float
LOOKUP_TABLE default
0 0 0 0 0 0 0 0 0 
0 0 0 0 0 0 0 0 0 
0 0 0 0 0 0 0 0 0 
0 0 0 0 0 0 0 0 0 
0 0 0 0 0 0 0 0 0 
0 0 0 0 0 0 0 0 0 
0 0 0 0 0 0 0 0 0 
0 0 0 0 0 0 0 0 0 
0 0 0 0 0 0 0 0 0 
0 0 0 0 0 0 0 0 0 
0 0 0 0 0 0 0 0 0 
0 0 0 0 0 0 0 0 0 
0 0 0 0 0 0 0 0 0 
0 0 0 0 0 0 0 0 0 
0 0 0 0 0 0 0 0 0 
0 0 0 0 0 0 0 0 0 
0 0 0 0 0 0 0 0 0 
0 0 0 0 0 0 0 0 0 
0 0 0 0 0 0 0 0 0 
0 0 0 0 0 0 0 0 0 
0 0 0 0 0 0 0 0 0 
0 0 0 0 0 0 0 0 0 
0 0 0 0 0 0 0 0 0 
0 0 0 0 0 0 0 0 0 
0 0 0 0 0 0 0 0 0 
0 0 0 0 0 0 0 0 0 
0 0 0 0 0 0 0 0 0 
0 0 0 0 0 0 0 0 0 
0 0 0 0 0 0 0 0 0 
0 0 0 0 0 0 0 0 0 
0 0 0 0 0 0 0 0 0 
0 0 0 0 0 0 0 0 0 
0 0 0 0 0 0 0 0 0 
0 0 0 0 0 0 0 0 0 
0 0 0 0 0 0 0 0 0 
0 0 0 0 0 0 0 0 0 
0 0 0 0 0 0 0 0 0 
0 0 0 0 0 0 0 0 0 
0 0 0 0 0 0 0 0 0 
0 0 0 0 0 0 0 0 0 
0 0 0 0 0 0 0 0 0 
0 0 0 0 0 0 0 0 0 
0 0 0 0 0 0 0 0 0 
0 0 0 0 0 0 0 0 0 
0 0 0 0 0 0 0 0 0 
0 0 0 0 0 0 0 0 0 
0 0 0 0 0 0 0 0 0 
0 0 0 0 0 0 0 0 0 
0 0 0 0 0 0 0 0 0 
0 0 0 0 0 0 0 0 0 
0 0 0 0 0 0 0 0 0 
0 0 0 0 0 0 0 0 0 
0 0 0 0 0 0 0 0 0 
0 0 0 0 0 0 0 0 0 
0 0 0 0 0 0 0 0 0 
0 0 0 0 0 0 0 0 0 

NORMALS Normals float
0.0344766 0.517746 0.85484 -0.0278392 0.508524 0.860598 0.187985 0.348084 0.918422 
0.0900324 0.277238 0.956574 -0.00371861 0.239841 0.970805 -0.0416035 0.195121 0.979896 
0.00131529 0.240596 0.970624 0.0247816 0.30217 0.952932 -0.0295359 0.35152 0.935714 
-0.186903 0.410284 0.8926 0.458158 0.390732 0.798385 0.23159 0.247764 0.940733 
0.101191 0.132545 0.985998 0.00987963 0.0494196 0.998729 -0.0524606 0.00599727 0.998605 
-0.00425268 0.0148684 0.99988 0.0710078 0.0195938 0.997283 0.0757763 0.0970388 0.992392 
0.0278843 0.153223 0.987798 -0.137383 0.188406 0.972435 -0.343072 0.229433 0.910858 
0.288769 0.182322 0.939878 0.120186 0.104405 0.987246 -0.0184562 0.017734 0.999672 
-0.0383198 -0.0837243 0.995752 -0.042003 -0.0684513 0.99677 -0.029431 0.0330893 0.999019 
0.0884952 -0.104602 0.990569 0.164348 -0.0443266 0.985406 0.0586114 -0.00684693 0.998257 
-0.106588 0.0170976 0.994156 -0.265409 0.0909798 0.959834 -0.576842 0.173602 0.798195 
0.542475 0.0399086 0.839123 0.24693 0.0507427 0.967704 0.0591142 -0.00189259 0.998249 
-0.0839062 -0.0115355 0.996407 -0.0777044 -0.0460617 0.995912 0.0632213 0.101912 0.992782 
-0.0447547 -0.0126782 0.998918 0.00476046 0.13839 0.990366 0.172657 -0.0680767 0.982627 
0.0895432 -0.0842594 0.992412 -0.0375112 -0.0430125 0.99837 -0.181136 0.0285472 0.983044 
-0.464418 0.108671 0.878924 0.538052 -0.0748861 0.839578 0.23804 -0.0554599 0.969671 
0.0541471 -0.0507913 0.99724 -0.0628162 -0.0558741 0.99646 0.0719197 -0.0134506 0.99732 
0.020204 0.119129 0.992673 0.0169249 -0.0825949 0.996439 -0.00382712 0.25131 0.967899 
-0.0655494 0.0605546 0.99601 0.0828734 -0.0125489 0.996481 0.00478436 -0.0238323 0.999705 
-0.113684 0.000791123 0.993517 -0.40844 0.0477406 0.911536 0.275864 -0.0745394 0.958302 
0.0609425 -0.0399806 0.99734 -0.0455115 0.00184018 0.998962 0.0939348 0.0667958 0.993335 
0.0472032 0.0864918 0.995134 0.0869188 0.33104 0.939605 0.082314 0.0412777 0.995751 
-0.0741103 0.190213 0.978942 0.00274604 0.116832 0.993148 -0.0233478 0.0309934 0.999247 
-0.109362 -0.0375402 0.993293 -0.417311 -0.147187 0.896765 0.306534 -0.0463275 0.950732 
0.139374 0.00318908 0.990235 0.0479049 0.101659 0.993665 0.150601 0.183299 0.971453 
0.185301 0.155761 0.970259 -0.0271437 0.198098 0.979806 -0.0367556 0.0119625 0.999253 
-0.000123648 0.112185 0.993687 -0.0744594 0.13191 0.988461 -0.147259 0.0425228 0.988183 
-0.312747 -0.0945097 0.945123 -0.574302 -0.253847 0.778292 0.402799 -0.185375 0.89632 
0.198492 -0.0506641 0.978792 0.127259 0.0521855 0.990496 0.14671 0.100768 0.984034 
0.094485 0.0149516 0.995414 -0.0587187 0.00525291 0.998261 -0.0203288 0.012618 0.999714 
0.0367069 0.0342236 0.99874 -0.0760511 -0.00283981 0.9971 -0.241814 -0.0423245 0.969399 
-0.491049 -0.206813 0.846226 0.32811 -0.250124 0.910924 0.202575 -0.149612 0.96777 
0.12601 -0.046253 0.99095 0.0820963 -0.0603952 0.994793 -0.0294432 -0.0217447 0.99933 
-0.0101036 0.0055446 0.999934 -0.0145052 0.00481271 0.999883 -0.147932 -0.146979 0.978015 
-0.358777 -0.215958 0.908097 0.355171 -0.439877 0.82484 0.269993 -0.283091 0.920306 
0.113211 -0.18399 0.976387 0.00828535 -0.123482 0.992312 -0.00248839 -0.117947 0.993017 
-0.101375 -0.232023 0.967413 -0.280135 -0.313579 0.9073 -0.546816 -0.522799 0.653968 
0.407659 -0.576482 0.708154 0.246444 -0.425051 0.870975 0.0403919 -0.323997 0.945195 
-0.12704 -0.332781 0.934408 -0.194924 -0.475589 0.8578 -0.472436 -0.625153 0.621279 
0.0898668 -0.754249 0.65041 -0.191429 -0.784533 0.589799 0.0402433 0.537798 0.842113 
-0.0300567 0.524198 0.851066 0.265781 0.568631 0.778472 0.354759 0.796284 0.489977 
0.0819889 0.572311 0.815928 0.122478 0.591799 0.796727 0.137972 0.643689 0.752747 
-0.0391719 0.527413 0.848706 -0.0416762 0.526162 0.849363 -0.0441956 0.539651 0.840728 
-0.0372293 0.574059 0.817967 -0.0525818 0.633396 0.772039 -0.072981 0.607418 0.791023 
-0.111488 0.71694 0.688162 -0.259017 0.648186 0.716076 -0.355693 0.857708 0.371241 
0.460171 0.395047 0.795098 0.607887 0.699606 0.375532 0.36981 0.520872 0.769372 
0.375346 0.518835 0.768066 0.384166 0.535212 0.752306 -0.470003 0.542943 0.695924 
-0.477534 0.536442 0.695839 -0.490575 0.55661 0.670464 0.46204 0.393053 0.795002 
0.746336 0.554344 0.368355 -0.649833 0.338888 0.680347 -0.656285 0.28682 0.697871 
-0.734736 0.376282 0.564424 0.552194 0.258191 0.792729 0.566406 0.129368 0.813909 
0.607396 0.276088 0.744879 -0.631997 0.191026 0.751059 0.560096 0.0415923 0.827383 
-0.620672 0.138569 0.771728 -0.976489 0.195576 0.0906608 0.552439 -0.0750124 0.830171 
0.547895 -0.0747772 0.833199 -0.636941 0.052175 0.769145 -0.928914 0.0593774 0.365503 
0.501133 -0.0727235 0.862309 0.623234 -0.0956869 0.776159 -0.651185 -0.180566 0.737126 
-0.938975 -0.219423 0.264913 0.548988 -0.080574 0.831938 0.712718 -0.118452 0.691377 
-0.579333 -0.256519 0.773674 -0.590018 -0.262759 0.763437 0.538025 -0.260287 0.801736 
0.845376 -0.374933 0.380479 0.543538 -0.32119 0.775502 -0.711368 -0.35276 0.607878 
-0.715403 -0.481209 0.506593 -0.785723 -0.618003 0.0266996 0.562777 -0.362878 0.742699 
0.669384 -0.442166 0.597004 0.453784 -0.573196 0.682294 -0.715119 -0.482822 0.505458 
-0.723091 -0.488742 0.48813 0.456758 -0.610808 0.646751 0.501765 -0.764916 0.4039 
0.475015 -0.658398 0.583843 -0.655968 -0.577272 0.486274 -0.616607 -0.614304 0.492368 
0.475337 -0.676525 0.562467 0.47623 -0.671174 0.568094 0.398117 -0.819577 0.412063 
-0.373813 -0.767982 0.520065 -0.532709 -0.658656 0.531407 -0.50954 -0.671691 0.537773 
0.392646 -0.822603 0.411283 0.413702 -0.882501 0.223701 0.104326 -0.889225 0.445416 
-0.323075 -0.808704 0.491548 -0.176965 -0.85677 0.484384 0.387012 0.904467 0.179333 
0.270023 0.938483 0.215258 0.152237 0.95488 0.255005 -0.00240673 0.964813 0.262925 
-0.115594 0.942558 0.313405 -0.155333 0.949339 0.273179 -0.243329 0.951737 0.187053 
-0.395504 0.908651 0.1339 0.615676 0.725464 0.307645 0.443969 0.866808 0.227013 
0.481117 0.831661 0.277249 -0.452344 0.883924 0.118588 -0.574213 0.814039 0.0872995 
0.632595 0.711113 0.306825 0.751493 0.56756 0.336354 -0.773571 0.630952 0.0590543 
-0.846826 0.530504 0.0380886 0.759546 0.555364 0.338616 -0.886108 0.462754 0.025906 
0.883272 0.340781 0.322024 -0.939675 0.340289 0.0348477 -0.976325 0.212666 0.039542 
0.932198 0.13643 0.335252 -0.980169 0.194073 0.0400567 -0.980239 0.196451 -0.0232271 
0.936549 -0.0826955 0.340642 0.988582 -0.101925 -0.110986 -0.998208 0.0471649 0.0368371 
-0.932733 0.0403931 -0.358298 0.918995 -0.203192 0.337878 -0.975766 -0.218485 0.0120529 
-0.954199 -0.299166 -0.00186639 -0.935872 -0.24894 -0.249343 0.930449 -0.268029 0.249852 
-0.884144 -0.466575 -0.024445 -0.559257 -0.39442 -0.729154 0.904853 -0.393924 0.161443 
0.878433 -0.457912 0.136646 -0.750558 -0.647143 -0.133674 -0.748643 -0.647942 -0.140375 
-0.738443 -0.645656 -0.194502 0.802798 -0.591438 0.0756131 0.668536 -0.743643 0.00740501 
0.542376 -0.628579 -0.55742 -0.792052 -0.579206 -0.192807 -0.779721 -0.590694 -0.207643 
-0.72151 -0.540277 -0.43304 0.552664 -0.833264 -0.0152729 0.49139 -0.870008 -0.0402759 
0.389829 -0.81663 -0.425615 0.50982 -0.839715 -0.186979 -0.747187 -0.625444 -0.22479 
-0.700018 -0.679165 -0.220702 -0.609442 -0.523052 -0.595816 0.501475 -0.843031 -0.194477 
0.44964 -0.864722 -0.223784 0.388127 -0.679211 -0.622921 -0.371032 -0.880602 -0.294746 
-0.164083 -0.583785 -0.795156 -0.629302 -0.747936 -0.211115 -0.532931 -0.820352 -0.20738 
-0.453334 -0.681383 -0.574635 0.370939 -0.866171 -0.334891 0.36563 -0.868756 -0.334032 
0.365573 -0.863152 -0.348316 0.105841 -0.945553 -0.307778 0.113571 -0.852098 -0.510911 
-0.34685 -0.889041 -0.298834 -0.120061 -0.951958 -0.28171 -0.128387 -0.865471 -0.484229 
0.301518 0.90906 -0.28757 0.287655 0.903791 -0.316884 0.170251 0.928569 -0.32981 
0.0288244 0.951216 -0.307176 -0.0923831 0.959592 -0.265797 -0.231466 0.936841 -0.262208 
-0.302221 0.875449 -0.377163 -0.409791 0.836788 -0.363123 0.586046 0.80112 -0.121476 
0.352801 0.901334 -0.251255 0.403737 0.88907 -0.215756 0.273476 0.876399 -0.396403 
0.209061 0.720688 -0.660986 -0.206704 0.630164 -0.748443 -0.282059 0.738921 -0.611913 
-0.434144 0.820115 -0.372734 -0.409356 0.813066 -0.413946 -0.620142 0.624503 -0.474784 
0.627985 0.769555 -0.115844 0.78535 0.610553 -0.10223 0.5572 0.760966 -0.332354 
-0.355183 0.397379 -0.846129 -0.658476 0.571849 -0.489283 -0.613245 0.544419 -0.572309 
-0.769965 0.347859 -0.534929 0.825452 0.554927 -0.103372 0.778529 0.542903 -0.31488 
-0.527314 0.227233 -0.818722 -0.770558 0.346353 -0.535052 -0.769321 0.346018 -0.537044 
0.93572 0.338509 -0.0991961 -0.389361 0.102286 -0.915388 -0.752281 0.250562 -0.609338 
-0.663995 0.190639 -0.723027 0.983946 0.127664 -0.124711 0.989599 0.0221884 -0.14213 
-0.356627 0.00931615 -0.9342 -0.739733 0.164543 -0.652473 -0.552444 0.0768632 -0.829999 
0.981646 -0.103007 -0.160502 0.980837 -0.109881 -0.160887 0.980085 -0.103483 -0.169486 
-0.266791 -0.100539 -0.958496 -0.755875 0.0161774 -0.654516 -0.495828 0.000111055 -0.868421 
0.9484 -0.268674 -0.168379 -0.185827 -0.275043 -0.943302 -0.025218 -0.249133 -0.968141 
-0.0922134 -0.197369 -0.975983 -0.193653 -0.238316 -0.951685 -0.670602 -0.265323 -0.692746 
-0.536794 -0.374263 -0.756161 -0.457574 -0.224773 -0.860292 0.891266 -0.353217 -0.284398 
0.749308 -0.395192 -0.531376 -0.246792 -0.0550724 -0.967502 -0.093146 -0.145212 -0.985006 
-0.129836 -0.250838 -0.959283 -0.526357 -0.380044 -0.760602 -0.292006 -0.310791 -0.904512 
0.795704 -0.465587 -0.387408 0.782885 -0.480658 -0.395042 0.778118 -0.469278 -0.417504 
0.534249 -0.625288 -0.568852 0.375755 -0.535275 -0.756498 -0.0378889 -0.402405 -0.914678 
-0.0145077 -0.251287 -0.967804 -0.143617 -0.103228 -0.984235 -0.215661 -0.141506 -0.966161 
-0.269193 -0.257104 -0.928134 -0.463277 -0.424641 -0.777852 -0.461897 -0.421479 -0.780389 
-0.453534 -0.419166 -0.786516 0.529726 -0.624903 -0.573486 0.299504 -0.682478 -0.666724 
0.214873 -0.550491 -0.806715 0.0536244 -0.474909 -0.8784 -0.0173888 -0.420586 -0.907086 
-0.0210963 -0.297612 -0.954454 0.0468006 -0.224968 -0.973242 0.0359562 -0.238253 -0.970537 
-0.133004 -0.205733 -0.969528 -0.273828 -0.224804 -0.935137 -0.428156 -0.363449 -0.827398 
-0.426245 -0.366285 -0.827134 -0.398968 -0.340419 -0.851434 0.231321 -0.652536 -0.721587 
0.2258 -0.636489 -0.737493 0.211231 -0.632996 -0.74478 0.281658 -0.503579 -0.816748 
0.149085 -0.408022 -0.900717 0.0764058 -0.254762 -0.963981 0.0199992 -0.264533 -0.964169 
0.0168052 -0.303319 -0.952741 -0.140702 -0.520628 -0.84211 -0.1104 -0.345671 -0.931839 
-0.412693 -0.376929 -0.829222 -0.359185 -0.419658 -0.83359 -0.347491 -0.341443 -0.873308 
0.221344 -0.560878 -0.797761 0.144502 -0.572648 -0.806966 0.115772 -0.505546 -0.854997 
-0.0599887 -0.435937 -0.897975 -0.0621978 -0.427718 -0.90177 -0.0715249 -0.470535 -0.879478 
-0.0552295 -0.455894 -0.888319 -0.0531865 -0.445139 -0.893881 0.115615 0.607346 -0.78598 
0.0364315 0.622119 -0.782075 -0.045266 0.646135 -0.76188 0.302592 0.77346 -0.556953 
0.176932 0.737626 -0.651615 0.125435 0.61014 -0.782301 0.144841 0.636435 -0.757609 
0.115635 0.596114 -0.794529 0.0395418 0.584623 -0.810341 -0.185522 0.623929 -0.75914 
-0.0488562 0.605095 -0.794653 -0.204474 0.617627 -0.759426 -0.285014 0.525158 -0.801858 
0.418914 0.727831 -0.54293 0.512325 0.660455 -0.548928 0.283549 0.705911 -0.649069 
0.0543993 0.582401 -0.81108 0.000307581 0.481432 -0.876484 0.0302071 0.375685 -0.926255 
0.0566418 0.31172 -0.948484 -0.0249289 0.305439 -0.951885 -0.161652 0.343386 -0.925178 
-0.333803 0.391675 -0.857418 -0.289345 0.40792 -0.865957 -0.351217 0.337134 -0.873491 
0.666644 0.512757 -0.540986 0.72143 0.433477 -0.540034 0.457631 0.469304 -0.7552 
-0.103638 0.256795 -0.960893 -0.0575374 0.177702 -0.982401 -0.00132835 0.0953558 -0.995442 
-0.0306115 0.0546824 -0.998034 -0.125266 0.101067 -0.986962 -0.243217 0.131927 -0.960958 
-0.442894 0.18639 -0.876985 -0.35776 0.174145 -0.917432 0.783769 0.322499 -0.530754 
0.680483 0.32731 -0.6556 -0.146361 -0.00379106 -0.989224 -0.0689219 -0.103142 -0.992276 
-0.0206287 -0.137426 -0.990297 -0.0926357 -0.0688719 -0.993315 -0.211501 -0.0447123 -0.976355 
-0.370859 0.087272 -0.92458 -0.31878 0.000821624 -0.947828 0.839493 0.0775961 -0.537801 
0.647976 0.100737 -0.754969 -0.224527 0.00103328 -0.974467 -0.138971 -0.0463846 -0.989209 
0.0063902 -0.128063 -0.991746 -0.0317451 -0.14496 -0.988928 -0.181183 -0.171 -0.968469 
-0.349635 0.00318995 -0.936881 -0.243385 -0.102373 -0.964512 0.823033 -0.125718 -0.553905 
0.664012 -0.12533 -0.737144 -0.214679 0.0209306 -0.97646 -0.203152 -0.111744 -0.97275 
-0.122075 -0.104522 -0.987002 -0.182918 -0.281519 -0.94196 -0.143368 -0.292058 -0.945594 
-0.0438207 -0.249625 -0.967351 -0.167148 -0.253127 -0.952884 -0.230857 -0.115434 -0.966116 
-0.108034 -0.177688 -0.978139 -0.131264 -0.162231 -0.977983 0.777454 -0.30134 -0.55205 
0.707805 -0.366885 -0.603662 0.703367 -0.315617 -0.636915 -0.396605 -0.131525 -0.908518 
-0.24764 -0.13105 -0.959948 -0.186253 -0.262371 -0.946822 -0.174007 -0.147063 -0.973701 
0.605747 -0.444132 -0.660165 0.373446 -0.518434 -0.769262 0.430387 -0.498407 -0.752567 
0.184425 -0.524776 -0.831022 -0.154525 -0.465756 -0.871317 -0.192229 -0.350591 -0.916588 
-0.0767824 -0.381392 -0.921219 -0.201541 -0.205049 -0.957777 -0.253876 -0.0951084 -0.962549 
-0.0693902 -0.241353 -0.967953 -0.260712 -0.193022 -0.945924 0.264863 -0.541408 -0.79795 
0.164013 -0.553918 -0.816256 0.164611 -0.570536 -0.804606 0.0242265 -0.505625 -0.862413 
0.00432678 -0.560926 -0.827855 -0.0774343 -0.48967 -0.868463 -0.0963119 -0.524656 -0.845849 
-0.127348 -0.481504 -0.867142 -0.133327 -0.48328 -0.865254 -0.137345 -0.489785 -0.860957 
0.143247 0.342906 -0.928383 -0.0320432 0.345212 -0.937977 0.158299 0.338489 -0.92756 
0.37414 0.268377 -0.88769 0.140183 0.331019 -0.933153 -0.066912 0.293611 -0.95358 
-0.0346189 0.323671 -0.945536 -0.126877 0.185722 -0.974377 0.386513 0.241522 -0.890098 
0.36492 0.235246 -0.900829 0.095278 0.169822 -0.980858 -0.0893714 0.118772 -0.988891 
-0.153962 0.0251274 -0.987757 -0.164203 0.062175 -0.984465 0.448004 0.0875216 -0.889737 
0.289238 0.0701101 -0.954686 0.0431195 0.0830406 -0.995613 -0.138412 0.0753801 -0.987502 
-0.230931 0.0284064 -0.972555 -0.234253 0.0415572 -0.971287 0.463711 -0.0928902 -0.881104 
0.340479 -0.0652195 -0.937988 0.0955624 0.00832961 -0.995389 -0.129502 0.0548685 -0.99006 
-0.222679 0.0363128 -0.974215 -0.2423 0.0680769 -0.96781 0.441061 -0.278557 -0.853154 
0.414944 -0.313796 -0.854022 0.406793 -0.270092 -0.87268 0.184275 -0.520895 -0.833493 
0.157175 -0.208062 -0.965405 -0.0786185 -0.187096 -0.979191 -0.34474 -0.133498 -0.929157 
-0.201038 -0.351151 -0.914482 -0.256488 -0.132465 -0.957427 0.0405073 -0.522706 -0.85155 
-0.0576646 -0.514134 -0.85577 -0.0544929 -0.516106 -0.854789 -0.0546473 -0.51522 -0.855314 

