# vtk DataFile Version 4.2
vtk output
ASCII
DATASET POLYDATA
POINTS 538 float
-19.055 -40.4248 -14.747 -10.8626 -40.4248 -16.0831 -2.67025 -40.4248 -16.1813 
5.5221 -40.4248 -15.327 -27.2473 -32.2324 -16.6497 -19.055 -32.2324 -18.8032 
-10.8626 -32.2324 -19.0174 -2.67025 -32.2324 -18.4152 5.5221 -32.2324 -17.9212 
13.7144 -32.2324 -17.048 21.9068 -32.2324 -15.7814 -35.4396 -24.0401 -17.6437 
-27.2473 -24.0401 -20.1559 -19.055 -24.0401 -20.2705 -10.8626 -24.0401 -19.654 
-2.67025 -24.0401 -19.059 5.5221 -24.0401 -18.5813 13.7144 -24.0401 -18.518 
21.9068 -24.0401 -17.6783 30.0991 -24.0401 -16.0218 -43.632 -15.8477 -17.9481 
-35.4396 -15.8477 -20.0045 -27.2473 -15.8477 -20.2236 -19.055 -15.8477 -20.1022 
-10.8626 -15.8477 -19.823 -2.67025 -15.8477 -19.5532 5.5221 -15.8477 -19.0901 
13.7144 -15.8477 -18.9083 21.9068 -15.8477 -18.5589 30.0991 -15.8477 -17.9011 
38.2915 -15.8477 -16.1986 -51.8243 -7.6554 -17.2933 -43.632 -7.6554 -19.6326 
-35.4396 -7.6554 -20.4374 -27.2473 -7.6554 -19.5739 -19.055 -7.6554 -18.888 
-10.8626 -7.6554 -20.7687 -2.67025 -7.6554 -20.4262 5.5221 -7.6554 -19.2001 
13.7144 -7.6554 -19.865 21.9068 -7.6554 -19.0371 30.0991 -7.6554 -18.7108 
38.2915 -7.6554 -17.9165 46.4838 -7.6554 -16.0933 -60.0167 0.536954 -16.7046 
-51.8243 0.536954 -20.0516 -43.632 0.536954 -21.0959 -35.4396 0.536954 -21.0688 
-27.2473 0.536954 -19.9377 -19.055 0.536954 -18.7725 -10.8626 0.536954 -21.5485 
-2.67025 0.536954 -17.8921 5.5221 0.536954 -19.7207 13.7144 0.536954 -20.7144 
21.9068 0.536954 -18.6445 30.0991 0.536954 -19.1514 38.2915 0.536954 -19.0945 
46.4838 0.536954 -17.9109 54.6762 0.536954 -14.9262 -60.0167 8.7293 -17.2698 
-51.8243 8.7293 -20.6255 -43.632 8.7293 -21.771 -35.4396 8.7293 -21.7464 
-27.2473 8.7293 -20.8284 -19.055 8.7293 -20.2161 -10.8626 8.7293 -21.3569 
-2.67025 8.7293 -19.8514 5.5221 8.7293 -19.5216 13.7144 8.7293 -18.5234 
21.9068 8.7293 -18.3177 30.0991 8.7293 -19.3441 38.2915 8.7293 -19.6316 
46.4838 8.7293 -18.9023 54.6762 8.7293 -16.3503 -60.0167 16.9217 -16.1637 
-51.8243 16.9217 -19.9374 -43.632 16.9217 -21.4126 -35.4396 16.9217 -21.7754 
-27.2473 16.9217 -21.7351 -19.055 16.9217 -21.0445 -10.8626 16.9217 -20.7848 
-2.67025 16.9217 -20.0031 5.5221 16.9217 -19.0012 13.7144 16.9217 -18.7368 
21.9068 16.9217 -19.4236 30.0991 16.9217 -19.7266 38.2915 16.9217 -19.7027 
46.4838 16.9217 -18.9483 54.6762 16.9217 -15.9922 -51.8243 25.114 -17.4763 
-43.632 25.114 -20.7339 -35.4396 25.114 -21.1203 -27.2473 25.114 -20.9023 
-19.055 25.114 -21.3417 -10.8626 25.114 -20.8546 -2.67025 25.114 -20.5942 
5.5221 25.114 -20.2437 13.7144 25.114 -20.1052 21.9068 25.114 -20.0863 
30.0991 25.114 -20.1563 38.2915 25.114 -20.7038 46.4838 25.114 -17.4336 
-43.632 33.3064 -16.01 -35.4396 33.3064 -18.577 -27.2473 33.3064 -19.3189 
-19.055 33.3064 -20.2386 -10.8626 33.3064 -19.3888 -2.67025 33.3064 -18.9699 
5.5221 33.3064 -18.9393 13.7144 33.3064 -20.2456 21.9068 33.3064 -19.6264 
30.0991 33.3064 -18.5714 38.2915 33.3064 -17.6772 46.4838 33.3064 -13.8683 
-19.055 41.4987 -14.6998 -19.055 -41.36 -13.8241 -10.8626 -43.4222 -13.8241 
-2.67025 -43.8091 -13.8241 -2.67025 -48.6171 -6.11047 5.5221 -42.2999 -13.8241 
-20.6227 -40.4248 -13.8241 -27.2473 -35.9187 -13.8241 12.2576 -40.4248 -13.8241 
13.7144 -39.7689 -13.8241 13.7144 -40.4248 -13.4668 21.9068 -36.3272 -13.8241 
21.9068 -40.4248 -11.0398 30.0991 -40.4248 -6.85987 -32.5555 -32.2324 -13.8241 
-35.4396 -30.0048 -13.8241 -35.4396 -32.2324 -10.3784 28.9471 -32.2324 -13.8241 
30.0991 -31.1835 -13.8241 30.0991 -32.2324 -13.427 38.2915 -32.2324 -8.09836 
-43.0297 -24.0401 -13.8241 -43.632 -23.4174 -13.8241 -43.632 -24.0401 -13.2392 
37.5911 -24.0401 -13.8241 38.2915 -23.3428 -13.8241 38.2915 -24.0401 -13.5821 
46.4838 -24.0401 -8.17997 -51.3041 -15.8477 -13.8241 -51.8243 -15.2587 -13.8241 
-51.8243 -15.8477 -13.4093 44.8762 -15.8477 -13.8241 46.4838 -14.2137 -13.8241 
46.4838 -15.8477 -13.1812 54.6762 -15.8477 -7.54835 -57.434 -7.6554 -13.8241 
-60.0167 -4.22773 -13.8241 -60.0167 -7.6554 -11.4532 51.7938 -7.6554 -13.8241 
54.6762 -3.14689 -13.8241 54.6762 -7.6554 -12.277 -63.2158 0.536954 -13.8241 
-68.209 0.536954 -6.06816 56.4614 0.536954 -13.8241 62.8685 0.536954 -9.05623 
-63.4483 8.7293 -13.8241 60.1673 8.7293 -13.8241 62.8685 8.7293 -11.6157 
-62.353 16.9217 -13.8241 -60.0167 21.3634 -13.8241 57.9986 16.9217 -13.8241 
54.6762 24.2112 -13.8241 62.8685 16.9217 -9.79906 -57.7429 25.114 -13.8241 
-60.0167 25.114 -10.6036 -51.8243 30.7513 -13.8241 54.1817 25.114 -13.8241 
54.6762 25.114 -13.5079 -48.1217 33.3064 -13.8241 -51.8243 33.3064 -7.75876 
-43.632 35.5875 -13.8241 -35.4396 38.7153 -13.8241 -27.2473 41.2684 -13.8241 
-10.8626 40.8614 -13.8241 -2.67025 39.3879 -13.8241 5.5221 39.2191 -13.8241 
13.7144 40.3832 -13.8241 21.9068 40.6299 -13.8241 30.0991 39.9522 -13.8241 
38.2915 37.9152 -13.8241 46.5955 33.3064 -13.8241 46.4838 33.3503 -13.8241 
-25.5992 41.4987 -13.8241 -27.2473 41.4987 -12.9596 -14.3108 41.4987 -13.8241 
-19.055 42.1562 -13.8241 -10.8626 41.4987 -10.7914 21.9068 41.4987 -7.38862 
-2.67025 -48.8237 -5.63173 -19.055 -44.993 -5.63173 -4.95191 -48.6171 -5.63173 
-10.8626 -48.0672 -5.63173 -0.404391 -48.6171 -5.63173 -2.67025 -48.6171 -4.25218 
5.5221 -48.0717 -5.63173 13.7144 -46.9218 -5.63173 21.9068 -44.7679 -5.63173 
30.0991 -41.3529 -5.63173 -35.4396 -34.6335 -5.63173 -26.5571 -40.4248 -5.63173 
-27.2473 -39.9771 -5.63173 31.656 -40.4248 -5.63173 38.2915 -35.0683 -5.63173 
-38.4246 -32.2324 -5.63173 -43.632 -28.4222 -5.63173 41.5423 -32.2324 -5.63173 
46.4838 -27.3382 -5.63173 -49.2741 -24.0401 -5.63173 -51.8243 -21.7825 -5.63173 
49.4827 -24.0401 -5.63173 54.6762 -18.2844 -5.63173 -57.6956 -15.8477 -5.63173 
-60.0167 -13.0881 -5.63173 56.5395 -15.8477 -5.63173 -63.841 -7.6554 -5.63173 
-68.209 0.195202 -5.63173 62.1525 -7.6554 -5.63173 62.8685 -6.3168 -5.63173 
62.8685 -7.6554 -3.9313 -68.3785 0.536954 -5.63173 -68.209 4.05736 -5.63173 
-68.209 0.536954 -3.42553 65.3724 0.536954 -5.63173 -67.9691 8.7293 -5.63173 
66.6848 8.7293 -5.63173 -66.77 16.9217 -5.63173 65.6349 16.9217 -5.63173 
62.8685 24.0416 -5.63173 -62.2203 25.114 -5.63173 -60.0167 27.4817 -5.63173 
62.3035 25.114 -5.63173 54.6762 33.2535 -5.63173 -52.6291 33.3064 -5.63173 
-51.8243 33.9664 -5.63173 -51.8243 33.3064 -4.05656 -43.632 38.2805 -5.63173 
-35.4396 41.4265 -5.63173 -2.67025 40.1369 -5.63173 5.5221 39.1951 -5.63173 
13.7144 40.1686 -5.63173 30.0991 41.2962 -5.63173 38.2915 40.4534 -5.63173 
54.6018 33.3064 -5.63173 46.4838 37.6944 -5.63173 -35.0733 41.4987 -5.63173 
-27.2473 42.8779 -5.63173 -27.2473 41.4987 -2.80504 -19.055 43.6132 -5.63173 
-19.055 41.4987 -1.39629 -7.80743 41.4987 -5.63173 -10.8626 42.267 -5.63173 
-10.8626 41.4987 -3.78332 20.8877 41.4987 -5.63173 25.8836 41.4987 -5.63173 
21.9068 41.6661 -5.63173 21.9068 41.4987 -5.30736 -19.055 -44.1804 2.56062 
-10.8626 -46.7837 2.56062 -2.67025 -47.589 2.56062 5.5221 -47.6155 2.56062 
13.7144 -47.4884 2.56062 21.9068 -45.9513 2.56062 30.0991 -43.3403 2.56062 
-35.4396 -35.0977 2.56062 -26.2184 -40.4248 2.56062 -27.2473 -39.8595 2.56062 
35.5236 -40.4248 2.56062 38.2915 -38.7478 2.56062 -39.94 -32.2324 2.56062 
-43.632 -29.8862 2.56062 46.1272 -32.2324 2.56062 46.4838 -31.903 2.56062 
-51.3134 -24.0401 2.56062 -51.8243 -23.604 2.56062 53.978 -24.0401 2.56062 
54.6762 -23.1904 2.56062 -59.1771 -15.8477 2.56062 -60.0167 -14.6601 2.56062 
60.2409 -15.8477 2.56062 62.8685 -11.3135 2.56062 -64.3782 -7.6554 2.56062 
64.9032 -7.6554 2.56062 -67.7065 0.536954 2.56062 67.2475 0.536954 2.56062 
-67.2317 8.7293 2.56062 68.4106 8.7293 2.56062 -64.8117 16.9217 2.56062 
-60.0167 16.9217 8.81839 66.6729 16.9217 2.56062 62.8685 24.151 2.56062 
-60.0512 25.114 2.56062 -60.0167 25.1587 2.56062 -60.0167 25.114 2.6079 
-51.8243 30.4002 2.56062 -51.8243 25.114 8.43437 62.2135 25.114 2.56062 
54.6762 31.8711 2.56062 -45.6237 33.3064 2.56062 -43.632 34.3509 2.56062 
-43.632 33.3064 3.59995 -35.4396 37.1102 2.56062 -35.4396 33.3064 6.28651 
-27.2473 38.0693 2.56062 -27.2473 33.3064 7.68908 -19.055 38.849 2.56062 
-19.055 33.3064 7.87123 -10.8626 38.2095 2.56062 -10.8626 33.3064 7.92532 
-2.67025 36.5597 2.56062 -2.67025 33.3064 6.83665 5.5221 35.2626 2.56062 
5.5221 33.3064 5.21115 13.7144 35.8328 2.56062 13.7144 33.3064 5.58146 
21.9068 36.6552 2.56062 21.9068 33.3064 7.01405 30.0991 37.9697 2.56062 
30.0991 33.3064 8.88632 38.2915 37.1955 2.56062 38.2915 33.3064 10.2513 
51.9474 33.3064 2.56062 46.4838 36.125 2.56062 46.4838 33.3064 7.20329 
-19.055 -42.0669 10.753 -10.8626 -43.689 10.753 -2.67025 -44.119 10.753 
5.5221 -44.1452 10.753 13.7144 -44.2454 10.753 21.9068 -43.372 10.753 
30.0991 -41.0411 10.753 -35.4396 -34.8508 10.753 -23.8091 -40.4248 10.753 
-27.2473 -39.1434 10.753 -19.055 -40.4248 13.398 -10.8626 -40.4248 15.2856 
-2.67025 -40.4248 15.4999 5.5221 -40.4248 15.5179 13.7144 -40.4248 15.5249 
21.9068 -40.4248 14.5858 31.4421 -40.4248 10.753 30.0991 -40.4248 11.5854 
38.2915 -36.659 10.753 -39.5444 -32.2324 10.753 -43.632 -29.378 10.753 
-35.4396 -32.2324 15.871 44.2196 -32.2324 10.753 38.2915 -32.2324 15.2579 
46.4838 -30.294 10.753 -50.4693 -24.0401 10.753 -51.8243 -22.5931 10.753 
-43.632 -24.0401 18.6018 52.4674 -24.0401 10.753 46.4838 -24.0401 16.2052 
54.6762 -21.5059 10.753 -57.3169 -15.8477 10.753 -60.0167 -10.7033 10.753 
-51.8243 -15.8477 16.9145 58.7366 -15.8477 10.753 54.6762 -15.8477 15.3217 
62.8685 -8.34558 10.753 -61.4685 -7.6554 10.753 -60.0167 -7.6554 12.6148 
54.6762 -7.6554 18.876 63.2308 -7.6554 10.753 62.8685 -7.6554 11.2777 
-63.4676 0.536954 10.753 -60.0167 0.536954 14.3704 65.2106 0.536954 10.753 
62.8685 0.536954 13.9219 -62.6877 8.7293 10.753 -60.0167 14.05 10.753 
-60.0167 8.7293 13.415 -51.8243 8.7293 17.6229 65.7772 8.7293 10.753 
62.8685 8.7293 14.1979 -57.4754 16.9217 10.753 -51.8243 22.1263 10.753 
-51.8243 16.9217 14.3227 -43.632 16.9217 17.0779 -35.4396 16.9217 17.8891 
-27.2473 16.9217 18.2212 -19.055 16.9217 18.0937 -10.8626 16.9217 17.9502 
[...]
POINT_DATA 538
SCALARS ImageScalars float
LOOKUP_TABLE default
0 0 0 0 0 0 0 0 0 
0 0 0 0 0 0 0 0 0 
0 0 0 0 0 0 0 0 0 
0 0 0 0 0 0 0 0 0 
0 0 0 0 0 0 0 0 0 
0 0 0 0 0 0 0 0 0 
0 0 0 0 0 0 0 0 0 
0 0 0 0 0 0 0 0 0 
0 0 0 0 0 0 0 0 0 
0 0 0 0 0 0 0 0 0 
0 0 0 0 0 0 0 0 0 
0 0 0 0 0 0 0 0 0 
0 0 0 0 0 0 0 0 0 
0 0 0 0 0 0 0 0 0 
0 0 0 0 0 0 0 0 0 
0 0 0 0 0 0 0 0 0 
0 0 0 0 0 0 0 0 0 
0 0 0 0 0 0 0 0 0 
0 0 0 0 0 0 0 0 0 
0 0 0 0 0 0 0 0 0 
0 0 0 0 0 0 0 0 0 
0 0 0 0 0 0 0 0 0 
0 0 0 0 0 0 0 0 0 
0 0 0 0 0 0 0 0 0 
0 0 0 0 0 0 0 0 0 
0 0 0 0 0 0 0 0 0 
0 0 0 0 0 0 0 0 0 
0 0 0 0 0 0 0 0 0 
0 0 0 0 0 0 0 0 0 
0 0 0 0 0 0 0 0 0 
0 0 0 0 0 0 0 0 0 
0 0 0 0 0 0 0 0 0 
0 0 0 0 0 0 0 0 0 
0 0 0 0 0 0 0 0 0 
0 0 0 0 0 0 0 0 0 
0 0 0 0 0 0 0 0 0 
0 0 0 0 0 0 0 0 0 
0 0 0 0 0 0 0 0 0 
0 0 0 0 0 0 0 0 0 
0 0 0 0 0 0 0 0 0 
0 0 0 0 0 0 0 0 0 
0 0 0 0 0 0 0 0 0 
0 0 0 0 0 0 0 0 0 
0 0 0 0 0 0 0 0 0 
0 0 0 0 0 0 0 0 0 
0 0 0 0 0 0 0 0 0 
0 0 0 0 0 0 0 0 0 
0 0 0 0 0 0 0 0 0 
0 0 0 0 0 0 0 0 0 
0 0 0 0 0 0 0 0 0 
0 0 0 0 0 0 0 0 0 
0 0 0 0 0 0 0 0 0 
0 0 0 0 0 0 0 0 0 
0 0 0 0 0 0 0 0 0 
0 0 0 0 0 0 0 0 0 
0 0 0 0 0 0 0 0 0 
0 0 0 0 0 0 0 0 0 
0 0 0 0 0 0 0 0 0 
0 0 0 0 0 0 0 0 0 
0 0 0 0 0 0 0 
NORMALS Normals float
0.32528 0.655833 0.681231 0.0717407 0.529818 0.845072 -0.0381306 0.452372 0.891014 
-0.149646 0.508872 0.847736 0.335757 0.517832 0.78684 0.137814 0.299629 0.94405 
-0.0239134 0.197453 0.980021 -0.0692811 0.167887 0.983369 -0.0787993 0.166581 0.982874 
-0.13123 0.26929 0.954076 -0.198512 0.329821 0.922936 0.342419 0.386477 0.856379 
0.150014 0.189764 0.970302 -0.0319447 0.070947 0.996968 -0.072748 0.0509876 0.996046 
-0.0652601 0.0685256 0.995513 -0.0328473 0.0723701 0.996837 -0.055061 0.107557 0.992673 
-0.146791 0.166159 0.975112 -0.238643 0.252631 0.937671 0.342736 0.318376 0.883837 
0.12352 0.171119 0.977477 0.00506017 -0.0362791 0.999329 -0.0242737 -0.0805755 0.996453 
-0.0332156 0.0617541 0.997539 -0.0454665 0.0768284 0.996007 -0.0392001 0.0375057 0.998527 
-0.0328206 0.0793259 0.996308 -0.0587461 0.0820637 0.994894 -0.135093 0.160986 0.977667 
-0.258698 0.249748 0.933114 0.382891 0.335718 0.860632 0.177857 0.1704 0.969191 
-0.00472727 0.0604188 0.998162 -0.100422 -0.0176516 0.994788 0.0623017 -0.0823968 0.99465 
0.0970679 0.103352 0.989897 -0.100688 -0.0673583 0.992635 -0.0258374 0.0307744 0.999192 
-0.0111894 0.104316 0.994481 -0.0684212 0.00645803 0.997636 -0.0666576 0.0736012 0.995058 
-0.150758 0.165227 0.974665 -0.292392 0.2614 0.919879 0.561338 0.25784 0.786396 
0.219384 0.197601 0.955418 0.0527207 0.130981 0.989982 -0.0700346 0.0832341 0.994066 
-0.137581 0.0759768 0.987572 0.0730439 0.0792948 0.994171 0.000677319 0.0342197 0.999414 
-0.134784 -0.0229605 0.990609 0.17121 0.0250807 0.984915 -0.0889732 -0.0780186 0.992974 
-0.0770409 -0.0441876 0.996048 0.0266871 0.0385535 0.9989 -0.0718428 0.102611 0.992124 
-0.228202 0.162118 0.960022 -0.437776 0.211305 0.873901 0.579834 -0.0213377 0.814455 
0.223324 -0.00839449 0.974708 0.0629952 0.0180805 0.99785 -0.0571194 0.0431368 0.997435 
-0.0916545 0.108702 0.98984 0.0325994 0.137418 0.989977 -0.0202325 -0.0458406 0.998744 
-0.115674 0.10189 0.988048 -0.0796741 -0.0439341 0.995852 -0.0762454 -0.112301 0.990745 
0.0513995 0.0417518 0.997805 0.0797101 0.0349557 0.996205 -0.0247898 0.0369147 0.999011 
-0.203445 0.0614696 0.977155 -0.37154 0.0559125 0.926732 0.603518 -0.241993 0.75974 
0.254279 -0.185979 0.949081 0.104484 -0.0569524 0.992895 0.0181965 -0.0337306 0.999265 
-0.0449162 0.00484854 0.998979 -0.0578528 0.0665284 0.996106 -0.0623619 -0.0305712 0.997585 
-0.109431 0.0448237 0.992983 -0.0760504 0.0468886 0.996001 0.0229585 0.0993663 0.994786 
0.0606609 0.112217 0.99183 0.0153403 0.0491068 0.998676 -0.0444376 0.0576896 0.997345 
-0.200046 -0.0874281 0.975878 -0.455457 -0.140106 0.879164 0.419908 -0.386471 0.821168 
0.199639 -0.277077 0.939879 0.00705638 -0.170874 0.985268 0.0137724 -0.145549 0.989255 
-0.00313028 -0.0393915 0.999219 -0.0448275 -0.081343 0.995678 -0.0377811 -0.0579105 0.997607 
-0.030369 0.000815251 0.999538 -0.0101395 0.0914464 0.995758 0.00304322 0.011745 0.999926 
0.0339674 -0.0683897 0.99708 -0.149206 -0.11923 0.981591 -0.349245 -0.218476 0.911206 
0.323581 -0.661656 0.676392 0.188658 -0.499766 0.845365 0.0882003 -0.372004 0.924031 
0.00566166 -0.322882 0.946422 -0.0726379 -0.380889 0.921763 -0.0296211 -0.445514 0.894785 
0.0741819 -0.43864 0.895596 0.0453717 -0.322839 0.945366 -0.110112 -0.32857 0.938039 
-0.123505 -0.397702 0.909164 -0.213943 -0.493942 0.842763 -0.427509 -0.622239 0.655785 
-0.018988 -0.837905 0.545487 0.342654 0.696653 0.630288 0.118621 0.672587 0.730449 
-0.0465768 0.627979 0.776835 -0.00225096 0.985824 0.16777 -0.160958 0.600671 0.783127 
0.373268 0.68685 0.623625 0.431238 0.644457 0.631434 -0.192712 0.542712 0.817512 
-0.194685 0.523891 0.829238 -0.201473 0.557301 0.805496 -0.231828 0.444747 0.865133 
-0.287089 0.640718 0.712081 -0.438478 0.75364 0.489657 0.461463 0.635691 0.618829 
0.475614 0.615859 0.628099 0.545812 0.72079 0.42726 -0.338728 0.388275 0.857033 
-0.347557 0.377798 0.85818 -0.366775 0.402159 0.838895 -0.519689 0.571835 0.634766 
0.493319 0.560598 0.665106 0.493745 0.555496 0.669059 0.509391 0.584155 0.631889 
-0.35502 0.361235 0.862247 -0.356855 0.36131 0.861458 -0.367577 0.374228 0.851376 
-0.561462 0.511957 0.650123 0.527961 0.455818 0.71658 0.53029 0.451641 0.717505 
0.5453 0.47121 0.69326 -0.370679 0.349436 0.860518 -0.378305 0.350985 0.85656 
-0.404201 0.378543 0.832662 -0.631806 0.482982 0.606259 0.578115 0.406094 0.707722 
0.62958 0.3761 0.679836 0.689938 0.453017 0.564589 -0.404766 0.317521 0.857522 
-0.450032 0.276598 0.849096 -0.489533 0.361624 0.793464 0.68839 0.263762 0.675684 
0.947968 0.248819 0.198612 -0.489734 0.222879 0.842903 -0.763286 0.230153 0.603675 
0.737168 -0.0375177 0.674667 -0.566088 0.0492089 0.822875 -0.71759 0.0405853 0.695282 
0.709538 -0.257839 0.655801 0.676234 -0.393164 0.623001 -0.550794 -0.183928 0.814123 
-0.5296 -0.24524 0.812023 -0.779292 -0.219972 0.586785 0.628489 -0.485918 0.607359 
0.727688 -0.577078 0.370743 0.512331 -0.656498 0.553649 -0.525911 -0.256598 0.81091 
-0.548067 -0.268771 0.792076 0.443283 -0.725718 0.52615 0.5646 -0.820936 0.0853829 
0.357108 -0.75874 0.544782 0.286921 -0.778605 0.558077 0.16519 -0.850565 0.499251 
-0.143831 -0.862784 0.484682 -0.0814627 -0.891149 0.446338 0.0521285 -0.915661 0.398558 
0.0774527 -0.928091 0.364208 -0.0201104 -0.900914 0.433531 -0.151856 -0.848527 0.506895 
-0.286154 -0.794671 0.535364 -0.430274 -0.623028 0.653223 -0.42808 -0.624761 0.653009 
0.129855 -0.860403 0.492792 0.16602 -0.888753 0.427266 -0.097129 -0.873902 0.476299 
-0.021309 -0.872885 0.48746 -0.180389 -0.954161 0.238824 0.0494493 -0.993815 -0.0994316 
-0.00130706 0.990508 0.137447 0.42831 0.894528 0.127949 0.0588951 0.989335 0.133218 
0.216753 0.96818 0.125081 -0.0297392 0.987628 0.15397 0.00814626 0.997269 0.073399 
-0.107419 0.973189 0.203383 -0.185068 0.93117 0.314122 -0.30497 0.88034 0.36331 
-0.439118 0.786212 0.434795 0.579589 0.788838 0.204477 0.528843 0.833377 0.16065 
0.536621 0.827464 0.165351 -0.469084 0.763318 0.444192 -0.553094 0.645836 0.526291 
0.580179 0.783566 0.222299 0.57444 0.777585 0.255695 -0.573386 0.617432 0.538522 
-0.60366 0.576977 0.550174 0.613515 0.744025 0.264625 0.640357 0.716063 0.277844 
-0.619909 0.556191 0.553502 -0.663391 0.524352 0.533824 0.703384 0.641065 0.307062 
0.74998 0.589709 0.299622 -0.684014 0.502587 0.528707 0.845857 0.454017 0.279992 
0.950862 0.25579 0.17445 -0.768847 0.449477 0.454802 -0.794161 0.415329 0.443633 
-0.81955 0.448313 0.356867 0.953909 0.246301 0.171442 0.982281 0.0975561 0.16002 
0.972619 0.227097 0.0493794 -0.869938 0.222171 0.440282 0.985655 -0.0868706 0.144697 
-0.91302 0.0164822 0.407581 0.938349 -0.336751 0.0780965 -0.906288 -0.213121 0.364995 
-0.809697 -0.512337 0.286186 0.778884 -0.624117 0.0617924 0.714003 -0.696739 0.0689606 
-0.787113 -0.552382 0.274459 -0.602405 -0.796509 0.05179 0.570349 -0.820616 -0.0359314 
0.559863 -0.827401 -0.0442891 0.53747 -0.832623 -0.133663 0.403661 -0.91427 -0.0341838 
0.250532 -0.966341 -0.0584665 -0.178979 -0.971987 -0.152338 -0.00168774 -0.978921 -0.204231 
0.139402 -0.964183 -0.22565 -0.0692209 -0.990396 -0.11968 -0.206785 -0.976452 -0.0614901 
-0.599638 -0.79867 0.0506068 -0.400446 -0.912122 0.0876137 0.24467 -0.967596 -0.0624026 
0.134285 -0.981286 -0.138008 0.111233 -0.943481 -0.312203 -0.0397845 -0.989091 -0.141835 
-0.0214816 -0.914427 -0.404181 -0.197064 -0.970005 -0.142322 -0.207957 -0.969535 -0.129446 
-0.196576 -0.954636 -0.223669 0.0742017 -0.972332 -0.221505 -0.000444879 -0.984873 -0.173275 
0.0639699 -0.973573 -0.219233 0.0654276 -0.969902 -0.234539 0.379702 0.911351 -0.158952 
0.18933 0.953344 -0.235136 0.0492155 0.966106 -0.253413 -0.00603985 0.978526 -0.206035 
-0.108582 0.984543 -0.137419 -0.229186 0.970334 -0.0769772 -0.399257 0.916636 -0.0192859 
0.520579 0.853783 0.00727722 0.48539 0.87245 -0.0568186 0.497259 0.866566 -0.0423834 
-0.510742 0.859516 0.0193683 -0.567602 0.821915 0.0477952 0.534303 0.844258 0.0418112 
0.554413 0.830882 0.0475478 -0.684148 0.724093 0.0873517 -0.687528 0.720674 0.0890812 
0.637621 0.768953 0.0463774 0.646104 0.762043 0.0428907 -0.758676 0.643427 0.102041 
-0.765645 0.635243 0.101257 0.792419 0.609575 -0.0221651 0.811589 0.582829 -0.0404053 
-0.833902 0.545164 0.0860513 -0.88358 0.464549 0.0589898 0.900172 0.417623 -0.12362 
-0.914694 0.401699 0.0444182 0.953178 0.162205 -0.255229 -0.981031 0.193733 -0.00678693 
0.950045 -0.14718 -0.27523 -0.998139 -0.0346317 -0.0501913 0.826573 -0.428796 -0.36457 
0.578463 -0.459716 -0.673826 -0.944216 -0.310802 -0.1089 -0.800984 -0.566758 -0.192898 
0.683886 -0.584678 -0.436408 0.68268 -0.585957 -0.436581 0.682434 -0.584935 -0.438332 
0.401148 -0.763254 -0.506482 0.382672 -0.651721 -0.654845 -0.768647 -0.60602 -0.204747 
-0.50349 -0.823505 -0.261414 0.320542 -0.76953 -0.552338 0.306522 -0.771323 -0.557768 
0.29622 -0.751922 -0.588955 0.165327 -0.776696 -0.607792 0.176194 -0.698872 -0.693205 
0.0757566 -0.761728 -0.643453 0.0651043 -0.670745 -0.738825 0.00373323 -0.762835 -0.646582 
0.0099561 -0.625493 -0.780166 -0.118106 -0.808996 -0.575827 -0.0413993 -0.65315 -0.756096 
-0.146633 -0.844336 -0.515359 -0.110988 -0.751396 -0.650451 -0.0411777 -0.846996 -0.530001 
-0.0510519 -0.800898 -0.59662 0.0720976 -0.816429 -0.572928 0.0704236 -0.771614 -0.63218 
0.107008 -0.817786 -0.565487 0.129947 -0.774698 -0.618835 0.0236199 -0.880096 -0.474207 
0.114377 -0.774197 -0.622525 -0.0987725 -0.900878 -0.422685 -0.0464144 -0.819545 -0.571131 
-0.432523 -0.850909 -0.298124 -0.295714 -0.887681 -0.352953 -0.283409 -0.809809 -0.513702 
0.250566 0.88815 -0.385236 0.11349 0.870118 -0.479599 0.0246896 0.858227 -0.512675 
0.00663312 0.854572 -0.51929 -0.044104 0.855057 -0.516655 -0.17061 0.860195 -0.480579 
-0.336947 0.820857 -0.461151 0.482848 0.849565 -0.212361 0.34207 0.883537 -0.319923 
0.405148 0.870407 -0.279726 0.219241 0.833812 -0.506646 0.0769083 0.737566 -0.670881 
0.00937763 0.721525 -0.692324 0.00106235 0.720479 -0.693476 -0.0411511 0.709925 -0.703074 
-0.160503 0.724703 -0.670108 -0.364714 0.812774 -0.454293 -0.333611 0.801805 -0.495795 
-0.488526 0.753 -0.440834 0.522835 0.828451 -0.200781 0.573508 0.789215 -0.219609 
0.412952 0.744484 -0.524608 -0.599681 0.697568 -0.39215 -0.425334 0.616738 -0.662363 
-0.627464 0.679925 -0.379462 0.669872 0.697976 -0.253182 0.694676 0.662657 -0.279841 
0.450754 0.46382 -0.762687 -0.686193 0.624975 -0.372217 -0.510538 0.509376 -0.692739 
-0.72492 0.583659 -0.365832 0.775637 0.496626 -0.389551 0.804983 0.379404 -0.456129 
0.604072 0.345978 -0.717911 -0.780393 0.487714 -0.391307 -0.641429 0.41616 -0.6445 
-0.839875 0.368949 -0.398105 0.81105 0.305908 -0.498616 0.768698 0.278229 -0.575926 
-0.462054 0.210469 -0.861515 -0.844552 0.355477 -0.40046 -0.832934 0.353317 -0.425896 
0.791805 0.0674404 -0.607039 0.654439 0.0229921 -0.755765 -0.889768 0.136284 -0.435591 
-0.768177 0.112887 -0.630207 0.737125 -0.197699 -0.64619 0.577694 -0.381443 -0.721645 
0.625453 -0.246277 -0.740376 0.331748 -0.236967 -0.913121 -0.857502 -0.0956878 -0.505504 
-0.724753 -0.119391 -0.678586 0.476263 -0.472336 -0.741668 0.375095 -0.57802 -0.724704 
0.386066 -0.442144 -0.809606 0.179109 -0.422906 -0.888296 0.0606483 -0.411265 -0.909496 
0.0120442 -0.356529 -0.934207 -0.0148228 -0.365757 -0.930592 -0.0684765 -0.391186 -0.91776 
-0.0994064 -0.358824 -0.928097 0.0432791 -0.42697 -0.90323 0.187183 -0.398501 -0.897864 
-0.425878 -0.331653 -0.841804 -0.753513 -0.364741 -0.546976 -0.729844 -0.404179 -0.551331 
-0.727478 -0.367365 -0.579499 0.253928 -0.620042 -0.74234 0.211631 -0.624289 -0.751981 
0.198393 -0.607908 -0.768823 0.128018 -0.615058 -0.77802 0.0955001 -0.576099 -0.811782 
0.0338149 -0.601735 -0.79798 0.0093378 -0.532162 -0.846591 -0.0106743 -0.556703 -0.830643 
-0.0260638 -0.52375 -0.851473 -0.00919879 -0.544399 -0.838776 -0.00733231 -0.497865 -0.867224 
-0.0452499 -0.580829 -0.812767 -0.0208737 -0.469736 -0.88256 -0.0220005 -0.59162 -0.805917 
0.00554934 -0.489331 -0.872081 0.0793278 -0.644052 -0.760857 0.114548 -0.562236 -0.819005 
0.147542 -0.701856 -0.696872 0.176665 -0.577287 -0.797201 0.130001 -0.731997 -0.66879 
0.100672 -0.55751 -0.824044 -0.043979 -0.806924 -0.589016 -0.0426488 -0.532781 -0.845178 
-0.251295 -0.723339 -0.643141 -0.2178 -0.590457 -0.777125 -0.512069 -0.612639 -0.602046 
-0.447446 -0.65276 -0.611307 -0.431701 -0.586967 -0.684912 0.226784 0.583456 -0.779838 
0.101588 0.51694 -0.849972 0.0205372 0.463693 -0.885758 0.0159722 0.472454 -0.881211 
0.00027745 0.501646 -0.865073 -0.0473339 0.495347 -0.867404 -0.11329 0.455519 -0.882988 
-0.23503 0.464883 -0.853607 0.253491 0.584353 -0.770892 0.315168 0.551141 -0.772601 
0.215425 0.552379 -0.805276 0.053508 0.376255 -0.92497 0.00709067 0.326946 -0.945017 
0.0270748 0.30991 -0.95038 -0.00167007 0.343974 -0.938978 -0.0516015 0.365753 -0.92928 
-0.101925 0.379475 -0.919571 -0.243111 0.462433 -0.852674 -0.231471 0.451953 -0.861487 
-0.317688 0.424394 -0.847917 0.428322 0.44308 -0.787541 0.432487 0.425753 -0.794789 
0.232629 0.326027 -0.916292 0.0149686 0.175426 -0.984379 -0.0273475 0.0903921 -0.995531 
-0.0231576 0.0547149 -0.998233 0.0227689 0.0332052 -0.999189 0.0602383 0.0807844 -0.99491 
-0.0149699 0.114699 -0.993288 -0.0767335 0.153899 -0.985103 -0.111076 0.214955 -0.970287 
-0.36351 0.39263 -0.844809 -0.262385 0.332536 -0.905855 -0.389105 0.345677 -0.853876 
0.460948 0.242437 -0.853669 0.448356 0.112211 -0.886784 0.300366 0.170843 -0.938399 
0.100297 0.0523742 -0.993578 -0.035468 -0.0208341 -0.999154 -0.0796194 -0.0541033 -0.995356 
-0.0466078 -0.0102461 -0.998861 0.0545095 0.0194024 -0.998325 0.0815205 -0.0356947 -0.996032 
0.0207299 -0.0193627 -0.999598 -0.00413164 0.0120809 -0.999918 -0.0329259 0.0801177 -0.996241 
-0.157073 0.153383 -0.975603 -0.413779 0.301625 -0.858958 -0.327228 0.257551 -0.90917 
0.446521 0.105468 -0.888536 0.443181 0.104048 -0.890373 0.214309 0.00692284 -0.976741 
0.0277854 -0.0688304 -0.997241 -0.0940126 -0.112263 -0.989221 -0.0201843 -0.144484 -0.989301 
0.0544474 -0.0399681 -0.997716 -0.00558447 -0.086895 -0.996202 0.0215159 -0.10548 -0.994189 
0.033208 -0.0547797 -0.997946 0.0188475 -0.0556816 -0.998271 0.0215575 -0.00532295 -0.999753 
-0.0658408 0.0425613 -0.996922 -0.45553 0.207372 -0.86573 -0.215045 0.112397 -0.970115 
-0.456715 0.195332 -0.867904 0.379669 -0.0816823 -0.921509 0.362663 -0.106376 -0.925829 
0.36845 -0.0859161 -0.925669 0.148127 -0.126486 -0.980846 -0.0147086 -0.126827 -0.991816 
-0.108546 -0.131213 -0.985394 -0.0146308 -0.0913639 -0.99571 0.00231407 -0.123462 -0.992347 
-0.00942598 -0.192275 -0.981296 0.129322 -0.0926232 -0.987267 0.0689964 -0.107685 -0.991788 
0.0461742 -0.0695257 -0.996511 0.0657063 -0.0396309 -0.997052 -0.0309245 -0.0177608 -0.999364 
-0.191579 0.00699573 -0.981452 -0.439484 0.031909 -0.897684 -0.407131 0.0248931 -0.913031 
0.244042 -0.230302 -0.942021 0.190617 -0.284319 -0.939589 0.196047 -0.231547 -0.952865 
0.0483597 -0.344434 -0.937564 0.0229584 -0.21132 -0.977147 -0.0163409 -0.284747 -0.958464 
-0.0639333 -0.165778 -0.984089 -0.00864558 -0.246568 -0.969087 -0.00290386 -0.105683 -0.994396 
-0.0546168 -0.286175 -0.956619 -0.0363587 -0.163709 -0.985838 0.00318466 -0.187704 -0.98222 
0.0224516 -0.160976 -0.986703 0.0749858 -0.336875 -0.938559 0.0928451 -0.262876 -0.960352 
0.138544 -0.337888 -0.930934 0.0514807 -0.245283 -0.968084 0.0870229 -0.146397 -0.985391 
0.0724515 -0.118113 -0.990354 -0.0200664 -0.111399 -0.993573 -0.174889 -0.0997668 -0.97952 
-0.410185 -0.123476 -0.903605 -0.397281 -0.167147 -0.902347 -0.38602 -0.122088 -0.914376 
0.174376 -0.346446 -0.92172 0.171912 -0.353572 -0.919474 0.167376 -0.320561 -0.932323 
0.0951394 -0.411397 -0.906477 0.0971027 -0.283385 -0.954078 -0.0334091 -0.421626 -0.906154 
-0.0163295 -0.292013 -0.956275 -0.316018 -0.320812 -0.892868 -0.215288 -0.411067 -0.885819 
-0.214725 -0.315334 -0.924369 
