# vtk DataFile Version 4.2
vtk output
ASCII
DATASET POLYDATA
POINTS 590 float
-41.27 -41.0482 -13.8165 -32.5396 -41.0482 -15.896 -23.8091 -41.0482 -16.4515 
-15.0787 -41.0482 -13.9779 -50.0005 -32.3177 -15.0006 -41.27 -32.3177 -17.8652 
-32.5396 -32.3177 -19.096 -23.8091 -32.3177 -18.8302 -15.0787 -32.3177 -18.2735 
-6.34824 -32.3177 -15.5624 -58.7309 -23.5873 -13.8331 -50.0005 -23.5873 -17.4712 
-41.27 -23.5873 -19.1132 -32.5396 -23.5873 -19.4434 -23.8091 -23.5873 -18.9119 
-15.0787 -23.5873 -18.7 -6.34824 -23.5873 -16.8032 2.38221 -23.5873 -14.9002 
11.1127 -23.5873 -15.7652 19.8431 -23.5873 -14.2011 28.5736 -23.5873 -12.1963 
-67.4614 -14.8568 -12.2373 -58.7309 -14.8568 -15.9753 -50.0005 -14.8568 -17.9591 
-41.27 -14.8568 -19.0003 -32.5396 -14.8568 -19.3236 -23.8091 -14.8568 -18.1674 
-15.0787 -14.8568 -17.0834 -6.34824 -14.8568 -17.0942 2.38221 -14.8568 -15.864 
11.1127 -14.8568 -17.7891 19.8431 -14.8568 -16.3771 28.5736 -14.8568 -15.2363 
37.304 -14.8568 -15.38 46.0345 -14.8568 -15.7717 54.7649 -14.8568 -15.2341 
63.4953 -14.8568 -13.4298 -67.4614 -6.1264 -13.0194 -58.7309 -6.1264 -16.9473 
-50.0005 -6.1264 -18.4646 -41.27 -6.1264 -19.1267 -32.5396 -6.1264 -18.6432 
-23.8091 -6.1264 -17.2198 -15.0787 -6.1264 -15.9524 -6.34824 -6.1264 -19.9187 
2.38221 -6.1264 -17.5296 11.1127 -6.1264 -18.8063 19.8431 -6.1264 -17.8955 
28.5736 -6.1264 -16.6449 37.304 -6.1264 -17.0277 46.0345 -6.1264 -17.5099 
54.7649 -6.1264 -17.8788 63.4953 -6.1264 -15.204 72.2258 -6.1264 -17.0019 
-67.4614 2.60405 -13.4405 -58.7309 2.60405 -17.6409 -50.0005 2.60405 -18.8884 
-41.27 2.60405 -19.4465 -32.5396 2.60405 -18.9666 -23.8091 2.60405 -17.7145 
-15.0787 2.60405 -16.7914 -6.34824 2.60405 -19.9111 2.38221 2.60405 -15.9077 
11.1127 2.60405 -19.5895 19.8431 2.60405 -18.6869 28.5736 2.60405 -17.2087 
37.304 2.60405 -17.548 46.0345 2.60405 -17.8191 54.7649 2.60405 -17.7768 
63.4953 2.60405 -15.7852 72.2258 2.60405 -15.969 -67.4614 11.3345 -12.4684 
-58.7309 11.3345 -17.1496 -50.0005 11.3345 -19.297 -41.27 11.3345 -19.7799 
-32.5396 11.3345 -19.3088 -23.8091 11.3345 -18.0474 -15.0787 11.3345 -15.5356 
-6.34824 11.3345 -18.4275 2.38221 11.3345 -17.811 11.1127 11.3345 -17.5514 
19.8431 11.3345 -18.4893 28.5736 11.3345 -17.3076 37.304 11.3345 -17.0764 
46.0345 11.3345 -16.9284 54.7649 11.3345 -16.8201 63.4953 11.3345 -13.9315 
72.2258 11.3345 -12.0969 -58.7309 20.0649 -15.7862 -50.0005 20.0649 -18.4128 
-41.27 20.0649 -19.8741 -32.5396 20.0649 -19.8191 -23.8091 20.0649 -18.3508 
-15.0787 20.0649 -17.4994 -6.34824 20.0649 -18.2527 2.38221 20.0649 -17.5294 
11.1127 20.0649 -17.7479 19.8431 20.0649 -19.0817 28.5736 20.0649 -18.5056 
37.304 20.0649 -17.2143 46.0345 20.0649 -15.6429 54.7649 20.0649 -14.453 
63.4953 20.0649 -13.5429 -58.7309 28.7954 -14.9086 -50.0005 28.7954 -17.4944 
-41.27 28.7954 -19.4777 -32.5396 28.7954 -19.0836 -23.8091 28.7954 -18.9505 
-15.0787 28.7954 -18.4853 -6.34824 28.7954 -18.9923 2.38221 28.7954 -18.073 
11.1127 28.7954 -17.6238 19.8431 28.7954 -19.2963 28.5736 28.7954 -18.3319 
37.304 28.7954 -16.3157 46.0345 28.7954 -16.0411 -50.0005 37.5258 -15.6905 
-41.27 37.5258 -16.7738 -32.5396 37.5258 -17.5378 -23.8091 37.5258 -18.3603 
-15.0787 37.5258 -17.8782 -6.34824 37.5258 -17.4899 2.38221 37.5258 -15.7157 
11.1127 37.5258 -14.6918 19.8431 37.5258 -16.1623 28.5736 37.5258 -15.6754 
37.304 37.5258 -15.0159 -41.27 46.2563 -12.4557 -32.5396 46.2563 -12.6395 
-23.8091 46.2563 -13.658 -15.0787 46.2563 -12.7473 -41.27 -43.0727 -12.0494 
-32.5396 -46.1821 -12.0494 -32.5396 -49.7786 -4.00956 -23.8091 -46.1063 -12.0494 
-15.0787 -43.0321 -12.0494 -45.7143 -41.0482 -12.0494 -50.0005 -37.9218 -12.0494 
-50.0005 -41.0482 -8.52847 -10.4656 -41.0482 -12.0494 -6.34824 -38.5477 -12.0494 
-6.34824 -41.0482 -8.46177 -56.2833 -32.3177 -12.0494 -58.7309 -29.0295 -12.0494 
-58.7309 -32.3177 -10.2686 1.13823 -32.3177 -12.0494 2.38221 -30.922 -12.0494 
2.38221 -32.3177 -11.2558 11.1127 -30.073 -12.0494 11.1127 -32.3177 -10.2299 
19.8431 -27.7075 -12.0494 19.8431 -32.3177 -8.76882 28.5736 -23.8675 -12.0494 
28.5736 -32.3177 -6.61103 37.304 -32.3177 -6.69443 46.0345 -32.3177 -5.20061 
-61.6337 -23.5873 -12.0494 -67.4614 -15.3519 -12.0494 -67.4614 -23.5873 -7.05058 
30.9858 -23.5873 -12.0494 37.304 -22.7081 -12.0494 37.304 -23.5873 -11.6332 
46.0345 -23.2861 -12.0494 46.0345 -23.5873 -11.8782 54.7649 -23.56 -12.0494 
54.7649 -23.5873 -12.0355 63.4953 -17.6507 -12.0494 63.4953 -23.5873 -8.83503 
72.2258 -23.5873 -4.17919 -67.6868 -14.8568 -12.0494 67.8802 -14.8568 -12.0494 
72.2258 -12.2493 -12.0494 72.2258 -14.8568 -10.0234 80.9562 -14.8568 -4.9495 
-68.6815 -6.1264 -12.0494 -6.34824 -6.1264 -8.57403 2.38221 -6.1264 -4.82764 
76.0403 -6.1264 -12.0494 80.9562 -6.1264 -8.03652 -69.2141 2.60405 -12.0494 
-6.34824 2.60405 -7.91036 75.2552 2.60405 -12.0494 80.9562 2.60405 -7.12107 
-67.9525 11.3345 -12.0494 -67.4614 13.4495 -12.0494 72.3204 11.3345 -12.0494 
72.2258 11.3924 -12.0494 80.9562 11.3345 -5.84801 -64.8858 20.0649 -12.0494 
-67.4614 20.0649 -9.6648 54.7649 26.3277 -12.0494 66.052 20.0649 -12.0494 
63.4953 23.0177 -12.0494 72.2258 20.0649 -7.13621 -62.1391 28.7954 -12.0494 
-58.7309 33.7918 -12.0494 52.9339 28.7954 -12.0494 46.0345 34.7547 -12.0494 
54.7649 28.7954 -11.3083 63.4953 28.7954 -7.56611 -55.467 37.5258 -12.0494 
-58.7309 37.5258 -6.77101 -50.0005 41.9884 -12.0494 -6.34824 44.5476 -12.0494 
2.38221 41.1801 -12.0494 11.1127 39.9685 -12.0494 19.8431 40.8835 -12.0494 
28.5736 41.3766 -12.0494 42.2633 37.5258 -12.0494 37.304 40.2059 -12.0494 
46.0345 37.5258 -9.92629 54.7649 37.5258 -5.15148 -42.0641 46.2563 -12.0494 
-41.27 46.6081 -12.0494 -32.5396 46.7711 -12.0494 -23.8091 47.3864 -12.0494 
-12.5496 46.2563 -12.0494 -15.0787 46.8693 -12.0494 -32.5396 -49.9958 -3.31898 
-50.0005 -43.3291 -3.31898 -33.2939 -49.7786 -3.31898 -41.27 -47.4822 -3.31898 
-26.1986 -49.7786 -3.31898 -32.5396 -49.7786 -2.01583 -23.8091 -49.7 -3.31898 
-15.0787 -47.4275 -3.31898 -6.34824 -43.4169 -3.31898 -53.8162 -41.0482 -3.31898 
-58.7309 -37.4554 -3.31898 -1.89167 -41.0482 -3.31898 2.38221 -38.872 -3.31898 
11.1127 -37.0424 -3.31898 19.8431 -36.725 -3.31898 28.5736 -35.4921 -3.31898 
37.304 -35.0794 -3.31898 46.0345 -34.0209 -3.31898 -63.7942 -32.3177 -3.31898 
-67.4614 -27.6678 -3.31898 53.33 -32.3177 -3.31898 54.7649 -31.8894 -3.31898 
54.7649 -32.3177 -2.54374 63.4953 -29.6046 -3.31898 63.4953 -32.3177 2.92625 
72.2258 -24.319 -3.31898 -70.0744 -23.5873 -3.31898 73.3043 -23.5873 -3.31898 
80.9562 -15.9573 -3.31898 -74.1294 -14.8568 -3.31898 -6.34824 -9.67094 -3.31898 
2.38221 -6.77479 -3.31898 81.7254 -14.8568 -3.31898 -75.2493 -6.1264 -3.31898 
-76.1918 -6.1264 4.08545 -10.0847 -6.1264 -3.31898 -6.34824 -6.1264 1.47744 
3.41665 -6.1264 -3.31898 2.38221 -2.21224 -3.31898 2.38221 -6.1264 -1.87684 
85.7749 -6.1264 -3.31898 -75.4136 2.60405 -3.31898 -9.40945 2.60405 -3.31898 
1.1069 2.60405 -3.31898 -6.34824 5.80633 -3.31898 -6.34824 2.60405 1.74935 
84.6126 2.60405 -3.31898 -73.9939 11.3345 -3.31898 82.2946 11.3345 -3.31898 
80.9562 13.3213 -3.31898 -71.145 20.0649 -3.31898 -67.4614 28.0619 -3.31898 
76.4135 20.0649 -3.31898 72.2258 24.6304 -3.31898 -67.0905 28.7954 -3.31898 
68.0345 28.7954 -3.31898 63.4953 33.6192 -3.31898 -60.4622 37.5258 -3.31898 
-58.7309 39.3421 -3.31898 -58.7309 37.5258 3.06835 -50.0005 45.4561 -3.31898 
-6.34824 45.3922 -3.31898 2.38221 40.0435 -3.31898 2.38221 37.5258 0.411509 
11.1127 38.7629 -3.31898 11.1127 37.5258 -1.71557 19.8431 40.2116 -3.31898 
19.8431 37.5258 0.851282 28.5736 42.2077 -3.31898 28.5736 37.5258 4.61126 
37.304 43.3571 -3.31898 46.0345 42.0895 -3.31898 57.1264 37.5258 -3.31898 
54.7649 38.5606 -3.31898 54.7649 37.5258 0.955104 -48.1351 46.2563 -3.31898 
-41.27 48.8467 -3.31898 -41.27 46.2563 4.61657 -32.5396 50.4951 -3.31898 
-32.5396 46.2563 5.05581 -23.8091 49.7891 -3.31898 -8.96699 46.2563 -3.31898 
-15.0787 47.8928 -3.31898 -15.0787 46.2563 0.123898 -50.0005 -42.0484 5.41147 
-41.27 -45.7079 5.41147 -32.5396 -48.2728 5.41147 -23.8091 -48.5798 5.41147 
-15.0787 -47.1265 5.41147 -6.34824 -44.4791 5.41147 -51.9142 -41.0482 5.41147 
-58.7309 -36.8794 5.41147 -50.0005 -41.0482 6.93709 -41.27 -41.0482 11.2491 
-32.5396 -41.0482 13.4074 -15.0787 -41.0482 12.8783 2.07742 -41.0482 5.41147 
-6.34824 -41.0482 10.4276 2.38221 -40.938 5.41147 11.1127 -39.6158 5.41147 
19.8431 -40.1365 5.41147 28.5736 -39.8983 5.41147 37.304 -39.6012 5.41147 
46.0345 -37.6258 5.41147 54.7649 -35.5173 5.41147 63.4953 -33.366 5.41147 
-63.5628 -32.3177 5.41147 -67.4614 -28.1444 5.41147 -58.7309 -32.3177 11.68 
64.9385 -32.3177 5.41147 63.4953 -32.3177 7.21322 72.2258 -27.0247 5.41147 
-70.7274 -23.5873 5.41147 -67.4614 -23.5873 11.1107 76.82 -23.5873 5.41147 
72.2258 -23.5873 10.8262 80.9562 -17.7692 5.41147 -74.6663 -14.8568 5.41147 
-76.1918 -6.971 5.41147 -6.34824 -14.8568 13.6437 82.5 -14.8568 5.41147 
80.9562 -14.8568 7.15335 -76.3279 -6.1264 5.41147 -76.1918 -3.39911 5.41147 
-76.1918 -6.1264 5.68062 2.38221 -6.1264 12.7822 85.5243 -6.1264 5.41147 
80.9562 -6.1264 9.79209 -75.8324 2.60405 5.41147 -15.0787 2.60405 12.5572 
2.38221 2.60405 8.30167 19.8431 2.60405 13.0479 84.7308 2.60405 5.41147 
80.9562 2.60405 9.18469 -73.8115 11.3345 5.41147 -6.34824 11.3345 11.2916 
11.1127 11.3345 10.9863 19.8431 11.3345 12.6989 28.5736 11.3345 13.8261 
63.4953 11.3345 13.7724 72.2258 11.3345 12.8499 81.6595 11.3345 5.41147 
80.9562 12.3531 5.41147 80.9562 11.3345 6.04726 -70.3617 20.0649 5.41147 
-67.4614 25.9508 5.41147 -67.4614 20.0649 9.50706 -6.34824 20.0649 11.8541 
2.38221 20.0649 12.6203 11.1127 20.0649 9.93715 19.8431 20.0649 11.8562 
28.5736 20.0649 13.2625 37.304 20.0649 13.9801 54.7649 20.0649 13.7054 
63.4953 20.0649 13.4313 75.6319 20.0649 5.41147 72.2258 24.1326 5.41147 
72.2258 20.0649 8.38557 -65.2496 28.7954 5.41147 -58.7309 36.4809 5.41147 
-58.7309 28.7954 12.0241 -15.0787 28.7954 13.0117 -6.34824 28.7954 10.69 
2.38221 32.4924 5.41147 2.38221 28.7954 7.83844 11.1127 30.1907 5.41147 
[...]
POINT_DATA 590
SCALARS ImageScalars float
LOOKUP_TABLE default
0 0 0 0 0 0 0 0 0 
0 0 0 0 0 0 0 0 0 
0 0 0 0 0 0 0 0 0 
0 0 0 0 0 0 0 0 0 
0 0 0 0 0 0 0 0 0 
0 0 0 0 0 0 0 0 0 
0 0 0 0 0 0 0 0 0 
0 0 0 0 0 0 0 0 0 
0 0 0 0 0 0 0 0 0 
0 0 0 0 0 0 0 0 0 
0 0 0 0 0 0 0 0 0 
0 0 0 0 0 0 0 0 0 
0 0 0 0 0 0 0 0 0 
0 0 0 0 0 0 0 0 0 
0 0 0 0 0 0 0 0 0 
0 0 0 0 0 0 0 0 0 
0 0 0 0 0 0 0 0 0 
0 0 0 0 0 0 0 0 0 
0 0 0 0 0 0 0 0 0 
0 0 0 0 0 0 0 0 0 
0 0 0 0 0 0 0 0 0 
0 0 0 0 0 0 0 0 0 
0 0 0 0 0 0 0 0 0 
0 0 0 0 0 0 0 0 0 
0 0 0 0 0 0 0 0 0 
0 0 0 0 0 0 0 0 0 
0 0 0 0 0 0 0 0 0 
0 0 0 0 0 0 0 0 0 
0 0 0 0 0 0 0 0 0 
0 0 0 0 0 0 0 0 0 
0 0 0 0 0 0 0 0 0 
0 0 0 0 0 0 0 0 0 
0 0 0 0 0 0 0 0 0 
0 0 0 0 0 0 0 0 0 
0 0 0 0 0 0 0 0 0 
0 0 0 0 0 0 0 0 0 
0 0 0 0 0 0 0 0 0 
0 0 0 0 0 0 0 0 0 
0 0 0 0 0 0 0 0 0 
0 0 0 0 0 0 0 0 0 
0 0 0 0 0 0 0 0 0 
0 0 0 0 0 0 0 0 0 
0 0 0 0 0 0 0 0 0 
0 0 0 0 0 0 0 0 0 
0 0 0 0 0 0 0 0 0 
0 0 0 0 0 0 0 0 0 
0 0 0 0 0 0 0 0 0 
0 0 0 0 0 0 0 0 0 
0 0 0 0 0 0 0 0 0 
0 0 0 0 0 0 0 0 0 
0 0 0 0 0 0 0 0 0 
0 0 0 0 0 0 0 0 0 
0 0 0 0 0 0 0 0 0 
0 0 0 0 0 0 0 0 0 
0 0 0 0 0 0 0 0 0 
0 0 0 0 0 0 0 0 0 
0 0 0 0 0 0 0 0 0 
0 0 0 0 0 0 0 0 0 
0 0 0 0 0 0 0 0 0 
0 0 0 0 0 0 0 0 0 
0 0 0 0 0 0 0 0 0 
0 0 0 0 0 0 0 0 0 
0 0 0 0 0 0 0 0 0 
0 0 0 0 0 0 0 0 0 
0 0 0 0 0 0 0 0 0 
0 0 0 0 0 
NORMALS Normals float
0.279583 0.6032 0.746983 0.126799 0.496559 0.858692 -0.0816566 0.491166 0.86723 
-0.304268 0.606918 0.734214 0.391415 0.379993 0.838093 0.193951 0.243556 0.950297 
0.0612346 0.191188 0.979641 -0.0445871 0.124988 0.991156 -0.177353 0.214907 0.960396 
-0.365192 0.315569 0.875815 0.468182 0.253805 0.846398 0.259778 0.136008 0.956042 
0.123573 0.070721 0.989812 -0.0123073 0.0117579 0.999855 -0.0431244 -0.0379715 0.998348 
-0.115855 -0.0678164 0.990948 -0.222275 0.0814037 0.97158 -0.0635167 0.220833 0.973241 
-0.0354168 0.359418 0.932504 -0.188993 0.348654 0.917999 -0.131679 0.407255 0.903772 
0.561766 0.216827 0.798377 0.33753 0.160805 0.927478 0.156506 0.0580777 0.985968 
0.0756156 0.00104412 0.997136 -0.0476234 -0.0458259 0.997814 -0.128163 -0.0967259 0.987025 
-0.0627491 -0.163995 0.984463 -0.0705452 0.147111 0.986601 0.0360073 0.140545 0.989419 
0.0347899 0.159845 0.986529 -0.144863 0.200618 0.9689 -0.053003 0.242103 0.968802 
0.0302356 0.277066 0.960375 -0.00753757 0.294861 0.955511 -0.124427 0.326774 0.936876 
-0.215908 0.301296 0.928765 0.570932 0.068794 0.81811 0.339587 0.0877205 0.936475 
0.114658 0.0527685 0.992003 0.00918554 0.0255434 0.999632 -0.108498 -0.0204532 0.993886 
-0.15363 -0.0262459 0.98778 0.112005 -0.0191906 0.993522 0.134456 0.211985 0.967979 
-0.0648619 0.0290666 0.997471 0.017505 0.110495 0.993723 -0.12673 0.127894 0.983658 
-0.0445503 0.110734 0.992851 0.048912 0.120063 0.991561 0.0477547 0.11689 0.991996 
-0.124107 0.133894 0.983194 -0.077136 0.120519 0.98971 -0.309397 0.226487 0.923568 
0.54236 -0.0277025 0.839689 0.324997 0.0110648 0.94565 0.0930192 0.047211 0.994544 
0.00361153 0.0373818 0.999295 -0.0985397 0.0378873 0.994412 -0.121865 0.0452796 0.991513 
0.0992218 -0.0186777 0.99489 -0.02279 -0.0815928 0.996405 0.00499313 0.020214 0.999783 
0.145914 -0.0815884 0.985927 -0.142841 0.0337372 0.989171 -0.0562571 0.0376741 0.997705 
0.034877 0.00246293 0.999389 0.0128101 -0.0334159 0.999359 -0.103984 -0.0533078 0.993149 
-0.127381 -0.0700319 0.989378 -0.424166 -0.180701 0.887373 0.595926 -0.144231 0.789981 
0.378201 -0.086533 0.92167 0.132713 -0.0267835 0.990793 -0.000264845 0.0250075 0.999687 
-0.0920704 0.0487041 0.994561 -0.206917 0.03739 0.977644 -0.00623513 0.0352645 0.999359 
0.145077 -0.0964608 0.984707 -0.059574 0.107782 0.992388 0.041461 -0.0991909 0.994204 
-0.0155721 0.0244597 0.99958 -0.078307 0.073495 0.994217 -0.0215556 -0.0192199 0.999583 
-0.0141955 -0.122589 0.992356 -0.166585 -0.187389 0.968057 -0.212812 -0.124577 0.969119 
-0.286135 -0.43736 0.852551 0.444279 -0.123863 0.887285 0.213501 -0.101862 0.971618 
0.0736702 -0.0152007 0.997167 -0.0868338 -0.0128627 0.99614 -0.127728 0.049302 0.990583 
-0.00886204 0.162751 0.986627 -0.00183856 0.0358988 0.999354 -0.0269586 0.0180112 0.999474 
0.0920832 0.00404406 0.995743 0.0441818 0.0447631 0.99802 -0.105388 0.0587335 0.992695 
-0.163455 -0.0395804 0.985757 -0.145067 -0.0545657 0.987916 -0.124446 -0.290153 0.948854 
-0.331566 -0.264562 0.905578 0.501542 -0.30536 0.809451 0.247546 -0.147124 0.957641 
0.0929609 -0.181888 0.978915 -0.0285925 -0.121515 0.992178 -0.0347156 0.00338751 0.999391 
0.00254435 0.0134972 0.999906 -0.0242823 -0.0448949 0.998697 -0.0897202 -0.0876986 0.992098 
0.0715281 -0.174722 0.982016 0.046589 -0.143362 0.988573 -0.164653 -0.148908 0.975047 
-0.13299 -0.104337 0.98561 -0.265395 -0.242875 0.933047 0.371756 -0.479911 0.794659 
0.0990545 -0.349166 0.931811 0.0922241 -0.290088 0.952546 0.0140279 -0.21263 0.977032 
-0.0484781 -0.262588 0.96369 -0.120514 -0.415246 0.901691 -0.20038 -0.639311 0.742381 
0.0243306 -0.746236 0.665237 0.0593858 -0.679482 0.731285 -0.0554665 -0.600556 0.797656 
-0.301557 -0.51998 0.799177 0.232677 -0.768702 0.595783 0.0500684 -0.742815 0.667622 
-0.000344132 -0.790254 0.612779 -0.147621 -0.838286 0.524866 0.304624 0.692075 0.654397 
0.127188 0.739983 0.660491 0.124919 0.986034 0.110147 -0.139094 0.771526 0.620807 
-0.321934 0.699488 0.638025 0.377364 0.644883 0.664622 0.443244 0.560711 0.699384 
0.492316 0.756078 0.431244 -0.38471 0.66622 0.638865 -0.436061 0.593394 0.676561 
-0.464958 0.753353 0.465052 0.49192 0.444481 0.748633 0.522141 0.377551 0.764738 
0.576358 0.506537 0.641273 -0.282388 0.509226 0.812986 -0.234423 0.487213 0.841231 
-0.266542 0.558454 0.785547 -0.0878151 0.589048 0.803312 -0.10032 0.702763 0.704315 
-0.18223 0.491929 0.85135 -0.154279 0.697178 0.700101 -0.131342 0.414015 0.900745 
-0.0825224 0.674945 0.733239 -0.070961 0.674219 0.735115 -0.154723 0.72395 0.672277 
0.536362 0.307724 0.785889 0.565477 0.231979 0.791468 0.723034 0.490331 0.486619 
-0.101836 0.415008 0.904101 -0.0110798 0.418011 0.908374 -0.0195965 0.437362 0.899072 
0.0191454 0.532511 0.846207 0.0183978 0.540932 0.840865 -0.148684 0.501363 0.852366 
-0.148693 0.502369 0.851772 -0.264384 0.353243 0.897396 -0.332031 0.549811 0.766461 
-0.533143 0.657404 0.532521 0.56955 0.217964 0.79253 -0.253486 0.438245 0.862372 
-0.345792 0.500545 0.793651 -0.360693 0.57912 0.731109 -0.723846 0.56017 0.40281 
0.613102 0.0725408 0.786666 -0.479988 -0.74471 -0.463702 0.829779 -0.557178 0.0319455 
-0.549541 0.084678 0.831164 -0.684837 0.0180879 0.728472 0.602804 -0.0340406 0.797163 
-0.526824 0.784214 -0.327819 -0.594578 -0.101318 0.797628 -0.735088 -0.0908763 0.671854 
0.611523 -0.148332 0.777198 0.613947 -0.176767 0.7693 -0.289616 -0.434492 0.852842 
-0.287819 -0.435874 0.852745 -0.835903 -0.389718 0.386504 0.604463 -0.223369 0.764677 
0.735753 -0.315323 0.599366 -0.271078 -0.292822 0.916936 -0.416318 -0.279282 0.865264 
-0.307012 -0.411609 0.858092 -0.632786 -0.491789 0.598101 0.649394 -0.355668 0.672151 
0.612199 -0.460645 0.642665 -0.324077 -0.293808 0.899251 -0.314884 -0.492127 0.811578 
-0.352725 -0.326807 0.876802 -0.496231 -0.655649 0.569104 0.554938 -0.556118 0.618689 
0.694112 -0.657702 0.292638 0.436814 -0.657832 0.613556 -0.283426 -0.847822 0.448183 
-0.269333 -0.887829 0.373122 -0.00662045 -0.915511 0.402237 0.0877339 -0.930475 0.355694 
-0.0250891 -0.8655 0.50028 -0.330831 -0.5876 0.738429 -0.2873 -0.715206 0.637134 
-0.334598 -0.697106 0.634104 -0.423444 -0.874404 0.236881 0.251395 -0.779605 0.5736 
0.229272 -0.790779 0.567541 0.0450715 -0.767284 0.639722 0.00189231 -0.856391 0.516324 
-0.185773 -0.868259 0.460016 -0.145793 -0.868207 0.474301 0.12489 0.989503 0.0727027 
0.489873 0.863821 0.117629 0.143481 0.987044 0.0718125 0.342061 0.936012 0.0829171 
-0.0684777 0.993357 0.0924826 0.130607 0.991404 0.00773795 -0.137936 0.985461 0.099198 
-0.308135 0.936865 0.165339 -0.462534 0.853659 0.239432 0.547406 0.823331 0.149912 
0.652685 0.727799 0.210502 -0.399789 0.865187 0.302689 -0.316075 0.863295 0.39347 
-0.102256 0.899505 0.424777 -0.0767953 0.851604 0.51853 -0.083739 0.772977 0.628884 
-0.0789683 0.805484 0.587333 -0.142099 0.792177 0.593517 0.730578 0.641012 0.235284 
0.770669 0.567949 0.288968 -0.225855 0.772232 0.593841 -0.233202 0.774844 0.587566 
-0.245503 0.802541 0.543743 -0.355392 0.809755 0.466898 -0.45603 0.887445 0.0669239 
-0.548529 0.673529 0.495454 0.826287 0.485227 0.286015 -0.57604 0.660101 0.482125 
-0.735697 0.618421 0.276235 0.908691 0.2565 0.329375 -0.36046 -0.928254 0.0917204 
0.809408 -0.586479 0.0300251 -0.751569 0.602867 0.267759 0.921489 0.0734897 0.381389 
0.990289 0.0611806 -0.124839 -0.823577 -0.552002 0.130441 -0.536199 -0.743844 0.398981 
0.848352 -0.528418 0.0327685 0.969979 -0.241357 -0.0297823 0.809805 -0.586552 0.0131248 
-0.938591 0.128772 0.320101 0.948007 -0.0714078 0.310134 -0.741722 0.670707 -0.000914283 
0.868847 0.484789 -0.100427 -0.442507 0.896524 -0.0207742 -0.654609 0.644418 0.395236 
-0.910039 -0.183331 0.371777 0.934732 -0.226392 0.273903 -0.875492 -0.439992 0.199801 
-0.857309 -0.476843 0.194015 0.900792 -0.380969 0.208413 0.856066 -0.485876 0.176284 
-0.733924 -0.607835 0.303138 -0.667589 -0.712067 0.217451 0.852519 -0.495206 0.167281 
-0.708263 -0.682586 0.180111 -0.652409 -0.709173 0.267275 0.726756 -0.681294 0.0875411 
0.68873 -0.720602 0.079892 0.649038 -0.686236 -0.328374 0.463241 -0.886121 0.0140561 
-0.385227 -0.895426 -0.223189 -0.333576 -0.87826 -0.342617 -0.331687 -0.79412 -0.509271 
0.0162594 -0.912395 -0.408988 0.0198815 -0.866152 -0.499384 0.1962 -0.926388 -0.321421 
0.233744 -0.820988 -0.520906 0.173565 -0.972697 -0.154061 0.29011 -0.702406 -0.649971 
-0.00787257 -0.997488 -0.0703972 -0.263631 -0.96409 0.0320747 -0.451304 -0.877046 0.164668 
-0.397195 -0.90721 0.13859 -0.370796 -0.909574 -0.187579 0.412187 -0.911069 0.00746046 
0.256227 -0.966125 -0.0308106 0.179231 -0.877114 -0.445586 0.0541482 -0.997667 -0.0415809 
0.0209773 -0.825125 -0.56456 -0.145308 -0.98678 -0.0717635 -0.339507 -0.918242 -0.203881 
-0.246718 -0.955029 -0.16447 -0.279189 -0.897215 -0.34214 0.425679 0.833563 -0.352094 
0.303202 0.866778 -0.395935 0.151541 0.899813 -0.409112 -0.0655344 0.942308 -0.328269 
-0.214595 0.938594 -0.270166 -0.341776 0.911782 -0.227689 0.454966 0.824135 -0.337353 
0.582623 0.76193 -0.282864 0.405455 0.81242 -0.419022 0.236374 0.718917 -0.65367 
0.146065 0.63192 -0.761145 -0.167044 0.534777 -0.828317 -0.261834 0.956994 -0.124918 
-0.270509 0.759383 -0.591745 -0.257894 0.958264 -0.123368 -0.0475374 0.996003 -0.0756172 
0.017166 0.999769 -0.0129063 -0.0282348 0.999499 0.0143198 -0.138859 0.988532 0.0593498 
-0.226808 0.973144 0.0393459 -0.232245 0.97263 0.00731355 -0.459139 0.885984 -0.0649947 
0.666233 0.697879 -0.262867 0.754215 0.613894 -0.233011 0.511712 0.608037 -0.606994 
-0.4979 0.86406 -0.074134 -0.484647 0.846703 -0.219571 -0.633444 0.764157 -0.121707 
0.843535 0.492139 -0.215053 0.682735 0.498182 -0.534498 -0.707791 0.677688 -0.199425 
-0.661892 0.626268 -0.411931 -0.789939 0.520394 -0.324324 0.93209 0.300496 -0.202263 
0.974572 0.0817381 -0.208632 -0.14216 -0.0830114 -0.986357 -0.831967 0.436705 -0.342228 
-0.795308 0.411444 -0.445194 0.976063 0.0581183 -0.209579 0.975586 0.00137549 -0.219612 
0.973635 0.0573128 -0.220793 0.247319 -0.354751 -0.901657 -0.921754 0.109914 -0.371872 
-0.682851 0.0849844 -0.725598 0.960632 -0.126932 -0.247133 -0.0582317 -0.0224851 -0.99805 
0.329079 0.249548 -0.910732 -0.139319 -0.184085 -0.972987 -0.906593 -0.199396 -0.371928 
-0.712924 -0.208149 -0.669636 0.914132 -0.291281 -0.28199 -0.0430799 -0.184367 -0.981913 
-0.0736155 -0.362014 -0.929261 0.173457 -0.0699208 -0.982356 0.152396 -0.0811012 -0.984986 
-0.137712 -0.106309 -0.984751 -0.52018 -0.532105 -0.668039 -0.691063 -0.51072 -0.511465 
-0.690955 -0.52548 -0.496439 -0.668454 -0.496303 -0.553944 0.847351 -0.396991 -0.352695 
0.773326 -0.508667 -0.378452 0.705634 -0.418592 -0.571718 -0.0949093 -0.029456 -0.99505 
-0.109735 -0.299476 -0.947772 -0.0369407 -0.252249 -0.966957 0.187274 -0.229495 -0.955123 
0.124593 -0.168416 -0.97781 0.0853327 -0.191736 -0.97773 -0.0738549 -0.177713 -0.981307 
-0.270941 -0.297811 -0.915369 -0.738234 -0.513516 -0.437393 -0.682379 -0.627642 -0.374733 
-0.610803 -0.426215 -0.667278 0.721384 -0.559493 -0.408133 0.599742 -0.639619 -0.480829 
0.487883 -0.457984 -0.743116 -0.248706 -0.240727 -0.938187 -0.260344 -0.283353 -0.923001 
-0.270351 -0.595477 -0.756517 -0.232857 -0.518638 -0.822674 0.0259025 -0.533043 -0.845691 
0.0244139 -0.498221 -0.866707 0.225376 -0.584968 -0.779114 0.21519 -0.45714 -0.862969 
0.284955 -0.647459 -0.706823 0.192146 -0.37542 -0.906719 0.062944 -0.371625 -0.926247 
0.0158901 -0.399307 -0.91668 -0.28776 -0.77872 -0.557485 -0.192723 -0.466946 -0.863029 
-0.576427 -0.716321 -0.393213 -0.493149 -0.702572 -0.513027 -0.42468 -0.645696 -0.634604 
0.566896 -0.662624 -0.489448 0.402114 -0.753337 -0.520372 0.33712 -0.631339 -0.698399 
0.170028 -0.850499 -0.497737 0.0915915 -0.523277 -0.847226 0.0180753 -0.80781 -0.589166 
-0.00289051 -0.480075 -0.877223 -0.160309 -0.470158 -0.867901 -0.298331 -0.677822 -0.671979 
-0.287472 -0.494443 -0.820296 -0.343813 -0.593454 -0.72774 -0.352841 -0.596892 -0.720572 
-0.345322 -0.561838 -0.751726 0.242643 -0.678352 -0.693515 0.00634326 -0.778255 -0.627916 
0.0309524 -0.64296 -0.765274 -0.188353 -0.786583 -0.588056 -0.1741 -0.786134 -0.593028 
-0.1737 -0.781833 -0.598803 -0.0877091 -0.799 -0.5949 -0.13278 -0.790869 -0.597407 
-0.12793 -0.793043 -0.595582 -0.128182 -0.78969 -0.599966 -0.0220901 0.511775 -0.858835 
0.307803 0.598055 -0.739991 0.182458 0.608566 -0.772241 0.0365341 0.540311 -0.840672 
0.122891 0.587737 -0.799664 -0.0557788 0.489016 -0.870489 -0.0281448 0.488998 -0.871831 
-0.142222 0.393688 -0.908175 -0.137112 0.335018 -0.932182 -0.0454453 0.315769 -0.947747 
0.092256 0.435169 -0.89561 0.0782351 0.586954 -0.805831 0.0363649 0.660235 -0.750178 
-0.0630168 0.738967 -0.670788 -0.183909 0.672496 -0.716887 -0.268311 0.668564 -0.693564 
0.392981 0.55762 -0.731181 0.446352 0.512334 -0.733679 0.300119 0.545865 -0.782279 
0.101168 0.422679 -0.900615 -0.0255804 0.32881 -0.944049 -0.106322 0.26074 -0.959536 
-0.120105 0.206521 -0.971043 -0.112809 0.196388 -0.974015 -0.0410691 0.297442 -0.953856 
0.0974371 0.393558 -0.914121 0.116658 0.414695 -0.902452 0.0690999 0.500076 -0.863221 
-0.0422695 0.512414 -0.857697 -0.177304 0.581227 -0.794191 -0.298952 0.645473 -0.702846 
-0.273589 0.632259 -0.724843 -0.374409 0.479406 -0.793717 0.537381 0.453173 -0.711236 
0.619598 0.343866 -0.705588 0.407288 0.389306 -0.82617 0.159009 0.269059 -0.949907 
0.0480328 0.197303 -0.979165 -0.0754229 0.138624 -0.987469 -0.181255 0.111193 -0.97713 
-0.208094 0.0215346 -0.977872 -0.127084 -0.0818778 -0.988507 -0.0882932 -0.0863051 -0.992349 
0.0451528 -0.00952441 -0.998935 0.123328 0.080132 -0.989125 0.107803 0.080493 -0.990908 
0.129202 0.0438042 -0.99065 -0.0553095 0.0914812 -0.99427 -0.10675 0.180316 -0.977799 
-0.0706524 0.258127 -0.963524 -0.530047 0.478962 -0.699747 -0.240978 0.293783 -0.924998 
-0.518017 0.407592 -0.752016 0.708861 0.184783 -0.680714 0.557352 0.165277 -0.81366 
0.285996 0.117745 -0.950969 0.140057 0.148201 -0.97899 -0.0360822 0.0456785 -0.998304 
-0.113228 -0.0110491 -0.993508 -0.236154 -0.0703607 -0.969165 -0.172826 -0.0865401 -0.981143 
-0.31582 -0.116729 -0.941611 0.123039 -0.13103 -0.983714 -0.13777 0.137073 -0.980933 
0.143687 -0.138232 -0.979921 0.141151 -0.133702 -0.980918 0.175395 0.0550685 -0.982957 
0.0981581 -0.0869962 -0.991361 0.0502177 -0.138463 -0.989094 0.0930733 -0.161736 -0.982435 
-0.00725857 0.0375821 -0.999267 -0.168064 -0.0275105 -0.985392 -0.211709 -0.0189987 -0.977148 
-0.449447 0.251022 -0.857313 -0.343228 0.200335 -0.917638 0.664935 -0.0676667 -0.74383 
0.595295 -0.0776268 -0.799749 0.284992 -0.0042705 -0.95852 0.105988 -0.0364464 -0.993699 
-0.105096 -0.0665894 -0.99223 -0.19087 -0.112131 -0.97519 -0.278143 -0.15408 -0.948101 
-0.150664 -0.178389 -0.972357 -0.195024 -0.231482 -0.953091 -0.0910333 0.154689 -0.98376 
-0.130829 0.22222 -0.966179 0.207699 -0.185446 -0.960454 0.12636 0.129137 -0.983543 
-0.135528 -0.219362 -0.966184 -0.09997 -0.228955 -0.96829 0.0725849 -0.177203 -0.981494 
0.122449 -0.154973 -0.980301 0.0311668 -0.160584 -0.98653 -0.0918268 0.0100648 -0.995724 
-0.0621921 -0.0231561 -0.997796 -0.456456 0.0346243 -0.889072 -0.311481 0.0250564 -0.949922 
0.626585 0.000961953 -0.779352 0.584218 0.00448938 -0.811584 0.279725 -0.12294 -0.952176 
0.0770815 -0.152622 -0.985274 -0.107619 -0.0975844 -0.989392 -0.202699 -0.071007 -0.976663 
-0.16902 -0.0380166 -0.984879 -0.342616 -0.0456586 -0.938365 -0.0622575 -0.122419 -0.990524 
-0.280073 0.0767945 -0.956902 -0.104351 -0.159518 -0.981664 -0.104796 -0.331465 -0.937629 
-0.089162 -0.32832 -0.940349 0.153881 -0.259505 -0.953403 -0.0244279 0.132144 -0.990929 
-0.0843791 -0.257496 -0.962588 0.0385537 -0.461521 -0.886291 0.151432 -0.384506 -0.910617 
0.0476352 -0.126189 -0.990862 0.145132 -0.0884049 -0.985455 0.124236 -0.106318 -0.98654 
0.110632 -0.0864769 -0.990092 0.17214 -0.137867 -0.975377 -0.0534539 -0.081157 -0.995267 
-0.125068 -0.110986 -0.985921 -0.154328 -0.147538 -0.976942 -0.409743 -0.176447 -0.894973 
-0.450952 -0.464189 -0.762345 -0.281325 -0.118609 -0.952254 0.639472 -0.215423 -0.738017 
0.579057 -0.272508 -0.768396 0.543299 -0.204829 -0.814169 0.244327 -0.228226 -0.942453 
0.110988 -0.193885 -0.974726 -0.0301697 -0.0739215 -0.996808 -0.141309 -0.048499 -0.988777 
-0.244626 0.0393434 -0.968819 -0.298451 0.0651631 -0.952198 -0.309957 0.0884061 -0.946631 
-0.0267457 0.109404 -0.993638 -0.0311971 0.103308 -0.99416 -0.0375364 0.0824158 -0.995891 
-0.0287815 0.126961 -0.99149 0.140077 -0.0810678 -0.986816 0.0869799 -0.178818 -0.98003 
0.0996715 -0.084523 -0.991424 0.0288328 -0.0947171 -0.995087 -0.125016 -0.134438 -0.983004 
-0.0770171 -0.1938 -0.978013 -0.105221 -0.280877 -0.953958 0.403398 -0.306196 -0.862272 
0.39098 -0.32703 -0.860341 0.366252 -0.278125 -0.887979 0.204502 -0.226871 -0.952212 
0.039287 -0.162803 -0.985876 -0.0980975 -0.122459 -0.987614 -0.213806 -0.093278 -0.972413 
-0.296853 -0.0711161 -0.952271 -0.301281 -0.0883146 -0.949437 -0.306692 -0.0731602 -0.948993 
0.0669639 -0.197127 -0.978088 -0.0493988 -0.192014 -0.980148 -0.00339262 -0.260952 -0.965346 
-0.0166122 -0.225828 -0.974026 0.314621 -0.359766 -0.878397 0.255475 -0.376545 -0.890476 
0.242083 -0.322693 -0.915022 0.0691463 -0.444984 -0.892865 0.074365 -0.325975 -0.942449 
-0.0356504 -0.402234 -0.914842 -0.0845795 -0.29043 -0.953151 -0.223426 -0.24987 -0.94215 
-0.1758 -0.348573 -0.920647 -0.196382 -0.272268 -0.941968 
