# vtk DataFile Version 4.2
vtk output
ASCII
DATASET POLYDATA
POINTS 528 float
-2.44212 -29.9492 -11.6539 4.65634 -29.9492 -13.7093 11.7548 -29.9492 -14.1635 
18.8533 -29.9492 -13.8435 25.9517 -29.9492 -13.617 33.0502 -29.9492 -11.7656 
-37.9344 -22.8507 -13.4275 -30.836 -22.8507 -15.3453 -23.7375 -22.8507 -15.3609 
-16.639 -22.8507 -14.9711 -9.54058 -22.8507 -14.0236 -2.44212 -22.8507 -15.1802 
4.65634 -22.8507 -16.1064 11.7548 -22.8507 -16.6564 18.8533 -22.8507 -16.997 
25.9517 -22.8507 -17.1276 33.0502 -22.8507 -16.7089 40.1486 -22.8507 -14.1208 
-45.0329 -15.7523 -14.043 -37.9344 -15.7523 -16.6659 -30.836 -15.7523 -17.1574 
-23.7375 -15.7523 -16.8462 -16.639 -15.7523 -16.4095 -9.54058 -15.7523 -15.948 
-2.44212 -15.7523 -16.5075 4.65634 -15.7523 -16.2617 11.7548 -15.7523 -16.9817 
18.8533 -15.7523 -17.7053 25.9517 -15.7523 -17.9568 33.0502 -15.7523 -17.2589 
40.1486 -15.7523 -16.1449 47.2471 -15.7523 -13.9902 -52.1313 -8.65379 -12.741 
-45.0329 -8.65379 -16.1371 -37.9344 -8.65379 -17.4278 -30.836 -8.65379 -18.2728 
-23.7375 -8.65379 -17.0734 -16.639 -8.65379 -16.2041 -9.54058 -8.65379 -16.579 
-2.44212 -8.65379 -17.8416 4.65634 -8.65379 -15.5846 11.7548 -8.65379 -16.3218 
18.8533 -8.65379 -17.0723 25.9517 -8.65379 -17.4433 33.0502 -8.65379 -16.9412 
40.1486 -8.65379 -16.3316 47.2471 -8.65379 -15.3256 -52.1313 -1.55533 -14.7807 
-45.0329 -1.55533 -17.0287 -37.9344 -1.55533 -17.739 -30.836 -1.55533 -17.5709 
-23.7375 -1.55533 -16.4903 -16.639 -1.55533 -15.2174 -9.54058 -1.55533 -16.1433 
-2.44212 -1.55533 -15.878 4.65634 -1.55533 -16.8938 11.7548 -1.55533 -16.9811 
18.8533 -1.55533 -15.4678 25.9517 -1.55533 -16.0465 33.0502 -1.55533 -16.3718 
40.1486 -1.55533 -16.0341 47.2471 -1.55533 -14.335 54.3456 -1.55533 -11.6633 
-52.1313 5.54313 -14.7603 -45.0329 5.54313 -16.9238 -37.9344 5.54313 -17.6827 
-30.836 5.54313 -17.5304 -23.7375 5.54313 -17.0395 -16.639 5.54313 -15.9325 
-9.54058 5.54313 -18.0464 -2.44212 5.54313 -16.6237 4.65634 5.54313 -16.6785 
11.7548 5.54313 -17.0036 18.8533 5.54313 -15.6391 25.9517 5.54313 -16.1251 
33.0502 5.54313 -16.3574 40.1486 5.54313 -16.1152 47.2471 5.54313 -15.2465 
54.3456 5.54313 -11.6725 -52.1313 12.6416 -13.0126 -45.0329 12.6416 -15.6801 
-37.9344 12.6416 -17.1849 -30.836 12.6416 -17.4765 -23.7375 12.6416 -16.7398 
-16.639 12.6416 -16.0833 -9.54058 12.6416 -16.4285 -2.44212 12.6416 -16.5652 
4.65634 12.6416 -16.2061 11.7548 12.6416 -16.3941 18.8533 12.6416 -16.7116 
25.9517 12.6416 -16.7536 33.0502 12.6416 -16.5066 40.1486 12.6416 -15.784 
47.2471 12.6416 -12.9675 -52.1313 19.7401 -11.3223 -45.0329 19.7401 -13.9889 
-37.9344 19.7401 -15.6674 -30.836 19.7401 -16.023 -23.7375 19.7401 -16.2435 
-16.639 19.7401 -15.3417 -9.54058 19.7401 -15.0791 -2.44212 19.7401 -15.895 
4.65634 19.7401 -16.6567 11.7548 19.7401 -16.5327 18.8533 19.7401 -16.7938 
25.9517 19.7401 -16.9292 33.0502 19.7401 -16.8191 40.1486 19.7401 -14.3838 
-37.9344 26.8385 -12.5816 -30.836 26.8385 -13.58 -23.7375 26.8385 -14.4831 
-16.639 26.8385 -14.0368 -9.54058 26.8385 -13.817 -2.44212 26.8385 -14.7362 
4.65634 26.8385 -15.6451 11.7548 26.8385 -16.1693 18.8533 26.8385 -15.537 
25.9517 26.8385 -15.5028 33.0502 26.8385 -14.1063 4.65634 33.937 -11.9701 
11.7548 33.937 -12.2706 18.8533 33.937 -11.9889 -2.44212 -30.4275 -11.2215 
4.65634 -32.7332 -11.2215 11.7548 -33.2961 -11.2215 18.8533 -32.9256 -11.2215 
25.9517 -32.2735 -11.2215 33.0502 -30.4405 -11.2215 -37.9344 -25.8223 -11.2215 
-30.836 -28.1794 -11.2215 -30.836 -29.9492 -9.02167 -23.7375 -28.7002 -11.2215 
-23.7375 -29.9492 -9.6588 -16.639 -28.1543 -11.2215 -16.639 -29.9492 -9.07804 
-3.86807 -29.9492 -11.2215 -9.54058 -27.4807 -11.2215 -9.54058 -29.9492 -8.87126 
34.2518 -29.9492 -11.2215 40.1486 -26.9899 -11.2215 40.1486 -29.9492 -6.22724 
-42.9743 -22.8507 -11.2215 -45.0329 -21.1826 -11.2215 -45.0329 -22.8507 -9.25553 
44.9714 -22.8507 -11.2215 47.2471 -20.1069 -11.2215 47.2471 -22.8507 -8.55448 
-50.2216 -15.7523 -11.2215 -52.1313 -12.3818 -11.2215 -52.1313 -15.7523 -8.3365 
50.3634 -15.7523 -11.2215 54.3456 -15.7523 -5.82654 -53.7071 -8.65379 -11.2215 
53.8134 -8.65379 -11.2215 54.3456 -6.1671 -11.2215 54.3456 -8.65379 -10.7097 
-55.9476 -1.55533 -11.2215 54.8544 -1.55533 -11.2215 -56.2182 5.54313 -11.2215 
54.8639 5.54313 -11.2215 54.3456 6.91897 -11.2215 -54.5302 12.6416 -11.2215 
50.182 12.6416 -11.2215 47.2471 17.7155 -11.2215 54.3456 12.6416 -7.30076 
-52.2392 19.7401 -11.2215 -52.1313 19.8803 -11.2215 -45.0329 26.0262 -11.2215 
46.1889 19.7401 -11.2215 40.1486 26.0331 -11.2215 47.2471 19.7401 -10.3314 
-43.5215 26.8385 -11.2215 -45.0329 26.8385 -9.62534 -37.9344 28.7847 -11.2215 
-30.836 30.2931 -11.2215 -23.7375 31.4535 -11.2215 -16.639 31.8559 -11.2215 
-9.54058 32.2717 -11.2215 -2.44212 33.3924 -11.2215 25.9517 33.0403 -11.2215 
39.2438 26.8385 -11.2215 33.0502 30.6857 -11.2215 40.1486 26.8385 -10.4867 
-23.7375 33.937 -7.41685 -16.639 33.937 -8.63651 -9.54058 33.937 -9.61538 
-0.196524 33.937 -11.2215 -2.44212 33.937 -10.6774 4.65634 34.7257 -11.2215 
11.7548 34.9964 -11.2215 22.7831 33.937 -11.2215 18.8533 34.7824 -11.2215 
25.9517 33.937 -10.1742 33.0502 33.937 -6.12754 -30.836 -32.3229 -4.12306 
-23.7375 -32.8999 -4.12306 -16.639 -32.6468 -4.12306 -9.54058 -32.9978 -4.12306 
-2.44212 -34.7815 -4.12306 4.65634 -36.4545 -4.12306 11.7548 -37.042 -4.12306 
11.7548 -37.0476 -1.56063 18.8533 -36.9165 -4.12306 25.9517 -35.4435 -4.12306 
33.0502 -33.7608 -4.12306 40.1486 -30.9086 -4.12306 -45.0329 -25.6361 -4.12306 
-37.4057 -29.9492 -4.12306 -37.9344 -29.7358 -4.12306 -37.9344 -29.9492 2.11003 
41.491 -29.9492 -4.12306 40.1486 -29.9492 0.332604 47.2471 -25.532 -4.12306 
-48.4391 -22.8507 -4.12306 -52.1313 -18.4646 -4.12306 49.8386 -22.8507 -4.12306 
54.3456 -17.04 -4.12306 -53.7465 -15.7523 -4.12306 55.1797 -15.7523 -4.12306 
54.3456 -15.7523 0.197474 -57.6973 -8.65379 -4.12306 57.6751 -8.65379 -4.12306 
-59.096 -1.55533 -4.12306 58.7435 -1.55533 -4.12306 -59.224 5.54313 -4.12306 
58.5591 5.54313 -4.12306 -58.5083 12.6416 -4.12306 56.0436 12.6416 -4.12306 
54.3456 15.9383 -4.12306 -54.0343 19.7401 -4.12306 -52.1313 22.2063 -4.12306 
-52.1313 19.7401 0.47503 52.055 19.7401 -4.12306 47.2471 25.4838 -4.12306 
-46.9764 26.8385 -4.12306 -45.0329 28.2478 -4.12306 -45.0329 26.8385 -0.931024 
-37.9344 31.7101 -4.12306 -30.836 33.8444 -4.12306 45.7822 26.8385 -4.12306 
40.1486 31.2517 -4.12306 -30.3307 33.937 -4.12306 -23.7375 35.1738 -4.12306 
-23.7375 33.937 -0.832094 -16.639 36.0268 -4.12306 -16.639 33.937 2.06287 
-9.54058 36.4769 -4.12306 -2.44212 37.4239 -4.12306 4.65634 38.2613 -4.12306 
11.7548 38.7252 -4.12306 18.8533 38.2996 -4.12306 25.9517 37.0446 -4.12306 
35.1916 33.937 -4.12306 33.0502 34.9474 -4.12306 11.7548 -37.0571 2.9754 
-37.9344 -29.9797 2.9754 -30.836 -32.7634 2.9754 -23.7375 -33.524 2.9754 
-16.639 -33.6522 2.9754 -9.54058 -34.1401 2.9754 -2.44212 -35.4039 2.9754 
11.6151 -37.0476 2.9754 4.65634 -36.5789 2.9754 12.1337 -37.0476 2.9754 
11.7548 -37.0476 3.01087 18.8533 -36.8774 2.9754 25.9517 -35.5161 2.9754 
33.0502 -33.116 2.9754 -37.9937 -29.9492 2.9754 -45.0329 -25.4269 2.9754 
-37.9344 -29.9492 3.07753 39.1588 -29.9492 2.9754 33.0502 -29.9492 8.28576 
40.1486 -29.3387 2.9754 47.2471 -23.5264 2.9754 -47.7548 -22.8507 2.9754 
-52.1313 -16.6437 2.9754 -45.0329 -22.8507 7.81558 47.8993 -22.8507 2.9754 
47.2471 -22.8507 3.73 -52.6374 -15.7523 2.9754 -52.1313 -15.7523 3.82599 
53.6499 -15.7523 2.9754 47.2471 -15.7523 9.56985 54.3456 -14.177 2.9754 
-55.6269 -8.65379 2.9754 -52.1313 -8.65379 7.54801 56.3286 -8.65379 2.9754 
54.3456 -8.65379 5.61043 -57.225 -1.55533 2.9754 -52.1313 -1.55533 9.20091 
57.7805 -1.55533 2.9754 54.3456 -1.55533 7.52731 -56.7891 5.54313 2.9754 
-52.1313 5.54313 8.03414 57.5539 5.54313 2.9754 54.3456 5.54313 7.34867 
-55.2971 12.6416 2.9754 -52.1313 17.878 2.9754 -52.1313 12.6416 6.04407 
-45.0329 12.6416 9.92499 47.2471 12.6416 9.98106 54.9544 12.6416 2.9754 
54.3456 13.7488 2.9754 54.3456 12.6416 3.80841 -50.7898 19.7401 2.9754 
-45.0329 24.9162 2.9754 -45.0329 19.7401 7.48011 -37.9344 19.7401 9.50849 
50.4777 19.7401 2.9754 47.2471 23.9705 2.9754 47.2471 19.7401 6.72434 
-41.7134 26.8385 2.9754 -37.9344 28.7134 2.9754 -37.9344 26.8385 5.20445 
-30.836 30.5707 2.9754 -30.836 26.8385 6.78977 -23.7375 31.872 2.9754 
-23.7375 26.8385 7.11034 -16.639 33.5304 2.9754 -16.639 26.8385 9.38768 
44.3145 26.8385 2.9754 40.1486 30.0157 2.9754 40.1486 26.8385 6.94435 
-15.3127 33.937 2.9754 -9.54058 35.3143 2.9754 -9.54058 33.937 5.37526 
-2.44212 36.7127 2.9754 -2.44212 33.937 8.96518 4.65634 37.5258 2.9754 
11.7548 37.9269 2.9754 18.8533 37.8464 2.9754 18.8533 33.937 9.95299 
25.9517 36.6133 2.9754 25.9517 33.937 7.99633 33.4214 33.937 2.9754 
33.0502 34.1192 2.9754 33.0502 33.937 3.31239 -30.836 -30.7142 10.0739 
-23.7375 -31.6874 10.0739 -16.639 -32.1506 10.0739 -9.54058 -32.9511 10.0739 
-2.44212 -34.0188 10.0739 4.65634 -34.7415 10.0739 11.7548 -34.885 10.0739 
18.8533 -34.3103 10.0739 25.9517 -32.1343 10.0739 -32.787 -29.9492 10.0739 
-37.9344 -27.2685 10.0739 -30.836 -29.9492 11.2324 -23.7375 -29.9492 12.7077 
-16.639 -29.9492 13.4094 -9.54058 -29.9492 14.8715 -2.44212 -29.9492 16.2342 
4.65634 -29.9492 16.4194 11.7548 -29.9492 16.052 18.8533 -29.9492 14.7533 
30.386 -29.9492 10.0739 25.9517 -29.9492 12.2656 33.0502 -28.1013 10.0739 
40.1486 -23.5491 10.0739 -43.4815 -22.8507 10.0739 -45.0329 -20.0976 10.0739 
-37.9344 -22.8507 14.2868 25.9517 -22.8507 16.7352 33.0502 -22.8507 13.2801 
40.8715 -22.8507 10.0739 40.1486 -22.8507 10.5876 -47.1817 -15.7523 10.0739 
-45.0329 -15.7523 12.1198 -37.9344 -15.7523 16.986 33.0502 -15.7523 15.3558 
46.2434 -15.7523 10.0739 40.1486 -15.7523 12.4218 47.2471 -13.4119 10.0739 
-49.2098 -8.65379 10.0739 -45.0329 -8.65379 13.4004 33.0502 -8.65379 16.5043 
40.1486 -8.65379 14.0899 48.6248 -8.65379 10.0739 47.2471 -8.65379 10.9406 
-50.7168 -1.55533 10.0739 -45.0329 -1.55533 12.996 -37.9344 -1.55533 16.2446 
[...]
POINT_DATA 528
SCALARS ImageScalars float
LOOKUP_TABLE default
0 0 0 0 0 0 0 0 0 
0 0 0 0 0 0 0 0 0 
0 0 0 0 0 0 0 0 0 
0 0 0 0 0 0 0 0 0 
0 0 0 0 0 0 0 0 0 
0 0 0 0 0 0 0 0 0 
0 0 0 0 0 0 0 0 0 
0 0 0 0 0 0 0 0 0 
0 0 0 0 0 0 0 0 0 
0 0 0 0 0 0 0 0 0 
0 0 0 0 0 0 0 0 0 
0 0 0 0 0 0 0 0 0 
0 0 0 0 0 0 0 0 0 
0 0 0 0 0 0 0 0 0 
0 0 0 0 0 0 0 0 0 
0 0 0 0 0 0 0 0 0 
0 0 0 0 0 0 0 0 0 
0 0 0 0 0 0 0 0 0 
0 0 0 0 0 0 0 0 0 
0 0 0 0 0 0 0 0 0 
0 0 0 0 0 0 0 0 0 
0 0 0 0 0 0 0 0 0 
0 0 0 0 0 0 0 0 0 
0 0 0 0 0 0 0 0 0 
0 0 0 0 0 0 0 0 0 
0 0 0 0 0 0 0 0 0 
0 0 0 0 0 0 0 0 0 
0 0 0 0 0 0 0 0 0 
0 0 0 0 0 0 0 0 0 
0 0 0 0 0 0 0 0 0 
0 0 0 0 0 0 0 0 0 
0 0 0 0 0 0 0 0 0 
0 0 0 0 0 0 0 0 0 
0 0 0 0 0 0 0 0 0 
0 0 0 0 0 0 0 0 0 
0 0 0 0 0 0 0 0 0 
0 0 0 0 0 0 0 0 0 
0 0 0 0 0 0 0 0 0 
0 0 0 0 0 0 0 0 0 
0 0 0 0 0 0 0 0 0 
0 0 0 0 0 0 0 0 0 
0 0 0 0 0 0 0 0 0 
0 0 0 0 0 0 0 0 0 
0 0 0 0 0 0 0 0 0 
0 0 0 0 0 0 0 0 0 
0 0 0 0 0 0 0 0 0 
0 0 0 0 0 0 0 0 0 
0 0 0 0 0 0 0 0 0 
0 0 0 0 0 0 0 0 0 
0 0 0 0 0 0 0 0 0 
0 0 0 0 0 0 0 0 0 
0 0 0 0 0 0 0 0 0 
0 0 0 0 0 0 0 0 0 
0 0 0 0 0 0 0 0 0 
0 0 0 0 0 0 0 0 0 
0 0 0 0 0 0 0 0 0 
0 0 0 0 0 0 0 0 0 
0 0 0 0 0 0 0 0 0 
0 0 0 0 0 0 
NORMALS Normals float
0.259055 0.622739 0.7383 0.156029 0.547771 0.82195 0.008747 0.548084 0.836377 
-0.0336073 0.589233 0.807264 -0.110879 0.634362 0.765043 -0.278518 0.725735 0.629075 
0.284707 0.515493 0.808213 0.123766 0.43401 0.892366 -0.0241387 0.393353 0.91907 
-0.0911604 0.385527 0.918182 0.0164994 0.396364 0.917945 0.14746 0.302025 0.941826 
0.0974749 0.153505 0.983328 0.0638605 0.173756 0.982716 0.0315521 0.234244 0.971666 
-0.0160926 0.265497 0.963977 -0.193828 0.285346 0.938621 -0.396495 0.400708 0.825969 
0.403204 0.344941 0.84761 0.198373 0.255237 0.94631 0.00996855 0.184756 0.982734 
-0.0516462 0.110952 0.992483 -0.0624761 0.07528 0.995203 0.00532186 0.171094 0.98524 
0.0219692 0.178625 0.983672 0.0304944 -0.0355239 0.998903 0.104689 -0.0245305 0.994202 
0.0649069 0.0059423 0.997874 -0.0304993 0.0200549 0.999334 -0.121195 0.0102761 0.992576 
-0.197235 0.15067 0.968709 -0.507599 0.309219 0.804193 0.598927 0.270299 0.753807 
0.274037 0.198559 0.940998 0.135246 0.0672178 0.988529 -0.0134946 0.0264285 0.99956 
-0.142829 -0.0255299 0.989418 -0.0334098 -0.0864813 0.995693 0.116594 0.017398 0.993027 
-0.0731068 -0.0318286 0.996816 -0.101821 0.0342987 0.994211 0.103153 -0.000793188 0.994665 
0.0763589 -0.156481 0.984725 -0.00956439 -0.13866 0.990294 -0.07306 -0.0618268 0.995409 
-0.0994909 -0.00884591 0.994999 -0.359297 -0.00576987 0.933205 0.522178 0.106613 0.846146 
0.168903 0.0541884 0.984142 0.0345113 0.0204653 0.999195 -0.087085 -0.0509884 0.994895 
-0.16943 -0.0032116 0.985537 -0.0312933 -0.0146921 0.999402 0.0529156 0.101858 0.993391 
0.0510458 -0.0941233 0.994251 0.0777105 0.0863225 0.993232 -0.11101 0.0525223 0.99243 
-0.0568174 -0.101194 0.993243 0.0642696 -0.0858854 0.99423 -5.35876e-05 -0.0410372 0.999158 
-0.149991 -0.0147563 0.988577 -0.310012 -0.000409946 0.950732 -0.614586 0.0454894 0.787537 
0.505134 -0.0965282 0.857626 0.169741 -0.091472 0.981234 0.0387342 -0.0420249 0.998365 
-0.0422509 -0.00660974 0.999085 -0.116848 0.0181316 0.992984 0.0649977 0.060622 0.996042 
0.0630879 0.0147472 0.997899 -0.0965273 0.0458671 0.994273 0.0261585 -0.0497894 0.998417 
-0.0796813 -0.044415 0.99583 -0.0550833 0.0888711 0.994519 0.0504109 0.0496704 0.997493 
0.000173672 0.00937713 0.999956 -0.0685611 -0.0169866 0.997502 -0.333782 -0.0633037 0.940522 
-0.622233 -0.162103 0.765865 0.543203 -0.235652 0.805852 0.258072 -0.197104 0.945806 
0.112034 -0.123267 0.986029 -0.0295001 -0.104053 0.994134 -0.097163 -0.052632 0.993876 
-0.0234507 -0.0409585 0.998886 0.0351363 -0.210096 0.977049 -0.0164952 -0.0484569 0.998689 
-0.011675 0.000108154 0.999932 0.0355604 -0.0297401 0.998925 0.0252348 0.0809058 0.996402 
-0.0141904 0.0561826 0.99832 -0.0653572 0.0302085 0.997405 -0.212576 -0.123344 0.969329 
-0.441738 -0.265117 0.857077 0.647675 -0.448084 0.616229 0.297697 -0.324048 0.897981 
0.140483 -0.326867 0.934571 0.0366636 -0.244331 0.968999 -0.0489172 -0.138243 0.98919 
-0.0798891 -0.143688 0.986393 0.0350992 -0.167955 0.98517 0.114655 -0.129445 0.984936 
0.0419023 -0.0391859 0.998353 0.00953786 -0.01315 0.999868 0.0278523 -0.0774299 0.996609 
0.00266395 -0.0727876 0.997344 -0.177085 -0.159728 0.971148 -0.352508 -0.26722 0.896845 
0.18474 -0.548614 0.81541 0.126046 -0.453227 0.882439 0.0233541 -0.427587 0.903672 
-0.0396535 -0.341972 0.938873 0.0488552 -0.303636 0.951535 0.123802 -0.280945 0.951705 
0.0949328 -0.281773 0.954773 -0.00505687 -0.241859 0.970298 -0.0431602 -0.303585 0.951826 
-0.0981296 -0.379217 0.92009 -0.252676 -0.471754 0.84475 0.0799273 -0.6751 0.733384 
0.00106631 -0.667136 0.744936 -0.101133 -0.64552 0.757018 0.260679 0.646759 0.716763 
0.162329 0.717305 0.677586 0.0113935 0.741131 0.671264 -0.0600621 0.73705 0.673164 
-0.143067 0.772789 0.618328 -0.280624 0.746342 0.60351 0.317237 0.657039 0.683857 
0.142651 0.681182 0.718082 0.168622 0.813199 0.557023 -0.000970381 0.707145 0.707067 
0.0014032 0.805551 0.592525 -0.0555074 0.690593 0.72111 -0.0316583 0.82079 0.570353 
0.230111 0.644066 0.729539 0.0788225 0.601164 0.795229 0.116938 0.76678 0.631169 
-0.310464 0.734812 0.603046 -0.437867 0.621004 0.650097 -0.49655 0.835388 0.235722 
0.438141 0.608021 0.662075 0.483271 0.574039 0.661006 0.543541 0.674276 0.499915 
-0.548676 0.510167 0.662332 -0.585697 0.460323 0.667129 -0.664041 0.608942 0.433866 
0.623012 0.417462 0.661499 0.66568 0.34991 0.659116 0.773714 0.490225 0.401306 
-0.622803 0.348432 0.700508 -0.848695 0.454964 0.269676 0.678202 0.279061 0.679829 
-0.649983 0.208011 0.730926 -0.654176 0.155677 0.740148 -0.693932 0.22187 0.685005 
0.744801 0.132408 0.654018 -0.650613 0.046907 0.757959 0.74341 -0.0583832 0.666283 
-0.654241 -0.164483 0.738183 -0.635011 -0.201488 0.745764 0.656662 -0.245271 0.713189 
-0.53892 -0.30811 0.783985 -0.541658 -0.338183 0.76957 -0.806942 -0.405267 0.429655 
0.656518 -0.448841 0.606239 0.651656 -0.453154 0.608273 0.443665 -0.632888 0.634519 
-0.544616 -0.357274 0.758782 -0.463911 -0.548799 0.695418 -0.609918 -0.400569 0.683772 
0.403838 -0.650647 0.643097 0.501459 -0.735983 0.454827 0.21904 -0.666389 0.712704 
0.133021 -0.687499 0.713898 0.0708627 -0.654545 0.752695 0.0315259 -0.613047 0.789417 
0.0631803 -0.622017 0.780451 0.108244 -0.686899 0.718647 -0.206102 -0.678961 0.704651 
-0.449029 -0.5721 0.686349 -0.290879 -0.665391 0.687491 -0.490114 -0.606981 0.62559 
0.125231 -0.940724 0.315208 0.0723439 -0.865085 0.496381 0.078767 -0.794129 0.602623 
0.0970613 -0.707675 0.699839 0.107868 -0.742056 0.661602 0.0830671 -0.715066 0.694104 
0.00389865 -0.718675 0.695335 -0.167614 -0.688183 0.705911 -0.101293 -0.687192 0.71938 
-0.230006 -0.754323 0.614893 -0.354308 -0.88629 0.298256 0.201905 0.951936 0.230331 
0.0256143 0.963357 0.266995 0.00593732 0.950682 0.310111 0.140835 0.926582 0.348729 
0.235933 0.93041 0.280488 0.145615 0.967122 0.208498 0.0306942 0.978955 0.201754 
0.0275789 0.996232 0.0822274 -0.11305 0.970396 0.213428 -0.202886 0.961283 0.186472 
-0.284967 0.948031 0.141527 -0.495424 0.863241 0.0967949 0.599797 0.778388 0.185351 
0.378781 0.904658 0.195239 0.394009 0.898755 0.192343 0.427741 0.900376 -0.0797525 
-0.529289 0.843661 0.0899391 -0.538976 0.818793 -0.197694 -0.678152 0.729472 0.0893334 
0.687036 0.709911 0.154946 0.799795 0.591277 0.103536 -0.741829 0.663974 0.0939603 
-0.857774 0.499034 0.123243 0.837023 0.539331 0.0922729 -0.876862 0.461257 0.135483 
-0.852109 0.480185 -0.208164 0.942251 0.330989 0.0510784 -0.95847 0.252829 0.131958 
0.994018 0.107222 0.0207828 -0.980113 0.06217 0.18845 0.999056 -0.0340239 -0.0270112 
-0.964102 -0.191718 0.183718 0.944887 -0.326357 -0.0260833 -0.899648 -0.401869 0.170689 
-0.859503 -0.488686 0.149798 0.812498 -0.580026 -0.0584554 0.757269 -0.650163 -0.0619033 
0.741107 -0.558632 -0.372413 -0.80521 -0.574301 0.1477 -0.694176 -0.705434 0.143117 
0.583413 -0.809207 -0.0693791 0.534921 -0.841763 -0.07276 0.526956 -0.798641 -0.290671 
0.353104 -0.934242 -0.0500834 0.228752 -0.973462 -0.00665467 -0.657977 -0.739741 0.140884 
-0.544263 -0.826752 0.142335 0.22268 -0.974869 -0.00665754 0.151436 -0.988402 -0.0113578 
0.15254 -0.952011 -0.265344 0.0938499 -0.994942 0.0358197 0.187438 -0.8833 -0.429707 
0.0997443 -0.986609 0.129051 0.127581 -0.977753 0.166502 0.0907586 -0.985121 0.145943 
0.00158158 -0.988468 0.15142 -0.11207 -0.981879 0.152817 -0.22983 -0.956934 0.17736 
-0.419432 -0.893778 0.158866 -0.367902 -0.913771 0.17225 0.0211277 0.991212 -0.130582 
0.42999 0.895315 -0.116273 0.224004 0.969447 -0.0999764 0.0660686 0.995124 -0.0732342 
0.0429873 0.998615 -0.0303403 0.122076 0.992514 -0.00355033 0.170814 0.983985 -0.0509611 
0.0229385 0.991226 -0.130173 0.113992 0.987638 -0.107595 0.0143235 0.991206 -0.131552 
0.0209755 0.991026 -0.132012 -0.107957 0.983021 -0.148371 -0.24566 0.954486 -0.169136 
-0.381489 0.879876 -0.283346 0.431564 0.894495 -0.11675 0.664025 0.720948 -0.198253 
0.430816 0.894362 -0.12047 -0.521769 0.775136 -0.356259 -0.442095 0.714635 -0.542078 
-0.538434 0.757272 -0.369632 -0.653874 0.637867 -0.406909 0.730372 0.639757 -0.239307 
0.82001 0.472315 -0.323268 0.696786 0.562777 -0.444715 -0.663216 0.630131 -0.40383 
-0.646634 0.618617 -0.446294 0.830981 0.450498 -0.326378 0.819093 0.439548 -0.368626 
-0.780768 0.458717 -0.424241 -0.520635 0.344749 -0.781081 -0.800609 0.423091 -0.424286 
0.847245 0.278032 -0.45263 0.723684 0.217784 -0.654867 -0.871357 0.278512 -0.403941 
-0.7693 0.287888 -0.570349 0.886326 0.0764577 -0.456705 0.623096 0.0129339 -0.782038 
-0.940263 0.0804093 -0.330816 -0.671849 0.0901525 -0.735181 0.857126 -0.124642 -0.4998 
0.547918 -0.178119 -0.817349 -0.923166 -0.192488 -0.332737 -0.678164 -0.191082 -0.709635 
0.742416 -0.3689 -0.559224 0.681372 -0.485563 -0.547687 0.579971 -0.365662 -0.727959 
0.432833 -0.26594 -0.861354 -0.531526 -0.26878 -0.803267 -0.82028 -0.416811 -0.391675 
-0.803404 -0.442884 -0.397989 -0.792974 -0.420321 -0.441048 0.651866 -0.5259 -0.546351 
0.47608 -0.674119 -0.564722 0.413408 -0.468896 -0.780532 0.22929 -0.457993 -0.858876 
-0.735988 -0.542242 -0.405332 -0.67504 -0.628263 -0.386791 -0.622511 -0.472758 -0.623683 
0.388374 -0.732411 -0.559232 0.300935 -0.77468 -0.556156 0.296152 -0.675884 -0.674888 
0.188861 -0.760698 -0.621023 0.102203 -0.653493 -0.750001 0.151157 -0.771659 -0.617814 
0.137958 -0.607895 -0.781941 0.199254 -0.839918 -0.504812 0.284877 -0.555652 -0.781086 
-0.621688 -0.692095 -0.366754 -0.552786 -0.752661 -0.357672 -0.526586 -0.616314 -0.585545 
0.20155 -0.857838 -0.472749 0.214633 -0.908683 -0.358088 0.256546 -0.847802 -0.46413 
0.150058 -0.955545 -0.253803 0.179865 -0.847152 -0.499983 0.0827788 -0.961028 -0.263765 
0.0220685 -0.959142 -0.282062 -0.090002 -0.962529 -0.255809 -0.084479 -0.741904 -0.665163 
-0.242084 -0.934503 -0.260958 -0.242923 -0.800755 -0.547521 -0.402147 -0.865593 -0.298373 
-0.394008 -0.869992 -0.296432 -0.395959 -0.863144 -0.313367 0.243109 0.857702 -0.453041 
0.0978598 0.901527 -0.421512 0.084803 0.91423 -0.396223 0.126238 0.92757 -0.351679 
0.120028 0.926282 -0.357204 0.0579061 0.908646 -0.413532 -0.0241613 0.88555 -0.463915 
-0.154258 0.837361 -0.524434 -0.315387 0.739748 -0.594393 0.301577 0.836283 -0.45791 
0.474179 0.722151 -0.503639 0.243523 0.819281 -0.51911 0.0995008 0.823224 -0.55893 
0.0943495 0.802508 -0.589135 0.131823 0.756233 -0.640886 0.0689179 0.69909 -0.711704 
-0.011053 0.652445 -0.757755 -0.0894103 0.612183 -0.785645 -0.202751 0.630907 -0.748898 
-0.394913 0.670608 -0.627955 -0.304837 0.636229 -0.708722 -0.429248 0.605473 -0.670186 
-0.476807 0.468105 -0.743998 0.641385 0.518708 -0.565302 0.6827 0.412778 -0.602939 
0.460881 0.481225 -0.745662 -0.33291 0.333691 -0.881942 -0.395742 0.35087 -0.848692 
-0.479782 0.454212 -0.750667 -0.471865 0.4386 -0.764835 0.688181 0.275782 -0.671082 
0.648088 0.237234 -0.723672 0.430661 0.16703 -0.886923 -0.380171 0.199074 -0.903238 
-0.49057 0.320879 -0.810172 -0.373554 0.228685 -0.898978 -0.503411 0.278819 -0.817825 
0.638162 0.140686 -0.756939 0.5703 0.035967 -0.820649 -0.312909 0.0956743 -0.944952 
-0.349908 0.163003 -0.922494 -0.512229 0.17609 -0.840603 -0.473208 0.159794 -0.866337 
0.566288 -0.00978395 -0.824149 0.446724 -0.0815723 -0.890945 0.366558 -0.157142 -0.917029 
-0.240186 -0.00621087 -0.970707 -0.302583 0.0381574 -0.952359 -0.488316 0.0749203 -0.869445 
-0.441892 0.0637352 -0.894801 0.438031 -0.189359 -0.87879 0.431165 -0.259434 -0.86417 
0.422154 -0.187637 -0.886892 0.319699 -0.2171 -0.922312 -0.212258 -0.0872494 -0.973311 
-0.282013 -0.0927004 -0.954922 -0.484933 -0.149328 -0.861708 -0.526353 -0.261614 -0.809018 
-0.434205 -0.129258 -0.891492 0.426494 -0.26752 -0.864023 0.237709 -0.43394 -0.869017 
0.295085 -0.315702 -0.901807 0.237255 -0.37569 -0.895861 0.227882 -0.474318 -0.850348 
-0.246735 -0.126762 -0.960756 -0.526689 -0.266198 -0.807303 -0.348631 -0.200266 -0.915615 
0.200071 -0.449417 -0.87063 0.128226 -0.490197 -0.862128 0.149734 -0.447438 -0.881691 
0.117205 -0.555192 -0.823423 0.135773 -0.543529 -0.828337 0.292792 -0.541086 -0.788352 
0.319451 -0.52009 -0.792122 -0.216011 -0.197371 -0.956234 -0.309082 -0.28149 -0.908423 
-0.463847 -0.393725 -0.793616 -0.44826 -0.43826 -0.779096 -0.427713 -0.369393 -0.824991 
0.321229 -0.568138 -0.757648 0.376058 -0.670414 -0.639629 0.407702 -0.598469 -0.689648 
0.190756 -0.810689 -0.553531 0.122306 -0.488817 -0.86377 -0.0378481 -0.459655 -0.887291 
-0.0561689 -0.453595 -0.889436 -0.0847307 -0.734924 -0.672835 -0.102396 -0.458045 -0.883012 
-0.241223 -0.680777 -0.691631 -0.249709 -0.441975 -0.86157 -0.397271 -0.510053 -0.762904 
-0.37018 -0.541938 -0.7545 -0.359736 -0.487562 -0.795533 0.051791 -0.799186 -0.598848 
0.0425834 -0.797301 -0.602077 0.0420593 -0.795946 -0.603904 -0.052731 -0.746981 -0.662751 
-0.0069127 -0.760784 -0.648969 -0.00788264 -0.756539 -0.653901 0.255918 0.467915 -0.845909 
0.107518 0.516906 -0.849263 0.0644781 0.509062 -0.858311 0.124691 0.539973 -0.832395 
0.0636071 0.623033 -0.779605 -0.0244848 0.58477 -0.810829 -0.0991946 0.511361 -0.853622 
-0.195974 0.446615 -0.873 0.267022 0.458821 -0.847457 0.255418 0.459245 -0.850797 
0.0930109 0.395228 -0.913862 0.0452593 0.357771 -0.932712 0.116603 0.318175 -0.940834 
0.0563762 0.343639 -0.937408 -0.0637995 0.291089 -0.954566 -0.102337 0.30098 -0.948123 
-0.301227 0.331971 -0.8939 -0.186417 0.331499 -0.924855 -0.333311 0.281268 -0.899884 
0.41716 0.165564 -0.893625 0.416308 0.0790275 -0.905783 0.218838 0.133698 -0.966558 
0.0321092 0.146023 -0.98876 0.0240005 0.112061 -0.993411 0.131837 0.0990057 -0.986315 
0.0437806 0.145191 -0.988435 -0.0872121 0.0841413 -0.99263 -0.0697418 0.113634 -0.991072 
-0.16794 0.146034 -0.974921 -0.35458 0.161187 -0.921028 -0.333255 0.141495 -0.932159 
0.405426 -0.051464 -0.912678 0.3873 -0.0764692 -0.918777 0.390905 -0.0529115 -0.918909 
0.228698 -0.0731946 -0.970742 0.053258 0.00142315 -0.99858 -0.00208568 0.0561113 -0.998422 
0.15444 0.0203179 -0.987793 0.0419701 -0.0370686 -0.998431 -0.0962875 -0.0526083 -0.993962 
-0.0373657 0.0028935 -0.999297 -0.162782 -0.0015437 -0.986661 -0.31088 0.0710018 -0.947793 
-0.304063 0.00510686 -0.952638 0.336094 -0.163385 -0.927548 0.280038 -0.165593 -0.945599 
0.157366 -0.080378 -0.984264 0.0439933 0.0413428 -0.998176 0.0335696 -0.0350804 -0.998821 
-0.0248942 -0.234412 -0.971819 -0.0434496 -0.0927737 -0.994739 -0.0213288 -0.0751609 -0.996943 
-0.171865 -0.121895 -0.97755 -0.237849 -0.0199277 -0.971098 -0.233661 -0.0737119 -0.96952 
0.306224 -0.247675 -0.919176 0.305723 -0.249085 -0.918961 0.306272 -0.247829 -0.919118 
0.238096 -0.441112 -0.865292 0.265872 -0.234685 -0.935005 0.0419268 -0.147812 -0.988126 
-0.122512 -0.121765 -0.984969 -0.0139037 -0.171261 -0.985128 0.063647 -0.0908637 -0.993827 
-0.0636643 -0.104143 -0.992523 -0.168883 -0.110523 -0.97942 -0.199072 -0.0879592 -0.97603 
-0.188917 -0.0864501 -0.97818 0.217236 -0.473242 -0.853727 0.226581 -0.487748 -0.843068 
0.168106 -0.460162 -0.871775 0.0267307 -0.202213 -0.978977 0.00783265 -0.0364034 -0.999306 
0.0244071 -0.119901 -0.992486 -0.0460299 -0.144203 -0.988477 -0.150866 -0.0997826 -0.983505 
-0.219065 -0.101827 -0.970382 -0.218601 -0.10353 -0.970307 -0.218686 -0.101659 -0.970485 
0.303928 -0.330137 -0.893665 0.309332 -0.333001 -0.890743 0.299174 -0.314507 -0.900877 
0.0942023 -0.377736 -0.921109 0.0671539 -0.17221 -0.982769 -0.0422407 -0.338972 -0.939848 
-0.0435557 -0.212991 -0.976083 -0.0505918 -0.322132 -0.945342 -0.0453628 -0.242933 -0.968982 
-0.158193 -0.213212 -0.964114 -0.114322 -0.280015 -0.953164 -0.119098 -0.225861 -0.966852 

