# vtk DataFile Version 4.2
vtk output
ASCII
DATASET POLYDATA
POINTS 562 float
8.45088 1.30571 -22.8435 -25.9089 -41.644 -16.6141 -17.319 -41.644 -16.354 
-8.72901 -41.644 -15.4656 -34.4989 -33.0541 -17.8888 -25.9089 -33.0541 -19.0923 
-17.319 -33.0541 -19.1885 -8.72901 -33.0541 -18.5768 -0.139066 -33.0541 -17.5379 
8.45088 -33.0541 -15.8729 -43.0888 -24.4641 -16.139 -34.4989 -24.4641 -19.4663 
-25.9089 -24.4641 -20.2796 -17.319 -24.4641 -19.9856 -8.72901 -24.4641 -18.3488 
-0.139066 -24.4641 -18.2669 8.45088 -24.4641 -18.2524 17.0408 -24.4641 -16.9423 
25.6308 -24.4641 -16.2983 34.2207 -24.4641 -17.3415 42.8107 -24.4641 -16.8766 
51.4006 -24.4641 -15.496 -43.0888 -15.8742 -17.0452 -34.4989 -15.8742 -19.9412 
-25.9089 -15.8742 -20.4692 -17.319 -15.8742 -19.7396 -8.72901 -15.8742 -18.2273 
-0.139066 -15.8742 -18.4308 8.45088 -15.8742 -19.0814 17.0408 -15.8742 -18.3225 
25.6308 -15.8742 -18.8125 34.2207 -15.8742 -20.069 42.8107 -15.8742 -19.9653 
51.4006 -15.8742 -19.0258 59.9906 -15.8742 -17.177 -51.6787 -7.28423 -15.3409 
-43.0888 -7.28423 -18.5664 -34.4989 -7.28423 -19.8498 -25.9089 -7.28423 -19.7551 
-17.319 -7.28423 -19.5692 -8.72901 -7.28423 -21.4165 -0.139066 -7.28423 -18.8969 
8.45088 0.483529 -22.6227 8.45088 -7.28423 -20.4553 17.0408 -7.28423 -18.296 
25.6308 -7.28423 -18.8869 34.2207 -7.28423 -20.2709 42.8107 -7.28423 -21.0402 
51.4006 -7.28423 -21.0588 59.9906 -7.28423 -19.1668 68.5805 -7.28423 -15.8542 
-51.6787 1.30571 -17.7734 -43.0888 1.30571 -20.0994 -34.4989 1.30571 -20.6659 
-25.9089 1.30571 -19.9474 -17.319 1.30571 -18.4654 -8.72901 1.30571 -19.7886 
8.01332 1.30571 -22.6227 -0.139066 1.30571 -17.6464 8.97924 1.30571 -22.6227 
8.45088 2.219 -22.6227 17.0408 1.30571 -18.6486 25.6308 1.30571 -18.9266 
34.2207 1.30571 -20.448 42.8107 1.30571 -21.1965 51.4006 1.30571 -21.0242 
59.9906 1.30571 -18.6711 68.5805 1.30571 -14.6764 -51.6787 9.89566 -18.7051 
-43.0888 9.89566 -21.0039 -34.4989 9.89566 -21.3371 -25.9089 9.89566 -20.3942 
-17.319 9.89566 -18.6434 -8.72901 9.89566 -18.4429 -0.139066 9.89566 -21.8962 
8.45088 9.89566 -20.3329 17.0408 9.89566 -18.299 25.6308 9.89566 -19.6308 
34.2207 9.89566 -20.8681 42.8107 9.89566 -21.2255 51.4006 9.89566 -20.6136 
59.9906 9.89566 -18.6636 -51.6787 18.4856 -18.5633 -43.0888 18.4856 -20.9453 
-34.4989 18.4856 -22.2046 -25.9089 18.4856 -21.1525 -17.319 18.4856 -19.703 
-8.72901 18.4856 -18.8026 -0.139066 18.4856 -20.271 8.45088 18.4856 -20.1427 
17.0408 18.4856 -19.8873 25.6308 18.4856 -20.8854 34.2207 18.4856 -21.9933 
42.8107 18.4856 -20.7121 51.4006 18.4856 -19.4343 59.9906 18.4856 -14.4738 
-51.6787 27.0756 -16.8196 -43.0888 27.0756 -20.1354 -34.4989 27.0756 -20.8951 
-25.9089 27.0756 -20.9131 -17.319 27.0756 -19.8081 -8.72901 27.0756 -18.802 
-0.139066 27.0756 -19.421 8.45088 27.0756 -20.6989 17.0408 27.0756 -21.1193 
25.6308 27.0756 -20.7135 34.2207 27.0756 -20.3684 42.8107 27.0756 -19.5731 
51.4006 27.0756 -15.91 -43.0888 35.6655 -17.081 -34.4989 35.6655 -19.3214 
-25.9089 35.6655 -19.1371 -17.319 35.6655 -17.8294 -8.72901 35.6655 -16.9572 
-0.139066 35.6655 -17.3895 8.45088 35.6655 -20.2632 17.0408 35.6655 -20.8163 
25.6308 35.6655 -19.3521 34.2207 35.6655 -17.4296 8.45088 44.2554 -14.9118 
17.0408 44.2554 -15.9468 -25.9089 -44.6614 -14.0328 -17.319 -44.6333 -14.0328 
-8.72901 -43.4699 -14.0328 -43.0888 -41.644 -6.44697 -33.446 -41.644 -14.0328 
-34.4989 -40.8777 -14.0328 -34.4989 -41.644 -13.4841 -2.51885 -41.644 -14.0328 
-0.139066 -40.5995 -14.0328 -0.139066 -41.644 -13.3828 8.45088 -36.3399 -14.0328 
8.45088 -41.644 -9.40127 -42.9635 -33.0541 -14.0328 -43.0888 -32.8386 -14.0328 
-43.0888 -33.0541 -13.9595 13.3512 -33.0541 -14.0328 17.0408 -30.3988 -14.0328 
17.0408 -33.0541 -12.2808 25.6308 -28.3373 -14.0328 25.6308 -33.0541 -9.72385 
34.2207 -28.1168 -14.0328 34.2207 -33.0541 -7.31117 42.8107 -27.8422 -14.0328 
42.8107 -33.0541 -6.39796 51.4006 -26.2846 -14.0328 -46.507 -24.4641 -14.0328 
-51.6787 -24.4641 -9.51577 57.0154 -24.4641 -14.0328 59.9906 -22.5911 -14.0328 
59.9906 -24.4641 -12.5067 -48.7229 -15.8742 -14.0328 -51.6787 -11.1751 -14.0328 
-51.6787 -15.8742 -12.0799 65.4996 -15.8742 -14.0328 68.5805 -12.0819 -14.0328 
68.5805 -15.8742 -11.4833 -53.8936 -7.28423 -14.0328 -60.2687 -7.28423 -8.30574 
70.5141 -7.28423 -14.0328 -58.2658 1.30571 -14.0328 -60.2687 1.30571 -12.5939 
69.2537 1.30571 -14.0328 68.5805 3.66321 -14.0328 -59.7956 9.89566 -14.0328 
-60.2687 9.89566 -13.6881 65.8191 9.89566 -14.0328 68.5805 9.89566 -9.96849 
-59.2274 18.4856 -14.0328 -60.2687 18.4856 -13.2184 60.4968 18.4856 -14.0328 
59.9906 19.2876 -14.0328 -58.4594 27.0756 -14.0328 -60.2687 27.0756 -12.4049 
-51.6787 33.1271 -14.0328 42.8107 35.1842 -14.0328 54.3262 27.0756 -14.0328 
51.4006 29.4812 -14.0328 -49.3159 35.6655 -14.0328 -51.6787 35.6655 -12.2808 
-43.0888 39.9426 -14.0328 -34.4989 43.1596 -14.0328 -25.9089 43.6945 -14.0328 
-17.319 41.6276 -14.0328 -8.72901 39.334 -14.0328 -0.139066 40.183 -14.0328 
25.6308 43.0078 -14.0328 42.0555 35.6655 -14.0328 34.2207 39.1975 -14.0328 
42.8107 35.6655 -12.8286 -43.0888 44.2554 -7.74359 -34.4989 44.2554 -12.3506 
-25.9089 44.2554 -12.9641 -17.319 44.2554 -7.89772 6.83288 44.2554 -14.0328 
8.45088 44.9189 -14.0328 22.3158 44.2554 -14.0328 17.0408 45.756 -14.0328 
25.6308 44.2554 -10.4992 -43.0888 -42.3088 -5.44286 -34.4989 -47.1937 -5.44286 
-25.9089 -49.593 -5.44286 -17.319 -50.2072 -5.44286 -8.72901 -49.8278 -5.44286 
-0.139066 -47.6391 -5.44286 8.45088 -44.3054 -5.44286 -43.8814 -41.644 -5.44286 
13.8709 -41.644 -5.44286 17.0408 -39.7935 -5.44286 17.0408 -41.644 -0.0836376 
25.6308 -36.0322 -5.44286 34.2207 -34.1435 -5.44286 42.8107 -33.5601 -5.44286 
-50.8503 -33.0541 -5.44286 -51.6787 -31.4249 -5.44286 -51.6787 -33.0541 -3.6127 
44.5233 -33.0541 -5.44286 51.4006 -31.0918 -5.44286 59.9906 -28.3977 -5.44286 
-55.048 -24.4641 -5.44286 65.5777 -24.4641 -5.44286 68.5805 -21.5124 -5.44286 
-58.6208 -15.8742 -5.44286 -60.2687 -12.4061 -5.44286 -60.2687 -15.8742 -2.07727 
72.1067 -15.8742 -5.44286 -62.3869 -7.28423 -5.44286 74.5708 -7.28423 -5.44286 
-66.8221 1.30571 -5.44286 73.3074 1.30571 -5.44286 -67.468 9.89566 -5.44286 
-68.8586 9.89566 1.63713 70.6069 9.89566 -5.44286 68.5805 13.5947 -5.44286 
-67.1044 18.4856 -5.44286 65.7064 18.4856 -5.44286 59.9906 25.1064 -5.44286 
-63.63 27.0756 -5.44286 -60.2687 31.645 -5.44286 57.7741 27.0756 -5.44286 
51.4006 31.8852 -5.44286 -57.0032 35.6655 -5.44286 -51.6787 40.5262 -5.44286 
-8.72901 42.059 -5.44286 -0.139066 42.8152 -5.44286 34.2207 41.6589 -5.44286 
45.7575 35.6655 -5.44286 42.8107 37.5546 -5.44286 42.8107 35.6655 0.71209 
-45.1941 44.2554 -5.44286 -43.0888 45.3865 -5.44286 -43.0888 44.2554 -0.175819 
-34.4989 47.0913 -5.44286 -25.9089 46.8979 -5.44286 -25.9089 44.2554 1.97009 
-15.2948 44.2554 -5.44286 -17.319 44.928 -5.44286 -17.319 44.2554 -3.57071 
3.09415 44.2554 -5.44286 8.45088 46.4422 -5.44286 8.45088 44.2554 -0.597415 
17.0408 47.2742 -5.44286 17.0408 44.2554 2.82934 28.8858 44.2554 -5.44286 
25.6308 45.6001 -5.44286 25.6308 44.2554 -2.20898 -43.0888 -44.4387 3.14709 
-34.4989 -48.1563 3.14709 -25.9089 -49.5256 3.14709 -17.319 -49.7752 3.14709 
-8.72901 -49.1794 3.14709 -0.139066 -47.4238 3.14709 8.45088 -45.5191 3.14709 
17.0408 -42.506 3.14709 -46.8008 -41.644 3.14709 -51.6787 -36.5047 3.14709 
8.45088 -41.644 11.5445 18.9082 -41.644 3.14709 17.0408 -41.644 6.11947 
25.6308 -38.524 3.14709 34.2207 -35.6254 3.14709 42.8107 -34.4674 3.14709 
-54.311 -33.0541 3.14709 46.9173 -33.0541 3.14709 42.8107 -33.0541 7.25107 
51.4006 -31.5111 3.14709 59.9906 -28.5247 3.14709 -59.2037 -24.4641 3.14709 
-60.2687 -21.5217 3.14709 65.724 -24.4641 3.14709 59.9906 -24.4641 11.3203 
68.5805 -21.4887 3.14709 -62.1634 -15.8742 3.14709 71.9354 -15.8742 3.14709 
68.5805 -15.8742 9.46839 -65.7614 -7.28423 3.14709 74.2233 -7.28423 3.14709 
-68.4356 1.30571 3.14709 -68.8586 6.55145 3.14709 72.7615 1.30571 3.14709 
68.5805 1.30571 10.7819 -69.1042 9.89566 3.14709 -68.8586 11.2906 3.14709 
-68.8586 9.89566 3.73155 69.4395 9.89566 3.14709 68.5805 11.1895 3.14709 
68.5805 9.89566 4.50194 -67.4727 18.4856 3.14709 63.94 18.4856 3.14709 
59.9906 22.8367 3.14709 59.9906 18.4856 9.16841 -63.4031 27.0756 3.14709 
-60.2687 30.7839 3.14709 -60.2687 27.0756 7.32973 42.8107 34.8274 3.14709 
55.5181 27.0756 3.14709 51.4006 30.1897 3.14709 51.4006 27.0756 8.00337 
-55.5111 35.6655 3.14709 -51.6787 38.7414 3.14709 -51.6787 35.6655 7.44186 
-43.0888 43.3031 3.14709 -25.9089 43.7277 3.14709 -17.319 41.5833 3.14709 
-17.319 35.6655 10.1269 -8.72901 37.261 3.14709 -8.72901 35.6655 5.13675 
-0.139066 37.2832 3.14709 -0.139066 35.6655 5.12795 8.45088 42.1791 3.14709 
8.45088 35.6655 10.8948 17.0408 44.1257 3.14709 25.6308 41.8558 3.14709 
40.857 35.6655 3.14709 34.2207 38.2539 3.14709 34.2207 35.6655 7.44754 
-38.3172 44.2554 3.14709 -29.6369 44.2554 3.14709 -34.4989 44.8262 3.14709 
-34.4989 44.2554 4.02363 -43.0888 -42.9686 11.737 -34.4989 -45.458 11.737 
-25.9089 -46.2099 11.737 -17.319 -46.0737 11.737 -8.72901 -44.533 11.737 
-0.139066 -42.69 11.737 -45.0121 -41.644 11.737 -51.6787 -35.3826 11.737 
-43.0888 -41.644 13.831 -34.4989 -41.644 16.3606 -25.9089 -41.644 17.6858 
-17.319 -41.644 16.657 -8.72901 -41.644 14.6618 7.61918 -41.644 11.737 
-0.139066 -41.644 12.7682 8.45088 -41.5062 11.737 17.0408 -39.5256 11.737 
25.6308 -36.6727 11.737 34.2207 -33.4208 11.737 -53.602 -33.0541 11.737 
-51.6787 -33.0541 14.5832 -43.0888 -33.0541 20.0328 -8.72901 -33.0541 19.2589 
-0.139066 -33.0541 17.9043 8.45088 -33.0541 17.6717 17.0408 -33.0541 17.3613 
25.6308 -33.0541 15.5628 35.8005 -33.0541 11.737 34.2207 -33.0541 12.2535 
42.8107 -31.2508 11.737 51.4006 -28.6494 11.737 -57.934 -24.4641 11.737 
-60.2687 -19.1475 11.737 -51.6787 -24.4641 18.5724 -0.139066 -24.4641 20.3241 
34.2207 -24.4641 20.2582 42.8107 -24.4641 19.1587 59.5962 -24.4641 11.737 
51.4006 -24.4641 16.3508 59.9906 -24.1461 11.737 -61.6332 -15.8742 11.737 
-60.2687 -15.8742 13.6551 -51.6787 -15.8742 19.5609 66.8382 -15.8742 11.737 
[...]
POINT_DATA 562
SCALARS ImageScalars float
LOOKUP_TABLE default
0 0 0 0 0 0 0 0 0 
0 0 0 0 0 0 0 0 0 
0 0 0 0 0 0 0 0 0 
0 0 0 0 0 0 0 0 0 
0 0 0 0 0 0 0 0 0 
0 0 0 0 0 0 0 0 0 
0 0 0 0 0 0 0 0 0 
0 0 0 0 0 0 0 0 0 
0 0 0 0 0 0 0 0 0 
0 0 0 0 0 0 0 0 0 
0 0 0 0 0 0 0 0 0 
0 0 0 0 0 0 0 0 0 
0 0 0 0 0 0 0 0 0 
0 0 0 0 0 0 0 0 0 
0 0 0 0 0 0 0 0 0 
0 0 0 0 0 0 0 0 0 
0 0 0 0 0 0 0 0 0 
0 0 0 0 0 0 0 0 0 
0 0 0 0 0 0 0 0 0 
0 0 0 0 0 0 0 0 0 
0 0 0 0 0 0 0 0 0 
0 0 0 0 0 0 0 0 0 
0 0 0 0 0 0 0 0 0 
0 0 0 0 0 0 0 0 0 
0 0 0 0 0 0 0 0 0 
0 0 0 0 0 0 0 0 0 
0 0 0 0 0 0 0 0 0 
0 0 0 0 0 0 0 0 0 
0 0 0 0 0 0 0 0 0 
0 0 0 0 0 0 0 0 0 
0 0 0 0 0 0 0 0 0 
0 0 0 0 0 0 0 0 0 
0 0 0 0 0 0 0 0 0 
0 0 0 0 0 0 0 0 0 
0 0 0 0 0 0 0 0 0 
0 0 0 0 0 0 0 0 0 
0 0 0 0 0 0 0 0 0 
0 0 0 0 0 0 0 0 0 
0 0 0 0 0 0 0 0 0 
0 0 0 0 0 0 0 0 0 
0 0 0 0 0 0 0 0 0 
0 0 0 0 0 0 0 0 0 
0 0 0 0 0 0 0 0 0 
0 0 0 0 0 0 0 0 0 
0 0 0 0 0 0 0 0 0 
0 0 0 0 0 0 0 0 0 
0 0 0 0 0 0 0 0 0 
0 0 0 0 0 0 0 0 0 
0 0 0 0 0 0 0 0 0 
0 0 0 0 0 0 0 0 0 
0 0 0 0 0 0 0 0 0 
0 0 0 0 0 0 0 0 0 
0 0 0 0 0 0 0 0 0 
0 0 0 0 0 0 0 0 0 
0 0 0 0 0 0 0 0 0 
0 0 0 0 0 0 0 0 0 
0 0 0 0 0 0 0 0 0 
0 0 0 0 0 0 0 0 0 
0 0 0 0 0 0 0 0 0 
0 0 0 0 0 0 0 0 0 
0 0 0 0 0 0 0 0 0 
0 0 0 0 0 0 0 0 0 
0 0 0 0 
NORMALS Normals float
0.0474204 0.0151936 0.998759 0.14033 0.517109 0.844337 -0.0589123 0.493272 0.867878 
-0.145328 0.519763 0.841859 0.265781 0.300601 0.915969 0.0671328 0.203122 0.976849 
-0.0289251 0.190523 0.981256 -0.0941103 0.141095 0.985513 -0.146548 0.233218 0.961319 
-0.260819 0.392751 0.881884 0.459156 0.157709 0.874244 0.229636 0.108814 0.967175 
0.0282194 0.077186 0.996617 -0.111915 0.0309669 0.993235 -0.0996655 -0.0195203 0.99483 
-0.00556753 0.0487277 0.998797 -0.074287 0.173668 0.981998 -0.11144 0.296653 0.948461 
0.013788 0.405827 0.913846 0.0346746 0.514904 0.856546 -0.0980364 0.546836 0.83148 
-0.192261 0.560599 0.805459 0.386954 0.137464 0.911795 0.187296 0.0213635 0.982071 
-0.0101499 -0.0306635 0.999478 -0.133532 -0.0245199 0.990741 -0.0711837 0.15887 0.98473 
0.0501592 0.0351013 0.998124 -0.00579659 0.12341 0.992339 -0.0164568 0.0763702 0.996944 
0.0995749 0.139447 0.98521 0.0668335 0.145132 0.987152 -0.0559466 0.205356 0.977087 
-0.143442 0.295314 0.944571 -0.35701 0.32163 0.876982 0.442849 0.268354 0.855495 
0.244895 0.165141 0.955382 0.0679429 0.0415621 0.996823 -0.0161554 -0.0302167 0.999413 
0.0864779 -0.0730919 0.993569 -0.0345243 0.107223 0.993635 -0.0477365 -0.0350275 0.998246 
0.0373705 0.0363233 0.998641 -0.0425082 0.199468 0.978982 -0.0888037 0.0163292 0.995915 
0.116489 0.00663709 0.99317 0.12426 0.0215571 0.992016 0.0457565 0.0766092 0.996011 
-0.109609 0.11483 0.987319 -0.297669 0.0636493 0.952545 -0.601772 0.112754 0.790668 
0.375229 0.187468 0.907777 0.157987 0.142634 0.977085 -0.00957134 0.0886825 0.996014 
-0.124446 0.036843 0.991542 -0.0175759 -0.0527139 0.998455 -0.0298044 -0.173944 0.984304 
0.0544107 0.0231357 0.998251 0.158581 0.198963 0.967091 0.0292713 0.0139024 0.999475 
0.0176781 -0.00453343 0.999833 -0.206743 0.000234299 0.978395 0.101698 0.0430211 0.993885 
0.130878 0.0344103 0.990801 0.0337714 0.0107168 0.999372 -0.151734 -0.0251019 0.988103 
-0.350862 -0.0283625 0.935997 -0.66836 -0.187903 0.719713 0.3672 0.043765 0.929112 
0.14149 0.0480864 0.988771 -0.0352879 0.0880755 0.995489 -0.154607 0.069426 0.985534 
-0.114221 0.0727361 0.990789 0.189772 -0.0511012 0.980497 0.120172 0.111891 0.986427 
-0.227379 -0.144812 0.962979 -0.0178269 0.0766396 0.996899 0.152029 0.116122 0.981531 
0.0920048 0.0910554 0.991587 -0.0127948 -0.0276269 0.999536 -0.124192 -0.0862156 0.988505 
-0.42928 -0.191482 0.88264 0.368392 -0.104911 0.923732 0.196245 -0.0451969 0.979513 
0.0111941 -0.0239835 0.99965 -0.143639 0.0286503 0.989215 -0.135694 0.0664349 0.988521 
0.0302791 0.0198227 0.999345 0.0804688 -0.14543 0.986091 -0.0226636 0.0242063 0.99945 
0.0441775 0.163549 0.985546 0.123694 0.0615159 0.990412 -0.00856688 -0.0257049 0.999633 
-0.140709 -0.0839986 0.986481 -0.310254 -0.263559 0.913389 -0.610336 -0.406913 0.679641 
0.373774 -0.280674 0.884033 0.232508 -0.223179 0.946642 0.041366 -0.158128 0.986552 
-0.0575559 -0.114436 0.991762 -0.129524 -0.100121 0.986509 -0.0188493 -0.104637 0.994332 
0.110046 -0.150963 0.982395 0.10014 0.00920172 0.994931 -0.00133498 0.056508 0.998401 
-0.0409115 -0.0818311 0.995806 -0.0619657 -0.245955 0.967298 -0.266452 -0.375132 0.887851 
-0.476308 -0.530651 0.701099 0.309721 -0.44596 0.839757 0.115144 -0.289937 0.950094 
-0.0797247 -0.359316 0.929804 -0.144674 -0.409404 0.900809 -0.0280605 -0.50438 0.863026 
0.193003 -0.473149 0.859581 0.186819 -0.259989 0.947367 -0.061402 -0.25024 0.966235 
-0.180549 -0.378475 0.907832 -0.314629 -0.600431 0.735181 0.259716 -0.804759 0.53377 
-0.0968195 -0.786475 0.609986 0.144889 0.677648 0.720972 -0.0483935 0.634208 0.771646 
-0.153191 0.597712 0.786939 0.584624 0.695376 0.417931 0.345926 0.567077 0.747502 
0.366772 0.545914 0.753297 0.377524 0.582888 0.719525 -0.213891 0.569519 0.793661 
-0.228158 0.544458 0.807161 -0.244304 0.603984 0.75863 -0.300781 0.503681 0.809837 
-0.388393 0.74019 0.548881 0.534224 0.341087 0.773475 0.53624 0.336775 0.77397 
0.53874 0.342343 0.76978 -0.262405 0.488319 0.832279 -0.214569 0.474437 0.853739 
-0.274067 0.581594 0.765922 -0.0692664 0.539972 0.838828 -0.193699 0.774446 0.602257 
-0.0194184 0.686883 0.726508 -0.112017 0.898574 0.424285 -0.0805167 0.685692 0.723425 
-0.162784 0.926603 0.338981 -0.199974 0.65622 0.727589 0.559072 0.201738 0.804201 
0.712055 0.292556 0.63827 -0.316261 0.605144 0.730602 -0.383151 0.554724 0.738564 
-0.408656 0.658139 0.632339 0.512356 0.215238 0.831363 0.501593 0.264317 0.823736 
0.59058 0.268718 0.760924 -0.536744 0.370712 0.757944 -0.631451 0.265905 0.728398 
-0.694195 0.414787 0.588256 0.503882 0.288217 0.814269 0.73648 0.351521 0.577954 
-0.716126 0.107003 0.68972 0.570794 0.193132 0.798056 0.636799 0.20814 0.742404 
-0.70471 -0.19093 0.683322 -0.696221 -0.236901 0.677609 0.612252 0.0296664 0.790106 
0.631812 0.028466 0.774599 -0.665589 -0.336215 0.666296 -0.831591 -0.397201 0.388185 
0.617636 -0.0372766 0.78558 0.665239 -0.0438 0.745344 -0.62586 -0.412441 0.661961 
-0.623975 -0.427573 0.654092 0.597545 -0.326305 0.732437 0.699765 -0.366446 0.613227 
0.487127 -0.463144 0.740409 -0.427069 -0.730639 0.532709 -0.561381 -0.583465 0.586873 
-0.516285 -0.645585 0.562734 0.476248 -0.512092 0.714807 0.562777 -0.569107 0.5995 
0.345773 -0.618746 0.705404 0.172648 -0.788102 0.590837 -0.0548707 -0.787492 0.613878 
-0.212471 -0.731651 0.647721 -0.0534616 -0.752244 0.656712 0.246583 -0.733754 0.633089 
-0.313563 -0.788499 0.5291 -0.426058 -0.737067 0.524601 -0.380526 -0.75596 0.532658 
-0.445236 -0.775629 0.447398 0.369117 -0.892916 0.257785 0.15816 -0.884381 0.439152 
-0.0649252 -0.847507 0.526798 -0.285081 -0.949687 0.129703 0.270305 -0.828158 0.491009 
0.256275 -0.838784 0.480379 -0.245543 -0.831242 0.498744 -0.0934305 -0.867912 0.487852 
-0.329375 -0.904708 0.270215 0.583213 0.721319 0.373579 0.365384 0.881346 0.299539 
0.157501 0.962096 0.222631 0.0141163 0.981853 0.189115 -0.142584 0.967224 0.210112 
-0.286693 0.923816 0.253715 -0.40242 0.846247 0.349176 0.601564 0.702289 0.380671 
-0.420972 0.81051 0.407254 -0.406773 0.793786 0.452149 -0.413008 0.897978 0.151855 
-0.26835 0.866852 0.420186 -0.127108 0.926016 0.35544 -0.172307 0.939212 0.296969 
0.762491 0.445022 0.469642 0.768226 0.420279 0.482903 0.786162 0.474837 0.395575 
-0.188571 0.940754 0.281821 -0.261826 0.937856 0.227757 -0.466231 0.851291 0.24069 
0.773765 0.342544 0.532871 -0.608199 0.764256 0.214493 -0.732166 0.644001 0.221802 
0.782037 0.340833 0.521777 0.79275 0.351067 0.498297 0.86189 0.35771 0.359429 
-0.883986 0.40147 0.239564 0.79406 0.375077 0.478316 -0.979909 0.0605715 0.190026 
0.873645 0.253086 0.415562 -0.956979 -0.222142 0.186664 0.916399 0.0133432 0.400044 
0.998187 -0.0407782 -0.0442669 -0.901865 -0.408441 0.140766 -0.874296 -0.471512 0.11525 
0.917984 -0.21395 0.333961 -0.818401 -0.563342 0.113427 -0.709167 -0.703602 0.0450173 
0.854103 -0.477508 0.206139 0.796927 -0.578456 0.174058 -0.662641 -0.748535 0.0245333 
-0.561043 -0.82775 0.00783171 0.723182 -0.666801 0.179959 0.58128 -0.801443 0.140722 
-0.106909 -0.987817 -0.113086 0.262529 -0.949575 -0.171421 -0.433829 -0.898983 -0.0601777 
-0.494305 -0.86884 -0.0278978 -0.473746 -0.880108 -0.0312141 -0.428413 -0.859262 -0.279519 
0.408696 -0.90458 0.121257 0.358591 -0.92488 0.126527 0.362574 -0.905379 -0.220974 
0.0819021 -0.995654 0.0443319 -0.119315 -0.992856 -0.000682489 -0.172246 -0.910743 -0.375337 
-0.250835 -0.966077 -0.0614666 -0.293362 -0.95493 -0.0452564 -0.300477 -0.943491 -0.139777 
0.257115 -0.952127 -0.165365 0.231036 -0.96577 -0.11794 0.293604 -0.888701 -0.352146 
-0.044524 -0.994626 -0.0934755 -0.024799 -0.894903 -0.445572 -0.355753 -0.93172 -0.0730584 
-0.300729 -0.950785 -0.0746354 -0.302481 -0.926638 -0.223266 0.514953 0.857072 0.0158587 
0.289377 0.95347 -0.0845974 0.0870009 0.982381 -0.165401 -0.0174016 0.97851 -0.205465 
-0.131604 0.958975 -0.251091 -0.204002 0.952694 -0.225292 -0.268272 0.955635 -0.12162 
-0.390718 0.92046 -0.00962436 0.624713 0.779629 0.0437152 0.771341 0.629305 0.0949077 
-0.149074 0.764053 -0.627694 -0.390909 0.920429 -0.0010206 -0.357507 0.916274 -0.180641 
-0.367577 0.929421 0.0326072 -0.221862 0.974457 -0.034788 -0.230116 0.966933 -0.109941 
0.822844 0.554099 0.126101 -0.263471 0.958293 -0.110713 -0.239836 0.927551 -0.286581 
-0.304923 0.945229 -0.116463 -0.477681 0.858482 -0.186628 0.905471 0.405126 0.126472 
0.911771 0.390377 0.127588 -0.620756 0.760325 -0.191227 -0.501278 0.667922 -0.550091 
-0.753309 0.622977 -0.210771 0.919044 0.368654 0.139472 -0.896261 0.37878 -0.230742 
-0.763131 0.388232 -0.51663 0.941762 0.334571 0.0338749 -0.981807 0.0382772 -0.185985 
0.977986 0.195931 -0.0717984 0.993436 0.0432178 -0.105908 -0.935697 -0.232783 -0.26511 
-0.751897 -0.286106 -0.593964 0.990762 -0.0496129 -0.126207 0.985893 -0.0850521 -0.144157 
0.986833 -0.0577602 -0.151079 -0.831168 -0.464166 -0.306121 -0.822531 -0.476276 -0.310813 
-0.813457 -0.463969 -0.350743 0.927985 -0.290233 -0.233686 -0.739173 -0.590089 -0.324682 
-0.669719 -0.664547 -0.331441 -0.623061 -0.557501 -0.548623 0.772163 -0.560645 -0.299068 
0.706307 -0.629918 -0.323007 0.626523 -0.580923 -0.519613 -0.403 -0.83218 -0.380877 
-0.593462 -0.730209 -0.338523 -0.511279 -0.788629 -0.341552 -0.491716 -0.701411 -0.515982 
0.608623 -0.703403 -0.367155 0.512689 -0.779865 -0.35911 0.511687 -0.613461 -0.601532 
0.332193 -0.826297 -0.454841 -0.17479 -0.878912 -0.443804 -0.301477 -0.832384 -0.465025 
-0.295587 -0.665793 -0.68509 -0.205063 -0.793622 -0.572812 -0.200826 -0.774211 -0.600222 
0.22985 -0.770749 -0.594235 0.225257 -0.752567 -0.618791 0.322135 -0.787614 -0.525255 
0.323473 -0.635721 -0.700873 -0.0231992 -0.887645 -0.459943 -0.286933 -0.843485 -0.454096 
-0.392903 -0.837282 -0.380245 -0.359774 -0.83841 -0.409427 -0.319073 -0.800262 -0.507713 
0.15273 -0.877031 -0.45551 -0.089962 -0.891573 -0.443851 0.0146315 -0.896977 -0.441836 
0.0244876 -0.876146 -0.481424 0.435013 0.82027 -0.371377 0.181186 0.859631 -0.477709 
0.0308688 0.859128 -0.510829 -0.0816779 0.81824 -0.569045 -0.16267 0.758209 -0.631393 
-0.14589 0.726403 -0.671606 0.497644 0.78783 -0.362868 0.717802 0.618786 -0.319162 
0.422076 0.76939 -0.479468 0.147455 0.717867 -0.680385 0.00785297 0.66154 -0.749869 
-0.13279 0.635172 -0.76087 -0.179497 0.639911 -0.747191 -0.145697 0.751776 -0.643122 
-0.143451 0.685267 -0.714025 -0.144355 0.753174 -0.641787 -0.230832 0.798296 -0.556273 
-0.305685 0.826178 -0.473271 -0.264093 0.856795 -0.442897 0.765595 0.560728 -0.315355 
0.689233 0.535822 -0.487702 0.302113 0.33406 -0.892822 -0.190889 0.313228 -0.930295 
-0.086348 0.369925 -0.92504 -0.0281853 0.42575 -0.904402 -0.103915 0.532866 -0.839795 
-0.225283 0.68333 -0.694483 -0.258299 0.854134 -0.451372 -0.258339 0.846059 -0.46631 
-0.235455 0.832925 -0.500797 -0.316233 0.809654 -0.494426 0.842543 0.386514 -0.375137 
0.875998 0.319291 -0.361498 0.549569 0.202616 -0.810507 -0.0383341 0.213798 -0.976125 
-0.0676839 0.480007 -0.87465 -0.184616 0.559279 -0.808161 -0.492141 0.660838 -0.566649 
-0.320418 0.636798 -0.701299 -0.503085 0.647352 -0.572574 0.888428 0.27705 -0.365975 
0.83163 0.252435 -0.494639 0.361133 0.0385664 -0.931717 -0.686044 0.368841 -0.627137 
-0.504379 0.319529 -0.802186 -0.727945 0.233901 -0.644505 0.822128 0.159059 -0.546632 
0.681423 0.0838083 -0.727076 0.285746 -0.0454951 -0.957225 -0.124165 -0.196587 -0.972593 
0.0338084 -0.257877 -0.965586 -0.461238 0.0189596 -0.887074 -0.770561 0.0327079 -0.636526 
-0.734604 -0.208001 -0.645827 -0.691341 0.0351377 -0.721674 0.755895 0.0483924 -0.652902 
0.575027 -0.0140005 -0.818015 0.214428 -0.0948756 -0.972121 0.0339178 -0.0634661 -0.997407 
-0.0870123 -0.139615 -0.986375 -0.182169 -0.163696 -0.969545 0.175977 -0.18143 -0.96753 
-0.00546567 0.0376689 -0.999275 -0.715943 -0.279139 -0.639927 -0.505427 -0.202649 -0.838735 
0.697558 -0.119826 -0.706438 0.488706 -0.129515 -0.862782 0.251921 -0.0898224 -0.96357 
0.0474143 -0.11312 -0.992449 -0.141405 -0.113797 -0.983389 -0.152373 -0.00639148 -0.988302 
0.155064 0.061821 -0.985968 -0.328416 -0.29548 -0.897126 -0.642548 -0.400307 -0.653366 
-0.592494 -0.46479 -0.657968 -0.539628 -0.371621 -0.755447 0.621749 -0.295665 -0.725266 
0.548793 -0.38619 -0.741407 0.528526 -0.286176 -0.799227 0.244924 -0.252007 -0.936218 
0.0129672 -0.258192 -0.966007 0.0200996 -0.133642 -0.990826 0.000666911 -0.0542246 -0.998529 
0.102333 0.0172342 -0.994601 0.158509 -0.270296 -0.949639 -0.0781616 -0.329148 -0.941038 
-0.0404323 -0.23773 -0.970489 0.109474 -0.199087 -0.973848 -0.226695 -0.384699 -0.894771 
-0.548596 -0.52627 -0.649679 -0.453103 -0.603556 -0.656063 -0.424435 -0.486161 -0.763873 
0.411642 -0.448215 -0.793507 0.40062 -0.433542 -0.807184 0.368478 -0.425641 -0.82647 
0.179669 -0.294801 -0.938516 0.0640916 -0.241438 -0.968297 -0.00183367 -0.272018 -0.962291 
-0.271274 -0.593348 -0.757858 -0.0791822 -0.343921 -0.935654 -0.137792 -0.716913 -0.68341 
-0.0844366 -0.663856 -0.743079 0.158799 -0.708602 -0.687507 0.092126 -0.65268 -0.752011 
0.307726 -0.605695 -0.733783 0.126998 -0.376961 -0.917481 0.0576934 -0.316588 -0.946807 
-0.0332659 -0.430041 -0.902196 -0.272812 -0.707662 -0.651758 -0.194209 -0.545985 -0.814974 
-0.392378 -0.647839 -0.652951 -0.358029 -0.671037 -0.649249 -0.346824 -0.632181 -0.692863 
0.248177 -0.564365 -0.787337 0.203395 -0.591045 -0.780575 0.207572 -0.56513 -0.798462 
0.0379682 -0.572542 -0.818996 0.0299593 -0.533013 -0.845577 -0.202808 -0.602632 -0.771818 
-0.1272 -0.600836 -0.789187 -0.119796 -0.552243 -0.825031 0.236995 -0.62948 -0.739992 
0.0294457 -0.656795 -0.753494 0.0351314 -0.597227 -0.801303 -0.204435 -0.690188 -0.694152 
-0.20261 -0.689375 -0.695494 -0.201693 -0.687429 -0.697683 0.117596 0.438977 -0.89077 
-0.00811038 0.436963 -0.899443 -0.157784 0.343864 -0.925668 0.262741 0.331079 -0.906286 
0.291772 0.280387 -0.914468 0.101501 0.346695 -0.93247 -0.0215026 0.260631 -0.965199 
-0.17566 0.279868 -0.943831 -0.156207 0.249593 -0.955669 -0.140684 0.1772 -0.974068 
0.038541 0.240612 -0.969856 -0.0108826 0.298 -0.954504 -0.0511996 0.374796 -0.925692 
0.368995 0.11698 -0.92204 0.270712 0.0748444 -0.959746 0.086008 0.0432966 -0.995353 
-0.116396 -0.0239738 -0.992913 -0.110473 -0.0237823 -0.993595 -0.0385504 0.21331 -0.976224 
-0.0976904 0.0772188 -0.992217 -0.0361445 0.214379 -0.976081 -0.038112 0.213477 -0.976204 
0.0405322 0.234051 -0.971379 0.0103162 0.248206 -0.968652 -0.062729 0.45735 -0.887071 
-0.0415004 0.359857 -0.932084 -0.0657616 0.473456 -0.878359 -0.162875 0.464669 -0.870376 
-0.259594 0.364245 -0.894392 0.276495 0.00683638 -0.960991 0.158664 -0.0391799 -0.986555 
0.00884827 -0.167009 -0.985916 -0.119817 -0.191054 -0.974239 -0.0908471 -0.172082 -0.980885 
-0.0374977 -0.202769 -0.978508 -0.0664138 -0.181409 -0.981163 0.054464 -0.0211699 -0.998291 
0.0772042 0.0498646 -0.995768 0.0235937 0.088244 -0.995819 0.0460139 0.0606972 -0.997095 
0.0627759 0.136407 -0.988662 0.000833044 0.204707 -0.978823 -0.119692 0.266145 -0.956473 
-0.313091 0.307449 -0.898582 -0.248064 0.304243 -0.919729 0.157239 -0.0833372 -0.984038 
0.0624597 -0.0835437 -0.994545 0.0895066 -0.105003 -0.990436 -0.102859 -0.190684 -0.976248 
-0.0641725 -0.162353 -0.984644 -0.0481539 -0.179333 -0.982609 0.116631 0.0421667 -0.99228 
0.137051 0.130496 -0.981931 0.0326893 -0.0853445 -0.995815 0.0738553 -0.156017 -0.984989 
0.0488243 0.00730105 -0.998781 0.0596288 -0.0544321 -0.996735 0.127909 -0.0236036 -0.991505 
0.0692636 0.0164458 -0.997463 -0.0872066 0.0362317 -0.995531 -0.40297 0.0208028 -0.914977 
-0.26764 0.0269392 -0.963142 0.247369 -0.0801701 -0.965599 0.0337986 0.0258706 -0.999094 
0.15236 0.00362057 -0.988318 0.0297755 -0.00507315 -0.999544 -0.0138685 0.0493999 -0.998683 
0.114984 -0.054948 -0.991847 0.0103625 -0.0736883 -0.997227 0.138344 -0.0795945 -0.987181 
0.0607682 -0.118465 -0.991097 -0.108648 -0.15881 -0.981313 -0.367249 -0.193658 -0.909739 
-0.299381 -0.248876 -0.921104 -0.272969 -0.186804 -0.943712 0.34558 -0.157606 -0.925059 
0.257355 -0.226067 -0.939501 0.349927 -0.179483 -0.919422 -0.0733674 -0.304843 -0.949573 
0.0102324 0.0617622 -0.998038 -0.0525394 -0.22356 -0.973273 -0.0555373 -0.218032 -0.97436 
0.0657726 -0.135801 -0.98855 0.0413056 -0.104669 -0.993649 0.0797226 -0.104271 -0.991349 
-0.011377 -0.176739 -0.984192 -0.243156 -0.263875 -0.933405 -0.187006 -0.306058 -0.933465 
-0.154019 -0.241059 -0.958211 0.0745105 -0.226371 -0.971187 0.063442 -0.241276 -0.968381 
0.067234 -0.230706 -0.970698 -0.0964266 -0.296127 -0.950269 -0.0753769 -0.294401 -0.952705 
-0.0692931 -0.277592 -0.958197 
