# vtk DataFile Version 4.2
vtk output
ASCII
DATASET POLYDATA
POINTS 506 float
-8.47682 -32.354 -17.6656 -1.77367 -32.354 -18.913 4.92947 -32.354 -18.4151 
11.6326 -32.354 -16.8357 -21.8831 -25.6509 -17.0536 -15.18 -25.6509 -19.3624 
-8.47682 -25.6509 -20.9314 -1.77367 -25.6509 -21.6991 4.92947 -25.6509 -21.4204 
11.6326 -25.6509 -20.7009 18.3358 -25.6509 -19.7662 25.0389 -25.6509 -17.5456 
-28.5862 -18.9477 -17.458 -21.8831 -18.9477 -19.8038 -15.18 -18.9477 -20.9667 
-8.47682 -18.9477 -21.846 -1.77367 -18.9477 -21.8564 4.92947 -18.9477 -21.7228 
11.6326 -18.9477 -21.9412 18.3358 -18.9477 -22.0283 25.0389 -18.9477 -20.9738 
31.742 -18.9477 -17.4591 -28.5862 -12.2446 -19.6235 -21.8831 -12.2446 -21.3098 
-15.18 -12.2446 -21.4847 -8.47682 -12.2446 -21.7927 -1.77367 -12.2446 -21.8901 
4.92947 -12.2446 -21.8635 11.6326 -12.2446 -21.9461 18.3358 -12.2446 -22.1851 
25.0389 -12.2446 -21.3869 31.742 -12.2446 -19.3709 -35.2894 -5.54145 -16.9396 
-28.5862 -5.54145 -20.2005 -21.8831 -5.54145 -21.3083 -15.18 -5.54145 -21.6251 
-8.47682 -5.54145 -22.4114 -1.77367 -5.54145 -23.1726 4.92947 -5.54145 -22.476 
11.6326 -5.54145 -21.153 18.3358 -5.54145 -21.1186 25.0389 -5.54145 -21.108 
31.742 -5.54145 -19.6443 -35.2894 1.16169 -17.1738 -28.5862 1.16169 -20.0126 
-21.8831 1.16169 -20.8234 -15.18 1.16169 -20.9859 -8.47682 1.16169 -21.6199 
-1.77367 1.16169 -21.9497 4.92947 1.16169 -20.8295 11.6326 1.16169 -19.5827 
18.3358 1.16169 -20.1265 25.0389 1.16169 -20.6951 31.742 1.16169 -19.4866 
-28.5862 7.86484 -19.4789 -21.8831 7.86484 -20.2055 -15.18 7.86484 -20.5532 
-8.47682 7.86484 -20.6345 -1.77367 7.86484 -20.2515 4.92947 7.86484 -19.637 
11.6326 7.86484 -19.8727 18.3358 7.86484 -20.5867 25.0389 7.86484 -20.4198 
31.742 7.86484 -18.9336 -28.5862 14.568 -18.3735 -21.8831 14.568 -19.4861 
-15.18 14.568 -20.1105 -8.47682 14.568 -20.5256 -1.77367 14.568 -20.4783 
4.92947 14.568 -20.4271 11.6326 14.568 -20.4891 18.3358 14.568 -20.4002 
25.0389 14.568 -19.8406 31.742 14.568 -17.5888 -21.8831 21.2711 -17.3944 
-15.18 21.2711 -17.8602 -8.47682 21.2711 -17.9736 -1.77367 21.2711 -18.6409 
4.92947 21.2711 -19.4678 11.6326 21.2711 -19.7159 18.3358 21.2711 -19.0556 
25.0389 21.2711 -17.633 -8.47682 -33.5979 -16.527 -1.77367 -34.9497 -16.527 
4.92947 -34.4062 -16.527 11.6326 -32.6686 -16.527 -21.8831 -26.4597 -16.527 
-21.8831 -32.354 -10.2562 -11.6626 -32.354 -16.527 -15.18 -30.4648 -16.527 
-15.18 -32.354 -14.7553 12.6931 -32.354 -16.527 18.3358 -30.1865 -16.527 
18.3358 -32.354 -13.5151 25.0389 -26.9516 -16.527 -22.9496 -25.6509 -16.527 
-28.5862 -20.6445 -16.527 -28.5862 -25.6509 -11.6985 26.7798 -25.6509 -16.527 
31.742 -20.5776 -16.527 31.742 -25.6509 -10.5743 -29.8933 -18.9477 -16.527 
32.8076 -18.9477 -16.527 -33.572 -12.2446 -16.527 -35.2894 -7.42965 -16.527 
-35.2894 -12.2446 -14.6796 35.8588 -12.2446 -16.527 38.4452 -12.2446 -12.8512 
-35.773 -5.54145 -16.527 36.9906 -5.54145 -16.527 38.4452 -5.54145 -15.03 
-36.1056 1.16169 -16.527 -35.2894 6.90136 -16.527 37.422 1.16169 -16.527 
38.4452 1.16169 -15.6651 -35.0595 7.86484 -16.527 -35.2894 7.86484 -16.3917 
36.1809 7.86484 -16.527 38.4452 7.86484 -14.5615 -32.7338 14.568 -16.527 
-35.2894 14.568 -14.6952 -28.5862 18.9961 -16.527 33.4504 14.568 -16.527 
31.742 16.9792 -16.527 38.4452 14.568 -11.3468 -24.9444 21.2711 -16.527 
-28.5862 21.2711 -15.3039 -21.8831 22.5268 -16.527 -15.18 22.9521 -16.527 
-8.47682 23.019 -16.527 -1.77367 24.2958 -16.527 4.92947 26.2218 -16.527 
11.6326 27.0499 -16.527 18.3358 25.6 -16.527 27.4925 21.2711 -16.527 
25.0389 22.9322 -16.527 31.742 21.2711 -13.5333 -21.8831 27.9743 -11.1055 
-15.18 27.9743 -11.0905 -8.47682 27.9743 -10.9041 -1.77367 27.9743 -12.9609 
4.92947 27.9743 -15.0934 11.6326 27.9743 -15.8192 18.3358 27.9743 -14.4451 
25.0389 27.9743 -11.0586 -21.8831 -32.6298 -9.82387 -15.18 -35.7951 -9.82387 
-8.47682 -37.7676 -9.82387 -8.47682 -39.0572 -3.243 -1.77367 -38.4761 -9.82387 
-1.77367 -39.0572 -3.73082 4.92947 -37.8595 -9.82387 11.6326 -36.218 -9.82387 
18.3358 -34.1198 -9.82387 -22.2685 -32.354 -9.82387 -28.5862 -26.9878 -9.82387 
22.7858 -32.354 -9.82387 25.0389 -31.311 -9.82387 31.742 -26.0585 -9.82387 
-29.8491 -25.6509 -9.82387 32.1389 -25.6509 -9.82387 -34.6726 -18.9477 -9.82387 
-35.2894 -17.7855 -9.82387 36.8066 -18.9477 -9.82387 38.4452 -15.5586 -9.82387 
-38.0165 -12.2446 -9.82387 39.9254 -12.2446 -9.82387 -40.218 -5.54145 -9.82387 
41.4918 -5.54145 -9.82387 -41.107 1.16169 -9.82387 -41.9925 1.16169 -4.54681 
42.1474 1.16169 -9.82387 -40.6913 7.86484 -9.82387 41.54 7.86484 -9.82387 
-38.7547 14.568 -9.82387 -35.2894 20.9862 -9.82387 39.427 14.568 -9.82387 
38.4452 16.3797 -9.82387 -35.084 21.2711 -9.82387 -35.2894 21.2711 -9.23711 
-28.5862 27.0785 -9.82387 35.0084 21.2711 -9.82387 31.742 24.5561 -9.82387 
-25.6038 27.9743 -9.82387 -28.5862 27.9743 -8.08045 -21.8831 28.919 -9.82387 
-15.18 28.9583 -9.82387 -8.47682 28.8293 -9.82387 -1.77367 30.4782 -9.82387 
4.92947 32.2743 -9.82387 11.6326 32.5622 -9.82387 18.3358 31.3519 -9.82387 
26.613 27.9743 -9.82387 25.0389 28.8049 -9.82387 4.92947 34.6774 -4.68637 
11.6326 34.6774 -3.55493 -8.47682 -39.0796 -3.12073 -1.77367 -39.1141 -3.12073 
-21.8831 -34.4601 -3.12073 -8.5953 -39.0572 -3.12073 -15.18 -37.7131 -3.12073 
-8.47682 -39.0572 -2.87628 -1.3823 -39.0572 -3.12073 -1.77367 -39.0572 -2.78118 
4.92947 -38.11 -3.12073 11.6326 -36.465 -3.12073 18.3358 -34.4498 -3.12073 
-24.7115 -32.354 -3.12073 -28.5862 -28.4107 -3.12073 23.6462 -32.354 -3.12073 
25.0389 -31.7015 -3.12073 31.742 -26.3071 -3.12073 -30.7845 -25.6509 -3.12073 
32.3661 -25.6509 -3.12073 31.742 -25.6509 -1.09318 -34.8208 -18.9477 -3.12073 
-35.2894 -18.0791 -3.12073 37.0155 -18.9477 -3.12073 38.4452 -16.3125 -3.12073 
-38.2054 -12.2446 -3.12073 40.4468 -12.2446 -3.12073 -40.8612 -5.54145 -3.12073 
-41.9925 0.0708173 -3.12073 42.3557 -5.54145 -3.12073 -42.209 1.16169 -3.12073 
-41.9925 3.74355 -3.12073 -41.9925 1.16169 -0.134594 43.1527 1.16169 -3.12073 
-41.6513 7.86484 -3.12073 42.6443 7.86484 -3.12073 -39.8685 14.568 -3.12073 
40.8131 14.568 -3.12073 38.4452 18.9168 -3.12073 -36.8584 21.2711 -3.12073 
-35.2894 23.4748 -3.12073 36.9251 21.2711 -3.12073 31.742 26.459 -3.12073 
-31.2325 27.9743 -3.12073 -28.5862 29.8717 -3.12073 -21.8831 32.3797 -3.12073 
-15.18 32.805 -3.12073 -8.47682 33.3399 -3.12073 -1.77367 34.5652 -3.12073 
18.3358 33.3212 -3.12073 29.6548 27.9743 -3.12073 25.0389 30.6776 -3.12073 
-15.18 34.6774 2.65458 -8.47682 34.6774 0.229083 -0.845238 34.6774 -3.12073 
-1.77367 34.6774 -2.77907 4.92947 35.3072 -3.12073 12.248 34.6774 -3.12073 
11.6326 34.8089 -3.12073 -21.8831 -33.8002 3.58241 -15.18 -37.3316 3.58241 
-8.47682 -38.4422 3.58241 -1.77367 -37.9068 3.58241 4.92947 -36.3278 3.58241 
11.6326 -34.4803 3.58241 18.3358 -32.6677 3.58241 -23.6949 -32.354 3.58241 
-28.5862 -26.8133 3.58241 -21.8831 -32.354 6.46458 4.92947 -32.354 10.076 
11.6326 -32.354 7.03573 19.1006 -32.354 3.58241 18.3358 -32.354 4.0898 
25.0389 -29.4897 3.58241 -29.4267 -25.6509 3.58241 -28.5862 -25.6509 5.16402 
29.8528 -25.6509 3.58241 25.0389 -25.6509 8.54572 31.742 -23.8004 3.58241 
-33.3603 -18.9477 3.58241 -35.2894 -15.8212 3.58241 35.3477 -18.9477 3.58241 
31.742 -18.9477 9.04285 38.4452 -13.685 3.58241 -37.2758 -12.2446 3.58241 
39.2057 -12.2446 3.58241 38.4452 -12.2446 5.31909 -40.3721 -5.54145 3.58241 
41.5081 -5.54145 3.58241 -41.7223 1.16169 3.58241 42.4104 1.16169 3.58241 
-41.1645 7.86484 3.58241 41.8531 7.86484 3.58241 -39.141 14.568 3.58241 
39.9576 14.568 3.58241 38.4452 17.407 3.58241 38.4452 14.568 6.91036 
-36.1104 21.2711 3.58241 -35.2894 22.567 3.58241 -35.2894 21.2711 5.41699 
36.0622 21.2711 3.58241 31.742 25.9085 3.58241 -31.0834 27.9743 3.58241 
-28.5862 29.9919 3.58241 -28.5862 27.9743 9.14036 -21.8831 33.6327 3.58241 
18.3358 33.3944 3.58241 29.1428 27.9743 3.58241 25.0389 30.497 3.58241 
-16.6692 34.6774 3.58241 -15.18 34.9762 3.58241 -8.47682 35.9105 3.58241 
-1.77367 36.6023 3.58241 4.92947 36.4857 3.58241 13.9381 34.6774 3.58241 
11.6326 35.3137 3.58241 11.6326 34.6774 8.3907 -15.18 -34.1103 10.2856 
-8.47682 -35.0224 10.2856 -1.77367 -34.0534 10.2856 -18.3375 -32.354 10.2856 
-21.8831 -29.7852 10.2856 -15.18 -32.354 12.1954 -8.47682 -32.354 13.0656 
4.40299 -32.354 10.2856 -1.77367 -32.354 12.0787 4.92947 -32.1755 10.2856 
11.6326 -29.7447 10.2856 18.3358 -27.3774 10.2856 -25.4876 -25.6509 10.2856 
-28.5862 -21.6041 10.2856 -21.8831 -25.6509 13.6298 -15.18 -25.6509 16.5952 
4.92947 -25.6509 15.3864 11.6326 -25.6509 13.6291 21.9378 -25.6509 10.2856 
18.3358 -25.6509 11.7311 25.0389 -23.8024 10.2856 -30.4514 -18.9477 10.2856 
-35.2894 -12.323 10.2856 -28.5862 -18.9477 12.7314 18.3358 -18.9477 15.4736 
30.3825 -18.9477 10.2856 25.0389 -18.9477 13.4037 31.742 -17.4716 10.2856 
-35.3418 -12.2446 10.2856 -35.2894 -12.2446 10.382 25.0389 -12.2446 16.4392 
35.3963 -12.2446 10.2856 31.742 -12.2446 13.3412 38.4452 -5.83878 10.2856 
-38.8046 -5.54145 10.2856 -35.2894 -5.54145 15.904 31.742 -5.54145 16.3502 
38.5544 -5.54145 10.2856 38.4452 -5.54145 10.4283 -39.9443 1.16169 10.2856 
-35.2894 1.16169 16.6521 39.6276 1.16169 10.2856 38.4452 1.16169 11.8545 
-38.9547 7.86484 10.2856 -35.2894 7.86484 14.6683 38.9388 7.86484 10.2856 
38.4452 9.47178 10.2856 38.4452 7.86484 10.9465 -36.5053 14.568 10.2856 
-35.2894 16.9645 10.2856 -35.2894 14.568 12.0083 36.6328 14.568 10.2856 
31.742 14.568 15.2713 -32.9419 21.2711 10.2856 -28.5862 27.3447 10.2856 
-28.5862 21.2711 15.4474 32.6258 21.2711 10.2856 31.742 22.2998 10.2856 
31.742 21.2711 11.3276 -28.0155 27.9743 10.2856 -21.8831 32.7472 10.2856 
11.6326 34.4177 10.2856 18.3358 31.9302 10.2856 18.3358 27.9743 16.8916 
25.5067 27.9743 10.2856 25.0389 28.2895 10.2856 25.0389 27.9743 10.7914 
-16.9325 34.6774 10.2856 -15.18 35.2614 10.2856 -15.18 34.6774 12.0014 
-8.47682 36.59 10.2856 -8.47682 34.6774 16.3813 -1.77367 36.954 10.2856 
10.7059 34.6774 10.2856 4.92947 36.2248 10.2856 4.92947 34.6774 14.9752 
[...]
POINT_DATA 506
SCALARS ImageScalars float
LOOKUP_TABLE default
0 0 0 0 0 0 0 0 0 
0 0 0 0 0 0 0 0 0 
0 0 0 0 0 0 0 0 0 
0 0 0 0 0 0 0 0 0 
0 0 0 0 0 0 0 0 0 
0 0 0 0 0 0 0 0 0 
0 0 0 0 0 0 0 0 0 
0 0 0 0 0 0 0 0 0 
0 0 0 0 0 0 0 0 0 
0 0 0 0 0 0 0 0 0 
0 0 0 0 0 0 0 0 0 
0 0 0 0 0 0 0 0 0 
0 0 0 0 0 0 0 0 0 
0 0 0 0 0 0 0 0 0 
0 0 0 0 0 0 0 0 0 
0 0 0 0 0 0 0 0 0 
0 0 0 0 0 0 0 0 0 
0 0 0 0 0 0 0 0 0 
0 0 0 0 0 0 0 0 0 
0 0 0 0 0 0 0 0 0 
0 0 0 0 0 0 0 0 0 
0 0 0 0 0 0 0 0 0 
0 0 0 0 0 0 0 0 0 
0 0 0 0 0 0 0 0 0 
0 0 0 0 0 0 0 0 0 
0 0 0 0 0 0 0 0 0 
0 0 0 0 0 0 0 0 0 
0 0 0 0 0 0 0 0 0 
0 0 0 0 0 0 0 0 0 
0 0 0 0 0 0 0 0 0 
0 0 0 0 0 0 0 0 0 
0 0 0 0 0 0 0 0 0 
0 0 0 0 0 0 0 0 0 
0 0 0 0 0 0 0 0 0 
0 0 0 0 0 0 0 0 0 
0 0 0 0 0 0 0 0 0 
0 0 0 0 0 0 0 0 0 
0 0 0 0 0 0 0 0 0 
0 0 0 0 0 0 0 0 0 
0 0 0 0 0 0 0 0 0 
0 0 0 0 0 0 0 0 0 
0 0 0 0 0 0 0 0 0 
0 0 0 0 0 0 0 0 0 
0 0 0 0 0 0 0 0 0 
0 0 0 0 0 0 0 0 0 
0 0 0 0 0 0 0 0 0 
0 0 0 0 0 0 0 0 0 
0 0 0 0 0 0 0 0 0 
0 0 0 0 0 0 0 0 0 
0 0 0 0 0 0 0 0 0 
0 0 0 0 0 0 0 0 0 
0 0 0 0 0 0 0 0 0 
0 0 0 0 0 0 0 0 0 
0 0 0 0 0 0 0 0 0 
0 0 0 0 0 0 0 0 0 
0 0 0 0 0 0 0 0 0 
0 0 
NORMALS Normals float
0.229662 0.608881 0.759289 0.0473603 0.570637 0.819835 -0.132624 0.5993 0.789462 
-0.219803 0.696309 0.683257 0.376036 0.485751 0.789077 0.257195 0.363183 0.895516 
0.164645 0.270901 0.948422 0.0339038 0.186904 0.981793 -0.0719292 0.207775 0.975528 
-0.109619 0.322153 0.94032 -0.209922 0.43957 0.873333 -0.387432 0.556347 0.735102 
0.484386 0.380807 0.787627 0.237928 0.280245 0.929975 0.14654 0.147114 0.978204 
0.0663984 0.0590494 0.996044 -0.00919017 0.01348 0.999867 0.00608793 0.0315753 0.999483 
0.0226322 0.0917329 0.995526 -0.0608545 0.15233 0.986454 -0.291851 0.241287 0.925529 
-0.591922 0.366859 0.717665 0.369359 0.188723 0.909922 0.119948 0.10876 0.986805 
0.0353857 0.0496767 0.998138 0.0301552 0.0419467 0.998665 0.00526417 0.0966844 0.995301 
0.00417904 0.0551201 0.998471 0.0240635 -0.0576426 0.998047 -0.040051 -0.0660875 0.99701 
-0.198399 0.00609321 0.980102 -0.447036 0.142516 0.88309 0.626134 0.109294 0.772018 
0.288725 0.0222127 0.957154 0.106797 -0.0360722 0.993626 0.0815475 -0.0369609 0.995984 
0.114514 -0.0110686 0.99336 0.00557879 0.0135246 0.999893 -0.1489 -0.0644339 0.986751 
-0.0996236 -0.175345 0.979454 -0.0033022 -0.154112 0.988048 -0.101681 -0.0510631 0.993506 
-0.360151 0.00790453 0.932861 0.569312 -0.0316427 0.821512 0.245369 -0.0501629 0.968131 
0.0732489 -0.0817565 0.993957 0.0577667 -0.079759 0.995139 0.0707213 -0.135065 0.98831 
-0.0534129 -0.22814 0.972162 -0.176502 -0.221686 0.959011 -0.0429516 -0.0936811 0.994675 
0.0818238 -0.0373271 0.995948 -0.0426321 -0.0515856 0.997758 -0.316032 -0.0501051 0.947425 
0.240988 -0.122069 0.962821 0.0749558 -0.0968425 0.992473 0.0317987 -0.0643547 0.99742 
-0.0224061 -0.0786992 0.996647 -0.0740945 -0.0965754 0.992564 -0.0283816 -0.0202965 0.999391 
0.0707286 0.067195 0.99523 0.0408121 0.0204767 0.998957 -0.11471 -0.0631041 0.991393 
-0.346976 -0.130547 0.928744 0.284923 -0.256113 0.923702 0.126432 -0.193143 0.972991 
0.0749267 -0.183977 0.980071 0.0266953 -0.174008 0.984382 -0.00722034 -0.105111 0.994434 
0.000822551 -0.00845397 0.999964 -0.00197807 -0.00736271 0.999971 -0.0479273 -0.108737 0.992915 
-0.191436 -0.188605 0.963214 -0.442962 -0.2871 0.849328 0.155909 -0.463283 0.872389 
0.0400731 -0.517443 0.854779 0.0540024 -0.547436 0.835103 0.10506 -0.442833 0.890428 
0.0741034 -0.330369 0.940938 -0.0302612 -0.293991 0.955329 -0.141003 -0.35368 0.924678 
-0.301051 -0.460319 0.83515 0.230298 0.668583 0.707078 0.0474761 0.731108 0.680608 
-0.142601 0.720574 0.678556 -0.223637 0.711118 0.666557 0.388889 0.514743 0.764071 
0.496366 0.768691 0.403405 0.27655 0.639276 0.717528 0.310391 0.583896 0.750149 
0.335178 0.696208 0.634783 -0.233695 0.710827 0.663409 -0.284338 0.676527 0.679311 
-0.318625 0.835108 0.448412 -0.40679 0.61085 0.679252 0.409036 0.507848 0.758143 
0.5156 0.43679 0.737138 0.648434 0.643189 0.407235 -0.457046 0.580085 0.674248 
-0.609304 0.434927 0.663014 -0.693439 0.672986 0.257356 0.543464 0.401819 0.737013 
-0.633485 0.388794 0.668982 0.627601 0.280557 0.726226 0.653479 0.164136 0.738935 
0.759604 0.326403 0.56255 -0.66855 0.222431 0.709623 -0.851677 0.293245 0.434344 
0.650459 0.115856 0.750653 -0.648698 0.0745189 0.757388 -0.767949 0.108135 0.631318 
0.612063 -0.0295869 0.790255 0.575005 -0.119223 0.809417 -0.619814 -0.0308897 0.784141 
-0.702838 -0.0242448 0.710937 0.563641 -0.134106 0.815061 0.578749 -0.135219 0.804218 
-0.566403 -0.167275 0.806974 -0.736719 -0.18955 0.649088 0.489502 -0.290233 0.822285 
0.6636 -0.322319 0.675089 0.343201 -0.422212 0.839017 -0.512356 -0.309965 0.800883 
-0.478445 -0.375309 0.793872 -0.805296 -0.38125 0.454033 0.256344 -0.488627 0.833986 
0.38581 -0.522397 0.760428 0.149645 -0.524469 0.838176 0.0241699 -0.603995 0.796621 
0.0652236 -0.625169 0.77776 0.154046 -0.581454 0.798863 0.124628 -0.57823 0.806299 
-0.0268741 -0.603004 0.797285 -0.177605 -0.567532 0.803967 -0.383022 -0.493174 0.781072 
-0.319867 -0.530273 0.785173 -0.56294 -0.574666 0.594019 0.107873 -0.807669 0.579685 
-0.00962761 -0.796288 0.604841 0.0895728 -0.77975 0.61965 0.206093 -0.732349 0.648992 
0.140848 -0.674697 0.724532 -0.0292928 -0.661853 0.749061 -0.212543 -0.718144 0.662642 
-0.387524 -0.792283 0.471289 0.497617 0.778131 0.383261 0.33653 0.852414 0.400173 
0.175386 0.926753 0.332217 0.0981697 0.993886 0.0505231 0.00532822 0.966982 0.254789 
-0.0634488 0.997917 -0.0116289 -0.162837 0.961995 0.219204 -0.262948 0.937475 0.228031 
-0.332608 0.914686 0.229612 0.507678 0.772088 0.382286 0.66934 0.673338 0.314005 
-0.425014 0.875156 0.231223 -0.48208 0.844131 0.23461 -0.6949 0.685897 0.216009 
0.699567 0.648491 0.300109 -0.707404 0.673101 0.215673 0.833256 0.498995 0.238094 
0.84936 0.472746 0.234731 -0.848849 0.475442 0.231108 -0.887227 0.391681 0.24375 
0.899218 0.364619 0.241785 -0.914564 0.312119 0.257204 0.933609 0.205276 0.293659 
-0.937171 0.158426 0.310823 0.936123 0.0343689 0.34999 0.993474 0.053314 0.10083 
-0.940232 0.00424858 0.340509 0.922098 -0.155717 0.354242 -0.91694 -0.18287 0.354654 
0.861553 -0.351766 0.366042 0.736602 -0.538041 0.409792 -0.846023 -0.387062 0.366645 
-0.819506 -0.440185 0.366945 0.726506 -0.547827 0.414819 0.74644 -0.546453 0.379759 
0.387712 -0.772293 0.503232 -0.696032 -0.607555 0.382644 -0.596382 -0.701958 0.389336 
0.260845 -0.814354 0.518447 0.408687 -0.81466 0.411465 0.11393 -0.833706 0.540328 
-0.005295 -0.814872 0.579616 0.0910359 -0.792154 0.603493 0.209726 -0.791727 0.573745 
0.12822 -0.84472 0.519622 -0.0623112 -0.885906 0.459661 -0.238863 -0.870659 0.429998 
-0.438089 -0.802833 0.404399 -0.395397 -0.822636 0.408572 0.0401596 -0.943581 0.328698 
-0.135403 -0.970746 0.198287 0.0968976 0.994247 0.0456429 -0.0698692 0.996865 -0.0371198 
0.532472 0.843282 0.0731365 0.10049 0.993854 0.0464241 0.310283 0.945992 0.0939328 
0.0949275 0.994861 0.035218 -0.0769151 0.996214 -0.0405205 -0.0734549 0.996029 -0.0503143 
-0.192905 0.976018 -0.10088 -0.26297 0.95801 -0.114294 -0.329411 0.939484 -0.0941157 
0.626539 0.777124 0.0593859 0.767703 0.640773 0.00644525 -0.453172 0.88593 -0.0988103 
-0.49346 0.863956 -0.100384 -0.711092 0.695164 -0.105331 0.816504 0.576658 -0.0280587 
-0.727705 0.677672 -0.105856 -0.707389 0.682081 -0.18538 0.873981 0.479181 -0.0808884 
0.879529 0.469731 -0.0760431 -0.860089 0.50267 -0.0870049 -0.892086 0.446352 -0.0703705 
0.912175 0.406803 -0.0494749 -0.932049 0.359137 -0.0480071 0.960505 0.278163 0.00746555 
0.995132 0.092768 0.0332694 -0.979442 0.201716 -0.00178409 0.997602 0.0569233 0.0393705 
0.999003 -0.0290714 0.0338762 0.997137 0.0589946 -0.0472922 -0.999703 0.0199072 0.0140777 
0.985905 -0.165158 0.0267115 -0.987135 -0.159032 0.0165162 0.944142 -0.328925 0.0201247 
-0.919977 -0.390634 0.0323697 -0.85234 -0.521864 0.0342619 0.855223 -0.515119 0.0569695 
0.806959 -0.585896 0.0744583 -0.794105 -0.606163 0.044312 -0.632078 -0.77236 0.0627403 
0.591388 -0.792688 0.148003 0.469279 -0.865027 0.177499 0.207705 -0.930481 0.301768 
0.0623901 -0.913077 0.402987 0.11607 -0.883516 0.453792 0.131747 -0.911058 0.39066 
-0.290876 -0.947411 0.133426 -0.560721 -0.824518 0.0759111 -0.433262 -0.895698 0.100048 
0.148794 -0.967731 0.203365 0.118594 -0.934326 0.336111 0.115398 -0.919833 0.374954 
0.12696 -0.916629 0.379041 0.0158059 -0.960308 0.278492 -0.153225 -0.971958 0.178379 
-0.139707 -0.973199 0.182665 0.5646 0.791005 -0.235667 0.29301 0.931568 -0.215235 
0.0386963 0.966922 -0.25212 -0.142884 0.937871 -0.316199 -0.233528 0.896609 -0.376241 
-0.243818 0.882261 -0.402702 -0.30538 0.863133 -0.402176 0.624723 0.741282 -0.245402 
0.785042 0.552738 -0.279626 0.563233 0.733274 -0.380891 -0.234926 0.728492 -0.643513 
-0.246809 0.806491 -0.537269 -0.323691 0.856639 -0.401739 -0.303515 0.853014 -0.424553 
-0.486546 0.778437 -0.396622 0.800015 0.528021 -0.284905 0.776957 0.528855 -0.341542 
-0.626137 0.676774 -0.387206 -0.451591 0.640846 -0.620791 -0.683786 0.627095 -0.37308 
0.833455 0.488251 -0.258774 0.845964 0.485342 -0.220882 -0.782992 0.520575 -0.340477 
-0.61676 0.516217 -0.594244 -0.855303 0.427291 -0.293051 0.866654 0.465371 -0.179837 
-0.870307 0.401211 -0.285648 -0.840993 0.408284 -0.355013 0.943768 0.301081 -0.136571 
-0.942538 0.224167 -0.247732 0.985923 0.0598732 -0.156109 -0.971815 0.0239426 -0.234527 
0.968595 -0.182529 -0.168841 -0.955626 -0.16467 -0.244261 0.916603 -0.335261 -0.217806 
-0.889019 -0.381206 -0.253627 -0.852897 -0.461173 -0.244716 -0.842159 -0.371346 -0.390986 
0.845354 -0.479935 -0.234606 0.827752 -0.514295 -0.224337 0.826837 -0.474124 -0.302567 
-0.779679 -0.582918 -0.228708 -0.656416 -0.729013 -0.194056 0.665735 -0.728256 -0.162608 
0.574732 -0.80906 -0.122907 0.64969 -0.660619 -0.376146 0.330397 -0.943416 0.0283607 
-0.336048 -0.937461 -0.0907686 -0.571075 -0.803198 -0.169549 -0.461299 -0.875229 -0.145527 
0.199352 -0.969755 0.140835 0.164127 -0.971246 0.172464 0.114052 -0.96751 0.225647 
0.0402307 -0.984141 0.172765 -0.0939567 -0.993299 0.0673049 -0.259087 -0.964678 -0.047636 
-0.220333 -0.975075 -0.026095 -0.272324 -0.947011 -0.17032 0.271777 0.760636 -0.589551 
-0.00411295 0.789071 -0.614288 -0.168981 0.757172 -0.63098 0.401957 0.701186 -0.588871 
0.538 0.616386 -0.575 0.268512 0.685538 -0.676711 -0.00874574 0.68423 -0.729214 
-0.229218 0.723738 -0.650894 -0.165948 0.695992 -0.698611 -0.234062 0.719874 -0.65345 
-0.237946 0.686943 -0.686652 -0.280589 0.638827 -0.716359 0.638539 0.529161 -0.5588 
0.701284 0.525167 -0.48208 0.491093 0.507681 -0.707875 0.229022 0.427231 -0.874656 
-0.211567 0.526146 -0.823656 -0.222901 0.546727 -0.807097 -0.358221 0.606838 -0.709525 
-0.274247 0.580643 -0.766578 -0.417486 0.575169 -0.703481 0.716718 0.531251 -0.451759 
0.783145 0.509254 -0.356852 0.647961 0.525534 -0.551326 -0.235471 0.384752 -0.892479 
-0.550371 0.504809 -0.665027 -0.357661 0.45154 -0.817429 -0.584358 0.489723 -0.647068 
0.784044 0.508505 -0.355947 0.78218 0.508672 -0.359787 -0.277988 0.352007 -0.893764 
-0.679182 0.41677 -0.604164 -0.515782 0.409565 -0.75248 -0.801591 0.238763 -0.548127 
0.886649 0.288187 -0.361665 0.71393 0.228714 -0.661811 -0.456563 0.262111 -0.850205 
-0.804761 0.230752 -0.546912 -0.800378 0.230866 -0.55326 0.9138 0.0165267 -0.405828 
0.648723 -0.0693113 -0.757862 -0.845651 0.0238387 -0.533204 -0.798971 0.0256679 -0.600821 
0.855845 -0.231328 -0.46262 0.682656 -0.233586 -0.692401 -0.827415 -0.176578 -0.533108 
-0.815579 -0.219009 -0.535598 -0.809401 -0.17675 -0.560026 0.80124 -0.358543 -0.479022 
0.782284 -0.39026 -0.485519 0.756821 -0.348864 -0.552735 -0.761856 -0.353219 -0.542966 
-0.600545 -0.29677 -0.742477 0.750982 -0.442295 -0.490308 0.660966 -0.615413 -0.429408 
0.627986 -0.364484 -0.687593 -0.692769 -0.526545 -0.49277 -0.673632 -0.55684 -0.485952 
-0.671515 -0.51528 -0.532498 0.647638 -0.63927 -0.414607 0.462566 -0.838945 -0.286714 
-0.292751 -0.928281 -0.229329 -0.396594 -0.859334 -0.32289 -0.434173 -0.631544 -0.642375 
-0.5209 -0.751535 -0.404795 -0.511179 -0.76053 -0.400362 -0.514266 -0.746683 -0.421894 
0.301525 -0.938513 -0.168156 0.256859 -0.956362 -0.139268 0.275282 -0.93201 -0.235746 
0.120814 -0.9881 -0.0951909 0.136751 -0.872241 -0.469568 -0.0265272 -0.993043 -0.114725 
-0.275892 -0.936039 -0.218436 -0.177996 -0.969336 -0.169423 -0.19562 -0.895031 -0.400815 
0.0192954 0.455177 -0.890192 -0.132777 0.476067 -0.869327 0.352673 0.429244 -0.831487 
0.142392 0.427143 -0.892901 0.218087 0.408908 -0.886133 0.0241342 0.42582 -0.904486 
-0.132889 0.476045 -0.869322 -0.13275 0.475969 -0.869385 -0.205321 0.461557 -0.863023 
-0.229715 0.373284 -0.898827 0.371844 0.435784 -0.819649 0.502568 0.458623 -0.732864 
0.335353 0.419723 -0.843428 0.166763 0.313993 -0.934665 0.049243 0.280749 -0.958517 
-0.0707022 0.324818 -0.94313 -0.196182 0.381707 -0.903223 -0.22991 0.368559 -0.900725 
-0.230381 0.368076 -0.900802 -0.207026 0.330703 -0.920747 0.528264 0.451131 -0.719318 
0.472084 0.427875 -0.770753 0.197587 0.294656 -0.934953 0.0688329 0.200856 -0.977199 
0.0337755 0.162178 -0.986183 -0.0271576 0.144636 -0.989112 -0.159608 0.204036 -0.965865 
-0.23423 0.292176 -0.927238 -0.241078 0.333403 -0.911441 -0.193294 0.310763 -0.930625 
-0.266591 0.328341 -0.906158 0.639899 0.208557 -0.739617 0.356271 0.134766 -0.924613 
0.130919 0.0798212 -0.988174 0.0331047 0.079272 -0.996303 -0.00481408 0.117451 -0.993067 
-0.0264345 0.0596549 -0.997869 -0.0479804 0.0722639 -0.996231 -0.127699 0.225485 -0.965841 
-0.179863 0.278412 -0.94347 -0.396203 0.260123 -0.880545 -0.248994 0.255251 -0.934264 
-0.459404 0.166364 -0.872508 0.619266 -0.0730138 -0.781779 0.320441 -0.0827157 -0.94365 
0.148172 -0.0508491 -0.987654 0.104182 0.0522787 -0.993183 0.0155287 0.126978 -0.991784 
-0.0740206 0.084084 -0.993706 0.00419648 0.0325939 -0.99946 -0.0280839 0.0898894 -0.995556 
-0.165793 0.131474 -0.977357 -0.283618 0.101601 -0.95354 -0.508802 0.0522673 -0.859296 
-0.470255 0.0565863 -0.880715 0.523272 -0.207707 -0.826465 0.375031 -0.172459 -0.910829 
0.264555 -0.0598082 -0.962514 0.207241 0.0706431 -0.975736 -0.122062 0.101195 -0.98735 
-0.0383011 0.0854466 -0.995606 -0.0252428 0.0305465 -0.999215 -0.164113 -0.00267047 -0.986438 
-0.329269 -0.0560683 -0.94257 -0.522509 -0.139556 -0.841135 -0.521906 -0.160142 -0.837835 
-0.509679 -0.136804 -0.849418 0.528961 -0.242832 -0.813162 0.541586 -0.274178 -0.794676 
0.486074 -0.217446 -0.846433 0.377637 -0.0798761 -0.922502 0.252762 0.00861976 -0.96749 
-0.0656904 0.0869757 -0.994042 -0.115168 0.00112605 -0.993345 -0.251802 -0.097032 -0.962902 
-0.517018 -0.2476 -0.819382 -0.404034 -0.184759 -0.895891 0.571963 -0.314082 -0.757767 
0.470608 -0.226443 -0.852791 0.290739 -0.163021 -0.942812 -0.106115 -0.0691758 -0.991945 
-0.203677 -0.175491 -0.963182 -0.433746 -0.62443 -0.649577 -0.353158 -0.283542 -0.891562 
-0.508319 -0.40639 -0.759248 -0.503413 -0.419863 -0.755176 -0.499157 -0.401006 -0.768138 
0.528362 -0.51224 -0.677084 0.526068 -0.516429 -0.675688 0.525942 -0.510542 -0.680244 
0.333863 -0.732809 -0.592897 0.333836 -0.472121 -0.815877 0.13828 -0.84621 -0.514594 
0.145287 -0.416907 -0.897262 -0.0235377 -0.366487 -0.930125 -0.201489 -0.823217 -0.530769 
-0.180488 -0.407854 -0.89503 -0.432206 -0.628263 -0.646903 -0.340933 -0.733022 -0.588594 
-0.319329 -0.531627 -0.784476 0.0457311 -0.861262 -0.5061 -0.0695346 -0.861244 -0.503412 
-0.03605 -0.864739 -0.500926 -0.0356129 -0.855774 -0.516122 0.0233126 0.105568 -0.994139 
0.0621738 0.0925131 -0.993768 -0.0164382 0.0987019 -0.994981 0.0260708 0.0973138 -0.994912 
-0.0935587 0.0750962 -0.992778 0.165951 0.013316 -0.986044 0.0430189 0.0186095 -0.998901 
-0.0834691 0.0731104 -0.993825 -0.0878983 0.069883 -0.993675 0.159383 -0.140008 -0.977238 
0.101228 -0.207869 -0.972905 0.0823958 -0.129554 -0.988143 -0.0852514 -0.0640265 -0.9943 
-0.0431016 -0.156944 -0.986667 -0.0532577 -0.0608957 -0.996722 
