# vtk DataFile Version 4.2
vtk output
ASCII
DATASET POLYDATA
POINTS 560 float
-36.8724 -12.7962 -21.3785 -36.8724 -35.7631 -13.8425 -29.2168 -35.7631 -15.9961 
-21.5612 -35.7631 -15.8776 -13.9055 -35.7631 -14.9365 -44.528 -28.1075 -14.1585 
-36.8724 -28.1075 -18.4966 -29.2168 -28.1075 -18.8152 -21.5612 -28.1075 -19.0112 
-13.9055 -28.1075 -17.4968 -6.24991 -28.1075 -15.9275 1.40572 -28.1075 -13.7745 
-44.528 -20.4519 -18.0128 -36.8724 -13.8072 -21.1618 -36.8724 -20.4519 -19.7456 
-29.2168 -20.4519 -20.0511 -21.5612 -20.4519 -19.1817 -13.9055 -20.4519 -17.3973 
-6.24991 -20.4519 -16.347 1.40572 -20.4519 -15.025 9.06134 -20.4519 -14.0411 
16.717 -20.4519 -14.811 24.3726 -20.4519 -16.4717 32.0282 -20.4519 -17.2063 
39.6838 -20.4519 -17.8411 47.3395 -20.4519 -16.1235 -52.1837 -12.7962 -15.1237 
-38.7575 -12.7962 -21.1618 -44.528 -12.7962 -20.3795 -34.9912 -12.7962 -21.1618 
-36.8724 -7.89149 -21.1618 -29.2168 -12.7962 -20.5225 -21.5612 -12.7962 -18.9789 
-13.9055 -12.7962 -16.4996 -6.24991 -12.7962 -15.2536 1.40572 -12.7962 -15.6065 
9.06134 -12.7962 -14.177 16.717 -12.7962 -15.8726 24.3726 -12.7962 -17.7301 
32.0282 -12.7962 -19.3876 39.6838 -12.7962 -18.9163 47.3395 -12.7962 -17.9755 
54.9951 -12.7962 -15.8159 -52.1837 -5.14062 -16.5536 -44.528 -5.14062 -19.891 
-36.8724 -5.14062 -21.0454 -29.2168 -5.14062 -20.5939 -21.5612 -5.14062 -19.2756 
-13.9055 -5.14062 -17.6151 -6.24991 -5.14062 -18.0703 1.40572 -5.14062 -16.7697 
9.06134 -5.14062 -17.4463 16.717 -5.14062 -15.7221 24.3726 -5.14062 -17.5674 
32.0282 -5.14062 -18.7569 39.6838 -5.14062 -19.4387 47.3395 -5.14062 -19.5978 
54.9951 -5.14062 -16.6387 -52.1837 2.51501 -16.3907 -44.528 2.51501 -19.4009 
-36.8724 2.51501 -20.5179 -29.2168 2.51501 -20.634 -21.5612 2.51501 -19.3422 
-13.9055 2.51501 -19.8783 -6.24991 2.51501 -19.4653 9.06134 2.51501 -19.1433 
16.717 2.51501 -16.1899 24.3726 2.51501 -17.3014 32.0282 2.51501 -18.5514 
39.6838 2.51501 -19.1317 47.3395 2.51501 -18.7456 54.9951 2.51501 -16.3624 
-52.1837 10.1706 -15.3299 -44.528 10.1706 -18.7945 -36.8724 10.1706 -19.776 
-29.2168 10.1706 -19.7673 -21.5612 10.1706 -19.536 -13.9055 10.1706 -20.4394 
-6.24991 10.1706 -20.4425 1.40572 10.1706 -18.047 9.06134 10.1706 -18.2199 
16.717 10.1706 -17.4145 24.3726 10.1706 -18.1916 32.0282 10.1706 -18.7064 
39.6838 10.1706 -18.6925 47.3395 10.1706 -17.6893 54.9951 10.1706 -14.9623 
-44.528 17.8263 -16.3848 -36.8724 17.8263 -18.6051 -29.2168 17.8263 -19.0976 
-21.5612 17.8263 -19.9409 -13.9055 17.8263 -20.8982 -6.24991 17.8263 -20.6227 
1.40572 17.8263 -18.5658 9.06134 17.8263 -17.8033 16.717 17.8263 -17.8854 
24.3726 17.8263 -18.2963 32.0282 17.8263 -18.6131 39.6838 17.8263 -18.4081 
47.3395 17.8263 -16.2804 -36.8724 25.4819 -16.6061 -29.2168 25.4819 -18.1239 
-21.5612 25.4819 -19.3499 -13.9055 25.4819 -19.636 -6.24991 25.4819 -18.1915 
1.40572 25.4819 -16.6664 9.06134 25.4819 -16.7382 16.717 25.4819 -17.1629 
24.3726 25.4819 -17.2342 32.0282 25.4819 -16.8009 39.6838 25.4819 -15.7555 
-29.2168 33.1375 -14.1491 -21.5612 33.1375 -15.4313 -13.9055 33.1375 -15.1939 
-6.24991 33.1375 -13.955 9.06134 33.1375 -13.5915 16.717 33.1375 -13.8146 
-36.8724 -36.111 -13.5061 -29.2168 -38.5966 -13.5061 -21.5612 -38.6866 -13.5061 
-13.9055 -37.4333 -13.5061 -37.3813 -35.7631 -13.5061 -44.528 -29.0101 -13.5061 
-9.46821 -35.7631 -13.5061 -6.24991 -33.6033 -13.5061 -6.24991 -35.7631 -12.0431 
1.40572 -28.7056 -13.5061 1.40572 -35.7631 -9.41889 9.06134 -35.7631 -7.28327 
-45.2829 -28.1075 -13.5061 2.74288 -28.1075 -13.5061 9.06134 -22.817 -13.5061 
9.06134 -28.1075 -12.2066 16.717 -24.093 -13.5061 16.717 -28.1075 -11.8407 
24.3726 -26.4463 -13.5061 24.3726 -28.1075 -12.4646 32.0282 -27.0212 -13.5061 
32.0282 -28.1075 -12.5837 39.6838 -27.0255 -13.5061 39.6838 -28.1075 -12.3558 
47.3395 -24.8498 -13.5061 47.3395 -28.1075 -8.61507 -50.3096 -20.4519 -13.5061 
-52.1837 -16.7692 -13.5061 -52.1837 -20.4519 -10.5508 53.0291 -20.4519 -13.5061 
54.9951 -17.9104 -13.5061 54.9951 -20.4519 -11.8489 -53.8939 -12.7962 -13.5061 
58.0809 -12.7962 -13.5061 62.6507 -12.7962 -7.80593 -55.8178 -5.14062 -13.5061 
1.40572 2.21637 -13.5061 60.9724 -5.14062 -13.5061 62.6507 -5.14062 -11.7585 
-55.9167 2.51501 -13.5061 -59.8393 2.51501 -6.27917 1.20276 2.51501 -13.5061 
1.56441 2.51501 -13.5061 1.40572 2.70894 -13.5061 1.40572 2.51501 -13.3768 
60.2861 2.51501 -13.5061 62.6507 2.51501 -10.9193 -54.6412 10.1706 -13.5061 
-52.1837 14.5961 -13.5061 57.0232 10.1706 -13.5061 54.9951 13.7411 -13.5061 
62.6507 10.1706 -6.2104 -49.6899 17.8263 -13.5061 -52.1837 17.8263 -11.5897 
-44.528 25.087 -13.5061 52.5448 17.8263 -13.5061 47.3395 23.2623 -13.5061 
54.9951 17.8263 -11.2687 -52.1837 25.4819 -6.22899 -44.169 25.4819 -13.5061 
-44.528 25.4819 -13.3057 -36.8724 30.4222 -13.5061 1.40572 32.2289 -13.5061 
24.3726 33.0634 -13.5061 32.0282 31.4312 -13.5061 44.7196 25.4819 -13.5061 
39.6838 28.684 -13.5061 47.3395 25.4819 -11.5063 -31.0882 33.1375 -13.5061 
-36.8724 33.1375 -10.9147 -29.2168 33.7716 -13.5061 -21.5612 35.0449 -13.5061 
-13.9055 34.85 -13.5061 -2.63132 33.1375 -13.5061 -6.24991 33.6166 -13.5061 
7.86765 33.1375 -13.5061 1.40572 33.1375 -12.909 9.06134 33.2368 -13.5061 
23.5185 33.1375 -13.5061 16.717 33.4942 -13.5061 24.3726 33.1375 -13.4492 
32.0282 33.1375 -11.7705 39.6838 33.1375 -7.95822 -36.8724 -39.6086 -5.85051 
-29.2168 -42.7453 -5.85051 -21.5612 -43.1762 -5.85051 -13.9055 -42.0556 -5.85051 
-6.24991 -40.6566 -5.85051 1.40572 -38.7476 -5.85051 9.06134 -37.0503 -5.85051 
-42.1115 -35.7631 -5.85051 -44.528 -33.5015 -5.85051 14.0798 -35.7631 -5.85051 
16.717 -35.033 -5.85051 16.717 -35.7631 -4.52904 24.3726 -33.3664 -5.85051 
24.3726 -35.7631 0.843601 32.0282 -32.8141 -5.85051 39.6838 -32.2969 -5.85051 
47.3395 -29.2261 -5.85051 -48.7134 -28.1075 -5.85051 -52.1837 -23.4108 -5.85051 
49.6036 -28.1075 -5.85051 54.9951 -24.7118 -5.85051 -54.1503 -20.4519 -5.85051 
59.8518 -20.4519 -5.85051 62.6507 -15.3141 -5.85051 -57.2379 -12.7962 -5.85051 
63.5987 -12.7962 -5.85051 -59.2941 -5.14062 -5.85051 -59.8393 0.693769 -5.85051 
65.5928 -5.14062 -5.85051 -60 2.51501 -5.85051 -59.8393 4.28641 -5.85051 
-59.8393 2.51501 -2.69352 65.0825 2.51501 -5.85051 -59.2566 10.1706 -5.85051 
62.8191 10.1706 -5.85051 62.6507 10.5459 -5.85051 62.6507 10.1706 1.6171 
-56.4466 17.8263 -5.85051 58.9042 17.8263 -5.85051 54.9951 22.5483 -5.85051 
-52.4232 25.4819 -5.85051 -52.1837 25.7743 -5.85051 -44.528 32.7118 -5.85051 
52.0849 25.4819 -5.85051 47.3395 29.4325 -5.85051 -43.8298 33.1375 -5.85051 
-44.528 33.1375 -3.30333 -36.8724 37.0556 -5.85051 -29.2168 38.4614 -5.85051 
-21.5612 39.2441 -5.85051 -13.9055 39.4985 -5.85051 -6.24991 39.0666 -5.85051 
1.40572 38.4864 -5.85051 9.06134 38.3615 -5.85051 16.717 38.4253 -5.85051 
24.3726 38.0671 -5.85051 32.0282 36.756 -5.85051 41.8036 33.1375 -5.85051 
39.6838 34.2955 -5.85051 -21.5612 40.7931 0.39689 -13.9055 40.7931 -1.6292 
-6.24991 40.7931 -0.800432 -36.8724 -37.3464 1.80512 -29.2168 -41.1386 1.80512 
-21.5612 -42.992 1.80512 -13.9055 -43.2443 1.80512 -6.24991 -42.5212 1.80512 
1.40572 -41.6227 1.80512 9.06134 -40.398 1.80512 16.717 -38.3647 1.80512 
24.3726 -36.0642 1.80512 -38.9162 -35.7631 1.80512 -44.528 -30.9991 1.80512 
-36.8724 -35.7631 4.26852 25.6547 -35.7631 1.80512 24.3726 -35.7631 7.91422 
32.0282 -34.2625 1.80512 39.6838 -32.8868 1.80512 47.3395 -28.9478 1.80512 
-47.2147 -28.1075 1.80512 -52.1837 -22.0045 1.80512 -44.528 -28.1075 6.3859 
48.8866 -28.1075 1.80512 47.3395 -28.1075 4.41675 54.9951 -23.9894 1.80512 
-53.2601 -20.4519 1.80512 -52.1837 -20.4519 4.43196 58.9102 -20.4519 1.80512 
54.9951 -20.4519 7.65582 62.6507 -13.5578 1.80512 -56.794 -12.7962 1.80512 
62.9417 -12.7962 1.80512 62.6507 -12.7962 2.39235 -58.8168 -5.14062 1.80512 
65.2102 -5.14062 1.80512 62.6507 -5.14062 6.9711 -59.6055 2.51501 1.80512 
64.7673 2.51501 1.80512 62.6507 10.1563 1.80512 62.6507 2.51501 6.24022 
-58.8914 10.1706 1.80512 62.6464 10.1706 1.80512 -56.7432 17.8263 1.80512 
58.763 17.8263 1.80512 54.9951 22.3757 1.80512 54.9951 17.8263 9.12151 
-53.1292 25.4819 1.80512 -52.1837 26.6521 1.80512 -52.1837 25.4819 4.03579 
52.01 25.4819 1.80512 47.3395 29.3721 1.80512 -45.4781 33.1375 1.80512 
-44.528 33.8446 1.80512 -44.528 33.1375 4.14018 -36.8724 37.8177 1.80512 
-29.2168 40.158 1.80512 1.40572 40.6221 1.80512 9.06134 39.4313 1.80512 
16.717 38.8451 1.80512 24.3726 38.3518 1.80512 32.0282 37.086 1.80512 
41.8292 33.1375 1.80512 39.6838 34.3783 1.80512 39.6838 33.1375 4.89547 
-24.2064 40.7931 1.80512 -21.5612 41.1149 1.80512 -21.5612 40.7931 8.91335 
-13.9055 41.7667 1.80512 0.0647403 40.7931 1.80512 -6.24991 41.5838 1.80512 
-29.2168 -36.4731 9.46074 -21.5612 -39.5389 9.46074 -13.9055 -40.9482 9.46074 
-6.24991 -40.6781 9.46074 1.40572 -39.3105 9.46074 9.06134 -38.3057 9.46074 
16.717 -37.1816 9.46074 -30.5377 -35.7631 9.46074 -36.8724 -31.714 9.46074 
-29.2168 -35.7631 10.2231 -21.5612 -35.7631 13.2416 -13.9055 -35.7631 14.4952 
-6.24991 -35.7631 14.3462 1.40572 -35.7631 12.9109 9.06134 -35.7631 12.1785 
23.9526 -35.7631 9.46074 16.717 -35.7631 11.4566 24.3726 -35.6778 9.46074 
32.0282 -32.9531 9.46074 39.6838 -30.0584 9.46074 -41.6695 -28.1075 9.46074 
-44.528 -25.7221 9.46074 -36.8724 -28.1075 12.6848 -29.2168 -28.1075 15.3951 
-21.5612 -28.1075 16.5615 -6.24991 -28.1075 16.566 1.40572 -28.1075 15.2737 
9.06134 -28.1075 16.121 32.0282 -28.1075 16.4833 43.7676 -28.1075 9.46074 
39.6838 -28.1075 12.1038 47.3395 -25.6906 9.46074 -49.2909 -20.4519 9.46074 
-52.1837 -15.6943 9.46074 -44.528 -20.4519 13.8076 1.40572 -20.4519 15.7457 
9.06134 -20.4519 16.8656 53.4642 -20.4519 9.46074 47.3395 -20.4519 14.1441 
54.9951 -18.7385 9.46074 -53.6007 -12.7962 9.46074 -52.1837 -12.7962 11.2022 
58.4951 -12.7962 9.46074 54.9951 -12.7962 12.8213 -55.5959 -5.14062 9.46074 
-52.1837 -5.14062 13.5017 61.0402 -5.14062 9.46074 54.9951 -5.14062 15.1176 
-55.5891 2.51501 9.46074 -52.1837 2.51501 13.1242 60.682 2.51501 9.46074 
54.9951 2.51501 14.8852 -55.2903 10.1706 9.46074 -52.1837 10.1706 12.7923 
[...]
POINT_DATA 560
SCALARS ImageScalars float
LOOKUP_TABLE default
0 0 0 0 0 0 0 0 0 
0 0 0 0 0 0 0 0 0 
0 0 0 0 0 0 0 0 0 
0 0 0 0 0 0 0 0 0 
0 0 0 0 0 0 0 0 0 
0 0 0 0 0 0 0 0 0 
0 0 0 0 0 0 0 0 0 
0 0 0 0 0 0 0 0 0 
0 0 0 0 0 0 0 0 0 
0 0 0 0 0 0 0 0 0 
0 0 0 0 0 0 0 0 0 
0 0 0 0 0 0 0 0 0 
0 0 0 0 0 0 0 0 0 
0 0 0 0 0 0 0 0 0 
0 0 0 0 0 0 0 0 0 
0 0 0 0 0 0 0 0 0 
0 0 0 0 0 0 0 0 0 
0 0 0 0 0 0 0 0 0 
0 0 0 0 0 0 0 0 0 
0 0 0 0 0 0 0 0 0 
0 0 0 0 0 0 0 0 0 
0 0 0 0 0 0 0 0 0 
0 0 0 0 0 0 0 0 0 
0 0 0 0 0 0 0 0 0 
0 0 0 0 0 0 0 0 0 
0 0 0 0 0 0 0 0 0 
0 0 0 0 0 0 0 0 0 
0 0 0 0 0 0 0 0 0 
0 0 0 0 0 0 0 0 0 
0 0 0 0 0 0 0 0 0 
0 0 0 0 0 0 0 0 0 
0 0 0 0 0 0 0 0 0 
0 0 0 0 0 0 0 0 0 
0 0 0 0 0 0 0 0 0 
0 0 0 0 0 0 0 0 0 
0 0 0 0 0 0 0 0 0 
0 0 0 0 0 0 0 0 0 
0 0 0 0 0 0 0 0 0 
0 0 0 0 0 0 0 0 0 
0 0 0 0 0 0 0 0 0 
0 0 0 0 0 0 0 0 0 
0 0 0 0 0 0 0 0 0 
0 0 0 0 0 0 0 0 0 
0 0 0 0 0 0 0 0 0 
0 0 0 0 0 0 0 0 0 
0 0 0 0 0 0 0 0 0 
0 0 0 0 0 0 0 0 0 
0 0 0 0 0 0 0 0 0 
0 0 0 0 0 0 0 0 0 
0 0 0 0 0 0 0 0 0 
0 0 0 0 0 0 0 0 0 
0 0 0 0 0 0 0 0 0 
0 0 0 0 0 0 0 0 0 
0 0 0 0 0 0 0 0 0 
0 0 0 0 0 0 0 0 0 
0 0 0 0 0 0 0 0 0 
0 0 0 0 0 0 0 0 0 
0 0 0 0 0 0 0 0 0 
0 0 0 0 0 0 0 0 0 
0 0 0 0 0 0 0 0 0 
0 0 0 0 0 0 0 0 0 
0 0 0 0 0 0 0 0 0 
0 0 
NORMALS Normals float
0.00205588 0.0842638 0.996441 0.391788 0.662872 0.638046 0.122487 0.545732 0.828959 
-0.0651768 0.538104 0.840355 -0.203873 0.558262 0.804226 0.586565 0.49763 0.638989 
0.272931 0.366214 0.889604 0.0292745 0.239108 0.970552 -0.095561 0.201101 0.974898 
-0.190024 0.143587 0.971223 -0.236393 0.22407 0.945469 -0.235998 0.286333 0.928611 
0.391519 0.36117 0.846327 0.0116811 0.0949263 0.995416 0.115375 0.171921 0.978331 
-0.0352218 0.102494 0.99411 -0.175885 -0.00259548 0.984407 -0.188018 -0.0657474 0.979963 
-0.15021 -0.040673 0.987817 -0.149687 0.112846 0.982273 -0.0130792 0.119468 0.992752 
0.142596 0.240459 0.960128 0.158511 0.302842 0.939766 0.0775896 0.352339 0.93265 
-0.0734085 0.36657 0.92749 -0.290502 0.363681 0.885068 0.674581 0.232148 0.700748 
0.0824926 0.0841025 0.993037 0.33072 0.0913334 0.939299 -0.0392399 0.074562 0.996444 
0.0316685 -0.00831515 0.999464 -0.153682 0.0388935 0.987355 -0.254923 0.00565293 0.966945 
-0.240053 0.00873398 0.970721 -0.0590394 0.0843715 0.994684 -0.0730588 0.104922 0.991793 
0.0202623 0.186627 0.982222 0.230503 0.0576087 0.971365 0.220244 0.0593952 0.973635 
0.079645 0.0936692 0.992413 -0.0853893 0.0949311 0.991815 -0.16935 0.215909 0.961615 
-0.448302 0.233596 0.86282 0.584485 0.0681987 0.808533 0.257153 -0.0573778 0.964666 
0.0483268 -0.0574304 0.997179 -0.117359 0.00733071 0.993062 -0.188157 0.0238756 0.981849 
-0.0886431 0.22586 0.970118 -0.0487486 0.26603 0.962731 -0.0422471 -0.10914 0.993128 
-0.0813521 0.336649 0.938109 0.0165816 0.0209372 0.999643 0.20281 -0.0286643 0.978798 
0.11499 -0.0533385 0.991934 0.0539556 0.0143822 0.99844 -0.188472 0.0481363 0.980898 
-0.410397 0.0225408 0.911628 0.537831 -0.0753307 0.83968 0.2482 -0.0660377 0.966455 
0.0789927 -0.078049 0.993815 -0.0788325 -0.0556958 0.995331 -0.0462092 0.0168624 0.998789 
0.0176905 0.178752 0.983735 -0.361833 0.155285 0.919219 0.08719 0.0372819 0.995494 
-0.109014 0.113232 0.98757 0.156273 0.0389694 0.986945 0.118283 -0.00320062 0.992975 
0.0137183 -0.0485322 0.998727 -0.179496 -0.119939 0.97642 -0.392543 -0.0873439 0.915577 
0.52604 -0.225014 0.820153 0.269599 -0.179165 0.946159 0.0563431 -0.137196 0.98894 
-0.0156031 -0.0956029 0.995297 0.0400869 0.0389274 0.998438 0.0610389 0.0652938 0.995997 
-0.157624 0.0587503 0.98575 -0.137767 0.266746 0.953869 -0.0425773 -0.0839391 0.995561 
-0.0035683 0.110271 0.993895 0.086918 0.0663568 0.994003 0.03041 0.00405258 0.999529 
-0.062883 -0.0454218 0.996987 -0.205479 -0.158623 0.965721 -0.485054 -0.266641 0.832842 
0.362571 -0.312832 0.877883 0.153783 -0.185227 0.970588 0.0886625 -0.102289 0.990796 
0.116129 -0.0109166 0.993174 0.0454967 -0.0464044 0.997886 -0.148709 -0.138669 0.97911 
-0.178484 -0.0879954 0.98 -0.0418116 -0.0917163 0.994907 0.0321248 -0.0174929 0.999331 
0.0473097 -0.0578335 0.997205 0.00871528 -0.124719 0.992154 -0.149568 -0.182974 0.971674 
-0.351263 -0.290423 0.890095 0.275839 -0.395218 0.876194 0.170582 -0.268338 0.948102 
0.0927702 -0.25228 0.963197 -0.070193 -0.318796 0.945221 -0.181112 -0.375556 0.908931 
-0.0873456 -0.31895 0.943738 0.0332466 -0.253143 0.966857 0.0304239 -0.235896 0.971302 
-0.0240306 -0.271764 0.962064 -0.0904897 -0.352893 0.931278 -0.25238 -0.458229 0.85225 
0.213597 -0.663778 0.716781 0.053362 -0.665601 0.744397 -0.080739 -0.656025 0.750408 
-0.119676 -0.65069 0.749853 0.0461513 -0.600293 0.798447 -0.00552291 -0.624379 0.781102 
0.397391 0.678108 0.618264 0.151129 0.720746 0.676525 -0.0642628 0.686432 0.724348 
-0.204967 0.644461 0.736654 0.413404 0.670545 0.616009 0.602129 0.527695 0.599148 
-0.251386 0.582942 0.772647 -0.27949 0.482822 0.829921 -0.274812 0.617718 0.73682 
-0.237368 0.31102 0.920284 -0.221213 0.683683 0.695444 -0.212512 0.716905 0.663992 
0.615165 0.511997 0.599526 -0.215271 0.295589 0.930745 -0.0426587 0.184863 0.981838 
-0.117287 0.353369 0.928102 0.0843337 0.34888 0.933365 0.00594163 0.497989 0.867163 
0.0793934 0.533147 0.842289 0.0425298 0.619368 0.783948 0.0172606 0.637496 0.77026 
-0.00330267 0.709134 0.705066 -0.0848798 0.663609 0.743248 -0.107895 0.735985 0.668344 
-0.322015 0.626865 0.709469 -0.374467 0.872524 0.313809 0.708363 0.408098 0.575915 
0.733743 0.345673 0.584921 0.812515 0.453889 0.365793 -0.475824 0.473691 0.741086 
-0.516348 0.42517 0.743381 -0.572492 0.552831 0.605501 0.741563 0.274147 0.612313 
-0.58656 0.27787 0.760747 -0.896572 0.311982 0.314366 0.764471 0.104063 0.636204 
0.0904441 0.114425 0.989306 -0.650819 0.0845485 0.754511 -0.784744 0.0946812 0.612546 
0.725856 -0.0540694 0.685719 0.982071 -0.00335041 0.188483 0.080422 0.128342 0.988464 
0.0981714 0.125115 0.987273 0.0892245 0.132273 0.987189 0.0956948 0.127034 0.987271 
-0.62585 -0.143688 0.766593 -0.818816 -0.165329 0.549733 0.639107 -0.247467 0.728219 
0.584703 -0.321306 0.744906 -0.566972 -0.304233 0.765496 -0.554437 -0.342536 0.758464 
-0.900993 -0.366792 0.23168 0.550638 -0.348817 0.75837 0.674365 -0.391275 0.626207 
0.424446 -0.423501 0.800308 -0.532308 -0.379863 0.75654 -0.447612 -0.516472 0.73 
-0.662711 -0.458837 0.591847 0.750865 -0.576913 0.321519 0.417968 -0.431819 0.799272 
0.429136 -0.436862 0.790565 0.297276 -0.579719 0.758652 -0.0274738 -0.574267 0.818207 
-0.0851207 -0.651753 0.75364 -0.176058 -0.620621 0.76409 -0.411821 -0.557477 0.720849 
-0.311861 -0.600812 0.736049 -0.513352 -0.638823 0.57304 0.236335 -0.670033 0.703705 
0.320642 -0.707171 0.630157 0.208845 -0.693743 0.689279 0.0559027 -0.749424 0.659726 
-0.0741464 -0.727025 0.682595 -0.0720605 -0.634749 0.769351 -0.115892 -0.66941 0.733797 
0.0359584 -0.602547 0.797273 -0.0192892 -0.625955 0.779621 0.0460232 -0.605448 0.794553 
-0.0766231 -0.652378 0.75401 -0.00728254 -0.642957 0.765867 -0.0859581 -0.657339 0.748677 
-0.211768 -0.744363 0.633307 -0.387197 -0.845945 0.366681 0.489487 0.869394 0.0675037 
0.215258 0.970904 0.104924 -0.0418055 0.978161 0.203602 -0.148599 0.934591 0.3232 
-0.20365 0.880989 0.427066 -0.197696 0.824643 0.529981 -0.214343 0.776243 0.592878 
0.656584 0.753087 0.0419247 0.72826 0.683351 0.0516586 -0.207857 0.788386 0.579002 
-0.194249 0.794921 0.574776 -0.221649 0.844139 0.488161 -0.116069 0.879232 0.462038 
-0.244425 0.956261 0.160691 -0.0618387 0.929893 0.362594 -0.219556 0.93379 0.282543 
-0.389504 0.905572 0.168005 0.795503 0.601126 0.0763075 0.840684 0.530936 0.10657 
-0.458865 0.873252 0.163935 -0.634167 0.750084 0.187634 0.871144 0.475101 0.124048 
-0.761583 0.620475 0.187091 -0.896158 0.404661 0.182073 0.935362 0.325015 0.139512 
-0.931328 0.313637 0.185093 0.975811 0.170379 0.136983 0.986779 0.0398665 0.15709 
-0.974098 0.0905503 0.207204 0.986284 -0.00141069 0.165052 0.984782 -0.047907 0.167062 
0.999999 0.00094104 0.000884011 -0.964315 -0.169317 0.203541 0.961654 -0.204804 0.182421 
-0.906773 -0.365598 0.210003 -0.903351 -0.37376 0.210381 -0.914925 -0.346666 -0.206725 
0.877438 -0.385568 0.285377 -0.807368 -0.537945 0.242428 -0.735251 -0.640511 0.221701 
0.759398 -0.577561 0.299563 0.752816 -0.585738 0.300298 0.519108 -0.795297 0.313096 
-0.673227 -0.705729 0.220709 -0.570194 -0.788063 0.232027 0.501823 -0.804893 0.316736 
0.546458 -0.818056 0.179356 0.332856 -0.88022 0.338258 0.119847 -0.927837 0.353207 
0.0609399 -0.934404 0.350965 -0.00944741 -0.921582 0.388069 -0.0616035 -0.893699 0.444417 
-0.0419857 -0.905708 0.421818 -0.00351641 -0.944323 0.329001 -0.0179482 -0.960378 0.278123 
-0.100577 -0.957597 0.269987 -0.247855 -0.929576 0.272867 -0.441752 -0.862198 0.247931 
-0.396412 -0.881923 0.255087 0.0948779 -0.986174 0.135867 0.0138755 -0.96974 0.243747 
-0.0695162 -0.971257 0.227658 0.509186 0.777932 -0.368174 0.324304 0.881929 -0.342093 
0.125311 0.973538 -0.191106 -0.0311671 0.998162 -0.0519686 -0.105715 0.994357 0.00881379 
-0.138488 0.989092 0.0501764 -0.210461 0.975635 0.0619813 -0.28157 0.953058 0.111352 
-0.25736 0.958185 0.125089 0.562483 0.740318 -0.368161 0.676874 0.660701 -0.324524 
0.510535 0.733407 -0.448852 -0.24627 0.963333 0.10649 -0.254879 0.942472 -0.216296 
-0.195666 0.980651 0.00618402 -0.312746 0.942108 -0.120921 -0.449239 0.879972 -0.154379 
0.711378 0.641374 -0.287368 0.807729 0.538597 -0.239766 0.621635 0.636103 -0.457102 
-0.487487 0.85602 -0.172003 -0.474784 0.840311 -0.261645 -0.651819 0.716941 -0.247238 
0.831602 0.503875 -0.233557 0.794545 0.510571 -0.328658 -0.738761 0.620585 -0.262881 
-0.620103 0.601434 -0.503735 -0.900706 0.343264 -0.266266 0.91927 0.341358 -0.196003 
-0.911105 0.318193 -0.261995 -0.903246 0.319544 -0.286425 0.96248 0.168155 -0.212969 
-0.968234 0.10649 -0.226234 -0.858416 0.118573 -0.499061 0.973175 0.00414704 -0.230029 
-0.96378 -0.149539 -0.22083 -0.913216 -0.34504 -0.216758 -0.882379 -0.144704 -0.447736 
0.95898 -0.174384 -0.223491 -0.913076 -0.345448 -0.216699 0.924569 -0.33139 -0.188025 
-0.811942 -0.546115 -0.206178 -0.744613 -0.636959 -0.199586 -0.669321 -0.510457 -0.539855 
0.816822 -0.559496 -0.140593 0.792661 -0.594839 -0.133624 0.796874 -0.549166 -0.251812 
-0.682056 -0.706159 -0.1901 -0.581786 -0.794089 -0.175918 0.59742 -0.798454 -0.0745658 
0.573247 -0.81673 -0.0658772 0.59673 -0.782186 -0.179159 0.354866 -0.933899 -0.0436261 
0.220918 -0.974844 0.029585 -0.140021 -0.984795 0.102829 -0.112726 -0.993605 -0.0064411 
-0.0695948 -0.993276 -0.092512 -0.108996 -0.985681 -0.128657 -0.260401 -0.954086 -0.148024 
-0.464717 -0.86706 -0.179566 -0.424814 -0.88843 -0.173851 -0.430805 -0.844443 -0.318312 
0.143458 -0.987175 0.0700371 0.101879 -0.990681 0.0903982 0.163954 -0.958825 -0.231893 
0.0302251 -0.990461 0.134434 -0.12852 -0.985757 0.108469 -0.0740868 -0.98898 0.12818 
0.364275 0.686009 -0.629838 0.235254 0.770215 -0.592811 0.0638836 0.851734 -0.520066 
-0.088973 0.862252 -0.498604 -0.140391 0.810779 -0.568267 -0.129703 0.827463 -0.546335 
-0.166083 0.897555 -0.408425 0.384115 0.674278 -0.630718 0.438022 0.638973 -0.632338 
0.362081 0.663699 -0.654523 0.216177 0.581986 -0.783939 0.059535 0.538003 -0.840838 
-0.0870605 0.524863 -0.846722 -0.123618 0.553635 -0.823533 -0.0745333 0.672545 -0.736294 
-0.244619 0.919575 -0.30748 -0.122803 0.832851 -0.539702 -0.248879 0.919992 -0.302777 
-0.319831 0.884959 -0.338461 -0.37423 0.80766 -0.455673 0.512721 0.619869 -0.594036 
0.570802 0.594298 -0.566563 0.380535 0.585036 -0.716188 0.201514 0.421381 -0.884211 
0.134862 0.291141 -0.947127 -0.148499 0.168907 -0.974381 -0.0384483 0.149732 -0.987979 
0.134672 0.244188 -0.960331 -0.249894 0.587341 -0.769795 -0.443684 0.762236 -0.471319 
-0.386729 0.729571 -0.564062 -0.509493 0.684256 -0.521738 0.674754 0.507864 -0.535519 
0.758164 0.392575 -0.520646 0.518832 0.483171 -0.705237 -0.0436818 0.17719 -0.983207 
0.249089 0.16894 -0.953632 -0.580285 0.566124 -0.585468 -0.475599 0.472806 -0.741795 
-0.60993 0.517392 -0.600242 0.79007 0.322323 -0.521437 0.743294 0.312511 -0.591482 
-0.711165 0.328977 -0.621304 -0.583112 0.316697 -0.74812 0.821008 0.106988 -0.560802 
0.685572 0.0801621 -0.723578 -0.756953 0.115654 -0.643154 -0.549063 0.107682 -0.828815 
0.773001 -0.0183488 -0.63414 0.649974 -0.0366569 -0.759072 -0.76555 -0.122974 -0.631515 
-0.56461 -0.0971748 -0.819617 0.795709 -0.142552 -0.588665 0.638997 -0.139525 -0.756449 
0.357012 -0.127863 -0.925307 -0.754842 -0.306136 -0.580081 -0.664512 -0.496624 -0.55838 
-0.602117 -0.273207 -0.750209 0.738162 -0.299579 -0.604458 0.727106 -0.345158 -0.59345 
0.706943 -0.294056 -0.643244 0.464153 -0.178724 -0.867537 -0.658846 -0.505388 -0.55723 
-0.450344 -0.394484 -0.800982 0.693185 -0.462682 -0.552648 0.61753 -0.61258 -0.493359 
0.560945 -0.373211 -0.738955 -0.187816 -0.422746 -0.886573 -0.410271 -0.720658 -0.558865 
-0.36244 -0.552392 -0.750667 -0.554082 -0.627125 -0.547455 -0.54948 -0.632214 -0.546239 
-0.547056 -0.624585 -0.557336 0.546006 -0.702993 -0.455717 0.414683 -0.81245 -0.409832 
0.421227 -0.639172 -0.643449 0.26523 -0.9022 -0.340129 0.261741 -0.505007 -0.822472 
0.168085 -0.95181 -0.256527 -0.193043 -0.931664 -0.307793 -0.194665 -0.895913 -0.399306 
-0.174898 -0.595756 -0.783892 -0.136351 -0.880266 -0.454467 -0.116548 -0.674715 -0.728818 
-0.159838 -0.85462 -0.494042 -0.161016 -0.719565 -0.6755 -0.324641 -0.783648 -0.529626 
-0.274729 -0.806577 -0.52341 -0.274167 -0.769279 -0.577098 0.164591 -0.952685 -0.255542 
0.0342951 -0.971346 -0.235182 0.0338653 -0.931213 -0.3629 -0.142701 -0.950379 -0.276434 
-0.0969029 -0.961738 -0.25626 -0.100707 -0.941335 -0.322097 0.0101983 0.250656 -0.968023 
0.0773996 0.411773 -0.907994 -0.0610961 0.537697 -0.840922 0.235407 0.3964 -0.887384 
0.109149 0.342657 -0.933098 0.0659384 0.241809 -0.968081 0.0858412 0.261091 -0.96149 
-0.0768994 0.179242 -0.980795 -0.00426499 0.194606 -0.980872 -0.145029 0.142025 -0.979181 
0.104245 0.341319 -0.934149 0.0932349 0.38418 -0.918539 -0.154784 0.542654 -0.825572 
-0.0488895 0.50702 -0.860547 -0.234281 0.526651 -0.81716 -0.307087 0.398421 -0.864267 
0.257132 0.388847 -0.884693 0.444053 0.251218 -0.860062 0.220248 0.375537 -0.900257 
0.0571388 0.300111 -0.952191 -0.0249625 0.199081 -0.979665 -0.0555319 0.0574032 -0.996805 
-0.119048 0.142224 -0.982649 -0.139706 0.130022 -0.981619 -0.0119058 0.297434 -0.954668 
0.247772 0.169561 -0.953865 0.235409 0.179891 -0.955103 0.20666 0.172498 -0.963087 
0.0368637 0.172897 -0.98425 -0.176158 0.259932 -0.949423 -0.324067 0.37333 -0.869255 
-0.292559 0.352921 -0.888739 -0.388861 0.24353 -0.888527 0.448967 0.239685 -0.860802 
0.441284 0.236665 -0.865597 0.177247 0.194848 -0.964685 -0.0168798 0.166148 -0.985956 
-0.121491 0.14445 -0.982026 -0.068809 0.149897 -0.986304 -0.00420421 0.203741 -0.979016 
0.0117665 0.386991 -0.922008 0.115086 0.241131 -0.963645 0.117325 -0.00873019 -0.993055 
0.0349907 0.00606827 -0.999369 -0.0666972 0.0603813 -0.995945 -0.206429 0.183903 -0.961024 
-0.388992 0.239004 -0.889698 -0.386689 0.238261 -0.8909 0.465416 0.0386995 -0.884245 
0.386378 0.0177752 -0.922169 0.15985 -0.000182863 -0.987141 0.0134392 -0.0001628 -0.99991 
-0.03741 0.0684322 -0.996954 -0.00590443 0.199621 -0.979855 0.0676268 0.117114 -0.990813 
0.0175471 0.0992464 -0.994908 -0.133783 0.10158 -0.985791 -0.0112789 -0.108475 -0.994035 
0.10829 -0.0392995 -0.993342 0.0170533 0.015609 -0.999733 -0.120665 0.0635052 -0.99066 
-0.440424 0.105326 -0.89159 -0.345422 0.0988156 -0.933231 0.405402 -0.0824138 -0.910416 
0.358043 -0.119524 -0.926023 0.365654 -0.0835378 -0.926995 0.179104 -0.0837631 -0.980258 
0.0517604 -0.0391523 -0.997892 0.0716641 0.00291718 -0.997425 -0.00767389 0.021342 -0.999743 
-0.0828438 -0.0797253 -0.993368 -0.0163738 -0.111738 -0.993603 -0.131086 -0.115399 -0.984632 
-0.00232432 -0.0569198 -0.998376 0.160086 -0.0587421 -0.985354 0.0349436 -0.051597 -0.998056 
-0.129233 -0.0647011 -0.989501 -0.434634 -0.0896287 -0.896136 -0.343587 -0.0857548 -0.935197 
0.345075 -0.124312 -0.930306 0.203269 -0.0772407 -0.976071 0.0951536 -0.0231301 -0.995194 
0.024227 0.00379497 -0.999699 -0.0856172 -0.0800963 -0.993103 -0.067163 -0.0819179 -0.994373 
-0.0135132 -0.0961051 -0.995279 -0.0777741 -0.102027 -0.991737 0.0376208 0.0145801 -0.999186 
0.112625 -0.0598922 -0.991831 0.00951902 -0.100386 -0.994903 -0.156331 -0.165664 -0.973713 
-0.38621 -0.183992 -0.903874 -0.387707 -0.229273 -0.892814 -0.367837 -0.177373 -0.912817 
0.36362 -0.128904 -0.922586 0.269249 -0.101568 -0.9577 0.132459 -0.0319955 -0.990672 
0.0140343 -0.0142743 -0.9998 -0.0946666 -0.01205 -0.995436 -0.0980014 0.0135945 -0.995093 
-0.0407848 -0.0472724 -0.998049 -0.00737757 -0.0346605 -0.999372 0.0298969 -0.0336705 -0.998986 
0.0419222 -0.109178 -0.993138 -0.183222 -0.414299 -0.891508 -0.0728332 -0.211469 -0.974667 
-0.315392 -0.341891 -0.885233 -0.248932 -0.372685 -0.893945 -0.209224 -0.302639 -0.929857 
0.332413 -0.282036 -0.899976 0.320502 -0.30294 -0.8975 0.312463 -0.276592 -0.908771 
0.259872 -0.496231 -0.828384 0.187267 -0.190846 -0.963592 0.0428342 -0.152585 -0.987362 
-0.0587005 -0.0976495 -0.993488 -0.105893 -0.0595774 -0.992591 -0.0629888 -0.0901864 -0.993931 
-0.118829 -0.363235 -0.924089 -0.0590793 -0.179075 -0.98206 -0.0671827 -0.330407 -0.941444 
-0.047861 -0.241289 -0.969272 -0.173426 -0.412404 -0.894341 -0.0745603 -0.384474 -0.92012 
-0.0597989 -0.333736 -0.940768 0.254208 -0.500475 -0.827588 0.122359 -0.540243 -0.832566 
0.10511 -0.445206 -0.889238 0.0253117 -0.532848 -0.845832 0.00817611 -0.386073 -0.922432 
-0.0949363 -0.483906 -0.869955 -0.0841215 -0.347485 -0.933904 -0.185203 -0.440383 -0.8785 
-0.189868 -0.443406 -0.87598 -0.183846 -0.415572 -0.890786 
