# vtk DataFile Version 4.2
vtk output
ASCII
DATASET POLYDATA
POINTS 552 float
14.0501 -29.993 -15.0883 21.9742 -29.993 -16.1397 29.8983 -29.993 -14.8702 
-33.4948 -22.0688 -15.3299 -25.5707 -22.0688 -15.7694 -17.6465 -22.0688 -15.2248 
6.12591 -22.0688 -14.8049 14.0501 -22.0688 -16.2243 21.9742 -22.0688 -17.6255 
29.8983 -22.0688 -16.8061 37.8225 -22.0688 -15.4258 -41.4189 -14.1447 -15.7219 
-33.4948 -14.1447 -17.2216 -25.5707 -14.1447 -17.0683 -17.6465 -14.1447 -15.9581 
-9.72237 -14.1447 -15.0064 -1.79823 -14.1447 -14.9192 6.12591 -14.1447 -15.1207 
14.0501 -14.1447 -16.0459 21.9742 -14.1447 -17.4038 29.8983 -14.1447 -18.3788 
37.8225 -14.1447 -17.5451 45.7466 -14.1447 -15.5782 -49.3431 -6.22055 -15.7067 
-41.4189 -6.22055 -18.5778 -33.4948 -6.22055 -19.0117 -25.5707 -6.22055 -18.3566 
-17.6465 -6.22055 -16.3585 -9.72237 -6.22055 -17.0237 -1.79823 -6.22055 -17.6601 
6.12591 -6.22055 -17.0569 14.0501 -6.22055 -15.7616 21.9742 -6.22055 -16.999 
29.8983 -6.22055 -18.0191 37.8225 -6.22055 -18.0289 45.7466 -6.22055 -16.5738 
-49.3431 1.70359 -17.7209 -41.4189 1.70359 -19.8892 -33.4948 1.70359 -20.0304 
-25.5707 1.70359 -18.896 -17.6465 1.70359 -17.4391 -9.72237 1.70359 -19.9615 
-1.79823 1.70359 -17.0108 6.12591 1.70359 -17.3938 14.0501 1.70359 -15.0589 
21.9742 1.70359 -16.3881 29.8983 1.70359 -17.5695 37.8225 1.70359 -17.7459 
45.7466 1.70359 -16.4414 -49.3431 9.62774 -17.6331 -41.4189 9.62774 -19.6261 
-33.4948 9.62774 -19.9195 -25.5707 9.62774 -18.9078 -17.6465 9.62774 -17.6553 
-9.72237 9.62774 -21.027 -1.79823 9.62774 -19.8552 6.12591 9.62774 -18.0554 
14.0501 9.62774 -16.6128 21.9742 9.62774 -16.3918 29.8983 9.62774 -17.636 
37.8225 9.62774 -16.924 45.7466 9.62774 -15.225 -49.3431 17.5519 -15.5497 
-41.4189 17.5519 -18.0468 -33.4948 17.5519 -18.8209 -25.5707 17.5519 -18.3273 
-17.6465 17.5519 -17.6426 -9.72237 17.5519 -18.369 -1.79823 17.5519 -18.5471 
6.12591 17.5519 -18.9783 14.0501 17.5519 -18.1035 21.9742 17.5519 -16.6805 
29.8983 17.5519 -15.9863 37.8225 17.5519 -15.0826 -41.4189 25.476 -15.4635 
-33.4948 25.476 -16.7266 -25.5707 25.476 -17.3051 -17.6465 25.476 -17.6595 
-9.72237 25.476 -18.4088 -1.79823 25.476 -18.2028 6.12591 25.476 -18.1323 
14.0501 25.476 -17.2529 21.9742 25.476 -15.2383 -25.5707 33.4002 -15.535 
-17.6465 33.4002 -16.6822 -9.72237 33.4002 -17.2884 -1.79823 33.4002 -16.7534 
6.12591 33.4002 -15.4063 -17.6465 41.3243 -14.2261 -17.6465 -45.8413 -7.73804 
-9.72237 -45.8413 -8.19993 -1.79823 -45.8413 -7.7495 6.12591 -45.8413 -7.05641 
14.0501 -45.8413 -6.51794 -33.4948 -37.9171 -7.60738 -25.5707 -37.9171 -11.2686 
-17.6465 -37.9171 -11.7635 -9.72237 -37.9171 -11.7365 -1.79823 -37.9171 -11.515 
6.12591 -37.9171 -12.0468 14.0501 -32.8434 -14.1292 14.0501 -37.9171 -12.3443 
21.9742 -36.0814 -14.1292 21.9742 -37.9171 -13.2743 29.8983 -31.5138 -14.1292 
29.8983 -37.9171 -9.62023 -41.4189 -29.993 -7.9344 -33.4948 -26.1851 -14.1292 
-33.4948 -29.993 -12.8201 -25.5707 -28.5499 -14.1292 -25.5707 -29.993 -13.7827 
-17.6465 -27.5654 -14.1292 -17.6465 -29.993 -13.6339 -9.72237 -29.993 -12.8934 
-1.79823 -29.993 -12.7317 9.36766 -29.993 -14.1292 6.12591 -26.1827 -14.1292 
6.12591 -29.993 -13.5198 32.0112 -29.993 -14.1292 37.8225 -25.1352 -14.1292 
37.8225 -29.993 -11.0176 -37.6619 -22.0688 -14.1292 -41.4189 -18.8172 -14.1292 
-41.4189 -22.0688 -12.8416 -12.9477 -22.0688 -14.1292 -9.72237 -18.2885 -14.1292 
-9.72237 -22.0688 -13.3782 3.58472 -22.0688 -14.1292 -1.79823 -16.3224 -14.1292 
-1.79823 -22.0688 -12.7096 40.5975 -22.0688 -14.1292 45.7466 -17.379 -14.1292 
45.7466 -22.0688 -10.4429 -44.4208 -14.1447 -14.1292 -49.3431 -9.2984 -14.1292 
-49.3431 -14.1447 -10.3544 48.0213 -14.1447 -14.1292 53.6708 -14.1447 -8.06855 
-51.2194 -6.22055 -14.1292 50.964 -6.22055 -14.1292 53.6708 -6.22055 -12.3341 
-53.878 1.70359 -14.1292 -57.2672 1.70359 -8.50257 50.9033 1.70359 -14.1292 
53.6708 1.70359 -12.5844 -53.6349 9.62774 -14.1292 -57.2672 9.62774 -7.20312 
48.0891 9.62774 -14.1292 45.7466 13.5383 -14.1292 53.6708 9.62774 -10.8398 
-50.9996 17.5519 -14.1292 -49.3431 19.5957 -14.1292 29.8983 23.8393 -14.1292 
41.3982 17.5519 -14.1292 37.8225 19.8474 -14.1292 45.7466 17.5519 -12.8589 
53.6708 17.5519 -7.55148 -43.4898 25.476 -14.1292 -41.4189 27.3265 -14.1292 
-33.4948 32.8076 -14.1292 14.0501 31.5217 -14.1292 27.4476 25.476 -14.1292 
21.9742 27.4585 -14.1292 29.8983 25.476 -13.5527 37.8225 25.476 -11.4414 
45.7466 25.476 -7.25712 -41.4189 33.4002 -6.50236 -32.465 33.4002 -14.1292 
-33.4948 33.4002 -13.8757 -25.5707 36.9846 -14.1292 -9.72237 40.3864 -14.1292 
-1.79823 38.2142 -14.1292 10.4857 33.4002 -14.1292 6.12591 35.2625 -14.1292 
14.0501 33.4002 -12.8375 21.9742 33.4002 -9.89433 29.8983 33.4002 -7.19142 
-18.1132 41.3243 -14.1292 -25.5707 41.3243 -12.0982 -16.1507 41.3243 -14.1292 
-17.6465 41.4629 -14.1292 -9.72237 41.3243 -13.6106 -1.79823 41.3243 -11.8622 
6.12591 41.3243 -8.21717 -17.6465 -48.2246 -6.2051 -9.72237 -49.492 -6.2051 
-9.72237 -53.7654 -0.567649 -1.79823 -48.3829 -6.2051 6.12591 -46.9057 -6.2051 
14.0501 -46.1409 -6.2051 -33.4948 -39.7784 -6.2051 -22.6584 -45.8413 -6.2051 
-25.5707 -44.715 -6.2051 -25.5707 -45.8413 -4.5095 15.0229 -45.8413 -6.2051 
21.9742 -43.9409 -6.2051 29.8983 -40.503 -6.2051 -35.6614 -37.9171 -6.2051 
-41.4189 -32.35 -6.2051 33.4468 -37.9171 -6.2051 37.8225 -34.1105 -6.2051 
-43.1852 -29.993 -6.2051 41.8763 -29.993 -6.2051 45.7466 -25.8484 -6.2051 
-48.4522 -22.0688 -6.2051 -49.3431 -20.4736 -6.2051 -49.3431 -22.0688 -3.29471 
48.9037 -22.0688 -6.2051 53.6708 -15.9892 -6.2051 -52.4387 -14.1447 -6.2051 
54.9276 -14.1447 -6.2051 -55.8549 -6.22055 -6.2051 -57.2672 -1.56684 -6.2051 
58.4364 -6.22055 -6.2051 -58.214 1.70359 -6.2051 -57.2672 1.70359 -2.76615 
59.5458 1.70359 -6.2051 -57.6363 9.62774 -6.2051 -57.2672 10.7389 -6.2051 
-57.2672 9.62774 -4.98973 58.2033 9.62774 -6.2051 -54.826 17.5519 -6.2051 
-49.3431 25.2402 -6.2051 54.7643 17.5519 -6.2051 53.6708 19.045 -6.2051 
-49.1431 25.476 -6.2051 37.8225 31.7776 -6.2051 47.1466 25.476 -6.2051 
45.7466 26.5828 -6.2051 -41.6762 33.4002 -6.2051 -41.4189 33.6805 -6.2051 
-33.4948 41.2394 -6.2051 14.0501 39.5846 -6.2051 21.9742 36.8219 -6.2051 
33.0158 33.4002 -6.2051 29.8983 34.3265 -6.2051 37.8225 33.4002 -3.45956 
-33.3859 41.3243 -6.2051 -33.4948 41.3243 -5.90561 -25.5707 46.8258 -6.2051 
-17.6465 48.2085 -6.2051 -9.72237 48.1757 -6.2051 -1.79823 45.8743 -6.2051 
9.96154 41.3243 -6.2051 6.12591 42.8731 -6.2051 14.0501 41.3243 -3.50436 
21.9742 41.3243 0.729202 -17.6465 49.2484 -2.91748 -9.72237 49.2484 -3.11282 
-9.72237 -54.6931 1.71904 -25.5707 -49.3377 1.71904 -14.3441 -53.7654 1.71904 
-17.6465 -53.0863 1.71904 -2.65701 -53.7654 1.71904 -9.72237 -53.7654 5.08566 
-1.79823 -53.6385 1.71904 6.12591 -51.5678 1.71904 14.0501 -48.8922 1.71904 
-30.5684 -45.8413 1.71904 -33.4948 -43.4685 1.71904 21.0854 -45.8413 1.71904 
14.0501 -45.8413 9.50926 21.9742 -45.4182 1.71904 29.8983 -40.3557 1.71904 
-39.2335 -37.9171 1.71904 -41.4189 -35.4715 1.71904 32.8653 -37.9171 1.71904 
29.8983 -37.9171 5.69687 37.8225 -33.2899 1.71904 -45.7828 -29.993 1.71904 
-49.3431 -24.2434 1.71904 40.9693 -29.993 1.71904 37.8225 -29.993 5.95719 
45.7466 -25.0439 1.71904 -50.5241 -22.0688 1.71904 -49.3431 -22.0688 5.89787 
48.4699 -22.0688 1.71904 45.7466 -22.0688 5.80572 53.6708 -15.9566 1.71904 
-53.6875 -14.1447 1.71904 54.9768 -14.1447 1.71904 53.6708 -14.1447 4.32084 
-55.3329 -6.22055 1.71904 59.1211 -6.22055 1.71904 -55.9994 1.70359 1.71904 
60.461 1.70359 1.71904 -55.1753 9.62774 1.71904 60.1483 9.62774 1.71904 
-51.916 17.5519 1.71904 -49.3431 22.0645 1.71904 -49.3431 17.5519 5.26545 
57.6932 17.5519 1.71904 53.6708 23.5792 1.71904 -47.1845 25.476 1.71904 
-41.4189 25.476 9.1307 52.0797 25.476 1.71904 45.7466 31.0639 1.71904 
-41.877 33.4002 1.71904 -41.4189 33.9931 1.71904 -41.4189 33.4002 2.56289 
29.8983 38.7885 1.71904 41.9428 33.4002 1.71904 37.8225 35.6686 1.71904 
-35.4482 41.3243 1.71904 -33.4948 43.3417 1.71904 -33.4948 41.3243 5.9716 
-25.5707 48.6678 1.71904 -1.79823 48.6094 1.71904 6.12591 46.2612 1.71904 
14.0501 43.9892 1.71904 23.4141 41.3243 1.71904 21.9742 41.8399 1.71904 
-23.1283 49.2484 1.71904 -17.6465 50.4851 1.71904 -17.6465 49.2484 7.15192 
-4.27291 49.2484 1.71904 -9.72237 50.6365 1.71904 -9.72237 49.2484 8.2815 
-25.5707 -46.1651 9.64319 -17.6465 -49.1879 9.64319 -9.72237 -51.8537 9.64319 
-1.79823 -51.1351 9.64319 6.12591 -48.2495 9.64319 -25.9978 -45.8413 9.64319 
-33.4948 -39.4496 9.64319 -25.5707 -45.8413 9.95797 -17.6465 -45.8413 12.3972 
-9.72237 -45.8413 13.7134 -1.79823 -45.8413 13.6288 13.8326 -45.8413 9.64319 
6.12591 -45.8413 12.4424 14.0501 -45.76 9.64319 21.9742 -40.918 9.64319 
-35.1839 -37.9171 9.64319 -41.4189 -31.4212 9.64319 -33.4948 -37.9171 10.9384 
-25.5707 -37.9171 13.3195 -17.6465 -37.9171 15.5871 -1.79823 -37.9171 16.4487 
6.12591 -37.9171 16.5379 14.0501 -37.9171 14.8412 25.8396 -37.9171 9.64319 
21.9742 -37.9171 11.8041 29.8983 -34.2812 9.64319 -42.6269 -29.993 9.64319 
-41.4189 -29.993 10.7636 -33.4948 -29.993 14.1952 -25.5707 -29.993 16.3614 
-17.6465 -29.993 16.8815 -1.79823 -29.993 17.3327 6.12591 -29.993 17.2736 
14.0501 -29.993 17.0773 21.9742 -29.993 15.566 34.1024 -29.993 9.64319 
29.8983 -29.993 12.2907 37.8225 -25.8999 9.64319 -47.7222 -22.0688 9.64319 
-49.3431 -18.351 9.64319 -41.4189 -22.0688 13.9972 -25.5707 -22.0688 17.3662 
-17.6465 -22.0688 17.1179 -9.72237 -22.0688 16.9763 -1.79823 -22.0688 17.0217 
21.9742 -22.0688 17.4621 29.8983 -22.0688 15.3195 41.6828 -22.0688 9.64319 
37.8225 -22.0688 11.809 45.7466 -18.1317 9.64319 -50.6445 -14.1447 9.64319 
-49.3431 -14.1447 11.1256 -41.4189 -14.1447 16.0386 -17.6465 -14.1447 16.7694 
-9.72237 -14.1447 16.4486 -1.79823 -14.1447 16.575 29.8983 -14.1447 16.9647 
37.8225 -14.1447 15.3933 49.3195 -14.1447 9.64319 45.7466 -14.1447 12.1613 
53.6708 -8.71846 9.64319 -50.9253 -6.22055 9.64319 -49.3431 -6.22055 11.3392 
-41.4189 -6.22055 16.1933 -25.5707 -6.22055 17.5287 -17.6465 -6.22055 16.2287 
[...]
POINT_DATA 552
SCALARS ImageScalars float
LOOKUP_TABLE default
0 0 0 0 0 0 0 0 0 
0 0 0 0 0 0 0 0 0 
0 0 0 0 0 0 0 0 0 
0 0 0 0 0 0 0 0 0 
0 0 0 0 0 0 0 0 0 
0 0 0 0 0 0 0 0 0 
0 0 0 0 0 0 0 0 0 
0 0 0 0 0 0 0 0 0 
0 0 0 0 0 0 0 0 0 
0 0 0 0 0 0 0 0 0 
0 0 0 0 0 0 0 0 0 
0 0 0 0 0 0 0 0 0 
0 0 0 0 0 0 0 0 0 
0 0 0 0 0 0 0 0 0 
0 0 0 0 0 0 0 0 0 
0 0 0 0 0 0 0 0 0 
0 0 0 0 0 0 0 0 0 
0 0 0 0 0 0 0 0 0 
0 0 0 0 0 0 0 0 0 
0 0 0 0 0 0 0 0 0 
0 0 0 0 0 0 0 0 0 
0 0 0 0 0 0 0 0 0 
0 0 0 0 0 0 0 0 0 
0 0 0 0 0 0 0 0 0 
0 0 0 0 0 0 0 0 0 
0 0 0 0 0 0 0 0 0 
0 0 0 0 0 0 0 0 0 
0 0 0 0 0 0 0 0 0 
0 0 0 0 0 0 0 0 0 
0 0 0 0 0 0 0 0 0 
0 0 0 0 0 0 0 0 0 
0 0 0 0 0 0 0 0 0 
0 0 0 0 0 0 0 0 0 
0 0 0 0 0 0 0 0 0 
0 0 0 0 0 0 0 0 0 
0 0 0 0 0 0 0 0 0 
0 0 0 0 0 0 0 0 0 
0 0 0 0 0 0 0 0 0 
0 0 0 0 0 0 0 0 0 
0 0 0 0 0 0 0 0 0 
0 0 0 0 0 0 0 0 0 
0 0 0 0 0 0 0 0 0 
0 0 0 0 0 0 0 0 0 
0 0 0 0 0 0 0 0 0 
0 0 0 0 0 0 0 0 0 
0 0 0 0 0 0 0 0 0 
0 0 0 0 0 0 0 0 0 
0 0 0 0 0 0 0 0 0 
0 0 0 0 0 0 0 0 0 
0 0 0 0 0 0 0 0 0 
0 0 0 0 0 0 0 0 0 
0 0 0 0 0 0 0 0 0 
0 0 0 0 0 0 0 0 0 
0 0 0 0 0 0 0 0 0 
0 0 0 0 0 0 0 0 0 
0 0 0 0 0 0 0 0 0 
0 0 0 0 0 0 0 0 0 
0 0 0 0 0 0 0 0 0 
0 0 0 0 0 0 0 0 0 
0 0 0 0 0 0 0 0 0 
0 0 0 0 0 0 0 0 0 
0 0 0 
NORMALS Normals float
0.163022 0.225855 0.960424 -0.0083887 0.253751 0.967233 -0.250749 0.350234 0.902475 
0.165801 0.263894 0.950195 -0.0089502 0.202886 0.979162 -0.147408 0.142121 0.978812 
0.22381 0.0977418 0.969719 0.172817 0.0549334 0.983421 0.0381948 0.0871473 0.995463 
-0.123832 0.200899 0.971754 -0.299257 0.343048 0.890373 0.307348 0.353985 0.883307 
0.0733719 0.220971 0.972517 -0.077886 0.159488 0.984123 -0.125223 0.0707984 0.989599 
-0.0665783 0.22753 0.971492 0.00814102 0.350047 0.936697 0.0689321 0.143756 0.987209 
0.143315 -0.0296714 0.989232 0.143863 -0.0385225 0.988847 0.00607871 0.0751354 0.997155 
-0.171915 0.143957 0.974537 -0.42386 0.264825 0.866147 0.547033 0.315089 0.775548 
0.190863 0.233788 0.95337 -0.0117732 0.170656 0.98526 -0.169205 0.116063 0.978723 
-0.0880901 0.0935989 0.991705 0.0811526 0.263182 0.961327 -0.00139408 0.0985282 0.995133 
-0.122363 0.14177 0.982308 -0.00232958 -0.0598157 0.998207 0.141564 -0.063439 0.987894 
0.0642703 -0.0503413 0.996662 -0.0835898 0.014456 0.996395 -0.288805 0.0568705 0.955697 
0.448237 0.124798 0.88516 0.125563 0.0732786 0.989376 -0.0623789 0.0573997 0.996401 
-0.161443 0.03409 0.986293 0.0242118 0.0834674 0.996216 0.0353366 0.254274 0.966486 
-0.146412 0.163791 0.97557 -0.130711 0.0661735 0.98921 -0.0550524 0.0538845 0.997028 
0.153819 -0.0382523 0.987358 0.0848291 -0.0242478 0.9961 -0.066783 -0.0692976 0.995358 
-0.270521 -0.0800143 0.959383 0.456202 -0.136931 0.879278 0.124517 -0.105974 0.986542 
-0.0456964 -0.0738078 0.996225 -0.145604 -0.0346456 0.988736 0.0794254 0.0130812 0.996755 
0.169791 -0.137031 0.975906 -0.178427 0.044781 0.982934 -0.191073 0.0963405 0.976836 
-0.104549 0.189792 0.976242 0.0643521 0.0187687 0.997751 0.0296451 -0.0952974 0.995007 
-0.142744 -0.155692 0.977437 -0.316312 -0.193241 0.928765 0.518422 -0.412854 0.748859 
0.197097 -0.266845 0.94337 0.0142162 -0.186943 0.982268 -0.0748051 -0.10113 0.992057 
0.00447771 0.000258743 0.99999 0.0585403 -0.123957 0.990559 0.0381517 -0.0958237 0.994667 
-0.0276529 0.00327406 0.999612 -0.144643 0.0415518 0.988611 -0.130199 -0.0669103 0.989228 
-0.0946234 -0.232436 0.967998 -0.171425 -0.311212 0.934752 0.354015 -0.474761 0.805776 
0.1167 -0.310463 0.943395 0.054869 -0.160615 0.985491 0.0684233 -0.0574456 0.996001 
0.0344835 -0.0641772 0.997343 -0.0172209 -0.104355 0.994391 -0.0562705 -0.202316 0.977702 
-0.178538 -0.279893 0.943284 -0.214288 -0.344488 0.914007 0.172386 -0.298223 0.9388 
0.100116 -0.212577 0.972002 0.00569111 -0.267947 0.963417 -0.108527 -0.329101 0.938038 
-0.206012 -0.474886 0.855595 0.0711774 -0.494872 0.866046 0.14584 0.520184 0.84151 
0.000796768 0.466998 0.884258 -0.0669198 0.508983 0.858171 -0.0693415 0.631555 0.772224 
-0.158657 0.782003 0.602744 0.49509 0.567181 0.658173 0.209587 0.43818 0.874112 
0.0307754 0.367766 0.929409 -0.0140207 0.285431 0.958297 0.0161269 0.294232 0.955598 
0.0471379 0.361083 0.931341 0.136676 0.29747 0.944898 0.0616241 0.456096 0.887795 
-0.0587791 0.449357 0.891417 -0.0887555 0.537218 0.83876 -0.281874 0.393524 0.875035 
-0.476209 0.70231 0.529137 0.60979 0.523255 0.595282 0.214824 0.329452 0.919408 
0.284979 0.404511 0.868998 0.0262998 0.259491 0.965387 0.0363765 0.271861 0.961649 
-0.0832753 0.18302 0.979576 -0.056056 0.203998 0.977365 -0.0548151 0.0955477 0.993914 
0.0397192 0.066614 0.996988 0.15633 0.187303 0.969783 0.18356 0.129651 0.974421 
0.146007 0.159365 0.976363 -0.311762 0.393403 0.864892 -0.365647 0.411207 0.834991 
-0.554043 0.587889 0.589426 0.301482 0.318419 0.898731 0.377722 0.361268 0.852532 
0.441087 0.379928 0.813078 -0.152362 0.133522 0.979264 -0.123053 0.170828 0.977587 
-0.155603 0.12419 0.979982 0.180369 0.106214 0.977847 0.0339794 0.276689 0.960359 
0.0822541 0.111814 0.990319 -0.376404 0.409986 0.830801 -0.471563 0.366233 0.802186 
-0.622442 0.577652 0.528094 0.433891 0.403333 0.805643 0.589264 0.378076 0.714021 
0.697115 0.454888 0.554173 -0.520444 0.292375 0.802281 -0.79705 0.456943 0.394859 
0.642125 0.331521 0.691209 -0.523198 0.127582 0.842607 -0.68735 0.194348 0.699842 
0.718432 0.134487 0.682473 0.971516 0.123577 0.2022 -0.457459 -0.0843174 0.885224 
-0.605843 -0.0795007 0.791602 0.729687 -0.154517 0.666094 0.976077 -0.198073 0.089674 
-0.393295 -0.197312 0.89799 -0.324506 -0.292421 0.899548 -0.637867 -0.221684 0.737551 
0.617105 -0.415864 0.668011 0.561808 -0.475726 0.676798 -0.185553 -0.395559 0.899502 
-0.241233 -0.348402 0.905772 -0.206712 -0.363601 0.908331 -0.34568 -0.407636 0.845185 
-0.693595 -0.457282 0.556613 0.433633 -0.522754 0.733955 0.400151 -0.525342 0.750929 
0.322832 -0.43571 0.8402 -0.253261 -0.52095 0.81515 -0.210681 -0.411666 0.886648 
-0.228445 -0.418142 0.879187 -0.209805 -0.447247 0.869455 -0.29062 -0.52006 0.803167 
-0.473897 -0.63186 0.613331 0.672913 -0.670524 0.312388 0.317987 -0.427507 0.84624 
0.345541 -0.451667 0.822556 0.238134 -0.375952 0.895518 -0.0942509 -0.523828 0.846594 
-0.176885 -0.518918 0.836323 -0.24456 -0.541979 0.80402 -0.233537 -0.537585 0.810224 
-0.271387 -0.598555 0.753711 -0.255131 -0.663091 0.703717 -0.244898 -0.715092 0.654728 
0.0852486 -0.494732 0.864854 0.335378 -0.522935 0.78362 0.0370232 -0.5084 0.860325 
0.0698529 -0.501562 0.862297 -0.108038 -0.566846 0.816709 -0.233225 -0.66437 0.710083 
-0.320271 -0.75079 0.577704 0.200404 0.609836 0.766771 0.00885448 0.617404 0.786597 
0.0329791 0.965268 0.259173 -0.105354 0.611941 0.783855 -0.0956063 0.671131 0.735148 
-0.168616 0.793517 0.584722 0.528817 0.612079 0.587972 0.272749 0.665859 0.694435 
0.313794 0.71209 0.628061 0.385429 0.778203 0.495827 -0.182039 0.804768 0.564986 
-0.282071 0.873061 0.397743 -0.505034 0.813438 0.288545 0.56767 0.59803 0.565784 
0.644946 0.573423 0.505204 -0.588521 0.762999 0.267351 -0.66051 0.711306 0.240354 
0.674334 0.539593 0.504096 -0.702669 0.675223 0.224346 -0.730112 0.644647 0.226644 
0.771553 0.449215 0.450457 0.788983 0.442987 0.425757 0.851358 0.45258 0.265255 
-0.743958 0.628733 0.226319 -0.809141 0.521254 0.271267 0.831749 0.418255 0.365042 
-0.830578 0.476768 0.287806 0.926469 0.320997 0.196511 0.975044 0.190219 0.114483 
-0.893806 0.279112 0.351009 0.99179 0.108726 0.0673145 0.989172 0.0591693 -0.134303 
-0.917365 -0.00757733 0.397975 0.979859 -0.196792 0.0338931 0.974571 -0.222084 0.029829 
0.978295 -0.203855 -0.0371786 -0.828167 -0.253485 0.499884 0.904637 -0.425225 0.0285491 
0.744712 -0.654577 0.130131 -0.729374 -0.47041 0.496717 -0.705424 -0.50272 0.49965 
0.740401 -0.658611 0.134303 -0.330193 -0.737615 0.588979 -0.513807 -0.642229 0.56881 
-0.487834 -0.655511 0.576475 0.68132 -0.671259 0.291914 0.679299 -0.671334 0.296419 
0.570997 -0.706553 0.418024 -0.298017 -0.76578 0.569883 -0.252553 -0.757167 0.602425 
-0.278643 -0.745295 0.605718 -0.250344 -0.742882 0.620849 -0.369534 -0.821574 0.43412 
0.568797 -0.707208 0.419914 0.580131 -0.709324 0.400385 0.32844 -0.839495 0.432869 
0.0696772 -0.889346 0.451895 -0.128522 -0.870597 0.474913 -0.274515 -0.838714 0.47032 
-0.315352 -0.780036 0.54046 -0.32538 -0.796017 0.510377 -0.29824 -0.846258 0.441475 
-0.305015 -0.909051 0.283888 0.090744 -0.962903 0.254131 -0.126379 -0.948327 0.291041 
0.035989 0.996714 0.0725703 0.512702 0.857709 0.0383584 0.195894 0.979323 0.0505114 
0.29765 0.953936 0.0375619 -0.173729 0.981815 0.0765293 0.0486187 0.976764 -0.20873 
-0.197345 0.977187 0.0784906 -0.282796 0.958066 0.046217 -0.358572 0.93336 -0.0162936 
0.608823 0.793061 -0.0197239 0.655113 0.753884 -0.0498569 -0.44196 0.894211 -0.0711271 
-0.317135 0.747683 -0.583434 -0.455287 0.886197 -0.0858378 -0.598026 0.768463 -0.227663 
0.731999 0.678985 -0.0561897 0.762101 0.64465 -0.060237 -0.625083 0.739534 -0.249722 
-0.583278 0.683091 -0.439515 -0.667419 0.690878 -0.277919 0.817555 0.57471 -0.0362382 
0.883105 0.46824 -0.0296277 -0.699164 0.656546 -0.283049 -0.632686 0.59854 -0.491384 
-0.707357 0.654598 -0.266735 0.901706 0.431407 -0.028531 0.858342 0.430026 -0.279869 
-0.714145 0.653958 -0.249671 -0.638686 0.61416 -0.46356 -0.795501 0.5664 -0.215334 
0.95031 0.293784 -0.102965 -0.822888 0.528445 -0.20881 -0.771556 0.536368 -0.342069 
0.958168 0.136735 -0.25143 -0.925908 0.341213 -0.162074 0.913681 -0.00915044 -0.406329 
-0.989891 0.0542141 -0.131063 0.867387 -0.229079 -0.441773 -0.985407 -0.161347 -0.0542241 
0.803631 -0.400014 -0.440643 0.750358 -0.510784 -0.419598 0.701649 -0.415724 -0.578672 
-0.896804 -0.442406 0.00442939 -0.788996 -0.61304 0.040823 0.747931 -0.543415 -0.381182 
0.649592 -0.330006 -0.684928 -0.738231 -0.671741 0.0614727 -0.583275 -0.802334 0.126687 
0.78765 -0.578198 -0.212826 0.785961 -0.582056 -0.208508 0.781472 -0.570045 -0.253674 
-0.344851 -0.915993 0.205022 -0.501002 -0.853448 0.143609 -0.418373 -0.891288 0.174839 
0.740553 -0.664115 -0.102625 0.701843 -0.707867 -0.0796288 0.713452 -0.614059 -0.337516 
0.365634 -0.929419 -0.0499242 -0.26593 -0.9615 0.0692687 -0.284276 -0.950719 0.123778 
-0.276594 -0.940401 0.197844 -0.318451 -0.918738 0.233473 -0.309217 -0.920874 0.237437 
0.282757 -0.958824 -0.0265648 0.115886 -0.993137 0.0157992 0.14771 -0.944823 -0.292389 
-0.218882 -0.973942 0.0594017 -0.115751 -0.992683 0.0343933 -0.0857368 -0.929448 -0.358852 
0.44193 0.64993 -0.618295 0.295208 0.683077 -0.668025 0.0739774 0.783657 -0.616772 
-0.175846 0.799014 -0.575026 -0.278183 0.767808 -0.577136 0.448666 0.642992 -0.620693 
0.512188 0.596675 -0.617772 0.440935 0.632797 -0.63651 0.230576 0.529724 -0.816228 
0.0572548 0.515369 -0.855054 -0.0567099 0.526761 -0.84812 -0.31408 0.741581 -0.592799 
-0.224137 0.655717 -0.72097 -0.314987 0.739662 -0.594713 -0.440371 0.618024 -0.651245 
0.530383 0.591562 -0.607247 0.61819 0.540118 -0.571064 0.473757 0.565457 -0.675139 
0.263023 0.358085 -0.895876 0.259926 0.235587 -0.936449 -0.0605227 0.218518 -0.973954 
-0.0949428 0.215844 -0.971801 -0.258897 0.392061 -0.882757 -0.477766 0.569386 -0.668984 
-0.402241 0.5118 -0.75912 -0.507701 0.527776 -0.680949 0.635047 0.524376 -0.567225 
0.585411 0.506438 -0.633098 0.300085 0.370642 -0.878962 0.158025 0.23893 -0.958092 
0.094262 0.0888304 -0.991576 -0.0400098 0.0393538 -0.998424 -0.0151871 0.0647379 -0.997787 
-0.103545 0.209749 -0.972257 -0.260142 0.305269 -0.916044 -0.525907 0.48699 -0.697326 
-0.44589 0.413131 -0.794044 -0.503728 0.488956 -0.712166 0.731515 0.394071 -0.556412 
0.786499 0.285408 -0.547688 0.474475 0.298092 -0.82826 -0.0293607 0.0735232 -0.996861 
-0.0242583 -0.00729117 -0.999679 -0.00606278 -0.0911613 -0.995818 0.0441799 -0.0479024 -0.997874 
-0.168528 0.123285 -0.977957 -0.312377 0.255858 -0.914854 -0.499794 0.501928 -0.705885 
-0.423208 0.431221 -0.796834 -0.522212 0.515423 -0.679437 0.808391 0.156799 -0.567378 
0.750411 0.146084 -0.644626 0.344609 0.125266 -0.930351 -0.0731429 -0.0530814 -0.995908 
-0.0122486 -0.0355687 -0.999292 0.079514 0.01079 -0.996775 -0.136241 0.167536 -0.976407 
-0.252842 0.330293 -0.909383 -0.565897 0.489602 -0.663363 -0.455888 0.448975 -0.768497 
-0.677445 0.413224 -0.608535 0.750991 0.0172089 -0.660089 0.690747 0.00157877 -0.723095 
0.335649 -0.0475738 -0.940785 -0.0869322 -0.0270366 -0.995847 -0.0744926 -0.0469475 -0.996116 
0.0644609 0.117578 -0.990969 0.108684 -0.0181161 -0.993911 -0.329664 0.269071 -0.904943 
-0.716543 0.363932 -0.59508 -0.648062 0.358351 -0.672012 0.693881 -0.0703783 -0.716642 
0.625195 -0.0794863 -0.776411 0.34042 -0.143988 -0.929183 0.112738 -0.0987301 -0.988708 
-0.0648623 -0.0401154 -0.997088 0.0576798 0.0256631 -0.998005 -0.0341134 0.0581404 -0.997725 
-0.320037 0.108245 -0.941201 -0.811647 0.114955 -0.572726 -0.605155 0.119297 -0.787118 
0.628479 -0.245089 -0.738204 0.621836 -0.255642 -0.740248 0.619281 -0.247002 -0.745306 
0.358557 -0.184008 -0.915193 0.186197 -0.0984947 -0.977563 0.0289484 -0.00980276 -0.999533 
-0.0520578 0.0753228 -0.995799 0.0834402 -0.089585 -0.992478 -0.312811 -0.0519267 -0.948395 
-0.822512 -0.108405 -0.558321 -0.63727 -0.062843 -0.768074 0.55357 -0.315424 -0.770758 
0.622215 -0.312471 -0.717782 0.492635 -0.251412 -0.833128 0.285604 -0.109268 -0.952098 
0.106255 -0.0202487 -0.994133 -0.0185818 0.0699442 -0.997378 0.0656806 0.155346 -0.985674 
-0.352772 -0.191983 -0.915803 -0.799203 -0.379633 -0.465998 -0.759203 -0.460462 -0.459985 
-0.720386 -0.377183 -0.582046 0.628181 -0.313276 -0.712212 0.408088 -0.183395 -0.894332 
0.203336 -0.0570052 -0.977448 -0.226242 -0.295728 -0.928095 -0.694766 -0.574517 -0.432701 
-0.605303 -0.688163 -0.400049 -0.529947 -0.480127 -0.699024 0.616968 -0.411012 -0.671133 
0.630169 -0.466441 -0.620741 0.565268 -0.353123 -0.745504 0.314248 -0.119751 -0.941758 
-0.0629741 -0.29236 -0.954233 -0.118941 -0.403445 -0.90724 -0.344684 -0.876149 -0.33698 
-0.238517 -0.574772 -0.782781 -0.516155 -0.784948 -0.342696 -0.459465 -0.826499 -0.325256 
-0.432832 -0.73099 -0.52755 0.60508 -0.546324 -0.579144 0.428627 -0.714608 -0.552824 
0.389251 -0.48594 -0.782525 0.162645 -0.866387 -0.472144 0.110345 -0.412096 -0.904434 
-0.0752431 -0.888612 -0.452447 0.0212361 -0.429021 -0.903045 -0.194365 -0.889256 -0.41406 
-0.10126 -0.52008 -0.848094 -0.218047 -0.892936 -0.393854 -0.177888 -0.64065 -0.746943 
-0.239269 -0.895647 -0.374922 -0.218761 -0.786924 -0.57697 -0.289245 -0.889174 -0.354552 
-0.28157 -0.889315 -0.360329 -0.276801 -0.879817 -0.386397 0.0351745 0.246507 -0.968503 
0.043721 0.241441 -0.96943 0.0306427 0.240844 -0.97008 0.0354697 0.241733 -0.969694 
0.18019 0.201479 -0.962776 0.0478912 0.000448296 -0.998852 -0.012772 0.00679545 -0.999895 
0.0150546 -0.0589511 -0.998147 0.0265621 -0.0375939 -0.99894 0.0520042 0.0392181 -0.997877 
-0.0652706 0.152175 -0.986196 0.181614 0.200502 -0.962712 0.152098 0.18376 -0.971132 
0.179052 0.199741 -0.96335 -0.0526832 0.0211374 -0.998388 0.0733295 0.0148218 -0.997198 
0.0795628 0.0295859 -0.996391 -0.148941 0.116413 -0.98197 -0.0150701 0.0671665 -0.997628 
-0.125001 0.0726281 -0.989495 0.112694 0.0161208 -0.993499 0.0957729 0.0087734 -0.995365 
-0.0582533 0.00689939 -0.998278 -0.0730705 -0.0097359 -0.997279 -0.0574724 0.00991529 -0.998298 
0.102063 0.0251288 -0.99446 0.105565 0.0265191 -0.994059 -0.00410436 -0.0237512 -0.999709 
-0.0862072 0.0399262 -0.995477 -0.0772348 0.0175538 -0.996858 -0.0681998 0.147809 -0.986662 
-0.13766 0.20172 -0.969721 0.102253 -0.0384643 -0.994014 -0.0549043 -0.0292112 -0.998064 
0.0846025 -0.0528883 -0.99501 0.0751982 -0.0377746 -0.996453 0.0405374 0.0340617 -0.998597 
0.085479 -0.00398924 -0.996332 0.0361781 0.0184936 -0.999174 -0.0236678 -0.0153504 -0.999602 
0.0150845 0.0492725 -0.998671 -0.00953674 0.131874 -0.991221 -0.137773 0.201651 -0.969719 
-0.137521 0.20157 -0.969772 0.0383237 -0.013291 -0.999177 0.00564501 0.000467857 -0.999984 
0.0460545 -0.053812 -0.997488 0.030518 -0.0313778 -0.999042 0.082507 0.09302 -0.99224 
0.165576 0.111117 -0.979917 0.111983 0.103161 -0.988341 0.0289391 0.0133981 -0.999491 
0.0721789 0.0667082 -0.995158 0.0283612 0.0861547 -0.995878 -0.279607 0.107901 -0.954032 
-0.11138 0.104514 -0.988267 0.197128 0.0739106 -0.977588 0.224608 0.123262 -0.966622 
-0.0043064 0.0400636 -0.999188 -0.0472614 0.0217024 -0.998647 0.0877666 0.036631 -0.995467 
0.0307718 0.034172 -0.998942 -0.310497 -0.0516681 -0.949169 -0.112424 -0.0279893 -0.993266 
0.0745723 0.0352704 -0.996592 0.0991784 0.0991896 -0.990114 0.0665067 0.137222 -0.988305 
0.125259 0.0444473 -0.991128 0.00019976 -0.0426147 -0.999092 0.0181873 0.0214391 -0.999605 
0.0872562 -0.00463201 -0.996175 -0.0335427 -0.0838809 -0.995911 -0.254741 -0.154448 -0.954596 
-0.209144 -0.213908 -0.954202 -0.196117 -0.131686 -0.971698 0.130016 0.00978131 -0.991464 
0.119997 0.0182057 -0.992607 0.0666868 0.116205 -0.990984 0.0244247 0.0272428 -0.99933 
-0.0220791 -0.0360824 -0.999105 -0.0436036 -0.225403 -0.973289 -0.00591141 -0.0644962 -0.9979 
-0.0983515 -0.341442 -0.934743 -0.0235664 -0.111243 -0.993514 -0.150805 -0.270652 -0.950792 
-0.126395 -0.296949 -0.946491 -0.10765 -0.262504 -0.958907 0.15623 -0.123742 -0.979939 
0.153523 -0.126827 -0.979972 0.154203 -0.124184 -0.980204 0.0543385 -0.268391 -0.961776 
0.0744851 -0.125156 -0.989337 -0.0537113 -0.305966 -0.950526 -0.0311252 -0.155861 -0.987289 
-0.0725438 -0.26444 -0.96167 -0.110074 -0.288813 -0.951037 -0.0935191 -0.222807 -0.970367 

