# vtk DataFile Version 4.2
vtk output
ASCII
DATASET POLYDATA
POINTS 534 float
18.2572 -35.931 -14.6875 26.0165 -35.931 -14.5875 -36.0575 -28.1718 -15.8731 
-28.2983 -28.1718 -17.078 -20.539 -28.1718 -17.5875 -12.7798 -28.1718 -16.8675 
-5.02053 -28.1718 -15.8657 2.73871 -28.1718 -16.601 10.498 -28.1718 -17.8262 
18.2572 -28.1718 -18.5685 26.0165 -28.1718 -18.6926 33.7757 -28.1718 -17.9327 
41.535 -28.1718 -15.8065 -43.8168 -20.4125 -16.682 -36.0575 -20.4125 -18.2565 
-28.2983 -20.4125 -19.3646 -20.539 -20.4125 -18.5705 -12.7798 -20.4125 -17.6797 
-5.02053 -20.4125 -17.3985 2.73871 -20.4125 -18.6231 10.498 -20.4125 -19.5725 
18.2572 -20.4125 -19.7953 26.0165 -20.4125 -20.1566 33.7757 -20.4125 -20.3615 
41.535 -20.4125 -19.3807 49.2942 -20.4125 -15.4287 -51.576 -12.6533 -14.3516 
-43.8168 -12.6533 -18.2971 -36.0575 -12.6533 -19.4656 -28.2983 -12.6533 -19.2805 
-20.539 -12.6533 -18.4881 -12.7798 -12.6533 -17.8936 -5.02053 -12.6533 -18.3059 
2.73871 -12.6533 -19.9372 10.498 -12.6533 -19.7628 18.2572 -12.6533 -19.3723 
26.0165 -12.6533 -20.0908 33.7757 -12.6533 -20.5823 41.535 -12.6533 -19.8456 
49.2942 -12.6533 -17.4275 -51.576 -4.89403 -16.1098 -43.8168 -4.89403 -19.0471 
-36.0575 -4.89403 -20.1512 -28.2983 -4.89403 -19.9157 -20.539 -4.89403 -18.4123 
-12.7798 -4.89403 -18.9768 -5.02053 -4.89403 -19.6997 2.73871 -4.89403 -18.9299 
10.498 -4.89403 -20.4078 18.2572 -4.89403 -18.7344 26.0165 -4.89403 -19.7599 
33.7757 -4.89403 -20.5483 41.535 -4.89403 -20.4865 49.2942 -4.89403 -18.3762 
-51.576 2.86522 -16.3951 -43.8168 2.86522 -19.4323 -36.0575 2.86522 -20.3874 
-28.2983 2.86522 -20.0003 -20.539 2.86522 -19.1982 -12.7798 2.86522 -20.5537 
-5.02053 2.86522 -20.1831 2.73871 2.86522 -19.4908 10.498 2.86522 -21.6898 
18.2572 2.86522 -18.5799 26.0165 2.86522 -19.3811 33.7757 2.86522 -20.1327 
41.535 2.86522 -19.8358 49.2942 2.86522 -17.8896 -51.576 10.6245 -15.1083 
-43.8168 10.6245 -19.5852 -36.0575 10.6245 -20.7235 -28.2983 10.6245 -20.579 
-20.539 10.6245 -19.6007 -12.7798 10.6245 -19.0809 -5.02053 10.6245 -19.6258 
2.73871 10.6245 -19.7855 10.498 10.6245 -19.469 18.2572 10.6245 -18.5865 
26.0165 10.6245 -19.3835 33.7757 10.6245 -19.695 41.535 10.6245 -18.8583 
49.2942 10.6245 -16.6584 -43.8168 18.3837 -16.8254 -36.0575 18.3837 -18.8393 
-28.2983 18.3837 -19.3743 -20.539 18.3837 -19.01 -12.7798 18.3837 -18.6289 
-5.02053 18.3837 -18.5115 2.73871 18.3837 -18.699 10.498 18.3837 -18.5272 
18.2572 18.3837 -18.7602 26.0165 18.3837 -18.8759 33.7757 18.3837 -18.5174 
41.535 18.3837 -17.0662 -36.0575 26.143 -15.921 -28.2983 26.143 -17.3706 
-20.539 26.143 -18.0308 -12.7798 26.143 -17.7782 -5.02053 26.143 -18.2425 
2.73871 26.143 -18.372 10.498 26.143 -18.5586 18.2572 26.143 -18.1972 
26.0165 26.143 -17.8798 33.7757 26.143 -16.6878 -20.539 33.9022 -14.7607 
-12.7798 33.9022 -15.881 -5.02053 33.9022 -16.412 2.73871 33.9022 -16.6435 
10.498 33.9022 -16.4667 18.2572 33.9022 -16.1909 26.0165 33.9022 -14.7639 
18.2572 -36.3816 -14.2767 26.0165 -36.24 -14.2767 -36.0575 -31.0131 -14.2767 
-36.0575 -35.931 -10.1803 -28.2983 -35.9035 -14.2767 -28.2983 -35.931 -14.2618 
-20.539 -35.4011 -14.2767 -20.539 -35.931 -13.9752 -12.7798 -33.8148 -14.2767 
-12.7798 -35.931 -12.9868 -5.02053 -31.8193 -14.2767 -5.02053 -35.931 -12.0307 
2.73871 -32.9583 -14.2767 2.73871 -35.931 -12.3984 14.4615 -35.931 -14.2767 
10.498 -35.1596 -14.2767 10.498 -35.931 -13.7158 27.3422 -35.931 -14.2767 
33.7757 -33.936 -14.2767 33.7757 -35.931 -11.779 41.535 -30.2277 -14.2767 
-39.7632 -28.1718 -14.2767 -43.8168 -25.1858 -14.2767 -43.8168 -28.1718 -11.7937 
44.0714 -28.1718 -14.2767 49.2942 -22.4739 -14.2767 49.2942 -28.1718 -7.46142 
-47.6465 -20.4125 -14.2767 -51.576 -12.8523 -14.2767 -51.576 -20.4125 -9.96122 
50.7736 -20.4125 -14.2767 -51.6809 -12.6533 -14.2767 53.739 -12.6533 -14.2767 
57.0535 -12.6533 -10.247 -53.8156 -4.89403 -14.2767 55.7166 -4.89403 -14.2767 
57.0535 -4.89403 -12.8833 -54.0981 2.86522 -14.2767 55.1008 2.86522 -14.2767 
57.0535 2.86522 -12.3247 -52.621 10.6245 -14.2767 -51.576 12.519 -14.2767 
52.698 10.6245 -14.2767 49.2942 16.5076 -14.2767 57.0535 10.6245 -8.79068 
-47.6475 18.3837 -14.2767 -51.576 18.3837 -10.0958 -43.8168 22.9474 -14.2767 
47.474 18.3837 -14.2767 41.535 25.2482 -14.2767 49.2942 18.3837 -13.0715 
-39.712 26.143 -14.2767 -43.8168 26.143 -11.5895 -36.0575 28.4854 -14.2767 
-28.2983 32.4916 -14.2767 40.4855 26.143 -14.2767 33.7757 30.4695 -14.2767 
41.535 26.143 -13.7528 -36.0575 33.9022 -8.69735 -23.6917 33.9022 -14.2767 
-28.2983 33.9022 -13.2738 -20.539 34.637 -14.2767 -12.7798 36.9122 -14.2767 
-5.02053 37.8716 -14.2767 2.73871 38.1384 -14.2767 10.498 37.8234 -14.2767 
18.2572 36.8252 -14.2767 27.5799 33.9022 -14.2767 26.0165 34.5135 -14.2767 
33.7757 33.9022 -11.4195 -20.539 41.6615 -7.02392 -12.7798 41.6615 -10.2717 
-5.02053 41.6615 -11.5689 2.73871 41.6615 -11.6359 10.498 41.6615 -10.895 
18.2572 41.6615 -8.54669 -36.0575 -38.4039 -6.51747 -28.2983 -41.6458 -6.51747 
-20.539 -42.3943 -6.51747 -12.7798 -41.8781 -6.51747 -12.7798 -43.6903 0.751274 
-5.02053 -40.9446 -6.51747 2.73871 -40.8213 -6.51747 10.498 -41.2875 -6.51747 
18.2572 -41.474 -6.51747 26.0165 -40.7863 -6.51747 33.7757 -38.8887 -6.51747 
-39.8237 -35.931 -6.51747 -43.8168 -32.7201 -6.51747 40.724 -35.931 -6.51747 
41.535 -35.5202 -6.51747 49.2942 -28.6904 -6.51747 -48.2189 -28.1718 -6.51747 
-51.576 -23.8795 -6.51747 49.765 -28.1718 -6.51747 49.2942 -28.1718 -2.41162 
-53.8614 -20.4125 -6.51747 55.6425 -20.4125 -6.51747 57.0535 -17.5406 -6.51747 
-57.4927 -12.6533 -6.51747 58.9659 -12.6533 -6.51747 -58.9282 -4.89403 -6.51747 
-59.3353 -4.89403 1.03336 60.7877 -4.89403 -6.51747 -58.9424 2.86522 -6.51747 
-59.3353 2.86522 -0.381279 60.5253 2.86522 -6.51747 -57.6221 10.6245 -6.51747 
58.4228 10.6245 -6.51747 57.0535 14.0036 -6.51747 -53.7862 18.3837 -6.51747 
-51.576 21.7085 -6.51747 54.851 18.3837 -6.51747 49.2942 25.3107 -6.51747 
-47.9313 26.143 -6.51747 -43.8168 30.0119 -6.51747 48.5175 26.143 -6.51747 
41.535 32.4001 -6.51747 49.2942 26.143 -0.920958 -38.3673 33.9022 -6.51747 
-36.0575 35.3544 -6.51747 -28.2983 39.0564 -6.51747 26.0165 40.6337 -6.51747 
39.3945 33.9022 -6.51747 33.7757 37.3052 -6.51747 -21.457 41.6615 -6.51747 
-20.539 42.0149 -6.51747 -12.7798 44.2284 -6.51747 -5.02053 45.4399 -6.51747 
2.73871 45.4165 -6.51747 10.498 44.3568 -6.51747 22.4824 41.6615 -6.51747 
18.2572 42.8379 -6.51747 -12.7798 -43.7938 1.24178 -36.0575 -38.6608 1.24178 
-28.2983 -42.1671 1.24178 -16.1003 -43.6903 1.24178 -20.539 -43.5498 1.24178 
-9.90237 -43.6903 1.24178 -12.7798 -43.6903 1.66537 -5.02053 -43.5155 1.24178 
2.73871 -43.2851 1.24178 10.498 -43.3213 1.24178 18.2572 -42.801 1.24178 
26.0165 -41.424 1.24178 33.7757 -38.806 1.24178 -40.085 -35.931 1.24178 
-43.8168 -32.9846 1.24178 -36.0575 -35.931 7.29109 39.3028 -35.931 1.24178 
33.7757 -35.931 7.78426 41.535 -34.552 1.24178 -48.546 -28.1718 1.24178 
-51.576 -24.4217 1.24178 48.7785 -28.1718 1.24178 49.2942 -27.6041 1.24178 
-54.3173 -20.4125 1.24178 -51.576 -20.4125 8.74198 54.6244 -20.4125 1.24178 
57.0535 -15.659 1.24178 -57.922 -12.6533 1.24178 -59.3353 -4.95593 1.24178 
58.3754 -12.6533 1.24178 57.0535 -12.6533 4.27081 -59.3456 -4.89403 1.24178 
-59.3353 -4.89403 1.27868 60.9417 -4.89403 1.24178 -59.4314 2.86522 1.24178 
-59.3353 3.48686 1.24178 -59.3353 2.86522 1.60532 60.7288 2.86522 1.24178 
-58.1585 10.6245 1.24178 59.0046 10.6245 1.24178 57.0535 15.0834 1.24178 
57.0535 10.6245 6.17035 -54.6849 18.3837 1.24178 -51.576 23.1716 1.24178 
55.3684 18.3837 1.24178 -49.261 26.143 1.24178 -43.8168 31.4167 1.24178 
41.535 33.0988 1.24178 49.5287 26.143 1.24178 49.2942 26.3838 1.24178 
49.2942 26.143 1.77704 -40.5388 33.9022 1.24178 -36.0575 36.8145 1.24178 
-28.2983 40.7029 1.24178 26.0165 41.4537 1.24178 40.4007 33.9022 1.24178 
33.7757 37.9922 1.24178 -25.8544 41.6615 1.24178 -20.539 43.6349 1.24178 
-20.539 41.6615 7.80049 -12.7798 45.8658 1.24178 -5.02053 46.8853 1.24178 
2.73871 46.7667 1.24178 10.498 45.6213 1.24178 25.3703 41.6615 1.24178 
18.2572 43.8342 1.24178 18.2572 41.6615 8.26278 -28.2983 -38.2559 9.00102 
-20.539 -40.4677 9.00102 -12.7798 -41.5224 9.00102 -5.02053 -41.9259 9.00102 
2.73871 -41.7712 9.00102 10.498 -41.7075 9.00102 18.2572 -40.674 9.00102 
26.0165 -38.5786 9.00102 -43.8168 -29.1394 9.00102 -33.913 -35.931 9.00102 
-36.0575 -34.8396 9.00102 -28.2983 -35.931 11.647 -20.539 -35.931 13.5109 
-12.7798 -35.931 14.6979 -5.02053 -35.931 14.956 2.73871 -35.931 15.3563 
10.498 -35.931 15.3549 18.2572 -35.931 14.5981 32.4321 -35.931 9.00102 
26.0165 -35.931 12.2023 33.7757 -35.2558 9.00102 41.535 -29.8828 9.00102 
-44.8087 -28.1718 9.00102 -43.8168 -28.1718 10.0296 -36.0575 -28.1718 14.3998 
-28.2983 -28.1718 16.7042 33.7757 -28.1718 15.0428 43.4817 -28.1718 9.00102 
41.535 -28.1718 10.6553 49.2942 -21.6053 9.00102 -51.4366 -20.4125 9.00102 
-51.576 -20.1954 9.00102 -43.8168 -20.4125 15.4283 41.535 -20.4125 15.3347 
50.2105 -20.4125 9.00102 49.2942 -20.4125 9.90513 -55.1685 -12.6533 9.00102 
-51.576 -12.6533 13.5755 54.4787 -12.6533 9.00102 49.2942 -12.6533 14.2738 
57.0535 -6.21977 9.00102 -56.8369 -4.89403 9.00102 -51.576 -4.89403 16.1573 
49.2942 -4.89403 16.1481 57.5249 -4.89403 9.00102 57.0535 -4.89403 9.57905 
-57.1177 2.86522 9.00102 -51.576 2.86522 15.6286 49.2942 2.86522 16.2948 
57.5549 2.86522 9.00102 57.0535 5.15387 9.00102 57.0535 2.86522 9.63982 
-55.9288 10.6245 9.00102 -51.576 10.6245 15.0568 55.6473 10.6245 9.00102 
49.2942 10.6245 15.4732 -52.394 18.3837 9.00102 -51.576 19.6797 9.00102 
-51.576 18.3837 10.1455 41.535 18.3837 16.3071 51.88 18.3837 9.00102 
49.2942 21.6274 9.00102 49.2942 18.3837 11.5994 -46.6663 26.143 9.00102 
-43.8168 28.8907 9.00102 -43.8168 26.143 12.1184 -36.0575 26.143 16.3842 
33.7757 26.143 15.909 45.1849 26.143 9.00102 41.535 29.372 9.00102 
41.535 26.143 12.1878 -37.0148 33.9022 9.00102 -36.0575 34.5048 9.00102 
-36.0575 33.9022 9.8223 -28.2983 37.9222 9.00102 -28.2983 33.9022 13.2779 
[...]
POINT_DATA 534
SCALARS ImageScalars float
LOOKUP_TABLE default
0 0 0 0 0 0 0 0 0 
0 0 0 0 0 0 0 0 0 
0 0 0 0 0 0 0 0 0 
0 0 0 0 0 0 0 0 0 
0 0 0 0 0 0 0 0 0 
0 0 0 0 0 0 0 0 0 
0 0 0 0 0 0 0 0 0 
0 0 0 0 0 0 0 0 0 
0 0 0 0 0 0 0 0 0 
0 0 0 0 0 0 0 0 0 
0 0 0 0 0 0 0 0 0 
0 0 0 0 0 0 0 0 0 
0 0 0 0 0 0 0 0 0 
0 0 0 0 0 0 0 0 0 
0 0 0 0 0 0 0 0 0 
0 0 0 0 0 0 0 0 0 
0 0 0 0 0 0 0 0 0 
0 0 0 0 0 0 0 0 0 
0 0 0 0 0 0 0 0 0 
0 0 0 0 0 0 0 0 0 
0 0 0 0 0 0 0 0 0 
0 0 0 0 0 0 0 0 0 
0 0 0 0 0 0 0 0 0 
0 0 0 0 0 0 0 0 0 
0 0 0 0 0 0 0 0 0 
0 0 0 0 0 0 0 0 0 
0 0 0 0 0 0 0 0 0 
0 0 0 0 0 0 0 0 0 
0 0 0 0 0 0 0 0 0 
0 0 0 0 0 0 0 0 0 
0 0 0 0 0 0 0 0 0 
0 0 0 0 0 0 0 0 0 
0 0 0 0 0 0 0 0 0 
0 0 0 0 0 0 0 0 0 
0 0 0 0 0 0 0 0 0 
0 0 0 0 0 0 0 0 0 
0 0 0 0 0 0 0 0 0 
0 0 0 0 0 0 0 0 0 
0 0 0 0 0 0 0 0 0 
0 0 0 0 0 0 0 0 0 
0 0 0 0 0 0 0 0 0 
0 0 0 0 0 0 0 0 0 
0 0 0 0 0 0 0 0 0 
0 0 0 0 0 0 0 0 0 
0 0 0 0 0 0 0 0 0 
0 0 0 0 0 0 0 0 0 
0 0 0 0 0 0 0 0 0 
0 0 0 0 0 0 0 0 0 
0 0 0 0 0 0 0 0 0 
0 0 0 0 0 0 0 0 0 
0 0 0 0 0 0 0 0 0 
0 0 0 0 0 0 0 0 0 
0 0 0 0 0 0 0 0 0 
0 0 0 0 0 0 0 0 0 
0 0 0 0 0 0 0 0 0 
0 0 0 0 0 0 0 0 0 
0 0 0 0 0 0 0 0 0 
0 0 0 0 0 0 0 0 0 
0 0 0 0 0 0 0 0 0 
0 0 0 
NORMALS Normals float
0.041924 0.64525 0.762821 -0.105166 0.680636 0.725034 0.270844 0.421615 0.865381 
0.0962229 0.304211 0.947732 -0.0166904 0.255072 0.966778 -0.103742 0.248745 0.962997 
-0.0222767 0.298384 0.954186 0.119338 0.342048 0.932074 0.121708 0.334886 0.934365 
0.052049 0.292822 0.954749 -0.0403216 0.317643 0.947353 -0.163684 0.412874 0.895959 
-0.386864 0.520652 0.76109 0.366615 0.321095 0.873208 0.164335 0.200906 0.965728 
0.0240759 0.133528 0.990753 -0.104437 0.0545153 0.993036 -0.075726 0.0682353 0.994791 
0.0587301 0.150645 0.986842 0.141261 0.206244 0.96825 0.0727616 0.115906 0.990591 
0.0377356 0.0504046 0.998016 0.0358351 0.0819923 0.995988 -0.0424256 0.1702 0.984496 
-0.278042 0.228651 0.932958 -0.560875 0.349433 0.750543 0.55545 0.279735 0.783086 
0.293119 0.155694 0.943314 0.0550539 0.133536 0.989514 -0.0625737 0.0323822 0.997515 
-0.08902 -0.0101318 0.995978 -0.0126905 0.0762141 0.997011 0.13134 0.139972 0.981406 
0.0914834 0.0254649 0.995481 -0.0368757 0.0511097 0.998012 0.0214755 -0.0694622 0.997353 
0.0800921 -0.0261576 0.996444 -0.0145865 0.0112032 0.999831 -0.182474 0.0657094 0.981012 
-0.437646 0.173931 0.882164 0.555454 0.11504 0.823551 0.246332 0.0666177 0.966893 
0.0592476 0.055511 0.996699 -0.117254 0.0479504 0.991944 -0.0561453 0.0459001 0.997367 
0.0836007 0.174555 0.981092 -0.00185725 0.123783 0.992308 0.0461267 -0.0370272 0.998249 
-0.0254295 0.121714 0.992239 -0.0317855 -0.0510995 0.998188 0.116187 -0.0454255 0.992188 
0.0466729 -0.0288895 0.998492 -0.130161 -0.00108055 0.991492 -0.396343 0.0260578 0.917733 
0.568893 -0.0544656 0.820606 0.235979 0.0338777 0.971168 0.0399829 0.0368628 0.99852 
-0.0763724 0.0419789 0.996195 0.0285523 0.0747923 0.99679 0.0699096 -0.00285421 0.997549 
-0.0654037 -0.00723196 0.997833 0.096933 0.0582547 0.993585 -0.0887148 -0.0636632 0.99402 
-0.125957 -0.00977863 0.991988 0.0998126 -0.0241398 0.994713 0.0294935 -0.0569246 0.997943 
-0.133426 -0.105619 0.985415 -0.371853 -0.107916 0.921998 0.597823 -0.263213 0.757184 
0.318054 -0.139422 0.937765 0.0539214 -0.0963086 0.99389 -0.0683957 -0.0391262 0.996891 
-0.0984601 -0.0122772 0.995065 0.0021773 -0.117328 0.993091 0.0460872 -0.105864 0.993312 
-0.00942972 -0.0556054 0.998408 -0.0806368 -0.194522 0.977578 -0.00500908 0.0116377 0.99992 
0.0748754 -0.0332563 0.996638 -0.0354194 -0.0975967 0.994596 -0.190703 -0.158081 0.968836 
-0.438479 -0.249586 0.86339 0.376958 -0.38392 0.842916 0.144329 -0.271498 0.951555 
0.00893002 -0.196433 0.980477 -0.0474168 -0.0941149 0.994431 -0.0320816 -0.0827398 0.996055 
0.00453727 -0.085862 0.996297 0.000986874 -0.0898695 0.995953 0.00396731 -0.0547218 0.998494 
0.0223735 -0.0242609 0.999455 -0.0147004 -0.090923 0.995749 -0.103395 -0.179292 0.978348 
-0.305828 -0.311234 0.899779 0.277275 -0.473986 0.835737 0.116385 -0.345999 0.930988 
0.0239605 -0.256156 0.966338 0.0140308 -0.173426 0.984747 0.0378797 -0.126243 0.991276 
0.0194784 -0.120827 0.992482 -0.0105157 -0.122193 0.992451 -0.0417894 -0.159827 0.98626 
-0.0857312 -0.234335 0.968368 -0.236838 -0.358826 0.902857 0.1401 -0.494575 0.857769 
0.0963065 -0.363919 0.926438 0.0474889 -0.35237 0.934655 0.00355832 -0.358477 0.933532 
-0.0282976 -0.38356 0.923082 -0.0924108 -0.423097 0.90136 -0.226921 -0.538037 0.811803 
0.0371911 0.665528 0.745446 -0.106719 0.695761 0.710301 0.305432 0.497081 0.812171 
0.432696 0.725483 0.535209 0.141967 0.569173 0.809869 0.142298 0.570711 0.808727 
-0.0622589 0.549429 0.833218 -0.0642108 0.578314 0.813283 -0.100128 0.488147 0.866999 
-0.099149 0.604184 0.790653 -0.0281533 0.425349 0.904591 -0.0323143 0.613477 0.789051 
0.100338 0.499943 0.860227 0.0766587 0.640602 0.764037 0.0764888 0.632698 0.770612 
0.116865 0.585639 0.802103 0.11151 0.628012 0.770173 -0.133875 0.693862 0.707555 
-0.242145 0.655438 0.715378 -0.288107 0.790698 0.540177 -0.424388 0.602244 0.676163 
0.364539 0.471372 0.803069 0.444947 0.432092 0.784422 0.530095 0.565741 0.631614 
-0.492435 0.561184 0.665267 -0.597643 0.430495 0.676386 -0.720515 0.664058 0.199713 
0.558978 0.352809 0.75038 0.55987 0.283786 0.778467 0.766908 0.442293 0.465004 
-0.617885 0.377824 0.689542 0.559753 0.280783 0.779639 -0.65263 0.214471 0.726688 
-0.86994 0.275729 0.408873 0.666884 0.099856 0.738441 -0.683347 0.0599898 0.727625 
-0.778827 0.0710463 0.623202 0.694984 -0.0516975 0.717164 -0.646751 -0.136151 0.750451 
-0.783751 -0.153401 0.601832 0.637126 -0.274095 0.720377 0.623479 -0.315224 0.715477 
-0.600125 -0.255016 0.758166 -0.480095 -0.405291 0.777977 -0.858527 -0.304627 0.412474 
0.553082 -0.413077 0.72351 0.75377 -0.467259 0.46206 0.450129 -0.479773 0.753128 
-0.440424 -0.427215 0.789629 -0.41907 -0.477532 0.772233 -0.519355 -0.476822 0.709162 
0.373599 -0.517219 0.770006 0.530173 -0.601218 0.597874 0.310879 -0.542071 0.780713 
0.215779 -0.557183 0.801865 -0.408685 -0.482187 0.774901 -0.318495 -0.515267 0.795651 
-0.445402 -0.510469 0.735553 0.437179 -0.770449 0.463985 0.179483 -0.539648 0.822536 
0.249944 -0.627922 0.73705 0.153502 -0.516363 0.8425 0.119842 -0.487507 0.864856 
0.0422481 -0.510284 0.858967 -0.00174816 -0.534012 0.845475 -0.0532397 -0.550519 0.833123 
-0.134048 -0.560551 0.817198 -0.259099 -0.559072 0.787595 -0.235474 -0.562161 0.792797 
-0.411051 -0.693028 0.592241 0.30275 -0.84987 0.43135 0.187051 -0.778404 0.599249 
0.0575766 -0.721892 0.689606 -0.0258736 -0.732815 0.679936 -0.11994 -0.795702 0.593693 
-0.21508 -0.877391 0.428866 0.466026 0.838889 0.28122 0.228603 0.919936 0.318526 
0.0143183 0.924929 0.379871 -0.0838297 0.888233 0.45168 -0.00711697 0.999932 0.00918783 
-0.0605179 0.858172 0.509783 0.0205458 0.875647 0.482514 0.0386685 0.912243 0.40782 
-0.0311519 0.936507 0.349263 -0.152095 0.946166 0.285721 -0.325154 0.917489 0.229102 
0.554524 0.789723 0.262375 0.638221 0.725223 0.258312 -0.490791 0.852365 0.18055 
-0.512266 0.840815 0.174967 -0.722656 0.674471 0.151186 0.725558 0.633975 0.267658 
0.796761 0.538909 0.273404 -0.731429 0.664831 0.151694 -0.73127 0.679523 -0.0591016 
0.833998 0.471219 0.287056 -0.844531 0.511583 0.158273 -0.887179 0.428863 0.170266 
0.914136 0.302009 0.270453 -0.936753 0.291958 0.193014 0.955653 0.0796922 0.283508 
0.990617 0.0882552 -0.104349 -0.961691 0.103296 0.253929 0.957947 -0.0722687 0.277695 
0.997112 -0.0718191 -0.0247022 -0.954318 -0.140887 0.263491 0.918861 -0.297659 0.259026 
-0.900465 -0.318561 0.29611 -0.871836 -0.403837 0.27716 0.829411 -0.47455 0.294754 
0.778738 -0.553942 0.294475 -0.806753 -0.525375 0.270426 -0.698847 -0.643166 0.312971 
0.685573 -0.660799 0.305507 0.604192 -0.73396 0.31025 -0.688101 -0.655146 0.311931 
-0.575746 -0.758113 0.306237 -0.724661 -0.689025 -0.0105271 0.497851 -0.799096 0.337032 
0.460385 -0.816502 0.348383 0.364092 -0.848117 0.384881 -0.311835 -0.894953 0.319091 
-0.541666 -0.783441 0.30466 -0.453014 -0.838087 0.303955 0.312711 -0.860152 0.402927 
0.304868 -0.861953 0.405083 0.19758 -0.894023 0.402101 0.0721122 -0.909527 0.40934 
-0.0678814 -0.916168 0.395005 -0.157897 -0.921271 0.355427 -0.266822 -0.91039 0.316222 
-0.219636 -0.920403 0.323446 -0.00253406 0.999858 -0.0166841 0.493527 0.852797 -0.17079 
0.28875 0.94316 -0.164536 0.0398871 0.998019 -0.0486484 0.0974418 0.990951 -0.0923105 
-0.0136869 0.999872 0.00828579 0.00130582 0.999252 -0.0386403 -0.0326392 0.998184 0.0506302 
-0.0125086 0.998577 0.0518502 -0.0308359 0.999166 0.0267816 -0.118744 0.992157 -0.0390538 
-0.237411 0.964326 -0.117093 -0.393771 0.900387 -0.185061 0.568096 0.804569 -0.173021 
0.650313 0.741825 -0.163671 0.455727 0.755595 -0.47052 -0.513374 0.826705 -0.230233 
-0.413755 0.780085 -0.469334 -0.565728 0.786419 -0.247987 0.741292 0.653802 -0.151755 
0.805222 0.576367 -0.139353 -0.702842 0.667005 -0.24722 -0.712807 0.655955 -0.248252 
0.861054 0.492599 -0.126224 0.730003 0.497617 -0.46848 -0.803311 0.53634 -0.258903 
-0.874499 0.419855 -0.242843 0.94319 0.307289 -0.126358 0.989324 0.0900399 -0.114589 
-0.9129 0.341936 -0.222917 -0.864959 0.354438 -0.355274 0.989499 0.0883556 -0.114391 
0.989308 0.0884671 -0.115948 -0.973996 0.141552 -0.176901 0.992296 -0.0712193 -0.101376 
0.9909 -0.087937 -0.1019 0.990727 -0.0707326 -0.116001 -0.97989 -0.115157 -0.162955 
0.95365 -0.284391 -0.0983568 -0.941212 -0.310198 -0.13378 -0.890199 -0.43357 -0.139866 
-0.868818 -0.299067 -0.394606 0.880507 -0.468166 -0.0743528 0.806179 -0.587889 -0.0668026 
-0.839509 -0.526171 -0.135532 0.744587 -0.664941 -0.058682 0.63646 -0.769595 -0.0514086 
-0.599475 -0.789058 -0.134227 -0.719021 -0.682689 -0.13017 -0.714388 -0.687468 -0.130527 
-0.714285 -0.682409 -0.155292 0.570619 -0.819823 -0.0477948 0.49553 -0.867297 -0.0473991 
0.405612 -0.912691 -0.0497433 -0.341476 -0.934028 -0.10481 -0.580762 -0.803095 -0.133246 
-0.472013 -0.87244 -0.1267 0.378294 -0.924629 -0.0442029 0.318381 -0.946733 -0.0482606 
0.284234 -0.865912 -0.411591 0.199904 -0.978217 -0.0559542 0.0567795 -0.9963 -0.0645223 
-0.0812282 -0.994037 -0.0727522 -0.183462 -0.979903 -0.0783121 -0.333293 -0.937312 -0.101793 
-0.253809 -0.963868 -0.080866 -0.238269 -0.860299 -0.450681 0.28792 0.761721 -0.580416 
0.172595 0.806162 -0.565963 0.0813007 0.86261 -0.499293 0.0133348 0.892493 -0.450865 
-0.0128162 0.90575 -0.423618 -0.0642727 0.898886 -0.433443 -0.177048 0.871421 -0.457471 
-0.290444 0.810375 -0.508856 0.575663 0.629591 -0.521755 0.394284 0.72425 -0.565687 
0.428413 0.7039 -0.566558 0.265726 0.682554 -0.680815 0.151482 0.607744 -0.779551 
0.0791118 0.511928 -0.855378 0.0362134 0.517367 -0.854997 0.0240312 0.55762 -0.829748 
-0.0378104 0.580519 -0.813369 -0.150671 0.626341 -0.76485 -0.39234 0.756351 -0.523452 
-0.286743 0.705759 -0.647829 -0.410604 0.740071 -0.532634 -0.533709 0.627058 -0.56741 
0.589148 0.620145 -0.518001 0.560903 0.610168 -0.559538 0.327824 0.53118 -0.781268 
0.152528 0.405105 -0.901457 -0.332988 0.472324 -0.816106 -0.567639 0.594797 -0.569212 
-0.523315 0.579095 -0.625132 -0.646745 0.493638 -0.581415 0.722078 0.496135 -0.482134 
0.726502 0.491053 -0.480689 0.457167 0.431058 -0.777938 -0.413594 0.385585 -0.824781 
-0.661572 0.476671 -0.578884 -0.631989 0.473268 -0.613683 0.823153 0.3059 -0.478376 
0.679558 0.305364 -0.667049 -0.737243 0.341469 -0.582985 -0.5659 0.294272 -0.77017 
-0.798617 0.187459 -0.5719 0.873981 0.111097 -0.47309 0.623397 0.0866617 -0.777088 
-0.481178 0.0979003 -0.871139 -0.806371 0.153366 -0.571178 -0.791603 0.154662 -0.591138 
0.887918 -0.0541594 -0.456802 0.623567 -0.0471745 -0.780345 -0.482298 -0.0305691 -0.875474 
-0.830215 -0.0926253 -0.549694 -0.820941 -0.14685 -0.551807 -0.813253 -0.0927079 -0.574478 
0.859917 -0.265067 -0.436213 0.668198 -0.22083 -0.710454 -0.780747 -0.280652 -0.558273 
-0.542852 -0.220228 -0.810439 0.7812 -0.458559 -0.423616 0.764944 -0.486516 -0.422093 
0.752144 -0.457675 -0.474144 -0.364212 -0.352809 -0.861902 -0.700191 -0.478961 -0.529461 
-0.656675 -0.540415 -0.526051 -0.609763 -0.461456 -0.644396 0.648245 -0.629918 -0.427764 
0.589829 -0.685096 -0.427488 0.548603 -0.597537 -0.584794 0.272665 -0.441396 -0.854882 
-0.281449 -0.414848 -0.865268 -0.597033 -0.615593 -0.51439 -0.549888 -0.658845 -0.513368 
-0.500838 -0.564457 -0.656163 0.457519 -0.770506 -0.443844 0.440819 -0.778631 -0.446557 
0.431189 -0.759962 -0.486347 0.351699 -0.793244 -0.497064 0.275072 -0.652858 -0.705771 
0.271396 -0.829349 -0.488391 0.147095 -0.497749 -0.854757 0.0517108 -0.417545 -0.907184 
0.00664664 -0.368017 -0.929795 -0.0362831 -0.368545 -0.928901 -0.034609 -0.414418 -0.909429 
-0.232277 -0.83598 -0.497177 -0.114945 -0.467486 -0.876496 -0.330043 -0.787354 -0.520716 
-0.262781 -0.599459 -0.756039 -0.463318 -0.730996 -0.50098 -0.439054 -0.74557 -0.501356 
-0.430179 -0.715401 -0.550589 0.248532 -0.832093 -0.495836 0.164994 -0.823553 -0.542712 
0.148156 -0.769275 -0.621502 0.0472292 -0.825716 -0.562105 0.0370445 -0.722229 -0.690662 
-0.0739985 -0.820388 -0.566999 -0.0647066 -0.721961 -0.688901 -0.21712 -0.836649 -0.50287 
-0.145539 -0.823312 -0.548613 -0.130183 -0.777176 -0.61567 0.0443648 0.370266 -0.927866 
0.0253016 0.253501 -0.967004 0.0665222 0.270181 -0.960509 0.0501334 0.391758 -0.918701 
-0.0139754 0.434454 -0.900586 -0.116687 0.44258 -0.889105 -0.218705 0.398643 -0.890647 
0.266793 0.432879 -0.861068 0.141977 0.398796 -0.905983 0.150404 0.402513 -0.902974 
0.0274683 0.328651 -0.944052 0.0145917 0.209598 -0.977679 0.0818847 0.169644 -0.982098 
0.0752446 0.202365 -0.976415 0.00834951 0.247536 -0.968843 -0.0856866 0.283295 -0.955197 
-0.237353 0.386074 -0.891409 -0.207557 0.361814 -0.908851 -0.271004 0.360089 -0.892689 
0.359405 0.401417 -0.842432 0.421029 0.350475 -0.836601 0.228515 0.3587 -0.90505 
0.0492474 0.29804 -0.953282 -0.0775419 0.215311 -0.973462 -0.0916513 0.156135 -0.983474 
0.0341958 0.0634218 -0.997401 0.119554 0.0555131 -0.991274 0.0544639 0.0880791 -0.994623 
-0.0294537 0.0857193 -0.995884 -0.102926 0.159942 -0.981746 -0.315678 0.332885 -0.888558 
-0.224698 0.273056 -0.935388 -0.358382 0.303583 -0.882836 0.490458 0.265737 -0.829961 
0.375813 0.225064 -0.89895 0.178168 0.173404 -0.968601 0.00735385 0.129245 -0.991585 
-0.116629 0.138659 -0.983449 -0.147497 0.206822 -0.967197 -0.0174922 0.178167 -0.983845 
0.103265 0.0500983 -0.993391 0.0347757 0.0614077 -0.997507 -0.0132904 -0.0111989 -0.999849 
-0.0183523 0.0504969 -0.998556 -0.110633 0.120152 -0.986572 -0.411276 0.242836 -0.878568 
-0.301279 0.207873 -0.930602 0.57334 0.0812642 -0.815277 0.311908 0.065167 -0.947875 
0.122998 0.0267679 -0.992046 0.0051722 -0.0302289 -0.99953 -0.00183383 -0.0342729 -0.999411 
-0.0477731 0.0414285 -0.997999 -0.125961 0.117255 -0.985081 0.00182942 0.000504426 -0.999998 
-0.00898171 0.0561343 -0.998383 -0.0395422 -0.014625 -0.999111 0.0337427 0.0146401 -0.999323 
-0.0611175 0.0414115 -0.997271 -0.429151 0.088192 -0.898917 -0.236518 0.0707209 -0.96905 
0.53204 -0.0412797 -0.845712 0.309214 -0.0333581 -0.950407 0.0897738 -0.0135411 -0.99587 
-0.0538074 -0.0348999 -0.997941 -0.0520328 -0.106189 -0.992984 0.00166808 -0.128107 -0.991759 
-0.060933 0.0263992 -0.997793 0.0502105 0.0518322 -0.997393 0.0133293 -0.0118866 -0.99984 
-0.0536329 0.0351168 -0.997943 0.0365766 -0.00121671 -0.99933 -0.0568164 0.000970894 -0.998384 
-0.442366 -0.0253755 -0.896476 -0.235561 -0.0239371 -0.971565 0.534686 -0.191948 -0.822962 
0.324025 -0.145772 -0.93475 0.133812 -0.126945 -0.982843 -0.0850013 -0.0903312 -0.992278 
-0.0927552 -0.0457685 -0.994636 0.0817715 -0.0376847 -0.995938 0.0448203 -0.0281685 -0.998598 
-0.036647 -0.0169524 -0.999184 -0.0177397 -0.105355 -0.994276 -0.0290723 0.00115387 -0.999577 
0.000403117 -0.0423127 -0.999104 -0.0850129 -0.0961263 -0.991732 -0.447926 -0.198162 -0.871834 
-0.345843 -0.320871 -0.881722 -0.271937 -0.162153 -0.948555 0.421549 -0.357803 -0.833231 
0.415364 -0.363944 -0.833677 0.411537 -0.354009 -0.839831 0.254429 -0.414383 -0.873815 
0.156741 -0.284534 -0.945766 0.0289782 -0.193876 -0.980598 -0.00273348 -0.0719375 -0.997405 
0.0188134 -0.057491 -0.998169 -0.0327401 -0.159954 -0.986581 -0.0354449 -0.138302 -0.989756 
0.0348564 -0.135813 -0.990121 0.0085176 -0.11652 -0.993152 -0.0668335 -0.140503 -0.987822 
-0.327725 -0.335105 -0.883346 -0.247409 -0.36181 -0.898823 -0.181619 -0.261512 -0.947959 
0.239088 -0.414748 -0.877964 0.171873 -0.417037 -0.892491 0.140776 -0.343353 -0.928596 
0.109627 -0.401908 -0.909094 0.0537216 -0.234993 -0.970511 0.0353396 -0.372408 -0.927396 
-0.00777655 -0.212873 -0.977049 0.00338485 -0.35009 -0.93671 -0.0318646 -0.202752 -0.978712 
-0.0314369 -0.325804 -0.944915 -0.013777 -0.169626 -0.985412 -0.0208108 -0.342537 -0.939274 
-0.000172926 -0.209375 -0.977835 -0.0814584 -0.371154 -0.924991 -0.035209 -0.238952 -0.970393 
-0.215249 -0.367204 -0.904892 -0.169176 -0.385198 -0.907195 -0.141898 -0.322085 -0.936016 

