# vtk DataFile Version 4.2
vtk output
ASCII
DATASET POLYDATA
POINTS 574 float
-54.1986 -36.7582 -14.1174 -45.8438 -36.7582 -15.5829 -37.489 -36.7582 -16.5279 
-29.1342 -36.7582 -15.6506 29.3493 -36.7582 -14.164 37.7041 -36.7582 -13.0064 
-62.5533 -28.4034 -12.9765 -54.1986 -28.4034 -16.4341 -45.8438 -28.4034 -17.9633 
-37.489 -28.4034 -19.6155 -29.1342 -28.4034 -18.1937 -20.7794 -28.4034 -16.8003 
-12.4246 -28.4034 -14.3567 4.28495 -28.4034 -13.6963 12.6397 -28.4034 -16.2889 
20.9945 -28.4034 -17.8104 29.3493 -28.4034 -17.9759 37.7041 -28.4034 -16.8925 
46.0589 -28.4034 -16.0126 -62.5533 -20.0486 -14.412 -54.1986 -20.0486 -17.3823 
-45.8438 -20.0486 -20.138 -37.489 -20.0486 -19.8508 -29.1342 -20.0486 -20.0585 
-20.7794 -20.0486 -17.8797 -12.4246 -20.0486 -16.2628 -4.06984 -20.0486 -16.0395 
4.28495 -20.0486 -17.395 12.6397 -20.0486 -18.4291 20.9945 -20.0486 -19.6215 
29.3493 -20.0486 -19.6236 37.7041 -20.0486 -18.333 46.0589 -20.0486 -16.4559 
54.4137 -20.0486 -14.4283 -62.5533 -11.6938 -15.11 -54.1986 -11.6938 -18.1764 
-45.8438 -11.6938 -20.7106 -37.489 -11.6938 -20.3383 -29.1342 -11.6938 -19.4928 
-20.7794 -11.6938 -17.6878 -12.4246 -11.6938 -15.9207 -4.06984 -11.6938 -18.4392 
4.28495 -11.6938 -17.6619 12.6397 -11.6938 -18.9051 20.9945 -11.6938 -19.8291 
29.3493 -11.6938 -19.2787 37.7041 -11.6938 -18.6552 46.0589 -11.6938 -17.3795 
54.4137 -11.6938 -15.771 62.7685 -11.6938 -13.6841 -62.5533 -3.33903 -13.3053 
-54.1986 -3.33903 -17.9793 -45.8438 -3.33903 -19.859 -37.489 -3.33903 -20.6199 
-29.1342 -3.33903 -19.8736 -20.7794 -3.33903 -18.0715 -12.4246 -3.33903 -18.3804 
-4.06984 -3.33903 -20.6906 4.28495 -3.33903 -16.7418 12.6397 -3.33903 -19.5398 
20.9945 -3.33903 -18.8981 29.3493 -3.33903 -18.5488 37.7041 -3.33903 -18.5782 
46.0589 -3.33903 -18.2388 54.4137 -3.33903 -16.9876 62.7685 -3.33903 -13.9025 
-62.5533 5.01576 -13.4807 -54.1986 5.01576 -17.3987 -45.8438 5.01576 -19.5476 
-37.489 5.01576 -20.7725 -29.1342 5.01576 -20.135 -20.7794 5.01576 -18.8085 
-12.4246 5.01576 -18.6454 -4.06984 5.01576 -18.7127 4.28495 5.01576 -18.917 
12.6397 5.01576 -18.9409 20.9945 5.01576 -17.5912 29.3493 5.01576 -18.3006 
37.7041 5.01576 -18.9193 46.0589 5.01576 -19.0735 54.4137 5.01576 -17.6116 
62.7685 5.01576 -14.1715 -54.1986 13.3705 -16.6481 -45.8438 13.3705 -19.7714 
-37.489 13.3705 -20.5893 -29.1342 13.3705 -20.5848 -20.7794 13.3705 -19.8746 
-12.4246 13.3705 -19.2628 -4.06984 13.3705 -18.0467 4.28495 13.3705 -18.5801 
12.6397 13.3705 -18.5715 20.9945 13.3705 -17.7918 29.3493 13.3705 -18.2659 
37.7041 13.3705 -18.7797 46.0589 13.3705 -18.4154 54.4137 13.3705 -17.1923 
62.7685 13.3705 -13.5062 -54.1986 21.7253 -15.1093 -45.8438 21.7253 -18.7763 
-37.489 21.7253 -20.1531 -29.1342 21.7253 -20.9779 -20.7794 21.7253 -21.0483 
-12.4246 21.7253 -20.792 -4.06984 21.7253 -19.2541 4.28495 21.7253 -18.7298 
12.6397 21.7253 -18.5377 20.9945 21.7253 -18.0763 29.3493 21.7253 -18.0961 
37.7041 21.7253 -18.8708 46.0589 21.7253 -17.0428 54.4137 21.7253 -15.5846 
62.7685 21.7253 -13.2892 -54.1986 30.0801 -13.1658 -45.8438 30.0801 -16.7098 
-37.489 30.0801 -19.8848 -29.1342 30.0801 -20.423 -20.7794 30.0801 -20.7209 
-12.4246 30.0801 -20.4338 -4.06984 30.0801 -18.5743 4.28495 30.0801 -16.8815 
12.6397 30.0801 -16.533 20.9945 30.0801 -16.3376 29.3493 30.0801 -15.9626 
37.7041 30.0801 -15.0006 46.0589 30.0801 -13.6197 -37.489 38.4349 -15.9432 
-29.1342 38.4349 -17.9358 -20.7794 38.4349 -18.1913 -12.4246 38.4349 -16.8159 
-4.06984 38.4349 -13.5118 -54.1986 -38.3964 -12.8488 -45.8438 -40.4276 -12.8488 
-45.8438 -45.113 -6.60921 -37.489 -42.4876 -12.8488 -37.489 -45.113 -5.6051 
-29.1342 -40.1028 -12.8488 29.3493 -38.3044 -12.8488 37.7041 -36.907 -12.8488 
-56.0858 -36.7582 -12.8488 -62.5533 -28.6204 -12.8488 -21.2393 -36.7582 -12.8488 
-20.7794 -36.4239 -12.8488 -20.7794 -36.7582 -12.5049 -12.4246 -30.8791 -12.8488 
4.28495 -29.3711 -12.8488 12.6397 -33.5388 -12.8488 12.6397 -36.7582 -7.8973 
21.1715 -36.7582 -12.8488 20.9945 -36.7104 -12.8488 20.9945 -36.7582 -12.8034 
38.077 -36.7582 -12.8488 46.0589 -32.79 -12.8488 46.0589 -36.7582 -9.70925 
54.4137 -36.7582 -5.85587 -62.6857 -28.4034 -12.8488 -7.49296 -28.4034 -12.8488 
0.680451 -28.4034 -12.8488 -4.06984 -26.3705 -12.8488 -4.06984 -28.4034 -10.8081 
51.6955 -28.4034 -12.8488 54.4137 -24.5867 -12.8488 54.4137 -28.4034 -11.2881 
62.7685 -28.4034 -6.33175 -64.4726 -20.0486 -12.8488 61.659 -20.0486 -12.8488 
62.7685 -18.4376 -12.8488 62.7685 -20.0486 -12.4774 -65.2049 -11.6938 -12.8488 
64.0972 -11.6938 -12.8488 71.1232 -11.6938 -6.83173 -63.1108 -3.33903 -12.8488 
64.8359 -3.33903 -12.8488 71.1232 -3.33903 -9.46062 -63.2668 5.01576 -12.8488 
-62.5533 10.8281 -12.8488 65.5036 5.01576 -12.8488 71.1232 5.01576 -9.63112 
-62.006 13.3705 -12.8488 -62.5533 13.3705 -12.4338 64.109 13.3705 -12.8488 
71.1232 13.3705 -8.32276 -57.2761 21.7253 -12.8488 -62.5533 21.7253 -7.43137 
54.4137 26.932 -12.8488 63.3269 21.7253 -12.8488 62.7685 22.4184 -12.8488 
-54.6091 30.0801 -12.8488 -54.1986 30.563 -12.8488 -45.8438 36.9229 -12.8488 
4.28495 35.6988 -12.8488 12.6397 34.632 -12.8488 20.9945 34.9247 -12.8488 
29.3493 34.4931 -12.8488 37.7041 33.5398 -12.8488 48.4893 30.0801 -12.8488 
46.0589 31.0251 -12.8488 54.4137 30.0801 -10.6016 -43.9214 38.4349 -12.8488 
-45.8438 38.4349 -11.0835 -37.489 41.9973 -12.8488 -29.1342 43.9468 -12.8488 
-20.7794 43.8675 -12.8488 -12.4246 42.0987 -12.8488 -2.44711 38.4349 -12.8488 
-4.06984 38.952 -12.8488 4.28495 38.4349 -7.43076 12.6397 38.4349 -6.53076 
20.9945 38.4349 -7.84846 29.3493 38.4349 -7.10453 37.7041 38.4349 -5.58819 
-45.8438 -46.0293 -4.49401 -37.489 -45.3843 -4.49401 -47.9875 -45.113 -4.49401 
-54.1986 -42.4581 -4.49401 -45.8438 -45.113 -1.5194 -35.4013 -45.113 -4.49401 
-37.489 -45.113 -3.09776 -29.1342 -44.3299 -4.49401 -20.7794 -40.5423 -4.49401 
12.6397 -38.1617 -4.49401 20.9945 -41.4262 -4.49401 29.3493 -42.3687 -4.49401 
37.7041 -42.6762 -4.49401 46.0589 -40.9273 -4.49401 54.4137 -37.6828 -4.49401 
-61.8573 -36.7582 -4.49401 -62.5533 -35.9899 -4.49401 -14.5028 -36.7582 -4.49401 
-12.4246 -35.4358 -4.49401 -4.06984 -31.673 -4.49401 9.81733 -36.7582 -4.49401 
4.28495 -33.8705 -4.49401 56.2453 -36.7582 -4.49401 62.7685 -31.0709 -4.49401 
-67.4148 -28.4034 -4.49401 64.6786 -28.4034 -4.49401 -69.8986 -20.0486 -4.49401 
69.875 -20.0486 -4.49401 71.1232 -17.4997 -4.49401 71.1232 -20.0486 -1.13088 
-70.133 -11.6938 -4.49401 -70.9081 -11.6938 2.56538 73.1862 -11.6938 -4.49401 
-70.2339 -3.33903 -4.49401 75.587 -3.33903 -4.49401 -68.4956 5.01576 -4.49401 
75.2472 5.01576 -4.49401 -67.5956 13.3705 -4.49401 73.9272 13.3705 -4.49401 
71.1232 20.5171 -4.49401 -64.3445 21.7253 -4.49401 -62.5533 25.7478 -4.49401 
70.5285 21.7253 -4.49401 62.7685 28.9812 -4.49401 -60.2535 30.0801 -4.49401 
-54.1986 37.0966 -4.49401 46.0589 37.6332 -4.49401 61.2185 30.0801 -4.49401 
54.4137 34.0627 -4.49401 -52.3157 38.4349 -4.49401 -45.8438 41.8341 -4.49401 
-37.489 44.4031 -4.49401 -29.1342 46.1636 -4.49401 -20.7794 45.5528 -4.49401 
-12.4246 44.3301 -4.49401 -4.06984 41.6257 -4.49401 4.28495 39.4263 -4.49401 
12.6397 39.2867 -4.49401 20.9945 40.0208 -4.49401 29.3493 39.5065 -4.49401 
40.9389 38.4349 -4.49401 37.7041 38.8609 -4.49401 -54.1986 -41.0769 3.86078 
-45.8438 -42.9603 3.86078 -37.489 -43.7191 3.86078 -29.1342 -42.0028 3.86078 
-20.7794 -38.7544 3.86078 12.6397 -36.991 3.86078 20.9945 -39.6451 3.86078 
29.3493 -41.2418 3.86078 37.7041 -41.5151 3.86078 46.0589 -40.9186 3.86078 
54.4137 -38.1276 3.86078 -60.1397 -36.7582 3.86078 -62.5533 -34.345 3.86078 
-54.1986 -36.7582 9.36443 -45.8438 -36.7582 11.5397 -37.489 -36.7582 10.949 
-29.1342 -36.7582 9.39779 -17.1544 -36.7582 3.86078 -20.7794 -36.7582 6.7595 
-12.4246 -33.9784 3.86078 -4.06984 -31.2278 3.86078 12.088 -36.7582 3.86078 
4.28495 -33.5205 3.86078 12.6397 -36.7582 4.23885 20.9945 -36.7582 7.50093 
29.3493 -36.7582 9.75551 37.7041 -36.7582 12.0962 46.0589 -36.7582 9.46788 
57.4316 -36.7582 3.86078 54.4137 -36.7582 6.21593 62.7685 -33.2551 3.86078 
-67.0989 -28.4034 3.86078 -62.5533 -28.4034 9.44874 -12.4246 -28.4034 10.7245 
-4.06984 -28.4034 10.9152 66.9057 -28.4034 3.86078 62.7685 -28.4034 9.83719 
71.1232 -22.3774 3.86078 -69.814 -20.0486 3.86078 -70.9081 -12.5669 3.86078 
72.406 -20.0486 3.86078 71.1232 -20.0486 6.27673 -71.0282 -11.6938 3.86078 
-70.9081 -8.21543 3.86078 -70.9081 -11.6938 4.10367 75.4324 -11.6938 3.86078 
71.1232 -11.6938 11.8317 -70.7322 -3.33903 3.86078 76.8094 -3.33903 3.86078 
-69.7393 5.01576 3.86078 76.7124 5.01576 3.86078 -67.9685 13.3705 3.86078 
74.2638 13.3705 3.86078 71.1232 20.9078 3.86078 71.1232 13.3705 8.46018 
-65.0484 21.7253 3.86078 -62.5533 26.4761 3.86078 -62.5533 21.7253 9.16521 
70.6316 21.7253 3.86078 62.7685 28.4379 3.86078 62.7685 21.7253 11.6123 
-60.1986 30.0801 3.86078 -54.1986 36.7347 3.86078 -54.1986 30.0801 12.1232 
46.0589 37.0566 3.86078 60.405 30.0801 3.86078 54.4137 33.5034 3.86078 
54.4137 30.0801 10.4036 -50.8202 38.4349 3.86078 -45.8438 40.3611 3.86078 
-45.8438 38.4349 6.78955 -37.489 42.1864 3.86078 -37.489 38.4349 9.35682 
-29.1342 43.0494 3.86078 -29.1342 38.4349 9.21525 -20.7794 42.438 3.86078 
-20.7794 38.4349 8.73655 -12.4246 41.7918 3.86078 -12.4246 38.4349 8.86718 
-4.06984 40.8482 3.86078 -4.06984 38.4349 8.8967 4.28495 39.6386 3.86078 
4.28495 38.4349 7.53106 12.6397 39.6604 3.86078 12.6397 38.4349 7.77897 
20.9945 40.1702 3.86078 20.9945 38.4349 8.59709 29.3493 39.6775 3.86078 
29.3493 38.4349 7.21646 39.3239 38.4349 3.86078 37.7041 38.7105 3.86078 
37.7041 38.4349 4.50871 -54.1986 -30.2673 12.2156 -45.8438 -35.8809 12.2156 
-37.489 -34.7783 12.2156 -29.1342 -32.7937 12.2156 -20.7794 -29.9766 12.2156 
4.28495 -29.2819 12.2156 12.6397 -29.6267 12.2156 20.9945 -30.5244 12.2156 
29.3493 -32.9251 12.2156 37.7041 -36.6056 12.2156 46.0589 -33.5828 12.2156 
54.4137 -31.1626 12.2156 -56.1284 -28.4034 12.2156 -62.5533 -23.4657 12.2156 
-54.1986 -28.4034 12.9223 -45.8438 -28.4034 16.1923 -37.489 -28.4034 16.0743 
[...]
POINT_DATA 574
SCALARS ImageScalars float
LOOKUP_TABLE default
0 0 0 0 0 0 0 0 0 
0 0 0 0 0 0 0 0 0 
0 0 0 0 0 0 0 0 0 
0 0 0 0 0 0 0 0 0 
0 0 0 0 0 0 0 0 0 
0 0 0 0 0 0 0 0 0 
0 0 0 0 0 0 0 0 0 
0 0 0 0 0 0 0 0 0 
0 0 0 0 0 0 0 0 0 
0 0 0 0 0 0 0 0 0 
0 0 0 0 0 0 0 0 0 
0 0 0 0 0 0 0 0 0 
0 0 0 0 0 0 0 0 0 
0 0 0 0 0 0 0 0 0 
0 0 0 0 0 0 0 0 0 
0 0 0 0 0 0 0 0 0 
0 0 0 0 0 0 0 0 0 
0 0 0 0 0 0 0 0 0 
0 0 0 0 0 0 0 0 0 
0 0 0 0 0 0 0 0 0 
0 0 0 0 0 0 0 0 0 
0 0 0 0 0 0 0 0 0 
0 0 0 0 0 0 0 0 0 
0 0 0 0 0 0 0 0 0 
0 0 0 0 0 0 0 0 0 
0 0 0 0 0 0 0 0 0 
0 0 0 0 0 0 0 0 0 
0 0 0 0 0 0 0 0 0 
0 0 0 0 0 0 0 0 0 
0 0 0 0 0 0 0 0 0 
0 0 0 0 0 0 0 0 0 
0 0 0 0 0 0 0 0 0 
0 0 0 0 0 0 0 0 0 
0 0 0 0 0 0 0 0 0 
0 0 0 0 0 0 0 0 0 
0 0 0 0 0 0 0 0 0 
0 0 0 0 0 0 0 0 0 
0 0 0 0 0 0 0 0 0 
0 0 0 0 0 0 0 0 0 
0 0 0 0 0 0 0 0 0 
0 0 0 0 0 0 0 0 0 
0 0 0 0 0 0 0 0 0 
0 0 0 0 0 0 0 0 0 
0 0 0 0 0 0 0 0 0 
0 0 0 0 0 0 0 0 0 
0 0 0 0 0 0 0 0 0 
0 0 0 0 0 0 0 0 0 
0 0 0 0 0 0 0 0 0 
0 0 0 0 0 0 0 0 0 
0 0 0 0 0 0 0 0 0 
0 0 0 0 0 0 0 0 0 
0 0 0 0 0 0 0 0 0 
0 0 0 0 0 0 0 0 0 
0 0 0 0 0 0 0 0 0 
0 0 0 0 0 0 0 0 0 
0 0 0 0 0 0 0 0 0 
0 0 0 0 0 0 0 0 0 
0 0 0 0 0 0 0 0 0 
0 0 0 0 0 0 0 0 0 
0 0 0 0 0 0 0 0 0 
0 0 0 0 0 0 0 0 0 
0 0 0 0 0 0 0 0 0 
0 0 0 0 0 0 0 0 0 
0 0 0 0 0 0 0 
NORMALS Normals float
0.378253 0.468735 0.798256 0.177322 0.505702 0.844288 -0.00851991 0.452839 0.891552 
-0.198162 0.504944 0.840097 0.0195558 0.629172 0.77702 -0.22678 0.635442 0.738095 
0.593089 0.348443 0.725832 0.321282 0.230762 0.918437 0.16139 0.225434 0.960798 
0.0120888 0.220319 0.975353 -0.152459 0.246648 0.957038 -0.219758 0.262926 0.939455 
-0.297836 0.42185 0.85635 0.255381 0.619102 0.742626 0.226026 0.415823 0.880911 
0.0920243 0.34366 0.934575 -0.0511735 0.29856 0.953018 -0.107863 0.244512 0.963628 
-0.29422 0.310477 0.903902 0.565857 0.126859 0.814685 0.328687 0.0907667 0.940067 
0.157617 0.159964 0.974458 -0.00428961 0.0422066 0.9991 -0.115307 0.0743003 0.990547 
-0.226141 0.0475783 0.972932 -0.1075 0.0804908 0.990941 0.0665338 0.341291 0.9376 
0.136931 0.204288 0.969286 0.13051 0.141287 0.981328 0.0707732 0.110167 0.99139 
-0.0781475 0.07768 0.993911 -0.178596 0.0965614 0.979173 -0.22169 0.0749209 0.972235 
-0.239629 0.230818 0.943028 0.567824 -0.0461312 0.821857 0.328126 0.0364779 0.943929 
0.12898 -0.0201738 0.991442 -0.0713338 0.0456859 0.996406 -0.155821 -0.0100868 0.987734 
-0.210908 0.0113862 0.97744 0.024906 0.0978654 0.994888 0.111261 0.256099 0.960226 
0.0323719 -0.0357335 0.998837 0.129911 0.0656654 0.989349 0.0204191 -0.0438319 0.99883 
-0.0672795 -0.0628885 0.99575 -0.114689 0.0153525 0.993283 -0.160369 0.103016 0.981667 
-0.234177 0.150565 0.960464 -0.434265 0.0819394 0.897051 0.626756 -0.103931 0.772253 
0.333041 -0.045277 0.941824 0.158076 -0.0653468 0.985262 0.00302177 0.0259527 0.999659 
-0.150614 0.0375603 0.987879 -0.0953135 0.0681499 0.993112 0.148986 0.185443 0.971295 
-0.12072 0.0091249 0.992645 -0.0305076 0.070518 0.997044 0.117877 0.00383252 0.993021 
-0.058078 -0.132892 0.989428 -0.0191678 -0.0589117 0.998079 -0.0182843 0.0160266 0.999704 
-0.0986504 0.0958816 0.990492 -0.236177 0.0992837 0.966625 -0.402677 0.0282312 0.914907 
0.642501 -0.041894 0.765139 0.350023 -0.0795195 0.93336 0.194952 -0.00697125 0.980788 
0.039412 -0.00172731 0.999222 -0.117942 0.0429869 0.99209 -0.0870779 0.108388 0.990288 
-0.00628125 0.0493574 0.998761 0.0166315 -0.145603 0.989203 0.0131036 0.106752 0.994199 
-0.0844691 -0.0604809 0.994589 -0.0310988 -0.0656267 0.99736 0.0791542 -0.0166126 0.996724 
0.0453129 0.0120596 0.9989 -0.0789621 0.0112809 0.996814 -0.269804 0.0123175 0.962836 
-0.389737 -0.0188227 0.920734 0.389821 -0.114716 0.913717 0.2395 -0.0419046 0.969992 
0.045403 -0.0369351 0.998286 -0.0424581 0.0493892 0.997877 -0.0771877 0.131086 0.988361 
-0.10821 0.129435 0.985666 -0.0394996 0.0365093 0.998552 0.0308398 -0.0100719 0.999474 
-0.0478731 -0.0224978 0.9986 -0.0181544 0.0287677 0.999421 0.0588665 -0.011927 0.998195 
0.00944736 -0.00346038 0.999949 -0.100222 -0.114811 0.988319 -0.252637 -0.0990651 0.962476 
-0.446541 -0.0513092 0.893291 0.509673 -0.20019 0.836754 0.26125 -0.179508 0.948433 
0.124372 -0.0398985 0.991433 0.0524375 -0.00849051 0.998588 -0.011255 0.051497 0.99861 
-0.10604 0.0670937 0.992096 -0.126231 0.0304244 0.991534 -0.0427702 -0.0941026 0.994643 
-0.0385777 -0.104583 0.993768 -0.0264998 -0.0811819 0.996347 0.0437063 -0.119175 0.991911 
-0.0592552 -0.202436 0.977501 -0.169982 -0.227698 0.95878 -0.24196 -0.343576 0.90742 
-0.495785 -0.31691 0.808558 0.555683 -0.391522 0.733434 0.351558 -0.315955 0.881238 
0.210121 -0.220861 0.952402 0.0466239 -0.154694 0.986862 0.00102679 -0.146713 0.989179 
-0.13028 -0.196174 0.971876 -0.209612 -0.253776 0.944278 -0.12538 -0.416781 0.900318 
-0.0322684 -0.453944 0.890446 -0.0300436 -0.41503 0.909311 -0.075714 -0.426874 0.901136 
-0.110174 -0.486906 0.866478 -0.220389 -0.56241 0.796946 0.287602 -0.572305 0.767954 
0.127782 -0.509368 0.851008 -0.0580589 -0.535919 0.842271 -0.221877 -0.633106 0.741585 
-0.315455 -0.770064 0.554517 0.404496 0.582697 0.704874 0.201197 0.626138 0.753307 
0.200777 0.952195 0.230248 -0.0488668 0.758018 0.650401 -0.0991626 0.990812 0.0919654 
-0.25965 0.675941 0.689699 0.0187482 0.70927 0.704688 -0.226378 0.642424 0.73215 
0.469444 0.518654 0.714578 0.597384 0.357284 0.71797 -0.372126 0.644819 0.667631 
-0.375295 0.637997 0.672394 -0.389086 0.664424 0.638086 -0.362324 0.547747 0.754119 
0.26856 0.662076 0.699665 0.307268 0.665996 0.679731 0.40855 0.856399 0.315701 
0.189153 0.688693 0.699945 0.192572 0.687612 0.700076 0.1934 0.691127 0.696376 
-0.230486 0.636313 0.736194 -0.291845 0.48292 0.825599 -0.28777 0.711339 0.641237 
-0.462353 0.781851 0.418256 0.597367 0.351515 0.720826 -0.154689 0.601649 0.783639 
0.133713 0.666062 0.733814 -0.0177446 0.605424 0.795705 -0.0551201 0.780894 0.622227 
-0.402563 0.346364 0.847334 -0.344357 0.293998 0.891618 -0.464542 0.383635 0.798139 
-0.605379 0.539002 0.585656 0.647771 0.141787 0.748525 -0.45549 0.316416 0.832112 
-0.482147 0.281405 0.829666 -0.495898 0.328346 0.803912 0.70622 -0.0487942 0.706309 
-0.472412 0.101807 0.875478 -0.725897 0.308377 0.614799 0.646626 -0.105174 0.755522 
-0.435014 0.0478815 0.89915 -0.637436 0.150564 0.755649 0.671292 -0.0479408 0.739641 
0.653627 -0.157312 0.740287 -0.445526 -0.0167641 0.895112 -0.685809 -0.0492029 0.726116 
0.635266 -0.204137 0.744826 0.663428 -0.208122 0.718713 -0.483412 -0.0785326 0.871863 
-0.770727 -0.294972 0.564775 0.592106 -0.252478 0.765287 0.804761 -0.378053 0.457641 
-0.301734 -0.51337 0.803373 -0.512372 -0.332259 0.791883 -0.507521 -0.355672 0.784805 
0.575783 -0.395533 0.715561 0.564266 -0.407304 0.718127 0.447768 -0.603004 0.660219 
-0.188756 -0.722247 0.66538 -0.0334742 -0.708276 0.705141 -0.00331 -0.667179 0.74489 
-0.0532808 -0.647422 0.760267 -0.128897 -0.628028 0.767442 -0.260904 -0.575134 0.775339 
-0.230425 -0.591639 0.772572 -0.378839 -0.676248 0.631799 0.432432 -0.648934 0.626009 
0.464685 -0.716628 0.520108 0.315416 -0.744795 0.588042 0.101559 -0.811231 0.575838 
-0.106461 -0.85881 0.50111 -0.270794 -0.817313 0.508596 -0.292512 -0.79232 0.535412 
-0.316134 -0.795762 0.516549 -0.160883 -0.935543 0.314445 0.0198281 -0.948392 0.31648 
0.0154197 -0.914781 0.403656 -0.0568604 -0.937868 0.342301 -0.109504 -0.963737 0.243351 
0.177037 0.982245 0.062066 -0.100252 0.994657 0.0246536 0.240994 0.967693 0.0741087 
0.436385 0.891623 0.120732 0.176571 0.973425 -0.145834 -0.140758 0.989269 0.0391763 
-0.0926977 0.994553 -0.0476655 -0.264378 0.960929 0.0819688 -0.459483 0.884925 0.0760527 
0.430503 0.894219 0.12264 0.237986 0.962469 0.130447 0.0763302 0.98918 0.125286 
-0.0777937 0.978959 0.188645 -0.282571 0.915011 0.287939 -0.44734 0.818123 0.361332 
0.735572 0.654371 0.175306 0.762059 0.621439 0.181877 -0.507095 0.85916 0.0685461 
-0.506993 0.858351 0.0786826 -0.0885755 0.977479 0.191543 0.410668 0.901802 0.134555 
0.349063 0.918857 0.184004 -0.498215 0.775186 0.388417 -0.65208 0.571588 0.498075 
0.895497 0.37584 0.23839 -0.696475 0.537665 0.475225 0.943126 0.170814 0.285193 
-0.764132 0.385103 0.517491 -0.771841 0.369556 0.517387 -0.868044 0.422567 0.260648 
0.943739 0.0171813 0.330245 0.991421 0.0462649 -0.122243 -0.813738 0.313431 0.48948 
0.939938 -0.0918321 0.32876 -0.923699 0.114013 0.365761 0.927978 -0.143173 0.344033 
-0.926682 -0.094102 0.363876 0.924907 -0.225299 0.306248 -0.904348 -0.280378 0.32178 
-0.800293 -0.483043 0.355248 0.865058 -0.396438 0.307427 0.842169 -0.465018 0.272964 
-0.783287 -0.515749 0.347081 -0.61033 -0.755844 0.237062 0.809546 -0.539044 0.232523 
0.632007 -0.744563 0.214925 -0.271856 -0.939608 0.207921 -0.569145 -0.787782 0.235529 
-0.414756 -0.882696 0.220966 0.568598 -0.799375 0.194155 0.401903 -0.908339 0.11573 
0.239698 -0.970738 -0.0146053 0.0681097 -0.996338 -0.0516918 -0.104878 -0.991785 -0.0732371 
-0.238796 -0.970777 -0.0238334 -0.277528 -0.956663 0.0881753 -0.138738 -0.975312 0.171807 
0.0357425 -0.973975 0.22382 0.0134467 -0.973107 0.229963 -0.0672858 -0.976823 0.203199 
-0.169447 -0.967144 0.189527 -0.107025 -0.977115 0.183825 0.371843 0.857326 -0.355983 
0.157077 0.850167 -0.502536 -0.0492481 0.902593 -0.427669 -0.276587 0.834362 -0.476802 
-0.402014 0.81731 -0.412782 0.332233 0.877034 -0.347035 0.245927 0.866949 -0.433496 
0.0990639 0.920548 -0.377859 -0.0193956 0.937169 -0.348337 -0.186641 0.944566 -0.27011 
-0.361685 0.903157 -0.231282 0.597342 0.690289 -0.40827 0.67504 0.626015 -0.390419 
0.396887 0.535598 -0.745396 0.0618448 0.64159 -0.76455 -0.0867442 0.606251 -0.790528 
-0.192281 0.655917 -0.729932 -0.433694 0.81522 -0.383832 -0.356703 0.754853 -0.550417 
-0.405215 0.835419 -0.371318 -0.0110141 0.977695 -0.209739 0.332516 0.879645 -0.340084 
0.31023 0.924548 -0.221289 0.325441 0.871848 -0.366019 0.222877 0.758119 -0.612848 
0.171231 0.707699 -0.68545 -0.00711215 0.659293 -0.751852 -0.192158 0.737106 -0.647882 
-0.453936 0.863731 -0.218883 -0.344 0.88044 -0.326328 -0.65887 0.732347 -0.171927 
0.823865 0.448782 -0.346181 0.60006 0.526468 -0.602296 -0.117928 0.623983 -0.772488 
0.0954369 0.830782 -0.548355 -0.750419 0.646894 -0.135642 -0.560916 0.606377 -0.563632 
-0.870606 0.476427 -0.12273 0.934037 0.219811 -0.281526 0.976512 0.0665348 -0.204934 
-0.906523 0.405698 -0.116724 -0.876846 0.412518 -0.246922 0.97933 0.0500147 -0.195987 
0.981442 -0.00135958 -0.191753 0.977192 0.0522708 -0.205826 -0.960009 0.263698 -0.0940556 
-0.65393 0.223149 -0.722897 0.979622 -0.0760623 -0.185891 -0.979842 0.0732883 -0.185846 
0.97541 -0.166526 -0.144377 -0.971639 -0.145321 -0.186547 0.953325 -0.259147 -0.154964 
-0.907358 -0.359338 -0.218122 -0.781417 -0.542037 -0.309165 -0.721637 -0.411489 -0.556702 
0.899212 -0.406419 -0.161991 0.832196 -0.519007 -0.195145 0.778804 -0.437446 -0.449561 
-0.764068 -0.564002 -0.313213 -0.589106 -0.741656 -0.32078 -0.458979 -0.466014 -0.756418 
0.753274 -0.613966 -0.235849 0.553729 -0.78982 -0.263761 0.491602 -0.537981 -0.684766 
-0.288529 -0.912053 -0.291392 -0.546265 -0.781988 -0.300148 -0.414161 -0.869471 -0.26924 
-0.384787 -0.65986 -0.645387 0.44594 -0.839881 -0.309416 0.300189 -0.876284 -0.376845 
0.263044 -0.827692 -0.495715 0.13693 -0.893984 -0.426665 0.0824741 -0.789767 -0.607837 
0.0188156 -0.842863 -0.5378 -0.0263901 -0.715466 -0.698149 -0.0669186 -0.850513 -0.521679 
-0.0153598 -0.727182 -0.686273 -0.0902988 -0.898225 -0.430161 0.00660692 -0.765876 -0.642954 
-0.122762 -0.958105 -0.258773 -0.0273029 -0.864329 -0.502185 -0.0688943 -0.987699 -0.140374 
-0.0354691 -0.947207 -0.318656 0.0313704 -0.991827 -0.123677 0.0238315 -0.950397 -0.310126 
0.00119319 -0.986769 -0.162127 -0.0156772 -0.924442 -0.380999 -0.0841927 -0.982775 -0.164515 
-0.0993693 -0.940536 -0.324836 -0.172803 -0.957269 -0.231896 -0.144976 -0.964785 -0.219483 
-0.150077 -0.957052 -0.248047 0.336736 0.386638 -0.858557 0.0677829 0.600782 -0.796534 
-0.0883318 0.549406 -0.830874 -0.159733 0.521394 -0.838232 -0.223393 0.491782 -0.841573 
0.0970812 0.730195 -0.676307 0.0468497 0.506964 -0.860693 0.10308 0.475487 -0.873663 
0.162407 0.522471 -0.837047 -0.00557244 0.65111 -0.758963 -0.15683 0.568501 -0.807595 
-0.264791 0.589224 -0.763349 0.375963 0.412887 -0.829564 0.557045 0.325244 -0.764144 
0.314086 0.38624 -0.867276 0.155183 0.361327 -0.919435 -0.0717058 0.386668 -0.919427 
-0.164445 0.400974 -0.901209 -0.158598 0.505863 -0.847909 -0.214178 0.443632 -0.87024 
-0.0494765 0.526991 -0.848429 0.099467 0.757754 -0.644915 0.116224 0.763725 -0.634993 
0.0714907 0.692842 -0.717537 0.0186072 0.453908 -0.890854 0.0831155 0.403271 -0.911298 
0.122223 0.37347 -0.919555 0.0833798 0.381355 -0.920661 -0.0673594 0.429516 -0.900544 
-0.379229 0.531847 -0.757182 -0.27514 0.46641 -0.84069 -0.475089 0.485777 -0.733697 
0.60673 0.211005 -0.766391 0.534252 0.185341 -0.824757 0.272543 0.282446 -0.919753 
0.0569778 0.2261 -0.972436 -0.0347522 0.22968 -0.972646 -0.136385 0.246922 -0.95939 
-0.130317 0.259285 -0.956968 0.0559055 0.41924 -0.906152 0.137327 0.425457 -0.894499 
-0.118344 0.322765 -0.939051 -0.0775803 0.25291 -0.964374 0.12633 0.194117 -0.97281 
0.130014 0.203471 -0.97041 0.0547005 0.210845 -0.975988 0.0113398 0.199793 -0.979772 
-0.191885 0.211226 -0.958417 -0.646015 0.333859 -0.686443 -0.425776 0.283209 -0.859364 
0.67627 0.0560947 -0.734515 0.577258 0.0660129 -0.813889 0.293621 0.0948557 -0.951204 
0.11803 0.146415 -0.982157 -0.0638823 0.167878 -0.983736 -0.127226 0.142769 -0.981545 
-0.0141896 0.180726 -0.983431 0.132164 0.343741 -0.929718 0.0122289 0.190017 -0.981705 
-0.121474 0.135079 -0.98336 -0.156157 0.346816 -0.924842 0.0396143 0.0994304 -0.994256 
0.149712 0.0930381 -0.984343 0.0958536 0.0893533 -0.991377 -0.0542558 0.0748488 -0.995718 
-0.190167 0.0136885 -0.981656 -0.622599 0.208846 -0.754158 -0.389071 0.0951975 -0.916276 
-0.630952 0.16393 -0.758305 0.725666 0.0104487 -0.687967 0.583746 0.0283551 -0.811441 
0.295369 0.0551494 -0.95379 -0.11674 0.107397 -0.987339 0.0446999 0.126634 -0.990942 
0.0302496 0.054957 -0.99803 -0.107605 0.170756 -0.97942 0.118076 0.0703331 -0.990511 
0.0404094 0.0306535 -0.998713 -0.058728 0.0322254 -0.997754 -0.151015 0.00645643 -0.98851 
-0.378429 0.00927823 -0.925584 -0.636719 0.0205357 -0.770823 -0.607734 0.0216891 -0.793845 
0.733476 -0.0394263 -0.678571 0.650901 -0.0137943 -0.759037 0.331513 -0.0212162 -0.943212 
-0.00798758 0.067979 -0.997655 -0.022455 -0.0675269 -0.997465 -0.163799 0.228737 -0.959609 
0.0115114 0.0779616 -0.99689 0.0613084 -0.00491063 -0.998107 -0.213995 -0.0953604 -0.972169 
-0.364293 -0.149914 -0.919139 -0.623217 -0.163757 -0.764712 -0.612275 -0.184613 -0.76879 
-0.612838 -0.164346 -0.772929 0.783735 -0.203323 -0.586872 0.712739 -0.336052 -0.615688 
0.676081 -0.199494 -0.709307 0.34445 -0.096857 -0.933795 -0.0900881 -0.0914914 -0.991722 
0.0289959 -0.209196 -0.977444 0.0297631 -0.0957247 -0.994963 -0.105337 0.0379703 -0.993711 
-0.08028 -0.0704163 -0.994282 -0.155784 -0.214939 -0.964123 -0.248642 -0.193871 -0.948995 
-0.492492 -0.313863 -0.811752 -0.449863 -0.412138 -0.792317 -0.418082 -0.260377 -0.870294 
0.645445 -0.421632 -0.636889 0.489665 -0.534243 -0.689067 0.427473 -0.338227 -0.838373 
0.139605 -0.314748 -0.938852 0.0175973 -0.32791 -0.944545 -0.0831209 -0.303058 -0.94934 
-0.120732 -0.294924 -0.947863 -0.0106304 -0.290092 -0.95694 0.0641417 -0.262443 -0.962813 
0.101 -0.124803 -0.987028 0.148057 -0.216787 -0.964926 -0.140577 -0.16748 -0.975801 
-0.18755 -0.244827 -0.951254 -0.214577 -0.29962 -0.929615 -0.422052 -0.441762 -0.791655 
-0.34422 -0.538095 -0.769393 -0.301822 -0.392941 -0.86862 0.485631 -0.536932 -0.689831 
0.220318 -0.658747 -0.719383 0.213159 -0.54393 -0.811605 0.041353 -0.687531 -0.724977 
0.0143493 -0.493286 -0.869749 -0.0543274 -0.613188 -0.788067 -0.0775701 -0.505919 -0.859086 
-0.0174143 -0.581906 -0.813069 -0.0527122 -0.464743 -0.883875 0.0554361 -0.551548 -0.832299 
0.0549499 -0.40482 -0.912744 0.0611757 -0.681724 -0.729048 0.114137 -0.393351 -0.912276 
0.0277448 -0.767651 -0.640267 0.0798119 -0.403271 -0.911593 0.0232649 -0.804328 -0.59373 
0.0812095 -0.456215 -0.886156 -0.0308501 -0.810205 -0.585334 -0.0158356 -0.502554 -0.864401 
-0.125515 -0.763069 -0.634012 -0.150828 -0.504928 -0.849882 -0.225535 -0.700374 -0.677207 
-0.209935 -0.531445 -0.820666 -0.253757 -0.62174 -0.740977 -0.237911 -0.628671 -0.740386 
-0.236707 -0.622019 -0.746366 0.115 0.0875881 -0.989497 -0.0502768 0.128867 -0.990386 
0.121308 0.174651 -0.977129 -0.0463095 0.179546 -0.982659 -0.145752 0.296098 -0.943972 
0.127946 0.0498281 -0.990529 0.111433 0.0472537 -0.992648 -0.0734198 0.101207 -0.992153 
-0.0377238 0.0966731 -0.994601 -0.106072 0.0921283 -0.990081 0.100684 0.113081 -0.988471 
0.120343 0.111189 -0.986486 -0.0432076 0.143836 -0.988658 -0.0701478 0.175107 -0.982047 
-0.0482364 0.155048 -0.986729 -0.142294 0.250734 -0.957541 -0.139797 0.262357 -0.954791 
-0.0733723 -0.0329996 -0.996759 0.19432 -0.00474799 -0.980927 0.141524 0.00366421 -0.989928 
-0.0092334 0.0704315 -0.997474 -0.0567124 0.0753344 -0.995544 -0.0970494 0.0789631 -0.992142 
0.0999107 -0.0155927 -0.994874 0.122206 -0.116876 -0.985599 0.169656 -0.0706025 -0.982971 
-0.0265379 -0.0608998 -0.997791 -0.0618635 -0.00502254 -0.998072 -0.025014 -0.0584472 -0.997977 
-0.122357 0.153142 -0.9806 -0.0218014 -0.0131728 -0.999676 -0.116785 0.165005 -0.979354 
-0.071581 -0.0332742 -0.99688 -0.0741969 -0.034051 -0.996662 -0.0740954 -0.0348019 -0.996644 
-0.0735205 -0.0336706 -0.996725 0.209666 -0.0967577 -0.972974 0.186864 -0.129491 -0.973814 
0.196514 -0.0978203 -0.975609 0.022634 -0.265507 -0.963843 0.0385401 -0.101308 -0.994108 
-0.0964725 -0.0866801 -0.991554 -0.0993005 -0.186602 -0.977404 -0.115557 -0.0767222 -0.990333 
-0.0516465 -0.2604 -0.964118 -0.0622886 -0.258236 -0.964072 -0.0615332 -0.270966 -0.96062 
-0.0702996 -0.271868 -0.959763 0.129941 -0.118738 -0.984386 0.155918 -0.17865 -0.97148 
0.163759 -0.125767 -0.978451 -0.0950809 0.0485598 -0.994284 -0.0553759 0.0741958 -0.995705 
0.0817484 -0.203799 -0.975594 -0.0801387 -0.174482 -0.981394 0.001416 -0.24061 -0.970621 
0.00190545 -0.185901 -0.982567 
