# vtk DataFile Version 4.2
vtk output
ASCII
DATASET POLYDATA
POINTS 502 float
-38.6425 -33.7192 -17.2982 -30.2532 -33.7192 -20.6707 -21.864 -33.7192 -20.7258 
-13.4747 -33.7192 -19.8795 -5.08537 -33.7192 -18.4219 3.30391 -33.7192 -17.0849 
11.6932 -33.7192 -16.943 20.0825 -33.7192 -16.7936 -47.0318 -25.3299 -17.5815 
-38.6425 -25.3299 -22.1408 -30.2532 -25.3299 -23.4385 -21.864 -25.3299 -24.2299 
-13.4747 -25.3299 -22.6189 -5.08537 -25.3299 -21.9899 3.30391 -25.3299 -22.3088 
11.6932 -25.3299 -22.8 20.0825 -25.3299 -22.8326 28.4718 -25.3299 -22.8729 
36.8611 -25.3299 -21.1193 45.2504 -25.3299 -17.0729 -47.0318 -16.9406 -21.3741 
-38.6425 -16.9406 -23.9028 -30.2532 -16.9406 -24.2917 -21.864 -16.9406 -24.208 
-13.4747 -16.9406 -22.4796 -5.08537 -16.9406 -22.0006 3.30391 -16.9406 -22.6126 
11.6932 -16.9406 -23.0609 20.0825 -16.9406 -23.6916 28.4718 -16.9406 -24.2825 
36.8611 -16.9406 -23.7643 45.2504 -16.9406 -21.9924 53.6396 -16.9406 -17.5876 
-55.4211 -8.55134 -19.3607 -47.0318 -8.55134 -23.1503 -38.6425 -8.55134 -24.4694 
-30.2532 -8.55134 -24.256 -21.864 -8.55134 -23.4236 -13.4747 -8.55134 -22.4748 
-5.08537 -8.55134 -21.1432 3.30391 -8.55134 -21.1843 11.6932 -8.55134 -22.2507 
20.0825 -8.55134 -22.8788 28.4718 -8.55134 -23.9892 36.8611 -8.55134 -24.2202 
45.2504 -8.55134 -23.3196 53.6396 -8.55134 -20.5168 -55.4211 -0.162055 -21.2779 
-47.0318 -0.162055 -24.1268 -38.6425 -0.162055 -24.5602 -30.2532 -0.162055 -23.8676 
-21.864 -0.162055 -22.7217 -13.4747 -0.162055 -23.8643 -5.08537 -0.162055 -23.7599 
3.30391 -0.162055 -22.7335 11.6932 -0.162055 -24.5566 20.0825 -0.162055 -22.7446 
28.4718 -0.162055 -23.2984 36.8611 -0.162055 -23.6955 45.2504 -0.162055 -23.1349 
53.6396 -0.162055 -20.8223 -55.4211 8.22723 -20.9303 -47.0318 8.22723 -23.8034 
-38.6425 8.22723 -24.5412 -30.2532 8.22723 -23.834 -21.864 8.22723 -22.9131 
-13.4747 8.22723 -23.4254 -5.08537 8.22723 -23.7616 3.30391 8.22723 -22.8608 
11.6932 8.22723 -24.1751 20.0825 8.22723 -22.1946 28.4718 8.22723 -22.3098 
36.8611 8.22723 -22.5929 45.2504 8.22723 -22.0599 53.6396 8.22723 -19.8632 
-55.4211 16.6165 -18.7433 -47.0318 16.6165 -22.6401 -38.6425 16.6165 -23.9208 
-30.2532 16.6165 -24.1625 -21.864 16.6165 -24.3442 -13.4747 16.6165 -24.4676 
-5.08537 16.6165 -24.0774 3.30391 16.6165 -23.4072 11.6932 16.6165 -22.2434 
20.0825 16.6165 -20.6598 28.4718 16.6165 -20.7525 36.8611 16.6165 -21.1252 
45.2504 16.6165 -20.6726 53.6396 16.6165 -17.8949 -47.0318 25.0058 -19.0185 
-38.6425 25.0058 -22.3741 -30.2532 25.0058 -23.9332 -21.864 25.0058 -24.3544 
-13.4747 25.0058 -24.2918 -5.08537 25.0058 -24.1394 3.30391 25.0058 -23.4719 
11.6932 25.0058 -20.8869 20.0825 25.0058 -18.2608 28.4718 25.0058 -17.3773 
36.8611 25.0058 -17.3932 -30.2532 33.3951 -17.8582 -21.864 33.3951 -20.06 
-13.4747 33.3951 -20.0122 -5.08537 33.3951 -20.0563 3.30391 33.3951 -19.0782 
-38.6425 -34.2798 -16.6931 -30.2532 -38.2208 -16.6931 -21.864 -38.5823 -16.6931 
-13.4747 -37.2923 -16.6931 -5.08537 -35.5036 -16.6931 3.30391 -34.0464 -16.6931 
11.6932 -33.9242 -16.6931 20.0825 -33.7999 -16.6931 -39.4011 -33.7192 -16.6931 
-47.0318 -26.4306 -16.6931 20.6868 -33.7192 -16.6931 28.4718 -32.5292 -16.6931 
28.4718 -33.7192 -9.84434 36.8611 -29.4888 -16.6931 45.2504 -25.6195 -16.6931 
-47.911 -25.3299 -16.6931 45.6508 -25.3299 -16.6931 53.6396 -18.0099 -16.6931 
-54.0655 -16.9406 -16.6931 -55.4211 -14.5121 -16.6931 -55.4211 -16.9406 -13.6326 
54.6663 -16.9406 -16.6931 -58.0913 -8.55134 -16.6931 58.6323 -8.55134 -16.6931 
62.0289 -8.55134 -12.1661 -60.6612 -0.162055 -16.6931 -63.8104 -0.162055 -9.93791 
60.1109 -0.162055 -16.6931 62.0289 -0.162055 -14.9031 -60.0028 8.22723 -16.6931 
59.1685 8.22723 -16.6931 62.0289 8.22723 -14.4058 -57.5296 16.6165 -16.6931 
-55.4211 19.6765 -16.6931 45.2504 23.1834 -16.6931 55.4086 16.6165 -16.6931 
53.6396 18.5664 -16.6931 62.0289 16.6165 -9.30838 -50.0332 25.0058 -16.6931 
-47.0318 27.1432 -16.6931 -38.6425 31.4778 -16.6931 11.6932 31.9085 -16.6931 
20.0825 27.5989 -16.6931 28.4718 25.9861 -16.6931 40.0039 25.0058 -16.6931 
36.8611 25.9506 -16.6931 45.2504 25.0058 -15.4237 53.6396 25.0058 -10.2571 
-32.9293 33.3951 -16.6931 -30.2532 34.1449 -16.6931 -21.864 35.8001 -16.6931 
-13.4747 35.7222 -16.6931 -5.08537 35.8865 -16.6931 9.11376 33.3951 -16.6931 
3.30391 35.2168 -16.6931 11.6932 33.3951 -14.9182 20.0825 33.3951 -10.7478 
28.4718 33.3951 -9.81615 -38.6425 -37.2929 -8.30385 -30.2532 -41.0392 -8.30385 
-21.864 -41.8733 -8.30385 -13.4747 -40.8381 -8.30385 -5.08537 -38.9476 -8.30385 
3.30391 -37.7231 -8.30385 11.6932 -37.2942 -8.30385 20.0825 -36.2012 -8.30385 
28.4718 -33.931 -8.30385 -43.3754 -33.7192 -8.30385 -47.0318 -30.2442 -8.30385 
29.0259 -33.7192 -8.30385 28.4718 -33.7192 -6.18398 36.8611 -30.6365 -8.30385 
45.2504 -26.5565 -8.30385 -51.08 -25.3299 -8.30385 -55.4211 -19.4566 -8.30385 
47.3956 -25.3299 -8.30385 53.6396 -21.2846 -8.30385 -57.088 -16.9406 -8.30385 
58.6398 -16.9406 -8.30385 62.0289 -12.2202 -8.30385 -61.8545 -8.55134 -8.30385 
-63.8104 -1.96762 -8.30385 64.5573 -8.55134 -8.30385 -64.3676 -0.162055 -8.30385 
-63.8104 7.77166 -8.30385 -63.8104 -0.162055 -5.14516 66.4744 -0.162055 -8.30385 
-63.7809 8.22723 -8.30385 66.4607 8.22723 -8.30385 -60.583 16.6165 -8.30385 
-55.4211 22.9066 -8.30385 62.7389 16.6165 -8.30385 62.0289 17.6635 -8.30385 
-52.9474 25.0058 -8.30385 -47.0318 29.3089 -8.30385 -38.6425 32.2883 -8.30385 
36.8611 32.9724 -8.30385 45.2504 30.8351 -8.30385 55.4786 25.0058 -8.30385 
53.6396 26.4614 -8.30385 -34.0238 33.3951 -8.30385 -30.2532 34.2555 -8.30385 
-21.864 35.7414 -8.30385 -13.4747 36.9281 -8.30385 -5.08537 37.9443 -8.30385 
3.30391 37.832 -8.30385 11.6932 36.1344 -8.30385 20.0825 34.805 -8.30385 
34.4417 33.3951 -8.30385 28.4718 34.4228 -8.30385 36.8611 33.3951 -6.5519 
-38.6425 -34.2295 0.0854435 -30.2532 -39.5684 0.0854435 -21.864 -41.6471 0.0854435 
-13.4747 -41.5017 0.0854435 -5.08537 -40.6786 0.0854435 3.30391 -39.8192 0.0854435 
11.6932 -38.8266 0.0854435 20.0825 -36.6288 0.0854435 -39.3547 -33.7192 0.0854435 
-47.0318 -26.3416 0.0854435 -38.6425 -33.7192 0.834828 26.9333 -33.7192 0.0854435 
28.4718 -33.0409 0.0854435 36.8611 -29.5 0.0854435 45.2504 -25.6106 0.0854435 
-47.8397 -25.3299 0.0854435 -55.4211 -16.9648 0.0854435 -47.0318 -25.3299 1.12523 
45.8224 -25.3299 0.0854435 45.2504 -25.3299 1.92483 53.6396 -20.9637 0.0854435 
-55.4378 -16.9406 0.0854435 -55.4211 -16.9406 0.109827 58.9336 -16.9406 0.0854435 
62.0289 -13.3249 0.0854435 -59.8686 -8.55134 0.0854435 -55.4211 -8.55134 6.44122 
64.9857 -8.55134 0.0854435 -62.7671 -0.162055 0.0854435 67.5347 -0.162055 0.0854435 
-62.5046 8.22723 0.0854435 67.5791 8.22723 0.0854435 -58.6048 16.6165 0.0854435 
-55.4211 20.5451 0.0854435 -55.4211 16.6165 5.57935 63.9817 16.6165 0.0854435 
62.0289 19.5743 0.0854435 62.0289 16.6165 4.46467 -50.2841 25.0058 0.0854435 
-47.0318 27.2847 0.0854435 -47.0318 25.0058 6.18925 -38.6425 30.8489 0.0854435 
45.2504 32.4883 0.0854435 57.1296 25.0058 0.0854435 53.6396 27.8752 0.0854435 
53.6396 25.0058 5.89136 -30.4438 33.3951 0.0854435 -30.2532 33.4472 0.0854435 
-21.864 35.4011 0.0854435 -13.4747 37.1258 0.0854435 -5.08537 38.5603 0.0854435 
3.30391 38.2592 0.0854435 11.6932 37.079 0.0854435 20.0825 36.5789 0.0854435 
28.4718 36.2582 0.0854435 42.2458 33.3951 0.0854435 36.8611 34.8734 0.0854435 
36.8611 33.3951 6.19586 -30.2532 -35.3049 8.47473 -21.864 -39.3983 8.47473 
-13.4747 -41.2953 8.47473 -5.08537 -41.4901 8.47473 3.30391 -41.1576 8.47473 
11.6932 -39.2424 8.47473 20.0825 -36.4993 8.47473 -32.4443 -33.7192 8.47473 
-38.6425 -27.7243 8.47473 -30.2532 -33.7192 10.852 24.9177 -33.7192 8.47473 
20.0825 -33.7192 15.5643 28.4718 -31.6952 8.47473 36.8611 -27.5586 8.47473 
-40.995 -25.3299 8.47473 -47.0318 -18.5473 8.47473 -38.6425 -25.3299 10.702 
42.5599 -25.3299 8.47473 36.8611 -25.3299 13.1247 45.2504 -24.2082 8.47473 
53.6396 -18.2613 8.47473 -48.3099 -16.9406 8.47473 -47.0318 -16.9406 9.76718 
-38.6425 -16.9406 16.6289 55.3185 -16.9406 8.47473 53.6396 -16.9406 10.6378 
62.0289 -8.76872 8.47473 -53.7734 -8.55134 8.47473 -55.4211 -4.65699 8.47473 
-47.0318 -8.55134 14.6729 62.1796 -8.55134 8.47473 62.0289 -8.55134 8.67384 
-57.4592 -0.162055 8.47473 -55.4211 -0.162055 10.3943 64.5836 -0.162055 8.47473 
62.0289 -0.162055 11.6351 -57.235 8.22723 8.47473 -55.4211 12.6029 8.47473 
-55.4211 8.22723 10.4948 63.9852 8.22723 8.47473 62.0289 12.2326 8.47473 
62.0289 8.22723 10.6164 -53.8056 16.6165 8.47473 -47.0318 24.0949 8.47473 
59.8548 16.6165 8.47473 53.6396 23.4797 8.47473 53.6396 16.6165 14.4555 
-45.8914 25.0058 8.47473 -38.6425 29.5071 8.47473 36.8611 32.7075 8.47473 
36.8611 25.0058 16.2595 51.8219 25.0058 8.47473 45.2504 29.3753 8.47473 
45.2504 25.0058 13.3747 -30.3029 33.3951 8.47473 -30.2532 33.4197 8.47473 
-21.864 36.4757 8.47473 -13.4747 38.8084 8.47473 -5.08537 39.5746 8.47473 
3.30391 38.2911 8.47473 11.6932 36.3839 8.47473 11.6932 33.3951 16.6247 
20.0825 35.4069 8.47473 20.0825 33.3951 12.5624 34.5222 33.3951 8.47473 
28.4718 34.8631 8.47473 28.4718 33.3951 10.7784 -21.864 -34.9806 16.864 
-13.4747 -39.3982 16.864 -5.08537 -40.3569 16.864 3.30391 -38.984 16.864 
11.6932 -36.4231 16.864 -23.6603 -33.7192 16.864 -30.2532 -27.1667 16.864 
-21.864 -33.7192 18.18 -13.4747 -33.7192 23.0679 -5.08537 -33.7192 23.7519 
3.30391 -33.7192 22.1464 18.6102 -33.7192 16.864 11.6932 -33.7192 19.7334 
20.0825 -32.9164 16.864 28.4718 -27.7893 16.864 -31.8041 -25.3299 16.864 
-30.2532 -25.3299 18.099 -21.864 -25.3299 23.7755 3.30391 -25.3299 25.2433 
11.6932 -25.3299 23.7221 20.0825 -25.3299 21.688 32.9612 -25.3299 16.864 
28.4718 -25.3299 18.9301 36.8611 -22.7351 16.864 45.2504 -17.7738 16.864 
-38.3357 -16.9406 16.864 -38.6425 -16.4656 16.864 -30.2532 -16.9406 22.3786 
20.0825 -16.9406 23.5364 28.4718 -16.9406 22.4606 36.8611 -16.9406 20.7869 
46.5629 -16.9406 16.864 45.2504 -16.9406 17.5896 53.6396 -10.3281 16.864 
-43.8932 -8.55134 16.864 -47.0318 -2.41568 16.864 -38.6425 -8.55134 20.2642 
[...]
POINT_DATA 502
SCALARS ImageScalars float
LOOKUP_TABLE default
0 0 0 0 0 0 0 0 0 
0 0 0 0 0 0 0 0 0 
0 0 0 0 0 0 0 0 0 
0 0 0 0 0 0 0 0 0 
0 0 0 0 0 0 0 0 0 
0 0 0 0 0 0 0 0 0 
0 0 0 0 0 0 0 0 0 
0 0 0 0 0 0 0 0 0 
0 0 0 0 0 0 0 0 0 
0 0 0 0 0 0 0 0 0 
0 0 0 0 0 0 0 0 0 
0 0 0 0 0 0 0 0 0 
0 0 0 0 0 0 0 0 0 
0 0 0 0 0 0 0 0 0 
0 0 0 0 0 0 0 0 0 
0 0 0 0 0 0 0 0 0 
0 0 0 0 0 0 0 0 0 
0 0 0 0 0 0 0 0 0 
0 0 0 0 0 0 0 0 0 
0 0 0 0 0 0 0 0 0 
0 0 0 0 0 0 0 0 0 
0 0 0 0 0 0 0 0 0 
0 0 0 0 0 0 0 0 0 
0 0 0 0 0 0 0 0 0 
0 0 0 0 0 0 0 0 0 
0 0 0 0 0 0 0 0 0 
0 0 0 0 0 0 0 0 0 
0 0 0 0 0 0 0 0 0 
0 0 0 0 0 0 0 0 0 
0 0 0 0 0 0 0 0 0 
0 0 0 0 0 0 0 0 0 
0 0 0 0 0 0 0 0 0 
0 0 0 0 0 0 0 0 0 
0 0 0 0 0 0 0 0 0 
0 0 0 0 0 0 0 0 0 
0 0 0 0 0 0 0 0 0 
0 0 0 0 0 0 0 0 0 
0 0 0 0 0 0 0 0 0 
0 0 0 0 0 0 0 0 0 
0 0 0 0 0 0 0 0 0 
0 0 0 0 0 0 0 0 0 
0 0 0 0 0 0 0 0 0 
0 0 0 0 0 0 0 0 0 
0 0 0 0 0 0 0 0 0 
0 0 0 0 0 0 0 0 0 
0 0 0 0 0 0 0 0 0 
0 0 0 0 0 0 0 0 0 
0 0 0 0 0 0 0 0 0 
0 0 0 0 0 0 0 0 0 
0 0 0 0 0 0 0 0 0 
0 0 0 0 0 0 0 0 0 
0 0 0 0 0 0 0 0 0 
0 0 0 0 0 0 0 0 0 
0 0 0 0 0 0 0 0 0 
0 0 0 0 0 0 0 0 0 
0 0 0 0 0 0 0 
NORMALS Normals float
0.480236 0.677188 0.557486 0.146503 0.546727 0.824395 -0.0423889 0.533742 0.844585 
-0.125732 0.538897 0.832935 -0.147006 0.648698 0.746713 -0.0742018 0.779483 0.622013 
-0.013212 0.798871 0.601358 -0.069629 0.8435 0.532596 0.630803 0.522913 0.573279 
0.276649 0.32047 0.90596 0.113039 0.191697 0.974923 -0.0462057 0.179612 0.982652 
-0.129024 0.134042 0.98254 -0.0177311 0.170229 0.985245 0.0470804 0.249902 0.967126 
0.0316776 0.276399 0.960521 0.00406604 0.318485 0.947919 -0.0838599 0.403782 0.911003 
-0.292324 0.558182 0.776517 -0.525634 0.7353 0.427834 0.426636 0.257688 0.866936 
0.157447 0.122567 0.979892 0.0195378 0.0467047 0.998718 -0.107431 -0.0498741 0.992961 
-0.124927 -0.00848426 0.99213 0.00894757 -0.0490323 0.998757 0.0640126 -0.0674792 0.995665 
0.0639466 -0.0341604 0.997368 0.072261 0.000527981 0.997386 0.00512304 0.0582369 0.99829 
-0.12805 0.149708 0.980403 -0.359027 0.303951 0.882447 -0.606843 0.492633 0.623742 
0.606823 0.265684 0.749118 0.259326 0.156981 0.952947 0.0607076 0.0411739 0.997306 
-0.061837 -0.0247088 0.99778 -0.103994 -0.0811512 0.991262 -0.134279 0.0748431 0.988113 
-0.0773618 0.0916939 0.992778 0.0667091 -0.000127654 0.997772 0.100112 0.0793718 0.991805 
0.104799 -0.057054 0.992855 0.081209 -0.0593828 0.994927 -0.0372198 -0.0046664 0.999296 
-0.193865 0.0615565 0.979095 -0.472413 0.173548 0.864122 0.510356 0.0764176 0.856561 
0.163891 0.0380339 0.985745 -0.0167013 0.00422087 0.999852 -0.104736 -0.0252933 0.994178 
-0.00575786 -0.0315468 0.999486 0.0620467 0.0583126 0.996368 -0.0665729 0.163856 0.984235 
0.0507953 0.108401 0.992809 -0.00932195 0.121806 0.99251 -0.0672924 -0.0399081 0.996935 
0.0563056 -0.0992704 0.993466 -0.00868449 -0.0959302 0.99535 -0.157832 -0.072926 0.984769 
-0.398072 -0.0352207 0.916678 0.529939 -0.126647 0.838526 0.176949 -0.092531 0.979861 
-0.00121188 -0.0444902 0.999009 -0.095922 0.0175373 0.995234 -0.0247145 0.0968825 0.994989 
0.0509081 0.0394802 0.997923 -0.0343118 0.0193099 0.999225 0.0228402 0.0408836 0.998903 
-0.0386595 -0.139264 0.9895 -0.106159 -0.123847 0.986606 0.0233475 -0.146299 0.988965 
-0.0136042 -0.146744 0.989081 -0.146653 -0.131272 0.980439 -0.354629 -0.173551 0.918759 
0.639492 -0.373613 0.67191 0.281868 -0.21818 0.934317 0.0860896 -0.108321 0.990381 
0.0274964 0.00610676 0.999603 0.0181546 0.0856391 0.996161 -0.0158057 0.0514431 0.998551 
-0.0632229 0.0216788 0.997764 -0.107718 0.0361369 0.993524 -0.161193 -0.173391 0.971572 
-0.0867305 -0.219122 0.971835 0.0265218 -0.263084 0.964408 -0.00097162 -0.264929 0.964267 
-0.18934 -0.339002 0.921535 -0.43119 -0.37049 0.822686 0.473418 -0.631225 0.614354 
0.256585 -0.447889 0.856481 0.113096 -0.240709 0.963986 0.0214939 -0.195418 0.980484 
-0.0127752 -0.189802 0.981739 -0.0502637 -0.17106 0.983978 -0.166102 -0.179416 0.96965 
-0.310483 -0.314683 0.896981 -0.170288 -0.405967 0.897883 -0.0499332 -0.491683 0.869341 
-0.0929376 -0.528944 0.843553 0.249623 -0.881057 0.401779 0.0846352 -0.798862 0.59553 
-0.000342718 -0.774485 0.632592 -0.0425246 -0.732289 0.679664 -0.203258 -0.743149 0.637507 
0.487542 0.700589 0.521036 0.196591 0.78678 0.585089 -0.0465006 0.780915 0.622904 
-0.157972 0.733665 0.660894 -0.174276 0.745548 0.643263 -0.0781469 0.793673 0.603305 
-0.0136389 0.807649 0.589505 -0.0700712 0.846737 0.527377 0.505753 0.688246 0.520126 
0.647387 0.558546 0.518572 -0.0812678 0.849575 0.52117 -0.222454 0.860462 0.458388 
-0.303005 0.949077 0.0862556 -0.381899 0.821666 0.423105 -0.526426 0.748981 0.402373 
0.659111 0.543586 0.5197 -0.532453 0.742294 0.40681 -0.621644 0.534449 0.572645 
0.712554 0.423561 0.559342 0.725581 0.393837 0.564291 0.799538 0.490803 0.346195 
-0.639179 0.500814 0.58364 0.728759 0.300078 0.615519 -0.654017 0.247387 0.714886 
-0.805437 0.363077 0.46845 0.761924 0.0998669 0.639921 0.977641 0.117205 0.174591 
-0.630756 0.0276355 0.775489 -0.737444 0.0604939 0.672694 0.736908 -0.156419 0.657648 
-0.562239 -0.200235 0.802367 -0.719479 -0.227151 0.656317 0.734635 -0.39111 0.554387 
0.685004 -0.496262 0.53338 -0.246643 -0.551507 0.796874 -0.49342 -0.38412 0.780377 
-0.438924 -0.4395 0.7837 -0.790037 -0.467409 0.396699 0.55602 -0.690878 0.462092 
0.498566 -0.73658 0.457037 0.343121 -0.848283 0.403341 -0.322791 -0.671308 0.667197 
-0.185917 -0.518057 0.834896 -0.0575631 -0.526825 0.848022 -0.158676 -0.55894 0.813885 
-0.099631 -0.563752 0.819913 -0.278655 -0.621514 0.732169 -0.527232 -0.728883 0.436756 
0.280393 -0.901068 0.330842 0.251464 -0.914941 0.315672 0.0887658 -0.940396 0.328292 
0.00459999 -0.916992 0.398879 -0.0282361 -0.883802 0.467008 -0.280689 -0.755198 0.592359 
-0.185489 -0.842692 0.505435 -0.288741 -0.789807 0.541141 -0.141053 -0.867705 0.476647 
-0.0988838 -0.856295 0.506933 0.521064 0.853505 -0.00464519 0.237817 0.969752 0.0549864 
-0.0156322 0.990893 0.133743 -0.169123 0.965103 0.199934 -0.18501 0.947404 0.261146 
-0.0948933 0.948097 0.303492 -0.0865972 0.961773 0.259795 -0.193789 0.969731 0.148551 
-0.31438 0.949131 0.0177283 0.63759 0.770376 -9.83034e-05 0.724225 0.689563 -0.0007412 
-0.319405 0.947497 0.015177 -0.336385 0.941563 -0.0174627 -0.393323 0.919373 -0.00705223 
-0.475174 0.879892 -0.000334986 0.777907 0.628379 -0.000716562 0.824264 0.565121 0.0350306 
-0.508457 0.860684 0.0263533 -0.619949 0.774202 0.127568 0.840384 0.540124 0.0449482 
-0.727104 0.65974 0.1899 -0.818587 0.509989 0.264245 0.921099 0.381937 0.0754971 
0.981451 0.175007 0.0782672 -0.860969 0.419443 0.28775 0.990322 0.114084 0.0790346 
0.980343 -0.176105 0.0889605 0.990225 0.125057 -0.0617745 -0.936136 0.0850572 0.341196 
0.977416 -0.19143 0.0895123 -0.919339 -0.203804 0.33657 0.859431 -0.508046 0.0571583 
0.686873 -0.726516 0.019505 -0.807892 -0.470677 0.354645 -0.789338 -0.502211 0.353171 
0.610254 -0.792143 0.00997558 0.468849 -0.883252 0.00686763 0.265765 -0.963287 -0.0380319 
-0.18885 -0.915916 0.354166 -0.331953 -0.858805 0.390206 -0.582487 -0.735602 0.345831 
-0.539837 -0.766484 0.347964 0.216721 -0.975371 -0.0410264 0.187789 -0.981347 -0.0411608 
0.160681 -0.9867 -0.0246035 0.125062 -0.988559 0.0843274 0.05161 -0.98695 0.152533 
-0.10809 -0.979914 0.167586 -0.170541 -0.957075 0.234356 -0.100544 -0.922973 0.3715 
-0.166452 -0.911371 0.376427 -0.104663 -0.892669 0.438392 -0.202113 -0.941059 0.271216 
0.538612 0.741918 -0.399317 0.353851 0.885898 -0.299955 0.0947278 0.986216 -0.135665 
-0.0550251 0.998116 0.0271247 -0.0984887 0.983766 0.150014 -0.105726 0.974695 0.196956 
-0.178998 0.977141 0.1147 -0.315828 0.948652 0.0176436 0.550541 0.731932 -0.401473 
0.687881 0.596248 -0.413894 0.543578 0.728084 -0.417632 -0.385217 0.91732 -0.100655 
-0.398353 0.908606 -0.125498 -0.395855 0.903949 -0.161786 -0.425064 0.897455 -0.117876 
0.695803 0.589297 -0.410594 0.77143 0.509942 -0.380598 0.682996 0.58161 -0.441868 
-0.435192 0.892585 -0.117895 -0.426833 0.890619 -0.156882 -0.579122 0.802811 -0.141816 
0.771643 0.509597 -0.380628 0.771369 0.509436 -0.3814 -0.68805 0.715789 -0.119303 
-0.803039 0.586521 -0.105463 0.849733 0.371249 -0.374337 0.726228 0.368904 -0.580089 
-0.891479 0.439993 -0.108034 0.93633 0.137694 -0.322995 -0.987636 0.129281 -0.0886667 
0.929132 -0.189272 -0.317631 -0.972527 -0.205187 -0.109956 0.804237 -0.500506 -0.320463 
0.720598 -0.62998 -0.289593 0.775173 -0.440063 -0.453268 -0.87341 -0.470948 -0.123944 
-0.81251 -0.571411 -0.115397 -0.817693 -0.460054 -0.346018 0.535063 -0.808973 -0.243453 
0.462459 -0.853293 -0.240879 0.542655 -0.780341 -0.310796 0.323542 -0.933158 -0.156639 
-0.36849 -0.927033 -0.0694607 -0.650446 -0.751334 -0.111435 -0.579076 -0.809074 -0.100356 
-0.577666 -0.701822 -0.41683 0.243446 -0.968617 -0.0501437 0.242328 -0.96903 -0.0475068 
0.208478 -0.977371 0.0358265 0.191776 -0.976026 0.102937 0.0619715 -0.993247 0.0980814 
-0.0878595 -0.995779 0.0265452 -0.0994397 -0.994932 0.0148706 -0.0513681 -0.998142 0.0327713 
-0.0925085 -0.995517 0.0196938 -0.31376 -0.948408 -0.0455646 -0.218528 -0.975786 -0.00937525 
-0.275716 -0.912579 -0.301962 0.497458 0.727262 -0.47289 0.311989 0.897284 -0.31232 
0.111578 0.988478 -0.102282 -0.00721167 0.999882 -0.0135362 -0.13804 0.989795 -0.0353691 
-0.255236 0.960373 -0.111973 -0.406994 0.898766 -0.163021 0.533826 0.685111 -0.495633 
0.579289 0.568931 -0.583732 0.530555 0.675231 -0.512421 -0.445815 0.872217 -0.201214 
-0.409947 0.751799 -0.51647 -0.457036 0.858344 -0.23316 -0.407055 0.862667 -0.300187 
0.589615 0.5454 -0.595729 0.617785 0.499178 -0.607588 0.58087 0.528405 -0.619175 
-0.415779 0.857329 -0.303504 -0.40749 0.781951 -0.471705 -0.432929 0.843528 -0.317857 
-0.590772 0.722504 -0.359133 0.63079 0.48117 -0.608753 0.61127 0.479883 -0.629334 
0.547391 0.404065 -0.732867 -0.616684 0.695698 -0.36838 -0.581688 0.683874 -0.440404 
-0.797585 0.406873 -0.445323 0.681572 0.367982 -0.632494 0.7118 0.278141 -0.644964 
0.578503 0.331173 -0.745425 -0.800287 0.400444 -0.446302 -0.798095 0.397993 -0.452379 
0.749464 0.154965 -0.643653 0.704475 0.161126 -0.691197 -0.849468 0.0801278 -0.521521 
-0.776135 0.0567511 -0.628008 0.781809 -0.160268 -0.602569 0.772897 -0.281225 -0.568809 
0.751607 -0.139075 -0.644784 -0.791353 -0.232748 -0.565322 -0.763514 -0.325979 -0.55748 
-0.742686 -0.232894 -0.627836 0.751446 -0.412685 -0.514802 0.586213 -0.727501 -0.356505 
-0.711366 -0.437041 -0.550412 -0.557739 -0.623898 -0.54743 -0.484612 -0.444284 -0.753501 
0.558261 -0.769425 -0.31037 0.453727 -0.880962 -0.134305 -0.284299 -0.85889 -0.426008 
-0.232176 -0.491831 -0.839164 -0.523485 -0.660322 -0.538459 -0.387541 -0.770566 -0.506003 
-0.383701 -0.593864 -0.707177 0.379282 -0.925037 0.0212728 0.379166 -0.925064 0.0221226 
0.297179 -0.948219 0.112097 0.177254 -0.979441 0.0963125 -0.0342789 -0.999403 -0.00431334 
-0.189107 -0.97574 -0.110319 -0.165373 -0.965434 -0.201466 -0.28043 -0.826114 -0.488768 
-0.0890034 -0.951756 -0.293664 -0.158626 -0.8675 -0.471467 -0.248193 -0.877 -0.411426 
-0.149209 -0.908719 -0.389829 -0.16697 -0.846212 -0.50601 0.466999 0.675978 -0.570057 
0.25233 0.862099 -0.439448 -0.0252778 0.921373 -0.387856 -0.211914 0.851192 -0.480171 
-0.304341 0.775652 -0.552937 0.490007 0.638875 -0.59307 0.5727 0.482664 -0.662609 
0.469718 0.631037 -0.61738 0.244506 0.525548 -0.814872 -0.0545854 0.488671 -0.870759 
-0.205744 0.5377 -0.817648 -0.385539 0.715848 -0.58217 -0.293944 0.637247 -0.712399 
-0.393404 0.694682 -0.602204 -0.40788 0.646649 -0.644577 0.576631 0.454538 -0.678891 
0.569008 0.438309 -0.695784 0.380729 0.384058 -0.841157 -0.155345 0.205408 -0.966269 
-0.196721 0.281438 -0.939198 -0.264025 0.359609 -0.894971 -0.391717 0.65438 -0.646796 
-0.349873 0.548795 -0.759219 -0.37714 0.634248 -0.674904 -0.398482 0.588801 -0.703225 
0.545923 0.400879 -0.735707 0.545197 0.396894 -0.738401 0.499011 0.334846 -0.799291 
-0.172435 0.0643374 -0.982917 -0.149771 0.185547 -0.971154 -0.241932 0.362985 -0.899839 
-0.415646 0.573421 -0.705993 -0.390309 0.555397 -0.734298 -0.537674 0.333709 -0.774303 
0.547389 0.314208 -0.775654 0.56811 0.216198 -0.794047 0.509557 0.287685 -0.810918 
0.483205 0.210721 -0.84977 -0.215263 -0.117953 -0.969406 -0.0433399 -0.0204395 -0.998851 
-0.0892754 0.0795124 -0.992828 -0.242199 0.166519 -0.95583 -0.561363 0.269055 -0.782611 
-0.518795 0.258301 -0.814943 0.577369 0.174929 -0.797524 0.564633 0.175935 -0.806373 
0.453127 0.182519 -0.872561 -0.176744 -0.0827855 -0.980769 0.0463495 -0.0682128 -0.996594 
-0.0482352 -0.0515526 -0.997505 -0.215998 -0.0390317 -0.975613 -0.530648 0.0103441 -0.847529 
-0.452211 0.00088042 -0.89191 0.63241 -0.0448219 -0.773336 0.605403 -0.0246177 -0.795538 
0.445901 0.0686041 -0.892449 -0.393231 0.00736377 -0.91941 -0.194288 0.0317377 -0.980431 
-0.0155661 -0.0783936 -0.996801 -0.0586801 -0.149742 -0.986982 -0.201198 -0.17894 -0.963068 
-0.505434 -0.195051 -0.84053 -0.463983 -0.272173 -0.842996 -0.456589 -0.19148 -0.868828 
0.683825 -0.288959 -0.669989 0.684085 -0.294143 -0.667464 0.682922 -0.287438 -0.671563 
0.515895 -0.153845 -0.842724 -0.283221 -0.0580765 -0.957295 -0.135863 -0.171437 -0.975782 
-0.219887 -0.446711 -0.867236 -0.156493 -0.279774 -0.947226 -0.326102 -0.397904 -0.857514 
-0.289353 -0.418486 -0.860897 -0.26811 -0.375689 -0.887116 0.676576 -0.580783 -0.452697 
0.655594 -0.652604 -0.379875 0.635038 -0.514468 -0.576238 -0.285278 -0.817582 -0.500177 
-0.404339 -0.372754 -0.835203 -0.256025 -0.637935 -0.726285 -0.309498 -0.379301 -0.871976 
-0.225715 -0.467456 -0.854715 -0.215527 -0.512999 -0.830891 -0.220773 -0.432564 -0.874155 
0.467044 -0.864039 -0.187899 0.447214 -0.875961 -0.180809 0.454948 -0.858711 -0.235877 
0.271908 -0.947011 -0.170984 0.221515 -0.692058 -0.687013 0.07486 -0.970891 -0.227521 
-0.141594 -0.945754 -0.292405 -0.283809 -0.822133 -0.493507 -0.282988 -0.884863 -0.370047 
-0.315331 -0.759026 -0.569601 0.160651 0.311012 -0.93673 -0.0532697 0.286334 -0.956648 
0.219248 0.295281 -0.929914 0.328911 0.34372 -0.879588 0.133999 0.249838 -0.958971 
-0.154406 0.204921 -0.966523 -0.0442977 0.152119 -0.987369 -0.154234 0.204378 -0.966665 
-0.152025 0.172679 -0.973175 0.367549 0.319549 -0.873382 0.281644 0.316055 -0.905972 
-0.0126084 0.258794 -0.96585 -0.11382 0.097546 -0.988701 -0.0657479 0.127575 -0.989647 
-0.148643 0.149376 -0.977544 -0.146069 0.160679 -0.976138 0.482859 0.21061 -0.849995 
0.482594 0.210022 -0.85029 0.294019 0.182894 -0.938138 -0.0937845 0.209336 -0.973336 
-0.187823 0.14407 -0.971579 -0.088705 0.101279 -0.990896 -0.268634 -0.0257762 -0.962897 
-0.27864 0.0339735 -0.959795 0.408633 0.134039 -0.902803 0.391156 0.0964456 -0.915257 
0.277602 -0.0691369 -0.958205 -0.0590882 -0.0925969 -0.993949 -0.21846 0.0155008 -0.975723 
-0.163794 0.0234811 -0.986215 -0.378444 -0.0813011 -0.922047 -0.393427 0.00580786 -0.919337 
-0.396664 -0.0794821 -0.914516 0.372715 0.0582836 -0.926114 0.255919 0.029293 -0.966254 
0.130752 -0.0726744 -0.988748 -0.0111561 -0.147894 -0.98894 -0.0791353 0.0133592 -0.996774 
-0.39235 0.0075622 -0.919785 -0.172564 0.0688796 -0.982587 -0.393381 0.00649226 -0.919353 
0.416819 -0.106171 -0.902768 0.248262 -0.0473425 -0.967535 0.0872322 -0.0261676 -0.995844 
0.0358054 -0.0086881 -0.999321 0.00584455 0.0227026 -0.999725 -0.17662 0.00681025 -0.984256 
-0.382797 -0.043503 -0.922808 -0.408823 -0.201508 -0.890089 -0.398803 -0.0441366 -0.915974 
0.42097 -0.311576 -0.851883 0.400723 -0.382584 -0.832496 0.367948 -0.277126 -0.88759 
0.201184 -0.593248 -0.779475 0.15756 -0.202379 -0.966549 0.0423308 -0.163606 -0.985617 
-0.0643534 -0.208442 -0.975915 -0.373055 -0.35525 -0.857104 -0.301165 -0.524136 -0.796606 
-0.24356 -0.312914 -0.918021 0.0986131 -0.63104 -0.769457 0.0365281 -0.630553 -0.775286 
0.0353728 -0.613324 -0.789039 -0.159214 -0.613846 -0.773204 -0.153308 -0.614625 -0.773778 
-0.152945 -0.610416 -0.777175 
