# vtk DataFile Version 4.2
vtk output
ASCII
DATASET POLYDATA
POINTS 542 float
-10.0598 -43.9543 -14.8584 -1.74559 -43.9543 -17.6536 6.56858 -43.9543 -17.1009 
-35.0023 -35.6402 -15.3077 -26.6881 -35.6402 -14.7004 -18.3739 -35.6402 -15.8605 
-10.0598 -35.6402 -18.3706 -1.74559 -35.6402 -20.4619 6.56858 -35.6402 -19.9704 
14.8827 -35.6402 -18.0796 23.1969 -35.6402 -17.4025 31.5111 -35.6402 -17.4123 
39.8252 -35.6402 -14.588 -43.3164 -27.326 -16.5257 -35.0023 -27.326 -18.1165 
-26.6881 -27.326 -18.0197 -18.3739 -27.326 -18.2058 -10.0598 -27.326 -18.5251 
-1.74559 -27.326 -19.2357 6.56858 -27.326 -19.7774 14.8827 -27.326 -20.1534 
23.1969 -27.326 -20.6745 31.5111 -27.326 -20.8736 39.8252 -27.326 -19.9033 
48.1394 -27.326 -16.449 -43.3164 -19.0118 -17.0622 -35.0023 -19.0118 -18.072 
-26.6881 -19.0118 -18.0764 -18.3739 -19.0118 -17.7431 -10.0598 -19.0118 -17.4119 
-1.74559 -19.0118 -17.9334 6.56858 -19.0118 -18.397 14.8827 -19.0118 -20.0899 
23.1969 -19.0118 -20.7482 31.5111 -19.0118 -20.814 39.8252 -19.0118 -19.5789 
48.1394 -19.0118 -17.7676 -43.3164 -10.6977 -15.8712 -35.0023 -10.6977 -17.1398 
-26.6881 -10.6977 -17.1666 -18.3739 -10.6977 -16.4331 -10.0598 -10.6977 -16.2522 
-1.74559 -10.6977 -17.7327 6.56858 -10.6977 -18.3115 14.8827 -10.6977 -18.5004 
23.1969 -10.6977 -18.7078 31.5111 -10.6977 -19.785 39.8252 -10.6977 -19.8938 
48.1394 -10.6977 -19.1081 56.4536 -10.6977 -16.1917 -43.3164 -2.3835 -14.5243 
-35.0023 -2.3835 -16.109 -26.6881 -2.3835 -16.1959 -18.3739 -2.3835 -16.0366 
-10.0598 -2.3835 -19.4672 -1.74559 -2.3835 -14.6973 6.56858 -2.3835 -20.6519 
14.8827 -2.3835 -18.2684 23.1969 -2.3835 -17.9182 31.5111 -2.3835 -19.7033 
39.8252 -2.3835 -20.5841 48.1394 -2.3835 -20.3073 56.4536 -2.3835 -17.2506 
-35.0023 5.93067 -15.8605 -26.6881 5.93067 -16.5052 -18.3739 5.93067 -16.605 
-10.0598 5.93067 -18.7618 -1.74559 5.93067 -16.9739 6.56858 5.93067 -21.2788 
14.8827 5.93067 -18.5782 23.1969 5.93067 -18.823 31.5111 5.93067 -20.1663 
39.8252 5.93067 -20.9479 48.1394 5.93067 -20.8444 56.4536 5.93067 -17.2017 
-43.3164 14.2448 -14.6609 -35.0023 14.2448 -16.3489 -26.6881 14.2448 -16.7531 
-18.3739 14.2448 -16.0474 -10.0598 14.2448 -15.5261 -1.74559 14.2448 -17.8637 
6.56858 14.2448 -17.8869 14.8827 14.2448 -17.8978 23.1969 14.2448 -19.0915 
31.5111 14.2448 -20.1154 39.8252 14.2448 -19.8972 48.1394 14.2448 -18.5871 
-35.0023 22.559 -15.2747 -26.6881 22.559 -15.8622 -18.3739 22.559 -16.3001 
-10.0598 22.559 -16.651 -1.74559 22.559 -18.2682 6.56858 22.559 -19.0436 
14.8827 22.559 -19.4154 23.1969 22.559 -20.036 31.5111 22.559 -19.9995 
39.8252 22.559 -19.2546 48.1394 22.559 -14.9191 -26.6881 30.8732 -14.7344 
-18.3739 30.8732 -15.5129 -10.0598 30.8732 -17.1262 -1.74559 30.8732 -17.9507 
6.56858 30.8732 -18.9674 14.8827 30.8732 -19.8679 23.1969 30.8732 -20.3862 
31.5111 30.8732 -18.6513 39.8252 30.8732 -15.0914 -10.0598 39.1873 -14.8584 
-1.74559 39.1873 -15.4788 6.56858 39.1873 -15.992 14.8827 39.1873 -16.8457 
23.1969 39.1873 -17.0578 -10.0598 -44.4121 -14.4445 -1.74559 -48.6218 -14.4445 
-1.74559 -52.2685 -7.61903 6.56858 -46.9505 -14.4445 -35.0023 -36.6256 -14.4445 
-26.6881 -35.9921 -14.4445 -10.6732 -43.9543 -14.4445 -18.3739 -37.7369 -14.4445 
12.0524 -43.9543 -14.4445 14.8827 -41.9671 -14.4445 14.8827 -43.9543 -11.4585 
23.1969 -38.9668 -14.4445 31.5111 -38.604 -14.4445 39.8252 -35.7691 -14.4445 
-37.4287 -35.6402 -14.4445 -43.3164 -31.654 -14.4445 -43.3164 -35.6402 -11.2092 
40.0771 -35.6402 -14.4445 48.1394 -30.1247 -14.4445 -47.3056 -27.326 -14.4445 
-51.6306 -27.326 -11.018 51.1357 -27.326 -14.4445 -48.0542 -19.0118 -14.4445 
-51.6306 -19.0118 -12.1402 54.9668 -19.0118 -14.4445 56.4536 -16.239 -14.4445 
56.4536 -19.0118 -13.2658 -47.1853 -10.6977 -14.4445 -51.6306 -10.6977 -12.3127 
58.433 -10.6977 -14.4445 -43.5133 -2.3835 -14.4445 -51.6306 -2.3835 -10.8025 
-43.3164 -0.857634 -14.4445 61.0045 -2.3835 -14.4445 64.7677 -2.3835 -7.69765 
-51.6306 5.93067 -9.87871 -41.7186 5.93067 -14.4445 -43.3164 10.8864 -14.4445 
-43.3164 5.93067 -14.0985 60.9633 5.93067 -14.4445 56.4536 13.1322 -14.4445 
64.7677 5.93067 -7.54544 -43.7421 14.2448 -14.4445 -51.6306 14.2448 -8.87537 
-43.3164 15.4392 -14.4445 55.6106 14.2448 -14.4445 56.4536 14.2448 -13.6801 
-51.6306 22.559 -6.47571 -38.0323 22.559 -14.4445 -43.3164 22.559 -12.9474 
-35.0023 26.8767 -14.4445 48.7822 22.559 -14.4445 48.1394 23.2325 -14.4445 
-43.3164 30.8732 -9.26703 -28.9836 30.8732 -14.4445 -35.0023 30.8732 -13.5815 
-26.6881 31.9451 -14.4445 -18.3739 35.7189 -14.4445 31.5111 38.8417 -14.4445 
40.7183 30.8732 -14.4445 39.8252 31.8154 -14.4445 -35.0023 39.1873 -8.92787 
-26.6881 39.1873 -12.209 -12.7886 39.1873 -14.4445 -18.3739 39.1873 -13.6341 
-10.0598 39.9109 -14.4445 -1.74559 40.6981 -14.4445 6.56858 41.0037 -14.4445 
14.8827 41.8199 -14.4445 30.8119 39.1873 -14.4445 23.1969 41.7425 -14.4445 
31.5111 39.1873 -13.9577 -18.3739 47.5015 -8.71646 -10.0598 47.5015 -9.03419 
-1.74559 47.5015 -7.03776 -1.74559 -52.8106 -6.13033 -2.94352 -52.2685 -6.13033 
-10.0598 -48.7543 -6.13033 1.93655 -52.2685 -6.13033 -1.74559 -52.2685 -3.85138 
6.56858 -51.5461 -6.13033 14.8827 -46.8528 -6.13033 -43.3164 -39.6965 -6.13033 
-35.0023 -40.5691 -6.13033 -26.6881 -42.4292 -6.13033 -17.693 -43.9543 -6.13033 
-18.3739 -43.5228 -6.13033 19.1893 -43.9543 -6.13033 23.1969 -42.1417 -6.13033 
31.5111 -40.6191 -6.13033 39.8252 -38.5657 -6.13033 -51.5282 -35.6402 -6.13033 
-51.6306 -35.5444 -6.13033 -51.6306 -35.6402 -5.70369 46.2942 -35.6402 -6.13033 
48.1394 -34.6663 -6.13033 -56.7032 -27.326 -6.13033 55.2692 -27.326 -6.13033 
56.4536 -25.6179 -6.13033 -57.7972 -19.0118 -6.13033 60.6581 -19.0118 -6.13033 
-57.5992 -10.6977 -6.13033 -59.9448 -10.6977 2.08062 63.6975 -10.6977 -6.13033 
64.7677 -5.25687 -6.13033 -57.1209 -2.3835 -6.13033 -59.9448 -2.3835 1.84334 
65.2852 -2.3835 -6.13033 64.7677 -2.3835 -3.58734 -55.7561 5.93067 -6.13033 
65.2257 5.93067 -6.13033 64.7677 6.89079 -6.13033 64.7677 5.93067 -4.22632 
-54.442 14.2448 -6.13033 60.9032 14.2448 -6.13033 56.4536 19.7249 -6.13033 
-51.8598 22.559 -6.13033 -51.6306 23.0787 -6.13033 53.7595 22.559 -6.13033 
48.1394 28.6374 -6.13033 -47.0731 30.8732 -6.13033 -43.3164 35.8621 -6.13033 
45.7888 30.8732 -6.13033 39.8252 36.5412 -6.13033 -39.8047 39.1873 -6.13033 
-43.3164 39.1873 1.58827 -35.0023 42.856 -6.13033 -26.6881 47.3336 -6.13033 
6.56858 45.9371 -6.13033 14.8827 45.2267 -6.13033 23.1969 45.0377 -6.13033 
36.5466 39.1873 -6.13033 31.5111 42.2559 -6.13033 -26.2769 47.5015 -6.13033 
-26.6881 47.5015 -5.89636 -18.3739 49.9886 -6.13033 -10.0598 50.0608 -6.13033 
0.503782 47.5015 -6.13033 -1.74559 48.0989 -6.13033 -10.0598 -47.1127 2.18384 
-1.74559 -50.7287 2.18384 6.56858 -49.7258 2.18384 14.8827 -44.682 2.18384 
-51.6306 -36.4432 2.18384 -43.3164 -40.3819 2.18384 -35.0023 -41.2689 2.18384 
-26.6881 -42.6119 2.18384 -16.1594 -43.9543 2.18384 -18.3739 -42.8987 2.18384 
-10.0598 -43.9543 8.41802 15.9794 -43.9543 2.18384 14.8827 -43.9543 3.30258 
23.1969 -40.5069 2.18384 31.5111 -39.3184 2.18384 39.8252 -36.4216 2.18384 
-52.5078 -35.6402 2.18384 -51.6306 -35.6402 3.93929 31.5111 -35.6402 8.1766 
41.3584 -35.6402 2.18384 39.8252 -35.6402 3.40857 48.1394 -31.5913 2.18384 
-57.6279 -27.326 2.18384 52.3095 -27.326 2.18384 48.1394 -27.326 7.01008 
56.4536 -21.4954 2.18384 -59.4763 -19.0118 2.18384 -59.9448 -11.0846 2.18384 
58.0707 -19.0118 2.18384 56.4536 -19.0118 4.24023 -59.9669 -10.6977 2.18384 
-59.9448 -10.6977 2.27972 61.4455 -10.6977 2.18384 56.4536 -10.6977 7.99447 
-60.0324 -2.3835 2.18384 -59.9448 -1.74636 2.18384 -59.9448 -2.3835 2.50275 
63.5182 -2.3835 2.18384 -58.8835 5.93067 2.18384 63.0728 5.93067 2.18384 
-57.3706 14.2448 2.18384 59.532 14.2448 2.18384 56.4536 18.2825 2.18384 
56.4536 14.2448 7.05114 -54.1409 22.559 2.18384 -51.6306 27.5562 2.18384 
-51.6306 22.559 9.04418 52.6733 22.559 2.18384 48.1394 27.2194 2.18384 
48.1394 22.559 9.42715 -49.7557 30.8732 2.18384 44.1483 30.8732 2.18384 
39.8252 34.7868 2.18384 39.8252 30.8732 9.72081 -43.4748 39.1873 2.18384 
-43.3164 39.3623 2.18384 -43.3164 39.1873 2.59314 -35.0023 46.7635 2.18384 
6.56858 47.2326 2.18384 14.8827 44.8708 2.18384 23.1969 43.5928 2.18384 
33.9064 39.1873 2.18384 31.5111 40.5921 2.18384 31.5111 39.1873 5.68911 
-33.8431 47.5015 2.18384 -26.6881 51.3246 2.18384 -18.3739 53.4497 2.18384 
-10.0598 53.6328 2.18384 5.96076 47.5015 2.18384 -1.74559 50.8648 2.18384 
-1.74559 -45.42 10.498 6.56858 -44.3886 10.498 -43.3164 -36.6845 10.498 
-35.0023 -39.1012 10.498 -26.6881 -39.8766 10.498 -18.3739 -40.3232 10.498 
-6.28946 -43.9543 10.498 -10.0598 -42.6738 10.498 -1.74559 -43.9543 11.9161 
7.37001 -43.9543 10.498 6.56858 -43.9543 10.9199 14.8827 -39.6501 10.498 
23.1969 -36.0639 10.498 -45.1864 -35.6402 10.498 -51.6306 -29.9467 10.498 
-43.3164 -35.6402 11.612 -35.0023 -35.6402 14.5735 -26.6881 -35.6402 15.4738 
-18.3739 -35.6402 15.7983 -10.0598 -35.6402 16.4219 -1.74559 -35.6402 17.0111 
6.56858 -35.6402 16.2184 14.8827 -35.6402 14.0403 24.9547 -35.6402 10.498 
23.1969 -35.6402 10.9483 31.5111 -33.58 10.498 39.8252 -28.3552 10.498 
-53.3347 -27.326 10.498 -51.6306 -27.326 12.0905 -43.3164 -27.326 16.1227 
6.56858 -27.326 18.118 14.8827 -27.326 17.1038 23.1969 -27.326 16.0923 
31.5111 -27.326 14.4024 41.45 -27.326 10.498 39.8252 -27.326 11.2095 
48.1394 -21.1396 10.498 -55.4035 -19.0118 10.498 -51.6306 -19.0118 14.5404 
-43.3164 -19.0118 18.7017 6.56858 -19.0118 17.9391 14.8827 -19.0118 17.6324 
23.1969 -19.0118 16.9258 31.5111 -19.0118 16.0617 39.8252 -19.0118 13.8749 
49.4842 -19.0118 10.498 48.1394 -19.0118 11.3316 -57.4069 -10.6977 10.498 
-51.6306 -10.6977 15.5205 6.56858 -10.6977 18.3653 14.8827 -10.6977 17.1624 
23.1969 -10.6977 16.8432 31.5111 -10.6977 16.5674 39.8252 -10.6977 15.4814 
52.5447 -10.6977 10.498 48.1394 -10.6977 12.8881 56.4536 -3.99623 10.498 
-57.1695 -2.3835 10.498 -51.6306 -2.3835 15.7815 -1.74559 -2.3835 17.0543 
14.8827 -2.3835 18.0951 23.1969 -2.3835 17.6504 31.5111 -2.3835 17.8832 
[...]
POINT_DATA 542
SCALARS ImageScalars float
LOOKUP_TABLE default
0 0 0 0 0 0 0 0 0 
0 0 0 0 0 0 0 0 0 
0 0 0 0 0 0 0 0 0 
0 0 0 0 0 0 0 0 0 
0 0 0 0 0 0 0 0 0 
0 0 0 0 0 0 0 0 0 
0 0 0 0 0 0 0 0 0 
0 0 0 0 0 0 0 0 0 
0 0 0 0 0 0 0 0 0 
0 0 0 0 0 0 0 0 0 
0 0 0 0 0 0 0 0 0 
0 0 0 0 0 0 0 0 0 
0 0 0 0 0 0 0 0 0 
0 0 0 0 0 0 0 0 0 
0 0 0 0 0 0 0 0 0 
0 0 0 0 0 0 0 0 0 
0 0 0 0 0 0 0 0 0 
0 0 0 0 0 0 0 0 0 
0 0 0 0 0 0 0 0 0 
0 0 0 0 0 0 0 0 0 
0 0 0 0 0 0 0 0 0 
0 0 0 0 0 0 0 0 0 
0 0 0 0 0 0 0 0 0 
0 0 0 0 0 0 0 0 0 
0 0 0 0 0 0 0 0 0 
0 0 0 0 0 0 0 0 0 
0 0 0 0 0 0 0 0 0 
0 0 0 0 0 0 0 0 0 
0 0 0 0 0 0 0 0 0 
0 0 0 0 0 0 0 0 0 
0 0 0 0 0 0 0 0 0 
0 0 0 0 0 0 0 0 0 
0 0 0 0 0 0 0 0 0 
0 0 0 0 0 0 0 0 0 
0 0 0 0 0 0 0 0 0 
0 0 0 0 0 0 0 0 0 
0 0 0 0 0 0 0 0 0 
0 0 0 0 0 0 0 0 0 
0 0 0 0 0 0 0 0 0 
0 0 0 0 0 0 0 0 0 
0 0 0 0 0 0 0 0 0 
0 0 0 0 0 0 0 0 0 
0 0 0 0 0 0 0 0 0 
0 0 0 0 0 0 0 0 0 
0 0 0 0 0 0 0 0 0 
0 0 0 0 0 0 0 0 0 
0 0 0 0 0 0 0 0 0 
0 0 0 0 0 0 0 0 0 
0 0 0 0 0 0 0 0 0 
0 0 0 0 0 0 0 0 0 
0 0 0 0 0 0 0 0 0 
0 0 0 0 0 0 0 0 0 
0 0 0 0 0 0 0 0 0 
0 0 0 0 0 0 0 0 0 
0 0 0 0 0 0 0 0 0 
0 0 0 0 0 0 0 0 0 
0 0 0 0 0 0 0 0 0 
0 0 0 0 0 0 0 0 0 
0 0 0 0 0 0 0 0 0 
0 0 0 0 0 0 0 0 0 
0 0 
NORMALS Normals float
-0.450432 -0.576831 -0.681452 -0.106123 -0.457056 -0.883084 0.230831 -0.52845 -0.816981 
-0.13931 -0.60471 -0.784168 -0.0328437 -0.541474 -0.840076 -0.208141 -0.45251 -0.867128 
-0.26568 -0.173173 -0.94838 -0.0882087 -0.0869682 -0.992298 0.138921 -0.126799 -0.982152 
0.152446 -0.377104 -0.913539 0.0398848 -0.587829 -0.808002 0.141149 -0.611023 -0.778928 
0.37322 -0.726029 -0.577572 -0.319714 -0.240737 -0.916422 -0.10432 -0.175687 -0.978903 
-0.0055465 -0.175584 -0.984449 -0.0297094 -0.110307 -0.993454 -0.0634045 0.0601657 -0.996173 
-0.0710157 0.150266 -0.986092 -0.0566522 0.0963291 -0.993736 -0.0526874 -0.110655 -0.992461 
-0.0418156 -0.175715 -0.983553 0.0362586 -0.165238 -0.985587 0.245217 -0.229972 -0.941797 
0.489443 -0.375266 -0.78716 -0.309026 0.034172 -0.950439 -0.0570814 0.0580901 -0.996678 
0.0200348 0.050542 -0.998521 0.0407149 0.107684 -0.993351 -0.0118177 0.126251 -0.991928 
-0.0589003 0.0896102 -0.994234 -0.125291 0.0815999 -0.988759 -0.140065 0.0999085 -0.985089 
-0.0429994 0.119827 -0.991863 0.0689705 0.064772 -0.995514 0.16585 -0.00315758 -0.986146 
0.294787 -0.15563 -0.942804 -0.243152 0.146819 -0.958812 -0.0731498 0.117201 -0.990411 
0.0431851 0.115117 -0.992413 0.0516388 0.098481 -0.993798 -0.0786663 -0.104107 -0.99145 
-0.115396 0.153573 -0.981376 -0.0457583 -0.10416 -0.993507 -0.024567 0.105603 -0.994105 
-0.0781343 0.163168 -0.983499 -0.070866 0.0669201 -0.995239 0.0369617 -0.059921 -0.997519 
0.180358 -0.14365 -0.973055 0.53825 -0.186142 -0.821972 -0.279672 0.0989285 -0.954985 
-0.0949526 0.0762911 -0.992554 0.0036066 0.0369584 -0.99931 -0.17726 -0.0104239 -0.984109 
0.0363894 -0.154701 -0.987291 -0.0295898 0.0737985 -0.996834 -0.228983 -0.213994 -0.949618 
0.161319 -0.00303873 -0.986898 -0.094689 -0.0071455 -0.995481 -0.155093 -0.0228915 -0.987635 
-0.0373749 -0.0631498 -0.997304 0.201486 -0.0987765 -0.974498 0.455437 -0.0430671 -0.889226 
-0.139178 -0.0161 -0.990136 -0.0444287 -0.033388 -0.998454 -0.123573 0.002166 -0.992333 
-0.0383733 0.246687 -0.968335 -0.109464 -0.18471 -0.976678 -0.101186 0.213168 -0.971762 
0.117489 0.031876 -0.992562 -0.0934408 -0.067955 -0.993303 -0.125823 -0.0245421 -0.991749 
-0.0420005 0.0402185 -0.998308 0.216109 0.0884503 -0.972355 0.48487 0.143376 -0.862754 
-0.366624 0.0587999 -0.928509 -0.128991 0.0307766 -0.991168 0.0168359 0.0385805 -0.999114 
0.0740942 0.0185115 -0.997079 -0.106783 0.107202 -0.988486 -0.136999 -0.0715026 -0.987987 
-0.00206408 0.0815903 -0.996664 -0.0733685 -0.0560893 -0.995726 -0.135258 -0.0738425 -0.988055 
-0.0485733 0.00969312 -0.998773 0.0828817 0.0941069 -0.992106 0.288235 0.327324 -0.899878 
-0.163554 0.168437 -0.972049 -0.0589644 0.116964 -0.991384 -0.0474046 0.0313007 -0.998385 
-0.117143 -0.0915985 -0.988882 -0.144188 -0.00480996 -0.989539 -0.0691942 -0.0657265 -0.995436 
-0.0592424 -0.120204 -0.99098 -0.0350218 -0.0760482 -0.996489 0.0395228 0.0912141 -0.995047 
0.275811 0.261543 -0.924945 0.527494 0.495466 -0.690118 -0.10992 0.199103 -0.973794 
-0.132693 0.147005 -0.980195 -0.145674 0.0934268 -0.984912 -0.106898 0.155475 -0.982039 
-0.119306 0.162203 -0.979518 -0.079053 0.127053 -0.988741 0.0740856 0.138521 -0.987584 
0.283086 0.292142 -0.913518 0.531266 0.505364 -0.679974 -0.104663 0.387573 -0.915878 
-0.0617841 0.46463 -0.883347 -0.0792557 0.571968 -0.816438 -0.0597427 0.610611 -0.789674 
0.13784 0.621488 -0.771202 -0.457391 -0.599242 -0.657041 -0.117214 -0.686903 -0.717234 
-0.148889 -0.976488 -0.155896 0.259611 -0.668563 -0.696869 -0.143655 -0.655616 -0.741303 
-0.03728 -0.560769 -0.827132 -0.449784 -0.595618 -0.665532 -0.252636 -0.532092 -0.808117 
0.369606 -0.626805 -0.685935 0.359385 -0.602998 -0.712205 0.494099 -0.739906 -0.456514 
0.12424 -0.765071 -0.631847 0.179438 -0.811973 -0.55543 0.374058 -0.731906 -0.569556 
-0.191634 -0.616222 -0.763902 -0.324106 -0.436532 -0.839283 -0.312955 -0.699066 -0.642935 
0.378679 -0.728743 -0.570558 0.507604 -0.528818 -0.680213 -0.456419 -0.203504 -0.86618 
-0.67145 -0.215121 -0.709139 0.592911 -0.424591 -0.684236 -0.463588 -0.00723918 -0.886021 
-0.613653 -0.0586449 -0.787395 0.607524 -0.282834 -0.742239 0.631919 -0.282649 -0.721656 
0.711543 -0.343512 -0.612948 -0.395272 0.11866 -0.910868 -0.600738 0.076357 -0.795791 
0.631673 -0.240925 -0.736848 -0.284905 0.0997288 -0.953354 -0.565111 0.117397 -0.816619 
-0.285357 0.0793209 -0.955133 0.669791 -0.100943 -0.735657 0.981421 -0.0936428 -0.167461 
-0.615536 0.0990597 -0.781858 -0.275795 -0.0114393 -0.961148 -0.34458 0.0325298 -0.938193 
-0.310592 -0.00536399 -0.950528 0.673072 0.21763 -0.706832 0.6006 0.439406 -0.667983 
0.956369 0.254997 -0.142598 -0.380604 0.059857 -0.922799 -0.695211 0.141961 -0.704647 
-0.365383 0.0884489 -0.926646 0.589222 0.461235 -0.663386 0.633754 0.4874 -0.600663 
-0.831736 0.318377 -0.454809 -0.230969 0.205133 -0.951091 -0.374518 0.27577 -0.885261 
-0.215647 0.241768 -0.946068 0.541451 0.51279 -0.666241 0.542246 0.516852 -0.662445 
-0.547264 0.454352 -0.702899 -0.150311 0.231546 -0.961142 -0.265055 0.315293 -0.911228 
-0.1247 0.22135 -0.967189 -0.134211 0.254709 -0.957659 0.391852 0.680662 -0.618992 
0.558862 0.524812 -0.642064 0.554653 0.528759 -0.642475 -0.397902 0.551098 -0.733461 
-0.253275 0.403913 -0.879037 -0.114507 0.372825 -0.920809 -0.138447 0.345759 -0.928053 
-0.0967645 0.414543 -0.904871 -0.0391188 0.527023 -0.84895 -0.0553379 0.662936 -0.746628 
-0.0364028 0.759855 -0.649072 0.376418 0.694417 -0.613266 0.15687 0.767704 -0.621307 
0.400092 0.709646 -0.579939 -0.121135 0.685592 -0.717836 0.0576947 0.732994 -0.677784 
0.196095 0.851168 -0.486889 -0.142588 -0.987824 -0.0622234 -0.194937 -0.978805 -0.062768 
-0.496176 -0.862508 -0.0994406 0.0247611 -0.997159 -0.0711336 -0.150653 -0.987191 0.0525037 
0.268433 -0.959024 -0.0906491 0.562397 -0.822549 -0.0843949 -0.297389 -0.889871 -0.345963 
-0.149549 -0.954715 -0.257207 -0.164835 -0.952376 -0.256535 -0.391926 -0.89906 -0.195155 
-0.378667 -0.901364 -0.210128 0.450718 -0.889765 -0.0719061 0.313602 -0.94758 -0.0612015 
0.191341 -0.981207 -0.0249268 0.329213 -0.943908 -0.025607 -0.652827 -0.697344 -0.295851 
-0.657998 -0.692068 -0.296784 -0.659334 -0.70154 -0.270407 0.512647 -0.858212 -0.0257809 
0.573384 -0.818689 -0.0312736 -0.861467 -0.331069 -0.385055 0.803706 -0.594991 -0.00652703 
0.828405 -0.559817 -0.0187113 -0.894217 -0.0386634 -0.445961 0.891541 -0.445281 -0.0829408 
-0.859259 0.0325011 -0.510508 -0.999487 -0.0319 0.00280296 0.959474 -0.268445 -0.0857155 
0.986953 -0.146809 -0.066116 -0.816482 0.087308 -0.570731 -0.99778 0.0657471 -0.0105783 
0.994013 -0.085989 -0.067415 0.993087 -0.0874879 0.0782611 -0.797609 0.125931 -0.589882 
0.966902 0.250678 -0.0475478 0.959259 0.278304 -0.0486709 0.967062 0.247744 0.0584255 
-0.794758 0.208678 -0.569924 0.850775 0.508953 -0.130951 0.733327 0.664908 -0.141878 
-0.840029 0.322398 -0.436361 -0.83571 0.332857 -0.436802 0.704186 0.696376 -0.138501 
0.706516 0.69536 -0.131569 -0.688169 0.508678 -0.517368 -0.624583 0.582066 -0.520668 
0.697578 0.706061 -0.121912 0.646774 0.757404 -0.0895735 -0.558814 0.616424 -0.554751 
-0.742219 0.670029 0.0131351 -0.451388 0.661659 -0.598711 -0.311886 0.75435 -0.577654 
0.153446 0.940465 -0.303281 0.0512503 0.987566 -0.148618 0.172028 0.982295 -0.0741868 
0.561164 0.824266 -0.0753703 0.418957 0.905656 -0.0652819 -0.303166 0.758124 -0.577354 
-0.315395 0.765447 -0.560907 -0.134497 0.782717 -0.607672 0.105625 0.808433 -0.579033 
0.198851 0.889027 -0.412418 0.217202 0.86501 -0.452306 -0.429991 -0.849389 0.306016 
-0.142687 -0.913357 0.38134 0.266706 -0.893866 0.360377 0.526076 -0.792333 0.308954 
-0.629057 -0.75963 0.165074 -0.291694 -0.944804 0.149196 -0.127483 -0.987769 0.0897816 
-0.0897165 -0.987886 0.12662 -0.308268 -0.929183 0.203936 -0.251491 -0.953496 0.166125 
-0.29557 -0.807368 0.510681 0.497904 -0.810976 0.307261 0.516228 -0.784092 0.344542 
0.27871 -0.90649 0.317168 0.223261 -0.917513 0.329126 0.373052 -0.838098 0.398026 
-0.67213 -0.721691 0.16554 -0.639057 -0.724051 0.25953 0.262996 -0.749903 0.607025 
0.403432 -0.81625 0.413496 0.386463 -0.805799 0.448702 0.566363 -0.673337 0.475237 
-0.911778 -0.378292 0.15986 0.70187 -0.566318 0.432043 0.503178 -0.534243 0.679262 
0.751495 -0.483812 0.448533 -0.986974 -0.126401 0.0995205 -0.999255 -0.0365943 0.0122768 
0.7693 -0.442187 0.461137 0.722937 -0.422305 0.546827 -0.999439 -0.0324784 0.00815842 
-0.999368 -0.0329485 0.0133107 0.85295 -0.310117 0.419886 0.601213 -0.305278 0.738477 
-0.997873 0.0646353 0.00850717 -0.997441 0.0711102 0.00733629 -0.997557 0.0649631 0.025683 
0.903866 -0.0852595 0.419234 -0.988045 0.153685 -0.0121495 0.891526 0.216911 0.397657 
-0.959541 0.278374 0.0423025 0.811203 0.483238 0.329289 0.74624 0.595389 0.297721 
0.721028 0.458666 0.51937 -0.912804 0.406622 0.0380413 -0.875218 0.479702 0.0622785 
-0.797266 0.383356 0.466266 0.697344 0.667829 0.260224 0.670483 0.695894 0.257261 
0.62865 0.553041 0.546759 -0.842656 0.533941 0.0695522 0.649269 0.719455 0.246646 
0.61881 0.743995 0.252084 0.581932 0.632493 0.511182 -0.744149 0.666366 0.0468877 
-0.741675 0.669189 0.0458724 -0.74417 0.664435 0.0688214 -0.585778 0.810142 -0.0231106 
0.341426 0.939002 -0.0412761 0.207853 0.970459 0.122499 0.237433 0.944561 0.22678 
0.479601 0.835193 0.26914 0.423937 0.864692 0.269418 0.435536 0.82152 0.367984 
-0.555431 0.830723 -0.0373572 -0.349743 0.930764 -0.106575 -0.131089 0.98631 -0.100037 
0.152229 0.982127 -0.110695 0.344144 0.937719 -0.0474054 0.362598 0.92677 -0.0980769 
-0.0824412 -0.720457 0.688582 0.249309 -0.689272 0.680256 -0.382588 -0.713574 0.586889 
-0.158282 -0.85196 0.499111 -0.0715462 -0.859683 0.505792 -0.136492 -0.855042 0.500273 
-0.171188 -0.749406 0.639598 -0.235742 -0.759376 0.606443 -0.0692829 -0.678639 0.731197 
0.268334 -0.686331 0.675978 0.248917 -0.676529 0.693072 0.371817 -0.660947 0.651845 
0.254283 -0.732409 0.631599 -0.437199 -0.67702 0.592031 -0.630119 -0.443141 0.637633 
-0.38695 -0.67029 0.63323 -0.17422 -0.683781 0.708583 -0.06273 -0.634644 0.770254 
-0.0509863 -0.621633 0.781647 -0.063221 -0.492228 0.868167 0.0145157 -0.364941 0.930918 
0.155147 -0.367866 0.916845 0.275963 -0.527989 0.803164 0.257427 -0.719927 0.644543 
0.252504 -0.71749 0.649191 0.280183 -0.631345 0.723119 0.382409 -0.478975 0.790156 
-0.693386 -0.357109 0.625851 -0.613613 -0.363251 0.70109 -0.35692 -0.328893 0.874321 
0.11742 -0.0980229 0.988233 0.117899 -0.178165 0.976912 0.163327 -0.287787 0.943665 
0.252556 -0.356108 0.899668 0.385283 -0.461253 0.799251 0.377971 -0.443303 0.812786 
0.45096 -0.330303 0.829177 -0.762669 -0.196608 0.616184 -0.610369 -0.176905 0.772111 
-0.245893 -0.22654 0.942452 0.0952747 -0.0148728 0.99534 0.0607443 -0.00356063 0.998147 
0.0979421 -0.0441284 0.994213 0.178652 -0.125088 0.975928 0.283852 -0.218766 0.933579 
0.493651 -0.275418 0.824896 0.448944 -0.275399 0.850062 -0.827084 -0.0811159 0.556194 
-0.574295 -0.0549383 0.816803 0.203064 -0.100512 0.973993 0.0908201 -0.026756 0.995508 
0.0354293 -0.0414382 0.998513 0.0793658 -0.109652 0.990796 0.200153 -0.206058 0.957851 
0.461916 -0.251408 0.850545 0.38243 -0.211593 0.899431 0.574877 -0.185864 0.796851 
-0.836393 0.0594599 0.544896 -0.576853 0.0233801 0.816513 0.0541886 0.0919732 0.994286 
0.12372 -0.0168109 0.992175 0.0128339 -0.099546 0.99495 0.0254656 -0.139366 0.989914 
0.164389 -0.157314 0.97377 0.356015 -0.162167 0.920301 0.600581 -0.154395 0.784516 
0.580359 -0.162834 0.797915 -0.826396 0.171881 0.536216 -0.624243 0.123702 0.771374 
0.145127 0.0301573 0.988953 -0.0871795 -0.0832945 0.992704 0.167364 -0.0587739 0.984142 
0.364394 0.0185593 0.93106 0.687673 0.137603 0.712862 0.672867 0.234874 0.701487 
0.647809 0.127768 0.751012 -0.780578 0.272026 0.562761 -0.753388 0.344836 0.559907 
-0.701715 0.250472 0.666978 -0.341328 0.182635 0.92203 0.0184951 -0.0956475 0.995243 
0.259465 0.131792 0.956718 0.627046 0.387414 0.675813 0.608561 0.511283 0.606831 
0.498411 0.283356 0.819327 -0.73554 0.362828 0.572133 -0.466269 0.255542 0.84693 
0.0621219 0.0810694 0.994771 0.165286 0.209789 0.963675 0.605506 0.525363 0.597792 
0.570256 0.611763 0.548228 0.399217 0.383281 0.832899 -0.70331 0.448925 0.5512 
-0.685124 0.482604 0.545617 -0.635727 0.407318 0.655701 -0.335727 0.259737 0.905441 
0.125023 0.134209 0.983035 0.179505 0.285892 0.941299 0.565563 0.618807 0.545175 
0.441375 0.711091 0.5473 0.37606 0.469828 0.798649 -0.637568 0.548225 0.541254 
-0.57074 0.647117 0.505465 -0.521277 0.488661 0.699629 -0.280542 0.297166 0.912682 
0.379948 0.865189 0.327243 0.189767 0.437748 0.878843 0.315679 0.856133 0.409126 
0.260293 0.617434 0.742309 0.373049 0.7772 0.506749 0.31633 0.809463 0.494677 
0.323586 0.746194 0.581796 -0.484816 0.758771 0.434994 -0.394341 0.823047 0.408766 
-0.376233 0.706841 0.599019 -0.154211 0.887605 0.434025 -0.108346 0.634892 0.764966 
0.12963 0.896988 0.422622 0.0623764 0.641671 0.764439 0.365287 0.873981 0.320503 
0.32306 0.880854 0.346017 0.278989 0.776791 0.564589 -0.183941 -0.304823 0.934478 
-0.0241751 -0.301339 0.953211 -0.00483953 -0.269627 0.962953 0.0132782 -0.253816 0.967161 
0.0683788 -0.152657 0.985911 -0.213699 -0.271173 0.938508 -0.184045 -0.260183 0.947857 
-0.0124317 -0.241058 0.970431 0.00439537 -0.192284 0.98133 0.0265018 -0.196109 0.980224 
0.0858382 -0.118168 0.989277 0.0738304 -0.125104 0.989393 -0.229647 -0.213741 0.949514 
-0.247684 -0.209418 0.945937 -0.0888097 -0.0877971 0.992172 -0.00905591 -0.024315 0.999663 
0.0102294 0.0115966 0.99988 0.0392621 -0.0723528 0.996606 0.11972 -0.0673676 0.990519 
0.131177 -0.0954123 0.986757 -0.341583 -0.0342342 0.939228 -0.265396 -0.0339824 0.96354 
-0.014114 -0.057375 0.998253 0.0818677 -0.0244224 0.996344 -0.0392119 -0.00525012 0.999217 
-0.0849287 -0.011873 0.996316 0.1927 -0.0620134 0.979296 0.089699 0.0959122 0.99134 
0.135417 0.100435 0.985685 0.126312 -0.12883 0.983589 -0.305662 0.0332243 0.95156 
-0.260609 0.0328432 0.964886 -0.0733143 -0.018834 0.997131 0.0476083 -0.0704354 0.99638 
0.0229344 -0.0740247 0.996993 0.107648 0.060707 0.992334 0.144565 0.0497266 0.988245 
-0.0165402 -0.0892437 0.995872 -0.0461842 -0.130946 0.990313 0.0507422 -0.0891895 0.994721 
-0.0483403 -0.179053 0.982651 0.0187992 -0.0962 0.995184 -0.328571 0.054192 0.942923 
-0.321363 0.12221 0.939037 -0.301142 0.0520723 0.952156 -0.107278 0.0185494 0.994056 
0.0220312 -0.0206494 0.999544 0.0787308 -0.0327187 0.996359 0.0486734 0.022411 0.998563 
-0.0934623 -0.223728 0.97016 0.156868 0.0276233 0.987233 0.145303 0.0136872 0.989293 
-0.00175274 -0.0910662 0.995843 -0.101711 -0.0480131 0.993655 0.0344081 -0.0894135 0.9954 
0.0178101 -0.0921951 0.995582 -0.307582 0.169707 0.936265 -0.149167 0.105722 0.983144 
-0.00333916 0.0334405 0.999435 0.0667706 -0.0202702 0.997562 -0.00557779 -0.0540366 0.998523 
0.0181414 -0.0100719 0.999785 0.135982 0.0211466 0.990486 0.192391 0.0804225 0.978017 
-0.0888937 -0.0308722 0.995563 0.0626264 -0.0704601 0.995547 0.0158564 0.0564993 0.998277 
-0.112115 -0.0146098 0.993588 0.16326 0.0951365 0.981985 0.0932107 0.116917 0.988758 
0.0494069 0.05513 0.997256 -0.266975 0.169487 0.948683 -0.26454 0.179093 0.947599 
-0.251768 0.162216 0.954096 -0.104986 0.0570904 0.992834 -0.00967219 -0.0152813 0.999836 
0.0511615 -0.0681439 0.996363 0.0507672 -0.00709601 0.998685 0.0646007 -0.0214471 0.997681 
0.0648585 0.0167051 0.997755 0.106674 0.067467 0.992002 0.0679472 -0.0669896 0.995437 
-0.254403 0.19592 0.947045 -0.242524 0.235285 0.941182 -0.176168 0.129295 0.975832 
-0.0564803 0.0824849 0.994991 0.00118425 0.0346287 0.9994 0.0698987 0.0288139 0.997138 
0.124484 0.131603 0.983455 0.146165 0.26875 0.952055 0.120563 0.109223 0.986679 
-0.183454 0.2747 0.943867 -0.0999563 0.309664 0.945577 -0.100103 0.260094 0.96038 
0.0144067 0.366964 0.930124 -0.00219789 0.247048 0.969001 0.140543 0.341645 0.929261 
0.139308 0.35275 0.925289 0.123564 0.297731 0.946619 
