# vtk DataFile Version 4.2
vtk output
ASCII
DATASET POLYDATA
POINTS 496 float
-16.1352 -31.1245 -17.4527 -7.7891 -31.1245 -18.4566 0.556954 -31.1245 -18.2638 
8.90301 -31.1245 -18.8365 17.2491 -31.1245 -18.7028 25.5951 -31.1245 -17.4115 
-16.1352 -22.7784 -18.6021 -7.7891 -22.7784 -19.513 0.556954 -22.7784 -19.5292 
8.90301 -22.7784 -20.3156 17.2491 -22.7784 -20.2528 25.5951 -22.7784 -20.2882 
33.9412 -22.7784 -20.3209 42.2872 -22.7784 -19.0293 50.6333 -22.7784 -16.5122 
-24.4812 -14.4323 -16.5935 -16.1352 -14.4323 -18.5542 -7.7891 -14.4323 -19.9316 
0.556954 -14.4323 -20.5872 8.90301 -14.4323 -20.8833 17.2491 -14.4323 -19.4652 
25.5951 -14.4323 -20.311 33.9412 -14.4323 -21.5579 42.2872 -14.4323 -21.8373 
50.6333 -14.4323 -20.5686 -24.4812 -6.08629 -17.8436 -16.1352 -6.08629 -20.5586 
-7.7891 -6.08629 -20.2301 0.556954 -6.08629 -21.409 8.90301 -6.08629 -22.924 
17.2491 -6.08629 -18.1741 25.5951 -6.08629 -20.1902 33.9412 -6.08629 -22.0629 
42.2872 -6.08629 -23.3073 50.6333 -6.08629 -23.3358 58.9794 -6.08629 -18.1104 
-24.4812 2.25977 -18.5341 -16.1352 2.25977 -22.2352 -7.7891 2.25977 -21.1966 
0.556954 2.25977 -20.2928 8.90301 2.25977 -23.5977 17.2491 2.25977 -18.6285 
25.5951 2.25977 -20.6763 33.9412 2.25977 -22.469 42.2872 2.25977 -23.5168 
50.6333 2.25977 -21.7987 58.9794 2.25977 -17.7944 -24.4812 10.6058 -19.0508 
-16.1352 10.6058 -21.1896 -7.7891 10.6058 -21.6881 0.556954 10.6058 -21.8605 
8.90301 10.6058 -22.6649 17.2491 10.6058 -21.338 25.5951 10.6058 -22.1542 
33.9412 10.6058 -22.7963 42.2872 10.6058 -22.9234 50.6333 10.6058 -21.6413 
-32.8273 18.9519 -17.2718 -24.4812 18.9519 -20.1676 -16.1352 18.9519 -20.8587 
-7.7891 18.9519 -20.7907 0.556954 18.9519 -21.4043 8.90301 18.9519 -22.2362 
17.2491 18.9519 -22.5851 25.5951 18.9519 -22.883 33.9412 18.9519 -22.8238 
42.2872 18.9519 -21.607 50.6333 18.9519 -19.2326 -32.8273 27.2979 -17.7728 
-24.4812 27.2979 -19.9944 -16.1352 27.2979 -20.6871 -7.7891 27.2979 -20.4952 
0.556954 27.2979 -21.1183 8.90301 27.2979 -21.8775 17.2491 27.2979 -22.2662 
25.5951 27.2979 -22.1599 33.9412 27.2979 -21.5198 42.2872 27.2979 -18.9768 
-24.4812 35.644 -18.1669 -16.1352 35.644 -18.9559 -7.7891 35.644 -19.3054 
0.556954 35.644 -19.7989 8.90301 35.644 -20.1054 17.2491 35.644 -20.2632 
25.5951 35.644 -19.3752 33.9412 35.644 -16.5603 -24.4812 -39.4705 -10.313 
-16.1352 -34.297 -16.0457 -16.1352 -39.4705 -13.2456 -7.7891 -36.8677 -16.0457 
-7.7891 -39.4705 -14.5514 0.556954 -36.8202 -16.0457 0.556954 -39.4705 -14.6932 
8.90301 -37.0716 -16.0457 8.90301 -39.4705 -14.4238 17.2491 -35.6511 -16.0457 
17.2491 -39.4705 -11.6636 25.5951 -32.8959 -16.0457 -32.8273 -31.1245 -9.78839 
-20.5451 -31.1245 -16.0457 -24.4812 -31.1245 -14.7225 31.0374 -31.1245 -16.0457 
33.9412 -29.9476 -16.0457 33.9412 -31.1245 -14.5369 42.2872 -27.0622 -16.0457 
42.2872 -31.1245 -8.80537 50.6333 -23.2871 -16.0457 -32.8273 -22.7784 -12.7664 
-24.3261 -22.7784 -16.0457 -24.4812 -22.0982 -16.0457 -24.4812 -22.7784 -15.9974 
51.2317 -22.7784 -16.0457 -41.1733 -14.4323 -9.76761 -26.7302 -14.4323 -16.0457 
-32.8273 -14.4323 -14.4129 57.3965 -14.4323 -16.0457 58.9794 -11.7881 -16.0457 
58.9794 -14.4323 -13.5835 -41.1733 -6.08629 -10.2817 -29.6196 -6.08629 -16.0457 
-32.8273 -6.08629 -14.8643 61.1025 -6.08629 -16.0457 -41.1733 2.25977 -10.2846 
-30.2864 2.25977 -16.0457 -32.8273 2.25977 -14.9559 60.6559 2.25977 -16.0457 
58.9794 8.61763 -16.0457 -41.1733 10.6058 -11.1308 -32.3747 10.6058 -16.0457 
-32.8273 11.6727 -16.0457 -32.8273 10.6058 -15.8643 58.1703 10.6058 -16.0457 
58.9794 10.6058 -14.386 -35.2596 18.9519 -16.0457 -41.1733 18.9519 -12.6796 
54.4048 18.9519 -16.0457 50.6333 23.4991 -16.0457 -35.6431 27.2979 -16.0457 
-41.1733 27.2979 -11.3197 -32.8273 32.6039 -16.0457 46.1522 27.2979 -16.0457 
42.2872 30.7069 -16.0457 -30.1455 35.644 -16.0457 -32.8273 35.644 -14.6256 
-24.4812 39.0948 -16.0457 -16.1352 40.8091 -16.0457 -7.7891 41.9183 -16.0457 
0.556954 42.6822 -16.0457 8.90301 42.5563 -16.0457 17.2491 41.3869 -16.0457 
25.5951 40.0719 -16.0457 34.8219 35.644 -16.0457 33.9412 36.1214 -16.0457 
-24.4812 43.9901 -8.59324 -16.1352 43.9901 -12.584 -7.7891 43.9901 -14.1671 
0.556954 43.9901 -14.7867 8.90301 43.9901 -14.391 17.2491 43.9901 -12.1287 
-24.4812 -41.6024 -7.69961 -16.1352 -44.3619 -7.69961 -7.7891 -45.5198 -7.69961 
-7.7891 -47.8166 -0.204205 0.556954 -45.367 -7.69961 8.90301 -44.4463 -7.69961 
17.2491 -41.6681 -7.69961 -27.7037 -39.4705 -7.69961 -32.8273 -34.2383 -7.69961 
-32.8273 -39.4705 -0.894737 21.8025 -39.4705 -7.69961 25.5951 -37.63 -7.69961 
33.9412 -34.3211 -7.69961 42.2872 -31.5639 -7.69961 -35.4532 -31.1245 -7.69961 
-41.1733 -31.1245 -1.23006 43.0511 -31.1245 -7.69961 42.2872 -31.1245 -1.08323 
50.6333 -26.7718 -7.69961 -40.4032 -22.7784 -7.69961 -41.1733 -21.0343 -7.69961 
-41.1733 -22.7784 -6.9812 55.3958 -22.7784 -7.69961 58.9794 -18.1546 -7.69961 
-43.6418 -14.4323 -7.69961 -49.5194 -14.4323 -1.56173 61.1946 -14.4323 -7.69961 
58.9794 -14.4323 -2.20509 -44.4459 -6.08629 -7.69961 -49.5194 -6.08629 -2.76919 
63.8674 -6.08629 -7.69961 -44.5434 2.25977 -7.69961 -49.5194 2.25977 -3.22185 
63.3491 2.25977 -7.69961 -45.541 10.6058 -7.69961 -49.5194 10.6058 -4.00306 
61.0637 10.6058 -7.69961 58.9794 15.2542 -7.69961 58.9794 10.6058 -1.5959 
-45.9253 18.9519 -7.69961 -49.5194 18.9519 -2.55594 56.9984 18.9519 -7.69961 
50.6333 26.5933 -7.69961 -44.4492 27.2979 -7.69961 -49.5194 27.2979 0.418226 
-41.1733 33.5155 -7.69961 49.941 27.2979 -7.69961 42.2872 33.8338 -7.69961 
-39.8746 35.644 -7.69961 -41.1733 35.644 -1.93137 -32.8273 41.0328 -7.69961 
25.5951 43.2837 -7.69961 39.7188 35.644 -7.69961 33.9412 39.3326 -7.69961 
33.9412 35.644 -0.925765 -25.4689 43.9901 -7.69961 -24.4812 44.3589 -7.69961 
-24.4812 43.9901 -5.07134 -16.1352 46.3207 -7.69961 -7.7891 47.7699 -7.69961 
0.556954 47.9513 -7.69961 8.90301 47.3063 -7.69961 23.3963 43.9901 -7.69961 
17.2491 45.8811 -7.69961 17.2491 43.9901 -0.0829192 -7.7891 -48.0379 0.64645 
-32.8273 -40.206 0.64645 -24.4812 -44.7495 0.64645 -9.58617 -47.8166 0.64645 
-16.1352 -47.023 0.64645 -2.67794 -47.8166 0.64645 -7.7891 -47.8166 2.39673 
0.556954 -47.6769 0.64645 8.90301 -46.1272 0.64645 17.2491 -42.5167 0.64645 
-33.7749 -39.4705 0.64645 -41.1733 -32.5881 0.64645 22.9164 -39.4705 0.64645 
25.5951 -37.9895 0.64645 33.9412 -34.4022 0.64645 -42.4447 -31.1245 0.64645 
42.0131 -31.1245 0.64645 42.2872 -31.0002 0.64645 50.6333 -24.8259 0.64645 
-47.7676 -22.7784 0.64645 -49.5194 -18.8959 0.64645 -49.5194 -22.7784 5.68301 
52.9816 -22.7784 0.64645 50.6333 -22.7784 3.18334 -51.1746 -14.4323 0.64645 
57.6623 -14.4323 0.64645 50.6333 -14.4323 8.221 58.9794 -10.552 0.64645 
-52.315 -6.08629 0.64645 60.4546 -6.08629 0.64645 58.9794 -6.08629 3.07199 
-53.1279 2.25977 0.64645 50.6333 2.25977 8.31443 59.4427 2.25977 0.64645 
58.9794 5.0712 0.64645 58.9794 2.25977 1.2592 -53.3075 10.6058 0.64645 
57.825 10.6058 0.64645 50.6333 10.6058 6.02278 -51.8647 18.9519 0.64645 
42.2872 18.9519 6.91013 51.6499 18.9519 0.64645 50.6333 20.1388 0.64645 
50.6333 18.9519 1.51403 -49.6545 27.2979 0.64645 -49.5194 27.494 0.64645 
25.5951 27.2979 8.96784 33.9412 34.5285 0.64645 33.9412 27.2979 6.01795 
43.1456 27.2979 0.64645 42.2872 27.9805 0.64645 42.2872 27.2979 1.24085 
-41.8244 35.644 0.64645 -41.1733 36.131 0.64645 -41.1733 35.644 2.35833 
-32.8273 40.8504 0.64645 -24.4812 43.1692 0.64645 17.2491 43.762 0.64645 
32.4571 35.644 0.64645 25.5951 40.4795 0.64645 25.5951 35.644 5.15344 
-21.256 43.9901 0.64645 -16.1352 45.3211 0.64645 -16.1352 43.9901 2.99306 
-7.7891 46.3762 0.64645 -7.7891 43.9901 4.69967 0.556954 46.6028 0.64645 
0.556954 43.9901 4.92172 16.4052 43.9901 0.64645 8.90301 45.7745 0.64645 
8.90301 43.9901 3.43216 -32.8273 -40.369 8.99251 -24.4812 -44.0894 8.99251 
-16.1352 -46.2308 8.99251 -7.7891 -46.9277 8.99251 0.556954 -46.4958 8.99251 
8.90301 -44.2288 8.99251 17.2491 -40.3455 8.99251 -34.1815 -39.4705 8.99251 
-41.1733 -34.1224 8.99251 -32.8273 -39.4705 11.1793 0.556954 -39.4705 17.164 
8.90301 -39.4705 14.9982 18.8403 -39.4705 8.99251 17.2491 -39.4705 10.197 
25.5951 -35.7405 8.99251 33.9412 -31.5039 8.99251 -44.1549 -31.1245 8.99251 
-49.5194 -24.1993 8.99251 17.2491 -31.1245 16.9136 25.5951 -31.1245 14.5702 
34.646 -31.1245 8.99251 33.9412 -31.1245 9.47415 42.2872 -25.6995 8.99251 
-50.4693 -22.7784 8.99251 -49.5194 -22.7784 15.3805 33.9412 -22.7784 15.7035 
45.2444 -22.7784 8.99251 42.2872 -22.7784 11.1942 -54.3093 -14.4323 8.99251 
33.9412 -14.4323 15.8806 49.6137 -14.4323 8.99251 42.2872 -14.4323 13.3506 
50.6333 -10.6183 8.99251 -56.5729 -6.08629 8.99251 17.2491 -6.08629 15.9004 
25.5951 -6.08629 15.3484 33.9412 -6.08629 14.8535 42.2872 -6.08629 12.9971 
52.1936 -6.08629 8.99251 50.6333 -1.45299 8.99251 50.6333 -6.08629 9.72109 
-57.86 2.25977 8.99251 17.2491 2.25977 13.8328 25.5951 2.25977 13.6682 
33.9412 2.25977 13.629 49.2014 2.25977 8.99251 42.2872 2.25977 11.9214 
-57.2715 10.6058 8.99251 17.2491 10.6058 14.2011 25.5951 10.6058 12.3803 
33.9412 10.6058 11.8479 44.4378 10.6058 8.99251 42.2872 13.2341 8.99251 
42.2872 10.6058 9.90068 -55.1621 18.9519 8.99251 17.2491 18.9519 13.9629 
25.5951 27.2019 8.99251 25.5951 18.9519 10.9949 35.8406 18.9519 8.99251 
33.9412 20.3889 8.99251 33.9412 18.9519 9.58454 -50.0909 27.2979 8.99251 
-49.5194 28.0035 8.99251 -49.5194 27.2979 10.1586 -41.1733 33.7178 8.99251 
8.90301 27.2979 16.1213 25.5395 27.2979 8.99251 17.2491 27.2979 12.6643 
-35.8242 35.644 8.99251 -32.8273 36.6413 8.99251 -32.8273 35.644 10.5657 
-24.4812 38.6135 8.99251 -24.4812 35.644 12.5253 -16.1352 39.94 8.99251 
-16.1352 35.644 13.4391 -7.7891 41.044 8.99251 -7.7891 35.644 14.0102 
0.556954 40.8829 8.99251 0.556954 35.644 13.4536 8.90301 39.3841 8.99251 
8.90301 35.644 12.0986 17.6599 35.644 8.99251 17.2491 35.8825 8.99251 
17.2491 35.644 9.17165 -24.4812 -39.7686 17.3386 -16.1352 -41.4554 17.3386 
-7.7891 -40.81 17.3386 -41.1733 -31.1965 17.3386 -25.2947 -39.4705 17.3386 
-32.8273 -36.7083 17.3386 -24.4812 -39.4705 17.6618 -16.1352 -39.4705 19.1557 
[...]
POINT_DATA 496
SCALARS ImageScalars float
LOOKUP_TABLE default
0 0 0 0 0 0 0 0 0 
0 0 0 0 0 0 0 0 0 
0 0 0 0 0 0 0 0 0 
0 0 0 0 0 0 0 0 0 
0 0 0 0 0 0 0 0 0 
0 0 0 0 0 0 0 0 0 
0 0 0 0 0 0 0 0 0 
0 0 0 0 0 0 0 0 0 
0 0 0 0 0 0 0 0 0 
0 0 0 0 0 0 0 0 0 
0 0 0 0 0 0 0 0 0 
0 0 0 0 0 0 0 0 0 
0 0 0 0 0 0 0 0 0 
0 0 0 0 0 0 0 0 0 
0 0 0 0 0 0 0 0 0 
0 0 0 0 0 0 0 0 0 
0 0 0 0 0 0 0 0 0 
0 0 0 0 0 0 0 0 0 
0 0 0 0 0 0 0 0 0 
0 0 0 0 0 0 0 0 0 
0 0 0 0 0 0 0 0 0 
0 0 0 0 0 0 0 0 0 
0 0 0 0 0 0 0 0 0 
0 0 0 0 0 0 0 0 0 
0 0 0 0 0 0 0 0 0 
0 0 0 0 0 0 0 0 0 
0 0 0 0 0 0 0 0 0 
0 0 0 0 0 0 0 0 0 
0 0 0 0 0 0 0 0 0 
0 0 0 0 0 0 0 0 0 
0 0 0 0 0 0 0 0 0 
0 0 0 0 0 0 0 0 0 
0 0 0 0 0 0 0 0 0 
0 0 0 0 0 0 0 0 0 
0 0 0 0 0 0 0 0 0 
0 0 0 0 0 0 0 0 0 
0 0 0 0 0 0 0 0 0 
0 0 0 0 0 0 0 0 0 
0 0 0 0 0 0 0 0 0 
0 0 0 0 0 0 0 0 0 
0 0 0 0 0 0 0 0 0 
0 0 0 0 0 0 0 0 0 
0 0 0 0 0 0 0 0 0 
0 0 0 0 0 0 0 0 0 
0 0 0 0 0 0 0 0 0 
0 0 0 0 0 0 0 0 0 
0 0 0 0 0 0 0 0 0 
0 0 0 0 0 0 0 0 0 
0 0 0 0 0 0 0 0 0 
0 0 0 0 0 0 0 0 0 
0 0 0 0 0 0 0 0 0 
0 0 0 0 0 0 0 0 0 
0 0 0 0 0 0 0 0 0 
0 0 0 0 0 0 0 0 0 
0 0 0 0 0 0 0 0 0 
0 
NORMALS Normals float
0.211365 0.262578 0.941476 0.0436898 0.257961 0.965167 0.0210862 0.258509 0.965779 
0.0255129 0.303388 0.952525 -0.0772391 0.359901 0.929788 -0.196192 0.540557 0.818112 
0.201689 0.060823 0.977559 0.0536479 0.089931 0.994502 0.0467196 0.131809 0.990174 
0.0447673 0.117397 0.992076 -0.00164048 0.0438168 0.999038 0.00388274 0.15111 0.988509 
-0.068438 0.324965 0.943246 -0.211035 0.472742 0.855558 -0.468997 0.604316 0.644084 
0.231587 0.104887 0.967143 0.194068 0.108585 0.97496 0.118649 0.041398 0.992073 
0.0587371 0.108852 0.992321 -0.0679708 0.113097 0.991256 -0.0305475 -0.125252 0.991655 
0.125091 -0.00586514 0.992128 0.0902682 0.0964256 0.991238 -0.0460684 0.233924 0.971163 
-0.344282 0.347778 0.872078 0.312925 0.108687 0.943539 0.145061 0.222587 0.96406 
0.0395398 0.0724867 0.996585 0.143669 -0.00463007 0.989615 -0.266387 0.17781 0.947323 
-0.0586496 -0.0524401 0.9969 0.229564 0.0212014 0.973063 0.179896 0.0536846 0.98222 
0.0775354 0.0987138 0.992091 -0.278965 0.0393635 0.959494 -0.680083 0.138329 0.719967 
0.406585 0.0697275 0.910948 0.15129 0.0345271 0.987886 -0.109957 0.0913946 0.989725 
0.0879831 0.0475872 0.994985 -0.165587 -0.036133 0.985533 -0.0648115 0.193216 0.979013 
0.22736 0.117642 0.966679 0.165827 0.0435705 0.985192 -0.0455361 -0.0227624 0.998703 
-0.302234 -0.0810335 0.949783 -0.704063 -0.131852 0.697789 0.29663 0.093217 0.950432 
0.154792 -0.080501 0.984662 0.0394057 -0.0282032 0.998825 0.0574074 0.0459111 0.997295 
-0.02942 -0.0609876 0.997705 -0.028122 0.233408 0.971972 0.0858341 0.131315 0.987618 
0.0465246 0.0216342 0.998683 -0.0545044 -0.110133 0.992421 -0.375059 -0.140832 0.916241 
0.393661 0.10523 0.913213 0.204036 0.0539068 0.977478 0.036122 -0.0291404 0.998922 
0.0324855 -0.0701787 0.997005 0.08678 -0.044054 0.995253 0.0704871 -0.0458916 0.996457 
0.0386123 0.051866 0.997907 0.0143611 0.0015662 0.999896 -0.0707889 -0.0675763 0.9952 
-0.209194 -0.196977 0.95783 -0.524805 -0.431853 0.733541 0.404268 -0.106216 0.908453 
0.167005 -0.113136 0.979444 0.0329352 -0.104921 0.993935 0.0258217 -0.0883106 0.995758 
0.0827006 -0.0963822 0.991903 0.0692383 -0.123599 0.989914 0.0165935 -0.119424 0.992705 
-0.041352 -0.197057 0.979519 -0.155407 -0.302237 0.940479 -0.452992 -0.499517 0.738431 
0.200374 -0.39655 0.895878 0.0699204 -0.340779 0.93754 0.0482014 -0.275376 0.960127 
0.0465207 -0.307698 0.950346 0.0264618 -0.352944 0.93527 -0.0408435 -0.403512 0.914062 
-0.169643 -0.505009 0.846278 -0.393868 -0.705599 0.589066 0.418809 0.650168 0.633941 
0.201214 0.382005 0.90199 0.184049 0.626573 0.757319 0.0625218 0.468105 0.881458 
0.066893 0.593142 0.802314 0.00569311 0.45794 0.888965 -0.00456714 0.585154 0.810909 
-0.0443684 0.523486 0.850878 -0.0987832 0.65486 0.749267 -0.159484 0.574909 0.802524 
-0.302787 0.818276 0.488615 -0.239219 0.628418 0.740179 0.563202 0.404476 0.720557 
0.298679 0.248093 0.921543 0.383838 0.248862 0.889234 -0.231343 0.671744 0.703733 
-0.220078 0.676912 0.702393 -0.258571 0.776284 0.574913 -0.294275 0.655258 0.695729 
-0.410192 0.888367 0.206267 -0.481154 0.623299 0.616433 0.455654 0.228257 0.860394 
0.313836 0.0992737 0.944273 0.308903 0.100311 0.945789 0.315976 0.100125 0.943469 
-0.494788 0.613636 0.615334 0.582529 0.150464 0.798762 0.260699 0.106015 0.959581 
0.358632 0.111136 0.92684 -0.648929 0.422961 0.632452 -0.707706 0.345783 0.616106 
-0.784464 0.453098 0.423461 0.570935 0.0256051 0.820596 0.360258 0.056013 0.93117 
0.398061 0.0287669 0.916908 -0.784787 0.136305 0.604591 0.560793 0.042431 0.826868 
0.412404 0.0586557 0.909111 0.421905 0.0540754 0.905026 -0.80178 -0.139757 0.581048 
-0.764417 -0.274788 0.583231 0.567579 0.116636 0.815016 0.408299 0.124712 0.904289 
0.412119 0.123798 0.90268 0.414918 0.125903 0.901106 -0.745397 -0.3103 0.589998 
-0.822924 -0.336186 0.458011 0.439881 0.0918284 0.893349 0.609379 0.0195886 0.792637 
-0.679825 -0.470724 0.562367 -0.60871 -0.578926 0.54251 0.504242 -0.13773 0.852508 
0.717151 -0.241191 0.653851 0.461843 -0.344093 0.817497 -0.569269 -0.617935 0.5423 
-0.525546 -0.6514 0.547247 0.389367 -0.46344 0.796 0.495536 -0.526391 0.69091 
0.243484 -0.574104 0.781742 0.105851 -0.61031 0.785059 0.0636989 -0.608064 0.791328 
0.0202177 -0.633998 0.77307 -0.0509765 -0.67098 0.739721 -0.104097 -0.7205 0.685598 
-0.238806 -0.728407 0.64218 -0.418435 -0.720143 0.55345 -0.405533 -0.724252 0.557676 
0.292367 -0.939091 0.180639 0.164165 -0.869562 0.465739 0.0733609 -0.784767 0.615434 
0.0101455 -0.74545 0.666484 -0.075523 -0.797873 0.598076 -0.186372 -0.916821 0.353135 
0.414458 0.747527 0.519064 0.199166 0.845952 0.49467 0.05344 0.877264 0.477024 
0.0411934 0.993827 0.103014 -0.0598999 0.887409 0.457075 -0.204937 0.897756 0.389916 
-0.368086 0.886461 0.280535 0.496682 0.673331 0.54766 0.589682 0.50745 0.628307 
0.600937 0.751025 0.273561 -0.385826 0.891123 0.238827 -0.39585 0.893312 0.21283 
-0.315398 0.92966 0.190408 -0.412277 0.899114 0.147042 0.609241 0.437879 0.661126 
0.720606 0.555202 0.415304 -0.424615 0.893849 0.143999 -0.453966 0.877484 -0.154712 
-0.568352 0.818801 0.0808693 0.610422 0.315474 0.726541 0.618775 0.287663 0.731005 
0.633378 0.329836 0.700029 -0.695849 0.713786 0.0793935 -0.840636 0.540584 0.0331514 
0.640529 0.153655 0.752405 0.799439 0.19819 0.567114 -0.911832 0.41035 -0.0132554 
-0.878655 0.360903 -0.312591 0.638806 0.0371027 0.768472 0.751235 0.0669261 0.656633 
-0.992156 0.122199 -0.0263483 0.622975 0.0431015 0.781054 0.723047 0.0520923 0.688832 
-0.986863 -0.157825 -0.0345259 0.635134 0.0577783 0.770238 0.716457 -0.0188357 0.697377 
-0.935087 -0.353534 -0.0250412 -0.886178 -0.462668 -0.0250231 -0.858828 -0.302864 -0.413144 
0.771028 -0.0543174 0.634481 0.831894 -0.149023 0.53455 -0.831437 -0.552665 -0.0572163 
-0.717009 -0.694225 -0.0628499 0.778814 -0.259922 0.570867 0.859991 -0.417808 0.293006 
0.745144 -0.499011 0.442434 -0.706197 -0.705493 -0.0597146 -0.602583 -0.79384 -0.0819195 
0.706687 -0.599579 0.375631 0.632779 -0.768984 0.0908575 0.465368 -0.84893 0.250499 
-0.353737 -0.935237 0.0141949 -0.572894 -0.816305 -0.073746 -0.502549 -0.862493 -0.0595926 
-0.488403 -0.735223 -0.47001 0.303756 -0.942707 0.13797 0.289413 -0.948602 0.128038 
0.277176 -0.960815 -0.00277376 0.198262 -0.967295 0.158219 0.0994894 -0.98103 0.166379 
-0.0285504 -0.986674 0.160183 -0.123294 -0.98415 0.127463 -0.318755 -0.947261 0.0330484 
-0.230291 -0.96978 0.0805773 -0.254372 -0.884721 -0.390595 0.0398946 0.997 0.0663224 
0.589195 0.781179 0.20642 0.366581 0.923272 0.114833 0.0718051 0.994917 0.0706001 
0.185841 0.978618 0.0881418 -0.0530469 0.996767 0.0603407 0.0361653 0.999298 -0.00977301 
-0.111006 0.99223 0.0561983 -0.289628 0.957102 -0.00849607 -0.455066 0.887983 -0.0663446 
0.606525 0.765317 0.215448 0.722886 0.606007 0.331951 -0.447131 0.890256 -0.0867037 
-0.430058 0.897682 -0.0960068 -0.363216 0.92184 -0.135221 0.740905 0.575837 0.345647 
-0.454261 0.860873 -0.229226 -0.459639 0.856723 -0.234005 -0.627614 0.683353 -0.373001 
0.80068 0.428915 0.418261 0.824031 0.335756 0.456334 0.849835 0.489081 0.196421 
-0.678358 0.615184 -0.401721 -0.64399 0.58541 -0.492515 0.836351 0.223606 0.500517 
-0.820213 0.308984 -0.481434 -0.585151 0.244914 -0.773056 -0.847084 0.209287 -0.488516 
0.812727 0.096629 0.574575 -0.856953 0.0956157 -0.506448 -0.805849 0.0810088 -0.586554 
0.797683 0.0496956 0.601026 -0.454049 -0.18881 -0.870741 -0.809845 -0.128064 -0.572495 
-0.804671 -0.174558 -0.567481 -0.795192 -0.133868 -0.591396 0.830407 -0.0614916 0.553754 
-0.768739 -0.281381 -0.574339 -0.504825 -0.29077 -0.812776 0.855697 -0.185775 0.482981 
-0.340259 -0.372039 -0.863603 -0.623124 -0.498846 -0.602386 -0.608118 -0.512972 -0.605848 
-0.596673 -0.486666 -0.638073 0.860612 -0.422546 0.284257 0.857876 -0.430439 0.280661 
-0.355259 -0.28718 -0.889561 -0.462343 -0.669572 -0.581302 -0.334656 -0.42823 -0.839419 
-0.508714 -0.608642 -0.608905 -0.500895 -0.614196 -0.609809 -0.490972 -0.600181 -0.631451 
0.579224 -0.814619 -0.0299259 0.562846 -0.825268 -0.0462307 0.529914 -0.840138 -0.115585 
0.370685 -0.898875 -0.233702 0.230095 -0.925189 -0.301797 -0.255241 -0.861305 -0.439324 
-0.463683 -0.679788 -0.568231 -0.414981 -0.749778 -0.515387 -0.403383 -0.535999 -0.741611 
0.209044 -0.926725 -0.31222 0.180077 -0.929321 -0.322389 0.16883 -0.893602 -0.415899 
0.0746936 -0.933736 -0.350082 0.0632529 -0.86567 -0.496603 -0.0343999 -0.93418 -0.355141 
-0.0463182 -0.850249 -0.52434 -0.243158 -0.868921 -0.431104 -0.155244 -0.911426 -0.381054 
-0.163627 -0.85288 -0.495805 0.491543 0.855063 -0.165084 0.312739 0.918894 -0.240474 
0.159757 0.949732 -0.269233 0.0169656 0.947914 -0.318074 -0.145211 0.922924 -0.356547 
-0.332447 0.851671 -0.405137 -0.436424 0.795332 -0.420692 0.519949 0.841204 -0.148423 
0.682328 0.729027 -0.0542886 0.466529 0.848199 -0.250816 -0.15718 0.539873 -0.826941 
-0.298019 0.589089 -0.751105 -0.43453 0.798391 -0.41684 -0.42708 0.766787 -0.479207 
-0.422842 0.800629 -0.424497 -0.441579 0.759693 -0.477362 0.738815 0.673632 -0.0193113 
0.843832 0.533308 0.0594108 -0.200201 0.388076 -0.89962 -0.333255 0.577359 -0.745385 
-0.447222 0.750705 -0.486245 -0.443202 0.745767 -0.497397 -0.535846 0.54341 -0.6462 
0.859579 0.506846 0.0650451 0.815803 0.526242 -0.239866 -0.348052 0.247616 -0.904182 
-0.581035 0.449391 -0.678562 -0.52768 0.414109 -0.741665 0.93072 0.341609 0.130628 
-0.24278 -0.0529562 -0.968635 -0.554054 0.221682 -0.802422 -0.402256 0.0821151 -0.911837 
-0.515366 0.131796 -0.846775 0.961997 0.190526 0.195607 -0.255458 -0.270363 -0.928248 
-0.062918 -0.240754 -0.968545 -0.137327 -0.130868 -0.981843 -0.298694 -0.0787345 -0.951095 
-0.489437 0.0109881 -0.87197 -0.440972 -0.106351 -0.891198 -0.434229 -0.00152887 -0.900801 
0.978977 0.0402823 0.199952 -0.308744 -0.104024 -0.94544 -0.0117071 -0.172453 -0.984948 
-0.0977881 -0.181449 -0.978526 -0.417234 -0.190936 -0.888515 -0.29235 -0.177625 -0.939671 
0.974249 -0.141734 0.175359 -0.422571 0.00902791 -0.906285 -0.126376 -0.15524 -0.97976 
-0.140232 -0.228102 -0.963486 -0.349224 -0.265341 -0.898686 -0.307591 -0.290093 -0.90622 
-0.302447 -0.270728 -0.91391 0.925859 -0.37542 0.0429466 -0.426441 -0.0839444 -0.900612 
-0.353857 -0.285807 -0.890562 -0.236003 -0.186024 -0.953781 -0.244599 -0.328679 -0.912218 
-0.236816 -0.335282 -0.911868 -0.225639 -0.323982 -0.918761 0.735692 -0.653353 -0.178569 
0.715635 -0.672924 -0.187191 0.708507 -0.661752 -0.245158 0.387624 -0.837883 -0.384318 
-0.286556 -0.332493 -0.898518 -0.35543 -0.286626 -0.889671 -0.380749 -0.244125 -0.891871 
0.27803 -0.854142 -0.439477 0.234407 -0.853064 -0.466192 0.219502 -0.839377 -0.497257 
0.162394 -0.797539 -0.580999 0.104994 -0.722442 -0.683414 0.117677 -0.761629 -0.637239 
0.0666329 -0.669046 -0.740228 0.0449444 -0.752334 -0.657247 -0.00229666 -0.613435 -0.789742 
-0.0705547 -0.717929 -0.692531 -0.094433 -0.574645 -0.812936 -0.198203 -0.654781 -0.729368 
-0.214352 -0.545261 -0.810397 -0.331698 -0.504075 -0.797424 -0.32846 -0.51243 -0.793429 
-0.330448 -0.504857 -0.797448 0.228832 0.748979 -0.621825 0.0564979 0.707738 -0.704213 
-0.0939515 0.620936 -0.778211 0.570738 0.680294 -0.459845 0.24152 0.751915 -0.613426 
0.360732 0.762131 -0.537614 0.223715 0.739292 -0.635137 0.0314929 0.616827 -0.786469 
-0.149574 0.540121 -0.828189 -0.103025 0.560133 -0.821971 -0.159098 0.521222 -0.83846 
-0.236186 0.343 -0.909157 0.572481 0.679347 -0.459078 0.569854 0.678709 -0.463271 
0.253616 0.526048 -0.811759 0.026722 0.422781 -0.905838 -0.09502 0.312059 -0.945299 
-0.147391 0.232806 -0.961289 -0.197926 0.186878 -0.962238 -0.197334 0.338997 -0.919859 
-0.206181 0.222595 -0.952859 -0.173986 0.322022 -0.930607 -0.206532 0.226818 -0.951787 
0.780066 0.523366 -0.342907 0.78847 0.512172 -0.34058 0.346271 0.373329 -0.860652 
-0.186497 0.121128 -0.97496 -0.239071 0.0749801 -0.968103 -0.206385 0.00510214 -0.978457 
-0.114633 0.0462512 -0.992331 -0.0962536 0.0779513 -0.9923 -0.22699 0.15959 -0.960732 
-0.178155 0.134262 -0.9748 0.848001 0.382818 -0.366531 0.655398 0.29832 -0.693872 
-0.200238 -0.0190988 -0.979561 -0.282427 0.030196 -0.958814 -0.225193 -0.0276252 -0.973922 
-0.135741 0.0288702 -0.990324 -0.176658 -0.216426 -0.960183 -0.0989406 -0.167961 -0.980816 
-0.172656 -0.140544 -0.974904 -0.143628 -0.172473 -0.974486 -0.15539 -0.1554 -0.975554 
0.923556 0.207444 -0.322507 0.467398 0.108738 -0.877334 -0.130313 -0.164019 -0.977812 
-0.254384 0.0459032 -0.966013 -0.204924 -0.114969 -0.972002 -0.280216 -0.174762 -0.943895 
-0.263906 0.0255531 -0.96421 0.94264 0.027791 -0.332651 0.372769 -0.0665601 -0.925534 
0.0600978 -0.124136 -0.990444 -0.110177 -0.148914 -0.982693 -0.142 -0.160043 -0.976843 
0.0117237 -0.167822 -0.985748 -0.196037 0.00790925 -0.980565 -0.260386 -0.000331293 -0.965505 
-0.346888 -0.0393895 -0.937079 -0.264381 0.00530974 -0.964404 0.885426 -0.243386 -0.395959 
0.389634 -0.184916 -0.902215 0.0439146 -0.178052 -0.983041 -0.0873612 -0.173911 -0.980879 
-0.12212 -0.121496 -0.985051 0.0490424 -0.068633 -0.996436 -0.0756417 -0.13457 -0.988013 
-0.215971 0.077041 -0.973356 -0.437271 -0.0316149 -0.898774 -0.3285 -0.0717762 -0.941773 
0.66299 -0.519855 -0.538697 0.562212 -0.576277 -0.593146 0.488249 -0.482571 -0.727144 
0.0816742 -0.393233 -0.915804 -0.0240182 -0.264579 -0.964065 -0.0394744 -0.207287 -0.977483 
-0.008992 -0.156184 -0.987687 -0.0897072 -0.270987 -0.958394 -0.180767 -0.145448 -0.972712 
-0.372776 -0.185906 -0.909108 -0.314209 -0.27622 -0.908282 -0.33053 -0.218028 -0.918267 
0.339776 -0.620556 -0.706727 0.272064 -0.636112 -0.722041 0.263066 -0.605006 -0.751508 
0.0762914 -0.596016 -0.79934 0.0442492 -0.48891 -0.871211 0.0111247 -0.537894 -0.842939 
-0.00552793 -0.464861 -0.885366 0.0165579 -0.502246 -0.864566 -0.0036578 -0.414384 -0.910095 
-0.0479893 -0.464623 -0.884207 -0.0662842 -0.395061 -0.91626 -0.197822 -0.343409 -0.918116 
-0.144707 -0.37722 -0.914748 -0.150996 -0.346412 -0.925851 0.124859 0.280305 -0.951756 
-0.0531554 0.224313 -0.973066 0.167833 0.269049 -0.948391 0.254315 0.136463 -0.957445 
0.108755 0.239591 -0.964763 -0.12229 0.152156 -0.980762 -0.0736276 0.175436 -0.981734 
0.262109 0.112027 -0.958514 0.244526 0.106706 -0.963753 0.0449262 0.00908685 -0.998949 
-0.187122 -0.0195881 -0.982141 -0.093707 -0.0236394 -0.995319 0.212024 0.0143103 -0.97716 
0.0645253 -0.117244 -0.991005 0.124344 -0.0153082 -0.992121 -0.0775197 -0.136472 -0.987606 
-0.0301919 -0.11856 -0.992488 -0.107438 -0.175059 -0.978678 -0.106725 -0.175042 -0.978759 
-0.103909 -0.176563 -0.978789 
