# vtk DataFile Version 4.2
vtk output
ASCII
DATASET POLYDATA
POINTS 512 float
-18.1554 -39.4307 -19.6681 -10.0988 -39.4307 -21.3052 -2.04227 -39.4307 -21.4762 
6.01431 -39.4307 -21.6232 14.0709 -39.4307 -21.7831 22.1275 -39.4307 -18.764 
-34.2686 -31.3741 -17.2803 -26.212 -31.3741 -21.571 -18.1554 -31.3741 -23.1816 
-10.0988 -31.3741 -23.6012 -2.04227 -31.3741 -23.8643 6.01431 -31.3741 -24.1756 
14.0709 -31.3741 -24.1256 22.1275 -31.3741 -23.7726 30.184 -31.3741 -21.883 
-34.2686 -23.3175 -21.2432 -26.212 -23.3175 -23.6358 -18.1554 -23.3175 -24.3919 
-10.0988 -23.3175 -24.2287 -2.04227 -23.3175 -24.1739 6.01431 -23.3175 -24.4442 
14.0709 -23.3175 -24.7153 22.1275 -23.3175 -24.528 30.184 -23.3175 -23.3083 
38.2406 -23.3175 -21.3368 -42.3252 -15.2609 -18.4054 -34.2686 -15.2609 -22.7996 
-26.212 -15.2609 -24.3218 -18.1554 -15.2609 -24.5789 -10.0988 -15.2609 -24.0925 
-2.04227 -15.2609 -23.653 6.01431 -15.2609 -23.892 14.0709 -15.2609 -24.0943 
22.1275 -15.2609 -23.9954 30.184 -15.2609 -23.4379 38.2406 -15.2609 -22.6969 
46.2972 -15.2609 -18.5666 -42.3252 -7.20437 -19.9227 -34.2686 -7.20437 -23.7606 
-26.212 -7.20437 -24.5108 -18.1554 -7.20437 -24.4928 -10.0988 -7.20437 -23.9866 
-2.04227 -7.20437 -24.4883 6.01431 -7.20437 -24.6992 14.0709 -7.20437 -23.3392 
22.1275 -7.20437 -23.4712 30.184 -7.20437 -23.5126 38.2406 -7.20437 -22.5429 
46.2972 -7.20437 -19.2605 -42.3252 0.85221 -19.9017 -34.2686 0.85221 -23.9916 
-26.212 0.85221 -24.6679 -18.1554 0.85221 -24.3424 -10.0988 0.85221 -23.628 
-2.04227 0.85221 -23.7328 6.01431 0.85221 -24.3278 14.0709 0.85221 -23.5985 
22.1275 0.85221 -23.748 30.184 0.85221 -23.943 38.2406 0.85221 -22.6566 
46.2972 0.85221 -18.8172 -42.3252 8.90879 -18.2867 -34.2686 8.90879 -22.5474 
-26.212 8.90879 -23.9192 -18.1554 8.90879 -23.917 -10.0988 8.90879 -23.7963 
-2.04227 8.90879 -24.5638 6.01431 8.90879 -24.5503 14.0709 8.90879 -24.4365 
22.1275 8.90879 -24.7847 30.184 8.90879 -23.8806 38.2406 8.90879 -21.72 
-34.2686 16.9654 -20.1568 -26.212 16.9654 -22.3628 -18.1554 16.9654 -22.5973 
-10.0988 16.9654 -22.5382 -2.04227 16.9654 -22.7761 6.01431 16.9654 -22.7944 
14.0709 16.9654 -22.9107 22.1275 16.9654 -23.1762 30.184 16.9654 -21.7573 
38.2406 16.9654 -17.6834 -26.212 25.0219 -20.0242 -18.1554 25.0219 -21.0147 
-10.0988 25.0219 -21.0791 -2.04227 25.0219 -20.4915 6.01431 25.0219 -19.8199 
14.0709 25.0219 -19.5072 22.1275 25.0219 -18.3604 -18.1554 33.0785 -18.7375 
-10.0988 33.0785 -19.3202 -2.04227 33.0785 -18.8558 6.01431 33.0785 -17.6887 
-18.1554 -42.6777 -16.8667 -10.0988 -44.2349 -16.8667 -10.0988 -47.4873 -8.95008 
-2.04227 -44.817 -16.8667 6.01431 -44.6034 -16.8667 14.0709 -43.5827 -16.8667 
22.1275 -40.9563 -16.8667 -34.2686 -31.972 -16.8667 -25.0512 -39.4307 -16.8667 
-26.212 -38.6857 -16.8667 -26.212 -39.4307 -16.0453 25.7891 -39.4307 -16.8667 
30.184 -37.2268 -16.8667 -34.8203 -31.3741 -16.8667 37.957 -31.3741 -16.8667 
38.2406 -31.0943 -16.8667 38.2406 -31.3741 -16.4533 -40.2502 -23.3175 -16.8667 
-42.3252 -19.2797 -16.8667 -42.3252 -23.3175 -14.2065 44.3634 -23.3175 -16.8667 
46.2972 -19.5704 -16.8667 46.2972 -23.3175 -14.1612 -43.9197 -15.2609 -16.8667 
48.2908 -15.2609 -16.8667 -45.4849 -7.20437 -16.8667 49.4668 -7.20437 -16.8667 
54.3538 -7.20437 -9.22147 -45.4729 0.85221 -16.8667 48.5607 0.85221 -16.8667 
46.2972 7.74079 -16.8667 -43.7436 8.90879 -16.8667 -42.3252 12.4393 -16.8667 
45.8124 8.90879 -16.8667 46.2972 8.90879 -16.3352 -39.7133 16.9654 -16.8667 
-42.3252 16.9654 -14.0427 -34.2686 25.011 -16.8667 30.184 23.3942 -16.8667 
39.3349 16.9654 -16.8667 38.2406 17.8358 -16.8667 -34.258 25.0219 -16.8667 
-34.2686 25.0219 -16.8603 -26.212 32.4039 -16.8667 14.0709 30.8676 -16.8667 
26.6698 25.0219 -16.8667 22.1275 27.2413 -16.8667 30.184 25.0219 -14.9857 
-34.2686 33.0785 -9.44014 -25.0452 33.0785 -16.8667 -26.212 33.0785 -16.4643 
-18.1554 36.4299 -16.8667 -10.0988 38.532 -16.8667 -2.04227 37.8052 -16.8667 
9.7662 33.0785 -16.8667 6.01431 34.9356 -16.8667 14.0709 33.0785 -15.7789 
22.1275 33.0785 -12.1765 -18.1554 41.1351 -13.5367 -10.0988 41.1351 -15.3258 
-2.04227 41.1351 -15.0627 6.01431 41.1351 -13.3968 14.0709 41.1351 -10.1969 
-10.0988 -47.5295 -8.81011 -26.212 -43.376 -8.81011 -10.45 -47.4873 -8.81011 
-18.1554 -46.5115 -8.81011 -7.759 -47.4873 -8.81011 -10.0988 -47.4873 -7.48677 
-2.04227 -47.3852 -8.81011 6.01431 -46.3434 -8.81011 14.0709 -44.6195 -8.81011 
22.1275 -42.0956 -8.81011 -32.379 -39.4307 -8.81011 -34.2686 -37.8798 -8.81011 
28.008 -39.4307 -8.81011 30.184 -38.4323 -8.81011 38.2406 -34.4155 -8.81011 
-40.4222 -31.3741 -8.81011 -42.3252 -28.5281 -8.81011 42.1531 -31.3741 -8.81011 
46.2972 -27.1033 -8.81011 -45.2366 -23.3175 -8.81011 49.2981 -23.3175 -8.81011 
-48.2264 -15.2609 -8.81011 53.1075 -15.2609 -8.81011 54.3538 -8.27571 -8.81011 
-49.5014 -7.20437 -8.81011 -50.3817 -7.20437 -1.03399 54.5395 -7.20437 -8.81011 
54.3538 -5.4946 -8.81011 -49.5379 0.85221 -8.81011 -50.3817 0.85221 -1.4211 
53.6449 0.85221 -8.81011 54.3538 0.85221 -2.15015 -48.0839 8.90879 -8.81011 
50.8271 8.90879 -8.81011 46.2972 15.6115 -8.81011 -45.2242 16.9654 -8.81011 
-42.3252 22.4397 -8.81011 45.1632 16.9654 -8.81011 38.2406 23.32 -8.81011 
46.2972 16.9654 -4.99691 -40.7326 25.0219 -8.81011 35.8918 25.0219 -8.81011 
30.184 29.7987 -8.81011 38.2406 25.0219 -4.48891 -34.7201 33.0785 -8.81011 
-34.2686 33.5818 -8.81011 -26.212 40.94 -8.81011 26.3151 33.0785 -8.81011 
22.1275 36.7888 -8.81011 30.184 33.0785 -3.10315 -25.9012 41.1351 -8.81011 
-26.212 41.1351 -8.25284 -18.1554 45.313 -8.81011 -10.0988 47.1659 -8.81011 
-2.04227 47.194 -8.81011 6.01431 45.6858 -8.81011 16.2285 41.1351 -8.81011 
14.0709 42.4928 -8.81011 22.1275 41.1351 -1.81152 -10.0988 49.1917 -3.15532 
-2.04227 49.1917 -3.71643 -26.212 -43.9 -0.753533 -18.1554 -46.9452 -0.753533 
-10.0988 -47.2658 -0.753533 -2.04227 -46.5695 -0.753533 6.01431 -45.0027 -0.753533 
14.0709 -42.7162 -0.753533 22.1275 -39.9725 -0.753533 -33.6072 -39.4307 -0.753533 
-34.2686 -38.9108 -0.753533 14.0709 -39.4307 6.30981 23.571 -39.4307 -0.753533 
22.1275 -39.4307 0.261027 30.184 -36.5156 -0.753533 38.2406 -32.202 -0.753533 
-41.559 -31.3741 -0.753533 -42.3252 -30.24 -0.753533 30.184 -31.3741 6.40095 
39.4469 -31.3741 -0.753533 38.2406 -31.3741 0.572018 46.2972 -26.1088 -0.753533 
-46.3181 -23.3175 -0.753533 48.7747 -23.3175 -0.753533 46.2972 -23.3175 2.8991 
-49.1103 -15.2609 -0.753533 -50.3817 -7.40259 -0.753533 53.1673 -15.2609 -0.753533 
54.3538 -10.3743 -0.753533 -50.4127 -7.20437 -0.753533 -50.3817 -7.20437 -0.53086 
55.0103 -7.20437 -0.753533 54.3538 -7.20437 1.05127 -50.4556 0.85221 -0.753533 
-50.3817 1.28675 -0.753533 -50.3817 0.85221 -0.230794 54.4931 0.85221 -0.753533 
54.3538 1.35488 -0.753533 54.3538 0.85221 -0.256174 -49.0657 8.90879 -0.753533 
52.0718 8.90879 -0.753533 -46.2799 16.9654 -0.753533 -42.3252 24.5486 -0.753533 
47.4305 16.9654 -0.753533 46.2972 18.3523 -0.753533 -42.0506 25.0219 -0.753533 
39.9238 25.0219 -0.753533 38.2406 26.6096 -0.753533 -36.4242 33.0785 -0.753533 
-34.2686 35.6582 -0.753533 31.499 33.0785 -0.753533 30.184 34.575 -0.753533 
-28.8346 41.1351 -0.753533 -26.212 43.3148 -0.753533 -18.1554 48.3062 -0.753533 
6.01431 49.1287 -0.753533 14.0709 46.5978 -0.753533 22.9009 41.1351 -0.753533 
22.1275 41.6866 -0.753533 -14.0312 49.1917 -0.753533 -10.0988 49.932 -0.753533 
5.53934 49.1917 -0.753533 -2.04227 50.159 -0.753533 -26.212 -41.725 7.30304 
-18.1554 -44.1256 7.30304 -10.0988 -44.3667 7.30304 -2.04227 -43.4885 7.30304 
6.01431 -41.7623 7.30304 -30.189 -39.4307 7.30304 -34.2686 -36.4694 7.30304 
-26.212 -39.4307 11.4185 -18.1554 -39.4307 14.4788 -10.0988 -39.4307 14.4303 
-2.04227 -39.4307 12.9986 12.6675 -39.4307 7.30304 6.01431 -39.4307 10.6112 
14.0709 -38.8894 7.30304 22.1275 -34.8412 7.30304 -39.3424 -31.3741 7.30304 
-42.3252 -27.1469 7.30304 -34.2686 -31.3741 15.1869 14.0709 -31.3741 14.9284 
28.8733 -31.3741 7.30304 22.1275 -31.3741 10.8674 30.184 -30.6066 7.30304 
38.2406 -25.9275 7.30304 -44.5251 -23.3175 7.30304 -42.3252 -23.3175 11.894 
30.184 -23.3175 12.9716 41.474 -23.3175 7.30304 38.2406 -23.3175 9.54781 
46.2972 -18.4549 7.30304 -47.7293 -15.2609 7.30304 38.2406 -15.2609 14.3526 
48.7525 -15.2609 7.30304 46.2972 -15.2609 9.76073 -49.2503 -7.20437 7.30304 
51.5799 -7.20437 7.30304 46.2972 -7.20437 13.1572 -49.2641 0.85221 7.30304 
51.9315 0.85221 7.30304 46.2972 0.85221 14.2944 -47.5664 8.90879 7.30304 
50.2752 8.90879 7.30304 46.2972 8.90879 13.4146 -44.4504 16.9654 7.30304 
-42.3252 20.8828 7.30304 -42.3252 16.9654 11.2564 46.5635 16.9654 7.30304 
46.2972 17.3374 7.30304 46.2972 16.9654 7.7997 -39.9026 25.0219 7.30304 
40.5711 25.0219 7.30304 38.2406 27.6808 7.30304 38.2406 25.0219 12.1448 
-34.5056 33.0785 7.30304 -34.2686 33.3896 7.30304 -34.2686 33.0785 7.75215 
33.1059 33.0785 7.30304 30.184 35.8293 7.30304 30.184 33.0785 13.4039 
-27.6579 41.1351 7.30304 -26.212 42.4465 7.30304 -26.212 41.1351 10.1384 
-18.1554 48.0222 7.30304 6.01431 48.6785 7.30304 14.0709 46.3583 7.30304 
23.6947 41.1351 7.30304 22.1275 42.2126 7.30304 22.1275 41.1351 9.95468 
-13.0718 49.1917 7.30304 -10.0988 49.7709 7.30304 -10.0988 49.1917 9.1851 
2.63575 49.1917 7.30304 -2.04227 49.8781 7.30304 -2.04227 49.1917 9.4574 
-26.212 -36.6334 15.3596 -18.1554 -38.6572 15.3596 -10.0988 -38.531 15.3596 
-2.04227 -37.0115 15.3596 6.01431 -34.665 15.3596 -34.0992 -31.3741 15.3596 
-34.2686 -31.2357 15.3596 -26.212 -31.3741 19.8528 -18.1554 -31.3741 20.992 
-10.0988 -31.3741 20.5534 -2.04227 -31.3741 19.2622 12.9176 -31.3741 15.3596 
6.01431 -31.3741 17.5675 14.0709 -30.4502 15.3596 22.1275 -23.4032 15.3596 
-40.3691 -23.3175 15.3596 -42.3252 -19.4892 15.3596 -34.2686 -23.3175 20.9671 
-2.04227 -23.3175 22.828 6.01431 -23.3175 20.9423 14.0709 -23.3175 18.1071 
22.2654 -23.3175 15.3596 22.1275 -23.3175 15.3972 30.184 -18.7969 15.3596 
-44.155 -15.2609 15.3596 -42.3252 -15.2609 17.5392 -34.2686 -15.2609 23.1611 
14.0709 -15.2609 20.8737 22.1275 -15.2609 18.3836 35.4259 -15.2609 15.3596 
[...]
POINT_DATA 512
SCALARS ImageScalars float
LOOKUP_TABLE default
0 0 0 0 0 0 0 0 0 
0 0 0 0 0 0 0 0 0 
0 0 0 0 0 0 0 0 0 
0 0 0 0 0 0 0 0 0 
0 0 0 0 0 0 0 0 0 
0 0 0 0 0 0 0 0 0 
0 0 0 0 0 0 0 0 0 
0 0 0 0 0 0 0 0 0 
0 0 0 0 0 0 0 0 0 
0 0 0 0 0 0 0 0 0 
0 0 0 0 0 0 0 0 0 
0 0 0 0 0 0 0 0 0 
0 0 0 0 0 0 0 0 0 
0 0 0 0 0 0 0 0 0 
0 0 0 0 0 0 0 0 0 
0 0 0 0 0 0 0 0 0 
0 0 0 0 0 0 0 0 0 
0 0 0 0 0 0 0 0 0 
0 0 0 0 0 0 0 0 0 
0 0 0 0 0 0 0 0 0 
0 0 0 0 0 0 0 0 0 
0 0 0 0 0 0 0 0 0 
0 0 0 0 0 0 0 0 0 
0 0 0 0 0 0 0 0 0 
0 0 0 0 0 0 0 0 0 
0 0 0 0 0 0 0 0 0 
0 0 0 0 0 0 0 0 0 
0 0 0 0 0 0 0 0 0 
0 0 0 0 0 0 0 0 0 
0 0 0 0 0 0 0 0 0 
0 0 0 0 0 0 0 0 0 
0 0 0 0 0 0 0 0 0 
0 0 0 0 0 0 0 0 0 
0 0 0 0 0 0 0 0 0 
0 0 0 0 0 0 0 0 0 
0 0 0 0 0 0 0 0 0 
0 0 0 0 0 0 0 0 0 
0 0 0 0 0 0 0 0 0 
0 0 0 0 0 0 0 0 0 
0 0 0 0 0 0 0 0 0 
0 0 0 0 0 0 0 0 0 
0 0 0 0 0 0 0 0 0 
0 0 0 0 0 0 0 0 0 
0 0 0 0 0 0 0 0 0 
0 0 0 0 0 0 0 0 0 
0 0 0 0 0 0 0 0 0 
0 0 0 0 0 0 0 0 0 
0 0 0 0 0 0 0 0 0 
0 0 0 0 0 0 0 0 0 
0 0 0 0 0 0 0 0 0 
0 0 0 0 0 0 0 0 0 
0 0 0 0 0 0 0 0 0 
0 0 0 0 0 0 0 0 0 
0 0 0 0 0 0 0 0 0 
0 0 0 0 0 0 0 0 0 
0 0 0 0 0 0 0 0 0 
0 0 0 0 0 0 0 0 
NORMALS Normals float
-0.249127 -0.548936 -0.797876 -0.100183 -0.510756 -0.853869 -0.0176365 -0.493597 -0.869512 
-0.0170383 -0.52936 -0.848226 0.132693 -0.599273 -0.789471 0.339448 -0.760848 -0.55307 
-0.533562 -0.49174 -0.688116 -0.307703 -0.373623 -0.875057 -0.114582 -0.268326 -0.956489 
-0.0388972 -0.148411 -0.98816 -0.0361748 -0.153612 -0.987469 -0.0158365 -0.156979 -0.987475 
0.0242041 -0.141846 -0.989593 0.126049 -0.273252 -0.953648 0.373798 -0.409927 -0.832006 
-0.421945 -0.293956 -0.857644 -0.167341 -0.146465 -0.974959 -0.0337422 -0.0809418 -0.996148 
0.0133253 -0.0320554 -0.999397 -0.0134031 0.0136037 -0.999818 -0.0337827 0.018085 -0.999266 
-0.00530353 0.000480821 -0.999986 0.0836065 -0.0123443 -0.996422 0.196001 -0.0839257 -0.977006 
0.411217 -0.303433 -0.859551 -0.655129 -0.230688 -0.719437 -0.312392 -0.134246 -0.94042 
-0.110315 -0.0519729 -0.992537 0.0146921 -0.0060244 -0.999874 0.0573343 0.014931 -0.998243 
0.0125051 -0.0191121 -0.999739 -0.0273558 -0.0155775 -0.999504 -0.00641438 0.0851866 -0.996344 
0.0427696 0.0651098 -0.996961 0.0723548 -0.0118844 -0.997308 0.279035 -0.0692989 -0.957777 
0.589465 -0.196008 -0.783653 -0.602253 -0.0776002 -0.794524 -0.241814 -0.0711685 -0.967709 
-0.041538 -0.0211372 -0.998913 0.0322356 0.0146475 -0.999373 0.000612934 0.0289241 -0.999581 
-0.0441145 -0.0051333 -0.999013 0.071824 -0.02728 -0.997044 0.0765422 0.0310659 -0.996582 
-0.0107445 0.0153508 -0.999824 0.0590941 -0.0314921 -0.997756 0.23924 0.00125346 -0.97096 
0.537986 -0.0155732 -0.84281 -0.607886 0.0828672 -0.789688 -0.249193 0.0684308 -0.966033 
-0.0172718 0.0377893 -0.999136 0.06429 0.0354825 -0.9973 0.0377918 0.0116282 -0.999218 
-0.0436037 -0.00434567 -0.999039 0.00833695 0.00915275 -0.999923 0.0360501 -0.068074 -0.997029 
-0.0212435 -0.0805745 -0.996522 0.0673175 -0.022917 -0.997468 0.277734 0.0444487 -0.959629 
0.594512 0.135177 -0.792643 -0.642106 0.245392 -0.72628 -0.293952 0.214068 -0.93154 
-0.0755942 0.141273 -0.98708 0.00763454 0.107005 -0.994229 -0.0393747 0.0658513 -0.997052 
-0.0470893 0.051938 -0.99754 0.00782622 0.0867137 -0.996203 -0.0143323 0.0351113 -0.999281 
0.0338496 0.0265973 -0.999073 0.175513 0.10627 -0.978725 0.384213 0.244588 -0.890257 
-0.383708 0.309713 -0.869969 -0.135491 0.235673 -0.962341 -0.0110602 0.180088 -0.983588 
-0.0101563 0.166782 -0.985941 -0.0160165 0.253901 -0.967098 -0.0078379 0.291286 -0.956604 
-0.0221046 0.296019 -0.954926 0.0537613 0.350696 -0.934945 0.276255 0.434734 -0.85714 
0.475853 0.575689 -0.664941 -0.225266 0.33426 -0.915164 -0.0627061 0.219172 -0.973669 
0.0314146 0.199669 -0.97936 0.0751578 0.233665 -0.969408 0.0575833 0.297672 -0.95293 
0.0778482 0.391921 -0.916699 0.19633 0.558331 -0.806053 -0.158445 0.380818 -0.910974 
-0.0026577 0.315348 -0.948973 0.099051 0.296122 -0.95 0.172324 0.335344 -0.926201 
-0.259443 -0.718643 -0.645168 -0.105184 -0.784957 -0.610557 -0.0509099 -0.989016 -0.138767 
-0.0170219 -0.819552 -0.572752 0.0716755 -0.857986 -0.508648 0.209485 -0.879148 -0.428036 
0.344533 -0.843279 -0.412526 -0.540922 -0.50945 -0.669227 -0.391094 -0.645193 -0.656332 
-0.40767 -0.631626 -0.659435 -0.421795 -0.672153 -0.608522 0.393285 -0.819124 -0.417567 
0.465665 -0.759777 -0.453757 -0.549906 -0.498061 -0.670477 0.554165 -0.618755 -0.556815 
0.555005 -0.613021 -0.562294 0.561411 -0.634576 -0.53116 -0.643742 -0.365302 -0.672421 
-0.690097 -0.301271 -0.658029 -0.7576 -0.395108 -0.51955 0.658297 -0.388114 -0.64499 
0.664187 -0.316839 -0.677103 0.746931 -0.465638 -0.474632 -0.718645 -0.232547 -0.655341 
0.663179 -0.222892 -0.714502 -0.756709 -0.0787631 -0.648989 0.673784 -0.0152043 -0.738772 
0.962125 -0.0316822 -0.27076 -0.756663 0.089683 -0.647625 0.682526 0.162575 -0.71255 
0.669704 0.316987 -0.671577 -0.705509 0.249972 -0.663152 -0.673044 0.304118 -0.674184 
0.662673 0.343903 -0.665278 0.685731 0.354335 -0.635783 -0.601251 0.357101 -0.714826 
-0.747592 0.392557 -0.535728 -0.489931 0.442959 -0.750836 0.380019 0.642222 -0.665685 
0.507137 0.588748 -0.629434 0.486616 0.601771 -0.633306 -0.489705 0.443025 -0.750945 
-0.490203 0.443237 -0.750494 -0.351586 0.459278 -0.815752 0.211291 0.43996 -0.872806 
0.314114 0.629144 -0.710992 0.255604 0.565062 -0.784456 0.420852 0.677902 -0.602771 
-0.679132 0.627953 -0.380072 -0.333739 0.461224 -0.822126 -0.370442 0.478937 -0.795859 
-0.188408 0.487065 -0.852801 -0.0452908 0.47596 -0.8783 0.0979935 0.434942 -0.89511 
0.214632 0.392588 -0.89432 0.18798 0.380429 -0.905504 0.266672 0.465349 -0.844 
0.444745 0.58884 -0.674884 -0.263855 0.67435 -0.689661 -0.0658282 0.585048 -0.808323 
0.0945257 0.568557 -0.817195 0.231749 0.597121 -0.767945 0.387423 0.668793 -0.634523 
-0.0501297 -0.989948 -0.132248 -0.44654 -0.863964 -0.232742 -0.0578075 -0.989192 -0.134748 
-0.234627 -0.952249 -0.195379 -0.0147214 -0.993198 -0.1155 -0.0384167 -0.995828 -0.0827645 
0.0724242 -0.994596 -0.0743937 0.166881 -0.985932 -0.00945775 0.255385 -0.96545 0.0518235 
0.356876 -0.932316 0.0585297 -0.594096 -0.76665 -0.243509 -0.639661 -0.727769 -0.247359 
0.414002 -0.909222 0.0437957 0.431961 -0.901097 0.0378629 0.548937 -0.835469 -0.0256595 
-0.761929 -0.592426 -0.261717 -0.80916 -0.526125 -0.261634 0.641388 -0.765368 -0.053232 
0.75274 -0.643442 -0.139157 -0.868872 -0.414536 -0.270593 0.829329 -0.526572 -0.186908 
-0.935725 -0.237986 -0.260347 0.929668 -0.287766 -0.23002 0.966327 -0.0661348 -0.248673 
-0.964109 -0.0776884 -0.253887 -0.996752 -0.0803527 0.00534639 0.967592 -0.0319162 -0.250493 
0.966289 0.0187142 -0.256779 -0.962693 0.0853987 -0.256767 -0.996573 0.0824808 -0.00630103 
0.937655 0.204164 -0.281283 0.98419 0.174955 0.0275882 -0.931519 0.245971 -0.2679 
0.857056 0.419249 -0.299474 0.736672 0.604651 -0.302838 -0.872406 0.395992 -0.286528 
-0.8225 0.489385 -0.28982 0.705086 0.638597 -0.308299 0.576419 0.72533 -0.376347 
0.759287 0.62361 -0.185994 -0.791065 0.53033 -0.304904 0.556096 0.726465 -0.40374 
0.561385 0.674328 -0.479718 0.630092 0.727134 -0.272507 -0.692645 0.629437 -0.352211 
-0.685319 0.635985 -0.354768 -0.533256 0.751177 -0.389065 0.547982 0.63576 -0.543623 
0.513914 0.644054 -0.566645 0.669171 0.668091 -0.325367 -0.52588 0.754729 -0.392217 
-0.540149 0.758189 -0.365223 -0.319956 0.820419 -0.473857 -0.0964114 0.862394 -0.496973 
0.0748681 0.849219 -0.522706 0.23462 0.790875 -0.565217 0.434049 0.689283 -0.580078 
0.393638 0.712755 -0.580542 0.557258 0.7828 -0.276925 -0.103864 0.966454 -0.234902 
0.0564428 0.962089 -0.26683 -0.420432 -0.903154 0.0868889 -0.197032 -0.971521 0.131625 
0.0232696 -0.98361 0.178801 0.13226 -0.966516 0.219896 0.220508 -0.942018 0.252941 
0.288322 -0.904729 0.313585 0.328984 -0.870305 0.366522 -0.616642 -0.784757 0.0625213 
-0.635855 -0.769489 0.0597942 0.328461 -0.81795 0.472304 0.343653 -0.866443 0.362187 
0.331464 -0.857073 0.394409 0.408363 -0.837294 0.363563 0.488959 -0.78338 0.383712 
-0.799304 -0.59934 0.0436576 -0.819842 -0.571056 0.0418884 0.38684 -0.686739 0.615423 
0.509236 -0.774053 0.376193 0.481432 -0.765252 0.427332 0.676511 -0.667444 0.31121 
-0.905183 -0.423469 0.0362882 0.757828 -0.58398 0.290971 0.655242 -0.59548 0.464825 
-0.971889 -0.233858 0.0272395 -0.99637 -0.0838784 0.0145275 0.917351 -0.350874 0.188028 
0.970578 -0.179734 0.160232 -0.996667 -0.0803295 0.0142441 -0.996531 -0.08063 0.0206152 
0.98616 -0.0715086 0.14958 0.969265 -0.0811995 0.232234 -0.996513 0.082036 0.0151989 
-0.995739 0.0908693 0.0156884 -0.996074 0.0830021 0.0307791 0.981953 0.167053 0.0886611 
0.980141 0.178986 0.0853689 0.980588 0.162897 0.109137 -0.968958 0.245815 0.0263625 
0.923958 0.381336 0.0297337 -0.918302 0.393783 0.0406884 -0.85496 0.516652 0.045972 
0.801661 0.594832 -0.0592873 0.780483 0.621016 -0.07201 -0.850687 0.52372 0.045256 
0.686757 0.706572 -0.17065 0.676822 0.710596 -0.192263 -0.782458 0.622541 0.0142312 
-0.751824 0.659359 -0.00255889 0.694292 0.67344 -0.253845 0.689829 0.678659 -0.252105 
-0.645507 0.761541 -0.0580983 -0.592823 0.801856 -0.0747589 -0.352168 0.926458 -0.132863 
0.199127 0.969577 -0.14237 0.384191 0.905713 -0.179114 0.568796 0.787631 -0.236872 
0.556501 0.797624 -0.232601 -0.225047 0.96462 -0.137336 -0.109219 0.984266 -0.138893 
0.189931 0.971482 -0.141944 0.0498753 0.988848 -0.140326 -0.376702 -0.853414 0.360251 
-0.141665 -0.897488 0.417668 0.0351977 -0.892809 0.449058 0.14095 -0.873296 0.466354 
0.244515 -0.844722 0.476085 -0.489416 -0.799609 0.347992 -0.60892 -0.724847 0.3222 
-0.348867 -0.799034 0.489732 -0.0907669 -0.752574 0.652223 0.0584395 -0.73046 0.680451 
0.146283 -0.737909 0.658856 0.31873 -0.809542 0.493004 0.239387 -0.772624 0.588002 
0.335345 -0.797107 0.50216 0.376019 -0.706982 0.598987 -0.722463 -0.617259 0.311511 
-0.809843 -0.505651 0.29744 -0.551161 -0.609322 0.570043 0.326643 -0.477109 0.815887 
0.386036 -0.668714 0.635451 0.383586 -0.593354 0.707667 0.379475 -0.661219 0.647138 
0.442627 -0.620168 0.647667 -0.858261 -0.423121 0.290444 -0.798475 -0.430027 0.421325 
0.287866 -0.494538 0.820101 0.502066 -0.571967 0.648678 0.429683 -0.564153 0.705056 
0.610216 -0.490712 0.621963 -0.92658 -0.260027 0.271729 0.352338 -0.411649 0.840478 
0.69371 -0.416736 0.58745 0.594263 -0.432944 0.677798 -0.962767 -0.0885539 0.255418 
0.823727 -0.14493 0.548151 0.615538 -0.199091 0.762546 -0.958555 0.0974284 0.267732 
0.883213 0.0726923 0.463305 0.667293 -0.0210498 0.744498 -0.915133 0.271768 0.297783 
0.887448 0.274947 0.36992 0.755212 0.191727 0.626813 -0.850493 0.408637 0.331177 
-0.823956 0.456657 0.3355 -0.784066 0.409861 0.466106 0.825539 0.500444 0.260849 
0.82188 0.508142 0.257497 0.82099 0.496549 0.281805 -0.799931 0.493978 0.340729 
0.758722 0.63392 0.149958 0.742703 0.659319 0.117008 0.724575 0.567487 0.391087 
-0.769153 0.565191 0.298266 -0.767182 0.568899 0.296285 -0.766846 0.56126 0.311343 
0.698681 0.710475 0.0840834 0.669616 0.734653 0.109085 0.620051 0.66225 0.420668 
-0.661062 0.714681 0.228533 -0.632516 0.743214 0.218074 -0.643608 0.698878 0.31199 
-0.38418 0.906997 0.172516 0.203278 0.957916 0.202667 0.360487 0.910627 0.20201 
0.551881 0.821765 0.141879 0.522743 0.83977 0.146716 0.508623 0.818713 0.266481 
-0.201738 0.965816 0.162794 -0.102315 0.982116 0.158051 -0.101459 0.969164 0.224562 
0.143373 0.97167 0.187888 0.0642748 0.983195 0.170871 0.0713992 0.965878 0.248963 
-0.309812 -0.706675 0.636103 -0.0810745 -0.72115 0.688018 0.0638879 -0.693917 0.717215 
0.149195 -0.639801 0.75392 0.230592 -0.569858 0.788726 -0.544299 -0.607943 0.578052 
-0.549156 -0.604932 0.576615 -0.265812 -0.536766 0.800766 -0.0320735 -0.503017 0.863681 
0.0952511 -0.486519 0.868462 0.163152 -0.478267 0.862927 0.311504 -0.4696 0.8261 
0.233041 -0.467126 0.852928 0.321838 -0.448851 0.833638 0.278236 -0.373268 0.885018 
-0.713777 -0.429486 0.553231 -0.762131 -0.352286 0.543186 -0.459198 -0.370967 0.807168 
0.172597 -0.390026 0.904483 0.267303 -0.388153 0.881979 0.3074 -0.311745 0.899066 
0.27717 -0.373453 0.885274 0.277235 -0.371558 0.88605 0.245151 -0.426851 0.870459 
-0.791112 -0.266141 0.550736 -0.723792 -0.257836 0.640036 -0.378792 -0.185879 0.906623 
0.358324 -0.359534 0.861591 0.209146 -0.362647 0.908155 0.299796 -0.402041 0.86515 
0.214177 -0.392354 0.894532 0.352729 -0.368437 0.860137 -0.828496 -0.0767365 0.554712 
-0.683509 -0.064904 0.727051 0.236586 -0.350102 0.906342 0.236252 -0.302681 0.923347 
0.487085 -0.233354 0.841602 0.369264 -0.271528 0.888773 -0.808413 0.12575 0.575026 
-0.680876 0.125343 0.721593 0.275306 -0.148115 0.949878 0.612623 -0.0447293 0.789108 
0.417324 -0.113646 0.901624 -0.752032 0.294377 0.589738 -0.731947 0.325717 0.598466 
-0.715917 0.292519 0.633952 -0.401466 0.250959 0.880821 0.31712 -0.029423 0.947929 
0.669906 0.140631 0.729005 0.466569 0.07159 0.881583 -0.668947 0.381557 0.637906 
-0.52486 0.328037 0.785439 -0.349167 0.202343 0.914954 0.364158 0.150763 0.919053 
0.669418 0.342762 0.659086 0.663876 0.4376 0.606444 0.575423 0.283063 0.76731 
-0.66182 0.396923 0.635961 -0.663055 0.399389 0.633124 -0.655519 0.392063 0.645431 
-0.463109 0.237674 0.853839 0.293079 0.257154 0.920856 0.651838 0.490287 0.578555 
0.581194 0.605724 0.543426 0.473422 0.392263 0.788671 -0.683068 0.449782 0.575425 
-0.644012 0.54657 0.535266 -0.603622 0.376753 0.702636 0.199809 0.422912 0.883867 
0.564223 0.624454 0.540101 0.443743 0.698157 0.561844 0.377509 0.508776 0.773714 
-0.553566 0.656635 0.512245 -0.406916 0.754615 0.514757 -0.393723 0.611495 0.686335 
-0.109864 0.864741 0.490054 -0.128324 0.53867 0.832687 0.0957776 0.854363 0.510774 
0.108269 0.553925 0.825497 0.232786 0.794186 0.561319 0.237262 0.614874 0.752088 
0.365663 0.732744 0.573914 0.326319 0.743043 0.584297 0.317993 0.698827 0.64072 
-0.186946 -0.299597 0.935571 -0.0154952 -0.315495 0.948801 0.0999026 -0.311838 0.944869 
-0.216593 -0.287837 0.932865 -0.180407 -0.276851 0.943826 -0.0171298 -0.227705 0.97358 
0.137031 -0.336383 0.931702 0.0955034 -0.273659 0.957074 0.150208 -0.355201 0.922643 
0.292403 -0.360431 0.885771 -0.346196 -0.174749 0.921744 -0.360644 -0.159434 0.918976 
-0.111081 -0.100503 0.988716 -0.00708087 -0.0421041 0.999088 -0.0553477 -0.0476447 0.99733 
0.0224583 -0.165263 0.985994 0.332401 -0.350448 0.875612 0.291715 -0.326254 0.899144 
0.3129 -0.339457 0.887053 -0.374171 -0.0557284 0.925684 -0.292161 -0.0480404 0.955162 
-0.0490246 -0.0315008 0.998301 0.0301417 -0.06015 0.997734 -0.0360264 -0.034044 0.998771 
-0.102981 0.0657482 0.992508 0.0649282 -0.0704949 0.995397 0.265224 -0.334353 0.904359 
0.27631 -0.312197 0.908948 0.249605 -0.256686 0.933707 -0.383616 0.119966 0.915668 
-0.357779 0.171738 0.917878 -0.33628 0.118019 0.934338 -0.125727 0.019489 0.991873 
-0.011064 -0.0906016 0.995826 0.0684029 -0.156436 0.985317 -0.0143178 -0.0623609 0.997951 
-0.0847344 -0.0380161 0.995678 0.105217 -0.144773 0.983855 0.260505 -0.17408 0.949649 
0.251107 -0.192535 0.948618 -0.331488 0.203765 0.921192 -0.347343 0.201094 0.915923 
-0.251307 0.133529 0.958653 -0.140105 0.0203567 0.989927 -0.00525139 -0.0464688 0.998906 
0.0156934 -0.0993302 0.994931 -0.018943 -0.0394918 0.99904 0.107924 -0.0116273 0.994091 
0.299909 -0.032472 0.953415 0.247201 -0.0293111 0.968521 -0.347328 0.201144 0.915917 
-0.192404 0.101162 0.976088 -0.0535925 0.0623695 0.996613 -0.00592475 0.0300976 0.999529 
0.00508262 0.0761286 0.997085 0.116261 0.110611 0.98704 0.31551 0.136263 0.939088 
0.28626 0.242036 0.927078 0.232513 0.116661 0.965571 -0.35451 0.17265 0.918975 
-0.281326 0.128944 0.95091 -0.0755588 0.106915 0.991393 0.0288277 0.101013 0.994467 
0.0633331 0.178442 0.98191 0.281206 0.254383 0.925317 0.177003 0.354519 0.918143 
0.145758 0.238838 0.960058 -0.317523 0.290323 0.902714 -0.311475 0.297558 0.902465 
-0.310289 0.289923 0.905354 -0.103673 0.379846 0.919222 -0.0744097 0.242406 0.967317 
0.0875042 0.387975 0.917507 0.0657027 0.251392 0.965653 0.156464 0.345487 0.925288 
0.152489 0.342881 0.926919 0.143264 0.31849 0.937037 
