# vtk DataFile Version 4.2
vtk output
ASCII
DATASET POLYDATA
POINTS 528 float
-3.12223 -34.9172 -16.381 5.1463 -34.9172 -17.0018 13.4148 -34.9172 -17.0801 
-36.1963 -26.6486 -17.5318 -27.9278 -26.6486 -18.7475 -19.6593 -26.6486 -18.864 
-11.3908 -26.6486 -19.0521 -3.12223 -26.6486 -19.4736 5.1463 -26.6486 -20.6318 
13.4148 -26.6486 -20.9688 21.6834 -26.6486 -19.9138 29.9519 -26.6486 -18.997 
38.2204 -26.6486 -17.2304 -44.4649 -18.3801 -17.1845 -36.1963 -18.3801 -19.5234 
-27.9278 -18.3801 -20.163 -19.6593 -18.3801 -20.0977 -11.3908 -18.3801 -19.6085 
-3.12223 -18.3801 -20.1024 5.1463 -18.3801 -21.5467 13.4148 -18.3801 -21.8771 
21.6834 -18.3801 -21.1164 29.9519 -18.3801 -20.8998 38.2204 -18.3801 -20.6841 
46.4889 -18.3801 -19.5789 54.7575 -18.3801 -16.9474 -52.7334 -10.1116 -16.7831 
-44.4649 -10.1116 -19.2674 -36.1963 -10.1116 -20.7612 -27.9278 -10.1116 -20.4473 
-19.6593 -10.1116 -20.37 -11.3908 -10.1116 -21.1713 -3.12223 -10.1116 -20.6191 
5.1463 -10.1116 -21.5078 13.4148 -10.1116 -21.6797 21.6834 -10.1116 -20.9147 
29.9519 -10.1116 -22.3276 38.2204 -10.1116 -22.1557 46.4889 -10.1116 -21.542 
54.7575 -10.1116 -19.7806 -52.7334 -1.84305 -17.6109 -44.4649 -1.84305 -19.8556 
-36.1963 -1.84305 -20.7087 -27.9278 -1.84305 -20.3896 -19.6593 -1.84305 -20.5262 
-11.3908 -1.84305 -24.4799 -3.12223 -1.84305 -21.4152 5.1463 -1.84305 -22.4063 
13.4148 -1.84305 -22.5159 21.6834 -1.84305 -20.4511 29.9519 -1.84305 -21.6477 
38.2204 -1.84305 -22.5816 46.4889 -1.84305 -22.5527 54.7575 -1.84305 -21.1711 
63.026 -1.84305 -17.4254 -52.7334 6.42548 -18.9816 -44.4649 6.42548 -20.9703 
-36.1963 6.42548 -21.5313 -27.9278 6.42548 -21.323 -19.6593 6.42548 -20.7573 
-11.3908 6.42548 -22.082 -3.12223 6.42548 -20.5765 5.1463 6.42548 -22.4633 
13.4148 6.42548 -22.0257 21.6834 6.42548 -20.5881 29.9519 6.42548 -21.7731 
38.2204 6.42548 -22.6744 46.4889 6.42548 -22.7517 54.7575 6.42548 -21.675 
63.026 6.42548 -18.0045 -52.7334 14.694 -19.6025 -44.4649 14.694 -21.5266 
-36.1963 14.694 -22.3243 -27.9278 14.694 -22.1771 -19.6593 14.694 -21.7704 
-11.3908 14.694 -21.6837 -3.12223 14.694 -21.7979 5.1463 14.694 -21.9617 
13.4148 14.694 -21.2732 21.6834 14.694 -21.6507 29.9519 14.694 -22.404 
38.2204 14.694 -23.3546 46.4889 14.694 -22.1139 54.7575 14.694 -19.6784 
-52.7334 22.9625 -18.7322 -44.4649 22.9625 -21.0079 -36.1963 22.9625 -22.361 
-27.9278 22.9625 -22.2658 -19.6593 22.9625 -21.7221 -11.3908 22.9625 -21.6794 
-3.12223 22.9625 -20.9299 5.1463 22.9625 -19.7189 13.4148 22.9625 -19.5445 
21.6834 22.9625 -20.7701 29.9519 22.9625 -21.0759 38.2204 22.9625 -21.3898 
46.4889 22.9625 -20.0133 54.7575 22.9625 -16.7197 -44.4649 31.2311 -17.4703 
-36.1963 31.2311 -18.6542 -27.9278 31.2311 -19.0794 -19.6593 31.2311 -18.0941 
-11.3908 31.2311 -16.8316 29.9519 31.2311 -17.0832 38.2204 31.2311 -16.719 
-3.12223 -34.9916 -16.3265 5.1463 -35.7202 -16.3265 13.4148 -35.7014 -16.3265 
-36.1963 -28.5793 -16.3265 -36.1963 -34.9172 -11.0403 -27.9278 -31.4242 -16.3265 
-27.9278 -34.9172 -13.9722 -19.6593 -33.5509 -16.3265 -19.6593 -34.9172 -15.6527 
-3.81812 -34.9172 -16.3265 -11.3908 -33.5136 -16.3265 -11.3908 -34.9172 -15.6749 
18.4819 -34.9172 -16.3265 21.6834 -34.1063 -16.3265 21.6834 -34.9172 -15.5973 
29.9519 -30.7182 -16.3265 29.9519 -34.9172 -11.7185 38.2204 -27.8007 -16.3265 
-39.1692 -26.6486 -16.3265 -44.4649 -20.8834 -16.3265 -44.4649 -26.6486 -13.9116 
41.4913 -26.6486 -16.3265 46.4889 -24.3387 -16.3265 46.4889 -26.6486 -14.3696 
54.7575 -19.2385 -16.3265 -46.3372 -18.3801 -16.3265 -52.7334 -11.3538 -16.3265 
-52.7334 -18.3801 -12.8525 55.7344 -18.3801 -16.3265 63.026 -18.3801 -9.37612 
-53.4527 -10.1116 -16.3265 -61.0019 -10.1116 -9.5174 61.4831 -10.1116 -16.3265 
63.026 -6.5779 -16.3265 63.026 -10.1116 -15.2001 -55.1146 -1.84305 -16.3265 
-61.0019 -1.84305 -12.4817 64.6879 -1.84305 -16.3265 -57.8745 6.42548 -16.3265 
-61.0019 6.42548 -14.4243 65.6933 6.42548 -16.3265 63.026 11.3753 -16.3265 
71.2945 6.42548 -8.18471 -59.3804 14.694 -16.3265 -61.0019 14.694 -15.3246 
60.9305 14.694 -16.3265 63.026 14.694 -14.7118 -56.2826 22.9625 -16.3265 
-61.0019 22.9625 -11.3623 -52.7334 27.1342 -16.3265 -3.12223 29.5287 -16.3265 
5.1463 27.5284 -16.3265 13.4148 27.7654 -16.3265 21.6834 30.6248 -16.3265 
46.4889 28.7732 -16.3265 55.4125 22.9625 -16.3265 54.7575 23.546 -16.3265 
63.026 22.9625 -8.14355 -46.8108 31.2311 -16.3265 -52.7334 31.2311 -11.4589 
-44.4649 32.3104 -16.3265 -36.1963 33.9149 -16.3265 -27.9278 33.8358 -16.3265 
-19.6593 32.928 -16.3265 -9.27228 31.2311 -16.3265 -11.3908 31.6841 -16.3265 
-3.12223 31.2311 -14.0123 5.1463 31.2311 -11.4489 13.4148 31.2311 -12.1933 
24.5449 31.2311 -16.3265 21.6834 31.2311 -15.6799 29.9519 32.0403 -16.3265 
39.7213 31.2311 -16.3265 38.2204 31.5931 -16.3265 46.4889 31.2311 -13.3135 
-36.1963 -37.037 -8.05796 -27.9278 -39.6228 -8.05796 -19.6593 -41.1101 -8.05796 
-11.3908 -41.9803 -8.05796 -3.12223 -41.9012 -8.05796 5.1463 -41.0293 -8.05796 
13.4148 -40.1631 -8.05796 21.6834 -38.9349 -8.05796 29.9519 -36.8799 -8.05796 
-40.5755 -34.9172 -8.05796 -44.4649 -32.6362 -8.05796 -44.4649 -34.9172 -2.39281 
36.2797 -34.9172 -8.05796 38.2204 -34.2468 -8.05796 46.4889 -30.5102 -8.05796 
-51.617 -26.6486 -8.05796 -52.7334 -25.3588 -8.05796 -52.7334 -26.6486 -6.18686 
53.563 -26.6486 -8.05796 54.7575 -25.8837 -8.05796 54.7575 -26.6486 -0.671112 
63.026 -19.4492 -8.05796 -57.8011 -18.3801 -8.05796 -61.0019 -12.7022 -8.05796 
-61.0019 -18.3801 -2.56215 64.0433 -18.3801 -8.05796 -62.4169 -10.1116 -8.05796 
69.4345 -10.1116 -8.05796 -65.4941 -1.84305 -8.05796 71.0822 -1.84305 -8.05796 
71.2945 4.69443 -8.05796 71.2945 -1.84305 -6.83552 -66.6118 6.42548 -8.05796 
-69.2704 6.42548 -0.692226 71.3544 6.42548 -8.05796 71.2945 6.58799 -8.05796 
-67.1579 14.694 -8.05796 -69.2704 14.694 -1.05301 68.2256 14.694 -8.05796 
-63.6493 22.9625 -8.05796 -61.0019 26.3771 -8.05796 54.7575 30.1442 -8.05796 
63.0867 22.9625 -8.05796 63.026 23.0214 -8.05796 -55.6513 31.2311 -8.05796 
-52.7334 33.336 -8.05796 -44.4649 35.8806 -8.05796 -36.1963 37.6935 -8.05796 
-27.9278 36.9679 -8.05796 -19.6593 36.1972 -8.05796 -11.3908 35.3063 -8.05796 
-3.12223 34.2464 -8.05796 5.1463 33.0356 -8.05796 13.4148 33.4615 -8.05796 
21.6834 35.1432 -8.05796 29.9519 36.4629 -8.05796 38.2204 35.7317 -8.05796 
52.6484 31.2311 -8.05796 46.4889 33.777 -8.05796 -44.4649 -35.7594 0.21057 
-36.1963 -39.3508 0.21057 -27.9278 -41.5259 0.21057 -19.6593 -42.6199 0.21057 
-11.3908 -43.052 0.21057 -3.12223 -42.4179 0.21057 5.1463 -40.4375 0.21057 
13.4148 -38.8907 0.21057 21.6834 -38.1045 0.21057 29.9519 -36.7525 0.21057 
-46.0367 -34.9172 0.21057 -52.7334 -30.0974 0.21057 -44.4649 -34.9172 8.43655 
13.4148 -34.9172 6.68059 21.6834 -34.9172 6.14142 36.8203 -34.9172 0.21057 
29.9519 -34.9172 4.19944 38.2204 -34.5221 0.21057 46.4889 -31.1586 0.21057 
54.7575 -26.7285 0.21057 -56.3466 -26.6486 0.21057 -61.0019 -20.7059 0.21057 
54.8782 -26.6486 0.21057 54.7575 -26.6486 0.387315 63.026 -20.6728 0.21057 
-62.308 -18.3801 0.21057 65.1775 -18.3801 0.21057 63.026 -18.3801 4.66222 
-66.2915 -10.1116 0.21057 70.4693 -10.1116 0.21057 71.2945 -7.03211 0.21057 
-68.6632 -1.84305 0.21057 -69.2704 3.59146 0.21057 72.4777 -1.84305 0.21057 
71.2945 -1.84305 3.90336 -69.5546 6.42548 0.21057 -69.2704 6.42548 1.71089 
73.0233 6.42548 0.21057 71.2945 10.7324 0.21057 71.2945 6.42548 5.56165 
-69.58 14.694 0.21057 -69.2704 15.3706 0.21057 -69.2704 14.694 1.44858 
69.6081 14.694 0.21057 -65.1695 22.9625 0.21057 -61.0019 27.9694 0.21057 
54.7575 30.7403 0.21057 64.0789 22.9625 0.21057 63.026 23.931 0.21057 
63.026 22.9625 2.63065 -56.2324 31.2311 0.21057 -52.7334 33.351 0.21057 
-52.7334 31.2311 5.58852 -44.4649 35.6249 0.21057 -36.1963 37.2865 0.21057 
-27.9278 36.7373 0.21057 -19.6593 36.2115 0.21057 -11.3908 36.0884 0.21057 
-3.12223 35.6064 0.21057 5.1463 34.4503 0.21057 13.4148 34.36 0.21057 
21.6834 35.5087 0.21057 29.9519 36.4796 0.21057 38.2204 35.7256 0.21057 
53.5981 31.2311 0.21057 46.4889 33.952 0.21057 46.4889 31.2311 7.60862 
-36.1963 -38.3535 8.4791 -27.9278 -39.8541 8.4791 -19.6593 -40.196 8.4791 
-11.3908 -39.8734 8.4791 -3.12223 -38.0327 8.4791 5.1463 -35.259 8.4791 
-52.7334 -29.5142 8.4791 -44.4557 -34.9172 8.4791 -44.4649 -34.9128 8.4791 
-36.1963 -34.9172 14.536 -27.9278 -34.9172 15.6063 -19.6593 -34.9172 15.3968 
-11.3908 -34.9172 14.2193 -3.12223 -34.9172 11.8992 6.91817 -34.9172 8.4791 
5.1463 -34.9172 8.87169 13.4148 -33.5704 8.4791 21.6834 -33.4068 8.4791 
29.9519 -32.2906 8.4791 38.2204 -30.2826 8.4791 46.4889 -27.088 8.4791 
-55.8285 -26.6486 8.4791 -61.0019 -19.4309 8.4791 -52.7334 -26.6486 12.5977 
5.1463 -26.6486 16.3721 13.4148 -26.6486 15.665 21.6834 -26.6486 14.694 
29.9519 -26.6486 13.7691 38.2204 -26.6486 12.2202 47.3275 -26.6486 8.4791 
46.4889 -26.6486 8.99102 54.7575 -22.4645 8.4791 -61.578 -18.3801 8.4791 
-61.0019 -18.3801 9.44078 46.4889 -18.3801 15.6446 60.2826 -18.3801 8.4791 
54.7575 -18.3801 13.0102 63.026 -15.3609 8.4791 -65.3348 -10.1116 8.4791 
-61.0019 -10.1116 15.0483 67.1259 -10.1116 8.4791 63.026 -10.1116 12.2889 
-67.5844 -1.84305 8.4791 69.7161 -1.84305 8.4791 63.026 -1.84305 15.8204 
-67.871 6.42548 8.4791 70.2246 6.42548 8.4791 63.026 6.42548 16.6765 
-66.932 14.694 8.4791 -61.0019 14.694 14.9086 67.1435 14.694 8.4791 
63.026 20.0592 8.4791 63.026 14.694 13.0171 -62.2358 22.9625 8.4791 
-61.0019 24.3604 8.4791 -61.0019 22.9625 9.91349 -52.7334 29.9752 8.4791 
-52.7334 22.9625 16.346 46.4889 30.918 8.4791 60.1494 22.9625 8.4791 
54.7575 27.3609 8.4791 54.7575 22.9625 13.3317 -49.4008 31.2311 8.4791 
-44.4649 32.7437 8.4791 -44.4649 31.2311 11.5355 -36.1963 34.5207 8.4791 
-36.1963 31.2311 13.6394 -27.9278 34.4754 8.4791 -27.9278 31.2311 14.3665 
-19.6593 34.5794 8.4791 -19.6593 31.2311 15.156 -11.3908 34.7895 8.4791 
-11.3908 31.2311 15.2508 -3.12223 34.3428 8.4791 -3.12223 31.2311 14.6407 
5.1463 33.2362 8.4791 5.1463 31.2311 13.1174 13.4148 32.9329 8.4791 
13.4148 31.2311 12.4597 21.6834 33.5307 8.4791 21.6834 31.2311 13.0025 
[...]
POINT_DATA 528
SCALARS ImageScalars float
LOOKUP_TABLE default
0 0 0 0 0 0 0 0 0 
0 0 0 0 0 0 0 0 0 
0 0 0 0 0 0 0 0 0 
0 0 0 0 0 0 0 0 0 
0 0 0 0 0 0 0 0 0 
0 0 0 0 0 0 0 0 0 
0 0 0 0 0 0 0 0 0 
0 0 0 0 0 0 0 0 0 
0 0 0 0 0 0 0 0 0 
0 0 0 0 0 0 0 0 0 
0 0 0 0 0 0 0 0 0 
0 0 0 0 0 0 0 0 0 
0 0 0 0 0 0 0 0 0 
0 0 0 0 0 0 0 0 0 
0 0 0 0 0 0 0 0 0 
0 0 0 0 0 0 0 0 0 
0 0 0 0 0 0 0 0 0 
0 0 0 0 0 0 0 0 0 
0 0 0 0 0 0 0 0 0 
0 0 0 0 0 0 0 0 0 
0 0 0 0 0 0 0 0 0 
0 0 0 0 0 0 0 0 0 
0 0 0 0 0 0 0 0 0 
0 0 0 0 0 0 0 0 0 
0 0 0 0 0 0 0 0 0 
0 0 0 0 0 0 0 0 0 
0 0 0 0 0 0 0 0 0 
0 0 0 0 0 0 0 0 0 
0 0 0 0 0 0 0 0 0 
0 0 0 0 0 0 0 0 0 
0 0 0 0 0 0 0 0 0 
0 0 0 0 0 0 0 0 0 
0 0 0 0 0 0 0 0 0 
0 0 0 0 0 0 0 0 0 
0 0 0 0 0 0 0 0 0 
0 0 0 0 0 0 0 0 0 
0 0 0 0 0 0 0 0 0 
0 0 0 0 0 0 0 0 0 
0 0 0 0 0 0 0 0 0 
0 0 0 0 0 0 0 0 0 
0 0 0 0 0 0 0 0 0 
0 0 0 0 0 0 0 0 0 
0 0 0 0 0 0 0 0 0 
0 0 0 0 0 0 0 0 0 
0 0 0 0 0 0 0 0 0 
0 0 0 0 0 0 0 0 0 
0 0 0 0 0 0 0 0 0 
0 0 0 0 0 0 0 0 0 
0 0 0 0 0 0 0 0 0 
0 0 0 0 0 0 0 0 0 
0 0 0 0 0 0 0 0 0 
0 0 0 0 0 0 0 0 0 
0 0 0 0 0 0 0 0 0 
0 0 0 0 0 0 0 0 0 
0 0 0 0 0 0 0 0 0 
0 0 0 0 0 0 0 0 0 
0 0 0 0 0 0 0 0 0 
0 0 0 0 0 0 0 0 0 
0 0 0 0 0 0 
NORMALS Normals float
0.0690105 0.521926 0.850194 0.0393629 0.595102 0.802686 -0.0602213 0.660921 0.748035 
0.252671 0.391916 0.884624 0.068583 0.306106 0.949524 0.0173471 0.244029 0.969613 
0.0359921 0.207834 0.977502 0.0919541 0.205668 0.974292 0.0894667 0.245682 0.965213 
-0.0409048 0.236023 0.970886 -0.113508 0.273944 0.955024 -0.14054 0.388613 0.91062 
-0.218414 0.535901 0.81554 0.332772 0.277774 0.901168 0.164776 0.171538 0.9713 
0.0329983 0.0961155 0.994823 -0.0332365 0.0882873 0.99554 -0.000585487 0.119346 0.992853 
0.116038 0.0673473 0.990959 0.104785 0.0509391 0.993189 -0.0265057 0.0446204 0.998652 
-0.059169 0.0577335 0.996577 -0.0253134 0.183392 0.982714 -0.0693467 0.25198 0.965245 
-0.215306 0.358896 0.908206 -0.414819 0.477601 0.774482 0.457417 0.221399 0.86125 
0.234674 0.143933 0.961359 0.0748593 0.0680165 0.994872 -0.0236305 0.0139443 0.999624 
0.0405534 0.0256783 0.998847 0.0167534 0.280546 0.959694 0.0220676 0.0742756 0.996994 
0.0635859 0.0443986 0.996988 -0.036885 0.0332569 0.998766 0.0398069 -0.0405111 0.998386 
0.0767415 0.0439769 0.996081 -0.0459293 0.108632 0.99302 -0.13429 0.158542 0.978177 
-0.301499 0.241977 0.92225 0.370998 0.129102 0.919616 0.171598 0.101817 0.979891 
0.0306188 0.0466001 0.998444 -0.0112375 0.0529919 0.998532 0.223943 0.0244108 0.974297 
0.0809457 0.0531938 0.995298 -0.124809 -0.00254606 0.992178 0.0630029 0.0619369 0.99609 
-0.131125 0.0267668 0.991004 -0.0381354 -0.0198651 0.999075 0.128063 -0.0328072 0.991223 
0.0543983 0.0312476 0.99803 -0.0795623 0.07158 0.994257 -0.288444 0.106676 0.951536 
-0.510229 0.123851 0.851074 0.33086 0.109224 0.937338 0.143543 0.0986895 0.984711 
0.0208617 0.0989151 0.994877 -0.0468406 0.108275 0.993017 0.0405503 0.0746178 0.996387 
-0.00792886 -0.157677 0.987459 0.0161827 0.0328776 0.999328 0.0966902 -0.0299621 0.994863 
-0.120467 -0.0784637 0.989612 -0.000812514 0.0723116 0.997382 0.129009 0.0465544 0.99055 
0.0586959 0.0448976 0.997266 -0.0555973 -0.0329809 0.997908 -0.279898 -0.0852375 0.956238 
-0.497263 -0.105566 0.861153 0.307908 -0.0185187 0.951236 0.15051 0.00128191 0.988608 
0.0386673 0.0507487 0.997963 -0.0334275 0.0565526 0.99784 -0.0299347 0.058563 0.997835 
0.00166468 -0.0227116 0.999741 0.0167691 0.0224247 0.999608 -0.0316732 -0.147809 0.988509 
-0.0184993 -0.134151 0.990788 0.0683854 0.0145834 0.997552 0.101077 -0.0402636 0.994063 
-0.0301581 -0.0681054 0.997222 -0.192075 -0.134385 0.972136 -0.372304 -0.26061 0.89077 
0.426826 -0.283396 0.858782 0.210719 -0.200189 0.956829 0.0793218 -0.196212 0.977348 
-0.0384357 -0.149473 0.988019 -0.0346094 -0.181119 0.982852 -0.0457133 -0.227363 0.972736 
-0.113381 -0.333017 0.936079 -0.0804846 -0.446446 0.891184 0.0616467 -0.388203 0.91951 
0.0908036 -0.285152 0.954171 0.0341653 -0.276465 0.960416 -0.0522919 -0.328918 0.942909 
-0.246917 -0.398012 0.883526 -0.441267 -0.470151 0.764357 0.266634 -0.674087 0.688849 
0.0838487 -0.602513 0.793693 -0.0287826 -0.638833 0.768807 -0.115332 -0.662259 0.740345 
-0.160327 -0.739098 0.65424 0.040489 -0.656013 0.753663 -0.126093 -0.714221 0.688468 
0.0683568 0.525423 0.848091 0.0297248 0.631847 0.774523 -0.0649062 0.700907 0.710294 
0.26744 0.463017 0.845039 0.333765 0.747576 0.574222 0.140234 0.494028 0.858063 
0.193948 0.67557 0.711329 0.0616759 0.482472 0.873737 0.075438 0.552998 0.82976 
0.0661068 0.520398 0.851361 0.0344155 0.449864 0.892434 0.0357631 0.517592 0.85488 
-0.143662 0.673433 0.725154 -0.190867 0.634364 0.749101 -0.198765 0.703586 0.682246 
-0.215334 0.574772 0.789474 -0.270054 0.856918 0.439046 -0.235093 0.5807 0.779435 
0.315829 0.416052 0.852733 0.359154 0.328756 0.873458 0.442422 0.487502 0.752731 
-0.272542 0.581908 0.766227 -0.316007 0.565131 0.76208 -0.375737 0.684517 0.624706 
-0.425983 0.510109 0.747213 0.366133 0.305589 0.878955 0.465325 0.244618 0.850667 
0.545548 0.40434 0.734089 -0.443175 0.488399 0.751706 -0.685705 0.596918 0.41653 
0.480772 0.224573 0.8476 0.71334 0.329571 0.618489 -0.541463 0.329096 0.773637 
-0.55706 0.256408 0.789898 -0.611275 0.362326 0.703607 0.442876 0.148247 0.884242 
0.653247 0.23429 0.719984 -0.570259 0.140886 0.809293 0.492733 0.126183 0.860983 
0.627455 0.134048 0.767028 -0.601042 -0.131471 0.78833 -0.565787 -0.262287 0.781723 
-0.933539 -0.151751 0.324771 0.534121 -0.0936102 0.84021 0.612743 -0.127634 0.779907 
-0.557612 -0.33046 0.761488 -0.639108 -0.377905 0.669872 0.558308 -0.316839 0.76675 
0.733726 -0.431488 0.524847 0.469774 -0.471306 0.746447 -0.171209 -0.710669 0.682376 
-0.0735288 -0.665329 0.74292 0.109444 -0.630924 0.768086 0.175939 -0.695301 0.696852 
-0.29159 -0.651446 0.700424 -0.460382 -0.479803 0.746886 -0.449143 -0.491813 0.745916 
-0.697371 -0.650173 0.301579 0.327826 -0.683927 0.651748 0.480609 -0.76723 0.424704 
0.266477 -0.727607 0.632121 0.0875287 -0.723585 0.684663 -0.0557236 -0.783534 0.618846 
-0.120965 -0.762006 0.636172 -0.167148 -0.755899 0.632991 -0.163147 -0.760298 0.628753 
-0.1691 -0.823352 0.541754 -0.0523791 -0.881612 0.469059 0.13558 -0.860345 0.491349 
0.13239 -0.703822 0.697931 0.182582 -0.74237 0.644632 0.0400891 -0.689999 0.7227 
-0.160874 -0.724119 0.67065 -0.12919 -0.731237 0.669778 -0.316161 -0.811025 0.492221 
0.346052 0.830455 0.43657 0.224143 0.87878 0.421314 0.13191 0.912776 0.386573 
0.0443505 0.933725 0.355234 -0.0573374 0.947182 0.31553 -0.103102 0.972998 0.206505 
-0.123955 0.982902 0.136155 -0.19887 0.965341 0.16902 -0.266453 0.937272 0.224777 
0.410063 0.79113 0.45383 0.475649 0.737607 0.479264 0.469255 0.858799 0.205584 
-0.331628 0.912461 0.239661 -0.352948 0.90147 0.250557 -0.435117 0.856169 0.278653 
0.610366 0.593908 0.524143 0.630598 0.565923 0.53111 0.648849 0.620395 0.440574 
-0.519439 0.800189 0.299801 -0.535229 0.786713 0.307591 -0.527549 0.842444 -0.109454 
-0.683387 0.639409 0.352333 0.717068 0.423999 0.553207 0.737676 0.367279 0.566516 
0.839298 0.460487 0.289016 -0.71242 0.605317 0.355033 0.747243 0.34608 0.567324 
-0.854061 0.383019 0.351961 0.79847 0.216431 0.561786 -0.944601 0.088929 0.315944 
-0.942406 -0.101022 0.31885 -0.962125 0.095801 0.255219 0.870715 0.0801251 0.485216 
0.993255 0.0542328 0.102482 -0.935439 -0.151658 0.319301 -0.934879 -0.155891 0.318903 
0.905605 -0.145473 0.398392 0.973204 -0.224183 0.0511546 -0.852664 -0.392639 0.344671 
0.795963 -0.471954 0.379081 0.719062 -0.606503 0.339269 -0.511561 -0.817375 0.264957 
-0.698571 -0.650493 0.29809 -0.697385 -0.651955 0.297674 0.539196 -0.804641 0.248636 
0.473428 -0.848923 0.234938 0.226231 -0.958708 0.172333 0.0632247 -0.986022 0.154151 
-0.0889922 -0.985644 0.143481 -0.0963253 -0.982241 0.161008 -0.115181 -0.966175 0.230735 
-0.134056 -0.943241 0.30385 -0.0448315 -0.943166 0.329283 0.125522 -0.947571 0.293861 
0.17775 -0.957119 0.228754 0.0360848 -0.977806 0.206384 -0.152532 -0.967159 0.203317 
-0.451277 -0.858262 0.244409 -0.309591 -0.925294 0.219053 0.460767 0.882329 0.0958655 
0.313331 0.947849 0.0583563 0.200861 0.979574 0.00950101 0.0914316 0.994598 -0.0491514 
-0.00980412 0.994539 -0.103904 -0.148142 0.971777 -0.183583 -0.199154 0.936345 -0.289131 
-0.129895 0.931448 -0.339901 -0.128857 0.946974 -0.29434 -0.200743 0.955155 -0.217672 
0.493013 0.864051 0.101757 0.658882 0.737834 0.146543 0.428836 0.863899 -0.264155 
-0.0957837 0.813589 -0.573497 -0.0732047 0.848812 -0.523603 -0.281098 0.942808 -0.179158 
-0.171596 0.899519 -0.401771 -0.30057 0.938163 -0.171781 -0.429717 0.887521 -0.166283 
-0.520767 0.839113 -0.157134 0.729293 0.666633 0.154053 0.837972 0.520987 0.162404 
-0.522073 0.838277 -0.157265 -0.520688 0.837684 -0.164831 -0.691923 0.709703 -0.132529 
0.863887 0.475713 0.165519 -0.763682 0.63303 -0.126743 -0.679983 0.638544 -0.360394 
0.928495 0.350591 0.122406 -0.906228 0.412696 -0.0918336 -0.948537 0.305649 -0.0827985 
0.978771 0.186911 0.0840896 0.992975 0.0966904 0.068197 -0.988261 0.136835 -0.0679371 
-0.964126 0.131012 -0.230862 0.996663 0.0518999 0.0630053 0.999157 0.0409929 -0.00225399 
-0.985038 -0.161695 -0.0596159 -0.957118 -0.286075 -0.0456787 -0.942911 -0.13077 -0.306299 
0.971842 -0.235633 -0.000451089 0.965956 -0.258638 -0.00592009 0.968461 -0.242882 -0.0555948 
-0.907048 -0.418995 -0.0413134 0.831419 -0.55254 -0.0586617 0.660356 -0.746009 -0.0860309 
-0.471562 -0.873559 -0.120517 -0.707166 -0.699733 -0.101442 -0.684362 -0.721192 -0.107381 
-0.675158 -0.711599 -0.194395 0.492006 -0.859994 -0.135428 0.410535 -0.896733 -0.165323 
0.39598 -0.839001 -0.373197 0.216461 -0.959507 -0.180252 0.0615021 -0.981334 -0.182212 
-0.0645058 -0.986763 -0.148789 -0.0382363 -0.994607 -0.0964107 -0.0363686 -0.998903 -0.0294871 
-0.0989899 -0.995076 0.00507087 -0.0748369 -0.997136 0.0109286 0.0626903 -0.997536 -0.0315008 
0.127137 -0.987494 -0.0932305 0.0143478 -0.989611 -0.143051 -0.139684 -0.980501 -0.138225 
-0.442663 -0.887787 -0.126026 -0.298426 -0.940489 -0.162548 -0.294201 -0.872335 -0.390484 
0.258399 0.916403 -0.305673 0.113693 0.920186 -0.374609 0.00272632 0.896226 -0.44359 
-0.109087 0.846031 -0.521853 -0.230258 0.771057 -0.593677 -0.208494 0.753194 -0.623882 
0.635866 0.727046 -0.258995 0.428337 0.863583 -0.265991 0.428545 0.863487 -0.26597 
0.20755 0.783376 -0.585872 0.0293976 0.714783 -0.698728 -0.0618905 0.6755 -0.734758 
-0.154145 0.648932 -0.745069 -0.232438 0.677325 -0.698 -0.18211 0.757757 -0.626611 
-0.207004 0.746319 -0.63258 -0.0825262 0.769874 -0.632838 -0.0578077 0.781714 -0.620951 
-0.143384 0.765435 -0.627335 -0.248444 0.764158 -0.595263 -0.352817 0.753274 -0.555066 
0.701032 0.663498 -0.26139 0.835797 0.46662 -0.289326 0.618236 0.625441 -0.476034 
-0.0931404 0.575382 -0.812564 -0.08243 0.626346 -0.775175 -0.0870215 0.567248 -0.818937 
-0.113441 0.569077 -0.814421 -0.210092 0.661006 -0.720369 -0.366525 0.748844 -0.55217 
-0.349 0.74084 -0.573894 -0.473588 0.706098 -0.526441 0.848569 0.443871 -0.28794 
0.83362 0.442891 -0.330039 -0.222311 0.517463 -0.826323 -0.569014 0.617267 -0.543327 
-0.411095 0.586484 -0.697881 -0.628604 0.5512 -0.548667 0.902266 0.318873 -0.290233 
0.673416 0.278765 -0.684691 -0.727947 0.430956 -0.533264 -0.60685 0.433153 -0.666417 
0.948426 0.14774 -0.280464 -0.876728 0.131334 -0.462709 -0.5758 0.191534 -0.794839 
0.937107 -0.0298325 -0.347766 -0.88237 -0.116846 -0.455817 -0.575133 -0.113254 -0.810182 
0.854997 -0.283858 -0.434056 0.591813 -0.324297 -0.737963 -0.789826 -0.411519 -0.454783 
-0.659074 -0.605623 -0.445918 -0.658421 -0.402887 -0.635739 0.680954 -0.5526 -0.480557 
0.63108 -0.603968 -0.486786 0.640266 -0.553951 -0.532163 0.393096 -0.778943 -0.488593 
0.394161 -0.51678 -0.759984 -0.2949 -0.858567 -0.419401 -0.585105 -0.683506 -0.43643 
-0.475122 -0.756101 -0.450078 -0.452111 -0.616376 -0.644729 0.320497 -0.838923 -0.439874 
0.224403 -0.89561 -0.384091 0.240801 -0.838543 -0.488734 0.0960832 -0.896427 -0.432651 
0.082751 -0.796663 -0.598733 0.00360176 -0.930976 -0.365062 0.0506298 -0.811273 -0.582471 
0.018104 -0.950678 -0.30965 0.0295843 -0.791479 -0.610479 -0.0133225 -0.953467 -0.301204 
-0.0158017 -0.784278 -0.620208 -0.0913031 -0.949928 -0.298832 -0.058947 -0.83115 -0.552915 
-0.0820367 -0.958573 -0.272777 -0.0621929 -0.899748 -0.431956 0.0168909 -0.95919 -0.282258 
-0.000542237 -0.906693 -0.421791 0.057462 -0.936605 -0.345643 0.00868191 -0.854686 -0.519073 
-0.00428699 -0.907172 -0.420738 -0.0319336 -0.815995 -0.577176 -0.279408 -0.865423 -0.415902 
-0.159227 -0.902234 -0.400776 -0.160135 -0.818424 -0.551851 0.359056 0.599747 -0.71511 
0.181489 0.667515 -0.722139 0.0144243 0.647339 -0.762065 -0.0823357 0.587655 -0.804911 
-0.160476 0.493267 -0.854947 -0.163093 0.453255 -0.876333 0.429652 0.542139 -0.722138 
0.540367 0.381349 -0.750051 0.337235 0.509626 -0.791551 0.122342 0.375998 -0.918509 
-0.0255139 0.360406 -0.932447 -0.118884 0.343755 -0.931504 -0.156534 0.349845 -0.923637 
-0.107833 0.529212 -0.841609 -0.144823 0.414304 -0.898542 -0.0841415 0.558966 -0.824911 
-0.0935975 0.574256 -0.813308 -0.115027 0.421779 -0.899373 -0.0696274 0.414261 -0.907491 
-0.13144 0.450749 -0.882921 0.570559 0.329316 -0.752338 0.507766 0.309138 -0.804119 
0.221859 0.1867 -0.957038 0.0814754 0.1058 -0.991044 -0.0146266 0.0641243 -0.997835 
-0.0984068 0.09031 -0.99104 -0.108888 0.254769 -0.960852 -0.00784813 0.267519 -0.963521 
0.0155224 0.35045 -0.936453 -0.155838 0.361137 -0.919399 -0.134192 0.283225 -0.949619 
-0.0552862 0.354674 -0.933354 -0.16237 0.457044 -0.874498 -0.115766 0.407366 -0.905898 
-0.196228 0.470529 -0.860289 -0.367333 0.403601 -0.837957 0.560528 0.240449 -0.79246 
0.560166 0.137617 -0.816869 0.388466 0.183638 -0.902979 0.118975 0.0814898 -0.989548 
-0.0262481 0.0119474 -0.999584 -0.0442688 -0.0664614 -0.996807 0.0818722 -0.0729141 -0.993972 
0.0299058 0.26866 -0.962771 -0.0331395 0.212788 -0.976536 0.0189523 0.106129 -0.994172 
-0.182642 0.175465 -0.967396 -0.126014 0.16412 -0.978358 0.0425047 0.230969 -0.972032 
-0.0298069 0.294462 -0.955198 -0.157933 0.338916 -0.927466 -0.420516 0.359658 -0.832954 
-0.353549 0.346885 -0.86872 0.562358 0.0889023 -0.822101 0.53357 0.0832614 -0.841648 
0.313181 0.0411653 -0.948801 0.0603067 0.00826533 -0.998146 -0.060862 0.00471909 -0.998135 
-0.100372 0.0185332 -0.994777 0.1935 -0.0280807 -0.980698 -0.177303 0.0979002 -0.979275 
-0.0200076 0.0622033 -0.997863 -0.107428 0.0256867 -0.993881 -0.0837597 0.110142 -0.99038 
0.0698115 0.136984 -0.98811 0.00226375 0.133665 -0.991024 -0.126991 0.169969 -0.977233 
-0.514401 0.182571 -0.83789 -0.317803 0.169258 -0.932927 0.547835 -0.104998 -0.829971 
0.533327 -0.146794 -0.833075 0.527365 -0.102279 -0.84346 0.314974 -0.0911836 -0.94471 
0.0803788 -0.063524 -0.994738 -0.0158333 -0.016389 -0.99974 -0.0749517 0.0329164 -0.996644 
0.0967207 0.0798615 -0.992102 0.153169 -0.206314 -0.966423 -0.0149557 -0.0231776 -0.999619 
-0.0445126 0.110508 -0.992878 -0.128579 -0.0366606 -0.991021 -0.0228809 0.0460202 -0.998678 
0.073862 0.033217 -0.996715 0.00635459 0.0167023 -0.99984 -0.120186 -0.0317782 -0.992243 
-0.570398 -0.112264 -0.81366 -0.322014 -0.0768056 -0.943614 0.484907 -0.297012 -0.822587 
0.3891 -0.487 -0.781941 0.329891 -0.261286 -0.907139 0.142491 -0.17897 -0.973481 
0.0341235 -0.119373 -0.992263 -0.00592164 -0.0821662 -0.996601 0.0150842 -0.0343296 -0.999297 
0.0797311 -0.185616 -0.979382 0.137536 -0.109604 -0.984414 -0.0379394 -0.0678825 -0.996972 
-0.168598 -0.0970584 -0.980895 -0.0238327 -0.0811353 -0.996418 0.0384155 -0.159958 -0.986376 
-0.0613569 -0.186455 -0.980546 -0.213312 -0.256895 -0.942604 -0.496756 -0.347061 -0.795476 
-0.409903 -0.44345 -0.797077 -0.392458 -0.342372 -0.853673 0.373229 -0.503113 -0.779472 
0.242325 -0.590828 -0.769546 0.228546 -0.428786 -0.874019 0.0892741 -0.655585 -0.749826 
0.0939923 -0.403313 -0.910222 0.0580677 -0.68732 -0.72403 0.0170269 -0.354491 -0.934904 
0.0262495 -0.692183 -0.721244 -0.00437185 -0.329436 -0.944168 -0.0067764 -0.688335 -0.725362 
0.0531788 -0.341315 -0.938444 -0.0288188 -0.739861 -0.672142 0.0910711 -0.40352 -0.910427 
-0.0436044 -0.798953 -0.599811 -0.0295398 -0.476961 -0.878428 -0.0458799 -0.755178 -0.653912 
-0.115576 -0.406908 -0.906128 -0.0445304 -0.669 -0.741927 -0.0837856 -0.38671 -0.918387 
-0.0556853 -0.632496 -0.772559 -0.0429959 -0.437223 -0.898325 -0.140096 -0.619193 -0.77264 
-0.110329 -0.493037 -0.862984 -0.311732 -0.556758 -0.769963 -0.277846 -0.590361 -0.75781 
-0.274667 -0.536176 -0.798169 0.143447 0.153895 -0.977619 0.233595 0.0332741 -0.971765 
0.0016413 0.0749605 -0.997185 0.183751 -0.111253 -0.976657 0.210529 0.0481114 -0.976403 

