# vtk DataFile Version 4.2
vtk output
ASCII
DATASET POLYDATA
POINTS 568 float
-46.3397 -26.2745 -16.1238 -38.2029 -26.2745 -17.6127 -30.0661 -26.2745 -17.6499 
-21.9293 -26.2745 -17.7574 -13.7925 -26.2745 -17.1663 -5.65575 -26.2745 -16.0895 
18.7546 -26.2745 -15.9508 26.8914 -26.2745 -16.4434 -54.4765 -18.1377 -16.3798 
-46.3397 -18.1377 -18.9078 -38.2029 -18.1377 -19.8015 -30.0661 -18.1377 -19.5734 
-21.9293 -18.1377 -19.8355 -13.7925 -18.1377 -19.1456 -5.65575 -18.1377 -18.812 
2.48104 -18.1377 -18.3689 10.6178 -18.1377 -18.409 18.7546 -18.1377 -18.407 
26.8914 -18.1377 -18.3192 35.0282 -18.1377 -17.738 43.165 -18.1377 -16.236 
-54.4765 -10.001 -18.2225 -46.3397 -10.001 -20.5342 -38.2029 -10.001 -21.2303 
-30.0661 -10.001 -20.4074 -21.9293 -10.001 -19.6574 -13.7925 -10.001 -20.3404 
-5.65575 -10.001 -21.5115 2.48104 -10.001 -20.2768 10.6178 -10.001 -20.334 
18.7546 -10.001 -19.239 26.8914 -10.001 -19.6475 35.0282 -10.001 -19.5662 
43.165 -10.001 -18.2715 51.3018 -10.001 -16.2804 -54.4765 -1.86417 -19.2359 
-46.3397 -1.86417 -20.8791 -38.2029 -1.86417 -21.2107 -30.0661 -1.86417 -20.6688 
-21.9293 -1.86417 -19.182 -13.7925 -1.86417 -21.389 -5.65575 -1.86417 -22.6222 
2.48104 -1.86417 -20.7849 10.6178 -1.86417 -23.5766 18.7546 -1.86417 -20.7613 
26.8914 -1.86417 -20.227 35.0282 -1.86417 -20.1069 43.165 -1.86417 -19.3059 
51.3018 -1.86417 -17.2215 -54.4765 6.27262 -19.2925 -46.3397 6.27262 -21.1337 
-38.2029 6.27262 -21.6502 -30.0661 6.27262 -21.0792 -21.9293 6.27262 -20.143 
-13.7925 6.27262 -20.8585 -5.65575 6.27262 -21.2479 2.48104 6.27262 -20.1682 
10.6178 6.27262 -22.7862 18.7546 6.27262 -21.1643 26.8914 6.27262 -20.648 
35.0282 6.27262 -20.4877 43.165 6.27262 -19.7116 51.3018 6.27262 -17.977 
-54.4765 14.4094 -18.7302 -46.3397 14.4094 -20.6869 -38.2029 14.4094 -21.8991 
-30.0661 14.4094 -21.5144 -21.9293 14.4094 -20.5601 -13.7925 14.4094 -19.5445 
-5.65575 14.4094 -18.5068 2.48104 14.4094 -18.3454 10.6178 14.4094 -19.6865 
18.7546 14.4094 -20.2715 26.8914 14.4094 -20.8929 35.0282 14.4094 -20.9723 
43.165 14.4094 -19.7914 51.3018 14.4094 -17.092 -46.3397 22.5462 -18.348 
-38.2029 22.5462 -19.6844 -30.0661 22.5462 -20.6672 -21.9293 22.5462 -19.7093 
-13.7925 22.5462 -18.8114 -5.65575 22.5462 -18.4163 2.48104 22.5462 -18.5595 
10.6178 22.5462 -19.2807 18.7546 22.5462 -20.1243 26.8914 22.5462 -20.1311 
35.0282 22.5462 -19.8065 43.165 22.5462 -18.4204 51.3018 22.5462 -16.0877 
-38.2029 30.683 -16.457 -30.0661 30.683 -17.2741 -21.9293 30.683 -17.1139 
-13.7925 30.683 -17.2332 -5.65575 30.683 -17.3399 2.48104 30.683 -17.5089 
10.6178 30.683 -17.9701 18.7546 30.683 -18.749 26.8914 30.683 -18.3246 
35.0282 30.683 -18.2979 43.165 30.683 -16.0898 -46.3397 -26.6176 -15.8958 
-38.2029 -28.7485 -15.8958 -38.2029 -34.4113 -9.70815 -30.0661 -29.1892 -15.8958 
-30.0661 -34.4113 -10.5202 -21.9293 -29.1144 -15.8958 -21.9293 -34.4113 -9.97299 
-13.7925 -28.2856 -15.8958 -13.7925 -34.4113 -9.72157 -5.65575 -26.6008 -15.8958 
-5.65575 -34.4113 -8.85789 2.48104 -34.4113 -7.78402 10.6178 -34.4113 -8.42228 
18.7546 -26.3687 -15.8958 18.7546 -34.4113 -10.0869 26.8914 -27.2715 -15.8958 
26.8914 -34.4113 -10.7634 35.0282 -34.4113 -9.83019 -46.8469 -26.2745 -15.8958 
-54.4765 -19.1365 -15.8958 -54.4765 -26.2745 -10.5858 -3.83134 -26.2745 -15.8958 
2.48104 -24.5926 -15.8958 2.48104 -26.2745 -15.1489 17.9799 -26.2745 -15.8958 
10.6178 -24.9337 -15.8958 10.6178 -26.2745 -15.3165 30.6505 -26.2745 -15.8958 
35.0282 -24.1702 -15.8958 35.0282 -26.2745 -15.2195 43.165 -19.2034 -15.8958 
43.165 -26.2745 -13.4685 51.3018 -26.2745 -8.47582 -55.8465 -18.1377 -15.8958 
-62.6133 -18.1377 -10.2595 44.222 -18.1377 -15.8958 51.3018 -11.2549 -15.8958 
51.3018 -18.1377 -13.4687 -59.0899 -10.001 -15.8958 -62.6133 -10.001 -13.6663 
52.0944 -10.001 -15.8958 59.4386 -10.001 -11.3808 -61.7167 -1.86417 -15.8958 
-62.6133 -1.86417 -15.4209 54.4134 -1.86417 -15.8958 59.4386 -1.86417 -13.6214 
-61.2016 6.27262 -15.8958 -62.6133 6.27262 -15.0205 56.6818 6.27262 -15.8958 
59.4386 6.27262 -14.7521 -59.2192 14.4094 -15.8958 -62.6133 14.4094 -12.7717 
-54.4765 21.4633 -15.8958 54.0184 14.4094 -15.8958 59.4386 14.4094 -13.3047 
-53.0676 22.5462 -15.8958 -54.4765 22.5462 -15.1495 -46.3397 26.6822 -15.8958 
51.6522 22.5462 -15.8958 51.3018 23.047 -15.8958 59.4386 22.5462 -10.5243 
-39.8205 30.683 -15.8958 -46.3397 30.683 -12.3748 -38.2029 31.3149 -15.8958 
-30.0661 32.5973 -15.8958 -21.9293 32.8604 -15.8958 -13.7925 33.0232 -15.8958 
-5.65575 33.2205 -15.8958 2.48104 33.2797 -15.8958 10.6178 34.0817 -15.8958 
18.7546 35.1275 -15.8958 26.8914 35.2738 -15.8958 35.0282 33.9534 -15.8958 
43.6592 30.683 -15.8958 43.165 30.9705 -15.8958 51.3018 30.683 -11.5296 
-21.9293 38.8198 -8.94452 -13.7925 38.8198 -9.28432 -5.65575 38.8198 -7.97122 
10.6178 38.8198 -8.46143 18.7546 38.8198 -10.2824 26.8914 38.8198 -11.6693 
35.0282 38.8198 -10.034 -38.2029 -35.605 -7.75896 -30.0661 -35.9697 -7.75896 
-21.9293 -35.598 -7.75896 -13.7925 -35.6453 -7.75896 -5.65575 -35.1628 -7.75896 
2.48104 -34.4309 -7.75896 10.6178 -34.9805 -7.75896 18.7546 -36.6275 -7.75896 
26.8914 -37.4034 -7.75896 35.0282 -36.3987 -7.75896 -54.4765 -28.6383 -7.75896 
-42.0183 -34.4113 -7.75896 -46.3397 -32.9394 -7.75896 -46.3397 -34.4113 0.198979 
40.7449 -34.4113 -7.75896 43.165 -33.4315 -7.75896 43.165 -34.4113 -6.53101 
51.3018 -27.3355 -7.75896 -57.1732 -26.2745 -7.75896 -62.6133 -19.9449 -7.75896 
52.3332 -26.2745 -7.75896 -64.1229 -18.1377 -7.75896 59.1352 -18.1377 -7.75896 
59.4386 -17.6248 -7.75896 59.4386 -18.1377 -7.38984 -68.4252 -10.001 -7.75896 
64.0203 -10.001 -7.75896 67.5754 -10.001 -1.667 -69.8792 -1.86417 -7.75896 
-70.7501 -1.86417 -5.09992 66.1568 -1.86417 -7.75896 67.5754 -1.86417 -5.47461 
-69.5754 6.27262 -7.75896 -70.7501 6.27262 -2.92304 67.3109 6.27262 -7.75896 
67.5754 6.27262 -7.3247 -67.4053 14.4094 -7.75896 -62.6133 20.2504 -7.75896 
65.6646 14.4094 -7.75896 67.5754 14.4094 -5.02399 -60.7508 22.5462 -7.75896 
-62.6133 22.5462 -1.27246 -54.4765 28.2475 -7.75896 63.6963 22.5462 -7.75896 
59.4386 26.1286 -7.75896 -51.1299 30.683 -7.75896 -46.3397 33.4634 -7.75896 
-38.2029 36.2839 -7.75896 -30.0661 38.1546 -7.75896 2.48104 38.5374 -7.75896 
43.165 38.1077 -7.75896 55.1681 30.683 -7.75896 51.3018 33.8451 -7.75896 
59.4386 30.683 0.140286 -25.5713 38.8198 -7.75896 -21.9293 39.3296 -7.75896 
-13.7925 39.5762 -7.75896 -3.71351 38.8198 -7.75896 -5.65575 38.9129 -7.75896 
-5.65575 38.8198 -6.94452 6.57479 38.8198 -7.75896 10.6178 39.0937 -7.75896 
10.6178 38.8198 -6.3612 18.7546 39.7431 -7.75896 18.7546 38.8198 -0.102587 
26.8914 40.439 -7.75896 40.4678 38.8198 -7.75896 35.0282 39.9649 -7.75896 
-46.3397 -34.4397 0.377826 -38.2029 -36.4244 0.377826 -30.0661 -36.876 0.377826 
-21.9293 -36.7553 0.377826 -13.7925 -37.3618 0.377826 -5.65575 -38.0573 0.377826 
2.48104 -38.742 0.377826 10.6178 -39.7848 0.377826 18.7546 -40.8686 0.377826 
26.8914 -41.8922 0.377826 35.0282 -41.8381 0.377826 43.165 -38.6964 0.377826 
-46.4013 -34.4113 0.377826 -54.4765 -30.0379 0.377826 -46.3397 -34.4113 0.451834 
-38.2029 -34.4113 5.71167 -30.0661 -34.4113 7.82837 50.3781 -34.4113 0.377826 
51.3018 -33.6987 0.377826 -59.7188 -26.2745 0.377826 -62.6133 -23.3942 0.377826 
58.5399 -26.2745 0.377826 59.4386 -25.182 0.377826 -66.5001 -18.1377 0.377826 
64.2095 -18.1377 0.377826 67.5754 -11.6839 0.377826 -70.4192 -10.001 0.377826 
-70.7501 -8.57795 0.377826 68.3804 -10.001 0.377826 67.5754 -10.001 5.78245 
-72.311 -1.86417 0.377826 -70.7501 -1.86417 6.48859 70.7296 -1.86417 0.377826 
-71.3888 6.27262 0.377826 -70.7501 9.36819 0.377826 -70.7501 6.27262 3.3392 
71.7865 6.27262 0.377826 -69.4251 14.4094 0.377826 70.6376 14.4094 0.377826 
67.5754 22.0635 0.377826 -63.0207 22.5462 0.377826 -62.6133 23.0143 0.377826 
-62.6133 22.5462 1.77952 -54.4765 29.3423 0.377826 67.3197 22.5462 0.377826 
-52.11 30.683 0.377826 -46.3397 33.7143 0.377826 -38.2029 36.5824 0.377826 
-30.0661 38.1587 0.377826 -5.65575 37.9255 0.377826 2.48104 36.8273 0.377826 
10.6178 37.3518 0.377826 18.7546 38.753 0.377826 43.165 38.6366 0.377826 
51.3018 35.1774 0.377826 59.5536 30.683 0.377826 59.4386 30.7853 0.377826 
59.4386 30.683 0.617625 -24.6946 38.8198 0.377826 -21.9293 39.1501 0.377826 
-21.9293 38.8198 1.09368 -11.5381 38.8198 0.377826 -13.7925 39.1204 0.377826 
-13.7925 38.8198 1.0243 19.6425 38.8198 0.377826 26.8914 39.3311 0.377826 
26.8914 38.8198 1.33645 41.5888 38.8198 0.377826 35.0282 39.6305 0.377826 
35.0282 38.8198 1.85406 -21.9293 -35.3903 8.51462 -13.7925 -36.2505 8.51462 
-5.65575 -37.9596 8.51462 2.48104 -39.2919 8.51462 10.6178 -40.5811 8.51462 
18.7546 -41.5889 8.51462 26.8914 -42.3761 8.51462 35.0282 -41.9892 8.51462 
43.165 -38.8407 8.51462 -54.4765 -26.6756 8.51462 -46.3397 -30.9575 8.51462 
-38.2029 -33.0964 8.51462 -28.5783 -34.4113 8.51462 -30.0661 -34.1345 8.51462 
-21.9293 -34.4113 10.0005 -13.7925 -34.4113 11.5583 -5.65575 -34.4113 14.5862 
2.48104 -34.4113 15.3795 49.5943 -34.4113 8.51462 43.165 -34.4113 14.9891 
51.3018 -32.8311 8.51462 -55.1101 -26.2745 8.51462 -62.6133 -19.313 8.51462 
-54.4765 -26.2745 9.01126 -46.3397 -26.2745 13.7976 -38.2029 -26.2745 15.3698 
-30.0661 -26.2745 16.3229 57.1621 -26.2745 8.51462 51.3018 -26.2745 14.8462 
59.4386 -23.4033 8.51462 -63.5984 -18.1377 8.51462 -62.6133 -18.1377 9.52887 
-54.4765 -18.1377 16.6288 63.2419 -18.1377 8.51462 59.4386 -18.1377 12.7867 
-68.3943 -10.001 8.51462 -62.6133 -10.001 15.7554 67.1188 -10.001 8.51462 
59.4386 -10.001 16.5083 67.5754 -8.59936 8.51462 -70.1881 -1.86417 8.51462 
-13.7925 -1.86417 16.4641 2.48104 -1.86417 15.8263 69.6621 -1.86417 8.51462 
67.5754 -1.86417 11.1339 -69.5315 6.27262 8.51462 -13.7925 6.27262 16.1637 
2.48104 6.27262 16.6159 70.8435 6.27262 8.51462 67.5754 6.27262 12.0715 
-66.9314 14.4094 8.51462 -62.6133 19.7281 8.51462 -62.6133 14.4094 13.356 
-13.7925 14.4094 16.1372 -5.65575 14.4094 14.7581 2.48104 14.4094 15.4567 
59.4386 14.4094 16.573 68.3791 14.4094 8.51462 67.5754 16.9385 8.51462 
[...]
POINT_DATA 568
SCALARS ImageScalars float
LOOKUP_TABLE default
0 0 0 0 0 0 0 0 0 
0 0 0 0 0 0 0 0 0 
0 0 0 0 0 0 0 0 0 
0 0 0 0 0 0 0 0 0 
0 0 0 0 0 0 0 0 0 
0 0 0 0 0 0 0 0 0 
0 0 0 0 0 0 0 0 0 
0 0 0 0 0 0 0 0 0 
0 0 0 0 0 0 0 0 0 
0 0 0 0 0 0 0 0 0 
0 0 0 0 0 0 0 0 0 
0 0 0 0 0 0 0 0 0 
0 0 0 0 0 0 0 0 0 
0 0 0 0 0 0 0 0 0 
0 0 0 0 0 0 0 0 0 
0 0 0 0 0 0 0 0 0 
0 0 0 0 0 0 0 0 0 
0 0 0 0 0 0 0 0 0 
0 0 0 0 0 0 0 0 0 
0 0 0 0 0 0 0 0 0 
0 0 0 0 0 0 0 0 0 
0 0 0 0 0 0 0 0 0 
0 0 0 0 0 0 0 0 0 
0 0 0 0 0 0 0 0 0 
0 0 0 0 0 0 0 0 0 
0 0 0 0 0 0 0 0 0 
0 0 0 0 0 0 0 0 0 
0 0 0 0 0 0 0 0 0 
0 0 0 0 0 0 0 0 0 
0 0 0 0 0 0 0 0 0 
0 0 0 0 0 0 0 0 0 
0 0 0 0 0 0 0 0 0 
0 0 0 0 0 0 0 0 0 
0 0 0 0 0 0 0 0 0 
0 0 0 0 0 0 0 0 0 
0 0 0 0 0 0 0 0 0 
0 0 0 0 0 0 0 0 0 
0 0 0 0 0 0 0 0 0 
0 0 0 0 0 0 0 0 0 
0 0 0 0 0 0 0 0 0 
0 0 0 0 0 0 0 0 0 
0 0 0 0 0 0 0 0 0 
0 0 0 0 0 0 0 0 0 
0 0 0 0 0 0 0 0 0 
0 0 0 0 0 0 0 0 0 
0 0 0 0 0 0 0 0 0 
0 0 0 0 0 0 0 0 0 
0 0 0 0 0 0 0 0 0 
0 0 0 0 0 0 0 0 0 
0 0 0 0 0 0 0 0 0 
0 0 0 0 0 0 0 0 0 
0 0 0 0 0 0 0 0 0 
0 0 0 0 0 0 0 0 0 
0 0 0 0 0 0 0 0 0 
0 0 0 0 0 0 0 0 0 
0 0 0 0 0 0 0 0 0 
0 0 0 0 0 0 0 0 0 
0 0 0 0 0 0 0 0 0 
0 0 0 0 0 0 0 0 0 
0 0 0 0 0 0 0 0 0 
0 0 0 0 0 0 0 0 0 
0 0 0 0 0 0 0 0 0 
0 0 0 0 0 0 0 0 0 
0 
NORMALS Normals float
0.296859 0.480737 0.825086 0.0938384 0.442453 0.891868 0.00797849 0.389903 0.920822 
-0.0295718 0.413677 0.909943 -0.0940816 0.416937 0.904053 -0.112103 0.436075 0.892901 
0.0626092 0.420342 0.905203 -0.0405797 0.379217 0.924417 0.313658 0.329397 0.890571 
0.201389 0.273661 0.940506 0.0363017 0.203095 0.978486 0.00220231 0.154998 0.987912 
-0.0276263 0.101602 0.994441 -0.0602077 0.182148 0.981426 -0.0463966 0.305278 0.951132 
-0.0238209 0.290114 0.956696 0.00225996 0.280101 0.959968 -0.00535418 0.188529 0.982053 
-0.0391525 0.19062 0.980883 -0.116018 0.242784 0.963118 -0.234127 0.274023 0.932789 
0.358065 0.163139 0.919334 0.16589 0.108041 0.980208 -0.00457499 0.0841233 0.996445 
-0.0949546 0.0649823 0.993358 -0.00690526 -0.0397624 0.999185 0.115875 0.129622 0.98477 
-0.0077753 0.22534 0.974249 -0.0674977 0.14234 0.987514 -0.0633941 0.303496 0.950722 
-0.0386339 0.13703 0.989813 0.0199496 0.11525 0.993136 -0.0847424 0.140217 0.986488 
-0.195045 0.17431 0.965181 -0.360198 0.202183 0.910703 0.283746 0.0617331 0.95691 
0.111439 0.0377849 0.993053 -0.0106382 0.0269292 0.999581 -0.129213 0.0427987 0.990693 
0.0169461 0.03039 0.999394 0.232418 0.0349028 0.97199 -0.0506449 -0.0112895 0.998653 
0.0715206 -0.00339039 0.997433 -0.00662807 0.151939 0.988368 -0.202136 0.120542 0.971911 
-0.0380558 0.0612814 0.997395 -0.0558841 0.0556324 0.996886 -0.168776 0.0878851 0.981729 
-0.317755 0.0990623 0.942984 0.314774 -0.0320007 0.948627 0.133537 -0.0132183 0.990956 
-0.0037688 0.0417734 0.99912 -0.0954908 0.0508386 0.994131 -0.0172241 0.0856498 0.996176 
0.0692638 -0.110436 0.991467 -0.040333 -0.257529 0.965428 0.0881203 -0.15817 0.983472 
0.0506612 -0.247041 0.96768 -0.122206 -0.0326833 0.991966 -0.0403675 0.0407579 0.998353 
-0.0568563 0.0521695 0.997018 -0.145235 0.0294277 0.988959 -0.273575 -0.00709117 0.961824 
0.380907 -0.214332 0.899428 0.187445 -0.144629 0.971569 0.0559615 -0.115262 0.991758 
-0.0822977 -0.0207548 0.996392 -0.118932 -0.0242748 0.992606 -0.12445 -0.118233 0.985156 
-0.0733092 -0.153862 0.985369 0.0707471 -0.0876036 0.99364 0.120182 -0.192845 0.973841 
0.0729747 -0.062469 0.995375 0.0427363 -0.0313631 0.998594 -0.0731842 -0.0385932 0.996571 
-0.216939 -0.0695671 0.973703 -0.370221 -0.108969 0.92253 0.251344 -0.423076 0.870536 
0.123377 -0.305723 0.944093 0.000608187 -0.251391 0.967886 -0.108942 -0.193621 0.975009 
-0.0758822 -0.137617 0.987574 -0.015196 -0.0728155 0.99723 0.0526023 -0.0530223 0.997207 
0.0990101 -0.105266 0.989503 0.0498726 -0.0798736 0.995557 -0.0182886 -0.145246 0.989227 
-0.0986775 -0.143212 0.98476 -0.219047 -0.225094 0.949395 -0.407091 -0.24812 0.879041 
0.209268 -0.604118 0.768927 0.0362812 -0.52328 0.851388 -0.00227827 -0.409122 0.912477 
0.013104 -0.363921 0.931338 0.0169942 -0.337132 0.941304 0.04017 -0.368006 0.928955 
0.0719182 -0.365831 0.927898 0.0249279 -0.374821 0.926762 -0.0247252 -0.343495 0.938829 
-0.141804 -0.411191 0.900452 -0.298013 -0.462402 0.835088 0.300099 0.496684 0.814399 
0.104617 0.552569 0.826875 0.167845 0.882502 0.439338 0.0145344 0.533677 0.845564 
0.0111734 0.886555 0.462488 -0.0355796 0.536278 0.843291 -0.0286134 0.89795 0.439167 
-0.0882168 0.506017 0.858 -0.0418237 0.867284 0.496053 -0.112527 0.448239 0.886803 
-0.0777593 0.847121 0.52568 -0.0132028 0.810735 0.585264 0.103525 0.766064 0.634372 
0.0631428 0.423327 0.903774 0.106368 0.716138 0.689805 -0.0384677 0.411325 0.910677 
-0.0127511 0.683785 0.729572 -0.178958 0.687322 0.703962 0.310251 0.489055 0.815211 
0.332668 0.364519 0.869746 0.545063 0.66824 0.506321 -0.0966314 0.447473 0.889061 
-0.0373463 0.442976 0.895755 -0.0422181 0.494792 0.867985 0.060832 0.426306 0.902531 
0.035566 0.445931 0.89436 0.0432125 0.486599 0.872556 -0.0964508 0.388036 0.916583 
-0.149819 0.354439 0.922999 -0.159842 0.403256 0.901019 -0.245093 0.293422 0.924031 
-0.32269 0.448391 0.833556 -0.527115 0.522138 0.670464 0.357991 0.341132 0.869179 
0.727044 0.482861 0.488111 -0.252352 0.288411 0.923654 -0.363808 0.232209 0.902066 
-0.404185 0.389717 0.827499 0.499732 0.140298 0.854742 0.633303 0.184732 0.751533 
-0.380732 0.20593 0.901463 -0.572467 0.287422 0.7679 0.505052 0.0651661 0.860625 
0.544285 0.0663157 0.836275 -0.376876 0.117481 0.918783 -0.503429 0.16687 0.84777 
0.539937 -0.092621 0.836594 0.601632 -0.119053 0.789851 -0.402246 -0.0116954 0.915457 
-0.487848 -0.0155181 0.87279 0.567082 -0.237565 0.788658 0.692428 -0.328412 0.642409 
0.41398 -0.496382 0.763037 -0.410958 -0.135696 0.901499 -0.51994 -0.213961 0.826972 
0.382829 -0.523021 0.761506 0.428884 -0.551434 0.715527 0.324659 -0.549852 0.769584 
-0.41242 -0.253253 0.875084 -0.41335 -0.267209 0.870483 -0.529087 -0.439712 0.725755 
0.249913 -0.619115 0.744473 0.411182 -0.738441 0.534448 0.217907 -0.630723 0.744785 
0.0721649 -0.603891 0.793793 0.0179191 -0.513723 0.857769 0.0123683 -0.479028 0.877712 
0.00957434 -0.481837 0.876208 0.03466 -0.52929 0.847733 0.07206 -0.56921 0.819028 
0.0484983 -0.616002 0.78625 -0.046143 -0.600722 0.798125 -0.173795 -0.577064 0.797993 
-0.308865 -0.468692 0.827605 -0.300029 -0.473816 0.827938 -0.523653 -0.610865 0.593828 
0.0843905 -0.959278 0.269564 -0.0253522 -0.948782 0.314913 -0.0629229 -0.984155 0.165772 
0.0763486 -0.986945 0.141813 0.0827323 -0.955312 0.283785 -0.0188246 -0.920668 0.389892 
-0.163619 -0.917664 0.362108 0.172973 0.925579 0.336726 -0.00147598 0.947138 0.320822 
-0.0192107 0.948851 0.315139 -0.0244397 0.915338 0.401944 -0.0678595 0.87359 0.481908 
-0.0129682 0.811268 0.58453 0.109141 0.78001 0.616176 0.123081 0.777551 0.616656 
-0.0116283 0.781328 0.624012 -0.174057 0.746973 0.641666 0.548207 0.750152 0.369786 
0.25438 0.9078 0.333451 0.348339 0.871537 0.345083 0.334472 0.937245 -0.0984915 
-0.279596 0.705825 0.650874 -0.330307 0.67795 0.656721 -0.33965 0.725893 0.598095 
-0.531931 0.547019 0.64639 0.619718 0.685485 0.382178 0.755644 0.549846 0.35591 
-0.54864 0.531023 0.645762 0.776062 0.52147 0.354677 -0.67317 0.423237 0.606393 
-0.674622 0.41924 0.607555 -0.688231 0.429576 0.584639 0.850392 0.262157 0.456188 
-0.705275 0.319137 0.63304 -0.904326 0.355875 0.235684 0.901315 0.0546171 0.429707 
0.957499 0.0561442 0.282918 -0.77296 0.141224 0.618537 -0.865885 0.14658 0.478286 
0.898689 -0.111318 0.424224 0.978482 -0.137082 0.15421 -0.808768 -0.0240899 0.587634 
-0.826338 -0.0225372 0.562724 0.802886 -0.415278 0.427691 0.74094 -0.567591 0.358955 
-0.760278 -0.146083 0.632959 -0.875064 -0.164113 0.455335 0.711885 -0.622086 0.325929 
0.748805 -0.661105 0.0472381 0.577411 -0.749993 0.322658 -0.689464 -0.456166 0.56263 
-0.59802 -0.56323 0.570214 0.506728 -0.809794 0.295738 0.40406 -0.873055 0.272966 
0.278956 -0.922868 0.265515 0.176967 -0.953773 0.242898 0.0109882 -0.993377 0.114371 
-0.327259 -0.885081 0.330959 -0.607371 -0.652051 0.453795 -0.519845 -0.759074 0.391877 
-0.627895 -0.778166 0.0143302 0.1246 -0.968677 0.214803 0.0840162 -0.976265 0.199617 
-0.0235268 -0.977087 0.211534 -0.0457853 -0.988772 0.142243 -0.0639375 -0.986298 0.152083 
-0.0710765 -0.991502 0.108961 0.0428083 -0.993765 0.102947 0.0737751 -0.992696 0.0954585 
0.0800995 -0.996553 0.0215801 0.0808716 -0.990489 0.111318 0.111582 -0.954261 -0.277371 
0.0151979 -0.991001 0.132986 -0.262496 -0.920821 0.288418 -0.135563 -0.965046 0.224297 
0.333556 0.936625 -0.10712 0.15003 0.979928 -0.131269 0.0191325 0.994801 -0.100021 
0.0306575 0.999385 -0.0169958 0.0773506 0.996291 0.0376858 0.0836362 0.984156 0.156341 
0.099446 0.95968 0.262916 0.123447 0.947271 0.295701 0.119099 0.959213 0.256372 
0.0555103 0.968779 0.24163 -0.18263 0.939368 0.290231 -0.40784 0.881982 0.236164 
0.335024 0.936076 -0.107337 0.541855 0.834248 -0.102098 0.333757 0.936166 -0.110448 
0.168605 0.906566 -0.386925 0.117086 0.887062 -0.446555 -0.588647 0.788044 0.180226 
-0.615494 0.769117 0.172121 0.670398 0.740845 -0.0414266 0.75615 0.65416 -0.0176569 
-0.76635 0.626335 0.142871 -0.782214 0.606854 0.140958 0.835105 0.549799 -0.0179051 
-0.852542 0.497451 0.160357 -0.911713 0.392953 0.119866 0.953619 0.300374 -0.0196563 
0.96575 0.258952 -0.0164256 -0.922121 0.367252 0.12173 -0.911838 0.370152 -0.177592 
0.998016 0.0599696 0.0191928 0.962157 0.0657775 -0.264438 -0.966102 0.197232 0.166575 
0.987283 -0.158774 -0.00798911 0.964473 -0.26375 -0.0151082 0.98026 -0.151654 -0.126855 
-0.983902 -0.0097807 0.178441 0.893809 -0.447945 -0.0212292 -0.961096 -0.246437 0.12475 
-0.83986 -0.541253 0.040985 0.746389 -0.665282 -0.0173921 0.737535 -0.674994 -0.0206418 
0.737061 -0.670383 -0.0856054 0.533747 -0.840809 -0.0903019 -0.827726 -0.560063 0.0346115 
0.485318 -0.867408 -0.10986 0.381804 -0.914916 -0.130975 0.252739 -0.952601 -0.169336 
0.151079 -0.967608 -0.202263 -0.133235 -0.934768 -0.329328 -0.0306137 -0.923691 -0.381914 
0.104711 -0.923182 -0.369825 0.113255 -0.946179 -0.303182 -0.241284 -0.954002 -0.177938 
-0.428026 -0.899207 -0.090666 -0.626813 -0.779167 0.002037 -0.623852 -0.781542 0.000753744 
-0.623759 -0.781545 -0.0105508 0.0887478 -0.970215 -0.225403 0.0563372 -0.970095 -0.236099 
0.0543296 -0.962082 -0.267294 -0.0862989 -0.956743 -0.277839 -0.0680454 -0.962659 -0.262026 
-0.071023 -0.953715 -0.292204 0.105892 -0.946803 -0.303892 0.0513258 -0.947936 -0.314297 
0.0474245 -0.935314 -0.350626 -0.204245 -0.958749 -0.197698 -0.0450658 -0.96139 -0.271474 
-0.0334037 -0.94524 -0.324661 0.118933 0.905794 -0.406684 0.153614 0.930225 -0.333293 
0.180755 0.950769 -0.251725 0.155277 0.957416 -0.2434 0.143894 0.967758 -0.206735 
0.10587 0.983953 -0.143627 0.0267038 0.986443 -0.161918 -0.20484 0.951398 -0.229961 
-0.451259 0.858682 -0.242961 0.48288 0.725215 -0.490805 0.30883 0.796042 -0.520521 
0.169095 0.826107 -0.537544 0.12377 0.87616 -0.465859 0.124846 0.866429 -0.48344 
0.126273 0.863366 -0.488522 0.173795 0.845785 -0.504424 0.148454 0.76131 -0.631164 
0.09727 0.636711 -0.764943 -0.618935 0.729559 -0.290971 -0.420579 0.60168 -0.679039 
-0.656106 0.688601 -0.308793 0.496701 0.718057 -0.487526 0.65155 0.59136 -0.475159 
0.478615 0.717675 -0.505836 0.258459 0.621169 -0.739829 0.122642 0.593864 -0.795163 
0.0685598 0.47518 -0.877213 -0.723318 0.592198 -0.355124 -0.552868 0.420881 -0.719163 
-0.736597 0.565094 -0.371611 0.670669 0.568352 -0.476633 0.645724 0.563368 -0.515419 
0.384661 0.483213 -0.786474 -0.79544 0.483576 -0.365281 -0.640656 0.45148 -0.621068 
0.873012 0.298179 -0.385927 0.587047 0.351551 -0.729238 -0.870386 0.357626 -0.338425 
-0.464238 0.300226 -0.833275 -0.876448 0.333312 -0.347479 0.927694 0.0664465 -0.36738 
0.083077 -0.115593 -0.989816 0.0766414 -0.156712 -0.984666 -0.889648 0.2016 -0.409736 
-0.819395 0.153715 -0.552236 0.921854 -0.151139 -0.35685 -0.0368547 -0.0207938 -0.999104 
-0.0132112 -0.0268953 -0.999551 -0.903958 -0.0676737 -0.422232 -0.772909 -0.021022 -0.634169 
0.791821 -0.458946 -0.402974 0.675334 -0.598467 -0.430999 0.637681 -0.472974 -0.607995 
-0.200732 -0.0726741 -0.976947 -0.0409572 -0.273833 -0.960905 0.120353 -0.16102 -0.979585 
-0.343199 -0.381634 -0.858236 -0.862626 -0.294707 -0.411126 -0.83336 -0.372701 -0.408173 
-0.828633 -0.268494 -0.4912 0.608486 -0.672297 -0.421618 0.488883 -0.768599 -0.412612 
0.43967 -0.632202 -0.637973 -0.143072 -0.299667 -0.943255 -0.165026 -0.246937 -0.954876 
-0.0615343 -0.246559 -0.967172 0.0605075 -0.323537 -0.944279 0.0953177 -0.354255 -0.930278 
0.0929765 -0.315152 -0.944476 0.0994565 -0.347151 -0.932521 -0.249151 -0.420284 -0.872517 
-0.674542 -0.569008 -0.470343 -0.505828 -0.679611 -0.531289 -0.444182 -0.537486 -0.716806 
0.349697 -0.813871 -0.464033 0.33642 -0.817329 -0.467756 0.332088 -0.809138 -0.484782 
0.177653 -0.82655 -0.534092 0.146339 -0.760136 -0.633071 0.0790656 -0.80742 -0.584655 
0.0336961 -0.678021 -0.734269 -0.00975657 -0.760629 -0.649114 -0.0529307 -0.615223 -0.786574 
-0.104567 -0.710172 -0.69622 -0.116293 -0.569926 -0.813425 -0.138264 -0.677586 -0.72233 
-0.12544 -0.605336 -0.786024 -0.021501 -0.712677 -0.701163 -0.0187261 -0.695461 -0.71832 
0.106965 -0.718545 -0.687205 0.0991449 -0.677351 -0.728949 0.122287 -0.7086 -0.694933 
0.11396 -0.621126 -0.775381 0.078515 -0.740674 -0.667262 0.0947894 -0.607959 -0.78829 
0.0105383 -0.783719 -0.621026 0.0140654 -0.58472 -0.811113 -0.1551 -0.773187 -0.614919 
-0.147654 -0.645459 -0.749387 -0.414073 -0.724039 -0.551644 -0.388897 -0.730547 -0.561302 
-0.37394 -0.713431 -0.592609 0.16261 0.584901 -0.794638 0.148453 0.645773 -0.748959 
-0.0295097 0.676077 -0.73624 -0.230819 0.593567 -0.770974 0.126885 0.408932 -0.903701 
0.194081 0.478693 -0.856262 0.104068 0.58314 -0.805679 0.14801 0.576405 -0.803648 
0.0701489 0.485532 -0.8714 0.16209 0.57387 -0.802745 0.133754 0.516323 -0.845885 
-0.0138954 0.483623 -0.875166 -0.319078 0.539912 -0.778899 -0.229415 0.524323 -0.820033 
-0.373367 0.478038 -0.795033 0.21085 0.505285 -0.836797 0.0993017 0.524512 -0.845592 
0.106165 0.4235 -0.899653 0.0534464 0.449587 -0.891636 0.126879 0.399645 -0.907847 
0.165266 0.324637 -0.931288 0.027043 0.283514 -0.958587 0.0304935 0.232868 -0.97203 
0.148261 0.23116 -0.961553 0.10892 0.226014 -0.968015 -0.0478108 0.193295 -0.979975 
-0.135775 0.200255 -0.97029 -0.444763 0.357707 -0.821116 -0.334169 0.310104 -0.890037 
-0.460093 0.292595 -0.838274 0.38288 0.482757 -0.787622 0.384259 0.482012 -0.787407 
0.181955 0.439078 -0.879831 0.0242089 0.344126 -0.938611 -0.0750748 0.259975 -0.962692 
0.00168696 0.0966488 -0.995317 0.128965 -0.0373846 -0.990944 0.0329245 0.0248951 -0.999148 
0.0469864 -0.00230864 -0.998893 0.168977 0.116779 -0.978677 0.0663999 0.0533604 -0.996365 
-0.0327309 -0.00920297 -0.999422 -0.134908 0.0334571 -0.990293 -0.228422 0.0789874 -0.970353 
-0.452159 0.272356 -0.849338 -0.410263 0.237371 -0.880533 0.532478 0.334652 -0.77748 
0.554078 0.229291 -0.800265 0.299709 0.284003 -0.910778 0.0967466 0.207378 -0.973465 
-0.0726972 0.170744 -0.98263 -0.195912 0.118923 -0.973384 -0.158869 0.01182 -0.987229 
0.0883911 -0.12526 -0.988179 0.0958707 -0.163941 -0.9818 0.0645822 -0.0406005 -0.997086 
0.0833532 -0.187339 -0.978752 0.113723 -0.214992 -0.969972 0.214913 -0.0152835 -0.976514 
-0.0218473 -0.138798 -0.99008 -0.0656156 -0.135687 -0.988577 -0.0458918 -0.0572353 -0.997305 
-0.112615 0.0464062 -0.992554 -0.450676 0.293951 -0.842902 -0.226421 0.160783 -0.960668 
-0.458473 0.287945 -0.840768 0.575656 0.0713363 -0.814574 0.520517 0.062014 -0.851596 
0.293877 0.067321 -0.953469 0.0541074 0.0553137 -0.997002 -0.065998 0.0304546 -0.997355 
-0.222898 0.0601907 -0.972982 0.0506562 -0.102114 -0.993482 -0.275866 0.035589 -0.960537 
0.0800745 -0.116487 -0.989959 0.0514313 -0.153911 -0.986745 -0.0286748 -0.0678195 -0.997285 
0.105787 -0.175309 -0.978814 0.221333 -0.218974 -0.950296 -0.0455967 -0.267263 -0.962544 
0.0495008 -0.144858 -0.988213 0.0558652 -0.0558678 -0.996874 -0.0326746 0.00784488 -0.999435 
-0.190887 0.0688087 -0.979197 -0.522494 0.109508 -0.845581 -0.430202 0.105265 -0.896574 
0.578426 -0.177004 -0.7963 0.563113 -0.230974 -0.793445 0.549549 -0.172378 -0.817485 
0.305134 -0.127106 -0.943789 0.0611309 -0.110228 -0.992025 -0.0629828 -0.0542418 -0.99654 
-0.210267 -0.086922 -0.973772 -0.0804723 -0.0212739 -0.99653 -0.301859 -0.0398172 -0.952521 
-0.0222971 -0.0835057 -0.996258 -0.0127526 -0.032353 -0.999395 -0.00766754 -0.319716 -0.947483 
0.0234894 -0.343509 -0.938856 -0.0112638 -0.0317517 -0.999432 0.0941853 -0.264052 -0.959899 
0.0522955 -0.181237 -0.982048 0.14114 -0.111827 -0.983654 0.106472 -0.0887817 -0.990344 
0.0104315 -0.0847556 -0.996347 -0.157509 -0.105896 -0.981823 -0.51236 -0.0461709 -0.857529 
-0.343471 -0.373021 -0.861907 -0.401522 -0.0695695 -0.913203 0.507485 -0.403644 -0.761269 
0.410206 -0.509538 -0.756374 0.332621 -0.339994 -0.879641 0.120802 -0.285242 -0.950812 
-0.048358 -0.263223 -0.963522 -0.203266 -0.219433 -0.954218 -0.205696 -0.0919544 -0.974286 
-0.144055 -0.297677 -0.943735 -0.224165 -0.147884 -0.963266 0.0976615 -0.199839 -0.97495 
0.0962818 -0.20837 -0.9733 0.0959067 -0.202714 -0.97453 0.101602 -0.19585 -0.975356 
0.106097 -0.149832 -0.983002 0.105342 -0.327904 -0.93882 0.151697 -0.167686 -0.974099 
0.0909557 -0.188328 -0.977885 -0.0470924 -0.210195 -0.976525 -0.335846 -0.376764 -0.863282 
-0.242106 -0.391729 -0.887656 -0.177232 -0.24693 -0.952688 0.251075 -0.578377 -0.776171 
0.175816 -0.587117 -0.790179 0.167243 -0.558537 -0.812444 0.0289326 -0.543522 -0.838896 
0.0045514 -0.47525 -0.879839 -0.141861 -0.301658 -0.942803 -0.0714268 -0.430609 -0.899708 
-0.0890837 -0.391739 -0.915754 0.0870731 -0.354064 -0.931159 0.0405062 -0.399772 -0.915719 
0.0471888 -0.376372 -0.925266 -0.184751 -0.422321 -0.887419 -0.0599188 -0.458538 -0.886652 
-0.057611 -0.429424 -0.901263 
