# vtk DataFile Version 4.2
vtk output
ASCII
DATASET POLYDATA
POINTS 532 float
-23.9292 19.3779 -23.7791 -8.80128 -10.8779 -16.2649 -1.23733 -10.8779 -17.1237 
6.32661 -10.8779 -17.1398 21.4545 -10.8779 -16.4375 29.0184 -10.8779 -18.0795 
36.5824 -10.8779 -18.9355 44.1463 -10.8779 -18.0197 -23.9292 -3.31398 -16.6333 
-16.3652 -3.31398 -16.472 -8.80128 -3.31398 -17.6486 6.32661 -3.31398 -17.7348 
21.4545 -3.31398 -18.3337 29.0184 -3.31398 -20.2378 36.5824 -3.31398 -20.7754 
44.1463 -3.31398 -19.7515 51.7103 -3.31398 -16.609 -39.0571 4.24997 -18.0489 
-31.4931 4.24997 -20.1994 -23.9292 4.24997 -20.9074 -16.3652 4.24997 -20.5085 
-8.80128 4.24997 -19.649 -1.23733 4.24997 -19.6884 6.32661 4.24997 -19.6679 
13.8906 4.24997 -17.9124 21.4545 4.24997 -19.6036 29.0184 4.24997 -21.0493 
36.5824 4.24997 -21.4618 44.1463 4.24997 -20.3011 -39.0571 11.8139 -20.8093 
-31.4931 11.8139 -23.0258 -23.9292 19.0816 -23.7558 -23.9292 11.8139 -23.182 
-16.3652 11.8139 -22.5808 -8.80128 11.8139 -21.7647 -1.23733 11.8139 -21.4506 
6.32661 11.8139 -20.3295 13.8906 11.8139 -19.9953 21.4545 11.8139 -21.1439 
29.0184 11.8139 -22.35 36.5824 11.8139 -21.5219 44.1463 11.8139 -19.1342 
-39.0571 19.3779 -20.6826 -24.2426 19.3779 -23.7558 -31.4931 19.3779 -23.1923 
-23.5157 19.3779 -23.7558 -23.9292 19.4939 -23.7558 -16.3652 19.3779 -23.3573 
-8.80128 19.3779 -22.8181 -1.23733 19.3779 -22.3049 6.32661 19.3779 -21.622 
13.8906 19.3779 -21.5221 21.4545 19.3779 -21.8024 29.0184 19.3779 -21.7371 
36.5824 19.3779 -20.3951 -39.0571 26.9418 -16.892 -31.4931 26.9418 -20.824 
-23.9292 26.9418 -22.1577 -16.3652 26.9418 -22.3889 -8.80128 26.9418 -22.7398 
-1.23733 26.9418 -22.95 6.32661 26.9418 -22.5114 13.8906 26.9418 -21.7305 
21.4545 26.9418 -21.3008 29.0184 26.9418 -20.2768 36.5824 26.9418 -16.6076 
-23.9292 34.5057 -16.7532 -16.3652 34.5057 -18.5436 -8.80128 34.5057 -19.9824 
-1.23733 34.5057 -20.9778 6.32661 34.5057 -20.8631 13.8906 34.5057 -19.5759 
21.4545 34.5057 -17.8148 -23.9292 -33.5698 -9.33023 -16.3652 -33.5698 -11.0498 
-8.80128 -33.5698 -12.0153 -1.23733 -33.5698 -11.9964 6.32661 -33.5698 -10.8982 
13.8906 -33.5698 -9.24239 -31.4931 -26.0058 -10.4196 -23.9292 -26.0058 -13.1269 
-16.3652 -26.0058 -14.3789 -8.80128 -26.0058 -14.9343 -1.23733 -26.0058 -14.3713 
6.32661 -26.0058 -13.9699 13.8906 -26.0058 -12.9634 21.4545 -26.0058 -12.5719 
29.0184 -26.0058 -11.9756 36.5824 -26.0058 -10.2208 -39.0571 -18.4419 -9.55503 
-31.4931 -18.4419 -11.8182 -23.9292 -18.4419 -13.7569 -16.3652 -18.4419 -15.0742 
-8.80128 -11.6867 -16.1918 -8.80128 -18.4419 -15.5905 -1.23733 -16.3735 -16.1918 
-1.23733 -18.4419 -15.8385 6.32661 -14.8422 -16.1918 6.32661 -18.4419 -15.3595 
13.8906 -18.4419 -14.4185 21.4545 -12.0585 -16.1918 21.4545 -18.4419 -14.9476 
29.0184 -15.9887 -16.1918 29.0184 -18.4419 -15.3579 36.5824 -17.8992 -16.1918 
36.5824 -18.4419 -15.9454 44.1463 -14.5308 -16.1918 44.1463 -18.4419 -13.6604 
-39.0571 -10.8779 -10.5953 -31.4931 -10.8779 -12.9634 -23.9292 -4.53923 -16.1918 
-23.9292 -10.8779 -14.0782 -9.09454 -10.8779 -16.1918 -16.3652 -4.20257 -16.1918 
-16.3652 -10.8779 -14.381 -1.23733 -6.81494 -16.1918 9.39415 -10.8779 -16.1918 
20.3771 -10.8779 -16.1918 13.8906 -10.8779 -14.8142 47.3816 -10.8779 -16.1918 
51.7103 -4.50361 -16.1918 51.7103 -10.8779 -12.6413 -46.621 -3.31398 -9.77168 
-39.0571 0.813405 -16.1918 -39.0571 -3.31398 -14.0163 -29.9865 -3.31398 -16.1918 
-31.4931 -3.11196 -16.1918 -31.4931 -3.31398 -16.0808 -3.96798 -3.31398 -16.1918 
1.41992 -3.31398 -16.1918 -1.23733 -1.75868 -16.1918 -1.23733 -3.31398 -15.3941 
11.8792 -3.31398 -16.1918 15.4484 -3.31398 -16.1918 13.8906 -1.43896 -16.1918 
13.8906 -3.31398 -15.6117 52.1493 -3.31398 -16.1918 51.7103 2.4068 -16.1918 
-42.3798 4.24997 -16.1918 -46.621 4.24997 -13.2737 51.4899 4.24997 -16.1918 
51.7103 4.24997 -15.9347 -46.3178 11.8139 -16.1918 -46.621 11.8139 -15.9251 
48.1321 11.8139 -16.1918 44.1463 19.1356 -16.1918 51.7103 11.8139 -9.37506 
-44.7642 19.3779 -16.1918 -46.621 19.3779 -13.2578 43.971 19.3779 -16.1918 
44.1463 19.3779 -15.9539 -39.7672 26.9418 -16.1918 -39.0571 27.5815 -16.1918 
-31.4931 31.8958 -16.1918 29.0184 32.3079 -16.1918 37.1717 26.9418 -16.1918 
36.5824 27.4343 -16.1918 -25.2073 34.5057 -16.1918 -31.4931 34.5057 -9.07347 
-23.9292 34.9832 -16.1918 -16.3652 36.8303 -16.1918 -8.80128 38.643 -16.1918 
-1.23733 40.3267 -16.1918 6.32661 40.3955 -16.1918 13.8906 38.5737 -16.1918 
25.1234 34.5057 -16.1918 21.4545 36.1111 -16.1918 29.0184 34.5057 -11.8588 
-1.23733 42.0697 -11.127 6.32661 42.0697 -11.5933 -23.9292 -34.2728 -8.62788 
-16.3652 -36.2183 -8.62788 -8.80128 -37.4849 -8.62788 -1.23733 -37.6856 -8.62788 
-1.23733 -41.1337 -1.25223 6.32661 -36.33 -8.62788 13.8906 -34.2737 -8.62788 
-25.8194 -33.5698 -8.62788 -31.4931 -29.6458 -8.62788 -31.4931 -33.5698 -5.53774 
18.2287 -33.5698 -8.62788 21.4545 -32.8006 -8.62788 21.4545 -33.5698 -7.84561 
29.0184 -30.4027 -8.62788 29.0184 -33.5698 -4.31161 36.5824 -27.5724 -8.62788 
-34.4736 -26.0058 -8.62788 -39.0571 -20.6154 -8.62788 -39.0571 -26.0058 -5.61121 
39.3543 -26.0058 -8.62788 44.1463 -23.0916 -8.62788 44.1463 -26.0058 -3.24055 
-40.3587 -18.4419 -8.62788 -46.621 -18.4419 -2.11246 49.3065 -18.4419 -8.62788 
51.7103 -15.4465 -8.62788 51.7103 -18.4419 -2.32898 -42.4158 -10.8779 -8.62788 
-46.621 -5.60907 -8.62788 -46.621 -10.8779 -5.61922 54.1777 -10.8779 -8.62788 
-47.8036 -3.31398 -8.62788 55.7558 -3.31398 -8.62788 -50.6954 4.24997 -8.62788 
55.205 4.24997 -8.62788 -51.6856 11.8139 -8.62788 51.9956 11.8139 -8.62788 
51.7103 12.3469 -8.62788 51.7103 11.8139 -4.26183 -48.7911 19.3779 -8.62788 
-46.621 22.3958 -8.62788 47.4724 19.3779 -8.62788 44.1463 23.6409 -8.62788 
-42.3191 26.9418 -8.62788 -39.0571 29.7531 -8.62788 41.1204 26.9418 -8.62788 
36.5824 30.6955 -8.62788 -31.7253 34.5057 -8.62788 -31.4931 34.6387 -8.62788 
-31.4931 34.5057 -5.08215 -23.9292 37.9175 -8.62788 -16.3652 40.056 -8.62788 
-8.80128 41.509 -8.62788 13.8906 41.4264 -8.62788 21.4545 38.8581 -8.62788 
30.8198 34.5057 -8.62788 29.0184 35.5527 -8.62788 29.0184 34.5057 -1.38842 
-5.30559 42.0697 -8.62788 -1.23733 42.7168 -8.62788 -1.23733 42.0697 -4.34591 
10.5424 42.0697 -8.62788 6.32661 42.8719 -8.62788 6.32661 42.0697 -3.56268 
-1.23733 -41.1997 -1.06393 -31.4931 -36.216 -1.06393 -23.9292 -38.5291 -1.06393 
-16.3652 -39.7896 -1.06393 -2.40484 -41.1337 -1.06393 -8.80128 -40.7668 -1.06393 
-0.673586 -41.1337 -1.06393 -1.23733 -41.1337 -0.399271 6.32661 -40.3054 -1.06393 
13.8906 -38.7746 -1.06393 21.4545 -37.2714 -1.06393 29.0184 -35.205 -1.06393 
-36.327 -33.5698 -1.06393 -39.0571 -31.486 -1.06393 -39.0571 -33.5698 5.16632 
32.9883 -33.5698 -1.06393 36.5824 -31.9386 -1.06393 44.1463 -27.0294 -1.06393 
-43.6107 -26.0058 -1.06393 -46.621 -20.2462 -1.06393 -46.621 -26.0058 5.88713 
45.3216 -26.0058 -1.06393 51.7103 -18.9232 -1.06393 -47.5901 -18.4419 -1.06393 
52.0595 -18.4419 -1.06393 51.7103 -18.4419 1.25527 -50.4841 -10.8779 -1.06393 
55.1261 -10.8779 -1.06393 -52.7652 -3.31398 -1.06393 55.9024 -3.31398 -1.06393 
-53.9438 4.24997 -1.06393 55.0918 4.24997 -1.06393 51.7103 11.4081 -1.06393 
-52.8477 11.8139 -1.06393 51.4795 11.8139 -1.06393 -49.6779 19.3779 -1.06393 
-46.621 22.918 -1.06393 -46.621 19.3779 6.32242 46.7236 19.3779 -1.06393 
44.1463 22.5656 -1.06393 44.1463 19.3779 3.5579 -41.8155 26.9418 -1.06393 
-39.0571 29.2231 -1.06393 -39.0571 26.9418 3.4478 -31.4931 34.3362 -1.06393 
29.0184 34.4504 -1.06393 39.9802 26.9418 -1.06393 36.5824 29.7971 -1.06393 
36.5824 26.9418 3.65097 -31.1593 34.5057 -1.06393 -23.9292 37.5878 -1.06393 
-23.9292 34.5057 5.68945 -16.3652 39.5426 -1.06393 -8.80128 40.5379 -1.06393 
-1.23733 41.5211 -1.06393 6.32661 41.635 -1.06393 13.8906 40.2014 -1.06393 
28.904 34.5057 -1.06393 21.4545 37.7031 -1.06393 21.4545 34.5057 4.85215 
-39.0571 -33.9198 6.50001 -31.4931 -36.9474 6.50001 -23.9292 -38.6707 6.50001 
-16.3652 -39.5319 6.50001 -8.80128 -40.1511 6.50001 -1.23733 -40.457 6.50001 
6.32661 -39.5949 6.50001 13.8906 -38.3183 6.50001 21.4545 -37.2619 6.50001 
29.0184 -35.6259 6.50001 -39.5043 -33.5698 6.50001 -46.621 -26.3315 6.50001 
-39.0571 -33.5698 7.67867 34.2538 -33.5698 6.50001 29.0184 -33.5698 13.5692 
36.5824 -32.4887 6.50001 44.1463 -27.1456 6.50001 -46.8528 -26.0058 6.50001 
-46.621 -26.0058 7.25465 45.3184 -26.0058 6.50001 44.1463 -26.0058 9.20462 
-50.6625 -18.4419 6.50001 50.85 -18.4419 6.50001 51.7103 -15.7006 6.50001 
-53.002 -10.8779 6.50001 53.0386 -10.8779 6.50001 51.7103 -10.8779 8.85265 
-54.1697 -3.31398 6.50001 53.3625 -3.31398 6.50001 51.7103 -3.31398 9.23511 
-53.79 4.24997 6.50001 51.8541 4.24997 6.50001 51.7103 4.54749 6.50001 
51.7103 4.24997 6.72517 -51.1526 11.8139 6.50001 -46.621 19.234 6.50001 
-46.621 11.8139 12.2498 47.7455 11.8139 6.50001 44.1463 16.9465 6.50001 
44.1463 11.8139 10.8776 -46.483 19.3779 6.50001 -39.0571 25.0182 6.50001 
-39.0571 19.3779 11.7252 42.1391 19.3779 6.50001 36.5824 24.8435 6.50001 
36.5824 19.3779 11.3243 -36.3222 26.9418 6.50001 -31.4931 30.321 6.50001 
-31.4931 26.9418 9.55297 -23.9292 33.9946 6.50001 -23.9292 26.9418 12.3708 
-16.3652 26.9418 13.5966 -8.80128 26.9418 13.7601 -1.23733 26.9418 13.5603 
6.32661 26.9418 13.4162 13.8906 26.9418 12.9187 21.4545 33.3399 6.50001 
21.4545 26.9418 11.9555 33.6336 26.9418 6.50001 29.0184 29.9365 6.50001 
29.0184 26.9418 9.52126 -22.1735 34.5057 6.50001 -16.3652 35.9407 6.50001 
-16.3652 34.5057 8.16108 -8.80128 36.4553 6.50001 -8.80128 34.5057 8.53318 
-1.23733 36.6449 6.50001 -1.23733 34.5057 8.56288 6.32661 36.8536 6.50001 
6.32661 34.5057 8.72651 18.2502 34.5057 6.50001 13.8906 35.9334 6.50001 
13.8906 34.5057 8.00537 -31.4931 -35.2861 14.064 -23.9292 -37.0838 14.064 
-16.3652 -38.1806 14.064 -8.80128 -38.4339 14.064 -1.23733 -38.1483 14.064 
6.32661 -36.6923 14.064 13.8906 -35.3 14.064 21.4545 -34.4963 14.064 
-35.3546 -33.5698 14.064 -39.0571 -31.1635 14.064 -31.4931 -33.5698 16.6128 
-23.9292 -33.5698 19.4847 -16.3652 -33.5698 20.75 -8.80128 -33.5698 21.0168 
[...]
POINT_DATA 532
SCALARS ImageScalars float
LOOKUP_TABLE default
0 0 0 0 0 0 0 0 0 
0 0 0 0 0 0 0 0 0 
0 0 0 0 0 0 0 0 0 
0 0 0 0 0 0 0 0 0 
0 0 0 0 0 0 0 0 0 
0 0 0 0 0 0 0 0 0 
0 0 0 0 0 0 0 0 0 
0 0 0 0 0 0 0 0 0 
0 0 0 0 0 0 0 0 0 
0 0 0 0 0 0 0 0 0 
0 0 0 0 0 0 0 0 0 
0 0 0 0 0 0 0 0 0 
0 0 0 0 0 0 0 0 0 
0 0 0 0 0 0 0 0 0 
0 0 0 0 0 0 0 0 0 
0 0 0 0 0 0 0 0 0 
0 0 0 0 0 0 0 0 0 
0 0 0 0 0 0 0 0 0 
0 0 0 0 0 0 0 0 0 
0 0 0 0 0 0 0 0 0 
0 0 0 0 0 0 0 0 0 
0 0 0 0 0 0 0 0 0 
0 0 0 0 0 0 0 0 0 
0 0 0 0 0 0 0 0 0 
0 0 0 0 0 0 0 0 0 
0 0 0 0 0 0 0 0 0 
0 0 0 0 0 0 0 0 0 
0 0 0 0 0 0 0 0 0 
0 0 0 0 0 0 0 0 0 
0 0 0 0 0 0 0 0 0 
0 0 0 0 0 0 0 0 0 
0 0 0 0 0 0 0 0 0 
0 0 0 0 0 0 0 0 0 
0 0 0 0 0 0 0 0 0 
0 0 0 0 0 0 0 0 0 
0 0 0 0 0 0 0 0 0 
0 0 0 0 0 0 0 0 0 
0 0 0 0 0 0 0 0 0 
0 0 0 0 0 0 0 0 0 
0 0 0 0 0 0 0 0 0 
0 0 0 0 0 0 0 0 0 
0 0 0 0 0 0 0 0 0 
0 0 0 0 0 0 0 0 0 
0 0 0 0 0 0 0 0 0 
0 0 0 0 0 0 0 0 0 
0 0 0 0 0 0 0 0 0 
0 0 0 0 0 0 0 0 0 
0 0 0 0 0 0 0 0 0 
0 0 0 0 0 0 0 0 0 
0 0 0 0 0 0 0 0 0 
0 0 0 0 0 0 0 0 0 
0 0 0 0 0 0 0 0 0 
0 0 0 0 0 0 0 0 0 
0 0 0 0 0 0 0 0 0 
0 0 0 0 0 0 0 0 0 
0 0 0 0 0 0 0 0 0 
0 0 0 0 0 0 0 0 0 
0 0 0 0 0 0 0 0 0 
0 0 0 0 0 0 0 0 0 
0 
NORMALS Normals float
0.00890063 -0.0608875 0.998105 0.176422 0.131556 0.975483 0.0576294 -0.0219649 0.998096 
-0.160225 0.163293 0.97348 0.207713 0.21954 0.953235 0.150286 0.299125 0.942305 
0.00307513 0.318349 0.947969 -0.299223 0.337436 0.892526 0.0212216 0.439044 0.898215 
0.0672231 0.392387 0.91734 -0.0697396 0.216232 0.973848 0.0133407 0.174016 0.984653 
0.288375 0.194041 0.93765 0.160468 0.187321 0.969103 -0.0301031 0.156859 0.987162 
-0.25861 0.129491 0.957263 -0.659475 0.133387 0.739798 0.358948 0.372196 0.855936 
0.171402 0.401212 0.899806 0.0179617 0.406285 0.91357 -0.0784569 0.361327 0.929133 
-0.0513904 0.26983 0.961536 0.00128306 0.386122 0.922447 -0.117063 0.174272 0.977714 
0.00134611 0.277398 0.960754 0.201955 0.179428 0.962819 0.119216 0.129118 0.984437 
-0.0468203 0.0517797 0.99756 -0.317866 -0.0357246 0.947462 0.373999 0.155772 0.914254 
0.136863 0.179585 0.974176 0.00741294 -0.0517505 0.998633 -0.0294074 0.177586 0.983666 
-0.0917497 0.177813 0.979778 -0.0736198 0.201361 0.976747 -0.0910979 0.157215 0.983354 
-0.0966895 0.127161 0.987158 0.0513574 0.231858 0.971393 0.150013 0.14611 0.977828 
0.0172109 0.0485335 0.998673 -0.183957 -0.0589808 0.981163 -0.482496 -0.221447 0.847443 
0.496987 -0.207464 0.842593 0.0159105 -0.0630464 0.997884 0.185404 -0.116099 0.97578 
0.00499848 -0.0583756 0.998282 0.00982335 -0.0651565 0.997827 -0.0628882 -0.012583 0.997941 
-0.0706822 0.0645498 0.995408 -0.0781896 0.096933 0.992215 -0.0519098 0.14096 0.988654 
0.011947 0.111582 0.993683 0.0143161 0.0101412 0.999846 -0.0838078 -0.115799 0.989731 
-0.305906 -0.304063 0.902201 0.577215 -0.625443 0.525018 0.289206 -0.481105 0.827585 
0.0887069 -0.372438 0.923808 0.036847 -0.26734 0.962898 0.0372248 -0.164118 0.985738 
-0.015441 -0.0785527 0.99679 -0.0808045 -0.0440103 0.995758 -0.0770099 -0.112425 0.990672 
-0.0865702 -0.222616 0.971055 -0.275785 -0.403029 0.872645 -0.500973 -0.58683 0.636126 
0.252557 -0.767083 0.589745 0.173738 -0.661903 0.729177 0.145677 -0.548476 0.823379 
0.0526443 -0.454071 0.889409 -0.0882932 -0.42435 0.901183 -0.183016 -0.495354 0.849193 
-0.298296 -0.649307 0.699585 0.256173 0.634689 0.729071 0.149458 0.613676 0.775283 
0.0557279 0.537569 0.841377 -0.0680365 0.496481 0.865377 -0.164028 0.541874 0.824298 
-0.160696 0.633554 0.756826 0.418864 0.300959 0.856725 0.24152 0.238268 0.940689 
0.106423 0.22745 0.967957 0.000705502 0.210992 0.977487 -0.0590032 0.234129 0.970414 
-0.0926764 0.268955 0.958684 -0.0833083 0.299577 0.950428 -0.0605361 0.384557 0.921114 
-0.121339 0.541037 0.8322 -0.293119 0.67851 0.673576 0.479478 0.257715 0.838859 
0.270331 0.144678 0.951835 0.215394 0.0576498 0.974824 0.119522 0.00241903 0.992829 
0.163483 0.126365 0.97842 0.0499785 0.0847935 0.995144 0.0046515 0.124542 0.992203 
-0.0145472 0.180091 0.983542 -0.124685 0.183236 0.97513 -0.093426 0.192721 0.976796 
-0.0275668 0.12037 0.992346 0.183609 0.219909 0.958085 0.0616765 0.231367 0.970909 
0.0956248 0.343452 0.934289 0.058022 0.362329 0.930243 -0.0468687 0.442715 0.895436 
-0.0553354 0.456125 0.888194 -0.335139 0.428885 0.838892 -0.407363 0.57431 0.710087 
0.389314 0.278374 0.878034 0.205762 0.261984 0.942882 0.0321562 0.394471 0.918346 
0.0860728 0.162792 0.982899 0.175634 0.129954 0.975841 0.0778211 0.359057 0.930066 
0.146257 0.0855619 0.985539 0.0286556 0.0657447 0.997425 -0.113185 0.130354 0.984986 
0.171573 0.200552 0.964542 -0.0328425 0.0759009 0.996574 -0.448113 0.369002 0.814268 
-0.662784 0.175213 0.728023 -0.738195 0.383893 0.554702 0.615828 0.355252 0.703244 
0.35582 0.405326 0.842083 0.351626 0.43078 0.831136 0.13407 0.450507 0.882649 
0.162456 0.453143 0.87651 0.161437 0.452375 0.877095 -0.0230727 0.175088 0.984282 
0.00952801 0.15934 0.987178 0.00241528 0.209781 0.977745 -0.00641993 0.14087 0.990007 
0.0358001 0.198666 0.979413 0.0970354 0.207996 0.973305 0.03238 0.227122 0.973328 
0.0456503 0.20598 0.977491 -0.686326 0.129458 0.71568 -0.716681 -0.114063 0.688011 
0.463766 0.360646 0.809231 0.645697 0.297048 0.703447 -0.713392 -0.18622 0.675569 
-0.731853 -0.192328 0.653759 0.679847 0.0638 0.730573 0.698147 0.0546028 0.713869 
-0.675774 -0.319894 0.664076 -0.65054 -0.475505 0.592193 -0.883186 -0.433455 0.179162 
0.722773 -0.304745 0.620266 0.794933 -0.392393 0.462718 -0.647534 -0.480457 0.59149 
-0.659993 -0.488019 0.57118 0.600998 -0.632196 0.489009 0.579669 -0.654133 0.485895 
0.393626 -0.762392 0.513631 -0.399288 -0.688999 0.604855 -0.520469 -0.598638 0.608888 
-0.508982 -0.608775 0.608548 0.284586 -0.787672 0.546428 0.464191 -0.875586 0.133701 
0.261905 -0.787974 0.557227 0.204697 -0.771781 0.602041 0.193015 -0.781564 0.593215 
0.0983893 -0.817374 0.567644 -0.0938755 -0.807677 0.582104 -0.237888 -0.745278 0.622872 
-0.368299 -0.724086 0.583143 -0.326797 -0.744151 0.582618 -0.455068 -0.846346 0.276788 
0.0941844 -0.976408 0.194309 -0.0882948 -0.969493 0.228662 0.257548 0.672501 0.693838 
0.169444 0.745569 0.644527 0.0810166 0.763154 0.641118 -0.0592075 0.744961 0.664475 
-0.0305405 0.990415 0.134703 -0.177035 0.689951 0.701874 -0.16903 0.665233 0.727251 
0.297247 0.639816 0.708717 0.422518 0.463109 0.779108 0.426914 0.710059 0.559965 
-0.17582 0.679396 0.712396 -0.17605 0.678959 0.712756 -0.191225 0.735296 0.65021 
-0.223385 0.680786 0.697589 -0.302952 0.850528 0.42991 -0.335686 0.716454 0.611563 
0.444692 0.360796 0.819802 0.490624 0.300714 0.817838 0.544753 0.443201 0.71191 
-0.389803 0.715716 0.579486 -0.498608 0.712417 0.493813 -0.597983 0.753549 0.273095 
0.528875 0.256173 0.809115 0.736712 0.353002 0.576754 -0.64784 0.618723 0.444393 
-0.776578 0.497872 0.386069 -0.832733 0.541885 0.113647 0.490659 0.308264 0.815001 
0.616805 0.35114 0.704452 0.659152 0.35072 0.665217 -0.888728 0.326568 0.321737 
0.657441 0.339351 0.672765 -0.973692 0.0619089 0.219297 0.806405 0.214292 0.551172 
-0.952649 -0.231585 0.197048 0.932666 -0.124354 0.338631 -0.889287 -0.435881 0.138476 
-0.884659 -0.445776 0.136607 -0.881675 -0.467433 -0.0644644 0.842138 -0.475525 0.254321 
0.79892 -0.563666 0.209781 -0.806326 -0.580253 0.114656 -0.753524 -0.649528 0.101566 
0.691772 -0.715159 0.0999959 0.611167 -0.786643 0.0875609 -0.684565 -0.722736 0.0949905 
-0.590016 -0.801747 0.0953038 0.469039 -0.8757 0.114684 0.465409 -0.877559 0.115262 
0.478663 -0.877615 -0.0259439 0.322791 -0.936867 0.134485 0.234165 -0.962447 0.137344 
0.171701 -0.981193 0.0881978 -0.249866 -0.966015 0.0661998 -0.374507 -0.92437 0.0726936 
-0.487698 -0.869471 0.0785563 -0.459068 -0.884875 0.0790766 -0.446532 -0.85274 -0.271005 
0.131283 -0.988957 0.0687654 0.0875938 -0.994914 0.0497363 0.0789395 -0.984548 -0.156312 
-0.173143 -0.983224 0.0573783 -0.081451 -0.9954 0.0504362 -0.0826246 -0.977663 -0.193257 
-0.0300247 0.991817 0.124087 0.380847 0.876358 0.294876 0.212996 0.951184 0.223341 
0.149657 0.973562 0.172567 -0.0116638 0.992192 0.124173 0.0912776 0.9876 0.127728 
-0.0392058 0.991343 0.125309 -0.030375 0.994774 0.0974835 -0.156583 0.976385 0.148844 
-0.195573 0.960446 0.198229 -0.229568 0.946357 0.227391 -0.312782 0.91673 0.248543 
0.504923 0.773707 0.382662 0.580874 0.668155 0.464924 0.533949 0.843491 0.0584845 
-0.381803 0.88979 0.249998 -0.448619 0.860529 0.241309 -0.623253 0.758869 0.188872 
0.734284 0.458919 0.50022 0.756766 0.383989 0.529017 0.844615 0.531984 0.0601497 
-0.648751 0.740694 0.174628 -0.841274 0.537544 0.057476 0.762473 0.361831 0.536389 
-0.850244 0.523831 0.0518299 -0.865211 0.499248 -0.0464846 0.825917 0.291312 0.4827 
-0.971895 0.225954 -0.0660722 0.911183 0.207817 0.355749 -0.989621 -0.00396927 -0.143645 
0.986102 0.00428512 0.166087 -0.942602 -0.271732 -0.194069 -0.857357 -0.467712 -0.214904 
0.959515 -0.281059 -0.0183627 -0.851942 -0.476684 -0.21672 0.820365 -0.562524 -0.102795 
0.734584 -0.661388 -0.151502 0.6289 -0.602036 -0.491973 -0.778329 -0.57904 -0.242728 
-0.737269 -0.629338 -0.245701 -0.706461 -0.565963 -0.424969 0.641928 -0.738221 -0.207262 
0.589713 -0.776612 -0.221614 0.556815 -0.721633 -0.411343 0.481164 -0.855271 -0.192334 
-0.444614 -0.848552 -0.28684 -0.644975 -0.717318 -0.263556 -0.57201 -0.774653 -0.269663 
-0.537538 -0.702552 -0.46634 0.473777 -0.859374 -0.192383 0.314332 -0.92579 -0.210022 
0.274018 -0.795304 -0.540745 0.185138 -0.956247 -0.226529 0.122648 -0.950908 -0.284133 
0.0684939 -0.942478 -0.327176 -0.0802145 -0.943145 -0.322558 -0.238139 -0.923699 -0.300116 
-0.442953 -0.849421 -0.286838 -0.343595 -0.89306 -0.290493 -0.310195 -0.783616 -0.538262 
0.518196 0.855125 -0.0153191 0.283541 0.957224 -0.0576817 0.153695 0.983947 -0.0906986 
0.104592 0.989991 -0.0947588 0.0601584 0.988316 -0.140044 -0.0343804 0.982145 -0.184957 
-0.139147 0.967634 -0.210529 -0.148651 0.968199 -0.201233 -0.176505 0.970738 -0.162832 
-0.286388 0.952706 -0.101652 0.534706 0.844905 -0.0150115 0.838401 0.544355 0.0276088 
0.527387 0.84587 -0.0797933 -0.414254 0.904027 -0.10549 -0.261194 0.844796 -0.467009 
-0.476598 0.871775 -0.113416 -0.684129 0.712215 -0.157214 0.844639 0.534559 0.0288469 
0.844033 0.535997 -0.0177644 -0.715391 0.678676 -0.166174 -0.69182 0.664289 -0.283029 
0.932368 0.361449 -0.00665571 -0.862359 0.421832 -0.279989 -0.891479 0.317315 -0.323384 
0.973702 0.226607 -0.0235285 -0.911659 0.143992 -0.384894 -0.877479 0.123076 -0.463554 
0.992526 0.0496522 -0.111472 -0.897037 -0.0687144 -0.436581 -0.847828 -0.0812365 -0.524012 
0.956685 -0.16134 -0.242327 -0.818672 -0.299534 -0.489954 -0.816494 -0.305324 -0.490015 
-0.815152 -0.299876 -0.495583 0.831574 -0.420254 -0.363141 0.626792 -0.598427 -0.499015 
0.574743 -0.439929 -0.690024 -0.738608 -0.456864 -0.495715 -0.671532 -0.522425 -0.525469 
-0.612639 -0.466527 -0.637986 0.621908 -0.601765 -0.501109 0.50027 -0.676952 -0.539876 
0.391318 -0.59794 -0.699526 -0.629015 -0.550852 -0.548545 -0.506906 -0.640572 -0.576814 
-0.453763 -0.527383 -0.718308 0.47852 -0.675391 -0.561129 0.420184 -0.698829 -0.578863 
0.373281 -0.613698 -0.695727 0.26632 -0.765328 -0.585958 0.204611 -0.482608 -0.851601 
0.07792 -0.437952 -0.895615 -0.00242761 -0.476883 -0.878963 -0.0200415 -0.445219 -0.895197 
-0.0377163 -0.400919 -0.915337 -0.0827067 -0.428607 -0.899698 -0.288735 -0.730889 -0.618412 
-0.17432 -0.530458 -0.829594 -0.457392 -0.669892 -0.584839 -0.3868 -0.709583 -0.588963 
-0.355025 -0.632847 -0.688085 0.235794 -0.775849 -0.585201 0.133852 -0.793238 -0.594018 
0.122247 -0.738781 -0.662765 0.0380953 -0.770548 -0.636243 0.0193381 -0.703744 -0.710191 
0.020862 -0.73432 -0.678482 0.0102716 -0.668354 -0.743772 -0.0373095 -0.734125 -0.677989 
-0.0270263 -0.65532 -0.754867 -0.247452 -0.740475 -0.624872 -0.180081 -0.749559 -0.63697 
-0.166292 -0.696934 -0.697589 0.320803 0.854506 -0.408541 0.170512 0.912912 -0.370833 
0.0906644 0.930497 -0.354903 -0.00243459 0.923446 -0.38372 -0.101241 0.887317 -0.449909 
-0.173137 0.838367 -0.516879 -0.130821 0.836455 -0.532193 -0.112558 0.850907 -0.513116 
0.432442 0.788536 -0.43727 0.539306 0.686942 -0.487092 0.339773 0.769033 -0.541426 
0.173949 0.684905 -0.707564 0.0726022 0.647103 -0.758938 -0.040373 0.608284 -0.792692 
-0.145727 0.613044 -0.776493 -0.175864 0.686398 -0.705641 -0.124232 0.757306 -0.641135 
-0.235995 0.835188 -0.496757 -0.111113 0.812895 -0.571713 -0.258746 0.828757 -0.496198 
-0.477393 0.70524 -0.52415 0.697322 0.499494 -0.51405 0.772368 0.350892 -0.529455 
0.51769 0.403168 -0.754621 -0.0549149 0.306167 -0.950392 -0.0350956 0.38244 -0.923314 
-0.224604 0.426029 -0.876386 -0.590996 0.59931 -0.539955 -0.449862 0.542139 -0.709725 
-0.674915 0.462658 -0.574838 0.800732 0.281068 -0.528988 0.744879 0.277127 -0.606924 
0.379812 0.0889578 -0.920777 -0.352224 0.232667 -0.906534 -0.720097 0.318967 -0.616214 
-0.636862 0.293599 -0.712886 0.789556 0.132176 -0.599275 0.622651 0.0997534 -0.776116 
0.269003 0.00792547 -0.963107 -0.246233 -0.0118474 -0.969138 -0.728877 0.0678618 -0.681273 
-0.575873 0.0407145 -0.816525 0.729957 -0.0513809 -0.681559 0.571471 -0.0845773 -0.816252 
0.242953 -0.116056 -0.963071 -0.0111673 -0.133255 -0.991019 0.0873685 -0.0631881 -0.99417 
-0.00965778 -0.0895529 -0.995935 -0.0631183 -0.113305 -0.991553 -0.250882 -0.160479 -0.954623 
-0.685169 -0.11348 -0.71949 -0.551504 -0.131541 -0.823735 0.647846 -0.227178 -0.727108 
0.545596 -0.346391 -0.763111 0.549215 -0.258664 -0.794642 0.250542 -0.259294 -0.932735 
0.063157 -0.243475 -0.967849 0.0490083 -0.184136 -0.981678 0.161929 -0.179215 -0.970392 
-0.0840306 -0.220822 -0.971688 0.182288 -0.259313 -0.948434 -0.109144 -0.182087 -0.977206 
-0.120423 -0.238057 -0.963757 -0.287574 -0.290125 -0.912759 -0.609843 -0.308922 -0.729834 
-0.56557 -0.364724 -0.739667 -0.548014 -0.308347 -0.777562 0.448033 -0.421584 -0.788374 
0.341417 -0.500848 -0.795353 0.298992 -0.385861 -0.872763 0.108985 -0.355434 -0.928326 
0.0474579 -0.294265 -0.954545 0.130312 -0.312362 -0.940983 -0.00391154 -0.344868 -0.938643 
-0.100912 -0.179286 -0.978608 0.0343676 -0.351494 -0.935559 -0.00326335 -0.410378 -0.911909 
-0.0906583 -0.329926 -0.939643 -0.169153 -0.357465 -0.91848 -0.451138 -0.434085 -0.779772 
-0.388535 -0.451716 -0.803115 -0.356161 -0.40892 -0.840199 0.226571 -0.483822 -0.845329 
0.207612 -0.47128 -0.8572 0.18965 -0.457678 -0.868656 0.153659 -0.401437 -0.902905 
0.11681 -0.355133 -0.927489 0.0798115 -0.410733 -0.908256 0.0945836 -0.307425 -0.94686 
-0.00172085 -0.466799 -0.884362 0.015744 -0.390545 -0.920449 -0.0292306 -0.423149 -0.905588 
-0.0786142 -0.324311 -0.942678 -0.0392893 -0.372386 -0.927246 -0.0445542 -0.317209 -0.947309 
-0.0543052 -0.395317 -0.916938 -0.0160301 -0.368938 -0.929316 -0.114348 -0.435713 -0.892793 
-0.0808984 -0.387107 -0.918479 -0.265728 -0.459799 -0.847333 -0.240999 -0.464007 -0.852418 
-0.228593 -0.445431 -0.865642 0.255023 0.320594 -0.912241 0.156698 0.456536 -0.875797 
0.0642528 0.532659 -0.843887 -0.0465212 0.524182 -0.850334 -0.131184 0.396978 -0.908405 
-0.12254 0.310025 -0.942798 0.303628 0.280358 -0.910609 0.245074 0.254499 -0.935505 
0.134679 0.221183 -0.965888 0.00552403 0.165727 -0.986156 -0.0554334 0.151352 -0.986924 
-0.105337 0.182558 -0.977536 -0.0629136 0.291274 -0.954569 -0.107591 0.22192 -0.969111 
-0.043326 0.267045 -0.96271 -0.0328179 0.366509 -0.929836 -0.191619 0.287425 -0.93844 
0.273826 0.0358124 -0.961112 0.192596 0.00925939 -0.981234 0.0984504 -0.0927469 -0.990811 
0.009399 -0.12159 -0.992536 -0.0386647 -0.107989 -0.9934 -0.08826 -0.0576216 -0.994429 
-0.0582918 -0.0259496 -0.997962 0.0319428 0.0203349 -0.999283 0.0106704 0.0357 -0.999306 
-0.255832 0.164754 -0.952579 -0.136092 0.0860897 -0.986949 0.172216 -0.018687 -0.984882 
0.0806117 -0.049737 -0.995504 -0.0115818 -0.145393 -0.989306 -0.011005 -0.165204 -0.986198 
0.0738541 -0.0788441 -0.994147 -0.00304011 -0.16482 -0.986319 0.0117427 -0.0826698 -0.996508 
-0.0201006 -0.0931933 -0.995445 -0.030499 0.010004 -0.999485 0.0179452 -0.0506406 -0.998556 
-0.00923582 -0.089533 -0.995941 0.0275655 -0.0880607 -0.995734 -0.220981 -0.0189653 -0.975094 
-0.0624546 -0.111714 -0.991776 -0.0449393 -0.0691498 -0.996594 0.0471061 -0.125001 -0.991038 
0.0211551 -0.127049 -0.991671 0.0304508 -0.133566 -0.990572 0.0279785 -0.125333 -0.99172 
0.0827289 -0.0553797 -0.995032 0.0307193 0.0277161 -0.999144 -0.00721007 -0.184868 -0.982737 
0.00479395 -0.174134 -0.98471 0.175643 -0.251347 -0.951827 -0.0142203 -0.0170563 -0.999753 
-0.0125582 -0.0839104 -0.996394 -0.067606 0.0237505 -0.997429 0.0810356 -0.168614 -0.982345 
-0.0945482 -0.172391 -0.980481 -0.0586828 -0.240386 -0.968902 -0.099866 -0.139598 -0.985159 
0.168969 -0.252842 -0.952639 -0.0747667 -0.158979 -0.984447 -0.039869 -0.204012 -0.978156 
-0.052506 -0.141688 -0.988518 
