# vtk DataFile Version 4.2
vtk output
ASCII
DATASET POLYDATA
POINTS 482 float
-4.06092 -35.1906 -20.0444 3.78799 -35.1906 -20.8053 11.6369 -35.1906 -19.7568 
-19.7587 -27.3417 -19.7956 -11.9098 -27.3417 -21.759 -4.06092 -27.3417 -22.9934 
3.78799 -27.3417 -23.497 11.6369 -27.3417 -23.2898 19.4858 -27.3417 -22.1366 
27.3347 -27.3417 -20.3289 -35.4565 -19.4928 -17.8006 -27.6076 -19.4928 -20.6323 
-19.7587 -19.4928 -21.9162 -11.9098 -19.4928 -22.8944 -4.06092 -19.4928 -23.571 
3.78799 -19.4928 -24.2097 11.6369 -19.4928 -24.4363 19.4858 -19.4928 -24.3795 
27.3347 -19.4928 -23.9604 35.1836 -19.4928 -22.3719 -35.4565 -11.6439 -20.4869 
-27.6076 -11.6439 -22.0638 -19.7587 -11.6439 -22.6815 -11.9098 -11.6439 -22.8191 
-4.06092 -11.6439 -22.8801 3.78799 -11.6439 -23.85 11.6369 -11.6439 -25.0229 
19.4858 -11.6439 -25.3536 27.3347 -11.6439 -25.4026 35.1836 -11.6439 -25.2408 
43.0325 -11.6439 -21.9953 -35.4565 -3.79497 -21.0097 -27.6076 -3.79497 -22.5688 
-19.7587 -3.79497 -22.8605 -11.9098 -3.79497 -23.5014 -4.06092 -3.79497 -23.3885 
3.78799 -3.79497 -24.2179 11.6369 -3.79497 -24.9206 19.4858 -3.79497 -25.064 
27.3347 -3.79497 -25.6142 35.1836 -3.79497 -25.4826 43.0325 -3.79497 -23.3922 
-35.4565 4.05394 -20.6062 -27.6076 4.05394 -22.2176 -19.7587 4.05394 -22.5281 
-11.9098 4.05394 -23.406 -4.06092 4.05394 -23.8684 3.78799 4.05394 -23.7932 
11.6369 4.05394 -23.1869 19.4858 4.05394 -23.8885 27.3347 4.05394 -24.7899 
35.1836 4.05394 -24.8906 43.0325 4.05394 -23.0915 -35.4565 11.9028 -19.7157 
-27.6076 11.9028 -21.5796 -19.7587 11.9028 -22.4982 -11.9098 11.9028 -23.0011 
-4.06092 11.9028 -23.1375 3.78799 11.9028 -23.0291 11.6369 11.9028 -23.0052 
19.4858 11.9028 -23.7296 27.3347 11.9028 -24.3622 35.1836 11.9028 -23.8741 
43.0325 11.9028 -21.186 -27.6076 19.7517 -20.9977 -19.7587 19.7517 -22.6731 
-11.9098 19.7517 -23.8831 -4.06092 19.7517 -23.9772 3.78799 19.7517 -23.9907 
11.6369 19.7517 -24.0809 19.4858 19.7517 -24.0507 27.3347 19.7517 -22.849 
35.1836 19.7517 -21.1622 -27.6076 27.6007 -18.2331 -19.7587 27.6007 -21.3931 
-11.9098 27.6007 -23.1034 -4.06092 27.6007 -23.7405 3.78799 27.6007 -23.7159 
11.6369 27.6007 -23.4198 19.4858 27.6007 -22.4694 27.3347 27.6007 -19.7415 
-11.9098 35.4496 -19.4947 -4.06092 35.4496 -20.9027 3.78799 35.4496 -20.7691 
11.6369 35.4496 -19.2935 -4.06092 -37.7082 -17.789 3.78799 -38.7311 -17.789 
11.6369 -37.5427 -17.789 -19.7587 -30.7699 -17.789 -19.7587 -35.1906 -12.6397 
-11.7904 -35.1906 -17.789 -11.9098 -35.1311 -17.789 -11.9098 -35.1906 -17.7308 
18.1565 -35.1906 -17.789 19.4858 -34.5709 -17.789 19.4858 -35.1906 -17.1063 
27.3347 -30.8388 -17.789 27.3347 -35.1906 -10.6467 -35.4565 -19.5126 -17.789 
-35.4565 -27.3417 -10.2954 -25.8741 -27.3417 -17.789 -27.6076 -26.0533 -17.789 
-27.6076 -27.3417 -17.0009 33.8206 -27.3417 -17.789 35.1836 -26.5173 -17.789 
35.1836 -27.3417 -16.5058 -35.4755 -19.4928 -17.789 -43.3054 -19.4928 -10.4087 
42.568 -19.4928 -17.789 43.0325 -18.9539 -17.789 43.0325 -19.4928 -16.7964 
-40.7769 -11.6439 -17.789 -43.3054 -11.6439 -15.7448 47.4492 -11.6439 -17.789 
-43.0869 -3.79497 -17.789 -43.3054 -3.79497 -17.6599 49.9276 -3.79497 -17.789 
50.8814 -3.79497 -14.707 -41.9579 4.05394 -17.789 -43.3054 4.05394 -16.9908 
49.9216 4.05394 -17.789 50.8814 4.05394 -15.3945 -39.1872 11.9028 -17.789 
-43.3054 11.9028 -14.6363 -35.4565 18.8575 -17.789 47.0361 11.9028 -17.789 
43.0325 17.8926 -17.789 -43.3054 19.7517 -10.1984 -34.8597 19.7517 -17.789 
-35.4565 19.7517 -17.465 41.2857 19.7517 -17.789 35.1836 24.966 -17.789 
43.0325 19.7517 -15.8316 -28.3553 27.6007 -17.789 -35.4565 27.6007 -11.5395 
-27.6076 28.1911 -17.789 -19.7587 33.6122 -17.789 19.4858 34.1206 -17.789 
31.4387 27.6007 -17.789 27.3347 30.039 -17.789 35.1836 27.6007 -14.3114 
-16.5521 35.4496 -17.789 -19.7587 35.4496 -15.6057 -11.9098 37.1434 -17.789 
-4.06092 38.5831 -17.789 3.78799 38.4201 -17.789 16.2987 35.4496 -17.789 
11.6369 36.9001 -17.789 19.4858 35.4496 -15.7073 -19.7587 -36.5374 -9.94012 
-11.9098 -39.522 -9.94012 -4.06092 -41.9205 -9.94012 3.78799 -43.0116 -9.94012 
11.6369 -42.3226 -9.94012 19.4858 -39.2859 -9.94012 27.3347 -35.4927 -9.94012 
-35.4565 -27.5605 -9.94012 -22.6774 -35.1906 -9.94012 -27.6076 -32.7559 -9.94012 
27.807 -35.1906 -9.94012 27.3347 -35.1906 -7.80099 35.1836 -30.157 -9.94012 
-35.7189 -27.3417 -9.94012 -43.3054 -19.8562 -9.94012 38.6174 -27.3417 -9.94012 
43.0325 -22.319 -9.94012 -43.5959 -19.4928 -9.94012 45.0574 -19.4928 -9.94012 
43.0325 -19.4928 -2.4727 -47.5653 -11.6439 -9.94012 49.4514 -11.6439 -9.94012 
50.8814 -7.29128 -9.94012 -49.1149 -3.79497 -9.94012 51.959 -3.79497 -9.94012 
50.8814 -3.79497 -2.9288 -48.8153 4.05394 -9.94012 52.4169 4.05394 -9.94012 
50.8814 10.7988 -9.94012 -46.9861 11.9028 -9.94012 50.6164 11.9028 -9.94012 
-43.4813 19.7517 -9.94012 -43.3054 20.0043 -9.94012 46.1263 19.7517 -9.94012 
43.0325 23.1792 -9.94012 -36.7249 27.6007 -9.94012 -35.4565 28.749 -9.94012 
-27.6076 34.3828 -9.94012 27.3347 34.5589 -9.94012 38.0378 27.6007 -9.94012 
35.1836 29.7673 -9.94012 -25.5832 35.4496 -9.94012 -19.7587 38.2417 -9.94012 
-11.9098 40.8298 -9.94012 -4.06092 41.9823 -9.94012 3.78799 41.7248 -9.94012 
11.6369 40.3178 -9.94012 25.3835 35.4496 -9.94012 19.4858 37.8762 -9.94012 
-19.7587 -36.6122 -2.09121 -11.9098 -39.6071 -2.09121 -4.06092 -41.9991 -2.09121 
3.78799 -43.0336 -2.09121 11.6369 -42.0552 -2.09121 19.4858 -38.8381 -2.09121 
-35.4565 -28.0064 -2.09121 -22.8517 -35.1906 -2.09121 -27.6076 -32.8988 -2.09121 
-19.7587 -35.1906 3.57231 25.9137 -35.1906 -2.09121 27.3347 -34.2869 -2.09121 
35.1836 -28.1123 -2.09121 -36.317 -27.3417 -2.09121 -43.3054 -20.9465 -2.09121 
-35.4565 -27.3417 0.497206 36.0431 -27.3417 -2.09121 35.1836 -27.3417 -0.854135 
-44.5438 -19.4928 -2.09121 -43.3054 -19.4928 5.62189 42.912 -19.4928 -2.09121 
43.0325 -19.3345 -2.09121 -49.2172 -11.6439 -2.09121 47.651 -11.6439 -2.09121 
-51.1357 -3.79497 -2.09121 -51.1544 -3.79497 0.465995 50.7344 -3.79497 -2.09121 
50.8814 -2.52258 -2.09121 -51.1091 4.05394 -2.09121 -51.1544 4.05394 -0.630015 
51.5612 4.05394 -2.09121 50.8814 8.11464 -2.09121 50.8814 4.05394 0.114542 
-49.4696 11.9028 -2.09121 50.236 11.9028 -2.09121 -45.6781 19.7517 -2.09121 
-43.3054 23.0623 -2.09121 46.1668 19.7517 -2.09121 43.0325 23.3458 -2.09121 
-39.0654 27.6007 -2.09121 -35.4565 30.6332 -2.09121 -27.6076 35.3693 -2.09121 
27.3347 34.5926 -2.09121 38.3866 27.6007 -2.09121 35.1836 29.9978 -2.09121 
-27.436 35.4496 -2.09121 -19.7587 38.8049 -2.09121 -11.9098 41.121 -2.09121 
-4.06092 42.0042 -2.09121 3.78799 41.5074 -2.09121 11.6369 40.0477 -2.09121 
25.354 35.4496 -2.09121 19.4858 37.789 -2.09121 -11.9098 -37.9517 5.7577 
-4.06092 -40.428 5.7577 3.78799 -41.2193 5.7577 11.6369 -39.7109 5.7577 
19.4858 -35.7827 5.7577 -27.6076 -30.8283 5.7577 -18.4513 -35.1906 5.7577 
-19.7587 -34.6104 5.7577 20.3564 -35.1906 5.7577 19.4858 -35.1906 6.99224 
27.3347 -29.8997 5.7577 -33.3892 -27.3417 5.7577 -35.4565 -25.9808 5.7577 
30.1578 -27.3417 5.7577 27.3347 -27.3417 9.46161 35.1836 -22.2758 5.7577 
-43.2792 -19.4928 5.7577 -43.3054 -19.463 5.7577 37.7732 -19.4928 5.7577 
35.1836 -19.4928 8.95822 43.0325 -12.2208 5.7577 -48.8014 -11.6439 5.7577 
-51.1544 -3.94222 5.7577 43.3834 -11.6439 5.7577 43.0325 -11.6439 6.29627 
-51.1925 -3.79497 5.7577 -51.1544 -3.79497 5.90556 47.3529 -3.79497 5.7577 
-51.3455 4.05394 5.7577 -51.1544 5.07226 5.7577 -51.1544 4.05394 6.51353 
48.9987 4.05394 5.7577 -49.6902 11.9028 5.7577 48.22 11.9028 5.7577 
-45.6548 19.7517 5.7577 -43.3054 22.8035 5.7577 -43.3054 19.7517 12.0888 
44.2454 19.7517 5.7577 43.0325 21.1802 5.7577 43.0325 19.7517 7.95347 
-38.385 27.6007 5.7577 -35.4565 29.933 5.7577 -35.4565 27.6007 11.0468 
-27.6076 34.379 5.7577 27.3347 32.5807 5.7577 35.9661 27.6007 5.7577 
35.1836 28.1767 5.7577 35.1836 27.6007 6.87019 -24.9831 35.4496 5.7577 
-19.7587 37.4881 5.7577 -19.7587 35.4496 9.82646 -11.9098 39.4222 5.7577 
-11.9098 35.4496 12.275 -4.06092 39.957 5.7577 -4.06092 35.4496 12.5732 
3.78799 39.2597 5.7577 3.78799 35.4496 11.7157 11.6369 37.7949 5.7577 
11.6369 35.4496 9.81976 20.0925 35.4496 5.7577 19.4858 35.6721 5.7577 
19.4858 35.4496 6.19915 -11.9098 -35.312 13.6066 -4.06092 -37.7749 13.6066 
3.78799 -38.3725 13.6066 11.6369 -36.4813 13.6066 -27.6076 -27.7274 13.6066 
-12.1942 -35.1906 13.6066 -19.7587 -31.5985 13.6066 -11.9098 -35.1906 13.8273 
-4.06092 -35.1906 17.8665 3.78799 -35.1906 18.7898 14.0998 -35.1906 13.6066 
11.6369 -35.1906 15.8704 19.4858 -31.7356 13.6066 -28.2721 -27.3417 13.6066 
-35.4565 -22.8175 13.6066 -27.6076 -27.3417 14.2619 -19.7587 -27.3417 19.9261 
24.2821 -27.3417 13.6066 19.4858 -27.3417 19.6781 27.3347 -23.8083 13.6066 
-39.6555 -19.4928 13.6066 -43.3054 -15.5711 13.6066 -35.4565 -19.4928 18.3611 
31.1836 -19.4928 13.6066 27.3347 -19.4928 17.7915 35.1836 -14.316 13.6066 
-46.179 -11.6439 13.6066 -43.3054 -11.6439 17.6287 37.1872 -11.6439 13.6066 
35.1836 -11.6439 15.6728 43.0325 -3.91032 13.6066 -48.9478 -3.79497 13.6066 
-43.3054 -3.79497 21.2525 35.1836 -3.79497 20.1782 43.1001 -3.79497 13.6066 
43.0325 -3.79497 13.6882 -49.128 4.05394 13.6066 -43.3054 4.05394 21.1966 
44.8366 4.05394 13.6066 43.0325 4.05394 15.787 -47.1811 11.9028 13.6066 
-43.3054 18.7403 13.6066 -43.3054 11.9028 18.4298 35.1836 11.9028 20.1348 
44.192 11.9028 13.6066 43.0325 14.1057 13.6066 43.0325 11.9028 15.0217 
-42.5381 19.7517 13.6066 -35.4565 26.2672 13.6066 -35.4565 19.7517 19.8161 
27.3347 19.7517 19.8614 38.7827 19.7517 13.6066 35.1836 23.0465 13.6066 
35.1836 19.7517 16.5528 -33.3752 27.6007 13.6066 -27.6076 30.68 13.6066 
-27.6076 27.6007 17.159 -19.7587 33.1489 13.6066 -19.7587 27.6007 18.7965 
-11.9098 34.4011 13.6066 -11.9098 27.6007 19.3976 -4.06092 34.4803 13.6066 
-4.06092 27.6007 19.1766 3.78799 33.9284 13.6066 3.78799 27.6007 19.5965 
11.6369 32.8219 13.6066 11.6369 27.6007 19.0519 19.4858 31.04 13.6066 
19.4858 27.6007 17.0872 27.6587 27.6007 13.6066 27.3347 27.7706 13.6066 
27.3347 27.6007 13.7869 -11.9098 -29.4694 21.4555 -4.06092 -32.0585 21.4555 
[...]
POINT_DATA 482
SCALARS ImageScalars float
LOOKUP_TABLE default
0 0 0 0 0 0 0 0 0 
0 0 0 0 0 0 0 0 0 
0 0 0 0 0 0 0 0 0 
0 0 0 0 0 0 0 0 0 
0 0 0 0 0 0 0 0 0 
0 0 0 0 0 0 0 0 0 
0 0 0 0 0 0 0 0 0 
0 0 0 0 0 0 0 0 0 
0 0 0 0 0 0 0 0 0 
0 0 0 0 0 0 0 0 0 
0 0 0 0 0 0 0 0 0 
0 0 0 0 0 0 0 0 0 
0 0 0 0 0 0 0 0 0 
0 0 0 0 0 0 0 0 0 
0 0 0 0 0 0 0 0 0 
0 0 0 0 0 0 0 0 0 
0 0 0 0 0 0 0 0 0 
0 0 0 0 0 0 0 0 0 
0 0 0 0 0 0 0 0 0 
0 0 0 0 0 0 0 0 0 
0 0 0 0 0 0 0 0 0 
0 0 0 0 0 0 0 0 0 
0 0 0 0 0 0 0 0 0 
0 0 0 0 0 0 0 0 0 
0 0 0 0 0 0 0 0 0 
0 0 0 0 0 0 0 0 0 
0 0 0 0 0 0 0 0 0 
0 0 0 0 0 0 0 0 0 
0 0 0 0 0 0 0 0 0 
0 0 0 0 0 0 0 0 0 
0 0 0 0 0 0 0 0 0 
0 0 0 0 0 0 0 0 0 
0 0 0 0 0 0 0 0 0 
0 0 0 0 0 0 0 0 0 
0 0 0 0 0 0 0 0 0 
0 0 0 0 0 0 0 0 0 
0 0 0 0 0 0 0 0 0 
0 0 0 0 0 0 0 0 0 
0 0 0 0 0 0 0 0 0 
0 0 0 0 0 0 0 0 0 
0 0 0 0 0 0 0 0 0 
0 0 0 0 0 0 0 0 0 
0 0 0 0 0 0 0 0 0 
0 0 0 0 0 0 0 0 0 
0 0 0 0 0 0 0 0 0 
0 0 0 0 0 0 0 0 0 
0 0 0 0 0 0 0 0 0 
0 0 0 0 0 0 0 0 0 
0 0 0 0 0 0 0 0 0 
0 0 0 0 0 0 0 0 0 
0 0 0 0 0 0 0 0 0 
0 0 0 0 0 0 0 0 0 
0 0 0 0 0 0 0 0 0 
0 0 0 0 0 
NORMALS Normals float
0.169027 0.566612 0.806462 -0.0165028 0.530119 0.847762 -0.17872 0.574801 0.798538 
0.262475 0.383493 0.88546 0.188727 0.27803 0.94185 0.109032 0.196059 0.974512 
0.0189281 0.19208 0.981197 -0.0825511 0.27245 0.958622 -0.169815 0.371929 0.912596 
-0.266997 0.544927 0.794838 0.432368 0.427385 0.793977 0.228616 0.265601 0.936585 
0.13499 0.169128 0.976306 0.104784 0.0666617 0.992258 0.082234 -0.00796482 0.996581 
0.0552067 0.0233253 0.998202 0.0106465 0.104579 0.99446 -0.0295362 0.190488 0.981245 
-0.111217 0.289495 0.950696 -0.336765 0.429179 0.83809 0.325566 0.171264 0.929879 
0.13769 0.11321 0.983984 0.047457 0.058543 0.997156 0.0125931 0.0387172 0.999171 
0.0640168 -0.0122261 0.997874 0.137543 2.79598e-05 0.990496 0.0936193 0.0315503 0.995108 
0.0242783 0.0444998 0.998714 -0.0059064 0.101134 0.994855 -0.173555 0.171174 0.969834 
-0.547281 0.300079 0.781304 0.29118 0.00867052 0.956629 0.11289 0.00953459 0.993562 
0.0590174 -0.00953762 0.998211 0.0338825 0.0375523 0.99872 0.0451661 0.0636186 0.996952 
0.0967805 -0.00347343 0.9953 0.0528988 -0.11673 0.991754 0.0442823 -0.0931901 0.994663 
0.025519 -0.0381963 0.998944 -0.124163 -0.0250106 0.991947 -0.439421 0.0543916 0.896633 
0.298633 -0.0800861 0.951002 0.116618 -0.0619998 0.99124 0.0755033 -0.0231598 0.996877 
0.0851703 -0.0321862 0.995846 0.0248247 -0.0168819 0.999549 -0.0439051 -0.0764051 0.99611 
0.00688228 -0.121332 0.992588 0.101655 -0.0831667 0.991337 0.0635705 -0.0790596 0.994841 
-0.0964681 -0.0973389 0.990565 -0.406681 -0.119207 0.905759 0.350512 -0.170367 0.920932 
0.172715 -0.0736026 0.982218 0.0892115 0.00886886 0.995973 0.0406138 0.0286155 0.998765 
0.00177712 0.00747209 0.99997 -0.0084315 0.0140166 0.999866 0.0420913 0.0565245 0.997514 
0.0874671 0.00977892 0.996119 0.00992482 -0.125433 0.992052 -0.175697 -0.229473 0.957326 
-0.478992 -0.338866 0.809776 0.291488 -0.177896 0.939887 0.1722 -0.0594953 0.983264 
0.0817836 0.00968148 0.996603 0.00663336 0.0379901 0.999256 0.00658154 0.0433838 0.999037 
0.00393703 0.0297902 0.999548 -0.0772726 -0.0639239 0.994959 -0.16489 -0.256054 0.952495 
-0.333723 -0.42475 0.841556 0.428929 -0.477517 0.76681 0.27371 -0.315259 0.908677 
0.139568 -0.239988 0.960691 0.0360755 -0.160879 0.986315 -0.0188392 -0.166559 0.985852 
-0.0736625 -0.25888 0.963097 -0.210885 -0.381343 0.900058 -0.348824 -0.540634 0.76553 
0.227346 -0.645309 0.729308 0.0702683 -0.590895 0.803682 -0.0867885 -0.604437 0.791912 
-0.214477 -0.683847 0.69739 0.183912 0.700044 0.690011 -0.00472635 0.718425 0.695589 
-0.196394 0.67345 0.712667 0.32689 0.543044 0.773464 0.389231 0.841329 0.375053 
0.279802 0.663387 0.693994 0.280959 0.661631 0.695203 0.281971 0.666251 0.690363 
-0.283667 0.676271 0.679846 -0.293197 0.671786 0.68025 -0.313147 0.713208 0.627115 
-0.351346 0.658405 0.665627 -0.49837 0.850453 0.168394 0.4327 0.427975 0.793479 
0.609465 0.737624 0.290627 0.355498 0.51397 0.780677 0.355517 0.503231 0.787633 
0.391487 0.571712 0.721029 -0.450187 0.670768 0.589409 -0.475612 0.666111 0.574534 
-0.509979 0.711945 0.482759 0.433011 0.427639 0.79349 0.761128 0.554299 0.336804 
-0.642023 0.569273 0.51355 -0.654084 0.560497 0.507953 -0.684343 0.581574 0.439826 
0.523524 0.235274 0.818882 0.67037 0.277646 0.688125 -0.785751 0.357742 0.504595 
0.566964 0.0459908 0.822458 0.578803 0.0479967 0.814053 -0.854174 0.125373 0.504647 
-0.942245 0.152635 0.298121 0.523707 -0.12125 0.843226 0.592937 -0.132442 0.794283 
-0.823139 -0.135277 0.551492 -0.916596 -0.118205 0.38194 0.477022 -0.21583 0.851979 
0.684519 -0.277257 0.674212 0.464825 -0.324561 0.82377 -0.69763 -0.375686 0.610059 
-0.585383 -0.504686 0.634522 0.770267 -0.481049 0.418665 0.465577 -0.333357 0.819824 
0.48474 -0.35008 0.801543 -0.552768 -0.527769 0.644909 -0.448785 -0.603327 0.659233 
-0.636361 -0.578613 0.510149 0.444058 -0.488391 0.751191 0.623462 -0.651283 0.432579 
0.436597 -0.500619 0.747505 0.37545 -0.630869 0.679001 -0.314498 -0.706723 0.633746 
-0.421342 -0.627345 0.654912 -0.381807 -0.643506 0.663418 -0.523733 -0.733352 0.433473 
0.327937 -0.692557 0.642513 0.392271 -0.759656 0.518698 0.236591 -0.725309 0.646492 
0.072164 -0.772101 0.631389 -0.0953456 -0.775025 0.624697 -0.283283 -0.734689 0.616428 
-0.222121 -0.748688 0.624602 -0.334633 -0.804865 0.490115 0.386463 0.895268 0.221679 
0.322004 0.920001 0.22341 0.209898 0.954264 0.212893 0.026524 0.9787 0.203577 
-0.214365 0.955238 0.203885 -0.3914 0.901034 0.186935 -0.500669 0.856257 0.127098 
0.610588 0.744414 0.27024 0.419461 0.878795 0.227534 0.4815 0.83725 0.25917 
-0.506936 0.852818 0.125367 -0.519643 0.854029 0.0245884 -0.600266 0.796606 0.0714084 
0.614819 0.740521 0.271343 0.763378 0.565628 0.311961 -0.664285 0.745779 0.0503916 
-0.785236 0.618986 0.016149 0.769495 0.556203 0.313873 -0.833496 0.552525 0.000848143 
-0.755197 0.574496 -0.315644 0.8737 0.317464 0.368599 -0.922343 0.386285 -0.00821402 
-0.963391 0.267911 0.0100358 0.911289 0.0687313 0.405991 -0.98353 0.177722 0.0329327 
-0.948556 0.226724 -0.220992 0.893702 -0.118578 0.432707 -0.993809 -0.0804011 0.0766781 
-0.944857 -0.304921 0.119453 0.843696 -0.300994 0.444499 -0.930376 -0.342999 0.12943 
0.774848 -0.482213 0.408757 0.77145 -0.488329 0.407921 -0.763078 -0.618522 0.187465 
-0.6957 -0.693642 0.186712 0.647759 -0.67087 0.361029 0.626131 -0.69501 0.353442 
0.484583 -0.82451 0.292169 -0.462772 -0.863966 0.198506 -0.60179 -0.773426 0.199152 
-0.557139 -0.805411 0.202261 0.451682 -0.850399 0.269822 0.376377 -0.894661 0.240671 
0.221047 -0.9518 0.212637 0.0542172 -0.982159 0.180069 -0.101736 -0.981895 0.159784 
-0.234389 -0.958369 0.163065 -0.432538 -0.881514 0.189326 -0.338228 -0.924654 0.174974 
0.385585 0.916578 -0.105876 0.326639 0.940684 -0.0917673 0.207832 0.974005 -0.0901113 
0.00722744 0.994004 -0.1091 -0.243418 0.958577 -0.14791 -0.441115 0.880134 -0.175449 
0.58783 0.804999 -0.0802002 0.416545 0.902346 -0.110732 0.472348 0.874697 -0.108589 
0.403414 0.887496 -0.222729 -0.524092 0.818053 -0.23689 -0.542077 0.801855 -0.251359 
-0.639132 0.692879 -0.33381 0.602646 0.794513 -0.0746074 0.76393 0.645059 -0.0176037 
0.578458 0.803447 -0.140923 -0.650357 0.679842 -0.338895 -0.639014 0.67645 -0.366164 
0.792278 0.610107 -0.00808036 0.725703 0.655294 -0.209631 -0.749068 0.573021 -0.332481 
-0.7514 0.570085 -0.332266 0.927212 0.36836 0.0677326 -0.857602 0.403082 -0.319442 
0.986921 0.107704 0.119942 0.992104 0.118796 0.0402194 -0.939207 0.231854 -0.253245 
-0.950787 0.189124 -0.245432 0.98463 -0.0971764 0.145123 0.990705 -0.0952264 0.097135 
-0.978281 -0.0309759 -0.204953 -0.971256 -0.163548 -0.172958 -0.967572 -0.0163637 -0.252065 
0.937845 -0.314549 0.146652 -0.94712 -0.288783 -0.139888 0.846343 -0.519592 0.117166 
0.789432 -0.604846 0.104685 -0.79861 -0.593876 -0.0976409 -0.722849 -0.685644 -0.0859126 
0.67349 -0.735439 0.0744303 0.596795 -0.800509 0.054957 0.448285 -0.893881 -0.0042649 
-0.441172 -0.891458 -0.103291 -0.61539 -0.784143 -0.0800958 -0.558177 -0.825512 -0.0834794 
0.445504 -0.895264 -0.00536304 0.336936 -0.940495 -0.0440912 0.194353 -0.97753 -0.0816274 
0.0241698 -0.992664 -0.118463 -0.120974 -0.982171 -0.143895 -0.227176 -0.962825 -0.146149 
-0.41117 -0.904924 -0.109779 -0.326671 -0.936753 -0.12562 0.336976 0.907629 -0.250315 
0.192404 0.94814 -0.253005 -0.0364251 0.958987 -0.281099 -0.287858 0.902152 -0.321339 
-0.493592 0.789802 -0.364115 0.451683 0.846367 -0.282216 0.397803 0.877988 -0.266251 
0.406754 0.872086 -0.27206 -0.504691 0.779189 -0.371687 -0.501042 0.778862 -0.377267 
-0.588748 0.674136 -0.446001 0.523933 0.808415 -0.268253 0.553427 0.790844 -0.261313 
-0.607218 0.636664 -0.475337 -0.624669 0.617682 -0.477763 -0.632858 0.587743 -0.504033 
0.724053 0.655982 -0.213155 0.72494 0.655075 -0.212928 -0.663072 0.550703 -0.507012 
-0.644309 0.549721 -0.53167 -0.73839 0.447609 -0.504407 0.891847 0.422634 -0.161213 
0.981527 0.144135 -0.125814 -0.744561 0.440633 -0.501469 -0.73709 0.445744 -0.507947 
0.982314 0.139265 -0.12516 0.98162 0.139553 -0.13018 -0.853513 0.302116 -0.424547 
0.990102 -0.0848245 -0.111818 0.987001 -0.114218 -0.113063 0.986614 -0.0852925 -0.13899 
-0.923827 0.0381325 -0.380905 0.938511 -0.323427 -0.1208 -0.908275 -0.246328 -0.338171 
0.824292 -0.546362 -0.148432 0.763433 -0.62468 -0.164149 0.731524 -0.563849 -0.383336 
-0.755749 -0.573678 -0.315812 -0.725486 -0.612907 -0.313074 -0.719616 -0.575245 -0.388904 
0.626678 -0.754684 -0.194234 0.562898 -0.800126 -0.20723 0.536512 -0.751481 -0.383968 
0.405818 -0.880039 -0.246664 -0.405731 -0.849394 -0.337508 -0.549274 -0.775228 -0.31196 
-0.534453 -0.785055 -0.313126 -0.529265 -0.773414 -0.348869 0.363778 -0.892849 -0.265492 
0.289557 -0.909198 -0.299191 0.24612 -0.857973 -0.450897 0.145731 -0.920437 -0.362709 
0.0840452 -0.792886 -0.603546 -0.00933149 -0.915471 -0.402276 -0.0217276 -0.752597 -0.658123 
-0.127354 -0.903182 -0.409931 -0.0975642 -0.793989 -0.600052 -0.207303 -0.897456 -0.389355 
-0.176356 -0.84332 -0.507652 -0.297959 -0.887014 -0.352742 -0.289452 -0.889115 -0.354532 
-0.286728 -0.884676 -0.367608 0.334652 0.853221 -0.400028 0.174549 0.89082 -0.419491 
-0.068469 0.900805 -0.428791 -0.329121 0.845466 -0.420556 0.436535 0.797895 -0.415692 
0.337638 0.851981 -0.40016 0.400178 0.817204 -0.414772 0.334005 0.850136 -0.407075 
0.162492 0.80485 -0.5708 -0.0594937 0.794748 -0.604016 -0.394968 0.812731 -0.428332 
-0.32946 0.811682 -0.482317 -0.554111 0.704528 -0.443397 0.442756 0.795099 -0.414469 
0.525914 0.747438 -0.405894 0.433531 0.790394 -0.432815 0.338826 0.716067 -0.610283 
-0.62961 0.611137 -0.47969 -0.557341 0.598645 -0.575323 -0.64861 0.559922 -0.515551 
0.612936 0.685628 -0.392715 0.72586 0.561929 -0.39669 0.497043 0.652988 -0.57145 
-0.64703 0.524734 -0.553179 -0.649804 0.470946 -0.596629 -0.645918 0.491183 -0.584405 
0.801052 0.441495 -0.404226 0.704378 0.417672 -0.573935 -0.655304 0.47884 -0.584199 
-0.6313 0.454298 -0.628549 -0.741518 0.345942 -0.57487 0.896528 0.153507 -0.415539 
0.646042 0.129171 -0.752293 -0.524361 0.258304 -0.811372 -0.743118 0.343023 -0.574553 
-0.741232 0.343017 -0.576987 0.901253 -0.0945279 -0.422857 0.627318 -0.120014 -0.76946 
-0.809205 0.0593677 -0.584519 -0.743045 0.0613607 -0.666422 0.827295 -0.343538 -0.444483 
0.718725 -0.535724 -0.443209 0.677068 -0.334386 -0.655564 -0.391908 -0.244454 -0.886933 
-0.765967 -0.250823 -0.59193 -0.725756 -0.341043 -0.597468 -0.720568 -0.258406 -0.643435 
0.692456 -0.56497 -0.44868 0.511837 -0.709983 -0.48368 0.407682 -0.504252 -0.761266 
-0.283066 -0.443545 -0.850378 -0.577634 -0.551798 -0.601546 -0.494703 -0.630178 -0.598452 
-0.471809 -0.520643 -0.711567 0.463047 -0.734625 -0.495897 0.330146 -0.77552 -0.53812 
0.27484 -0.683535 -0.676198 0.185507 -0.766417 -0.614974 0.104251 -0.608292 -0.786837 
0.0638659 -0.748756 -0.659762 0.0192932 -0.5412 -0.840672 -0.0223227 -0.716316 -0.697419 
0.00880259 -0.578762 -0.815449 -0.0763647 -0.748925 -0.65824 -0.00351045 -0.647114 -0.762385 
-0.138117 -0.769309 -0.623768 -0.121215 -0.666214 -0.735843 -0.244166 -0.745783 -0.619832 
-0.241494 -0.650819 -0.719802 -0.360848 -0.707447 -0.607707 -0.356227 -0.709079 -0.60853 
-0.354944 -0.704603 -0.614451 0.26202 0.649507 -0.713783 0.14822 0.656276 -0.73982 
-0.0438291 0.681271 -0.730718 -0.300809 0.657846 -0.690472 0.388262 0.624123 -0.678029 
0.297395 0.664625 -0.685441 0.316052 0.668403 -0.673312 0.232258 0.587444 -0.77522 
0.128164 0.476487 -0.869789 -0.0203157 0.451061 -0.892262 -0.482587 0.586591 -0.650401 
-0.257661 0.539467 -0.801614 -0.545296 0.54329 -0.638348 0.422251 0.589261 -0.688821 
0.468659 0.499256 -0.728768 0.366682 0.543944 -0.754764 0.218684 0.45304 -0.864252 
0.0826531 0.380235 -0.921189 0.0290981 0.254109 -0.966738 0.0249719 0.200872 -0.979299 
-0.147914 0.253425 -0.95598 -0.606854 0.414186 -0.678364 -0.487991 0.346478 -0.801135 
-0.584561 0.322614 -0.744452 0.546667 0.364389 -0.753907 0.444228 0.334323 -0.831198 
0.298405 0.240521 -0.923636 0.177399 0.188488 -0.96592 -0.0687416 0.0942203 -0.993175 
-0.0124811 0.00614755 -0.999903 -0.0994277 0.0103714 -0.994991 -0.378705 0.0788469 -0.922153 
-0.565287 0.306423 -0.765869 -0.555295 0.275563 -0.784674 0.633413 0.126968 -0.763326 
0.376952 0.0822569 -0.922573 0.239415 0.0187411 -0.970737 -0.152753 -0.0654496 -0.986095 
-0.0529809 -0.0880187 -0.994709 -0.0854396 -0.0972353 -0.991587 -0.268688 -0.0850954 -0.959461 
-0.4724 0.20506 -0.857198 -0.370341 0.095504 -0.923973 -0.429817 -0.008965 -0.902871 
0.609142 -0.120943 -0.783785 0.344063 -0.112593 -0.932171 0.192719 -0.149043 -0.969869 
0.110721 -0.195087 -0.974516 -0.0258456 -0.226014 -0.973781 -0.10538 -0.134241 -0.98533 
-0.0434546 -0.0228394 -0.998794 -0.108939 -0.0810978 -0.990735 -0.218008 -0.121146 -0.968399 
-0.24779 -0.0737794 -0.966 -0.429022 -0.013 -0.9032 -0.42747 -0.0164463 -0.90388 
-0.427919 -0.0133226 -0.903719 0.494111 -0.318893 -0.808802 0.380279 -0.417179 -0.825439 
0.356817 -0.310845 -0.880941 0.154755 -0.281505 -0.946998 0.074574 -0.30269 -0.950167 
0.0404493 -0.337016 -0.94063 0.0591579 -0.234861 -0.970227 -0.000429585 -0.116785 -0.993157 
-0.186414 -0.157949 -0.969692 -0.262884 -0.201704 -0.943508 -0.318291 -0.240546 -0.916967 
-0.269526 -0.328036 -0.9054 -0.263834 -0.242321 -0.933634 0.284076 -0.460858 -0.84078 
0.205309 -0.488912 -0.847828 0.198416 -0.440803 -0.875399 0.0651566 -0.502605 -0.862057 
0.0505688 -0.42292 -0.904755 0.0186156 -0.474111 -0.880268 0.0274684 -0.425985 -0.904313 
0.056884 -0.524412 -0.849562 0.108416 -0.4499 -0.886474 0.0138266 -0.599847 -0.799995 
0.035463 -0.454778 -0.889899 -0.141266 -0.579031 -0.802974 -0.1793 -0.427848 -0.885888 
-0.267624 -0.411325 -0.871315 -0.261705 -0.443462 -0.857235 -0.269593 -0.401938 -0.87508 
0.0252523 0.235706 -0.971496 0.140622 0.186206 -0.972395 0.169819 0.106625 -0.97969 
-0.0607345 0.10388 -0.992734 0.00642706 0.178824 -0.98386 0.172617 -0.022098 -0.984741 
0.141389 -0.0835465 -0.986422 0.155053 -0.032497 -0.987371 -0.14877 -0.0649327 -0.986738 
-0.0257103 -0.212587 -0.976804 -0.0236171 -0.0480948 -0.998564 
