# vtk DataFile Version 4.2
vtk output
ASCII
DATASET POLYDATA
POINTS 496 float
-12.1353 -41.2356 -16.4488 -4.06856 -41.2356 -16.4118 -28.2687 -33.1689 -19.3625 
-20.202 -33.1689 -20.3336 -12.1353 -33.1689 -20.1346 -4.06856 -33.1689 -19.7384 
3.99814 -33.1689 -19.8191 12.0648 -33.1689 -19.7368 20.1315 -33.1689 -18.5874 
-36.3354 -25.1022 -20.749 -28.2687 -25.1022 -22.2237 -20.202 -25.1022 -22.5524 
-12.1353 -25.1022 -21.1802 -4.06856 -25.1022 -20.742 3.99814 -25.1022 -21.319 
12.0648 -25.1022 -21.4626 20.1315 -25.1022 -21.1316 28.1982 -25.1022 -19.8717 
36.2649 -25.1022 -17.2696 -44.4021 -17.0355 -19.0173 -36.3354 -17.0355 -22.3706 
-28.2687 -17.0355 -23.3027 -20.202 -17.0355 -22.8505 -12.1353 -17.0355 -21.5713 
-4.06856 -17.0355 -20.5136 3.99814 -17.0355 -21.5781 12.0648 -17.0355 -21.7793 
20.1315 -17.0355 -21.7878 28.1982 -17.0355 -21.6487 36.2649 -17.0355 -20.1497 
-44.4021 -8.96883 -20.7066 -36.3354 -8.96883 -23.0187 -28.2687 -8.96883 -23.6238 
-20.202 -8.96883 -23.2983 -12.1353 -8.96883 -22.5045 -4.06856 -8.96883 -22.8038 
3.99814 -8.96883 -24.0827 12.0648 -8.96883 -22.1819 20.1315 -8.96883 -21.6823 
28.1982 -8.96883 -21.8424 36.2649 -8.96883 -21.0957 44.3316 -8.96883 -17.8578 
-44.4021 -0.902124 -20.7762 -36.3354 -0.902124 -22.7527 -28.2687 -0.902124 -23.1845 
-20.202 -0.902124 -22.5174 -12.1353 -0.902124 -22.9926 -4.06856 -0.902124 -22.7892 
3.99814 -0.902124 -23.0177 12.0648 -0.902124 -22.9209 20.1315 -0.902124 -22.1597 
28.1982 -0.902124 -22.3339 36.2649 -0.902124 -21.3453 44.3316 -0.902124 -18.1905 
-44.4021 7.16458 -19.4408 -36.3354 7.16458 -21.7578 -28.2687 7.16458 -22.2059 
-20.202 7.16458 -21.6753 -12.1353 7.16458 -21.3299 -4.06856 7.16458 -21.0947 
3.99814 7.16458 -21.4478 12.0648 7.16458 -22.9175 20.1315 7.16458 -23.0068 
28.1982 7.16458 -22.5497 36.2649 7.16458 -21.2076 44.3316 7.16458 -17.3633 
-44.4021 15.2313 -16.5474 -36.3354 15.2313 -20.8583 -28.2687 15.2313 -21.4262 
-20.202 15.2313 -20.8574 -12.1353 15.2313 -20.2142 -4.06856 15.2313 -20.9536 
3.99814 15.2313 -21.2316 12.0648 15.2313 -21.4906 20.1315 15.2313 -21.9817 
28.1982 15.2313 -21.6318 36.2649 15.2313 -19.6618 -36.3354 23.298 -17.909 
-28.2687 23.298 -19.5042 -20.202 23.298 -19.2419 -12.1353 23.298 -18.5832 
-4.06856 23.298 -18.3702 3.99814 23.298 -17.895 12.0648 23.298 -17.8949 
20.1315 23.298 -18.4147 28.1982 23.298 -17.962 -20.202 31.3647 -16.7531 
-12.1353 31.3647 -16.5318 -12.1353 -41.3195 -16.3863 -4.06856 -41.2694 -16.3863 
-28.2687 -38.2764 -16.3863 -28.2687 -41.2356 -13.2925 -12.8089 -41.2356 -16.3863 
-20.202 -40.0253 -16.3863 -20.202 -41.2356 -15.4782 -3.45643 -41.2356 -16.3863 
3.99814 -40.6066 -16.3863 3.99814 -41.2356 -15.976 12.0648 -39.2601 -16.3863 
12.0648 -41.2356 -14.6752 20.1315 -36.4248 -16.3863 20.1315 -41.2356 -11.5023 
-35.3113 -33.1689 -16.3863 -36.3354 -32.4263 -16.3863 -36.3354 -33.1689 -15.6582 
27.5204 -33.1689 -16.3863 28.1982 -32.7817 -16.3863 28.1982 -33.1689 -16.1129 
36.2649 -26.6469 -16.3863 36.2649 -33.1689 -8.81419 -42.9715 -25.1022 -16.3863 
-44.4021 -22.9047 -16.3863 -44.4021 -25.1022 -14.2705 37.7745 -25.1022 -16.3863 
44.3316 -25.1022 -8.93724 -47.4008 -17.0355 -16.3863 43.6445 -17.0355 -16.3863 
44.3316 -15.4778 -16.3863 44.3316 -17.0355 -15.851 -49.7889 -8.96883 -16.3863 
46.2605 -8.96883 -16.3863 -50.2849 -0.902124 -16.3863 -52.4688 -0.902124 -8.794 
46.641 -0.902124 -16.3863 -48.2682 7.16458 -16.3863 45.499 7.16458 -16.3863 
44.3316 10.5713 -16.3863 -44.5826 15.2313 -16.3863 -44.4021 15.5726 -16.3863 
41.9874 15.2313 -16.3863 36.2649 20.741 -16.3863 44.3316 15.2313 -14.0694 
-38.9412 23.298 -16.3863 -36.3354 26.34 -16.3863 -28.2687 30.5915 -16.3863 
-4.06856 29.0644 -16.3863 3.99814 26.5711 -16.3863 12.0648 25.7578 -16.3863 
20.1315 25.8745 -16.3863 32.3559 23.298 -16.3863 28.1982 25.1164 -16.3863 
36.2649 23.298 -14.0697 -36.3354 31.3647 -12.1386 -24.4758 31.3647 -16.3863 
-28.2687 31.3647 -16.0217 -20.202 32.1132 -16.3863 -10.904 31.3647 -16.3863 
-12.1353 31.6763 -16.3863 -4.06856 31.3647 -15.5812 3.99814 31.3647 -14.1283 
12.0648 31.3647 -12.6558 20.1315 31.3647 -10.9848 -28.2687 39.4314 -10.4884 
-20.202 39.4314 -12.2668 -12.1353 39.4314 -12.3948 -4.06856 39.4314 -11.1323 
3.99814 39.4314 -8.83422 -28.2687 -44.1343 -8.3196 -20.202 -46.9153 -8.3196 
-12.1353 -47.9539 -8.3196 -12.1353 -49.3023 -1.37514 -4.06856 -47.8127 -8.3196 
3.99814 -46.9948 -8.3196 12.0648 -45.4508 -8.3196 20.1315 -43.1641 -8.3196 
-32.8692 -41.2356 -8.3196 -36.3354 -38.624 -8.3196 24.1899 -41.2356 -8.3196 
28.1982 -39.0843 -8.3196 36.2649 -33.4428 -8.3196 -41.6423 -33.1689 -8.3196 
-44.4021 -29.4009 -8.3196 36.5894 -33.1689 -8.3196 44.3316 -25.5208 -8.3196 
-47.1949 -25.1022 -8.3196 44.6798 -25.1022 -8.3196 -50.5755 -17.0355 -8.3196 
49.5436 -17.0355 -8.3196 -52.3622 -8.96883 -8.3196 -52.4688 -4.75034 -8.3196 
51.8942 -8.96883 -8.3196 52.3984 -8.96883 -5.18883 -52.5659 -0.902124 -8.3196 
-52.4688 -0.406868 -8.3196 -52.4688 -0.902124 -7.88202 52.3123 -0.902124 -8.3196 
52.3984 -0.902124 -7.864 -50.9565 7.16458 -8.3196 51.0576 7.16458 -8.3196 
52.3984 7.16458 -1.32191 -48.0818 15.2313 -8.3196 -44.4021 22.8788 -8.3196 
47.7813 15.2313 -8.3196 44.3316 20.0604 -8.3196 -44.1899 23.298 -8.3196 
28.1982 31.0563 -8.3196 41.3329 23.298 -8.3196 36.2649 27.3572 -8.3196 
-39.0648 31.3647 -8.3196 -36.3354 34.8818 -8.3196 12.0648 36.7318 -8.3196 
27.2305 31.3647 -8.3196 20.1315 33.7495 -8.3196 28.1982 31.3647 -7.62406 
-31.1161 39.4314 -8.3196 -28.2687 41.3632 -8.3196 -20.202 43.8982 -8.3196 
-12.1353 44.1986 -8.3196 -4.06856 42.7276 -8.3196 5.46831 39.4314 -8.3196 
3.99814 40.0079 -8.3196 12.0648 39.4314 -5.09856 -20.202 47.4981 -2.33379 
-12.1353 47.4981 -3.45136 -4.06856 47.4981 -1.41835 -12.1353 -49.4923 -0.252896 
-28.2687 -45.0323 -0.252896 -13.6784 -49.3023 -0.252896 -20.202 -48.4104 -0.252896 
-7.82847 -49.3023 -0.252896 -12.1353 -49.3023 0.221523 -4.06856 -49.1339 -0.252896 
3.99814 -48.3018 -0.252896 12.0648 -46.5418 -0.252896 20.1315 -43.8841 -0.252896 
-34.0008 -41.2356 -0.252896 -36.3354 -39.183 -0.252896 -28.2687 -41.2356 6.58113 
25.658 -41.2356 -0.252896 20.1315 -41.2356 6.60722 28.1982 -39.8359 -0.252896 
36.2649 -34.2474 -0.252896 -41.7182 -33.1689 -0.252896 -44.4021 -28.4702 -0.252896 
-36.3354 -33.1689 7.67884 37.5494 -33.1689 -0.252896 36.2649 -33.1689 2.60415 
44.3316 -26.4483 -0.252896 -46.0807 -25.1022 -0.252896 -44.4021 -25.1022 2.59831 
45.4641 -25.1022 -0.252896 44.3316 -25.1022 3.27131 -48.8776 -17.0355 -0.252896 
-44.4021 -17.0355 6.62751 50.621 -17.0355 -0.252896 52.3984 -11.5958 -0.252896 
-50.2941 -8.96883 -0.252896 -44.4021 -8.96883 7.76736 53.1391 -8.96883 -0.252896 
52.3984 -8.96883 3.01201 -50.3718 -0.902124 -0.252896 -44.4021 -0.902124 7.58481 
53.7146 -0.902124 -0.252896 52.3984 -0.902124 6.35408 -48.4576 7.16458 -0.252896 
-44.4021 7.16458 5.87488 52.5914 7.16458 -0.252896 52.3984 7.72818 -0.252896 
52.3984 7.16458 0.879583 -45.9677 15.2313 -0.252896 -44.4021 21.2966 -0.252896 
-44.4021 15.2313 2.62999 49.5713 15.2313 -0.252896 44.3316 22.8808 -0.252896 
-43.8674 23.298 -0.252896 43.952 23.298 -0.252896 36.2649 29.9322 -0.252896 
-40.2215 31.3647 -0.252896 -36.3354 37.8994 -0.252896 20.1315 38.7406 -0.252896 
33.9319 31.3647 -0.252896 28.1982 34.5718 -0.252896 -35.2108 39.4314 -0.252896 
-28.2687 45.1636 -0.252896 3.99814 46.2519 -0.252896 18.741 39.4314 -0.252896 
12.0648 42.945 -0.252896 20.1315 39.4314 1.60929 -22.8602 47.4981 -0.252896 
-20.202 48.5292 -0.252896 -12.1353 49.1639 -0.252896 -1.20705 47.4981 -0.252896 
-4.06856 48.1045 -0.252896 3.99814 47.4981 5.02815 -20.202 -44.138 7.81381 
-12.1353 -45.075 7.81381 -4.06856 -45.231 7.81381 3.99814 -44.519 7.81381 
12.0648 -43.3495 7.81381 -26.6315 -41.2356 7.81381 -28.2687 -40.1619 7.81381 
-20.202 -41.2356 10.4728 -12.1353 -41.2356 11.4589 -4.06856 -41.2356 11.3469 
3.99814 -41.2356 11.0053 18.5814 -41.2356 7.81381 12.0648 -41.2356 10.3105 
20.1315 -40.6201 7.81381 28.1982 -36.5275 7.81381 -36.1983 -33.1689 7.81381 
-36.3354 -33.0031 7.81381 -28.2687 -33.1689 12.6487 -20.202 -33.1689 13.967 
-12.1353 -33.1689 14.954 -4.06856 -33.1689 14.9015 3.99814 -33.1689 15.4756 
12.0648 -33.1689 15.4472 20.1315 -33.1689 14.6207 33.2341 -33.1689 7.81381 
28.1982 -33.1689 11.5542 36.2649 -30.8989 7.81381 -40.801 -25.1022 7.81381 
-36.3354 -25.1022 11.7952 -28.2687 -25.1022 15.0702 -20.202 -25.1022 15.654 
-12.1353 -25.1022 15.4611 42.5048 -25.1022 7.81381 36.2649 -25.1022 13.9109 
44.3316 -22.8858 7.81381 -43.4674 -17.0355 7.81381 -36.3354 -17.0355 13.4751 
48.361 -17.0355 7.81381 44.3316 -17.0355 13.1567 -44.3609 -8.96883 7.81381 
-36.3354 -8.96883 14.1867 51.1898 -8.96883 7.81381 -44.1964 -0.902124 7.81381 
-36.3354 -0.902124 14.3489 52.0835 -0.902124 7.81381 -42.9736 7.16458 7.81381 
-36.3354 7.16458 14.5287 51.1781 7.16458 7.81381 -41.5854 15.2313 7.81381 
-36.3354 15.2313 14.5829 48.4421 15.2313 7.81381 44.3316 21.796 7.81381 
-39.8858 23.298 7.81381 -36.3354 23.298 13.3535 43.2312 23.298 7.81381 
36.2649 30.3555 7.81381 -37.4612 31.3647 7.81381 -36.3354 33.8005 7.81381 
-36.3354 31.3647 9.64877 35.0668 31.3647 7.81381 28.1982 36.4602 7.81381 
-33.0826 39.4314 7.81381 -28.2687 44.0234 7.81381 -28.2687 39.4314 13.9736 
12.0648 45.7159 7.81381 23.685 39.4314 7.81381 20.1315 41.6058 7.81381 
-22.1258 47.4981 7.81381 -20.202 48.3391 7.81381 -20.202 47.4981 9.54956 
-12.1353 49.7724 7.81381 -12.1353 47.4981 13.1038 -4.06856 49.4754 7.81381 
-4.06856 47.4981 14.225 6.068 47.4981 7.81381 3.99814 48.0905 7.81381 
3.99814 47.4981 10.9551 -4.06856 -27.4417 15.8805 3.99814 -31.97 15.8805 
12.0648 -32.219 15.8805 20.1315 -30.9696 15.8805 28.1982 -27.5639 15.8805 
-28.2687 -19.1435 15.8805 -20.202 -23.1289 15.8805 -7.86584 -25.1022 15.8805 
-12.1353 -17.7183 15.8805 -4.06856 -25.1022 16.2928 3.99814 -25.1022 18.1495 
12.0648 -25.1022 18.8534 20.1315 -25.1022 18.6868 32.2779 -25.1022 15.8805 
28.1982 -25.1022 17.4865 36.2649 -22.309 15.8805 -29.1404 -17.0355 15.8805 
-28.2687 -17.0355 16.1491 -20.202 -17.0355 16.5689 -12.1353 -17.0355 15.9222 
[...]
POINT_DATA 496
SCALARS ImageScalars float
LOOKUP_TABLE default
0 0 0 0 0 0 0 0 0 
0 0 0 0 0 0 0 0 0 
0 0 0 0 0 0 0 0 0 
0 0 0 0 0 0 0 0 0 
0 0 0 0 0 0 0 0 0 
0 0 0 0 0 0 0 0 0 
0 0 0 0 0 0 0 0 0 
0 0 0 0 0 0 0 0 0 
0 0 0 0 0 0 0 0 0 
0 0 0 0 0 0 0 0 0 
0 0 0 0 0 0 0 0 0 
0 0 0 0 0 0 0 0 0 
0 0 0 0 0 0 0 0 0 
0 0 0 0 0 0 0 0 0 
0 0 0 0 0 0 0 0 0 
0 0 0 0 0 0 0 0 0 
0 0 0 0 0 0 0 0 0 
0 0 0 0 0 0 0 0 0 
0 0 0 0 0 0 0 0 0 
0 0 0 0 0 0 0 0 0 
0 0 0 0 0 0 0 0 0 
0 0 0 0 0 0 0 0 0 
0 0 0 0 0 0 0 0 0 
0 0 0 0 0 0 0 0 0 
0 0 0 0 0 0 0 0 0 
0 0 0 0 0 0 0 0 0 
0 0 0 0 0 0 0 0 0 
0 0 0 0 0 0 0 0 0 
0 0 0 0 0 0 0 0 0 
0 0 0 0 0 0 0 0 0 
0 0 0 0 0 0 0 0 0 
0 0 0 0 0 0 0 0 0 
0 0 0 0 0 0 0 0 0 
0 0 0 0 0 0 0 0 0 
0 0 0 0 0 0 0 0 0 
0 0 0 0 0 0 0 0 0 
0 0 0 0 0 0 0 0 0 
0 0 0 0 0 0 0 0 0 
0 0 0 0 0 0 0 0 0 
0 0 0 0 0 0 0 0 0 
0 0 0 0 0 0 0 0 0 
0 0 0 0 0 0 0 0 0 
0 0 0 0 0 0 0 0 0 
0 0 0 0 0 0 0 0 0 
0 0 0 0 0 0 0 0 0 
0 0 0 0 0 0 0 0 0 
0 0 0 0 0 0 0 0 0 
0 0 0 0 0 0 0 0 0 
0 0 0 0 0 0 0 0 0 
0 0 0 0 0 0 0 0 0 
0 0 0 0 0 0 0 0 0 
0 0 0 0 0 0 0 0 0 
0 0 0 0 0 0 0 0 0 
0 0 0 0 0 0 0 0 0 
0 0 0 0 0 0 0 0 0 
0 
NORMALS Normals float
-0.0395174 -0.573647 -0.818149 0.0213181 -0.553338 -0.832684 -0.21206 -0.444842 -0.870142 
-0.0432072 -0.35614 -0.933433 0.0342457 -0.268127 -0.962775 0.0204514 -0.248479 -0.968421 
0.000195711 -0.29669 -0.954974 0.065144 -0.343756 -0.936797 0.203398 -0.430344 -0.879451 
-0.347998 -0.332732 -0.876463 -0.0997475 -0.225446 -0.969136 0.0622706 -0.137829 -0.988497 
0.108392 -0.088685 -0.990144 -0.00848089 -0.0455349 -0.998927 -0.044552 -0.104885 -0.993486 
0.0108319 -0.124654 -0.992141 0.0981858 -0.177714 -0.979172 0.214994 -0.298162 -0.929988 
0.422226 -0.418686 -0.804007 -0.58241 -0.273432 -0.765528 -0.234631 -0.128152 -0.9636 
-0.0299902 -0.0887183 -0.995605 0.105487 -0.0457388 -0.993368 0.147918 -0.0831716 -0.985496 
-0.00353593 -0.114904 -0.99337 -0.0786262 -0.161208 -0.983783 -0.0127602 -0.0435256 -0.998971 
0.00774617 -0.0324007 -0.999445 0.0943508 -0.122277 -0.988001 0.285839 -0.220553 -0.932552 
-0.47887 -0.101689 -0.871977 -0.173225 -0.024968 -0.984566 -0.0164079 0.00731731 -0.999839 
0.0695851 0.0209772 -0.997355 0.0317507 -0.0865273 -0.995743 -0.0986354 -0.150182 -0.983726 
0.0468119 -0.0989837 -0.993987 0.144049 -0.0726324 -0.986901 0.0207409 -0.0229977 -0.99952 
0.0377669 -0.041995 -0.998404 0.221504 -0.0665841 -0.972884 0.545231 -0.108247 -0.831268 
-0.44093 0.0784687 -0.894105 -0.146605 0.0768678 -0.986204 0.01544 0.0873439 -0.996059 
0.0122724 0.0987236 -0.995039 -0.0182901 0.0735172 -0.997126 -0.000298952 0.110734 -0.99385 
-0.00734953 0.166142 -0.986074 0.0532754 -0.045794 -0.997529 0.0363337 -0.0822661 -0.995948 
0.0489236 -0.0435429 -0.997853 0.23484 -0.00754123 -0.972005 0.534973 0.0256177 -0.844481 
-0.496353 0.248147 -0.8319 -0.162033 0.107667 -0.980894 0.00592563 0.10728 -0.994211 
0.0538178 0.101816 -0.993346 0.0355677 0.170014 -0.9848 -0.00653628 0.104535 -0.9945 
-0.114289 0.102132 -0.988184 -0.0920137 0.0820069 -0.992375 0.0225329 0.0085236 -0.99971 
0.110477 0.04148 -0.993013 0.28301 0.0886343 -0.955013 0.598354 0.163487 -0.784375 
-0.635873 0.387167 -0.667658 -0.261953 0.232788 -0.936584 0.00535748 0.159589 -0.987169 
0.0740961 0.147319 -0.98631 -0.00536331 0.16567 -0.986167 -0.063134 0.161294 -0.984885 
-0.0322371 0.202007 -0.978853 -0.0455228 0.293484 -0.95488 -0.00756016 0.254636 -0.967007 
0.123946 0.253608 -0.959333 0.344761 0.341321 -0.874437 -0.354055 0.389763 -0.850135 
-0.079031 0.313646 -0.946245 0.0551602 0.244416 -0.9681 0.0513862 0.217099 -0.974796 
0.0392447 0.317537 -0.947434 0.0279298 0.413222 -0.910202 -0.0276857 0.481035 -0.876264 
-0.00511356 0.541603 -0.840619 0.181271 0.594354 -0.783508 -0.0267229 0.373844 -0.927106 
0.0676455 0.339618 -0.938128 -0.0400916 -0.576825 -0.815884 0.02143 -0.554699 -0.831775 
-0.281501 -0.614465 -0.737014 -0.358381 -0.75605 -0.547678 -0.0455747 -0.579628 -0.813606 
-0.103393 -0.602947 -0.791053 -0.12269 -0.664182 -0.737435 0.0250486 -0.556667 -0.830358 
0.0643616 -0.572374 -0.817463 0.0731251 -0.608062 -0.790515 0.140529 -0.596171 -0.790463 
0.171199 -0.717641 -0.675043 0.244586 -0.570729 -0.783867 0.32996 -0.822894 -0.462571 
-0.460838 -0.582843 -0.66927 -0.485834 -0.577666 -0.655948 -0.508723 -0.606323 -0.611206 
0.321512 -0.546645 -0.773181 0.326107 -0.542735 -0.774011 0.337951 -0.562807 -0.754346 
0.451963 -0.469767 -0.758319 0.612583 -0.740498 -0.276414 -0.655742 -0.456153 -0.601603 
-0.683876 -0.423619 -0.59402 -0.750429 -0.481732 -0.452538 0.474444 -0.443082 -0.760645 
0.752201 -0.589853 -0.293713 -0.726916 -0.317691 -0.608823 0.593991 -0.31214 -0.741447 
0.609471 -0.277419 -0.742687 0.633837 -0.32538 -0.701696 -0.79755 -0.144717 -0.585638 
0.626557 -0.120938 -0.769935 -0.809665 0.0753661 -0.582033 -0.996213 0.0849158 -0.0186557 
0.633256 0.0353619 -0.773134 -0.730802 0.283595 -0.620888 0.642133 0.180012 -0.745158 
0.638572 0.276351 -0.718231 -0.644236 0.389084 -0.658463 -0.640385 0.392577 -0.660144 
0.587818 0.412281 -0.696056 0.42699 0.542585 -0.723382 0.701005 0.444329 -0.557821 
-0.475448 0.420615 -0.772679 -0.388513 0.461162 -0.797739 -0.163475 0.428384 -0.888686 
0.106361 0.360737 -0.926583 0.0778468 0.430104 -0.899417 0.0161463 0.508728 -0.860776 
0.0321708 0.622104 -0.782273 0.319049 0.617698 -0.718788 0.191896 0.654252 -0.731526 
0.463151 0.65282 -0.599431 -0.567592 0.616632 -0.545531 -0.103435 0.409832 -0.906278 
-0.18119 0.445604 -0.876702 -0.0289714 0.39086 -0.919994 0.0771089 0.346302 -0.934949 
0.0673307 0.347484 -0.935266 0.132533 0.382992 -0.914195 0.157762 0.464611 -0.871349 
0.152228 0.578798 -0.801136 0.196821 0.737733 -0.645764 -0.356478 0.68796 -0.632166 
-0.0857636 0.602513 -0.793488 0.0583286 0.570557 -0.819184 0.178759 0.587235 -0.78943 
0.253165 0.639472 -0.725936 -0.421572 -0.85705 -0.296213 -0.217522 -0.901048 -0.37523 
-0.0492595 -0.922959 -0.381734 -0.0414253 -0.997732 0.0530562 0.0554315 -0.927589 -0.369468 
0.140202 -0.923361 -0.357419 0.221564 -0.915983 -0.334491 0.34875 -0.885975 -0.305651 
-0.53675 -0.797886 -0.274369 -0.622644 -0.740346 -0.25338 0.422838 -0.85891 -0.288931 
0.493121 -0.824031 -0.278934 0.615256 -0.746263 -0.25407 -0.74466 -0.632333 -0.213626 
-0.814435 -0.556554 -0.164144 0.619742 -0.742585 -0.253945 0.755114 -0.599885 -0.264464 
-0.86838 -0.479262 -0.127376 0.761665 -0.591447 -0.264682 -0.954777 -0.291354 -0.0592706 
0.869818 -0.388107 -0.304614 -0.99298 -0.117869 -0.00985366 -0.999931 -0.0117118 0.000104 
0.935221 -0.150993 -0.320255 0.970787 -0.161912 -0.17708 -0.996337 0.0850608 0.00880407 
-0.995378 0.0955889 0.00919653 -0.995865 0.0861093 0.0289366 0.940901 0.0463527 -0.335494 
0.94807 0.0456354 -0.314771 -0.964837 0.262716 0.00832438 0.907202 0.243067 -0.34337 
0.969847 0.239114 -0.0471333 -0.918996 0.39107 -0.0500998 -0.872965 0.462686 -0.154449 
0.820074 0.46627 -0.33177 0.728088 0.596554 -0.337655 -0.868263 0.468604 -0.162876 
0.308336 0.83374 -0.458046 0.629263 0.692859 -0.352101 0.491603 0.786489 -0.373848 
-0.737972 0.600976 -0.30696 -0.666455 0.638692 -0.38459 0.271715 0.67094 -0.689935 
0.301805 0.826262 -0.475611 0.269215 0.75815 -0.593913 0.322101 0.837438 -0.44153 
-0.485302 0.707323 -0.51398 -0.382937 0.751049 -0.537852 -0.144755 0.728839 -0.669208 
0.0520966 0.724348 -0.687464 0.186495 0.688485 -0.700862 0.265168 0.655306 -0.70729 
0.256648 0.653741 -0.711867 0.341054 0.740015 -0.579707 -0.211605 0.921716 -0.325057 
0.0328271 0.904694 -0.424795 0.16524 0.913111 -0.372726 -0.0392652 -0.992516 0.115632 
-0.470665 -0.870636 0.143063 -0.0790109 -0.989615 0.120082 -0.254016 -0.957694 0.135273 
0.0194673 -0.993513 0.112044 -0.0417785 -0.988664 0.144215 0.0706431 -0.991535 0.108944 
0.157286 -0.980974 0.1138 0.259357 -0.959613 0.108985 0.372384 -0.919466 0.126148 
-0.615841 -0.769414 0.169535 -0.681851 -0.708051 0.183694 -0.453307 -0.671288 0.586418 
0.466189 -0.876082 0.123076 0.350977 -0.815809 0.459642 0.509564 -0.851968 0.120395 
0.622977 -0.774608 0.109009 -0.795546 -0.570386 0.204368 -0.854487 -0.45003 0.259473 
-0.571188 -0.497853 0.6526 0.641713 -0.759442 0.107016 0.611515 -0.758871 0.223976 
0.762865 -0.640231 0.0902329 -0.875986 -0.37459 0.303861 -0.8379 -0.341281 0.42597 
0.782683 -0.616297 0.0870916 0.750439 -0.621027 0.226202 -0.905526 -0.22226 0.361417 
-0.763862 -0.168087 0.623107 0.907569 -0.41678 0.0511129 0.967431 -0.250072 0.0392676 
-0.909157 -0.0802609 0.408647 -0.733642 -0.0326798 0.67875 0.984012 -0.174206 0.0370544 
0.969144 -0.179217 0.169237 -0.896289 0.0986708 0.432353 -0.727618 0.0670372 0.682699 
0.999437 0.0310197 0.0127939 0.959316 0.00894207 0.282195 -0.878733 0.228596 0.419014 
-0.795598 0.159816 0.584365 0.971311 0.237768 -0.00467196 0.967494 0.252817 -0.0062981 
0.971625 0.233422 0.0381908 -0.899617 0.250733 0.357521 -0.915074 0.292078 0.278084 
-0.878162 0.220902 0.424305 0.886014 0.462625 -0.0309337 0.740521 0.668803 -0.0658134 
-0.917946 0.310822 0.246505 0.728879 0.681116 -0.0694009 0.570657 0.80836 -0.144583 
-0.884395 0.458257 0.0885783 -0.796802 0.603987 -0.0174753 0.418293 0.818558 -0.393694 
0.531626 0.826171 -0.186591 0.460017 0.841536 -0.283199 -0.754633 0.654308 -0.0490971 
-0.523082 0.840655 -0.140304 0.278945 0.872988 -0.400102 0.415735 0.815218 -0.403217 
0.384858 0.822863 -0.418068 0.440607 0.835558 -0.328191 -0.317885 0.927244 -0.197908 
-0.224158 0.951648 -0.210045 0.0279283 0.96169 -0.272712 0.198319 0.916007 -0.348714 
0.158449 0.932189 -0.325451 0.245148 0.959451 -0.139128 -0.209472 -0.71996 0.661649 
-0.0571024 -0.735318 0.675312 0.0294159 -0.755619 0.654351 0.101251 -0.775726 0.622894 
0.204703 -0.806158 0.555162 -0.394746 -0.632551 0.666375 -0.429675 -0.608222 0.667417 
-0.220819 -0.579863 0.784218 -0.0488928 -0.570979 0.819508 0.0232334 -0.57718 0.816286 
0.0518215 -0.647079 0.76066 0.31472 -0.788865 0.527867 0.170633 -0.720896 0.671709 
0.336239 -0.782174 0.524545 0.438406 -0.752684 0.49119 -0.564336 -0.494836 0.660804 
-0.567915 -0.491763 0.660032 -0.312065 -0.406444 0.858731 -0.124301 -0.298506 0.946279 
-0.0522038 -0.196067 0.9792 -0.0303382 -0.269016 0.962658 -0.033833 -0.381445 0.923772 
0.0421762 -0.444176 0.894946 0.179064 -0.542305 0.820878 0.51415 -0.723285 0.460986 
0.37935 -0.674431 0.633433 0.56508 -0.69759 0.440515 -0.681085 -0.299318 0.66823 
-0.518633 -0.290438 0.804155 -0.196328 -0.183214 0.96327 -0.0197527 -0.152845 0.988053 
-0.0372966 -0.0553439 0.997771 0.673448 -0.610762 0.416458 0.460262 -0.557761 0.690697 
0.718166 -0.564717 0.40661 -0.720721 -0.157443 0.67511 -0.46682 -0.122941 0.875765 
0.809978 -0.430247 0.398527 0.665768 -0.422575 0.614966 -0.732135 -0.0324509 0.680387 
-0.443578 -0.047694 0.894966 0.905889 -0.189299 0.378855 -0.72202 0.0653374 0.68878 
-0.520242 -0.0173919 0.853842 0.938595 0.00267087 0.34501 -0.763659 0.126046 0.633196 
-0.646277 -0.0116757 0.763013 0.928388 0.199742 0.313368 -0.828792 0.155548 0.537502 
-0.721508 0.0403555 0.691229 0.870089 0.418799 0.259909 0.787447 0.579368 0.210381 
-0.859236 0.213761 0.464779 -0.782883 0.170346 0.598394 0.7633 0.617337 0.190441 
0.658069 0.750602 0.0595102 -0.855319 0.333777 0.396261 -0.832858 0.40311 0.379275 
-0.829966 0.325173 0.453231 0.640376 0.767133 0.037773 0.570983 0.819743 -0.0447156 
-0.729781 0.593473 0.339426 -0.589174 0.751421 0.297053 -0.564894 0.563325 0.602959 
0.367882 0.926979 -0.0732936 0.523021 0.847289 -0.0924645 0.486028 0.86756 -0.105432 
-0.363932 0.899375 0.242237 -0.299355 0.924593 0.235616 -0.306156 0.896279 0.320863 
-0.0623279 0.98495 0.161212 -0.125834 0.887392 0.44351 0.0959293 0.993466 0.0618282 
0.00605192 0.896265 0.443477 0.261047 0.964986 -0.0256084 0.226451 0.973987 -0.00830848 
0.193833 0.967992 0.159439 -0.124346 -0.187043 0.97445 -0.0537594 -0.369392 0.927718 
0.0299138 -0.426833 0.903835 0.144535 -0.482382 0.863954 0.26816 -0.516365 0.8133 
-0.180164 -0.118944 0.976419 -0.0097602 -0.142615 0.98973 -0.103126 -0.107211 0.988874 
-0.0516089 -0.123405 0.991013 -0.163908 -0.160941 0.973258 -0.150842 -0.319001 0.935674 
-0.0322613 -0.329601 0.943569 0.0709515 -0.374902 0.924345 0.33602 -0.503269 0.796122 
0.235373 -0.459525 0.856409 0.407443 -0.478936 0.777567 -0.206246 -0.100341 0.973342 
-0.176249 -0.100129 0.97924 0.0149468 -0.11524 0.993225 -0.0536115 -0.130613 0.989983 
-0.332975 -0.313248 0.889384 -0.160488 -0.280729 0.946274 -0.0116224 -0.234145 0.972132 
0.028564 -0.250567 0.967678 0.144485 -0.281997 0.948473 0.522822 -0.396095 0.754828 
0.351855 -0.363289 0.862681 0.618125 -0.273061 0.737129 -0.271243 -0.0840349 0.958835 
-0.19101 -0.101049 0.976373 -0.0701828 -0.170848 0.982795 -0.225776 -0.356193 0.906726 
-0.256807 -0.335652 0.906305 -0.0517873 -0.170371 0.984018 -0.0146038 -0.2387 0.970984 
0.00462801 -0.216377 0.976299 0.118722 -0.191321 0.974321 0.315369 -0.191112 0.929526 
0.642056 -0.211302 0.736964 0.605205 -0.210357 0.767774 -0.413951 -0.0848777 0.906334 
-0.278013 -0.164312 0.94642 -0.220415 -0.225125 0.949071 -0.295117 -0.265999 0.917688 
0.326111 -0.101404 0.939877 0.694508 -0.0451784 0.718065 0.602301 -0.0594936 0.796049 
-0.582258 -0.0516512 0.811362 -0.346127 -0.143619 0.92713 -0.202748 -0.155216 0.966851 
-0.237656 -0.0449046 0.970311 0.381894 0.011481 0.924135 0.735591 0.118899 0.66691 
0.663695 0.0957906 0.741844 -0.660275 0.0177919 0.750813 -0.362267 -0.0258004 0.931717 
-0.136206 -0.0418388 0.989797 -0.100164 -0.00364174 0.994964 -0.120962 0.0837089 0.989121 
0.462634 0.158605 0.872247 0.742224 0.321268 0.588124 0.741287 0.328519 0.585295 
0.7379 0.319036 0.594743 -0.67387 0.138169 0.725816 -0.405897 0.103508 0.908039 
-0.181834 0.0324825 0.982793 -0.10896 -0.0294088 0.993611 -0.113815 -0.00427747 0.993493 
0.718145 0.480287 0.503579 0.686485 0.580171 0.438338 0.625621 0.396371 0.671929 
-0.634346 0.29426 0.714853 -0.539237 0.460913 0.704829 -0.502555 0.271329 0.820865 
-0.26237 0.19564 0.944927 -0.134328 0.10812 0.985021 -0.0690676 0.133863 0.98859 
0.196805 0.362287 0.911052 0.636905 0.66334 0.392851 0.581181 0.72606 0.367512 
0.495392 0.571617 0.654096 -0.469877 0.528557 0.706996 -0.312544 0.63273 0.708497 
-0.310377 0.479951 0.820556 -0.15973 0.751902 0.639632 -0.171979 0.428556 0.886997 
-0.0272069 0.825511 0.56373 -0.0611592 0.42682 0.902266 0.122199 0.877173 0.464366 
-0.023573 0.467469 0.883695 0.297542 0.86785 0.397877 0.16914 0.562393 0.809386 
0.502787 0.793582 0.342684 0.463887 0.817372 0.341631 0.449378 0.754751 0.477923 
-0.132657 -0.202626 0.970229 -0.0716393 -0.218346 0.973238 -0.0333365 -0.24786 0.968222 
0.0412422 -0.21281 0.976223 0.162362 -0.144838 0.976043 -0.138847 -0.197512 0.970418 
-0.123368 -0.1927 0.973472 -0.0760663 -0.22509 0.971364 -0.0517807 -0.251915 0.966363 
0.0827266 -0.208231 0.974575 0.167953 -0.142309 0.975469 0.16396 -0.143216 0.976016 
-0.221337 -0.00791084 0.975165 -0.136397 0.0738166 0.9879 -0.19365 0.032119 0.980545 
-0.0968857 -0.029068 0.994871 -0.00792661 -0.0312395 0.99948 0.107509 -0.0724736 0.991559 
0.291924 -0.0278841 0.956035 0.212404 -0.0612492 0.975261 -0.127292 0.0842499 0.988281 
-0.140845 0.0839524 0.986466 -0.0930329 0.0880119 0.991765 0.0517405 0.0412366 0.997809 
0.319846 0.0888874 0.943291 0.246916 0.0669147 0.966724 -0.112665 -0.00232566 0.99363 
-0.0959916 0.0206521 0.995168 -0.0472039 0.0963343 0.994229 0.175023 0.327988 0.928327 
0.0878066 0.146875 0.98525 0.298359 0.218341 0.929144 0.296775 0.222174 0.928743 
0.293973 0.216551 0.93096 -0.0573685 0.146041 0.987614 -0.0404076 0.212589 0.976306 
-0.0385705 0.165712 0.98542 0.127051 0.281251 0.951187 0.0578857 0.238847 0.96933 
0.0377054 0.17749 0.9834 
