# vtk DataFile Version 4.2
vtk output
ASCII
DATASET POLYDATA
POINTS 506 float
-19.9432 -36.1542 -16.0811 -12.2256 -36.1542 -17.5388 -4.50806 -36.1542 -18.1637 
3.20951 -36.1542 -18.0663 10.9271 -36.1542 -17.2018 -27.6608 -28.4366 -18.4616 
-19.9432 -28.4366 -20.0683 -12.2256 -28.4366 -20.512 -4.50806 -28.4366 -20.1199 
3.20951 -28.4366 -20.1774 10.9271 -28.4366 -20.496 18.6447 -28.4366 -19.9037 
26.3622 -28.4366 -18.3285 -35.3783 -20.7191 -18.9225 -27.6608 -20.7191 -21.1426 
-19.9432 -20.7191 -21.7431 -12.2256 -20.7191 -21.1422 -4.50806 -20.7191 -20.2837 
3.20951 -20.7191 -20.5492 10.9271 -20.7191 -21.5215 18.6447 -20.7191 -21.9812 
26.3622 -20.7191 -21.6156 34.0798 -20.7191 -20.1312 41.7974 -20.7191 -16.1789 
-43.0959 -13.0015 -16.3251 -35.3783 -13.0015 -20.6366 -27.6608 -13.0015 -22.204 
-19.9432 -13.0015 -22.3577 -12.2256 -13.0015 -21.7684 -4.50806 -13.0015 -20.431 
3.20951 -13.0015 -20.9795 10.9271 -13.0015 -22.1646 18.6447 -13.0015 -22.4247 
26.3622 -13.0015 -22.2223 34.0798 -13.0015 -21.4814 41.7974 -13.0015 -19.4891 
-43.0959 -5.28391 -18.1505 -35.3783 -5.28391 -21.4386 -27.6608 -5.28391 -22.4387 
-19.9432 -5.28391 -22.1286 -12.2256 -5.28391 -22.1313 -4.50806 -5.28391 -22.1 
3.20951 -5.28391 -22.8601 10.9271 -5.28391 -22.4561 18.6447 -5.28391 -21.3751 
26.3622 -5.28391 -21.9789 34.0798 -5.28391 -21.9082 41.7974 -5.28391 -20.4429 
49.5149 -5.28391 -16.4521 -43.0959 2.43366 -19.014 -35.3783 2.43366 -21.9583 
-27.6608 2.43366 -22.7218 -19.9432 2.43366 -22.0119 -12.2256 2.43366 -21.8703 
-4.50806 2.43366 -21.893 3.20951 2.43366 -22.3207 10.9271 2.43366 -21.6936 
18.6447 2.43366 -21.1215 26.3622 2.43366 -21.88 34.0798 2.43366 -21.9246 
41.7974 2.43366 -20.5359 49.5149 2.43366 -16.6735 -43.0959 10.1512 -18.707 
-35.3783 10.1512 -21.7815 -27.6608 10.1512 -22.5627 -19.9432 10.1512 -22.4604 
-12.2256 10.1512 -22.2705 -4.50806 10.1512 -21.8704 3.20951 10.1512 -19.8405 
10.9271 10.1512 -20.1721 18.6447 10.1512 -21.6373 26.3622 10.1512 -22.4671 
34.0798 10.1512 -22.0218 41.7974 10.1512 -20.3943 49.5149 10.1512 -16.4293 
-43.0959 17.8688 -16.3741 -35.3783 17.8688 -20.1944 -27.6608 17.8688 -21.6748 
-19.9432 17.8688 -21.6595 -12.2256 17.8688 -21.8443 -4.50806 17.8688 -21.6151 
3.20951 17.8688 -19.7335 10.9271 17.8688 -19.5918 18.6447 17.8688 -21.1742 
26.3622 17.8688 -22.4439 34.0798 17.8688 -21.5088 41.7974 17.8688 -19.177 
-35.3783 25.5864 -15.8553 -27.6608 25.5864 -18.3466 -19.9432 25.5864 -19.2901 
-12.2256 25.5864 -20.3443 -4.50806 25.5864 -20.8137 3.20951 25.5864 -19.6253 
10.9271 25.5864 -19.0063 18.6447 25.5864 -19.0431 26.3622 25.5864 -19.9125 
34.0798 25.5864 -18.4334 -19.9432 33.3039 -15.8146 -12.2256 33.3039 -17.4943 
-4.50806 33.3039 -18.2219 3.20951 33.3039 -17.4961 10.9271 33.3039 -16.2429 
-19.9432 -36.7405 -15.5725 -12.2256 -38.5397 -15.5725 -4.50806 -39.3999 -15.5725 
3.20951 -39.2895 -15.5725 3.20951 -43.8718 -8.02112 10.9271 -38.1475 -15.5725 
-21.0494 -36.1542 -15.5725 -27.6608 -32.1783 -15.5725 -27.6608 -36.1542 -8.72582 
18.0298 -36.1542 -15.5725 18.6447 -35.9443 -15.5725 18.6447 -36.1542 -15.3667 
26.3622 -31.9181 -15.5725 26.3622 -36.1542 -9.13842 -32.6604 -28.4366 -15.5725 
-35.3783 -26.0464 -15.5725 -35.3783 -28.4366 -12.1054 33.1535 -28.4366 -15.5725 
34.0798 -27.8585 -15.5725 34.0798 -28.4366 -14.8178 41.7974 -21.4471 -15.5725 
-40.0741 -20.7191 -15.5725 -43.0959 -14.8754 -15.5725 -43.0959 -20.7191 -10.4094 
42.5052 -20.7191 -15.5725 -43.8737 -13.0015 -15.5725 47.7827 -13.0015 -15.5725 
49.5149 -8.17584 -15.5725 49.5149 -13.0015 -13.2805 -45.9093 -5.28391 -15.5725 
50.3972 -5.28391 -15.5725 -46.9321 2.43366 -15.5725 50.7144 2.43366 -15.5725 
-46.5134 10.1512 -15.5725 50.4032 10.1512 -15.5725 49.5149 13.1411 -15.5725 
-43.9551 17.8688 -15.5725 -43.0959 19.1986 -15.5725 47.5304 17.8688 -15.5725 
41.7974 24.7383 -15.5725 49.5149 17.8688 -12.8772 -35.8697 25.5864 -15.5725 
-43.0959 25.5864 -8.68163 -35.3783 25.9362 -15.5725 -27.6608 29.5849 -15.5725 
18.6447 32.5737 -15.5725 26.3622 30.9362 -15.5725 40.7133 25.5864 -15.5725 
34.0798 28.7622 -15.5725 41.7974 25.5864 -14.3296 -20.6176 33.3039 -15.5725 
-27.6608 33.3039 -12.3505 -19.9432 33.6223 -15.5725 -12.2256 35.9435 -15.5725 
-4.50806 37.0862 -15.5725 3.20951 36.1402 -15.5725 15.7124 33.3039 -15.5725 
10.9271 34.1482 -15.5725 18.6447 33.3039 -14.9339 26.3622 33.3039 -10.9235 
-12.2256 41.0215 -9.47693 -4.50806 41.0215 -10.5424 3.20951 41.0215 -9.29474 
3.20951 -43.9377 -7.85489 -27.6608 -36.541 -7.85489 -19.9432 -40.773 -7.85489 
-12.2256 -42.9636 -7.85489 0.75939 -43.8718 -7.85489 -4.50806 -43.732 -7.85489 
3.69591 -43.8718 -7.85489 3.20951 -43.8718 -7.10666 10.9271 -42.8842 -7.85489 
18.6447 -40.7265 -7.85489 26.3622 -36.7767 -7.85489 -28.2253 -36.1542 -7.85489 
-35.3783 -30.5986 -7.85489 27.3631 -36.1542 -7.85489 34.0798 -31.8005 -7.85489 
-37.7424 -28.4366 -7.85489 -43.0959 -22.2902 -7.85489 39.0134 -28.4366 -7.85489 
41.7974 -26.4478 -7.85489 -44.2061 -20.7191 -7.85489 47.7156 -20.7191 -7.85489 
49.5149 -18.1018 -7.85489 -47.8529 -13.0015 -7.85489 52.5026 -13.0015 -7.85489 
-49.5904 -5.28391 -7.85489 55.0054 -5.28391 -7.85489 -50.4471 2.43366 -7.85489 
-50.8135 2.43366 -4.11486 55.4463 2.43366 -7.85489 -50.1595 10.1512 -7.85489 
-50.8135 10.1512 -0.663813 54.6246 10.1512 -7.85489 -48.2081 17.8688 -7.85489 
52.0586 17.8688 -7.85489 49.5149 21.3891 -7.85489 -43.5762 25.5864 -7.85489 
-43.0959 26.1468 -7.85489 -35.3783 32.6292 -7.85489 34.0798 31.81 -7.85489 
45.3121 25.5864 -7.85489 41.7974 28.0797 -7.85489 -34.3072 33.3039 -7.85489 
-35.3783 33.3039 -5.80686 -27.6608 36.9156 -7.85489 -19.9432 39.9688 -7.85489 
10.9271 39.7212 -7.85489 18.6447 37.2508 -7.85489 29.4523 33.3039 -7.85489 
26.3622 34.3642 -7.85489 -16.0655 41.0215 -7.85489 -19.9432 41.0215 -3.38637 
-12.2256 41.9217 -7.85489 -4.50806 42.4076 -7.85489 6.08107 41.0215 -7.85489 
3.20951 41.7578 -7.85489 -27.6608 -36.9075 -0.137322 -19.9432 -40.6508 -0.137322 
-12.2256 -42.471 -0.137322 -4.50806 -42.8725 -0.137322 3.20951 -43.1736 -0.137322 
10.9271 -42.3133 -0.137322 18.6447 -40.3495 -0.137322 26.3622 -36.8416 -0.137322 
-28.7945 -36.1542 -0.137322 -35.3783 -30.9772 -0.137322 -27.6608 -36.1542 2.64023 
18.6447 -36.1542 7.4812 27.4312 -36.1542 -0.137322 26.3622 -36.1542 1.1943 
34.0798 -31.5595 -0.137322 -38.2688 -28.4366 -0.137322 -43.0959 -23.3186 -0.137322 
38.7617 -28.4366 -0.137322 34.0798 -28.4366 6.06755 41.7974 -26.3307 -0.137322 
-44.9705 -20.7191 -0.137322 47.9417 -20.7191 -0.137322 49.5149 -18.6133 -0.137322 
-48.7325 -13.0015 -0.137322 52.8827 -13.0015 -0.137322 -50.4081 -5.28391 -0.137322 
-50.8135 -1.30521 -0.137322 55.6702 -5.28391 -0.137322 -51.1901 2.43366 -0.137322 
-50.8135 2.43366 2.90777 56.1105 2.43366 -0.137322 -50.8596 10.1512 -0.137322 
-50.8135 10.3488 -0.137322 -50.8135 10.1512 0.183122 55.0935 10.1512 -0.137322 
-48.9428 17.8688 -0.137322 52.1412 17.8688 -0.137322 49.5149 21.436 -0.137322 
49.5149 17.8688 6.18096 -45.1299 25.5864 -0.137322 -43.0959 28.1767 -0.137322 
34.0798 31.2285 -0.137322 45.15 25.5864 -0.137322 41.7974 27.7907 -0.137322 
41.7974 25.5864 4.74258 -37.6226 33.3039 -0.137322 -35.3783 34.9589 -0.137322 
-27.6608 39.1437 -0.137322 10.9271 39.5936 -0.137322 18.6447 36.7231 -0.137322 
27.9573 33.3039 -0.137322 26.3622 33.8652 -0.137322 26.3622 33.3039 1.30515 
-22.0647 41.0215 -0.137322 -19.9432 41.6787 -0.137322 -19.9432 41.0215 2.20707 
-12.2256 42.6848 -0.137322 -12.2256 41.0215 4.78821 -4.50806 42.5439 -0.137322 
-4.50806 41.0215 3.99183 6.094 41.0215 -0.137322 3.20951 41.8113 -0.137322 
3.20951 41.0215 1.87986 -19.9432 -38.257 7.58025 -12.2256 -39.3535 7.58025 
-4.50806 -38.9513 7.58025 3.20951 -38.5374 7.58025 10.9271 -37.9989 7.58025 
-35.3783 -29.3444 7.58025 -24.7847 -36.1542 7.58025 -27.6608 -34.7939 7.58025 
-19.9432 -36.1542 12.0252 -12.2256 -36.1542 13.3646 -4.50806 -36.1542 11.8508 
3.20951 -36.1542 10.68 18.4036 -36.1542 7.58025 10.9271 -36.1542 9.6525 
18.6447 -36.0821 7.58025 26.3622 -31.7162 7.58025 -36.4578 -28.4366 7.58025 
-43.0959 -21.535 7.58025 -35.3783 -28.4366 10.0489 18.6447 -28.4366 13.8822 
32.3411 -28.4366 7.58025 26.3622 -28.4366 10.495 34.0798 -27.479 7.58025 
41.7974 -22.3182 7.58025 -43.7126 -20.7191 7.58025 -43.0959 -20.7191 9.74656 
34.0798 -20.7191 13.5617 43.6411 -20.7191 7.58025 41.7974 -20.7191 9.39544 
49.5149 -13.4274 7.58025 -47.7888 -13.0015 7.58025 41.7974 -13.0015 15.0809 
49.7914 -13.0015 7.58025 49.5149 -13.0015 7.93405 -49.579 -5.28391 7.58025 
52.9293 -5.28391 7.58025 49.5149 -5.28391 12.0444 -50.2213 2.43366 7.58025 
53.3938 2.43366 7.58025 49.5149 2.43366 12.5327 -49.7346 10.1512 7.58025 
52.1853 10.1512 7.58025 49.5149 16.5532 7.58025 49.5149 10.1512 11.0311 
-47.7317 17.8688 7.58025 48.7893 17.8688 7.58025 41.7974 24.075 7.58025 
41.7974 17.8688 13.8225 -43.6009 25.5864 7.58025 -43.0959 26.2199 7.58025 
-43.0959 25.5864 8.55849 26.3622 30.5892 7.58025 26.3622 25.5864 14.0853 
39.3372 25.5864 7.58025 34.0798 28.1614 7.58025 34.0798 25.5864 11.2396 
-35.525 33.3039 7.58025 -35.3783 33.4098 7.58025 -35.3783 33.3039 7.76338 
-27.6608 37.3324 7.58025 -27.6608 33.3039 13.3591 -19.9432 39.3187 7.58025 
-12.2256 39.9299 7.58025 -4.50806 39.4933 7.58025 -4.50806 33.3039 15.1369 
3.20951 38.4101 7.58025 3.20951 33.3039 14.0255 10.9271 36.208 7.58025 
10.9271 33.3039 11.5497 18.7471 33.3039 7.58025 18.6447 33.341 7.58025 
18.6447 33.3039 7.63288 -27.6608 -31.4651 15.2978 -19.9432 -34.3468 15.2978 
-12.2256 -34.8946 15.2978 -4.50806 -33.4781 15.2978 3.20951 -31.7382 15.2978 
10.9271 -29.3819 15.2978 -32.4408 -28.4366 15.2978 -35.3783 -26.2646 15.2978 
-27.6608 -28.4366 18.7996 -19.9432 -28.4366 21.2651 -12.2256 -28.4366 21.323 
-4.50806 -28.4366 20.0913 3.20951 -28.4366 18.0618 13.4822 -28.4366 15.2978 
10.9271 -28.4366 15.962 18.6447 -25.6106 15.2978 26.3622 -21.9535 15.2978 
-41.1239 -20.7191 15.2978 -43.0959 -17.7606 15.2978 -35.3783 -20.7191 21.057 
3.20951 -20.7191 22.5833 10.9271 -20.7191 19.9891 18.6447 -20.7191 17.4851 
[...]
POINT_DATA 506
SCALARS ImageScalars float
LOOKUP_TABLE default
0 0 0 0 0 0 0 0 0 
0 0 0 0 0 0 0 0 0 
0 0 0 0 0 0 0 0 0 
0 0 0 0 0 0 0 0 0 
0 0 0 0 0 0 0 0 0 
0 0 0 0 0 0 0 0 0 
0 0 0 0 0 0 0 0 0 
0 0 0 0 0 0 0 0 0 
0 0 0 0 0 0 0 0 0 
0 0 0 0 0 0 0 0 0 
0 0 0 0 0 0 0 0 0 
0 0 0 0 0 0 0 0 0 
0 0 0 0 0 0 0 0 0 
0 0 0 0 0 0 0 0 0 
0 0 0 0 0 0 0 0 0 
0 0 0 0 0 0 0 0 0 
0 0 0 0 0 0 0 0 0 
0 0 0 0 0 0 0 0 0 
0 0 0 0 0 0 0 0 0 
0 0 0 0 0 0 0 0 0 
0 0 0 0 0 0 0 0 0 
0 0 0 0 0 0 0 0 0 
0 0 0 0 0 0 0 0 0 
0 0 0 0 0 0 0 0 0 
0 0 0 0 0 0 0 0 0 
0 0 0 0 0 0 0 0 0 
0 0 0 0 0 0 0 0 0 
0 0 0 0 0 0 0 0 0 
0 0 0 0 0 0 0 0 0 
0 0 0 0 0 0 0 0 0 
0 0 0 0 0 0 0 0 0 
0 0 0 0 0 0 0 0 0 
0 0 0 0 0 0 0 0 0 
0 0 0 0 0 0 0 0 0 
0 0 0 0 0 0 0 0 0 
0 0 0 0 0 0 0 0 0 
0 0 0 0 0 0 0 0 0 
0 0 0 0 0 0 0 0 0 
0 0 0 0 0 0 0 0 0 
0 0 0 0 0 0 0 0 0 
0 0 0 0 0 0 0 0 0 
0 0 0 0 0 0 0 0 0 
0 0 0 0 0 0 0 0 0 
0 0 0 0 0 0 0 0 0 
0 0 0 0 0 0 0 0 0 
0 0 0 0 0 0 0 0 0 
0 0 0 0 0 0 0 0 0 
0 0 0 0 0 0 0 0 0 
0 0 0 0 0 0 0 0 0 
0 0 0 0 0 0 0 0 0 
0 0 0 0 0 0 0 0 0 
0 0 0 0 0 0 0 0 0 
0 0 0 0 0 0 0 0 0 
0 0 0 0 0 0 0 0 0 
0 0 0 0 0 0 0 0 0 
0 0 0 0 0 0 0 0 0 
0 0 
NORMALS Normals float
0.276881 0.643053 0.714017 0.119691 0.529732 0.839677 0.0303066 0.460391 0.887199 
-0.0549198 0.470015 0.880948 -0.145859 0.543906 0.826372 0.339584 0.468067 0.815841 
0.113413 0.321761 0.940004 0.00146951 0.198141 0.980173 -0.0196394 0.112576 0.993449 
0.0228313 0.132434 0.990929 -0.0149964 0.239289 0.970833 -0.12013 0.370943 0.920853 
-0.267641 0.516203 0.813574 0.410838 0.364606 0.835628 0.168853 0.220491 0.960663 
-0.0020241 0.148033 0.98898 -0.0941226 0.0787071 0.992445 -0.0369987 0.0204832 0.999105 
0.078036 0.0515187 0.995619 0.0928338 0.10443 0.99019 0.00658266 0.158645 0.987314 
-0.105872 0.21868 0.970036 -0.286393 0.344997 0.893844 -0.531713 0.527267 0.662775 
0.678432 0.265041 0.685188 0.321474 0.14525 0.935712 0.108552 0.078745 0.990967 
-0.0273249 0.0237189 0.999345 -0.123095 0.0631095 0.990386 -0.0515198 0.118517 0.991615 
0.112728 0.148559 0.982457 0.0895366 0.0589498 0.994237 0.00360705 -0.0397478 0.999203 
-0.0594355 0.0212435 0.998006 -0.180301 0.100575 0.978456 -0.394073 0.208736 0.895062 
0.594777 0.151991 0.789391 0.248416 0.0835913 0.96504 0.0417241 0.0333948 0.998571 
-0.0197788 -0.0223862 0.999554 -0.00184323 0.00599673 0.99998 0.0457684 0.0919928 0.994707 
0.023533 0.0843376 0.996159 -0.0972124 -0.030467 0.994797 -0.0303489 -0.085224 0.995899 
0.0344986 -0.0220894 0.999161 -0.0927314 0.0280744 0.995295 -0.307124 0.0708044 0.949032 
-0.654183 0.138051 0.743631 0.560809 0.0327672 0.827296 0.218852 0.0207889 0.975537 
0.000840622 0.00803671 0.999967 -0.0548212 0.0214025 0.998267 -0.00771792 0.00922025 0.999928 
0.0277117 -0.0147587 0.999507 -0.0126584 -0.194245 0.980871 -0.0772088 -0.146763 0.986154 
0.0127877 0.0171775 0.999771 0.0527032 0.0320743 0.998095 -0.0818701 0.00729656 0.996616 
-0.302004 -0.00302329 0.953302 -0.628793 -0.00195882 0.777571 0.580861 -0.145746 0.800849 
0.217459 -0.0969592 0.971242 0.0457674 -0.0647386 0.996852 -0.0189195 -0.021242 0.999595 
-0.037486 -0.00131697 0.999296 -0.153653 -0.0179664 0.987961 -0.109395 -0.161337 0.980817 
0.117294 -0.135656 0.983788 0.143997 0.00409074 0.98957 0.0255597 0.0366008 0.999003 
-0.126863 -0.0284199 0.991513 -0.324363 -0.0812712 0.942435 -0.660372 -0.13273 0.739116 
0.598124 -0.380358 0.70539 0.292841 -0.319106 0.901341 0.0829765 -0.247202 0.965405 
0.0110145 -0.195896 0.980563 -0.00310086 -0.122324 0.992485 -0.13554 -0.0660556 0.988567 
-0.132844 -0.0138639 0.99104 0.090834 -0.0750282 0.993036 0.181577 -0.15931 0.970387 
0.0172171 -0.127936 0.991633 -0.187141 -0.196478 0.962484 -0.416334 -0.275075 0.866603 
0.369818 -0.569592 0.73403 0.176928 -0.479953 0.859268 0.120353 -0.350043 0.92897 
0.092554 -0.259159 0.96139 -0.0458472 -0.205304 0.977624 -0.114892 -0.135076 0.984152 
-0.0366076 -0.181713 0.98267 0.0478049 -0.349087 0.93587 -0.0307729 -0.4912 0.870503 
-0.243523 -0.581409 0.776312 0.25428 -0.546443 0.797961 0.139957 -0.492265 0.85912 
-0.00238336 -0.462298 0.886721 -0.112295 -0.439667 0.891113 -0.143248 -0.540206 0.829251 
0.285132 0.668494 0.686888 0.133033 0.66902 0.731242 0.0371376 0.685415 0.727205 
-0.0604287 0.671008 0.738983 -0.0541941 0.985383 0.161501 -0.156007 0.651602 0.742346 
0.31015 0.665101 0.679299 0.434988 0.628153 0.645143 0.529619 0.813963 0.238679 
-0.263538 0.641495 0.720438 -0.270251 0.640493 0.718841 -0.277685 0.654471 0.703249 
-0.353736 0.656295 0.666444 -0.492176 0.827981 0.268718 0.505288 0.591878 0.627985 
0.538853 0.564551 0.625236 0.615852 0.677096 0.402824 -0.418706 0.655892 0.628085 
-0.429857 0.649241 0.627463 -0.448649 0.686671 0.572012 -0.539449 0.556025 0.632322 
0.638655 0.448149 0.625526 0.704867 0.318368 0.633881 0.803565 0.498979 0.324506 
-0.552541 0.538312 0.636332 0.711202 0.27379 0.64748 -0.659636 0.309867 0.684735 
-0.692058 0.211979 0.690015 -0.767554 0.35524 0.53354 0.738932 0.162869 0.653799 
-0.694227 0.143102 0.705387 0.763693 0.032562 0.644758 -0.682787 -7.03419e-05 0.730617 
0.759547 -0.151997 0.632444 -0.703622 -0.141231 0.696398 -0.697281 -0.24091 0.675101 
0.635759 -0.384035 0.669573 0.606057 -0.423608 0.67324 -0.655968 -0.380393 0.651926 
-0.519593 -0.631288 0.575759 -0.766608 -0.436595 0.470847 0.386409 -0.573709 0.722182 
0.700942 -0.622652 0.347829 0.37381 -0.577388 0.725871 0.258609 -0.581316 0.771487 
-0.133213 -0.631797 0.763602 -0.17025 -0.742853 0.647444 -0.483453 -0.665827 0.568285 
-0.288275 -0.74203 0.605218 -0.532427 -0.696453 0.481118 0.260919 -0.557875 0.787843 
0.343061 -0.703577 0.622325 0.257617 -0.558349 0.788594 0.150729 -0.600258 0.785475 
0.00905541 -0.632619 0.77441 -0.129452 -0.578024 0.805687 -0.1477 -0.620591 0.770098 
-0.155815 -0.588333 0.793464 -0.164866 -0.6908 0.703998 -0.293851 -0.906744 0.302436 
0.150085 -0.906115 0.395513 -0.00302897 -0.913312 0.407249 -0.163811 -0.928996 0.331861 
-0.0538608 0.986839 0.152473 0.531677 0.823017 0.199909 0.369787 0.911096 0.182105 
0.181843 0.969354 0.165187 -0.0167896 0.98909 0.146349 0.0618861 0.989048 0.133992 
-0.0626435 0.986227 0.153076 -0.0528045 0.992432 0.110866 -0.195689 0.965654 0.170934 
-0.364529 0.910905 0.193313 -0.500845 0.840152 0.208084 0.540069 0.817315 0.200802 
0.64973 0.735209 0.193182 -0.507258 0.837179 0.204499 -0.538897 0.825405 0.168216 
0.683867 0.702265 0.197862 0.810767 0.543568 0.217233 -0.566883 0.80589 0.170837 
-0.606394 0.772506 0.188469 0.834899 0.505462 0.217835 -0.764227 0.605875 0.221069 
-0.817566 0.527589 0.230727 0.915808 0.309682 0.255719 -0.884941 0.394089 0.248138 
0.957988 0.156423 0.240397 -0.942985 0.178999 0.280605 0.97346 0.035459 0.226092 
0.99366 0.0325719 0.107606 -0.958975 -0.023346 0.282528 0.963339 -0.13425 0.232281 
0.990586 -0.136454 -0.0109817 -0.947635 -0.193142 0.254332 0.897545 -0.359488 0.255309 
-0.854971 -0.47114 0.216914 -0.7804 -0.59268 0.199264 0.720209 -0.618879 0.313509 
0.706937 -0.632226 0.317065 0.514032 -0.764847 0.388304 -0.351422 -0.929449 0.112369 
-0.627805 -0.761779 0.159856 -0.538866 -0.831008 0.138016 0.495875 -0.773353 0.395011 
0.532643 -0.79389 0.29331 0.384589 -0.815194 0.433071 0.292137 -0.874236 0.387772 
-0.281015 -0.930934 0.233221 -0.324428 -0.928394 0.181194 -0.33241 -0.936182 0.114315 
-0.329791 -0.93572 0.125164 0.216717 -0.914016 0.342942 0.252084 -0.958427 0.133683 
0.142342 -0.939889 0.310398 -0.0103452 -0.968369 0.249307 -0.209618 -0.948673 0.23681 
-0.166632 -0.955038 0.245228 0.508816 0.855382 -0.0970971 0.323532 0.933716 -0.153302 
0.131479 0.966164 -0.221901 0.0415865 0.957864 -0.284196 -0.0356799 0.950681 -0.308112 
-0.159109 0.952685 -0.258989 -0.331714 0.909551 -0.250365 -0.492371 0.840817 -0.224937 
0.530138 0.84284 -0.0925926 0.651053 0.756444 -0.062628 0.495227 0.853186 -0.163782 
-0.292849 0.747566 -0.596142 -0.500203 0.836892 -0.222282 -0.484816 0.82482 -0.290905 
-0.529074 0.823889 -0.203194 0.689644 0.722265 -0.0522091 0.798332 0.601357 -0.0321882 
-0.551446 0.808464 -0.205655 -0.463782 0.741131 -0.485418 -0.589507 0.782271 -0.20133 
0.843355 0.536767 -0.0251762 -0.75707 0.630426 -0.17149 -0.808714 0.566206 -0.159348 
0.948095 0.317958 -0.00439701 -0.893748 0.426678 -0.138424 0.988579 0.150693 -0.00170413 
0.996089 0.0879373 -0.0086003 -0.973841 0.196443 -0.114211 0.999469 0.028975 -0.0148857 
0.995535 0.021322 -0.0919501 -0.993027 -0.0348897 -0.11261 0.990267 -0.136366 -0.0278538 
0.989628 -0.140925 -0.0278858 0.989938 -0.136932 -0.0356728 -0.965591 -0.222928 -0.133929 
0.943175 -0.331033 -0.028942 -0.843844 -0.511013 -0.163685 -0.761967 -0.62332 -0.175723 
-0.74432 -0.509689 -0.431514 0.825572 -0.564292 0.00209041 0.770117 -0.637823 0.0100827 
-0.33667 -0.917492 -0.211806 -0.5919 -0.782422 -0.193569 -0.503043 -0.84013 -0.202804 
-0.499285 -0.785422 -0.365824 0.602679 -0.797206 0.0352133 0.552055 -0.832939 0.0380506 
0.387824 -0.921505 0.020511 -0.298101 -0.934657 -0.193785 -0.347538 -0.91224 -0.216878 
-0.322227 -0.923201 -0.209452 -0.323506 -0.922781 -0.209331 -0.318777 -0.91228 -0.257149 
0.261147 -0.96502 -0.0231935 0.215111 -0.975825 -0.038642 0.200615 -0.967879 -0.151535 
0.0551814 -0.99212 -0.112487 0.0278137 -0.943276 -0.330843 -0.0559334 -0.984473 -0.166387 
-0.0709346 -0.941918 -0.328267 -0.224255 -0.956022 -0.189028 -0.1813 -0.965539 -0.186723 
-0.183284 -0.947092 -0.263482 0.253512 0.902523 -0.348114 0.0419254 0.904655 -0.424078 
-0.0465212 0.862409 -0.504069 -0.0515142 0.817733 -0.573288 -0.129885 0.778986 -0.613442 
0.61678 0.756724 -0.216682 0.386813 0.869296 -0.307736 0.469604 0.836533 -0.282285 
0.213117 0.86413 -0.455917 -0.0189777 0.848307 -0.529164 -0.0997435 0.817652 -0.567006 
-0.0914017 0.77087 -0.6304 -0.287052 0.745742 -0.601224 -0.141457 0.724064 -0.675071 
-0.292065 0.743964 -0.601012 -0.39192 0.681011 -0.618565 0.634251 0.743165 -0.213147 
0.796382 0.574212 -0.189885 0.604625 0.745294 -0.281009 -0.275578 0.498777 -0.821753 
-0.428556 0.700347 -0.570837 -0.343404 0.613669 -0.710974 -0.434755 0.706399 -0.55856 
-0.52572 0.669943 -0.524208 0.810968 0.554586 -0.186453 0.791089 0.559333 -0.247638 
-0.318316 0.56122 -0.764007 -0.572371 0.633385 -0.520783 -0.510054 0.631757 -0.583719 
-0.745794 0.444221 -0.496446 0.924078 0.331605 -0.190046 -0.467446 0.393028 -0.791848 
-0.751703 0.435174 -0.495547 -0.74345 0.434623 -0.508315 0.971916 0.14524 -0.18516 
-0.850615 0.195387 -0.488137 -0.716528 0.192476 -0.670477 0.977316 0.00944428 -0.211575 
-0.86922 -0.0415232 -0.492679 -0.717791 -0.0435186 -0.694897 0.962299 -0.148342 -0.227982 
-0.838253 -0.234138 -0.492455 -0.738442 -0.459741 -0.493296 -0.738768 -0.235495 -0.631478 
0.905995 -0.334773 -0.259037 -0.704296 -0.510275 -0.493544 -0.49734 -0.723391 -0.478914 
-0.489784 -0.473104 -0.732315 0.770888 -0.568363 -0.287567 0.759001 -0.584197 -0.287457 
0.754291 -0.571731 -0.322752 -0.28383 -0.832975 -0.474966 -0.222759 -0.673508 -0.704816 
-0.435102 -0.767843 -0.470216 -0.327134 -0.822312 -0.465603 -0.313001 -0.739725 -0.595682 
0.521142 -0.792391 -0.31706 0.517465 -0.794647 -0.317436 0.516131 -0.792589 -0.324672 
0.31678 -0.86957 -0.378812 0.25771 -0.73686 -0.624998 0.148832 -0.890085 -0.430811 
0.0103986 -0.885098 -0.465289 -0.0836653 -0.870536 -0.484941 -0.0807622 -0.67533 -0.73308 
-0.180392 -0.848541 -0.49743 -0.150409 -0.701378 -0.696739 -0.274887 -0.826678 -0.49096 
-0.256731 -0.748131 -0.611873 -0.307454 -0.82069 -0.481602 -0.307582 -0.820505 -0.481835 
-0.307278 -0.819709 -0.483381 0.396661 0.767527 -0.503549 0.176289 0.803577 -0.568495 
-0.0408907 0.804516 -0.592521 -0.150529 0.743534 -0.651536 -0.174338 0.656171 -0.734197 
-0.211616 0.535682 -0.817474 0.502185 0.727586 -0.467364 0.567214 0.691838 -0.446798 
0.354257 0.681424 -0.64044 0.112086 0.579671 -0.807105 -0.0608042 0.526465 -0.84802 
-0.176406 0.557755 -0.811043 -0.216381 0.578036 -0.7868 -0.235318 0.506137 -0.829729 
-0.221439 0.516568 -0.827117 -0.248478 0.45241 -0.856495 -0.221454 0.505284 -0.834054 
0.703613 0.566664 -0.428744 0.774124 0.469243 -0.424903 0.486366 0.511431 -0.708439 
-0.217095 0.402141 -0.889468 -0.294402 0.432751 -0.852088 -0.221922 0.401089 -0.888751 
-0.23992 0.509278 -0.826483 -0.203829 0.489345 -0.847936 -0.29333 0.48431 -0.824258 
0.841972 0.323562 -0.431729 0.745132 0.313559 -0.588608 -0.249116 0.311085 -0.917152 
-0.166934 0.309289 -0.936202 -0.451933 0.390749 -0.801918 -0.250584 0.356921 -0.899897 
-0.463264 0.374675 -0.803122 0.888005 0.125526 -0.442369 0.67802 0.0948794 -0.728894 
-0.256706 0.0984822 -0.961459 -0.168121 0.132105 -0.976875 -0.225131 0.137841 -0.964529 
-0.5451 0.175202 -0.81986 -0.426845 0.152963 -0.891295 0.874984 -0.0280017 -0.483341 
0.633925 -0.0764114 -0.769611 -0.184733 -0.0510776 -0.981461 -0.134663 -0.0175385 -0.990736 
-0.23037 -0.0145551 -0.972994 -0.5609 -0.0359407 -0.827103 -0.415608 -0.0288209 -0.909087 
0.826745 -0.190239 -0.529436 0.639713 -0.215459 -0.737797 -0.151912 -0.145303 -0.977655 
-0.132988 -0.152887 -0.979255 -0.234499 -0.157449 -0.959281 -0.531572 -0.219378 -0.818111 
-0.474324 -0.355942 -0.805184 -0.448149 -0.207317 -0.869587 0.724185 -0.375167 -0.578624 
0.68673 -0.428844 -0.586937 0.674893 -0.375022 -0.635514 0.298681 -0.332908 -0.894406 
0.0864321 -0.288029 -0.953713 -0.224146 -0.297524 -0.928029 -0.152643 -0.324851 -0.933366 
-0.204747 -0.604402 -0.76992 -0.145653 -0.370732 -0.917248 -0.414796 -0.453172 -0.789037 
-0.292093 -0.562174 -0.77372 -0.273902 -0.422249 -0.864109 0.512436 -0.565299 -0.64641 
0.428528 -0.610378 -0.666185 0.407363 -0.553318 -0.726563 0.223991 -0.65692 -0.71992 
0.164978 -0.468976 -0.867666 0.0581331 -0.411532 -0.909539 0.0265548 -0.410513 -0.911468 
-0.0798615 -0.670153 -0.737914 -0.0218405 -0.494812 -0.868725 -0.145455 -0.662142 -0.735126 
-0.145358 -0.517556 -0.843213 -0.229672 -0.615996 -0.753525 -0.219448 -0.502569 -0.836222 
-0.215385 -0.612101 -0.760882 -0.221591 -0.600897 -0.767998 -0.211523 -0.570222 -0.793792 
0.114951 -0.673126 -0.73054 0.105379 -0.673256 -0.731861 0.104837 -0.669217 -0.735634 
-0.066063 -0.669142 -0.740193 -0.0125749 -0.66549 -0.746301 -0.013873 -0.648898 -0.760749 
0.245192 0.47803 -0.843427 0.0706249 0.473652 -0.877876 -0.074326 0.420612 -0.904191 
-0.148652 0.374069 -0.91541 0.336932 0.447426 -0.828425 0.430632 0.358029 -0.828475 
0.213816 0.399886 -0.891277 0.0327083 0.339212 -0.940141 -0.086199 0.321587 -0.942948 
-0.191127 0.37658 -0.906454 -0.139027 0.327927 -0.934417 -0.203831 0.36772 -0.907323 
-0.283751 0.349222 -0.893045 0.479246 0.249518 -0.841466 0.389318 0.221532 -0.894067 
0.165347 0.138191 -0.976506 0.0217342 0.123223 -0.992141 -0.0778172 0.161465 -0.983806 
-0.102615 0.155155 -0.982546 -0.12576 0.176079 -0.97631 -0.276263 0.315767 -0.907728 
-0.274691 0.313863 -0.908865 0.510394 0.063074 -0.857625 0.301988 0.0201145 -0.9531 
0.120675 -0.0666616 -0.990451 0.0510272 -0.0954418 -0.994126 -0.0524685 -0.071342 -0.996071 
-0.122305 -0.0338488 -0.991915 -0.0706937 -0.0418918 -0.996618 -0.247979 0.090617 -0.964518 
-0.177674 0.0358057 -0.983438 0.429631 -0.109505 -0.89634 0.244713 -0.121078 -0.962006 
0.054206 -0.135088 -0.98935 0.0115784 -0.217423 -0.976009 -0.0148028 -0.217843 -0.975872 
-0.0683729 -0.0789914 -0.994528 -0.0571623 -0.0411785 -0.997515 -0.173381 -0.0681856 -0.982492 
-0.131025 -0.118267 -0.984299 0.295481 -0.205094 -0.933074 0.270548 -0.223651 -0.936367 
0.267142 -0.202309 -0.942182 0.0682484 -0.261374 -0.962822 0.0255843 -0.196724 -0.980125 
-0.0253245 -0.165186 -0.985937 0.0830195 -0.162843 -0.983153 0.0500396 -0.0725371 -0.99611 
-0.108602 -0.0485174 -0.992901 -0.182267 -0.166312 -0.969082 -0.199908 -0.201607 -0.958849 
-0.192606 -0.173988 -0.965728 0.0423541 -0.208133 -0.977183 0.0393088 -0.205025 -0.977967 
0.0388843 -0.201188 -0.978781 0.0739794 -0.212314 -0.974397 0.0748234 -0.209338 -0.974976 
0.0247064 -0.34451 -0.938458 0.0497715 -0.251898 -0.966473 -0.184311 -0.280071 -0.94212 
-0.155819 -0.328522 -0.931554 -0.157648 -0.269971 -0.949875 
