# vtk DataFile Version 4.2
vtk output
ASCII
DATASET POLYDATA
POINTS 538 float
-41.7111 -8.63036 -23.5294 -41.7111 -0.170377 -23.3682 -33.2511 8.28961 -23.2593 
-16.3311 -42.4703 -16.2065 -7.87112 -42.4703 -16.381 0.588859 -42.4703 -16.7966 
9.04884 -42.4703 -16.9018 17.5088 -42.4703 -15.7755 -41.7111 -34.0103 -15.5709 
-33.2511 -34.0103 -18.9565 -24.7911 -34.0103 -20.452 -16.3311 -34.0103 -20.6474 
-7.87112 -34.0103 -19.2795 0.588859 -34.0103 -19.1681 9.04884 -34.0103 -19.8674 
17.5088 -34.0103 -19.8021 25.9688 -34.0103 -17.958 34.4288 -34.0103 -14.8223 
-50.171 -25.5503 -16.8869 -41.7111 -25.5503 -20.4473 -33.2511 -25.5503 -22.8025 
-24.7911 -25.5503 -22.1789 -16.3311 -25.5503 -21.2897 -7.87112 -25.5503 -19.4607 
0.588859 -25.5503 -18.9305 9.04884 -25.5503 -20.2217 17.5088 -25.5503 -20.967 
25.9688 -25.5503 -19.7381 34.4288 -25.5503 -17.7801 42.8888 -25.5503 -15.4555 
-58.631 -17.0903 -14.8293 -50.171 -17.0903 -20.4267 -41.7111 -11.5356 -23.1195 
-41.7111 -17.0903 -22.3357 -33.2511 -17.0903 -22.7167 -24.7911 -17.0903 -22.0647 
-16.3311 -17.0903 -20.8902 -7.87112 -17.0903 -19.2561 0.588859 -17.0903 -17.9422 
9.04884 -17.0903 -19.9606 17.5088 -17.0903 -20.6273 25.9688 -17.0903 -19.9899 
34.4288 -17.0903 -18.8573 42.8888 -17.0903 -17.0115 -58.631 -8.63036 -17.053 
-44.272 -8.63036 -23.1195 -50.171 -8.63036 -22.0617 -36.1105 -8.63036 -23.1195 
-33.2511 -8.63036 -22.919 -24.7911 -8.63036 -21.6867 -16.3311 -8.63036 -20.1883 
-7.87112 -8.63036 -21.3511 0.588859 -8.63036 -20.7977 9.04884 -8.63036 -20.1822 
17.5088 -8.63036 -19.8704 25.9688 -8.63036 -19.3271 34.4288 -8.63036 -18.9146 
42.8888 -8.63036 -17.7093 51.3488 -8.63036 -15.2959 -58.631 -0.170377 -17.0634 
-42.6406 -0.170377 -23.1195 -50.171 -0.170377 -20.8906 -36.2458 -0.170377 -23.1195 
-41.7111 2.34892 -23.1195 -33.2511 4.22074 -23.1195 -33.2511 -0.170377 -22.9635 
-24.7911 -0.170377 -21.6306 -16.3311 -0.170377 -20.5512 -7.87112 -0.170377 -22.5326 
0.588859 -0.170377 -19.9507 9.04884 -0.170377 -19.6784 17.5088 -0.170377 -19.7568 
25.9688 -0.170377 -18.5606 34.4288 -0.170377 -18.0973 42.8888 -0.170377 -16.9312 
51.3488 -0.170377 -14.7081 -58.631 8.28961 -14.9801 -50.171 8.28961 -20.3413 
-34.75 8.28961 -23.1195 -41.7111 8.28961 -22.4534 -31.5466 8.28961 -23.1195 
-33.2511 9.49766 -23.1195 -24.7911 8.28961 -22.5506 -16.3311 8.28961 -21.2584 
-7.87112 8.28961 -20.7948 0.588859 8.28961 -20.3277 9.04884 8.28961 -19.8693 
17.5088 8.28961 -19.1209 25.9688 8.28961 -17.4424 34.4288 8.28961 -16.4869 
42.8888 8.28961 -15.1986 -50.171 16.7496 -17.5117 -41.7111 16.7496 -20.7762 
-33.2511 16.7496 -22.2757 -24.7911 16.7496 -22.3544 -16.3311 16.7496 -21.3256 
-7.87112 16.7496 -20.4576 0.588859 16.7496 -20.229 9.04884 16.7496 -18.692 
17.5088 16.7496 -17.2555 25.9688 16.7496 -15.753 -41.7111 25.2096 -17.7735 
-33.2511 25.2096 -20.4398 -24.7911 25.2096 -21.1654 -16.3311 25.2096 -20.809 
-7.87112 25.2096 -20.2468 0.588859 25.2096 -18.7674 9.04884 25.2096 -16.2489 
-33.2511 33.6696 -16.1094 -24.7911 33.6696 -18.1409 -16.3311 33.6696 -18.8278 
-7.87112 33.6696 -18.2126 0.588859 33.6696 -16.4062 -16.3311 -43.7205 -14.6595 
-7.87112 -44.8936 -14.6595 0.588859 -45.7058 -14.6595 9.04884 -45.5883 -14.6595 
17.5088 -43.6473 -14.6595 -41.7111 -34.8168 -14.6595 -33.2511 -38.9266 -14.6595 
-23.8563 -42.4703 -14.6595 -24.7911 -42.2637 -14.6595 -24.7911 -42.4703 -14.0574 
20.1975 -42.4703 -14.6595 25.9688 -39.3014 -14.6595 25.9688 -42.4703 -10.6186 
34.4288 -34.2253 -14.6595 -42.9794 -34.0103 -14.6595 -50.171 -28.2865 -14.6595 
34.7466 -34.0103 -14.6595 42.8888 -27.0312 -14.6595 42.8888 -34.0103 -8.62592 
-53.0376 -25.5503 -14.6595 -58.631 -17.3186 -14.6595 44.3792 -25.5503 -14.6595 
51.3488 -25.5503 -9.44 -58.7749 -17.0903 -14.6595 50.0236 -17.0903 -14.6595 
51.3488 -13.8217 -14.6595 51.3488 -17.0903 -14.1885 59.8087 -17.0903 -6.71053 
-61.8251 -8.63036 -14.6595 53.2692 -8.63036 -14.6595 59.8087 -8.63036 -11.0021 
-62.4219 -0.170377 -14.6595 -67.091 -0.170377 -7.88701 51.4867 -0.170377 -14.6595 
51.3488 0.0644507 -14.6595 59.8087 -0.170377 -10.6287 -59.0269 8.28961 -14.6595 
-58.631 8.98268 -14.6595 34.4288 16.2659 -14.6595 45.0324 8.28961 -14.6595 
42.8888 10.5998 -14.6595 51.3488 8.28961 -12.9569 59.8087 8.28961 -8.43316 
-54.0094 16.7496 -14.6595 -58.631 16.7496 -8.66598 -50.171 21.7711 -14.6595 
17.5088 25.145 -14.6595 33.6468 16.7496 -14.6595 25.9688 20.7645 -14.6595 
34.4288 16.7496 -14.5453 42.8888 16.7496 -13.0974 51.3488 16.7496 -10.1852 
59.8087 16.7496 -7.15242 -46.7092 25.2096 -14.6595 -50.171 25.2096 -11.1639 
-41.7111 29.6217 -14.6595 17.402 25.2096 -14.6595 9.04884 29.9021 -14.6595 
17.5088 25.2096 -14.6397 25.9688 25.2096 -13.3794 34.4288 25.2096 -11.8924 
42.8888 25.2096 -9.55134 -36.0776 33.6696 -14.6595 -41.7111 33.6696 -9.73208 
-33.2511 35.2846 -14.6595 -24.7911 38.6435 -14.6595 -16.3311 40.2186 -14.6595 
-7.87112 40.0591 -14.6595 5.44456 33.6696 -14.6595 0.588859 36.8658 -14.6595 
9.04884 33.6696 -13.3336 17.5088 33.6696 -11.5194 25.9688 33.6696 -10.1443 
34.4288 33.6696 -7.71344 -24.7911 42.1295 -10.0209 -16.3311 42.1295 -12.7662 
-7.87112 42.1295 -13.0433 0.588859 42.1295 -11.1162 9.04884 42.1295 -8.51831 
-24.7911 -44.2477 -6.19951 -16.3311 -47.2207 -6.19951 -7.87112 -49.9282 -6.19951 
0.588859 -50.9186 -6.19951 9.04884 -50.7769 -6.19951 17.5088 -48.5473 -6.19951 
25.9688 -44.8158 -6.19951 -41.7111 -36.6763 -6.19951 -29.3421 -42.4703 -6.19951 
-33.2511 -40.7493 -6.19951 -24.7911 -42.4703 -1.93351 30.8912 -42.4703 -6.19951 
34.4288 -40.6481 -6.19951 42.8888 -35.788 -6.19951 -46.6719 -34.0103 -6.19951 
-50.171 -31.5505 -6.19951 -41.7111 -34.0103 -0.845253 45.6005 -34.0103 -6.19951 
51.3488 -29.0992 -6.19951 -57.3093 -25.5503 -6.19951 -58.631 -24.249 -6.19951 
54.7752 -25.5503 -6.19951 59.8087 -17.8042 -6.19951 -63.3465 -17.0903 -6.19951 
60.1882 -17.0903 -6.19951 -66.5105 -8.63036 -6.19951 -67.091 -4.70967 -6.19951 
63.474 -8.63036 -6.19951 -67.7199 -0.170377 -6.19951 -67.091 2.04216 -6.19951 
63.9748 -0.170377 -6.19951 -65.0414 8.28961 -6.19951 62.3099 8.28961 -6.19951 
-60.2116 16.7496 -6.19951 -58.631 19.4008 -6.19951 51.3488 24.1871 -6.19951 
60.8323 16.7496 -6.19951 59.8087 18.2432 -6.19951 -54.1684 25.2096 -6.19951 
-50.171 29.0181 -6.19951 50.1577 25.2096 -6.19951 42.8888 30.4912 -6.19951 
51.3488 25.2096 -5.42414 -44.7042 33.6696 -6.19951 -41.7111 35.8058 -6.19951 
-33.2511 40.7265 -6.19951 17.5088 42.1062 -6.19951 25.9688 39.1637 -6.19951 
37.5997 33.6696 -6.19951 34.4288 35.653 -6.19951 42.8888 33.6696 -3.22348 
-29.9085 42.1295 -6.19951 -24.7911 44.14 -6.19951 -16.3311 46.1403 -6.19951 
-7.87112 47.1188 -6.19951 0.588859 46.6356 -6.19951 17.4469 42.1295 -6.19951 
9.04884 44.578 -6.19951 17.5088 42.1295 -6.17792 25.9688 42.1295 -3.31523 
34.4288 42.1295 0.537804 -16.3311 -43.816 2.26047 -7.87112 -47.661 2.26047 
0.588859 -49.5095 2.26047 9.04884 -49.7421 2.26047 17.5088 -47.8405 2.26047 
25.9688 -44.7996 2.26047 -33.2511 -36.9935 2.26047 -19.7085 -42.4703 2.26047 
-24.7911 -40.3431 2.26047 -16.3311 -42.4703 4.19148 -7.87112 -42.4703 8.91957 
32.2786 -42.4703 2.26047 25.9688 -42.4703 8.43359 34.4288 -41.6448 2.26047 
42.8888 -37.3641 2.26047 -50.171 -27.5612 2.26047 -38.4788 -34.0103 2.26047 
-41.7111 -32.4198 2.26047 -33.2511 -34.0103 6.16175 -24.7911 -34.0103 10.323 
47.8033 -34.0103 2.26047 42.8888 -34.0103 10.716 51.3488 -31.0578 2.26047 
-53.3842 -25.5503 2.26047 -58.631 -21.1856 2.26047 -50.171 -25.5503 5.00841 
56.7124 -25.5503 2.26047 59.8087 -21.3134 2.26047 -61.4614 -17.0903 2.26047 
-58.631 -17.0903 6.44837 62.5157 -17.0903 2.26047 59.8087 -17.0903 7.11982 
-66.0381 -8.63036 2.26047 -67.091 -2.56145 2.26047 65.7958 -8.63036 2.26047 
-67.5058 -0.170377 2.26047 -67.091 1.57734 2.26047 -67.091 -0.170377 3.14911 
67.4147 -0.170377 2.26047 -65.4951 8.28961 2.26047 67.6389 8.28961 2.26047 
-61.1279 16.7496 2.26047 -58.631 20.6963 2.26047 -58.631 16.7496 7.68811 
65.0852 16.7496 2.26047 59.8087 25.0419 2.26047 -54.9269 25.2096 2.26047 
-50.171 29.6186 2.26047 -50.171 25.2096 10.2151 59.6338 25.2096 2.26047 
51.3488 32.8626 2.26047 -45.232 33.6696 2.26047 -41.7111 36.1766 2.26047 
-41.7111 33.6696 7.5307 -33.2511 41.0377 2.26047 50.2171 33.6696 2.26047 
42.8888 37.9831 2.26047 -30.8018 42.1295 2.26047 -24.7911 44.6279 2.26047 
-24.7911 42.1295 8.10821 -16.3311 47.1027 2.26047 -7.87112 48.6531 2.26047 
0.588859 49.378 2.26047 9.04884 49.1148 2.26047 17.5088 48.0086 2.26047 
25.9688 46.2766 2.26047 36.2927 42.1295 2.26047 34.4288 43.0732 2.26047 
0.588859 -43.848 10.7205 9.04884 -44.8086 10.7205 17.5088 -43.6163 10.7205 
-16.3311 -37.0823 10.7205 -3.38037 -42.4703 10.7205 -7.87112 -40.6271 10.7205 
0.588859 -42.4703 11.9785 9.04884 -42.4703 13.0004 22.1079 -42.4703 10.7205 
17.5088 -42.4703 11.9988 25.9688 -41.4253 10.7205 34.4288 -38.2053 10.7205 
-41.7111 -26.2366 10.7205 -33.2511 -30.1255 10.7205 -23.9215 -34.0103 10.7205 
-24.7911 -33.6421 10.7205 -16.3311 -34.0103 13.422 -7.87112 -34.0103 15.4135 
0.588859 -34.0103 17.0388 9.04884 -34.0103 17.9746 17.5088 -34.0103 18.1242 
25.9688 -34.0103 17.4997 42.884 -34.0103 10.7205 34.4288 -34.0103 14.7108 
42.8888 -34.007 10.7205 51.3488 -25.8298 10.7205 -42.9161 -25.5503 10.7205 
-50.171 -20.7509 10.7205 -41.7111 -25.5503 11.3985 -33.2511 -25.5503 14.5587 
-24.7911 -25.5503 16.9641 -16.3311 -25.5503 18.3682 -7.87112 -25.5503 18.5693 
0.588859 -25.5503 18.9331 34.4288 -25.5503 18.4385 42.8888 -25.5503 15.7345 
51.5912 -25.5503 10.7205 51.3488 -25.5503 10.9254 -54.4312 -17.0903 10.7205 
-58.631 -12.9178 10.7205 -50.171 -17.0903 13.8066 -41.7111 -17.0903 17.362 
-33.2511 -17.0903 18.7989 42.8888 -17.0903 17.5645 56.5381 -17.0903 10.7205 
51.3488 -17.0903 14.6365 59.8087 -11.8354 10.7205 -61.4226 -8.63036 10.7205 
-58.631 -8.63036 13.4451 -50.171 -8.63036 17.5634 42.8888 -8.63036 18.5588 
51.3488 -8.63036 15.931 61.2676 -8.63036 10.7205 59.8087 -8.63036 12.0082 
-62.468 -0.170377 10.7205 -58.631 -0.170377 14.4889 -50.171 -0.170377 18.9081 
[...]
POINT_DATA 538
SCALARS ImageScalars float
LOOKUP_TABLE default
0 0 0 0 0 0 0 0 0 
0 0 0 0 0 0 0 0 0 
0 0 0 0 0 0 0 0 0 
0 0 0 0 0 0 0 0 0 
0 0 0 0 0 0 0 0 0 
0 0 0 0 0 0 0 0 0 
0 0 0 0 0 0 0 0 0 
0 0 0 0 0 0 0 0 0 
0 0 0 0 0 0 0 0 0 
0 0 0 0 0 0 0 0 0 
0 0 0 0 0 0 0 0 0 
0 0 0 0 0 0 0 0 0 
0 0 0 0 0 0 0 0 0 
0 0 0 0 0 0 0 0 0 
0 0 0 0 0 0 0 0 0 
0 0 0 0 0 0 0 0 0 
0 0 0 0 0 0 0 0 0 
0 0 0 0 0 0 0 0 0 
0 0 0 0 0 0 0 0 0 
0 0 0 0 0 0 0 0 0 
0 0 0 0 0 0 0 0 0 
0 0 0 0 0 0 0 0 0 
0 0 0 0 0 0 0 0 0 
0 0 0 0 0 0 0 0 0 
0 0 0 0 0 0 0 0 0 
0 0 0 0 0 0 0 0 0 
0 0 0 0 0 0 0 0 0 
0 0 0 0 0 0 0 0 0 
0 0 0 0 0 0 0 0 0 
0 0 0 0 0 0 0 0 0 
0 0 0 0 0 0 0 0 0 
0 0 0 0 0 0 0 0 0 
0 0 0 0 0 0 0 0 0 
0 0 0 0 0 0 0 0 0 
0 0 0 0 0 0 0 0 0 
0 0 0 0 0 0 0 0 0 
0 0 0 0 0 0 0 0 0 
0 0 0 0 0 0 0 0 0 
0 0 0 0 0 0 0 0 0 
0 0 0 0 0 0 0 0 0 
0 0 0 0 0 0 0 0 0 
0 0 0 0 0 0 0 0 0 
0 0 0 0 0 0 0 0 0 
0 0 0 0 0 0 0 0 0 
0 0 0 0 0 0 0 0 0 
0 0 0 0 0 0 0 0 0 
0 0 0 0 0 0 0 0 0 
0 0 0 0 0 0 0 0 0 
0 0 0 0 0 0 0 0 0 
0 0 0 0 0 0 0 0 0 
0 0 0 0 0 0 0 0 0 
0 0 0 0 0 0 0 0 0 
0 0 0 0 0 0 0 0 0 
0 0 0 0 0 0 0 0 0 
0 0 0 0 0 0 0 0 0 
0 0 0 0 0 0 0 0 0 
0 0 0 0 0 0 0 0 0 
0 0 0 0 0 0 0 0 0 
0 0 0 0 0 0 0 0 0 
0 0 0 0 0 0 0 
NORMALS Normals float
0.0462445 0.0595422 0.997154 0.116809 -0.0591035 0.991394 0.00521535 -0.0404703 0.999167 
0.090849 0.724788 0.682956 0.0326117 0.524022 0.85108 0.0291922 0.455819 0.889593 
-0.0460656 0.50144 0.863965 -0.238533 0.620208 0.747291 0.453236 0.720847 0.524362 
0.240589 0.569465 0.786019 0.0971303 0.390858 0.915312 -0.0776787 0.218878 0.972655 
-0.0768657 0.16579 0.983161 0.0346369 0.119507 0.992229 0.0409042 0.182227 0.982405 
-0.106979 0.254462 0.961147 -0.267492 0.371095 0.889234 -0.403621 0.512062 0.75821 
0.5366 0.516344 0.667419 0.303705 0.325012 0.895617 0.102421 0.20562 0.973258 
-0.0870956 0.0829462 0.992741 -0.157571 0.00981792 0.987459 -0.142921 -0.000116017 0.989734 
0.045096 -0.0718609 0.996395 0.119181 0.00659651 0.992851 -0.0294608 0.0429951 0.998641 
-0.183653 0.111236 0.976677 -0.249478 0.214138 0.944407 -0.379124 0.328187 0.865192 
0.703838 0.376261 0.602529 0.325058 0.27426 0.905052 0.0664513 0.102075 0.992555 
0.117387 0.175487 0.977458 -0.0168848 0.00742804 0.99983 -0.107495 -0.0274181 0.993828 
-0.162175 -0.0663241 0.984531 -0.173893 0.098548 0.979821 0.0418205 0.0895423 0.995105 
0.157199 -0.00249669 0.987564 0.000514917 -0.0645012 0.997917 -0.103245 -0.0241839 0.994362 
-0.167919 0.0667848 0.983536 -0.239977 0.130517 0.961965 0.584879 0.0757257 0.807578 
0.134037 0.0434911 0.990022 0.331445 0.0109584 0.943411 -0.0542319 0.0306799 0.998057 
-0.101906 0.0143423 0.994691 -0.16505 -0.026031 0.985942 -0.0221783 -0.0210843 0.999532 
0.0439343 0.200055 0.978799 -0.07176 0.13318 0.988491 -0.0502399 -0.0168577 0.998595 
-0.0502984 -0.0515205 0.997404 -0.0557057 -0.0831631 0.994978 -0.0926987 -0.0445396 0.994698 
-0.214931 -0.00648299 0.976608 -0.308429 0.0216979 0.951 0.524088 -0.110183 0.844506 
0.138775 -0.0618985 0.988388 0.324655 -0.0846783 0.942034 -0.0224447 -0.0087472 0.99971 
0.126818 -0.0850988 0.988269 -0.04645 -0.0113875 0.998856 -0.10258 0.0202148 0.994519 
-0.140925 0.0505632 0.988728 0.0516865 0.0640294 0.996609 -0.0171648 -0.042535 0.998948 
-0.186081 -0.0253631 0.982207 -0.0093292 -0.0190063 0.999776 -0.0660201 -0.0436858 0.996862 
-0.096526 -0.109193 0.989323 -0.0936423 -0.140699 0.985614 -0.187224 -0.143181 0.971826 
-0.300306 -0.134335 0.944336 0.608118 -0.295581 0.736767 0.384125 -0.177689 0.906021 
0.0310147 -0.0598716 0.997724 0.154946 -0.149357 0.976568 -0.0196115 -0.0241748 0.999515 
0.0172222 -0.0567832 0.998238 -0.118871 0.0416059 0.992038 -0.100382 0.0441833 0.993967 
-0.0536405 -0.118611 0.991491 -0.0556562 0.0136939 0.998356 -0.0699695 -0.0560549 0.995973 
-0.141431 -0.143786 0.97945 -0.151612 -0.162057 0.975065 -0.127702 -0.201469 0.971135 
-0.192897 -0.211733 0.958102 0.474404 -0.37047 0.798557 0.256659 -0.236902 0.937018 
0.0879291 -0.15613 0.983815 -0.0554322 -0.0799335 0.995258 -0.111234 -0.0279265 0.993402 
-0.0633514 -0.0320001 0.997478 -0.101122 -0.08695 0.991067 -0.171525 -0.203964 0.963835 
-0.16731 -0.255428 0.952242 -0.152298 -0.229699 0.961272 0.390079 -0.444284 0.806505 
0.172155 -0.31767 0.932442 0.017054 -0.231855 0.972601 -0.0517365 -0.130283 0.990126 
-0.117371 -0.127598 0.984857 -0.227266 -0.216026 0.94957 -0.228184 -0.288531 0.929883 
0.315461 -0.596226 0.73824 0.13242 -0.469823 0.872772 0.00244073 -0.380865 0.924627 
-0.130514 -0.347421 0.928582 -0.265577 -0.374823 0.888243 0.134651 0.785051 0.604619 
0.0946589 0.636882 0.765128 0.0286738 0.613078 0.789502 -0.0924148 0.63981 0.762956 
-0.258538 0.669065 0.696785 0.467936 0.748462 0.469936 0.350027 0.79442 0.496365 
0.228789 0.825367 0.516163 0.239392 0.826444 0.50959 0.254839 0.849047 0.462791 
-0.297093 0.659127 0.69086 -0.34897 0.59734 0.722084 -0.411218 0.79405 0.447643 
-0.406115 0.520405 0.751165 0.486885 0.736425 0.469703 0.590852 0.618846 0.517613 
-0.406712 0.517744 0.75268 -0.399994 0.380506 0.833799 -0.487701 0.722197 0.49049 
0.629319 0.560309 0.538527 0.707193 0.386217 0.592211 -0.412138 0.34937 0.841477 
-0.605906 0.53343 0.590195 0.708571 0.380743 0.594107 -0.407456 0.245157 0.879703 
-0.38724 0.173959 0.905419 -0.448018 0.274102 0.850969 -0.803949 0.374724 0.461789 
0.695362 0.143077 0.704273 -0.365693 0.0499139 0.929396 -0.670392 0.150822 0.726517 
0.669093 -0.121639 0.733156 0.956863 -0.0885954 0.2767 -0.304505 -0.13463 0.942948 
-0.300113 -0.137942 0.943877 -0.620183 -0.109642 0.776757 0.618676 -0.302577 0.725043 
0.618141 -0.308147 0.723151 -0.144522 -0.248242 0.957856 -0.220163 -0.220059 0.950317 
-0.204684 -0.234787 0.950253 -0.321484 -0.246892 0.914162 -0.603995 -0.171347 0.778351 
0.601338 -0.396794 0.693503 0.783488 -0.477677 0.397456 0.532879 -0.488931 0.690642 
-0.154421 -0.307922 0.938796 -0.146078 -0.249027 0.957417 -0.14769 -0.268167 0.951984 
-0.145843 -0.251507 0.956804 -0.23353 -0.303865 0.92365 -0.324083 -0.355062 0.87687 
-0.575628 -0.348943 0.739521 0.49378 -0.532512 0.687468 0.603492 -0.61694 0.505155 
0.452738 -0.575012 0.681461 -0.155236 -0.308134 0.938592 -0.246931 -0.337911 0.908208 
-0.154372 -0.308349 0.938664 -0.148583 -0.311553 0.93854 -0.206264 -0.327848 0.921939 
-0.293622 -0.431963 0.852757 0.381423 -0.630508 0.676 0.526747 -0.743234 0.412481 
0.339391 -0.648204 0.681649 0.199427 -0.656717 0.72729 0.0577901 -0.65203 0.755987 
-0.103377 -0.591321 0.799783 -0.268365 -0.379835 0.885271 -0.254528 -0.472749 0.843637 
-0.256296 -0.385172 0.886541 -0.170835 -0.428488 0.88725 -0.17437 -0.451754 0.874936 
-0.323668 -0.527774 0.785299 0.270796 -0.853612 0.44499 0.0951835 -0.764283 0.637818 
-0.0793839 -0.702422 0.70732 -0.204207 -0.661006 0.72206 -0.235171 -0.633777 0.7369 
0.362322 0.928486 -0.0814718 0.311672 0.950161 0.00734113 0.223725 0.970202 0.0930327 
0.0460213 0.991021 0.125536 -0.131714 0.979469 0.152615 -0.32097 0.930908 0.174321 
-0.419186 0.881965 0.215454 0.463982 0.879357 -0.107015 0.392784 0.915632 -0.0856683 
0.410513 0.908063 -0.0830632 0.349495 0.887564 -0.300137 -0.435959 0.860807 0.262585 
-0.457296 0.834201 0.308204 -0.494708 0.785293 0.372262 0.532312 0.841706 -0.0904178 
0.582713 0.811015 -0.0519573 0.435532 0.824346 -0.361615 -0.532525 0.758178 0.376275 
-0.631477 0.658541 0.409341 0.708782 0.70369 0.0494866 0.750812 0.656531 0.0724437 
-0.699162 0.575124 0.424741 -0.811945 0.390123 0.434224 0.876139 0.473136 0.0923161 
-0.815325 0.37762 0.438917 0.961378 0.226266 0.156704 0.982006 0.0917568 0.16506 
-0.848252 0.205156 0.488242 0.980077 -0.0765922 0.183257 0.967693 -0.155007 0.198854 
-0.768383 -0.0440248 0.638474 0.892743 -0.362293 0.267869 -0.675346 -0.16539 0.718717 
0.812986 -0.501873 0.295259 0.790289 -0.541849 0.28608 -0.433437 -0.504618 0.746655 
-0.637051 -0.348383 0.687601 -0.59397 -0.38646 0.705583 0.708576 -0.653405 0.266424 
0.659516 -0.704284 0.262722 -0.429947 -0.510082 0.744958 -0.343102 -0.560908 0.753434 
-0.471026 -0.539747 0.697717 0.584633 -0.772554 0.24772 0.542588 -0.803666 0.244374 
0.41428 -0.875458 0.248888 -0.227042 -0.651033 0.724298 -0.214036 -0.621611 0.753518 
-0.350202 -0.572325 0.741487 -0.335797 -0.578991 0.742974 -0.410018 -0.706476 0.576868 
0.361213 -0.898179 0.250597 0.289695 -0.921476 0.258764 0.166399 -0.936258 0.309406 
0.0315311 -0.921493 0.387112 -0.126874 -0.825616 0.549784 -0.227219 -0.651649 0.723688 
-0.216386 -0.716754 0.662903 -0.22714 -0.652281 0.723144 -0.236944 -0.773848 0.587381 
-0.406193 -0.8454 0.346851 0.347489 0.807197 -0.477163 0.299997 0.856451 -0.420111 
0.107448 0.932515 -0.344776 -0.0947814 0.952763 -0.288547 -0.267199 0.933033 -0.240944 
-0.352592 0.920847 -0.166494 0.367804 0.790315 -0.490023 0.333496 0.803114 -0.493749 
0.316546 0.802544 -0.505689 0.339509 0.779486 -0.526436 0.292187 0.691928 -0.660199 
-0.392601 0.912738 -0.113017 -0.276936 0.863099 -0.422335 -0.406605 0.908244 -0.0988229 
-0.497215 0.863418 -0.0853672 0.478209 0.770655 -0.421198 0.400999 0.774439 -0.489331 
0.410982 0.774303 -0.481195 0.358316 0.748246 -0.558335 0.278777 0.697611 -0.660017 
-0.585495 0.804697 -0.098283 -0.47637 0.679641 -0.557817 -0.660474 0.742315 -0.112881 
0.547647 0.738519 -0.393284 0.697725 0.618748 -0.361013 0.465961 0.740656 -0.484055 
-0.773015 0.619968 -0.134491 -0.836501 0.531107 -0.134872 0.768981 0.548146 -0.328944 
0.661326 0.554572 -0.505072 -0.880977 0.456854 -0.12314 -0.773805 0.44697 -0.448824 
0.923187 0.291281 -0.250762 0.967898 0.059793 -0.244128 -0.951573 0.288767 -0.105466 
0.971188 -0.0312756 -0.236253 0.969471 -0.0912746 -0.227586 0.961812 -0.0278025 -0.272296 
-0.993676 0.10102 -0.0490257 0.930636 -0.323613 -0.170853 -0.985738 -0.147042 0.0818491 
0.841308 -0.522313 -0.139249 0.796431 -0.587097 -0.144967 0.759843 -0.50064 -0.414726 
-0.912617 -0.395387 0.10392 -0.732504 -0.652525 0.194036 0.719127 -0.678141 -0.151595 
0.65884 -0.735327 -0.158824 0.56588 -0.608684 -0.556133 -0.727942 -0.656619 0.197363 
-0.571039 -0.783232 0.245892 0.588266 -0.791601 -0.16526 0.540894 -0.824627 -0.165599 
0.510536 -0.752976 -0.415187 0.432904 -0.88508 -0.170958 -0.552408 -0.795236 0.249889 
-0.492411 -0.829022 0.265054 0.401745 -0.901054 -0.163409 0.329497 -0.930914 -0.157582 
0.325788 -0.839352 -0.435144 0.229058 -0.966968 -0.111826 0.133546 -0.990978 -0.0112927 
0.027881 -0.998049 0.0558675 -0.0783115 -0.977588 0.195419 -0.167847 -0.946476 0.275699 
-0.28542 -0.91899 0.272017 -0.441587 -0.861725 0.249862 -0.4188 -0.87348 0.248272 
0.169631 0.687715 -0.705885 -0.0163142 0.739438 -0.673027 -0.162613 0.778553 -0.606145 
0.278308 0.663469 -0.694516 0.225971 0.661711 -0.714895 0.270681 0.628705 -0.729014 
0.173272 0.645317 -0.744005 0.0054192 0.654396 -0.756133 -0.205494 0.799706 -0.564129 
-0.146431 0.74386 -0.652097 -0.24469 0.807555 -0.536639 -0.364405 0.757344 -0.541885 
0.351761 0.658642 -0.665173 0.311546 0.672572 -0.671257 0.274509 0.68763 -0.672168 
0.274719 0.687895 -0.671812 0.233968 0.599537 -0.765385 0.183122 0.459744 -0.868966 
0.132132 0.350111 -0.927342 0.0602158 0.319702 -0.945603 -0.0227166 0.399907 -0.916274 
-0.162532 0.49268 -0.854897 -0.476251 0.679504 -0.558086 -0.331341 0.580312 -0.743944 
-0.476316 0.679413 -0.55814 -0.595205 0.47096 -0.651098 0.359055 0.655308 -0.664569 
0.439101 0.595161 -0.673034 0.346007 0.645364 -0.681017 0.268515 0.551939 -0.78947 
0.187245 0.443773 -0.876359 0.0844305 0.321416 -0.943167 0.0325127 0.247102 -0.968444 
0.0483251 0.166111 -0.984922 -0.260771 0.213094 -0.941589 -0.404202 0.325851 -0.854659 
-0.597252 0.466614 -0.652351 -0.590464 0.46341 -0.66076 0.506449 0.536457 -0.675073 
0.604581 0.419934 -0.676858 0.429897 0.496323 -0.754223 0.239227 0.406554 -0.881751 
0.129523 0.285356 -0.949629 -0.240528 0.158161 -0.95767 -0.604642 0.364734 -0.70808 
-0.468707 0.261932 -0.843626 -0.637722 0.351623 -0.685326 0.708227 0.275271 -0.650108 
0.590321 0.296514 -0.750733 0.34689 0.244811 -0.905392 -0.190197 0.078656 -0.97859 
-0.345392 0.153633 -0.925798 -0.664132 0.319233 -0.676032 -0.599086 0.314272 -0.73643 
0.748418 0.00908784 -0.663166 0.584662 0.0212889 -0.810997 0.326011 0.0391737 -0.944554 
-0.0431611 -0.00419343 -0.999059 -0.123265 0.0803891 -0.989112 -0.261174 0.137788 -0.955407 
-0.788626 0.153802 -0.595327 -0.547999 0.168302 -0.819373 0.760467 -0.247554 -0.60034 
0.697334 -0.398362 -0.595846 0.620528 -0.233279 -0.748683 0.350888 -0.182517 -0.918458 
-0.230492 0.0459 -0.971991 -0.824866 -0.0647984 -0.561603 -0.556902 -0.0310815 -0.829996 
0.652446 -0.458715 -0.603237 0.553136 -0.590261 -0.587905 0.444263 -0.369225 -0.816274 
0.241504 -0.279301 -0.929337 -0.327232 -0.0785638 -0.941672 -0.818053 -0.278127 -0.503424 
-0.737938 -0.475297 -0.479104 -0.668946 -0.264817 -0.694538 0.547406 -0.594515 -0.58898 
0.452819 -0.65007 -0.610216 0.354771 -0.451402 -0.818764 0.187996 -0.344665 -0.919708 
0.0495006 -0.227021 -0.972631 0.0565239 -0.135111 -0.989217 -0.159139 -0.193526 -0.968102 
-0.692633 -0.573421 -0.437546 -0.577381 -0.715714 -0.392917 -0.443392 -0.412847 -0.795588 
0.421929 -0.667469 -0.613565 0.359827 -0.680395 -0.638425 0.31652 -0.589064 -0.743518 
0.302616 -0.736095 -0.605465 0.214462 -0.429686 -0.877141 0.174779 -0.331777 -0.927026 
-0.178043 -0.383714 -0.906126 -0.568969 -0.730117 -0.378422 -0.516218 -0.785187 -0.342053 
-0.397546 -0.581047 -0.71017 0.28288 -0.753394 -0.593612 0.268633 -0.748488 -0.606302 
0.247752 -0.700412 -0.669359 0.247802 -0.800055 -0.546358 0.255382 -0.600726 -0.757567 
0.124562 -0.899547 -0.418688 0.188381 -0.539588 -0.820584 0.0150499 -0.937758 -0.346963 
0.0128869 -0.509581 -0.860326 -0.174578 -0.936569 -0.303909 -0.197759 -0.510109 -0.837066 
-0.320898 -0.857895 -0.401298 -0.27717 -0.698322 -0.659942 -0.408608 -0.845519 -0.343712 
-0.389268 -0.855434 -0.341619 -0.379672 -0.823933 -0.420695 0.0779134 0.130497 -0.988383 
0.0231351 0.273059 -0.961719 -0.12713 0.313662 -0.940986 0.0830821 0.216692 -0.972698 
0.043062 0.163335 -0.985631 0.0220977 0.185219 -0.982449 0.0651219 0.128068 -0.989625 
0.032526 0.154823 -0.987407 0.0808054 0.0934518 -0.992339 0.0654435 0.135362 -0.988633 
-0.206556 0.190993 -0.959613 -0.103582 0.160376 -0.981606 -0.184048 0.0634734 -0.980866 
0.168372 0.241411 -0.955705 0.0994404 0.233157 -0.967341 0.09724 0.245465 -0.964516 
0.0537674 0.154313 -0.986558 0.0153089 0.0440194 -0.998913 0.0142329 0.105634 -0.994303 
-0.0200501 0.11845 -0.992758 0.0341609 -0.00246282 -0.999413 0.05987 -0.0340009 -0.997627 
-0.0765482 -0.0474232 -0.995937 -0.178095 0.0533501 -0.982566 -0.175681 0.0484783 -0.983253 
0.201136 0.199535 -0.959026 0.144938 0.187447 -0.971523 0.00947927 0.137161 -0.990503 
-0.0594033 0.0545693 -0.996741 0.0254964 0.00555632 -0.999659 0.104819 0.121748 -0.987011 
-0.0466006 -0.0140487 -0.998815 -0.0641949 -0.0604784 -0.996103 -0.0672645 0.0937224 -0.993324 
0.0186079 -0.00353145 -0.999821 -0.0287104 -0.0693491 -0.997179 -0.084343 0.0237587 -0.996153 
-0.065257 0.0140627 -0.997769 0.298901 0.039318 -0.953474 0.127951 0.0394162 -0.990997 
-0.0129117 0.0410728 -0.999073 -0.0751504 0.0520083 -0.995815 0.0798563 0.109456 -0.990779 
-0.0456546 0.00563003 -0.998941 -0.0585801 0.0972016 -0.993539 -0.0255996 0.0218784 -0.999433 
-0.0304973 0.018607 -0.999362 0.0944498 0.195204 -0.976204 -0.111988 0.0979817 -0.988867 
-0.0601881 0.0396698 -0.997398 -0.0911912 0.0742831 -0.993059 -0.0296666 0.0634636 -0.997543 
-0.121309 0.0726819 -0.98995 0.269304 -0.161198 -0.949468 0.214172 -0.234124 -0.948323 
0.148521 -0.132208 -0.980032 0.0201675 -0.0650539 -0.997678 0.00613493 -0.0260839 -0.999641 
0.0728263 -0.0222212 -0.997097 -0.0153166 -0.135963 -0.990596 0.0352303 0.132717 -0.990528 
0.0293676 0.0367547 -0.998893 -0.133697 0.0194181 -0.990832 -0.0574936 0.0773967 -0.995341 
-0.0236586 0.104909 -0.9942 -0.165762 0.043162 -0.985221 -0.106326 0.0399873 -0.993527 
0.18541 -0.235466 -0.954033 0.138285 -0.248171 -0.958795 0.095315 -0.168046 -0.98116 
0.029643 -0.198977 -0.979556 -0.0265875 -0.120746 -0.992327 0.0356171 -0.129486 -0.990941 
-0.0246 -0.115215 -0.993036 0.0920275 -0.126274 -0.987717 0.132674 0.033194 -0.990604 
-0.0204669 -0.0313165 -0.9993 -0.0702691 0.00459629 -0.997517 0.0197853 -0.0139019 -0.999708 
-0.0667745 -0.0401619 -0.996959 -0.215854 -0.0603008 -0.974562 -0.160792 -0.128195 -0.978628 
-0.172099 -0.0552997 -0.983526 0.073438 -0.114172 -0.990743 0.139987 -0.035605 -0.989513 
0.132707 -0.051577 -0.989812 -0.00218805 -0.0564982 -0.9984 -0.110524 -0.0330113 -0.993325 
-0.103254 -0.0905505 -0.990525 -0.116181 -0.192154 -0.974463 -0.0871244 -0.236512 -0.967714 
-0.0689867 -0.203502 -0.976641 0.17318 -0.23406 -0.956674 0.174347 -0.235705 -0.956058 
0.173209 -0.231802 -0.957218 0.141319 -0.328861 -0.933745 0.108273 -0.208226 -0.972069 
0.0115973 -0.447269 -0.894324 -0.000318505 -0.182258 -0.983251 -0.148783 -0.325436 -0.933785 
-0.103454 -0.198488 -0.974628 -0.156892 -0.257017 -0.953587 -0.157123 -0.257187 -0.953503 
-0.156911 -0.256625 -0.953689 
