# vtk DataFile Version 4.2
vtk output
ASCII
DATASET POLYDATA
POINTS 510 float
-24.1626 -41.0715 -15.8251 -16.1689 -41.0715 -17.9486 -8.17525 -41.0715 -17.7013 
-0.181572 -41.0715 -16.5209 -32.1563 -33.0779 -17.3378 -24.1626 -33.0779 -20.3577 
-16.1689 -33.0779 -21.0367 -8.17525 -33.0779 -20.5822 -0.181572 -33.0779 -19.6799 
7.8121 -33.0779 -19.1314 15.8058 -33.0779 -18.4775 23.7995 -33.0779 -17.1758 
-32.1563 -25.0842 -19.9772 -24.1626 -25.0842 -21.4441 -16.1689 -25.0842 -21.7208 
-8.17525 -25.0842 -21.5462 -0.181572 -25.0842 -20.9327 7.8121 -25.0842 -20.4757 
15.8058 -25.0842 -20.1501 23.7995 -25.0842 -19.2536 31.7931 -25.0842 -17.2559 
-40.1499 -17.0905 -17.6418 -32.1563 -17.0905 -20.3396 -24.1626 -17.0905 -21.0801 
-16.1689 -17.0905 -20.8889 -8.17525 -17.0905 -20.7629 -0.181572 -17.0905 -21.1723 
7.8121 -17.0905 -21.3468 15.8058 -17.0905 -21.1025 23.7995 -17.0905 -20.6241 
31.7931 -17.0905 -19.4615 39.7868 -17.0905 -16.8747 -40.1499 -9.09684 -18.2317 
-32.1563 -9.09684 -19.7013 -24.1626 -9.09684 -20.3235 -16.1689 -9.09684 -19.8576 
-8.17525 -9.09684 -20.7141 -0.181572 -9.09684 -22.8502 7.8121 -9.09684 -23.3315 
15.8058 -9.09684 -22.3404 23.7995 -9.09684 -21.7522 31.7931 -9.09684 -21.1611 
39.7868 -9.09684 -18.9938 -40.1499 -1.10317 -17.4479 -32.1563 -1.10317 -18.8611 
-24.1626 -1.10317 -19.8092 -16.1689 -1.10317 -21.3261 -8.17525 -1.10317 -23.0559 
-0.181572 -1.10317 -22.226 7.8121 -1.10317 -23.7705 15.8058 -1.10317 -22.862 
23.7995 -1.10317 -22.2829 31.7931 -1.10317 -22.0597 39.7868 -1.10317 -20.1571 
47.7805 -1.10317 -16.0631 -32.1563 6.89051 -17.4757 -24.1626 6.89051 -18.6875 
-16.1689 6.89051 -22.1283 -8.17525 6.89051 -22.9162 -0.181572 6.89051 -20.8858 
7.8121 6.89051 -23.1394 15.8058 6.89051 -22.7364 23.7995 6.89051 -22.1877 
31.7931 6.89051 -21.9665 39.7868 6.89051 -20.0027 -24.1626 14.8842 -16.7484 
-16.1689 14.8842 -19.9227 -8.17525 14.8842 -21.5531 -0.181572 14.8842 -20.531 
7.8121 14.8842 -21.9968 15.8058 14.8842 -22.6191 23.7995 14.8842 -22.1106 
31.7931 14.8842 -20.9689 39.7868 14.8842 -18.717 -16.1689 22.8779 -17.8261 
-8.17525 22.8779 -20.2086 -0.181572 22.8779 -20.4944 7.8121 22.8779 -21.4134 
15.8058 22.8779 -22.0522 23.7995 22.8779 -21.461 31.7931 22.8779 -19.4799 
-8.17525 30.8715 -18.5514 -0.181572 30.8715 -19.8443 7.8121 30.8715 -20.5741 
15.8058 30.8715 -20.4029 23.7995 30.8715 -19.1462 -0.181572 38.8652 -16.8296 
7.8121 38.8652 -17.519 15.8058 38.8652 -16.4643 -24.1626 -41.0718 -15.8248 
-16.1689 -43.5827 -15.8248 -8.17525 -43.5687 -15.8248 -0.181572 -41.9865 -15.8248 
-24.1631 -41.0715 -15.8248 -32.1563 -35.4123 -15.8248 4.77673 -41.0715 -15.8248 
7.8121 -40.2542 -15.8248 7.8121 -41.0715 -15.2583 15.8058 -38.0956 -15.8248 
15.8058 -41.0715 -13.7024 23.7995 -35.6148 -15.8248 23.7995 -41.0715 -10.7236 
-34.5016 -33.0779 -15.8248 26.9627 -33.0779 -15.8248 31.7931 -28.3559 -15.8248 
31.7931 -33.0779 -13.252 -39.8319 -25.0842 -15.8248 -40.1499 -24.4197 -15.8248 
-40.1499 -25.0842 -15.5733 35.9161 -25.0842 -15.8248 39.7868 -20.5172 -15.8248 
39.7868 -25.0842 -13.8929 -43.0465 -17.0905 -15.8248 -48.1436 -17.0905 -10.5518 
41.9882 -17.0905 -15.8248 47.7805 -17.0905 -12.3362 -44.5983 -9.09684 -15.8248 
-48.1436 -9.09684 -12.9994 46.0039 -9.09684 -15.8248 47.7805 -2.65533 -15.8248 
47.7805 -9.09684 -14.7313 -44.2203 -1.10317 -15.8248 -48.1436 -1.10317 -13.7524 
-40.1499 6.60701 -15.8248 48.073 -1.10317 -15.8248 47.7805 3.45575 -15.8248 
-48.1436 6.89051 -11.96 -39.8587 6.89051 -15.8248 -40.1499 6.89051 -15.7558 
-32.1563 13.4583 -15.8248 47.4756 6.89051 -15.8248 47.7805 6.89051 -15.6048 
-48.1436 14.8842 -8.73163 -40.1499 14.8842 -13.0193 -29.8337 14.8842 -15.8248 
-32.1563 14.8842 -15.4278 -24.1626 17.8987 -15.8248 44.4962 14.8842 -15.8248 
39.7868 22.4139 -15.8248 47.7805 14.8842 -12.6327 -40.1499 22.8779 -9.45525 
-32.1563 22.8779 -11.9418 -20.6284 22.8779 -15.8248 -24.1626 22.8779 -14.2669 
-16.1689 29.2143 -15.8248 39.3817 22.8779 -15.8248 31.7931 30.3136 -15.8248 
39.7868 22.8779 -15.554 -24.1626 30.8715 -10.8118 -14.9591 30.8715 -15.8248 
-16.1689 30.8715 -15.2472 -8.17525 36.4461 -15.8248 31.1909 30.8715 -15.8248 
23.7995 35.7131 -15.8248 31.7931 30.8715 -15.4049 -16.1689 38.8652 -9.75586 
-3.70669 38.8652 -15.8248 -8.17525 38.8652 -14.2391 -0.181572 40.2185 -15.8248 
7.8121 41.0658 -15.8248 17.5974 38.8652 -15.8248 15.8058 39.6175 -15.8248 
23.7995 38.8652 -11.8042 -24.1626 -45.6927 -7.83117 -16.1689 -48.108 -7.83117 
-8.17525 -48.8705 -7.83117 -8.17525 -49.0652 -2.6519 -0.181572 -47.6453 -7.83117 
7.8121 -46.3967 -7.83117 15.8058 -45.2179 -7.83117 23.7995 -42.866 -7.83117 
-31.6514 -41.0715 -7.83117 -32.1563 -40.6946 -7.83117 27.3784 -41.0715 -7.83117 
31.7931 -38.5247 -7.83117 -40.1234 -33.0779 -7.83117 -40.1499 -33.0458 -7.83117 
38.582 -33.0779 -7.83117 39.7868 -31.8401 -7.83117 39.7868 -33.0779 -5.50437 
-46.0162 -25.0842 -7.83117 -48.1436 -20.8712 -7.83117 46.6204 -25.0842 -7.83117 
47.7805 -23.7027 -7.83117 47.7805 -25.0842 -6.04686 -49.9135 -17.0905 -7.83117 
51.9977 -17.0905 -7.83117 55.7742 -17.0905 -1.08105 -52.244 -9.09684 -7.83117 
54.4477 -9.09684 -7.83117 55.7742 -9.09684 -4.80034 -53.3121 -1.10317 -7.83117 
54.9555 -1.10317 -7.83117 55.7742 -1.10317 -5.50176 -52.2619 6.89051 -7.83117 
-56.1373 6.89051 -0.162258 53.8935 6.89051 -7.83117 -49.2822 14.8842 -7.83117 
-48.1436 16.455 -7.83117 50.9682 14.8842 -7.83117 47.7805 20.3194 -7.83117 
-42.7398 22.8779 -7.83117 -48.1436 22.8779 -2.38899 -40.1499 25.1524 -7.83117 
-32.1563 30.4698 -7.83117 46.0265 22.8779 -7.83117 39.7868 30.0341 -7.83117 
-40.1499 30.8715 -1.66498 -31.5938 30.8715 -7.83117 -32.1563 30.8715 -7.56925 
-24.1626 35.4149 -7.83117 38.8573 30.8715 -7.83117 31.7931 36.301 -7.83117 
39.7868 30.8715 -4.13228 -19.5528 38.8652 -7.83117 -24.1626 38.8652 -4.37449 
-16.1689 40.8061 -7.83117 -8.17525 44.6066 -7.83117 -0.181572 46.5806 -7.83117 
7.8121 46.4986 -7.83117 15.8058 44.6468 -7.83117 27.6449 38.8652 -7.83117 
23.7995 41.0328 -7.83117 -8.17525 46.8589 -2.73285 -0.181572 46.8589 -6.9653 
7.8121 46.8589 -5.81616 -8.17525 -49.1674 0.162506 -24.1626 -45.8762 0.162506 
-9.71011 -49.0652 0.162506 -16.1689 -48.6349 0.162506 -7.34547 -49.0652 0.162506 
-8.17525 -49.0652 0.424154 -0.181572 -48.1417 0.162506 7.8121 -46.4237 0.162506 
15.8058 -44.8201 0.162506 23.7995 -42.7859 0.162506 -31.1545 -41.0715 0.162506 
-32.1563 -40.2719 0.162506 15.8058 -41.0715 6.14818 27.984 -41.0715 0.162506 
23.7995 -41.0715 3.09469 31.7931 -39.5415 0.162506 39.7868 -35.1486 0.162506 
-39.778 -33.0779 0.162506 -40.1499 -32.6975 0.162506 42.4988 -33.0779 0.162506 
39.7868 -33.0779 5.71075 47.7805 -28.3192 0.162506 -46.8689 -25.0842 0.162506 
-48.1436 -23.1505 0.162506 50.7678 -25.0842 0.162506 55.7742 -18.0437 0.162506 
-51.5169 -17.0905 0.162506 56.3251 -17.0905 0.162506 55.7742 -17.0905 2.59808 
-54.7052 -9.09684 0.162506 57.6078 -9.09684 0.162506 -56.0916 -1.10317 0.162506 
-56.1373 0.838395 0.162506 57.4931 -1.10317 0.162506 55.7742 6.51471 0.162506 
55.7742 -1.10317 7.14203 -56.2756 6.89051 0.162506 -56.1373 7.59955 0.162506 
-56.1373 6.89051 0.961615 55.6831 6.89051 0.162506 -54.4568 14.8842 0.162506 
52.377 14.8842 0.162506 47.7805 22.6697 0.162506 -50.1393 22.8779 0.162506 
-48.1436 25.5152 0.162506 47.6405 22.8779 0.162506 -42.3304 30.8715 0.162506 
-40.1499 32.4653 0.162506 -32.1563 38.1797 0.162506 31.7931 37.6045 0.162506 
40.6693 30.8715 0.162506 39.7868 31.6708 0.162506 39.7868 30.8715 2.62035 
-30.7674 38.8652 0.162506 -32.1563 38.8652 4.03731 -24.1626 41.8481 0.162506 
-16.1689 45.858 0.162506 15.8058 45.4326 0.162506 29.6032 38.8652 0.162506 
23.7995 41.9555 0.162506 -12.6574 46.8589 0.162506 -8.17525 47.9562 0.162506 
-0.181572 48.8097 0.162506 11.189 46.8589 0.162506 7.8121 47.8453 0.162506 
7.8121 46.8589 7.75087 -24.1626 -42.3333 8.15618 -16.1689 -45.0067 8.15618 
-8.17525 -45.4113 8.15618 -0.181572 -43.3949 8.15618 7.8121 -41.4203 8.15618 
-26.0521 -41.0715 8.15618 -32.1563 -36.1157 8.15618 -24.1626 -41.0715 9.753 
-16.1689 -41.0715 12.3933 -8.17525 -41.0715 12.4841 -0.181572 -41.0715 10.5077 
9.45903 -41.0715 8.15618 7.8121 -41.0715 8.51895 15.8058 -39.3827 8.15618 
23.7995 -37.503 8.15618 31.7931 -35.5006 8.15618 -35.5073 -33.0779 8.15618 
-40.1499 -28.8412 8.15618 -32.1563 -33.0779 11.2006 -24.1626 -33.0779 15.5183 
-0.181572 -33.0779 15.4099 7.8121 -33.0779 13.819 15.8058 -33.0779 12.8767 
23.7995 -33.0779 11.892 37.4083 -33.0779 8.15618 31.7931 -33.0779 10.5613 
39.7868 -31.7807 8.15618 47.7805 -26.041 8.15618 -43.5414 -25.0842 8.15618 
-48.1436 -18.8605 8.15618 -40.1499 -25.0842 12.0584 31.7931 -25.0842 15.8565 
39.7868 -25.0842 14.0118 48.7756 -25.0842 8.15618 47.7805 -25.0842 9.22286 
-49.2884 -17.0905 8.15618 -48.1436 -17.0905 9.76505 54.1411 -17.0905 8.15618 
47.7805 -17.0905 14.6045 55.7742 -10.7889 8.15618 -52.9725 -9.09684 8.15618 
-48.1436 -9.09684 13.989 47.7805 -9.09684 15.801 56.1471 -9.09684 8.15618 
55.7742 -4.5244 8.15618 55.7742 -9.09684 8.67762 -54.3367 -1.10317 8.15618 
-48.1436 -1.10317 15.6144 55.4649 -1.10317 8.15618 47.7805 -1.10317 15.5508 
-54.7192 6.89051 8.15618 -48.1436 6.89051 16.0953 53.1956 6.89051 8.15618 
47.7805 6.89051 14.2451 -53.9659 14.8842 8.15618 -48.1436 14.8842 15.4967 
39.7868 14.8842 15.9341 49.6154 14.8842 8.15618 47.7805 17.9244 8.15618 
47.7805 14.8842 10.2884 -50.7171 22.8779 8.15618 -48.1436 26.8343 8.15618 
-48.1436 22.8779 13.109 44.572 22.8779 8.15618 39.7868 28.5268 8.15618 
39.7868 22.8779 12.826 -44.6214 30.8715 8.15618 -40.1499 34.581 8.15618 
-40.1499 30.8715 15.8073 37.2977 30.8715 8.15618 31.7931 35.23 8.15618 
31.7931 30.8715 13.0317 -33.2856 38.8652 8.15618 -32.1563 39.4859 8.15618 
-32.1563 38.8652 9.90397 -24.1626 43.2307 8.15618 -16.1689 46.1071 8.15618 
7.8121 46.8031 8.15618 15.8058 44.0032 8.15618 25.9755 38.8652 8.15618 
23.7995 40.0705 8.15618 23.7995 38.8652 10.1882 -13.0333 46.8589 8.15618 
-8.17525 48.0341 8.15618 -8.17525 46.8589 10.9553 7.51417 46.8589 8.15618 
-0.181572 48.2311 8.15618 -0.181572 46.8589 11.4307 -16.1689 -34.6996 16.1499 
[...]
POINT_DATA 510
SCALARS ImageScalars float
LOOKUP_TABLE default
0 0 0 0 0 0 0 0 0 
0 0 0 0 0 0 0 0 0 
0 0 0 0 0 0 0 0 0 
0 0 0 0 0 0 0 0 0 
0 0 0 0 0 0 0 0 0 
0 0 0 0 0 0 0 0 0 
0 0 0 0 0 0 0 0 0 
0 0 0 0 0 0 0 0 0 
0 0 0 0 0 0 0 0 0 
0 0 0 0 0 0 0 0 0 
0 0 0 0 0 0 0 0 0 
0 0 0 0 0 0 0 0 0 
0 0 0 0 0 0 0 0 0 
0 0 0 0 0 0 0 0 0 
0 0 0 0 0 0 0 0 0 
0 0 0 0 0 0 0 0 0 
0 0 0 0 0 0 0 0 0 
0 0 0 0 0 0 0 0 0 
0 0 0 0 0 0 0 0 0 
0 0 0 0 0 0 0 0 0 
0 0 0 0 0 0 0 0 0 
0 0 0 0 0 0 0 0 0 
0 0 0 0 0 0 0 0 0 
0 0 0 0 0 0 0 0 0 
0 0 0 0 0 0 0 0 0 
0 0 0 0 0 0 0 0 0 
0 0 0 0 0 0 0 0 0 
0 0 0 0 0 0 0 0 0 
0 0 0 0 0 0 0 0 0 
0 0 0 0 0 0 0 0 0 
0 0 0 0 0 0 0 0 0 
0 0 0 0 0 0 0 0 0 
0 0 0 0 0 0 0 0 0 
0 0 0 0 0 0 0 0 0 
0 0 0 0 0 0 0 0 0 
0 0 0 0 0 0 0 0 0 
0 0 0 0 0 0 0 0 0 
0 0 0 0 0 0 0 0 0 
0 0 0 0 0 0 0 0 0 
0 0 0 0 0 0 0 0 0 
0 0 0 0 0 0 0 0 0 
0 0 0 0 0 0 0 0 0 
0 0 0 0 0 0 0 0 0 
0 0 0 0 0 0 0 0 0 
0 0 0 0 0 0 0 0 0 
0 0 0 0 0 0 0 0 0 
0 0 0 0 0 0 0 0 0 
0 0 0 0 0 0 0 0 0 
0 0 0 0 0 0 0 0 0 
0 0 0 0 0 0 0 0 0 
0 0 0 0 0 0 0 0 0 
0 0 0 0 0 0 0 0 0 
0 0 0 0 0 0 0 0 0 
0 0 0 0 0 0 0 0 0 
0 0 0 0 0 0 0 0 0 
0 0 0 0 0 0 0 0 0 
0 0 0 0 0 0 
NORMALS Normals float
-0.339421 -0.671438 -0.65876 -0.0802576 -0.574099 -0.814843 0.0833253 -0.515536 -0.852807 
0.13435 -0.544285 -0.828072 -0.453761 -0.43215 -0.779325 -0.218478 -0.28109 -0.934482 
-0.0103085 -0.213872 -0.976807 0.0845756 -0.225494 -0.970567 0.089125 -0.254841 -0.962867 
0.0694561 -0.284789 -0.956071 0.120095 -0.323532 -0.938565 0.264982 -0.375173 -0.888274 
-0.307719 -0.171324 -0.935926 -0.102214 -0.0385685 -0.994014 -0.0060671 0.00633457 -0.999962 
0.0491454 -0.00882956 -0.998753 0.0666016 -0.0905958 -0.993658 0.0493276 -0.139217 -0.989033 
0.0754224 -0.151771 -0.985534 0.175611 -0.209423 -0.961927 0.288507 -0.332179 -0.898009 
-0.457555 -0.132925 -0.879189 -0.199925 0.0184639 -0.979637 -0.0369498 0.0694764 -0.996899 
0.0199236 0.116991 -0.992933 -0.0181029 0.0522443 -0.99847 -0.0365048 -0.116704 -0.992496 
0.00418075 -0.176104 -0.984363 0.045233 -0.137329 -0.989492 0.100103 -0.156555 -0.982583 
0.219999 -0.232654 -0.94735 0.37499 -0.261207 -0.889468 -0.339351 0.0155309 -0.940532 
-0.134404 0.0937064 -0.986486 -0.00909169 0.079186 -0.996818 -0.0219981 -0.0221385 -0.999513 
-0.186953 -0.14456 -0.971674 -0.158406 -0.0680113 -0.985029 0.0323812 -0.151476 -0.98793 
0.0987174 -0.109462 -0.989077 0.0713063 -0.103329 -0.992088 0.161922 -0.1604 -0.97368 
0.349521 -0.190555 -0.917346 -0.284829 0.154215 -0.946092 -0.148173 0.135511 -0.979633 
-0.144315 0.0977776 -0.984689 -0.210206 -0.139641 -0.967633 -0.0509653 -0.133415 -0.989749 
-0.0462647 0.12441 -0.991152 -0.0370691 0.0111008 -0.999251 0.0939645 -0.024777 -0.995267 
0.0495824 -0.0277046 -0.998386 0.122658 -0.0482056 -0.991278 0.329784 -0.0575106 -0.942303 
0.587425 -0.0436751 -0.808099 -0.178127 0.205188 -0.962376 -0.251775 0.181459 -0.950622 
-0.271927 0.0811237 -0.958892 0.0892618 0.0954065 -0.991428 -0.0151331 0.10456 -0.994403 
-0.117646 0.109782 -0.986969 0.0590199 0.0152354 -0.998141 0.0471164 0.010702 -0.998832 
0.12391 0.0649578 -0.990165 0.338669 0.0844918 -0.937104 -0.250494 0.254158 -0.934161 
-0.295374 0.240165 -0.924703 -0.0259775 0.167748 -0.985488 -0.0258869 0.024489 -0.999365 
-0.131597 0.105954 -0.985625 -0.00619145 0.0418685 -0.999104 0.10054 0.0432062 -0.993994 
0.203274 0.140731 -0.968955 0.405933 0.217227 -0.887711 -0.355916 0.254126 -0.899302 
-0.149139 0.180286 -0.972242 -0.0753032 0.0402973 -0.996346 -0.0962472 0.0844906 -0.991765 
-0.00508832 0.133253 -0.991069 0.141988 0.165257 -0.975976 0.297332 0.296976 -0.907413 
-0.247136 0.316087 -0.915976 -0.124026 0.214515 -0.968814 -0.0326763 0.222825 -0.974311 
0.0788197 0.313109 -0.946441 0.265227 0.405379 -0.874827 -0.167283 0.513888 -0.841389 
0.017683 0.532532 -0.846225 0.211939 0.610549 -0.763094 -0.339425 -0.671448 -0.658747 
-0.118956 -0.692341 -0.711697 0.0715497 -0.633833 -0.770153 0.136589 -0.586292 -0.798502 
-0.339436 -0.671444 -0.658746 -0.487603 -0.52573 -0.69703 0.133595 -0.578083 -0.804967 
0.127256 -0.56457 -0.815516 0.134352 -0.618422 -0.774276 0.150133 -0.535285 -0.831222 
0.184794 -0.724606 -0.663926 0.288555 -0.473649 -0.832101 0.37302 -0.811775 -0.449309 
-0.532496 -0.470455 -0.703648 0.335544 -0.4252 -0.840604 0.351661 -0.402387 -0.845233 
0.473386 -0.537044 -0.698204 -0.591466 -0.31844 -0.740786 -0.59113 -0.308683 -0.745171 
-0.608834 -0.329465 -0.721646 0.382372 -0.382613 -0.84107 0.417593 -0.327172 -0.847688 
0.487672 -0.449452 -0.748444 -0.559596 -0.180129 -0.808954 -0.81115 -0.298804 -0.502745 
0.426424 -0.278047 -0.860728 0.608154 -0.349066 -0.712953 -0.526737 -0.0479981 -0.848672 
-0.706203 -0.125608 -0.696778 0.522846 -0.179044 -0.833412 0.58653 -0.0687755 -0.807002 
0.586483 -0.17669 -0.790454 -0.427302 0.117697 -0.896416 -0.601191 0.0613047 -0.79675 
-0.299044 0.25646 -0.919131 0.597762 -0.0423436 -0.800555 0.608961 0.0581589 -0.791065 
-0.559212 0.251455 -0.78997 -0.29509 0.258137 -0.919939 -0.299922 0.259719 -0.917928 
-0.209351 0.291573 -0.933358 0.610278 0.134518 -0.780683 0.625279 0.138901 -0.76794 
-0.568798 0.40019 -0.718552 -0.344937 0.342485 -0.873912 -0.225227 0.293853 -0.928937 
-0.217525 0.311368 -0.925058 -0.272278 0.276059 -0.921768 0.572854 0.290206 -0.766563 
0.539747 0.448328 -0.712513 0.733807 0.360555 -0.575784 -0.376351 0.488642 -0.787139 
-0.272255 0.42192 -0.86479 -0.340061 0.286004 -0.895857 -0.317103 0.320359 -0.892645 
-0.408866 0.353371 -0.841402 0.536246 0.454154 -0.711467 0.452906 0.527179 -0.718998 
0.551778 0.465205 -0.692189 -0.394107 0.44905 -0.801894 -0.394599 0.373025 -0.839728 
-0.420176 0.38376 -0.822302 -0.305175 0.485374 -0.819317 0.447714 0.535784 -0.715882 
0.354309 0.620028 -0.700021 0.467218 0.553088 -0.689784 -0.412648 0.628586 -0.659243 
-0.239504 0.535759 -0.809691 -0.326613 0.58085 -0.745612 -0.165529 0.569746 -0.804978 
0.0310991 0.629871 -0.776077 0.258117 0.642226 -0.721749 0.22386 0.63976 -0.735251 
0.427057 0.788352 -0.442859 -0.38957 -0.893135 -0.224823 -0.18189 -0.951581 -0.247809 
0.0258366 -0.967508 -0.251516 0.0273304 -0.999311 0.0251109 0.147931 -0.949334 -0.277274 
0.149428 -0.952345 -0.265913 0.207674 -0.943045 -0.259878 0.375155 -0.888066 -0.265704 
-0.596572 -0.785136 -0.166325 -0.609484 -0.775583 -0.164315 0.441774 -0.846954 -0.295812 
0.520465 -0.768589 -0.372004 -0.740953 -0.646592 -0.181404 -0.741453 -0.645905 -0.181809 
0.600117 -0.650046 -0.466153 0.601682 -0.637338 -0.481434 0.612176 -0.715616 -0.336355 
-0.825157 -0.484393 -0.290655 -0.850652 -0.405018 -0.335189 0.621503 -0.565484 -0.542182 
0.643287 -0.536492 -0.546221 0.669385 -0.596266 -0.443159 -0.865731 -0.333939 -0.37282 
0.756255 -0.341846 -0.557871 0.912282 -0.368102 -0.179561 -0.857762 -0.191467 -0.477059 
0.832099 -0.154487 -0.532677 0.92682 -0.123322 -0.354679 -0.846688 -0.0038985 -0.532075 
0.885686 0.0337758 -0.463055 0.94206 0.0613579 -0.329785 -0.777549 0.184465 -0.601157 
-0.985341 0.0899092 -0.144982 0.889134 0.230846 -0.395159 -0.612316 0.3913 -0.686988 
-0.581357 0.425516 -0.693512 0.847952 0.401781 -0.345759 0.789569 0.514503 -0.334466 
-0.452459 0.5045 -0.735364 -0.712229 0.539499 -0.449077 -0.398694 0.541241 -0.740338 
-0.373451 0.514183 -0.772108 0.757088 0.562748 -0.331861 0.647723 0.69371 -0.314995 
-0.511613 0.715783 -0.475296 -0.37904 0.515735 -0.76834 -0.381614 0.524421 -0.761153 
-0.398843 0.578976 -0.711134 0.633138 0.708969 -0.310644 0.543502 0.785983 -0.294681 
0.661833 0.736331 -0.140692 -0.407606 0.651068 -0.640287 -0.409258 0.729832 -0.547589 
-0.400119 0.688351 -0.605043 -0.282812 0.815227 -0.505394 -0.0964283 0.904925 -0.414503 
0.113199 0.938979 -0.324815 0.304711 0.911243 -0.277104 0.490391 0.826947 -0.275091 
0.446473 0.853886 -0.267471 -0.211749 0.93241 -0.292872 -0.0838972 0.922848 -0.375915 
0.138753 0.960416 -0.241553 0.0275616 -0.984765 0.171695 -0.435053 -0.883051 0.175923 
-0.0130423 -0.985634 0.168393 -0.182285 -0.971292 0.152855 0.0406964 -0.983668 0.175332 
0.029115 -0.982446 0.184259 0.160051 -0.964797 0.208686 0.192278 -0.945544 0.262633 
0.205445 -0.939807 0.27305 0.301334 -0.921787 0.243938 -0.591328 -0.781307 0.199727 
-0.609313 -0.766707 0.202233 0.192359 -0.771146 0.606904 0.365804 -0.907591 0.206075 
0.274859 -0.86916 0.411113 0.426567 -0.891756 0.151037 0.558509 -0.829414 0.0118561 
-0.699825 -0.688815 0.189151 -0.70449 -0.685229 0.184811 0.600609 -0.79954 -0.00205474 
0.516159 -0.769846 0.375388 0.713159 -0.698485 -0.0593499 -0.825307 -0.552953 0.1145 
-0.848892 -0.520659 0.0910857 0.781389 -0.619786 -0.0727789 0.9108 -0.399594 -0.103769 
-0.896521 -0.441922 0.0309054 0.922606 -0.370217 -0.108341 0.923898 -0.378587 0.0555365 
-0.963725 -0.26454 -0.0353901 0.993681 -0.0754718 -0.0830755 -0.993365 -0.0985896 -0.0592152 
-0.995611 -0.0538819 -0.0765221 0.993586 0.109306 -0.0289706 0.954009 0.298554 0.0270481 
0.907254 0.154301 0.391256 -0.987782 0.0879876 -0.128627 -0.985587 0.105479 -0.132256 
-0.993153 0.0831466 -0.0820572 0.950867 0.308123 0.0301959 -0.930311 0.313939 -0.189638 
0.895191 0.441968 0.0574197 0.813277 0.578337 0.0640876 -0.785047 0.539888 -0.303681 
-0.728363 0.602232 -0.326808 0.810557 0.582185 0.0637052 -0.571999 0.726243 -0.381299 
-0.539045 0.743471 -0.39583 -0.435332 0.826161 -0.357693 0.539574 0.840661 0.0463521 
0.671539 0.738907 0.055246 0.657244 0.751699 0.0545904 0.65997 0.732087 0.168785 
-0.427333 0.833473 -0.350299 -0.454341 0.880995 -0.131993 -0.415236 0.843594 -0.340484 
-0.337247 0.909185 -0.244229 0.34335 0.938508 0.0362462 0.512752 0.857303 0.0460082 
0.445562 0.893877 0.0495697 -0.264823 0.940961 -0.210859 -0.178752 0.966966 -0.181725 
0.00995462 0.995847 -0.0904949 0.25843 0.96602 0.00443189 0.198108 0.980056 -0.0155752 
0.240951 0.940057 0.24132 -0.412412 -0.747696 0.520449 -0.163092 -0.806303 0.568574 
0.0811269 -0.793276 0.603434 0.20224 -0.737293 0.644592 0.183883 -0.717029 0.672351 
-0.457064 -0.72425 0.516289 -0.554725 -0.655555 0.512375 -0.40199 -0.705443 0.583742 
-0.117502 -0.653827 0.747465 0.0941703 -0.631216 0.769869 0.197333 -0.660178 0.724724 
0.184412 -0.710531 0.679072 0.185237 -0.704239 0.685371 0.167286 -0.682108 0.711859 
0.179798 -0.693648 0.697514 0.262377 -0.749103 0.608278 -0.576603 -0.643595 0.503304 
-0.626964 -0.620536 0.47101 -0.50444 -0.590373 0.63008 -0.270826 -0.426291 0.863093 
0.172216 -0.379982 0.908821 0.141675 -0.471662 0.870324 0.102301 -0.527128 0.843606 
0.119614 -0.586638 0.800967 0.406129 -0.719456 0.56342 0.228448 -0.675915 0.700679 
0.460136 -0.702143 0.543388 0.591541 -0.669649 0.449055 -0.675211 -0.57241 0.465228 
-0.748912 -0.50456 0.429593 -0.569991 -0.534424 0.624101 0.102222 -0.408675 0.906937 
0.319078 -0.516465 0.79464 0.62372 -0.642533 0.445113 0.584434 -0.640976 0.497581 
-0.772815 -0.475878 0.419877 -0.733427 -0.469668 0.491423 0.81633 -0.362768 0.449448 
0.495699 -0.30474 0.813275 0.890887 -0.129691 0.435316 -0.86042 -0.275982 0.428382 
-0.660305 -0.233613 0.713738 0.454671 -0.0439571 0.889574 0.900464 -0.0667111 0.429785 
0.89291 0.06424 0.445629 0.887154 -0.0664512 0.456663 -0.908547 -0.104699 0.404451 
-0.603967 -0.105424 0.790006 0.875213 0.157784 0.457282 0.48586 0.0739118 0.870906 
-0.923631 0.0231247 0.382585 -0.599021 0.00572154 0.800713 0.826501 0.312832 0.468008 
0.56185 0.24587 0.789856 -0.921477 0.224122 0.317255 -0.636607 0.0982204 0.764908 
0.39812 0.275477 0.874993 0.763911 0.425294 0.485351 0.741989 0.46492 0.483014 
0.69538 0.413808 0.587546 -0.858476 0.473286 0.197531 -0.788491 0.58816 0.179859 
-0.763014 0.412407 0.497724 0.706967 0.519537 0.479874 0.632253 0.627662 0.454198 
0.574238 0.432878 0.694887 -0.697572 0.703785 0.134458 -0.610787 0.7868 0.0887982 
-0.565602 0.561241 0.604237 0.605501 0.667844 0.432842 0.538474 0.738544 0.405708 
0.509219 0.572725 0.642404 -0.47117 0.877393 0.0904461 -0.455967 0.885829 0.0860261 
-0.457886 0.869763 0.183989 -0.37829 0.919934 0.103044 -0.278554 0.946512 0.162856 
0.242728 0.935787 0.255708 0.369321 0.877119 0.307026 0.474996 0.807392 0.349997 
0.455982 0.821749 0.341772 0.459128 0.780021 0.425169 -0.21993 0.959667 0.175131 
-0.129899 0.973426 0.188594 -0.122377 0.93545 0.331599 0.23628 0.937791 0.254402 
0.0731911 0.969979 0.231912 0.0721498 0.922366 0.379519 -0.0747462 -0.403926 0.911733 
0.089152 -0.38986 0.916548 -0.326418 -0.40611 0.853537 -0.183133 -0.393945 0.900705 
-0.240918 -0.388557 0.889372 -0.0727517 -0.356223 0.931564 0.126326 -0.361203 0.923891 
0.08739 -0.345395 0.93438 0.146044 -0.333077 0.931521 0.0843806 -0.394424 0.915046 
0.075077 -0.370074 0.925964 0.0579672 -0.358202 0.931843 -0.3373 -0.404196 0.850208 
-0.433319 -0.359286 0.826528 -0.310899 -0.390432 0.866548 -0.148312 -0.258678 0.95451 
-0.0211341 -0.183645 0.982765 0.0824641 -0.157428 0.984081 0.0866213 -0.244232 0.96584 
0.0521645 -0.355669 0.933155 0.0705518 -0.337283 0.938756 0.0680808 -0.367776 0.927419 
0.0572046 -0.352725 0.933977 0.0946907 -0.387408 0.917033 0.252687 -0.346675 0.903308 
-0.44255 -0.344955 0.827741 -0.420788 -0.337622 0.841991 -0.207481 -0.23004 0.950807 
-0.0422303 -0.148472 0.988014 0.0237148 -0.102424 0.994458 0.0277189 -0.15235 0.987938 
-0.0276927 -0.192023 0.981 0.0448764 -0.238209 0.970177 0.103309 -0.15563 0.982398 
0.0226674 -0.163887 0.986219 0.0543333 -0.215404 0.975012 0.341103 -0.261723 0.902856 
0.224895 -0.240685 0.944189 -0.522253 -0.203007 0.828276 -0.330321 -0.177325 0.927062 
-0.122021 -0.122407 0.98495 -0.0297757 -0.0909897 0.995407 -0.0247193 -0.125866 0.991739 
0.000554322 -0.178832 0.983879 -0.00488168 -0.00207021 0.999986 0.0850507 -0.124254 0.988599 
0.148761 -0.0744114 0.98607 0.011157 -0.0564758 0.998342 0.0381125 -0.0496596 0.998039 
0.415075 -0.0447404 0.908687 0.196507 -0.0536254 0.979035 -0.561492 -0.101552 0.821227 
-0.310941 -0.0751364 0.947455 -0.103102 -0.104299 0.989187 -0.0426699 -0.0927448 0.994775 
-0.0628319 -0.127447 0.989853 0.154934 -0.0617624 0.985992 0.015034 0.00300275 0.999882 
-0.0376886 -0.030246 0.998832 0.182391 -0.0183656 0.983055 0.0454025 -0.00499624 0.998956 
0.0547951 0.0300758 0.998045 0.423017 0.0609832 0.904067 0.213525 0.035204 0.976303 
-0.594673 0.0055095 0.803949 -0.324959 -0.0174056 0.945568 -0.135753 -0.0611943 0.988851 
-0.0487019 -0.107344 0.993028 0.00366157 -0.0709773 0.997471 0.127786 -0.02325 0.991529 
0.0308793 -0.165028 0.985805 0.0694702 0.0367716 0.996906 0.168573 -0.00387131 0.985681 
0.059189 -0.00860018 0.99821 0.0797411 0.0546555 0.995316 0.394541 0.190463 0.898922 
0.380184 0.261276 0.88724 0.240704 0.132475 0.961516 -0.587389 0.0844879 0.804883 
-0.368384 0.0814853 0.926096 -0.187779 0.0338386 0.981628 -0.0542025 -0.0534838 0.997097 
0.0224548 -0.0367396 0.999073 0.0551573 -0.0736894 0.995755 0.0776198 -0.166714 0.982945 
0.133621 -0.0349697 0.990415 0.136565 -0.0717214 0.988031 0.0992546 0.000900361 0.995062 
0.381955 0.259098 0.887118 0.204155 0.0924186 0.974566 -0.598403 0.304621 0.741027 
-0.553853 0.535127 0.637876 -0.409596 0.216655 0.886167 -0.252545 0.167977 0.952893 
-0.123919 0.123529 0.984573 -0.01568 0.0390895 0.999113 -0.0024853 -0.00916811 0.999955 
0.0684453 -0.0453098 0.996625 0.160587 -0.0389074 0.986255 0.204196 -0.0196908 0.978732 
0.219957 0.104492 0.969897 0.391715 0.295502 0.871343 0.38238 0.35103 0.85473 
0.316907 0.245945 0.916013 -0.548191 0.546984 0.632689 -0.390305 0.647296 0.654729 
-0.29216 0.421199 0.858624 -0.185438 0.33605 0.923409 -0.114232 0.234473 0.965388 
-0.030083 0.150239 0.988192 0.0483796 0.177978 0.982845 0.154641 0.152364 0.976151 
0.268126 0.236158 0.93399 0.419737 0.419613 0.804827 0.409939 0.455568 0.790195 
0.379921 0.352487 0.855227 -0.340777 0.70068 0.626833 -0.317015 0.704075 0.635436 
-0.309135 0.673773 0.671168 -0.215013 0.745278 0.631134 -0.196971 0.548789 0.812424 
-0.0877966 0.746132 0.659984 -0.0596563 0.520103 0.852017 0.0672171 0.747861 0.660444 
0.0601807 0.485216 0.872321 0.242747 0.716246 0.654267 0.224048 0.540528 0.810945 
0.363644 0.622205 0.693271 0.358944 0.626719 0.691652 0.357665 0.616029 0.701843 

