# vtk DataFile Version 4.2
vtk output
ASCII
DATASET POLYDATA
POINTS 554 float
-42.6563 -33.6418 -14.8287 -34.5047 -33.6418 -16.7506 -26.353 -33.6418 -17.4534 
-18.2014 -33.6418 -17.9918 -10.0497 -33.6418 -18.1757 -1.89811 -33.6418 -18.021 
6.25353 -33.6418 -17.5231 14.4052 -33.6418 -16.8634 22.5568 -33.6418 -17.393 
30.7084 -33.6418 -17.9519 38.8601 -33.6418 -17.14 -50.8079 -25.4902 -15.9056 
-42.6563 -25.4902 -18.7774 -34.5047 -25.4902 -19.7773 -26.353 -25.4902 -20.5286 
-18.2014 -25.4902 -19.5535 -10.0497 -25.4902 -19.345 -1.89811 -25.4902 -20.6509 
6.25353 -25.4902 -20.1291 14.4052 -25.4902 -19.1692 22.5568 -25.4902 -19.5148 
30.7084 -25.4902 -21.0662 38.8601 -25.4902 -20.4669 47.0117 -25.4902 -18.6635 
-50.8079 -17.3385 -17.9525 -42.6563 -17.3385 -20.203 -34.5047 -17.3385 -21.493 
-26.353 -17.3385 -20.5362 -18.2014 -17.3385 -19.4573 -10.0497 -17.3385 -19.2454 
-1.89811 -17.3385 -21.5412 6.25353 -17.3385 -20.4768 14.4052 -17.3385 -18.6885 
22.5568 -17.3385 -20.2243 30.7084 -17.3385 -21.6934 38.8601 -17.3385 -22.5313 
47.0117 -17.3385 -21.538 55.1634 -17.3385 -16.475 -58.9596 -9.18688 -14.7322 
-50.8079 -9.18688 -19.3336 -42.6563 -9.18688 -20.886 -34.5047 -9.18688 -21.0155 
-26.353 -9.18688 -20.0434 -18.2014 -9.18688 -18.7279 -10.0497 -9.18688 -19.9382 
-1.89811 -9.18688 -22.7848 6.25353 -9.18688 -20.3185 14.4052 -9.18688 -17.6178 
22.5568 -9.18688 -20.1559 30.7084 -9.18688 -22.3146 38.8601 -9.18688 -22.612 
47.0117 -9.18688 -21.8027 55.1634 -9.18688 -18.4998 -58.9596 -1.03525 -15.3417 
-50.8079 -1.03525 -19.2834 -42.6563 -1.03525 -20.8033 -34.5047 -1.03525 -20.8407 
-26.353 -1.03525 -19.7354 -18.2014 -1.03525 -18.371 -10.0497 -1.03525 -20.384 
-1.89811 -1.03525 -18.5577 6.25353 -1.03525 -21.3449 14.4052 -1.03525 -17.8614 
22.5568 -1.03525 -19.3631 30.7084 -1.03525 -21.6143 38.8601 -1.03525 -22.2214 
47.0117 -1.03525 -21.8323 55.1634 -1.03525 -19.5982 -50.8079 7.11639 -17.9049 
-42.6563 7.11639 -19.7638 -34.5047 7.11639 -20.0528 -26.353 7.11639 -19.2651 
-18.2014 7.11639 -18.5641 -10.0497 7.11639 -19.8574 -1.89811 7.11639 -17.7907 
6.25353 7.11639 -21.9778 14.4052 7.11639 -17.1461 22.5568 7.11639 -18.181 
30.7084 7.11639 -20.4453 38.8601 7.11639 -21.9261 47.0117 7.11639 -21.4049 
55.1634 7.11639 -19.5878 63.315 7.11639 -15.2392 -50.8079 15.268 -15.2778 
-42.6563 15.268 -17.9321 -34.5047 15.268 -18.6283 -26.353 15.268 -18.7762 
-18.2014 15.268 -19.6946 -10.0497 15.268 -20.2822 -1.89811 15.268 -18.0627 
6.25353 15.268 -18.5174 14.4052 15.268 -17.2587 22.5568 15.268 -18.0453 
30.7084 15.268 -19.1714 38.8601 15.268 -20.1444 47.0117 15.268 -20.7202 
55.1634 15.268 -18.3897 -34.5047 23.4197 -15.37 -26.353 23.4197 -16.3372 
-18.2014 23.4197 -18.1324 -10.0497 23.4197 -18.5321 -1.89811 23.4197 -16.3813 
6.25353 23.4197 -15.9126 14.4052 23.4197 -16.6411 22.5568 23.4197 -17.3141 
30.7084 23.4197 -17.4343 38.8601 23.4197 -18.2446 47.0117 23.4197 -17.0236 
-42.6563 -33.7958 -14.6952 -34.5047 -36.0598 -14.6952 -26.353 -37.3966 -14.6952 
-18.2014 -37.8219 -14.6952 -10.0497 -37.6891 -14.6952 -1.89811 -37.6886 -14.6952 
6.25353 -37.1373 -14.6952 14.4052 -36.4711 -14.6952 22.5568 -37.4301 -14.6952 
22.5568 -41.7934 -7.20321 30.7084 -37.6411 -14.6952 38.8601 -36.1558 -14.6952 
-42.9335 -33.6418 -14.6952 -50.8079 -27.5787 -14.6952 -50.8079 -33.6418 -8.97761 
43.3105 -33.6418 -14.6952 47.0117 -31.0424 -14.6952 47.0117 -33.6418 -10.3714 
-53.2157 -25.4902 -14.6952 -58.9596 -25.4902 -9.58789 51.9749 -25.4902 -14.6952 
55.1634 -20.4835 -14.6952 55.1634 -25.4902 -8.14275 -56.5831 -17.3385 -14.6952 
-58.9596 -9.36865 -14.6952 -58.9596 -17.3385 -12.8467 56.936 -17.3385 -14.6952 
-59.0014 -9.18688 -14.6952 59.8889 -9.18688 -14.6952 63.315 -9.18688 -8.73052 
-59.6845 -1.03525 -14.6952 -58.9596 1.47232 -14.6952 62.0136 -1.03525 -14.6952 
63.315 4.57821 -14.6952 63.315 -1.03525 -13.093 -56.7526 7.11639 -14.6952 
-58.9596 7.11639 -13.1504 63.8863 7.11639 -14.6952 63.315 8.65066 -14.6952 
-52.0012 15.268 -14.6952 -58.9596 15.268 -9.42773 -50.8079 16.5071 -14.6952 
-42.6563 21.0936 -14.6952 60.8112 15.268 -14.6952 55.1634 22.6762 -14.6952 
63.315 15.268 -11.854 -50.8079 23.4197 -9.6802 -37.3526 23.4197 -14.6952 
-42.6563 23.4197 -13.202 -34.5047 24.4323 -14.6952 -26.353 26.543 -14.6952 
-18.2014 30.5943 -14.6952 -10.0497 31.4202 -14.6952 -1.89811 28.3455 -14.6952 
6.25353 27.6162 -14.6952 14.4052 28.3903 -14.6952 22.5568 29.026 -14.6952 
30.7084 29.7125 -14.6952 38.8601 29.2718 -14.6952 53.9108 23.4197 -14.6952 
47.0117 26.6321 -14.6952 55.1634 23.4197 -14.0366 -34.5047 31.5713 -9.0287 
-26.353 31.5713 -11.5605 -18.2014 31.5713 -14.1697 -10.0497 31.5713 -14.615 
-1.89811 31.5713 -13.5767 6.25353 31.5713 -13.4002 14.4052 31.5713 -13.1277 
22.5568 31.5713 -13.0469 30.7084 31.5713 -13.3593 38.8601 31.5713 -11.8922 
47.0117 31.5713 -8.19802 -18.2014 39.7229 -7.91633 -10.0497 39.7229 -9.54191 
-1.89811 39.7229 -8.51827 22.5568 -42.067 -6.54358 -50.8079 -35.317 -6.54358 
-42.6563 -39.2352 -6.54358 -34.5047 -40.8616 -6.54358 -26.353 -41.7318 -6.54358 
-18.2014 -41.293 -6.54358 -10.0497 -41.0044 -6.54358 -1.89811 -40.7319 -6.54358 
6.25353 -40.5841 -6.54358 20.3148 -41.7934 -6.54358 14.4052 -41.0861 -6.54358 
27.4968 -41.7934 -6.54358 22.5568 -41.7934 -4.78528 30.7084 -41.6156 -6.54358 
38.8601 -39.9455 -6.54358 47.0117 -35.7303 -6.54358 -53.1294 -33.6418 -6.54358 
-58.9596 -28.0514 -6.54358 49.3511 -33.6418 -6.54358 55.1634 -26.5673 -6.54358 
-60.8254 -25.4902 -6.54358 55.8523 -25.4902 -6.54358 -64.1576 -17.3385 -6.54358 
60.5583 -17.3385 -6.54358 63.315 -11.1835 -6.54358 -65.7801 -9.18688 -6.54358 
-67.1112 -9.18688 1.30104 64.238 -9.18688 -6.54358 -66.9813 -1.03525 -6.54358 
-67.1112 -1.03525 -5.56551 67.0934 -1.03525 -6.54358 -64.8406 7.11639 -6.54358 
69.5967 7.11639 -6.54358 -61.392 15.268 -6.54358 -58.9596 20.1784 -6.54358 
66.8197 15.268 -6.54358 63.315 22.5114 -6.54358 -55.8899 23.4197 -6.54358 
-58.9596 23.4197 -3.4507 -50.8079 26.7812 -6.54358 -42.6563 30.3691 -6.54358 
62.6352 23.4197 -6.54358 55.1634 29.1935 -6.54358 -50.8079 31.5713 -0.947747 
-40.0704 31.5713 -6.54358 -42.6563 31.5713 -5.25847 -34.5047 34.5844 -6.54358 
-26.353 37.3553 -6.54358 6.25353 39.3578 -6.54358 14.4052 37.593 -6.54358 
22.5568 36.4936 -6.54358 30.7084 35.8869 -6.54358 38.8601 33.9161 -6.54358 
49.5809 31.5713 -6.54358 47.0117 32.4541 -6.54358 -34.5047 39.7229 -0.0918136 
-21.4151 39.7229 -6.54358 -26.353 39.7229 -3.78808 -18.2014 41.1299 -6.54358 
-10.0497 42.8106 -6.54358 4.98694 39.7229 -6.54358 -1.89811 41.5861 -6.54358 
6.25353 39.7229 -5.92713 14.4052 39.7229 -1.47984 -50.8079 -36.4034 1.60806 
-42.6563 -39.2999 1.60806 -34.5047 -40.034 1.60806 -26.353 -40.9029 1.60806 
-18.2014 -39.8052 1.60806 -10.0497 -39.1043 1.60806 -1.89811 -38.5996 1.60806 
6.25353 -38.5865 1.60806 14.4052 -39.5439 1.60806 22.5568 -40.7334 1.60806 
30.7084 -40.6215 1.60806 38.8601 -38.8292 1.60806 47.0117 -34.4828 1.60806 
-54.6876 -33.6418 1.60806 -58.9596 -29.538 1.60806 -50.8079 -33.6418 7.88591 
-1.89811 -33.6418 8.42021 6.25353 -33.6418 8.05499 14.4052 -33.6418 9.4331 
48.1166 -33.6418 1.60806 47.0117 -33.6418 3.09568 55.1634 -26.227 1.60806 
-62.1759 -25.4902 1.60806 -58.9596 -25.4902 8.54691 55.6926 -25.4902 1.60806 
55.1634 -25.4902 2.93819 -65.5294 -17.3385 1.60806 -67.1112 -9.42649 1.60806 
61.3255 -17.3385 1.60806 63.315 -13.5287 1.60806 -67.1557 -9.18688 1.60806 
-67.1112 -9.18688 1.75916 65.547 -9.18688 1.60806 -67.8527 -1.03525 1.60806 
-67.1112 5.97364 1.60806 -67.1112 -1.03525 4.64477 68.4493 -1.03525 1.60806 
-66.9892 7.11639 1.60806 69.556 7.11639 1.60806 -65.4118 15.268 1.60806 
67.3986 15.268 1.60806 63.315 21.9426 1.60806 -61.0123 23.4197 1.60806 
-58.9596 25.846 1.60806 61.9767 23.4197 1.60806 55.1634 29.2112 1.60806 
-52.587 31.5713 1.60806 -50.8079 32.8782 1.60806 -42.6563 37.0412 1.60806 
22.5568 38.7176 1.60806 30.7084 36.7954 1.60806 38.8601 34.3153 1.60806 
48.922 31.5713 1.60806 47.0117 32.1713 1.60806 47.0117 31.5713 3.01205 
-36.7026 39.7229 1.60806 -34.5047 40.6672 1.60806 -26.353 43.5491 1.60806 
-18.2014 46.4182 1.60806 -10.0497 46.9455 1.60806 -1.89811 45.438 1.60806 
6.25353 43.1035 1.60806 18.7107 39.7229 1.60806 14.4052 40.8427 1.60806 
-42.6563 -35.3442 9.75969 -34.5047 -36.442 9.75969 -26.353 -36.1356 9.75969 
-18.2014 -34.9732 9.75969 -10.0497 -33.773 9.75969 22.5568 -35.0069 9.75969 
30.7084 -35.3981 9.75969 38.8601 -34.3121 9.75969 -47.8741 -33.6418 9.75969 
-50.8079 -32.1304 9.75969 -42.6563 -33.6418 11.6047 -34.5047 -33.6418 12.7635 
-26.353 -33.6418 12.1714 -18.2014 -33.6418 11.1291 -9.20709 -33.6418 9.75969 
-10.0497 -33.6418 9.88921 -1.89811 -31.9323 9.75969 6.25353 -31.1837 9.75969 
15.8973 -33.6418 9.75969 14.4052 -33.2219 9.75969 22.5568 -33.6418 10.9401 
30.7084 -33.6418 11.4187 40.1706 -33.6418 9.75969 38.8601 -33.6418 10.4626 
47.0117 -29.533 9.75969 -57.9288 -25.4902 9.75969 -58.9596 -24.2398 9.75969 
-50.8079 -25.4902 14.6061 -42.6563 -25.4902 16.6524 -34.5047 -25.4902 17.7097 
-26.353 -25.4902 16.8313 -18.2014 -25.4902 16.1004 -10.0497 -25.4902 14.821 
-1.89811 -25.4902 13.2838 6.25353 -25.4902 12.7555 14.4052 -25.4902 14.0908 
22.5568 -25.4902 15.2034 30.7084 -25.4902 16.5243 38.8601 -25.4902 15.5447 
51.7036 -25.4902 9.75969 47.0117 -25.4902 13.6476 55.1634 -21.883 9.75969 
-62.5273 -17.3385 9.75969 -58.9596 -17.3385 13.2631 -50.8079 -17.3385 17.1973 
-18.2014 -17.3385 17.3747 -10.0497 -17.3385 17.253 -1.89811 -17.3385 15.6837 
6.25353 -17.3385 14.6229 14.4052 -17.3385 15.6235 22.5568 -17.3385 16.7605 
47.0117 -17.3385 17.6518 58.8424 -17.3385 9.75969 55.1634 -17.3385 14.1801 
63.315 -10.0528 9.75969 -64.5001 -9.18688 9.75969 -58.9596 -9.18688 15.9095 
14.4052 -9.18688 14.55 22.5568 -9.18688 16.9543 63.7869 -9.18688 9.75969 
63.315 -9.18688 10.4648 -65.5239 -1.03525 9.75969 -58.9596 -1.03525 17.0134 
-1.89811 -1.03525 15.7641 14.4052 -1.03525 16.0795 22.5568 -1.03525 17.854 
66.5067 -1.03525 9.75969 63.315 -1.03525 14.0789 -65.0732 7.11639 9.75969 
-58.9596 7.11639 17.423 14.4052 7.11639 17.3522 22.5568 7.11639 17.7385 
[...]
POINT_DATA 554
SCALARS ImageScalars float
LOOKUP_TABLE default
0 0 0 0 0 0 0 0 0 
0 0 0 0 0 0 0 0 0 
0 0 0 0 0 0 0 0 0 
0 0 0 0 0 0 0 0 0 
0 0 0 0 0 0 0 0 0 
0 0 0 0 0 0 0 0 0 
0 0 0 0 0 0 0 0 0 
0 0 0 0 0 0 0 0 0 
0 0 0 0 0 0 0 0 0 
0 0 0 0 0 0 0 0 0 
0 0 0 0 0 0 0 0 0 
0 0 0 0 0 0 0 0 0 
0 0 0 0 0 0 0 0 0 
0 0 0 0 0 0 0 0 0 
0 0 0 0 0 0 0 0 0 
0 0 0 0 0 0 0 0 0 
0 0 0 0 0 0 0 0 0 
0 0 0 0 0 0 0 0 0 
0 0 0 0 0 0 0 0 0 
0 0 0 0 0 0 0 0 0 
0 0 0 0 0 0 0 0 0 
0 0 0 0 0 0 0 0 0 
0 0 0 0 0 0 0 0 0 
0 0 0 0 0 0 0 0 0 
0 0 0 0 0 0 0 0 0 
0 0 0 0 0 0 0 0 0 
0 0 0 0 0 0 0 0 0 
0 0 0 0 0 0 0 0 0 
0 0 0 0 0 0 0 0 0 
0 0 0 0 0 0 0 0 0 
0 0 0 0 0 0 0 0 0 
0 0 0 0 0 0 0 0 0 
0 0 0 0 0 0 0 0 0 
0 0 0 0 0 0 0 0 0 
0 0 0 0 0 0 0 0 0 
0 0 0 0 0 0 0 0 0 
0 0 0 0 0 0 0 0 0 
0 0 0 0 0 0 0 0 0 
0 0 0 0 0 0 0 0 0 
0 0 0 0 0 0 0 0 0 
0 0 0 0 0 0 0 0 0 
0 0 0 0 0 0 0 0 0 
0 0 0 0 0 0 0 0 0 
0 0 0 0 0 0 0 0 0 
0 0 0 0 0 0 0 0 0 
0 0 0 0 0 0 0 0 0 
0 0 0 0 0 0 0 0 0 
0 0 0 0 0 0 0 0 0 
0 0 0 0 0 0 0 0 0 
0 0 0 0 0 0 0 0 0 
0 0 0 0 0 0 0 0 0 
0 0 0 0 0 0 0 0 0 
0 0 0 0 0 0 0 0 0 
0 0 0 0 0 0 0 0 0 
0 0 0 0 0 0 0 0 0 
0 0 0 0 0 0 0 0 0 
0 0 0 0 0 0 0 0 0 
0 0 0 0 0 0 0 0 0 
0 0 0 0 0 0 0 0 0 
0 0 0 0 0 0 0 0 0 
0 0 0 0 0 0 0 0 0 
0 0 0 0 0 
NORMALS Normals float
-0.312274 -0.599381 -0.737039 -0.150302 -0.542188 -0.826705 -0.0684713 -0.492655 -0.867527 
-0.044167 -0.45401 -0.889901 -0.00241869 -0.432884 -0.901446 0.037729 -0.520145 -0.853244 
0.067176 -0.514407 -0.854911 0.0050402 -0.479923 -0.877296 -0.0557252 -0.448813 -0.891886 
0.0104427 -0.523651 -0.851869 0.266322 -0.600771 -0.753755 -0.389641 -0.369329 -0.843668 
-0.226298 -0.30119 -0.926323 -0.0985548 -0.260902 -0.960321 0.0148348 -0.173643 -0.984697 
0.0701089 -0.0855469 -0.993864 -0.0657876 -0.0517182 -0.996492 -0.0500755 -0.19396 -0.979731 
0.0919682 -0.16964 -0.981205 0.0335924 -0.0927859 -0.995119 -0.105906 -0.167457 -0.980174 
-0.0599515 -0.196748 -0.97862 0.136229 -0.294536 -0.945881 0.410516 -0.430286 -0.803947 
-0.366152 -0.194264 -0.910052 -0.198019 -0.116485 -0.973252 -0.0196653 -0.0720334 -0.997208 
0.121977 0.0293833 -0.992098 0.0787496 0.0503227 -0.995623 -0.118401 -0.0282924 -0.992563 
-0.0799096 -0.132288 -0.987985 0.1735 -0.0127015 -0.984752 0.0132884 0.0909591 -0.995766 
-0.182727 -0.0399649 -0.982351 -0.139328 -0.0708406 -0.987709 -0.000754894 -0.13619 -0.990683 
0.324764 -0.184289 -0.927667 0.655489 -0.315429 -0.686177 -0.623939 -0.110467 -0.773626 
-0.317542 -0.0767872 -0.94513 -0.0950195 -0.0366265 -0.994801 0.0514281 0.0390598 -0.997913 
0.139386 0.0486936 -0.98904 0.0205173 0.0664113 -0.997581 -0.269502 -0.0718278 -0.960317 
-0.0249911 0.126074 -0.991706 0.336201 -0.0530304 -0.940296 -0.0139574 0.0511249 -0.998595 
-0.27055 0.0490591 -0.961455 -0.140859 0.00144889 -0.990029 0.0332764 0.0190965 -0.999264 
0.214376 -0.0150437 -0.976635 0.543248 -0.179495 -0.82016 -0.597773 0.0741137 -0.798232 
-0.284407 0.0833137 -0.955077 -0.0873512 0.0676267 -0.993879 0.0649848 0.0571888 -0.996246 
0.150074 0.0472859 -0.987543 -0.02037 0.0102206 -0.99974 -0.0431861 0.0103965 -0.999013 
-0.0682517 0.341345 -0.937457 0.0634024 -0.0887709 -0.994032 0.120339 0.0226374 -0.992475 
-0.213388 0.115552 -0.97011 -0.166297 0.113749 -0.979493 -0.0104857 0.0419153 -0.999066 
0.14897 0.0239725 -0.988551 0.414562 -0.0565984 -0.908259 -0.32923 0.22489 -0.917078 
-0.121132 0.163718 -0.979042 0.0310291 0.125742 -0.991578 0.0922912 0.059592 -0.993947 
-0.0342093 -0.0805814 -0.996161 0.0419306 0.00158506 -0.999119 -0.10859 0.0216908 -0.99385 
-0.0165395 0.171151 -0.985106 0.227104 0.0363255 -0.973193 -0.189327 0.075068 -0.97904 
-0.216862 0.140039 -0.966106 -0.058411 0.123968 -0.990566 0.133191 0.063301 -0.989067 
0.312891 0.0786772 -0.946525 0.652142 0.0555652 -0.756058 -0.361349 0.351762 -0.863534 
-0.187413 0.358448 -0.914544 -0.0487257 0.278072 -0.959324 -0.0640692 0.167666 -0.98376 
-0.0905924 0.0197447 -0.995692 0.0925142 0.0800966 -0.992485 0.113889 0.083182 -0.990005 
0.0529933 0.347677 -0.936116 0.020742 0.0316341 -0.999284 -0.116296 0.0492342 -0.991994 
-0.122923 0.173331 -0.977162 -0.0910755 0.208043 -0.97387 0.110635 0.242419 -0.963843 
0.37301 0.246099 -0.894594 -0.163937 0.488546 -0.856999 -0.15956 0.383944 -0.909466 
-0.127 0.311733 -0.941644 0.0996999 0.322023 -0.941468 0.157915 0.256773 -0.953483 
-0.0165015 0.281424 -0.959442 -0.0802533 0.215511 -0.973198 -0.0487361 0.265572 -0.962858 
-0.0494653 0.301601 -0.95215 0.0204391 0.384709 -0.922812 0.195926 0.488065 -0.850533 
-0.313095 -0.605426 -0.731731 -0.170637 -0.671777 -0.720832 -0.0834038 -0.670787 -0.736945 
-0.0139183 -0.727996 -0.68544 0.00723215 -0.747275 -0.664476 0.027198 -0.762024 -0.646977 
0.0576593 -0.722651 -0.688804 -0.0124924 -0.652274 -0.757881 -0.0490994 -0.654139 -0.754779 
-0.0346481 -0.985567 -0.165704 0.0751094 -0.717893 -0.69209 0.282378 -0.732409 -0.619548 
-0.318804 -0.602107 -0.732005 -0.414976 -0.447993 -0.791895 -0.508475 -0.729303 -0.457788 
0.392084 -0.679303 -0.620337 0.496001 -0.61388 -0.614112 0.56725 -0.743324 -0.354538 
-0.473794 -0.382988 -0.792994 -0.746527 -0.448683 -0.491305 0.666471 -0.459654 -0.586971 
0.71267 -0.384324 -0.586853 0.823233 -0.518685 -0.230768 -0.559647 -0.183124 -0.808246 
-0.62443 -0.111964 -0.773014 -0.674741 -0.203651 -0.709402 0.71633 -0.347552 -0.605044 
-0.625335 -0.110374 -0.772511 0.725161 -0.25518 -0.63955 0.867803 -0.358247 -0.34435 
-0.624349 0.0734252 -0.777687 -0.608496 0.123734 -0.783851 0.716147 -0.155437 -0.680421 
0.697707 -0.0183489 -0.716148 0.78578 -0.191168 -0.588221 -0.540269 0.229252 -0.809662 
-0.636831 0.241995 -0.732042 0.671404 0.0520038 -0.739264 0.67439 0.0914377 -0.732692 
-0.392942 0.358992 -0.846594 -0.676395 0.372443 -0.635434 -0.365487 0.391834 -0.844325 
-0.210718 0.489166 -0.846354 0.619089 0.250424 -0.744323 0.371089 0.546589 -0.750689 
0.781498 0.277661 -0.558718 -0.4004 0.637346 -0.658384 -0.184571 0.505598 -0.842795 
-0.231645 0.545427 -0.805513 -0.17053 0.50742 -0.844657 -0.193285 0.45659 -0.868428 
-0.143308 0.488275 -0.860843 0.0369248 0.468055 -0.882928 0.101908 0.334163 -0.93699 
-0.00375669 0.354027 -0.935228 -0.0307901 0.414074 -0.909722 -0.033634 0.501781 -0.86434 
-0.00460983 0.572218 -0.820088 0.123808 0.651007 -0.748907 0.339374 0.569009 -0.749036 
0.222475 0.631254 -0.742982 0.383442 0.598564 -0.703344 -0.266524 0.616462 -0.740904 
-0.251969 0.570169 -0.781933 -0.147058 0.512007 -0.8463 0.0353039 0.470671 -0.881602 
0.0659386 0.396542 -0.915645 0.0231224 0.454945 -0.890219 0.0181393 0.577288 -0.816339 
-0.00758348 0.649452 -0.760365 0.0272761 0.695961 -0.717562 0.17283 0.828126 -0.533232 
0.255067 0.916462 -0.308283 -0.236138 0.682851 -0.691342 -0.029401 0.656908 -0.753398 
0.154496 0.696129 -0.701096 -0.0331638 -0.991352 -0.126966 -0.505221 -0.795017 -0.335708 
-0.305035 -0.91645 -0.258983 -0.144889 -0.975077 -0.168026 -0.0244693 -0.990371 -0.136261 
0.0462524 -0.99613 -0.074732 0.0347862 -0.998854 -0.0328688 0.025938 -0.999458 -0.0202922 
-0.0216799 -0.998839 -0.0430123 -0.0489854 -0.992007 -0.116283 -0.0914325 -0.990872 -0.0990575 
0.0624086 -0.992213 -0.10779 -0.0389599 -0.998753 -0.0312031 0.125049 -0.987293 -0.0980588 
0.300439 -0.943856 -0.137378 0.594587 -0.79178 -0.139822 -0.566049 -0.750132 -0.341894 
-0.758833 -0.560775 -0.331216 0.662775 -0.736191 -0.136937 0.822905 -0.545573 -0.158672 
-0.811207 -0.472808 -0.344086 0.832146 -0.528962 -0.166531 -0.885326 -0.273278 -0.376187 
0.874952 -0.42897 -0.224595 0.885838 -0.389116 -0.252743 -0.919306 -0.139561 -0.367967 
-0.989147 -0.134608 0.0589041 0.889174 -0.375416 -0.261597 -0.927652 0.0435372 -0.370898 
-0.947868 0.039298 -0.316231 0.903224 -0.287646 -0.318507 -0.860419 0.253881 -0.441841 
0.963731 0.0107414 -0.26666 -0.758076 0.380143 -0.529917 -0.664395 0.501302 -0.554325 
0.895637 0.33798 -0.289143 0.759913 0.62362 -0.183388 -0.547787 0.612843 -0.56952 
-0.68105 0.616738 -0.394721 -0.421242 0.665242 -0.616448 -0.282538 0.696261 -0.659844 
0.722314 0.669372 -0.17379 0.483865 0.848807 -0.213076 -0.53341 0.762857 -0.365408 
-0.286333 0.683166 -0.671787 -0.297214 0.733246 -0.611567 -0.294217 0.668114 -0.683418 
-0.274843 0.663259 -0.696095 0.198383 0.793928 -0.574737 0.142383 0.847252 -0.511752 
0.0936231 0.897822 -0.43029 0.156633 0.932368 -0.325817 0.192836 0.955703 -0.222366 
0.323161 0.920567 -0.219372 0.257589 0.9387 -0.229106 -0.339751 0.861598 -0.377117 
-0.255945 0.693868 -0.673082 -0.296338 0.760263 -0.578086 -0.234433 0.714191 -0.659524 
-0.0175701 0.758684 -0.651222 0.197589 0.791526 -0.578312 0.179098 0.764193 -0.619623 
0.20896 0.815477 -0.539753 0.222988 0.923436 -0.312318 -0.464639 -0.87636 0.126898 
-0.226038 -0.951558 0.208435 -0.093284 -0.963512 0.250883 0.0121486 -0.959706 0.280742 
0.105285 -0.937637 0.331288 0.0695955 -0.924034 0.375922 0.0300857 -0.905701 0.422847 
-0.0539261 -0.903137 0.425952 -0.123382 -0.916579 0.380341 -0.0618693 -0.934707 0.349993 
0.108092 -0.950232 0.292192 0.319232 -0.898021 0.302736 0.544454 -0.791363 0.278055 
-0.595357 -0.791704 0.136946 -0.753177 -0.643865 0.134765 -0.466665 -0.723426 0.508802 
0.0741436 -0.686211 0.723614 -0.0444177 -0.666691 0.74401 -0.137166 -0.653859 0.744079 
0.578774 -0.771157 0.265211 0.53504 -0.7773 0.330964 0.786832 -0.594303 0.166431 
-0.850873 -0.511957 0.117959 -0.673468 -0.533752 0.511419 0.793657 -0.586951 0.159991 
0.776623 -0.591879 0.215723 -0.952192 -0.294816 0.0800895 -0.987621 -0.13829 0.0740338 
0.865679 -0.496334 0.0652156 0.889863 -0.454972 0.0338343 -0.988281 -0.133802 0.0734665 
-0.98761 -0.134389 0.0810283 0.910302 -0.413681 0.014774 -0.997799 0.00969721 0.0656025 
-0.992701 0.120494 0.00517455 -0.976356 -0.00856135 0.215999 0.973638 -0.226176 0.0295396 
-0.990253 0.139161 -0.00581545 0.992013 0.0560791 0.112983 -0.933308 0.33688 -0.12429 
0.919682 0.366942 0.139783 0.730932 0.650232 0.207213 -0.78763 0.602553 -0.128723 
-0.71905 0.677598 -0.154364 0.671125 0.707112 0.222675 0.499273 0.837314 0.22278 
-0.585104 0.776411 -0.234176 -0.553813 0.799734 -0.231768 -0.413371 0.854937 -0.31338 
0.23576 0.961017 -0.144443 0.25605 0.964512 0.064463 0.263096 0.957322 0.119644 
0.326095 0.920105 0.216953 0.278611 0.935989 0.215177 0.287581 0.917795 0.273769 
-0.372901 0.878891 -0.297483 -0.350918 0.887523 -0.298596 -0.340945 0.888966 -0.305771 
-0.191523 0.947473 -0.256152 0.0645757 0.983478 -0.169121 0.228734 0.962353 -0.146826 
0.269226 0.945637 -0.182451 0.247012 0.9521 -0.180253 0.257288 0.942093 -0.215089 
-0.195541 -0.781115 0.592979 -0.043117 -0.801863 0.59595 0.0750913 -0.740698 0.667629 
0.115051 -0.732646 0.670816 0.121785 -0.69068 0.712832 -0.0932581 -0.659095 0.746255 
0.0397125 -0.702306 0.710767 0.257139 -0.7208 0.643682 -0.358548 -0.702045 0.615285 
-0.448808 -0.638675 0.625032 -0.199562 -0.70988 0.675459 -0.0263756 -0.670322 0.741602 
0.081506 -0.652595 0.75331 0.113621 -0.683506 0.721047 0.117904 -0.684055 0.719838 
0.122571 -0.685822 0.717373 0.0897285 -0.597971 0.796479 -0.0436032 -0.542988 0.838608 
-0.128722 -0.641733 0.756049 -0.138197 -0.631143 0.763256 -0.0940935 -0.613856 0.78379 
0.0225003 -0.644926 0.763913 0.286641 -0.712556 0.640391 0.252598 -0.694655 0.673534 
0.450163 -0.670601 0.589617 -0.620467 -0.520871 0.586272 -0.648107 -0.495617 0.578205 
-0.409512 -0.478603 0.776685 -0.141913 -0.419318 0.896679 -0.0126207 -0.353995 0.935162 
0.0878456 -0.328681 0.940347 0.118967 -0.327534 0.93732 0.160539 -0.37868 0.911498 
0.117492 -0.373266 0.920254 -0.0470611 -0.344068 0.937765 -0.140744 -0.317663 0.9377 
-0.133599 -0.312576 0.940451 -0.0225579 -0.343781 0.938779 0.139009 -0.442432 0.885963 
0.579799 -0.608395 0.541931 0.381737 -0.563192 0.732866 0.661884 -0.577463 0.47796 
-0.776323 -0.332331 0.535611 -0.601987 -0.340034 0.722488 -0.350015 -0.21776 0.911082 
0.0744259 -0.136136 0.98789 0.0975018 -0.307182 0.946643 0.157262 -0.285676 0.945335 
0.000997803 -0.256099 0.96665 -0.12933 -0.0226489 0.991343 -0.165526 -0.10214 0.980902 
0.185959 -0.386698 0.903263 0.726956 -0.540104 0.424055 0.549549 -0.513119 0.659322 
0.830619 -0.404104 0.383109 -0.8387 -0.150218 0.523466 -0.552554 -0.175867 0.814711 
0.011764 -0.00915753 0.999889 -0.302999 -0.0669148 0.950639 0.837964 -0.39073 0.380982 
0.822273 -0.387592 0.416701 -0.864796 -0.0357182 0.500851 -0.565161 -0.0733096 0.821717 
0.13528 -0.0504223 0.989524 0.178172 -0.229116 0.956954 -0.228221 -0.0465957 0.972494 
0.88801 -0.183882 0.421456 0.757677 -0.144984 0.636322 -0.8948 0.0547458 0.443098 
-0.575463 0.015641 0.817678 0.198248 -0.202934 0.958914 -0.148668 -0.0626145 0.986903 
0.865491 0.134297 0.482587 0.659325 0.170671 0.732231 -0.896145 0.267506 0.354069 
-0.585352 0.221386 0.779969 0.341421 0.397808 0.851575 0.730002 0.421074 0.538325 
0.699674 0.461144 0.545714 0.703719 0.424803 0.569493 -0.781036 0.535544 0.32121 
-0.753438 0.573977 0.320752 -0.747554 0.530245 0.400003 0.186336 0.248655 0.9505 
0.134308 0.448529 0.883619 0.320073 0.757807 0.568578 0.269579 0.576298 0.771497 
0.462971 0.658805 0.592987 0.447409 0.669203 0.59329 0.446254 0.652397 0.612565 
-0.619281 0.74186 0.257167 -0.582023 0.774725 0.247086 -0.549641 0.731551 0.403395 
-0.440012 0.866509 0.235694 -0.291535 0.569467 0.76858 0.379881 0.901246 0.208437 
0.405821 0.802859 0.436723 0.393514 0.634787 0.664975 0.334002 0.797432 0.502539 
0.334195 0.797893 0.501677 0.334281 0.796317 0.504119 -0.404874 0.890382 0.208078 
-0.369266 0.90382 0.216221 -0.32365 0.841554 0.432478 -0.296847 0.91153 0.284595 
-0.178881 0.6756 0.715238 -0.137297 0.931423 0.337048 -0.0972932 0.49938 0.860903 
0.0998467 0.929799 0.354267 0.026946 0.454537 0.89032 0.203401 0.914899 0.348695 
0.0861203 0.578799 0.81091 0.176557 0.944471 0.27713 0.095586 0.745979 0.659074 
0.347611 0.917047 0.195428 0.238144 0.954507 0.179456 0.212993 0.864537 0.455203 
-0.130545 -0.337179 0.932346 -0.00266101 -0.333139 0.942874 0.114923 -0.208877 0.971166 
-0.0867694 -0.216939 0.972321 0.0577777 -0.314611 0.947461 -0.291542 -0.212641 0.932624 
-0.314304 -0.20359 0.927235 -0.122113 -0.207134 0.970662 0.0782082 -0.16084 0.983877 
0.0996929 -0.138631 0.985313 0.129281 -0.141286 0.981491 0.00990667 -0.170527 0.985303 
0.0796784 -0.311616 0.946862 0.1468 -0.0541466 0.987683 0.245137 -0.418592 0.874465 
-0.128351 -0.151133 0.980145 -0.111754 -0.175006 0.978204 0.139282 -0.357416 0.923501 
0.0389454 -0.286907 0.957166 0.177299 -0.370552 0.911733 0.440011 -0.25015 0.862448 
-0.365519 -0.18898 0.911418 -0.261758 -0.194151 0.945404 -0.0625351 -0.10341 0.992671 
0.0746326 -0.104191 0.991753 0.0995889 -0.111988 0.988707 -0.0681523 -0.215466 0.97413 
0.0302546 -0.336104 0.941339 0.142699 -0.034818 0.989154 0.143953 -0.0341106 0.988996 
0.246094 -0.417239 0.874842 0.246636 -0.419848 0.873441 -0.276837 -0.0845051 0.957194 
-0.218784 -0.105316 0.970073 -0.0779466 -0.205735 0.975499 0.143815 -0.183102 0.972518 
0.446436 -0.239007 0.862306 0.436394 -0.235966 0.868263 -0.487673 -0.0850975 0.868869 
-0.256203 -0.104309 0.960978 -0.0397664 -0.0877239 0.995351 0.0598147 -0.0911302 0.994041 
0.0154181 -0.0893776 0.995878 -0.14225 -0.078866 0.986684 0.18241 -0.0730852 0.980503 
0.239464 -0.0585767 0.969137 0.0702439 -0.133102 0.98861 0.0615613 -0.172597 0.983067 
0.162418 -0.243425 0.956224 -0.0557689 -0.201674 0.977864 -0.227894 -0.0458588 0.972605 
-0.244906 -0.0185735 0.969369 -0.05572 -0.0211886 0.998222 0.143837 -0.0138599 0.989504 
0.463362 -0.0682396 0.883538 0.328015 -0.0461745 0.943544 -0.534021 0.0151317 0.845336 
-0.281127 0.010654 0.959611 -0.0458913 -0.00540867 0.998932 0.0739683 -0.0147896 0.997151 
0.110771 -0.035313 0.993218 -0.0390146 0.0856751 0.995559 0.0492899 0.207237 0.977048 
0.0268564 -0.198742 0.979684 0.191645 -0.156024 0.968983 0.0637148 0.111425 0.991728 
0.159762 -0.201253 0.966423 -0.152854 -0.0502386 0.986971 -0.12185 -0.0666918 0.990305 
-0.19725 0.0781013 0.977237 -0.0722097 0.19519 0.978104 0.119133 0.136246 0.983486 
0.409808 0.138571 0.901585 0.341763 0.309274 0.887439 0.342108 0.127873 0.930919 
-0.464233 0.168416 0.869554 -0.278675 0.092366 0.955934 -0.062781 0.0865686 0.994266 
0.0305166 0.0497998 0.998293 0.119036 0.0331338 0.992337 0.0903892 -0.00692556 0.995882 
-0.00450542 0.0943086 0.995533 -0.01417 -0.047207 0.998785 0.0188975 0.0254479 0.999498 
0.0533617 -0.175954 0.982951 0.0234194 -0.0876098 0.99588 0.119674 0.205011 0.971416 
0.00668666 0.144026 0.989551 0.0603488 0.315578 0.946979 0.0329796 0.272771 0.961514 
0.182643 0.366548 0.912296 0.0987627 0.366042 0.925343 0.0808503 0.3457 0.934855 
-0.491999 0.366289 0.789791 -0.414368 0.437699 0.797946 -0.366152 0.321513 0.873248 
-0.207981 0.450383 0.868274 -0.091041 0.245974 0.964991 0.0241929 0.119818 0.992501 
0.0547551 0.123926 0.99078 0.0271055 -0.0133026 0.999544 0.0089264 0.0239467 0.999673 
-0.0478197 0.0365605 0.998187 -0.0441353 0.0169374 0.998882 0.0792184 -0.0206275 0.996644 
0.185162 0.174329 0.967122 0.190381 0.0184298 0.981537 -0.199223 0.452991 0.86897 
-0.160138 0.473838 0.865929 -0.129175 0.384968 0.913846 -0.0592799 0.338181 0.939212 
-0.0330408 0.25711 0.965817 -0.06488 0.359524 0.930878 -0.0124675 0.198614 0.979998 
0.0277613 0.313291 0.949251 0.0413672 0.152792 0.987392 0.0164337 0.327644 0.944658 
-0.0172561 0.19827 0.979996 0.00472068 0.425138 0.905116 -0.0357684 0.248905 0.967867 
0.1114 0.466243 0.877614 0.048415 0.279945 0.958794 0.315044 0.391849 0.864408 
0.31593 0.413245 0.854059 0.304687 0.370228 0.877552 
