# vtk DataFile Version 4.2
vtk output
ASCII
DATASET POLYDATA
POINTS 574 float
-33.2607 -22.4719 -17.1876 -40.7945 -7.40429 -17.6637 -33.2607 -7.40429 -17.1224 
-40.7945 0.12953 -17.0936 -40.7945 -37.5396 -10.4372 -33.2607 -37.5396 -12.7572 
-25.7269 -37.5396 -13.3009 -18.1931 -37.5396 -13.8681 -10.6593 -37.5396 -13.7884 
-3.12543 -37.5396 -13.3134 4.40838 -37.5396 -12.6702 11.9422 -37.5396 -11.5844 
19.476 -37.5396 -9.64273 -48.3283 -30.0057 -11.4391 -40.7945 -30.0057 -14.9656 
-33.2607 -22.7999 -17.0907 -33.2607 -30.0057 -14.9312 -25.7269 -30.0057 -16.3381 
-18.1931 -30.0057 -15.6433 -10.6593 -30.0057 -15.2814 -3.12543 -30.0057 -14.8484 
4.40838 -30.0057 -14.2632 11.9422 -30.0057 -13.8547 19.476 -30.0057 -12.6911 
27.0098 -30.0057 -11.4273 34.5437 -30.0057 -10.594 -55.8622 -22.4719 -9.63689 
-48.3283 -22.4719 -14.0576 -33.6822 -22.4719 -17.0907 -40.7945 -22.4719 -15.4556 
-32.5745 -22.4719 -17.0907 -33.2607 -20.6183 -17.0907 -25.7269 -22.4719 -16.1631 
-18.1931 -22.4719 -15.9673 -10.6593 -22.4719 -14.9882 -3.12543 -22.4719 -14.7713 
4.40838 -22.4719 -14.3882 11.9422 -22.4719 -14.1663 19.476 -22.4719 -13.2642 
27.0098 -22.4719 -12.4007 34.5437 -22.4719 -12.2663 42.0775 -22.4719 -10.279 
-55.8622 -14.9381 -12.3748 -48.3283 -14.9381 -16.6501 -40.7945 -13.4323 -17.0907 
-40.7945 -14.9381 -16.9475 -33.2607 -8.16014 -17.0907 -33.2607 -14.9381 -16.8065 
-25.7269 -14.9381 -16.6808 -18.1931 -14.9381 -15.0803 -10.6593 -14.9381 -13.4888 
-3.12543 -14.9381 -13.3008 4.40838 -14.9381 -13.4323 11.9422 -14.9381 -13.0245 
19.476 -14.9381 -12.5106 27.0098 -14.9381 -12.6292 34.5437 -14.9381 -12.3916 
42.0775 -14.9381 -12.2885 49.6113 -14.9381 -12.0082 -55.8622 -7.40429 -12.4349 
-42.7825 -7.40429 -17.0907 -48.3283 -7.40429 -15.7534 -32.9579 -7.40429 -17.0907 
-33.2607 -7.02262 -17.0907 -25.7269 -7.40429 -16.3311 -18.1931 -7.40429 -15.0422 
-10.6593 -7.40429 -13.5229 -3.12543 -7.40429 -13.7733 4.40838 -7.40429 -13.859 
11.9422 -7.40429 -11.3059 19.476 -7.40429 -11.3451 27.0098 -7.40429 -12.1763 
34.5437 -7.40429 -12.5518 42.0775 -7.40429 -13.0765 49.6113 -7.40429 -11.2192 
57.1451 -7.40429 -10.2832 -55.8622 0.12953 -12.8519 -40.808 0.12953 -17.0907 
-48.3283 0.12953 -15.7086 -40.7591 0.12953 -17.0907 -40.7945 0.15191 -17.0907 
-33.2607 0.12953 -16.4942 -25.7269 0.12953 -15.7576 -18.1931 0.12953 -14.2495 
-10.6593 0.12953 -13.7419 -3.12543 0.12953 -13.3388 4.40838 0.12953 -11.7122 
19.476 0.12953 -10.6427 27.0098 0.12953 -11.5919 34.5437 0.12953 -12.2935 
42.0775 0.12953 -12.5842 49.6113 0.12953 -10.8736 -55.8622 7.66335 -12.6956 
-48.3283 7.66335 -16.9145 -40.7945 7.66335 -16.0587 -33.2607 7.66335 -15.7242 
-25.7269 7.66335 -14.9204 -18.1931 7.66335 -13.1768 -10.6593 7.66335 -12.6096 
-3.12543 7.66335 -15.0335 4.40838 7.66335 -14.0231 11.9422 7.66335 -12.0854 
19.476 7.66335 -10.6248 27.0098 7.66335 -11.3423 34.5437 7.66335 -11.4775 
42.0775 7.66335 -11.1698 49.6113 7.66335 -11.1449 -55.8622 15.1972 -10.1035 
-48.3283 15.1972 -13.0648 -40.7945 15.1972 -14.3375 -33.2607 15.1972 -15.1649 
-25.7269 15.1972 -14.5681 -18.1931 15.1972 -14.5023 -10.6593 15.1972 -15.0063 
-3.12543 15.1972 -13.6039 4.40838 15.1972 -12.7877 11.9422 15.1972 -12.0951 
19.476 15.1972 -10.6401 27.0098 15.1972 -10.4679 34.5437 15.1972 -10.2495 
42.0775 15.1972 -10.3475 -48.3283 22.731 -10.9578 -40.7945 22.731 -12.9492 
-33.2607 22.731 -13.6743 -25.7269 22.731 -15.0881 -18.1931 22.731 -15.3271 
-10.6593 22.731 -15.1145 -3.12543 22.731 -13.5634 4.40838 22.731 -12.6738 
11.9422 22.731 -12.0257 19.476 22.731 -10.4148 -40.7945 30.2648 -10.3109 
-33.2607 30.2648 -12.0342 -25.7269 30.2648 -13.5351 -18.1931 30.2648 -14.8803 
-10.6593 30.2648 -14.5239 -3.12543 30.2648 -13.437 4.40838 30.2648 -12.6541 
11.9422 30.2648 -11.1343 -25.7269 37.7986 -10.4304 -18.1931 37.7986 -12.2773 
-10.6593 37.7986 -12.6911 -3.12543 37.7986 -11.9734 4.40838 37.7986 -10.709 
-40.7945 -38.5504 -9.55693 -33.2607 -40.8856 -9.55693 -25.7269 -43.0273 -9.55693 
-18.1931 -43.9312 -9.55693 -18.1931 -45.0734 -3.78126 -10.6593 -43.6235 -9.55693 
-3.12543 -42.933 -9.55693 4.40838 -42.1738 -9.55693 11.9422 -40.5855 -9.55693 
19.476 -37.6415 -9.55693 -42.2041 -37.5396 -9.55693 -48.3283 -32.5843 -9.55693 
19.8371 -37.5396 -9.55693 27.0098 -34.0857 -9.55693 27.0098 -37.5396 -6.13548 
34.5437 -31.5112 -9.55693 -50.695 -30.0057 -9.55693 -55.8622 -22.6018 -9.55693 
37.3231 -30.0057 -9.55693 42.0775 -24.406 -9.55693 42.0775 -30.0057 -6.60231 
-55.9452 -22.4719 -9.55693 46.2841 -22.4719 -9.55693 49.6113 -21.3683 -9.55693 
49.6113 -22.4719 -8.8345 57.1451 -22.4719 -4.18035 -59.1908 -14.9381 -9.55693 
54.7417 -14.9381 -9.55693 57.1451 -9.48853 -9.55693 57.1451 -14.9381 -7.65797 
-59.6029 -7.40429 -9.55693 11.9422 -1.3998 -9.55693 64.5537 -7.40429 -9.55693 
57.1451 -3.29619 -9.55693 64.6789 -7.40429 -9.52742 -60.3266 0.12953 -9.55693 
-63.396 0.12953 -4.88431 10.58 0.12953 -9.55693 13.9021 0.12953 -9.55693 
11.9422 1.32341 -9.55693 11.9422 0.12953 -9.17708 55.1379 0.12953 -9.55693 
57.1451 0.12953 -8.95151 64.6789 0.12953 -4.77608 -59.7993 7.66335 -9.55693 
52.373 7.66335 -9.55693 49.6113 11.101 -9.55693 57.1451 7.66335 -7.11568 
-56.2464 15.1972 -9.55693 -55.8622 15.8371 -9.55693 27.0098 21.3861 -9.55693 
34.5437 21.4372 -9.55693 44.8131 15.1972 -9.55693 42.0775 17.1962 -9.55693 
49.6113 15.1972 -7.99855 57.1451 15.1972 -3.47046 -50.7532 22.731 -9.55693 
-55.8622 22.731 -2.37364 -48.3283 25.0128 -9.55693 25.5815 22.731 -9.55693 
19.476 28.3789 -9.55693 27.0098 22.731 -9.35075 34.5437 22.731 -9.38196 
42.0775 22.731 -7.08373 49.6113 22.731 -3.1252 -42.1827 30.2648 -9.55693 
-48.3283 30.2648 -2.52275 -40.7945 31.326 -9.55693 -33.2607 35.989 -9.55693 
18.291 30.2648 -9.55693 11.9422 34.7989 -9.55693 19.476 30.2648 -9.26766 
27.0098 30.2648 -7.68512 34.5437 30.2648 -5.40378 -29.6498 37.7986 -9.55693 
-33.2607 37.7986 -8.29383 -25.7269 39.1352 -9.55693 -18.1931 43.2627 -9.55693 
-10.6593 45.1116 -9.55693 -3.12543 43.5437 -9.55693 8.06102 37.7986 -9.55693 
4.40838 39.7189 -9.55693 11.9422 37.7986 -8.2683 19.476 37.7986 -5.61215 
27.0098 37.7986 -2.45804 -25.7269 45.3324 -2.34064 -18.1931 45.3324 -7.45354 
-10.6593 45.3324 -9.35972 -3.12543 45.3324 -8.04016 4.40838 45.3324 -4.27603 
-18.1931 -45.3105 -2.02311 -40.7945 -40.4374 -2.02311 -33.2607 -43.239 -2.02311 
-20.7004 -45.0734 -2.02311 -25.7269 -44.5981 -2.02311 -11.0073 -45.0734 -2.02311 
-18.1931 -45.0734 -1.4713 -10.6593 -45.0606 -2.02311 -3.12543 -44.9572 -2.02311 
4.40838 -45.001 -2.02311 11.9422 -44.0007 -2.02311 19.476 -41.6372 -2.02311 
27.0098 -39.1908 -2.02311 -45.1749 -37.5396 -2.02311 -48.3283 -35.1791 -2.02311 
-40.7945 -37.5396 2.95505 19.476 -37.5396 4.91165 31.013 -37.5396 -2.02311 
27.0098 -37.5396 3.04503 34.5437 -36.024 -2.02311 42.0775 -33.4148 -2.02311 
-53.5141 -30.0057 -2.02311 -55.8622 -26.8735 -2.02311 49.0085 -30.0057 -2.02311 
49.6113 -29.6311 -2.02311 49.6113 -30.0057 1.05207 57.1451 -25.0284 -2.02311 
-58.5824 -22.4719 -2.02311 -55.8622 -22.4719 2.72913 59.7582 -22.4719 -2.02311 
-61.9198 -14.9381 -2.02311 64.6272 -14.9381 -2.02311 64.6789 -14.8452 -2.02311 
64.6789 -14.9381 -1.89293 -63.3113 -7.40429 -2.02311 -63.396 -6.90642 -2.02311 
67.36 -7.40429 -2.02311 -64.4152 0.12953 -2.02311 -63.396 5.4324 -2.02311 
-63.396 0.12953 -0.0725311 66.2318 0.12953 -2.02311 64.6789 5.85545 -2.02311 
-62.9149 7.66335 -2.02311 64.0551 7.66335 -2.02311 64.6789 7.66335 -0.0558362 
-60.7139 15.1972 -2.02311 58.9318 15.1972 -2.02311 57.1451 18.0759 -2.02311 
-56.0393 22.731 -2.02311 -55.8622 22.945 -2.02311 -55.8622 22.731 -1.48845 
42.0775 29.7359 -2.02311 52.012 22.731 -2.02311 49.6113 25.2459 -2.02311 
-48.663 30.2648 -2.02311 -48.3283 30.5727 -2.02311 -48.3283 30.2648 -0.586542 
-40.7945 36.3744 -2.02311 41.2861 30.2648 -2.02311 34.5437 34.3294 -2.02311 
42.0775 30.2648 -1.18148 -38.7491 37.7986 -2.02311 -33.2607 41.3633 -2.02311 
11.9422 43.6738 -2.02311 19.476 41.1306 -2.02311 27.8449 37.7986 -2.02311 
27.0098 38.2893 -2.02311 34.5437 37.7986 4.59701 -26.0173 45.3324 -2.02311 
-25.7269 45.4802 -2.02311 -25.7269 45.3324 -1.06323 -18.1931 48.0923 -2.02311 
-18.1931 45.3324 4.98077 -10.6593 49.064 -2.02311 -3.12543 48.5379 -2.02311 
7.88699 45.3324 -2.02311 4.40838 46.5803 -2.02311 -33.2607 -39.4404 5.51071 
-25.7269 -39.1476 5.51071 -18.1931 -39.9701 5.51071 -10.6593 -40.0866 5.51071 
-3.12543 -40.5215 5.51071 4.40838 -40.5885 5.51071 11.9422 -39.3273 5.51071 
-48.3283 -30.0598 5.51071 -37.5994 -37.5396 5.51071 -40.7945 -34.4143 5.51071 
-33.2607 -37.5396 7.20197 -25.7269 -37.5396 6.93934 -18.1931 -37.5396 7.11047 
-10.6593 -37.5396 7.29754 -3.12543 -37.5396 7.56632 4.40838 -37.5396 7.61216 
17.8837 -37.5396 5.51071 11.9422 -37.5396 6.83291 19.476 -37.0466 5.51071 
27.0098 -36.2354 5.51071 34.5437 -34.0083 5.51071 42.0775 -32.409 5.51071 
49.6113 -30.417 5.51071 -48.3798 -30.0057 5.51071 -48.3283 -30.0057 5.5485 
-40.7945 -30.0057 7.88545 -33.2607 -30.0057 9.82596 -25.7269 -30.0057 10.4296 
-18.1931 -30.0057 10.7235 -10.6593 -30.0057 10.5463 -3.12543 -30.0057 10.4726 
4.40838 -30.0057 10.6611 11.9422 -30.0057 10.8411 19.476 -30.0057 10.5699 
27.0098 -30.0057 10.541 34.5437 -30.0057 10.0956 42.0775 -30.0057 7.96226 
50.4375 -30.0057 5.51071 49.6113 -30.0057 6.11931 57.1451 -25.9952 5.51071 
-52.3435 -22.4719 5.51071 -55.8622 -18.1946 5.51071 -48.3283 -22.4719 7.628 
-40.7945 -22.4719 10.4175 -33.2607 -22.4719 12.1394 -25.7269 -22.4719 12.2925 
-18.1931 -22.4719 12.5679 -10.6593 -22.4719 12.0138 -3.12543 -22.4719 11.7737 
4.40838 -22.4719 12.3665 49.6113 -22.4719 12.5521 61.4496 -22.4719 5.51071 
57.1451 -22.4719 9.82375 64.6789 -18.3605 5.51071 -57.2155 -14.9381 5.51071 
-55.8622 -14.9381 6.59971 -48.3283 -14.9381 10.1653 -40.7945 -14.9381 11.4236 
-33.2607 -14.9381 12.5968 -25.7269 -14.9381 12.9123 -10.6593 -14.9381 12.5109 
-3.12543 -14.9381 11.7312 66.5025 -14.9381 5.51071 64.6789 -14.9381 8.19202 
-56.4643 -7.40429 5.51071 -55.8622 -7.40429 5.93206 -48.3283 -7.40429 10.1337 
[...]
POINT_DATA 574
SCALARS ImageScalars float
LOOKUP_TABLE default
0 0 0 0 0 0 0 0 0 
0 0 0 0 0 0 0 0 0 
0 0 0 0 0 0 0 0 0 
0 0 0 0 0 0 0 0 0 
0 0 0 0 0 0 0 0 0 
0 0 0 0 0 0 0 0 0 
0 0 0 0 0 0 0 0 0 
0 0 0 0 0 0 0 0 0 
0 0 0 0 0 0 0 0 0 
0 0 0 0 0 0 0 0 0 
0 0 0 0 0 0 0 0 0 
0 0 0 0 0 0 0 0 0 
0 0 0 0 0 0 0 0 0 
0 0 0 0 0 0 0 0 0 
0 0 0 0 0 0 0 0 0 
0 0 0 0 0 0 0 0 0 
0 0 0 0 0 0 0 0 0 
0 0 0 0 0 0 0 0 0 
0 0 0 0 0 0 0 0 0 
0 0 0 0 0 0 0 0 0 
0 0 0 0 0 0 0 0 0 
0 0 0 0 0 0 0 0 0 
0 0 0 0 0 0 0 0 0 
0 0 0 0 0 0 0 0 0 
0 0 0 0 0 0 0 0 0 
0 0 0 0 0 0 0 0 0 
0 0 0 0 0 0 0 0 0 
0 0 0 0 0 0 0 0 0 
0 0 0 0 0 0 0 0 0 
0 0 0 0 0 0 0 0 0 
0 0 0 0 0 0 0 0 0 
0 0 0 0 0 0 0 0 0 
0 0 0 0 0 0 0 0 0 
0 0 0 0 0 0 0 0 0 
0 0 0 0 0 0 0 0 0 
0 0 0 0 0 0 0 0 0 
0 0 0 0 0 0 0 0 0 
0 0 0 0 0 0 0 0 0 
0 0 0 0 0 0 0 0 0 
0 0 0 0 0 0 0 0 0 
0 0 0 0 0 0 0 0 0 
0 0 0 0 0 0 0 0 0 
0 0 0 0 0 0 0 0 0 
0 0 0 0 0 0 0 0 0 
0 0 0 0 0 0 0 0 0 
0 0 0 0 0 0 0 0 0 
0 0 0 0 0 0 0 0 0 
0 0 0 0 0 0 0 0 0 
0 0 0 0 0 0 0 0 0 
0 0 0 0 0 0 0 0 0 
0 0 0 0 0 0 0 0 0 
0 0 0 0 0 0 0 0 0 
0 0 0 0 0 0 0 0 0 
0 0 0 0 0 0 0 0 0 
0 0 0 0 0 0 0 0 0 
0 0 0 0 0 0 0 0 0 
0 0 0 0 0 0 0 0 0 
0 0 0 0 0 0 0 0 0 
0 0 0 0 0 0 0 0 0 
0 0 0 0 0 0 0 0 0 
0 0 0 0 0 0 0 0 0 
0 0 0 0 0 0 0 0 0 
0 0 0 0 0 0 0 0 0 
0 0 0 0 0 0 0 
NORMALS Normals float
-0.0437297 -0.120408 -0.991761 -0.106114 -0.00932384 -0.99431 0.0864406 0.0204329 -0.996047 
-0.0659788 0.101503 -0.992645 -0.398371 -0.644569 -0.652558 -0.210117 -0.584356 -0.783823 
-0.067443 -0.478771 -0.875345 -0.03546 -0.433053 -0.900671 0.0408279 -0.413038 -0.909798 
0.0811665 -0.419776 -0.903991 0.121416 -0.423736 -0.897611 0.182846 -0.478163 -0.859027 
0.257108 -0.617439 -0.743414 -0.520904 -0.439017 -0.732067 -0.270646 -0.371045 -0.8883 
-0.0447796 -0.125096 -0.991134 -0.0881653 -0.264261 -0.960413 -0.0386911 -0.206657 -0.977648 
0.0623549 -0.133437 -0.989094 0.0569486 -0.0803108 -0.995142 0.0684175 -0.0976683 -0.992864 
0.0674073 -0.113334 -0.991268 0.0967928 -0.159696 -0.982409 0.155938 -0.200717 -0.967159 
0.151337 -0.283831 -0.946856 0.220664 -0.441718 -0.869593 -0.657904 -0.44719 -0.605957 
-0.389529 -0.348964 -0.852345 -0.0510148 -0.119371 -0.991538 -0.19057 -0.124632 -0.97373 
-0.0323102 -0.111233 -0.993269 -0.028973 -0.0895847 -0.995558 0.0779547 -0.0213204 -0.996729 
0.0779111 0.0341022 -0.996377 0.0788866 0.117012 -0.989992 0.0395218 0.0961159 -0.994585 
0.0400188 0.0528938 -0.997798 0.0744171 0.0533864 -0.995797 0.116738 0.0142278 -0.993061 
0.0652084 -0.069529 -0.995446 0.144937 -0.143193 -0.979024 0.187398 -0.283136 -0.940594 
-0.581242 -0.166347 -0.796547 -0.283204 -0.0647703 -0.95687 -0.0253229 -0.11796 -0.992695 
-0.00670677 -0.144912 -0.989422 0.079489 0.0188457 -0.996658 0.0169793 0.00326383 -0.999851 
0.117341 -0.0114964 -0.993025 0.20186 0.0608143 -0.977525 0.119311 0.0991937 -0.987889 
0.00405348 0.0744281 -0.997218 0.0190392 0.0371437 -0.999129 0.0607522 0.174441 -0.982792 
0.0258667 0.126118 -0.991678 0.00792577 0.0133545 -0.999879 0.0221549 -0.018043 -0.999592 
0.0319984 -0.184185 -0.982371 0.22261 -0.0978279 -0.969987 -0.58533 -0.0281962 -0.810305 
-0.147985 0.0143681 -0.988885 -0.272298 0.0484519 -0.960992 0.0881346 0.021963 -0.995866 
0.0863101 0.0238933 -0.995982 0.132721 0.0571044 -0.989507 0.175907 0.0513491 -0.983067 
0.0913313 -0.0155154 -0.9957 -0.0232544 -0.0107255 -0.999672 0.146857 0.0907547 -0.984986 
0.175997 0.225653 -0.958178 -0.0563957 0.127912 -0.990181 -0.0817438 0.0702928 -0.994171 
-0.0571067 0.00646436 -0.998347 0.0868738 -0.0176482 -0.996063 0.154563 0.0821712 -0.98456 
0.156833 -0.0844447 -0.984008 -0.5266 -0.0117035 -0.850033 -0.0662279 0.101136 -0.992666 
-0.218149 -0.0566686 -0.974269 -0.065264 0.101449 -0.992698 -0.0655528 0.101751 -0.992648 
0.0858192 0.0914653 -0.992103 0.142763 0.0903097 -0.985628 0.12619 0.119078 -0.984833 
0.0593983 0.0638761 -0.996189 0.149111 -0.116864 -0.98189 0.234617 -0.0154969 -0.971964 
-0.132686 0.0492499 -0.989934 -0.109646 0.0531775 -0.992547 -0.0647586 0.0708417 -0.995383 
0.092574 0.12348 -0.98802 0.194059 0.00715059 -0.980964 -0.542465 0.0994949 -0.834166 
-0.232529 0.102332 -0.967191 0.0681455 0.185326 -0.980311 0.0704775 0.0887309 -0.993559 
0.161062 0.0781786 -0.983843 0.14441 -0.0235448 -0.989238 -0.130057 -0.106937 -0.985723 
-0.0828632 0.00836764 -0.996526 0.174619 -0.042505 -0.983718 0.247881 -0.134356 -0.959429 
0.0305492 0.00019524 -0.999533 -0.0571324 0.0748537 -0.995557 0.0107151 0.132368 -0.991143 
0.0223603 0.156042 -0.987497 0.259573 0.187647 -0.947317 -0.612844 0.475922 -0.63081 
-0.202702 0.378658 -0.903067 -0.11906 0.178264 -0.976753 -0.0142481 0.134034 -0.990874 
0.0427859 -0.0116497 -0.999016 -0.0288466 -0.133809 -0.990587 0.0516602 -0.147101 -0.987772 
0.156141 0.0992712 -0.982734 0.0937226 0.0867381 -0.991813 0.143009 0.00413553 -0.989713 
0.103635 0.0138242 -0.994519 0.0254309 0.129146 -0.991299 0.00742217 0.145646 -0.989309 
0.136002 0.252712 -0.957935 -0.372794 0.390774 -0.841618 -0.204187 0.294857 -0.93347 
-0.127831 0.181791 -0.974993 -0.105649 0.0622459 -0.992453 -0.00110664 -0.0268379 -0.999639 
0.110792 0.0325551 -0.99331 0.161434 0.0116815 -0.986814 0.101199 0.00906762 -0.994825 
0.145237 0.0609592 -0.987517 0.172987 0.0850409 -0.981246 -0.343223 0.480285 -0.807171 
-0.223258 0.318435 -0.921279 -0.165381 0.261872 -0.950827 -0.0608099 0.196387 -0.978639 
0.0980736 0.163917 -0.981587 0.119626 0.106552 -0.987085 0.153892 0.107776 -0.982192 
0.208423 0.21312 -0.954536 -0.236469 0.502305 -0.831728 -0.1244 0.392805 -0.911169 
0.0230841 0.330331 -0.943583 0.118328 0.309015 -0.943668 0.229903 0.388975 -0.8921 
-0.425993 -0.705082 -0.566912 -0.2519 -0.766122 -0.591273 -0.155303 -0.814168 -0.559474 
-0.0296841 -0.855983 -0.516151 -0.0329725 -0.999374 0.0128314 0.0507252 -0.846158 -0.530512 
0.0729956 -0.803267 -0.591129 0.113727 -0.740395 -0.662482 0.21681 -0.664579 -0.715072 
0.259329 -0.623372 -0.737669 -0.462778 -0.691108 -0.555163 -0.592488 -0.599034 -0.538624 
0.261912 -0.622068 -0.737858 0.249026 -0.513959 -0.820873 0.357519 -0.839499 -0.409173 
0.270553 -0.538853 -0.797771 -0.639889 -0.522397 -0.563598 -0.661301 -0.452048 -0.59861 
0.224518 -0.514491 -0.827581 0.197087 -0.36844 -0.90852 0.309272 -0.740933 -0.596128 
-0.661302 -0.449738 -0.600346 0.285485 -0.324739 -0.901689 0.350564 -0.313672 -0.882448 
0.384469 -0.386572 -0.838299 0.57729 -0.52592 -0.624615 -0.766451 -0.2141 -0.60557 
0.355989 -0.271063 -0.894314 0.224536 -0.166418 -0.96015 0.475855 -0.349735 -0.806999 
-0.77284 -0.0575382 -0.631987 0.0813143 0.0297079 -0.996246 0.513849 -0.0112121 -0.857807 
0.225065 0.0888274 -0.970286 0.520163 -0.0105146 -0.854003 -0.76935 0.00241028 -0.638823 
-0.98955 0.043766 -0.137389 0.0914239 -0.0397803 -0.995017 -0.0121904 -0.0164518 -0.99979 
0.0875661 -0.0735034 -0.993443 0.04837 -0.0455474 -0.99779 0.2627 0.157816 -0.951884 
0.322766 0.217352 -0.921184 0.734313 0.272452 -0.621736 -0.759272 0.208373 -0.616512 
0.33851 0.251506 -0.906728 0.330231 0.31512 -0.889745 0.476046 0.314472 -0.821272 
-0.634369 0.491698 -0.596498 -0.63176 0.494488 -0.59696 0.0596052 0.15591 -0.985971 
0.120621 0.271303 -0.954906 0.230711 0.319268 -0.919152 0.196768 0.279696 -0.939709 
0.379403 0.421236 -0.82378 0.64225 0.43715 -0.629615 -0.495161 0.428225 -0.755936 
-0.787978 0.608575 -0.0934235 -0.427447 0.476953 -0.767987 0.0881342 0.147407 -0.985141 
0.192294 0.213004 -0.957942 0.0699475 0.164504 -0.983893 0.144111 0.298299 -0.94353 
0.339071 0.386979 -0.857484 0.477593 0.546612 -0.687838 -0.381594 0.517773 -0.7657 
-0.657104 0.732563 -0.177668 -0.369212 0.523369 -0.767963 -0.333016 0.534816 -0.776577 
0.199631 0.249645 -0.947536 0.249089 0.35142 -0.902474 0.202697 0.260578 -0.943935 
0.249859 0.383546 -0.88908 0.262707 0.512306 -0.817635 -0.306061 0.552553 -0.775249 
-0.40081 0.650934 -0.644699 -0.269561 0.5339 -0.801428 -0.200836 0.609385 -0.767017 
-0.0133758 0.668824 -0.7433 0.173443 0.58753 -0.790397 0.260109 0.417512 -0.870647 
0.2557 0.467894 -0.845986 0.290698 0.498201 -0.816878 0.32684 0.651166 -0.684951 
0.392619 0.680766 -0.618392 -0.418889 0.891056 -0.174789 -0.233127 0.793274 -0.562465 
-0.0146767 0.688056 -0.725509 0.184804 0.738295 -0.648666 0.31291 0.876087 -0.366822 
-0.0326095 -0.987219 0.155999 -0.478956 -0.866702 0.139385 -0.259094 -0.95789 0.123758 
-0.0670061 -0.985342 0.15688 -0.128307 -0.97879 0.15971 0.0212664 -0.988585 0.149155 
-0.0339288 -0.980105 0.195558 0.023758 -0.988571 0.148872 0.0036252 -0.995358 0.0961735 
0.0645054 -0.995997 0.0618758 0.197781 -0.978706 0.054927 0.32616 -0.944703 0.0340009 
0.342582 -0.939039 -0.0290463 -0.575416 -0.808095 0.126014 -0.637195 -0.761837 0.116566 
-0.489125 -0.683795 0.541462 0.156314 -0.738887 0.655448 0.344976 -0.934326 -0.0895946 
0.229589 -0.886099 0.402638 0.359867 -0.923056 -0.13588 0.397076 -0.885017 -0.243055 
-0.752869 -0.64905 0.109187 -0.804945 -0.584159 0.104029 0.455373 -0.878806 -0.142601 
0.460278 -0.875026 -0.149914 0.418307 -0.907192 0.0449757 0.589684 -0.683499 -0.430236 
-0.873605 -0.474841 0.106493 -0.714547 -0.469705 0.51846 0.667623 -0.580756 -0.465835 
-0.94827 -0.296158 0.114344 0.804564 -0.472871 -0.359263 0.80732 -0.469493 -0.357507 
0.809219 -0.474789 -0.346035 -0.979925 -0.166547 0.109583 -0.982062 -0.154531 0.108047 
0.935272 -0.0675256 -0.347427 -0.995438 0.0243233 0.0922539 -0.983423 0.169896 0.0633521 
-0.976778 0.0214651 0.213177 0.871162 0.219025 -0.439437 0.828823 0.340949 -0.443629 
-0.971427 0.228534 0.064037 0.8091 0.369382 -0.457072 0.86462 0.408953 -0.291874 
-0.909052 0.41659 -0.00876987 0.70502 0.463804 -0.536501 0.660682 0.531008 -0.530594 
-0.788495 0.610986 -0.0705025 -0.785176 0.615436 -0.0688288 -0.788795 0.614094 -0.0262773 
0.39935 0.698916 -0.593326 0.541395 0.593814 -0.595211 0.514132 0.60606 -0.606926 
-0.664758 0.733368 -0.14237 -0.660528 0.736571 -0.145481 -0.677615 0.734717 -0.0320875 
-0.581419 0.799998 -0.148176 0.394453 0.698802 -0.596726 0.326831 0.702813 -0.631851 
0.438452 0.742323 -0.506672 -0.563443 0.814117 -0.140519 -0.496804 0.861605 -0.104027 
0.338031 0.889703 -0.306862 0.303317 0.845405 -0.439647 0.393733 0.700445 -0.595274 
0.395384 0.703657 -0.590372 0.374474 0.926042 -0.0470591 -0.419107 0.895117 -0.152037 
-0.415889 0.897047 -0.149477 -0.412124 0.907704 -0.0789129 -0.24511 0.965638 -0.0863951 
-0.164528 0.844543 0.509585 -0.0281404 0.992807 -0.116369 0.169803 0.97403 -0.149774 
0.321905 0.921004 -0.219385 0.30248 0.935128 -0.184502 -0.169363 -0.715472 0.677802 
-0.015363 -0.63766 0.770165 -0.0418527 -0.628589 0.77661 -0.0236937 -0.65075 0.758922 
-0.0224549 -0.655814 0.754589 0.0541621 -0.663447 0.746261 0.159091 -0.649302 0.743705 
-0.479793 -0.455046 0.750155 -0.32481 -0.604116 0.727697 -0.395354 -0.533179 0.74794 
-0.174461 -0.56078 0.809376 0.00800719 -0.562586 0.8267 -0.0201527 -0.530976 0.847147 
-0.0282986 -0.536635 0.84334 -0.0198319 -0.507286 0.86155 0.0442285 -0.514938 0.856086 
0.140732 -0.682183 0.71751 0.138826 -0.578316 0.803914 0.134571 -0.6958 0.705516 
0.150062 -0.774362 0.614691 0.181606 -0.856473 0.483191 0.215353 -0.877416 0.428678 
0.341586 -0.896273 0.282866 -0.480893 -0.453553 0.750354 -0.478432 -0.452061 0.752824 
-0.298574 -0.430987 0.85153 -0.132564 -0.318426 0.938633 -0.0621787 -0.301206 0.95153 
-0.00587214 -0.330396 0.943824 0.0155046 -0.28853 0.957345 -0.0069382 -0.265086 0.9642 
-0.0236399 -0.298418 0.954143 0.00424406 -0.396141 0.91818 0.0185958 -0.509315 0.860379 
0.0213884 -0.592703 0.805137 0.13345 -0.694848 0.706667 0.181543 -0.795672 0.577882 
0.367639 -0.885932 0.282784 0.334174 -0.884549 0.325423 0.585544 -0.767475 0.260996 
-0.545454 -0.345478 0.763626 -0.592855 -0.250572 0.765334 -0.458498 -0.28657 0.841223 
-0.243568 -0.184144 0.952242 -0.132516 -0.187351 0.973314 -0.0273847 -0.15395 0.987699 
0.0184493 -0.148256 0.988777 0.0519172 -0.130531 0.990084 -0.0229436 -0.0806832 0.996476 
-0.117063 -0.18392 0.975945 0.245619 -0.544389 0.802067 0.688383 -0.694429 0.209518 
0.48314 -0.619069 0.619136 0.81103 -0.552309 0.192835 -0.636074 -0.145423 0.757801 
-0.559069 -0.129624 0.818926 -0.330878 -0.133949 0.934118 -0.148014 -0.117598 0.981969 
-0.0950864 -0.0356233 0.994831 -0.0336761 -0.0301097 0.998979 0.0926104 -0.0386235 0.994953 
-0.0656323 -0.0293852 0.997411 0.874608 -0.429825 0.224299 0.816051 -0.434859 0.380734 
-0.620138 -0.00969046 0.784433 -0.588936 -0.00585059 0.808158 -0.321288 -0.0352255 0.946326 
-0.189817 -0.0644248 0.979703 -0.0430479 0.00776713 0.999043 0.0110632 0.0405129 0.999118 
0.0116063 0.0670452 0.997682 0.0211805 -0.0916412 0.995567 -0.169342 -0.19559 0.965954 
0.977336 -0.106202 0.183126 0.616991 -0.130755 0.776032 -0.671023 0.015171 0.741281 
-0.566944 0.0149885 0.82362 -0.269801 -0.00371488 0.962909 -0.152083 -0.00627459 0.988348 
0.00788533 -0.0116067 0.999902 0.0245167 -0.0180731 0.999536 -0.102216 -0.0497843 0.993516 
0.962997 0.201118 0.179409 0.704606 0.166202 0.689861 -0.609677 0.0103628 0.792582 
-0.603977 0.0090688 0.79695 -0.33547 -0.00286955 0.942047 -0.196795 0.0421123 0.97954 
-0.0548934 -0.0467255 0.997398 -0.0271569 -0.101926 0.994421 0.87743 0.445231 0.178565 
0.858594 0.483491 0.17045 0.828426 0.431756 0.356788 -0.695653 0.171174 0.697686 
-0.660995 0.270973 0.699756 -0.633558 0.155398 0.757928 -0.345843 0.095918 0.933377 
-0.135233 0.0974913 0.986006 0.81993 0.539158 0.192417 0.74666 0.645226 0.161811 
0.70031 0.422941 0.575053 -0.61547 0.427669 0.662039 -0.606043 0.495732 0.622063 
-0.539353 0.370159 0.75636 -0.279973 0.153883 0.947594 -0.215775 0.139061 0.96649 
0.715805 0.686763 0.126413 0.661278 0.746392 0.0748983 0.527842 0.501301 0.685623 
-0.549385 0.605175 0.576143 -0.476281 0.683104 0.553647 -0.412474 0.526284 0.743567 
-0.222444 0.350477 0.909772 -0.160507 0.282396 0.945775 0.624079 0.780024 0.0456967 
0.569498 0.821537 0.0273599 0.526744 0.629522 0.571177 -0.45933 0.704719 0.540728 
-0.453839 0.707747 0.54141 -0.438378 0.687374 0.579087 -0.314114 0.794425 0.519829 
-0.239271 0.491755 0.837213 -0.154435 0.812773 0.561739 -0.213421 0.407099 0.8881 
-0.0511401 0.388269 0.920126 0.023674 0.449044 0.893196 -0.0194786 0.532629 0.846125 
0.19762 0.932647 0.301855 0.00873649 0.586352 0.810009 0.220417 0.958089 0.182979 
0.0747269 0.689113 0.72079 0.234533 0.967521 0.0943302 0.201311 0.811418 0.548703 
0.396445 0.917977 0.0122531 0.37302 0.927747 0.0118963 0.365948 0.927895 0.0713624 
-0.141336 0.810619 0.568261 -0.081573 0.784379 0.614894 -0.0662832 0.740203 0.669108 
0.07916 0.828589 0.554232 0.0553038 0.77907 0.624493 0.16462 0.880567 0.444412 
0.164192 0.879831 0.446024 0.163744 0.879249 0.447336 -0.0994609 -0.316991 0.943199 
-0.0458799 -0.406786 0.912371 -0.0206778 -0.472171 0.881265 0.0548979 -0.496721 0.866172 
0.138794 -0.535053 0.833339 0.0252607 -0.0165022 0.999545 -0.12157 -0.247383 0.961261 
-0.191833 -0.180996 0.964594 -0.124737 -0.296737 0.946778 -0.0660024 -0.354059 0.932891 
-0.0282791 -0.391116 0.919907 0.000980568 -0.39136 0.920237 0.209503 -0.519282 0.828526 
0.113616 -0.459676 0.880789 0.23643 -0.505262 0.829946 0.439397 -0.261421 0.859412 
0.00584171 -0.00838531 0.999948 0.033776 -0.00199098 0.999427 0.0244547 0.0102802 0.999648 
0.0261849 0.00237567 0.999654 -0.198823 -0.135953 0.97056 -0.251055 -0.177687 0.951524 
-0.178189 -0.11727 0.976983 -0.10483 -0.150924 0.982971 -0.0527235 -0.181904 0.981902 
-0.00594506 -0.216277 0.976314 0.0651002 -0.267907 0.961243 0.217758 -0.234278 0.947468 
0.439422 -0.261404 0.859405 0.439397 -0.261399 0.859419 -0.0408869 -0.140153 0.989285 
-0.190465 -0.197567 0.961608 -0.174877 -0.238855 0.955179 -0.190469 -0.198112 0.961495 
-0.109398 -0.0495937 0.99276 -0.147524 -0.0387057 0.988301 -0.104232 -0.0612798 0.992663 
-0.0710157 -0.0886074 0.993532 0.0719336 -0.0655949 0.99525 0.196299 -0.049321 0.979303 
0.503271 -0.121432 0.855554 0.331355 -0.11174 0.936866 -0.136555 -0.142759 0.980292 
-0.174494 -0.140905 0.974524 -0.174386 -0.236745 0.955793 -0.167446 -0.288153 0.94283 
-0.102323 -0.195838 0.975283 -0.0231593 -0.140445 0.989818 -0.110355 -0.0706604 0.991377 
-0.105173 -0.0326845 0.993917 -0.0161631 0.000359691 0.999869 0.0956684 0.0313697 0.994919 
0.196552 0.0133312 0.980403 0.495519 0.114198 0.861057 0.367221 0.07784 0.926871 
-0.0965551 -0.0163944 0.995193 -0.0355012 -0.105176 0.99382 -0.028225 -0.101322 0.994453 
-0.193074 -0.165834 0.967068 -0.216746 -0.0568727 0.97457 -0.12897 -0.109525 0.985582 
-0.0450631 -0.0565723 0.997381 0.00664729 -0.0752843 0.99714 -0.0468683 -0.0683013 0.996563 
-0.0335323 -0.0213305 0.99921 -0.00474065 0.0431262 0.999058 0.101244 0.0594592 0.993083 
0.214105 0.0979711 0.971885 0.547605 0.276746 0.789646 0.531376 0.273288 0.801844 
0.496424 0.262324 0.827496 -0.130414 0.0196223 0.991265 -0.159771 0.0498076 0.985897 
-0.132338 0.00984967 0.991156 -0.0913823 -0.0683185 0.99347 -0.0829961 -0.0669665 0.994297 
-0.120151 0.0825067 0.989321 -0.169252 0.0608944 0.98369 -0.0628298 0.0455154 0.996986 
-0.0274694 -0.0195211 0.999432 -0.053972 -0.0016794 0.998541 0.00475694 0.00683202 0.999965 
0.0633907 -0.00110405 0.997988 0.178913 0.207936 0.961641 0.484488 0.320299 0.814052 
0.416715 0.383072 0.824382 0.352799 0.272368 0.895181 -0.193122 0.127537 0.972851 
-0.137522 0.205152 0.96902 -0.113221 0.0984489 0.98868 -0.0388472 0.0718083 0.996662 
-0.0887213 0.0827613 0.992612 -0.168592 0.108801 0.979663 -0.12205 0.118179 0.985463 
-0.0412276 0.0812145 0.995844 -0.0194901 0.104814 0.994301 -0.0348086 0.0836425 0.995888 
0.204684 0.176216 0.962836 0.401128 0.364725 0.840281 0.416967 0.431992 0.799701 
0.339032 0.268516 0.901641 -0.119537 0.225844 0.966802 -0.124365 0.22459 0.966485 
-0.0999475 0.192799 0.976135 -0.0567049 0.329535 0.942439 -0.0845272 0.123146 0.988782 
-0.0189144 0.365517 0.930613 -0.119521 0.223676 0.967307 -0.0352367 0.470083 0.881919 
-0.0880674 0.288032 0.953563 -0.00551544 0.532426 0.846458 -0.0398647 0.309671 0.950008 
0.0396098 0.58741 0.80832 -0.0375957 0.314905 0.948378 0.130101 0.6179 0.775418 
0.0514105 0.389275 0.919686 0.4058 0.511576 0.757374 0.256751 0.646124 0.718751 
0.223944 0.433279 0.872994 
