# vtk DataFile Version 4.2
vtk output
ASCII
DATASET POLYDATA
POINTS 514 float
-3.58004 -43.9142 -17.2148 4.73792 -43.9142 -18.5174 13.0559 -43.9142 -18.3799 
-28.5339 -35.5963 -17.0989 -20.2159 -35.5963 -18.7007 -11.898 -35.5963 -19.0439 
-3.58004 -35.5963 -19.8188 4.73792 -35.5963 -19.8774 13.0559 -35.5963 -21.5607 
21.3738 -35.5963 -19.6383 -36.8519 -27.2783 -16.8582 -28.5339 -27.2783 -19.6667 
-20.2159 -27.2783 -20.9376 -11.898 -27.2783 -20.7377 -3.58004 -27.2783 -19.0626 
4.73792 -27.2783 -19.749 13.0559 -27.2783 -21.3046 21.3738 -27.2783 -20.7751 
29.6918 -27.2783 -18.3656 -36.8519 -18.9604 -18.4258 -28.5339 -18.9604 -20.3078 
-20.2159 -18.9604 -21.5109 -11.898 -18.9604 -21.0625 -3.58004 -18.9604 -18.772 
4.73792 -18.9604 -18.7053 13.0559 -18.9604 -20.0617 21.3738 -18.9604 -20.434 
29.6918 -18.9604 -19.0478 -45.1698 -10.6424 -17.4174 -36.8519 -10.6424 -19.694 
-28.5339 -10.6424 -20.8109 -20.2159 -10.6424 -21.2391 -11.898 -10.6424 -21.949 
-3.58004 -10.6424 -20.6849 4.73792 -10.6424 -19.0086 13.0559 -10.6424 -18.8927 
21.3738 -10.6424 -19.2219 29.6918 -10.6424 -18.278 -45.1698 -2.32447 -18.535 
-36.8519 -2.32447 -20.2456 -28.5339 -2.32447 -20.6229 -20.2159 -2.32447 -21.2088 
-11.898 -2.32447 -22.2881 -3.58004 -2.32447 -20.2831 4.73792 -2.32447 -20.0275 
13.0559 -2.32447 -18.5545 21.3738 -2.32447 -17.7742 29.6918 -2.32447 -16.937 
-45.1698 5.99348 -18.7221 -36.8519 5.99348 -20.2178 -28.5339 5.99348 -20.3571 
-20.2159 5.99348 -21.3613 -11.898 5.99348 -24.2993 -3.58004 5.99348 -21.7143 
4.73792 5.99348 -19.2503 13.0559 5.99348 -19.0619 21.3738 5.99348 -16.6432 
-45.1698 14.3114 -17.1598 -36.8519 14.3114 -18.9347 -28.5339 14.3114 -19.3963 
-20.2159 14.3114 -20.1877 -11.898 14.3114 -22.1729 -3.58004 14.3114 -20.2749 
4.73792 14.3114 -17.1339 13.0559 14.3114 -17.0854 -45.1698 22.6294 -16.6585 
-36.8519 22.6294 -17.9432 -28.5339 22.6294 -18.8385 -20.2159 22.6294 -19.1329 
-11.898 22.6294 -19.1291 -3.58004 22.6294 -18.1447 4.73792 22.6294 -16.8433 
-28.5339 30.9473 -17.3902 -20.2159 30.9473 -17.5096 -11.898 30.9473 -17.6467 
-3.58004 30.9473 -17.4837 4.73792 30.9473 -16.6716 -3.58004 -45.6088 -16.2113 
4.73792 -47.7653 -16.2113 4.73792 -52.2322 -9.02738 13.0559 -47.0931 -16.2113 
-28.5339 -37.19 -16.2113 -28.5339 -43.9142 -9.21298 -20.2159 -40.5068 -16.2113 
-20.2159 -43.9142 -13.7612 -9.47196 -43.9142 -16.2113 -11.898 -42.8127 -16.2113 
-11.898 -43.9142 -15.6571 20.4354 -43.9142 -16.2113 21.3738 -43.2624 -16.2113 
21.3738 -43.9142 -15.4881 -30.4706 -35.5963 -16.2113 -36.8519 -28.6323 -16.2113 
-36.8519 -35.5963 -11.0318 28.1544 -35.5963 -16.2113 29.6918 -33.3754 -16.2113 
29.6918 -35.5963 -14.8514 -37.8357 -27.2783 -16.2113 -45.1698 -27.2783 -9.5585 
33.1823 -27.2783 -16.2113 38.0097 -27.2783 -11.678 -42.4425 -18.9604 -16.2113 
-45.1698 -14.8044 -16.2113 -45.1698 -18.9604 -15.0232 35.7797 -18.9604 -16.2113 
38.0097 -18.9604 -14.8343 -47.8098 -10.6424 -16.2113 -53.4878 -10.6424 -12.9146 
35.8924 -10.6424 -16.2113 38.0097 -10.6424 -15.4476 46.3277 -10.6424 -10.1625 
-51.3431 -2.32447 -16.2113 -53.4878 -2.32447 -15.1607 33.1011 -2.32447 -16.2113 
29.6918 2.97838 -16.2113 38.0097 -2.32447 -15.1483 46.3277 -2.32447 -11.536 
-51.3334 5.99348 -16.2113 -53.4878 5.99348 -15.2431 25.6926 5.99348 -16.2113 
21.3738 9.36787 -16.2113 29.6918 5.99348 -15.8076 38.0097 5.99348 -14.3011 
46.3277 5.99348 -11.6253 -47.4674 14.3114 -16.2113 -53.4878 14.3114 -13.4217 
17.8626 14.3114 -16.2113 13.0559 21.8457 -16.2113 21.3738 14.3114 -15.5735 
29.6918 14.3114 -14.4963 38.0097 14.3114 -13.2503 46.3277 14.3114 -10.596 
-46.0101 22.6294 -16.2113 -53.4878 22.6294 -10.5937 -45.1698 23.8342 -16.2113 
-36.8519 28.5309 -16.2113 12.0227 22.6294 -16.2113 13.0559 22.6294 -16.1205 
21.3738 22.6294 -14.5001 29.6918 22.6294 -12.9892 38.0097 22.6294 -11.3983 
46.3277 22.6294 -8.92849 -45.1698 30.9473 -12.9358 -33.7129 30.9473 -16.2113 
-36.8519 30.9473 -15.4104 -28.5339 34.2464 -16.2113 -20.2159 34.1863 -16.2113 
-11.898 34.9142 -16.2113 -3.58004 34.6843 -16.2113 6.82501 30.9473 -16.2113 
4.73792 32.128 -16.2113 13.0559 30.9473 -14.869 21.3738 30.9473 -12.7178 
29.6918 30.9473 -10.2087 38.0097 30.9473 -8.37176 -36.8519 39.2653 -11.1142 
-28.5339 39.2653 -13.6271 -20.2159 39.2653 -13.8347 -11.898 39.2653 -14.2073 
-3.58004 39.2653 -14.1066 4.73792 39.2653 -12.7749 13.0559 39.2653 -10.138 
4.73792 -52.673 -7.89339 -28.5339 -44.6186 -7.89339 -20.2159 -48.1807 -7.89339 
-11.898 -50.2432 -7.89339 -0.411578 -52.2322 -7.89339 -3.58004 -51.946 -7.89339 
8.27704 -52.2322 -7.89339 4.73792 -52.2322 -4.02543 13.0559 -51.5862 -7.89339 
21.3738 -47.3666 -7.89339 -29.6244 -43.9142 -7.89339 -36.8519 -37.8809 -7.89339 
-28.5339 -43.9142 -0.595987 26.3893 -43.9142 -7.89339 29.6918 -41.1168 -7.89339 
-39.2469 -35.5963 -7.89339 -45.1698 -28.8995 -7.89339 34.9257 -35.5963 -7.89339 
38.0097 -31.5416 -7.89339 -46.4941 -27.2783 -7.89339 40.9874 -27.2783 -7.89339 
-52.9387 -18.9604 -7.89339 -53.4878 -18.0082 -7.89339 -53.4878 -18.9604 -5.03947 
45.4298 -18.9604 -7.89339 46.3277 -16.777 -7.89339 46.3277 -18.9604 -6.34679 
-57.4096 -10.6424 -7.89339 48.8844 -10.6424 -7.89339 54.6456 -10.6424 0.251021 
-59.8928 -2.32447 -7.89339 51.5265 -2.32447 -7.89339 54.6456 -2.32447 -4.84978 
-60.0056 5.99348 -7.89339 -61.8057 5.99348 -0.193707 53.2354 5.99348 -7.89339 
54.6456 5.99348 -6.88608 -58.8462 14.3114 -7.89339 51.4271 14.3114 -7.89339 
54.6456 14.3114 -5.96731 -56.3777 22.6294 -7.89339 -53.4878 26.9578 -7.89339 
49.4179 22.6294 -7.89339 46.3277 24.6722 -7.89339 54.6456 22.6294 -4.68996 
-50.9713 30.9473 -7.89339 -53.4878 30.9473 0.256141 -45.1698 36.9936 -7.89339 
21.3738 38.123 -7.89339 29.6918 34.603 -7.89339 39.0621 30.9473 -7.89339 
38.0097 31.8816 -7.89339 46.3277 30.9473 -3.71489 54.6456 30.9473 0.186422 
-41.749 39.2653 -7.89339 -45.1698 39.2653 -0.392494 -36.8519 41.964 -7.89339 
-28.5339 44.6147 -7.89339 -20.2159 45.2314 -7.89339 -11.898 45.2253 -7.89339 
-3.58004 44.715 -7.89339 4.73792 43.3157 -7.89339 18.847 39.2653 -7.89339 
13.0559 41.1051 -7.89339 21.3738 39.2653 -6.37685 29.6918 39.2653 -3.18538 
38.0097 39.2653 -0.862237 -20.2159 -47.5089 0.424559 -11.898 -49.75 0.424559 
-3.58004 -51.2371 0.424559 4.73792 -51.609 0.424559 13.0559 -50.15 0.424559 
21.3738 -46.6999 0.424559 -36.8519 -37.8744 0.424559 -28.2865 -43.9142 0.424559 
-28.5339 -43.7983 0.424559 -20.2159 -43.9142 5.64268 -11.898 -43.9142 8.23861 
25.9138 -43.9142 0.424559 21.3738 -43.9142 5.93884 29.6918 -41.6067 0.424559 
-39.3912 -35.5963 0.424559 -45.1698 -29.9487 0.424559 -36.8519 -35.5963 3.5146 
36.9431 -35.5963 0.424559 38.0097 -34.4842 0.424559 -47.5364 -27.2783 0.424559 
-53.4878 -20.3058 0.424559 -45.1698 -27.2783 3.96986 44.1256 -27.2783 0.424559 
46.3277 -24.1002 0.424559 -54.4931 -18.9604 0.424559 -53.4878 -18.9604 2.24617 
49.8249 -18.9604 0.424559 54.6456 -10.8243 0.424559 -59.2032 -10.6424 0.424559 
54.7431 -10.6424 0.424559 -61.4375 -2.32447 0.424559 -61.8057 3.71701 0.424559 
58.6833 -2.32447 0.424559 -61.9403 5.99348 0.424559 -61.8057 7.14224 0.424559 
-61.8057 5.99348 0.710079 61.2088 5.99348 0.424559 -60.9218 14.3114 0.424559 
61.5798 14.3114 0.424559 62.9636 14.3114 6.82191 -58.1399 22.6294 0.424559 
58.9646 22.6294 0.424559 -53.5362 30.9473 0.424559 -53.4878 31.0184 0.424559 
-53.4878 30.9473 0.515643 46.3277 36.1588 0.424559 54.8341 30.9473 0.424559 
54.6456 31.1344 0.424559 -45.4847 39.2653 0.424559 -45.1698 39.5055 0.424559 
-45.1698 39.2653 0.85919 -36.8519 43.8852 0.424559 -28.5339 46.3275 0.424559 
-20.2159 47.3001 0.424559 -11.898 46.8063 0.424559 -3.58004 45.5059 0.424559 
4.73792 44.0591 0.424559 13.0559 42.65 0.424559 13.0559 39.2653 8.69882 
21.3738 42.4433 0.424559 29.6918 41.1764 0.424559 40.188 39.2653 0.424559 
38.0097 39.9385 0.424559 -3.58004 -44.5352 8.74251 4.73792 -44.5653 8.74251 
13.0559 -44.7573 8.74251 -28.5339 -37.689 8.74251 -20.2159 -41.0787 8.74251 
-8.59344 -43.9142 8.74251 -11.898 -43.3404 8.74251 -3.58004 -43.9142 9.31787 
4.73792 -43.9142 9.40842 16.1632 -43.9142 8.74251 13.0559 -43.9142 9.71941 
21.3738 -42.5119 8.74251 29.6918 -39.0909 8.74251 -31.4577 -35.5963 8.74251 
-36.8519 -30.6278 8.74251 -28.5339 -35.5963 10.472 -20.2159 -35.5963 12.5717 
-11.898 -35.5963 13.4874 -3.58004 -35.5963 14.1316 4.73792 -35.5963 15.0536 
13.0559 -35.5963 16.3639 21.3738 -35.5963 16.6076 34.5812 -35.5963 8.74251 
29.6918 -35.5963 13.344 38.0097 -32.5139 8.74251 -40.5162 -27.2783 8.74251 
-45.1698 -23.1207 8.74251 -36.8519 -27.2783 11.0468 -28.5339 -27.2783 14.0838 
-20.2159 -27.2783 15.9178 -11.898 -27.2783 16.3613 -3.58004 -27.2783 16.3238 
42.8269 -27.2783 8.74251 38.0097 -27.2783 13.9718 46.3277 -22.8001 8.74251 
-48.8106 -18.9604 8.74251 -53.4878 -12.8296 8.74251 -45.1698 -18.9604 11.5585 
-36.8519 -18.9604 14.4511 -28.5339 -18.9604 16.1604 49.0985 -18.9604 8.74251 
46.3277 -18.9604 12.7477 54.6456 -11.0135 8.74251 -54.7575 -10.6424 8.74251 
-53.4878 -10.6424 9.99538 -45.1698 -10.6424 13.8994 -36.8519 -10.6424 16.9008 
-28.5339 -10.6424 16.9907 54.8901 -10.6424 8.74251 54.6456 -10.6424 9.18876 
-57.1795 -2.32447 8.74251 -53.4878 -2.32447 12.1039 -45.1698 -2.32447 15.58 
59.839 -2.32447 8.74251 54.6456 -2.32447 16.4704 -57.5425 5.99348 8.74251 
-53.4878 5.99348 12.518 -45.1698 5.99348 15.9416 62.6618 5.99348 8.74251 
62.9636 10.0022 8.74251 -56.4018 14.3114 8.74251 -53.4878 14.3114 11.3984 
-45.1698 14.3114 15.2482 63.2775 14.3114 8.74251 62.9636 16.0665 8.74251 
62.9636 14.3114 9.40977 -53.7542 22.6294 8.74251 -53.4878 23.0326 8.74251 
-53.4878 22.6294 8.96682 -45.1698 22.6294 14.3696 -36.8519 22.6294 16.8401 
61.6192 22.6294 8.74251 -48.3505 30.9473 8.74251 -45.1698 34.3001 8.74251 
-45.1698 30.9473 11.2875 -36.8519 30.9473 14.3753 -3.58004 30.9473 16.6998 
4.73792 30.9473 15.2029 13.0559 39.2409 8.74251 13.0559 30.9473 15.6837 
46.3277 37.7155 8.74251 56.4015 30.9473 8.74251 54.6456 32.6194 8.74251 
54.6456 30.9473 11.8377 -38.7283 39.2653 8.74251 -36.8519 40.3875 8.74251 
-36.8519 39.2653 9.95827 -28.5339 43.0337 8.74251 -28.5339 39.2653 12.6166 
[...]
POINT_DATA 514
SCALARS ImageScalars float
LOOKUP_TABLE default
0 0 0 0 0 0 0 0 0 
0 0 0 0 0 0 0 0 0 
0 0 0 0 0 0 0 0 0 
0 0 0 0 0 0 0 0 0 
0 0 0 0 0 0 0 0 0 
0 0 0 0 0 0 0 0 0 
0 0 0 0 0 0 0 0 0 
0 0 0 0 0 0 0 0 0 
0 0 0 0 0 0 0 0 0 
0 0 0 0 0 0 0 0 0 
0 0 0 0 0 0 0 0 0 
0 0 0 0 0 0 0 0 0 
0 0 0 0 0 0 0 0 0 
0 0 0 0 0 0 0 0 0 
0 0 0 0 0 0 0 0 0 
0 0 0 0 0 0 0 0 0 
0 0 0 0 0 0 0 0 0 
0 0 0 0 0 0 0 0 0 
0 0 0 0 0 0 0 0 0 
0 0 0 0 0 0 0 0 0 
0 0 0 0 0 0 0 0 0 
0 0 0 0 0 0 0 0 0 
0 0 0 0 0 0 0 0 0 
0 0 0 0 0 0 0 0 0 
0 0 0 0 0 0 0 0 0 
0 0 0 0 0 0 0 0 0 
0 0 0 0 0 0 0 0 0 
0 0 0 0 0 0 0 0 0 
0 0 0 0 0 0 0 0 0 
0 0 0 0 0 0 0 0 0 
0 0 0 0 0 0 0 0 0 
0 0 0 0 0 0 0 0 0 
0 0 0 0 0 0 0 0 0 
0 0 0 0 0 0 0 0 0 
0 0 0 0 0 0 0 0 0 
0 0 0 0 0 0 0 0 0 
0 0 0 0 0 0 0 0 0 
0 0 0 0 0 0 0 0 0 
0 0 0 0 0 0 0 0 0 
0 0 0 0 0 0 0 0 0 
0 0 0 0 0 0 0 0 0 
0 0 0 0 0 0 0 0 0 
0 0 0 0 0 0 0 0 0 
0 0 0 0 0 0 0 0 0 
0 0 0 0 0 0 0 0 0 
0 0 0 0 0 0 0 0 0 
0 0 0 0 0 0 0 0 0 
0 0 0 0 0 0 0 0 0 
0 0 0 0 0 0 0 0 0 
0 0 0 0 0 0 0 0 0 
0 0 0 0 0 0 0 0 0 
0 0 0 0 0 0 0 0 0 
0 0 0 0 0 0 0 0 0 
0 0 0 0 0 0 0 0 0 
0 0 0 0 0 0 0 0 0 
0 0 0 0 0 0 0 0 0 
0 0 0 0 0 0 0 0 0 
0 
NORMALS Normals float
0.150978 0.428525 0.890827 0.0709173 0.363646 0.928834 -0.123399 0.496061 0.859474 
0.305841 0.406712 0.860841 0.109407 0.350647 0.930095 0.063365 0.259173 0.96375 
0.0480777 0.110185 0.992748 0.0946238 0.0746166 0.992713 -0.00361674 0.167417 0.98588 
-0.314143 0.242102 0.917987 0.449132 0.301269 0.84114 0.213774 0.181749 0.959827 
0.0588536 0.158917 0.985536 -0.113472 0.114647 0.986904 -0.058441 -0.0604319 0.99646 
0.128191 -0.0672093 0.98947 0.0647548 -0.0917781 0.993672 -0.159747 0.0414812 0.986286 
-0.414614 0.181592 0.891695 0.289954 0.150536 0.945127 0.180335 0.0658369 0.981399 
0.045938 0.0174263 0.998792 -0.165483 0.0738997 0.98344 -0.135898 0.0838025 0.987172 
0.0791422 -0.0478343 0.995715 0.0996996 -0.138914 0.985273 -0.0610053 -0.0922084 0.993869 
-0.283926 -0.00826797 0.958811 0.340362 0.198002 0.919211 0.186124 0.109076 0.976453 
0.0893534 0.0183741 0.99583 0.0679867 -0.0180687 0.997523 -0.0231847 0.0698705 0.997287 
-0.177844 0.0989765 0.979069 -0.100437 0.0806418 0.99167 0.0135966 -0.0899611 0.995852 
-0.0355385 -0.157597 0.986864 -0.209012 -0.123349 0.970102 0.292757 0.0665998 0.953865 
0.124985 0.0294406 0.991722 0.0588788 -0.0273096 0.997891 0.0989537 0.00678094 0.995069 
-0.0446319 0.136727 0.989603 -0.142612 0.0545968 0.988272 -0.102355 0.00808122 0.994715 
-0.133925 0.00893291 0.990951 -0.0931433 -0.153642 0.983727 -0.150617 -0.144967 0.977905 
0.294706 -0.0772104 0.952463 0.087977 -0.0768313 0.993155 0.0643517 -0.0725587 0.995286 
0.238235 -0.0607383 0.969306 0.0367189 0.00796468 0.999294 -0.326177 0.0120761 0.945232 
-0.133464 -0.166777 0.97692 -0.160343 -0.0902162 0.98293 -0.184879 -0.12776 0.974421 
0.282815 -0.115353 0.952213 0.126099 -0.138602 0.982287 0.0731801 -0.0911472 0.993145 
0.155913 -0.13238 0.97886 0.0284695 -0.321141 0.946603 -0.313967 -0.216295 0.924468 
-0.150844 -0.143508 0.978086 -0.0924402 -0.170627 0.98099 0.355448 -0.216581 0.909258 
0.132575 -0.193753 0.972051 0.0754644 -0.126735 0.989062 0.0170744 -0.155464 0.987694 
-0.0573592 -0.252844 0.965805 -0.138066 -0.144252 0.979862 -0.117558 -0.0265986 0.99271 
0.11387 -0.261639 0.958425 0.0157236 -0.273614 0.961711 -0.00237945 -0.248496 0.96863 
-0.0545297 -0.205398 0.977158 -0.159621 -0.194431 0.967842 0.169843 0.504408 0.846596 
0.0532667 0.592792 0.803592 -0.0124695 0.979067 0.203155 -0.191704 0.652723 0.73294 
0.325741 0.466654 0.822269 0.484245 0.828753 0.280489 0.161763 0.517576 0.840207 
0.244153 0.715465 0.654598 0.168574 0.507947 0.844732 0.155524 0.506649 0.848009 
0.176616 0.565309 0.80575 -0.432783 0.630234 0.644596 -0.459156 0.613843 0.642163 
-0.477045 0.663215 0.576692 0.365858 0.438328 0.820985 0.470318 0.341566 0.813716 
0.636034 0.634144 0.439683 -0.546894 0.415676 0.726719 -0.549746 0.380786 0.743493 
-0.613372 0.478792 0.628119 0.464394 0.322833 0.824692 0.690894 0.587028 0.421976 
-0.523742 0.251333 0.813957 -0.720891 0.383853 0.577038 0.405762 0.252895 0.878294 
0.400538 0.253124 0.880623 0.484712 0.322312 0.813123 -0.491514 0.0922595 0.865969 
-0.579098 0.152427 0.800882 0.396596 0.237985 0.886609 0.632492 0.340694 0.695616 
-0.364623 -0.0314823 0.930623 -0.421598 0.0110857 0.906715 -0.634912 0.204204 0.745109 
0.410078 0.0830016 0.908266 0.489492 0.0977996 0.866506 -0.209396 -0.114268 0.971131 
-0.141482 -0.146672 0.979015 -0.29931 -0.0654617 0.951908 -0.487595 0.0702347 0.87024 
0.410056 -0.0892586 0.907682 0.482526 -0.086919 0.871558 -0.159107 -0.138001 0.977569 
-0.173173 -0.126539 0.976729 -0.13646 -0.147157 0.979655 -0.234521 -0.113584 0.965452 
-0.377702 -0.0520804 0.924461 0.342181 -0.136943 0.929601 0.580329 -0.240486 0.778065 
-0.129778 -0.143479 0.981107 -0.133236 -0.132178 0.982231 -0.15529 -0.12582 0.979824 
-0.137388 -0.159944 0.977518 -0.215299 -0.155435 0.964099 -0.384036 -0.153276 0.910507 
0.386079 -0.221875 0.895385 0.669388 -0.361765 0.648881 0.359602 -0.242727 0.900983 
0.208465 -0.294191 0.932735 -0.135008 -0.116003 0.984031 -0.137636 -0.128523 0.982109 
-0.182915 -0.163301 0.969471 -0.172288 -0.232469 0.957223 -0.240356 -0.290572 0.926173 
-0.297769 -0.321643 0.898821 0.435104 -0.451218 0.779157 0.195868 -0.30565 0.93178 
0.247414 -0.344057 0.905765 0.114421 -0.366353 0.923414 0.0150171 -0.370255 0.928809 
0.0120511 -0.383599 0.923421 -0.0612858 -0.33791 0.939181 -0.177962 -0.216219 0.959989 
-0.166827 -0.248256 0.954221 -0.224173 -0.285409 0.93182 -0.253639 -0.365641 0.89553 
-0.248304 -0.427796 0.869101 -0.298426 -0.398925 0.867064 0.330956 -0.687844 0.646018 
0.12659 -0.591221 0.796513 0.0288706 -0.584763 0.81069 0.0147597 -0.585205 0.810751 
-0.0695601 -0.57886 0.812455 -0.20262 -0.670372 0.713826 -0.286274 -0.741137 0.607259 
-0.0194106 0.990867 0.133439 0.48985 0.848437 0.200502 0.321206 0.914913 0.244461 
0.219495 0.943009 0.250111 0.0773224 0.982594 0.16891 0.139424 0.971041 0.194009 
-0.124162 0.984569 0.123319 -0.0355746 0.993521 -0.107936 -0.274186 0.955329 0.110309 
-0.518538 0.844626 0.133136 0.515642 0.832161 0.204011 0.663701 0.705759 0.247801 
0.458812 0.85256 -0.250268 -0.602663 0.780608 0.165679 -0.664885 0.710714 0.229812 
0.68647 0.678824 0.260685 0.716534 0.620173 0.319317 -0.718231 0.617741 0.320221 
-0.755081 0.533809 0.380659 0.72135 0.615173 0.318144 -0.779085 0.453855 0.432483 
0.765511 0.511516 0.390313 0.774072 0.499285 0.389266 0.809543 0.549195 0.207425 
-0.742227 0.35826 0.566348 -0.729568 0.333409 0.597134 -0.773958 0.401521 0.489664 
0.850114 0.358934 0.385322 -0.695546 0.253381 0.67232 -0.857167 0.439828 0.267986 
0.918229 0.149371 0.366802 -0.626241 0.164422 0.762094 -0.749782 0.246295 0.614138 
0.913948 -0.0574208 0.401749 0.995143 -0.0307058 -0.0935282 -0.564253 0.0123814 0.825509 
-0.627681 0.0368211 0.777599 0.872337 -0.185821 0.452215 -0.500529 -0.0947726 0.860517 
-0.598926 -0.0838784 0.796399 0.775435 -0.392097 0.494935 0.746742 -0.46398 0.476549 
-0.393354 -0.29827 0.869659 -0.309764 -0.375775 0.873407 -0.632794 -0.276442 0.723292 
0.725712 -0.513527 0.457856 0.826606 -0.554964 -0.0934694 0.547772 -0.708381 0.445132 
-0.264112 -0.698198 0.665405 -0.221748 -0.563903 0.795513 -0.310003 -0.412561 0.856558 
-0.298928 -0.433839 0.849957 -0.419183 -0.579583 0.698834 -0.639848 -0.622847 0.450174 
0.465567 -0.769369 0.4374 0.574785 -0.816175 -0.0589998 0.349723 -0.8216 0.450186 
0.193853 -0.846605 0.495662 0.0316024 -0.863082 0.504075 -0.0303551 -0.890703 0.453571 
-0.114202 -0.914659 0.387759 -0.213151 -0.897635 0.385769 -0.266916 -0.758469 0.594543 
-0.271577 -0.844516 0.461561 -0.233402 -0.802113 0.54967 -0.176084 -0.876445 0.448151 
-0.246948 -0.904161 0.348582 0.318449 0.898804 -0.301233 0.195262 0.935001 -0.29605 
0.0963918 0.926564 -0.363578 -0.0531855 0.916058 -0.397504 -0.2495 0.89976 -0.358026 
-0.424936 0.872413 -0.241505 0.619925 0.743195 -0.251702 0.442462 0.84073 -0.312089 
0.446884 0.838764 -0.311078 0.284689 0.758981 -0.585576 0.145285 0.65622 -0.740451 
-0.497691 0.846844 -0.187508 -0.342861 0.851152 -0.397476 -0.567605 0.815794 -0.110929 
0.651774 0.719632 -0.239415 0.715285 0.671936 -0.192014 0.595971 0.683547 -0.421405 
-0.701006 0.71315 -0.0028624 -0.722145 0.691624 0.0127358 0.733255 0.656232 -0.178038 
0.798017 0.583593 -0.150293 0.664643 0.632029 -0.398484 -0.802777 0.590144 0.0853175 
-0.82096 0.557945 0.121333 0.814375 0.559908 -0.152632 0.790309 0.56232 -0.243326 
-0.837525 0.523377 0.156936 -0.857981 0.444269 0.257865 0.914847 0.379836 -0.137036 
-0.858106 0.442672 0.260185 0.979195 0.149634 -0.137064 0.991444 0.0182068 -0.129255 
-0.870263 0.333129 0.362859 0.99161 -0.0291889 -0.125925 0.9906 -0.0550964 -0.125201 
0.989761 -0.0290936 -0.139741 -0.89815 0.161083 0.409121 0.967853 -0.222255 -0.117739 
-0.883174 -0.0875274 0.460806 -0.997958 -0.0591428 -0.0241322 0.916437 -0.386208 -0.104822 
-0.786756 -0.3636 0.498809 0.825822 -0.554515 -0.10262 0.824718 -0.556168 -0.102553 
0.825314 -0.55436 -0.107435 -0.470473 -0.763368 0.442633 -0.648991 -0.62222 0.437783 
-0.642619 -0.629398 0.436919 0.579144 -0.808679 -0.103107 0.572113 -0.813706 -0.102806 
0.573325 -0.809609 -0.125824 0.356427 -0.931028 -0.0783958 0.18694 -0.980093 -0.0668674 
0.0311006 -0.998004 -0.0549623 -0.105641 -0.991464 -0.0764083 -0.159622 -0.976709 -0.143392 
-0.177522 -0.964796 -0.19405 -0.090478 -0.99143 -0.094237 0.0649631 -0.824791 -0.561693 
-0.0895028 -0.991468 0.0947639 -0.154394 -0.967114 0.202121 -0.301066 -0.906371 0.296398 
-0.236736 -0.933198 0.270365 0.0455634 0.662811 -0.747399 0.0110684 0.701058 -0.713019 
-0.103279 0.778825 -0.61868 0.368322 0.603963 -0.706801 0.225952 0.626579 -0.745885 
0.103738 0.644398 -0.757621 0.137056 0.627163 -0.766735 0.0516466 0.643098 -0.764041 
0.0181019 0.686372 -0.727025 -0.175297 0.802111 -0.570866 -0.0874679 0.760907 -0.642938 
-0.283959 0.822249 -0.493229 -0.447687 0.791484 -0.416088 0.420183 0.569274 -0.706664 
0.465793 0.53438 -0.705318 0.355763 0.538001 -0.76419 0.158292 0.485891 -0.859566 
0.0825837 0.42091 -0.903335 0.085273 0.373745 -0.923603 0.117193 0.417457 -0.901108 
0.0824946 0.479916 -0.873427 -0.120597 0.507126 -0.853393 -0.574622 0.731043 -0.367947 
-0.408093 0.678506 -0.610811 -0.655569 0.669201 -0.349856 0.48492 0.529529 -0.696025 
0.537107 0.505077 -0.675583 0.414121 0.47088 -0.778958 0.255162 0.308748 -0.916279 
0.12518 0.26244 -0.956794 0.0235214 0.236408 -0.971369 0.0857807 0.17403 -0.980997 
-0.724034 0.60099 -0.338506 -0.569534 0.519412 -0.637058 -0.757828 0.579671 -0.299464 
0.601911 0.474634 -0.642203 0.663664 0.404049 -0.629519 0.458816 0.411383 -0.787561 
0.243656 0.298016 -0.92294 0.169749 0.16208 -0.972068 -0.774452 0.564101 -0.28638 
-0.678494 0.518071 -0.520815 -0.806043 0.548597 -0.222116 0.683016 0.358357 -0.636451 
0.629894 0.346806 -0.694952 0.368319 0.221319 -0.902972 0.169598 0.15136 -0.973821 
0.0328143 0.0735598 -0.996751 -0.807496 0.547476 -0.21959 -0.801232 0.546306 -0.244085 
0.7561 0.146636 -0.637817 0.570732 0.135409 -0.809895 0.280628 0.115424 -0.952851 
-0.891072 0.415447 -0.182743 -0.611787 0.369313 -0.699517 0.770268 -0.0381011 -0.636581 
0.567378 -0.0376332 -0.822597 0.280389 -0.0190105 -0.959698 -0.971614 0.210861 -0.107256 
-0.988504 0.0788925 -0.12898 0.727491 -0.174287 -0.663612 0.598013 -0.185174 -0.779802 
0.333392 -0.0838405 -0.939053 -0.987697 -0.0525979 -0.147271 -0.981385 -0.115415 -0.153505 
-0.981276 -0.0589189 -0.183375 0.634771 -0.369804 -0.678462 0.631894 -0.37617 -0.677647 
0.625354 -0.367577 -0.688345 0.404429 -0.215991 -0.888698 0.207046 -0.175813 -0.962404 
-0.911107 -0.384414 -0.148696 0.602116 -0.468326 -0.646627 0.529317 -0.555444 -0.641331 
0.483234 -0.438283 -0.757887 0.307994 -0.345179 -0.886561 -0.172643 -0.34222 -0.923623 
-0.0560072 -0.431803 -0.900227 0.0658002 -0.82275 -0.564582 0.120389 -0.4855 -0.865908 
-0.395968 -0.900399 -0.180253 -0.720022 -0.681664 -0.13001 -0.649433 -0.744399 -0.155263 
-0.637966 -0.709987 -0.298191 0.410398 -0.691544 -0.594425 0.36776 -0.721759 -0.586359 
0.368409 -0.668332 -0.646226 0.205965 -0.771648 -0.601778 0.187771 -0.619034 -0.762587 
0.0282193 -0.825238 -0.564079 0.0471063 -0.626901 -0.777673 -0.122776 -0.827376 -0.548064 
-0.11078 -0.64674 -0.754623 -0.216601 -0.774937 -0.593764 -0.21555 -0.68958 -0.691388 
0.0458047 -0.818583 -0.572559 -0.125858 -0.763603 -0.633301 -0.124361 -0.758102 -0.640168 
0.0657567 -0.824081 -0.562642 0.0631076 -0.888443 -0.454629 0.0887053 -0.83733 -0.539454 
-0.0338891 -0.94903 -0.313357 -0.0100809 -0.911484 -0.411211 -0.237229 -0.942558 -0.235172 
-0.151296 -0.955647 -0.252681 -0.144038 -0.93041 -0.337033 0.170191 0.252837 -0.952422 
0.0926393 0.424046 -0.90089 -0.108688 0.460243 -0.881115 -0.301983 0.440479 -0.845449 
0.101722 0.126513 -0.986736 0.00950329 0.205458 -0.97862 0.137509 0.181917 -0.973652 
0.0518062 0.181145 -0.982091 0.19164 0.192626 -0.962377 0.104943 0.21613 -0.970708 
-0.0624941 0.216359 -0.974312 -0.357966 0.392387 -0.847285 -0.259601 0.330734 -0.907316 
-0.39691 0.359145 -0.844676 0.115295 0.108189 -0.987422 0.0971182 0.0905817 -0.991142 
-0.00583645 0.178656 -0.983894 0.0419066 0.18495 -0.981854 0.179599 0.0564712 -0.982118 
0.115053 0.00398878 -0.993351 0.00083201 0.0461633 -0.998934 -0.130301 0.133445 -0.982453 
-0.41632 0.351885 -0.838364 -0.325057 0.293166 -0.899106 -0.457489 0.387856 -0.80017 
0.133031 0.0784042 -0.988006 0.0480851 0.0602417 -0.997025 0.0267799 0.0695035 -0.997222 
0.138091 -0.0156589 -0.990296 0.135013 0.111975 -0.984496 -0.0413459 0.186387 -0.981606 
0.0140283 0.0277813 -0.999516 0.0939297 0.0776498 -0.992546 0.0733739 0.0631645 -0.995302 
0.00237146 0.124352 -0.992235 -0.165179 0.234185 -0.958057 -0.462681 0.388422 -0.796903 
-0.425534 0.370963 -0.825413 0.120625 0.040364 -0.991877 0.111853 0.0371795 -0.993029 
-0.00243062 0.0495264 -0.99877 0.107641 0.00439044 -0.99418 0.221387 -0.0526058 -0.973766 
-0.0425841 -0.00452513 -0.999083 0.0869999 0.139655 -0.986371 0.142535 0.162855 -0.9763 
0.0392884 0.110221 -0.99313 0.0288015 0.101629 -0.994405 -0.0880789 0.148629 -0.984963 
-0.564498 0.350671 -0.747243 -0.286464 0.226845 -0.930849 -0.582444 0.330116 -0.742821 
0.161924 0.00618005 -0.986784 0.113399 0.0157374 -0.993425 2.72646e-05 0.0448285 -0.998995 
0.0444002 0.0838038 -0.995493 0.132524 -0.0431494 -0.99024 0.137424 -0.0894501 -0.986465 
0.183076 0.0545754 -0.981583 0.056217 -0.033416 -0.997859 0.0180613 -0.00249814 -0.999834 
0.0475471 0.0290035 -0.998448 -0.0312757 0.0327765 -0.998973 -0.175863 0.0707953 -0.981866 
-0.675101 0.159249 -0.720332 -0.462518 0.126778 -0.877499 0.192438 -0.0417172 -0.980422 
0.191307 -0.121631 -0.973965 0.16765 -0.0371636 -0.985146 0.0654387 0.0226633 -0.997599 
0.0407045 0.0915012 -0.994973 0.0139004 0.0301495 -0.999449 0.0703785 -0.0707744 -0.995006 
0.141495 -0.193715 -0.970801 0.089798 -0.199301 -0.975815 0.10029 -0.0932206 -0.990582 
0.063863 -0.0935602 -0.993563 -0.0466036 -0.0758854 -0.996027 -0.198829 -0.0451675 -0.978993 
-0.60127 -0.0858583 -0.79442 -0.470274 -0.0810064 -0.878795 0.193567 -0.156728 -0.968488 
0.127423 -0.0636969 -0.989801 0.0563793 -0.0410606 -0.997565 -0.0374772 -0.0380248 -0.998574 
-0.154551 -0.294839 -0.942966 -0.0800458 -0.116494 -0.989961 0.0094642 -0.308629 -0.951135 
0.0370238 -0.267053 -0.96297 0.13638 -0.402908 -0.905023 0.15859 -0.292213 -0.943112 
0.123532 -0.230569 -0.965183 0.0595599 -0.206714 -0.976587 0.0149003 -0.177278 -0.984048 
-0.22064 -0.242487 -0.944732 -0.584614 -0.24865 -0.772269 -0.547855 -0.396013 -0.736905 
-0.506184 -0.221558 -0.833481 0.189141 -0.265299 -0.945432 0.186822 -0.268158 -0.945087 
0.186667 -0.263993 -0.946289 0.0609503 -0.321962 -0.944788 0.0645417 -0.259819 -0.963498 
-0.147273 -0.324576 -0.934324 -0.0736249 -0.369993 -0.926113 -0.057141 -0.270624 -0.960988 
0.187407 -0.459923 -0.867957 0.202347 -0.475522 -0.856116 0.203291 -0.454846 -0.867057 
0.0720312 -0.586051 -0.807066 0.0980083 -0.407854 -0.907772 -0.0814531 -0.607939 -0.789795 
-0.0680528 -0.510242 -0.857334 -0.353612 -0.589748 -0.726055 -0.282565 -0.59165 -0.755054 
-0.239674 -0.506909 -0.828009 
