# vtk DataFile Version 4.2
vtk output
ASCII
DATASET POLYDATA
POINTS 496 float
-18.855 19.9599 -25.8282 -18.855 -37.2408 -19.7798 -10.6835 -37.2408 -20.4702 
-2.51194 -37.2408 -20.1863 5.65958 -37.2408 -18.7796 -35.198 -29.0692 -19.6381 
-27.0265 -29.0692 -22.4342 -18.855 -29.0692 -23.3482 -10.6835 -29.0692 -23.9265 
-2.51194 -29.0692 -23.8795 5.65958 -29.0692 -22.9722 13.8311 -29.0692 -21.6041 
22.0026 -29.0692 -20.2297 30.1741 -29.0692 -18.438 -43.3696 -20.8977 -18.1138 
-35.198 -20.8977 -22.7251 -27.0265 -20.8977 -24.3302 -18.855 -20.8977 -24.5402 
-10.6835 -20.8977 -24.7254 -2.51194 -20.8977 -24.4883 5.65958 -20.8977 -23.9876 
13.8311 -20.8977 -23.2081 22.0026 -20.8977 -22.4617 30.1741 -20.8977 -21.3742 
38.3457 -20.8977 -19.2367 -43.3696 -12.7262 -21.013 -35.198 -12.7262 -24.6023 
-27.0265 -12.7262 -25.648 -18.855 -12.7262 -24.9819 -10.6835 -12.7262 -24.5406 
-2.51194 -12.7262 -24.6046 5.65958 -12.7262 -24.4263 13.8311 -12.7262 -23.6394 
22.0026 -12.7262 -23.2225 30.1741 -12.7262 -22.8259 38.3457 -12.7262 -21.6159 
-43.3696 -4.55467 -22.3922 -35.198 -4.55467 -24.7334 -27.0265 -4.55467 -25.3626 
-18.855 -4.55467 -24.9076 -10.6835 -4.55467 -25.126 -2.51194 -4.55467 -25.693 
5.65958 -4.55467 -25.2544 13.8311 -4.55467 -23.9661 22.0026 -4.55467 -23.5145 
30.1741 -4.55467 -23.3499 38.3457 -4.55467 -22.1889 46.5172 -4.55467 -18.619 
-43.3696 3.61685 -22.832 -35.198 3.61685 -24.8879 -27.0265 3.61685 -25.31 
-18.855 3.61685 -24.6388 -10.6835 3.61685 -24.3319 -2.51194 3.61685 -24.9793 
5.65958 3.61685 -24.9886 13.8311 3.61685 -24.29 22.0026 3.61685 -23.8601 
30.1741 3.61685 -23.4983 38.3457 3.61685 -21.971 46.5172 3.61685 -18.1315 
-43.3696 11.7884 -22.0306 -35.198 11.7884 -25.3311 -27.0265 11.7884 -25.4187 
-18.855 19.0823 -25.7372 -18.855 11.7884 -24.9853 -10.6835 11.7884 -24.6712 
-2.51194 11.7884 -24.65 5.65958 11.7884 -24.8094 13.8311 11.7884 -24.5316 
22.0026 11.7884 -24.1192 30.1741 11.7884 -23.2282 38.3457 11.7884 -20.8707 
-43.3696 19.9599 -18.3741 -35.198 19.9599 -23.4607 -20.3858 19.9599 -25.7372 
-27.0265 19.9599 -25.3308 -16.1538 19.9599 -25.7372 -18.855 20.6116 -25.7372 
-10.6835 19.9599 -25.5545 -2.51194 19.9599 -25.3165 5.65958 19.9599 -24.8397 
13.8311 19.9599 -24.6293 22.0026 19.9599 -23.9628 30.1741 19.9599 -22.2122 
38.3457 19.9599 -19.1055 -35.198 28.1314 -18.9359 -27.0265 28.1314 -23.2523 
-18.855 28.1314 -24.657 -10.6835 28.1314 -25.3039 -2.51194 28.1314 -24.1968 
5.65958 28.1314 -23.7032 13.8311 28.1314 -23.0644 22.0026 28.1314 -21.9909 
30.1741 28.1314 -19.5777 -18.855 36.3029 -19.7794 -10.6835 36.3029 -20.8935 
-2.51194 36.3029 -20.4503 5.65958 36.3029 -19.4565 13.8311 36.3029 -18.4711 
-18.855 -39.5909 -17.5657 -10.6835 -40.5541 -17.5657 -2.51194 -40.1134 -17.5657 
5.65958 -38.5403 -17.5657 -35.198 -32.0785 -17.5657 -35.198 -37.2408 -10.2754 
-26.9086 -37.2408 -17.5657 -27.0265 -37.196 -17.5657 -27.0265 -37.2408 -17.5179 
10.6075 -37.2408 -17.5657 13.8311 -36.0667 -17.5657 13.8311 -37.2408 -16.4071 
22.0026 -33.1193 -17.5657 22.0026 -37.2408 -13.0007 30.1741 -30.2261 -17.5657 
-38.2788 -29.0692 -17.5657 -43.3696 -21.9416 -17.5657 -43.3696 -29.0692 -9.64218 
32.1293 -29.0692 -17.5657 38.3457 -23.9886 -17.5657 38.3457 -29.0692 -13.7362 
-43.945 -20.8977 -17.5657 41.3418 -20.8977 -17.5657 46.5172 -20.8977 -13.8757 
-46.9756 -12.7262 -17.5657 46.2372 -12.7262 -17.5657 46.5172 -11.7622 -17.5657 
46.5172 -12.7262 -17.3952 -48.353 -4.55467 -17.5657 47.9885 -4.55467 -17.5657 
54.6887 -4.55467 -10.0189 -48.8539 3.61685 -17.5657 47.2523 3.61685 -17.5657 
46.5172 6.07697 -17.5657 -47.9648 11.7884 -17.5657 44.3148 11.7884 -17.5657 
46.5172 11.7884 -15.8663 -44.0915 19.9599 -17.5657 -43.3696 21.0373 -17.5657 
40.5582 19.9599 -17.5657 38.3457 23.0243 -17.5657 46.5172 19.9599 -10.8789 
-36.8113 28.1314 -17.5657 -35.198 29.4379 -17.5657 -27.0265 34.671 -17.5657 
22.0026 35.4264 -17.5657 33.5717 28.1314 -17.5657 30.1741 30.9712 -17.5657 
38.3457 28.1314 -13.6573 -23.5679 36.3029 -17.5657 -27.0265 36.3029 -12.4044 
-18.855 38.2864 -17.5657 -10.6835 39.6228 -17.5657 -2.51194 39.366 -17.5657 
5.65958 38.3262 -17.5657 18.8083 36.3029 -17.5657 13.8311 37.2683 -17.5657 
22.0026 36.3029 -16.6631 30.1741 36.3029 -11.3973 -35.198 -37.6504 -9.3942 
-27.0265 -41.9482 -9.3942 -18.855 -44.2605 -9.3942 -10.6835 -44.9569 -9.3942 
-10.6835 -45.4123 -1.36948 -2.51194 -44.672 -9.3942 5.65958 -43.2219 -9.3942 
13.8311 -41.4694 -9.3942 22.0026 -39.4026 -9.3942 -35.7183 -37.2408 -9.3942 
-43.3696 -29.2055 -9.3942 28.6711 -37.2408 -9.3942 30.1741 -36.689 -9.3942 
30.1741 -37.2408 -7.04876 38.3457 -32.425 -9.3942 -43.4739 -29.0692 -9.3942 
43.0333 -29.0692 -9.3942 46.5172 -25.8195 -9.3942 -47.8991 -20.8977 -9.3942 
50.4101 -20.8977 -9.3942 -50.3715 -12.7262 -9.3942 53.7936 -12.7262 -9.3942 
54.6887 -7.2358 -9.3942 54.6887 -12.7262 -6.41878 -51.3689 -4.55467 -9.3942 
55.0767 -4.55467 -9.3942 54.6887 -0.842429 -9.3942 -51.5119 3.61685 -9.3942 
54.1841 3.61685 -9.3942 54.6887 3.61685 -7.52865 -50.4726 11.7884 -9.3942 
51.4837 11.7884 -9.3942 -46.8549 19.9599 -9.3942 -43.3696 24.7037 -9.3942 
47.5217 19.9599 -9.3942 46.5172 21.53 -9.3942 -39.9397 28.1314 -9.3942 
-35.198 31.929 -9.3942 41.7746 28.1314 -9.3942 38.3457 31.5523 -9.3942 
-28.436 36.3029 -9.3942 -27.0265 37.1467 -9.3942 -18.855 41.2929 -9.3942 
-10.6835 43.4658 -9.3942 -2.51194 43.9117 -9.3942 5.65958 43.161 -9.3942 
13.8311 41.9933 -9.3942 22.0026 40.4671 -9.3942 31.9937 36.3029 -9.3942 
30.1741 37.3805 -9.3942 -2.51194 44.4745 -3.29359 -10.6835 -45.4203 -1.22268 
-35.198 -37.777 -1.22268 -27.0265 -42.3054 -1.22268 -10.7789 -45.4123 -1.22268 
-18.855 -44.7072 -1.22268 -10.4974 -45.4123 -1.22268 -10.6835 -45.4123 -1.19114 
-2.51194 -45.07 -1.22268 5.65958 -44.0966 -1.22268 13.8311 -42.6373 -1.22268 
22.0026 -40.8124 -1.22268 30.1741 -38.3414 -1.22268 -35.8792 -37.2408 -1.22268 
-43.3696 -29.4213 -1.22268 -35.198 -37.2408 0.302571 32.4506 -37.2408 -1.22268 
30.1741 -37.2408 3.17906 38.3457 -34.1885 -1.22268 -43.6324 -29.0692 -1.22268 
-43.3696 -29.0692 -0.455302 45.5423 -29.0692 -1.22268 46.5172 -28.161 -1.22268 
-47.8316 -20.8977 -1.22268 52.638 -20.8977 -1.22268 54.6887 -16.1981 -1.22268 
-50.2153 -12.7262 -1.22268 55.9984 -12.7262 -1.22268 54.6887 -12.7262 4.62778 
-51.0243 -4.55467 -1.22268 57.061 -4.55467 -1.22268 -51.0696 3.61685 -1.22268 
56.1538 3.61685 -1.22268 54.6887 7.93678 -1.22268 54.6887 3.61685 5.71026 
-50.0617 11.7884 -1.22268 53.3094 11.7884 -1.22268 -46.4903 19.9599 -1.22268 
-43.3696 24.3332 -1.22268 49.1587 19.9599 -1.22268 46.5172 23.8201 -1.22268 
-39.7086 28.1314 -1.22268 -35.198 31.8006 -1.22268 43.1706 28.1314 -1.22268 
38.3457 32.8693 -1.22268 -28.4162 36.3029 -1.22268 -27.0265 37.1785 -1.22268 
-27.0265 36.3029 4.82608 -18.855 41.4682 -1.22268 -10.6835 44.0622 -1.22268 
5.65958 43.9347 -1.22268 13.8311 42.8374 -1.22268 22.0026 41.3218 -1.22268 
33.6146 36.3029 -1.22268 30.1741 38.3207 -1.22268 30.1741 36.3029 6.41415 
-5.01988 44.4745 -1.22268 -0.465154 44.4745 -1.22268 -2.51194 44.6536 -1.22268 
-2.51194 44.4745 -0.0176893 -27.0265 -39.2611 6.94885 -18.855 -42.0529 6.94885 
-10.6835 -43.0884 6.94885 -2.51194 -43.0329 6.94885 5.65958 -42.288 6.94885 
13.8311 -40.9623 6.94885 22.0026 -38.9091 6.94885 -30.657 -37.2408 6.94885 
-35.198 -34.1999 6.94885 -27.0265 -37.2408 9.74359 -18.855 -37.2408 13.2814 
-10.6835 -37.2408 14.7766 -2.51194 -37.2408 14.9505 5.65958 -37.2408 14.1576 
13.8311 -37.2408 12.4365 26.9676 -37.2408 6.94885 22.0026 -37.2408 9.51308 
30.1741 -36.0582 6.94885 38.3457 -32.0194 6.94885 -40.1509 -29.0692 6.94885 
-43.3696 -24.4326 6.94885 -35.198 -29.0692 12.7093 30.1741 -29.0692 14.6997 
42.4296 -29.0692 6.94885 38.3457 -29.0692 10.7289 46.5172 -25.335 6.94885 
-45.2936 -20.8977 6.94885 -43.3696 -20.8977 10.4228 50.4856 -20.8977 6.94885 
46.5172 -20.8977 11.3602 -47.841 -12.7262 6.94885 54.1001 -12.7262 6.94885 
54.6887 -8.88441 6.94885 -48.8511 -4.55467 6.94885 55.3124 -4.55467 6.94885 
54.6887 1.06663 6.94885 54.6887 -4.55467 7.94358 -48.9897 3.61685 6.94885 
54.3881 3.61685 6.94885 -48.0589 11.7884 6.94885 51.2915 11.7884 6.94885 
46.5172 11.7884 13.4016 -44.8155 19.9599 6.94885 -43.3696 22.1232 6.94885 
-43.3696 19.9599 11.7007 46.7557 19.9599 6.94885 46.5172 20.3034 6.94885 
46.5172 19.9599 7.29056 -38.045 28.1314 6.94885 -35.198 30.5896 6.94885 
-35.198 28.1314 14.8112 -27.0265 36.0066 6.94885 30.1741 36.1249 6.94885 
40.3073 28.1314 6.94885 38.3457 30.003 6.94885 38.3457 28.1314 9.42293 
-26.4738 36.3029 6.94885 -18.855 40.1291 6.94885 -10.6835 42.6869 6.94885 
-2.51194 43.4039 6.94885 5.65958 42.7579 6.94885 13.8311 41.4464 6.94885 
29.7996 36.3029 6.94885 22.0026 39.4854 6.94885 22.0026 36.3029 13.2182 
-27.0265 -32.3101 15.1204 -18.855 -35.2289 15.1204 -10.6835 -36.8216 15.1204 
-2.51194 -37.0304 15.1204 5.65958 -36.0808 15.1204 13.8311 -34.4246 15.1204 
22.0026 -31.7061 15.1204 -31.8374 -29.0692 15.1204 -35.198 -26.421 15.1204 
-27.0265 -29.0692 17.7173 -18.855 -29.0692 19.4009 -10.6835 -29.0692 19.7876 
-2.51194 -29.0692 19.7019 5.65958 -29.0692 19.1274 13.8311 -29.0692 18.4736 
28.8188 -29.0692 15.1204 22.0026 -29.0692 16.8552 30.1741 -28.3667 15.1204 
38.3457 -23.5549 15.1204 -39.8214 -20.8977 15.1204 -43.3696 -14.0685 15.1204 
-35.198 -20.8977 19.0381 -27.0265 -20.8977 22.3581 5.65958 -20.8977 22.3047 
13.8311 -20.8977 20.798 22.0026 -20.8977 19.9137 30.1741 -20.8977 18.6981 
41.2528 -20.8977 15.1204 38.3457 -20.8977 16.5732 46.5172 -12.7793 15.1204 
-43.897 -12.7262 15.1204 -43.3696 -12.7262 15.8154 -35.198 -12.7262 23.1111 
22.0026 -12.7262 21.4599 30.1741 -12.7262 20.7139 38.3457 -12.7262 18.9645 
46.5422 -12.7262 15.1204 46.5172 -12.7262 15.1397 -45.5098 -4.55467 15.1204 
-43.3696 -4.55467 18.2155 30.1741 -4.55467 22.0648 38.3457 -4.55467 20.5404 
48.3786 -4.55467 15.1204 46.5172 -4.55467 16.6019 -45.9079 3.61685 15.1204 
-43.3696 3.61685 18.9343 30.1741 3.61685 22.9114 38.3457 3.61685 20.47 
47.6336 3.61685 15.1204 46.5172 7.00211 15.1204 46.5172 3.61685 16.0338 
[...]
POINT_DATA 496
SCALARS ImageScalars float
LOOKUP_TABLE default
0 0 0 0 0 0 0 0 0 
0 0 0 0 0 0 0 0 0 
0 0 0 0 0 0 0 0 0 
0 0 0 0 0 0 0 0 0 
0 0 0 0 0 0 0 0 0 
0 0 0 0 0 0 0 0 0 
0 0 0 0 0 0 0 0 0 
0 0 0 0 0 0 0 0 0 
0 0 0 0 0 0 0 0 0 
0 0 0 0 0 0 0 0 0 
0 0 0 0 0 0 0 0 0 
0 0 0 0 0 0 0 0 0 
0 0 0 0 0 0 0 0 0 
0 0 0 0 0 0 0 0 0 
0 0 0 0 0 0 0 0 0 
0 0 0 0 0 0 0 0 0 
0 0 0 0 0 0 0 0 0 
0 0 0 0 0 0 0 0 0 
0 0 0 0 0 0 0 0 0 
0 0 0 0 0 0 0 0 0 
0 0 0 0 0 0 0 0 0 
0 0 0 0 0 0 0 0 0 
0 0 0 0 0 0 0 0 0 
0 0 0 0 0 0 0 0 0 
0 0 0 0 0 0 0 0 0 
0 0 0 0 0 0 0 0 0 
0 0 0 0 0 0 0 0 0 
0 0 0 0 0 0 0 0 0 
0 0 0 0 0 0 0 0 0 
0 0 0 0 0 0 0 0 0 
0 0 0 0 0 0 0 0 0 
0 0 0 0 0 0 0 0 0 
0 0 0 0 0 0 0 0 0 
0 0 0 0 0 0 0 0 0 
0 0 0 0 0 0 0 0 0 
0 0 0 0 0 0 0 0 0 
0 0 0 0 0 0 0 0 0 
0 0 0 0 0 0 0 0 0 
0 0 0 0 0 0 0 0 0 
0 0 0 0 0 0 0 0 0 
0 0 0 0 0 0 0 0 0 
0 0 0 0 0 0 0 0 0 
0 0 0 0 0 0 0 0 0 
0 0 0 0 0 0 0 0 0 
0 0 0 0 0 0 0 0 0 
0 0 0 0 0 0 0 0 0 
0 0 0 0 0 0 0 0 0 
0 0 0 0 0 0 0 0 0 
0 0 0 0 0 0 0 0 0 
0 0 0 0 0 0 0 0 0 
0 0 0 0 0 0 0 0 0 
0 0 0 0 0 0 0 0 0 
0 0 0 0 0 0 0 0 0 
0 0 0 0 0 0 0 0 0 
0 0 0 0 0 0 0 0 0 
0 
NORMALS Normals float
0.0127888 -0.0178512 0.999759 0.153537 0.60392 0.782117 0.0190629 0.573788 0.818782 
-0.0899962 0.597935 0.796476 -0.175938 0.639647 0.748263 0.438444 0.467211 0.767776 
0.199356 0.359124 0.911749 0.0854635 0.240154 0.966965 0.0325492 0.231902 0.972194 
-0.0545872 0.226175 0.972556 -0.134803 0.276903 0.951395 -0.157101 0.324472 0.932758 
-0.18079 0.41907 0.889772 -0.297338 0.506159 0.809564 0.659203 0.359692 0.660358 
0.318805 0.263884 0.910345 0.103256 0.18288 0.977698 0.0244167 0.0982737 0.99486 
-0.00320241 0.0353351 0.99937 -0.0448823 0.0420996 0.998105 -0.0776938 0.0848898 0.993357 
-0.0915479 0.119348 0.988623 -0.108505 0.172911 0.978942 -0.182777 0.253351 0.94995 
-0.360808 0.354196 0.862764 0.571389 0.209706 0.793434 0.254912 0.123019 0.959107 
0.0182249 0.0670102 0.997586 -0.0670864 0.0224623 0.997494 -0.0227058 0.0244702 0.999443 
-0.00695779 0.0736905 0.997257 -0.0588345 0.0768516 0.995305 -0.0730898 0.0455373 0.996285 
-0.0506445 0.062963 0.99673 -0.0881157 0.113513 0.989621 -0.303697 0.165037 0.938366 
0.522988 0.0961026 0.846905 0.14728 0.0169467 0.98895 0.0119765 -0.0202501 0.999723 
-0.0146291 -0.0206977 0.999679 0.0480341 -0.0126674 0.998765 0.00805241 0.0233492 0.999695 
-0.104653 0.03428 0.993918 -0.106096 0.0398057 0.993559 -0.0370619 0.0387623 0.998561 
-0.0823261 0.0423708 0.995704 -0.265177 0.0176901 0.964038 -0.537032 0.0387353 0.842672 
0.504178 -0.0202007 0.863363 0.120394 0.0335996 0.992157 -0.0130687 0.00343675 0.999909 
-0.0604714 0.00475103 0.998159 0.0209324 -0.0286402 0.999371 0.0404938 -0.0643352 0.997106 
-0.0421314 -0.0271593 0.998743 -0.0690413 0.0342309 0.997026 -0.0480352 0.0368506 0.998166 
-0.114684 -0.00799884 0.99337 -0.293468 -0.0756639 0.95297 -0.565142 -0.125826 0.815342 
0.539274 -0.204323 0.816967 0.167272 -0.0749801 0.983055 -0.0216043 0.00147513 0.999766 
0.00688129 -0.00839272 0.999941 -0.0449309 0.0709241 0.996469 -0.0208654 0.0762215 0.996873 
0.00856574 0.0206984 0.999749 -0.00713086 -0.00909365 0.999933 -0.0422214 0.020647 0.998895 
-0.0812725 0.00669314 0.996669 -0.185365 -0.072192 0.980014 -0.380365 -0.159688 0.910946 
0.701456 -0.462943 0.541889 0.338622 -0.297891 0.892522 0.0358162 -0.0356474 0.998722 
0.136763 -0.115708 0.983823 -0.00175642 0.000881104 0.999998 0.0204985 -0.0390699 0.999026 
-0.030832 0.0380082 0.998802 -0.0437704 -0.025693 0.998711 -0.0417594 -0.0623778 0.997179 
-0.0525669 -0.0864785 0.994866 -0.141154 -0.119186 0.982787 -0.277092 -0.197653 0.940294 
-0.472423 -0.316777 0.822477 0.540598 -0.636843 0.549714 0.277087 -0.440436 0.853955 
0.110011 -0.294776 0.949213 -0.0276058 -0.231332 0.972483 -0.0888696 -0.254954 0.962861 
-0.0669412 -0.282749 0.956855 -0.0951253 -0.325073 0.940892 -0.183092 -0.357973 0.915605 
-0.3793 -0.44093 0.813457 0.221572 -0.718481 0.659311 0.0297039 -0.634883 0.772037 
-0.0744916 -0.602829 0.794386 -0.10294 -0.627489 0.77179 -0.125458 -0.666586 0.734795 
0.159558 0.711517 0.684313 0.0235958 0.726214 0.687064 -0.0987847 0.72503 0.681596 
-0.182766 0.69415 0.696241 0.484222 0.580346 0.654773 0.573676 0.782227 0.242933 
0.295867 0.666721 0.684066 0.297471 0.66563 0.684433 0.298388 0.668408 0.681319 
-0.207977 0.680369 0.70274 -0.216803 0.651561 0.726956 -0.226593 0.728454 0.646538 
-0.225412 0.583591 0.780135 -0.26749 0.817871 0.509447 -0.311528 0.555511 0.770946 
0.563123 0.515873 0.645575 0.674528 0.38672 0.628855 0.793041 0.576512 0.196777 
-0.340505 0.535039 0.773169 -0.402185 0.447681 0.798642 -0.473554 0.65926 0.584057 
0.683965 0.365551 0.63132 -0.447051 0.372952 0.813051 -0.640432 0.436617 0.631832 
0.765951 0.21164 0.607065 -0.538891 0.213663 0.814828 -0.546977 0.193581 0.814458 
-0.549918 0.215072 0.807053 0.80862 0.0962766 0.580401 -0.586751 0.0356112 0.808984 
-0.895885 0.0196634 0.443851 0.827211 -0.0216167 0.561475 -0.589201 -0.131084 0.797283 
-0.585451 -0.166928 0.793336 0.822098 -0.241687 0.515502 -0.560607 -0.235789 0.793803 
-0.65774 -0.278728 0.699778 0.727899 -0.467444 0.501657 0.711281 -0.494018 0.500026 
-0.546149 -0.344489 0.763577 -0.511616 -0.397454 0.761761 -0.778299 -0.465032 0.421895 
0.583997 -0.662142 0.469591 0.556608 -0.687286 0.466718 0.411791 -0.766698 0.492546 
-0.243504 -0.658617 0.71199 -0.457017 -0.483378 0.746646 -0.397983 -0.547066 0.73643 
-0.606495 -0.579583 0.544287 0.342467 -0.791749 0.505816 0.469345 -0.851437 0.234032 
0.244273 -0.799526 0.548715 0.0588075 -0.780378 0.622537 -0.0642254 -0.739326 0.670278 
-0.103168 -0.711827 0.694736 -0.198232 -0.685642 0.700427 -0.127456 -0.705179 0.697479 
-0.24981 -0.715903 0.65198 -0.435697 -0.812727 0.386838 0.575034 0.791767 0.206012 
0.362263 0.903467 0.229158 0.172345 0.955537 0.239262 0.0236922 0.97242 0.232029 
0.020334 0.99544 -0.0932016 -0.10014 0.966009 0.238325 -0.182672 0.944564 0.272817 
-0.218447 0.924907 0.311171 -0.271295 0.900721 0.339265 0.588614 0.781822 0.205641 
0.793516 0.579125 0.186943 -0.345779 0.86907 0.353771 -0.364092 0.858972 0.360006 
-0.371484 0.895808 0.243983 -0.489874 0.784565 0.380106 0.795826 0.576032 0.186678 
-0.585404 0.713995 0.384075 -0.676681 0.619806 0.397422 0.91041 0.377389 0.169501 
-0.769803 0.472431 0.4292 0.967331 0.20141 0.153961 -0.869423 0.237503 0.433239 
-0.902435 0.0909695 0.421112 -0.93143 0.244113 0.269901 0.990579 0.0688206 0.118394 
-0.908633 0.018894 0.417168 -0.907463 -0.0796041 0.412522 0.994234 -0.0505019 0.0945937 
-0.892659 -0.194469 0.406623 -0.927887 -0.204402 0.311841 0.961938 -0.254613 0.0992325 
-0.856593 -0.339322 0.388729 0.856762 -0.503906 0.109719 0.763372 -0.637944 0.101445 
-0.801304 -0.478873 0.358599 -0.789404 -0.504426 0.349851 0.666073 -0.739661 0.0961724 
0.591279 -0.800656 0.0966424 -0.708826 -0.625199 0.326638 -0.639425 -0.700981 0.315849 
0.505819 -0.855707 0.109145 0.489604 -0.864376 0.114641 0.339891 -0.92632 0.162499 
0.151673 -0.962785 0.223698 -0.0165285 -0.965302 0.260614 -0.111505 -0.954909 0.275165 
-0.154132 -0.948872 0.275473 -0.261882 -0.926294 0.270918 -0.479878 -0.827929 0.290261 
-0.437247 -0.851508 0.289394 -0.00996696 -0.999124 0.0406522 0.0202357 0.994895 -0.0988664 
0.591577 0.79364 -0.142027 0.377018 0.917385 -0.127519 0.0220876 0.994832 -0.0991051 
0.183317 0.975865 -0.11867 0.0179775 0.994958 -0.0986638 0.0203677 0.99478 -0.099994 
-0.0796871 0.992842 -0.0889647 -0.146785 0.987883 -0.0504182 -0.194444 0.980548 -0.0267917 
-0.262023 0.964773 -0.0235863 -0.370527 0.928419 -0.0273426 0.608806 0.78046 -0.142258 
0.802001 0.580957 -0.138866 0.590851 0.782451 -0.196636 -0.402533 0.915026 -0.0263769 
-0.369024 0.900252 -0.231016 -0.497185 0.867443 -0.0186943 0.808029 0.572473 -0.139156 
0.802277 0.574252 -0.163052 -0.65742 0.753215 -0.0215739 -0.685543 0.727732 -0.0208793 
0.925055 0.35406 -0.13753 -0.860935 0.5085 0.0147931 -0.939826 0.341148 0.0185869 
0.970038 0.195556 -0.144167 -0.971442 0.236777 0.0153916 -0.929235 0.233991 -0.285955 
0.987648 0.0491406 -0.148784 -0.999866 0.00855074 0.0139256 0.987184 -0.0555764 -0.149597 
-0.975619 -0.219245 0.00992045 -0.952064 -0.305882 0.00335437 -0.921098 -0.214075 -0.325192 
0.958912 -0.248867 -0.136209 -0.923716 -0.383034 -0.00583585 0.857016 -0.503653 -0.108891 
0.77471 -0.625306 -0.0938984 -0.851785 -0.522896 -0.0322696 -0.810971 -0.58354 -0.042504 
0.674881 -0.734005 -0.0759758 0.601004 -0.796788 -0.0626328 -0.744164 -0.665576 -0.0568158 
-0.639038 -0.766381 -0.0654976 0.52624 -0.848261 -0.0593641 0.511934 -0.857019 -0.0586744 
0.496124 -0.854547 -0.153656 0.378285 -0.92339 -0.0651938 0.182659 -0.982142 -0.0450788 
-0.109643 -0.993638 -0.0257366 -0.155047 -0.987396 -0.0317604 -0.266696 -0.962402 -0.0515257 
-0.513618 -0.855508 -0.0655895 -0.433178 -0.899008 -0.0643507 -0.444613 -0.827256 -0.343464 
0.0500199 -0.998119 -0.0354427 -0.033318 -0.998992 -0.0300941 -0.00817191 -0.99949 -0.0308779 
-0.00650815 -0.998062 -0.0618879 0.374864 0.805082 -0.459696 0.195347 0.869333 -0.453982 
0.0535113 0.90291 -0.426485 -0.0456808 0.914318 -0.402413 -0.117349 0.9155 -0.384823 
-0.188743 0.904858 -0.381587 -0.267772 0.88021 -0.391827 0.455039 0.764121 -0.457228 
0.569406 0.691951 -0.443826 0.363344 0.755029 -0.545813 0.186368 0.706069 -0.683179 
0.0696244 0.661554 -0.746658 -0.024666 0.656016 -0.754344 -0.100218 0.68573 -0.720923 
-0.175024 0.751736 -0.635815 -0.319952 0.856637 -0.404727 -0.263201 0.8238 -0.502074 
-0.354038 0.835066 -0.421097 -0.474306 0.77572 -0.416284 0.700955 0.57338 -0.424143 
0.796287 0.45354 -0.400286 0.53659 0.591215 -0.602109 -0.273641 0.546974 -0.791164 
-0.557816 0.716252 -0.419314 -0.444105 0.67076 -0.594013 -0.646716 0.63653 -0.420223 
0.844851 0.371496 -0.38499 0.78604 0.393202 -0.477005 -0.750187 0.512296 -0.418057 
-0.600566 0.48439 -0.63615 0.917675 0.197847 -0.344571 -0.880817 0.227984 -0.414952 
-0.9042 0.127081 -0.407766 0.94846 0.0636263 -0.310444 -0.914844 0.0142586 -0.403555 
-0.908716 -0.141608 -0.392661 -0.895901 0.0172093 -0.443921 0.95513 -0.0434285 -0.292987 
-0.897617 -0.210295 -0.387376 0.933109 -0.228617 -0.277565 -0.836921 -0.37968 -0.394216 
-0.679825 -0.325322 -0.65727 0.853191 -0.470401 -0.225363 0.81692 -0.533576 -0.218947 
0.826395 -0.457636 -0.328085 -0.763386 -0.507365 -0.399778 -0.760276 -0.511988 -0.39981 
-0.757498 -0.505535 -0.413075 0.668213 -0.719222 -0.19029 0.614981 -0.76814 -0.178209 
0.611263 -0.694153 -0.380144 0.490002 -0.851337 -0.187413 -0.445071 -0.818045 -0.364299 
-0.657909 -0.64108 -0.395186 -0.620995 -0.677455 -0.394234 -0.61746 -0.622213 -0.481242 
0.480792 -0.855768 -0.19105 0.358354 -0.902817 -0.237706 0.183539 -0.947952 -0.260192 
0.00352133 -0.96907 -0.246759 -0.114006 -0.966621 -0.229447 -0.185698 -0.947351 -0.26085 
-0.437244 -0.823583 -0.361287 -0.295764 -0.901142 -0.316966 -0.340135 -0.791069 -0.508447 
0.318153 0.623801 -0.713899 0.165046 0.636293 -0.753586 0.067551 0.644172 -0.761892 
-0.0245477 0.646468 -0.762546 -0.0927159 0.62645 -0.773927 -0.153205 0.602228 -0.783486 
-0.222367 0.548571 -0.805992 0.426742 0.580279 -0.693662 0.510205 0.546053 -0.664468 
0.289573 0.556533 -0.778729 0.101285 0.499468 -0.860391 0.0158049 0.460227 -0.887661 
-0.037193 0.437096 -0.898645 -0.0692391 0.4149 -0.907229 -0.123992 0.403413 -0.906578 
-0.258799 0.525167 -0.810693 -0.20385 0.452478 -0.868164 -0.261943 0.51997 -0.81303 
-0.359238 0.452954 -0.815954 0.644758 0.439392 -0.625477 0.784026 0.283911 -0.551994 
0.473471 0.457162 -0.75288 0.218103 0.436032 -0.873102 -0.145859 0.384613 -0.911481 
-0.134608 0.271406 -0.953005 -0.119183 0.257551 -0.958886 -0.189316 0.323407 -0.927129 
-0.411857 0.395064 -0.821157 -0.339401 0.376602 -0.861962 -0.534416 0.225612 -0.814554 
0.800072 0.256512 -0.542298 0.783602 0.261008 -0.563775 0.452074 0.317009 -0.833747 
-0.146152 0.231926 -0.961691 -0.144723 0.196801 -0.969703 -0.299574 0.227127 -0.926644 
-0.535062 0.224358 -0.814477 -0.534134 0.224446 -0.815062 0.864654 0.106409 -0.490969 
0.79824 0.122537 -0.589743 -0.19272 0.128114 -0.972855 -0.293834 0.0843378 -0.952129 
-0.615816 0.0423805 -0.786749 -0.549331 0.0460097 -0.834337 0.884735 -0.0240027 -0.465476 
0.80562 -0.0189063 -0.59213 -0.286552 0.0114312 -0.957996 -0.370228 -0.079354 -0.925546 
-0.619272 -0.146071 -0.771469 -0.61937 -0.208563 -0.75689 -0.583309 -0.139561 -0.800171 
0.868306 -0.199102 -0.454316 0.831969 -0.35007 -0.43044 0.817502 -0.191526 -0.543147 
-0.34187 -0.134761 -0.930035 -0.6103 -0.291755 -0.736487 -0.432911 -0.226154 -0.872607 
0.789891 -0.448162 -0.418597 0.611051 -0.689108 -0.389547 0.553408 -0.412936 -0.723342 
-0.414307 -0.273362 -0.868114 -0.557061 -0.413755 -0.720062 -0.548096 -0.435052 -0.714368 
-0.535042 -0.40004 -0.744109 0.60739 -0.692717 -0.38887 0.434719 -0.803175 -0.407343 
0.384795 -0.622342 -0.681633 -0.355416 -0.730034 -0.583721 -0.367412 -0.45602 -0.810589 
-0.507511 -0.538961 -0.672275 -0.473719 -0.58235 -0.66065 -0.471413 -0.515282 -0.715719 
0.330994 -0.83498 -0.439603 0.303893 -0.839853 -0.449774 0.297763 -0.823344 -0.483158 
0.170137 -0.85638 -0.487511 0.158076 -0.777849 -0.608245 0.0251593 -0.878826 -0.476479 
0.0271297 -0.760691 -0.648547 -0.114489 -0.877907 -0.464943 -0.120835 -0.761154 -0.637215 
-0.312315 -0.778177 -0.544886 -0.238292 -0.833313 -0.498804 -0.252436 -0.766362 -0.590733 
0.0696102 0.434933 -0.897768 -0.00698204 0.42403 -0.905621 -0.0748984 0.414503 -0.906961 
0.0936825 0.433248 -0.896392 0.215797 0.412512 -0.885023 0.0688543 0.432917 -0.8988 
-0.00859094 0.422027 -0.906543 -0.077528 0.413672 -0.907119 -0.0751712 0.414393 -0.906988 
-0.166933 0.380224 -0.909705 -0.268785 0.374753 -0.887308 0.438103 0.31877 -0.840507 
0.45238 0.306842 -0.837377 0.225819 0.333915 -0.915154 0.0712421 0.361578 -0.929616 
-0.0174918 0.349309 -0.936844 -0.0791936 0.276532 -0.957736 -0.191842 0.340157 -0.920592 
-0.268748 0.374617 -0.887376 -0.268996 0.374914 -0.887176 -0.258955 0.242218 -0.935026 
0.579568 0.158517 -0.799358 0.467851 0.168249 -0.867645 0.247569 0.17719 -0.95253 
0.0795326 0.220133 -0.972222 -0.102831 0.204312 -0.97349 -0.0939692 0.115256 -0.988881 
-0.0506922 0.123147 -0.991093 -0.239155 0.269043 -0.932963 -0.261395 0.20324 -0.943592 
-0.301167 0.245494 -0.921429 0.626975 -0.0070639 -0.779007 0.482522 -0.000459939 -0.875884 
0.277983 0.0476024 -0.959406 0.0974799 0.0726683 -0.992581 -0.126455 0.131576 -0.983207 
-0.167496 0.139742 -0.975919 -0.038668 0.0353765 -0.998626 -0.148884 0.00586175 -0.988837 
-0.291763 0.0208506 -0.956263 -0.319881 0.0592872 -0.945601 0.600738 -0.184313 -0.777909 
0.540145 -0.35946 -0.760941 0.51116 -0.172377 -0.842022 0.318025 -0.13057 -0.939048 
0.155829 -0.0962666 -0.983082 -0.19371 0.0806716 -0.977736 -0.179531 0.0293529 -0.983314 
-0.208023 -0.0990548 -0.973095 -0.32982 -0.114868 -0.937029 -0.304779 -0.0967347 -0.947498 
0.517132 -0.398127 -0.757674 0.373305 -0.561135 -0.738763 0.337642 -0.345264 -0.875666 
0.208299 -0.317241 -0.925186 0.0521135 -0.271261 -0.961094 -0.112 -0.161429 -0.980508 
-0.222659 -0.116631 -0.967895 -0.275113 -0.178954 -0.94461 -0.350565 -0.224525 -0.909226 
-0.345153 -0.265601 -0.900181 -0.338545 -0.217274 -0.915522 0.331056 -0.597152 -0.730623 
0.236492 -0.631995 -0.738007 0.225071 -0.56785 -0.791763 0.134727 -0.66202 -0.737278 
0.11705 -0.531014 -0.83924 0.0182759 -0.661503 -0.749719 -0.0174298 -0.469998 -0.882495 
-0.144393 -0.605925 -0.782308 -0.178934 -0.403947 -0.897112 -0.319958 -0.415266 -0.851576 
-0.299339 -0.457601 -0.837256 -0.303763 -0.406742 -0.861562 -0.0752642 0.048035 -0.996006 
0.0650789 -0.0587031 -0.996152 -0.083756 0.0117597 -0.996417 -0.00691307 -0.101468 -0.994815 
-0.0354935 -0.0176473 -0.999214 
