# vtk DataFile Version 4.2
vtk output
ASCII
DATASET POLYDATA
POINTS 540 float
-28.2071 -24.4461 -16.2612 -21.1481 -24.4461 -15.8806 0.0291836 -24.4461 -16.0263 
7.08826 -24.4461 -18.0784 14.1473 -24.4461 -19.4015 21.2064 -24.4461 -19.7935 
28.2655 -24.4461 -18.9409 35.3246 -24.4461 -17.032 -42.3253 -17.387 -16.9285 
-35.2662 -17.387 -19.0322 -28.2071 -17.387 -19.475 -21.1481 -17.387 -19.133 
-14.089 -17.387 -18.5578 -7.0299 -17.387 -18.7466 0.0291836 -17.387 -20.5376 
7.08826 -17.387 -21.7662 14.1473 -17.387 -22.1574 21.2064 -17.387 -22.3739 
28.2655 -17.387 -22.6746 35.3246 -17.387 -21.4594 42.3837 -17.387 -19.1846 
-49.3844 -10.3279 -15.8676 -42.3253 -10.3279 -19.3808 -35.2662 -10.3279 -20.8032 
-28.2071 -10.3279 -20.9808 -21.1481 -10.3279 -20.4845 -14.089 -10.3279 -19.091 
-7.0299 -10.3279 -19.3798 0.0291836 -10.3279 -21.2238 7.08826 -10.3279 -22.3879 
14.1473 -10.3279 -22.0939 21.2064 -10.3279 -22.1712 28.2655 -10.3279 -22.5374 
35.3246 -10.3279 -22.2005 42.3837 -10.3279 -21.0057 49.4427 -10.3279 -17.7062 
-49.3844 -3.26882 -16.3162 -42.3253 -3.26882 -20.0026 -35.2662 -3.26882 -21.4394 
-28.2071 -3.26882 -21.6229 -21.1481 -3.26882 -20.9901 -14.089 -3.26882 -20.0393 
-7.0299 -3.26882 -19.902 0.0291836 -3.26882 -21.0946 7.08826 -3.26882 -22.6367 
14.1473 -3.26882 -20.3083 21.2064 -3.26882 -20.5149 28.2655 -3.26882 -21.5022 
35.3246 -3.26882 -22.1322 42.3837 -3.26882 -20.7103 49.4427 -3.26882 -18.0035 
-49.3844 3.79026 -16.125 -42.3253 3.79026 -19.7295 -35.2662 3.79026 -21.1354 
-28.2071 3.79026 -21.3306 -21.1481 3.79026 -20.6697 -14.089 3.79026 -19.8619 
-7.0299 3.79026 -19.789 0.0291836 3.79026 -20.6989 7.08826 3.79026 -21.7243 
14.1473 3.79026 -17.7708 21.2064 3.79026 -18.2987 28.2655 3.79026 -20.0089 
35.3246 3.79026 -20.3047 42.3837 3.79026 -19.7169 49.4427 3.79026 -16.8913 
-42.3253 10.8493 -18.5396 -35.2662 10.8493 -20.4247 -28.2071 10.8493 -20.4059 
-21.1481 10.8493 -19.4119 -14.089 10.8493 -18.3247 -7.0299 10.8493 -17.5555 
0.0291836 10.8493 -17.243 7.08826 10.8493 -17.5139 14.1473 10.8493 -16.4506 
21.2064 10.8493 -17.091 28.2655 10.8493 -17.9286 35.3246 10.8493 -18.2602 
42.3837 10.8493 -17.3773 -42.3253 17.9084 -15.839 -35.2662 17.9084 -18.1203 
-28.2071 17.9084 -18.1566 -21.1481 17.9084 -18.2433 -14.089 17.9084 -17.6582 
-7.0299 17.9084 -17.1005 0.0291836 17.9084 -16.398 7.08826 17.9084 -16.3389 
14.1473 17.9084 -15.9997 21.2064 17.9084 -16.1031 28.2655 17.9084 -16.2359 
35.3246 17.9084 -15.8765 -28.2071 24.9675 -15.866 -21.1481 24.9675 -16.2123 
-14.089 24.9675 -16.6182 -7.0299 24.9675 -15.8954 -28.2071 -25.117 -15.6808 
-21.1481 -24.681 -15.6808 0.0291836 -24.7597 -15.6808 7.08826 -26.8467 -15.6808 
14.1473 -28.5502 -15.6808 21.2064 -28.5247 -15.6808 28.2655 -27.4929 -15.6808 
35.3246 -25.7421 -15.6808 -42.3253 -19.1594 -15.6808 -42.3253 -24.4461 -9.53731 
-31.7906 -24.4461 -15.6808 -35.2662 -23.4483 -15.6808 -35.2662 -24.4461 -14.754 
-17.7374 -24.4461 -15.6808 -14.089 -24.0018 -15.6808 -14.089 -24.4461 -15.3947 
-2.01867 -24.4461 -15.6808 -7.0299 -23.2124 -15.6808 -7.0299 -24.4461 -14.734 
38.5506 -24.4461 -15.6808 42.3837 -22.4682 -15.6808 42.3837 -24.4461 -10.6548 
-44.1361 -17.387 -15.6808 -49.3844 -10.7009 -15.6808 -49.3844 -17.387 -10.3145 
48.3247 -17.387 -15.6808 49.4427 -15.5253 -15.6808 49.4427 -17.387 -13.9946 
-49.5801 -10.3279 -15.6808 51.6481 -10.3279 -15.6808 -50.1176 -3.26882 -15.6808 
52.2536 -3.26882 -15.6808 56.5018 -3.26882 -9.58638 -49.9081 3.79026 -15.6808 
-49.3844 7.79052 -15.6808 51.0238 3.79026 -15.6808 49.4427 6.98826 -15.6808 
56.5018 3.79026 -8.80806 -48.7588 10.8493 -15.6808 -49.3844 10.8493 -15.2421 
46.1893 10.8493 -15.6808 42.3837 14.5246 -15.6808 49.4427 10.8493 -13.9249 
-42.5816 17.9084 -15.6808 -49.3844 17.9084 -9.76552 -42.3253 18.1511 -15.6808 
-35.2662 22.5842 -15.6808 0.0291836 22.501 -15.6808 7.08826 21.0589 -15.6808 
14.1473 19.5863 -15.6808 21.2064 19.2807 -15.6808 28.2655 19.2043 -15.6808 
36.234 17.9084 -15.6808 35.3246 18.3146 -15.6808 42.3837 17.9084 -13.7688 
-42.3253 24.9675 -9.59271 -29.0768 24.9675 -15.6808 -35.2662 24.9675 -13.8682 
-28.2071 25.2924 -15.6808 -21.1481 25.8259 -15.6808 -14.089 26.7148 -15.6808 
-4.62007 24.9675 -15.6808 -7.0299 25.38 -15.6808 0.0291836 24.9675 -15.2741 
7.08826 24.9675 -14.7884 14.1473 24.9675 -14.5526 21.2064 24.9675 -13.6595 
28.2655 24.9675 -12.6606 35.3246 24.9675 -10.6865 -28.2071 32.0266 -8.92311 
-21.1481 32.0266 -10.7869 -14.089 32.0266 -11.1987 -7.0299 32.0266 -10.7937 
0.0291836 32.0266 -10.5595 7.08826 32.0266 -10.5214 14.1473 32.0266 -9.18931 
-42.3253 -24.9889 -8.62174 -35.2662 -27.8289 -8.62174 -28.2071 -29.1587 -8.62174 
-21.1481 -29.6423 -8.62174 -14.089 -29.0756 -8.62174 -7.0299 -28.7391 -8.62174 
0.0291836 -29.2256 -8.62174 7.08826 -30.3913 -8.62174 14.1473 -31.2099 -8.62174 
21.2064 -31.1534 -8.62174 28.2655 -30.3367 -8.62174 35.3246 -28.5103 -8.62174 
42.3837 -24.9747 -8.62174 -43.0996 -24.4461 -8.62174 -49.3844 -18.8142 -8.62174 
43.2834 -24.4461 -8.62174 49.4427 -19.9103 -8.62174 -50.4625 -17.387 -8.62174 
51.9774 -17.387 -8.62174 -54.3532 -10.3279 -8.62174 55.6072 -10.3279 -8.62174 
56.5018 -5.82476 -8.62174 -55.4182 -3.26882 -8.62174 -56.4435 -3.26882 -3.96013 
56.9836 -3.26882 -8.62174 -55.454 3.79026 -8.62174 -56.4435 3.79026 -3.72551 
56.6004 3.79026 -8.62174 56.5018 4.05409 -8.62174 -54.0576 10.8493 -8.62174 
53.6862 10.8493 -8.62174 49.4427 17.4316 -8.62174 -50.1754 17.9084 -8.62174 
-49.3844 18.9299 -8.62174 48.9475 17.9084 -8.62174 42.3837 23.2996 -8.62174 
49.4427 17.9084 -7.7373 -43.2334 24.9675 -8.62174 -42.3253 25.6892 -8.62174 
-35.2662 29.527 -8.62174 21.2064 30.5548 -8.62174 28.2655 28.6774 -8.62174 
39.1784 24.9675 -8.62174 35.3246 26.6239 -8.62174 42.3837 24.9675 -4.70388 
-28.7413 32.0266 -8.62174 -28.2071 32.2023 -8.62174 -21.1481 33.5438 -8.62174 
-14.089 33.7866 -8.62174 -7.0299 33.5666 -8.62174 0.0291836 33.5539 -8.62174 
7.08826 33.5327 -8.62174 15.9497 32.0266 -8.62174 14.1473 32.456 -8.62174 
21.2064 32.0266 -3.65367 -42.3253 -26.2599 -1.56266 -35.2662 -28.6338 -1.56266 
-28.2071 -29.8961 -1.56266 -21.1481 -30.3635 -1.56266 -14.089 -30.2837 -1.56266 
-7.0299 -30.5846 -1.56266 0.0291836 -30.991 -1.56266 7.08826 -31.3222 -1.56266 
14.1473 -31.4344 -1.56266 21.2064 -30.9367 -1.56266 28.2655 -29.8149 -1.56266 
35.3246 -28.228 -1.56266 42.3837 -24.8465 -1.56266 -44.8079 -24.4461 -1.56266 
-49.3844 -20.5943 -1.56266 43.0574 -24.4461 -1.56266 42.3837 -24.4461 -0.148463 
49.4427 -19.7486 -1.56266 -51.9846 -17.387 -1.56266 51.8366 -17.387 -1.56266 
49.4427 -17.387 4.60289 -55.7778 -10.3279 -1.56266 -56.4435 -6.38223 -1.56266 
55.8374 -10.3279 -1.56266 56.5018 -7.95507 -1.56266 -56.9243 -3.26882 -1.56266 
-56.4435 -3.26882 2.82456 57.7134 -3.26882 -1.56266 56.5018 -3.26882 3.77294 
-56.8332 3.79026 -1.56266 -56.4435 6.13604 -1.56266 -56.4435 3.79026 1.53576 
57.6507 3.79026 -1.56266 56.5018 7.86318 -1.56266 56.5018 3.79026 4.96191 
-55.5731 10.8493 -1.56266 55.58 10.8493 -1.56266 -51.6898 17.9084 -1.56266 
-49.3844 20.8413 -1.56266 51.8176 17.9084 -1.56266 49.4427 20.5032 -1.56266 
-45.1434 24.9675 -1.56266 -42.3253 27.2281 -1.56266 -42.3253 24.9675 4.94777 
-35.2662 31.1164 -1.56266 28.2655 30.9909 -1.56266 35.3246 29.5051 -1.56266 
43.9004 24.9675 -1.56266 42.3837 25.9466 -1.56266 -32.6377 32.0266 -1.56266 
-28.2071 33.4395 -1.56266 -28.2071 32.0266 3.86734 -21.1481 34.5186 -1.56266 
-14.089 35.1077 -1.56266 -7.0299 34.7541 -1.56266 0.0291836 34.9602 -1.56266 
7.08826 35.1183 -1.56266 14.1473 34.135 -1.56266 14.1473 32.0266 5.31714 
23.4691 32.0266 -1.56266 21.2064 32.5075 -1.56266 21.2064 32.0266 0.352795 
-42.3253 -24.8006 5.49642 -35.2662 -27.4734 5.49642 -28.2071 -29.0551 5.49642 
-21.1481 -29.781 5.49642 -14.089 -30.1891 5.49642 -7.0299 -30.713 5.49642 
0.0291836 -30.782 5.49642 7.08826 -30.5488 5.49642 14.1473 -30.2382 5.49642 
21.2064 -29.4271 5.49642 28.2655 -28.0163 5.49642 35.3246 -25.9057 5.49642 
-42.8426 -24.4461 5.49642 -49.3844 -19.0212 5.49642 -42.3253 -24.4461 6.24048 
28.2655 -24.4461 12.4649 38.5557 -24.4461 5.49642 35.3246 -24.4461 8.08431 
42.3837 -22.4706 5.49642 -50.722 -17.387 5.49642 -49.3844 -17.387 8.01495 
48.9981 -17.387 5.49642 49.4427 -16.8702 5.49642 -54.8749 -10.3279 5.49642 
53.4577 -10.3279 5.49642 49.4427 -10.3279 11.6228 -56.1201 -3.26882 5.49642 
56.0615 -3.26882 5.49642 -55.8723 3.79026 5.49642 56.398 3.79026 5.49642 
-54.0681 10.8493 5.49642 -49.3844 10.8493 12.1628 54.6464 10.8493 5.49642 
-49.486 17.9084 5.49642 -49.3844 18.0399 5.49642 -49.3844 17.9084 5.64784 
-42.3253 24.7471 5.49642 51.1797 17.9084 5.49642 49.4427 19.8994 5.49642 
49.4427 17.9084 8.90703 -42.004 24.9675 5.49642 -35.2662 29.1841 5.49642 
-35.2662 24.9675 11.0447 -28.2071 31.535 5.49642 14.1473 31.9583 5.49642 
21.2064 30.5744 5.49642 28.2655 29.6269 5.49642 35.3246 28.5256 5.49642 
35.3246 24.9675 11.8771 42.8704 24.9675 5.49642 42.3837 25.267 5.49642 
42.3837 24.9675 6.31323 -25.7667 32.0266 5.49642 -21.1481 32.859 5.49642 
-21.1481 32.0266 6.8608 -14.089 32.8729 5.49642 -14.089 32.0266 6.7653 
-7.0299 32.481 5.49642 -7.0299 32.0266 6.15753 0.0291836 32.6785 5.49642 
0.0291836 32.0266 6.40343 13.7082 32.0266 5.49642 7.08826 32.9616 5.49642 
7.08826 32.0266 6.7579 -35.2662 -25.1323 12.5555 -28.2071 -27.3052 12.5555 
-21.1481 -28.5144 12.5555 -14.089 -29.2178 12.5555 -7.0299 -29.2084 12.5555 
0.0291836 -28.584 12.5555 7.08826 -28.0408 12.5555 14.1473 -27.4775 12.5555 
21.2064 -26.216 12.5555 -36.7088 -24.4461 12.5555 -42.3253 -21.1703 12.5555 
-35.2662 -24.4461 13.6411 -28.2071 -24.4461 16.8374 -21.1481 -24.4461 18.9749 
-7.0299 -24.4461 18.5881 0.0291836 -24.4461 17.394 7.08826 -24.4461 16.9243 
14.1473 -24.4461 16.2124 28.0674 -24.4461 12.5555 21.2064 -24.4461 14.6195 
28.2655 -24.3849 12.5555 35.3246 -21.5749 12.5555 42.3837 -17.387 12.5555 
-46.4761 -17.387 12.5555 -49.3844 -13.224 12.5555 -42.3253 -17.387 16.3711 
28.2655 -17.387 18.5126 35.3246 -17.387 16.5867 42.3837 -17.387 12.5555 
[...]
POINT_DATA 540
SCALARS ImageScalars float
LOOKUP_TABLE default
0 0 0 0 0 0 0 0 0 
0 0 0 0 0 0 0 0 0 
0 0 0 0 0 0 0 0 0 
0 0 0 0 0 0 0 0 0 
0 0 0 0 0 0 0 0 0 
0 0 0 0 0 0 0 0 0 
0 0 0 0 0 0 0 0 0 
0 0 0 0 0 0 0 0 0 
0 0 0 0 0 0 0 0 0 
0 0 0 0 0 0 0 0 0 
0 0 0 0 0 0 0 0 0 
0 0 0 0 0 0 0 0 0 
0 0 0 0 0 0 0 0 0 
0 0 0 0 0 0 0 0 0 
0 0 0 0 0 0 0 0 0 
0 0 0 0 0 0 0 0 0 
0 0 0 0 0 0 0 0 0 
0 0 0 0 0 0 0 0 0 
0 0 0 0 0 0 0 0 0 
0 0 0 0 0 0 0 0 0 
0 0 0 0 0 0 0 0 0 
0 0 0 0 0 0 0 0 0 
0 0 0 0 0 0 0 0 0 
0 0 0 0 0 0 0 0 0 
0 0 0 0 0 0 0 0 0 
0 0 0 0 0 0 0 0 0 
0 0 0 0 0 0 0 0 0 
0 0 0 0 0 0 0 0 0 
0 0 0 0 0 0 0 0 0 
0 0 0 0 0 0 0 0 0 
0 0 0 0 0 0 0 0 0 
0 0 0 0 0 0 0 0 0 
0 0 0 0 0 0 0 0 0 
0 0 0 0 0 0 0 0 0 
0 0 0 0 0 0 0 0 0 
0 0 0 0 0 0 0 0 0 
0 0 0 0 0 0 0 0 0 
0 0 0 0 0 0 0 0 0 
0 0 0 0 0 0 0 0 0 
0 0 0 0 0 0 0 0 0 
0 0 0 0 0 0 0 0 0 
0 0 0 0 0 0 0 0 0 
0 0 0 0 0 0 0 0 0 
0 0 0 0 0 0 0 0 0 
0 0 0 0 0 0 0 0 0 
0 0 0 0 0 0 0 0 0 
0 0 0 0 0 0 0 0 0 
0 0 0 0 0 0 0 0 0 
0 0 0 0 0 0 0 0 0 
0 0 0 0 0 0 0 0 0 
0 0 0 0 0 0 0 0 0 
0 0 0 0 0 0 0 0 0 
0 0 0 0 0 0 0 0 0 
0 0 0 0 0 0 0 0 0 
0 0 0 0 0 0 0 0 0 
0 0 0 0 0 0 0 0 0 
0 0 0 0 0 0 0 0 0 
0 0 0 0 0 0 0 0 0 
0 0 0 0 0 0 0 0 0 
0 0 0 0 0 0 0 0 0 

NORMALS Normals float
0.0488212 0.614953 0.787051 -0.0498002 0.619783 0.783192 0.176417 0.710988 0.680716 
0.193763 0.63657 0.746481 0.0991898 0.563941 0.819837 -0.0248213 0.553506 0.832475 
-0.156416 0.64299 0.749732 -0.269043 0.720123 0.639561 0.413842 0.458038 0.786725 
0.15307 0.386114 0.909662 0.00217815 0.302516 0.953142 -0.0595681 0.274311 0.959794 
-0.030034 0.227972 0.973204 0.132731 0.268313 0.954144 0.205442 0.281179 0.937407 
0.109677 0.241471 0.96419 0.0417238 0.159211 0.986363 0.0347531 0.138798 0.989711 
-0.0649675 0.20911 0.975732 -0.216458 0.280452 0.935143 -0.400344 0.388132 0.830107 
0.645074 0.236608 0.726564 0.318962 0.178412 0.930824 0.107655 0.150291 0.982763 
-0.0186452 0.145898 0.989124 -0.133661 0.136556 0.981574 -0.0702036 0.100775 0.992429 
0.147777 0.0788747 0.985871 0.209749 0.0363855 0.977078 0.0587607 0.0590653 0.996523 
-0.0153161 -0.123238 0.992259 0.0313854 -0.122433 0.99198 0.00209274 -0.0770897 0.997022 
-0.102941 0.0453356 0.993654 -0.273672 0.0928051 0.957335 -0.598825 0.171934 0.782206 
0.608818 0.0168492 0.793131 0.313849 0.0252928 0.949136 0.108265 0.0261391 0.993778 
-0.0319081 0.0245657 0.999189 -0.109713 0.0106083 0.993907 -0.0778865 0.0543028 0.995482 
0.0707026 0.0282992 0.997096 0.197394 -0.03476 0.979708 -0.0535369 -0.0344153 0.997973 
-0.150233 -0.283718 0.947066 0.0802581 -0.260659 0.962089 0.106429 -0.178459 0.978174 
-0.0574175 -0.142834 0.98808 -0.249598 -0.0900892 0.96415 -0.536905 -0.0518591 0.842047 
0.600135 -0.0593233 0.797696 0.306605 -0.101609 0.946398 0.107223 -0.0682526 0.99189 
-0.0315937 -0.0812309 0.996194 -0.103985 -0.111147 0.988349 -0.0611761 -0.121408 0.990716 
0.0528287 -0.167313 0.984487 0.129662 -0.266155 0.95517 -0.187027 -0.338571 0.922166 
-0.203263 -0.280644 0.938042 0.152383 -0.234599 0.960074 0.128535 -0.239002 0.962474 
-0.0208061 -0.244155 0.969513 -0.208393 -0.206155 0.956071 -0.520932 -0.231237 0.821681 
0.311457 -0.23064 0.921846 0.126908 -0.21396 0.968564 -0.0722369 -0.224049 0.971897 
-0.141897 -0.165891 0.975882 -0.128339 -0.152709 0.979902 -0.0738189 -0.184238 0.980106 
-0.00577656 -0.284897 0.958541 -0.0605371 -0.342156 0.937691 -0.0190385 -0.112143 0.99351 
0.102293 -0.144536 0.984198 0.0799255 -0.251578 0.964531 -0.0291522 -0.311874 0.949676 
-0.252396 -0.370285 0.893971 0.422161 -0.457687 0.782498 0.130814 -0.373604 0.918318 
0.00841093 -0.300795 0.953652 -0.0355557 -0.209514 0.977159 -0.0795441 -0.121404 0.989411 
-0.0878701 -0.110098 0.990029 -0.0536772 -0.127531 0.990381 -0.027283 -0.169987 0.985069 
-0.0173979 -0.122559 0.992309 0.0155305 -0.212672 0.977 -0.0159655 -0.314016 0.949283 
-0.125673 -0.384957 0.914338 0.124402 -0.440756 0.888965 0.0542262 -0.417087 0.907247 
-0.0229033 -0.334124 0.942251 -0.0940383 -0.329303 0.93953 0.0511149 0.650384 0.757884 
-0.0497217 0.63162 0.773682 0.174671 0.7244 0.666884 0.220424 0.751703 0.621576 
0.0932845 0.805591 0.585083 -0.065903 0.829488 0.554623 -0.165331 0.805231 0.569446 
-0.282981 0.777874 0.5611 0.433085 0.52682 0.731367 0.491659 0.790147 0.365977 
0.152786 0.643185 0.750313 0.243735 0.62239 0.74379 0.262807 0.692501 0.671844 
-0.0536633 0.616632 0.78542 -0.0579534 0.587792 0.806934 -0.0586296 0.621057 0.781569 
0.133873 0.70124 0.700243 0.0497698 0.594066 0.802875 0.0284275 0.684078 0.728855 
-0.366678 0.763253 0.53197 -0.469123 0.697583 0.541573 -0.480413 0.852761 0.204943 
0.480702 0.48161 0.732787 0.648426 0.249253 0.719317 0.724675 0.538427 0.430048 
-0.624093 0.508436 0.593297 -0.658731 0.434379 0.61432 -0.681289 0.556462 0.4756 
0.65369 0.237062 0.718673 -0.705945 0.196801 0.680376 0.642767 0.0217103 0.765754 
-0.664408 -0.0261882 0.746911 -0.938318 0.0566265 0.341104 0.623431 -0.0610991 0.779488 
0.614977 -0.17956 0.767829 -0.582968 -0.226189 0.780376 -0.529368 -0.293749 0.795915 
-0.920101 -0.204027 0.334347 0.59031 -0.268836 0.761093 0.628388 -0.275054 0.72765 
-0.403747 -0.382699 0.830981 -0.295873 -0.447209 0.844075 -0.573698 -0.404315 0.71232 
0.431119 -0.460568 0.775896 0.714366 -0.550563 0.431928 0.424726 -0.464441 0.777112 
0.234298 -0.534098 0.812308 -0.0670904 -0.246774 0.966748 -0.0351661 -0.227196 0.973214 
-0.0286789 -0.172465 0.984598 -0.00613825 -0.257338 0.966302 -0.0317664 -0.352967 0.935096 
-0.151578 -0.40145 0.903251 -0.132295 -0.398668 0.907503 -0.372592 -0.543921 0.751881 
0.530796 -0.723737 0.440977 0.143893 -0.463338 0.874422 0.300411 -0.643672 0.703875 
0.128172 -0.455574 0.880922 0.0568197 -0.449968 0.891235 -0.012404 -0.42446 0.905362 
-0.0883822 -0.32502 0.941568 -0.0933595 -0.350128 0.932038 -0.0749566 -0.322325 0.943657 
-0.0482227 -0.327205 0.943722 -0.0709204 -0.371682 0.925647 -0.11524 -0.507855 0.8537 
-0.155474 -0.629699 0.761122 -0.286199 -0.740063 0.608602 0.25413 -0.88468 0.390844 
0.0966385 -0.828112 0.55217 0.000911062 -0.81765 0.575715 -0.0325356 -0.826874 0.561446 
-0.0139051 -0.802238 0.596842 -0.0730117 -0.777549 0.624569 -0.183019 -0.83588 0.517502 
0.488516 0.812435 0.31828 0.260932 0.92461 0.277508 0.11927 0.956326 0.266863 
-0.00232087 0.950504 0.310703 -0.0602731 0.934627 0.350485 0.00955907 0.912758 0.408389 
0.110586 0.918879 0.378723 0.134001 0.95738 0.255867 0.051683 0.985519 0.161498 
-0.0592355 0.987855 0.143647 -0.171346 0.976497 0.130746 -0.341795 0.930852 0.129194 
-0.474393 0.873918 0.10592 0.512107 0.79774 0.318366 0.730821 0.590223 0.342839 
-0.500144 0.85889 0.110287 -0.702015 0.694485 0.15769 0.764445 0.542982 0.347555 
-0.771948 0.612903 0.168661 0.881327 0.298186 0.366536 -0.932529 0.283871 0.223175 
-0.953944 0.138418 0.266143 0.926177 0.0698091 0.370571 0.986487 0.0705764 0.147858 
-0.955455 0.0631498 0.2883 0.92376 -0.0864945 0.373077 0.988198 -0.0883633 0.125129 
-0.924151 -0.202496 0.323945 -0.921461 -0.209672 0.327027 0.870946 -0.317683 0.374874 
-0.80817 -0.419538 0.413339 -0.640408 -0.621127 0.451751 0.74674 -0.551472 0.371832 
0.724616 -0.580927 0.370749 -0.62392 -0.632589 0.458862 -0.46552 -0.735873 0.491714 
-0.653163 -0.636376 0.410371 0.560336 -0.73422 0.383332 0.540056 -0.748898 0.384047 
0.377063 -0.828405 0.414208 -0.21978 -0.83577 0.503176 -0.226905 -0.830924 0.508015 
-0.390619 -0.77616 0.494967 -0.305427 -0.805988 0.507047 -0.495052 -0.828848 0.260643 
0.265941 -0.888416 0.374156 0.255521 -0.891917 0.373086 0.109699 -0.912501 0.394091 
0.00225392 -0.912521 0.409023 -0.0163331 -0.909971 0.414351 -0.00233371 -0.884173 0.467154 
-0.0768234 -0.870796 0.485606 -0.19625 -0.855955 0.478358 -0.186069 -0.857599 0.479481 
-0.224998 -0.966356 0.124626 0.479446 0.877502 -0.0110125 0.232708 0.972273 -0.0230691 
0.113464 0.993505 -0.00856945 0.0307126 0.999507 0.00658854 0.0155597 0.997233 0.0726875 
0.049756 0.990602 0.127406 0.0520009 0.993708 0.0992012 0.0312844 0.999475 0.00847061 
-0.0269284 0.99731 -0.0681754 -0.111555 0.986968 -0.11597 -0.181494 0.971608 -0.151781 
-0.32617 0.932431 -0.155518 -0.477488 0.868273 -0.134567 0.557137 0.830374 -0.00876212 
0.727466 0.686123 0.00531622 -0.496886 0.856886 -0.137296 -0.481655 0.857628 -0.180227 
-0.685091 0.712125 -0.15339 0.824766 0.565214 0.0171428 -0.752027 0.64143 -0.151737 
-0.679633 0.643419 -0.352293 0.948367 0.315432 0.033201 0.983383 0.176979 0.040445 
-0.932259 0.341555 -0.119306 -0.961127 0.259046 -0.0955563 0.996553 0.0705233 0.0436878 
0.98753 0.0661358 -0.142864 -0.991186 0.117219 -0.0617287 -0.950828 0.153351 -0.269089 
0.99568 -0.0891421 0.0259939 0.98551 -0.167869 0.0242849 0.988672 -0.10014 -0.111805 
-0.990422 -0.13715 -0.0159698 -0.964881 -0.261269 0.0272762 -0.95693 -0.0922578 -0.275268 
0.943285 -0.331774 0.0118107 -0.930599 -0.361315 0.0586302 0.828404 -0.559247 -0.0314622 
0.758116 -0.651352 -0.0316324 -0.792604 -0.600665 0.104786 -0.723431 -0.680097 0.118811 
0.633423 -0.772838 -0.038696 0.571189 -0.819683 -0.0431529 0.540788 -0.744836 -0.390856 
0.39866 -0.916924 -0.0178717 -0.20158 -0.978428 0.0452123 -0.325854 -0.940026 0.10085 
-0.541435 -0.834798 0.0998039 -0.497664 -0.862223 0.0943479 0.331995 -0.942921 -0.0260473 
0.224108 -0.973844 -0.0374667 0.225701 -0.922816 -0.312202 0.113573 -0.992596 -0.0430639 
0.0167168 -0.998398 -0.0540643 -0.0104174 -0.997794 -0.0655648 0.0258596 -0.998305 -0.0521435 
-0.057001 -0.997797 -0.033932 -0.182597 -0.982787 -0.0280861 -0.156245 -0.881284 -0.446011 
-0.210051 -0.977678 0.00484479 -0.216258 -0.976286 -0.00996065 -0.203487 -0.972443 -0.113791 
0.471316 0.834872 -0.28434 0.265795 0.937213 -0.225799 0.149851 0.973947 -0.170209 
0.083316 0.988846 -0.123461 0.0653682 0.995214 -0.0726358 0.0416451 0.995227 -0.0882505 
-0.0112348 0.988467 -0.151019 -0.0380533 0.977023 -0.209711 -0.0752522 0.965448 -0.249494 
-0.147507 0.944504 -0.293519 -0.220516 0.91496 -0.337966 -0.333628 0.860541 -0.384918 
0.487147 0.826289 -0.282726 0.720761 0.632609 -0.283389 0.475437 0.823789 -0.308757 
-0.255909 0.773762 -0.579485 -0.401026 0.832891 -0.381405 -0.337575 0.823578 -0.455809 
-0.486267 0.784683 -0.384471 0.765032 0.576591 -0.286826 0.731553 0.564658 -0.382089 
-0.663943 0.640875 -0.385304 -0.682476 0.620212 -0.386734 0.908211 0.316995 -0.273255 
-0.826899 0.394209 -0.401044 -0.709842 0.405252 -0.576103 0.962732 0.0623992 -0.263159 
-0.925151 0.165736 -0.341508 0.945942 -0.117451 -0.302324 -0.950634 -0.0877739 -0.297642 
0.861166 -0.37291 -0.345443 0.656415 -0.389975 -0.645785 -0.914983 -0.311417 -0.256564 
0.735086 -0.54967 -0.396878 0.732468 -0.553076 -0.396985 0.732182 -0.549479 -0.402471 
0.535047 -0.733292 -0.419533 -0.785532 -0.571426 -0.237512 -0.73073 -0.641007 -0.234828 
-0.726588 -0.575439 -0.375419 0.528093 -0.738027 -0.42004 0.384488 -0.829736 -0.404608 
0.351665 -0.669 -0.654806 0.221349 -0.887874 -0.403341 -0.154561 -0.875282 -0.458249 
-0.142666 -0.89802 -0.41618 -0.130225 -0.927963 -0.349178 -0.273274 -0.914494 -0.298364 
-0.188362 -0.798964 -0.571118 -0.487613 -0.848491 -0.20566 -0.471996 -0.85733 -0.205437 
-0.46909 -0.849588 -0.241154 0.173437 -0.899267 -0.401545 0.0853171 -0.910009 -0.405716 
0.0766485 -0.87965 -0.469404 -0.0243631 -0.886995 -0.461135 -0.0310197 -0.859586 -0.510049 
-0.0128802 -0.878159 -0.478195 -0.0150748 -0.862906 -0.50514 0.0311007 -0.870783 -0.490683 
0.0278478 -0.849016 -0.527633 -0.148282 -0.87565 -0.459619 -0.0462999 -0.869801 -0.491225 
-0.0402611 -0.837022 -0.545686 0.347302 0.829375 -0.437627 0.217852 0.893197 -0.393369 
0.126245 0.932858 -0.3374 0.0459976 0.946245 -0.320162 -0.0414858 0.914224 -0.403081 
-0.0784312 0.868503 -0.48944 -0.0711506 0.860153 -0.505048 -0.112191 0.841215 -0.528933 
-0.18896 0.801866 -0.566837 0.378161 0.806987 -0.453615 0.51016 0.672059 -0.536725 
0.354728 0.798864 -0.485782 0.22679 0.734525 -0.639562 0.140862 0.681813 -0.717837 
-0.130385 0.592726 -0.79478 -0.0911871 0.592806 -0.800167 -0.0648797 0.647207 -0.759549 
-0.122077 0.683988 -0.719207 -0.254174 0.771927 -0.582688 -0.189256 0.727567 -0.659415 
-0.255677 0.770794 -0.583529 -0.337693 0.724978 -0.600308 -0.469695 0.63945 -0.608679 
0.638881 0.535135 -0.552686 0.709868 0.388184 -0.587708 0.508249 0.491641 -0.707087 
-0.179006 0.538119 -0.823641 -0.303265 0.606535 -0.734946 -0.469696 0.639449 -0.608679 
-0.469694 0.639449 -0.608681 0.745721 0.294951 -0.597415 0.685353 0.282604 -0.671138 
0.424544 0.188788 -0.885506 -0.680989 0.409622 -0.607012 -0.474953 0.433247 -0.765974 
-0.708698 0.369425 -0.601059 0.780988 0.0312483 -0.623764 0.668395 0.0118811 -0.743711 
-0.785814 0.208753 -0.582167 -0.70422 0.213005 -0.677276 0.739598 -0.164376 -0.652667 
0.654392 -0.363257 -0.663186 0.658405 -0.167075 -0.733886 0.386736 -0.159785 -0.908242 
-0.818706 -0.0514637 -0.571902 -0.706405 -0.0539852 -0.705746 0.638234 -0.388197 -0.664801 
0.407573 -0.339521 -0.847709 0.208522 -0.298821 -0.931249 0.00390314 -0.233505 -0.972348 
-0.776871 -0.293145 -0.557259 -0.723801 -0.415601 -0.550806 -0.724391 -0.283234 -0.628519 
0.494688 -0.537418 -0.682983 0.470696 -0.555575 -0.685406 0.462942 -0.53392 -0.707541 
0.325237 -0.609443 -0.723049 0.259003 -0.481257 -0.837442 0.109669 -0.433425 -0.894492 
-0.00877968 -0.382828 -0.923778 -0.0628396 -0.370169 -0.926836 0.00346368 -0.396607 -0.917982 
0.0159799 -0.397718 -0.917369 -0.037776 -0.369952 -0.928283 0.0489945 -0.434819 -0.899184 
0.134924 -0.506329 -0.85172 0.0406214 -0.544243 -0.837944 -0.178149 -0.778726 -0.601539 
-0.177152 -0.577995 -0.79658 -0.60154 -0.568728 -0.560979 -0.43011 -0.703345 -0.565961 
-0.404683 -0.562532 -0.720964 0.238642 -0.63208 -0.737242 0.174991 -0.644443 -0.744359 
0.169746 -0.616263 -0.76903 0.0402622 -0.648887 -0.759819 0.0370561 -0.571285 -0.819915 
-0.0526198 -0.622406 -0.780924 -0.0541525 -0.558037 -0.828048 -0.0231521 -0.610446 -0.79172 
-0.0218336 -0.571399 -0.820382 0.00372017 -0.627348 -0.77873 0.00206914 -0.591175 -0.806541 
-0.0401458 -0.602706 -0.796953 -0.0456057 -0.566593 -0.822735 -0.0261912 -0.595489 -0.802936 
-0.0216761 -0.585622 -0.810294 0.00719869 -0.708793 -0.70538 0.0222869 -0.689766 -0.723689 
-0.128746 -0.778657 -0.614099 -0.0611384 -0.771067 -0.633813 -0.0534013 -0.756775 -0.651491 
-0.0267396 0.62979 -0.776305 0.3136 0.389798 -0.865859 0.217872 0.508362 -0.833127 
0.0288906 0.634489 -0.772392 0.133671 0.620218 -0.772956 -0.0511789 0.606524 -0.793416 
-0.0288818 0.616121 -0.787122 -0.151267 0.464128 -0.872756 -0.0906305 0.265938 -0.95972 
-0.0153379 0.311296 -0.950189 -0.0556485 0.38174 -0.922593 -0.102363 0.444208 -0.890057 
0.323606 0.376786 -0.867935 0.310311 0.370468 -0.875477 0.204911 0.318217 -0.925608 
0.0734357 0.274378 -0.958814 -0.0872679 0.240019 -0.966838 -0.180581 0.232591 -0.955663 
-0.0910164 0.179448 -0.979548 -0.00145286 0.230582 -0.973052 -0.0395346 0.334146 -0.941692 
-0.104522 0.445754 -0.889033 -0.101098 0.441809 -0.891394 -0.147094 0.483884 -0.862682 
-0.264642 0.480546 -0.836086 0.377505 0.170563 -0.910164 0.391105 0.0326451 -0.919767 
0.238669 0.13457 -0.961732 0.140704 0.0618879 -0.988115 0.063543 -0.00300685 -0.997975 
-0.0705044 0.0610074 -0.995644 -0.224015 0.154535 -0.962256 -0.097328 0.0459696 -0.99419 
0.108566 0.0749113 -0.991263 0.0981533 0.198291 -0.975216 0.00302024 0.293127 -0.956069 
-0.0819134 0.36986 -0.925469 -0.365999 0.422689 -0.829083 -0.246342 0.410941 -0.877749 
-0.462943 0.321362 -0.826081 0.391604 -0.00265107 -0.92013 0.383553 -0.0310626 -0.922996 
0.383045 -0.00309507 -0.923724 0.20052 -0.0298747 -0.979234 0.0679035 -0.0623055 -0.995745 
0.0718194 -0.109355 -0.991405 0.0688516 -0.0681785 -0.995295 -0.188346 0.0528171 -0.980681 
-0.178064 0.0451244 -0.982984 0.153982 -0.0128319 -0.98799 0.186152 0.0303317 -0.982053 
0.0946055 0.0924695 -0.991211 -0.0192743 0.174369 -0.984492 -0.229386 0.204068 -0.951703 
-0.524893 0.212199 -0.824293 -0.452948 0.213616 -0.865567 0.323598 -0.154611 -0.933477 
0.207584 -0.293791 -0.933057 0.181543 -0.156358 -0.970873 0.0627055 -0.160234 -0.985085 
0.0501133 -0.172142 -0.983797 0.090274 -0.264318 -0.960201 -0.0989578 -0.258623 -0.960896 
-0.169631 -0.0729196 -0.982806 0.0210497 -0.215962 -0.976175 0.0926304 -0.140643 -0.985718 
0.20822 -0.210181 -0.955232 0.149196 -0.155419 -0.976517 0.0243624 -0.138245 -0.990098 
-0.204211 -0.084869 -0.975241 -0.549804 -0.0601693 -0.833124 -0.459842 -0.0666913 -0.885493 
0.201475 -0.297331 -0.933275 0.0733854 -0.325286 -0.942764 0.058373 -0.271574 -0.960646 
-0.0306294 -0.302205 -0.952751 -0.0376234 -0.261301 -0.964524 -0.0421314 -0.330966 -0.942702 
-0.035867 -0.328628 -0.943778 0.000195096 -0.409224 -0.912434 -0.00148981 -0.4123 -0.911047 
-0.0148425 -0.230072 -0.97306 -0.0296757 -0.24858 -0.968157 -0.0390966 -0.227569 -0.972977 
0.0704025 -0.28613 -0.955601 0.14785 -0.366813 -0.918471 0.16263 -0.357869 -0.9195 
0.152681 -0.452273 -0.878713 0.158117 -0.365321 -0.917355 0.0431921 -0.527409 -0.848513 
0.0499287 -0.342891 -0.938047 -0.17228 -0.526305 -0.83266 -0.148937 -0.333656 -0.930855 
-0.452975 -0.300935 -0.839197 -0.425521 -0.330397 -0.842478 -0.43024 -0.306653 -0.849033 

