# vtk DataFile Version 4.2
vtk output
ASCII
DATASET POLYDATA
POINTS 484 float
-10.9257 -31.6151 -15.359 -2.40568 -31.6151 -15.5917 6.11433 -31.6151 -15.645 
14.6343 -31.6151 -15.2161 -27.9657 -23.0951 -15.5428 -19.4457 -23.0951 -17.241 
-10.9257 -23.0951 -17.6756 -2.40568 -23.0951 -16.9564 6.11433 -23.0951 -17.1399 
14.6343 -23.0951 -17.3018 23.1544 -23.0951 -16.6429 31.6744 -23.0951 -15.7299 
-27.9657 -14.5751 -16.3618 -19.4457 -14.5751 -17.3358 -10.9257 -14.5751 -18.5529 
-2.40568 -14.5751 -18.6906 6.11433 -14.5751 -19.2442 14.6343 -14.5751 -18.7715 
23.1544 -14.5751 -18.681 31.6744 -14.5751 -18.827 40.1944 -14.5751 -18.5951 
48.7144 -14.5751 -17.1131 -36.4857 -6.05508 -15.5959 -27.9657 -6.05508 -15.9083 
-19.4457 -6.05508 -16.5415 -10.9257 -6.05508 -19.7747 -2.40568 -6.05508 -18.549 
6.11433 -6.05508 -20.9506 14.6343 -6.05508 -21.1012 23.1544 -6.05508 -19.8836 
31.6744 -6.05508 -20.6566 40.1944 -6.05508 -21.1384 48.7144 -6.05508 -20.5151 
57.2344 -6.05508 -17.3796 -36.4857 2.46493 -15.4768 -27.9657 2.46493 -15.9187 
-19.4457 2.46493 -16.7574 -10.9257 2.46493 -21.7168 -2.40568 2.46493 -18.3472 
6.11433 2.46493 -21.8372 14.6343 2.46493 -20.1358 23.1544 2.46493 -19.3373 
31.6744 2.46493 -21.212 40.1944 2.46493 -22.3538 48.7144 2.46493 -21.613 
57.2344 2.46493 -19.6883 -36.4857 10.9849 -16.6357 -27.9657 10.9849 -17.0432 
-19.4457 10.9849 -18.1185 -10.9257 10.9849 -19.7188 -2.40568 10.9849 -19.7832 
6.11433 10.9849 -23.0836 14.6343 10.9849 -19.2424 23.1544 10.9849 -19.0313 
31.6744 10.9849 -20.7869 40.1944 10.9849 -22.1841 48.7144 10.9849 -21.5616 
57.2344 10.9849 -19.8504 -36.4857 19.505 -17.1297 -27.9657 19.505 -18.8021 
-19.4457 19.505 -20.1546 -10.9257 19.505 -20.4127 -2.40568 19.505 -19.8685 
6.11433 19.505 -20.101 14.6343 19.505 -20.4082 23.1544 19.505 -20.6223 
31.6744 19.505 -21.0913 40.1944 19.505 -21.4537 48.7144 19.505 -21.9364 
57.2344 19.505 -18.3875 -36.4857 28.025 -16.4649 -27.9657 28.025 -19.3081 
-19.4457 28.025 -21.3167 -10.9257 28.025 -21.6997 -2.40568 28.025 -20.5674 
6.11433 28.025 -19.8926 14.6343 28.025 -20.5178 23.1544 28.025 -20.7418 
31.6744 28.025 -21.9078 40.1944 28.025 -20.5352 48.7144 28.025 -19.8836 
-27.9657 36.545 -17.9078 -19.4457 36.545 -21.134 -10.9257 36.545 -21.1687 
-2.40568 36.545 -20.022 6.11433 36.545 -18.9032 14.6343 36.545 -18.2604 
23.1544 36.545 -19.2845 31.6744 36.545 -20.1309 40.1944 36.545 -17.9538 
-19.4457 45.065 -16.3658 -10.9257 45.065 -16.964 -2.40568 45.065 -15.4801 
-19.4457 -40.1351 -8.27652 -10.9257 -32.4204 -15.0261 -10.9257 -40.1351 -11.0755 
-2.40568 -32.9851 -15.0261 -2.40568 -40.1351 -11.6226 6.11433 -33.1116 -15.0261 
6.11433 -40.1351 -11.6388 14.6343 -32.0583 -15.0261 14.6343 -40.1351 -10.5152 
23.1544 -40.1351 -7.23054 -36.4857 -31.6151 -7.30042 -27.9657 -24.5287 -15.0261 
-27.9657 -31.6151 -11.8338 -15.4838 -31.6151 -15.0261 -19.4457 -30.7143 -15.0261 
-19.4457 -31.6151 -14.7155 15.9394 -31.6151 -15.0261 23.1544 -28.2767 -15.0261 
23.1544 -31.6151 -13.8841 31.6744 -24.7111 -15.0261 31.6744 -31.6151 -11.3999 
40.1944 -31.6151 -7.51794 -45.0058 -23.0951 -7.6711 -29.9388 -23.0951 -15.0261 
-36.4857 -23.0951 -12.893 36.3893 -23.0951 -15.0261 40.1944 -21.8939 -15.0261 
40.1944 -23.0951 -14.2934 48.7144 -17.7529 -15.0261 48.7144 -23.0951 -10.5835 
-45.0058 -14.5751 -11.7024 -34.3385 -14.5751 -15.0261 -36.4857 -10.9666 -15.0261 
-36.4857 -14.5751 -14.5562 52.9337 -14.5751 -15.0261 57.2344 -10.486 -15.0261 
57.2344 -14.5751 -11.7051 -53.5258 -6.05508 -8.50461 -39.137 -6.05508 -15.0261 
-45.0058 -6.05508 -13.483 60.3748 -6.05508 -15.0261 -53.5258 2.46493 -9.43746 
-41.2339 2.46493 -15.0261 -45.0058 2.46493 -14.6063 63.5133 2.46493 -15.0261 
65.7544 2.46493 -8.52205 -53.5258 10.9849 -9.27132 -44.8694 10.9849 -15.0261 
-45.0058 10.9849 -14.9923 64.1054 10.9849 -15.0261 -53.5258 19.505 -7.25141 
-43.941 19.505 -15.0261 -45.0058 19.505 -14.6557 61.4837 19.505 -15.0261 
57.2344 25.9108 -15.0261 -38.9012 28.025 -15.0261 -45.0058 28.025 -10.9137 
-36.4857 31.6845 -15.0261 55.6812 28.025 -15.0261 48.7144 34.3684 -15.0261 
57.2344 28.025 -9.21708 -33.2526 36.545 -15.0261 -36.4857 36.545 -12.1905 
-27.9657 41.6891 -15.0261 6.11433 42.451 -15.0261 14.6343 42.052 -15.0261 
23.1544 42.8687 -15.0261 31.6744 41.4086 -15.0261 45.3421 36.545 -15.0261 
40.1944 39.3319 -15.0261 -22.4643 45.065 -15.0261 -19.4457 46.1255 -15.0261 
-10.9257 46.8635 -15.0261 -1.1401 45.065 -15.0261 -2.40568 45.3778 -15.0261 
6.11433 45.065 -9.58655 -19.4457 -41.6303 -6.50613 -10.9257 -44.2327 -6.50613 
-2.40568 -45.333 -6.50613 6.11433 -45.261 -6.50613 14.6343 -43.7497 -6.50613 
23.1544 -40.7484 -6.50613 -36.4857 -32.4891 -6.50613 -23.1479 -40.1351 -6.50613 
-27.9657 -37.8367 -6.50613 -27.9657 -40.1351 -2.20484 24.6623 -40.1351 -6.50613 
31.6744 -36.9642 -6.50613 31.6744 -40.1351 -1.47986 40.1944 -32.644 -6.50613 
-37.8233 -31.6151 -6.50613 -45.0058 -25.0297 -6.50613 41.9661 -31.6151 -6.50613 
48.7144 -27.3908 -6.50613 -46.6829 -23.0951 -6.50613 53.4583 -23.0951 -6.50613 
57.2344 -19.3896 -6.50613 -52.1594 -14.5751 -6.50613 -53.5258 -11.153 -6.50613 
-53.5258 -14.5751 -4.76754 60.9255 -14.5751 -6.50613 -55.4448 -6.05508 -6.50613 
64.9168 -6.05508 -6.50613 65.7544 -1.12334 -6.50613 -57.3031 2.46493 -6.50613 
-62.0458 2.46493 1.36073 66.3966 2.46493 -6.50613 65.7544 8.88546 -6.50613 
65.7544 2.46493 -5.36632 -56.8438 10.9849 -6.50613 65.5535 10.9849 -6.50613 
-54.1377 19.505 -6.50613 -53.5258 21.046 -6.50613 63.3345 19.505 -6.50613 
-50.2794 28.025 -6.50613 -45.0058 33.3028 -6.50613 40.1944 28.025 1.94735 
48.7144 34.6916 -6.50613 48.7144 28.025 1.95439 57.839 28.025 -6.50613 
57.2344 28.7091 -6.50613 57.2344 28.025 -5.69474 -41.729 36.545 -6.50613 
-36.4857 40.3343 -6.50613 -27.9657 45.0412 -6.50613 14.6343 44.3561 -6.50613 
23.1544 43.601 -6.50613 23.1544 36.545 0.402688 31.6744 41.2118 -6.50613 
31.6744 36.545 -1.85381 46.6914 36.545 -6.50613 40.1944 39.7514 -6.50613 
40.1944 36.545 -2.41489 -27.8993 45.065 -6.50613 -19.4457 47.8253 -6.50613 
-19.4457 45.065 0.0714992 -10.9257 48.6484 -6.50613 -10.9257 45.065 1.18748 
-2.40568 47.7535 -6.50613 -2.40568 45.065 -0.621241 11.0341 45.065 -6.50613 
6.11433 45.9151 -6.50613 6.11433 45.065 -4.68598 -27.9657 -41.8418 2.01389 
-19.4457 -44.9737 2.01389 -10.9257 -47.3955 2.01389 -2.40568 -48.6459 2.01389 
6.11433 -48.4214 2.01389 14.6343 -46.7774 2.01389 23.1544 -44.2628 2.01389 
31.6744 -41.6903 2.01389 -31.3964 -40.1351 2.01389 -36.4857 -37.4026 2.01389 
34.7091 -40.1351 2.01389 40.1944 -37.0159 2.01389 -44.2908 -31.6151 2.01389 
-45.0058 -30.985 2.01389 47.5464 -31.6151 2.01389 48.7144 -30.4098 2.01389 
-53.0694 -23.0951 2.01389 -53.5258 -22.3926 2.01389 54.8829 -23.0951 2.01389 
57.2344 -18.5303 2.01389 -57.4713 -14.5751 2.01389 59.294 -14.5751 2.01389 
57.2344 -14.5751 4.30936 -60.6252 -6.05508 2.01389 -62.0458 0.989483 2.01389 
61.8661 -6.05508 2.01389 57.2344 -6.05508 7.29387 -62.318 2.46493 2.01389 
-62.0458 5.08417 2.01389 -62.0458 2.46493 6.05775 48.7144 2.46493 9.39969 
61.3607 2.46493 2.01389 57.2344 2.46493 5.59045 -61.4658 10.9849 2.01389 
40.1944 10.9849 9.31431 48.7144 10.9849 7.00623 58.8594 10.9849 2.01389 
57.2344 10.9849 3.18947 -58.5767 19.505 2.01389 -53.5258 27.2322 2.01389 
23.1544 19.505 7.95826 31.6744 19.505 7.41133 40.1944 27.8875 2.01389 
40.1944 19.505 6.12777 48.7144 27.9069 2.01389 48.7144 19.505 4.31748 
58.0615 19.505 2.01389 57.2344 20.524 2.01389 57.2344 19.505 2.65646 
-52.9121 28.025 2.01389 -45.0058 34.8268 2.01389 14.6343 28.025 6.9266 
23.1544 33.8587 2.01389 23.1544 28.025 4.958 39.9476 28.025 2.01389 
31.6744 31.5024 2.01389 31.6744 28.025 4.1198 -42.312 36.545 2.01389 
-36.4857 39.8388 2.01389 -36.4857 36.545 8.74918 -27.9657 42.78 2.01389 
-19.4457 44.1575 2.01389 -10.9257 44.5956 2.01389 -2.40568 43.5183 2.01389 
-2.40568 36.545 9.35447 6.11433 40.7768 2.01389 6.11433 36.545 6.07474 
18.1222 36.545 2.01389 14.6343 37.9013 2.01389 14.6343 36.545 3.02025 
-27.9657 -41.5215 10.5339 -19.4457 -44.2416 10.5339 -10.9257 -46.2751 10.5339 
-2.40568 -47.4078 10.5339 6.11433 -47.1441 10.5339 14.6343 -45.3907 10.5339 
23.1544 -43.027 10.5339 31.6744 -40.6 10.5339 -30.8112 -40.1351 10.5339 
-36.4857 -37.1197 10.5339 -27.9657 -40.1351 13.3085 -19.4457 -40.1351 17.6252 
-10.9257 -40.1351 18.77 -2.40568 -40.1351 19.0432 6.11433 -40.1351 18.2401 
14.6343 -40.1351 17.0435 23.1544 -40.1351 14.0469 32.6027 -40.1351 10.5339 
31.6744 -40.1351 11.198 40.1944 -34.6807 10.5339 -44.393 -31.6151 10.5339 
-45.0058 -31.0688 10.5339 23.1544 -31.6151 18.985 31.6744 -31.6151 17.6877 
43.8891 -31.6151 10.5339 40.1944 -31.6151 13.7147 48.7144 -25.1012 10.5339 
-52.8448 -23.0951 10.5339 -53.5258 -22.0573 10.5339 31.6744 -23.0951 18.6098 
40.1944 -23.0951 16.8704 49.8337 -23.0951 10.5339 48.7144 -23.0951 11.5151 
-57.2378 -14.5751 10.5339 -53.5258 -14.5751 16.3022 14.6343 -14.5751 18.8912 
23.1544 -14.5751 18.9549 31.6744 -14.5751 17.8178 40.1944 -14.5751 16.128 
50.2605 -14.5751 10.5339 48.7144 -14.5751 12.0083 -60.2444 -6.05508 10.5339 
14.6343 -6.05508 16.3189 23.1544 -6.05508 16.2253 31.6744 -6.05508 15.668 
40.1944 -6.05508 14.1379 50.7198 -6.05508 10.5339 48.7144 -2.513 10.5339 
48.7144 -6.05508 11.4108 -61.7044 2.46493 10.5339 6.11433 2.46493 15.4158 
14.6343 2.46493 15.3749 23.1544 2.46493 14.1603 31.6744 2.46493 13.3307 
45.3823 2.46493 10.5339 40.1944 7.55276 10.5339 40.1944 2.46493 12.2306 
-60.674 10.9849 10.5339 -53.5258 10.9849 18.9738 -10.9257 10.9849 17.6146 
-2.40568 10.9849 16.8195 6.11433 10.9849 14.9882 14.6343 10.9849 15.3341 
23.1544 13.8477 10.5339 23.1544 10.9849 11.7965 32.0922 10.9849 10.5339 
31.6744 11.1588 10.5339 31.6744 10.9849 10.5968 -57.2087 19.505 10.5339 
-53.5258 24.3617 10.5339 -53.5258 19.505 15.3911 -19.4457 19.505 18.5818 
-10.9257 19.505 17.0879 -2.40568 19.505 15.2313 6.11433 19.505 14.176 
15.9115 19.505 10.5339 14.6343 20.3965 10.5339 14.6343 19.505 11.025 
-49.1638 28.025 10.5339 -45.0058 31.0612 10.5339 -45.0058 28.025 13.6081 
[...]
POINT_DATA 484
SCALARS ImageScalars float
LOOKUP_TABLE default
0 0 0 0 0 0 0 0 0 
0 0 0 0 0 0 0 0 0 
0 0 0 0 0 0 0 0 0 
0 0 0 0 0 0 0 0 0 
0 0 0 0 0 0 0 0 0 
0 0 0 0 0 0 0 0 0 
0 0 0 0 0 0 0 0 0 
0 0 0 0 0 0 0 0 0 
0 0 0 0 0 0 0 0 0 
0 0 0 0 0 0 0 0 0 
0 0 0 0 0 0 0 0 0 
0 0 0 0 0 0 0 0 0 
0 0 0 0 0 0 0 0 0 
0 0 0 0 0 0 0 0 0 
0 0 0 0 0 0 0 0 0 
0 0 0 0 0 0 0 0 0 
0 0 0 0 0 0 0 0 0 
0 0 0 0 0 0 0 0 0 
0 0 0 0 0 0 0 0 0 
0 0 0 0 0 0 0 0 0 
0 0 0 0 0 0 0 0 0 
0 0 0 0 0 0 0 0 0 
0 0 0 0 0 0 0 0 0 
0 0 0 0 0 0 0 0 0 
0 0 0 0 0 0 0 0 0 
0 0 0 0 0 0 0 0 0 
0 0 0 0 0 0 0 0 0 
0 0 0 0 0 0 0 0 0 
0 0 0 0 0 0 0 0 0 
0 0 0 0 0 0 0 0 0 
0 0 0 0 0 0 0 0 0 
0 0 0 0 0 0 0 0 0 
0 0 0 0 0 0 0 0 0 
0 0 0 0 0 0 0 0 0 
0 0 0 0 0 0 0 0 0 
0 0 0 0 0 0 0 0 0 
0 0 0 0 0 0 0 0 0 
0 0 0 0 0 0 0 0 0 
0 0 0 0 0 0 0 0 0 
0 0 0 0 0 0 0 0 0 
0 0 0 0 0 0 0 0 0 
0 0 0 0 0 0 0 0 0 
0 0 0 0 0 0 0 0 0 
0 0 0 0 0 0 0 0 0 
0 0 0 0 0 0 0 0 0 
0 0 0 0 0 0 0 0 0 
0 0 0 0 0 0 0 0 0 
0 0 0 0 0 0 0 0 0 
0 0 0 0 0 0 0 0 0 
0 0 0 0 0 0 0 0 0 
0 0 0 0 0 0 0 0 0 
0 0 0 0 0 0 0 0 0 
0 0 0 0 0 0 0 0 0 
0 0 0 0 0 0 0 
NORMALS Normals float
0.047522 0.332445 0.941924 0.0155553 0.2707 0.962538 -0.0204676 0.277114 0.960619 
-0.0917543 0.322313 0.942176 0.232349 0.222414 0.946861 0.125069 0.143514 0.981713 
-0.0152891 0.174804 0.984484 -0.0319048 0.170034 0.984922 0.0196064 0.193741 0.980857 
-0.0270194 0.198064 0.979817 -0.0904623 0.258091 0.961876 -0.116459 0.388427 0.914091 
0.156764 0.0216889 0.987398 0.126682 -0.0409906 0.991096 0.0780376 0.118847 0.989841 
0.039242 0.0955909 0.994647 0.00405568 0.21898 0.975721 -0.0314482 0.215468 0.976004 
0.0036282 0.185021 0.982728 -0.00436621 0.278363 0.960466 -0.0918899 0.359305 0.928685 
-0.279467 0.455557 0.845202 0.128717 0.0493556 0.990452 0.0565048 -0.0253235 0.998081 
0.214371 -0.0359287 0.976091 0.133176 0.170026 0.976399 0.0634318 -0.0189081 0.997807 
0.150707 0.143736 0.978073 -0.0669032 0.0967366 0.993059 -0.021079 0.0380454 0.999054 
0.0721001 0.141353 0.98733 -0.00424743 0.212835 0.977079 -0.195453 0.25009 0.948289 
-0.467861 0.36575 0.80457 0.073846 0.0640228 0.995212 0.0654354 0.0628613 0.995875 
0.291717 0.0984945 0.95142 0.0883072 -0.00728672 0.996067 0.00822588 0.0847194 0.996371 
0.115806 0.140602 0.98327 -0.143151 -0.116657 0.982802 0.0802907 -0.0526403 0.995381 
0.168752 0.00743585 0.98563 0.0183316 0.0591687 0.99808 -0.153248 0.0505229 0.986895 
-0.409632 0.132121 0.902633 0.124336 0.0920954 0.987957 0.0888008 0.16986 0.981459 
0.15285 0.179753 0.971764 0.0997848 -0.0501956 0.993742 0.180249 0.0748459 0.980769 
-0.00733086 -0.128072 0.991738 -0.233647 0.0341999 0.97172 0.0917885 0.0763747 0.992845 
0.181553 -0.00694064 0.983357 0.0403985 -0.0523966 0.997809 -0.138862 0.0150061 0.990198 
-0.401025 -0.0779551 0.912744 0.253353 -0.00156713 0.967373 0.164084 0.125826 0.978389 
0.0944271 0.187087 0.977794 -0.0177333 0.114321 0.993286 -0.018468 0.0465026 0.998747 
0.0314866 -0.165231 0.985752 0.0309197 0.0662215 0.997326 0.0402186 0.100313 0.994143 
0.0498058 0.0632916 0.996751 0.0486587 -0.11036 0.9927 -0.206031 -0.111267 0.972199 
-0.576237 -0.293703 0.762686 0.413235 -0.204362 0.887397 0.269099 -0.047423 0.961944 
0.135219 0.0545218 0.989314 -0.0441983 0.0428751 0.998102 -0.107837 0.008396 0.994133 
-0.00327039 -0.060719 0.99815 0.0545529 -0.110864 0.992337 0.080471 -0.0859929 0.993041 
-0.0261225 -0.0344255 0.999066 -0.118588 -0.193653 0.973876 -0.302606 -0.361215 0.882016 
0.428372 -0.31202 0.848022 0.196329 -0.234018 0.952203 -0.0680331 -0.23484 0.96965 
-0.133175 -0.19356 0.972008 -0.110132 -0.330718 0.937282 0.0353323 -0.435602 0.899446 
0.104298 -0.420874 0.901103 -0.0669191 -0.517461 0.853086 -0.301106 -0.636062 0.710465 
0.208942 -0.78025 0.589537 -0.0283941 -0.743445 0.668194 -0.208808 -0.818531 0.535169 
0.291489 0.740461 0.605601 0.0533632 0.354279 0.933616 0.145619 0.640783 0.753785 
0.0156713 0.31234 0.949841 0.0258682 0.592506 0.80515 -0.0219799 0.322721 0.946239 
-0.0487017 0.602474 0.796651 -0.0961669 0.335278 0.937198 -0.197932 0.665024 0.720116 
-0.308999 0.752197 0.581996 0.445081 0.612502 0.653257 0.248307 0.264387 0.931903 
0.346819 0.503676 0.791219 0.112197 0.371803 0.921507 0.163588 0.376722 0.911768 
0.17018 0.407695 0.89712 -0.106873 0.337903 0.935093 -0.149829 0.360871 0.920502 
-0.196849 0.43803 0.877143 -0.146559 0.413202 0.898768 -0.293852 0.556807 0.776928 
-0.39087 0.659191 0.642408 0.533403 0.461687 0.70875 0.264009 0.243349 0.933317 
0.382322 0.329928 0.863121 -0.17904 0.468547 0.865106 -0.212623 0.508577 0.834351 
-0.235978 0.535426 0.810946 -0.329694 0.521712 0.786841 -0.441018 0.651571 0.617218 
0.422858 0.281042 0.861514 0.235102 0.109397 0.965795 0.203072 0.101494 0.97389 
0.260695 0.143015 0.954769 -0.417934 0.51014 0.751724 -0.520172 0.481043 0.705705 
-0.639194 0.57566 0.509948 0.649211 0.192862 0.735751 0.179091 0.0840301 0.980237 
0.319927 0.151776 0.935206 -0.625954 0.391637 0.67439 0.584811 0.0291077 0.810647 
0.206013 0.0705418 0.976003 0.315115 0.0739082 0.946171 -0.805294 0.159227 0.571094 
-0.997591 0.0638392 0.0271311 0.60708 -0.0789135 0.790712 0.36696 0.00591636 0.930218 
0.371161 0.00443858 0.928558 -0.857215 -0.102707 0.504613 0.747109 -0.26506 0.609567 
0.368577 -0.159817 0.915756 0.392905 -0.179488 0.901892 -0.766273 -0.38928 0.511162 
-0.706677 -0.576256 0.410533 0.458623 -0.258514 0.850198 0.587716 -0.436387 0.681291 
0.483709 -0.324773 0.812741 -0.695076 -0.607887 0.383853 -0.579344 -0.760667 0.292825 
-0.743955 -0.666669 -0.0456497 0.507948 -0.431587 0.745467 0.564177 -0.577475 0.590107 
0.478188 -0.623781 0.618251 -0.137185 -0.740387 0.658033 0.0247524 -0.778668 0.626948 
-0.0504896 -0.859391 0.508819 -0.204748 -0.897285 0.391099 -0.502283 -0.795443 0.339092 
-0.35602 -0.84113 0.407124 0.317578 -0.80216 0.505652 0.222345 -0.838096 0.498155 
-0.0382256 -0.841921 0.538245 -0.199806 -0.833832 0.51459 -0.212985 -0.836748 0.50447 
-0.181639 -0.975912 0.120843 0.299068 0.791153 0.533513 0.183736 0.82107 0.540449 
0.0528557 0.822654 0.56608 -0.0775627 0.828282 0.554917 -0.227402 0.815648 0.531984 
-0.312062 0.77359 0.551521 0.454204 0.637095 0.622743 0.335614 0.769953 0.542711 
0.385963 0.722044 0.574182 0.401193 0.847093 0.348535 -0.316566 0.764961 0.56091 
-0.341852 0.721759 0.601831 -0.38473 0.862973 0.327505 -0.403523 0.68394 0.607779 
0.47221 0.625521 0.621081 0.553196 0.515869 0.654105 -0.425628 0.68394 0.592509 
-0.513242 0.71469 0.475185 0.570991 0.480193 0.665871 -0.599048 0.695421 0.396902 
-0.712159 0.647805 0.270514 0.689578 0.311195 0.653942 0.706456 0.27735 0.65115 
0.763331 0.335686 0.551943 -0.839538 0.516568 0.168326 0.713012 0.224822 0.664131 
-0.953918 0.299652 0.0158208 -0.987677 0.142126 -0.0655297 0.712433 0.0594226 0.69922 
0.976209 0.0431318 0.2125 -0.993558 0.0388201 -0.106467 -0.986455 -0.0874882 -0.13875 
-0.983228 0.0328833 -0.179394 0.708866 -0.135556 0.692195 -0.978845 -0.137598 -0.151423 
0.762851 -0.278884 0.583337 0.760253 -0.319833 0.56544 -0.860226 -0.471396 -0.194414 
0.714918 -0.502518 0.486177 0.654067 -0.643391 0.3978 -0.130296 -0.433715 -0.89158 
-0.57183 -0.747969 -0.336976 -0.300886 -0.537071 -0.78805 -0.717051 -0.647094 -0.259051 
-0.699917 -0.664908 -0.260796 -0.691877 -0.648109 -0.318217 0.614026 -0.732905 0.292953 
0.545385 -0.814386 0.198317 0.393163 -0.919298 -0.0177101 -0.127654 -0.975241 -0.18058 
-0.163884 -0.937019 -0.308444 -0.243196 -0.605601 -0.757696 -0.210558 -0.898049 -0.38623 
-0.142345 -0.713053 -0.686508 -0.511655 -0.787491 -0.343609 -0.302335 -0.886032 -0.351484 
-0.258676 -0.732272 -0.629971 0.39174 -0.919882 -0.0188956 0.214143 -0.972478 -0.0918135 
0.130226 -0.902618 -0.410271 -0.00660282 -0.994228 -0.107088 -0.0229547 -0.863485 -0.503851 
-0.162413 -0.983015 -0.0854653 -0.168806 -0.891986 -0.419364 -0.153055 -0.977247 -0.146839 
-0.198095 -0.975574 -0.0949371 -0.203362 -0.958015 -0.202118 0.401389 0.902587 0.155642 
0.306596 0.944163 0.120642 0.208462 0.97339 0.095158 0.0581145 0.994116 0.0914094 
-0.105887 0.990844 0.0837593 -0.241967 0.967687 0.0709442 -0.29776 0.948615 0.107095 
-0.389389 0.909653 0.144593 0.44685 0.880373 0.15896 0.519941 0.836066 0.175088 
-0.434979 0.890086 0.136162 -0.512634 0.854025 0.088585 0.648168 0.743221 0.165836 
0.658962 0.733498 0.166581 -0.688046 0.725528 0.0141866 -0.726109 0.687436 -0.0140833 
0.786902 0.58569 0.194301 0.799257 0.568254 0.195641 -0.829067 0.527606 -0.185147 
-0.821763 0.452683 -0.346099 0.88819 0.40693 0.213367 -0.821578 0.364768 -0.438125 
-0.768364 0.332138 -0.547085 0.945676 0.259943 0.195259 0.980456 0.0797889 0.179832 
-0.835814 0.100722 -0.539694 -0.670237 0.0332791 -0.741401 0.983022 0.0412267 0.178796 
0.985288 -0.0340636 0.167473 0.998169 0.0369796 -0.0478614 -0.354258 -0.218167 -0.909343 
-0.706656 -0.101992 -0.700168 -0.54316 -0.170572 -0.822121 0.970891 -0.191341 0.144078 
-0.186012 -0.330477 -0.925303 -0.290381 -0.261314 -0.92054 -0.568317 -0.175952 -0.803777 
-0.511333 -0.182981 -0.839676 0.893386 -0.433479 0.118144 0.782545 -0.622532 -0.00882044 
-0.166603 -0.353277 -0.920565 -0.0963593 -0.364417 -0.926237 -0.129347 -0.431297 -0.89289 
-0.14833 -0.37212 -0.916256 -0.298291 -0.533279 -0.791603 -0.226938 -0.328218 -0.916937 
-0.545979 -0.376054 -0.748659 -0.5224 -0.40632 -0.749668 -0.511148 -0.375789 -0.772988 
0.763847 -0.644746 -0.0289852 0.554591 -0.824315 -0.113729 -0.310897 -0.376297 -0.872779 
-0.208952 -0.487588 -0.847701 -0.153608 -0.35187 -0.923359 -0.129267 -0.432628 -0.892257 
-0.144587 -0.515295 -0.844728 -0.142409 -0.442786 -0.885246 0.497668 -0.852016 -0.162467 
0.39466 -0.887133 -0.239246 0.306165 -0.80423 -0.509389 0.243669 -0.896195 -0.370757 
0.0964989 -0.862723 -0.496384 -0.0277051 -0.838025 -0.544928 -0.172796 -0.799895 -0.574725 
-0.232996 -0.58893 -0.77387 -0.239668 -0.721002 -0.650166 -0.298646 -0.590321 -0.749888 
-0.251068 -0.543949 -0.800677 -0.247323 -0.586569 -0.771212 -0.259569 -0.5347 -0.804189 
0.366617 0.89934 -0.238286 0.263583 0.921152 -0.286362 0.170664 0.923985 -0.342237 
0.048767 0.929199 -0.366348 -0.108283 0.917229 -0.383362 -0.218483 0.892713 -0.394117 
-0.280923 0.868014 -0.409431 -0.362511 0.839405 -0.40495 0.41006 0.884471 -0.222624 
0.50109 0.840656 -0.205441 0.343175 0.865463 -0.364972 0.170821 0.764253 -0.621883 
0.0494682 0.649204 -0.759004 -0.0280431 0.554536 -0.831687 -0.0911035 0.530426 -0.842822 
-0.190546 0.573893 -0.796454 -0.268076 0.737526 -0.619831 -0.381518 0.83016 -0.406545 
-0.359654 0.821139 -0.443148 -0.552275 0.692985 -0.463427 0.645472 0.733331 -0.213522 
0.657931 0.721677 -0.215194 -0.121925 0.247573 -0.961167 -0.235807 0.325908 -0.915521 
-0.61466 0.606303 -0.504569 -0.516406 0.5424 -0.662667 -0.713262 0.303033 -0.632004 
0.779794 0.579205 -0.237575 0.796365 0.554531 -0.24145 -0.17111 0.00167077 -0.985251 
-0.380245 0.0846553 -0.921004 -0.716253 0.230916 -0.658528 -0.686088 0.220901 -0.693171 
0.881139 0.395869 -0.258618 0.749631 0.339895 -0.567913 -0.0646786 -0.224022 -0.972436 
-0.0621778 -0.203674 -0.977062 -0.153368 -0.167509 -0.973868 -0.266401 -0.162028 -0.950146 
-0.624955 0.032332 -0.779991 -0.587602 -0.00673361 -0.809122 0.933717 0.237746 -0.267674 
-0.195024 -0.206211 -0.958876 -0.0364455 -0.267899 -0.962758 -0.115891 -0.254508 -0.960101 
-0.228907 -0.219257 -0.948434 -0.421739 -0.101408 -0.901029 -0.361146 -0.166236 -0.917573 
-0.35251 -0.141197 -0.925095 0.952565 0.0283671 -0.30301 -0.269325 -0.279186 -0.921694 
-0.0732453 -0.0543939 -0.99583 -0.117378 -0.235785 -0.964691 -0.111825 -0.280272 -0.953385 
-0.304044 -0.235922 -0.922983 -0.197654 -0.303448 -0.932122 -0.215142 -0.261374 -0.940955 
0.910159 -0.244476 -0.334427 0.5396 -0.217309 -0.813393 -0.155647 -0.179555 -0.971357 
-0.168472 -0.306779 -0.936752 -0.0711931 -0.06897 -0.995075 -0.182949 -0.226061 -0.956779 
-0.228263 -0.359374 -0.904846 -0.253761 -0.352774 -0.900642 -0.135307 -0.32748 -0.93512 
-0.132306 -0.328186 -0.935302 -0.13306 -0.327171 -0.93555 0.798334 -0.462948 -0.385152 
0.660129 -0.616835 -0.428653 0.602677 -0.470541 -0.644493 -0.167356 -0.154447 -0.973724 
-0.194036 -0.113582 -0.974397 -0.167774 -0.146688 -0.974851 -0.214072 -0.204864 -0.955094 
-0.331671 -0.445622 -0.831514 -0.354396 -0.452404 -0.818373 -0.355873 -0.4569 -0.815228 
0.520995 -0.682756 -0.512258 0.434512 -0.717526 -0.544386 0.395735 -0.633414 -0.664967 
0.268995 -0.752614 -0.601011 0.165403 -0.509018 -0.844715 0.0143249 -0.433202 -0.901183 
-0.0864367 -0.343837 -0.935043 -0.16073 -0.292723 -0.942592 -0.240363 -0.517598 -0.821169 
-0.234154 -0.2904 -0.927814 -0.368086 -0.402792 -0.838016 -0.366508 -0.426976 -0.826658 
-0.369252 -0.396727 -0.840393 0.171973 -0.742633 -0.647242 0.116616 -0.729199 -0.674292 
0.108165 -0.712168 -0.693626 0.0126019 -0.69531 -0.718599 0.00230578 -0.658419 -0.752648 
-0.164206 -0.597003 -0.785254 -0.108364 -0.629566 -0.769353 -0.11438 -0.603879 -0.788826 
0.440269 0.616864 -0.652412 0.25863 0.691778 -0.674206 0.137051 0.697608 -0.70325 
0.0407334 0.629252 -0.776133 -0.0283339 0.553421 -0.832419 -0.10362 0.428281 -0.897685 
-0.147817 0.278166 -0.949091 0.451257 0.608298 -0.652948 0.552123 0.473095 -0.686543 
0.436101 0.601458 -0.669376 0.217272 0.536279 -0.815596 0.0320376 0.454631 -0.890103 
-0.0944792 0.332943 -0.938202 -0.114682 0.186782 -0.975685 -0.14736 0.14032 -0.979079 
-0.122013 0.238876 -0.963354 -0.130607 0.151374 -0.97981 -0.119329 0.223634 -0.967341 
0.564817 0.450953 -0.691103 0.537629 0.440066 -0.719234 0.337566 0.314891 -0.88707 
0.13892 0.217348 -0.966158 -0.0540049 0.152442 -0.986836 -0.225051 0.10325 -0.968861 
-0.245621 1.52014e-05 -0.969366 -0.149419 -0.0747145 -0.985947 -0.0660965 -0.20513 -0.9765 
-0.0798105 -0.0588352 -0.995072 -0.142478 -0.00129708 -0.989797 -0.0668117 -0.179172 -0.981547 
-0.0974864 -0.00478489 -0.995225 0.614594 0.287437 -0.734611 0.62804 0.181792 -0.756649 
0.439688 0.238681 -0.865856 0.219984 0.111598 -0.969099 0.05459 -0.0203613 -0.998301 
-0.0967308 -0.0894241 -0.991285 -0.264126 -0.11227 -0.957932 -0.306171 -0.0983377 -0.946884 
-0.0813652 -0.20265 -0.975865 -0.191875 -0.0646469 -0.979288 0.629781 0.146959 -0.762744 
0.606883 0.143059 -0.78181 0.358369 0.0483604 -0.932327 0.0808188 -0.0616693 -0.994819 
-0.061767 -0.174925 -0.982642 -0.147816 -0.286107 -0.946728 -0.22157 -0.285147 -0.932522 
-0.186585 -0.0964787 -0.97769 -0.264587 -0.235952 -0.935051 -0.293441 -0.259059 -0.920207 
-0.276549 -0.230613 -0.932919 0.610807 -0.0302818 -0.791201 0.540267 -0.205288 -0.816069 
0.572547 -0.027854 -0.819398 0.239278 -0.143431 -0.960299 0.00413735 -0.198807 -0.98003 
-0.168541 -0.236817 -0.956824 -0.205808 -0.298958 -0.931809 -0.108551 -0.259986 -0.959492 
-0.0801806 -0.320142 -0.94397 -0.294296 -0.270715 -0.916572 -0.225521 -0.29296 -0.929147 
-0.251344 -0.230764 -0.939986 0.530429 -0.217911 -0.819243 0.179436 -0.260292 -0.94871 
-0.00225261 -0.254277 -0.967129 -0.16741 -0.225776 -0.959687 -0.218445 -0.191503 -0.956874 
-0.204067 -0.172026 -0.963724 -0.247603 -0.192119 -0.949623 0.239069 -0.404477 -0.882748 
0.222891 -0.408389 -0.885177 0.218304 -0.400433 -0.889942 0.0795882 -0.384749 -0.919584 
0.0390591 -0.330362 -0.943046 -0.142088 -0.19348 -0.970761 -0.0666091 -0.307099 -0.949344 
-0.0980917 -0.258855 -0.960923 
