# vtk DataFile Version 4.2
vtk output
ASCII
DATASET POLYDATA
POINTS 552 float
8.49949 -0.760661 -21.9362 -6.52915 -23.3036 -15.0184 0.98517 -23.3036 -16.5655 
8.49949 -23.3036 -16.7918 16.0138 -23.3036 -16.2958 23.5281 -23.3036 -17.0131 
31.0424 -23.3036 -16.7826 38.5568 -23.3036 -16.1954 -14.0435 -15.7893 -14.6456 
-6.52915 -15.7893 -15.4055 0.98517 -15.7893 -16.4342 8.49949 -15.7893 -16.1843 
16.0138 -15.7893 -16.8019 23.5281 -15.7893 -18.0735 31.0424 -15.7893 -19.0331 
38.5568 -15.7893 -18.2267 46.0711 -15.7893 -17.4171 -14.0435 -8.27498 -15.6406 
-6.52915 -8.27498 -17.6728 0.98517 -8.27498 -16.332 8.49949 -0.771172 -21.9306 
8.49949 -8.27498 -17.0802 16.0138 -8.27498 -16.6093 23.5281 -8.27498 -17.6903 
31.0424 -8.27498 -18.5757 38.5568 -8.27498 -19.0461 46.0711 -8.27498 -18.9042 
53.5854 -8.27498 -17.243 -6.52915 -0.760661 -19.3918 8.48947 -0.760661 -21.9306 
0.98517 -0.760661 -16.7378 8.5117 -0.760661 -21.9306 8.49949 -0.731825 -21.9306 
16.0138 -0.760661 -17.4144 23.5281 -0.760661 -17.1507 31.0424 -0.760661 -18.4445 
38.5568 -0.760661 -19.2115 46.0711 -0.760661 -19.4817 53.5854 -0.760661 -17.3982 
-14.0435 6.75366 -15.875 -6.52915 6.75366 -20.6425 0.98517 6.75366 -18.0203 
8.49949 6.75366 -20.3875 16.0138 6.75366 -18.7125 23.5281 6.75366 -18.209 
31.0424 6.75366 -18.8949 38.5568 6.75366 -19.4946 46.0711 6.75366 -19.9605 
53.5854 6.75366 -17.8874 61.0997 6.75366 -15.5107 -29.0721 14.268 -14.5712 
-21.5578 14.268 -14.7595 -14.0435 14.268 -15.9557 -6.52915 14.268 -19.7996 
0.98517 14.268 -19.8353 8.49949 14.268 -19.1873 16.0138 14.268 -19.3647 
23.5281 14.268 -19.451 31.0424 14.268 -19.5212 38.5568 14.268 -19.619 
46.0711 14.268 -19.0269 53.5854 14.268 -17.083 -21.5578 21.7823 -14.5718 
-14.0435 21.7823 -14.8143 -6.52915 21.7823 -17.1645 0.98517 21.7823 -18.9447 
8.49949 21.7823 -18.7141 16.0138 21.7823 -18.783 23.5281 21.7823 -19.182 
31.0424 21.7823 -19.4951 38.5568 21.7823 -18.8033 46.0711 21.7823 -16.9006 
0.98517 29.2966 -16.2475 8.49949 29.2966 -16.3479 16.0138 29.2966 -16.3636 
23.5281 29.2966 -16.6692 31.0424 29.2966 -16.4171 38.5568 29.2966 -14.9739 
-29.0721 -30.8179 -9.45125 -21.5578 -30.8179 -10.3171 -14.0435 -30.8179 -11.216 
-6.52915 -25.0813 -14.4163 -6.52915 -30.8179 -11.9325 0.98517 -28.7331 -14.4163 
0.98517 -30.8179 -13.1088 8.49949 -29.1743 -14.4163 8.49949 -30.8179 -13.4573 
16.0138 -28.6855 -14.4163 16.0138 -30.8179 -13.3001 23.5281 -28.6492 -14.4163 
23.5281 -30.8179 -12.7833 31.0424 -27.7331 -14.4163 31.0424 -30.8179 -11.53 
38.5568 -25.8676 -14.4163 38.5568 -30.8179 -8.71008 -51.6151 -23.3036 -7.46667 
-44.1007 -23.3036 -8.96603 -36.5864 -23.3036 -10.6011 -29.0721 -23.3036 -12.1764 
-21.5578 -23.3036 -13.8014 -11.773 -23.3036 -14.4163 -14.0435 -19.3641 -14.4163 
-14.0435 -23.3036 -14.1496 44.8265 -23.3036 -14.4163 46.0711 -22.5568 -14.4163 
46.0711 -23.3036 -13.9188 -51.6151 -15.7893 -8.7724 -44.1007 -15.7893 -10.9898 
-36.5864 -15.7893 -12.7396 -29.0721 -15.7893 -13.643 -18.7118 -15.7893 -14.4163 
-21.5578 -15.7893 -14.2769 53.4764 -15.7893 -14.4163 53.5854 -15.6882 -14.4163 
53.5854 -15.7893 -14.3609 -51.6151 -8.27498 -10.5634 -44.1007 -8.27498 -12.8499 
-36.5864 -8.27498 -13.5174 -29.0721 -8.27498 -13.7688 -18.7622 -8.27498 -14.4163 
-21.5578 -8.27498 -13.8189 -14.0435 -0.83386 -14.4163 58.746 -8.27498 -14.4163 
61.0997 -8.27498 -12.3274 -59.1294 -0.760661 -7.25398 -51.6151 -0.760661 -11.392 
-44.1007 -0.760661 -13.7166 -36.5864 -0.760661 -13.9788 -29.0721 -0.760661 -13.9392 
-21.5578 -0.760661 -13.519 -14.0266 -0.760661 -14.4163 -14.0435 -0.683366 -14.4163 
-14.0435 -0.760661 -14.4057 60.0851 -0.760661 -14.4163 61.0997 2.00308 -14.4163 
61.0997 -0.760661 -13.8416 -51.6151 6.75366 -10.8508 -44.1007 6.75366 -13.3581 
-36.5864 6.75366 -14.0342 -29.0721 10.0478 -14.4163 -29.0721 6.75366 -14.2957 
-19.5672 6.75366 -14.4163 -21.5578 10.5315 -14.4163 -21.5578 6.75366 -14.0719 
62.5034 6.75366 -14.4163 61.0997 8.93531 -14.4163 -59.1294 14.268 -7.04245 
-51.6151 14.268 -10.3394 -44.1007 14.268 -12.3977 -30.4928 14.268 -14.4163 
-36.5864 14.268 -13.744 -29.0721 21.0647 -14.4163 58.0466 14.268 -14.4163 
53.5854 21.7321 -14.4163 61.0997 14.268 -11.8059 -51.6151 21.7823 -7.17074 
-44.1007 21.7823 -11.2734 -36.5864 21.7823 -13.5735 -28.3501 21.7823 -14.4163 
-29.0721 21.7823 -14.399 -21.5578 22.3054 -14.4163 -14.0435 23.4544 -14.4163 
-6.52915 28.5535 -14.4163 53.521 21.7823 -14.4163 46.0711 26.5083 -14.4163 
53.5854 21.7823 -14.3855 -44.1007 29.2966 -7.47337 -36.5864 29.2966 -10.6392 
-29.0721 29.2966 -11.5717 -21.5578 29.2966 -12.2251 -14.0435 29.2966 -12.7331 
-5.48452 29.2966 -14.4163 -6.52915 29.2966 -14.0884 0.98517 31.9283 -14.4163 
8.49949 32.1978 -14.4163 16.0138 31.648 -14.4163 23.5281 32.0279 -14.4163 
31.0424 31.2602 -14.4163 40.4749 29.2966 -14.4163 38.5568 29.8908 -14.4163 
46.0711 29.2966 -11.1648 0.98517 36.8109 -8.06069 8.49949 36.8109 -6.94529 
-29.0721 -33.8014 -6.902 -21.5578 -34.8644 -6.902 -14.0435 -35.6371 -6.902 
-6.52915 -35.1893 -6.902 0.98517 -35.0079 -6.902 8.49949 -35.1735 -6.902 
16.0138 -35.039 -6.902 23.5281 -34.5227 -6.902 31.0424 -33.5542 -6.902 
38.5568 -31.7591 -6.902 -51.6151 -24.0633 -6.902 -44.1007 -25.9744 -6.902 
-44.1007 -30.8179 -2.93362 -36.0135 -30.8179 -6.902 -36.5864 -30.3919 -6.902 
-36.5864 -30.8179 -6.58788 40.6197 -30.8179 -6.902 46.0711 -28.0672 -6.902 
-52.4455 -23.3036 -6.902 52.9624 -23.3036 -6.902 53.5854 -22.8054 -6.902 
-56.6093 -15.7893 -6.902 -59.1294 -15.7893 -5.06774 61.0517 -15.7893 -6.902 
61.0997 -15.7152 -6.902 -57.9477 -8.27498 -6.902 -59.1294 -2.80663 -6.902 
-59.1294 -8.27498 -5.97707 65.3763 -8.27498 -6.902 -59.6602 -0.760661 -6.902 
-66.6437 -0.760661 -1.34676 -59.1294 1.52994 -6.902 67.7355 -0.760661 -6.902 
-58.1533 6.75366 -6.902 -59.1294 12.8685 -6.902 -59.1294 6.75366 -6.09307 
68.3893 6.75366 -6.902 -59.3015 14.268 -6.902 -59.1294 14.5781 -6.902 
65.4907 14.268 -6.902 61.0997 20.9242 -6.902 -52.0424 21.7823 -6.902 
-59.1294 21.7823 -0.214989 -51.6151 22.3895 -6.902 60.407 21.7823 -6.902 
53.5854 28.5343 -6.902 -45.1986 29.2966 -6.902 -51.6151 29.2966 -1.65942 
-44.1007 30.0445 -6.902 -36.5864 33.8616 -6.902 -29.0721 34.9972 -6.902 
-21.5578 35.6687 -6.902 -14.0435 35.442 -6.902 -6.52915 36.3013 -6.902 
16.0138 35.6935 -6.902 23.5281 35.0318 -6.902 31.0424 34.5299 -6.902 
38.5568 33.4626 -6.902 51.8245 29.2966 -6.902 46.0711 31.0843 -6.902 
-36.5864 36.8109 -1.23173 -29.0721 36.8109 -2.26327 -3.28173 36.8109 -6.902 
0.98517 37.3754 -6.902 0.98517 36.8109 -4.11751 8.60993 36.8109 -6.902 
8.49949 36.8275 -6.902 8.49949 36.8109 -6.82903 -44.1007 -33.367 0.612324 
-36.5864 -36.1643 0.612324 -29.0721 -37.7615 0.612324 -21.5578 -38.2975 0.612324 
-14.0435 -37.7923 0.612324 -6.52915 -37.3318 0.612324 0.98517 -36.3826 0.612324 
8.49949 -35.9721 0.612324 16.0138 -35.8691 0.612324 23.5281 -35.5573 0.612324 
31.0424 -34.4351 0.612324 38.5568 -32.1648 0.612324 -48.779 -30.8179 0.612324 
-51.6151 -28.4163 0.612324 41.2964 -30.8179 0.612324 38.5568 -30.8179 4.55762 
46.0711 -28.3589 0.612324 -57.8478 -23.3036 0.612324 -59.1294 -21.6374 0.612324 
53.0021 -23.3036 0.612324 53.5854 -22.7663 0.612324 -62.8335 -15.7893 0.612324 
60.7863 -15.7893 0.612324 61.0997 -15.3279 0.612324 -66.1165 -8.27498 0.612324 
-66.6437 -6.4982 0.612324 65.5455 -8.27498 0.612324 61.0997 -8.27498 6.90496 
-67.9423 -0.760661 0.612324 -66.6437 4.97489 0.612324 66.7887 -0.760661 0.612324 
-66.1122 6.75366 0.612324 67.4518 6.75366 0.612324 -63.1481 14.268 0.612324 
64.7737 14.268 0.612324 61.0997 20.4811 0.612324 61.0997 14.268 4.56377 
-59.602 21.7823 0.612324 -59.1294 22.5003 0.612324 -59.1294 21.7823 6.02972 
59.5962 21.7823 0.612324 53.5854 24.7478 0.612324 53.5854 21.7823 4.10095 
-53.136 29.2966 0.612324 -51.6151 30.5859 0.612324 -44.1007 34.964 0.612324 
-21.5578 36.6822 0.612324 -14.0435 35.7254 0.612324 -6.52915 34.5558 0.612324 
-6.52915 29.2966 6.2914 0.98517 35.2675 0.612324 0.98517 29.2966 5.26101 
8.49949 34.1628 0.612324 8.49949 29.2966 4.53249 16.0138 32.9793 0.612324 
16.0138 29.2966 4.27799 23.5281 32.0952 0.612324 23.5281 29.2966 3.86507 
31.0424 31.724 0.612324 31.0424 29.2966 3.38804 38.5568 30.6506 0.612324 
38.5568 29.2966 2.37806 46.611 29.2966 0.612324 46.0711 29.5846 0.612324 
46.0711 29.2966 1.07252 -38.7734 36.8109 0.612324 -36.5864 37.5691 0.612324 
-36.5864 36.8109 4.2078 -22.5981 36.8109 0.612324 -29.0721 37.588 0.612324 
-29.0721 36.8109 3.15395 -44.1007 -32.6021 8.12664 -36.5864 -34.9373 8.12664 
-29.0721 -36.1717 8.12664 -21.5578 -36.5443 8.12664 -14.0435 -36.4347 8.12664 
-6.52915 -35.8296 8.12664 0.98517 -35.4569 8.12664 8.49949 -34.785 8.12664 
16.0138 -34.3645 8.12664 23.5281 -33.8652 8.12664 31.0424 -32.3593 8.12664 
-47.5952 -30.8179 8.12664 -51.6151 -28.4091 8.12664 -44.1007 -30.8179 11.0345 
-36.5864 -30.8179 14.0595 -29.0721 -30.8179 14.1717 -21.5578 -30.8179 14.161 
-14.0435 -30.8179 13.5929 -6.52915 -30.8179 14.065 0.98517 -30.8179 14.4471 
8.49949 -30.8179 13.5741 16.0138 -30.8179 13.2152 23.5281 -30.8179 12.9656 
35.1055 -30.8179 8.12664 31.0424 -30.8179 10.4575 38.5568 -29.2997 8.12664 
46.0711 -24.6387 8.12664 -58.0666 -23.3036 8.12664 -59.1294 -22.0099 8.12664 
-51.6151 -23.3036 13.8451 38.5568 -23.3036 14.381 47.8007 -23.3036 8.12664 
46.0711 -23.3036 9.54896 53.5854 -17.9898 8.12664 -62.9523 -15.7893 8.12664 
-59.1294 -15.7893 12.594 46.0711 -15.7893 14.9222 55.5178 -15.7893 8.12664 
53.5854 -15.7893 9.87261 -65.471 -8.27498 8.12664 -66.6437 -1.7843 8.12664 
-59.1294 -8.27498 15.2718 60.1489 -8.27498 8.12664 53.5854 -8.27498 12.9818 
61.0997 -3.90859 8.12664 -66.8599 -0.760661 8.12664 -66.6437 0.17094 8.12664 
-66.6437 -0.760661 8.74468 53.5854 -0.760661 13.5262 61.9177 -0.760661 8.12664 
61.0997 -0.760661 8.82308 -65.3243 6.75366 8.12664 -59.1294 6.75366 15.3784 
0.98517 6.75366 15.0943 16.0138 6.75366 15.2857 46.0711 6.75366 15.196 
53.5854 6.75366 13.2399 62.0739 6.75366 8.12664 61.0997 7.94173 8.12664 
61.0997 6.75366 8.78452 -63.4094 14.268 8.12664 -59.1294 21.4549 8.12664 
[...]
POINT_DATA 552
SCALARS ImageScalars float
LOOKUP_TABLE default
0 0 0 0 0 0 0 0 0 
0 0 0 0 0 0 0 0 0 
0 0 0 0 0 0 0 0 0 
0 0 0 0 0 0 0 0 0 
0 0 0 0 0 0 0 0 0 
0 0 0 0 0 0 0 0 0 
0 0 0 0 0 0 0 0 0 
0 0 0 0 0 0 0 0 0 
0 0 0 0 0 0 0 0 0 
0 0 0 0 0 0 0 0 0 
0 0 0 0 0 0 0 0 0 
0 0 0 0 0 0 0 0 0 
0 0 0 0 0 0 0 0 0 
0 0 0 0 0 0 0 0 0 
0 0 0 0 0 0 0 0 0 
0 0 0 0 0 0 0 0 0 
0 0 0 0 0 0 0 0 0 
0 0 0 0 0 0 0 0 0 
0 0 0 0 0 0 0 0 0 
0 0 0 0 0 0 0 0 0 
0 0 0 0 0 0 0 0 0 
0 0 0 0 0 0 0 0 0 
0 0 0 0 0 0 0 0 0 
0 0 0 0 0 0 0 0 0 
0 0 0 0 0 0 0 0 0 
0 0 0 0 0 0 0 0 0 
0 0 0 0 0 0 0 0 0 
0 0 0 0 0 0 0 0 0 
0 0 0 0 0 0 0 0 0 
0 0 0 0 0 0 0 0 0 
0 0 0 0 0 0 0 0 0 
0 0 0 0 0 0 0 0 0 
0 0 0 0 0 0 0 0 0 
0 0 0 0 0 0 0 0 0 
0 0 0 0 0 0 0 0 0 
0 0 0 0 0 0 0 0 0 
0 0 0 0 0 0 0 0 0 
0 0 0 0 0 0 0 0 0 
0 0 0 0 0 0 0 0 0 
0 0 0 0 0 0 0 0 0 
0 0 0 0 0 0 0 0 0 
0 0 0 0 0 0 0 0 0 
0 0 0 0 0 0 0 0 0 
0 0 0 0 0 0 0 0 0 
0 0 0 0 0 0 0 0 0 
0 0 0 0 0 0 0 0 0 
0 0 0 0 0 0 0 0 0 
0 0 0 0 0 0 0 0 0 
0 0 0 0 0 0 0 0 0 
0 0 0 0 0 0 0 0 0 
0 0 0 0 0 0 0 0 0 
0 0 0 0 0 0 0 0 0 
0 0 0 0 0 0 0 0 0 
0 0 0 0 0 0 0 0 0 
0 0 0 0 0 0 0 0 0 
0 0 0 0 0 0 0 0 0 
0 0 0 0 0 0 0 0 0 
0 0 0 0 0 0 0 0 0 
0 0 0 0 0 0 0 0 0 
0 0 0 0 0 0 0 0 0 
0 0 0 0 0 0 0 0 0 
0 0 0 
NORMALS Normals float
0.0526022 0.177182 0.982771 0.16218 0.18432 0.969394 0.112598 0.159176 0.980808 
-0.0171278 0.137475 0.990357 0.0119514 0.194645 0.980801 0.0334799 0.299852 0.953398 
-0.0465235 0.378504 0.92443 -0.175656 0.452705 0.874187 0.0728022 0.086001 0.993632 
0.114895 0.156307 0.981003 0.0509371 -0.0157434 0.998578 0.0255476 0.0098934 0.999625 
0.122434 0.0197994 0.992279 0.146175 0.0387202 0.988501 0.0112579 0.112371 0.993603 
-0.0994654 0.165496 0.981182 -0.215362 0.305751 0.927435 0.264635 0.0263068 0.96399 
0.0264 0.263799 0.964216 -0.0397043 0.015473 0.999092 0.0525454 0.177564 0.982705 
0.0185776 0.365788 0.930513 0.0475388 0.0280147 0.998476 0.132388 -0.0618541 0.989266 
0.0896935 -0.0382491 0.995235 0.022409 0.0642437 0.997683 -0.126557 0.129928 0.983413 
-0.335865 0.154729 0.929114 0.028827 0.199938 0.979384 0.0527543 0.177222 0.982756 
0.168713 0.124261 0.977801 0.0519826 0.177277 0.982787 0.0525509 0.175855 0.983012 
-0.312733 0.153261 0.937395 0.0727054 0.0301126 0.996899 0.135931 0.0210199 0.990495 
0.0680602 0.0297212 0.997238 -0.118852 0.0683424 0.990557 -0.308385 0.0408316 0.950385 
0.479204 0.0618598 0.875521 0.0524486 0.0298927 0.998176 -0.0177142 0.196692 0.980305 
0.0400197 -0.177538 0.9833 -0.143259 0.115051 0.982975 0.0142056 0.156542 0.987569 
0.0823955 0.0713998 0.994039 0.069146 0.0268658 0.997245 -0.104785 -0.0355265 0.99386 
-0.244856 -0.0240861 0.96926 -0.525207 -0.108485 0.844031 0.0666918 0.00755599 0.997745 
0.0788261 0.0334255 0.996328 0.30865 -0.0756788 0.94816 0.233932 -0.227038 0.945373 
-0.0419385 0.0536934 0.997676 -0.0294566 -0.103888 0.994153 0.0175365 0.00106207 0.999846 
0.0104562 0.0602631 0.998128 0.0110395 0.0398455 0.999145 -0.0351933 -0.0516735 0.998044 
-0.170128 -0.179139 0.969002 -0.383264 -0.169591 0.907936 0.0265373 -0.158055 0.987074 
0.153957 -0.177968 0.971918 0.270784 -0.328594 0.904822 0.0904168 -0.219484 0.971417 
-0.0102009 -0.180535 0.983516 0.029878 -0.169858 0.985015 0.0475242 -0.166663 0.984868 
-0.0314273 -0.1586 0.986843 -0.145774 -0.240225 0.959709 -0.261376 -0.334915 0.90527 
0.133875 -0.473516 0.870552 0.0071566 -0.452391 0.891791 0.020461 -0.535117 0.84453 
0.00503852 -0.554096 0.832437 -0.100989 -0.627171 0.772307 -0.187553 -0.686644 0.702384 
0.177546 0.539507 0.823049 0.108813 0.545999 0.83069 0.0951928 0.547843 0.831148 
0.155601 0.263667 0.951981 0.0981241 0.611701 0.78498 0.0989504 0.495542 0.86293 
0.0824302 0.668974 0.738701 0.000790499 0.492779 0.870154 0.00888287 0.631254 0.775525 
-0.0144827 0.464611 0.885396 -0.0295324 0.624801 0.780225 -0.0333073 0.550705 0.834035 
-0.0718257 0.706186 0.704374 -0.103601 0.573274 0.812788 -0.154556 0.794093 0.587817 
-0.221978 0.557228 0.800139 -0.325848 0.866171 0.378909 0.449525 0.477706 0.754801 
0.218265 0.438829 0.871659 0.19151 0.332778 0.923354 0.188425 0.261113 0.94674 
0.128485 0.228747 0.96497 0.100821 0.193186 0.975968 0.0733185 0.136733 0.987891 
0.0762737 0.198999 0.977027 -0.325623 0.551282 0.768152 -0.343282 0.540661 0.768012 
-0.363495 0.58201 0.727417 0.336268 0.234574 0.912085 0.235827 0.2138 0.947985 
0.160727 0.171934 0.971908 0.105629 0.108436 0.988476 0.0672315 0.0297708 0.997293 
0.0648762 -0.00169561 0.997892 -0.433498 0.462968 0.773136 -0.435326 0.461548 0.772958 
-0.437914 0.466649 0.76842 0.36355 0.144142 0.920356 0.213337 0.172946 0.961549 
0.0585936 0.0849683 0.994659 0.0198312 0.0195054 0.999613 0.159976 -0.0388436 0.986356 
0.107013 -0.0497527 0.993012 0.440146 -0.00464555 0.897914 -0.553952 0.21627 0.803968 
-0.702591 0.279887 0.654239 0.576072 0.00773211 0.817362 0.342221 0.0199658 0.939407 
0.196644 0.0331914 0.979913 0.0137053 0.0341714 0.999322 -0.0305449 0.0349737 0.998921 
0.0268636 0.0167581 0.999499 0.441468 -0.00394255 0.897268 0.442476 -0.00334711 0.896774 
0.441854 -0.00455666 0.897075 -0.497029 0.13315 0.857457 -0.526329 0.0588911 0.848239 
-0.550226 0.157498 0.820028 0.382949 -0.0626394 0.921643 0.230779 -0.0843697 0.969341 
0.0595075 -0.015464 0.998108 0.0305921 0.0266745 0.999176 0.00241124 0.0420072 0.999114 
0.168607 0.087316 0.981808 0.0731373 0.0575873 0.995658 0.0684034 0.0819781 0.994284 
-0.541349 -0.113001 0.83317 -0.549865 -0.163438 0.819107 0.629557 -0.198096 0.751276 
0.368974 -0.204115 0.90675 0.198473 -0.1402 0.970027 0.0794808 0.001022 0.996836 
0.137695 -0.0293306 0.99004 0.0630112 -0.158806 0.985297 -0.538403 -0.252106 0.804092 
-0.407094 -0.538372 0.737855 -0.684847 -0.359412 0.633883 0.537225 -0.340447 0.771676 
0.341165 -0.242756 0.908117 0.203468 -0.188189 0.960825 0.0589381 -0.175054 0.982793 
0.0626144 -0.176996 0.982218 0.0298781 -0.174899 0.984133 0.145233 -0.221742 0.964229 
0.208509 -0.462321 0.861849 -0.4058 -0.539331 0.737868 -0.359677 -0.618874 0.698303 
-0.408203 -0.541605 0.734871 0.401137 -0.550991 0.731777 0.207594 -0.488797 0.847338 
0.101777 -0.503577 0.857934 0.068267 -0.464321 0.883032 0.11534 -0.469619 0.875303 
0.19291 -0.480632 0.855441 0.204122 -0.492027 0.846311 0.138046 -0.595113 0.791697 
-0.0147295 -0.608265 0.793597 -0.00482782 -0.676532 0.736397 -0.0234507 -0.730943 0.682035 
-0.118341 -0.748569 0.65241 -0.23731 -0.714274 0.658405 -0.19644 -0.716224 0.669652 
-0.358988 -0.865236 0.349992 0.0466269 -0.972747 0.227131 -0.110629 -0.990605 0.0803926 
0.189495 0.712944 0.675131 0.103234 0.754482 0.648151 0.0135021 0.827732 0.560961 
-0.0369412 0.874319 0.483943 0.000651827 0.93328 0.359149 0.00169464 0.953302 0.302013 
-0.0427354 0.947082 0.318134 -0.0969395 0.936201 0.337831 -0.182829 0.931215 0.315295 
-0.325015 0.907866 0.264849 0.447243 0.509667 0.734992 0.256205 0.541227 0.800895 
0.392746 0.763039 0.513345 0.365305 0.59191 0.718467 0.371409 0.579634 0.725313 
0.378527 0.605931 0.699689 -0.367464 0.891183 0.266013 -0.478445 0.836343 0.26762 
0.476664 0.486434 0.732238 -0.607288 0.759784 0.232229 -0.619459 0.749943 0.232069 
0.498041 0.274477 0.822567 0.647952 0.335193 0.683962 -0.787537 0.573884 0.224595 
-0.788741 0.572113 0.224889 0.565254 0.0936384 0.819585 0.583489 0.0235822 0.811778 
0.621245 0.0965436 0.777646 -0.859726 0.413762 0.299453 0.586333 0.00654195 0.810043 
0.900421 -0.000895356 0.435019 0.591041 0.00236401 0.806638 -0.953909 0.19103 0.231442 
0.595003 -0.0286927 0.803212 0.632232 -0.160629 0.757945 0.64166 -0.036095 0.766139 
-0.973558 -0.136879 0.182888 0.639557 -0.200238 0.742207 0.633482 -0.209745 0.744787 
-0.853681 -0.443686 0.272713 -0.742748 -0.638025 0.2031 0.546459 -0.347256 0.762099 
0.82816 -0.482499 0.285211 0.5405 -0.356802 0.76194 -0.732857 -0.654866 0.184587 
-0.519919 -0.851557 0.067334 0.422653 -0.560452 0.71222 0.635159 -0.696045 0.334804 
0.40436 -0.585906 0.702287 0.20421 -0.741774 0.638803 0.100882 -0.793609 0.600006 
0.0212773 -0.896673 0.442181 0.0420004 -0.925287 0.376934 0.12162 -0.968364 0.217898 
-0.121116 -0.991607 0.0452444 -0.0779537 -0.996909 -0.00978091 -0.107725 -0.994055 0.0158184 
-0.215465 -0.97639 0.0154117 -0.456659 -0.887069 0.0676146 -0.31651 -0.944586 0.0870542 
0.178698 -0.962082 0.206072 -0.00122927 -0.981549 0.191206 0.0774888 -0.980502 0.180589 
0.03002 -0.989807 0.139215 0.0233549 -0.994251 -0.104498 -0.111065 -0.990833 0.076912 
-0.11094 -0.990813 0.0773365 -0.111406 -0.991118 0.0726226 0.406161 0.877859 0.253765 
0.292403 0.941625 0.16686 0.129353 0.983289 0.128102 5.79769e-05 0.997354 0.0727036 
-0.0650606 0.99707 0.040226 -0.0968682 0.994718 0.033942 -0.0855526 0.995834 0.031563 
-0.0341004 0.999181 -0.0217761 -0.0273966 0.998812 -0.0403062 -0.0921687 0.994906 -0.0408294 
-0.221394 0.972716 -0.0693395 -0.369146 0.92087 -0.125416 0.536829 0.801606 0.26314 
0.608526 0.755145 0.243828 -0.406872 0.903219 -0.136565 -0.389829 0.869831 -0.30237 
-0.484425 0.860021 -0.160301 0.716437 0.633086 0.293123 0.754097 0.583556 0.301331 
-0.64537 0.738023 -0.197026 -0.656644 0.72693 -0.200977 0.838876 0.466858 0.279875 
-0.775251 0.573656 -0.264395 -0.784229 0.560494 -0.266144 0.922919 0.259837 0.284085 
0.941315 0.198214 0.2732 -0.88775 0.378535 -0.261937 -0.748475 0.327979 -0.576381 
0.957923 -8.059e-05 0.287024 0.9413 -0.203801 0.269108 -0.96482 0.103324 -0.241757 
0.923585 -0.264219 0.27781 -0.964073 -0.0981136 -0.246853 0.881333 -0.397024 0.256174 
-0.821789 -0.419521 -0.385571 -0.660644 -0.666834 -0.344792 -0.701167 -0.400728 -0.589731 
0.84702 -0.48034 0.227662 0.836216 -0.500611 0.2239 0.828116 -0.529812 -0.183093 
-0.582967 -0.728488 -0.359798 -0.431174 -0.782543 -0.449128 -0.387937 -0.70684 -0.591508 
0.672368 -0.719741 0.1729 0.636726 -0.75198 0.170606 0.389143 -0.916932 0.0883366 
-0.121992 -0.986166 -0.112221 -0.135758 -0.956283 -0.259023 -0.0438733 -0.884497 -0.464478 
-0.192653 -0.664456 -0.722069 -0.0101289 -0.821719 -0.569804 -0.0921895 -0.616211 -0.782167 
-0.116976 -0.805227 -0.581315 -0.0551717 -0.593089 -0.803245 -0.103417 -0.818135 -0.56565 
-0.0336562 -0.658196 -0.752094 -0.067649 -0.836846 -0.543243 -0.0446339 -0.734674 -0.676951 
-0.0843272 -0.837429 -0.540002 -0.0682527 -0.759854 -0.646501 -0.126061 -0.84748 -0.515642 
-0.100313 -0.803826 -0.586346 -0.335022 -0.850477 -0.405522 -0.321694 -0.856607 -0.403407 
-0.315212 -0.849337 -0.423401 0.234297 -0.968656 0.0825297 0.175038 -0.980125 0.0933615 
0.146447 -0.975806 -0.162346 -0.111646 -0.98884 -0.0986454 -0.0546832 -0.998277 -0.0212872 
-0.078508 -0.982101 -0.171214 0.358489 0.880001 -0.311583 0.226989 0.898119 -0.376641 
0.0904225 0.895564 -0.435648 0.0155679 0.887499 -0.460546 -0.0455332 0.886891 -0.45973 
-0.0571732 0.908648 -0.413631 -0.0677154 0.934816 -0.348616 -0.0693793 0.927274 -0.367899 
-0.0593988 0.92136 -0.384144 -0.121782 0.915285 -0.383956 -0.261025 0.869768 -0.418772 
0.442828 0.831764 -0.334771 0.544464 0.77543 -0.319792 0.37421 0.756048 -0.536989 
0.123154 0.685114 -0.71795 0.00388816 0.621301 -0.783563 -0.032658 0.547503 -0.836166 
-0.00575647 0.561553 -0.827421 0.0453634 0.58591 -0.809105 -0.0225928 0.624087 -0.781028 
-0.0590404 0.679357 -0.731429 -0.0285122 0.711673 -0.701933 -0.112856 0.756148 -0.644596 
-0.335408 0.831664 -0.442534 -0.26851 0.812084 -0.518094 -0.402294 0.780298 -0.478848 
-0.511822 0.655457 -0.555351 0.707018 0.636847 -0.307492 0.736064 0.603201 -0.307178 
0.436962 0.639328 -0.632712 -0.390309 0.504376 -0.770236 -0.535812 0.629807 -0.56236 
-0.505537 0.607562 -0.612618 -0.587472 0.55172 -0.592015 0.848973 0.452957 -0.272166 
0.672015 0.421042 -0.609196 -0.404924 0.310505 -0.860013 -0.614986 0.499038 -0.610535 
-0.572358 0.470824 -0.671365 0.943138 0.237432 -0.232628 0.972256 0.023663 -0.232721 
0.438153 0.226266 -0.869957 -0.698239 0.29885 -0.650501 -0.441907 0.191928 -0.876288 
-0.685298 0.180485 -0.705544 0.971549 -0.00998095 -0.23663 0.971429 -0.0336386 -0.234936 
0.9598 -0.0103436 -0.280493 -0.38872 0.0145245 -0.921241 -0.654867 0.0945105 -0.749811 
-0.639993 0.0780302 -0.764409 0.945686 -0.210283 -0.247909 0.480358 -0.188079 -0.856669 
-0.0615811 -0.163858 -0.98456 -0.00700881 -0.152544 -0.988272 -0.222968 -0.177804 -0.958473 
-0.334604 -0.185806 -0.92386 -0.605467 -0.217875 -0.765467 -0.608451 -0.237075 -0.757353 
-0.595894 -0.212984 -0.774305 0.884985 -0.398577 -0.240702 0.789341 -0.523119 -0.321384 
0.632295 -0.387968 -0.670585 -0.189641 -0.281984 -0.94049 -0.0809676 -0.439306 -0.894681 
0.0506729 -0.378153 -0.924355 0.0692256 -0.373228 -0.925153 0.00734967 -0.371435 -0.92843 
-0.0750927 -0.38932 -0.918037 -0.212836 -0.403815 -0.889738 -0.500241 -0.422955 -0.755559 
-0.38054 -0.534855 -0.7544 -0.382435 -0.434223 -0.815594 0.785358 -0.528214 -0.322806 
-0.324908 -0.492496 -0.807392 -0.209024 -0.595679 -0.775549 -0.250502 -0.538392 -0.804601 
-0.118032 -0.545729 -0.829607 -0.147826 -0.519606 -0.841521 -0.0503416 -0.477439 -0.877222 
-0.0545691 -0.462225 -0.885082 0.0217693 -0.519592 -0.854137 0.0366291 -0.496114 -0.867484 
0.0234597 -0.574518 -0.818155 0.051409 -0.53068 -0.846012 -0.00976791 -0.635788 -0.771802 
0.0128721 -0.585778 -0.810369 -0.0805459 -0.650275 -0.755417 -0.0953847 -0.591421 -0.800702 
-0.291013 -0.557229 -0.777693 -0.274487 -0.56598 -0.777383 -0.278324 -0.547126 -0.789423 
0.571868 -0.7404 -0.353234 0.565108 -0.745158 -0.354109 0.564453 -0.73851 -0.368777 
0.322992 -0.885698 -0.333489 0.266765 -0.583204 -0.767274 0.0925251 -0.881632 -0.462779 
0.0281153 -0.620821 -0.783448 -0.115381 -0.860376 -0.496428 -0.113616 -0.63344 -0.765405 
-0.227348 -0.807276 -0.544627 -0.290172 -0.620361 -0.728665 -0.275099 -0.63249 -0.72407 
-0.309125 -0.658477 -0.686185 -0.318594 -0.637761 -0.701255 0.253776 0.408592 -0.876727 
0.100825 0.535807 -0.838299 -0.0330912 0.45827 -0.888197 -0.0466703 0.403508 -0.913785 
-0.0112606 0.319683 -0.947458 0.0629562 0.359275 -0.931106 -0.00276685 0.462741 -0.886489 
-0.0393867 0.43203 -0.900999 0.00705223 0.455249 -0.890336 -0.0637574 0.524713 -0.848888 
-0.221751 0.49202 -0.841869 0.267272 0.430888 -0.861917 0.381252 0.46947 -0.796394 
0.236075 0.399047 -0.886019 0.0821058 0.281001 -0.956189 -0.0449022 0.264248 -0.963409 
-0.0574127 0.2652 -0.962483 -0.0150591 0.218223 -0.975783 0.0630963 0.173562 -0.9828 
0.0234146 0.186443 -0.982187 -0.0135331 0.213706 -0.976804 0.025541 0.27671 -0.960614 
-0.0220232 0.308969 -0.950817 -0.306712 0.442493 -0.842691 -0.182872 0.373664 -0.909358 
-0.323794 0.366338 -0.872327 0.457094 0.28736 -0.841718 0.320865 0.177187 -0.930403 
0.12972 0.208693 -0.96934 -0.0270571 0.168848 -0.985271 -0.0424989 0.121813 -0.991643 
-0.102543 0.0811245 -0.991415 -0.0905483 0.0842492 -0.992322 0.0298419 0.0275652 -0.999174 
0.037616 0.0350258 -0.998678 0.0405487 0.0272157 -0.998807 0.0884928 -0.00163054 -0.996076 
0.010919 0.030619 -0.999471 -0.131866 0.0848584 -0.987629 -0.353451 0.268042 -0.896229 
-0.229108 0.168605 -0.958688 -0.32874 0.146042 -0.93306 0.39094 0.19402 -0.899734 
0.404488 0.160491 -0.900351 0.218714 0.0707455 -0.973221 0.145704 0.0285093 -0.988917 
0.00650109 0.0890442 -0.996006 -0.126916 0.0479189 -0.990755 -0.100311 -0.000952062 -0.994956 
-0.0673984 0.0870201 -0.993924 0.0138251 0.0779884 -0.996858 0.0230079 -0.0292754 -0.999307 
-0.0509923 -0.0174687 -0.998546 0.0291838 -0.18218 -0.982832 0.0626455 -0.146521 -0.987222 
-0.040411 -0.0685955 -0.996826 -0.151342 0.0161374 -0.98835 -0.298317 0.0740856 -0.951587 
-0.286209 0.0637899 -0.956042 0.484112 -0.000499313 -0.875006 0.446403 -0.143064 -0.883322 
0.391753 0.0093017 -0.920023 0.175967 0.0231755 -0.984123 0.113949 0.037123 -0.992793 
-0.00970838 0.0227353 -0.999694 -0.129717 0.0754299 -0.988678 -0.0611866 0.080722 -0.994857 
-0.00886368 0.0990369 -0.995044 -0.0936003 -0.000182384 -0.99561 -0.0665635 -0.178808 -0.98163 
-0.0671786 -0.216627 -0.97394 -0.119759 -0.110672 -0.986615 -0.01924 -0.137738 -0.990282 
-0.022818 -0.134887 -0.990598 0.120343 -0.136456 -0.983309 0.0329768 -0.110087 -0.993375 
-0.0961277 -0.0567755 -0.993748 -0.260496 -0.0390203 -0.964686 -0.23319 -0.110916 -0.966085 
-0.238291 -0.0477576 -0.970019 0.447081 -0.175228 -0.877162 0.242864 -0.0871732 -0.966136 
0.145449 0.00216653 -0.989363 0.0487573 0.00843541 -0.998775 -0.0767797 0.0813045 -0.993728 
-0.0805717 0.0809337 -0.993458 -0.138689 -0.0377502 -0.989616 -0.12434 -0.162271 -0.978881 
-0.288226 -0.154396 -0.945033 -0.0264047 -0.213378 -0.976613 -0.000281615 -0.193373 -0.981125 
-0.0059673 -0.297474 -0.954711 0.00959657 -0.265554 -0.964048 0.0347384 -0.169661 -0.98489 
0.0829739 -0.226767 -0.970408 0.0891541 -0.192432 -0.977252 0.0213902 -0.277093 -0.960605 
0.0372354 -0.210495 -0.976885 -0.185889 -0.190706 -0.963886 -0.0830841 -0.285348 -0.954816 
-0.0948909 -0.222232 -0.970365 0.458477 -0.223821 -0.86006 0.378073 -0.148613 -0.91377 
0.18853 -0.0857578 -0.978316 0.0715804 -0.10671 -0.99171 -0.0564817 -0.0849285 -0.994785 
-0.167235 -0.116051 -0.979063 -0.317452 -0.465885 -0.825939 -0.244933 -0.246737 -0.937619 
-0.213771 -0.295967 -0.93097 -0.231792 -0.331611 -0.914498 -0.225295 -0.304148 -0.925601 
0.449737 -0.371682 -0.812151 0.435732 -0.390557 -0.810927 0.424176 -0.360473 -0.830743 
0.245632 -0.517507 -0.819665 0.20936 -0.338796 -0.917271 0.0331312 -0.566169 -0.823623 
0.0553257 -0.329389 -0.942572 -0.113525 -0.626202 -0.771352 -0.0864304 -0.339331 -0.936688 
-0.311962 -0.481106 -0.819278 -0.271955 -0.489242 -0.828663 -0.233904 -0.414126 -0.879652 

