# vtk DataFile Version 4.2
vtk output
ASCII
DATASET POLYDATA
POINTS 498 float
-14.2638 19.7662 -19.581 -21.4661 -37.8521 -15.2604 -14.2638 -37.8521 -17.3045 
-7.06149 -37.8521 -17.7866 0.140801 -37.8521 -17.0999 7.34309 -37.8521 -15.2453 
-28.6684 -30.6498 -14.9228 -21.4661 -30.6498 -17.9568 -14.2638 -30.6498 -19.0394 
-7.06149 -30.6498 -19.3226 0.140801 -30.6498 -18.8654 7.34309 -30.6498 -18.039 
14.5454 -30.6498 -17.0348 21.7477 -30.6498 -14.2168 -28.6684 -23.4475 -16.3051 
-21.4661 -23.4475 -18.3593 -14.2638 -23.4475 -19.1232 -7.06149 -23.4475 -19.0105 
0.140801 -23.4475 -18.6364 7.34309 -23.4475 -18.3462 14.5454 -23.4475 -18.4598 
21.7477 -23.4475 -17.2253 28.95 -23.4475 -14.8896 -35.8706 -16.2452 -14.6218 
-28.6684 -16.2452 -17.307 -21.4661 -16.2452 -18.1026 -14.2638 -16.2452 -18.0085 
-7.06149 -16.2452 -17.5664 0.140801 -16.2452 -17.107 7.34309 -16.2452 -17.7477 
14.5454 -16.2452 -18.7781 21.7477 -16.2452 -18.4383 28.95 -16.2452 -17.0717 
36.1522 -16.2452 -13.6213 -43.0729 -9.04291 -13.0658 -35.8706 -9.04291 -16.8083 
-28.6684 -9.04291 -17.8976 -21.4661 -9.04291 -17.6819 -14.2638 -9.04291 -16.6033 
-7.06149 -9.04291 -15.909 0.140801 -9.04291 -15.8365 7.34309 -9.04291 -17.465 
14.5454 -9.04291 -18.5029 21.7477 -9.04291 -18.4913 28.95 -9.04291 -17.6091 
36.1522 -9.04291 -15.1615 -43.0729 -1.84062 -15.6575 -35.8706 -1.84062 -18.3281 
-28.6684 -1.84062 -19.1651 -21.4661 -1.84062 -18.6332 -14.2638 -1.84062 -17.6447 
-7.06149 -1.84062 -18.5203 0.140801 -1.84062 -17.0322 7.34309 -1.84062 -18.0596 
14.5454 -1.84062 -18.5994 21.7477 -1.84062 -18.8106 28.95 -1.84062 -18.3546 
36.1522 -1.84062 -16.4208 43.3545 -1.84062 -12.4085 -43.0729 5.36167 -15.4781 
-35.8706 5.36167 -18.5899 -28.6684 5.36167 -19.483 -21.4661 5.36167 -18.7945 
-14.2638 5.36167 -18.4428 -7.06149 5.36167 -18.5305 0.140801 5.36167 -18.6275 
7.34309 5.36167 -19.2015 14.5454 5.36167 -18.5043 21.7477 5.36167 -19.0001 
28.95 5.36167 -18.5827 36.1522 5.36167 -16.8847 43.3545 5.36167 -12.9896 
-43.0729 12.564 -14.4517 -35.8706 12.564 -17.7118 -28.6684 12.564 -18.8844 
-21.4661 12.564 -19.109 -14.2638 19.2423 -19.5342 -14.2638 12.564 -18.9388 
-7.06149 12.564 -18.5875 0.140801 12.564 -18.6879 7.34309 12.564 -18.1717 
14.5454 12.564 -17.1405 21.7477 12.564 -17.7128 28.95 12.564 -17.3693 
36.1522 12.564 -15.4274 -35.8706 19.7662 -16.5335 -28.6684 19.7662 -18.5109 
-17.8695 19.7662 -19.5342 -21.4661 19.7662 -19.4863 -13.6876 19.7662 -19.5342 
-14.2638 20.1926 -19.5342 -7.06149 19.7662 -18.9953 0.140801 19.7662 -18.3221 
7.34309 19.7662 -16.938 14.5454 19.7662 -15.6791 21.7477 19.7662 -15.2855 
28.95 19.7662 -14.5913 36.1522 19.7662 -12.46 -35.8706 26.9685 -13.0979 
-28.6684 26.9685 -16.279 -21.4661 26.9685 -18.5683 -14.2638 26.9685 -18.7903 
-7.06149 26.9685 -18.6133 0.140801 26.9685 -17.6096 7.34309 26.9685 -15.6957 
14.5454 26.9685 -13.5178 -21.4661 34.1708 -13.4551 -14.2638 34.1708 -14.819 
-7.06149 34.1708 -14.9412 0.140801 34.1708 -14.1076 -21.4661 -40.4689 -12.332 
-14.2638 -43.1035 -12.332 -7.06149 -44.4798 -12.332 -7.06149 -45.0544 -10.0291 
0.140801 -43.3285 -12.332 7.34309 -40.8938 -12.332 -24.9423 -37.8521 -12.332 
-28.6684 -33.8306 -12.332 14.4187 -37.8521 -12.332 14.5454 -37.7762 -12.332 
14.5454 -37.8521 -12.1757 21.7477 -32.896 -12.332 -31.0073 -30.6498 -12.332 
25.4029 -30.6498 -12.332 28.95 -27.7707 -12.332 28.95 -30.6498 -8.83436 
-34.6586 -23.4475 -12.332 -35.8706 -21.2041 -12.332 -35.8706 -23.4475 -10.3565 
33.7289 -23.4475 -12.332 36.1522 -19.6977 -12.332 36.1522 -23.4475 -10.1513 
-38.7858 -16.2452 -12.332 -43.0729 -10.3116 -12.332 -43.0729 -16.2452 -5.63984 
38.0908 -16.2452 -12.332 43.3545 -16.2452 -7.51885 -43.7836 -9.04291 -12.332 
41.1089 -9.04291 -12.332 43.3545 -2.21411 -12.332 43.3545 -9.04291 -10.6086 
-46.6046 -1.84062 -12.332 43.4508 -1.84062 -12.332 -46.4577 5.36167 -12.332 
44.1844 5.36167 -12.332 43.3545 7.79017 -12.332 -45.4375 12.564 -12.332 
-43.0729 18.3103 -12.332 41.3271 12.564 -12.332 43.3545 12.564 -10.655 
-42.178 19.7662 -12.332 -43.0729 19.7662 -11.3316 21.7477 26.4487 -12.332 
28.95 23.6558 -12.332 36.3383 19.7662 -12.332 36.1522 19.9345 -12.332 
-36.8021 26.9685 -12.332 -35.8706 27.8209 -12.332 -28.6684 32.1602 -12.332 
7.34309 33.8855 -12.332 20.566 26.9685 -12.332 14.5454 29.4641 -12.332 
21.7477 26.9685 -12.0702 28.95 26.9685 -9.72382 -24.0727 34.1708 -12.332 
-28.6684 34.1708 -7.95544 -21.4661 35.0381 -12.332 -14.2638 36.3205 -12.332 
-7.06149 36.6073 -12.332 6.76732 34.1708 -12.332 0.140801 36.0102 -12.332 
7.34309 34.1708 -12.1094 14.5454 34.1708 -8.77704 21.7477 34.1708 -5.17337 
-7.06149 -45.9983 -5.12966 -21.4661 -42.2258 -5.12966 -13.168 -45.0544 -5.12966 
-14.2638 -44.8714 -5.12966 0.0166651 -45.0544 -5.12966 -7.06149 -45.0544 -2.67566 
0.140801 -45.0368 -5.12966 7.34309 -43.049 -5.12966 14.5454 -39.9922 -5.12966 
-27.7184 -37.8521 -5.12966 -28.6684 -36.999 -5.12966 18.9676 -37.8521 -5.12966 
21.7477 -36.4436 -5.12966 28.95 -32.6772 -5.12966 -33.662 -30.6498 -5.12966 
-35.8706 -27.2903 -5.12966 31.9325 -30.6498 -5.12966 36.1522 -27.3309 -5.12966 
-38.3162 -23.4475 -5.12966 -43.0729 -16.5761 -5.12966 40.0392 -23.4475 -5.12966 
43.3545 -19.0338 -5.12966 -43.2847 -16.2452 -5.12966 -43.0729 -16.2452 -3.84101 
45.1493 -16.2452 -5.12966 -47.2203 -9.04291 -5.12966 48.2257 -9.04291 -5.12966 
-49.6742 -1.84062 -5.12966 49.9345 -1.84062 -5.12966 50.5568 -1.84062 -3.37353 
-50.1651 5.36167 -5.12966 50.4257 5.36167 -5.12966 50.5568 5.36167 -4.70158 
-49.3046 12.564 -5.12966 47.7373 12.564 -5.12966 43.3545 19.707 -5.12966 
-46.3906 19.7662 -5.12966 -43.0729 24.9384 -5.12966 43.3095 19.7662 -5.12966 
36.1522 26.6393 -5.12966 43.3545 19.7662 -5.01707 -41.3549 26.9685 -5.12966 
-35.8706 31.6591 -5.12966 35.6649 26.9685 -5.12966 28.95 31.3805 -5.12966 
36.1522 26.9685 -4.43736 -30.9144 34.1708 -5.12966 -28.6684 35.1311 -5.12966 
-28.6684 34.1708 1.6964 -21.4661 37.1619 -5.12966 -14.2638 38.6697 -5.12966 
-7.06149 39.4339 -5.12966 0.140801 39.4245 -5.12966 7.34309 38.403 -5.12966 
14.5454 36.4656 -5.12966 21.844 34.1708 -5.12966 21.7477 34.2019 -5.12966 
28.95 34.1708 1.74349 -21.4661 -39.5617 2.07262 -14.2638 -42.255 2.07262 
-7.06149 -43.0109 2.07262 0.140801 -42.2591 2.07262 7.34309 -40.7483 2.07262 
14.5454 -38.4006 2.07262 -24.0852 -37.8521 2.07262 -28.6684 -34.1035 2.07262 
-21.4661 -37.8521 4.60231 -14.2638 -37.8521 8.36752 -7.06149 -37.8521 9.00378 
0.140801 -37.8521 8.36775 7.34309 -37.8521 6.91799 15.9317 -37.8521 2.07262 
14.5454 -37.8521 3.21415 21.7477 -35.4919 2.07262 28.95 -31.9123 2.07262 
-31.6753 -30.6498 2.07262 -35.8706 -24.8106 2.07262 -28.6684 -30.6498 6.22458 
31.0662 -30.6498 2.07262 28.95 -30.6498 4.33531 36.1522 -27.1565 2.07262 
-36.8162 -23.4475 2.07262 -35.8706 -23.4475 3.50952 40.2392 -23.4475 2.07262 
36.1522 -23.4475 7.30478 43.3545 -20.1232 2.07262 -41.9175 -16.2452 2.07262 
-43.0729 -14.4214 2.07262 46.3901 -16.2452 2.07262 43.3545 -16.2452 7.73368 
-46.1341 -9.04291 2.07262 -43.0729 -9.04291 7.51592 50.1836 -9.04291 2.07262 
50.5568 -7.73541 2.07262 -48.7189 -1.84062 2.07262 52.1021 -1.84062 2.07262 
-49.415 5.36167 2.07262 52.2741 5.36167 2.07262 50.5568 10.7606 2.07262 
-48.7106 12.564 2.07262 49.9631 12.564 2.07262 -45.9466 19.7662 2.07262 
-43.0729 24.143 2.07262 -43.0729 19.7662 7.91784 45.6016 19.7662 2.07262 
43.3545 22.5291 2.07262 -40.5204 26.9685 2.07262 -35.8706 30.6846 2.07262 
-35.8706 26.9685 9.14832 -28.6684 34.1208 2.07262 39.135 26.9685 2.07262 
36.1522 29.5497 2.07262 -28.5064 34.1708 2.07262 -21.4661 36.365 2.07262 
-21.4661 34.1708 9.06011 -14.2638 38.2592 2.07262 -7.06149 39.3301 2.07262 
0.140801 39.5437 2.07262 7.34309 38.8927 2.07262 14.5454 37.958 2.07262 
21.7477 36.6625 2.07262 29.1242 34.1708 2.07262 28.95 34.2691 2.07262 
28.95 34.1708 3.10899 -21.4661 -33.0027 9.27491 -14.2638 -36.7817 9.27491 
-7.06149 -37.5487 9.27491 0.140801 -36.9451 9.27491 7.34309 -35.98 9.27491 
14.5454 -34.4505 9.27491 21.7477 -31.5702 9.27491 -24.5684 -30.6498 9.27491 
-28.6684 -26.0211 9.27491 -21.4661 -30.6498 10.7593 -14.2638 -30.6498 13.1357 
-7.06149 -30.6498 13.5967 0.140801 -30.6498 13.5753 7.34309 -30.6498 13.5061 
14.5454 -30.6498 12.9285 23.4496 -30.6498 9.27491 21.7477 -30.6498 10.231 
28.95 -26.5549 9.27491 -30.3835 -23.4475 9.27491 -35.8706 -16.5367 9.27491 
-28.6684 -23.4475 10.3801 -21.4661 -23.4475 13.5298 -14.2638 -23.4475 15.0329 
-7.06149 -23.4475 15.7544 0.140801 -23.4475 16.054 14.5454 -23.4475 16.4741 
21.7477 -23.4475 14.108 33.5084 -23.4475 9.27491 28.95 -23.4475 11.233 
36.1522 -21.4634 9.27491 -36.0888 -16.2452 9.27491 -35.8706 -16.2452 9.44453 
-28.6684 -16.2452 13.2605 -21.4661 -16.2452 14.4964 -14.2638 -16.2452 15.6537 
21.7477 -16.2452 15.4635 28.95 -16.2452 14.1291 41.9397 -16.2452 9.27491 
36.1522 -16.2452 12.2524 43.3545 -14.9077 9.27491 -41.6433 -9.04291 9.27491 
-43.0729 -5.94734 9.27491 -35.8706 -9.04291 13.1454 -28.6684 -9.04291 15.4769 
-21.4661 -9.04291 15.8141 36.1522 -9.04291 15.7023 47.4041 -9.04291 9.27491 
43.3545 -9.04291 12.7811 50.5568 -2.4961 9.27491 -44.5126 -1.84062 9.27491 
-43.0729 -1.84062 10.8595 -35.8706 -1.84062 15.2987 43.3545 -1.84062 15.8145 
50.7881 -1.84062 9.27491 50.5568 -1.84062 9.6162 -45.3331 5.36167 9.27491 
-43.0729 5.36167 11.5893 -35.8706 5.36167 16.2658 43.3545 5.36167 16.4228 
50.9748 5.36167 9.27491 50.5568 6.68117 9.27491 50.5568 5.36167 9.93725 
-44.4774 12.564 9.27491 -43.0729 17.2115 9.27491 -43.0729 12.564 10.833 
-35.8706 12.564 16.2707 48.5042 12.564 9.27491 43.3545 12.564 14.5695 
-42.0526 19.7662 9.27491 -35.8706 26.8624 9.27491 -35.8706 19.7662 13.7679 
36.1522 19.7662 15.6643 44.0872 19.7662 9.27491 43.3545 20.7022 9.27491 
43.3545 19.7662 10.2549 -35.7472 26.9685 9.27491 -28.6684 30.9455 9.27491 
-28.6684 26.9685 13.421 -21.4661 34.0866 9.27491 -21.4661 26.9685 16.3069 
28.95 33.4327 9.27491 28.95 26.9685 16.139 37.2517 26.9685 9.27491 
36.1522 27.9626 9.27491 36.1522 26.9685 10.3491 -21.2208 34.1708 9.27491 
-14.2638 36.2566 9.27491 -14.2638 34.1708 12.4432 -7.06149 37.8189 9.27491 
[...]
POINT_DATA 498
SCALARS ImageScalars float
LOOKUP_TABLE default
0 0 0 0 0 0 0 0 0 
0 0 0 0 0 0 0 0 0 
0 0 0 0 0 0 0 0 0 
0 0 0 0 0 0 0 0 0 
0 0 0 0 0 0 0 0 0 
0 0 0 0 0 0 0 0 0 
0 0 0 0 0 0 0 0 0 
0 0 0 0 0 0 0 0 0 
0 0 0 0 0 0 0 0 0 
0 0 0 0 0 0 0 0 0 
0 0 0 0 0 0 0 0 0 
0 0 0 0 0 0 0 0 0 
0 0 0 0 0 0 0 0 0 
0 0 0 0 0 0 0 0 0 
0 0 0 0 0 0 0 0 0 
0 0 0 0 0 0 0 0 0 
0 0 0 0 0 0 0 0 0 
0 0 0 0 0 0 0 0 0 
0 0 0 0 0 0 0 0 0 
0 0 0 0 0 0 0 0 0 
0 0 0 0 0 0 0 0 0 
0 0 0 0 0 0 0 0 0 
0 0 0 0 0 0 0 0 0 
0 0 0 0 0 0 0 0 0 
0 0 0 0 0 0 0 0 0 
0 0 0 0 0 0 0 0 0 
0 0 0 0 0 0 0 0 0 
0 0 0 0 0 0 0 0 0 
0 0 0 0 0 0 0 0 0 
0 0 0 0 0 0 0 0 0 
0 0 0 0 0 0 0 0 0 
0 0 0 0 0 0 0 0 0 
0 0 0 0 0 0 0 0 0 
0 0 0 0 0 0 0 0 0 
0 0 0 0 0 0 0 0 0 
0 0 0 0 0 0 0 0 0 
0 0 0 0 0 0 0 0 0 
0 0 0 0 0 0 0 0 0 
0 0 0 0 0 0 0 0 0 
0 0 0 0 0 0 0 0 0 
0 0 0 0 0 0 0 0 0 
0 0 0 0 0 0 0 0 0 
0 0 0 0 0 0 0 0 0 
0 0 0 0 0 0 0 0 0 
0 0 0 0 0 0 0 0 0 
0 0 0 0 0 0 0 0 0 
0 0 0 0 0 0 0 0 0 
0 0 0 0 0 0 0 0 0 
0 0 0 0 0 0 0 0 0 
0 0 0 0 0 0 0 0 0 
0 0 0 0 0 0 0 0 0 
0 0 0 0 0 0 0 0 0 
0 0 0 0 0 0 0 0 0 
0 0 0 0 0 0 0 0 0 
0 0 0 0 0 0 0 0 0 
0 0 0 
NORMALS Normals float
0.0341602 0.0100278 -0.999366 -0.44274 -0.599292 -0.666956 -0.144551 -0.483314 -0.863431 
0.0153063 -0.41318 -0.910521 0.164172 -0.457868 -0.87373 0.28116 -0.590289 -0.756642 
-0.624539 -0.390115 -0.67658 -0.239576 -0.172714 -0.955392 -0.0905591 -0.107593 -0.990062 
0.0101916 -0.0771996 -0.996964 0.0904253 -0.0966692 -0.9912 0.116801 -0.182343 -0.976273 
0.241798 -0.334574 -0.910821 0.387413 -0.546524 -0.742444 -0.415698 -0.134703 -0.899472 
-0.187495 -0.00985406 -0.982216 -0.0483464 0.0707337 -0.996323 0.0335409 0.119373 -0.992283 
0.0459097 0.114828 -0.992324 0.0124935 0.0196316 -0.999729 0.0758702 -0.109449 -0.991093 
0.225873 -0.253167 -0.940685 0.38271 -0.375876 -0.843949 -0.497683 -0.352204 -0.792631 
-0.204281 -0.113111 -0.972355 -0.0447509 0.0464319 -0.997919 0.0375264 0.178362 -0.983249 
0.0586723 0.214996 -0.974851 -0.0130667 0.197539 -0.980208 -0.111522 0.0609193 -0.991893 
-0.0492783 -0.00226235 -0.998783 0.107892 -0.0836632 -0.990636 0.28899 -0.172561 -0.941651 
0.492309 -0.259164 -0.830943 -0.668557 -0.391246 -0.632422 -0.270071 -0.215804 -0.938345 
-0.0604982 -0.124969 -0.990314 0.0905093 -0.034196 -0.995308 0.12116 0.0233086 -0.992359 
0.0541022 -0.0469792 -0.99743 -0.103396 0.00109207 -0.99464 -0.187925 -0.0213105 -0.981952 
-0.0680184 0.0116108 -0.997617 0.0632874 -0.0258641 -0.99766 0.213861 -0.0830282 -0.973329 
0.414502 -0.16962 -0.894101 -0.535938 -0.129499 -0.834266 -0.226324 -0.126016 -0.965866 
-0.0190292 -0.109427 -0.993813 0.103202 -0.0764499 -0.991718 0.0120223 -0.130568 -0.991367 
0.0468484 -0.193305 -0.98002 0.0212078 -0.19286 -0.980997 -0.108554 -0.119049 -0.986936 
-0.0512021 -0.000130208 -0.998688 0.0162763 -0.0350861 -0.999252 0.159806 -0.0684251 -0.984774 
0.366192 -0.111107 -0.923882 0.602987 -0.120847 -0.788544 -0.548175 0.0767698 -0.832833 
-0.241117 0.0474864 -0.969334 -0.0096883 0.0194182 -0.999765 0.0725301 -0.032872 -0.996824 
0.0183747 -0.0864613 -0.996086 -0.0128162 -0.00456861 -0.999907 -0.0471144 -0.115473 -0.992193 
0.00965695 -0.0111177 -0.999892 0.0137369 0.0978874 -0.995103 -0.00593018 0.0729142 -0.997321 
0.142419 0.0688474 -0.987409 0.345364 0.0603137 -0.936529 0.605047 0.0796068 -0.7922 
-0.602945 0.211115 -0.769342 -0.272984 0.118967 -0.954634 -0.099254 0.0653682 -0.992913 
-0.00353767 -0.0471764 -0.99888 0.0341469 0.00371865 -0.99941 0.0355745 -0.0787432 -0.99626 
0.0176035 -0.0324437 -0.999319 0.0269933 0.0214103 -0.999406 0.108284 0.15858 -0.98139 
0.0287301 0.192664 -0.980844 -0.0145665 0.243608 -0.969764 0.140821 0.254188 -0.956848 
0.38476 0.26868 -0.883047 -0.397026 0.27432 -0.875853 -0.174184 0.164147 -0.970936 
-0.0177114 0.0196496 -0.99965 -0.0708472 0.0296879 -0.997045 0.038326 0.00898907 -0.999225 
0.0321938 0.0245059 -0.999181 0.087153 -0.00318493 -0.99619 0.138701 0.0706094 -0.987814 
0.178108 0.15767 -0.971297 0.107818 0.23034 -0.967119 0.0700577 0.360224 -0.930231 
0.16528 0.439173 -0.883068 0.42634 0.506796 -0.749261 -0.530846 0.547562 -0.646822 
-0.31506 0.424935 -0.848627 -0.158466 0.30928 -0.937675 -0.00201714 0.265561 -0.964092 
0.07651 0.227746 -0.97071 0.184459 0.246722 -0.951369 0.263599 0.288538 -0.920468 
0.229524 0.356151 -0.905801 -0.230943 0.788314 -0.570286 -0.0770974 0.727314 -0.681961 
0.0437528 0.663138 -0.747217 0.167347 0.638536 -0.751177 -0.456445 -0.758968 -0.464355 
-0.234451 -0.848488 -0.474449 -0.0172976 -0.878545 -0.477347 -0.0166861 -0.958973 -0.283006 
0.210695 -0.845466 -0.490709 0.336551 -0.771074 -0.540535 -0.571621 -0.664435 -0.481431 
-0.676606 -0.534095 -0.506899 0.428641 -0.745066 -0.511023 0.429594 -0.743708 -0.512199 
0.431357 -0.751607 -0.499017 0.426741 -0.648364 -0.630489 -0.727751 -0.447818 -0.519459 
0.45099 -0.613107 -0.64862 0.464722 -0.546933 -0.696346 0.524584 -0.745442 -0.411252 
-0.679122 -0.365151 -0.636756 -0.661995 -0.397538 -0.635394 -0.765956 -0.442568 -0.466309 
0.520573 -0.438221 -0.73278 0.546437 -0.358555 -0.756866 0.627572 -0.518822 -0.580498 
-0.61107 -0.43395 -0.662028 -0.688099 -0.410333 -0.598454 -0.840296 -0.522395 -0.144935 
0.559428 -0.288636 -0.777 0.766793 -0.416515 -0.48841 -0.703779 -0.393012 -0.591808 
0.548148 -0.205147 -0.810832 0.603564 -0.125426 -0.787387 0.641684 -0.229321 -0.731883 
-0.782678 -0.153488 -0.603206 0.60602 -0.120649 -0.786247 -0.756111 0.0694063 -0.650752 
0.633886 0.0836005 -0.768895 0.620788 0.16257 -0.766937 -0.72851 0.199314 -0.655398 
-0.632885 0.382843 -0.672969 0.56925 0.310622 -0.761228 0.658185 0.333319 -0.675049 
-0.603049 0.419535 -0.678471 -0.664785 0.44057 -0.60329 0.188242 0.482085 -0.855663 
0.244283 0.532959 -0.810111 0.433608 0.508101 -0.744189 0.428388 0.512138 -0.744445 
-0.563552 0.558685 -0.608506 -0.541715 0.582386 -0.606112 -0.373428 0.717716 -0.587737 
0.255879 0.620467 -0.741314 0.202418 0.471103 -0.858539 0.260045 0.460876 -0.84851 
0.200499 0.497244 -0.844126 0.343674 0.633399 -0.693321 -0.289898 0.806641 -0.515062 
-0.356914 0.899437 -0.252241 -0.235483 0.831317 -0.503448 -0.101481 0.840293 -0.532549 
0.0165544 0.802994 -0.595757 0.247731 0.635796 -0.731022 0.152577 0.730156 -0.666028 
0.254572 0.641992 -0.723214 0.303478 0.753094 -0.583739 0.286601 0.830559 -0.477526 
-0.0100125 -0.995583 0.0933478 -0.454341 -0.888769 0.0605344 -0.197813 -0.977651 0.0711881 
-0.231048 -0.970769 0.0649869 0.197986 -0.976964 0.0796435 -0.00863877 -0.973137 0.230064 
0.201397 -0.976305 0.0791633 0.320321 -0.946954 0.0259247 0.418887 -0.907571 -0.0291215 
-0.657798 -0.752858 0.0225238 -0.692626 -0.721208 0.0113162 0.431337 -0.899107 -0.0745283 
0.444878 -0.887925 -0.116934 0.521275 -0.837935 -0.161669 -0.823043 -0.5668 -0.0365911 
-0.842031 -0.534932 -0.0695047 0.566561 -0.802689 -0.186276 0.659307 -0.715697 -0.230415 
-0.83953 -0.535191 -0.0935931 -0.844533 -0.523742 -0.111617 0.736658 -0.621188 -0.267321 
0.787845 -0.514747 -0.338136 -0.846159 -0.521031 -0.111989 -0.847404 -0.529414 -0.0403376 
0.812739 -0.447196 -0.37346 -0.902735 -0.413642 -0.118191 0.851213 -0.280563 -0.443533 
-0.976984 -0.180516 -0.113653 0.878553 -0.120163 -0.462283 0.927307 -0.125087 -0.352782 
-0.990304 0.0219654 -0.13717 0.895349 0.130242 -0.425896 0.906323 0.132066 -0.401419 
-0.953435 0.244082 -0.177158 0.822021 0.37581 -0.427842 0.718282 0.561374 -0.411011 
-0.876596 0.454889 -0.157019 -0.771675 0.611324 -0.175502 0.716965 0.563142 -0.410892 
0.529149 0.713858 -0.458703 0.719624 0.56419 -0.404759 -0.71479 0.680154 -0.162687 
-0.577965 0.804969 -0.134093 0.519795 0.717467 -0.463739 0.401974 0.774709 -0.488101 
0.541614 0.727689 -0.420861 -0.39869 0.911802 -0.0983016 -0.326241 0.941495 -0.0845772 
-0.331905 0.919377 0.211152 -0.230446 0.969953 -0.078006 -0.154093 0.981078 -0.117221 
-0.0515817 0.985564 -0.161253 0.0686729 0.977289 -0.200476 0.199488 0.939852 -0.277276 
0.272352 0.883698 -0.380661 0.287978 0.831246 -0.475498 0.286554 0.831699 -0.475566 
0.425536 0.897912 -0.112579 -0.430315 -0.793088 0.431092 -0.20505 -0.870134 0.448131 
-0.00120281 -0.87183 0.489807 0.143148 -0.875907 0.460755 0.240476 -0.880803 0.407868 
0.325656 -0.891546 0.314791 -0.50495 -0.748444 0.429951 -0.640984 -0.647382 0.412355 
-0.437622 -0.733273 0.520383 -0.18322 -0.702451 0.687745 -0.000529417 -0.68396 0.729519 
0.084573 -0.726387 0.682063 0.175524 -0.79845 0.575907 0.336502 -0.891011 0.304737 
0.314722 -0.880965 0.353342 0.391181 -0.879717 0.270325 0.48003 -0.834497 0.270527 
-0.723263 -0.572716 0.385859 -0.762518 -0.542257 0.352879 -0.615438 -0.546731 0.567734 
0.516184 -0.814549 0.264695 0.482677 -0.786725 0.38482 0.604716 -0.757122 0.247153 
-0.766054 -0.543329 0.343446 -0.737742 -0.535104 0.411583 0.680043 -0.700287 0.217115 
0.523817 -0.638582 0.563763 0.746651 -0.643823 0.167342 -0.789923 -0.526696 0.314027 
-0.809284 -0.504632 0.300677 0.816082 -0.56799 0.106762 0.62009 -0.584481 0.523327 
-0.861481 -0.415709 0.291611 -0.742903 -0.394278 0.540962 0.938377 -0.344445 0.0284048 
0.953753 -0.300349 0.0120793 -0.934648 -0.20242 0.292333 0.98998 -0.132077 -0.049944 
-0.961867 0.000240276 0.273518 0.988347 0.14641 -0.041639 0.941017 0.335775 -0.0417359 
-0.937643 0.222145 0.267351 0.91632 0.398063 -0.0436258 -0.858859 0.45577 0.233741 
-0.768723 0.592253 0.241457 -0.745601 0.419276 0.517964 0.799326 0.599779 -0.0366549 
0.760253 0.648427 -0.0394661 -0.681344 0.689941 0.244442 -0.547463 0.797225 0.254394 
-0.539725 0.637657 0.549628 -0.331618 0.915548 0.227597 0.672463 0.738285 -0.0522343 
0.61195 0.787868 -0.0691503 -0.329648 0.916589 0.226269 -0.264932 0.945249 0.190565 
-0.301744 0.843752 0.443885 -0.199931 0.968249 0.150071 -0.0867409 0.991118 0.100799 
0.0301952 0.995367 0.0912826 0.108684 0.992385 0.0579617 0.150409 0.988253 -0.0270921 
0.251214 0.96231 -0.104167 0.429484 0.897881 -0.0967114 0.425171 0.899899 -0.0970107 
0.430739 0.901688 -0.0377137 -0.367683 -0.535784 0.760095 -0.180948 -0.649053 0.73891 
-0.00258255 -0.668577 0.743638 0.071265 -0.681771 0.728087 0.125134 -0.720834 0.681718 
0.231142 -0.752714 0.616438 0.374227 -0.685608 0.624417 -0.442889 -0.490245 0.750673 
-0.523517 -0.410251 0.746742 -0.34597 -0.456741 0.819568 -0.177671 -0.379541 0.907955 
-0.0263348 -0.398806 0.916657 0.00559186 -0.439219 0.898362 0.0367515 -0.545196 0.837503 
0.178499 -0.598604 0.780904 0.396472 -0.665918 0.631952 0.370589 -0.645427 0.667899 
0.414975 -0.563331 0.71446 -0.533536 -0.388221 0.751414 -0.540015 -0.45942 0.705207 
-0.485561 -0.353577 0.799508 -0.289701 -0.234923 0.927839 -0.149841 -0.155431 0.976416 
-0.0697029 -0.220248 0.97295 -0.0911149 -0.249949 0.963962 0.194425 -0.282398 0.939388 
0.335376 -0.294732 0.894794 0.439099 -0.550481 0.710045 0.361716 -0.448595 0.817266 
0.443648 -0.562078 0.69803 -0.541049 -0.459904 0.704098 -0.534448 -0.456942 0.711034 
-0.289921 -0.316844 0.903081 -0.149377 -0.153723 0.976758 -0.167554 -0.100361 0.980741 
0.236034 -0.174311 0.955983 0.204597 -0.335618 0.919511 0.52186 -0.551036 0.651169 
0.324077 -0.456981 0.828337 0.563611 -0.544288 0.621364 -0.660414 -0.376918 0.64945 
-0.710859 -0.297375 0.637376 -0.404663 -0.334862 0.850949 -0.163238 -0.255681 0.95288 
-0.06806 -0.262243 0.962599 0.21779 -0.361005 0.906776 0.717902 -0.421605 0.553954 
0.504385 -0.425028 0.75163 0.881161 -0.200495 0.428203 -0.738357 -0.190186 0.647038 
-0.682622 -0.182829 0.707531 -0.361243 -0.19478 0.911902 0.437017 -0.209267 0.874771 
0.888993 -0.181678 0.420339 0.877967 -0.184135 0.441892 -0.753605 0.00138637 0.657326 
-0.675079 0.000587442 0.737745 -0.415402 -0.0601678 0.907646 0.418445 0.0676992 0.905715 
0.910784 0.138699 0.38889 0.902071 0.188162 0.38841 0.892525 0.136701 0.429781 
-0.745655 0.176642 0.642492 -0.725594 0.321088 0.608618 -0.705667 0.161795 0.689823 
-0.424107 0.139986 0.894727 0.820008 0.395303 0.413912 0.525921 0.308351 0.792671 
-0.694861 0.400878 0.597047 -0.538592 0.632073 0.557138 -0.483865 0.356729 0.799136 
0.362451 0.34405 0.866175 0.733263 0.562218 0.38241 0.722994 0.578219 0.378078 
0.710257 0.548202 0.441599 -0.53555 0.635667 0.555979 -0.380658 0.756455 0.531861 
-0.35549 0.574401 0.737353 -0.302789 0.838122 0.453729 -0.262832 0.484249 0.834519 
0.438845 0.830414 0.34326 0.385633 0.412242 0.825435 0.622555 0.668812 0.406344 
0.608322 0.684671 0.401459 0.600235 0.646449 0.470979 -0.300181 0.840509 0.451038 
-0.238065 0.879047 0.413038 -0.236705 0.785551 0.571735 -0.110372 0.911615 0.395949 
-0.10735 0.730512 0.67441 0.0223998 0.921163 0.388532 -0.00143004 0.738548 0.674199 
0.0692306 0.928103 0.365831 0.0317816 0.77487 0.631321 0.0987431 0.943157 0.317341 
0.0927334 0.800347 0.592322 0.379094 0.864767 0.329341 0.223794 0.923824 0.31059 
0.240305 0.827388 0.507625 -0.0194334 -0.356858 0.933957 -0.106143 -0.266764 0.957899 
-0.0673098 -0.276197 0.958741 -0.100526 -0.276142 0.955845 0.193424 -0.282567 0.939544 
-0.030769 -0.317387 0.947797 0.194487 -0.282085 0.939469 -0.14385 -0.228766 0.962794 
-0.295998 -0.26801 0.916818 -0.131087 -0.302186 0.944193 -0.119722 -0.353141 0.927878 
-0.00555587 -0.327837 0.944718 0.229603 -0.164995 0.959197 0.225288 -0.176774 0.958121 
0.166936 -0.204828 0.964457 0.0782622 -0.310271 0.947421 -0.17857 -0.22649 0.957504 
-0.284125 -0.280681 0.916783 -0.089495 -0.27607 0.956962 -0.306858 -0.28252 0.908857 
-0.2755 -0.365974 0.888911 -0.0825978 -0.238334 0.967664 0.0978845 -0.305077 0.947284 
0.370208 -0.221068 0.902261 0.151211 -0.214827 0.964876 0.09612 -0.317801 0.943273 
0.0702549 -0.308157 0.948738 0.205591 -0.302155 0.930825 -0.257773 -0.202997 0.94464 
-0.195909 -0.2136 0.957076 -0.173659 -0.295554 0.939409 -0.294882 -0.336204 0.894434 
-0.0383859 -0.109537 0.993241 -0.0647318 -0.0973732 0.993141 -0.0221855 -0.114396 0.993187 
0.36631 -0.015187 0.930369 0.130493 -0.143006 0.981082 0.0371236 -0.161385 0.986193 
0.356047 -0.200057 0.912802 0.179319 -0.183774 0.966474 -0.401284 -0.0635479 0.913747 
-0.257462 -0.0886162 0.962217 -0.21583 -0.133338 0.967284 -0.170005 -0.0574366 0.983768 
-0.0551459 -0.0128836 0.998395 -0.0860004 -0.203146 0.975364 0.349147 0.0510202 0.935678 
0.0481491 -0.0068163 0.998817 0.0272692 0.02746 0.999251 0.411066 0.0672097 0.909124 
0.163113 0.0606976 0.984739 -0.409301 0.13501 0.902355 -0.275032 0.0924502 0.95698 
-0.18743 0.0762245 0.979316 -0.150247 0.115502 0.981878 -0.182025 0.0886584 0.979289 
0.351035 -0.0585834 0.934528 0.120743 -0.0371438 0.991989 0.103416 0.0806402 0.991364 
0.294327 0.206756 0.933072 0.282769 0.248909 0.926329 0.224175 0.183297 0.957156 
-0.356737 0.304956 0.883029 -0.326573 0.352796 0.876861 -0.317528 0.291455 0.902347 
-0.258397 0.46927 0.844403 -0.193762 0.253869 0.947632 -0.151544 0.209461 0.966002 
-0.153888 0.218419 0.963645 -0.0902757 0.279363 0.955932 0.121123 0.240849 0.962975 
0.213404 0.0479473 0.975787 0.188758 0.0516132 0.980666 0.313043 0.262293 0.912801 
0.360669 0.362415 0.859403 0.258268 0.144439 0.955215 -0.25639 0.475566 0.841488 
-0.214459 0.522983 0.824922 -0.194214 0.405299 0.893316 -0.10968 0.591227 0.799012 
-0.115295 0.381506 0.917148 -0.0131583 0.645709 0.76347 -0.0522183 0.429005 0.901792 
0.0252431 0.664055 0.747257 0.0327799 0.449033 0.892914 0.105124 0.625155 0.773389 
0.149905 0.336649 0.929621 0.352274 0.394841 0.84853 0.222468 0.47643 0.850602 
0.21096 0.346121 0.914164 0.0752287 -0.0774452 0.994154 0.115024 -0.0796881 0.990161 
-0.093659 -0.0646573 0.993503 0.192805 -0.0312825 0.980738 0.176143 -0.0400482 0.98355 
-0.12295 0.0387323 0.991657 -0.094588 0.098327 0.990649 -0.095773 0.0154131 0.995284 
0.263711 0.0764844 0.961565 0.221259 0.12512 0.967155 0.250404 0.0870347 0.964221 

