# vtk DataFile Version 4.2
vtk output
ASCII
DATASET POLYDATA
POINTS 576 float
-44.9753 -40.2095 -12.2162 -36.8564 -40.2095 -13.106 -28.7374 -40.2095 -14.0561 
-20.6184 -40.2095 -13.8409 -12.4995 -40.2095 -12.4811 -53.0943 -32.0906 -13.5419 
-44.9753 -32.0906 -16.0471 -36.8564 -32.0906 -16.2921 -28.7374 -32.0906 -17.3582 
-20.6184 -32.0906 -16.7765 -12.4995 -32.0906 -15.6208 -4.38053 -32.0906 -14.802 
3.73842 -32.0906 -13.4193 11.8574 -32.0906 -12.8652 19.9763 -32.0906 -13.2989 
28.0953 -32.0906 -13.6115 36.2142 -32.0906 -13.4503 -53.0943 -23.9716 -15.5644 
-44.9753 -23.9716 -16.7475 -36.8564 -23.9716 -18.1983 -28.7374 -23.9716 -17.7273 
-20.6184 -23.9716 -17.7539 -12.4995 -23.9716 -16.3274 -4.38053 -23.9716 -15.6449 
3.73842 -23.9716 -15.3767 11.8574 -23.9716 -15.0456 19.9763 -23.9716 -15.6966 
28.0953 -23.9716 -16.1517 36.2142 -23.9716 -15.1639 44.3332 -23.9716 -13.4007 
-61.2132 -15.8527 -14.4324 -53.0943 -15.8527 -18.0812 -44.9753 -15.8527 -17.7431 
-36.8564 -15.8527 -17.9967 -28.7374 -15.8527 -17.7169 -20.6184 -15.8527 -16.8739 
-12.4995 -15.8527 -15.9155 -4.38053 -15.8527 -15.6079 3.73842 -15.8527 -15.6978 
11.8574 -15.8527 -14.8502 19.9763 -15.8527 -15.573 28.0953 -15.8527 -16.282 
36.2142 -15.8527 -15.7314 44.3332 -15.8527 -14.7587 -61.2132 -7.73371 -13.0542 
-53.0943 -7.73371 -17.2103 -44.9753 -7.73371 -18.1876 -36.8564 -7.73371 -17.7602 
-28.7374 -7.73371 -16.5544 -20.6184 -7.73371 -15.4962 -12.4995 -7.73371 -16.8363 
-4.38053 -7.73371 -18.2798 3.73842 -7.73371 -17.3678 11.8574 -7.73371 -13.3883 
19.9763 -7.73371 -14.6794 28.0953 -7.73371 -15.6579 36.2142 -7.73371 -15.5565 
44.3332 -7.73371 -14.3886 -61.2132 0.385242 -13.226 -53.0943 0.385242 -17.096 
-44.9753 0.385242 -18.1081 -36.8564 0.385242 -17.5937 -28.7374 0.385242 -16.3952 
-20.6184 0.385242 -15.2301 -12.4995 0.385242 -19.6423 -4.38053 0.385242 -15.3129 
3.73842 0.385242 -15.7398 11.8574 0.385242 -13.9973 19.9763 0.385242 -14.3849 
28.0953 0.385242 -15.4721 36.2142 0.385242 -15.57 44.3332 0.385242 -14.4159 
-61.2132 8.5042 -14.0573 -53.0943 8.5042 -18.2154 -44.9753 8.5042 -17.7143 
-36.8564 8.5042 -17.5899 -28.7374 8.5042 -16.7349 -20.6184 8.5042 -15.8789 
-12.4995 8.5042 -17.1005 -4.38053 8.5042 -17.3319 3.73842 8.5042 -18.5064 
11.8574 8.5042 -14.2719 19.9763 8.5042 -15.0078 28.0953 8.5042 -16.1461 
36.2142 8.5042 -15.9599 44.3332 8.5042 -14.8443 52.4522 8.5042 -12.3691 
-53.0943 16.6232 -15.3804 -44.9753 16.6232 -16.7714 -36.8564 16.6232 -17.5838 
-28.7374 16.6232 -17.6698 -20.6184 16.6232 -17.0481 -12.4995 16.6232 -16.1838 
-4.38053 16.6232 -16.0754 3.73842 16.6232 -16.4647 11.8574 16.6232 -15.4451 
19.9763 16.6232 -15.9869 28.0953 16.6232 -16.6682 36.2142 16.6232 -16.5318 
44.3332 16.6232 -15.4262 -53.0943 24.7421 -12.6283 -44.9753 24.7421 -16.0868 
-36.8564 24.7421 -17.414 -28.7374 24.7421 -17.6435 -20.6184 24.7421 -18.0056 
-12.4995 24.7421 -17.2874 -4.38053 24.7421 -17.1184 3.73842 24.7421 -17.1221 
11.8574 24.7421 -16.5163 19.9763 24.7421 -16.744 28.0953 24.7421 -16.4561 
36.2142 24.7421 -15.8515 44.3332 24.7421 -15.1397 -44.9753 32.8611 -13.8465 
-36.8564 32.8611 -16.3015 -28.7374 32.8611 -17.5663 -20.6184 32.8611 -17.3445 
-12.4995 32.8611 -17.5948 -4.38053 32.8611 -17.8024 3.73842 32.8611 -17.1328 
11.8574 32.8611 -16.3919 19.9763 32.8611 -16.7033 28.0953 32.8611 -15.572 
36.2142 32.8611 -15.5664 -36.8564 40.98 -12.7182 -28.7374 40.98 -14.9021 
-20.6184 40.98 -15.622 -12.4995 40.98 -16.3576 -4.38053 40.98 -16.342 
3.73842 40.98 -15.4586 11.8574 40.98 -14.4754 19.9763 40.98 -14.1357 
28.0953 40.98 -12.6518 -44.9753 -40.2408 -12.1907 -36.8564 -41.2919 -12.1907 
-28.7374 -42.9633 -12.1907 -20.6184 -42.7217 -12.1907 -12.4995 -40.5854 -12.1907 
-45.0267 -40.2095 -12.1907 -53.0943 -34.2539 -12.1907 -11.4364 -40.2095 -12.1907 
-4.38053 -37.0072 -12.1907 -4.38053 -40.2095 -9.36354 3.73842 -33.9918 -12.1907 
3.73842 -40.2095 -5.27462 11.8574 -33.082 -12.1907 19.9763 -33.8135 -12.1907 
19.9763 -40.2095 -4.88912 28.0953 -34.5511 -12.1907 28.0953 -40.2095 -7.27751 
36.2142 -34.2514 -12.1907 36.2142 -40.2095 -7.15851 44.3332 -40.2095 -5.38872 
-55.1301 -32.0906 -12.1907 40.1503 -32.0906 -12.1907 44.3332 -28.0753 -12.1907 
44.3332 -32.0906 -10.9467 52.4522 -32.0906 -8.36084 -60.9716 -23.9716 -12.1907 
-61.2132 -23.6973 -12.1907 -61.2132 -23.9716 -12.0217 49.3578 -23.9716 -12.1907 
52.4522 -23.9716 -11.2471 60.5711 -23.9716 -5.8558 -64.2251 -15.8527 -12.1907 
50.8206 -15.8527 -12.1907 52.4522 -15.8527 -11.4585 60.5711 -15.8527 -7.48139 
-62.5213 -7.73371 -12.1907 52.1823 -7.73371 -12.1907 52.4522 -7.73371 -12.1165 
60.5711 -7.73371 -8.03984 -62.717 0.385242 -12.1907 -69.3322 0.385242 -4.20944 
52.2292 0.385242 -12.1907 52.4522 2.61515 -12.1907 52.4522 0.385242 -12.1301 
60.5711 0.385242 -7.77076 -63.5563 8.5042 -12.1907 -61.2132 14.7628 -12.1907 
52.8846 8.5042 -12.1907 52.4522 11.4168 -12.1907 60.5711 8.5042 -8.9942 
-59.6902 16.6232 -12.1907 -61.2132 16.6232 -10.9655 51.8417 16.6232 -12.1907 
52.4522 16.6232 -11.89 60.5711 16.6232 -6.61301 -53.8076 24.7421 -12.1907 
-53.0943 26.0098 -12.1907 50.5893 24.7421 -12.1907 44.3332 30.6008 -12.1907 
52.4522 24.7421 -11.0056 -48.2757 32.8611 -12.1907 -53.0943 32.8611 -7.97377 
-44.9753 36.1298 -12.1907 42.2199 32.8611 -12.1907 36.2142 37.6911 -12.1907 
44.3332 32.8611 -10.9844 52.4522 32.8611 -6.30008 -38.2497 40.98 -12.1907 
-44.9753 40.98 -6.98809 -36.8564 41.6226 -12.1907 -28.7374 45.9035 -12.1907 
-20.6184 46.7306 -12.1907 -12.4995 47.6883 -12.1907 -4.38053 47.497 -12.1907 
3.73842 46.2467 -12.1907 11.8574 44.7725 -12.1907 19.9763 44.5854 -12.1907 
29.3872 40.98 -12.1907 28.0953 41.6062 -12.1907 36.2142 40.98 -9.65042 
44.3332 40.98 -5.04916 -28.7374 49.099 -5.51959 -20.6184 49.099 -8.92721 
-12.4995 49.099 -10.3946 -4.38053 49.099 -10.308 3.73842 49.099 -9.13138 
11.8574 49.099 -7.41454 19.9763 49.099 -5.96209 -44.9753 -44.6156 -4.07171 
-36.8564 -46.9219 -4.07171 -28.7374 -48.0539 -4.07171 -20.6184 -48.1197 -4.07171 
-12.4995 -46.3078 -4.07171 -4.38053 -43.69 -4.07171 3.73842 -40.9797 -4.07171 
19.9763 -40.6921 -4.07171 28.0953 -42.281 -4.07171 36.2142 -42.3992 -4.07171 
44.3332 -41.1413 -4.07171 -52.064 -40.2095 -4.07171 -53.0943 -39.4934 -4.07171 
10.6169 -40.2095 -4.07171 13.6981 -40.2095 -4.07171 11.8574 -40.0747 -4.07171 
11.8574 -40.2095 -3.38212 46.6494 -40.2095 -4.07171 52.4522 -37.1578 -4.07171 
52.4522 -40.2095 3.33317 -60.4254 -32.0906 -4.07171 -61.2132 -31.0277 -4.07171 
57.4798 -32.0906 -4.07171 60.5711 -27.3711 -4.07171 60.5711 -32.0906 1.60038 
-65.5023 -23.9716 -4.07171 62.5008 -23.9716 -4.07171 -68.5675 -15.8527 -4.07171 
64.3172 -15.8527 -4.07171 -69.298 -7.73371 -4.07171 -69.3322 -4.83106 -4.07171 
65.4519 -7.73371 -4.07171 68.6901 -7.73371 1.39164 -69.3973 0.385242 -4.07171 
-69.3322 0.661204 -4.07171 -69.3322 0.385242 -3.90068 64.6938 0.385242 -4.07171 
68.6901 0.385242 2.74684 -67.5408 8.5042 -4.07171 65.5603 8.5042 -4.07171 
-64.8739 16.6232 -4.07171 -61.2132 24.3161 -4.07171 62.9395 16.6232 -4.07171 
60.5711 22.3353 -4.07171 -60.998 24.7421 -4.07171 59.1308 24.7421 -4.07171 
60.5711 24.7421 2.6656 -55.3057 32.8611 -4.07171 -53.0943 35.4006 -4.07171 
-53.0943 32.8611 3.35565 54.1508 32.8611 -4.07171 52.4522 34.655 -4.07171 
-46.7525 40.98 -4.07171 -44.9753 42.3483 -4.07171 -44.9753 40.98 0.509937 
-36.8564 46.5893 -4.07171 28.0953 48.43 -4.07171 36.2142 45.6355 -4.07171 
45.1474 40.98 -4.07171 44.3332 41.5714 -4.07171 44.3332 40.98 1.28022 
-29.8654 49.099 -4.07171 -28.7374 49.4808 -4.07171 -28.7374 49.099 -2.91653 
-20.6184 51.0304 -4.07171 -20.6184 49.099 1.6483 -12.4995 51.7623 -4.07171 
-4.38053 51.9646 -4.07171 3.73842 51.687 -4.07171 11.8574 50.7616 -4.07171 
11.8574 49.099 3.96094 24.5354 49.099 -4.07171 19.9763 49.836 -4.07171 
19.9763 49.099 0.0832967 -44.9753 -43.0841 4.04725 -36.8564 -45.6672 4.04725 
-28.7374 -47.5366 4.04725 -20.6184 -47.9529 4.04725 -12.4995 -46.7399 4.04725 
-4.38053 -44.7116 4.04725 3.73842 -42.1753 4.04725 11.8574 -41.4911 4.04725 
19.9763 -41.9655 4.04725 28.0953 -43.8004 4.04725 36.2142 -45.1565 4.04725 
44.3332 -43.3988 4.04725 52.4522 -40.4563 4.04725 -49.4043 -40.2095 4.04725 
-53.0943 -37.3266 4.04725 -44.9753 -40.2095 7.38229 3.73842 -40.2095 8.78595 
11.8574 -40.2095 7.50397 19.9763 -40.2095 11.0666 52.8156 -40.2095 4.04725 
52.4522 -40.2095 4.8547 60.5711 -33.5219 4.04725 -57.8219 -32.0906 4.04725 
-61.2132 -27.1019 4.04725 -53.0943 -32.0906 8.38521 -44.9753 -32.0906 11.7712 
61.6613 -32.0906 4.04725 60.5711 -32.0906 7.40246 -62.9858 -23.9716 4.04725 
-61.2132 -23.9716 5.93274 66.4783 -23.9716 4.04725 -65.6134 -15.8527 4.04725 
-61.2132 -15.8527 8.39925 -53.0943 -15.8527 11.8856 68.3775 -15.8527 4.04725 
68.6901 -13.9084 4.04725 -65.223 -7.73371 4.04725 -61.2132 -7.73371 7.93346 
69.6827 -7.73371 4.04725 68.6901 -7.73371 7.47585 -66.2497 0.385242 4.04725 
-61.2132 0.385242 9.13733 69.1904 0.385242 4.04725 68.6901 4.31554 4.04725 
68.6901 0.385242 5.45219 -64.8509 8.5042 4.04725 -61.2132 8.5042 7.76632 
-53.0943 8.5042 11.7224 68.126 8.5042 4.04725 -62.2255 16.6232 4.04725 
-61.2132 18.9748 4.04725 -61.2132 16.6232 5.16933 65.2523 16.6232 4.04725 
60.5711 16.6232 11.7583 -58.5983 24.7421 4.04725 -53.0943 32.5748 4.04725 
-53.0943 24.7421 9.39503 52.4522 24.7421 11.1303 60.7971 24.7421 4.04725 
60.5711 25.0599 4.04725 60.5711 24.7421 4.39935 -52.7551 32.8611 4.04725 
-44.9753 39.5022 4.04725 -44.9753 32.8611 9.6777 -36.8564 32.8611 11.8516 
44.3332 40.5535 4.04725 44.3332 32.8611 9.98766 54.1826 32.8611 4.04725 
52.4522 34.4777 4.04725 52.4522 32.8611 6.02595 -43.0453 40.98 4.04725 
-36.8564 44.044 4.04725 -36.8564 40.98 7.35881 -28.7374 46.0505 4.04725 
-28.7374 40.98 8.66659 -20.6184 47.9128 4.04725 -20.6184 40.98 9.39405 
-12.4995 40.98 10.2386 -4.38053 40.98 10.9728 3.73842 40.98 11.1608 
11.8574 49.0759 4.04725 11.8574 40.98 11.001 19.9763 48.1731 4.04725 
19.9763 40.98 10.4427 28.0953 46.6035 4.04725 28.0953 40.98 9.0995 
43.4214 40.98 4.04725 36.2142 43.7856 4.04725 36.2142 40.98 7.83663 
[...]
POINT_DATA 576
SCALARS ImageScalars float
LOOKUP_TABLE default
0 0 0 0 0 0 0 0 0 
0 0 0 0 0 0 0 0 0 
0 0 0 0 0 0 0 0 0 
0 0 0 0 0 0 0 0 0 
0 0 0 0 0 0 0 0 0 
0 0 0 0 0 0 0 0 0 
0 0 0 0 0 0 0 0 0 
0 0 0 0 0 0 0 0 0 
0 0 0 0 0 0 0 0 0 
0 0 0 0 0 0 0 0 0 
0 0 0 0 0 0 0 0 0 
0 0 0 0 0 0 0 0 0 
0 0 0 0 0 0 0 0 0 
0 0 0 0 0 0 0 0 0 
0 0 0 0 0 0 0 0 0 
0 0 0 0 0 0 0 0 0 
0 0 0 0 0 0 0 0 0 
0 0 0 0 0 0 0 0 0 
0 0 0 0 0 0 0 0 0 
0 0 0 0 0 0 0 0 0 
0 0 0 0 0 0 0 0 0 
0 0 0 0 0 0 0 0 0 
0 0 0 0 0 0 0 0 0 
0 0 0 0 0 0 0 0 0 
0 0 0 0 0 0 0 0 0 
0 0 0 0 0 0 0 0 0 
0 0 0 0 0 0 0 0 0 
0 0 0 0 0 0 0 0 0 
0 0 0 0 0 0 0 0 0 
0 0 0 0 0 0 0 0 0 
0 0 0 0 0 0 0 0 0 
0 0 0 0 0 0 0 0 0 
0 0 0 0 0 0 0 0 0 
0 0 0 0 0 0 0 0 0 
0 0 0 0 0 0 0 0 0 
0 0 0 0 0 0 0 0 0 
0 0 0 0 0 0 0 0 0 
0 0 0 0 0 0 0 0 0 
0 0 0 0 0 0 0 0 0 
0 0 0 0 0 0 0 0 0 
0 0 0 0 0 0 0 0 0 
0 0 0 0 0 0 0 0 0 
0 0 0 0 0 0 0 0 0 
0 0 0 0 0 0 0 0 0 
0 0 0 0 0 0 0 0 0 
0 0 0 0 0 0 0 0 0 
0 0 0 0 0 0 0 0 0 
0 0 0 0 0 0 0 0 0 
0 0 0 0 0 0 0 0 0 
0 0 0 0 0 0 0 0 0 
0 0 0 0 0 0 0 0 0 
0 0 0 0 0 0 0 0 0 
0 0 0 0 0 0 0 0 0 
0 0 0 0 0 0 0 0 0 
0 0 0 0 0 0 0 0 0 
0 0 0 0 0 0 0 0 0 
0 0 0 0 0 0 0 0 0 
0 0 0 0 0 0 0 0 0 
0 0 0 0 0 0 0 0 0 
0 0 0 0 0 0 0 0 0 
0 0 0 0 0 0 0 0 0 
0 0 0 0 0 0 0 0 0 
0 0 0 0 0 0 0 0 0 
0 0 0 0 0 0 0 0 0 

NORMALS Normals float
0.291597 0.602661 0.742812 0.119509 0.554759 0.823383 0.0311347 0.492789 0.869592 
-0.0894223 0.499979 0.861409 -0.207707 0.551002 0.808242 0.426322 0.380658 0.820578 
0.186126 0.286805 0.939734 0.0728292 0.260741 0.962658 0.0256676 0.226463 0.973682 
-0.0990827 0.223598 0.969632 -0.127338 0.21726 0.967772 -0.129548 0.286911 0.949157 
-0.119937 0.419315 0.899883 -0.00897336 0.454381 0.890762 0.0440495 0.435409 0.899154 
0.00897696 0.424537 0.905366 -0.152494 0.364467 0.918646 0.309138 0.275865 0.910128 
0.146509 0.0937206 0.98476 0.0590276 0.101514 0.993081 -0.0264932 0.0203357 0.999442 
-0.0875744 0.009877 0.996109 -0.127917 0.0168536 0.991642 -0.0582166 0.0501591 0.997043 
-0.0368692 0.132987 0.990432 0.0192087 0.110061 0.993739 0.0710864 0.123861 0.98975 
-0.0298366 0.148535 0.988457 -0.167946 0.121952 0.978224 -0.232146 0.227484 0.945706 
0.506749 0.0793446 0.858434 0.225736 0.0644263 0.972056 -0.000924618 0.0875826 0.996157 
-0.00193122 -0.0266528 0.999643 -0.0695998 -0.0725916 0.99493 -0.10946 -0.12803 0.985711 
-0.0775262 0.0156763 0.996867 -0.0139509 0.156904 0.987515 -0.048677 0.103016 0.993488 
-0.00533529 -0.0954465 0.99542 0.0878007 -0.0589994 0.994389 0.0102711 -0.0300977 0.999494 
-0.0976284 0.0231606 0.994953 -0.244671 0.052639 0.968176 0.546104 -0.0846386 0.833431 
0.235368 -0.0474198 0.970749 0.0459901 0.0224315 0.99869 -0.099351 -0.0246884 0.994746 
-0.135422 -0.0830136 0.987304 -0.00560655 -0.10601 0.994349 0.187596 0.171039 0.96724 
0.0236151 0.0480466 0.998566 -0.315234 0.0277825 0.948607 -0.119397 -0.0636901 0.990802 
0.13684 -0.0745341 0.987785 0.0502855 -0.0492434 0.99752 -0.0779886 -0.00981173 0.996906 
-0.202762 -0.0220478 0.97898 0.541154 0.0636757 0.838509 0.231823 0.0426117 0.971824 
0.042692 -0.0291177 0.998664 -0.104117 -0.0104293 0.99451 -0.144273 0.011013 0.989477 
0.0697001 0.0251816 0.99725 0.130228 0.00400326 0.991476 -0.161425 -0.0766295 0.983905 
-0.0885678 0.050562 0.994786 -0.063526 0.0571071 0.996345 0.0834858 0.0187186 0.996333 
0.0739889 0.0305677 0.99679 -0.0634179 0.02502 0.997673 -0.203134 0.0273398 0.978769 
0.561381 -0.106917 0.820622 0.240433 -0.0577184 0.968948 -0.0322596 -0.0813529 0.996163 
-0.0599531 -0.000606674 0.998201 -0.105429 0.0798578 0.991215 0.00601979 0.113065 0.993569 
0.0991703 -0.15614 0.982744 0.0656956 0.00496363 0.997827 -0.192128 0.00246802 0.981367 
-0.146958 0.0934971 0.984714 0.11216 0.101017 0.988542 0.054108 0.0730854 0.995857 
-0.0783274 0.0583699 0.995217 -0.20685 0.064866 0.97622 -0.332598 -0.0129833 0.942979 
0.334035 -0.295413 0.895071 0.120653 -0.104223 0.987208 0.0528224 -0.0102549 0.998551 
-0.0328682 0.0557418 0.997904 -0.0904723 0.121525 0.988457 -0.0598199 0.0239588 0.997922 
0.0170554 -0.0133092 0.999766 -0.0402168 -0.0461315 0.998125 -0.0279841 0.128199 0.991354 
0.0747817 0.101969 0.991973 0.0336323 0.0190676 0.999252 -0.0860417 -0.00430196 0.996282 
-0.244163 0.0203864 0.96952 0.485166 -0.287258 0.825891 0.244443 -0.146111 0.958592 
0.105172 -0.0871749 0.990626 0.033745 -0.00601266 0.999412 -0.0231105 0.0194329 0.999544 
-0.0494902 0.0861862 0.995049 -0.0104348 0.107802 0.994118 -0.0373379 0.0404171 0.998485 
-0.0233149 0.0582036 0.998032 -0.00369734 0.0441606 0.999018 -0.052274 -0.0633109 0.996624 
-0.0752703 -0.0564036 0.995567 -0.287686 -0.236247 0.928129 0.399408 -0.382931 0.832969 
0.186484 -0.227924 0.955654 0.0751583 -0.17632 0.981459 0.00260969 -0.130257 0.991477 
0.0279569 -0.0469094 0.998508 -0.028555 -0.0375409 0.998887 -0.0861102 -0.0908915 0.992131 
-0.0269678 -0.115159 0.992981 -0.047437 -0.158077 0.986287 -0.0674914 -0.191584 0.979153 
-0.239538 -0.305959 0.921418 0.304611 -0.598494 0.740957 0.145232 -0.404279 0.903032 
0.0872182 -0.348193 0.933356 0.0438658 -0.317315 0.947305 -0.0504192 -0.31565 0.947535 
-0.10731 -0.353992 0.929072 -0.076477 -0.370374 0.925729 -0.087305 -0.405971 0.909706 
-0.247726 -0.495928 0.832278 0.292513 0.60438 0.741054 0.130023 0.606979 0.784009 
0.0574868 0.62334 0.779835 -0.103891 0.616205 0.780703 -0.212524 0.567785 0.79527 
0.293949 0.604414 0.740458 0.487502 0.512377 0.706974 -0.216638 0.567186 0.794587 
-0.212185 0.521433 0.82649 -0.279775 0.73259 0.620514 -0.140048 0.503092 0.85281 
-0.212405 0.881001 0.422754 -0.00900781 0.504182 0.863551 0.0555048 0.510711 0.857959 
0.133475 0.913641 0.383984 0.0173769 0.532334 0.846356 0.0725797 0.835796 0.544221 
-0.139636 0.456589 0.878651 -0.0795905 0.78823 0.610212 -0.270036 0.789564 0.551062 
0.521939 0.453765 0.722272 -0.210794 0.360927 0.908459 -0.244748 0.294288 0.923847 
-0.271418 0.371004 0.888081 -0.500614 0.472375 0.725429 0.556429 0.391282 0.732997 
0.563061 0.384709 0.731411 0.570588 0.398688 0.717968 -0.344541 0.187075 0.919943 
-0.422453 0.162083 0.891775 -0.616557 0.326866 0.716252 0.680906 0.10877 0.724249 
-0.392108 0.0418842 0.918965 -0.427453 0.0489551 0.902711 -0.569061 0.116569 0.813991 
0.604693 -0.0799876 0.792432 -0.315304 0.0344617 0.948365 -0.319963 0.0370866 0.946704 
-0.543003 0.0227555 0.839422 0.612718 0.051555 0.788618 0.992616 -0.109445 0.0523026 
-0.318677 0.0145125 0.947752 -0.325153 0.00654461 0.945639 -0.322759 0.0141451 0.946376 
-0.580502 0.0624572 0.81186 0.687134 -0.128614 0.715056 0.600801 -0.290297 0.744825 
-0.337506 -0.0180185 0.941151 -0.39193 -0.0277671 0.919576 -0.543232 -0.0768925 0.836054 
0.553632 -0.339449 0.760438 0.661185 -0.369007 0.653198 -0.472781 -0.0489016 0.879822 
-0.491865 -0.0591333 0.868661 -0.703793 -0.298743 0.644536 0.520498 -0.301377 0.798908 
0.511059 -0.30986 0.801751 -0.486896 -0.223099 0.844487 -0.36766 -0.376317 0.850419 
-0.569028 -0.235061 0.788006 0.479765 -0.422457 0.768997 0.70063 -0.587528 0.404881 
0.439726 -0.476299 0.761433 -0.369093 -0.392565 0.842415 -0.276141 -0.499398 0.821187 
-0.425876 -0.438268 0.79155 -0.68882 -0.600314 0.406388 0.336363 -0.605266 0.721466 
0.566148 -0.770596 0.292675 0.313555 -0.622581 0.716992 0.208374 -0.663423 0.718645 
0.0684163 -0.673436 0.736073 0.0299738 -0.711342 0.702207 -0.0560979 -0.702514 0.709455 
-0.101419 -0.632335 0.768028 -0.0611246 -0.568956 0.820093 -0.111319 -0.578224 0.808248 
-0.257581 -0.515279 0.817398 -0.255823 -0.523066 0.812992 -0.321522 -0.681845 0.657047 
-0.561141 -0.772237 0.297944 0.256646 -0.96392 0.0706426 0.107116 -0.915355 0.388138 
0.0389094 -0.860733 0.507568 -0.04567 -0.854274 0.517813 -0.097347 -0.875317 0.473649 
-0.0982028 -0.926495 0.363268 -0.138249 -0.960318 0.242232 0.41802 0.897279 0.141951 
0.196068 0.967244 0.161236 0.0708402 0.982388 0.172906 -0.101015 0.973769 0.203888 
-0.257228 0.926296 0.275335 -0.300489 0.894163 0.331931 -0.218376 0.907472 0.358895 
0.136939 0.929682 0.341964 0.0904075 0.913282 0.397169 -0.0681659 0.87328 0.482426 
-0.248604 0.844989 0.473487 0.574687 0.809169 0.122392 0.596629 0.793488 0.12004 
-0.0455299 0.931683 0.360409 0.0176771 0.934222 0.356254 -0.015343 0.932187 0.361652 
-0.0155342 0.947212 0.320232 -0.325469 0.799846 0.504298 -0.512779 0.636644 0.57597 
-0.491458 0.868632 0.0628264 0.773142 0.624994 0.107859 0.792085 0.601337 0.104859 
-0.649759 0.486614 0.58397 -0.675284 0.407504 0.614761 -0.794568 0.569073 0.211701 
0.901052 0.425901 0.0819361 -0.695188 0.348717 0.628578 0.970423 0.234701 0.0565213 
-0.744872 0.143411 0.651613 0.997837 0.047867 0.045047 0.998967 -0.00700449 0.0449053 
-0.7851 0.0335958 0.618458 -0.982283 0.0615153 0.177018 0.993043 -0.109038 0.0444545 
0.99244 -0.114195 0.0449686 0.99338 -0.108992 0.0363001 -0.799592 0.0207217 0.600186 
-0.993268 -0.0886594 0.0745533 0.961863 -0.267817 0.0556209 -0.880377 -0.118913 0.459125 
0.91622 -0.392395 0.0810369 0.870207 -0.483889 0.0926901 -0.818007 -0.32044 0.477685 
-0.778209 -0.42383 0.463422 0.866652 -0.489362 0.0971533 -0.77211 -0.468688 0.42916 
-0.805104 -0.583938 -0.104037 0.764995 -0.635857 0.102316 0.72484 -0.681838 0.098508 
0.643034 -0.633047 -0.430998 -0.731394 -0.600174 0.323812 -0.702183 -0.643192 0.305358 
0.596108 -0.799685 0.0718357 0.561935 -0.824637 0.0648285 0.573713 -0.778274 -0.25523 
0.393785 -0.917569 0.0547838 -0.24517 -0.956931 0.155482 -0.39464 -0.897077 0.198778 
-0.577984 -0.782074 0.233014 -0.561367 -0.795785 0.227142 -0.522787 -0.831878 -0.186204 
0.268559 -0.962916 -0.0258805 0.253731 -0.966755 -0.0317009 0.254492 -0.962342 -0.0955591 
0.13974 -0.990087 0.0141358 0.150196 -0.908 -0.391123 0.0568393 -0.998219 0.01814 
-0.0046489 -0.998274 0.0585474 -0.0760291 -0.991713 0.103559 -0.115112 -0.985003 0.128522 
-0.0759827 -0.891611 -0.446382 -0.195771 -0.972159 0.128767 -0.139687 -0.984413 0.106854 
-0.135086 -0.97538 -0.174313 0.41638 0.801073 -0.430012 0.255277 0.891359 -0.374584 
0.118956 0.953058 -0.278441 -0.050598 0.966122 -0.253077 -0.196355 0.962334 -0.188037 
-0.278568 0.949924 -0.141579 -0.199542 0.972498 -0.120131 -0.0121532 0.995935 -0.0892492 
0.142779 0.989096 -0.0361056 0.191167 0.977931 -0.084293 -0.0233575 0.998694 -0.0454434 
-0.253137 0.967357 0.0118915 -0.483132 0.875383 0.0169925 0.513005 0.739388 -0.43604 
0.591188 0.66154 -0.46137 0.43749 0.649412 -0.621986 -0.17741 0.879802 -0.440992 
0.0237464 0.947248 -0.31962 0.129069 0.821072 -0.556041 -0.49411 0.869228 0.0172564 
-0.498752 0.865702 -0.042511 -0.78353 0.61968 0.0455732 0.687972 0.526236 -0.499769 
0.722558 0.450813 -0.524096 0.54422 0.502181 -0.67204 0.351781 0.345555 -0.869966 
-0.814912 0.577205 0.0524688 -0.758511 0.61055 -0.227795 0.762788 0.387261 -0.517865 
0.685004 0.376649 -0.623622 -0.919874 0.387867 0.0582311 0.853802 0.138148 -0.501934 
0.572477 0.121999 -0.810793 0.403334 -0.0228982 -0.914766 -0.982392 0.179917 0.0503483 
-0.987765 0.146629 0.0531051 0.829347 0.0409466 -0.557231 0.613404 0.0490097 -0.788247 
-0.997823 0.0496419 0.0434265 -0.963888 0.0464944 -0.26222 0.868869 -0.0402324 -0.493405 
0.546766 -0.0293544 -0.836771 -0.995616 -0.0921992 0.015745 -0.986808 -0.161316 -0.013674 
-0.992534 -0.105058 -0.0619537 0.832869 -0.225044 -0.505653 0.612999 -0.215505 -0.760125 
0.397886 -0.0149 -0.917314 -0.969512 -0.239901 -0.0499366 0.769055 -0.350775 -0.534332 
0.766002 -0.372751 -0.523734 0.733883 -0.338592 -0.588873 -0.91006 -0.400861 -0.105363 
-0.540711 -0.406643 -0.736392 0.766181 -0.411291 -0.493768 0.625818 -0.614728 -0.480064 
0.531801 -0.362315 -0.765451 -0.437335 -0.42818 -0.790822 -0.784875 -0.584599 -0.205463 
-0.781098 -0.588632 -0.208325 -0.777157 -0.588177 -0.223776 0.619057 -0.620945 -0.480829 
0.527145 -0.676114 -0.51477 0.404082 -0.48536 -0.775335 0.161468 -0.389491 -0.906766 
-0.4663 -0.791699 -0.394685 -0.336966 -0.536355 -0.773807 -0.658366 -0.683493 -0.315264 
-0.621221 -0.710712 -0.33011 -0.598222 -0.681442 -0.421624 0.475973 -0.71174 -0.516601 
0.29057 -0.799627 -0.525515 0.265696 -0.677911 -0.68545 0.193507 -0.789035 -0.583077 
0.107548 -0.579753 -0.807663 0.141213 -0.795205 -0.589667 0.0845662 -0.52162 -0.848977 
0.0885726 -0.477303 -0.874263 0.0507488 -0.460151 -0.886389 0.00143683 -0.437719 -0.899111 
-0.0753945 -0.888428 -0.452781 -0.0403137 -0.470291 -0.88159 -0.122392 -0.876552 -0.465485 
-0.107161 -0.516071 -0.849816 -0.220908 -0.850007 -0.478214 -0.123283 -0.611753 -0.781383 
-0.446959 -0.803129 -0.393969 -0.320741 -0.854491 -0.40862 -0.252172 -0.731576 -0.633408 
0.0888522 -0.831787 -0.547937 0.0880111 -0.832142 -0.547535 0.0880582 -0.831513 -0.548482 
0.0303055 -0.857784 -0.513116 0.0334034 -0.831531 -0.554473 -0.074118 -0.888273 -0.453297 
-0.0385878 -0.876062 -0.480653 -0.0361695 -0.854785 -0.51772 0.226561 0.577714 -0.784166 
0.0786753 0.525476 -0.847163 0.0554883 0.605205 -0.794133 -0.0732807 0.64536 -0.760355 
-0.186384 0.670649 -0.717977 0.0644081 0.774923 -0.628766 0.0726445 0.742871 -0.665481 
-0.172962 0.834735 -0.522783 0.231544 0.572563 -0.786485 0.226209 0.571332 -0.788929 
0.0762926 0.514785 -0.853918 0.0655475 0.519087 -0.852205 -0.0446723 0.538605 -0.841373 
-0.175188 0.674471 -0.717215 -0.179409 0.644314 -0.743419 -0.109167 0.621392 -0.775857 
0.080065 0.655145 -0.751249 0.0667273 0.774297 -0.629294 0.123815 0.743248 -0.657459 
0.0645618 0.774347 -0.629458 0.0787674 0.707053 -0.70276 -0.316795 0.743269 -0.589231 
-0.197177 0.736991 -0.646502 -0.485377 0.549933 -0.679693 0.456162 0.222118 -0.861731 
0.3345 0.323652 -0.885076 0.327811 0.325169 -0.88702 0.212565 0.213866 -0.953456 
0.125799 0.221583 -0.966993 0.0261872 0.208837 -0.9776 -0.0193892 0.177252 -0.983974 
-0.0652968 0.232141 -0.970488 -0.0496721 0.318198 -0.946722 0.0631167 0.311914 -0.948011 
0.144682 0.290679 -0.945819 0.0979223 0.300603 -0.948709 -0.0656486 0.273005 -0.95977 
-0.131154 0.236176 -0.962819 -0.532224 0.527363 -0.662288 -0.414289 0.493404 -0.764799 
-0.611977 0.448316 -0.651534 0.460342 0.184 -0.868464 0.418 0.0357102 -0.907745 
0.438826 0.163609 -0.883552 0.216911 0.20559 -0.954297 0.12866 0.112851 -0.985247 
0.0846772 0.0610908 -0.994534 0.0090278 0.00266979 -0.999956 -0.0224768 -0.0254473 -0.999423 
-0.0241996 0.00191503 -0.999705 -0.0357894 0.0677803 -0.997058 0.0505945 0.0270797 -0.998352 
0.125973 0.0412451 -0.991176 0.0920561 -0.0111555 -0.995691 0.00737257 0.0578393 -0.998299 
0.0130257 0.176313 -0.984248 -0.313973 0.133219 -0.940039 -0.753616 0.251457 -0.607315 
-0.542556 0.211815 -0.812876 0.390431 -0.0240981 -0.920317 0.345233 0.018516 -0.938334 
0.242781 0.0199358 -0.969876 0.104149 0.0259588 -0.994223 0.00771069 -0.0107778 -0.999912 
-0.0593965 -0.0948767 -0.993715 -0.0141016 -0.116208 -0.993125 0.0297401 0.0406114 -0.998732 
-0.0334284 0.143962 -0.989018 0.0316322 -0.0799028 -0.996301 0.122973 -0.120306 -0.985091 
0.111606 -0.0933612 -0.989357 0.113588 -0.0382088 -0.992793 -0.0724689 0.0645211 -0.995282 
-0.222092 -0.0644606 -0.972893 -0.708481 0.0687583 -0.702372 -0.579087 0.0490536 -0.813789 
0.331599 0.0324438 -0.942862 0.328068 0.032044 -0.944111 0.223027 -0.0192032 -0.974623 
0.0962327 -0.0066329 -0.995337 -0.0367237 -0.0223528 -0.999075 -0.0935001 -0.0268984 -0.995256 
0.0975268 0.0284582 -0.994826 0.300992 0.00149333 -0.953626 -0.157227 -0.051002 -0.986245 
-0.244935 0.0370623 -0.968831 0.128497 -0.152972 -0.979841 0.174083 -0.0790998 -0.981549 
0.159331 -0.0528031 -0.985812 -0.0335258 -0.0549395 -0.997927 -0.189843 -0.050137 -0.980534 
-0.659263 0.0328595 -0.751194 -0.476404 0.0149868 -0.879099 0.337171 -0.0341598 -0.940823 
0.353915 -0.0210693 -0.93504 0.327543 -0.0307597 -0.944335 0.213801 -0.0123933 -0.976799 
0.091896 0.0176332 -0.995612 -0.0120191 0.00418344 -0.999919 -0.00517017 0.0160022 -0.999859 
-0.00424119 -0.0133555 -0.999902 -0.132189 -0.00318561 -0.991219 0.0532577 -0.142792 -0.988319 
-0.0581799 0.110224 -0.992202 0.0137725 0.0183058 -0.999738 0.200012 -0.027134 -0.979418 
0.138105 -0.0468653 -0.989308 -0.0375346 -0.109337 -0.993296 -0.214916 0.0390777 -0.97585 
-0.663832 -0.0696377 -0.744632 -0.420764 -0.0507171 -0.905751 0.377937 -0.00909673 -0.925787 
0.447605 -0.0843512 -0.890244 0.277916 -0.036157 -0.959925 0.109942 -0.00756038 -0.993909 
-0.0366021 -0.0104101 -0.999276 -0.114693 -0.0431548 -0.992463 0.0740601 -0.129048 -0.988869 
0.166451 -0.0248956 -0.985735 -0.075747 -0.0156246 -0.997005 -0.110665 -0.193327 -0.974873 
0.0113519 0.0551705 -0.998412 0.125739 -0.00510561 -0.99205 0.0811794 -0.0257721 -0.996366 
0.0582226 -0.151991 -0.986666 -0.225879 -0.113228 -0.967553 -0.689416 -0.191297 -0.698649 
-0.522751 -0.380036 -0.763088 -0.491045 -0.161637 -0.856007 0.473538 -0.120604 -0.872477 
0.469195 -0.134117 -0.872851 0.465005 -0.116952 -0.877549 0.238774 -0.119249 -0.963725 
0.123832 -0.119209 -0.985117 -0.0468299 -0.0710683 -0.996372 -0.121848 -0.0798104 -0.989335 
0.0264502 -0.00500698 -0.999638 0.0299222 -0.163104 -0.986155 -0.111066 -0.140545 -0.983825 
0.0444724 -0.0874433 -0.995176 0.139448 -0.0272819 -0.989854 0.118361 -0.0420875 -0.992078 
-0.00646524 -0.135694 -0.99073 -0.1275 -0.152211 -0.98009 -0.497545 -0.398059 -0.770712 
-0.366321 -0.386263 -0.846528 -0.266725 -0.37722 -0.886884 0.311847 -0.253352 -0.915732 
0.301469 -0.268746 -0.914818 0.291662 -0.23971 -0.925998 0.158063 -0.369079 -0.915859 
0.157073 -0.236452 -0.958863 0.000458426 -0.193176 -0.981164 -0.0495914 -0.132332 -0.989964 
0.0160137 -0.05658 -0.99827 0.0059458 -0.11238 -0.993648 -0.0224274 -0.04944 -0.998525 
0.0161991 -0.0193196 -0.999682 0.0682135 -0.116109 -0.990891 0.0175668 -0.182635 -0.983024 
-0.041352 -0.252772 -0.966642 -0.364775 -0.391013 -0.845014 -0.263426 -0.440859 -0.85805 
-0.226297 -0.361682 -0.90442 0.136312 -0.380969 -0.914484 0.0800358 -0.404705 -0.910938 
0.0710516 -0.36547 -0.928107 0.0278645 -0.348539 -0.93688 0.0108251 -0.290847 -0.956708 
0.0676808 -0.328562 -0.942054 0.0527437 -0.243588 -0.968444 0.0470218 -0.36365 -0.930348 
0.0366896 -0.222743 -0.974187 -0.00750634 -0.344685 -0.938689 -0.0170604 -0.200407 -0.979564 
-0.035552 -0.34666 -0.937317 -0.030113 -0.199059 -0.979525 -0.0529064 -0.354424 -0.933587 
-0.0201339 -0.247232 -0.968747 -0.0487438 -0.401968 -0.914355 -0.0343787 -0.341971 -0.939081 
-0.205037 -0.371462 -0.905525 -0.185912 -0.380406 -0.90594 -0.180572 -0.34216 -0.922128 

