# vtk DataFile Version 4.2
vtk output
ASCII
DATASET POLYDATA
POINTS 538 float
-4.99019 -36.7723 -11.9032 2.68659 -36.7723 -11.8598 10.3634 -36.7723 -12.3205 
18.0401 -36.7723 -12.3211 25.7169 -36.7723 -11.362 33.3937 -36.7723 -11.1367 
-20.3437 -29.0955 -12.1849 -12.667 -29.0955 -13.7403 -4.99019 -29.0955 -14.3788 
2.68659 -29.0955 -14.4348 10.3634 -29.0955 -14.7386 18.0401 -29.0955 -14.8527 
25.7169 -29.0955 -14.1757 33.3937 -29.0955 -13.4977 -28.0205 -21.4187 -12.6856 
-20.3437 -21.4187 -14.0556 -12.667 -21.4187 -15.3768 -4.99019 -21.4187 -15.7687 
2.68659 -21.4187 -15.746 10.3634 -21.4187 -15.6241 18.0401 -21.4187 -15.4298 
25.7169 -21.4187 -15.1548 33.3937 -21.4187 -15.0828 41.0705 -21.4187 -14.2378 
48.7473 -21.4187 -11.8806 -35.6973 -13.7419 -12.5121 -28.0205 -13.7419 -13.9189 
-20.3437 -13.7419 -14.6091 -12.667 -13.7419 -14.9725 -4.99019 -13.7419 -15.2256 
2.68659 -13.7419 -16.0085 10.3634 -13.7419 -14.5277 18.0401 -13.7419 -14.7211 
25.7169 -13.7419 -15.7987 33.3937 -13.7419 -15.9249 41.0705 -13.7419 -15.2711 
48.7473 -13.7419 -13.2219 -35.6973 -6.06515 -13.12 -28.0205 -6.06515 -14.6432 
-20.3437 -6.06515 -15.0364 -12.667 -6.06515 -14.6691 -4.99019 -6.06515 -15.7155 
2.68659 -6.06515 -18.5474 10.3634 -6.06515 -14.5511 18.0401 -6.06515 -14.5761 
25.7169 -6.06515 -15.7272 33.3937 -6.06515 -16.3253 41.0705 -6.06515 -16.2426 
48.7473 -6.06515 -16.0954 56.424 -6.06515 -11.4604 -35.6973 1.61162 -12.8538 
-28.0205 1.61162 -14.1399 -20.3437 1.61162 -15.1723 -12.667 1.61162 -16.7511 
-4.99019 1.61162 -15.954 2.68659 1.61162 -12.8147 10.3634 1.61162 -16.8114 
18.0401 1.61162 -14.4127 25.7169 1.61162 -15.3117 33.3937 1.61162 -15.9459 
41.0705 1.61162 -15.937 48.7473 1.61162 -15.648 56.424 1.61162 -12.1806 
-35.6973 9.2884 -12.2759 -28.0205 9.2884 -13.1471 -20.3437 9.2884 -13.3156 
-12.667 9.2884 -13.9158 -4.99019 9.2884 -16.3067 2.68659 9.2884 -16.4826 
10.3634 9.2884 -14.4506 18.0401 9.2884 -13.4456 25.7169 9.2884 -14.6008 
33.3937 9.2884 -15.1729 41.0705 9.2884 -15.1306 48.7473 9.2884 -14.7599 
56.424 9.2884 -11.7134 -35.6973 16.9652 -12.7298 -28.0205 16.9652 -13.1741 
-20.3437 16.9652 -13.4381 -12.667 16.9652 -13.1632 -4.99019 16.9652 -12.966 
2.68659 16.9652 -13.2086 10.3634 16.9652 -13.3715 18.0401 16.9652 -13.5003 
25.7169 16.9652 -14.4599 33.3937 16.9652 -15.2321 41.0705 16.9652 -14.3307 
48.7473 16.9652 -13.3829 -35.6973 24.642 -11.6193 -28.0205 24.642 -13.0834 
-20.3437 24.642 -13.6091 -12.667 24.642 -13.6878 -4.99019 24.642 -13.2255 
2.68659 24.642 -13.0541 10.3634 24.642 -13.6259 18.0401 24.642 -14.126 
25.7169 24.642 -15.4109 33.3937 24.642 -14.2385 41.0705 24.642 -15.4886 
-28.0205 32.3187 -14.5668 -20.3437 32.3187 -13.4902 -12.667 32.3187 -13.9338 
-4.99019 32.3187 -13.5951 2.68659 32.3187 -13.7027 10.3634 32.3187 -14.0061 
18.0401 32.3187 -13.9167 25.7169 32.3187 -13.2772 33.3937 32.3187 -14.4794 
-20.3437 39.9955 -12.5351 -12.667 39.9955 -13.4206 -4.99019 39.9955 -12.6075 
2.68659 39.9955 -12.6648 10.3634 39.9955 -12.4428 18.0401 39.9955 -12.3379 
33.3937 39.9955 -11.4625 -20.3437 -44.449 -3.94366 -12.667 -44.449 -6.15142 
-4.99019 -38.9297 -11.0682 -4.99019 -44.449 -7.95931 2.68659 -38.3016 -11.0682 
2.68659 -44.449 -7.45653 10.3634 -39.441 -11.0682 10.3634 -44.449 -7.57968 
18.0401 -39.0855 -11.0682 18.0401 -44.449 -6.71954 25.7169 -37.2131 -11.0682 
25.7169 -44.449 -3.40117 33.3937 -36.8598 -11.0682 -28.0205 -36.7723 -6.17757 
-20.3437 -31.8727 -11.0682 -20.3437 -36.7723 -8.91593 -11.6428 -36.7723 -11.0682 
-12.667 -36.4053 -11.0682 -12.667 -36.7723 -10.9179 33.5366 -36.7723 -11.0682 
-43.3741 -29.0955 -4.16975 -35.6973 -29.0955 -8.18613 -25.6398 -29.0955 -11.0682 
-28.0205 -27.2904 -11.0682 -28.0205 -29.0955 -10.5488 39.7356 -29.0955 -11.0682 
41.0705 -28.0502 -11.0682 41.0705 -29.0955 -10.3419 48.7473 -22.8619 -11.0682 
-43.3741 -21.4187 -7.85398 -35.5299 -21.4187 -11.0682 -35.6973 -21.2339 -11.0682 
-35.6973 -21.4187 -11.0293 49.7941 -21.4187 -11.0682 -51.0508 -13.7419 -4.78844 
-39.5753 -13.7419 -11.0682 -43.3741 -13.7419 -9.57553 52.1436 -13.7419 -11.0682 
56.424 -7.18861 -11.0682 56.424 -13.7419 -5.16175 -51.0508 -6.06515 -6.57649 
-41.7868 -6.06515 -11.0682 -43.3741 -6.06515 -10.5383 56.8042 -6.06515 -11.0682 
-51.0508 1.61162 -6.62318 -41.9746 1.61162 -11.0682 -43.3741 1.61162 -10.6457 
57.7553 1.61162 -11.0682 -51.0508 9.2884 -7.57725 -40.5889 9.2884 -11.0682 
-43.3741 9.2884 -10.4282 57.2796 9.2884 -11.0682 56.424 13.661 -11.0682 
-51.0508 16.9652 -6.5859 -40.1371 16.9652 -11.0682 -43.3741 16.9652 -9.74155 
54.7414 16.9652 -11.0682 48.7473 22.9142 -11.0682 56.424 16.9652 -10.1285 
-51.0508 24.642 -4.51327 -39.1101 24.642 -11.0682 -43.3741 24.642 -10.145 
-35.6973 27.4281 -11.0682 47.7043 24.642 -11.0682 41.0705 31.6561 -11.0682 
48.7473 24.642 -10.4982 56.424 24.642 -4.67483 -43.3741 32.3187 -7.75127 
-33.8716 32.3187 -11.0682 -35.6973 32.3187 -10.1607 -28.0205 37.9838 -11.0682 
25.7169 39.576 -11.0682 40.2173 32.3187 -11.0682 41.0705 32.3187 -10.6472 
48.7473 32.3187 -7.11446 -35.6973 39.9955 -8.49204 -24.4546 39.9955 -11.0682 
-28.0205 39.9955 -9.97574 -20.3437 43.0577 -11.0682 -12.667 45.6353 -11.0682 
-4.99019 45.6661 -11.0682 2.68659 45.5278 -11.0682 10.3634 43.9791 -11.0682 
24.819 39.9955 -11.0682 18.0401 42.424 -11.0682 27.4567 39.9955 -11.0682 
25.7169 39.9955 -10.8622 34.3463 39.9955 -11.0682 33.3937 40.477 -11.0682 
-20.3437 47.6723 -6.86273 -12.667 47.6723 -9.00943 -4.99019 47.6723 -8.8577 
2.68659 47.6723 -7.86889 10.3634 47.6723 -4.90145 -20.3437 -44.9739 -3.39147 
-12.667 -47.1676 -3.39147 -4.99019 -48.9108 -3.39147 -4.99019 -52.1258 3.84638 
2.68659 -48.9866 -3.39147 10.3634 -47.6688 -3.39147 18.0401 -46.6543 -3.39147 
25.7169 -44.4542 -3.39147 -21.3732 -44.449 -3.39147 -28.0205 -39.9788 -3.39147 
-28.0205 -44.449 3.18701 25.7285 -44.449 -3.39147 25.7169 -44.449 -3.34562 
33.3937 -40.9798 -3.39147 -43.3741 -29.9696 -3.39147 -34.9935 -36.7723 -3.39147 
-35.6973 -36.3366 -3.39147 -35.6973 -36.7723 -2.92714 40.0595 -36.7723 -3.39147 
41.0705 -36.0086 -3.39147 -44.2001 -29.0955 -3.39147 48.0056 -29.0955 -3.39147 
48.7473 -28.1516 -3.39147 -48.6527 -21.4187 -3.39147 -51.0508 -17.0602 -3.39147 
-51.0508 -21.4187 0.920698 53.333 -21.4187 -3.39147 56.424 -15.1977 -3.39147 
-52.352 -13.7419 -3.39147 57.0786 -13.7419 -3.39147 56.424 -13.7419 -1.97667 
-54.1202 -6.06515 -3.39147 59.8094 -6.06515 -3.39147 56.424 -6.06515 4.03661 
-54.5089 1.61162 -3.39147 60.8954 1.61162 -3.39147 -55.5214 9.2884 -3.39147 
-58.7276 9.2884 4.24767 61.5767 9.2884 -3.39147 -54.4986 16.9652 -3.39147 
60.2088 16.9652 -3.39147 -52.1371 24.642 -3.39147 -51.0508 26.5919 -3.39147 
57.1231 24.642 -3.39147 56.424 25.7818 -3.39147 56.424 24.642 -2.02665 
-47.637 32.3187 -3.39147 -43.3741 37.2252 -3.39147 41.0705 39.043 -3.39147 
51.1541 32.3187 -3.39147 48.7473 34.4036 -3.39147 48.7473 32.3187 -0.462597 
-40.4587 39.9955 -3.39147 -35.6973 43.5863 -3.39147 -28.0205 47.4874 -3.39147 
2.68659 39.9955 4.13206 10.3634 39.9955 3.45991 18.0401 46.3634 -3.39147 
25.7169 44.6548 -3.39147 25.7169 39.9955 2.91443 39.1492 39.9955 -3.39147 
33.3937 42.4398 -3.39147 33.3937 39.9955 0.353197 -27.299 47.6723 -3.39147 
-20.3437 49.1705 -3.39147 -20.3437 47.6723 -0.437362 -12.667 49.501 -3.39147 
-12.667 47.6723 -0.221032 -4.99019 49.2122 -3.39147 -4.99019 47.6723 -0.92928 
2.68659 48.7061 -3.39147 2.68659 47.6723 -1.73103 12.2763 47.6723 -3.39147 
10.3634 48.0174 -3.39147 10.3634 47.6723 -2.85007 -4.99019 -52.2627 4.28531 
-28.0205 -44.9663 4.28531 -20.3437 -48.4931 4.28531 -5.85161 -52.1258 4.28531 
-12.667 -51.0315 4.28531 -3.71348 -52.1258 4.28531 -4.99019 -52.1258 4.66604 
2.68659 -51.3612 4.28531 10.3634 -49.6171 4.28531 18.0401 -46.1157 4.28531 
-28.88 -44.449 4.28531 -35.6973 -40.2975 4.28531 -28.0205 -44.449 5.65079 
-20.3437 -44.449 11.6737 10.3634 -44.449 10.0452 22.9398 -44.449 4.28531 
18.0401 -44.449 7.04903 25.7169 -43.2889 4.28531 33.3937 -38.2183 4.28531 
-40.4331 -36.7723 4.28531 -43.3741 -34.1362 4.28531 25.7169 -36.7723 9.31208 
35.576 -36.7723 4.28531 33.3937 -36.7723 5.7668 41.0705 -31.9506 4.28531 
-47.8235 -29.0955 4.28531 -51.0508 -23.6486 4.28531 33.3937 -29.0955 10.3935 
43.5023 -29.0955 4.28531 41.0705 -29.0955 6.1846 48.7473 -23.3619 4.28531 
-52.2433 -21.4187 4.28531 -51.0508 -21.4187 7.89117 41.0705 -21.4187 8.94135 
49.925 -21.4187 4.28531 48.7473 -21.4187 5.34315 -55.0705 -13.7419 4.28531 
-51.0508 -13.7419 11.4495 41.0705 -13.7419 10.4441 51.775 -13.7419 4.28531 
48.7473 -13.7419 6.54124 -56.9944 -6.06515 4.28531 41.0705 -6.06515 11.115 
56.2044 -6.06515 4.28531 48.7473 -6.06515 8.90875 56.424 -5.24235 4.28531 
-58.6787 1.61162 4.28531 -58.7276 7.52963 4.28531 41.0705 1.61162 11.4574 
48.7473 1.61162 9.90523 57.4153 1.61162 4.28531 56.424 1.61162 5.21938 
-58.7422 9.2884 4.28531 -58.7276 9.39842 4.28531 -58.7276 9.2884 4.34676 
25.7169 9.2884 11.7512 33.3937 9.2884 11.9177 41.0705 9.2884 11.0884 
48.7473 9.2884 9.78378 58.0786 9.2884 4.28531 56.424 9.2884 5.82542 
-57.6865 16.9652 4.28531 10.3634 16.9652 9.76149 18.0401 16.9652 9.89025 
25.7169 16.9652 10.2882 33.3937 16.9652 11.0506 41.0705 16.9652 9.88495 
48.7473 16.9652 8.17091 57.1087 16.9652 4.28531 56.424 18.3756 4.28531 
56.424 16.9652 4.89872 -54.8972 24.642 4.28531 -51.0508 29.6762 4.28531 
-51.0508 24.642 10.603 -12.667 24.642 11.7017 -4.99019 24.642 9.73283 
2.68659 24.642 8.28631 10.3634 24.642 8.25446 18.0401 24.642 8.42651 
25.7169 24.642 8.53371 33.3937 24.642 9.1417 41.0705 24.642 7.95904 
52.783 24.642 4.28531 48.7473 28.8408 4.28531 48.7473 24.642 6.97911 
-48.5832 32.3187 4.28531 -43.3741 36.8073 4.28531 -43.3741 32.3187 9.21171 
-35.6973 32.3187 10.2062 -28.0205 32.3187 10.6103 -20.3437 32.3187 10.5109 
-12.667 32.3187 9.20224 -4.99019 32.3187 7.72432 2.68659 39.5762 4.28531 
2.68659 32.3187 6.84854 10.3634 38.4974 4.28531 10.3634 32.3187 7.1374 
18.0401 32.3187 7.10675 25.7169 37.3996 4.28531 25.7169 32.3187 6.54444 
33.3937 33.8698 4.28531 33.3937 32.3187 5.03628 44.0454 32.3187 4.28531 
[...]
POINT_DATA 538
SCALARS ImageScalars float
LOOKUP_TABLE default
0 0 0 0 0 0 0 0 0 
0 0 0 0 0 0 0 0 0 
0 0 0 0 0 0 0 0 0 
0 0 0 0 0 0 0 0 0 
0 0 0 0 0 0 0 0 0 
0 0 0 0 0 0 0 0 0 
0 0 0 0 0 0 0 0 0 
0 0 0 0 0 0 0 0 0 
0 0 0 0 0 0 0 0 0 
0 0 0 0 0 0 0 0 0 
0 0 0 0 0 0 0 0 0 
0 0 0 0 0 0 0 0 0 
0 0 0 0 0 0 0 0 0 
0 0 0 0 0 0 0 0 0 
0 0 0 0 0 0 0 0 0 
0 0 0 0 0 0 0 0 0 
0 0 0 0 0 0 0 0 0 
0 0 0 0 0 0 0 0 0 
0 0 0 0 0 0 0 0 0 
0 0 0 0 0 0 0 0 0 
0 0 0 0 0 0 0 0 0 
0 0 0 0 0 0 0 0 0 
0 0 0 0 0 0 0 0 0 
0 0 0 0 0 0 0 0 0 
0 0 0 0 0 0 0 0 0 
0 0 0 0 0 0 0 0 0 
0 0 0 0 0 0 0 0 0 
0 0 0 0 0 0 0 0 0 
0 0 0 0 0 0 0 0 0 
0 0 0 0 0 0 0 0 0 
0 0 0 0 0 0 0 0 0 
0 0 0 0 0 0 0 0 0 
0 0 0 0 0 0 0 0 0 
0 0 0 0 0 0 0 0 0 
0 0 0 0 0 0 0 0 0 
0 0 0 0 0 0 0 0 0 
0 0 0 0 0 0 0 0 0 
0 0 0 0 0 0 0 0 0 
0 0 0 0 0 0 0 0 0 
0 0 0 0 0 0 0 0 0 
0 0 0 0 0 0 0 0 0 
0 0 0 0 0 0 0 0 0 
0 0 0 0 0 0 0 0 0 
0 0 0 0 0 0 0 0 0 
0 0 0 0 0 0 0 0 0 
0 0 0 0 0 0 0 0 0 
0 0 0 0 0 0 0 0 0 
0 0 0 0 0 0 0 0 0 
0 0 0 0 0 0 0 0 0 
0 0 0 0 0 0 0 0 0 
0 0 0 0 0 0 0 0 0 
0 0 0 0 0 0 0 0 0 
0 0 0 0 0 0 0 0 0 
0 0 0 0 0 0 0 0 0 
0 0 0 0 0 0 0 0 0 
0 0 0 0 0 0 0 0 0 
0 0 0 0 0 0 0 0 0 
0 0 0 0 0 0 0 0 0 
0 0 0 0 0 0 0 0 0 
0 0 0 0 0 0 0 
NORMALS Normals float
0.0576778 0.351515 0.934404 0.0248195 0.394818 0.918424 0.0290371 0.379805 0.924611 
-0.0476235 0.421694 0.905487 -0.083484 0.488767 0.868411 -0.262017 0.576549 0.773911 
0.196173 0.300343 0.93344 0.135434 0.279127 0.950655 0.0434832 0.252386 0.966649 
0.0227254 0.240371 0.970415 0.026797 0.201236 0.979176 -0.0336887 0.188137 0.981565 
-0.0951094 0.210082 0.973047 -0.19599 0.249032 0.948457 0.179122 0.208081 0.96157 
0.169831 0.150634 0.973893 0.108367 0.0772793 0.991103 0.0236868 0.0519105 0.998371 
-0.00911652 0.0991334 0.995032 -0.0208816 -0.0132809 0.999694 -0.0302647 -0.0071729 0.999516 
-0.0221772 0.100693 0.99467 -0.0659418 0.168813 0.98344 -0.195951 0.252611 0.947518 
-0.549965 0.351679 0.757536 0.258901 0.121808 0.958193 0.130988 0.121124 0.983957 
0.0667113 0.0619146 0.995849 0.0407214 -0.0459607 0.998113 0.0683476 -0.0105224 0.997606 
-0.0434274 0.148252 0.987996 -0.086838 -0.0704081 0.993731 0.0806929 -0.0546802 0.995238 
0.0788501 0.0374604 0.996182 -0.0325526 0.0778615 0.996433 -0.14457 0.134517 0.980308 
-0.441577 0.26093 0.858444 0.253164 0.0210812 0.967194 0.121323 0.0141205 0.992513 
0.00227672 0.0365627 0.999329 0.0307115 0.118331 0.992499 0.245981 0.0518877 0.967885 
-0.0762674 -0.10161 0.991897 -0.226077 0.149073 0.962635 0.0779482 -0.0199826 0.996757 
0.109711 -0.0313907 0.993468 0.0336289 0.00135495 0.999433 -0.0129858 0.0420541 0.999031 
-0.290381 0.122261 0.949068 -0.707063 0.214579 0.673808 0.214945 -0.053606 0.975154 
0.147353 -0.0961668 0.984398 0.170133 -0.107894 0.979497 0.0592678 -0.0186104 0.998069 
-0.217349 0.0333049 0.975526 0.0775727 -0.101096 0.991848 0.0316155 -0.0091614 0.999458 
-0.0860152 -0.075718 0.993412 0.0975481 -0.0736527 0.992502 0.0404966 -0.0747121 0.996383 
-0.0160384 -0.0724492 0.997243 -0.269698 -0.0723135 0.960226 -0.601099 0.00995501 0.799112 
0.17361 -0.00430046 0.984805 0.0663387 -0.0623959 0.995844 0.0433482 -0.113889 0.992547 
0.166249 -0.249966 0.953875 0.152504 -0.169603 0.973641 -0.121097 0.00788239 0.992609 
-0.201353 -0.229194 0.952327 0.0201955 -0.0562924 0.99821 0.11164 -0.0551305 0.992218 
0.0344084 -0.0465543 0.998323 -0.0228028 -0.103438 0.994374 -0.271497 -0.136632 0.952692 
-0.545957 -0.110539 0.830489 0.207428 -0.035947 0.97759 0.0493611 -0.00414172 0.998772 
-0.000898071 0.0187114 0.999825 -0.0279221 -0.00525097 0.999596 -0.00142419 -0.165934 0.986136 
0.0267861 -0.234573 0.971729 0.0163759 -0.0427689 0.998951 0.0716974 0.0447873 0.99642 
0.111384 0.0499496 0.992521 -0.0077447 -0.0603699 0.998146 -0.10366 0.00656971 0.994591 
-0.263973 -0.240288 0.93412 0.186932 -0.178901 0.965946 0.121652 0.0726082 0.989914 
0.0389731 0.00351821 0.999234 -0.0249245 0.0497291 0.998452 -0.0412336 0.0364037 0.998486 
0.0259988 0.0327275 0.999126 0.0696657 0.0399737 0.996769 0.112188 0.0276688 0.993302 
0.00899715 -0.0742633 0.997198 -0.0104305 -0.0528519 0.998548 -0.227966 -0.208297 0.951128 
0.196626 -0.161084 0.967156 -0.0291786 -0.0579344 0.997894 0.00737465 -0.0104147 0.999919 
-0.0154479 -0.051196 0.998569 0.0267914 -0.0397289 0.998851 0.0141266 -0.093087 0.995558 
-0.0496621 -0.0966651 0.994077 0.0200279 -0.253171 0.967214 -0.154771 -0.25341 0.954897 
0.211115 -0.30354 0.929136 -0.0162878 -0.267476 0.963427 -0.037569 -0.216244 0.975616 
-0.0118999 -0.227446 0.973718 -0.0238141 -0.301537 0.953157 -0.102506 -0.409581 0.906497 
-0.196547 -0.63077 0.750666 0.321002 0.701612 0.636159 0.201907 0.642402 0.739293 
0.0515102 0.411243 0.910069 0.0601802 0.61136 0.789061 0.0164531 0.43028 0.902545 
-0.01879 0.637301 0.770386 0.0252434 0.480061 0.876872 -0.0318333 0.742798 0.668759 
-0.0723205 0.503448 0.860994 -0.151815 0.836921 0.525848 -0.091214 0.507171 0.857005 
-0.362119 0.909458 0.204341 -0.26319 0.580769 0.770349 0.314909 0.580227 0.751112 
0.208141 0.355583 0.911174 0.245735 0.462865 0.851687 0.159572 0.39131 0.906319 
0.173354 0.391906 0.903525 0.175236 0.399966 0.899622 -0.267468 0.578684 0.770445 
0.561996 0.523072 0.640746 0.358472 0.433271 0.826907 0.200308 0.324066 0.924585 
0.198127 0.303888 0.931879 0.20875 0.340937 0.916616 -0.372505 0.43638 0.819031 
-0.374312 0.451662 0.809871 -0.436834 0.509115 0.741605 -0.578473 0.402728 0.709351 
0.506929 0.306035 0.805833 0.262827 0.237614 0.935127 0.264779 0.235416 0.935132 
0.265384 0.238904 0.934075 -0.617818 0.367656 0.695076 0.717143 0.275678 0.640084 
0.342824 0.123196 0.931287 0.440585 0.14411 0.886068 -0.571428 0.295945 0.765432 
-0.712825 0.24165 0.658397 -0.908327 0.40213 0.115034 0.653018 0.101044 0.750571 
0.353716 0.0543489 0.933773 0.381569 0.0629509 0.922194 -0.729233 0.218464 0.648454 
0.576363 0.0712477 0.814082 0.316875 -0.0182881 0.948291 0.344514 -0.00836387 0.938744 
-0.69434 0.0341273 0.718837 0.525617 -0.0165832 0.850559 0.251282 -0.036368 0.96723 
0.293129 -0.0563227 0.954412 -0.594854 -0.108464 0.796482 -0.55733 -0.185123 0.80939 
0.560303 -0.186775 0.806955 0.314033 -0.0164765 0.949269 0.390685 -0.0288302 0.920073 
-0.492336 -0.240901 0.836404 -0.382447 -0.232796 0.89417 -0.622906 -0.256226 0.739145 
0.690011 -0.356823 0.629732 0.279721 -0.141018 0.949668 0.413697 -0.101542 0.904734 
0.246859 -0.168177 0.954347 -0.404945 -0.236424 0.883246 -0.300932 -0.438382 0.846912 
-0.445632 -0.263109 0.855679 -0.858854 -0.500908 0.107056 0.522671 -0.486566 0.700049 
0.332489 -0.156332 0.93006 0.375822 -0.162928 0.912257 0.199911 -0.380896 0.902748 
-0.0399451 -0.487414 0.872257 -0.294863 -0.433376 0.851611 -0.316062 -0.477646 0.819731 
-0.640743 -0.719782 0.267139 0.473073 -0.55126 0.687251 0.194319 -0.371322 0.907943 
0.219582 -0.49084 0.843125 0.207332 -0.447207 0.870069 0.0720725 -0.583811 0.808684 
-0.00266775 -0.559094 0.8291 -0.0455093 -0.594399 0.802881 -0.0830962 -0.539426 0.837923 
-0.0538353 -0.494472 0.867525 -0.164604 -0.561224 0.811131 -0.0838903 -0.540706 0.837018 
-0.0477315 -0.522984 0.851005 -0.248723 -0.659354 0.709499 -0.21845 -0.670544 0.708978 
0.185332 -0.915621 0.356778 0.0653481 -0.823747 0.563179 -0.0218267 -0.843601 0.536527 
-0.0762336 -0.92805 0.364569 -0.146744 -0.988046 -0.047235 0.319235 0.722699 0.613021 
0.216176 0.728138 0.650448 0.0963297 0.772864 0.627218 0.0302267 0.999517 0.00718825 
-0.0723067 0.831274 0.55114 -0.139223 0.877706 0.458529 -0.197857 0.937998 0.284627 
-0.362208 0.909584 0.203624 0.341435 0.70713 0.619184 0.39339 0.638165 0.661808 
0.492396 0.86222 0.118842 -0.36238 0.909531 0.203553 -0.362621 0.91016 0.20029 
-0.457216 0.882828 0.107559 0.574777 0.551552 0.604502 0.438985 0.645696 0.624795 
0.44778 0.639168 0.625266 0.462021 0.664844 0.586957 -0.599074 0.79563 0.0899022 
-0.621282 0.777515 0.0973629 0.59388 0.531885 0.603659 -0.765722 0.641376 0.0480309 
-0.78277 0.621238 0.0365245 0.697434 0.398728 0.595484 0.747281 0.341798 0.569863 
0.866298 0.434772 0.24597 -0.863266 0.504722 -0.00523285 -0.912167 0.407928 -0.0393103 
0.776961 0.284343 0.561677 -0.922129 0.384374 -0.0439929 -0.907244 0.391171 -0.154576 
0.81392 0.124494 0.567482 -0.968075 0.249784 -0.0209294 -0.709493 0.242226 -0.661774 
0.745304 0.0970485 0.659624 -0.992858 0.117225 -0.0221437 0.807702 -0.0147666 0.589406 
0.9952 -0.0616236 0.0760242 -0.998708 -0.0475117 0.0180259 0.765885 -0.214562 0.606122 
-0.962739 -0.266097 0.0482362 0.722463 -0.39555 0.567086 0.740149 -0.439009 0.509363 
-0.874838 -0.484257 0.0123607 -0.855208 -0.518113 0.0133685 -0.867148 -0.492676 -0.0729717 
0.777372 -0.525978 0.345022 0.696654 -0.633428 0.336813 -0.446637 -0.887808 -0.110965 
-0.676218 -0.735606 -0.04017 -0.614048 -0.7864 -0.0672268 -0.59971 -0.758944 -0.253679 
0.652914 -0.717292 0.2433 0.532118 -0.834104 0.145332 0.350141 -0.936562 0.0159145 
-0.0774895 -0.416822 -0.905679 0.0163685 -0.533179 -0.845844 -0.216619 -0.950006 -0.224867 
-0.243588 -0.956559 -0.160188 -0.218963 -0.748381 -0.626083 -0.423595 -0.892137 -0.15703 
-0.358258 -0.928953 -0.0932629 -0.40481 -0.763498 -0.50319 0.329903 -0.943981 0.00795945 
0.135259 -0.989811 -0.0444823 0.11293 -0.935805 -0.33394 0.00220208 -0.996304 -0.0858745 
-0.0275252 -0.928365 -0.370648 -0.0561653 -0.989424 -0.13374 -0.0725973 -0.922526 -0.379046 
-0.0845981 -0.981488 -0.171827 -0.0933702 -0.936967 -0.336711 -0.166729 -0.958796 -0.230025 
-0.146717 -0.966624 -0.210029 -0.149927 -0.953485 -0.261513 0.0272891 0.999303 -0.0254847 
0.480153 0.876445 0.036012 0.391809 0.919942 0.0138324 0.0488678 0.998632 -0.0185855 
0.230402 0.972956 0.0164549 -0.00298264 0.999474 -0.0322889 0.0248899 0.99817 -0.0551076 
-0.172085 0.980705 -0.0927641 -0.318777 0.926706 -0.19899 -0.386175 0.866174 -0.317194 
0.486848 0.872131 0.0486423 0.54875 0.833596 0.0631709 0.468974 0.881784 -0.0502097 
0.288008 0.692575 -0.661356 -0.242629 0.607472 -0.756379 -0.371345 0.847722 -0.378775 
-0.358241 0.774687 -0.521079 -0.369859 0.822276 -0.432512 -0.481482 0.716201 -0.505204 
0.633768 0.770335 0.0701594 0.70235 0.709969 0.051464 -0.318467 0.502334 -0.80389 
-0.506718 0.687456 -0.520232 -0.453855 0.659895 -0.598794 -0.60592 0.537054 -0.586885 
0.812388 0.582916 0.0153372 0.889382 0.456633 0.022021 -0.331724 0.325943 -0.88528 
-0.635816 0.487973 -0.598014 -0.575556 0.422199 -0.700345 -0.667179 0.381107 -0.640023 
0.909415 0.415813 0.00799869 0.887291 0.3739 -0.270025 -0.431821 0.212806 -0.876495 
-0.682768 0.342533 -0.645367 -0.621814 0.315194 -0.716938 0.952494 0.301812 -0.0408043 
0.72479 0.220182 -0.652839 -0.356099 0.135768 -0.924533 -0.634783 0.251866 -0.730489 
-0.551982 0.204025 -0.808511 0.972597 0.232211 0.0115875 -0.227645 0.0624184 -0.971742 
-0.690681 0.23836 -0.682748 -0.422403 0.175022 -0.88935 -0.695503 0.225612 -0.682184 
0.99147 0.109252 0.071077 0.997016 -0.0224483 0.0738553 -0.161063 -0.00220727 -0.986942 
-0.396631 0.0456356 -0.916843 -0.720556 0.105857 -0.685269 -0.664485 0.102207 -0.740279 
0.995349 -0.0615645 0.0740918 0.995224 -0.0636961 0.0739665 0.995636 -0.0619054 0.0698385 
-0.0112538 -0.209445 -0.977756 -0.0419052 -0.0988145 -0.994223 -0.128091 -0.102801 -0.98642 
-0.351638 -0.0970858 -0.931088 -0.73606 -0.0196518 -0.676631 -0.625667 -0.024607 -0.779702 
0.97341 -0.228208 0.0198282 -0.139138 -0.436442 -0.888909 0.0344197 -0.235559 -0.97125 
0.0734479 -0.210674 -0.974793 -0.0265859 -0.208415 -0.977679 -0.164929 -0.17796 -0.970118 
-0.354895 -0.190675 -0.915256 -0.66349 -0.278484 -0.694426 -0.663521 -0.316903 -0.677726 
-0.617582 -0.263314 -0.741119 0.859642 -0.507756 -0.0565689 0.753602 -0.640601 -0.147358 
0.548841 -0.480675 -0.683904 -0.207049 -0.339868 -0.917399 -0.228153 -0.368404 -0.901235 
-0.0971124 -0.315932 -0.943799 0.00904403 -0.173556 -0.984782 0.0192675 -0.17299 -0.984735 
0.0525203 -0.221182 -0.973817 -0.0214432 -0.320706 -0.946936 -0.185831 -0.330153 -0.925454 
-0.612336 -0.438085 -0.658124 -0.463557 -0.571571 -0.677069 -0.31951 -0.32768 -0.889122 
0.673587 -0.701201 -0.233661 0.515671 -0.77027 -0.375189 0.342589 -0.657693 -0.670875 
0.0732932 -0.537937 -0.839793 0.0202817 -0.413556 -0.910253 -0.0826944 -0.361839 -0.928566 
-0.166611 -0.348718 -0.9223 -0.141438 -0.295868 -0.9447 -0.0727716 -0.400287 -0.913496 
-0.0332235 -0.24543 -0.968845 0.0256487 -0.455139 -0.890051 0.0158794 -0.277189 -0.960684 
-0.0346612 -0.273739 -0.961179 -0.181713 -0.561002 -0.807624 -0.121828 -0.287464 -0.950012 
-0.0721741 -0.509454 -0.857466 -0.0322336 -0.494621 -0.868511 -0.333274 -0.603119 -0.72469 
-0.249807 -0.559593 -0.790223 -0.17776 -0.495945 -0.849965 0.329998 -0.777796 -0.534915 
0.262549 -0.785118 -0.560943 0.251135 -0.721514 -0.645252 0.0863079 -0.690555 -0.718112 
0.0551893 -0.64851 -0.759203 0.0265924 -0.605713 -0.795239 -0.0254311 -0.532589 -0.845992 
-0.0764633 -0.522678 -0.849094 -0.0893184 -0.428851 -0.898949 -0.0784235 -0.413358 -0.907185 
-0.0857126 -0.445182 -0.891328 -0.0865924 -0.419215 -0.903748 0.00100517 -0.51326 -0.858232 
-0.0636702 -0.565259 -0.822453 -0.0242253 -0.53526 -0.84434 -0.00752512 -0.518841 -0.854838 
0.128885 0.594176 -0.793942 -0.0573249 0.553232 -0.831053 -0.199741 0.414375 -0.887917 
0.503071 0.651307 -0.568083 0.293369 0.715472 -0.634062 0.261504 0.658435 -0.705747 
0.270685 0.666179 -0.694935 0.0730215 0.480755 -0.873809 -0.0730861 0.412293 -0.908115 
-0.19811 0.410595 -0.890036 -0.196949 0.40471 -0.892984 -0.169951 0.36864 -0.913904 
-0.232595 0.326243 -0.916223 0.516997 0.640256 -0.568144 0.58792 0.50643 -0.630776 
0.497706 0.638009 -0.587566 0.156447 0.458869 -0.874622 0.0985121 0.330631 -0.938605 
0.0104838 0.299861 -0.953925 -0.119727 0.188583 -0.974732 -0.189904 0.236072 -0.952999 
-0.166443 0.257911 -0.951724 -0.230646 0.308778 -0.922745 -0.223391 0.295223 -0.928945 
-0.232078 0.306743 -0.923065 0.591122 0.500778 -0.632294 0.584824 0.497163 -0.640944 
0.308398 0.286995 -0.906931 0.100162 0.260116 -0.960368 -0.0160656 0.165458 -0.986086 
-0.126649 0.0522234 -0.990572 -0.109688 0.00162878 -0.993965 -0.0871483 0.0693094 -0.993781 
-0.119006 0.154633 -0.980778 -0.139474 0.192396 -0.971355 -0.242334 0.284749 -0.927466 
-0.218655 0.276712 -0.935746 -0.308229 0.186478 -0.932856 0.708334 0.273654 -0.650674 
0.432253 0.189259 -0.881668 0.241769 0.122115 -0.962619 0.0705506 0.108348 -0.991606 
-0.116454 0.0725327 -0.990544 -0.172241 0.0200085 -0.984852 -0.102888 0.0306283 -0.994221 
-0.0378577 0.0785989 -0.996187 -0.0524614 0.0858816 -0.994923 -0.0995816 0.0999841 -0.989993 
-0.168604 0.110072 -0.979519 -0.334329 0.146496 -0.931001 -0.305996 0.134054 -0.942548 
0.6802 0.202783 -0.70442 0.689111 0.216624 -0.69152 0.354815 0.147646 -0.923205 
0.181602 0.076394 -0.9804 0.0479479 -0.0213978 -0.998621 -0.0994379 -0.0119301 -0.994972 
-0.169472 0.000935939 -0.985535 -0.0535448 0.0554511 -0.997025 -0.029079 0.0281767 -0.99918 
-0.0996037 -0.0588217 -0.993287 -0.116962 -0.00909533 -0.993095 -0.177737 -0.005148 -0.984065 
-0.271358 0.0496478 -0.961197 -0.232641 0.0107564 -0.972503 0.711383 0.251858 -0.656127 
0.638657 0.207929 -0.740866 0.252802 0.16227 -0.953813 0.0807166 0.0581194 -0.995041 
-0.0228509 -0.0283354 -0.999337 -0.0974209 -0.0952112 -0.990679 -0.0997723 -0.0865932 -0.991235 
-0.0802133 0.0626256 -0.994808 -0.174018 -0.0457108 -0.983681 -0.0688171 -0.0291628 -0.997203 
-0.0463293 -0.0496219 -0.997693 -0.143941 -0.0521179 -0.988213 -0.19967 0.0276375 -0.979473 
-0.181924 -0.00358103 -0.983306 0.75106 0.113584 -0.65039 0.504375 0.0265098 -0.863078 
0.275022 0.029801 -0.960976 -0.00136672 -0.024593 -0.999697 -0.103072 -0.066579 -0.992443 
-0.156307 -0.0957417 -0.983057 -0.0139957 -0.0585328 -0.998187 0.0092717 -0.0405598 -0.999134 
-0.139464 -0.188978 -0.972027 -0.103239 0.0392491 -0.993882 -0.144947 -0.162407 -0.97602 
-0.0263055 -0.200398 -0.979361 -0.129176 -0.138461 -0.981907 -0.142374 -0.0253918 -0.989487 
-0.0472239 -0.0958539 -0.994275 -0.126579 -0.0557434 -0.990389 0.724045 -0.108801 -0.681118 
0.471383 -0.0821912 -0.878091 0.249857 -0.165442 -0.954044 -0.0126438 -0.118522 -0.992871 
-0.0936356 -0.141466 -0.985505 -0.0932943 -0.140983 -0.985606 -0.040602 -0.0825758 -0.995757 
-0.193598 -0.175819 -0.965198 -0.071169 -0.206583 -0.975837 -0.159143 -0.458042 -0.874569 
-0.0905113 -0.340091 -0.936027 -0.135759 -0.275295 -0.951726 -0.202322 -0.312546 -0.928106 
-0.219135 -0.31879 -0.922146 0.602579 -0.274568 -0.74934 0.491846 -0.380692 -0.783046 
0.513824 -0.267368 -0.815168 0.203918 -0.26357 -0.942841 0.0253132 -0.260114 -0.965246 
-0.118242 -0.254216 -0.959892 -0.103192 -0.24565 -0.96385 -0.199192 -0.33755 -0.91999 
-0.064967 -0.324875 -0.943523 -0.202829 -0.434715 -0.87743 -0.174849 -0.457922 -0.871628 
-0.252078 -0.417304 -0.873106 -0.252588 -0.398113 -0.881876 -0.268097 -0.394217 -0.879043 
0.385949 -0.432948 -0.814616 0.229291 -0.48133 -0.846019 0.227518 -0.413522 -0.881609 
0.0491292 -0.478727 -0.876588 0.0166515 -0.418405 -0.908108 -0.0180367 -0.37605 -0.926424 
-0.0869988 -0.368519 -0.92554 -0.19418 -0.331032 -0.923424 -0.112081 -0.315877 -0.942157 
-0.140808 -0.306138 -0.941516 
