# vtk DataFile Version 4.2
vtk output
ASCII
DATASET POLYDATA
POINTS 510 float
21.8987 -5.72978 -23.9091 -20.8301 -34.2157 -17.5291 -13.7087 -34.2157 -18.8204 
-6.58718 -34.2157 -18.7395 0.534294 -34.2157 -17.8396 -27.9516 -27.0942 -18.7997 
-20.8301 -27.0942 -21.7567 -13.7087 -27.0942 -22.287 -6.58718 -27.0942 -22.0248 
0.534294 -27.0942 -21.5166 7.65577 -27.0942 -21.3028 14.7772 -27.0942 -20.3745 
21.8987 -27.0942 -18.5962 -27.9516 -19.9727 -21.8197 -20.8301 -19.9727 -23.4995 
-13.7087 -19.9727 -23.6262 -6.58718 -19.9727 -22.8598 0.534294 -19.9727 -22.4852 
7.65577 -19.9727 -22.6966 14.7772 -19.9727 -22.9232 21.8987 -19.9727 -22.5287 
29.0202 -19.9727 -20.4724 -35.0731 -12.8512 -18.365 -27.9516 -12.8512 -22.3406 
-20.8301 -12.8512 -23.501 -13.7087 -12.8512 -23.4897 -6.58718 -12.8512 -22.9065 
0.534294 -12.8512 -22.4454 7.65577 -12.8512 -22.6704 14.7772 -12.8512 -23.3478 
21.8987 -7.89836 -23.8132 21.8987 -12.8512 -23.5911 29.0202 -12.8512 -22.6846 
36.1417 -12.8512 -19.5884 -35.0731 -5.72978 -19.05 -27.9516 -5.72978 -22.4478 
-20.8301 -5.72978 -23.105 -13.7087 -5.72978 -22.8776 -6.58718 -5.72978 -22.8035 
0.534294 -5.72978 -22.814 7.65577 -5.72978 -21.8361 21.33 -5.72978 -23.8132 
14.7772 -5.72978 -22.698 23.8941 -5.72978 -23.8132 21.8987 -4.62348 -23.8132 
29.0202 -5.72978 -23.5587 36.1417 -5.72978 -21.2023 -35.0731 1.3917 -19.0071 
-27.9516 1.3917 -22.4338 -20.8301 1.3917 -23.1301 -13.7087 1.3917 -22.954 
-6.58718 1.3917 -23.4276 0.534294 1.3917 -23.5661 7.65577 1.3917 -21.7333 
14.7772 1.3917 -22.314 21.8987 1.3917 -23.2886 29.0202 1.3917 -23.299 
36.1417 1.3917 -21.0908 -35.0731 8.51317 -18.0576 -27.9516 8.51317 -22.0269 
-20.8301 8.51317 -23.5103 -13.7087 8.51317 -23.2734 -6.58718 8.51317 -23.0646 
0.534294 8.51317 -22.8314 7.65577 8.51317 -21.5824 14.7772 8.51317 -21.5101 
21.8987 8.51317 -21.9096 29.0202 8.51317 -21.5232 36.1417 8.51317 -18.96 
-27.9516 15.6346 -21.0687 -20.8301 15.6346 -22.7638 -13.7087 15.6346 -23.0636 
-6.58718 15.6346 -22.6563 0.534294 15.6346 -22.3328 7.65577 15.6346 -21.5704 
14.7772 15.6346 -20.165 21.8987 15.6346 -19.332 29.0202 15.6346 -17.4125 
-27.9516 22.7561 -18.5283 -20.8301 22.7561 -21.5838 -13.7087 22.7561 -22.7496 
-6.58718 22.7561 -22.3439 0.534294 22.7561 -22.0332 7.65577 22.7561 -21.007 
14.7772 22.7561 -18.7584 -20.8301 29.8776 -18.652 -13.7087 29.8776 -20.5093 
-6.58718 29.8776 -20.6425 0.534294 29.8776 -20.2789 7.65577 29.8776 -18.9972 
-20.8301 -34.9668 -16.6917 -13.7087 -36.5284 -16.6917 -6.58718 -36.5527 -16.6917 
0.534294 -35.4596 -16.6917 -22.1979 -34.2157 -16.6917 -27.9516 -29.9657 -16.6917 
-27.9516 -34.2157 -10.8638 5.53328 -34.2157 -16.6917 7.65577 -33.6093 -16.6917 
7.65577 -34.2157 -15.9007 14.7772 -31.4419 -16.6917 14.7772 -34.2157 -11.0697 
21.8987 -28.8421 -16.6917 -30.6563 -27.0942 -16.6917 -35.0731 -27.0942 -9.81443 
25.3998 -27.0942 -16.6917 29.0202 -24.7832 -16.6917 29.0202 -27.0942 -12.1142 
-35.0157 -19.9727 -16.6917 -35.0731 -19.7889 -16.6917 -35.0731 -19.9727 -16.6111 
34.808 -19.9727 -16.6917 36.1417 -18.3092 -16.6917 36.1417 -19.9727 -14.8401 
-36.8079 -12.8512 -16.6917 39.3828 -12.8512 -16.6917 -37.6368 -5.72978 -16.6917 
41.4507 -5.72978 -16.6917 43.2631 -5.72978 -13.2788 -37.5585 1.3917 -16.6917 
41.5413 1.3917 -16.6917 43.2631 1.3917 -13.7802 -36.5772 8.51317 -16.6917 
-35.0731 13.5673 -16.6917 39.03 8.51317 -16.6917 36.1417 12.2636 -16.6917 
43.2631 8.51317 -10.4538 -34.3041 15.6346 -16.6917 -35.0731 15.6346 -15.7729 
21.8987 20.7139 -16.6917 30.7556 15.6346 -16.6917 29.0202 16.6327 -16.6917 
36.1417 15.6346 -13.5487 -30.2737 22.7561 -16.6917 -35.0731 22.7561 -9.58394 
-27.9516 26.2442 -16.6917 19.4601 22.7561 -16.6917 14.7772 28.352 -16.6917 
21.8987 22.7561 -15.2692 29.0202 22.7561 -10.8544 -24.5031 29.8776 -16.6917 
-27.9516 29.8776 -13.2536 -20.8301 32.5729 -16.6917 -13.7087 35.9282 -16.6917 
-6.58718 36.4782 -16.6917 0.534294 35.7038 -16.6917 13.2291 29.8776 -16.6917 
7.65577 33.2858 -16.6917 14.7772 29.8776 -15.8023 -20.8301 36.9991 -10.8095 
-13.7087 36.9991 -15.5142 -6.58718 36.9991 -16.1807 0.534294 36.9991 -15.3647 
7.65577 36.9991 -12.714 -27.9516 -34.8802 -9.57021 -20.8301 -38.6811 -9.57021 
-13.7087 -40.6103 -9.57021 -6.58718 -40.951 -9.57021 -6.58718 -41.3371 -6.01007 
0.534294 -39.8238 -9.57021 7.65577 -37.7156 -9.57021 14.7772 -34.8195 -9.57021 
-28.7694 -34.2157 -9.57021 -35.0731 -27.2536 -9.57021 16.1552 -34.2157 -9.57021 
21.8987 -31.6748 -9.57021 29.0202 -28.082 -9.57021 -35.186 -27.0942 -9.57021 
30.5347 -27.0942 -9.57021 36.1417 -22.8131 -9.57021 -38.6562 -19.9727 -9.57021 
38.721 -19.9727 -9.57021 -40.641 -12.8512 -9.57021 42.9475 -12.8512 -9.57021 
43.2631 -11.7359 -9.57021 -41.6375 -5.72978 -9.57021 44.7564 -5.72978 -9.57021 
-41.6648 1.3917 -9.57021 -42.1945 1.3917 -5.06586 45.0627 1.3917 -9.57021 
-40.9958 8.51317 -9.57021 43.6865 8.51317 -9.57021 43.2631 9.40223 -9.57021 
-38.5506 15.6346 -9.57021 39.2664 15.6346 -9.57021 36.1417 18.6218 -9.57021 
-35.08 22.7561 -9.57021 -35.0731 22.7668 -9.57021 21.8987 29.1626 -9.57021 
30.4364 22.7561 -9.57021 29.0202 23.7412 -9.57021 -30.0539 29.8776 -9.57021 
-27.9516 32.094 -9.57021 21.125 29.8776 -9.57021 14.7772 35.0489 -9.57021 
21.8987 29.8776 -7.97011 -21.7881 36.9991 -9.57021 -20.8301 37.6249 -9.57021 
-13.7087 40.0883 -9.57021 -6.58718 41.2346 -9.57021 0.534294 40.5999 -9.57021 
11.5001 36.9991 -9.57021 7.65577 38.801 -9.57021 -6.58718 -41.6993 -2.44873 
-27.9516 -35.2 -2.44873 -20.8301 -39.2245 -2.44873 -10.8802 -41.3371 -2.44873 
-13.7087 -41.0986 -2.44873 -4.16001 -41.3371 -2.44873 -6.58718 -41.3371 -0.529021 
0.534294 -40.6353 -2.44873 7.65577 -38.5753 -2.44873 14.7772 -35.5456 -2.44873 
-29.1284 -34.2157 -2.44873 -35.0731 -27.4937 -2.44873 -27.9516 -34.2157 1.60386 
17.4668 -34.2157 -2.44873 21.8987 -31.9387 -2.44873 29.0202 -27.9613 -2.44873 
-35.351 -27.0942 -2.44873 -35.0731 -27.0942 -1.29712 30.2979 -27.0942 -2.44873 
29.0202 -27.0942 1.08392 36.1417 -22.5104 -2.44873 -38.8296 -19.9727 -2.44873 
38.3955 -19.9727 -2.44873 -40.9028 -12.8512 -2.44873 42.7123 -12.8512 -2.44873 
43.2631 -11.0595 -2.44873 -42.0947 -5.72978 -2.44873 -42.1945 -3.89658 -2.44873 
44.7788 -5.72978 -2.44873 -42.4829 1.3917 -2.44873 -42.1945 4.42546 -2.44873 
-42.1945 1.3917 -0.967318 45.3352 1.3917 -2.44873 -41.7995 8.51317 -2.44873 
44.4446 8.51317 -2.44873 43.2631 11.4878 -2.44873 -39.6689 15.6346 -2.44873 
41.2521 15.6346 -2.44873 36.1417 21.0419 -2.44873 -36.1935 22.7561 -2.44873 
-35.0731 24.4281 -2.44873 34.135 22.7561 -2.44873 29.0202 26.5977 -2.44873 
-30.9855 29.8776 -2.44873 -27.9516 33.0428 -2.44873 14.7772 36.9279 -2.44873 
24.4486 29.8776 -2.44873 21.8987 31.8147 -2.44873 -22.8803 36.9991 -2.44873 
-20.8301 38.3456 -2.44873 -13.7087 41.2022 -2.44873 -6.58718 42.4687 -2.44873 
0.534294 41.9153 -2.44873 14.6455 36.9991 -2.44873 7.65577 40.2226 -2.44873 
-20.8301 -37.6463 4.67274 -13.7087 -39.7922 4.67274 -6.58718 -40.2926 4.67274 
0.534294 -39.4813 4.67274 7.65577 -37.789 4.67274 14.7772 -34.8903 4.67274 
-26.7569 -34.2157 4.67274 -27.9516 -33.295 4.67274 -20.8301 -34.2157 11.2781 
16.062 -34.2157 4.67274 14.7772 -34.2157 7.01075 21.8987 -30.843 4.67274 
-33.408 -27.0942 4.67274 -35.0731 -24.0658 4.67274 27.6546 -27.0942 4.67274 
29.0202 -26.1125 4.67274 36.1417 -20.1472 4.67274 -37.0241 -19.9727 4.67274 
-35.0731 -19.9727 8.42695 36.296 -19.9727 4.67274 36.1417 -19.9727 4.96887 
-39.2142 -12.8512 4.67274 40.9253 -12.8512 4.67274 43.2631 -5.93932 4.67274 
-40.5895 -5.72978 4.67274 43.3252 -5.72978 4.67274 43.2631 -5.72978 4.84155 
-41.0252 1.3917 4.67274 44.1317 1.3917 4.67274 43.2631 1.3917 7.173 
-40.635 8.51317 4.67274 43.4663 8.51317 4.67274 43.2631 9.13309 4.67274 
43.2631 8.51317 5.25499 -38.7894 15.6346 4.67274 40.6945 15.6346 4.67274 
36.1417 20.9277 4.67274 -35.5551 22.7561 4.67274 -35.0731 23.4723 4.67274 
-35.0731 22.7561 5.94636 34.2416 22.7561 4.67274 29.0202 26.8139 4.67274 
-30.1073 29.8776 4.67274 -27.9516 32.1054 4.67274 -27.9516 29.8776 10.1716 
14.7772 36.322 4.67274 24.4882 29.8776 4.67274 21.8987 31.6768 4.67274 
21.8987 29.8776 10.5036 -21.8621 36.9991 4.67274 -20.8301 37.6891 4.67274 
-20.8301 36.9991 6.84391 -13.7087 40.774 4.67274 -6.58718 42.0658 4.67274 
0.534294 41.5572 4.67274 13.4664 36.9991 4.67274 7.65577 39.6915 4.67274 
-13.7087 -36.0887 11.7942 -6.58718 -36.8633 11.7942 0.534294 -36.6014 11.7942 
7.65577 -35.4033 11.7942 -27.9516 -28.23 11.7942 -19.9082 -34.2157 11.7942 
-20.8301 -33.8445 11.7942 -13.7087 -34.2157 14.1107 -6.58718 -34.2157 15.2691 
0.534294 -34.2157 15.4155 10.9307 -34.2157 11.7942 7.65577 -34.2157 13.8388 
14.7772 -32.5517 11.7942 21.8987 -27.6667 11.7942 -28.9634 -27.0942 11.7942 
-27.9516 -27.0942 12.8283 -20.8301 -27.0942 17.417 14.7772 -27.0942 18.8982 
22.7044 -27.0942 11.7942 21.8987 -27.0942 12.5794 29.0202 -22.0871 11.7942 
-33.0586 -19.9727 11.7942 -35.0731 -13.8421 11.7942 -27.9516 -19.9727 16.9527 
31.3967 -19.9727 11.7942 29.0202 -19.9727 14.207 36.1417 -14.7137 11.7942 
-35.3669 -12.8512 11.7942 -35.0731 -12.8512 12.1669 37.4069 -12.8512 11.7942 
36.1417 -12.8512 13.5665 -36.4783 -5.72978 11.7942 -35.0731 -5.72978 13.4898 
40.4574 -5.72978 11.7942 36.1417 -5.72978 18.0485 -37.0488 1.3917 11.7942 
-35.0731 1.3917 14.1258 41.5129 1.3917 11.7942 -36.9582 8.51317 11.7942 
-35.0731 8.51317 14.0695 40.753 8.51317 11.7942 36.1417 8.51317 18.1779 
-35.7964 15.6346 11.7942 -35.0731 17.3559 11.7942 -35.0731 15.6346 12.7743 
37.7496 15.6346 11.7942 36.1417 17.661 11.7942 36.1417 15.6346 13.9472 
-32.4264 22.7561 11.7942 -27.9516 28.9617 11.7942 -27.9516 22.7561 17.2344 
21.8987 29.4463 11.7942 31.3008 22.7561 11.7942 29.0202 24.5866 11.7942 
29.0202 22.7561 14.4108 -27.1507 29.8776 11.7942 -20.8301 35.0969 11.7942 
-20.8301 29.8776 18.4394 21.2369 29.8776 11.7942 14.7772 33.8124 11.7942 
14.7772 29.8776 17.6186 -17.4712 36.9991 11.7942 -13.7087 38.7298 11.7942 
-13.7087 36.9991 14.7993 -6.58718 39.9188 11.7942 -6.58718 36.9991 16.503 
0.534294 39.3588 11.7942 0.534294 36.9991 15.6448 8.41094 36.9991 11.7942 
[...]
POINT_DATA 510
SCALARS ImageScalars float
LOOKUP_TABLE default
0 0 0 0 0 0 0 0 0 
0 0 0 0 0 0 0 0 0 
0 0 0 0 0 0 0 0 0 
0 0 0 0 0 0 0 0 0 
0 0 0 0 0 0 0 0 0 
0 0 0 0 0 0 0 0 0 
0 0 0 0 0 0 0 0 0 
0 0 0 0 0 0 0 0 0 
0 0 0 0 0 0 0 0 0 
0 0 0 0 0 0 0 0 0 
0 0 0 0 0 0 0 0 0 
0 0 0 0 0 0 0 0 0 
0 0 0 0 0 0 0 0 0 
0 0 0 0 0 0 0 0 0 
0 0 0 0 0 0 0 0 0 
0 0 0 0 0 0 0 0 0 
0 0 0 0 0 0 0 0 0 
0 0 0 0 0 0 0 0 0 
0 0 0 0 0 0 0 0 0 
0 0 0 0 0 0 0 0 0 
0 0 0 0 0 0 0 0 0 
0 0 0 0 0 0 0 0 0 
0 0 0 0 0 0 0 0 0 
0 0 0 0 0 0 0 0 0 
0 0 0 0 0 0 0 0 0 
0 0 0 0 0 0 0 0 0 
0 0 0 0 0 0 0 0 0 
0 0 0 0 0 0 0 0 0 
0 0 0 0 0 0 0 0 0 
0 0 0 0 0 0 0 0 0 
0 0 0 0 0 0 0 0 0 
0 0 0 0 0 0 0 0 0 
0 0 0 0 0 0 0 0 0 
0 0 0 0 0 0 0 0 0 
0 0 0 0 0 0 0 0 0 
0 0 0 0 0 0 0 0 0 
0 0 0 0 0 0 0 0 0 
0 0 0 0 0 0 0 0 0 
0 0 0 0 0 0 0 0 0 
0 0 0 0 0 0 0 0 0 
0 0 0 0 0 0 0 0 0 
0 0 0 0 0 0 0 0 0 
0 0 0 0 0 0 0 0 0 
0 0 0 0 0 0 0 0 0 
0 0 0 0 0 0 0 0 0 
0 0 0 0 0 0 0 0 0 
0 0 0 0 0 0 0 0 0 
0 0 0 0 0 0 0 0 0 
0 0 0 0 0 0 0 0 0 
0 0 0 0 0 0 0 0 0 
0 0 0 0 0 0 0 0 0 
0 0 0 0 0 0 0 0 0 
0 0 0 0 0 0 0 0 0 
0 0 0 0 0 0 0 0 0 
0 0 0 0 0 0 0 0 0 
0 0 0 0 0 0 0 0 0 
0 0 0 0 0 0 
NORMALS Normals float
-0.0614532 0.0213612 -0.997881 -0.307833 -0.683818 -0.661537 -0.0621372 -0.617195 -0.784353 
0.0589126 -0.587007 -0.807436 0.148237 -0.631479 -0.761092 -0.482338 -0.470547 -0.738874 
-0.209062 -0.336473 -0.918193 -0.01475 -0.297097 -0.954733 0.0528526 -0.261794 -0.963675 
0.047663 -0.280573 -0.958648 0.0732393 -0.388055 -0.918721 0.164548 -0.520436 -0.837896 
0.309295 -0.678715 -0.666095 -0.377278 -0.209763 -0.902031 -0.114323 -0.109464 -0.987395 
0.0454824 -0.0838449 -0.99544 0.0800635 -0.0586135 -0.995065 0.0108928 -0.0604823 -0.99811 
-0.0297615 -0.0875357 -0.995717 0.00984133 -0.185389 -0.982616 0.151379 -0.294145 -0.943697 
0.393354 -0.449678 -0.801912 -0.667833 -0.130908 -0.732709 -0.305383 -0.0383984 -0.951455 
-0.0803953 0.0279253 -0.996372 0.0415796 0.053175 -0.997719 0.0725 0.0039894 -0.99736 
0.0160466 -0.0225047 -0.999618 -0.0632829 0.0603789 -0.996167 -0.0639032 0.016099 -0.997826 
-0.0290359 -0.01348 -0.999487 0.0448264 -0.0930641 -0.994651 0.23953 -0.187477 -0.952616 
0.569486 -0.301787 -0.764598 -0.606698 -0.0382809 -0.79401 -0.251604 -0.00673068 -0.967807 
-0.0271234 0.0257092 -0.999301 0.0212067 0.0363204 -0.999115 0.00451993 -0.0365908 -0.99932 
0.0687514 -0.0782584 -0.99456 0.0071312 0.0656659 -0.997816 -0.0681342 0.0256914 -0.997345 
-0.142325 0.0723226 -0.987174 0.0030198 0.00374411 -0.999988 -0.0628271 0.0395309 -0.997241 
0.169971 -0.042296 -0.984541 0.488085 -0.0897937 -0.868165 -0.609578 0.0584355 -0.790569 
-0.248733 0.0284243 -0.968155 -0.0332274 -0.0278439 -0.99906 -0.020618 -0.0277853 -0.999401 
-0.0431441 -0.0185975 -0.998896 0.118331 -0.00109203 -0.992974 0.0858522 0.0179975 -0.996145 
-0.108171 0.0822327 -0.990725 -0.0697589 0.136681 -0.988156 0.137592 0.131967 -0.981658 
0.465457 0.136134 -0.874538 -0.648032 0.163919 -0.743764 -0.327047 0.0839931 -0.941268 
-0.0822756 0.0264075 -0.99626 0.0308319 -0.0077027 -0.999495 0.0307351 0.0539547 -0.99807 
0.104149 0.0859383 -0.990842 0.0915314 0.0112878 -0.995738 -0.0221122 0.149078 -0.988578 
-0.00298633 0.27203 -0.962284 0.178602 0.345542 -0.92125 0.474306 0.37626 -0.795904 
-0.389898 0.218311 -0.894606 -0.119217 0.129159 -0.984431 0.00711791 0.0356245 -0.99934 
0.0513237 0.0500648 -0.997426 0.0736507 0.0545959 -0.995789 0.149754 0.040257 -0.987903 
0.150509 0.185458 -0.971057 0.157904 0.398064 -0.903666 0.293918 0.555477 -0.777855 
-0.533178 0.366707 -0.762396 -0.251474 0.257928 -0.932863 -0.0507018 0.156581 -0.986363 
0.0486794 0.13667 -0.98942 0.0929335 0.137702 -0.986104 0.2168 0.15304 -0.964145 
0.353504 0.254884 -0.900038 -0.332967 0.507932 -0.794442 -0.122779 0.403406 -0.906746 
0.0163048 0.347017 -0.937717 0.0991932 0.364336 -0.92597 0.267457 0.421856 -0.866317 
-0.315418 -0.71654 -0.622159 -0.0916391 -0.730908 -0.676295 0.0593087 -0.695408 -0.716164 
0.16033 -0.685997 -0.70972 -0.354215 -0.697008 -0.623468 -0.509145 -0.574073 -0.641257 
-0.579559 -0.759571 -0.295235 0.196625 -0.714724 -0.671199 0.204199 -0.720909 -0.662264 
0.227433 -0.760274 -0.608489 0.264463 -0.740364 -0.617997 0.365897 -0.883424 -0.292713 
0.347088 -0.75961 -0.550021 -0.595986 -0.486221 -0.639054 -0.82035 -0.525661 -0.225179 
0.412683 -0.735056 -0.537945 0.479659 -0.678101 -0.556872 0.506186 -0.816554 -0.277517 
-0.733545 -0.30286 -0.608431 -0.734824 -0.298797 -0.608896 -0.737767 -0.303808 -0.602827 
0.609527 -0.546556 -0.574241 0.64269 -0.50173 -0.578979 0.675599 -0.578496 -0.457065 
-0.744353 -0.146645 -0.651486 0.722769 -0.332531 -0.605829 -0.729565 -0.0432911 -0.68254 
0.781161 -0.117307 -0.61321 0.91269 -0.133799 -0.386129 -0.727895 0.0567418 -0.683336 
0.762211 0.116308 -0.636795 0.893285 0.0934638 -0.439665 -0.708379 0.174671 -0.683878 
-0.702778 0.26956 -0.658362 0.615772 0.370968 -0.695131 0.484832 0.49855 -0.7186 
0.892282 0.323405 -0.315028 -0.690519 0.304754 -0.655979 -0.735343 0.317725 -0.5986 
0.325702 0.469903 -0.820432 0.341784 0.570478 -0.746819 0.313228 0.574283 -0.756365 
0.528143 0.637364 -0.561099 -0.622306 0.400045 -0.67283 -0.822707 0.490463 -0.2874 
-0.581574 0.467767 -0.665557 0.378613 0.417106 -0.826241 0.44137 0.450484 -0.776052 
0.405195 0.521726 -0.750746 0.474963 0.717239 -0.509881 -0.478825 0.552904 -0.681927 
-0.652722 0.610022 -0.449252 -0.370985 0.613633 -0.697011 -0.178883 0.69124 -0.700135 
0.0113865 0.695672 -0.718269 0.13137 0.668477 -0.732039 0.421777 0.49168 -0.76181 
0.297738 0.583335 -0.755693 0.474184 0.521765 -0.709163 -0.456888 0.824504 -0.333837 
-0.192476 0.765373 -0.614131 0.0100969 0.732157 -0.681061 0.13625 0.758266 -0.637549 
0.323776 0.803619 -0.499366 -0.584477 -0.778135 -0.229985 -0.351634 -0.90379 -0.243963 
-0.146521 -0.955366 -0.256529 0.051866 -0.957478 -0.283807 0.0429115 -0.991962 -0.119036 
0.209003 -0.934496 -0.288159 0.318045 -0.906443 -0.277862 0.38108 -0.89675 -0.224985 
-0.610492 -0.759458 -0.224773 -0.820652 -0.530493 -0.212384 0.386635 -0.896206 -0.217551 
0.41212 -0.892837 -0.181655 0.502917 -0.850389 -0.154637 -0.823254 -0.526328 -0.212679 
0.53797 -0.828826 -0.15374 0.702539 -0.692209 -0.165183 -0.913282 -0.346883 -0.213515 
0.777989 -0.606898 -0.162505 -0.954461 -0.189743 -0.23022 0.919246 -0.356724 -0.166538 
0.931441 -0.322381 -0.168785 -0.966334 -0.0670849 -0.248391 0.971342 -0.147132 -0.186672 
-0.958123 0.0394278 -0.28363 -0.996877 0.0265023 -0.0743889 0.9745 0.0687113 -0.213609 
-0.936909 0.197974 -0.288111 0.908596 0.316854 -0.272133 0.893082 0.352452 -0.279611 
-0.881873 0.364385 -0.299206 0.683563 0.634577 -0.360629 0.591436 0.711632 -0.379188 
-0.822893 0.490503 -0.2868 -0.822798 0.490681 -0.286768 0.586676 0.680243 -0.439409 
0.512421 0.735246 -0.443664 0.503888 0.733247 -0.456558 -0.728193 0.632816 -0.263208 
-0.679228 0.686012 -0.260839 0.592732 0.682607 -0.427454 0.529719 0.759658 -0.37725 
0.601267 0.713331 -0.36005 -0.488215 0.82989 -0.270053 -0.457007 0.846675 -0.272556 
-0.233852 0.925205 -0.298847 -0.0371706 0.934609 -0.353728 0.158676 0.921814 -0.353667 
0.431588 0.828547 -0.35671 0.323739 0.881017 -0.344965 0.0329138 -0.998495 0.0438753 
-0.609732 -0.788586 0.0797444 -0.362404 -0.929916 0.0626081 -0.0871902 -0.99494 0.0499263 
-0.163502 -0.985109 0.053166 0.0947614 -0.994792 0.0375378 0.0303895 -0.993068 0.113541 
0.209157 -0.977594 0.0237291 0.337206 -0.941425 -0.00323811 0.427352 -0.904078 -0.00355905 
-0.645617 -0.759333 0.0811955 -0.836707 -0.539452 0.0944073 -0.611452 -0.759796 0.220989 
0.441769 -0.89706 0.011129 0.461489 -0.885886 0.0472636 0.530387 -0.840966 0.107079 
-0.843261 -0.529059 0.0949053 -0.83861 -0.528357 0.132558 0.55214 -0.826186 0.112067 
0.549552 -0.811922 0.196915 0.710025 -0.691945 0.130678 -0.929142 -0.355992 0.0998234 
0.777968 -0.613876 0.133874 -0.97216 -0.216546 0.0895136 0.91557 -0.385082 0.115947 
0.9369 -0.33151 0.110994 -0.992041 -0.10791 0.0648845 -0.99543 -0.075104 0.0589743 
0.979215 -0.179072 0.09524 -0.998922 0.0202193 0.0417766 -0.995149 0.0913724 0.0364618 
-0.994849 0.016116 0.10008 0.997748 0.0224652 0.0632038 -0.981917 0.1874 0.0268414 
0.968748 0.247553 0.0156644 0.929626 0.368242 -0.0139145 -0.932193 0.361787 -0.0112571 
0.824931 0.561152 -0.0678024 0.669955 0.732974 -0.117942 -0.854932 0.517993 -0.0278452 
-0.835683 0.548628 -0.0253316 0.628205 0.765329 -0.14011 0.574193 0.80274 -0.16097 
-0.754465 0.656325 -0.00444506 -0.686085 0.727521 -0.00111045 0.512789 0.85651 -0.058629 
0.58979 0.795859 -0.136952 0.600023 0.790833 -0.120646 -0.542016 0.840362 -0.00316322 
-0.48375 0.875191 -0.00515304 -0.265748 0.963035 -0.044064 -0.0494199 0.997415 -0.0521679 
0.151095 0.986738 -0.0593168 0.509306 0.858623 -0.058086 0.321204 0.945401 -0.055176 
-0.377397 -0.86824 0.322072 -0.164399 -0.936533 0.309644 0.0215422 -0.952336 0.304289 
0.163773 -0.951677 0.259788 0.297703 -0.932669 0.203719 0.430511 -0.885857 0.172966 
-0.565684 -0.756065 0.329191 -0.608821 -0.721226 0.33041 -0.381922 -0.748443 0.542189 
0.444376 -0.877734 0.179201 0.431071 -0.868912 0.243247 0.505345 -0.830941 0.232733 
-0.782773 -0.524469 0.334959 -0.83421 -0.437892 0.335177 0.552112 -0.784391 0.282673 
0.565589 -0.769295 0.297145 0.712139 -0.621086 0.327276 -0.87624 -0.344678 0.336751 
-0.827228 -0.336534 0.449932 0.716246 -0.616481 0.327022 0.712195 -0.617526 0.333827 
-0.913338 -0.221283 0.341829 0.857951 -0.411623 0.307385 0.939184 -0.203856 0.276362 
-0.931623 -0.115917 0.344443 0.940727 -0.19791 0.275436 0.939406 -0.198579 0.279433 
-0.94271 -0.00222171 0.333607 0.968088 -0.00849273 0.250465 0.949457 -0.0116537 0.313681 
-0.945372 0.144624 0.292156 0.951125 0.202473 0.233164 0.946233 0.22668 0.23078 
0.946987 0.20239 0.249507 -0.914898 0.323593 0.24135 0.837344 0.511167 0.193815 
0.708641 0.690271 0.14613 -0.837927 0.505137 0.206678 -0.828923 0.52039 0.205137 
-0.829241 0.500087 0.249545 0.659925 0.740618 0.126427 0.579216 0.807717 0.110013 
-0.727684 0.65771 0.194662 -0.684221 0.70281 0.194676 -0.685426 0.634644 0.356956 
0.487525 0.854827 0.177736 0.56331 0.817614 0.119116 0.560213 0.817658 0.13265 
0.524411 0.785843 0.327787 -0.533065 0.826138 0.182587 -0.505253 0.843769 0.181034 
-0.510598 0.825093 0.241891 -0.279642 0.946715 0.159785 -0.0556399 0.983805 0.170385 
0.157286 0.973268 0.167363 0.460416 0.86908 0.180879 0.332696 0.925026 0.183411 
-0.173029 -0.800125 0.574335 -0.0300213 -0.842162 0.538388 0.0921199 -0.876951 0.471669 
0.236622 -0.879942 0.411962 -0.597113 -0.558871 0.575429 -0.353387 -0.746622 0.563625 
-0.381071 -0.732672 0.563894 -0.176442 -0.735432 0.654223 -0.0632242 -0.753669 0.654206 
0.052285 -0.807047 0.588168 0.322205 -0.855855 0.404595 0.225377 -0.848915 0.478067 
0.432456 -0.807177 0.401804 0.525549 -0.720401 0.452571 -0.62653 -0.525753 0.575364 
-0.594296 -0.526299 0.60813 -0.356559 -0.475472 0.804234 0.411696 -0.628482 0.659937 
0.529357 -0.714121 0.458053 0.52352 -0.706005 0.476953 0.565616 -0.660317 0.494024 
-0.751289 -0.330518 0.571246 -0.797066 -0.205885 0.567713 -0.560366 -0.312523 0.76702 
0.598436 -0.62707 0.498656 0.550917 -0.6203 0.558317 0.71964 -0.497478 0.48439 
-0.800679 -0.187127 0.56912 -0.792859 -0.185814 0.580386 0.755208 -0.447775 0.478705 
0.720436 -0.453673 0.52455 -0.796699 -0.0985588 0.596286 -0.759074 -0.0928484 0.64435 
0.857948 -0.239777 0.454348 0.705154 -0.247759 0.664359 -0.798735 -0.0281004 0.601026 
-0.743038 -0.0280203 0.668663 0.896734 -0.0171403 0.442239 -0.81395 0.0774916 0.575743 
-0.756704 0.0622941 0.650783 0.865597 0.210454 0.454369 0.673145 0.23288 0.701885 
-0.820495 0.25042 0.513886 -0.811074 0.299114 0.502682 -0.800579 0.240022 0.549056 
0.753449 0.48486 0.444101 0.71501 0.550403 0.431066 0.703002 0.481161 0.52371 
-0.767568 0.449437 0.456996 -0.684673 0.599874 0.413974 -0.656405 0.36129 0.662271 
0.512625 0.772316 0.375158 0.598153 0.697177 0.395167 0.560439 0.731877 0.38764 
0.544879 0.673336 0.499726 -0.662852 0.627935 0.407829 -0.508552 0.764509 0.396108 
-0.460795 0.57047 0.679877 0.508198 0.775255 0.375119 0.448642 0.79979 0.398819 
0.39544 0.682742 0.614402 -0.400608 0.826573 0.395335 -0.28027 0.874176 0.396567 
-0.270353 0.812663 0.516224 -0.0411023 0.910954 0.410455 -0.0300122 0.801831 0.596797 
0.163647 0.894507 0.416026 0.157459 0.814421 0.558502 0.342303 0.844738 0.411395 
0.328539 0.849565 0.412676 0.327056 0.840502 0.431962 -0.203712 -0.461695 0.86333 
-0.125353 -0.558842 0.819745 -0.00732241 -0.66754 0.744538 0.192488 -0.702067 0.685602 
-0.25417 -0.434427 0.864101 -0.319881 -0.377051 0.8692 -0.208431 -0.418584 0.883936 
-0.157611 -0.429681 0.889119 -0.0599552 -0.505588 0.86069 0.410649 -0.62826 0.6608 
0.16455 -0.580929 0.797148 0.411471 -0.627843 0.660685 0.485866 -0.555214 0.675035 
-0.410189 -0.291033 0.864318 -0.515643 -0.154769 0.84271 -0.281209 -0.270325 0.920785 
-0.173172 -0.194681 0.965459 -0.205476 -0.135862 0.969186 -0.166803 -0.187398 0.968018 
0.0474829 -0.279873 0.958862 0.316518 -0.404948 0.857808 0.489356 -0.547812 0.678552 
0.472729 -0.525838 0.707122 0.513323 -0.491488 0.703519 -0.5161 -0.15346 0.842669 
-0.515328 -0.153434 0.843146 -0.230443 -0.137875 0.963269 -0.090907 -0.0928993 0.991517 
-0.17279 0.0424149 0.984045 -0.239292 0.0567298 0.969289 0.346542 -0.312558 0.88443 
0.551781 -0.449931 0.702211 0.49222 -0.438957 0.751689 -0.546248 -0.0765682 0.834117 
-0.506149 -0.0760563 0.859086 -0.210362 -0.0905296 0.973423 0.00507858 -0.116348 0.993195 
-0.0534556 -0.0569138 0.996947 -0.245016 0.0558513 0.967909 -0.151814 0.110162 0.982251 
0.185918 -0.0870503 0.978702 0.665768 -0.243439 0.70533 0.417005 -0.199606 0.886715 
0.691726 -0.108446 0.713971 -0.562665 -0.0293644 0.826163 -0.510058 -0.0293576 0.859639 
-0.261708 -0.0754673 0.962192 -0.0612447 -0.162831 0.984751 -0.0034432 -0.256433 0.966556 
-0.0660295 -0.157608 0.985292 -0.0804202 0.00966241 0.996714 -0.0249286 0.0659467 0.997512 
0.104284 0.0643046 0.992467 0.352692 0.0320446 0.935191 0.697015 -0.00379108 0.717046 
0.676329 0.104506 0.729148 0.677215 -0.00204114 0.735782 -0.577829 0.0375467 0.815294 
-0.528328 0.0313145 0.848463 -0.338384 -0.0369494 0.940282 -0.160944 -0.108348 0.980998 
0.0637277 -0.0875728 0.994118 0.0914165 0.0337 0.995242 0.160034 0.144302 0.976507 
0.62936 0.23021 0.742233 0.366125 0.211649 0.906177 -0.606829 0.154269 0.779718 
-0.607779 0.215066 0.764428 -0.584671 0.147062 0.79783 -0.383308 0.0767329 0.920428 
-0.199581 0.0508114 0.978563 0.208437 0.152255 0.966112 0.28983 0.280565 0.915031 
0.522431 0.419973 0.742084 0.485886 0.476404 0.732772 0.458501 0.4022 0.792472 
-0.589165 0.332977 0.736214 -0.455612 0.542649 0.705655 -0.419699 0.292104 0.859377 
-0.198951 0.259519 0.945023 -0.055293 0.246826 0.967481 0.0536657 0.267889 0.961954 
0.17286 0.324025 0.930122 0.373405 0.628875 0.681972 0.297435 0.40824 0.86306 
0.436796 0.56347 0.701221 0.425741 0.577003 0.697002 0.410786 0.538439 0.735757 
-0.432984 0.561008 0.705546 -0.251989 0.64986 0.717066 -0.243075 0.514928 0.822049 
-0.0347103 0.696415 0.716799 -0.057041 0.487973 0.870993 0.142834 0.694981 0.704698 
0.112659 0.523515 0.844535 0.345935 0.64856 0.678011 0.275868 0.664048 0.694937 
0.25524 0.591968 0.764478 -0.0129013 -0.14955 0.98867 0.16781 -0.140071 0.975818 
-0.125015 0.000662203 0.992155 -0.136453 0.0855597 0.986945 -0.066046 -0.0267395 0.997458 
0.167899 -0.139735 0.97585 0.167374 -0.139264 0.976008 -0.0750118 0.0832268 0.993703 
0.0663007 0.0185105 0.997628 0.0255173 0.0472368 0.998558 0.0387744 0.042598 0.99834 
-0.0465522 -0.17694 0.98312 0.0162189 -0.170168 0.985282 -0.053095 -0.172196 0.983631 
-0.0472114 -0.175561 0.983336 0.0351068 -0.145099 0.988794 0.0216871 -0.171011 0.98503 
0.102436 0.00866852 0.994702 -0.162322 0.0473192 0.985603 -0.0615417 0.150781 0.98665 
-0.0685679 0.0377272 0.996933 0.0438372 0.175322 0.983535 0.0303669 0.0413015 0.998685 
0.137378 0.0796256 0.987313 0.130942 0.0982882 0.986506 0.12553 0.0686582 0.989711 

