# vtk DataFile Version 4.2
vtk output
ASCII
DATASET POLYDATA
POINTS 554 float
-34.9402 -38.969 -15.6661 -26.549 -38.969 -17.8853 -18.1579 -38.969 -18.8031 
-9.76674 -38.969 -19.3785 -1.37559 -38.969 -18.6828 7.01555 -38.969 -17.9431 
15.4067 -38.969 -16.9103 23.7978 -38.969 -16.0308 -43.3313 -30.5778 -18.0951 
-34.9402 -30.5778 -19.7453 -26.549 -30.5778 -20.9454 -18.1579 -30.5778 -20.9856 
-9.76674 -30.5778 -21.4268 -1.37559 -30.5778 -21.1755 7.01555 -30.5778 -20.4653 
15.4067 -30.5778 -20.0652 23.7978 -30.5778 -20.0651 32.189 -30.5778 -19.0434 
40.5801 -30.5778 -16.6527 -51.7224 -22.1867 -17.8452 -43.3313 -22.1867 -21.5495 
-34.9402 -22.1867 -21.7091 -26.549 -22.1867 -21.2319 -18.1579 -22.1867 -20.7048 
-9.76674 -22.1867 -20.7288 -1.37559 -22.1867 -20.5494 7.01555 -22.1867 -20.3085 
15.4067 -22.1867 -20.6412 23.7978 -22.1867 -20.9568 32.189 -22.1867 -20.804 
40.5801 -22.1867 -19.6457 48.9713 -22.1867 -17.8311 -60.1136 -13.7955 -15.0637 
-51.7224 -13.7955 -19.6358 -43.3313 -13.7955 -21.1712 -34.9402 -13.7955 -21.5509 
-26.549 -13.7955 -20.59 -18.1579 -13.7955 -19.808 -9.76674 -13.7955 -19.2724 
-1.37559 -13.7955 -19.8985 7.01555 -13.7955 -19.7353 15.4067 -13.7955 -20.1097 
23.7978 -13.7955 -20.4302 32.189 -13.7955 -20.6749 40.5801 -13.7955 -20.392 
48.9713 -13.7955 -19.1074 57.3624 -13.7955 -16.4756 -60.1136 -5.40439 -16.2741 
-51.7224 -5.40439 -19.7596 -43.3313 -5.40439 -20.8898 -34.9402 -5.40439 -20.81 
-26.549 -5.40439 -19.7646 -18.1579 -5.40439 -18.69 -9.76674 -5.40439 -22.2971 
-1.37559 -5.40439 -21.0705 7.01555 -5.40439 -21.2485 15.4067 -5.40439 -20.5174 
23.7978 -5.40439 -19.9125 32.189 -5.40439 -20.5124 40.5801 -5.40439 -20.6903 
48.9713 -5.40439 -20.3833 57.3624 -5.40439 -17.7854 -60.1136 2.98675 -15.1586 
-51.7224 2.98675 -18.6178 -43.3313 2.98675 -19.7905 -34.9402 2.98675 -19.5661 
-26.549 2.98675 -18.4145 -18.1579 2.98675 -17.9536 -9.76674 2.98675 -22.118 
-1.37559 2.98675 -17.4389 7.01555 2.98675 -22.0552 15.4067 2.98675 -20.3886 
23.7978 2.98675 -18.7978 32.189 2.98675 -19.6438 40.5801 2.98675 -20.0694 
48.9713 2.98675 -19.5464 57.3624 2.98675 -17.3879 -51.7224 11.3779 -17.4271 
-43.3313 11.3779 -18.7497 -34.9402 11.3779 -18.5388 -26.549 11.3779 -17.8118 
-18.1579 11.3779 -17.6648 -9.76674 11.3779 -21.0924 -1.37559 11.3779 -20.2496 
7.01555 11.3779 -20.8634 15.4067 11.3779 -18.3532 23.7978 11.3779 -18.0901 
32.189 11.3779 -18.9224 40.5801 11.3779 -18.691 48.9713 11.3779 -17.6352 
57.3624 11.3779 -15.1387 -43.3313 19.769 -16.7053 -34.9402 19.769 -16.8195 
-26.549 19.769 -15.9667 -18.1579 19.769 -15.5483 -9.76674 19.769 -17.1644 
-1.37559 19.769 -17.3193 7.01555 19.769 -16.6903 15.4067 19.769 -17.3326 
23.7978 19.769 -17.2835 32.189 19.769 -17.5136 40.5801 19.769 -16.9878 
48.9713 19.769 -15.5836 15.4067 28.1602 -14.8532 23.7978 28.1602 -15.5505 
32.189 28.1602 -15.6109 -34.9402 -40.0119 -14.6177 -26.549 -42.3761 -14.6177 
-18.1579 -44.2588 -14.6177 -18.1579 -47.3601 -7.15678 -9.76674 -44.8304 -14.6177 
-9.76674 -47.3601 -7.40334 -1.37559 -44.1206 -14.6177 -1.37559 -47.3601 -6.55778 
7.01555 -43.1186 -14.6177 15.4067 -41.7065 -14.6177 23.7978 -40.3416 -14.6177 
-36.9138 -38.969 -14.6177 -43.3313 -35.0046 -14.6177 -43.3313 -38.969 -7.17864 
31.5149 -38.969 -14.6177 32.189 -38.8005 -14.6177 32.189 -38.969 -14.4006 
40.5801 -33.6936 -14.6177 40.5801 -38.969 -7.02688 -48.8681 -30.5778 -14.6177 
-51.7224 -27.6431 -14.6177 -51.7224 -30.5778 -10.6195 45.9018 -30.5778 -14.6177 
48.9713 -28.6467 -14.6177 48.9713 -30.5778 -12.8097 -56.2246 -22.1867 -14.6177 
-60.1136 -14.6447 -14.6177 -60.1136 -22.1867 -7.03921 54.8487 -22.1867 -14.6177 
57.3624 -17.9981 -14.6177 57.3624 -22.1867 -12.4172 -60.5317 -13.7955 -14.6177 
60.3448 -13.7955 -14.6177 65.7535 -13.7955 -9.67621 -61.9532 -5.40439 -14.6177 
65.1795 -5.40439 -14.6177 65.7535 -5.40439 -14.1286 -60.8886 2.98675 -14.6177 
-60.1136 5.74139 -14.6177 64.5925 2.98675 -14.6177 65.7535 2.98675 -13.6661 
-58.1909 11.3779 -14.6177 -60.1136 11.3779 -13.5264 -51.7224 19.0124 -14.6177 
58.3515 11.3779 -14.6177 57.3624 15.7341 -14.6177 65.7535 11.3779 -9.93474 
-60.1136 19.769 -9.37022 -50.7384 19.769 -14.6177 -51.7224 19.769 -14.2611 
-43.3313 23.9665 -14.6177 -34.9402 24.7417 -14.6177 -26.549 23.5579 -14.6177 
-18.1579 22.4915 -14.6177 -9.76674 25.1119 -14.6177 -1.37559 25.4129 -14.6177 
7.01555 24.6977 -14.6177 40.5801 27.5406 -14.6177 54.9475 19.769 -14.6177 
48.9713 21.7954 -14.6177 57.3624 19.769 -13.7922 -51.7224 28.1602 -9.09132 
-43.3313 28.1602 -11.9253 -34.9402 28.1602 -12.9435 -26.549 28.1602 -12.8759 
-18.1579 28.1602 -12.595 -9.76674 28.1602 -13.3433 -1.37559 28.1602 -13.532 
14.1957 28.1602 -14.6177 7.01555 28.1602 -13.2787 15.4067 28.6028 -14.6177 
23.7978 30.014 -14.6177 39.2492 28.1602 -14.6177 32.189 29.9594 -14.6177 
40.5801 28.1602 -14.3845 48.9713 28.1602 -10.5139 -34.9402 36.5513 -7.36227 
-26.549 36.5513 -7.68241 -18.1579 36.5513 -8.61049 -9.76674 36.5513 -9.79089 
-1.37559 36.5513 -9.99882 7.01555 36.5513 -9.62379 15.4067 36.5513 -9.83646 
23.7978 36.5513 -10.3961 32.189 36.5513 -9.80236 40.5801 36.5513 -6.83396 
-18.1579 -47.6319 -6.22652 -9.76674 -47.6725 -6.22652 -1.37559 -47.4507 -6.22652 
-43.3313 -39.399 -6.22652 -34.9402 -43.547 -6.22652 -19.7559 -47.3601 -6.22652 
-26.549 -46.1165 -6.22652 -18.1579 -47.3601 -5.03042 -9.76674 -47.3601 -5.14831 
-0.216245 -47.3601 -6.22652 -1.37559 -47.3601 -5.88547 7.01555 -46.7858 -6.22652 
15.4067 -45.6502 -6.22652 23.7978 -44.4681 -6.22652 32.189 -42.3952 -6.22652 
40.5801 -39.303 -6.22652 -43.8948 -38.969 -6.22652 -51.7224 -32.7797 -6.22652 
-43.3313 -38.969 -4.22226 41.3283 -38.969 -6.22652 40.5801 -38.969 -5.07463 
48.9713 -35.0691 -6.22652 -53.8598 -30.5778 -6.22652 -60.1136 -22.6133 -6.22652 
-51.7224 -30.5778 0.100774 55.3127 -30.5778 -6.22652 57.3624 -28.6793 -6.22652 
-60.4291 -22.1867 -6.22652 -60.1136 -22.1867 -4.934 63.3245 -22.1867 -6.22652 
65.7535 -18.2067 -6.22652 -65.1357 -13.7955 -6.22652 67.704 -13.7955 -6.22652 
-67.8735 -5.40439 -6.22652 70.0159 -5.40439 -6.22652 -68.5029 2.98675 -6.22652 
-68.5047 2.98675 -6.03114 70.0127 2.98675 -6.22652 -67.5386 11.3779 -6.22652 
68.4712 11.3779 -6.22652 65.7535 17.7791 -6.22652 -62.3933 19.769 -6.22652 
-60.1136 23.3465 -6.22652 64.2574 19.769 -6.22652 57.3624 26.6548 -6.22652 
65.7535 19.769 0.763377 -55.337 28.1602 -6.22652 -60.1136 28.1602 1.4359 
-51.7224 31.3851 -6.22652 -43.3313 36.0803 -6.22652 55.7017 28.1602 -6.22652 
48.9713 32.7035 -6.22652 57.3624 28.1602 -1.59816 -41.4431 36.5513 -6.22652 
-43.3313 36.5513 -5.60071 -34.9402 37.7042 -6.22652 -26.549 38.3666 -6.22652 
-18.1579 39.8397 -6.22652 -9.76674 41.0953 -6.22652 -1.37559 41.7938 -6.22652 
7.01555 40.6899 -6.22652 15.4067 40.5171 -6.22652 23.7978 40.3798 -6.22652 
32.189 39.3134 -6.22652 41.6612 36.5513 -6.22652 40.5801 37.0016 -6.22652 
-18.1579 44.9425 0.362541 -9.76674 44.9425 -1.44164 -1.37559 44.9425 -1.98263 
7.01555 44.9425 0.243576 -34.9402 -42.3568 2.16462 -26.549 -44.563 2.16462 
-18.1579 -45.4958 2.16462 -9.76674 -44.959 2.16462 -1.37559 -44.8758 2.16462 
7.01555 -44.4522 2.16462 15.4067 -43.0977 2.16462 23.7978 -41.3104 2.16462 
32.189 -39.8753 2.16462 -41.0562 -38.969 2.16462 -43.3313 -37.4884 2.16462 
-34.9402 -38.969 8.50247 -9.76674 -38.969 9.91131 -1.37559 -38.969 9.10074 
7.01555 -38.969 8.58453 15.4067 -38.969 7.10207 23.7978 -38.969 5.21859 
34.6123 -38.969 2.16462 32.189 -38.969 3.35361 40.5801 -36.6782 2.16462 
48.9713 -33.1135 2.16462 -50.902 -30.5778 2.16462 -51.7224 -29.6602 2.16462 
40.5801 -30.5778 9.25359 53.0828 -30.5778 2.16462 48.9713 -30.5778 5.50393 
57.3624 -27.2823 2.16462 -58.0599 -22.1867 2.16462 -60.1136 -19.0688 2.16462 
-51.7224 -22.1867 9.63504 62.1988 -22.1867 2.16462 57.3624 -22.1867 7.54493 
65.7535 -16.6523 2.16462 -63.4901 -13.7955 2.16462 -60.1136 -13.7955 6.53516 
67.1526 -13.7955 2.16462 65.7535 -13.7955 4.3427 -66.6778 -5.40439 2.16462 
-68.5047 2.67582 2.16462 70.487 -5.40439 2.16462 65.7535 -5.40439 9.52459 
-68.5717 2.98675 2.16462 -68.5047 3.77168 2.16462 -68.5047 2.98675 2.3049 
70.6295 2.98675 2.16462 65.7535 2.98675 10.3797 -67.8557 11.3779 2.16462 
69.2176 11.3779 2.16462 65.7535 11.3779 8.87384 -65.2498 19.769 2.16462 
65.924 19.769 2.16462 65.7535 19.9953 2.16462 65.7535 19.769 2.50833 
-60.3687 28.1602 2.16462 -60.1136 28.4375 2.16462 -60.1136 28.1602 2.94932 
-51.7224 35.965 2.16462 48.9713 34.976 2.16462 58.216 28.1602 2.16462 
57.3624 28.967 2.16462 57.3624 28.1602 4.01504 -50.7267 36.5513 2.16462 
-43.3313 40.356 2.16462 -34.9402 42.6597 2.16462 -26.549 44.281 2.16462 
15.4067 44.37 2.16462 23.7978 43.3574 2.16462 32.189 41.6685 2.16462 
45.8562 36.5513 2.16462 40.5801 38.9448 2.16462 -23.1706 44.9425 2.16462 
-18.1579 45.8489 2.16462 -9.76674 46.8593 2.16462 -1.37559 46.9402 2.16462 
12.1156 44.9425 2.16462 7.01555 45.7989 2.16462 7.01555 44.9425 8.09525 
-26.549 -40.0339 10.5558 -18.1579 -39.9125 10.5558 -43.3313 -31.3833 10.5558 
-30.5782 -38.969 10.5558 -34.9402 -37.1372 10.5558 -26.549 -38.969 11.7159 
-12.9574 -38.969 10.5558 -18.1579 -38.969 11.4588 -9.76674 -38.1999 10.5558 
-1.37559 -36.9791 10.5558 7.01555 -36.2546 10.5558 15.4067 -34.127 10.5558 
23.7978 -32.7573 10.5558 32.189 -31.101 10.5558 -44.134 -30.5778 10.5558 
-43.3313 -30.5778 11.1476 -34.9402 -30.5778 14.6033 -26.549 -30.5778 17.381 
-18.1579 -30.5778 16.7877 -9.76674 -30.5778 15.2273 -1.37559 -30.5778 14.1705 
7.01555 -30.5778 13.807 15.4067 -30.5778 12.669 23.7978 -30.5778 12.0108 
34.2916 -30.5778 10.5558 32.189 -30.5778 10.9455 40.5801 -28.9222 10.5558 
48.9713 -24.4227 10.5558 -50.427 -22.1867 10.5558 -51.7224 -20.4237 10.5558 
-43.3313 -22.1867 14.1093 -34.9402 -22.1867 17.3093 -9.76674 -22.1867 18.1147 
-1.37559 -22.1867 16.9893 7.01555 -22.1867 17.4276 15.4067 -22.1867 16.7861 
23.7978 -22.1867 16.0348 32.189 -22.1867 15.7298 40.5801 -22.1867 14.5536 
52.1511 -22.1867 10.5558 48.9713 -22.1867 11.9349 57.3624 -18.3759 10.5558 
-55.7411 -13.7955 10.5558 -60.1136 -7.86047 10.5558 -51.7224 -13.7955 13.3102 
[...]
POINT_DATA 554
SCALARS ImageScalars float
LOOKUP_TABLE default
0 0 0 0 0 0 0 0 0 
0 0 0 0 0 0 0 0 0 
0 0 0 0 0 0 0 0 0 
0 0 0 0 0 0 0 0 0 
0 0 0 0 0 0 0 0 0 
0 0 0 0 0 0 0 0 0 
0 0 0 0 0 0 0 0 0 
0 0 0 0 0 0 0 0 0 
0 0 0 0 0 0 0 0 0 
0 0 0 0 0 0 0 0 0 
0 0 0 0 0 0 0 0 0 
0 0 0 0 0 0 0 0 0 
0 0 0 0 0 0 0 0 0 
0 0 0 0 0 0 0 0 0 
0 0 0 0 0 0 0 0 0 
0 0 0 0 0 0 0 0 0 
0 0 0 0 0 0 0 0 0 
0 0 0 0 0 0 0 0 0 
0 0 0 0 0 0 0 0 0 
0 0 0 0 0 0 0 0 0 
0 0 0 0 0 0 0 0 0 
0 0 0 0 0 0 0 0 0 
0 0 0 0 0 0 0 0 0 
0 0 0 0 0 0 0 0 0 
0 0 0 0 0 0 0 0 0 
0 0 0 0 0 0 0 0 0 
0 0 0 0 0 0 0 0 0 
0 0 0 0 0 0 0 0 0 
0 0 0 0 0 0 0 0 0 
0 0 0 0 0 0 0 0 0 
0 0 0 0 0 0 0 0 0 
0 0 0 0 0 0 0 0 0 
0 0 0 0 0 0 0 0 0 
0 0 0 0 0 0 0 0 0 
0 0 0 0 0 0 0 0 0 
0 0 0 0 0 0 0 0 0 
0 0 0 0 0 0 0 0 0 
0 0 0 0 0 0 0 0 0 
0 0 0 0 0 0 0 0 0 
0 0 0 0 0 0 0 0 0 
0 0 0 0 0 0 0 0 0 
0 0 0 0 0 0 0 0 0 
0 0 0 0 0 0 0 0 0 
0 0 0 0 0 0 0 0 0 
0 0 0 0 0 0 0 0 0 
0 0 0 0 0 0 0 0 0 
0 0 0 0 0 0 0 0 0 
0 0 0 0 0 0 0 0 0 
0 0 0 0 0 0 0 0 0 
0 0 0 0 0 0 0 0 0 
0 0 0 0 0 0 0 0 0 
0 0 0 0 0 0 0 0 0 
0 0 0 0 0 0 0 0 0 
0 0 0 0 0 0 0 0 0 
0 0 0 0 0 0 0 0 0 
0 0 0 0 0 0 0 0 0 
0 0 0 0 0 0 0 0 0 
0 0 0 0 0 0 0 0 0 
0 0 0 0 0 0 0 0 0 
0 0 0 0 0 0 0 0 0 
0 0 0 0 0 0 0 0 0 
0 0 0 0 0 
NORMALS Normals float
0.320942 0.67083 0.668568 0.171618 0.560592 0.810114 0.0791296 0.463289 0.882667 
-0.00434135 0.457962 0.888961 -0.083763 0.46661 0.880488 -0.100119 0.504271 0.857722 
-0.102127 0.567952 0.816701 -0.135049 0.664509 0.734976 0.334828 0.485997 0.807278 
0.154106 0.310454 0.938014 0.0766244 0.164308 0.983428 0.0279509 0.103554 0.994231 
0.0117151 0.0751734 0.997102 -0.0551319 0.0891158 0.994494 -0.0652941 0.129349 0.989447 
-0.0233265 0.202071 0.979093 -0.0635505 0.239324 0.968858 -0.176599 0.322804 0.929844 
-0.284271 0.451836 0.845597 0.486072 0.313944 0.815581 0.210672 0.159841 0.964401 
-0.0208783 0.108888 0.993835 -0.0589681 -0.0220911 0.998015 -0.0299599 -0.0654418 0.997407 
-0.00943838 -0.129556 0.991527 -0.0243967 -0.0745697 0.996917 0.00558762 -0.0439792 0.999017 
0.0383989 0.00186678 0.999261 0.0101704 0.0183668 0.99978 -0.086191 0.100165 0.991231 
-0.171181 0.186487 0.967429 -0.33579 0.244494 0.909653 0.680913 0.256918 0.685821 
0.290503 0.114237 0.950031 0.103152 -0.0358976 0.994018 -0.0347566 -0.0530151 0.997989 
-0.102639 -0.0880649 0.990813 -0.0807863 -0.123721 0.989023 0.00819512 0.0537427 0.998521 
0.0278374 0.0229387 0.999349 0.0125936 0.0523773 0.998548 0.0414678 -0.00899206 0.999099 
0.0335942 -0.0617036 0.997529 -0.00186204 -0.0170555 0.999853 -0.0912076 0.0668966 0.993582 
-0.197498 0.15291 0.968304 -0.423215 0.251771 0.870345 0.571028 -0.00591002 0.820909 
0.222572 -0.0601293 0.97306 0.0568375 -0.0817012 0.995035 -0.0647681 -0.117142 0.991001 
-0.126234 -0.129274 0.983541 0.1006 -0.106101 0.989253 0.171596 0.194326 0.965812 
-0.0495426 -0.114819 0.99215 -0.0326723 0.131541 0.990772 -0.0827254 0.0189551 0.996392 
0.00204324 -0.0942313 0.995548 0.0461358 -0.0594615 0.997164 -0.00680257 -0.0194708 0.999787 
-0.178736 0.025358 0.98357 -0.352088 0.0355356 0.935292 0.504563 -0.132888 0.853087 
0.232671 -0.136899 0.962872 0.0522158 -0.123063 0.991024 -0.0810918 -0.133004 0.987793 
-0.0963078 -0.115205 0.988662 0.211034 -0.0632012 0.975433 0.0195055 -0.0708549 0.997296 
-0.0593629 -0.0271307 0.997868 0.157003 -0.0232624 0.987324 -0.186429 -0.133975 0.973291 
-0.0319273 -0.110141 0.993403 0.0744576 -0.0952504 0.992665 -0.00538393 -0.118482 0.992942 
-0.164274 -0.157684 0.97373 -0.323176 -0.133097 0.936933 0.255527 -0.218618 0.94176 
0.0703768 -0.190963 0.979071 -0.0548807 -0.156259 0.98619 -0.0511396 -0.136581 0.989308 
0.187879 -0.136966 0.972595 0.151405 -0.257164 0.954434 -0.0136101 -0.00684815 0.999884 
-0.103596 -0.279206 0.954627 -0.163273 -0.172797 0.971331 0.0351657 -0.0901853 0.995304 
0.0353498 -0.121358 0.991979 -0.0719483 -0.173116 0.98227 -0.18333 -0.232591 0.955139 
-0.378726 -0.203654 0.902824 0.122725 -0.340782 0.932098 -0.0397926 -0.304915 0.951548 
-0.0721647 -0.27849 0.957724 0.0589533 -0.288584 0.955638 0.101131 -0.449629 0.887472 
-0.0272269 -0.419054 0.907553 0.00879443 -0.426523 0.904434 0.0308211 -0.191579 0.980993 
0.00996362 -0.141134 0.98994 -0.0157461 -0.192144 0.98124 -0.117079 -0.255962 0.959571 
-0.16399 -0.350093 0.922249 0.131842 -0.402535 0.90586 0.0424877 -0.341966 0.938752 
-0.0657874 -0.364176 0.929004 0.327659 0.720201 0.611515 0.217758 0.741252 0.634923 
0.117787 0.768028 0.629491 0.0926883 0.992044 0.0851969 -0.00419133 0.804969 0.593303 
-0.00955134 0.998351 0.0566051 -0.0839249 0.768256 0.634618 -0.0532965 0.998323 0.0225928 
-0.112463 0.7347 0.669005 -0.134081 0.707524 0.693853 -0.152065 0.731848 0.664285 
0.366037 0.706255 0.605988 0.455756 0.648673 0.609516 0.551225 0.821671 0.144939 
-0.236679 0.722854 0.649203 -0.243758 0.718211 0.651733 -0.246678 0.734178 0.63256 
-0.352744 0.591118 0.725363 -0.394201 0.913651 0.0992359 0.55542 0.586444 0.589569 
0.594468 0.529261 0.605384 0.679931 0.669412 0.299302 -0.394957 0.576487 0.715312 
-0.435838 0.549669 0.712677 -0.483561 0.673296 0.559322 0.652537 0.41565 0.633586 
0.698396 0.28104 0.658225 0.824461 0.556253 0.104145 -0.508412 0.373035 0.77612 
-0.496038 0.346252 0.796276 -0.607963 0.471014 0.639161 0.698904 0.262205 0.665419 
-0.519751 0.293814 0.802205 -0.826645 0.331635 0.454618 0.650229 0.0268336 0.759264 
-0.635011 0.125268 0.762279 -0.671015 0.127942 0.730322 0.533426 -0.125863 0.83643 
0.514616 -0.150814 0.844053 -0.600339 -0.17427 0.780527 -0.67149 -0.167191 0.721906 
0.46874 -0.204137 0.859425 0.550222 -0.214505 0.806996 0.304727 -0.370413 0.87746 
-0.406972 -0.222091 0.88603 -0.425596 -0.303574 0.852473 -0.739181 -0.317747 0.593843 
0.641449 -0.480136 0.598342 0.285876 -0.381071 0.879238 0.313688 -0.389153 0.866118 
0.120635 -0.456401 0.881558 0.000980048 -0.419884 0.907577 -0.0504775 -0.353573 0.934044 
0.0421845 -0.314792 0.948223 0.0573728 -0.396252 0.916348 -0.00865585 -0.382623 0.923864 
0.0586261 -0.379031 0.923525 -0.22854 -0.424028 0.876339 -0.375995 -0.387099 0.841892 
-0.205169 -0.399601 0.893434 -0.476695 -0.415051 0.774916 0.413162 -0.586846 0.696354 
0.149248 -0.562971 0.812889 0.0460028 -0.494312 0.868066 -0.0187094 -0.44309 0.896282 
0.0283908 -0.378206 0.925286 0.050427 -0.366106 0.929206 -0.00366434 -0.365278 0.930891 
0.123711 -0.397338 0.909295 0.0648638 -0.355876 0.93228 0.128383 -0.413776 0.901281 
0.0405921 -0.400645 0.915334 -0.210367 -0.427694 0.879104 -0.0769912 -0.429841 0.899616 
-0.239954 -0.44151 0.864576 -0.402349 -0.594162 0.696482 0.0865356 -0.681257 0.726912 
0.0655481 -0.603304 0.794813 0.108317 -0.531186 0.840303 0.0748772 -0.505962 0.8593 
-0.00802403 -0.484685 0.874652 -0.0101907 -0.539486 0.841933 0.0369436 -0.626687 0.778395 
0.00230333 -0.679313 0.733845 -0.149347 -0.750227 0.644092 -0.322043 -0.816029 0.479985 
0.0889387 0.995491 0.0329807 -0.0107399 0.999879 -0.0112666 -0.0520885 0.998634 0.00419206 
0.551608 0.828415 0.0972508 0.358462 0.926969 0.110604 0.115037 0.992599 0.0388997 
0.230465 0.969956 0.0779174 0.0821934 0.996389 -0.0212684 -0.0135794 0.99786 -0.0639555 
-0.0595155 0.998193 0.00833752 -0.0512489 0.998601 -0.0130244 -0.10755 0.993355 0.0409615 
-0.137533 0.989624 0.0415832 -0.193739 0.980819 0.0214219 -0.284735 0.957289 0.0502407 
-0.387666 0.920006 0.0574768 0.561238 0.822112 0.0956278 0.688971 0.722852 0.0529551 
0.562192 0.827003 -0.00252993 -0.39919 0.914987 0.0587109 -0.389099 0.921167 -0.00732619 
-0.541219 0.831731 0.12372 0.722547 0.688189 0.0657367 0.821654 0.566531 0.0626748 
0.672955 0.675535 -0.301303 -0.659166 0.733624 0.165215 -0.687396 0.701044 0.189802 
0.826254 0.55975 0.0631231 0.826872 0.562373 -0.00438382 -0.784462 0.585029 0.205814 
-0.862135 0.464384 0.202658 0.912421 0.392496 0.115912 -0.912057 0.339165 0.230477 
0.968623 0.186669 0.164085 -0.944274 0.141356 0.297264 0.964173 -0.0118782 0.265008 
0.967286 -0.0100337 0.25349 -0.935878 -0.0989638 0.338141 0.904726 -0.273121 0.32692 
-0.881029 -0.290494 0.373365 -0.765634 -0.503815 0.399969 0.740419 -0.501433 0.447599 
0.667948 -0.563928 0.485624 -0.71255 -0.572029 0.406271 -0.619649 -0.66688 0.413892 
-0.83351 -0.546568 -0.0807775 0.532018 -0.624115 0.572221 0.760089 -0.647852 0.0505167 
0.465128 -0.671961 0.576302 0.218565 -0.731503 0.645858 -0.593125 -0.677149 0.435513 
-0.470593 -0.748635 0.466999 -0.672677 -0.728529 0.129429 0.188043 -0.730524 0.656486 
0.23176 -0.75827 0.609356 0.102021 -0.713252 0.693443 0.0903931 -0.656794 0.748633 
0.113104 -0.633548 0.765392 0.0786486 -0.680691 0.728337 -0.017842 -0.701356 0.712588 
-0.0535145 -0.70719 0.704995 -0.0143343 -0.778021 0.628075 -0.0686134 -0.839064 0.539688 
-0.17614 -0.866186 0.46765 -0.347404 -0.823439 0.448619 -0.324676 -0.83088 0.451911 
0.150413 -0.932989 0.326966 0.074192 -0.918329 0.388801 -0.0447652 -0.921059 0.386841 
-0.140054 -0.956714 0.255114 0.361334 0.883676 -0.297581 0.170247 0.930964 -0.322989 
0.0249313 0.924648 -0.380007 -0.0347361 0.886235 -0.461932 -0.0272151 0.87779 -0.478272 
-0.0978898 0.878483 -0.467638 -0.169266 0.855101 -0.490053 -0.172134 0.842387 -0.51064 
-0.240531 0.837775 -0.490182 0.506157 0.798995 -0.324674 0.559033 0.756525 -0.33934 
0.379172 0.743141 -0.551335 -0.10317 0.667047 -0.737837 -0.0560493 0.645787 -0.761457 
-0.0897471 0.65755 -0.748047 -0.145463 0.70298 -0.696175 -0.159444 0.76916 -0.618846 
-0.274375 0.829446 -0.486557 -0.239568 0.806134 -0.541068 -0.326608 0.822259 -0.466066 
-0.449033 0.803559 -0.390719 0.639855 0.648004 -0.413129 0.646051 0.636713 -0.420969 
-0.215892 0.652394 -0.72648 -0.535479 0.745865 -0.396167 -0.438948 0.702342 -0.560394 
-0.627145 0.684055 -0.372502 0.741686 0.520343 -0.423255 0.762275 0.49719 -0.414414 
0.562361 0.446738 -0.695827 -0.731064 0.592115 -0.339036 -0.557537 0.616592 -0.555848 
-0.820614 0.473674 -0.319727 0.81441 0.431409 -0.388101 0.696949 0.458199 -0.551648 
-0.856622 0.419839 -0.299891 -0.808879 0.421361 -0.410084 0.904981 0.266787 -0.331413 
0.970378 0.0694686 -0.23139 -0.964271 0.193097 -0.181369 -0.641196 0.223246 -0.734186 
0.971909 0.0625127 -0.226902 0.973539 0.0408719 -0.224835 0.970388 0.0639666 -0.232926 
-0.984535 -0.0708306 -0.160229 -0.645179 -0.0108757 -0.763954 0.965957 -0.17926 -0.18653 
-0.947795 -0.278039 -0.156136 -0.757821 -0.248636 -0.603231 0.91698 -0.392866 -0.069314 
-0.832749 -0.526773 -0.170408 -0.82897 -0.532926 -0.1697 -0.830044 -0.525635 -0.186372 
0.768048 -0.640345 0.00773728 0.762561 -0.646829 0.0106595 0.770479 -0.636384 -0.0371141 
0.555794 -0.830041 0.0460963 -0.518797 -0.853596 -0.0471458 -0.682507 -0.72596 -0.0846563 
-0.667968 -0.739522 -0.083215 -0.671497 -0.718447 -0.181456 0.534275 -0.843509 0.0551714 
0.368237 -0.91471 0.166457 0.214687 -0.948474 0.233036 0.182462 -0.949778 0.254224 
-0.144136 -0.982667 0.116579 -0.164155 -0.985303 0.0472421 -0.241538 -0.97027 0.0153781 
-0.459111 -0.887549 -0.0384019 -0.362782 -0.931759 -0.014623 0.172717 -0.95572 0.238261 
0.153124 -0.963309 0.220427 0.0660138 -0.982198 0.175865 -0.0631864 -0.988556 0.136981 
-0.14854 -0.980599 0.12791 -0.152834 -0.977138 0.147793 -0.129183 -0.963584 -0.234133 
0.106893 0.753652 -0.648524 -0.0742073 0.706521 -0.70379 0.499175 0.498199 -0.708958 
0.231801 0.722488 -0.651367 0.363465 0.645686 -0.671552 0.0984664 0.713933 -0.693256 
-0.0973685 0.666924 -0.738736 -0.0830147 0.677458 -0.730862 -0.110269 0.634538 -0.764985 
-0.0644383 0.568367 -0.820248 -0.0898019 0.558441 -0.824669 -0.114796 0.543356 -0.831616 
-0.103162 0.557415 -0.8238 -0.137391 0.578292 -0.804178 0.513168 0.480867 -0.710933 
0.492868 0.470679 -0.731808 0.337901 0.386674 -0.858083 0.113337 0.373073 -0.920854 
-0.117847 0.404936 -0.906719 -0.145894 0.41285 -0.899038 -0.0771345 0.400232 -0.913162 
-0.07914 0.440303 -0.894355 -0.0962578 0.472684 -0.875959 -0.0865374 0.508004 -0.856997 
-0.151278 0.586049 -0.796028 -0.132258 0.569108 -0.811557 -0.202843 0.58679 -0.783921 
-0.355691 0.502738 -0.787869 0.526101 0.416341 -0.741538 0.535416 0.418758 -0.733465 
0.383148 0.31661 -0.86773 0.272123 0.217107 -0.93745 -0.136702 0.258901 -0.956181 
-0.0387267 0.334769 -0.941504 -0.0100028 0.395008 -0.918623 -0.0762077 0.395296 -0.915387 
-0.0577545 0.351319 -0.934473 -0.0839024 0.357836 -0.930007 -0.184855 0.397951 -0.89859 
-0.402155 0.527022 -0.748678 -0.317985 0.473534 -0.821371 -0.500602 0.478278 -0.72156 
0.558853 0.399378 -0.726761 0.633297 0.353211 -0.688605 0.456123 0.348074 -0.819022 
0.275491 0.281116 -0.919282 0.131709 0.170363 -0.976539 -0.113437 0.156088 -0.981208 
-0.0561974 0.175925 -0.982798 -0.14299 0.234383 -0.961571 -0.254145 0.278631 -0.926161 
-0.566803 0.355232 -0.743334 -0.454939 0.308166 -0.835502 0.66057 0.31478 -0.681586 
0.619265 0.313591 -0.719841 0.386767 0.251632 -0.887182 -0.115232 0.0901238 -0.989242 
-0.0127932 0.119611 -0.992738 -0.0719167 0.127026 -0.989289 -0.187521 0.180395 -0.965554 
-0.5716 0.207669 -0.793818 -0.429254 0.181181 -0.884824 0.754509 0.121738 -0.6449 
0.600496 0.126306 -0.789589 0.332094 0.113466 -0.936397 -0.208655 0.0656311 -0.975785 
-0.631963 -0.00850412 -0.774952 -0.444734 0.0312494 -0.895117 0.783809 -0.124478 -0.608398 
0.631292 -0.114581 -0.767035 0.341742 -0.0486626 -0.938533 -0.242336 -0.0554289 -0.968608 
-0.670532 -0.209501 -0.711686 -0.479176 -0.0942427 -0.872645 0.736999 -0.317955 -0.596437 
0.725957 -0.38681 -0.568652 0.68795 -0.305088 -0.658518 0.463455 -0.17259 -0.869151 
-0.310903 -0.200453 -0.929063 -0.697386 -0.413766 -0.585193 -0.62865 -0.538352 -0.561227 
-0.559459 -0.38128 -0.735956 0.698856 -0.50441 -0.507119 0.598038 -0.65934 -0.455654 
0.510433 -0.40609 -0.75799 0.263737 -0.326947 -0.907496 -0.226537 -0.41467 -0.881323 
-0.571242 -0.633932 -0.521356 -0.500206 -0.701854 -0.507144 -0.453501 -0.547745 -0.703074 
0.529499 -0.745589 -0.404633 0.426714 -0.823617 -0.373591 0.413621 -0.671623 -0.614687 
0.273923 -0.908883 -0.31448 0.255266 -0.554182 -0.792289 0.159638 -0.950262 -0.267427 
-0.0366088 -0.433288 -0.900512 -0.112178 -0.908553 -0.402427 -0.0663969 -0.454696 -0.888168 
-0.161534 -0.903044 -0.398018 -0.0963268 -0.535335 -0.839129 -0.203826 -0.877431 -0.434247 
-0.170923 -0.60727 -0.775892 -0.260659 -0.831446 -0.490667 -0.24011 -0.706481 -0.665756 
-0.375846 -0.808343 -0.453124 -0.369577 -0.812155 -0.451462 -0.369147 -0.805045 -0.464364 
0.110044 -0.947222 -0.301101 0.0624283 -0.938677 -0.339099 0.0556723 -0.924021 -0.378266 
-0.00198514 -0.911359 -0.411608 -0.0054494 -0.888887 -0.458095 -0.0845887 -0.906035 -0.414662 
-0.0560923 -0.899797 -0.432687 -0.054727 -0.884278 -0.463743 0.108716 0.132862 -0.985154 
-0.072235 0.195884 -0.977963 0.129753 0.110768 -0.98534 0.109049 0.0953568 -0.989452 
-0.08639 0.191658 -0.977652 -0.0586501 0.154263 -0.986288 -0.0548963 0.249413 -0.96684 
0.0231953 0.257436 -0.966017 -0.0088762 0.32869 -0.944396 -0.117653 0.286447 -0.950845 
0.214033 0.200404 -0.956048 0.0947918 0.122839 -0.987889 0.121581 0.167777 -0.978299 
0.0503611 0.0684791 -0.996381 0.0325532 0.0346569 -0.998869 0.035612 0.241521 -0.969742 
0.0586627 0.208243 -0.976316 -0.00881043 0.232397 -0.972581 -0.121331 0.17828 -0.976471 
-0.139928 0.234058 -0.9621 0.218006 0.19796 -0.95566 0.211523 0.196702 -0.957375 
0.0718534 0.157399 -0.984918 -0.0190365 0.126593 -0.991772 0.115467 0.0906449 -0.989167 
0.0467798 0.160287 -0.985961 -0.0446681 0.0618562 -0.997085 0.0197648 0.109975 -0.993738 
-0.117002 0.0892467 -0.989113 -0.169724 0.0708966 -0.982938 -0.112248 0.0916941 -0.989441 
-0.0132502 0.120417 -0.992635 -0.0749211 0.119701 -0.989979 0.284428 0.104049 -0.953034 
0.181063 0.0936778 -0.979 0.0473721 0.0811463 -0.995576 -0.0221873 0.0748658 -0.996947 
0.06912 0.06196 -0.995682 0.00798533 -0.063627 -0.997942 0.00597399 0.0649457 -0.997871 
0.0106081 -0.0170049 -0.999799 -0.164843 -0.0192821 -0.986131 -0.0596281 0.11973 -0.991014 
-0.0185271 0.130951 -0.991216 -0.16405 0.0784176 -0.98333 -0.0854774 0.101128 -0.991195 
0.308063 -0.0285734 -0.950937 0.180449 0.0202707 -0.983375 0.0512084 0.0289071 -0.99827 
-0.0368799 0.0497468 -0.998081 -0.0165665 0.0618944 -0.997945 0.0412018 -0.0326083 -0.998619 
0.00175234 0.0346829 -0.999397 -0.0625927 -0.0807246 -0.994769 -0.0241005 -0.00338322 -0.999704 
0.020295 0.0779508 -0.996751 -0.0290484 0.0661636 -0.997386 -0.227052 -0.0486671 -0.972666 
-0.130727 -0.00108939 -0.991418 0.369437 -0.13697 -0.919106 0.255254 -0.282774 -0.9246 
0.241222 -0.110444 -0.964165 0.0889543 -0.0759409 -0.993137 0.00949917 0.0187473 -0.999779 
-0.01407 0.0487698 -0.998711 -0.0206733 0.0121334 -0.999713 -0.0410005 -0.0293999 -0.998726 
-0.0415331 -0.0280989 -0.998742 0.0052766 -0.00742439 -0.999959 0.0064935 -0.0410708 -0.999135 
-0.0921237 -0.106275 -0.99006 -0.242352 -0.171485 -0.954913 -0.211999 -0.232627 -0.949179 
-0.208135 -0.161498 -0.964675 0.24336 -0.298348 -0.922911 0.225159 -0.355252 -0.907248 
0.196212 -0.234339 -0.952148 0.0808969 -0.156216 -0.984405 -0.0238014 -0.152612 -0.987999 
-0.0360305 -0.16264 -0.986027 -0.0365562 -0.416602 -0.908354 -0.0384954 -0.164851 -0.985567 
-0.0595457 -0.380592 -0.922824 -0.0387943 -0.15995 -0.986362 -0.0611173 -0.361259 -0.93046 
-0.0362855 -0.184814 -0.982103 -0.115403 -0.365949 -0.923452 -0.0841407 -0.24205 -0.966609 
-0.167176 -0.359733 -0.917957 -0.166577 -0.362354 -0.917034 -0.165375 -0.358485 -0.918771 
0.130568 -0.474727 -0.870394 0.0935923 -0.501846 -0.859878 0.0910875 -0.462557 -0.881898 
-0.0224178 -0.46698 -0.883984 -0.0228231 -0.451828 -0.891813 -0.0284213 -0.430503 -0.902142 
-0.0198705 -0.438721 -0.898404 -0.0204014 -0.430826 -0.902204 
