# vtk DataFile Version 4.2
vtk output
ASCII
DATASET POLYDATA
POINTS 510 float
-25.3775 -30.5592 -17.2705 -17.639 -30.5592 -18.0638 -9.90047 -30.5592 -18.3505 
-2.16197 -30.5592 -18.9951 5.57654 -30.5592 -19.4886 13.315 -30.5592 -19.6508 
21.0535 -30.5592 -18.4978 -33.116 -22.8207 -19.5704 -25.3775 -22.8207 -20.9338 
-17.639 -22.8207 -20.8452 -9.90047 -22.8207 -20.7356 -2.16197 -22.8207 -20.9066 
5.57654 -22.8207 -21.6392 13.315 -22.8207 -21.9738 21.0535 -22.8207 -21.6427 
28.792 -22.8207 -20.774 36.5305 -22.8207 -17.5942 -40.8545 -15.0821 -18.5099 
-33.116 -15.0821 -21.7867 -25.3775 -15.0821 -22.501 -17.639 -15.0821 -22.0881 
-9.90047 -15.0821 -21.5097 -2.16197 -15.0821 -22.199 5.57654 -15.0821 -23.1873 
13.315 -15.0821 -23.3061 21.0535 -15.0821 -23.2823 28.792 -15.0821 -22.8999 
36.5305 -15.0821 -20.8106 -40.8545 -7.34365 -20.2898 -33.116 -7.34365 -23.2505 
-25.3775 -7.34365 -23.0125 -17.639 -7.34365 -22.54 -9.90047 -7.34365 -22.4806 
-2.16197 -7.34365 -23.6247 5.57654 -7.34365 -24.4483 13.315 -7.34365 -23.8861 
21.0535 -7.34365 -23.7084 28.792 -7.34365 -23.7419 36.5305 -7.34365 -22.5331 
44.269 -7.34365 -18.1867 -40.8545 0.394857 -21.0431 -33.116 0.394857 -23.0585 
-25.3775 0.394857 -23.3291 -17.639 0.394857 -22.9022 -9.90047 0.394857 -23.7749 
-2.16197 0.394857 -24.7359 5.57654 0.394857 -24.4824 13.315 0.394857 -22.9155 
21.0535 0.394857 -22.9178 28.792 0.394857 -23.6082 36.5305 0.394857 -22.7484 
44.269 0.394857 -19.3392 -40.8545 8.13336 -20.4286 -33.116 8.13336 -23.3344 
-25.3775 8.13336 -23.221 -17.639 8.13336 -22.7745 -9.90047 8.13336 -22.7094 
-2.16197 8.13336 -23.49 5.57654 8.13336 -23.1965 13.315 8.13336 -22.1275 
21.0535 8.13336 -22.6942 28.792 8.13336 -23.1463 36.5305 8.13336 -22.3328 
44.269 8.13336 -19.1778 -40.8545 15.8719 -18.714 -33.116 15.8719 -21.9412 
-25.3775 15.8719 -22.8363 -17.639 15.8719 -22.363 -9.90047 15.8719 -21.3836 
-2.16197 15.8719 -21.2521 5.57654 15.8719 -22.25 13.315 15.8719 -22.8145 
21.0535 15.8719 -23.0433 28.792 15.8719 -23.0608 36.5305 15.8719 -21.6022 
44.269 15.8719 -17.7932 -33.116 23.6104 -20.135 -25.3775 23.6104 -21.7753 
-17.639 23.6104 -21.7642 -9.90047 23.6104 -21.6622 -2.16197 23.6104 -21.3239 
5.57654 23.6104 -22.1369 13.315 23.6104 -23.0983 21.0535 23.6104 -23.0282 
28.792 23.6104 -22.1745 36.5305 23.6104 -20.0934 -25.3775 31.3489 -19.2059 
-17.639 31.3489 -20.5798 -9.90047 31.3489 -20.7722 -2.16197 31.3489 -21.245 
5.57654 31.3489 -21.7568 13.315 31.3489 -21.7744 21.0535 31.3489 -21.0628 
28.792 31.3489 -19.2871 -9.90047 39.0874 -17.7021 -2.16197 39.0874 -18.1867 
5.57654 39.0874 -18.0952 13.315 39.0874 -17.4092 -25.3775 -30.8439 -17.0382 
-17.639 -32.0915 -17.0382 -17.639 -38.2977 -10.942 -9.90047 -33.0483 -17.0382 
-9.90047 -38.2977 -13.3155 -2.16197 -34.5817 -17.0382 -2.16197 -38.2977 -14.7265 
5.57654 -35.3822 -17.0382 5.57654 -38.2977 -15.1205 13.315 -34.9974 -17.0382 
13.315 -38.2977 -14.224 21.0535 -32.8116 -17.0382 21.0535 -38.2977 -11.9124 
-25.9692 -30.5592 -17.0382 -33.116 -26.37 -17.0382 -33.116 -30.5592 -12.1826 
27.153 -30.5592 -17.0382 28.792 -29.8663 -17.0382 28.792 -30.5592 -16.4943 
36.5305 -23.6839 -17.0382 36.5305 -30.5592 -10.3211 -36.9066 -22.8207 -17.0382 
-40.8545 -17.9227 -17.0382 -40.8545 -22.8207 -11.57 37.3042 -22.8207 -17.0382 
-42.4567 -15.0821 -17.0382 42.2041 -15.0821 -17.0382 44.269 -10.5799 -17.0382 
44.269 -15.0821 -14.0479 -44.4495 -7.34365 -17.0382 45.3918 -7.34365 -17.0382 
-45.3854 0.394857 -17.0382 -48.593 0.394857 -10.0947 46.7348 0.394857 -17.0382 
-44.5377 8.13336 -17.0382 46.6789 8.13336 -17.0382 -42.6344 15.8719 -17.0382 
-40.8545 19.3801 -17.0382 45.1084 15.8719 -17.0382 44.269 17.6145 -17.0382 
-37.7763 23.6104 -17.0382 -40.8545 23.6104 -12.7444 -33.116 29.3639 -17.0382 
40.8172 23.6104 -17.0382 36.5305 28.5068 -17.0382 44.269 23.6104 -11.5967 
-30.5841 31.3489 -17.0382 -33.116 31.3489 -15.3409 -25.3775 34.7631 -17.0382 
-17.639 38.9034 -17.0382 21.0535 36.9472 -17.0382 32.9696 31.3489 -17.0382 
28.792 33.7377 -17.0382 36.5305 31.3489 -11.8377 -25.3775 39.0874 -12.3541 
-16.5718 39.0874 -17.0382 -17.639 39.0874 -16.8917 -9.90047 39.9486 -17.0382 
-2.16197 40.521 -17.0382 5.57654 40.3023 -17.0382 14.6528 39.0874 -17.0382 
13.315 39.4624 -17.0382 21.0535 39.0874 -13.529 -17.639 -39.4555 -9.29968 
-9.90047 -41.5245 -9.29968 -2.16197 -42.826 -9.29968 5.57654 -42.9988 -9.29968 
13.315 -42.074 -9.29968 21.0535 -40.1383 -9.29968 -33.116 -32.2184 -9.29968 
-20.6963 -38.2977 -9.29968 -25.3775 -36.4598 -9.29968 -25.3775 -38.2977 -1.57346 
25.4933 -38.2977 -9.29968 28.792 -36.7034 -9.29968 28.792 -38.2977 -3.66327 
36.5305 -31.2771 -9.29968 -35.1844 -30.5592 -9.29968 -40.8545 -24.2425 -9.29968 
37.2342 -30.5592 -9.29968 -41.9305 -22.8207 -9.29968 42.6823 -22.8207 -9.29968 
44.269 -19.8014 -9.29968 -46.0246 -15.0821 -9.29968 46.436 -15.0821 -9.29968 
-48.0005 -7.34365 -9.29968 -48.593 -1.91619 -9.29968 48.9562 -7.34365 -9.29968 
-48.8566 0.394857 -9.29968 -48.593 2.52082 -9.29968 50.2234 0.394857 -9.29968 
-47.9347 8.13336 -9.29968 50.3964 8.13336 -9.29968 -46.0385 15.8719 -9.29968 
48.9071 15.8719 -9.29968 -42.439 23.6104 -9.29968 -40.8545 26.1241 -9.29968 
45.28 23.6104 -9.29968 44.269 24.9358 -9.29968 -37.1954 31.3489 -9.29968 
-33.116 35.3864 -9.29968 28.792 36.9655 -9.29968 37.6675 31.3489 -9.29968 
36.5305 32.2571 -9.29968 -28.0267 39.0874 -9.29968 -25.3775 40.7759 -9.29968 
-17.639 44.1696 -9.29968 -9.90047 45.9322 -9.29968 -2.16197 46.3518 -9.29968 
5.57654 45.3986 -9.29968 13.315 43.3235 -9.29968 24.5975 39.0874 -9.29968 
21.0535 40.8525 -9.29968 -2.16197 46.8259 -3.61018 -25.3775 -38.3004 -1.56118 
-17.639 -41.8932 -1.56118 -9.90047 -44.4019 -1.56118 -2.16197 -45.647 -1.56118 
5.57654 -45.6235 -1.56118 13.315 -44.5215 -1.56118 21.0535 -42.3235 -1.56118 
28.792 -38.7993 -1.56118 -25.3819 -38.2977 -1.56118 -33.116 -32.9479 -1.56118 
-25.3775 -38.2977 -1.43929 29.561 -38.2977 -1.56118 28.792 -38.2977 2.4212 
36.5305 -32.8163 -1.56118 -35.8406 -30.5592 -1.56118 -40.8545 -24.7501 -1.56118 
38.5927 -30.5592 -1.56118 -42.2286 -22.8207 -1.56118 -40.8545 -22.8207 5.5983 
43.4563 -22.8207 -1.56118 44.269 -21.0985 -1.56118 -46.0189 -15.0821 -1.56118 
46.8831 -15.0821 -1.56118 -48.0959 -7.34365 -1.56118 -48.593 -3.02075 -1.56118 
48.9235 -7.34365 -1.56118 -48.9857 0.394857 -1.56118 -48.593 3.68365 -1.56118 
-48.593 0.394857 1.25202 50.0315 0.394857 -1.56118 -48.0616 8.13336 -1.56118 
50.2155 8.13336 -1.56118 -46.046 15.8719 -1.56118 48.6935 15.8719 -1.56118 
-42.7001 23.6104 -1.56118 -40.8545 26.6039 -1.56118 44.844 23.6104 -1.56118 
44.269 24.3756 -1.56118 44.269 23.6104 0.0689314 -37.4093 31.3489 -1.56118 
-33.116 35.6386 -1.56118 28.792 37.0209 -1.56118 37.4319 31.3489 -1.56118 
36.5305 32.0839 -1.56118 36.5305 31.3489 1.17624 -28.7044 39.0874 -1.56118 
-25.3775 41.2332 -1.56118 -25.3775 39.0874 5.95975 -17.639 44.6963 -1.56118 
-9.90047 46.5226 -1.56118 5.57654 45.9945 -1.56118 13.315 43.76 -1.56118 
24.5888 39.0874 -1.56118 21.0535 40.7902 -1.56118 -4.86068 46.8259 -1.56118 
-0.901431 46.8259 -1.56118 -2.16197 46.9852 -1.56118 -2.16197 46.8259 -0.892553 
-17.639 -42.2816 6.17733 -9.90047 -44.9328 6.17733 -2.16197 -46.0079 6.17733 
5.57654 -45.636 6.17733 13.315 -44.2421 6.17733 21.0535 -41.6814 6.17733 
-33.116 -32.0317 6.17733 -25.0666 -38.2977 6.17733 -25.3775 -38.1124 6.17733 
27.8651 -38.2977 6.17733 28.792 -37.7444 6.17733 36.5305 -31.1793 6.17733 
-34.6256 -30.5592 6.17733 -33.116 -30.5592 10.2328 37.0794 -30.5592 6.17733 
36.5305 -30.5592 7.17557 -40.7413 -22.8207 6.17733 -40.8545 -22.6177 6.17733 
41.919 -22.8207 6.17733 44.269 -17.5852 6.17733 -44.6668 -15.0821 6.17733 
45.2854 -15.0821 6.17733 44.269 -15.0821 8.37669 -46.97 -7.34365 6.17733 
47.0595 -7.34365 6.17733 44.269 -7.34365 11.8229 -47.8768 0.394857 6.17733 
47.9844 0.394857 6.17733 44.269 0.394857 13.0817 -47.059 8.13336 6.17733 
47.7778 8.13336 6.17733 44.269 8.13336 12.0941 -44.7648 15.8719 6.17733 
45.9419 15.8719 6.17733 44.269 19.1658 6.17733 44.269 15.8719 8.85095 
-40.8858 23.6104 6.17733 -40.8545 23.6602 6.17733 -40.8545 23.6104 6.24481 
41.5942 23.6104 6.17733 36.5305 29.5203 6.17733 36.5305 23.6104 13.0096 
-34.9347 31.3489 6.17733 -33.116 33.1271 6.17733 -33.116 31.3489 8.94276 
-25.3775 39.0146 6.17733 34.45 31.3489 6.17733 28.792 35.2139 6.17733 
28.792 31.3489 12.7939 -25.2306 39.0874 6.17733 -17.639 42.4429 6.17733 
-17.639 39.0874 12.0125 -9.90047 44.3537 6.17733 -2.16197 45.0099 6.17733 
5.57654 44.4078 6.17733 13.315 42.4923 6.17733 13.315 39.0874 13.4863 
21.8623 39.0874 6.17733 21.0535 39.4983 6.17733 21.0535 39.0874 7.09945 
-17.639 -40.6288 13.9158 -9.90047 -43.2179 13.9158 -2.16197 -44.136 13.9158 
5.57654 -43.5169 13.9158 13.315 -41.5379 13.9158 21.0535 -38.4815 13.9158 
-21.8026 -38.2977 13.9158 -25.3775 -35.951 13.9158 -17.639 -38.2977 17.5035 
-9.90047 -38.2977 21.0283 5.57654 -38.2977 21.2435 13.315 -38.2977 18.3144 
21.3884 -38.2977 13.9158 21.0535 -38.2977 14.1549 28.792 -33.0051 13.9158 
-31.6167 -30.5592 13.9158 -33.116 -28.941 13.9158 -25.3775 -30.5592 20.3426 
21.0535 -30.5592 20.5112 31.4908 -30.5592 13.9158 28.792 -30.5592 16.004 
36.5305 -24.1317 13.9158 -37.8588 -22.8207 13.9158 -40.8545 -17.741 13.9158 
-33.116 -22.8207 19.6519 28.792 -22.8207 19.688 37.3178 -22.8207 13.9158 
36.5305 -22.8207 14.6896 -42.2204 -15.0821 13.9158 -40.8545 -15.0821 15.9274 
28.792 -15.0821 21.3533 40.8221 -15.0821 13.9158 36.5305 -15.0821 17.6491 
-44.5478 -7.34365 13.9158 -40.8545 -7.34365 19.0024 28.792 -7.34365 21.5437 
42.9235 -7.34365 13.9158 36.5305 -7.34365 19.2584 -45.3467 0.394857 13.9158 
-40.8545 0.394857 19.6195 13.315 0.394857 21.2863 28.792 0.394857 21.4122 
43.6606 0.394857 13.9158 36.5305 0.394857 19.5071 -44.4236 8.13336 13.9158 
-40.8545 8.13336 18.386 13.315 8.13336 21.0311 21.0535 8.13336 21.1391 
28.792 8.13336 20.7992 42.7748 8.13336 13.9158 36.5305 8.13336 18.5803 
-41.6629 15.8719 13.9158 -40.8545 17.3165 13.9158 -40.8545 15.8719 14.8999 
-33.116 15.8719 19.8503 -25.3775 15.8719 21.4968 21.0535 15.8719 21.1481 
[...]
POINT_DATA 510
SCALARS ImageScalars float
LOOKUP_TABLE default
0 0 0 0 0 0 0 0 0 
0 0 0 0 0 0 0 0 0 
0 0 0 0 0 0 0 0 0 
0 0 0 0 0 0 0 0 0 
0 0 0 0 0 0 0 0 0 
0 0 0 0 0 0 0 0 0 
0 0 0 0 0 0 0 0 0 
0 0 0 0 0 0 0 0 0 
0 0 0 0 0 0 0 0 0 
0 0 0 0 0 0 0 0 0 
0 0 0 0 0 0 0 0 0 
0 0 0 0 0 0 0 0 0 
0 0 0 0 0 0 0 0 0 
0 0 0 0 0 0 0 0 0 
0 0 0 0 0 0 0 0 0 
0 0 0 0 0 0 0 0 0 
0 0 0 0 0 0 0 0 0 
0 0 0 0 0 0 0 0 0 
0 0 0 0 0 0 0 0 0 
0 0 0 0 0 0 0 0 0 
0 0 0 0 0 0 0 0 0 
0 0 0 0 0 0 0 0 0 
0 0 0 0 0 0 0 0 0 
0 0 0 0 0 0 0 0 0 
0 0 0 0 0 0 0 0 0 
0 0 0 0 0 0 0 0 0 
0 0 0 0 0 0 0 0 0 
0 0 0 0 0 0 0 0 0 
0 0 0 0 0 0 0 0 0 
0 0 0 0 0 0 0 0 0 
0 0 0 0 0 0 0 0 0 
0 0 0 0 0 0 0 0 0 
0 0 0 0 0 0 0 0 0 
0 0 0 0 0 0 0 0 0 
0 0 0 0 0 0 0 0 0 
0 0 0 0 0 0 0 0 0 
0 0 0 0 0 0 0 0 0 
0 0 0 0 0 0 0 0 0 
0 0 0 0 0 0 0 0 0 
0 0 0 0 0 0 0 0 0 
0 0 0 0 0 0 0 0 0 
0 0 0 0 0 0 0 0 0 
0 0 0 0 0 0 0 0 0 
0 0 0 0 0 0 0 0 0 
0 0 0 0 0 0 0 0 0 
0 0 0 0 0 0 0 0 0 
0 0 0 0 0 0 0 0 0 
0 0 0 0 0 0 0 0 0 
0 0 0 0 0 0 0 0 0 
0 0 0 0 0 0 0 0 0 
0 0 0 0 0 0 0 0 0 
0 0 0 0 0 0 0 0 0 
0 0 0 0 0 0 0 0 0 
0 0 0 0 0 0 0 0 0 
0 0 0 0 0 0 0 0 0 
0 0 0 0 0 0 0 0 0 
0 0 0 0 0 0 
NORMALS Normals float
0.222638 0.595175 0.772139 0.0625978 0.479053 0.875551 0.0551011 0.390822 0.918815 
0.0679365 0.3413 0.937496 0.0395537 0.361233 0.931636 -0.0572086 0.404977 0.912536 
-0.174177 0.483245 0.857984 0.358987 0.437587 0.824406 0.0666756 0.309537 0.948547 
-0.0121123 0.237754 0.97125 0.00391974 0.190515 0.981676 0.0563587 0.192427 0.979692 
0.0668978 0.223829 0.97233 -0.000198695 0.229461 0.973318 -0.0733592 0.284148 0.95597 
-0.222425 0.361816 0.905327 -0.502812 0.462192 0.730451 0.593887 0.317657 0.739184 
0.227656 0.208354 0.95119 0.0168059 0.127898 0.991645 -0.0633564 0.106755 0.992265 
0.00588438 0.110459 0.993863 0.107997 0.171975 0.979164 0.06926 0.177469 0.981686 
0.00602478 0.11973 0.992788 -0.0261455 0.131742 0.990939 -0.144456 0.183119 0.97242 
-0.39697 0.286003 0.872134 0.525938 0.142438 0.838511 0.136871 0.0751802 0.987732 
-0.0446404 0.0528566 0.997604 -0.0343212 0.0524472 0.998034 0.0682704 0.14616 0.986902 
0.126678 0.161468 0.978714 0.0151578 0.0820867 0.99651 -0.0478152 -0.0247407 0.99855 
-0.00931087 -0.023646 0.999677 -0.0752381 0.0459679 0.996105 -0.296014 0.114071 0.948348 
-0.694131 0.20505 0.690027 0.494463 0.00774043 0.869164 0.11912 0.00483305 0.992868 
-0.00932435 0.0134401 0.999866 0.0278948 0.0150822 0.999497 0.11983 0.0151286 0.992679 
0.0451032 -0.00539043 0.998968 -0.116494 -0.0799409 0.989969 -0.10106 -0.115422 0.988162 
0.0445859 -0.0655962 0.99685 -0.00888953 -0.038466 0.99922 -0.242453 -0.012207 0.970086 
-0.613686 0.052149 0.787826 0.527014 -0.131031 0.839695 0.141803 -0.0651601 0.987748 
-0.0354821 -0.0315511 0.998872 -0.0331079 -0.0348694 0.998843 0.0436912 -0.155516 0.986867 
0.0320513 -0.232028 0.972181 -0.0878897 -0.144595 0.98558 -0.0313341 -0.00573744 0.999493 
0.0660029 0.00819312 0.997786 -0.0211473 -0.0355732 0.999143 -0.228865 -0.0737284 0.970662 
-0.589179 -0.0890223 0.803084 0.599728 -0.297505 0.742844 0.236677 -0.183879 0.95403 
0.0235976 -0.0899145 0.99567 -0.0920567 -0.0646388 0.993654 -0.0719959 -0.0668619 0.995161 
0.05566 -0.129069 0.990072 0.100504 -0.0674176 0.99265 0.0509727 0.0634501 0.996682 
0.0159641 0.0215897 0.999639 -0.0901032 -0.0581782 0.994232 -0.30125 -0.129639 0.944692 
-0.652051 -0.264078 0.710698 0.375479 -0.343524 0.860817 0.0882799 -0.211204 0.973447 
-0.00723291 -0.117247 0.993076 -0.0285513 -0.0374576 0.99889 0.0306334 -0.000173681 0.999531 
0.118723 -0.0298716 0.992478 0.0560152 -0.0572885 0.996785 -0.0571316 -0.11722 0.991461 
-0.177048 -0.217611 0.959844 -0.428834 -0.37336 0.82262 0.271646 -0.432862 0.859557 
0.0843543 -0.278697 0.956667 0.0418692 -0.224355 0.973608 0.0597157 -0.167165 0.984119 
0.0323991 -0.218172 0.975372 -0.0433407 -0.33139 0.942498 -0.143017 -0.428297 0.892249 
-0.333722 -0.564319 0.755098 0.0729934 -0.533881 0.842403 0.0224386 -0.527099 0.849507 
-0.0425808 -0.591891 0.804892 -0.155821 -0.694295 0.702619 0.2275 0.607037 0.761413 
0.0891122 0.531865 0.842127 0.261556 0.81441 0.518 0.0825464 0.468019 0.879855 
0.165208 0.70674 0.687914 0.074018 0.474991 0.876872 0.0836782 0.646364 0.758427 
0.0091395 0.517956 0.855358 -0.0213162 0.653422 0.756694 -0.0948642 0.554736 0.8266 
-0.137575 0.719591 0.680634 -0.196056 0.548534 0.812818 -0.273107 0.784145 0.557251 
0.241522 0.605581 0.758247 0.418014 0.569035 0.708141 0.524185 0.743838 0.41465 
-0.293728 0.56022 0.774517 -0.31749 0.55966 0.765494 -0.333103 0.588065 0.737036 
-0.514747 0.484993 0.706977 -0.645837 0.661746 0.380771 0.530034 0.501555 0.683744 
0.636437 0.394497 0.662813 0.758041 0.567566 0.321314 -0.535111 0.471522 0.700944 
0.680887 0.322403 0.657609 -0.665307 0.341917 0.663671 -0.725169 0.267111 0.634651 
-0.80752 0.364282 0.463908 0.747191 0.155098 0.646258 -0.741693 0.214737 0.635436 
0.767129 0.00381354 0.641481 0.977969 -0.00430212 0.208708 -0.735642 0.0720585 0.673527 
0.756698 -0.148009 0.63679 -0.707436 -0.0862922 0.70149 0.697814 -0.30441 0.648375 
0.657042 -0.372432 0.655431 -0.686967 -0.276458 0.672047 -0.683363 -0.320246 0.656093 
0.586415 -0.429888 0.686523 0.780484 -0.494601 0.38238 0.468635 -0.507747 0.722893 
-0.625193 -0.45356 0.635151 -0.526462 -0.591564 0.610647 -0.797956 -0.534074 0.27934 
0.425885 -0.521957 0.739041 0.532946 -0.591741 0.604823 0.337156 -0.553776 0.761353 
0.190876 -0.588596 0.785571 -0.261896 -0.715742 0.647398 -0.463219 -0.65469 0.597335 
-0.381632 -0.695171 0.609175 -0.598142 -0.756674 0.263952 0.447704 -0.782779 0.432225 
0.175922 -0.588892 0.788833 0.195706 -0.601822 0.77428 0.0702339 -0.574576 0.815432 
0.0147635 -0.602614 0.797896 -0.0558517 -0.655282 0.753317 -0.182604 -0.718087 0.67157 
-0.162447 -0.713278 0.681796 -0.341162 -0.849764 0.401882 0.285014 0.849087 0.444768 
0.192953 0.843399 0.501445 0.0838476 0.861479 0.500822 -0.0437066 0.876329 0.479726 
-0.167168 0.873306 0.457594 -0.294706 0.851771 0.433167 0.554613 0.78742 0.269025 
0.329735 0.850519 0.409746 0.394114 0.84829 0.353665 0.48754 0.868532 0.0892015 
-0.388544 0.825606 0.409157 -0.45605 0.799785 0.390335 -0.499865 0.855145 0.137338 
-0.652348 0.677137 0.340481 0.60979 0.750946 0.253448 0.77553 0.596676 0.206231 
-0.672777 0.659268 0.335763 0.799778 0.565291 0.201992 -0.828446 0.499623 0.253088 
-0.865274 0.445836 0.229197 0.923246 0.342665 0.173773 -0.90255 0.371118 0.218345 
0.970147 0.175153 0.167736 0.984611 0.0498735 0.167495 -0.957848 0.226437 0.176786 
0.985367 -0.00486607 0.170377 0.984598 -0.0529504 0.166621 -0.982746 0.0910635 0.16099 
0.970744 -0.17524 0.164156 -0.982523 -0.0755061 0.170138 0.932416 -0.319315 0.169229 
-0.931712 -0.317865 0.175711 0.846134 -0.494669 0.198393 0.818737 -0.538539 0.199111 
-0.825196 -0.540872 0.162815 -0.801574 -0.575667 0.161515 0.733558 -0.643852 0.217595 
0.634935 -0.738859 0.225709 -0.462464 -0.872874 0.155622 -0.628483 -0.766354 0.133083 
-0.600691 -0.788169 0.134016 0.524623 -0.815412 0.244694 0.471044 -0.84452 0.254762 
0.306667 -0.916428 0.257128 0.13117 -0.947169 0.292686 -0.0328272 -0.956428 0.290117 
-0.188088 -0.943055 0.274353 -0.281419 -0.932957 0.224489 -0.41964 -0.892539 0.165158 
-0.379292 -0.907189 0.182058 -0.033779 -0.999331 0.01403 0.487644 0.868514 0.0888127 
0.364617 0.917486 0.158976 0.226716 0.954879 0.191848 0.0750344 0.981064 0.17856 
-0.069915 0.986426 0.14858 -0.208511 0.970396 0.121879 -0.338645 0.936976 0.0859926 
-0.504734 0.861781 0.0507664 0.487716 0.868477 0.088777 0.627741 0.778418 -0.0026545 
0.488542 0.868328 0.0856344 -0.522649 0.851146 0.0488789 -0.520803 0.847569 -0.101936 
-0.712947 0.701205 0.0041229 0.682751 0.730162 -0.0267098 0.815787 0.575644 -0.0559113 
-0.767053 0.641548 -0.00678067 0.845221 0.530562 -0.064081 0.830411 0.514565 -0.213637 
-0.886265 0.460996 -0.044914 -0.901582 0.429492 -0.0518244 0.937046 0.339916 -0.0800182 
-0.943336 0.324208 -0.0707554 0.981426 0.18139 -0.0624503 0.995005 0.0790614 -0.060949 
-0.972772 0.2023 -0.113088 0.998104 -0.00221629 -0.061516 0.995329 -0.0782567 -0.0565301 
0.993191 0.000618909 -0.116494 -0.987752 0.0805978 -0.133603 0.982149 -0.180559 -0.0527398 
-0.985064 -0.0812494 -0.151811 0.945468 -0.317011 -0.0748019 -0.932679 -0.321024 -0.164481 
0.879557 -0.468438 -0.0833407 0.842813 -0.531714 -0.0833426 -0.813377 -0.554227 -0.176777 
-0.800007 -0.573727 -0.17557 -0.802111 -0.552696 -0.226154 0.749311 -0.654845 -0.0985402 
0.658325 -0.746029 -0.100243 -0.480444 -0.872668 -0.087322 -0.628348 -0.768281 -0.122163 
-0.608506 -0.784632 -0.118632 -0.620747 -0.757913 -0.200601 0.556632 -0.825523 -0.0931261 
0.484359 -0.869907 -0.0930481 0.4623 -0.812585 -0.354942 0.318558 -0.943217 -0.0941389 
0.139451 -0.985958 -0.091873 -0.19951 -0.978146 -0.058534 -0.3193 -0.946462 -0.047519 
-0.43561 -0.896817 -0.0772206 -0.402151 -0.9124 -0.0761601 0.0259599 -0.996109 -0.084225 
-0.060289 -0.995241 -0.0765483 -0.0335949 -0.996261 -0.0795949 -0.0307834 -0.994247 -0.102592 
0.396388 0.915249 -0.0720811 0.225325 0.971957 -0.0672895 0.0434149 0.995221 -0.0874625 
-0.108346 0.986613 -0.121887 -0.244656 0.954746 -0.169124 -0.369876 0.905488 -0.208046 
0.672776 0.71911 -0.173937 0.528998 0.840955 -0.113826 0.535344 0.836584 -0.116339 
-0.504611 0.827955 -0.244659 -0.526565 0.811724 -0.252652 -0.717243 0.63217 -0.293127 
0.699937 0.689768 -0.185224 0.680882 0.672736 -0.289526 -0.73127 0.615284 -0.294397 
-0.717425 0.613805 -0.329463 0.8282 0.512902 -0.225867 0.830961 0.508413 -0.225876 
-0.84878 0.430076 -0.307581 -0.890225 0.334444 -0.309269 0.909262 0.351517 -0.222885 
-0.9039 0.292626 -0.311986 -0.873096 0.291141 -0.391075 0.958653 0.189281 -0.212503 
-0.927722 0.166629 -0.334016 -0.837861 0.143171 -0.526774 0.976144 0.00552808 -0.217054 
-0.930341 0.0434972 -0.364108 -0.799003 0.00340016 -0.601318 0.959589 -0.182847 -0.213907 
-0.903299 -0.11561 -0.41314 -0.785432 -0.147028 -0.601231 0.903781 -0.349665 -0.246808 
-0.839699 -0.325548 -0.434655 -0.804376 -0.409362 -0.430583 -0.793142 -0.325458 -0.514784 
0.818197 -0.492644 -0.296405 0.817576 -0.493556 -0.296602 0.81721 -0.493017 -0.298498 
-0.741555 -0.526962 -0.415218 -0.638357 -0.674529 -0.370824 -0.619435 -0.475714 -0.624497 
0.671765 -0.659338 -0.337646 0.634122 -0.693528 -0.341919 0.618131 -0.658123 -0.42987 
0.461305 -0.809666 -0.362821 -0.593289 -0.724675 -0.350507 -0.508465 -0.804392 -0.307272 
-0.51338 -0.639023 -0.572792 0.458108 -0.811431 -0.362927 0.302273 -0.876646 -0.37433 
0.28562 -0.771993 -0.567845 0.145801 -0.912786 -0.381529 0.00235673 -0.931138 -0.36466 
-0.148779 -0.934773 -0.322591 -0.28551 -0.9183 -0.274242 -0.24234 -0.784375 -0.570987 
-0.413899 -0.868612 -0.272398 -0.403221 -0.873862 -0.27162 -0.401299 -0.864171 -0.303593 
0.387476 0.849133 -0.358936 0.20796 0.904721 -0.371796 0.0178057 0.921767 -0.387335 
-0.148964 0.90299 -0.403012 -0.281855 0.842903 -0.458335 -0.400987 0.75895 -0.513034 
0.474092 0.804563 -0.357653 0.550308 0.749282 -0.368424 0.370503 0.755408 -0.540451 
0.174278 0.645627 -0.7435 -0.151508 0.640207 -0.753114 -0.296324 0.712379 -0.636167 
-0.406941 0.754684 -0.514637 -0.401475 0.75219 -0.522521 -0.534274 0.604955 -0.590407 
0.654818 0.64384 -0.395833 0.678342 0.612918 -0.405196 0.471568 0.522233 -0.71056 
-0.413949 0.394422 -0.820413 -0.57915 0.547719 -0.603813 -0.521171 0.513187 -0.681924 
-0.661037 0.411409 -0.627514 0.753163 0.498884 -0.42879 0.806814 0.408116 -0.427192 
0.588407 0.411069 -0.696275 -0.424825 0.274546 -0.86264 -0.674695 0.384611 -0.629969 
-0.649758 0.376328 -0.660448 0.828341 0.356385 -0.43225 0.780543 0.348033 -0.519255 
-0.286574 0.104998 -0.952287 -0.719805 0.272267 -0.638554 -0.551005 0.237457 -0.800005 
0.876969 0.182679 -0.444471 0.707799 0.152634 -0.689727 -0.178362 0.00283193 -0.983961 
-0.768264 0.134227 -0.625902 -0.458398 0.101087 -0.88298 0.882491 -0.00644221 -0.470284 
0.650598 -0.0318371 -0.758754 -0.0441798 -0.105599 -0.993427 -0.130087 -0.0483608 -0.990323 
-0.765789 -0.00324267 -0.643083 -0.415565 -0.0386525 -0.908742 0.847889 -0.210995 -0.48638 
0.650414 -0.222342 -0.72631 -0.0925342 0.037779 -0.994993 -0.0150423 -0.0406044 -0.999062 
-0.143033 -0.0948836 -0.985159 -0.71171 -0.156259 -0.684874 -0.432407 -0.16456 -0.886535 
0.747653 -0.399138 -0.530758 0.729484 -0.424557 -0.536287 0.713507 -0.402053 -0.573813 
0.338187 -0.317966 -0.885736 0.115198 -0.185638 -0.975842 -0.126904 -0.0372495 -0.991215 
-0.258635 -0.16043 -0.95256 -0.638073 -0.30306 -0.707826 -0.601986 -0.434101 -0.670201 
-0.521676 -0.274297 -0.807846 0.621161 -0.500047 -0.603417 0.557045 -0.553989 -0.618706 
0.506601 -0.46337 -0.727079 0.253736 -0.315876 -0.914243 0.150343 -0.181743 -0.971785 
-0.215587 -0.19018 -0.957786 -0.588133 -0.460326 -0.66498 -0.501413 -0.59154 -0.6314 
-0.381422 -0.353475 -0.85415 0.475596 -0.606629 -0.637032 0.41752 -0.637321 -0.647687 
0.394995 -0.565392 -0.724093 0.274442 -0.706236 -0.652619 0.237882 -0.453632 -0.858854 
0.12535 -0.396119 -0.909603 0.0250079 -0.38699 -0.921745 -0.0736841 -0.379564 -0.922227 
-0.238083 -0.768018 -0.594529 -0.172679 -0.424444 -0.888836 -0.491153 -0.611894 -0.619964 
-0.377978 -0.704002 -0.60126 -0.334132 -0.513266 -0.790515 0.184805 -0.74368 -0.642485 
0.135851 -0.752538 -0.644384 0.135044 -0.731749 -0.668062 0.027044 -0.766467 -0.641714 
0.027923 -0.718149 -0.695329 -0.214121 -0.773875 -0.596045 -0.0889756 -0.77652 -0.623778 
-0.0847506 -0.735538 -0.672162 0.00859896 0.632567 -0.774458 0.290164 0.52229 -0.801884 
0.0444948 0.62856 -0.776487 0.165967 0.595707 -0.785868 -0.0390137 0.629516 -0.776007 
0.00870472 0.626016 -0.779762 -0.148597 0.607852 -0.780022 -0.290278 0.491012 -0.821368 
0.388428 0.467805 -0.793903 0.418874 0.427648 -0.801038 0.252281 0.390299 -0.88545 
0.122823 0.307997 -0.943426 0.0139837 0.271246 -0.962408 -0.114786 0.294199 -0.948826 
-0.367611 0.362115 -0.856583 -0.271991 0.320825 -0.907245 -0.363247 0.251683 -0.897055 
0.47027 0.33388 -0.816927 0.493184 0.283406 -0.822466 0.322439 0.248657 -0.913347 
0.160083 0.14745 -0.976029 0.0715919 0.0862969 -0.993694 0.000774345 0.0571847 -0.998363 
-0.113502 0.0258665 -0.993201 -0.235019 0.0375577 -0.971265 -0.345258 0.173984 -0.92224 
-0.312406 0.124532 -0.94175 0.498564 0.241413 -0.832559 0.451889 0.222261 -0.863943 
0.200645 0.0838936 -0.976065 0.105793 0.027843 -0.993998 0.0230363 0.0240594 -0.999445 
-0.0481954 -0.0555847 -0.99729 -0.133096 -0.150216 -0.979653 -0.189797 -0.138508 -0.972005 
-0.2647 0.0803609 -0.960977 -0.19172 -0.0130423 -0.981363 0.500526 0.112567 -0.858372 
0.316289 0.0592135 -0.946813 0.148932 -0.0348101 -0.988235 0.101582 -0.0858606 -0.991115 
-0.010288 -0.0435759 -0.998997 -0.173554 -0.0803581 -0.98154 -0.199405 -0.207922 -0.957604 
-0.059022 -0.130645 -0.989671 -0.100832 -0.200904 -0.974408 -0.164464 -0.00629163 -0.986363 
-0.0749161 -0.0674209 -0.994908 0.460762 -0.065673 -0.885091 0.254351 -0.0864879 -0.963237 
0.0679096 -0.154483 -0.985659 0.0913732 -0.218667 -0.971512 0.0318086 -0.217255 -0.975596 
-0.213268 -0.0985579 -0.97201 -0.107211 -0.100406 -0.989153 -0.248419 -0.0868094 -0.964755 
-0.00509773 -0.088642 -0.996051 -0.0380129 -0.071252 -0.996734 0.00374663 -0.0745825 -0.997208 
0.00832544 -0.082912 -0.996522 0.291492 -0.240189 -0.925927 0.24701 -0.257723 -0.934112 
0.227411 -0.240745 -0.943571 0.102884 -0.183911 -0.977544 0.0188888 -0.180444 -0.983404 
0.0347736 -0.180244 -0.983007 0.113321 -0.211148 -0.970863 -0.046934 -0.0969141 -0.994186 
-0.143664 0.0336443 -0.989055 -0.220233 0.0239869 -0.975152 -0.106003 0.0453178 -0.993333 
0.0944435 -0.145731 -0.984806 0.0916794 -0.118494 -0.988713 0.0681775 -0.0938105 -0.993253 
0.118941 -0.0751318 -0.990055 0.0173772 -0.0951819 -0.995308 -0.118134 -0.00679812 -0.992974 
-0.11523 0.0228296 -0.993076 -0.109864 0.0483331 -0.992771 0.129149 -0.158213 -0.978922 
0.113216 -0.206804 -0.97181 0.108901 -0.138291 -0.984386 0.0237502 -0.302637 -0.95281 
0.0230908 -0.174384 -0.984407 -0.0711751 -0.250832 -0.96541 -0.0686182 -0.1365 -0.988261 
-0.135844 -0.139239 -0.980897 -0.129131 -0.15118 -0.980036 -0.12738 -0.133606 -0.982814 

