# vtk DataFile Version 4.2
vtk output
ASCII
DATASET POLYDATA
POINTS 552 float
-25.2106 -34.7048 -13.0833 -17.2816 -34.7048 -13.3849 -9.35253 -34.7048 -13.0391 
-1.4235 -34.7048 -12.727 6.50553 -34.7048 -13.0301 14.4346 -34.7048 -13.3085 
22.3636 -34.7048 -13.285 30.2926 -34.7048 -11.8113 38.2217 -34.7048 -11.6991 
-41.0687 -26.7758 -12.7884 -33.1396 -26.7758 -14.4953 -25.2106 -26.7758 -15.6935 
-17.2816 -26.7758 -15.9929 -9.35253 -26.7758 -15.343 -1.4235 -26.7758 -14.574 
6.50553 -26.7758 -15.1118 14.4346 -26.7758 -15.4641 22.3636 -26.7758 -14.8985 
30.2926 -26.7758 -14.087 38.2217 -26.7758 -13.3459 46.1507 -26.7758 -12.6969 
-48.9977 -18.8468 -12.49 -41.0687 -18.8468 -15.3104 -33.1396 -18.8468 -16.6073 
-25.2106 -18.8468 -16.7276 -17.2816 -18.8468 -16.7093 -9.35253 -18.8468 -16.2416 
-1.4235 -18.8468 -15.2382 6.50553 -18.8468 -16.1242 14.4346 -18.8468 -16.1948 
22.3636 -18.8468 -15.5572 30.2926 -18.8468 -15.3427 38.2217 -18.8468 -14.6126 
46.1507 -18.8468 -13.5377 54.0797 -18.8468 -11.7156 -56.9267 -10.9178 -11.3883 
-48.9977 -10.9178 -14.8888 -41.0687 -10.9178 -16.3469 -33.1396 -10.9178 -16.7151 
-25.2106 -10.9178 -16.192 -17.2816 -10.9178 -15.3379 -9.35253 -10.9178 -16.5167 
-1.4235 -10.9178 -17.2707 6.50553 -10.9178 -17.5095 14.4346 -10.9178 -16.7066 
22.3636 -10.9178 -15.9106 30.2926 -10.9178 -16.1435 38.2217 -10.9178 -16.3414 
46.1507 -10.9178 -15.5594 54.0797 -10.9178 -12.2902 -56.9267 -2.98872 -12.3797 
-48.9977 -2.98872 -15.2433 -41.0687 -2.98872 -17.2121 -33.1396 -2.98872 -17.3457 
-25.2106 -2.98872 -16.7014 -17.2816 -2.98872 -15.2042 -9.35253 -2.98872 -18.062 
-1.4235 -2.98872 -15.5827 6.50553 -2.98872 -16.4952 14.4346 -2.98872 -16.9618 
22.3636 -2.98872 -16.2701 30.2926 -2.98872 -16.9256 38.2217 -2.98872 -17.0963 
46.1507 -2.98872 -16.2845 54.0797 -2.98872 -14.2221 -56.9267 4.94031 -11.9902 
-48.9977 4.94031 -14.9918 -41.0687 4.94031 -17.0892 -33.1396 4.94031 -17.4401 
-25.2106 4.94031 -17.0392 -17.2816 4.94031 -16.04 -9.35253 4.94031 -17.0481 
-1.4235 4.94031 -16.7576 6.50553 4.94031 -18.6403 14.4346 4.94031 -15.3743 
22.3636 4.94031 -16.1165 30.2926 4.94031 -17.1286 38.2217 4.94031 -17.5737 
46.1507 4.94031 -16.9807 54.0797 4.94031 -14.695 -48.9977 12.8693 -14.2183 
-41.0687 12.8693 -16.1232 -33.1396 12.8693 -17.0151 -25.2106 12.8693 -16.9656 
-17.2816 12.8693 -16.5264 -9.35253 12.8693 -15.9734 -1.4235 12.8693 -16.2404 
6.50553 12.8693 -16.4613 14.4346 12.8693 -15.5169 22.3636 12.8693 -16.6568 
30.2926 12.8693 -17.7249 38.2217 12.8693 -17.5292 46.1507 12.8693 -16.475 
54.0797 12.8693 -13.8897 -48.9977 20.7984 -12.1262 -41.0687 20.7984 -15.3903 
-33.1396 20.7984 -17.0075 -25.2106 20.7984 -17.2669 -17.2816 20.7984 -17.219 
-9.35253 20.7984 -16.8051 -1.4235 20.7984 -16.3891 6.50553 20.7984 -16.052 
14.4346 20.7984 -16.7528 22.3636 20.7984 -17.0356 30.2926 20.7984 -17.5794 
38.2217 20.7984 -17.6712 46.1507 20.7984 -15.9529 54.0797 20.7984 -13.6956 
-41.0687 28.7274 -13.4065 -33.1396 28.7274 -15.0855 -25.2106 28.7274 -16.4766 
-17.2816 28.7274 -17.0931 -9.35253 28.7274 -17.1524 -1.4235 28.7274 -17.1235 
6.50553 28.7274 -17.1042 14.4346 28.7274 -17.7672 22.3636 28.7274 -17.4477 
30.2926 28.7274 -18.319 38.2217 28.7274 -16.2067 46.1507 28.7274 -14.6234 
-33.1396 36.6564 -11.943 -25.2106 36.6564 -14.2203 -17.2816 36.6564 -15.2601 
-9.35253 36.6564 -16.0846 -1.4235 36.6564 -16.5195 6.50553 36.6564 -16.8473 
14.4346 36.6564 -17.1006 22.3636 36.6564 -17.1794 30.2926 36.6564 -15.7597 
38.2217 36.6564 -14.7711 46.1507 36.6564 -11.5309 -9.35253 44.5855 -12.0499 
-1.4235 44.5855 -14.0032 6.50553 44.5855 -14.9689 14.4346 44.5855 -14.8375 
22.3636 44.5855 -14.0421 30.2926 44.5855 -11.946 -25.2106 -37.5319 -11.3325 
-25.2106 -42.6339 -6.63886 -17.2816 -38.2699 -11.3325 -17.2816 -42.6339 -8.12099 
-9.35253 -37.9909 -11.3325 -9.35253 -42.6339 -8.47927 -1.4235 -37.6151 -11.3325 
-1.4235 -42.6339 -8.527 6.50553 -38.1237 -11.3325 6.50553 -42.6339 -8.62092 
14.4346 -38.4917 -11.3325 14.4346 -42.6339 -8.62264 22.3636 -38.1836 -11.3325 
22.3636 -42.6339 -7.91073 30.2926 -35.6395 -11.3325 30.2926 -42.6339 -6.90705 
38.2217 -35.2609 -11.3325 38.2217 -42.6339 -3.63938 -41.0687 -29.5203 -11.3325 
-41.0687 -34.7048 -7.69216 -32.3176 -34.7048 -11.3325 -33.1396 -34.2242 -11.3325 
-33.1396 -34.7048 -11.0714 39.0786 -34.7048 -11.3325 46.1507 -29.3188 -11.3325 
46.1507 -34.7048 -6.98713 -44.7204 -26.7758 -11.3325 -48.9977 -22.0882 -11.3325 
-48.9977 -26.7758 -9.24235 48.7188 -26.7758 -11.3325 54.0797 -19.7215 -11.3325 
54.0797 -26.7758 -6.88339 -51.1351 -18.8468 -11.3325 -56.9267 -11.0765 -11.3325 
-56.9267 -18.8468 -7.27683 54.6547 -18.8468 -11.3325 -56.9956 -10.9178 -11.3325 
55.8205 -10.9178 -11.3325 62.0087 -10.9178 -6.47492 -58.2649 -2.98872 -11.3325 
59.1624 -2.98872 -11.3325 62.0087 -2.98872 -8.94392 -57.7599 4.94031 -11.3325 
-56.9267 9.54884 -11.3325 59.7676 4.94031 -11.3325 62.0087 4.94031 -9.28681 
-55.6358 12.8693 -11.3325 -56.9267 12.8693 -10.6859 57.9787 12.8693 -11.3325 
62.0087 12.8693 -6.40849 -50.3838 20.7984 -11.3325 -56.9267 20.7984 -6.7026 
-48.9977 23.8834 -11.3325 57.0606 20.7984 -11.3325 54.0797 26.373 -11.3325 
-45.9884 28.7274 -11.3325 -48.9977 28.7274 -9.78626 -41.0687 33.3951 -11.3325 
51.8266 28.7274 -11.3325 54.0797 28.7274 -8.81935 -35.2603 36.6564 -11.3325 
-41.0687 36.6564 -9.16689 -33.1396 37.3809 -11.3325 -25.2106 41.1798 -11.3325 
-17.2816 42.8179 -11.3325 38.2217 41.8082 -11.3325 46.4089 36.6564 -11.3325 
46.1507 36.912 -11.3325 -25.2106 44.5855 -5.35649 -12.3384 44.5855 -11.3325 
-17.2816 44.5855 -9.18902 -9.35253 45.3714 -11.3325 -1.4235 47.9692 -11.3325 
6.50553 49.6198 -11.3325 14.4346 49.7022 -11.3325 22.3636 48.1558 -11.3325 
32.2176 44.5855 -11.3325 30.2926 45.1821 -11.3325 38.2217 44.5855 -4.58221 
-25.2106 -44.8558 -3.40347 -17.2816 -46.56 -3.40347 -9.35253 -47.6576 -3.40347 
-1.4235 -47.9004 -3.40347 -1.4235 -50.5629 4.09164 6.50553 -47.6255 -3.40347 
14.4346 -47.2398 -3.40347 22.3636 -46.3879 -3.40347 30.2926 -45.2107 -3.40347 
38.2217 -42.8259 -3.40347 -41.0687 -38.1519 -3.40347 -31.3595 -42.6339 -3.40347 
-33.1396 -41.8739 -3.40347 -33.1396 -42.6339 0.531264 38.577 -42.6339 -3.40347 
46.1507 -38.1924 -3.40347 -45.9119 -34.7048 -3.40347 -48.9977 -32.3077 -3.40347 
50.3898 -34.7048 -3.40347 54.0797 -30.8815 -3.40347 -54.5258 -26.7758 -3.40347 
-56.9267 -23.5721 -3.40347 57.129 -26.7758 -3.40347 -59.8247 -18.8468 -3.40347 
61.5518 -18.8468 -3.40347 62.0087 -17.7342 -3.40347 -62.8109 -10.9178 -3.40347 
63.989 -10.9178 -3.40347 -64.2947 -2.98872 -3.40347 -64.8557 -2.98872 0.060662 
65.1383 -2.98872 -3.40347 -63.8286 4.94031 -3.40347 -64.8557 4.94031 3.71668 
65.1863 4.94031 -3.40347 -62.7069 12.8693 -3.40347 63.4041 12.8693 -3.40347 
62.0087 17.1973 -3.40347 62.0087 12.8693 1.66936 -59.4358 20.7984 -3.40347 
-56.9267 25.372 -3.40347 60.7402 20.7984 -3.40347 -54.7404 28.7274 -3.40347 
-48.9977 34.9557 -3.40347 56.5101 28.7274 -3.40347 54.0797 31.9305 -3.40347 
54.0797 28.7274 2.64077 -46.853 36.6564 -3.40347 -41.0687 40.5287 -3.40347 
-33.1396 43.407 -3.40347 49.7194 36.6564 -3.40347 46.1507 39.888 -3.40347 
46.1507 36.6564 3.26333 -28.2334 44.5855 -3.40347 -25.2106 45.2902 -3.40347 
-25.2106 44.5855 1.31412 -17.2816 47.2337 -3.40347 -9.35253 49.0452 -3.40347 
-1.4235 50.5997 -3.40347 6.50553 51.3341 -3.40347 14.4346 51.3177 -3.40347 
22.3636 50.1041 -3.40347 30.2926 47.9957 -3.40347 30.2926 44.5855 3.31135 
38.6901 44.5855 -3.40347 38.2217 44.8551 -3.40347 38.2217 44.5855 -2.81081 
-1.4235 -50.6813 4.52557 -33.1396 -43.2987 4.52557 -25.2106 -46.4221 4.52557 
-17.2816 -48.8143 4.52557 -3.56337 -50.5629 4.52557 -9.35253 -50.2395 4.52557 
0.2872 -50.5629 4.52557 -1.4235 -50.5629 4.81422 6.50553 -50.128 4.52557 
14.4346 -49.2867 4.52557 22.3636 -48.1933 4.52557 30.2926 -46.4882 4.52557 
38.2217 -44.3095 4.52557 -34.6207 -42.6339 4.52557 -41.0687 -39.4999 4.52557 
-33.1396 -42.6339 5.90436 -25.2106 -42.6339 11.2791 30.2926 -42.6339 9.91389 
41.4821 -42.6339 4.52557 38.2217 -42.6339 7.31447 46.1507 -39.2572 4.52557 
-48.3093 -34.7048 4.52557 -48.9977 -34.1676 4.52557 -41.0687 -34.7048 12.0688 
51.3384 -34.7048 4.52557 46.1507 -34.7048 9.82615 54.0797 -31.8831 4.52557 
-56.0779 -26.7758 4.52557 -56.9267 -25.6061 4.52557 46.1507 -26.7758 12.2203 
57.3265 -26.7758 4.52557 54.0797 -26.7758 8.22396 -61.0615 -18.8468 4.52557 
60.4906 -18.8468 4.52557 54.0797 -18.8468 12.3074 62.0087 -14.9329 4.52557 
-63.7952 -10.9178 4.52557 -64.8557 -5.97639 4.52557 54.0797 -10.9178 11.0391 
63.2878 -10.9178 4.52557 62.0087 -10.9178 6.10417 -65.447 -2.98872 4.52557 
-64.8557 -2.98872 5.6956 54.0797 -2.98872 11.5347 63.7211 -2.98872 4.52557 
62.0087 -2.98872 6.6053 -64.9497 4.94031 4.52557 -64.8557 5.79438 4.52557 
-64.8557 4.94031 4.72619 54.0797 4.94031 11.1329 63.8127 4.94031 4.52557 
62.0087 10.4883 4.52557 62.0087 4.94031 6.56552 -63.9294 12.8693 4.52557 
60.8046 12.8693 4.52557 54.0797 12.8693 10.4441 -60.5695 20.7984 4.52557 
-56.9267 26.9667 4.52557 -56.9267 20.7984 10.7407 46.1507 20.7984 11.1558 
58.1459 20.7984 4.52557 54.0797 27.3751 4.52557 54.0797 20.7984 8.14497 
-55.3676 28.7274 4.52557 -48.9977 34.9884 4.52557 -48.9977 28.7274 10.2748 
38.2217 28.7274 11.157 52.5833 28.7274 4.52557 46.1507 35.5011 4.52557 
46.1507 28.7274 8.57144 -46.2415 36.6564 4.52557 -41.0687 39.3756 4.52557 
-41.0687 36.6564 8.90797 -33.1396 42.19 4.52557 -33.1396 36.6564 10.1507 
-25.2106 43.9857 4.52557 -25.2106 36.6564 11.7742 -17.2816 36.6564 12.4387 
-9.35253 36.6564 12.0978 -1.4235 36.6564 12.1194 6.50553 36.6564 11.4365 
14.4346 36.6564 10.7942 22.3636 36.6564 10.3342 30.2926 43.6483 4.52557 
30.2926 36.6564 9.34539 44.4179 36.6564 4.52557 38.2217 39.6275 4.52557 
38.2217 36.6564 6.96581 -21.4016 44.5855 4.52557 -17.2816 45.1379 4.52557 
-17.2816 44.5855 5.40084 -9.35253 46.2027 4.52557 -9.35253 44.5855 6.41083 
-1.4235 46.9323 4.52557 -1.4235 44.5855 6.9346 6.50553 46.7179 4.52557 
6.50553 44.5855 6.77586 14.4346 45.9333 4.52557 14.4346 44.5855 5.85408 
[...]
POINT_DATA 552
SCALARS ImageScalars float
LOOKUP_TABLE default
0 0 0 0 0 0 0 0 0 
0 0 0 0 0 0 0 0 0 
0 0 0 0 0 0 0 0 0 
0 0 0 0 0 0 0 0 0 
0 0 0 0 0 0 0 0 0 
0 0 0 0 0 0 0 0 0 
0 0 0 0 0 0 0 0 0 
0 0 0 0 0 0 0 0 0 
0 0 0 0 0 0 0 0 0 
0 0 0 0 0 0 0 0 0 
0 0 0 0 0 0 0 0 0 
0 0 0 0 0 0 0 0 0 
0 0 0 0 0 0 0 0 0 
0 0 0 0 0 0 0 0 0 
0 0 0 0 0 0 0 0 0 
0 0 0 0 0 0 0 0 0 
0 0 0 0 0 0 0 0 0 
0 0 0 0 0 0 0 0 0 
0 0 0 0 0 0 0 0 0 
0 0 0 0 0 0 0 0 0 
0 0 0 0 0 0 0 0 0 
0 0 0 0 0 0 0 0 0 
0 0 0 0 0 0 0 0 0 
0 0 0 0 0 0 0 0 0 
0 0 0 0 0 0 0 0 0 
0 0 0 0 0 0 0 0 0 
0 0 0 0 0 0 0 0 0 
0 0 0 0 0 0 0 0 0 
0 0 0 0 0 0 0 0 0 
0 0 0 0 0 0 0 0 0 
0 0 0 0 0 0 0 0 0 
0 0 0 0 0 0 0 0 0 
0 0 0 0 0 0 0 0 0 
0 0 0 0 0 0 0 0 0 
0 0 0 0 0 0 0 0 0 
0 0 0 0 0 0 0 0 0 
0 0 0 0 0 0 0 0 0 
0 0 0 0 0 0 0 0 0 
0 0 0 0 0 0 0 0 0 
0 0 0 0 0 0 0 0 0 
0 0 0 0 0 0 0 0 0 
0 0 0 0 0 0 0 0 0 
0 0 0 0 0 0 0 0 0 
0 0 0 0 0 0 0 0 0 
0 0 0 0 0 0 0 0 0 
0 0 0 0 0 0 0 0 0 
0 0 0 0 0 0 0 0 0 
0 0 0 0 0 0 0 0 0 
0 0 0 0 0 0 0 0 0 
0 0 0 0 0 0 0 0 0 
0 0 0 0 0 0 0 0 0 
0 0 0 0 0 0 0 0 0 
0 0 0 0 0 0 0 0 0 
0 0 0 0 0 0 0 0 0 
0 0 0 0 0 0 0 0 0 
0 0 0 0 0 0 0 0 0 
0 0 0 0 0 0 0 0 0 
0 0 0 0 0 0 0 0 0 
0 0 0 0 0 0 0 0 0 
0 0 0 0 0 0 0 0 0 
0 0 0 0 0 0 0 0 0 
0 0 0 
NORMALS Normals float
0.117477 0.445808 0.887386 -0.00221131 0.413077 0.910693 -0.0379443 0.366679 0.929573 
-0.000299108 0.333628 0.942705 0.033785 0.347915 0.936917 0.0150143 0.365903 0.930532 
-0.0797499 0.364554 0.927761 -0.110136 0.383074 0.917128 -0.23274 0.44661 0.863928 
0.280345 0.40351 0.870969 0.170087 0.301702 0.938108 0.0859558 0.212547 0.973363 
-0.0195474 0.195161 0.980577 -0.0902977 0.191619 0.977307 -0.0131068 0.146732 0.989089 
0.0568905 0.185881 0.980924 -0.015189 0.171278 0.985106 -0.0825161 0.142495 0.98635 
-0.0914689 0.203328 0.974829 -0.0998659 0.20832 0.972949 -0.294193 0.310196 0.904007 
0.427558 0.287138 0.857173 0.221611 0.188778 0.956688 0.0944589 0.129357 0.987089 
0.00612829 0.0353554 0.999356 -0.0307228 -0.0434991 0.998581 -0.0920676 0.0696646 0.993313 
-0.00766701 0.155876 0.987747 0.0601892 0.146585 0.987365 -0.0361217 0.0767782 0.996394 
-0.0536153 0.065204 0.996431 -0.0558471 0.121308 0.991043 -0.110059 0.175275 0.978348 
-0.20472 0.217963 0.954244 -0.458728 0.260266 0.849606 0.572743 0.230798 0.786573 
0.314832 0.157225 0.936035 0.104087 0.127091 0.986415 -0.0105481 0.0462013 0.998876 
-0.0869111 -0.00119628 0.996215 0.0137526 -0.0953715 0.995347 0.127301 0.0935977 0.987438 
0.062714 0.0623678 0.996081 -0.0361175 0.0340505 0.998767 -0.103054 0.0483994 0.993498 
-0.0329478 0.0448199 0.998452 0.0266299 0.103678 0.994254 -0.0419244 0.156077 0.986855 
-0.214515 0.150152 0.96511 -0.451267 0.140652 0.881235 0.55629 0.0363349 0.830193 
0.296775 0.00274656 0.954943 0.139484 0.0457576 0.989167 -0.0324907 0.0456203 0.99843 
-0.13505 0.0531989 0.98941 0.0328137 0.0455585 0.998423 0.0918311 0.0334493 0.995213 
-0.0796336 -0.0402709 0.99601 0.0760906 0.062818 0.99512 -0.0200602 -0.0842925 0.996239 
0.000648606 0.0129607 0.999916 0.0520897 0.0617651 0.996731 -0.0390483 0.075272 0.996398 
-0.158314 0.0928118 0.983017 -0.404726 0.13634 0.904217 0.569795 -0.0950723 0.816269 
0.312749 -0.0567488 0.948139 0.159735 -0.0673888 0.984857 -0.00405208 -0.0208185 0.999775 
-0.0885204 0.0166795 0.995935 -0.00348763 0.0828824 0.996553 0.0507564 -0.118857 0.991613 
0.101015 0.0223259 0.994634 -0.103975 0.00300002 0.994575 -0.135862 -0.0892257 0.986702 
0.10993 0.0247313 0.993632 0.09127 0.0501847 0.994561 -0.00836768 0.0272069 0.999595 
-0.157904 0.0120515 0.987381 -0.431328 -0.0190415 0.901994 0.32642 -0.162033 0.931233 
0.16079 -0.111636 0.980655 0.0506798 -0.0272271 0.998344 -0.0307431 0.0141665 0.999427 
-0.0623211 0.0741228 0.9953 -0.0193008 -0.0111539 0.999752 0.0304947 -0.0199544 0.999336 
-0.0535224 -0.164201 0.984974 0.0241418 0.088046 0.995824 0.139917 0.0581136 0.988456 
0.0547361 0.028323 0.998099 -0.0761561 0.00572159 0.997079 -0.201325 -0.065773 0.977314 
-0.466965 -0.0582931 0.882352 0.456734 -0.227127 0.86012 0.261194 -0.143167 0.95461 
0.126607 -0.112494 0.985554 0.0124732 -0.0333007 0.999368 -0.0290022 0.0358225 0.998937 
-0.0521672 0.0741101 0.995885 -0.0473659 0.0550101 0.997362 0.0229222 0.0455424 0.998699 
0.0620685 0.141737 0.987957 0.0520786 0.0497571 0.997403 0.0397216 0.034146 0.998627 
-0.112295 -0.0809558 0.990372 -0.242718 -0.0946296 0.965471 -0.503253 -0.222466 0.835012 
0.299337 -0.342904 0.890401 0.182457 -0.260705 0.94802 0.116898 -0.181791 0.976364 
0.0451195 -0.1116 0.992728 0.0018198 -0.0448913 0.99899 -0.00304294 0.00920234 0.999953 
0.0402699 0.0502514 0.997924 0.0219456 0.0177026 0.999602 0.0310773 0.0104136 0.999463 
-0.0758302 -0.110239 0.991008 -0.202744 -0.156839 0.96659 -0.397545 -0.309798 0.863703 
0.269696 -0.528563 0.804913 0.163596 -0.431047 0.887375 0.118717 -0.356062 0.926891 
0.0721742 -0.278819 0.957628 0.0478873 -0.185103 0.981552 0.038415 -0.133858 0.990256 
0.0196901 -0.176947 0.984023 -0.0846295 -0.217449 0.972396 -0.134766 -0.337678 0.931564 
-0.275694 -0.392953 0.877258 -0.530226 -0.532123 0.66008 0.219722 -0.664815 0.713963 
0.180053 -0.5263 0.831017 0.0535644 -0.455399 0.888675 -0.0598246 -0.480996 0.874679 
-0.157716 -0.548326 0.821258 -0.287144 -0.701213 0.652571 0.144464 0.550016 0.822565 
0.22346 0.802033 0.553904 0.0192102 0.519233 0.854417 0.081423 0.711031 0.698431 
-0.0200432 0.462959 0.886153 0.0193205 0.640406 0.767794 0.00356689 0.424334 0.905499 
0.00721198 0.614399 0.788963 0.0258311 0.453821 0.890718 0.00501424 0.639477 0.768793 
-0.000365345 0.485798 0.874071 -0.0352846 0.673533 0.738315 -0.0795143 0.500809 0.861898 
-0.0795921 0.717454 0.692044 -0.117004 0.415257 0.902148 -0.204508 0.745188 0.634721 
-0.236086 0.466956 0.852182 -0.393662 0.788953 0.471787 0.309386 0.478061 0.822033 
0.422773 0.665045 0.615612 0.246776 0.522244 0.81631 0.258308 0.515658 0.81693 
0.265307 0.535895 0.801517 -0.270652 0.45778 0.846868 -0.389968 0.383998 0.836942 
-0.543459 0.60447 0.582467 0.369012 0.424551 0.826793 0.449826 0.337604 0.82685 
0.513114 0.478431 0.712613 -0.378577 0.403695 0.832892 -0.470252 0.297655 0.830822 
-0.633949 0.534859 0.5586 0.480546 0.308416 0.820948 0.573776 0.234339 0.784772 
0.697519 0.414098 0.584799 -0.484032 0.263496 0.834436 0.575282 0.231284 0.784576 
-0.508885 0.156872 0.84642 -0.848562 0.263576 0.45877 0.613441 0.0384527 0.788804 
-0.576417 0.120294 0.808253 -0.781241 0.111359 0.614216 0.603959 -0.0953081 0.791296 
0.556693 -0.174945 0.812088 -0.616598 -0.0451991 0.78598 -0.780731 -0.0735909 0.620519 
0.504981 -0.224494 0.833425 0.561594 -0.230758 0.794584 -0.613501 -0.108593 0.782192 
-0.910039 -0.25577 0.326206 0.489711 -0.250691 0.835067 0.710726 -0.444346 0.545367 
0.482648 -0.273968 0.831861 -0.714572 -0.261838 0.648712 -0.609119 -0.409183 0.67937 
0.422838 -0.36526 0.829333 0.537645 -0.411455 0.735964 0.337272 -0.491137 0.803139 
-0.561376 -0.450053 0.694485 -0.70634 -0.534255 0.464388 0.296969 -0.5466 0.782967 
0.415483 -0.651935 0.634314 0.278948 -0.560501 0.779761 0.2129 -0.664578 0.716247 
0.178818 -0.67977 0.711293 -0.383592 -0.649851 0.656164 -0.541463 -0.540819 0.643687 
-0.537039 -0.547719 0.641555 0.239301 -0.944971 0.223082 0.216498 -0.704153 0.676237 
0.210547 -0.83932 0.50121 0.233908 -0.698968 0.675819 0.231125 -0.712038 0.66301 
0.0980307 -0.768445 0.632363 -0.0806383 -0.769406 0.633649 -0.241391 -0.730066 0.639324 
-0.322732 -0.716768 0.618133 -0.296629 -0.724714 0.621933 -0.457246 -0.889295 -0.00898819 
0.256827 0.881149 0.39701 0.166329 0.858953 0.484287 0.0745298 0.844944 0.529636 
-0.00201221 0.836106 0.548564 -0.00690958 0.999164 -0.0402996 -0.0354076 0.855435 0.516698 
-0.0714618 0.878832 0.471749 -0.119625 0.879641 0.46035 -0.209556 0.880228 0.425776 
-0.398578 0.794597 0.457985 0.476577 0.795095 0.375099 0.337199 0.861957 0.378586 
0.362879 0.850536 0.380666 0.392482 0.912856 0.112481 -0.405445 0.794272 0.452488 
-0.537565 0.769414 0.345001 0.554979 0.746715 0.366627 0.604767 0.70766 0.365342 
-0.616361 0.674953 0.405632 -0.699616 0.593373 0.398053 0.706754 0.59872 0.376873 
0.761325 0.528845 0.375111 -0.796959 0.521388 0.304977 0.824763 0.416502 0.382482 
-0.865151 0.412983 0.284534 -0.878394 0.386883 0.280615 0.896632 0.25302 0.363361 
-0.944585 0.225436 0.238615 0.919881 0.0583488 0.387834 0.988232 0.0672299 0.137394 
-0.982261 0.0735654 0.172484 0.916098 -0.0949848 0.389541 0.987479 -0.0918357 -0.128262 
-0.980967 -0.109194 0.160563 0.895086 -0.243371 0.373621 -0.958979 -0.269667 0.0874032 
-0.935857 -0.344992 0.0717753 -0.892977 -0.318614 -0.317925 0.835355 -0.428313 0.344572 
0.777393 -0.511846 0.365614 -0.912348 -0.405763 0.0545711 0.749211 -0.572057 0.333815 
0.63298 -0.724053 0.274013 -0.837541 -0.546039 0.0191374 -0.785067 -0.61938 0.0062334 
-0.686272 -0.576409 -0.443603 0.593439 -0.766111 0.246787 0.466755 -0.857976 0.214514 
0.273933 -0.945507 0.176002 -0.688652 -0.724461 -0.0302584 -0.615712 -0.7862 -0.0527947 
-0.524794 -0.654907 -0.543772 0.245152 -0.961553 0.123757 0.23501 -0.966863 0.0997296 
0.196544 -0.961903 -0.190033 0.227695 -0.971348 0.0680999 0.216285 -0.975844 0.0308228 
0.143729 -0.987753 -0.0607083 0.0450324 -0.989444 -0.137738 -0.0778336 -0.98092 -0.178154 
-0.206176 -0.964933 -0.162467 -0.313773 -0.944809 -0.0942458 -0.224636 -0.784693 -0.57775 
-0.456685 -0.884138 -0.0986829 -0.448787 -0.887996 -0.100264 -0.449404 -0.882581 -0.138158 
-0.00701525 0.997673 -0.06782 0.396765 0.907403 -0.138552 0.324897 0.937922 -0.121428 
0.242358 0.967757 -0.0686257 0.0250713 0.996937 -0.0740752 0.113563 0.989507 -0.0893271 
-0.0237912 0.997254 -0.0701367 -0.00646303 0.99627 -0.086047 -0.086677 0.992987 -0.0804019 
-0.127242 0.988963 -0.0759077 -0.176204 0.976874 -0.121114 -0.246679 0.947242 -0.20465 
-0.393891 0.900079 -0.1863 0.412951 0.90082 -0.134146 0.493864 0.860011 -0.128371 
0.385043 0.896561 -0.218907 0.288107 0.751535 -0.593455 -0.227605 0.749336 -0.621845 
-0.487398 0.84925 -0.203023 -0.393874 0.811206 -0.432213 -0.602657 0.760425 -0.241988 
0.620397 0.779606 -0.0855683 0.634658 0.767972 -0.0861923 0.413015 0.632801 -0.654967 
-0.683146 0.677206 -0.273319 -0.507489 0.515606 -0.690366 -0.74361 0.593621 -0.307666 
0.780212 0.613631 -0.121351 0.802036 0.58567 -0.117171 -0.413092 0.180617 -0.892599 
-0.825629 0.4422 -0.350422 -0.696006 0.440864 -0.566758 0.890335 0.428 -0.155303 
-0.84583 0.322752 -0.424738 -0.506733 0.114968 -0.854403 -0.855618 0.268219 -0.442692 
0.949623 0.250823 -0.187895 0.972208 0.14134 -0.186638 -0.458702 -0.0218569 -0.888322 
-0.886704 0.194453 -0.419457 -0.813727 0.198123 -0.546439 0.978591 0.0705288 -0.193352 
0.95898 0.069175 -0.274903 -0.440965 0.00542358 -0.897508 -0.888893 0.0330269 -0.456924 
-0.785223 0.0240871 -0.618745 0.979136 -0.0893418 -0.182514 0.977223 -0.108355 -0.182467 
0.976525 -0.0894899 -0.195936 -0.444716 -0.0547072 -0.893999 -0.866478 -0.15298 -0.475198 
-0.799324 -0.272759 -0.535429 -0.748205 -0.161692 -0.643463 0.943533 -0.265856 -0.197649 
-0.772833 -0.305172 -0.556417 -0.49731 -0.179338 -0.848835 0.885102 -0.42792 -0.182973 
0.769083 -0.604573 -0.207372 0.668446 -0.348525 -0.657047 -0.343107 -0.218412 -0.91355 
-0.779191 -0.383772 -0.495561 -0.623371 -0.519828 -0.584112 -0.513639 -0.362608 -0.777619 
0.718658 -0.651657 -0.24264 0.56986 -0.768277 -0.291563 0.471094 -0.545835 -0.692917 
-0.216436 -0.354529 -0.909651 -0.594526 -0.538869 -0.59679 -0.485178 -0.595157 -0.640617 
-0.426035 -0.415696 -0.803549 0.498505 -0.816587 -0.290997 0.381521 -0.866094 -0.322989 
0.30042 -0.739921 -0.601884 0.233807 -0.881331 -0.410596 0.130399 -0.650279 -0.74842 
0.155752 -0.898553 -0.410297 0.121642 -0.524372 -0.842756 0.0136915 -0.41446 -0.909964 
-0.0158697 -0.403355 -0.914906 -0.0379152 -0.397227 -0.916937 -0.0759819 -0.369577 -0.926088 
-0.0650252 -0.40298 -0.912896 -0.0824191 -0.434792 -0.896752 -0.203872 -0.714612 -0.669153 
-0.166715 -0.491345 -0.85486 -0.447459 -0.61779 -0.646619 -0.343148 -0.656257 -0.671994 
-0.300639 -0.579525 -0.757474 0.139947 -0.895134 -0.42326 0.126135 -0.884113 -0.449928 
0.115325 -0.861226 -0.494965 0.104293 -0.827499 -0.551696 0.0660297 -0.769069 -0.635746 
0.0296309 -0.777183 -0.628577 0.0170048 -0.696869 -0.716997 -0.0493316 -0.72934 -0.682371 
-0.0522373 -0.660285 -0.749196 -0.0888619 -0.685608 -0.722527 -0.0879591 -0.647102 -0.757313 
-0.126477 -0.722976 -0.679198 -0.101923 -0.722252 -0.684079 -0.100961 -0.708693 -0.698256 
0.196174 0.616365 -0.762634 0.0544917 0.635879 -0.769863 -0.0360483 0.599442 -0.799606 
-0.0288167 0.609941 -0.791923 -0.0945419 0.621954 -0.777326 -0.216782 0.577404 -0.787153 
0.270499 0.673329 -0.688083 0.242966 0.646703 -0.72301 0.248049 0.665832 -0.703662 
0.172057 0.534585 -0.827415 0.0542161 0.431008 -0.900718 -0.0396021 0.438645 -0.897787 
-0.0335504 0.474815 -0.879446 -0.0779264 0.506567 -0.858672 -0.214918 0.57577 -0.788859 
-0.214402 0.568964 -0.793922 -0.186877 0.534335 -0.824356 -0.29868 0.424724 -0.854635 
0.508475 0.473897 -0.71894 0.392729 0.613677 -0.684956 0.400918 0.604395 -0.688456 
0.209345 0.491004 -0.845629 0.0683693 0.34916 -0.934566 -0.0128429 0.25996 -0.965534 
-0.00398315 0.135824 -0.990725 0.0150418 0.129695 -0.99144 -0.00101609 0.155207 -0.987881 
-0.0460633 0.171944 -0.984029 -0.106105 0.187777 -0.976464 -0.142003 0.286497 -0.947499 
-0.320638 0.406342 -0.855615 -0.297006 0.402502 -0.865898 0.519533 0.458659 -0.720914 
0.657148 0.254074 -0.70965 0.497349 0.438776 -0.748412 0.268388 0.323632 -0.90732 
0.10857 0.202038 -0.973341 -0.00522028 0.145223 -0.989385 -0.0965408 0.111609 -0.989052 
-0.0820918 0.0272298 -0.996253 0.00221014 -0.0456829 -0.998954 0.00859995 -0.0181847 -0.999798 
-0.0408348 -0.017424 -0.999014 -0.038887 0.00542477 -0.999229 -0.0822824 0.0344362 -0.996014 
-0.396276 0.170904 -0.902085 -0.201521 0.0853275 -0.975761 -0.377592 0.172588 -0.909746 
0.657384 0.253554 -0.709617 0.65685 0.253446 -0.710151 0.358029 0.175286 -0.91711 
0.208947 0.117244 -0.970873 0.0160478 0.0509135 -0.998574 -0.0449205 -0.0263427 -0.998643 
-0.145092 -0.0372693 -0.988716 -0.155104 0.0281157 -0.987498 -0.0305548 -0.0208114 -0.999316 
0.0248337 -0.0406072 -0.998867 -0.0275086 -0.150157 -0.988279 -0.0446805 -0.103496 -0.993626 
-0.0657404 -0.0589879 -0.996092 -0.0906639 -0.0055168 -0.995866 -0.484537 0.115528 -0.867108 
-0.194046 0.149586 -0.969521 0.592684 0.0961698 -0.799673 0.565529 0.0883786 -0.819979 
0.310927 0.0570879 -0.948718 0.118833 -0.0419875 -0.992026 -0.0263483 -0.0423014 -0.998757 
-0.0923973 -0.127839 -0.987482 -0.0458016 -0.211835 -0.976232 -0.0539487 0.00791273 -0.998512 
-0.0718577 -0.0246341 -0.997111 -0.122058 0.0720339 -0.989906 -0.0975688 0.000963629 -0.995228 
0.0432018 -0.0713737 -0.996514 0.0339116 -0.0102303 -0.999372 -0.0340653 0.0358696 -0.998776 
-0.367216 -0.00739477 -0.930106 -0.258992 0.0314969 -0.965366 0.591833 0.0412186 -0.805006 
0.513717 0.0361457 -0.857198 0.219522 -0.00236938 -0.975605 0.0937331 -0.0425447 -0.994688 
-0.0632835 -0.0522255 -0.996628 -0.21172 -0.0844454 -0.973675 -0.0416219 -0.161944 -0.985922 
0.0444928 -0.0161803 -0.998879 0.0671265 -0.0205107 -0.997534 0.0942833 0.031844 -0.995036 
-0.217567 0.168757 -0.961346 -0.0559694 0.0395897 -0.997647 0.0418586 0.0113106 -0.999059 
-0.0542021 -0.000184677 -0.99853 -0.372841 0.00107721 -0.927895 -0.226142 -0.0263925 -0.973737 
0.580564 -0.076513 -0.810611 0.513794 -0.073291 -0.854777 0.227977 -0.0163683 -0.973529 
0.0824515 -0.00289573 -0.996591 -0.0737411 -0.0487352 -0.996086 -0.19656 -0.0264305 -0.980136 
-0.0262703 0.0205326 -0.999444 0.154322 -0.113587 -0.98147 -0.0237497 0.0857607 -0.996033 
0.0151032 -0.0764512 -0.996959 -0.10318 -0.0775963 -0.991631 -0.0637659 0.0248155 -0.997656 
-0.00585633 -0.0194802 -0.999793 -0.078123 -0.0576129 -0.995278 -0.355855 -0.0643308 -0.932324 
-0.235429 -0.0942106 -0.967315 0.613664 -0.131514 -0.778538 0.605559 -0.153512 -0.780854 
0.600944 -0.129941 -0.788658 0.265846 -0.0720371 -0.96132 0.0764221 -0.104558 -0.991578 
-0.0855162 -0.0854445 -0.992666 -0.155571 -0.0353406 -0.987192 -0.0794887 0.0105244 -0.99678 
0.0913759 -0.122832 -0.988212 0.0551943 -0.0819911 -0.995104 -0.052037 -0.0834858 -0.995149 
-0.0794812 -0.0907924 -0.992693 -0.0398055 -0.0286482 -0.998797 -0.0411758 -0.0571644 -0.997515 
-0.127444 -0.0812575 -0.988512 -0.279926 -0.195383 -0.939929 -0.254601 -0.201446 -0.945832 
-0.225749 -0.198884 -0.953668 0.512133 -0.338271 -0.789489 0.359543 -0.449339 -0.817816 
0.310595 -0.360479 -0.879537 0.0822786 -0.251244 -0.96442 -0.00418428 -0.187718 -0.982214 
-0.105903 -0.114818 -0.987725 -0.0822727 -0.0280961 -0.996214 0.0106172 -0.0544017 -0.998463 
0.0331857 -0.119542 -0.992274 -0.00675348 -0.14832 -0.988916 -0.03339 -0.12505 -0.991588 
-0.0347169 -0.108638 -0.993475 -0.0594558 -0.136451 -0.988861 -0.277781 -0.20099 -0.939383 
-0.201608 -0.280096 -0.938563 -0.193222 -0.194327 -0.961718 0.303315 -0.400851 -0.864476 
0.223407 -0.456313 -0.861318 0.205498 -0.331471 -0.920814 0.0635889 -0.47408 -0.878182 
0.0538647 -0.333442 -0.94123 0.100831 -0.458008 -0.883211 0.0131023 -0.244684 -0.969514 
0.013441 -0.412699 -0.910768 -0.0164332 -0.159885 -0.986999 -0.0194762 -0.365052 -0.930783 
-0.0145399 -0.162036 -0.986678 -0.0365781 -0.366989 -0.929506 -0.0259411 -0.184314 -0.982525 
-0.0659213 -0.308394 -0.948972 -0.0523672 -0.233534 -0.970938 -0.0536776 -0.312816 -0.948296 
-0.0384662 -0.254453 -0.96632 -0.054824 -0.313812 -0.947901 -0.0437838 -0.269821 -0.961915 
-0.156099 -0.311766 -0.937249 -0.134284 -0.327414 -0.93529 -0.134862 -0.296821 -0.945362 

