# vtk DataFile Version 4.2
vtk output
ASCII
DATASET POLYDATA
POINTS 546 float
-4.67542 -33.0912 -12.7182 -32.7965 -26.0609 -13.3428 -25.7662 -26.0609 -13.986 
-18.7359 -26.0609 -13.6329 -11.7057 -26.0609 -14.1422 -4.67542 -26.0609 -15.0933 
2.35484 -26.0609 -15.0555 9.3851 -26.0609 -14.2793 16.4154 -26.0609 -13.5095 
23.4456 -26.0609 -13.4191 30.4759 -26.0609 -13.0512 -39.8267 -19.0306 -13.9705 
-32.7965 -19.0306 -15.6116 -25.7662 -19.0306 -15.5895 -18.7359 -19.0306 -15.3143 
-11.7057 -19.0306 -15.2217 -4.67542 -19.0306 -16.0468 2.35484 -19.0306 -15.718 
9.3851 -19.0306 -14.6582 16.4154 -19.0306 -14.5005 23.4456 -19.0306 -14.3414 
30.4759 -19.0306 -13.9631 -39.8267 -12.0004 -15.0885 -32.7965 -12.0004 -16.4527 
-25.7662 -12.0004 -16.622 -18.7359 -12.0004 -16.4017 -11.7057 -12.0004 -16.9207 
-4.67542 -12.0004 -17.7317 2.35484 -12.0004 -15.5143 9.3851 -12.0004 -14.0009 
16.4154 -12.0004 -13.9515 23.4456 -12.0004 -14.2653 30.4759 -12.0004 -14.3638 
37.5061 -12.0004 -12.8236 -46.857 -4.97011 -12.8476 -39.8267 -4.97011 -15.7734 
-32.7965 -4.97011 -16.7647 -25.7662 -4.97011 -16.8543 -18.7359 -4.97011 -16.5916 
-11.7057 -4.97011 -18.963 -4.67542 -4.97011 -17.6877 2.35484 -4.97011 -14.727 
9.3851 -4.97011 -14.8577 16.4154 -4.97011 -13.0624 23.4456 -4.97011 -13.7193 
30.4759 -4.97011 -13.8687 37.5061 -4.97011 -13.2815 -39.8267 2.06015 -15.1493 
-32.7965 2.06015 -16.0621 -25.7662 2.06015 -15.9365 -18.7359 2.06015 -15.2449 
-11.7057 2.06015 -15.7204 -4.67542 2.06015 -15.8642 2.35484 2.06015 -13.6881 
9.3851 2.06015 -14.6539 16.4154 2.06015 -13.7528 23.4456 2.06015 -14.625 
30.4759 2.06015 -14.6511 37.5061 2.06015 -13.7781 -39.8267 9.09041 -13.6902 
-32.7965 9.09041 -15.04 -25.7662 9.09041 -14.9297 -18.7359 9.09041 -14.4912 
-11.7057 9.09041 -13.1686 -4.67542 9.09041 -14.0807 2.35484 9.09041 -14.448 
9.3851 9.09041 -13.3173 16.4154 9.09041 -15.1423 23.4456 9.09041 -16.0742 
30.4759 9.09041 -15.7297 37.5061 9.09041 -14.4584 -39.8267 16.1207 -12.7289 
-32.7965 16.1207 -14.49 -25.7662 16.1207 -14.7503 -18.7359 16.1207 -14.5052 
-11.7057 16.1207 -13.8136 -4.67542 16.1207 -13.5514 2.35484 16.1207 -13.856 
9.3851 16.1207 -14.195 16.4154 16.1207 -15.511 23.4456 16.1207 -16.1982 
30.4759 16.1207 -15.8978 37.5061 16.1207 -14.1856 -32.7965 23.1509 -12.9913 
-25.7662 23.1509 -15.1008 -18.7359 23.1509 -15.0092 -11.7057 23.1509 -14.7048 
-4.67542 23.1509 -14.6716 2.35484 23.1509 -14.7579 9.3851 23.1509 -14.6536 
16.4154 23.1509 -14.9105 23.4456 23.1509 -14.9047 30.4759 23.1509 -14.5746 
-25.7662 30.1812 -13.2177 -18.7359 30.1812 -15.2347 -11.7057 30.1812 -14.8579 
-4.67542 30.1812 -15.116 2.35484 30.1812 -15.0222 9.3851 30.1812 -14.0486 
16.4154 30.1812 -13.2253 -18.7359 37.2115 -13.4784 -11.7057 37.2115 -13.7602 
-4.67542 37.2115 -14.3971 2.35484 37.2115 -13.6715 -4.67542 -33.5331 -12.3911 
-32.7965 -27.6826 -12.3911 -32.7965 -33.0912 -7.74801 -25.7662 -29.0613 -12.3911 
-25.7662 -33.0912 -9.80623 -18.7359 -30.0266 -12.3911 -18.7359 -33.0912 -11.1535 
-7.19877 -33.0912 -12.3911 -11.7057 -31.3927 -12.3911 -11.7057 -33.0912 -11.7105 
2.15094 -33.0912 -12.3911 2.35484 -33.0676 -12.3911 2.35484 -33.0912 -12.3789 
9.3851 -30.627 -12.3911 9.3851 -33.0912 -11.1001 16.4154 -28.9009 -12.3911 
16.4154 -33.0912 -10.1109 23.4456 -28.0921 -12.3911 23.4456 -33.0912 -9.01183 
30.4759 -27.2376 -12.3911 30.4759 -33.0912 -6.98223 -35.4356 -26.0609 -12.3911 
-39.8267 -22.5081 -12.3911 -39.8267 -26.0609 -10.1254 32.1632 -26.0609 -12.3911 
37.5061 -26.0609 -9.66196 44.5364 -26.0609 -6.60486 -42.6542 -19.0306 -12.3911 
-46.857 -19.0306 -8.84603 37.2131 -19.0306 -12.3911 37.5061 -18.0822 -12.3911 
37.5061 -19.0306 -12.317 44.5364 -19.0306 -8.80808 -45.6911 -12.0004 -12.3911 
-46.857 -7.78504 -12.3911 -46.857 -12.0004 -11.7213 38.7338 -12.0004 -12.3911 
44.5364 -12.0004 -10.4136 -47.4133 -4.97011 -12.3911 -46.857 0.59709 -12.3911 
40.9443 -4.97011 -12.3911 44.5364 -4.97011 -11.3664 51.5667 -4.97011 -6.75956 
-46.6285 2.06015 -12.3911 -46.857 2.06015 -12.2792 41.8239 2.06015 -12.3911 
44.5364 2.06015 -11.4438 51.5667 2.06015 -5.94581 -43.0903 9.09041 -12.3911 
-46.857 9.09041 -10.3606 42.4613 9.09041 -12.3911 44.5364 9.09041 -11.3703 
-40.4113 16.1207 -12.3911 -46.857 16.1207 -5.81412 -39.8267 17.014 -12.3911 
41.0207 16.1207 -12.3911 37.5061 21.6849 -12.3911 44.5364 16.1207 -9.81225 
-34.1333 23.1509 -12.3911 -39.8267 23.1509 -8.92058 -32.7965 25.1474 -12.3911 
23.4456 29.5552 -12.3911 36.2045 23.1509 -12.3911 30.4759 26.4637 -12.3911 
37.5061 23.1509 -11.6738 -28.2356 30.1812 -12.3911 -32.7965 30.1812 -10.3925 
-25.7662 32.3794 -12.3911 9.3851 37.045 -12.3911 21.7151 30.1812 -12.3911 
16.4154 31.9294 -12.3911 23.4456 30.1812 -12.0232 30.4759 30.1812 -8.56196 
-21.6327 37.2115 -12.3911 -25.7662 37.2115 -9.80732 -18.7359 38.9025 -12.3911 
-11.7057 39.8985 -12.3911 -4.67542 41.2703 -12.3911 9.14697 37.2115 -12.3911 
2.35484 40.0821 -12.3911 9.3851 37.2115 -12.3365 16.4154 37.2115 -8.65578 
-11.7057 44.2417 -8.86449 -4.67542 44.2417 -10.219 2.35484 44.2417 -9.18345 
-32.7965 -35.0046 -5.36083 -25.7662 -37.0804 -5.36083 -18.7359 -38.0244 -5.36083 
-11.7057 -38.769 -5.36083 -4.67542 -39.2178 -5.36083 2.35484 -38.6675 -5.36083 
9.3851 -37.7919 -5.36083 16.4154 -36.7929 -5.36083 23.4456 -35.9015 -5.36083 
30.4759 -34.4208 -5.36083 -36.7788 -33.0912 -5.36083 -39.8267 -31.1735 -5.36083 
34.5446 -33.0912 -5.36083 37.5061 -31.8353 -5.36083 44.5364 -27.0638 -5.36083 
-45.245 -26.0609 -5.36083 -46.857 -23.9216 -5.36083 45.5391 -26.0609 -5.36083 
-49.6488 -19.0306 -5.36083 50.0531 -19.0306 -5.36083 51.5667 -19.0306 -2.26896 
-52.5191 -12.0004 -5.36083 51.3041 -12.0004 -5.36083 51.5667 -10.7328 -5.36083 
51.5667 -12.0004 -5.01127 -53.4897 -4.97011 -5.36083 52.7888 -4.97011 -5.36083 
-53.2981 2.06015 -5.36083 52.0375 2.06015 -5.36083 51.5667 5.2914 -5.36083 
-51.1979 9.09041 -5.36083 50.9844 9.09041 -5.36083 51.5667 9.09041 -3.09284 
-47.1932 16.1207 -5.36083 -46.857 16.7534 -5.36083 47.9974 16.1207 -5.36083 
44.5364 21.3849 -5.36083 -43.19 23.1509 -5.36083 -39.8267 27.7863 -5.36083 
43.1313 23.1509 -5.36083 37.5061 28.4257 -5.36083 -37.9829 30.1812 -5.36083 
-32.7965 35.4985 -5.36083 23.4456 35.4537 -5.36083 34.5884 30.1812 -5.36083 
30.4759 32.3546 -5.36083 -30.8022 37.2115 -5.36083 -25.7662 40.6865 -5.36083 
-18.7359 44.233 -5.36083 9.3851 43.7812 -5.36083 20.4563 37.2115 -5.36083 
16.4154 39.5672 -5.36083 -18.7096 44.2417 -5.36083 -11.7057 46.3829 -5.36083 
-4.67542 47.3616 -5.36083 8.30244 44.2417 -5.36083 2.35484 46.4617 -5.36083 
-32.7965 -36.2458 1.66944 -25.7662 -38.6207 1.66944 -18.7359 -39.6125 1.66944 
-11.7057 -40.031 1.66944 -4.67542 -40.0404 1.66944 2.35484 -39.4542 1.66944 
9.3851 -38.509 1.66944 16.4154 -37.4939 1.66944 23.4456 -36.6426 1.66944 
30.4759 -35.5136 1.66944 -38.1529 -33.0912 1.66944 -39.8267 -31.8939 1.66944 
-32.7965 -33.0912 8.64729 23.4456 -33.0912 8.69279 36.5051 -33.0912 1.66944 
30.4759 -33.0912 6.88306 37.5061 -32.6853 1.66944 44.5364 -28.51 1.66944 
-45.7289 -26.0609 1.66944 -46.857 -24.5551 1.66944 47.397 -26.0609 1.66944 
44.5364 -26.0609 7.07877 51.5667 -20.8566 1.66944 -50.3707 -19.0306 1.66944 
-46.857 -19.0306 8.3271 52.7961 -19.0306 1.66944 51.5667 -19.0306 4.84334 
-52.6681 -12.0004 1.66944 55.3943 -12.0004 1.66944 -53.6495 -4.97011 1.66944 
56.1179 -4.97011 1.66944 -53.162 2.06015 1.66944 55.2163 2.06015 1.66944 
-51.2384 9.09041 1.66944 52.5697 9.09041 1.66944 51.5667 11.3493 1.66944 
51.5667 9.09041 4.56651 -47.6516 16.1207 1.66944 -46.857 17.3866 1.66944 
-46.857 16.1207 3.05422 49.08 16.1207 1.66944 44.5364 22.1769 1.66944 
-42.8305 23.1509 1.66944 -39.8267 26.9256 1.66944 -39.8267 23.1509 5.77074 
43.6715 23.1509 1.66944 37.5061 28.5704 1.66944 -36.8534 30.1812 1.66944 
-32.7965 33.8902 1.66944 -32.7965 30.1812 6.04309 23.4456 35.9153 1.66944 
34.9713 30.1812 1.66944 30.4759 32.6682 1.66944 30.4759 30.1812 6.92578 
-28.1579 37.2115 1.66944 -25.7662 39.1738 1.66944 -25.7662 37.2115 3.608 
-18.7359 41.9341 1.66944 -18.7359 37.2115 6.97203 -11.7057 37.2115 8.67019 
9.3851 43.1845 1.66944 20.8496 37.2115 1.66944 16.4154 39.4727 1.66944 
16.4154 37.2115 5.46279 -11.7579 44.2417 1.66944 -11.7057 44.2615 1.66944 
-11.7057 44.2417 1.69215 -4.67542 45.9906 1.66944 -4.67542 44.2417 3.752 
6.1841 44.2417 1.66944 2.35484 45.5848 1.66944 2.35484 44.2417 3.43832 
-25.7662 -35.1837 8.6997 -18.7359 -36.994 8.6997 -11.7057 -37.9292 8.6997 
-4.67542 -38.0308 8.6997 2.35484 -36.9454 8.6997 9.3851 -35.53 8.6997 
16.4154 -34.4107 8.6997 -39.8267 -27.736 8.6997 -32.6921 -33.0912 8.6997 
-32.7965 -33.0466 8.6997 -25.7662 -33.0912 10.9574 -18.7359 -33.0912 12.4832 
-11.7057 -33.0912 13.7529 -4.67542 -33.0912 13.4086 2.35484 -33.0912 12.8029 
9.3851 -33.0912 11.211 23.4239 -33.0912 8.6997 16.4154 -33.0912 10.1158 
23.4456 -33.086 8.6997 30.4759 -31.8692 8.6997 37.5061 -28.7672 8.6997 
-41.4781 -26.0609 8.6997 -39.8267 -26.0609 10.1048 -32.7965 -26.0609 12.8418 
-25.7662 -26.0609 14.8854 -18.7359 -26.0609 15.3623 -11.7057 -26.0609 15.6951 
9.3851 -26.0609 15.1876 16.4154 -26.0609 14.5792 23.4456 -26.0609 14.0434 
30.4759 -26.0609 12.8822 42.601 -26.0609 8.6997 37.5061 -26.0609 10.9642 
44.5364 -24.7667 8.6997 -46.5139 -19.0306 8.6997 -46.857 -18.4549 8.6997 
-39.8267 -19.0306 13.6659 -32.7965 -19.0306 15.6847 37.5061 -19.0306 14.4355 
49.3258 -19.0306 8.6997 44.5364 -19.0306 12.1542 51.5667 -15.6868 8.6997 
-49.4055 -12.0004 8.6997 -46.857 -12.0004 11.1729 -39.8267 -12.0004 14.806 
44.5364 -12.0004 14.1065 53.1036 -12.0004 8.6997 51.5667 -12.0004 10.3485 
-49.6144 -4.97011 8.6997 -46.857 -4.97011 11.4837 -39.8267 -4.97011 15.4325 
9.3851 -4.97011 15.023 16.4154 -4.97011 14.3943 44.5364 -4.97011 15.1266 
54.1554 -4.97011 8.6997 51.5667 -4.97011 11.4616 -49.5856 2.06015 8.6997 
-46.857 2.06015 11.3142 -39.8267 2.06015 14.6568 2.35484 2.06015 14.913 
16.4154 2.06015 15.1291 44.5364 2.06015 14.4849 53.016 2.06015 8.6997 
51.5667 5.59165 8.6997 51.5667 2.06015 10.3257 -47.4226 9.09041 8.6997 
[...]
POINT_DATA 546
SCALARS ImageScalars float
LOOKUP_TABLE default
0 0 0 0 0 0 0 0 0 
0 0 0 0 0 0 0 0 0 
0 0 0 0 0 0 0 0 0 
0 0 0 0 0 0 0 0 0 
0 0 0 0 0 0 0 0 0 
0 0 0 0 0 0 0 0 0 
0 0 0 0 0 0 0 0 0 
0 0 0 0 0 0 0 0 0 
0 0 0 0 0 0 0 0 0 
0 0 0 0 0 0 0 0 0 
0 0 0 0 0 0 0 0 0 
0 0 0 0 0 0 0 0 0 
0 0 0 0 0 0 0 0 0 
0 0 0 0 0 0 0 0 0 
0 0 0 0 0 0 0 0 0 
0 0 0 0 0 0 0 0 0 
0 0 0 0 0 0 0 0 0 
0 0 0 0 0 0 0 0 0 
0 0 0 0 0 0 0 0 0 
0 0 0 0 0 0 0 0 0 
0 0 0 0 0 0 0 0 0 
0 0 0 0 0 0 0 0 0 
0 0 0 0 0 0 0 0 0 
0 0 0 0 0 0 0 0 0 
0 0 0 0 0 0 0 0 0 
0 0 0 0 0 0 0 0 0 
0 0 0 0 0 0 0 0 0 
0 0 0 0 0 0 0 0 0 
0 0 0 0 0 0 0 0 0 
0 0 0 0 0 0 0 0 0 
0 0 0 0 0 0 0 0 0 
0 0 0 0 0 0 0 0 0 
0 0 0 0 0 0 0 0 0 
0 0 0 0 0 0 0 0 0 
0 0 0 0 0 0 0 0 0 
0 0 0 0 0 0 0 0 0 
0 0 0 0 0 0 0 0 0 
0 0 0 0 0 0 0 0 0 
0 0 0 0 0 0 0 0 0 
0 0 0 0 0 0 0 0 0 
0 0 0 0 0 0 0 0 0 
0 0 0 0 0 0 0 0 0 
0 0 0 0 0 0 0 0 0 
0 0 0 0 0 0 0 0 0 
0 0 0 0 0 0 0 0 0 
0 0 0 0 0 0 0 0 0 
0 0 0 0 0 0 0 0 0 
0 0 0 0 0 0 0 0 0 
0 0 0 0 0 0 0 0 0 
0 0 0 0 0 0 0 0 0 
0 0 0 0 0 0 0 0 0 
0 0 0 0 0 0 0 0 0 
0 0 0 0 0 0 0 0 0 
0 0 0 0 0 0 0 0 0 
0 0 0 0 0 0 0 0 0 
0 0 0 0 0 0 0 0 0 
0 0 0 0 0 0 0 0 0 
0 0 0 0 0 0 0 0 0 
0 0 0 0 0 0 0 0 0 
0 0 0 0 0 0 0 0 0 
0 0 0 0 0 0 
NORMALS Normals float
0.036439 0.519265 0.853836 0.20465 0.42462 0.881939 0.0224501 0.334412 0.94216 
0.0115799 0.265906 0.963929 0.106214 0.225464 0.968444 0.060766 0.217534 0.974159 
-0.0550639 0.217317 0.974547 -0.10807 0.208403 0.972054 -0.0575924 0.251239 0.96621 
-0.0362557 0.304474 0.95183 -0.218305 0.344552 0.913032 0.355732 0.272242 0.894058 
0.115738 0.225174 0.96742 -0.0214133 0.180789 0.983289 -0.0252852 0.189008 0.98165 
0.0502505 0.173297 0.983587 0.0369883 0.177918 0.98335 -0.100347 0.0330095 0.994405 
-0.0856616 -0.0209632 0.996104 -0.0227124 0.0310047 0.999261 -0.0368194 0.0541434 0.997854 
-0.154048 0.105518 0.982413 0.275359 0.126693 0.952957 0.101139 0.077115 0.991879 
-0.00372613 0.0873185 0.996174 0.0166443 0.0910053 0.995711 0.0972609 0.270264 0.957861 
-0.0988654 0.121511 0.987654 -0.259284 -0.0660268 0.963542 -0.101484 0.000580504 0.994837 
0.0193099 -0.103515 0.99444 0.0285742 -0.0441494 0.998616 -0.0944225 -0.00794139 0.995501 
-0.273876 0.0656477 0.959522 0.543303 0.030769 0.838973 0.23373 0.00353162 0.972295 
0.0711351 -0.027739 0.997081 -0.012257 -0.0488784 0.99873 0.126947 -0.0813533 0.988568 
0.105693 -0.0598428 0.992597 -0.309086 -0.116091 0.943922 -0.173756 -0.129435 0.976246 
-0.134232 0.0558176 0.989377 -0.0555239 -0.0133724 0.998368 0.0561656 0.0208078 0.998205 
-0.0304402 0.0167603 0.999396 -0.163506 0.0653925 0.984373 0.225442 -0.141061 0.963991 
0.0514422 -0.122043 0.991191 -0.0569907 -0.13562 0.98912 -0.0228232 -0.150797 0.988301 
0.0449951 -0.405312 0.91307 -0.152049 -0.233654 0.960358 -0.070556 -0.0240902 0.997217 
-0.00170025 -0.11347 0.99354 0.00312853 0.149202 0.988802 0.0615554 0.171389 0.983279 
-0.0587621 0.132947 0.98938 -0.211062 0.0812511 0.97409 0.268042 -0.169385 0.9484 
0.0786059 -0.105535 0.991304 -0.0396704 -0.0854848 0.995549 -0.121894 -0.0528639 0.991134 
-0.0485857 -0.103554 0.993436 0.096695 -0.153407 0.983421 -0.0641335 0.00462345 0.997931 
0.0611287 -0.0190452 0.997948 0.189886 0.119568 0.974498 0.0414958 0.104873 0.99362 
-0.113204 0.0905044 0.989441 -0.271691 0.0297595 0.961924 0.401141 -0.247536 0.881937 
0.154865 -0.145825 0.977114 -0.000433025 0.0103761 0.999946 -0.062241 0.0365242 0.997393 
-0.0701462 0.110225 0.991428 0.00467624 0.0540993 0.998525 0.0466651 0.0287808 0.998496 
0.116689 0.0910853 0.988983 0.142782 -0.0157087 0.98963 0.0277452 -0.0798632 0.99642 
-0.130151 -0.0683608 0.989135 -0.342317 -0.167062 0.924613 0.335881 -0.227164 0.914101 
0.134576 -0.0997169 0.985873 -0.0277591 0.0504527 0.998341 -0.0238287 0.068823 0.997344 
0.00376673 0.110264 0.993895 -0.00128915 0.0821123 0.996622 0.0103374 -0.00966036 0.9999 
0.0181764 -0.149492 0.988596 -0.0205464 -0.262027 0.964842 -0.192986 -0.379829 0.904702 
0.26984 -0.281271 0.920909 0.10767 -0.121363 0.986751 -0.00583174 -0.0601406 0.998173 
0.0117901 -0.014382 0.999827 -0.075607 -0.0664492 0.994921 -0.118787 -0.149111 0.98166 
-0.132079 -0.343092 0.929969 0.187465 -0.41858 0.888621 0.0644081 -0.295061 0.953305 
-0.00439964 -0.250158 0.968195 -0.137563 -0.287769 0.947769 0.0370693 0.542463 0.839262 
0.218195 0.48771 0.845299 0.308025 0.757951 0.575005 0.0837543 0.459013 0.884473 
0.190409 0.671551 0.716075 0.0635067 0.407 0.911218 0.105871 0.561993 0.820338 
0.0571848 0.519692 0.852438 0.0982652 0.446184 0.88953 0.0934661 0.535138 0.839578 
-0.0887947 0.540026 0.836952 -0.0924833 0.539353 0.836986 -0.092572 0.540901 0.835977 
-0.117816 0.439995 0.890238 -0.124975 0.606975 0.784833 -0.0767585 0.385926 0.919331 
-0.116094 0.677165 0.726615 -0.062213 0.39647 0.915937 -0.165712 0.737281 0.654948 
-0.219957 0.403982 0.887929 -0.244737 0.807086 0.537323 0.291943 0.459646 0.838746 
0.402256 0.390807 0.827925 0.472884 0.544196 0.692988 -0.248943 0.356356 0.900576 
-0.373866 0.442835 0.814936 -0.632357 0.569828 0.524805 0.480354 0.302526 0.823248 
0.716485 0.37808 0.586264 -0.306003 0.182287 0.934416 -0.307882 0.168662 0.936356 
-0.31307 0.186606 0.931217 -0.493299 0.226442 0.839869 0.50958 0.193866 0.838298 
0.551992 0.104591 0.827264 0.578814 0.219213 0.785443 -0.292942 0.0779189 0.95295 
-0.415879 0.15339 0.896391 0.57 0.0325423 0.821 0.523942 -0.10096 0.845749 
-0.247915 0.0745742 0.965907 -0.357219 0.0755183 0.930963 -0.727321 0.0462458 0.684738 
0.507173 -0.135626 0.851106 0.520467 -0.136512 0.842899 -0.330487 0.0347671 0.94317 
-0.422858 0.000746942 0.906196 -0.791224 -0.0976422 0.603681 0.404179 -0.220654 0.887666 
0.629947 -0.332973 0.701638 -0.433481 -0.0349389 0.900485 -0.527995 -0.0806971 0.845405 
0.424494 -0.258643 0.867703 0.812725 -0.45286 0.3666 0.416595 -0.263651 0.870021 
-0.512162 -0.226625 0.828451 -0.449292 -0.398767 0.799451 -0.711864 -0.34091 0.614028 
0.369967 -0.255152 0.893321 0.649341 -0.45982 0.60574 0.358726 -0.262495 0.895775 
-0.199143 -0.538389 0.818828 -0.420195 -0.448366 0.788926 -0.264251 -0.521443 0.811337 
-0.488943 -0.480232 0.728225 0.318243 -0.309853 0.895942 0.5123 -0.45612 0.72767 
0.311697 -0.346996 0.884556 -0.253039 -0.423036 0.870064 -0.197553 -0.513046 0.835318 
-0.200306 -0.402271 0.89334 -0.22486 -0.578147 0.784337 -0.377126 -0.774848 0.507333 
0.276239 -0.456882 0.845548 0.482432 -0.636464 0.601808 0.213728 -0.508792 0.833937 
0.101219 -0.454693 0.884878 0.0136833 -0.501652 0.864961 -0.251961 -0.425602 0.869125 
-0.175381 -0.453825 0.873661 -0.257788 -0.432204 0.864144 -0.450567 -0.705224 0.547402 
0.225052 -0.864008 0.45038 0.0212916 -0.796605 0.604125 -0.256589 -0.828594 0.497588 
0.342614 0.835792 0.429031 0.202437 0.873532 0.442675 0.107453 0.886462 0.450155 
0.0789256 0.910507 0.405892 -0.00839099 0.939468 0.342534 -0.0961134 0.936435 0.33742 
-0.126211 0.929114 0.347588 -0.128968 0.92035 0.369219 -0.153574 0.914684 0.373856 
-0.259504 0.868125 0.423104 0.451802 0.804927 0.384666 0.540492 0.76001 0.360906 
-0.367996 0.843422 0.39143 -0.445115 0.80009 0.402154 -0.644938 0.631552 0.430345 
0.72955 0.594594 0.337957 0.777012 0.534417 0.332642 -0.670871 0.594937 0.442699 
0.833425 0.420686 0.358366 -0.701919 0.353926 0.618099 -0.842482 0.441707 0.308415 
0.925043 0.244662 0.290579 -0.759228 0.126815 0.63835 -0.766612 0.111431 0.632367 
-0.782747 0.132506 0.60807 0.959164 0.0477846 0.278785 -0.777223 0.0398115 0.627964 
0.953593 -0.138812 0.267191 -0.808545 -0.106759 0.578668 -0.844675 -0.168823 0.507959 
0.875552 -0.370726 0.309791 -0.86928 -0.244442 0.429651 -0.916783 -0.30519 0.25762 
0.823172 -0.459448 0.333609 0.821634 -0.466173 0.328024 -0.822558 -0.43529 0.365952 
-0.758084 -0.576642 0.304618 0.793066 -0.538286 0.285123 0.765522 -0.603039 0.224323 
-0.724877 -0.626176 0.287153 -0.570372 -0.77845 0.26209 0.745925 -0.636314 0.196725 
0.662733 -0.736209 0.137045 -0.424377 -0.849152 0.314398 -0.488192 -0.830577 0.267975 
-0.417879 -0.865686 0.275618 0.627278 -0.769575 0.119486 0.518516 -0.837543 0.172228 
0.376476 -0.916754 0.13352 -0.438704 -0.865549 0.241587 -0.458728 -0.837498 0.296926 
-0.494758 -0.828079 0.263627 0.375852 -0.917016 0.13348 0.209762 -0.96678 0.146068 
0.00966507 -0.983336 0.181542 -0.411623 -0.882458 0.227672 -0.251355 -0.947953 0.195464 
0.407526 0.906251 -0.112392 0.233085 0.968413 -0.0885823 0.097435 0.994088 -0.0479171 
0.0298785 0.998541 -0.0449819 -0.0403998 0.9971 -0.0644974 -0.10987 0.989306 -0.0959307 
-0.138119 0.98355 -0.116412 -0.130626 0.981838 -0.137594 -0.136618 0.977394 -0.161357 
-0.276091 0.950206 -0.144506 0.54488 0.82404 -0.155123 0.594083 0.787194 -0.165502 
0.374315 0.694189 -0.614809 -0.141251 0.777793 -0.612443 -0.399878 0.908148 -0.123955 
-0.217617 0.837006 -0.50206 -0.42012 0.899089 -0.123042 -0.608346 0.78732 -0.100212 
0.775159 0.604226 -0.184499 0.805394 0.562594 -0.186623 -0.698808 0.711937 -0.0693684 
-0.541432 0.694482 -0.473862 -0.846041 0.532212 -0.0310663 0.891089 0.4187 -0.175073 
0.686652 0.411928 -0.59902 -0.874834 0.483571 -0.0287031 -0.817799 0.506912 -0.27248 
0.955916 0.228177 -0.184824 -0.975574 0.208491 0.0691827 0.97835 0.0324243 -0.2044 
-0.998903 -0.0136209 0.0448018 0.962394 -0.156463 -0.222075 -0.971555 -0.23413 0.0355432 
0.903043 -0.363668 -0.228603 -0.918677 -0.391188 -0.0548084 -0.898699 -0.43253 -0.0725138 
-0.876148 -0.412359 -0.249649 0.844461 -0.492675 -0.210135 0.831037 -0.508515 -0.225366 
0.809359 -0.502298 -0.30436 -0.836976 -0.534881 -0.115643 -0.740671 -0.652282 -0.161044 
0.749572 -0.598828 -0.282041 0.734173 -0.602753 -0.312537 0.633564 -0.553961 -0.540115 
-0.72124 -0.672531 -0.165874 -0.581082 -0.792583 -0.184812 0.685942 -0.63536 -0.354684 
0.562935 -0.725345 -0.396204 0.498455 -0.609423 -0.61656 -0.418732 -0.886937 -0.194953 
-0.522339 -0.833344 -0.180832 -0.443548 -0.879273 -0.173624 -0.376 -0.786785 -0.489483 
0.51421 -0.726176 -0.456351 0.473061 -0.756453 -0.451655 0.466147 -0.679505 -0.566551 
0.279019 -0.812267 -0.512221 0.250587 -0.62923 -0.735714 0.16876 -0.55932 -0.811592 
-0.379446 -0.868512 -0.318917 -0.432772 -0.876515 -0.210783 -0.456846 -0.854476 -0.247311 
-0.379795 -0.787221 -0.485837 0.255846 -0.822743 -0.507579 0.255696 -0.822878 -0.507436 
0.255713 -0.822276 -0.508402 0.0770285 -0.883758 -0.461561 0.0889165 -0.810263 -0.579282 
-0.29385 -0.88759 -0.354735 -0.187533 -0.90067 -0.39195 -0.161138 -0.84754 -0.505678 
0.243969 0.75617 -0.607195 0.160649 0.803985 -0.572538 0.0621368 0.859718 -0.506975 
-0.0604994 0.85514 -0.514855 -0.15058 0.831065 -0.535403 -0.158246 0.791704 -0.590054 
-0.142886 0.782177 -0.606451 0.531748 0.563214 -0.632482 0.371584 0.692349 -0.618528 
0.373173 0.690818 -0.619284 0.228491 0.653555 -0.721566 0.158255 0.582893 -0.796989 
0.0554678 0.51239 -0.856959 -0.0551464 0.537399 -0.841523 -0.129628 0.586707 -0.799357 
-0.156391 0.658364 -0.736273 -0.141217 0.777439 -0.6129 -0.131126 0.720952 -0.680467 
-0.141221 0.777354 -0.613007 -0.194344 0.736917 -0.647443 -0.361548 0.65688 -0.661658 
0.565204 0.535657 -0.627388 0.487469 0.514622 -0.705364 0.291185 0.418629 -0.86021 
0.160372 0.292331 -0.942774 0.0549861 0.241941 -0.968732 0.0467631 0.152726 -0.987162 
-0.0788824 0.333804 -0.939336 -0.0743357 0.369567 -0.926226 -0.110216 0.394656 -0.912195 
-0.168701 0.49338 -0.853297 -0.451361 0.64315 -0.618572 -0.298847 0.562359 -0.771001 
-0.497355 0.618881 -0.607967 0.666345 0.405436 -0.625784 0.677198 0.388493 -0.624881 
0.421187 0.292306 -0.85858 0.149958 0.244178 -0.958066 -0.236344 0.302233 -0.92347 
-0.633814 0.475721 -0.609893 -0.455351 0.3937 -0.798534 -0.722838 0.379897 -0.577221 
0.768096 0.183181 -0.613574 0.6209 0.167485 -0.765788 0.348779 0.0998879 -0.931867 
-0.366625 0.176872 -0.913401 -0.796499 0.248066 -0.55141 -0.697607 0.252834 -0.670387 
0.734812 0.0110331 -0.678182 0.629676 0.00837744 -0.776813 0.342625 -0.0068586 -0.939447 
-0.128861 -0.0948244 -0.987119 0.0734697 -0.0658477 -0.995121 -0.314514 0.0274328 -0.948856 
-0.860143 -0.00764592 -0.509996 -0.691936 0.000110078 -0.721958 0.745577 -0.138177 -0.651937 
0.584627 -0.131499 -0.800574 0.340682 -0.170507 -0.924588 -0.0394633 -0.192027 -0.980596 
0.0156895 0.128225 -0.991621 -0.364976 -0.121368 -0.923072 -0.806717 -0.255564 -0.532817 
-0.764679 -0.338411 -0.548402 -0.720617 -0.250071 -0.646665 0.673376 -0.36041 -0.6455 
0.651725 -0.384682 -0.653663 0.64612 -0.36449 -0.670578 0.372867 -0.25595 -0.891885 
0.196839 -0.206471 -0.958449 -0.193855 -0.114812 -0.974289 -0.0277187 -0.128323 -0.991345 
0.206234 -0.186331 -0.960598 -0.2064 -0.17767 -0.962202 -0.715332 -0.400848 -0.572382 
-0.483798 -0.287291 -0.826682 0.539585 -0.426885 -0.725684 0.526108 -0.436967 -0.729569 
0.485727 -0.382395 -0.78603 0.268615 -0.302853 -0.914399 0.164035 -0.197839 -0.966412 
-0.202393 -0.0544624 -0.977789 -0.0985234 0.0172309 -0.994986 0.155783 -0.0934144 -0.983364 
0.16773 -0.172263 -0.970666 -0.149022 -0.224769 -0.962949 -0.351361 -0.319716 -0.879959 
-0.653844 -0.486217 -0.579724 -0.637373 -0.506163 -0.580995 -0.618871 -0.480459 -0.621416 
0.470514 -0.454565 -0.756298 0.413203 -0.480966 -0.773263 0.381297 -0.409596 -0.82876 
0.241438 -0.336992 -0.910024 0.120225 -0.289775 -0.949514 0.0164889 -0.241264 -0.970319 
-0.0878255 -0.143749 -0.985709 -0.0658549 -0.0382769 -0.997095 0.00902034 -0.0957828 -0.995361 
0.0228166 -0.272904 -0.961771 -0.0402137 -0.368788 -0.928643 -0.333148 -0.710281 -0.620091 
-0.217153 -0.467113 -0.857117 -0.550011 -0.60046 -0.580462 -0.512685 -0.630812 -0.582434 
-0.490377 -0.573808 -0.655954 0.321233 -0.529197 -0.785341 0.296659 -0.530363 -0.794172 
0.284756 -0.517362 -0.807001 0.218765 -0.541433 -0.811783 0.180252 -0.453803 -0.872681 
0.168232 -0.557616 -0.812873 0.0991932 -0.38751 -0.916513 0.0183563 -0.30128 -0.953359 
-0.0480899 -0.237603 -0.970171 -0.0825054 -0.285628 -0.954782 -0.250115 -0.616723 -0.746388 
-0.133077 -0.431197 -0.89239 -0.300704 -0.702854 -0.644649 -0.266266 -0.67663 -0.686495 
-0.232057 -0.637021 -0.735088 0.166581 -0.557524 -0.813276 0.0801107 -0.546292 -0.833755 
0.0712058 -0.496511 -0.865105 -0.0740032 -0.555472 -0.828236 -0.0562394 -0.50016 -0.864105 
-0.212039 -0.584467 -0.783223 -0.205879 -0.578289 -0.789427 -0.201607 -0.570035 -0.796501 
-0.00383362 0.243789 -0.969821 -0.0588269 0.236823 -0.96977 0.0986309 0.206428 -0.973478 
0.0333326 0.185307 -0.982115 0.0423759 0.158021 -0.986526 0.0453458 0.145341 -0.988342 
0.00399396 0.207385 -0.978251 -0.0589977 0.237512 -0.969591 -0.0586191 0.235691 -0.970059 
-0.0649253 0.269787 -0.960729 -0.0672705 0.182756 -0.980854 -0.0243582 0.165452 -0.985917 
-0.106791 0.253525 -0.961416 0.143256 0.238145 -0.960606 0.149499 0.237866 -0.959724 
0.0515829 0.148941 -0.9875 -0.00185364 0.0877269 -0.996143 0.0210837 0.0223615 -0.999528 
0.0324371 0.0200261 -0.999273 0.0181258 0.109622 -0.993808 -0.0353308 0.135894 -0.990093 
-0.0651215 0.09108 -0.993712 -0.0117575 0.128612 -0.991625 -0.133779 0.235314 -0.962668 
-0.100769 0.215444 -0.971303 -0.188357 0.193225 -0.962905 0.248551 0.0953227 -0.963917 
0.148516 0.105309 -0.983287 -0.00102772 0.0777847 -0.99697 -0.0700276 0.0229274 -0.997282 
-0.0225288 0.032351 -0.999223 0.0957969 0.0601604 -0.993581 0.0588298 -0.0405742 -0.997443 
-0.122106 -0.104016 -0.987052 -0.0991553 -0.118623 -0.987976 -0.0559083 -0.121092 -0.991066 
-0.0783508 -0.130674 -0.988325 0.0295743 -0.00210868 -0.99956 0.0254434 0.0515912 -0.998344 
-0.222585 0.145956 -0.963926 -0.165112 0.142092 -0.975986 0.306641 -0.00689439 -0.9518 
0.135676 -0.0133864 -0.990663 -0.0291845 -0.00544738 -0.999559 -0.0504607 -0.0238765 -0.998441 
0.058877 0.0476769 -0.997126 -0.0414838 0.0210507 -0.998917 -0.16493 -0.146845 -0.975313 
-0.134757 -0.182842 -0.973863 -0.17785 -0.175539 -0.968274 -0.0299635 -0.0222062 -0.999304 
0.152689 -0.000920894 -0.988274 0.166467 0.0097267 -0.985999 0.0351856 0.0392541 -0.99861 
-0.219108 0.0109866 -0.975639 -0.11302 -0.0137177 -0.993498 0.229591 -0.160258 -0.960003 
0.173518 -0.177127 -0.968771 0.150032 -0.151022 -0.977079 -0.0108096 -0.112223 -0.993624 
-0.0193646 -0.0419893 -0.99893 0.0204484 -0.0461952 -0.998723 -0.0815772 -0.18025 -0.980232 
-0.16849 -0.135086 -0.976403 -0.123747 -0.166457 -0.978253 0.000120127 -0.0491001 -0.998794 
0.0144143 0.0501726 -0.998637 0.0784642 -0.060746 -0.995064 0.0135971 0.00617505 -0.999888 
0.0770653 0.0868342 -0.993237 0.0696853 0.0626031 -0.995603 0.128142 0.0535559 -0.990309 
0.00179367 -0.0205119 -0.999788 -0.216047 -0.0743993 -0.973544 -0.191329 -0.141888 -0.971216 
-0.16404 -0.0630791 -0.984435 0.0987428 -0.155098 -0.982952 0.0906843 -0.151905 -0.984226 
0.0771219 -0.143724 -0.986608 0.0197926 -0.0407843 -0.998972 -0.123269 -0.080664 -0.98909 
-0.0545152 -0.0439305 -0.997546 0.147691 -0.0685619 -0.986654 0.142086 -0.0872655 -0.986 
0.107724 0.0154104 -0.994061 0.0251647 -0.0178335 -0.999524 -0.177444 -0.160916 -0.970886 
-0.129784 -0.19107 -0.972959 -0.080361 -0.104136 -0.991311 0.0822816 -0.129778 -0.988123 
0.0813819 -0.130161 -0.988147 0.081059 -0.128754 -0.988358 -0.0965486 -0.0873704 -0.991486 
-0.0406087 -0.130744 -0.990584 -0.0574748 -0.0974687 -0.993578 0.0606487 -0.184752 -0.980912 
-0.0555505 -0.203906 -0.977413 0.00143595 -0.204959 -0.97877 0.00486286 -0.19054 -0.981667 

