# vtk DataFile Version 4.2
vtk output
ASCII
DATASET POLYDATA
POINTS 544 float
-25.0859 -39.9211 -13.6037 -16.8269 -39.9211 -14.148 -8.56786 -39.9211 -15.6829 
-0.308822 -39.9211 -16.7035 7.95022 -39.9211 -16.4855 16.2093 -39.9211 -15.0812 
24.4683 -39.9211 -14.0188 -41.604 -31.6621 -15.1244 -33.345 -31.6621 -16.7809 
-25.0859 -31.6621 -17.2607 -16.8269 -31.6621 -17.3102 -8.56786 -31.6621 -18.2299 
-0.308822 -31.6621 -18.8322 7.95022 -31.6621 -18.3679 16.2093 -31.6621 -17.5768 
24.4683 -31.6621 -17.6361 32.7273 -31.6621 -17.1743 40.9864 -31.6621 -15.9747 
-49.863 -23.4031 -15.8352 -41.604 -23.4031 -17.9909 -33.345 -23.4031 -18.6297 
-25.0859 -23.4031 -18.9678 -16.8269 -23.4031 -17.8132 -8.56786 -23.4031 -18.1545 
-0.308822 -23.4031 -18.8659 7.95022 -23.4031 -17.7423 16.2093 -23.4031 -17.8588 
24.4683 -23.4031 -19.2439 32.7273 -23.4031 -18.7725 40.9864 -23.4031 -18.6055 
49.2454 -23.4031 -15.7627 -49.863 -15.144 -17.9163 -41.604 -15.144 -19.5065 
-33.345 -15.144 -20.0449 -25.0859 -15.144 -19.036 -16.8269 -15.144 -17.4572 
-8.56786 -15.144 -17.144 -0.308822 -15.144 -17.8388 7.95022 -15.144 -16.5382 
16.2093 -15.144 -17.542 24.4683 -15.144 -18.8476 32.7273 -15.144 -19.3397 
40.9864 -15.144 -18.9903 49.2454 -15.144 -16.8107 -58.1221 -6.88498 -15.2859 
-49.863 -6.88498 -18.8393 -41.604 -6.88498 -20.1007 -33.345 -6.88498 -20.1262 
-25.0859 -6.88498 -19.0618 -16.8269 -6.88498 -17.7514 -8.56786 -6.88498 -18.4414 
-0.308822 -6.88498 -18.2736 7.95022 -6.88498 -19.9348 16.2093 -6.88498 -17.9288 
24.4683 -6.88498 -17.8146 32.7273 -6.88498 -18.4746 40.9864 -6.88498 -18.7203 
49.2454 -6.88498 -17.7705 57.5044 -6.88498 -15.5096 -58.1221 1.37405 -15.8804 
-49.863 1.37405 -18.8274 -41.604 1.37405 -19.8755 -33.345 1.37405 -19.6929 
-25.0859 1.37405 -18.5962 -16.8269 1.37405 -17.6768 -8.56786 1.37405 -20.7051 
-0.308822 1.37405 -16.5518 7.95022 1.37405 -20.5177 16.2093 1.37405 -17.0422 
24.4683 1.37405 -16.7691 32.7273 1.37405 -18.0307 40.9864 1.37405 -18.4806 
49.2454 1.37405 -17.7375 57.5044 1.37405 -15.5748 -58.1221 9.63309 -14.1672 
-49.863 9.63309 -17.7406 -41.604 9.63309 -19.0442 -33.345 9.63309 -19.3123 
-25.0859 9.63309 -18.0389 -16.8269 9.63309 -16.8356 -8.56786 9.63309 -19.1504 
-0.308822 9.63309 -18.4308 7.95022 9.63309 -17.6106 16.2093 9.63309 -15.9972 
24.4683 9.63309 -17.209 32.7273 9.63309 -18.2922 40.9864 9.63309 -18.2018 
49.2454 9.63309 -17.228 57.5044 9.63309 -14.7338 -49.863 17.8921 -15.5265 
-41.604 17.8921 -17.4909 -33.345 17.8921 -17.6846 -25.0859 17.8921 -17.4435 
-16.8269 17.8921 -17.1199 -8.56786 17.8921 -17.0806 -0.308822 17.8921 -16.8777 
7.95022 17.8921 -17.5514 16.2093 17.8921 -17.1348 24.4683 17.8921 -17.1414 
32.7273 17.8921 -17.4377 40.9864 17.8921 -17.2864 49.2454 17.8921 -16.5787 
-41.604 26.1512 -14.5841 -33.345 26.1512 -15.6496 -25.0859 26.1512 -16.1533 
-16.8269 26.1512 -16.7634 -8.56786 26.1512 -16.1657 -0.308822 26.1512 -16.1654 
7.95022 26.1512 -17.0018 16.2093 26.1512 -17.1786 24.4683 26.1512 -16.4953 
32.7273 26.1512 -16.026 40.9864 26.1512 -14.7375 -25.0859 34.4102 -13.465 
-16.8269 34.4102 -14.0847 -8.56786 34.4102 -14.4258 -0.308822 34.4102 -14.4217 
7.95022 34.4102 -14.6389 16.2093 34.4102 -14.7491 24.4683 34.4102 -14.0107 
-25.0859 -40.4301 -13.2026 -16.8269 -41.0221 -13.2026 -8.56786 -42.5792 -13.2026 
-0.308822 -44.5356 -13.2026 -0.308822 -48.1802 -5.07617 7.95022 -44.5075 -13.2026 
7.95022 -48.1802 -5.09637 16.2093 -42.1868 -13.2026 24.4683 -40.8632 -13.2026 
-41.604 -34.5598 -13.2026 -41.604 -39.9211 -5.69017 -27.2181 -39.9211 -13.2026 
-33.345 -37.9254 -13.2026 -33.345 -39.9211 -11.3825 28.7031 -39.9211 -13.2026 
32.7273 -38.5116 -13.2026 32.7273 -39.9211 -11.8821 40.9864 -36.2715 -13.2026 
40.9864 -39.9211 -6.34981 -45.3554 -31.6621 -13.2026 -49.863 -27.1274 -13.2026 
-49.863 -31.6621 -8.64703 46.8871 -31.6621 -13.2026 49.2454 -29.1089 -13.2026 
49.2454 -31.6621 -11.2215 -53.5696 -23.4031 -13.2026 -58.1221 -23.4031 -6.82115 
55.2336 -23.4031 -13.2026 57.5044 -23.4031 -10.9776 -57.7695 -15.144 -13.2026 
-58.1221 -14.0897 -13.2026 -58.1221 -15.144 -12.8242 57.2141 -15.144 -13.2026 
57.5044 -14.6116 -13.2026 57.5044 -15.144 -13.0203 -60.4685 -6.88498 -13.2026 
61.4171 -6.88498 -13.2026 65.7635 -6.88498 -8.04428 -61.5756 1.37405 -13.2026 
-66.3811 1.37405 -6.56973 61.3967 1.37405 -13.2026 65.7635 1.37405 -8.92573 
-59.3078 9.63309 -13.2026 -58.1221 14.6247 -13.2026 60.1054 9.63309 -13.2026 
57.5044 14.4017 -13.2026 65.7635 9.63309 -7.5445 -56.715 17.8921 -13.2026 
-58.1221 17.8921 -12.228 -49.863 22.2228 -13.2026 55.402 17.8921 -13.2026 
49.2454 23.8712 -13.2026 57.5044 17.8921 -11.975 -44.8597 26.1512 -13.2026 
-49.863 26.1512 -9.90837 -41.604 28.71 -13.2026 -33.345 31.2781 -13.2026 
32.7273 32.7248 -13.2026 45.9443 26.1512 -13.2026 40.9864 29.0236 -13.2026 
49.2454 26.1512 -11.5373 -41.604 34.4102 -7.92417 -26.3543 34.4102 -13.2026 
-33.345 34.4102 -11.2052 -25.0859 34.8524 -13.2026 -16.8269 35.8459 -13.2026 
-8.56786 36.84 -13.2026 -0.308822 36.9043 -13.2026 7.95022 37.0094 -13.2026 
16.2093 37.0915 -13.2026 28.7576 34.4102 -13.2026 24.4683 35.7039 -13.2026 
32.7273 34.4102 -12.3298 40.9864 34.4102 -8.62571 -25.0859 42.6692 -5.6223 
-16.8269 42.6692 -7.77178 -8.56786 42.6692 -9.20048 -0.308822 42.6692 -9.38246 
7.95022 42.6692 -9.25379 16.2093 42.6692 -8.90809 24.4683 42.6692 -7.3142 
-0.308822 -48.2231 -4.94352 7.95022 -48.2277 -4.94352 -41.604 -40.3193 -4.94352 
-33.345 -43.6099 -4.94352 -25.0859 -44.7524 -4.94352 -16.8269 -45.8293 -4.94352 
-0.552577 -48.1802 -4.94352 -8.56786 -46.7578 -4.94352 -0.308822 -48.1802 -4.77893 
8.28155 -48.1802 -4.94352 7.95022 -48.1802 -4.72787 16.2093 -47.0112 -4.94352 
24.4683 -45.1154 -4.94352 32.7273 -43.3192 -4.94352 40.9864 -40.3962 -4.94352 
-42.2337 -39.9211 -4.94352 -49.863 -34.1794 -4.94352 -41.604 -39.9211 -3.37079 
42.001 -39.9211 -4.94352 40.9864 -39.9211 -2.95221 49.2454 -35.9727 -4.94352 
-52.2862 -31.6621 -4.94352 -58.1221 -24.4903 -4.94352 54.4366 -31.6621 -4.94352 
57.5044 -27.9539 -4.94352 -58.8652 -23.4031 -4.94352 -58.1221 -23.4031 -0.754522 
60.4997 -23.4031 -4.94352 -63.2786 -15.144 -4.94352 64.0956 -15.144 -4.94352 
65.7635 -10.7137 -4.94352 -65.851 -6.88498 -4.94352 -66.3811 -3.41261 -4.94352 
67.0575 -6.88498 -4.94352 65.7635 -6.88498 2.72021 -67.0629 1.37405 -4.94352 
-66.3811 5.93611 -4.94352 -66.3811 1.37405 0.453873 67.7306 1.37405 -4.94352 
-65.7492 9.63309 -4.94352 67.1019 9.63309 -4.94352 65.7635 13.3374 -4.94352 
-62.1888 17.8921 -4.94352 -58.1221 23.6296 -4.94352 63.8905 17.8921 -4.94352 
57.5044 25.8161 -4.94352 -55.3934 26.1512 -4.94352 -49.863 31.3936 -4.94352 
57.0755 26.1512 -4.94352 49.2454 32.0582 -4.94352 -45.6142 34.4102 -4.94352 
-41.604 36.43 -4.94352 -33.345 39.6637 -4.94352 32.7273 42.2153 -4.94352 
45.8567 34.4102 -4.94352 40.9864 37.3522 -4.94352 -26.2259 42.6692 -4.94352 
-25.0859 43.0873 -4.94352 -16.8269 44.9069 -4.94352 -8.56786 46.3093 -4.94352 
-0.308822 46.579 -4.94352 7.95022 46.4015 -4.94352 16.2093 45.9808 -4.94352 
31.2932 42.6692 -4.94352 24.4683 44.6083 -4.94352 32.7273 42.6692 -2.93857 
-33.345 -41.5559 3.31552 -25.0859 -42.8461 3.31552 -16.8269 -43.6409 3.31552 
-8.56786 -44.2573 3.31552 -0.308822 -45.7753 3.31552 7.95022 -46.1122 3.31552 
16.2093 -44.6819 3.31552 24.4683 -43.1208 3.31552 32.7273 -41.4906 3.31552 
-49.863 -31.7949 3.31552 -37.5443 -39.9211 3.31552 -41.604 -37.7979 3.31552 
-33.345 -39.9211 5.54025 -25.0859 -39.9211 7.2056 -16.8269 -39.9211 8.01268 
-8.56786 -39.9211 9.0801 -0.308822 -39.9211 10.5973 7.95022 -39.9211 10.6568 
16.2093 -39.9211 8.99778 24.4683 -39.9211 7.28419 37.0937 -39.9211 3.31552 
32.7273 -39.9211 5.79282 40.9864 -38.1366 3.31552 49.2454 -33.6984 3.31552 
-49.9957 -31.6621 3.31552 -49.863 -31.6621 3.46284 -41.604 -31.6621 9.94773 
40.9864 -31.6621 9.87946 51.4894 -31.6621 3.31552 49.2454 -31.6621 5.57566 
57.5044 -24.7918 3.31552 -57.2597 -23.4031 3.31552 -58.1221 -22.0332 3.31552 
-49.863 -23.4031 10.9282 49.2454 -23.4031 10.4207 58.5602 -23.4031 3.31552 
57.5044 -23.4031 4.49962 -61.8919 -15.144 3.31552 -58.1221 -15.144 8.38661 
62.6536 -15.144 3.31552 57.5044 -15.144 9.22641 -64.5746 -6.88498 3.31552 
65.6349 -6.88498 3.31552 65.7635 -5.90007 3.31552 -65.9667 1.37405 3.31552 
66.4905 1.37405 3.31552 65.7635 1.37405 4.40556 -64.8695 9.63309 3.31552 
66.1297 9.63309 3.31552 65.7635 10.6993 3.31552 65.7635 9.63309 3.88014 
-61.7285 17.8921 3.31552 -58.1221 23.697 3.31552 -58.1221 17.8921 9.01677 
63.0739 17.8921 3.31552 57.5044 25.2136 3.31552 57.5044 17.8921 10.3889 
-56.2364 26.1512 3.31552 -49.863 32.5075 3.31552 56.6369 26.1512 3.31552 
49.2454 32.6743 3.31552 49.2454 26.1512 10.8439 -47.1389 34.4102 3.31552 
-41.604 37.6643 3.31552 -41.604 34.4102 9.97258 -33.345 41.472 3.31552 
47.0057 34.4102 3.31552 40.9864 38.7119 3.31552 40.9864 34.4102 9.66427 
-30.2502 42.6692 3.31552 -25.0859 44.5706 3.31552 -25.0859 42.6692 9.25019 
-16.8269 47.0483 3.31552 -8.56786 48.4711 3.31552 -0.308822 48.8283 3.31552 
7.95022 48.7376 3.31552 16.2093 48.4445 3.31552 24.4683 47.1233 3.31552 
34.6658 42.6692 3.31552 32.7273 43.7646 3.31552 32.7273 42.6692 6.71625 
-33.345 -32.4275 11.5746 -25.0859 -34.2354 11.5746 -16.8269 -35.6584 11.5746 
-8.56786 -37.1011 11.5746 -0.308822 -38.5559 11.5746 7.95022 -38.348 11.5746 
16.2093 -36.12 11.5746 24.4683 -34.9059 11.5746 32.7273 -33.037 11.5746 
-35.7226 -31.6621 11.5746 -41.604 -29.0546 11.5746 -33.345 -31.6621 12.03 
-25.0859 -31.6621 13.1803 -16.8269 -31.6621 14.0808 -8.56786 -31.6621 15.0365 
-0.308822 -31.6621 15.2823 7.95022 -31.6621 14.5736 16.2093 -31.6621 13.9581 
24.4683 -31.6621 13.7344 35.6855 -31.6621 11.5746 32.7273 -31.6621 12.5001 
40.9864 -29.0263 11.5746 -48.4291 -23.4031 11.5746 -49.863 -21.9753 11.5746 
-41.604 -23.4031 14.0245 -33.345 -23.4031 15.9423 -25.0859 -23.4031 16.8118 
-16.8269 -23.4031 17.2072 -8.56786 -23.4031 17.6995 -0.308822 -23.4031 16.879 
7.95022 -23.4031 15.658 16.2093 -23.4031 15.7331 24.4683 -23.4031 15.9287 
[...]
POINT_DATA 544
SCALARS ImageScalars float
LOOKUP_TABLE default
0 0 0 0 0 0 0 0 0 
0 0 0 0 0 0 0 0 0 
0 0 0 0 0 0 0 0 0 
0 0 0 0 0 0 0 0 0 
0 0 0 0 0 0 0 0 0 
0 0 0 0 0 0 0 0 0 
0 0 0 0 0 0 0 0 0 
0 0 0 0 0 0 0 0 0 
0 0 0 0 0 0 0 0 0 
0 0 0 0 0 0 0 0 0 
0 0 0 0 0 0 0 0 0 
0 0 0 0 0 0 0 0 0 
0 0 0 0 0 0 0 0 0 
0 0 0 0 0 0 0 0 0 
0 0 0 0 0 0 0 0 0 
0 0 0 0 0 0 0 0 0 
0 0 0 0 0 0 0 0 0 
0 0 0 0 0 0 0 0 0 
0 0 0 0 0 0 0 0 0 
0 0 0 0 0 0 0 0 0 
0 0 0 0 0 0 0 0 0 
0 0 0 0 0 0 0 0 0 
0 0 0 0 0 0 0 0 0 
0 0 0 0 0 0 0 0 0 
0 0 0 0 0 0 0 0 0 
0 0 0 0 0 0 0 0 0 
0 0 0 0 0 0 0 0 0 
0 0 0 0 0 0 0 0 0 
0 0 0 0 0 0 0 0 0 
0 0 0 0 0 0 0 0 0 
0 0 0 0 0 0 0 0 0 
0 0 0 0 0 0 0 0 0 
0 0 0 0 0 0 0 0 0 
0 0 0 0 0 0 0 0 0 
0 0 0 0 0 0 0 0 0 
0 0 0 0 0 0 0 0 0 
0 0 0 0 0 0 0 0 0 
0 0 0 0 0 0 0 0 0 
0 0 0 0 0 0 0 0 0 
0 0 0 0 0 0 0 0 0 
0 0 0 0 0 0 0 0 0 
0 0 0 0 0 0 0 0 0 
0 0 0 0 0 0 0 0 0 
0 0 0 0 0 0 0 0 0 
0 0 0 0 0 0 0 0 0 
0 0 0 0 0 0 0 0 0 
0 0 0 0 0 0 0 0 0 
0 0 0 0 0 0 0 0 0 
0 0 0 0 0 0 0 0 0 
0 0 0 0 0 0 0 0 0 
0 0 0 0 0 0 0 0 0 
0 0 0 0 0 0 0 0 0 
0 0 0 0 0 0 0 0 0 
0 0 0 0 0 0 0 0 0 
0 0 0 0 0 0 0 0 0 
0 0 0 0 0 0 0 0 0 
0 0 0 0 0 0 0 0 0 
0 0 0 0 0 0 0 0 0 
0 0 0 0 0 0 0 0 0 
0 0 0 0 0 0 0 0 0 
0 0 0 0 
NORMALS Normals float
-0.111693 -0.625031 -0.772568 -0.110516 -0.574023 -0.811347 -0.147388 -0.554811 -0.818817 
-0.0374615 -0.461619 -0.886287 0.0849812 -0.429169 -0.899218 0.154057 -0.502422 -0.850787 
0.142582 -0.631185 -0.762414 -0.306844 -0.445151 -0.841242 -0.132041 -0.316011 -0.939522 
-0.0275728 -0.284341 -0.958327 -0.0608584 -0.189334 -0.980025 -0.0889239 -0.113648 -0.989534 
-0.0095024 -0.121808 -0.992508 0.0749595 -0.0715922 -0.994613 0.0445054 -0.141245 -0.988974 
0.0202863 -0.289701 -0.956902 0.10802 -0.366075 -0.924295 0.24671 -0.404089 -0.880822 
-0.413561 -0.407874 -0.814006 -0.133324 -0.278703 -0.951078 -0.0545646 -0.183383 -0.981526 
0.0513191 -0.117117 -0.991791 0.0485936 -0.00789021 -0.998787 -0.0653894 0.0674011 -0.995581 
0.0271181 0.0599804 -0.997831 0.061673 0.109662 -0.992054 -0.08848 0.00250534 -0.996075 
-0.0569783 -0.0775556 -0.995359 0.0373405 -0.118627 -0.992236 0.182457 -0.191106 -0.964463 
0.354636 -0.235909 -0.904754 -0.324396 -0.138116 -0.935784 -0.126778 -0.113198 -0.985451 
0.0260867 -0.0873003 -0.99584 0.154707 -0.00556182 -0.987945 0.113944 0.00429093 -0.993478 
-0.0234871 -0.0126668 -0.999644 0.0348745 0.0366479 -0.99872 0.0184529 -0.0908684 -0.995692 
-0.138163 -0.0028646 -0.990405 -0.107567 0.0831126 -0.990718 -0.00692523 0.0186036 -0.999803 
0.14165 -0.00444583 -0.989907 0.313392 -0.112333 -0.942956 -0.566251 -0.142164 -0.81188 
-0.240404 -0.0599267 -0.968821 -0.0718904 -0.0253344 -0.997091 0.0626961 0.0213143 -0.997805 
0.140075 0.0263155 -0.989791 0.0423684 -0.0134625 -0.999011 -0.0329154 -0.212426 -0.976623 
-0.0714355 0.0641181 -0.995382 0.0178986 -0.262638 -0.964728 0.110901 0.0196533 -0.993637 
-0.033909 0.127545 -0.991253 -0.0543174 0.080221 -0.995296 0.0401894 0.0321261 -0.998675 
0.167051 -0.0540768 -0.984464 0.431358 -0.136058 -0.891863 -0.50502 0.0550768 -0.861349 
-0.202383 0.0641226 -0.977205 -0.0479074 0.0684745 -0.996502 0.0769618 0.0487939 -0.995839 
0.121036 0.0589378 -0.990897 -0.106784 0.0569873 -0.992648 0.0356143 -0.0452561 -0.99834 
0.0104071 -0.0116281 -0.999878 -0.0469673 0.159873 -0.98602 0.228365 0.130304 -0.964816 
-0.0645799 0.035274 -0.997289 -0.105429 0.0111281 -0.994365 0.0167306 0.0313685 -0.999368 
0.14993 0.0319953 -0.988179 0.428702 0.0423029 -0.902455 -0.551967 0.175831 -0.815117 
-0.251883 0.196807 -0.947535 -0.0865793 0.129498 -0.987793 0.0535832 0.120236 -0.991298 
0.15292 0.0715227 -0.985647 -0.0539772 0.0340193 -0.997962 -0.103345 0.224331 -0.969018 
0.0880372 -0.00415905 -0.996109 0.147543 0.157552 -0.976426 0.0236374 -0.0204805 -0.999511 
-0.137931 -0.022245 -0.990192 -0.0597747 0.0355332 -0.997579 0.0615334 0.0682245 -0.995771 
0.182506 0.0614586 -0.981282 0.423019 0.185633 -0.886902 -0.264213 0.348926 -0.899134 
-0.132111 0.282615 -0.950092 0.00415178 0.207522 -0.978221 0.0333045 0.106844 -0.993718 
0.0220421 0.00373613 -0.99975 0.0142766 0.158943 -0.987185 -0.0281828 0.135227 -0.990414 
-0.015239 0.0362358 -0.999227 0.0247334 -0.0711827 -0.997157 -0.0182142 0.0420843 -0.998948 
-0.00937128 0.130538 -0.991399 0.0445585 0.216647 -0.975233 0.277441 0.276739 -0.920023 
-0.248215 0.412076 -0.876689 -0.0949871 0.343508 -0.934334 -0.0635551 0.230895 -0.970901 
-5.18695e-05 0.16474 -0.986337 0.0347677 0.158177 -0.986798 -0.050011 0.147631 -0.987777 
-0.0610114 0.165096 -0.984389 0.0294974 0.132695 -0.990718 0.0684355 0.172187 -0.982684 
0.108044 0.288313 -0.951421 0.201401 0.380649 -0.902521 -0.134584 0.453009 -0.881289 
-0.0564818 0.433187 -0.899532 -0.0177016 0.337699 -0.941088 -0.011809 0.335894 -0.941826 
-0.0192858 0.390346 -0.920466 0.0334969 0.409916 -0.911508 0.130465 0.43047 -0.893126 
-0.116199 -0.651854 -0.749389 -0.102496 -0.639307 -0.76209 -0.16957 -0.697874 -0.695858 
-0.0930617 -0.721597 -0.68603 -0.0883821 -0.995314 -0.0392203 0.105333 -0.695752 -0.710517 
0.0709345 -0.996048 -0.0534517 0.180486 -0.644775 -0.742759 0.148118 -0.678724 -0.719301 
-0.341892 -0.560466 -0.754312 -0.47438 -0.864376 -0.166785 -0.152631 -0.648677 -0.745602 
-0.235815 -0.610241 -0.756305 -0.273461 -0.773836 -0.571312 0.162953 -0.661663 -0.73188 
0.174441 -0.628847 -0.757708 0.205614 -0.738536 -0.642096 0.303417 -0.639188 -0.706666 
0.396115 -0.909192 -0.128307 -0.437023 -0.505859 -0.743719 -0.499608 -0.508603 -0.701224 
-0.667277 -0.647921 -0.367342 0.448331 -0.50649 -0.736524 0.47037 -0.455242 -0.75598 
0.563786 -0.603363 -0.564002 -0.562129 -0.455502 -0.690311 -0.825319 -0.52313 -0.212563 
0.561864 -0.311292 -0.766424 0.727351 -0.382674 -0.569667 -0.667311 -0.239141 -0.705342 
-0.669162 -0.229312 -0.706851 -0.691138 -0.250134 -0.678057 0.546826 -0.179586 -0.817759 
0.546777 -0.179428 -0.817827 0.563473 -0.187773 -0.804512 -0.662584 -0.157816 -0.732172 
0.581287 -0.15646 -0.798515 0.91125 -0.209589 -0.354536 -0.647417 0.0440634 -0.760861 
-0.966705 0.00935966 -0.255723 0.566982 0.0405229 -0.822733 0.883286 0.0207317 -0.468376 
-0.599274 0.178904 -0.780297 -0.576212 0.271839 -0.770768 0.514138 0.196615 -0.834868 
0.479239 0.271571 -0.834614 0.895785 0.235596 -0.376914 -0.525004 0.346048 -0.777574 
-0.615955 0.364221 -0.698529 -0.327357 0.459707 -0.825534 0.466287 0.332762 -0.819662 
0.359838 0.480971 -0.79949 0.54845 0.368968 -0.750377 -0.314196 0.465715 -0.827279 
-0.476817 0.614284 -0.62873 -0.269568 0.493483 -0.826926 -0.16216 0.488504 -0.857361 
0.19851 0.434281 -0.878632 0.305414 0.477532 -0.823824 0.243996 0.47305 -0.846575 
0.41853 0.578326 -0.700266 -0.358928 0.778145 -0.515424 -0.14537 0.472943 -0.869018 
-0.230585 0.626421 -0.744598 -0.138036 0.469576 -0.872035 -0.0649166 0.47729 -0.876345 
-0.034558 0.419397 -0.907145 -0.00520815 0.418343 -0.908274 -0.0058159 0.465929 -0.884803 
0.044537 0.494795 -0.867868 0.178662 0.454706 -0.872538 0.130661 0.474709 -0.87039 
0.237557 0.496436 -0.834936 0.393162 0.729127 -0.560177 -0.271604 0.864751 -0.422418 
-0.145029 0.775901 -0.613958 -0.0708395 0.710227 -0.700399 -0.00237025 0.689568 -0.724217 
0.0213448 0.708206 -0.705683 0.0826452 0.734612 -0.673435 0.181124 0.785173 -0.592197 
-0.0877921 -0.995654 -0.0310621 0.0703246 -0.996539 -0.0443285 -0.476822 -0.870905 -0.119017 
-0.241646 -0.964949 -0.102376 -0.138009 -0.987637 -0.074345 -0.119012 -0.988656 -0.091629 
-0.0899368 -0.99545 -0.0314853 -0.153332 -0.986734 -0.0533367 -0.088478 -0.995818 -0.0227435 
0.0748281 -0.996162 -0.0454088 0.0701466 -0.996965 -0.033764 0.191969 -0.978227 -0.0788657 
0.235269 -0.967334 -0.0944112 0.263994 -0.960296 -0.0902134 0.3985 -0.916069 -0.0448828 
-0.49208 -0.862702 -0.116631 -0.682111 -0.722871 -0.110374 -0.486635 -0.873449 -0.0165079 
0.418794 -0.906861 -0.0470554 0.403369 -0.912953 0.0617321 0.58487 -0.803792 -0.108836 
-0.721211 -0.682457 -0.118773 -0.828313 -0.552622 -0.0922297 0.717968 -0.688966 -0.0992331 
0.806379 -0.58527 -0.0849243 -0.842176 -0.530764 -0.0950199 -0.826585 -0.545579 0.138207 
0.868711 -0.48261 -0.111485 -0.904776 -0.397903 -0.151835 0.91742 -0.360191 -0.169125 
0.950854 -0.280918 -0.130234 -0.966574 -0.211272 -0.145255 -0.98199 -0.121985 -0.144278 
0.96902 -0.211707 -0.127203 0.896788 -0.22659 0.380039 -0.988983 0.00382599 -0.147978 
-0.97363 0.150238 -0.171675 -0.985603 -0.00922718 0.168825 0.985753 -0.00321564 -0.168166 
-0.943132 0.268426 -0.196084 0.956197 0.222778 -0.189887 0.919005 0.338802 -0.201602 
-0.849092 0.486515 -0.205781 -0.731638 0.645831 -0.218194 0.844375 0.480221 -0.237527 
0.649169 0.726583 -0.225073 -0.656585 0.699845 -0.281271 -0.570389 0.751323 -0.331919 
0.642239 0.731807 -0.228009 0.572775 0.761991 -0.302156 -0.484204 0.809982 -0.330871 
-0.403139 0.842641 -0.356982 -0.335323 0.848413 -0.409577 0.362591 0.847124 -0.388471 
0.523517 0.787944 -0.324152 0.461292 0.806978 -0.368776 -0.287633 0.875757 -0.387707 
-0.277872 0.878658 -0.388263 -0.184499 0.86105 -0.47387 -0.0938224 0.86801 -0.487602 
-0.00513503 0.860948 -0.508666 0.0325857 0.862649 -0.504752 0.0945924 0.859643 -0.502062 
0.336049 0.851161 -0.403232 0.213075 0.843393 -0.493242 0.393066 0.878444 -0.271726 
-0.253118 -0.852107 0.458089 -0.117876 -0.8821 0.456076 -0.0824086 -0.879734 0.46827 
-0.115336 -0.882627 0.455705 -0.100753 -0.889104 0.446478 0.0579774 -0.896346 0.439549 
0.166969 -0.870875 0.462275 0.187393 -0.865669 0.46422 0.260339 -0.870457 0.417765 
-0.601037 -0.680091 0.4198 -0.359242 -0.812905 0.4584 -0.456504 -0.760183 0.462304 
-0.251427 -0.793223 0.554601 -0.105215 -0.76826 0.631432 -0.0805105 -0.738491 0.66944 
-0.110601 -0.7252 0.679597 -0.0654481 -0.642504 0.763482 0.0717997 -0.594733 0.80071 
0.157718 -0.678133 0.717817 0.135735 -0.754864 0.641683 0.319601 -0.846494 0.425797 
0.242573 -0.804178 0.542639 0.373462 -0.810699 0.450881 0.56774 -0.686062 0.454961 
-0.601457 -0.679913 0.419486 -0.598639 -0.677308 0.42765 -0.366889 -0.5745 0.731671 
0.30116 -0.576608 0.759491 0.616742 -0.643747 0.453011 0.559707 -0.630002 0.538354 
0.70216 -0.551996 0.449747 -0.763352 -0.530723 0.368277 -0.781145 -0.506492 0.365074 
-0.464462 -0.448177 0.763815 0.477504 -0.359009 0.801936 0.725758 -0.532773 0.435233 
0.680611 -0.533287 0.502368 -0.843865 -0.390757 0.367696 -0.680989 -0.387661 0.621267 
0.848907 -0.328666 0.413926 0.607514 -0.325267 0.724657 -0.909099 -0.219593 0.354004 
0.880323 -0.224322 0.417984 0.886422 -0.20116 0.416883 -0.941263 -0.0155938 0.337315 
0.916471 -0.0266503 0.399213 0.888213 -0.0293316 0.458494 -0.916224 0.230123 0.327989 
0.908665 0.191406 0.371069 0.900561 0.225631 0.371592 0.897323 0.190781 0.398013 
-0.857675 0.427617 0.285546 -0.781131 0.579138 0.233311 -0.707979 0.390174 0.588668 
0.829638 0.438776 0.345219 0.70943 0.642785 0.289026 0.595009 0.395827 0.699489 
-0.745269 0.638361 0.192536 -0.621027 0.76593 0.166365 0.694484 0.663848 0.277487 
0.616261 0.757734 0.214618 0.526003 0.49129 0.69423 -0.558239 0.814234 0.15935 
-0.471729 0.874191 0.115157 -0.49749 0.720526 0.483058 -0.382558 0.923041 0.0405606 
0.599777 0.774986 0.199159 0.553452 0.817918 0.157165 0.513349 0.647967 0.562683 
-0.353804 0.934155 0.0466694 -0.315164 0.947454 0.0548034 -0.28399 0.874201 0.393855 
-0.22463 0.973649 0.0393628 -0.109866 0.992989 0.0436192 -0.0160712 0.999381 0.0313072 
0.0232545 0.999583 0.0171452 0.0932233 0.995471 0.0186026 0.277842 0.959466 0.0471999 
0.473326 0.877428 0.077993 0.447771 0.891772 0.0651447 0.450765 0.847825 0.279292 
-0.151673 -0.495209 0.855431 -0.109302 -0.537822 0.835943 -0.0993175 -0.560917 0.821893 
-0.0948459 -0.604093 0.79125 -0.0476151 -0.576672 0.815587 0.073802 -0.515878 0.853477 
0.107422 -0.505808 0.855931 0.0976091 -0.54333 0.833826 0.210619 -0.515339 0.830702 
-0.201074 -0.499223 0.84282 -0.317533 -0.497064 0.807527 -0.145865 -0.476817 0.866816 
-0.113011 -0.467906 0.876523 -0.101033 -0.448572 0.888018 -0.0662481 -0.429428 0.900668 
0.0269556 -0.325991 0.944988 0.0744813 -0.267849 0.960578 0.0483885 -0.339535 0.939348 
0.0729977 -0.431253 0.899273 0.239874 -0.508125 0.827206 0.206034 -0.477569 0.854095 
0.284092 -0.475873 0.832368 -0.418634 -0.431271 0.799219 -0.452205 -0.421652 0.785952 
-0.262271 -0.395724 0.880123 -0.152044 -0.391026 0.907734 -0.0694418 -0.36541 0.928253 
-0.0515309 -0.33337 0.941387 0.0202046 -0.270647 0.962466 0.123505 -0.135037 0.983113 
0.0677681 -0.0406724 0.996872 -0.0158075 -0.124282 0.992121 -0.00341384 -0.198081 0.98018 
0.105737 -0.236168 0.965942 0.41869 -0.331252 0.84556 0.268901 -0.300292 0.91516 
0.421255 -0.308104 0.853004 -0.533915 -0.360587 0.764796 -0.643494 -0.233856 0.728854 
-0.450285 -0.322743 0.832515 -0.237648 -0.310865 0.920264 -0.128211 -0.3178 0.939449 
0.281356 -0.151952 0.947497 0.0779825 -0.123462 0.98928 -0.10913 -0.0740146 0.991268 
-0.0454207 -0.0932978 0.994602 0.0650571 -0.130537 0.989307 0.199588 -0.181166 0.962987 
0.436485 -0.289237 0.851952 0.350238 -0.253512 0.901701 0.540219 -0.197451 0.818032 
-0.681895 -0.173257 0.710635 -0.643382 -0.174132 0.745478 -0.394179 -0.158288 0.9053 
-0.273879 -0.124611 0.953657 0.129613 -0.0673173 0.989277 0.158952 -0.376341 0.912744 
0.0330886 -0.13609 0.990144 -0.0643538 -0.0894917 0.993906 0.0147537 -0.104954 0.994368 
0.162033 -0.119482 0.979525 0.28945 -0.154193 0.944692 0.563236 -0.155885 0.811458 
0.528096 -0.150885 0.835673 -0.669717 -0.0144765 0.742475 -0.631204 -0.0147206 0.775477 
-0.372745 -0.011733 0.92786 -0.0593075 -0.20927 0.976058 0.142587 -0.124649 0.981902 
-0.0134852 -0.110998 0.993729 0.0365084 -0.0795052 0.996166 0.154131 -0.065961 0.985846 
0.317448 -0.0562098 0.946608 0.573129 -0.0578135 0.817423 0.545198 -0.0580689 0.836294 
-0.690244 0.144989 0.708901 -0.657636 0.233984 0.716077 -0.642861 0.140048 0.753071 
-0.372188 0.147707 0.916329 -0.2245 0.0566419 0.972827 0.0765212 -0.0519332 0.995715 
-0.0197117 -0.0486796 0.99862 0.057742 -0.025834 0.997997 0.185201 0.0199022 0.982499 
0.311104 0.0395688 0.949552 0.617411 0.103241 0.779837 0.568941 0.292331 0.768667 
0.52749 0.0853864 0.845259 -0.587615 0.335684 0.736223 -0.470565 0.254355 0.84491 
-0.307648 0.177525 0.934793 0.10057 0.0822798 0.991522 0.0168348 -0.0216207 0.999624 
0.0129461 0.0100141 0.999866 0.103612 0.117216 0.987687 0.204336 0.190841 0.960118 
0.533407 0.37117 0.760072 0.49676 0.448471 0.743037 0.391344 0.267772 0.880425 
-0.57716 0.475026 0.664257 -0.563324 0.494901 0.661618 -0.554528 0.462076 0.692087 
-0.480989 0.641351 0.597761 -0.356482 0.373717 0.856304 -0.234251 0.275667 0.932273 
0.0525654 0.16615 0.984698 0.00787662 0.0880347 0.996086 0.00783582 0.0710136 0.997445 
0.121206 0.0889377 0.988635 0.222792 0.238318 0.945288 0.493407 0.459356 0.738608 
0.457585 0.545379 0.702266 0.329548 0.356657 0.874182 -0.472023 0.667362 0.576041 
-0.370015 0.749993 0.548269 -0.32372 0.565176 0.758802 -0.253768 0.794317 0.551963 
-0.169426 0.467065 0.867839 -0.0445397 0.405556 0.912984 0.017778 0.326224 0.945125 
0.013215 0.278174 0.96044 -0.0026634 0.259908 0.96563 0.0194907 0.275191 0.961192 
0.190032 0.346976 0.91842 0.459268 0.55393 0.69443 0.409263 0.638331 0.651949 
0.366242 0.415731 0.832487 -0.220665 0.800253 0.557586 -0.17314 0.792521 0.584751 
-0.154731 0.742887 0.651289 -0.0930598 0.758285 0.645247 -0.066519 0.650989 0.756167 
-0.0344055 0.7545 0.655398 -0.025922 0.607769 0.79369 0.0162702 0.765057 0.643757 
0.0104208 0.609055 0.79306 0.120554 0.774024 0.621574 0.114019 0.656604 0.745567 
0.280262 0.711679 0.644179 0.239223 0.716551 0.655231 0.231373 0.694396 0.681381 
-0.0534179 -0.32929 0.942717 0.00592261 -0.306114 0.951977 0.128086 -0.188591 0.973667 
-0.0713723 -0.324376 0.943232 -0.140452 -0.26801 0.953123 -0.0520858 -0.326282 0.943836 
0.0101247 -0.303697 0.952715 0.133954 -0.186164 0.973344 0.130208 -0.186833 0.973724 
-0.26155 -0.126397 0.956878 -0.261165 -0.0460016 0.964197 -0.165137 -0.139689 0.976328 
-0.0569462 -0.137723 0.988832 0.0957311 -0.132137 0.986598 0.144226 -0.0523316 0.98816 
0.187501 -0.0222391 0.982013 0.0993927 -0.256755 0.961352 -0.256665 0.0144913 0.966392 
-0.242946 0.0264369 0.969679 -0.248977 0.0163964 0.968371 -0.141551 0.0362727 0.989266 
-0.0422146 0.0476652 0.997971 0.122744 0.0448186 0.991426 0.132035 -0.115927 0.984443 
0.207583 -0.0718954 0.975572 -0.0197566 -0.175411 0.984297 -0.0249788 -0.193187 0.980844 
0.0883915 -0.122103 0.988574 0.0420026 -0.114006 0.992592 -0.196417 0.0572634 0.978847 
-0.134744 0.0670566 0.988609 -0.0494014 0.0417593 0.997906 -0.0178247 0.0424195 0.998941 
-0.0513737 -0.0761498 0.995772 0.0688419 -0.109461 0.991604 0.149076 0.0145378 0.988719 
0.116777 0.0831787 0.989669 0.220865 0.0846975 0.97162 -0.233069 0.141588 0.962098 
-0.192472 0.183355 0.96402 -0.162703 0.109995 0.980525 -0.0676148 0.0801823 0.994484 
0.00781533 0.0410386 0.999127 0.0307736 0.101061 0.994404 0.102434 0.0931298 0.990371 
0.0656359 0.17003 0.98325 0.11672 0.186019 0.975589 -0.153872 0.242458 0.957882 
-0.127426 0.25974 0.957234 -0.120738 0.228382 0.966056 -0.0183888 0.284572 0.958478 
0.00131329 0.176658 0.984271 0.0727489 0.174276 0.982006 0.0782447 0.207901 0.975015 
0.09259 0.183456 0.978658 
