# vtk DataFile Version 4.2
vtk output
ASCII
DATASET POLYDATA
POINTS 490 float
-0.149009 -33.3587 -19.313 -22.418 -25.9357 -19.0797 -14.995 -25.9357 -21.568 
-7.572 -25.9357 -23.1273 -0.149009 -25.9357 -23.724 7.27399 -25.9357 -22.9224 
14.697 -25.9357 -21.1338 -29.841 -18.5127 -20.5312 -22.418 -18.5127 -23.2707 
-14.995 -18.5127 -24.7069 -7.572 -18.5127 -25.2418 -0.149009 -18.5127 -25.0331 
7.27399 -18.5127 -24.6744 14.697 -18.5127 -23.4726 22.12 -18.5127 -21.7407 
29.543 -18.5127 -19.3838 -37.264 -11.0897 -18.889 -29.841 -11.0897 -23.2338 
-22.418 -11.0897 -24.9683 -14.995 -11.0897 -25.2511 -7.572 -11.0897 -25.2828 
-0.149009 -11.0897 -25.1366 7.27399 -11.0897 -24.9882 14.697 -11.0897 -24.1585 
22.12 -11.0897 -23.0369 29.543 -11.0897 -21.4362 -37.264 -3.6667 -20.8588 
-29.841 -3.6667 -24.6575 -22.418 -3.6667 -25.4404 -14.995 -3.6667 -25.2389 
-7.572 -3.6667 -25.1134 -0.149009 -3.6667 -25.7811 7.27399 -3.6667 -25.7965 
14.697 -3.6667 -24.714 22.12 -3.6667 -23.9227 29.543 -3.6667 -22.7449 
36.966 -3.6667 -19.8323 -37.264 3.7563 -21.3521 -29.841 3.7563 -25.3214 
-22.418 3.7563 -25.7903 -14.995 3.7563 -25.3106 -7.572 3.7563 -24.9748 
-0.149009 3.7563 -25.5476 7.27399 3.7563 -25.5889 14.697 3.7563 -25.1951 
22.12 3.7563 -24.908 29.543 3.7563 -24.0892 36.966 3.7563 -20.5727 
-37.264 11.1793 -19.8141 -29.841 11.1793 -24.5978 -22.418 11.1793 -26.0567 
-14.995 11.1793 -25.5365 -7.572 11.1793 -25.0438 -0.149009 11.1793 -24.6759 
7.27399 11.1793 -24.9338 14.697 11.1793 -25.5793 22.12 11.1793 -25.8482 
29.543 11.1793 -24.2616 36.966 11.1793 -19.6259 -29.841 18.6023 -22.3234 
-22.418 18.6023 -24.5841 -14.995 18.6023 -25.5554 -7.572 18.6023 -26.0122 
-0.149009 18.6023 -25.5071 7.27399 18.6023 -25.7466 14.697 18.6023 -25.7968 
22.12 18.6023 -25.329 29.543 18.6023 -22.8628 -22.418 26.0253 -21.5685 
-14.995 26.0253 -24.9076 -7.572 26.0253 -25.6768 -0.149009 26.0253 -26.043 
7.27399 26.0253 -25.6144 14.697 26.0253 -25.706 22.12 26.0253 -23.6477 
29.543 26.0253 -19.523 -14.995 33.4483 -20.0583 -7.572 33.4483 -22.9377 
-0.149009 33.4483 -23.8387 7.27399 33.4483 -23.4259 14.697 33.4483 -22.4535 
22.12 33.4483 -18.9863 -0.149009 -34.0019 -18.7154 -22.418 -26.3547 -18.7154 
-14.995 -29.5761 -18.7154 -14.995 -33.3587 -14.2738 -4.02171 -33.3587 -18.7154 
-7.572 -32.6285 -18.7154 -7.572 -33.3587 -17.9749 6.61082 -33.3587 -18.7154 
7.27399 -33.271 -18.7154 7.27399 -33.3587 -18.6352 14.697 -29.5623 -18.7154 
14.697 -33.3587 -14.7557 -23.142 -25.9357 -18.7154 -29.841 -21.1825 -18.7154 
-29.841 -25.9357 -13.9437 21.671 -25.9357 -18.7154 22.12 -25.5867 -18.7154 
22.12 -25.9357 -18.5112 29.543 -19.7746 -18.7154 29.543 -25.9357 -13.826 
-32.5914 -18.5127 -18.7154 -37.264 -11.4769 -18.7154 -37.264 -18.5127 -13.8875 
30.7557 -18.5127 -18.7154 36.966 -18.5127 -13.734 -37.4534 -11.0897 -18.7154 
35.495 -11.0897 -18.7154 36.966 -8.11563 -18.7154 36.966 -11.0897 -17.7957 
-39.4873 -3.6667 -18.7154 38.4223 -3.6667 -18.7154 -39.8243 3.7563 -18.7154 
39.0528 3.7563 -18.7154 -38.2745 11.1793 -18.7154 -37.264 13.2852 -18.7154 
37.8904 11.1793 -18.7154 36.966 13.7129 -18.7154 -34.0758 18.6023 -18.7154 
-37.264 18.6023 -11.5324 -29.841 23.0845 -18.7154 34.906 18.6023 -18.7154 
36.966 18.6023 -14.4491 -26.5685 26.0253 -18.7154 -29.841 26.0253 -12.2971 
-22.418 29.3192 -18.7154 30.3314 26.0253 -18.7154 29.543 26.9854 -18.7154 
-16.7977 33.4483 -18.7154 -14.995 34.7008 -18.7154 -7.572 38.0789 -18.7154 
-0.149009 39.4667 -18.7154 7.27399 39.1304 -18.7154 14.697 37.3293 -18.7154 
22.4741 33.4483 -18.7154 22.12 33.7159 -18.7154 -0.149009 40.8713 -14.9208 
7.27399 40.8713 -14.5435 -14.995 -35.4257 -11.2924 -7.572 -37.8856 -11.2924 
-0.149009 -39.0575 -11.2924 -0.149009 -40.7817 -4.71185 7.27399 -38.1428 -11.2924 
14.697 -35.5644 -11.2924 -29.841 -27.8018 -11.2924 -19.6714 -33.3587 -11.2924 
-22.418 -32.1089 -11.2924 -22.418 -33.3587 -8.1258 19.4959 -33.3587 -11.2924 
22.12 -32.0203 -11.2924 22.12 -33.3587 -8.15074 29.543 -27.9051 -11.2924 
-32.3789 -25.9357 -11.2924 -37.264 -20.9188 -11.2924 32.1092 -25.9357 -11.2924 
36.966 -21.0657 -11.2924 -38.9542 -18.5127 -11.2924 38.8941 -18.5127 -11.2924 
-42.3824 -11.0897 -11.2924 42.3502 -11.0897 -11.2924 -43.5574 -3.6667 -11.2924 
44.0545 -3.6667 -11.2924 44.389 -3.6667 -9.55004 -43.244 3.7563 -11.2924 
43.8705 3.7563 -11.2924 44.389 3.7563 -6.70535 -41.3893 11.1793 -11.2924 
41.801 11.1793 -11.2924 -37.3488 18.6023 -11.2924 -37.264 18.7147 -11.2924 
38.1465 18.6023 -11.2924 36.966 20.5405 -11.2924 -30.2794 26.0253 -11.2924 
-29.841 26.3847 -11.2924 -22.418 32.0402 -11.2924 33.4955 26.0253 -11.2924 
29.543 30.8704 -11.2924 -20.3918 33.4483 -11.2924 -14.995 37.1007 -11.2924 
-7.572 40.3883 -11.2924 14.697 40.459 -11.2924 26.8214 33.4483 -11.2924 
22.12 37.151 -11.2924 -5.29578 40.8713 -11.2924 -0.149009 41.8986 -11.2924 
12.6381 40.8713 -11.2924 7.27399 41.8882 -11.2924 -0.149009 -40.9815 -3.8694 
-22.418 -34.8074 -3.8694 -14.995 -37.9693 -3.8694 -1.8391 -40.7817 -3.8694 
-7.572 -40.0765 -3.8694 1.47085 -40.7817 -3.8694 -0.149009 -40.7817 -2.09238 
7.27399 -40.0581 -3.8694 14.697 -37.8254 -3.8694 22.12 -34.9612 -3.8694 
-25.0783 -33.3587 -3.8694 -29.841 -30.4628 -3.8694 25.4964 -33.3587 -3.8694 
29.543 -31.2038 -3.8694 -35.6351 -25.9357 -3.8694 -37.264 -24.1295 -3.8694 
36.152 -25.9357 -3.8694 36.966 -25.0997 -3.8694 36.966 -25.9357 3.26588 
-41.0076 -18.5127 -3.8694 41.5281 -18.5127 -3.8694 -43.9584 -11.0897 -3.8694 
44.3862 -11.0897 -3.8694 44.389 -11.0687 -3.8694 -44.6568 -3.6667 -3.8694 
45.3576 -3.6667 -3.8694 -43.8979 3.7563 -3.8694 44.6885 3.7563 -3.8694 
44.389 4.67156 -3.8694 44.389 3.7563 -1.55267 -41.7531 11.1793 -3.8694 
42.0683 11.1793 -3.8694 -37.6193 18.6023 -3.8694 -37.264 19.0742 -3.8694 
-37.264 18.6023 -0.0906703 38.1756 18.6023 -3.8694 36.966 20.4974 -3.8694 
36.966 18.6023 1.63469 -30.5533 26.0253 -3.8694 -29.841 26.6111 -3.8694 
-29.841 26.0253 2.82421 -22.418 32.0189 -3.8694 33.5342 26.0253 -3.8694 
29.543 30.9645 -3.8694 -20.2453 33.4483 -3.8694 -14.995 37.0032 -3.8694 
-7.572 40.0999 -3.8694 14.697 40.3285 -3.8694 26.896 33.4483 -3.8694 
22.12 37.1822 -3.8694 -3.9881 40.8713 -3.8694 -0.149009 41.6804 -3.8694 
-0.149009 40.8713 -0.0144593 11.739 40.8713 -3.8694 7.27399 41.6801 -3.8694 
7.27399 40.8713 -0.565608 -22.418 -34.92 3.5536 -14.995 -37.7175 3.5536 
-7.572 -39.4663 3.5536 -0.149009 -40.1013 3.5536 7.27399 -39.6148 3.5536 
14.697 -38.197 3.5536 22.12 -35.8815 3.5536 -25.3674 -33.3587 3.5536 
-29.841 -30.6317 3.5536 -22.418 -33.3587 8.77751 27.5316 -33.3587 3.5536 
29.543 -32.3118 3.5536 36.966 -25.9664 3.5536 -35.7053 -25.9357 3.5536 
-37.264 -24.1692 3.5536 36.9934 -25.9357 3.5536 36.966 -25.9357 3.6787 
-40.9912 -18.5127 3.5536 41.6564 -18.5127 3.5536 -43.8719 -11.0897 3.5536 
44.0137 -11.0897 3.5536 44.389 -6.63817 3.5536 -44.4579 -3.6667 3.5536 
44.6403 -3.6667 3.5536 44.389 -1.64215 3.5536 44.389 -3.6667 4.41379 
-43.5209 3.7563 3.5536 43.6561 3.7563 3.5536 -41.1456 11.1793 3.5536 
-37.264 18.0547 3.5536 40.6942 11.1793 3.5536 36.966 17.8852 3.5536 
-36.9151 18.6023 3.5536 -29.841 25.9612 3.5536 36.5356 18.6023 3.5536 
-29.7581 26.0253 3.5536 -22.418 31.3582 3.5536 31.8268 26.0253 3.5536 
29.543 28.8076 3.5536 29.543 26.0253 8.18109 -19.066 33.4483 3.5536 
-14.995 35.9025 3.5536 -7.572 38.9538 3.5536 -0.149009 40.1206 3.5536 
7.27399 39.8237 3.5536 14.697 38.236 3.5536 24.3802 33.4483 3.5536 
22.12 35.1216 3.5536 22.12 33.4483 6.65614 -14.995 -34.8975 10.9766 
-7.572 -35.7755 10.9766 -0.149009 -36.43 10.9766 7.27399 -36.8903 10.9766 
14.697 -36.5682 10.9766 22.12 -34.8289 10.9766 -29.841 -28.3486 10.9766 
-20.1078 -33.3587 10.9766 -22.418 -32.5964 10.9766 -14.995 -33.3587 13.159 
-7.572 -33.3587 14.2198 -0.149009 -33.3587 15.1493 7.27399 -33.3587 16.2947 
14.697 -33.3587 16.407 25.2869 -33.3587 10.9766 22.12 -33.3587 13.6936 
29.543 -31.0991 10.9766 -32.8493 -25.9357 10.9766 -37.264 -21.0033 10.9766 
-29.841 -25.9357 14.2009 35.2255 -25.9357 10.9766 29.543 -25.9357 18.1793 
36.966 -23.4131 10.9766 -38.9498 -18.5127 10.9766 -37.264 -18.5127 13.5725 
39.7917 -18.5127 10.9766 36.966 -18.5127 15.584 -42.1108 -11.0897 10.9766 
-37.264 -11.0897 17.8497 41.9658 -11.0897 10.9766 -42.9066 -3.6667 10.9766 
42.2864 -3.6667 10.9766 -41.9857 3.7563 10.9766 40.7568 3.7563 10.9766 
36.966 3.7563 16.5469 -39.5186 11.1793 10.9766 -37.264 15.256 10.9766 
-37.264 11.1793 15.1266 37.6083 11.1793 10.9766 36.966 12.3041 10.9766 
36.966 11.1793 11.8917 -35.1918 18.6023 10.9766 -29.841 24.3476 10.9766 
32.9793 18.6023 10.9766 29.543 23.7446 10.9766 29.543 18.6023 14.9823 
-27.896 26.0253 10.9766 -22.418 30.102 10.9766 27.5947 26.0253 10.9766 
22.12 30.6675 10.9766 22.12 26.0253 15.8062 -16.4988 33.4483 10.9766 
-14.995 34.269 10.9766 -14.995 33.4483 12.6009 -7.572 36.8602 10.9766 
-7.572 33.4483 16.8766 -0.149009 37.373 10.9766 -0.149009 33.4483 17.1978 
7.27399 36.3569 10.9766 7.27399 33.4483 15.2201 17.0029 33.4483 10.9766 
14.697 34.4745 10.9766 14.697 33.4483 12.3631 -22.418 -26.67 18.3996 
-14.995 -28.521 18.3996 -7.572 -29.4089 18.3996 -0.149009 -30.368 18.3996 
7.27399 -31.5008 18.3996 14.697 -31.8082 18.3996 22.12 -29.8299 18.3996 
-23.6968 -25.9357 18.3996 -29.841 -21.5033 18.3996 -22.418 -25.9357 18.9974 
-14.995 -25.9357 20.4373 -7.572 -25.9357 21.1757 -0.149009 -25.9357 22.1122 
7.27399 -25.9357 22.9787 14.697 -25.9357 23.0634 29.1953 -25.9357 18.3996 
22.12 -25.9357 21.3265 29.543 -25.6203 18.3996 -32.7312 -18.5127 18.3996 
-29.841 -18.5127 20.2269 -22.418 -18.5127 22.6196 -14.995 -18.5127 23.938 
-7.572 -18.5127 24.9892 22.12 -18.5127 24.4255 34.4025 -18.5127 18.3996 
29.543 -18.5127 21.8768 36.966 -11.8849 18.3996 -36.6588 -11.0897 18.3996 
-37.264 -8.63339 18.3996 -29.841 -11.0897 22.4205 -22.418 -11.0897 24.3927 
-14.995 -11.0897 25.3852 29.543 -11.0897 23.6498 37.1899 -11.0897 18.3996 
36.966 -11.0897 18.6268 -38.1448 -3.6667 18.3996 -37.264 -3.6667 19.2418 
-29.841 -3.6667 23.7311 29.543 -3.6667 24.0926 37.2049 -3.6667 18.3996 
[...]
POINT_DATA 490
SCALARS ImageScalars float
LOOKUP_TABLE default
0 0 0 0 0 0 0 0 0 
0 0 0 0 0 0 0 0 0 
0 0 0 0 0 0 0 0 0 
0 0 0 0 0 0 0 0 0 
0 0 0 0 0 0 0 0 0 
0 0 0 0 0 0 0 0 0 
0 0 0 0 0 0 0 0 0 
0 0 0 0 0 0 0 0 0 
0 0 0 0 0 0 0 0 0 
0 0 0 0 0 0 0 0 0 
0 0 0 0 0 0 0 0 0 
0 0 0 0 0 0 0 0 0 
0 0 0 0 0 0 0 0 0 
0 0 0 0 0 0 0 0 0 
0 0 0 0 0 0 0 0 0 
0 0 0 0 0 0 0 0 0 
0 0 0 0 0 0 0 0 0 
0 0 0 0 0 0 0 0 0 
0 0 0 0 0 0 0 0 0 
0 0 0 0 0 0 0 0 0 
0 0 0 0 0 0 0 0 0 
0 0 0 0 0 0 0 0 0 
0 0 0 0 0 0 0 0 0 
0 0 0 0 0 0 0 0 0 
0 0 0 0 0 0 0 0 0 
0 0 0 0 0 0 0 0 0 
0 0 0 0 0 0 0 0 0 
0 0 0 0 0 0 0 0 0 
0 0 0 0 0 0 0 0 0 
0 0 0 0 0 0 0 0 0 
0 0 0 0 0 0 0 0 0 
0 0 0 0 0 0 0 0 0 
0 0 0 0 0 0 0 0 0 
0 0 0 0 0 0 0 0 0 
0 0 0 0 0 0 0 0 0 
0 0 0 0 0 0 0 0 0 
0 0 0 0 0 0 0 0 0 
0 0 0 0 0 0 0 0 0 
0 0 0 0 0 0 0 0 0 
0 0 0 0 0 0 0 0 0 
0 0 0 0 0 0 0 0 0 
0 0 0 0 0 0 0 0 0 
0 0 0 0 0 0 0 0 0 
0 0 0 0 0 0 0 0 0 
0 0 0 0 0 0 0 0 0 
0 0 0 0 0 0 0 0 0 
0 0 0 0 0 0 0 0 0 
0 0 0 0 0 0 0 0 0 
0 0 0 0 0 0 0 0 0 
0 0 0 0 0 0 0 0 0 
0 0 0 0 0 0 0 0 0 
0 0 0 0 0 0 0 0 0 
0 0 0 0 0 0 0 0 0 
0 0 0 0 0 0 0 0 0 
0 0 0 0 
NORMALS Normals float
0.0264739 0.66701 0.744578 0.343819 0.601698 0.720936 0.229739 0.511541 0.827977 
0.128658 0.398946 0.907904 -0.0140102 0.331428 0.943376 -0.161254 0.342834 0.925452 
-0.26233 0.428838 0.864454 0.423246 0.443068 0.790287 0.241192 0.330347 0.912522 
0.121156 0.214063 0.969277 0.0194396 0.13113 0.991175 -0.0370707 0.090352 0.99522 
-0.100117 0.129922 0.986457 -0.186256 0.185099 0.964908 -0.252447 0.262848 0.931226 
-0.393718 0.369418 0.841734 0.650249 0.289704 0.702316 0.343323 0.235676 0.909168 
0.132192 0.136493 0.981781 0.0202893 0.0333291 0.999238 -0.00771359 -0.0087288 0.999932 
-0.0197494 0.0495019 0.998579 -0.0658799 0.0746514 0.995031 -0.127874 0.0801507 0.988547 
-0.179812 0.140902 0.973558 -0.305797 0.205048 0.929755 0.62188 0.135659 0.771273 
0.258041 0.129877 0.957364 0.0348414 0.0538809 0.997939 -0.0219749 0.00399916 0.999751 
0.0356816 -0.0207257 0.999148 0.0464948 0.0283331 0.998517 -0.0709261 0.0404654 0.99666 
-0.126585 0.069905 0.98949 -0.12521 0.121849 0.984619 -0.254068 0.171874 0.951792 
-0.526175 0.154835 0.836162 0.648362 -0.0520741 0.75955 0.243378 -0.00470787 0.96992 
-0.00389024 0.0408105 0.999159 -0.0553917 0.0202355 0.99826 0.0151251 -0.00469531 0.999875 
0.041896 -0.0751897 0.996289 -0.0238779 -0.0582604 0.998016 -0.0454155 0.0576677 0.997302 
-0.0704517 0.12831 0.989229 -0.246046 0.0963665 0.964456 -0.591515 -0.00728797 0.806261 
0.728265 -0.28275 0.624245 0.34339 -0.16452 0.924671 0.0590272 -0.07934 0.995098 
-0.0667125 0.0164859 0.997636 -0.0578564 0.0666062 0.996101 -0.00738675 -0.00156048 0.999972 
0.0608234 0.00875399 0.99811 0.0608922 0.0403656 0.997328 -0.08712 0.0279794 0.995805 
-0.354399 -0.071843 0.93233 -0.705146 -0.192905 0.682317 0.470213 -0.445157 0.76206 
0.185436 -0.260363 0.947536 0.0898399 -0.0353886 0.995327 -0.00201431 0.0444894 0.999008 
-0.016911 0.0907223 0.995733 0.0198671 0.0469353 0.9987 -0.0287506 0.00916852 0.999545 
-0.173173 -0.133332 0.975825 -0.476282 -0.266296 0.837999 0.463416 -0.529813 0.710312 
0.234059 -0.273466 0.93297 0.0699149 -0.179485 0.981273 -0.00458231 -0.0979856 0.995177 
-0.0226991 -0.141362 0.989698 -0.117392 -0.181664 0.976328 -0.33592 -0.354447 0.872654 
-0.630439 -0.508179 0.586771 0.440612 -0.683869 0.581536 0.201086 -0.541924 0.816016 
0.0277234 -0.472135 0.88109 -0.0820584 -0.470447 0.878605 -0.235998 -0.558166 0.795459 
-0.47596 -0.663646 0.577092 0.0261353 0.69134 0.722057 0.346373 0.615326 0.708095 
0.277807 0.630255 0.724984 0.325031 0.777853 0.537866 0.12043 0.688696 0.714979 
0.202046 0.673232 0.711292 0.209539 0.710902 0.671351 -0.171633 0.682375 0.710568 
-0.191161 0.678405 0.709383 -0.191588 0.683594 0.704268 -0.308478 0.57875 0.75491 
-0.349466 0.764563 0.541588 0.357342 0.608215 0.708789 0.450661 0.522265 0.723978 
0.498771 0.699955 0.511166 -0.345107 0.527535 0.776278 -0.345734 0.520681 0.780614 
-0.351285 0.536861 0.767059 -0.411456 0.415517 0.811203 -0.502697 0.661584 0.556419 
0.520473 0.464814 0.71628 0.653058 0.299102 0.69574 0.730143 0.485864 0.480446 
-0.431083 0.387218 0.815003 -0.670025 0.481119 0.565324 0.65722 0.290015 0.695668 
-0.511294 0.261001 0.818814 -0.551257 0.223974 0.803711 -0.581881 0.279737 0.76365 
0.730377 0.122989 0.67188 -0.592962 0.145816 0.791918 0.780645 -0.0702301 0.621016 
-0.682592 -0.0343369 0.729993 0.769297 -0.289133 0.569723 0.749703 -0.351458 0.560734 
-0.737102 -0.206377 0.643498 -0.741823 -0.265512 0.615793 0.660926 -0.512969 0.547759 
0.810135 -0.560546 0.171665 0.579944 -0.617166 0.531763 -0.722947 -0.379128 0.57759 
-0.831991 -0.456776 0.314874 0.556796 -0.641567 0.527608 0.626139 -0.755253 0.19376 
0.526487 -0.670927 0.522176 -0.658877 -0.520352 0.543245 -0.642927 -0.539698 0.543481 
0.483995 -0.722318 0.493969 0.460644 -0.738219 0.492788 0.254225 -0.80548 0.535324 
0.0582617 -0.834903 0.547305 -0.118254 -0.80697 0.578633 -0.282586 -0.763902 0.580171 
-0.486661 -0.668601 0.562258 -0.478085 -0.673456 0.563819 0.0807982 -0.9492 0.304122 
-0.106344 -0.947091 0.302838 0.338382 0.837246 0.429553 0.212905 0.885093 0.413861 
0.0138982 0.921012 0.389285 -0.00104597 0.995396 0.0958375 -0.212568 0.898857 0.383236 
-0.351508 0.843857 0.405398 0.512389 0.75645 0.406498 0.381542 0.820824 0.425057 
0.406857 0.809634 0.423037 0.421895 0.853379 0.306183 -0.391469 0.815353 0.426559 
-0.409955 0.794428 0.448129 -0.404424 0.848903 0.340302 -0.503169 0.724148 0.471625 
0.573356 0.712374 0.404705 0.740662 0.551403 0.383894 -0.568016 0.674878 0.47106 
-0.690081 0.547753 0.473028 0.79015 0.48526 0.374413 -0.743876 0.485698 0.45907 
0.897642 0.26679 0.350801 -0.856685 0.287012 0.428619 0.955426 0.0488104 0.291168 
-0.932737 0.0884512 0.349539 -0.960187 0.0710665 0.270168 0.962948 -0.133829 0.23414 
-0.946108 -0.140843 0.291621 -0.977387 -0.185689 0.10117 0.918351 -0.344907 0.194088 
-0.912307 -0.344479 0.221429 0.812033 -0.561026 0.160788 0.810062 -0.563883 0.160734 
-0.858613 -0.487011 0.160012 -0.848521 -0.506584 0.15292 0.632576 -0.759824 0.150052 
0.626343 -0.765204 0.148853 0.579151 -0.805786 0.123666 -0.803672 -0.573632 0.158296 
-0.72016 -0.674244 0.163596 0.556009 -0.822977 0.116458 0.484157 -0.867778 0.112038 
0.293593 -0.950282 0.103761 -0.282219 -0.94625 0.157998 -0.647101 -0.743791 0.16744 
-0.516292 -0.838514 0.174174 0.229946 -0.967346 0.106611 0.0925204 -0.988337 0.120952 
-0.226969 -0.962322 0.149735 -0.0906147 -0.986557 0.135995 -0.00286451 0.998091 0.0616928 
0.433696 0.887459 0.15596 0.334691 0.934119 0.124116 0.0396115 0.996843 0.0688135 
0.189026 0.977637 0.092169 -0.0459069 0.9967 0.0669401 -0.000685432 0.99988 -0.0154686 
-0.201366 0.975753 0.0857753 -0.321659 0.933596 0.157903 -0.389808 0.89498 0.216934 
0.475812 0.865601 0.156008 0.559345 0.815683 0.14763 -0.439067 0.870172 0.223652 
-0.519626 0.822534 0.231142 0.6997 0.702746 0.128716 0.760821 0.637285 0.122555 
-0.692359 0.692666 0.20212 -0.719998 0.666093 0.194739 -0.758892 0.650014 -0.039556 
0.876649 0.468572 0.109209 -0.877656 0.456779 0.145166 0.970618 0.223757 0.0885098 
-0.968066 0.234087 0.0897309 -0.968225 0.233492 0.0895643 0.998324 -0.00593469 0.0575691 
-0.999227 0.0198285 0.0339366 0.983038 -0.182599 0.0171249 -0.977899 -0.208693 -0.0126768 
-0.972992 -0.230133 -0.0180554 -0.972243 -0.219948 -0.0797883 0.926488 -0.376012 -0.0153672 
-0.919569 -0.387409 -0.0656251 0.821028 -0.570381 -0.0240598 0.81305 -0.581699 -0.023984 
0.817726 -0.570442 -0.0769469 -0.855032 -0.510333 -0.0920893 -0.847226 -0.523014 -0.0930818 
-0.832282 -0.507703 -0.222585 0.634982 -0.772196 -0.0226228 0.622758 -0.782075 -0.0230336 
0.617806 -0.779659 -0.102212 0.564045 -0.824861 -0.0381805 -0.815536 -0.571115 -0.0934299 
-0.724799 -0.682236 -0.0960227 0.545387 -0.836855 -0.0471909 0.480846 -0.873985 -0.0702597 
0.281453 -0.954916 -0.0944415 -0.269741 -0.953372 -0.135359 -0.649295 -0.753553 -0.102832 
-0.511357 -0.851442 -0.116453 0.189908 -0.975932 -0.107203 0.0987388 -0.988134 -0.117652 
0.0785471 -0.977531 -0.195612 -0.194846 -0.97155 -0.13463 -0.0867232 -0.987221 -0.133692 
-0.0978907 -0.971254 -0.216985 0.411856 0.902634 -0.125008 0.282349 0.942067 -0.181079 
0.152345 0.954963 -0.25463 0.00761832 0.962581 -0.270888 -0.122989 0.973322 -0.193694 
-0.235244 0.968824 -0.0777247 -0.362975 0.931772 -0.0070777 0.47071 0.874885 -0.114056 
0.569601 0.815254 -0.104482 0.371005 0.871036 -0.321949 -0.469646 0.882847 -0.00363921 
-0.521625 0.853168 -0.00342634 -0.759728 0.648402 -0.0488676 0.710209 0.69507 -0.111718 
0.766951 0.631723 -0.112751 -0.760478 0.647509 -0.0490459 -0.760474 0.647139 -0.0537612 
0.880199 0.46176 -0.109667 -0.909473 0.40358 -0.099909 0.971066 0.211736 -0.110451 
-0.971646 0.18311 -0.149581 -0.982507 0.0621459 -0.17555 0.993621 -0.0242337 -0.110137 
-0.981242 -0.0194291 -0.191798 -0.975854 -0.0795542 -0.203419 -0.976645 -0.0238952 -0.213526 
0.971152 -0.20652 -0.119218 -0.94157 -0.243103 -0.233125 0.910853 -0.3909 -0.132455 
0.821271 -0.555774 -0.128954 -0.873503 -0.414022 -0.256083 -0.826375 -0.49565 -0.267273 
0.810438 -0.571635 -0.128157 0.617712 -0.778528 -0.111026 -0.82185 -0.502261 -0.26888 
0.616333 -0.779668 -0.110684 0.552043 -0.827032 -0.106142 -0.765514 -0.576077 -0.286573 
-0.712916 -0.636259 -0.294831 -0.697576 -0.580148 -0.420495 0.507968 -0.85237 -0.124235 
0.449552 -0.879899 -0.153886 0.253068 -0.94583 -0.20338 0.0553428 -0.961519 -0.269106 
-0.113852 -0.939028 -0.324445 -0.272477 -0.896941 -0.348215 -0.55333 -0.767496 -0.323691 
-0.485985 -0.807775 -0.333644 -0.485455 -0.768151 -0.417466 0.18428 0.857345 -0.480625 
0.0905763 0.838524 -0.537283 0.0657275 0.844343 -0.531757 0.00625758 0.890637 -0.454672 
-0.126066 0.924395 -0.360002 -0.312787 0.900314 -0.302653 0.535822 0.747093 -0.393379 
0.296422 0.851042 -0.43343 0.349281 0.840855 -0.41348 0.165008 0.81374 -0.557315 
0.0844521 0.780463 -0.619472 0.0861025 0.770717 -0.631333 0.0539872 0.790945 -0.609501 
-0.085506 0.809162 -0.58133 -0.395916 0.866916 -0.302832 -0.306838 0.84902 -0.430134 
-0.534656 0.784924 -0.313109 0.611076 0.686218 -0.394578 0.754769 0.532588 -0.38298 
0.514214 0.669899 -0.535555 -0.720113 0.604513 -0.34059 -0.497825 0.538963 -0.679478 
-0.779952 0.51689 -0.352844 0.80134 0.463655 -0.377992 0.744002 0.45628 -0.488129 
-0.857 0.361722 -0.367026 -0.753147 0.363495 -0.548307 0.896184 0.22467 -0.382593 
0.670158 0.222296 -0.708147 -0.910129 0.143569 -0.388656 0.936161 -0.0108745 -0.351402 
-0.91065 -0.0684027 -0.407477 0.920978 -0.200784 -0.333894 -0.850982 -0.272977 -0.448679 
-0.721481 -0.280112 -0.633247 0.865629 -0.383934 -0.321375 0.821796 -0.479286 -0.308117 
0.799823 -0.358589 -0.481349 -0.778763 -0.41432 -0.471027 -0.77159 -0.426078 -0.472342 
-0.759961 -0.414814 -0.500389 0.767261 -0.567298 -0.299137 0.646229 -0.708598 -0.283334 
-0.728026 -0.476038 -0.493321 -0.674088 -0.539437 -0.504592 -0.63437 -0.438018 -0.636958 
0.610388 -0.743992 -0.271851 0.52607 -0.80706 -0.26815 -0.627276 -0.583741 -0.51553 
-0.477449 -0.689962 -0.544055 -0.459313 -0.56449 -0.685844 0.420982 -0.856179 -0.299553 
0.394255 -0.865501 -0.308985 0.38327 -0.847903 -0.366285 0.181943 -0.910522 -0.371276 
0.142286 -0.792977 -0.592404 -0.0283157 -0.898803 -0.437437 -0.0692972 -0.760116 -0.646082 
-0.169073 -0.851473 -0.496395 -0.198415 -0.768471 -0.608345 -0.346796 -0.772291 -0.532258 
-0.289783 -0.798209 -0.528098 -0.296644 -0.771703 -0.562563 0.284066 0.596472 -0.750685 
0.124913 0.629152 -0.767179 0.0851452 0.655742 -0.750168 0.095362 0.68621 -0.721126 
0.0685837 0.721174 -0.689351 -0.0732554 0.727516 -0.682168 -0.279951 0.649253 -0.707175 
0.316682 0.581729 -0.749202 0.444834 0.493658 -0.747278 0.28139 0.567931 -0.773482 
0.122215 0.545426 -0.829201 0.0943701 0.558098 -0.824391 0.101041 0.577665 -0.809996 
0.0534345 0.529364 -0.846711 -0.095789 0.482172 -0.870824 -0.483851 0.534208 -0.693188 
-0.26885 0.496757 -0.825198 -0.493765 0.525691 -0.692709 0.523078 0.419799 -0.741727 
0.409185 0.396945 -0.821586 0.220999 0.311486 -0.924195 0.144469 0.294865 -0.944555 
0.14505 0.339322 -0.92942 -0.229142 0.290253 -0.929111 -0.631706 0.339632 -0.696849 
-0.441034 0.309341 -0.842495 -0.710276 0.13569 -0.690722 0.635359 0.217653 -0.740909 
0.663907 0.159803 -0.730541 0.367917 0.206297 -0.906686 0.188731 0.204319 -0.960539 
0.162169 0.219754 -0.961982 -0.422303 0.120942 -0.89835 -0.713993 0.112622 -0.691036 
-0.706299 0.111577 -0.699065 0.69751 0.0372905 -0.715604 0.662237 0.0440393 -0.747999 
0.385404 0.111728 -0.915959 -0.443027 -0.0751627 -0.893352 -0.71176 -0.0865207 -0.697074 
-0.706297 -0.113337 -0.698785 -0.704197 -0.0863889 -0.70473 0.738611 -0.150998 -0.657003 
0.736797 -0.175368 -0.652975 0.727527 -0.148027 -0.66992 0.466162 -0.0401616 -0.883787 
-0.336181 -0.220624 -0.915591 -0.646597 -0.28098 -0.709199 -0.473147 -0.279594 -0.83544 
0.711332 -0.31899 -0.626301 0.56225 -0.252013 -0.787632 -0.227378 -0.284902 -0.931198 
-0.372761 -0.312107 -0.873864 -0.555351 -0.37136 -0.744095 -0.546686 -0.374928 -0.748708 
-0.530339 -0.364177 -0.765582 0.622227 -0.517716 -0.587199 0.60771 -0.536922 -0.585153 
0.601488 -0.512029 -0.61322 0.37546 -0.45435 -0.807834 -0.159846 -0.306566 -0.938332 
-0.279127 -0.352127 -0.893362 -0.497718 -0.401277 -0.76893 -0.434178 -0.461896 -0.773396 
-0.423238 -0.386044 -0.819658 0.466342 -0.671309 -0.576081 0.465454 -0.671895 -0.576116 
0.465157 -0.670934 -0.577474 0.304612 -0.727118 -0.615233 0.246473 -0.603996 -0.757918 
0.121317 -0.735547 -0.666523 0.0479628 -0.50918 -0.859323 -0.0774787 -0.709455 -0.700479 
-0.0899519 -0.472509 -0.876723 -0.21341 -0.652296 -0.7273 -0.203084 -0.501957 -0.840711 
-0.352033 -0.540152 -0.764401 -0.306175 -0.575512 -0.758315 -0.30423 -0.531545 -0.790509 
0.104135 0.413309 -0.904617 -0.0114523 0.395969 -0.918192 -0.139579 0.294309 -0.945463 
0.119416 0.372633 -0.920263 0.177573 0.304268 -0.935889 0.104459 0.392414 -0.913838 
-0.0287633 0.364473 -0.93077 -0.141665 0.292386 -0.945749 -0.140022 0.292577 -0.945935 
-0.252133 0.174935 -0.951749 0.226874 0.180845 -0.956987 0.178992 0.231813 -0.956151 
0.171895 0.230002 -0.957889 0.221898 0.263559 -0.938775 0.129985 0.244139 -0.960989 
-0.0630427 0.223415 -0.972683 -0.187695 0.191188 -0.963441 -0.279917 0.143236 -0.949279 
-0.260583 0.147868 -0.95406 0.236401 0.176739 -0.955446 0.230202 0.180175 -0.956318 
0.207968 0.270438 -0.940007 0.168815 0.212608 -0.962444 0.0625795 0.0491225 -0.99683 
-0.0845369 -0.00277282 -0.996417 -0.220874 0.00476299 -0.975291 -0.339344 -0.047176 -0.939479 
-0.328043 -0.184579 -0.926455 -0.294136 -0.0331829 -0.955187 0.389183 0.0223459 -0.920889 
0.33583 0.0741428 -0.939 0.189999 0.0978306 -0.976898 0.00337798 -0.00418662 -0.999986 
-0.0827382 -0.153103 -0.98474 -0.109008 -0.214146 -0.9707 -0.324189 -0.218417 -0.920432 
-0.226158 -0.278681 -0.933375 -0.215816 -0.204412 -0.954798 0.42228 -0.193845 -0.885496 
0.364217 -0.296324 -0.882914 0.363258 -0.179203 -0.914292 0.127515 -0.189712 -0.973524 
-0.0854816 -0.225384 -0.970513 -0.143623 -0.238131 -0.960555 -0.214095 -0.280241 -0.93575 
-0.147285 -0.281453 -0.948204 -0.134852 -0.254566 -0.957607 0.210893 -0.415684 -0.884721 
0.164578 -0.429809 -0.887794 0.153616 -0.404274 -0.901645 -0.013287 -0.389467 -0.920945 
-0.0340474 -0.353346 -0.934873 -0.113554 -0.287124 -0.951139 -0.108182 -0.29051 -0.950737 
-0.109043 -0.285387 -0.952189 
