# vtk DataFile Version 4.2
vtk output
ASCII
DATASET POLYDATA
POINTS 556 float
26.2819 24.4116 -19.0476 -11.7147 -36.383 -12.1418 -4.11537 -36.383 -13.7013 
3.48396 -36.383 -14.2561 11.0833 -36.383 -14.2208 18.6826 -36.383 -14.0174 
26.2819 -36.383 -13.2931 -11.7147 -28.7837 -13.3876 -4.11537 -28.7837 -15.371 
3.48396 -28.7837 -15.8876 11.0833 -28.7837 -15.8762 18.6826 -28.7837 -16.0183 
26.2819 -28.7837 -16.7933 33.8813 -28.7837 -15.7116 41.4806 -28.7837 -13.0113 
-19.314 -21.1844 -11.6238 -11.7147 -21.1844 -13.1013 -4.11537 -21.1844 -15.6221 
3.48396 -21.1844 -15.5505 11.0833 -21.1844 -15.8906 18.6826 -21.1844 -16.5219 
26.2819 -21.1844 -17.1975 33.8813 -21.1844 -17.7797 41.4806 -21.1844 -15.2252 
49.0799 -21.1844 -11.6777 -26.9134 -13.585 -11.9126 -11.7147 -13.585 -12.3038 
-4.11537 -13.585 -16.5174 3.48396 -13.585 -14.9898 11.0833 -13.585 -14.6998 
18.6826 -13.585 -15.9556 26.2819 -13.585 -16.6588 33.8813 -13.585 -17.1092 
41.4806 -13.585 -16.7593 49.0799 -13.585 -13.9186 -34.5127 -5.9857 -12.8376 
-26.9134 -5.9857 -13.03 -19.314 -5.9857 -12.5341 -11.7147 -5.9857 -15.323 
-4.11537 -5.9857 -16.5306 3.48396 -5.9857 -16.4015 11.0833 -5.9857 -15.4103 
18.6826 -5.9857 -14.897 26.2819 -5.9857 -16.305 33.8813 -5.9857 -17.092 
41.4806 -5.9857 -17.1246 49.0799 -5.9857 -14.7148 -42.112 1.61363 -13.0073 
-34.5127 1.61363 -14.5054 -26.9134 1.61363 -14.6227 -19.314 1.61363 -14.5045 
-11.7147 1.61363 -16.6927 -4.11537 1.61363 -14.8557 3.48396 1.61363 -15.8407 
11.0833 1.61363 -17.4256 18.6826 1.61363 -15.3848 26.2819 1.61363 -16.5638 
33.8813 1.61363 -17.2776 41.4806 1.61363 -16.8921 49.0799 1.61363 -14.4471 
-42.112 9.21296 -13.9038 -34.5127 9.21296 -15.7974 -26.9134 9.21296 -16.3599 
-19.314 9.21296 -16.2476 -11.7147 9.21296 -16.2452 -4.11537 9.21296 -18.7512 
3.48396 9.21296 -18.0423 11.0833 9.21296 -16.4116 18.6826 9.21296 -16.9713 
26.2819 9.21296 -17.7643 33.8813 9.21296 -17.7354 41.4806 9.21296 -17.0137 
49.0799 9.21296 -14.3068 -42.112 16.8123 -14.3933 -34.5127 16.8123 -16.7096 
-26.9134 16.8123 -18.1161 -19.314 16.8123 -17.6307 -11.7147 16.8123 -16.9372 
-4.11537 16.8123 -16.8978 3.48396 16.8123 -16.9062 11.0833 16.8123 -17.4375 
18.6826 16.8123 -17.9947 26.2819 23.8438 -19.0073 26.2819 16.8123 -18.524 
33.8813 16.8123 -18.0455 41.4806 16.8123 -16.5433 49.0799 16.8123 -12.7983 
-42.112 24.4116 -13.584 -34.5127 24.4116 -17.3381 -26.9134 24.4116 -18.0227 
-19.314 24.4116 -18.0687 -11.7147 24.4116 -18.0807 -4.11537 24.4116 -17.5608 
3.48396 24.4116 -17.6623 11.0833 24.4116 -18.4632 25.5243 24.4116 -19.0073 
18.6826 24.4116 -18.6551 26.8898 24.4116 -19.0073 26.2819 24.6032 -19.0073 
33.8813 24.4116 -18.4923 41.4806 24.4116 -15.1658 -34.5127 32.0109 -15.3839 
-26.9134 32.0109 -18.149 -19.314 32.0109 -18.1493 -11.7147 32.0109 -18.9055 
-4.11537 32.0109 -18.0932 3.48396 32.0109 -18.0945 11.0833 32.0109 -18.7947 
18.6826 32.0109 -18.267 26.2819 32.0109 -17.4855 33.8813 32.0109 -15.8035 
-26.9134 39.6103 -14.8887 -19.314 39.6103 -16.8377 -11.7147 39.6103 -18.4018 
-4.11537 39.6103 -17.1239 3.48396 39.6103 -16.8126 11.0833 39.6103 -17.2936 
18.6826 39.6103 -16.1117 26.2819 39.6103 -13.8869 -19.314 47.2096 -11.8955 
-11.7147 47.2096 -13.1824 -4.11537 47.2096 -13.1974 3.48396 47.2096 -12.2453 
-26.9134 -43.9823 -4.23578 -19.314 -43.9823 -6.06643 -11.7147 -38.0604 -11.4079 
-11.7147 -43.9823 -8.33455 -4.11537 -40.9728 -11.4079 -4.11537 -43.9823 -9.61017 
3.48396 -41.7143 -11.4079 3.48396 -43.9823 -9.91433 11.0833 -41.3639 -11.4079 
11.0833 -43.9823 -9.38875 18.6826 -40.2864 -11.4079 18.6826 -43.9823 -7.76964 
26.2819 -39.2219 -11.4079 26.2819 -43.9823 -4.15511 -34.5127 -36.383 -5.67492 
-26.9134 -36.383 -7.96769 -14.2412 -36.383 -11.4079 -19.314 -36.383 -10.0549 
32.8184 -36.383 -11.4079 33.8813 -35.9293 -11.4079 33.8813 -36.383 -10.8657 
41.4806 -31.0202 -11.4079 -42.112 -28.7837 -6.01521 -34.5127 -28.7837 -8.52965 
-26.9134 -28.7837 -9.62627 -18.0859 -28.7837 -11.4079 -19.314 -24.0618 -11.4079 
-19.314 -28.7837 -11.0681 44.1098 -28.7837 -11.4079 49.0799 -21.8346 -11.4079 
49.0799 -28.7837 -4.22079 -49.7113 -21.1844 -4.253 -42.112 -21.1844 -8.23323 
-34.5127 -21.1844 -9.97602 -20.903 -21.1844 -11.4079 -26.9134 -16.5056 -11.4079 
-26.9134 -21.1844 -10.6605 -19.314 -17.2496 -11.4079 49.409 -21.1844 -11.4079 
-49.7113 -13.585 -6.83554 -42.112 -13.585 -9.77496 -34.4803 -13.585 -11.4079 
-34.5127 -13.5733 -11.4079 -34.5127 -13.585 -11.4058 -21.4637 -13.585 -11.4079 
-17.5565 -13.585 -11.4079 -19.314 -12.4342 -11.4079 -19.314 -13.585 -11.2106 
52.3327 -13.585 -11.4079 56.6793 -13.585 -4.69105 -49.7113 -5.9857 -7.68666 
-41.5532 -5.9857 -11.4079 -42.112 -5.51332 -11.4079 -42.112 -5.9857 -11.2848 
55.2299 -5.9857 -11.4079 56.6793 -5.9857 -9.15138 -46.9175 1.61363 -11.4079 
-49.7113 1.61363 -9.84711 53.7546 1.61363 -11.4079 56.6793 1.61363 -6.97739 
-47.5115 9.21296 -11.4079 -49.7113 9.21296 -9.84354 52.5035 9.21296 -11.4079 
-48.0799 16.8123 -11.4079 -49.7113 16.8123 -10.0038 50.3346 16.8123 -11.4079 
49.0799 20.3314 -11.4079 -45.4813 24.4116 -11.4079 -49.7113 24.4116 -5.86579 
-42.112 30.189 -11.4079 47.2524 24.4116 -11.4079 41.4806 31.5632 -11.4079 
49.0799 24.4116 -8.06357 -41.0382 32.0109 -11.4079 -42.112 32.0109 -9.82727 
-34.5127 38.9452 -11.4079 41.0915 32.0109 -11.4079 33.8813 38.1612 -11.4079 
41.4806 32.0109 -10.8234 -33.726 39.6103 -11.4079 -34.5127 39.6103 -10.0346 
-26.9134 45.0388 -11.4079 11.0833 46.635 -11.4079 18.6826 44.9174 -11.4079 
31.4732 39.6103 -11.4079 26.2819 42.3457 -11.4079 33.8813 39.6103 -8.15118 
-20.6915 47.2096 -11.4079 -19.314 47.5547 -11.4079 -11.7147 48.9955 -11.4079 
-4.11537 48.9121 -11.4079 8.19724 47.2096 -11.4079 3.48396 47.985 -11.4079 
11.0833 47.2096 -9.49613 -26.9134 -44.416 -3.80861 -19.314 -46.5021 -3.80861 
-11.7147 -48.7636 -3.80861 -11.7147 -51.5817 3.07928 -4.11537 -49.5014 -3.80861 
-4.11537 -51.5817 3.76308 3.48396 -49.3221 -3.80861 11.0833 -47.978 -3.80861 
18.6826 -46.5389 -3.80861 26.2819 -44.1368 -3.80861 -27.5991 -43.9823 -3.80861 
-34.5127 -38.8859 -3.80861 26.6525 -43.9823 -3.80861 26.2819 -43.9823 -1.76362 
33.8813 -40.7545 -3.80861 -37.4443 -36.383 -3.80861 -42.112 -32.0474 -3.80861 
-42.112 -36.383 2.38816 40.6454 -36.383 -3.80861 41.4806 -35.8055 -3.80861 
49.0799 -28.9562 -3.80861 -45.0041 -28.7837 -3.80861 -49.7113 -21.9438 -3.80861 
49.24 -28.7837 -3.80861 49.0799 -28.7837 -3.18858 -50.1643 -21.1844 -3.80861 
54.262 -21.1844 -3.80861 56.6793 -14.6341 -3.80861 -52.969 -13.585 -3.80861 
57.0302 -13.585 -3.80861 56.6793 -13.585 -2.11776 -53.5574 -5.9857 -3.80861 
-57.3107 -5.9857 3.72224 58.4695 -5.9857 -3.80861 -54.8079 1.61363 -3.80861 
-57.3107 1.61363 2.56773 57.9434 1.61363 -3.80861 56.6793 8.93292 -3.80861 
56.6793 1.61363 2.98986 -54.2932 9.21296 -3.80861 56.629 9.21296 -3.80861 
-53.4235 16.8123 -3.80861 54.41 16.8123 -3.80861 -50.7386 24.4116 -3.80861 
-49.7113 26.0216 -3.80861 50.6134 24.4116 -3.80861 49.0799 26.6616 -3.80861 
49.0799 24.4116 3.09907 -45.2218 32.0109 -3.80861 -42.112 35.3325 -3.80861 
44.8211 32.0109 -3.80861 41.4806 35.3554 -3.80861 -37.1736 39.6103 -3.80861 
-34.5127 41.5565 -3.80861 -34.5127 39.6103 0.655926 -26.9134 46.148 -3.80861 
18.6826 46.792 -3.80861 26.2819 44.5768 -3.80861 35.9792 39.6103 -3.80861 
33.8813 41.0195 -3.80861 33.8813 39.6103 1.60716 -24.2823 47.2096 -3.80861 
-19.314 49.0596 -3.80861 -19.314 47.2096 0.0186236 -11.7147 50.3056 -3.80861 
-11.7147 47.2096 2.42248 -4.11537 50.2035 -3.80861 -4.11537 47.2096 3.02097 
3.48396 49.5231 -3.80861 3.48396 47.2096 2.54604 16.7309 47.2096 -3.80861 
11.0833 48.3911 -3.80861 11.0833 47.2096 -0.157941 -11.7147 -51.8004 3.79072 
-4.11537 -51.5878 3.79072 -26.9134 -48.2769 3.79072 -13.8612 -51.5817 3.79072 
-19.314 -50.9924 3.79072 -11.7147 -51.5817 5.04727 -4.06412 -51.5817 3.79072 
-4.11537 -51.5817 3.81469 3.48396 -50.6546 3.79072 11.0833 -49.2784 3.79072 
18.6826 -46.8767 3.79072 -42.112 -37.3137 3.79072 -34.0852 -43.9823 3.79072 
-34.5127 -43.6913 3.79072 25.3687 -43.9823 3.79072 18.6826 -43.9823 8.54017 
26.2819 -43.514 3.79072 33.8813 -39.4865 3.79072 -43.035 -36.383 3.79072 
-42.112 -36.383 7.5086 38.2716 -36.383 3.79072 33.8813 -36.383 8.06999 
41.4806 -33.5844 3.79072 -49.301 -28.7837 3.79072 -49.7113 -28.1708 3.79072 
46.7311 -28.7837 3.79072 41.4806 -28.7837 9.31816 49.0799 -26.2791 3.79072 
-53.8055 -21.1844 3.79072 52.4522 -21.1844 3.79072 49.0799 -21.1844 7.93064 
-56.3687 -13.585 3.79072 -57.3107 -6.18513 3.79072 55.1427 -13.585 3.79072 
49.0799 -13.585 10.1054 56.6793 -8.2406 3.79072 -57.3347 -5.9857 3.79072 
-57.3107 -5.9857 3.92473 57.1953 -5.9857 3.79072 56.6793 -0.107968 3.79072 
56.6793 -5.9857 4.5937 -57.6652 1.61363 3.79072 -57.3107 3.8985 3.79072 
-57.3107 1.61363 5.24016 56.4928 1.61363 3.79072 49.0799 1.61363 11.3814 
-56.4861 9.21296 3.79072 55.1177 9.21296 3.79072 49.0799 9.21296 10.4017 
-54.1535 16.8123 3.79072 -49.7113 16.8123 10.5944 52.8301 16.8123 3.79072 
49.0799 24.1091 3.79072 49.0799 16.8123 9.01 -49.9021 24.4116 3.79072 
-49.7113 24.6632 3.79072 -49.7113 24.4116 4.06891 48.8693 24.4116 3.79072 
41.4806 24.4116 10.5682 -42.9068 32.0109 3.79072 -42.112 32.6834 3.79072 
-42.112 32.0109 4.57914 -34.5127 37.9248 3.79072 -34.5127 32.0109 9.28238 
33.8813 38.8568 3.79072 33.8813 32.0109 10.4152 42.74 32.0109 3.79072 
41.4806 33.2351 3.79072 41.4806 32.0109 5.29847 -31.1425 39.6103 3.79072 
-26.9134 41.6177 3.79072 -26.9134 39.6103 5.94481 -19.314 44.5581 3.79072 
-19.314 39.6103 7.84668 -11.7147 46.1993 3.79072 -11.7147 39.6103 8.92026 
-4.11537 46.7187 3.79072 -4.11537 39.6103 9.6349 3.48396 46.6084 3.79072 
3.48396 39.6103 10.5027 11.0833 45.736 3.79072 11.0833 39.6103 11.0155 
18.6826 44.4652 3.79072 18.6826 39.6103 9.97522 32.6345 39.6103 3.79072 
26.2819 42.5302 3.79072 26.2819 39.6103 7.67791 -26.9134 -45.573 11.39 
-19.314 -48.9734 11.39 -11.7147 -49.9299 11.39 -4.11537 -48.8375 11.39 
3.48396 -47.037 11.39 11.0833 -44.8183 11.39 -30.3464 -43.9823 11.39 
-34.5127 -41.3361 11.39 -26.9134 -43.9823 13.1337 -19.314 -43.9823 14.7707 
[...]
POINT_DATA 556
SCALARS ImageScalars float
LOOKUP_TABLE default
0 0 0 0 0 0 0 0 0 
0 0 0 0 0 0 0 0 0 
0 0 0 0 0 0 0 0 0 
0 0 0 0 0 0 0 0 0 
0 0 0 0 0 0 0 0 0 
0 0 0 0 0 0 0 0 0 
0 0 0 0 0 0 0 0 0 
0 0 0 0 0 0 0 0 0 
0 0 0 0 0 0 0 0 0 
0 0 0 0 0 0 0 0 0 
0 0 0 0 0 0 0 0 0 
0 0 0 0 0 0 0 0 0 
0 0 0 0 0 0 0 0 0 
0 0 0 0 0 0 0 0 0 
0 0 0 0 0 0 0 0 0 
0 0 0 0 0 0 0 0 0 
0 0 0 0 0 0 0 0 0 
0 0 0 0 0 0 0 0 0 
0 0 0 0 0 0 0 0 0 
0 0 0 0 0 0 0 0 0 
0 0 0 0 0 0 0 0 0 
0 0 0 0 0 0 0 0 0 
0 0 0 0 0 0 0 0 0 
0 0 0 0 0 0 0 0 0 
0 0 0 0 0 0 0 0 0 
0 0 0 0 0 0 0 0 0 
0 0 0 0 0 0 0 0 0 
0 0 0 0 0 0 0 0 0 
0 0 0 0 0 0 0 0 0 
0 0 0 0 0 0 0 0 0 
0 0 0 0 0 0 0 0 0 
0 0 0 0 0 0 0 0 0 
0 0 0 0 0 0 0 0 0 
0 0 0 0 0 0 0 0 0 
0 0 0 0 0 0 0 0 0 
0 0 0 0 0 0 0 0 0 
0 0 0 0 0 0 0 0 0 
0 0 0 0 0 0 0 0 0 
0 0 0 0 0 0 0 0 0 
0 0 0 0 0 0 0 0 0 
0 0 0 0 0 0 0 0 0 
0 0 0 0 0 0 0 0 0 
0 0 0 0 0 0 0 0 0 
0 0 0 0 0 0 0 0 0 
0 0 0 0 0 0 0 0 0 
0 0 0 0 0 0 0 0 0 
0 0 0 0 0 0 0 0 0 
0 0 0 0 0 0 0 0 0 
0 0 0 0 0 0 0 0 0 
0 0 0 0 0 0 0 0 0 
0 0 0 0 0 0 0 0 0 
0 0 0 0 0 0 0 0 0 
0 0 0 0 0 0 0 0 0 
0 0 0 0 0 0 0 0 0 
0 0 0 0 0 0 0 0 0 
0 0 0 0 0 0 0 0 0 
0 0 0 0 0 0 0 0 0 
0 0 0 0 0 0 0 0 0 
0 0 0 0 0 0 0 0 0 
0 0 0 0 0 0 0 0 0 
0 0 0 0 0 0 0 0 0 
0 0 0 0 0 0 0 
NORMALS Normals float
-0.00685843 -0.0694249 0.997564 0.228764 0.275758 0.933608 0.129114 0.315607 0.940065 
0.0318106 0.321161 0.94649 -0.0147283 0.340047 0.940293 -0.0575464 0.41196 0.909383 
-0.152619 0.514329 0.843904 0.273902 0.060249 0.959869 0.152535 0.117384 0.981302 
0.0316725 0.0735545 0.996788 0.0086013 0.0993234 0.995018 0.0556501 0.151298 0.98692 
-0.0230557 0.236747 0.971298 -0.187468 0.337173 0.922589 -0.45518 0.436309 0.776174 
0.161197 0.00946692 0.986877 0.26584 -0.0573685 0.962309 0.156706 0.0713469 0.985065 
0.0177309 -0.0560167 0.998272 0.0643329 -0.0716825 0.995351 0.0855486 -0.00134136 0.996333 
0.0799101 -0.0111444 0.99674 -0.11601 0.0935871 0.988829 -0.328118 0.197213 0.923821 
-0.589117 0.304166 0.748614 -0.0119364 0.155553 0.987755 0.371061 0.064306 0.926379 
0.12128 0.065059 0.990484 -0.115955 0.0459857 0.992189 0.0596949 -0.047463 0.997088 
0.126194 -0.110035 0.985884 0.0718196 -0.0583878 0.995707 0.00794174 -0.0417927 0.999095 
-0.176146 0.122206 0.976749 -0.501719 0.16902 0.848358 0.103774 0.205371 0.973167 
-0.0199894 0.177988 0.98383 0.0682132 0.212197 0.974843 0.311035 0.285993 0.906347 
0.0449685 -0.0901586 0.994912 -0.0640636 0.0782588 0.994873 -0.110835 0.163973 0.980219 
0.0691132 -0.0333559 0.997051 0.143357 -0.00620715 0.989652 0.0533517 0.0110333 0.998515 
-0.161931 0.00821445 0.986768 -0.386782 0.0246219 0.921843 0.273245 0.157255 0.949004 
0.108942 0.188417 0.976028 0.000283236 0.211399 0.9774 0.117965 0.240975 0.963336 
0.0681744 0.0211373 0.997449 -0.0913439 0.210293 0.973362 0.177332 0.155995 0.971709 
-0.0786916 0.0331144 0.996349 -0.0150754 0.140252 0.990001 0.120743 0.092751 0.988341 
0.0224238 0.0422691 0.998855 -0.179086 -0.00717767 0.983807 -0.439154 -0.0248833 0.898067 
0.331352 0.0950027 0.938712 0.155055 0.146026 0.977054 0.0288695 0.224772 0.973984 
-0.00739456 0.194607 0.980853 0.155651 0.0173043 0.98766 0.126569 0.046272 0.990878 
-0.167326 0.0172459 0.985751 -0.0633799 0.0179061 0.997829 0.0867616 0.166429 0.982229 
0.0503304 0.130273 0.9902 -0.045815 0.050234 0.997686 -0.192993 -0.0210687 0.980974 
-0.52027 -0.0809587 0.850156 0.398559 -0.0182274 0.916961 0.23378 0.0937015 0.967764 
0.0622587 0.109162 0.992072 -0.0763054 0.122532 0.989527 -0.0458919 0.123609 0.991269 
-0.00186508 -0.0690214 0.997613 0.0330513 -0.0182228 0.999288 0.0732996 0.133093 0.988389 
0.0686535 0.109532 0.99161 -0.0057348 -0.0580006 0.9983 0.00360887 0.0809382 0.996713 
-0.120083 0.0461936 0.991689 -0.281108 -0.118732 0.952303 -0.661466 -0.240887 0.710237 
0.502258 -0.189445 0.84371 0.266261 -0.0807233 0.960515 0.0428904 0.00120337 0.999079 
0.00376075 0.0317681 0.999488 -0.0332489 0.122435 0.99192 -0.0274695 0.0784714 0.996538 
0.0553917 0.0779089 0.995421 0.0673225 0.0861769 0.994003 -0.00220013 -0.060449 0.998169 
0.0368263 0.0187152 0.999146 -0.0250406 -0.0742389 0.996926 -0.0100653 -0.0748549 0.997144 
-0.229404 -0.127647 0.964925 -0.470024 -0.26386 0.842292 0.385476 -0.308018 0.869789 
0.170778 -0.182896 0.968186 0.0494289 -0.0701568 0.996311 -0.00512175 0.0278517 0.999599 
-0.0516287 -0.0306347 0.998196 0.0437235 -0.0553704 0.997508 0.0132601 -0.0631042 0.997919 
-0.0857275 -0.157454 0.983798 -0.147603 -0.288458 0.946047 -0.330001 -0.413674 0.848513 
0.303247 -0.473303 0.827059 0.230588 -0.309963 0.922362 0.00138376 -0.309175 0.951004 
-0.0909569 -0.276957 0.956568 0.00479558 -0.32222 0.946653 -0.0399781 -0.404137 0.913825 
-0.201413 -0.476294 0.855907 -0.318959 -0.620216 0.716657 0.214133 -0.836632 0.504177 
0.055277 -0.746685 0.662877 -0.0537688 -0.74964 0.659658 -0.131544 -0.792482 0.59554 
0.354782 0.620405 0.699448 0.231034 0.608188 0.759428 0.21715 0.332604 0.917726 
0.179026 0.586126 0.790193 0.105669 0.482144 0.869696 0.0856537 0.622985 0.77753 
0.0114904 0.53598 0.844152 -0.00784098 0.656538 0.754253 -0.0577396 0.572995 0.817523 
-0.098229 0.734808 0.671125 -0.0823272 0.588301 0.80444 -0.175356 0.826126 0.535505 
-0.19014 0.628744 0.754008 -0.345899 0.917905 0.194434 0.370954 0.457554 0.808107 
0.299902 0.326443 0.896378 0.225684 0.261727 0.938385 0.232615 0.255979 0.938278 
-0.297792 0.664895 0.685007 -0.31315 0.668223 0.674845 -0.332256 0.702849 0.628974 
-0.496413 0.544688 0.675936 0.441157 0.383997 0.811127 0.238154 0.281393 0.92957 
0.159789 0.163571 0.973505 0.235258 0.0980576 0.966974 0.186322 0.0460747 0.981408 
0.227866 0.103691 0.968156 -0.547835 0.492114 0.676536 -0.59907 0.32478 0.73187 
-0.748746 0.658227 0.0782017 0.619051 0.400418 0.675604 0.356042 0.257678 0.898241 
0.142663 0.174789 0.974216 0.147326 0.0374412 0.988379 0.0309823 0.147272 0.988611 
0.100144 0.138945 0.985224 0.0837644 0.0358022 0.995842 -0.60162 0.307841 0.737081 
0.553333 0.201759 0.808156 0.287001 0.167788 0.943121 0.137933 0.176804 0.974533 
0.138518 0.176938 0.974426 0.13856 0.176894 0.974428 0.00376642 0.0872571 0.996179 
0.0876451 0.0554562 0.994607 0.0145112 0.0835389 0.996399 0.00947814 0.0601825 0.998142 
-0.645606 0.23389 0.726972 -0.951451 0.266087 0.154722 0.59058 0.146802 0.793514 
0.26163 0.226093 0.938313 0.274005 0.223305 0.935444 0.276183 0.225797 0.934205 
-0.723497 0.0594185 0.687766 -0.878235 0.0612827 0.474287 0.463608 0.128983 0.876602 
0.597963 0.10117 0.795113 -0.671551 -0.1105 0.732672 -0.934102 -0.131943 0.331731 
0.572109 0.0334356 0.819496 0.687729 0.00615551 0.725941 -0.688429 -0.17246 0.704502 
0.620143 -0.084602 0.779913 0.718742 -0.118333 0.685133 -0.720544 -0.258769 0.643316 
-0.718334 -0.320233 0.617614 0.61112 -0.279109 0.740696 0.847231 -0.435175 0.304668 
0.644655 -0.417645 0.640307 -0.687848 -0.385421 0.615074 -0.615194 -0.564686 0.550151 
-0.811743 -0.469384 0.347493 0.647732 -0.462137 0.6057 0.706423 -0.528148 0.471197 
0.556127 -0.652974 0.514147 -0.611289 -0.573907 0.544937 -0.475792 -0.708824 0.52076 
-0.631256 -0.592141 0.500884 0.546651 -0.664596 0.509397 0.577679 -0.719175 0.386102 
0.41304 -0.764173 0.495417 -0.172651 -0.834734 0.522887 -0.222406 -0.838492 0.49746 
-0.446035 -0.730884 0.516586 -0.364242 -0.756655 0.542956 -0.508564 -0.814389 0.279523 
0.259823 -0.849913 0.45841 0.223087 -0.856353 0.465716 0.082958 -0.838165 0.539072 
-0.0625545 -0.852021 0.519756 -0.162879 -0.838681 0.519697 -0.13908 -0.835629 0.531395 
-0.182677 -0.91511 0.359447 0.358157 0.641553 0.678332 0.23844 0.713148 0.659216 
0.143153 0.80206 0.579834 0.0439182 0.993365 0.106292 0.0278506 0.876401 0.480776 
-0.0734463 0.997181 -0.015364 -0.0959177 0.907095 0.409852 -0.167348 0.913225 0.371503 
-0.232602 0.926107 0.297023 -0.350645 0.920434 0.172767 0.379961 0.632268 0.675179 
0.46413 0.549209 0.694948 -0.35627 0.918801 0.16993 -0.37812 0.924319 0.051561 
-0.467772 0.87311 0.137364 0.453573 0.576127 0.679962 0.50942 0.548439 0.663103 
0.678437 0.70468 0.207725 -0.575129 0.814796 0.0730307 -0.591139 0.80395 0.0649569 
-0.747739 0.66207 0.0504836 0.580989 0.444246 0.68198 0.635947 0.416427 0.649739 
-0.750864 0.658512 0.0506477 -0.748989 0.662417 0.0148122 0.641029 0.405078 0.651916 
-0.894973 0.435278 0.0977599 -0.954709 0.283702 0.0896872 0.762398 0.205047 0.613763 
-0.960914 0.260841 0.0927679 -0.962289 0.271456 -0.0176564 0.763862 0.100064 0.637575 
0.992671 0.0816354 0.0891066 -0.994909 0.0579955 0.0824144 0.831266 0.032582 0.55492 
0.994008 -0.0458465 0.0992288 -0.987612 -0.119653 0.101516 -0.972234 -0.213641 0.0954892 
-0.924406 -0.121671 -0.361483 0.875508 -0.0834163 0.475949 -0.971375 -0.217449 0.0956334 
0.920904 -0.21579 0.324607 -0.923044 -0.369063 0.108541 0.874146 -0.451805 0.178162 
0.854278 -0.495099 0.158386 -0.858217 -0.509746 0.0601833 -0.82621 -0.561261 0.0486181 
-0.767326 -0.530869 -0.359707 0.758855 -0.646111 0.0817296 0.709062 -0.70455 0.0289888 
-0.731253 -0.680337 0.0490966 -0.667039 -0.743828 0.0421805 0.607521 -0.793114 -0.0434653 
0.562002 -0.824419 -0.066985 0.502944 -0.797536 -0.333141 0.427543 -0.887541 -0.171693 
-0.239734 -0.970362 -0.0304321 -0.353959 -0.935206 -0.0101035 -0.54789 -0.836289 0.0209098 
-0.507778 -0.861261 0.0197768 -0.50904 -0.811012 -0.288337 0.375174 -0.911776 -0.167058 
0.266839 -0.955978 -0.122075 0.269147 -0.871779 -0.409342 0.0744975 -0.984823 -0.156758 
0.0939311 -0.826192 -0.555503 -0.0520277 -0.990148 -0.130002 0.00809128 -0.833013 -0.553194 
-0.118238 -0.989261 -0.0859243 -0.0729739 -0.887768 -0.454469 -0.22035 -0.97468 -0.0380041 
-0.17204 -0.983295 -0.0594368 -0.152372 -0.955548 -0.25241 0.0367561 0.997171 0.0655746 
-0.0737319 0.997135 -0.0169061 0.424781 0.900618 0.091914 0.0886645 0.992972 0.0783934 
0.224337 0.968448 0.108545 0.0287706 0.999374 -0.0205785 -0.0742559 0.997087 -0.0173974 
-0.0739827 0.99709 -0.0183649 -0.153508 0.983234 -0.098424 -0.242483 0.961409 -0.129977 
-0.355893 0.905987 -0.229188 0.696247 0.703933 0.140424 0.559921 0.815478 0.146574 
0.566379 0.810689 0.148316 -0.416216 0.866688 -0.274985 -0.350006 0.774379 -0.527098 
-0.422999 0.860028 -0.28535 -0.506552 0.788474 -0.348874 0.711391 0.691843 0.123595 
0.701199 0.688691 -0.184459 -0.568252 0.739069 -0.361757 -0.46279 0.670743 -0.579594 
-0.603785 0.696464 -0.38779 0.818463 0.563871 0.110308 0.825834 0.553303 0.108876 
-0.659411 0.629113 -0.411575 -0.529481 0.514214 -0.67471 -0.710219 0.563786 -0.421586 
0.908553 0.411823 0.0702367 -0.801617 0.413996 -0.431298 -0.665109 0.365358 -0.651263 
0.968011 0.233102 0.0928314 0.99271 0.0848611 0.0855906 -0.853322 0.266037 -0.448403 
-0.627188 0.176581 -0.758587 -0.89826 0.132246 -0.419094 0.993079 0.0810504 0.0850009 
0.993824 0.0808205 0.0760407 -0.910815 0.0711656 -0.406634 -0.906307 -0.0765583 -0.415627 
-0.88611 0.0723554 -0.457792 0.998207 -0.055554 0.0223042 0.994414 -0.104912 0.0116302 
0.99508 -0.0638519 -0.0757611 -0.900708 -0.119184 -0.417756 -0.5525 -0.0590586 -0.831418 
0.975039 -0.22115 -0.019769 -0.880086 -0.218747 -0.421424 -0.608742 -0.114906 -0.785003 
0.910685 -0.367854 -0.187979 0.646593 -0.441129 -0.622352 -0.852305 -0.345084 -0.393056 
-0.754651 -0.519799 -0.400389 -0.684896 -0.289063 -0.66885 0.754154 -0.574791 -0.317596 
0.749558 -0.579261 -0.320344 0.746381 -0.575473 -0.334284 -0.748737 -0.526141 -0.403198 
-0.497258 -0.405914 -0.766791 0.573985 -0.697798 -0.428507 0.559884 -0.700612 -0.442349 
0.544398 -0.695548 -0.468876 0.423704 -0.724949 -0.543069 0.321057 -0.603247 -0.730079 
-0.490766 -0.761002 -0.424293 -0.402555 -0.518302 -0.754528 -0.641541 -0.647076 -0.411968 
-0.616628 -0.6706 -0.41239 -0.604276 -0.630619 -0.487 0.370546 -0.732568 -0.571 
0.318139 -0.72059 -0.616066 0.275358 -0.682446 -0.677086 0.225105 -0.692045 -0.685858 
0.147383 -0.588496 -0.794953 0.0958044 -0.75386 -0.650013 0.0971736 -0.539918 -0.83609 
0.0173767 -0.795253 -0.606029 0.0846698 -0.538948 -0.838073 -0.055549 -0.840549 -0.53888 
0.0726573 -0.57575 -0.814391 -0.113801 -0.864926 -0.488827 -0.0192976 -0.626519 -0.779167 
-0.187977 -0.87224 -0.45151 -0.15427 -0.674361 -0.722106 -0.463309 -0.77986 -0.420908 
-0.313743 -0.843736 -0.435517 -0.290099 -0.737317 -0.610087 0.377746 0.719022 -0.583366 
0.217653 0.788861 -0.57474 -0.0115398 0.82108 -0.570696 -0.14337 0.770673 -0.620893 
-0.199678 0.714188 -0.670868 -0.261065 0.63344 -0.728422 0.434388 0.698551 -0.568624 
0.465522 0.635208 -0.61628 0.332726 0.626244 -0.705062 0.12445 0.522457 -0.843535 
0.0182977 0.439013 -0.898294 -0.1114 0.470101 -0.875554 -0.18198 0.542755 -0.819939 
-0.274862 0.625699 -0.730035 -0.249074 0.594156 -0.764814 -0.294766 0.590102 -0.751593 
-0.310859 0.533517 -0.786591 0.564803 0.563897 -0.602509 0.585952 0.571179 -0.574817 
0.337181 0.394486 -0.854804 0.299979 0.233922 -0.92482 0.0739308 0.20628 -0.975696 
-0.0766436 0.162265 -0.983766 -0.0582842 0.179219 -0.982081 -0.102259 0.215268 -0.971186 
-0.155139 0.297861 -0.941919 -0.232013 0.390782 -0.890764 -0.324212 0.527106 -0.785522 
-0.298679 0.502258 -0.811497 -0.360418 0.479756 -0.799958 0.638198 0.48919 -0.594472 
0.735943 0.37869 -0.561233 0.426642 0.388897 -0.816539 0.145153 0.275535 -0.950269 
0.10974 0.128076 -0.985674 0.0402432 -0.0548534 -0.997683 -0.0225677 -0.0225051 -0.999492 
-0.0409989 0.000427312 -0.999159 -0.049126 0.028977 -0.998372 -0.0623569 0.0930838 -0.993704 
-0.112905 0.179876 -0.977188 -0.208331 0.287707 -0.934785 -0.421608 0.428959 -0.7989 
-0.312557 0.366148 -0.876495 -0.447229 0.382137 -0.808676 0.75614 0.341846 -0.558026 
0.70012 0.320046 -0.638281 0.263949 0.189733 -0.945692 0.113715 0.148827 -0.982303 
2.92423e-05 0.0539476 -0.998544 -0.0643515 -0.0653314 -0.995786 -0.0261444 -0.120971 -0.992312 
-0.00766108 -0.0729344 -0.997307 -0.0118196 -0.0306877 -0.999459 0.00528718 -0.0118993 -0.999915 
-0.0248769 0.045398 -0.998659 -0.110624 0.10858 -0.987913 -0.25238 0.19301 -0.948183 
-0.458198 0.302256 -0.83588 -0.391337 0.286037 -0.874664 0.757975 0.235958 -0.60811 
0.556947 0.162656 -0.814465 0.294656 0.151725 -0.943482 -0.0216568 0.147618 -0.988807 
-0.114811 0.0346255 -0.992784 -0.13619 -0.0151186 -0.990567 -0.0265711 -0.0331436 -0.999097 
0.0520934 0.083958 -0.995107 0.0125222 0.0446746 -0.998923 0.0128025 -0.00126135 -0.999917 
0.0109579 -0.0348206 -0.999334 -0.0597548 0.0220454 -0.99797 -0.159045 0.0721961 -0.984628 
-0.552834 0.15966 -0.817853 -0.340795 0.140049 -0.929648 -0.537716 0.0796684 -0.839354 
0.832951 0.0559257 -0.550513 0.509912 0.0695337 -0.857411 0.247952 -0.0133122 -0.968681 
-0.152121 0.0415755 -0.987487 -0.128589 -0.0125689 -0.991618 0.0750229 0.0242986 -0.996886 
0.0721209 0.0484257 -0.99622 -0.103249 -0.00132292 -0.994655 -0.0763597 0.085566 -0.993402 
-0.00124523 -0.0227343 -0.999741 -0.00484957 0.000364162 -0.999988 -0.130979 0.0274179 -0.991006 
-0.297051 0.0172941 -0.954705 -0.531785 0.0658586 -0.844315 -0.551372 -0.0538683 -0.832519 
-0.524704 0.065514 -0.84876 0.803423 -0.0940395 -0.587936 0.508984 -0.0822359 -0.856839 
0.248102 -0.039388 -0.967933 -0.186856 -0.0442195 -0.981392 -0.147853 -0.0226176 -0.988751 
0.0103552 0.00458105 -0.999936 0.0207936 -0.0123345 -0.999708 0.0766557 -0.0233038 -0.996785 
-0.0129729 -0.00608716 -0.999897 -0.0710057 0.0262562 -0.99713 -0.0104667 0.00310942 -0.99994 
-0.135178 -0.0101078 -0.99077 -0.55184 -0.0589659 -0.831863 -0.310874 -0.0342127 -0.949835 
0.723848 -0.290277 -0.625926 0.611909 -0.415092 -0.67325 0.532128 -0.241016 -0.811635 
0.248334 -0.177593 -0.952256 0.0167012 -0.199227 -0.979811 -0.0911644 -0.0797547 -0.992637 
-0.0851283 -0.000510976 -0.99637 0.0843733 0.00040777 -0.996434 0.049371 -0.0833567 -0.995296 
-0.0933777 -0.0508402 -0.994332 -0.0277885 -0.0975363 -0.994844 0.0056672 0.0216294 -0.99975 
-0.0410566 -0.00386138 -0.999149 -0.166836 -0.0583912 -0.984254 -0.539424 -0.102823 -0.835733 
-0.347772 -0.0979805 -0.932445 0.591078 -0.429236 -0.682922 0.312073 -0.343936 -0.885617 
0.132024 -0.253566 -0.958266 0.0128369 -0.189397 -0.981817 -0.0675078 -0.113164 -0.99128 
-0.0549471 -0.112782 -0.992099 -0.0272781 -0.217128 -0.975762 0.0399064 -0.0964152 -0.994541 
0.066144 -0.031385 -0.997316 0.019678 -0.00686921 -0.999783 -0.0906169 -0.089085 -0.991893 
-0.225202 -0.154826 -0.961932 -0.517927 -0.245429 -0.819461 -0.459029 -0.352043 -0.815695 
-0.372942 -0.207164 -0.904432 0.430012 -0.517889 -0.739513 0.429668 -0.518115 -0.739556 
0.429531 -0.517733 -0.739902 0.270392 -0.541336 -0.796143 0.198944 -0.430613 -0.880337 
0.0616068 -0.359387 -0.931153 -0.000325765 -0.28094 -0.959725 -0.020233 -0.23685 -0.971336 
0.0541167 -0.176797 -0.982759 0.100539 -0.109978 -0.988836 0.063595 -0.110375 -0.991853 
-0.0517156 -0.134093 -0.989618 -0.184036 -0.222967 -0.957296 -0.449284 -0.379028 -0.809001 
-0.376897 -0.458213 -0.804978 -0.301618 -0.302174 -0.904277 0.167489 -0.487117 -0.857126 
0.160026 -0.483127 -0.860802 0.157106 -0.478366 -0.863993 0.081548 -0.46461 -0.881752 
0.0716035 -0.432066 -0.898995 0.0782648 -0.428191 -0.900293 0.0626861 -0.369351 -0.927173 
0.102125 -0.437138 -0.893578 0.108618 -0.318499 -0.94168 0.0846801 -0.521148 -0.849255 
0.107 -0.319296 -0.941595 -0.0152442 -0.601588 -0.798661 0.0256189 -0.322333 -0.94628 
-0.140084 -0.589208 -0.795745 -0.103711 -0.384148 -0.917428 -0.348894 -0.486225 -0.80116 
-0.251559 -0.543064 -0.801124 -0.230941 -0.426198 -0.874655 -0.0215776 0.147438 -0.988836 
0.167264 0.00753055 -0.985883 -0.125023 0.0444139 -0.991159 0.0231619 0.0557442 -0.998176 
0.154327 -0.0571634 -0.986365 -0.164665 -0.0489804 -0.985133 0.0223697 -0.163032 -0.986367 
0.0393408 -0.087408 -0.995395 
