# vtk DataFile Version 4.2
vtk output
ASCII
DATASET POLYDATA
POINTS 488 float
0.844127 -27.3321 -22.986 -22.0168 -34.9524 -17.9959 -14.3965 -34.9524 -19.8042 
-6.77617 -34.9524 -21.1412 0.844127 -27.8006 -22.8924 0.844127 -34.9524 -21.3805 
8.46442 -34.9524 -20.1768 16.0847 -34.9524 -17.4912 -37.2574 -27.3321 -15.4565 
-29.6371 -27.3321 -19.5422 -22.0168 -27.3321 -21.5108 -14.3965 -27.3321 -22.2053 
-2.88848 -27.3321 -22.8924 -6.77617 -27.3321 -22.7951 2.48369 -27.3321 -22.8924 
0.844127 -26.6925 -22.8924 8.46442 -27.3321 -22.5471 16.0847 -27.3321 -22.3839 
23.705 -27.3321 -19.0029 -37.2574 -19.7118 -18.902 -29.6371 -19.7118 -21.2966 
-22.0168 -19.7118 -22.2822 -14.3965 -19.7118 -22.4356 -6.77617 -19.7118 -22.0164 
0.844127 -19.7118 -21.8963 8.46442 -19.7118 -22.6401 16.0847 -19.7118 -22.3086 
23.705 -19.7118 -21.5929 31.3253 -19.7118 -18.6097 -44.8777 -12.0915 -15.6267 
-37.2574 -12.0915 -20.3892 -29.6371 -12.0915 -22.0747 -22.0168 -12.0915 -22.0618 
-14.3965 -12.0915 -21.9379 -6.77617 -12.0915 -21.5144 0.844127 -12.0915 -21.2455 
8.46442 -12.0915 -21.8993 16.0847 -12.0915 -21.8137 23.705 -12.0915 -21.2369 
31.3253 -12.0915 -20.241 38.9456 -12.0915 -17.3831 -44.8777 -4.4712 -17.1752 
-37.2574 -4.4712 -20.8349 -29.6371 -4.4712 -21.9459 -22.0168 -4.4712 -21.8627 
-14.3965 -4.4712 -21.6349 -6.77617 -4.4712 -22.7421 0.844127 -4.4712 -22.4707 
8.46442 -4.4712 -22.4571 16.0847 -4.4712 -21.5078 23.705 -4.4712 -21.4375 
31.3253 -4.4712 -21.7344 38.9456 -4.4712 -20.671 46.5659 -4.4712 -17.3617 
-44.8777 3.14909 -18.228 -37.2574 3.14909 -21.466 -29.6371 3.14909 -22.3824 
-22.0168 3.14909 -22.1607 -14.3965 3.14909 -21.6898 -6.77617 3.14909 -22.4157 
0.844127 3.14909 -21.8184 8.46442 3.14909 -21.8867 16.0847 3.14909 -21.6664 
23.705 3.14909 -22.368 31.3253 3.14909 -22.806 38.9456 3.14909 -21.6653 
46.5659 3.14909 -18.8139 -44.8777 10.7694 -18.1405 -37.2574 10.7694 -21.3957 
-29.6371 10.7694 -22.5202 -22.0168 10.7694 -22.4246 -14.3965 10.7694 -21.7796 
-6.77617 10.7694 -21.7042 0.844127 10.7694 -22.0866 8.46442 10.7694 -21.5855 
16.0847 10.7694 -21.1435 23.705 10.7694 -22.2242 31.3253 10.7694 -22.715 
38.9456 10.7694 -21.8801 46.5659 10.7694 -18.6945 -44.8777 18.3897 -16.0757 
-37.2574 18.3897 -20.562 -29.6371 18.3897 -22.256 -22.0168 18.3897 -22.3838 
-14.3965 18.3897 -21.845 -6.77617 18.3897 -21.4824 0.844127 18.3897 -21.6137 
8.46442 18.3897 -20.806 16.0847 18.3897 -19.271 23.705 18.3897 -19.1934 
31.3253 18.3897 -18.628 38.9456 18.3897 -17.3256 -37.2574 26.01 -17.3729 
-29.6371 26.01 -20.5826 -22.0168 26.01 -21.3272 -14.3965 26.01 -20.9188 
-6.77617 26.01 -20.0372 0.844127 26.01 -18.5527 8.46442 26.01 -16.5018 
-29.6371 33.6303 -15.5846 -22.0168 33.6303 -18.2419 -14.3965 33.6303 -17.7304 
-6.77617 33.6303 -15.4059 -22.0168 -37.5475 -15.2721 -14.3965 -40.0695 -15.2721 
-6.77617 -41.546 -15.2721 0.844127 -41.7655 -15.2721 8.46442 -39.7567 -15.2721 
16.0847 -36.4927 -15.2721 -37.2574 -27.5204 -15.2721 -27.2605 -34.9524 -15.2721 
-29.6371 -33.2975 -15.2721 -29.6371 -34.9524 -11.7884 18.6981 -34.9524 -15.2721 
23.705 -31.4319 -15.2721 -37.4362 -27.3321 -15.2721 28.9531 -27.3321 -15.2721 
31.3253 -24.5899 -15.2721 -42.9019 -19.7118 -15.2721 -44.8777 -13.4454 -15.2721 
-44.8777 -19.7118 -12.1486 35.0974 -19.7118 -15.2721 38.9456 -15.3757 -15.2721 
-45.1993 -12.0915 -15.2721 42.0982 -12.0915 -15.2721 46.5659 -7.40201 -15.2721 
46.5659 -12.0915 -8.05274 -46.9828 -4.4712 -15.2721 48.9054 -4.4712 -15.2721 
-48.3457 3.14909 -15.2721 51.2286 3.14909 -15.2721 54.1862 3.14909 -10.8242 
-48.3365 10.7694 -15.2721 50.3832 10.7694 -15.2721 46.5659 15.4159 -15.2721 
54.1862 10.7694 -9.17456 -45.6181 18.3897 -15.2721 -44.8777 19.6111 -15.2721 
16.0847 23.8398 -15.2721 23.705 22.3117 -15.2721 31.3253 21.3856 -15.2721 
42.6931 18.3897 -15.2721 38.9456 20.1438 -15.2721 46.5659 18.3897 -10.6474 
-40.016 26.01 -15.2721 -37.2574 28.6667 -15.2721 0.844127 30.1063 -15.2721 
11.5116 26.01 -15.2721 8.46442 27.2371 -15.2721 16.0847 26.01 -11.9939 
-30.1656 33.6303 -15.2721 -29.6371 33.9353 -15.2721 -22.0168 36.7306 -15.2721 
-14.3965 36.3084 -15.2721 -6.45642 33.6303 -15.2721 -6.77617 33.7665 -15.2721 
0.844127 33.6303 -10.0045 -29.6371 -36.2353 -7.65176 -22.0168 -38.8239 -7.65176 
-14.3965 -40.8401 -7.65176 -6.77617 -41.9394 -7.65176 0.844127 -41.7428 -7.65176 
8.46442 -39.8108 -7.65176 16.0847 -36.4558 -7.65176 -32.2388 -34.9524 -7.65176 
-37.2574 -31.9486 -7.65176 18.966 -34.9524 -7.65176 16.0847 -34.9524 -3.84205 
23.705 -32.1815 -7.65176 -41.9651 -27.3321 -7.65176 -44.8777 -23.0236 -7.65176 
29.2829 -27.3321 -7.65176 31.3253 -25.6559 -7.65176 -46.6494 -19.7118 -7.65176 
38.0827 -19.7118 -7.65176 38.9456 -18.9497 -7.65176 46.5659 -12.287 -7.65176 
-49.3304 -12.0915 -7.65176 46.7627 -12.0915 -7.65176 -51.0243 -4.4712 -7.65176 
53.507 -4.4712 -7.65176 54.1862 -2.53432 -7.65176 54.1862 -4.4712 -4.07331 
-52.2896 3.14909 -7.65176 -52.498 3.14909 -0.235178 55.7122 3.14909 -7.65176 
-52.4694 10.7694 -7.65176 54.9157 10.7694 -7.65176 54.1862 12.6283 -7.65176 
-49.4638 18.3897 -7.65176 -44.8777 25.1696 -7.65176 23.705 25.7082 -7.65176 
31.3253 24.5493 -7.65176 38.9456 22.3414 -7.65176 49.2302 18.3897 -7.65176 
46.5659 19.6872 -7.65176 -44.1351 26.01 -7.65176 -37.2574 32.2628 -7.65176 
8.46442 31.6839 -7.65176 22.7276 26.01 -7.65176 16.0847 28.2197 -7.65176 
23.705 26.01 -5.15528 -35.3479 33.6303 -7.65176 -29.6371 37.1441 -7.65176 
-22.0168 39.6495 -7.65176 -14.3965 39.6833 -7.65176 -6.77617 37.799 -7.65176 
3.80472 33.6303 -7.65176 0.844127 34.8136 -7.65176 8.46442 33.6303 -1.05826 
-29.6371 -35.5492 -0.0314624 -22.0168 -37.1936 -0.0314624 -14.3965 -38.3935 -0.0314624 
-6.77617 -38.6911 -0.0314624 0.844127 -38.3587 -0.0314624 8.46442 -36.7325 -0.0314624 
-31.0567 -34.9524 -0.0314624 -37.2574 -31.7214 -0.0314624 -29.6371 -34.9524 1.46015 
-22.0168 -34.9524 6.76377 -14.3965 -34.9524 7.37889 -6.77617 -34.9524 6.33192 
0.844127 -34.9524 5.46903 12.7602 -34.9524 -0.0314624 8.46442 -34.9524 3.33766 
16.0847 -33.3706 -0.0314624 23.705 -27.9884 -0.0314624 -41.8605 -27.3321 -0.0314624 
-44.8777 -22.7658 -0.0314624 24.7565 -27.3321 -0.0314624 23.705 -27.3321 1.92105 
31.3253 -23.2781 -0.0314624 -46.4652 -19.7118 -0.0314624 -44.8777 -19.7118 3.58709 
36.5213 -19.7118 -0.0314624 38.9456 -18.191 -0.0314624 46.5659 -12.9317 -0.0314624 
-49.1687 -12.0915 -0.0314624 47.5137 -12.0915 -0.0314624 46.5659 -12.0915 6.86124 
54.1862 -5.22186 -0.0314624 -51.018 -4.4712 -0.0314624 -52.498 3.11773 -0.0314624 
54.746 -4.4712 -0.0314624 54.1862 -4.4712 4.1856 -52.5035 3.14909 -0.0314624 
-52.498 3.34883 -0.0314624 -52.498 3.14909 -0.0171294 56.7363 3.14909 -0.0314624 
-52.2672 10.7694 -0.0314624 55.6337 10.7694 -0.0314624 54.1862 14.63 -0.0314624 
-49.5497 18.3897 -0.0314624 -44.8777 24.9309 -0.0314624 31.3253 25.4053 -0.0314624 
38.9456 22.9907 -0.0314624 51.0723 18.3897 -0.0314624 46.5659 20.5615 -0.0314624 
-43.7509 26.01 -0.0314624 -37.2574 31.422 -0.0314624 16.0847 30.3716 -0.0314624 
27.4886 26.01 -0.0314624 23.705 26.6413 -0.0314624 -34.0563 33.6303 -0.0314624 
-29.6371 36.2909 -0.0314624 -29.6371 33.6303 6.32024 -22.0168 39.6891 -0.0314624 
-14.3965 40.4575 -0.0314624 -6.77617 39.2557 -0.0314624 0.844127 36.7879 -0.0314624 
9.16134 33.6303 -0.0314624 8.46442 33.9186 -0.0314624 -37.2574 -27.6138 7.58883 
-29.6371 -32.1288 7.58883 -22.0168 -34.6454 7.58883 -14.3965 -34.8479 7.58883 
-6.77617 -34.2495 7.58883 0.844127 -33.6795 7.58883 8.46442 -32.756 7.58883 
16.0847 -29.9388 7.58883 -37.5392 -27.3321 7.58883 -37.2574 -27.3321 7.89759 
-29.6371 -27.3321 12.8425 20.7762 -27.3321 7.58883 16.0847 -27.3321 13.8097 
23.705 -25.6829 7.58883 31.3253 -20.9995 7.58883 -42.4856 -19.7118 7.58883 
-44.8777 -13.4189 7.58883 -37.2574 -19.7118 12.0116 33.8076 -19.7118 7.58883 
31.3253 -19.7118 14.7531 38.9456 -16.9432 7.58883 -45.318 -12.0915 7.58883 
-44.8777 -12.0915 8.07722 -37.2574 -12.0915 14.3134 46.4241 -12.0915 7.58883 
46.5659 -11.9774 7.58883 -47.4717 -4.4712 7.58883 -44.8777 -4.4712 10.7549 
53.5606 -4.4712 7.58883 54.1862 -2.59184 7.58883 -49.1149 3.14909 7.58883 
-44.8777 3.14909 12.7288 55.5964 3.14909 7.58883 54.1862 3.14909 11.6134 
-49.2882 10.7694 7.58883 -44.8777 10.7694 13.1463 54.4046 10.7694 7.58883 
54.1862 11.3132 7.58883 54.1862 10.7694 8.15858 -46.2181 18.3897 7.58883 
-44.8777 20.1711 7.58883 -44.8777 18.3897 9.38947 31.3253 25.5975 7.58883 
38.9456 22.8359 7.58883 48.4823 18.3897 7.58883 46.5659 19.445 7.58883 
46.5659 18.3897 10.8861 -38.9068 26.01 7.58883 -37.2574 27.3851 7.58883 
-37.2574 26.01 9.37963 -29.6371 32.984 7.58883 -29.6371 26.01 14.872 
16.0847 31.7116 7.58883 29.7965 26.01 7.58883 23.705 27.8415 7.58883 
-28.6153 33.6303 7.58883 -22.0168 37.0366 7.58883 -22.0168 33.6303 12.6225 
-14.3965 39.3158 7.58883 -6.77617 39.0645 7.58883 0.844127 37.3313 7.58883 
11.9365 33.6303 7.58883 8.46442 34.9858 7.58883 8.46442 33.6303 12.3719 
-22.0168 -28.2497 15.2091 -14.3965 -29.7215 15.2091 -6.77617 -29.6237 15.2091 
0.844127 -28.8637 15.2091 8.46442 -28.4213 15.2091 -23.977 -27.3321 15.2091 
-29.6371 -21.9609 15.2091 -22.0168 -27.3321 15.9197 -14.3965 -27.3321 17.6127 
-6.77617 -27.3321 17.8578 0.844127 -27.3321 17.0452 13.4367 -27.3321 15.2091 
8.46442 -27.3321 16.5272 16.0847 -26.7109 15.2091 23.705 -23.5285 15.2091 
-31.3485 -19.7118 15.2091 -29.6371 -19.7118 16.0274 -22.0168 -19.7118 19.0086 
-14.3965 -19.7118 21.3316 31.1716 -19.7118 15.2091 23.705 -19.7118 21.2233 
31.3253 -19.6331 15.2091 38.9456 -15.4021 15.2091 -35.4617 -12.0915 15.2091 
-37.2574 -9.22498 15.2091 -29.6371 -12.0915 17.6348 -22.0168 -12.0915 19.7268 
-14.3965 -12.0915 22.3623 43.718 -12.0915 15.2091 38.9456 -12.0915 20.0982 
46.5659 -9.45343 15.2091 -39.4309 -4.4712 15.2091 -37.2574 -4.4712 16.534 
-29.6371 -4.4712 19.3607 -22.0168 -4.4712 21.3783 50.3456 -4.4712 15.2091 
46.5659 -4.4712 19.9899 -41.7024 3.14909 15.2091 -37.2574 3.14909 18.0915 
-29.6371 3.14909 20.9214 52.7423 3.14909 15.2091 46.5659 3.14909 22.046 
[...]
POINT_DATA 488
SCALARS ImageScalars float
LOOKUP_TABLE default
0 0 0 0 0 0 0 0 0 
0 0 0 0 0 0 0 0 0 
0 0 0 0 0 0 0 0 0 
0 0 0 0 0 0 0 0 0 
0 0 0 0 0 0 0 0 0 
0 0 0 0 0 0 0 0 0 
0 0 0 0 0 0 0 0 0 
0 0 0 0 0 0 0 0 0 
0 0 0 0 0 0 0 0 0 
0 0 0 0 0 0 0 0 0 
0 0 0 0 0 0 0 0 0 
0 0 0 0 0 0 0 0 0 
0 0 0 0 0 0 0 0 0 
0 0 0 0 0 0 0 0 0 
0 0 0 0 0 0 0 0 0 
0 0 0 0 0 0 0 0 0 
0 0 0 0 0 0 0 0 0 
0 0 0 0 0 0 0 0 0 
0 0 0 0 0 0 0 0 0 
0 0 0 0 0 0 0 0 0 
0 0 0 0 0 0 0 0 0 
0 0 0 0 0 0 0 0 0 
0 0 0 0 0 0 0 0 0 
0 0 0 0 0 0 0 0 0 
0 0 0 0 0 0 0 0 0 
0 0 0 0 0 0 0 0 0 
0 0 0 0 0 0 0 0 0 
0 0 0 0 0 0 0 0 0 
0 0 0 0 0 0 0 0 0 
0 0 0 0 0 0 0 0 0 
0 0 0 0 0 0 0 0 0 
0 0 0 0 0 0 0 0 0 
0 0 0 0 0 0 0 0 0 
0 0 0 0 0 0 0 0 0 
0 0 0 0 0 0 0 0 0 
0 0 0 0 0 0 0 0 0 
0 0 0 0 0 0 0 0 0 
0 0 0 0 0 0 0 0 0 
0 0 0 0 0 0 0 0 0 
0 0 0 0 0 0 0 0 0 
0 0 0 0 0 0 0 0 0 
0 0 0 0 0 0 0 0 0 
0 0 0 0 0 0 0 0 0 
0 0 0 0 0 0 0 0 0 
0 0 0 0 0 0 0 0 0 
0 0 0 0 0 0 0 0 0 
0 0 0 0 0 0 0 0 0 
0 0 0 0 0 0 0 0 0 
0 0 0 0 0 0 0 0 0 
0 0 0 0 0 0 0 0 0 
0 0 0 0 0 0 0 0 0 
0 0 0 0 0 0 0 0 0 
0 0 0 0 0 0 0 0 0 
0 0 0 0 0 0 0 0 0 
0 0 
NORMALS Normals float
-0.0159143 0.0259477 0.999537 0.319472 0.649933 0.689583 0.19449 0.518595 0.832606 
0.0978333 0.427702 0.89861 -0.0178946 0.0468888 0.99874 -0.0568218 0.418892 0.906256 
-0.20492 0.550062 0.809592 -0.433372 0.762308 0.480703 0.592384 0.553695 0.585238 
0.311266 0.389887 0.866661 0.159368 0.240133 0.957569 0.081319 0.146093 0.985923 
0.0187062 0.0371605 0.999134 0.0541768 0.0485798 0.997349 -0.0201251 0.050433 0.998525 
-0.0110443 0.0146163 0.999832 -0.0385053 0.14093 0.98927 -0.193542 0.194336 0.961652 
-0.483256 0.504826 0.715272 0.426489 0.242452 0.871392 0.206831 0.145845 0.967445 
0.0728527 0.0359685 0.996694 -0.0174551 -0.016727 0.999708 -0.0360581 -0.084342 0.995784 
0.0383127 -0.111875 0.992983 0.0277196 -0.043814 0.998655 -0.0624658 -0.0368666 0.997366 
-0.200982 0.120969 0.972097 -0.550642 0.371732 0.747401 0.714984 0.194075 0.671664 
0.332516 0.119769 0.935462 0.0930714 0.040428 0.994838 -0.00894039 -0.0273729 0.999585 
-0.0358309 -0.0524582 0.99798 -0.0453554 0.0456401 0.997928 0.0252595 0.0373568 0.998983 
0.0372408 -0.00960979 0.99926 -0.0426829 -0.0519475 0.997737 -0.10553 -0.00753493 0.994388 
-0.234878 0.174964 0.956148 -0.480617 0.459086 0.747159 0.619395 0.135815 0.773243 
0.270647 0.0671483 0.960334 0.0672785 0.0203821 0.997526 -0.0203913 0.00648025 0.999771 
0.0558182 -0.0162376 0.998309 0.0555834 0.0598837 0.996657 -0.0183487 0.038119 0.999105 
-0.0619825 -0.000746948 0.998077 -0.0672608 -0.00971339 0.997688 0.0140061 0.0737945 0.997175 
-0.038848 0.168863 0.984874 -0.249679 0.267536 0.930637 -0.561793 0.379637 0.735026 
0.572045 0.054721 0.818395 0.238396 0.0360472 0.970499 0.0473245 0.0376214 0.998171 
-0.0454114 0.0368447 0.998289 0.0164279 0.00947929 0.99982 0.00890409 -0.067617 0.997672 
-0.0346992 -0.0251304 0.999082 -0.0100795 -0.0572517 0.998309 0.0315614 -0.0236711 0.999222 
0.0729909 0.0519715 0.995978 -0.046529 0.0630732 0.996924 -0.241736 0.0688504 0.967896 
-0.498653 0.0711071 0.86388 0.564999 -0.105901 0.818267 0.254112 -0.0506374 0.965848 
0.0681021 -0.00747713 0.99765 -0.0485044 0.0146508 0.998716 -0.0471762 0.010171 0.998835 
0.0202182 -0.0609436 0.997936 -0.00789625 -0.012924 0.999885 -0.0619224 -0.0681299 0.995753 
0.038023 -0.144153 0.988825 0.102118 -0.175813 0.979113 -0.0204144 -0.211465 0.977172 
-0.208171 -0.219124 0.953231 -0.530053 -0.26717 0.804776 0.665403 -0.365878 0.65067 
0.342207 -0.243414 0.907548 0.10631 -0.113181 0.987871 -0.0275316 -0.0678485 0.997316 
-0.0583778 -0.0563671 0.996702 -0.0154325 -0.104442 0.994411 -0.0416042 -0.203675 0.978154 
-0.14568 -0.276215 0.949991 -0.103666 -0.417757 0.902626 -0.0330724 -0.573406 0.818604 
-0.103606 -0.663214 0.741224 -0.27123 -0.718322 0.640663 0.491557 -0.502769 0.711052 
0.220713 -0.361032 0.906058 0.0147109 -0.253738 0.967161 -0.0796447 -0.22381 0.971373 
-0.145781 -0.344452 0.927416 -0.203286 -0.522122 0.828289 -0.273838 -0.660677 0.698941 
0.391059 -0.69246 0.606277 0.110829 -0.589946 0.799801 -0.161749 -0.600213 0.783314 
-0.295698 -0.702876 0.646938 0.355384 0.813988 0.459484 0.241836 0.868965 0.431758 
0.09539 0.917306 0.386589 -0.111435 0.933036 0.342089 -0.328165 0.871696 0.363943 
-0.46411 0.83048 0.308067 0.594087 0.561595 0.575909 0.426224 0.739017 0.521716 
0.455325 0.684432 0.569414 0.437195 0.838287 0.325784 -0.509608 0.800927 0.314349 
-0.570657 0.720326 0.39431 0.598003 0.556849 0.576464 -0.654342 0.652291 0.382561 
-0.671807 0.609772 0.420541 0.693818 0.339341 0.635188 0.730238 0.225806 0.644798 
0.828241 0.383032 0.409026 -0.644322 0.544222 0.537281 -0.591915 0.528575 0.608478 
0.728812 0.199849 0.6549 -0.581513 0.526618 0.620093 -0.619354 0.489499 0.613833 
-0.695791 0.678952 0.234307 0.71724 0.162443 0.677627 -0.653383 0.411494 0.635423 
0.736251 0.0701937 0.673058 -0.706302 0.0737934 0.704054 -0.895175 0.0783011 0.438783 
0.73523 -0.143241 0.662509 -0.695298 -0.266121 0.667638 -0.523043 -0.572647 0.63127 
-0.913455 -0.230212 0.335562 0.694533 -0.378082 0.612109 0.68263 -0.407774 0.606413 
-0.239872 -0.699908 0.672748 -0.122733 -0.792248 0.597729 -0.132688 -0.807306 0.575022 
-0.366399 -0.750207 0.550401 -0.272243 -0.81919 0.504789 -0.427874 -0.827466 0.363627 
0.587451 -0.546444 0.59691 0.533411 -0.60323 0.592948 -0.295217 -0.682183 0.668935 
-0.280938 -0.715951 0.639131 -0.294015 -0.706441 0.643814 -0.308105 -0.820242 0.481948 
0.406295 -0.698811 0.588716 0.394169 -0.703325 0.591578 0.132309 -0.770411 0.623668 
-0.171626 -0.725905 0.666038 -0.298051 -0.707747 0.640515 -0.297263 -0.707637 0.641003 
-0.340015 -0.840165 0.422509 0.384935 0.918285 0.0926138 0.282308 0.958905 -0.0283628 
0.208197 0.971476 -0.113526 0.0626006 0.983645 -0.16889 -0.139687 0.970284 -0.197575 
-0.31292 0.932706 -0.179278 -0.446983 0.877006 -0.176256 0.446956 0.887014 0.115914 
0.611878 0.772062 0.171831 -0.483724 0.857158 -0.176892 -0.451277 0.849452 -0.27346 
-0.554632 0.8135 -0.174929 0.758945 0.622493 0.191063 0.854238 0.48949 0.175148 
-0.653444 0.746045 -0.128166 -0.666641 0.740716 -0.0832428 0.899511 0.403863 0.166659 
-0.655749 0.751465 0.0727528 -0.657966 0.74738 0.0922177 -0.696148 0.684848 0.215315 
0.938915 0.277547 0.203487 -0.698529 0.681722 0.217514 0.961997 0.184594 0.201215 
-0.829491 0.47854 0.288 -0.878262 0.375275 0.296352 -0.855627 0.493229 0.156934 
0.974937 0.0912767 0.202896 0.981755 0.0768321 -0.173936 -0.954738 0.0794841 0.286633 
0.96901 -0.168125 0.180981 -0.935675 -0.234351 0.263802 -0.89654 -0.35126 0.269876 
0.873894 -0.44495 0.195776 0.752775 -0.638706 0.159323 -0.214173 -0.947757 0.236404 
-0.205691 -0.953573 0.219975 -0.28289 -0.943589 0.172085 -0.508871 -0.824241 0.248349 
-0.399945 -0.885649 0.235944 0.733418 -0.663114 0.149594 0.612925 -0.782237 0.111483 
-0.36608 -0.861329 0.352274 -0.232439 -0.941091 0.245601 -0.362073 -0.874219 0.323489 
-0.235168 -0.951476 0.198469 0.566512 -0.816606 0.11054 0.419508 -0.900102 0.117601 
0.15037 -0.975133 0.162802 -0.102515 -0.972005 0.211417 -0.317403 -0.895906 0.310819 
-0.350504 -0.871171 0.343815 -0.343703 -0.875744 0.339029 -0.365312 -0.90496 0.218163 
0.288411 0.931035 -0.223592 0.169895 0.94993 -0.262238 0.0895236 0.924094 -0.371531 
-0.000557783 0.881611 -0.471977 -0.114507 0.857811 -0.501047 -0.273835 0.861848 -0.426887 
0.340892 0.91327 -0.223002 0.607714 0.76432 -0.215637 0.301195 0.914196 -0.271159 
0.144511 0.903644 -0.403168 -0.0216724 0.882207 -0.470363 -0.0580101 0.867554 -0.493948 
-0.0912901 0.853056 -0.513772 -0.366668 0.841701 -0.396351 -0.240608 0.860873 -0.448337 
-0.450205 0.816292 -0.361915 -0.514182 0.790585 -0.332555 0.750812 0.625609 -0.211884 
0.853304 0.475947 -0.212949 -0.514343 0.796002 -0.319111 -0.506033 0.806298 -0.306291 
-0.530023 0.811309 -0.246686 0.894248 0.396248 -0.208105 0.842145 0.391834 -0.370482 
-0.544347 0.825818 -0.147345 -0.554622 0.825542 -0.104281 -0.646852 0.762335 -0.0207043 
0.936895 0.280755 -0.208336 -0.666892 0.745013 -0.0145345 -0.638502 0.757702 -0.13492 
-0.849277 0.527945 0.00118119 0.95931 0.20139 -0.197905 0.97992 0.0767555 -0.184025 
-0.866348 0.499439 0.00167734 -0.858641 0.495598 -0.130837 0.979968 0.0762526 -0.183979 
0.980464 0.0697619 -0.183914 0.979847 0.0763156 -0.184596 -0.997956 0.0632401 -0.00916936 
0.968628 -0.175577 -0.175876 -0.966079 -0.256142 -0.0329143 -0.867028 -0.496924 -0.0364675 
0.873304 -0.454287 -0.175964 0.722465 -0.660284 -0.205109 -0.221069 -0.973167 0.063826 
-0.279912 -0.959556 0.0300186 -0.599651 -0.799699 -0.029985 -0.407553 -0.913087 -0.0131277 
0.690957 -0.691347 -0.21123 0.590045 -0.769448 -0.244533 -0.440149 -0.875834 0.197947 
-0.247636 -0.96437 0.09309 -0.287036 -0.949188 0.129041 0.541971 -0.805451 -0.239827 
0.46451 -0.855199 -0.229925 0.489544 -0.77131 -0.406728 0.243365 -0.958561 -0.1481 
-0.0248999 -0.999486 -0.0201709 -0.24064 -0.968011 0.0710367 -0.324067 -0.933091 0.155954 
-0.371438 -0.906762 0.199541 -0.364454 -0.910008 0.197635 0.604393 0.589353 -0.536071 
0.352289 0.774831 -0.524908 0.143002 0.891984 -0.428853 -0.0238341 0.880516 -0.473417 
-0.0649446 0.867003 -0.494053 -0.0856053 0.8533 -0.514345 -0.207425 0.863053 -0.460559 
-0.39658 0.849747 -0.347352 0.61319 0.58068 -0.535545 0.604892 0.578762 -0.546936 
0.370445 0.536055 -0.758562 -0.459453 0.842655 -0.280775 -0.3061 0.841538 -0.445102 
-0.491862 0.836551 -0.241361 -0.46514 0.866995 -0.178785 0.725785 0.368933 -0.580624 
0.759837 0.279272 -0.587073 0.547162 0.312231 -0.776612 -0.470552 0.867832 -0.159524 
-0.438484 0.855216 -0.276292 -0.520109 0.842128 -0.142504 0.763708 0.259223 -0.591231 
0.748019 0.257531 -0.611674 0.482459 0.24209 -0.841799 -0.634679 0.75857 -0.147491 
-0.638274 0.755418 -0.148155 0.809793 0.207207 -0.548908 0.719479 0.218419 -0.659274 
-0.841178 0.488219 -0.232513 -0.893771 0.377158 -0.242743 0.842679 0.100285 -0.528994 
0.698937 0.108175 -0.706955 -0.970024 0.0466275 -0.238493 -0.930508 0.0382655 -0.364268 
0.856417 -0.161612 -0.490338 0.684414 -0.138558 -0.715807 -0.931181 -0.263168 -0.252277 
-0.921044 -0.294287 -0.255093 -0.926046 -0.264053 -0.269655 0.737081 -0.462923 -0.492356 
0.698938 -0.514841 -0.496411 0.693199 -0.463027 -0.552341 -0.302583 -0.952543 -0.0332547 
-0.350067 -0.934064 -0.0705541 -0.531451 -0.818039 -0.219936 -0.466234 -0.861665 -0.200397 
-0.505788 -0.812657 -0.289425 0.574893 -0.668392 -0.471963 0.552919 -0.686746 -0.471869 
0.544306 -0.657676 -0.520763 0.488267 -0.748614 -0.448522 0.411961 -0.538509 -0.735049 
-0.42799 -0.903572 -0.0195257 -0.312201 -0.949947 -0.01145 -0.362445 -0.929826 0.0636922 
0.473517 -0.761359 -0.442847 0.359375 -0.833347 -0.41998 0.385236 -0.695065 -0.607024 
0.11303 -0.953635 -0.278935 -0.127112 -0.978044 -0.165143 -0.259071 -0.960779 -0.0989244 
-0.380012 -0.923591 -0.0507049 -0.338295 -0.938777 -0.0652311 -0.313043 -0.894957 -0.317894 
0.235551 0.56262 -0.792448 0.0599978 0.729824 -0.680997 -0.0463774 0.790877 -0.610216 
-0.0673885 0.787049 -0.613199 -0.117557 0.79335 -0.597308 0.274617 0.520147 -0.808723 
0.380935 0.329782 -0.86379 0.248209 0.523949 -0.814782 0.1109 0.629682 -0.768896 
-0.0248773 0.715809 -0.697853 -0.0637199 0.748929 -0.65958 -0.22548 0.822661 -0.521908 
-0.106012 0.76554 -0.634594 -0.276505 0.833136 -0.478988 -0.383366 0.848404 -0.365021 
0.410524 0.269466 -0.871125 0.384029 0.261725 -0.88545 0.3138 0.213292 -0.925222 
0.244445 0.25256 -0.936195 -0.435899 0.853546 -0.285397 -0.272465 0.705268 -0.654492 
-0.43755 0.852738 -0.285287 -0.53304 0.781457 -0.324335 0.435746 0.231398 -0.869816 
0.463172 0.23065 -0.855729 0.318979 0.195028 -0.927478 0.294586 0.138328 -0.94556 
0.318136 0.138557 -0.937865 -0.605762 0.714076 -0.350925 -0.505379 0.639807 -0.578999 
-0.680218 0.622986 -0.386252 0.508465 0.211864 -0.834612 0.442603 0.216646 -0.870154 
0.290605 0.211517 -0.933172 0.263342 0.207861 -0.942043 -0.784752 0.432708 -0.443766 
-0.663314 0.384092 -0.642252 0.582967 0.100949 -0.8062 0.448871 0.0931721 -0.888726 
0.288894 0.109198 -0.951113 -0.86626 0.0359011 -0.498302 -0.585161 -0.0150276 -0.810778 
0.577549 -0.132716 -0.805496 0.438353 -0.144728 -0.887074 0.253486 -0.112714 -0.96075 
0.114226 -0.137729 -0.983861 -0.783184 -0.32675 -0.529015 -0.592131 -0.66499 -0.455158 
-0.597594 -0.338713 -0.726743 0.484973 -0.385443 -0.785007 0.477681 -0.398121 -0.783148 
0.472609 -0.380866 -0.794722 0.403955 -0.52257 -0.750827 0.303144 -0.343231 -0.888986 
0.183331 -0.236373 -0.95421 0.142127 -0.14264 -0.979517 -0.343529 -0.88881 -0.303321 
-0.523663 -0.751058 -0.402106 -0.428974 -0.83525 -0.344005 -0.400039 -0.657964 -0.638006 
0.404899 -0.526074 -0.747866 0.38052 -0.575711 -0.723713 0.335456 -0.407046 -0.849578 
0.214888 -0.271505 -0.938141 0.0698873 -0.27125 -0.959968 -0.0308862 -0.385027 -0.922388 
-0.271458 -0.828928 -0.489069 -0.0814241 -0.530217 -0.843943 -0.289418 -0.871758 -0.395317 
-0.170067 -0.685599 -0.707836 -0.331566 -0.89984 -0.283466 -0.318247 -0.904363 -0.284334 
-0.279093 -0.840834 -0.463794 0.315612 -0.662518 -0.679307 0.233772 -0.721705 -0.651531 
0.245283 -0.639544 -0.728574 -0.0313828 -0.800553 -0.59844 -0.000953237 -0.682084 -0.731273 
-0.250071 -0.829929 -0.498682 -0.203588 -0.827028 -0.524001 -0.182719 -0.76453 -0.618148 
0.119135 0.382752 -0.916138 -0.0026005 0.511773 -0.859117 -0.0207204 0.580362 -0.814095 
-0.0853427 0.597865 -0.797041 0.145996 0.345744 -0.926901 0.127901 0.362923 -0.922999 
0.00918594 0.482863 -0.875648 -0.0169546 0.569206 -0.82202 -0.117555 0.606341 -0.786467 
-0.0823941 0.585765 -0.806282 -0.224919 0.586878 -0.777808 -0.334023 0.562567 -0.756272 
0.303578 0.133648 -0.943387 0.281279 0.136638 -0.949849 0.238468 0.102963 -0.965677 
0.144322 0.161526 -0.976258 0.0379744 0.244655 -0.968866 -0.068284 0.223003 -0.972423 
-0.14268 0.279805 -0.949395 -0.392266 0.523384 -0.756437 -0.289007 0.448341 -0.845852 
-0.434418 0.444275 -0.783518 0.235444 0.158833 -0.958821 0.225948 0.0670071 -0.971832 
0.216679 0.130268 -0.967512 0.160361 -0.0149671 -0.986945 0.185183 -0.0272219 -0.982327 
0.055432 -0.0182332 -0.998296 -0.0618585 -0.0584613 -0.996371 -0.0190504 -0.00337833 -0.999813 
-0.106801 0.144079 -0.983786 -0.496383 0.305588 -0.812539 -0.354403 0.254454 -0.899806 
0.225766 0.0570181 -0.972512 0.199849 0.0132856 -0.979737 0.221825 0.0530204 -0.973644 
0.105016 -0.0353967 -0.99384 0.0879611 -0.0706341 -0.993616 0.149871 -0.0399977 -0.987896 
0.0064267 -0.0785919 -0.996886 -0.05551 -0.0922734 -0.994185 0.0590254 -0.0635278 -0.996233 
-0.0249815 -0.0790896 -0.996554 -0.51091 -0.026633 -0.859222 -0.268363 -0.0482387 -0.962109 
0.0948567 -0.149042 -0.984271 0.0985896 -0.151138 -0.983584 0.0877783 -0.153582 -0.98423 
0.158525 -0.102262 -0.982045 0.174341 -0.102537 -0.979332 0.00208804 -0.128281 -0.991736 
-0.0452117 -0.0842548 -0.995418 -0.00621321 -0.110999 -0.993801 -0.0933298 -0.232183 -0.968184 
-0.389322 -0.294816 -0.872646 -0.320945 -0.392002 -0.862165 -0.289501 -0.288002 -0.912822 
0.139421 -0.107113 -0.984423 0.125742 -0.131875 -0.983259 0.13909 -0.100446 -0.985172 
0.0303191 -0.311977 -0.949606 0.112436 -0.226572 -0.967483 -0.0292485 -0.425183 -0.904635 
0.0254615 -0.290352 -0.956581 -0.0840214 -0.441228 -0.893453 -0.037783 -0.275741 -0.960489 
-0.128157 -0.474396 -0.870933 -0.0963296 -0.373239 -0.922721 -0.227435 -0.489917 -0.841579 
-0.215356 -0.496451 -0.840927 -0.209946 -0.476442 -0.853771 
