# vtk DataFile Version 4.2
vtk output
ASCII
DATASET POLYDATA
POINTS 514 float
-20.0854 -34.5167 -21.8383 -28.3842 -26.2179 -22.3338 -36.683 -17.9191 -21.9674 
-28.3842 -42.8154 -17.242 -20.0854 -35.3328 -21.6442 -20.0854 -42.8154 -19.4279 
-11.7867 -42.8154 -18.7335 -3.4879 -42.8154 -19.0009 4.81088 -42.8154 -18.9212 
13.1097 -42.8154 -16.3968 -44.9818 -34.5167 -13.6146 -36.683 -34.5167 -18.624 
-20.97 -34.5167 -21.6442 -28.3842 -29.1115 -21.6442 -28.3842 -34.5167 -20.2622 
-18.4621 -34.5167 -21.6442 -20.0854 -28.9132 -21.6442 -11.7867 -34.5167 -20.9149 
-3.4879 -34.5167 -21.2902 4.81088 -34.5167 -21.572 13.1097 -34.5167 -20.039 
21.4084 -34.5167 -14.2813 -44.9818 -26.2179 -19.1889 -31.6569 -26.2179 -21.6442 
-36.683 -19.6171 -21.6442 -36.683 -26.2179 -20.5719 -20.889 -26.2179 -21.6442 
-28.3842 -20.6675 -21.6442 -20.0854 -26.2179 -21.5596 -11.7867 -26.2179 -21.1056 
-3.4879 -26.2179 -21.2516 4.81088 -26.2179 -21.5757 13.1097 -26.2179 -20.3554 
21.4084 -26.2179 -16.2228 -53.2805 -17.9191 -17.0683 -38.2707 -17.9191 -21.6442 
-44.9818 -17.9191 -20.3695 -33.0002 -17.9191 -21.6442 -36.683 -10.8729 -21.6442 
-28.3842 -17.9191 -21.2544 -20.0854 -17.9191 -20.4842 -11.7867 -17.9191 -20.0738 
-3.4879 -17.9191 -19.9189 4.81088 -17.9191 -19.9856 13.1097 -17.9191 -18.7776 
21.4084 -17.9191 -16.604 29.7072 -17.9191 -15.3281 38.006 -17.9191 -15.2687 
-53.2805 -9.62034 -18.8015 -44.9818 -9.62034 -21.002 -36.683 -9.62034 -21.5889 
-28.3842 -9.62034 -20.7106 -20.0854 -9.62034 -19.1678 -11.7867 -9.62034 -19.4185 
-3.4879 -9.62034 -21.3807 4.81088 -9.62034 -19.9487 13.1097 -9.62034 -18.1351 
21.4084 -9.62034 -17.5487 29.7072 -9.62034 -17.8954 38.006 -9.62034 -17.046 
46.3048 -9.62034 -15.4534 -53.2805 -1.32156 -19.0312 -44.9818 -1.32156 -20.9048 
-36.683 -1.32156 -21.4748 -28.3842 -1.32156 -20.6663 -20.0854 -1.32156 -19.2903 
-11.7867 -1.32156 -19.5184 -3.4879 -1.32156 -20.2099 4.81088 -1.32156 -20.5297 
13.1097 -1.32156 -20.817 21.4084 -1.32156 -18.4223 29.7072 -1.32156 -18.0986 
38.006 -1.32156 -17.136 46.3048 -1.32156 -15.0842 -53.2805 6.97721 -16.7774 
-44.9818 6.97721 -19.6714 -36.683 6.97721 -20.5315 -28.3842 6.97721 -20.5402 
-20.0854 6.97721 -19.3483 -11.7867 6.97721 -19.9008 -3.4879 6.97721 -19.9884 
4.81088 6.97721 -19.6804 13.1097 6.97721 -19.3151 21.4084 6.97721 -18.4382 
29.7072 6.97721 -17.8272 38.006 6.97721 -16.7283 46.3048 6.97721 -14.0372 
-44.9818 15.276 -16.6929 -36.683 15.276 -18.2876 -28.3842 15.276 -18.377 
-20.0854 15.276 -18.2972 -11.7867 15.276 -19.5575 -3.4879 15.276 -20.5001 
4.81088 15.276 -19.7686 13.1097 15.276 -18.9006 21.4084 15.276 -18.3742 
29.7072 15.276 -17.7148 38.006 15.276 -15.8186 -36.683 23.5748 -14.5106 
-28.3842 23.5748 -15.687 -20.0854 23.5748 -17.0158 -11.7867 23.5748 -18.4476 
-3.4879 23.5748 -18.9574 4.81088 23.5748 -18.7874 13.1097 23.5748 -18.315 
21.4084 23.5748 -17.3726 29.7072 23.5748 -15.9875 38.006 23.5748 -13.553 
-20.0854 31.8735 -14.2331 -11.7867 31.8735 -16.4201 -3.4879 31.8735 -17.0186 
4.81088 31.8735 -16.9654 13.1097 31.8735 -16.2278 21.4084 31.8735 -14.2527 
-28.3842 -46.4772 -13.3454 -20.0854 -48.9 -13.3454 -11.7867 -49.5006 -13.3454 
-3.4879 -49.2308 -13.3454 4.81088 -48.3577 -13.3454 13.1097 -45.3186 -13.3454 
-44.9818 -34.7841 -13.3454 -34.9675 -42.8154 -13.3454 -36.683 -41.4447 -13.3454 
16.7748 -42.8154 -13.3454 21.4084 -36.415 -13.3454 -45.3021 -34.5167 -13.3454 
-44.9818 -34.5167 -6.71097 22.403 -34.5167 -13.3454 -52.6435 -26.2179 -13.3454 
-53.2805 -25.1915 -13.3454 27.4945 -26.2179 -13.3454 29.7072 -23.7245 -13.3454 
29.7072 -26.2179 -12.3488 38.006 -21.3506 -13.3454 38.006 -26.2179 -10.0356 
46.3048 -26.2179 -7.69045 -57.6172 -17.9191 -13.3454 45.403 -17.9191 -13.3454 
46.3048 -17.1635 -13.3454 46.3048 -17.9191 -13.0977 54.6035 -17.9191 -9.29569 
-59.9458 -9.62034 -13.3454 50.4155 -9.62034 -13.3454 54.6035 -9.62034 -10.5503 
-59.9166 -1.32156 -13.3454 -61.5793 -1.32156 -7.67206 49.5276 -1.32156 -13.3454 
54.6035 -1.32156 -9.77723 -57.9269 6.97721 -13.3454 -53.2805 13.8277 -13.3454 
47.6651 6.97721 -13.3454 46.3048 10.6415 -13.3454 54.6035 6.97721 -8.13276 
-51.7161 15.276 -13.3454 -53.2805 15.276 -12.2965 -44.9818 21.0562 -13.3454 
44.0341 15.276 -13.3454 46.3048 15.276 -12.2847 -53.2805 23.5748 -6.12516 
-40.4211 23.5748 -13.3454 -44.9818 23.5748 -11.6559 -36.683 25.4403 -13.3454 
-28.3842 29.5322 -13.3454 29.7072 28.8126 -13.3454 38.3799 23.5748 -13.3454 
38.006 23.9256 -13.3454 46.3048 23.5748 -7.46282 -36.683 31.8735 -8.48908 
-23.924 31.8735 -13.3454 -28.3842 31.8735 -12.2158 -20.0854 33.5954 -13.3454 
-11.7867 38.4524 -13.3454 -3.4879 39.7728 -13.3454 4.81088 39.7518 -13.3454 
13.1097 37.5006 -13.3454 24.3167 31.8735 -13.3454 21.4084 33.3039 -13.3454 
29.7072 31.8735 -11.0455 38.006 31.8735 -6.61327 -20.0854 40.1723 -9.00978 
-11.7867 40.1723 -12.3128 -3.4879 40.1723 -13.11 4.81088 40.1723 -13.1002 
13.1097 40.1723 -11.4889 21.4084 40.1723 -6.65809 -28.3842 -47.2247 -5.04667 
-20.0854 -49.4968 -5.04667 -11.7867 -50.6457 -5.04667 -3.4879 -50.7762 -5.04667 
4.81088 -49.718 -5.04667 13.1097 -46.6519 -5.04667 -34.1376 -42.8154 -5.04667 
-36.683 -41.1578 -5.04667 -28.3842 -42.8154 -0.756454 17.9482 -42.8154 -5.04667 
21.4084 -40.1207 -5.04667 -44.9039 -34.5167 -5.04667 -44.9818 -34.4525 -5.04667 
-36.683 -34.5167 1.86917 28.9433 -34.5167 -5.04667 29.7072 -33.9115 -5.04667 
29.7072 -34.5167 -3.40942 38.006 -30.6548 -5.04667 46.3048 -28.2506 -5.04667 
-53.2457 -26.2179 -5.04667 -53.2805 -26.1705 -5.04667 50.1694 -26.2179 -5.04667 
54.6035 -23.0316 -5.04667 54.6035 -26.2179 1.24773 -58.2822 -17.9191 -5.04667 
-53.2805 -17.9191 2.10025 58.5811 -17.9191 -5.04667 -60.9705 -9.62034 -5.04667 
-61.5793 -5.63365 -5.04667 60.4051 -9.62034 -5.04667 62.9023 -9.62034 1.06827 
-62.2378 -1.32156 -5.04667 -61.5793 4.61236 -5.04667 -61.5793 -1.32156 -3.48599 
59.0413 -1.32156 -5.04667 -61.3212 6.97721 -5.04667 57.1969 6.97721 -5.04667 
54.6035 13.5904 -5.04667 -58.9028 15.276 -5.04667 53.924 15.276 -5.04667 
54.6035 15.276 -3.58068 -54.1352 23.5748 -5.04667 -53.2805 24.529 -5.04667 
-44.9818 31.0903 -5.04667 48.6955 23.5748 -5.04667 46.3048 26.102 -5.04667 
-43.5787 31.8735 -5.04667 -44.9818 31.8735 -3.22096 -36.683 35.4842 -5.04667 
-28.3842 39.6585 -5.04667 29.7072 37.0021 -5.04667 39.7455 31.8735 -5.04667 
38.006 32.9998 -5.04667 -27.3689 40.1723 -5.04667 -28.3842 40.1723 -4.07988 
-20.0854 43.4351 -5.04667 -11.7867 46.0477 -5.04667 -3.4879 47.4141 -5.04667 
4.81088 47.4539 -5.04667 13.1097 45.3984 -5.04667 23.7247 40.1723 -5.04667 
21.4084 41.4161 -5.04667 -3.4879 48.4711 0.982143 4.81088 48.4711 0.224666 
-20.0854 -43.7425 3.2521 -11.7867 -45.4087 3.2521 -3.4879 -45.4279 3.2521 
4.81088 -45.0716 3.2521 13.1097 -43.7103 3.2521 -21.2999 -42.8154 3.2521 
-28.3842 -37.4686 3.2521 -20.0854 -42.8154 3.75446 -11.7867 -42.8154 5.47744 
-3.4879 -42.8154 5.7093 4.81088 -42.8154 5.8126 15.2134 -42.8154 3.2521 
13.1097 -42.8154 4.48087 21.4084 -40.1853 3.2521 29.7072 -36.491 3.2521 
-44.9818 -26.7357 3.2521 -33.3032 -34.5167 3.2521 -36.683 -32.1193 3.2521 
-28.3842 -34.5167 4.94204 -20.0854 -34.5167 7.60146 -11.7867 -34.5167 8.80449 
-3.4879 -34.5167 9.72832 4.81088 -34.5167 10.8122 35.0232 -34.5167 3.2521 
38.006 -33.5414 3.2521 46.3048 -31.0596 3.2521 54.6035 -26.9439 3.2521 
-45.4224 -26.2179 3.2521 -44.9818 -26.2179 3.42586 -36.683 -26.2179 6.09385 
-28.3842 -26.2179 8.19984 -20.0854 -26.2179 9.58211 -11.7867 -26.2179 10.6432 
-3.4879 -26.2179 11.3608 55.483 -26.2179 3.2521 54.6035 -26.2179 7.49814 
-51.7766 -17.9191 3.2521 -53.2805 -16.2298 3.2521 -44.9818 -17.9191 7.40684 
-36.683 -17.9191 9.65253 -28.3842 -17.9191 10.8095 -20.0854 -17.9191 11.1832 
-11.7867 -17.9191 11.4295 61.7888 -17.9191 3.2521 62.9023 -12.9692 3.2521 
-56.5978 -9.62034 3.2521 -53.2805 -9.62034 6.41815 -44.9818 -9.62034 10.2115 
63.5784 -9.62034 3.2521 62.9023 -5.20345 3.2521 62.9023 -9.62034 7.41428 
-58.3108 -1.32156 3.2521 -53.2805 -1.32156 8.37104 62.3114 -1.32156 3.2521 
-58.976 6.97721 3.2521 -53.2805 6.97721 10.566 60.4044 6.97721 3.2521 
-58.9738 15.276 3.2521 -53.2805 15.276 10.9075 57.1479 15.276 3.2521 
54.6035 19.8694 3.2521 -55.5249 23.5748 3.2521 -53.2805 26.6751 3.2521 
-53.2805 23.5748 9.91263 52.2656 23.5748 3.2521 46.3048 29.57 3.2521 
-47.8913 31.8735 3.2521 -44.9818 34.0992 3.2521 -36.683 39.1011 3.2521 
29.7072 39.5743 3.2521 42.7705 31.8735 3.2521 38.006 34.7931 3.2521 
-34.5298 40.1723 3.2521 -28.3842 43.1571 3.2521 -20.0854 46.1841 3.2521 
-11.7867 47.9166 3.2521 13.1097 47.5534 3.2521 28.5803 40.1723 3.2521 
21.4084 44.0797 3.2521 -6.69376 48.4711 3.2521 -3.4879 48.8133 3.2521 
-3.4879 48.4711 4.49047 7.8473 48.4711 3.2521 4.81088 48.9727 3.2521 
4.81088 48.4711 5.12767 13.1097 -35.8545 11.5509 21.4084 -36.2744 11.5509 
29.7072 -34.764 11.5509 8.34595 -34.5167 11.5509 4.81088 -32.4794 11.5509 
13.1097 -34.5167 12.6067 21.4084 -34.5167 13.3987 30.8039 -34.5167 11.5509 
29.7072 -34.5167 11.9156 38.006 -32.6121 11.5509 46.3048 -29.9355 11.5509 
-2.74852 -26.2179 11.5509 -3.4879 -24.7579 11.5509 4.81088 -26.2179 13.7936 
13.1097 -26.2179 16.5726 21.4084 -26.2179 18.1296 29.7072 -26.2179 18.9985 
38.006 -26.2179 19.1793 53.2256 -26.2179 11.5509 46.3048 -26.2179 16.2383 
54.6035 -25.1073 11.5509 -36.683 -12.4928 11.5509 -28.3842 -15.7835 11.5509 
-20.0854 -16.6248 11.5509 -10.8319 -17.9191 11.5509 -11.7867 -17.4247 11.5509 
-3.4879 -17.9191 12.604 4.81088 -17.9191 15.2701 13.1097 -17.9191 18.3129 
59.841 -17.9191 11.5509 54.6035 -17.9191 18.4535 -40.4315 -9.62034 11.5509 
-44.9818 -5.30251 11.5509 -36.683 -9.62034 12.6 -28.3842 -9.62034 13.6586 
-20.0854 -9.62034 13.6503 -11.7867 -9.62034 13.6724 -3.4879 -9.62034 18.2582 
4.81088 -9.62034 18.3056 13.1097 -9.62034 18.6945 62.069 -9.62034 11.5509 
54.6035 -9.62034 19.0317 -47.4163 -1.32156 11.5509 -44.9818 -1.32156 12.8322 
-36.683 -1.32156 15.4683 -28.3842 -1.32156 16.575 -20.0854 -1.32156 16.4373 
-11.7867 -1.32156 15.7475 -3.4879 -1.32156 17.6061 4.81088 -1.32156 19.308 
[...]
POINT_DATA 514
SCALARS ImageScalars float
LOOKUP_TABLE default
0 0 0 0 0 0 0 0 0 
0 0 0 0 0 0 0 0 0 
0 0 0 0 0 0 0 0 0 
0 0 0 0 0 0 0 0 0 
0 0 0 0 0 0 0 0 0 
0 0 0 0 0 0 0 0 0 
0 0 0 0 0 0 0 0 0 
0 0 0 0 0 0 0 0 0 
0 0 0 0 0 0 0 0 0 
0 0 0 0 0 0 0 0 0 
0 0 0 0 0 0 0 0 0 
0 0 0 0 0 0 0 0 0 
0 0 0 0 0 0 0 0 0 
0 0 0 0 0 0 0 0 0 
0 0 0 0 0 0 0 0 0 
0 0 0 0 0 0 0 0 0 
0 0 0 0 0 0 0 0 0 
0 0 0 0 0 0 0 0 0 
0 0 0 0 0 0 0 0 0 
0 0 0 0 0 0 0 0 0 
0 0 0 0 0 0 0 0 0 
0 0 0 0 0 0 0 0 0 
0 0 0 0 0 0 0 0 0 
0 0 0 0 0 0 0 0 0 
0 0 0 0 0 0 0 0 0 
0 0 0 0 0 0 0 0 0 
0 0 0 0 0 0 0 0 0 
0 0 0 0 0 0 0 0 0 
0 0 0 0 0 0 0 0 0 
0 0 0 0 0 0 0 0 0 
0 0 0 0 0 0 0 0 0 
0 0 0 0 0 0 0 0 0 
0 0 0 0 0 0 0 0 0 
0 0 0 0 0 0 0 0 0 
0 0 0 0 0 0 0 0 0 
0 0 0 0 0 0 0 0 0 
0 0 0 0 0 0 0 0 0 
0 0 0 0 0 0 0 0 0 
0 0 0 0 0 0 0 0 0 
0 0 0 0 0 0 0 0 0 
0 0 0 0 0 0 0 0 0 
0 0 0 0 0 0 0 0 0 
0 0 0 0 0 0 0 0 0 
0 0 0 0 0 0 0 0 0 
0 0 0 0 0 0 0 0 0 
0 0 0 0 0 0 0 0 0 
0 0 0 0 0 0 0 0 0 
0 0 0 0 0 0 0 0 0 
0 0 0 0 0 0 0 0 0 
0 0 0 0 0 0 0 0 0 
0 0 0 0 0 0 0 0 0 
0 0 0 0 0 0 0 0 0 
0 0 0 0 0 0 0 0 0 
0 0 0 0 0 0 0 0 0 
0 0 0 0 0 0 0 0 0 
0 0 0 0 0 0 0 0 0 
0 0 0 0 0 0 0 0 0 
0 
NORMALS Normals float
-0.0485357 -0.101819 -0.993618 -0.062377 -0.0592069 -0.996295 -0.0569894 -0.070611 -0.995875 
-0.368437 -0.628743 -0.684789 -0.0498746 -0.137424 -0.989256 -0.0724976 -0.508064 -0.858263 
0.0175259 -0.459271 -0.888123 -0.0122515 -0.484532 -0.874688 0.113503 -0.542246 -0.832518 
0.440082 -0.659311 -0.60962 -0.573983 -0.724908 -0.380856 -0.380579 -0.478276 -0.791462 
-0.0613987 -0.119131 -0.990978 -0.0940792 -0.128738 -0.987206 -0.166796 -0.277787 -0.946052 
-0.0325442 -0.107303 -0.993694 0.04056 0.0251144 -0.998861 0.0286777 -0.13601 -0.990292 
-0.0396226 -0.123704 -0.991528 0.0711684 -0.135422 -0.988229 0.361988 -0.157925 -0.918708 
0.696927 -0.278441 -0.660881 -0.322713 -0.356946 -0.87661 -0.109842 -0.0983346 -0.989073 
-0.0840225 -0.0896728 -0.992421 -0.184271 -0.17046 -0.967981 0.0652212 0.0657694 -0.995701 
0.0361248 0.0468824 -0.998247 0.0793893 0.0795794 -0.993662 0.0185002 0.0506552 -0.998545 
-0.0281732 0.0823135 -0.996208 0.0481824 0.0954973 -0.994263 0.268341 0.0703684 -0.96075 
0.461405 -0.121361 -0.87885 -0.593621 -0.263163 -0.7605 -0.0970282 -0.0776275 -0.99225 
-0.269516 -0.105247 -0.957227 0.00838556 0.00734853 -0.999938 0.00734641 0.0141609 -0.999873 
0.087097 0.1014 -0.991026 0.070436 0.142289 -0.987316 0.0340523 0.0997253 -0.994432 
0.00534096 -0.00142549 -0.999985 0.0638355 0.0993976 -0.992998 0.203115 0.128162 -0.970731 
0.195527 -0.0752359 -0.977808 0.0761783 -0.305806 -0.949041 0.116748 -0.361102 -0.925189 
-0.450898 -0.116458 -0.884946 -0.165244 -0.0346821 -0.985643 0.018412 0.0288108 -0.999415 
0.149397 0.0363927 -0.988107 0.0800483 0.0734271 -0.994083 -0.131337 0.0355298 -0.990701 
-0.0306356 -0.0265458 -0.999178 0.188932 -0.0301835 -0.981526 0.147825 -0.112089 -0.982641 
0.0121831 -0.107444 -0.994137 0.0289654 -0.15474 -0.98753 0.150301 -0.10312 -0.983248 
0.331876 -0.0945651 -0.938571 -0.412833 0.120554 -0.902793 -0.147276 0.0846579 -0.985466 
0.0152802 0.0632412 -0.997881 0.130659 0.010037 -0.991377 0.0703917 -0.0109515 -0.997459 
-0.0537134 -0.0303713 -0.998094 -0.0628178 0.0870113 -0.994225 -0.0348186 0.0189127 -0.999215 
0.138925 -0.0727057 -0.98763 0.1438 -0.0525278 -0.988212 0.0767389 0.00354353 -0.997045 
0.178561 0.0194301 -0.983737 0.372518 0.0825418 -0.924347 -0.481674 0.314803 -0.817857 
-0.204954 0.218461 -0.95408 -0.0539115 0.180347 -0.982125 0.0719562 0.14234 -0.987199 
0.0369347 0.0586968 -0.997592 -0.0388336 -0.00120374 -0.999245 0.0137887 -0.0193799 -0.999717 
0.0389926 0.0414446 -0.99838 0.0767821 0.107072 -0.991282 0.0874291 0.0030463 -0.996166 
0.103631 0.0227419 -0.994356 0.219059 0.0727959 -0.972992 0.407473 0.151837 -0.900506 
-0.268241 0.419339 -0.867296 -0.0891935 0.339713 -0.93629 -0.000240759 0.275552 -0.961286 
-0.0698792 0.139598 -0.987739 -0.131995 0.0877602 -0.987358 -0.0120765 0.0622057 -0.99799 
0.0960507 0.0529287 -0.993968 0.0849654 0.0592872 -0.994618 0.0680639 0.0624178 -0.995727 
0.144419 0.107837 -0.983623 0.297158 0.182004 -0.937322 -0.19909 0.484636 -0.851758 
-0.140511 0.345607 -0.9278 -0.162687 0.220041 -0.961829 -0.114828 0.174077 -0.978014 
-0.0204475 0.206309 -0.978273 0.0386303 0.166874 -0.985221 0.0839704 0.148078 -0.985404 
0.136526 0.228068 -0.964026 0.217585 0.322744 -0.921137 0.395293 0.392098 -0.830664 
-0.226966 0.398889 -0.888467 -0.151906 0.32992 -0.931706 -0.0286046 0.302899 -0.952593 
0.0428804 0.296715 -0.954003 0.151036 0.34988 -0.924539 0.246599 0.468648 -0.848267 
-0.365805 -0.852982 -0.372302 -0.180627 -0.879211 -0.440864 -0.0151301 -0.879255 -0.476111 
0.0620775 -0.88103 -0.46897 0.201317 -0.880145 -0.429902 0.464767 -0.787087 -0.405568 
-0.577851 -0.731957 -0.36101 -0.53623 -0.762217 -0.362606 -0.566881 -0.735997 -0.370073 
0.600679 -0.694961 -0.39524 0.728938 -0.367753 -0.577414 -0.582024 -0.727992 -0.362319 
-0.629827 -0.77428 0.0617196 0.699443 -0.320574 -0.638759 -0.785287 -0.538567 -0.3054 
-0.789517 -0.523843 -0.319768 0.347154 -0.375821 -0.85921 0.228453 -0.408891 -0.883526 
0.298342 -0.473379 -0.828797 0.156711 -0.462019 -0.872915 0.217576 -0.633568 -0.742464 
0.343735 -0.728587 -0.592458 -0.821777 -0.358461 -0.442932 0.286168 -0.373243 -0.882495 
0.309667 -0.347703 -0.884991 0.305681 -0.374041 -0.875587 0.59095 -0.357349 -0.723243 
-0.889262 -0.115211 -0.44265 0.463685 -0.0712624 -0.883129 0.617686 -0.0232401 -0.786081 
-0.853123 0.0932609 -0.513307 -0.997154 0.00999444 -0.0747234 0.470774 0.0828425 -0.878356 
0.662048 0.102837 -0.742372 -0.714179 0.319475 -0.622804 -0.544315 0.459163 -0.702062 
0.447373 0.162845 -0.879397 0.44566 0.210544 -0.870091 0.716381 0.242623 -0.654165 
-0.499129 0.477227 -0.723274 -0.578604 0.481876 -0.658037 -0.334498 0.482508 -0.809504 
0.437123 0.257533 -0.861743 0.504284 0.288816 -0.813807 -0.656216 0.611027 -0.442749 
-0.272505 0.494502 -0.825353 -0.367922 0.53021 -0.763879 -0.220301 0.512702 -0.829822 
-0.230827 0.432271 -0.8717 0.287558 0.486574 -0.824958 0.404258 0.396303 -0.824329 
0.398233 0.404284 -0.823386 0.602316 0.534916 -0.59252 -0.326155 0.636332 -0.699074 
-0.242134 0.431954 -0.868784 -0.270684 0.482707 -0.832901 -0.239242 0.443298 -0.863858 
-0.173432 0.52314 -0.834413 -0.0335248 0.559134 -0.828399 0.0653434 0.54967 -0.832823 
0.21156 0.518571 -0.828448 0.273956 0.5108 -0.814881 0.265317 0.507433 -0.819829 
0.34099 0.622779 -0.704182 0.459043 0.752599 -0.472095 -0.319903 0.67681 -0.663016 
-0.180614 0.597129 -0.781547 -0.0339671 0.57742 -0.815741 0.0674267 0.568674 -0.819795 
0.256335 0.632933 -0.73054 0.407859 0.76073 -0.504917 -0.436141 -0.856874 0.27486 
-0.169806 -0.972689 0.158247 -0.0741348 -0.975731 0.20604 0.0487898 -0.979448 0.195707 
0.218851 -0.957781 0.186442 0.452972 -0.886011 0.098995 -0.530798 -0.805006 0.264986 
-0.54176 -0.80783 0.232178 -0.415164 -0.666517 0.619188 0.56752 -0.822921 0.0268734 
0.644371 -0.759009 -0.0932313 -0.623772 -0.761042 0.178108 -0.624475 -0.760507 0.177932 
-0.313235 -0.476047 0.821744 0.501414 -0.755061 -0.422454 0.471479 -0.75625 -0.453645 
0.465147 -0.807723 -0.362245 0.283886 -0.819437 -0.497927 0.334097 -0.805016 -0.490232 
-0.8163 -0.55685 0.153532 -0.81696 -0.555958 0.153257 0.466205 -0.725442 -0.506346 
0.620157 -0.566895 -0.54225 0.602978 -0.775569 -0.186846 -0.885954 -0.42028 0.196086 
-0.590324 -0.380131 0.712052 0.761332 -0.371663 -0.531263 -0.960177 -0.217911 0.174856 
-0.983334 -0.122983 0.133901 0.823802 -0.0249596 -0.566328 0.982061 -0.0253397 -0.186852 
-0.996337 -0.0201346 0.0831128 -0.99306 0.117142 0.0104586 -0.985343 -0.0416752 0.165415 
0.819204 0.151997 -0.552994 -0.984694 0.173011 -0.0210766 0.805161 0.270939 -0.527549 
0.788319 0.344811 -0.509567 -0.881314 0.390152 -0.266584 0.781067 0.363152 -0.507991 
0.819196 0.379928 -0.429619 -0.69422 0.606308 -0.387879 -0.669837 0.623999 -0.402423 
-0.477289 0.761228 -0.439008 0.662485 0.553768 -0.504435 0.618185 0.613264 -0.491686 
-0.465397 0.756528 -0.459423 -0.515021 0.786426 -0.34101 -0.400461 0.728467 -0.555848 
-0.37067 0.766467 -0.52453 0.427901 0.796849 -0.426535 0.49696 0.763834 -0.411811 
0.465721 0.78646 -0.40569 -0.369157 0.772693 -0.516399 -0.379577 0.799543 -0.465459 
-0.323635 0.810337 -0.488481 -0.208164 0.889714 -0.406296 -0.0744899 0.918356 -0.388682 
0.102394 0.914081 -0.392392 0.299129 0.856108 -0.421427 0.429205 0.795048 -0.428581 
0.423096 0.79492 -0.434847 -0.0667887 0.996369 -0.0527987 0.0839416 0.991253 -0.101835 
-0.274892 -0.522483 0.807122 -0.052114 -0.668762 0.741648 0.0185114 -0.711355 0.702589 
0.0937843 -0.775825 0.62394 0.260265 -0.848177 0.461365 -0.292472 -0.493839 0.818892 
-0.30503 -0.481849 0.821449 -0.284494 -0.483227 0.827982 -0.108249 -0.551032 0.827433 
-0.0181412 -0.598681 0.800782 0.0483836 -0.704415 0.708137 0.304178 -0.86484 0.399409 
0.232807 -0.833115 0.501718 0.394286 -0.898937 0.190922 0.368505 -0.929524 -0.0137446 
-0.347442 -0.377572 0.858326 -0.27697 -0.426229 0.861172 -0.261263 -0.415952 0.871049 
-0.304854 -0.424552 0.852537 -0.200946 -0.315814 0.927298 -0.122255 -0.300175 0.946017 
-0.110524 -0.313773 0.943044 -0.148746 -0.401065 0.903892 0.311623 -0.946988 -0.0781375 
0.287656 -0.95285 -0.0966009 0.386913 -0.917561 -0.0915448 0.587763 -0.805162 -0.0790451 
-0.353081 -0.370248 0.859215 -0.33918 -0.364925 0.867056 -0.266743 -0.418181 0.868316 
-0.185854 -0.310519 0.932221 -0.143891 -0.206627 0.967781 -0.105586 -0.149078 0.983172 
-0.169807 -0.150252 0.973956 0.616995 -0.782395 -0.0847098 0.615948 -0.772008 0.15688 
-0.520961 -0.358422 0.774683 -0.557458 -0.341643 0.756651 -0.388305 -0.367805 0.844949 
-0.16832 -0.34739 0.92249 -0.0901718 -0.317694 0.943896 -0.0352767 -0.226683 0.973329 
-0.0759061 -0.165043 0.983361 0.919368 -0.387281 -0.0691071 0.983293 -0.166344 -0.0739226 
-0.718089 -0.248362 0.650126 -0.549629 -0.295326 0.781467 -0.346721 -0.274663 0.896853 
0.997131 -0.0241173 -0.071753 0.993179 0.0851998 -0.079605 0.986775 -0.0328497 0.15873 
-0.791578 -0.12871 0.597359 -0.586871 -0.196874 0.785381 0.979707 0.180678 -0.0867776 
-0.885226 -0.0356624 0.463792 -0.654932 -0.125689 0.745162 0.94855 0.302059 -0.0949366 
-0.939471 0.196829 0.280449 -0.718922 0.00476531 0.695074 0.903443 0.418044 -0.0950205 
0.86036 0.502042 -0.0879424 -0.859753 0.502044 0.093682 -0.80859 0.585878 0.0541124 
-0.805836 0.367385 0.464389 0.79739 0.598077 -0.0804625 0.616477 0.784159 -0.0710716 
-0.648424 0.760648 -0.0309942 -0.575329 0.815508 -0.0627983 -0.463637 0.882266 -0.0815334 
0.478943 0.876754 -0.0437732 0.547193 0.835076 -0.056822 0.496367 0.866755 -0.0485331 
-0.44187 0.893303 -0.08222 -0.387681 0.919105 -0.0703563 -0.280526 0.959041 -0.0393214 
-0.153247 0.987781 0.0283711 0.266489 0.963829 -0.00403953 0.475468 0.878616 -0.044332 
0.444565 0.8947 -0.0432898 -0.0966813 0.994112 0.0489262 -0.0622724 0.99619 0.0610544 
-0.0615719 0.990523 0.122773 0.140785 0.98954 0.0314726 0.0715643 0.996274 0.0481218 
0.0653718 0.987285 0.144899 -0.0980977 -0.590229 0.801253 0.0771323 -0.782779 0.617501 
0.18663 -0.881697 0.433337 -0.14257 -0.467028 0.872673 -0.188717 -0.357355 0.914704 
-0.135239 -0.548919 0.824862 0.0205561 -0.706793 0.707122 0.193266 -0.886042 0.4214 
0.180293 -0.873764 0.451699 0.24776 -0.89564 0.369383 0.376328 -0.846463 0.376667 
-0.181108 -0.157731 0.970732 -0.17776 -0.176631 0.968093 -0.299232 -0.2436 0.922561 
-0.23865 -0.298961 0.923942 -0.132974 -0.337112 0.932027 -0.0601577 -0.460098 0.885828 
0.11046 -0.540863 0.833826 0.568031 -0.719819 0.399 0.35659 -0.679074 0.64164 
0.61645 -0.676404 0.403072 -0.176427 -0.328538 0.927866 -0.0819706 -0.321183 0.943463 
-0.0278939 -0.238997 0.97062 -0.0913742 -0.181415 0.979152 -0.0819126 -0.170802 0.981895 
-0.220585 -0.325157 0.919574 -0.315919 -0.250549 0.915107 -0.27146 -0.118941 0.955072 
0.821616 -0.388668 0.416994 0.564888 -0.329034 0.756728 -0.258587 -0.300101 0.91819 
-0.363815 -0.280476 0.888241 -0.184677 -0.323415 0.928061 -0.0595151 -0.32698 0.943155 
-0.00071688 -0.312914 0.949781 -0.209129 -0.269672 0.939969 -0.277104 -0.289513 0.916185 
-0.0255958 -0.233356 0.972054 -0.178594 -0.149949 0.97243 0.908473 -0.0462793 0.415373 
0.546683 -0.0252218 0.83696 -0.423165 -0.277001 0.862671 -0.372615 -0.285158 0.883087 
-0.200819 -0.297096 0.933491 -0.0528919 -0.307377 0.950117 0.0488746 -0.274169 0.960439 
-0.0668189 -0.239025 0.968712 -0.213978 -0.0840704 0.973214 -0.191211 -0.167925 0.967078 
0.912914 0.142216 0.382574 0.609207 0.047726 0.791574 -0.599546 -0.150946 0.785977 
-0.392511 -0.223347 0.892217 -0.216253 -0.223914 0.950314 -0.0385061 -0.217796 0.975235 
0.0606057 -0.231131 0.971033 -0.0614041 -0.249565 0.966409 -0.188349 -0.128235 0.973694 
0.893665 0.279379 0.351154 0.69575 0.223294 0.682694 -0.683029 -0.00985995 0.730325 
-0.410302 -0.0339617 0.911317 -0.215882 -0.0733714 0.973659 -0.043375 -0.0399323 0.99826 
0.843047 0.410514 0.347491 0.820427 0.455376 0.345734 0.804801 0.397095 0.441146 
-0.74942 0.317332 0.581094 -0.446359 0.221802 0.86693 -0.289711 0.148093 0.945588 
0.712029 0.597474 0.368835 0.608117 0.705762 0.363448 0.539791 0.568925 0.620443 
-0.619291 0.639908 0.454969 -0.606636 0.655903 0.449203 -0.602583 0.627313 0.493329 
-0.445322 0.781052 0.437774 -0.341671 0.483934 0.805648 -0.212475 0.380361 0.9001 
0.434997 0.818526 0.375223 0.275539 0.581096 0.765771 0.519552 0.785938 0.335212 
0.467303 0.817336 0.337031 0.43408 0.74854 0.501261 -0.378551 0.820109 0.429093 
-0.337443 0.826897 0.44986 -0.319968 0.773957 0.546453 -0.220129 0.854706 0.470128 
-0.167276 0.64209 0.748157 -0.0924926 0.844657 0.527256 -0.0442826 0.582832 0.811385 
-0.0478023 0.830306 0.555254 -0.0276551 0.530758 0.847072 0.0259087 0.837085 0.54646 
0.00569522 0.526881 0.84992 0.192094 0.854991 0.481758 0.121591 0.59537 0.794198 
0.4259 0.820073 0.382216 0.395175 0.825725 0.402511 0.342088 0.745492 0.572029 
-0.187413 -0.200838 0.96153 -0.0900535 -0.38233 0.919627 0.0880998 -0.481048 0.872257 
0.247009 -0.415143 0.875581 -0.204718 -0.174363 0.963166 -0.194887 -0.183857 0.96344 
-0.134308 -0.235963 0.962436 0.0280742 -0.271085 0.962146 0.41818 -0.309231 0.854108 
0.199731 -0.293221 0.934949 -0.217371 -0.166963 0.961703 -0.209282 -0.212982 0.954379 
-0.263837 -0.183426 0.946966 -0.140101 -0.182894 0.973099 0.0365504 -0.144928 0.988767 
0.46998 -0.0362972 0.88193 0.243987 -0.119002 0.962449 -0.208544 -0.20086 0.957165 
-0.198556 -0.142826 0.969627 -0.236128 -0.264696 0.934976 -0.220848 -0.190471 0.956529 
-0.0963376 -0.126306 0.987302 0.0864421 -0.0754903 0.993393 0.549621 0.0320987 0.834798 
0.305447 -0.0224159 0.951945 -0.0475181 -0.156863 0.986477 0.030413 -0.181819 0.982862 
0.0244167 -0.174003 0.984442 -0.192379 -0.119263 0.974047 -0.211069 -0.0799906 0.974193 
-0.201984 -0.0963338 0.97464 -0.137192 -0.0534034 0.989104 -0.0263435 0.00835626 0.999618 
0.13645 0.0686744 0.988264 0.563906 0.168243 0.80852 0.356609 0.104373 0.928405 
-0.136126 -0.097245 0.985907 -0.0518226 -0.118808 0.991564 0.0198913 -0.164821 0.986123 
-0.0206613 -0.0792197 0.996643 0.0309756 -0.167805 0.985334 -0.0519686 -0.035575 0.998015 
-0.0365484 -0.0360751 0.998681 -0.178077 0.0267221 0.983654 -0.207058 0.0528675 0.976899 
-0.113675 0.112615 0.987115 0.0245507 0.161544 0.98656 0.184288 0.222826 0.957281 
0.523696 0.314269 0.791819 0.453611 0.391216 0.800742 0.418356 0.294347 0.859266 
-0.225645 0.119632 0.966836 -0.171975 0.236702 0.956241 -0.127525 0.0801784 0.988589 
0.0084371 -0.00137438 0.999963 0.0621779 -0.0147554 0.997956 0.00648026 -0.0132953 0.999891 
-0.116882 0.0246028 0.992841 -0.117289 0.126294 0.985035 -0.0220078 0.217071 0.975908 
0.206817 0.481391 0.851757 0.0925667 0.335809 0.937371 0.350413 0.460259 0.815704 
0.310851 0.478697 0.82111 0.295728 0.432364 0.851826 -0.124637 0.288728 0.949264 
-0.0893734 0.294903 0.951338 -0.0795869 0.248582 0.965336 0.0189153 0.247333 0.968746 
0.0224135 0.212357 0.976935 -0.00494252 0.187194 0.982311 -0.0040797 0.170532 0.985344 
-0.0289225 0.235949 0.971335 -0.035964 0.190209 0.981085 0.00732011 0.337814 0.941184 
-0.0121042 0.285361 0.958344 0.159839 0.438029 0.884637 0.126022 0.414177 0.90143 
0.105877 0.376822 0.920215 
