# vtk DataFile Version 4.2
vtk output
ASCII
DATASET POLYDATA
POINTS 514 float
9.36632 -21.7872 -24.9623 -14.4977 -37.6966 -19.1646 -6.54303 -37.6966 -19.5724 
1.41165 -37.6966 -19.7589 9.36632 -37.6966 -19.8308 17.321 -37.6966 -18.8111 
-22.4524 -29.7419 -20.1048 -14.4977 -29.7419 -21.7405 -6.54303 -29.7419 -22.0422 
1.41165 -29.7419 -23.1922 9.36632 -22.1582 -24.9191 9.36632 -29.7419 -23.9844 
17.321 -29.7419 -23.5767 25.2757 -29.7419 -21.9874 33.2303 -29.7419 -19.3576 
-30.4071 -21.7872 -18.0442 -22.4524 -21.7872 -19.9749 -14.4977 -21.7872 -21.5868 
-6.54303 -21.7872 -22.417 9.01494 -21.7872 -24.9191 1.41165 -21.7872 -23.9408 
10.6369 -21.7872 -24.9191 9.36632 -21.3484 -24.9191 17.321 -21.7872 -24.6845 
25.2757 -21.7872 -23.6477 33.2303 -21.7872 -22.193 41.185 -21.7872 -19.4946 
-30.4071 -13.8326 -17.5128 -22.4524 -13.8326 -18.5216 -14.4977 -13.8326 -19.7003 
-6.54303 -13.8326 -21.539 1.41165 -13.8326 -23.9399 9.36632 -13.8326 -24.1225 
17.321 -13.8326 -22.7402 25.2757 -13.8326 -22.8561 33.2303 -13.8326 -23.0911 
41.185 -13.8326 -22.0213 49.1397 -13.8326 -17.5716 -14.4977 -5.87788 -17.1246 
-6.54303 -5.87788 -20.5295 1.41165 -5.87788 -23.346 9.36632 -5.87788 -21.5039 
17.321 -5.87788 -20.2264 25.2757 -5.87788 -22.2579 33.2303 -5.87788 -23.8387 
41.185 -5.87788 -23.7522 49.1397 -5.87788 -19.9619 -30.4071 2.0768 -17.8143 
-22.4524 2.0768 -18.2487 -14.4977 2.0768 -18.4458 -6.54303 2.0768 -18.4745 
1.41165 2.0768 -21.2144 9.36632 2.0768 -20.7556 17.321 2.0768 -20.3358 
25.2757 2.0768 -22.6393 33.2303 2.0768 -23.7746 41.185 2.0768 -23.6622 
49.1397 2.0768 -20.68 -30.4071 10.0315 -18.4103 -22.4524 10.0315 -19.4339 
-14.4977 10.0315 -19.647 -6.54303 10.0315 -19.1581 1.41165 10.0315 -19.0207 
9.36632 10.0315 -19.1948 17.321 10.0315 -21.1529 25.2757 10.0315 -23.4187 
33.2303 10.0315 -24.1904 41.185 10.0315 -23.5136 49.1397 10.0315 -20.0766 
-30.4071 17.9861 -17.2867 -22.4524 17.9861 -18.4709 -14.4977 17.9861 -18.9603 
-6.54303 17.9861 -18.6439 1.41165 17.9861 -17.241 9.36632 17.9861 -17.9086 
17.321 17.9861 -20.5779 25.2757 17.9861 -22.2415 33.2303 17.9861 -23.2597 
41.185 17.9861 -22.0447 9.36632 25.9408 -17.3577 17.321 25.9408 -18.7949 
25.2757 25.9408 -20.2447 33.2303 25.9408 -20.1134 41.185 25.9408 -17.0771 
-14.4977 -40.1199 -16.9644 -6.54303 -40.939 -16.9644 1.41165 -40.9613 -16.9644 
9.36632 -40.4725 -16.9644 17.321 -39.2767 -16.9644 -30.4071 -37.6966 -9.67699 
-22.256 -37.6966 -16.9644 -22.4524 -37.58 -16.9644 -22.4524 -37.6966 -16.8802 
22.0432 -37.6966 -16.9644 25.2757 -36.3876 -16.9644 25.2757 -37.6966 -14.3068 
33.2303 -32.4045 -16.9644 -38.3617 -29.7419 -10.0853 -30.3624 -29.7419 -16.9644 
-30.4071 -29.6011 -16.9644 -30.4071 -29.7419 -16.9407 36.9028 -29.7419 -16.9644 
41.185 -25.7984 -16.9644 41.185 -29.7419 -10.7512 -32.4772 -21.7872 -16.9644 
-38.3617 -21.7872 -13.5921 44.8579 -21.7872 -16.9644 49.1397 -14.9408 -16.9644 
-46.3164 -13.8326 -10.2601 -32.1192 -13.8326 -16.9644 -38.3617 -13.8326 -14.8127 
-30.4071 -7.88925 -16.9644 -22.4524 -6.77881 -16.9644 49.6743 -13.8326 -16.9644 
-46.3164 -5.87788 -11.8126 -38.3617 -5.87788 -16.0109 -30.4071 -4.51231 -16.9644 
-30.4071 -5.87788 -16.7983 -17.9467 -5.87788 -16.9644 -22.4524 -4.83485 -16.9644 
-22.4524 -5.87788 -16.772 52.4159 -5.87788 -16.9644 -46.3164 2.0768 -12.9117 
-34.7082 2.0768 -16.9644 -38.3617 2.0768 -16.2373 53.0984 2.0768 -16.9644 
-46.3164 10.0315 -12.1259 -37.9684 10.0315 -16.9644 -38.3617 10.0315 -16.8766 
52.1705 10.0315 -16.9644 49.1397 17.6288 -16.9644 -31.3707 17.9861 -16.9644 
-38.3617 17.9861 -14.3949 -30.4071 18.7991 -16.9644 -22.4524 22.4708 -16.9644 
-14.4977 24.8739 -16.9644 -6.54303 25.1273 -16.9644 1.41165 20.9297 -16.9644 
48.9323 17.9861 -16.9644 49.1397 17.9861 -16.55 -38.3617 25.9408 -10.1109 
-30.4071 25.9408 -13.8216 -22.4524 25.9408 -15.7214 -14.4977 25.9408 -16.637 
-6.54303 25.9408 -16.7707 5.73854 25.9408 -16.9644 1.41165 25.9408 -16.4981 
9.36632 27.1484 -16.9644 17.321 30.57 -16.9644 25.2757 32.0108 -16.9644 
33.2303 30.1473 -16.9644 41.3248 25.9408 -16.9644 41.185 26.0556 -16.9644 
-22.4524 33.8955 -10.8 -14.4977 33.8955 -12.4084 -6.54303 33.8955 -12.8638 
1.41165 33.8955 -13.3836 9.36632 33.8955 -14.434 17.321 33.8955 -15.4148 
25.2757 33.8955 -15.4142 33.2303 33.8955 -12.0761 -30.4071 -38.072 -9.00974 
-22.4524 -42.2722 -9.00974 -14.4977 -44.4177 -9.00974 -6.54303 -45.5022 -9.00974 
-6.54303 -45.6513 -3.7187 1.41165 -45.2284 -9.00974 9.36632 -44.2879 -9.00974 
17.321 -42.4659 -9.00974 25.2757 -39.6577 -9.00974 -30.9103 -37.6966 -9.00974 
-38.3617 -30.6687 -9.00974 29.6685 -37.6966 -9.00974 33.2303 -35.9544 -9.00974 
41.185 -30.4915 -9.00974 -39.1484 -29.7419 -9.00974 42.05 -29.7419 -9.00974 
41.185 -29.7419 -1.40676 -43.9112 -21.7872 -9.00974 -46.3164 -16.7711 -9.00974 
-46.3164 -21.7872 -3.62665 48.898 -21.7872 -9.00974 49.1397 -21.3989 -9.00974 
-47.5206 -13.8326 -9.00974 53.09 -13.8326 -9.00974 -49.1286 -5.87788 -9.00974 
55.4203 -5.87788 -9.00974 -50.1318 2.0768 -9.00974 -54.2711 2.0768 -1.09762 
55.6736 2.0768 -9.00974 -49.1646 10.0315 -9.00974 -46.3164 17.6373 -9.00974 
54.5639 10.0315 -9.00974 -46.1428 17.9861 -9.00974 -46.3164 17.9861 -8.78828 
51.7241 17.9861 -9.00974 49.1397 22.1682 -9.00974 -39.582 25.9408 -9.00974 
-38.3617 27.1107 -9.00974 -30.4071 32.7007 -9.00974 46.2506 25.9408 -9.00974 
41.185 30.7045 -9.00974 -27.7315 33.8955 -9.00974 -30.4071 33.8955 -7.56789 
-22.4524 35.7787 -9.00974 -14.4977 37.5309 -9.00974 -6.54303 38.2769 -9.00974 
1.41165 38.8081 -9.00974 9.36632 39.7763 -9.00974 17.321 39.9394 -9.00974 
25.2757 38.638 -9.00974 36.3653 33.8955 -9.00974 33.2303 35.6699 -9.00974 
-14.4977 41.8502 -2.33947 -6.54303 41.8502 -3.85291 1.41165 41.8502 -4.33012 
9.36632 41.8502 -4.96232 17.321 41.8502 -3.48135 -6.54303 -45.7234 -1.05506 
-30.4071 -38.67 -1.05506 -22.4524 -42.5566 -1.05506 -7.13912 -45.6513 -1.05506 
-14.4977 -44.7547 -1.05506 -4.72684 -45.6513 -1.05506 -6.54303 -45.6513 -0.781639 
1.41165 -45.403 -1.05506 9.36632 -44.2643 -1.05506 17.321 -42.219 -1.05506 
25.2757 -39.2035 -1.05506 -31.8505 -37.6966 -1.05506 -38.3617 -32.4859 -1.05506 
-30.4071 -37.6966 2.28383 28.4538 -37.6966 -1.05506 25.2757 -37.6966 2.19812 
33.2303 -35.1841 -1.05506 -41.056 -29.7419 -1.05506 -46.3164 -23.1514 -1.05506 
41.1348 -29.7419 -1.05506 41.185 -29.698 -1.05506 -47.28 -21.7872 -1.05506 
47.8983 -21.7872 -1.05506 49.1397 -19.713 -1.05506 -51.3812 -13.8326 -1.05506 
51.9774 -13.8326 -1.05506 49.1397 -13.8326 4.01557 -53.6799 -5.87788 -1.05506 
-54.2711 1.84449 -1.05506 54.0281 -5.87788 -1.05506 -54.2888 2.0768 -1.05506 
-54.2711 2.2284 -1.05506 54.303 2.0768 -1.05506 -53.3006 10.0315 -1.05506 
53.2241 10.0315 -1.05506 49.1397 10.0315 6.63755 -50.2282 17.9861 -1.05506 
-46.3164 24.0887 -1.05506 50.8528 17.9861 -1.05506 49.1397 20.8671 -1.05506 
49.1397 17.9861 2.69318 -44.8421 25.9408 -1.05506 -38.3617 32.4403 -1.05506 
45.6796 25.9408 -1.05506 41.185 30.8242 -1.05506 -36.3905 33.8955 -1.05506 
-30.4071 37.6864 -1.05506 -22.4524 40.8601 -1.05506 25.2757 40.4745 -1.05506 
37.3887 33.8955 -1.05506 33.2303 36.7159 -1.05506 -17.7543 41.8502 -1.05506 
-22.4524 41.8502 4.6396 -14.4977 42.5274 -1.05506 -6.54303 43.4045 -1.05506 
1.41165 43.5645 -1.05506 9.36632 43.4726 -1.05506 20.1652 41.8502 -1.05506 
17.321 42.5861 -1.05506 -22.4524 -40.5709 6.89961 -14.4977 -42.8488 6.89961 
-6.54303 -43.3385 6.89961 1.41165 -42.3968 6.89961 9.36632 -40.6474 6.89961 
17.321 -38.4926 6.89961 -38.3617 -30.1596 6.89961 -27.962 -37.6966 6.89961 
-30.4071 -36.27 6.89961 -22.4524 -37.6966 12.1865 -6.54303 -37.6966 14.6121 
1.41165 -37.6966 12.4902 9.36632 -37.6966 10.1018 19.2626 -37.6966 6.89961 
17.321 -37.6966 7.79997 25.2757 -34.8118 6.89961 33.2303 -30.5545 6.89961 
-38.8261 -29.7419 6.89961 -46.3164 -21.8217 6.89961 -38.3617 -29.7419 7.63334 
17.321 -29.7419 13.7069 25.2757 -29.7419 11.2511 34.3082 -29.7419 6.89961 
33.2303 -29.7419 7.68066 41.185 -23.3389 6.89961 -46.3439 -21.7872 6.89961 
-46.3164 -21.7872 6.95611 33.2303 -21.7872 12.772 42.5254 -21.7872 6.89961 
41.185 -21.7872 8.12454 -51.071 -13.8326 6.89961 46.9565 -13.8326 6.89961 
41.185 -13.8326 12.2424 49.1397 -7.22462 6.89961 -53.6882 -5.87788 6.89961 
-54.2711 0.310135 6.89961 41.185 -5.87788 13.7478 49.5219 -5.87788 6.89961 
49.1397 -5.87788 7.34053 -54.4354 2.0768 6.89961 -54.2711 3.31107 6.89961 
-54.2711 2.0768 7.37263 41.185 2.0768 14.2031 49.818 2.0768 6.89961 
49.1397 8.55885 6.89961 49.1397 2.0768 7.68907 -53.3592 10.0315 6.89961 
48.9661 10.0315 6.89961 41.185 10.0315 13.7697 -50.3768 17.9861 6.89961 
-46.3164 25.059 6.89961 46.827 17.9861 6.89961 41.185 17.9861 12.8151 
-45.7327 25.9408 6.89961 -38.3617 33.8201 6.89961 42.3473 25.9408 6.89961 
41.185 27.4372 6.89961 41.185 25.9408 8.40779 -38.2643 33.8955 6.89961 
-30.4071 39.0128 6.89961 25.2757 39.654 6.89961 34.6466 33.8955 6.89961 
33.2303 34.9804 6.89961 33.2303 33.8955 8.52281 -23.4464 41.8502 6.89961 
-22.4524 42.2212 6.89961 -22.4524 41.8502 8.57759 -14.4977 44.0606 6.89961 
-6.54303 45.133 6.89961 1.41165 45.0672 6.89961 9.36632 44.3974 6.89961 
9.36632 41.8502 13.617 19.4977 41.8502 6.89961 17.321 42.6181 6.89961 
17.321 41.8502 8.9785 -14.4977 -37.7466 14.8543 -30.4071 -31.1687 14.8543 
-14.7337 -37.6966 14.8543 -22.4524 -35.6236 14.8543 -12.8918 -37.6966 14.8543 
-14.4977 -37.6966 14.9037 -6.54303 -37.3734 14.8543 1.41165 -33.9949 14.8543 
9.36632 -30.2534 14.8543 -32.3634 -29.7419 14.8543 -38.3617 -24.8888 14.8543 
-30.4071 -29.7419 16.1797 -22.4524 -29.7419 19.1215 -14.4977 -29.7419 19.999 
-6.54303 -29.7419 18.9703 1.41165 -29.7419 16.9866 10.9355 -29.7419 14.8543 
9.36632 -29.7419 15.1127 17.321 -26.7419 14.8543 25.2757 -22.9136 14.8543 
-41.4677 -21.7872 14.8543 -46.3164 -15.8739 14.8543 -38.3617 -21.7872 17.4918 
-30.4071 -21.7872 21.2931 -22.4524 -21.7872 22.6601 -14.4977 -21.7872 22.5188 
-6.54303 -21.7872 21.3481 1.41165 -21.7872 19.5441 9.36632 -21.7872 17.7931 
17.321 -21.7872 16.5822 26.99 -21.7872 14.8543 25.2757 -21.7872 15.3749 
[...]
POINT_DATA 514
SCALARS ImageScalars float
LOOKUP_TABLE default
0 0 0 0 0 0 0 0 0 
0 0 0 0 0 0 0 0 0 
0 0 0 0 0 0 0 0 0 
0 0 0 0 0 0 0 0 0 
0 0 0 0 0 0 0 0 0 
0 0 0 0 0 0 0 0 0 
0 0 0 0 0 0 0 0 0 
0 0 0 0 0 0 0 0 0 
0 0 0 0 0 0 0 0 0 
0 0 0 0 0 0 0 0 0 
0 0 0 0 0 0 0 0 0 
0 0 0 0 0 0 0 0 0 
0 0 0 0 0 0 0 0 0 
0 0 0 0 0 0 0 0 0 
0 0 0 0 0 0 0 0 0 
0 0 0 0 0 0 0 0 0 
0 0 0 0 0 0 0 0 0 
0 0 0 0 0 0 0 0 0 
0 0 0 0 0 0 0 0 0 
0 0 0 0 0 0 0 0 0 
0 0 0 0 0 0 0 0 0 
0 0 0 0 0 0 0 0 0 
0 0 0 0 0 0 0 0 0 
0 0 0 0 0 0 0 0 0 
0 0 0 0 0 0 0 0 0 
0 0 0 0 0 0 0 0 0 
0 0 0 0 0 0 0 0 0 
0 0 0 0 0 0 0 0 0 
0 0 0 0 0 0 0 0 0 
0 0 0 0 0 0 0 0 0 
0 0 0 0 0 0 0 0 0 
0 0 0 0 0 0 0 0 0 
0 0 0 0 0 0 0 0 0 
0 0 0 0 0 0 0 0 0 
0 0 0 0 0 0 0 0 0 
0 0 0 0 0 0 0 0 0 
0 0 0 0 0 0 0 0 0 
0 0 0 0 0 0 0 0 0 
0 0 0 0 0 0 0 0 0 
0 0 0 0 0 0 0 0 0 
0 0 0 0 0 0 0 0 0 
0 0 0 0 0 0 0 0 0 
0 0 0 0 0 0 0 0 0 
0 0 0 0 0 0 0 0 0 
0 0 0 0 0 0 0 0 0 
0 0 0 0 0 0 0 0 0 
0 0 0 0 0 0 0 0 0 
0 0 0 0 0 0 0 0 0 
0 0 0 0 0 0 0 0 0 
0 0 0 0 0 0 0 0 0 
0 0 0 0 0 0 0 0 0 
0 0 0 0 0 0 0 0 0 
0 0 0 0 0 0 0 0 0 
0 0 0 0 0 0 0 0 0 
0 0 0 0 0 0 0 0 0 
0 0 0 0 0 0 0 0 0 
0 0 0 0 0 0 0 0 0 
0 
NORMALS Normals float
0.0438215 0.0087614 0.999001 0.154922 0.540135 0.827196 0.0332459 0.508366 0.860499 
0.0148854 0.566196 0.824136 -0.0439288 0.657779 0.751929 -0.195662 0.72575 0.659547 
0.276425 0.161047 0.947446 0.125747 0.130723 0.983412 0.0850435 0.164314 0.982735 
0.121097 0.240128 0.963158 0.0428912 0.0199881 0.99888 0.0224472 0.270668 0.962411 
-0.116767 0.28492 0.951413 -0.234904 0.390423 0.890163 -0.410398 0.540948 0.734131 
0.361352 0.0332506 0.931837 0.210638 -0.0969406 0.972746 0.15053 -0.117905 0.981549 
0.142518 -0.029877 0.989341 0.0488675 0.0102713 0.998752 0.162825 0.0439401 0.985676 
0.0239592 -0.000305752 0.999713 0.0377928 -0.00145352 0.999285 -0.0840601 -0.0499003 0.99521 
-0.154489 0.0440687 0.987011 -0.240051 0.194493 0.951077 -0.464471 0.395602 0.792317 
0.219783 -0.0794279 0.97231 0.126942 -0.198135 0.97192 0.188817 -0.27431 0.942922 
0.25202 -0.112921 0.961111 0.157178 -0.0356096 0.986928 -0.0722057 -0.19576 0.97799 
-0.0758463 -0.28165 0.956515 0.0216855 -0.0863968 0.996025 -0.0443734 0.100988 0.993898 
-0.279895 0.256738 0.925064 -0.692776 0.34234 0.634716 0.221988 -0.0695001 0.972569 
0.367429 -0.190433 0.910347 0.0674024 -0.157954 0.985143 -0.209768 -0.216403 0.953503 
0.0537765 -0.145022 0.987966 0.218485 -0.0155121 0.975717 0.0920525 0.0440337 0.99478 
-0.198662 0.0875292 0.976152 -0.599857 0.155716 0.784809 0.122822 0.101014 0.987274 
0.0399322 0.17171 0.984338 0.0147298 0.159589 0.987074 0.151839 -0.0759505 0.985483 
0.156972 -0.273572 0.948956 -0.0544033 -0.143527 0.98815 0.119385 0.0576799 0.991171 
0.211452 0.0696677 0.974902 0.0591393 0.0224392 0.997998 -0.163183 -0.0142212 0.986493 
-0.585934 0.00723613 0.810327 0.158967 -0.0277398 0.986894 0.0770396 0.0162698 0.996895 
-0.0166992 0.0300634 0.999408 -0.0393138 0.011333 0.999163 0.00186178 -0.236583 0.97161 
0.12953 -0.170399 0.976825 0.252149 0.0133902 0.967596 0.184274 -0.0270432 0.982503 
0.00186838 -0.0304199 0.999535 -0.214515 -0.0890343 0.972654 -0.642887 -0.177002 0.745229 
0.22447 -0.252997 0.941066 0.0996187 -0.217158 0.97104 0.0102017 -0.180835 0.983461 
-0.10396 -0.146394 0.983748 -0.0449732 -0.149924 0.987674 0.203084 -0.109644 0.973003 
0.269865 -0.141612 0.952428 0.159251 -0.191382 0.96851 -0.00398462 -0.23008 0.973164 
-0.304752 -0.323162 0.895931 0.139399 -0.190412 0.971757 0.177306 -0.286489 0.941534 
0.0791939 -0.360772 0.929286 -0.139627 -0.507599 0.850205 -0.467197 -0.654037 0.594948 
0.16274 0.689419 0.705845 0.0426657 0.679077 0.732826 -0.0249976 0.719948 0.693578 
-0.0897058 0.77609 0.624209 -0.209647 0.795882 0.567996 0.569629 0.765976 0.298001 
0.338759 0.58375 0.737888 0.34243 0.577841 0.740839 0.343934 0.587023 0.73288 
-0.282184 0.781464 0.556495 -0.327929 0.750467 0.573813 -0.354713 0.845423 0.399298 
-0.453042 0.674625 0.582781 0.737317 0.522224 0.42854 0.446307 0.277884 0.850641 
0.446117 0.274295 0.851905 0.447929 0.279179 0.849364 -0.512907 0.629402 0.583764 
-0.553799 0.549675 0.625431 -0.631559 0.744489 0.216492 0.405075 0.0589562 0.912381 
0.572855 0.20286 0.794157 -0.622957 0.460175 0.632585 -0.711044 0.369003 0.598542 
0.676686 0.24276 0.6951 0.258658 -0.0325373 0.965421 0.394455 0.136961 0.908651 
0.084258 -0.00305638 0.996439 0.0320375 -0.0350028 0.998874 -0.717015 0.350939 0.602272 
0.617377 0.131768 0.775553 0.24897 0.080025 0.965199 0.0542601 0.0335696 0.997962 
0.0411058 0.0208991 0.998936 0.133516 -0.0453272 0.990009 0.0224282 0.00924154 0.999706 
0.0194206 -0.0153007 0.999694 -0.759951 0.192842 0.620714 0.596547 0.0174638 0.802388 
0.187783 0.0724238 0.979537 0.252333 0.0465835 0.966518 -0.807406 -0.0176942 0.589731 
0.659058 -0.190074 0.727677 0.302402 -0.0894082 0.948978 0.31187 -0.0931879 0.945544 
-0.806418 -0.214224 0.551179 -0.731893 -0.449508 0.512128 0.246322 -0.261351 0.933285 
0.43189 -0.332576 0.83837 0.227836 -0.272614 0.934758 0.129174 -0.324576 0.936998 
0.0525461 -0.331929 0.94184 -0.0189577 -0.295848 0.955047 -0.0150694 -0.170911 0.985171 
-0.723571 -0.460339 0.514327 -0.74198 -0.462154 0.485674 0.518197 -0.56682 0.640459 
0.275381 -0.477525 0.834347 0.154171 -0.411411 0.898316 0.059984 -0.356718 0.932284 
-0.00865077 -0.313832 0.949439 0.0921958 -0.199793 0.975491 0.0358556 -0.212103 0.976589 
0.135891 -0.232203 0.963128 0.118225 -0.417927 0.900755 -0.0412204 -0.580601 0.813144 
-0.240032 -0.650646 0.720447 -0.473147 -0.655497 0.588605 -0.469269 -0.65722 0.589786 
0.209888 -0.644908 0.734874 0.104832 -0.60133 0.792094 0.0512742 -0.573058 0.817909 
0.0855332 -0.52605 0.846141 0.109794 -0.511655 0.852147 0.0538437 -0.553986 0.830783 
-0.106025 -0.684211 0.721536 -0.364314 -0.822183 0.437368 0.565566 0.781423 0.263655 
0.350767 0.908537 0.226987 0.194002 0.954532 0.226347 0.0494336 0.973691 0.222448 
0.0439553 0.999021 -0.00504319 -0.0738008 0.97457 0.21158 -0.168464 0.967315 0.18953 
-0.269036 0.951459 0.149482 -0.367743 0.920452 0.132412 0.576094 0.772473 0.26721 
0.737998 0.567001 0.36588 -0.447025 0.885885 0.124004 -0.509148 0.852134 0.120983 
-0.631238 0.764484 0.130778 0.748596 0.545074 0.377488 -0.649305 0.749524 0.128908 
-0.644892 0.721782 -0.251288 0.739621 0.388647 0.549467 0.73627 0.318367 0.597117 
0.828305 0.508743 0.234716 -0.824638 0.55569 0.10574 -0.831489 0.545477 0.105266 
0.733398 0.257495 0.629145 -0.927187 0.360595 0.101469 0.731073 0.136531 0.6685 
-0.984839 0.161122 0.064283 0.767998 -0.000210935 0.640452 0.976729 -0.0196923 0.213571 
-0.997337 -0.0523573 0.0507625 0.766217 -0.207082 0.6083 0.699606 -0.403046 0.590004 
-0.974407 -0.219507 0.0484512 0.694484 -0.410854 0.59067 0.703379 -0.413552 0.578128 
-0.885499 -0.457177 0.0829467 -0.824639 -0.557414 0.0962316 0.555515 -0.575551 0.600121 
0.530055 -0.593781 0.605364 0.370286 -0.674478 0.638723 -0.731402 -0.668463 0.134939 
-0.611078 -0.76787 0.192249 0.323299 -0.688675 0.649003 0.395339 -0.721473 0.568493 
0.222186 -0.702773 0.675828 0.119484 -0.730212 0.672692 0.0614972 -0.734378 0.675949 
0.074195 -0.752455 0.654451 0.0566538 -0.805751 0.589538 -0.066926 -0.869978 0.488528 
-0.234154 -0.88849 0.39466 -0.486734 -0.835377 0.25541 -0.413323 -0.861667 0.294439 
0.144234 -0.911 0.386362 0.0624638 -0.885269 0.460866 0.0318109 -0.894052 0.446833 
-0.00846934 -0.919892 0.392081 -0.149483 -0.960035 0.236616 0.040374 0.992259 -0.117441 
0.516345 0.851612 -0.090247 0.343506 0.934447 -0.0938727 0.0514591 0.992007 -0.115212 
0.189349 0.978001 -0.0875247 0.011205 0.992195 -0.124192 0.0386984 0.991172 -0.12681 
-0.0882927 0.985105 -0.147558 -0.193715 0.96379 -0.183257 -0.295126 0.933629 -0.203071 
-0.390447 0.89251 -0.225782 0.545332 0.833899 -0.0849962 0.693659 0.719563 -0.0326418 
0.518742 0.832798 -0.193273 -0.432708 0.871293 -0.231542 -0.388372 0.844566 -0.368613 
-0.499087 0.830496 -0.247363 0.738154 0.674632 -0.000150198 0.825738 0.55592 0.0954467 
-0.642227 0.717866 -0.268725 -0.643362 0.716748 -0.268992 0.840254 0.531205 0.108605 
-0.796905 0.538087 -0.274599 -0.830616 0.480376 -0.281631 0.914052 0.361322 0.184272 
-0.895264 0.325216 -0.304527 -0.802957 0.310857 -0.508555 0.961917 0.167724 0.215834 
0.977237 -0.014293 0.21167 -0.935556 0.141703 -0.323503 0.977163 -0.0197598 0.211571 
0.977081 -0.0238705 0.211523 -0.944106 -0.047083 -0.326261 0.948282 -0.238806 0.209124 
-0.929991 -0.20072 -0.307941 -0.797412 -0.148093 -0.584981 0.874812 -0.435787 0.211645 
0.784238 -0.571532 0.241501 -0.87908 -0.405917 -0.2499 -0.847714 -0.477325 -0.231392 
-0.845556 -0.372556 -0.38241 0.744727 -0.616407 0.255781 0.615028 -0.730247 0.297456 
-0.775151 -0.605153 -0.181471 -0.684696 -0.718806 -0.120456 0.572302 -0.762129 0.302704 
0.425138 -0.849537 0.312321 0.265694 -0.908902 0.321409 -0.33346 -0.941046 0.0568987 
-0.588481 -0.805498 -0.0697396 -0.504721 -0.86284 -0.0276337 0.194632 -0.923566 0.33037 
0.287384 -0.955407 0.0678818 0.148319 -0.928857 0.339449 0.0617454 -0.928698 0.36566 
0.00379009 -0.941017 0.338338 -0.0599789 -0.966341 0.250173 -0.230431 -0.9661 0.116417 
-0.177056 -0.973173 0.146918 0.34967 0.870213 -0.347074 0.154365 0.915198 -0.372269 
-0.0224088 0.90183 -0.431511 -0.144567 0.847916 -0.510038 -0.208374 0.788533 -0.578616 
-0.280096 0.759257 -0.587431 0.628379 0.714241 -0.30822 0.463485 0.816294 -0.344741 
0.50921 0.788328 -0.345318 0.318824 0.776821 -0.543047 -0.110056 0.636001 -0.7638 
-0.202222 0.638165 -0.742867 -0.218083 0.679142 -0.700861 -0.299346 0.748789 -0.59136 
-0.276305 0.729471 -0.625722 -0.351642 0.705638 -0.615161 -0.455611 0.648347 -0.609972 
0.634706 0.709923 -0.305217 0.772778 0.586762 -0.241917 0.624446 0.708772 -0.32819 
-0.203789 0.435509 -0.876814 -0.299673 0.547858 -0.781055 -0.473227 0.634264 -0.611363 
-0.447459 0.624606 -0.640037 -0.589746 0.518293 -0.619332 0.773336 0.586113 -0.241708 
0.77255 0.58631 -0.243738 -0.363456 0.405776 -0.838597 -0.615356 0.483785 -0.622326 
-0.57592 0.479204 -0.66233 0.896477 0.399503 -0.191639 -0.714591 0.296631 -0.633537 
-0.529781 0.270036 -0.803998 -0.76344 0.16106 -0.625475 0.965433 0.193399 -0.174746 
0.985985 0.0272682 -0.16459 -0.494722 0.0982623 -0.863478 -0.769084 0.133683 -0.625011 
-0.759275 0.133284 -0.636975 0.986645 -0.0199229 -0.161666 0.985223 -0.0533367 -0.16276 
0.983179 -0.0195119 -0.181602 -0.487441 0.00149378 -0.873155 -0.783547 -0.028266 -0.620689 
-0.790368 -0.124013 -0.599949 -0.765726 -0.0264836 -0.642622 0.957467 -0.236004 -0.166011 
-0.789539 -0.145526 -0.596197 -0.519042 -0.0670883 -0.852112 0.896094 -0.418323 -0.148397 
0.820342 -0.561265 -0.109639 -0.773555 -0.318107 -0.548106 -0.589289 -0.220408 -0.777277 
0.806896 -0.581536 -0.103608 0.642641 -0.76325 -0.0667939 -0.729996 -0.508247 -0.456936 
-0.711707 -0.544001 -0.44445 -0.702913 -0.492391 -0.513288 0.640069 -0.765455 -0.0662673 
0.445985 -0.893518 -0.0521808 -0.406054 -0.868915 -0.28303 -0.59033 -0.721976 -0.360918 
-0.566136 -0.746312 -0.350013 -0.567645 -0.704103 -0.426636 0.307592 -0.951056 -0.0296601 
0.290845 -0.956383 -0.0272249 0.295109 -0.949968 -0.102329 0.175294 -0.984273 -0.021897 
0.0621623 -0.997733 -0.0257977 -0.0457708 -0.998105 -0.0411152 -0.148363 -0.982858 -0.109443 
-0.186488 -0.812047 -0.552994 -0.307856 -0.931481 -0.193822 -0.276224 -0.945827 -0.170622 
-0.293509 -0.914848 -0.277318 0.0726331 0.708019 -0.702448 0.429926 0.655325 -0.621058 
0.0788409 0.7083 -0.701495 0.279938 0.691024 -0.666423 0.0359025 0.694049 -0.719032 
0.0720701 0.706273 -0.704262 -0.115022 0.620758 -0.775519 -0.215813 0.487949 -0.845772 
-0.1834 0.402762 -0.896742 0.456485 0.644776 -0.613095 0.545403 0.60416 -0.58097 
0.404682 0.619525 -0.672622 0.192823 0.505185 -0.841194 -0.0106293 0.414262 -0.910095 
-0.174945 0.372265 -0.911489 -0.220653 0.369072 -0.902828 -0.183768 0.395234 -0.900011 
-0.181391 0.387801 -0.903719 -0.176678 0.374357 -0.910297 -0.221672 0.369252 -0.902504 
0.59423 0.564684 -0.572733 0.71391 0.444454 -0.541104 0.500576 0.539763 -0.676815 
0.264261 0.417087 -0.8696 0.0644796 0.319924 -0.945246 -0.0771844 0.27561 -0.958166 
-0.178025 0.263546 -0.948077 -0.210453 0.281676 -0.936145 -0.17286 0.306941 -0.935899 
-0.141098 0.299536 -0.943594 -0.240989 0.355247 -0.903174 -0.210389 0.344033 -0.915083 
-0.30334 0.281229 -0.910437 0.743478 0.396123 -0.538819 0.700658 0.386704 -0.599614 
0.360178 0.302026 -0.882639 -0.18857 0.150248 -0.970498 -0.179838 0.283742 -0.941886 
-0.164746 0.240944 -0.956454 -0.189931 0.188203 -0.96359 -0.340935 0.243549 -0.907991 
-0.286062 0.236933 -0.928456 0.810018 0.179935 -0.558117 0.656404 0.158487 -0.737574 
-0.136198 0.120125 -0.983372 -0.0806427 0.264881 -0.960903 -0.249646 0.16068 -0.954913 
-0.21003 0.0664298 -0.975436 -0.418145 0.0968293 -0.903205 -0.270601 0.103346 -0.957128 
0.830036 -0.00896264 -0.557637 0.630557 -0.00200148 -0.77614 -0.394902 -0.035465 -0.918039 
-0.221853 0.0162273 -0.974945 -0.440591 0.00346861 -0.897701 -0.258332 0.00914929 -0.966013 
0.813615 -0.201783 -0.545266 0.666275 -0.161471 -0.728014 -0.225309 -0.306623 -0.92478 
-0.218415 -0.0895609 -0.971738 -0.170366 0.0130106 -0.985295 -0.445207 -0.0532743 -0.893841 
-0.289399 -0.033792 -0.956612 0.790695 -0.366694 -0.490242 0.773829 -0.406532 -0.485716 
0.757792 -0.355265 -0.5473 -0.241289 -0.126949 -0.962114 -0.0734789 -0.127163 -0.989156 
-0.0771689 -0.0338443 -0.996443 -0.178563 -0.027206 -0.983552 -0.45672 -0.159586 -0.87518 
-0.341861 -0.110568 -0.933223 0.69226 -0.532447 -0.48711 0.611697 -0.636675 -0.469544 
0.5619 -0.49151 -0.665347 -0.184655 -0.0417336 -0.981917 -0.111047 -0.0679212 -0.991491 
-0.103694 -0.127853 -0.986358 -0.239013 -0.217162 -0.946421 -0.472337 -0.335493 -0.815072 
-0.467631 -0.349379 -0.811946 -0.459134 -0.32719 -0.825919 0.53374 -0.713677 -0.453637 
0.445503 -0.773244 -0.451243 0.42876 -0.671696 -0.604143 0.286508 -0.856422 -0.429482 
0.1777 -0.528651 -0.830031 -0.0121022 -0.470374 -0.882384 -0.101395 -0.352935 -0.930138 
-0.157983 -0.293335 -0.942866 -0.19139 -0.726585 -0.659881 -0.166472 -0.309148 -0.93633 
-0.29445 -0.634943 -0.714245 -0.243336 -0.401695 -0.882853 -0.373921 -0.534663 -0.757838 
-0.365918 -0.542179 -0.756403 -0.361162 -0.527888 -0.768698 0.174826 -0.8723 -0.456648 
0.153396 -0.872007 -0.464838 0.148944 -0.861751 -0.484975 0.0354818 -0.85676 -0.514494 
0.0208876 -0.803643 -0.594746 -0.154237 -0.774775 -0.613135 -0.0968281 -0.813332 -0.573686 
-0.104537 -0.77118 -0.627976 0.193438 0.321623 -0.926898 0.0615432 0.310898 -0.948449 
-0.077412 0.267966 -0.960313 -0.17409 0.226007 -0.958443 0.299551 0.284401 -0.910706 
0.350351 0.227143 -0.908659 0.148511 0.245241 -0.958019 0.0330394 0.19447 -0.980352 
-0.0776227 0.217588 -0.972949 -0.179659 0.183796 -0.966406 -0.173902 0.21048 -0.962007 
0.39583 0.108541 -0.911887 0.34091 0.105153 -0.934197 0.130958 0.104799 -0.985833 
0.0275888 0.0827337 -0.99619 -0.0593122 0.117179 -0.991338 -0.169948 0.125612 -0.977415 
-0.249524 0.135824 -0.958796 -0.104629 0.112869 -0.988086 -0.0858871 0.236326 -0.967871 
0.416024 0.000593552 -0.909354 0.324457 0.00253612 -0.945897 0.114929 0.0125987 -0.993294 
0.0485171 0.0421685 -0.997932 -0.0232946 0.0429847 -0.998804 -0.168785 0.0585396 -0.983913 
-0.0596307 0.102933 -0.992899 -0.304879 -0.0236088 -0.952098 -0.21822 -0.277094 -0.935734 
-0.123252 0.0117493 -0.992306 0.414918 -0.0829242 -0.906072 0.359551 -0.0721677 -0.930331 
0.170481 -0.0437621 -0.984389 0.0565417 0.0151142 -0.998286 -0.0441991 -0.019809 -0.998826 
-0.190138 -0.0928917 -0.977353 -0.222898 -0.27932 -0.933968 -0.220027 -0.162338 -0.961891 
-0.20203 -0.173616 -0.963868 0.413253 -0.219318 -0.883811 0.411 -0.226034 -0.883169 
0.406225 -0.216865 -0.887666 0.210065 -0.146595 -0.966635 0.0692676 -0.0999582 -0.992578 
-0.128652 -0.113191 -0.985209 -0.285369 -0.15252 -0.946204 -0.310359 -0.164107 -0.936347 
0.324084 -0.355912 -0.876525 0.306122 -0.370952 -0.876746 0.292668 -0.338564 -0.894271 
0.145842 -0.432091 -0.889959 0.0934245 -0.267003 -0.959157 -0.0426941 -0.405474 -0.913109 
-0.107867 -0.236992 -0.965505 -0.206293 -0.129885 -0.969831 -0.19221 -0.18197 -0.964335 
-0.211795 -0.146641 -0.96625 
