# vtk DataFile Version 4.2
vtk output
ASCII
DATASET POLYDATA
POINTS 526 float
-26.46 -40.2866 -14.8906 -18.4937 -40.2866 -16.6009 -10.5273 -40.2866 -17.7183 
-2.56095 -40.2866 -18.9929 5.40541 -40.2866 -19.3847 13.3718 -40.2866 -18.1923 
21.3381 -40.2866 -15.0534 -34.4264 -32.3202 -16.6709 -26.46 -32.3202 -18.9366 
-18.4937 -32.3202 -20.2403 -10.5273 -32.3202 -20.245 -2.56095 -32.3202 -21.1419 
5.40541 -32.3202 -21.4819 13.3718 -32.3202 -20.6074 21.3381 -32.3202 -18.9996 
29.3045 -32.3202 -15.0344 -42.3928 -24.3539 -16.5625 -34.4264 -24.3539 -19.6695 
-26.46 -24.3539 -20.2166 -18.4937 -24.3539 -20.6375 -10.5273 -24.3539 -20.4372 
-2.56095 -24.3539 -20.8673 5.40541 -24.3539 -21.2327 13.3718 -24.3539 -20.9132 
21.3381 -24.3539 -19.6428 29.3045 -24.3539 -17.3298 -50.3591 -16.3875 -14.6885 
-42.3928 -16.3875 -19.226 -34.4264 -16.3875 -21.2896 -26.46 -16.3875 -20.7976 
-18.4937 -16.3875 -19.8922 -10.5273 -16.3875 -19.4915 -2.56095 -16.3875 -20.3794 
5.40541 -16.3875 -20.8022 13.3718 -16.3875 -20.4283 21.3381 -16.3875 -19.4462 
29.3045 -16.3875 -18.3534 37.2709 -16.3875 -16.3211 -50.3591 -8.42116 -17.7772 
-42.3928 -8.42116 -20.7894 -34.4264 -8.42116 -21.164 -26.46 -8.42116 -20.516 
-18.4937 -8.42116 -19.0509 -10.5273 -8.42116 -19.7806 -2.56095 -8.42116 -21.5044 
5.40541 -8.42116 -21.2978 13.3718 -8.42116 -21.0167 21.3381 -8.42116 -19.5146 
29.3045 -8.42116 -18.8968 37.2709 -8.42116 -17.6519 45.2372 -8.42116 -15.3339 
-50.3591 -0.454796 -18.5076 -42.3928 -0.454796 -21.2668 -34.4264 -0.454796 -21.6065 
-26.46 -0.454796 -20.6226 -18.4937 -0.454796 -18.8124 -10.5273 -0.454796 -20.1451 
-2.56095 -0.454796 -20.3582 5.40541 -0.454796 -20.6607 13.3718 -0.454796 -22.0805 
21.3381 -0.454796 -19.4639 29.3045 -0.454796 -19.0329 37.2709 -0.454796 -18.245 
45.2372 -0.454796 -16.3603 -50.3591 7.51157 -17.9887 -42.3928 7.51157 -20.6211 
-34.4264 7.51157 -20.9908 -26.46 7.51157 -20.3184 -18.4937 7.51157 -18.8704 
-10.5273 7.51157 -18.7818 -2.56095 7.51157 -19.6503 5.40541 7.51157 -21.1207 
13.3718 7.51157 -21.077 21.3381 7.51157 -18.8344 29.3045 7.51157 -18.5256 
37.2709 7.51157 -17.6915 45.2372 7.51157 -15.8406 -50.3591 15.4779 -15.0366 
-42.3928 15.4779 -18.9726 -34.4264 15.4779 -20.6472 -26.46 15.4779 -20.2511 
-18.4937 15.4779 -19.2498 -10.5273 15.4779 -18.0442 -2.56095 15.4779 -17.0573 
5.40541 15.4779 -18.9788 13.3718 15.4779 -19.8579 21.3381 15.4779 -18.7014 
29.3045 15.4779 -17.9744 37.2709 15.4779 -16.6492 45.2372 15.4779 -14.6606 
-42.3928 23.4443 -16.5428 -34.4264 23.4443 -18.7424 -26.46 23.4443 -19.7709 
-18.4937 23.4443 -19.0483 -10.5273 23.4443 -17.7812 -2.56095 23.4443 -16.5939 
5.40541 23.4443 -17.6707 13.3718 23.4443 -19.0182 21.3381 23.4443 -18.3609 
29.3045 23.4443 -16.6182 -34.4264 31.4107 -15.1287 -26.46 31.4107 -17.2303 
-18.4937 31.4107 -17.3925 -10.5273 31.4107 -16.8131 -2.56095 31.4107 -16.2292 
5.40541 31.4107 -16.3916 13.3718 31.4107 -16.8649 21.3381 31.4107 -16.4115 
-26.46 -40.8876 -14.266 -18.4937 -42.4582 -14.266 -10.5273 -44.2233 -14.266 
-2.56095 -45.8807 -14.266 5.40541 -46.4436 -14.266 5.40541 -48.253 -7.95228 
13.3718 -44.9487 -14.266 21.3381 -41.0897 -14.266 -27.7286 -40.2866 -14.266 
-34.4264 -35.6 -14.266 -34.4264 -40.2866 -7.06565 22.5787 -40.2866 -14.266 
29.3045 -33.6419 -14.266 -38.7877 -32.3202 -14.266 -42.3928 -28.643 -14.266 
-42.3928 -32.3202 -10.3775 30.5487 -32.3202 -14.266 37.2709 -32.3202 -7.30269 
-45.4697 -24.3539 -14.266 -50.3591 -17.2032 -14.266 -50.3591 -24.3539 -6.42649 
36.0688 -24.3539 -14.266 37.2709 -22.7481 -14.266 37.2709 -24.3539 -13.5718 
45.2372 -24.3539 -7.05088 -50.7865 -16.3875 -14.266 43.039 -16.3875 -14.266 
45.2372 -12.8638 -14.266 45.2372 -16.3875 -13.2223 53.2036 -16.3875 -6.77585 
-53.9773 -8.42116 -14.266 47.4902 -8.42116 -14.266 53.2036 -8.42116 -10.9666 
-55.059 -0.454796 -14.266 -58.3255 -0.454796 -7.27104 49.8971 -0.454796 -14.266 
53.2036 -0.454796 -12.5932 -54.4017 7.51157 -14.266 48.9848 7.51157 -14.266 
53.2036 7.51157 -12.2463 -51.289 15.4779 -14.266 -50.3591 17.0169 -14.266 
37.2709 23.3819 -14.266 45.9998 15.4779 -14.266 45.2372 16.3892 -14.266 
53.2036 15.4779 -9.34133 -45.887 23.4443 -14.266 -50.3591 23.4443 -8.97692 
-42.3928 27.4095 -14.266 37.202 23.4443 -14.266 29.3045 29.9303 -14.266 
37.2709 23.4443 -14.2422 45.2372 23.4443 -10.0318 -36.4482 31.4107 -14.266 
-42.3928 31.4107 -10.2463 -34.4264 32.6748 -14.266 -26.46 36.6146 -14.266 
-18.4937 37.7268 -14.266 -10.5273 37.3841 -14.266 -2.56095 36.1907 -14.266 
5.40541 35.9985 -14.266 13.3718 35.8812 -14.266 27.6971 31.4107 -14.266 
21.3381 34.6591 -14.266 29.3045 31.4107 -13.5173 37.2709 31.4107 -8.5871 
-34.4264 39.377 -6.41963 -26.46 39.377 -11.604 -18.4937 39.377 -13.1338 
-10.5273 39.377 -13.2228 -2.56095 39.377 -12.6497 5.40541 39.377 -12.2265 
13.3718 39.377 -11.1696 21.3381 39.377 -8.24469 5.40541 -48.6189 -6.2996 
-34.4264 -40.6154 -6.2996 -26.46 -44.0829 -6.2996 -18.4937 -46.063 -6.2996 
-10.5273 -47.0885 -6.2996 -0.416547 -48.253 -6.2996 -2.56095 -48.1188 -6.2996 
9.15041 -48.253 -6.2996 5.40541 -48.253 -5.18159 13.3718 -47.8108 -6.2996 
21.3381 -44.4702 -6.2996 -34.9596 -40.2866 -6.2996 -42.3928 -34.6327 -6.2996 
-34.4264 -40.2866 -4.28454 28.3048 -40.2866 -6.2996 29.3045 -39.5521 -6.2996 
37.2709 -32.9169 -6.2996 -44.5977 -32.3202 -6.2996 -50.3591 -24.4402 -6.2996 
37.9465 -32.3202 -6.2996 45.2372 -25.0454 -6.2996 -50.4157 -24.3539 -6.2996 
-50.3591 -24.3539 -5.8982 45.976 -24.3539 -6.2996 53.2036 -16.897 -6.2996 
-54.3933 -16.3875 -6.2996 53.639 -16.3875 -6.2996 -57.4698 -8.42116 -6.2996 
-58.3255 -2.72482 -6.2996 58.3198 -8.42116 -6.2996 61.1699 -8.42116 -0.132443 
-58.6545 -0.454796 -6.2996 -58.3255 5.2641 -6.2996 -58.3255 -0.454796 -3.81953 
61.0369 -0.454796 -6.2996 61.1699 -0.454796 -6.02416 -58.193 7.51157 -6.2996 
60.6272 7.51157 -6.2996 61.1699 7.51157 -5.16736 -56.0461 15.4779 -6.2996 
56.4684 15.4779 -6.2996 53.2036 19.9563 -6.2996 -52.1087 23.4443 -6.2996 
-50.3591 26.0032 -6.2996 50.0191 23.4443 -6.2996 45.2372 27.4762 -6.2996 
53.2036 23.4443 -0.115275 -45.7373 31.4107 -6.2996 -42.3928 34.2663 -6.2996 
29.3045 37.4774 -6.2996 40.1459 31.4107 -6.2996 37.2709 33.2092 -6.2996 
-34.5495 39.377 -6.2996 -34.4264 39.4419 -6.2996 -26.46 42.6568 -6.2996 
-18.4937 44.3866 -6.2996 -10.5273 45.0308 -6.2996 -2.56095 44.7445 -6.2996 
5.40541 43.9308 -6.2996 13.3718 42.4716 -6.2996 24.3713 39.377 -6.2996 
21.3381 40.4163 -6.2996 -26.46 -42.8351 1.66676 -18.4937 -43.9754 1.66676 
-10.5273 -44.7556 1.66676 -2.56095 -45.5822 1.66676 5.40541 -45.8374 1.66676 
13.3718 -44.8316 1.66676 21.3381 -42.2488 1.66676 -42.3928 -33.493 1.66676 
-32.3357 -40.2866 1.66676 -34.4264 -39.2934 1.66676 -26.46 -40.2866 6.22781 
-18.4937 -40.2866 7.7429 -10.5273 -40.2866 8.57256 -2.56095 -40.2866 9.53345 
13.3718 -40.2866 8.25724 24.657 -40.2866 1.66676 21.3381 -40.2866 4.71702 
29.3045 -37.7702 1.66676 37.2709 -32.4137 1.66676 -43.5155 -32.3202 1.66676 
-42.3928 -32.3202 3.58848 37.4086 -32.3202 1.66676 37.2709 -32.3202 2.01195 
45.2372 -26.8384 1.66676 -49.2668 -24.3539 1.66676 -50.3591 -22.259 1.66676 
48.4247 -24.3539 1.66676 53.2036 -20.2613 1.66676 -53.112 -16.3875 1.66676 
-50.3591 -16.3875 7.21901 56.837 -16.3875 1.66676 61.1699 -9.59581 1.66676 
-56.0701 -8.42116 1.66676 61.849 -8.42116 1.66676 61.1699 -8.42116 5.90467 
-57.5759 -0.454796 1.66676 63.6577 -0.454796 1.66676 -57.5616 7.51157 1.66676 
63.447 7.51157 1.66676 61.1699 13.3051 1.66676 -56.3211 15.4779 1.66676 
60.2196 15.4779 1.66676 -53.0497 23.4443 1.66676 -50.3591 27.6635 1.66676 
45.2372 30.3812 1.66676 53.896 23.4443 1.66676 53.2036 24.208 1.66676 
53.2036 23.4443 5.59402 -47.2774 31.4107 1.66676 -42.3928 35.6801 1.66676 
29.3045 38.3921 1.66676 43.5728 31.4107 1.66676 37.2709 34.8972 1.66676 
-35.9149 39.377 1.66676 -34.4264 40.1106 1.66676 -34.4264 39.377 4.42371 
-26.46 43.1494 1.66676 -18.4937 44.4742 1.66676 -10.5273 45.31 1.66676 
-2.56095 45.4953 1.66676 5.40541 44.6708 1.66676 13.3718 43.0257 1.66676 
26.3443 39.377 1.66676 21.3381 41.0357 1.66676 21.3381 39.377 9.15305 
5.40541 -40.393 9.63312 -34.4264 -34.035 9.63312 -26.46 -37.5901 9.63312 
-18.4937 -38.6513 9.63312 -10.5273 -39.3084 9.63312 0.808513 -40.2866 9.63312 
-2.56095 -40.1945 9.63312 6.13198 -40.2866 9.63312 5.40541 -40.2866 9.75027 
13.3718 -39.1256 9.63312 21.3381 -36.7742 9.63312 29.3045 -33.2374 9.63312 
-36.8528 -32.3202 9.63312 -42.3928 -26.9775 9.63312 -34.4264 -32.3202 11.2504 
-26.46 -32.3202 13.7352 -18.4937 -32.3202 14.5896 -10.5273 -32.3202 14.7015 
-2.56095 -32.3202 15.7166 5.40541 -32.3202 16.5106 13.3718 -32.3202 15.9928 
21.3381 -32.3202 13.9821 31.7203 -32.3202 9.63312 29.3045 -32.3202 10.7386 
37.2709 -29.9222 9.63312 45.2372 -25.5293 9.63312 -44.3337 -24.3539 9.63312 
-42.3928 -24.3539 11.4919 -34.4264 -24.3539 16.0917 -26.46 -24.3539 17.4597 
-18.4937 -24.3539 17.4394 -10.5273 -24.3539 17.5308 37.2709 -24.3539 15.2372 
46.8475 -24.3539 9.63312 45.2372 -24.3539 11.3365 53.2036 -18.4657 9.63312 
-48.7952 -16.3875 9.63312 -50.3591 -13.3345 9.63312 -42.3928 -16.3875 15.0153 
55.2253 -16.3875 9.63312 53.2036 -16.3875 12.5159 -52.3607 -8.42116 9.63312 
-50.3591 -8.42116 11.9382 -42.3928 -8.42116 17.4144 60.5188 -8.42116 9.63312 
53.2036 -8.42116 17.3313 61.1699 -6.23603 9.63312 -53.8467 -0.454796 9.63312 
-50.3591 -0.454796 13.8267 62.6028 -0.454796 9.63312 61.1699 -0.454796 11.865 
-54.1216 7.51157 9.63312 -50.3591 7.51157 14.2341 62.4615 7.51157 9.63312 
61.1699 10.5402 9.63312 61.1699 7.51157 11.5836 -53.486 15.4779 9.63312 
-50.3591 15.4779 13.4818 58.9841 15.4779 9.63312 53.2036 22.6306 9.63312 
53.2036 15.4779 16.2907 -50.889 23.4443 9.63312 -50.3591 24.2707 9.63312 
-50.3591 23.4443 10.3928 -42.3928 23.4443 16.6866 52.3778 23.4443 9.63312 
45.2372 29.066 9.63312 45.2372 23.4443 16.2602 -44.4728 31.4107 9.63312 
-42.3928 33.2925 9.63312 -42.3928 31.4107 12.0759 -34.4264 37.8091 9.63312 
-34.4264 31.4107 16.5214 21.3381 39.2551 9.63312 29.3045 36.6276 9.63312 
29.3045 31.4107 16.7517 41.0124 31.4107 9.63312 37.2709 33.3607 9.63312 
[...]
POINT_DATA 526
SCALARS ImageScalars float
LOOKUP_TABLE default
0 0 0 0 0 0 0 0 0 
0 0 0 0 0 0 0 0 0 
0 0 0 0 0 0 0 0 0 
0 0 0 0 0 0 0 0 0 
0 0 0 0 0 0 0 0 0 
0 0 0 0 0 0 0 0 0 
0 0 0 0 0 0 0 0 0 
0 0 0 0 0 0 0 0 0 
0 0 0 0 0 0 0 0 0 
0 0 0 0 0 0 0 0 0 
0 0 0 0 0 0 0 0 0 
0 0 0 0 0 0 0 0 0 
0 0 0 0 0 0 0 0 0 
0 0 0 0 0 0 0 0 0 
0 0 0 0 0 0 0 0 0 
0 0 0 0 0 0 0 0 0 
0 0 0 0 0 0 0 0 0 
0 0 0 0 0 0 0 0 0 
0 0 0 0 0 0 0 0 0 
0 0 0 0 0 0 0 0 0 
0 0 0 0 0 0 0 0 0 
0 0 0 0 0 0 0 0 0 
0 0 0 0 0 0 0 0 0 
0 0 0 0 0 0 0 0 0 
0 0 0 0 0 0 0 0 0 
0 0 0 0 0 0 0 0 0 
0 0 0 0 0 0 0 0 0 
0 0 0 0 0 0 0 0 0 
0 0 0 0 0 0 0 0 0 
0 0 0 0 0 0 0 0 0 
0 0 0 0 0 0 0 0 0 
0 0 0 0 0 0 0 0 0 
0 0 0 0 0 0 0 0 0 
0 0 0 0 0 0 0 0 0 
0 0 0 0 0 0 0 0 0 
0 0 0 0 0 0 0 0 0 
0 0 0 0 0 0 0 0 0 
0 0 0 0 0 0 0 0 0 
0 0 0 0 0 0 0 0 0 
0 0 0 0 0 0 0 0 0 
0 0 0 0 0 0 0 0 0 
0 0 0 0 0 0 0 0 0 
0 0 0 0 0 0 0 0 0 
0 0 0 0 0 0 0 0 0 
0 0 0 0 0 0 0 0 0 
0 0 0 0 0 0 0 0 0 
0 0 0 0 0 0 0 0 0 
0 0 0 0 0 0 0 0 0 
0 0 0 0 0 0 0 0 0 
0 0 0 0 0 0 0 0 0 
0 0 0 0 0 0 0 0 0 
0 0 0 0 0 0 0 0 0 
0 0 0 0 0 0 0 0 0 
0 0 0 0 0 0 0 0 0 
0 0 0 0 0 0 0 0 0 
0 0 0 0 0 0 0 0 0 
0 0 0 0 0 0 0 0 0 
0 0 0 0 0 0 0 0 0 
0 0 0 0 
NORMALS Normals float
-0.285572 -0.697119 -0.657627 -0.165932 -0.639438 -0.750724 -0.135303 -0.533834 -0.834694 
-0.102346 -0.476413 -0.873245 0.0472739 -0.457961 -0.887715 0.225771 -0.495374 -0.838828 
0.44473 -0.625621 -0.640948 -0.366488 -0.489856 -0.791029 -0.186382 -0.295991 -0.93683 
-0.083281 -0.188452 -0.978545 -0.0553047 -0.154166 -0.986496 -0.0772422 -0.108088 -0.991136 
0.0332303 -0.108696 -0.993519 0.143397 -0.154274 -0.977567 0.310162 -0.227255 -0.923122 
0.507465 -0.394249 -0.76619 -0.500771 -0.397718 -0.768797 -0.185522 -0.235379 -0.954033 
-0.0600467 -0.11294 -0.991786 -0.016184 0.0244808 -0.999569 -0.0144878 0.0475145 -0.998765 
-0.0511785 0.0479393 -0.997538 -0.00309324 0.0430635 -0.999068 0.0974839 0.0118939 -0.995166 
0.215817 -0.0233846 -0.976154 0.340351 -0.182078 -0.922501 -0.682708 -0.373739 -0.627876 
-0.339806 -0.222359 -0.913832 -0.101252 -0.105227 -0.98928 0.085743 -0.021907 -0.996076 
0.0818919 0.099284 -0.991684 -0.0299372 0.043217 -0.998617 -0.0826283 -0.0399659 -0.995779 
-0.00272915 -0.00404477 -0.999988 0.0848302 -0.00505313 -0.996383 0.130893 0.00758058 -0.991367 
0.19074 -0.0928611 -0.977238 0.296133 -0.215237 -0.93058 -0.570901 -0.203503 -0.795398 
-0.190086 -0.128549 -0.973315 0.0184067 -0.0203884 -0.999623 0.131821 0.0108991 -0.991214 
0.0498229 0.0665286 -0.99654 -0.16621 -0.0393489 -0.985305 -0.0857992 -0.00768573 -0.996283 
0.0297931 0.00403075 -0.999548 0.11436 -0.101858 -0.988204 0.127626 -0.00109684 -0.991822 
0.114304 -0.0432608 -0.992504 0.20895 -0.118152 -0.970763 0.355083 -0.175261 -0.918259 
-0.525553 -0.0118849 -0.850678 -0.16499 0.0106958 -0.986237 0.0413955 0.01077 -0.999085 
0.166874 0.0123117 -0.985901 0.0481884 0.0117627 -0.998769 -0.10081 0.0685992 -0.992538 
-0.0297956 0.125654 -0.991627 -0.113778 0.0135264 -0.993414 0.0859832 -0.00637559 -0.996276 
0.182746 0.0432471 -0.982208 0.0753887 0.023202 -0.996884 0.160791 -0.00216066 -0.986986 
0.314387 -0.0284345 -0.948869 -0.529855 0.191899 -0.826093 -0.172876 0.143855 -0.974382 
0.0202365 0.0597459 -0.998008 0.131845 0.023106 -0.991001 0.0956776 -0.0270822 -0.995044 
-0.0498394 0.118431 -0.991711 -0.140598 0.19885 -0.969892 -0.0902648 0.0992324 -0.990962 
0.152691 0.142338 -0.97797 0.145937 0.0466636 -0.988193 0.0706125 0.0675156 -0.995216 
0.157726 0.100614 -0.982344 0.300847 0.105944 -0.94777 -0.59233 0.369944 -0.715742 
-0.297595 0.232884 -0.925852 -0.0781587 0.144871 -0.986359 0.0862732 0.0326068 -0.995738 
0.136864 -0.0111832 -0.990527 0.136893 0.0604533 -0.988739 -0.0488423 0.19132 -0.980312 
-0.181819 0.214212 -0.959716 0.0215683 0.124633 -0.991968 0.118391 0.0290596 -0.992542 
0.128469 0.112727 -0.985286 0.207942 0.191122 -0.959288 0.383462 0.279021 -0.8804 
-0.407979 0.402878 -0.819294 -0.179781 0.289419 -0.940168 -0.0221298 0.181878 -0.983072 
0.122066 0.109734 -0.986437 0.151337 0.0727098 -0.985804 0.012051 0.050397 -0.998657 
-0.159039 0.153929 -0.975199 -0.0369711 0.169675 -0.984806 0.146527 0.136124 -0.979796 
0.235734 0.240502 -0.941588 -0.307202 0.517389 -0.798708 -0.11798 0.397836 -0.909839 
0.0247602 0.314699 -0.948868 0.0696374 0.244108 -0.967245 0.0254159 0.20378 -0.978687 
-0.0362794 0.27632 -0.960381 -0.00117307 0.387253 -0.921973 0.172459 0.419663 -0.891146 
-0.284366 -0.730607 -0.620765 -0.190203 -0.756706 -0.625475 -0.18171 -0.773366 -0.607361 
-0.117975 -0.828654 -0.547188 0.0464199 -0.84284 -0.536159 0.0226771 -0.998488 -0.0500718 
0.260461 -0.770835 -0.581355 0.45476 -0.663051 -0.594606 -0.313558 -0.712396 -0.627832 
-0.433169 -0.608144 -0.665226 -0.496283 -0.853353 -0.159664 0.477652 -0.641709 -0.600048 
0.531843 -0.451647 -0.716351 -0.499186 -0.55401 -0.666248 -0.569265 -0.4946 -0.656741 
-0.66675 -0.632451 -0.394273 0.528888 -0.426806 -0.733563 0.658937 -0.701782 -0.270747 
-0.624308 -0.449914 -0.638606 -0.694352 -0.391472 -0.603842 -0.846656 -0.514296 -0.136647 
0.465414 -0.323481 -0.823863 0.447784 -0.31929 -0.835191 0.498423 -0.363581 -0.787009 
0.632676 -0.635303 -0.442845 -0.700654 -0.377801 -0.605269 0.400344 -0.313545 -0.861054 
0.40652 -0.270564 -0.872661 0.456587 -0.365282 -0.811232 0.681382 -0.51917 -0.515927 
-0.769714 -0.215314 -0.600983 0.41015 -0.192597 -0.89145 0.58584 -0.277295 -0.761511 
-0.795188 -0.0253375 -0.605834 -0.987917 -0.0426305 -0.149005 0.438444 -0.0434774 -0.897706 
0.543273 -0.0604912 -0.837374 -0.755258 0.173583 -0.632024 0.394681 0.125081 -0.910265 
0.525995 0.166519 -0.834027 -0.632186 0.370854 -0.6803 -0.614616 0.396157 -0.682134 
0.336516 0.391229 -0.856561 0.404456 0.286865 -0.868403 0.395142 0.305217 -0.866433 
0.604724 0.390444 -0.694163 -0.543525 0.443408 -0.712721 -0.751033 0.501849 -0.429066 
-0.456665 0.50384 -0.733213 0.336693 0.391592 -0.856325 0.35398 0.453548 -0.81792 
0.337814 0.393083 -0.855201 0.502286 0.545392 -0.671011 -0.348273 0.546867 -0.761342 
-0.540503 0.657096 -0.525434 -0.322312 0.560638 -0.762758 -0.177518 0.585675 -0.790868 
-0.031589 0.558733 -0.828746 0.0410338 0.490724 -0.870348 0.03762 0.42548 -0.904185 
0.00887226 0.466277 -0.884594 0.0537681 0.572105 -0.818416 0.338455 0.487218 -0.805026 
0.203809 0.576031 -0.791613 0.383983 0.521263 -0.762129 0.472484 0.700118 -0.535345 
-0.423852 0.859304 -0.286262 -0.234204 0.756586 -0.610513 -0.064173 0.662788 -0.746052 
0.0255054 0.603742 -0.796772 0.0511352 0.613686 -0.787893 0.0638964 0.676066 -0.734066 
0.149104 0.789008 -0.596016 0.272362 0.882767 -0.382807 0.017724 -0.998512 0.0515688 
-0.490537 -0.863641 -0.116176 -0.30438 -0.94768 -0.0962087 -0.188691 -0.980555 -0.0539126 
-0.1281 -0.991746 -0.00546909 -0.0642669 -0.997008 0.042946 -0.0942689 -0.994819 0.038059 
0.118564 -0.991918 0.0451799 0.0201998 -0.994287 0.104812 0.234927 -0.971482 0.0321315 
0.454009 -0.890198 -0.0377179 -0.504367 -0.855608 -0.116401 -0.700479 -0.699234 -0.14283 
-0.494971 -0.868787 -0.0145687 0.586058 -0.808347 -0.0557802 0.608328 -0.790223 -0.0740506 
0.660533 -0.721884 -0.206348 -0.745365 -0.651787 -0.140018 -0.847163 -0.515038 -0.13058 
0.659653 -0.719573 -0.216964 0.641531 -0.653821 -0.401192 -0.847973 -0.51376 -0.130354 
-0.850296 -0.514467 -0.110995 0.641778 -0.647577 -0.41081 0.685872 -0.535538 -0.492726 
-0.916147 -0.387712 -0.101756 0.691567 -0.524945 -0.496154 -0.966615 -0.238202 -0.0944158 
-0.989936 -0.100752 -0.0993803 0.748771 -0.3506 -0.562513 0.902214 -0.386902 -0.190571 
-0.993569 -0.0446 -0.104071 -0.986233 0.091512 -0.137731 -0.998165 -0.0596347 0.0105455 
0.828598 -0.101637 -0.550541 0.839752 -0.102134 -0.533278 -0.978072 0.14306 -0.151358 
0.801798 0.217597 -0.556571 0.846314 0.221543 -0.484429 -0.915526 0.331214 -0.228277 
0.699037 0.438828 -0.564604 0.654195 0.525518 -0.54393 -0.810055 0.503754 -0.30007 
-0.770843 0.555837 -0.311201 0.618883 0.594921 -0.512887 0.54796 0.681241 -0.485438 
0.711056 0.682085 -0.170761 -0.661162 0.679893 -0.31719 -0.59726 0.734081 -0.323119 
0.395372 0.859939 -0.322779 0.505796 0.75078 -0.424852 0.482958 0.776528 -0.404668 
-0.426545 0.859684 -0.281074 -0.423767 0.861192 -0.28066 -0.288471 0.913444 -0.28706 
-0.147869 0.945996 -0.288491 -0.0224294 0.946186 -0.322844 0.0705731 0.925273 -0.372678 
0.136872 0.926144 -0.35146 0.211875 0.928489 -0.304986 0.321043 0.903378 -0.284323 
0.284576 0.916775 -0.280249 -0.249936 -0.909186 0.333036 -0.113075 -0.917448 0.381449 
-0.0946474 -0.906074 0.412397 -0.0631417 -0.901104 0.428982 0.0416308 -0.892317 0.449486 
0.186031 -0.871214 0.45429 0.387633 -0.833941 0.392788 -0.68508 -0.676502 0.270205 
-0.417148 -0.854227 0.310295 -0.471585 -0.828799 0.301165 -0.234059 -0.82246 0.518437 
-0.0834907 -0.79104 0.60604 -0.0675224 -0.750423 0.6575 -0.0452224 -0.731993 0.67981 
0.17038 -0.76587 0.620011 0.44683 -0.815225 0.368445 0.366057 -0.798014 0.478723 
0.493963 -0.813323 0.307419 0.551018 -0.823919 0.132421 -0.712258 -0.648777 0.267914 
-0.679599 -0.649198 0.341596 0.551204 -0.824087 0.130591 0.546806 -0.824863 0.143544 
0.600507 -0.799607 -0.00436843 -0.827073 -0.492628 0.27068 -0.845399 -0.461162 0.2695 
0.639867 -0.767699 -0.0347654 0.713647 -0.698447 -0.0536633 -0.881917 -0.382476 0.275561 
-0.788613 -0.380786 0.482796 0.777899 -0.624048 -0.0737437 0.904003 -0.417108 -0.0938077 
-0.921152 -0.260877 0.288829 0.918499 -0.38294 -0.0985779 0.904929 -0.397571 0.15179 
-0.958512 -0.0921412 0.269748 0.991899 -0.0835799 -0.0956597 -0.973002 0.0728454 0.219 
0.9731 0.208626 -0.0977339 0.908288 0.407041 -0.096595 -0.95334 0.266433 0.141975 
0.87082 0.480729 -0.10282 -0.881313 0.466596 0.0746739 -0.815724 0.5746 0.0665516 
0.541255 0.838948 -0.0566542 0.716917 0.692333 -0.081888 0.704273 0.705396 -0.0801036 
0.711814 0.691374 0.123786 -0.723212 0.687856 0.0617984 -0.606572 0.793382 0.0511494 
0.350793 0.935108 0.0501804 0.513939 0.856922 -0.0393908 0.436705 0.899598 -0.00344599 
-0.438074 0.895585 0.0775839 -0.403824 0.911248 0.0809566 -0.398666 0.89713 0.190325 
-0.248763 0.96112 0.119858 -0.137328 0.977588 0.159568 -0.0629095 0.987192 0.14661 
0.0396405 0.993838 0.103513 0.151596 0.984779 0.0850215 0.221717 0.971275 0.0864059 
0.323615 0.944372 0.058606 0.279896 0.957594 0.0683488 0.247897 0.897623 0.364445 
0.0483973 -0.74173 0.66895 -0.392516 -0.655583 0.645091 -0.198737 -0.705512 0.680262 
-0.0729146 -0.716594 0.693669 -0.0649653 -0.704481 0.706743 -0.00529291 -0.735373 0.677642 
-0.0453231 -0.728354 0.6837 0.0584499 -0.741724 0.668154 0.0480183 -0.739404 0.671547 
0.158697 -0.737535 0.656397 0.28563 -0.73122 0.619461 0.313863 -0.761346 0.567311 
-0.451695 -0.624637 0.637025 -0.616426 -0.500521 0.607863 -0.369901 -0.610333 0.700476 
-0.162434 -0.532748 0.830539 -0.0531906 -0.485404 0.87267 -0.0622972 -0.459534 0.885972 
-0.0981142 -0.462189 0.881337 -0.0181853 -0.524979 0.850921 0.1176 -0.589894 0.798871 
0.23616 -0.644983 0.726791 0.342371 -0.776924 0.528367 0.293938 -0.744981 0.598835 
0.41111 -0.788026 0.458262 0.509157 -0.779152 0.365625 -0.653049 -0.454482 0.605783 
-0.595186 -0.434318 0.676108 -0.282986 -0.345894 0.894582 -0.0762752 -0.312284 0.946922 
-0.00423435 -0.244791 0.969567 -0.0662284 -0.226656 0.971721 0.29527 -0.606941 0.73786 
0.542201 -0.759747 0.358892 0.49067 -0.747621 0.447556 0.672015 -0.658 0.339752 
-0.714903 -0.367324 0.594968 -0.747422 -0.323944 0.580018 -0.497264 -0.297811 0.814885 
0.707489 -0.62098 0.337407 0.632626 -0.597942 0.492188 -0.779609 -0.243897 0.576823 
-0.707969 -0.245137 0.662335 -0.387453 -0.188353 0.902443 0.836749 -0.390592 0.383782 
0.518517 -0.2601 0.814548 0.872393 -0.309139 0.378633 -0.805656 -0.101789 0.583573 
-0.671391 -0.110222 0.732861 0.925943 -0.0983153 0.364641 0.877001 -0.10518 0.468835 
-0.828958 0.0209101 0.55892 -0.678619 0.0156063 0.734325 0.9087 0.212449 0.359346 
0.87819 0.313795 0.360993 0.864683 0.212721 0.455052 -0.835554 0.187916 0.516272 
-0.705791 0.159065 0.690331 0.807384 0.46892 0.358113 0.686297 0.644139 0.337758 
0.575461 0.380413 0.723969 -0.791242 0.429648 0.435131 -0.778901 0.452362 0.434375 
-0.771944 0.426191 0.471661 -0.443955 0.298722 0.844789 0.668036 0.664379 0.335155 
0.498705 0.795555 0.344071 0.444675 0.565809 0.694352 -0.633766 0.651316 0.417287 
-0.581962 0.698023 0.417234 -0.569764 0.626568 0.531772 -0.36411 0.822952 0.43609 
-0.269479 0.534984 0.800733 0.244809 0.889612 0.385564 0.319417 0.87506 0.363653 
0.216338 0.626964 0.748407 0.442059 0.830707 0.338392 0.402505 0.848369 0.343889 
0.385384 0.785354 0.484457 -0.274881 0.851609 0.446321 -0.197225 0.863383 0.464405 
-0.189837 0.817391 0.543906 -0.102502 0.860385 0.49923 -0.0891744 0.787129 0.610308 
-0.076574 0.862036 0.50103 -0.0760694 0.753009 0.653598 -0.00214154 0.878589 0.477574 
-0.0165597 0.734585 0.678315 0.111516 0.890202 0.441706 0.0882526 0.76179 0.641784 
0.240595 0.890668 0.385777 0.18175 0.893735 0.410127 0.167837 0.83617 0.52216 
-0.1391 -0.311953 0.93986 -0.0483437 -0.467513 0.882663 0.0907598 -0.511042 0.854751 
0.175728 -0.479847 0.859573 0.209324 -0.502444 0.838888 -0.240302 -0.246629 0.938845 
-0.0739066 -0.298977 0.951394 -0.000437522 -0.234118 0.972208 -0.0723975 -0.227507 0.971081 
-0.0654578 -0.224722 0.972222 -0.163126 -0.244081 0.955936 -0.115078 -0.33553 0.934974 
0.0546178 -0.353469 0.93385 0.147441 -0.387039 0.910199 0.215689 -0.501074 0.838095 
0.206223 -0.489909 0.847031 0.234427 -0.466688 0.852787 0.324853 -0.465669 0.823178 
-0.276686 -0.227493 0.933644 -0.22752 -0.213259 0.950134 -0.0506537 -0.140028 0.988851 
0.032155 -0.147709 0.988508 -0.0553342 -0.20217 0.977786 -0.227477 -0.167406 0.959286 
-0.135811 -0.120728 0.983351 0.0542436 -0.113864 0.992014 0.0936827 -0.133987 0.986545 
0.0877539 -0.224737 0.97046 0.164483 -0.342475 0.925017 0.330539 -0.462958 0.822444 
0.323097 -0.460525 0.826756 -0.368567 -0.181376 0.911735 -0.373045 -0.175787 0.911008 
-0.143528 -0.0845147 0.986031 -0.0159145 -0.036083 0.999222 -0.0625922 -0.00349936 0.998033 
-0.0912377 -0.153666 0.983902 -0.090486 -0.0376851 0.995184 -0.0752322 0.0334406 0.996605 
0.0452962 0.0194834 0.998784 0.0354747 -0.00993616 0.999321 -0.00344009 -0.0868438 0.996216 
0.0741651 -0.151586 0.985658 0.494964 -0.253535 0.831102 0.236243 -0.206195 0.949565 
0.506369 -0.229475 0.831223 -0.379984 -0.106878 0.918798 -0.290829 -0.0960719 0.951939 
-0.079061 -0.0223301 0.99662 0.0340125 -0.0104853 0.999366 -0.0713035 0.035929 0.996807 
-0.110043 0.0461877 0.992853 -0.0402421 -0.0418043 0.998315 -0.0841428 0.00125906 0.996453 
0.011585 0.0157984 0.999808 -0.0168941 -0.0276664 0.999474 -0.0600732 -0.0397118 0.997404 
0.0372596 -0.0545697 0.997815 0.202268 -0.0605442 0.977457 0.546986 -0.0857462 0.832739 
0.445345 -0.0769888 0.892043 -0.417672 0.00634467 0.908576 -0.285623 -0.000920497 0.958342 
-0.0639466 -0.0858517 0.994254 0.0414015 -0.0828891 0.995698 -0.00354712 -0.0949575 0.995475 
-0.169629 -0.0122652 0.985432 -0.128865 -0.0763653 0.988717 -0.0170172 0.0145619 0.999749 
0.0155144 0.022715 0.999622 -0.0194831 -0.0494951 0.998584 -0.0310032 -0.021831 0.999281 
0.0514733 0.018331 0.998506 0.210289 0.0853527 0.973906 0.535474 0.155651 0.830085 
0.516521 0.258537 0.816312 0.45446 0.141875 0.879396 -0.441822 0.133393 0.88713 
-0.405728 0.215757 0.888163 -0.381113 0.119009 0.916837 -0.171235 0.021894 0.984987 
0.0265071 -0.0358194 0.999007 -0.00399536 -0.100979 0.99488 -0.0796214 -0.0816686 0.993474 
-0.0214896 0.0289432 0.99935 0.0194572 0.0743113 0.997045 -0.0515018 0.060849 0.996817 
-0.0603234 0.0344829 0.997583 0.00761712 0.100929 0.994864 0.152119 0.176079 0.972551 
0.488279 0.339502 0.803942 0.397206 0.472254 0.786895 0.306878 0.264099 0.914373 
-0.361444 0.275038 0.890905 -0.243332 0.425961 0.871405 -0.205436 0.241713 0.948352 
-0.0784415 0.166264 0.982956 -0.0600897 0.0993638 0.993235 -0.0354129 0.10236 0.994117 
0.023832 0.131233 0.991065 0.0150041 0.116794 0.993043 -0.0211864 0.148819 0.988638 
0.0197434 0.22773 0.973524 0.189202 0.564046 0.803775 0.0997834 0.312391 0.944698 
0.373802 0.501952 0.779946 0.30069 0.549673 0.779388 0.238718 0.410951 0.879848 
-0.180551 0.464421 0.867015 -0.140774 0.467216 0.872864 -0.133028 0.432786 0.891628 
-0.0772728 0.494722 0.865609 -0.0716037 0.399465 0.913948 -0.0534628 0.510401 0.858273 
-0.0436161 0.393873 0.918129 -0.0139615 0.51403 0.857658 -0.00684766 0.361553 0.932326 
0.0441732 0.501535 0.864009 0.0287084 0.354508 0.934612 0.0990467 0.526467 0.844407 
0.0674571 0.407955 0.910507 0.173135 0.569002 0.803904 0.146017 0.561033 0.814813 
0.137847 0.5304 0.836465 
