# vtk DataFile Version 4.2
vtk output
ASCII
DATASET POLYDATA
POINTS 516 float
33.424 20.692 -29.1223 33.424 -13.367 -21.0639 41.9388 -13.367 -21.0176 
-17.6645 -4.85226 -20.6234 -9.14976 -4.85226 -20.9755 7.87976 -4.85226 -23.838 
24.9093 -4.85226 -21.9093 33.424 -4.85226 -24.0032 41.9388 -4.85226 -24.2425 
50.4536 -4.85226 -22.4191 -9.14976 3.6625 -21.4534 -0.634997 3.6625 -21.8647 
7.87976 3.6625 -22.8704 16.3945 3.6625 -22.9807 24.9093 3.6625 -24.9528 
33.424 3.6625 -26.5289 41.9388 3.6625 -26.262 50.4536 3.6625 -23.9491 
-26.1793 12.1773 -20.8946 -17.6645 12.1773 -20.6877 -9.14976 12.1773 -21.3181 
-0.634997 12.1773 -21.9038 7.87976 12.1773 -22.2996 16.3945 12.1773 -24.981 
24.9093 12.1773 -27.386 33.424 19.4245 -29.0736 33.424 12.1773 -28.7747 
41.9388 12.1773 -27.7224 50.4536 12.1773 -24.9875 -26.1793 20.692 -20.8585 
-17.6645 20.692 -21.2386 -9.14976 20.692 -21.7119 -0.634997 20.692 -21.9677 
7.87976 20.692 -23.2695 16.3945 20.692 -26.2577 32.9175 20.692 -29.0736 
24.9093 20.692 -28.2978 33.7659 20.692 -29.0736 33.424 21.1337 -29.0736 
41.9388 20.692 -27.8858 50.4536 20.692 -23.1603 -17.6645 29.2068 -20.7235 
-9.14976 29.2068 -21.2993 -0.634997 29.2068 -21.8861 7.87976 29.2068 -23.1677 
16.3945 29.2068 -25.6625 24.9093 29.2068 -27.403 33.424 29.2068 -28.1145 
41.9388 29.2068 -25.6738 7.87976 37.7215 -20.5745 16.3945 37.7215 -22.1647 
24.9093 37.7215 -22.8687 33.424 37.7215 -22.0766 16.3945 -38.9113 -12.402 
-9.14976 -30.3965 -13.2417 -0.634997 -30.3965 -14.1106 7.87976 -30.3965 -14.9804 
16.3945 -30.3965 -15.781 24.9093 -30.3965 -16.0105 33.424 -30.3965 -15.4963 
-34.694 -21.8818 -12.2746 -26.1793 -21.8818 -12.8057 -17.6645 -21.8818 -13.8027 
-9.14976 -21.8818 -15.6033 -0.634997 -21.8818 -15.9665 7.87976 -21.8818 -16.6949 
16.3945 -21.8818 -17.7744 24.9093 -21.8818 -18.3162 33.424 -15.0449 -20.5589 
33.424 -21.8818 -18.4607 41.9388 -14.6357 -20.5589 41.9388 -21.8818 -17.7481 
50.4536 -21.8818 -12.8288 -43.2088 -13.367 -13.7251 -34.694 -13.367 -15.2757 
-26.1793 -13.367 -15.7303 -17.6645 -5.05531 -20.5589 -17.6645 -13.367 -17.4786 
-9.14976 -8.24001 -20.5589 -9.14976 -13.367 -19.8771 -0.634997 -13.367 -18.825 
7.87976 -13.2671 -20.5589 7.87976 -13.367 -20.5131 16.3945 -13.367 -18.5989 
29.8651 -13.367 -20.5589 24.9093 -10.3549 -20.5589 24.9093 -13.367 -19.8991 
43.8564 -13.367 -20.5589 50.4536 -9.61239 -20.5589 50.4536 -13.367 -18.8277 
-51.7236 -4.85226 -12.2435 -43.2088 -4.85226 -16.2922 -34.694 -4.85226 -17.9962 
-17.8917 -4.85226 -20.5589 -26.1793 -4.85226 -18.2613 -17.6645 -1.26934 -20.5589 
-7.13007 -4.85226 -20.5589 1.7789 -4.85226 -20.5589 -0.634997 -0.570919 -20.5589 
-0.634997 -4.85226 -19.145 15.7787 -4.85226 -20.5589 17.8177 -4.85226 -20.5589 
16.3945 -4.01063 -20.5589 16.3945 -4.85226 -20.3029 53.3531 -4.85226 -20.5589 
58.9683 -4.85226 -14.1745 -51.7236 3.6625 -13.6311 -43.2088 3.6625 -17.9495 
-34.694 3.6625 -19.77 -26.1793 7.66124 -20.5589 -26.1793 3.6625 -20.2571 
-16.945 3.6625 -20.5589 -17.6645 6.9748 -20.5589 -17.6645 3.6625 -20.4764 
55.1569 3.6625 -20.5589 58.9683 3.6625 -14.2891 -51.7236 12.1773 -12.8385 
-43.2088 12.1773 -19.1016 -32.218 12.1773 -20.5589 -34.694 12.1773 -20.4262 
55.2926 12.1773 -20.5589 -43.2088 20.692 -16.3462 -28.7019 20.692 -20.5589 
-34.694 20.692 -19.7987 -26.1793 22.6479 -20.5589 52.8425 20.692 -20.5589 
50.4536 24.8191 -20.5589 -34.694 29.2068 -16.784 -18.8391 29.2068 -20.5589 
-26.1793 29.2068 -19.5122 -17.6645 29.666 -20.5589 -9.14976 31.9355 -20.5589 
-0.634997 34.1943 -20.5589 47.4011 29.2068 -20.5589 41.9388 34.1111 -20.5589 
-26.1793 37.7215 -14.5213 -17.6645 37.7215 -17.1297 -9.14976 37.7215 -18.6092 
7.75729 37.7215 -20.5589 -0.634997 37.7215 -19.3367 7.87976 37.7406 -20.5589 
16.3945 39.3666 -20.5589 24.9093 39.9396 -20.5589 35.7195 37.7215 -20.5589 
33.424 38.866 -20.5589 16.3945 -39.4181 -12.0441 -17.6645 -38.9113 -6.30623 
-9.14976 -33.1685 -12.0441 -9.14976 -38.9113 -8.98275 -0.634997 -36.1127 -12.0441 
-0.634997 -38.9113 -10.8248 9.84195 -38.9113 -12.0441 7.87976 -38.6149 -12.0441 
7.87976 -38.9113 -11.9158 21.085 -38.9113 -12.0441 24.9093 -38.3676 -12.0441 
24.9093 -38.9113 -11.6611 33.424 -35.4282 -12.0441 33.424 -38.9113 -8.5481 
-34.694 -22.369 -12.0441 -34.694 -30.3965 -6.99201 -26.1793 -23.6655 -12.0441 
-26.1793 -30.3965 -9.08673 -14.0681 -30.3965 -12.0441 -17.6645 -27.4917 -12.0441 
-17.6645 -30.3965 -11.1051 41.7302 -30.3965 -12.0441 41.9388 -30.248 -12.0441 
41.9388 -30.3965 -11.8967 50.4536 -22.6942 -12.0441 -51.7236 -21.8818 -4.85383 
-35.4964 -21.8818 -12.0441 -43.2088 -17.0119 -12.0441 -43.2088 -21.8818 -9.30578 
51.1095 -21.8818 -12.0441 -47.7361 -13.367 -12.0441 -51.7236 -5.68847 -12.0441 
-51.7236 -13.367 -9.95032 57.104 -13.367 -12.0441 58.9683 -8.48991 -12.0441 
-51.9612 -4.85226 -12.0441 60.0715 -4.85226 -12.0441 -53.5702 3.6625 -12.0441 
59.8477 3.6625 -12.0441 58.9683 7.57617 -12.0441 58.9683 3.6625 -4.86073 
-52.5255 12.1773 -12.0441 -51.7236 14.0572 -12.0441 57.897 12.1773 -12.0441 
-48.4267 20.692 -12.0441 -51.7236 20.692 -5.0952 -43.2088 27.6541 -12.0441 
54.8202 20.692 -12.0441 50.4536 27.5763 -12.0441 -41.7311 29.2068 -12.0441 
-43.2088 29.2068 -9.45538 -34.694 35.0431 -12.0441 49.1351 29.2068 -12.0441 
41.9388 35.6839 -12.0441 -30.591 37.7215 -12.0441 -34.694 37.7215 -6.87243 
-26.1793 40.0689 -12.0441 -17.6645 42.9975 -12.0441 -9.14976 43.9396 -12.0441 
-0.634997 43.8854 -12.0441 7.87976 43.7868 -12.0441 16.3945 43.5684 -12.0441 
24.9093 42.6898 -12.0441 38.8333 37.7215 -12.0441 33.424 40.3113 -12.0441 
33.424 37.7215 -4.6718 -9.14976 46.2363 -3.94775 -17.6645 -41.7781 -3.52934 
-9.14976 -44.3679 -3.52934 -9.14976 -47.4261 4.50275 -0.634997 -45.678 -3.52934 
7.87976 -46.3077 -3.52934 16.3945 -46.5207 -3.52934 24.9093 -45.5784 -3.52934 
33.424 -42.4915 -3.52934 -34.694 -34.226 -3.52934 -34.694 -38.9113 3.69412 
-25.5065 -38.9113 -3.52934 -26.1793 -38.5985 -3.52934 -26.1793 -38.9113 -3.17996 
38.9899 -38.9113 -3.52934 41.9388 -36.6149 -3.52934 -51.7236 -23.1854 -3.52934 
-41.4649 -30.3965 -3.52934 -43.2088 -29.3285 -3.52934 -43.2088 -30.3965 -1.95016 
48.092 -30.3965 -3.52934 50.4536 -27.4037 -3.52934 -52.8481 -21.8818 -3.52934 
54.155 -21.8818 -3.52934 -57.0166 -13.367 -3.52934 57.8374 -13.367 -3.52934 
58.9683 -6.75096 -3.52934 -58.9951 -4.85226 -3.52934 -60.2383 -4.85226 3.64808 
59.2908 -4.85226 -3.52934 58.9683 0.734864 -3.52934 58.9683 -4.85226 -2.81268 
-58.8313 3.6625 -3.52934 58.7852 3.6625 -3.52934 -56.7946 12.1773 -3.52934 
55.9972 12.1773 -3.52934 50.4536 12.1773 4.76841 -52.2791 20.692 -3.52934 
-51.7236 21.4651 -3.52934 51.7176 20.692 -3.52934 50.4536 22.3514 -3.52934 
50.4536 20.692 -1.91855 -45.4538 29.2068 -3.52934 -43.2088 31.5782 -3.52934 
33.424 37.2594 -3.52934 44.6864 29.2068 -3.52934 41.9388 32.0693 -3.52934 
41.9388 29.2068 -0.427148 -36.3322 37.7215 -3.52934 -34.694 38.9802 -3.52934 
-26.1793 43.5224 -3.52934 -17.6645 46.0559 -3.52934 -0.634997 45.6325 -3.52934 
7.87976 44.5479 -3.52934 16.3945 43.0066 -3.52934 32.3967 37.7215 -3.52934 
24.9093 40.7341 -3.52934 24.9093 37.7215 2.93734 -12.2306 46.2363 -3.52934 
-7.94671 46.2363 -3.52934 -9.14976 46.336 -3.52934 -9.14976 46.2363 -1.56061 
-9.14976 -47.5714 4.98542 -34.694 -39.6052 4.98542 -26.1793 -44.0325 4.98542 
-10.2338 -47.4261 4.98542 -17.6645 -46.363 4.98542 -4.71457 -47.4261 4.98542 
-9.14976 -47.4261 5.75328 -0.634997 -47.2917 4.98542 7.87976 -47.0773 4.98542 
16.3945 -47.3449 4.98542 24.9093 -46.2776 4.98542 33.424 -42.49 4.98542 
-35.8743 -38.9113 4.98542 -43.2088 -34.2642 4.98542 38.6857 -38.9113 4.98542 
33.424 -38.9113 10.541 41.9388 -35.9097 4.98542 -47.6049 -30.3965 4.98542 
-51.7236 -26.2572 4.98542 46.8303 -30.3965 4.98542 41.9388 -30.3965 10.4739 
50.4536 -24.7629 4.98542 -55.0681 -21.8818 4.98542 51.9629 -21.8818 4.98542 
50.4536 -21.8818 7.0365 -59.2738 -13.367 4.98542 -60.2383 -6.44714 4.98542 
54.0046 -13.367 4.98542 50.4536 -13.367 8.99426 -60.4406 -4.85226 4.98542 
-60.2383 -2.80539 4.98542 -60.2383 -4.85226 5.72975 54.5508 -4.85226 4.98542 
50.4536 -4.85226 9.41316 -59.5863 3.6625 4.98542 41.9388 3.6625 12.9081 
53.2712 3.6625 4.98542 50.4536 11.687 4.98542 50.4536 3.6625 7.69588 
-57.2702 12.1773 4.98542 50.229 12.1773 4.98542 41.9388 12.1773 10.461 
-52.5927 20.692 4.98542 -51.7236 21.8782 4.98542 -51.7236 20.692 7.84087 
33.424 20.692 11.6051 44.0818 20.692 4.98542 41.9388 23.2095 4.98542 
41.9388 20.692 6.58639 -45.6472 29.2068 4.98542 -43.2088 31.7987 4.98542 
-43.2088 29.2068 11.6769 24.9093 36.4482 4.98542 24.9093 29.2068 11.2936 
35.7662 29.2068 4.98542 33.424 30.937 4.98542 33.424 29.2068 6.51487 
-36.667 37.7215 4.98542 -34.694 39.2408 4.98542 -34.694 37.7215 9.63386 
-26.1793 43.5836 4.98542 -17.6645 45.9047 4.98542 -9.14976 45.8902 4.98542 
-0.634997 44.9018 4.98542 7.87976 43.0748 4.98542 22.5644 37.7215 4.98542 
16.3945 40.2971 4.98542 16.3945 37.7215 9.27469 -34.694 -39.7805 13.5002 
-26.1793 -43.8802 13.5002 -17.6645 -46.1496 13.5002 -9.14976 -45.7177 13.5002 
-0.634997 -44.0347 13.5002 7.87976 -42.9626 13.5002 16.3945 -42.4438 13.5002 
24.9093 -41.2464 13.5002 -35.9934 -38.9113 13.5002 -43.2088 -33.1825 13.5002 
-34.694 -38.9113 15.1181 -26.1793 -38.9113 20.7956 -9.14976 -38.9113 21.495 
-0.634997 -38.9113 19.1878 7.87976 -38.9113 17.6543 16.3945 -38.9113 16.8639 
29.4742 -38.9113 13.5002 24.9093 -38.9113 15.73 33.424 -35.7258 13.5002 
-46.0534 -30.3965 13.5002 -51.7236 -23.4289 13.5002 -43.2088 -30.3965 17.3193 
16.3945 -30.3965 21.2258 24.9093 -30.3965 19.4339 38.4249 -30.3965 13.5002 
33.424 -30.3965 16.7043 41.9388 -24.5965 13.5002 -52.8321 -21.8818 13.5002 
-51.7236 -21.8818 14.9293 24.9093 -21.8818 20.2288 33.424 -21.8818 18.2108 
43.4523 -21.8818 13.5002 41.9388 -21.8818 14.4659 -56.4945 -13.367 13.5002 
-51.7236 -13.367 19.6479 16.3945 -13.367 20.2477 24.9093 -13.367 19.5701 
33.424 -13.367 18.059 44.607 -13.367 13.5002 41.9388 -13.367 15.163 
-57.8863 -4.85226 13.5002 -51.7236 -4.85226 21.6667 16.3945 -4.85226 19.6109 
[...]
POINT_DATA 516
SCALARS ImageScalars float
LOOKUP_TABLE default
0 0 0 0 0 0 0 0 0 
0 0 0 0 0 0 0 0 0 
0 0 0 0 0 0 0 0 0 
0 0 0 0 0 0 0 0 0 
0 0 0 0 0 0 0 0 0 
0 0 0 0 0 0 0 0 0 
0 0 0 0 0 0 0 0 0 
0 0 0 0 0 0 0 0 0 
0 0 0 0 0 0 0 0 0 
0 0 0 0 0 0 0 0 0 
0 0 0 0 0 0 0 0 0 
0 0 0 0 0 0 0 0 0 
0 0 0 0 0 0 0 0 0 
0 0 0 0 0 0 0 0 0 
0 0 0 0 0 0 0 0 0 
0 0 0 0 0 0 0 0 0 
0 0 0 0 0 0 0 0 0 
0 0 0 0 0 0 0 0 0 
0 0 0 0 0 0 0 0 0 
0 0 0 0 0 0 0 0 0 
0 0 0 0 0 0 0 0 0 
0 0 0 0 0 0 0 0 0 
0 0 0 0 0 0 0 0 0 
0 0 0 0 0 0 0 0 0 
0 0 0 0 0 0 0 0 0 
0 0 0 0 0 0 0 0 0 
0 0 0 0 0 0 0 0 0 
0 0 0 0 0 0 0 0 0 
0 0 0 0 0 0 0 0 0 
0 0 0 0 0 0 0 0 0 
0 0 0 0 0 0 0 0 0 
0 0 0 0 0 0 0 0 0 
0 0 0 0 0 0 0 0 0 
0 0 0 0 0 0 0 0 0 
0 0 0 0 0 0 0 0 0 
0 0 0 0 0 0 0 0 0 
0 0 0 0 0 0 0 0 0 
0 0 0 0 0 0 0 0 0 
0 0 0 0 0 0 0 0 0 
0 0 0 0 0 0 0 0 0 
0 0 0 0 0 0 0 0 0 
0 0 0 0 0 0 0 0 0 
0 0 0 0 0 0 0 0 0 
0 0 0 0 0 0 0 0 0 
0 0 0 0 0 0 0 0 0 
0 0 0 0 0 0 0 0 0 
0 0 0 0 0 0 0 0 0 
0 0 0 0 0 0 0 0 0 
0 0 0 0 0 0 0 0 0 
0 0 0 0 0 0 0 0 0 
0 0 0 0 0 0 0 0 0 
0 0 0 0 0 0 0 0 0 
0 0 0 0 0 0 0 0 0 
0 0 0 0 0 0 0 0 0 
0 0 0 0 0 0 0 0 0 
0 0 0 0 0 0 0 0 0 
0 0 0 0 0 0 0 0 0 
0 0 0 
NORMALS Normals float
-0.0232845 -0.0355776 0.999096 0.065276 0.31372 0.947269 -0.109167 0.356839 0.927765 
0.163249 0.149704 0.975161 -0.080333 0.0946373 0.992265 0.0249206 0.127419 0.991536 
0.215643 0.279664 0.935567 0.124104 0.295911 0.947119 -0.0836573 0.273578 0.958205 
-0.390688 0.267888 0.880681 0.0784606 0.0181873 0.996751 0.0877754 0.147032 0.985229 
0.0631523 -0.0891046 0.994018 0.114004 0.265466 0.957356 0.192031 0.302569 0.933582 
0.0698973 0.274579 0.959021 -0.140972 0.210509 0.967374 -0.427596 0.143476 0.892511 
0.0153166 0.0347855 0.999277 0.0245989 0.0442146 0.998719 0.0718586 0.0152414 0.997298 
0.0567924 0.0057749 0.998369 0.170199 0.0203575 0.985199 0.291831 0.179765 0.939425 
0.202065 0.180903 0.96252 -0.0167615 -0.00981503 0.999811 0.0205677 0.144473 0.989295 
-0.201336 0.092888 0.975108 -0.535711 -0.0252195 0.844024 0.0806047 -0.0764505 0.99381 
0.0496486 0.00377235 0.99876 0.0420864 -0.000803666 0.999114 0.0864103 -0.000936977 0.996259 
0.245914 0.0513812 0.967929 0.282162 0.0350747 0.958725 -0.01235 -0.0338817 0.99935 
0.168531 0.000159171 0.985696 -0.0323474 -0.0369339 0.998794 -0.0241359 -0.0478693 0.998562 
-0.2809 -0.0836267 0.956087 -0.712375 -0.338513 0.614761 0.0988896 -0.199084 0.97498 
0.0651864 -0.154338 0.985865 0.104069 -0.133013 0.985635 0.219009 -0.139441 0.965708 
0.237558 -0.195885 0.951418 0.135669 -0.263786 0.954993 -0.0624004 -0.306759 0.949739 
-0.462487 -0.483051 0.743484 0.139759 -0.535599 0.832827 0.12607 -0.632707 0.764061 
0.00345969 -0.717601 0.696446 -0.259848 -0.813623 0.520093 -0.00878967 0.521235 0.853368 
0.16018 0.330933 0.92996 0.0976707 0.274512 0.95661 0.0939094 0.267121 0.959076 
0.057238 0.297249 0.953083 -0.015068 0.348192 0.937302 -0.171957 0.453014 0.874763 
0.164487 0.402202 0.900654 0.0871926 0.359832 0.928934 0.15154 0.315878 0.93662 
0.119521 0.351559 0.928505 0.0605156 0.259138 0.963943 0.101277 0.273258 0.956595 
0.0947695 0.160152 0.982532 0.0379898 0.2234 0.973986 0.0506441 0.314218 0.947999 
-0.025056 0.312773 0.949497 -0.116119 0.357815 0.926545 -0.216948 0.424285 0.879156 
-0.616856 0.593907 0.516491 0.264146 0.346441 0.900114 0.111807 0.320522 0.940619 
0.109383 0.298772 0.948035 0.165323 0.15641 0.973758 0.231771 0.388253 0.891931 
-0.029435 0.182179 0.982825 0.0559825 0.301664 0.951769 0.0303253 0.193068 0.980717 
-0.0173661 0.426281 0.904424 -0.018176 0.428482 0.903368 -0.0144203 0.142985 0.98962 
0.0944906 0.268256 0.958702 0.166432 0.228018 0.959327 0.13781 0.200253 0.970004 
-0.164553 0.361311 0.917811 -0.38178 0.323381 0.865834 -0.413048 0.401373 0.817491 
0.573182 0.173744 0.800797 0.285912 0.245387 0.926304 0.106511 0.274178 0.955762 
0.16268 0.153055 0.974735 0.136786 0.254712 0.957294 0.123304 0.0867824 0.988567 
-0.0224665 0.119061 0.992633 0.153935 0.18331 0.970928 0.135143 0.180434 0.974259 
0.172817 0.183053 0.967794 -0.101683 0.238859 0.965716 -0.0585344 0.251374 0.966119 
-0.0920741 0.245998 0.964887 -0.109947 0.24388 0.963553 -0.537989 0.242353 0.807361 
-0.928214 0.159079 0.336321 0.616695 0.0288446 0.786673 0.320957 0.13934 0.936787 
0.129304 0.135127 0.982355 0.0304097 0.094905 0.995022 0.0426884 0.149138 0.987894 
0.0713498 0.00563108 0.997435 0.0526522 0.019978 0.998413 0.0708725 0.00474343 0.997474 
-0.683994 0.0761206 0.725505 -0.964765 -0.090471 0.24707 0.721002 -0.209548 0.66049 
0.37254 -0.0637348 0.925825 0.0667099 0.0151907 0.997657 0.0887825 0.0063808 0.996031 
-0.823309 -0.11953 0.554865 0.49894 -0.363936 0.786517 0.123775 -0.105493 0.986687 
0.23369 -0.183288 0.954879 0.106135 -0.125872 0.986353 -0.81072 -0.37293 0.451283 
-0.762155 -0.483657 0.430343 0.398848 -0.46369 0.791146 0.111431 -0.211687 0.970964 
0.202719 -0.302341 0.931394 0.103871 -0.215413 0.970983 0.0807253 -0.252161 0.964312 
0.0980476 -0.337197 0.936314 -0.693647 -0.604949 0.391013 -0.54901 -0.743816 0.381217 
0.331174 -0.661859 0.672508 0.190622 -0.575347 0.795386 0.107158 -0.519492 0.847729 
0.138941 -0.534953 0.833379 0.0880535 -0.52225 0.848234 0.139485 -0.536569 0.832249 
0.105958 -0.715521 0.690509 -0.0295197 -0.818725 0.573427 -0.352898 -0.839701 0.412753 
-0.284868 -0.860926 0.421492 -0.0102407 0.540196 0.841477 0.26601 0.616088 0.741401 
0.178402 0.393332 0.901922 0.212609 0.579032 0.787096 0.12334 0.420634 0.898807 
0.139396 0.528715 0.837275 0.0568769 0.501545 0.86326 0.0775077 0.486636 0.870159 
0.076781 0.499067 0.863155 -0.089667 0.556215 0.826187 -0.14509 0.566413 0.811249 
-0.157581 0.593026 0.789613 -0.26977 0.601654 0.751822 -0.361616 0.75518 0.546751 
0.167584 0.410672 0.89625 0.282505 0.595475 0.752064 0.103494 0.379168 0.919522 
0.201667 0.463176 0.863017 0.197397 0.350205 0.915637 0.198203 0.341752 0.918652 
0.22255 0.37137 0.901419 -0.467214 0.603741 0.645916 -0.470507 0.604871 0.642459 
-0.477136 0.609119 0.633495 -0.629342 0.608951 0.482812 0.631185 0.563432 0.533056 
0.179129 0.409085 0.894741 0.292998 0.398642 0.869044 0.344552 0.497699 0.795977 
-0.642443 0.600124 0.47657 0.39643 0.334333 0.855023 0.568973 0.187822 0.80062 
0.562875 0.327737 0.758789 -0.847816 0.420096 0.323617 -0.93649 0.254325 0.241464 
0.581227 0.171858 0.795387 -0.967425 0.140468 0.210614 0.687526 0.0158858 0.725986 
-0.984481 -0.122031 0.126121 -0.980437 -0.178964 0.0819489 -0.957058 -0.167823 -0.236379 
0.742379 -0.225763 0.630797 0.742703 -0.277941 0.609214 -0.966138 -0.256787 0.0252544 
0.704882 -0.447318 0.550498 0.816605 -0.52915 0.230556 0.631126 -0.578426 0.516819 
-0.896812 -0.44088 -0.0367968 -0.772717 -0.627571 -0.095202 0.612725 -0.601096 0.51308 
0.668379 -0.634644 0.38794 0.506326 -0.671292 0.541296 -0.732496 -0.672633 -0.10495 
-0.587687 -0.806612 -0.0632519 0.436067 -0.719205 0.540916 0.55662 -0.774293 0.301073 
0.35507 -0.759827 0.544599 0.186047 -0.819535 0.541987 0.0421531 -0.874624 0.482966 
-0.00876614 -0.905368 0.424537 -0.018736 -0.949751 0.312445 -0.064038 -0.984393 0.163918 
-0.184569 -0.982329 0.0310469 -0.502784 -0.862306 -0.060295 -0.362907 -0.929162 -0.070408 
-0.377764 -0.845302 -0.377833 -0.0227834 -0.993771 0.109083 0.266492 0.725672 0.634336 
0.190808 0.811521 0.552292 0.0578846 0.995147 0.0795667 0.0984427 0.901697 0.421012 
0.0444432 0.937788 0.344351 -0.037964 0.943438 0.329369 -0.224069 0.920411 0.320371 
-0.428137 0.859944 0.277841 0.364806 0.675009 0.641311 0.465905 0.83736 0.285938 
0.315015 0.679467 0.662639 0.316906 0.674589 0.666709 0.322993 0.689665 0.648103 
-0.563181 0.792467 0.234143 -0.630338 0.751321 0.195425 0.646057 0.601786 0.469537 
0.444377 0.681723 0.581191 0.464379 0.677689 0.570167 0.508242 0.713327 0.48255 
-0.742158 0.656191 0.136438 -0.798991 0.594844 0.088168 0.677799 0.566757 0.468375 
-0.870369 0.492105 0.0170575 0.843832 0.326866 0.425565 -0.951289 0.270187 -0.148488 
-0.965295 0.102223 -0.240323 0.924245 0.0910378 0.370788 0.999697 0.0245847 0.00141091 
-0.963678 0.0540365 -0.261545 -0.951797 -0.0958029 -0.291384 -0.956493 0.0491896 -0.287578 
0.955019 -0.110477 0.275196 -0.936031 -0.174499 -0.305608 0.907899 -0.355917 0.221456 
-0.861406 -0.333665 -0.382946 -0.664718 -0.338745 -0.665884 0.825515 -0.537686 0.171517 
0.81909 -0.547875 0.170071 -0.741601 -0.513291 -0.431927 -0.719882 -0.537311 -0.439394 
-0.709981 -0.515122 -0.480182 0.737179 -0.658664 0.150758 0.704403 -0.69303 0.153382 
-0.381318 -0.82115 -0.424629 -0.645083 -0.617625 -0.449897 -0.588116 -0.677258 -0.442088 
-0.596209 -0.606779 -0.525693 0.592653 -0.787562 0.168844 0.565235 -0.807234 0.169947 
0.371488 -0.914969 0.157567 0.150023 -0.980348 0.128105 -0.103534 -0.993348 0.0504008 
-0.150796 -0.987816 -0.0384824 -0.213358 -0.961168 -0.175024 -0.368234 -0.834611 -0.409669 
-0.292216 -0.90377 -0.312746 -0.380358 -0.792304 -0.477055 0.0387288 -0.993635 0.105781 
-0.0362404 -0.995547 0.0870233 -0.0249634 -0.995351 0.0930197 -0.0324212 -0.999206 0.0231394 
0.0503367 0.997195 0.0553964 0.470546 0.852582 0.227356 0.351176 0.907174 0.231758 
0.0677249 0.995003 0.0733654 0.194519 0.959907 0.201846 0.00947863 0.999873 -0.0127946 
0.0379238 0.999102 0.018884 -0.0288523 0.996642 -0.0766282 0.0020598 0.987789 -0.155781 
-0.0404092 0.982225 -0.183305 -0.254109 0.945259 -0.204728 -0.477701 0.848095 -0.229207 
0.486998 0.844327 0.223482 0.605584 0.779397 0.160652 -0.606129 0.761156 -0.230759 
-0.458778 0.691784 -0.557636 -0.694678 0.668353 -0.265945 0.674845 0.728993 0.114687 
0.767535 0.639973 0.0363904 -0.765369 0.55302 -0.329211 -0.639035 0.436485 -0.633337 
-0.817917 0.416042 -0.397392 0.84377 0.536682 0.00491201 -0.830636 0.341642 -0.439687 
-0.792054 0.304747 -0.528943 0.957766 0.286293 -0.0268376 0.99654 0.0628906 -0.0543482 
-0.81439 0.128379 -0.565939 -0.707423 0.0905973 -0.70096 0.998117 0.0139099 -0.0597402 
0.997492 -0.0279192 -0.0650438 0.995744 0.0151337 -0.0909072 -0.782646 -0.0317959 -0.621654 
-0.650019 -0.0640821 -0.757211 0.982605 -0.166396 -0.0824646 -0.391507 -0.217046 -0.894211 
-0.705284 -0.199324 -0.680327 -0.661243 -0.329485 -0.673942 -0.631987 -0.205353 -0.747277 
0.916675 -0.387847 -0.0963409 -0.656539 -0.337138 -0.674755 -0.442517 -0.299701 -0.845197 
0.82662 -0.550747 -0.11566 0.816466 -0.566205 -0.113117 0.812351 -0.542997 -0.212696 
-0.388736 -0.353631 -0.850781 -0.550841 -0.457034 -0.698351 -0.531687 -0.484897 -0.694395 
-0.518943 -0.437283 -0.734494 0.740124 -0.662184 -0.117173 0.708529 -0.695678 -0.118401 
0.670017 -0.643556 -0.370018 -0.403206 -0.732149 -0.548983 -0.420944 -0.454915 -0.784767 
-0.482266 -0.56452 -0.669878 -0.457276 -0.595502 -0.660512 -0.453981 -0.55098 -0.70023 
0.599071 -0.79193 -0.118156 0.56142 -0.818567 -0.121471 0.541478 -0.782329 -0.307836 
0.346716 -0.926012 -0.149295 0.125496 -0.973971 -0.188763 -0.0554943 -0.974896 -0.215635 
-0.155308 -0.958193 -0.240303 -0.245284 -0.922279 -0.298724 -0.385093 -0.775985 -0.499551 
-0.335956 -0.849226 -0.407368 -0.383655 -0.738709 -0.554182 0.521847 0.823607 -0.222142 
0.324742 0.908544 -0.26285 0.106709 0.956049 -0.273099 -0.106833 0.907758 -0.405664 
-0.139739 0.836091 -0.530494 -0.0775584 0.789226 -0.609185 -0.0816396 0.746618 -0.660224 
-0.246257 0.689768 -0.680866 0.545973 0.805412 -0.230707 0.656026 0.688484 -0.309224 
0.522533 0.795717 -0.306257 0.243635 0.671856 -0.699465 -0.149133 0.544644 -0.825301 
-0.174414 0.620995 -0.764163 -0.106107 0.640691 -0.760431 -0.0935557 0.619441 -0.779449 
-0.34926 0.619045 -0.703421 -0.256022 0.593252 -0.76322 -0.427706 0.517128 -0.741381 
0.691116 0.64394 -0.328177 0.753101 0.507503 -0.418664 0.625025 0.591559 -0.509315 
-0.161581 0.265574 -0.950454 -0.238222 0.227435 -0.944205 -0.511681 0.366822 -0.776932 
-0.408637 0.326368 -0.85235 -0.538806 0.247298 -0.805315 0.772222 0.473803 -0.423302 
0.736431 0.471157 -0.485469 -0.235234 0.00511734 -0.971925 -0.304426 0.0630174 -0.950449 
-0.549825 0.197151 -0.81168 -0.511791 0.192238 -0.837326 0.86472 0.256945 -0.431554 
0.640994 0.263311 -0.720967 -0.209321 -0.147711 -0.966626 -0.121537 -0.108477 -0.986642 
-0.242907 -0.0495968 -0.968781 -0.513422 0.0274505 -0.857697 -0.439312 0.00794378 -0.898299 
0.892566 0.0328064 -0.449722 0.609481 0.0526213 -0.791052 -0.232626 0.067729 -0.970205 
-0.125359 -0.104259 -0.986618 -0.199702 -0.129951 -0.971201 -0.445283 -0.110094 -0.888596 
-0.388987 -0.185285 -0.902418 -0.385906 -0.121089 -0.914557 0.891841 -0.155891 -0.424638 
0.636413 -0.161435 -0.754267 -0.263157 0.0139235 -0.964653 -0.307567 -0.10868 -0.945299 
-0.36126 -0.212019 -0.908042 -0.263346 -0.193 -0.945198 0.820617 -0.38091 -0.426023 
0.779916 -0.460798 -0.423553 0.721489 -0.366387 -0.58755 -0.139221 -0.0952913 -0.985666 
-0.268751 -0.198188 -0.9426 -0.318349 -0.176253 -0.931444 -0.318451 -0.212564 -0.923799 
-0.319121 -0.22978 -0.919436 -0.302499 -0.201198 -0.931673 0.740651 -0.515815 -0.430548 
0.647411 -0.619749 -0.443588 0.497846 -0.462314 -0.733767 -0.233288 -0.104919 -0.966731 
-0.322811 -0.210938 -0.922658 -0.345826 -0.286007 -0.893646 -0.360012 -0.313832 -0.878579 
-0.329909 -0.252133 -0.909719 0.633595 -0.628984 -0.450485 0.498019 -0.720719 -0.482225 
0.38278 -0.5176 -0.765225 0.158745 -0.375471 -0.913138 -0.165177 -0.274228 -0.947373 
-0.268586 -0.294883 -0.917009 -0.414302 -0.396831 -0.819072 -0.414918 -0.500693 -0.759703 
-0.40184 -0.354887 -0.844145 0.428958 -0.751999 -0.500492 0.276219 -0.799973 -0.532679 
0.251017 -0.701035 -0.667488 0.076743 -0.808325 -0.583713 0.0588797 -0.638609 -0.767275 
-0.0668386 -0.799094 -0.597479 -0.0685213 -0.62107 -0.780754 -0.169796 -0.767817 -0.617759 
-0.172688 -0.637371 -0.750957 -0.307068 -0.678107 -0.667743 -0.280426 -0.700772 -0.655957 
-0.280484 -0.672029 -0.685351 0.0268551 0.553734 -0.832261 0.366084 0.449886 -0.814607 
0.0900876 0.56769 -0.818298 0.211322 0.56953 -0.794342 -0.0647273 0.532648 -0.843858 
0.0211365 0.528567 -0.848629 -0.145966 0.494195 -0.85701 -0.161229 0.412844 -0.896418 
-0.132095 0.334088 -0.93324 0.395879 0.418697 -0.817296 0.478451 0.329212 -0.814067 
0.339894 0.382707 -0.859074 0.153801 0.287211 -0.945439 -0.0326422 0.221517 -0.97461 
-0.114341 0.222042 -0.96831 -0.144947 0.292908 -0.94509 -0.140773 0.296849 -0.944491 
-0.132919 0.310733 -0.941158 -0.208182 0.0239881 -0.977796 0.479094 0.319162 -0.817683 
0.470224 0.313448 -0.825009 0.229897 0.199079 -0.952636 0.0494038 0.0651824 -0.99665 
-0.0634741 0.0106654 -0.997926 -0.0812168 -0.00474695 -0.996685 -0.0941544 0.0764246 -0.99262 
-0.161577 0.0538466 -0.98539 -0.225675 -0.0511107 -0.972861 -0.221809 -0.070747 -0.97252 
-0.221906 -0.0582888 -0.973324 0.490872 0.225639 -0.841506 0.329657 0.157896 -0.930803 
0.115157 0.0806973 -0.990064 -0.0355125 -0.0030211 -0.999365 -0.107358 -0.0729228 -0.991543 
-0.049105 -0.0537868 -0.997344 -0.0847043 -0.051837 -0.995057 -0.258342 -0.123758 -0.958094 
-0.281436 -0.101959 -0.954148 0.581679 0.0508853 -0.811825 0.289629 0.0308342 -0.956642 
0.0650396 0.00721307 -0.997857 -0.104895 -0.0284111 -0.994077 -0.114232 -0.0465412 -0.992363 
-0.060366 0.0296549 -0.997736 -0.141153 -0.139513 -0.980108 -0.256331 -0.0504288 -0.965273 
-0.257241 -0.0674997 -0.963987 0.556735 -0.14565 -0.817822 0.286561 -0.0998539 -0.952844 
0.0557257 -0.080883 -0.995165 -0.0900099 -0.0815642 -0.992595 -0.0497062 -0.0163452 -0.99863 
-0.127723 0.0106134 -0.991753 -0.211438 -0.112984 -0.970839 -0.100651 -0.0551685 -0.993391 
-0.052776 -0.0811394 -0.995305 -0.0436639 -0.0794535 -0.995882 0.477954 -0.288816 -0.829545 
0.419976 -0.350925 -0.836942 0.365538 -0.252189 -0.895981 0.0826255 -0.171697 -0.981679 
-0.0454343 -0.111557 -0.992719 -0.0223152 -0.0403494 -0.998936 -0.139078 -0.0889453 -0.986279 
-0.213614 -0.0347079 -0.976301 -0.23939 -0.0159033 -0.970793 0.320447 -0.381608 -0.867 
0.259853 -0.387475 -0.8845 0.205895 -0.322012 -0.924075 0.158045 -0.374126 -0.913812 
0.0547647 -0.180287 -0.982088 -0.026277 -0.12668 -0.991596 -0.124381 -0.158464 -0.979499 
-0.200648 -0.0864536 -0.975841 -0.193848 -0.107915 -0.975078 -0.197806 -0.0853909 -0.976515 
0.156021 -0.374308 -0.914085 0.0133309 -0.366071 -0.930491 0.00341096 -0.31363 -0.949539 
-0.114808 -0.297448 -0.94781 -0.110715 -0.304865 -0.945938 -0.111401 -0.29957 -0.947548 

