# vtk DataFile Version 4.2
vtk output
ASCII
DATASET POLYDATA
POINTS 544 float
-29.2727 -30.1658 -11.9809 -22.129 -30.1658 -12.2381 -14.9854 -30.1658 -12.5535 
-7.84176 -30.1658 -12.1669 -0.698131 -30.1658 -12.1705 6.4455 -30.1658 -12.9108 
13.5891 -30.1658 -13.3947 20.7328 -30.1658 -12.2888 -43.5599 -23.0221 -11.9008 
-36.4163 -23.0221 -14.0385 -29.2727 -23.0221 -15.2037 -22.129 -23.0221 -14.7764 
-14.9854 -23.0221 -14.9154 -7.84176 -23.0221 -14.0026 -0.698131 -23.0221 -14.081 
6.4455 -23.0221 -15.6875 13.5891 -23.0221 -16.535 20.7328 -23.0221 -15.9437 
27.8764 -23.0221 -14.6481 35.02 -23.0221 -13.4749 42.1637 -23.0221 -11.5432 
-43.5599 -15.8785 -14.8006 -36.4163 -15.8785 -16.4636 -29.2727 -15.8785 -16.3104 
-22.129 -15.8785 -15.698 -14.9854 -15.8785 -15.2162 -7.84176 -15.8785 -14.5021 
-0.698131 -15.8785 -14.2238 6.4455 -15.8785 -16.0671 13.5891 -15.8785 -16.9524 
20.7328 -15.8785 -16.4608 27.8764 -15.8785 -16.5115 35.02 -15.8785 -16.3024 
42.1637 -15.8785 -14.9737 49.3073 -15.8785 -12.3721 -50.7036 -8.73488 -12.1813 
-43.5599 -8.73488 -15.5603 -36.4163 -8.73488 -16.9516 -29.2727 -8.73488 -16.985 
-22.129 -8.73488 -16.3979 -14.9854 -8.73488 -14.7566 -7.84176 -8.73488 -15.1119 
-0.698131 -8.73488 -15.4574 6.4455 -8.73488 -16.2227 13.5891 -8.73488 -16.0059 
20.7328 -8.73488 -15.9296 27.8764 -8.73488 -16.605 35.02 -8.73488 -16.8977 
42.1637 -8.73488 -16.3539 49.3073 -8.73488 -15.0653 56.4509 -8.73488 -11.5029 
-50.7036 -1.59124 -12.082 -43.5599 -1.59124 -15.5487 -36.4163 -1.59124 -16.9966 
-29.2727 -1.59124 -17.1753 -22.129 -1.59124 -16.4156 -14.9854 -1.59124 -15.6105 
-7.84176 -1.59124 -17.6731 -0.698131 -1.59124 -14.3882 6.4455 -1.59124 -16.452 
13.5891 -1.59124 -15.2991 20.7328 -1.59124 -15.8521 27.8764 -1.59124 -16.8518 
35.02 -1.59124 -17.3205 42.1637 -1.59124 -17.0353 49.3073 -1.59124 -15.1192 
56.4509 -1.59124 -12.143 -43.5599 5.55239 -14.5658 -36.4163 5.55239 -16.1525 
-29.2727 5.55239 -16.8369 -22.129 5.55239 -16.299 -14.9854 5.55239 -15.8507 
-7.84176 5.55239 -17.3638 -0.698131 5.55239 -17.4478 6.4455 5.55239 -17.5872 
13.5891 5.55239 -15.5656 20.7328 5.55239 -16.0277 27.8764 5.55239 -16.8441 
35.02 5.55239 -17.1203 42.1637 5.55239 -16.6517 49.3073 5.55239 -15.3891 
-43.5599 12.696 -12.468 -36.4163 12.696 -15.4698 -29.2727 12.696 -16.8369 
-22.129 12.696 -16.8402 -14.9854 12.696 -16.4428 -7.84176 12.696 -15.9652 
-0.698131 12.696 -17.6455 6.4455 12.696 -17.3079 13.5891 12.696 -15.9698 
20.7328 12.696 -16.4304 27.8764 12.696 -17.0667 35.02 12.696 -16.2538 
42.1637 12.696 -15.2803 49.3073 12.696 -11.6055 -36.4163 19.8397 -14.3674 
-29.2727 19.8397 -15.9789 -22.129 19.8397 -17.025 -14.9854 19.8397 -17.3806 
-7.84176 19.8397 -16.9064 -0.698131 19.8397 -17.5567 6.4455 19.8397 -17.9295 
13.5891 19.8397 -16.8706 20.7328 19.8397 -16.0741 27.8764 19.8397 -15.5702 
35.02 19.8397 -14.3586 42.1637 19.8397 -11.7839 -36.4163 26.9833 -11.5806 
-29.2727 26.9833 -14.9957 -22.129 26.9833 -16.3973 -14.9854 26.9833 -17.6109 
-7.84176 26.9833 -17.3165 -0.698131 26.9833 -18.0741 6.4455 26.9833 -18.1002 
13.5891 26.9833 -16.9023 20.7328 26.9833 -15.6008 27.8764 26.9833 -13.3225 
-22.129 34.1269 -14.107 -14.9854 34.1269 -15.3305 -7.84176 34.1269 -16.347 
-0.698131 34.1269 -16.903 6.4455 34.1269 -16.7172 13.5891 34.1269 -14.828 
20.7328 34.1269 -12.2126 -7.84176 41.2706 -12.1896 -0.698131 41.2706 -12.9088 
6.4455 41.2706 -11.8015 -29.2727 -31.2529 -11.2055 -22.129 -31.6085 -11.2055 
-14.9854 -31.9074 -11.2055 -14.9854 -37.3094 -4.22256 -7.84176 -31.5457 -11.2055 
-0.698131 -31.5355 -11.2055 6.4455 -32.3427 -11.2055 13.5891 -32.5146 -11.2055 
20.7328 -31.1405 -11.2055 -43.5599 -24.5228 -11.2055 -43.5599 -30.1658 -6.94269 
-32.2139 -30.1658 -11.2055 -36.4163 -28.1478 -11.2055 -36.4163 -30.1658 -9.6049 
23.7438 -30.1658 -11.2055 27.8764 -28.4309 -11.2055 27.8764 -30.1658 -9.04613 
35.02 -26.2308 -11.2055 35.02 -30.1658 -5.55284 42.1637 -23.3979 -11.2055 
-45.1367 -23.0221 -11.2055 -50.7036 -23.0221 -7.51746 42.9938 -23.0221 -11.2055 
49.3073 -18.1346 -11.2055 49.3073 -23.0221 -7.69908 -50.0161 -15.8785 -11.2055 
-50.7036 -13.4217 -11.2055 -50.7036 -15.8785 -10.622 51.4445 -15.8785 -11.2055 
56.4509 -9.58918 -11.2055 56.4509 -15.8785 -7.84214 -51.8664 -8.73488 -11.2055 
56.8067 -8.73488 -11.2055 -51.7517 -1.59124 -11.2055 -50.7036 1.188 -11.2055 
57.5191 -1.59124 -11.2055 56.4509 4.18358 -11.2055 -49.0047 5.55239 -11.2055 
-50.7036 5.55239 -9.60405 55.9796 5.55239 -11.2055 56.4509 5.55239 -10.7274 
-45.8659 12.696 -11.2055 -50.7036 12.696 -6.58766 -43.5599 16.4374 -11.2055 
49.8314 12.696 -11.2055 49.3073 13.3982 -11.2055 -41.7614 19.8397 -11.2055 
-43.5599 19.8397 -9.6729 35.02 25.4525 -11.2055 43.0727 19.8397 -11.2055 
42.1637 20.5642 -11.2055 -36.9469 26.9833 -11.2055 -36.4163 27.5394 -11.2055 
-29.2727 33.6195 -11.2055 32.864 26.9833 -11.2055 27.8764 29.9697 -11.2055 
35.02 26.9833 -9.59918 -28.6028 34.1269 -11.2055 -29.2727 34.1269 -10.5021 
-22.129 37.3993 -11.2055 -14.9854 40.4239 -11.2055 13.5891 38.7314 -11.2055 
22.5638 34.1269 -11.2055 20.7328 35.2166 -11.2055 27.8764 34.1269 -4.87823 
-12.08 41.2706 -11.2055 -14.9854 41.2706 -9.1741 -7.84176 42.164 -11.2055 
-0.698131 42.7326 -11.2055 7.83981 41.2706 -11.2055 6.4455 41.7532 -11.2055 
-14.9854 -37.3877 -4.06189 -43.5599 -31.6889 -4.06189 -36.4163 -34.6699 -4.06189 
-29.2727 -36.2233 -4.06189 -15.9992 -37.3094 -4.06189 -22.129 -36.8191 -4.06189 
-13.6893 -37.3094 -4.06189 -14.9854 -37.3094 -0.381908 -7.84176 -36.9159 -4.06189 
-0.698131 -36.7545 -4.06189 6.4455 -36.6162 -4.06189 13.5891 -35.8898 -4.06189 
20.7328 -34.1486 -4.06189 27.8764 -32.7992 -4.06189 35.02 -30.8894 -4.06189 
-45.7345 -30.1658 -4.06189 -50.7036 -25.6147 -4.06189 37.5675 -30.1658 -4.06189 
42.1637 -28.6589 -4.06189 49.3073 -25.2954 -4.06189 -52.9239 -23.0221 -4.06189 
52.2562 -23.0221 -4.06189 56.4509 -19.105 -4.06189 -56.0232 -15.8785 -4.06189 
58.9242 -15.8785 -4.06189 -57.3729 -8.73488 -4.06189 61.326 -8.73488 -4.06189 
-57.6076 -1.59124 -4.06189 61.391 -1.59124 -4.06189 -55.0091 5.55239 -4.06189 
59.8546 5.55239 -4.06189 56.4509 11.0915 -4.06189 -52.3628 12.696 -4.06189 
-50.7036 15.4798 -4.06189 55.3823 12.696 -4.06189 49.3073 19.2398 -4.06189 
-48.1992 19.8397 -4.06189 -43.5599 25.5236 -4.06189 48.6175 19.8397 -4.06189 
42.1637 24.9519 -4.06189 -42.1346 26.9833 -4.06189 -36.4163 32.1043 -4.06189 
39.2517 26.9833 -4.06189 35.02 29.8443 -4.06189 -33.4895 34.1269 -4.06189 
-29.2727 36.6977 -4.06189 -22.129 40.1267 -4.06189 13.5891 41.2664 -4.06189 
20.7328 38.1779 -4.06189 28.4087 34.1269 -4.06189 27.8764 34.4555 -4.06189 
27.8764 34.1269 -2.83237 -18.934 41.2706 -4.06189 -14.9854 42.6211 -4.06189 
-14.9854 41.2706 1.40439 -7.84176 44.2964 -4.06189 -0.698131 44.4433 -4.06189 
13.5763 41.2706 -4.06189 6.4455 43.4289 -4.06189 -43.5599 -32.293 3.08175 
-36.4163 -35.5105 3.08175 -29.2727 -36.6405 3.08175 -22.129 -36.9088 3.08175 
-14.9854 -37.2299 3.08175 -7.84176 -36.7902 3.08175 -0.698131 -36.7518 3.08175 
6.4455 -36.3067 3.08175 13.5891 -35.2506 3.08175 20.7328 -34.1541 3.08175 
27.8764 -33.5144 3.08175 35.02 -31.5548 3.08175 -46.5729 -30.1658 3.08175 
-50.7036 -26.3478 3.08175 -43.5599 -30.1658 8.44626 40.2438 -30.1658 3.08175 
35.02 -30.1658 8.77207 42.1637 -29.623 3.08175 49.3073 -26.0098 3.08175 
-53.4813 -23.0221 3.08175 -50.7036 -23.0221 8.7794 53.0222 -23.0221 3.08175 
49.3073 -23.0221 9.11083 56.4509 -19.4748 3.08175 -56.5535 -15.8785 3.08175 
59.0087 -15.8785 3.08175 56.4509 -15.8785 7.51736 -57.8164 -8.73488 3.08175 
61.3678 -8.73488 3.08175 -57.8433 -1.59124 3.08175 61.0597 -1.59124 3.08175 
-55.8651 5.55239 3.08175 59.2352 5.55239 3.08175 56.4509 9.79278 3.08175 
56.4509 5.55239 7.97898 -53.1064 12.696 3.08175 -50.7036 16.7079 3.08175 
-50.7036 12.696 8.13435 54.2784 12.696 3.08175 49.3073 17.7117 3.08175 
49.3073 12.696 9.81997 -48.6283 19.8397 3.08175 -43.5599 25.5667 3.08175 
46.6282 19.8397 3.08175 42.1637 23.1138 3.08175 42.1637 19.8397 7.55729 
-41.981 26.9833 3.08175 -36.4163 31.1482 3.08175 -36.4163 26.9833 8.85397 
27.8764 32.0776 3.08175 27.8764 26.9833 8.16846 36.5852 26.9833 3.08175 
35.02 28.0012 3.08175 35.02 26.9833 4.47799 -31.2304 34.1269 3.08175 
-29.2727 35.1592 3.08175 -29.2727 34.1269 4.77028 -22.129 38.2315 3.08175 
-22.129 34.1269 8.49763 -14.9854 40.765 3.08175 13.5891 39.1289 3.08175 
13.5891 34.1269 8.72401 24.6685 34.1269 3.08175 20.7328 36.2773 3.08175 
20.7328 34.1269 5.70288 -12.7787 41.2706 3.08175 -7.84176 42.2449 3.08175 
-7.84176 41.2706 4.54591 -0.698131 42.3742 3.08175 -0.698131 41.2706 4.72227 
6.69684 41.2706 3.08175 6.4455 41.338 3.08175 6.4455 41.2706 3.18425 
-36.4163 -31.623 10.2254 -29.2727 -33.3381 10.2254 -22.129 -33.7815 10.2254 
-14.9854 -33.3222 10.2254 -7.84176 -33.083 10.2254 -0.698131 -32.9247 10.2254 
6.4455 -32.2517 10.2254 13.5891 -31.4463 10.2254 20.7328 -31.2826 10.2254 
27.8764 -30.8208 10.2254 -40.7825 -30.1658 10.2254 -43.5599 -28.7505 10.2254 
-36.4163 -30.1658 11.8001 -29.2727 -30.1658 13.3035 -22.129 -30.1658 13.5597 
-14.9854 -30.1658 12.9903 -7.84176 -30.1658 12.7719 -0.698131 -30.1658 12.592 
6.4455 -30.1658 11.9809 13.5891 -30.1658 11.4541 20.7328 -30.1658 11.452 
32.2801 -30.1658 10.2254 27.8764 -30.1658 10.9797 35.02 -29.6878 10.2254 
42.1637 -26.4852 10.2254 -49.3878 -23.0221 10.2254 -50.7036 -21.3903 10.2254 
-43.5599 -23.0221 14.1462 -36.4163 -23.0221 16.3735 -29.2727 -23.0221 16.9086 
-22.129 -23.0221 17.0529 -14.9854 -23.0221 15.9961 -7.84176 -23.0221 15.6446 
-0.698131 -23.0221 15.4215 6.4455 -23.0221 14.6989 13.5891 -23.0221 15.167 
20.7328 -23.0221 16.1176 27.8764 -23.0221 15.9235 35.02 -23.0221 15.5361 
48.1626 -23.0221 10.2254 42.1637 -23.0221 13.2814 49.3073 -21.9009 10.2254 
-53.0926 -15.8785 10.2254 -50.7036 -15.8785 12.579 -43.5599 -15.8785 16.1117 
-14.9854 -15.8785 17.0021 -7.84176 -15.8785 15.983 -0.698131 -15.8785 16.2465 
6.4455 -15.8785 15.7315 13.5891 -15.8785 16.3824 35.02 -15.8785 17.3359 
42.1637 -15.8785 16.1686 53.842 -15.8785 10.2254 49.3073 -15.8785 13.7971 
[...]
POINT_DATA 544
SCALARS ImageScalars float
LOOKUP_TABLE default
0 0 0 0 0 0 0 0 0 
0 0 0 0 0 0 0 0 0 
0 0 0 0 0 0 0 0 0 
0 0 0 0 0 0 0 0 0 
0 0 0 0 0 0 0 0 0 
0 0 0 0 0 0 0 0 0 
0 0 0 0 0 0 0 0 0 
0 0 0 0 0 0 0 0 0 
0 0 0 0 0 0 0 0 0 
0 0 0 0 0 0 0 0 0 
0 0 0 0 0 0 0 0 0 
0 0 0 0 0 0 0 0 0 
0 0 0 0 0 0 0 0 0 
0 0 0 0 0 0 0 0 0 
0 0 0 0 0 0 0 0 0 
0 0 0 0 0 0 0 0 0 
0 0 0 0 0 0 0 0 0 
0 0 0 0 0 0 0 0 0 
0 0 0 0 0 0 0 0 0 
0 0 0 0 0 0 0 0 0 
0 0 0 0 0 0 0 0 0 
0 0 0 0 0 0 0 0 0 
0 0 0 0 0 0 0 0 0 
0 0 0 0 0 0 0 0 0 
0 0 0 0 0 0 0 0 0 
0 0 0 0 0 0 0 0 0 
0 0 0 0 0 0 0 0 0 
0 0 0 0 0 0 0 0 0 
0 0 0 0 0 0 0 0 0 
0 0 0 0 0 0 0 0 0 
0 0 0 0 0 0 0 0 0 
0 0 0 0 0 0 0 0 0 
0 0 0 0 0 0 0 0 0 
0 0 0 0 0 0 0 0 0 
0 0 0 0 0 0 0 0 0 
0 0 0 0 0 0 0 0 0 
0 0 0 0 0 0 0 0 0 
0 0 0 0 0 0 0 0 0 
0 0 0 0 0 0 0 0 0 
0 0 0 0 0 0 0 0 0 
0 0 0 0 0 0 0 0 0 
0 0 0 0 0 0 0 0 0 
0 0 0 0 0 0 0 0 0 
0 0 0 0 0 0 0 0 0 
0 0 0 0 0 0 0 0 0 
0 0 0 0 0 0 0 0 0 
0 0 0 0 0 0 0 0 0 
0 0 0 0 0 0 0 0 0 
0 0 0 0 0 0 0 0 0 
0 0 0 0 0 0 0 0 0 
0 0 0 0 0 0 0 0 0 
0 0 0 0 0 0 0 0 0 
0 0 0 0 0 0 0 0 0 
0 0 0 0 0 0 0 0 0 
0 0 0 0 0 0 0 0 0 
0 0 0 0 0 0 0 0 0 
0 0 0 0 0 0 0 0 0 
0 0 0 0 0 0 0 0 0 
0 0 0 0 0 0 0 0 0 
0 0 0 0 0 0 0 0 0 
0 0 0 0 
NORMALS Normals float
0.13103 0.537153 0.833246 0.0369883 0.489708 0.871101 -0.00689919 0.498361 0.866942 
-0.0231645 0.459624 0.887812 0.0490701 0.466746 0.883029 0.0824223 0.535144 0.84073 
-0.0275657 0.620159 0.783992 -0.218599 0.693178 0.686817 0.344894 0.436037 0.831216 
0.18357 0.366142 0.912273 0.0495402 0.305736 0.950827 -0.0171361 0.213106 0.976879 
-0.0535477 0.157845 0.986011 -0.0562503 0.154002 0.986468 0.105252 0.135832 0.985125 
0.174907 0.210682 0.96178 0.0148355 0.218165 0.975799 -0.132368 0.228281 0.964555 
-0.159211 0.378196 0.911932 -0.18381 0.482591 0.856341 -0.29642 0.619645 0.726757 
0.325271 0.201852 0.923826 0.110135 0.192853 0.975027 -0.0519145 0.116609 0.99182 
-0.0763853 0.108174 0.991193 -0.0834871 -0.00949207 0.996464 -0.0687621 0.0730061 0.994958 
0.107779 0.0925848 0.989854 0.193533 0.0349617 0.980471 0.026544 -0.0377727 0.998934 
-0.0310754 -0.00408568 0.999509 -0.010081 0.135408 0.990739 -0.110192 0.223051 0.968559 
-0.221018 0.268151 0.937681 -0.440349 0.388286 0.809523 0.584572 0.081584 0.807229 
0.286882 0.0554978 0.956357 0.0919385 0.0346022 0.995163 -0.0353466 0.0599719 0.997574 
-0.153035 0.0507805 0.986915 -0.085695 0.0286553 0.995909 0.0490272 0.205423 0.977444 
0.0789911 0.0254302 0.996551 0.0363378 0.0255779 0.999012 -0.0205066 -0.116016 0.993036 
0.0418586 -0.0433157 0.998184 0.0681495 0.0236868 0.997394 -0.0163471 0.0679774 0.997553 
-0.114334 0.151237 0.981863 -0.328575 0.149094 0.932636 -0.592051 0.207747 0.778663 
0.577278 -0.13307 0.805632 0.295219 -0.0721576 0.952701 0.106076 -0.0549365 0.992839 
-0.0405991 -0.0104003 0.999121 -0.108995 -0.00699545 0.994018 0.0670947 0.0744507 0.994965 
-0.0487727 0.1566 0.986457 -0.0712584 0.127489 0.989277 0.0412533 0.0978589 0.994345 
-0.0363591 -0.0321588 0.998821 0.108285 0.00682271 0.994097 0.101933 0.0163314 0.994657 
0.0135794 0.0155722 0.999787 -0.156108 0.0208205 0.987521 -0.336107 0.0171629 0.941667 
-0.613068 -0.0336757 0.789312 0.357958 -0.195297 0.913086 0.159557 -0.101579 0.981949 
0.00942761 -0.023633 0.999676 -0.0688722 0.0296512 0.997185 0.0640868 0.0553394 0.996409 
0.117803 -0.122 0.985514 0.0160927 0.209006 0.977782 -0.134807 0.0547647 0.989357 
-0.103409 0.0476745 0.993496 0.08882 0.040365 0.995229 0.0759903 0.0145844 0.997002 
-0.0116567 -0.0800182 0.996725 -0.102665 -0.131295 0.986013 -0.384849 -0.187387 0.903757 
0.438007 -0.286269 0.852174 0.285446 -0.12322 0.950441 0.0888974 -0.0598898 0.994239 
-0.0257691 0.0507198 0.99838 -0.0624004 0.104358 0.99258 0.0775638 -0.0230935 0.99672 
0.0970843 0.0057993 0.995259 -0.11815 0.0243886 0.992696 -0.0602514 0.0908177 0.994043 
0.0751416 0.00333532 0.997167 -0.0178162 -0.0878956 0.99597 -0.121586 -0.165724 0.978648 
-0.262092 -0.255732 0.930542 -0.557405 -0.413385 0.720008 0.344732 -0.236361 0.908456 
0.189214 -0.120004 0.974575 0.0937422 -0.0281843 0.995197 -0.00860276 0.0797876 0.996775 
0.0149097 0.0937677 0.995482 0.0707158 0.0300308 0.997044 -0.0484619 0.0554173 0.997286 
-0.126758 0.0646191 0.989827 -0.0890777 -0.0587958 0.994288 -0.106749 -0.227153 0.967991 
-0.220189 -0.397562 0.890764 -0.410384 -0.580996 0.702872 0.513775 -0.48656 0.706608 
0.303433 -0.302193 0.903664 0.167824 -0.17975 0.969291 0.0575309 -0.13128 0.989675 
0.0330893 -0.0402124 0.998643 0.0550039 -0.0383856 0.997748 -0.0814447 -0.0838393 0.993145 
-0.176999 -0.125242 0.97621 -0.217089 -0.223998 0.950104 -0.365068 -0.462716 0.807849 
0.289285 -0.517588 0.805243 0.146377 -0.411774 0.899453 0.103929 -0.297632 0.949007 
0.0286132 -0.315548 0.948478 -0.132089 -0.351867 0.926684 -0.293695 -0.460786 0.837508 
-0.400553 -0.637079 0.65855 0.137339 -0.767684 0.625939 -0.0184097 -0.756918 0.653251 
-0.224238 -0.818084 0.52958 0.139425 0.589762 0.79545 0.0319829 0.573738 0.818414 
-0.00403754 0.591327 0.806422 0.00797769 0.968753 0.247899 -0.0176874 0.542493 0.839874 
0.0418246 0.548284 0.835246 0.0503962 0.647405 0.760478 -0.0740825 0.75179 0.655228 
-0.227055 0.751887 0.618961 0.359553 0.481007 0.799596 0.468275 0.74451 0.475839 
0.167061 0.577035 0.79945 0.209284 0.551954 0.807185 0.235201 0.681759 0.692737 
-0.235449 0.727062 0.644938 -0.22613 0.668 0.708972 -0.24378 0.801538 0.545993 
-0.236016 0.639307 0.731835 -0.261294 0.901979 0.343744 -0.29777 0.63604 0.711889 
0.401662 0.445034 0.800382 0.671342 0.526102 0.522032 -0.318554 0.617771 0.718945 
-0.459084 0.432662 0.775916 -0.517489 0.659213 0.545567 0.60132 0.198407 0.773982 
0.615588 0.155172 0.77264 0.64448 0.203304 0.737098 -0.494833 0.400636 0.771123 
-0.59571 0.238902 0.766848 -0.674789 0.493849 0.548428 0.627011 0.0787803 0.775016 
-0.610536 0.209258 0.763843 0.619723 -0.135936 0.772958 0.619674 -0.169208 0.766403 
-0.684221 -0.0418613 0.728072 -0.660887 -0.271277 0.699741 0.604313 -0.216829 0.766675 
0.702328 -0.246795 0.667704 -0.648021 -0.322714 0.689873 -0.679399 -0.333224 0.653742 
0.510336 -0.318956 0.798639 0.778329 -0.405246 0.479563 0.537568 -0.339238 0.77197 
-0.574158 -0.419673 0.703005 -0.567716 -0.43212 0.700694 0.56896 -0.334544 0.751242 
0.656122 -0.40351 0.637717 -0.378563 -0.562907 0.734729 -0.436098 -0.601516 0.669326 
-0.42846 -0.612815 0.663988 0.528177 -0.495909 0.689277 0.521622 -0.510911 0.683287 
0.451583 -0.636695 0.625054 -0.403255 -0.56236 0.721898 -0.416222 -0.574929 0.704426 
-0.45971 -0.676813 0.57497 0.445836 -0.650007 0.615403 0.4685 -0.685484 0.557333 
0.35293 -0.730138 0.585097 0.269258 -0.765363 0.584568 -0.366223 -0.726672 0.58123 
-0.414366 -0.669642 0.616344 -0.409203 -0.6917 0.595067 -0.501368 -0.857027 0.118893 
0.218739 -0.797607 0.562118 0.28478 -0.874136 0.393429 0.134565 -0.817487 0.560006 
-0.0295667 -0.846916 0.530904 -0.254154 -0.827783 0.500181 -0.224032 -0.841826 0.491058 
0.00844781 0.971333 0.237573 0.483276 0.827783 0.28499 0.304879 0.888924 0.341852 
0.133457 0.952909 0.272312 0.0179498 0.971864 0.234857 0.0746023 0.970833 0.227854 
-0.00057114 0.971527 0.236927 0.000233971 0.99998 0.00627101 -0.042028 0.969639 0.240902 
-0.0200353 0.96882 0.246956 -0.0579506 0.979217 0.194359 -0.168209 0.975397 0.1425 
-0.203902 0.964165 0.169735 -0.220295 0.937129 0.270666 -0.258917 0.927498 0.269647 
0.560247 0.775443 0.291224 0.718104 0.625391 0.305309 -0.295002 0.913002 0.281783 
-0.36468 0.873753 0.321815 -0.523455 0.801075 0.290301 0.783298 0.543727 0.301338 
-0.599315 0.740825 0.303316 -0.72215 0.622941 0.30074 0.90681 0.275934 0.318678 
-0.824893 0.483019 0.293674 0.952629 0.0954406 0.288772 -0.949207 0.170227 0.26463 
0.945663 -0.146209 0.290421 -0.969642 -0.0976393 0.224192 0.885274 -0.311407 0.34542 
-0.903279 -0.381696 0.195946 -0.837098 -0.52317 0.159872 0.84306 -0.432204 0.320076 
0.826338 -0.470972 0.30879 -0.810739 -0.561874 0.164318 -0.6512 -0.752658 0.0971788 
0.79769 -0.524416 0.297789 0.714449 -0.660222 0.231664 -0.639944 -0.763028 0.0908855 
-0.586675 -0.806922 0.0684806 0.695032 -0.689422 0.204029 0.611882 -0.780672 0.127089 
-0.56558 -0.82208 0.0656003 -0.547887 -0.8343 0.0613449 0.551922 -0.82928 0.0876159 
0.486408 -0.871932 0.0560474 0.378773 -0.925174 0.0241733 -0.3443 -0.938854 0.00330179 
-0.438525 -0.89768 0.043207 -0.503633 -0.862109 0.0558666 -0.499604 -0.864331 0.0576783 
-0.505482 -0.862597 -0.0203527 0.329453 -0.944107 0.0110478 0.274347 -0.96163 -0.00103881 
0.261399 -0.913571 -0.311542 0.126776 -0.991914 -0.00580151 -0.0596003 -0.997802 -0.02898 
-0.344034 -0.938952 0.00321765 -0.208897 -0.977429 -0.0315432 0.500486 0.854854 -0.136892 
0.296431 0.943393 -0.148788 0.0913641 0.984311 -0.150942 0.0397726 0.987451 -0.152838 
-0.00778069 0.976647 -0.214708 -0.0318559 0.97843 -0.204107 -0.0328434 0.978815 -0.202097 
-0.103212 0.967266 -0.231826 -0.146028 0.958977 -0.242979 -0.118777 0.97928 -0.16402 
-0.174543 0.978497 -0.1099 -0.245401 0.966992 -0.068594 0.604466 0.783436 -0.144395 
0.742885 0.650027 -0.15996 0.48147 0.73807 -0.472694 -0.321466 0.94261 -0.0902564 
-0.233944 0.883949 -0.404851 -0.359282 0.927489 -0.103346 -0.546337 0.827268 -0.130933 
0.823871 0.539585 -0.173449 0.677102 0.529229 -0.511321 -0.643418 0.74847 -0.160641 
-0.554022 0.615455 -0.560602 -0.773192 0.599006 -0.208243 0.945824 0.273696 -0.174664 
-0.866622 0.437333 -0.240223 -0.746761 0.423513 -0.51282 0.981773 0.0836896 -0.170637 
-0.957717 0.140025 -0.25134 0.970433 -0.133263 -0.201248 -0.952025 -0.126672 -0.278573 
0.945893 -0.285044 -0.155038 -0.852577 -0.428653 -0.298947 -0.800695 -0.51664 -0.303266 
-0.729176 -0.403676 -0.552584 0.876981 -0.456163 -0.151061 0.831451 -0.534762 -0.150727 
0.775526 -0.415808 -0.475039 -0.746873 -0.580479 -0.324383 -0.600732 -0.720085 -0.347275 
-0.514991 -0.53565 -0.669226 0.784782 -0.595503 -0.17174 0.677959 -0.704732 -0.209104 
-0.552288 -0.749294 -0.365426 -0.517492 -0.762713 -0.387906 -0.428558 -0.679645 -0.595332 
0.640988 -0.731586 -0.2322 0.527961 -0.794366 -0.300399 0.433438 -0.672961 -0.599379 
-0.468833 -0.753481 -0.460936 -0.347567 -0.598752 -0.721591 -0.489707 -0.76786 -0.413011 
-0.481843 -0.770567 -0.417198 -0.459615 -0.740299 -0.490623 0.441561 -0.832124 -0.335548 
0.411674 -0.84115 -0.350701 0.39157 -0.816095 -0.425044 0.329381 -0.850898 -0.409243 
0.244046 -0.691672 -0.679729 0.248413 -0.87329 -0.419112 -0.299826 -0.837188 -0.457407 
-0.246613 -0.611351 -0.751952 -0.441907 -0.779569 -0.443836 -0.393936 -0.806463 -0.440944 
-0.37084 -0.728484 -0.576011 0.206168 -0.881192 -0.425435 0.102862 -0.885623 -0.452869 
0.0960401 -0.848655 -0.520154 -0.059632 -0.886118 -0.459608 -0.059068 -0.84172 -0.536673 
-0.199261 -0.868199 -0.45445 -0.195152 -0.868868 -0.454956 -0.194996 -0.866388 -0.459726 
0.246591 0.738896 -0.627077 0.110628 0.782194 -0.613134 -0.000150818 0.780067 -0.625696 
-0.0376453 0.737296 -0.67452 -0.0220564 0.728568 -0.684618 -0.0459286 0.71253 -0.700136 
-0.0832853 0.678499 -0.729865 -0.0538319 0.731259 -0.679972 -0.0386402 0.800018 -0.59873 
-0.099068 0.815043 -0.570868 0.372186 0.702808 -0.606249 0.454973 0.65478 -0.603542 
0.227698 0.684041 -0.692994 0.0863606 0.631907 -0.770218 -0.0206297 0.588578 -0.808177 
-0.0464235 0.572481 -0.818603 -0.0253325 0.565857 -0.824114 -0.0510953 0.558727 -0.827776 
-0.0705498 0.559889 -0.825558 -0.0343238 0.666934 -0.744326 -0.026155 0.742241 -0.669622 
-0.176413 0.831574 -0.526652 -0.092424 0.785796 -0.611541 -0.226243 0.829302 -0.510952 
-0.380207 0.707581 -0.595627 0.610762 0.504492 -0.610293 0.657494 0.438186 -0.61294 
0.413617 0.410796 -0.812507 0.150243 0.356331 -0.922201 0.0412268 0.320855 -0.946231 
-0.0640782 0.290689 -0.954669 -0.0889099 0.2434 -0.965842 -0.0398978 0.198459 -0.979297 
-0.0628077 0.227476 -0.971756 -0.0149377 0.240039 -0.970648 0.0900672 0.28479 -0.954349 
0.0569964 0.357089 -0.93233 -0.0362895 0.429896 -0.902149 -0.162212 0.44168 -0.882387 
-0.514922 0.574952 -0.635835 -0.357013 0.524931 -0.772651 -0.536271 0.538845 -0.649661 
0.742751 0.213853 -0.634499 0.637123 0.199801 -0.744415 0.355841 0.162046 -0.92039 
-0.175301 0.155979 -0.97208 -0.0520635 0.0811672 -0.99534 -0.017272 0.149612 -0.988594 
0.00951315 0.158694 -0.987282 0.12508 0.101638 -0.986927 -0.163292 0.190418 -0.968027 
-0.205374 0.261854 -0.943002 -0.61958 0.368874 -0.692858 -0.461504 0.331257 -0.822972 
-0.678415 0.195343 -0.708233 0.740084 0.0390342 -0.671381 0.61896 0.0473813 -0.783992 
0.347644 0.0828677 -0.933957 -0.0425165 0.203213 -0.978211 -0.0719061 0.0700595 -0.994948 
0.0448477 0.0404805 -0.998173 -0.416972 0.057877 -0.907075 -0.695529 0.119619 -0.70847 
-0.663429 0.117032 -0.73903 0.756648 -0.100281 -0.646086 0.626557 -0.0902307 -0.774135 
0.312433 -0.0790813 -0.946642 -0.147558 -0.0629537 -0.987048 0.132206 0.0154349 -0.991102 
0.0812864 0.00730755 -0.996664 -0.43045 -0.101703 -0.896867 -0.687598 -0.113906 -0.717102 
-0.682417 -0.159246 -0.713406 -0.67509 -0.112423 -0.729119 0.725135 -0.228431 -0.649614 
0.709799 -0.306114 -0.634413 0.672922 -0.225514 -0.7045 0.375192 -0.207873 -0.903338 
-0.0449076 0.0684698 -0.996642 -0.0184579 -0.0580173 -0.998145 0.0120205 -0.122322 -0.992418 
-0.230004 -0.285768 -0.930287 -0.630314 -0.362026 -0.686762 -0.505896 -0.515108 -0.691905 
-0.453157 -0.318257 -0.832683 0.675989 -0.368765 -0.638006 0.432816 -0.29606 -0.85148 
0.232587 -0.253774 -0.938883 -0.152609 -0.179943 -0.971767 -0.0289951 -0.19687 -0.980001 
0.0468174 -0.175991 -0.983278 -0.0553453 -0.190991 -0.98003 -0.0304577 -0.173679 -0.984331 
0.0367368 -0.269816 -0.962211 -0.0332917 -0.347971 -0.936914 -0.173448 -0.409874 -0.8955 
-0.490162 -0.526253 -0.694837 -0.351017 -0.579762 -0.735298 -0.29939 -0.471462 -0.829511 
0.581415 -0.525491 -0.621141 0.558337 -0.545149 -0.625358 0.546778 -0.513064 -0.661664 
0.387618 -0.616041 -0.685745 0.26641 -0.419198 -0.867928 0.131161 -0.34376 -0.929853 
0.00732939 -0.234401 -0.972112 -0.0907555 -0.154911 -0.983751 -0.0735668 -0.0850675 -0.993656 
-0.01004 -0.149336 -0.988735 -0.017963 -0.165598 -0.98603 -0.0835805 -0.180081 -0.980094 
-0.114756 -0.289817 -0.950177 -0.257967 -0.516748 -0.816348 -0.165044 -0.439272 -0.883063 
-0.278091 -0.566572 -0.775669 -0.26582 -0.55743 -0.786518 -0.252694 -0.548097 -0.79733 
0.359417 -0.618167 -0.699063 0.280779 -0.6204 -0.732303 0.242405 -0.524315 -0.816293 
0.200391 -0.60288 -0.772256 0.121239 -0.438265 -0.890632 0.0185809 -0.317254 -0.948159 
-0.030419 -0.237319 -0.970955 -0.044904 -0.219403 -0.9746 -0.0777891 -0.280108 -0.956812 
-0.207075 -0.497221 -0.84255 -0.146906 -0.324228 -0.934502 -0.273206 -0.465684 -0.841723 
-0.268877 -0.459011 -0.846767 -0.243479 -0.409298 -0.879314 0.156031 -0.595109 -0.788353 
0.146469 -0.592457 -0.792175 0.142453 -0.581609 -0.800898 0.0504042 -0.551496 -0.832653 
0.0416419 -0.494593 -0.868127 -0.0513922 -0.527408 -0.848056 -0.0499111 -0.470023 -0.881242 
-0.152166 -0.520307 -0.840313 -0.13816 -0.52066 -0.842511 -0.135951 -0.50896 -0.849986 
0.152764 0.246819 -0.956945 0.0354757 0.280082 -0.95932 -0.0750743 0.26202 -0.962138 
0.143902 0.132931 -0.980623 -0.0247761 0.280369 -0.959573 0.239773 0.162648 -0.957107 
0.168418 0.169642 -0.971008 0.0179831 0.179168 -0.983654 -0.161457 0.159344 -0.973931 
-0.113268 0.165841 -0.979626 -0.178752 0.173423 -0.96849 0.00936938 -0.030768 -0.999483 
0.15124 0.101075 -0.983316 0.154609 0.0992741 -0.982975 -0.159452 0.189632 -0.968821 
-0.0135368 0.158677 -0.987238 -0.160505 0.187232 -0.969114 -0.188486 0.102967 -0.976663 
0.336351 0.0822957 -0.938134 0.152398 0.0590425 -0.986554 0.0226383 0.0693291 -0.997337 
-0.0926601 0.0908119 -0.991548 -0.0987038 0.210547 -0.972588 -0.178198 0.208281 -0.961699 
-0.0039368 0.0196761 -0.999799 -0.125333 0.176177 -0.976347 -0.0249743 -0.00709857 -0.999663 
-0.0027427 -0.072288 -0.99738 0.014376 -0.0719285 -0.997306 0.10194 0.0269879 -0.994424 
0.125947 0.0219587 -0.991794 0.0546173 0.0178996 -0.998347 -0.0615242 0.0833177 -0.994622 
-0.208038 0.0803198 -0.974817 -0.189553 0.0831501 -0.978343 0.301602 -0.078807 -0.950171 
0.177588 -0.0738669 -0.981329 0.0479035 -0.051624 -0.997517 0.0203996 -0.0595935 -0.998014 
-0.052997 0.00341165 -0.998589 -0.281849 0.0275607 -0.959063 -0.330272 0.0714015 -0.941181 
0.101022 -0.00328404 -0.994879 0.126095 -0.0150994 -0.991903 0.0451878 -0.0448351 -0.997972 
-0.0932315 -0.0683285 -0.993297 -0.22441 -0.0864905 -0.970649 -0.219349 -0.0944454 -0.971065 
-0.219449 -0.0860907 -0.971818 0.247131 -0.190299 -0.950112 0.20639 -0.209074 -0.955872 
0.185817 -0.179264 -0.966093 0.0364744 -0.144894 -0.988775 -0.0389008 -0.159211 -0.986478 
-0.101512 -0.224769 -0.96911 -0.0460361 -0.26017 -0.964465 -0.0681973 -0.0763347 -0.994747 
-0.0788468 -0.260187 -0.962334 -0.0914104 -0.27085 -0.958272 0.0670431 -0.164425 -0.984109 
0.0730783 -0.174648 -0.981915 0.0744598 -0.170186 -0.982595 -0.0067702 -0.232245 -0.972634 
-0.00100244 -0.201447 -0.979499 -0.112239 -0.24457 -0.963114 -0.108444 -0.246324 -0.963101 
-0.106905 -0.242651 -0.964205 0.113819 -0.235539 -0.965177 0.0794274 -0.246261 -0.965943 
0.0695028 -0.227671 -0.971254 -0.10047 -0.168918 -0.980496 -0.0899353 -0.171195 -0.981124 
-0.0959398 -0.168108 -0.981089 
