# vtk DataFile Version 4.2
vtk output
ASCII
DATASET POLYDATA
POINTS 530 float
-31.0854 -23.2067 -21.8532 -31.0854 -14.9198 -21.794 -31.0854 -39.7805 -15.9061 
-22.7986 -39.7805 -17.249 -14.5117 -39.7805 -16.9012 -6.22481 -39.7805 -15.7385 
2.06206 -39.7805 -13.444 -39.3723 -31.4936 -18.1362 -31.0854 -23.7163 -21.7229 
-31.0854 -31.4936 -19.5808 -22.7986 -31.4936 -20.1397 -14.5117 -31.4936 -19.5097 
-6.22481 -31.4936 -18.7684 2.06206 -31.4936 -18.1765 10.3489 -31.4936 -16.7467 
18.6358 -31.4936 -15.1245 26.9227 -31.4936 -14.504 35.2096 -31.4936 -13.5045 
-47.6592 -23.2067 -17.9314 -31.7932 -23.2067 -21.7229 -39.3723 -23.2067 -20.2611 
-28.745 -23.2067 -21.7229 -22.7986 -23.2067 -21.3535 -14.5117 -23.2067 -20.3168 
-6.22481 -23.2067 -19.52 2.06206 -23.2067 -19.7229 10.3489 -23.2067 -19.3273 
18.6358 -23.2067 -18.6668 26.9227 -23.2067 -19.44 35.2096 -23.2067 -19.0481 
43.4964 -23.2067 -19.1343 51.7833 -23.2067 -16.1336 -55.9461 -14.9198 -15.3186 
-47.6592 -14.9198 -19.8215 -32.5736 -14.9198 -21.7229 -39.3723 -14.9198 -21.3881 
-29.95 -14.9198 -21.7229 -31.0854 -14.0088 -21.7229 -22.7986 -14.9198 -21.2753 
-14.5117 -14.9198 -20.2946 -6.22481 -14.9198 -18.8711 2.06206 -14.9198 -19.0006 
10.3489 -14.9198 -18.8241 18.6358 -14.9198 -18.6256 26.9227 -14.9198 -19.8811 
35.2096 -14.9198 -21.1792 43.4964 -14.9198 -20.538 51.7833 -14.9198 -19.1667 
60.0702 -14.9198 -15.4031 -55.9461 -6.63297 -16.1775 -47.6592 -6.63297 -20.6245 
-39.3723 -6.63297 -21.4491 -31.0854 -6.63297 -21.1468 -22.7986 -6.63297 -20.1895 
-14.5117 -6.63297 -19.9422 -6.22481 -6.63297 -19.6762 2.06206 -6.63297 -19.1951 
10.3489 -6.63297 -18.2089 18.6358 -6.63297 -17.3267 26.9227 -6.63297 -19.2372 
35.2096 -6.63297 -20.5356 43.4964 -6.63297 -20.9902 51.7833 -6.63297 -20.6013 
60.0702 -6.63297 -19.5161 -55.9461 1.6539 -16.2929 -47.6592 1.6539 -20.2001 
-39.3723 1.6539 -20.7311 -31.0854 1.6539 -20.275 -22.7986 1.6539 -19.0803 
-14.5117 1.6539 -19.7872 -6.22481 1.6539 -19.8362 2.06206 1.6539 -16.3916 
10.3489 1.6539 -20.8163 18.6358 1.6539 -16.6632 26.9227 1.6539 -18.569 
35.2096 1.6539 -19.4923 43.4964 1.6539 -19.8926 51.7833 1.6539 -19.1637 
60.0702 1.6539 -16.7066 -55.9461 9.94078 -15.5356 -47.6592 9.94078 -18.7526 
-39.3723 9.94078 -19.3985 -31.0854 9.94078 -19.1592 -22.7986 9.94078 -18.3903 
-14.5117 9.94078 -19.7894 -6.22481 9.94078 -20.0484 2.06206 9.94078 -17.3438 
10.3489 9.94078 -15.9237 18.6358 9.94078 -13.5886 26.9227 9.94078 -15.5369 
35.2096 9.94078 -17.1269 43.4964 9.94078 -17.6864 51.7833 9.94078 -16.8669 
-47.6592 18.2277 -16.5509 -39.3723 18.2277 -17.8656 -31.0854 18.2277 -17.8683 
-22.7986 18.2277 -17.3768 -14.5117 18.2277 -17.9752 -6.22481 18.2277 -18.5289 
2.06206 18.2277 -16.2989 43.4964 18.2277 -13.8044 51.7833 18.2277 -14.2611 
-39.3723 26.5145 -13.9698 -31.0854 26.5145 -14.875 -22.7986 26.5145 -15.5809 
-14.5117 26.5145 -15.8586 -6.22481 26.5145 -15.4089 -31.0854 -42.5876 -13.4361 
-22.7986 -44.1664 -13.4361 -22.7986 -48.0673 -6.53277 -14.5117 -44.4939 -13.4361 
-14.5117 -48.0673 -6.86898 -6.22481 -42.9655 -13.4361 2.06206 -39.7889 -13.4361 
-36.5349 -39.7805 -13.4361 -39.3723 -38.0729 -13.4361 -39.3723 -39.7805 -9.99238 
2.08059 -39.7805 -13.4361 10.3489 -35.7006 -13.4361 18.6358 -33.1149 -13.4361 
26.9227 -32.3076 -13.4361 35.2096 -31.548 -13.4361 -47.4143 -31.4936 -13.4361 
-47.6592 -31.2328 -13.4361 -47.6592 -31.4936 -12.9905 35.5175 -31.4936 -13.4361 
43.4964 -29.9925 -13.4361 43.4964 -31.4936 -10.0323 51.7833 -27.1922 -13.4361 
-53.6886 -23.2067 -13.4361 -55.9461 -18.442 -13.4361 -55.9461 -23.2067 -8.58897 
57.4021 -23.2067 -13.4361 60.0702 -19.4743 -13.4361 60.0702 -23.2067 -9.38279 
-57.6765 -14.9198 -13.4361 62.2577 -14.9198 -13.4361 -59.5188 -6.63297 -13.4361 
66.0437 -6.63297 -13.4361 68.3571 -6.63297 -9.38298 -60.1224 1.6539 -13.4361 
-64.2329 1.6539 -5.8708 64.5077 1.6539 -13.4361 60.0702 9.29497 -13.4361 
68.3571 1.6539 -8.09913 -58.2099 9.94078 -13.4361 -55.9461 13.8936 -13.4361 
10.3489 12.2215 -13.4361 18.6358 10.2649 -13.4361 26.9227 14.3292 -13.4361 
35.2096 17.7569 -13.4361 59.6027 9.94078 -13.4361 60.0702 9.94078 -13.1579 
-53.1938 18.2277 -13.4361 -55.9461 18.2277 -10.8165 -47.6592 23.4478 -13.4361 
5.54942 18.2277 -13.4361 2.06206 23.8858 -13.4361 10.3489 18.2277 -9.89002 
18.6358 18.2277 -9.79831 26.9227 18.2277 -11.5856 38.6209 18.2277 -13.4361 
35.2096 18.2277 -13.1877 43.4964 18.7662 -13.4361 53.6843 18.2277 -13.4361 
51.7833 19.2599 -13.4361 60.0702 18.2277 -9.42021 -41.0272 26.5145 -13.4361 
-47.6592 26.5145 -10.6161 -39.3723 27.3822 -13.4361 -31.0854 29.1482 -13.4361 
-22.7986 31.5218 -13.4361 -14.5117 32.2271 -13.4361 -1.04532 26.5145 -13.4361 
-6.22481 30.8781 -13.4361 2.06206 26.5145 -12.1245 10.3489 26.5145 -8.46627 
18.6358 26.5145 -7.60671 26.9227 26.5145 -7.67647 35.2096 26.5145 -8.32505 
43.4964 26.5145 -7.02778 -39.3723 34.8014 -6.35242 -31.0854 34.8014 -9.59078 
-22.7986 34.8014 -11.8123 -14.5117 34.8014 -12.2021 -6.22481 34.8014 -11.2988 
2.06206 34.8014 -7.92449 -14.5117 43.0883 -5.42141 -22.7986 -48.5953 -5.14919 
-14.5117 -48.7085 -5.14919 -39.3723 -41.7163 -5.14919 -24.9581 -48.0673 -5.14919 
-31.0854 -46.4063 -5.14919 -22.7986 -48.0673 -3.83181 -11.834 -48.0673 -5.14919 
-14.5117 -48.0673 -3.57466 -6.22481 -46.6637 -5.14919 2.06206 -43.235 -5.14919 
-41.8597 -39.7805 -5.14919 -47.6592 -34.6956 -5.14919 -39.3723 -39.7805 -1.27608 
8.62551 -39.7805 -5.14919 10.3489 -38.9887 -5.14919 18.6358 -36.1868 -5.14919 
26.9227 -34.928 -5.14919 35.2096 -34.5517 -5.14919 43.4964 -33.3566 -5.14919 
-50.734 -31.4936 -5.14919 -55.9461 -24.9896 -5.14919 -47.6592 -31.4936 1.14673 
48.6431 -31.4936 -5.14919 43.4964 -31.4936 2.05471 51.7833 -30.3153 -5.14919 
60.0702 -24.7161 -5.14919 -57.1622 -23.2067 -5.14919 -55.9461 -23.2067 -1.33923 
61.8247 -23.2067 -5.14919 60.0702 -23.2067 -0.537421 -61.3538 -14.9198 -5.14919 
67.0231 -14.9198 -5.14919 68.3571 -11.4294 -5.14919 -63.3992 -6.63297 -5.14919 
-64.2329 -0.251758 -5.14919 70.0656 -6.63297 -5.14919 68.3571 -6.63297 2.28909 
-64.4809 1.6539 -5.14919 -64.2329 4.37418 -5.14919 -64.2329 1.6539 -0.90982 
69.52 1.6539 -5.14919 68.3571 7.58469 -5.14919 68.3571 1.6539 1.17237 
-63.6749 9.94078 -5.14919 67.7555 9.94078 -5.14919 -60.1827 18.2277 -5.14919 
-55.9461 24.3212 -5.14919 51.7833 25.8905 -5.14919 63.3711 18.2277 -5.14919 
60.0702 21.5907 -5.14919 -53.8434 26.5145 -5.14919 -47.6592 31.0609 -5.14919 
10.3489 33.4459 -5.14919 18.6358 31.9969 -5.14919 26.9227 31.2954 -5.14919 
35.2096 30.4002 -5.14919 49.6298 26.5145 -5.14919 43.4964 28.4689 -5.14919 
51.7833 26.5145 -3.95757 -40.9067 34.8014 -5.14919 -39.3723 35.6848 -5.14919 
-31.0854 38.9211 -5.14919 -22.7986 42.1707 -5.14919 -6.22481 42.226 -5.14919 
8.48007 34.8014 -5.14919 2.06206 38.4691 -5.14919 10.3489 34.8014 -4.30004 
18.6358 34.8014 -3.03343 26.9227 34.8014 -1.31576 35.2096 34.8014 1.98283 
-16.2788 43.0883 -5.14919 -22.7986 43.0883 -2.58126 -12.3858 43.0883 -5.14919 
-14.5117 43.301 -5.14919 -6.22481 43.0883 -3.47722 2.06206 43.0883 1.37707 
-31.0854 -42.2862 3.13768 -22.7986 -44.1738 3.13768 -14.5117 -44.2196 3.13768 
-6.22481 -43.1392 3.13768 2.06206 -39.8461 3.13768 -35.5079 -39.7805 3.13768 
-39.3723 -37.1278 3.13768 -31.0854 -39.7805 5.58171 -22.7986 -39.7805 7.31887 
-14.5117 -39.7805 6.877 -6.22481 -39.7805 5.95472 2.20924 -39.7805 3.13768 
2.06206 -39.7805 3.20641 10.3489 -36.1588 3.13768 18.6358 -33.8771 3.13768 
26.9227 -33.2815 3.13768 35.2096 -32.469 3.13768 -46.3254 -31.4936 3.13768 
-47.6592 -30.2642 3.13768 -39.3723 -31.4936 7.71502 -31.0854 -31.4936 9.69088 
-22.7986 -31.4936 11.2117 -14.5117 -31.4936 10.8173 -6.22481 -31.4936 9.74885 
2.06206 -31.4936 8.97416 10.3489 -31.4936 8.01481 18.6358 -31.4936 6.31075 
26.9227 -31.4936 5.72931 41.6549 -31.4936 3.13768 35.2096 -31.4936 4.71034 
43.4964 -31.1558 3.13768 51.7833 -28.2602 3.13768 -54.03 -23.2067 3.13768 
-55.9461 -20.4309 3.13768 -47.6592 -23.2067 8.6533 58.5577 -23.2067 3.13768 
51.7833 -23.2067 8.87076 60.0702 -21.6265 3.13768 -59.0301 -14.9198 3.13768 
-55.9461 -14.9198 7.1728 64.6564 -14.9198 3.13768 60.0702 -14.9198 8.49103 
-62.1117 -6.63297 3.13768 68.0963 -6.63297 3.13768 -63.9686 1.6539 3.13768 
67.9099 1.6539 3.13768 -63.0018 9.94078 3.13768 67.2644 9.94078 3.13768 
-60.4786 18.2277 3.13768 -55.9461 25.3966 3.13768 63.841 18.2277 3.13768 
60.0702 22.9386 3.13768 60.0702 18.2277 8.36661 -55.0486 26.5145 3.13768 
-47.6592 32.8228 3.13768 43.4964 33.1988 3.13768 55.885 26.5145 3.13768 
51.7833 29.5233 3.13768 51.7833 26.5145 9.38158 -44.6267 34.8014 3.13768 
-39.3723 38.1868 3.13768 -31.0854 41.8139 3.13768 10.3489 40.9015 3.13768 
18.6358 38.8741 3.13768 26.9227 37.1214 3.13768 37.4069 34.8014 3.13768 
35.2096 35.368 3.13768 35.2096 34.8014 5.88205 -27.5823 43.0883 3.13768 
-22.7986 44.7279 3.13768 -14.5117 46.0262 3.13768 -6.22481 45.5659 3.13768 
4.30713 43.0883 3.13768 2.06206 43.826 3.13768 -39.3723 -24.0707 11.4246 
-31.0854 -27.3439 11.4246 -22.7986 -30.9066 11.4246 -14.5117 -29.4334 11.4246 
-6.22481 -25.6702 11.4246 2.06206 -25.8715 11.4246 10.3489 -26.3934 11.4246 
18.6358 -25.5535 11.4246 26.9227 -25.0936 11.4246 35.2096 -25.4715 11.4246 
43.4964 -23.7244 11.4246 -40.5794 -23.2067 11.4246 -47.6592 -18.2893 11.4246 
-39.3723 -23.2067 11.836 -31.0854 -23.2067 13.2783 -22.7986 -23.2067 13.9448 
-14.5117 -23.2067 13.3382 -6.22481 -23.2067 12.1195 2.06206 -23.2067 12.5157 
10.3489 -23.2067 13.2121 18.6358 -23.2067 12.8841 26.9227 -23.2067 12.7079 
35.2096 -23.2067 13.0519 44.7513 -23.2067 11.4246 43.4964 -23.2067 11.838 
51.7833 -18.7092 11.4246 -50.5899 -14.9198 11.4246 -55.9461 -7.05705 11.4246 
-47.6592 -14.9198 13.2271 -39.3723 -14.9198 16.6535 -31.0854 -14.9198 17.283 
-22.7986 -14.9198 17.5459 -14.5117 -14.9198 16.7394 -6.22481 -14.9198 15.3196 
2.06206 -14.9198 16.988 10.3489 -14.9198 17.1656 18.6358 -14.9198 15.8491 
26.9227 -14.9198 16.6356 35.2096 -14.9198 16.8732 43.4964 -14.9198 16.1619 
55.2601 -14.9198 11.4246 51.7833 -14.9198 13.2821 60.0702 -8.70408 11.4246 
[...]
POINT_DATA 530
SCALARS ImageScalars float
LOOKUP_TABLE default
0 0 0 0 0 0 0 0 0 
0 0 0 0 0 0 0 0 0 
0 0 0 0 0 0 0 0 0 
0 0 0 0 0 0 0 0 0 
0 0 0 0 0 0 0 0 0 
0 0 0 0 0 0 0 0 0 
0 0 0 0 0 0 0 0 0 
0 0 0 0 0 0 0 0 0 
0 0 0 0 0 0 0 0 0 
0 0 0 0 0 0 0 0 0 
0 0 0 0 0 0 0 0 0 
0 0 0 0 0 0 0 0 0 
0 0 0 0 0 0 0 0 0 
0 0 0 0 0 0 0 0 0 
0 0 0 0 0 0 0 0 0 
0 0 0 0 0 0 0 0 0 
0 0 0 0 0 0 0 0 0 
0 0 0 0 0 0 0 0 0 
0 0 0 0 0 0 0 0 0 
0 0 0 0 0 0 0 0 0 
0 0 0 0 0 0 0 0 0 
0 0 0 0 0 0 0 0 0 
0 0 0 0 0 0 0 0 0 
0 0 0 0 0 0 0 0 0 
0 0 0 0 0 0 0 0 0 
0 0 0 0 0 0 0 0 0 
0 0 0 0 0 0 0 0 0 
0 0 0 0 0 0 0 0 0 
0 0 0 0 0 0 0 0 0 
0 0 0 0 0 0 0 0 0 
0 0 0 0 0 0 0 0 0 
0 0 0 0 0 0 0 0 0 
0 0 0 0 0 0 0 0 0 
0 0 0 0 0 0 0 0 0 
0 0 0 0 0 0 0 0 0 
0 0 0 0 0 0 0 0 0 
0 0 0 0 0 0 0 0 0 
0 0 0 0 0 0 0 0 0 
0 0 0 0 0 0 0 0 0 
0 0 0 0 0 0 0 0 0 
0 0 0 0 0 0 0 0 0 
0 0 0 0 0 0 0 0 0 
0 0 0 0 0 0 0 0 0 
0 0 0 0 0 0 0 0 0 
0 0 0 0 0 0 0 0 0 
0 0 0 0 0 0 0 0 0 
0 0 0 0 0 0 0 0 0 
0 0 0 0 0 0 0 0 0 
0 0 0 0 0 0 0 0 0 
0 0 0 0 0 0 0 0 0 
0 0 0 0 0 0 0 0 0 
0 0 0 0 0 0 0 0 0 
0 0 0 0 0 0 0 0 0 
0 0 0 0 0 0 0 0 0 
0 0 0 0 0 0 0 0 0 
0 0 0 0 0 0 0 0 0 
0 0 0 0 0 0 0 0 0 
0 0 0 0 0 0 0 0 0 
0 0 0 0 0 0 0 0 
NORMALS Normals float
0.0673383 0.130187 0.9892 -0.00753936 -0.0426593 0.999061 0.255654 0.597646 0.759908 
0.0568818 0.474932 0.878182 -0.0804513 0.479924 0.873614 -0.19191 0.522328 0.83087 
-0.321155 0.710878 0.625709 0.331022 0.435032 0.83736 0.070207 0.141665 0.987422 
0.111237 0.322659 0.939956 -0.00608857 0.211345 0.977392 -0.0770253 0.186433 0.979444 
-0.0808519 0.206395 0.975123 -0.113876 0.330137 0.937039 -0.177447 0.495531 0.850271 
-0.12534 0.676221 0.725958 -0.0811723 0.785616 0.613366 -0.123925 0.823587 0.553486 
0.431717 0.336626 0.836841 0.0799292 0.134581 0.987674 0.21625 0.181635 0.959294 
0.0236769 0.112493 0.99337 -0.0920926 0.0647984 0.99364 -0.10913 0.0498079 0.992779 
-0.0350812 0.00507435 0.999372 -0.0114628 0.0468091 0.998838 -0.0627475 0.109678 0.991985 
0.00144927 0.173502 0.984832 0.021523 0.23245 0.97237 -0.0157061 0.358058 0.933567 
-0.161518 0.364601 0.917048 -0.393545 0.456214 0.798117 0.671055 0.243448 0.700299 
0.281506 0.161576 0.945858 0.0125064 -0.0221085 0.999677 0.108345 0.0755654 0.991237 
-0.0185418 -0.0469091 0.998727 -0.0149694 -0.0485407 0.998709 -0.0887674 -0.0694284 0.99363 
-0.144715 -0.0222379 0.989223 -0.0767237 0.0075413 0.997024 -0.00214442 -0.0318487 0.99949 
-0.0232401 -0.065298 0.997595 0.0648221 -0.0801487 0.994673 0.15023 -0.0148654 0.988539 
0.0365123 0.0949508 0.994812 -0.110004 0.104124 0.988462 -0.250885 0.242434 0.937167 
-0.561492 0.353171 0.748329 0.570717 0.0389893 0.820221 0.283275 0.018693 0.958856 
0.0260202 -0.0396852 0.998873 -0.0763181 -0.0924611 0.992787 -0.0735834 -0.129479 0.988848 
-0.0304975 -0.0295324 0.999098 -0.0458675 0.0580715 0.997258 -0.0844513 -0.106974 0.990669 
-0.123243 0.080091 0.989139 0.0674762 -0.119569 0.99053 0.195801 -0.0782956 0.977513 
0.103748 -0.0987847 0.989686 0.0053728 -0.0350831 0.99937 -0.0730704 -0.00215928 0.997324 
-0.407631 0.0487685 0.911843 0.512205 -0.0263524 0.858459 0.266998 -0.106426 0.957802 
0.0011033 -0.121751 0.99256 -0.0929901 -0.118514 0.988589 -0.0342527 -0.111593 0.993164 
0.0454128 -0.00988843 0.998919 -0.164791 0.0242734 0.98603 0.0234127 -0.139258 0.989979 
-0.0820448 -0.010505 0.996573 -0.0648972 -0.221591 0.972978 0.169471 -0.20752 0.963439 
0.0762125 -0.197109 0.977415 -0.0184812 -0.188507 0.981898 -0.153563 -0.220346 0.963258 
-0.451129 -0.296942 0.84161 0.54303 -0.249634 0.801749 0.186126 -0.231466 0.954872 
0.0200457 -0.164064 0.986246 -0.0596993 -0.140994 0.988209 0.0265487 -0.098134 0.994819 
0.106194 -0.115536 0.98761 -0.161716 -0.0848934 0.983179 -0.205172 -0.0157961 0.978599 
-0.267844 -0.604329 0.750364 0.0386692 -0.431635 0.901219 0.196199 -0.380741 0.903627 
0.117803 -0.349964 0.929327 -0.0177264 -0.327664 0.944628 -0.22631 -0.275738 0.934212 
0.296436 -0.36296 0.883394 0.0838635 -0.303426 0.949157 -0.0289754 -0.240123 0.97031 
0.0065352 -0.169738 0.985468 0.0675661 -0.220963 0.972939 -0.0824752 -0.262185 0.961487 
-0.439244 -0.284004 0.852295 0.0595632 -0.517346 0.853701 -0.186655 -0.551818 0.812808 
0.191986 -0.492574 0.84883 0.0912401 -0.41533 0.905084 0.054358 -0.310386 0.949055 
-0.00897564 -0.315557 0.948864 -0.188869 -0.380862 0.905137 0.258773 0.725582 0.637626 
0.102365 0.731792 0.673797 0.131564 0.98883 0.0700488 -0.050167 0.696449 0.715851 
-0.103289 0.988703 0.10862 -0.233662 0.668837 0.705733 -0.321372 0.711162 0.625275 
0.380891 0.687184 0.618627 0.438738 0.663056 0.606519 0.532093 0.781759 0.325162 
-0.321388 0.711299 0.625111 -0.297205 0.717807 0.629621 -0.16885 0.761208 0.62614 
-0.0911965 0.831032 0.548697 -0.124086 0.825879 0.550025 0.603794 0.560246 0.56706 
0.608171 0.555191 0.567354 0.621597 0.573815 0.533248 -0.126188 0.826593 0.548471 
-0.181647 0.823017 0.538189 -0.208722 0.928887 0.305949 -0.419841 0.676043 0.605557 
0.724684 0.400009 0.561093 0.745061 0.344235 0.571303 0.842212 0.495979 0.211384 
-0.537067 0.555017 0.635229 -0.597868 0.47431 0.646207 -0.661342 0.684235 0.307325 
0.746778 0.292701 0.5972 -0.656758 0.341211 0.672491 0.721714 0.102195 0.684606 
-0.784318 0.100831 0.61211 -0.937025 0.13092 0.323796 0.686201 -0.0531619 0.725467 
0.983266 0.0144314 0.181602 -0.644087 -0.224344 0.731315 -0.493132 -0.310031 0.812836 
-0.938803 -0.151281 0.309457 0.641172 -0.274887 0.716475 0.591755 -0.355132 0.723677 
-0.320765 -0.577213 0.750956 0.0449212 -0.429169 0.902107 0.195052 -0.419108 0.886737 
0.119617 -0.483686 0.867029 -0.479988 -0.311349 0.820166 -0.502404 -0.316829 0.804493 
0.516944 -0.416426 0.747903 0.665555 -0.458883 0.588611 0.355036 -0.508658 0.784357 
-0.467669 -0.349513 0.811866 -0.430397 -0.36979 0.823416 -0.318354 -0.306385 0.897095 
0.094116 -0.310802 0.945804 0.181302 -0.441084 0.878962 0.095569 -0.502723 0.859149 
0.11802 -0.490521 0.8634 0.0537748 -0.52972 0.846466 -0.270605 -0.549704 0.790316 
-0.192669 -0.585018 0.787803 -0.573644 -0.562912 0.595032 0.231424 -0.513366 0.826377 
0.41666 -0.642113 0.643495 0.198117 -0.513906 0.834656 0.120804 -0.473977 0.872211 
0.0868838 -0.413024 0.906566 -0.0167572 -0.439472 0.8981 -0.323894 -0.392653 0.860765 
-0.197401 -0.44438 0.873819 -0.388235 -0.389191 0.835346 -0.246043 -0.284598 0.926535 
-0.045312 -0.34564 0.937272 0.0413783 -0.474198 0.879445 -0.0146044 -0.568508 0.822548 
-0.171977 -0.699411 0.69372 0.372067 -0.789297 0.488442 0.237513 -0.666049 0.707082 
0.116961 -0.509592 0.852429 -0.0228319 -0.507989 0.861061 -0.204451 -0.527553 0.824553 
-0.350383 -0.51676 0.781147 0.00823874 -0.835567 0.549327 0.125999 0.991986 -0.00936766 
-0.109516 0.993837 -0.0171823 0.571646 0.819745 -0.0352094 0.188882 0.98187 -0.0159596 
0.379033 0.924932 -0.0288779 0.13329 0.985932 -0.100852 -0.169332 0.985372 -0.0192268 
-0.106537 0.98944 -0.0982731 -0.302265 0.95311 -0.0147199 -0.430126 0.902769 -0.000885477 
0.609984 0.790162 -0.0597001 0.697241 0.714207 -0.0613384 0.575722 0.757345 -0.308178 
-0.405552 0.914069 0.00240726 -0.392756 0.919623 0.00612813 -0.232454 0.972101 0.0313736 
-0.0959199 0.994394 0.0444885 -0.0927655 0.994903 0.0395192 -0.246963 0.968042 0.0436367 
0.739098 0.671626 -0.0514954 0.831848 0.554988 -0.00420058 0.638432 0.645936 -0.418535 
-0.355509 0.934513 0.0172779 -0.23171 0.902276 -0.363605 -0.429613 0.902969 0.00895262 
-0.663257 0.748252 0.0144355 0.85304 0.521721 0.0113876 0.813543 0.544587 -0.203895 
-0.710761 0.703363 0.00994504 -0.670863 0.703018 -0.236028 0.933874 0.356289 0.0306012 
-0.919415 0.389209 0.0565004 -0.959505 0.275496 0.0587508 0.980677 0.175176 0.087097 
0.990433 0.0544441 0.126802 -0.98709 0.139087 0.0794251 -0.903284 0.17484 -0.391803 
0.989762 0.0193426 0.141411 0.986816 -0.0586437 0.150848 0.997087 0.0357667 -0.0673622 
-0.986501 -0.12684 0.103572 -0.941447 -0.279196 0.189016 -0.954071 -0.0692359 -0.291471 
0.957912 -0.225509 0.177624 -0.907077 -0.346676 0.238804 0.836157 -0.471474 0.280274 
0.707275 -0.632387 0.315991 -0.328184 -0.79772 0.505903 -0.735243 -0.585744 0.34106 
-0.574108 -0.719839 0.390169 0.636948 -0.692858 0.338002 0.493449 -0.796568 0.349268 
-0.213879 -0.521551 0.825978 -0.0624545 -0.544377 0.836513 -0.0630982 -0.599749 0.797697 
-0.10826 -0.697661 0.708201 -0.30011 -0.780375 0.548587 -0.219009 -0.734306 0.642519 
-0.370564 -0.820921 0.434478 0.415705 -0.811486 0.410707 0.397476 -0.808922 0.433195 
0.317023 -0.803673 0.503593 0.209206 -0.847844 0.487231 -0.193736 -0.78902 0.583021 
-0.244274 -0.560609 0.791232 -0.342908 -0.649778 0.678382 -0.220215 -0.594756 0.773156 
-0.110197 -0.712759 0.692698 -0.175619 -0.836955 0.518328 -0.214535 -0.955885 0.200645 
0.0533361 -0.849306 0.525199 0.22636 -0.914233 0.336064 -0.0392037 -0.835434 0.548191 
0.0106638 -0.843398 0.537184 -0.180364 -0.8581 0.480763 -0.28098 -0.921546 0.267962 
0.291605 0.735583 -0.61146 0.105728 0.723935 -0.681718 -0.0520297 0.763815 -0.643335 
-0.215685 0.724433 -0.654734 -0.345651 0.736789 -0.581092 0.416404 0.66176 -0.623444 
0.489339 0.619298 -0.614017 0.309108 0.617184 -0.723558 0.0697261 0.572355 -0.817036 
-0.0729154 0.522017 -0.849812 -0.17729 0.590202 -0.787546 -0.345609 0.73752 -0.580189 
-0.344404 0.734473 -0.584753 -0.274196 0.798504 -0.535918 -0.147241 0.870496 -0.469635 
-0.0809532 0.905572 -0.416396 -0.118639 0.901917 -0.415297 0.57266 0.610288 -0.547366 
0.591088 0.603167 -0.535542 0.354818 0.528843 -0.770993 0.180318 0.406943 -0.895479 
0.06641 0.336442 -0.93936 -0.082143 0.334456 -0.938825 -0.101327 0.33631 -0.936284 
-0.0912312 0.47102 -0.877392 -0.123486 0.656262 -0.744359 -0.103517 0.78601 -0.609485 
-0.0628386 0.837432 -0.542917 -0.202177 0.883346 -0.422875 -0.113034 0.873492 -0.473535 
-0.225772 0.874276 -0.429731 -0.426809 0.79865 -0.424255 0.694717 0.531918 -0.484181 
0.737471 0.501534 -0.452329 0.463628 0.509907 -0.724599 -0.607308 0.662652 -0.438257 
-0.397154 0.572813 -0.717046 -0.657359 0.610805 -0.441357 0.804629 0.421932 -0.417786 
0.677077 0.433134 -0.594947 -0.803105 0.420285 -0.422353 -0.563979 0.410212 -0.716696 
0.906135 0.250025 -0.341185 -0.877449 0.175212 -0.446524 0.960513 0.0507274 -0.27357 
-0.909582 -0.0436402 -0.413227 0.950083 -0.184954 -0.251267 -0.913569 -0.244219 -0.325192 
0.900458 -0.39699 -0.177691 0.764137 -0.633536 -0.121354 -0.828234 -0.489318 -0.273124 
-0.710103 -0.675437 -0.198842 -0.68152 -0.452406 -0.575204 0.734186 -0.669631 -0.112093 
0.578442 -0.815179 -0.0297971 -0.330606 -0.942487 0.0491759 -0.606341 -0.79139 -0.077801 
-0.521001 -0.853479 -0.0114725 -0.540451 -0.662852 -0.518209 0.536281 -0.844039 -0.000876993 
0.475834 -0.879525 0.00423644 0.362716 -0.930183 0.056539 -0.283723 -0.90253 0.323946 
-0.21988 -0.92415 0.31241 -0.216745 -0.955432 0.200426 -0.247451 -0.962163 0.114064 
-0.221697 -0.965931 0.133522 -0.264677 -0.962085 -0.065862 0.308933 -0.949654 0.0521382 
0.238949 -0.969623 0.0523028 0.0508751 -0.995822 0.0758349 -0.139148 -0.983863 0.112483 
-0.2703 -0.940182 0.207353 -0.260408 -0.949026 0.177585 0.231787 0.454663 -0.859975 
0.149686 0.404802 -0.902069 0.062004 0.33316 -0.940829 -0.0904559 0.326064 -0.94101 
-0.0600471 0.303032 -0.951087 0.0190923 0.406945 -0.913253 -0.0180796 0.51253 -0.858479 
-0.0419216 0.523384 -0.851065 -0.00113209 0.563352 -0.826216 -0.0539979 0.614537 -0.787038 
-0.204446 0.606951 -0.767992 0.252383 0.458453 -0.852129 0.425105 0.457968 -0.780738 
0.221784 0.452431 -0.863781 0.115216 0.411883 -0.903923 0.00210226 0.343541 -0.939135 
-0.108216 0.323246 -0.940107 -0.0468445 0.296429 -0.953905 0.0607865 0.403574 -0.912926 
0.0191385 0.46209 -0.886627 -0.0266777 0.450924 -0.892164 0.0090853 0.511469 -0.859253 
-0.040681 0.542241 -0.839238 -0.23169 0.584378 -0.777703 -0.204494 0.590999 -0.780322 
-0.392006 0.424189 -0.81633 0.485152 0.426631 -0.763291 0.653246 0.288986 -0.699826 
0.422557 0.425029 -0.800497 0.20123 0.455983 -0.866941 0.0468858 0.446824 -0.893393 
-0.0285603 0.425266 -0.904618 -0.116042 0.416918 -0.901506 0.006582 0.411588 -0.911346 
0.102856 0.387008 -0.916322 -0.0699514 0.370133 -0.926342 -0.0262794 0.322779 -0.946109 
0.0597065 0.350607 -0.934618 -0.0280885 0.345058 -0.938161 -0.188578 0.328258 -0.925573 
-0.433195 0.370423 -0.821662 -0.394043 0.353605 -0.848348 -0.547261 0.242948 -0.800926 
0.65952 0.281868 -0.696838 0.654489 0.283379 -0.700957 0.411991 0.333947 -0.847787 
-0.0927008 0.473105 -0.876115 0.0412508 0.326336 -0.944353 -0.0429281 0.305897 -0.951096 
0.0430164 0.23663 -0.970647 -0.0454434 0.203874 -0.977942 -0.16891 0.163178 -0.97203 
-0.359059 0.159865 -0.919521 -0.590875 0.176809 -0.78715 -0.561473 0.188318 -0.805782 
0.753403 0.106955 -0.648802 0.672652 0.122617 -0.729729 -0.222443 0.0402789 -0.974113 
-0.365608 -0.0189177 -0.930577 -0.63326 0.00105117 -0.773939 -0.590076 0.00401256 -0.807338 
0.770541 -0.104978 -0.628686 0.703309 -0.0901842 -0.705141 -0.249674 -0.0843799 -0.964647 
-0.381086 -0.0763566 -0.921381 -0.606557 -0.188095 -0.772469 -0.591867 -0.241332 -0.769059 
-0.570042 -0.182306 -0.801134 0.75969 -0.315372 -0.568692 0.749065 -0.357896 -0.557505 
0.740339 -0.308821 -0.597099 0.459446 -0.275662 -0.844346 -0.170675 -0.186292 -0.967556 
-0.232765 -0.202188 -0.951283 -0.554936 -0.366431 -0.746843 -0.503128 -0.516792 -0.692668 
-0.453847 -0.302465 -0.838175 0.644936 -0.560318 -0.519712 0.600235 -0.630104 -0.492632 
0.579862 -0.518087 -0.628765 -0.241409 -0.314886 -0.917915 -0.324929 -0.765891 -0.554826 
-0.200726 -0.464006 -0.862791 -0.467589 -0.589837 -0.658371 -0.373011 -0.706655 -0.601251 
-0.354484 -0.539688 -0.763595 0.488455 -0.76282 -0.423695 0.464422 -0.777666 -0.42373 
0.459953 -0.748314 -0.477985 0.376707 -0.844698 -0.380233 0.324764 -0.599245 -0.731733 
-0.240451 -0.947793 -0.209457 -0.302009 -0.912859 -0.274736 -0.329152 -0.642168 -0.6923 
-0.323693 -0.820863 -0.470539 -0.318128 -0.861151 -0.396501 -0.332652 -0.780315 -0.529577 
0.244152 -0.89506 -0.373173 0.237327 -0.896791 -0.37342 0.2371 -0.892081 -0.384675 
0.0782457 -0.927725 -0.364972 0.0907351 -0.865172 -0.493198 -0.0814568 -0.947821 -0.30822 
-0.0682514 -0.886997 -0.456703 -0.179911 -0.947408 -0.264671 -0.172426 -0.946021 -0.274433 
-0.170955 -0.939932 -0.295468 0.207379 0.332052 -0.920182 0.0462325 0.376625 -0.925212 
-0.0293504 0.359866 -0.932542 -0.114943 0.34362 -0.932048 -0.0322648 0.279075 -0.959727 
0.261478 0.307536 -0.914905 0.36682 0.183251 -0.912065 0.210956 0.295786 -0.93167 
0.0468968 0.316323 -0.947492 -0.0336203 0.295453 -0.954766 -0.10113 0.423517 -0.900226 
-0.10822 0.311018 -0.944223 -0.0820177 0.456723 -0.88582 -0.00941239 0.284893 -0.958513 
0.0143936 0.309968 -0.950638 -0.0303723 0.276773 -0.960455 -0.0268924 0.269747 -0.962556 
-0.0543417 0.246294 -0.96767 0.009625 0.187249 -0.982265 -0.07106 0.145337 -0.986827 
0.380581 0.158822 -0.911007 0.360349 0.159148 -0.919141 0.177325 0.146298 -0.973218 
0.0451682 0.131566 -0.990278 -0.0355866 0.117988 -0.992377 0.0679497 0.118783 -0.990592 
0.0383524 0.219218 -0.974922 -0.136774 0.208222 -0.968471 -0.111858 0.130375 -0.985135 
-0.0613264 0.166356 -0.984157 -0.048169 0.102055 -0.993612 -0.152932 0.0474235 -0.987098 
-0.112138 0.0503563 -0.992416 0.457526 -0.0697194 -0.886459 0.436544 -0.153876 -0.886426 
0.421098 -0.0637111 -0.904775 0.18255 0.0107305 -0.983138 0.0264248 0.0343873 -0.999059 
-0.0488397 0.0695818 -0.99638 0.00103589 0.0724186 -0.997374 -0.00161983 -0.0578226 -0.998326 
-0.0672157 0.011376 -0.997674 -0.0676391 0.0633241 -0.995698 -0.0799665 0.0471627 -0.995681 
-0.0774666 -0.0267621 -0.996636 -0.171212 -0.0698074 -0.982758 -0.137532 -0.120865 -0.983095 
-0.106535 -0.0592608 -0.992541 0.399584 -0.245934 -0.883091 0.275343 -0.17312 -0.94563 
0.102541 -0.0826916 -0.991286 0.000688405 0.0196349 -0.999807 -0.055462 0.0461698 -0.997393 
-0.0282908 0.00271016 -0.999596 -0.0122094 0.0364894 -0.999259 -0.080145 0.0546105 -0.995286 
-0.149317 -0.0199336 -0.988588 -0.164439 -0.151449 -0.974691 -0.187092 -0.189121 -0.963966 
-0.158882 -0.121258 -0.979823 0.380131 -0.384379 -0.841281 0.374381 -0.394974 -0.838948 
0.367738 -0.378896 -0.849238 0.280162 -0.486442 -0.827577 0.199129 -0.26187 -0.944337 
0.0810239 -0.201292 -0.976174 -0.0140014 -0.133518 -0.990947 -0.0107793 -0.0869274 -0.996156 
-0.014185 -0.0884286 -0.995982 -0.125012 -0.128046 -0.983858 -0.232741 -0.269467 -0.934462 
-0.278445 -0.360025 -0.890421 -0.245243 -0.221094 -0.943914 0.214684 -0.525014 -0.823572 
0.150319 -0.527107 -0.836398 0.136987 -0.485707 -0.863321 0.0636697 -0.512105 -0.85656 
0.0472866 -0.404179 -0.913457 -0.0113543 -0.519698 -0.854274 0.00986024 -0.391285 -0.920217 
-0.0733045 -0.563435 -0.822902 -0.049105 -0.448111 -0.892628 -0.24 -0.519443 -0.820109 
-0.208666 -0.558195 -0.803042 -0.208689 -0.505841 -0.837003 
