# vtk DataFile Version 4.2
vtk output
ASCII
DATASET POLYDATA
POINTS 548 float
-29.6139 -41.1801 -10.3331 -22.2275 -41.1801 -10.6125 -14.841 -41.1801 -11.5355 
-7.45459 -41.1801 -12.2993 -0.0681404 -41.1801 -12.3092 7.31831 -41.1801 -11.9409 
14.7048 -41.1801 -11.0103 -37.0004 -33.7936 -10.8033 -29.6139 -33.7936 -14.4768 
-22.2275 -33.7936 -13.9331 -14.841 -33.7936 -15.068 -7.45459 -33.7936 -14.859 
-0.0681404 -33.7936 -14.6073 7.31831 -33.7936 -14.7123 14.7048 -33.7936 -13.808 
22.0912 -33.7936 -13.387 29.4777 -33.7936 -11.4348 -44.3868 -26.4072 -11.2698 
-37.0004 -26.4072 -14.1129 -29.6139 -26.4072 -14.8528 -22.2275 -26.4072 -15.1313 
-14.841 -26.4072 -15.6019 -7.45459 -26.4072 -15.2684 -0.0681404 -26.4072 -14.7289 
7.31831 -26.4072 -14.6787 14.7048 -26.4072 -14.7884 22.0912 -26.4072 -14.9614 
29.4777 -26.4072 -13.9203 36.8641 -26.4072 -11.9236 -51.7733 -19.0207 -11.1577 
-44.3868 -19.0207 -14.6956 -37.0004 -19.0207 -15.121 -29.6139 -19.0207 -15.4497 
-22.2275 -19.0207 -15.3431 -14.841 -19.0207 -14.9803 -7.45459 -19.0207 -14.7598 
-0.0681404 -19.0207 -14.0305 7.31831 -19.0207 -13.9338 14.7048 -19.0207 -15.0421 
22.0912 -19.0207 -15.5682 29.4777 -19.0207 -15.0613 36.8641 -19.0207 -13.5814 
-51.7733 -11.6343 -11.7398 -44.3868 -11.6343 -15.1607 -37.0004 -11.6343 -16.4782 
-29.6139 -11.6343 -15.8904 -22.2275 -11.6343 -14.8688 -14.841 -11.6343 -14.1445 
-7.45459 -11.6343 -15.1177 -0.0681404 -11.6343 -14.3532 7.31831 -11.6343 -14.5112 
14.7048 -11.6343 -15.0434 22.0912 -11.6343 -14.9039 29.4777 -11.6343 -14.7549 
36.8641 -11.6343 -13.8927 44.2505 -11.6343 -11.6104 -51.7733 -4.24781 -12.7515 
-44.3868 -4.24781 -15.1408 -37.0004 -4.24781 -16.166 -29.6139 -4.24781 -16.2015 
-22.2275 -4.24781 -15.1267 -14.841 -4.24781 -14.4163 -7.45459 -4.24781 -17.4812 
-0.0681404 -4.24781 -14.0524 7.31831 -4.24781 -17.4852 14.7048 -4.24781 -14.6001 
22.0912 -4.24781 -14.0328 29.4777 -4.24781 -14.2146 36.8641 -4.24781 -13.8087 
44.2505 -4.24781 -12.52 51.637 -4.24781 -10.3772 -51.7733 3.13864 -12.3975 
-44.3868 3.13864 -15.0439 -37.0004 3.13864 -16.1508 -29.6139 3.13864 -16.2474 
-22.2275 3.13864 -15.2533 -14.841 3.13864 -13.9512 -7.45459 3.13864 -16.7651 
-0.0681404 3.13864 -13.6254 7.31831 3.13864 -16.8302 14.7048 3.13864 -14.3758 
22.0912 3.13864 -13.9638 29.4777 3.13864 -14.3121 36.8641 3.13864 -13.7935 
44.2505 3.13864 -12.8086 51.637 3.13864 -10.8724 -51.7733 10.5251 -11.1799 
-44.3868 10.5251 -14.7918 -37.0004 10.5251 -16.5342 -29.6139 10.5251 -16.2072 
-22.2275 10.5251 -15.5905 -14.841 10.5251 -14.65 -7.45459 10.5251 -15.1488 
-0.0681404 10.5251 -16.2109 7.31831 10.5251 -14.9319 14.7048 10.5251 -13.9278 
22.0912 10.5251 -14.0916 29.4777 10.5251 -14.2667 36.8641 10.5251 -13.7357 
44.2505 10.5251 -12.4766 51.637 10.5251 -10.4251 -44.3868 17.9115 -13.9517 
-37.0004 17.9115 -15.4783 -29.6139 17.9115 -15.9933 -22.2275 17.9115 -15.805 
-14.841 17.9115 -15.4176 -7.45459 17.9115 -14.7736 -0.0681404 17.9115 -14.8566 
7.31831 17.9115 -13.777 14.7048 17.9115 -13.4976 22.0912 17.9115 -13.8926 
29.4777 17.9115 -13.885 36.8641 17.9115 -12.8685 44.2505 17.9115 -11.1354 
-44.3868 25.298 -10.5596 -37.0004 25.298 -14.1768 -29.6139 25.298 -15.7201 
-22.2275 25.298 -15.7403 -14.841 25.298 -16.1184 -7.45459 25.298 -15.5918 
-0.0681404 25.298 -15.3755 7.31831 25.298 -14.6318 14.7048 25.298 -13.3878 
22.0912 25.298 -13.0118 29.4777 25.298 -12.7091 36.8641 25.298 -10.7731 
-37.0004 32.6844 -11.0176 -29.6139 32.6844 -13.8613 -22.2275 32.6844 -14.8729 
-14.841 32.6844 -15.227 -7.45459 32.6844 -15.3242 -0.0681404 32.6844 -15.1012 
7.31831 32.6844 -14.2735 14.7048 32.6844 -12.5915 22.0912 32.6844 -11.2851 
-29.6139 40.0709 -11.1723 -22.2275 40.0709 -12.3627 -14.841 40.0709 -13.3915 
-7.45459 40.0709 -13.7788 -0.0681404 40.0709 -13.4533 7.31831 40.0709 -11.9274 
-29.6139 -41.2063 -10.3098 -22.2275 -41.4879 -10.3098 -14.841 -42.6929 -10.3098 
-7.45459 -43.8765 -10.3098 -0.0681404 -44.2248 -10.3098 7.31831 -44.0298 -10.3098 
14.7048 -42.0883 -10.3098 -29.6683 -41.1801 -10.3098 -37.0004 -34.6227 -10.3098 
17.0292 -41.1801 -10.3098 22.0912 -39.2791 -10.3098 22.0912 -41.1801 -8.68769 
29.4777 -35.7188 -10.3098 29.4777 -41.1801 -4.48565 -38.3422 -33.7936 -10.3098 
-44.3868 -28.7056 -10.3098 -44.3868 -33.7936 -6.0404 33.168 -33.7936 -10.3098 
36.8641 -30.8079 -10.3098 36.8641 -33.7936 -8.50486 -46.0546 -26.4072 -10.3098 
-51.7733 -20.7729 -10.3098 40.8941 -26.4072 -10.3098 44.2505 -26.4072 -8.47235 
-52.7446 -19.0207 -10.3098 44.2443 -19.0207 -10.3098 44.2505 -19.0029 -10.3098 
44.2505 -19.0207 -10.3064 51.637 -19.0207 -5.1591 -53.6803 -11.6343 -10.3098 
47.3299 -11.6343 -10.3098 51.637 -4.54417 -10.3098 51.637 -11.6343 -8.21478 
-55.0271 -4.24781 -10.3098 -59.1597 -4.24781 -3.52184 51.7323 -4.24781 -10.3098 
59.0234 -4.24781 -3.04992 -54.4536 3.13864 -10.3098 52.4599 3.13864 -10.3098 
59.0234 3.13864 -3.71649 -52.8489 10.5251 -10.3098 -51.7733 14.4743 -10.3098 
51.8119 10.5251 -10.3098 51.637 11.1737 -10.3098 59.0234 10.5251 -3.08461 
-50.4649 17.9115 -10.3098 -51.7733 17.9115 -8.81586 47.0064 17.9115 -10.3098 
44.2505 21.4946 -10.3098 51.637 17.9115 -8.6169 -44.7326 25.298 -10.3098 
-44.3868 25.8203 -10.3098 29.4777 30.3686 -10.3098 39.2973 25.298 -10.3098 
36.8641 26.392 -10.3098 44.2505 25.298 -9.22805 -38.2914 32.6844 -10.3098 
-37.0004 33.8971 -10.3098 14.7048 38.168 -10.3098 25.4888 32.6844 -10.3098 
22.0912 35.2067 -10.3098 29.4777 32.6844 -8.90883 36.8641 32.6844 -6.89637 
-31.3133 40.0709 -10.3098 -29.6139 41.0872 -10.3098 -22.2275 42.5809 -10.3098 
-14.841 45.1193 -10.3098 -7.45459 45.8416 -10.3098 -0.0681404 44.9212 -10.3098 
12.3042 40.0709 -10.3098 7.31831 42.5367 -10.3098 14.7048 40.0709 -9.25706 
22.0912 40.0709 -7.05503 -14.841 47.4573 -5.98862 -7.45459 47.4573 -6.97325 
-0.0681404 47.4573 -4.97145 -29.6139 -44.0127 -2.92338 -22.2275 -45.1969 -2.92338 
-14.841 -45.8892 -2.92338 -7.45459 -46.8998 -2.92338 -0.0681404 -47.8435 -2.92338 
7.31831 -48.5022 -2.92338 14.7048 -47.9026 -2.92338 22.0912 -45.5699 -2.92338 
29.4777 -41.9311 -2.92338 -44.3868 -35.4228 -2.92338 -36.4589 -41.1801 -2.92338 
-37.0004 -40.9378 -2.92338 30.7348 -41.1801 -2.92338 29.4777 -41.1801 3.25864 
36.8641 -37.1544 -2.92338 -46.1115 -33.7936 -2.92338 -44.3868 -33.7936 0.770005 
41.2229 -33.7936 -2.92338 44.2505 -31.0839 -2.92338 -51.6909 -26.4072 -2.92338 
-51.7733 -26.2736 -2.92338 48.5207 -26.4072 -2.92338 51.637 -21.8479 -2.92338 
-55.7612 -19.0207 -2.92338 53.4902 -19.0207 -2.92338 -58.3791 -11.6343 -2.92338 
-59.1597 -5.93229 -2.92338 56.5721 -11.6343 -2.92338 59.0234 -4.56197 -2.92338 
-59.3768 -4.24781 -2.92338 -59.1597 0.042604 -2.92338 -59.1597 -4.24781 -2.20644 
59.1219 -4.24781 -2.92338 -59.0037 3.13864 -2.92338 59.6349 3.13864 -2.92338 
-57.8072 10.5251 -2.92338 59.1465 10.5251 -2.92338 59.0234 10.9713 -2.92338 
-54.3726 17.9115 -2.92338 -51.7733 22.4199 -2.92338 56.8764 17.9115 -2.92338 
51.637 24.9501 -2.92338 -49.9284 25.298 -2.92338 -44.3868 32.5011 -2.92338 
51.3179 25.298 -2.92338 44.2505 31.207 -2.92338 51.637 25.298 -0.729377 
-44.2258 32.6844 -2.92338 -37.0004 39.6955 -2.92338 29.4777 39.7341 -2.92338 
41.9826 32.6844 -2.92338 36.8641 35.7242 -2.92338 -36.4959 40.0709 -2.92338 
-29.6139 44.6049 -2.92338 -22.2275 47.2011 -2.92338 7.31831 46.8567 -2.92338 
14.7048 45.0401 -2.92338 28.8191 40.0709 -2.92338 22.0912 42.7881 -2.92338 
-20.7963 47.4573 -2.92338 -14.841 48.4752 -2.92338 -14.841 47.4573 2.17705 
-7.45459 48.701 -2.92338 3.82214 47.4573 -2.92338 -0.0681404 48.0881 -2.92338 
-0.0681404 47.4573 0.0508738 -29.6139 -41.5006 4.46307 -22.2275 -42.5521 4.46307 
-14.841 -41.9876 4.46307 -7.45459 -43.2131 4.46307 -0.0681404 -44.896 4.46307 
7.31831 -46.6056 4.46307 14.7048 -46.3382 4.46307 22.0912 -43.6304 4.46307 
-30.3456 -41.1801 4.46307 -37.0004 -36.4264 4.46307 -29.6139 -41.1801 4.80718 
-22.2275 -41.1801 5.9994 -14.841 -41.1801 5.35248 -7.45459 -41.1801 6.28499 
-0.0681404 -41.1801 7.8621 7.31831 -41.1801 9.39586 14.7048 -41.1801 9.20235 
28.9815 -41.1801 4.46307 22.0912 -41.1801 6.98468 29.4777 -40.9962 4.46307 
36.8641 -36.7293 4.46307 -40.9161 -33.7936 4.46307 -44.3868 -29.8163 4.46307 
-37.0004 -33.7936 6.55519 -29.6139 -33.7936 9.36104 -22.2275 -33.7936 10.7711 
-14.841 -33.7936 10.9871 -7.45459 -33.7936 10.8344 -0.0681404 -33.7936 11.8357 
29.4777 -33.7936 10.9736 41.1274 -33.7936 4.46307 36.8641 -33.7936 8.57413 
44.2505 -31.3802 4.46307 -46.5044 -26.4072 4.46307 -51.7733 -20.3065 4.46307 
-44.3868 -26.4072 5.9495 -37.0004 -26.4072 10.2618 49.4503 -26.4072 4.46307 
44.2505 -26.4072 11.2269 51.637 -23.6449 4.46307 -52.423 -19.0207 4.46307 
-51.7733 -19.0207 5.09867 -44.3868 -19.0207 8.90595 54.7615 -19.0207 4.46307 
51.637 -19.0207 9.7891 -53.9361 -11.6343 4.46307 -51.7733 -11.6343 6.40964 
-44.3868 -11.6343 10.6684 57.9728 -11.6343 4.46307 59.0234 -8.90691 4.46307 
-56.1519 -4.24781 4.46307 -51.7733 -4.24781 8.90019 60.5898 -4.24781 4.46307 
59.0234 -4.24781 7.82508 -56.5704 3.13864 4.46307 -51.7733 3.13864 10.0986 
61.1816 3.13864 4.46307 59.0234 3.13864 9.11023 -55.2612 10.5251 4.46307 
-51.7733 10.5251 8.65757 60.4345 10.5251 4.46307 59.0234 15.2952 4.46307 
59.0234 10.5251 7.11796 -52.6607 17.9115 4.46307 -51.7733 19.4296 4.46307 
-51.7733 17.9115 5.57951 -44.3868 17.9115 10.6643 57.873 17.9115 4.46307 
-46.8563 25.298 4.46307 -44.3868 28.8837 4.46307 -44.3868 25.298 7.00414 
-37.0004 25.298 11.3891 44.2505 31.5185 4.46307 44.2505 25.298 10.4131 
52.2828 25.298 4.46307 51.637 25.9698 4.46307 51.637 25.298 5.40195 
-41.1669 32.6844 4.46307 -37.0004 36.96 4.46307 -37.0004 32.6844 7.98969 
-29.6139 32.6844 11.7227 29.4777 39.7182 4.46307 29.4777 32.6844 11.3193 
42.7784 32.6844 4.46307 36.8641 36.2191 4.46307 36.8641 32.6844 9.8099 
-33.1949 40.0709 4.46307 -29.6139 42.1429 4.46307 -29.6139 40.0709 6.84351 
-22.2275 45.4846 4.46307 -22.2275 40.0709 9.72164 -14.841 46.8625 4.46307 
-14.841 40.0709 11.5329 -7.45459 40.0709 11.3102 -0.0681404 46.2254 4.46307 
-0.0681404 40.0709 10.4381 7.31831 45.362 4.46307 7.31831 40.0709 10.0493 
[...]
POINT_DATA 548
SCALARS ImageScalars float
LOOKUP_TABLE default
0 0 0 0 0 0 0 0 0 
0 0 0 0 0 0 0 0 0 
0 0 0 0 0 0 0 0 0 
0 0 0 0 0 0 0 0 0 
0 0 0 0 0 0 0 0 0 
0 0 0 0 0 0 0 0 0 
0 0 0 0 0 0 0 0 0 
0 0 0 0 0 0 0 0 0 
0 0 0 0 0 0 0 0 0 
0 0 0 0 0 0 0 0 0 
0 0 0 0 0 0 0 0 0 
0 0 0 0 0 0 0 0 0 
0 0 0 0 0 0 0 0 0 
0 0 0 0 0 0 0 0 0 
0 0 0 0 0 0 0 0 0 
0 0 0 0 0 0 0 0 0 
0 0 0 0 0 0 0 0 0 
0 0 0 0 0 0 0 0 0 
0 0 0 0 0 0 0 0 0 
0 0 0 0 0 0 0 0 0 
0 0 0 0 0 0 0 0 0 
0 0 0 0 0 0 0 0 0 
0 0 0 0 0 0 0 0 0 
0 0 0 0 0 0 0 0 0 
0 0 0 0 0 0 0 0 0 
0 0 0 0 0 0 0 0 0 
0 0 0 0 0 0 0 0 0 
0 0 0 0 0 0 0 0 0 
0 0 0 0 0 0 0 0 0 
0 0 0 0 0 0 0 0 0 
0 0 0 0 0 0 0 0 0 
0 0 0 0 0 0 0 0 0 
0 0 0 0 0 0 0 0 0 
0 0 0 0 0 0 0 0 0 
0 0 0 0 0 0 0 0 0 
0 0 0 0 0 0 0 0 0 
0 0 0 0 0 0 0 0 0 
0 0 0 0 0 0 0 0 0 
0 0 0 0 0 0 0 0 0 
0 0 0 0 0 0 0 0 0 
0 0 0 0 0 0 0 0 0 
0 0 0 0 0 0 0 0 0 
0 0 0 0 0 0 0 0 0 
0 0 0 0 0 0 0 0 0 
0 0 0 0 0 0 0 0 0 
0 0 0 0 0 0 0 0 0 
0 0 0 0 0 0 0 0 0 
0 0 0 0 0 0 0 0 0 
0 0 0 0 0 0 0 0 0 
0 0 0 0 0 0 0 0 0 
0 0 0 0 0 0 0 0 0 
0 0 0 0 0 0 0 0 0 
0 0 0 0 0 0 0 0 0 
0 0 0 0 0 0 0 0 0 
0 0 0 0 0 0 0 0 0 
0 0 0 0 0 0 0 0 0 
0 0 0 0 0 0 0 0 0 
0 0 0 0 0 0 0 0 0 
0 0 0 0 0 0 0 0 0 
0 0 0 0 0 0 0 0 0 
0 0 0 0 0 0 0 0 
NORMALS Normals float
0.232172 0.67642 0.698965 0.0838134 0.669701 0.737886 0.104311 0.612867 0.783271 
0.0482497 0.537147 0.842108 -0.0247345 0.480156 0.876834 -0.0726749 0.451123 0.889498 
-0.194343 0.521538 0.8308 0.344581 0.491409 0.799863 0.161228 0.303065 0.939232 
0.0433387 0.246927 0.968064 0.060522 0.252663 0.965659 -0.0306456 0.187318 0.981821 
-0.0109879 0.155289 0.987808 -0.0498339 0.181497 0.982128 -0.0880125 0.209252 0.973893 
-0.128155 0.340939 0.931309 -0.295102 0.431289 0.852587 0.441292 0.377512 0.814092 
0.195817 0.229954 0.953298 0.076106 0.0617925 0.995183 0.0488558 0.0891554 0.994819 
0.00931465 -0.00908235 0.999915 -0.0587623 -0.00544665 0.998257 -0.0398965 -0.0382859 0.99847 
0.00400965 -0.0488171 0.9988 0.0196768 0.0786311 0.99671 -0.0532121 0.14969 0.9873 
-0.185578 0.215894 0.958619 -0.324162 0.298044 0.897825 0.616492 0.248691 0.747055 
0.264051 0.225957 0.937667 0.046062 0.166529 0.98496 0.0141618 0.0683451 0.997561 
-0.0317669 -0.0177601 0.999337 -0.0392555 -0.0977374 0.994438 -0.0639414 -0.0121677 0.997879 
-0.0561006 -0.0279162 0.998035 0.0679137 -0.0147616 0.997582 0.106332 0.0174391 0.994178 
-0.00168933 -0.00191355 0.999997 -0.135736 0.0505853 0.989453 -0.286945 0.107944 0.951846 
0.575991 0.100992 0.811193 0.250209 0.0223838 0.967933 0.0641008 0.0693961 0.995528 
-0.106723 0.0505251 0.993004 -0.117462 -0.0147375 0.992968 0.0113834 -0.0395832 0.999151 
0.0207509 0.179019 0.983627 -0.0414083 0.00653131 0.999121 0.0501595 0.23647 0.970343 
0.0237709 -0.0261339 0.999376 -0.0196845 -0.104546 0.994325 -0.0661945 -0.0581028 0.996114 
-0.20282 0.0166408 0.979075 -0.338785 0.131172 0.931675 0.450754 0.0386451 0.891811 
0.197953 -0.00790741 0.98018 0.0680428 -0.0211724 0.997458 -0.0699008 0.0242721 0.997259 
-0.118587 0.026318 0.992595 0.149106 -0.0140381 0.988722 0.0118335 0.120235 0.992675 
-0.00209231 -0.0529498 0.998595 0.010912 0.15828 0.987334 -0.23039 -0.047827 0.971922 
-0.0212826 -0.0634389 0.997759 -0.0148632 -0.0299232 0.999442 -0.109026 -0.0065438 0.994017 
-0.24604 0.0776984 0.96614 -0.496582 0.152273 0.854529 0.484452 -0.0942739 0.869723 
0.219034 -0.0249603 0.975398 0.0775563 0.0234595 0.996712 -0.0608492 0.000393273 0.998147 
-0.155906 0.0313836 0.987273 0.0662425 0.0191922 0.997619 0.0499644 -0.159072 0.986002 
0.037191 0.177767 0.98337 -0.00506171 -0.162429 0.986707 -0.189095 -0.0465356 0.980855 
-0.00213408 0.00398676 0.99999 -0.0112545 0.00354653 0.99993 -0.0974239 -0.0049106 0.995231 
-0.217058 -0.00244183 0.976156 -0.471263 0.00293617 0.881988 0.605036 -0.169646 0.777915 
0.297707 -0.0582286 0.95288 0.109692 -0.0434311 0.993016 -0.0626436 -0.0171356 0.997889 
-0.104809 0.0371084 0.9938 -0.0335383 0.100416 0.99438 0.101619 -0.121576 0.987367 
-0.00745932 0.0313133 0.999482 -0.153278 -0.211431 0.965299 -0.0458926 -0.0580603 0.997258 
0.0228486 -0.00477102 0.999728 -0.0237559 -0.0280997 0.999323 -0.113533 -0.0611357 0.991651 
-0.243624 -0.109083 0.963716 -0.475127 -0.123579 0.871196 0.375128 -0.251211 0.892285 
0.116449 -0.16118 0.980031 0.0202788 -0.0319161 0.999285 -0.0401201 0.0104418 0.99914 
-0.0700127 0.0991723 0.992604 -0.0379339 0.0324692 0.998753 -0.0671416 -0.041323 0.996887 
-0.0919166 -0.00764767 0.995737 0.00782691 -0.0363639 0.999308 0.0262201 -0.0708055 0.997145 
-0.0691819 -0.111251 0.991381 -0.170121 -0.174699 0.969814 -0.240727 -0.196957 0.950399 
0.559405 -0.386947 0.733033 0.281395 -0.240478 0.928971 0.112163 -0.151474 0.982077 
0.0266811 -0.0594165 0.997877 -0.0102717 -0.0166011 0.999809 -0.0497973 0.0373765 0.99806 
-0.0641785 0.016791 0.997797 -0.133648 0.0324078 0.990499 -0.107304 -0.0574483 0.992565 
-0.0476417 -0.17973 0.982562 -0.129184 -0.285939 0.9495 -0.229422 -0.332083 0.914924 
0.438654 -0.478142 0.760896 0.211222 -0.292257 0.932723 0.0972824 -0.192113 0.976539 
0.0280536 -0.17876 0.983493 -0.0078793 -0.123138 0.992358 -0.0728484 -0.129541 0.988894 
-0.159285 -0.172058 0.972124 -0.207671 -0.223227 0.952388 -0.208275 -0.294123 0.932799 
0.308369 -0.603213 0.735556 0.158668 -0.507939 0.846654 0.0796409 -0.399692 0.913183 
0.00445054 -0.371072 0.928593 -0.12383 -0.396931 0.909457 -0.242824 -0.467715 0.84987 
0.232315 0.678204 0.697187 0.0854422 0.68961 0.719123 0.128171 0.697903 0.70463 
0.0778848 0.710588 0.699284 0.00975171 0.667273 0.744749 -0.0884902 0.601869 0.793677 
-0.208193 0.565368 0.798132 0.233933 0.677079 0.697739 0.354085 0.519153 0.777885 
-0.210314 0.561317 0.800432 -0.200705 0.561772 0.802577 -0.258414 0.694137 0.67186 
-0.328707 0.508545 0.795823 -0.488824 0.827112 0.277377 0.365535 0.507983 0.77996 
0.48256 0.420865 0.76812 0.649608 0.689853 0.31955 -0.383895 0.4928 0.78088 
-0.406405 0.454435 0.792669 -0.494337 0.604963 0.62422 0.529508 0.412811 0.741086 
0.655917 0.337203 0.675328 -0.445875 0.35518 0.82161 -0.584977 0.439442 0.681684 
0.673204 0.279461 0.684615 -0.474129 0.158045 0.866154 -0.47393 0.158007 0.86627 
-0.474343 0.158163 0.866015 -0.721184 0.451279 0.525586 0.696846 0.118233 0.707409 
-0.416845 0.176264 0.891724 -0.498608 0.15617 0.852644 -0.594882 0.243593 0.766014 
0.699831 0.0335653 0.713519 0.9974 0.0380093 0.061218 -0.49999 0.152815 0.852442 
-0.848377 0.188893 0.494546 0.676145 -0.105439 0.729184 -0.503822 0.00577855 0.863788 
-0.848565 0.00390577 0.529077 0.669059 -0.180665 0.720916 0.65687 -0.250181 0.711288 
-0.48185 -0.128321 0.866807 -0.486984 -0.149451 0.86053 -0.861527 -0.171856 0.47774 
0.631713 -0.330662 0.701143 0.736148 -0.367577 0.568307 -0.382513 -0.2689 0.883955 
-0.317556 -0.306946 0.897186 -0.623608 -0.402592 0.6701 0.578055 -0.393694 0.714743 
0.571586 -0.39704 0.718087 -0.202075 -0.432864 0.878518 -0.279131 -0.362714 0.889114 
-0.242168 -0.366096 0.898514 -0.403556 -0.460691 0.79051 0.476497 -0.49939 0.723575 
0.468877 -0.512955 0.719049 -0.242957 -0.468651 0.849316 -0.220813 -0.382297 0.897269 
-0.231603 -0.393654 0.889605 -0.261119 -0.533402 0.804549 -0.373139 -0.678494 0.632782 
0.371438 -0.628855 0.683064 0.31808 -0.651699 0.688559 0.205646 -0.634591 0.744986 
0.142994 -0.703486 0.696176 -0.011255 -0.74356 0.668575 -0.148143 -0.713728 0.684577 
-0.257897 -0.528543 0.808784 -0.267297 -0.602557 0.751983 -0.265326 -0.603545 0.751888 
-0.309769 -0.741151 0.5956 0.119632 -0.950025 0.288341 -0.0212053 -0.932308 0.361043 
-0.129235 -0.973216 0.190129 0.278796 0.960262 0.013035 0.123313 0.99222 0.0171513 
0.116195 0.992006 -0.0492114 0.135867 0.99035 -0.0273162 0.106567 0.994263 0.00920031 
0.010094 0.997111 0.0752861 -0.1965 0.967671 0.158116 -0.371319 0.914718 0.159417 
-0.500329 0.850523 0.162115 0.67976 0.732851 0.0292423 0.456643 0.889158 0.0295847 
0.472119 0.880961 0.0317899 -0.51535 0.840295 0.168281 -0.422397 0.864584 -0.272167 
-0.573669 0.790857 0.213188 0.715631 0.69821 0.0193947 0.679826 0.672856 -0.291722 
-0.628693 0.737395 0.24697 -0.676611 0.678561 0.285924 0.847231 0.531224 -0.000675162 
0.849006 0.528382 -0.00120648 -0.745163 0.577517 0.333475 -0.765732 0.513168 0.387703 
0.916439 0.399586 -0.02169 -0.791152 0.467907 0.393881 0.970306 0.24186 -0.00319349 
0.996202 0.0842623 0.0219524 -0.846269 0.298937 0.440982 -0.852015 0.195094 0.485807 
0.998799 0.0390273 0.0296276 0.997753 -0.0404406 0.053413 0.998678 0.0452044 -0.0244889 
-0.852864 0.189159 0.486665 0.992594 -0.0983341 0.0713302 -0.877048 0.00313651 0.480392 
0.948992 -0.30203 0.0905138 -0.866984 -0.171453 0.467914 -0.86371 -0.18606 0.468388 
0.885619 -0.45621 0.0868999 0.845295 -0.528863 0.0760313 -0.817588 -0.392309 0.421478 
-0.680635 -0.629091 0.375473 0.819792 -0.568265 0.0708183 0.744712 -0.664278 0.0643381 
-0.673123 -0.63839 0.373314 -0.550209 -0.765723 0.333073 -0.708666 -0.671819 0.215525 
0.741815 -0.667485 0.0646066 0.615255 -0.783788 0.0844852 -0.437385 -0.844607 0.308761 
-0.513744 -0.786965 0.341691 -0.446775 -0.824935 0.346229 0.606431 -0.791026 0.0807412 
0.456195 -0.886281 0.0799525 0.237371 -0.965525 0.10685 -0.198637 -0.97445 0.104836 
-0.265763 -0.934401 0.237204 -0.430297 -0.852088 0.297977 -0.343584 -0.90553 0.248928 
0.206915 -0.973577 0.0966087 0.0963372 -0.993379 0.0625826 0.106699 -0.955075 -0.276492 
-0.026798 -0.99743 0.0664426 -0.156328 -0.984998 0.073077 -0.11924 -0.991812 0.0457256 
-0.121568 -0.981619 -0.147125 0.270322 0.759184 -0.592086 0.0336551 0.809548 -0.586088 
0.0226763 0.771186 -0.636205 0.157211 0.735922 -0.658562 0.173126 0.784519 -0.595447 
0.0772446 0.863071 -0.49914 -0.164488 0.86573 -0.472711 -0.315134 0.814477 -0.487153 
0.291614 0.75247 -0.59055 0.429535 0.639724 -0.637379 0.268884 0.749569 -0.604853 
0.035767 0.746188 -0.664774 0.0128044 0.742499 -0.669724 0.137459 0.647818 -0.749291 
0.17367 0.613109 -0.770672 0.0796292 0.595837 -0.799148 -0.13169 0.619015 -0.77426 
-0.389165 0.844371 -0.368223 -0.245236 0.725576 -0.642961 -0.394245 0.846066 -0.358809 
-0.50533 0.804441 -0.312275 0.503453 0.570009 -0.649326 0.584775 0.456046 -0.670866 
0.385349 0.547383 -0.742885 0.217233 0.445973 -0.868284 0.0972586 0.414611 -0.904786 
0.00359875 0.408863 -0.912589 0.0553025 0.389862 -0.919211 0.130156 0.337241 -0.932378 
-0.243256 0.52575 -0.815116 -0.567107 0.77776 -0.271072 -0.408179 0.718728 -0.562868 
-0.627109 0.741405 -0.238858 0.60139 0.416216 -0.681979 0.686274 0.315001 -0.655593 
0.567511 0.369387 -0.735856 0.341743 0.26559 -0.901484 -0.734511 0.64753 -0.202974 
-0.478085 0.522589 -0.705929 -0.785267 0.592312 -0.180341 0.709337 0.282419 -0.645818 
0.671287 0.2807 -0.685989 0.400022 0.260822 -0.878609 -0.851669 0.496806 -0.166863 
-0.686053 0.433236 -0.584497 0.722461 0.197768 -0.662524 0.639118 0.198686 -0.743002 
0.341287 0.223585 -0.91298 -0.920595 0.358086 -0.155816 -0.943637 0.301783 -0.135927 
0.777371 0.1231 -0.61688 0.595702 0.17247 -0.78447 -0.969128 0.207402 -0.133325 
-0.887122 0.211896 -0.410018 0.843295 -0.0512373 -0.535002 0.615234 -0.00735803 -0.78831 
-0.991989 -0.00883756 -0.126015 -0.844172 -0.0306295 -0.535196 0.81829 -0.241912 -0.521421 
0.660488 -0.223664 -0.71675 -0.962307 -0.207135 -0.176242 -0.899984 -0.385201 -0.20408 
-0.886666 -0.231215 -0.400453 0.792312 -0.394819 -0.465145 0.769842 -0.431776 -0.470014 
0.752977 -0.394087 -0.526992 0.467987 -0.278134 -0.838826 -0.843563 -0.487307 -0.225684 
0.690596 -0.521196 -0.50143 0.674681 -0.544468 -0.498358 0.621871 -0.460978 -0.633068 
0.312522 -0.313035 -0.89685 -0.566572 -0.773629 -0.283715 -0.3883 -0.55895 -0.732665 
-0.704175 -0.669488 -0.236482 -0.689069 -0.684924 -0.236779 -0.675828 -0.669474 -0.308321 
0.637807 -0.587499 -0.498044 0.589281 -0.650339 -0.479382 0.526473 -0.500628 -0.687167 
0.262821 -0.326633 -0.907875 -0.380052 -0.885086 -0.268669 -0.172852 -0.476326 -0.862111 
-0.556494 -0.788074 -0.263162 -0.464034 -0.846457 -0.26112 -0.350241 -0.654311 -0.67023 
0.501408 -0.72736 -0.468547 0.418724 -0.775847 -0.471944 0.388637 -0.69381 -0.606291 
0.244873 -0.847978 -0.470076 0.224614 -0.581238 -0.78212 0.107719 -0.88965 -0.443757 
0.085013 -0.53126 -0.842933 -0.0579733 -0.51146 -0.857349 -0.116109 -0.871088 -0.477205 
-0.0695729 -0.56868 -0.819612 -0.101042 -0.890821 -0.442976 -0.047734 -0.619778 -0.783324 
-0.196786 -0.908564 -0.368493 -0.130648 -0.682842 -0.71879 -0.369758 -0.886903 -0.276915 
-0.292233 -0.89169 -0.345671 -0.242042 -0.803712 -0.543565 -0.0234379 -0.906206 -0.422186 
-0.0375364 -0.905704 -0.422245 -0.0342533 -0.906364 -0.421107 -0.034314 -0.904836 -0.424375 
0.0758399 0.37261 -0.924884 -0.0286108 0.390702 -0.920072 -0.128023 0.473555 -0.87141 
0.188435 0.271747 -0.94374 0.0799094 0.33468 -0.938938 0.00103828 0.341368 -0.939929 
0.0418542 0.319242 -0.946749 0.129331 0.33656 -0.932738 0.129719 0.33568 -0.933002 
0.075118 0.288925 -0.9544 -5.03153e-06 0.306478 -0.951878 -0.185419 0.467165 -0.864509 
-0.105199 0.406182 -0.907717 -0.193797 0.459055 -0.867012 -0.24961 0.508463 -0.824111 
0.225142 0.234425 -0.945704 0.291011 0.18376 -0.938906 0.18857 0.228794 -0.955036 
0.0604309 0.237172 -0.969586 -0.00429367 0.253656 -0.967285 0.0304339 0.242682 -0.969628 
0.0786447 0.134963 -0.987725 0.0544655 0.0727781 -0.99586 0.0234947 0.127327 -0.991583 
-0.00642978 0.217287 -0.976087 -0.0810113 0.309079 -0.94758 -0.41186 0.487775 -0.769706 
-0.181202 0.384457 -0.905184 -0.443351 0.47196 -0.762032 0.291748 0.182724 -0.93888 
0.290166 0.182308 -0.93945 0.156339 0.13051 -0.979043 0.11804 0.109569 -0.986945 
0.0211418 0.160551 -0.986801 -0.0674655 0.164879 -0.984004 -0.0366238 0.0382275 -0.998598 
0.0747334 -0.062134 -0.995266 0.134695 0.0382538 -0.990148 0.0864159 0.132724 -0.987379 
-0.00286691 0.217328 -0.976094 -0.155887 0.264344 -0.951747 -0.522593 0.349861 -0.777492 
-0.334011 0.267825 -0.903718 -0.572605 0.255817 -0.778897 0.270544 0.198535 -0.942014 
0.32638 0.212323 -0.921084 0.229373 0.169626 -0.958444 0.132003 0.172118 -0.976192 
0.0913298 0.102938 -0.990486 0.0494543 0.0605889 -0.996937 -0.089765 0.0463744 -0.994883 
-0.151869 0.136837 -0.978883 0.0521695 0.0512154 -0.997324 0.224847 0.0221688 -0.974142 
0.177011 0.0346057 -0.9836 0.0372349 0.0761699 -0.996399 -0.130648 0.0954783 -0.986821 
-0.297019 0.17042 -0.939541 -0.57416 0.222905 -0.787816 -0.555263 0.21723 -0.802804 
0.39321 0.196466 -0.898213 0.33791 0.195277 -0.920697 0.194586 0.180842 -0.964071 
0.0798615 0.152237 -0.985112 0.00407947 0.0903671 -0.9959 -0.0375056 -0.0128238 -0.999214 
0.00701955 0.0202307 -0.999771 -0.010132 0.0881106 -0.996059 -0.0433741 0.233698 -0.971341 
0.103506 0.110986 -0.988417 0.142342 0.0159883 -0.989688 0.0691047 -0.0200558 -0.997408 
-0.0560363 0.0163343 -0.998295 -0.184938 0.0686781 -0.980347 -0.610775 0.164568 -0.774514 
-0.478456 0.140653 -0.866773 0.478034 0.00170752 -0.87834 0.328117 0.0136463 -0.944539 
0.215021 0.0192197 -0.97642 0.0367815 0.00625738 -0.999304 -0.0729071 -0.028378 -0.996935 
-0.0194931 -0.0523321 -0.998439 0.00931645 0.0520009 -0.998604 0.0458498 -0.0609553 -0.997087 
0.0769053 0.0461673 -0.995969 0.0187573 0.112359 -0.993491 0.0523043 0.025875 -0.998296 
0.0385231 -0.00700512 -0.999233 -0.0517295 -0.0468603 -0.997561 -0.16333 -0.060383 -0.984722 
-0.613797 -0.0460556 -0.788119 -0.450364 -0.0715247 -0.889976 0.437246 -0.207795 -0.875007 
0.407055 -0.224858 -0.885294 0.372261 -0.184834 -0.909537 0.184798 -0.133476 -0.97367 
0.0331044 -0.1169 -0.992592 -0.0525082 -0.0594362 -0.99685 0.0366179 0.0241196 -0.999038 
-0.000752403 0.00335018 -0.999994 -0.00653358 -0.0110567 -0.999918 0.13531 -0.0407544 -0.989965 
0.0709502 -0.00784622 -0.997449 0.0234797 -0.0323634 -0.9992 -0.00328097 -0.0985592 -0.995126 
-0.108161 -0.116182 -0.987321 -0.2186 -0.101929 -0.970476 -0.524987 -0.157277 -0.836452 
-0.443421 -0.142128 -0.884973 0.392414 -0.245493 -0.886422 0.295254 -0.289984 -0.910349 
0.242987 -0.203904 -0.948357 0.107168 -0.162442 -0.980881 0.0637738 -0.0424114 -0.997063 
0.0465741 0.062409 -0.996963 -0.0236879 -0.0263026 -0.999373 5.63409e-05 0.0189135 -0.999821 
0.0789437 -0.0130823 -0.996793 0.0283688 -0.0725091 -0.996964 -0.0387847 -0.114034 -0.992719 
-0.0503075 -0.184 -0.981638 -0.0597827 -0.255124 -0.965058 -0.324833 -0.47937 -0.815284 
-0.261499 -0.32912 -0.907358 -0.54583 -0.342387 -0.764749 -0.511418 -0.368775 -0.776181 
-0.496859 -0.330399 -0.802476 0.281243 -0.282972 -0.916968 0.256461 -0.313851 -0.91418 
0.212668 -0.193533 -0.957767 0.172632 -0.135607 -0.975607 0.0552961 -0.0717132 -0.995891 
-0.0450068 -0.107746 -0.993159 0.00494751 -0.0928774 -0.995665 0.0429251 -0.135521 -0.989844 
-0.0302998 -0.14312 -0.989241 -0.0959145 -0.213191 -0.972291 -0.154803 -0.427785 -0.890526 
-0.133078 -0.292788 -0.946871 -0.311608 -0.446718 -0.838656 -0.27547 -0.47698 -0.834629 
-0.223855 -0.332791 -0.916046 0.25188 -0.321637 -0.912746 0.188557 -0.398192 -0.897713 
0.168444 -0.295817 -0.940276 0.0851111 -0.504721 -0.859077 0.0822038 -0.294743 -0.952034 
-0.0546093 -0.467535 -0.882286 -0.0392942 -0.270519 -0.961912 -0.0534875 -0.457999 -0.887342 
-0.0312656 -0.29306 -0.955583 -0.0235398 -0.479552 -0.877198 0.0118638 -0.332957 -0.942867 
-0.0922453 -0.511426 -0.854362 -0.0566466 -0.38393 -0.921623 -0.163228 -0.444023 -0.881022 
-0.171869 -0.490122 -0.854542 -0.176499 -0.413549 -0.893211 
