# vtk DataFile Version 4.2
vtk output
ASCII
DATASET POLYDATA
POINTS 568 float
-5.6648 -38.5102 -12.7544 2.38892 -38.5102 -13.077 -37.8797 -30.4565 -14.261 
-29.826 -30.4565 -14.8092 -21.7722 -30.4565 -14.9763 -13.7185 -30.4565 -14.8225 
-5.6648 -30.4565 -15.9538 2.38892 -30.4565 -16.2597 10.4426 -30.4565 -15.9674 
18.4964 -30.4565 -15.5989 26.5501 -30.4565 -13.9114 -53.9871 -22.4028 -14.1003 
-45.9334 -22.4028 -16.9139 -37.8797 -22.4028 -18.1473 -29.826 -22.4028 -17.337 
-21.7722 -22.4028 -16.7447 -13.7185 -22.4028 -16.142 -5.6648 -22.4028 -17.0428 
2.38892 -22.4028 -17.4459 10.4426 -22.4028 -17.0798 18.4964 -22.4028 -17.0708 
26.5501 -22.4028 -15.8865 34.6038 -22.4028 -13.9234 -62.0408 -14.3491 -13.8454 
-53.9871 -14.3491 -17.8368 -45.9334 -14.3491 -18.8521 -37.8797 -14.3491 -19.1559 
-29.826 -14.3491 -18.5961 -21.7722 -14.3491 -17.6659 -13.7185 -14.3491 -15.9685 
-5.6648 -14.3491 -17.283 2.38892 -14.3491 -18.4807 10.4426 -14.3491 -17.5051 
18.4964 -14.3491 -17.8598 26.5501 -14.3491 -16.8829 34.6038 -14.3491 -15.7877 
42.6575 -14.3491 -14.3793 -62.0408 -6.29535 -14.2431 -53.9871 -6.29535 -18.1194 
-45.9334 -6.29535 -20.2507 -37.8797 -6.29535 -19.7318 -29.826 -6.29535 -19.0267 
-21.7722 -6.29535 -17.6563 -13.7185 -6.29535 -16.7123 -5.6648 -6.29535 -17.2463 
2.38892 -6.29535 -17.0804 10.4426 -6.29535 -18.769 18.4964 -6.29535 -18.2288 
26.5501 -6.29535 -17.653 34.6038 -6.29535 -17.2032 42.6575 -6.29535 -16.1655 
50.7112 -6.29535 -14.4667 -62.0408 1.75837 -15.0601 -53.9871 1.75837 -17.8097 
-45.9334 1.75837 -20.3487 -37.8797 1.75837 -19.534 -29.826 1.75837 -18.5582 
-21.7722 1.75837 -17.2716 -13.7185 1.75837 -18.9832 -5.6648 1.75837 -18.879 
2.38892 1.75837 -15.8488 10.4426 1.75837 -18.7089 18.4964 1.75837 -17.1438 
26.5501 1.75837 -18.1492 34.6038 1.75837 -18.3956 42.6575 1.75837 -17.8669 
50.7112 1.75837 -15.9464 -62.0408 9.81209 -13.6166 -53.9871 9.81209 -17.5648 
-45.9334 9.81209 -19.473 -37.8797 9.81209 -18.8858 -29.826 9.81209 -18.0705 
-21.7722 9.81209 -16.8647 -13.7185 9.81209 -17.005 -5.6648 9.81209 -18.2748 
2.38892 9.81209 -17.149 10.4426 9.81209 -16.6045 18.4964 9.81209 -17.0046 
26.5501 9.81209 -18.2376 34.6038 9.81209 -18.822 42.6575 9.81209 -18.4766 
50.7112 9.81209 -16.2881 -53.9871 17.8658 -15.7465 -45.9334 17.8658 -17.2428 
-37.8797 17.8658 -18.0991 -29.826 17.8658 -18.3013 -21.7722 17.8658 -17.7403 
-13.7185 17.8658 -17.6704 -5.6648 17.8658 -17.2496 2.38892 17.8658 -16.6707 
10.4426 17.8658 -17.1634 18.4964 17.8658 -17.8272 26.5501 17.8658 -18.2684 
34.6038 17.8658 -18.4148 42.6575 17.8658 -17.5367 50.7112 17.8658 -15.8233 
-45.9334 25.9195 -14.9169 -37.8797 25.9195 -16.1801 -29.826 25.9195 -17.1497 
-21.7722 25.9195 -18.0138 -13.7185 25.9195 -17.9401 -5.6648 25.9195 -18.1711 
2.38892 25.9195 -17.9073 10.4426 25.9195 -17.8515 18.4964 25.9195 -17.9107 
26.5501 25.9195 -17.9627 34.6038 25.9195 -17.6229 42.6575 25.9195 -15.456 
-29.826 33.9732 -13.7703 -21.7722 33.9732 -15.1581 -13.7185 33.9732 -16.1119 
-5.6648 33.9732 -16.6962 2.38892 33.9732 -16.9488 10.4426 33.9732 -16.867 
18.4964 33.9732 -16.6896 26.5501 33.9732 -15.9341 34.6038 33.9732 -13.8459 
2.38892 42.027 -12.8001 10.4426 42.027 -12.7429 -5.6648 -38.6017 -12.6823 
2.38892 -39.0268 -12.6823 -37.8797 -32.5086 -12.6823 -29.826 -33.2657 -12.6823 
-29.826 -38.5102 -6.96785 -21.7722 -34.1068 -12.6823 -21.7722 -38.5102 -8.74183 
-6.27125 -38.5102 -12.6823 -13.7185 -36.3617 -12.6823 -13.7185 -38.5102 -11.5163 
8.95489 -38.5102 -12.6823 10.4426 -38.3181 -12.6823 10.4426 -38.5102 -12.5892 
18.4964 -37.3693 -12.6823 18.4964 -38.5102 -12.0008 26.5501 -32.9708 -12.6823 
26.5501 -38.5102 -9.11685 34.6038 -38.5102 -5.33163 -53.9871 -24.6551 -12.6823 
-53.9871 -30.4565 -5.05827 -44.1601 -30.4565 -12.6823 -45.9334 -29.7508 -12.6823 
-45.9334 -30.4565 -12.0093 30.8003 -30.4565 -12.6823 34.6038 -26.7135 -12.6823 
34.6038 -30.4565 -11.4662 42.6575 -30.4565 -6.50967 -56.3191 -22.4028 -12.6823 
-62.0408 -16.6247 -12.6823 -62.0408 -22.4028 -6.10283 38.2772 -22.4028 -12.6823 
42.6575 -18.7416 -12.6823 42.6575 -22.4028 -11.226 50.7112 -22.4028 -7.38216 
-63.4623 -14.3491 -12.6823 47.6499 -14.3491 -12.6823 50.7112 -11.2176 -12.6823 
50.7112 -14.3491 -11.5549 58.765 -14.3491 -7.16699 -64.1105 -6.29535 -12.6823 
-70.0946 -6.29535 -4.87994 56.347 -6.29535 -12.6823 58.765 -6.29535 -11.6977 
66.8187 -6.29535 -6.3304 -65.3503 1.75837 -12.6823 -70.0946 1.75837 -6.86908 
58.0318 1.75837 -12.6823 58.765 1.75837 -12.2952 66.8187 1.75837 -6.31382 
-63.2661 9.81209 -12.6823 -62.0408 13.4357 -12.6823 58.6346 9.81209 -12.6823 
58.765 9.81209 -12.602 66.8187 9.81209 -4.73407 -59.6807 17.8658 -12.6823 
-62.0408 17.8658 -10.5678 -53.9871 25.2297 -12.6823 55.3205 17.8658 -12.6823 
50.7112 22.9201 -12.6823 58.765 17.8658 -10.0003 -53.0778 25.9195 -12.6823 
-53.9871 25.9195 -12.0456 -45.9334 28.739 -12.6823 -37.8797 32.0273 -12.6823 
47.9524 25.9195 -12.6823 42.6575 30.5612 -12.6823 50.7112 25.9195 -10.3635 
-33.6392 33.9732 -12.6823 -37.8797 33.9732 -10.5473 -29.826 35.1682 -12.6823 
-21.7722 36.6755 -12.6823 -13.7185 38.4876 -12.6823 -5.6648 40.2163 -12.6823 
18.4964 40.6407 -12.6823 26.5501 38.2505 -12.6823 37.3625 33.9732 -12.6823 
34.6038 35.4286 -12.6823 42.6575 33.9732 -8.33068 -13.7185 42.027 -5.62235 
1.72801 42.027 -12.6823 -5.6648 42.027 -9.88568 2.38892 42.137 -12.6823 
10.8876 42.027 -12.6823 10.4426 42.0836 -12.6823 18.4964 42.027 -10.2643 
26.5501 42.027 -4.93229 -29.826 -39.9656 -4.62854 -21.7722 -41.2138 -4.62854 
-13.7185 -43.4828 -4.62854 -5.6648 -45.5164 -4.62854 2.38892 -46.2615 -4.62854 
2.38892 -46.5639 1.52621 10.4426 -45.8582 -4.62854 18.4964 -44.494 -4.62854 
26.5501 -42.2432 -4.62854 34.6038 -39.067 -4.62854 -53.9871 -30.6509 -4.62854 
-45.9334 -35.2863 -4.62854 -37.3861 -38.5102 -4.62854 -37.8797 -38.404 -4.62854 
35.5686 -38.5102 -4.62854 42.6575 -32.5623 -4.62854 -54.2757 -30.4565 -4.62854 
-62.0408 -23.3963 -4.62854 -53.9871 -30.4565 -3.51174 45.7077 -30.4565 -4.62854 
50.7112 -26.3786 -4.62854 50.7112 -30.4565 0.41658 -62.7914 -22.4028 -4.62854 
-62.0408 -22.4028 -0.080593 55.2688 -22.4028 -4.62854 58.765 -18.7412 -4.62854 
58.765 -22.4028 -1.36325 -68.4471 -14.3491 -4.62854 -70.0946 -6.91501 -4.62854 
61.7999 -14.3491 -4.62854 66.8187 -8.98353 -4.62854 66.8187 -14.3491 2.06973 
-70.2103 -6.29535 -4.62854 -70.0946 -6.29535 -3.88129 68.3299 -6.29535 -4.62854 
-71.1804 1.75837 -4.62854 -70.0946 6.4499 -4.62854 -70.0946 1.75837 0.522782 
68.1815 1.75837 -4.62854 -69.2534 9.81209 -4.62854 66.8912 9.81209 -4.62854 
66.8187 9.96562 -4.62854 -65.3304 17.8658 -4.62854 -62.0408 22.0354 -4.62854 
62.9096 17.8658 -4.62854 58.765 22.8382 -4.62854 -58.0265 25.9195 -4.62854 
-53.9871 28.9263 -4.62854 -45.9334 33.3715 -4.62854 55.6464 25.9195 -4.62854 
50.7112 30.101 -4.62854 -44.623 33.9732 -4.62854 -37.8797 37.0652 -4.62854 
-29.826 38.9369 -4.62854 -21.7722 40.3321 -4.62854 34.6038 39.6726 -4.62854 
45.4268 33.9732 -4.62854 42.6575 35.7121 -4.62854 -15.1142 42.027 -4.62854 
-13.7185 42.3706 -4.62854 -13.7185 42.027 -1.47048 -5.6648 43.9499 -4.62854 
2.38892 45.1108 -4.62854 10.4426 45.1224 -4.62854 18.4964 43.9813 -4.62854 
26.9034 42.027 -4.62854 26.5501 42.1306 -4.62854 26.5501 42.027 -3.48947 
2.38892 -46.643 3.42518 -29.826 -39.1695 3.42518 -21.7722 -41.0292 3.42518 
-13.7185 -43.1052 3.42518 1.85281 -46.5639 3.42518 -5.6648 -45.2477 3.42518 
4.24798 -46.5639 3.42518 2.38892 -46.5639 3.57809 10.4426 -46.2923 3.42518 
18.4964 -45.6248 3.42518 26.5501 -44.2053 3.42518 34.6038 -41.5747 3.42518 
-45.9334 -34.0672 3.42518 -32.8144 -38.5102 3.42518 -37.8797 -37.1239 3.42518 
-29.826 -38.5102 4.53634 -21.7722 -38.5102 6.82736 -13.7185 -38.5102 9.30412 
40.3827 -38.5102 3.42518 34.6038 -38.5102 10.6782 42.6575 -37.2696 3.42518 
50.7112 -31.8757 3.42518 -52.0749 -30.4565 3.42518 -53.9871 -29.143 3.42518 
-45.9334 -30.4565 8.47391 -37.8797 -30.4565 10.0139 52.6222 -30.4565 3.42518 
50.7112 -30.4565 11.2846 58.765 -25.3337 3.42518 -61.3652 -22.4028 3.42518 
-62.0408 -21.4638 3.42518 -53.9871 -22.4028 11.0611 61.8442 -22.4028 3.42518 
66.8187 -15.5159 3.42518 -66.7315 -14.3491 3.42518 -62.0408 -14.3491 8.56516 
67.4648 -14.3491 3.42518 66.8187 -14.3491 6.47914 -68.6539 -6.29535 3.42518 
70.9756 -6.29535 3.42518 -69.3287 1.75837 3.42518 70.7399 1.75837 3.42518 
-67.9607 9.81209 3.42518 -62.0408 9.81209 10.5411 68.3858 9.81209 3.42518 
66.8187 12.8246 3.42518 66.8187 9.81209 7.09073 -63.1806 17.8658 3.42518 
-62.0408 19.5301 3.42518 -62.0408 17.8658 4.83575 63.6123 17.8658 3.42518 
58.765 22.8906 3.42518 -55.6024 25.9195 3.42518 -53.9871 27.0342 3.42518 
-53.9871 25.9195 4.87391 -45.9334 31.7957 3.42518 -45.9334 25.9195 10.1304 
55.7635 25.9195 3.42518 50.7112 29.9173 3.42518 50.7112 25.9195 10.7903 
-41.6893 33.9732 3.42518 -37.8797 35.7525 3.42518 -37.8797 33.9732 6.36692 
-29.826 37.9279 3.42518 -29.826 33.9732 10.3334 -21.7722 39.7415 3.42518 
-13.7185 41.4566 3.42518 26.5501 41.3836 3.42518 34.6038 38.7388 3.42518 
44.5501 33.9732 3.42518 42.6575 35.1873 3.42518 42.6575 33.9732 5.84639 
-11.043 42.027 3.42518 -5.6648 43.1608 3.42518 -5.6648 42.027 6.26428 
2.38892 44.1764 3.42518 2.38892 42.027 8.35794 10.4426 44.224 3.42518 
10.4426 42.027 8.62746 23.7737 42.027 3.42518 18.4964 43.2002 3.42518 
18.4964 42.027 6.34455 -5.6648 -39.1963 11.4789 2.38892 -40.4364 11.4789 
10.4426 -41.9771 11.4789 18.4964 -42.1613 11.4789 26.5501 -40.9257 11.4789 
-29.826 -31.8328 11.4789 -21.7722 -32.4018 11.4789 -7.46817 -38.5102 11.4789 
-13.7185 -35.0831 11.4789 -5.6648 -38.5102 11.9558 2.38892 -38.5102 13.0293 
10.4426 -38.5102 14.3785 18.4964 -38.5102 14.8596 33.4693 -38.5102 11.4789 
26.5501 -38.5102 13.744 34.6038 -38.1248 11.4789 42.6575 -34.6598 11.4789 
-45.9334 -25.1704 11.4789 -33.1711 -30.4565 11.4789 -37.8797 -27.9727 11.4789 
-29.826 -30.4565 12.2954 -21.7722 -30.4565 12.6235 -13.7185 -30.4565 13.598 
-5.6648 -30.4565 14.6942 2.38892 -30.4565 15.9891 10.4426 -30.4565 17.8192 
18.4964 -30.4565 18.2763 26.5501 -30.4565 17.8278 34.6038 -30.4565 17.5513 
[...]
POINT_DATA 568
SCALARS ImageScalars float
LOOKUP_TABLE default
0 0 0 0 0 0 0 0 0 
0 0 0 0 0 0 0 0 0 
0 0 0 0 0 0 0 0 0 
0 0 0 0 0 0 0 0 0 
0 0 0 0 0 0 0 0 0 
0 0 0 0 0 0 0 0 0 
0 0 0 0 0 0 0 0 0 
0 0 0 0 0 0 0 0 0 
0 0 0 0 0 0 0 0 0 
0 0 0 0 0 0 0 0 0 
0 0 0 0 0 0 0 0 0 
0 0 0 0 0 0 0 0 0 
0 0 0 0 0 0 0 0 0 
0 0 0 0 0 0 0 0 0 
0 0 0 0 0 0 0 0 0 
0 0 0 0 0 0 0 0 0 
0 0 0 0 0 0 0 0 0 
0 0 0 0 0 0 0 0 0 
0 0 0 0 0 0 0 0 0 
0 0 0 0 0 0 0 0 0 
0 0 0 0 0 0 0 0 0 
0 0 0 0 0 0 0 0 0 
0 0 0 0 0 0 0 0 0 
0 0 0 0 0 0 0 0 0 
0 0 0 0 0 0 0 0 0 
0 0 0 0 0 0 0 0 0 
0 0 0 0 0 0 0 0 0 
0 0 0 0 0 0 0 0 0 
0 0 0 0 0 0 0 0 0 
0 0 0 0 0 0 0 0 0 
0 0 0 0 0 0 0 0 0 
0 0 0 0 0 0 0 0 0 
0 0 0 0 0 0 0 0 0 
0 0 0 0 0 0 0 0 0 
0 0 0 0 0 0 0 0 0 
0 0 0 0 0 0 0 0 0 
0 0 0 0 0 0 0 0 0 
0 0 0 0 0 0 0 0 0 
0 0 0 0 0 0 0 0 0 
0 0 0 0 0 0 0 0 0 
0 0 0 0 0 0 0 0 0 
0 0 0 0 0 0 0 0 0 
0 0 0 0 0 0 0 0 0 
0 0 0 0 0 0 0 0 0 
0 0 0 0 0 0 0 0 0 
0 0 0 0 0 0 0 0 0 
0 0 0 0 0 0 0 0 0 
0 0 0 0 0 0 0 0 0 
0 0 0 0 0 0 0 0 0 
0 0 0 0 0 0 0 0 0 
0 0 0 0 0 0 0 0 0 
0 0 0 0 0 0 0 0 0 
0 0 0 0 0 0 0 0 0 
0 0 0 0 0 0 0 0 0 
0 0 0 0 0 0 0 0 0 
0 0 0 0 0 0 0 0 0 
0 0 0 0 0 0 0 0 0 
0 0 0 0 0 0 0 0 0 
0 0 0 0 0 0 0 0 0 
0 0 0 0 0 0 0 0 0 
0 0 0 0 0 0 0 0 0 
0 0 0 0 0 0 0 0 0 
0 0 0 0 0 0 0 0 0 
0 
NORMALS Normals float
-0.0701401 -0.5415 -0.83777 0.00894696 -0.536366 -0.843938 -0.126086 -0.552378 -0.824003 
-0.0420245 -0.467486 -0.883001 0.000160198 -0.387515 -0.921864 -0.0593067 -0.250507 -0.966296 
-0.0871775 -0.236728 -0.967657 -0.000894862 -0.239072 -0.971001 0.0416509 -0.253209 -0.966515 
0.115367 -0.281668 -0.952551 0.239059 -0.333828 -0.911817 -0.426904 -0.44014 -0.789956 
-0.208188 -0.329482 -0.920923 -0.0303065 -0.299409 -0.953643 0.082152 -0.214568 -0.973248 
0.0746104 -0.153221 -0.985371 -0.0183378 -0.0683712 -0.997491 -0.0804632 -0.0779119 -0.993708 
-0.00115722 -0.136079 -0.990697 0.0226608 -0.0896713 -0.995714 0.0712199 -0.139551 -0.98765 
0.185808 -0.17256 -0.967315 0.272103 -0.247614 -0.929864 -0.566001 -0.26038 -0.782206 
-0.297188 -0.207923 -0.931905 -0.0703984 -0.210797 -0.974992 0.0167319 -0.0921571 -0.995604 
0.0903575 -0.102282 -0.990643 0.162433 -0.0566485 -0.985092 0.0272355 -0.0308122 -0.999154 
-0.163845 -0.0133788 -0.986395 -0.00756012 0.0136425 -0.999878 0.0373176 -0.105989 -0.993667 
0.0379191 -0.0713243 -0.996732 0.127395 -0.107397 -0.98602 0.151026 -0.192944 -0.969517 
0.243155 -0.283239 -0.927713 -0.572813 -0.0680439 -0.816857 -0.295763 0.00428686 -0.955252 
-0.122501 -0.0912865 -0.988261 0.0740396 -0.0232388 -0.996984 0.127689 0.00246645 -0.991811 
0.136614 0.0243049 -0.990326 0.0276179 -0.176393 -0.983932 -0.0219498 -0.0785722 -0.996667 
-0.106257 0.157895 -0.981722 -0.0602224 -0.0757271 -0.995308 0.0692309 0.041755 -0.996726 
0.0629976 -0.0777019 -0.994984 0.0891198 -0.159689 -0.983136 0.157868 -0.210223 -0.964823 
0.257524 -0.262349 -0.929975 -0.453282 0.0368389 -0.890606 -0.285917 0.0383831 -0.957485 
-0.103788 0.0471494 -0.993481 0.107826 0.0520192 -0.992808 0.138959 0.0586659 -0.988559 
-0.00764691 0.0490699 -0.998766 -0.118212 -0.0141806 -0.992887 0.180099 -0.0860844 -0.979874 
-0.0270106 -0.00701196 -0.999611 -0.0372918 0.132379 -0.990497 0.0265635 0.0772699 -0.996656 
-0.0752351 -0.0363956 -0.996501 0.0163628 -0.0996732 -0.994886 0.154327 -0.139152 -0.978172 
0.31065 -0.100564 -0.94519 -0.578658 0.186778 -0.793895 -0.295915 0.0923398 -0.950741 
-0.0986956 0.189207 -0.976965 0.0842723 0.0950274 -0.991901 0.124601 0.0160422 -0.992077 
0.0680362 -0.0298036 -0.997238 -0.0867001 0.0653333 -0.99409 -0.0105431 0.101641 -0.994765 
0.0990426 -0.0302017 -0.994625 0.00633103 0.0891569 -0.995997 -0.100931 -0.0396849 -0.994102 
-0.111721 -0.00735093 -0.993712 -0.0158824 -0.00111455 -0.999873 0.158052 0.0180679 -0.987265 
0.323285 -0.000429662 -0.946302 -0.333586 0.330776 -0.882784 -0.130066 0.240099 -0.961996 
-0.0593054 0.149968 -0.986911 0.0209918 0.0624125 -0.99783 0.0383953 -0.070075 -0.996803 
0.0303427 -0.0546741 -0.998043 0.0620329 0.000475983 -0.998074 0.00533674 -0.0492577 -0.998772 
-0.0694525 -0.0754105 -0.994731 -0.0707807 -0.0579233 -0.995809 -0.0344598 0.016447 -0.999271 
0.0420011 0.0685802 -0.996761 0.135331 0.181694 -0.973998 0.40026 0.272089 -0.875077 
-0.235637 0.477802 -0.846274 -0.126151 0.357156 -0.925487 -0.102582 0.239942 -0.965352 
-0.0550744 0.1332 -0.989558 -0.00990545 0.0904479 -0.995852 0.00213681 0.0259796 -0.99966 
0.0198396 -0.022038 -0.99956 -0.000233605 0.0147118 -0.999892 -0.0067147 0.0697286 -0.997543 
0.0156952 0.132738 -0.991027 0.146501 0.249656 -0.957188 0.338268 0.375117 -0.863054 
-0.192823 0.637692 -0.745767 -0.139282 0.55907 -0.817338 -0.0865088 0.44244 -0.892616 
-0.052787 0.366501 -0.928919 -0.0099701 0.280525 -0.959795 0.0162933 0.276586 -0.960851 
0.0527927 0.326226 -0.943817 0.167719 0.419018 -0.892353 0.304099 0.570451 -0.762961 
-0.076075 0.744296 -0.663503 0.0637261 0.743347 -0.665864 -0.0700081 -0.545754 -0.835016 
0.00730874 -0.55936 -0.828892 -0.148719 -0.625645 -0.765801 -0.0648545 -0.594067 -0.801797 
-0.157354 -0.910638 -0.382071 -0.0880229 -0.528553 -0.844324 -0.193456 -0.805699 -0.559842 
-0.0766769 -0.542792 -0.83636 -0.138358 -0.467125 -0.873299 -0.180675 -0.600207 -0.779171 
0.0441182 -0.524429 -0.85031 0.0517699 -0.514466 -0.855947 0.052498 -0.52349 -0.850413 
0.146626 -0.518971 -0.842122 0.157311 -0.577416 -0.801152 0.260093 -0.424236 -0.867396 
0.302315 -0.67971 -0.668281 0.414694 -0.75112 -0.513662 -0.450914 -0.505936 -0.735327 
-0.546553 -0.825315 -0.141895 -0.249766 -0.648187 -0.719354 -0.278257 -0.64553 -0.711242 
-0.29689 -0.689568 -0.660569 0.28436 -0.363283 -0.887223 0.299897 -0.318898 -0.899092 
0.338786 -0.399001 -0.852069 0.473308 -0.5723 -0.669666 -0.502569 -0.465924 -0.728244 
-0.603881 -0.335326 -0.723108 -0.77273 -0.591662 -0.229835 0.286912 -0.294224 -0.911654 
0.277489 -0.319893 -0.905908 0.316414 -0.361818 -0.876909 0.467914 -0.496791 -0.730928 
-0.641494 -0.276108 -0.715716 0.305935 -0.312954 -0.899146 0.308038 -0.306878 -0.900521 
0.348293 -0.33724 -0.874621 0.512132 -0.425906 -0.745872 -0.680155 -0.0802266 -0.728665 
-0.972926 -0.158361 -0.168338 0.399211 -0.243349 -0.883975 0.463108 -0.239406 -0.853355 
0.696045 -0.239103 -0.677016 -0.664279 0.0391991 -0.746456 -0.965997 0.0565921 -0.252282 
0.488625 -0.0461159 -0.871275 0.50888 -0.0395091 -0.859931 0.7828 0.0618506 -0.619192 
-0.64303 0.196979 -0.740076 -0.61096 0.269205 -0.744484 0.534055 0.0876549 -0.840893 
0.539336 0.089306 -0.837342 0.85996 0.301316 -0.411919 -0.543257 0.386433 -0.745346 
-0.688251 0.4525 -0.567058 -0.445131 0.576163 -0.685489 0.535349 0.337004 -0.774487 
0.493363 0.459261 -0.738697 0.666135 0.402802 -0.627706 -0.431148 0.587067 -0.685175 
-0.470332 0.619406 -0.628589 -0.295104 0.628124 -0.719982 -0.259677 0.643159 -0.720357 
0.471137 0.484921 -0.736805 0.410952 0.574575 -0.707801 0.562634 0.586108 -0.583027 
-0.238368 0.686357 -0.687092 -0.306944 0.790742 -0.529634 -0.200878 0.703763 -0.681444 
-0.168838 0.719566 -0.673586 -0.160043 0.709607 -0.686181 -0.151651 0.718624 -0.678661 
0.157587 0.726406 -0.668955 0.23599 0.703403 -0.670472 0.359264 0.622985 -0.694852 
0.325487 0.636029 -0.699661 0.486343 0.787159 -0.379276 -0.221624 0.960074 -0.170706 
-0.0852174 0.751127 -0.654634 -0.180999 0.877413 -0.444281 -0.0766697 0.751 -0.655836 
0.070058 0.747292 -0.660792 0.0638031 0.746486 -0.662335 0.183595 0.868441 -0.460546 
0.252855 0.958498 -0.131706 -0.174902 -0.954649 -0.240945 -0.212487 -0.939291 -0.269411 
-0.258662 -0.934414 -0.244875 -0.156695 -0.946644 -0.281624 -0.0197471 -0.945489 -0.325053 
-0.0472487 -0.992228 0.115117 0.0976567 -0.941687 -0.322006 0.198225 -0.911502 -0.360375 
0.301523 -0.842045 -0.447263 0.417258 -0.771626 -0.480094 -0.547141 -0.82906 -0.115305 
-0.412435 -0.895346 -0.168087 -0.266363 -0.942477 -0.201962 -0.272664 -0.941338 -0.198839 
0.434535 -0.759037 -0.48481 0.499857 -0.63979 -0.583792 -0.552982 -0.825238 -0.114862 
-0.777845 -0.613756 -0.135133 -0.555313 -0.830209 -0.0487807 0.497804 -0.619994 -0.606464 
0.513845 -0.585897 -0.626649 0.598647 -0.742978 -0.299342 -0.792205 -0.594443 -0.138015 
-0.787108 -0.596409 0.157344 0.520543 -0.549142 -0.653817 0.549804 -0.484898 -0.680139 
0.599472 -0.656284 -0.458175 -0.904929 -0.395189 -0.157893 -0.971708 -0.175921 -0.157594 
0.632045 -0.443609 -0.635397 0.735386 -0.358088 -0.57531 0.863844 -0.473799 -0.171137 
-0.974873 -0.157897 -0.157133 -0.981683 -0.15749 -0.107215 0.780565 -0.258814 -0.568976 
-0.988819 0.0573646 -0.137645 -0.96873 0.204739 -0.140158 -0.971052 0.0611835 0.230901 
0.849883 0.0798685 -0.520884 -0.938625 0.30792 -0.155461 0.862179 0.302034 -0.406723 
0.860883 0.306301 -0.406275 -0.822538 0.557616 -0.111785 -0.748932 0.653793 -0.107965 
0.796236 0.507137 -0.329879 0.727238 0.635531 -0.259279 -0.643645 0.760753 -0.0835265 
-0.568777 0.81953 -0.0697412 -0.429625 0.898705 -0.0880451 0.67148 0.699014 -0.245955 
0.603472 0.767685 -0.215595 -0.411739 0.906557 -0.0928779 -0.323185 0.937528 -0.128814 
-0.198633 0.972191 -0.124056 -0.206067 0.969378 -0.133579 0.37701 0.917422 -0.127282 
0.531794 0.830586 -0.165296 0.496684 0.852065 -0.165198 -0.219984 0.96836 -0.117838 
-0.221657 0.968067 -0.117104 -0.218283 0.975836 0.00982506 -0.173355 0.977737 -0.118229 
-0.0748034 0.992062 -0.101077 0.0677962 0.992233 -0.104298 0.180678 0.97788 -0.105385 
0.257243 0.959149 -0.117726 0.252093 0.960483 -0.117986 0.254074 0.964449 -0.0726927 
-0.0538605 -0.968434 0.243383 -0.225814 -0.914066 0.336884 -0.234341 -0.911391 0.338305 
-0.248171 -0.91524 0.317407 -0.0639462 -0.96755 0.244452 -0.208373 -0.939602 0.271531 
-0.0264861 -0.974333 0.223547 -0.054977 -0.966242 0.2517 0.0612053 -0.985465 0.15847 
0.124896 -0.987151 0.0996661 0.236461 -0.970076 0.055121 0.395304 -0.918107 0.0285308 
-0.389353 -0.840088 0.377698 -0.250394 -0.904313 0.345718 -0.288543 -0.87747 0.383131 
-0.215384 -0.890763 0.400189 -0.20271 -0.802793 0.560742 -0.239287 -0.653028 0.718537 
0.476432 -0.878903 -0.0232989 0.310066 -0.834046 0.456318 0.508949 -0.858845 -0.0579294 
0.609196 -0.784073 -0.118787 -0.512786 -0.769127 0.381437 -0.550454 -0.740455 0.385652 
-0.334703 -0.663655 0.668981 -0.196671 -0.583687 0.787801 0.624416 -0.770423 -0.128658 
0.504581 -0.748074 0.431025 0.645544 -0.747684 -0.155696 -0.728065 -0.567827 0.38405 
-0.742217 -0.54492 0.390097 -0.407384 -0.437131 0.801845 0.698482 -0.697864 -0.158456 
0.866451 -0.484183 -0.121776 -0.818954 -0.375977 0.433538 -0.650015 -0.388231 0.653267 
0.882465 -0.455903 -0.115795 0.886494 -0.450259 0.10675 -0.89407 -0.134028 0.427406 
0.982023 -0.18789 -0.0181454 -0.900198 0.0510773 0.432475 0.989503 0.144506 -0.0016298 
-0.870529 0.293325 0.395146 -0.587474 0.290843 0.755172 0.916677 0.390222 0.0862009 
0.875884 0.467318 0.120167 0.83055 0.439614 0.341944 -0.717012 0.564054 0.409556 
-0.692499 0.591517 0.41298 -0.686918 0.557954 0.465651 0.769064 0.62109 0.150956 
0.698055 0.691114 0.187299 -0.563622 0.719455 0.405851 -0.536537 0.740014 0.405595 
-0.522555 0.715662 0.463426 -0.438094 0.827959 0.350083 -0.395827 0.596663 0.698079 
0.660926 0.720652 0.209377 0.564914 0.795423 0.219487 0.495995 0.619842 0.6081 
-0.393548 0.858193 0.329584 -0.343029 0.875718 0.339777 -0.336362 0.814481 0.472737 
-0.232245 0.926806 0.295116 -0.274944 0.741716 0.61177 -0.209339 0.953341 0.217529 
-0.202867 0.954109 0.220273 0.255794 0.941091 0.221174 0.358301 0.897987 0.25542 
0.499169 0.830484 0.247237 0.478803 0.842181 0.24795 0.477132 0.80395 0.354978 
-0.190551 0.95561 0.224723 -0.163732 0.957268 0.23839 -0.148396 0.923891 0.35271 
-0.064326 0.964261 0.257027 -0.0590526 0.888677 0.454715 0.0590134 0.965869 0.252219 
0.0494814 0.888391 0.456414 0.22505 0.948265 0.223932 0.16802 0.956973 0.236585 
0.158456 0.926877 0.340279 -0.18497 -0.540195 0.82096 -0.121115 -0.6143 0.779722 
-0.0775986 -0.714363 0.695459 0.054742 -0.771514 0.633853 0.196903 -0.76628 0.611592 
-0.137328 -0.498655 0.855853 -0.0963371 -0.476569 0.873843 -0.197407 -0.524412 0.828265 
-0.18884 -0.462047 0.866517 -0.186437 -0.507184 0.841431 -0.135594 -0.520716 0.842893 
-0.098251 -0.551802 0.828167 0.0340437 -0.580742 0.813375 0.281811 -0.802931 0.525246 
0.162873 -0.658853 0.734429 0.293524 -0.804845 0.515818 0.409692 -0.728379 0.549197 
-0.220721 -0.480553 0.848735 -0.15347 -0.486004 0.860376 -0.167705 -0.485547 0.857974 
-0.128454 -0.446841 0.885343 -0.0794957 -0.408681 0.909208 -0.118703 -0.313039 0.942293 
-0.146092 -0.243088 0.95894 -0.180448 -0.206125 0.961744 -0.136255 -0.204084 0.969425 
0.00167141 -0.230719 0.973019 0.0424823 -0.28731 0.956895 0.179254 -0.322411 0.929473 
0.49864 -0.743122 0.446237 0.329544 -0.552017 0.765949 0.499156 -0.743242 0.445459 
0.610205 -0.631621 0.478231 -0.354021 -0.428296 0.831404 -0.402818 -0.389521 0.828258 
-0.185201 -0.415994 0.890309 -0.122955 -0.359677 0.92494 -0.0506431 -0.251196 0.96661 
-0.0155731 -0.184356 0.982736 -0.0625547 -0.172544 0.983013 -0.0921489 -0.1734 0.980531 
-0.146416 -0.0431633 0.988281 -0.136879 -0.0424415 0.989678 -0.0463948 -0.0190707 0.998741 
0.0127828 -0.0826888 0.996493 0.00644623 -0.17382 0.984756 0.16879 -0.290187 0.941967 
0.335672 -0.395015 0.855154 0.640322 -0.595415 0.485251 0.581572 -0.589345 0.560755 
-0.482367 -0.282585 0.829136 -0.580572 -0.187129 0.792413 -0.387584 -0.239919 0.890066 
-0.213941 -0.215017 0.952889 -0.0452557 -0.2181 0.974877 0.0697361 -0.125202 0.989677 
-0.00742564 -0.067101 0.997719 -0.122285 -0.125309 0.984553 -0.00257088 -0.185536 0.982634 
-0.0509316 0.02673 0.998344 -0.119076 -0.108561 0.986932 -0.0411664 0.0796498 0.995973 
-0.105464 0.0294795 0.993986 0.132737 -0.257805 0.957036 0.748 -0.380091 0.544083 
0.443544 -0.378548 0.812386 0.793006 -0.277657 0.542262 -0.583387 -0.174669 0.79319 
-0.577882 -0.172442 0.797694 -0.332772 -0.162544 0.928893 -0.138769 -0.13261 0.981406 
-0.013842 -0.0916414 0.995696 0.101828 -0.125493 0.986855 0.000386087 -0.119429 0.992843 
-0.185162 -0.0782154 0.97959 0.0688335 -0.0087117 0.99759 -0.0906844 0.0402715 0.995065 
0.0900855 0.068706 0.993561 -0.130674 0.0386167 0.990673 0.82909 -0.129139 0.543998 
0.764608 -0.120449 0.633141 -0.602213 0.0555796 0.796398 -0.572455 0.182005 0.799481 
-0.564674 0.0515372 0.823703 -0.345569 0.0221426 0.938132 -0.14847 -0.000181617 0.988917 
-0.0352666 -0.0369435 0.998695 0.0455801 -0.0993011 0.994013 0.0384933 -0.180745 0.982776 
-0.00484404 -0.0826639 0.996566 0.0905188 0.0123634 0.995818 -0.159469 -0.0950159 0.98262 
0.0705291 -0.0485812 0.996326 -0.141214 -0.0640834 0.987903 0.370627 0.247819 0.89511 
0.792232 0.179009 0.583373 0.718813 0.305012 0.624721 0.723389 0.193784 0.662689 
-0.532322 0.266231 0.803588 -0.370867 0.194688 0.908049 -0.197936 0.15523 0.967845 
-0.113231 0.0643254 0.991484 -0.0447522 -0.00966367 0.998951 0.00648851 -0.0938368 0.995566 
0.0249194 -0.0712928 0.997144 0.0709719 -0.00476522 0.997467 0.024122 -0.104997 0.99418 
-0.0587849 0.0364262 0.997606 -0.0861385 -0.160008 0.98335 0.0879076 0.124127 0.988365 
0.213893 0.195075 0.957181 0.614226 0.406312 0.676489 0.485089 0.358345 0.79767 
-0.507914 0.435456 0.743237 -0.477033 0.470511 0.742333 -0.45801 0.411859 0.787781 
-0.360594 0.52811 0.768812 -0.274473 0.33117 0.902769 -0.196486 0.242209 0.95012 
-0.109024 0.156176 0.981694 -0.026196 0.0698111 0.997216 0.0743203 0.0461727 0.996165 
0.0506493 0.0174077 0.998565 -0.069868 -0.035905 0.99691 -0.122622 -0.0853243 0.988779 
0.115806 0.105539 0.987649 0.164503 0.279904 0.945829 0.474841 0.592665 0.650595 
0.340512 0.401791 0.850068 0.583055 0.533418 0.612791 0.559879 0.550553 0.619215 
0.542426 0.525423 0.655519 -0.36588 0.546501 0.753305 -0.312747 0.600429 0.735985 
-0.296831 0.480722 0.825105 -0.271041 0.679673 0.681602 -0.21382 0.395023 0.893441 
-0.107174 0.303528 0.946776 -0.0317168 0.225568 0.973711 -0.0131397 0.111014 0.993732 
-0.0768696 0.0810465 0.993742 0.274272 0.331941 0.902546 0.470433 0.597243 0.64961 
0.403887 0.637481 0.65612 0.356342 0.50988 0.78297 -0.264421 0.702219 0.661037 
-0.235904 0.736774 0.633651 -0.215173 0.645506 0.732818 -0.1691 0.753966 0.634776 
-0.140776 0.555515 0.819503 -0.116491 0.767157 0.630793 -0.101914 0.483229 0.869542 
-0.0551204 0.776639 0.62753 -0.062251 0.409241 0.9103 0.0363006 0.79792 0.601669 
-0.0178069 0.469372 0.882821 0.131905 0.810053 0.571328 0.0759355 0.537117 0.840083 
0.254905 0.785271 0.564245 0.229196 0.618329 0.751757 0.372129 0.710897 0.59678 
0.358732 0.721354 0.592419 0.356634 0.700346 0.618327 -0.0106293 -0.125283 0.992064 
0.0787639 -0.0936755 0.992482 -0.088283 -0.100842 0.990978 -0.082614 0.00304506 0.996577 
-0.0256141 -0.0591477 0.997921 0.0758723 -0.0929193 0.992779 0.0727098 -0.0810186 0.994057 
0.0809323 -0.194574 0.977543 0.367485 -0.186766 0.911083 -0.0681804 -0.0740579 0.994921 
-0.0121608 -0.0406349 0.9991 -0.0606226 -0.092518 0.993864 -0.119456 0.035398 0.992208 
-0.11348 0.0345586 0.992939 -0.0400606 -0.0400648 0.998394 0.00913226 -0.0482481 0.998794 
0.405587 -0.0798867 0.910559 0.364514 0.15225 0.918667 0.335817 -0.0769363 0.93878 
-0.0513223 0.114206 0.992131 -0.0235138 0.106052 0.994082 -0.0455416 0.113633 0.992478 
-0.0396335 0.134325 0.990144 -0.111224 -0.00713934 0.99377 -0.0805952 -0.0887332 0.992789 
-0.101473 0.00873073 0.9948 0.0807003 0.119102 0.989597 -0.00565254 0.0629594 0.998 
0.205583 0.188765 0.960262 0.100167 0.146132 0.984181 0.0785168 0.138584 0.987233 
-0.0734527 -0.101409 0.99213 -0.0674101 -0.111529 0.991472 -0.0709735 -0.0913368 0.993288 
0.0702959 0.103499 0.992142 0.0513014 0.0616436 0.996779 0.0129801 0.0365425 0.999248 
-0.0978637 -0.0836435 0.991679 -0.106449 0.0573516 0.992663 -0.0537616 -0.0792058 0.995408 
0.0927115 0.0638431 0.993644 0.0571022 -0.0010788 0.998368 -0.0983583 0.10426 0.989674 
-0.0966448 0.123789 0.987591 -0.100436 0.10693 0.989181 0.00800818 0.216112 0.976336 
-0.00320685 0.168845 0.985637 0.127948 0.232667 0.964103 0.119631 0.238792 0.963674 
0.116905 0.226192 0.967042 
