# vtk DataFile Version 4.2
vtk output
ASCII
DATASET POLYDATA
POINTS 558 float
-16.6392 -47.0346 -15.6003 -8.10127 -47.0346 -15.9191 0.436665 -47.0346 -17.0019 
8.9746 -47.0346 -16.9287 17.5125 -47.0346 -16.7337 26.0505 -47.0346 -14.111 
-33.7151 -38.4967 -16.5884 -25.1771 -38.4967 -17.8377 -16.6392 -38.4967 -18.2863 
-8.10127 -38.4967 -18.2734 0.436665 -38.4967 -18.9252 8.9746 -38.4967 -18.9501 
17.5125 -38.4967 -18.8043 26.0505 -38.4967 -17.4399 34.5884 -38.4967 -14.8827 
-42.253 -29.9587 -17.2927 -33.7151 -29.9587 -19.123 -25.1771 -29.9587 -18.6065 
-16.6392 -29.9587 -19.1225 -8.10127 -29.9587 -18.5423 0.436665 -29.9587 -18.8495 
8.9746 -29.9587 -18.9666 17.5125 -29.9587 -19.3806 26.0505 -29.9587 -18.0488 
34.5884 -29.9587 -17.0256 43.1263 -29.9587 -14.034 -50.7909 -21.4208 -15.4529 
-42.253 -21.4208 -18.4317 -33.7151 -21.4208 -18.8919 -25.1771 -21.4208 -18.5056 
-16.6392 -21.4208 -18.1219 -8.10127 -21.4208 -17.5704 0.436665 -21.4208 -17.9823 
8.9746 -21.4208 -18.2001 17.5125 -21.4208 -18.3051 26.0505 -21.4208 -18.2307 
34.5884 -21.4208 -17.9444 43.1263 -21.4208 -16.141 -50.7909 -12.8828 -17.378 
-42.253 -12.8828 -19.0267 -33.7151 -12.8828 -19.4632 -25.1771 -12.8828 -18.3241 
-16.6392 -12.8828 -16.8932 -8.10127 -12.8828 -17.9645 0.436665 -12.8828 -18.1257 
8.9746 -12.8828 -18.2275 17.5125 -12.8828 -17.0117 26.0505 -12.8828 -17.2997 
34.5884 -12.8828 -17.9473 43.1263 -12.8828 -18.0992 51.6643 -12.8828 -16.4403 
-50.7909 -4.34491 -16.8227 -42.253 -4.34491 -18.8329 -33.7151 -4.34491 -18.9977 
-25.1771 -4.34491 -17.693 -16.6392 -4.34491 -16.415 -8.10127 -4.34491 -21.0873 
0.436665 -4.34491 -15.4802 8.9746 -4.34491 -21.3812 17.5125 -4.34491 -16.3544 
26.0505 -4.34491 -17.1125 34.5884 -4.34491 -18.415 43.1263 -4.34491 -18.861 
51.6643 -4.34491 -17.3806 60.2022 -4.34491 -13.9315 -50.7909 4.19302 -16.5563 
-42.253 4.19302 -18.4951 -33.7151 4.19302 -18.8856 -25.1771 4.19302 -17.814 
-16.6392 4.19302 -16.4553 -8.10127 4.19302 -20.3945 0.436665 4.19302 -15.6649 
8.9746 4.19302 -21.7678 17.5125 4.19302 -16.7413 26.0505 4.19302 -17.0486 
34.5884 4.19302 -18.322 43.1263 4.19302 -18.8044 51.6643 4.19302 -17.385 
60.2022 4.19302 -14.2326 -50.7909 12.731 -14.7521 -42.253 12.731 -17.254 
-33.7151 12.731 -18.0193 -25.1771 12.731 -17.5918 -16.6392 12.731 -16.9222 
-8.10127 12.731 -18.3574 0.436665 12.731 -17.8177 8.9746 12.731 -17.7287 
17.5125 12.731 -16.774 26.0505 12.731 -17.1891 34.5884 12.731 -17.9161 
43.1263 12.731 -18.0591 51.6643 12.731 -16.4691 -42.253 21.2689 -15.9147 
-33.7151 21.2689 -17.115 -25.1771 21.2689 -17.4687 -16.6392 21.2689 -17.3286 
-8.10127 21.2689 -18.4399 0.436665 21.2689 -18.0051 8.9746 21.2689 -16.8031 
17.5125 21.2689 -17.3254 26.0505 21.2689 -17.7519 34.5884 21.2689 -17.8399 
43.1263 21.2689 -16.1228 -33.7151 29.8068 -14.5229 -25.1771 29.8068 -16.0018 
-16.6392 29.8068 -16.6047 -8.10127 29.8068 -17.8517 0.436665 29.8068 -18.028 
8.9746 29.8068 -16.9999 17.5125 29.8068 -16.6007 26.0505 29.8068 -16.9705 
34.5884 29.8068 -16.0259 43.1263 29.8068 -14.0098 -8.10127 38.3448 -14.7312 
0.436665 38.3448 -15.4889 8.9746 38.3448 -14.4542 -16.6392 -49.2518 -13.691 
-8.10127 -50.0328 -13.691 0.436665 -51.4948 -13.691 8.9746 -51.6163 -13.691 
17.5125 -51.1048 -13.691 26.0505 -47.604 -13.691 -33.7151 -42.8118 -13.691 
-23.5075 -47.0346 -13.691 -25.1771 -46.0733 -13.691 -25.1771 -47.0346 -12.0643 
26.7057 -47.0346 -13.691 34.5884 -40.797 -13.691 34.5884 -47.0346 -6.09157 
-40.192 -38.4967 -13.691 -42.253 -36.7877 -13.691 -42.253 -38.4967 -11.239 
36.896 -38.4967 -13.691 43.1263 -30.5687 -13.691 43.1263 -38.4967 -6.76493 
-48.5445 -29.9587 -13.691 -50.7909 -26.0711 -13.691 -50.7909 -29.9587 -10.7727 
43.7026 -29.9587 -13.691 -54.0553 -21.4208 -13.691 -59.3289 -21.4208 -7.38554 
49.9244 -21.4208 -13.691 51.6643 -19.9261 -13.691 51.6643 -21.4208 -12.7439 
-57.1055 -12.8828 -13.691 -59.3289 -12.8828 -11.8628 58.1844 -12.8828 -13.691 
60.2022 -5.87317 -13.691 60.2022 -12.8828 -11.8352 -56.9329 -4.34491 -13.691 
-59.3289 -4.34491 -12.2256 60.5061 -4.34491 -13.691 -56.0493 4.19302 -13.691 
-59.3289 4.19302 -11.2607 60.9522 4.19302 -13.691 60.2022 6.16277 -13.691 
-52.9212 12.731 -13.691 -59.3289 12.731 -9.30422 -50.7909 15.7707 -13.691 
57.314 12.731 -13.691 51.6643 20.767 -13.691 60.2022 12.731 -11.5425 
-47.3213 21.2689 -13.691 -50.7909 21.2689 -11.7927 -42.253 27.4904 -13.691 
51.0488 21.2689 -13.691 51.6643 21.2689 -13.4551 60.2022 21.2689 -5.86755 
-50.7909 29.8068 -7.74411 -37.7436 29.8068 -13.691 -42.253 29.8068 -12.6392 
-33.7151 31.4387 -13.691 -25.1771 34.9521 -13.691 -16.6392 36.9139 -13.691 
17.5125 37.4202 -13.691 26.0505 38.1736 -13.691 34.5884 35.0984 -13.691 
44.1241 29.8068 -13.691 43.1263 30.4809 -13.691 51.6643 29.8068 -9.81728 
-42.253 38.3448 -6.4669 -33.7151 38.3448 -9.226 -25.1771 38.3448 -11.7249 
-13.4256 38.3448 -13.691 -16.6392 38.3448 -12.9633 -8.10127 39.7562 -13.691 
0.436665 40.8386 -13.691 14.7339 38.3448 -13.691 8.9746 39.4645 -13.691 
17.5125 38.3448 -13.26 26.0505 38.3448 -13.5924 34.5884 38.3448 -11.7438 
43.1263 38.3448 -8.22056 -8.10127 46.8827 -5.34159 0.436665 46.8827 -6.29437 
-25.1771 -49.358 -5.15307 -16.6392 -51.6362 -5.15307 -8.10127 -54.6799 -5.15307 
0.436665 -54.539 -5.15307 8.9746 -55.2317 -5.15307 17.5125 -54.3319 -5.15307 
26.0505 -52.1819 -5.15307 34.5884 -47.4902 -5.15307 -42.253 -41.623 -5.15307 
-31.606 -47.0346 -5.15307 -33.7151 -46.3197 -5.15307 -25.1771 -47.0346 -1.81658 
-16.6392 -47.0346 0.909806 -8.10127 -47.0346 3.11859 35.1611 -47.0346 -5.15307 
34.5884 -47.0346 -4.24809 43.1263 -39.5117 -5.15307 -46.4146 -38.4967 -5.15307 
-50.7909 -34.3374 -5.15307 -42.253 -38.4967 -0.366632 44.0211 -38.4967 -5.15307 
43.1263 -38.4967 -2.97897 -54.4184 -29.9587 -5.15307 -59.3289 -23.1958 -5.15307 
-50.7909 -29.9587 2.32154 50.8637 -29.9587 -5.15307 51.6643 -28.984 -5.15307 
-60.4317 -21.4208 -5.15307 -59.3289 -21.4208 3.28072 57.9163 -21.4208 -5.15307 
60.2022 -18.3624 -5.15307 -64.7887 -12.8828 -5.15307 63.7282 -12.8828 -5.15307 
-66.5669 -4.34491 -5.15307 -67.8668 -4.34491 1.8888 67.1925 -4.34491 -5.15307 
-65.4213 4.19302 -5.15307 -67.8668 4.19302 1.33096 67.73 4.19302 -5.15307 
-63.0382 12.731 -5.15307 -59.3289 21.0194 -5.15307 65.0302 12.731 -5.15307 
-59.2148 21.2689 -5.15307 -59.3289 21.2689 -4.89772 60.6413 21.2689 -5.15307 
60.2022 21.8742 -5.15307 -53.2546 29.8068 -5.15307 -50.7909 32.5193 -5.15307 
54.5525 29.8068 -5.15307 51.6643 33.0045 -5.15307 -43.8229 38.3448 -5.15307 
-42.253 39.4394 -5.15307 -33.7151 42.0888 -5.15307 -25.1771 43.9308 -5.15307 
-16.6392 45.7735 -5.15307 8.9746 46.715 -5.15307 17.5125 45.6481 -5.15307 
26.0505 45.308 -5.15307 34.5884 43.3666 -5.15307 45.6956 38.3448 -5.15307 
43.1263 40.1847 -5.15307 -9.00155 46.8827 -5.15307 -16.6392 46.8827 -0.991441 
-8.10127 46.9957 -5.15307 7.33405 46.8827 -5.15307 0.436665 47.5322 -5.15307 
8.9746 46.8827 -4.29866 17.5125 46.8827 2.89906 0.436665 -48.9106 3.38486 
8.9746 -49.2776 3.38486 17.5125 -49.0532 3.38486 26.0505 -47.2348 3.38486 
-33.7151 -40.6886 3.38486 -25.1771 -42.2638 3.38486 -16.6392 -44.2629 3.38486 
-6.86011 -47.0346 3.38486 -8.10127 -46.6478 3.38486 0.436665 -47.0346 4.5081 
8.9746 -47.0346 5.30617 17.5125 -47.0346 5.19485 26.3533 -47.0346 3.38486 
26.0505 -47.0346 3.52601 34.5884 -42.4091 3.38486 -37.7804 -38.4967 3.38486 
-42.253 -35.9455 3.38486 -33.7151 -38.4967 5.22378 -25.1771 -38.4967 6.39277 
-16.6392 -38.4967 7.37537 -8.10127 -38.4967 7.4257 0.436665 -38.4967 8.18825 
8.9746 -38.4967 8.9539 17.5125 -38.4967 9.23025 26.0505 -38.4967 9.17418 
39.4124 -38.4967 3.38486 34.5884 -38.4967 6.57463 43.1263 -34.8616 3.38486 
-50.1176 -29.9587 3.38486 -50.7909 -29.3761 3.38486 -42.253 -29.9587 7.92274 
-33.7151 -29.9587 8.91709 -25.1771 -29.9587 9.95751 -16.6392 -29.9587 10.6408 
-8.10127 -29.9587 10.4951 0.436665 -29.9587 10.8549 8.9746 -29.9587 11.7806 
34.5884 -29.9587 10.3724 47.5123 -29.9587 3.38486 43.1263 -29.9587 7.08715 
51.6643 -25.5869 3.38486 -59.3096 -21.4208 3.38486 -59.3289 -21.3992 3.38486 
-50.7909 -21.4208 9.64855 -42.253 -21.4208 11.4499 55.3274 -21.4208 3.38486 
51.6643 -21.4208 7.23971 60.2022 -15.5605 3.38486 -65.2993 -12.8828 3.38486 
-67.8668 -5.165 3.38486 -59.3289 -12.8828 11.055 62.0818 -12.8828 3.38486 
60.2022 -12.8828 6.13254 -68.0857 -4.34491 3.38486 -67.8668 -4.34491 3.94998 
66.3758 -4.34491 3.38486 -68.4624 4.19302 3.38486 -67.8668 6.9048 3.38486 
-67.8668 4.19302 5.50259 66.9993 4.19302 3.38486 -66.4778 12.731 3.38486 
65.0343 12.731 3.38486 -62.0614 21.2689 3.38486 -59.3289 25.5106 3.38486 
61.0703 21.2689 3.38486 60.2022 22.5039 3.38486 60.2022 21.2689 5.1758 
-56.0535 29.8068 3.38486 -50.7909 35.4544 3.38486 55.1227 29.8068 3.38486 
51.6643 33.6835 3.38486 51.6643 29.8068 10.5808 -47.1429 38.3448 3.38486 
-42.253 41.2619 3.38486 -42.253 38.3448 9.90834 -33.7151 44.7045 3.38486 
-25.1771 46.2951 3.38486 26.0505 46.3391 3.38486 34.5884 44.2923 3.38486 
46.4939 38.3448 3.38486 43.1263 40.7838 3.38486 43.1263 38.3448 9.38006 
-21.9536 46.8827 3.38486 -16.6392 47.8342 3.38486 -16.6392 46.8827 10.3016 
-8.10127 49.3813 3.38486 0.436665 49.4081 3.38486 8.9746 48.2264 3.38486 
8.9746 46.8827 9.94627 18.4605 46.8827 3.38486 17.5125 46.9494 3.38486 
17.5125 46.8827 3.63584 17.5125 -31.0186 11.9228 26.0505 -31.8749 11.9228 
-33.7151 -21.9681 11.9228 -25.1771 -22.0954 11.9228 -16.6392 -22.9198 11.9228 
-8.10127 -25.933 11.9228 0.436665 -26.8837 11.9228 11.2624 -29.9587 11.9228 
8.9746 -29.3698 11.9228 17.5125 -29.9587 12.3121 28.5987 -29.9587 11.9228 
26.0505 -29.9587 12.531 34.5884 -26.3982 11.9228 43.1263 -21.6849 11.9228 
-50.7909 -17.358 11.9228 -36.3324 -21.4208 11.9228 -42.253 -20.4558 11.9228 
-33.7151 -21.4208 12.1328 -25.1771 -21.4208 12.0846 -16.6392 -21.4208 12.1795 
-8.10127 -21.4208 13.7128 0.436665 -21.4208 14.0571 8.9746 -21.4208 13.8419 
17.5125 -21.4208 14.6012 26.0505 -21.4208 14.8266 34.5884 -21.4208 14.1205 
43.4392 -21.4208 11.9228 43.1263 -21.4208 12.0645 51.6643 -15.135 11.9228 
[...]
POINT_DATA 558
SCALARS ImageScalars float
LOOKUP_TABLE default
0 0 0 0 0 0 0 0 0 
0 0 0 0 0 0 0 0 0 
0 0 0 0 0 0 0 0 0 
0 0 0 0 0 0 0 0 0 
0 0 0 0 0 0 0 0 0 
0 0 0 0 0 0 0 0 0 
0 0 0 0 0 0 0 0 0 
0 0 0 0 0 0 0 0 0 
0 0 0 0 0 0 0 0 0 
0 0 0 0 0 0 0 0 0 
0 0 0 0 0 0 0 0 0 
0 0 0 0 0 0 0 0 0 
0 0 0 0 0 0 0 0 0 
0 0 0 0 0 0 0 0 0 
0 0 0 0 0 0 0 0 0 
0 0 0 0 0 0 0 0 0 
0 0 0 0 0 0 0 0 0 
0 0 0 0 0 0 0 0 0 
0 0 0 0 0 0 0 0 0 
0 0 0 0 0 0 0 0 0 
0 0 0 0 0 0 0 0 0 
0 0 0 0 0 0 0 0 0 
0 0 0 0 0 0 0 0 0 
0 0 0 0 0 0 0 0 0 
0 0 0 0 0 0 0 0 0 
0 0 0 0 0 0 0 0 0 
0 0 0 0 0 0 0 0 0 
0 0 0 0 0 0 0 0 0 
0 0 0 0 0 0 0 0 0 
0 0 0 0 0 0 0 0 0 
0 0 0 0 0 0 0 0 0 
0 0 0 0 0 0 0 0 0 
0 0 0 0 0 0 0 0 0 
0 0 0 0 0 0 0 0 0 
0 0 0 0 0 0 0 0 0 
0 0 0 0 0 0 0 0 0 
0 0 0 0 0 0 0 0 0 
0 0 0 0 0 0 0 0 0 
0 0 0 0 0 0 0 0 0 
0 0 0 0 0 0 0 0 0 
0 0 0 0 0 0 0 0 0 
0 0 0 0 0 0 0 0 0 
0 0 0 0 0 0 0 0 0 
0 0 0 0 0 0 0 0 0 
0 0 0 0 0 0 0 0 0 
0 0 0 0 0 0 0 0 0 
0 0 0 0 0 0 0 0 0 
0 0 0 0 0 0 0 0 0 
0 0 0 0 0 0 0 0 0 
0 0 0 0 0 0 0 0 0 
0 0 0 0 0 0 0 0 0 
0 0 0 0 0 0 0 0 0 
0 0 0 0 0 0 0 0 0 
0 0 0 0 0 0 0 0 0 
0 0 0 0 0 0 0 0 0 
0 0 0 0 0 0 0 0 0 
0 0 0 0 0 0 0 0 0 
0 0 0 0 0 0 0 0 0 
0 0 0 0 0 0 0 0 0 
0 0 0 0 0 0 0 0 0 
0 0 0 0 0 0 0 0 0 
0 0 0 0 0 0 0 0 0 

NORMALS Normals float
-0.118531 -0.622183 -0.773847 -0.0874923 -0.501808 -0.860543 -0.0611999 -0.437646 -0.897062 
0.0182511 -0.430624 -0.902347 0.113267 -0.478638 -0.870676 0.453426 -0.511327 -0.730034 
-0.245097 -0.431845 -0.868008 -0.128229 -0.247513 -0.960362 -0.0221861 -0.204576 -0.978599 
-0.0381571 -0.136634 -0.989886 -0.0410347 -0.0924534 -0.994871 0.0085918 -0.102688 -0.994677 
0.0755481 -0.153465 -0.985262 0.258057 -0.171098 -0.950859 0.374715 -0.354106 -0.856854 
-0.330802 -0.258278 -0.907669 -0.0940423 -0.157148 -0.983087 -0.00301775 -0.0333605 -0.999439 
0.00421246 0.00459851 -0.999981 0.0155567 0.0403151 -0.999066 -0.0248032 0.0549392 -0.998182 
-0.0306913 0.0438406 -0.998567 0.053654 0.0249305 -0.998248 0.13084 -0.0416415 -0.990529 
0.193133 -0.193473 -0.961908 0.436691 -0.370645 -0.819709 -0.400687 -0.2769 -0.873371 
-0.201615 -0.115445 -0.972637 -0.00212464 -0.0214746 -0.999767 0.0449537 0.0164394 -0.998854 
0.0546648 0.131082 -0.989863 0.00827148 0.0374863 -0.999263 -0.0367811 0.0434011 -0.99838 
-0.0188678 0.0432726 -0.998885 -0.00180906 0.137236 -0.990537 0.0233275 0.0441348 -0.998753 
0.111285 -0.0464244 -0.992704 0.265356 -0.195969 -0.944024 -0.337323 -0.0741896 -0.938461 
-0.12749 -0.0200595 -0.991637 0.0392657 -0.00605051 -0.99921 0.148645 0.0469586 -0.987775 
0.0305266 0.10075 -0.994443 -0.0803999 -0.143145 -0.986431 -0.0146973 0.108568 -0.99398 
0.0667308 -0.141928 -0.987625 0.0544553 0.104956 -0.992985 -0.0545291 0.0649425 -0.996398 
-0.0462099 -0.027563 -0.998551 0.0934022 -0.164049 -0.98202 0.288333 -0.215336 -0.933003 
-0.327075 0.0520669 -0.943563 -0.118119 0.0323771 -0.992471 0.0680749 0.0342288 -0.997093 
0.148257 0.0306553 -0.988474 -0.0878244 0.0274292 -0.995758 -0.0251406 -0.158944 -0.986968 
-0.0941502 0.184868 -0.978243 -0.038211 -0.260593 -0.964692 0.204463 0.0264525 -0.978517 
-0.10926 0.0146493 -0.993905 -0.104282 -0.0217954 -0.994309 0.0549667 -0.0364255 -0.997824 
0.250345 -0.0553497 -0.966573 0.548439 -0.083914 -0.83197 -0.358169 0.0997116 -0.928317 
-0.135051 0.0858435 -0.987113 0.0351232 0.0582292 -0.997685 0.143391 0.00611744 -0.989647 
-0.126068 -0.0305679 -0.991551 -0.00626806 0.153749 -0.98809 -0.0713659 -0.16425 -0.983834 
-0.106991 0.219012 -0.969838 0.26798 -0.0228202 -0.963154 -0.0869501 -0.00449172 -0.996203 
-0.104609 0.0290224 -0.99409 0.0499879 0.0438393 -0.997787 0.239461 0.0549023 -0.969352 
0.511214 0.106517 -0.852827 -0.35561 0.258879 -0.898067 -0.171114 0.163106 -0.971657 
-0.016785 0.103541 -0.994484 0.0639368 0.0190747 -0.997772 -0.0393754 -0.050944 -0.997925 
-0.0561809 0.101401 -0.993258 0.0347172 -0.116259 -0.992612 0.0675467 0.273532 -0.959488 
0.0218907 -0.034528 -0.999164 -0.066647 -0.0408789 -0.996939 -0.050586 0.0286053 -0.99831 
0.0901259 0.1592 -0.983124 0.303824 0.188113 -0.933972 -0.269556 0.232805 -0.93442 
-0.091067 0.188278 -0.977885 -0.0135646 0.085727 -0.996226 -0.0536115 0.0163998 -0.998427 
-0.0409983 0.0301606 -0.998704 0.0969567 -0.0122343 -0.995213 0.0384573 0.0332064 -0.998708 
-0.0553021 0.00866092 -0.998432 -0.0307264 0.0151699 -0.999413 0.0872668 0.103294 -0.990815 
0.231424 0.202941 -0.951451 -0.167878 0.380524 -0.909406 -0.116094 0.295889 -0.948141 
-0.105357 0.226385 -0.968323 -0.0792583 0.194348 -0.977725 0.0484813 0.13883 -0.989129 
0.0828078 0.12906 -0.988173 -0.000360345 0.210528 -0.977588 0.0317873 0.226839 -0.973413 
0.14841 0.297282 -0.943185 0.276064 0.345969 -0.896713 -0.129302 0.508582 -0.851249 
0.0174238 0.473304 -0.880727 0.116693 0.461238 -0.879569 -0.166854 -0.76139 -0.626454 
-0.113556 -0.70276 -0.702306 -0.0737805 -0.766874 -0.637543 0.0235174 -0.728651 -0.684481 
0.127022 -0.731049 -0.670398 0.461605 -0.542025 -0.702232 -0.309785 -0.661068 -0.683391 
-0.323976 -0.751416 -0.574816 -0.348255 -0.729045 -0.589247 -0.372374 -0.834066 -0.407027 
0.472964 -0.528418 -0.705039 0.42388 -0.446959 -0.787752 0.592807 -0.803617 -0.0527272 
-0.436934 -0.591984 -0.677232 -0.464904 -0.559343 -0.686294 -0.542543 -0.719453 -0.433629 
0.452962 -0.408338 -0.792518 0.455491 -0.388857 -0.800824 0.745416 -0.647075 -0.16015 
-0.577908 -0.357614 -0.733577 -0.536952 -0.345013 -0.769837 -0.727293 -0.497552 -0.472743 
0.454998 -0.388566 -0.801245 -0.518039 -0.306889 -0.798408 -0.83686 -0.464732 -0.289292 
0.43179 -0.368223 -0.823388 0.435893 -0.380325 -0.81569 0.509641 -0.442289 -0.738001 
-0.600684 -0.086053 -0.794842 -0.710814 -0.132631 -0.690762 0.564431 -0.294447 -0.77118 
0.569055 -0.123427 -0.812984 0.704842 -0.36089 -0.610702 -0.51285 0.0370372 -0.857679 
-0.608302 0.0279735 -0.793213 0.556315 -0.0866267 -0.826444 -0.524694 0.100273 -0.845364 
-0.637974 0.115278 -0.76138 0.530728 0.107203 -0.840735 0.53552 0.13924 -0.832965 
-0.418505 0.267734 -0.867855 -0.676851 0.274601 -0.682984 -0.40411 0.28001 -0.870798 
0.505138 0.237891 -0.829604 0.385985 0.303223 -0.871247 0.663654 0.29215 -0.68863 
-0.406875 0.272732 -0.87182 -0.502611 0.319865 -0.803162 -0.294114 0.373813 -0.879637 
0.380249 0.302591 -0.873985 0.399121 0.315584 -0.860877 0.777218 0.545676 -0.313321 
-0.606314 0.529218 -0.593558 -0.225653 0.406721 -0.885245 -0.309887 0.438957 -0.843378 
-0.176588 0.42721 -0.88674 -0.146471 0.462098 -0.87465 -0.137045 0.466553 -0.873812 
0.0405259 0.483938 -0.874163 0.0616644 0.520176 -0.85183 0.184019 0.467355 -0.864706 
0.308514 0.362979 -0.879241 0.286719 0.371152 -0.883198 0.619052 0.545781 -0.564711 
-0.417269 0.739502 -0.528226 -0.224023 0.691876 -0.686382 -0.168783 0.60791 -0.775859 
-0.13724 0.514878 -0.846207 -0.143223 0.529868 -0.835899 -0.127483 0.560941 -0.817981 
0.00987604 0.583726 -0.811891 0.0714145 0.499353 -0.86345 0.117443 0.5103 -0.85194 
0.0495659 0.528327 -0.847593 0.0628504 0.529438 -0.846017 0.208864 0.633464 -0.745049 
0.480347 0.736264 -0.476636 -0.089962 0.899328 -0.42792 0.0133275 0.904968 -0.425271 
-0.295284 -0.942317 0.157624 -0.265254 -0.953022 0.146251 -0.167327 -0.981539 0.0926386 
-0.0371119 -0.995155 0.0910445 0.0129938 -0.983748 0.179084 0.171063 -0.977767 0.121281 
0.375733 -0.925121 0.0545535 0.58696 -0.809578 0.00785766 -0.561585 -0.825482 0.0565897 
-0.368757 -0.919369 0.137037 -0.389804 -0.912651 0.122967 -0.286523 -0.880585 0.377459 
-0.204296 -0.734642 0.646965 -0.167485 -0.541259 0.824007 0.598258 -0.8013 0.00250149 
0.581509 -0.811624 0.0557993 0.742061 -0.667659 -0.0598084 -0.641611 -0.766159 0.0365505 
-0.730077 -0.683057 -0.0205122 -0.50694 -0.793171 0.337478 0.752579 -0.656318 -0.0535953 
0.752289 -0.653105 0.0866922 -0.770592 -0.636148 -0.038766 -0.839849 -0.528511 -0.123809 
-0.643944 -0.583312 0.495059 0.768122 -0.638577 -0.0469918 0.767895 -0.63837 -0.05312 
-0.852723 -0.499209 -0.1538 -0.70587 -0.613648 0.353813 0.777837 -0.619615 -0.1051 
0.805424 -0.584259 -0.0996666 -0.896062 -0.300537 -0.326727 0.869354 -0.475592 -0.134296 
-0.898412 -0.0529568 -0.435949 -0.989415 -0.14176 0.0310139 0.954612 -0.216786 -0.204254 
-0.836034 0.15006 -0.527759 -0.987912 0.100549 -0.117982 0.97083 0.12252 -0.206102 
-0.792971 0.31229 -0.523136 -0.76549 0.408053 -0.497511 0.890338 0.357109 -0.282439 
-0.763524 0.411344 -0.497822 -0.771097 0.415751 -0.482246 0.789763 0.549799 -0.272021 
0.786967 0.553879 -0.271847 -0.675915 0.570924 -0.466031 -0.63642 0.621348 -0.457051 
0.739413 0.61455 -0.274949 0.695159 0.663203 -0.277336 -0.469992 0.755139 -0.457026 
-0.42785 0.781975 -0.453276 -0.22514 0.834101 -0.503575 -0.182056 0.867269 -0.463358 
-0.156477 0.889333 -0.429653 0.100911 0.927632 -0.359605 0.0751368 0.92519 -0.371991 
0.131633 0.932827 -0.335421 0.271191 0.909818 -0.314145 0.567776 0.768524 -0.29496 
0.492851 0.817467 -0.29807 -0.0963111 0.902691 -0.419373 -0.165138 0.961769 -0.21847 
-0.0897126 0.902811 -0.420576 0.0843039 0.928582 -0.361425 0.0162958 0.924549 -0.380715 
0.105756 0.941598 -0.319701 0.108031 0.993293 0.0412095 -0.0908202 -0.581956 0.808133 
-0.00118633 -0.657543 0.753416 0.0763002 -0.687907 0.721777 0.311801 -0.604677 0.732902 
-0.23814 -0.643536 0.727427 -0.155427 -0.638135 0.754073 -0.146869 -0.578429 0.802402 
-0.157979 -0.524432 0.836668 -0.160191 -0.520914 0.838443 -0.118123 -0.501216 0.857222 
-0.0374017 -0.566672 0.823094 0.0900424 -0.603757 0.792066 0.31782 -0.60415 0.730748 
0.309765 -0.596996 0.740028 0.411796 -0.673264 0.614117 -0.320801 -0.655857 0.683328 
-0.386533 -0.669403 0.634423 -0.21595 -0.560895 0.799226 -0.118692 -0.498698 0.858611 
-0.0486822 -0.459855 0.886658 -0.0457403 -0.394425 0.917789 -0.0866107 -0.351843 0.932043 
-0.060163 -0.365406 0.928902 -0.0137046 -0.397303 0.917585 0.139754 -0.472093 0.870401 
0.556396 -0.57458 0.600234 0.381032 -0.502302 0.776214 0.624814 -0.549893 0.554279 
-0.591254 -0.560498 0.57988 -0.602295 -0.562187 0.566733 -0.277069 -0.425756 0.861374 
-0.112427 -0.377731 0.919064 -0.0989282 -0.295914 0.950078 -0.0290734 -0.254292 0.96669 
-0.0120739 -0.336862 0.941477 -0.0721328 -0.316302 0.945912 -0.0814372 -0.281436 0.956118 
0.270201 -0.400637 0.87549 0.628448 -0.589062 0.507996 0.489554 -0.516648 0.702433 
0.648395 -0.61303 0.451417 -0.702351 -0.61397 0.3602 -0.702858 -0.613748 0.359588 
-0.329294 -0.545264 0.770878 -0.123751 -0.427189 0.895654 0.670135 -0.616315 0.413612 
0.54056 -0.583125 0.606432 0.739959 -0.57015 0.356916 -0.859712 -0.464952 0.211459 
-0.976225 -0.179778 0.121101 -0.519174 -0.506819 0.688181 0.777494 -0.529755 0.338914 
0.695212 -0.540796 0.473518 -0.981245 -0.152991 0.117272 -0.975967 -0.158626 0.149421 
0.922677 -0.246765 0.296266 -0.996121 0.0878236 -0.00552425 -0.985776 0.167875 -0.00799581 
-0.989459 0.0679598 0.127879 0.958977 0.0707467 0.274516 -0.938347 0.345359 -0.0152407 
0.927339 0.303572 0.218829 -0.865683 0.499797 -0.0282055 -0.819985 0.572325 -0.00831689 
0.838022 0.515848 0.177821 0.831213 0.528275 0.173234 0.82076 0.509369 0.258642 
-0.758017 0.650987 0.0403248 -0.667817 0.74227 0.055281 0.764733 0.624656 0.158073 
0.710344 0.686348 0.156004 0.65383 0.565742 0.502436 -0.566785 0.821269 0.0653568 
-0.446118 0.891608 0.0775539 -0.444744 0.767828 0.461132 -0.28481 0.958371 0.0201869 
-0.180713 0.983409 -0.0157899 0.160533 0.980201 0.11591 0.292738 0.950186 0.107005 
0.606866 0.780702 0.149054 0.516007 0.844309 0.144494 0.498728 0.741872 0.448215 
-0.174704 0.98428 -0.0259213 -0.171386 0.984449 -0.0385704 -0.187357 0.931867 0.31068 
-0.0917114 0.994717 -0.0461228 0.0666472 0.997101 -0.0367242 0.142782 0.989689 0.0113935 
0.190779 0.923624 0.332449 0.115365 0.99092 0.0690545 0.109548 0.99195 0.0635096 
0.111738 0.990872 0.0754133 -0.0444396 -0.316335 0.947606 0.11045 -0.327062 0.938526 
-0.0404958 -0.350392 0.935727 -0.0108943 -0.237795 0.971254 -0.0719978 -0.15001 0.986059 
-0.0481591 -0.345517 0.937176 -0.0529169 -0.353285 0.934018 -0.0711861 -0.287633 0.955092 
-0.0788472 -0.280742 0.956539 -0.042597 -0.303544 0.951865 0.152875 -0.32023 0.934924 
0.103444 -0.290173 0.951367 0.213538 -0.394482 0.893748 0.310147 -0.466699 0.828252 
-0.260602 -0.492041 0.830651 -0.0611002 -0.373332 0.925684 -0.112953 -0.427796 0.89679 
-0.0340044 -0.349114 0.936463 -0.00279272 -0.234282 0.972165 -0.0832684 -0.132054 0.987739 
-0.109019 -0.375987 0.920189 -0.00580579 -0.426738 0.904357 -0.0325672 -0.283674 0.958368 
-0.054877 -0.240431 0.969114 0.0250498 -0.295162 0.955119 0.142089 -0.390827 0.909431 
0.312498 -0.469604 0.825723 0.306775 -0.466923 0.829381 0.438941 -0.49311 0.751114 
-0.437172 -0.492882 0.752295 -0.501936 -0.459763 0.732584 -0.206789 -0.449934 0.868791 
-0.0388079 -0.421219 0.906128 0.0890873 -0.365445 0.92656 0.129153 -0.284194 0.950028 
-0.148199 -0.19687 0.969164 -0.326736 -0.283881 0.901474 0.0383543 -0.212953 0.976309 
0.10057 -0.332929 0.937574 -0.0376512 -0.178681 0.983186 -0.0639985 -0.263828 0.962444 
0.0422179 -0.361803 0.931298 0.203294 -0.434646 0.877356 0.469912 -0.483884 0.738268 
0.430364 -0.473643 0.768407 0.623899 -0.335925 0.705623 -0.663478 -0.261683 0.700941 
-0.524396 -0.288228 0.801208 -0.198348 -0.300264 0.933006 -0.0239274 -0.300863 0.953367 
0.110831 -0.30552 0.945714 0.140829 -0.343366 0.928583 -0.0829951 -0.426532 0.900657 
-0.109923 -0.164668 0.980205 -0.0663289 -0.0871319 0.993986 0.0467908 -0.223694 0.973536 
0.0104122 -0.110525 0.993819 -0.164382 -0.169148 0.971786 0.137572 -0.242997 0.960222 
0.391959 -0.267423 0.880257 0.672758 -0.27394 0.68728 0.623863 -0.286034 0.72731 
-0.803168 -0.00755783 0.595705 -0.521416 -0.0502043 0.851824 0.0461988 -0.21604 0.975291 
-0.0257736 -0.285584 0.958007 0.0046367 -0.178407 0.983946 -0.0247586 -0.105551 0.994106 
0.386184 -0.0213065 0.922176 0.752233 0.0354791 0.657941 0.663196 0.0277831 0.74793 
-0.776374 0.289936 0.559625 -0.588156 0.254149 0.767777 -0.245946 0.165767 0.955004 
0.0921392 0.000490008 0.995746 -0.057396 -0.101039 0.993225 0.434606 0.171969 0.88405 
0.736482 0.256107 0.626102 0.730883 0.273912 0.625125 0.72548 0.254724 0.63937 
-0.725737 0.457325 0.513964 -0.713433 0.472144 0.517778 -0.708791 0.456979 0.537388 
-0.394827 0.327614 0.858359 -0.0260933 -0.0177945 0.999501 0.274229 0.256365 0.926863 
0.652971 0.411552 0.635809 0.623659 0.51564 0.587507 0.543006 0.335755 0.769684 
-0.587425 0.577722 0.566718 -0.580942 0.582717 0.568285 -0.574311 0.56756 0.589951 
-0.419868 0.678388 0.602909 -0.281899 0.431056 0.85716 -0.179141 0.31816 0.930958 
0.0588037 0.173618 0.983056 0.0137895 0.26012 0.965478 0.182488 0.355954 0.916512 
0.604628 0.537021 0.588247 0.453756 0.65168 0.607799 0.382653 0.451899 0.805831 
-0.397545 0.697489 0.596211 -0.307178 0.744079 0.593285 -0.299195 0.611634 0.732384 
-0.240607 0.82599 0.509754 -0.21582 0.530469 0.819771 -0.189286 0.893018 0.408277 
-0.168296 0.435584 0.884275 0.20312 0.872859 0.443688 0.21129 0.40486 0.889632 
0.181822 0.808433 0.5598 0.168414 0.517379 0.839021 0.165587 0.778675 0.605182 
0.160072 0.568712 0.806811 0.381387 0.682254 0.623758 0.267963 0.712159 0.648864 
0.24784 0.640247 0.727089 -0.166634 0.900577 0.401489 -0.0859893 0.90907 0.407672 
-0.083951 0.870705 0.484587 0.171342 0.88914 0.424348 0.0799838 0.913697 0.398448 
0.0808623 0.857355 0.508333 -0.0443077 -0.236294 0.970671 -0.171711 -0.0978281 0.980278 
-0.0231957 -0.182103 0.983006 0.0735257 -0.189628 0.979099 -0.000484918 -0.16978 0.985482 
0.0788072 -0.0875729 0.993036 -0.0610366 -0.223642 0.972758 -0.180132 -0.0931175 0.979225 
0.0508144 -0.23776 0.969994 -0.0471878 -0.229855 0.97208 0.139995 -0.223972 0.964488 
-0.187905 -0.0861306 0.978403 -0.180403 -0.0534313 0.98214 -0.17221 -0.0876813 0.98115 
-0.0196156 -0.105635 0.994211 0.0519806 -0.192452 0.979929 0.0625586 -0.155317 0.985882 
0.0308027 -0.167228 0.985437 -0.00282938 -0.210382 0.977615 -0.0303045 -0.244597 0.969151 
0.00793076 -0.172295 0.985013 0.00911496 -0.171417 0.985156 0.0777599 -0.026192 0.996628 
0.0537032 -0.138167 0.988952 0.0931458 0.0100582 0.995602 0.0988381 0.0163783 0.994969 
0.102763 0.0203616 0.994497 -0.169102 -0.0823337 0.982154 -0.182321 -0.0802241 0.979961 
-0.0526338 -0.0615873 0.996713 0.252661 -0.0332973 0.966982 0.165253 -0.0459922 0.985178 
-0.163342 0.098593 0.981631 -0.0962754 0.044386 0.994365 -2.02555e-05 -0.00711732 0.999975 
0.000732288 -0.0676612 0.997708 -0.0418483 -0.0962473 0.994477 0.0318441 -0.095302 0.994939 
0.0982214 -0.0469849 0.994055 0.102687 -0.0979222 0.989882 0.0875098 -0.0430661 0.995232 
-0.10469 -0.0443316 0.993516 -0.128938 -0.0183136 0.991484 -0.0116146 0.0364397 0.999268 
0.242105 0.100081 0.965074 0.237774 0.187808 0.952991 0.18136 0.0863604 0.979618 
-0.181938 0.204871 0.961731 -0.177209 0.207376 0.962077 -0.175511 0.20175 0.963583 
-0.0828118 0.198584 0.976579 -0.0498753 0.154959 0.986661 -0.0481146 0.0306663 0.998371 
-0.0572111 -0.00568363 0.998346 0.00562436 -0.0203705 0.999777 0.107147 -0.0566875 0.992626 
0.0719179 -0.0417966 0.996534 0.0872677 -0.0455421 0.995143 -0.0311821 0.00336939 0.999508 
-0.0260956 0.143091 0.989365 -0.0481636 0.0659939 0.996657 0.189038 0.203998 0.960546 
0.111802 0.227909 0.967242 0.0548539 0.123477 0.99083 -0.156556 0.199128 0.967387 
-0.157241 0.204433 0.966169 -0.154468 0.189136 0.969725 -0.12106 0.266795 0.95612 
-0.0937234 0.156892 0.983159 -0.0183775 0.0963714 0.995176 0.0778533 0.0607487 0.995112 
0.104352 0.106037 0.988871 0.145462 0.136323 0.979927 0.127314 0.0721797 0.989233 
-0.103852 0.35918 0.927472 -0.0970142 0.366212 0.925461 -0.0963383 0.353684 0.930391 
0.108764 0.338123 0.934796 0.0825792 0.354433 0.931428 0.0799767 0.32718 0.941571 

