# vtk DataFile Version 4.2
vtk output
ASCII
DATASET POLYDATA
POINTS 552 float
-22.0181 -35.5236 -12.9597 -14.1572 -35.5236 -12.9853 -6.29623 -35.5236 -12.9544 
1.56473 -35.5236 -12.7602 9.42568 -35.5236 -13.2999 17.2866 -35.5236 -13.5503 
25.1476 -35.5236 -14.4669 33.0086 -35.5236 -13.6224 40.8695 -35.5236 -12.0376 
-37.7401 -27.6626 -12.2561 -29.8791 -27.6626 -13.5686 -22.0181 -27.6626 -14.5154 
-14.1572 -27.6626 -14.1695 -6.29623 -27.6626 -13.5644 1.56473 -27.6626 -13.0336 
9.42568 -27.6626 -13.7523 17.2866 -27.6626 -14.7459 25.1476 -27.6626 -16.4853 
33.0086 -27.6626 -15.2897 40.8695 -27.6626 -15.5236 48.7305 -27.6626 -12.5679 
-45.601 -19.8016 -11.8778 -37.7401 -19.8016 -13.9336 -29.8791 -19.8016 -15.3486 
-22.0181 -19.8016 -14.8683 -14.1572 -19.8016 -14.1825 -6.29623 -19.8016 -13.0201 
1.56473 -19.8016 -11.9379 9.42568 -19.8016 -12.8891 17.2866 -19.8016 -14.4274 
25.1476 -19.8016 -15.5586 33.0086 -19.8016 -17.5428 40.8695 -19.8016 -15.4601 
48.7305 -19.8016 -14.1283 -45.601 -11.9407 -14.2024 -37.7401 -11.9407 -15.2514 
-29.8791 -11.9407 -15.466 -22.0181 -11.9407 -14.8075 -14.1572 -11.9407 -13.8005 
-6.29623 -11.9407 -12.8087 17.2866 -11.9407 -13.3392 25.1476 -11.9407 -15.2131 
33.0086 -11.9407 -16.2462 40.8695 -11.9407 -16.3681 48.7305 -11.9407 -15.9309 
56.5914 -11.9407 -12.1442 -45.601 -4.07972 -14.9667 -37.7401 -4.07972 -16.3218 
-29.8791 -4.07972 -15.9771 -22.0181 -4.07972 -15.241 -14.1572 -4.07972 -15.4165 
-6.29623 -4.07972 -15.5939 1.56473 -4.07972 -14.3842 17.2866 -4.07972 -12.6985 
25.1476 -4.07972 -15.0598 33.0086 -4.07972 -16.4682 40.8695 -4.07972 -17.0691 
48.7305 -4.07972 -15.8015 56.5914 -4.07972 -11.8997 -53.462 3.78124 -11.7579 
-45.601 3.78124 -14.9691 -37.7401 3.78124 -16.4644 -29.8791 3.78124 -16.3645 
-22.0181 3.78124 -15.2 -14.1572 3.78124 -16.3666 -6.29623 3.78124 -18.34 
1.56473 3.78124 -14.4145 9.42568 3.78124 -17.2947 17.2866 3.78124 -14.5768 
25.1476 3.78124 -16.2217 33.0086 3.78124 -17.1188 40.8695 3.78124 -17.2476 
48.7305 3.78124 -15.8536 56.5914 3.78124 -11.9064 -53.462 11.6422 -12.0947 
-45.601 11.6422 -15.2317 -37.7401 11.6422 -17.2191 -29.8791 11.6422 -16.6737 
-22.0181 11.6422 -15.7955 -14.1572 11.6422 -14.8003 -6.29623 11.6422 -16.8604 
1.56473 11.6422 -16.9381 9.42568 11.6422 -15.0996 17.2866 11.6422 -15.7294 
25.1476 11.6422 -16.8086 33.0086 11.6422 -17.3459 40.8695 11.6422 -16.9242 
48.7305 11.6422 -15.144 56.5914 11.6422 -12.012 -53.462 19.5032 -12.312 
-45.601 19.5032 -15.205 -37.7401 19.5032 -16.9977 -29.8791 19.5032 -16.9142 
-22.0181 19.5032 -16.3283 -14.1572 19.5032 -16.143 -6.29623 19.5032 -15.5424 
1.56473 19.5032 -15.8094 9.42568 19.5032 -15.9018 17.2866 19.5032 -16.5469 
25.1476 19.5032 -17.3145 33.0086 19.5032 -16.9762 40.8695 19.5032 -16.0379 
48.7305 19.5032 -13.911 -45.601 27.3641 -13.6443 -37.7401 27.3641 -15.8017 
-29.8791 27.3641 -17.9322 -22.0181 27.3641 -17.0487 -14.1572 27.3641 -17.3434 
-6.29623 27.3641 -16.472 1.56473 27.3641 -16.6378 9.42568 27.3641 -16.7247 
17.2866 27.3641 -17.0577 25.1476 27.3641 -16.4589 33.0086 27.3641 -16.0513 
40.8695 27.3641 -15.1053 48.7305 27.3641 -12.563 -37.7401 35.2251 -14.3543 
-29.8791 35.2251 -15.4961 -22.0181 35.2251 -17.0497 -14.1572 35.2251 -16.4565 
-6.29623 35.2251 -16.4714 1.56473 35.2251 -16.475 9.42568 35.2251 -16.1939 
17.2866 35.2251 -16.6166 25.1476 35.2251 -14.7829 33.0086 35.2251 -13.3299 
-29.8791 43.086 -12.011 -22.0181 43.086 -13.796 -14.1572 43.086 -14.9 
-6.29623 43.086 -14.613 1.56473 43.086 -14.5499 9.42568 43.086 -14.3594 
17.2866 43.086 -12.5486 -29.8791 -43.3845 -5.41789 -22.0181 -39.0116 -11.6621 
-22.0181 -43.3845 -8.92074 -14.1572 -39.0506 -11.6621 -14.1572 -43.3845 -9.75721 
-6.29623 -39.4327 -11.6621 -6.29623 -43.3845 -10.2355 1.56473 -39.3166 -11.6621 
1.56473 -43.3845 -10.3229 9.42568 -39.6593 -11.6621 9.42568 -43.3845 -9.89414 
17.2866 -39.6539 -11.6621 17.2866 -43.3845 -9.34966 25.1476 -40.1973 -11.6621 
25.1476 -43.3845 -7.19805 33.0086 -38.2228 -11.6621 40.8695 -35.9454 -11.6621 
-37.7401 -29.3789 -11.6621 -37.7401 -35.5236 -8.69092 -27.6496 -35.5236 -11.6621 
-29.8791 -33.7806 -11.6621 -29.8791 -35.5236 -11.0464 41.4535 -35.5236 -11.6621 
48.7305 -29.008 -11.6621 -39.9553 -27.6626 -11.6621 -45.601 -20.7628 -11.6621 
-45.601 -27.6626 -9.5682 49.9236 -27.6626 -11.6621 -46.085 -19.8016 -11.6621 
-53.462 -19.8016 -7.70327 1.56473 -18.5127 -11.6621 9.42568 -15.163 -11.6621 
54.2499 -19.8016 -11.6621 56.5914 -14.8482 -11.6621 56.5914 -19.8016 -9.95223 
-52.9274 -11.9407 -11.6621 -53.462 -11.9407 -11.3846 -2.97445 -11.9407 -11.6621 
1.56473 -8.66349 -11.6621 1.56473 -11.9407 -10.2131 12.0848 -11.9407 -11.6621 
9.42568 -11.9407 -10.7994 57.2056 -11.9407 -11.6621 -52.5258 -4.07972 -11.6621 
-53.462 2.70565 -11.6621 -53.462 -4.07972 -11.0458 7.18259 -4.07972 -11.6621 
12.9562 -4.07972 -11.6621 9.42568 -2.68481 -11.6621 9.42568 -4.07972 -10.6674 
56.9091 -4.07972 -11.6621 -53.6046 3.78124 -11.6621 -61.3229 3.78124 -4.02448 
56.9165 3.78124 -11.6621 -54.0071 11.6422 -11.6621 57.0198 11.6422 -11.6621 
56.5914 13.3051 -11.6621 -54.2408 19.5032 -11.6621 -53.462 21.4786 -11.6621 
53.3396 19.5032 -11.6621 56.5914 19.5032 -9.1735 -49.1074 27.3641 -11.6621 
-53.462 27.3641 -6.81845 -45.601 33.6626 -11.6621 40.8695 32.1858 -11.6621 
49.8882 27.3641 -11.6621 48.7305 28.6434 -11.6621 -44.3302 35.2251 -11.6621 
-45.601 35.2251 -10.3066 -37.7401 39.8919 -11.6621 25.1476 40.5091 -11.6621 
36.4207 35.2251 -11.6621 33.0086 37.394 -11.6621 40.8695 35.2251 -8.8321 
-31.086 43.086 -11.6621 -29.8791 43.4558 -11.6621 -22.0181 46.3846 -11.6621 
-14.1572 48.4444 -11.6621 -6.29623 47.4775 -11.6621 1.56473 47.2684 -11.6621 
9.42568 47.0005 -11.6621 20.1425 43.086 -11.6621 17.2866 44.1981 -11.6621 
25.1476 43.086 -8.54212 -6.29623 50.947 -5.66186 1.56473 50.947 -4.59992 
-29.8791 -44.6322 -3.8011 -22.0181 -47.2344 -3.8011 -14.1572 -49.5525 -3.8011 
-6.29623 -50.5893 -3.8011 -6.29623 -51.2455 2.41723 1.56473 -50.2532 -3.8011 
9.42568 -48.8009 -3.8011 17.2866 -47.2134 -3.8011 25.1476 -45.0823 -3.8011 
-32.2058 -43.3845 -3.8011 -37.7401 -39.7878 -3.8011 29.832 -43.3845 -3.8011 
25.1476 -43.3845 2.18526 33.0086 -42.2169 -3.8011 40.8695 -38.5161 -3.8011 
-43.8471 -35.5236 -3.8011 -45.601 -33.9966 -3.8011 -45.601 -35.5236 1.93198 
45.4681 -35.5236 -3.8011 48.7305 -33.1383 -3.8011 -51.2487 -27.6626 -3.8011 
-53.462 -24.9878 -3.8011 54.2595 -27.6626 -3.8011 56.5914 -24.5975 -3.8011 
-56.4756 -19.8016 -3.8011 59.7352 -19.8016 -3.8011 -59.174 -11.9407 -3.8011 
62.3075 -11.9407 -3.8011 -60.754 -4.07972 -3.8011 -61.3229 2.09255 -3.8011 
-61.3229 -4.07972 3.38501 63.6728 -4.07972 -3.8011 -61.4473 3.78124 -3.8011 
-61.3229 5.1561 -3.8011 -61.3229 3.78124 -1.03632 63.7142 3.78124 -3.8011 
-60.6926 11.6422 -3.8011 62.2745 11.6422 -3.8011 -58.4735 19.5032 -3.8011 
59.6551 19.5032 -3.8011 56.5914 24.3928 -3.8011 -54.9882 27.3641 -3.8011 
-53.462 29.2903 -3.8011 -53.462 27.3641 0.293032 54.4498 27.3641 -3.8011 
48.7305 33.1012 -3.8011 -48.2196 35.2251 -3.8011 -45.601 37.5569 -3.8011 
-45.601 35.2251 1.24432 -37.7401 43.0631 -3.8011 33.0086 42.1164 -3.8011 
45.8575 35.2251 -3.8011 40.8695 38.4081 -3.8011 -37.6944 43.086 -3.8011 
-29.8791 46.723 -3.8011 -29.8791 43.086 3.70246 -22.0181 49.1925 -3.8011 
-14.1572 50.7411 -3.8011 9.42568 49.981 -3.8011 17.2866 47.8656 -3.8011 
30.6419 43.086 -3.8011 25.1476 45.3319 -3.8011 -12.2682 50.947 -3.8011 
-6.29623 51.5893 -3.8011 -6.29623 50.947 -2.05593 3.22878 50.947 -3.8011 
1.56473 51.2022 -3.8011 1.56473 50.947 -3.02654 -6.29623 -51.3839 4.05986 
-29.8791 -46.0002 4.05986 -22.0181 -48.9487 4.05986 -8.45533 -51.2455 4.05986 
-14.1572 -50.8527 4.05986 -4.4048 -51.2455 4.05986 -6.29623 -51.2455 4.37344 
1.56473 -50.6952 4.05986 9.42568 -48.2715 4.05986 17.2866 -45.1951 4.05986 
-45.601 -35.9377 4.05986 -34.7685 -43.3845 4.05986 -37.7401 -41.712 4.05986 
-29.8791 -43.3845 8.78629 9.42568 -43.3845 9.90799 23.2033 -43.3845 4.05986 
17.2866 -43.3845 6.31542 25.1476 -42.663 4.05986 33.0086 -39.14 4.05986 
40.8695 -35.9606 4.05986 -46.0804 -35.5236 4.05986 -45.601 -35.5236 4.97102 
25.1476 -35.5236 10.3243 33.0086 -35.5236 7.61415 41.596 -35.5236 4.05986 
40.8695 -35.5236 4.6815 48.7305 -30.6962 4.05986 -53.0732 -27.6626 4.05986 
-53.462 -27.0754 4.05986 40.8695 -27.6626 10.7137 52.1131 -27.6626 4.05986 
48.7305 -27.6626 7.46851 56.5914 -22.3018 4.05986 -57.4471 -19.8016 4.05986 
48.7305 -19.8016 11.51 58.3529 -19.8016 4.05986 56.5914 -19.8016 6.38177 
-59.9959 -11.9407 4.05986 -61.3229 -4.34054 4.05986 61.4712 -11.9407 4.05986 
56.5914 -11.9407 10.7025 -61.3658 -4.07972 4.05986 -61.3229 -2.84566 4.05986 
-61.3229 -4.07972 4.14235 63.4625 -4.07972 4.05986 56.5914 -4.07972 11.792 
-61.0411 3.78124 4.05986 63.616 3.78124 4.05986 -59.9829 11.6422 4.05986 
62.0088 11.6422 4.05986 -57.0239 19.5032 4.05986 -53.462 25.3191 4.05986 
-53.462 19.5032 8.49618 59.3774 19.5032 4.05986 56.5914 23.7754 4.05986 
56.5914 19.5032 8.47889 -51.3685 27.3641 4.05986 -45.601 33.2357 4.05986 
-45.601 27.3641 8.86955 -37.7401 27.3641 11.2384 53.7622 27.3641 4.05986 
48.7305 32.0827 4.05986 48.7305 27.3641 10.3792 -42.6738 35.2251 4.05986 
-37.7401 37.9734 4.05986 -37.7401 35.2251 6.60612 -29.8791 42.7933 4.05986 
-29.8791 35.2251 8.8648 -22.0181 35.2251 10.4629 -14.1572 35.2251 11.3606 
-6.29623 35.2251 11.7953 33.0086 40.839 4.05986 33.0086 35.2251 9.80498 
43.9571 35.2251 4.05986 40.8695 37.0098 4.05986 40.8695 35.2251 7.27265 
-29.3205 43.086 4.05986 -22.0181 45.4491 4.05986 -22.0181 43.086 6.39964 
-14.1572 46.2887 4.05986 -14.1572 43.086 7.12896 -6.29623 47.7446 4.05986 
-6.29623 43.086 7.9801 1.56473 47.7791 4.05986 1.56473 43.086 8.40979 
9.42568 46.9175 4.05986 9.42568 43.086 8.17681 17.2866 45.2736 4.05986 
17.2866 43.086 6.79766 26.7404 43.086 4.05986 25.1476 43.5447 4.05986 
25.1476 43.086 4.72281 -22.0181 -44.2719 11.9208 -14.1572 -46.2485 11.9208 
-6.29623 -46.2333 11.9208 1.56473 -44.9651 11.9208 -37.7401 -36.4633 11.9208 
-24.2172 -43.3845 11.9208 -29.8791 -41.0409 11.9208 -22.0181 -43.3845 12.6627 
[...]
POINT_DATA 552
SCALARS ImageScalars float
LOOKUP_TABLE default
0 0 0 0 0 0 0 0 0 
0 0 0 0 0 0 0 0 0 
0 0 0 0 0 0 0 0 0 
0 0 0 0 0 0 0 0 0 
0 0 0 0 0 0 0 0 0 
0 0 0 0 0 0 0 0 0 
0 0 0 0 0 0 0 0 0 
0 0 0 0 0 0 0 0 0 
0 0 0 0 0 0 0 0 0 
0 0 0 0 0 0 0 0 0 
0 0 0 0 0 0 0 0 0 
0 0 0 0 0 0 0 0 0 
0 0 0 0 0 0 0 0 0 
0 0 0 0 0 0 0 0 0 
0 0 0 0 0 0 0 0 0 
0 0 0 0 0 0 0 0 0 
0 0 0 0 0 0 0 0 0 
0 0 0 0 0 0 0 0 0 
0 0 0 0 0 0 0 0 0 
0 0 0 0 0 0 0 0 0 
0 0 0 0 0 0 0 0 0 
0 0 0 0 0 0 0 0 0 
0 0 0 0 0 0 0 0 0 
0 0 0 0 0 0 0 0 0 
0 0 0 0 0 0 0 0 0 
0 0 0 0 0 0 0 0 0 
0 0 0 0 0 0 0 0 0 
0 0 0 0 0 0 0 0 0 
0 0 0 0 0 0 0 0 0 
0 0 0 0 0 0 0 0 0 
0 0 0 0 0 0 0 0 0 
0 0 0 0 0 0 0 0 0 
0 0 0 0 0 0 0 0 0 
0 0 0 0 0 0 0 0 0 
0 0 0 0 0 0 0 0 0 
0 0 0 0 0 0 0 0 0 
0 0 0 0 0 0 0 0 0 
0 0 0 0 0 0 0 0 0 
0 0 0 0 0 0 0 0 0 
0 0 0 0 0 0 0 0 0 
0 0 0 0 0 0 0 0 0 
0 0 0 0 0 0 0 0 0 
0 0 0 0 0 0 0 0 0 
0 0 0 0 0 0 0 0 0 
0 0 0 0 0 0 0 0 0 
0 0 0 0 0 0 0 0 0 
0 0 0 0 0 0 0 0 0 
0 0 0 0 0 0 0 0 0 
0 0 0 0 0 0 0 0 0 
0 0 0 0 0 0 0 0 0 
0 0 0 0 0 0 0 0 0 
0 0 0 0 0 0 0 0 0 
0 0 0 0 0 0 0 0 0 
0 0 0 0 0 0 0 0 0 
0 0 0 0 0 0 0 0 0 
0 0 0 0 0 0 0 0 0 
0 0 0 0 0 0 0 0 0 
0 0 0 0 0 0 0 0 0 
0 0 0 0 0 0 0 0 0 
0 0 0 0 0 0 0 0 0 
0 0 0 0 0 0 0 0 0 
0 0 0 
NORMALS Normals float
0.105998 0.283608 0.953064 -0.000240311 0.244494 0.969651 -0.0140953 0.190149 0.981654 
0.020987 0.150832 0.988337 0.0494081 0.209205 0.976623 0.0808651 0.270527 0.95931 
0.0129194 0.373449 0.927561 -0.180946 0.444674 0.877225 -0.398978 0.620331 0.675282 
0.211307 0.269326 0.939581 0.127203 0.242407 0.9618 0.0372425 0.126752 0.991235 
-0.0595777 0.0732972 0.995529 -0.0720234 0.0032047 0.997398 0.011739 -0.0516617 0.998596 
0.108476 -0.0266426 0.993742 0.165275 0.0494037 0.985009 0.0403144 0.0866298 0.995425 
-0.060143 0.210957 0.975643 -0.186623 0.219015 0.957708 -0.501912 0.411403 0.76081 
0.330706 0.233122 0.914488 0.193382 0.16985 0.96631 0.0567941 0.117133 0.991491 
-0.0729857 0.0178234 0.997174 -0.116682 -0.0232729 0.992897 -0.14108 -0.0463307 0.988913 
-0.00891376 -0.165838 0.986113 0.147126 -0.178178 0.972937 0.174914 -0.091566 0.980317 
0.181345 -0.0742747 0.980611 -0.00227901 0.0563648 0.998408 -0.193021 0.0546916 0.979669 
-0.331888 0.225485 0.915973 0.255772 0.187265 0.948426 0.0713647 0.149432 0.986193 
-0.028533 0.0397256 0.998803 -0.105212 0.0234964 0.994172 -0.119136 0.0572164 0.991228 
-0.198257 0.139874 0.970118 0.25332 -0.0977491 0.962431 0.189104 -0.0326371 0.981415 
0.067017 -0.0639082 0.995703 -0.0154441 0.100661 0.994801 -0.272981 0.0821011 0.95851 
-0.576741 0.0682485 0.814071 0.281279 0.0399016 0.958796 0.0743773 0.0779345 0.99418 
-0.0675826 0.0569196 0.996089 -0.0386346 0.0255756 0.998926 0.023064 0.163096 0.986341 
-0.0570605 0.343206 0.937525 -0.237617 0.273788 0.931975 0.222586 0.0765295 0.971905 
0.225554 0.064429 0.972098 0.12473 0.0537918 0.990731 -0.0495605 0.0560608 0.997197 
-0.278441 -0.00317213 0.960448 -0.584922 -0.0149447 0.810952 0.495684 0.0560585 0.866692 
0.263687 0.0161346 0.964473 0.0827703 0.0533733 0.995138 -0.0758742 0.0447507 0.996113 
-0.0237607 0.0365981 0.999048 0.187331 -0.0628341 0.980285 -0.111331 0.0967079 0.989067 
-0.0844255 0.207179 0.974653 -0.0486674 -0.00762299 0.998786 -0.00614027 0.19285 0.981209 
0.15354 0.109458 0.982061 0.0656286 0.0563814 0.99625 -0.0879926 -0.00888186 0.996082 
-0.288366 -0.040059 0.956682 -0.5867 0.00688267 0.809775 0.53094 0.0332999 0.846755 
0.274256 0.0142263 0.961552 0.0901785 0.0391832 0.995155 -0.0889337 0.0348006 0.995429 
-0.118302 0.0682484 0.990629 0.0320296 0.017554 0.999333 0.164852 -0.180521 0.969658 
-0.125775 0.0455691 0.991012 -0.0563446 -0.0394219 0.997633 0.106741 0.119888 0.987033 
0.102155 0.0689411 0.992377 0.00813068 -0.00945601 0.999922 -0.142515 -0.0753962 0.986917 
-0.302124 -0.110423 0.946852 -0.585392 -0.0948587 0.805182 0.604842 -0.151564 0.78179 
0.291634 -0.0791873 0.953247 0.118316 -0.0876821 0.989097 -0.0420898 0.0753678 0.996267 
-0.0505124 0.0819537 0.995355 -0.0503756 0.162643 0.985398 -0.021178 -0.000592793 0.999776 
0.023222 -0.00513597 0.999717 0.046758 0.102301 0.993654 0.089031 0.0832338 0.992545 
0.0274235 -0.0218852 0.999384 -0.0774723 -0.0778305 0.993952 -0.169099 -0.0995883 0.980555 
-0.372206 -0.182289 0.910074 0.407944 -0.272273 0.871464 0.235918 -0.142127 0.961323 
0.0748321 -0.0844029 0.993618 -0.0337497 0.0457653 0.998382 -0.0373466 0.0205238 0.999092 
-0.0444352 0.058913 0.997274 0.0160947 0.0424818 0.998968 0.0263453 0.0191895 0.999469 
-0.0168142 0.007919 0.999827 -0.0610974 -0.148333 0.987048 -0.0722485 -0.191764 0.978778 
-0.242198 -0.344876 0.906863 -0.491518 -0.419965 0.762915 0.28171 -0.368839 0.885775 
0.149742 -0.317474 0.936369 0.0576432 -0.212615 0.975434 -0.0323096 -0.155999 0.987229 
0.00117272 -0.105258 0.994444 -0.0173922 -0.119718 0.992656 0.00602438 -0.147391 0.98906 
-0.0779786 -0.253795 0.96411 -0.178669 -0.348118 0.920267 -0.289751 -0.495209 0.819031 
0.265653 -0.666131 0.696921 0.165744 -0.508193 0.845144 0.0557515 -0.38666 0.920536 
-0.0244854 -0.404072 0.9144 -0.0167497 -0.419551 0.907577 -0.122782 -0.445814 0.886665 
-0.254679 -0.606619 0.753095 0.380586 0.766146 0.517855 0.138578 0.419353 0.897184 
0.203717 0.665402 0.71815 0.00887842 0.357375 0.933919 0.0640616 0.555934 0.828754 
0.00694715 0.315166 0.949011 0.0324861 0.482641 0.875215 0.00613121 0.291626 0.956513 
-0.0187356 0.492179 0.870292 0.00642215 0.375248 0.926902 -0.0529155 0.595919 0.801299 
0.0245544 0.448433 0.893479 -0.109461 0.736973 0.667001 -0.0556234 0.618257 0.784005 
-0.224071 0.9103 0.348061 -0.246908 0.616054 0.748007 -0.402692 0.637777 0.656566 
0.242364 0.321905 0.915225 0.403009 0.581199 0.70696 0.18276 0.364347 0.913154 
0.193516 0.363243 0.911376 0.221824 0.414065 0.882805 -0.415906 0.628318 0.657448 
-0.535748 0.457732 0.709545 0.278036 0.306477 0.910367 0.34482 0.251134 0.90445 
0.495359 0.441279 0.748259 -0.561985 0.435594 0.703157 0.345564 0.240571 0.907035 
0.674585 0.386989 0.628629 -0.0282111 -0.135121 0.990427 0.174843 -0.153626 0.972537 
-0.542869 0.310642 0.780253 -0.600431 0.171888 0.780984 -0.683746 0.388531 0.617686 
0.528626 0.154539 0.834669 0.555554 0.151313 0.817596 -0.207197 0.131672 0.969398 
-0.246072 0.210432 0.946133 -0.15729 0.0795291 0.984345 0.218359 -0.118433 0.968655 
0.2061 -0.144764 0.967763 -0.604788 0.0751532 0.792833 0.528811 0.0213896 0.84847 
0.506424 0.0498315 0.860844 0.577328 0.0259585 0.8161 -0.194998 0.433222 0.87994 
0.114257 0.257753 0.959432 -0.0721407 0.473909 0.877614 -0.0580755 0.433906 0.899085 
-0.597149 -0.0143281 0.802002 0.503575 0.0552863 0.862181 0.960462 -0.00764878 0.278306 
-0.599068 0.00553007 0.800679 0.555926 0.0282859 0.83075 -0.607253 -0.0992627 0.788284 
-0.601442 -0.151035 0.78451 0.652383 -0.155592 0.741746 0.630501 -0.218972 0.744661 
-0.534889 -0.297264 0.790903 -0.700505 -0.407303 0.586001 0.519833 -0.361534 0.773994 
0.790007 -0.533416 0.302254 0.530344 -0.485779 0.694805 -0.345778 -0.555137 0.756479 
-0.55054 -0.439803 0.709563 -0.507379 -0.47291 0.720363 0.521869 -0.515084 0.679957 
0.597327 -0.593165 0.539774 0.396356 -0.617225 0.679658 -0.262751 -0.617693 0.741226 
-0.356202 -0.570267 0.740214 -0.332654 -0.599674 0.727827 -0.461054 -0.716707 0.523221 
0.298745 -0.685179 0.66429 0.276206 -0.687381 0.671728 0.232731 -0.687787 0.687594 
0.0514522 -0.756217 0.652295 -0.0536682 -0.676038 0.73491 -0.0223418 -0.684165 0.728985 
-0.153098 -0.706873 0.690573 -0.277424 -0.65593 0.701991 -0.278338 -0.657886 0.699796 
-0.326277 -0.838941 0.435571 0.0126802 -0.993119 0.116419 -0.0969042 -0.994237 0.0458424 
0.384869 0.821859 0.420027 0.280627 0.85897 0.428275 0.182242 0.886509 0.425311 
0.0375795 0.924228 0.379986 0.00383147 0.997195 -0.0747442 -0.107717 0.929576 0.352542 
-0.188495 0.941956 0.277828 -0.231662 0.96072 0.152808 -0.301682 0.949894 0.0817924 
0.423078 0.803454 0.418888 0.498944 0.756556 0.422703 -0.347682 0.937066 0.0320113 
-0.309003 0.886932 -0.343321 -0.384196 0.923248 -0.00258416 -0.490528 0.871421 -0.00273642 
0.573203 0.697005 0.430839 0.606097 0.670949 0.427169 0.664844 0.746161 0.0350117 
-0.564124 0.825252 0.026904 -0.638001 0.767757 0.0591948 0.705852 0.57106 0.419121 
0.754644 0.512373 0.409862 -0.771942 0.625047 0.115852 -0.817161 0.560452 0.134689 
0.8367 0.381798 0.392637 -0.88004 0.446087 0.162901 0.891818 0.258459 0.371293 
-0.946646 0.239151 0.216029 0.926125 0.121878 0.356984 0.958264 0.0184419 0.285288 
0.979115 0.0725665 -0.189916 -0.952808 0.0930256 0.28897 0.963489 -0.0090396 0.267597 
0.964273 -0.0392583 0.261987 0.997168 -0.0305551 0.0687183 -0.94943 -0.0929756 0.299898 
0.95629 -0.173322 0.235517 -0.935526 -0.238139 0.260925 0.933031 -0.325931 0.152388 
-0.863825 -0.442263 0.241266 -0.804274 -0.550022 0.224985 0.842157 -0.535802 0.0607248 
0.810153 -0.584494 0.0449196 0.762742 -0.594379 -0.254829 -0.763868 -0.612082 0.2046 
-0.638907 -0.751889 0.162665 0.691249 -0.722262 -0.0226428 0.641432 -0.765712 -0.0474253 
0.571811 -0.718259 -0.396404 0.48456 -0.866925 -0.1168 -0.397846 -0.9109 0.109452 
-0.582185 -0.794442 0.172981 -0.488908 -0.857471 0.160348 0.483938 -0.867302 -0.116578 
0.372921 -0.925573 -0.0651488 0.345982 -0.70859 -0.614977 0.24687 -0.963919 -0.0995804 
0.148374 -0.98341 -0.104359 -0.208741 -0.977601 -0.0268988 -0.28545 -0.958032 0.0263463 
-0.379511 -0.919442 0.102945 -0.346234 -0.93381 0.0901133 0.119185 -0.989431 -0.0825904 
0.0286022 -0.999478 -0.0150008 0.0364289 -0.990414 -0.133243 -0.12253 -0.992403 -0.0110752 
-0.100545 -0.994913 -0.00626199 -0.0982187 -0.993659 -0.054724 -0.00470569 0.982989 -0.183604 
0.419795 0.896045 -0.144486 0.290834 0.949225 -0.119945 0.0383432 0.984608 -0.170519 
0.14962 0.979277 -0.136496 -0.0464464 0.979964 -0.193682 -0.00626066 0.979301 -0.202312 
-0.18606 0.955186 -0.230222 -0.304241 0.890286 -0.338864 -0.314129 0.830196 -0.460541 
0.66228 0.742343 -0.101551 0.481982 0.867416 -0.123621 0.520244 0.847018 -0.109121 
0.374178 0.814147 -0.444021 -0.313527 0.613464 -0.724819 -0.300966 0.824203 -0.479697 
-0.301551 0.762995 -0.571757 -0.297994 0.816983 -0.4937 -0.336373 0.778003 -0.530626 
-0.416948 0.782794 -0.46194 0.670486 0.734772 -0.102755 0.661113 0.733157 -0.159408 
-0.245399 0.534608 -0.808687 -0.257382 0.675856 -0.690633 -0.42851 0.774384 -0.465519 
-0.413341 0.76195 -0.49858 -0.554099 0.692697 -0.461677 0.810743 0.57188 -0.125095 
0.820883 0.556957 -0.126293 -0.30093 0.472958 -0.828102 -0.63234 0.637066 -0.440787 
-0.503916 0.594292 -0.626806 -0.740591 0.532579 -0.409737 0.910071 0.38267 -0.159172 
-0.389338 0.374026 -0.841737 -0.77744 0.482086 -0.403955 -0.696875 0.482485 -0.530636 
0.953005 0.227665 -0.199877 0.969212 0.0728972 -0.235191 -0.884264 0.295268 -0.361792 
-0.625796 0.229681 -0.745403 0.969323 0.0672773 -0.236403 0.967562 0.0464073 -0.248333 
0.968059 0.066735 -0.241677 -0.935423 0.12822 -0.32946 -0.608802 0.0574033 -0.791243 
0.94669 -0.0703416 -0.314373 -0.944547 -0.0888673 -0.316122 0.898829 -0.243964 -0.364127 
-0.919055 -0.255337 -0.300234 0.816734 -0.380292 -0.433963 0.670736 -0.53711 -0.511494 
0.625242 -0.411055 -0.663405 -0.845546 -0.444911 -0.295136 -0.780841 -0.54827 -0.299479 
-0.696498 -0.440911 -0.566117 0.608747 -0.573432 -0.548273 0.495752 -0.632815 -0.59479 
0.432847 -0.502942 -0.748126 0.182184 -0.387171 -0.90383 -0.707273 -0.634348 -0.312038 
-0.591359 -0.734129 -0.333689 -0.485956 -0.530045 -0.694909 0.433102 -0.654817 -0.619385 
0.397151 -0.668632 -0.628651 0.32845 -0.576627 -0.748079 0.338533 -0.687492 -0.642456 
0.196799 -0.491596 -0.848294 0.134596 -0.392715 -0.909757 0.081051 -0.330863 -0.940192 
0.0759807 -0.339462 -0.937546 -0.356539 -0.845302 -0.397925 -0.210473 -0.646052 -0.733702 
-0.492642 -0.804708 -0.331284 -0.434964 -0.83568 -0.335327 -0.398195 -0.764343 -0.507169 
0.327704 -0.6942 -0.640856 0.181269 -0.751179 -0.634722 0.1683 -0.624633 -0.762567 
0.122701 -0.704315 -0.699203 0.090386 -0.605971 -0.790335 0.0684403 -0.755066 -0.652067 
0.0626924 -0.565975 -0.822035 -0.0436237 -0.792707 -0.60804 0.0123905 -0.608756 -0.79326 
-0.133239 -0.822804 -0.552487 -0.0734088 -0.689129 -0.720911 -0.189771 -0.846737 -0.497015 
-0.154165 -0.774375 -0.613658 -0.260701 -0.868635 -0.421317 -0.237369 -0.867136 -0.43787 
-0.22822 -0.853752 -0.467999 0.234512 0.659696 -0.714006 0.0913275 0.673143 -0.733851 
-0.0561274 0.643509 -0.763378 -0.219851 0.579332 -0.784882 0.430433 0.578443 -0.692915 
0.255688 0.664067 -0.702594 0.305393 0.668218 -0.678395 0.220256 0.628478 -0.745991 
0.0741378 0.533252 -0.842701 -0.0695203 0.501649 -0.862273 -0.259399 0.527509 -0.808979 
-0.217691 0.499489 -0.838523 -0.266242 0.452772 -0.850948 -0.212355 0.457361 -0.863555 
0.451766 0.564863 -0.690534 0.51546 0.496464 -0.698444 0.421181 0.548948 -0.721985 
0.232558 0.413015 -0.880531 0.0894373 0.374366 -0.922958 -0.0480923 0.264205 -0.963267 
-0.0997216 0.215256 -0.971453 -0.161767 0.201021 -0.966138 -0.19571 0.320878 -0.92668 
-0.212238 0.451376 -0.866727 -0.201921 0.42312 -0.883288 -0.188574 0.436131 -0.879903 
-0.196007 0.460534 -0.865731 0.534566 0.46685 -0.704479 0.68848 0.261181 -0.676594 
0.495776 0.440065 -0.748698 0.275938 0.282817 -0.918625 0.144258 0.20571 -0.967922 
0.0352767 0.0954782 -0.994806 -0.0878762 0.0862546 -0.99239 -0.140483 0.0345965 -0.989479 
-0.119122 -0.00013515 -0.99288 -0.0894113 0.0804128 -0.992743 -0.0905862 0.183998 -0.978743 
-0.105708 0.307066 -0.945799 -0.239448 0.429418 -0.870784 -0.184941 0.402417 -0.896581 
-0.270324 0.405756 -0.873091 0.68989 0.2586 -0.676149 0.687389 0.258604 -0.678691 
0.350792 0.174472 -0.920057 0.203991 0.118838 -0.971733 0.0786712 0.0727523 -0.994242 
-0.0491284 -0.0206592 -0.998579 -0.119265 -0.025333 -0.992539 -0.188813 -0.0366701 -0.981328 
-0.121834 -0.107991 -0.986658 -0.00106512 -0.11774 -0.993044 0.0252532 -0.0038191 -0.999674 
0.0105126 0.102561 -0.994671 -0.0926548 0.215214 -0.972162 -0.360507 0.360782 -0.860158 
-0.227353 0.298086 -0.927068 -0.372694 0.361283 -0.854736 0.660411 0.0783028 -0.746811 
0.628222 0.0729443 -0.774607 0.297261 0.05663 -0.953116 0.138029 0.0280234 -0.990032 
0.0102841 -0.042714 -0.999034 -0.0618541 -0.071741 -0.995504 -0.102329 -0.0924271 -0.990447 
-0.221912 0.0432935 -0.974105 -0.198511 0.12941 -0.971518 0.0276186 -0.0584158 -0.99791 
0.127284 -0.0714927 -0.989286 0.111762 0.0283834 -0.99333 0.015886 0.0920824 -0.995625 
-0.0981041 0.206988 -0.973412 -0.529951 0.237435 -0.814111 -0.329845 0.269067 -0.904878 
0.627015 -0.0247984 -0.778612 0.586165 -0.0400005 -0.809203 0.280332 -0.045298 -0.958834 
0.111073 -0.0553827 -0.992268 -0.0240908 -0.0719792 -0.997115 -0.099571 -0.0849508 -0.991398 
-0.00674576 -0.0891035 -0.996 0.0419822 -0.0324129 -0.998592 -0.140987 0.0870321 -0.986179 
-0.259863 0.206408 -0.943328 0.107659 0.0210206 -0.993966 0.17473 0.0506082 -0.983315 
0.0894002 0.0721587 -0.993378 -0.0901669 0.107605 -0.990097 -0.599126 0.0578696 -0.798561 
-0.302875 0.0707491 -0.950401 -0.606074 0.0416043 -0.79432 0.579705 -0.0390069 -0.813893 
0.565455 -0.0404437 -0.823787 0.294842 -0.128727 -0.946836 0.116439 -0.101374 -0.988011 
-0.0185586 -0.0991258 -0.994902 -0.0785398 -0.0766167 -0.993962 -0.0531457 -0.0196563 -0.998393 
-0.055776 -0.0428347 -0.997524 0.0134589 -0.0729945 -0.997241 -0.0559933 0.0917765 -0.994204 
0.0172026 0.136037 -0.990554 0.15738 0.0551058 -0.985999 0.0717489 0.0183671 -0.997254 
-0.107865 -0.0296491 -0.993723 -0.303594 -0.039465 -0.951984 -0.611968 0.020756 -0.79061 
-0.604665 0.021404 -0.796192 0.58406 -0.190877 -0.788949 0.563918 -0.220447 -0.795864 
0.553687 -0.187996 -0.811226 0.270506 -0.191655 -0.943448 0.150398 -0.218 -0.964291 
0.00327489 -0.173305 -0.984863 -0.0175221 -0.115991 -0.993096 0.0282138 -0.0802783 -0.996373 
-0.0153648 -0.0776666 -0.996861 -0.0326001 0.0101152 -0.999417 -0.00422992 0.00159215 -0.99999 
0.0200527 0.110123 -0.993716 0.0638977 0.0230667 -0.99769 0.00684641 -0.0621147 -0.998046 
-0.144313 -0.141073 -0.979424 -0.301309 -0.159069 -0.940165 -0.621157 -0.133307 -0.772265 
-0.609695 -0.164759 -0.775323 -0.603225 -0.130913 -0.786754 0.35713 -0.345291 -0.86789 
0.327903 -0.360471 -0.873235 0.313317 -0.328012 -0.891202 0.169643 -0.362845 -0.916278 
0.151643 -0.317214 -0.936152 0.0798851 -0.269365 -0.959719 0.0107249 -0.217481 -0.976006 
-0.0112176 -0.209948 -0.977648 0.037632 -0.202712 -0.978515 0.103543 -0.101405 -0.989442 
0.0576869 -0.0466259 -0.997245 0.0131473 -0.0249725 -0.999602 -0.0136288 -0.0974768 -0.995144 
-0.0871061 -0.162346 -0.982882 -0.196612 -0.225157 -0.954279 -0.4599 -0.343657 -0.818774 
-0.418887 -0.408786 -0.810819 -0.376562 -0.295468 -0.878009 0.144742 -0.37232 -0.916748 
0.125287 -0.388447 -0.912914 0.117735 -0.365904 -0.923175 0.0929943 -0.349117 -0.932453 
0.0519753 -0.310594 -0.949121 0.0720281 -0.302786 -0.950333 0.0428267 -0.249234 -0.967496 
0.0764666 -0.331717 -0.940275 0.0946176 -0.217175 -0.971536 0.128649 -0.192949 -0.972738 
0.0661684 -0.199625 -0.977636 -0.030964 -0.229057 -0.97292 -0.0826209 -0.286481 -0.954517 
-0.172212 -0.532807 -0.828528 -0.141477 -0.379002 -0.914517 -0.348026 -0.452877 -0.820841 
-0.270446 -0.479724 -0.8347 -0.249341 -0.413983 -0.87547 0.078809 -0.343355 -0.935894 
0.0867381 -0.410492 -0.90773 0.102163 -0.372277 -0.922482 0.00355861 -0.504033 -0.863677 
0.0237088 -0.427194 -0.903849 -0.0876357 -0.5266 -0.845584 -0.0775284 -0.467032 -0.880835 
-0.168221 -0.532434 -0.829588 -0.168775 -0.531826 -0.829865 -0.166632 -0.522361 -0.836285 

