# vtk DataFile Version 4.2
vtk output
ASCII
DATASET POLYDATA
POINTS 580 float
-15.0749 -28.0104 -16.4484 -44.8284 16.6199 -16.7802 -29.9517 24.0583 -16.4647 
-22.5133 -42.8871 -11.3141 -15.0749 -42.8871 -13.6348 -7.63652 -42.8871 -13.0623 
-0.198139 -42.8871 -11.9453 7.24024 -42.8871 -9.13488 -37.39 -35.4487 -10.2102 
-29.9517 -35.4487 -13.5729 -22.5133 -35.4487 -14.5584 -15.0749 -29.0624 -16.3781 
-15.0749 -35.4487 -15.9155 -7.63652 -35.4487 -15.4726 -0.198139 -35.4487 -15.5809 
7.24024 -35.4487 -13.206 14.6786 -35.4487 -11.0851 22.117 -35.4487 -9.10029 
-44.8284 -28.0104 -9.55831 -37.39 -28.0104 -13.4212 -29.9517 -28.0104 -14.7508 
-15.959 -28.0104 -16.3781 -22.5133 -28.0104 -15.8981 -13.436 -28.0104 -16.3781 
-15.0749 -26.6682 -16.3781 -7.63652 -28.0104 -16.1319 -0.198139 -28.0104 -15.4413 
7.24024 -28.0104 -14.1244 14.6786 -28.0104 -13.4032 22.117 -28.0104 -12.7664 
29.5554 -28.0104 -13.5096 36.9938 -28.0104 -10.906 44.4321 -28.0104 -9.43576 
-44.8284 -20.572 -11.5993 -37.39 -20.572 -14.3583 -29.9517 -20.572 -15.5874 
-22.5133 -20.572 -16.1402 -15.0749 -20.572 -16.0627 -7.63652 -20.572 -15.5097 
-0.198139 -20.572 -14.9883 7.24024 -20.572 -13.489 14.6786 -20.572 -13.2254 
22.117 -20.572 -13.3766 29.5554 -20.572 -13.6483 36.9938 -20.572 -14.7897 
44.4321 -20.572 -10.4152 -52.2668 -13.1336 -10.0894 -44.8284 -13.1336 -14.1565 
-37.39 -13.1336 -15.0727 -29.9517 -13.1336 -15.5914 -22.5133 -13.1336 -15.6041 
-15.0749 -13.1336 -15.4362 -7.63652 -13.1336 -14.7603 -0.198139 -13.1336 -14.5662 
7.24024 -13.1336 -12.3553 14.6786 -13.1336 -12.4916 22.117 -13.1336 -13.4047 
29.5554 -13.1336 -13.5287 36.9938 -13.1336 -12.7404 44.4321 -13.1336 -10.8344 
-52.2668 -5.69522 -12.1353 -44.8284 -5.69522 -14.4118 -37.39 -5.69522 -15.9149 
-29.9517 -5.69522 -15.5589 -22.5133 -5.69522 -15.0765 -15.0749 -5.69522 -14.831 
-7.63652 -5.69522 -15.9175 -0.198139 -5.69522 -13.6902 7.24024 -5.69522 -14.5064 
14.6786 -5.69522 -12.1481 22.117 -5.69522 -12.1556 29.5554 -5.69522 -12.5936 
36.9938 -5.69522 -12.1465 44.4321 -5.69522 -11.2841 51.8705 -5.69522 -10.8086 
-52.2668 1.74316 -12.184 -44.8284 1.74316 -14.7169 -37.39 1.74316 -16.2952 
-29.9517 1.74316 -15.4774 -22.5133 1.74316 -14.2838 -15.0749 1.74316 -12.468 
-7.63652 1.74316 -14.2722 -0.198139 1.74316 -10.3798 7.24024 1.74316 -14.5462 
14.6786 1.74316 -13.3626 22.117 1.74316 -11.9 29.5554 1.74316 -12.322 
36.9938 1.74316 -11.8128 44.4321 1.74316 -10.8978 51.8705 1.74316 -9.44272 
-52.2668 9.18155 -12.0824 -44.8284 14.6944 -16.3781 -44.8284 9.18155 -15.0656 
-37.39 9.18155 -16.263 -29.9517 9.18155 -15.4812 -22.5133 9.18155 -14.1679 
-15.0749 9.18155 -12.2508 -7.63652 9.18155 -11.6531 -0.198139 9.18155 -15.2755 
7.24024 9.18155 -12.6252 14.6786 9.18155 -12.0801 22.117 9.18155 -12.8048 
29.5554 9.18155 -12.6499 36.9938 9.18155 -12.0772 44.4321 9.18155 -10.9266 
51.8705 9.18155 -9.18286 -45.6404 16.6199 -16.3781 -52.2668 16.6199 -12.1252 
-40.306 16.6199 -16.3781 -44.8284 18.7038 -16.3781 -37.39 16.6199 -16.0345 
-29.9517 23.1714 -16.3781 -29.9517 16.6199 -15.7525 -22.5133 16.6199 -15.3259 
-15.0749 16.6199 -13.8377 -7.63652 16.6199 -12.3953 -0.198139 16.6199 -12.181 
7.24024 16.6199 -12.5875 14.6786 16.6199 -12.2512 22.117 16.6199 -12.6994 
29.5554 16.6199 -12.827 36.9938 16.6199 -12.653 44.4321 16.6199 -10.3786 
-52.2668 24.0583 -10.4792 -44.8284 24.0583 -14.5933 -30.4672 24.0583 -16.3781 
-37.39 24.0583 -15.2214 -29.3784 24.0583 -16.3781 -29.9517 24.4757 -16.3781 
-22.5133 24.0583 -15.37 -15.0749 24.0583 -14.3271 -7.63652 24.0583 -12.9654 
-0.198139 24.0583 -12.3359 7.24024 24.0583 -12.7192 14.6786 24.0583 -12.4132 
22.117 24.0583 -12.2408 29.5554 24.0583 -12.2292 36.9938 24.0583 -10.8318 
44.4321 24.0583 -9.38497 -44.8284 31.4967 -12.8693 -37.39 31.4967 -15.8639 
-29.9517 31.4967 -14.9425 -22.5133 31.4967 -15.0249 -15.0749 31.4967 -14.1055 
-7.63652 31.4967 -12.4921 -0.198139 31.4967 -11.4921 7.24024 31.4967 -11.3481 
14.6786 31.4967 -11.6175 22.117 31.4967 -10.8145 29.5554 31.4967 -9.33752 
-37.39 38.9351 -12.1135 -29.9517 38.9351 -12.8984 -22.5133 38.9351 -13.1055 
-15.0749 38.9351 -11.0252 -7.63652 38.9351 -10.0159 -22.5133 -45.3081 -8.93973 
-15.0749 -47.6779 -8.93973 -7.63652 -48.4083 -8.93973 -7.63652 -50.3255 -4.06401 
-0.198139 -46.6682 -8.93973 7.24024 -43.0653 -8.93973 -37.39 -37.1406 -8.93973 
-29.1847 -42.8871 -8.93973 -29.9517 -42.4841 -8.93973 -29.9517 -42.8871 -8.2828 
7.60523 -42.8871 -8.93973 14.6786 -38.8192 -8.93973 22.117 -35.615 -8.93973 
-39.1921 -35.4487 -8.93973 -44.8284 -29.0226 -8.93973 24.4973 -35.4487 -8.93973 
29.5554 -34.9578 -8.93973 29.5554 -35.4487 -7.97443 36.9938 -30.9197 -8.93973 
44.4321 -28.6645 -8.93973 -45.5902 -28.0104 -8.93973 45.1638 -28.0104 -8.93973 
51.8705 -28.0104 -2.68177 -49.3379 -20.572 -8.93973 -52.2668 -16.3931 -8.93973 
-52.2668 -20.572 -5.59939 48.8951 -20.572 -8.93973 51.8705 -20.572 -7.79647 
-53.6162 -13.1336 -8.93973 50.8668 -13.1336 -8.93973 51.8705 -11.9287 -8.93973 
51.8705 -13.1336 -8.5785 59.3089 -13.1336 -4.73045 -56.0218 -5.69522 -8.93973 
53.9468 -5.69522 -8.93973 59.3089 -5.69522 -4.69576 -56.4429 1.74316 -8.93973 
52.5822 1.74316 -8.93973 59.3089 1.74316 -4.60866 -56.3019 9.18155 -8.93973 
53.1961 9.18155 -8.93973 51.8705 11.8269 -8.93973 59.3089 9.18155 -6.97059 
-56.1152 16.6199 -8.93973 50.3172 16.6199 -8.93973 51.8705 16.6199 -8.55617 
-54.0402 24.0583 -8.93973 -52.2668 27.5582 -8.93973 36.9938 30.0186 -8.93973 
45.3548 24.0583 -8.93973 44.4321 24.9716 -8.93973 51.8705 24.0583 -5.05972 
-50.0686 31.4967 -8.93973 -52.2668 31.4967 -3.03883 -44.8284 37.5733 -8.93973 
-0.198139 37.4171 -8.93973 7.24024 36.791 -8.93973 14.6786 37.9447 -8.93973 
22.117 35.0133 -8.93973 32.9174 31.4967 -8.93973 29.5554 32.2488 -8.93973 
36.9938 31.4967 -8.40838 44.4321 31.4967 -4.52092 -43.1855 38.9351 -8.93973 
-44.8284 38.9351 -5.89251 -37.39 42.6229 -8.93973 -29.9517 44.4548 -8.93973 
-22.5133 44.0896 -8.93973 -15.0749 41.9851 -8.93973 -3.42812 38.9351 -8.93973 
-7.63652 40.3221 -8.93973 -0.198139 38.9351 -8.12821 7.24024 38.9351 -7.68658 
14.6786 38.9351 -8.18852 22.117 38.9351 -6.04357 29.5554 38.9351 -3.46573 
-29.9517 46.3734 -5.4239 -22.5133 46.3734 -4.93293 -15.0749 46.3734 -2.14725 
-7.63652 -51.005 -1.50135 -29.9517 -45.3769 -1.50135 -22.5133 -48.4916 -1.50135 
-14.5412 -50.3255 -1.50135 -15.0749 -50.2669 -1.50135 -4.85793 -50.3255 -1.50135 
-7.63652 -50.3255 0.215563 -0.198139 -49.0265 -1.50135 7.24024 -45.8023 -1.50135 
-34.3612 -42.8871 -1.50135 -37.39 -40.9964 -1.50135 -29.9517 -42.8871 3.41007 
11.9403 -42.8871 -1.50135 7.24024 -42.8871 2.47299 14.6786 -40.9951 -1.50135 
22.117 -38.1266 -1.50135 29.5554 -37.026 -1.50135 -43.826 -35.4487 -1.50135 
-44.8284 -34.4158 -1.50135 14.6786 -35.4487 4.62549 22.117 -35.4487 3.39349 
35.6366 -35.4487 -1.50135 29.5554 -35.4487 1.23751 36.9938 -35.0567 -1.50135 
44.4321 -33.1313 -1.50135 51.8705 -28.9958 -1.50135 -49.7199 -28.0104 -1.50135 
-52.2668 -23.8743 -1.50135 53.0278 -28.0104 -1.50135 51.8705 -28.0104 3.97329 
-54.0813 -20.572 -1.50135 -52.2668 -20.572 5.60579 58.5539 -20.572 -1.50135 
59.3089 -18.5106 -1.50135 59.3089 -20.572 2.04674 -57.048 -13.1336 -1.50135 
61.4239 -13.1336 -1.50135 -58.644 -5.69522 -1.50135 63.4568 -5.69522 -1.50135 
-59.5869 1.74316 -1.50135 63.37 1.74316 -1.50135 -59.4301 9.18155 -1.50135 
62.7594 9.18155 -1.50135 59.3089 15.9704 -1.50135 -58.2789 16.6199 -1.50135 
-52.2668 16.6199 5.77157 59.0451 16.6199 -1.50135 59.3089 16.6199 -0.740714 
-56.4052 24.0583 -1.50135 55.7294 24.0583 -1.50135 51.8705 28.6158 -1.50135 
-52.7555 31.4967 -1.50135 -52.2668 32.2954 -1.50135 -52.2668 31.4967 -0.482532 
36.9938 37.6332 -1.50135 48.4778 31.4967 -1.50135 44.4321 34.2849 -1.50135 
-46.7791 38.9351 -1.50135 -44.8284 40.6123 -1.50135 -44.8284 38.9351 1.48938 
-37.39 45.1211 -1.50135 -37.39 38.9351 5.91079 -7.63652 45.4701 -1.50135 
-0.198139 44.1579 -1.50135 7.24024 43.6356 -1.50135 14.6786 42.9613 -1.50135 
22.117 41.9282 -1.50135 33.1873 38.9351 -1.50135 29.5554 40.1488 -1.50135 
-33.6161 46.3734 -1.50135 -29.9517 47.496 -1.50135 -29.9517 46.3734 1.30281 
-22.5133 47.5389 -1.50135 -22.5133 46.3734 1.68161 -13.4678 46.3734 -1.50135 
-15.0749 46.6211 -1.50135 -15.0749 46.3734 -0.653613 -22.5133 -44.3031 5.93703 
-15.0749 -46.3709 5.93703 -7.63652 -46.6778 5.93703 -0.198139 -44.1375 5.93703 
-37.39 -37.0109 5.93703 -26.0403 -42.8871 5.93703 -29.9517 -41.3597 5.93703 
-22.5133 -42.8871 7.51465 -15.0749 -42.8871 8.76937 -7.63652 -42.8871 8.70017 
1.7822 -42.8871 5.93703 -0.198139 -42.8871 6.90537 7.24024 -38.8302 5.93703 
-39.5846 -35.4487 5.93703 -44.8284 -29.8345 5.93703 -37.39 -35.4487 7.74313 
-29.9517 -35.4487 10.6482 -22.5133 -35.4487 12.8512 -15.0749 -35.4487 12.6156 
-7.63652 -35.4487 12.322 -0.198139 -35.4487 10.8253 12.1884 -35.4487 5.93703 
7.24024 -35.4487 8.11251 14.6786 -33.376 5.93703 22.117 -32.8894 5.93703 
29.5554 -31.9127 5.93703 36.9938 -32.2511 5.93703 44.4321 -30.2546 5.93703 
-46.1179 -28.0104 5.93703 -44.8284 -28.0104 7.29316 -37.39 -28.0104 11.8558 
-0.198139 -28.0104 13.0036 7.24024 -28.0104 10.7639 14.6786 -28.0104 8.6579 
22.117 -28.0104 9.23784 29.5554 -28.0104 9.7534 36.9938 -28.0104 10.4966 
50.5984 -28.0104 5.93703 44.4321 -28.0104 9.13193 51.8705 -27.508 5.93703 
59.3089 -21.4682 5.93703 -52.1304 -20.572 5.93703 -52.2668 -18.5829 5.93703 
-44.8284 -20.572 10.4375 -37.39 -20.572 13.3508 7.24024 -20.572 12.6582 
14.6786 -20.572 12.5249 51.8705 -20.572 11.5892 60.0664 -20.572 5.93703 
59.3089 -20.572 6.97025 -52.6041 -13.1336 5.93703 -52.2668 -13.1336 6.29738 
-44.8284 -13.1336 11.1013 62.961 -13.1336 5.93703 59.3089 -13.1336 12.6707 
-53.5828 -5.69522 5.93703 -52.2668 -5.69522 7.09417 -44.8284 -5.69522 11.1109 
65.3296 -5.69522 5.93703 59.3089 -5.69522 12.1679 -54.1671 1.74316 5.93703 
-52.2668 1.74316 7.36328 -44.8284 1.74316 10.8987 -37.39 1.74316 13.0322 
7.24024 1.74316 12.72 65.2825 1.74316 5.93703 59.3089 1.74316 12.6692 
-53.7191 9.18155 5.93703 -52.2668 15.7021 5.93703 -52.2668 9.18155 7.07811 
[...]
POINT_DATA 580
SCALARS ImageScalars float
LOOKUP_TABLE default
0 0 0 0 0 0 0 0 0 
0 0 0 0 0 0 0 0 0 
0 0 0 0 0 0 0 0 0 
0 0 0 0 0 0 0 0 0 
0 0 0 0 0 0 0 0 0 
0 0 0 0 0 0 0 0 0 
0 0 0 0 0 0 0 0 0 
0 0 0 0 0 0 0 0 0 
0 0 0 0 0 0 0 0 0 
0 0 0 0 0 0 0 0 0 
0 0 0 0 0 0 0 0 0 
0 0 0 0 0 0 0 0 0 
0 0 0 0 0 0 0 0 0 
0 0 0 0 0 0 0 0 0 
0 0 0 0 0 0 0 0 0 
0 0 0 0 0 0 0 0 0 
0 0 0 0 0 0 0 0 0 
0 0 0 0 0 0 0 0 0 
0 0 0 0 0 0 0 0 0 
0 0 0 0 0 0 0 0 0 
0 0 0 0 0 0 0 0 0 
0 0 0 0 0 0 0 0 0 
0 0 0 0 0 0 0 0 0 
0 0 0 0 0 0 0 0 0 
0 0 0 0 0 0 0 0 0 
0 0 0 0 0 0 0 0 0 
0 0 0 0 0 0 0 0 0 
0 0 0 0 0 0 0 0 0 
0 0 0 0 0 0 0 0 0 
0 0 0 0 0 0 0 0 0 
0 0 0 0 0 0 0 0 0 
0 0 0 0 0 0 0 0 0 
0 0 0 0 0 0 0 0 0 
0 0 0 0 0 0 0 0 0 
0 0 0 0 0 0 0 0 0 
0 0 0 0 0 0 0 0 0 
0 0 0 0 0 0 0 0 0 
0 0 0 0 0 0 0 0 0 
0 0 0 0 0 0 0 0 0 
0 0 0 0 0 0 0 0 0 
0 0 0 0 0 0 0 0 0 
0 0 0 0 0 0 0 0 0 
0 0 0 0 0 0 0 0 0 
0 0 0 0 0 0 0 0 0 
0 0 0 0 0 0 0 0 0 
0 0 0 0 0 0 0 0 0 
0 0 0 0 0 0 0 0 0 
0 0 0 0 0 0 0 0 0 
0 0 0 0 0 0 0 0 0 
0 0 0 0 0 0 0 0 0 
0 0 0 0 0 0 0 0 0 
0 0 0 0 0 0 0 0 0 
0 0 0 0 0 0 0 0 0 
0 0 0 0 0 0 0 0 0 
0 0 0 0 0 0 0 0 0 
0 0 0 0 0 0 0 0 0 
0 0 0 0 0 0 0 0 0 
0 0 0 0 0 0 0 0 0 
0 0 0 0 0 0 0 0 0 
0 0 0 0 0 0 0 0 0 
0 0 0 0 0 0 0 0 0 
0 0 0 0 0 0 0 0 0 
0 0 0 0 0 0 0 0 0 
0 0 0 0 0 0 0 0 0 
0 0 0 0 
NORMALS Normals float
0.0182892 0.00679323 0.99981 0.242769 0.0155642 0.969959 0.0083431 -0.0546922 0.998468 
0.285772 0.619864 0.730823 0.0851952 0.525901 0.846268 -0.10041 0.484078 0.869245 
-0.207766 0.568457 0.796046 -0.40418 0.702592 0.585665 0.476491 0.491404 0.729026 
0.277704 0.356415 0.892104 0.139588 0.269584 0.952806 0.0231096 0.0260045 0.999395 
0.0579828 0.157067 0.985884 -0.0202154 0.192502 0.981088 -0.132801 0.208681 0.968925 
-0.319542 0.270806 0.908051 -0.259993 0.483531 0.835824 -0.188172 0.724807 0.662757 
0.569228 0.380191 0.728995 0.335217 0.274485 0.90127 0.155611 0.120742 0.980411 
0.0290346 0.0179621 0.999417 0.105479 0.0955897 0.989817 -0.000703066 0.00652824 0.999978 
0.00708268 -0.00647318 0.999954 -0.067078 0.00367251 0.997741 -0.128752 -0.0386717 0.990923 
-0.143634 0.0129966 0.989546 -0.0916971 0.146045 0.985019 -0.00150218 0.244815 0.969569 
-0.106665 0.310649 0.944521 -0.252191 0.485876 0.836854 -0.423877 0.438658 0.792406 
0.416522 0.282313 0.864181 0.223212 0.091378 0.970478 0.125943 0.0531045 0.990615 
0.0325478 -0.0186182 0.999297 -0.0427691 -0.0674792 0.996804 -0.0709769 -0.0908319 0.993334 
-0.135392 -0.0585637 0.98906 -0.11935 -0.113485 0.986345 -0.00734685 -0.0604437 0.998145 
0.0280113 0.0411208 0.998761 0.0839779 -0.000760047 0.996467 -0.18898 0.0788669 0.978809 
-0.369754 0.0936851 0.924395 0.604123 0.282542 0.745121 0.316629 0.156446 0.935559 
0.0859466 0.110114 0.990196 0.0346771 -0.00191282 0.999397 -0.0104008 -0.0711731 0.99741 
-0.0563599 -0.0819888 0.995038 -0.0584183 0.022949 0.998028 -0.153803 -0.0752431 0.985232 
-0.145615 0.0360117 0.988686 0.0698448 -0.0684693 0.995205 0.0697524 -0.0821719 0.994174 
-0.0444519 -0.070732 0.996504 -0.173532 -0.153086 0.972857 -0.24797 0.0553544 0.967185 
0.519531 0.140957 0.842745 0.248252 0.0328854 0.968137 0.0877005 0.0814595 0.992811 
-0.0555607 -0.00763903 0.998426 -0.0487027 -0.0883295 0.9949 0.0541875 -0.192548 0.97979 
-0.0503612 0.0176667 0.998575 -0.124569 -0.231601 0.964802 -0.103103 0.160446 0.981645 
-0.134403 0.0427881 0.990003 0.0296848 -0.100748 0.994469 -0.000592801 -0.0806503 0.996742 
-0.0855271 -0.0618842 0.994412 -0.0858923 0.00379559 0.996297 -0.395975 0.0464166 0.917087 
0.487912 -0.00252379 0.872889 0.242805 0.0495788 0.968807 0.0498493 0.0232158 0.998487 
-0.13239 -0.00518155 0.991184 -0.190999 -0.0600491 0.979752 -0.0587962 -0.18449 0.981074 
-0.0505849 -0.322468 0.945228 0.121433 0.11884 0.98546 0.121536 -0.137842 0.982969 
-0.190447 -0.0202528 0.981489 -0.0456401 0.0439484 0.997991 -0.00579502 0.00377542 0.999976 
-0.0942039 -0.00464622 0.995542 -0.142648 -0.0233473 0.989498 -0.419396 -0.0943246 0.90289 
0.551165 -0.00301376 0.834391 0.238142 0.0422956 0.970309 0.225793 0.116826 0.967145 
0.0399583 -0.0174781 0.999048 -0.137967 0.0182916 0.990268 -0.211502 0.0636988 0.9753 
-0.16376 0.0939988 0.982012 0.171551 -0.0589568 0.98341 0.0379199 -0.0196811 0.999087 
-0.184438 -0.111073 0.976548 0.0154269 -0.0542684 0.998407 0.0380471 0.0536433 0.997835 
-0.0497249 0.0343897 0.998171 -0.111911 0.0532417 0.992291 -0.173969 -0.0330603 0.984196 
-0.2322 -0.0609013 0.97076 0.275609 -0.0064956 0.961248 0.600868 -0.110946 0.791612 
0.0566651 -0.0377086 0.997681 0.277616 -0.0693343 0.958187 -0.0724153 -0.069777 0.994931 
0.0021603 -0.0401703 0.999191 -0.0452584 0.0648842 0.996866 -0.130813 0.0821769 0.987995 
-0.178832 0.135287 0.974534 -0.114347 0.0811732 0.990119 0.0144448 -0.154584 0.987874 
0.00472087 0.00655667 0.999967 0.00767672 0.0226173 0.999715 0.0385569 -0.0372621 0.998561 
-0.0024271 -0.0315849 0.999498 -0.156089 -0.0736454 0.984994 -0.239682 -0.10154 0.965527 
0.613349 -0.297275 0.731732 0.362065 -0.285979 0.8872 0.0146569 -0.0512464 0.998578 
0.115232 -0.0214771 0.993106 -0.00341186 -0.0521454 0.998634 0.00448017 -0.0621206 0.998059 
-0.13976 -0.0191473 0.99 -0.162379 0.0186944 0.986551 -0.134113 0.00494647 0.990954 
-0.0164275 -0.0440105 0.998896 0.00515073 -0.0794732 0.996824 -0.0315599 -0.0446205 0.998505 
-0.0125652 -0.11359 0.993448 -0.0840432 -0.206256 0.974882 -0.196645 -0.262813 0.944595 
-0.323826 -0.29816 0.897907 0.447598 -0.302346 0.841572 0.141746 -0.206909 0.968037 
-0.041891 -0.206087 0.977637 -0.0551314 -0.123638 0.990795 -0.166163 -0.197486 0.966121 
-0.170454 -0.162025 0.971953 -0.0738997 -0.230158 0.970343 0.00968905 -0.286121 0.958145 
-0.0287701 -0.255768 0.96631 -0.148692 -0.336593 0.929836 -0.138785 -0.439318 0.887546 
0.218787 -0.537668 0.814276 0.0739508 -0.516555 0.853054 -0.116877 -0.474867 0.872262 
-0.158126 -0.478377 0.863801 -0.168447 -0.497148 0.851158 0.275434 0.735326 0.619219 
0.167011 0.799333 0.577213 -0.0526863 0.806006 0.589558 -0.0732232 0.987891 0.136787 
-0.278627 0.759729 0.587519 -0.407477 0.711821 0.572078 0.512863 0.568454 0.643297 
0.398858 0.680951 0.614181 0.408647 0.67069 0.619018 0.425964 0.71452 0.554992 
-0.407849 0.711917 0.571694 -0.356782 0.670236 0.650761 -0.194584 0.733125 0.651663 
0.533449 0.540714 0.650431 0.588932 0.42228 0.689085 -0.189455 0.751996 0.631355 
-0.189114 0.776327 0.601292 -0.197802 0.844186 0.498221 -0.289177 0.655271 0.697852 
-0.427546 0.482067 0.764733 0.597053 0.398901 0.695992 -0.443145 0.452484 0.773874 
-0.616525 0.698327 0.363644 0.580659 0.402802 0.707521 0.62756 0.398507 0.66885 
0.796594 0.495641 0.34609 -0.385244 0.234993 0.892393 -0.443332 0.367392 0.817606 
0.663611 0.298651 0.685878 -0.29506 0.169796 0.940271 -0.326965 0.167242 0.93012 
-0.316072 0.191343 0.92924 -0.731182 0.143605 0.666896 0.778524 0.166063 0.605246 
-0.502831 -0.00344807 0.864378 -0.678215 -0.00693244 0.734831 0.751697 0.0246163 0.659049 
-0.438934 -0.0643481 0.896212 -0.619682 0.0752403 0.781238 0.778393 -0.0205627 0.627441 
-0.284611 -0.0468417 0.957498 -0.279577 -0.130871 0.951162 -0.587287 -0.0495232 0.807862 
0.798796 -0.144437 0.584005 -0.333018 -0.20754 0.919797 -0.37435 -0.240271 0.895618 
0.703925 -0.32096 0.63362 0.686149 -0.423781 0.591278 -0.22748 -0.417724 0.879636 
-0.343225 -0.300444 0.889904 -0.323207 -0.325466 0.8886 -0.567648 -0.449475 0.689745 
0.678887 -0.481066 0.554697 0.845437 -0.533127 0.0318183 0.593932 -0.647655 0.477272 
-0.116055 -0.49826 0.859225 0.0169691 -0.505496 0.862662 -0.0565971 -0.596412 0.80068 
-0.179084 -0.488855 0.853785 -0.180116 -0.451801 0.873747 -0.147334 -0.46584 0.872517 
-0.242825 -0.48158 0.842091 -0.451376 -0.652406 0.608791 0.538161 -0.68398 0.492498 
0.645528 -0.731189 0.220582 0.319685 -0.748638 0.580812 0.101938 -0.723572 0.68268 
-0.10577 -0.73257 0.672424 -0.164533 -0.610308 0.774889 -0.149707 -0.538982 0.828906 
-0.182314 -0.571927 0.799788 -0.13191 -0.608167 0.782773 -0.00395541 -0.65634 0.754454 
-0.0657429 -0.677723 0.732372 -0.197284 -0.767864 0.609478 -0.286639 -0.864848 0.41216 
0.16109 -0.934091 0.318628 -0.0902096 -0.952298 0.291533 -0.142601 -0.985614 0.0907203 
-0.0774769 0.99444 -0.0713157 0.451505 0.890811 -0.0509735 0.296716 0.954197 -0.0383151 
0.149618 0.987 -0.0586917 0.166432 0.98436 -0.0577613 -0.170596 0.982058 -0.0803672 
-0.0837785 0.97617 -0.200186 -0.322793 0.940892 -0.102604 -0.492034 0.857517 -0.150227 
0.525086 0.85098 -0.010851 0.589153 0.80791 0.0134538 0.390039 0.832184 -0.394131 
-0.515166 0.838003 -0.179874 -0.48241 0.738523 -0.471026 -0.484223 0.851983 -0.19913 
-0.246916 0.959042 -0.138817 -0.200341 0.968076 -0.150638 0.703806 0.706311 0.0760445 
0.720311 0.689143 0.0789603 -0.259364 0.597652 -0.758645 -0.160616 0.830023 -0.534101 
-0.239286 0.969954 -0.0439503 -0.16894 0.923679 -0.343914 -0.248433 0.968632 -0.00568015 
-0.419744 0.900443 0.114092 -0.604408 0.751867 0.263414 0.820711 0.567168 0.0689487 
0.871022 0.482657 0.091453 -0.637644 0.71754 0.280262 -0.530976 0.830525 -0.168201 
0.903946 0.425891 0.038698 0.798028 0.275013 -0.536208 -0.83145 0.462173 0.308361 
-0.839892 0.429874 0.331345 -0.836846 0.546136 0.0377266 0.956127 0.292853 -0.00766476 
-0.844028 0.31083 0.437037 0.984976 0.166735 -0.0449742 -0.80457 0.109458 0.583684 
0.996225 0.0511164 -0.0701671 -0.793717 -0.0419658 0.606838 0.992335 -0.080643 -0.0936396 
-0.861719 -0.251241 0.440817 -0.831334 -0.366507 0.4178 0.970103 -0.206985 -0.126721 
0.67258 -0.00870034 -0.739973 -0.82799 -0.369558 0.421734 -0.846868 -0.380775 0.371247 
0.940165 -0.333176 -0.0712943 -0.717419 -0.523954 0.459111 -0.613373 -0.693501 0.377929 
0.851366 -0.518068 -0.0823472 0.83881 -0.539256 -0.0748377 0.834003 -0.528706 -0.157823 
-0.344905 -0.873074 0.344647 -0.566771 -0.742094 0.357865 -0.493617 -0.783916 0.376587 
0.690659 -0.719307 -0.0747481 0.644484 -0.760785 -0.0764626 0.62081 -0.703756 -0.345432 
0.38173 -0.918615 -0.102116 0.23921 -0.588639 -0.772194 -0.167153 -0.982657 0.0802782 
-0.12792 -0.97584 0.177125 -0.0818927 -0.970613 0.226284 -0.11862 -0.967533 0.223178 
-0.190653 -0.949764 0.248192 -0.312104 -0.899392 0.306081 -0.269339 -0.923389 0.273514 
0.268477 -0.960733 -0.0700908 0.160856 -0.984959 -0.06309 0.188787 -0.928495 -0.319777 
-0.0610107 -0.997971 -0.0182228 -0.0387041 -0.951651 -0.304734 -0.143078 -0.988374 0.0514367 
-0.137671 -0.989646 0.0405808 -0.132383 -0.990939 -0.0226749 0.254914 0.731708 -0.632157 
0.113297 0.736343 -0.667055 -0.099673 0.710267 -0.69684 -0.317259 0.617505 -0.719746 
0.478052 0.700833 -0.529433 0.292521 0.735586 -0.611019 0.326751 0.728406 -0.602212 
0.223838 0.684647 -0.693654 0.0499768 0.595708 -0.801645 -0.108107 0.554344 -0.825236 
-0.34249 0.589831 -0.7313 -0.304081 0.570123 -0.763214 -0.396909 0.51971 -0.756547 
0.526164 0.667643 -0.526691 0.666093 0.517461 -0.537173 0.452592 0.644395 -0.616373 
0.228308 0.482079 -0.845858 0.119172 0.369971 -0.921368 -0.0311488 0.372288 -0.927594 
-0.111503 0.355787 -0.927892 -0.253044 0.353829 -0.90043 -0.279814 0.499076 -0.820139 
-0.36579 0.407469 -0.83676 -0.191504 0.509618 -0.838818 -0.0696916 0.668116 -0.740786 
-0.015351 0.747797 -0.66375 -0.0729547 0.841917 -0.534652 -0.293151 0.828741 -0.476708 
0.688249 0.491783 -0.53335 0.649798 0.456852 -0.607494 0.312576 0.263387 -0.912646 
-0.233559 0.224207 -0.94614 -0.270861 0.278476 -0.921458 -0.0909076 0.455796 -0.88543 
0.0649278 0.57248 -0.817344 0.0678214 0.651164 -0.755901 -0.00154045 0.673134 -0.739519 
-0.437995 0.819903 -0.368672 -0.215777 0.784788 -0.580989 -0.467691 0.809537 -0.354845 
-0.75215 0.606625 -0.257442 0.780695 0.264311 -0.566264 0.771924 0.217012 -0.597527 
0.468111 0.16132 -0.86882 0.328207 0.12014 -0.936935 -0.1163 0.273898 -0.954701 
0.0825704 0.479564 -0.873613 -0.442234 0.476213 -0.760033 -0.776412 0.577982 -0.25124 
-0.734509 0.590621 -0.33416 0.722096 0.0757097 -0.687638 0.706339 0.0714589 -0.704257 
0.393344 0.0455848 -0.918261 -0.920963 0.344534 -0.181997 -0.638212 0.220623 -0.737571 
0.662336 0.0722253 -0.745717 0.609711 0.0510408 -0.790979 0.347307 -0.0130718 -0.93766 
-0.968837 0.151885 -0.195665 -0.651763 0.0108837 -0.758344 0.618889 0.00605407 -0.785455 
0.544629 -0.00221738 -0.838674 0.324751 -0.016645 -0.945653 0.20903 -0.0261225 -0.97756 
-0.0258721 -0.0130618 -0.99958 -0.980516 -0.0589981 -0.187368 -0.644508 -0.00683742 -0.764567 
0.617819 -0.0872156 -0.781469 0.655199 -0.0146652 -0.755314 0.574961 -0.0848622 -0.813768 
0.341603 -0.0235632 -0.939549 0.196752 -0.00988317 -0.980403 -0.192291 -0.288974 -0.937826 
0.0424989 -0.091746 -0.994875 -0.949087 -0.227392 -0.218006 -0.68845 -0.0717137 -0.72173 
0.66083 -0.00658966 -0.750506 0.664209 -0.0290306 -0.746983 0.374532 -0.0148847 -0.927094 
0.227543 -0.0686294 -0.971347 -0.125504 -0.160066 -0.979095 0.0306727 -0.0374046 -0.998829 
0.170349 0.119422 -0.97812 -0.911063 -0.400315 -0.098554 -0.843519 -0.527131 -0.102996 
-0.75703 -0.310904 -0.57467 0.68556 -0.197181 -0.700804 0.646811 -0.251718 -0.719912 
0.630665 -0.191366 -0.752091 0.348877 -0.182166 -0.919293 0.12027 -0.213494 -0.969513 
0.0493507 -0.173922 -0.983522 -0.0450066 -0.133016 -0.990092 -0.0282693 -0.113517 -0.993134 
0.103892 -0.0415478 -0.99372 -0.783275 -0.596714 -0.174391 -0.645071 -0.748545 -0.153506 
-0.572755 -0.45867 -0.679391 0.524443 -0.400084 -0.751593 0.489285 -0.423672 -0.7623 
0.488446 -0.392481 -0.779346 0.238509 -0.586515 -0.774024 0.214708 -0.30876 -0.926589 
0.122416 -0.249715 -0.96055 -0.0101728 -0.155889 -0.987722 -0.0277156 -0.228585 -0.973129 
0.0910699 -0.244871 -0.965269 0.157126 -0.276463 -0.948093 -0.245595 -0.943032 -0.224441 
-0.618293 -0.769503 -0.159934 -0.430545 -0.873859 -0.225837 -0.371691 -0.718575 -0.587788 
0.237696 -0.586547 -0.77425 0.192528 -0.597725 -0.77824 0.185595 -0.48083 -0.856946 
0.0317983 -0.698393 -0.715007 -0.00511713 -0.488961 -0.872291 -0.0370627 -0.702915 -0.710308 
-0.0497802 -0.454505 -0.889352 -0.0439963 -0.732559 -0.679281 0.0239535 -0.513231 -0.857916 
-0.00779101 -0.826734 -0.56254 0.0623128 -0.61439 -0.786538 -0.0171619 -0.878568 -0.47731 
0.0350035 -0.667186 -0.744068 -0.086166 -0.902611 -0.421744 -0.0302874 -0.718666 -0.694695 
-0.125059 -0.920084 -0.371222 -0.0917737 -0.822838 -0.560817 -0.220129 -0.941201 -0.256287 
-0.197967 -0.929778 -0.310358 -0.176737 -0.890992 -0.418207 0.195461 0.314244 -0.929003 
0.1104 0.329946 -0.937522 -0.0367838 0.32819 -0.943895 -0.120344 0.294978 -0.947895 
0.207405 0.289066 -0.934572 0.193309 0.29957 -0.934285 0.0842433 0.226434 -0.970377 
-0.0238321 0.240822 -0.970277 -0.208112 0.225673 -0.951715 -0.130181 0.22522 -0.965572 
-0.224612 0.198116 -0.954096 0.16411 0.486826 -0.857944 0.0689775 0.544469 -0.83594 
0.0235534 0.522011 -0.852614 -0.161541 0.543554 -0.823683 0.326686 0.120195 -0.937459 
0.325636 0.113458 -0.938663 0.188822 0.122655 -0.974321 0.0577231 0.103281 -0.992976 
-0.0351024 0.11092 -0.993209 -0.139374 0.110612 -0.984043 -0.154829 0.208527 -0.965683 
-0.204284 0.126843 -0.970659 -0.0585491 0.210753 -0.975784 0.139818 0.475942 -0.868292 
0.0986434 0.415659 -0.904155 0.172833 0.469779 -0.8657 0.0691578 0.46278 -0.883771 
-0.0189911 0.429675 -0.902784 -0.320481 0.396362 -0.860343 -0.191607 0.345796 -0.918538 
-0.352293 0.407287 -0.842619 0.292449 0.0113614 -0.956214 0.279967 0.00263999 -0.960006 
0.176633 -0.0457991 -0.983211 0.0706895 -0.0309881 -0.997017 -0.0121148 -0.0115597 -0.99986 
-0.120033 -0.0281225 -0.992371 -0.082026 -0.00329822 -0.996625 0.0764734 0.0635206 -0.995046 
0.139778 0.136045 -0.980792 0.118472 0.125243 -0.985027 0.031701 0.150177 -0.988151 
-0.0612019 0.177864 -0.98215 -0.104873 0.224361 -0.968847 -0.56067 0.231163 -0.795118 
-0.28524 0.34606 -0.893801 0.226376 -0.0480701 -0.972853 0.224186 -0.0468287 -0.973421 
0.225379 -0.0484155 -0.973068 0.168475 -0.098718 -0.98075 0.0898823 -0.0894276 -0.991929 
-0.0324252 -0.0396195 -0.998689 -0.133675 -0.0279891 -0.99063 -0.114211 -0.0121737 -0.993382 
0.0345093 -0.116828 -0.992552 0.0642493 -0.162267 -0.984653 0.183404 -0.11929 -0.975773 
0.166409 -0.0709494 -0.983501 0.127018 -0.0189292 -0.99172 0.0571968 0.0375156 -0.997658 
-0.0806624 0.0960865 -0.992099 -0.551745 0.0184265 -0.83381 -0.328246 0.0619987 -0.942556 
0.187097 -0.0319894 -0.98182 0.136291 -0.0494019 -0.989436 0.128109 -0.0893432 -0.987728 
0.0495447 -0.114463 -0.992191 -0.174253 -0.2655 -0.948233 -0.0915873 -0.14004 -0.985901 
-0.0905492 -0.0638944 -0.99384 -0.100566 -0.150537 -0.983476 -0.219208 -0.167634 -0.96117 
0.0741036 0.0078141 -0.99722 0.232819 0.0982646 -0.967543 0.223527 0.0383674 -0.973942 
0.209013 0.0369108 -0.977216 0.142185 0.0118783 -0.989769 0.0517997 -0.0170654 -0.998512 
-0.087003 -0.0456432 -0.995162 -0.57997 -0.00696664 -0.814608 -0.281416 -0.0491202 -0.958328 
0.162232 -0.0152776 -0.986634 0.103208 -0.0227853 -0.994399 0.0273343 -0.0921438 -0.99537 
-0.166552 -0.268586 -0.948748 -0.121266 -0.18871 -0.974517 -0.101884 -0.231363 -0.967518 
0.255884 0.101659 -0.961347 0.265551 0.112195 -0.957546 0.226959 0.119582 -0.966535 
0.138298 0.0922978 -0.98608 0.0753906 0.0672682 -0.994883 -0.00133649 -0.0265306 -0.999647 
-0.116289 -0.0891035 -0.989211 -0.561967 -0.0697924 -0.82421 -0.30212 -0.0888361 -0.949122 
0.144745 -0.0792741 -0.986288 0.0507808 -0.125156 -0.990837 0.0550293 -0.0919389 -0.994243 
-0.0915446 -0.139991 -0.985912 -0.0669344 -0.128404 -0.989461 -0.0749572 -0.126516 -0.989128 
0.174777 0.110253 -0.978416 0.162879 0.0247239 -0.986336 0.198844 0.0740123 -0.977232 
0.201964 -0.0037092 -0.979386 0.152712 -0.0141433 -0.98817 0.0248593 -0.0707517 -0.997184 
-0.0995768 -0.0866164 -0.991253 -0.128201 -0.149419 -0.980428 -0.516707 -0.285382 -0.807199 
-0.415081 -0.371172 -0.830626 -0.349205 -0.311314 -0.883821 0.150261 -0.0443607 -0.987651 
0.157498 -0.0783666 -0.984405 0.157136 -0.0451149 -0.986546 0.140851 -0.0549083 -0.988507 
0.138635 -0.135501 -0.98103 0.0755561 -0.189706 -0.978929 -0.00623744 -0.269619 -0.962947 
-0.0860158 -0.296123 -0.951269 -0.409056 -0.371491 -0.833467 -0.284132 -0.480743 -0.829551 
-0.251722 -0.309647 -0.916927 0.116452 -0.272028 -0.955217 0.103043 -0.29517 -0.949872 
0.105568 -0.274374 -0.955811 0.0319154 -0.384007 -0.922778 0.0472615 -0.3334 -0.9416 
-0.0165998 -0.479175 -0.877562 -0.00176746 -0.411356 -0.911473 -0.0488172 -0.492531 -0.868925 
-0.0494259 -0.448674 -0.892328 -0.193058 -0.473874 -0.859169 -0.185885 -0.475847 -0.859661 
-0.183737 -0.462707 -0.867262 
