# vtk DataFile Version 4.2
vtk output
ASCII
DATASET POLYDATA
POINTS 533 float
-33.9003 -17.9151 -22.1808 -25.9196 -17.9151 -22.0138 -17.9389 -41.8572 -13.9913 
-33.9003 -33.8765 -17.5933 -25.9196 -33.8765 -18.752 -17.9389 -33.8765 -18.8416 
-9.95823 -33.8765 -17.5358 -1.97753 -33.8765 -15.0756 -41.881 -25.8958 -17.4588 
-33.9003 -20.7824 -21.6271 -33.9003 -25.8958 -20.4872 -25.9196 -20.9651 -21.6271 
-25.9196 -25.8958 -20.9994 -17.9389 -25.8958 -21.1718 -9.95823 -25.8958 -19.9155 
-1.97753 -25.8958 -17.4894 6.00317 -25.8958 -14.511 -35.6184 -17.9151 -21.6271 
-41.881 -17.9151 -18.8476 -33.9003 -14.3338 -21.6271 -22.9769 -17.9151 -21.6271 
-25.9196 -15.8303 -21.6271 -17.9389 -17.9151 -20.9382 -9.95823 -17.9151 -20.6783 
-1.97753 -17.9151 -19.3429 6.00317 -17.9151 -16.0731 29.9453 -17.9151 -13.8207 
-41.881 -9.93436 -19.1797 -33.9003 -9.93436 -20.8306 -25.9196 -9.93436 -20.5391 
-17.9389 -9.93436 -19.567 -9.95823 -9.93436 -19.6532 -1.97753 -9.93436 -19.0178 
6.00317 -9.93436 -18.7502 29.9453 -9.93436 -14.6557 37.926 -9.93436 -15.3067 
45.9067 -9.93436 -14.6893 -41.881 -1.95366 -18.8453 -33.9003 -1.95366 -20.4521 
-25.9196 -1.95366 -19.9506 -17.9389 -1.95366 -18.5367 -9.95823 -1.95366 -21.0322 
-1.97753 -1.95366 -15.409 6.00317 -1.95366 -19.4855 21.9646 -1.95366 -14.2386 
29.9453 -1.95366 -15.7399 37.926 -1.95366 -16.6426 45.9067 -1.95366 -14.8378 
-41.881 6.02704 -18.8383 -33.9003 6.02704 -20.3652 -25.9196 6.02704 -19.7467 
-17.9389 6.02704 -18.1042 -9.95823 6.02704 -18.5453 -1.97753 6.02704 -18.5864 
6.00317 6.02704 -18.9676 13.9839 6.02704 -16.7346 21.9646 6.02704 -15.825 
29.9453 6.02704 -16.526 37.926 6.02704 -16.77 45.9067 6.02704 -15.629 
-41.881 14.0077 -18.993 -33.9003 14.0077 -20.3724 -25.9196 14.0077 -20.2063 
-17.9389 14.0077 -18.3249 -9.95823 14.0077 -16.5369 -1.97753 14.0077 -16.5578 
6.00317 14.0077 -16.9639 13.9839 14.0077 -18.1944 21.9646 14.0077 -18.1837 
29.9453 14.0077 -17.6455 37.926 14.0077 -16.5531 -41.881 21.9884 -19.418 
-33.9003 21.9884 -20.8672 -25.9196 21.9884 -20.0457 -17.9389 21.9884 -19.4016 
-9.95823 21.9884 -18.262 -1.97753 21.9884 -18.1033 6.00317 21.9884 -18.1264 
13.9839 21.9884 -19.1099 21.9646 21.9884 -19.8159 29.9453 21.9884 -18.6018 
37.926 21.9884 -16.0796 -41.881 29.9691 -17.3303 -33.9003 29.9691 -19.3132 
-25.9196 29.9691 -19.9672 -17.9389 29.9691 -19.5806 -9.95823 29.9691 -19.4181 
-1.97753 29.9691 -19.1005 6.00317 29.9691 -18.7815 13.9839 29.9691 -18.9411 
21.9646 29.9691 -19.8925 29.9453 29.9691 -18.0862 -33.9003 37.9498 -17.1168 
-25.9196 37.9498 -19.0489 -17.9389 37.9498 -18.6693 -9.95823 37.9498 -19.0002 
-1.97753 37.9498 -18.7211 6.00317 37.9498 -18.0052 13.9839 37.9498 -17.9017 
21.9646 37.9498 -17.9529 29.9453 37.9498 -14.6566 -25.9196 45.9305 -14.0111 
-17.9389 45.9305 -16.1026 -9.95823 45.9305 -16.084 -1.97753 45.9305 -15.6817 
6.00317 45.9305 -15.0322 -17.9389 -42.2163 -13.6464 -33.9003 -37.661 -13.6464 
-33.9003 -41.8572 -5.67664 -19.9845 -41.8572 -13.6464 -25.9196 -40.6752 -13.6464 
-25.9196 -41.8572 -12.0148 -14.2927 -41.8572 -13.6464 -9.95823 -41.1637 -13.6464 
-9.95823 -41.8572 -13.1709 -1.97753 -37.0243 -13.6464 -1.97753 -41.8572 -11.0253 
6.00317 -41.8572 -8.33303 13.9839 -41.8572 -6.03827 -39.2098 -33.8765 -13.6464 
-41.881 -31.2081 -13.6464 -41.881 -33.8765 -9.31777 3.17762 -33.8765 -13.6464 
6.00317 -30.1562 -13.6464 6.00317 -33.8765 -12.901 13.9839 -33.8765 -11.243 
21.9646 -33.8765 -10.2866 29.9453 -33.8765 -8.17518 -45.253 -25.8958 -13.6464 
11.6052 -25.8958 -13.6464 13.9839 -25.8958 -13.2988 21.9646 -25.8958 -12.7656 
29.9453 -19.7567 -13.6464 29.9453 -25.8958 -12.9644 37.926 -25.8958 -10.4055 
45.9067 -25.8958 -6.99256 -47.0606 -17.9151 -13.6464 13.5303 -17.9151 -13.6464 
13.9839 -17.9151 -13.5259 26.5489 -17.9151 -13.6464 21.9646 -17.9151 -13.4182 
31.9611 -17.9151 -13.6464 37.926 -16.0287 -13.6464 37.926 -17.9151 -13.1636 
45.9067 -12.9445 -13.6464 45.9067 -17.9151 -11.6358 53.8874 -17.9151 -7.71038 
-47.7969 -9.93436 -13.6464 12.5444 -9.93436 -13.6464 13.9839 -9.93436 -12.8809 
23.838 -9.93436 -13.6464 21.9646 -7.21249 -13.6464 21.9646 -9.93436 -13.3467 
48.5557 -9.93436 -13.6464 53.8874 -9.93436 -10.8846 -47.3506 -1.95366 -13.6464 
13.3678 -1.95366 -13.6464 16.7115 -1.95366 -13.6464 13.9839 -1.08181 -13.6464 
13.9839 -1.95366 -13.3257 49.4203 -1.95366 -13.6464 53.8874 -1.95366 -11.9498 
-47.7606 6.02704 -13.6464 50.3042 6.02704 -13.6464 45.9067 12.1332 -13.6464 
53.8874 6.02704 -11.0136 -48.5762 14.0077 -13.6464 -49.8617 14.0077 -7.48336 
44.1759 14.0077 -13.6464 45.9067 14.0077 -12.7457 53.8874 14.0077 -6.29119 
-48.7512 21.9884 -13.6464 -49.8617 21.9884 -8.01803 41.003 21.9884 -13.6464 
37.926 28.1233 -13.6464 45.9067 21.9884 -7.728 -46.0452 29.9691 -13.6464 
-41.881 36.1195 -13.6464 36.9695 29.9691 -13.6464 37.926 29.9691 -12.0007 
-39.9549 37.9498 -13.6464 -41.881 37.9498 -9.2187 -33.9003 42.4363 -13.6464 
13.9839 45.4203 -13.6464 21.9646 42.2907 -13.6464 31.1518 37.9498 -13.6464 
29.9453 38.9486 -13.6464 -26.7676 45.9305 -13.6464 -25.9196 46.3354 -13.6464 
-17.9389 48.6608 -13.6464 -9.95823 48.6385 -13.6464 -1.97753 48.1359 -13.6464 
12.4137 45.9305 -13.6464 6.00317 47.3694 -13.6464 13.9839 45.9305 -12.7468 
-33.9003 -41.8621 -5.66574 -25.9196 -45.354 -5.66574 -17.9389 -47.6476 -5.66574 
-9.95823 -47.7382 -5.66574 -9.95823 -49.8379 1.23418 -1.97753 -47.0014 -5.66574 
6.00317 -44.5406 -5.66574 13.9839 -42.2007 -5.66574 -33.9084 -41.8572 -5.66574 
-41.881 -35.6313 -5.66574 15.3775 -41.8572 -5.66574 21.9646 -39.7876 -5.66574 
21.9646 -41.8572 -1.79485 29.9453 -36.7955 -5.66574 -43.5816 -33.8765 -5.66574 
36.8933 -33.8765 -5.66574 37.926 -33.3311 -5.66574 37.926 -33.8765 -3.94725 
45.9067 -27.277 -5.66574 -47.6116 -25.8958 -5.66574 47.5376 -25.8958 -5.66574 
53.8874 -19.7881 -5.66574 -48.5823 -17.9151 -5.66574 55.548 -17.9151 -5.66574 
-48.2624 -9.93436 -5.66574 59.5153 -9.93436 -5.66574 -47.9924 -1.95366 -5.66574 
61.0217 -1.95366 -5.66574 61.8681 -1.95366 0.380906 -48.7323 6.02704 -5.66574 
-49.8617 12.2154 -5.66574 59.5579 6.02704 -5.66574 -50.156 14.0077 -5.66574 
-49.8617 14.0077 -4.91419 54.3329 14.0077 -5.66574 53.8874 14.5479 -5.66574 
-50.1599 21.9884 -5.66574 -49.8617 23.4524 -5.66574 -49.8617 21.9884 -4.83215 
47.3359 21.9884 -5.66574 45.9067 23.8641 -5.66574 -48.2022 29.9691 -5.66574 
41.0428 29.9691 -5.66574 37.926 33.7635 -5.66574 -43.0335 37.9498 -5.66574 
-41.881 39.2731 -5.66574 -41.881 37.9498 -3.43776 -33.9003 45.6313 -5.66574 
21.9646 45.4691 -5.66574 34.1482 37.9498 -5.66574 29.9453 41.2984 -5.66574 
29.9453 37.9498 2.20636 -33.3013 45.9305 -5.66574 -25.9196 49.4149 -5.66574 
-17.9389 51.8177 -5.66574 -9.95823 52.8102 -5.66574 -1.97753 52.1272 -5.66574 
6.00317 50.3895 -5.66574 20.837 45.9305 -5.66574 13.9839 48.4828 -5.66574 
13.9839 45.9305 0.659911 -9.95823 -50.1322 2.31496 -33.9003 -42.5409 2.31496 
-25.9196 -46.6892 2.31496 -12.9437 -49.8379 2.31496 -17.9389 -49.3262 2.31496 
-6.58891 -49.8379 2.31496 -9.95823 -49.8379 4.22036 -1.97753 -49.4344 2.31496 
6.00317 -47.506 2.31496 13.9839 -45.4699 2.31496 21.9646 -43.2102 2.31496 
-34.8737 -41.8572 2.31496 -41.881 -35.1799 2.31496 -33.9003 -41.8572 6.03642 
25.3335 -41.8572 2.31496 21.9646 -41.8572 6.82583 29.9453 -39.8182 2.31496 
37.926 -35.2474 2.31496 -42.94 -33.8765 2.31496 -41.881 -33.8765 6.34392 
39.8073 -33.8765 2.31496 37.926 -33.8765 6.61915 45.9067 -28.9684 2.31496 
-46.0973 -25.8958 2.31496 49.3519 -25.8958 2.31496 45.9067 -25.8958 9.07716 
53.8874 -21.2433 2.31496 -46.7083 -17.9151 2.31496 56.7199 -17.9151 2.31496 
53.8874 -17.9151 7.8359 -46.3783 -9.93436 2.31496 60.8723 -9.93436 2.31496 
61.8681 -3.43447 2.31496 -45.5755 -1.95366 2.31496 61.8681 0.0526972 2.31496 
61.8681 -1.95366 2.91464 -45.8825 6.02704 2.31496 61.0908 6.02704 2.31496 
-46.8005 14.0077 2.31496 -41.881 14.0077 9.98602 55.8107 14.0077 2.31496 
53.8874 16.1332 2.31496 53.8874 14.0077 7.71287 -46.788 21.9884 2.31496 
-41.881 21.9884 8.48283 47.8641 21.9884 2.31496 45.9067 23.8675 2.31496 
45.9067 21.9884 6.95676 -44.3852 29.9691 2.31496 -41.881 33.9728 2.31496 
-41.881 29.9691 5.31893 29.9453 37.8954 2.31496 39.1949 29.9691 2.31496 
37.926 31.2173 2.31496 37.926 29.9691 4.40528 -38.5584 37.9498 2.31496 
-33.9003 42.0327 2.31496 -33.9003 37.9498 6.4052 -25.9196 37.9498 9.98009 
13.9839 45.1673 2.31496 29.86 37.9498 2.31496 21.9646 42.3574 2.31496 
21.9646 37.9498 8.12397 -27.1788 45.9305 2.31496 -25.9196 46.6835 2.31496 
-25.9196 45.9305 3.15405 -17.9389 49.2388 2.31496 -17.9389 45.9305 6.74158 
-9.95823 50.1052 2.31496 -9.95823 45.9305 7.89587 -1.97753 49.4009 2.31496 
-1.97753 45.9305 7.15096 11.7009 45.9305 2.31496 6.00317 47.6644 2.31496 
6.00317 45.9305 4.78677 -25.9196 -45.3946 10.2957 -17.9389 -47.9658 10.2957 
-9.95823 -48.7425 10.2957 -1.97753 -47.8707 10.2957 6.00317 -45.6442 10.2957 
13.9839 -43.0074 10.2957 -32.5029 -41.8572 10.2957 -33.9003 -40.9505 10.2957 
-25.9196 -41.8572 16.1139 -1.97753 -41.8572 17.4715 6.00317 -41.8572 14.9229 
17.7838 -41.8572 10.2957 13.9839 -41.8572 11.8327 21.9646 -40.4873 10.2957 
29.9453 -36.7809 10.2957 -40.8139 -33.8765 10.2957 -41.881 -31.7315 10.2957 
21.9646 -33.8765 16.7248 35.3172 -33.8765 10.2957 29.9453 -33.8765 13.1535 
37.926 -31.9294 10.2957 -44.1917 -25.8958 10.2957 -41.881 -25.8958 14.3905 
29.9453 -25.8958 18.1447 44.9378 -25.8958 10.2957 37.926 -25.8958 14.2069 
45.9067 -24.9217 10.2957 -44.7892 -17.9151 10.2957 -41.881 -17.9151 16.1431 
37.926 -17.9151 17.6683 51.9356 -17.9151 10.2957 45.9067 -17.9151 14.0288 
53.8874 -15.7513 10.2957 -44.4 -9.93436 10.2957 -41.881 -9.93436 14.6156 
45.9067 -9.93436 17.4508 57.1264 -9.93436 10.2957 53.8874 -9.93436 13.5178 
-43.0993 -1.95366 10.2957 -41.881 -1.95366 12.357 58.5131 -1.95366 10.2957 
53.8874 -1.95366 15.1099 -42.4747 6.02704 10.2957 -41.881 11.987 10.2957 
-41.881 6.02704 11.1386 -33.9003 6.02704 18.0651 13.9839 6.02704 17.298 
57.8064 6.02704 10.2957 53.8874 12.4171 10.2957 53.8874 6.02704 14.5111 
-41.5978 14.0077 10.2957 -33.9003 14.0077 15.8771 -25.9196 14.0077 17.8355 
[...]
POINT_DATA 533
SCALARS ImageScalars float
LOOKUP_TABLE default
0 0 0 0 0 0 0 0 0 
0 0 0 0 0 0 0 0 0 
0 0 0 0 0 0 0 0 0 
0 0 0 0 0 0 0 0 0 
0 0 0 0 0 0 0 0 0 
0 0 0 0 0 0 0 0 0 
0 0 0 0 0 0 0 0 0 
0 0 0 0 0 0 0 0 0 
0 0 0 0 0 0 0 0 0 
0 0 0 0 0 0 0 0 0 
0 0 0 0 0 0 0 0 0 
0 0 0 0 0 0 0 0 0 
0 0 0 0 0 0 0 0 0 
0 0 0 0 0 0 0 0 0 
0 0 0 0 0 0 0 0 0 
0 0 0 0 0 0 0 0 0 
0 0 0 0 0 0 0 0 0 
0 0 0 0 0 0 0 0 0 
0 0 0 0 0 0 0 0 0 
0 0 0 0 0 0 0 0 0 
0 0 0 0 0 0 0 0 0 
0 0 0 0 0 0 0 0 0 
0 0 0 0 0 0 0 0 0 
0 0 0 0 0 0 0 0 0 
0 0 0 0 0 0 0 0 0 
0 0 0 0 0 0 0 0 0 
0 0 0 0 0 0 0 0 0 
0 0 0 0 0 0 0 0 0 
0 0 0 0 0 0 0 0 0 
0 0 0 0 0 0 0 0 0 
0 0 0 0 0 0 0 0 0 
0 0 0 0 0 0 0 0 0 
0 0 0 0 0 0 0 0 0 
0 0 0 0 0 0 0 0 0 
0 0 0 0 0 0 0 0 0 
0 0 0 0 0 0 0 0 0 
0 0 0 0 0 0 0 0 0 
0 0 0 0 0 0 0 0 0 
0 0 0 0 0 0 0 0 0 
0 0 0 0 0 0 0 0 0 
0 0 0 0 0 0 0 0 0 
0 0 0 0 0 0 0 0 0 
0 0 0 0 0 0 0 0 0 
0 0 0 0 0 0 0 0 0 
0 0 0 0 0 0 0 0 0 
0 0 0 0 0 0 0 0 0 
0 0 0 0 0 0 0 0 0 
0 0 0 0 0 0 0 0 0 
0 0 0 0 0 0 0 0 0 
0 0 0 0 0 0 0 0 0 
0 0 0 0 0 0 0 0 0 
0 0 0 0 0 0 0 0 0 
0 0 0 0 0 0 0 0 0 
0 0 0 0 0 0 0 0 0 
0 0 0 0 0 0 0 0 0 
0 0 0 0 0 0 0 0 0 
0 0 0 0 0 0 0 0 0 
0 0 0 0 0 0 0 0 0 
0 0 0 0 0 0 0 0 0 
0 0 
NORMALS Normals float
0.15962 0.0185667 0.987004 -0.0778924 -0.0294726 0.996526 0.0273316 0.681306 0.731489 
0.331111 0.553938 0.763884 0.0588984 0.422952 0.904236 -0.0701568 0.399088 0.914225 
-0.214124 0.374525 0.902154 -0.269357 0.344625 0.899267 0.59802 0.339604 0.725976 
0.160584 0.0910553 0.982813 0.174851 0.238723 0.955217 -0.0337426 0.0545527 0.997941 
0.0425264 0.190411 0.980783 -0.0666503 0.119457 0.9906 -0.216784 0.179607 0.959555 
-0.320869 0.244052 0.91514 -0.248842 0.174475 0.952699 0.228557 0.0279935 0.973128 
0.574549 0.090022 0.813504 0.12358 -0.0375769 0.991623 -0.0827383 -0.0559419 0.995 
-0.0809316 -0.0552613 0.995187 -0.0842403 -0.101224 0.991291 -0.0939959 -0.0179519 0.995411 
-0.254481 0.0924212 0.962651 -0.36263 0.211538 0.907608 -0.0170764 0.100691 0.994771 
0.460626 -0.00160867 0.887593 0.0770768 -0.110203 0.990916 -0.0780477 -0.127362 0.988781 
-0.0549661 -0.142224 0.988307 -0.0310103 0.00574719 0.999503 -0.0549447 -0.171341 0.983679 
-0.271402 0.202701 0.940879 0.122135 0.118908 0.985365 -0.0016777 0.214082 0.976814 
-0.230463 0.175613 0.957103 0.478552 -0.0226519 0.877767 0.0609024 -0.0294782 0.997708 
-0.114615 -0.0492083 0.99219 0.0380429 -0.0931433 0.994926 -0.0780809 -0.0147329 0.996838 
-0.176324 -0.0444757 0.983327 0.0556508 0.000407466 0.99845 0.122846 0.153183 0.980532 
0.145652 0.113536 0.9828 -0.0550128 0.090558 0.994371 -0.255435 0.0647399 0.964656 
0.447735 0.0101603 0.894108 0.0511116 -0.00498601 0.99868 -0.140276 0.0136771 0.990018 
-0.0856063 -0.0121817 0.996255 0.0367546 -0.309791 0.950094 0.0282271 -0.0050471 0.999589 
-0.0978316 -0.153182 0.983343 -0.218724 0.19035 0.957041 -0.00156786 0.248792 0.968556 
0.0571987 0.117266 0.991452 -0.0684964 -0.0041878 0.997643 -0.281382 -0.100367 0.954333 
0.396963 0.0326848 0.917252 0.0735887 0.0296375 0.996848 -0.131032 0.0191923 0.991192 
-0.220667 0.0815088 0.971937 -0.111058 0.0273512 0.993437 0.0264192 -0.0142695 0.999549 
0.103588 -0.0447424 0.993613 0.0735435 0.129132 0.988897 -0.0341257 0.249683 0.967726 
-0.0947201 0.12838 0.987191 -0.280004 -0.0382225 0.959238 0.415363 -0.102813 0.903827 
0.0206709 -0.0770427 0.996813 -0.0887722 -0.0139831 0.995954 -0.111504 0.0780582 0.990694 
-0.0803593 0.177924 0.980758 -0.00845483 0.160142 0.987058 0.063387 0.112403 0.991639 
0.105092 0.0465008 0.993375 -0.028047 0.105044 0.994072 -0.207548 0.0277506 0.977831 
-0.482054 -0.194237 0.854339 0.491066 -0.322658 0.809164 0.153067 -0.215669 0.964395 
0.0201747 -0.0543127 0.99832 -0.0337168 -0.0440955 0.998458 -0.0300315 0.0464804 0.998468 
-0.0397943 0.0394568 0.998429 -0.0100229 -0.00541535 0.999935 0.066903 -0.0785847 0.99466 
-0.0539888 -0.0886079 0.994602 -0.381035 -0.205195 0.901503 0.306455 -0.462545 0.831948 
0.0914645 -0.321345 0.942535 0.000131226 -0.208705 0.977979 0.00353108 -0.177201 0.984168 
-0.0609108 -0.181426 0.981516 -0.0506204 -0.217428 0.974763 -0.00402973 -0.309732 0.950815 
-0.171787 -0.496738 0.85073 -0.503427 -0.632378 0.588778 0.319781 -0.689819 0.649531 
0.117299 -0.5581 0.821441 -0.024118 -0.556955 0.830193 -0.0637959 -0.583319 0.809734 
-0.136588 -0.640882 0.75539 0.0321766 0.694642 0.718636 0.375618 0.715455 0.589096 
0.459811 0.857535 0.23067 0.0799099 0.710494 0.699151 0.20726 0.733065 0.647811 
0.241377 0.795268 0.556135 -0.0494856 0.655994 0.753142 -0.148735 0.595809 0.789233 
-0.138047 0.625651 0.767791 -0.25493 0.417091 0.87238 -0.234152 0.58782 0.774364 
-0.246212 0.659138 0.710575 -0.221478 0.753525 0.618989 0.535287 0.623623 0.569704 
0.646015 0.536366 0.543117 0.700482 0.633068 0.329469 -0.232865 0.317773 0.919127 
-0.230197 0.238931 0.943356 -0.21558 0.311992 0.925303 -0.149218 0.375307 0.914811 
-0.18049 0.429073 0.885054 -0.249411 0.615056 0.747998 0.806699 0.327857 0.491677 
-0.145896 0.143323 0.978863 -0.103744 0.134113 0.985521 -0.0234423 0.171768 0.984859 
-0.044405 0.146515 0.988211 -0.132668 0.30354 0.943537 -0.320056 0.430283 0.84405 
-0.517 0.653376 0.553002 0.876763 0.147651 0.457697 -0.151232 -0.0147804 0.988388 
-0.138314 -0.0255539 0.990059 -0.00216806 0.0708932 0.997482 0.0178494 0.0344262 0.999248 
-0.0449309 0.145966 0.988269 -0.0908514 0.260359 0.961228 -0.122501 0.27697 0.953038 
-0.223819 0.26643 0.937507 -0.262543 0.430232 0.863697 -0.657888 0.538985 0.526002 
0.922854 0.016478 0.384797 -0.32661 0.0118112 0.945085 -0.279786 -0.0170447 0.959911 
0.11018 0.0666534 0.991674 0.121313 0.0845927 0.989003 0.107466 0.0501125 0.992945 
-0.318789 0.170138 0.932431 -0.564432 0.193399 0.802505 0.907974 -0.00318313 0.419014 
-0.27414 0.291198 0.916543 -0.0963883 0.241899 0.965502 -0.272626 0.30722 0.911752 
-0.271082 0.294446 0.916415 -0.338847 0.0513988 0.939437 -0.502846 0.012948 0.864279 
0.891855 0.0697804 0.446907 -0.447076 -0.15131 0.881606 -0.401684 -0.29032 0.868541 
-0.624561 -0.242102 0.742503 0.873694 0.0546062 0.483401 0.996428 0.084381 0.00324183 
-0.409202 -0.288823 0.865526 -0.457233 -0.364296 0.811311 -0.732535 -0.548441 0.403243 
0.857258 -0.145789 0.493817 0.991771 -0.120162 0.044182 -0.596674 -0.27507 0.753868 
-0.660228 -0.372465 0.652203 -0.758619 -0.527506 0.382407 0.785578 -0.371108 0.495123 
0.65425 -0.588239 0.475323 -0.666954 -0.401451 0.627702 -0.71987 -0.473155 0.507849 
0.589685 -0.635476 0.49844 0.736558 -0.660296 0.146602 0.408539 -0.704592 0.580212 
-0.246261 -0.740491 0.625323 -0.313823 -0.760401 0.5686 -0.546199 -0.645384 0.53399 
-0.500263 -0.685206 0.529367 0.340405 -0.706666 0.62028 0.326533 -0.704455 0.630174 
0.11922 -0.744938 0.656395 -0.0282664 -0.714308 0.69926 -0.073227 -0.71388 0.696429 
-0.23401 -0.745563 0.623999 -0.146924 -0.733627 0.663479 -0.267779 -0.796251 0.542475 
0.459919 0.857591 0.230242 0.310041 0.901777 0.301119 0.138236 0.916592 0.375166 
-0.0321977 0.89017 0.45449 0.00202729 0.994237 0.107184 -0.169363 0.847579 0.502917 
-0.252959 0.781594 0.570195 -0.227552 0.767718 0.599023 0.460128 0.857501 0.230163 
0.733595 0.664096 0.144274 -0.23408 0.772099 0.590822 -0.262075 0.763296 0.590505 
-0.309707 0.913826 0.262686 -0.312928 0.733065 0.603897 0.777164 0.615886 0.129229 
-0.449181 0.744268 0.494268 -0.465591 0.742335 0.481833 -0.507802 0.784686 0.355535 
-0.552597 0.690346 0.466969 0.96853 0.24636 0.0354425 -0.571113 0.681161 0.458094 
-0.697558 0.603936 0.385584 0.998524 0.0403811 -0.0363098 -0.726212 0.565466 0.390978 
0.995729 -0.0356621 -0.0851574 -0.83173 0.299612 0.467395 0.99269 0.0276724 -0.11748 
-0.888719 0.0106072 0.458331 -0.999831 0.0181936 -0.00267742 0.98404 0.127539 -0.124095 
0.987782 0.0957888 -0.122925 -0.785306 -0.400126 0.472433 0.989249 0.0858775 -0.118371 
0.984717 0.0856845 -0.151629 -0.744655 -0.556339 0.368749 -0.739393 -0.566417 0.363965 
0.988051 -0.10346 -0.114241 0.982189 -0.147364 -0.116568 0.981499 -0.10741 -0.158502 
-0.759269 -0.589062 0.276615 -0.776973 -0.581898 0.240226 0.924259 -0.368909 -0.0982458 
-0.769677 -0.631813 0.091707 -0.745914 -0.665213 0.0332259 0.774419 -0.628673 -0.071023 
0.74463 -0.664273 -0.0653189 0.750601 -0.626611 -0.209659 0.500317 -0.865543 -0.0227691 
-0.404417 -0.914456 -0.0147223 -0.671106 -0.73999 -0.0450795 -0.559042 -0.828507 -0.0323829 
-0.547223 -0.714841 -0.435372 0.485849 -0.873815 -0.0199794 0.34741 -0.937449 0.0222639 
0.192438 -0.981164 0.0168581 0.0208104 -0.999064 0.0379289 -0.150819 -0.988108 0.0299558 
-0.220335 -0.97538 0.00932272 -0.390338 -0.920498 -0.0178572 -0.304086 -0.952644 -0.000981065 
-0.305482 -0.861191 -0.406241 0.00563433 0.99832 0.0576689 0.546143 0.836691 -0.0409427 
0.37752 0.925995 0.00342629 0.0807147 0.995784 0.0435705 0.207068 0.978171 0.0174433 
-0.0647866 0.996657 0.0497704 0.00411939 0.999035 -0.0437259 -0.160373 0.986316 0.0382391 
-0.240336 0.969565 0.0467172 -0.273268 0.961295 0.0351806 -0.321483 0.946811 0.0140547 
0.571025 0.819589 -0.0469523 0.806199 0.578333 -0.124799 0.553459 0.81699 -0.161895 
-0.367772 0.929835 0.0122883 -0.314065 0.913963 -0.256972 -0.439192 0.898378 0.00517674 
-0.565912 0.823476 -0.0403736 0.835481 0.532447 -0.135907 0.813648 0.531034 -0.236598 
-0.591669 0.804648 -0.0496923 -0.571639 0.771173 -0.280216 -0.654385 0.751353 -0.0851377 
0.960209 0.192451 -0.20239 -0.683833 0.722436 -0.102268 -0.602343 0.62673 -0.49436 
-0.7501 0.648067 -0.131755 0.973948 0.0184981 -0.226016 -0.797095 0.586519 -0.143647 
-0.691263 0.576317 -0.435906 0.969709 -0.0717241 -0.233496 -0.948169 0.288848 -0.132443 
-0.990311 0.0644861 -0.122989 0.958506 -0.0258341 -0.2839 -0.989762 -0.0741044 -0.121986 
-0.988504 0.0200211 -0.149864 0.932255 0.0716805 -0.354629 -0.912837 -0.391825 -0.114898 
0.889457 0.0544595 -0.453762 0.741851 -0.107034 -0.661967 -0.777994 -0.624506 -0.0686898 
-0.736567 -0.672209 -0.0748543 -0.71013 -0.613486 -0.345472 0.832122 -0.137874 -0.537181 
0.676443 -0.198617 -0.709208 -0.679636 -0.723412 -0.12153 -0.674571 -0.721914 -0.154254 
-0.617633 -0.711506 -0.335095 0.766855 -0.362607 -0.529575 0.68927 -0.473363 -0.548484 
0.656716 -0.39489 -0.642485 -0.545962 -0.713006 -0.439942 -0.651765 -0.701657 -0.287887 
-0.649168 -0.694312 -0.310665 -0.618119 -0.697803 -0.361939 0.600876 -0.57183 -0.558532 
0.48661 -0.680536 -0.547797 0.477585 -0.544539 -0.689485 0.304347 -0.491227 -0.816131 
-0.29274 -0.811886 -0.505118 -0.544294 -0.713887 -0.440579 -0.342598 -0.816806 -0.46417 
-0.306201 -0.711451 -0.632517 0.405893 -0.757472 -0.511359 0.389699 -0.768637 -0.507279 
0.393715 -0.745387 -0.537947 0.168004 -0.872935 -0.457995 0.20046 -0.708579 -0.676558 
0.0094783 -0.877051 -0.480304 0.0190629 -0.720379 -0.693319 -0.137781 -0.871035 -0.471502 
-0.125936 -0.744092 -0.6561 -0.279892 -0.822188 -0.495648 -0.222058 -0.857909 -0.463339 
-0.228886 -0.794399 -0.562619 0.366567 0.872358 -0.323451 0.192146 0.91941 -0.343171 
-0.00339764 0.917698 -0.397263 -0.169573 0.901061 -0.399166 -0.269781 0.85907 -0.434991 
-0.275365 0.839122 -0.469092 0.517817 0.797566 -0.309441 0.557782 0.769804 -0.310293 
0.305888 0.724496 -0.617687 -0.16683 0.581794 -0.796042 -0.247614 0.688644 -0.681511 
-0.280703 0.833526 -0.475858 -0.26631 0.799063 -0.539053 -0.295859 0.815919 -0.496732 
-0.412538 0.737825 -0.534254 0.776031 0.526975 -0.346517 0.830573 0.433593 -0.349494 
-0.27418 0.525057 -0.805692 -0.497071 0.690506 -0.525473 -0.378669 0.624436 -0.683147 
-0.526771 0.653788 -0.543207 0.91288 0.195455 -0.358395 0.828214 0.222417 -0.514386 
-0.322456 0.328837 -0.887631 -0.567721 0.584576 -0.579624 -0.444712 0.444273 -0.777723 
-0.570853 0.575852 -0.585254 0.939785 0.0122954 -0.341545 0.796356 0.00588451 -0.6048 
-0.310409 0.287906 -0.905956 -0.602841 0.520984 -0.604283 -0.44521 0.402505 -0.799861 
-0.646629 0.482293 -0.590985 0.925701 -0.104573 -0.363514 0.802289 -0.136723 -0.581067 
-0.34416 0.27353 -0.898184 -0.736777 0.288347 -0.611569 -0.601479 0.279647 -0.748345 
0.902687 -0.112739 -0.415266 0.849388 -0.130631 -0.511347 -0.786005 0.0382587 -0.617035 
-0.603623 0.0553912 -0.795343 0.849285 -0.0796578 -0.52189 0.765263 -0.10569 -0.634982 
0.827981 -0.0944055 -0.552752 0.375762 -0.178153 -0.909431 -0.210715 -0.138129 -0.967739 
-0.78476 -0.296093 -0.5445 -0.687498 -0.53429 -0.491814 -0.628927 -0.259359 -0.732928 
0.727875 -0.116467 -0.675747 0.395543 -0.244713 -0.885246 0.148908 -0.227484 -0.962329 
-0.0807298 0.050897 -0.995436 0.0495783 -0.0894923 -0.994753 -0.152664 -0.323271 -0.933911 
-0.653338 -0.579041 -0.48771 -0.556961 -0.662808 -0.500479 -0.431659 -0.477529 -0.765269 
0.580837 -0.237048 -0.778741 0.385522 -0.280189 -0.879128 0.192709 -0.243202 -0.95064 
0.101764 -0.177642 -0.978819 0.0536389 -0.130862 -0.989949 0.031839 -0.162096 -0.986261 
0.0131192 -0.171211 -0.985147 -0.0481031 -0.105731 -0.993231 -0.0981393 -0.164877 -0.98142 
-0.183346 -0.349684 -0.918752 -0.528182 -0.673936 -0.51656 -0.48134 -0.660442 -0.576305 
-0.378359 -0.567611 -0.731206 0.426993 -0.379567 -0.820735 0.422663 -0.384773 -0.820552 
0.421186 -0.378814 -0.824076 0.303415 -0.476594 -0.825105 0.283289 -0.332135 -0.899685 
0.162 -0.268337 -0.949606 0.0433966 -0.238004 -0.970294 -0.0127879 -0.268771 -0.963119 
-0.032976 -0.325404 -0.945 -0.082677 -0.39279 -0.915904 -0.27253 -0.647308 -0.711842 
-0.204227 -0.468687 -0.859432 -0.433931 -0.644417 -0.629627 -0.403379 -0.640246 -0.653736 
-0.379493 -0.604676 -0.700252 0.290132 -0.485143 -0.8249 0.195773 -0.531834 -0.823909 
0.187803 -0.458243 -0.86876 0.0282239 -0.605915 -0.795029 0.0449564 -0.44936 -0.892219 
-0.0992149 -0.603957 -0.790817 -0.0703748 -0.476823 -0.876178 -0.15242 -0.604143 -0.782163 
-0.122374 -0.54459 -0.829726 -0.21158 -0.648676 -0.731063 -0.194537 -0.644776 -0.739202 
-0.187465 -0.632391 -0.751624 0.0932688 0.606003 -0.789976 -0.0372544 0.5886 -0.807565 
0.468088 0.47831 -0.743043 0.0965139 0.6064 -0.789281 0.263533 0.596067 -0.758456 
0.0930176 0.604672 -0.791024 -0.0768538 0.572454 -0.816327 -0.0374918 0.57446 -0.817673 
-0.156265 0.520768 -0.839274 -0.180422 0.486207 -0.855015 -0.188016 0.481788 -0.85588 
0.492738 0.447523 -0.746279 0.458687 0.441257 -0.771297 0.208924 0.385018 -0.89895 
0.0213249 0.314233 -0.949106 -0.0663039 0.312673 -0.947544 -0.115258 0.323598 -0.939149 
-0.145316 0.389047 -0.909684 -0.204508 0.46806 -0.859707 -0.180774 0.455035 -0.871931 
-0.242105 0.396985 -0.885318 0.627173 0.20322 -0.751901 0.41949 0.159025 -0.893722 
0.142506 0.0890587 -0.985779 0.0132174 0.0990373 -0.994996 -0.0506749 0.126388 -0.990686 
-0.0870761 0.144851 -0.985614 -0.0934981 0.170843 -0.980852 -0.133504 0.207636 -0.969053 
-0.314664 0.322644 -0.892685 -0.200054 0.244059 -0.948901 -0.313571 0.31339 -0.896359 
0.658048 -0.00872226 -0.752925 0.336589 -0.0623603 -0.939584 0.150399 -0.086632 -0.984822 
0.0575225 -0.067791 -0.99604 -0.0127328 -0.000845551 -0.999919 -0.0728176 -0.0170453 -0.9972 
-0.0857747 -0.00489602 -0.996303 -0.117547 -0.0028517 -0.993063 -0.157724 0.0260401 -0.98714 
-0.279623 0.243984 -0.928592 -0.208665 0.13592 -0.968496 -0.270319 0.252237 -0.929142 
0.51947 -0.164673 -0.838471 0.348056 -0.159007 -0.923891 0.149083 -0.14041 -0.978805 
0.0992386 -0.138452 -0.985385 -0.000487702 -0.0967608 -0.995308 -0.0920013 -0.235306 -0.967557 
-0.0774348 -0.0604403 -0.995164 -0.104146 -0.138275 -0.984903 -0.0637217 -0.116883 -0.991099 
-0.0610091 0.0505255 -0.996858 -0.283881 0.237775 -0.928911 -0.176428 0.175568 -0.968529 
-0.314728 0.171103 -0.933633 0.427103 -0.141445 -0.893071 0.37109 -0.16885 -0.913117 
0.368043 -0.136812 -0.919689 0.159981 -0.15307 -0.97518 0.104274 -0.134217 -0.98545 
-0.107389 -0.163945 -0.980607 -0.0446169 -0.193308 -0.980123 0.015167 -0.0162341 -0.999753 
-0.207447 -0.198998 -0.957792 -0.177884 -0.25581 -0.95022 0.0436028 -0.123466 -0.99139 
0.0827751 -0.0370213 -0.99588 -0.101151 0.0264101 -0.99452 -0.350311 0.0727238 -0.933806 
-0.287509 0.0751006 -0.954829 0.345575 -0.179213 -0.921119 0.148891 -0.217782 -0.964574 
0.156581 -0.187151 -0.969772 0.0881012 -0.197373 -0.976362 -0.0547364 -0.246587 -0.967574 
0.0619095 -0.0499419 -0.996831 -0.217136 -0.154861 -0.963779 -0.110778 -0.179253 -0.977546 
0.0559188 -0.103566 -0.993049 0.106521 -0.087958 -0.990412 0.158043 -0.0824622 -0.983983 
0.0873617 -0.133949 -0.98713 -0.136977 -0.29549 -0.945475 -0.0598387 -0.163942 -0.984653 
-0.349012 -0.206083 -0.914177 -0.324323 -0.242533 -0.914326 -0.313624 -0.197445 -0.928793 
0.0861742 -0.224705 -0.970609 0.0620378 -0.216024 -0.974415 0.0540145 -0.22305 -0.973309 
0.037681 -0.180623 -0.98283 0.0274337 -0.213051 -0.976656 0.0320171 -0.146804 -0.988647 
0.0330077 -0.117001 -0.992583 -0.0817363 -0.0666994 -0.99442 -0.00133577 -0.182117 -0.983276 
-0.0811756 -0.245188 -0.966071 0.0156551 -0.17723 -0.984045 -0.0433485 -0.242752 -0.969119 
-0.00864273 -0.216865 -0.976163 0.00264765 -0.207338 -0.978266 
