# vtk DataFile Version 4.2
vtk output
ASCII
DATASET POLYDATA
POINTS 530 float
-31.2723 -38.3756 -13.2801 -23.7 -38.3756 -15.8897 -16.1276 -38.3756 -15.8284 
-8.5552 -38.3756 -14.6983 -0.982817 -38.3756 -13.383 6.58957 -38.3756 -12.2869 
-38.8447 -30.8032 -13.1246 -31.2723 -30.8032 -16.8265 -23.7 -30.8032 -17.7866 
-16.1276 -30.8032 -17.9335 -8.5552 -30.8032 -16.8461 -0.982817 -30.8032 -15.4757 
6.58957 -30.8032 -14.5369 14.1619 -30.8032 -14.0281 21.7343 -30.8032 -12.638 
-38.8447 -23.2308 -15.7232 -31.2723 -23.2308 -17.7106 -23.7 -23.2308 -18.4342 
-16.1276 -23.2308 -18.698 -8.5552 -23.2308 -17.8184 -0.982817 -23.2308 -16.6295 
6.58957 -23.2308 -16.0536 14.1619 -23.2308 -15.4927 21.7343 -23.2308 -15.0421 
29.3067 -23.2308 -14.1143 -46.4171 -15.6584 -12.4277 -38.8447 -15.6584 -16.9619 
-31.2723 -15.6584 -18.0643 -23.7 -15.6584 -17.9586 -16.1276 -15.6584 -17.8164 
-8.5552 -15.6584 -18.1046 -0.982817 -15.6584 -18.3416 6.58957 -15.6584 -17.5864 
14.1619 -15.6584 -16.9405 21.7343 -15.6584 -17.2444 29.3067 -15.6584 -17.1218 
36.8791 -15.6584 -15.3632 -46.4171 -8.08603 -14.3995 -38.8447 -8.08603 -17.1637 
-31.2723 -8.08603 -18.4443 -23.7 -8.08603 -17.483 -16.1276 -8.08603 -16.3097 
-8.5552 -8.08603 -17.7523 -0.982817 -8.08603 -18.7667 6.58957 -8.08603 -18.3541 
14.1619 -8.08603 -17.7169 21.7343 -8.08603 -18.1609 29.3067 -8.08603 -18.0951 
36.8791 -8.08603 -16.9059 44.4515 -8.08603 -14.1935 -46.4171 -0.513644 -15.3494 
-38.8447 -0.513644 -17.5582 -31.2723 -0.513644 -18.1584 -23.7 -0.513644 -17.4024 
-16.1276 -0.513644 -16.4642 -8.5552 -0.513644 -18.9679 -0.982817 -0.513644 -15.7682 
6.58957 -0.513644 -17.9168 14.1619 -0.513644 -16.4702 21.7343 -0.513644 -16.6973 
29.3067 -0.513644 -16.8861 36.8791 -0.513644 -16.1929 44.4515 -0.513644 -13.8466 
-46.4171 7.05874 -15.4709 -38.8447 7.05874 -17.9812 -31.2723 7.05874 -18.7011 
-23.7 7.05874 -18.0299 -16.1276 7.05874 -16.8511 -8.5552 7.05874 -17.4821 
-0.982817 7.05874 -17.8579 6.58957 7.05874 -17.8228 14.1619 7.05874 -14.6032 
21.7343 7.05874 -15.0068 29.3067 7.05874 -15.2449 36.8791 7.05874 -14.3424 
44.4515 7.05874 -11.958 -46.4171 14.6311 -14.4466 -38.8447 14.6311 -17.6145 
-31.2723 14.6311 -19.1484 -23.7 14.6311 -18.4804 -16.1276 14.6311 -17.3831 
-8.5552 14.6311 -17.0501 -0.982817 14.6311 -17.117 6.58957 14.6311 -15.8705 
14.1619 14.6311 -15.325 21.7343 14.6311 -14.7811 29.3067 14.6311 -14.1386 
36.8791 14.6311 -12.8856 -46.4171 22.2035 -12.3459 -38.8447 22.2035 -16.6624 
-31.2723 22.2035 -17.9169 -23.7 22.2035 -18.113 -16.1276 22.2035 -17.9744 
-8.5552 22.2035 -17.7064 -0.982817 22.2035 -17.3712 6.58957 22.2035 -16.1866 
14.1619 22.2035 -15.4439 21.7343 22.2035 -14.7433 29.3067 22.2035 -13.0296 
-38.8447 29.7759 -14.0461 -31.2723 29.7759 -16.6757 -23.7 29.7759 -17.0908 
-16.1276 29.7759 -17.7868 -8.5552 29.7759 -17.5947 -0.982817 29.7759 -17.0357 
6.58957 29.7759 -15.9821 14.1619 29.7759 -14.4556 21.7343 29.7759 -13.3433 
-31.2723 37.3483 -13.1347 -23.7 37.3483 -15.0069 -16.1276 37.3483 -15.541 
-8.5552 37.3483 -15.4858 -0.982817 37.3483 -14.9164 6.58957 37.3483 -13.6496 
14.1619 37.3483 -12.2415 -31.2723 -40.8883 -11.659 -23.7 -43.6632 -11.659 
-23.7 -45.9479 -9.10758 -16.1276 -44.7683 -11.659 -16.1276 -45.9479 -10.6826 
-8.5552 -44.3215 -11.659 -8.5552 -45.9479 -10.718 -0.982817 -41.8926 -11.659 
-0.982817 -45.9479 -9.44888 6.58957 -39.6601 -11.659 6.58957 -45.9479 -8.05797 
14.1619 -45.9479 -6.89819 -34.4969 -38.3756 -11.659 -38.8447 -33.8068 -11.659 
-38.8447 -38.3756 -4.47309 13.7756 -38.3756 -11.659 14.1619 -38.2778 -11.659 
14.1619 -38.3756 -11.6244 21.7343 -32.9365 -11.659 21.7343 -38.3756 -8.7715 
29.3067 -38.3756 -5.61982 -40.6879 -30.8032 -11.659 24.9495 -30.8032 -11.659 
29.3067 -28.0945 -11.659 29.3067 -30.8032 -10.1378 36.8791 -30.8032 -5.52952 
-44.4589 -23.2308 -11.659 -46.4171 -18.0659 -11.659 -46.4171 -23.2308 -7.77403 
36.0832 -23.2308 -11.659 36.8791 -22.6854 -11.659 36.8791 -23.2308 -11.3156 
44.4515 -23.2308 -6.87185 -47.2992 -15.6584 -11.659 44.4468 -15.6584 -11.659 
44.4515 -15.6517 -11.659 44.4515 -15.6584 -11.6561 52.0239 -15.6584 -5.32633 
-49.8692 -8.08603 -11.659 48.8467 -8.08603 -11.659 52.0239 -8.08603 -9.09227 
-51.3706 -0.513644 -11.659 -53.9895 -0.513644 -4.28116 48.8182 -0.513644 -11.659 
52.0239 -0.513644 -9.18649 -51.1906 7.05874 -11.659 45.0168 7.05874 -11.659 
44.4515 7.92408 -11.659 52.0239 7.05874 -7.4707 -49.7181 14.6311 -11.659 
39.8633 14.6311 -11.659 36.8791 19.0111 -11.659 44.4515 14.6311 -9.22626 
-47.0074 22.2035 -11.659 -46.4171 23.695 -11.659 33.7063 22.2035 -11.659 
29.3067 28.428 -11.659 36.8791 22.2035 -10.591 44.4515 22.2035 -6.24546 
-42.9065 29.7759 -11.659 -46.4171 29.7759 -5.52846 -38.8447 34.837 -11.659 
28.157 29.7759 -11.659 21.7343 33.9538 -11.659 29.3067 29.7759 -11.3389 
36.8791 29.7759 -7.34339 -35.0037 37.3483 -11.659 -38.8447 37.3483 -8.87323 
-31.2723 39.0765 -11.659 -23.7 42.4163 -11.659 -16.1276 43.1227 -11.659 
-8.5552 43.4448 -11.659 -0.982817 42.7368 -11.659 6.58957 40.6232 -11.659 
16.449 37.3483 -11.659 14.1619 38.4104 -11.659 21.7343 37.3483 -10.0984 
29.3067 37.3483 -7.24202 -23.7 44.9207 -8.36053 -16.1276 44.9207 -9.88026 
-8.5552 44.9207 -10.2624 -0.982817 44.9207 -9.72853 6.58957 44.9207 -8.21101 
14.1619 44.9207 -6.35522 21.7343 44.9207 -4.35534 -23.7 -49.4893 -4.08664 
-16.1276 -51.3782 -4.08664 -8.5552 -52.6499 -4.08664 -0.982817 -51.7382 -4.08664 
6.58957 -50.0243 -4.08664 14.1619 -48.3079 -4.08664 -38.8447 -38.5188 -4.08664 
-31.0387 -45.9479 -4.08664 -31.2723 -45.8117 -4.08664 19.535 -45.9479 -4.08664 
21.7343 -44.5815 -4.08664 21.7343 -45.9479 1.01282 29.3067 -39.6889 -4.08664 
-38.9672 -38.3756 -4.08664 -38.8447 -38.3756 -3.62283 30.9238 -38.3756 -4.08664 
36.8791 -32.1643 -4.08664 -44.0772 -30.8032 -4.08664 -46.4171 -26.1634 -4.08664 
38.3271 -30.8032 -4.08664 44.4515 -25.7564 -4.08664 -47.8824 -23.2308 -4.08664 
-46.4171 -23.2308 1.40415 46.798 -23.2308 -4.08664 52.0239 -16.874 -4.08664 
-50.612 -15.6584 -4.08664 52.8678 -15.6584 -4.08664 -52.868 -8.08603 -4.08664 
-53.9895 -0.833026 -4.08664 55.6726 -8.08603 -4.08664 -54.0389 -0.513644 -4.08664 
-53.9895 1.21676 -4.08664 -53.9895 -0.513644 -3.81651 55.7875 -0.513644 -4.08664 
-53.8243 7.05874 -4.08664 54.9604 7.05874 -4.08664 52.0239 13.617 -4.08664 
-52.5462 14.6311 -4.08664 51.3695 14.6311 -4.08664 52.0239 14.6311 -2.86509 
-50.4798 22.2035 -4.08664 46.5986 22.2035 -4.08664 44.4515 25.3439 -4.08664 
-46.8813 29.7759 -4.08664 -46.4171 30.4906 -4.08664 -46.4171 29.7759 -1.90235 
40.5874 29.7759 -4.08664 36.8791 34.1182 -4.08664 44.4515 29.7759 3.38307 
-41.1479 37.3483 -4.08664 -38.8447 39.5503 -4.08664 -31.2723 44.5618 -4.08664 
33.5656 37.3483 -4.08664 29.3067 40.4041 -4.08664 36.8791 37.3483 0.789811 
-30.3332 44.9207 -4.08664 -23.7 47.0425 -4.08664 -16.1276 48.3866 -4.08664 
-8.5552 49.1691 -4.08664 -0.982817 48.9486 -4.08664 6.58957 48.1253 -4.08664 
14.1619 46.6413 -4.08664 22.1566 44.9207 -4.08664 21.7343 45.1264 -4.08664 
-23.7 -48.9627 3.48574 -16.1276 -51.9855 3.48574 -8.5552 -53.2619 3.48574 
-0.982817 -53.2535 3.48574 6.58957 -52.0453 3.48574 14.1619 -50.1228 3.48574 
21.7343 -46.3867 3.48574 -28.5345 -45.9479 3.48574 -31.2723 -43.6375 3.48574 
-23.7 -45.9479 8.09392 -16.1276 -45.9479 10.4499 14.1619 -45.9479 9.23853 
22.5104 -45.9479 3.48574 21.7343 -45.9479 4.61671 29.3067 -41.7897 3.48574 
-36.5518 -38.3756 3.48574 -38.8447 -35.7182 3.48574 -31.2723 -38.3756 9.37118 
33.7618 -38.3756 3.48574 29.3067 -38.3756 9.19976 36.8791 -35.6738 3.48574 
-42.0761 -30.8032 3.48574 -38.8447 -30.8032 7.70484 41.9589 -30.8032 3.48574 
44.4515 -28.3561 3.48574 -45.7231 -23.2308 3.48574 -46.4171 -21.8271 3.48574 
-38.8447 -23.2308 10.2367 49.0171 -23.2308 3.48574 52.0239 -19.5624 3.48574 
-48.8218 -15.6584 3.48574 -46.4171 -15.6584 6.93787 54.7406 -15.6584 3.48574 
-51.1114 -8.08603 3.48574 -46.4171 -8.08603 9.53775 57.3372 -8.08603 3.48574 
-52.4444 -0.513644 3.48574 58.152 -0.513644 3.48574 -52.348 7.05874 3.48574 
57.1338 7.05874 3.48574 -50.9148 14.6311 3.48574 -46.4171 14.6311 9.51166 
54.1943 14.6311 3.48574 52.0239 18.4065 3.48574 52.0239 14.6311 10.1816 
-48.8929 22.2035 3.48574 -46.4171 27.3251 3.48574 -46.4171 22.2035 7.08024 
49.658 22.2035 3.48574 -45.0127 29.7759 3.48574 -38.8447 29.7759 9.87881 
44.4905 29.7759 3.48574 44.4515 29.8315 3.48574 44.4515 29.7759 3.64359 
-39.5196 37.3483 3.48574 -38.8447 38.0548 3.48574 -38.8447 37.3483 4.35092 
-31.2723 43.872 3.48574 -31.2723 37.3483 10.5221 29.3067 44.3229 3.48574 
38.2051 37.3483 3.48574 36.8791 38.6491 3.48574 36.8791 37.3483 9.91474 
-29.2051 44.9207 3.48574 -23.7 47.1304 3.48574 -23.7 44.9207 8.04291 
-16.1276 48.9501 3.48574 -16.1276 44.9207 10.2689 -8.5552 49.869 3.48574 
-0.982817 50.2845 3.48574 6.58957 50.2542 3.48574 14.1619 49.6973 3.48574 
28.0928 44.9207 3.48574 21.7343 47.8133 3.48574 -8.5552 -47.1266 11.0581 
-0.982817 -47.6784 11.0581 6.58957 -46.4871 11.0581 -23.7 -41.7016 11.0581 
-13.0845 -45.9479 11.0581 -16.1276 -44.7701 11.0581 -8.5552 -45.9479 11.8995 
-0.982817 -45.9479 12.3356 8.24507 -45.9479 11.0581 6.58957 -45.9479 11.5071 
14.1619 -43.5925 11.0581 21.7343 -41.6529 11.0581 -28.0676 -38.3756 11.0581 
-31.2723 -34.7238 11.0581 -23.7 -38.3756 12.7443 -16.1276 -38.3756 13.678 
-8.5552 -38.3756 14.6086 -0.982817 -38.3756 15.099 6.58957 -38.3756 14.8686 
14.1619 -38.3756 13.9436 26.6576 -38.3756 11.0581 21.7343 -38.3756 12.8668 
29.3067 -36.8953 11.0581 36.8791 -31.6355 11.0581 -33.7352 -30.8032 11.0581 
-31.2723 -30.8032 12.2242 -23.7 -30.8032 14.5763 -16.1276 -30.8032 15.1952 
-8.5552 -30.8032 15.4535 -0.982817 -30.8032 15.8099 6.58957 -30.8032 16.0613 
14.1619 -30.8032 15.8536 21.7343 -30.8032 16.0618 29.3067 -30.8032 14.8036 
37.8095 -30.8032 11.0581 36.8791 -30.8032 11.8274 44.4515 -24.3232 11.0581 
-37.5466 -23.2308 11.0581 -38.8447 -21.0497 11.0581 -31.2723 -23.2308 14.2244 
-23.7 -23.2308 15.6974 -16.1276 -23.2308 15.7509 -8.5552 -23.2308 15.2828 
-0.982817 -23.2308 15.6644 6.58957 -23.2308 16.3956 14.1619 -23.2308 16.4993 
[...]
POINT_DATA 530
SCALARS ImageScalars float
LOOKUP_TABLE default
0 0 0 0 0 0 0 0 0 
0 0 0 0 0 0 0 0 0 
0 0 0 0 0 0 0 0 0 
0 0 0 0 0 0 0 0 0 
0 0 0 0 0 0 0 0 0 
0 0 0 0 0 0 0 0 0 
0 0 0 0 0 0 0 0 0 
0 0 0 0 0 0 0 0 0 
0 0 0 0 0 0 0 0 0 
0 0 0 0 0 0 0 0 0 
0 0 0 0 0 0 0 0 0 
0 0 0 0 0 0 0 0 0 
0 0 0 0 0 0 0 0 0 
0 0 0 0 0 0 0 0 0 
0 0 0 0 0 0 0 0 0 
0 0 0 0 0 0 0 0 0 
0 0 0 0 0 0 0 0 0 
0 0 0 0 0 0 0 0 0 
0 0 0 0 0 0 0 0 0 
0 0 0 0 0 0 0 0 0 
0 0 0 0 0 0 0 0 0 
0 0 0 0 0 0 0 0 0 
0 0 0 0 0 0 0 0 0 
0 0 0 0 0 0 0 0 0 
0 0 0 0 0 0 0 0 0 
0 0 0 0 0 0 0 0 0 
0 0 0 0 0 0 0 0 0 
0 0 0 0 0 0 0 0 0 
0 0 0 0 0 0 0 0 0 
0 0 0 0 0 0 0 0 0 
0 0 0 0 0 0 0 0 0 
0 0 0 0 0 0 0 0 0 
0 0 0 0 0 0 0 0 0 
0 0 0 0 0 0 0 0 0 
0 0 0 0 0 0 0 0 0 
0 0 0 0 0 0 0 0 0 
0 0 0 0 0 0 0 0 0 
0 0 0 0 0 0 0 0 0 
0 0 0 0 0 0 0 0 0 
0 0 0 0 0 0 0 0 0 
0 0 0 0 0 0 0 0 0 
0 0 0 0 0 0 0 0 0 
0 0 0 0 0 0 0 0 0 
0 0 0 0 0 0 0 0 0 
0 0 0 0 0 0 0 0 0 
0 0 0 0 0 0 0 0 0 
0 0 0 0 0 0 0 0 0 
0 0 0 0 0 0 0 0 0 
0 0 0 0 0 0 0 0 0 
0 0 0 0 0 0 0 0 0 
0 0 0 0 0 0 0 0 0 
0 0 0 0 0 0 0 0 0 
0 0 0 0 0 0 0 0 0 
0 0 0 0 0 0 0 0 0 
0 0 0 0 0 0 0 0 0 
0 0 0 0 0 0 0 0 0 
0 0 0 0 0 0 0 0 0 
0 0 0 0 0 0 0 0 0 
0 0 0 0 0 0 0 0 
NORMALS Normals float
0.375463 0.494599 0.783836 0.146523 0.432106 0.88984 -0.0717236 0.395145 0.915814 
-0.144504 0.338161 0.929928 -0.144592 0.340801 0.92895 -0.108848 0.364099 0.924978 
0.563835 0.384337 0.73101 0.279388 0.269822 0.921487 0.0657303 0.15843 0.98518 
-0.0605712 0.176935 0.982357 -0.158047 0.191611 0.968662 -0.147299 0.204293 0.967764 
-0.0923141 0.232024 0.96832 -0.115595 0.246437 0.962241 -0.228321 0.353989 0.906951 
0.405202 0.220991 0.887116 0.177109 0.0741278 0.981396 0.0634596 0.00969738 0.997937 
-0.037666 -0.0095562 0.999245 -0.138127 0.0811772 0.987082 -0.110431 0.177862 0.97784 
-0.0736458 0.191322 0.978761 -0.064377 0.189957 0.97968 -0.0833903 0.286544 0.954431 
-0.212247 0.395691 0.893521 0.655226 0.257354 0.710245 0.322331 0.0936944 0.941979 
0.0561856 0.0481332 0.997259 -0.0161609 -0.0605163 0.998036 0.00954565 -0.156007 0.98771 
0.0337838 -0.00480032 0.999418 -0.0329853 0.144459 0.988961 -0.090929 0.15274 0.984074 
-0.0210171 0.144498 0.989282 0.0128193 0.200814 0.979546 -0.115016 0.248772 0.961709 
-0.291017 0.325641 0.899592 0.541889 0.180079 0.820931 0.241472 0.035884 0.969744 
0.0297439 0.00580311 0.999541 -0.142916 -0.0376082 0.98902 0.0209185 -0.0888027 0.99583 
0.163677 0.0471993 0.985384 0.0407137 -0.151908 0.987556 -0.0676227 0.0222397 0.997463 
-0.0126261 -0.0291087 0.999497 0.0249425 -0.0360953 0.999037 -0.0831345 -0.0230706 0.996271 
-0.240032 0.041981 0.969857 -0.436313 0.108691 0.893206 0.464663 0.0686496 0.882822 
0.181892 0.0554677 0.981753 -0.0114087 0.017601 0.99978 -0.112694 0.0366367 0.992954 
0.0815264 0.0367023 0.995995 -0.0167876 -0.0133446 0.99977 -0.0609313 -0.0546279 0.996646 
0.0308098 -0.0365784 0.998856 -0.0734687 -0.2098 0.97498 0.0276828 -0.212474 0.976775 
-0.0341674 -0.184598 0.98222 -0.188032 -0.158068 0.96936 -0.388866 -0.12639 0.912584 
0.501573 -0.0541777 0.863417 0.200815 0.00221092 0.979627 0.00195772 0.0643572 0.997925 
-0.121221 0.0705918 0.990112 -0.039299 0.0608884 0.997371 0.070306 -0.118225 0.990495 
0.0211527 0.0702688 0.997304 -0.218762 -0.13785 0.965992 -0.171901 -0.0740774 0.982325 
0.0419428 -0.125428 0.991216 -0.040403 -0.184635 0.981976 -0.195176 -0.229089 0.953638 
-0.37723 -0.269606 0.886008 0.583687 -0.162229 0.795607 0.269282 -0.0758606 0.960069 
0.0617732 -0.0510377 0.996784 -0.114676 0.00536069 0.993388 -0.093696 0.0742683 0.992827 
-0.0179551 0.0173984 0.999687 -0.0776818 -0.0314565 0.996482 -0.118259 -0.0957399 0.988357 
-0.0716118 0.054793 0.995926 -0.0801043 -0.0169521 0.996642 -0.125528 -0.137178 0.98256 
-0.28191 -0.216104 0.934787 0.704189 -0.307852 0.639801 0.284499 -0.232217 0.930127 
0.0865868 -0.15428 0.984226 0.0034685 -0.0889499 0.99603 -0.0268374 0.0271201 0.999272 
-0.0396517 0.0336819 0.998646 -0.101831 -0.00617221 0.994783 -0.125385 0.0078421 0.992077 
-0.0948977 -0.0551578 0.993958 -0.150906 -0.0870762 0.984706 -0.24722 -0.179908 0.952111 
0.414262 -0.367592 0.832624 0.189389 -0.254942 0.948228 0.0688586 -0.198109 0.977758 
0.032297 -0.145202 0.988875 -0.049328 -0.135114 0.989601 -0.102106 -0.14996 0.983406 
-0.169441 -0.150906 0.973918 -0.163025 -0.201616 0.965802 -0.194239 -0.267241 0.94385 
0.291471 -0.563033 0.77333 0.119284 -0.427599 0.896064 0.0299687 -0.41745 0.908206 
-0.0384299 -0.402126 0.914778 -0.109478 -0.398219 0.910734 -0.167346 -0.402999 0.89977 
-0.201061 -0.401169 0.893665 0.396406 0.594759 0.699374 0.146806 0.666195 0.731185 
0.206331 0.800522 0.562664 0.0402685 0.622207 0.781817 0.0725046 0.68319 0.726632 
-0.0931549 0.512403 0.853678 -0.0727864 0.585935 0.807082 -0.142661 0.438206 0.887482 
-0.149653 0.599366 0.786361 -0.106789 0.399249 0.910602 -0.141763 0.650638 0.746039 
-0.25438 0.726376 0.638489 0.506871 0.552188 0.661944 0.610603 0.485812 0.625421 
0.763516 0.644222 0.0449548 -0.180627 0.370639 0.911044 -0.18376 0.369158 0.911018 
-0.185008 0.371521 0.909804 -0.248982 0.392713 0.885316 -0.334581 0.529871 0.77929 
-0.505745 0.660431 0.555025 0.64427 0.42128 0.63831 -0.263711 0.389038 0.88267 
-0.27789 0.416161 0.865787 -0.338528 0.448403 0.827245 -0.558805 0.625165 0.54489 
0.727384 0.299265 0.617538 0.709277 0.287722 0.643539 0.879698 0.376235 0.290825 
-0.342352 0.458754 0.819964 -0.352131 0.458386 0.816019 -0.360546 0.472093 0.804447 
-0.591978 0.580867 0.558708 0.694977 0.275097 0.664326 -0.498875 0.375215 0.781241 
-0.498969 0.375005 0.781282 -0.499046 0.375259 0.781111 -0.743229 0.471843 0.474315 
0.739757 0.208586 0.639727 -0.571002 0.149208 0.807275 -0.722656 0.162454 0.671846 
0.782312 0.0682977 0.619131 0.99691 0.0630425 0.0468528 -0.545398 -0.114796 0.830279 
-0.706163 -0.0838035 0.703073 0.79222 -0.085669 0.604192 -0.392549 -0.272152 0.878543 
-0.389243 -0.274084 0.879413 -0.685275 -0.267571 0.677351 0.758174 -0.220768 0.613542 
-0.365004 -0.253082 0.895947 -0.341139 -0.262615 0.902584 -0.496725 -0.321468 0.806178 
0.734384 -0.319266 0.598957 0.722146 -0.347085 0.598362 -0.324657 -0.247829 0.912786 
-0.293888 -0.268146 0.917457 -0.389665 -0.303006 0.869683 -0.626296 -0.415661 0.659529 
0.604262 -0.434848 0.667663 0.847957 -0.510978 0.140961 0.487878 -0.548525 0.679041 
-0.28584 -0.285444 0.914777 -0.224528 -0.380571 0.89708 -0.307447 -0.292277 0.905567 
-0.539131 -0.451854 0.71075 0.411392 -0.607625 0.679373 0.580643 -0.687107 0.436735 
0.326105 -0.62405 0.710083 0.161446 -0.6739 0.720967 0.0428984 -0.658025 0.751773 
-0.0146253 -0.641779 0.76675 -0.105521 -0.604739 0.789403 -0.159629 -0.530512 0.832511 
-0.215934 -0.421749 0.880625 -0.201844 -0.441042 0.874494 -0.260835 -0.486883 0.833612 
-0.410373 -0.586722 0.698106 0.203211 -0.851355 0.483631 0.0656256 -0.773633 0.630226 
-0.00820272 -0.731469 0.681825 -0.0936655 -0.727999 0.67915 -0.149303 -0.742517 0.652975 
-0.183357 -0.762232 0.620791 -0.31175 -0.778772 0.544358 0.326737 0.912983 0.244346 
0.190084 0.920413 0.341625 0.0269653 0.928891 0.369371 -0.143633 0.876418 0.459631 
-0.197682 0.836778 0.510612 -0.295034 0.831086 0.471436 0.764025 0.644812 0.0219913 
0.55174 0.829418 0.0874562 0.559413 0.824829 0.0819372 -0.424857 0.781965 0.4561 
-0.468417 0.745997 0.473365 -0.490303 0.868358 0.0745496 -0.534337 0.70449 0.467095 
0.766292 0.642146 0.0211098 0.765948 0.642891 -0.00381815 -0.555592 0.684819 0.47153 
-0.593018 0.6458 0.480907 0.870209 0.491664 0.0316564 0.899711 0.435014 0.0358263 
-0.588621 0.651986 0.477954 -0.630106 0.639928 0.439839 0.914565 0.401556 0.0482023 
0.857891 0.415349 -0.302503 -0.673246 0.605634 0.424202 -0.758396 0.501438 0.416407 
0.950326 0.306879 0.0520277 -0.775086 0.473853 0.417978 0.974822 0.219232 0.0407308 
0.996969 0.0693964 0.0351738 -0.890262 0.181847 0.41757 0.99739 0.0628513 0.0355282 
0.998988 0.0264067 0.0364185 0.997755 0.063404 0.0215646 -0.86983 -0.0435049 0.491429 
0.994546 -0.0958808 0.0410451 -0.830673 -0.254363 0.49526 -0.742658 -0.422361 0.519683 
0.97658 -0.210904 0.0425532 -0.722898 -0.441667 0.531365 -0.774611 -0.455559 0.438684 
0.932709 -0.351786 0.0793831 -0.698476 -0.45981 0.548366 -0.677598 -0.489503 0.548861 
0.861052 -0.506177 0.0487296 0.851311 -0.522023 0.0525449 0.858194 -0.507883 -0.0745473 
-0.638061 -0.527269 0.561128 -0.595147 -0.569365 0.567119 -0.813291 -0.578756 0.0599892 
0.699915 -0.707668 0.0965669 0.635203 -0.764046 0.112918 0.447213 -0.874644 0.187078 
-0.530157 -0.62975 0.567758 -0.451718 -0.686901 0.569313 -0.678754 -0.68986 0.251766 
0.42225 -0.886004 0.191578 0.233108 -0.943072 0.237224 0.131664 -0.947648 0.290907 
0.040339 -0.943358 0.329316 -0.063981 -0.920258 0.386046 -0.137522 -0.871937 0.469908 
-0.186091 -0.826272 0.531643 -0.320927 -0.782828 0.533092 -0.311353 -0.787456 0.531952 
0.431603 0.846296 -0.312253 0.267952 0.930398 -0.250121 0.0788641 0.972507 -0.219112 
-0.0778223 0.987511 -0.136991 -0.19645 0.971709 -0.131105 -0.35485 0.921641 -0.157033 
-0.472186 0.876526 -0.0935029 0.551277 0.750548 -0.364377 0.6079 0.685645 -0.400436 
0.394215 0.687641 -0.609709 0.182375 0.561332 -0.807245 -0.244333 0.716805 -0.653063 
-0.48145 0.871802 -0.0903714 -0.460985 0.870566 -0.172069 -0.567068 0.818026 -0.0962681 
0.691157 0.594926 -0.410323 0.731016 0.539031 -0.418403 0.516385 0.487379 -0.704137 
-0.630798 0.773733 -0.0585755 -0.4629 0.731971 -0.499942 -0.671185 0.741161 -0.0138 
0.791128 0.4411 -0.42373 0.662793 0.388863 -0.639915 -0.698006 0.716074 -0.00498277 
-0.7187 0.69495 -0.022706 0.800731 0.398201 -0.44751 0.813469 0.386371 -0.434725 
0.567269 0.264981 -0.779738 -0.771732 0.634903 -0.0364452 -0.82327 0.567049 -0.0260999 
0.857987 0.303607 -0.414343 0.759056 0.290922 -0.582408 -0.883152 0.467728 -0.0356791 
0.882987 0.219846 -0.414731 0.675415 0.189783 -0.712599 -0.972777 0.222645 -0.0643044 
0.911956 0.0747802 -0.403415 -0.999407 -0.0119174 -0.0322913 0.921839 -0.0897309 -0.377042 
-0.965056 -0.259042 -0.0395433 0.893582 -0.208269 -0.397663 0.694076 -0.184984 -0.695729 
-0.898389 -0.43912 0.00846215 -0.869748 -0.493214 0.0167154 -0.767586 -0.368894 -0.524146 
0.855868 -0.338231 -0.391267 0.813208 -0.430146 -0.392004 0.749556 -0.320741 -0.579043 
-0.840911 -0.541164 0.00316973 0.784129 -0.472881 -0.401902 0.570179 -0.372186 -0.732376 
-0.814054 -0.57827 0.054045 -0.813609 -0.578886 0.0541377 -0.814727 -0.578189 0.0437842 
0.680645 -0.631467 -0.371447 0.669291 -0.646825 -0.365605 0.664685 -0.620342 -0.416377 
0.483564 -0.819107 -0.308594 0.441019 -0.515153 -0.734928 -0.481477 -0.867522 0.124844 
-0.711574 -0.696488 0.0925604 -0.687216 -0.719902 0.0973416 -0.689542 -0.629668 -0.357841 
0.429175 -0.861181 -0.272352 0.301097 -0.929304 -0.213858 0.301085 -0.810777 -0.501984 
0.176894 -0.965222 -0.192497 0.159095 -0.738782 -0.654897 0.0890875 -0.98216 -0.165603 
0.0254194 -0.995246 -0.0940198 -0.0377071 -0.999289 0.000671081 -0.161173 -0.982472 0.0936592 
-0.454527 -0.883036 0.116841 -0.324089 -0.943307 0.0716852 0.10605 0.544282 -0.832172 
-0.0308077 0.588523 -0.807894 -0.161013 0.591936 -0.789738 0.292686 0.472032 -0.831577 
0.143606 0.520134 -0.841925 0.164892 0.495751 -0.852668 0.103679 0.489536 -0.865798 
-0.0191859 0.503767 -0.863627 -0.165567 0.586893 -0.792555 -0.156083 0.56682 -0.808921 
-0.167676 0.556719 -0.813602 -0.281346 0.584057 -0.761395 0.389298 0.416367 -0.821636 
0.429294 0.361086 -0.827843 0.240924 0.353204 -0.903993 0.109135 0.272702 -0.955889 
0.0907934 0.206017 -0.974327 0.0174484 0.196752 -0.980298 -0.0721856 0.250583 -0.9654 
-0.12755 0.349497 -0.928215 -0.352136 0.612257 -0.707914 -0.209043 0.449216 -0.868623 
-0.381643 0.636326 -0.670401 -0.52854 0.632433 -0.566281 0.44212 0.290587 -0.84858 
0.364182 0.262539 -0.893557 0.187442 0.173941 -0.966752 0.0542791 0.128923 -0.990168 
0.0405005 0.0412671 -0.998327 0.0399645 0.0339354 -0.998625 0.00306182 0.0948414 -0.995488 
-0.00130999 0.156711 -0.987644 -0.0709401 0.260773 -0.96279 -0.206732 0.332891 -0.920025 
-0.543007 0.624445 -0.561437 -0.509565 0.605721 -0.611102 -0.623159 0.551342 -0.554703 
0.512236 0.248364 -0.82215 0.520343 0.24618 -0.817703 0.306218 0.197275 -0.931296 
0.0928736 0.107342 -0.989875 -0.0271765 0.0525804 -0.998247 -0.00571836 -0.0394065 -0.999207 
0.0730334 -0.0379791 -0.996606 0.0551214 0.0313968 -0.997986 0.0383557 0.0254984 -0.998939 
-0.00784338 0.0582692 -0.99827 -0.0881195 0.203731 -0.975053 -0.217116 0.275961 -0.936326 
-0.631675 0.544266 -0.552052 -0.598178 0.520202 -0.609567 -0.716051 0.394272 -0.576038 
0.529069 0.238703 -0.814314 0.436507 0.217836 -0.872931 0.218936 0.123184 -0.967932 
0.042868 0.0739651 -0.996339 -0.0940661 0.0390165 -0.994801 -0.0520631 0.0638178 -0.996603 
0.117564 0.101394 -0.987876 0.0673878 0.0742163 -0.994963 0.0319934 -0.0535883 -0.99805 
0.108614 -0.0136212 -0.993991 0.000556384 0.103319 -0.994648 -0.158198 0.155396 -0.975103 
-0.357512 0.252987 -0.89899 -0.718361 0.38933 -0.576524 -0.713512 0.389197 -0.582603 
0.578891 0.179864 -0.79532 0.641593 0.0854797 -0.762267 0.366767 0.168246 -0.914973 
0.148554 0.126549 -0.980774 0.00689123 0.0376203 -0.999268 -0.0299363 0.0366792 -0.998879 
0.0567573 0.24289 -0.968392 0.0747614 -0.0149522 -0.997089 -0.103223 0.0915833 -0.990433 
-0.0449706 -0.00555327 -0.998973 0.147237 -0.0127561 -0.989019 0.0837453 -0.0038834 -0.99648 
-0.062536 0.0735528 -0.995329 -0.257408 0.119435 -0.958893 -0.762192 0.169035 -0.624893 
-0.652581 0.155329 -0.741627 0.643004 0.0815544 -0.761508 0.640903 0.0815852 -0.763274 
0.341111 0.07871 -0.936722 0.0784565 0.052554 -0.995531 -0.0472205 0.0112031 -0.998822 
0.0975152 -0.0343652 -0.994641 -0.0814943 0.0823316 -0.993267 -0.0742073 0.0574016 -0.995589 
0.0700353 0.0114092 -0.997479 -0.0544787 0.0194615 -0.998325 0.112417 -0.017376 -0.993509 
0.0859429 -0.0278823 -0.99591 -0.0427144 -0.033879 -0.998513 -0.233342 -0.0376373 -0.971666 
-0.752209 -0.0173521 -0.658696 -0.611114 -0.024048 -0.791177 0.655817 -0.0724714 -0.751433 
0.651531 -0.0854504 -0.753794 0.648447 -0.0723902 -0.75781 0.314758 -0.0631168 -0.947071 
0.0778057 -0.0852493 -0.993317 -0.0805742 -0.0299339 -0.996299 0.0148495 -0.0484399 -0.998716 
0.158282 -0.186722 -0.969578 0.00259937 0.0589658 -0.998257 -0.139775 -0.0820049 -0.986782 
-0.0718988 0.0709614 -0.994884 0.10203 0.0479503 -0.993625 0.0676249 -0.00765199 -0.997681 
-0.0739143 -0.0225476 -0.99701 -0.255111 -0.154024 -0.954565 -0.733954 -0.197285 -0.649915 
-0.729554 -0.32266 -0.603026 -0.643973 -0.186203 -0.742043 0.587915 -0.178372 -0.789011 
0.351568 -0.18802 -0.917087 0.121524 -0.0977128 -0.987767 -0.0109151 -0.0486703 -0.998755 
-0.031721 0.050488 -0.998221 0.0172056 -0.0416953 -0.998982 0.0494359 -0.0601446 -0.996965 
0.0791 0.0160408 -0.996738 0.0575616 0.163689 -0.984831 0.0294962 0.127199 -0.991439 
0.0178325 0.00374 -0.999834 -0.185614 -0.0652706 -0.980453 -0.71741 -0.345568 -0.604901 
-0.406072 -0.197632 -0.892215 0.514392 -0.267553 -0.81475 0.505943 -0.314487 -0.803194 
0.423401 -0.242205 -0.872965 0.22173 -0.137058 -0.965428 0.0664261 -0.0154704 -0.997671 
0.0235196 0.0515544 -0.998393 0.0288489 0.102304 -0.994335 0.0815025 0.0905114 -0.992555 
0.0918858 0.0978116 -0.990954 0.0391144 0.103843 -0.993824 -0.054031 0.102017 -0.993314 
-0.131152 0.0335543 -0.990794 -0.280112 -0.247619 -0.927482 -0.656728 -0.425698 -0.622486 
-0.672079 -0.43942 -0.596003 -0.599022 -0.367013 -0.71167 0.503057 -0.337339 -0.795698 
0.42175 -0.476474 -0.771427 0.334001 -0.260786 -0.905778 0.178043 -0.162062 -0.970586 
0.0852157 -0.0834843 -0.992859 0.0542178 -0.00641427 -0.998509 0.0476478 -0.0320615 -0.998349 
0.0936297 -0.0360304 -0.994955 -0.295399 -0.128108 -0.946746 -0.67822 -0.435607 -0.591831 
-0.667629 -0.587937 -0.45673 -0.510345 -0.282471 -0.812255 0.408919 -0.487808 -0.771252 
0.275561 -0.601669 -0.749707 0.242883 -0.382222 -0.89158 0.153298 -0.672775 -0.723791 
0.171746 -0.321988 -0.931035 0.0819758 -0.310122 -0.947156 0.0634339 -0.260231 -0.963461 
0.0847764 -0.244183 -0.966016 0.0450114 -0.260276 -0.964484 -0.151086 -0.325138 -0.933519 
-0.662901 -0.599093 -0.449054 -0.474056 -0.756624 -0.450322 -0.38675 -0.463233 -0.797396 
0.147306 -0.69469 -0.704064 0.137695 -0.702464 -0.698272 0.128595 -0.663716 -0.736848 
0.113288 -0.738728 -0.664414 0.1102 -0.642501 -0.758319 0.0750555 -0.80091 -0.594062 
0.080434 -0.644042 -0.760749 -0.1122 -0.84267 -0.526611 -0.061353 -0.663448 -0.745702 
-0.373476 -0.814791 -0.443431 -0.282294 -0.830004 -0.481044 -0.2492 -0.773942 -0.582162 
0.0490506 0.0344973 -0.9982 -0.0478221 0.0710515 -0.996326 0.0726217 -0.038763 -0.996606 
0.058737 -0.0897541 -0.99423 0.0601241 -0.0404065 -0.997373 -0.226235 -0.0988081 -0.969048 
-0.0910196 -0.175147 -0.980326 -0.034719 -0.0215294 -0.999165 
