# vtk DataFile Version 4.2
vtk output
ASCII
DATASET POLYDATA
POINTS 516 float
-34.7979 4.14378 -22.6947 -10.7071 -36.0076 -15.2126 -2.67683 -36.0076 -16.1261 
5.35344 -36.0076 -16.5454 13.3837 -36.0076 -16.4907 -34.7979 -27.9773 -17.5998 
-26.7676 -27.9773 -18.8147 -18.7374 -27.9773 -18.3476 -10.7071 -27.9773 -17.9874 
-2.67683 -27.9773 -18.9124 5.35344 -27.9773 -19.6962 13.3837 -27.9773 -19.5277 
21.414 -27.9773 -18.6143 29.4442 -27.9773 -17.1105 37.4745 -27.9773 -14.7174 
-42.8282 -19.947 -19.4114 -34.7979 -19.947 -20.8167 -26.7676 -19.947 -20.3784 
-18.7374 -19.947 -19.5065 -10.7071 -19.947 -19.143 -2.67683 -19.947 -19.5695 
5.35344 -19.947 -20.0286 13.3837 -19.947 -20.2865 21.414 -19.947 -20.3198 
29.4442 -19.947 -19.3818 37.4745 -19.947 -18.3367 45.5048 -19.947 -15.7277 
-50.8584 -11.9168 -17.9711 -42.8282 -11.9168 -20.9667 -34.7979 -11.9168 -21.7725 
-26.7676 -11.9168 -21.1717 -18.7374 -11.9168 -19.7479 -10.7071 -11.9168 -19.2816 
-2.67683 -11.9168 -20.1839 5.35344 -11.9168 -19.718 13.3837 -11.9168 -19.6632 
21.414 -11.9168 -20.012 29.4442 -11.9168 -20.3049 37.4745 -11.9168 -20.1567 
45.5048 -11.9168 -18.4744 -50.8584 -3.88649 -18.976 -42.8282 -3.88649 -22.0726 
-34.7979 0.743952 -22.6359 -34.7979 -3.88649 -22.5562 -26.7676 -3.88649 -21.7397 
-18.7374 -3.88649 -20.0573 -10.7071 -3.88649 -20.9079 -2.67683 -3.88649 -19.9714 
5.35344 -3.88649 -19.7326 13.3837 -3.88649 -19.3554 21.414 -3.88649 -19.0961 
29.4442 -3.88649 -20.4884 37.4745 -3.88649 -21.2471 45.5048 -3.88649 -19.6805 
53.535 -3.88649 -17.1582 -50.8584 4.14378 -18.7618 -35.4698 4.14378 -22.6359 
-42.8282 4.14378 -21.939 -34.021 4.14378 -22.6359 -34.7979 4.85835 -22.6359 
-26.7676 4.14378 -22.093 -18.7374 4.14378 -21.0098 -10.7071 4.14378 -22.3258 
-2.67683 4.14378 -20.8974 5.35344 4.14378 -21.1279 13.3837 4.14378 -19.567 
21.414 4.14378 -18.9168 29.4442 4.14378 -20.3881 37.4745 4.14378 -21.6696 
45.5048 4.14378 -20.0412 53.535 4.14378 -17.6415 -50.8584 12.174 -15.8971 
-42.8282 12.174 -20.6601 -34.7979 12.174 -22.0292 -26.7676 12.174 -22.0784 
-18.7374 12.174 -21.6198 -10.7071 12.174 -21.8025 -2.67683 12.174 -21.4808 
5.35344 12.174 -21.1127 13.3837 12.174 -20.7712 21.414 12.174 -20.7475 
29.4442 12.174 -21.0421 37.4745 12.174 -21.549 45.5048 12.174 -20.3276 
53.535 12.174 -16.4017 -42.8282 20.2043 -18.1324 -34.7979 20.2043 -21.2927 
-26.7676 20.2043 -22.1103 -18.7374 20.2043 -22.1959 -10.7071 20.2043 -22.1398 
-2.67683 20.2043 -21.8449 5.35344 20.2043 -21.8457 13.3837 20.2043 -21.7874 
21.414 20.2043 -21.6757 29.4442 20.2043 -21.198 37.4745 20.2043 -20.3296 
45.5048 20.2043 -18.272 -34.7979 28.2346 -17.1996 -26.7676 28.2346 -21.0543 
-18.7374 28.2346 -21.623 -10.7071 28.2346 -21.938 -2.67683 28.2346 -22.1675 
5.35344 28.2346 -21.95 13.3837 28.2346 -21.7718 21.414 28.2346 -21.4163 
29.4442 28.2346 -20.5629 37.4745 28.2346 -18.6107 -26.7676 36.2648 -15.2136 
-18.7374 36.2648 -18.7249 -10.7071 36.2648 -20.5895 -2.67683 36.2648 -20.2273 
5.35344 36.2648 -20.0428 13.3837 36.2648 -19.973 21.414 36.2648 -18.3541 
29.4442 36.2648 -16.0505 -10.7071 -36.8132 -14.6056 -2.67683 -38.017 -14.6056 
5.35344 -38.5363 -14.6056 13.3837 -38.3269 -14.6056 -34.7979 -31.5495 -14.6056 
-34.7979 -36.0076 -7.44072 -26.7676 -34.1775 -14.6056 -26.7676 -36.0076 -12.4571 
-16.9641 -36.0076 -14.6056 -18.7374 -35.692 -14.6056 -18.7374 -36.0076 -14.3751 
21.3086 -36.0076 -14.6056 21.414 -35.9629 -14.6056 21.414 -36.0076 -14.5682 
29.4442 -32.0618 -14.6056 29.4442 -36.0076 -10.1653 37.4745 -28.1171 -14.6056 
-41.634 -27.9773 -14.6056 -42.8282 -27.2107 -14.6056 -42.8282 -27.9773 -13.5193 
37.6817 -27.9773 -14.6056 45.5048 -21.6866 -14.6056 45.5048 -27.9773 -7.68916 
-49.6583 -19.947 -14.6056 -50.8584 -18.4434 -14.6056 -50.8584 -19.947 -12.8759 
47.3865 -19.947 -14.6056 53.535 -19.947 -8.23846 -54.3654 -11.9168 -14.6056 
53.47 -11.9168 -14.6056 53.535 -11.8261 -14.6056 53.535 -11.9168 -14.5609 
-55.4265 -3.88649 -14.6056 -58.8887 -3.88649 -7.53308 56.8885 -3.88649 -14.6056 
61.5653 -3.88649 -7.84593 -55.0054 4.14378 -14.6056 57.4524 4.14378 -14.6056 
61.5653 4.14378 -8.13318 -52.0976 12.174 -14.6056 -50.8584 14.1549 -14.6056 
55.9451 12.174 -14.6056 53.535 17.1075 -14.6056 -46.4499 20.2043 -14.6056 
-42.8282 24.1196 -14.6056 51.4798 20.2043 -14.6056 45.5048 27.3993 -14.6056 
53.535 20.2043 -12.1481 -38.5177 28.2346 -14.6056 -34.7979 31.3088 -14.6056 
44.652 28.2346 -14.6056 37.4745 32.8198 -14.6056 45.5048 28.2346 -13.5192 
-27.7064 36.2648 -14.6056 -26.7676 36.8072 -14.6056 -18.7374 40.4304 -14.6056 
-10.7071 42.5397 -14.6056 -2.67683 43.2698 -14.6056 5.35344 43.0581 -14.6056 
13.3837 42.2137 -14.6056 21.414 40.181 -14.6056 31.9236 36.2648 -14.6056 
29.4442 37.3995 -14.6056 -10.7071 44.2951 -6.98989 -2.67683 44.2951 -11.0458 
5.35344 44.2951 -10.6066 -34.7979 -36.3733 -6.57534 -26.7676 -39.8104 -6.57534 
-18.7374 -41.7914 -6.57534 -10.7071 -42.7148 -6.57534 -2.67683 -43.2988 -6.57534 
5.35344 -43.6431 -6.57534 13.3837 -43.2203 -6.57534 21.414 -41.3859 -6.57534 
29.4442 -38.1655 -6.57534 -35.3886 -36.0076 -6.57534 -42.8282 -30.9512 -6.57534 
-34.7979 -36.0076 -3.30509 33.7262 -36.0076 -6.57534 37.4745 -34.0076 -6.57534 
45.5048 -28.7564 -6.57534 -46.3045 -27.9773 -6.57534 -50.8584 -23.3199 -6.57534 
46.55 -27.9773 -6.57534 53.535 -21.3913 -6.57534 -53.5793 -19.947 -6.57534 
54.8265 -19.947 -6.57534 -58.1497 -11.9168 -6.57534 -58.8887 -6.77829 -6.57534 
59.5592 -11.9168 -6.57534 61.5653 -6.1239 -6.57534 -59.2187 -3.88649 -6.57534 
-58.8887 -0.501345 -6.57534 -58.8887 -3.88649 0.909362 62.2185 -3.88649 -6.57534 
61.5653 -3.88649 0.0606161 -58.3846 4.14378 -6.57534 62.3178 4.14378 -6.57534 
61.5653 8.22863 -6.57534 61.5653 4.14378 -1.26611 -55.9277 12.174 -6.57534 
-50.8584 19.1856 -6.57534 60.7293 12.174 -6.57534 -50.0483 20.2043 -6.57534 
-42.8282 27.1987 -6.57534 56.9897 20.2043 -6.57534 53.535 24.0472 -6.57534 
-41.6382 28.2346 -6.57534 -34.7979 33.6497 -6.57534 37.4745 35.6274 -6.57534 
49.2477 28.2346 -6.57534 45.5048 31.0733 -6.57534 45.5048 28.2346 1.10355 
-30.8982 36.2648 -6.57534 -26.7676 38.7544 -6.57534 -18.7374 42.3432 -6.57534 
13.3837 44.2776 -6.57534 21.414 42.2337 -6.57534 36.1591 36.2648 -6.57534 
29.4442 39.3931 -6.57534 -11.0115 44.2951 -6.57534 -10.7071 44.368 -6.57534 
-10.7071 44.2951 -6.19901 -2.67683 45.2493 -6.57534 -2.67683 44.2951 -1.80824 
13.2394 44.2951 -6.57534 5.35344 45.2179 -6.57534 5.35344 44.2951 -2.57274 
-26.7676 -40.0637 1.45493 -18.7374 -42.5936 1.45493 -10.7071 -43.4795 1.45493 
-2.67683 -43.6778 1.45493 5.35344 -43.7562 1.45493 13.3837 -43.3551 1.45493 
21.414 -41.9007 1.45493 29.4442 -39.0985 1.45493 -42.8282 -29.236 1.45493 
-33.8481 -36.0076 1.45493 -34.7979 -35.4021 1.45493 35.5768 -36.0076 1.45493 
37.4745 -35.024 1.45493 45.5048 -30.0855 1.45493 -44.2159 -27.9773 1.45493 
-50.8584 -21.3983 1.45493 -42.8282 -27.9773 4.38866 48.2839 -27.9773 1.45493 
45.5048 -27.9773 7.92173 53.535 -22.8667 1.45493 -52.0769 -19.947 1.45493 
-50.8584 -19.947 4.74634 56.0168 -19.947 1.45493 53.535 -19.947 7.46529 
-57.258 -11.9168 1.45493 59.805 -11.9168 1.45493 -58.8634 -3.88649 1.45493 
61.4251 -3.88649 1.45493 -58.407 4.14378 1.45493 61.1633 4.14378 1.45493 
-55.4961 12.174 1.45493 -50.8584 18.2983 1.45493 58.4518 12.174 1.45493 
53.535 12.174 8.54478 -49.103 20.2043 1.45493 -42.8282 25.5335 1.45493 
45.5048 28.0963 1.45493 53.7777 20.2043 1.45493 53.535 20.4968 1.45493 
53.535 20.2043 1.79656 -39.3608 28.2346 1.45493 -34.7979 31.4868 1.45493 
45.3072 28.2346 1.45493 37.4745 32.958 1.45493 37.4745 28.2346 8.30845 
-27.5766 36.2648 1.45493 -26.7676 36.8277 1.45493 -26.7676 36.2648 3.61852 
-18.7374 40.6166 1.45493 -10.7071 42.7724 1.45493 -2.67683 43.6068 1.45493 
5.35344 43.2818 1.45493 13.3837 41.8683 1.45493 21.414 39.4084 1.45493 
21.414 36.2648 6.44071 30.1679 36.2648 1.45493 29.4442 36.6027 1.45493 
29.4442 36.2648 1.99016 -26.7676 -37.8435 9.4852 -18.7374 -40.6506 9.4852 
-10.7071 -41.4853 9.4852 -2.67683 -41.4143 9.4852 5.35344 -41.2391 9.4852 
13.3837 -40.5597 9.4852 21.414 -38.7668 9.4852 29.4442 -36.2778 9.4852 
-29.6903 -36.0076 9.4852 -34.7979 -32.2883 9.4852 -26.7676 -36.0076 12.5096 
-18.7374 -36.0076 16.8815 -10.7071 -36.0076 17.0926 -2.67683 -36.0076 16.6605 
5.35344 -36.0076 16.0873 13.3837 -36.0076 14.8522 21.414 -36.0076 12.7334 
30.0505 -36.0076 9.4852 29.4442 -36.0076 9.83358 37.4745 -32.3895 9.4852 
-40.0666 -27.9773 9.4852 -42.8282 -25.461 9.4852 -34.7979 -27.9773 15.3715 
29.4442 -27.9773 17.3059 44.6719 -27.9773 9.4852 37.4745 -27.9773 14.3044 
45.5048 -27.329 9.4852 -48.5668 -19.947 9.4852 -50.8584 -17.1305 9.4852 
-42.8282 -19.947 16.028 52.6001 -19.947 9.4852 45.5048 -19.947 15.6646 
53.535 -18.2412 9.4852 -54.5891 -11.9168 9.4852 -50.8584 -11.9168 14.9337 
56.2692 -11.9168 9.4852 53.535 -11.9168 12.6603 -57.1162 -3.88649 9.4852 
57.28 -3.88649 9.4852 53.535 -3.88649 13.378 -57.0021 4.14378 9.4852 
45.5048 4.14378 17.4633 56.5731 4.14378 9.4852 53.535 10.6969 9.4852 
53.535 4.14378 12.5681 -53.9324 12.174 9.4852 -50.8584 16.1865 9.4852 
-50.8584 12.174 16.7578 37.4745 12.174 17.5121 52.5236 12.174 9.4852 
45.5048 12.174 14.1701 -47.0472 20.2043 9.4852 -42.8282 23.6309 9.4852 
29.4442 20.2043 16.8683 37.4745 27.0295 9.4852 37.4745 20.2043 14.195 
46.5178 20.2043 9.4852 45.5048 21.1545 9.4852 45.5048 20.2043 10.2283 
-37.1806 28.2346 9.4852 -34.7979 29.8783 9.4852 -34.7979 28.2346 13.5101 
-26.7676 34.861 9.4852 5.35344 28.2346 16.4359 13.3837 28.2346 15.7157 
21.414 33.8201 9.4852 21.414 28.2346 14.3915 35.1657 28.2346 9.4852 
29.4442 30.6813 9.4852 29.4442 28.2346 11.7781 -23.499 36.2648 9.4852 
-18.7374 38.1127 9.4852 -18.7374 36.2648 12.8854 -10.7071 39.5407 9.4852 
-10.7071 36.2648 14.0357 -2.67683 39.4769 9.4852 -2.67683 36.2648 13.1575 
5.35344 38.3337 9.4852 5.35344 36.2648 11.5935 13.956 36.2648 9.4852 
13.3837 36.4321 9.4852 13.3837 36.2648 9.65768 -26.7676 -31.8708 17.5155 
-18.7374 -35.3659 17.5155 -10.7071 -35.5064 17.5155 -2.67683 -34.8679 17.5155 
[...]
POINT_DATA 516
SCALARS ImageScalars float
LOOKUP_TABLE default
0 0 0 0 0 0 0 0 0 
0 0 0 0 0 0 0 0 0 
0 0 0 0 0 0 0 0 0 
0 0 0 0 0 0 0 0 0 
0 0 0 0 0 0 0 0 0 
0 0 0 0 0 0 0 0 0 
0 0 0 0 0 0 0 0 0 
0 0 0 0 0 0 0 0 0 
0 0 0 0 0 0 0 0 0 
0 0 0 0 0 0 0 0 0 
0 0 0 0 0 0 0 0 0 
0 0 0 0 0 0 0 0 0 
0 0 0 0 0 0 0 0 0 
0 0 0 0 0 0 0 0 0 
0 0 0 0 0 0 0 0 0 
0 0 0 0 0 0 0 0 0 
0 0 0 0 0 0 0 0 0 
0 0 0 0 0 0 0 0 0 
0 0 0 0 0 0 0 0 0 
0 0 0 0 0 0 0 0 0 
0 0 0 0 0 0 0 0 0 
0 0 0 0 0 0 0 0 0 
0 0 0 0 0 0 0 0 0 
0 0 0 0 0 0 0 0 0 
0 0 0 0 0 0 0 0 0 
0 0 0 0 0 0 0 0 0 
0 0 0 0 0 0 0 0 0 
0 0 0 0 0 0 0 0 0 
0 0 0 0 0 0 0 0 0 
0 0 0 0 0 0 0 0 0 
0 0 0 0 0 0 0 0 0 
0 0 0 0 0 0 0 0 0 
0 0 0 0 0 0 0 0 0 
0 0 0 0 0 0 0 0 0 
0 0 0 0 0 0 0 0 0 
0 0 0 0 0 0 0 0 0 
0 0 0 0 0 0 0 0 0 
0 0 0 0 0 0 0 0 0 
0 0 0 0 0 0 0 0 0 
0 0 0 0 0 0 0 0 0 
0 0 0 0 0 0 0 0 0 
0 0 0 0 0 0 0 0 0 
0 0 0 0 0 0 0 0 0 
0 0 0 0 0 0 0 0 0 
0 0 0 0 0 0 0 0 0 
0 0 0 0 0 0 0 0 0 
0 0 0 0 0 0 0 0 0 
0 0 0 0 0 0 0 0 0 
0 0 0 0 0 0 0 0 0 
0 0 0 0 0 0 0 0 0 
0 0 0 0 0 0 0 0 0 
0 0 0 0 0 0 0 0 0 
0 0 0 0 0 0 0 0 0 
0 0 0 0 0 0 0 0 0 
0 0 0 0 0 0 0 0 0 
0 0 0 0 0 0 0 0 0 
0 0 0 0 0 0 0 0 0 
0 0 0 
NORMALS Normals float
0.00559219 -0.0324402 0.999458 0.0982909 0.52282 0.846758 0.0773772 0.511287 0.855919 
0.0215809 0.519655 0.854103 -0.107802 0.542497 0.833112 0.258409 0.533681 0.805239 
0.0262445 0.372243 0.927764 -0.0487826 0.278903 0.95908 0.0317546 0.229478 0.972796 
0.10196 0.197462 0.974994 0.0364881 0.189302 0.981241 -0.0671749 0.217511 0.973743 
-0.1389 0.307926 0.941217 -0.22577 0.418149 0.879875 -0.372791 0.569439 0.732643 
0.361879 0.363966 0.858238 0.0417006 0.218173 0.975019 -0.0791253 0.146146 0.986094 
-0.0760984 0.0896629 0.993061 0.00383536 0.0772007 0.997008 0.05558 0.0777109 0.995425 
0.0436687 0.000154398 0.999046 0.0181959 0.00588621 0.999817 -0.0573819 0.0853957 0.994693 
-0.118546 0.185762 0.975417 -0.21111 0.299636 0.930403 -0.417267 0.426471 0.802503 
0.576579 0.267482 0.772017 0.212441 0.143251 0.966617 0.00973897 0.103123 0.994621 
-0.125051 0.083266 0.98865 -0.116197 0.0335593 0.992659 0.027233 0.100373 0.994577 
0.0269905 0.0255492 0.999309 -0.0322771 -0.0184973 0.999308 0.0178547 -0.0564295 0.998247 
0.0400787 -0.0759459 0.996306 0.00917214 0.0709073 0.997441 -0.103283 0.179034 0.978407 
-0.303992 0.230437 0.924385 0.526723 0.0433594 0.848931 0.186934 0.0595981 0.980563 
-0.0065184 0.00563915 0.999963 -0.0229504 0.0571645 0.998101 -0.152758 0.0564569 0.98665 
-0.0580922 0.0794316 0.995146 0.000564587 0.200849 0.979622 -0.0727308 0.043107 0.99642 
-0.0369384 0.0867789 0.995543 -0.0402558 -0.00779463 0.999159 0.0722501 -0.0676301 0.995091 
0.132291 0.00558882 0.991195 -0.0538613 0.0899443 0.994489 -0.238307 0.0871576 0.967271 
-0.48197 0.163574 0.860784 0.547606 -0.143533 0.824334 0.0226625 -0.0371577 0.999052 
0.222492 -0.0887628 0.970886 -0.00480047 -0.0272705 0.999617 0.0128092 -0.0363628 0.999257 
-0.103349 0.0209705 0.994424 0.0138171 0.0966057 0.995227 -8.99702e-05 0.047818 0.998856 
-0.0807065 0.0943804 0.992259 -0.0781073 0.0859252 0.993235 -0.142001 0.0914161 0.985636 
0.0489056 0.0973955 0.994043 0.173437 0.0353237 0.984211 -0.029912 0.0174597 0.9994 
-0.239731 0.0377147 0.970106 -0.477525 -0.0418344 0.877622 0.686957 -0.40023 0.606553 
0.308635 -0.184332 0.933149 0.0851504 -0.0809419 0.993075 -0.0255377 0.000992621 0.999673 
-0.0171357 0.0729897 0.997185 -0.00858941 -0.0112658 0.9999 -0.0432468 0.0558193 0.997504 
-0.0431107 0.0432141 0.998135 -0.023144 0.131715 0.991017 0.0172825 0.175026 0.984412 
0.0474981 0.0470646 0.997762 -0.0359658 -0.0832251 0.995882 -0.293147 -0.0850584 0.952276 
-0.546578 -0.211707 0.810205 0.527242 -0.474687 0.70476 0.181292 -0.255455 0.949672 
0.0506761 -0.0532735 0.997293 0.00162729 0.00243559 0.999996 -0.0217898 0.0085873 0.999726 
-0.0185689 0.0429502 0.998905 -0.00362095 0.0531686 0.998579 -0.0104761 0.0600735 0.998139 
-0.0364719 0.0390624 0.998571 -0.0820266 -0.0249963 0.996317 -0.160764 -0.153544 0.974977 
-0.353768 -0.34132 0.870833 0.478354 -0.561317 0.675352 0.230156 -0.335255 0.913582 
0.0506881 -0.189973 0.98048 0.0326817 -0.0785319 0.996376 0.000733043 -0.0923331 0.995728 
-0.025063 -0.103206 0.994344 -0.0313045 -0.0879832 0.99563 -0.0728863 -0.180282 0.980911 
-0.15853 -0.261864 0.951996 -0.345227 -0.439015 0.829509 0.430056 -0.735841 0.523058 
0.273772 -0.547959 0.790436 0.0782904 -0.44143 0.893874 -0.0299011 -0.425341 0.904539 
-0.0149438 -0.425616 0.904781 -0.0951191 -0.445664 0.890133 -0.203193 -0.589065 0.782122 
-0.345005 -0.731484 0.588135 0.100249 0.560646 0.821965 0.0772412 0.613601 0.785829 
0.0136668 0.645315 0.763794 -0.118942 0.651293 0.749447 0.327463 0.670844 0.665385 
0.465158 0.864369 0.191036 0.155372 0.661991 0.73323 0.213437 0.779507 0.588909 
0.108587 0.587988 0.801548 0.104797 0.592223 0.79893 0.113605 0.612006 0.782651 
-0.251664 0.622271 0.741245 -0.252915 0.621373 0.741572 -0.25394 0.624216 0.738829 
-0.300052 0.56981 0.765039 -0.387125 0.780954 0.490148 -0.375404 0.573775 0.727911 
0.468096 0.6481 0.60071 0.489449 0.639073 0.593317 0.518773 0.680848 0.517031 
-0.377739 0.572998 0.727315 -0.44972 0.487326 0.748509 -0.553517 0.743139 0.375983 
0.630706 0.50956 0.585285 0.658781 0.47614 0.582493 0.697641 0.541349 0.469296 
-0.472798 0.455643 0.754222 -0.704315 0.582123 0.406292 0.757841 0.271616 0.593213 
-0.537607 0.366995 0.75914 -0.539223 0.36564 0.758647 -0.540891 0.368476 0.756084 
0.79423 0.0334746 0.606695 0.98087 0.0103011 0.194392 -0.648136 0.158904 0.744761 
-0.950237 0.148658 0.273771 0.802681 -0.163865 0.573456 -0.693332 -0.0394539 0.719538 
-0.96354 -0.0762985 0.256455 0.733221 -0.402116 0.548352 0.711643 -0.447452 0.541619 
-0.651348 -0.24495 0.718154 -0.634185 -0.392927 0.665897 0.648457 -0.564625 0.51059 
0.614061 -0.624223 0.482984 -0.613842 -0.452284 0.647021 -0.527166 -0.589142 0.612379 
-0.727313 -0.534621 0.430344 0.574151 -0.644973 0.504341 0.535303 -0.679004 0.502399 
-0.521279 -0.607289 0.599557 -0.442057 -0.696615 0.565078 -0.556379 -0.652286 0.514748 
0.452173 -0.749825 0.483014 0.438275 -0.756287 0.485741 0.314839 -0.809237 0.495995 
0.151691 -0.85448 0.496844 0.0260809 -0.85845 0.512234 -0.0516062 -0.846916 0.529216 
-0.156257 -0.850722 0.501853 -0.266582 -0.812771 0.518013 -0.394014 -0.772711 0.497665 
-0.363403 -0.790342 0.493251 0.173053 -0.984824 0.0132377 0.0393543 -0.963801 0.263702 
-0.0564549 -0.969416 0.23884 0.472735 0.869548 0.142854 0.313026 0.912546 0.263201 
0.168008 0.931619 0.322272 0.0907032 0.94553 0.312643 0.05617 0.964736 0.257158 
-0.00508652 0.975242 0.221081 -0.130189 0.963223 0.235056 -0.290668 0.91534 0.278686 
-0.403707 0.864234 0.300199 0.482256 0.865058 0.138216 0.609376 0.788622 0.0820817 
0.512613 0.858606 0.00485868 -0.434571 0.846817 0.306672 -0.466292 0.826472 0.315462 
-0.559023 0.760239 0.330954 0.671022 0.738311 0.0680192 0.765999 0.637792 0.080418 
-0.57514 0.748679 0.329687 -0.714463 0.619024 0.326115 0.819345 0.566162 0.0901896 
-0.740773 0.588234 0.324401 0.94014 0.309908 0.141751 0.9817 0.115673 0.151274 
-0.89494 0.365309 0.256187 -0.956699 0.201487 0.210071 0.988064 0.0099294 0.153722 
0.984576 -0.0629568 0.163238 0.992977 0.0508614 -0.10682 -0.967424 0.149885 0.204023 
-0.978542 0.0942232 -0.183243 0.969707 -0.168011 0.177312 -0.981109 -0.0876213 0.172472 
-0.978054 -0.168365 0.122733 -0.978287 -0.142111 -0.15086 0.881553 -0.44416 0.159959 
0.770769 -0.626536 0.115617 -0.961482 -0.262367 0.0819486 0.75447 -0.647572 0.106891 
0.664996 -0.745981 0.0359548 -0.828829 -0.556481 0.05806 -0.746587 -0.663502 0.0487174 
0.652276 -0.757495 0.0271512 0.586195 -0.810105 -0.0102707 -0.44013 -0.897441 -0.0297557 
-0.649975 -0.759812 0.0147659 -0.576297 -0.816955 0.0215884 -0.561061 -0.725373 -0.398804 
0.531413 -0.846947 -0.0167508 0.471611 -0.881778 0.00708355 0.32355 -0.946202 -0.00415164 
-0.181023 -0.982582 -0.0419917 -0.296845 -0.953488 -0.0523871 -0.428789 -0.902563 -0.0389941 
-0.373487 -0.926932 -0.0361159 0.17851 -0.983895 -0.0091952 0.172985 -0.984886 -0.00870083 
0.173483 -0.984612 -0.0210331 0.0515569 -0.998649 0.00642785 0.0414793 -0.982444 -0.181886 
-0.178774 -0.983018 -0.0414295 -0.0583989 -0.998293 -0.000602758 -0.079105 -0.981068 -0.176773 
0.396561 0.911816 -0.106444 0.19665 0.978377 -0.0640886 0.0655136 0.995513 -0.0682788 
0.0171445 0.994493 -0.103394 -0.0195086 0.991276 -0.130348 -0.109757 0.983933 -0.140815 
-0.257073 0.957234 -0.132728 -0.384218 0.917505 -0.102772 0.636546 0.730686 -0.246793 
0.534783 0.824841 -0.183424 0.551881 0.810812 -0.194964 -0.45121 0.888573 -0.0827513 
-0.472653 0.877774 -0.0781779 -0.592753 0.802935 -0.0627612 0.655285 0.712271 -0.251539 
0.74849 0.619673 -0.236151 0.638369 0.705185 -0.308546 -0.636682 0.768227 -0.0668055 
-0.570579 0.736538 -0.363251 -0.762715 0.640533 -0.0893537 0.767257 0.598725 -0.22988 
0.737254 0.605133 -0.300451 -0.818285 0.564626 -0.107736 -0.762422 0.521342 -0.383296 
0.90933 0.379065 -0.171545 -0.944958 0.277358 -0.173571 0.990582 0.0540648 -0.125792 
-0.960924 0.080067 -0.264981 0.982295 -0.168595 -0.0816804 -0.933828 -0.167444 -0.316114 
0.862359 -0.497295 -0.09505 0.749677 -0.653303 -0.10573 -0.847517 -0.39468 -0.354884 
-0.613465 -0.421864 -0.667602 0.707188 -0.69737 -0.11645 0.64017 -0.750988 -0.161863 
-0.557144 -0.71778 -0.417592 -0.725146 -0.562728 -0.396864 -0.720042 -0.569633 -0.396305 
-0.71919 -0.562927 -0.407282 0.607743 -0.775963 -0.168906 0.558049 -0.807285 -0.192021 
-0.553425 -0.720487 -0.417875 -0.394108 -0.814487 -0.425782 -0.382728 -0.670418 -0.635656 
0.507053 -0.834796 -0.214507 0.497626 -0.840415 -0.214641 0.486235 -0.84159 -0.235163 
0.311287 -0.918054 -0.245515 0.173548 -0.944983 -0.277288 0.0312351 -0.948072 -0.316517 
-0.0993462 -0.925558 -0.365339 -0.215633 -0.887402 -0.407455 -0.283413 -0.858912 -0.426553 
-0.269628 -0.781614 -0.562477 -0.352464 -0.827332 -0.437369 -0.349322 -0.828553 -0.437577 
-0.348581 -0.820289 -0.45345 0.415038 0.831924 -0.368302 0.200187 0.907593 -0.369054 
0.0436338 0.916113 -0.39854 -0.0137801 0.903541 -0.428279 -0.046514 0.887503 -0.458448 
-0.133174 0.858277 -0.495606 -0.237098 0.821222 -0.519017 -0.32053 0.803282 -0.501994 
0.477615 0.795025 -0.373925 0.572436 0.720079 -0.392177 0.409312 0.776913 -0.478403 
0.157208 0.713354 -0.682943 -0.0108848 0.669226 -0.742979 -0.0437163 0.658926 -0.750937 
-0.0811227 0.663047 -0.744169 -0.151931 0.66458 -0.731608 -0.22534 0.714071 -0.662816 
-0.327611 0.802475 -0.498703 -0.317573 0.795591 -0.515929 -0.416967 0.774449 -0.475781 
0.609335 0.676834 -0.413045 0.619046 0.663247 -0.420578 0.532338 0.605209 -0.591894 
-0.190407 0.498366 -0.845799 -0.54011 0.712624 -0.447714 -0.354163 0.630422 -0.690751 
-0.557419 0.698501 -0.448753 0.678101 0.608371 -0.412388 0.724201 0.558636 -0.404301 
0.541815 0.582656 -0.605763 -0.718668 0.49328 -0.490093 -0.482367 0.415638 -0.771082 
-0.748382 0.434122 -0.501461 0.811044 0.439531 -0.386031 0.699334 0.459078 -0.547886 
-0.80477 0.21991 -0.551349 -0.714026 0.193787 -0.672765 0.93774 0.109208 -0.329723 
-0.783178 0.0159778 -0.621592 -0.645878 -0.00982817 -0.763377 0.947485 -0.149525 -0.282693 
-0.39069 -0.222974 -0.893109 -0.735521 -0.186127 -0.651433 -0.603764 -0.380436 -0.700527 
-0.616172 -0.219182 -0.756499 0.836582 -0.49122 -0.242558 0.760583 -0.604358 -0.237199 
0.740312 -0.448962 -0.500371 -0.286885 -0.308656 -0.906878 -0.573503 -0.410994 -0.708646 
-0.441572 -0.360692 -0.821533 0.662692 -0.714029 -0.225837 0.619003 -0.756809 -0.209943 
-0.244139 -0.393195 -0.88645 -0.374813 -0.631835 -0.678454 -0.340684 -0.449038 -0.826014 
-0.503437 -0.508425 -0.69861 -0.485607 -0.525583 -0.698533 -0.47963 -0.503102 -0.718918 
0.557785 -0.798129 -0.227743 0.53414 -0.81147 -0.237088 0.496457 -0.787592 -0.365006 
0.444731 -0.844289 -0.298981 -0.131115 -0.41563 -0.900034 -0.10521 -0.503273 -0.857699 
-0.246428 -0.708441 -0.661351 -0.195478 -0.566979 -0.800202 -0.349546 -0.653768 -0.671122 
-0.294852 -0.681881 -0.669403 -0.280149 -0.624539 -0.729018 0.364805 -0.87007 -0.331506 
0.251662 -0.892246 -0.374919 0.203975 -0.848925 -0.487565 0.0794704 -0.870004 -0.486598 
-0.00373369 -0.761548 -0.648098 -0.060634 -0.801187 -0.595334 -0.113046 -0.679509 -0.724905 
-0.153639 -0.732163 -0.663575 -0.163737 -0.659428 -0.73372 -0.20761 -0.71115 -0.671688 
-0.204375 -0.710934 -0.672906 -0.203497 -0.706549 -0.677774 0.350413 0.605815 -0.714282 
0.148475 0.678721 -0.719231 -0.0154693 0.643169 -0.765568 -0.0479116 0.602262 -0.796859 
-0.0874624 0.57079 -0.816425 -0.152198 0.476164 -0.866085 -0.143701 0.428271 -0.892151 
0.453903 0.557358 -0.695215 0.482074 0.543141 -0.687461 0.308533 0.475238 -0.823988 
0.0933127 0.382287 -0.91932 -0.0533184 0.374749 -0.925592 -0.065268 0.368691 -0.927258 
-0.102069 0.356073 -0.928867 -0.154091 0.329555 -0.931477 -0.177531 0.475772 -0.861466 
-0.129261 0.381739 -0.915187 -0.182841 0.483845 -0.855841 -0.28785 0.455032 -0.842667 
0.500232 0.546737 -0.671451 0.515019 0.544341 -0.662154 0.353195 0.42448 -0.833709 
0.184609 0.284497 -0.940734 0.0365923 0.173097 -0.984225 -0.0382753 0.209468 -0.977066 
-0.0651126 0.216803 -0.974041 -0.140645 0.198211 -0.970016 -0.148856 0.157773 -0.976191 
-0.0591105 0.196639 -0.978693 -0.0685781 0.285579 -0.955898 -0.366689 0.377338 -0.850386 
-0.247096 0.357796 -0.900514 -0.442305 0.219982 -0.869468 0.613947 0.446436 -0.650972 
0.685566 0.327428 -0.650224 0.399841 0.373308 -0.837119 0.202431 0.257761 -0.944765 
0.0631607 0.150489 -0.986592 0.0134917 0.099218 -0.994974 -0.0183188 0.128097 -0.991592 
-0.0849798 0.0422406 -0.995487 -0.168422 0.0216676 -0.985477 -0.156198 0.0954658 -0.983101 
0.000644204 0.115758 -0.993277 -0.00929932 0.112713 -0.993584 -0.229599 0.113873 -0.966601 
-0.46773 0.131587 -0.874022 -0.428614 0.129383 -0.894176 0.731084 0.189032 -0.655579 
0.664306 0.191111 -0.722616 0.32817 0.168901 -0.929396 -0.178646 -0.0891955 -0.979862 
-0.0843871 -0.0395298 -0.995649 -0.0617771 0.0560822 -0.996513 -0.0431132 0.00681889 -0.999047 
-0.0625262 -0.0699454 -0.995589 -0.204482 -0.091471 -0.974587 -0.46653 -0.05155 -0.883002 
-0.393337 -0.21399 -0.894145 -0.436481 -0.0548688 -0.898039 0.790585 -0.0991131 -0.604277 
0.736082 -0.405101 -0.542289 0.696693 -0.0875148 -0.712011 0.319023 0.0106868 -0.947687 
-0.0727752 -0.0369343 -0.996664 -0.11769 -0.112199 -0.986692 -0.100906 -0.0388998 -0.994135 
-0.0288095 0.029519 -0.999149 -0.110646 -0.0108989 -0.9938 -0.124061 -0.085417 -0.988591 
-0.110343 -0.16097 -0.980772 -0.387374 -0.222962 -0.894556 -0.286792 -0.308532 -0.90695 
-0.223546 -0.219599 -0.949633 0.722128 -0.440524 -0.533356 0.400521 -0.297758 -0.866558 
0.0942265 -0.181887 -0.978794 -0.0972192 -0.0870328 -0.99145 -0.0980844 -0.125184 -0.987273 
-0.0282696 -0.149587 -0.988344 -0.0571875 -0.197746 -0.978584 -0.175699 -0.209807 -0.961827 
-0.186547 -0.181767 -0.965485 -0.28672 -0.30856 -0.906963 -0.232642 -0.354941 -0.90548 
-0.196411 -0.245382 -0.949321 0.598361 -0.643565 -0.477271 0.592348 -0.650067 -0.475959 
0.586663 -0.63978 -0.496496 0.440727 -0.721975 -0.533396 0.300634 -0.481018 -0.823553 
0.0706537 -0.306967 -0.949094 -0.0732066 -0.199072 -0.977247 -0.182879 -0.226697 -0.956642 
-0.177848 -0.314026 -0.932608 -0.11447 -0.413094 -0.903465 -0.0846575 -0.430797 -0.898469 
-0.0784524 -0.443016 -0.893074 -0.0730819 -0.387813 -0.918836 -0.209943 -0.375222 -0.902847 
-0.158842 -0.408311 -0.898917 -0.149518 -0.349957 -0.924756 0.391531 -0.735149 -0.553408 
0.312713 -0.736215 -0.600165 0.271202 -0.650947 -0.709026 0.0911592 -0.707064 -0.701249 
0.00020028 -0.501808 -0.864979 -0.114134 -0.581598 -0.80543 -0.18143 -0.434698 -0.882112 
-0.179299 -0.40121 -0.898266 -0.199392 -0.427287 -0.881855 -0.210086 -0.396126 -0.893839 
0.122179 0.119426 -0.985297 0.041876 0.112935 -0.99272 0.0109099 0.0543786 -0.998461 
-0.022636 0.11899 -0.992637 0.122314 0.119243 -0.985302 0.122039 0.119193 -0.985342 
0.0131774 0.0619167 -0.997994 -0.067806 -0.0337899 -0.997126 0.0091057 0.0148773 -0.999848 
-0.113467 -0.0421361 -0.992648 -0.104438 -0.0705136 -0.992028 -0.0878342 -0.0252527 -0.995815 
0.188905 0.00492074 -0.981983 0.0938426 -0.153363 -0.983704 0.0981746 -0.00774819 -0.995139 
-0.0721496 -0.036336 -0.996732 -0.0412833 -0.00479682 -0.999136 0.0563989 -0.161621 -0.98524 
-0.0478585 -0.109063 -0.992882 -0.00395072 -0.150154 -0.988655 -0.0159653 -0.122225 -0.992374 

