# vtk DataFile Version 4.2
vtk output
ASCII
DATASET POLYDATA
POINTS 544 float
-22.6523 -41.224 -13.9596 -14.7948 -41.224 -15.3445 -6.93729 -41.224 -16.4236 
0.92022 -41.224 -16.7318 8.77773 -41.224 -16.4319 16.6352 -41.224 -15.4115 
24.4928 -41.224 -13.1101 -30.5098 -33.3665 -15.93 -22.6523 -33.3665 -17.5649 
-14.7948 -33.3665 -18.1388 -6.93729 -33.3665 -18.6077 0.92022 -33.3665 -19.0316 
8.77773 -33.3665 -19.2931 16.6352 -33.3665 -18.7858 24.4928 -33.3665 -17.8145 
32.3503 -33.3665 -16.3469 40.2078 -33.3665 -12.5594 -38.3674 -25.509 -15.4202 
-30.5098 -25.509 -17.5847 -22.6523 -25.509 -19.0492 -14.7948 -25.509 -18.4968 
-6.93729 -25.509 -18.4083 0.92022 -25.509 -18.1405 8.77773 -25.509 -18.8878 
16.6352 -25.509 -19.6271 24.4928 -25.509 -19.9871 32.3503 -25.509 -18.4487 
40.2078 -25.509 -16.9489 48.0653 -25.509 -12.5162 -46.2249 -17.6515 -13.7165 
-38.3674 -17.6515 -16.5881 -30.5098 -17.6515 -17.3287 -22.6523 -17.6515 -17.8506 
-14.7948 -17.6515 -17.8264 -6.93729 -17.6515 -17.396 0.92022 -17.6515 -17.1501 
8.77773 -17.6515 -18.4174 16.6352 -17.6515 -19.2788 24.4928 -17.6515 -19.3631 
32.3503 -17.6515 -19.132 40.2078 -17.6515 -18.7775 48.0653 -17.6515 -15.907 
-46.2249 -9.79398 -15.5061 -38.3674 -9.79398 -17.3322 -30.5098 -9.79398 -17.1285 
-22.6523 -9.79398 -16.4502 -14.7948 -9.79398 -15.8222 -6.93729 -9.79398 -19.0327 
0.92022 -9.79398 -17.6194 8.77773 -9.79398 -19.0881 16.6352 -9.79398 -18.1226 
24.4928 -9.79398 -18.1288 32.3503 -9.79398 -18.7463 40.2078 -9.79398 -18.6713 
48.0653 -9.79398 -17.1634 55.9228 -9.79398 -13.2571 -54.0824 -1.93647 -12.5992 
-46.2249 -1.93647 -16.0517 -38.3674 -1.93647 -17.2934 -30.5098 -1.93647 -17.0431 
-22.6523 -1.93647 -15.8726 -14.7948 -1.93647 -14.3044 -6.93729 -1.93647 -18.3602 
0.92022 -1.93647 -14.2166 8.77773 -1.93647 -20.2459 16.6352 -1.93647 -16.6807 
24.4928 -1.93647 -17.6057 32.3503 -1.93647 -18.7922 40.2078 -1.93647 -19.0686 
48.0653 -1.93647 -18.0668 55.9228 -1.93647 -14.788 -54.0824 5.92105 -13.6353 
-46.2249 5.92105 -17.0165 -38.3674 5.92105 -18.1793 -30.5098 5.92105 -18.0565 
-22.6523 5.92105 -16.8187 -14.7948 5.92105 -15.5627 -6.93729 5.92105 -17.289 
0.92022 5.92105 -15.5957 8.77773 5.92105 -17.5263 16.6352 5.92105 -17.0386 
24.4928 5.92105 -18.2307 32.3503 5.92105 -19.3356 40.2078 5.92105 -19.5995 
48.0653 5.92105 -18.7215 55.9228 5.92105 -15.4695 -54.0824 13.7786 -12.9837 
-46.2249 13.7786 -16.6961 -38.3674 13.7786 -18.1615 -30.5098 13.7786 -18.8213 
-22.6523 13.7786 -17.6552 -14.7948 13.7786 -16.4226 -6.93729 13.7786 -16.0204 
0.92022 13.7786 -15.5507 8.77773 13.7786 -16.2163 16.6352 13.7786 -17.8799 
24.4928 13.7786 -19.2978 32.3503 13.7786 -19.6963 40.2078 13.7786 -19.3257 
48.0653 13.7786 -17.3705 55.9228 13.7786 -12.7342 -46.2249 21.6361 -15.1537 
-38.3674 21.6361 -17.3281 -30.5098 21.6361 -17.7051 -22.6523 21.6361 -17.3289 
-14.7948 21.6361 -16.795 -6.93729 21.6361 -15.8577 0.92022 21.6361 -15.7096 
8.77773 21.6361 -16.6959 16.6352 21.6361 -18.2104 24.4928 21.6361 -19.0002 
32.3503 21.6361 -19.1998 40.2078 21.6361 -18.7237 48.0653 21.6361 -15.2562 
-38.3674 29.4936 -14.7715 -30.5098 29.4936 -16.134 -22.6523 29.4936 -16.242 
-14.7948 29.4936 -16.2461 -6.93729 29.4936 -15.8703 0.92022 29.4936 -15.9062 
8.77773 29.4936 -16.6251 16.6352 29.4936 -17.7155 24.4928 29.4936 -17.7082 
32.3503 29.4936 -17.4128 40.2078 29.4936 -15.1236 -22.6523 37.3511 -13.974 
-14.7948 37.3511 -13.8578 -6.93729 37.3511 -13.659 0.92022 37.3511 -13.7385 
8.77773 37.3511 -14.5837 16.6352 37.3511 -15.1305 24.4928 37.3511 -14.9578 
32.3503 37.3511 -12.7373 -22.6523 -42.9869 -12.4188 -14.7948 -44.5626 -12.4188 
-6.93729 -45.8319 -12.4188 0.92022 -46.0335 -12.4188 8.77773 -45.34 -12.4188 
16.6352 -44.2236 -12.4188 24.4928 -41.9283 -12.4188 -26.5138 -41.224 -12.4188 
-30.5098 -38.7928 -12.4188 -30.5098 -41.224 -9.05025 26.2578 -41.224 -12.4188 
32.3503 -38.5246 -12.4188 32.3503 -41.224 -7.58284 40.2078 -33.5328 -12.4188 
-37.8774 -33.3665 -12.4188 -38.3674 -32.8769 -12.4188 -38.3674 -33.3665 -12.0475 
40.4309 -33.3665 -12.4188 48.0653 -25.6487 -12.4188 -43.8669 -25.509 -12.4188 
-46.2249 -21.1177 -12.4188 -46.2249 -25.509 -10.3586 48.1822 -25.509 -12.4188 
-48.3804 -17.6515 -12.4188 -54.0824 -17.6515 -7.60743 55.2859 -17.6515 -12.4188 
55.9228 -15.0482 -12.4188 55.9228 -17.6515 -11.5219 -51.9209 -9.79398 -12.4188 
-54.0824 -2.76382 -12.4188 -54.0824 -9.79398 -10.6405 56.8424 -9.79398 -12.4188 
-54.3167 -1.93647 -12.4188 58.3951 -1.93647 -12.4188 -55.5487 5.92105 -12.4188 
58.8917 5.92105 -12.4188 -54.7761 13.7786 -12.4188 -54.0824 16.4381 -12.4188 
56.2235 13.7786 -12.4188 55.9228 14.5431 -12.4188 -52.1464 21.6361 -12.4188 
-54.0824 21.6361 -10.8617 -46.2249 27.4465 -12.4188 52.2583 21.6361 -12.4188 
48.0653 26.8947 -12.4188 55.9228 21.6361 -5.15863 -43.9694 29.4936 -12.4188 
-46.2249 29.4936 -10.951 -38.3674 33.3485 -12.4188 -30.5098 37.2168 -12.4188 
45.4106 29.4936 -12.4188 40.2078 33.5409 -12.4188 48.0653 29.4936 -9.09763 
-38.3674 37.3511 -8.61819 -30.2079 37.3511 -12.4188 -30.5098 37.3511 -12.3267 
-22.6523 39.6217 -12.4188 -14.7948 39.2511 -12.4188 -6.93729 39.2352 -12.4188 
0.92022 39.4427 -12.4188 8.77773 40.6273 -12.4188 16.6352 41.1688 -12.4188 
24.4928 40.55 -12.4188 33.1718 37.3511 -12.4188 32.3503 37.737 -12.4188 
40.2078 37.3511 -6.80775 -14.7948 45.2086 -5.28374 -6.93729 45.2086 -6.25973 
0.92022 45.2086 -7.04317 8.77773 45.2086 -8.01887 16.6352 45.2086 -7.99723 
24.4928 45.2086 -6.06696 -30.5098 -43.318 -4.56124 -22.6523 -46.4482 -4.56124 
-14.7948 -48.3282 -4.56124 -6.93729 -48.9435 -4.56124 0.92022 -49.0616 -4.56124 
8.77773 -48.2031 -4.56124 16.6352 -47.1464 -4.56124 24.4928 -45.5171 -4.56124 
32.3503 -42.3974 -4.56124 -34.0036 -41.224 -4.56124 -38.3674 -38.416 -4.56124 
34.3982 -41.224 -4.56124 32.3503 -41.224 3.12337 40.2078 -37.4918 -4.56124 
-44.7428 -33.3665 -4.56124 -46.2249 -31.754 -4.56124 45.3913 -33.3665 -4.56124 
48.0653 -30.9634 -4.56124 -51.2518 -25.509 -4.56124 -54.0824 -21.2253 -4.56124 
53.2093 -25.509 -4.56124 55.9228 -21.67 -4.56124 -56.0026 -17.6515 -4.56124 
58.5702 -17.6515 -4.56124 -59.148 -9.79398 -4.56124 61.6673 -9.79398 -4.56124 
-61.0425 -1.93647 -4.56124 62.8034 -1.93647 -4.56124 -61.5464 5.92105 -4.56124 
-61.9399 5.92105 3.20102 62.798 5.92105 -4.56124 -60.5591 13.7786 -4.56124 
60.1451 13.7786 -4.56124 -57.7234 21.6361 -4.56124 -54.0824 26.9746 -4.56124 
56.1273 21.6361 -4.56124 55.9228 21.9677 -4.56124 55.9228 21.6361 -2.96075 
-51.8095 29.4936 -4.56124 -46.2249 34.7732 -4.56124 50.3647 29.4936 -4.56124 
48.0653 31.8502 -4.56124 -42.8012 37.3511 -4.56124 -38.3674 40.0477 -4.56124 
-30.5098 42.9633 -4.56124 -22.6523 44.7394 -4.56124 32.3503 42.8829 -4.56124 
41.6858 37.3511 -4.56124 40.2078 38.41 -4.56124 -18.5773 45.2086 -4.56124 
-14.7948 45.6131 -4.56124 -6.93729 46.2168 -4.56124 0.92022 46.7892 -4.56124 
8.77773 47.4063 -4.56124 16.6352 47.2493 -4.56124 26.7642 45.2086 -4.56124 
24.4928 46.0439 -4.56124 -30.5098 -42.5413 3.29627 -22.6523 -45.7049 3.29627 
-14.7948 -47.441 3.29627 -6.93729 -47.8301 3.29627 0.92022 -47.6418 3.29627 
8.77773 -46.8969 3.29627 16.6352 -46.1515 3.29627 24.4928 -44.6271 3.29627 
-32.7608 -41.224 3.29627 -38.3674 -37.8709 3.29627 -30.5098 -41.224 6.11423 
32.2849 -41.224 3.29627 24.4928 -41.224 9.23714 32.3503 -41.1898 3.29627 
40.2078 -36.0212 3.29627 -44.2417 -33.3665 3.29627 -46.2249 -31.6489 3.29627 
-38.3674 -33.3665 11.0972 43.35 -33.3665 3.29627 40.2078 -33.3665 6.71323 
48.0653 -28.9731 3.29627 -51.9708 -25.509 3.29627 -54.0824 -22.5902 3.29627 
51.3502 -25.509 3.29627 48.0653 -25.509 7.24383 55.9228 -19.4018 3.29627 
-57.1767 -17.6515 3.29627 57.109 -17.6515 3.29627 55.9228 -17.6515 5.07436 
-60.5893 -9.79398 3.29627 60.3311 -9.79398 3.29627 55.9228 -9.79398 9.455 
-61.9273 -1.93647 3.29627 -61.9399 3.91682 3.29627 61.6355 -1.93647 3.29627 
-61.9442 5.92105 3.29627 -61.9399 5.9537 3.29627 -61.9399 5.92105 3.30782 
61.4338 5.92105 3.29627 -60.8206 13.7786 3.29627 58.8343 13.7786 3.29627 
55.9228 20.0273 3.29627 55.9228 13.7786 7.8525 -57.5766 21.6361 3.29627 
-54.0824 26.7617 3.29627 -54.0824 21.6361 10.0678 55.0973 21.6361 3.29627 
-51.8404 29.4936 3.29627 -46.2249 34.6953 3.29627 -46.2249 29.4936 10.3604 
49.7232 29.4936 3.29627 48.0653 31.3354 3.29627 48.0653 29.4936 6.30565 
-42.232 37.3511 3.29627 -38.3674 39.6143 3.29627 -38.3674 37.3511 7.64098 
-30.5098 42.5129 3.29627 -30.5098 37.3511 10.3883 -22.6523 44.1941 3.29627 
32.3503 43.0771 3.29627 41.5452 37.3511 3.29627 40.2078 38.3866 3.29627 
40.2078 37.3511 5.43782 -17.186 45.2086 3.29627 -14.7948 45.6148 3.29627 
-14.7948 45.2086 4.24957 -6.93729 47.0161 3.29627 -6.93729 45.2086 7.11769 
0.92022 47.6539 3.29627 0.92022 45.2086 8.49015 8.77773 48.1107 3.29627 
8.77773 45.2086 8.92766 16.6352 47.6483 3.29627 16.6352 45.2086 7.74577 
26.959 45.2086 3.29627 24.4928 46.1223 3.29627 24.4928 45.2086 5.34812 
-22.6523 -41.6776 11.1538 -14.7948 -43.1955 11.1538 -6.93729 -43.3205 11.1538 
0.92022 -42.3377 11.1538 8.77773 -41.7158 11.1538 16.6352 -41.6055 11.1538 
-23.8629 -41.224 11.1538 -30.5098 -38.2693 11.1538 -22.6523 -41.224 11.6551 
-14.7948 -41.224 13.179 -6.93729 -41.224 13.1786 0.92022 -41.224 12.1498 
8.77773 -41.224 11.6013 18.4547 -41.224 11.1538 16.6352 -41.224 11.5294 
24.4928 -39.5643 11.1538 32.3503 -34.689 11.1538 -46.2249 -27.1238 11.1538 
-38.3036 -33.3665 11.1538 -38.3674 -33.3235 11.1538 -30.5098 -33.3665 15.239 
-22.6523 -33.3665 16.8293 -14.7948 -33.3665 17.5343 -6.93729 -33.3665 16.9816 
0.92022 -33.3665 15.9113 8.77773 -33.3665 16.4314 16.6352 -33.3665 16.5344 
24.4928 -33.3665 15.5896 34.0846 -33.3665 11.1538 32.3503 -33.3665 12.0893 
40.2078 -27.1733 11.1538 -47.8489 -25.509 11.1538 -54.0824 -18.1652 11.1538 
-46.2249 -25.509 12.6959 -38.3674 -25.509 16.9354 -30.5098 -25.509 18.3094 
-22.6523 -25.509 18.9646 -6.93729 -25.509 18.2935 0.92022 -25.509 17.2328 
8.77773 -25.509 17.987 16.6352 -25.509 18.2843 24.4928 -25.509 17.3796 
32.3503 -25.509 15.1481 42.0117 -25.509 11.1538 40.2078 -25.509 12.0993 
[...]
POINT_DATA 544
SCALARS ImageScalars float
LOOKUP_TABLE default
0 0 0 0 0 0 0 0 0 
0 0 0 0 0 0 0 0 0 
0 0 0 0 0 0 0 0 0 
0 0 0 0 0 0 0 0 0 
0 0 0 0 0 0 0 0 0 
0 0 0 0 0 0 0 0 0 
0 0 0 0 0 0 0 0 0 
0 0 0 0 0 0 0 0 0 
0 0 0 0 0 0 0 0 0 
0 0 0 0 0 0 0 0 0 
0 0 0 0 0 0 0 0 0 
0 0 0 0 0 0 0 0 0 
0 0 0 0 0 0 0 0 0 
0 0 0 0 0 0 0 0 0 
0 0 0 0 0 0 0 0 0 
0 0 0 0 0 0 0 0 0 
0 0 0 0 0 0 0 0 0 
0 0 0 0 0 0 0 0 0 
0 0 0 0 0 0 0 0 0 
0 0 0 0 0 0 0 0 0 
0 0 0 0 0 0 0 0 0 
0 0 0 0 0 0 0 0 0 
0 0 0 0 0 0 0 0 0 
0 0 0 0 0 0 0 0 0 
0 0 0 0 0 0 0 0 0 
0 0 0 0 0 0 0 0 0 
0 0 0 0 0 0 0 0 0 
0 0 0 0 0 0 0 0 0 
0 0 0 0 0 0 0 0 0 
0 0 0 0 0 0 0 0 0 
0 0 0 0 0 0 0 0 0 
0 0 0 0 0 0 0 0 0 
0 0 0 0 0 0 0 0 0 
0 0 0 0 0 0 0 0 0 
0 0 0 0 0 0 0 0 0 
0 0 0 0 0 0 0 0 0 
0 0 0 0 0 0 0 0 0 
0 0 0 0 0 0 0 0 0 
0 0 0 0 0 0 0 0 0 
0 0 0 0 0 0 0 0 0 
0 0 0 0 0 0 0 0 0 
0 0 0 0 0 0 0 0 0 
0 0 0 0 0 0 0 0 0 
0 0 0 0 0 0 0 0 0 
0 0 0 0 0 0 0 0 0 
0 0 0 0 0 0 0 0 0 
0 0 0 0 0 0 0 0 0 
0 0 0 0 0 0 0 0 0 
0 0 0 0 0 0 0 0 0 
0 0 0 0 0 0 0 0 0 
0 0 0 0 0 0 0 0 0 
0 0 0 0 0 0 0 0 0 
0 0 0 0 0 0 0 0 0 
0 0 0 0 0 0 0 0 0 
0 0 0 0 0 0 0 0 0 
0 0 0 0 0 0 0 0 0 
0 0 0 0 0 0 0 0 0 
0 0 0 0 0 0 0 0 0 
0 0 0 0 0 0 0 0 0 
0 0 0 0 0 0 0 0 0 
0 0 0 0 
NORMALS Normals float
0.232588 0.623493 0.746431 0.145606 0.537874 0.830356 0.0743884 0.479036 0.874638 
0.00099729 0.494172 0.869363 -0.073437 0.555409 0.828328 -0.174277 0.598444 0.78198 
-0.280424 0.700668 0.656069 0.298384 0.364692 0.882024 0.120749 0.278117 0.952927 
0.067406 0.168471 0.983399 0.0562579 0.103072 0.993082 0.040637 0.0598164 0.997382 
-0.0143044 0.11344 0.993442 -0.0926991 0.236931 0.967094 -0.14161 0.363306 0.920845 
-0.302714 0.441683 0.844559 -0.470597 0.617362 0.630399 0.370802 0.213648 0.903803 
0.220119 0.0713492 0.97286 0.0664902 0.0211028 0.997564 -0.0392455 -0.0207895 0.999013 
-0.0232376 -0.0791753 0.99659 0.0316082 -0.115586 0.992795 0.0935119 -0.0528082 0.994217 
0.0689233 0.0279105 0.997231 -0.0785758 0.0906897 0.992774 -0.181597 0.157067 0.970748 
-0.307875 0.333387 0.891104 -0.596773 0.475764 0.646151 0.432494 0.274391 0.858871 
0.199966 0.125407 0.971744 0.0772152 -0.0303837 0.996551 0.0312585 -0.158331 0.986891 
-0.0287921 -0.157468 0.987104 -0.0428033 0.0242108 0.99879 0.0628567 -0.0345645 0.997424 
0.135261 0.011254 0.990746 0.0580474 -0.0910372 0.994154 -0.00905424 -0.115295 0.99329 
-0.0354391 0.0218665 0.999133 -0.197384 0.106389 0.974536 -0.385298 0.233283 0.892818 
0.339149 0.121432 0.932862 0.106141 0.041088 0.993502 -0.0532443 -0.0180206 0.998419 
-0.0820785 -0.126309 0.98859 0.132184 -0.225389 0.96526 0.112492 0.0779491 0.99059 
0.0182703 -0.114026 0.99331 0.0313199 0.109674 0.993474 -0.059503 -0.165142 0.984473 
0.040294 -0.114158 0.992645 0.0344569 -0.0213003 0.999179 -0.0944898 0.0190327 0.995344 
-0.281242 0.135019 0.950091 -0.633195 0.152559 0.758808 0.553212 0.148493 0.819699 
0.255569 0.0946232 0.962149 0.0583288 0.0538595 0.996843 -0.0852057 0.0587615 0.994629 
-0.172341 0.025764 0.9847 0.124631 -0.0100412 0.992152 0.082424 -0.120185 0.989324 
0.162234 -0.178623 0.97045 0.0249898 -0.0923807 0.99541 -0.141414 -0.0682131 0.987598 
0.132087 0.00622025 0.991219 0.0923337 0.0373307 0.995028 -0.042571 0.0588981 0.997356 
-0.219261 0.094752 0.971054 -0.586366 0.109614 0.802595 0.560768 0.0219468 0.827682 
0.245961 0.039694 0.968467 0.061515 0.0550662 0.996586 -0.0863628 0.112905 0.989845 
-0.157818 0.109675 0.981359 0.0301127 0.128986 0.991189 0.0105244 -0.139866 0.990115 
0.00394862 0.0614796 0.998101 0.0850406 -0.242964 0.966301 0.0474871 0.0754096 0.996021 
0.144761 0.10224 0.98417 0.0859592 0.0572046 0.994655 -0.0344471 0.0167073 0.999267 
-0.218692 -0.041923 0.974893 -0.608593 -0.103071 0.78676 0.581816 -0.127314 0.803294 
0.279656 -0.114113 0.953295 0.12671 -0.0497105 0.990693 -0.032693 -0.0206744 0.999252 
-0.151525 0.0320425 0.987934 -0.103757 0.0774032 0.991586 -0.0560457 -0.0922957 0.994153 
0.0129806 0.00752666 0.999887 0.147206 -0.0449501 0.988084 0.188674 0.0739918 0.979248 
0.117125 0.0498363 0.991866 0.000602468 -0.00765426 0.99997 -0.138541 -0.0511912 0.989033 
-0.34295 -0.198021 0.918245 -0.693718 -0.29458 0.657251 0.335822 -0.285453 0.89763 
0.158253 -0.215614 0.96357 -0.00168611 -0.163813 0.98649 -0.0565434 -0.0877321 0.994538 
-0.0933289 -0.0101432 0.995584 -0.068882 -0.00933515 0.997581 0.053143 0.0221846 0.99834 
0.157292 0.0257002 0.987218 0.144965 -0.00944657 0.989392 0.0624458 -0.0969893 0.993325 
-0.0142989 -0.133311 0.990971 -0.218347 -0.236874 0.946687 -0.480965 -0.345617 0.805743 
0.249677 -0.409733 0.877371 0.0930007 -0.27577 0.956714 0.00651779 -0.205926 0.978546 
-0.0234079 -0.170336 0.985108 -0.0213516 -0.125334 0.991885 0.0481655 -0.109728 0.992794 
0.111079 -0.117152 0.986882 0.070005 -0.177236 0.981675 -0.0169287 -0.243949 0.96964 
-0.148048 -0.359883 0.921177 -0.338844 -0.482096 0.807941 0.0703159 -0.471718 0.878941 
-0.0189495 -0.48048 0.876801 -0.00685503 -0.426178 0.904613 0.0527696 -0.40914 0.910944 
0.0803252 -0.404325 0.911081 0.0207508 -0.44482 0.89538 -0.128854 -0.509783 0.850599 
-0.298324 -0.617686 0.727645 0.255952 0.713622 0.652099 0.146168 0.733825 0.663427 
0.0738008 0.754091 0.652611 -0.0269033 0.782011 0.622683 -0.0997942 0.794875 0.598511 
-0.178615 0.784941 0.593266 -0.288503 0.730889 0.618521 0.318896 0.69596 0.643386 
0.38647 0.645633 0.658634 0.436179 0.80936 0.3933 -0.309484 0.730603 0.608637 
-0.368847 0.709525 0.600439 -0.429353 0.863153 0.26575 -0.472734 0.623569 0.622643 
0.484213 0.513322 0.708547 0.489624 0.500019 0.714317 0.50252 0.5315 0.681896 
-0.476233 0.620753 0.622791 -0.599057 0.48033 0.640635 0.541797 0.308016 0.782037 
0.509334 0.315722 0.800562 0.640486 0.397549 0.657064 -0.59988 0.478896 0.640939 
0.49898 0.29888 0.813443 0.772806 0.368185 0.516924 -0.679928 0.340452 0.649454 
-0.687037 0.28135 0.669941 -0.731749 0.367139 0.574241 0.559596 0.179214 0.809157 
0.562933 0.152582 0.812296 0.668814 0.209648 0.713257 -0.659906 0.156141 0.734945 
0.561684 0.148253 0.813961 -0.688252 0.0994929 0.718617 0.623243 0.0185218 0.781809 
-0.736618 -0.120791 0.665434 0.611911 -0.132787 0.7797 0.608435 -0.206583 0.766245 
-0.70644 -0.296097 0.64286 -0.704089 -0.310788 0.63849 0.564887 -0.344745 0.749702 
0.677565 -0.382583 0.628121 0.450378 -0.465128 0.762113 -0.634008 -0.427165 0.644643 
-0.566899 -0.531446 0.629437 -0.849207 -0.513007 0.125188 0.422179 -0.494156 0.759983 
0.51744 -0.553338 0.652742 0.305554 -0.543059 0.782128 0.268551 -0.596593 0.756279 
-0.516395 -0.573218 0.636206 -0.411003 -0.620833 0.667565 -0.649886 -0.647351 0.398227 
0.401303 -0.759893 0.511388 0.264421 -0.597413 0.757086 0.272271 -0.605335 0.747956 
0.0852503 -0.595483 0.798832 -0.0167301 -0.572165 0.819968 0.00706057 -0.525312 0.850881 
0.0538391 -0.509851 0.858576 0.0675911 -0.56818 0.820124 -0.00969954 -0.627917 0.77822 
-0.15086 -0.655049 0.740373 -0.318124 -0.632185 0.706498 -0.30452 -0.631275 0.713274 
-0.526937 -0.792871 0.306092 0.0829641 -0.945509 0.31485 0.0677962 -0.90478 0.420449 
0.0702427 -0.871148 0.485969 0.0393511 -0.853978 0.518819 -0.0721859 -0.87544 0.477906 
-0.240758 -0.906572 0.346644 0.452017 0.880425 0.143289 0.291782 0.94904 0.119105 
0.15647 0.981112 0.113735 0.0451636 0.996643 0.0682895 -0.0458179 0.997337 0.0567501 
-0.122806 0.990633 0.0597021 -0.162067 0.982428 0.0925742 -0.297605 0.946951 0.121309 
-0.440844 0.891153 0.107251 0.509516 0.850982 0.127369 0.584564 0.79759 0.148782 
-0.473316 0.87524 0.0996345 -0.463837 0.829358 -0.311481 -0.572073 0.814974 0.0924627 
0.693787 0.696312 0.183872 0.717345 0.66374 0.211814 -0.654336 0.753096 0.0684859 
-0.695309 0.714904 0.0738782 0.768076 0.561888 0.307149 0.816157 0.481973 0.31873 
-0.77624 0.622989 0.0966258 -0.830262 0.552283 0.0751534 0.847801 0.403008 0.3447 
-0.874139 0.477301 0.0898062 0.872252 0.290924 0.393116 -0.958385 0.25415 0.13002 
0.933248 0.13389 0.333348 -0.98995 0.0692394 0.123309 0.959594 -0.0301004 0.279775 
0.985704 -0.0634164 -0.156093 -0.978731 -0.172242 0.111436 0.938164 -0.234571 0.254608 
-0.923283 -0.367528 0.111676 0.865079 -0.444434 0.23263 0.771514 -0.593765 0.228494 
-0.853508 -0.512961 0.091619 -0.850036 -0.518487 0.0927906 -0.858743 -0.512189 0.0149405 
0.714361 -0.654662 0.247198 0.602057 -0.761867 0.238927 -0.730917 -0.667217 0.143464 
-0.693229 -0.703616 0.156074 0.52735 -0.816828 0.233866 0.434559 -0.86817 0.239663 
0.290388 -0.932462 0.214916 0.157898 -0.969618 0.186841 -0.420055 -0.876892 0.233697 
-0.571891 -0.798577 0.187655 -0.545158 -0.815444 0.194559 0.121384 -0.965279 0.231305 
0.0899979 -0.957374 0.274471 0.0745786 -0.939729 0.333688 0.0749804 -0.933301 0.35118 
0.0286172 -0.942338 0.333437 -0.0872398 -0.951328 0.295573 -0.302413 -0.918321 0.255408 
-0.253621 -0.929517 0.267721 0.446446 0.861532 -0.241762 0.277371 0.926701 -0.253555 
0.127395 0.953989 -0.271433 0.0128676 0.951691 -0.306787 -0.0566101 0.93442 -0.351646 
-0.088532 0.938088 -0.334892 -0.133753 0.946406 -0.293982 -0.289391 0.914502 -0.282734 
0.47709 0.848649 -0.228429 0.543945 0.811147 -0.21486 0.426235 0.830563 -0.358453 
-0.462004 0.826879 -0.32066 -0.289819 0.768644 -0.570256 -0.46344 0.825847 -0.321248 
-0.574017 0.73349 -0.364002 0.625612 0.752039 -0.207478 0.654603 0.733287 -0.18381 
0.478192 0.661137 -0.578126 -0.616705 0.691614 -0.375958 -0.556407 0.627223 -0.54498 
-0.659166 0.644307 -0.387774 0.762697 0.632814 -0.133565 0.820546 0.56119 -0.108492 
-0.697363 0.599499 -0.392793 -0.598071 0.539197 -0.59294 -0.770388 0.518938 -0.370412 
0.88606 0.457108 -0.0771358 -0.791572 0.485042 -0.371684 -0.746403 0.482524 -0.458316 
0.955969 0.276318 -0.0988545 -0.889193 0.262679 -0.374613 -0.681283 0.254822 -0.686236 
0.991439 0.0854921 -0.0986936 0.989007 -0.0260971 -0.145551 -0.932975 0.063381 -0.354317 
0.984909 -0.0637081 -0.160923 0.98484 -0.0645236 -0.16102 0.984809 -0.063793 -0.161495 
-0.916497 -0.166888 -0.363568 0.943308 -0.269753 -0.193399 -0.871405 -0.350065 -0.343669 
-0.83639 -0.453853 -0.307361 -0.762022 -0.322536 -0.561509 0.855753 -0.466718 -0.223295 
0.778508 -0.586649 -0.223086 0.697486 -0.42299 -0.57844 -0.826886 -0.476108 -0.299301 
0.722298 -0.651952 -0.230749 0.577961 -0.778623 -0.24435 0.502822 -0.594843 -0.627162 
-0.741476 -0.626343 -0.240641 -0.715434 -0.659829 -0.229737 -0.705184 -0.59793 -0.381045 
0.500968 -0.829506 -0.246884 0.429824 -0.865568 -0.256991 0.384406 -0.785453 -0.485073 
0.274272 -0.915594 -0.294046 0.184485 -0.707449 -0.682261 0.187445 -0.941298 -0.280752 
-0.419625 -0.884704 -0.203013 -0.608281 -0.767417 -0.202646 -0.585217 -0.786614 -0.196874 
-0.577908 -0.756485 -0.306191 0.179076 -0.95694 -0.22847 0.174638 -0.961854 -0.210566 
0.177172 -0.948898 -0.261156 0.131356 -0.97599 -0.173748 0.128018 -0.907565 -0.399923 
0.0697346 -0.985615 -0.15395 0.0598891 -0.862161 -0.503082 0.000194075 -0.984148 -0.177346 
-0.0301239 -0.847948 -0.529223 -0.124333 -0.968088 -0.217594 -0.112608 -0.865009 -0.488957 
-0.320831 -0.925361 -0.201927 -0.275346 -0.939266 -0.204851 -0.263156 -0.909545 -0.321678 
0.236072 0.744892 -0.624024 0.0883085 0.752216 -0.652972 -0.042835 0.720292 -0.692347 
-0.083026 0.663968 -0.743138 -0.0358987 0.682914 -0.729616 -0.089744 0.71843 -0.689786 
0.25547 0.742078 -0.619722 0.357381 0.707352 -0.609862 0.23278 0.728119 -0.644714 
0.0749004 0.673115 -0.735735 -0.0572689 0.623098 -0.780044 -0.086542 0.617211 -0.782023 
-0.0335425 0.665498 -0.745646 -0.133161 0.714135 -0.687226 -0.086488 0.704077 -0.704838 
-0.281953 0.667523 -0.689141 -0.423598 0.524006 -0.738906 0.570508 0.61734 -0.541675 
0.476376 0.659632 -0.581335 0.476991 0.659339 -0.581164 0.280163 0.526857 -0.802453 
0.126486 0.387031 -0.91335 0.0085081 0.318074 -0.948028 -0.0999041 0.290292 -0.951709 
-0.0337184 0.290055 -0.956416 0.0378172 0.358107 -0.932914 -0.0450313 0.370771 -0.927632 
-0.249531 0.380957 -0.890285 -0.439171 0.497771 -0.747899 -0.417669 0.476511 -0.773621 
-0.434897 0.437976 -0.786792 0.596373 0.594827 -0.538999 0.748363 0.418488 -0.514607 
0.549218 0.566953 -0.613942 0.283524 0.398414 -0.872285 0.118101 0.248273 -0.961464 
0.0474762 0.17464 -0.983487 -0.117697 0.0579726 -0.991356 -0.0191866 0.0650976 -0.997694 
0.0668145 0.108956 -0.991799 -0.0357755 0.112794 -0.992974 -0.192332 0.11737 -0.974286 
-0.292226 0.264823 -0.918952 -0.442058 0.424482 -0.79019 -0.406869 0.401825 -0.820362 
-0.461844 0.368505 -0.806786 0.755994 0.405057 -0.514201 0.742662 0.405224 -0.533148 
0.37715 0.316161 -0.870517 -0.115849 -0.0585798 -0.991538 -0.126845 -0.00689905 -0.991899 
0.0181844 0.0452 -0.998812 0.0921364 0.026622 -0.99539 -0.0377218 -0.0334865 -0.998727 
-0.108236 0.0367114 -0.993447 -0.169037 0.173685 -0.970185 -0.293157 0.273855 -0.916003 
-0.465417 0.363918 -0.806815 -0.454122 0.358784 -0.815505 0.792322 0.229475 -0.565302 
0.661044 0.219697 -0.717463 -0.075599 -0.0721662 -0.994523 -0.0100969 -0.0532362 -0.998531 
0.0147034 -0.187376 -0.982178 -0.0151149 -0.0638528 -0.997845 -0.0274535 -0.0762996 -0.996707 
0.0209015 0.0232643 -0.999511 -0.0546597 0.109335 -0.992501 -0.219663 0.175661 -0.959631 
-0.573406 0.244295 -0.782001 -0.399795 0.220543 -0.889677 -0.641448 0.11043 -0.759177 
0.813498 0.0531711 -0.579131 0.599943 0.0183945 -0.799832 -0.147497 0.000448209 -0.989062 
-0.290172 -0.10914 -0.950731 0.0625061 -0.259888 -0.963614 0.226861 -0.00231907 -0.973924 
0.0539624 -0.00704001 -0.998518 0.0742994 0.0218193 -0.996997 -0.0167626 0.0365716 -0.99919 
-0.173172 0.052828 -0.983474 -0.377167 0.0795087 -0.922726 -0.653292 0.0733559 -0.753544 
-0.636528 0.0743033 -0.767666 0.77169 -0.12051 -0.624478 0.60621 -0.14731 -0.781543 
-0.18211 0.00685907 -0.983254 -0.143915 -0.00385947 -0.989583 0.138687 0.25788 -0.956171 
0.073314 -0.0572277 -0.995666 -0.00355732 0.0312098 -0.999507 0.0667717 0.0452696 -0.996741 
-0.0240723 0.0337104 -0.999142 -0.178902 0.0152651 -0.983748 -0.386965 -0.0671573 -0.919645 
-0.666475 -0.141111 -0.732051 -0.664928 -0.14833 -0.732031 -0.661727 -0.140697 -0.736425 
0.709147 -0.242387 -0.662087 0.671482 -0.362174 -0.646484 0.62935 -0.240581 -0.738944 
0.32717 -0.232035 -0.916035 -0.156802 -0.0222667 -0.987379 -0.0818009 0.0307242 -0.996175 
-0.0292761 0.0453977 -0.99854 0.0684521 -0.139792 -0.987812 0.151334 -0.0250186 -0.988166 
0.0748292 0.0271427 -0.996827 -0.0405618 -0.0473797 -0.998053 -0.260235 -0.0994043 -0.960415 
-0.618644 -0.264072 -0.739963 -0.49106 -0.194071 -0.849233 0.644666 -0.407405 -0.64686 
0.48096 -0.558806 -0.675584 0.409561 -0.360496 -0.838035 0.185787 -0.294363 -0.937461 
0.00664408 -0.228777 -0.973456 -0.0533229 -0.19112 -0.980117 -0.0788733 -0.0954416 -0.992305 
-0.0639411 -0.0101669 -0.997902 -0.0582808 -0.000691743 -0.9983 0.0312342 0.0166284 -0.999374 
0.158634 -0.0672707 -0.985043 0.0436929 -0.118427 -0.992001 -0.150821 -0.160999 -0.975363 
-0.311715 -0.265191 -0.912419 -0.606131 -0.332191 -0.722671 -0.604126 -0.363417 -0.709197 
-0.580266 -0.314926 -0.751075 0.460811 -0.569985 -0.680272 0.320009 -0.638309 -0.700111 
0.281461 -0.496622 -0.821064 0.172157 -0.663768 -0.727856 0.110516 -0.409824 -0.905445 
0.0137554 -0.339048 -0.940669 0.0278896 -0.264774 -0.963907 0.0145976 -0.149852 -0.988601 
-0.00232501 -0.0796108 -0.996823 0.00058009 -0.0545276 -0.998512 0.0148363 -0.16474 -0.986225 
-0.0233347 -0.28771 -0.957433 -0.21119 -0.313948 -0.925654 -0.535852 -0.483263 -0.692329 
-0.470382 -0.552726 -0.687921 -0.417091 -0.432047 -0.799606 0.165414 -0.661421 -0.731547 
0.159485 -0.652911 -0.740454 0.138749 -0.604151 -0.784697 0.146631 -0.635745 -0.757844 
0.122629 -0.498074 -0.85842 0.118075 -0.681812 -0.721936 0.119406 -0.423778 -0.897861 
0.0503781 -0.686272 -0.725599 0.0429458 -0.378254 -0.924705 -0.0440384 -0.686469 -0.725824 
-0.0527145 -0.342383 -0.938081 -0.081265 -0.640925 -0.76329 -0.0791768 -0.418258 -0.904871 
-0.175686 -0.6632 -0.72753 -0.1188 -0.495818 -0.860262 -0.363665 -0.643531 -0.67351 
-0.334073 -0.653725 -0.678999 -0.316628 -0.625223 -0.713332 -0.0397578 0.0980592 -0.994386 
0.153197 0.205793 -0.96653 0.0781636 0.178852 -0.980766 0.0128911 0.141061 -0.989917 
0.0427065 0.166517 -0.985113 -0.049386 0.0844401 -0.995204 -0.101876 -0.030591 -0.994327 
-0.0421448 0.0870532 -0.995312 0.153742 0.205516 -0.966502 0.269624 0.183109 -0.945396 
0.15267 0.204985 -0.966785 0.0481957 0.125215 -0.990958 -0.114277 -0.0568157 -0.991823 
-0.0421264 0.0254599 -0.998788 0.288685 0.173771 -0.941522 0.260101 0.164363 -0.95149 
0.0787703 0.130842 -0.988269 -0.0742505 0.0631503 -0.995238 -0.123026 -0.0365052 -0.991732 
-0.142074 -0.0220994 -0.989609 0.345872 0.00403198 -0.938273 0.233168 0.00173406 -0.972435 
0.060184 0.00416727 -0.998179 -0.101679 0.00739282 -0.99479 -0.168038 0.0125819 -0.9857 
-0.179266 0.0178512 -0.983639 0.287826 -0.132611 -0.948457 0.267641 -0.148311 -0.952036 
0.258687 -0.125813 -0.957733 0.0834493 -0.0994329 -0.991539 -0.0616255 -0.0420795 -0.997212 
-0.164646 -0.00337616 -0.986347 -0.151623 -0.0110538 -0.988377 0.187503 -0.172315 -0.967031 
0.155762 -0.206582 -0.965951 0.1337 -0.148494 -0.979834 -0.000289055 -0.197488 -0.980305 
-0.0142634 -0.112393 -0.993562 -0.133486 -0.0671507 -0.988773 -0.103715 -0.116022 -0.987817 
-0.12643 -0.0802191 -0.988727 
