# vtk DataFile Version 4.2
vtk output
ASCII
DATASET POLYDATA
POINTS 558 float
-29.6244 -36.6092 -11.7716 -21.8386 -36.6092 -12.0446 -14.0528 -36.6092 -12.5671 
-6.26706 -36.6092 -12.506 1.51871 -36.6092 -13.0057 9.30448 -36.6092 -11.4071 
-45.1959 -28.8234 -12.9318 -37.4101 -28.8234 -14.8861 -29.6244 -28.8234 -15.3324 
-21.8386 -28.8234 -15.6499 -14.0528 -28.8234 -14.5197 -6.26706 -28.8234 -15.1547 
1.51871 -28.8234 -16.135 9.30448 -28.8234 -14.4976 17.0903 -28.8234 -11.7217 
24.876 -28.8234 -11.0839 40.4476 -28.8234 -10.744 -52.9817 -21.0376 -12.7007 
-45.1959 -21.0376 -15.7242 -37.4101 -21.0376 -16.7942 -29.6244 -21.0376 -16.712 
-21.8386 -21.0376 -16.3281 -14.0528 -21.0376 -15.0607 -6.26706 -21.0376 -15.2535 
1.51871 -21.0376 -16.6532 9.30448 -21.0376 -15.8935 17.0903 -21.0376 -14.0693 
24.876 -21.0376 -13.5777 32.6618 -21.0376 -13.2011 40.4476 -21.0376 -12.9217 
48.2333 -21.0376 -10.8291 -60.7675 -13.2519 -11.6741 -52.9817 -13.2519 -15.3648 
-45.1959 -13.2519 -16.5972 -37.4101 -13.2519 -17.3851 -29.6244 -13.2519 -17.5367 
-21.8386 -13.2519 -16.4326 -14.0528 -13.2519 -14.7842 -6.26706 -13.2519 -13.9379 
1.51871 -13.2519 -16.4874 9.30448 -13.2519 -16.7906 17.0903 -13.2519 -15.5161 
24.876 -13.2519 -15.1004 32.6618 -13.2519 -15.1328 40.4476 -13.2519 -14.7469 
48.2333 -13.2519 -13.7716 56.0191 -13.2519 -12.1909 -60.7675 -5.4661 -13.0929 
-52.9817 -5.4661 -16.6657 -45.1959 -5.4661 -17.1837 -37.4101 -5.4661 -17.4975 
-29.6244 -5.4661 -17.0118 -21.8386 -5.4661 -16.2811 -14.0528 -5.4661 -15.681 
-6.26706 -5.4661 -16.3747 1.51871 -5.4661 -16.7768 9.30448 -5.4661 -18.2915 
17.0903 -5.4661 -16.2109 24.876 -5.4661 -15.7579 32.6618 -5.4661 -16.1973 
40.4476 -5.4661 -16.265 48.2333 -5.4661 -15.684 56.0191 -5.4661 -14.0376 
-60.7675 2.31967 -13.6681 -52.9817 2.31967 -17.0755 -45.1959 2.31967 -17.2441 
-37.4101 2.31967 -17.3879 -29.6244 2.31967 -16.8657 -21.8386 2.31967 -16.1443 
-14.0528 2.31967 -16.8937 -6.26706 2.31967 -17.9503 1.51871 2.31967 -16.031 
9.30448 2.31967 -18.3258 17.0903 2.31967 -15.2849 24.876 2.31967 -16.1867 
32.6618 2.31967 -17.0059 40.4476 2.31967 -17.3729 48.2333 2.31967 -16.3034 
56.0191 2.31967 -14.5024 63.8049 2.31967 -12.0522 -60.7675 10.1054 -12.9062 
-52.9817 10.1054 -16.3404 -45.1959 10.1054 -17.0926 -37.4101 10.1054 -17.3083 
-29.6244 10.1054 -17.4212 -21.8386 10.1054 -16.4405 -14.0528 10.1054 -16.621 
-6.26706 10.1054 -17.4278 1.51871 10.1054 -17.1796 9.30448 10.1054 -17.5321 
17.0903 10.1054 -16.4525 24.876 10.1054 -16.7075 32.6618 10.1054 -17.2641 
40.4476 10.1054 -17.6498 48.2333 10.1054 -16.1846 56.0191 10.1054 -14.5559 
63.8049 10.1054 -12.6232 -60.7675 17.8912 -10.7886 -52.9817 17.8912 -14.3389 
-45.1959 17.8912 -15.9681 -37.4101 17.8912 -18.1742 -29.6244 17.8912 -17.4315 
-21.8386 17.8912 -17.2385 -14.0528 17.8912 -17.0473 -6.26706 17.8912 -16.6317 
1.51871 17.8912 -16.3339 9.30448 17.8912 -17.0609 17.0903 17.8912 -17.3357 
24.876 17.8912 -17.1565 32.6618 17.8912 -17.0531 40.4476 17.8912 -16.5599 
48.2333 17.8912 -16.3059 56.0191 17.8912 -13.3923 -52.9817 25.677 -12.7088 
-45.1959 25.677 -15.5368 -37.4101 25.677 -16.0254 -29.6244 25.677 -16.7294 
-21.8386 25.677 -17.1733 -14.0528 25.677 -16.9994 -6.26706 25.677 -17.0875 
1.51871 25.677 -16.9938 9.30448 25.677 -17.2248 17.0903 25.677 -17.3249 
24.876 25.677 -16.7945 32.6618 25.677 -15.878 40.4476 25.677 -14.3183 
48.2333 25.677 -12.1809 -45.1959 33.4628 -11.3468 -37.4101 33.4628 -13.2913 
-29.6244 33.4628 -14.3047 -21.8386 33.4628 -15.268 -14.0528 33.4628 -15.5741 
-6.26706 33.4628 -15.9004 1.51871 33.4628 -15.9939 9.30448 33.4628 -16.0047 
17.0903 33.4628 -15.4964 24.876 33.4628 -14.8323 32.6618 33.4628 -12.1884 
-14.0528 41.2485 -11.2005 -6.26706 41.2485 -12.2632 1.51871 41.2485 -12.3226 
9.30448 41.2485 -11.4319 -29.6244 -37.8849 -10.7292 -21.8386 -38.4571 -10.7292 
-14.0528 -39.3347 -10.7292 -6.26706 -39.1751 -10.7292 1.51871 -39.3365 -10.7292 
9.30448 -37.3645 -10.7292 -45.1959 -32.7269 -10.7292 -45.1959 -36.6092 -7.07081 
-35.6872 -36.6092 -10.7292 -37.4101 -36.2248 -10.7292 -37.4101 -36.6092 -10.4108 
10.686 -36.6092 -10.7292 17.0903 -30.8316 -10.7292 17.0903 -36.6092 -7.09636 
24.876 -29.5028 -10.7292 24.876 -36.6092 -5.64849 32.6618 -36.6092 -5.19178 
40.4476 -28.8464 -10.7292 40.4476 -36.6092 -3.08788 -50.8804 -28.8234 -10.7292 
-52.9817 -26.5751 -10.7292 -52.9817 -28.8234 -9.47379 27.4851 -28.8234 -10.7292 
40.2717 -28.8234 -10.7292 32.6618 -27.0702 -10.7292 32.6618 -28.8234 -9.98101 
40.4929 -28.8234 -10.7292 48.2333 -21.2883 -10.7292 48.2333 -28.8234 -7.54981 
-56.4487 -21.0376 -10.7292 -60.7675 -15.6852 -10.7292 -60.7675 -21.0376 -6.77493 
48.5562 -21.0376 -10.7292 56.0191 -16.5467 -10.7292 56.0191 -21.0376 -8.17746 
-61.9226 -13.2519 -10.7292 58.476 -13.2519 -10.7292 63.8049 -13.2519 -6.13168 
-63.8218 -5.4661 -10.7292 63.7924 -5.4661 -10.7292 63.8049 -5.42023 -10.7292 
63.8049 -5.4661 -10.7223 -64.6537 2.31967 -10.7292 -68.5532 2.31967 -4.39864 
64.8731 2.31967 -10.7292 -63.538 10.1054 -10.7292 64.9766 10.1054 -10.7292 
63.8049 12.3079 -10.7292 -60.8429 17.8912 -10.7292 -60.7675 18.0418 -10.7292 
60.1928 17.8912 -10.7292 56.0191 22.5491 -10.7292 63.8049 17.8912 -7.15524 
-56.0853 25.677 -10.7292 -60.7675 25.677 -3.93446 -52.9817 28.7392 -10.7292 
40.4476 31.5224 -10.7292 51.3123 25.677 -10.7292 48.2333 27.4916 -10.7292 
56.0191 25.677 -6.81348 -46.378 33.4628 -10.7292 -52.9817 33.4628 -3.10618 
-45.1959 34.1063 -10.7292 -37.4101 36.0267 -10.7292 -29.6244 38.5865 -10.7292 
-21.8386 39.6944 -10.7292 17.0903 40.424 -10.7292 24.876 38.8511 -10.7292 
36.6739 33.4628 -10.7292 32.6618 35.3048 -10.7292 40.4476 33.4628 -8.06176 
-29.6244 41.2485 -5.05107 -16.1891 41.2485 -10.7292 -21.8386 41.2485 -8.21213 
-14.0528 41.7179 -10.7292 -6.26706 42.8993 -10.7292 1.51871 42.9418 -10.7292 
13.2938 41.2485 -10.7292 9.30448 41.9288 -10.7292 17.0903 41.2485 -9.33926 
24.876 41.2485 -5.53907 -45.1959 -38.8888 -2.94344 -37.4101 -41.9832 -2.94344 
-29.6244 -43.7612 -2.94344 -21.8386 -43.9192 -2.94344 -14.0528 -43.9797 -2.94344 
-6.26706 -44.3019 -2.94344 1.51871 -44.0427 -2.94344 9.30448 -41.7723 -2.94344 
17.0903 -39.7759 -2.94344 24.876 -38.7449 -2.94344 32.6618 -38.5318 -2.94344 
40.4476 -36.7539 -2.94344 -49.0807 -36.6092 -2.94344 -52.9817 -33.7324 -2.94344 
40.7357 -36.6092 -2.94344 48.2333 -33.4777 -2.94344 -57.769 -28.8234 -2.94344 
-60.7675 -24.7523 -2.94344 54.6898 -28.8234 -2.94344 56.0191 -27.5851 -2.94344 
56.0191 -28.8234 0.578434 -62.9729 -21.0376 -2.94344 62.2319 -21.0376 -2.94344 
63.8049 -18.5461 -2.94344 -66.8143 -13.2519 -2.94344 66.4816 -13.2519 -2.94344 
-68.4104 -5.4661 -2.94344 -68.5532 -4.25031 -2.94344 70.4933 -5.4661 -2.94344 
-69.3217 2.31967 -2.94344 -68.5532 7.2377 -2.94344 -68.5532 2.31967 0.583001 
70.8127 2.31967 -2.94344 -68.1051 10.1054 -2.94344 70.3224 10.1054 -2.94344 
-65.8746 17.8912 -2.94344 66.9282 17.8912 -2.94344 63.8049 21.5706 -2.94344 
-61.2565 25.677 -2.94344 -60.7675 26.2807 -2.94344 -60.7675 25.677 -0.311667 
48.2333 32.3294 -2.94344 58.8868 25.677 -2.94344 56.0191 27.9453 -2.94344 
-53.0784 33.4628 -2.94344 -52.9817 33.5332 -2.94344 -52.9817 33.4628 -2.64644 
-45.1959 37.297 -2.94344 -37.4101 39.7533 -2.94344 32.6618 39.6922 -2.94344 
45.8131 33.4628 -2.94344 40.4476 35.9131 -2.94344 -31.8398 41.2485 -2.94344 
-29.6244 41.9208 -2.94344 -29.6244 41.2485 0.634543 -21.8386 43.4037 -2.94344 
-14.0528 45.1893 -2.94344 -6.26706 46.2948 -2.94344 1.51871 46.4856 -2.94344 
9.30448 45.1521 -2.94344 17.0903 43.756 -2.94344 27.7519 41.2485 -2.94344 
24.876 42.1224 -2.94344 24.876 41.2485 3.78678 -45.1959 -38.2594 4.84233 
-37.4101 -41.1545 4.84233 -29.6244 -43.3822 4.84233 -21.8386 -43.5946 4.84233 
-14.0528 -43.6473 4.84233 -6.26706 -44.092 4.84233 1.51871 -43.6303 4.84233 
9.30448 -42.6006 4.84233 17.0903 -41.5956 4.84233 24.876 -41.2077 4.84233 
32.6618 -41.4525 4.84233 40.4476 -39.2765 4.84233 -47.8387 -36.6092 4.84233 
-52.9817 -32.5563 4.84233 -45.1959 -36.6092 7.26133 -37.4101 -36.6092 10.1545 
-29.6244 -36.6092 12.2247 -14.0528 -36.6092 12.4763 32.6618 -36.6092 12.5698 
47.1525 -36.6092 4.84233 48.2333 -36.0951 4.84233 56.0191 -30.2676 4.84233 
-56.5045 -28.8234 4.84233 -60.7675 -22.2993 4.84233 -52.9817 -28.8234 8.36646 
-45.1959 -28.8234 11.7832 57.2952 -28.8234 4.84233 56.0191 -28.8234 6.73375 
-61.4625 -21.0376 4.84233 -60.7675 -21.0376 5.63498 -52.9817 -21.0376 10.7292 
63.6502 -21.0376 4.84233 63.8049 -20.7495 4.84233 -65.2552 -13.2519 4.84233 
-60.7675 -13.2519 9.73054 -52.9817 -13.2519 12.487 66.8758 -13.2519 4.84233 
63.8049 -13.2519 8.8772 -65.9578 -5.4661 4.84233 -60.7675 -5.4661 10.0742 
69.4288 -5.4661 4.84233 63.8049 -5.4661 12.0535 -67.0543 2.31967 4.84233 
-60.7675 2.31967 10.8052 69.9619 2.31967 4.84233 63.8049 2.31967 12.1999 
-65.3663 10.1054 4.84233 -60.7675 10.1054 9.39251 69.2569 10.1054 4.84233 
63.8049 10.1054 10.5697 -63.7386 17.8912 4.84233 -60.7675 23.778 4.84233 
-60.7675 17.8912 7.84625 -52.9817 17.8912 11.2658 65.6376 17.8912 4.84233 
63.8049 20.0491 4.84233 63.8049 17.8912 6.83191 -59.4517 25.677 4.84233 
-52.9817 31.2708 4.84233 -52.9817 25.677 9.68562 -45.1959 25.677 11.7668 
40.4476 25.677 11.8679 48.2333 30.7946 4.84233 48.2333 25.677 9.70935 
56.7013 25.677 4.84233 56.0191 26.2194 4.84233 56.0191 25.677 5.44081 
-49.1893 33.4628 4.84233 -45.1959 35.3905 4.84233 -45.1959 33.4628 7.29262 
-37.4101 37.6999 4.84233 -37.4101 33.4628 9.45446 -29.6244 40.2722 4.84233 
-29.6244 33.4628 11.9306 24.876 41.0899 4.84233 32.6618 37.9486 4.84233 
32.6618 33.4628 9.53522 41.5425 33.4628 4.84233 40.4476 33.9292 4.84233 
40.4476 33.4628 5.55817 -26.0198 41.2485 4.84233 -21.8386 42.2056 4.84233 
-21.8386 41.2485 6.34709 -14.0528 44.2755 4.84233 -14.0528 41.2485 9.5703 
-6.26706 45.3121 4.84233 -6.26706 41.2485 10.8086 1.51871 45.307 4.84233 
1.51871 41.2485 10.5756 9.30448 43.9029 4.84233 9.30448 41.2485 8.82089 
24.1362 41.2485 4.84233 17.0903 42.587 4.84233 17.0903 41.2485 6.99492 
-21.8386 -37.137 12.6281 -6.26706 -37.1521 12.6281 1.51871 -37.775 12.6281 
[...]
POINT_DATA 558
SCALARS ImageScalars float
LOOKUP_TABLE default
0 0 0 0 0 0 0 0 0 
0 0 0 0 0 0 0 0 0 
0 0 0 0 0 0 0 0 0 
0 0 0 0 0 0 0 0 0 
0 0 0 0 0 0 0 0 0 
0 0 0 0 0 0 0 0 0 
0 0 0 0 0 0 0 0 0 
0 0 0 0 0 0 0 0 0 
0 0 0 0 0 0 0 0 0 
0 0 0 0 0 0 0 0 0 
0 0 0 0 0 0 0 0 0 
0 0 0 0 0 0 0 0 0 
0 0 0 0 0 0 0 0 0 
0 0 0 0 0 0 0 0 0 
0 0 0 0 0 0 0 0 0 
0 0 0 0 0 0 0 0 0 
0 0 0 0 0 0 0 0 0 
0 0 0 0 0 0 0 0 0 
0 0 0 0 0 0 0 0 0 
0 0 0 0 0 0 0 0 0 
0 0 0 0 0 0 0 0 0 
0 0 0 0 0 0 0 0 0 
0 0 0 0 0 0 0 0 0 
0 0 0 0 0 0 0 0 0 
0 0 0 0 0 0 0 0 0 
0 0 0 0 0 0 0 0 0 
0 0 0 0 0 0 0 0 0 
0 0 0 0 0 0 0 0 0 
0 0 0 0 0 0 0 0 0 
0 0 0 0 0 0 0 0 0 
0 0 0 0 0 0 0 0 0 
0 0 0 0 0 0 0 0 0 
0 0 0 0 0 0 0 0 0 
0 0 0 0 0 0 0 0 0 
0 0 0 0 0 0 0 0 0 
0 0 0 0 0 0 0 0 0 
0 0 0 0 0 0 0 0 0 
0 0 0 0 0 0 0 0 0 
0 0 0 0 0 0 0 0 0 
0 0 0 0 0 0 0 0 0 
0 0 0 0 0 0 0 0 0 
0 0 0 0 0 0 0 0 0 
0 0 0 0 0 0 0 0 0 
0 0 0 0 0 0 0 0 0 
0 0 0 0 0 0 0 0 0 
0 0 0 0 0 0 0 0 0 
0 0 0 0 0 0 0 0 0 
0 0 0 0 0 0 0 0 0 
0 0 0 0 0 0 0 0 0 
0 0 0 0 0 0 0 0 0 
0 0 0 0 0 0 0 0 0 
0 0 0 0 0 0 0 0 0 
0 0 0 0 0 0 0 0 0 
0 0 0 0 0 0 0 0 0 
0 0 0 0 0 0 0 0 0 
0 0 0 0 0 0 0 0 0 
0 0 0 0 0 0 0 0 0 
0 0 0 0 0 0 0 0 0 
0 0 0 0 0 0 0 0 0 
0 0 0 0 0 0 0 0 0 
0 0 0 0 0 0 0 0 0 
0 0 0 0 0 0 0 0 0 

NORMALS Normals float
-0.0898841 -0.569879 -0.816798 -0.0471977 -0.534678 -0.843737 -0.0279236 -0.447268 -0.893964 
-0.0242611 -0.468656 -0.883047 0.0596954 -0.560779 -0.825811 0.316714 -0.603073 -0.732117 
-0.314919 -0.444941 -0.838364 -0.126327 -0.337603 -0.932773 -0.0491444 -0.263663 -0.963362 
0.0521129 -0.248042 -0.967346 0.026686 -0.157456 -0.987165 -0.104752 -0.155863 -0.982209 
0.0358432 -0.19875 -0.979395 0.275786 -0.254469 -0.926924 0.207432 -0.365504 -0.907402 
0.0989558 -0.408417 -0.907416 0.13167 -0.478591 -0.86811 -0.415599 -0.307583 -0.855961 
-0.220259 -0.194171 -0.95592 -0.0679438 -0.16641 -0.983713 0.0287838 -0.135697 -0.990332 
0.107338 -0.0473141 -0.993096 0.0664161 -0.0165702 -0.997654 -0.102289 0.0803475 -0.991505 
-0.0396663 -0.0236167 -0.998934 0.163753 -0.142411 -0.976168 0.13966 -0.226336 -0.963985 
0.0538445 -0.256065 -0.965159 0.0390179 -0.294338 -0.954905 0.144621 -0.274737 -0.950581 
0.262526 -0.355431 -0.897078 -0.554468 -0.255376 -0.792054 -0.332376 -0.228443 -0.915063 
-0.118001 -0.0975566 -0.98821 -0.0582256 -0.0435149 -0.997355 0.0610075 -0.0181989 -0.997971 
0.174017 0.00324044 -0.984737 0.159657 -0.0358644 -0.986521 -0.10626 -0.0524072 -0.992956 
-0.185827 -0.00732992 -0.982555 0.0616781 -0.15079 -0.98664 0.108244 -0.13396 -0.985057 
0.023789 -0.136516 -0.990352 0.0211973 -0.18251 -0.982976 0.0825541 -0.200732 -0.976162 
0.170463 -0.301884 -0.937981 0.367465 -0.301014 -0.879977 -0.506954 -0.124523 -0.852931 
-0.275433 -0.0895584 -0.95714 -0.0490751 -0.040993 -0.997954 0.0115482 -0.000173636 -0.999933 
0.0777009 0.042791 -0.996058 0.0826692 0.0184632 -0.996406 0.00144845 -0.136294 -0.990667 
-0.0712648 -0.262556 -0.962282 -0.12462 0.0241277 -0.991911 0.036791 -0.0961247 -0.994689 
0.167873 0.0162123 -0.985675 -0.000121131 -0.0698688 -0.997556 -0.0324113 -0.122205 -0.991975 
0.0334859 -0.164705 -0.985774 0.133399 -0.150834 -0.979517 0.251841 -0.159241 -0.954578 
-0.489369 0.0132235 -0.871977 -0.250541 0.017307 -0.967951 -0.0187703 0.00577145 -0.999807 
0.0245091 0.0121398 -0.999626 0.0796203 -0.0234748 -0.996549 0.00258743 -0.0102625 -0.999944 
-0.114939 -0.0599353 -0.991563 0.0472066 -0.0561054 -0.997308 -0.0223441 -0.0286599 -0.999339 
0.0747048 0.0503452 -0.995934 0.110848 -0.0146417 -0.99373 -0.109512 -0.0605227 -0.992141 
-0.0755716 -0.0679017 -0.994826 0.0446673 -0.0877312 -0.995142 0.172435 -0.0322149 -0.984494 
0.224579 -0.0321748 -0.973925 0.585057 -0.0780712 -0.807225 -0.50723 0.17684 -0.843472 
-0.316646 0.161327 -0.934724 -0.0559369 0.08163 -0.995092 -0.0200597 -0.0473861 -0.998675 
0.0578306 -0.0376934 -0.997615 0.0478124 -0.0717552 -0.996276 -0.063325 -0.0117276 -0.997924 
-0.0362067 0.0816556 -0.996003 -0.00635508 -0.00890358 -0.99994 0.0453065 0.0750501 -0.99615 
0.0506893 -0.133673 -0.989728 -0.0511715 -0.0620558 -0.99676 -0.0598202 -0.00298987 -0.998205 
0.0685266 0.0500046 -0.996395 0.180308 0.00125172 -0.983609 0.180342 0.0796416 -0.980374 
0.595411 0.220986 -0.772432 -0.561658 0.333295 -0.757268 -0.344251 0.225107 -0.911492 
-0.216728 0.0901724 -0.972058 -0.0938655 0.0785697 -0.99248 0.0574776 0.047055 -0.997237 
0.0245959 -0.0471009 -0.998587 0.0389115 -0.023572 -0.998965 0.0459429 0.0207127 -0.998729 
-0.0275833 0.00943311 -0.999575 -0.0653687 0.018751 -0.997685 -0.00613433 -0.0530113 -0.998575 
0.0181362 -0.00627376 -0.999816 0.0364826 0.0815449 -0.996002 0.0458948 0.211895 -0.976214 
0.205947 0.209166 -0.955947 0.381401 0.32292 -0.866173 -0.423566 0.362428 -0.830203 
-0.212079 0.265545 -0.940483 -0.073468 0.262801 -0.962049 -0.0680749 0.183736 -0.980616 
-0.0195043 0.113536 -0.993342 0.00518599 0.0914837 -0.995793 0.000346285 0.0430426 -0.999073 
-0.00880108 0.0189786 -0.999781 -0.0215951 0.0678448 -0.997462 0.0260006 0.107686 -0.993845 
0.0908976 0.138338 -0.986205 0.158009 0.281415 -0.946487 0.204739 0.380365 -0.901889 
0.341403 0.557016 -0.757085 -0.325079 0.652917 -0.684122 -0.181229 0.554379 -0.812293 
-0.106539 0.467482 -0.877559 -0.0796569 0.388389 -0.918046 -0.0373795 0.317017 -0.947683 
-0.0265285 0.279064 -0.959906 -0.00648697 0.263449 -0.964651 0.0300297 0.311497 -0.949772 
0.0722667 0.393387 -0.916529 0.197554 0.446776 -0.872562 0.308736 0.561709 -0.767571 
-0.152394 0.716742 -0.680483 -0.062261 0.645173 -0.761496 0.0456424 0.646148 -0.761846 
0.122123 0.73564 -0.666273 -0.104745 -0.621774 -0.776161 -0.0620986 -0.611635 -0.788699 
-0.0319967 -0.610547 -0.791333 -0.000460545 -0.613111 -0.789997 0.093199 -0.701664 -0.706387 
0.318981 -0.642494 -0.696745 -0.342312 -0.559208 -0.755056 -0.42763 -0.765181 -0.481281 
-0.151514 -0.634507 -0.757921 -0.165001 -0.63447 -0.75513 -0.170851 -0.658943 -0.732533 
0.311913 -0.61435 -0.724765 0.223287 -0.433724 -0.872941 0.223998 -0.714584 -0.662717 
0.102092 -0.429909 -0.897082 0.0916377 -0.752356 -0.652352 0.1257 -0.73426 -0.667129 
0.131574 -0.479477 -0.867635 0.315432 -0.750002 -0.581377 -0.443042 -0.475816 -0.759811 
-0.481413 -0.423831 -0.767208 -0.527149 -0.523702 -0.669216 0.0753711 -0.422354 -0.903292 
0.129434 -0.478234 -0.868642 0.0285311 -0.417993 -0.908002 0.0324803 -0.460373 -0.887131 
0.133691 -0.478307 -0.867957 0.270231 -0.356726 -0.894272 0.452532 -0.487197 -0.746896 
-0.565346 -0.365875 -0.739269 -0.602653 -0.337258 -0.723233 -0.784992 -0.496431 -0.370598 
0.270886 -0.364657 -0.890868 0.405316 -0.415703 -0.814193 0.477429 -0.549041 -0.686014 
-0.595154 -0.287178 -0.750547 0.441474 -0.358744 -0.822438 0.696478 -0.451869 -0.557434 
-0.639931 -0.147736 -0.754097 0.629795 -0.287153 -0.721735 0.630277 -0.286164 -0.721707 
0.630435 -0.287452 -0.721058 -0.680325 0.018114 -0.732687 -0.969077 0.0220345 -0.245773 
0.652952 -0.0651428 -0.754592 -0.636929 0.195611 -0.745693 0.711116 0.227225 -0.665345 
0.669541 0.332411 -0.664242 -0.564119 0.334182 -0.755044 -0.563933 0.339329 -0.752885 
0.547186 0.420527 -0.723702 0.472577 0.482724 -0.737325 0.713611 0.539764 -0.446559 
-0.526877 0.472309 -0.706629 -0.774456 0.606001 -0.181608 -0.50293 0.542353 -0.672989 
0.322279 0.652011 -0.686307 0.410074 0.573347 -0.709304 0.354407 0.61064 -0.708176 
0.557142 0.717929 -0.417338 -0.369454 0.677327 -0.636185 -0.549564 0.829931 -0.0958792 
-0.336466 0.686199 -0.64492 -0.228953 0.710489 -0.665422 -0.17744 0.737084 -0.652091 
-0.139401 0.752712 -0.643422 0.146467 0.760421 -0.632698 0.232719 0.747626 -0.62201 
0.339475 0.654201 -0.675853 0.335854 0.640518 -0.690607 0.388486 0.808167 -0.442657 
-0.23279 0.952577 -0.195973 -0.155923 0.749371 -0.64353 -0.173206 0.885044 -0.432083 
-0.160067 0.737106 -0.656547 -0.0689119 0.728235 -0.681854 0.0561761 0.728031 -0.683238 
0.138319 0.770513 -0.622236 0.128754 0.766257 -0.629502 0.162262 0.839049 -0.519296 
0.250235 0.936287 -0.246473 -0.461511 -0.863104 -0.205086 -0.278979 -0.935532 -0.216682 
-0.126873 -0.966483 -0.223191 -0.0130972 -0.976563 -0.214834 -0.0243649 -0.982899 -0.182528 
-0.00507433 -0.982402 -0.186708 0.138425 -0.971467 -0.192588 0.269762 -0.921505 -0.279388 
0.175354 -0.873737 -0.45369 0.0784884 -0.843229 -0.531793 0.0971218 -0.835741 -0.540466 
0.319941 -0.754097 -0.573563 -0.54974 -0.811246 -0.199162 -0.637833 -0.74463 -0.196709 
0.325372 -0.756694 -0.567051 0.422304 -0.805159 -0.416387 -0.744217 -0.642637 -0.182094 
-0.814101 -0.556945 -0.164477 0.585829 -0.64919 -0.485136 0.612747 -0.633571 -0.472365 
0.704545 -0.67731 -0.211822 -0.856653 -0.492153 -0.154697 0.726178 -0.543298 -0.421299 
0.759503 -0.512006 -0.401254 -0.934266 -0.319389 -0.158546 0.824086 -0.457685 -0.333777 
-0.9779 -0.152659 -0.142855 -0.98083 -0.127654 -0.147229 0.909299 -0.271502 -0.315376 
-0.989589 0.0209861 -0.142384 -0.979737 0.13394 -0.148916 -0.985765 0.0251644 0.166235 
0.96423 0.0107297 -0.264848 -0.971182 0.195912 -0.135736 0.942657 0.243369 -0.228406 
-0.895922 0.423357 -0.134512 0.840092 0.507163 -0.192434 0.700162 0.683662 -0.205862 
-0.791365 0.599238 -0.121056 -0.777199 0.616063 -0.128175 -0.787352 0.611523 0.0782035 
0.441562 0.888945 -0.121657 0.585701 0.797716 -0.143537 0.564659 0.816865 -0.11786 
-0.55042 0.830229 -0.0880748 -0.548138 0.831772 -0.0877475 -0.549934 0.832479 -0.0674635 
-0.392719 0.917504 -0.062914 -0.266422 0.961751 -0.0636791 0.361548 0.926772 -0.10187 
0.426795 0.898453 -0.103093 0.421385 0.902322 -0.0908271 -0.244698 0.9677 -0.0606559 
-0.239562 0.968911 -0.0618155 -0.252427 0.956525 0.146083 -0.204986 0.972708 -0.108717 
-0.183015 0.975084 -0.125369 -0.0821252 0.989863 -0.115874 0.0733442 0.991184 -0.110344 
0.171928 0.980428 -0.0959214 0.188112 0.977052 -0.0999155 0.291321 0.951713 -0.0968191 
0.254362 0.96218 -0.0975181 0.250557 0.919547 0.302743 -0.456761 -0.818915 0.347487 
-0.294776 -0.886403 0.356926 -0.143784 -0.938478 0.313982 -0.0148356 -0.95517 0.295686 
-0.0279544 -0.947804 0.317625 0.0023042 -0.954215 0.299113 0.0899155 -0.956518 0.277468 
0.129812 -0.9727 0.192361 0.0899124 -0.989861 0.109958 0.00931672 -0.999287 0.0365895 
0.119156 -0.992568 0.0246965 0.32395 -0.945937 0.0161112 -0.521001 -0.775202 0.357239 
-0.638758 -0.652532 0.407664 -0.446655 -0.736476 0.508038 -0.225594 -0.669645 0.70759 
-0.153263 -0.575421 0.803369 -4.02452e-05 -0.512776 0.858522 -0.00100564 -0.618098 0.7861 
0.450826 -0.892267 0.0248104 0.475436 -0.878421 0.0483436 0.723877 -0.676291 0.136504 
-0.709732 -0.565511 0.420093 -0.741679 -0.488562 0.459587 -0.574767 -0.482688 0.660799 
-0.379761 -0.375477 0.845458 0.749883 -0.644033 0.151317 0.711145 -0.632734 0.306465 
-0.753858 -0.471129 0.457969 -0.721068 -0.470412 0.508697 -0.505566 -0.232791 0.83079 
0.827922 -0.519309 0.211811 0.831281 -0.512251 0.215802 -0.840425 -0.240134 0.485821 
-0.668361 -0.234527 0.705897 -0.295351 -0.135687 0.945705 0.88819 -0.343499 0.305166 
0.763017 -0.313183 0.565439 -0.810583 -0.0936692 0.578084 -0.573272 -0.0514806 0.817746 
0.881219 -0.196332 0.430008 0.573663 -0.145761 0.806018 -0.820667 0.0272676 0.570755 
-0.541504 0.0305641 0.840143 0.867971 0.0168175 0.49633 0.553824 0.0834775 0.828439 
-0.787855 0.173624 0.590879 -0.650011 0.169263 0.740834 0.87016 0.250802 0.42417 
0.596147 0.284124 0.750921 -0.816654 0.315986 0.482937 -0.713424 0.497005 0.493975 
-0.61504 0.319669 0.72079 -0.398668 0.175735 0.900101 0.707974 0.560924 0.429111 
0.628675 0.650521 0.426133 0.616 0.540701 0.572876 -0.677847 0.555675 0.481404 
-0.51289 0.710864 0.481265 -0.43863 0.42554 0.79153 -0.277674 0.377777 0.883279 
0.230132 0.404309 0.885197 0.380034 0.811317 0.444228 0.312619 0.575524 0.755673 
0.586684 0.682074 0.43655 0.57803 0.682336 0.447547 0.564618 0.677446 0.471459 
-0.433817 0.774292 0.460733 -0.349755 0.814747 0.46245 -0.338827 0.728652 0.595199 
-0.27102 0.838759 0.472262 -0.22433 0.641618 0.733486 -0.257074 0.871548 0.417513 
-0.222186 0.538032 0.813114 0.248099 0.896922 0.36603 0.385829 0.816038 0.43037 
0.343123 0.61534 0.709664 0.385176 0.83179 0.399705 0.389507 0.830971 0.397204 
0.383302 0.812383 0.439447 -0.242113 0.891368 0.383202 -0.231047 0.902721 0.362921 
-0.232158 0.870594 0.433784 -0.194154 0.920905 0.33799 -0.183026 0.768041 0.613689 
-0.064779 0.935228 0.34807 -0.039988 0.706792 0.70629 0.0887697 0.924261 0.371296 
0.0837827 0.696779 0.712376 0.165633 0.914914 0.3681 0.145229 0.797813 0.585152 
0.239267 0.900329 0.363536 0.171093 0.917827 0.35822 0.167288 0.865386 0.472358 
-0.0100199 -0.527233 0.849662 -0.0588733 -0.516399 0.854322 -0.0159671 -0.579177 0.815045 
0.0132713 -0.619165 0.785149 0.0170154 -0.645103 0.763906 0.0441217 -0.635668 0.770701 
0.221127 -0.703647 0.675266 -0.215404 -0.490566 0.844362 -0.083357 -0.534927 0.840776 
-0.140125 -0.535991 0.832514 -0.00291202 -0.506748 0.862089 -0.00838399 -0.502459 0.86456 
-0.0161078 -0.504552 0.863231 0.000197555 -0.496601 0.867979 -0.0591778 -0.493759 0.867583 
-0.0259142 -0.526747 0.849627 0.00411117 -0.570161 0.821523 0.0238796 -0.583548 0.811727 
0.0022112 -0.61345 0.78973 0.0453341 -0.595587 0.802011 0.014312 -0.62062 0.783981 
-0.00132877 -0.609618 0.792694 0.259009 -0.678713 0.687214 0.222528 -0.668661 0.709489 
0.435123 -0.406533 0.803367 -0.340863 -0.351538 0.871914 -0.368306 -0.322063 0.872139 
-0.219966 -0.300871 0.92795 -0.0434235 -0.263373 0.963716 0.0261268 -0.256298 0.966245 
-0.00448847 -0.248339 0.968663 -0.0636273 -0.185905 0.980505 -0.0298309 -0.221174 0.974778 
0.0487579 -0.178889 0.98266 0.000692605 -0.166618 0.986021 -0.0166161 -0.220169 0.97532 
0.0661611 -0.218314 0.973633 0.152046 -0.19314 0.969319 0.435733 -0.403561 0.804534 
0.430717 -0.400432 0.808787 0.477831 -0.314893 0.820073 -0.43529 -0.195869 0.878725 
-0.350621 -0.179334 0.919187 -0.110938 -0.116241 0.987006 -0.0628387 -0.0901266 0.993946 
0.0309447 -0.119295 0.992377 0.0682303 -0.114327 0.991097 -0.0361343 -0.0831193 0.995884 
-0.0272704 -0.139712 0.989817 0.0753819 -0.0177203 0.996997 -0.023678 0.0133742 0.99963 
-0.0390953 -0.0184108 0.999066 0.0467322 -0.0627695 0.996933 0.0706282 -0.153239 0.985662 
0.206374 -0.212463 0.955128 0.528873 -0.271146 0.804222 0.425915 -0.236559 0.873291 
-0.290468 -0.127243 0.948387 -0.291149 -0.118776 0.949276 -0.249187 0.00931247 0.968411 
-0.160286 -0.000897924 0.98707 -0.0544161 0.0376433 0.997809 0.00855951 0.0239017 0.999678 
0.0302664 -0.125795 0.991594 -0.0889639 -0.164693 0.982325 0.0395436 -0.0436165 0.998265 
0.205335 -0.124731 0.970711 0.00714223 -0.0235077 0.999698 -0.0998577 0.0201241 0.994798 
-0.0759949 -0.0289272 0.996688 0.0597967 -0.0982611 0.993363 0.231643 -0.0391143 0.972014 
0.458687 -0.0879962 0.88423 0.419458 -0.0646704 0.905468 -0.345098 -0.0643075 0.936361 
-0.289417 -0.0585374 0.955412 -0.183871 -0.0157208 0.982825 -0.0919798 0.0564939 0.994157 
-0.0381726 0.0508455 0.997977 -0.128079 0.0816056 0.988401 -0.123904 -0.0918064 0.988038 
0.0550818 -0.0601628 0.996668 -0.00640035 0.14637 0.989209 0.0780506 -0.218034 0.972815 
0.131674 -0.115135 0.984584 -0.0345717 -0.0212073 0.999177 -0.0682587 -0.0105523 0.997612 
0.0531799 0.00355871 0.998579 0.175106 0.00244024 0.984547 0.513285 -0.13883 0.846915 
0.278113 -0.0860294 0.956688 -0.353027 0.026908 0.935226 -0.258363 0.0247681 0.96573 
-0.14661 0.0124426 0.989116 -0.0898616 -0.0156223 0.995832 -0.0321082 -0.00816803 0.999451 
-0.124029 -0.0334384 0.991715 -0.120545 0.0409073 0.991865 0.135162 0.0503812 0.989542 
-0.11314 -0.0948309 0.989043 -0.0199596 0.0634339 0.997786 0.181415 0.0532073 0.981966 
-0.00702998 0.0454323 0.998943 -0.0522394 0.050038 0.99738 0.0602181 0.0719395 0.995589 
0.173234 0.0373703 0.984172 0.511027 0.088367 0.85501 0.279952 0.0816945 0.956532 
-0.315524 0.140762 0.938419 -0.305706 0.138751 0.941962 -0.293222 0.135559 0.946385 
-0.220939 0.0394768 0.974488 -0.118585 -0.00598916 0.992926 -0.0505522 -0.00755229 0.998693 
-0.0879937 -0.078991 0.992984 -0.0374614 0.0479733 0.998146 -0.0553912 0.066752 0.996231 
-0.00968164 -0.00163771 0.999952 0.206361 0.144887 0.967689 0.124237 0.0244399 0.991952 
-0.0276669 0.0566282 0.998012 -0.041682 0.106441 0.993445 0.0415164 0.189902 0.980925 
0.176197 0.148037 0.97316 0.388169 0.156983 0.90812 0.311111 0.106605 0.944376 
-0.342528 0.177314 0.922624 -0.277825 0.313297 0.908107 -0.265812 0.175707 0.947877 
-0.148408 0.145998 0.97809 -0.104571 0.0761094 0.991601 -0.0755899 0.0476286 0.996001 
0.035348 0.0704888 0.996886 0.060408 0.0656313 0.996014 -0.0178721 0.145034 0.989265 
0.0170285 0.0742529 0.997094 0.0941992 -0.0539761 0.994089 0.067458 0.041292 0.996867 
0.0799308 0.180119 0.980392 0.20235 0.345442 0.916365 0.128369 0.261169 0.956719 
0.131298 0.406214 0.904296 0.102783 0.376904 0.920532 0.375222 0.376606 0.846981 
0.363264 0.39846 0.842181 0.361237 0.369803 0.85601 -0.261201 0.360142 0.895585 
-0.218888 0.449353 0.866123 -0.212428 0.331689 0.919161 -0.202763 0.484105 0.851193 
-0.143023 0.280546 0.949125 -0.0938565 0.233607 0.967791 -0.021382 0.176656 0.98404 
0.025595 0.102304 0.994424 0.00838432 0.116456 0.99316 -0.00919556 0.139618 0.990163 
0.101587 0.145032 0.984198 0.2057 0.154537 0.966336 0.219782 0.354008 0.909051 
0.232513 0.377084 0.896519 0.20576 0.325093 0.923026 -0.202327 0.502638 0.840487 
-0.190242 0.525962 0.828958 -0.175599 0.463758 0.868385 -0.143354 0.553921 0.820135 
-0.0967425 0.377709 0.920857 -0.0235981 0.549518 0.835149 -0.00390439 0.328235 0.944588 
0.0539208 0.524141 0.849923 0.0139444 0.325219 0.945536 0.0891626 0.55962 0.823939 
0.0454207 0.388418 0.920363 0.133881 0.552214 0.822883 0.116679 0.451015 0.884857 
0.255573 0.489949 0.833446 0.246323 0.50941 0.824516 0.240707 0.471998 0.848103 

