# vtk DataFile Version 4.2
vtk output
ASCII
DATASET POLYDATA
POINTS 502 float
-17.5789 -37.8685 -15.4138 -9.30286 -37.8685 -17.3268 -1.02686 -37.8685 -18.99 
7.24914 -37.8685 -19.9168 15.5251 -37.8685 -20.0596 23.8011 -37.8685 -18.9638 
32.0771 -37.8685 -16.8118 -34.1309 -29.5925 -15.0637 -25.8549 -29.5925 -18.4525 
-17.5789 -29.5925 -19.7683 -9.30286 -29.5925 -21.169 -1.02686 -29.5925 -21.2262 
7.24914 -29.5925 -21.2789 15.5251 -29.5925 -21.5407 23.8011 -29.5925 -20.9093 
32.0771 -29.5925 -20.1881 40.3531 -29.5925 -16.957 -42.4069 -21.3165 -14.9997 
-34.1309 -21.3165 -17.8772 -25.8549 -21.3165 -19.1992 -17.5789 -21.3165 -20.4123 
-9.30286 -21.3165 -21.6466 -1.02686 -21.3165 -21.9381 7.24914 -21.3165 -21.3307 
15.5251 -21.3165 -21.7226 23.8011 -21.3165 -22.2532 32.0771 -21.3165 -21.4692 
40.3531 -21.3165 -20.6111 48.6291 -21.3165 -18.0705 -42.4069 -13.0405 -15.7358 
-34.1309 -13.0405 -18.8317 -25.8549 -13.0405 -19.8665 -17.5789 -13.0405 -20.7117 
-9.30286 -13.0405 -22.0428 -1.02686 -13.0405 -21.7756 7.24914 -13.0405 -21.6805 
15.5251 -13.0405 -22.2111 23.8011 -13.0405 -22.4877 32.0771 -13.0405 -22.6324 
40.3531 -13.0405 -22.2267 48.6291 -13.0405 -20.5415 56.9051 -13.0405 -15.7587 
-42.4069 -4.76452 -16.4635 -34.1309 -4.76452 -19.2272 -25.8549 -4.76452 -20.5112 
-17.5789 -4.76452 -21.95 -9.30286 -4.76452 -22.6843 -1.02686 -4.76452 -20.1233 
7.24914 -4.76452 -22.5797 15.5251 -4.76452 -22.4214 23.8011 -4.76452 -21.9838 
32.0771 -4.76452 -22.4616 40.3531 -4.76452 -22.4009 48.6291 -4.76452 -21.1681 
56.9051 -4.76452 -17.3007 -42.4069 3.51148 -16.7298 -34.1309 3.51148 -19.4056 
-25.8549 3.51148 -20.5357 -17.5789 3.51148 -21.6657 -9.30286 3.51148 -22.397 
-1.02686 3.51148 -21.2546 7.24914 3.51148 -22.811 15.5251 3.51148 -20.4104 
23.8011 3.51148 -20.741 32.0771 3.51148 -22.0634 40.3531 3.51148 -22.3537 
48.6291 3.51148 -20.2393 56.9051 3.51148 -15.9387 -42.4069 11.7875 -16.4418 
-34.1309 11.7875 -19.5364 -25.8549 11.7875 -20.5139 -17.5789 11.7875 -21.0979 
-9.30286 11.7875 -21.4209 -1.02686 11.7875 -21.2086 7.24914 11.7875 -21.6128 
15.5251 11.7875 -20.5933 23.8011 11.7875 -21.0569 32.0771 11.7875 -21.4668 
40.3531 11.7875 -20.6612 48.6291 11.7875 -18.1544 -42.4069 20.0635 -15.2966 
-34.1309 20.0635 -18.2779 -25.8549 20.0635 -20.4068 -17.5789 20.0635 -21.2324 
-9.30286 20.0635 -20.834 -1.02686 20.0635 -19.837 7.24914 20.0635 -20.1405 
15.5251 20.0635 -21.2853 23.8011 20.0635 -21.6878 32.0771 20.0635 -20.7522 
40.3531 20.0635 -18.7502 -34.1309 28.3395 -15.2928 -25.8549 28.3395 -18.2894 
-17.5789 28.3395 -19.4971 -9.30286 28.3395 -19.4187 -1.02686 28.3395 -19.3218 
7.24914 28.3395 -19.683 15.5251 28.3395 -20.2756 23.8011 28.3395 -20.0349 
32.0771 28.3395 -18.7645 40.3531 28.3395 -15.1194 -9.30286 36.6155 -15.3412 
-1.02686 36.6155 -16.3598 7.24914 36.6155 -17.247 15.5251 36.6155 -17.3527 
23.8011 36.6155 -16.0395 -17.5789 -38.4663 -14.8036 -9.30286 -40.2569 -14.8036 
-1.02686 -42.2152 -14.8036 7.24914 -44.0492 -14.8036 15.5251 -45.1899 -14.8036 
23.8011 -43.9425 -14.8036 32.0771 -40.1114 -14.8036 -34.1309 -30.0533 -14.8036 
-20.1747 -37.8685 -14.8036 -25.8549 -36.0076 -14.8036 -25.8549 -37.8685 -12.2448 
35.5566 -37.8685 -14.8036 40.3531 -32.9561 -14.8036 -34.6368 -29.5925 -14.8036 
-42.4069 -21.7756 -14.8036 -42.4069 -29.5925 -10.3741 44.3599 -29.5925 -14.8036 
48.6291 -26.6327 -14.8036 48.6291 -29.5925 -10.3601 -42.6918 -21.3165 -14.8036 
-50.6829 -21.3165 -6.70836 53.5381 -21.3165 -14.8036 56.9051 -15.3447 -14.8036 
56.9051 -21.3165 -10.1926 -43.926 -13.0405 -14.8036 -50.6829 -13.0405 -9.77531 
58.0808 -13.0405 -14.8036 -45.3437 -4.76452 -14.8036 -50.6829 -4.76452 -10.7915 
59.8342 -4.76452 -14.8036 -45.8691 3.51148 -14.8036 -50.6829 3.51148 -11.1929 
58.2575 3.51148 -14.8036 56.9051 6.18864 -14.8036 -44.9505 11.7875 -14.8036 
-50.6829 11.7875 -10.1852 53.4637 11.7875 -14.8036 48.6291 19.5218 -14.8036 
56.9051 11.7875 -10.4821 -43.0372 20.0635 -14.8036 -42.4069 20.9959 -14.8036 
48.2181 20.0635 -14.8036 48.6291 20.0635 -14.3863 -34.9381 28.3395 -14.8036 
-42.4069 28.3395 -8.39853 -34.1309 29.0007 -14.8036 -25.8549 33.459 -14.8036 
-17.5789 35.9131 -14.8036 32.0771 34.5301 -14.8036 40.7707 28.3395 -14.8036 
40.3531 28.7172 -14.8036 -25.8549 36.6155 -11.2285 -13.6368 36.6155 -14.8036 
-17.5789 36.6155 -14.0794 -9.30286 37.2093 -14.8036 -1.02686 38.5592 -14.8036 
7.24914 39.9085 -14.8036 15.5251 39.9379 -14.8036 27.6103 36.6155 -14.8036 
23.8011 38.082 -14.8036 32.0771 36.6155 -11.9736 7.24914 44.8915 -6.6804 
15.5251 44.8915 -6.58482 -25.8549 -40.2197 -6.5276 -17.5789 -41.0062 -6.5276 
-9.30286 -41.6579 -6.5276 -1.02686 -42.9501 -6.5276 7.24914 -44.6151 -6.5276 
15.5251 -45.7747 -6.5276 23.8011 -44.6349 -6.5276 32.0771 -40.9819 -6.5276 
-42.4069 -33.1183 -6.5276 -33.7476 -37.8685 -6.5276 -34.1309 -37.7254 -6.5276 
-17.5789 -37.8685 0.995726 -9.30286 -37.8685 0.0315596 -1.02686 -37.8685 0.596061 
7.24914 -37.8685 1.57043 23.8011 -37.8685 0.596085 38.6478 -37.8685 -6.5276 
32.0771 -37.8685 -2.47416 40.3531 -37.1468 -6.5276 48.6291 -31.3787 -6.5276 
-46.1802 -29.5925 -6.5276 -50.6829 -21.6002 -6.5276 51.0475 -29.5925 -6.5276 
48.6291 -29.5925 -2.69375 56.9051 -23.9577 -6.5276 -50.8263 -21.3165 -6.5276 
59.1883 -21.3165 -6.5276 56.9051 -21.3165 0.769064 -53.7237 -13.0405 -6.5276 
63.0626 -13.0405 -6.5276 -54.4366 -4.76452 -6.5276 64.2033 -4.76452 -6.5276 
-54.7447 3.51148 -6.5276 62.9843 3.51148 -6.5276 -53.4252 11.7875 -6.5276 
-50.6829 18.7112 -6.5276 58.983 11.7875 -6.5276 56.9051 15.144 -6.5276 
-50.0484 20.0635 -6.5276 -50.6829 20.0635 -4.45584 53.4302 20.0635 -6.5276 
48.6291 25.6758 -6.5276 -43.769 28.3395 -6.5276 -42.4069 29.7104 -6.5276 
-34.1309 35.6787 -6.5276 46.0861 28.3395 -6.5276 40.3531 33.5467 -6.5276 
-32.2225 36.6155 -6.5276 -34.1309 36.6155 0.330833 -25.8549 39.2724 -6.5276 
-17.5789 41.2782 -6.5276 -9.30286 42.4038 -6.5276 -1.02686 43.7792 -6.5276 
23.8011 43.1525 -6.5276 36.2378 36.6155 -6.5276 32.0771 39.352 -6.5276 
6.76573 44.8915 -6.5276 7.24914 44.96 -6.5276 15.6525 44.8915 -6.5276 
15.5251 44.9169 -6.5276 -25.8549 -38.4653 1.7484 15.5251 -37.9757 1.7484 
-42.4069 -34.533 1.7484 -29.8701 -37.8685 1.7484 -34.1309 -37.2866 1.7484 
-20.4721 -37.8685 1.7484 -25.8549 -37.8685 3.13885 -17.5789 -37.4904 1.7484 
-9.30286 -36.5465 1.7484 -1.02686 -36.6506 1.7484 12.7778 -37.8685 1.7484 
7.24914 -37.6422 1.7484 16.1112 -37.8685 1.7484 15.5251 -37.8685 1.83211 
23.8011 -36.4223 1.7484 32.0771 -34.5972 1.7484 40.3531 -32.4743 1.7484 
-48.9923 -29.5925 1.7484 -50.6829 -27.6683 1.7484 -9.30286 -29.5925 9.06393 
-1.02686 -29.5925 7.62818 7.24914 -29.5925 6.88366 15.5251 -29.5925 6.13342 
23.8011 -29.5925 6.11742 32.0771 -29.5925 5.87566 44.7607 -29.5925 1.7484 
40.3531 -29.5925 4.24935 48.6291 -27.472 1.7484 -54.71 -21.3165 1.7484 
15.5251 -21.3165 9.84425 56.5464 -21.3165 1.7484 48.6291 -21.3165 8.22249 
56.9051 -20.8651 1.7484 -57.7944 -13.0405 1.7484 61.2279 -13.0405 1.7484 
56.9051 -13.0405 7.28611 -58.3143 -4.76452 1.7484 62.7032 -4.76452 1.7484 
-58.0806 3.51148 1.7484 61.6058 3.51148 1.7484 56.9051 3.51148 8.7346 
-56.3438 11.7875 1.7484 57.8692 11.7875 1.7484 56.9051 13.3767 1.7484 
56.9051 11.7875 3.38713 -52.2717 20.0635 1.7484 -50.6829 22.1987 1.7484 
52.4458 20.0635 1.7484 48.6291 24.8845 1.7484 48.6291 20.0635 7.86081 
-45.2575 28.3395 1.7484 -42.4069 30.9233 1.7484 45.458 28.3395 1.7484 
40.3531 33.1073 1.7484 40.3531 28.3395 9.51351 -34.3854 36.6155 1.7484 
-34.1309 36.7798 1.7484 -34.1309 36.6155 2.52496 -25.8549 40.4679 1.7484 
-17.5789 42.6671 1.7484 -9.30286 43.5092 1.7484 -1.02686 44.2718 1.7484 
23.8011 43.0182 1.7484 35.7765 36.6155 1.7484 32.0771 39.074 1.7484 
32.0771 36.6155 7.00648 5.37209 44.8915 1.7484 7.24914 45.0731 1.7484 
7.24914 44.8915 2.34659 15.6846 44.8915 1.7484 15.5251 44.9258 1.7484 
15.5251 44.8915 1.85362 -42.4069 -33.027 10.0244 -34.1309 -36.1391 10.0244 
-25.8549 -34.4606 10.0244 -17.5789 -31.7524 10.0244 -48.2365 -29.5925 10.0244 
-50.6829 -27.6161 10.0244 -25.8549 -29.5925 17.6014 -11.665 -29.5925 10.0244 
-17.5789 -29.5925 13.4029 -9.30286 -28.6142 10.0244 -1.02686 -26.8173 10.0244 
7.24914 -24.4385 10.0244 23.8011 -22.5277 10.0244 32.0771 -23.3166 10.0244 
40.3531 -22.7297 10.0244 -55.1829 -21.3165 10.0244 -9.30286 -21.3165 17.1102 
-1.02686 -21.3165 14.9991 14.7625 -21.3165 10.0244 7.24914 -21.3165 12.9242 
17.3521 -21.3165 10.0244 15.5251 -20.9834 10.0244 23.8011 -21.3165 10.7374 
32.0771 -21.3165 11.2989 43.675 -21.3165 10.0244 40.3531 -21.3165 11.0693 
48.6291 -18.1048 10.0244 -58.5233 -13.0405 10.0244 15.5251 -13.0405 14.3843 
23.8011 -13.0405 14.6111 32.0771 -13.0405 15.2559 40.3531 -13.0405 14.7691 
53.0198 -13.0405 10.0244 48.6291 -13.0405 12.5202 56.9051 -4.79123 10.0244 
-58.941 -4.76452 10.0244 15.5251 -4.76452 16.0632 23.8011 -4.76452 17.0179 
32.0771 -4.76452 17.5845 40.3531 -4.76452 17.03 48.6291 -4.76452 14.3832 
56.9155 -4.76452 10.0244 56.9051 -4.70311 10.0244 56.9051 -4.76452 10.0312 
-58.3147 3.51148 10.0244 40.3531 3.51148 17.6129 55.5401 3.51148 10.0244 
48.6291 3.51148 14.5281 -56.2781 11.7875 10.0244 40.3531 11.7875 16.8102 
51.8211 11.7875 10.0244 48.6291 17.3001 10.0244 48.6291 11.7875 12.638 
-51.7128 20.0635 10.0244 -50.6829 21.3021 10.0244 -50.6829 20.0635 12.1252 
32.0771 20.0635 17.8441 46.8122 20.0635 10.0244 40.3531 27.8687 10.0244 
40.3531 20.0635 14.4963 -43.255 28.3395 10.0244 -42.4069 29.0637 10.0244 
-42.4069 28.3395 11.2518 -34.1309 34.6342 10.0244 -34.1309 28.3395 18.2444 
23.8011 28.3395 17.9244 39.9303 28.3395 10.0244 32.0771 34.8084 10.0244 
32.0771 28.3395 15.1255 -30.0836 36.6155 10.0244 -25.8549 38.3967 10.0244 
-25.8549 36.6155 12.6769 -17.5789 40.7237 10.0244 -17.5789 36.6155 15.9438 
-9.30286 41.5616 10.0244 -9.30286 36.6155 16.1552 -1.02686 41.8482 10.0244 
-1.02686 36.6155 16.3407 7.24914 42.2159 10.0244 7.24914 36.6155 16.4186 
15.5251 41.7232 10.0244 15.5251 36.6155 15.492 29.1451 36.6155 10.0244 
23.8011 39.3033 10.0244 23.8011 36.6155 12.9397 -42.4069 -30.076 18.3004 
[...]
POINT_DATA 502
SCALARS ImageScalars float
LOOKUP_TABLE default
0 0 0 0 0 0 0 0 0 
0 0 0 0 0 0 0 0 0 
0 0 0 0 0 0 0 0 0 
0 0 0 0 0 0 0 0 0 
0 0 0 0 0 0 0 0 0 
0 0 0 0 0 0 0 0 0 
0 0 0 0 0 0 0 0 0 
0 0 0 0 0 0 0 0 0 
0 0 0 0 0 0 0 0 0 
0 0 0 0 0 0 0 0 0 
0 0 0 0 0 0 0 0 0 
0 0 0 0 0 0 0 0 0 
0 0 0 0 0 0 0 0 0 
0 0 0 0 0 0 0 0 0 
0 0 0 0 0 0 0 0 0 
0 0 0 0 0 0 0 0 0 
0 0 0 0 0 0 0 0 0 
0 0 0 0 0 0 0 0 0 
0 0 0 0 0 0 0 0 0 
0 0 0 0 0 0 0 0 0 
0 0 0 0 0 0 0 0 0 
0 0 0 0 0 0 0 0 0 
0 0 0 0 0 0 0 0 0 
0 0 0 0 0 0 0 0 0 
0 0 0 0 0 0 0 0 0 
0 0 0 0 0 0 0 0 0 
0 0 0 0 0 0 0 0 0 
0 0 0 0 0 0 0 0 0 
0 0 0 0 0 0 0 0 0 
0 0 0 0 0 0 0 0 0 
0 0 0 0 0 0 0 0 0 
0 0 0 0 0 0 0 0 0 
0 0 0 0 0 0 0 0 0 
0 0 0 0 0 0 0 0 0 
0 0 0 0 0 0 0 0 0 
0 0 0 0 0 0 0 0 0 
0 0 0 0 0 0 0 0 0 
0 0 0 0 0 0 0 0 0 
0 0 0 0 0 0 0 0 0 
0 0 0 0 0 0 0 0 0 
0 0 0 0 0 0 0 0 0 
0 0 0 0 0 0 0 0 0 
0 0 0 0 0 0 0 0 0 
0 0 0 0 0 0 0 0 0 
0 0 0 0 0 0 0 0 0 
0 0 0 0 0 0 0 0 0 
0 0 0 0 0 0 0 0 0 
0 0 0 0 0 0 0 0 0 
0 0 0 0 0 0 0 0 0 
0 0 0 0 0 0 0 0 0 
0 0 0 0 0 0 0 0 0 
0 0 0 0 0 0 0 0 0 
0 0 0 0 0 0 0 0 0 
0 0 0 0 0 0 0 0 0 
0 0 0 0 0 0 0 0 0 
0 0 0 0 0 0 0 
NORMALS Normals float
0.206726 0.738537 0.641737 0.205314 0.676208 0.707523 0.144488 0.534108 0.832978 
0.0655448 0.410608 0.909453 -0.0729412 0.407823 0.910143 -0.191897 0.458982 0.867474 
-0.405063 0.642748 0.65023 0.42311 0.40663 0.80971 0.246091 0.284121 0.926668 
0.162315 0.257391 0.952577 0.0929006 0.225502 0.969803 0.00675503 0.165056 0.986261 
0.0190168 0.0697635 0.997382 -0.0250212 0.0890128 0.995716 -0.0843421 0.196642 0.976841 
-0.200015 0.265002 0.943275 -0.43654 0.490654 0.754116 0.488705 0.233536 0.840612 
0.243269 0.189163 0.951334 0.153322 0.0874847 0.984296 0.144902 0.0568655 0.98781 
0.0910776 0.0497977 0.994598 -0.0192538 0.0345742 0.999217 -0.012945 0.0243692 0.999619 
0.0552636 0.0395818 0.997687 -0.0172261 0.0986354 0.994975 -0.0968651 0.147038 0.984376 
-0.192704 0.249718 0.94895 -0.408668 0.399492 0.820607 0.444914 0.0863172 0.891404 
0.227681 0.0837392 0.970128 0.107266 0.0764544 0.991286 0.132484 0.0920742 0.986899 
0.063883 0.0615406 0.996058 -0.021593 -0.10559 0.994175 0.0255426 0.072062 0.997073 
0.0489011 0.0421192 0.997915 0.0251474 -0.0166122 0.999546 -0.0146868 0.0636653 0.997863 
-0.117613 0.115583 0.98631 -0.336313 0.172904 0.925742 -0.608313 0.250673 0.753072 
0.420676 0.0525099 0.90569 0.231547 0.0330214 0.972263 0.164625 0.0417148 0.985474 
0.131012 0.0585295 0.989652 -0.107206 0.0213942 0.994007 -0.0103248 -0.0371312 0.999257 
0.137754 0.06992 0.987996 -0.0360193 -0.107265 0.993578 0.00352675 -0.104726 0.994495 
0.0248787 -0.034163 0.999107 -0.0718721 0.00699317 0.997389 -0.286754 -0.0210431 0.957773 
-0.588854 0.00987549 0.808179 0.41348 0.000907504 0.910513 0.218455 0.0179783 0.975681 
0.136824 0.000146666 0.990595 0.113841 -0.0523885 0.992117 -0.0217387 -0.0760225 0.996869 
0.0232786 0.0667638 0.997497 -0.0537089 -0.0566007 0.996951 -0.122304 -0.108278 0.986569 
0.1004 -0.0566451 0.993333 0.0973239 -0.0602131 0.99343 -0.103416 -0.0994252 0.989656 
-0.33356 -0.155336 0.929843 -0.614723 -0.243593 0.750186 0.458477 -0.0812704 0.884983 
0.215359 -0.0622199 0.974551 0.0896838 -0.00751898 0.995942 0.0551574 -0.025536 0.998151 
0.00725553 -0.0933108 0.995611 0.0107778 -0.0883124 0.996035 -0.0393275 -0.161758 0.986047 
-0.0306265 0.0525983 0.998146 0.0522662 0.0575093 0.996976 -0.0220028 -0.0809108 0.996478 
-0.173856 -0.207013 0.962767 -0.403979 -0.305489 0.862251 0.524222 -0.298152 0.797682 
0.291701 -0.213515 0.932375 0.169015 -0.116752 0.978674 0.0244045 -0.0916597 0.995491 
-0.0836165 -0.114992 0.989841 -0.041537 -0.1081 0.993272 0.0863807 -0.110184 0.99015 
0.0938205 -0.0170686 0.995443 -0.0339395 -0.0607241 0.997577 -0.167628 -0.148479 0.974605 
-0.331806 -0.289439 0.897847 0.417372 -0.483235 0.7696 0.215775 -0.401506 0.890075 
0.0586217 -0.358627 0.931638 -0.0101262 -0.295123 0.955406 0.0154708 -0.192281 0.981218 
0.0554924 -0.166628 0.984457 0.0199419 -0.223775 0.974437 -0.0823711 -0.298522 0.950842 
-0.260425 -0.391904 0.882377 -0.516723 -0.555703 0.651301 0.110772 -0.631564 0.76737 
0.106464 -0.531571 0.840296 0.0564337 -0.477914 0.876592 -0.0627712 -0.5118 0.856808 
-0.211023 -0.608338 0.765111 0.206634 0.770078 0.603558 0.215082 0.832988 0.509774 
0.20127 0.874713 0.440871 0.161984 0.893638 0.418535 -0.00560439 0.900717 0.43437 
-0.256346 0.83202 0.491964 -0.453793 0.751886 0.478268 0.425956 0.42572 0.798326 
0.22253 0.749914 0.622985 0.268515 0.656757 0.704677 0.244626 0.843126 0.478849 
-0.503814 0.696623 0.510772 -0.519981 0.595152 0.61271 0.429707 0.412925 0.803022 
0.491255 0.245706 0.835641 0.558237 0.555296 0.616455 -0.477769 0.592788 0.648336 
-0.487275 0.568805 0.662589 -0.571228 0.767695 0.29042 0.49825 0.234662 0.834674 
0.778469 0.329154 0.534456 -0.605801 0.446458 0.658544 -0.639695 0.323412 0.697276 
-0.764111 0.555614 0.32776 0.488387 0.0983634 0.867066 0.708341 0.173779 0.684145 
-0.642404 0.262209 0.720113 0.503698 0.0620075 0.861652 0.700439 0.0624182 0.710978 
-0.715613 0.00587031 0.698472 0.50952 -0.0124552 0.860369 0.695503 -0.0236441 0.718134 
-0.65819 -0.263217 0.705339 -0.657734 -0.315833 0.683838 0.53204 -0.114398 0.838955 
0.750334 -0.206495 0.62798 -0.61209 -0.394087 0.685595 -0.57921 -0.46412 0.670156 
-0.80158 -0.474839 0.363316 0.548305 -0.304056 0.779045 0.536111 -0.329873 0.777026 
-0.577082 -0.466231 0.670527 -0.597802 -0.484162 0.638921 0.434788 -0.496998 0.750967 
0.642679 -0.641327 0.419123 0.422174 -0.51008 0.749391 0.257009 -0.620666 0.740757 
0.137684 -0.677977 0.722074 -0.374954 -0.644405 0.666447 -0.527295 -0.56386 0.635627 
-0.522471 -0.5685 0.635478 0.282081 -0.802679 0.525487 0.129197 -0.672662 0.728583 
0.147093 -0.720398 0.677783 0.116599 -0.65749 0.744387 0.126124 -0.628088 0.767853 
0.0636379 -0.646156 0.760548 -0.0821435 -0.665016 0.742298 -0.30251 -0.664696 0.68313 
-0.230535 -0.662597 0.712614 -0.438207 -0.761679 0.477305 0.066739 -0.97019 0.232975 
-0.0996479 -0.97049 0.219588 0.185004 0.979511 0.0795723 0.0892845 0.994891 -0.0471215 
0.117895 0.978267 -0.17057 0.16826 0.955532 -0.24217 0.163052 0.94928 -0.268851 
0.00853549 0.960881 -0.276828 -0.244363 0.927261 -0.283679 -0.399533 0.883969 -0.242841 
0.555883 0.736094 0.386212 0.377373 0.908693 0.178515 0.388014 0.902241 0.188165 
-0.0830071 0.88138 -0.465059 -0.000596227 0.832439 -0.554116 0.062758 0.730861 -0.679635 
0.053645 0.622752 -0.780578 -0.179675 0.656795 -0.732351 -0.454159 0.883182 -0.117168 
-0.288659 0.833224 -0.471608 -0.474363 0.877457 -0.0710612 -0.595528 0.803327 0.00343312 
0.686904 0.571918 0.448411 0.780353 0.335934 0.527445 -0.63134 0.775443 0.00984318 
-0.555434 0.802363 -0.21842 -0.763669 0.638949 0.0924826 0.781473 0.33067 0.529109 
-0.800879 0.588774 0.109259 -0.721407 0.613121 -0.321954 0.798586 0.184996 0.572745 
-0.960859 0.252072 0.11493 0.825187 0.0489553 0.562734 -0.992677 -0.00614324 0.12064 
0.844235 -0.0570508 0.532929 -0.947795 -0.292674 0.126593 0.842547 -0.24034 0.482029 
0.803906 -0.418591 0.422512 -0.862188 -0.483261 0.151952 -0.830397 -0.535898 0.152492 
0.792533 -0.453094 0.408163 0.81202 -0.483694 0.326594 -0.773626 -0.614373 0.155077 
-0.726771 -0.666034 0.167937 0.678755 -0.65469 0.332676 0.65233 -0.684868 0.324687 
0.468412 -0.834758 0.289429 -0.698905 -0.695135 0.168285 -0.619171 -0.765322 0.175813 
0.425874 -0.857616 0.288315 0.500062 -0.865932 0.0100275 0.303121 -0.903593 0.302716 
0.178117 -0.926572 0.331268 0.143513 -0.939908 0.309801 0.150095 -0.952966 0.263302 
-0.306503 -0.927161 0.215471 -0.551743 -0.813782 0.182587 -0.481776 -0.856 0.187498 
0.0714302 -0.971299 0.226885 0.0666133 -0.971974 0.225451 -0.102728 -0.970841 0.216597 
-0.0996702 -0.971132 0.216723 0.0209081 0.947346 -0.319529 -0.0447533 0.586049 -0.809039 
0.462338 0.886557 -0.0161261 0.116739 0.971274 -0.20736 0.216686 0.973031 -0.0791079 
-0.0572006 0.895793 -0.440776 -0.0190768 0.936824 -0.34928 -0.102353 0.857428 -0.504323 
-0.0435986 0.765003 -0.642549 0.037954 0.680843 -0.731446 -0.0114919 0.595291 -0.803428 
0.0504385 0.611834 -0.789376 -0.0535538 0.586131 -0.808445 -0.0447015 0.582729 -0.811436 
-0.136126 0.597133 -0.790507 -0.154051 0.691919 -0.705348 -0.325054 0.720394 -0.612676 
0.704452 0.702042 0.104323 0.771834 0.616605 0.155147 -0.206163 0.708208 -0.675232 
-0.0998635 0.646476 -0.75637 -0.0802141 0.529218 -0.844686 -0.0401321 0.401303 -0.915066 
-0.0138348 0.48176 -0.876194 -0.0873558 0.582459 -0.808152 -0.407769 0.719592 -0.56206 
-0.277781 0.648728 -0.708513 -0.466036 0.73633 -0.490539 0.888517 0.405286 0.21513 
-0.0637521 0.468294 -0.88127 -0.692134 0.610409 -0.385165 -0.345344 0.537449 -0.769341 
-0.708227 0.59376 -0.381921 0.950895 0.206325 0.230713 -0.874192 0.295407 -0.385387 
-0.671945 0.313895 -0.670791 0.973072 0.0140146 0.230074 -0.95345 0.0168522 -0.301081 
0.977162 -0.111987 0.18059 -0.915703 -0.2571 -0.308848 -0.685637 -0.224053 -0.692605 
0.935785 -0.318392 0.151437 -0.836009 -0.462086 -0.295915 -0.820957 -0.490265 -0.292693 
-0.810832 -0.453046 -0.370541 0.834541 -0.544885 0.0814942 0.804928 -0.590224 0.0610444 
-0.766395 -0.586035 -0.263062 -0.731238 -0.637006 -0.243957 -0.675797 -0.503146 -0.538649 
0.693159 -0.720565 -0.0178039 0.638728 -0.768506 -0.0377484 -0.696445 -0.680074 -0.229051 
-0.634656 -0.742284 -0.215004 -0.592668 -0.575885 -0.563116 0.506608 -0.861046 -0.0441378 
0.502682 -0.863385 -0.0433383 0.502671 -0.861342 -0.073566 0.331839 -0.942473 -0.0403479 
0.178308 -0.983597 -0.0272463 0.0951761 -0.994618 -0.0409366 0.0937929 -0.990495 -0.100609 
-0.314854 -0.930543 -0.186966 -0.557666 -0.805108 -0.202015 -0.497402 -0.84484 -0.197071 
-0.488307 -0.764034 -0.421674 0.0514413 -0.989775 -0.133036 0.0391447 -0.988953 -0.142967 
0.0366144 -0.985656 -0.164748 -0.117895 -0.98009 -0.159764 -0.114265 -0.980589 -0.159335 
-0.114641 -0.9799 -0.163261 0.373177 0.892389 -0.253734 0.0859498 0.93345 -0.348259 
-0.208619 0.853184 -0.478076 -0.279188 0.789914 -0.545976 0.605361 0.770007 -0.201564 
0.72525 0.6671 -0.170263 -0.20801 0.79624 -0.568096 -0.240642 0.729901 -0.639794 
-0.314464 0.752267 -0.57897 -0.22309 0.699375 -0.679048 -0.151158 0.647181 -0.7472 
-0.203571 0.59053 -0.780918 0.0705394 0.475331 -0.876975 0.000685803 0.522899 -0.852395 
-0.152894 0.556703 -0.81652 0.877475 0.467674 -0.106387 -0.323837 0.570777 -0.754549 
-0.165274 0.584784 -0.794174 -0.0816595 0.482738 -0.871949 -0.271062 0.621317 -0.735181 
-0.0328409 0.47233 -0.88081 -0.0675193 0.465333 -0.882557 0.0777629 0.476441 -0.875761 
0.0159812 0.50801 -0.861203 -0.218013 0.528386 -0.820536 -0.150343 0.534327 -0.8318 
-0.343004 0.435101 -0.832488 0.972148 0.212913 -0.097964 -0.209053 0.335255 -0.918641 
0.0514145 0.331096 -0.942195 0.00848604 0.351504 -0.936148 -0.145973 0.323989 -0.934732 
-0.495115 0.311704 -0.810988 -0.349091 0.323188 -0.879594 -0.572578 0.06816 -0.817012 
0.99615 -0.0137262 -0.0865812 -0.133246 0.244743 -0.960389 0.0893431 0.232861 -0.968397 
0.000209872 0.195833 -0.980637 -0.18371 0.160315 -0.969819 -0.37708 0.101563 -0.920595 
-0.572656 0.0674921 -0.817013 -0.573178 0.0654951 -0.816809 -0.572406 0.0674663 -0.81719 
0.980978 -0.140537 -0.133906 -0.223473 -0.0112948 -0.974645 -0.617435 -0.195843 -0.761852 
-0.436758 -0.0817011 -0.895861 0.909027 -0.376906 -0.177796 -0.340838 -0.159822 -0.926437 
-0.626602 -0.33265 -0.704779 -0.620368 -0.413579 -0.666405 -0.549795 -0.284431 -0.785382 
0.775204 -0.584043 -0.240734 0.745485 -0.617888 -0.249934 0.735752 -0.593172 -0.326827 
-0.276328 -0.218952 -0.93579 -0.61227 -0.447994 -0.651481 -0.582818 -0.556544 -0.592099 
-0.462396 -0.338966 -0.819324 0.595486 -0.734658 -0.325075 0.585452 -0.741108 -0.32864 
0.575826 -0.729426 -0.369272 0.466561 -0.798781 -0.37983 0.335481 -0.670572 -0.661654 
-0.242581 -0.327699 -0.913109 -0.579317 -0.564058 -0.588413 -0.464737 -0.674579 -0.573553 
-0.386119 -0.436053 -0.812878 0.395337 -0.829409 -0.394702 0.3163 -0.860795 -0.39873 
0.305478 -0.802159 -0.513054 0.170213 -0.896437 -0.409181 0.128042 -0.722826 -0.679064 
0.0619647 -0.899606 -0.432283 0.0165641 -0.677621 -0.735224 0.035507 -0.884985 -0.464264 
0.0119692 -0.64828 -0.761308 -0.00507252 -0.868947 -0.494879 -0.0402796 -0.63244 -0.773561 
-0.144597 -0.833216 -0.533706 -0.160329 -0.615521 -0.77164 -0.419263 -0.714096 -0.560611 
-0.321931 -0.76222 -0.561588 -0.314743 -0.659706 -0.68244 0.298459 0.798134 -0.523358 
-0.0419801 0.781012 -0.623104 0.336622 0.78309 -0.522929 0.652429 0.549073 -0.522356 
0.298015 0.781841 -0.547642 -0.164202 0.789473 -0.591413 -0.0430822 0.759883 -0.648631 
-0.209413 0.783032 -0.585668 -0.383093 0.649246 -0.657053 0.717268 0.474282 -0.510473 
0.63772 0.469471 -0.610663 0.301458 0.41654 -0.857682 -0.219741 0.455892 -0.862483 
-0.35685 0.563804 -0.744838 -0.388939 0.521381 -0.759532 -0.340348 0.532138 -0.775238 
-0.122371 0.425556 -0.89662 -0.310072 0.380658 -0.87118 0.839994 0.207265 -0.501449 
0.619796 0.193799 -0.760457 -0.322386 0.220296 -0.920618 -0.364521 0.390673 -0.84528 
-0.124939 0.376145 -0.918099 -0.303991 0.293291 -0.906405 -0.297987 0.276751 -0.913571 
0.867623 -0.0204503 -0.496802 0.566161 -0.0226131 -0.823984 -0.240598 0.183437 -0.953134 
-0.290099 0.272276 -0.917447 -0.297147 0.192171 -0.935294 -0.382146 0.161802 -0.909827 
-0.183515 0.278812 -0.942648 0.00879895 0.178386 -0.983921 -0.0486246 0.120393 -0.991535 
0.819745 -0.196287 -0.538043 0.621394 -0.207858 -0.755423 -0.155812 -0.000726635 -0.987787 
-0.187171 0.0936868 -0.977849 -0.316766 0.209847 -0.924999 -0.194277 0.285123 -0.938595 
-0.0181299 0.162152 -0.986599 -0.096419 0.0764247 -0.992402 -0.0613489 0.0996112 -0.993133 
0.712312 -0.40433 -0.573698 0.671458 -0.454897 -0.58499 0.657318 -0.402004 -0.637437 
0.347438 -0.323182 -0.88025 -0.15084 -0.134915 -0.979309 -0.137938 -0.12538 -0.982473 
-0.0970269 -0.0648258 -0.993168 -0.203381 0.0222674 -0.978846 -0.203497 0.124818 -0.971087 
-0.0969229 0.0613225 -0.993401 -0.234968 -0.0833946 -0.968419 -0.240736 -0.160013 -0.95731 
-0.166656 -0.0322038 -0.985489 0.551195 -0.574285 -0.605294 0.489185 -0.614782 -0.618661 
0.457167 -0.553941 -0.695808 0.334303 -0.669017 -0.663821 0.205835 -0.446351 -0.870863 
0.00822318 -0.358286 -0.933576 -0.101134 -0.2998 -0.948626 -0.0802678 -0.220706 -0.972032 
-0.0442971 -0.189894 -0.980805 -0.118074 -0.132248 -0.984159 -0.173348 -0.0622442 -0.982892 
-0.252585 -0.189659 -0.948805 -0.23031 -0.279578 -0.932091 -0.184324 -0.100801 -0.977683 
0.332099 -0.668875 -0.665069 0.206758 -0.630927 -0.747785 0.141313 -0.561632 -0.81523 
0.0818736 -0.586115 -0.80608 0.0158331 -0.424875 -0.905114 -0.00360772 -0.536061 -0.844172 
-0.0176724 -0.368591 -0.929424 0.00215582 -0.512342 -0.858779 -0.00760544 -0.347923 -0.937492 
-0.0531244 -0.50187 -0.86331 -0.067876 -0.32183 -0.944361 -0.226934 -0.316079 -0.921192 
-0.171144 -0.391 -0.904339 -0.172749 -0.281111 -0.943999 -0.0131158 0.427573 -0.903885 
0.0234294 0.418193 -0.908056 0.271645 0.259255 -0.92682 -0.0335598 0.421011 -0.906434 
-0.0125369 0.417169 -0.908742 -0.189938 0.303066 -0.933849 0.328281 0.16008 -0.930917 
0.241502 0.15263 -0.958322 0.0257496 0.153236 -0.987854 -0.26121 0.194047 -0.945577 
-0.159128 0.159205 -0.974337 -0.209984 0.0817827 -0.974278 0.382778 -0.0162643 -0.923697 
0.276794 -0.00834952 -0.960893 -0.00066458 0.0118691 -0.999929 -0.153349 -0.00259914 -0.988169 
-0.191528 0.0650164 -0.979331 -0.187646 0.0547665 -0.980709 0.347679 -0.171876 -0.921726 
0.305162 -0.218215 -0.926962 0.285516 -0.166595 -0.943783 0.0294826 -0.125073 -0.991709 
-0.115881 -0.0433469 -0.992317 -0.149973 -0.00984497 -0.988641 -0.150781 -0.119893 -0.98127 
-0.149165 -0.0109032 -0.988752 0.186878 -0.268379 -0.945013 0.135493 -0.285 -0.948903 
0.122408 -0.248637 -0.960831 -0.147741 -0.135833 -0.979654 -0.0222133 -0.235517 -0.971616 
-0.0365966 -0.164744 -0.985657 
