# vtk DataFile Version 4.2
vtk output
ASCII
DATASET POLYDATA
POINTS 500 float
-26.3473 -30.0647 -13.6418 -19.4858 -30.0647 -15.86 -12.6244 -30.0647 -16.3036 
-5.76294 -30.0647 -15.0643 -33.2087 -23.2033 -14.8392 -26.3473 -23.2033 -17.4279 
-19.4858 -23.2033 -18.288 -12.6244 -23.2033 -18.3211 -5.76294 -23.2033 -17.4002 
1.09851 -23.2033 -15.7858 7.95995 -23.2033 -14.5281 14.8214 -23.2033 -13.9151 
-33.2087 -16.3418 -17.8915 -26.3473 -16.3418 -19.1354 -19.4858 -16.3418 -19.2535 
-12.6244 -16.3418 -18.8925 -5.76294 -16.3418 -18.1406 1.09851 -16.3418 -16.8683 
7.95995 -16.3418 -16.7213 14.8214 -16.3418 -17.0703 21.6828 -16.3418 -16.5783 
28.5443 -16.3418 -15.8288 35.4057 -16.3418 -14.3287 -40.0702 -9.48037 -15.7683 
-33.2087 -9.48037 -18.8392 -26.3473 -9.48037 -19.8936 -19.4858 -9.48037 -19.7167 
-12.6244 -9.48037 -19.3015 -5.76294 -9.48037 -19.2661 1.09851 -9.48037 -17.6567 
7.95995 -9.48037 -17.5061 14.8214 -9.48037 -18.0784 21.6828 -9.48037 -17.6804 
28.5443 -9.48037 -17.152 35.4057 -9.48037 -16.0975 42.2672 -9.48037 -13.7268 
-40.0702 -2.61892 -16.1465 -33.2087 -2.61892 -19.264 -26.3473 -2.61892 -20.2834 
-19.4858 -2.61892 -20.2518 -12.6244 -2.61892 -19.9035 -5.76294 -2.61892 -20.4518 
1.09851 -2.61892 -19.2793 7.95995 -2.61892 -18.931 14.8214 -2.61892 -17.809 
21.6828 -2.61892 -17.8154 28.5443 -2.61892 -17.6538 35.4057 -2.61892 -16.8929 
42.2672 -2.61892 -14.7679 -40.0702 4.24252 -15.1419 -33.2087 4.24252 -18.6508 
-26.3473 4.24252 -19.9641 -19.4858 4.24252 -20.1415 -12.6244 4.24252 -19.8808 
-5.76294 4.24252 -19.6001 1.09851 4.24252 -19.9512 7.95995 4.24252 -19.534 
14.8214 4.24252 -17.0905 21.6828 4.24252 -17.4167 28.5443 4.24252 -17.5422 
35.4057 4.24252 -16.8997 42.2672 4.24252 -14.7365 -33.2087 11.104 -17.232 
-26.3473 11.104 -19.2694 -19.4858 11.104 -19.6702 -12.6244 11.104 -19.9703 
-5.76294 11.104 -20.0946 1.09851 11.104 -20.0358 7.95995 11.104 -19.2131 
14.8214 11.104 -18.0824 21.6828 11.104 -17.7626 28.5443 11.104 -17.4691 
35.4057 11.104 -16.861 -33.2087 17.9654 -14.4962 -26.3473 17.9654 -17.5981 
-19.4858 17.9654 -19.2607 -12.6244 17.9654 -20.2298 -5.76294 17.9654 -20.3652 
1.09851 17.9654 -19.5846 7.95995 17.9654 -18.9486 14.8214 17.9654 -19.0402 
21.6828 17.9654 -18.6655 28.5443 17.9654 -18.1844 35.4057 17.9654 -15.0719 
-26.3473 24.8269 -15.1425 -19.4858 24.8269 -18.1785 -12.6244 24.8269 -19.5335 
-5.76294 24.8269 -19.4172 1.09851 24.8269 -17.4796 7.95995 24.8269 -16.9135 
14.8214 24.8269 -17.8071 21.6828 24.8269 -17.6474 28.5443 24.8269 -16.4512 
-19.4858 31.6883 -15.1811 -12.6244 31.6883 -16.636 -5.76294 31.6883 -15.3785 
-26.3473 -30.0689 -13.6374 -19.4858 -32.9603 -13.6374 -12.6244 -33.3608 -13.6374 
-12.6244 -36.9262 -7.06552 -5.76294 -31.9583 -13.6374 -26.3542 -30.0647 -13.6374 
-33.2087 -24.9157 -13.6374 -1.91821 -30.0647 -13.6374 1.09851 -27.7962 -13.6374 
1.09851 -30.0647 -11.6011 7.95995 -24.4287 -13.6374 14.8214 -23.535 -13.6374 
-34.8952 -23.2033 -13.6374 19.9463 -23.2033 -13.6374 21.6828 -23.0101 -13.6374 
21.6828 -23.2033 -13.5234 28.5443 -20.7579 -13.6374 28.5443 -23.2033 -12.078 
35.4057 -17.7737 -13.6374 35.4057 -23.2033 -10.484 -40.0439 -16.3418 -13.6374 
-40.0702 -16.2833 -13.6374 -40.0702 -16.3418 -13.6055 37.3488 -16.3418 -13.6374 
42.2672 -9.8198 -13.6374 42.2672 -16.3418 -11.7364 -42.4489 -9.48037 -13.6374 
42.4162 -9.48037 -13.6374 49.1286 -9.48037 -8.40048 -42.9461 -2.61892 -13.6374 
44.1816 -2.61892 -13.6374 49.1286 -2.61892 -9.38943 -41.7305 4.24252 -13.6374 
-40.0702 8.6404 -13.6374 43.8363 4.24252 -13.6374 42.2672 10.0902 -13.6374 
49.1286 4.24252 -8.10824 -38.8186 11.104 -13.6374 -40.0702 11.104 -12.3778 
41.9483 11.104 -13.6374 42.2672 11.104 -13.3459 -34.4712 17.9654 -13.6374 
-33.2087 19.7188 -13.6374 37.4133 17.9654 -13.6374 35.4057 21.3796 -13.6374 
42.2672 17.9654 -6.896 -28.9159 24.8269 -13.6374 -33.2087 24.8269 -9.00192 
-26.3473 27.46 -13.6374 1.09851 29.542 -13.6374 7.95995 28.7418 -13.6374 
14.8214 29.65 -13.6374 21.6828 30.2543 -13.6374 33.2659 24.8269 -13.6374 
28.5443 28.4375 -13.6374 35.4057 24.8269 -9.6663 -22.041 31.6883 -13.6374 
-26.3473 31.6883 -8.277 -19.4858 33.1523 -13.6374 -12.6244 34.3914 -13.6374 
-2.45057 31.6883 -13.6374 -5.76294 33.2576 -13.6374 1.09851 31.6883 -9.6142 
14.8214 31.6883 -7.97902 21.6828 31.6883 -9.51892 -12.6244 -37.031 -6.77593 
-26.3473 -33.8565 -6.77593 -13.762 -36.9262 -6.77593 -19.4858 -36.3917 -6.77593 
-11.2934 -36.9262 -6.77593 -12.6244 -36.9262 -3.19281 -5.76294 -36.4148 -6.77593 
1.09851 -32.9315 -6.77593 -32.3722 -30.0647 -6.77593 -33.2087 -29.4444 -6.77593 
6.53922 -30.0647 -6.77593 7.95995 -29.3962 -6.77593 7.95995 -30.0647 -3.62712 
14.8214 -28.4253 -6.77593 21.6828 -28.1346 -6.77593 28.5443 -27.7134 -6.77593 
35.4057 -26.496 -6.77593 -39.3609 -23.2033 -6.77593 -40.0702 -22.2514 -6.77593 
42.2627 -23.2033 -6.77593 42.2672 -23.2002 -6.77593 42.2672 -23.2033 -6.77037 
-43.7072 -16.3418 -6.77593 48.2474 -16.3418 -6.77593 49.1286 -13.9683 -6.77593 
49.1286 -16.3418 -4.80293 -46.0573 -9.48037 -6.77593 50.4922 -9.48037 -6.77593 
-46.6926 -2.61892 -6.77593 -46.9316 -2.61892 -0.791784 50.9665 -2.61892 -6.77593 
-45.7901 4.24252 -6.77593 50.0395 4.24252 -6.77593 49.1286 6.18348 -6.77593 
-43.6858 11.104 -6.77593 -40.0702 17.8281 -6.77593 46.7598 11.104 -6.77593 
-39.9867 17.9654 -6.77593 -40.0702 17.9654 -6.23719 42.3276 17.9654 -6.77593 
42.2672 18.0448 -6.77593 42.2672 17.9654 -5.98646 -34.5769 24.8269 -6.77593 
-33.2087 26.2691 -6.77593 7.95995 31.2722 -6.77593 28.5443 30.6542 -6.77593 
36.5486 24.8269 -6.77593 35.4057 25.9734 -6.77593 35.4057 24.8269 -1.50383 
-27.2377 31.6883 -6.77593 -26.3473 32.3575 -6.77593 -19.4858 35.8342 -6.77593 
-12.6244 36.5665 -6.77593 -5.76294 35.2219 -6.77593 6.01293 31.6883 -6.77593 
1.09851 32.7172 -6.77593 11.6679 31.6883 -6.77593 7.95995 31.6883 -2.62132 
14.8214 32.0253 -6.77593 24.628 31.6883 -6.77593 21.6828 32.3869 -6.77593 
21.6828 31.6883 -0.330713 -26.3473 -33.5113 0.0855148 -19.4858 -35.9447 0.0855148 
-12.6244 -36.8225 0.0855148 -5.76294 -36.0703 0.0855148 1.09851 -33.753 0.0855148 
7.95995 -30.8573 0.0855148 -32.4281 -30.0647 0.0855148 -33.2087 -29.533 0.0855148 
-26.3473 -30.0647 6.8901 14.1232 -30.0647 0.0855148 7.95995 -30.0647 6.01165 
14.8214 -29.9819 0.0855148 21.6828 -29.5284 0.0855148 28.5443 -29.7422 0.0855148 
35.4057 -29.0158 0.0855148 42.2672 -25.6272 0.0855148 -39.5877 -23.2033 0.0855148 
-40.0702 -22.5406 0.0855148 45.3253 -23.2033 0.0855148 42.2672 -23.2033 6.56374 
49.1286 -18.7473 0.0855148 -43.7375 -16.3418 0.0855148 50.6519 -16.3418 0.0855148 
49.1286 -16.3418 3.79961 -46.3377 -9.48037 0.0855148 -46.9316 -3.01693 0.0855148 
51.9684 -9.48037 0.0855148 49.1286 -9.48037 5.87329 -46.9667 -2.61892 0.0855148 
-46.9316 -2.1993 0.0855148 -46.9316 -2.61892 0.22668 51.5418 -2.61892 0.0855148 
49.1286 -2.61892 4.96459 -46.399 4.24252 0.0855148 50.2486 4.24252 0.0855148 
49.1286 6.5366 0.0855148 49.1286 4.24252 2.38668 -44.619 11.104 0.0855148 
46.5783 11.104 0.0855148 42.2672 17.2923 0.0855148 42.2672 11.104 6.94424 
-40.9571 17.9654 0.0855148 -40.0702 19.2347 0.0855148 -40.0702 17.9654 3.41479 
41.7003 17.9654 0.0855148 35.4057 24.437 0.0855148 -35.5385 24.8269 0.0855148 
-33.2087 27.1686 0.0855148 -33.2087 24.8269 6.58696 21.6828 31.6388 0.0855148 
34.9079 24.8269 0.0855148 28.5443 28.871 0.0855148 -27.3754 31.6883 0.0855148 
-26.3473 32.3767 0.0855148 -26.3473 31.6883 1.94703 -19.4858 35.3537 0.0855148 
-12.6244 35.9382 0.0855148 -5.76294 34.6769 0.0855148 1.09851 32.877 0.0855148 
1.09851 31.6883 6.66047 7.95995 31.9474 0.0855148 7.95995 31.6883 6.24926 
20.9591 31.6883 0.0855148 14.8214 32.0644 0.0855148 14.8214 31.6883 2.44092 
-19.4858 -32.1788 6.94696 -12.6244 -33.2256 6.94696 -5.76294 -33.3717 6.94696 
1.09851 -32.5085 6.94696 -33.2087 -25.7381 6.94696 -26.2526 -30.0647 6.94696 
-26.3473 -30.0303 6.94696 -19.4858 -30.0647 9.44909 -12.6244 -30.0647 10.6391 
-5.76294 -30.0647 11.5198 7.63632 -30.0647 6.94696 1.09851 -30.0647 11.726 
7.95995 -29.9367 6.94696 14.8214 -28.0471 6.94696 21.6828 -27.6438 6.94696 
28.5443 -27.3483 6.94696 35.4057 -26.4575 6.94696 -35.8919 -23.2033 6.94696 
-40.0702 -17.9785 6.94696 -33.2087 -23.2033 9.82721 -26.3473 -23.2033 13.6926 
14.8214 -23.2033 12.1709 21.6828 -23.2033 11.8224 28.5443 -23.2033 11.158 
41.9443 -23.2033 6.94696 35.4057 -23.2033 10.2428 42.2672 -22.9568 6.94696 
-41.1424 -16.3418 6.94696 -40.0702 -16.3418 8.5888 35.4057 -16.3418 13.391 
47.3186 -16.3418 6.94696 42.2672 -16.3418 10.9105 -44.2431 -9.48037 6.94696 
-40.0702 -9.48037 13.2254 48.3962 -9.48037 6.94696 42.2672 -9.48037 12.2224 
-45.2093 -2.61892 6.94696 47.8724 -2.61892 6.94696 42.2672 -2.61892 12.0532 
-44.7905 4.24252 6.94696 46.3494 4.24252 6.94696 42.2672 11.1008 6.94696 
42.2672 4.24252 10.8209 -42.7862 11.104 6.94696 -40.0702 16.2307 6.94696 
-40.0702 11.104 11.6727 42.2651 11.104 6.94696 35.4057 11.104 12.7513 
-38.9958 17.9654 6.94696 -33.2087 24.6795 6.94696 28.5443 17.9654 13.3825 
36.4335 17.9654 6.94696 35.4057 18.9579 6.94696 35.4057 17.9654 7.98708 
-33.0464 24.8269 6.94696 -26.3473 29.729 6.94696 -26.3473 24.8269 13.5696 
1.09851 31.6322 6.94696 7.95995 31.6575 6.94696 14.8214 30.8818 6.94696 
21.6828 28.6459 6.94696 21.6828 24.8269 11.8525 28.7483 24.8269 6.94696 
28.5443 24.9784 6.94696 28.5443 24.8269 7.14923 -21.9573 31.6883 6.94696 
-19.4858 32.6327 6.94696 -19.4858 31.6883 8.50426 -12.6244 33.3057 6.94696 
-12.6244 31.6883 9.34849 0.637984 31.6883 6.94696 -5.76294 32.4689 6.94696 
-5.76294 31.6883 8.23054 -19.4858 -24.8953 13.8084 -12.6244 -25.9973 13.8084 
-5.76294 -27.6003 13.8084 1.09851 -28.5479 13.8084 7.95995 -25.6396 13.8084 
-33.2087 -18.2285 13.8084 -25.8184 -23.2033 13.8084 -26.3473 -23.0571 13.8084 
-19.4858 -23.2033 14.9607 -12.6244 -23.2033 15.5653 -5.76294 -23.2033 16.6197 
1.09851 -23.2033 17.5765 11.4418 -23.2033 13.8084 7.95995 -23.2033 15.3586 
14.8214 -20.0019 13.8084 21.6828 -18.699 13.8084 28.5443 -19.2299 13.8084 
-34.9421 -16.3418 13.8084 -33.2087 -16.3418 15.0379 -26.3473 -16.3418 18.1204 
[...]
POINT_DATA 500
SCALARS ImageScalars float
LOOKUP_TABLE default
0 0 0 0 0 0 0 0 0 
0 0 0 0 0 0 0 0 0 
0 0 0 0 0 0 0 0 0 
0 0 0 0 0 0 0 0 0 
0 0 0 0 0 0 0 0 0 
0 0 0 0 0 0 0 0 0 
0 0 0 0 0 0 0 0 0 
0 0 0 0 0 0 0 0 0 
0 0 0 0 0 0 0 0 0 
0 0 0 0 0 0 0 0 0 
0 0 0 0 0 0 0 0 0 
0 0 0 0 0 0 0 0 0 
0 0 0 0 0 0 0 0 0 
0 0 0 0 0 0 0 0 0 
0 0 0 0 0 0 0 0 0 
0 0 0 0 0 0 0 0 0 
0 0 0 0 0 0 0 0 0 
0 0 0 0 0 0 0 0 0 
0 0 0 0 0 0 0 0 0 
0 0 0 0 0 0 0 0 0 
0 0 0 0 0 0 0 0 0 
0 0 0 0 0 0 0 0 0 
0 0 0 0 0 0 0 0 0 
0 0 0 0 0 0 0 0 0 
0 0 0 0 0 0 0 0 0 
0 0 0 0 0 0 0 0 0 
0 0 0 0 0 0 0 0 0 
0 0 0 0 0 0 0 0 0 
0 0 0 0 0 0 0 0 0 
0 0 0 0 0 0 0 0 0 
0 0 0 0 0 0 0 0 0 
0 0 0 0 0 0 0 0 0 
0 0 0 0 0 0 0 0 0 
0 0 0 0 0 0 0 0 0 
0 0 0 0 0 0 0 0 0 
0 0 0 0 0 0 0 0 0 
0 0 0 0 0 0 0 0 0 
0 0 0 0 0 0 0 0 0 
0 0 0 0 0 0 0 0 0 
0 0 0 0 0 0 0 0 0 
0 0 0 0 0 0 0 0 0 
0 0 0 0 0 0 0 0 0 
0 0 0 0 0 0 0 0 0 
0 0 0 0 0 0 0 0 0 
0 0 0 0 0 0 0 0 0 
0 0 0 0 0 0 0 0 0 
0 0 0 0 0 0 0 0 0 
0 0 0 0 0 0 0 0 0 
0 0 0 0 0 0 0 0 0 
0 0 0 0 0 0 0 0 0 
0 0 0 0 0 0 0 0 0 
0 0 0 0 0 0 0 0 0 
0 0 0 0 0 0 0 0 0 
0 0 0 0 0 0 0 0 0 
0 0 0 0 0 0 0 0 0 
0 0 0 0 0 
NORMALS Normals float
0.399898 0.657672 0.638396 0.144689 0.510643 0.847531 -0.0538056 0.493944 0.867827 
-0.238683 0.511301 0.825592 0.458943 0.503959 0.731708 0.222001 0.315414 0.922621 
0.0582213 0.234999 0.97025 -0.0615951 0.159882 0.985213 -0.178428 0.204803 0.962403 
-0.198443 0.277547 0.939994 -0.132427 0.488418 0.862503 -0.0644774 0.601891 0.795971 
0.320823 0.263465 0.909757 0.0963383 0.166501 0.981324 -0.0179989 0.10065 0.994759 
-0.0813311 0.0723317 0.994059 -0.145582 0.127043 0.981155 -0.10306 0.126578 0.986588 
0.0138057 0.195777 0.980551 -0.00990692 0.273216 0.961902 -0.0854046 0.273271 0.958138 
-0.150182 0.311675 0.938245 -0.257728 0.335082 0.906254 0.598958 0.141934 0.788101 
0.264238 0.0963347 0.959634 0.0634765 0.0809169 0.994698 -0.0428898 0.0723782 0.996455 
-0.0326618 0.073548 0.996757 -0.115814 0.173557 0.97799 -0.125475 0.178064 0.975986 
0.0312915 0.155275 0.987376 0.0117131 0.0512922 0.998615 -0.0663104 0.0860095 0.994085 
-0.112272 0.124401 0.98586 -0.225795 0.166968 0.95976 -0.436414 0.187294 0.880036 
0.591294 -0.0379347 0.805563 0.262561 -0.0124173 0.964836 0.0736201 0.00523262 0.997273 
-0.027617 0.0308432 0.999143 0.0144666 0.0423664 0.998997 -0.0425094 0.0193236 0.998909 
-0.110812 0.161469 0.980637 -0.107858 0.143493 0.983756 -0.0785149 -0.0720674 0.994305 
-0.0113311 -0.019381 0.999748 -0.0657599 0.0275447 0.997455 -0.192947 0.0558657 0.979618 
-0.406741 0.0665648 0.911115 0.617478 -0.193646 0.762379 0.302477 -0.133788 0.94372 
0.106049 -0.069869 0.991903 -0.00623043 -0.0424256 0.99908 -0.039362 0.0048621 0.999213 
0.00489049 -0.0266152 0.999634 -0.00232569 0.0536536 0.998557 -0.216411 0.0202241 0.976093 
-0.141142 0.0197053 0.989793 0.032789 -0.0038859 0.999455 -0.0364226 -0.0134022 0.999247 
-0.187934 -0.00258346 0.982178 -0.463955 -0.0905497 0.881219 0.373636 -0.270689 0.8872 
0.157608 -0.167051 0.97327 0.0486996 -0.0643036 0.996741 0.0306338 0.0253191 0.99921 
0.00483311 0.0562472 0.998405 -0.0626545 -0.0257018 0.997704 -0.142804 -0.0405625 0.98892 
-0.10472 0.142871 0.984186 -0.0447969 0.0906442 0.994875 -0.0689691 0.040597 0.996792 
-0.26413 -0.100149 0.959273 0.506319 -0.380536 0.773843 0.308327 -0.258542 0.915473 
0.183603 -0.102249 0.977668 0.0811576 -0.0309561 0.99622 -0.0453007 -0.0472033 0.997858 
-0.102594 -0.157805 0.982126 -0.0386256 -0.153482 0.987396 -0.0203231 -0.0112438 0.99973 
-0.0594581 -0.00683683 0.998207 -0.20882 -0.0582323 0.976219 -0.510613 -0.321882 0.797287 
0.459169 -0.408513 0.788848 0.288056 -0.254552 0.923161 0.0849989 -0.212821 0.973387 
-0.126397 -0.30135 0.945099 -0.19115 -0.477648 0.857504 0.0272887 -0.501511 0.864721 
0.0520908 -0.415229 0.908225 -0.0906856 -0.37066 0.924331 -0.357157 -0.45498 0.81574 
0.324899 -0.63603 0.699933 0.0138838 -0.644437 0.764531 -0.273392 -0.730179 0.626175 
0.399973 0.657861 0.638155 0.183835 0.688919 0.701138 -0.0523481 0.698384 0.713807 
0.00463033 0.983371 0.181548 -0.252552 0.617686 0.744769 0.400125 0.657776 0.638146 
0.49141 0.562093 0.665258 -0.32691 0.590657 0.737736 -0.333425 0.52788 0.781134 
-0.413146 0.702236 0.579807 -0.167244 0.553782 0.815693 -0.0663952 0.618637 0.782866 
0.528108 0.529484 0.663889 -0.0921971 0.584661 0.806022 -0.101394 0.569465 0.815738 
-0.101197 0.582171 0.806744 -0.166929 0.497384 0.851319 -0.167822 0.634721 0.754298 
-0.262345 0.388709 0.883222 -0.282922 0.656711 0.699061 0.69565 0.365156 0.618654 
0.696392 0.363623 0.618721 0.697624 0.365792 0.61605 -0.280522 0.347934 0.894566 
-0.43332 0.195927 0.879685 -0.40863 0.395275 0.822666 0.72738 0.168474 0.665233 
-0.442211 0.185609 0.877496 -0.803747 0.161954 0.572504 0.733132 -0.0398893 0.678915 
-0.504894 0.0550861 0.861422 -0.853491 -0.008093 0.521045 0.694157 -0.209101 0.688784 
0.666504 -0.293264 0.685397 -0.548346 -0.113035 0.828577 -0.603464 -0.238413 0.760914 
-0.875308 -0.268157 0.402402 0.633241 -0.336774 0.696842 0.712542 -0.356876 0.604088 
-0.606486 -0.257875 0.752114 -0.632527 -0.272451 0.725038 0.551661 -0.402827 0.730342 
0.544974 -0.426643 0.721789 -0.576964 -0.383153 0.721322 -0.589478 -0.457711 0.665594 
-0.793023 -0.582861 0.177167 0.528687 -0.475114 0.70339 0.681838 -0.621576 0.385668 
0.518201 -0.520164 0.678895 -0.261166 -0.746378 0.612138 0.0145358 -0.782667 0.622271 
0.0973948 -0.790972 0.60405 -0.0612146 -0.806587 0.587937 -0.575926 -0.539872 0.613879 
-0.400287 -0.701266 0.589912 -0.694939 -0.664647 0.274416 0.428777 -0.670576 0.605374 
0.57992 -0.76958 0.267283 0.329311 -0.727333 0.602113 0.00468093 -0.832136 0.554552 
-0.282829 -0.792386 0.540492 -0.286552 -0.807492 0.515601 -0.272602 -0.900912 0.337707 
0.0820669 -0.977201 0.195816 -0.0768253 -0.966291 0.245724 0.00651494 0.986548 0.16334 
0.437094 0.880966 0.18124 0.0392936 0.986362 0.159833 0.208489 0.967325 0.144275 
-0.0427936 0.984477 0.170219 0.00731578 0.99913 -0.0410491 -0.262678 0.94357 0.201682 
-0.444453 0.852814 0.274172 0.594484 0.779788 0.196263 0.616589 0.76163 0.199345 
-0.319906 0.892294 0.318545 -0.28307 0.898258 0.336161 -0.274062 0.942367 0.191922 
-0.0851274 0.926171 0.367369 -0.0455755 0.931117 0.361861 -0.107251 0.878308 0.46591 
-0.254697 0.813845 0.52229 0.769843 0.605076 0.203039 0.790493 0.578081 0.202347 
-0.497579 0.678273 0.540704 -0.497753 0.678124 0.540732 -0.497847 0.678408 0.540288 
0.886703 0.41426 0.205296 -0.781804 0.408236 0.471303 -0.824156 0.322125 0.465835 
-0.860451 0.411791 0.300086 0.953407 0.204447 0.221846 -0.863903 0.166756 0.475252 
0.974093 -0.0195333 0.225304 0.998128 -0.000609974 -0.0611632 -0.932175 -0.0346487 0.360346 
0.944179 -0.195374 0.265244 -0.902993 -0.281517 0.324578 -0.892263 -0.333082 0.304834 
0.872707 -0.377739 0.309348 0.799881 -0.524397 0.291888 -0.856251 -0.457241 0.240345 
0.797966 -0.527172 0.292129 0.805268 -0.530262 0.265266 -0.793662 -0.584412 0.169005 
-0.793151 -0.585442 0.167835 -0.795132 -0.594677 0.118849 0.714993 -0.643806 0.27258 
0.696491 -0.666174 0.266668 -0.0457737 -0.979504 0.196154 -0.38324 -0.923595 0.00999605 
-0.707961 -0.70361 0.0610147 -0.679314 -0.731418 0.0596679 -0.64333 -0.718359 -0.26474 
0.587137 -0.78553 0.19548 0.565083 -0.803402 0.187686 0.270691 -0.953952 0.129233 
-0.0342131 -0.995231 0.0913533 -0.294123 -0.951199 0.0933371 -0.112089 -0.974986 0.191931 
-0.264178 -0.947164 0.181905 0.0209024 -0.986497 0.162439 -0.0559802 -0.994322 0.0905017 
0.0760912 -0.988239 0.132638 -0.206086 -0.977551 0.0438453 -0.0863005 -0.993939 0.0680981 
-0.18274 -0.960613 -0.209352 0.406266 0.882158 -0.238212 0.21055 0.942388 -0.259949 
0.00778428 0.972532 -0.23264 -0.204394 0.959181 -0.195435 -0.353009 0.93488 -0.0372121 
-0.264714 0.963686 0.0351428 0.570259 0.794656 -0.20815 0.595229 0.777465 -0.203102 
0.360399 0.77232 -0.5231 -0.103685 0.99457 -0.00892275 -0.296342 0.934307 -0.19812 
-0.087611 0.996053 -0.0142356 -0.0175748 0.999532 -0.0250436 -0.0312546 0.999405 -0.0145993 
-0.275335 0.961347 0.00132458 -0.540084 0.841562 -0.00910901 0.774177 0.607629 -0.177304 
0.789269 0.588424 -0.175534 -0.674312 0.738136 -0.0213971 -0.529631 0.652377 -0.542121 
-0.86683 0.496583 -0.0448337 0.888176 0.430609 -0.160375 -0.918771 0.390785 -0.0561017 
-0.885133 0.357507 -0.297873 0.969706 0.215667 -0.114712 0.994583 0.0140604 -0.102992 
-0.991709 0.0665306 -0.109945 -0.822229 0.0321753 -0.568247 0.994755 0.00221267 -0.102262 
0.994928 -0.00723103 -0.100327 0.994206 0.00263199 -0.107459 -0.978234 -0.119226 -0.169834 
-0.858004 -0.121137 -0.499155 0.985186 -0.157401 -0.0680742 -0.921973 -0.326564 -0.208138 
-0.897011 -0.391198 -0.205757 -0.884174 -0.314969 -0.345008 0.930072 -0.362743 -0.0581674 
-0.827609 -0.515152 -0.222894 -0.739453 -0.609928 -0.284951 -0.643631 -0.490001 -0.58791 
0.841758 -0.537167 -0.0537968 0.824893 -0.562581 -0.0552639 0.81829 -0.541508 -0.192798 
-0.728177 -0.620939 -0.290161 -0.615448 -0.701423 -0.359485 0.727072 -0.682477 -0.0747674 
0.680376 -0.727685 -0.0869681 0.641902 -0.684292 -0.345986 -0.189005 -0.955146 -0.227974 
-0.603994 -0.710466 -0.361149 -0.430378 -0.830301 -0.354084 0.522476 -0.839541 -0.148964 
0.496535 -0.853363 -0.15882 0.485336 -0.844752 -0.225486 0.225302 -0.948948 -0.220762 
-0.0396462 -0.975021 -0.218547 -0.232764 -0.952573 -0.196026 -0.18273 -0.979989 -0.0789372 
-0.0586007 -0.945157 -0.321316 -0.0594128 -0.997925 0.0248159 -0.0492204 -0.979349 -0.196096 
-0.170724 -0.962337 -0.211568 -0.0215741 -0.996857 -0.0762321 -0.0739242 -0.98621 -0.148072 
0.192324 0.790247 -0.581826 0.0733709 0.81436 -0.575704 -0.0521603 0.875595 -0.480222 
-0.222061 0.92739 -0.301058 0.541959 0.670185 -0.507082 0.357485 0.771397 -0.526451 
0.359691 0.770838 -0.525767 0.175914 0.726122 -0.664681 0.102501 0.702008 -0.704754 
0.0538547 0.747048 -0.662585 -0.29754 0.924523 -0.238173 -0.118623 0.830263 -0.544603 
-0.30284 0.92262 -0.238873 -0.154566 0.869875 -0.46843 -0.0440249 0.882295 -0.468634 
-0.0751613 0.838036 -0.540414 -0.241821 0.789846 -0.563618 0.620108 0.612583 -0.49011 
0.750279 0.491632 -0.442017 0.52412 0.618383 -0.585577 0.26007 0.587318 -0.766434 
-0.205502 0.572785 -0.793528 -0.0600024 0.557009 -0.828336 -0.0953184 0.639267 -0.763054 
-0.510421 0.641713 -0.572429 -0.262188 0.641507 -0.72092 -0.524596 0.62715 -0.575744 
0.778182 0.457303 -0.430473 0.740858 0.465312 -0.48437 -0.285607 0.292375 -0.912658 
-0.76504 0.306466 -0.566385 -0.457714 0.326669 -0.826913 0.875186 0.26421 -0.405268 
0.705076 0.284829 -0.649415 -0.752405 0.0283761 -0.658089 -0.511107 0.0735364 -0.856366 
0.929461 0.0318621 -0.367542 -0.758576 -0.111171 -0.64203 -0.557841 -0.0770161 -0.826367 
0.924633 -0.154077 -0.348302 -0.737484 -0.285806 -0.611908 -0.643584 -0.489896 -0.588049 
-0.610022 -0.264884 -0.7468 0.862738 -0.363051 -0.351961 0.799482 -0.492856 -0.343398 
0.77099 -0.349498 -0.532377 -0.643547 -0.489965 -0.588032 -0.528346 -0.37475 -0.761848 
0.768652 -0.537367 -0.347002 0.638416 -0.679828 -0.360914 -0.459601 -0.486133 -0.743264 
-0.591467 -0.584914 -0.555015 -0.577611 -0.598465 -0.555162 -0.575552 -0.577558 -0.578936 
0.633726 -0.683591 -0.362072 0.446164 -0.793711 -0.413472 0.375871 -0.650674 -0.659807 
-0.0534364 -0.941666 -0.332279 -0.0480731 -0.97417 -0.220638 -0.184558 -0.93373 -0.306735 
-0.362129 -0.810796 -0.459861 -0.373781 -0.638983 -0.672301 -0.502599 -0.695946 -0.512887 
-0.499346 -0.69938 -0.511392 -0.500081 -0.695072 -0.51652 0.293749 -0.848712 -0.439773 
0.211264 -0.866189 -0.452863 0.202804 -0.840709 -0.502074 -0.0112489 -0.878497 -0.477615 
-0.0114396 -0.833783 -0.551974 -0.0573499 -0.939794 -0.336894 -0.114264 -0.902234 -0.415833 
-0.0992725 -0.880005 -0.464473 0.12332 0.579427 -0.805641 0.11545 0.555167 -0.823687 
0.111667 0.612585 -0.782477 -0.0775721 0.71433 -0.695496 -0.374507 0.561476 -0.737895 
0.482529 0.497279 -0.721027 0.247554 0.583914 -0.77315 0.258855 0.583838 -0.769498 
0.11187 0.548834 -0.828412 0.107135 0.489754 -0.865253 0.131793 0.432128 -0.89213 
-0.0743716 0.397618 -0.914532 -0.292464 0.483855 -0.824833 -0.363946 0.428274 -0.827119 
-0.200031 0.448846 -0.870933 -0.017839 0.394827 -0.918582 -0.089619 0.445543 -0.890764 
0.532847 0.461643 -0.709196 0.475016 0.458415 -0.751143 0.234225 0.473962 -0.848822 
0.0558736 0.502382 -0.862839 -0.00696199 0.465368 -0.88509 0.0118026 0.272254 -0.962153 
-0.071835 0.0907995 -0.993275 -0.274383 0.262946 -0.924972 -0.188844 0.370529 -0.909421 
-0.00259508 0.352141 -0.935943 -0.245077 0.301479 -0.921438 -0.0874956 0.328235 -0.940535 
-0.286137 0.25482 -0.923684 0.678678 0.288179 -0.675536 0.710662 0.227863 -0.665611 
0.471879 0.316721 -0.822811 -0.0964025 0.00282339 -0.995338 -0.0367511 0.215441 -0.975825 
-0.152869 0.413649 -0.897511 -0.121662 0.314044 -0.941581 -0.151147 0.170611 -0.973677 
-0.389405 0.115891 -0.913747 -0.28355 0.141138 -0.948514 0.768272 0.0671231 -0.636594 
0.729145 0.0739108 -0.680357 0.486606 0.106796 -0.86707 -0.0975385 0.179284 -0.97895 
-0.250747 0.177031 -0.951728 -0.264794 0.100444 -0.959059 -0.457437 -0.0393877 -0.888369 
-0.361444 0.0137822 -0.932292 0.770477 -0.14192 -0.621469 0.751293 -0.215849 -0.623673 
0.745278 -0.141516 -0.651563 0.486527 -0.127363 -0.864332 -0.0501769 -0.201838 -0.978133 
-0.0664101 -0.185531 -0.980392 -0.184986 -0.0587919 -0.980981 -0.307681 -0.06896 -0.948987 
-0.486982 -0.199867 -0.850236 -0.491959 -0.292317 -0.820077 -0.43964 -0.16423 -0.883032 
0.696039 -0.340948 -0.631889 0.504358 -0.329034 -0.798348 -0.264184 -0.245362 -0.93274 
-0.0998211 -0.227756 -0.968588 0.0197803 -0.245588 -0.969172 -0.137296 -0.227606 -0.964025 
-0.487688 -0.346207 -0.801437 -0.449073 -0.462033 -0.764761 -0.363022 -0.275828 -0.890019 
0.582826 -0.500317 -0.64031 0.568721 -0.515653 -0.640826 0.560895 -0.494339 -0.664097 
0.372565 -0.641839 -0.670252 0.316736 -0.443391 -0.8385 0.0966224 -0.398834 -0.911918 
-0.0582342 -0.380888 -0.922786 -0.142216 -0.402393 -0.904353 -0.124284 -0.321594 -0.938686 
-0.0587016 -0.17416 -0.982966 -0.0567779 -0.259016 -0.964203 -0.434674 -0.474255 -0.765598 
-0.329488 -0.536256 -0.777089 -0.224219 -0.387737 -0.894084 0.357789 -0.646866 -0.673462 
0.170604 -0.684809 -0.708471 0.15728 -0.60502 -0.780522 -0.014071 -0.684126 -0.729228 
-0.0262987 -0.576276 -0.816832 -0.0670293 -0.648385 -0.758356 -0.0790699 -0.558402 -0.825794 
0.00528402 -0.626015 -0.779793 -0.00114359 -0.518636 -0.854994 -0.0223478 -0.616202 -0.787271 
-0.0303996 -0.44626 -0.894387 -0.279577 -0.548004 -0.788371 -0.211716 -0.573734 -0.791205 
-0.205661 -0.492754 -0.845516 0.261169 0.382059 -0.886466 0.0687456 0.466372 -0.881914 
-0.0705506 0.46263 -0.88374 -0.272809 0.259402 -0.926437 0.329713 0.339971 -0.880743 
0.276728 0.347518 -0.895909 0.0973724 0.400829 -0.910964 -0.138486 0.428012 -0.8931 
-0.27649 0.250915 -0.927683 -0.28248 0.259078 -0.923625 0.113498 0.113332 -0.987053 
-0.123546 0.205323 -0.970865 0.467101 0.107297 -0.877669 0.309073 0.103082 -0.945435 
0.135935 0.0904706 -0.986578 -0.145966 0.0944768 -0.984768 -0.266431 0.18829 -0.945284 
-0.430398 0.173551 -0.885798 0.102014 0.107378 -0.988971 -0.172238 0.103855 -0.979565 
-0.000671596 -0.129477 -0.991582 0.142736 0.0907951 -0.985587 -0.155752 0.15829 -0.975031 
-0.0707136 -0.159857 -0.984604 -0.114442 0.146943 -0.982502 0.452807 -0.12836 -0.882321 
0.271579 -0.132272 -0.953283 0.103673 -0.193193 -0.975668 -0.0725086 -0.201407 -0.97682 
-0.225606 -0.0589124 -0.972436 -0.0712152 -0.164756 -0.98376 -0.241129 -0.113247 -0.963863 
-0.198929 0.0702107 -0.977496 0.312887 -0.31278 -0.896811 0.270477 -0.338603 -0.901216 
0.261931 -0.311141 -0.913556 0.0872654 -0.364719 -0.927019 0.0689993 -0.292211 -0.953862 
-0.051266 -0.358706 -0.932042 -0.0327986 -0.308093 -0.950791 -0.233732 -0.259911 -0.936918 
-0.149614 -0.340479 -0.928273 -0.146573 -0.290496 -0.945583 
