# vtk DataFile Version 4.2
vtk output
ASCII
DATASET POLYDATA
POINTS 574 float
-44.477 -30.3339 -15.3235 -1.54287 -30.3339 -15.123 7.04395 -30.3339 -17.002 
15.6308 -30.3339 -17.7562 24.2176 -30.3339 -16.938 32.8044 -30.3339 -14.9741 
-53.0638 -21.7471 -15.9437 -44.477 -21.7471 -17.1864 -35.8902 -21.7471 -17.9952 
-27.3033 -21.7471 -16.2475 -1.54287 -21.7471 -17.218 7.04395 -21.7471 -17.7159 
15.6308 -21.7471 -18.7611 24.2176 -21.7471 -18.0735 32.8044 -21.7471 -16.2297 
-53.0638 -13.1602 -17.7561 -44.477 -13.1602 -18.8682 -35.8902 -13.1602 -18.4453 
-27.3033 -13.1602 -17.0934 -18.7165 -13.1602 -15.3543 -1.54287 -13.1602 -19.7571 
7.04395 -13.1602 -17.6359 15.6308 -13.1602 -19.6713 24.2176 -13.1602 -16.6224 
32.8044 -13.1602 -15.865 41.3913 -13.1602 -15.5931 49.9781 -13.1602 -15.2803 
-53.0638 -4.57342 -17.5064 -44.477 -4.57342 -19.8169 -35.8902 -4.57342 -18.9377 
-27.3033 -4.57342 -17.5039 -18.7165 -4.57342 -15.3319 -10.1297 -4.57342 -14.9528 
-1.54287 -4.57342 -17.2555 7.04395 -4.57342 -19.3326 15.6308 -4.57342 -22.0829 
24.2176 -4.57342 -15.3567 32.8044 -4.57342 -16.0814 41.3913 -4.57342 -16.8744 
49.9781 -4.57342 -16.6125 58.5649 -4.57342 -15.7619 -53.0638 4.0134 -17.6622 
-44.477 4.0134 -19.4211 -35.8902 4.0134 -19.0684 -27.3033 4.0134 -17.6788 
-18.7165 4.0134 -15.8177 -10.1297 4.0134 -17.3476 -1.54287 4.0134 -17.6532 
7.04395 4.0134 -21.0419 24.2176 4.0134 -15.5842 32.8044 4.0134 -16.9825 
41.3913 4.0134 -18.1526 49.9781 4.0134 -17.4134 58.5649 4.0134 -16.436 
67.1517 4.0134 -14.9154 -53.0638 12.6002 -18.3488 -44.477 12.6002 -19.6862 
-35.8902 12.6002 -19.034 -27.3033 12.6002 -17.9879 -18.7165 12.6002 -16.3352 
-10.1297 12.6002 -15.0188 -1.54287 12.6002 -16.0357 7.04395 12.6002 -19.5352 
15.6308 12.6002 -15.558 24.2176 12.6002 -16.2411 32.8044 12.6002 -17.7461 
41.3913 12.6002 -19.3125 49.9781 12.6002 -17.4863 58.5649 12.6002 -16.5842 
-53.0638 21.1871 -17.4169 -44.477 21.1871 -18.5286 -35.8902 21.1871 -18.7775 
-27.3033 21.1871 -18.9326 -18.7165 21.1871 -17.7197 -10.1297 21.1871 -17.012 
-1.54287 21.1871 -17.9453 7.04395 21.1871 -18.8954 15.6308 21.1871 -17.2629 
24.2176 21.1871 -17.2202 32.8044 21.1871 -17.2358 41.3913 21.1871 -17.8142 
49.9781 21.1871 -17.5927 -44.477 29.7739 -16.6881 -35.8902 29.7739 -18.3913 
-27.3033 29.7739 -18.2039 -18.7165 29.7739 -18.5674 -10.1297 29.7739 -18.1669 
-1.54287 29.7739 -18.6481 7.04395 29.7739 -18.1518 15.6308 29.7739 -15.9473 
24.2176 29.7739 -15.7631 32.8044 29.7739 -14.9651 41.3913 29.7739 -15.6822 
-35.8902 38.3607 -16.2198 -27.3033 38.3607 -16.5053 -18.7165 38.3607 -17.3495 
-10.1297 38.3607 -17.4093 -1.54287 38.3607 -16.9699 7.04395 38.3607 -14.9563 
-44.477 -31.1568 -14.8924 -44.477 -38.9207 -8.95397 -35.8902 -38.9207 -9.70162 
-27.3033 -38.9207 -9.80508 -18.7165 -38.9207 -8.58308 -10.1297 -38.9207 -8.73974 
-1.54287 -30.8844 -14.8924 -1.54287 -38.9207 -10.8343 7.04395 -35.7419 -14.8924 
7.04395 -38.9207 -13.2913 15.6308 -37.436 -14.8924 15.6308 -38.9207 -14.1756 
24.2176 -36.6664 -14.8924 24.2176 -38.9207 -13.8975 32.8044 -30.5138 -14.8924 
32.8044 -38.9207 -10.001 41.3913 -38.9207 -6.64342 -61.6506 -30.3339 -6.83566 
-45.4982 -30.3339 -14.8924 -53.0638 -23.8842 -14.8924 -53.0638 -30.3339 -11.7016 
-39.5418 -30.3339 -14.8924 -35.8902 -29.6262 -14.8924 -35.8902 -30.3339 -14.6196 
-27.3033 -26.1306 -14.8924 -27.3033 -30.3339 -13.6335 -18.7165 -30.3339 -13.1367 
-2.48186 -30.3339 -14.8924 -10.1297 -30.3339 -12.9338 33.038 -30.3339 -14.8924 
41.3913 -30.3339 -11.941 49.9781 -30.3339 -8.22738 -56.4532 -21.7471 -14.8924 
-61.6506 -21.7471 -12.2255 -20.303 -21.7471 -14.8924 -18.7165 -18.2521 -14.8924 
-18.7165 -21.7471 -14.5874 -7.47523 -21.7471 -14.8924 -10.1297 -21.7471 -13.8798 
38.8845 -21.7471 -14.8924 41.3913 -17.8592 -14.8924 41.3913 -21.7471 -14.3392 
49.9781 -14.2982 -14.8924 49.9781 -21.7471 -12.5971 58.5649 -21.7471 -9.84974 
-59.4165 -13.1602 -14.8924 -61.6506 -13.1602 -13.5486 -15.4383 -13.1602 -14.8924 
-8.92296 -13.1602 -14.8924 -10.1297 -4.81938 -14.8924 -10.1297 -13.1602 -14.1639 
51.3751 -13.1602 -14.8924 58.5649 -7.09746 -14.8924 58.5649 -13.1602 -13.0371 
67.1517 -13.1602 -8.51332 -59.7862 -4.57342 -14.8924 -61.6506 -4.57342 -14.069 
15.6308 3.00021 -14.8924 63.2925 -4.57342 -14.8924 67.1517 3.6575 -14.8924 
67.1517 -4.57342 -13.882 -60.3377 4.0134 -14.8924 -61.6506 4.0134 -14.3025 
14.8746 4.0134 -14.8924 18.9966 4.0134 -14.8924 15.6308 7.7028 -14.8924 
15.6308 4.0134 -14.4389 67.1867 4.0134 -14.8924 67.1517 4.5977 -14.8924 
-59.4531 12.6002 -14.8924 -61.6506 12.6002 -13.1415 65.3553 12.6002 -14.8924 
58.5649 18.6281 -14.8924 67.1517 12.6002 -14.1426 -58.7545 21.1871 -14.8924 
-61.6506 21.1871 -12.5662 -53.0638 26.8467 -14.8924 57.182 21.1871 -14.8924 
49.9781 26.9733 -14.8924 58.5649 21.1871 -14.1543 67.1517 21.1871 -8.84913 
-49.8531 29.7739 -14.8924 -53.0638 29.7739 -13.5265 -44.477 34.4081 -14.8924 
15.6308 32.3859 -14.8924 24.2176 31.526 -14.8924 32.8044 29.9058 -14.8924 
44.4068 29.7739 -14.8924 41.3913 31.1486 -14.8924 49.9781 29.7739 -12.7148 
58.5649 29.7739 -8.9966 -53.0638 38.3607 -7.81551 -40.0079 38.3607 -14.8924 
-44.477 38.3607 -12.8464 -35.8902 40.3987 -14.8924 -27.3033 41.2045 -14.8924 
-18.7165 42.6898 -14.8924 -10.1297 42.994 -14.8924 -1.54287 41.7062 -14.8924 
7.24913 38.3607 -14.8924 7.04395 38.4493 -14.8924 15.6308 38.3607 -11.7194 
24.2176 38.3607 -9.69616 32.8044 38.3607 -8.6735 -35.8902 46.9475 -6.98746 
-27.3033 46.9475 -9.51618 -18.7165 46.9475 -11.2086 -10.1297 46.9475 -10.9077 
-1.54287 46.9475 -9.00418 -44.477 -41.1639 -6.30558 -35.8902 -42.2562 -6.30558 
-27.3033 -42.5864 -6.30558 -18.7165 -41.7066 -6.30558 -10.1297 -41.7345 -6.30558 
-1.54287 -43.3662 -6.30558 7.04395 -45.5225 -6.30558 7.04395 -47.5075 2.19933 
15.6308 -46.2812 -6.30558 24.2176 -45.2859 -6.30558 32.8044 -42.2641 -6.30558 
41.3913 -39.1539 -6.30558 -61.6506 -30.8938 -6.30558 -51.6638 -38.9207 -6.30558 
-53.0638 -38.3934 -6.30558 -53.0638 -38.9207 -5.04309 41.8159 -38.9207 -6.30558 
49.9781 -32.1285 -6.30558 -62.1191 -30.3339 -6.30558 53.6556 -30.3339 -6.30558 
58.5649 -26.8445 -6.30558 58.5649 -30.3339 0.234243 -65.894 -21.7471 -6.30558 
64.6721 -21.7471 -6.30558 67.1517 -18.6707 -6.30558 67.1517 -21.7471 -3.08222 
-69.9323 -13.1602 -6.30558 69.5841 -13.1602 -6.30558 -70.1523 -4.57342 -6.30558 
74.7711 -4.57342 -6.30558 -69.1378 4.0134 -6.30558 74.2884 4.0134 -6.30558 
-67.6093 12.6002 -6.30558 72.0628 12.6002 -6.30558 -64.6653 21.1871 -6.30558 
-61.6506 28.2945 -6.30558 68.6614 21.1871 -6.30558 67.1517 23.0325 -6.30558 
-60.8398 29.7739 -6.30558 41.3913 38.309 -6.30558 49.9781 35.3357 -6.30558 
60.5136 29.7739 -6.30558 58.5649 31.372 -6.30558 58.5649 29.7739 0.218919 
-54.0217 38.3607 -6.30558 -53.0638 39.2159 -6.30558 -53.0638 38.3607 -2.47053 
-44.477 45.0135 -6.30558 7.04395 46.0215 -6.30558 15.6308 42.9897 -6.30558 
24.2176 41.1581 -6.30558 41.148 38.3607 -6.30558 32.8044 39.9122 -6.30558 
41.3913 38.3607 -0.0786224 -37.7411 46.9475 -6.30558 -35.8902 47.3587 -6.30558 
-35.8902 46.9475 0.0214925 -27.3033 48.8609 -6.30558 -18.7165 49.6996 -6.30558 
-10.1297 49.6434 -6.30558 4.05813 46.9475 -6.30558 -1.54287 48.546 -6.30558 
7.04395 46.9475 -3.09452 7.04395 -47.5235 2.28125 -53.0638 -40.8181 2.28125 
-44.477 -44.9131 2.28125 -35.8902 -46.0713 2.28125 -27.3033 -46.1649 2.28125 
-18.7165 -46.132 2.28125 -10.1297 -46.0014 2.28125 6.88293 -47.5075 2.28125 
-1.54287 -46.6725 2.28125 8.43814 -47.5075 2.28125 7.04395 -47.5075 2.33623 
15.6308 -47.4213 2.28125 24.2176 -46.0832 2.28125 32.8044 -43.3454 2.28125 
41.3913 -39.6319 2.28125 -55.7182 -38.9207 2.28125 -61.6506 -33.2526 2.28125 
-53.0638 -38.9207 7.38641 32.8044 -38.9207 9.20338 42.9811 -38.9207 2.28125 
41.3913 -38.9207 3.82336 49.9781 -35.6962 2.28125 58.5649 -30.8424 2.28125 
-63.9959 -30.3339 2.28125 -61.6506 -30.3339 6.89639 59.2571 -30.3339 2.28125 
58.5649 -30.3339 3.6288 67.1517 -23.6067 2.28125 -67.6847 -21.7471 2.28125 
68.93 -21.7471 2.28125 67.1517 -21.7471 5.89572 -69.87 -13.1602 2.28125 
73.5836 -13.1602 2.28125 -69.7911 -4.57342 2.28125 75.3734 -4.57342 2.28125 
-68.4064 4.0134 2.28125 -61.6506 4.0134 10.2351 75.2476 4.0134 2.28125 
-66.3193 12.6002 2.28125 -61.6506 12.6002 7.83634 71.6422 12.6002 2.28125 
67.1517 12.6002 7.91153 -62.7182 21.1871 2.28125 -61.6506 23.6019 2.28125 
-61.6506 21.1871 3.55588 58.5649 29.0887 2.28125 58.5649 21.1871 10.2551 
67.4353 21.1871 2.28125 67.1517 21.5103 2.28125 67.1517 21.1871 2.64584 
-58.4496 29.7739 2.28125 -53.0638 36.8213 2.28125 -53.0638 29.7739 7.35912 
57.6777 29.7739 2.28125 49.9781 34.5165 2.28125 49.9781 29.7739 9.06153 
-51.5163 38.3607 2.28125 -44.477 43.5557 2.28125 -44.477 38.3607 7.92297 
-35.8902 46.798 2.28125 15.6308 45.5637 2.28125 24.2176 43.1277 2.28125 
32.8044 40.9395 2.28125 32.8044 38.3607 7.988 41.4354 38.3607 2.28125 
41.3913 38.3787 2.28125 41.3913 38.3607 2.31739 -35.1314 46.9475 2.28125 
-27.3033 48.374 2.28125 -27.3033 46.9475 4.87465 -18.7165 49.5176 2.28125 
-18.7165 46.9475 7.14887 -10.1297 49.8003 2.28125 -10.1297 46.9475 7.62473 
-1.54287 49.6749 2.28125 -1.54287 46.9475 8.62721 11.2646 46.9475 2.28125 
7.04395 48.2673 2.28125 7.04395 46.9475 6.09616 -44.477 -41.5493 10.8681 
-35.8902 -42.5664 10.8681 -27.3033 -43.6961 10.8681 -18.7165 -43.7175 10.8681 
-10.1297 -43.212 10.8681 -1.54287 -43.3479 10.8681 7.04395 -43.817 10.8681 
15.6308 -42.875 10.8681 24.2176 -40.2317 10.8681 -50.0909 -38.9207 10.8681 
-53.0638 -36.0688 10.8681 -44.477 -38.9207 13.428 -35.8902 -38.9207 14.2255 
-27.3033 -38.9207 15.0233 -18.7165 -38.9207 15.0138 -10.1297 -38.9207 14.721 
-1.54287 -38.9207 14.9935 7.04395 -38.9207 14.8942 15.6308 -38.9207 14.0555 
28.2156 -38.9207 10.8681 24.2176 -38.9207 11.9375 32.8044 -37.313 10.8681 
41.3913 -34.3862 10.8681 49.9781 -31.6404 10.8681 -58.0499 -30.3339 10.8681 
-61.6506 -25.0731 10.8681 -53.0638 -30.3339 13.9764 -44.477 -30.3339 17.3417 
-35.8902 -30.3339 18.5687 -27.3033 -30.3339 18.2149 -18.7165 -30.3339 18.1228 
[...]
POINT_DATA 574
SCALARS ImageScalars float
LOOKUP_TABLE default
0 0 0 0 0 0 0 0 0 
0 0 0 0 0 0 0 0 0 
0 0 0 0 0 0 0 0 0 
0 0 0 0 0 0 0 0 0 
0 0 0 0 0 0 0 0 0 
0 0 0 0 0 0 0 0 0 
0 0 0 0 0 0 0 0 0 
0 0 0 0 0 0 0 0 0 
0 0 0 0 0 0 0 0 0 
0 0 0 0 0 0 0 0 0 
0 0 0 0 0 0 0 0 0 
0 0 0 0 0 0 0 0 0 
0 0 0 0 0 0 0 0 0 
0 0 0 0 0 0 0 0 0 
0 0 0 0 0 0 0 0 0 
0 0 0 0 0 0 0 0 0 
0 0 0 0 0 0 0 0 0 
0 0 0 0 0 0 0 0 0 
0 0 0 0 0 0 0 0 0 
0 0 0 0 0 0 0 0 0 
0 0 0 0 0 0 0 0 0 
0 0 0 0 0 0 0 0 0 
0 0 0 0 0 0 0 0 0 
0 0 0 0 0 0 0 0 0 
0 0 0 0 0 0 0 0 0 
0 0 0 0 0 0 0 0 0 
0 0 0 0 0 0 0 0 0 
0 0 0 0 0 0 0 0 0 
0 0 0 0 0 0 0 0 0 
0 0 0 0 0 0 0 0 0 
0 0 0 0 0 0 0 0 0 
0 0 0 0 0 0 0 0 0 
0 0 0 0 0 0 0 0 0 
0 0 0 0 0 0 0 0 0 
0 0 0 0 0 0 0 0 0 
0 0 0 0 0 0 0 0 0 
0 0 0 0 0 0 0 0 0 
0 0 0 0 0 0 0 0 0 
0 0 0 0 0 0 0 0 0 
0 0 0 0 0 0 0 0 0 
0 0 0 0 0 0 0 0 0 
0 0 0 0 0 0 0 0 0 
0 0 0 0 0 0 0 0 0 
0 0 0 0 0 0 0 0 0 
0 0 0 0 0 0 0 0 0 
0 0 0 0 0 0 0 0 0 
0 0 0 0 0 0 0 0 0 
0 0 0 0 0 0 0 0 0 
0 0 0 0 0 0 0 0 0 
0 0 0 0 0 0 0 0 0 
0 0 0 0 0 0 0 0 0 
0 0 0 0 0 0 0 0 0 
0 0 0 0 0 0 0 0 0 
0 0 0 0 0 0 0 0 0 
0 0 0 0 0 0 0 0 0 
0 0 0 0 0 0 0 0 0 
0 0 0 0 0 0 0 0 0 
0 0 0 0 0 0 0 0 0 
0 0 0 0 0 0 0 0 0 
0 0 0 0 0 0 0 0 0 
0 0 0 0 0 0 0 0 0 
0 0 0 0 0 0 0 0 0 
0 0 0 0 0 0 0 0 0 
0 0 0 0 0 0 0 
NORMALS Normals float
-0.146154 -0.347974 -0.926042 -0.224433 -0.309008 -0.924199 -0.144247 -0.215267 -0.965843 
0.00266864 -0.234244 -0.972174 0.150662 -0.222291 -0.963269 0.274904 -0.283592 -0.918696 
-0.226708 -0.339752 -0.912783 -0.10454 -0.182885 -0.97756 0.05639 -0.217505 -0.974429 
0.190127 -0.185141 -0.964144 -0.208397 -0.251928 -0.945041 -0.0880322 -0.0378023 -0.9954 
-0.0191064 -0.103057 -0.994492 0.150376 0.00886269 -0.988589 0.216754 -0.0451364 -0.975182 
-0.261696 -0.0735968 -0.96234 -0.0457479 -0.150326 -0.987577 0.100096 -0.0535612 -0.993535 
0.174751 -0.0720291 -0.981974 0.157729 -0.0434564 -0.986526 -0.0926192 -0.0441087 -0.994724 
0.00376412 -0.0706135 -0.997497 0.0466094 -0.126723 -0.990843 0.210608 0.158212 -0.964683 
0.0541362 0.00902804 -0.998493 0.0331762 -0.14858 -0.988344 0.150803 -0.240974 -0.958744 
-0.284247 0.006603 -0.958728 -0.0778935 -0.027854 -0.996572 0.13096 -0.0358363 -0.99074 
0.205381 -0.0329152 -0.978128 0.143087 -0.0288121 -0.989291 -0.114739 -0.157808 -0.980781 
-0.174329 0.147599 -0.973562 -0.207561 -0.220842 -0.952968 0.319043 0.0500765 -0.946416 
0.146909 0.0545152 -0.987647 -0.0831329 -0.0629797 -0.994546 -0.0311871 -0.146832 -0.98867 
0.0579213 -0.116073 -0.99155 0.158339 -0.206474 -0.965555 -0.259785 -0.0542962 -0.964139 
-0.0752225 0.00722555 -0.997141 0.102099 -0.00557116 -0.994759 0.186329 -0.0276872 -0.982097 
0.0759246 -0.060846 -0.995255 -0.146844 0.113525 -0.982623 -0.19361 0.0783225 -0.977947 
-0.00399933 0.0139054 -0.999895 -0.118161 -0.050206 -0.991724 -0.149403 -0.0972667 -0.983981 
-0.0227175 -0.14456 -0.989235 0.0947501 -0.0512504 -0.994181 0.17892 -0.0465412 -0.982762 
0.458274 -0.0147571 -0.888689 -0.295691 0.00354353 -0.955277 -0.0555243 0.0492297 -0.997243 
0.0962892 0.0168453 -0.995211 0.154966 -0.0721406 -0.985282 0.166487 -0.109705 -0.979922 
0.0273597 -0.0627817 -0.997652 -0.2646 -0.0373599 -0.963634 0.038588 0.113367 -0.992804 
0.186595 -0.142353 -0.972069 -0.121716 -0.0928227 -0.988215 -0.18197 -0.0130437 -0.983218 
0.0131698 0.0165494 -0.999776 0.158159 -0.011415 -0.987348 0.21391 0.121201 -0.969305 
-0.293112 0.258166 -0.920562 -0.0672492 0.171976 -0.982803 -0.0227593 0.0361436 -0.999087 
0.0613598 -0.0126127 -0.998036 0.109951 -0.128958 -0.985536 -0.0101798 -0.176358 -0.984273 
-0.112126 -0.138117 -0.984048 0.0411388 0.077385 -0.996152 0.0983541 -0.0153387 -0.995033 
0.00155619 0.0316306 -0.999498 -0.0330744 0.142126 -0.989296 -0.0188752 0.224517 -0.974287 
0.165105 0.194859 -0.966835 -0.233157 0.262254 -0.936409 -0.0868938 0.1565 -0.983848 
-0.0113623 0.132617 -0.991102 0.00229931 0.0127907 -0.999916 -0.0038212 -0.0215282 -0.999761 
0.000212778 0.0563876 -0.998409 0.152975 0.209698 -0.965725 0.136846 0.26173 -0.95539 
0.0490495 0.325543 -0.944254 0.0051269 0.381793 -0.924233 0.0874709 0.406423 -0.909489 
-0.154968 0.421871 -0.893314 -0.0611833 0.34095 -0.938088 -0.0496693 0.327294 -0.943616 
0.0217495 0.294834 -0.955301 0.132278 0.382813 -0.914307 0.25485 0.507868 -0.822874 
-0.144153 -0.375725 -0.915451 -0.1492 -0.741939 -0.653656 -0.0325424 -0.681028 -0.731534 
0.0607957 -0.605866 -0.79324 0.0573553 -0.607143 -0.79252 -0.109338 -0.591866 -0.798586 
-0.225278 -0.322782 -0.919273 -0.223626 -0.604439 -0.764621 -0.15464 -0.419228 -0.894614 
-0.161589 -0.568517 -0.806646 -0.0257241 -0.477341 -0.878342 -0.0302709 -0.544225 -0.838393 
0.170116 -0.437914 -0.882775 0.183032 -0.542944 -0.81958 0.275936 -0.289333 -0.916595 
0.326473 -0.683212 -0.653174 0.432414 -0.811484 -0.39308 -0.687063 -0.532725 -0.494113 
-0.174505 -0.351824 -0.919657 -0.255165 -0.362187 -0.8965 -0.400786 -0.430345 -0.80881 
-0.00490075 -0.366927 -0.930237 0.088756 -0.363853 -0.927218 0.0899485 -0.378047 -0.921406 
0.135071 -0.271666 -0.952866 0.0844981 -0.350618 -0.932699 0.0408397 -0.322214 -0.945786 
-0.212652 -0.303594 -0.928768 -0.109716 -0.264592 -0.958099 0.274633 -0.284814 -0.918399 
0.311682 -0.370822 -0.87484 0.420118 -0.647734 -0.635564 -0.357746 -0.322938 -0.876201 
-0.618482 -0.297255 -0.727406 0.144681 -0.135698 -0.980129 0.148582 -0.0903048 -0.984768 
0.134761 -0.122639 -0.983259 -0.179608 -0.123948 -0.975898 -0.148093 -0.0698353 -0.986505 
0.212462 -0.149061 -0.965733 0.133161 -0.171433 -0.976155 0.20798 -0.191805 -0.959143 
0.150541 -0.24327 -0.958205 0.198305 -0.288527 -0.936711 0.426929 -0.4872 -0.761818 
-0.467079 -0.0547155 -0.882521 -0.561901 -0.0691954 -0.824305 0.0179136 -0.0547864 -0.998337 
-0.276394 -0.0573603 -0.959331 -0.119345 -0.153918 -0.98085 -0.262556 -0.0672866 -0.962568 
0.17218 -0.23886 -0.955667 0.186923 -0.20734 -0.960245 0.298365 -0.246856 -0.921976 
0.632502 -0.385084 -0.67205 -0.437797 -0.0231382 -0.898776 -0.508475 -0.0384277 -0.860219 
0.313658 0.246507 -0.91698 0.327735 -0.230834 -0.916136 0.458768 -0.0245081 -0.888218 
0.471794 -0.250085 -0.845498 -0.458333 0.0220193 -0.888508 -0.51764 0.0467036 -0.854323 
0.311572 0.196347 -0.929715 0.103585 0.0948766 -0.990085 0.256035 0.0268063 -0.966296 
0.303556 0.208675 -0.929682 0.460111 -0.0146449 -0.88774 0.463285 -0.000967891 -0.886209 
-0.534229 0.033323 -0.844683 -0.667844 0.0742603 -0.740587 0.462092 0.185784 -0.867154 
0.347825 0.249479 -0.903757 0.551017 0.206429 -0.808559 -0.529564 0.238353 -0.814095 
-0.734651 0.253243 -0.629409 -0.36616 0.340838 -0.865885 0.368282 0.283275 -0.885508 
0.238356 0.448877 -0.861218 0.426374 0.314836 -0.847988 0.738058 0.541356 -0.402745 
-0.340576 0.319102 -0.884411 -0.461085 0.38558 -0.799205 -0.281992 0.365278 -0.88716 
0.159048 0.353939 -0.921646 0.0636396 0.388129 -0.919405 0.0057773 0.386575 -0.92224 
0.147847 0.465944 -0.872375 0.094363 0.473165 -0.875906 0.2979 0.638166 -0.709929 
0.559307 0.738129 -0.377282 -0.634974 0.726523 -0.262626 -0.232953 0.443167 -0.865642 
-0.3699 0.538044 -0.757419 -0.159267 0.510271 -0.845138 -0.0791364 0.480289 -0.873533 
-0.0584935 0.503525 -0.861998 0.0380404 0.532828 -0.845368 0.169732 0.531332 -0.829986 
0.254387 0.509568 -0.821966 0.255717 0.511014 -0.820654 0.232149 0.636676 -0.735357 
0.133606 0.757512 -0.639003 0.121542 0.852727 -0.508019 -0.188866 0.937132 -0.29345 
-0.15243 0.890256 -0.429195 -0.0494618 0.812817 -0.580415 0.0746776 0.835302 -0.544695 
0.201375 0.861684 -0.465779 -0.196398 -0.812422 -0.548998 -0.0629116 -0.796032 -0.601976 
0.0236916 -0.797202 -0.603247 0.0441815 -0.718476 -0.694147 -0.0827504 -0.722571 -0.686326 
-0.183464 -0.804684 -0.564646 -0.146783 -0.878884 -0.453892 -0.044689 -0.998049 0.0435904 
0.014435 -0.921353 -0.38846 0.201688 -0.911296 -0.358972 0.348958 -0.845616 -0.403933 
0.432502 -0.82177 -0.370992 -0.695209 -0.538729 -0.475873 -0.387818 -0.793762 -0.468549 
-0.431332 -0.774568 -0.462598 -0.452434 -0.809926 -0.37326 0.438414 -0.81614 -0.376443 
0.458583 -0.715239 -0.527384 -0.705987 -0.526945 -0.473193 0.469569 -0.685439 -0.556487 
0.504849 -0.620425 -0.600167 0.57557 -0.813457 -0.0837055 -0.825597 -0.374841 -0.421762 
0.576748 -0.544911 -0.608633 0.634854 -0.478196 -0.606867 0.701708 -0.61839 -0.353836 
-0.917298 -0.192306 -0.348687 0.691433 -0.388087 -0.609352 -0.953067 0.0458328 -0.29927 
0.805359 -0.220754 -0.550149 -0.962203 0.136333 -0.235751 0.878382 0.145617 -0.455237 
-0.94488 0.246051 -0.216009 0.899515 0.336296 -0.278888 -0.917153 0.380157 -0.119632 
-0.858592 0.49602 -0.129549 0.817533 0.536415 -0.209521 0.777394 0.597002 -0.198108 
-0.840695 0.520599 -0.149026 0.237909 0.935594 -0.26089 0.401435 0.887768 -0.225207 
0.611109 0.775212 -0.159973 0.568357 0.807736 -0.156634 0.595837 0.749498 0.288497 
-0.665754 0.731326 -0.148099 -0.641799 0.751833 -0.151135 -0.673705 0.730787 0.109875 
-0.435395 0.879734 -0.191048 0.28918 0.859426 -0.421619 0.246345 0.841986 -0.479972 
0.17344 0.873582 -0.454724 0.235157 0.935455 -0.263865 0.153597 0.918872 -0.363432 
0.32712 0.939392 0.10264 -0.242038 0.941611 -0.234066 -0.195139 0.94746 -0.253458 
-0.233718 0.957143 0.171034 -0.135962 0.961721 -0.237921 -0.0429315 0.972862 -0.22737 
0.0642858 0.959746 -0.273414 0.256889 0.886811 -0.384155 0.194045 0.922841 -0.332734 
0.273219 0.932849 -0.234827 -0.0437964 -0.997902 0.047684 -0.518061 -0.853992 0.048076 
-0.288414 -0.95735 0.0172539 -0.0671692 -0.997668 -0.0121193 -0.00354033 -0.998043 -0.0624346 
0.00976721 -0.996773 -0.0796772 -0.0321609 -0.997188 -0.067686 -0.0446198 -0.997918 0.0465604 
-0.0888455 -0.996008 -0.00863833 -0.0240432 -0.997821 0.0614491 -0.0434913 -0.997778 0.0504742 
0.080565 -0.987649 0.134381 0.232788 -0.952312 0.197262 0.342453 -0.919091 0.194929 
0.405897 -0.896734 0.176398 -0.595637 -0.800665 0.0644352 -0.779166 -0.616421 0.113686 
-0.553114 -0.745709 0.37146 0.257227 -0.748373 0.611369 0.418314 -0.893156 0.165184 
0.393431 -0.884325 0.251359 0.462665 -0.884252 0.0635614 0.565185 -0.823453 0.04991 
-0.837211 -0.538575 0.0949475 -0.742695 -0.576253 0.341082 0.575264 -0.816113 0.0550592 
0.574341 -0.806477 0.140453 0.73161 -0.679114 0.0595973 -0.938621 -0.308953 0.153423 
0.773059 -0.63189 0.0556315 0.734875 -0.62235 0.269516 -0.954306 -0.11584 0.275464 
0.935194 -0.343564 0.0858849 -0.947995 0.0796194 0.308167 0.969787 -0.0841166 0.228991 
-0.932681 0.218386 0.287077 -0.52877 0.282002 0.800548 0.947715 0.185344 0.259775 
-0.864064 0.333611 0.376957 -0.619293 0.337233 0.709049 0.853484 0.44288 0.274632 
0.637072 0.462089 0.616938 -0.792936 0.390632 0.46761 -0.77587 0.443349 0.448852 
-0.756732 0.378791 0.532799 0.577541 0.704624 0.412252 0.468845 0.47974 0.741643 
0.721555 0.573627 0.387698 0.712623 0.583703 0.389177 0.711008 0.574058 0.40611 
-0.744774 0.522419 0.415198 -0.654903 0.627632 0.420927 -0.526838 0.447577 0.722576 
0.568808 0.716399 0.404017 0.458028 0.830694 0.316476 0.429863 0.616965 0.659221 
-0.629827 0.663225 0.404289 -0.481635 0.782814 0.393992 -0.48235 0.542101 0.688088 
-0.239811 0.91813 0.315482 0.291088 0.956458 0.0213669 0.267891 0.957943 0.102859 
0.262174 0.95426 0.143713 0.263411 0.837291 0.479122 0.349391 0.907022 0.235024 
0.348791 0.907368 0.234581 0.349117 0.906774 0.236386 -0.230513 0.921988 0.31113 
-0.148736 0.948256 0.280513 -0.164679 0.900555 0.402346 -0.0815728 0.964147 0.252518 
-0.0890466 0.847361 0.523498 -0.00940448 0.973201 0.229762 -0.0426354 0.855033 0.516818 
0.0874963 0.987735 0.129321 0.0213908 0.871072 0.490689 0.25898 0.965412 0.0301479 
0.23158 0.971694 0.0467062 0.213661 0.941245 0.261548 -0.250035 -0.758613 0.601655 
-0.111672 -0.771686 0.626123 -0.0532262 -0.829122 0.556528 0.0221932 -0.818203 0.574501 
0.0188332 -0.809922 0.586236 -0.0268504 -0.798388 0.601545 0.0202959 -0.766986 0.641343 
0.152692 -0.702621 0.694989 0.227811 -0.631259 0.741359 -0.434169 -0.667141 0.605327 
-0.522922 -0.565098 0.638135 -0.23695 -0.658398 0.714399 -0.088395 -0.612425 0.785571 
-0.0393982 -0.560216 0.827409 0.01561 -0.55584 0.831143 0.00244599 -0.548124 0.836394 
-0.00850332 -0.529383 0.84834 0.0513134 -0.500998 0.863926 0.150661 -0.507788 0.848205 
0.225906 -0.643956 0.73095 0.217228 -0.585317 0.781163 0.21308 -0.652266 0.727424 
0.256868 -0.681745 0.685013 0.306111 -0.705511 0.63918 -0.579028 -0.4893 0.652159 
-0.650759 -0.379803 0.657467 -0.415419 -0.415419 0.809231 -0.210598 -0.301036 0.930068 
-0.0513196 -0.286329 0.956756 0.0234191 -0.234545 0.971823 0.0331663 -0.216789 0.975655 
0.0183883 -0.180492 0.983405 -0.00115785 -0.171902 0.985113 0.0416106 -0.189407 0.981017 
0.0922137 -0.2425 0.965759 0.0850381 -0.313509 0.94577 0.0777004 -0.40472 0.911134 
0.18611 -0.529834 0.827429 0.376086 -0.660097 0.650255 0.317181 -0.641722 0.698276 
0.498752 -0.547626 0.671828 -0.679917 -0.261651 0.685019 -0.636728 -0.250889 0.729132 
-0.380906 -0.134716 0.914747 -0.112856 -0.155385 0.981386 0.0485218 -0.097434 0.994058 
0.0565523 -0.0404923 0.997578 0.027903 -0.060174 0.997798 -0.0155594 -0.109441 0.993872 
-0.0040413 -0.134111 0.990958 0.0423978 -0.101443 0.993937 0.0320335 -0.168154 0.98524 
-0.00763954 -0.235215 0.971913 0.0998694 -0.25884 0.960743 0.212992 -0.336788 0.917174 
0.580192 -0.507712 0.636872 0.386447 -0.449037 0.805621 0.633741 -0.342099 0.693787 
-0.739827 -0.0401615 0.671597 -0.583966 -0.0250251 0.811392 -0.316038 0.0785942 0.945486 
0.0658875 0.0113713 0.997762 -0.0485769 -0.0692322 0.996417 0.0539668 -0.0230166 0.998277 
-0.0413874 -0.108335 0.993253 0.164439 -0.175592 0.970632 0.390285 -0.181366 0.902654 
0.640396 -0.251011 0.725869 0.602058 -0.236459 0.762636 -0.639895 0.151107 0.75346 
-0.517448 0.264386 0.813847 -0.543328 0.171224 0.821874 -0.321264 0.161988 0.933033 
-0.175729 0.205962 0.962652 -0.0376535 0.169814 0.984756 0.0204172 0.126903 0.991705 
-0.02684 0.0241661 0.999348 0.00265283 0.0102635 0.999944 -0.0143952 -0.0082117 0.999863 
0.184841 -0.0195948 0.982573 0.350703 -0.0138454 0.936384 0.675385 -0.0120253 0.737367 
0.544167 -0.019828 0.838743 -0.468374 0.277751 0.838738 -0.273208 0.234102 0.933034 
-0.167522 0.197962 0.965788 -0.0763355 0.171759 0.982177 -0.0663786 0.116481 0.990972 
-0.142277 0.065062 0.987686 0.0372971 0.0771483 0.996322 -0.10333 0.0118965 0.994576 
0.184668 0.138926 0.972932 0.364044 0.180327 0.913759 0.624898 0.209269 0.752136 
0.568196 0.30409 0.764646 0.569571 0.210869 0.794432 -0.422466 0.198416 0.884394 
-0.3729 0.165636 0.912968 -0.221597 0.103443 0.969636 -0.121017 0.0860297 0.988916 
-0.0888343 0.0210431 0.995824 -0.0254798 0.0609874 0.997813 -0.115987 0.206813 0.971481 
0.0701199 0.131441 0.988841 -0.114105 0.0838282 0.989926 0.185982 0.192226 0.963566 
0.293256 0.254015 0.921671 0.499944 0.382541 0.776993 0.460115 0.445851 0.767796 
0.418342 0.331236 0.845738 -0.481002 0.211124 0.850919 -0.472376 0.223984 0.852462 
-0.474642 0.209009 0.855003 -0.281155 0.20099 0.938379 -0.166047 0.0779027 0.983036 
-0.0917845 0.0343688 0.995186 0.0393594 0.0620195 0.997299 0.0166821 0.0437102 0.998905 
-0.0127856 0.151794 0.98833 -0.0276475 0.0685813 0.997262 -0.114043 0.134515 0.984327 
-0.0533026 0.235861 0.970324 0.108792 0.278133 0.954362 0.240806 0.32705 0.913811 
0.444174 0.462222 0.767503 0.391558 0.526434 0.754685 0.338021 0.403041 0.85047 
-0.393029 0.307987 0.866413 -0.401833 0.322172 0.857167 -0.383818 0.292365 0.875903 
-0.262526 0.186614 0.946708 -0.0983967 0.217061 0.971186 -0.0178772 0.187549 0.982092 
-0.0180135 0.101212 0.994702 -0.0104236 0.0715298 0.997384 0.0323467 0.0675017 0.997195 
0.0611479 0.211197 0.975529 0.0565941 0.390446 0.918885 0.24258 0.696063 0.67576 
0.15535 0.459487 0.874493 0.36461 0.56954 0.736671 0.325386 0.610535 0.72206 
0.305578 0.552389 0.775557 -0.325925 0.491218 0.807761 -0.252017 0.566541 0.78455 
-0.245502 0.484974 0.839362 -0.133086 0.600589 0.788404 -0.100301 0.459205 0.882649 
-0.081073 0.627386 0.774476 -0.0728686 0.403631 0.912016 -0.0627866 0.656156 0.752009 
-0.0830422 0.387087 0.918296 -0.010067 0.738365 0.674326 -0.0410203 0.326728 0.944228 
0.15148 0.749554 0.644377 0.108987 0.38064 0.918278 0.259743 0.704534 0.660428 
0.223903 0.498941 0.837213 0.245043 0.684331 0.686764 0.246017 0.679153 0.69154 
0.241101 0.668304 0.703733 -0.0179522 -0.148099 0.98881 -0.0816054 -0.138395 0.987009 
-0.127312 -0.109858 0.98576 0.0425403 -0.0970641 0.994369 -0.00402574 -0.0911006 0.995834 
0.0519611 -0.0854388 0.994988 -0.0657233 -0.0276351 0.997455 0.0247443 -0.0903552 0.995602 
-0.0401079 -0.151685 0.987615 0.0624145 -0.153003 0.986253 -0.202688 0.0551092 0.977691 
-0.178566 0.0989647 0.978938 -0.177316 0.0455422 0.9831 -0.0245338 0.132587 0.990868 
0.00267435 0.0395004 0.999216 0.0744681 0.0135623 0.997131 0.0472585 0.0767379 0.995931 
0.0797438 0.0146762 0.996707 -0.0709544 -0.0221914 0.997233 0.000215119 -0.0772084 0.997015 
-0.0627112 -0.00627592 0.998012 -0.0773323 -0.00866987 0.996968 0.0523146 -0.0383602 0.997894 
0.0496165 -0.0547528 0.997266 -0.0416985 -0.134904 0.989981 -0.0660562 -0.0987409 0.992918 
-0.0417978 -0.143597 0.988753 0.0841411 -0.143732 0.986033 0.0516409 -0.128566 0.990356 
0.00342215 -0.0582373 0.998297 0.00944994 -0.0674884 0.997675 0.0101345 -0.0784064 0.99687 
-0.0187925 0.0599935 0.998022 0.0633018 -0.0748693 0.995182 -0.0196789 0.0500342 0.998554 
-0.00798948 0.0724526 0.99734 -0.0211236 0.0701133 0.997315 -0.0566073 -0.0539864 0.996936 
-0.0904155 -0.0882722 0.991984 -0.0407292 -0.0744421 0.996393 0.180953 -0.0200125 0.983288 
0.0617665 -0.0333922 0.997532 -0.0986587 0.097504 0.990333 -0.088987 0.138183 0.986401 
-0.0767106 0.112526 0.990683 0.0709057 -0.041837 0.996605 0.0808986 -0.0997595 0.991717 
-0.104464 0.000342592 0.994529 -0.107705 -0.0253007 0.993861 0.012999 0.0127028 0.999835 
0.158296 0.118487 0.980257 0.172759 0.171946 0.96984 0.106546 0.0741744 0.991537 
-0.0783067 0.190692 0.978522 -0.00781788 0.167582 0.985827 -0.0473727 0.183191 0.981935 
-0.0606887 0.19087 0.979737 -0.100734 0.0932446 0.990534 -0.0687032 0.177926 0.981643 
-0.0878337 0.101941 0.990905 0.162408 0.1812 0.969943 0.080377 0.200515 0.976388 
0.0574959 0.131932 0.98959 
