# vtk DataFile Version 4.2
vtk output
ASCII
DATASET POLYDATA
POINTS 510 float
-14.1583 -38.6056 -15.1099 -6.62225 -38.6056 -16.7273 0.913783 -38.6056 -17.214 
8.44981 -38.6056 -16.4385 15.9858 -38.6056 -14.2518 -21.6943 -31.0696 -17.1937 
-14.1583 -31.0696 -18.5379 -6.62225 -31.0696 -18.8915 0.913783 -31.0696 -18.7882 
8.44981 -31.0696 -18.3644 15.9858 -31.0696 -17.8862 23.5219 -31.0696 -15.8985 
-29.2303 -23.5335 -17.7974 -21.6943 -23.5335 -19.2401 -14.1583 -23.5335 -19.5852 
-6.62225 -23.5335 -19.2797 0.913783 -23.5335 -18.8091 8.44981 -23.5335 -18.6916 
15.9858 -23.5335 -18.9233 23.5219 -23.5335 -18.1547 31.0579 -23.5335 -16.3983 
-36.7664 -15.9975 -17.035 -29.2303 -15.9975 -19.0767 -21.6943 -15.9975 -19.8737 
-14.1583 -15.9975 -19.7457 -6.62225 -15.9975 -18.67 0.913783 -15.9975 -17.6798 
8.44981 -15.9975 -18.3181 15.9858 -15.9975 -18.8021 23.5219 -15.9975 -19.0434 
31.0579 -15.9975 -18.3623 38.5939 -15.9975 -16.1166 -44.3024 -8.46147 -14.1407 
-36.7664 -8.46147 -18.0171 -29.2303 -8.46147 -19.6754 -21.6943 -8.46147 -19.9761 
-14.1583 -8.46147 -19.9017 -6.62225 -8.46147 -18.786 0.913783 -8.46147 -18.4035 
8.44981 -8.46147 -18.3802 15.9858 -8.46147 -17.7567 23.5219 -8.46147 -18.6515 
31.0579 -8.46147 -18.7738 38.5939 -8.46147 -17.699 -44.3024 -0.925437 -14.7391 
-36.7664 -0.925437 -18.3105 -29.2303 -0.925437 -19.8994 -21.6943 -0.925437 -20.2795 
-14.1583 -0.925437 -20.6235 -6.62225 -0.925437 -19.1772 0.913783 -0.925437 -17.7824 
8.44981 -0.925437 -18.8446 15.9858 -0.925437 -18.2026 23.5219 -0.925437 -19.5292 
31.0579 -0.925437 -19.9357 38.5939 -0.925437 -18.6907 46.13 -0.925437 -15.0421 
-36.7664 6.61059 -17.8185 -29.2303 6.61059 -19.8343 -21.6943 6.61059 -20.5107 
-14.1583 6.61059 -20.8831 -6.62225 6.61059 -20.1391 0.913783 6.61059 -20.0165 
8.44981 6.61059 -20.6136 15.9858 6.61059 -20.5601 23.5219 6.61059 -21.1493 
31.0579 6.61059 -21.2015 38.5939 6.61059 -19.5752 46.13 6.61059 -15.0744 
-36.7664 14.1466 -16.9629 -29.2303 14.1466 -19.4344 -21.6943 14.1466 -20.3906 
-14.1583 14.1466 -20.256 -6.62225 14.1466 -19.8692 0.913783 14.1466 -20.8351 
8.44981 14.1466 -20.5672 15.9858 14.1466 -20.7344 23.5219 14.1466 -21.4232 
31.0579 14.1466 -21.109 38.5939 14.1466 -19.0303 -36.7664 21.6827 -15.055 
-29.2303 21.6827 -18.6502 -21.6943 21.6827 -19.6739 -14.1583 21.6827 -19.5484 
-6.62225 21.6827 -19.6534 0.913783 21.6827 -20.4919 8.44981 21.6827 -20.2914 
15.9858 21.6827 -19.8513 23.5219 21.6827 -19.8556 31.0579 21.6827 -19.3368 
38.5939 21.6827 -16.0793 -29.2303 29.2187 -15.2409 -21.6943 29.2187 -17.2045 
-14.1583 29.2187 -17.8771 -6.62225 29.2187 -18.7945 0.913783 29.2187 -20.0658 
8.44981 29.2187 -19.4006 15.9858 29.2187 -18.2005 23.5219 29.2187 -17.095 
31.0579 29.2187 -14.6723 -6.62225 36.7547 -14.6462 0.913783 36.7547 -16.3015 
8.44981 36.7547 -16.2855 15.9858 36.7547 -14.2882 -14.1583 -39.7444 -14.0724 
-6.62225 -42.0857 -14.0724 0.913783 -43.0281 -14.0724 0.913783 -46.1416 -7.88588 
8.44981 -41.8882 -14.0724 15.9858 -38.795 -14.0724 -16.8774 -38.6056 -14.0724 
-21.6943 -35.944 -14.0724 -21.6943 -38.6056 -9.60707 16.3455 -38.6056 -14.0724 
23.5219 -34.0124 -14.0724 23.5219 -38.6056 -7.68638 -28.9059 -31.0696 -14.0724 
-29.2303 -30.8105 -14.0724 -29.2303 -31.0696 -13.8049 27.5506 -31.0696 -14.0724 
31.0579 -28.0582 -14.0724 31.0579 -31.0696 -10.7289 -36.4443 -23.5335 -14.0724 
-36.7664 -23.1336 -14.0724 -36.7664 -23.5335 -13.8109 36.0023 -23.5335 -14.0724 
38.5939 -20.3652 -14.0724 38.5939 -23.5335 -11.5347 -42.0206 -15.9975 -14.0724 
-44.3024 -8.78225 -14.0724 -44.3024 -15.9975 -11.8819 41.5701 -15.9975 -14.0724 
46.13 -15.9975 -8.88822 -44.3826 -8.46147 -14.0724 45.4973 -8.46147 -14.0724 
46.13 -6.28808 -14.0724 46.13 -8.46147 -13.4821 -45.1242 -0.925437 -14.0724 
-44.3024 4.84605 -14.0724 47.1791 -0.925437 -14.0724 -43.9652 6.61059 -14.0724 
-44.3024 6.61059 -13.855 47.0979 6.61059 -14.0724 46.13 11.1955 -14.0724 
-41.7794 14.1466 -14.0724 -44.3024 14.1466 -11.7586 45.3911 14.1466 -14.0724 
46.13 14.1466 -12.9662 -38.087 21.6827 -14.0724 -44.3024 21.6827 -6.76397 
-36.7664 23.5517 -14.0724 40.8649 21.6827 -14.0724 38.5939 24.3163 -14.0724 
-31.4656 29.2187 -14.0724 -36.7664 29.2187 -8.918 -29.2303 30.6562 -14.0724 
-21.6943 33.4907 -14.0724 -14.1583 35.4345 -14.0724 23.5219 33.5248 -14.0724 
32.0547 29.2187 -14.0724 31.0579 29.8457 -14.0724 38.5939 29.2187 -6.85026 
-21.6943 36.7547 -8.23089 -9.34429 36.7547 -14.0724 -14.1583 36.7547 -12.09 
-6.62225 37.3372 -14.0724 0.913783 38.8683 -14.0724 8.44981 38.8703 -14.0724 
16.5959 36.7547 -14.0724 15.9858 36.9653 -14.0724 23.5219 36.7547 -9.16874 
0.913783 -46.6213 -6.53634 -21.6943 -39.7849 -6.53634 -14.1583 -43.1814 -6.53634 
-3.08798 -46.1416 -6.53634 -6.62225 -45.6921 -6.53634 7.31237 -46.1416 -6.53634 
0.913783 -46.1416 -2.97046 8.44981 -46.0555 -6.53634 15.9858 -43.5855 -6.53634 
23.5219 -39.1738 -6.53634 -23.7829 -38.6056 -6.53634 -29.2303 -35.2537 -6.53634 
24.3383 -38.6056 -6.53634 31.0579 -33.4856 -6.53634 -34.8657 -31.0696 -6.53634 
-36.7664 -29.502 -6.53634 34.1097 -31.0696 -6.53634 38.5939 -26.9781 -6.53634 
-42.6369 -23.5335 -6.53634 -44.3024 -21.3139 -6.53634 41.9495 -23.5335 -6.53634 
46.13 -18.1139 -6.53634 -47.7575 -15.9975 -6.53634 47.4968 -15.9975 -6.53634 
-50.3658 -8.46147 -6.53634 50.5191 -8.46147 -6.53634 -51.64 -0.925437 -6.53634 
-51.8384 -0.925437 -4.32829 51.511 -0.925437 -6.53634 -50.3081 6.61059 -6.53634 
51.0208 6.61059 -6.53634 -47.88 14.1466 -6.53634 49.2088 14.1466 -6.53634 
46.13 20.0601 -6.53634 -44.45 21.6827 -6.53634 -44.3024 21.8957 -6.53634 
45.1429 21.6827 -6.53634 -38.406 29.2187 -6.53634 -36.7664 30.6671 -6.53634 
-29.2303 35.1189 -6.53634 31.0579 34.5353 -6.53634 38.7666 29.2187 -6.53634 
38.5939 29.3817 -6.53634 -23.85 36.7547 -6.53634 -21.6943 37.3719 -6.53634 
-14.1583 38.978 -6.53634 -6.62225 40.3065 -6.53634 0.913783 41.248 -6.53634 
8.44981 41.3793 -6.53634 15.9858 40.1809 -6.53634 26.2433 36.7547 -6.53634 
23.5219 37.8985 -6.53634 -21.6943 -38.6909 0.999689 -14.1583 -42.0296 0.999689 
-6.62225 -44.4849 0.999689 0.913783 -45.5837 0.999689 8.44981 -45.1194 0.999689 
15.9858 -43.1226 0.999689 23.5219 -39.1295 0.999689 -21.8478 -38.6056 0.999689 
-29.2303 -34.6076 0.999689 -21.6943 -38.6056 1.16763 -14.1583 -38.6056 7.71109 
24.274 -38.6056 0.999689 23.5219 -38.6056 2.29259 31.0579 -33.565 0.999689 
-34.3283 -31.0696 0.999689 -36.7664 -29.293 0.999689 -29.2303 -31.0696 7.91378 
34.0813 -31.0696 0.999689 31.0579 -31.0696 7.50401 38.5939 -27.0056 0.999689 
-42.8404 -23.5335 0.999689 -44.3024 -21.743 0.999689 42.0391 -23.5335 0.999689 
46.13 -18.4956 0.999689 -48.2291 -15.9975 0.999689 47.818 -15.9975 0.999689 
46.13 -15.9975 5.81341 -51.2833 -8.46147 0.999689 -51.8384 -4.32361 0.999689 
50.8212 -8.46147 0.999689 -52.2812 -0.925437 0.999689 -51.8384 2.93177 0.999689 
-51.8384 -0.925437 2.65868 51.8471 -0.925437 0.999689 -51.416 6.61059 0.999689 
51.2568 6.61059 0.999689 -49.3669 14.1466 0.999689 49.1732 14.1466 0.999689 
46.13 20.0811 0.999689 -45.5856 21.6827 0.999689 -44.3024 23.4877 0.999689 
-44.3024 21.6827 6.79404 45.2111 21.6827 0.999689 -39.1266 29.2187 0.999689 
-36.7664 31.1257 0.999689 -36.7664 29.2187 7.7435 -29.2303 35.0586 0.999689 
31.0579 34.8593 0.999689 39.0237 29.2187 0.999689 38.5939 29.6165 0.999689 
38.5939 29.2187 2.1743 -23.2926 36.7547 0.999689 -21.6943 37.1929 0.999689 
-21.6943 36.7547 2.68026 -14.1583 38.7494 0.999689 -14.1583 36.7547 8.23301 
-6.62225 39.7387 0.999689 0.913783 40.4148 0.999689 8.44981 40.3115 0.999689 
15.9858 39.5199 0.999689 15.9858 36.7547 8.21343 26.2374 36.7547 0.999689 
23.5219 37.7321 0.999689 23.5219 36.7547 3.92461 -6.62225 -40.2474 8.53572 
0.913783 -41.4278 8.53572 8.44981 -41.163 8.53572 15.9858 -39.5101 8.53572 
-21.6943 -34.3609 8.53572 -12.4472 -38.6056 8.53572 -14.1583 -38.0202 8.53572 
-6.62225 -38.6056 10.2876 0.913783 -38.6056 11.4583 8.44981 -38.6056 11.1839 
17.9594 -38.6056 8.53572 15.9858 -38.6056 9.5522 23.5219 -35.7951 8.53572 
-36.7664 -25.4722 8.53572 -28.4679 -31.0696 8.53572 -29.2303 -30.6735 8.53572 
-21.6943 -31.0696 11.7198 -14.1583 -31.0696 13.9359 -6.62225 -31.0696 15.5606 
8.44981 -31.0696 15.9382 15.9858 -31.0696 15.2969 30.4532 -31.0696 8.53572 
23.5219 -31.0696 13.4942 31.0579 -30.6168 8.53572 38.5939 -23.8979 8.53572 
-38.9521 -23.5335 8.53572 -44.3024 -17.7741 8.53572 -36.7664 -23.5335 10.6528 
-29.2303 -23.5335 14.9655 38.9463 -23.5335 8.53572 38.5939 -23.5335 9.00124 
-45.5384 -15.9975 8.53572 -44.3024 -15.9975 10.2193 44.9671 -15.9975 8.53572 
38.5939 -15.9975 15.6895 46.13 -13.7107 8.53572 -48.7126 -8.46147 8.53572 
-44.3024 -8.46147 14.0939 48.28 -8.46147 8.53572 46.13 -8.46147 11.5901 
-50.0513 -0.925437 8.53572 -44.3024 -0.925437 15.9771 49.3732 -0.925437 8.53572 
46.13 -0.925437 13.197 -49.4699 6.61059 8.53572 -44.3024 6.61059 15.7027 
48.978 6.61059 8.53572 46.13 6.61059 12.7188 -47.6368 14.1466 8.53572 
-44.3024 20.9444 8.53572 -44.3024 14.1466 13.7163 46.8945 14.1466 8.53572 
46.13 15.6692 8.53572 46.13 14.1466 9.81615 -43.8663 21.6827 8.53572 
-36.7664 28.9655 8.53572 42.7662 21.6827 8.53572 38.5939 26.776 8.53572 
38.5939 21.6827 14.2876 -36.4113 29.2187 8.53572 -29.2303 33.1532 8.53572 
-29.2303 29.2187 14.8567 -21.6943 35.1387 8.53572 -14.1583 36.658 8.53572 
15.9858 36.622 8.53572 23.5219 35.0664 8.53572 35.6298 29.2187 8.53572 
31.0579 32.2767 8.53572 31.0579 29.2187 12.7653 -13.4025 36.7547 8.53572 
-6.62225 37.556 8.53572 -6.62225 36.7547 9.8136 0.913783 37.9942 8.53572 
0.913783 36.7547 10.3984 14.9763 36.7547 8.53572 8.44981 37.5544 8.53572 
8.44981 36.7547 9.72595 0.913783 -31.3586 16.0718 -21.6943 -24.4646 16.0718 
-14.1583 -26.6935 16.0718 -0.882947 -31.0696 16.0718 -6.62225 -29.6465 16.0718 
4.93175 -31.0696 16.0718 0.913783 -31.0696 16.2158 8.44981 -30.5999 16.0718 
15.9858 -29.4713 16.0718 23.5219 -27.6481 16.0718 31.0579 -23.6324 16.0718 
-36.7664 -16.7858 16.0718 -24.374 -23.5335 16.0718 -29.2303 -21.8539 16.0718 
-21.6943 -23.5335 16.583 -14.1583 -23.5335 17.4133 -6.62225 -23.5335 18.1541 
[...]
POINT_DATA 510
SCALARS ImageScalars float
LOOKUP_TABLE default
0 0 0 0 0 0 0 0 0 
0 0 0 0 0 0 0 0 0 
0 0 0 0 0 0 0 0 0 
0 0 0 0 0 0 0 0 0 
0 0 0 0 0 0 0 0 0 
0 0 0 0 0 0 0 0 0 
0 0 0 0 0 0 0 0 0 
0 0 0 0 0 0 0 0 0 
0 0 0 0 0 0 0 0 0 
0 0 0 0 0 0 0 0 0 
0 0 0 0 0 0 0 0 0 
0 0 0 0 0 0 0 0 0 
0 0 0 0 0 0 0 0 0 
0 0 0 0 0 0 0 0 0 
0 0 0 0 0 0 0 0 0 
0 0 0 0 0 0 0 0 0 
0 0 0 0 0 0 0 0 0 
0 0 0 0 0 0 0 0 0 
0 0 0 0 0 0 0 0 0 
0 0 0 0 0 0 0 0 0 
0 0 0 0 0 0 0 0 0 
0 0 0 0 0 0 0 0 0 
0 0 0 0 0 0 0 0 0 
0 0 0 0 0 0 0 0 0 
0 0 0 0 0 0 0 0 0 
0 0 0 0 0 0 0 0 0 
0 0 0 0 0 0 0 0 0 
0 0 0 0 0 0 0 0 0 
0 0 0 0 0 0 0 0 0 
0 0 0 0 0 0 0 0 0 
0 0 0 0 0 0 0 0 0 
0 0 0 0 0 0 0 0 0 
0 0 0 0 0 0 0 0 0 
0 0 0 0 0 0 0 0 0 
0 0 0 0 0 0 0 0 0 
0 0 0 0 0 0 0 0 0 
0 0 0 0 0 0 0 0 0 
0 0 0 0 0 0 0 0 0 
0 0 0 0 0 0 0 0 0 
0 0 0 0 0 0 0 0 0 
0 0 0 0 0 0 0 0 0 
0 0 0 0 0 0 0 0 0 
0 0 0 0 0 0 0 0 0 
0 0 0 0 0 0 0 0 0 
0 0 0 0 0 0 0 0 0 
0 0 0 0 0 0 0 0 0 
0 0 0 0 0 0 0 0 0 
0 0 0 0 0 0 0 0 0 
0 0 0 0 0 0 0 0 0 
0 0 0 0 0 0 0 0 0 
0 0 0 0 0 0 0 0 0 
0 0 0 0 0 0 0 0 0 
0 0 0 0 0 0 0 0 0 
0 0 0 0 0 0 0 0 0 
0 0 0 0 0 0 0 0 0 
0 0 0 0 0 0 0 0 0 
0 0 0 0 0 0 
NORMALS Normals float
-0.269067 -0.639804 -0.719898 -0.13197 -0.490082 -0.861629 0.0204232 -0.418386 -0.90804 
0.161791 -0.449611 -0.87845 0.346889 -0.607982 -0.714161 -0.26235 -0.409696 -0.873683 
-0.103425 -0.259918 -0.960076 -0.0167283 -0.159108 -0.987119 0.0348575 -0.104726 -0.99389 
0.0561058 -0.14365 -0.988037 0.156089 -0.250133 -0.955547 0.316987 -0.427326 -0.846706 
-0.307198 -0.280881 -0.90925 -0.116139 -0.166997 -0.979093 -0.00183861 -0.079655 -0.996821 
0.0513949 0.0149636 -0.998566 0.0389303 0.0730098 -0.996571 -0.00732748 0.00340896 -0.999967 
0.0366647 -0.0544761 -0.997842 0.15713 -0.191737 -0.968786 0.32474 -0.344063 -0.881002 
-0.387688 -0.225481 -0.893787 -0.180156 -0.118471 -0.976478 -0.0460944 -0.047479 -0.997808 
0.0790631 -0.0209282 -0.99665 0.138232 0.0332472 -0.989842 0.0230104 0.0289658 -0.999316 
-0.0747719 0.0209957 -0.99698 -0.0479196 0.0772009 -0.995863 0.0261497 -0.0342085 -0.999073 
0.167847 -0.157291 -0.973184 0.427923 -0.306218 -0.85036 -0.596663 -0.121443 -0.793249 
-0.32258 -0.0825546 -0.942935 -0.122383 -0.0562635 -0.990887 -0.0145088 -0.0267833 -0.999536 
0.0777554 -0.0580294 -0.995282 0.0997022 -0.0317971 -0.994509 0.0273132 -0.00876891 -0.999588 
0.0438256 -0.0340121 -0.99846 -0.0200039 0.0425428 -0.998894 -0.0670769 -0.0289649 -0.997327 
0.0633508 -0.101365 -0.99283 0.290391 -0.142582 -0.946226 -0.546512 0.0158632 -0.837301 
-0.301073 0.0128986 -0.953514 -0.121326 -0.0102741 -0.99256 -0.0473821 -0.0354305 -0.998248 
0.0648039 -0.0648593 -0.995788 0.19275 -0.0926844 -0.976861 0.0192074 -0.102427 -0.994555 
-0.0285892 -0.152533 -0.987885 -0.0439879 -0.186561 -0.981458 -0.111127 -0.165287 -0.979965 
0.0519098 -0.15856 -0.985984 0.292096 -0.122202 -0.94855 0.636877 -0.0807814 -0.766722 
-0.349183 0.0842154 -0.933263 -0.168472 0.0295642 -0.985263 -0.0681614 -0.00740999 -0.997647 
0.0239708 0.0230792 -0.999446 0.0579341 -0.0412404 -0.997468 -0.0328631 -0.20433 -0.97835 
-0.0333233 -0.10818 -0.993573 -0.0345667 -0.159661 -0.986567 -0.0414654 -0.120417 -0.991857 
0.0972902 -0.0779948 -0.992195 0.344102 -0.0228675 -0.938654 0.704701 0.0856965 -0.70431 
-0.408579 0.153928 -0.89965 -0.219143 0.0717525 -0.973051 -0.0524936 0.0537595 -0.997173 
0.034925 0.0891083 -0.995409 -0.0385861 0.0319685 -0.998744 -0.0464669 -0.0275591 -0.99854 
0.00655649 0.0221582 -0.999733 -0.0572431 0.0474666 -0.997231 -0.0255604 0.0821154 -0.996295 
0.147694 0.108157 -0.983101 0.427689 0.186896 -0.884394 -0.520661 0.337674 -0.784149 
-0.256526 0.24495 -0.934983 -0.051968 0.190268 -0.980356 0.00103783 0.15275 -0.988264 
-0.0620847 0.0673547 -0.995796 -0.0418595 0.048447 -0.997948 0.041314 0.072085 -0.996542 
0.0300698 0.165608 -0.985733 0.0304732 0.271616 -0.961923 0.199175 0.342293 -0.91824 
0.526278 0.475531 -0.704913 -0.33633 0.549199 -0.765024 -0.160449 0.446694 -0.880182 
-0.0964222 0.360997 -0.927569 -0.14044 0.279363 -0.949859 -0.0381519 0.23027 -0.972378 
0.121545 0.236347 -0.964037 0.138472 0.317226 -0.938186 0.191927 0.462949 -0.865357 
0.371303 0.63945 -0.67323 -0.191054 0.712366 -0.675302 -0.0928997 0.673533 -0.733296 
0.118674 0.645324 -0.754635 0.264968 0.705631 -0.657174 -0.292719 -0.696047 -0.655617 
-0.178148 -0.699775 -0.691794 0.00879829 -0.707103 -0.707056 -0.017845 -0.981314 -0.191583 
0.20642 -0.640862 -0.739382 0.350388 -0.616368 -0.705209 -0.337049 -0.691487 -0.63894 
-0.39598 -0.646911 -0.651695 -0.459424 -0.839137 -0.291169 0.355482 -0.614875 -0.703961 
0.386237 -0.549938 -0.740533 0.538838 -0.801581 -0.259079 -0.483211 -0.608411 -0.629558 
-0.485529 -0.606059 -0.630044 -0.49422 -0.622047 -0.607292 0.428814 -0.541485 -0.723127 
0.453076 -0.516084 -0.726897 0.569945 -0.685759 -0.452657 -0.536204 -0.464702 -0.704654 
-0.538579 -0.458132 -0.70714 -0.549973 -0.476129 -0.686171 0.501723 -0.461645 -0.731545 
0.527059 -0.439613 -0.727289 0.62913 -0.571794 -0.526543 -0.588082 -0.295073 -0.753055 
-0.600549 -0.129609 -0.789014 -0.711545 -0.361042 -0.602788 0.540944 -0.366039 -0.757228 
0.797861 -0.454172 -0.396415 -0.599984 -0.121907 -0.790669 0.62892 -0.222062 -0.745083 
0.656965 -0.182781 -0.731429 0.677665 -0.230378 -0.698352 -0.582919 0.0153891 -0.812384 
-0.585862 0.101353 -0.804048 0.687908 -0.0728061 -0.722138 -0.584078 0.125308 -0.801966 
-0.60028 0.131137 -0.788966 0.747506 0.094127 -0.657552 0.741344 0.214735 -0.635845 
-0.58431 0.21972 -0.78122 -0.71846 0.280755 -0.63639 0.72443 0.285285 -0.627546 
0.773853 0.301478 -0.557012 -0.5588 0.362601 -0.74583 -0.803725 0.4882 -0.340128 
-0.543959 0.406065 -0.734316 0.612749 0.502278 -0.610128 0.55301 0.563855 -0.61339 
-0.414305 0.568214 -0.710974 -0.625247 0.67855 -0.385534 -0.352053 0.612558 -0.707695 
-0.225344 0.694266 -0.683531 -0.16785 0.714538 -0.679162 0.30287 0.656137 -0.691198 
0.402111 0.65077 -0.644054 0.38381 0.657238 -0.648636 0.650943 0.725235 -0.224296 
-0.243338 0.939061 -0.242799 -0.186302 0.743678 -0.642055 -0.180862 0.840895 -0.510082 
-0.193431 0.743589 -0.640047 -0.0875434 0.804785 -0.587075 0.116822 0.787317 -0.60538 
0.272255 0.714275 -0.644739 0.266074 0.716144 -0.645246 0.348467 0.877656 -0.329075 
-0.0226288 -0.993843 -0.108463 -0.457337 -0.882805 -0.107226 -0.359884 -0.926969 -0.105891 
-0.124324 -0.987144 -0.10045 -0.217443 -0.971139 -0.0980188 0.154194 -0.979847 -0.126979 
-0.0292853 -0.996549 0.0776724 0.18555 -0.973815 -0.13136 0.409091 -0.891311 -0.195472 
0.543576 -0.816305 -0.195375 -0.481903 -0.868897 -0.11308 -0.551003 -0.818357 -0.163364 
0.551966 -0.810528 -0.195905 0.61387 -0.761547 -0.207871 -0.61052 -0.767932 -0.193766 
-0.636706 -0.739918 -0.217087 0.639141 -0.740595 -0.20741 0.687528 -0.692955 -0.217067 
-0.739136 -0.620259 -0.262595 -0.776407 -0.569242 -0.270474 0.728358 -0.646486 -0.227049 
0.820096 -0.513888 -0.251717 -0.86439 -0.409045 -0.292425 0.848048 -0.463787 -0.256351 
-0.913125 -0.231992 -0.335234 0.933384 -0.237654 -0.268916 -0.943198 0.00353431 -0.332214 
-0.978492 0.000179388 -0.206284 0.965419 -0.0300953 -0.258958 -0.904938 0.222473 -0.362757 
0.96182 0.148419 -0.229942 -0.868706 0.332553 -0.367095 0.918159 0.344509 -0.195698 
0.844476 0.500344 -0.191094 -0.80781 0.48932 -0.328647 -0.805268 0.493838 -0.328127 
0.816115 0.544834 -0.192645 -0.665884 0.696856 -0.266439 -0.617657 0.744219 -0.254238 
-0.379055 0.902182 -0.205879 0.467346 0.852702 -0.233423 0.656351 0.724854 -0.20926 
0.652457 0.728267 -0.20959 -0.269977 0.948595 -0.165166 -0.235843 0.95913 -0.156358 
-0.182529 0.970228 -0.159185 -0.154013 0.981033 -0.117702 -0.0674632 0.994559 -0.0793817 
0.0685201 0.995026 -0.0723045 0.220659 0.965856 -0.135763 0.380178 0.903661 -0.197131 
0.337697 0.92332 -0.182866 -0.435479 -0.856271 0.277772 -0.334368 -0.897449 0.28772 
-0.22356 -0.925263 0.306446 -0.0378063 -0.954989 0.294223 0.151642 -0.948633 0.277669 
0.355651 -0.905631 0.230964 0.526759 -0.832906 0.169681 -0.436661 -0.855786 0.277412 
-0.498858 -0.832772 0.240065 -0.435197 -0.854364 0.284016 -0.302657 -0.772292 0.558537 
0.538299 -0.825867 0.167862 0.519442 -0.825201 0.221863 0.623478 -0.769037 0.140918 
-0.585397 -0.7831 0.209917 -0.626705 -0.75459 0.194514 -0.431373 -0.735637 0.522261 
0.645962 -0.75025 0.140923 0.567346 -0.725674 0.38925 0.690278 -0.710298 0.137818 
-0.734793 -0.660492 0.154367 -0.774677 -0.616681 0.13993 0.728721 -0.670394 0.139778 
0.823252 -0.550988 0.136633 -0.881 -0.456876 0.122898 0.865367 -0.483065 0.133371 
0.814499 -0.483273 0.320997 -0.965276 -0.24658 0.0862548 -0.989402 -0.115287 0.0882762 
0.960487 -0.244348 0.133265 -0.995774 -0.00773264 0.0915095 -0.993674 0.0890128 0.0684814 
-0.987178 -0.0136914 0.159033 0.991343 -0.0266756 0.128562 -0.982352 0.181059 0.0469371 
0.976808 0.174483 0.124106 -0.937739 0.346963 0.0161755 0.925242 0.353595 0.137472 
0.862355 0.488993 0.131259 -0.844616 0.534468 0.0310999 -0.815793 0.577246 0.0356255 
-0.804336 0.533966 0.260623 0.838941 0.529208 0.12695 -0.64509 0.760239 0.0767804 
-0.574863 0.813106 0.0916084 -0.56527 0.762287 0.315259 -0.354758 0.926996 0.121756 
0.450444 0.88403 0.124864 0.664946 0.737816 0.116078 0.654878 0.746693 0.116552 
0.654088 0.739657 0.158358 -0.251652 0.958792 0.131865 -0.228838 0.964361 0.132821 
-0.228008 0.956724 0.18081 -0.1614 0.976354 0.143817 -0.147976 0.905306 0.398151 
-0.11058 0.978797 0.172418 -0.0366934 0.978334 0.203755 0.0546761 0.969897 0.237298 
0.167272 0.959993 0.224575 0.144045 0.878848 0.454837 0.332959 0.930678 0.151582 
0.277485 0.946311 0.165822 0.264055 0.925784 0.270555 -0.181812 -0.758818 0.625412 
-0.0489228 -0.77362 0.631759 0.106716 -0.771415 0.627321 0.278724 -0.764506 0.581243 
-0.34976 -0.717292 0.602628 -0.268488 -0.751381 0.602777 -0.292407 -0.743552 0.601355 
-0.168575 -0.703062 0.690859 -0.0439936 -0.669303 0.741686 0.0956112 -0.682252 0.724838 
0.324495 -0.761171 0.561536 0.266985 -0.737802 0.619973 0.433779 -0.746303 0.504844 
-0.537172 -0.667535 0.5156 -0.411425 -0.721201 0.557314 -0.41875 -0.72156 0.551361 
-0.284538 -0.625256 0.7267 -0.209312 -0.502663 0.83876 -0.129569 -0.41623 0.89998 
0.0523196 -0.366845 0.92881 0.126887 -0.500749 0.856242 0.543311 -0.715493 0.439183 
0.312283 -0.631268 0.709915 0.553518 -0.711965 0.432115 0.657348 -0.630144 0.413295 
-0.577737 -0.639826 0.506796 -0.724151 -0.507369 0.4671 -0.514445 -0.627725 0.584215 
-0.279151 -0.553196 0.784888 0.661716 -0.625253 0.413751 0.654824 -0.622842 0.428105 
-0.756141 -0.46074 0.464725 -0.715613 -0.457819 0.527541 0.765388 -0.47163 0.437888 
0.578425 -0.397146 0.71253 0.80085 -0.402765 0.443192 -0.845558 -0.256784 0.468075 
-0.679633 -0.245992 0.691077 0.855908 -0.241381 0.457336 0.790679 -0.233983 0.565755 
-0.900236 -0.041203 0.433448 -0.645479 -0.0727959 0.760301 0.888757 -0.0409349 0.456547 
0.778241 -0.0477481 0.626148 -0.902184 0.14331 0.406849 -0.69032 0.0883274 0.718093 
0.886658 0.151707 0.436833 0.793566 0.128215 0.594822 -0.875931 0.310819 0.368967 
-0.794042 0.506359 0.336301 -0.763547 0.271292 0.586001 0.845232 0.345059 0.408065 
0.832215 0.377288 0.406289 0.823067 0.340113 0.454846 -0.778507 0.53085 0.33485 
-0.562837 0.75158 0.34401 0.759342 0.511112 0.402696 0.643933 0.651661 0.40086 
0.603885 0.478787 0.637249 -0.551233 0.760145 0.343979 -0.335853 0.868992 0.363395 
-0.289085 0.715824 0.63563 -0.209435 0.900263 0.381659 -0.146831 0.899996 0.410424 
0.142224 0.872932 0.46665 0.240572 0.860942 0.448223 0.547298 0.730377 0.408674 
0.418964 0.801411 0.42686 0.405585 0.701837 0.585598 -0.140827 0.900573 0.411261 
-0.0835975 0.898998 0.4299 -0.0769983 0.869683 0.487568 -0.000498553 0.888616 0.458651 
0.0048301 0.836619 0.547764 0.135047 0.873258 0.468169 0.0840711 0.87084 0.484324 
0.082665 0.84348 0.530761 -0.021636 -0.379741 0.92484 -0.151236 -0.470858 0.869149 
-0.134089 -0.40197 0.905782 -0.0461685 -0.38082 0.923496 -0.11398 -0.393074 0.912415 
0.0177909 -0.368337 0.929522 -0.0208607 -0.371396 0.92824 0.0475061 -0.361218 0.93127 
0.0852218 -0.468958 0.879099 0.213162 -0.541094 0.813498 0.40245 -0.551297 0.730826 
-0.438012 -0.443234 0.782105 -0.183913 -0.488022 0.853235 -0.25201 -0.507563 0.823936 
-0.136943 -0.457704 0.878495 -0.0929328 -0.352346 0.931244 -0.0597213 -0.346352 0.936202 
0.00573613 -0.333579 0.942705 -0.0181116 -0.3321 0.94307 -0.0271637 -0.39351 0.918919 
0.13478 -0.469803 0.872422 0.404961 -0.550108 0.730334 0.400757 -0.549083 0.733418 
-0.456835 -0.425276 0.781308 -0.431153 -0.423049 0.796954 -0.201682 -0.383953 0.901057 
-0.0576539 -0.351406 0.934446 -0.0795477 -0.342328 0.936207 -0.121538 -0.404789 0.906297 
-0.0122423 -0.460008 0.887831 -0.0124205 -0.483733 0.875127 -0.0179363 -0.444826 0.895437 
0.116512 -0.377091 0.918818 0.56078 -0.39079 0.729937 0.345897 -0.345245 0.872446 
0.572382 -0.372536 0.730477 -0.583092 -0.241502 0.775681 -0.409953 -0.230245 0.882568 
-0.171681 -0.224434 0.959247 -0.0792519 -0.206669 0.975196 -0.123872 -0.224619 0.966541 
0.347228 -0.166496 0.922882 0.630364 -0.210692 0.747161 0.53507 -0.200517 0.820666 
-0.639949 -0.0732962 0.764914 -0.393726 -0.0759911 0.916081 -0.182361 -0.112825 0.976737 
-0.0596373 -0.100128 0.993186 -0.135319 0.0206731 0.990586 0.347728 -0.0215358 0.937348 
0.659373 -0.0468079 0.750357 0.510735 -0.042652 0.85868 -0.670892 0.0837334 0.736812 
-0.425114 0.0192136 0.904936 -0.200897 0.0126087 0.979531 0.319434 0.0871807 0.94359 
0.657736 0.10292 0.746184 0.51203 0.0889786 0.854347 -0.662316 0.242767 0.708803 
-0.449492 0.205849 0.869243 -0.1897 0.180333 0.965139 -0.0362631 0.164523 0.985706 
0.0736041 0.224659 0.971654 0.012002 0.339653 0.940474 -0.134647 0.372877 0.918059 
0.336445 0.230372 0.91309 0.622651 0.266407 0.735753 0.570958 0.37798 0.728793 
0.542732 0.251638 0.801325 -0.538511 0.472441 0.697715 -0.50687 0.509744 0.695158 
-0.496324 0.465835 0.732571 -0.271002 0.656988 0.703509 -0.234471 0.420914 0.876273 
-0.0205909 0.382989 0.923524 0.120106 0.371502 0.92063 0.0709419 0.306759 0.94914 
-0.0667858 0.36181 0.929856 -0.116237 0.424635 0.897872 -0.0384426 0.447001 0.893707 
0.147316 0.418429 0.896223 0.503173 0.458495 0.73253 0.364841 0.558272 0.745133 
0.341956 0.434156 0.833411 -0.173677 0.671478 0.720385 -0.112136 0.670568 0.733324 
-0.100821 0.646922 0.755861 -0.0435104 0.583289 0.811099 -0.0238015 0.538064 0.842568 
0.0115591 0.516736 0.856067 0.026328 0.444859 0.895214 0.007852 0.465821 0.884844 
0.00501743 0.435194 0.900323 -0.00537243 0.564693 0.825283 -0.0248206 0.516867 0.855706 
0.0540021 0.627278 0.776921 0.0374245 0.593231 0.804162 0.203906 0.661579 0.721619 
0.185154 0.668186 0.720587 0.183166 0.658743 0.729732 -0.149037 -0.192739 0.969866 
-0.0478982 -0.275932 0.959983 -0.0177388 -0.378909 0.925264 0.0184401 -0.383374 0.923409 
0.173624 -0.272653 0.946317 -0.13924 -0.162054 0.976909 -0.0234443 -0.103976 0.994303 
-0.150263 -0.111247 0.982367 -0.132161 0.0142533 0.991126 -0.0790388 -0.0689454 0.994484 
-0.0399573 -0.223472 0.973891 0.0548709 -0.264629 0.962788 0.267255 -0.183825 0.94593 
0.21111 -0.197796 0.957241 -0.0255153 -0.0965567 0.995 -0.0608429 -0.0554929 0.996604 
-0.0165046 -0.095749 0.995269 -0.0279003 0.00659352 0.999589 0.00985953 0.00176828 0.99995 
-0.138478 0.0180408 0.990201 -0.134257 0.0207274 0.99073 -0.197681 -0.0333661 0.979698 
0.0264827 -0.0329852 0.999105 0.31548 -0.0193693 0.948734 0.226798 -0.0137661 0.973844 
-0.122079 0.00555681 0.992505 -0.048344 0.0920266 0.994582 -0.0622067 -0.000291033 0.998063 
0.0293548 0.139944 0.989724 -0.0223309 0.0336323 0.999185 -0.0235191 0.167535 0.985586 
-0.0344572 0.0806466 0.996147 -0.132061 0.271982 0.953198 -0.118046 0.0194882 0.992817 
-0.0932152 0.0825237 0.99222 0.0739781 0.130466 0.988689 0.274255 0.0897571 0.957459 
0.223567 0.0967051 0.969879 -0.117153 0.370904 0.921252 -0.0990249 0.381012 0.919252 
-0.0883644 0.360789 0.928452 0.00940126 0.345463 0.938385 0.0358254 0.303174 0.952261 
0.193482 0.230284 0.953695 0.178917 0.242407 0.953534 0.181464 0.230789 0.955933 

