# vtk DataFile Version 4.2
vtk output
ASCII
DATASET POLYDATA
POINTS 524 float
-23.8947 -32.5148 -12.3958 -16.0739 -32.5148 -13.3252 -8.25306 -32.5148 -14.3159 
-0.432224 -32.5148 -14.2005 7.38861 -32.5148 -14.4116 15.2095 -32.5148 -14.0724 
23.0303 -32.5148 -13.5662 30.8511 -32.5148 -12.3936 -31.7156 -24.694 -12.777 
-23.8947 -24.694 -14.1743 -16.0739 -24.694 -14.3661 -8.25306 -24.694 -15.008 
-0.432224 -24.694 -15.26 7.38861 -24.694 -15.2278 15.2095 -24.694 -16.1165 
23.0303 -24.694 -16.6313 30.8511 -24.694 -16.1991 38.672 -24.694 -14.6386 
-39.5364 -16.8731 -13.9941 -31.7156 -16.8731 -15.4656 -23.8947 -16.8731 -15.4836 
-16.0739 -16.8731 -14.8503 -8.25306 -16.8731 -14.8209 -0.432224 -16.8731 -15.6034 
7.38861 -16.8731 -15.7315 15.2095 -16.8731 -16.9645 23.0303 -16.8731 -17.9523 
30.8511 -16.8731 -18.22 38.672 -16.8731 -17.4557 46.4928 -16.8731 -14.5862 
-39.5364 -9.0523 -15.4313 -31.7156 -9.0523 -17.0816 -23.8947 -9.0523 -17.2566 
-16.0739 -9.0523 -16.1508 -8.25306 -9.0523 -15.5142 -0.432224 -9.0523 -18.3275 
7.38861 -9.0523 -18.1419 15.2095 -9.0523 -17.4657 23.0303 -9.0523 -18.2058 
30.8511 -9.0523 -18.732 38.672 -9.0523 -18.3807 46.4928 -9.0523 -16.5319 
-39.5364 -1.23146 -15.8961 -31.7156 -1.23146 -17.5116 -23.8947 -1.23146 -17.9823 
-16.0739 -1.23146 -18.2943 -8.25306 -1.23146 -17.9191 -0.432224 -1.23146 -14.6907 
7.38861 -1.23146 -17.9878 15.2095 -1.23146 -17.3744 23.0303 -1.23146 -18.4124 
30.8511 -1.23146 -19.195 38.672 -1.23146 -19.08 46.4928 -1.23146 -17.5892 
54.3136 -1.23146 -13.5649 -39.5364 6.58938 -15.1802 -31.7156 6.58938 -16.9235 
-23.8947 6.58938 -17.1253 -16.0739 6.58938 -17.0113 -8.25306 6.58938 -18.4165 
-0.432224 6.58938 -19.4121 7.38861 6.58938 -18.659 15.2095 6.58938 -17.5979 
23.0303 6.58938 -18.7105 30.8511 6.58938 -19.4423 38.672 6.58938 -19.3188 
46.4928 6.58938 -17.9427 54.3136 6.58938 -14.0497 -39.5364 14.4102 -14.6087 
-31.7156 14.4102 -17.0046 -23.8947 14.4102 -17.4878 -16.0739 14.4102 -17.2892 
-8.25306 14.4102 -17.1366 -0.432224 14.4102 -17.9355 7.38861 14.4102 -16.6364 
15.2095 14.4102 -17.4744 23.0303 14.4102 -18.9293 30.8511 14.4102 -19.3131 
38.672 14.4102 -18.6754 46.4928 14.4102 -16.9719 -39.5364 22.2311 -14.6709 
-31.7156 22.2311 -17.2316 -23.8947 22.2311 -18.1568 -16.0739 22.2311 -18.3985 
-8.25306 22.2311 -17.8815 -0.432224 22.2311 -17.5612 7.38861 22.2311 -17.2015 
15.2095 22.2311 -18.0633 23.0303 22.2311 -18.5612 30.8511 22.2311 -18.7813 
38.672 22.2311 -18.3832 46.4928 22.2311 -13.9493 -39.5364 30.0519 -12.9984 
-31.7156 30.0519 -16.596 -23.8947 30.0519 -18.0027 -16.0739 30.0519 -19.2589 
-8.25306 30.0519 -18.3879 -0.432224 30.0519 -18.0869 7.38861 30.0519 -17.8367 
15.2095 30.0519 -18.6119 23.0303 30.0519 -18.0471 30.8511 30.0519 -18.5338 
38.672 30.0519 -15.182 -31.7156 37.8727 -14.0315 -23.8947 37.8727 -16.878 
-16.0739 37.8727 -17.575 -8.25306 37.8727 -17.6601 -0.432224 37.8727 -17.4386 
7.38861 37.8727 -17.2951 15.2095 37.8727 -18.1697 23.0303 37.8727 -16.374 
30.8511 37.8727 -14.4391 -16.0739 45.6936 -14.5109 -8.25306 45.6936 -15.3812 
-0.432224 45.6936 -15.1068 7.38861 45.6936 -14.1626 15.2095 45.6936 -12.8679 
-23.8947 -33.074 -12.139 -23.8947 -40.3356 -7.77339 -16.0739 -35.4202 -12.139 
-16.0739 -40.3356 -9.81929 -8.25306 -38.1885 -12.139 -8.25306 -40.3356 -11.035 
-0.432224 -38.1913 -12.139 -0.432224 -40.3356 -11.0707 7.38861 -37.5687 -12.139 
7.38861 -40.3356 -10.1757 15.2095 -36.1556 -12.139 15.2095 -40.3356 -8.64879 
23.0303 -34.6293 -12.139 23.0303 -40.3356 -6.1959 30.8511 -32.8775 -12.139 
-39.5364 -32.5148 -5.7158 -24.7742 -32.5148 -12.139 -31.7156 -26.4376 -12.139 
-31.7156 -32.5148 -9.69739 31.5345 -32.5148 -12.139 38.672 -28.5961 -12.139 
38.672 -32.5148 -8.02044 -47.3573 -24.694 -4.51599 -34.2081 -24.694 -12.139 
-39.5364 -21.4129 -12.139 -39.5364 -24.694 -10.5782 43.6257 -24.694 -12.139 
46.4928 -21.7548 -12.139 46.4928 -24.694 -9.87911 -42.9324 -16.8731 -12.139 
-47.3573 -16.8731 -8.84742 51.5491 -16.8731 -12.139 54.3136 -16.8731 -9.05672 
-45.7048 -9.0523 -12.139 -47.3573 -9.0523 -11.0652 54.0164 -9.0523 -12.139 
54.3136 -7.99979 -12.139 54.3136 -9.0523 -11.8823 -46.8165 -1.23146 -12.139 
-47.3573 -1.23146 -11.8011 55.7154 -1.23146 -12.139 -45.3244 6.58938 -12.139 
-47.3573 6.58938 -10.8072 55.8572 6.58938 -12.139 54.3136 10.6225 -12.139 
-43.9496 14.4102 -12.139 -47.3573 14.4102 -9.63025 52.8577 14.4102 -12.139 
54.3136 14.4102 -8.45075 -43.4234 22.2311 -12.139 -47.3573 22.2311 -8.40612 
48.9574 22.2311 -12.139 46.4928 25.386 -12.139 -40.7201 30.0519 -12.139 
-39.5364 32.2029 -12.139 42.9975 30.0519 -12.139 38.672 34.6501 -12.139 
-35.2651 37.8727 -12.139 -39.5364 37.8727 -5.47451 -31.7156 40.8196 -12.139 
-23.8947 45.3999 -12.139 23.0303 44.1177 -12.139 34.9148 37.8727 -12.139 
30.8511 41.0357 -12.139 -23.3452 45.6936 -12.139 -23.8947 45.6936 -11.6405 
-16.0739 48.6104 -12.139 -8.25306 49.3425 -12.139 -0.432224 48.8543 -12.139 
7.38861 47.8324 -12.139 18.4857 45.6936 -12.139 15.2095 46.4569 -12.139 
23.0303 45.6936 -5.94481 -23.8947 -43.7005 -4.31816 -16.0739 -45.7515 -4.31816 
-8.25306 -46.558 -4.31816 -8.25306 -48.1565 2.07953 -0.432224 -45.6044 -4.31816 
7.38861 -44.4902 -4.31816 15.2095 -43.1627 -4.31816 23.0303 -41.4591 -4.31816 
-39.5364 -33.9673 -4.31816 -31.1618 -40.3356 -4.31816 -31.7156 -39.9986 -4.31816 
-31.7156 -40.3356 -3.71552 26.2376 -40.3356 -4.31816 30.8511 -38.5964 -4.31816 
38.672 -34.892 -4.31816 -41.0801 -32.5148 -4.31816 -47.3573 -24.9347 -4.31816 
42.2527 -32.5148 -4.31816 46.4928 -29.1615 -4.31816 -47.511 -24.694 -4.31816 
50.9506 -24.694 -4.31816 54.3136 -20.2301 -4.31816 -51.1928 -16.8731 -4.31816 
56.4271 -16.8731 -4.31816 -53.3578 -9.0523 -4.31816 59.1512 -9.0523 -4.31816 
-54.1536 -1.23146 -4.31816 -55.1781 -1.23146 1.12538 59.9275 -1.23146 -4.31816 
-53.1582 6.58938 -4.31816 58.9795 6.58938 -4.31816 -51.9226 14.4102 -4.31816 
55.7103 14.4102 -4.31816 54.3136 17.038 -4.31816 54.3136 14.4102 -1.17966 
-50.1706 22.2311 -4.31816 -47.3573 28.0543 -4.31816 51.1092 22.2311 -4.31816 
46.4928 28.4495 -4.31816 46.4928 22.2311 2.38293 -46.1991 30.0519 -4.31816 
45.1496 30.0519 -4.31816 38.672 36.6789 -4.31816 38.672 30.0519 3.08311 
-40.0051 37.8727 -4.31816 -39.5364 38.3401 -4.31816 -39.5364 37.8727 -2.45819 
-31.7156 44.2859 -4.31816 37.2867 37.8727 -4.31816 30.8511 42.2896 -4.31816 
30.8511 37.8727 1.59752 -29.1215 45.6936 -4.31816 -23.8947 48.2237 -4.31816 
-23.8947 45.6936 1.39188 -16.0739 50.6836 -4.31816 -8.25306 51.4528 -4.31816 
-0.432224 50.6895 -4.31816 7.38861 49.9133 -4.31816 7.38861 45.6936 0.93963 
15.2095 47.9451 -4.31816 15.2095 45.6936 -1.45377 23.5866 45.6936 -4.31816 
23.0303 45.9677 -4.31816 23.0303 45.6936 -3.9354 -8.25306 -48.4516 3.50268 
-31.7156 -43.2791 3.50268 -23.8947 -46.6376 3.50268 -13.6049 -48.1565 3.50268 
-16.0739 -48.0203 3.50268 -6.72102 -48.1565 3.50268 -8.25306 -48.1565 4.98785 
-0.432224 -46.9373 3.50268 7.38861 -45.1673 3.50268 15.2095 -43.493 3.50268 
23.0303 -41.7994 3.50268 -36.0509 -40.3356 3.50268 -39.5364 -37.4788 3.50268 
15.2095 -40.3356 11.2615 27.029 -40.3356 3.50268 23.0303 -40.3356 7.02835 
30.8511 -38.9409 3.50268 38.672 -35.2478 3.50268 -44.4023 -32.5148 3.50268 
-47.3573 -28.4671 3.50268 42.6742 -32.5148 3.50268 38.672 -32.5148 8.97792 
46.4928 -29.4615 3.50268 -49.6053 -24.694 3.50268 -47.3573 -24.694 9.98231 
50.9132 -24.694 3.50268 46.4928 -24.694 9.42813 54.3136 -19.6035 3.50268 
-53.0706 -16.8731 3.50268 55.9166 -16.8731 3.50268 54.3136 -16.8731 5.83887 
-54.8719 -9.0523 3.50268 -55.1781 -5.49895 3.50268 57.7963 -9.0523 3.50268 
54.3136 -9.0523 8.30162 -55.5459 -1.23146 3.50268 -55.1781 2.05103 3.50268 
-55.1781 -1.23146 4.6756 57.7016 -1.23146 3.50268 54.3136 -1.23146 7.4803 
-54.6686 6.58938 3.50268 46.4928 6.58938 9.92008 55.8258 6.58938 3.50268 
54.3136 9.52308 3.50268 54.3136 6.58938 5.22753 -53.1132 14.4102 3.50268 
30.8511 14.4102 11.1677 38.672 14.4102 9.60842 51.5743 14.4102 3.50268 
46.4928 21.0839 3.50268 46.4928 14.4102 7.69328 -50.5147 22.2311 3.50268 
-47.3573 27.7234 3.50268 -47.3573 22.2311 9.24966 23.0303 22.2311 10.3647 
30.8511 22.2311 8.80292 44.8803 22.2311 3.50268 38.672 29.2801 3.50268 
38.672 22.2311 6.50736 -45.4363 30.0519 3.50268 -39.5364 36.007 3.50268 
-39.5364 30.0519 9.73586 7.38861 30.0519 9.73861 15.2095 30.0519 9.30556 
23.0303 30.0519 8.13041 37.8318 30.0519 3.50268 30.8511 35.0261 3.50268 
30.8511 30.0519 6.14135 -37.1692 37.8727 3.50268 -31.7156 41.1551 3.50268 
-31.7156 37.8727 7.04542 -23.8947 44.4121 3.50268 -23.8947 37.8727 9.00529 
-16.0739 37.8727 9.88933 -8.25306 37.8727 9.663 -0.432224 37.8727 8.30308 
7.38861 42.8424 3.50268 7.38861 37.8727 6.53366 15.2095 40.5786 3.50268 
15.2095 37.8727 5.41038 27.3577 37.8727 3.50268 23.0303 39.891 3.50268 
23.0303 37.8727 5.07717 -20.164 45.6936 3.50268 -16.0739 46.7927 3.50268 
-16.0739 45.6936 4.68828 -8.25306 47.3681 3.50268 -8.25306 45.6936 5.20119 
0.418378 45.6936 3.50268 -0.432224 45.9248 3.50268 -0.432224 45.6936 3.72855 
-31.7156 -41.6012 11.3235 -23.8947 -45.4264 11.3235 -16.0739 -46.8336 11.3235 
-8.25306 -46.7555 11.3235 -0.432224 -44.7907 11.3235 7.38861 -42.4475 11.3235 
-33.5185 -40.3356 11.3235 -39.5364 -34.97 11.3235 -31.7156 -40.3356 12.8438 
-23.8947 -40.3356 17.843 -0.432224 -40.3356 17.7689 15.1053 -40.3356 11.3235 
7.38861 -40.3356 14.4885 15.2095 -40.3039 11.3235 23.0303 -38.0614 11.3235 
30.8511 -35.2994 11.3235 -41.6798 -32.5148 11.3235 -39.5364 -32.5148 13.4868 
15.2095 -32.5148 18.8368 23.0303 -32.5148 16.1409 35.9432 -32.5148 11.3235 
30.8511 -32.5148 13.7134 38.672 -30.5495 11.3235 -46.7995 -24.694 11.3235 
-47.3573 -23.3698 11.3235 -39.5364 -24.694 17.9093 23.0303 -24.694 18.5912 
30.8511 -24.694 17.0884 44.3666 -24.694 11.3235 38.672 -24.694 14.6139 
46.4928 -21.0003 11.3235 -49.9491 -16.8731 11.3235 -47.3573 -16.8731 13.9342 
-39.5364 -16.8731 19.0657 23.0303 -16.8731 18.8039 30.8511 -16.8731 17.8658 
38.672 -16.8731 16.1057 48.6007 -16.8731 11.3235 46.4928 -16.8731 12.9898 
[...]
POINT_DATA 524
SCALARS ImageScalars float
LOOKUP_TABLE default
0 0 0 0 0 0 0 0 0 
0 0 0 0 0 0 0 0 0 
0 0 0 0 0 0 0 0 0 
0 0 0 0 0 0 0 0 0 
0 0 0 0 0 0 0 0 0 
0 0 0 0 0 0 0 0 0 
0 0 0 0 0 0 0 0 0 
0 0 0 0 0 0 0 0 0 
0 0 0 0 0 0 0 0 0 
0 0 0 0 0 0 0 0 0 
0 0 0 0 0 0 0 0 0 
0 0 0 0 0 0 0 0 0 
0 0 0 0 0 0 0 0 0 
0 0 0 0 0 0 0 0 0 
0 0 0 0 0 0 0 0 0 
0 0 0 0 0 0 0 0 0 
0 0 0 0 0 0 0 0 0 
0 0 0 0 0 0 0 0 0 
0 0 0 0 0 0 0 0 0 
0 0 0 0 0 0 0 0 0 
0 0 0 0 0 0 0 0 0 
0 0 0 0 0 0 0 0 0 
0 0 0 0 0 0 0 0 0 
0 0 0 0 0 0 0 0 0 
0 0 0 0 0 0 0 0 0 
0 0 0 0 0 0 0 0 0 
0 0 0 0 0 0 0 0 0 
0 0 0 0 0 0 0 0 0 
0 0 0 0 0 0 0 0 0 
0 0 0 0 0 0 0 0 0 
0 0 0 0 0 0 0 0 0 
0 0 0 0 0 0 0 0 0 
0 0 0 0 0 0 0 0 0 
0 0 0 0 0 0 0 0 0 
0 0 0 0 0 0 0 0 0 
0 0 0 0 0 0 0 0 0 
0 0 0 0 0 0 0 0 0 
0 0 0 0 0 0 0 0 0 
0 0 0 0 0 0 0 0 0 
0 0 0 0 0 0 0 0 0 
0 0 0 0 0 0 0 0 0 
0 0 0 0 0 0 0 0 0 
0 0 0 0 0 0 0 0 0 
0 0 0 0 0 0 0 0 0 
0 0 0 0 0 0 0 0 0 
0 0 0 0 0 0 0 0 0 
0 0 0 0 0 0 0 0 0 
0 0 0 0 0 0 0 0 0 
0 0 0 0 0 0 0 0 0 
0 0 0 0 0 0 0 0 0 
0 0 0 0 0 0 0 0 0 
0 0 0 0 0 0 0 0 0 
0 0 0 0 0 0 0 0 0 
0 0 0 0 0 0 0 0 0 
0 0 0 0 0 0 0 0 0 
0 0 0 0 0 0 0 0 0 
0 0 0 0 0 0 0 0 0 
0 0 0 0 0 0 0 0 0 
0 0 
NORMALS Normals float
0.199011 0.344696 0.917376 0.126827 0.248349 0.960332 0.0509035 0.226281 0.972731 
0.0063901 0.237249 0.971428 -0.00784308 0.26402 0.964485 -0.0496263 0.375916 0.925324 
-0.0985733 0.474315 0.874819 -0.232739 0.562765 0.793176 0.20276 0.337959 0.91906 
0.0938733 0.194467 0.976407 0.0537732 0.0923507 0.994273 0.0566487 0.0335636 0.99783 
0.0140277 0.087585 0.996058 0.057866 0.0868765 0.994537 0.085174 0.175203 0.980841 
0.00787584 0.255848 0.966685 -0.116416 0.332683 0.935826 -0.302645 0.426927 0.852138 
0.340883 0.264259 0.902201 0.0878366 0.254283 0.963133 -0.0389244 0.191979 0.980627 
-0.0411436 0.111366 0.992927 0.0474504 0.0291325 0.998449 0.0592429 0.18888 0.980211 
0.0866174 0.16972 0.981678 0.142664 0.0891356 0.985749 0.07922 0.09657 0.992169 
-0.027036 0.161028 0.986579 -0.212041 0.222797 0.951525 -0.389485 0.322518 0.862719 
0.31907 0.114857 0.940746 0.107006 0.135502 0.984982 -0.0591118 0.160208 0.985312 
-0.106087 0.224456 0.968692 0.134671 0.192856 0.971941 0.165329 -0.0349454 0.985619 
-0.0575744 0.155068 0.986225 0.00878272 0.0259823 0.999624 0.0807417 0.0292299 0.996306 
0.0113305 0.0613851 0.99805 -0.130093 0.0967747 0.986768 -0.336927 0.180306 0.924105 
0.307117 -0.015351 0.951548 0.122597 -0.00986045 0.992408 0.0502148 -0.0116797 0.99867 
-0.00215309 0.053936 0.998542 -0.213088 0.177736 0.960731 0.0171101 0.036305 0.999194 
0.149436 0.0311245 0.988281 0.0280042 0.00848454 0.999572 0.116329 0.0321571 0.99269 
0.0425082 0.0453065 0.998068 -0.0962402 0.0595318 0.993576 -0.287253 0.0841294 0.954153 
-0.653829 0.103183 0.749574 0.32507 -0.0752667 0.94269 0.116156 -0.0330361 0.992681 
0.00556787 -0.0314953 0.999488 0.0763584 -0.0655302 0.994925 0.146807 -0.055543 0.987604 
0.0160981 0.203588 0.978924 -0.113123 -0.0915104 0.989358 0.00901787 0.00690357 0.999936 
0.117482 0.032031 0.992558 0.0388181 0.00753561 0.999218 -0.0857372 -0.025237 0.995998 
-0.275621 -0.0489211 0.960021 -0.701374 -0.150953 0.696626 0.386581 -0.0300965 0.921764 
0.174068 0.020174 0.984527 0.0173849 0.068894 0.997473 -0.022373 0.0876912 0.995896 
0.037775 -0.0274617 0.998909 -0.0341178 -0.109953 0.993351 -0.0271589 -0.0852087 0.995993 
0.144251 0.0304079 0.989074 0.114399 -0.00978461 0.993387 -0.01652 -0.0412841 0.999011 
-0.159729 -0.0576937 0.985474 -0.390518 -0.223455 0.893064 0.441592 -0.0910766 0.892581 
0.224462 -0.0212656 0.974251 0.0730998 0.0319951 0.996811 -0.0164325 0.12384 0.992166 
-0.053319 0.0797255 0.99539 -0.043432 0.0116027 0.998989 0.0319901 0.076406 0.996563 
0.0870714 0.069202 0.993796 0.0455578 -0.0541916 0.997491 -0.00706198 -0.0490994 0.998769 
-0.275034 -0.214893 0.937111 -0.571243 -0.44865 0.68731 0.5377 -0.287668 0.792544 
0.312273 -0.199372 0.928836 0.156853 -0.0731599 0.984908 0.0232052 -0.0601853 0.997917 
-0.0728406 -0.0126522 0.997263 -0.0352282 -0.00647147 0.999358 0.0319677 0.00266514 0.999485 
0.0153003 0.0133537 0.999794 -0.0104822 -0.126294 0.991938 -0.171449 -0.264337 0.949069 
-0.467958 -0.437151 0.768058 0.415496 -0.441386 0.795325 0.232175 -0.282681 0.930691 
0.0431827 -0.274648 0.960575 -0.00828485 -0.190678 0.981618 -0.0250406 -0.189635 0.981535 
0.036677 -0.220866 0.974614 -0.0323423 -0.329655 0.943547 -0.252126 -0.368538 0.894769 
-0.341802 -0.568723 0.748148 0.168013 -0.598952 0.782961 0.0380517 -0.540911 0.840219 
-0.0813053 -0.574257 0.814627 -0.146189 -0.682625 0.715998 -0.178435 -0.768348 0.614657 
0.203682 0.362527 0.909444 0.281903 0.634062 0.720067 0.143957 0.348544 0.926172 
0.172569 0.574886 0.799829 0.0675861 0.444093 0.893428 0.065319 0.552338 0.831057 
-0.019202 0.452569 0.891522 -0.0381107 0.575714 0.816762 -0.0627798 0.488369 0.870376 
-0.1079 0.678075 0.72703 -0.100345 0.510574 0.853958 -0.163212 0.783062 0.600146 
-0.123676 0.558189 0.820444 -0.252735 0.880897 0.400181 -0.238886 0.576859 0.781132 
0.543216 0.606794 0.580274 0.21233 0.354666 0.910565 0.231285 0.357931 0.90465 
0.332884 0.450415 0.828441 -0.250413 0.576375 0.777872 -0.372375 0.565141 0.736175 
-0.459765 0.753213 0.470411 0.752442 0.472239 0.459152 0.255381 0.364936 0.895322 
0.361748 0.351777 0.86336 0.391801 0.425738 0.815622 -0.462753 0.50429 0.729076 
-0.484899 0.468062 0.738777 -0.578278 0.575313 0.578455 0.472123 0.270467 0.839016 
0.678856 0.293544 0.673043 -0.585152 0.369999 0.721593 -0.767676 0.426225 0.478545 
0.544725 0.130621 0.82838 0.623866 0.14145 0.768624 -0.66037 0.157123 0.734319 
-0.672131 0.147932 0.725504 -0.68182 0.159897 0.713831 0.574193 -0.0125609 0.818624 
0.599761 -0.0127611 0.800077 -0.713725 0.088194 0.694851 0.535279 -0.0938695 0.839443 
0.633443 -0.106381 0.766441 -0.793633 -0.168861 0.584493 -0.796925 -0.241495 0.553706 
0.534473 -0.0673876 0.842495 0.699787 -0.119357 0.70431 -0.77538 -0.296986 0.557302 
-0.89077 -0.383228 0.244263 0.598103 -0.129327 0.790915 0.805417 -0.235093 0.544091 
-0.66339 -0.500369 0.556368 -0.658234 -0.535059 0.529566 0.577991 -0.308248 0.755585 
0.577269 -0.366204 0.729832 -0.662141 -0.545685 0.513612 -0.588497 -0.639134 0.495156 
0.537529 -0.504945 0.675347 0.703711 -0.698079 0.132199 0.461226 -0.587559 0.664865 
0.372449 -0.747174 0.550465 -0.284504 -0.822232 0.492942 -0.519559 -0.677572 0.520534 
-0.420241 -0.728666 0.540779 0.364541 -0.752829 0.548049 0.379858 -0.78027 0.496877 
0.215382 -0.753702 0.620922 0.00792916 -0.805422 0.592648 -0.0943868 -0.817194 0.568581 
-0.14593 -0.814527 0.561472 -0.238996 -0.825118 0.511919 -0.20059 -0.801643 0.563145 
-0.328808 -0.935874 -0.126592 0.300186 0.777161 0.553091 0.155031 0.860858 0.484653 
-0.0145471 0.891788 0.45222 -0.0616133 0.995214 0.0758421 -0.122773 0.919164 0.374251 
-0.154248 0.932282 0.327196 -0.187675 0.935544 0.299224 -0.271373 0.91733 0.291313 
0.571339 0.641175 0.512315 0.446404 0.714487 0.538732 0.453529 0.708618 0.54053 
0.464521 0.731456 0.499192 -0.315349 0.910859 0.266253 -0.374951 0.893272 0.247947 
-0.482666 0.830686 0.277478 0.599433 0.622523 0.503135 0.754999 0.477556 0.449353 
-0.56059 0.782966 0.269636 -0.646287 0.714631 0.267612 0.758477 0.472999 0.448312 
-0.736067 0.630504 0.246312 -0.823255 0.536658 0.185064 0.837722 0.319902 0.442588 
-0.870183 0.461647 0.17223 0.898739 0.160669 0.407987 -0.965751 0.211166 0.150775 
0.916373 -0.0104806 0.400189 0.99839 -0.0122076 0.055386 -0.997804 -0.00800013 0.0657521 
0.900695 -0.121984 0.416974 -0.962998 -0.269467 0.00478789 0.894107 -0.19054 0.405298 
-0.903315 -0.427884 -0.0306101 -0.875337 -0.474307 -0.0939047 -0.836214 -0.474151 -0.27555 
0.897242 -0.307316 0.317039 0.850631 -0.470122 0.235399 -0.799442 -0.57634 -0.169483 
-0.751619 -0.634494 -0.180239 -0.561316 -0.557901 -0.611286 0.827237 -0.526437 0.196324 
-0.740085 -0.64401 -0.193715 -0.683493 -0.696768 -0.217603 -0.475782 -0.486165 -0.732991 
0.704236 -0.70748 0.0593527 0.69466 -0.717377 0.0530806 0.686644 -0.725288 -0.0497648 
0.53755 -0.842598 -0.0326815 -0.661011 -0.717383 -0.220058 -0.475455 -0.859034 -0.189743 
-0.473515 -0.572685 -0.66919 0.47354 -0.879334 -0.0503217 0.361331 -0.930225 -0.0641962 
0.327828 -0.836088 -0.439871 0.19813 -0.972559 -0.12196 0.000693346 -0.992811 -0.119687 
-0.0899938 -0.983162 -0.159039 -0.182317 -0.963475 -0.196154 -0.231571 -0.739145 -0.632487 
-0.245729 -0.937525 -0.246301 -0.231878 -0.86494 -0.445097 -0.330285 -0.913483 -0.237615 
-0.324288 -0.914865 -0.240539 -0.317137 -0.911034 -0.263516 -0.0684669 0.997644 0.00441681 
0.491611 0.867123 0.0801055 0.272108 0.958413 0.0860283 0.0540079 0.997945 0.0344829 
0.110488 0.992672 0.0489403 -0.0953612 0.995431 -0.004894 -0.0784424 0.994815 -0.0647261 
-0.205905 0.977577 -0.0441144 -0.216857 0.969986 -0.109998 -0.208582 0.965779 -0.154157 
-0.281263 0.944749 -0.168346 0.593767 0.801481 0.0711958 0.675695 0.735147 0.0547307 
-0.228311 0.830183 -0.508597 -0.328395 0.932697 -0.149105 -0.26469 0.901787 -0.341643 
-0.370542 0.918343 -0.139088 -0.504018 0.84517 -0.177913 0.763216 0.64596 0.0153816 
0.833299 0.552629 -0.0146192 -0.591016 0.784648 -0.187157 -0.501904 0.72282 -0.474999 
-0.674919 0.704263 -0.220224 0.878227 0.477654 -0.0237442 0.815767 0.422821 -0.394647 
-0.764482 0.590298 -0.259067 -0.639622 0.473405 -0.605617 -0.8339 0.456338 -0.310429 
0.951262 0.303807 -0.0529409 -0.863235 0.377056 -0.335639 -0.812487 0.359775 -0.458723 
0.985883 0.152374 -0.0694038 0.994317 0.0774472 -0.0730523 -0.908716 0.11009 -0.402635 
-0.734467 0.0603663 -0.675954 0.996826 -0.0128444 -0.078568 0.99412 -0.070316 -0.0823456 
0.989074 -0.0154684 -0.146606 -0.877774 -0.102043 -0.468081 -0.66755 -0.139455 -0.731389 
0.984357 -0.151008 -0.090759 -0.385223 -0.25984 -0.885487 -0.763996 -0.326019 -0.556796 
-0.695825 -0.405049 -0.593097 -0.668837 -0.352978 -0.654266 0.956878 -0.250293 -0.147436 
-0.140093 -0.277791 -0.950372 -0.202481 -0.339859 -0.918421 -0.610875 -0.453464 -0.649001 
-0.52099 -0.518214 -0.67825 -0.43611 -0.380131 -0.815664 0.883471 -0.423904 -0.199459 
0.782967 -0.565011 -0.26024 0.704419 -0.410219 -0.579236 -0.166186 -0.233859 -0.957962 
-0.219113 -0.294421 -0.930218 -0.49322 -0.51597 -0.700363 -0.453144 -0.467802 -0.758829 
-0.347364 -0.397102 -0.849499 0.722621 -0.620764 -0.30409 0.594612 -0.69552 -0.403347 
0.453001 -0.574785 -0.681478 -0.121562 -0.350376 -0.928687 -0.0994415 -0.347641 -0.93234 
-0.172558 -0.331716 -0.927463 -0.447834 -0.46685 -0.762559 -0.391768 -0.456611 -0.798765 
-0.302881 -0.394917 -0.867354 0.524781 -0.725911 -0.444588 0.393935 -0.752281 -0.528098 
0.308159 -0.68754 -0.657515 0.280578 -0.748004 -0.60147 0.146312 -0.569561 -0.808822 
0.0322734 -0.4828 -0.875136 -0.0927875 -0.426555 -0.89969 -0.182773 -0.425658 -0.886233 
-0.204056 -0.567591 -0.797623 -0.164787 -0.453593 -0.875841 -0.123245 -0.600158 -0.79033 
-0.089165 -0.506386 -0.857684 -0.315966 -0.517953 -0.794916 -0.172262 -0.609922 -0.773512 
-0.181148 -0.519055 -0.835325 0.224605 -0.758665 -0.611539 0.147319 -0.765418 -0.626444 
0.138687 -0.716458 -0.683706 -0.045529 -0.756404 -0.652518 -0.0543609 -0.670193 -0.740194 
-0.192861 -0.672417 -0.714604 -0.187095 -0.68405 -0.705033 -0.190088 -0.674185 -0.713681 
0.497381 0.76497 -0.409186 0.278257 0.891433 -0.35766 0.0734089 0.929878 -0.360469 
-0.11915 0.912179 -0.392087 -0.242488 0.882948 -0.401997 -0.251983 0.858178 -0.447252 
0.535365 0.737561 -0.411567 0.658392 0.609813 -0.441189 0.493377 0.720696 -0.487007 
0.278202 0.58162 -0.764409 -0.200845 0.682156 -0.703082 -0.228671 0.828863 -0.510583 
-0.260748 0.778577 -0.570814 -0.2285 0.82808 -0.511929 -0.243789 0.765585 -0.595355 
-0.346847 0.700956 -0.623183 0.694032 0.556059 -0.457294 0.639966 0.526632 -0.559555 
-0.266357 0.393674 -0.879815 -0.275103 0.483682 -0.830885 -0.429848 0.649069 -0.627646 
-0.322272 0.568457 -0.756966 -0.473432 0.591461 -0.652714 0.779077 0.399622 -0.483054 
0.781948 0.374305 -0.498451 0.467143 0.261243 -0.844707 -0.200793 0.142862 -0.969161 
-0.240607 0.217691 -0.945896 -0.559819 0.399998 -0.725675 -0.402356 0.305124 -0.863139 
-0.574982 0.320098 -0.752949 0.782421 0.242022 -0.573797 0.689144 0.197639 -0.697151 
0.394674 0.0666485 -0.916401 -0.109617 -0.0796537 -0.990777 -0.168959 0.0105217 -0.985567 
-0.272495 0.0851091 -0.958386 -0.582729 0.222112 -0.781724 -0.509763 0.191308 -0.838775 
0.796377 0.111828 -0.594372 0.615969 0.0637177 -0.785189 -0.211295 -0.100424 -0.97225 
-0.0565761 -0.176055 -0.982753 -0.0795221 -0.128955 -0.988457 -0.217565 -0.0922131 -0.97168 
-0.527036 -0.00722029 -0.849812 -0.414029 -0.0543907 -0.908637 0.768341 -0.0379883 -0.638912 
0.531794 -0.0614989 -0.844638 0.271463 -0.114627 -0.955599 0.0432604 -0.0762513 -0.99615 
-0.326721 -0.0946165 -0.940373 -0.125754 -0.191924 -0.97332 -0.0884867 -0.229601 -0.969254 
-0.214593 -0.206176 -0.954694 -0.412966 -0.180969 -0.892586 -0.381391 -0.212375 -0.899688 
-0.386509 -0.192591 -0.901953 0.724724 -0.173234 -0.666907 0.554071 -0.132358 -0.82188 
0.254621 -0.103714 -0.961463 0.0696814 -0.107601 -0.991749 -0.0232125 -0.115892 -0.99299 
0.107781 -0.111341 -0.98792 -0.130554 -0.0614313 -0.989536 -0.0805958 -0.278678 -0.956997 
-0.282362 -0.269772 -0.920595 -0.154995 -0.259302 -0.953278 -0.135988 -0.277307 -0.951109 
-0.0883851 -0.279118 -0.956181 -0.291782 -0.276722 -0.915581 -0.199103 -0.31389 -0.928348 
-0.203308 -0.299391 -0.932218 0.686678 -0.250631 -0.682391 0.648608 -0.310953 -0.694706 
0.635172 -0.240867 -0.733852 0.265528 -0.201766 -0.942754 0.0824135 -0.169078 -0.982151 
-0.0198534 -0.121946 -0.992338 -0.000140737 -0.141554 -0.989931 -0.0128286 -0.309254 -0.950893 
-0.110832 -0.237822 -0.964965 -0.220764 -0.343253 -0.91293 -0.257385 -0.273801 -0.926707 
-0.141081 -0.267104 -0.953285 -0.152755 -0.230728 -0.960953 -0.147886 -0.230029 -0.961882 
0.560442 -0.381242 -0.735227 0.394594 -0.503689 -0.7685 0.322127 -0.355697 -0.877333 
0.139804 -0.317106 -0.938029 0.00401532 -0.283082 -0.959087 -0.0743963 -0.254478 -0.964213 
-0.108085 -0.313357 -0.943464 -0.162073 -0.369145 -0.915131 -0.134587 -0.364691 -0.921351 
-0.150067 -0.380397 -0.912567 -0.1418 -0.250686 -0.957627 -0.129742 -0.267521 -0.954777 
-0.135423 -0.258354 -0.956511 0.310392 -0.519091 -0.796367 0.192474 -0.509935 -0.838403 
0.168345 -0.460037 -0.871795 0.0815746 -0.489148 -0.868378 0.0466 -0.42141 -0.905672 
0.00239764 -0.434546 -0.900646 -0.0327257 -0.359312 -0.932643 -0.108463 -0.37644 -0.92007 
-0.125658 -0.337047 -0.933064 -0.185315 -0.341305 -0.921504 -0.188196 -0.342894 -0.920329 
-0.188303 -0.340762 -0.921099 0.0683821 0.548301 -0.83348 -0.0626019 0.598228 -0.798877 
0.374523 0.376524 -0.847326 0.0821298 0.544506 -0.834726 0.237344 0.453796 -0.858916 
0.0691579 0.543548 -0.836525 -0.0824798 0.600755 -0.795167 -0.061348 0.589205 -0.805651 
-0.175939 0.572043 -0.801132 -0.239482 0.496872 -0.834126 0.379062 0.369955 -0.848201 
0.369395 0.366078 -0.854128 0.171259 0.251444 -0.9526 0.103199 0.19512 -0.975335 
0.000830131 0.182809 -0.983148 -0.111924 0.25574 -0.960245 -0.25978 0.384564 -0.885791 
-0.217541 0.361126 -0.906788 -0.261767 0.326825 -0.90811 0.389273 0.20496 -0.89803 
0.287849 0.132442 -0.948474 0.0821876 0.0670591 -0.994358 0.0122176 -0.0200356 -0.999725 
0.00922331 -0.105163 -0.994412 -0.0326404 -0.0458439 -0.998415 -0.156777 0.0290977 -0.987205 
-0.210712 0.108122 -0.97155 -0.229235 0.0455227 -0.972306 0.387074 0.0632069 -0.91988 
0.342903 -0.00520739 -0.939356 0.187774 -0.0210271 -0.981987 0.0346842 -0.0732614 -0.996709 
-0.0672035 -0.117228 -0.990829 -0.0304228 -0.219977 -0.975031 0.0220342 -0.218441 -0.975601 
-0.109675 -0.103876 -0.988525 -0.136835 -0.104385 -0.985079 -0.187724 -0.125279 -0.9742 
-0.175175 -0.1396 -0.97459 0.320177 -0.0381546 -0.946589 0.315726 -0.042377 -0.947904 
0.31764 -0.0388984 -0.947413 0.135026 -0.0990706 -0.985877 -0.0084352 -0.148343 -0.9889 
-0.133228 -0.150598 -0.979577 -0.0984164 -0.0645555 -0.993049 0.0864707 -0.172163 -0.981266 
0.0953728 -0.194034 -0.976348 -0.160035 -0.075284 -0.984236 -0.0762614 -0.0387517 -0.996335 
0.175223 -0.133723 -0.975405 0.0806453 -0.126492 -0.988684 0.0900244 -0.149401 -0.98467 
-0.0197494 -0.148536 -0.98871 -0.0154662 -0.18575 -0.982475 0.0449368 -0.150342 -0.987612 
0.0158596 -0.166595 -0.985898 -0.00392783 -0.015855 -0.999867 -0.0689505 0.0674602 -0.995337 
0.0257568 -0.0998496 -0.994669 -0.219994 -0.11233 -0.969012 -0.0571911 -0.242496 -0.968465 
-0.00584201 -0.147465 -0.98905 0.0603976 -0.121495 -0.990753 -0.0717254 -0.0934509 -0.993037 
-0.00681031 -0.227297 -0.973802 0.00299241 -0.127708 -0.991807 
