# vtk DataFile Version 4.2
vtk output
ASCII
DATASET POLYDATA
POINTS 548 float
6.91599 -0.871136 -19.0898 -24.215 -39.7848 -13.4341 -16.4322 -39.7848 -14.6471 
-8.64948 -39.7848 -15.8807 -0.866747 -39.7848 -16.5862 6.91599 -39.7848 -16.4526 
14.6987 -39.7848 -15.4274 22.4815 -39.7848 -14.3762 30.2642 -39.7848 -12.5756 
-39.7804 -32.0021 -13.3286 -31.9977 -32.0021 -15.4636 -24.215 -32.0021 -17.3611 
-16.4322 -32.0021 -17.0464 -8.64948 -32.0021 -17.7712 -0.866747 -32.0021 -18.3846 
6.91599 -32.0021 -18.1718 14.6987 -32.0021 -17.3052 22.4815 -32.0021 -16.7753 
30.2642 -32.0021 -15.7905 38.0469 -32.0021 -14.2279 45.8297 -32.0021 -11.8195 
-47.5632 -24.2193 -13.8045 -39.7804 -24.2193 -16.3821 -31.9977 -24.2193 -17.4477 
-24.215 -24.2193 -17.8796 -16.4322 -24.2193 -17.4423 -8.64948 -24.2193 -17.4679 
-0.866747 -24.2193 -16.9914 6.91599 -24.2193 -17.1578 14.6987 -24.2193 -16.9854 
22.4815 -24.2193 -17.323 30.2642 -24.2193 -16.9391 38.0469 -24.2193 -16.253 
45.8297 -24.2193 -15.3994 -55.3459 -16.4366 -12.9019 -47.5632 -16.4366 -16.0151 
-39.7804 -16.4366 -18.4769 -31.9977 -16.4366 -18.1844 -24.215 -16.4366 -17.6367 
-16.4322 -16.4366 -16.7558 -8.64948 -16.4366 -16.0472 -0.866747 -16.4366 -15.3555 
6.91599 -16.4366 -15.2918 14.6987 -16.4366 -15.6355 22.4815 -16.4366 -16.4592 
30.2642 -16.4366 -17.1438 38.0469 -16.4366 -18.002 45.8297 -16.4366 -16.6359 
53.6124 -16.4366 -13.3849 -55.3459 -8.65387 -13.1411 -47.5632 -8.65387 -16.3457 
-39.7804 -8.65387 -17.812 -31.9977 -8.65387 -18.2312 -24.215 -8.65387 -16.9595 
-16.4322 -8.65387 -15.5595 -8.64948 -8.65387 -16.5279 -0.866747 -8.65387 -15.0664 
6.91599 -0.926334 -19.072 6.91599 -8.65387 -15.6018 14.6987 -8.65387 -14.2851 
22.4815 -8.65387 -15.7187 30.2642 -8.65387 -17.1617 38.0469 -8.65387 -17.4402 
45.8297 -8.65387 -17.1244 53.6124 -8.65387 -16.498 -55.3459 -0.871136 -13.5293 
-47.5632 -0.871136 -16.2469 -39.7804 -0.871136 -17.2915 -31.9977 -0.871136 -17.3311 
-24.215 -0.871136 -15.7497 -16.4322 -0.871136 -13.4008 -8.64948 -0.871136 -17.1159 
6.88121 -0.871136 -19.072 -0.866747 -0.871136 -11.5921 6.94806 -0.871136 -19.072 
6.91599 -0.805315 -19.072 14.6987 -0.871136 -13.35 22.4815 -0.871136 -15.0715 
30.2642 -0.871136 -16.892 38.0469 -0.871136 -17.3506 45.8297 -0.871136 -17.2605 
53.6124 -0.871136 -16.3603 -55.3459 6.9116 -11.4157 -47.5632 6.9116 -15.4602 
-39.7804 6.9116 -17.1134 -31.9977 6.9116 -16.3469 -24.215 6.9116 -15.1852 
-16.4322 6.9116 -13.7208 -8.64948 6.9116 -17.3968 -0.866747 6.9116 -15.0653 
6.91599 6.9116 -16.8076 14.6987 6.9116 -14.1185 22.4815 6.9116 -15.1115 
30.2642 6.9116 -16.532 38.0469 6.9116 -16.9512 45.8297 6.9116 -16.6013 
53.6124 6.9116 -14.9869 -47.5632 14.6943 -14.1513 -39.7804 14.6943 -15.6337 
-31.9977 14.6943 -16.1016 -24.215 14.6943 -15.7532 -16.4322 14.6943 -15.0577 
-8.64948 14.6943 -14.6041 -0.866747 14.6943 -15.3398 6.91599 14.6943 -14.2072 
14.6987 14.6943 -13.5932 22.4815 14.6943 -14.8519 30.2642 14.6943 -15.5228 
38.0469 14.6943 -15.8975 45.8297 14.6943 -15.0532 53.6124 14.6943 -12.0562 
-47.5632 22.4771 -11.6742 -39.7804 22.4771 -14.8476 -31.9977 22.4771 -16.1501 
-24.215 22.4771 -15.5572 -16.4322 22.4771 -15.1653 -8.64948 22.4771 -14.2868 
-0.866747 22.4771 -14.7 6.91599 22.4771 -13.3068 14.6987 22.4771 -12.3643 
22.4815 22.4771 -13.1688 30.2642 22.4771 -13.6667 38.0469 22.4771 -13.4633 
45.8297 22.4771 -11.7061 -39.7804 30.2598 -12.2866 -31.9977 30.2598 -14.4174 
-24.215 30.2598 -14.2168 -16.4322 30.2598 -14.0465 -8.64948 30.2598 -13.8224 
-0.866747 30.2598 -13.4995 6.91599 30.2598 -12.6512 -31.9977 38.0425 -11.5138 
-24.215 -42.3462 -11.2893 -16.4322 -43.7524 -11.2893 -8.64948 -45.1444 -11.2893 
-8.64948 -47.5676 -3.57649 -0.866747 -45.7398 -11.2893 6.91599 -45.6041 -11.2893 
14.6987 -44.7909 -11.2893 22.4815 -44.1122 -11.2893 30.2642 -40.9929 -11.2893 
-39.7804 -34.4323 -11.2893 -30.0302 -39.7848 -11.2893 -31.9977 -38.6549 -11.2893 
-31.9977 -39.7848 -9.63377 33.6247 -39.7848 -11.2893 38.0469 -37.6179 -11.2893 
38.0469 -39.7848 -6.80864 45.8297 -32.6824 -11.2893 -43.5859 -32.0021 -11.2893 
-47.5632 -28.5746 -11.2893 -47.5632 -32.0021 -6.80925 46.5467 -32.0021 -11.2893 
-51.4295 -24.2193 -11.2893 -55.3459 -19.8208 -11.2893 -55.3459 -24.2193 -6.01052 
53.0999 -24.2193 -11.2893 53.6124 -23.2236 -11.2893 53.6124 -24.2193 -10.4084 
-57.1446 -16.4366 -11.2893 56.3901 -16.4366 -11.2893 -57.6114 -8.65387 -11.2893 
60.3697 -8.65387 -11.2893 61.3951 -8.65387 -9.48457 -58.1025 -0.871136 -11.2893 
-63.1286 -0.871136 -4.45695 61.2383 -0.871136 -11.2893 61.3951 -0.871136 -11.06 
-55.4991 6.9116 -11.2893 -55.3459 7.62668 -11.2893 59.5301 6.9116 -11.2893 
61.3951 6.9116 -8.8028 -52.9811 14.6943 -11.2893 -55.3459 14.6943 -9.0251 
54.7227 14.6943 -11.2893 53.6124 16.3582 -11.2893 -48.0946 22.4771 -11.2893 
-47.5632 23.46 -11.2893 14.6987 28.5102 -11.2893 22.4815 28.7752 -11.2893 
30.2642 28.1274 -11.2893 38.0469 26.8983 -11.2893 46.8088 22.4771 -11.2893 
45.8297 23.1902 -11.2893 53.6124 22.4771 -6.91016 -41.9019 30.2598 -11.2893 
-47.5632 30.2598 -6.87178 -39.7804 32.2171 -11.2893 -24.215 38.0064 -11.2893 
-16.4322 37.3057 -11.2893 -8.64948 37.378 -11.2893 -0.866747 36.8154 -11.2893 
13.2586 30.2598 -11.2893 6.91599 34.02 -11.2893 14.6987 30.2598 -10.9806 
22.4815 30.2598 -10.8051 30.2642 30.2598 -10.4163 38.0469 30.2598 -9.41965 
45.8297 30.2598 -6.3725 -32.667 38.0425 -11.2893 -39.7804 38.0425 -6.42469 
-24.6363 38.0425 -11.2893 -31.9977 38.3148 -11.2893 -24.215 38.0425 -11.2703 
-16.4322 38.0425 -10.9699 -8.64948 38.0425 -10.9894 -0.866747 38.0425 -10.8082 
6.91599 38.0425 -9.59235 14.6987 38.0425 -7.8981 22.4815 38.0425 -7.18624 
30.2642 38.0425 -5.69681 -8.64948 45.8253 -3.51721 -8.64948 -47.5832 -3.50656 
-31.9977 -42.3803 -3.50656 -24.215 -45.0582 -3.50656 -8.75329 -47.5676 -3.50656 
-16.4322 -46.4812 -3.50656 -7.19582 -47.5676 -3.50656 -8.64948 -47.5676 -3.45773 
-0.866747 -47.5003 -3.50656 6.91599 -47.4366 -3.50656 14.6987 -47.3494 -3.50656 
22.4815 -46.2871 -3.50656 30.2642 -44.2538 -3.50656 38.0469 -40.7432 -3.50656 
-47.5632 -33.3068 -3.50656 -37.301 -39.7848 -3.50656 -39.7804 -38.4517 -3.50656 
39.5683 -39.7848 -3.50656 38.0469 -39.7848 -1.04203 45.8297 -35.1655 -3.50656 
-49.0877 -32.0021 -3.50656 -55.3459 -25.5259 -3.50656 -47.5632 -32.0021 3.10371 
49.1845 -32.0021 -3.50656 45.8297 -32.0021 2.2496 53.6124 -27.0286 -3.50656 
-56.4605 -24.2193 -3.50656 -55.3459 -24.2193 1.44696 55.7175 -24.2193 -3.50656 
53.6124 -24.2193 0.512894 -60.8033 -16.4366 -3.50656 60.5726 -16.4366 -3.50656 
61.3951 -14.238 -3.50656 -62.8858 -8.65387 -3.50656 -63.1286 -5.98325 -3.50656 
63.3783 -8.65387 -3.50656 61.3951 -8.65387 1.08894 -63.5706 -0.871136 -3.50656 
-63.1286 0.605864 -3.50656 -63.1286 -0.871136 1.29352 64.1168 -0.871136 -3.50656 
61.3951 -0.871136 3.94413 -61.1731 6.9116 -3.50656 63.6023 6.9116 -3.50656 
61.3951 12.7282 -3.50656 61.3951 6.9116 3.90635 -58.1011 14.6943 -3.50656 
-55.3459 20.384 -3.50656 60.6601 14.6943 -3.50656 -54.2866 22.4771 -3.50656 
55.9049 22.4771 -3.50656 53.6124 25.5417 -3.50656 -49.5032 30.2598 -3.50656 
-47.5632 32.715 -3.50656 38.0469 37.9234 -3.50656 49.0207 30.2598 -3.50656 
45.8297 32.9503 -3.50656 -42.0229 38.0425 -3.50656 -39.7804 39.6964 -3.50656 
-31.9977 42.9163 -3.50656 -24.215 44.4329 -3.50656 -16.4322 45.2155 -3.50656 
-0.866747 45.7871 -3.50656 6.91599 45.0639 -3.50656 14.6987 43.6106 -3.50656 
22.4815 42.108 -3.50656 37.6738 38.0425 -3.50656 30.2642 40.0347 -3.50656 
38.0469 38.0425 -3.26355 -8.7443 45.8253 -3.50656 -16.4322 45.8253 -0.429426 
-7.25072 45.8253 -3.50656 -8.64948 45.8322 -3.50656 -0.866747 45.8253 -3.38098 
6.91599 45.8253 -1.48393 14.6987 45.8253 0.703045 22.4815 45.8253 4.04861 
-31.9977 -40.0154 4.27618 -24.215 -42.0006 4.27618 -16.4322 -43.539 4.27618 
-8.64948 -44.4299 4.27618 -0.866747 -44.4757 4.27618 6.91599 -44.4851 4.27618 
14.6987 -44.3955 4.27618 22.4815 -43.6675 4.27618 30.2642 -41.7234 4.27618 
-32.5132 -39.7848 4.27618 -39.7804 -35.8183 4.27618 -31.9977 -39.7848 4.58111 
-24.215 -39.7848 6.87037 -16.4322 -39.7848 8.42338 -8.64948 -39.7848 9.18838 
-0.866747 -39.7848 9.54998 6.91599 -39.7848 9.58956 14.6987 -39.7848 9.19803 
22.4815 -39.7848 8.07946 34.1202 -39.7848 4.27618 30.2642 -39.7848 6.53905 
38.0469 -36.4413 4.27618 -47.0454 -32.0021 4.27618 -47.5632 -31.6488 4.27618 
-39.7804 -32.0021 8.80892 -31.9977 -32.0021 11.6596 30.2642 -32.0021 10.6651 
43.8276 -32.0021 4.27618 38.0469 -32.0021 7.6643 45.8297 -29.9145 4.27618 
-54.47 -24.2193 4.27618 -55.3459 -23.2909 4.27618 -47.5632 -24.2193 10.2156 
38.0469 -24.2193 10.8221 50.3369 -24.2193 4.27618 45.8297 -24.2193 7.33256 
53.6124 -21.1014 4.27618 -59.6782 -16.4366 4.27618 -55.3459 -16.4366 10.4265 
45.8297 -16.4366 10.0727 56.5752 -16.4366 4.27618 53.6124 -16.4366 6.97252 
-61.9893 -8.65387 4.27618 -55.3459 -8.65387 11.9913 59.2066 -8.65387 4.27618 
53.6124 -8.65387 8.90872 -62.795 -0.871136 4.27618 61.2028 -0.871136 4.27618 
53.6124 -0.871136 11.0355 -60.0738 6.9116 4.27618 -55.3459 6.9116 11.5238 
61.2462 6.9116 4.27618 53.6124 6.9116 10.5743 -57.0301 14.6943 4.27618 
-55.3459 18.4221 4.27618 -55.3459 14.6943 6.80853 58.1359 14.6943 4.27618 
53.6124 14.6943 9.41983 -52.9917 22.4771 4.27618 -47.5632 22.4771 9.76163 
55.3931 22.4771 4.27618 53.6124 25.4114 4.27618 53.6124 22.4771 6.6828 
-48.2768 30.2598 4.27618 -47.5632 31.2438 4.27618 -47.5632 30.2598 5.26402 
50.3178 30.2598 4.27618 45.8297 34.792 4.27618 45.8297 30.2598 10.7023 
-41.3819 38.0425 4.27618 -39.7804 39.3116 4.27618 -39.7804 38.0425 6.24395 
-31.9977 43.4722 4.27618 -31.9977 38.0425 11.8463 -24.215 45.717 4.27618 
30.2642 44.1645 4.27618 42.0159 38.0425 4.27618 38.0469 40.7161 4.27618 
38.0469 38.0425 8.87263 -23.3647 45.8253 4.27618 -16.4322 46.6454 4.27618 
-16.4322 45.8253 6.69897 -8.64948 47.5609 4.27618 -8.64948 45.8253 8.82639 
-0.866747 47.658 4.27618 -0.866747 45.8253 9.08193 6.91599 47.4372 4.27618 
6.91599 45.8253 8.46478 14.6987 47.1242 4.27618 14.6987 45.8253 7.57239 
22.8164 45.8253 4.27618 22.4815 45.8983 4.27618 22.4815 45.8253 4.52108 
[...]
POINT_DATA 548
SCALARS ImageScalars float
LOOKUP_TABLE default
0 0 0 0 0 0 0 0 0 
0 0 0 0 0 0 0 0 0 
0 0 0 0 0 0 0 0 0 
0 0 0 0 0 0 0 0 0 
0 0 0 0 0 0 0 0 0 
0 0 0 0 0 0 0 0 0 
0 0 0 0 0 0 0 0 0 
0 0 0 0 0 0 0 0 0 
0 0 0 0 0 0 0 0 0 
0 0 0 0 0 0 0 0 0 
0 0 0 0 0 0 0 0 0 
0 0 0 0 0 0 0 0 0 
0 0 0 0 0 0 0 0 0 
0 0 0 0 0 0 0 0 0 
0 0 0 0 0 0 0 0 0 
0 0 0 0 0 0 0 0 0 
0 0 0 0 0 0 0 0 0 
0 0 0 0 0 0 0 0 0 
0 0 0 0 0 0 0 0 0 
0 0 0 0 0 0 0 0 0 
0 0 0 0 0 0 0 0 0 
0 0 0 0 0 0 0 0 0 
0 0 0 0 0 0 0 0 0 
0 0 0 0 0 0 0 0 0 
0 0 0 0 0 0 0 0 0 
0 0 0 0 0 0 0 0 0 
0 0 0 0 0 0 0 0 0 
0 0 0 0 0 0 0 0 0 
0 0 0 0 0 0 0 0 0 
0 0 0 0 0 0 0 0 0 
0 0 0 0 0 0 0 0 0 
0 0 0 0 0 0 0 0 0 
0 0 0 0 0 0 0 0 0 
0 0 0 0 0 0 0 0 0 
0 0 0 0 0 0 0 0 0 
0 0 0 0 0 0 0 0 0 
0 0 0 0 0 0 0 0 0 
0 0 0 0 0 0 0 0 0 
0 0 0 0 0 0 0 0 0 
0 0 0 0 0 0 0 0 0 
0 0 0 0 0 0 0 0 0 
0 0 0 0 0 0 0 0 0 
0 0 0 0 0 0 0 0 0 
0 0 0 0 0 0 0 0 0 
0 0 0 0 0 0 0 0 0 
0 0 0 0 0 0 0 0 0 
0 0 0 0 0 0 0 0 0 
0 0 0 0 0 0 0 0 0 
0 0 0 0 0 0 0 0 0 
0 0 0 0 0 0 0 0 0 
0 0 0 0 0 0 0 0 0 
0 0 0 0 0 0 0 0 0 
0 0 0 0 0 0 0 0 0 
0 0 0 0 0 0 0 0 0 
0 0 0 0 0 0 0 0 0 
0 0 0 0 0 0 0 0 0 
0 0 0 0 0 0 0 0 0 
0 0 0 0 0 0 0 0 0 
0 0 0 0 0 0 0 0 0 
0 0 0 0 0 0 0 0 0 
0 0 0 0 0 0 0 0 
NORMALS Normals float
-0.0262843 0.0318232 0.999148 0.210498 0.600705 0.771261 0.15096 0.494558 0.855935 
0.114064 0.416482 0.90196 0.0318566 0.446617 0.894158 -0.0669697 0.445794 0.892627 
-0.133892 0.450168 0.882848 -0.144673 0.489305 0.860029 -0.291819 0.638676 0.711993 
0.360937 0.538575 0.761355 0.211866 0.364807 0.906658 0.0895689 0.253427 0.963199 
0.0276101 0.156798 0.987245 0.085378 0.0822116 0.992951 0.0244537 0.00566966 0.999685 
-0.0704178 0.0259156 0.997181 -0.0905431 0.0828831 0.992438 -0.0884305 0.17349 0.980857 
-0.174528 0.220517 0.959642 -0.244073 0.36496 0.898461 -0.522161 0.566019 0.637942 
0.434621 0.396487 0.808642 0.202632 0.269083 0.94156 0.0874986 0.155981 0.983877 
0.00173103 0.0135504 0.999907 -0.0261262 -0.0190205 0.999478 -0.0286293 -0.109515 0.993573 
-0.0201719 -0.190982 0.981386 -0.000453528 -0.17153 0.985179 0.0104707 -0.105877 0.994324 
-0.00303405 -0.0179131 0.999835 -0.0644039 0.0795037 0.994752 -0.0881522 0.241803 0.966313 
-0.314335 0.319756 0.89384 0.605158 0.228138 0.762717 0.324053 0.124238 0.937846 
0.151162 0.0864382 0.984723 -0.0528278 0.0539961 0.997143 -0.0910155 -0.0584631 0.994132 
-0.101115 -0.113946 0.988328 -0.0900169 -0.064594 0.993843 -0.0498985 -0.124993 0.990902 
0.0186159 -0.10994 0.993764 0.0735797 -0.169325 0.98281 0.0959731 -0.101734 0.990171 
0.0960331 0.0142253 0.995277 -0.047113 0.0705207 0.996397 -0.223998 0.0868665 0.970711 
-0.583003 0.304171 0.753384 0.532502 0.0372898 0.845607 0.256543 0.0160446 0.9664 
0.114524 -0.0724571 0.990775 -0.0543514 -0.0518804 0.997173 -0.164078 -0.117396 0.979437 
-0.0352573 -0.206081 0.9779 -0.0269517 0.0545808 0.998146 -0.066949 -0.155714 0.985531 
-0.0270285 0.0337727 0.999064 -0.0604024 0.193223 0.979294 0.0326575 -0.140722 0.98951 
0.18095 -0.0891011 0.979448 0.109685 -0.0148828 0.993855 -0.00161537 -0.04022 0.99919 
-0.0508053 0.0460127 0.997648 -0.435169 0.171302 0.883903 0.533212 -0.100456 0.839996 
0.207239 -0.0622828 0.976306 0.0654953 -0.0441323 0.996876 -0.0958503 -0.122874 0.987783 
-0.232124 -0.114519 0.965921 -0.0262763 -0.11852 0.992604 0.0313174 0.0627714 0.997536 
-0.0261866 0.0319794 0.999145 0.206221 -0.0199248 0.978303 -0.0278371 0.0319953 0.9991 
-0.027036 0.0287506 0.999221 -0.145426 -0.0168554 0.989226 0.195835 -0.0394502 0.979843 
0.148601 -0.041491 0.988026 0.0216576 -0.0312594 0.999277 -0.053159 -0.0335477 0.998022 
-0.356968 -0.0808185 0.930614 0.618383 -0.178871 0.76525 0.300096 -0.111414 0.94738 
0.0677089 -0.106302 0.992026 -0.120702 -0.0751525 0.98984 -0.163478 -0.00121242 0.986546 
0.0719406 0.108892 0.991447 0.126719 -0.204906 0.970544 0.000204266 0.178318 0.983973 
-0.0619532 -0.26704 0.961692 -0.104765 0.00415271 0.994488 0.143122 -0.0136006 0.989612 
0.120359 -0.0857439 0.989021 0.0050073 -0.0902656 0.995905 -0.107819 -0.140933 0.984131 
-0.390673 -0.245391 0.887219 0.338739 -0.231476 0.911962 0.10959 -0.149031 0.982741 
0.00833419 -0.0127919 0.999883 -0.0698567 0.0247667 0.99725 -0.0706052 0.0904636 0.993394 
0.017777 -0.148218 0.988795 -0.019803 -0.0265145 0.999452 -0.115295 -0.215757 0.969616 
0.0437607 -0.108039 0.993183 0.123121 -0.121524 0.984923 0.0648831 -0.17698 0.982073 
-0.031052 -0.219326 0.975157 -0.209685 -0.268303 0.940237 -0.469095 -0.352224 0.809869 
0.534065 -0.301569 0.789829 0.238917 -0.177438 0.954691 0.053512 -0.120283 0.991296 
-0.0610658 -0.0926776 0.993822 -0.0816269 -0.0601571 0.994846 -0.0297779 -0.0510276 0.998253 
-0.0552049 -0.115619 0.991758 -0.152758 -0.0975081 0.983441 -0.00545148 -0.163254 0.986569 
0.0816452 -0.249258 0.964989 0.0185105 -0.305767 0.951927 -0.103931 -0.37272 0.922105 
-0.290761 -0.462114 0.8378 0.365621 -0.414902 0.833173 0.0964546 -0.287691 0.952854 
-0.0246939 -0.242521 0.969832 -0.0257487 -0.25929 0.965456 -0.0332714 -0.197449 0.979748 
-0.0756398 -0.233566 0.969395 -0.160208 -0.217715 0.962774 0.15883 -0.624542 0.76467 
0.248528 0.737657 0.627771 0.151135 0.776993 0.611097 0.107412 0.834827 0.539931 
0.0698468 0.996571 -0.0443614 0.0233016 0.849899 0.52643 -0.0489478 0.843388 0.535071 
-0.0782371 0.812009 0.578378 -0.190824 0.76796 0.611412 -0.318566 0.710463 0.627502 
0.416371 0.642687 0.643109 0.336684 0.712818 0.615251 0.35163 0.697692 0.624166 
0.384618 0.795979 0.467425 -0.354456 0.697794 0.622451 -0.371646 0.64537 0.667366 
-0.482495 0.84798 0.219384 -0.537704 0.587176 0.605061 0.474633 0.606646 0.637734 
0.519901 0.551952 0.65196 0.617541 0.729576 0.293873 -0.549309 0.576204 0.605185 
0.564071 0.497555 0.658986 0.658975 0.366225 0.656987 0.755653 0.604823 0.251353 
-0.645366 0.438016 0.625816 -0.657741 0.417455 0.626984 -0.699033 0.469477 0.539393 
0.716033 0.246093 0.65325 -0.665498 0.320222 0.674219 0.668479 0.049729 0.742067 
-0.735842 0.189147 0.6502 -0.850999 0.20785 0.482285 0.639539 -0.0989813 0.76236 
0.962283 -0.109874 0.248877 -0.744125 -0.0273229 0.667481 -0.761959 -0.0258784 0.647108 
0.626891 -0.17968 0.758104 0.62473 -0.187792 0.757923 -0.647141 -0.256634 0.717877 
-0.833732 -0.262855 0.48559 0.569422 -0.296931 0.766544 0.743823 -0.348095 0.570576 
-0.526098 -0.36309 0.769017 -0.491769 -0.377932 0.78443 0.552644 -0.309123 0.773969 
0.544048 -0.320481 0.775437 -0.0884119 -0.233632 0.968297 -0.0140456 -0.301696 0.953301 
-0.0481921 -0.372825 0.926649 -0.144385 -0.462785 0.874633 -0.318291 -0.474884 0.820473 
-0.298669 -0.485027 0.821916 -0.653204 -0.589844 0.474772 0.429514 -0.436314 0.790663 
0.703184 -0.57185 0.422517 0.394664 -0.472018 0.788314 -0.0351256 -0.57857 0.814876 
-0.0145014 -0.434393 0.900607 -0.0101603 -0.454932 0.890468 -0.0788677 -0.418747 0.904672 
-0.122016 -0.246695 0.961381 -0.16331 -0.336561 0.927392 -0.112933 -0.255863 0.960094 
-0.0369177 -0.321742 0.946108 -0.0751569 -0.408454 0.909679 -0.200495 -0.544033 0.814758 
-0.481812 -0.687332 0.543536 0.182839 -0.63103 0.753904 0.499617 -0.754783 0.425071 
-0.0239177 -0.583651 0.811652 0.159317 -0.641082 0.750754 -0.0345451 -0.580653 0.813418 
-0.0122142 -0.462269 0.886655 -0.00871063 -0.485352 0.874275 -0.0776328 -0.465981 0.881382 
-0.162086 -0.485519 0.859069 -0.129004 -0.511441 0.84958 -0.111124 -0.563613 0.81853 
-0.189691 -0.664174 0.723111 0.0335371 -0.89915 0.436353 0.069521 0.996421 -0.0480848 
0.387705 0.921311 0.0295008 0.254425 0.966557 -0.0321944 0.0706825 0.996347 -0.0479329 
0.155405 0.987364 -0.0310158 0.0547149 0.997074 -0.0533802 0.069482 0.99629 -0.0507729 
-0.00933339 0.997076 -0.075848 -0.00964868 0.997518 -0.0697493 -0.0769892 0.996409 -0.0352361 
-0.189068 0.981443 -0.0319952 -0.330734 0.943724 0.000918103 -0.489493 0.87102 -0.0414754 
0.62223 0.779374 0.0735255 0.47348 0.880275 0.0305449 0.514062 0.857207 0.0306022 
-0.520628 0.852502 -0.0467635 -0.514829 0.832574 -0.204384 -0.652092 0.754447 -0.074736 
0.651249 0.754695 0.0794445 0.7717 0.630037 0.0867848 0.579499 0.745824 -0.328524 
-0.703749 0.70641 -0.0756412 -0.602778 0.622984 -0.498547 -0.780374 0.620111 -0.080489 
0.793221 0.601673 0.0937582 0.74249 0.644635 -0.182084 -0.810572 0.579375 -0.0854248 
-0.732335 0.573621 -0.366938 0.920519 0.367108 0.133701 -0.904849 0.420881 -0.0640851 
-0.927297 0.367609 -0.0705974 0.972127 0.164464 0.167096 0.982088 0.0724194 0.173949 
-0.972295 0.228195 -0.0506949 -0.877325 0.260534 -0.403017 0.976345 -0.107626 0.187528 
0.971319 -0.149272 0.185087 0.983635 -0.112194 -0.140978 -0.999756 0.0147082 -0.0164518 
-0.820472 0.0760847 -0.566601 0.928987 -0.320295 0.185459 -0.974369 -0.222489 0.0332157 
-0.929857 -0.359176 0.0797412 -0.862261 -0.157575 -0.481327 0.894061 -0.421576 0.151421 
0.871039 -0.46209 0.166625 -0.90659 -0.410985 0.0958452 0.861107 -0.47677 0.17659 
-0.763314 -0.605134 0.226194 -0.719736 -0.640458 0.267942 0.786446 -0.594405 0.167883 
0.739035 -0.649206 0.179886 -0.337913 -0.764748 0.548612 -0.608956 -0.692874 0.386132 
-0.545478 -0.712202 0.441838 0.567876 -0.793241 0.21974 0.499997 -0.834633 0.231063 
0.288263 -0.907989 0.304074 0.130217 -0.913439 0.385582 0.0754663 -0.92636 0.369002 
-0.0382138 -0.895027 0.444372 -0.105616 -0.847589 0.520037 -0.136915 -0.765326 0.628912 
-0.185045 -0.710432 0.679003 -0.330389 -0.765856 0.551641 -0.215402 -0.772544 0.597309 
-0.346377 -0.774022 0.530013 0.0341468 -0.899872 0.434815 0.0939149 -0.980012 0.175376 
0.0207233 -0.899045 0.437366 0.0336219 -0.899411 0.435809 -0.0376629 -0.89939 0.435522 
-0.0846905 -0.929997 0.357678 -0.114498 -0.959857 0.256055 -0.183291 -0.982708 0.0262663 
0.311167 0.817119 -0.485275 0.201591 0.814834 -0.543513 0.129128 0.829726 -0.543029 
0.0517529 0.830491 -0.554623 0.00286537 0.847473 -0.530831 -0.00418849 0.851556 -0.524246 
-0.0413518 0.839598 -0.541632 -0.157593 0.819851 -0.550462 -0.316283 0.784414 -0.533535 
0.321259 0.814441 -0.483196 0.432202 0.777149 -0.457429 0.308317 0.810023 -0.498803 
0.179002 0.741075 -0.647121 0.110199 0.673943 -0.730519 0.055366 0.654136 -0.754348 
0.0194777 0.664677 -0.746877 -0.0172794 0.668272 -0.743716 -0.0754015 0.650896 -0.755413 
-0.137854 0.638622 -0.757072 -0.413673 0.718377 -0.559293 -0.304852 0.690839 -0.655597 
-0.483094 0.626102 -0.612059 0.549456 0.730515 -0.405519 0.559954 0.7234 -0.40391 
0.343645 0.674804 -0.653106 0.196757 0.521823 -0.830053 -0.251974 0.340517 -0.905846 
-0.521511 0.552873 -0.64989 -0.4132 0.482642 -0.77222 -0.542172 0.51556 -0.663511 
0.681881 0.637842 -0.358044 0.710063 0.613839 -0.344982 0.456179 0.525974 -0.717811 
-0.277112 0.28016 -0.919086 -0.578297 0.474449 -0.66368 -0.483209 0.378053 -0.789674 
-0.618979 0.443934 -0.64791 0.859717 0.37238 -0.349599 0.650238 0.295823 -0.699771 
-0.359653 0.257436 -0.89687 -0.708256 0.356093 -0.609567 -0.541952 0.3444 -0.7666 
0.918932 0.180051 -0.350922 0.592522 0.0948589 -0.79995 -0.713314 0.234195 -0.660558 
-0.531071 0.218285 -0.818728 0.930962 -0.10861 -0.348588 -0.802922 0.0796491 -0.590739 
-0.525627 0.0740916 -0.847483 0.879064 -0.329405 -0.344585 0.662479 -0.232263 -0.712163 
-0.847475 -0.151903 -0.508637 -0.549351 -0.0708413 -0.832583 0.852542 -0.386188 -0.352182 
0.829272 -0.427497 -0.359936 0.773157 -0.385958 -0.503254 -0.812143 -0.294063 -0.503935 
-0.670837 -0.169635 -0.721943 0.791269 -0.469569 -0.391662 0.634053 -0.36062 -0.684054 
-0.829705 -0.431154 -0.354536 -0.816781 -0.494334 -0.297493 -0.769155 -0.378988 -0.514557 
0.766706 -0.525004 -0.369504 0.756999 -0.542855 -0.363677 0.74935 -0.510145 -0.42217 
-0.779207 -0.597497 -0.189299 -0.703843 -0.696276 -0.140727 -0.596798 -0.441722 -0.669861 
0.611676 -0.731983 -0.300091 0.571093 -0.769334 -0.286318 0.572654 -0.708552 -0.412338 
0.382181 -0.89803 -0.2179 0.403417 -0.56177 -0.722267 0.183455 -0.973676 -0.135272 
-0.312576 -0.947482 0.0676257 -0.605187 -0.788909 -0.10664 -0.503709 -0.861845 -0.0591568 
-0.527783 -0.726755 -0.439627 0.174072 -0.976305 -0.128559 0.113982 -0.99066 -0.0748342 
0.123698 -0.967331 -0.221292 0.0655642 -0.995481 -0.0686936 0.0561875 -0.925599 -0.374312 
-0.00801762 -0.998292 -0.0578728 -0.00976166 -0.91734 -0.397984 -0.0341825 -0.998667 -0.038676 
-0.0411518 -0.93165 -0.361018 -0.0986677 -0.995114 -0.00354647 -0.0881115 -0.954842 -0.283747 
-0.186615 -0.982332 0.0141126 -0.181722 -0.983293 0.0105921 -0.180383 -0.983591 -0.00336252 
0.106121 0.504806 -0.856685 0.0671332 0.471474 -0.879321 0.0640925 0.47086 -0.879877 
0.0280155 0.506668 -0.861686 -0.0258244 0.512609 -0.858234 -0.103866 0.465248 -0.879065 
-0.18614 0.387349 -0.902946 0.286562 0.511689 -0.809973 0.168439 0.501949 -0.848337 
0.182805 0.498635 -0.847317 0.094985 0.452326 -0.88678 0.0518254 0.398647 -0.915639 
0.0588115 0.349318 -0.935157 0.0344607 0.351805 -0.935439 -0.0320705 0.35159 -0.935605 
-0.113966 0.34801 -0.930538 -0.201529 0.353743 -0.913374 -0.189403 0.359767 -0.913616 
-0.239227 0.255364 -0.936781 0.3581 0.45875 -0.813211 0.388043 0.42679 -0.816868 
0.250025 0.396382 -0.883385 0.0972288 0.331116 -0.938567 0.0266086 0.249734 -0.967949 
-0.000243126 0.183869 -0.982951 0.0239535 0.152698 -0.987983 0.0279448 0.137106 -0.990162 
-0.0314568 0.146954 -0.988643 -0.0983365 0.149566 -0.98385 -0.181285 0.158925 -0.970504 
-0.247186 0.240007 -0.938773 -0.237649 0.222605 -0.9455 -0.261938 0.240739 -0.934577 
0.522323 0.277098 -0.806471 0.336705 0.281128 -0.898664 0.170053 0.246389 -0.954135 
0.00892951 0.191385 -0.981474 -0.0482756 0.110826 -0.992667 -0.0433222 0.0144231 -0.998957 
0.00315436 0.126574 -0.991952 0.0267493 0.150818 -0.9882 -0.016513 0.141245 -0.989837 
-0.10019 0.131622 -0.986224 -0.123214 0.101846 -0.98714 -0.137376 0.182932 -0.97348 
-0.300483 0.224536 -0.926981 -0.255877 0.212867 -0.942982 -0.307202 0.240528 -0.920746 
0.587459 0.0943261 -0.803738 0.589606 0.0816862 -0.803549 0.340529 0.103321 -0.93454 
0.147566 0.0576504 -0.987371 -0.0236098 0.0498135 -0.998479 -0.15906 -0.00495117 -0.987257 
0.00871393 -0.0678219 -0.997659 0.183759 0.115671 -0.976142 0.0176415 0.0443551 -0.99886 
-0.0472109 0.0423044 -0.997989 -0.139813 0.109555 -0.984099 -0.125703 0.140586 -0.982056 
-0.113544 0.167202 -0.979363 -0.199716 0.180258 -0.96313 -0.319277 0.242325 -0.916155 
-0.299343 0.239129 -0.923694 0.597004 -0.0225755 -0.801921 0.623849 -0.13767 -0.769324 
0.577917 -0.0200068 -0.81585 0.309256 -0.0281478 -0.950562 0.106343 -0.0299339 -0.993879 
-0.0600107 -0.0232193 -0.997928 -0.169565 0.0160123 -0.985389 0.0225005 0.0883523 -0.995835 
0.129939 0.0126185 -0.991442 -0.0252631 0.0521522 -0.99832 0.0633502 0.0856094 -0.994313 
-0.000840433 -0.00944398 -0.999955 -0.0682411 0.0906264 -0.993544 -0.0990007 0.109909 -0.988999 
-0.189133 0.130554 -0.973234 -0.449596 0.0910857 -0.888575 -0.293192 0.13693 -0.946197 
0.629117 -0.22385 -0.744381 0.352087 -0.153632 -0.923272 0.163073 -0.0869992 -0.982771 
0.0202961 0.00889798 -0.999754 -0.0404577 0.123064 -0.991574 0.0259188 0.226417 -0.973686 
0.118932 0.0519374 -0.991543 0.104897 0.174045 -0.979135 -0.120756 0.157964 -0.980033 
-0.128419 -0.00836084 -0.991685 -0.0111766 0.0360968 -0.999286 -0.0726832 0.056515 -0.995753 
-0.180633 0.0622678 -0.981578 -0.473036 -0.0297365 -0.880541 -0.3398 0.0331765 -0.939913 
0.511096 -0.350666 -0.784738 0.524716 -0.3363 -0.782033 0.476476 -0.320459 -0.818704 
0.267936 -0.16123 -0.94985 0.150099 -0.027494 -0.988289 0.0468041 0.0786939 -0.995799 
-0.00211586 0.133777 -0.991009 0.0623473 0.0966996 -0.993359 -0.117287 0.0569621 -0.991463 
-0.00317846 0.0138857 -0.999899 -0.0680914 -0.00775121 -0.997649 -0.22085 -0.0281835 -0.974901 
-0.533633 -0.133449 -0.835121 -0.392262 -0.108547 -0.913426 0.539089 -0.297379 -0.788003 
0.403203 -0.209096 -0.890902 0.254119 -0.139277 -0.957092 0.121378 -0.0486856 -0.991412 
0.049248 -0.00400166 -0.998779 -0.00204442 0.0278658 -0.99961 -0.0454862 -0.0556893 -0.997411 
-0.0673857 -0.0938539 -0.993303 -0.0733796 0.0220775 -0.99706 -0.0755128 -0.0429421 -0.99622 
-0.111647 -0.0567337 -0.992127 -0.264559 -0.165999 -0.949975 -0.492246 -0.223605 -0.841246 
-0.50273 -0.27703 -0.818851 -0.47615 -0.213513 -0.853049 0.506859 -0.410127 -0.758215 
0.502336 -0.417562 -0.757166 0.499995 -0.407331 -0.764255 0.400842 -0.545371 -0.736136 
0.320939 -0.325972 -0.889236 0.180072 -0.217289 -0.959354 0.0728518 -0.155099 -0.985209 
0.0112495 -0.175151 -0.984477 -0.055473 -0.174467 -0.983099 -0.0553736 -0.174547 -0.983091 
-0.0665891 -0.129063 -0.989398 -0.0804823 -0.172141 -0.981779 -0.203725 -0.235719 -0.950228 
-0.488426 -0.380687 -0.785186 -0.410214 -0.485439 -0.772058 -0.31471 -0.30831 -0.897721 
0.39501 -0.555659 -0.73158 0.236421 -0.733389 -0.637374 0.25667 -0.528238 -0.809373 
0.123426 -0.764021 -0.633276 0.0892855 -0.486155 -0.869299 0.0451302 -0.773096 -0.632682 
-0.00132953 -0.462432 -0.886654 -0.0166844 -0.761029 -0.648503 -0.041747 -0.450026 -0.892039 
-0.0536618 -0.72 -0.691896 -0.04053 -0.436184 -0.898944 -0.0743025 -0.687583 -0.722294 
-0.073349 -0.46138 -0.884165 -0.106905 -0.694652 -0.711358 -0.139293 -0.443918 -0.885175 
-0.378318 -0.551971 -0.743104 -0.286795 -0.622872 -0.72786 -0.255516 -0.485065 -0.836316 
0.0760569 0.040304 -0.996289 -0.128343 0.0809129 -0.988424 0.0683825 0.0179438 -0.997498 
0.0374662 -0.00823369 -0.999264 0.0691878 0.0093421 -0.99756 -0.139193 -0.0515356 -0.988923 
-0.136588 -0.0550622 -0.989097 -0.139467 -0.0535324 -0.988779 
