# vtk DataFile Version 4.2
vtk output
ASCII
DATASET POLYDATA
POINTS 518 float
-9.72843 -30.5792 -12.5174 -2.30198 -30.5792 -12.5319 -32.0078 -23.1527 -11.9427 
-24.5813 -23.1527 -11.96 -17.1549 -23.1527 -12.4652 -9.72843 -23.1527 -14.004 
-2.30198 -23.1527 -15.2478 5.12447 -23.1527 -14.2192 12.5509 -23.1527 -13.8752 
19.9774 -23.1527 -13.6423 27.4038 -23.1527 -13.4009 34.8303 -23.1527 -12.3806 
-32.0078 -15.7263 -11.7328 -24.5813 -15.7263 -12.5233 -17.1549 -15.7263 -12.7538 
-9.72843 -15.7263 -14.804 -2.30198 -15.7263 -15.89 5.12447 -15.7263 -14.2087 
12.5509 -15.7263 -13.8947 19.9774 -15.7263 -14.4839 27.4038 -15.7263 -14.6992 
34.8303 -15.7263 -14.2 42.2567 -15.7263 -13.0991 -39.4342 -8.2998 -11.6555 
-32.0078 -8.2998 -12.5359 -24.5813 -8.2998 -12.6828 -17.1549 -8.2998 -12.9241 
-9.72843 -8.2998 -16.8247 -2.30198 -8.2998 -15.747 5.12447 -8.2998 -15.1172 
12.5509 -8.2998 -13.679 19.9774 -8.2998 -14.5327 27.4038 -8.2998 -15.0576 
34.8303 -8.2998 -15.3246 42.2567 -8.2998 -14.0971 49.6832 -8.2998 -11.7591 
-39.4342 -0.873354 -13.35 -32.0078 -0.873354 -13.9436 -24.5813 -0.873354 -13.7944 
-17.1549 -0.873354 -13.2284 -9.72843 -0.873354 -15.8335 -2.30198 -0.873354 -14.7441 
5.12447 -0.873354 -17.7129 12.5509 -0.873354 -14.6723 19.9774 -0.873354 -13.3851 
27.4038 -0.873354 -14.8426 34.8303 -0.873354 -14.8082 42.2567 -0.873354 -14.2798 
49.6832 -0.873354 -12.4441 -39.4342 6.55309 -13.5064 -32.0078 6.55309 -14.6716 
-24.5813 6.55309 -14.4707 -17.1549 6.55309 -13.9135 -9.72843 6.55309 -16.7726 
-2.30198 6.55309 -17.2791 5.12447 6.55309 -15.9429 12.5509 6.55309 -15.9507 
19.9774 6.55309 -13.8076 27.4038 6.55309 -14.2701 34.8303 6.55309 -14.7441 
42.2567 6.55309 -14.3716 49.6832 6.55309 -11.7522 -39.4342 13.9795 -13.4354 
-32.0078 13.9795 -14.911 -24.5813 13.9795 -15.6596 -17.1549 13.9795 -15.2545 
-9.72843 13.9795 -17.1877 -2.30198 13.9795 -16.3092 5.12447 13.9795 -16.0904 
12.5509 13.9795 -17.0431 19.9774 13.9795 -14.9625 27.4038 13.9795 -13.9464 
34.8303 13.9795 -13.3135 42.2567 13.9795 -12.5255 -39.4342 21.406 -12.72 
-32.0078 21.406 -14.7863 -24.5813 21.406 -15.5115 -17.1549 21.406 -15.8618 
-9.72843 21.406 -15.955 -2.30198 21.406 -15.1434 5.12447 21.406 -16.0187 
12.5509 21.406 -16.8862 19.9774 21.406 -15.5205 27.4038 21.406 -13.7493 
34.8303 21.406 -12.0983 -32.0078 28.8324 -13.4235 -24.5813 28.8324 -15.1353 
-17.1549 28.8324 -15.2834 -9.72843 28.8324 -15.5711 -2.30198 28.8324 -15.9741 
5.12447 28.8324 -16.633 12.5509 28.8324 -16.3337 19.9774 28.8324 -14.8444 
27.4038 28.8324 -12.0739 -24.5813 36.2589 -13.0604 -17.1549 36.2589 -13.8651 
-9.72843 36.2589 -15.229 -2.30198 36.2589 -16.4192 5.12447 36.2589 -15.7053 
12.5509 36.2589 -15.4052 19.9774 36.2589 -12.568 -9.72843 43.6853 -13.1997 
-2.30198 43.6853 -13.8315 5.12447 43.6853 -13.9652 12.5509 43.6853 -12.1683 
-39.4342 -38.0056 -4.8327 -32.0078 -38.0056 -6.63259 -24.5813 -38.0056 -8.06617 
-17.1549 -38.0056 -8.25483 -9.72843 -32.4863 -11.507 -9.72843 -38.0056 -7.76312 
-2.30198 -32.0984 -11.507 -2.30198 -38.0056 -5.77066 -39.4342 -30.5792 -8.2715 
-32.0078 -24.5251 -11.507 -32.0078 -30.5792 -9.92488 -24.5813 -28.0931 -11.507 
-24.5813 -30.5792 -11.2587 -16.9177 -30.5792 -11.507 -17.1549 -30.3383 -11.507 
-17.1549 -30.5792 -11.4754 4.76404 -30.5792 -11.507 5.12447 -30.4489 -11.507 
5.12447 -30.5792 -11.445 12.5509 -29.0961 -11.507 12.5509 -30.5792 -10.7823 
19.9774 -30.328 -11.507 19.9774 -30.5792 -11.4091 27.4038 -27.7143 -11.507 
27.4038 -30.5792 -10.0443 34.8303 -24.8368 -11.507 34.8303 -30.5792 -7.70537 
-46.8607 -23.1527 -7.0494 -33.148 -23.1527 -11.507 -39.4342 -23.1527 -9.41075 
37.4434 -23.1527 -11.507 42.2567 -19.1363 -11.507 42.2567 -23.1527 -9.41703 
49.6832 -23.1527 -4.71814 -46.8607 -15.7263 -7.52311 -33.3879 -15.7263 -11.507 
-39.4342 -9.2729 -11.507 -39.4342 -15.7263 -10.4354 49.0819 -15.7263 -11.507 
49.6832 -13.1001 -11.507 49.6832 -15.7263 -11.2938 -39.8174 -8.2998 -11.507 
-46.8607 -8.2998 -8.51729 50.2065 -8.2998 -11.507 57.1096 -8.2998 -7.28414 
-43.4331 -0.873354 -11.507 -46.8607 -0.873354 -9.61529 51.8169 -0.873354 -11.507 
57.1096 -0.873354 -8.40789 -44.4323 6.55309 -11.507 -46.8607 6.55309 -10.3879 
50.2388 6.55309 -11.507 49.6832 7.89496 -11.507 57.1096 6.55309 -6.83066 
-43.7082 13.9795 -11.507 -46.8607 13.9795 -9.61247 45.6736 13.9795 -11.507 
42.2567 15.7862 -11.507 49.6832 13.9795 -9.85386 -41.6661 21.406 -11.507 
-46.8607 21.406 -6.25631 -39.4342 23.7771 -11.507 36.3347 21.406 -11.507 
34.8303 22.6171 -11.507 42.2567 21.406 -7.79763 -35.7501 28.8324 -11.507 
-39.4342 28.8324 -8.19346 -32.0078 32.9201 -11.507 28.4662 28.8324 -11.507 
27.4038 29.9181 -11.507 34.8303 28.8324 -4.98025 -28.2501 36.2589 -11.507 
-32.0078 36.2589 -8.80034 -24.5813 40.2634 -11.507 -17.1549 42.0856 -11.507 
21.7243 36.2589 -11.507 19.9774 38.1193 -11.507 -24.5813 43.6853 -7.72887 
-14.7352 43.6853 -11.507 -17.1549 43.6853 -10.7045 -9.72843 46.1555 -11.507 
-2.30198 49.107 -11.507 5.12447 48.886 -11.507 13.4346 43.6853 -11.507 
12.5509 44.4365 -11.507 -2.30198 51.1118 -6.3072 -39.4342 -38.8238 -4.08051 
-32.0078 -40.9774 -4.08051 -24.5813 -42.8511 -4.08051 -17.1549 -42.9987 -4.08051 
-17.1549 -45.432 2.70604 -9.72843 -41.3585 -4.08051 -2.30198 -39.2169 -4.08051 
-40.5072 -38.0056 -4.08051 2.3671 -38.0056 -4.08051 5.12447 -37.2597 -4.08051 
5.12447 -38.0056 -1.27721 12.5509 -36.6222 -4.08051 12.5509 -38.0056 2.26172 
19.9774 -37.155 -4.08051 19.9774 -38.0056 0.620586 27.4038 -35.7175 -4.08051 
34.8303 -33.6992 -4.08051 -46.3875 -30.5792 -4.08051 -46.8607 -30.0693 -4.08051 
-46.8607 -30.5792 -3.31963 40.4488 -30.5792 -4.08051 42.2567 -29.2279 -4.08051 
42.2567 -30.5792 0.893864 49.6832 -23.7126 -4.08051 -50.2855 -23.1527 -4.08051 
50.2464 -23.1527 -4.08051 -50.4281 -15.7263 -4.08051 57.0526 -15.7263 -4.08051 
57.1096 -15.6215 -4.08051 57.1096 -15.7263 -3.65415 -52.4932 -8.2998 -4.08051 
59.4129 -8.2998 -4.08051 -53.7381 -0.873354 -4.08051 -54.2871 -0.873354 1.71094 
60.1246 -0.873354 -4.08051 -53.5524 6.55309 -4.08051 58.7632 6.55309 -4.08051 
57.1096 9.36101 -4.08051 -51.7809 13.9795 -4.08051 53.914 13.9795 -4.08051 
49.6832 18.5501 -4.08051 -47.922 21.406 -4.08051 -46.8607 22.8952 -4.08051 
-46.8607 21.406 0.993888 46.3338 21.406 -4.08051 42.2567 24.5392 -4.08051 
-42.4618 28.8324 -4.08051 -39.4342 32.4369 -4.08051 27.4038 35.4378 -4.08051 
35.6897 28.8324 -4.08051 34.8303 29.4088 -4.08051 34.8303 28.8324 -2.87728 
-35.8966 36.2589 -4.08051 -32.0078 39.9335 -4.08051 26.4901 36.2589 -4.08051 
19.9774 42.7045 -4.08051 -26.8949 43.6853 -4.08051 -24.5813 45.1512 -4.08051 
-24.5813 43.6853 -0.153032 -17.1549 48.6502 -4.08051 -9.72843 50.5666 -4.08051 
5.12447 51.0047 -4.08051 18.8099 43.6853 -4.08051 12.5509 48.0705 -4.08051 
12.5509 43.6853 2.18158 -5.54214 51.1118 -4.08051 3.6469 51.1118 -4.08051 
-2.30198 51.5172 -4.08051 -2.30198 51.1118 -3.25575 -17.1549 -45.5968 3.34594 
-39.4342 -41.5343 3.34594 -32.0078 -44.6266 3.34594 -20.8833 -45.432 3.34594 
-24.5813 -45.2686 3.34594 -16.4752 -45.432 3.34594 -17.1549 -45.432 3.7547 
-9.72843 -43.7843 3.34594 -2.30198 -41.312 3.34594 5.12447 -39.0582 3.34594 
12.5509 -38.2113 3.34594 19.9774 -38.4192 3.34594 -43.9511 -38.0056 3.34594 
-46.8607 -34.1898 3.34594 -39.4342 -38.0056 10.0903 5.12447 -38.0056 7.18962 
12.5509 -38.0056 4.03493 22.3638 -38.0056 3.34594 19.9774 -38.0056 4.51406 
27.4038 -37.177 3.34594 34.8303 -35.0017 3.34594 42.2567 -31.1194 3.34594 
-48.921 -30.5792 3.34594 -46.8607 -30.5792 7.05519 43.0137 -30.5792 3.34594 
42.2567 -30.5792 4.73629 49.6832 -25.3278 3.34594 -52.3557 -23.1527 3.34594 
51.7845 -23.1527 3.34594 49.6832 -23.1527 7.41926 57.1096 -16.5462 3.34594 
-52.8406 -15.7263 3.34594 -46.8607 -15.7263 9.92959 57.653 -15.7263 3.34594 
57.1096 -15.7263 4.30313 -54.1258 -8.2998 3.34594 -54.2871 -4.12732 3.34594 
59.8843 -8.2998 3.34594 57.1096 -8.2998 8.03565 -54.3954 -0.873354 3.34594 
-54.2871 0.631072 3.34594 -54.2871 -0.873354 3.56161 59.796 -0.873354 3.34594 
57.1096 -0.873354 6.89871 -53.7792 6.55309 3.34594 49.6832 6.55309 9.70162 
57.5039 6.55309 3.34594 57.1096 7.135 3.34594 57.1096 6.55309 3.8538 
-51.1123 13.9795 3.34594 -46.8607 20.6802 3.34594 -46.8607 13.9795 9.04393 
19.9774 13.9795 10.2673 27.4038 13.9795 9.81901 34.8303 13.9795 9.19003 
42.2567 13.9795 7.61774 51.9558 13.9795 3.34594 49.6832 16.135 3.34594 
49.6832 13.9795 5.34611 -46.1451 21.406 3.34594 -39.4342 21.406 8.24184 
12.5509 21.406 10.1371 19.9774 21.406 8.69769 27.4038 21.406 7.37827 
34.8303 24.1175 3.34594 34.8303 21.406 5.09779 42.7002 21.406 3.34594 
42.2567 21.7165 3.34594 42.2567 21.406 3.6494 -39.9435 28.8324 3.34594 
-39.4342 29.3915 3.34594 -39.4342 28.8324 3.83854 -32.0078 28.8324 7.64375 
-24.5813 28.8324 10.4277 -2.30198 28.8324 10.3775 5.12447 28.8324 9.5875 
12.5509 28.8324 8.54683 19.9774 28.8324 6.33138 29.7441 28.8324 3.34594 
27.4038 30.4096 3.34594 27.4038 28.8324 4.46268 -32.8402 36.2589 3.34594 
-32.0078 37.02 3.34594 -32.0078 36.2589 4.04604 -24.5813 41.5854 3.34594 
-24.5813 36.2589 7.5676 -17.1549 36.2589 8.67261 -9.72843 36.2589 8.80097 
-2.30198 36.2589 8.40902 5.12447 36.2589 7.87183 12.5509 42.042 3.34594 
12.5509 36.2589 6.2988 20.2037 36.2589 3.34594 19.9774 36.467 3.34594 
19.9774 36.2589 3.48096 -21.731 43.6853 3.34594 -17.1549 45.6956 3.34594 
-17.1549 43.6853 5.37111 -9.72843 45.6342 3.34594 -9.72843 43.6853 4.96298 
-2.30198 45.8479 3.34594 -2.30198 43.6853 5.00088 10.8328 43.6853 3.34594 
5.12447 46.3662 3.34594 5.12447 43.6853 5.4705 -32.0078 -39.2645 10.7724 
-24.5813 -41.8244 10.7724 -17.1549 -41.7416 10.7724 -9.72843 -40.9677 10.7724 
-2.30198 -38.9256 10.7724 -37.1935 -38.0056 10.7724 -39.4342 -36.5464 10.7724 
-32.0078 -38.0056 11.7128 -24.5813 -38.0056 13.4015 -17.1549 -38.0056 13.7845 
-9.72843 -38.0056 13.3551 0.932657 -38.0056 10.7724 -2.30198 -38.0056 11.7742 
5.12447 -36.6358 10.7724 12.5509 -35.3471 10.7724 19.9774 -34.9335 10.7724 
27.4038 -34.2467 10.7724 34.8303 -31.5099 10.7724 -42.4324 -30.5792 10.7724 
[...]
POINT_DATA 518
SCALARS ImageScalars float
LOOKUP_TABLE default
0 0 0 0 0 0 0 0 0 
0 0 0 0 0 0 0 0 0 
0 0 0 0 0 0 0 0 0 
0 0 0 0 0 0 0 0 0 
0 0 0 0 0 0 0 0 0 
0 0 0 0 0 0 0 0 0 
0 0 0 0 0 0 0 0 0 
0 0 0 0 0 0 0 0 0 
0 0 0 0 0 0 0 0 0 
0 0 0 0 0 0 0 0 0 
0 0 0 0 0 0 0 0 0 
0 0 0 0 0 0 0 0 0 
0 0 0 0 0 0 0 0 0 
0 0 0 0 0 0 0 0 0 
0 0 0 0 0 0 0 0 0 
0 0 0 0 0 0 0 0 0 
0 0 0 0 0 0 0 0 0 
0 0 0 0 0 0 0 0 0 
0 0 0 0 0 0 0 0 0 
0 0 0 0 0 0 0 0 0 
0 0 0 0 0 0 0 0 0 
0 0 0 0 0 0 0 0 0 
0 0 0 0 0 0 0 0 0 
0 0 0 0 0 0 0 0 0 
0 0 0 0 0 0 0 0 0 
0 0 0 0 0 0 0 0 0 
0 0 0 0 0 0 0 0 0 
0 0 0 0 0 0 0 0 0 
0 0 0 0 0 0 0 0 0 
0 0 0 0 0 0 0 0 0 
0 0 0 0 0 0 0 0 0 
0 0 0 0 0 0 0 0 0 
0 0 0 0 0 0 0 0 0 
0 0 0 0 0 0 0 0 0 
0 0 0 0 0 0 0 0 0 
0 0 0 0 0 0 0 0 0 
0 0 0 0 0 0 0 0 0 
0 0 0 0 0 0 0 0 0 
0 0 0 0 0 0 0 0 0 
0 0 0 0 0 0 0 0 0 
0 0 0 0 0 0 0 0 0 
0 0 0 0 0 0 0 0 0 
0 0 0 0 0 0 0 0 0 
0 0 0 0 0 0 0 0 0 
0 0 0 0 0 0 0 0 0 
0 0 0 0 0 0 0 0 0 
0 0 0 0 0 0 0 0 0 
0 0 0 0 0 0 0 0 0 
0 0 0 0 0 0 0 0 0 
0 0 0 0 0 0 0 0 0 
0 0 0 0 0 0 0 0 0 
0 0 0 0 0 0 0 0 0 
0 0 0 0 0 0 0 0 0 
0 0 0 0 0 0 0 0 0 
0 0 0 0 0 0 0 0 0 
0 0 0 0 0 0 0 0 0 
0 0 0 0 0 0 0 0 0 
0 0 0 0 0 
NORMALS Normals float
0.0671816 0.344856 0.936248 -0.0645981 0.48215 0.873704 0.185659 0.138698 0.972776 
0.0348891 0.0847523 0.995791 0.131449 0.0807793 0.988026 0.184971 0.144253 0.972099 
0.0145274 0.206256 0.97839 -0.0896938 0.165007 0.982205 -0.0387176 0.180903 0.982739 
-0.0300937 0.197006 0.97994 -0.0832373 0.277234 0.95719 -0.220328 0.36282 0.905438 
0.137612 0.0401892 0.989671 0.0661686 0.0461773 0.996739 0.136901 0.0287334 0.990168 
0.223392 0.171288 0.959561 -0.0482639 0.0332969 0.998279 -0.130159 0.0426736 0.990574 
0.0193643 -0.0135486 0.999721 0.051489 0.0581568 0.996979 -0.0176424 0.10546 0.994267 
-0.0973864 0.197974 0.975357 -0.205475 0.282662 0.936954 0.248467 0.192322 0.949356 
0.0688165 0.149292 0.986395 0.0240015 0.0886267 0.995776 0.245442 0.0342796 0.968805 
0.180923 0.0792439 0.9803 -0.0929196 -0.0721501 0.993056 -0.162033 0.234198 0.958591 
-0.0106995 0.0341649 0.999359 0.0935262 -0.0683528 0.993268 0.0526125 0.00938186 0.998571 
-0.0641483 0.0381564 0.997211 -0.211752 0.0673233 0.975002 -0.370622 0.0687787 0.926234 
0.239733 0.123352 0.962971 0.0309694 0.141577 0.989443 -0.0482406 0.120177 0.99158 
0.0942761 0.0640401 0.993484 0.130414 -0.0108804 0.9914 0.110355 0.0754824 0.991022 
0.0430971 0.0163517 0.998937 -0.287774 0.16371 0.943602 0.0400597 -0.0515906 0.997865 
0.0871599 -0.0527539 0.994797 -0.0367287 -0.037592 0.998618 -0.14444 0.0192217 0.989327 
-0.3243 0.000102659 0.945954 0.249508 0.00628974 0.968352 0.0622505 0.0655673 0.995905 
-0.0495996 0.125958 0.990795 0.104377 0.138964 0.984781 0.261189 0.0891982 0.961158 
-0.0695916 0.117956 0.990577 -0.0755556 -0.08987 0.993083 -0.157362 0.148113 0.976371 
-0.0879157 0.104363 0.990646 0.0612371 -0.0600594 0.996315 0.00308417 -0.097909 0.995191 
-0.166038 -0.0876358 0.982218 -0.411247 -0.127263 0.902596 0.295758 -0.0410866 0.954379 
0.142007 0.00812414 0.989832 0.0231569 0.0698613 0.997288 0.0928689 0.130202 0.987128 
0.0858459 -0.0679683 0.993987 -0.0787917 -0.149146 0.985671 0.0530612 0.00466344 0.99858 
-0.0752445 0.0502672 0.995897 -0.209132 0.113246 0.971308 -0.107302 -0.0334449 0.993664 
-0.0866283 -0.186511 0.978626 -0.192978 -0.3809 0.904254 0.388737 -0.264049 0.882701 
0.161997 -0.109021 0.98075 0.0692451 -0.0331325 0.997049 0.0296361 0.0021395 0.999558 
-0.0481578 -0.100871 0.993733 0.000606702 -0.0108105 0.999941 0.119746 0.0368734 0.99212 
-0.0339146 -0.0465287 0.998341 -0.198566 -0.00836836 0.980052 -0.246487 -0.12745 0.960729 
-0.289819 -0.316194 0.903342 0.323538 -0.281121 0.90349 0.138158 -0.179064 0.974089 
0.0284055 -0.124405 0.991825 0.0463109 -0.0465983 0.99784 0.0706197 0.0826917 0.99407 
0.0249516 -0.0312023 0.999202 -0.12303 -0.0913683 0.988188 -0.282151 -0.188847 0.9406 
-0.45249 -0.351745 0.819468 0.234749 -0.31859 0.918364 0.142031 -0.253846 0.95676 
0.167678 -0.13025 0.9772 0.0179954 -0.159741 0.986995 -0.0580858 -0.181468 0.98168 
-0.215075 -0.207034 0.9544 -0.454004 -0.429301 0.780756 0.188357 -0.439656 0.878194 
0.0410955 -0.381103 0.923619 -0.0658025 -0.372107 0.925854 -0.446525 -0.572964 0.687262 
0.411994 0.604549 0.681748 0.218419 0.622043 0.751901 0.0838804 0.535116 0.840604 
-0.0137529 0.568929 0.822272 0.0344489 0.416009 0.908708 -0.117493 0.689887 0.714319 
-0.0846339 0.537467 0.839027 -0.213748 0.818651 0.533031 0.450874 0.340694 0.825009 
0.178188 0.16367 0.970289 0.157494 0.27774 0.947658 0.0946035 0.201188 0.974974 
0.122836 0.260441 0.957644 0.0788222 0.253207 0.964196 0.0810037 0.244603 0.966234 
0.079307 0.250423 0.964883 -0.101826 0.518885 0.848758 -0.103385 0.514568 0.851194 
-0.103646 0.522324 0.846425 -0.00934166 0.465671 0.884909 -0.00270376 0.555224 0.831697 
-0.0371925 0.49009 0.870878 -0.0375042 0.503486 0.863189 -0.152201 0.412059 0.898355 
-0.197685 0.55552 0.807662 -0.237863 0.417531 0.876977 -0.335739 0.675946 0.65603 
0.5358 0.239235 0.809744 0.207607 0.133167 0.969106 0.31633 0.121753 0.940804 
-0.274772 0.40076 0.874009 -0.280693 0.378551 0.881992 -0.398509 0.503229 0.76678 
-0.626582 0.63394 0.453338 0.601066 0.105754 0.792172 0.152388 0.0638426 0.986256 
0.244425 0.190464 0.950779 0.237051 0.16121 0.958028 -0.438468 0.323255 0.838601 
-0.432015 0.234351 0.870886 -0.462002 0.330011 0.823193 0.259677 0.187603 0.947298 
0.526447 0.119077 0.841828 -0.393254 0.077263 0.916178 -0.795303 0.230382 0.56073 
0.414407 0.124519 0.901533 0.578425 0.121851 0.806583 -0.402572 0.005099 0.915374 
-0.754011 -0.00779142 0.656815 0.411602 0.0115506 0.911291 0.534835 0.00837229 0.844915 
-0.430111 -0.135702 0.892518 -0.42501 -0.168249 0.889415 -0.816903 -0.36023 0.450448 
0.452738 -0.0795233 0.88809 0.645899 -0.154915 0.74754 -0.321413 -0.389085 0.863311 
-0.242314 -0.430071 0.869668 -0.5463 -0.436554 0.714827 0.482662 -0.306583 0.820392 
0.816187 -0.492387 0.302314 0.462082 -0.341307 0.818529 -0.316265 -0.355839 0.879406 
-0.323867 -0.363171 0.873623 -0.535225 -0.669634 0.514903 0.462493 -0.371148 0.805202 
0.693211 -0.543315 0.473568 0.422131 -0.428534 0.798852 -0.46718 -0.392191 0.79242 
-0.487539 -0.39619 0.778035 -0.579616 -0.803331 0.136762 0.369611 -0.426453 0.825546 
0.578762 -0.62882 0.51925 0.304705 -0.507753 0.805818 0.182825 -0.455924 0.871039 
-0.508264 -0.490804 0.707658 -0.499943 -0.508752 0.700877 0.463586 -0.811934 0.354756 
0.217745 -0.490132 0.844013 0.231537 -0.566473 0.790885 0.249821 -0.573095 0.780481 
0.0983733 -0.697126 0.710167 -0.18654 -0.706793 0.682383 -0.492041 -0.592338 0.63799 
-0.476131 -0.607064 0.636218 0.0518954 -0.996216 0.0697158 0.428665 0.653648 0.623691 
0.232971 0.727869 0.644927 0.0913222 0.80249 0.589636 -0.088094 0.818818 0.567253 
-0.104178 0.994188 -0.0271613 -0.212797 0.830845 0.514212 -0.242204 0.858612 0.451799 
0.468039 0.628104 0.621631 -0.183769 0.884191 0.429459 -0.151482 0.892866 0.42408 
-0.177238 0.952916 0.246046 -0.00653274 0.907 0.421079 -0.0371334 0.999278 0.00804336 
-0.056688 0.909171 0.412545 -0.0686486 0.994592 0.0779324 -0.209354 0.897382 0.388428 
-0.358518 0.829721 0.427817 0.648916 0.47053 0.597921 0.659133 0.458621 0.595995 
0.693556 0.488083 0.529864 -0.510544 0.750703 0.419272 -0.537458 0.725811 0.429345 
-0.561347 0.823394 0.0831427 -0.636633 0.64887 0.416733 0.828895 0.230307 0.509796 
-0.641955 0.642827 0.417932 0.800264 0.128301 0.585762 -0.765883 0.50395 0.399321 
-0.768775 0.500023 0.3987 -0.781246 0.50614 0.365345 0.845033 0.164419 0.508808 
-0.9113 0.207774 0.355474 0.897211 0.0555179 0.438099 0.99563 -0.00506653 -0.0932513 
-0.953479 -0.0414704 0.298593 0.933247 -0.113344 0.340885 -0.90154 -0.375729 0.214602 
-0.862853 -0.469263 0.187822 0.899184 -0.343466 0.271106 -0.780333 -0.603025 0.165656 
-0.685724 -0.719676 0.108859 0.840819 -0.526372 0.126319 0.82971 -0.546913 0.111655 
0.75392 -0.600905 -0.265552 -0.628933 -0.768304 0.118968 -0.582585 -0.80596 0.104988 
0.778312 -0.615751 0.122808 0.751173 -0.652377 0.100713 -0.666319 -0.744322 -0.0447714 
-0.574994 -0.816289 0.0552634 -0.580688 -0.811865 0.0606286 -0.589728 -0.806278 -0.0462258 
0.707369 -0.700847 0.0918843 0.648432 -0.756071 0.0888349 -0.667717 -0.742366 -0.0551951 
-0.653674 -0.751176 -0.0918934 0.552758 -0.833168 0.0170383 0.503621 -0.863864 0.0102304 
0.506021 -0.80742 -0.303343 0.34367 -0.938861 0.0207836 0.189687 -0.979076 -0.073677 
-0.198856 -0.961782 -0.188234 -0.637451 -0.764818 -0.093324 -0.492642 -0.85907 -0.138932 
-0.466346 -0.616054 -0.634822 0.101131 -0.986941 -0.12538 -0.153954 -0.970549 -0.18529 
0.0308234 -0.987946 -0.151699 0.024671 -0.977828 -0.207952 -0.103405 0.991842 -0.0745395 
0.527164 0.847699 -0.0592004 0.233829 0.970939 -0.0510026 -0.0186216 0.998368 -0.0539842 
0.0617679 0.997521 -0.0337211 -0.120439 0.990349 -0.0685847 -0.101815 0.989486 -0.10272 
-0.268765 0.963182 -0.00674545 -0.305981 0.952018 -0.00608252 -0.205846 0.978416 -0.0181392 
-0.0420435 0.99768 -0.0535351 -0.0721435 0.992554 -0.0981469 0.682004 0.726607 -0.0831465 
0.806156 0.582496 -0.103975 0.440957 0.553174 -0.706792 -0.207263 0.940302 -0.269953 
-0.0462977 0.994434 -0.0946422 -0.117118 0.989305 -0.0869367 -0.0723511 0.982566 -0.171261 
-0.211441 0.975242 -0.064775 -0.36969 0.924243 -0.0954135 -0.543615 0.836497 -0.0689603 
0.884562 0.452115 -0.114637 0.76816 0.462824 -0.442406 -0.556405 0.828042 -0.0689925 
-0.544284 0.824164 -0.156551 -0.688916 0.717846 -0.100464 0.960263 0.242338 -0.138446 
-0.730201 0.674248 -0.110442 -0.684506 0.615289 -0.390986 -0.855131 0.471823 -0.21479 
0.976297 0.114835 -0.183457 0.663219 -0.00952956 -0.748365 -0.867606 0.444126 -0.223635 
-0.851358 0.43879 -0.287493 0.97679 0.0953295 -0.191819 0.977066 0.0299502 -0.21082 
-0.960886 0.144683 -0.236145 -0.798986 0.0842962 -0.595412 0.974052 -0.0199513 -0.225444 
0.970405 -0.0576192 -0.234507 0.970375 -0.0203646 -0.240744 -0.938042 -0.145912 -0.314305 
-0.751453 -0.20588 -0.626842 0.939872 -0.205844 -0.272522 -0.406014 -0.410539 -0.816462 
-0.763392 -0.478778 -0.433595 -0.754568 -0.49259 -0.433569 -0.742866 -0.474337 -0.472392 
0.840615 -0.417022 -0.345629 0.687663 -0.588986 -0.424516 0.610119 -0.384133 -0.692962 
-0.185275 -0.308225 -0.933097 -0.0673482 -0.379541 -0.92272 -0.135772 -0.44594 -0.884705 
-0.240695 -0.494953 -0.834917 -0.623701 -0.610713 -0.487879 -0.553152 -0.661725 -0.506105 
-0.480285 -0.580872 -0.657201 0.665113 -0.597732 -0.447596 0.455943 -0.489075 -0.743587 
-0.158034 -0.2603 -0.952507 -0.185293 -0.256432 -0.948635 -0.202219 -0.352521 -0.913694 
-0.373844 -0.563252 -0.736877 -0.261306 -0.529187 -0.807267 -0.40297 -0.688854 -0.602574 
-0.396242 -0.685929 -0.610322 -0.383815 -0.675222 -0.62989 0.617221 -0.589336 -0.521269 
0.615523 -0.593662 -0.51836 0.600442 -0.57686 -0.553806 0.366381 -0.442595 -0.818458 
0.22147 -0.264584 -0.938587 -0.0994906 -0.242214 -0.965108 -0.113016 -0.219167 -0.96912 
-0.213959 -0.221275 -0.951451 -0.259207 -0.326177 -0.909077 -0.404266 -0.565862 -0.718588 
-0.387472 -0.581734 -0.715158 -0.345364 -0.521391 -0.780304 0.549184 -0.619847 -0.560524 
0.53693 -0.621841 -0.570105 0.518553 -0.597117 -0.612008 0.428527 -0.672485 -0.603431 
0.275594 -0.501513 -0.820081 0.0618255 -0.381442 -0.922323 -0.0169483 -0.36296 -0.931651 
-0.0636666 -0.320555 -0.945088 -0.116067 -0.284499 -0.951624 -0.414216 -0.528167 -0.741259 
-0.295013 -0.365599 -0.882782 -0.433665 -0.493479 -0.753932 -0.433624 -0.491944 -0.754958 
-0.428678 -0.484855 -0.762333 0.348567 -0.712402 -0.609085 0.202963 -0.756424 -0.621795 
0.172649 -0.646279 -0.743314 0.00566809 -0.664147 -0.747581 -0.0252653 -0.569471 -0.821623 
0.04232 -0.626537 -0.778242 0.0374471 -0.527123 -0.848963 -0.366605 -0.567641 -0.737146 
-0.161189 -0.649772 -0.742842 -0.141002 -0.499969 -0.854488 0.228824 0.54716 -0.805143 
0.0986416 0.69712 -0.710136 -0.0458673 0.72581 -0.686364 -0.165821 0.757918 -0.630923 
-0.241797 0.788115 -0.566047 0.360274 0.514432 -0.778179 0.410617 0.469678 -0.781535 
0.220568 0.494003 -0.841018 0.111942 0.476942 -0.871777 0.00106206 0.507164 -0.861849 
-0.11476 0.5827 -0.804544 -0.218877 0.803107 -0.554177 -0.220059 0.740143 -0.635422 
-0.185944 0.805252 -0.563022 -0.0875082 0.788345 -0.608978 -0.0619584 0.763917 -0.642334 
-0.17672 0.784021 -0.595047 -0.341077 0.698785 -0.628782 0.481857 0.315309 -0.817554 
0.582831 0.183598 -0.79158 0.379594 0.271663 -0.884369 0.21375 0.244355 -0.945834 
0.122421 0.197342 -0.972661 0.0289845 0.206217 -0.978077 0.0241256 0.245331 -0.969139 
-0.0624661 0.296913 -0.952859 -0.105072 0.407492 -0.907144 -0.0469459 0.495779 -0.867179 
-0.0481031 0.520303 -0.852626 -0.172454 0.568704 -0.804261 -0.379095 0.685376 -0.621729 
-0.330607 0.659077 -0.675512 -0.463466 0.616391 -0.636601 0.605223 0.101194 -0.789598 
0.596844 0.0239059 -0.802001 0.545326 0.0913685 -0.83323 0.328186 0.109639 -0.938229 
0.110129 0.0916965 -0.989678 0.0544293 0.00410318 -0.998509 0.0627377 0.0326985 -0.997494 
0.0253502 0.00698435 -0.999654 -0.0119889 0.0164389 -0.999793 -0.0129934 0.0703222 -0.99744 
-0.00979553 0.134619 -0.990849 0.00736838 0.148593 -0.988871 -0.0430133 0.235812 -0.970846 
-0.226298 0.34356 -0.911458 -0.558204 0.506434 -0.657216 -0.406268 0.424756 -0.80903 
-0.61576 0.399458 -0.679171 0.587835 -0.0151166 -0.80884 0.578542 0.0438495 -0.814473 
0.296504 -0.0100512 -0.954979 0.131047 -0.0174684 -0.991222 0.0712041 -0.00361997 -0.997455 
0.0364619 -0.0350184 -0.998721 0.00908499 -0.0654061 -0.997817 0.00348356 -0.103379 -0.994636 
0.0164273 -0.0720454 -0.997266 0.055237 -0.0690108 -0.996086 0.0664024 0.0410504 -0.996948 
-0.00900476 0.0628638 -0.997981 -0.135201 0.0785026 -0.987703 -0.267682 0.146082 -0.952369 
-0.633375 0.284353 -0.719708 -0.566911 0.255429 -0.783178 0.566361 0.0968138 -0.818451 
0.530226 0.0974122 -0.842242 0.25086 0.0263759 -0.967664 0.127951 0.0567357 -0.990156 
0.0397946 0.0348429 -0.9986 0.00114905 -0.0407944 -0.999167 -0.0409769 -0.0838693 -0.995634 
-0.0180104 0.120036 -0.992606 0.0198175 -0.0740284 -0.997059 0.101429 -0.0429053 -0.993917 
0.134288 -0.0523477 -0.989559 -0.000971673 -0.0984892 -0.995138 -0.125858 -0.110372 -0.985889 
-0.229121 -0.106594 -0.967544 -0.598558 0.00653018 -0.801053 -0.444437 -0.0824471 -0.892008 
0.575896 -0.0236117 -0.817182 0.529453 -0.0222928 -0.848046 0.272113 0.0196174 -0.962065 
0.120582 0.020979 -0.992482 -0.0260072 -0.0265749 -0.999308 -0.084484 -0.11023 -0.990309 
0.170726 -0.164545 -0.971482 -0.156785 -0.148126 -0.976462 0.0735299 0.0145674 -0.997187 
0.00601706 -0.215961 -0.976383 -0.0701672 -0.315332 -0.946384 -0.142173 -0.31067 -0.939825 
-0.249137 -0.270703 -0.929866 -0.432406 -0.206321 -0.877757 -0.396827 -0.296364 -0.868733 
-0.397154 -0.20584 -0.894371 0.578943 -0.1353 -0.804064 0.569647 -0.167439 -0.804653 
0.567491 -0.13458 -0.812306 0.285532 -0.146242 -0.947146 0.0800092 -0.160356 -0.983811 
-0.0911665 -0.177235 -0.979937 -0.13683 -0.182219 -0.973691 0.149517 -0.0889274 -0.984752 
-0.00268326 -0.190278 -0.981727 -0.0226601 -0.0911068 -0.995583 0.00747584 -0.181889 -0.983291 
-0.19176 -0.326546 -0.925524 -0.20656 -0.421624 -0.88293 -0.0595436 -0.392612 -0.917774 
-0.0738465 -0.425234 -0.902066 -0.112078 -0.413675 -0.9035 -0.09941 -0.404575 -0.909086 
-0.2676 -0.406433 -0.873615 -0.179775 -0.422942 -0.888145 -0.16646 -0.406574 -0.898326 
0.448641 -0.365866 -0.815392 0.340272 -0.416507 -0.843052 0.265477 -0.358992 -0.894789 
0.0948323 -0.294972 -0.950788 -0.0335226 -0.23993 -0.970211 0.00110794 -0.127408 -0.99185 
0.177886 -0.0658639 -0.981844 -0.00415763 -0.289667 -0.957118 -0.17639 -0.179475 -0.96782 
-0.203192 -0.33066 -0.921617 -0.182853 -0.301695 -0.935706 -0.254949 -0.417679 -0.872093 
0.289303 -0.399023 -0.870106 0.249289 -0.382226 -0.889808 0.215376 -0.36216 -0.906892 
0.186711 -0.255467 -0.948618 0.0600582 -0.238633 -0.969251 0.0475584 -0.148301 -0.987798 
-0.0118266 -0.19806 -0.980119 -0.105225 -0.264758 -0.958556 -0.116133 -0.363272 -0.924417 
-0.140496 -0.285921 -0.947898 -0.12463 -0.282521 -0.951131 -0.133416 -0.303623 -0.943405 
0.132602 -0.257214 -0.957214 0.0361186 -0.271051 -0.961887 0.0357232 -0.253944 -0.966559 
-0.0707045 -0.256286 -0.964012 -0.0454569 -0.275 -0.960369 -0.0501442 -0.266161 -0.962623 
0.012763 0.128301 -0.991653 0.0603449 0.0704109 -0.995691 -0.0238111 0.0687311 -0.997351 
0.0091156 -0.0247893 -0.999651 0.0221796 0.119143 -0.992629 
