# vtk DataFile Version 4.2
vtk output
ASCII
DATASET POLYDATA
POINTS 554 float
27.6476 -17.906 -18.6633 -40.6956 -10.3123 -18.597 -40.6956 4.87509 -18.5205 
-25.5082 -40.687 -10.8857 -17.9145 -40.687 -11.9878 -10.3208 -40.687 -13.2616 
-2.72713 -40.687 -14.5555 4.86655 -40.687 -14.6493 12.4602 -40.687 -14.2821 
20.0539 -40.687 -11.9244 -40.6956 -33.0933 -11.7432 -33.1019 -33.0933 -13.9424 
-25.5082 -33.0933 -14.5453 -17.9145 -33.0933 -16.2952 -10.3208 -33.0933 -16.224 
-2.72713 -33.0933 -16.9523 4.86655 -33.0933 -16.9871 12.4602 -33.0933 -16.4521 
20.0539 -33.0933 -16.5907 27.6476 -33.0933 -14.9319 35.2413 -33.0933 -12.1553 
-48.2893 -25.4997 -12.7758 -40.6956 -25.4997 -15.3017 -33.1019 -25.4997 -16.0741 
-25.5082 -25.4997 -15.9162 -17.9145 -25.4997 -16.2722 -10.3208 -25.4997 -16.814 
-2.72713 -25.4997 -17.6325 4.86655 -25.4997 -17.2502 12.4602 -25.4997 -16.9066 
20.0539 -25.4997 -17.6096 27.6476 -20.5747 -18.1057 27.6476 -25.4997 -17.1593 
35.2413 -25.4997 -16.6354 42.835 -25.4997 -14.7626 -55.8829 -17.906 -12.9944 
-48.2893 -17.906 -15.3844 -40.6956 -12.3086 -18.1057 -40.6956 -17.906 -16.7187 
-33.1019 -17.906 -16.6612 -25.5082 -17.906 -16.2284 -17.9145 -17.906 -15.4246 
-10.3208 -17.906 -16.2182 -2.72713 -17.906 -16.9104 4.86655 -17.906 -15.9039 
12.4602 -17.906 -16.1715 24.3569 -17.906 -18.1057 20.0539 -17.906 -17.3894 
32.4544 -17.906 -18.1057 27.6476 -13.7923 -18.1057 35.2413 -17.906 -17.7855 
42.835 -17.906 -16.4813 50.4287 -17.906 -13.8138 -55.8829 -10.3123 -14.4014 
-42.2538 -10.3123 -18.1057 -48.2893 -10.3123 -16.2029 -38.1846 -10.3123 -18.1057 
-40.6956 -6.71563 -18.1057 -33.1019 -10.3123 -17.1688 -25.5082 -10.3123 -16.0258 
-17.9145 -10.3123 -14.5602 -10.3208 -10.3123 -15.2039 -2.72713 -10.3123 -15.5947 
4.86655 -10.3123 -14.3689 12.4602 -10.3123 -15.0264 20.0539 -10.3123 -16.4824 
27.6476 -10.3123 -17.641 35.2413 -10.3123 -17.7475 42.835 -10.3123 -16.8655 
50.4287 -10.3123 -15.0412 -55.8829 -2.7186 -15.5727 -48.2893 -2.7186 -16.7767 
-40.6956 1.56872 -18.1057 -40.6956 -2.7186 -17.5917 -33.1019 -2.7186 -17.3543 
-25.5082 -2.7186 -15.9854 -17.9145 -2.7186 -14.3909 -10.3208 -2.7186 -16.3717 
-2.72713 -2.7186 -13.4985 4.86655 -2.7186 -16.7978 12.4602 -2.7186 -14.3023 
20.0539 -2.7186 -15.4198 27.6476 -2.7186 -16.5318 35.2413 -2.7186 -16.7041 
42.835 -2.7186 -15.8652 50.4287 -2.7186 -13.7987 -55.8829 4.87509 -14.2527 
-42.1113 4.87509 -18.1057 -48.2893 4.87509 -16.2958 -38.7197 4.87509 -18.1057 
-40.6956 6.91785 -18.1057 -33.1019 4.87509 -16.975 -25.5082 4.87509 -15.5438 
-17.9145 4.87509 -13.4314 -10.3208 4.87509 -11.7277 -2.72713 4.87509 -12.8934 
4.86655 4.87509 -11.4442 12.4602 4.87509 -14.8297 20.0539 4.87509 -14.9879 
27.6476 4.87509 -15.3316 35.2413 4.87509 -15.2315 42.835 4.87509 -14.3867 
50.4287 4.87509 -12.5899 -55.8829 12.4688 -13.2483 -48.2893 12.4688 -17.5005 
-40.6956 12.4688 -16.9648 -33.1019 12.4688 -16.3216 -25.5082 12.4688 -15.6141 
-17.9145 12.4688 -13.3492 -10.3208 12.4688 -11.1442 -2.72713 12.4688 -12.9552 
4.86655 12.4688 -11.6561 12.4602 12.4688 -13.6273 20.0539 12.4688 -14.2317 
27.6476 12.4688 -13.477 35.2413 12.4688 -12.6705 42.835 12.4688 -11.6922 
-48.2893 20.0625 -14.0264 -40.6956 20.0625 -15.4045 -33.1019 20.0625 -15.4761 
-25.5082 20.0625 -14.4007 -17.9145 20.0625 -12.1847 4.86655 20.0625 -11.6518 
12.4602 20.0625 -11.9663 20.0539 20.0625 -11.6171 27.6476 20.0625 -10.7464 
-40.6956 27.6562 -12.2371 -33.1019 27.6562 -12.6354 -25.5082 27.6562 -11.2278 
-25.5082 -41.0149 -10.5121 -17.9145 -42.3868 -10.5121 -10.3208 -43.9638 -10.5121 
-2.72713 -45.8652 -10.5121 4.86655 -46.5981 -10.5121 4.86655 -48.2807 -4.66124 
12.4602 -45.79 -10.5121 20.0539 -42.2676 -10.5121 -40.6956 -34.768 -10.5121 
-28.4998 -40.687 -10.5121 -33.1019 -39.9596 -10.5121 -33.1019 -40.687 -7.75568 
24.0615 -40.687 -10.5121 27.6476 -39.1601 -10.5121 35.2413 -34.3992 -10.5121 
-44.1058 -33.0933 -10.5121 -48.2893 -29.9921 -10.5121 37.8881 -33.0933 -10.5121 
42.835 -30.1388 -10.5121 -52.2601 -25.4997 -10.5121 -55.8829 -22.6167 -10.5121 
48.7795 -25.4997 -10.5121 50.4287 -23.5818 -10.5121 50.4287 -25.4997 -8.13152 
-58.5925 -17.906 -10.5121 54.1087 -17.906 -10.5121 58.0224 -17.906 -5.50352 
-60.4405 -10.3123 -10.5121 57.752 -10.3123 -10.5121 58.0224 -10.3123 -10.2628 
-62.1147 -2.7186 -10.5121 -63.4766 -2.7186 -6.50822 57.2774 -2.7186 -10.5121 
58.0224 -2.7186 -10.0835 -60.5818 4.87509 -10.5121 55.0334 4.87509 -10.5121 
50.4287 11.6454 -10.5121 58.0224 4.87509 -9.15213 -59.1879 12.4688 -10.5121 
-55.8829 18.223 -10.5121 -10.3208 15.2369 -10.5121 -2.72713 19.4112 -10.5121 
35.2413 18.4547 -10.5121 49.0777 12.4688 -10.5121 42.835 15.5063 -10.5121 
50.4287 12.4688 -10.1977 58.0224 12.4688 -4.80217 -54.0909 20.0625 -10.5121 
-55.8829 20.0625 -7.59233 -48.2893 26.084 -10.5121 -13.5077 20.0625 -10.5121 
-17.9145 25.5623 -10.5121 -10.3208 20.0625 -9.4399 -1.5525 20.0625 -10.5121 
-2.72713 20.0625 -10.2701 4.86655 25.1992 -10.5121 12.4602 25.7715 -10.5121 
20.0539 23.3511 -10.5121 29.8211 20.0625 -10.5121 27.6476 20.5986 -10.5121 
35.2413 20.0625 -9.89021 42.835 20.0625 -8.42618 50.4287 20.0625 -5.25862 
-45.5899 27.6562 -10.5121 -48.2893 27.6562 -8.72561 -40.6956 29.6434 -10.5121 
-33.1019 30.8596 -10.5121 -21.5878 27.6562 -10.5121 -25.5082 29.6047 -10.5121 
-17.9145 27.6562 -9.84043 -10.3208 27.6562 -8.17998 -2.72713 27.6562 -8.71342 
4.86655 27.6562 -9.94881 12.4602 27.6562 -10.026 20.0539 27.6562 -9.00113 
27.6476 27.6562 -7.2835 35.2413 27.6562 -5.4857 42.835 27.6562 -2.99042 
-40.6956 35.2498 -4.2693 -33.1019 35.2498 -7.45726 -25.5082 35.2498 -7.99889 
-17.9145 35.2498 -6.66162 -10.3208 35.2498 -6.18724 -2.72713 35.2498 -6.38061 
4.86655 35.2498 -7.11307 12.4602 35.2498 -6.70144 20.0539 35.2498 -5.14879 
27.6476 35.2498 -3.09138 4.86655 -48.569 -2.91837 -33.1019 -41.4025 -2.91837 
-25.5082 -43.2022 -2.91837 -17.9145 -44.6932 -2.91837 -10.3208 -45.8397 -2.91837 
2.61671 -48.2807 -2.91837 -2.72713 -47.5909 -2.91837 7.76152 -48.2807 -2.91837 
4.86655 -48.2807 -2.1569 12.4602 -47.7733 -2.91837 20.0539 -44.5782 -2.91837 
-34.8239 -40.687 -2.91837 -40.6956 -37.9941 -2.91837 -33.1019 -40.687 -1.5774 
-25.5082 -40.687 2.77928 -10.3208 -40.687 4.64056 27.4578 -40.687 -2.91837 
20.0539 -40.687 3.60216 27.6476 -40.5906 -2.91837 35.2413 -36.6515 -2.91837 
-47.5607 -33.0933 -2.91837 -48.2893 -32.4699 -2.91837 -40.6956 -33.0933 4.24036 
42.291 -33.0933 -2.91837 42.835 -32.8005 -2.91837 50.4287 -27.5678 -2.91837 
-55.522 -25.4997 -2.91837 -55.8829 -24.969 -2.91837 -48.2893 -25.4997 4.65139 
52.731 -25.4997 -2.91837 58.0224 -19.7589 -2.91837 -59.717 -17.906 -2.91837 
-55.8829 -17.906 2.25671 59.4368 -17.906 -2.91837 -62.6108 -10.3123 -2.91837 
-63.4766 -6.50965 -2.91837 62.3394 -10.3123 -2.91837 -64.1863 -2.7186 -2.91837 
-63.4766 4.32558 -2.91837 -63.4766 -2.7186 -1.66359 63.5348 -2.7186 -2.91837 
-63.421 4.87509 -2.91837 63.7249 4.87509 -2.91837 -61.6074 12.4688 -2.91837 
59.9087 12.4688 -2.91837 58.0224 15.2671 -2.91837 -57.4091 20.0625 -2.91837 
-55.8829 22.3142 -2.91837 -55.8829 20.0625 0.704216 53.7578 20.0625 -2.91837 
50.4287 23.0615 -2.91837 58.0224 20.0625 2.84938 -51.4769 27.6562 -2.91837 
-48.2893 30.998 -2.91837 35.2413 31.0259 -2.91837 42.976 27.6562 -2.91837 
42.835 27.7351 -2.91837 50.4287 27.6562 3.3894 -42.2989 35.2498 -2.91837 
-40.6956 36.2084 -2.91837 -33.1019 39.3559 -2.91837 -25.5082 40.6315 -2.91837 
-17.9145 41.6139 -2.91837 -10.3208 41.5363 -2.91837 -2.72713 42.0624 -2.91837 
4.86655 42.2781 -2.91837 12.4602 40.9455 -2.91837 20.0539 38.3268 -2.91837 
28.0612 35.2498 -2.91837 27.6476 35.5521 -2.91837 35.2413 35.2498 1.78423 
-25.5082 42.8435 -0.242543 -17.9145 42.8435 -2.03778 -10.3208 42.8435 -2.06798 
-2.72713 42.8435 -2.3142 4.86655 42.8435 -2.369 12.4602 42.8435 -0.913397 
20.0539 42.8435 2.40277 -17.9145 -40.8018 4.67532 -2.72713 -43.1643 4.67532 
4.86655 -44.5493 4.67532 12.4602 -43.345 4.67532 -33.1019 -34.8439 4.67532 
-18.7544 -40.687 4.67532 -25.5082 -38.9104 4.67532 -11.7379 -40.687 4.67532 
-17.9145 -40.687 4.7848 -10.2204 -40.687 4.67532 -10.3208 -40.6425 4.67532 
-2.72713 -40.687 6.75956 4.86655 -40.687 7.83537 18.0986 -40.687 4.67532 
12.4602 -40.687 6.68068 20.0539 -39.8956 4.67532 27.6476 -37.1454 4.67532 
35.2413 -34.0594 4.67532 -39.0817 -33.0933 4.67532 -40.6956 -32.1399 4.67532 
-33.1019 -33.0933 5.91717 -25.5082 -33.0933 7.50713 -17.9145 -33.0933 8.31612 
-10.3208 -33.0933 9.10906 -2.72713 -33.0933 10.7183 4.86655 -33.0933 11.7846 
12.4602 -33.0933 11.35 20.0539 -33.0933 10.4046 27.6476 -33.0933 8.78559 
37.414 -33.0933 4.67532 35.2413 -33.0933 5.93051 42.835 -30.1719 4.67532 
50.4287 -25.7018 4.67532 -48.2226 -25.4997 4.67532 -48.2893 -25.4198 4.67532 
-40.6956 -25.4997 7.05283 -33.1019 -25.4997 9.5689 -25.5082 -25.4997 10.5874 
-17.9145 -25.4997 11.0628 -10.3208 -25.4997 11.2783 42.835 -25.4997 9.38411 
50.6573 -25.4997 4.67532 50.4287 -25.4997 4.93234 58.0224 -18.5017 4.67532 
-52.0048 -17.906 4.67532 -55.8829 -14.4626 4.67532 -48.2893 -17.906 6.56981 
-40.6956 -17.906 9.76895 -33.1019 -17.906 11.722 50.4287 -17.906 11.9921 
58.5212 -17.906 4.67532 58.0224 -17.906 5.29936 -58.0397 -10.3123 4.67532 
-55.8829 -10.3123 6.5048 -48.2893 -10.3123 9.57889 -40.6956 -10.3123 11.4444 
61.6294 -10.3123 4.67532 58.0224 -10.3123 9.35051 -59.4236 -2.7186 4.67532 
-55.8829 -2.7186 7.64659 -48.2893 -2.7186 10.4926 63.9571 -2.7186 4.67532 
58.0224 -2.7186 11.1608 -57.9404 4.87509 4.67532 -55.8829 4.87509 6.4754 
-48.2893 4.87509 11.1192 64.3273 4.87509 4.67532 58.0224 4.87509 11.8247 
-57.945 12.4688 4.67532 -55.8829 16.6456 4.67532 -55.8829 12.4688 6.68704 
-48.2893 12.4688 10.3849 62.7179 12.4688 4.67532 -53.42 20.0625 4.67532 
-48.2893 20.0625 9.16134 59.0242 20.0625 4.67532 58.0224 21.2258 4.67532 
58.0224 20.0625 7.27804 -48.8771 27.6562 4.67532 -48.2893 28.4145 4.67532 
-48.2893 27.6562 5.2632 -40.6956 27.6562 10.139 42.835 33.0342 4.67532 
51.3573 27.6562 4.67532 50.4287 28.3985 4.67532 50.4287 27.6562 6.61826 
-42.2526 35.2498 4.67532 -40.6956 36.5408 4.67532 -40.6956 35.2498 6.42347 
[...]
POINT_DATA 554
SCALARS ImageScalars float
LOOKUP_TABLE default
0 0 0 0 0 0 0 0 0 
0 0 0 0 0 0 0 0 0 
0 0 0 0 0 0 0 0 0 
0 0 0 0 0 0 0 0 0 
0 0 0 0 0 0 0 0 0 
0 0 0 0 0 0 0 0 0 
0 0 0 0 0 0 0 0 0 
0 0 0 0 0 0 0 0 0 
0 0 0 0 0 0 0 0 0 
0 0 0 0 0 0 0 0 0 
0 0 0 0 0 0 0 0 0 
0 0 0 0 0 0 0 0 0 
0 0 0 0 0 0 0 0 0 
0 0 0 0 0 0 0 0 0 
0 0 0 0 0 0 0 0 0 
0 0 0 0 0 0 0 0 0 
0 0 0 0 0 0 0 0 0 
0 0 0 0 0 0 0 0 0 
0 0 0 0 0 0 0 0 0 
0 0 0 0 0 0 0 0 0 
0 0 0 0 0 0 0 0 0 
0 0 0 0 0 0 0 0 0 
0 0 0 0 0 0 0 0 0 
0 0 0 0 0 0 0 0 0 
0 0 0 0 0 0 0 0 0 
0 0 0 0 0 0 0 0 0 
0 0 0 0 0 0 0 0 0 
0 0 0 0 0 0 0 0 0 
0 0 0 0 0 0 0 0 0 
0 0 0 0 0 0 0 0 0 
0 0 0 0 0 0 0 0 0 
0 0 0 0 0 0 0 0 0 
0 0 0 0 0 0 0 0 0 
0 0 0 0 0 0 0 0 0 
0 0 0 0 0 0 0 0 0 
0 0 0 0 0 0 0 0 0 
0 0 0 0 0 0 0 0 0 
0 0 0 0 0 0 0 0 0 
0 0 0 0 0 0 0 0 0 
0 0 0 0 0 0 0 0 0 
0 0 0 0 0 0 0 0 0 
0 0 0 0 0 0 0 0 0 
0 0 0 0 0 0 0 0 0 
0 0 0 0 0 0 0 0 0 
0 0 0 0 0 0 0 0 0 
0 0 0 0 0 0 0 0 0 
0 0 0 0 0 0 0 0 0 
0 0 0 0 0 0 0 0 0 
0 0 0 0 0 0 0 0 0 
0 0 0 0 0 0 0 0 0 
0 0 0 0 0 0 0 0 0 
0 0 0 0 0 0 0 0 0 
0 0 0 0 0 0 0 0 0 
0 0 0 0 0 0 0 0 0 
0 0 0 0 0 0 0 0 0 
0 0 0 0 0 0 0 0 0 
0 0 0 0 0 0 0 0 0 
0 0 0 0 0 0 0 0 0 
0 0 0 0 0 0 0 0 0 
0 0 0 0 0 0 0 0 0 
0 0 0 0 0 0 0 0 0 
0 0 0 0 0 
NORMALS Normals float
0.0269977 0.0357683 0.998995 0.0567829 0.0502039 0.997123 0.0402928 -0.0371502 0.998497 
0.139702 0.757926 0.637206 0.136245 0.663935 0.735274 0.172157 0.585138 0.792449 
0.0886085 0.496937 0.863251 -0.0194983 0.459698 0.887861 -0.16019 0.468865 0.868622 
-0.302563 0.673425 0.674504 0.341791 0.629727 0.697583 0.149565 0.374077 0.915258 
0.156974 0.284323 0.94579 0.101264 0.257831 0.960869 0.0440279 0.219588 0.974599 
0.0501789 0.195255 0.979468 -0.0328022 0.147094 0.988578 -0.0269327 0.167772 0.985458 
-0.0913176 0.314935 0.94471 -0.22361 0.451851 0.863614 -0.401283 0.705804 0.583792 
0.483984 0.470255 0.737984 0.162138 0.255671 0.953071 0.0531808 0.205445 0.977223 
0.0135578 0.0995391 0.994941 0.0594563 -0.0574836 0.996574 0.0905229 0.00155923 0.995893 
0.0287103 -0.00337964 0.999582 -0.0475329 -0.0675653 0.996582 0.022229 -0.0190686 0.999571 
0.0151823 0.0445614 0.998891 -0.0014217 0.101981 0.994785 -0.0567044 0.221138 0.973593 
-0.134471 0.28062 0.950353 -0.402145 0.449748 0.7975 0.584157 0.328467 0.742206 
0.239545 0.176447 0.954717 0.0732835 0.109045 0.991332 0.102051 0.244798 0.964189 
-0.0321383 0.069109 0.997091 -0.0814171 0.00728597 0.996653 -0.00509519 -0.112455 0.993644 
0.0999891 -0.103046 0.989638 -0.0215973 -0.131726 0.991051 -0.0479483 -0.192062 0.980211 
0.0964971 -0.122565 0.987758 0.0858325 -0.0115876 0.996242 0.159529 -0.0718394 0.984576 
-0.0755638 0.0520579 0.995781 0.0567821 -0.0573013 0.996741 -0.13472 0.0631487 0.988869 
-0.223304 0.106506 0.968913 -0.527977 0.293577 0.796902 0.568254 0.182924 0.802263 
0.0912279 0.0685207 0.99347 0.24584 0.101492 0.963982 -0.0180949 0.0514979 0.998509 
0.0469401 0.0258298 0.998564 -0.161194 0.044975 0.985897 -0.170713 -0.0159016 0.985192 
-0.058776 -0.0691632 0.995872 0.0719315 -0.00429118 0.9974 -0.056953 -0.191217 0.979894 
-0.0359651 0.0309164 0.998875 0.138867 -0.122195 0.982743 0.169522 -0.127655 0.977224 
0.0814101 -0.134963 0.987501 -0.0486197 -0.0699873 0.996362 -0.157737 -0.04138 0.986614 
-0.397157 -0.0166441 0.9176 0.526409 -0.0149113 0.850101 0.116766 0.00566283 0.993143 
0.0379515 -0.0233951 0.999006 0.0352478 -0.00386549 0.999371 -0.104537 -0.0126205 0.994441 
-0.191746 -0.0309465 0.980956 -0.00745645 -0.073855 0.997241 -0.0147253 -0.166926 0.985859 
0.0370716 -0.201949 0.978694 0.00678253 -0.0691703 0.997582 -0.061307 -0.013898 0.998022 
0.140641 -0.0972214 0.985276 0.0842045 -0.151399 0.98488 -0.0428635 -0.163341 0.985638 
-0.177934 -0.160205 0.970914 -0.348718 -0.137462 0.927092 0.516976 -0.145794 0.843493 
0.0760574 -0.0212256 0.996877 0.248021 0.031254 0.96825 -0.0214049 -0.0462946 0.998698 
0.0062004 -0.0901093 0.995913 -0.187008 -0.0664037 0.980111 -0.226112 -0.02403 0.973805 
-0.219283 -0.0689419 0.973222 -0.0492149 -0.305632 0.950877 -0.00506921 -0.032338 0.999464 
0.176563 -0.33905 0.924051 0.149433 -0.0452227 0.987737 0.0323789 -0.0763099 0.996558 
0.0163704 -0.194346 0.980796 -0.0609151 -0.254101 0.965258 -0.159211 -0.251265 0.954734 
-0.335754 -0.235404 0.91206 0.564292 -0.284292 0.775082 0.229119 -0.0975709 0.968496 
-0.070963 -0.216272 0.973751 -0.0856658 -0.0954528 0.991741 -0.18992 -0.0761636 0.978841 
-0.289536 -0.0747203 0.954246 -0.0293623 -0.140668 0.989621 0.0423159 -0.182423 0.982309 
0.0492665 0.00836714 0.998751 0.165039 -0.187517 0.968297 -0.00918405 -0.213356 0.976931 
-0.098335 -0.287659 0.952671 -0.108054 -0.321167 0.940838 -0.155634 -0.35635 0.9213 
0.38199 -0.467978 0.796919 0.0727932 -0.247499 0.96615 -0.06837 -0.21849 0.973441 
-0.193615 -0.251079 0.948405 -0.312521 -0.214099 0.925469 0.104336 -0.107598 0.988705 
-0.000769416 -0.229457 0.973318 -0.0761562 -0.328299 0.941499 -0.102912 -0.374605 0.921456 
0.189871 -0.58662 0.78729 -0.0629546 -0.466063 0.882509 -0.164401 -0.3874 0.907135 
0.145376 0.780749 0.607698 0.164594 0.75807 0.631062 0.192094 0.789998 0.58224 
0.133343 0.826653 0.546685 -0.00240449 0.823533 0.567263 0.0118666 0.999805 0.0157558 
-0.218249 0.800313 0.55845 -0.353676 0.741871 0.569685 0.387184 0.681065 0.621481 
0.186099 0.787244 0.587889 0.243014 0.778085 0.579248 0.297887 0.909406 0.290248 
-0.378138 0.773979 0.507906 -0.395988 0.78776 0.471834 -0.444097 0.761129 0.472716 
0.44725 0.659099 0.604613 0.548536 0.595473 0.586959 -0.452564 0.751443 0.480124 
-0.487927 0.695867 0.526969 0.593557 0.567916 0.570229 0.672473 0.512409 0.534057 
-0.581782 0.577084 0.573153 -0.606884 0.521996 0.599343 -0.640827 0.650547 0.407589 
0.808716 0.348482 0.473856 -0.645236 0.354278 0.676873 -0.796867 0.488009 0.35616 
0.77527 0.201249 0.598711 -0.651198 0.145414 0.744847 -0.669485 0.154096 0.726667 
0.797873 0.00626053 0.602793 0.983558 0.0299451 0.17809 -0.567019 -0.073987 0.820376 
-0.608577 -0.0605388 0.791182 0.738216 -0.148938 0.657917 -0.459959 -0.244248 0.853687 
-0.359931 -0.391363 0.846926 -0.56197 -0.264544 0.783713 0.766626 -0.317732 0.55797 
0.641183 -0.472898 0.604361 -0.0626168 -0.156179 0.985742 0.145178 -0.269627 0.951958 
-0.120359 -0.390701 0.912615 -0.325848 -0.402171 0.855618 -0.195496 -0.401671 0.894674 
-0.365606 -0.411648 0.834792 -0.60925 -0.475694 0.634452 0.598639 -0.511378 0.616541 
0.750931 -0.560166 0.349737 0.45584 -0.559216 0.69245 -0.208024 -0.204172 0.956577 
-0.231951 -0.285907 0.929761 -0.124356 -0.193123 0.973262 0.14678 -0.250533 0.956916 
0.154655 -0.275584 0.948755 0.0933251 -0.224337 0.970033 -0.0420861 -0.293863 0.954921 
-0.11314 -0.339653 0.933721 -0.10858 -0.384647 0.916655 -0.10864 -0.379327 0.918862 
-0.127904 -0.414281 0.901117 -0.266639 -0.491321 0.829161 -0.402658 -0.516812 0.755495 
0.362272 -0.609697 0.705003 0.523359 -0.64568 0.556051 0.195145 -0.671373 0.714966 
0.0263675 -0.505411 0.862476 -0.177328 -0.349221 0.920108 -0.129475 -0.417935 0.899203 
-0.190817 -0.319886 0.928042 -0.0603521 -0.203306 0.977253 0.113712 -0.238101 0.964561 
0.086 -0.283667 0.955059 -0.0559258 -0.316875 0.946817 -0.164075 -0.365319 0.916309 
-0.195386 -0.443367 0.874786 -0.242254 -0.521898 0.817884 -0.335759 -0.636992 0.693907 
0.427626 -0.821065 0.378138 0.156792 -0.633941 0.757321 -0.043881 -0.542032 0.839212 
-0.0924116 -0.460168 0.883009 -0.0132243 -0.302458 0.953071 0.0546781 -0.376432 0.924829 
0.0224444 -0.436747 0.899304 -0.109146 -0.485352 0.867479 -0.214422 -0.511793 0.83192 
-0.302828 -0.52002 0.79867 0.01406 0.994323 -0.105474 0.327611 0.925389 -0.190594 
0.216501 0.970285 -0.108043 0.180772 0.976431 -0.117913 0.192797 0.968643 -0.156718 
0.0624289 0.991854 -0.111035 0.177608 0.976297 -0.123691 -0.0811103 0.991714 -0.0996228 
0.0168013 0.988153 -0.152548 -0.241735 0.966129 -0.0903299 -0.435196 0.893533 -0.110472 
0.364313 0.910491 -0.195658 0.484467 0.86002 -0.160179 0.345885 0.903116 -0.254453 
0.226095 0.805503 -0.547764 0.114163 0.652676 -0.748987 -0.451333 0.885964 -0.106611 
-0.321092 0.769083 -0.55264 -0.451107 0.886166 -0.105886 -0.470859 0.881591 -0.0329901 
0.639253 0.738097 -0.215796 0.652036 0.725395 -0.22057 0.378077 0.538901 -0.752757 
-0.501621 0.864986 -0.0132574 -0.505785 0.862576 -0.0119959 -0.636193 0.770207 0.0451568 
0.777901 0.58888 -0.219294 0.784802 0.57653 -0.227375 0.432301 0.393356 -0.81141 
-0.687167 0.72438 0.0554521 -0.80879 0.566365 0.158398 0.867102 0.428897 -0.253342 
0.647781 0.431405 -0.627909 -0.839358 0.5121 0.182297 0.943255 0.273682 -0.188063 
0.965473 0.164517 -0.201983 -0.943623 0.266514 0.196332 0.983896 0.0471265 -0.172418 
0.981932 -0.142685 -0.124299 0.961486 0.0552826 -0.269236 -0.941172 0.0845716 0.327173 
0.980643 -0.15568 -0.118757 -0.897223 -0.192142 0.397584 0.927118 -0.365052 -0.0847876 
-0.687021 -0.500382 0.526897 -0.658722 -0.523625 0.54028 0.846165 -0.531122 -0.0437465 
0.817945 -0.574861 -0.0224018 0.803707 -0.514095 -0.299603 -0.565627 -0.550206 0.614279 
-0.450619 -0.619027 0.643233 -0.780977 -0.602325 0.165161 0.708696 -0.70333 0.0554715 
0.646893 -0.75498 0.107401 -0.327249 -0.606489 0.724623 -0.339234 -0.639428 0.689965 
-0.337567 -0.639075 0.691109 -0.585865 -0.795779 0.153291 0.499346 -0.817583 0.286726 
0.457229 -0.82766 0.325455 0.252857 -0.827975 0.50052 0.113273 -0.681 0.723469 
0.0440456 -0.511308 0.858268 0.0174663 -0.553924 0.832384 0.024842 -0.562066 0.826719 
-0.0474126 -0.638794 0.767916 -0.158266 -0.635095 0.756046 -0.208624 -0.635566 0.743325 
-0.312771 -0.528503 0.789214 -0.305218 -0.529859 0.791259 -0.487241 -0.795787 0.359611 
0.248493 -0.827846 0.502914 0.0753186 -0.58675 0.806257 0.0147527 -0.652117 0.757975 
0.0146026 -0.621257 0.783471 -0.0555222 -0.685748 0.725718 -0.182392 -0.778659 0.600353 
-0.251456 -0.913105 0.32095 0.0552423 0.688331 -0.72329 0.185103 0.688311 -0.701402 
0.0161082 0.736924 -0.675783 -0.223015 0.683569 -0.69498 0.245344 0.622 -0.743588 
0.0714554 0.689366 -0.72088 0.208032 0.655012 -0.726417 0.102036 0.657644 -0.746387 
0.0543491 0.682023 -0.729308 0.11453 0.650373 -0.750931 0.11381 0.649503 -0.751793 
0.167413 0.58929 -0.790386 -0.00247743 0.580116 -0.81453 -0.275131 0.706807 -0.65171 
-0.193959 0.598633 -0.777186 -0.28375 0.723679 -0.629107 -0.306121 0.765853 -0.565472 
-0.344861 0.807654 -0.478294 0.331913 0.528014 -0.781687 0.362488 0.499713 -0.786695 
0.206791 0.525688 -0.82516 0.133172 0.420846 -0.897304 0.0978037 0.390048 -0.915586 
0.153177 0.360008 -0.920289 0.159816 0.343945 -0.92529 0.0405987 0.364526 -0.930308 
-0.0799002 0.4236 -0.902319 -0.136113 0.507556 -0.8508 -0.217637 0.651584 -0.726686 
-0.380535 0.795636 -0.471335 -0.329581 0.783389 -0.526952 -0.46284 0.744058 -0.481828 
-0.586702 0.679293 -0.440843 0.430576 0.392245 -0.812864 0.431639 0.391089 -0.812857 
0.336511 0.362716 -0.869021 0.187317 0.309318 -0.932328 0.0964695 0.328779 -0.939467 
0.0436857 0.345224 -0.937503 0.107849 0.237868 -0.965291 -0.388087 0.595268 -0.703593 
-0.591701 0.67524 -0.440386 -0.583892 0.673163 -0.453787 -0.689853 0.588977 -0.420961 
0.510956 0.343423 -0.788026 0.559384 0.369205 -0.742143 0.454332 0.292521 -0.841436 
0.278125 0.231377 -0.932261 0.206411 0.227265 -0.951706 -0.461219 0.395074 -0.794477 
-0.702842 0.573696 -0.420579 -0.687741 0.572544 -0.446325 0.623719 0.309143 -0.717917 
0.534213 0.295048 -0.792189 0.329065 0.222162 -0.917802 0.203927 0.214693 -0.955155 
-0.870142 0.330291 -0.365733 -0.661165 0.302614 -0.686502 0.696825 0.0187711 -0.716996 
0.533868 0.0216319 -0.845291 0.346604 0.0883789 -0.933839 -0.933064 0.187875 -0.306749 
-0.625894 0.124207 -0.769954 0.71359 -0.0875624 -0.69507 0.61101 -0.0704709 -0.78848 
0.389446 -0.00379901 -0.921042 -0.965073 -0.0863428 -0.247345 -0.602046 0.118057 -0.789686 
0.736475 -0.225237 -0.637866 0.706689 -0.337104 -0.622054 0.637253 -0.200266 -0.744179 
0.419766 -0.105014 -0.901537 -0.947447 -0.317623 -0.0382024 0.674482 -0.421989 -0.605804 
0.551902 -0.275323 -0.787148 -0.798818 -0.598347 0.0622238 -0.773486 -0.631074 0.0588524 
-0.786052 -0.598209 -0.155783 0.685335 -0.503504 -0.526118 0.685471 -0.518021 -0.511648 
0.670092 -0.489573 -0.557939 0.520462 -0.318378 -0.79231 -0.538883 -0.823622 0.176783 
-0.612599 -0.786909 0.0741463 -0.595916 -0.798684 0.0835884 -0.615731 -0.784601 -0.0726314 
0.702092 -0.647952 -0.295337 0.69129 -0.677932 -0.250052 0.696897 -0.586813 -0.412293 
0.504416 -0.863412 0.00922302 -0.367012 -0.926302 0.0852523 -0.516135 -0.834758 0.191791 
-0.493117 -0.855827 0.15619 -0.524522 -0.720197 -0.454084 0.471984 -0.880993 0.0329197 
0.335056 -0.939395 0.0726287 0.376476 -0.715577 -0.5884 0.19682 -0.976953 0.0826085 
0.0160355 -0.997933 0.0622309 -0.099775 -0.993553 0.0538226 -0.133297 -0.989149 0.0617681 
-0.189794 -0.975491 0.111334 -0.327977 -0.938907 0.104331 -0.261894 -0.948998 0.17554 
-0.300884 -0.82323 -0.481416 0.175803 0.235237 -0.955906 0.0496098 0.328792 -0.943098 
-0.0527649 0.361773 -0.930772 -0.0752157 0.407498 -0.910103 -0.109637 0.480579 -0.870071 
-0.219561 0.484749 -0.846647 0.123059 0.268581 -0.955364 0.0302472 0.34618 -0.93768 
0.155919 0.209361 -0.965328 0.0478194 0.29373 -0.954692 0.183917 0.195526 -0.963299 
0.0760503 0.193547 -0.978139 -0.000705165 0.24389 -0.969803 -0.0257388 0.331588 -0.943073 
-0.0806933 0.410854 -0.908123 -0.239347 0.47749 -0.845409 -0.211854 0.458184 -0.863241 
-0.270978 0.421632 -0.865331 0.173427 0.236316 -0.956074 0.200412 0.20852 -0.957264 
0.132455 0.244489 -0.960563 0.0230563 0.333206 -0.942572 -0.00290749 0.34744 -0.937698 
0.112363 0.243875 -0.963275 0.0908475 0.0793518 -0.992698 0.0595558 0.0763178 -0.995303 
0.0533093 0.132589 -0.989736 -0.0283072 0.183845 -0.982548 -0.155129 0.226181 -0.961653 
-0.435234 0.383334 -0.814633 -0.210137 0.311435 -0.926742 -0.439605 0.365269 -0.820565 
0.191663 0.19806 -0.961269 0.230773 0.176349 -0.956893 0.186034 0.179661 -0.965978 
0.202501 0.163287 -0.965573 0.13141 0.107819 -0.985447 0.0257155 0.094596 -0.995184 
-0.0804358 0.109819 -0.990692 -0.0858864 0.0649246 -0.994187 0.0568477 0.104024 -0.992949 
0.0900587 0.0408232 -0.995099 0.0129612 0.049199 -0.998705 -0.0855992 0.113179 -0.98988 
-0.183897 0.200894 -0.962197 -0.397316 0.251256 -0.882616 -0.336616 0.237153 -0.91129 
0.27986 0.123429 -0.952073 0.254264 0.142249 -0.956616 0.161394 0.150845 -0.975294 
0.0709424 0.107345 -0.991688 -0.0343323 -0.0201753 -0.999207 0.00283314 -0.034052 -0.999416 
0.0673867 0.00269379 -0.997723 0.0947481 -0.0110454 -0.99544 0.0336556 0.146772 -0.988598 
-0.00951406 0.0479755 -0.998803 0.0478888 0.0540155 -0.997391 -0.00266764 0.109044 -0.994033 
-0.118526 0.183807 -0.97579 -0.537739 0.135079 -0.83222 -0.303227 0.178386 -0.936072 
0.327202 0.0170166 -0.944801 0.266618 0.039067 -0.96301 0.149813 0.0742045 -0.985926 
0.0319277 0.076553 -0.996554 -0.00210736 0.0955184 -0.995425 0.0536047 0.163014 -0.985166 
-0.0737094 0.0297929 -0.996835 0.0502885 -0.0252617 -0.998415 0.108323 -0.0564541 -0.992511 
0.0116703 0.0308364 -0.999456 0.0740135 0.0501341 -0.995996 0.0533237 0.057459 -0.996923 
-0.112908 0.0639367 -0.991546 -0.568969 0.118744 -0.813741 -0.349158 0.0319317 -0.93652 
-0.598873 0.0758476 -0.797244 0.360845 -0.0602928 -0.930675 0.322537 -0.0602861 -0.944635 
0.194719 -0.00905915 -0.980817 0.089382 0.0533742 -0.994566 0.0440835 0.0971164 -0.994296 
-0.0609234 0.0243963 -0.997844 -0.120433 -0.0628793 -0.990728 0.0235021 0.0965238 -0.995053 
0.0930905 0.0183332 -0.995489 0.0865931 0.0598053 -0.994447 0.0745078 0.0438065 -0.996258 
0.00451065 -0.0228108 -0.99973 -0.149258 -0.105772 -0.983125 -0.278467 -0.073268 -0.957647 
-0.689049 -0.109707 -0.716363 -0.665034 -0.252783 -0.70273 -0.589634 -0.0837527 -0.803316 
0.37446 -0.200313 -0.905347 0.368453 -0.213957 -0.90469 0.331747 -0.187131 -0.924622 
0.273741 -0.0951813 -0.957082 0.135974 -0.000606865 -0.990712 -0.0231888 0.0352113 -0.999111 
-0.110008 -0.0273193 -0.993555 -0.00337985 0.0169028 -0.999851 0.118396 0.0995616 -0.987962 
0.0791079 0.1056 -0.991257 0.0393374 0.10161 -0.994046 -0.00947748 -0.0184981 -0.999784 
-0.0855888 -0.0953994 -0.991753 -0.175217 -0.164593 -0.970674 -0.582922 -0.477029 -0.657758 
-0.510111 -0.544867 -0.665513 -0.428703 -0.391394 -0.814263 0.435038 -0.199801 -0.877965 
0.373624 -0.137718 -0.9173 0.208713 -0.115577 -0.971123 0.0162364 -0.000519729 -0.999868 
-0.0856843 -0.0145144 -0.996217 0.0131053 -0.0038621 -0.999907 0.111577 -0.0219735 -0.993513 
0.0957434 -0.045025 -0.994387 -0.0428445 -0.0151816 -0.998966 -0.129961 -0.149784 -0.98014 
-0.524242 -0.719566 -0.455407 -0.177734 -0.298868 -0.937597 -0.507365 -0.600232 -0.618306 
-0.464677 -0.669423 -0.579611 -0.419533 -0.532617 -0.735059 0.429123 -0.303463 -0.850743 
0.402932 -0.39547 -0.825378 0.384048 -0.291831 -0.875981 0.354548 -0.618876 -0.700919 
0.272522 -0.246083 -0.930148 0.0783467 -0.278123 -0.957345 -0.0962496 -0.161029 -0.982245 
-0.0260726 -0.158624 -0.986995 0.0752711 -0.210524 -0.974687 0.0720314 -0.274374 -0.958921 
-0.285455 -0.760648 -0.583035 -0.0846509 -0.427335 -0.900122 -0.524231 -0.719665 -0.455262 
-0.350005 -0.782697 -0.514667 -0.223726 -0.435101 -0.872143 0.33375 -0.652142 -0.680677 
0.148539 -0.687263 -0.711059 0.120526 -0.566483 -0.815212 -0.0196311 -0.742858 -0.669161 
0.00435471 -0.557221 -0.830353 -0.050791 -0.704974 -0.707412 -0.0335274 -0.544404 -0.838153 
-0.0408557 -0.748904 -0.661417 -0.0205787 -0.613408 -0.789498 -0.270637 -0.766176 -0.582864 
-0.111641 -0.798134 -0.592046 -0.111621 -0.699901 -0.705464 
