# vtk DataFile Version 4.2
vtk output
ASCII
DATASET POLYDATA
POINTS 526 float
-10.1613 -41.2502 -12.1917 -2.31079 -41.2502 -12.6868 5.53974 -41.2502 -12.3418 
-25.8624 -33.3997 -12.6159 -18.0119 -33.3997 -15.433 -10.1613 -33.3997 -16.0159 
-2.31079 -33.3997 -15.6626 5.53974 -33.3997 -15.3294 13.3903 -33.3997 -15.3199 
21.2408 -33.3997 -15.1944 29.0913 -33.3997 -14.795 36.9419 -33.3997 -12.3032 
-33.7129 -25.5491 -14.6866 -25.8624 -25.5491 -16.2321 -18.0119 -25.5491 -17.54 
-10.1613 -25.5491 -17.3397 -2.31079 -25.5491 -17.1445 5.53974 -25.5491 -16.8502 
13.3903 -25.5491 -16.9564 21.2408 -25.5491 -17.2184 29.0913 -25.5491 -16.9745 
36.9419 -25.5491 -15.8536 44.7924 -25.5491 -14.7308 -49.414 -17.6986 -12.4118 
-41.5635 -17.6986 -15.7679 -33.7129 -17.6986 -16.9027 -25.8624 -17.6986 -17.6668 
-18.0119 -17.6986 -17.18 -10.1613 -17.6986 -17.1551 -2.31079 -17.6986 -17.506 
5.53974 -17.6986 -17.1233 13.3903 -17.6986 -17.1919 21.2408 -17.6986 -17.3734 
29.0913 -17.6986 -17.7505 36.9419 -17.6986 -18.1865 44.7924 -17.6986 -15.7318 
52.643 -17.6986 -13.8236 -57.2645 -9.84805 -11.7765 -49.414 -9.84805 -15.7543 
-41.5635 -9.84805 -17.262 -33.7129 -9.84805 -17.4197 -25.8624 -9.84805 -16.9439 
-18.0119 -9.84805 -15.8982 -10.1613 -9.84805 -15.7919 -2.31079 -9.84805 -18.2371 
5.53974 -9.84805 -16.7875 13.3903 -9.84805 -16.5611 21.2408 -9.84805 -16.3613 
29.0913 -9.84805 -16.7358 36.9419 -9.84805 -17.0161 44.7924 -9.84805 -16.672 
52.643 -9.84805 -16.2554 60.4935 -9.84805 -12.0957 -57.2645 -1.99752 -13.3251 
-49.414 -1.99752 -15.5565 -41.5635 -1.99752 -17.2925 -33.7129 -1.99752 -17.1601 
-25.8624 -1.99752 -16.3796 -18.0119 -1.99752 -15.0119 -10.1613 -1.99752 -15.2773 
-2.31079 -1.99752 -15.0012 5.53974 -1.99752 -15.9289 13.3903 -1.99752 -16.8282 
21.2408 -1.99752 -14.4089 29.0913 -1.99752 -15.9181 36.9419 -1.99752 -16.7754 
44.7924 -1.99752 -16.7324 52.643 -1.99752 -17.347 60.4935 -1.99752 -12.8932 
-57.2645 5.85302 -12.164 -49.414 5.85302 -15.1013 -41.5635 5.85302 -16.1252 
-33.7129 5.85302 -16.3241 -25.8624 5.85302 -15.5896 -18.0119 5.85302 -14.237 
-10.1613 5.85302 -14.1575 -2.31079 5.85302 -15.1998 5.53974 5.85302 -17.1719 
13.3903 5.85302 -17.9119 21.2408 5.85302 -15.0135 29.0913 5.85302 -16.1936 
36.9419 5.85302 -16.4548 44.7924 5.85302 -16.563 52.643 5.85302 -16.8749 
60.4935 5.85302 -13.3818 -49.414 13.7035 -12.5859 -41.5635 13.7035 -14.4754 
-33.7129 13.7035 -15.5029 -25.8624 13.7035 -15.0332 -18.0119 13.7035 -13.8667 
-10.1613 13.7035 -13.0942 -2.31079 13.7035 -14.715 5.53974 13.7035 -15.1688 
13.3903 13.7035 -15.7835 21.2408 13.7035 -15.9739 29.0913 13.7035 -16.234 
36.9419 13.7035 -17.1767 44.7924 13.7035 -15.3813 52.643 13.7035 -13.8852 
-41.5635 21.5541 -12.6196 -33.7129 21.5541 -13.5852 -25.8624 21.5541 -14.327 
-18.0119 21.5541 -13.6057 -10.1613 21.5541 -13.6213 -2.31079 21.5541 -14.5937 
5.53974 21.5541 -14.757 13.3903 21.5541 -15.1055 21.2408 21.5541 -15.8213 
29.0913 21.5541 -15.7452 36.9419 21.5541 -15.4554 44.7924 21.5541 -14.8072 
52.643 21.5541 -12.6229 -25.8624 29.4046 -12.3463 -18.0119 29.4046 -12.5612 
-10.1613 29.4046 -13.5757 -2.31079 29.4046 -13.7948 5.53974 29.4046 -13.8922 
13.3903 29.4046 -14.2332 21.2408 29.4046 -14.2508 29.0913 29.4046 -13.7678 
36.9419 29.4046 -13.473 44.7924 29.4046 -12.2852 5.53974 37.2552 -11.8246 
-10.1613 -41.9027 -11.7053 -2.31079 -42.6976 -11.7053 5.53974 -42.2246 -11.7053 
-25.8624 -34.4638 -11.7053 -11.8937 -41.2502 -11.7053 -18.0119 -38.6527 -11.7053 
-18.0119 -41.2502 -8.60246 12.6919 -41.2502 -11.7053 13.3903 -41.1267 -11.7053 
13.3903 -41.2502 -11.6198 21.2408 -39.2196 -11.7053 21.2408 -41.2502 -10.0651 
29.0913 -38.4638 -11.7053 29.0913 -41.2502 -6.92284 36.9419 -34.0886 -11.7053 
-27.7273 -33.3997 -11.7053 -33.7129 -29.6912 -11.7053 38.9486 -33.3997 -11.7053 
44.7924 -30.5861 -11.7053 44.7924 -33.3997 -6.1369 -49.414 -18.7023 -11.7053 
-41.3042 -25.5491 -11.7053 -41.5635 -25.3782 -11.7053 -41.5635 -25.5491 -11.5196 
51.3867 -25.5491 -11.7053 52.643 -23.9888 -11.7053 52.643 -25.5491 -9.7579 
-50.491 -17.6986 -11.7053 -57.2645 -10.0089 -11.7053 -57.2645 -17.6986 -4.39454 
55.5876 -17.6986 -11.7053 60.4935 -10.812 -11.7053 -57.3509 -9.84805 -11.7053 
60.9453 -9.84805 -11.7053 -59.3791 -1.99752 -11.7053 61.9267 -1.99752 -11.7053 
-57.8776 5.85302 -11.7053 -57.2645 7.6125 -11.7053 62.6069 5.85302 -11.7053 
60.4935 10.9153 -11.7053 -51.8244 13.7035 -11.7053 -57.2645 13.7035 -9.41614 
-49.414 18.7221 -11.7053 57.4994 13.7035 -11.7053 60.4935 13.7035 -9.35202 
-57.2645 21.5541 -3.95287 -46.6341 21.5541 -11.7053 -49.414 21.5541 -11.1216 
-41.5635 23.9789 -11.7053 -33.7129 26.665 -11.7053 54.0261 21.5541 -11.7053 
52.643 23.257 -11.7053 -41.5635 29.4046 -9.06688 -29.0816 29.4046 -11.7053 
-33.7129 29.4046 -10.5666 -25.8624 30.6311 -11.7053 -18.0119 31.5716 -11.7053 
-10.1613 35.0742 -11.7053 -2.31079 37.2349 -11.7053 13.3903 36.5723 -11.7053 
21.2408 35.1876 -11.7053 29.0913 33.5856 -11.7053 36.9419 32.1067 -11.7053 
45.9761 29.4046 -11.7053 44.7924 30.1864 -11.7053 -25.8624 37.2552 -6.52861 
-18.0119 37.2552 -8.99761 -10.1613 37.2552 -10.7834 -1.97125 37.2552 -11.7053 
-2.31079 37.2552 -11.6989 8.03314 37.2552 -11.7053 5.53974 37.4601 -11.7053 
13.3903 37.2552 -11.3988 21.2408 37.2552 -10.6416 29.0913 37.2552 -9.17242 
36.9419 37.2552 -6.45881 5.53974 45.1057 -4.06272 -18.0119 -44.1236 -3.85479 
-10.1613 -47.3701 -3.85479 -2.31079 -48.7781 -3.85479 5.53974 -48.6343 -3.85479 
13.3903 -47.341 -3.85479 21.2408 -45.1657 -3.85479 29.0913 -42.4206 -3.85479 
-21.7493 -41.2502 -3.85479 -25.8624 -38.2221 -3.85479 31.7029 -41.2502 -3.85479 
29.0913 -41.2502 0.686555 36.9419 -38.785 -3.85479 44.7924 -33.9979 -3.85479 
-41.5635 -29.3318 -3.85479 -33.6415 -33.3997 -3.85479 -33.7129 -33.3583 -3.85479 
45.585 -33.3997 -3.85479 44.7924 -33.3997 -2.6299 52.643 -27.2821 -3.85479 
-57.2645 -18.1168 -3.85479 -47.8985 -25.5491 -3.85479 -49.414 -24.5267 -3.85479 
54.2078 -25.5491 -3.85479 52.643 -25.5491 -1.34759 -57.58 -17.6986 -3.85479 
60.3153 -17.6986 -3.85479 60.4935 -17.2876 -3.85479 -62.4824 -9.84805 -3.85479 
63.3178 -9.84805 -3.85479 60.4935 -9.84805 0.969882 -64.8892 -1.99752 -3.85479 
-65.1151 -1.99752 0.381457 65.095 -1.99752 -3.85479 -64.0843 5.85302 -3.85479 
-65.1151 5.85302 3.26683 65.2961 5.85302 -3.85479 -62.5467 13.7035 -3.85479 
63.1321 13.7035 -3.85479 60.4935 19.2484 -3.85479 60.4935 13.7035 1.87891 
-57.3452 21.5541 -3.85479 -57.2645 21.6509 -3.85479 -49.414 28.6592 -3.85479 
59.12 21.5541 -3.85479 52.643 28.7817 -3.85479 -48.3196 29.4046 -3.85479 
-49.414 29.4046 0.0290898 -41.5635 33.3926 -3.85479 -33.7129 36.8979 -3.85479 
51.9355 29.4046 -3.85479 44.7924 34.7206 -3.85479 -32.7192 37.2552 -3.85479 
-33.7129 37.2552 -1.15977 -25.8624 39.5256 -3.85479 -18.0119 42.2368 -3.85479 
-10.1613 44.1012 -3.85479 -2.31079 44.9545 -3.85479 13.3903 45.0883 -3.85479 
21.2408 43.6872 -3.85479 29.0913 41.4474 -3.85479 39.9528 37.2552 -3.85479 
36.9419 38.7162 -3.85479 -10.1613 45.1057 3.16767 1.74231 45.1057 -3.85479 
-2.31079 45.1057 -2.78603 12.5752 45.1057 -3.85479 5.53974 45.228 -3.85479 
13.3903 45.1057 -3.76636 -18.0119 -43.9015 3.99575 -10.1613 -47.4099 3.99575 
-2.31079 -48.8036 3.99575 5.53974 -48.2485 3.99575 13.3903 -45.7521 3.99575 
21.2408 -42.7791 3.99575 -22.0081 -41.2502 3.99575 -25.8624 -38.5269 3.99575 
-18.0119 -41.2502 8.12839 5.53974 -41.2502 11.356 13.3903 -41.2502 8.58304 
25.8632 -41.2502 3.99575 21.2408 -41.2502 5.76254 29.0913 -39.8032 3.99575 
36.9419 -35.5712 3.99575 -41.5635 -28.8597 3.99575 -32.8832 -33.3997 3.99575 
-33.7129 -32.874 3.99575 21.2408 -33.3997 10.6008 29.0913 -33.3997 8.05791 
40.0731 -33.3997 3.99575 36.9419 -33.3997 5.99749 44.7924 -29.7818 3.99575 
-57.2645 -17.7199 3.99575 -47.1262 -25.5491 3.99575 -49.414 -23.9307 3.99575 
-41.5635 -25.5491 10.2417 29.0913 -25.5491 11.5161 36.9419 -25.5491 8.87169 
49.037 -25.5491 3.99575 44.7924 -25.5491 7.06223 52.643 -21.108 3.99575 
-57.2808 -17.6986 3.99575 -57.2645 -17.6986 4.0224 -49.414 -17.6986 11.7755 
36.9419 -17.6986 11.0315 44.7924 -17.6986 9.26507 55.145 -17.6986 3.99575 
52.643 -17.6986 5.97097 -62.5651 -9.84805 3.99575 -65.1151 -2.53561 3.99575 
44.7924 -9.84805 10.1827 57.2753 -9.84805 3.99575 52.643 -9.84805 6.8808 
60.4935 -2.43489 3.99575 -65.2736 -1.99752 3.99575 -65.1151 -1.99752 4.2825 
44.7924 -1.99752 11.0001 52.643 -1.99752 8.638 60.6011 -1.99752 3.99575 
60.4935 -1.99752 4.10026 -65.1957 5.85302 3.99575 -65.1151 6.37174 3.99575 
-65.1151 5.85302 4.15457 44.7924 5.85302 11.5798 52.643 5.85302 9.88443 
61.342 5.85302 3.99575 60.4935 9.38158 3.99575 60.4935 5.85302 4.8629 
-63.7645 13.7035 3.99575 44.7924 13.7035 11.2279 58.7005 13.7035 3.99575 
52.643 13.7035 7.90965 -58.6193 21.5541 3.99575 -57.2645 23.1651 3.99575 
-57.2645 21.5541 6.55146 44.7924 21.5541 9.78268 55.568 21.5541 3.99575 
52.643 25.9943 3.99575 52.643 21.5541 6.53794 -50.2991 29.4046 3.99575 
-49.414 30.1223 3.99575 -49.414 29.4046 5.38305 -41.5635 34.4307 3.99575 
-41.5635 29.4046 11.316 36.9419 29.4046 10.5916 49.5546 29.4046 3.99575 
44.7924 33.1229 3.99575 44.7924 29.4046 7.64393 -35.0668 37.2552 3.99575 
-33.7129 37.8194 3.99575 -33.7129 37.2552 5.46124 -25.8624 40.758 3.99575 
-25.8624 37.2552 10.01 -18.0119 43.5182 3.99575 21.2408 44.8853 3.99575 
29.0913 42.3654 3.99575 29.0913 37.2552 10.238 39.1277 37.2552 3.99575 
36.9419 38.5945 3.99575 36.9419 37.2552 5.99087 -10.6747 45.1057 3.99575 
-10.1613 45.2058 3.99575 -10.1613 45.1057 4.21272 -2.31079 45.9067 3.99575 
-2.31079 45.1057 5.78525 5.53974 46.3158 3.99575 5.53974 45.1057 6.66052 
20.1046 45.1057 3.99575 13.3903 46.3283 3.99575 13.3903 45.1057 6.67834 
-10.1613 -41.8032 11.8463 -2.31079 -42.7042 11.8463 -25.8624 -33.8339 11.8463 
-11.4253 -41.2502 11.8463 -18.0119 -38.2238 11.8463 -10.1613 -41.2502 12.2542 
3.21634 -41.2502 11.8463 -2.31079 -41.2502 12.8099 5.53974 -40.2195 11.8463 
13.3903 -34.6524 11.8463 -26.6067 -33.3997 11.8463 -33.7129 -28.9869 11.8463 
-25.8624 -33.3997 12.2758 -18.0119 -33.3997 15.1528 -10.1613 -33.3997 16.0892 
[...]
POINT_DATA 526
SCALARS ImageScalars float
LOOKUP_TABLE default
0 0 0 0 0 0 0 0 0 
0 0 0 0 0 0 0 0 0 
0 0 0 0 0 0 0 0 0 
0 0 0 0 0 0 0 0 0 
0 0 0 0 0 0 0 0 0 
0 0 0 0 0 0 0 0 0 
0 0 0 0 0 0 0 0 0 
0 0 0 0 0 0 0 0 0 
0 0 0 0 0 0 0 0 0 
0 0 0 0 0 0 0 0 0 
0 0 0 0 0 0 0 0 0 
0 0 0 0 0 0 0 0 0 
0 0 0 0 0 0 0 0 0 
0 0 0 0 0 0 0 0 0 
0 0 0 0 0 0 0 0 0 
0 0 0 0 0 0 0 0 0 
0 0 0 0 0 0 0 0 0 
0 0 0 0 0 0 0 0 0 
0 0 0 0 0 0 0 0 0 
0 0 0 0 0 0 0 0 0 
0 0 0 0 0 0 0 0 0 
0 0 0 0 0 0 0 0 0 
0 0 0 0 0 0 0 0 0 
0 0 0 0 0 0 0 0 0 
0 0 0 0 0 0 0 0 0 
0 0 0 0 0 0 0 0 0 
0 0 0 0 0 0 0 0 0 
0 0 0 0 0 0 0 0 0 
0 0 0 0 0 0 0 0 0 
0 0 0 0 0 0 0 0 0 
0 0 0 0 0 0 0 0 0 
0 0 0 0 0 0 0 0 0 
0 0 0 0 0 0 0 0 0 
0 0 0 0 0 0 0 0 0 
0 0 0 0 0 0 0 0 0 
0 0 0 0 0 0 0 0 0 
0 0 0 0 0 0 0 0 0 
0 0 0 0 0 0 0 0 0 
0 0 0 0 0 0 0 0 0 
0 0 0 0 0 0 0 0 0 
0 0 0 0 0 0 0 0 0 
0 0 0 0 0 0 0 0 0 
0 0 0 0 0 0 0 0 0 
0 0 0 0 0 0 0 0 0 
0 0 0 0 0 0 0 0 0 
0 0 0 0 0 0 0 0 0 
0 0 0 0 0 0 0 0 0 
0 0 0 0 0 0 0 0 0 
0 0 0 0 0 0 0 0 0 
0 0 0 0 0 0 0 0 0 
0 0 0 0 0 0 0 0 0 
0 0 0 0 0 0 0 0 0 
0 0 0 0 0 0 0 0 0 
0 0 0 0 0 0 0 0 0 
0 0 0 0 0 0 0 0 0 
0 0 0 0 0 0 0 0 0 
0 0 0 0 0 0 0 0 0 
0 0 0 0 0 0 0 0 0 
0 0 0 0 
NORMALS Normals float
0.15511 0.592151 0.790758 0.0074816 0.504318 0.863486 -0.0625471 0.497385 0.865272 
0.365638 0.618521 0.695514 0.191902 0.424537 0.88484 0.00874701 0.296397 0.955025 
-0.0434448 0.270446 0.961754 -0.0210536 0.274322 0.961407 -0.0073137 0.313731 0.949484 
-0.034961 0.350042 0.936081 -0.131033 0.42132 0.897396 -0.313581 0.585238 0.747772 
0.263169 0.466695 0.844357 0.165423 0.27771 0.946315 0.0711595 0.0861036 0.993742 
-0.0243433 0.0742249 0.996944 -0.0310427 0.113808 0.993018 -0.0118284 0.110825 0.99377 
0.0227727 0.118212 0.992727 0.000463337 0.121419 0.992601 -0.0773852 0.184619 0.979759 
-0.130935 0.307288 0.942566 -0.310672 0.347912 0.884557 0.474124 0.453207 0.754857 
0.244028 0.284659 0.927049 0.116962 0.153149 0.981257 0.0217605 0.0467554 0.998669 
-0.0325531 -0.102956 0.994153 0.0211917 -0.0946623 0.995284 -0.0029918 0.067387 0.997722 
-0.0199625 -0.00416191 0.999792 0.0159129 -0.0250224 0.99956 0.0352835 -0.0504366 0.998104 
0.050384 -0.0130555 0.998645 -0.1158 0.0567276 0.991651 -0.248703 0.107051 0.962646 
-0.475134 0.312285 0.822633 0.597326 0.312498 0.738611 0.344925 0.149645 0.926624 
0.0958459 0.102582 0.990096 -0.0208754 0.0190423 0.999601 -0.0958405 -0.0812185 0.992078 
-0.0723706 -0.136799 0.987952 0.153629 -0.115626 0.98134 0.0550886 -0.0886284 0.99454 
-0.104631 -0.0620374 0.992574 -0.0265939 -0.0288231 0.999231 0.0113196 -0.186636 0.982364 
0.0413111 -0.115151 0.992489 -0.00359558 -0.0846054 0.996408 -0.0425733 0.0610038 0.997229 
-0.351244 0.211239 0.912144 -0.660996 0.270872 0.699794 0.523011 0.0206 0.852077 
0.252584 -0.0346197 0.966956 0.115976 -0.0724653 0.990605 -0.0573569 -0.0693222 0.995944 
-0.134899 -0.0846661 0.987235 -0.075556 -0.107116 0.991372 0.00641808 -0.103459 0.994613 
0.042047 -0.263366 0.963779 0.100338 0.0115573 0.994886 -0.130084 0.0808831 0.988198 
-0.0187112 -0.0800013 0.996619 0.150793 -0.0354516 0.987929 0.0474336 -0.0357703 0.998234 
0.0263072 -0.00685945 0.99963 -0.26524 0.0286862 0.963756 -0.618023 0.087195 0.78131 
0.53269 -0.20873 0.820166 0.269427 -0.172386 0.947466 0.0692765 -0.17451 0.982215 
-0.0336958 -0.107646 0.993618 -0.131934 -0.0851586 0.987594 -0.0890437 -0.0725969 0.993379 
0.0629058 -0.136921 0.988583 0.173015 -0.0241662 0.984623 0.181228 -0.0782071 0.980327 
-0.176203 -0.104865 0.978752 -0.0564017 0.100753 0.993311 0.0931309 0.0189719 0.995473 
0.0233437 0.0237042 0.999446 0.0231761 -0.0858299 0.99604 -0.280802 -0.204534 0.937719 
-0.565321 -0.141232 0.81269 0.285167 -0.230403 0.930373 0.166184 -0.196602 0.966297 
0.0324437 -0.164929 0.985772 -0.105299 -0.0775088 0.991415 -0.122577 -0.0398097 0.99166 
0.050405 -0.0214825 0.998498 0.133479 -0.0366291 0.990374 0.0698061 -0.134796 0.988411 
0.0506032 -0.141826 0.988597 0.0285795 0.0514154 0.998268 0.073927 -0.0283067 0.996862 
-0.0535374 -0.0586919 0.99684 -0.179875 -0.10068 0.978524 -0.315657 -0.249045 0.915607 
0.153961 -0.29757 0.942204 0.0947431 -0.283422 0.954304 -0.000709769 -0.178297 0.983976 
-0.0426014 -0.0791997 0.995948 0.0625828 0.0305247 0.997573 0.0723899 -0.0571163 0.99574 
0.0321607 -0.0780419 0.996431 0.0673744 -0.10064 0.992639 0.0407984 -0.102543 0.993892 
-0.02176 -0.146772 0.988931 -0.0531285 -0.202322 0.977877 -0.191975 -0.214611 0.957647 
-0.446877 -0.347593 0.824306 0.106167 -0.37685 0.92017 0.0812862 -0.24253 0.966732 
0.0737249 -0.162148 0.984008 0.0205293 -0.178881 0.983657 0.0285707 -0.184001 0.982511 
0.0219983 -0.223194 0.974526 -0.0282507 -0.283251 0.958629 -0.0433129 -0.341398 0.93892 
-0.107038 -0.430049 0.896438 -0.315277 -0.527321 0.789007 -0.015755 -0.417268 0.908647 
0.163359 0.61783 0.769155 0.0154212 0.568544 0.822509 -0.0642527 0.539297 0.839661 
0.389223 0.660696 0.641862 0.201041 0.618671 0.759493 0.316535 0.615625 0.721672 
0.424398 0.752833 0.503119 -0.103044 0.563692 0.819532 -0.105729 0.565884 0.817677 
-0.107841 0.57372 0.811921 -0.0959245 0.625919 0.773966 -0.159216 0.771726 0.615703 
-0.19686 0.680302 0.706 -0.331583 0.902174 0.275925 -0.328903 0.615828 0.715946 
0.394389 0.669707 0.629245 0.395236 0.662268 0.636545 -0.359644 0.617038 0.699943 
-0.42374 0.589211 0.68795 -0.577702 0.81035 0.0979498 0.487623 0.487491 0.724276 
0.412478 0.66039 0.627492 0.414172 0.657891 0.629 0.418176 0.670023 0.61335 
-0.564822 0.510742 0.648165 -0.581767 0.483764 0.65385 -0.673152 0.595649 0.438257 
0.504748 0.462894 0.728669 0.599067 0.316788 0.735367 0.779856 0.571882 0.25451 
-0.582868 0.355882 0.730488 -0.673787 0.297491 0.676396 0.600276 0.313569 0.73576 
-0.688492 0.276095 0.670634 0.632406 0.0318913 0.773981 -0.69831 0.0963218 0.709285 
0.556617 -0.209931 0.803808 0.528436 -0.246818 0.812303 -0.71903 -0.144587 0.679772 
-0.593822 -0.31565 0.740095 0.352108 -0.266569 0.897196 0.560224 -0.369184 0.74152 
0.346121 -0.328343 0.878858 -0.487931 -0.33763 0.804941 -0.7285 -0.422137 0.539526 
0.713895 -0.576874 0.396951 0.301606 -0.356549 0.884255 0.390954 -0.401951 0.828004 
0.194329 -0.373495 0.907049 0.141012 -0.387981 0.910816 -0.521734 -0.380021 0.763791 
-0.494452 -0.417432 0.762409 0.338213 -0.626727 0.702016 0.130413 -0.403472 0.905651 
0.177503 -0.478925 0.859723 0.119795 -0.417337 0.900821 0.111643 -0.320207 0.940746 
0.11982 -0.376013 0.918835 0.0560378 -0.415915 0.907675 -0.054272 -0.443978 0.894393 
-0.0854699 -0.472177 0.877351 -0.0929862 -0.501357 0.860229 -0.154071 -0.542785 0.825619 
-0.354988 -0.551468 0.754895 -0.325925 -0.558146 0.763051 0.258609 -0.758562 0.598084 
0.224984 -0.6111 0.758907 0.14047 -0.486914 0.86208 0.0530374 -0.416626 0.907529 
0.0561625 -0.416777 0.907272 -0.0302118 -0.432937 0.900918 -0.0158894 -0.426687 0.90426 
-0.0616006 -0.473241 0.878777 -0.112602 -0.564734 0.817555 -0.174927 -0.70542 0.686864 
-0.346508 -0.835034 0.427377 0.00681504 -0.925204 0.379408 0.490348 0.844201 0.216525 
0.257611 0.935381 0.242279 0.073951 0.964081 0.255105 -0.0840865 0.966536 0.242357 
-0.222128 0.958443 0.179014 -0.290157 0.94718 0.136599 -0.378926 0.923709 0.0563533 
0.54619 0.812279 0.204643 0.562878 0.806909 0.17907 -0.404909 0.913805 0.0317693 
-0.399683 0.871978 -0.282679 -0.466025 0.884685 0.012407 -0.578666 0.810679 -0.0891352 
0.465713 0.871251 0.155029 0.501765 0.856533 0.120759 0.501253 0.856838 0.12072 
-0.590445 0.801939 -0.0909294 -0.582899 0.794739 -0.169172 -0.719284 0.683063 -0.12671 
0.778845 0.586968 0.221063 0.51632 0.841073 0.161274 0.537364 0.826025 0.170065 
-0.746583 0.658288 -0.0962886 -0.701575 0.669533 -0.243964 0.786973 0.575282 0.22299 
-0.872114 0.479654 -0.0966921 -0.876092 0.471398 -0.101221 0.880197 0.381293 0.282612 
-0.945933 0.313347 -0.0838053 -0.814425 0.35859 -0.456206 0.937088 0.0950522 0.335903 
0.991353 0.130514 0.0136201 -0.988349 0.124857 -0.0870476 0.904807 -0.125954 0.406768 
0.983674 -0.0910007 -0.155253 -0.989826 -0.124056 -0.0696797 0.831226 -0.365429 0.418958 
-0.938064 -0.346415 -0.00576814 -0.854672 -0.518585 0.0245902 -0.800719 -0.334242 -0.497122 
0.716244 -0.577766 0.391383 0.714413 -0.579987 0.391445 0.560077 -0.72884 0.393835 
-0.803133 -0.594324 0.0419087 -0.667983 -0.737329 0.100717 0.541604 -0.745455 0.388538 
0.588504 -0.797212 0.134595 0.411174 -0.830975 0.374722 0.344254 -0.866567 0.361318 
-0.655843 -0.7475 0.105422 -0.51912 -0.841328 0.150604 0.341515 -0.866037 0.365169 
0.363392 -0.912969 0.185563 0.309743 -0.850238 0.425622 0.259268 -0.870924 0.417459 
0.149744 -0.913931 0.377237 0.0629442 -0.934662 0.349922 -0.0866914 -0.915473 0.392929 
-0.201757 -0.905195 0.374054 -0.286853 -0.885662 0.365127 -0.436721 -0.873651 0.214497 
-0.391016 -0.885393 0.251368 0.146447 -0.982048 -0.118893 0.0342848 -0.933228 0.357646 
0.0651375 -0.958353 0.27806 -0.0768814 -0.917545 0.390129 0.00751242 -0.929898 0.367741 
-0.0868981 -0.918062 0.386795 0.482471 0.83933 -0.250494 0.268447 0.932181 -0.242848 
0.0498335 0.966136 -0.253176 -0.168837 0.929652 -0.327477 -0.296191 0.843375 -0.44832 
-0.328473 0.781378 -0.530616 0.541491 0.810312 -0.224014 0.578642 0.791505 -0.196707 
0.437423 0.755645 -0.487506 -0.223032 0.498573 -0.837665 -0.279882 0.617494 -0.735096 
-0.356664 0.759893 -0.543465 -0.311784 0.703333 -0.638837 -0.362141 0.729377 -0.580398 
-0.42724 0.666689 -0.61073 0.457836 0.855873 -0.240555 0.519462 0.833432 -0.188545 
0.509203 0.839352 -0.190262 -0.257529 0.33259 -0.907228 -0.259529 0.461121 -0.848535 
-0.466264 0.637101 -0.613759 -0.402164 0.581658 -0.707063 -0.512246 0.570446 -0.642024 
0.752011 0.601518 -0.269547 0.504444 0.82669 -0.249238 0.532849 0.802944 -0.267119 
0.436947 0.706492 -0.556728 -0.221892 0.255747 -0.940934 -0.268223 0.289793 -0.918736 
-0.542694 0.561586 -0.624584 -0.360328 0.438796 -0.823178 -0.572939 0.466268 -0.674044 
0.752453 0.600986 -0.2695 0.751895 0.601033 -0.270949 0.492077 0.516559 -0.700734 
-0.194852 0.19233 -0.961791 -0.323623 0.205325 -0.923639 -0.615605 0.305984 -0.726226 
-0.505991 0.266798 -0.820239 0.873817 0.420681 -0.243869 0.949055 0.169191 -0.265837 
-0.274487 0.0939658 -0.956989 -0.617267 0.248783 -0.746384 -0.446118 0.162808 -0.880041 
-0.668537 0.157474 -0.726815 0.953267 0.149024 -0.262819 0.948469 0.150683 -0.27875 
-0.229905 0.0912256 -0.968928 -0.446303 0.168065 -0.878959 -0.671406 0.14648 -0.726469 
-0.665716 0.146174 -0.731748 0.97438 -0.086344 -0.207675 0.972694 -0.105075 -0.206944 
0.972793 -0.0858763 -0.215172 -0.187606 0.0144208 -0.982138 -0.389572 -0.0361566 -0.920286 
-0.732078 -0.0657166 -0.678044 -0.709987 -0.171503 -0.683012 -0.690043 -0.0623921 -0.721074 
0.911982 -0.365014 -0.187228 -0.291716 -0.107471 -0.950448 -0.667997 -0.268188 -0.694158 
-0.502496 -0.190447 -0.843343 0.778522 -0.610037 -0.147507 0.746293 -0.649004 -0.147783 
0.727515 -0.60871 -0.316536 -0.417939 -0.195852 -0.887113 -0.721713 -0.396368 -0.56747 
-0.655894 -0.51616 -0.550801 -0.549638 -0.343978 -0.761299 0.5889 -0.797003 -0.134101 
0.572467 -0.809074 -0.132971 0.573039 -0.788022 -0.225052 0.425701 -0.887255 -0.17764 
0.341073 -0.673653 -0.655638 -0.357506 -0.380585 -0.852845 -0.613473 -0.62178 -0.486868 
-0.558042 -0.691515 -0.45869 -0.488012 -0.502316 -0.713809 0.372326 -0.918951 -0.130007 
0.365662 -0.92191 -0.127961 0.359144 -0.909175 -0.210752 0.338498 -0.927756 -0.157126 
0.262039 -0.762247 -0.591874 0.264728 -0.94958 -0.167977 -0.239042 -0.966811 -0.0901921 
-0.380436 -0.900036 -0.212612 -0.384906 -0.572228 -0.724157 -0.539321 -0.771064 -0.338515 
-0.514581 -0.800428 -0.307444 -0.519197 -0.728775 -0.446455 0.152362 -0.973434 -0.170914 
0.144604 -0.974658 -0.170679 0.144787 -0.972302 -0.183483 0.0705448 -0.984574 -0.160116 
0.0732627 -0.960656 -0.267905 0.0272369 -0.988647 -0.147765 0.0269063 -0.9478 -0.317729 
-0.217236 -0.971457 -0.0952911 -0.0913572 -0.985838 -0.140631 -0.0671983 -0.945233 -0.319405 
0.184821 0.608762 -0.771524 -0.0433173 0.545397 -0.837058 0.396986 0.697607 -0.596445 
0.214166 0.607692 -0.764751 0.328139 0.620497 -0.712256 0.178177 0.587558 -0.789322 
-0.171803 0.482855 -0.858682 -0.0513421 0.475942 -0.877977 -0.216585 0.450005 -0.866364 
-0.228492 0.311052 -0.922517 0.399722 0.701027 -0.590579 0.439893 0.679949 -0.586655 
0.384991 0.687327 -0.615924 0.194875 0.485987 -0.851963 0.0112648 0.30633 -0.951859 
-0.110731 0.23873 -0.964752 -0.178499 0.235647 -0.955305 -0.231673 0.283292 -0.930631 
-0.225557 0.270272 -0.93599 -0.181054 0.235432 -0.954878 0.419678 0.652413 -0.631053 
0.421062 0.624404 -0.657895 0.377329 0.536644 -0.754743 0.177983 0.346718 -0.920928 
-0.00258393 0.226971 -0.973898 -0.0973844 0.108943 -0.989266 -0.135172 0.088401 -0.986871 
-0.186014 0.0986589 -0.977581 -0.176241 0.127204 -0.976093 -0.197037 0.234918 -0.951835 
-0.139087 0.189422 -0.971995 -0.20738 0.216851 -0.953923 0.6029 0.344394 -0.719656 
0.489914 0.513291 -0.70464 0.488623 0.51237 -0.706204 0.325337 0.375621 -0.867793 
0.193728 0.20281 -0.959863 0.0715543 0.0699244 -0.994983 -0.0695427 0.0266746 -0.997222 
-0.14596 0.00602628 -0.989272 -0.111339 0.0797477 -0.990578 -0.153441 0.122676 -0.980513 
-0.131987 0.17549 -0.975594 -0.113736 0.169066 -0.97902 -0.177854 0.154346 -0.971877 
-0.167745 0.123717 -0.978037 -0.205375 0.0961527 -0.973949 0.635304 0.296057 -0.713259 
0.577234 0.28641 -0.764703 0.323145 0.25452 -0.911481 0.221761 0.13399 -0.965851 
0.0416456 0.0697185 -0.996697 -0.0180479 -0.0503079 -0.998571 -0.0702113 -0.08484 -0.993918 
-0.0366047 0.0865418 -0.995575 -0.0213949 0.187916 -0.981952 -0.0876189 0.0458021 -0.995101 
-0.11909 0.271045 -0.955171 -0.199878 0.19004 -0.961215 -0.211918 0.0858313 -0.973511 
-0.205943 0.0947269 -0.973968 -0.205634 0.0948157 -0.974025 0.635593 0.0135684 -0.771905 
0.594775 0.00662735 -0.803865 0.290475 0.0704856 -0.954283 0.150796 0.0182459 -0.988397 
0.0118865 0.0270949 -0.999562 -0.0824155 -0.00342967 -0.996592 0.0611725 -0.0101772 -0.998075 
0.137101 0.063117 -0.988544 -0.0593806 0.0988572 -0.993328 0.0384113 0.0759958 -0.996368 
-0.308507 0.0367036 -0.950514 -0.240592 0.0535275 -0.969149 -0.203245 0.0861699 -0.975329 
-0.187175 0.0778298 -0.979238 0.609426 0.0209082 -0.792567 0.532654 0.0273002 -0.845893 
0.316827 -0.0396875 -0.947653 0.164892 0.0323275 -0.985782 0.0302436 0.00743229 -0.999515 
-0.0553192 0.0750055 -0.995647 -0.00771407 0.0804939 -0.996725 0.0609502 -0.064403 -0.996061 
0.0172506 -0.0787208 -0.996747 -0.0945875 0.112898 -0.989094 -0.177316 -0.114878 -0.977426 
-0.226413 -0.0656382 -0.971817 -0.179555 0.0270523 -0.983376 -0.181759 0.0171316 -0.983194 
-0.170545 0.0301785 -0.984888 0.654089 -0.228863 -0.720965 0.604652 -0.322135 -0.728441 
0.568599 -0.217694 -0.793287 0.320735 -0.130172 -0.938181 0.19302 -0.113623 -0.974594 
0.0457063 -0.0973411 -0.994201 -0.008872 0.000293596 -0.999961 -0.0711955 0.0326045 -0.996929 
-0.0302134 0.011079 -0.999482 0.0134917 -0.0309549 -0.99943 -0.11095 -0.0160862 -0.993696 
-0.162325 -0.0178222 -0.986576 -0.148984 0.0427809 -0.987914 -0.168742 0.0354512 -0.985022 
-0.251235 -0.0601347 -0.966056 -0.19271 0.022398 -0.981 0.51855 -0.48841 -0.701827 
0.483659 -0.513098 -0.709087 0.462704 -0.441558 -0.76872 0.328853 -0.643317 -0.691375 
0.207724 -0.360092 -0.909497 0.134954 -0.26532 -0.954669 0.0722718 -0.196785 -0.977779 
0.00422615 -0.100422 -0.994936 -0.00400041 -0.0161181 -0.999862 -0.0098868 -0.0209219 -0.999732 
-0.0818209 -0.0232322 -0.996376 -0.12235 0.0368973 -0.991801 -0.16144 0.036267 -0.986216 
-0.21697 -0.0368192 -0.975484 -0.355382 -0.152249 -0.922238 -0.323391 -0.270191 -0.906871 
-0.296107 -0.1267 -0.946714 0.3225 -0.643943 -0.693781 0.282877 -0.669647 -0.686698 
0.23374 -0.488066 -0.840927 0.216565 -0.646213 -0.731784 0.160618 -0.436642 -0.885181 
0.120168 -0.310473 -0.942956 0.0518951 -0.241853 -0.968924 0.00620124 -0.211535 -0.977351 
-0.0519261 -0.194151 -0.979596 -0.105279 -0.122152 -0.986912 -0.213097 -0.164116 -0.963149 
-0.347249 -0.31414 -0.883592 -0.367214 -0.39716 -0.841081 -0.343229 -0.234273 -0.909566 
0.221565 -0.672135 -0.706501 0.210529 -0.69095 -0.691568 0.205266 -0.629223 -0.749629 
0.126412 -0.700502 -0.702365 0.107795 -0.571756 -0.813311 0.0666617 -0.707789 -0.703272 
0.0487907 -0.527531 -0.848134 0.0119181 -0.701015 -0.713047 0.00397275 -0.491158 -0.871061 
-0.0458452 -0.686524 -0.72566 -0.0906762 -0.471221 -0.877342 -0.323686 -0.491773 -0.808324 
-0.246829 -0.631599 -0.734955 -0.253314 -0.4502 -0.856243 -0.160535 0.0922874 -0.982706 
-0.0959717 0.078494 -0.992284 -0.168459 0.0834559 -0.982169 -0.115206 0.0329318 -0.992796 
-0.172493 0.0821434 -0.98158 
