# vtk DataFile Version 4.2
vtk output
ASCII
DATASET POLYDATA
POINTS 536 float
-49.6202 6.21439 -21.7276 -41.8403 6.21439 -21.5358 -10.7209 -32.6849 -14.0871 
-34.0604 -24.905 -15.1999 -26.2806 -24.905 -16.2619 -18.5007 -24.905 -17.261 
-10.7209 -24.905 -17.1039 -2.94103 -24.905 -15.9032 4.83882 -24.905 -14.3707 
-49.6202 -17.1252 -15.5837 -41.8403 -17.1252 -17.7568 -34.0604 -17.1252 -18.0007 
-26.2806 -17.1252 -17.9736 -18.5007 -17.1252 -17.9598 -10.7209 -17.1252 -17.9319 
-2.94103 -17.1252 -17.5453 4.83882 -17.1252 -16.0287 12.6187 -17.1252 -13.9834 
-57.4 -9.34531 -16.0082 -49.6202 -9.34531 -18.8002 -41.8403 -9.34531 -19.8363 
-34.0604 -9.34531 -20.3106 -26.2806 -9.34531 -18.9974 -18.5007 -9.34531 -17.9268 
-10.7209 -9.34531 -18.2388 -2.94103 -9.34531 -19.949 4.83882 -9.34531 -18.6399 
12.6187 -9.34531 -15.5939 -57.4 -1.56546 -17.2684 -49.6202 3.96964 -21.3843 
-49.6202 -1.56546 -20.5634 -41.8403 4.31024 -21.3843 -41.8403 -1.56546 -20.9115 
-34.0604 -1.56546 -20.4824 -26.2806 -1.56546 -19.3875 -18.5007 -1.56546 -18.2964 
-10.7209 -1.56546 -20.1261 -2.94103 -1.56546 -19.2292 4.83882 -1.56546 -19.402 
12.6187 -1.56546 -17.8408 20.3985 -1.56546 -14.9114 28.1784 -1.56546 -15.0018 
35.9582 -1.56546 -14.5596 -50.2083 6.21439 -21.3843 -57.4 6.21439 -17.7869 
-49.6202 10.5119 -21.3843 -39.4835 6.21439 -21.3843 -41.8403 10.4405 -21.3843 
-34.0604 6.21439 -21.0387 -26.2806 6.21439 -19.8026 -18.5007 6.21439 -18.7418 
-10.7209 6.21439 -20.5012 -2.94103 6.21439 -19.6527 4.83882 6.21439 -19.0915 
12.6187 6.21439 -18.2303 20.3985 6.21439 -17.061 28.1784 6.21439 -16.8239 
35.9582 6.21439 -16.4652 43.7381 6.21439 -15.3972 51.5179 6.21439 -13.776 
-57.4 13.9942 -17.1688 -49.6202 13.9942 -21.1013 -41.8403 13.9942 -21.2562 
-34.0604 13.9942 -21.1341 -26.2806 13.9942 -20.6714 -18.5007 13.9942 -19.7048 
-10.7209 13.9942 -19.7787 -2.94103 13.9942 -19.4939 4.83882 13.9942 -18.0792 
12.6187 13.9942 -18.3977 20.3985 13.9942 -18.486 28.1784 13.9942 -18.2601 
35.9582 13.9942 -17.5237 43.7381 13.9942 -16.5447 -57.4 21.7741 -14.3732 
-49.6202 21.7741 -19.5777 -41.8403 21.7741 -20.3606 -34.0604 21.7741 -21.2413 
-26.2806 21.7741 -20.5589 -18.5007 21.7741 -20.1927 -10.7209 21.7741 -20.2758 
-2.94103 21.7741 -19.1727 4.83882 21.7741 -17.8776 12.6187 21.7741 -17.9179 
20.3985 21.7741 -18.3653 28.1784 21.7741 -18.0879 35.9582 21.7741 -17.5803 
43.7381 21.7741 -15.2748 -49.6202 29.554 -15.0108 -41.8403 29.554 -19.246 
-34.0604 29.554 -19.1823 -26.2806 29.554 -20.1202 -18.5007 29.554 -19.3403 
-10.7209 29.554 -18.6065 -2.94103 29.554 -16.516 4.83882 29.554 -14.7139 
12.6187 29.554 -14.9366 20.3985 29.554 -14.7802 28.1784 29.554 -14.0537 
-34.0604 37.3338 -14.9978 -26.2806 37.3338 -15.6246 -18.5007 37.3338 -14.6303 
-10.7209 -33.3077 -13.6044 -34.0604 -26.9464 -13.6044 -34.0604 -32.6849 -6.39386 
-26.2806 -29.8629 -13.6044 -26.2806 -32.6849 -10.8165 -18.3867 -32.6849 -13.6044 
-18.5007 -32.6718 -13.6044 -18.5007 -32.6849 -13.594 -4.27307 -32.6849 -13.6044 
-2.94103 -32.3868 -13.6044 -2.94103 -32.6849 -13.4941 4.83882 -27.4406 -13.6044 
4.83882 -32.6849 -11.7306 12.6187 -32.6849 -8.5107 -49.6202 -20.616 -13.6044 
-49.6202 -24.905 -7.69548 -40.5098 -24.905 -13.6044 -41.8403 -24.3402 -13.6044 
-41.8403 -24.905 -13.1923 7.95541 -24.905 -13.6044 12.6187 -19.0995 -13.6044 
12.6187 -24.905 -12.3371 20.3985 -24.905 -8.82089 28.1784 -24.905 -5.97947 
-54.3663 -17.1252 -13.6044 -57.4 -13.7765 -13.6044 -57.4 -17.1252 -10.5445 
13.8924 -17.1252 -13.6044 20.3985 -17.1252 -11.6489 28.1784 -17.1252 -9.72091 
35.9582 -17.1252 -8.14009 -60.1965 -9.34531 -13.6044 19.6645 -9.34531 -13.6044 
20.3985 -8.36143 -13.6044 20.3985 -9.34531 -13.4162 28.1784 -6.31716 -13.6044 
28.1784 -9.34531 -12.6734 35.9582 -3.94016 -13.6044 35.9582 -9.34531 -11.3534 
43.7381 -9.34531 -9.8474 51.5179 -9.34531 -6.83276 -63.3465 -1.56546 -13.6044 
-65.1799 -1.56546 -9.93519 42.8938 -1.56546 -13.6044 43.7381 -1.09949 -13.6044 
43.7381 -1.56546 -13.4827 51.5179 5.79884 -13.6044 51.5179 -1.56546 -10.873 
59.2978 -1.56546 -6.56337 -63.9321 6.21439 -13.6044 -65.1799 6.21439 -8.27258 
52.2527 6.21439 -13.6044 51.5179 8.57281 -13.6044 59.2978 6.21439 -11.4684 
-62.8408 13.9942 -13.6044 50.63 13.9942 -13.6044 51.5179 13.9942 -13.21 
59.2978 13.9942 -8.87695 -57.9953 21.7741 -13.6044 -57.4 22.7512 -13.6044 
35.9582 28.2073 -13.6044 47.3513 21.7741 -13.6044 43.7381 24.504 -13.6044 
51.5179 21.7741 -11.0561 -51.8675 29.554 -13.6044 -49.6202 31.1356 -13.6044 
-41.8403 35.7417 -13.6044 -10.7209 36.1257 -13.6044 -2.94103 33.0227 -13.6044 
4.83882 30.7852 -13.6044 12.6187 30.8483 -13.6044 20.3985 30.6624 -13.6044 
30.6036 29.554 -13.6044 28.1784 29.9359 -13.6044 35.9582 29.554 -11.8278 
43.7381 29.554 -7.13962 -37.4605 37.3338 -13.6044 -41.8403 37.3338 -6.87745 
-34.0604 38.4519 -13.6044 -26.2806 38.9191 -13.6044 -14.7631 37.3338 -13.6044 
-18.5007 38.2307 -13.6044 -10.7209 37.3338 -10.2051 -34.0604 -32.9781 -5.82456 
-26.2806 -35.5281 -5.82456 -18.5007 -37.7587 -5.82456 -10.7209 -39.1991 -5.82456 
-2.94103 -39.5603 -5.82456 4.83882 -38.4113 -5.82456 12.6187 -35.3716 -5.82456 
-49.6202 -25.8751 -5.82456 -34.8207 -32.6849 -5.82456 -41.8403 -29.9063 -5.82456 
17.0958 -32.6849 -5.82456 20.3985 -29.8062 -5.82456 20.3985 -32.6849 -3.06638 
28.1784 -25.1367 -5.82456 28.1784 -32.6849 1.6581 -51.4451 -24.905 -5.82456 
-57.4 -20.5263 -5.82456 28.7981 -24.905 -5.82456 35.9582 -21.6685 -5.82456 
35.9582 -24.905 -3.35345 43.7381 -24.905 0.86371 -59.929 -17.1252 -5.82456 
42.4848 -17.1252 -5.82456 43.7381 -16.3605 -5.82456 43.7381 -17.1252 -5.29126 
51.5179 -11.1513 -5.82456 51.5179 -17.1252 -1.98874 -64.2583 -9.34531 -5.82456 
-65.1799 -6.02188 -5.82456 53.4845 -9.34531 -5.82456 59.2978 -3.12516 -5.82456 
59.2978 -9.34531 -2.33942 -66.4271 -1.56546 -5.82456 -65.1799 -1.56546 -2.50763 
60.2661 -1.56546 -5.82456 67.0776 -1.56546 0.628753 -65.5673 6.21439 -5.82456 
-65.1799 7.76273 -5.82456 -65.1799 6.21439 -5.07181 64.297 6.21439 -5.82456 
67.0776 6.21439 -2.20896 -63.4334 13.9942 -5.82456 62.6988 13.9942 -5.82456 
59.2978 21.4315 -5.82456 67.0776 13.9942 0.619359 -59.3161 21.7741 -5.82456 
-57.4 24.939 -5.82456 -57.4 21.7741 -3.5982 59.112 21.7741 -5.82456 
51.5179 27.9213 -5.82456 59.2978 21.7741 -5.44604 -53.1422 29.554 -5.82456 
-49.6202 32.149 -5.82456 -49.6202 29.554 -3.25603 -2.94103 36.2197 -5.82456 
4.83882 34.3881 -5.82456 12.6187 33.5978 -5.82456 20.3985 33.2443 -5.82456 
28.1784 32.8974 -5.82456 35.9582 31.9878 -5.82456 46.6509 29.554 -5.82456 
43.7381 30.2122 -5.82456 -42.3265 37.3338 -5.82456 -41.8403 37.5679 -5.82456 
-41.8403 37.3338 -5.35238 -34.0604 39.5629 -5.82456 -34.0604 37.3338 -0.638067 
-26.2806 40.2586 -5.82456 -26.2806 37.3338 -1.22712 -18.5007 40.0798 -5.82456 
-18.5007 37.3338 -0.499151 -6.82847 37.3338 -5.82456 -10.7209 38.4377 -5.82456 
-10.7209 37.3338 -2.64298 -34.0604 -33.9546 1.95529 -26.2806 -36.1741 1.95529 
-18.5007 -38.2045 1.95529 -10.7209 -39.7427 1.95529 -2.94103 -40.4483 1.95529 
4.83882 -40.0322 1.95529 12.6187 -38.3946 1.95529 20.3985 -35.7777 1.95529 
28.1784 -32.8704 1.95529 -49.6202 -26.5289 1.95529 -37.1909 -32.6849 1.95529 
-41.8403 -30.7956 1.95529 -34.0604 -32.6849 8.10825 28.6284 -32.6849 1.95529 
35.9582 -29.1121 1.95529 43.7381 -25.7762 1.95529 -51.9666 -24.905 1.95529 
-57.4 -19.5566 1.95529 -49.6202 -24.905 5.10206 45.1533 -24.905 1.95529 
51.5179 -20.6351 1.95529 -59.0945 -17.1252 1.95529 -57.4 -17.1252 4.30017 
56.3149 -17.1252 1.95529 59.2978 -14.2674 1.95529 59.2978 -17.1252 8.45616 
-62.0548 -9.34531 1.95529 -57.4 -9.34531 7.40652 63.1229 -9.34531 1.95529 
67.0776 -3.28905 1.95529 -63.4036 -1.56546 1.95529 -57.4 -1.56546 8.1859 
67.9619 -1.56546 1.95529 -61.0979 6.21439 1.95529 -57.4 6.21439 5.47557 
69.6334 6.21439 1.95529 -58.068 13.9942 1.95529 -57.4 14.59 1.95529 
-57.4 13.9942 2.43096 -49.6202 13.9942 6.84834 -41.8403 13.9942 9.48047 
67.688 13.9942 1.95529 67.0776 15.5081 1.95529 67.0776 13.9942 6.27302 
-52.1591 21.7741 1.95529 -49.6202 24.3458 1.95529 -49.6202 21.7741 3.76455 
-41.8403 21.7741 6.53599 -34.0604 21.7741 8.30482 -26.2806 21.7741 9.5025 
51.5179 29.0485 1.95529 62.7918 21.7741 1.95529 59.2978 24.0261 1.95529 
59.2978 21.7741 8.26354 -42.4997 29.554 1.95529 -41.8403 30.2039 1.95529 
-41.8403 29.554 2.31196 -34.0604 35.1495 1.95529 -34.0604 29.554 4.95908 
-26.2806 34.6149 1.95529 -26.2806 29.554 5.93894 -18.5007 35.5055 1.95529 
-18.5007 29.554 6.63704 -10.7209 35.3061 1.95529 -10.7209 29.554 7.47079 
-2.94103 34.2771 1.95529 -2.94103 29.554 7.27123 4.83882 33.0225 1.95529 
4.83882 29.554 6.51124 12.6187 32.003 1.95529 12.6187 29.554 5.61159 
20.3985 31.2559 1.95529 20.3985 29.554 4.76079 28.1784 31.1208 1.95529 
28.1784 29.554 4.94899 35.9582 30.5283 1.95529 35.9582 29.554 4.07712 
46.5923 29.554 1.95529 43.7381 29.8128 1.95529 43.7381 29.554 2.58764 
-26.2806 -34.5447 9.73514 -18.5007 -36.7998 9.73514 -10.7209 -38.0579 9.73514 
-2.94103 -38.6294 9.73514 4.83882 -38.6416 9.73514 12.6187 -37.9648 9.73514 
20.3985 -36.6487 9.73514 28.1784 -34.6226 9.73514 -41.8403 -27.5608 9.73514 
-32.761 -32.6849 9.73514 -34.0604 -32.1982 9.73514 -26.2806 -32.6849 12.6273 
-18.5007 -32.6849 15.6013 -10.7209 -32.6849 17.3997 20.3985 -32.6849 16.56 
33.8574 -32.6849 9.73514 28.1784 -32.6849 13.9729 35.9582 -31.9119 9.73514 
43.7381 -27.9927 9.73514 -45.8759 -24.905 9.73514 -49.6202 -20.4559 9.73514 
-41.8403 -24.905 12.5606 -34.0604 -24.905 16.281 48.9058 -24.905 9.73514 
43.7381 -24.905 16.1806 51.5179 -23.213 9.73514 59.2978 -17.5395 9.73514 
-52.041 -17.1252 9.73514 -49.6202 -17.1252 11.4533 -41.8403 -17.1252 15.5255 
59.7158 -17.1252 9.73514 59.2978 -17.1252 10.609 -53.9424 -9.34531 9.73514 
-49.6202 -9.34531 12.3375 -41.8403 -9.34531 16.0033 -34.0604 -9.34531 17.3817 
65.1416 -9.34531 9.73514 67.0776 -5.44068 9.73514 -54.1524 -1.56546 9.73514 
-49.6202 -1.56546 11.9162 -41.8403 -1.56546 14.3349 -34.0604 -1.56546 15.8098 
-26.2806 -1.56546 16.6642 -18.5007 -1.56546 17.4275 68.7182 -1.56546 9.73514 
[...]
POINT_DATA 536
SCALARS ImageScalars float
LOOKUP_TABLE default
0 0 0 0 0 0 0 0 0 
0 0 0 0 0 0 0 0 0 
0 0 0 0 0 0 0 0 0 
0 0 0 0 0 0 0 0 0 
0 0 0 0 0 0 0 0 0 
0 0 0 0 0 0 0 0 0 
0 0 0 0 0 0 0 0 0 
0 0 0 0 0 0 0 0 0 
0 0 0 0 0 0 0 0 0 
0 0 0 0 0 0 0 0 0 
0 0 0 0 0 0 0 0 0 
0 0 0 0 0 0 0 0 0 
0 0 0 0 0 0 0 0 0 
0 0 0 0 0 0 0 0 0 
0 0 0 0 0 0 0 0 0 
0 0 0 0 0 0 0 0 0 
0 0 0 0 0 0 0 0 0 
0 0 0 0 0 0 0 0 0 
0 0 0 0 0 0 0 0 0 
0 0 0 0 0 0 0 0 0 
0 0 0 0 0 0 0 0 0 
0 0 0 0 0 0 0 0 0 
0 0 0 0 0 0 0 0 0 
0 0 0 0 0 0 0 0 0 
0 0 0 0 0 0 0 0 0 
0 0 0 0 0 0 0 0 0 
0 0 0 0 0 0 0 0 0 
0 0 0 0 0 0 0 0 0 
0 0 0 0 0 0 0 0 0 
0 0 0 0 0 0 0 0 0 
0 0 0 0 0 0 0 0 0 
0 0 0 0 0 0 0 0 0 
0 0 0 0 0 0 0 0 0 
0 0 0 0 0 0 0 0 0 
0 0 0 0 0 0 0 0 0 
0 0 0 0 0 0 0 0 0 
0 0 0 0 0 0 0 0 0 
0 0 0 0 0 0 0 0 0 
0 0 0 0 0 0 0 0 0 
0 0 0 0 0 0 0 0 0 
0 0 0 0 0 0 0 0 0 
0 0 0 0 0 0 0 0 0 
0 0 0 0 0 0 0 0 0 
0 0 0 0 0 0 0 0 0 
0 0 0 0 0 0 0 0 0 
0 0 0 0 0 0 0 0 0 
0 0 0 0 0 0 0 0 0 
0 0 0 0 0 0 0 0 0 
0 0 0 0 0 0 0 0 0 
0 0 0 0 0 0 0 0 0 
0 0 0 0 0 0 0 0 0 
0 0 0 0 0 0 0 0 0 
0 0 0 0 0 0 0 0 0 
0 0 0 0 0 0 0 0 0 
0 0 0 0 0 0 0 0 0 
0 0 0 0 0 0 0 0 0 
0 0 0 0 0 0 0 0 0 
0 0 0 0 0 0 0 0 0 
0 0 0 0 0 0 0 0 0 
0 0 0 0 0 
NORMALS Normals float
0.264833 0.0358405 0.963628 -0.0429673 0.0217893 0.998839 -0.00795825 0.544053 0.839013 
0.179251 0.507773 0.842636 0.123528 0.340237 0.932191 0.0489888 0.246265 0.967964 
-0.0845997 0.225332 0.970602 -0.164745 0.240612 0.956538 -0.205761 0.238516 0.94909 
0.293058 0.429189 0.85435 0.151957 0.401226 0.903287 0.0109097 0.286772 0.957937 
-0.00249951 0.15939 0.987213 -0.00266839 0.0434164 0.999053 -0.0252101 0.0698334 0.99724 
-0.116761 0.255101 0.959839 -0.222117 0.253207 0.941568 -0.264472 0.182202 0.947025 
0.510867 0.308081 0.802559 0.203342 0.316307 0.926608 0.0852922 0.168218 0.982053 
-0.046566 0.155484 0.98674 -0.149751 0.0917679 0.984456 -0.0460654 0.0221322 0.998693 
0.130297 0.127493 0.983244 0.0311836 0.103595 0.994131 -0.26316 0.208277 0.942002 
-0.315229 0.220883 0.922953 0.458794 0.0908284 0.883888 0.261097 0.0779689 0.962159 
0.238877 0.177449 0.954699 -0.034168 0.0457638 0.998368 -0.00762816 0.116676 0.993141 
-0.0967374 0.0462849 0.994233 -0.13939 0.0497627 0.988986 0.0321866 0.0511445 0.998172 
0.0697025 0.151178 0.986046 -0.0427102 -0.021536 0.998855 -0.0725779 0.0250415 0.997048 
-0.305542 0.166234 0.937555 -0.144332 0.220132 0.964733 -0.0217677 0.263812 0.964328 
-0.0978416 0.316114 0.943663 0.284461 0.0320263 0.958153 0.489075 -0.00559348 0.872224 
0.273201 -0.0683273 0.959527 -0.0627083 0.0278486 0.997643 -0.019426 -0.035527 0.99918 
-0.110157 0.0415003 0.993047 -0.14595 0.076597 0.986322 0.0350221 0.086498 0.995636 
0.0648698 -0.0270877 0.997526 -0.0893809 0.0161481 0.995867 -0.0883633 -0.0861127 0.992359 
-0.131529 0.032677 0.990774 -0.0863015 0.227454 0.969957 -0.0372972 0.205727 0.977898 
-0.0889404 0.183342 0.979018 -0.163135 0.194244 0.967293 -0.234299 0.171645 0.956892 
0.531762 -0.155823 0.832435 0.276511 -0.150206 0.9492 0.000622354 -0.0829029 0.996557 
-0.0347998 0.0127851 0.999313 -0.0918057 0.0504221 0.9945 -0.0532809 0.0957293 0.99398 
-0.013191 -0.0109207 0.999853 -0.110937 -0.0302091 0.993368 -0.0670158 -0.0750925 0.994922 
0.0260749 -0.0201864 0.999456 -0.00869271 0.0784361 0.996881 -0.0612952 0.0801308 0.994898 
-0.106231 0.0703829 0.991847 -0.251398 -0.0103002 0.967829 0.789336 -0.437839 0.430402 
0.246527 -0.342183 0.906717 0.104198 -0.121462 0.987112 0.0198285 -0.135018 0.990645 
-0.0665199 -0.0310583 0.997302 -0.018122 -0.0254863 0.999511 -0.0642599 -0.0672907 0.995662 
-0.149405 -0.166704 0.974622 -0.0782438 -0.186482 0.979338 0.0304124 -0.184414 0.982378 
0.0116918 -0.19781 0.980171 -0.0472061 -0.2045 0.977728 -0.187955 -0.260206 0.947083 
-0.323418 -0.330468 0.886675 0.519981 -0.661549 0.540346 0.256058 -0.341527 0.904319 
0.0505099 -0.346597 0.936653 0.014966 -0.258966 0.965771 -0.088391 -0.291665 0.952428 
-0.171664 -0.401381 0.89968 -0.241073 -0.515109 0.822524 -0.097522 -0.624091 0.775242 
0.00481762 -0.67588 0.736996 -0.0465832 -0.71578 0.69677 -0.121612 -0.756507 0.642579 
0.163526 -0.804803 0.570571 -0.0219014 -0.78465 0.619552 -0.155468 -0.790595 0.592274 
-0.000501336 0.571747 0.82043 0.213838 0.585858 0.781693 0.32142 0.886267 0.333496 
0.219189 0.577712 0.78626 0.270106 0.782175 0.561467 0.119858 0.633619 0.764304 
0.121602 0.634184 0.763559 0.121873 0.635158 0.762706 -0.105593 0.477703 0.872153 
-0.127234 0.453731 0.882009 -0.125279 0.466703 0.875496 -0.221096 0.304979 0.926339 
-0.258421 0.507347 0.822082 -0.407133 0.586352 0.70031 0.3281 0.565148 0.75694 
0.453439 0.826361 0.333946 0.230397 0.57961 0.781645 0.232923 0.580074 0.780552 
0.24894 0.602944 0.757949 -0.251746 0.255983 0.933326 -0.278534 0.206728 0.937914 
-0.329994 0.296423 0.896235 -0.346229 0.411122 0.84327 -0.268302 0.516034 0.813463 
0.481068 0.478305 0.73471 0.579921 0.430341 0.691735 0.686475 0.553603 0.471461 
-0.26267 0.192942 0.945398 -0.253103 0.263491 0.930866 -0.209108 0.372252 0.904269 
-0.237387 0.413724 0.878908 0.640436 0.362573 0.67704 -0.180734 0.201578 0.962653 
-0.163061 0.203719 0.965355 -0.168011 0.202015 0.964864 -0.0829567 0.295943 0.951596 
-0.123012 0.315443 0.940938 -0.118278 0.338707 0.933428 -0.165942 0.371328 0.913553 
-0.238816 0.43396 0.868703 -0.374702 0.487227 0.788802 0.744759 0.152237 0.649736 
0.946064 0.120982 0.300544 -0.211323 0.323071 0.922479 -0.221623 0.315414 0.922712 
-0.223767 0.323346 0.919443 -0.239274 0.182233 0.953698 -0.352713 0.335734 0.873428 
-0.548858 0.382506 0.743266 0.836225 -0.0229764 0.547904 0.990177 -0.137049 0.0276809 
-0.255359 0.16994 0.951794 -0.28837 0.0724889 0.954771 -0.491487 0.143568 0.85897 
0.824434 -0.301858 0.478738 -0.376899 -0.120461 0.918388 -0.401375 -0.137047 0.905603 
-0.592105 -0.238572 0.769737 0.808373 -0.456254 0.371973 0.792772 -0.480887 0.374513 
-0.229012 -0.676877 0.699565 -0.376135 -0.343573 0.860511 -0.325378 -0.501909 0.801384 
-0.488618 -0.399963 0.775424 0.578589 -0.688541 0.437202 0.534122 -0.73092 0.424818 
0.377771 -0.858611 0.34652 -0.261999 -0.795782 0.545974 -0.279883 -0.718698 0.636505 
-0.111595 -0.696594 0.708734 -0.00807513 -0.761987 0.647541 -0.0549332 -0.783761 0.618629 
-0.158564 -0.759793 0.630533 -0.121522 -0.779379 0.614656 -0.225827 -0.817181 0.530299 
-0.236129 -0.930472 0.280117 0.275397 -0.872466 0.403683 0.395146 -0.915227 -0.0788601 
0.188498 -0.870961 0.453757 -0.0125758 -0.878864 0.476907 -0.207321 -0.826724 0.523016 
-0.154987 -0.835087 0.527834 -0.263961 -0.929387 0.257999 0.323155 0.896728 0.302406 
0.295609 0.914718 0.275512 0.215756 0.937299 0.273714 0.110028 0.946336 0.303879 
-0.0412248 0.93552 0.350859 -0.227172 0.868367 0.44083 -0.410979 0.714539 0.566154 
0.473534 0.847479 0.239884 0.325231 0.896596 0.300567 0.37008 0.881246 0.294016 
-0.416809 0.644157 0.641352 -0.390017 0.577193 0.71745 -0.396852 0.733541 0.551749 
-0.270853 0.522485 0.808485 -0.360562 0.836001 0.413639 0.508149 0.831323 0.225136 
0.708394 0.683948 0.174339 -0.271214 0.523651 0.807609 -0.286424 0.519769 0.804861 
-0.321952 0.649213 0.689107 -0.436601 0.731178 0.524173 0.794679 0.58477 0.16288 
-0.302455 0.518789 0.799612 -0.306381 0.529786 0.790858 -0.316464 0.543016 0.777807 
-0.394438 0.50328 0.768849 -0.451513 0.614723 0.646723 0.940972 0.337828 0.0210858 
0.974117 0.225583 -0.0144337 -0.416338 0.499912 0.759441 -0.551198 0.407719 0.727974 
-0.579404 0.540265 0.61025 0.99623 0.0859931 -0.0114003 0.978923 0.0336997 -0.201432 
-0.583657 0.370664 0.722463 -0.837903 0.34829 0.420253 0.970591 -0.174206 -0.166149 
0.966721 -0.20012 -0.159383 0.963782 -0.168707 -0.206548 -0.722602 0.107122 0.682914 
-0.854169 0.0462996 0.51793 0.930694 -0.342654 -0.12805 -0.692221 -0.234097 0.682663 
-0.669145 -0.557391 0.491487 -0.923697 -0.303073 0.234374 0.836348 -0.495765 -0.233962 
0.77258 -0.586865 -0.242301 0.775328 -0.498364 -0.387943 -0.666554 -0.56995 0.480481 
-0.446368 -0.822012 0.353628 -0.668872 -0.588332 0.454396 0.619327 -0.737387 -0.269618 
0.557704 -0.789658 -0.255746 0.521494 -0.720502 -0.457079 -0.256764 -0.965545 0.0423746 
-0.167909 -0.980679 0.100377 -0.0724308 -0.99606 0.0511738 -0.0445213 -0.998728 0.0236618 
-0.0808599 -0.995472 0.0499804 -0.168796 -0.980878 0.0968827 -0.291678 -0.924531 0.245289 
-0.225258 -0.951716 0.208556 0.404521 -0.903799 -0.139678 0.390796 -0.909648 -0.14078 
0.393637 -0.901793 -0.178381 0.167507 -0.974132 -0.151684 0.126484 -0.847742 -0.515107 
0.0374709 -0.980405 -0.193398 0.00948203 -0.867862 -0.496716 -0.115515 -0.986051 -0.119832 
-0.0231699 -0.867187 -0.497444 -0.248321 -0.968655 -0.00667941 -0.240717 -0.969555 -0.044934 
-0.187535 -0.95324 -0.236989 0.325524 0.94473 -0.0389908 0.274171 0.959824 -0.0597317 
0.221548 0.973709 -0.0529916 0.140798 0.987821 -0.0662288 0.0184926 0.9981 -0.0587822 
-0.126213 0.992002 0.0011733 -0.263064 0.956409 0.126806 -0.338103 0.89035 0.304899 
-0.359216 0.843122 0.400137 0.576287 0.800606 -0.164082 0.348721 0.935598 -0.0552235 
0.395974 0.912706 -0.100853 0.358019 0.868433 -0.342997 -0.363011 0.839845 0.403588 
-0.383369 0.793797 0.472138 -0.440985 0.768327 0.463903 0.614585 0.765003 -0.1925 
0.769021 0.560754 -0.306857 0.591218 0.727857 -0.347399 -0.454885 0.758617 0.466454 
-0.512496 0.72262 0.463863 0.819819 0.477937 -0.315393 0.775013 0.447646 -0.446059 
-0.585096 0.663262 0.466633 -0.645439 0.61546 0.452347 -0.711309 0.702415 0.0255535 
0.864147 0.244741 -0.439719 0.646641 0.169959 -0.743619 -0.718902 0.566278 0.403124 
-0.836862 0.409162 0.36366 0.862873 -0.053985 -0.502529 0.51641 -0.12858 -0.846633 
-0.865528 0.342976 0.365006 0.735808 -0.220046 -0.640442 0.584663 -0.258907 -0.768854 
-0.958909 -0.0109468 0.283503 0.551509 -0.464114 -0.693135 0.532305 -0.477803 -0.698824 
0.522487 -0.469754 -0.711575 0.340705 -0.385976 -0.857288 0.239858 -0.327341 -0.913956 
-0.93634 -0.317818 0.149196 -0.912426 -0.384971 0.138839 -0.90173 -0.404582 -0.152306 
0.495037 -0.446624 -0.745296 0.438433 -0.491273 -0.752613 0.418915 -0.434155 -0.797509 
0.271537 -0.422443 -0.86476 0.162422 -0.369812 -0.9148 0.120471 -0.344101 -0.931172 
-0.322752 -0.936339 -0.138208 -0.666258 -0.745295 0.025214 -0.562302 -0.825859 -0.0421186 
-0.497838 -0.815207 -0.295965 0.402881 -0.48349 -0.777126 0.396203 -0.49299 -0.774586 
0.393026 -0.475733 -0.786899 0.130548 -0.686797 -0.71503 0.201623 -0.4572 -0.866208 
0.024777 -0.692324 -0.721161 0.102491 -0.495676 -0.862439 0.0273839 -0.728623 -0.684367 
0.0798784 -0.519826 -0.850529 -0.0687361 -0.817831 -0.571339 0.0383661 -0.55925 -0.828111 
-0.132634 -0.873924 -0.467616 -0.0467874 -0.626577 -0.777954 -0.135962 -0.90217 -0.409394 
-0.0778627 -0.726094 -0.683172 -0.106442 -0.911842 -0.396502 -0.0737254 -0.809048 -0.583101 
-0.0535527 -0.914622 -0.400747 -0.0285372 -0.858772 -0.511563 -0.0429891 -0.93195 -0.360029 
-0.0166931 -0.888052 -0.459439 -0.0809178 -0.952175 -0.294644 -0.0669672 -0.92653 -0.370214 
-0.172213 -0.965476 -0.195446 -0.0871871 -0.970943 -0.222864 -0.0830859 -0.965528 -0.246684 
0.272198 0.882838 -0.382761 0.212536 0.907029 -0.363492 0.10744 0.922055 -0.371849 
0.0348905 0.926831 -0.373854 -0.0410404 0.939786 -0.33929 -0.123951 0.955985 -0.265949 
-0.210761 0.960951 -0.179314 -0.285333 0.953354 -0.0984941 0.45174 0.703907 -0.548129 
0.344485 0.840355 -0.41849 0.363428 0.823955 -0.434762 0.271789 0.793946 -0.543857 
0.204264 0.688621 -0.695757 0.116378 0.589863 -0.799073 -0.157612 0.736826 -0.657454 
-0.356156 0.932507 -0.0598574 -0.247599 0.869916 -0.426545 -0.385809 0.921523 -0.0441194 
-0.476866 0.877716 -0.0470481 0.50571 0.614752 -0.605257 0.580424 0.401772 -0.708299 
0.442593 0.55727 -0.70254 0.296143 0.388634 -0.872504 -0.540647 0.840725 -0.0297167 
-0.410668 0.746884 -0.522987 -0.57436 0.818231 -0.024675 -0.705905 0.705911 -0.0582067 
0.598994 0.279404 -0.750426 0.549682 0.251384 -0.796652 0.340386 0.158743 -0.926789 
-0.718952 0.692531 -0.0592357 -0.70817 0.695417 -0.122027 0.53058 0.079294 -0.843918 
0.457126 0.0225162 -0.889117 0.30015 -0.0722866 -0.951149 0.137784 -0.112565 -0.984045 
-0.842105 0.534638 -0.0708557 -0.901017 0.408831 -0.145001 0.431064 -0.12231 -0.893993 
0.358301 -0.124755 -0.925233 0.228084 -0.228433 -0.946465 0.143446 -0.222997 -0.964207 
0.100799 -0.226338 -0.968819 0.192364 -0.118692 -0.974119 -0.944247 0.264305 -0.196318 
-0.88764 0.248384 -0.387815 0.416084 -0.253308 -0.873332 0.36398 -0.302043 -0.881072 
0.383246 -0.26591 -0.884542 0.232689 -0.323571 -0.917146 0.193285 -0.286988 -0.938232 
0.142532 -0.289981 -0.946359 0.178871 -0.280204 -0.943128 0.270724 -0.218203 -0.937601 
0.0334684 -0.148005 -0.98842 -0.0772418 -0.274964 -0.958347 -0.967663 -0.125147 -0.219014 
-0.829633 -0.408177 -0.38092 -0.812408 -0.18268 -0.553734 0.22742 -0.324101 -0.91828 
0.159446 -0.342559 -0.925867 0.157358 -0.311843 -0.937012 0.121456 -0.339389 -0.932772 
0.144542 -0.309521 -0.939843 0.218489 -0.388382 -0.895222 0.0805381 -0.465003 -0.881638 
-0.00595012 -0.407332 -0.913261 -0.00542706 -0.5106 -0.859801 0.024138 -0.306712 -0.951496 
0.15135 -0.326132 -0.93313 -0.790081 -0.459695 -0.405527 -0.48355 -0.79011 -0.376703 
-0.435028 -0.419697 -0.79662 0.115299 -0.357109 -0.926919 0.0981693 -0.407031 -0.908124 
0.104813 -0.394872 -0.912738 0.0537598 -0.469179 -0.881465 0.051315 -0.451405 -0.890843 
-0.00809658 -0.45334 -0.891301 0.00415083 -0.397473 -0.917604 0.00810861 -0.506236 -0.862357 
0.0477363 -0.446569 -0.893475 0.0199499 -0.583774 -0.811671 0.0657981 -0.471475 -0.879421 
0.049742 -0.655575 -0.75349 0.09438 -0.523133 -0.847009 0.0543588 -0.745194 -0.664628 
0.105841 -0.567064 -0.816845 0.00828054 -0.785078 -0.619342 0.0531919 -0.607313 -0.79268 
-0.0524238 -0.831334 -0.553295 -0.0335268 -0.644685 -0.763713 -0.455884 -0.798617 -0.392914 
-0.279318 -0.786518 -0.550791 -0.189368 -0.698621 -0.689977 0.0550437 0.621489 -0.781487 
-0.00531782 0.650284 -0.759673 -0.0878499 0.650915 -0.754051 0.217709 0.355335 -0.909032 
0.17848 0.479845 -0.859007 0.108656 0.586774 -0.802428 0.115666 0.575853 -0.80933 
0.0574543 0.585414 -0.808696 -0.00316897 0.602818 -0.797873 -0.115924 0.660235 -0.742059 
-0.0835423 0.619818 -0.780286 -0.134274 0.643845 -0.753282 -0.155981 0.624826 -0.765024 
-0.253816 0.673279 -0.694459 0.232541 0.312342 -0.921068 0.223512 0.0709646 -0.972114 
0.204671 0.28082 -0.937683 0.131685 0.205177 -0.969826 0.0797407 0.183857 -0.979713 
0.0771393 0.145855 -0.986294 0.0198531 0.158745 -0.98712 -0.0424835 0.206441 -0.977536 
-0.0543064 0.265145 -0.962678 -0.0780125 0.379965 -0.921705 -0.34851 0.67345 -0.651925 
-0.187304 0.512799 -0.837827 -0.368591 0.665019 -0.649531 -0.478158 0.586831 -0.653448 
0.222279 0.0544361 -0.973462 0.192178 -0.00382024 -0.981353 0.21916 0.0519055 -0.974307 
0.145813 -0.00497724 -0.9893 0.107285 -0.0653106 -0.992081 0.0586874 -0.0361169 -0.997623 
0.0359323 -0.089249 -0.995361 0.0588247 -0.135652 -0.989009 0.041468 -0.0509118 -0.997842 
0.0472435 0.0180859 -0.99872 0.0270704 0.130601 -0.991065 -0.0595538 0.197636 -0.978465 
-0.179555 0.322456 -0.929399 -0.509101 0.552986 -0.659562 -0.445645 0.529171 -0.722066 
-0.593918 0.425319 -0.68291 0.128799 -0.117255 -0.984714 0.0907169 -0.182741 -0.978967 
0.0817155 -0.145676 -0.985952 0.186487 -0.121311 -0.974939 0.104405 -0.157652 -0.98196 
0.0570538 -0.063294 -0.996363 -0.0234432 -0.178661 -0.983631 0.0571624 -0.198242 -0.978485 
0.114853 -0.152621 -0.981588 0.123084 -0.0976965 -0.987576 0.116713 -0.039075 -0.992397 
0.0653228 0.0551652 -0.996338 -0.0106156 0.146205 -0.989197 -0.285533 0.215694 -0.933781 
-0.649326 0.350719 -0.674813 -0.557088 0.315797 -0.768066 0.18633 -0.116587 -0.975545 
0.0375394 -0.0666091 -0.997073 0.00428958 -0.148448 -0.988911 -0.111301 -0.151406 -0.982185 
0.0967309 -0.00880917 -0.995272 -0.0431453 -0.264143 -0.963518 0.132807 -0.191393 -0.972487 
0.163888 -0.197006 -0.966607 0.170764 -0.139686 -0.97536 0.111968 -0.100857 -0.98858 
-0.0286757 -0.0734705 -0.996885 -0.21165 -0.0416564 -0.976457 -0.615582 0.127792 -0.777642 
-0.469734 0.0874966 -0.878461 0.188787 -0.218963 -0.957296 0.0341425 -0.152741 -0.987676 
0.0625437 -0.338087 -0.939034 0.031502 -0.217215 -0.975615 0.031574 -0.146448 -0.988714 
-0.0679469 -0.252081 -0.965318 -0.0197424 -0.356079 -0.934247 0.000672248 -0.108355 -0.994112 
0.010393 -0.27304 -0.961947 0.17418 -0.284154 -0.942824 0.180438 -0.263692 -0.94758 
0.200207 -0.256103 -0.945689 0.129277 -0.2491 -0.959811 0.0368697 -0.257401 -0.965601 
-0.124681 -0.234651 -0.964051 -0.596495 -0.19113 -0.779528 -0.418101 -0.368951 -0.8301 
-0.321893 -0.179257 -0.929651 0.167246 -0.349261 -0.921979 0.166645 -0.357117 -0.919074 
0.168918 -0.35128 -0.920906 0.0940422 -0.459419 -0.883227 0.116734 -0.40411 -0.907231 
-0.0102358 -0.508553 -0.86097 0.00798752 -0.418366 -0.908244 -0.354667 -0.420273 -0.835214 
-0.132641 -0.531369 -0.836692 -0.164177 -0.446507 -0.879589 
