# vtk DataFile Version 4.2
vtk output
ASCII
DATASET POLYDATA
POINTS 556 float
-29.8395 -27.9432 -13.4887 -22.1015 -27.9432 -14.6448 -14.3634 -27.9432 -13.8443 
-6.6254 -27.9432 -14.1534 1.11263 -27.9432 -15.5453 8.85067 -27.9432 -15.8482 
16.5887 -27.9432 -15.3174 24.3267 -27.9432 -14.8598 32.0648 -27.9432 -14.1065 
-37.5775 -20.2052 -13.9074 -29.8395 -20.2052 -15.8731 -22.1015 -20.2052 -16.2053 
-14.3634 -20.2052 -15.5524 -6.6254 -20.2052 -15.955 1.11263 -20.2052 -17.6132 
8.85067 -20.2052 -17.0965 16.5887 -20.2052 -16.8077 24.3267 -20.2052 -17.1549 
32.0648 -20.2052 -17.0939 39.8028 -20.2052 -15.7948 47.5408 -20.2052 -13.124 
-45.3156 -12.4671 -13.5611 -37.5775 -12.4671 -15.9582 -29.8395 -12.4671 -16.8853 
-22.1015 -12.4671 -16.8592 -14.3634 -12.4671 -16.3612 -6.6254 -12.4671 -17.5024 
1.11263 -12.4671 -18.5505 8.85067 -12.4671 -16.8587 16.5887 -12.4671 -16.9137 
24.3267 -12.4671 -17.6255 32.0648 -12.4671 -18.4965 39.8028 -12.4671 -17.9024 
47.5408 -12.4671 -16.314 55.2789 -12.4671 -12.8828 -45.3156 -4.7291 -15.119 
-37.5775 -4.7291 -17.0155 -29.8395 -4.7291 -17.5759 -22.1015 -4.7291 -17.4221 
-14.3634 -4.7291 -17.8727 -6.6254 -4.7291 -17.9529 1.11263 -4.7291 -15.9741 
8.85067 -4.7291 -19.1134 16.5887 -4.7291 -16.1734 24.3267 -4.7291 -17.3279 
32.0648 -4.7291 -18.2299 39.8028 -4.7291 -18.6574 47.5408 -4.7291 -18.2638 
55.2789 -4.7291 -17.0124 -53.0536 3.00894 -12.8065 -45.3156 3.00894 -16.4268 
-37.5775 3.00894 -17.9216 -29.8395 3.00894 -18.1129 -22.1015 3.00894 -17.5784 
-14.3634 3.00894 -18.202 -6.6254 3.00894 -19.4921 1.11263 3.00894 -16.3222 
8.85067 3.00894 -19.7457 16.5887 3.00894 -15.4061 24.3267 3.00894 -16.8315 
32.0648 3.00894 -18.424 39.8028 3.00894 -19.0485 47.5408 3.00894 -18.8096 
55.2789 3.00894 -18.0349 63.0169 3.00894 -13.3498 -53.0536 10.747 -12.6831 
-45.3156 10.747 -16.7642 -37.5775 10.747 -18.158 -29.8395 10.747 -18.3407 
-22.1015 10.747 -17.602 -14.3634 10.747 -17.3531 -6.6254 10.747 -18.2616 
1.11263 10.747 -16.7405 8.85067 10.747 -17.0534 16.5887 10.747 -16.7329 
24.3267 10.747 -18.0149 32.0648 10.747 -18.6654 39.8028 10.747 -19.0627 
47.5408 10.747 -18.638 55.2789 10.747 -17.7972 63.0169 10.747 -12.6444 
-45.3156 18.485 -16.5978 -37.5775 18.485 -18.1195 -29.8395 18.485 -19.0681 
-22.1015 18.485 -18.6363 -14.3634 18.485 -18.2964 -6.6254 18.485 -17.6361 
1.11263 18.485 -16.8767 8.85067 18.485 -17.3545 16.5887 18.485 -17.6649 
24.3267 18.485 -18.1337 32.0648 18.485 -18.7897 39.8028 18.485 -19.3384 
47.5408 18.485 -17.2976 55.2789 18.485 -14.5646 -45.3156 26.223 -14.983 
-37.5775 26.223 -17.705 -29.8395 26.223 -18.2969 -22.1015 26.223 -19.0056 
-14.3634 26.223 -19.0149 -6.6254 26.223 -18.8248 1.11263 26.223 -18.2353 
8.85067 26.223 -17.8882 16.5887 26.223 -17.7331 24.3267 26.223 -17.2742 
32.0648 26.223 -16.4659 39.8028 26.223 -15.4284 47.5408 26.223 -12.8445 
-37.5775 33.9611 -14.8944 -29.8395 33.9611 -17.5036 -22.1015 33.9611 -18.1583 
-14.3634 33.9611 -18.3609 -6.6254 33.9611 -18.2769 1.11263 33.9611 -17.3653 
8.85067 33.9611 -16.6693 16.5887 33.9611 -15.0617 24.3267 33.9611 -13.5068 
-29.8395 41.6991 -12.5767 -22.1015 41.6991 -14.6835 -14.3634 41.6991 -15.4267 
-6.6254 41.6991 -14.6295 1.11263 41.6991 -12.6493 -37.5775 -35.6812 -6.28586 
-29.8395 -30.2014 -12.4973 -29.8395 -35.6812 -9.57402 -22.1015 -33.0495 -12.4973 
-22.1015 -35.6812 -11.0679 -14.3634 -31.7191 -12.4973 -14.3634 -35.6812 -10.5022 
-6.6254 -31.3312 -12.4973 -6.6254 -35.6812 -9.59116 1.11263 -32.7039 -12.4973 
1.11263 -35.6812 -9.47183 8.85067 -33.9441 -12.4973 8.85067 -35.6812 -10.6568 
16.5887 -33.4661 -12.4973 16.5887 -35.6812 -10.3149 24.3267 -31.6285 -12.4973 
24.3267 -35.6812 -7.21715 32.0648 -29.8944 -12.4973 -45.3156 -27.9432 -6.88788 
-34.6269 -27.9432 -12.4973 -37.5775 -25.6174 -12.4973 -37.5775 -27.9432 -11.8264 
36.4559 -27.9432 -12.4973 39.8028 -25.8561 -12.4973 39.8028 -27.9432 -10.4236 
47.5408 -21.0179 -12.4973 -53.0536 -20.2052 -6.07604 -41.6653 -20.2052 -12.4973 
-45.3156 -16.0666 -12.4973 -45.3156 -20.2052 -11.0853 48.7363 -20.2052 -12.4973 
55.2789 -13.3156 -12.4973 55.2789 -20.2052 -5.85832 -47.7909 -12.4671 -12.4973 
-53.0536 -12.4671 -9.02099 55.8112 -12.4671 -12.4973 -50.5834 -4.7291 -12.4973 
-53.0536 1.68417 -12.4973 -53.0536 -4.7291 -10.9981 62.9405 -4.7291 -12.4973 
63.0169 -4.418 -12.4973 63.0169 -4.7291 -12.4298 -53.4261 3.00894 -12.4973 
63.9523 3.00894 -12.4973 -53.2313 10.747 -12.4973 -53.0536 11.5677 -12.4973 
63.1689 10.747 -12.4973 63.0169 11.0763 -12.4973 -51.5768 18.485 -12.4973 
-53.0536 18.485 -10.7497 57.7468 18.485 -12.4973 55.2789 20.7871 -12.4973 
-48.6073 26.223 -12.4973 -53.0536 26.223 -5.04454 -45.3156 32.7903 -12.4973 
32.0648 31.6425 -12.4973 39.8028 29.5765 -12.4973 48.0548 26.223 -12.4973 
47.5408 26.5049 -12.4973 -44.3956 33.9611 -12.4973 -45.3156 33.9611 -11.2783 
-37.5775 38.4564 -12.4973 8.85067 39.3857 -12.4973 16.5887 36.8817 -12.4973 
26.7975 33.9611 -12.4973 24.3267 34.8075 -12.4973 32.0648 33.9611 -6.3135 
-30.133 41.6991 -12.4973 -29.8395 41.7869 -12.4973 -22.1015 43.8311 -12.4973 
-14.3634 44.342 -12.4973 -6.6254 43.5602 -12.4973 1.57229 41.6991 -12.4973 
1.11263 41.8202 -12.4973 -37.5775 -36.9834 -4.75925 -29.8395 -40.3915 -4.75925 
-22.1015 -41.1848 -4.75925 -14.3634 -40.1895 -4.75925 -6.6254 -39.408 -4.75925 
1.11263 -38.5309 -4.75925 8.85067 -38.7665 -4.75925 16.5887 -38.3813 -4.75925 
24.3267 -36.895 -4.75925 -39.6264 -35.6812 -4.75925 -45.3156 -30.5888 -4.75925 
28.3747 -35.6812 -4.75925 32.0648 -34.4955 -4.75925 39.8028 -31.3926 -4.75925 
-47.6142 -27.9432 -4.75925 -53.0536 -21.9858 -4.75925 45.3962 -27.9432 -4.75925 
47.5408 -26.5051 -4.75925 55.2789 -20.7165 -4.75925 -54.1882 -20.2052 -4.75925 
55.8985 -20.2052 -4.75925 -57.1465 -12.4671 -4.75925 62.5405 -12.4671 -4.75925 
63.0169 -11.7973 -4.75925 -59.0028 -4.7291 -4.75925 -60.7916 -4.7291 2.21682 
66.9868 -4.7291 -4.75925 -60.1201 3.00894 -4.75925 67.8851 3.00894 -4.75925 
-58.8695 10.747 -4.75925 66.7567 10.747 -4.75925 63.0169 18.3589 -4.75925 
-56.8283 18.485 -4.75925 62.9279 18.485 -4.75925 55.2789 24.3829 -4.75925 
-53.1532 26.223 -4.75925 -53.0536 26.3779 -4.75925 -53.0536 26.223 -4.34349 
39.8028 31.6213 -4.75925 51.9181 26.223 -4.75925 47.5408 28.3339 -4.75925 
-47.4327 33.9611 -4.75925 -45.3156 36.0068 -4.75925 -45.3156 33.9611 1.26861 
-37.5775 41.5902 -4.75925 8.85067 41.151 -4.75925 16.5887 38.5753 -4.75925 
24.3267 36.4549 -4.75925 24.3267 33.9611 0.504395 33.2726 33.9611 -4.75925 
32.0648 34.3858 -4.75925 32.0648 33.9611 -3.83647 -37.3202 41.6991 -4.75925 
-29.8395 44.5581 -4.75925 -22.1015 45.6676 -4.75925 -14.3634 46.0149 -4.75925 
-6.6254 44.9589 -4.75925 -6.6254 41.6991 2.53564 6.44918 41.6991 -4.75925 
1.11263 42.8752 -4.75925 1.11263 41.6991 -2.1861 -37.5775 -39.9616 2.97879 
-29.8395 -42.7929 2.97879 -22.1015 -43.3941 2.97879 -14.3634 -42.6882 2.97879 
-6.6254 -41.7111 2.97879 1.11263 -40.3201 2.97879 8.85067 -39.6325 2.97879 
16.5887 -38.6997 2.97879 24.3267 -36.8676 2.97879 -44.3098 -35.6812 2.97879 
-45.3156 -34.9294 2.97879 27.7524 -35.6812 2.97879 24.3267 -35.6812 6.14357 
32.0648 -34.1109 2.97879 39.8028 -30.777 2.97879 -52.1774 -27.9432 2.97879 
-53.0536 -26.7897 2.97879 44.387 -27.9432 2.97879 39.8028 -27.9432 7.83815 
47.5408 -26.0279 2.97879 55.2789 -20.2119 2.97879 -57.2825 -20.2052 2.97879 
55.2871 -20.2052 2.97879 55.2789 -20.2052 2.9918 -60.108 -12.4671 2.97879 
-60.7916 -6.21578 2.97879 62.1473 -12.4671 2.97879 63.0169 -11.089 2.97879 
-60.947 -4.7291 2.97879 -60.7916 -2.93817 2.97879 -60.7916 -4.7291 3.4962 
66.4144 -4.7291 2.97879 63.0169 -4.7291 8.80465 -60.263 3.00894 2.97879 
67.0729 3.00894 2.97879 63.0169 3.00894 9.54159 -58.571 10.747 2.97879 
65.1482 10.747 2.97879 63.0169 14.9497 2.97879 63.0169 10.747 5.99403 
-55.4349 18.485 2.97879 -53.0536 23.0001 2.97879 -53.0536 18.485 6.38558 
60.1346 18.485 2.97879 55.2789 21.8548 2.97879 55.2789 18.485 7.52362 
-51.0762 26.223 2.97879 -45.3156 33.2451 2.97879 -45.3156 26.223 9.21839 
24.3267 32.5518 2.97879 24.3267 26.223 10.0436 32.0648 30.6069 2.97879 
32.0648 26.223 8.47004 39.8028 28.8039 2.97879 39.8028 26.223 6.59034 
49.253 26.223 2.97879 47.5408 27.3176 2.97879 47.5408 26.223 4.36494 
-44.5207 33.9611 2.97879 -37.5775 38.7932 2.97879 -37.5775 33.9611 8.43401 
-29.8395 33.9611 10.5608 -6.6254 41.4649 2.97879 -6.6254 33.9611 9.60234 
1.11263 38.8428 2.97879 1.11263 33.9611 7.94154 8.85067 36.7028 2.97879 
8.85067 33.9611 6.25599 19.9185 33.9611 2.97879 16.5887 34.928 2.97879 
16.5887 33.9611 4.23173 -30.2353 41.6991 2.97879 -29.8395 41.8479 2.97879 
-29.8395 41.6991 3.17368 -22.1015 42.7569 2.97879 -22.1015 41.6991 4.38598 
-8.1154 41.6991 2.97879 -14.3634 42.5871 2.97879 -14.3634 41.6991 4.07799 
-37.5775 -37.6134 10.7168 -29.8395 -40.6323 10.7168 -22.1015 -41.6803 10.7168 
-14.3634 -41.7524 10.7168 -6.6254 -40.7192 10.7168 1.11263 -39.2321 10.7168 
8.85067 -37.9357 10.7168 16.5887 -36.3308 10.7168 -41.0282 -35.6812 10.7168 
-45.3156 -32.9388 10.7168 -37.5775 -35.6812 12.8595 -29.8395 -35.6812 15.6357 
-22.1015 -35.6812 17.5121 -14.3634 -35.6812 17.0368 -6.6254 -35.6812 16.4582 
1.11263 -35.6812 15.0504 8.85067 -35.6812 13.413 18.5781 -35.6812 10.7168 
16.5887 -35.6812 11.575 24.3267 -33.371 10.7168 32.0648 -30.0788 10.7168 
-50.5904 -27.9432 10.7168 -53.0536 -25.0357 10.7168 -45.3156 -27.9432 15.2857 
8.85067 -27.9432 17.917 16.5887 -27.9432 17.6199 24.3267 -27.9432 15.4952 
36.1756 -27.9432 10.7168 32.0648 -27.9432 12.8461 39.8028 -25.8856 10.7168 
47.5408 -21.0616 10.7168 -56.0198 -20.2052 10.7168 -53.0536 -20.2052 14.6646 
1.11263 -20.2052 18.3706 32.0648 -20.2052 17.6434 39.8028 -20.2052 15.5414 
48.7117 -20.2052 10.7168 47.5408 -20.2052 11.5295 55.2789 -14.9537 10.7168 
-58.6452 -12.4671 10.7168 -53.0536 -12.4671 15.8061 1.11263 -12.4671 17.8623 
47.5408 -12.4671 16.4969 57.2698 -12.4671 10.7168 55.2789 -12.4671 12.4688 
-57.8449 -4.7291 10.7168 -53.0536 -4.7291 15.9578 -14.3634 -4.7291 18.4216 
1.11263 -4.7291 18.2979 61.3122 -4.7291 10.7168 55.2789 -4.7291 15.3017 
[...]
POINT_DATA 556
SCALARS ImageScalars float
LOOKUP_TABLE default
0 0 0 0 0 0 0 0 0 
0 0 0 0 0 0 0 0 0 
0 0 0 0 0 0 0 0 0 
0 0 0 0 0 0 0 0 0 
0 0 0 0 0 0 0 0 0 
0 0 0 0 0 0 0 0 0 
0 0 0 0 0 0 0 0 0 
0 0 0 0 0 0 0 0 0 
0 0 0 0 0 0 0 0 0 
0 0 0 0 0 0 0 0 0 
0 0 0 0 0 0 0 0 0 
0 0 0 0 0 0 0 0 0 
0 0 0 0 0 0 0 0 0 
0 0 0 0 0 0 0 0 0 
0 0 0 0 0 0 0 0 0 
0 0 0 0 0 0 0 0 0 
0 0 0 0 0 0 0 0 0 
0 0 0 0 0 0 0 0 0 
0 0 0 0 0 0 0 0 0 
0 0 0 0 0 0 0 0 0 
0 0 0 0 0 0 0 0 0 
0 0 0 0 0 0 0 0 0 
0 0 0 0 0 0 0 0 0 
0 0 0 0 0 0 0 0 0 
0 0 0 0 0 0 0 0 0 
0 0 0 0 0 0 0 0 0 
0 0 0 0 0 0 0 0 0 
0 0 0 0 0 0 0 0 0 
0 0 0 0 0 0 0 0 0 
0 0 0 0 0 0 0 0 0 
0 0 0 0 0 0 0 0 0 
0 0 0 0 0 0 0 0 0 
0 0 0 0 0 0 0 0 0 
0 0 0 0 0 0 0 0 0 
0 0 0 0 0 0 0 0 0 
0 0 0 0 0 0 0 0 0 
0 0 0 0 0 0 0 0 0 
0 0 0 0 0 0 0 0 0 
0 0 0 0 0 0 0 0 0 
0 0 0 0 0 0 0 0 0 
0 0 0 0 0 0 0 0 0 
0 0 0 0 0 0 0 0 0 
0 0 0 0 0 0 0 0 0 
0 0 0 0 0 0 0 0 0 
0 0 0 0 0 0 0 0 0 
0 0 0 0 0 0 0 0 0 
0 0 0 0 0 0 0 0 0 
0 0 0 0 0 0 0 0 0 
0 0 0 0 0 0 0 0 0 
0 0 0 0 0 0 0 0 0 
0 0 0 0 0 0 0 0 0 
0 0 0 0 0 0 0 0 0 
0 0 0 0 0 0 0 0 0 
0 0 0 0 0 0 0 0 0 
0 0 0 0 0 0 0 0 0 
0 0 0 0 0 0 0 0 0 
0 0 0 0 0 0 0 0 0 
0 0 0 0 0 0 0 0 0 
0 0 0 0 0 0 0 0 0 
0 0 0 0 0 0 0 0 0 
0 0 0 0 0 0 0 0 0 
0 0 0 0 0 0 0 
NORMALS Normals float
0.155041 0.358084 0.920727 0.0201771 0.299696 0.953821 -0.0289507 0.27748 0.960295 
0.0999757 0.33406 0.937235 0.104786 0.396552 0.912012 -0.0145639 0.305226 0.952169 
-0.0640204 0.324174 0.943829 -0.0716086 0.433371 0.898366 -0.194815 0.572422 0.79648 
0.288696 0.232941 0.928651 0.132935 0.196828 0.971384 -0.0189072 0.136115 0.990513 
-0.0159102 0.156901 0.987486 0.130922 0.19947 0.971118 0.0702919 0.178862 0.98136 
-0.0519203 0.0648421 0.996544 0.00423132 0.0969757 0.995278 0.017866 0.170348 0.985222 
-0.0773983 0.254325 0.964017 -0.216323 0.370016 0.903489 -0.388597 0.529561 0.754028 
0.352922 0.229386 0.907099 0.20753 0.191256 0.95935 0.0547226 0.117114 0.99161 
-0.0344071 0.0776491 0.996387 0.0363274 0.146574 0.988532 0.147284 0.127024 0.980904 
-0.0458676 -0.0747075 0.99615 -0.106469 0.110357 0.988173 0.0500065 -0.039717 0.997959 
0.100394 0.0127989 0.994865 0.0157814 0.0806242 0.99662 -0.129717 0.164066 0.977883 
-0.27319 0.258571 0.926557 -0.508721 0.39664 0.76412 0.330387 0.175265 0.92743 
0.147879 0.120093 0.981687 0.0255905 0.0779903 0.996626 0.0189059 0.0461985 0.998753 
0.0346139 0.121097 0.992037 -0.108518 0.115779 0.987329 0.0678971 -0.175176 0.982193 
-0.0223186 0.18451 0.982577 -0.0973136 -0.101921 0.990021 0.133381 -0.0523168 0.989683 
0.0817605 -0.00449739 0.996642 0.00339627 0.0770522 0.997021 -0.088804 0.156449 0.983686 
-0.365387 0.25794 0.894405 0.573246 0.0905801 0.814361 0.277739 0.0995406 0.955486 
0.102237 0.0729739 0.99208 -0.0223652 0.0492951 0.998534 0.00118981 0.0115822 0.999932 
0.114274 -0.0369859 0.992761 -0.0910627 0.0152282 0.995729 -0.0295032 0.0553136 0.998033 
-0.141704 -0.162269 0.976519 -0.0830682 0.0331754 0.995991 0.195147 0.0470023 0.979647 
0.14273 0.0281671 0.989361 0.0245383 0.0260206 0.99936 -0.0557649 0.0237574 0.998161 
-0.346803 0.0402678 0.937073 -0.650847 0.0164518 0.759031 0.64907 -0.0897998 0.75541 
0.27311 0.00929451 0.961938 0.0939384 0.0123877 0.995501 -0.0359321 0.0608853 0.997498 
-0.0635976 0.0681298 0.995647 0.0416995 0.0126912 0.99905 -0.0362766 -0.105511 0.993756 
-0.0780425 0.0300214 0.996498 7.06565e-05 -0.092048 0.995755 0.0649344 0.150556 0.986467 
0.119095 0.0837237 0.989347 0.0728831 0.024731 0.997034 -0.000326815 0.0167388 0.99986 
-0.0695741 -0.105665 0.991965 -0.344038 -0.148978 0.927062 -0.689811 -0.249035 0.67981 
0.360137 -0.0802085 0.929445 0.156185 -0.0247645 0.987417 0.0405434 -0.00168675 0.999176 
-0.0491715 0.0920416 0.99454 -0.0636031 0.106493 0.992277 -0.091893 0.037135 0.995076 
-0.0190218 0.0945146 0.995342 0.0520237 0.0538751 0.997192 0.0492252 0.0602899 0.996966 
0.0706643 -0.0436032 0.996547 0.0749178 -0.133735 0.988181 -0.0998128 -0.198976 0.974908 
-0.236258 -0.272041 0.932832 -0.525031 -0.486119 0.698592 0.480568 -0.295051 0.825832 
0.167354 -0.211907 0.962854 0.0834255 -0.0928528 0.992179 0.0435913 -0.0347966 0.998443 
-0.0115335 0.00657607 0.999912 -0.0504008 0.0438912 0.997764 -0.0605921 0.0378042 0.997446 
-0.0331941 -0.0438032 0.998489 -0.0377206 -0.14956 0.988033 -0.0896791 -0.261673 0.960981 
-0.116482 -0.459147 0.880691 -0.188214 -0.608889 0.770603 -0.404486 -0.767468 0.497377 
0.316624 -0.404186 0.858128 0.224494 -0.3359 0.914753 0.046863 -0.23912 0.969858 
0.010019 -0.210567 0.977528 -0.0637597 -0.238974 0.96893 -0.112148 -0.313853 0.942825 
-0.150402 -0.413145 0.89816 -0.201067 -0.606673 0.769103 -0.272324 -0.750649 0.601969 
0.251501 -0.717547 0.649517 0.164294 -0.699025 0.695967 0.00013775 -0.646917 0.76256 
-0.155555 -0.73277 0.662458 -0.250265 -0.832735 0.493883 0.415165 0.695886 0.585988 
0.171954 0.420612 0.890796 0.218592 0.617534 0.755559 0.0467652 0.472195 0.880253 
0.050489 0.591219 0.804929 -0.0458336 0.402601 0.914228 -0.0705372 0.608831 0.790158 
0.043707 0.464154 0.884676 -0.047061 0.705386 0.70726 0.0895318 0.619423 0.779935 
0.0369107 0.80696 0.589452 0.0334847 0.650691 0.758604 0.0348037 0.796363 0.603817 
-0.0973037 0.608221 0.787781 -0.115432 0.796133 0.59401 -0.145492 0.604906 0.782893 
-0.240914 0.89613 0.372708 -0.234194 0.664289 0.70984 0.577864 0.490777 0.652082 
0.254417 0.367189 0.894675 0.314289 0.323917 0.892357 0.329097 0.374901 0.866686 
-0.304192 0.641098 0.704599 -0.346687 0.602299 0.719058 -0.40342 0.732194 0.548766 
-0.406049 0.563737 0.719253 0.691507 0.386206 0.610461 0.361505 0.279592 0.889462 
0.380679 0.272963 0.883501 0.428767 0.330587 0.840756 -0.422938 0.550507 0.719768 
-0.51877 0.415447 0.747182 -0.635725 0.738172 0.225734 0.419156 0.241266 0.875271 
0.62001 0.259165 0.740554 -0.523397 0.402545 0.751008 0.500328 0.164612 0.850044 
0.576334 0.100756 0.810979 0.604682 0.174877 0.777031 -0.640377 0.296952 0.708334 
-0.644112 0.286261 0.709348 -0.644913 0.297713 0.703885 0.588041 0.0861525 0.80423 
-0.699661 0.0143115 0.714332 0.656895 -0.0914428 0.748416 0.66143 -0.0988938 0.743458 
-0.696751 -0.249935 0.672361 -0.691731 -0.261693 0.673071 0.677524 -0.159012 0.718106 
0.783883 -0.212787 0.583309 -0.610016 -0.505444 0.610252 -0.572342 -0.577726 0.581943 
0.619508 -0.362243 0.696412 0.861719 -0.502907 0.067264 0.590152 -0.522416 0.615469 
-0.24845 -0.762428 0.597475 -0.272434 -0.797126 0.53886 -0.418262 -0.773357 0.476419 
-0.407553 -0.782255 0.471146 0.570835 -0.539855 0.61863 0.631915 -0.592297 0.499868 
0.402716 -0.648921 0.64554 -0.243693 -0.810517 0.532613 -0.270754 -0.789621 0.550627 
-0.287531 -0.795533 0.533342 -0.289597 -0.800812 0.524245 -0.313335 -0.949233 0.0278761 
0.259971 -0.721846 0.641368 0.252936 -0.721266 0.644824 0.138352 -0.829367 0.541304 
-0.0192088 -0.861462 0.507458 -0.170558 -0.846761 0.503891 -0.252573 -0.839683 0.480769 
-0.251639 -0.839245 0.482022 0.428254 0.747626 0.507596 0.219492 0.831181 0.510845 
-0.0161091 0.876702 0.480764 -0.101426 0.879876 0.464253 -0.10061 0.884261 0.456027 
-0.0348322 0.926965 0.373526 -0.0105737 0.961322 0.275224 -0.117818 0.964884 0.234772 
-0.238011 0.945334 0.222923 0.47371 0.714581 0.514754 0.60276 0.574296 0.553954 
-0.285467 0.934825 0.211214 -0.330002 0.921847 0.203216 -0.444577 0.876118 0.186464 
0.626163 0.536225 0.566024 0.709719 0.432734 0.555914 -0.527666 0.83441 0.159149 
-0.555104 0.815722 0.162655 -0.637183 0.75428 0.158302 0.735482 0.391669 0.552866 
-0.647614 0.744734 0.161144 0.789169 0.286984 0.543003 -0.80914 0.54617 0.216775 
-0.822162 0.529094 0.21002 0.875693 0.145228 0.460511 0.999797 0.0196565 -0.00437735 
-0.932294 0.304635 0.195003 0.954361 -0.0197345 0.298003 -0.983537 -0.00874686 0.180493 
0.95226 -0.194326 0.235452 -0.944063 -0.312096 0.106498 -0.781647 -0.61815 0.0831781 
0.925893 -0.342934 0.158485 -0.777131 -0.623891 0.0826248 -0.561818 -0.827235 0.00657152 
0.862191 -0.504254 0.048534 0.860552 -0.5071 0.0479512 0.861258 -0.507568 0.0246765 
-0.355072 -0.932854 -0.060894 -0.479806 -0.877308 0.0107717 -0.395611 -0.917785 0.0341089 
0.725344 -0.688384 0.00177059 0.673565 -0.739077 -0.0086881 0.640739 -0.690092 -0.336492 
0.461247 -0.885947 -0.0484576 -0.256107 -0.954418 -0.153279 -0.288599 -0.949346 -0.124307 
-0.257374 -0.960339 -0.107271 -0.256978 -0.871363 -0.417957 -0.317839 -0.943788 -0.0907885 
-0.307049 -0.94733 -0.0910339 -0.301437 -0.942239 -0.146018 0.453778 -0.889769 -0.0489617 
0.257918 -0.96588 -0.0235352 0.0873414 -0.993731 -0.0697898 -0.0364331 -0.996402 -0.0765167 
-0.20688 -0.96937 -0.132372 -0.189577 -0.828764 -0.526508 -0.241268 -0.958089 -0.154454 
-0.226762 -0.963518 -0.142166 -0.235354 -0.926835 -0.292549 0.435837 0.899697 0.0243147 
0.213037 0.976938 0.0143945 -0.00846191 0.999754 0.0205033 -0.10339 0.991095 0.0839139 
-0.156993 0.984819 0.0740615 -0.126207 0.991074 0.042947 -0.102883 0.993814 -0.0418143 
-0.17238 0.978624 -0.112166 -0.278312 0.944726 -0.173307 0.588202 0.807172 0.0499233 
0.615433 0.785922 0.0597301 -0.31025 0.931245 -0.191123 -0.301009 0.899654 -0.316252 
-0.354228 0.908796 -0.220482 -0.457559 0.849294 -0.263325 0.781453 0.613876 0.111746 
0.800591 0.589159 0.109294 -0.502366 0.831638 -0.23666 -0.425927 0.773707 -0.469003 
-0.528661 0.818798 -0.223804 -0.628959 0.745598 -0.220216 0.894662 0.435311 0.100416 
-0.62909 0.745485 -0.220223 -0.628892 0.745495 -0.220755 0.972596 0.226223 0.05367 
0.998303 0.0501834 -0.0295427 -0.813821 0.527297 -0.244239 -0.837011 0.483474 -0.256254 
0.998818 0.00910797 -0.0477492 0.995924 -0.0252902 -0.0865807 0.996909 -0.00154803 -0.0785519 
-0.91688 0.271668 -0.292451 -0.778051 0.242484 -0.579515 0.965393 -0.142164 -0.218646 
-0.944746 -0.0651278 -0.321269 -0.745151 -0.112241 -0.657383 0.913863 -0.29647 -0.277415 
-0.849943 -0.365531 -0.379452 -0.776983 -0.463615 -0.425862 -0.75142 -0.39308 -0.529958 
0.832814 -0.40415 -0.378265 0.787397 -0.473016 -0.3953 0.728533 -0.407728 -0.550453 
-0.657741 -0.610146 -0.4417 -0.480086 -0.76036 -0.437458 -0.491232 -0.63814 -0.592848 
0.747965 -0.514839 -0.418915 0.618142 -0.658888 -0.428681 0.53219 -0.420487 -0.734822 
-0.238908 -0.796766 -0.555056 -0.162556 -0.64354 -0.747952 -0.205053 -0.82264 -0.530298 
-0.149539 -0.710185 -0.68795 -0.191823 -0.853264 -0.484917 -0.186968 -0.776955 -0.601152 
-0.412602 -0.799696 -0.436172 -0.386429 -0.819199 -0.423775 -0.38188 -0.780592 -0.494818 
0.595864 -0.676134 -0.433346 0.421087 -0.770193 -0.479049 0.346964 -0.599907 -0.720921 
0.166563 -0.579406 -0.797838 -0.188019 -0.811841 -0.552777 -0.15461 -0.536874 -0.829375 
-0.237019 -0.766366 -0.59708 -0.160092 -0.63389 -0.756673 -0.204164 -0.790136 -0.577929 
-0.168446 -0.735467 -0.656289 -0.232465 -0.807166 -0.542626 -0.215239 -0.815168 -0.537748 
-0.210591 -0.79339 -0.571125 0.23609 -0.825617 -0.512463 0.224041 -0.828531 -0.513169 
0.224228 -0.822634 -0.522489 0.0436496 -0.851866 -0.521938 0.0408293 -0.813249 -0.580482 
-0.168386 -0.817774 -0.550357 -0.0788095 -0.826705 -0.557089 -0.0798762 -0.80023 -0.59435 
0.378348 0.791094 -0.480649 0.225147 0.839849 -0.493926 0.0584775 0.89306 -0.446121 
-0.0588911 0.922725 -0.380934 -0.156318 0.909123 -0.386084 -0.178648 0.887106 -0.425591 
-0.175809 0.863218 -0.473229 -0.247399 0.829292 -0.501068 0.439806 0.770563 -0.461306 
0.53963 0.722211 -0.432678 0.349492 0.72262 -0.596386 0.236847 0.613452 -0.753379 
0.0668596 0.535762 -0.841718 -0.0560138 0.524492 -0.849571 -0.11046 0.594641 -0.796367 
-0.169763 0.676161 -0.716929 -0.170097 0.744223 -0.64591 -0.267065 0.815874 -0.51286 
-0.24308 0.800726 -0.547495 -0.306576 0.760348 -0.57261 -0.351154 0.717938 -0.601045 
0.684037 0.605947 -0.406105 0.761806 0.52006 -0.386251 0.480858 0.524549 -0.702584 
-0.0663714 0.283451 -0.956687 -0.131487 0.391037 -0.910934 -0.252366 0.537571 -0.804567 
-0.369302 0.705667 -0.60469 -0.322564 0.641751 -0.695779 -0.385372 0.693021 -0.60927 
-0.459335 0.636835 -0.619235 0.832821 0.386048 -0.396706 0.691909 0.3186 -0.647886 
-0.0332628 -0.0556296 -0.997897 -0.199833 0.381846 -0.902364 -0.297555 0.498995 -0.81392 
-0.471059 0.630135 -0.617278 -0.448936 0.612046 -0.651043 -0.579182 0.512594 -0.633873 
0.879143 0.121595 -0.460784 0.601514 0.059469 -0.796646 0.0470609 -0.00592176 -0.998874 
-0.360663 0.340614 -0.868277 -0.621999 0.447616 -0.642462 -0.559964 0.425343 -0.711001 
0.799395 -0.166806 -0.577186 0.572609 -0.147106 -0.806523 0.04104 -0.114928 -0.992526 
0.0280821 -0.0961313 -0.994972 -0.700328 0.205938 -0.683469 -0.498378 0.147964 -0.85424 
0.659846 -0.235991 -0.71338 0.589876 -0.25218 -0.767106 0.292062 -0.275745 -0.915786 
0.115224 -0.218455 -0.969021 -0.0398339 -0.0419917 -0.998324 0.0763995 0.00666013 -0.997055 
-0.0546031 -0.104801 -0.992993 0.132343 -0.135389 -0.981914 -0.267645 -0.16721 -0.948898 
-0.679907 -0.120933 -0.723258 -0.464583 -0.147462 -0.873165 0.611685 -0.284091 -0.738331 
0.611573 -0.284181 -0.73839 0.611476 -0.284092 -0.738504 0.34292 -0.248815 -0.905813 
0.194903 -0.172124 -0.965601 0.107187 -0.103513 -0.988836 -0.125195 -0.274388 -0.953435 
0.0777023 -0.0835441 -0.99347 0.056513 -0.111414 -0.992166 -0.00547258 -0.15339 -0.988151 
0.0305986 -0.25996 -0.965135 -0.0340945 -0.317023 -0.947805 -0.130519 -0.364984 -0.92182 
-0.262895 -0.351267 -0.898609 -0.543704 -0.378733 -0.748964 -0.499586 -0.461307 -0.733218 
-0.477411 -0.367471 -0.798151 0.512277 -0.333999 -0.791212 0.483679 -0.355178 -0.799939 
0.454667 -0.306385 -0.836305 0.267693 -0.250698 -0.930318 0.139742 -0.178371 -0.97399 
-0.00693102 -0.196783 -0.980422 -0.164229 -0.248216 -0.954682 -0.111783 -0.221177 -0.968806 
0.0889264 -0.238084 -0.967165 0.0543793 -0.308433 -0.949691 -0.0789064 -0.330953 -0.940342 
-0.156694 -0.617312 -0.770956 -0.084901 -0.435738 -0.896061 -0.125635 -0.631376 -0.765232 
-0.092248 -0.515385 -0.851979 -0.145166 -0.646642 -0.748853 -0.127345 -0.548768 -0.826219 
-0.370464 -0.597943 -0.710788 -0.287302 -0.629207 -0.722189 -0.272692 -0.589841 -0.760083 
0.434506 -0.38994 -0.811882 0.313538 -0.473651 -0.823012 0.303937 -0.373324 -0.876499 
0.166091 -0.571454 -0.80365 0.152482 -0.357543 -0.921364 -0.0248204 -0.361607 -0.932 
-0.12492 -0.351199 -0.92793 -0.138807 -0.46652 -0.873551 -0.103948 -0.310929 -0.944732 
-0.0839401 -0.487906 -0.868851 -0.0246028 -0.386676 -0.921888 -0.0947285 -0.602224 -0.792687 
-0.0471858 -0.525437 -0.849523 -0.158761 -0.621613 -0.767067 -0.157772 -0.620218 -0.768399 
-0.149341 -0.587777 -0.79512 0.148811 -0.575914 -0.803852 0.0301023 -0.585148 -0.810368 
0.0185207 -0.551958 -0.833666 -0.12143 -0.500107 -0.857407 -0.111131 -0.505435 -0.855678 
-0.112822 -0.493493 -0.862401 0.234058 0.408245 -0.882356 0.145562 0.381755 -0.912729 
0.0506195 0.42509 -0.903734 -0.0567277 0.347214 -0.936069 -0.082207 0.304664 -0.948906 
-0.113042 0.207341 -0.971716 0.24585 0.40229 -0.881885 0.314124 0.298891 -0.901105 
0.230667 0.396986 -0.888366 0.091805 0.292517 -0.951843 0.0206309 0.198758 -0.979831 
-0.0456666 0.193223 -0.980092 -0.0720798 0.155417 -0.985216 -0.0923431 0.205961 -0.974193 
-0.0505348 -0.00538667 -0.998708 -0.107684 0.165756 -0.98027 0.0165506 0.183215 -0.982933 
-0.0703938 0.299565 -0.951475 -0.139196 0.318835 -0.937533 0.336163 0.270538 -0.902111 
0.299604 0.26731 -0.915851 0.123429 0.144476 -0.98178 0.0304735 0.0939798 -0.995108 
-0.0445553 0.0170122 -0.998862 -0.0952674 -0.00913275 -0.99541 -0.0416898 -0.0543068 -0.997654 
-0.129521 -0.0354592 -0.990942 -0.0141029 -0.0258416 -0.999567 0.0766775 0.115442 -0.99035 
0.0103955 0.187489 -0.982212 -0.149251 0.319723 -0.935682 -0.11477 0.278877 -0.953444 
-0.158347 0.305297 -0.938999 -0.210075 0.296895 -0.931516 0.406114 0.035284 -0.913141 
0.290119 -0.00367594 -0.956984 0.0807479 -0.0154959 -0.996614 -0.0519198 -0.06512 -0.996526 
-0.0848023 -0.106297 -0.990712 0.0375311 -0.115287 -0.992623 -0.0935957 -0.123947 -0.987865 
-0.0430253 0.0119414 -0.999003 -0.124372 0.0258567 -0.991899 0.0932636 0.024831 -0.995332 
0.190713 0.0903923 -0.977475 0.040663 0.0376593 -0.998463 -0.0544795 0.0925126 -0.99422 
-0.0942619 0.181778 -0.978811 -0.234267 0.274513 -0.93261 -0.197741 0.262242 -0.944525 
-0.297157 0.123672 -0.946785 0.306683 -0.188631 -0.932933 0.229734 -0.233009 -0.944949 
0.216581 -0.201496 -0.955244 0.109838 -0.216389 -0.970109 0.0646108 -0.187444 -0.980148 
-0.0629282 -0.158082 -0.985419 0.0343375 -0.116798 -0.992562 -0.0593664 -0.0753825 -0.995386 
-0.106372 -0.154535 -0.982244 0.0397335 -0.111592 -0.992959 0.0245982 -0.0835695 -0.996198 
-0.00831388 0.0254465 -0.999642 0.0356916 -0.095961 -0.994745 0.13151 -0.132821 -0.982377 
0.12189 -0.0993782 -0.987556 0.0186538 -0.141664 -0.989739 0.0348982 -0.0635839 -0.997366 
-0.0190545 0.014001 -0.99972 -0.131525 0.0520568 -0.989945 -0.301921 0.106447 -0.947372 
-0.281025 -0.0388855 -0.958912 -0.290966 0.103894 -0.951076 0.0574991 -0.18608 -0.980851 
-0.020618 -0.108712 -0.993859 0.0131667 -0.138273 -0.990307 -0.00962991 -0.146758 -0.989126 
0.046814 -0.0280412 -0.99851 0.0173136 -0.0554534 -0.998311 -0.0649307 -0.0614608 -0.995995 
-0.0959031 -0.155431 -0.983181 -0.113026 -0.219343 -0.969079 -0.109905 -0.173545 -0.978674 
0.0833197 -0.158103 -0.983901 0.0705378 -0.162215 -0.984231 0.0731927 -0.162679 -0.983961 
0.0538171 -0.229324 -0.971861 0.10082 -0.159891 -0.981973 -0.0235421 -0.289531 -0.956879 
0.0209093 -0.166785 -0.985771 -0.250605 -0.168401 -0.95333 -0.125757 -0.285257 -0.950165 
-0.110087 -0.171592 -0.978998 0.0529268 -0.0288438 -0.998182 0.0503871 -0.0309015 -0.998252 
0.0516616 -0.0271462 -0.998296 -0.0879337 -0.0813688 -0.992797 -0.0894657 -0.0787887 -0.992869 
-0.0858342 -0.0717128 -0.993725 
