# vtk DataFile Version 4.2
vtk output
ASCII
DATASET POLYDATA
POINTS 518 float
16.6319 -19.7619 -22.177 24.7927 -19.7619 -21.9316 -16.0112 -44.2442 -16.0946 
-7.85039 -44.2442 -17.3571 0.310389 -44.2442 -16.087 -32.3327 -36.0834 -14.5751 
-24.1719 -36.0834 -17.1963 -16.0112 -36.0834 -18.8088 -7.85039 -36.0834 -20.2622 
0.310389 -36.0834 -19.3618 8.47116 -36.0834 -16.5486 -40.4935 -27.9227 -15.8427 
-32.3327 -27.9227 -18.303 -24.1719 -27.9227 -19.7915 -16.0112 -27.9227 -19.8903 
-7.85039 -27.9227 -20.0363 0.310389 -27.9227 -20.2563 8.47116 -27.9227 -20.1929 
16.6319 -21.1105 -21.8659 16.6319 -27.9227 -19.9968 24.7927 -20.0282 -21.8659 
24.7927 -27.9227 -19.0586 32.9535 -27.9227 -15.6451 -48.6543 -19.7619 -14.2995 
-40.4935 -19.7619 -18.9904 -32.3327 -19.7619 -20.15 -24.1719 -19.7619 -20.3095 
-16.0112 -19.7619 -19.7486 -7.85039 -19.7619 -19.1634 0.310389 -19.7619 -19.8712 
14.1395 -19.7619 -21.8659 8.47116 -19.7619 -21.1661 16.6319 -17.8866 -21.8659 
25.521 -19.7619 -21.8659 24.7927 -19.2972 -21.8659 32.9535 -19.7619 -21.078 
41.1143 -19.7619 -16.3855 -48.6543 -11.6011 -17.0401 -40.4935 -11.6011 -19.1877 
-32.3327 -11.6011 -20.1809 -24.1719 -11.6011 -20.1164 -16.0112 -11.6011 -19.484 
-7.85039 -11.6011 -18.7333 0.310389 -11.6011 -19.6198 8.47116 -11.6011 -20.9026 
16.6319 -11.6011 -20.775 24.7927 -11.6011 -20.8233 32.9535 -11.6011 -20.5953 
41.1143 -11.6011 -18.7264 49.275 -11.6011 -13.8404 -48.6543 -3.44034 -17.6653 
-40.4935 -3.44034 -20.0625 -32.3327 -3.44034 -20.5356 -24.1719 -3.44034 -20.1568 
-16.0112 -3.44034 -20.0064 -7.85039 -3.44034 -20.4794 0.310389 -3.44034 -18.0875 
8.47116 -3.44034 -20.2805 16.6319 -3.44034 -18.6409 24.7927 -3.44034 -19.8668 
32.9535 -3.44034 -20.4243 41.1143 -3.44034 -19.5882 49.275 -3.44034 -16.4991 
-48.6543 4.72043 -18.1046 -40.4935 4.72043 -20.517 -32.3327 4.72043 -20.8799 
-24.1719 4.72043 -20.3989 -16.0112 4.72043 -20.1177 -7.85039 4.72043 -21.635 
0.310389 4.72043 -19.2659 8.47116 4.72043 -20.8248 16.6319 4.72043 -18.7289 
24.7927 4.72043 -19.6585 32.9535 4.72043 -20.2415 41.1143 4.72043 -19.7049 
49.275 4.72043 -17.0521 -48.6543 12.8812 -17.5278 -40.4935 12.8812 -20.0624 
-32.3327 12.8812 -20.8103 -24.1719 12.8812 -20.1578 -16.0112 12.8812 -19.1622 
-7.85039 12.8812 -19.3066 0.310389 12.8812 -19.0618 8.47116 12.8812 -18.9919 
16.6319 12.8812 -19.2401 24.7927 12.8812 -19.7371 32.9535 12.8812 -19.8702 
41.1143 12.8812 -18.9791 49.275 12.8812 -15.7005 -48.6543 21.042 -14.7108 
-40.4935 21.042 -18.9332 -32.3327 21.042 -21.0001 -24.1719 21.042 -20.3444 
-16.0112 21.042 -19.6229 -7.85039 21.042 -19.4103 0.310389 21.042 -19.502 
8.47116 21.042 -19.4165 16.6319 21.042 -19.794 24.7927 21.042 -19.8014 
32.9535 21.042 -19.2557 41.1143 21.042 -17.2459 -40.4935 29.2028 -17.2883 
-32.3327 29.2028 -19.3024 -24.1719 29.2028 -20.4177 -16.0112 29.2028 -20.0502 
-7.85039 29.2028 -20.4906 0.310389 29.2028 -20.6343 8.47116 29.2028 -19.958 
16.6319 29.2028 -19.3787 24.7927 29.2028 -18.7658 32.9535 29.2028 -17.4376 
-32.3327 37.3635 -17.0429 -24.1719 37.3635 -18.3225 -16.0112 37.3635 -19.0161 
-7.85039 37.3635 -19.5945 0.310389 37.3635 -19.4068 8.47116 37.3635 -18.2651 
16.6319 37.3635 -16.5844 24.7927 37.3635 -14.6538 -24.1719 45.5243 -13.7291 
-16.0112 45.5243 -15.717 -7.85039 45.5243 -15.7243 0.310389 45.5243 -15.2415 
-16.0112 -46.8778 -13.7052 -7.85039 -48.4398 -13.7052 -7.85039 -52.405 -7.74551 
0.310389 -46.7663 -13.7052 -32.3327 -37.1401 -13.7052 -20.868 -44.2442 -13.7052 
-24.1719 -41.9535 -13.7052 -24.1719 -44.2442 -10.9415 3.64422 -44.2442 -13.7052 
8.47116 -39.6118 -13.7052 8.47116 -44.2442 -6.35834 -33.8554 -36.0834 -13.7052 
-40.4935 -30.939 -13.7052 12.8582 -36.0834 -13.7052 16.6319 -34.062 -13.7052 
24.7927 -31.7365 -13.7052 32.9535 -29.3075 -13.7052 -43.4037 -27.9227 -13.7052 
-48.6543 -20.8499 -13.7052 35.4093 -27.9227 -13.7052 41.1143 -22.8814 -13.7052 
-49.4284 -19.7619 -13.7052 44.1905 -19.7619 -13.7052 49.275 -11.8564 -13.7052 
-52.798 -11.6011 -13.7052 49.4147 -11.6011 -13.7052 -53.578 -3.44034 -13.7052 
-56.815 -3.44034 -7.12432 52.7252 -3.44034 -13.7052 -53.7516 4.72043 -13.7052 
53.6137 4.72043 -13.7052 57.4358 4.72043 -7.15163 -52.693 12.8812 -13.7052 
51.8637 12.8812 -13.7052 49.275 17.715 -13.7052 -49.6428 21.042 -13.7052 
-48.6543 22.833 -13.7052 46.8946 21.042 -13.7052 41.1143 28.0724 -13.7052 
49.275 21.042 -11.3257 -44.9318 29.2028 -13.7052 -40.4935 34.8862 -13.7052 
39.9287 29.2028 -13.7052 32.9535 33.8652 -13.7052 41.1143 29.2028 -12.7025 
-37.9126 37.3635 -13.7052 -40.4935 37.3635 -8.5725 -32.3327 41.7805 -13.7052 
8.47116 44.0037 -13.7052 16.6319 40.7993 -13.7052 26.8659 37.3635 -13.7052 
24.7927 38.2648 -13.7052 32.9535 37.3635 -8.02598 -24.2317 45.5243 -13.7052 
-32.3327 45.5243 -6.42532 -24.1719 45.5505 -13.7052 -16.0112 47.5039 -13.7052 
-7.85039 47.5545 -13.7052 4.91349 45.5243 -13.7052 0.310389 46.9127 -13.7052 
8.47116 45.5243 -10.7351 -7.85039 -53.3933 -5.54438 -24.1719 -47.0997 -5.54438 
-12.1215 -52.405 -5.54438 -16.0112 -51.3796 -5.54438 -3.60341 -52.405 -5.54438 
0.310389 -51.1507 -5.54438 8.47116 -44.6032 -5.54438 -28.6053 -44.2442 -5.54438 
-32.3327 -41.636 -5.54438 8.82143 -44.2442 -5.54438 -40.407 -36.0834 -5.54438 
-40.4935 -36.0137 -5.54438 16.263 -36.0834 -5.54438 16.6319 -35.8268 -5.54438 
16.6319 -36.0834 -4.59783 24.7927 -32.629 -5.54438 32.9535 -30.408 -5.54438 
-47.5878 -27.9227 -5.54438 -48.6543 -26.524 -5.54438 38.7018 -27.9227 -5.54438 
41.1143 -26.7229 -5.54438 -52.9715 -19.7619 -5.54438 48.8597 -19.7619 -5.54438 
49.275 -19.2236 -5.54438 49.275 -19.7619 -0.914902 -56.535 -11.6011 -5.54438 
-56.815 -8.96935 -5.54438 53.9132 -11.6011 -5.54438 -57.3403 -3.44034 -5.54438 
-56.815 2.63475 -5.54438 -56.815 -3.44034 -4.06918 57.3511 -3.44034 -5.54438 
57.4358 -2.57619 -5.54438 57.4358 -3.44034 -3.59104 -56.632 4.72043 -5.54438 
58.1121 4.72043 -5.54438 57.4358 8.43239 -5.54438 -54.7181 12.8812 -5.54438 
56.5599 12.8812 -5.54438 -50.9261 21.042 -5.54438 -48.6543 26.5267 -5.54438 
-48.6543 21.042 -1.49144 52.8774 21.042 -5.54438 49.275 25.9254 -5.54438 
-47.6006 29.2028 -5.54438 46.263 29.2028 -5.54438 41.1143 33.5844 -5.54438 
-41.6582 37.3635 -5.54438 -40.4935 38.6714 -5.54438 -40.4935 37.3635 -2.66253 
16.6319 44.1996 -5.54438 24.7927 41.4351 -5.54438 34.9002 37.3635 -5.54438 
32.9535 38.3811 -5.54438 32.9535 37.3635 0.522307 -32.8789 45.5243 -5.54438 
-32.3327 45.8916 -5.54438 -32.3327 45.5243 -3.63162 -24.1719 49.3297 -5.54438 
-16.0112 50.7276 -5.54438 -7.85039 51.4908 -5.54438 0.310389 49.9789 -5.54438 
13.124 45.5243 -5.54438 8.47116 47.2537 -5.54438 8.47116 45.5243 2.43196 
-7.85039 -53.332 2.61639 -24.1719 -46.852 2.61639 -12.0271 -52.405 2.61639 
-16.0112 -51.4234 2.61639 -2.97283 -52.405 2.61639 -7.85039 -52.405 7.14612 
0.310389 -51.6406 2.61639 8.47116 -45.9409 2.61639 -27.928 -44.2442 2.61639 
-32.3327 -40.7656 2.61639 -24.1719 -44.2442 9.52897 10.2943 -44.2442 2.61639 
16.6319 -38.1008 2.61639 -37.4919 -36.0834 2.61639 -40.4935 -32.6726 2.61639 
-32.3327 -36.0834 9.15527 20.2356 -36.0834 2.61639 24.7927 -34.1258 2.61639 
24.7927 -36.0834 8.75635 32.9535 -31.6285 2.61639 -44.2884 -27.9227 2.61639 
-48.6543 -21.0773 2.61639 -40.4935 -27.9227 6.46543 40.737 -27.9227 2.61639 
41.1143 -27.7232 2.61639 41.1143 -27.9227 4.43207 49.275 -20.1198 2.61639 
-49.6135 -19.7619 2.61639 -48.6543 -19.7619 3.49877 -40.4935 -19.7619 9.08138 
49.5636 -19.7619 2.61639 49.275 -19.7619 5.08515 -52.9913 -11.6011 2.61639 
-48.6543 -11.6011 6.87086 54.6457 -11.6011 2.61639 57.4358 -4.16365 2.61639 
-53.7741 -3.44034 2.61639 -48.6543 -3.44034 8.27003 57.69 -3.44034 2.61639 
57.4358 -3.44034 3.52844 -53.1083 4.72043 2.61639 -48.6543 4.72043 7.73147 
58.2564 4.72043 2.61639 57.4358 8.4797 2.61639 57.4358 4.72043 5.19461 
-50.3693 12.8812 2.61639 -48.6543 16.0053 2.61639 -48.6543 12.8812 4.13667 
56.4358 12.8812 2.61639 -46.1706 21.042 2.61639 -40.4935 21.042 8.56863 
52.4937 21.042 2.61639 49.275 25.2367 2.61639 49.275 21.042 9.02906 
-43.4242 29.2028 2.61639 -40.4935 34.4125 2.61639 -40.4935 29.2028 6.86678 
32.9535 36.9921 2.61639 45.4234 29.2028 2.61639 41.1143 32.5112 2.61639 
41.1143 29.2028 8.96008 -38.6198 37.3635 2.61639 -32.3327 44.1656 2.61639 
8.47116 45.4804 2.61639 16.6319 42.2947 2.61639 16.6319 37.3635 10.6745 
31.8527 37.3635 2.61639 24.7927 39.6263 2.61639 24.7927 37.3635 7.07667 
-29.9451 45.5243 2.61639 -24.1719 48.2412 2.61639 -24.1719 45.5243 8.20193 
-16.0112 49.7582 2.61639 -7.85039 49.9424 2.61639 -7.85039 45.5243 10.6663 
8.35255 45.5243 2.61639 0.310389 48.2427 2.61639 0.310389 45.5243 7.6238 
-16.0112 -48.6556 10.7772 -7.85039 -51.4787 10.7772 0.310389 -49.8196 10.7772 
8.47116 -45.9629 10.7772 -23.3373 -44.2442 10.7772 -24.1719 -43.5091 10.7772 
-16.0112 -44.2442 16.8259 0.310389 -44.2442 18.7444 11.1019 -44.2442 10.7772 
8.47116 -44.2442 14.1853 16.6319 -40.6964 10.7772 24.7927 -36.8267 10.7772 
-30.8905 -36.0834 10.7772 -32.3327 -33.0583 10.7772 -24.1719 -36.0834 16.379 
26.7209 -36.0834 10.7772 24.7927 -36.0834 14.7842 32.9535 -33.6013 10.7772 
41.1143 -28.6932 10.7772 -34.9191 -27.9227 10.7772 -32.3327 -27.9227 12.5254 
-24.1719 -27.9227 18.4579 41.905 -27.9227 10.7772 41.1143 -27.9227 12.3452 
-37.1338 -19.7619 10.7772 -40.4935 -13.4742 10.7772 -32.3327 -19.7619 13.0354 
-24.1719 -19.7619 17.1137 48.6256 -19.7619 10.7772 49.275 -18.6872 10.7772 
-41.4415 -11.6011 10.7772 -40.4935 -11.6011 11.273 -32.3327 -11.6011 14.0115 
-24.1719 -11.6011 15.734 53.015 -11.6011 10.7772 49.275 -11.6011 16.3305 
-45.116 -3.44034 10.7772 -40.4935 -3.44034 13.1847 -32.3327 -3.44034 16.0427 
-24.1719 -3.44034 18.1276 55.1177 -3.44034 10.7772 49.275 -3.44034 17.8385 
-44.5828 4.72043 10.7772 -40.4935 4.72043 13.4082 -32.3327 4.72043 17.5767 
55.2641 4.72043 10.7772 49.275 4.72043 17.3065 -41.0524 12.8812 10.7772 
-40.4935 14.4333 10.7772 -40.4935 12.8812 11.2162 -32.3327 12.8812 16.8732 
52.5731 12.8812 10.7772 49.275 19.2565 10.7772 49.275 12.8812 14.2066 
-38.2121 21.042 10.7772 -32.3327 21.042 15.5158 32.9535 21.042 18.5121 
[...]
POINT_DATA 518
SCALARS ImageScalars float
LOOKUP_TABLE default
0 0 0 0 0 0 0 0 0 
0 0 0 0 0 0 0 0 0 
0 0 0 0 0 0 0 0 0 
0 0 0 0 0 0 0 0 0 
0 0 0 0 0 0 0 0 0 
0 0 0 0 0 0 0 0 0 
0 0 0 0 0 0 0 0 0 
0 0 0 0 0 0 0 0 0 
0 0 0 0 0 0 0 0 0 
0 0 0 0 0 0 0 0 0 
0 0 0 0 0 0 0 0 0 
0 0 0 0 0 0 0 0 0 
0 0 0 0 0 0 0 0 0 
0 0 0 0 0 0 0 0 0 
0 0 0 0 0 0 0 0 0 
0 0 0 0 0 0 0 0 0 
0 0 0 0 0 0 0 0 0 
0 0 0 0 0 0 0 0 0 
0 0 0 0 0 0 0 0 0 
0 0 0 0 0 0 0 0 0 
0 0 0 0 0 0 0 0 0 
0 0 0 0 0 0 0 0 0 
0 0 0 0 0 0 0 0 0 
0 0 0 0 0 0 0 0 0 
0 0 0 0 0 0 0 0 0 
0 0 0 0 0 0 0 0 0 
0 0 0 0 0 0 0 0 0 
0 0 0 0 0 0 0 0 0 
0 0 0 0 0 0 0 0 0 
0 0 0 0 0 0 0 0 0 
0 0 0 0 0 0 0 0 0 
0 0 0 0 0 0 0 0 0 
0 0 0 0 0 0 0 0 0 
0 0 0 0 0 0 0 0 0 
0 0 0 0 0 0 0 0 0 
0 0 0 0 0 0 0 0 0 
0 0 0 0 0 0 0 0 0 
0 0 0 0 0 0 0 0 0 
0 0 0 0 0 0 0 0 0 
0 0 0 0 0 0 0 0 0 
0 0 0 0 0 0 0 0 0 
0 0 0 0 0 0 0 0 0 
0 0 0 0 0 0 0 0 0 
0 0 0 0 0 0 0 0 0 
0 0 0 0 0 0 0 0 0 
0 0 0 0 0 0 0 0 0 
0 0 0 0 0 0 0 0 0 
0 0 0 0 0 0 0 0 0 
0 0 0 0 0 0 0 0 0 
0 0 0 0 0 0 0 0 0 
0 0 0 0 0 0 0 0 0 
0 0 0 0 0 0 0 0 0 
0 0 0 0 0 0 0 0 0 
0 0 0 0 0 0 0 0 0 
0 0 0 0 0 0 0 0 0 
0 0 0 0 0 0 0 0 0 
0 0 0 0 0 0 0 0 0 
0 0 0 0 0 
NORMALS Normals float
0.0486179 0.0302645 0.998359 -0.0609166 0.0523231 0.996771 0.274186 0.529369 0.802864 
0.000897315 0.515263 0.857032 -0.338908 0.599882 0.724764 0.395407 0.590895 0.703204 
0.230555 0.394736 0.889398 0.179867 0.201546 0.962822 0.0273216 0.124177 0.991884 
-0.174288 0.209987 0.962044 -0.43697 0.554792 0.708 0.463084 0.455624 0.760236 
0.214856 0.295973 0.930719 0.100891 0.186514 0.977258 0.0147058 0.0535939 0.998455 
0.0231737 -0.068649 0.997372 0.00969086 0.032041 0.99944 -0.0144879 0.226326 0.973944 
0.0381888 0.0995403 0.9943 -0.0557275 0.51277 0.856716 -0.0646273 0.0680922 0.995584 
-0.211391 0.633991 0.743888 -0.412539 0.754858 0.509903 0.588831 0.407221 0.698176 
0.326994 0.184926 0.926756 0.069838 0.119491 0.990376 -0.0252799 0.0180002 0.999518 
-0.0697128 -0.0247353 0.99726 0.0073359 -0.0798481 0.99678 0.123619 -0.0388371 0.991569 
0.0765353 0.0355621 0.996432 0.137879 0.0418985 0.989563 0.0355556 -0.0255747 0.99904 
-0.0780848 0.0653437 0.994803 -0.0577988 0.0419418 0.997447 -0.265027 0.208152 0.941506 
-0.564032 0.435796 0.701392 0.467283 0.197486 0.861769 0.190504 0.0626611 0.979685 
0.0540824 0.0234997 0.99826 -0.0425906 -0.00925685 0.99905 -0.0844865 0.0156788 0.996301 
0.00653114 0.0706529 0.99748 0.133924 -0.104497 0.985467 0.0690577 -0.0528497 0.996212 
-0.00479115 -0.215713 0.976445 -0.0108467 -0.122672 0.992388 -0.122179 -0.0348391 0.991896 
-0.35227 0.159886 0.92214 -0.668666 0.355048 0.653319 0.453618 0.065757 0.888767 
0.154906 0.0799201 0.984691 0.00448985 0.0427833 0.999074 -0.0323425 0.0173029 0.999327 
0.017458 0.0398218 0.999054 -0.113081 0.183596 0.976476 -0.00478604 -0.0253431 0.999667 
0.0256016 -0.00553047 0.999657 -0.0209864 -0.118286 0.992758 0.109199 -0.071345 0.991456 
-0.015571 -0.0214532 0.999649 -0.219307 0.0567469 0.974004 -0.531621 0.163284 0.831094 
0.482493 -0.00983992 0.875844 0.145887 0.000383299 0.989301 -0.00837014 0.0168213 0.999823 
-0.0467748 7.45136e-05 0.998905 0.073051 -0.0531082 0.995913 -0.0431049 -0.0746987 0.996274 
-0.0485233 0.057424 0.99717 -0.0407864 -0.0824886 0.995757 -0.0672395 0.0370252 0.99705 
0.092453 -0.00788589 0.995686 0.0038574 -0.0339273 0.999417 -0.185345 -0.0394602 0.981881 
-0.490002 -0.0464386 0.870484 0.567451 -0.193819 0.800271 0.191773 -0.100974 0.976231 
0.00323678 0.00678288 0.999972 -0.100382 -0.00333895 0.994943 -0.0524393 -0.0300923 0.998171 
-0.00638163 -0.134097 0.990948 -0.0188659 0.0155275 0.999701 0.0109236 -0.08192 0.996579 
0.0455006 0.0650402 0.996845 0.0385791 0.00870669 0.999218 -0.047902 -0.0577586 0.997181 
-0.229165 -0.129613 0.96472 -0.542138 -0.253541 0.801127 0.726714 -0.400846 0.557861 
0.336903 -0.166232 0.926749 0.0883439 -0.103826 0.990664 -0.0820512 0.0156675 0.996505 
-0.0566458 0.054067 0.996929 -0.00762873 0.0738762 0.997238 0.000210674 0.0946441 0.995511 
0.0181624 0.0594625 0.998065 0.023548 0.00889588 0.999683 -0.0310914 -0.0544196 0.998034 
-0.14288 -0.127096 0.981546 -0.366804 -0.318514 0.874073 0.456036 -0.39205 0.798955 
0.1743 -0.221871 0.959371 0.0524097 -0.128949 0.990265 0.00528433 -0.0339782 0.999409 
0.035749 0.0134682 0.99927 -0.0326463 0.000854887 0.999467 -0.0765769 -0.0603204 0.995237 
-0.0692462 -0.175224 0.98209 -0.105498 -0.272589 0.956329 -0.307155 -0.427459 0.850256 
0.34071 -0.446578 0.827336 0.111622 -0.346216 0.931491 0.0774859 -0.236906 0.968438 
0.0241321 -0.249877 0.967977 -0.0743418 -0.278784 0.957472 -0.166531 -0.383758 0.908294 
-0.199412 -0.53999 0.817708 -0.304025 -0.686096 0.66094 0.278807 -0.691521 0.666383 
0.110472 -0.644172 0.756861 -0.0254846 -0.642368 0.765972 -0.158563 -0.704305 0.691962 
0.286625 0.684729 0.670069 -0.0068147 0.697084 0.716957 -0.00323704 0.94271 0.333598 
-0.363415 0.708857 0.604526 0.424264 0.628389 0.652018 0.37423 0.634905 0.675905 
0.384461 0.600006 0.701557 0.466056 0.733696 0.49445 -0.486814 0.655736 0.577081 
-0.570067 0.626626 0.531379 -0.699486 0.660848 0.272026 0.438202 0.627408 0.64369 
0.53201 0.568695 0.627337 -0.443514 0.760274 0.474636 -0.342006 0.831026 0.438666 
-0.279801 0.885949 0.369872 -0.406669 0.823788 0.39496 0.590622 0.511115 0.624442 
0.611564 0.43966 0.657791 -0.474468 0.774659 0.418071 -0.59801 0.591284 0.541079 
0.620284 0.419452 0.662803 -0.6353 0.510495 0.579473 -0.671938 0.361715 0.646268 
0.736276 0.193731 0.648356 -0.673516 0.356777 0.647369 0.760137 0.0517544 0.647698 
0.996884 0.0156527 0.0773168 -0.689593 0.198017 0.696599 0.809988 -0.0562521 0.583743 
-0.709512 -0.0373911 0.703701 -0.955514 -0.042567 0.291857 0.824317 -0.22431 0.519794 
-0.660682 -0.263869 0.70276 -0.603023 -0.348264 0.717688 0.769933 -0.416799 0.4832 
0.765 -0.43445 0.475423 -0.557732 -0.39664 0.729117 -0.465055 -0.539626 0.701803 
-0.689251 -0.454836 0.563966 0.720324 -0.466697 0.513154 0.606422 -0.555664 0.568762 
-0.457114 -0.557822 0.692735 -0.394556 -0.634376 0.664751 -0.498087 -0.598139 0.627805 
0.545238 -0.587973 0.597498 0.736054 -0.647075 0.198793 0.415108 -0.662707 0.623301 
-0.288391 -0.739551 0.608191 -0.269602 -0.72025 0.639183 -0.342179 -0.711579 0.613653 
-0.31462 -0.730875 0.60567 -0.429536 -0.865396 0.258048 0.280303 -0.692515 0.664721 
0.49988 -0.854722 0.139894 0.278953 -0.692544 0.665258 0.101037 -0.756849 0.645733 
-0.0359062 -0.752598 0.6575 -0.24839 -0.770413 0.587167 -0.174036 -0.775099 0.607399 
-0.328681 -0.869688 0.368255 -0.00181685 0.977273 0.211979 0.500022 0.845592 0.186953 
0.182385 0.961294 0.206517 0.348452 0.916001 0.198805 -0.243252 0.943671 0.224305 
-0.465898 0.856611 0.221714 -0.70464 0.665642 0.24577 0.543786 0.821449 0.171807 
0.571906 0.806827 0.148169 -0.706853 0.66296 0.246664 0.646167 0.760096 0.0687268 
0.647864 0.758752 0.0675883 -0.5305 0.819971 0.214982 -0.516058 0.829904 0.212 
-0.519875 0.826297 0.21671 -0.270734 0.952552 0.139096 -0.335711 0.93226 0.134867 
0.780576 0.624966 0.0109092 0.801779 0.597607 0.003975 -0.46801 0.867543 0.168334 
-0.530217 0.823446 0.202007 0.890699 0.454511 0.00864427 -0.738744 0.637054 0.220045 
-0.750039 0.623069 0.221873 -0.775172 0.625937 0.0855128 0.965541 0.260242 -0.00226517 
0.984302 0.176387 -0.00603946 -0.871491 0.424297 0.245918 0.99991 0.00685058 -0.0115117 
0.993051 -0.103415 -0.0561762 0.994567 0.00233757 -0.104072 -0.947493 0.232381 0.219675 
-0.954134 0.204122 0.219005 -0.963684 0.227754 0.13943 0.987155 -0.143749 -0.0697273 
-0.975713 -0.0437156 0.214648 -0.967694 -0.150614 0.202198 0.944383 -0.320521 -0.073528 
-0.939602 -0.282026 0.193929 0.906176 -0.396923 -0.145936 0.894596 -0.421785 -0.147633 
0.831958 -0.399654 -0.384866 -0.834205 -0.511851 0.205211 -0.758211 -0.629658 0.169257 
0.884611 -0.449542 -0.124 -0.684484 -0.713062 0.151739 -0.576505 -0.803882 0.146339 
0.775517 -0.631297 -0.0061813 0.750665 -0.660679 -0.00219004 0.773322 -0.614864 -0.154644 
-0.336649 -0.940415 0.0478212 -0.335116 -0.940488 0.0563936 -0.450911 -0.885776 0.109909 
-0.419518 -0.90164 0.105114 -0.396977 -0.897804 -0.190677 0.512782 -0.853341 0.0941458 
0.500397 -0.860552 0.0951475 0.515052 -0.857156 0.00243506 0.272226 -0.955854 0.110614 
0.123716 -0.986434 0.107896 -0.0457172 -0.993282 0.106309 -0.245399 -0.967286 0.064316 
-0.335133 -0.941204 0.0426786 -0.334317 -0.941192 0.0488804 -0.33727 -0.886222 -0.317585 
0.0153151 0.9945 -0.10361 0.533799 0.829653 -0.16351 0.18984 0.974408 -0.120375 
0.35736 0.924171 -0.134916 -0.234674 0.967092 -0.0982932 0.0318797 0.961219 -0.273939 
-0.405472 0.910512 -0.0809979 -0.653201 0.754093 0.068352 0.581028 0.790616 -0.193217 
0.639178 0.72177 -0.265516 0.570568 0.70655 -0.418616 -0.667586 0.737158 0.104531 
-0.542205 0.803587 0.245482 0.674767 0.641343 -0.365197 0.686547 0.570944 -0.450195 
0.662615 0.483699 -0.571818 -0.441692 0.858961 0.259026 -0.335301 0.907623 0.252573 
-0.363122 0.922981 0.127469 -0.361083 0.915509 0.177377 0.69617 0.501419 -0.513738 
0.672163 0.460201 -0.58001 0.650178 0.393985 -0.64965 -0.519171 0.848841 0.0996463 
-0.529486 0.843004 0.0948076 -0.559668 0.82757 0.0435871 -0.785572 0.618657 -0.0118712 
0.689864 0.434413 -0.579114 0.653582 0.434533 -0.619687 0.47859 0.24798 -0.842293 
-0.791558 0.61092 -0.014563 -0.797763 0.596991 -0.0847075 0.809988 0.188755 -0.55524 
0.585825 0.217325 -0.780756 -0.903935 0.424662 -0.0506323 -0.969016 0.221038 -0.110227 
0.807843 0.00386099 -0.589385 0.645699 0.0471749 -0.762133 -0.972324 0.20363 -0.114543 
-0.968734 0.198569 -0.148744 0.81076 -0.141718 -0.567965 0.670831 -0.1774 -0.72008 
-0.986865 -0.0715086 -0.144856 -0.970934 -0.175348 -0.162913 -0.965009 -0.0853272 -0.247945 
0.716409 -0.343723 -0.607134 0.699715 -0.377124 -0.606776 0.673853 -0.352819 -0.649185 
-0.934044 -0.30389 -0.187652 0.72099 -0.344193 -0.601418 0.69013 -0.194285 -0.697118 
-0.816253 -0.53776 -0.211055 -0.743428 -0.63411 -0.212649 -0.703151 -0.514323 -0.490969 
0.803724 -0.327544 -0.496733 0.762593 -0.466732 -0.447898 0.740095 -0.30033 -0.601716 
-0.381568 -0.876507 -0.293499 -0.637238 -0.73649 -0.226958 -0.537914 -0.807009 -0.243691 
-0.5001 -0.702775 -0.505972 0.727616 -0.544925 -0.416691 0.551735 -0.763856 -0.334831 
-0.336579 -0.88327 -0.326417 -0.314195 -0.885809 -0.341502 -0.235113 -0.731174 -0.640396 
-0.369323 -0.880593 -0.296912 -0.293956 -0.89795 -0.327531 -0.260237 -0.843393 -0.470069 
0.464091 -0.829395 -0.311006 0.29251 -0.91426 -0.280298 0.31207 -0.817261 -0.484455 
0.0964833 -0.957848 -0.270587 -0.0888443 -0.942464 -0.322287 -0.109693 -0.781417 -0.614293 
-0.335575 -0.883698 -0.326293 -0.250874 -0.90708 -0.338037 -0.239145 -0.821707 -0.517308 
0.381802 0.821002 -0.42448 0.0505823 0.903272 -0.426076 -0.27606 0.895813 -0.348296 
-0.494117 0.845254 -0.203453 0.553475 0.691569 -0.46411 0.577698 0.659747 -0.480624 
0.365395 0.629025 -0.686159 -0.158355 0.645478 -0.747182 -0.506412 0.850424 -0.142569 
-0.435731 0.81189 -0.388552 -0.496359 0.868096 -0.00599094 -0.369426 0.926041 0.0772853 
0.648573 0.428312 -0.629208 0.622361 0.345795 -0.702206 0.579094 0.334025 -0.743692 
-0.374037 0.92518 0.0643231 -0.380262 0.908285 -0.17441 -0.431628 0.901497 -0.03163 
-0.652086 0.745823 -0.136131 0.565032 0.220587 -0.795034 0.555843 0.158089 -0.816117 
0.544851 0.0163816 -0.838373 -0.669616 0.727881 -0.147662 -0.660321 0.715537 -0.227999 
0.449748 0.176259 -0.875591 0.409733 0.227307 -0.883431 0.434465 0.0859904 -0.896574 
0.457295 -0.134805 -0.879039 -0.796302 0.548986 -0.254003 -0.809434 0.522052 -0.268848 
0.403174 0.225617 -0.886875 0.39303 0.223843 -0.891864 0.240905 0.168011 -0.955896 
0.312848 0.0415791 -0.948893 -0.874731 0.322543 -0.36168 -0.73488 0.241648 -0.633686 
0.525706 0.083839 -0.846525 0.406281 0.114004 -0.906608 0.269633 0.208564 -0.940106 
0.274856 0.289959 -0.916721 -0.876969 0.128216 -0.463126 -0.62682 0.0338621 -0.778428 
0.574869 -0.148666 -0.804627 0.50862 -0.0937349 -0.855874 0.396161 0.0510878 -0.916759 
-0.849602 -0.123106 -0.512856 -0.579 -0.168763 -0.79767 0.600265 -0.235174 -0.764445 
0.614743 -0.221654 -0.756941 0.598143 -0.227243 -0.768496 0.473101 -0.107927 -0.874372 
-0.746887 -0.331956 -0.576164 -0.674648 -0.459629 -0.577573 -0.62623 -0.333484 -0.704716 
0.663569 -0.172077 -0.728056 0.577844 -0.138066 -0.804385 -0.201056 -0.350818 -0.914605 
-0.643214 -0.495098 -0.584084 -0.477391 -0.643194 -0.598665 -0.409366 -0.435663 -0.801634 
0.665372 -0.240935 -0.706562 0.607443 -0.201486 -0.768385 -0.105773 -0.341576 -0.933883 
-0.233179 -0.727608 -0.645147 -0.0889395 -0.443693 -0.891755 -0.222495 -0.751436 -0.62116 
-0.162616 -0.544592 -0.822785 -0.436128 -0.672368 -0.598092 -0.31938 -0.720413 -0.615631 
-0.2915 -0.621563 -0.727109 0.614821 -0.443817 -0.651937 0.607135 -0.456092 -0.650667 
0.607902 -0.44168 -0.659829 0.319784 -0.731808 -0.601827 0.315489 -0.477824 -0.819848 
0.0522212 -0.434776 -0.899023 -0.110042 -0.777173 -0.619591 -0.120525 -0.464245 -0.877468 
-0.225588 -0.718623 -0.657793 -0.194739 -0.509013 -0.83844 -0.234922 -0.726999 -0.645201 
-0.2756 -0.697958 -0.660983 -0.241811 -0.594343 -0.766996 0.0975449 -0.811665 -0.575921 
-0.0622045 -0.791151 -0.60845 0.069443 -0.816194 -0.57359 0.0687375 -0.810864 -0.581184 
0.071173 0.609037 -0.789942 0.145202 0.59372 -0.791462 0.355254 0.46929 -0.808431 
-0.1047 0.631648 -0.768153 0.0741021 0.58647 -0.806574 -0.152478 0.629625 -0.76179 
-0.257229 0.633786 -0.729485 -0.276223 0.721987 -0.634378 0.461479 0.295197 -0.836598 
0.325451 0.265275 -0.907585 0.102801 0.274573 -0.956055 -0.0510574 0.283233 -0.957691 
-0.153578 0.433342 -0.888048 -0.324436 0.772898 -0.545317 -0.219047 0.646397 -0.730883 
-0.351016 0.772097 -0.529768 -0.453518 0.655555 -0.603796 0.524547 0.0120215 -0.851296 
0.332484 0.018792 -0.942922 0.102284 0.0500406 -0.993496 0.000176942 0.0651965 -0.997872 
-0.00681236 0.135673 -0.99073 -0.0516171 0.259816 -0.964278 -0.158191 0.351379 -0.922772 
-0.51442 0.586866 -0.625268 -0.424385 0.552315 -0.717527 -0.567181 0.428253 -0.703496 
0.440303 -0.156358 -0.88413 0.385921 -0.146061 -0.910896 0.152752 -0.0484198 -0.987078 
0.0379524 0.0154781 -0.99916 0.0490301 0.0389779 -0.998036 0.0217934 0.0499142 -0.998516 
-0.0668606 0.0657716 -0.995592 -0.247815 0.161853 -0.955192 -0.584924 0.368751 -0.722417 
-0.518313 0.334949 -0.786868 0.449942 -0.0366529 -0.892305 0.465145 -0.0525999 -0.88367 
0.262122 -0.00878517 -0.964995 0.0871646 -0.0413047 -0.995337 0.0289559 0.0115588 -0.999514 
-0.0172499 -0.0723665 -0.997229 -0.0364121 -0.0636105 -0.99731 -0.131985 -0.0145955 -0.991144 
-0.592053 0.163053 -0.789232 -0.407854 0.0957553 -0.908012 0.303502 0.250484 -0.919317 
0.269798 0.231969 -0.934559 0.356586 0.132321 -0.924845 0.128176 -0.0743423 -0.988961 
0.0592014 -0.0527264 -0.996853 0.0173719 -0.0686805 -0.997487 -0.0533423 -0.165504 -0.984765 
-0.0115526 -0.147459 -0.989001 -0.0908877 -0.0974529 -0.991081 -0.546171 0.00945225 -0.83762 
-0.308723 -0.0535577 -0.949643 0.326362 0.0800205 -0.941852 0.240962 0.101622 -0.9652 
0.110329 -0.00795618 -0.993863 0.104307 -0.177146 -0.978642 0.0951138 -0.0156541 -0.995343 
-0.0865371 -0.117174 -0.989334 -0.0937619 -0.16117 -0.982463 0.0345082 -0.160691 -0.986401 
-0.0558505 -0.172972 -0.983342 -0.452279 -0.17749 -0.874038 -0.290647 -0.184939 -0.938787 
0.314953 -0.0575341 -0.947362 0.222122 -0.0304189 -0.974544 0.0444602 -0.0334814 -0.99845 
0.130595 -0.0869097 -0.987619 0.119501 -0.183989 -0.975637 -0.129574 -0.232831 -0.963847 
-0.090059 -0.140482 -0.985979 -0.0230032 -0.162633 -0.986418 -0.183346 -0.324324 -0.928008 
-0.119426 -0.233998 -0.964874 -0.3235 -0.287482 -0.9015 -0.321741 -0.288522 -0.901797 
-0.320838 -0.28717 -0.90255 0.365608 -0.0643325 -0.928543 0.294926 -0.0453199 -0.954445 
0.050305 -0.0244798 -0.998434 -0.0423049 -0.0344164 -0.998512 -0.0481308 -0.24729 -0.967745 
-0.0722342 -0.304246 -0.949851 -0.0484968 -0.286656 -0.956805 -0.0447201 -0.28825 -0.95651 
-0.0288178 -0.228083 -0.973215 -0.142917 -0.318865 -0.936963 -0.0811034 -0.319627 -0.944066 
-0.066895 -0.279698 -0.957755 0.330423 -0.186347 -0.925254 0.307003 -0.220332 -0.925853 
0.306865 -0.185881 -0.933425 0.049556 -0.329452 -0.942871 0.0573749 -0.194394 -0.979244 
-0.104619 -0.313958 -0.943655 -0.0959197 -0.19959 -0.975173 -0.146432 -0.267801 -0.952282 
-0.147232 -0.268119 -0.952069 -0.147031 -0.266876 -0.952449 
