# vtk DataFile Version 4.2
vtk output
ASCII
DATASET POLYDATA
POINTS 540 float
-9.12024 -49.2295 -11.334 -25.0677 -41.2558 -11.4378 -17.094 -41.2558 -12.9771 
-9.12024 -41.2558 -13.148 -1.1465 -41.2558 -13.2656 6.82723 -41.2558 -13.1268 
14.801 -41.2558 -12.1915 -33.0414 -33.282 -12.4487 -25.0677 -33.282 -13.4431 
-17.094 -33.282 -13.9571 -9.12024 -33.282 -14.1049 -1.1465 -33.282 -14.2614 
6.82723 -33.282 -14.4818 14.801 -33.282 -13.9561 22.7747 -33.282 -12.8907 
-41.0152 -25.3083 -11.5127 -33.0414 -25.3083 -13.5591 -25.0677 -25.3083 -14.7196 
-17.094 -25.3083 -14.1922 -9.12024 -25.3083 -13.7404 -1.1465 -25.3083 -13.7472 
6.82723 -25.3083 -14.2308 14.801 -25.3083 -14.0243 22.7747 -25.3083 -13.145 
30.7484 -25.3083 -11.9902 -41.0152 -17.3346 -13.6332 -33.0414 -17.3346 -14.3947 
-25.0677 -17.3346 -14.3703 -17.094 -17.3346 -13.6157 -9.12024 -17.3346 -12.8569 
-1.1465 -17.3346 -12.148 6.82723 -17.3346 -12.7155 14.801 -17.3346 -13.2666 
22.7747 -17.3346 -13.4615 30.7484 -17.3346 -13.34 38.7222 -17.3346 -13.0772 
-41.0152 -9.36084 -13.4123 -33.0414 -9.36084 -15.0083 -25.0677 -9.36084 -14.2906 
-17.094 -9.36084 -12.9323 -1.1465 -9.36084 -14.8714 6.82723 -9.36084 -12.9717 
14.801 -9.36084 -14.8202 22.7747 -9.36084 -14.4839 30.7484 -9.36084 -15.027 
38.7222 -9.36084 -14.9506 46.6959 -9.36084 -14.3575 54.6696 -9.36084 -12.3534 
-41.0152 -1.3871 -13.4345 -33.0414 -1.3871 -14.3523 -25.0677 -1.3871 -13.7455 
-17.094 -1.3871 -12.1167 -9.12024 -1.3871 -12.6349 -1.1465 -1.3871 -11.5879 
6.82723 -1.3871 -16.162 14.801 -1.3871 -17.2778 22.7747 -1.3871 -15.4214 
30.7484 -1.3871 -16.0534 38.7222 -1.3871 -16.4438 46.6959 -1.3871 -15.218 
54.6696 -1.3871 -12.8326 -41.0152 6.58663 -13.7696 -33.0414 6.58663 -14.6343 
-25.0677 6.58663 -13.874 -17.094 6.58663 -12.4783 -9.12024 6.58663 -14.9044 
-1.1465 6.58663 -15.9948 6.82723 6.58663 -19.1059 14.801 6.58663 -16.8417 
22.7747 6.58663 -15.7064 30.7484 6.58663 -16.4888 38.7222 6.58663 -17.3138 
46.6959 6.58663 -15.6747 54.6696 6.58663 -14.1545 -41.0152 14.5604 -13.2431 
-33.0414 14.5604 -14.4391 -25.0677 14.5604 -14.9065 -17.094 14.5604 -15.1318 
-9.12024 14.5604 -15.0449 -1.1465 14.5604 -15.0034 6.82723 14.5604 -16.7993 
14.801 14.5604 -16.5089 22.7747 14.5604 -16.5274 30.7484 14.5604 -16.7509 
38.7222 14.5604 -17.182 46.6959 14.5604 -15.8828 54.6696 14.5604 -11.8328 
-41.0152 22.5341 -11.9692 -33.0414 22.5341 -14.9237 -25.0677 22.5341 -16.3482 
-17.094 22.5341 -17.1666 -9.12024 22.5341 -17.1361 -1.1465 22.5341 -15.6085 
6.82723 22.5341 -16.0366 14.801 22.5341 -16.4239 22.7747 22.5341 -17.1852 
30.7484 22.5341 -16.6843 38.7222 22.5341 -15.9422 46.6959 22.5341 -14.2444 
-33.0414 30.5078 -15.0883 -25.0677 30.5078 -17.3681 -17.094 30.5078 -18.317 
-9.12024 30.5078 -17.6767 -1.1465 30.5078 -16.8703 6.82723 30.5078 -16.7462 
14.801 30.5078 -16.1805 22.7747 30.5078 -16.2119 30.7484 30.5078 -15.4208 
38.7222 30.5078 -14.65 46.6959 30.5078 -11.5935 -33.0414 38.4816 -13.968 
-25.0677 38.4816 -16.2949 -17.094 38.4816 -18.429 -9.12024 38.4816 -17.4019 
-1.1465 38.4816 -16.9314 6.82723 38.4816 -16.7127 14.801 38.4816 -15.0298 
22.7747 38.4816 -14.1382 30.7484 38.4816 -12.1059 -25.0677 46.4553 -13.3335 
-17.094 46.4553 -15.1502 -9.12024 46.4553 -15.4047 -1.1465 46.4553 -14.5531 
6.82723 46.4553 -12.9924 -9.12024 -49.3891 -11.2231 -25.0677 -41.7553 -11.2231 
-25.0677 -49.2295 -7.27233 -10.0447 -49.2295 -11.2231 -17.094 -46.2285 -11.2231 
-17.094 -49.2295 -9.73047 -8.58715 -49.2295 -11.2231 -1.1465 -45.7535 -11.2231 
-1.1465 -49.2295 -9.17062 6.82723 -47.1906 -11.2231 6.82723 -49.2295 -10.0608 
14.801 -43.3439 -11.2231 14.801 -49.2295 -7.38003 -41.0152 -41.2558 -4.08447 
-27.1099 -41.2558 -11.2231 -33.0414 -38.5549 -11.2231 -33.0414 -41.2558 -10.3487 
17.3036 -41.2558 -11.2231 22.7747 -37.2134 -11.2231 22.7747 -41.2558 -8.87336 
30.7484 -41.2558 -4.54577 -37.7359 -33.282 -11.2231 -41.0152 -27.3109 -11.2231 
-41.0152 -33.282 -10.0443 26.5994 -33.282 -11.2231 30.7484 -27.6547 -11.2231 
30.7484 -33.282 -8.93808 38.7222 -33.282 -5.13619 -41.642 -25.3083 -11.2231 
-48.9889 -25.3083 -6.81917 33.1774 -25.3083 -11.2231 38.7222 -21.4612 -11.2231 
38.7222 -25.3083 -9.13289 46.6959 -25.3083 -5.94541 -47.334 -17.3346 -11.2231 
-48.9889 -17.3346 -10.3002 -9.12024 -9.73126 -11.2231 44.6044 -17.3346 -11.2231 
46.6959 -15.7264 -11.2231 46.6959 -17.3346 -10.4195 54.6696 -12.045 -11.2231 
54.6696 -17.3346 -7.2127 -46.6682 -9.36084 -11.2231 -48.9889 -9.36084 -10.1883 
-9.477 -9.36084 -11.2231 -8.79227 -9.36084 -11.2231 -9.12024 -8.57022 -11.2231 
-9.12024 -9.36084 -11.142 56.4269 -9.36084 -11.2231 -56.9627 -1.3871 -3.25143 
-47.3235 -1.3871 -11.2231 -48.9889 -1.3871 -10.561 57.7018 -1.3871 -11.2231 
62.6434 -1.3871 -7.14798 -46.7376 6.58663 -11.2231 -48.9889 6.58663 -9.89265 
60.0943 6.58663 -11.2231 62.6434 6.58663 -8.66537 -46.2232 14.5604 -11.2231 
-48.9889 14.5604 -9.67604 55.6278 14.5604 -11.2231 54.6696 18.1305 -11.2231 
-42.4285 22.5341 -11.2231 -48.9889 22.5341 -6.72137 -41.0152 26.8327 -11.2231 
53.0495 22.5341 -11.2231 54.6696 22.5341 -9.10004 -40.1107 30.5078 -11.2231 
-41.0152 30.5078 -10.4831 38.7222 35.3627 -11.2231 47.1944 30.5078 -11.2231 
46.6959 30.9422 -11.2231 -36.8227 38.4816 -11.2231 -41.0152 38.4816 -6.47473 
-33.0414 43.3027 -11.2231 14.801 45.557 -11.2231 22.7747 43.6977 -11.2231 
32.886 38.4816 -11.2231 30.7484 39.3146 -11.2231 -29.2573 46.4553 -11.2231 
-33.0414 46.4553 -7.84381 -25.0677 48.5533 -11.2231 -17.094 51.4415 -11.2231 
-9.12024 52.0499 -11.2231 -1.1465 50.9398 -11.2231 13.16 46.4553 -11.2231 
6.82723 48.7899 -11.2231 14.801 46.4553 -9.67009 -25.0677 -52.5409 -3.24935 
-17.094 -54.566 -3.24935 -9.12024 -56.108 -3.24935 -9.12024 -57.2033 2.26874 
-1.1465 -55.6726 -3.24935 6.82723 -54.1816 -3.24935 14.801 -52.1386 -3.24935 
-41.0152 -42.0172 -3.24935 -31.8278 -49.2295 -3.24935 -33.0414 -48.4007 -3.24935 
-33.0414 -49.2295 2.22785 20.7122 -49.2295 -3.24935 22.7747 -47.8894 -3.24935 
30.7484 -42.2715 -3.24935 -41.7339 -41.2558 -3.24935 31.9256 -41.2558 -3.24935 
38.7222 -35.0862 -3.24935 -47.3411 -33.282 -3.24935 -48.9889 -30.7281 -3.24935 
40.8059 -33.282 -3.24935 46.6959 -27.7084 -3.24935 -51.7824 -25.3083 -3.24935 
49.4919 -25.3083 -3.24935 54.6696 -20.7756 -3.24935 -54.019 -17.3346 -3.24935 
57.8363 -17.3346 -3.24935 -56.0921 -9.36084 -3.24935 -56.9627 -1.40096 -3.24935 
62.4692 -9.36084 -3.24935 62.6434 -8.89695 -3.24935 -56.964 -1.3871 -3.24935 
-56.9627 -1.37386 -3.24935 64.8036 -1.3871 -3.24935 -56.0145 6.58663 -3.24935 
65.0592 6.58663 -3.24935 62.6434 13.002 -3.24935 62.6434 6.58663 3.07662 
-53.8584 14.5604 -3.24935 62.0214 14.5604 -3.24935 -51.398 22.5341 -3.24935 
-48.9889 27.5931 -3.24935 56.9333 22.5341 -3.24935 54.6696 25.0607 -3.24935 
54.6696 22.5341 0.442706 -47.4104 30.5078 -3.24935 38.7222 36.8525 -3.24935 
38.7222 30.5078 3.9993 48.7054 30.5078 -3.24935 46.6959 32.0099 -3.24935 
46.6959 30.5078 -0.863143 -42.9062 38.4816 -3.24935 -41.0152 41.0865 -3.24935 
22.7747 45.4198 -3.24935 22.7747 38.4816 4.26266 36.3095 38.4816 -3.24935 
30.7484 41.4345 -3.24935 30.7484 38.4816 1.51984 -35.9453 46.4553 -3.24935 
-33.0414 48.7158 -3.24935 -25.0677 52.4198 -3.24935 -17.094 53.9679 -3.24935 
-9.12024 54.0853 -3.24935 -1.1465 52.7377 -3.24935 6.82723 50.8452 -3.24935 
20.0494 46.4553 -3.24935 14.801 48.3416 -3.24935 14.801 46.4553 0.0921383 
-9.12024 -57.5556 4.72438 -33.0414 -49.4979 4.72438 -25.0677 -52.6676 4.72438 
-10.9426 -57.2033 4.72438 -17.094 -55.714 4.72438 -3.2299 -57.2033 4.72438 
-9.12024 -57.2033 5.38832 -1.1465 -57.051 4.72438 6.82723 -55.127 4.72438 
14.801 -52.3088 4.72438 -33.4236 -49.2295 4.72438 -41.0152 -43.2357 4.72438 
-33.0414 -49.2295 5.14395 -25.0677 -49.2295 10.2883 -17.094 -49.2295 11.5026 
-9.12024 -49.2295 12.5498 6.82723 -49.2295 11.4929 21.3587 -49.2295 4.72438 
14.801 -49.2295 8.30722 22.7747 -48.5087 4.72438 30.7484 -43.0095 4.72438 
-42.9432 -41.2558 4.72438 -41.0152 -41.2558 7.46616 -33.0414 -41.2558 11.5341 
22.7747 -41.2558 11.9686 33.0851 -41.2558 4.72438 30.7484 -41.2558 7.00393 
38.7222 -36.7443 4.72438 -48.3495 -33.282 4.72438 -48.9889 -32.2392 4.72438 
-41.0152 -33.282 11.9701 42.5799 -33.282 4.72438 38.7222 -33.282 8.64969 
46.6959 -29.2599 4.72438 -52.4235 -25.3083 4.72438 -48.9889 -25.3083 8.98068 
50.7643 -25.3083 4.72438 46.6959 -25.3083 8.42447 54.6696 -20.8883 4.72438 
-54.3564 -17.3346 4.72438 -48.9889 -17.3346 11.0858 46.6959 -17.3346 12.4436 
57.3388 -17.3346 4.72438 54.6696 -17.3346 7.65454 -56.2404 -9.36084 4.72438 
-56.9627 -3.44804 4.72438 -48.9889 -9.36084 12.5236 60.9318 -9.36084 4.72438 
54.6696 -9.36084 11.1741 62.6434 -2.67934 4.72438 -57.1754 -1.3871 4.72438 
-56.9627 1.14887 4.72438 -56.9627 -1.3871 5.10525 54.6696 -1.3871 11.9309 
62.8709 -1.3871 4.72438 62.6434 0.714063 4.72438 62.6434 -1.3871 4.98944 
-56.417 6.58663 4.72438 -48.9889 6.58663 12.6721 61.5339 6.58663 4.72438 
54.6696 6.58663 10.0636 -54.5238 14.5604 4.72438 -48.9889 14.5604 11.162 
46.6959 14.5604 10.347 56.6149 14.5604 4.72438 54.6696 17.4436 4.72438 
54.6696 14.5604 6.27066 -51.9434 22.5341 4.72438 -48.9889 28.4834 4.72438 
-48.9889 22.5341 8.58021 22.7747 22.5341 11.9509 30.7484 22.5341 10.9408 
38.7222 29.6791 4.72438 38.7222 22.5341 9.22766 49.6256 22.5341 4.72438 
46.6959 24.7961 4.72438 46.6959 22.5341 6.27226 -47.7585 30.5078 4.72438 
-41.0152 30.5078 12.5634 14.801 30.5078 10.7711 22.7747 37.8429 4.72438 
22.7747 30.5078 9.14826 37.1453 30.5078 4.72438 30.7484 34.535 4.72438 
30.7484 30.5078 7.13313 -42.8131 38.4816 4.72438 -41.0152 40.7048 4.72438 
-41.0152 38.4816 7.79324 -1.1465 38.4816 12.4572 6.82723 38.4816 9.71426 
21.527 38.4816 4.72438 14.801 42.1018 4.72438 14.801 38.4816 7.05634 
-35.0541 46.4553 4.72438 -33.0414 47.9443 4.72438 -33.0414 46.4553 7.05585 
-25.0677 50.7156 4.72438 -25.0677 46.4553 10.4226 -17.094 51.5185 4.72438 
-17.094 46.4553 12.1351 -9.12024 51.0954 4.72438 -9.12024 46.4553 9.84299 
-1.1465 48.2204 4.72438 -1.1465 46.4553 6.57222 7.00405 46.4553 4.72438 
[...]
POINT_DATA 540
SCALARS ImageScalars float
LOOKUP_TABLE default
0 0 0 0 0 0 0 0 0 
0 0 0 0 0 0 0 0 0 
0 0 0 0 0 0 0 0 0 
0 0 0 0 0 0 0 0 0 
0 0 0 0 0 0 0 0 0 
0 0 0 0 0 0 0 0 0 
0 0 0 0 0 0 0 0 0 
0 0 0 0 0 0 0 0 0 
0 0 0 0 0 0 0 0 0 
0 0 0 0 0 0 0 0 0 
0 0 0 0 0 0 0 0 0 
0 0 0 0 0 0 0 0 0 
0 0 0 0 0 0 0 0 0 
0 0 0 0 0 0 0 0 0 
0 0 0 0 0 0 0 0 0 
0 0 0 0 0 0 0 0 0 
0 0 0 0 0 0 0 0 0 
0 0 0 0 0 0 0 0 0 
0 0 0 0 0 0 0 0 0 
0 0 0 0 0 0 0 0 0 
0 0 0 0 0 0 0 0 0 
0 0 0 0 0 0 0 0 0 
0 0 0 0 0 0 0 0 0 
0 0 0 0 0 0 0 0 0 
0 0 0 0 0 0 0 0 0 
0 0 0 0 0 0 0 0 0 
0 0 0 0 0 0 0 0 0 
0 0 0 0 0 0 0 0 0 
0 0 0 0 0 0 0 0 0 
0 0 0 0 0 0 0 0 0 
0 0 0 0 0 0 0 0 0 
0 0 0 0 0 0 0 0 0 
0 0 0 0 0 0 0 0 0 
0 0 0 0 0 0 0 0 0 
0 0 0 0 0 0 0 0 0 
0 0 0 0 0 0 0 0 0 
0 0 0 0 0 0 0 0 0 
0 0 0 0 0 0 0 0 0 
0 0 0 0 0 0 0 0 0 
0 0 0 0 0 0 0 0 0 
0 0 0 0 0 0 0 0 0 
0 0 0 0 0 0 0 0 0 
0 0 0 0 0 0 0 0 0 
0 0 0 0 0 0 0 0 0 
0 0 0 0 0 0 0 0 0 
0 0 0 0 0 0 0 0 0 
0 0 0 0 0 0 0 0 0 
0 0 0 0 0 0 0 0 0 
0 0 0 0 0 0 0 0 0 
0 0 0 0 0 0 0 0 0 
0 0 0 0 0 0 0 0 0 
0 0 0 0 0 0 0 0 0 
0 0 0 0 0 0 0 0 0 
0 0 0 0 0 0 0 0 0 
0 0 0 0 0 0 0 0 0 
0 0 0 0 0 0 0 0 0 
0 0 0 0 0 0 0 0 0 
0 0 0 0 0 0 0 0 0 
0 0 0 0 0 0 0 0 0 
0 0 0 0 0 0 0 0 0 

NORMALS Normals float
-0.04724 0.50094 0.864192 0.13613 0.31541 0.939141 0.102501 0.248538 0.963184 
0.0173497 0.183505 0.982866 -0.00117784 0.271796 0.962354 -0.0594708 0.247833 0.966976 
-0.232547 0.319509 0.918606 0.203218 0.199489 0.958596 0.0842452 0.18499 0.979123 
0.0413807 0.0700408 0.996685 0.0190334 0.0423122 0.998923 0.0235572 0.0361665 0.999068 
-0.0186723 0.0756677 0.996958 -0.105176 0.101287 0.989282 -0.270112 0.211678 0.939272 
0.338153 0.186414 0.922444 0.178628 0.109717 0.97778 0.0390203 0.0576717 0.997573 
-0.060718 -0.0188252 0.997977 -0.0278667 -0.0776018 0.996595 0.0299547 -0.125957 0.991583 
0.0178446 -0.104407 0.994375 -0.0657883 -0.0431776 0.996899 -0.13301 0.0373059 0.990412 
-0.223395 0.235009 0.945973 0.24914 0.108346 0.962388 0.0404241 0.0904734 0.995078 
-0.0451407 -0.0265125 0.998629 -0.0979885 -0.0813102 0.99186 -0.0871398 -0.127305 0.988028 
-0.0124993 -0.0143601 0.999819 0.0704518 -0.0834273 0.99402 0.0436078 0.0289202 0.99863 
0.00535761 0.0830392 0.996532 -0.0261434 0.2023 0.978975 -0.153545 0.317325 0.935804 
0.263736 -0.0104198 0.964539 0.0540746 -0.00345754 0.998531 -0.129304 -0.0371812 0.990908 
-0.16103 -0.0882924 0.982992 0.0854734 0.0627163 0.994365 0.0360068 0.169523 0.984868 
0.0700484 0.254362 0.964569 0.0172235 0.122619 0.992304 0.0292416 0.160312 0.986633 
-0.0373291 0.215813 0.975721 -0.173965 0.276055 0.945267 -0.429202 0.245664 0.869158 
0.206077 0.0243911 0.978232 0.020785 -0.022975 0.99952 -0.134583 -0.02682 0.990539 
-0.0826493 -0.0304084 0.996115 -0.00903773 0.224074 0.97453 0.287131 0.239522 0.927461 
0.305498 0.384489 0.871114 -0.0791831 0.108083 0.990983 -0.0611794 0.076881 0.995161 
0.0634619 0.0907701 0.993848 -0.0514225 0.145309 0.988049 -0.198309 0.0735681 0.977375 
-0.358115 0.105282 0.927722 0.250461 -0.00720591 0.9681 0.0135277 0.00634886 0.999888 
-0.1323 0.0727878 0.988534 0.0223023 0.17621 0.9841 0.24482 0.0985957 0.964543 
0.24369 0.12685 0.961522 0.0472855 -0.00128104 0.998881 -0.1919 -0.0498566 0.980147 
-0.0124832 0.0696243 0.997495 0.0990049 0.043386 0.994141 -0.0497696 0.0466181 0.997672 
-0.174382 0.0428168 0.983747 -0.302189 -0.0546087 0.951683 0.277028 -0.109419 0.954612 
0.0969999 0.0147046 0.995176 0.0402369 0.153114 0.987389 0.00864451 0.288603 0.95741 
-0.00742164 0.127645 0.991792 0.0987129 -0.0152767 0.994999 0.0930723 -0.168554 0.981289 
-0.0144202 -0.0241545 0.999604 0.0151028 0.0918393 0.995659 0.0398937 0.0122534 0.999129 
-0.0728104 -0.0813283 0.994024 -0.263857 -0.0637883 0.96245 -0.555711 -0.191606 0.808994 
0.405182 -0.145606 0.902567 0.255173 0.0419628 0.965984 0.126597 0.157234 0.979413 
0.0484343 0.186948 0.981175 -0.100088 0.169928 0.980361 -0.0616229 0.114879 0.991466 
0.0518757 0.00444458 0.998644 0.071398 -0.0204214 0.997239 0.0165171 -0.0246019 0.999561 
-0.0743954 -0.0748771 0.994414 -0.145611 -0.147127 0.978341 -0.345322 -0.312944 0.88477 
0.364149 -0.0417208 0.930406 0.200314 0.00108548 0.979731 0.0239311 0.0779818 0.996668 
-0.0941268 0.0144025 0.995456 -0.0601969 0.0861049 0.994466 -0.0433171 0.0430152 0.998135 
-0.0333865 -0.0788815 0.996325 -0.0426555 -0.195734 0.979729 -0.105843 -0.258575 0.960175 
-0.270925 -0.429691 0.861374 -0.533515 -0.592414 0.603662 0.449252 -0.313897 0.836446 
0.237566 -0.207983 0.948844 0.0582038 -0.175545 0.982749 -0.0907424 -0.13766 0.986314 
-0.0404431 -0.136514 0.989812 -0.109318 -0.220625 0.969213 -0.177825 -0.297008 0.938171 
-0.149308 -0.429815 0.890486 -0.346014 -0.677829 0.648708 0.323889 -0.574454 0.751731 
0.0994811 -0.520808 0.847858 -0.0401961 -0.446826 0.893718 -0.154914 -0.508902 0.84677 
-0.216688 -0.597322 0.772174 -0.0466221 0.508796 0.859624 0.144924 0.337485 0.930108 
0.329317 0.742809 0.582912 -0.0214658 0.508729 0.860659 0.165491 0.436307 0.884449 
0.18466 0.587412 0.787939 -0.0486204 0.505653 0.861366 -0.0304454 0.426713 0.903874 
-0.0581622 0.589837 0.805425 -0.05263 0.491777 0.869129 -0.0587276 0.615637 0.785839 
-0.261611 0.397587 0.879479 -0.326279 0.740369 0.587703 0.649949 0.617727 0.442696 
0.177831 0.347709 0.920584 0.272835 0.352695 0.89508 0.333304 0.4529 0.826916 
-0.272156 0.368373 0.88895 -0.303962 0.343471 0.888614 -0.385494 0.529695 0.755525 
-0.591797 0.668207 0.45086 0.347445 0.266205 0.89912 0.365182 0.215685 0.905606 
0.478694 0.34298 0.808218 -0.334609 0.269544 0.902986 -0.27688 0.260532 0.924911 
-0.430271 0.3704 0.823207 -0.547342 0.613663 0.569065 0.357674 0.195325 0.913191 
0.715694 0.353539 0.602323 -0.23784 0.287555 0.927763 -0.20779 0.367598 0.906474 
-0.303719 0.442467 0.843788 -0.511919 0.647809 0.564166 0.507265 0.132953 0.851472 
0.601615 0.14734 0.78508 0.00663848 -0.0762378 0.997068 -0.243173 0.36858 0.897227 
-0.253436 0.368308 0.894494 -0.296832 0.40582 0.864408 -0.450109 0.350456 0.82133 
-0.568549 0.603423 0.559136 0.420598 0.000317988 0.907247 0.525391 0.0171595 0.850688 
0.000616882 -0.0719223 0.99741 0.0160757 -0.0704628 0.997385 0.00628272 -0.0433462 0.99904 
0.0118242 -0.0710944 0.9974 -0.507496 0.275877 0.816297 0.941209 -0.00224561 0.337816 
0.407351 -0.00282871 0.913267 0.486219 -0.0165204 0.873681 -0.545243 0.133758 0.827538 
-0.900819 0.201584 0.384564 0.453877 -0.0231862 0.890762 0.569594 -0.0460437 0.820636 
-0.665672 -0.0938836 0.740315 -0.895857 -0.138738 0.422127 0.471933 -0.125186 0.872701 
0.620177 -0.136784 0.772444 -0.594844 -0.20892 0.776217 -0.602325 -0.27506 0.749365 
0.436876 -0.174859 0.882362 0.754058 -0.322348 0.572266 0.524356 -0.170141 0.834328 
-0.589277 -0.400554 0.701648 -0.706193 -0.514159 0.486757 0.600102 -0.171843 0.781247 
0.641795 -0.208104 0.7381 -0.414267 -0.710493 0.568843 -0.557434 -0.603251 0.570399 
-0.54537 -0.609693 0.575193 0.572459 -0.368282 0.73257 0.768924 -0.476309 0.42648 
0.502885 -0.507242 0.699866 -0.24811 -0.733286 0.633034 -0.284781 -0.741034 0.608085 
-0.393698 -0.726348 0.563401 -0.38074 -0.724973 0.573978 0.438368 -0.607167 0.662708 
0.556621 -0.698141 0.450302 0.344313 -0.675033 0.652517 0.177996 -0.752797 0.63373 
-0.0272639 -0.787349 0.615905 -0.172039 -0.770249 0.614101 -0.25971 -0.739675 0.620831 
-0.271162 -0.708059 0.652015 -0.292844 -0.843297 0.450657 0.323556 0.873393 0.363999 
0.205626 0.883098 0.421729 0.0583653 0.894051 0.444147 0.0715827 0.997293 -0.0168287 
-0.104354 0.889149 0.445561 -0.202929 0.904758 0.374476 -0.342881 0.883582 0.318929 
0.659254 0.643586 0.38882 0.499967 0.775343 0.385844 0.531754 0.75219 0.389163 
0.538356 0.840949 -0.0545625 -0.479734 0.817003 0.319939 -0.52361 0.778832 0.34533 
-0.607379 0.706878 0.36251 0.673348 0.627399 0.391117 -0.609193 0.70061 0.371523 
-0.589047 0.676333 0.442264 0.779953 0.509588 0.363309 0.808397 0.461915 0.364867 
-0.592116 0.669847 0.447999 -0.58797 0.699624 0.405977 0.85747 0.358956 0.368641 
-0.604273 0.698008 0.384238 -0.676657 0.662923 0.320418 0.909629 0.252771 0.329669 
-0.751451 0.597923 0.278945 0.931619 0.160934 0.325863 0.941264 -0.00195236 0.337665 
-0.897429 0.388177 0.209618 -0.904306 0.373534 0.206649 0.941257 -0.00223986 0.337683 
0.941242 -0.00250712 0.337723 -0.977157 0.153486 0.146991 0.918127 -0.164776 0.360404 
-0.985323 -0.166833 0.0361236 -0.929678 -0.368013 0.0162528 -0.83245 -0.243135 -0.497908 
0.88538 -0.279781 0.371247 -0.908128 -0.418444 0.0144416 0.873388 -0.348179 0.340535 
0.852989 -0.41237 0.31994 -0.747458 -0.659316 -0.081296 -0.706409 -0.701036 -0.0976491 
-0.673755 -0.639304 -0.3706 0.839974 -0.446561 0.308265 -0.513419 -0.825344 -0.234964 
-0.331397 -0.637145 -0.695861 -0.58852 -0.78578 -0.19025 -0.550331 -0.807902 -0.210787 
-0.532448 -0.788393 -0.308116 0.81233 -0.534055 0.234321 0.780161 -0.588726 0.211543 
-0.391665 -0.889555 -0.23514 -0.245994 -0.611117 -0.752345 -0.511273 -0.831317 -0.217972 
-0.471445 -0.86432 -0.17519 -0.397015 -0.748786 -0.530753 0.630056 -0.758946 0.16441 
0.557738 -0.817071 0.146023 0.293187 -0.952595 0.0812703 0.0979278 -0.995065 -0.0160015 
-0.0757709 -0.995554 -0.0559507 -0.200197 -0.97084 -0.131878 -0.270594 -0.952132 -0.142208 
-0.378146 -0.903393 -0.202204 -0.342329 -0.92806 -0.146678 -0.358543 -0.851646 -0.382289 
0.0728103 0.974728 -0.211197 0.505122 0.824182 -0.256077 0.382488 0.881572 -0.276647 
0.115752 0.969719 -0.215051 0.263945 0.932521 -0.24645 -0.0853269 0.976237 -0.199198 
0.0749996 0.961822 -0.263197 -0.140269 0.970454 -0.196326 -0.256394 0.936189 -0.240443 
-0.391601 0.86512 -0.313394 0.512501 0.819787 -0.255521 0.665473 0.709509 -0.231825 
0.506792 0.81324 -0.286012 0.271028 0.692969 -0.668085 0.10714 0.561818 -0.820293 
0.0761792 0.458643 -0.885349 -0.229911 0.60571 -0.761746 -0.476324 0.840133 -0.259407 
-0.327453 0.759111 -0.562606 -0.491587 0.835843 -0.244353 -0.560953 0.786409 -0.258636 
0.718307 0.657617 -0.227102 0.634079 0.643038 -0.429471 0.339612 0.495401 -0.799525 
-0.379027 0.466334 -0.799294 -0.582519 0.776986 -0.238671 -0.527146 0.74246 -0.413364 
-0.636578 0.743094 -0.206349 0.829375 0.517286 -0.211074 0.842005 0.493409 -0.218116 
0.482563 0.393056 -0.782713 -0.660505 0.720806 -0.210171 -0.572694 0.638703 -0.513887 
-0.685956 0.68784 -0.237362 0.900234 0.335145 -0.27795 0.775572 0.267914 -0.571585 
-0.707302 0.647602 -0.283435 -0.625244 0.540343 -0.563116 -0.754856 0.561759 -0.338556 
0.931247 0.225455 -0.286267 0.672634 0.185295 -0.7164 -0.394298 0.293819 -0.870747 
-0.785633 0.477159 -0.393828 -0.689087 0.43801 -0.577327 0.949664 0.15705 -0.271061 
0.959599 0.0493497 -0.27701 0.559295 0.094763 -0.823534 -0.832194 0.299592 -0.466581 
-0.523726 0.207297 -0.82628 -0.829775 0.0789861 -0.552481 0.959118 0.0103975 -0.282816 
0.960265 -0.0402795 -0.276169 0.951405 0.00974358 -0.307788 -0.484176 -0.0537476 -0.873318 
-0.82769 0.0351439 -0.560084 -0.809459 -0.0387994 -0.585893 -0.815381 0.0332257 -0.577971 
0.952295 -0.146537 -0.267695 0.552489 -0.0898415 -0.828665 -0.725202 -0.250573 -0.641323 
-0.466335 -0.259331 -0.845742 0.923239 -0.271838 -0.271539 0.665298 -0.212968 -0.715558 
-0.31414 -0.325757 -0.891739 -0.611962 -0.402131 -0.681023 -0.556338 -0.427969 -0.712271 
-0.520131 -0.393203 -0.758192 0.888464 -0.365763 -0.277219 0.852874 -0.462988 -0.241348 
0.785945 -0.299455 -0.540941 -0.139409 -0.342199 -0.929228 -0.154033 -0.36107 -0.91973 
-0.307578 -0.593804 -0.7435 -0.230955 -0.436761 -0.869425 -0.452911 -0.526862 -0.719228 
-0.412684 -0.584754 -0.698394 -0.386786 -0.481306 -0.786601 0.836837 -0.496087 -0.231521 
0.547783 -0.331622 -0.768089 -0.222145 -0.351995 -0.909259 -0.235958 -0.58198 -0.778218 
-0.188301 -0.392532 -0.900256 -0.313168 -0.584783 -0.748301 -0.312433 -0.558512 -0.768407 
-0.276067 -0.472681 -0.836875 0.778111 -0.578057 -0.245751 0.740474 -0.622415 -0.253568 
0.71453 -0.549157 -0.433443 -0.300876 -0.425219 -0.853617 -0.28343 -0.430698 -0.856836 
-0.246995 -0.579725 -0.776475 -0.320933 -0.587362 -0.742972 -0.285478 -0.486012 -0.826011 
0.544719 -0.780888 -0.305768 0.481632 -0.817984 -0.314535 0.465605 -0.765787 -0.443602 
0.202722 -0.89007 -0.408263 0.187395 -0.728518 -0.658897 0.0233194 -0.882964 -0.46886 
-0.0365635 -0.684487 -0.728108 -0.167105 -0.820559 -0.546589 -0.234382 -0.667596 -0.706668 
-0.238974 -0.725829 -0.645029 -0.24142 -0.679405 -0.692911 -0.238246 -0.700044 -0.673184 
-0.236375 -0.701935 -0.671874 -0.236429 -0.698844 -0.675069 -0.0553145 0.500271 -0.8641 
0.202141 0.48682 -0.849792 0.0670582 0.420846 -0.90465 0.0173619 0.470122 -0.88243 
0.0752539 0.441488 -0.894106 -0.0768567 0.499608 -0.862836 -0.0531483 0.490209 -0.869983 
-0.165612 0.4759 -0.863766 -0.206992 0.495521 -0.843572 0.262902 0.401935 -0.877115 
0.294981 0.4174 -0.859514 0.157789 0.313986 -0.936224 0.0656103 0.25757 -0.964029 
0.0707899 0.205851 -0.97602 -0.00978836 0.192534 -0.981241 -0.0686136 0.252664 -0.965118 
-0.329475 0.425133 -0.843035 -0.175984 0.346748 -0.921301 -0.32734 0.407773 -0.852391 
-0.334276 0.440279 -0.833315 0.413894 0.367352 -0.832913 0.449843 0.340977 -0.825455 
0.229653 0.320073 -0.919137 0.0625286 0.235117 -0.969954 -0.00870039 0.150089 -0.988634 
0.0156555 0.0490293 -0.998675 0.00506433 0.0241344 -0.999696 -0.0401025 0.066993 -0.996947 
-0.0715484 0.124891 -0.989587 -0.148689 0.272341 -0.950643 -0.351838 0.429046 -0.831943 
-0.30466 0.390817 -0.868588 -0.400423 0.354706 -0.844893 0.542684 0.202295 -0.815212 
0.402964 0.178195 -0.897701 0.183394 0.163578 -0.969334 -0.0311332 0.106743 -0.993799 
-0.106943 0.0727995 -0.991596 -0.0590506 -0.0418193 -0.997379 0.00885472 -0.0965477 -0.995289 
0.0266673 -0.0569249 -0.998022 0.018005 0.0449091 -0.998829 -0.0444864 0.108009 -0.993154 
-0.190402 0.195434 -0.962057 -0.408101 0.316313 -0.856388 -0.362403 0.27841 -0.889467 
0.546781 0.140203 -0.825453 0.353971 0.0807328 -0.931765 0.145518 0.0222879 -0.989105 
-0.0271801 0.00736955 -0.999603 -0.162243 -0.00102847 -0.98675 -0.154422 -0.052694 -0.986599 
-0.0143821 -0.00582256 -0.99988 0.107269 0.0175739 -0.994075 0.0946496 0.0452484 -0.994482 
-0.00374688 0.0447883 -0.998989 -0.130328 0.062492 -0.9895 -0.37286 0.27123 -0.887361 
-0.226219 0.121857 -0.966424 -0.36761 0.257334 -0.893668 0.54416 0.0914383 -0.833984 
0.545573 0.0610543 -0.835836 0.291451 0.0407629 -0.955717 0.0918876 -0.00414296 -0.995761 
-0.0520021 -0.0399483 -0.997848 -0.172438 -0.0849302 -0.981352 -0.0540556 -0.0861591 -0.994814 
0.0955531 0.156479 -0.983048 0.0690742 0.0936314 -0.993208 0.029962 0.122813 -0.991977 
-0.027121 0.063128 -0.997637 -0.100255 0.0153183 -0.994844 -0.176755 0.0467681 -0.983143 
-0.381967 0.153499 -0.911339 -0.276251 0.0735345 -0.958268 0.545016 0.00751568 -0.838392 
0.55012 -0.0814963 -0.831099 0.533745 0.00812152 -0.845607 0.25983 -0.00726512 -0.965627 
0.0679029 -0.00921343 -0.997649 -0.106738 -0.0181866 -0.994121 -0.202373 -0.044706 -0.978288 
0.0605918 -0.0341153 -0.997579 0.172791 0.0895718 -0.980877 0.0885005 -0.145931 -0.985328 
0.0644714 -3.84342e-05 -0.99792 -0.112535 0.00470556 -0.993637 -0.147055 -0.0557239 -0.987557 
-0.190832 -0.0718543 -0.978989 -0.39499 -0.0587204 -0.916807 -0.226377 -0.0654519 -0.971838 
0.55005 -0.0893567 -0.830338 0.274687 -0.0424434 -0.960596 0.0828116 -0.00883992 -0.996526 
-0.0931755 0.020966 -0.995429 -0.166397 0.0561137 -0.984461 0.0550697 0.0772255 -0.995492 
-0.0413805 -0.196191 -0.979692 0.00961454 -0.115728 -0.993234 0.1695 -0.195254 -0.965995 
-0.0820257 -0.193733 -0.977619 -0.172015 -0.18061 -0.968396 -0.18854 -0.183687 -0.964734 
-0.25048 -0.218046 -0.943248 -0.243937 -0.219444 -0.944637 -0.242263 -0.215352 -0.946009 
0.54031 -0.161576 -0.825808 0.33759 -0.0839245 -0.937545 0.1288 -0.0321657 -0.991149 
-0.0404731 0.0533041 -0.997758 -0.157199 0.108474 -0.981592 -0.131027 0.119449 -0.984156 
-0.0340873 -0.0948309 -0.99491 0.0332445 -0.00130851 -0.999446 0.00122004 -0.235985 -0.971756 
-0.126937 -0.339668 -0.93194 -0.098762 -0.326438 -0.940045 -0.13559 -0.315238 -0.939277 
-0.130325 -0.295158 -0.946518 -0.205129 -0.301283 -0.931209 -0.204454 -0.301881 -0.931164 
-0.204382 -0.301167 -0.931411 0.55826 -0.195071 -0.806407 0.540139 -0.321688 -0.777667 
0.429029 -0.147239 -0.89121 0.215697 -0.0868022 -0.972595 0.0518767 -0.00687018 -0.99863 
-0.105725 0.0820766 -0.991002 -0.152404 0.120351 -0.980963 -0.1434 0.0206135 -0.98945 
-0.140233 -0.115423 -0.983368 -0.148294 -0.310665 -0.93888 -0.178801 -0.297352 -0.937876 
-0.157858 -0.278873 -0.947265 0.53663 -0.326212 -0.778212 0.277667 -0.223431 -0.934334 
0.128571 -0.156516 -0.979271 -0.0263974 -0.0843722 -0.996085 -0.192344 -0.101343 -0.976081 
-0.299261 -0.406549 -0.863227 -0.270114 -0.184431 -0.944999 -0.257576 -0.292413 -0.92095 
-0.264241 -0.297135 -0.917544 -0.261208 -0.282291 -0.923083 0.420365 -0.42543 -0.801438 
0.358248 -0.460294 -0.812273 0.347496 -0.402886 -0.846717 0.178262 -0.58775 -0.78916 
0.164378 -0.369682 -0.914503 -0.0406731 -0.650821 -0.758141 -0.0487536 -0.362608 -0.930666 
-0.295083 -0.421248 -0.857599 -0.246952 -0.517 -0.819589 -0.233004 -0.383023 -0.89387 

