# vtk DataFile Version 4.2
vtk output
ASCII
DATASET POLYDATA
POINTS 550 float
-26.0057 -45.1675 -12.4146 -17.9197 -45.1675 -14.0224 -9.83375 -45.1675 -14.0904 
-1.74779 -45.1675 -13.7188 6.33817 -45.1675 -12.7367 -34.0916 -37.0815 -12.6603 
-26.0057 -37.0815 -15.0942 -17.9197 -37.0815 -16.33 -9.83375 -37.0815 -17.2985 
-1.74779 -37.0815 -16.1135 6.33817 -37.0815 -15.7241 14.4241 -37.0815 -13.54 
22.5101 -37.0815 -10.7086 -42.1776 -28.9956 -12.5584 -34.0916 -28.9956 -15.0813 
-26.0057 -28.9956 -17.3907 -17.9197 -28.9956 -16.7853 -9.83375 -28.9956 -17.1168 
-1.74779 -28.9956 -16.3135 6.33817 -28.9956 -16.3144 14.4241 -28.9956 -14.8223 
22.5101 -28.9956 -13.1312 30.596 -28.9956 -10.843 -50.2635 -20.9096 -10.7799 
-42.1776 -20.9096 -14.9904 -34.0916 -20.9096 -16.8837 -26.0057 -20.9096 -16.9842 
-17.9197 -20.9096 -16.3721 -9.83375 -20.9096 -15.6247 -1.74779 -20.9096 -15.4382 
6.33817 -20.9096 -15.3395 14.4241 -20.9096 -14.6598 22.5101 -20.9096 -13.8802 
30.596 -20.9096 -12.8 38.682 -20.9096 -11.3908 -50.2635 -12.8237 -13.6652 
-42.1776 -12.8237 -15.5606 -34.0916 -12.8237 -16.5949 -26.0057 -12.8237 -16.7908 
-17.9197 -12.8237 -16.0761 -9.83375 -12.8237 -14.1413 -1.74779 -12.8237 -15.279 
6.33817 -12.8237 -14.8067 14.4241 -12.8237 -13.5449 22.5101 -12.8237 -14.1126 
30.596 -12.8237 -14.1004 38.682 -12.8237 -13.721 46.768 -12.8237 -11.6141 
-58.3495 -4.7377 -11.494 -50.2635 -4.7377 -15.199 -42.1776 -4.7377 -16.1824 
-34.0916 -4.7377 -16.6825 -26.0057 -4.7377 -16.573 -17.9197 -4.7377 -16.6343 
-9.83375 -4.7377 -16.7031 -1.74779 -4.7377 -16.8742 6.33817 -4.7377 -15.9556 
14.4241 -4.7377 -14.3997 22.5101 -4.7377 -13.938 30.596 -4.7377 -14.1564 
38.682 -4.7377 -14.0708 46.768 -4.7377 -13.725 54.8539 -4.7377 -11.4661 
-58.3495 3.34825 -12.9406 -50.2635 3.34825 -15.3448 -42.1776 3.34825 -17.0414 
-34.0916 3.34825 -17.1586 -26.0057 3.34825 -16.6888 -17.9197 3.34825 -15.7203 
-9.83375 3.34825 -15.497 -1.74779 3.34825 -14.9176 6.33817 3.34825 -15.8341 
14.4241 3.34825 -17.3222 22.5101 3.34825 -14.3508 30.596 3.34825 -14.347 
38.682 3.34825 -14.5156 46.768 3.34825 -14.3399 54.8539 3.34825 -12.175 
-58.3495 11.4342 -13.6295 -50.2635 11.4342 -16.2306 -42.1776 11.4342 -17.7497 
-34.0916 11.4342 -17.6154 -26.0057 11.4342 -16.7303 -17.9197 11.4342 -14.9773 
-9.83375 11.4342 -14.3802 -1.74779 11.4342 -18.1641 6.33817 11.4342 -15.0592 
14.4241 11.4342 -16.1322 22.5101 11.4342 -14.6477 30.596 11.4342 -14.2006 
38.682 11.4342 -14.2674 46.768 11.4342 -13.8727 54.8539 11.4342 -11.8343 
-58.3495 19.5202 -12.5369 -50.2635 19.5202 -16.4124 -42.1776 19.5202 -17.445 
-34.0916 19.5202 -17.4836 -26.0057 19.5202 -17.0048 -17.9197 19.5202 -15.6608 
-9.83375 19.5202 -15.2847 -1.74779 19.5202 -15.2818 6.33817 19.5202 -15.2596 
14.4241 19.5202 -16.1724 22.5101 19.5202 -15.2907 30.596 19.5202 -14.1725 
38.682 19.5202 -13.8745 46.768 19.5202 -12.1166 54.8539 19.5202 -12.1596 
-50.2635 27.6061 -14.0853 -42.1776 27.6061 -16.3286 -34.0916 27.6061 -16.9088 
-26.0057 27.6061 -16.695 -17.9197 27.6061 -16.0292 -9.83375 27.6061 -16.0592 
-1.74779 27.6061 -15.3073 6.33817 27.6061 -15.0193 14.4241 27.6061 -15.4393 
22.5101 27.6061 -13.9863 30.596 27.6061 -12.6499 -50.2635 35.6921 -10.7796 
-42.1776 35.6921 -13.0088 -34.0916 35.6921 -14.7503 -26.0057 35.6921 -14.8824 
-17.9197 35.6921 -15.3684 -9.83375 35.6921 -15.2011 -1.74779 35.6921 -13.9756 
6.33817 35.6921 -12.9528 14.4241 35.6921 -12.7707 -34.0916 43.778 -10.4948 
-26.0057 43.778 -12.6802 -17.9197 43.778 -11.631 -9.83375 43.778 -11.0968 
-26.0057 -47.2731 -10.3582 -17.9197 -49.18 -10.3582 -9.83375 -50.7978 -10.3582 
-9.83375 -53.2535 -4.17906 -1.74779 -50.0635 -10.3582 6.33817 -47.7793 -10.3582 
-29.2044 -45.1675 -10.3582 -34.0916 -40.0953 -10.3582 11.6569 -45.1675 -10.3582 
14.4241 -43.2899 -10.3582 14.4241 -45.1675 -8.88342 22.5101 -37.7461 -10.3582 
-37.9026 -37.0815 -10.3582 -42.1776 -32.8187 -10.3582 -42.1776 -37.0815 -3.76122 
23.2392 -37.0815 -10.3582 30.596 -30.0452 -10.3582 30.596 -37.0815 -5.11244 
-45.7908 -28.9956 -10.3582 -50.2635 -22.0238 -10.3582 -50.2635 -28.9956 -4.62867 
32.1102 -28.9956 -10.3582 38.682 -23.72 -10.3582 38.682 -28.9956 -7.76501 
-50.8884 -20.9096 -10.3582 43.183 -20.9096 -10.3582 46.768 -17.8117 -10.3582 
46.768 -20.9096 -9.2849 54.8539 -20.9096 -3.33812 -57.2473 -12.8237 -10.3582 
-58.3495 -10.7181 -10.3582 -58.3495 -12.8237 -9.58481 51.4389 -12.8237 -10.3582 
54.8539 -9.21888 -10.3582 54.8539 -12.8237 -9.2123 62.9399 -12.8237 -3.43448 
-59.7752 -4.7377 -10.3582 57.652 -4.7377 -10.3582 62.9399 -4.7377 -8.13452 
-61.591 3.34825 -10.3582 -66.4355 3.34825 -2.29983 60.362 3.34825 -10.3582 
62.9399 3.34825 -9.26027 71.0258 3.34825 -5.12542 -61.9337 11.4342 -10.3582 
-66.4355 11.4342 -2.8729 60.0466 11.4342 -10.3582 62.9399 11.4342 -9.34796 
71.0258 11.4342 -5.71908 -61.0329 19.5202 -10.3582 -58.3495 27.4285 -10.3582 
38.682 27.4766 -10.3582 46.768 26.8031 -10.3582 57.4305 19.5202 -10.3582 
54.8539 21.9247 -10.3582 62.9399 19.5202 -7.37812 -58.2186 27.6061 -10.3582 
-58.3495 27.6061 -10.2427 22.5101 35.6169 -10.3582 38.4579 27.6061 -10.3582 
30.596 31.8895 -10.3582 38.682 27.6061 -10.2851 46.768 27.6061 -10.1254 
54.8539 27.6061 -7.00591 -50.8527 35.6921 -10.3582 -50.2635 36.1599 -10.3582 
-42.1776 39.6679 -10.3582 -1.74779 41.8406 -10.3582 6.33817 39.5612 -10.3582 
22.3975 35.6921 -10.3582 14.4241 38.9564 -10.3582 22.5101 35.6921 -10.2882 
30.596 35.6921 -5.97379 38.682 35.6921 -2.30616 -34.538 43.778 -10.3582 
-42.1776 43.778 -3.19899 -34.0916 43.9073 -10.3582 -26.0057 45.9381 -10.3582 
-17.9197 45.0253 -10.3582 -7.07499 43.778 -10.3582 -9.83375 44.4639 -10.3582 
-1.74779 43.778 -8.1064 6.33817 43.778 -4.14427 -9.83375 -53.7494 -2.27228 
-26.0057 -49.6707 -2.27228 -13.6345 -53.2535 -2.27228 -17.9197 -52.6927 -2.27228 
-2.85945 -53.2535 -2.27228 -9.83375 -53.2535 -0.818067 -1.74779 -53.1714 -2.27228 
6.33817 -51.915 -2.27228 14.4241 -49.5234 -2.27228 -42.1776 -37.6494 -2.27228 
-33.0575 -45.1675 -2.27228 -34.0916 -44.4064 -2.27228 22.3173 -45.1675 -2.27228 
22.5101 -45.0414 -2.27228 30.596 -39.0669 -2.27228 -42.8164 -37.0815 -2.27228 
-50.2635 -30.1913 -2.27228 -42.1776 -37.0815 -0.856291 33.3419 -37.0815 -2.27228 
38.682 -33.5696 -2.27228 -51.4257 -28.9956 -2.27228 -50.2635 -28.9956 0.939038 
45.1477 -28.9956 -2.27228 46.768 -27.6961 -2.27228 54.8539 -21.9031 -2.27228 
-57.9443 -20.9096 -2.27228 -58.3495 -20.273 -2.27228 56.1762 -20.9096 -2.27228 
62.9399 -14.2848 -2.27228 -62.4485 -12.8237 -2.27228 64.0588 -12.8237 -2.27228 
-65.0606 -4.7377 -2.27228 -66.4355 3.26084 -2.27228 68.9772 -4.7377 -2.27228 
71.0258 0.260132 -2.27228 71.0258 -4.7377 3.92386 -66.4497 3.34825 -2.27228 
-66.4355 3.34825 -2.16569 72.6704 3.34825 -2.27228 -66.7466 11.4342 -2.27228 
-66.4355 13.2981 -2.27228 -66.4355 11.4342 0.00690768 72.3806 11.4342 -2.27228 
71.0258 14.4866 -2.27228 -65.3457 19.5202 -2.27228 69.2842 19.5202 -2.27228 
62.9399 26.6973 -2.27228 71.0258 19.5202 2.16176 -62.2192 27.6061 -2.27228 
-58.3495 32.7129 -2.27228 46.768 34.139 -2.27228 61.9528 27.6061 -2.27228 
54.8539 31.9421 -2.27228 62.9399 27.6061 0.652894 -55.3499 35.6921 -2.27228 
-50.2635 39.5016 -2.27228 14.4241 42.2234 -2.27228 22.5101 39.4084 -2.27228 
30.596 37.4375 -2.27228 30.596 35.6921 5.6677 38.7801 35.6921 -2.27228 
38.682 35.7106 -2.27228 38.682 35.6921 -1.82966 -42.7032 43.778 -2.27228 
-42.1776 44.0288 -2.27228 -42.1776 43.778 -1.62947 -34.0916 45.9387 -2.27228 
-34.0916 43.778 2.24899 -26.0057 47.5907 -2.27228 -26.0057 43.778 5.52979 
-17.9197 47.6651 -2.27228 -17.9197 43.778 2.88235 -9.83375 47.6182 -2.27228 
-9.83375 43.778 3.1138 -1.74779 46.3545 -2.27228 -1.74779 43.778 2.05541 
9.01189 43.778 -2.27228 6.33817 44.5342 -2.27228 6.33817 43.778 -0.128052 
-26.0057 -45.7229 5.81368 -17.9197 -48.9559 5.81368 -9.83375 -49.9666 5.81368 
-1.74779 -49.1553 5.81368 6.33817 -48.4523 5.81368 14.4241 -46.7468 5.81368 
-27.0024 -45.1675 5.81368 -34.0916 -40.2677 5.81368 -26.0057 -45.1675 6.47033 
-17.9197 -45.1675 9.21502 -9.83375 -45.1675 9.55835 -1.74779 -45.1675 8.91725 
6.33817 -45.1675 8.53157 17.5601 -45.1675 5.81368 14.4241 -45.1675 7.30254 
22.5101 -42.9097 5.81368 30.596 -37.7883 5.81368 -38.0015 -37.0815 5.81368 
-42.1776 -33.0427 5.81368 -34.0916 -37.0815 8.26012 -26.0057 -37.0815 12.0478 
-17.9197 -37.0815 13.4576 -9.83375 -37.0815 13.3426 -1.74779 -37.0815 12.838 
6.33817 -37.0815 12.9556 14.4241 -37.0815 12.8283 22.5101 -37.0815 11.4564 
31.8578 -37.0815 5.81368 30.596 -37.0815 6.52909 38.682 -33.3886 5.81368 
-47.0764 -28.9956 5.81368 -50.2635 -26.4194 5.81368 -42.1776 -28.9956 8.39602 
-34.0916 -28.9956 12.222 46.7345 -28.9956 5.81368 38.682 -28.9956 10.1055 
46.768 -28.9778 5.81368 54.8539 -23.3638 5.81368 -55.4883 -20.9096 5.81368 
-58.3495 -17.9372 5.81368 -50.2635 -20.9096 9.17697 -42.1776 -20.9096 12.4947 
46.768 -20.9096 12.9664 58.2817 -20.9096 5.81368 54.8539 -20.9096 9.5894 
62.9399 -16.6344 5.81368 -61.2754 -12.8237 5.81368 -58.3495 -12.8237 9.22601 
-50.2635 -12.8237 12.5313 54.8539 -12.8237 13.7273 65.8067 -12.8237 5.81368 
62.9399 -12.8237 9.64559 71.0258 -5.68187 5.81368 -63.3019 -4.7377 5.81368 
-58.3495 -4.7377 11.8445 62.9399 -4.7377 12.6838 71.598 -4.7377 5.81368 
71.0258 -4.7377 6.73669 -64.912 3.34825 5.81368 -58.3495 3.34825 10.987 
62.9399 3.34825 13.7152 73.7847 3.34825 5.81368 71.0258 3.34825 9.92056 
-65.2411 11.4342 5.81368 -58.3495 11.4342 13.4636 74.4592 11.4342 5.81368 
71.0258 11.4342 10.9054 -62.1217 19.5202 5.81368 -58.3495 19.5202 9.6154 
-50.2635 19.5202 13.3887 -9.83375 19.5202 13.8384 72.1529 19.5202 5.81368 
71.0258 21.12 5.81368 71.0258 19.5202 7.56499 -59.5375 27.6061 5.81368 
-58.3495 29.0547 5.81368 -58.3495 27.6061 6.92133 -50.2635 27.6061 11.7321 
-42.1776 27.6061 13.1243 -26.0057 27.6061 13.6754 -17.9197 27.6061 12.6275 
-9.83375 27.6061 11.5831 -1.74779 27.6061 11.8685 6.33817 27.6061 12.7368 
14.4241 27.6061 12.5575 22.5101 27.6061 12.4511 30.596 35.6489 5.81368 
30.596 27.6061 13.6986 38.682 35.3036 5.81368 46.768 34.6146 5.81368 
[...]
POINT_DATA 550
SCALARS ImageScalars float
LOOKUP_TABLE default
0 0 0 0 0 0 0 0 0 
0 0 0 0 0 0 0 0 0 
0 0 0 0 0 0 0 0 0 
0 0 0 0 0 0 0 0 0 
0 0 0 0 0 0 0 0 0 
0 0 0 0 0 0 0 0 0 
0 0 0 0 0 0 0 0 0 
0 0 0 0 0 0 0 0 0 
0 0 0 0 0 0 0 0 0 
0 0 0 0 0 0 0 0 0 
0 0 0 0 0 0 0 0 0 
0 0 0 0 0 0 0 0 0 
0 0 0 0 0 0 0 0 0 
0 0 0 0 0 0 0 0 0 
0 0 0 0 0 0 0 0 0 
0 0 0 0 0 0 0 0 0 
0 0 0 0 0 0 0 0 0 
0 0 0 0 0 0 0 0 0 
0 0 0 0 0 0 0 0 0 
0 0 0 0 0 0 0 0 0 
0 0 0 0 0 0 0 0 0 
0 0 0 0 0 0 0 0 0 
0 0 0 0 0 0 0 0 0 
0 0 0 0 0 0 0 0 0 
0 0 0 0 0 0 0 0 0 
0 0 0 0 0 0 0 0 0 
0 0 0 0 0 0 0 0 0 
0 0 0 0 0 0 0 0 0 
0 0 0 0 0 0 0 0 0 
0 0 0 0 0 0 0 0 0 
0 0 0 0 0 0 0 0 0 
0 0 0 0 0 0 0 0 0 
0 0 0 0 0 0 0 0 0 
0 0 0 0 0 0 0 0 0 
0 0 0 0 0 0 0 0 0 
0 0 0 0 0 0 0 0 0 
0 0 0 0 0 0 0 0 0 
0 0 0 0 0 0 0 0 0 
0 0 0 0 0 0 0 0 0 
0 0 0 0 0 0 0 0 0 
0 0 0 0 0 0 0 0 0 
0 0 0 0 0 0 0 0 0 
0 0 0 0 0 0 0 0 0 
0 0 0 0 0 0 0 0 0 
0 0 0 0 0 0 0 0 0 
0 0 0 0 0 0 0 0 0 
0 0 0 0 0 0 0 0 0 
0 0 0 0 0 0 0 0 0 
0 0 0 0 0 0 0 0 0 
0 0 0 0 0 0 0 0 0 
0 0 0 0 0 0 0 0 0 
0 0 0 0 0 0 0 0 0 
0 0 0 0 0 0 0 0 0 
0 0 0 0 0 0 0 0 0 
0 0 0 0 0 0 0 0 0 
0 0 0 0 0 0 0 0 0 
0 0 0 0 0 0 0 0 0 
0 0 0 0 0 0 0 0 0 
0 0 0 0 0 0 0 0 0 
0 0 0 0 0 0 0 0 0 
0 0 0 0 0 0 0 0 0 
0 
NORMALS Normals float
0.363882 0.624398 0.691171 0.102472 0.509121 0.854573 -0.0198057 0.472953 0.880865 
-0.0698047 0.471652 0.879017 -0.238428 0.54572 0.803332 0.427963 0.466324 0.774203 
0.181809 0.282716 0.941816 0.141914 0.137655 0.980261 -0.0219737 0.17693 0.983978 
-0.0862648 0.149773 0.98495 -0.151372 0.169708 0.9738 -0.261737 0.276228 0.924766 
-0.388148 0.377828 0.840587 0.420273 0.414128 0.807384 0.258622 0.219677 0.940668 
0.0925819 0.119111 0.988555 -0.0144648 0.000673241 0.999895 -0.0294368 -0.0956208 0.994982 
-0.049193 -0.040758 0.997957 -0.0887043 -0.0270757 0.99569 -0.186903 0.0632442 0.98034 
-0.223665 0.164942 0.960608 -0.28655 0.33452 0.897767 0.54409 0.297933 0.784348 
0.310087 0.145902 0.939446 0.134531 0.0896138 0.986849 -0.0319253 -0.0353756 0.998864 
-0.0799753 -0.0431535 0.995862 -0.0590716 -0.187198 0.980544 -0.0166292 -0.0623612 0.997915 
-0.0485228 -0.0908974 0.994677 -0.0895176 -0.0779744 0.992928 -0.110609 0.0554535 0.992316 
-0.143279 0.177391 0.973655 -0.197475 0.332092 0.922344 0.369786 0.240592 0.897426 
0.158266 0.0750243 0.984542 0.0732473 -0.0114479 0.997248 -0.030663 -0.0253689 0.999208 
-0.163434 0.0163014 0.98642 -0.0577024 0.0499679 0.997083 0.049084 0.0785763 0.995699 
-0.112599 0.0321776 0.993119 -0.037396 -0.0227836 0.999041 0.0342143 0.00349427 0.999408 
-0.0263741 0.0807031 0.996389 -0.140238 0.144461 0.979522 -0.248971 0.240036 0.938294 
0.542608 0.183193 0.819767 0.306062 0.0874697 0.947985 0.0822365 0.0907607 0.992471 
0.0231466 0.0348367 0.999125 -0.00297538 -0.0063101 0.999976 0.00736318 -0.0197156 0.999779 
0.0140644 0.103882 0.99449 -0.0506922 -0.00974298 0.998667 -0.144207 0.0659103 0.98735 
-0.121445 0.231772 0.965159 -0.0114889 0.0146594 0.999827 0.0082529 0.0152039 0.99985 
-0.0254612 0.0513796 0.998355 -0.160163 0.163169 0.973511 -0.300385 0.144074 0.942874 
0.498402 0.133179 0.856656 0.255917 0.0660588 0.964439 0.118692 0.0956699 0.988311 
-0.0219743 0.0575957 0.998098 -0.0850277 0.0096489 0.996332 -0.0735856 -0.104817 0.991765 
-0.0436933 -0.134399 0.989964 0.020257 0.0716878 0.997221 0.141477 -0.061449 0.988033 
-0.113281 0.0911752 0.989371 -0.166531 0.0441461 0.985047 0.0101363 0.00274615 0.999945 
-4.32784e-05 0.0120406 0.999928 -0.143581 0.00806023 0.989606 -0.252446 0.0211031 0.967381 
0.529352 -0.0217315 0.848124 0.23381 0.0643281 0.970152 0.0967715 0.0248835 0.994996 
-0.0616943 0.0200277 0.997894 -0.161775 0.0194344 0.986636 -0.143348 -0.0010161 0.989672 
0.161247 -0.0031747 0.986909 0.0141616 -0.0299685 0.999451 -0.0861106 -0.0284137 0.99588 
-0.0252588 -0.0641318 0.997622 -0.118871 0.0545847 0.991408 -0.0234117 -0.0107368 0.999668 
-0.0193393 -0.0425611 0.998907 -0.148396 -0.131423 0.980156 -0.232066 -0.00549 0.972685 
0.551796 -0.131823 0.823495 0.301645 -0.102343 0.947911 0.0578248 -0.100241 0.993281 
-0.0271949 -0.0419746 0.998748 -0.112213 -0.00463197 0.993673 -0.105635 0.0643082 0.992323 
-0.0236592 0.0967477 0.995028 -0.00160379 -0.140173 0.990126 0.0548709 -0.00209703 0.998491 
0.00745513 -0.0412064 0.999123 -0.126986 -0.0370721 0.991211 -0.0859739 -0.0976674 0.991499 
-0.114093 -0.201728 0.972774 -0.124404 -0.231255 0.964907 -0.295346 -0.289804 0.910376 
0.307632 -0.335605 0.890355 0.137214 -0.206097 0.968863 0.0272045 -0.177497 0.983745 
-0.0509835 -0.118057 0.991697 -0.0440527 -0.0141168 0.998929 -0.0442 0.00189106 0.999021 
-0.0625234 -0.0681501 0.995714 0.00763456 -0.126079 0.991991 -0.0587774 -0.201094 0.977807 
-0.166731 -0.25703 0.951912 -0.20116 -0.33525 0.920403 0.43479 -0.588197 0.681896 
0.258571 -0.563023 0.78495 0.0894036 -0.365308 0.926584 0.039273 -0.270945 0.961793 
0.0219611 -0.232632 0.972317 -0.0860485 -0.26185 0.961265 -0.128694 -0.306921 0.942994 
-0.0711164 -0.41725 0.906005 -0.147818 -0.515393 0.844109 0.266078 -0.763598 0.58832 
0.0855056 -0.635823 0.767084 -0.0995893 -0.709405 0.697729 -0.136108 -0.706575 0.694425 
0.366148 0.72788 0.579764 0.190896 0.731333 0.65476 0.0392603 0.762039 0.64634 
0.0331474 0.99479 0.0964023 -0.132296 0.74372 0.655269 -0.274578 0.674789 0.685031 
0.447288 0.675568 0.586124 0.518274 0.575768 0.632363 -0.311315 0.597936 0.738617 
-0.31752 0.535425 0.782625 -0.35842 0.677242 0.642556 -0.399043 0.406174 0.822063 
0.531631 0.550249 0.64389 0.515115 0.52825 0.674988 0.665578 0.74021 0.0953638 
-0.399337 0.39696 0.82641 -0.313036 0.366954 0.875987 -0.574509 0.708507 0.409826 
0.528256 0.476042 0.703086 0.565122 0.320958 0.760015 0.716724 0.66238 0.218082 
-0.30441 0.369801 0.877828 -0.257489 0.39342 0.882564 -0.435199 0.587002 0.682664 
0.561004 0.312718 0.766474 -0.283161 0.385954 0.877986 -0.321896 0.348177 0.880429 
-0.377324 0.458875 0.804401 -0.556399 0.669927 0.491547 0.580531 0.303772 0.755451 
0.59696 0.279768 0.75191 0.641723 0.326931 0.693764 -0.34977 0.324099 0.878989 
-0.36651 0.285095 0.885659 -0.437246 0.42264 0.793846 -0.651914 0.556529 0.515057 
0.598755 0.197758 0.776134 -0.325726 0.194596 0.925222 -0.471596 0.290394 0.832628 
0.677657 0.117038 0.726005 0.973882 0.104385 0.201635 -0.288107 0.0671025 0.955244 
-0.362371 0.0866949 0.927993 -0.741697 0.227003 0.631154 0.710242 -0.0280507 0.703399 
0.974913 -0.0609186 0.214086 -0.213986 -0.0989611 0.971811 -0.261923 -0.139358 0.954974 
-0.736522 -0.157387 0.657848 0.664889 -0.194058 0.721293 0.687208 -0.487856 0.538276 
-0.149148 -0.497968 0.854273 -0.181952 -0.455638 0.871371 -0.321858 -0.296836 0.899053 
-0.305065 -0.376015 0.874956 -0.429854 -0.31033 0.847892 0.685199 -0.492111 0.536963 
0.691859 -0.496529 0.524205 -0.287719 -0.649639 0.703695 -0.151348 -0.498087 0.853817 
-0.250386 -0.53802 0.804886 -0.150064 -0.50474 0.850128 -0.184074 -0.487647 0.853415 
-0.335036 -0.576077 0.745578 0.454221 -0.602685 0.656089 0.444596 -0.612791 0.653316 
0.334584 -0.671586 0.66108 -0.199385 -0.662954 0.721622 -0.111305 -0.629453 0.769026 
-0.286996 -0.651889 0.701907 -0.199836 -0.700753 0.684844 -0.28936 -0.657444 0.695728 
-0.263667 -0.878659 0.398043 -0.201234 -0.94635 0.252838 0.272441 -0.765922 0.582357 
0.370261 -0.928881 0.00937598 0.265804 -0.771484 0.578066 0.0863834 -0.82862 0.553106 
-0.101204 -0.775181 0.62358 -0.167398 -0.731907 0.660522 -0.142048 -0.743083 0.653949 
-0.22707 -0.860313 0.456401 -0.242177 -0.958506 0.150391 0.0301246 0.998654 -0.0422255 
0.447174 0.893132 -0.0484807 0.126085 0.991377 -0.0356957 0.230781 0.972638 -0.0267608 
-0.0936665 0.994737 -0.0415414 0.0299928 0.990436 -0.134675 -0.112959 0.992734 -0.0414784 
-0.213896 0.976664 0.019368 -0.387475 0.916561 0.09889 0.661298 0.750069 -0.00900636 
0.593756 0.804512 -0.0146477 0.609376 0.792879 -0.00208914 -0.543618 0.83565 0.0785386 
-0.546878 0.833334 0.0804972 -0.598144 0.775687 0.201328 0.664058 0.747646 -0.00727832 
0.711384 0.701646 0.0403109 0.662425 0.742695 -0.0979644 -0.577477 0.782756 0.231976 
-0.538307 0.789944 0.293623 0.724196 0.687964 0.0473967 0.691427 0.700764 -0.175669 
-0.552 0.757833 0.347829 -0.551289 0.748959 0.367615 -0.566834 0.710293 0.417353 
0.821329 0.550344 0.150135 0.827647 0.539993 0.152997 -0.580797 0.694223 0.425122 
-0.665492 0.603656 0.438998 0.900662 0.393758 0.183748 -0.685856 0.5752 0.44581 
0.949276 0.238387 0.205051 0.973959 0.105839 0.200505 -0.821031 0.409668 0.397594 
-0.861026 0.327871 0.38876 -0.887237 0.458133 -0.0540873 0.974226 0.104283 0.200024 
0.975729 0.104384 0.192502 -0.884297 0.231606 0.405434 0.981603 -0.0630256 0.180233 
0.980033 -0.105983 0.168232 0.996689 -0.0802359 0.0131962 -0.887624 -0.217512 0.405971 
-0.878306 -0.291679 0.378817 0.960563 -0.262746 0.0910146 -0.822382 -0.402829 0.401767 
-0.586093 -0.715969 0.37932 -0.873905 -0.484615 0.037931 0.865642 -0.496879 0.0614344 
0.760221 -0.648795 0.0335963 -0.228861 -0.907808 0.351435 -0.559735 -0.739324 0.374294 
-0.373233 -0.855598 0.358677 -0.631127 -0.761056 0.149908 0.6656 -0.746296 0.00435076 
0.532013 -0.846354 -0.0254358 -0.307935 -0.950923 -0.0303636 -0.284474 -0.958396 0.0234718 
-0.229422 -0.966098 0.118405 -0.0572296 -0.869564 -0.490493 -0.201148 -0.946649 0.251786 
-0.20071 -0.947118 0.250367 -0.194804 -0.955628 0.220969 0.368621 -0.92762 -0.0603245 
0.357471 -0.931854 -0.0621478 0.358934 -0.927326 -0.105988 0.236804 -0.965236 -0.110646 
0.212552 -0.872988 -0.438992 0.109006 -0.98372 -0.142871 -0.00936199 -0.744804 -0.667217 
0.00206397 -0.982623 -0.185602 -0.082882 -0.814078 -0.574811 -0.0844714 -0.98554 -0.146888 
-0.0334619 -0.798672 -0.600835 -0.196714 -0.9772 -0.079901 -0.106331 -0.895842 -0.431464 
-0.270808 -0.962615 0.00594565 -0.250576 -0.967919 0.018549 -0.225266 -0.964536 -0.137572 
0.373472 0.736094 -0.564521 0.193815 0.752178 -0.629812 0.0126165 0.763544 -0.645632 
-0.0675029 0.737985 -0.671432 -0.111678 0.755906 -0.645084 -0.279348 0.775103 -0.566728 
0.392321 0.726648 -0.563974 0.512008 0.608409 -0.606371 0.367313 0.717189 -0.592217 
0.128058 0.614228 -0.778669 -0.0178913 0.560993 -0.827627 -0.0569299 0.576047 -0.815432 
-0.0827181 0.623899 -0.777115 -0.333726 0.788253 -0.516996 -0.237289 0.716944 -0.655504 
-0.415691 0.807664 -0.418188 -0.499123 0.750926 -0.43242 0.542693 0.582411 -0.605212 
0.518803 0.572631 -0.634773 0.470281 0.512588 -0.718394 0.263863 0.375646 -0.888407 
0.0710601 0.348181 -0.93473 -0.0372653 0.314204 -0.948624 -0.0236867 0.323052 -0.946085 
0.00017933 0.364252 -0.931301 -0.0782544 0.427878 -0.900443 -0.299955 0.496081 -0.81482 
-0.495942 0.761301 -0.417688 -0.483899 0.735434 -0.474319 -0.459303 0.812458 -0.359101 
0.5339 0.594239 -0.601524 0.552097 0.607054 -0.571554 0.420693 0.484588 -0.766937 
0.337979 0.322011 -0.884352 -0.492866 0.840635 -0.224537 -0.361003 0.655133 -0.663685 
-0.493058 0.840667 -0.223994 -0.57894 0.793421 -0.187917 0.623244 0.5799 -0.524675 
0.72187 0.511557 -0.466061 0.444318 0.463343 -0.766743 0.306083 0.367541 -0.878195 
-0.240172 0.460213 -0.854705 -0.620092 0.759567 -0.196326 -0.518116 0.687579 -0.508715 
-0.722991 0.657472 -0.212164 0.819078 0.35094 -0.45382 0.650707 0.353849 -0.671842 
0.312577 0.315761 -0.895874 -0.280315 0.338578 -0.898214 -0.780515 0.5892 -0.208902 
-0.674981 0.510319 -0.532894 -0.867848 0.468701 -0.164802 0.845954 0.212875 -0.488924 
0.595371 0.0842607 -0.79902 -0.506632 0.193323 -0.840208 -0.880747 0.441188 -0.172155 
-0.868399 0.447627 -0.213338 0.865108 0.087533 -0.493889 0.586797 0.0653545 -0.807093 
-0.42737 0.0775256 -0.900747 -0.94305 0.183469 -0.277482 -0.85112 0.191065 -0.488968 
0.858339 -0.120142 -0.498819 0.507114 -0.0155242 -0.861739 -0.961131 -0.107021 -0.254507 
-0.849405 -0.114396 -0.515194 0.751205 -0.287184 -0.59432 0.582925 -0.304614 -0.753265 
0.279102 -0.189011 -0.941476 -0.057576 -0.264517 -0.962661 -0.848393 -0.491075 -0.197673 
-0.791897 -0.575319 -0.204714 -0.820134 -0.50864 -0.262042 0.660045 -0.453095 -0.599204 
0.625285 -0.492355 -0.605479 0.617298 -0.453922 -0.642571 0.347032 -0.364205 -0.864247 
0.117612 -0.343806 -0.931646 -0.0810665 -0.354877 -0.931392 -0.121404 -0.341601 -0.931971 
-0.0391408 -0.290595 -0.956045 0.0677038 -0.291551 -0.954156 0.0429755 -0.326722 -0.944143 
-0.0165298 -0.345124 -0.938412 0.0519481 -0.424373 -0.903996 -0.0532776 -0.86364 -0.501285 
0.0957292 -0.51224 -0.853491 -0.0530723 -0.933668 -0.354185 -0.157814 -0.954638 -0.25251 
-0.171131 -0.539549 -0.824379 -0.277019 -0.922825 -0.267685 -0.222833 -0.591915 -0.774585 
-0.654745 -0.716624 -0.240332 -0.638061 -0.737123 -0.222548 -0.618683 -0.71889 -0.316905 
0.396769 -0.689998 -0.605374 0.391181 -0.694035 -0.604395 0.391436 -0.688595 -0.610422 
0.238271 -0.686685 -0.686797 0.180504 -0.618963 -0.764397 0.177994 -0.685644 -0.70584 
0.0860692 -0.549886 -0.830794 -0.0123416 -0.727124 -0.686396 -0.0288633 -0.450854 -0.892131 
-0.111052 -0.600537 -0.791848 -0.0784298 -0.457281 -0.885857 -0.0159266 -0.575846 -0.817403 
-0.00466722 -0.425709 -0.904848 -0.00349434 -0.632834 -0.77428 0.0156827 -0.455246 -0.890228 
-0.0857354 -0.708085 -0.700903 -0.0371974 -0.521326 -0.852547 -0.183108 -0.733369 -0.654707 
-0.128115 -0.621643 -0.772753 -0.0583746 -0.859949 -0.50703 -0.134537 -0.797933 -0.587539 
-0.124522 -0.776646 -0.617507 0.210137 0.25677 -0.943351 0.059449 0.30642 -0.950038 
-0.0430987 0.263402 -0.963723 -0.00916016 0.217997 -0.975906 0.0201363 0.29407 -0.955572 
-0.0459051 0.32772 -0.943659 -0.143258 0.307515 -0.940697 -0.233805 0.441367 -0.866331 
0.243066 0.249334 -0.937418 0.221308 0.249872 -0.942649 0.192425 0.212883 -0.957942 
0.0188301 0.15949 -0.98702 -0.0519636 0.150138 -0.987298 0.00147742 0.135976 -0.990711 
0.0410402 0.204582 -0.977989 -0.0209886 0.207423 -0.978026 -0.0904794 0.253337 -0.963138 
-0.233954 0.441329 -0.866311 -0.231676 0.438367 -0.868424 -0.207938 0.409657 -0.888225 
0.217269 0.264183 -0.939681 0.247592 0.271442 -0.930063 0.177313 0.228236 -0.957324 
0.105658 0.0954474 -0.989811 0.0119697 0.0253892 -0.999606 -0.0724061 -0.028809 -0.996959 
0.0322753 -0.00467998 -0.999468 0.0868923 0.0709069 -0.993691 -0.0124021 0.0401222 -0.999118 
-0.0361681 0.101309 -0.994197 -0.0782737 0.183724 -0.979856 -0.195225 0.395062 -0.897671 
-0.165143 0.361176 -0.917758 -0.208332 0.365429 -0.907226 0.240337 0.254784 -0.936655 
0.269448 0.261528 -0.926823 0.205293 0.214495 -0.954907 0.0920944 0.163699 -0.982202 
-0.0100713 0.0921683 -0.995692 -0.103357 0.0117538 -0.994575 -0.0853758 0.00214094 -0.996347 
0.10299 0.139495 -0.984852 0.0814241 0.0124791 -0.996601 0.00478904 0.0120652 -0.999916 
0.0512166 -0.00140894 -0.998687 0.0551308 0.0775346 -0.995464 -0.075767 0.164485 -0.983465 
-0.268131 0.325847 -0.906603 -0.196878 0.235502 -0.951724 -0.275972 0.331415 -0.902222 
0.402112 0.146358 -0.903817 0.271195 0.201615 -0.941172 0.119066 0.134851 -0.983686 
0.0385707 0.0833678 -0.995772 -0.0497037 0.0589037 -0.997026 -0.0692074 0.0316466 -0.9971 
0.059607 0.122665 -0.990657 0.0332713 0.0285679 -0.999038 -0.0402504 0.0897475 -0.995151 
-0.0291873 0.0860581 -0.995862 0.0238263 -0.0517625 -0.998375 0.086367 -0.00295228 -0.996259 
0.016566 0.0170842 -0.999717 0.0189589 0.134499 -0.990732 -0.43116 0.192107 -0.881587 
-0.276375 0.339847 -0.898956 0.420066 0.0332445 -0.906884 0.323864 0.0141966 -0.945997 
0.129048 0.00323188 -0.991633 0.0159447 -0.00772198 -0.999843 -0.0622384 -0.0141137 -0.997962 
-0.0487487 -0.0106155 -0.998755 -0.0838567 -0.00716212 -0.996452 0.0685828 -0.145816 -0.986932 
0.172677 0.0106256 -0.984921 -0.17836 -0.0847627 -0.980308 -0.0185442 -0.0458405 -0.998777 
0.13136 -0.0171565 -0.991186 0.0624588 -0.0130838 -0.997962 0.0904194 0.0101042 -0.995853 
-0.416799 0.0749315 -0.905905 -0.238572 0.0344522 -0.970513 -0.392256 0.0808284 -0.916298 
0.454768 -0.0313609 -0.890058 0.248513 -0.174973 -0.952694 0.215748 -0.135635 -0.966983 
0.0984353 -0.115403 -0.988429 0.0216044 -0.0704562 -0.997281 -0.0522993 -0.0934609 -0.994248 
-0.0610725 -0.0898588 -0.99408 -0.0578848 -0.26128 -0.963526 -0.0678088 -0.160488 -0.984706 
0.0374112 -0.0555252 -0.997756 0.0280247 -0.187742 -0.981819 -0.0762577 -0.161902 -0.983856 
0.089289 -0.0445321 -0.99501 0.113746 -0.0380001 -0.992783 0.0446871 -0.0632333 -0.996998 
0.0741666 -0.115591 -0.990524 -0.19401 -0.202281 -0.959918 -0.39192 0.0738705 -0.917029 
-0.360696 0.0814218 -0.929123 0.238199 -0.186106 -0.953219 0.130198 -0.27747 -0.951871 
0.163793 -0.191784 -0.967673 0.0374851 -0.194813 -0.980124 -0.0809724 -0.339991 -0.936936 
-0.0803158 -0.195056 -0.977498 -0.0607765 -0.261648 -0.963248 -0.12205 -0.27544 -0.953539 
-0.11795 -0.214685 -0.969535 -0.0225762 -0.245956 -0.969018 0.0646311 -0.204737 -0.976681 
0.064103 -0.198916 -0.977918 0.0384726 -0.264153 -0.963713 0.0304237 -0.224539 -0.97399 
-0.00806151 -0.211909 -0.977256 -0.00522462 -0.156347 -0.987688 0.0995818 -0.268277 -0.958181 
0.114968 -0.172616 -0.978257 0.0980361 -0.490561 -0.865875 0.101484 -0.18061 -0.978305 
-0.0156679 -0.152205 -0.988225 -0.13746 -0.400166 -0.906075 -0.0416449 -0.237696 -0.970446 
-0.10612 -0.456244 -0.883504 -0.0878096 -0.425715 -0.900587 -0.466664 -0.306271 -0.829712 
-0.380056 -0.365758 -0.849576 -0.319672 -0.230896 -0.918965 0.0439765 -0.357901 -0.932723 
-0.0232731 -0.361297 -0.93216 0.02629 -0.373831 -0.927124 0.027501 -0.364698 -0.93072 
0.0484688 -0.524545 -0.850002 -0.0886071 -0.541455 -0.836047 -0.0540407 -0.571745 -0.818649 
-0.0526236 -0.554565 -0.830475 
