# vtk DataFile Version 4.2
vtk output
ASCII
DATASET POLYDATA
POINTS 550 float
1.03181 -32.9301 -16.7999 8.52583 -32.9301 -18.2998 16.0198 -32.9301 -18.6355 
23.5139 -32.9301 -17.5465 -28.9443 -25.4361 -16.9216 -21.4502 -25.4361 -18.5792 
-13.9562 -25.4361 -19.4068 -6.4622 -25.4361 -19.2369 1.03181 -25.4361 -19.4931 
8.52583 -25.4361 -20.9498 16.0198 -25.4361 -21.4666 23.5139 -25.4361 -20.4308 
31.0079 -25.4361 -18.7842 38.5019 -25.4361 -16.8323 -36.4383 -17.9421 -17.9005 
-28.9443 -17.9421 -18.9732 -21.4502 -17.9421 -19.7344 -13.9562 -17.9421 -20.2916 
-6.4622 -17.9421 -19.9131 1.03181 -17.9421 -19.3931 8.52583 -17.9421 -21.2019 
16.0198 -17.9421 -21.9422 23.5139 -17.9421 -21.3825 31.0079 -17.9421 -20.8771 
38.5019 -17.9421 -20.2393 45.9959 -17.9421 -18.2938 -43.9323 -10.4481 -16.7555 
-36.4383 -10.4481 -18.6652 -28.9443 -10.4481 -19.3387 -21.4502 -10.4481 -19.2613 
-13.9562 -10.4481 -19.5355 -6.4622 -10.4481 -19.6531 1.03181 -10.4481 -18.5363 
8.52583 -10.4481 -20.8555 16.0198 -10.4481 -21.5439 23.5139 -10.4481 -21.884 
31.0079 -10.4481 -22.6798 38.5019 -10.4481 -22.3249 45.9959 -10.4481 -21.3414 
53.4899 -10.4481 -18.3124 -43.9323 -2.95405 -16.3178 -36.4383 -2.95405 -18.1141 
-28.9443 -2.95405 -18.6989 -21.4502 -2.95405 -18.3533 -13.9562 -2.95405 -19.0014 
-6.4622 -2.95405 -20.6019 1.03181 -2.95405 -19.3409 8.52583 -2.95405 -20.7084 
16.0198 -2.95405 -20.806 23.5139 -2.95405 -21.9042 31.0079 -2.95405 -23.1245 
38.5019 -2.95405 -23.4907 45.9959 -2.95405 -22.6101 53.4899 -2.95405 -19.7304 
-28.9443 4.53996 -16.7588 -21.4502 4.53996 -17.0765 -13.9562 4.53996 -19.196 
-6.4622 4.53996 -19.59 1.03181 4.53996 -19.2676 8.52583 4.53996 -20.4773 
16.0198 4.53996 -20.4785 23.5139 4.53996 -21.8786 31.0079 4.53996 -22.9887 
38.5019 4.53996 -23.3787 45.9959 4.53996 -22.444 53.4899 4.53996 -19.2373 
-13.9562 12.034 -18.7066 -6.4622 12.034 -18.7736 1.03181 12.034 -19.6859 
8.52583 12.034 -21.3551 16.0198 12.034 -21.2699 23.5139 12.034 -22.0148 
31.0079 12.034 -22.8136 38.5019 12.034 -22.1619 45.9959 12.034 -20.4165 
-13.9562 19.528 -18.4882 -6.4622 19.528 -19.3216 1.03181 19.528 -20.3042 
8.52583 19.528 -21.8266 16.0198 19.528 -21.8121 23.5139 19.528 -21.4149 
31.0079 19.528 -21.2536 38.5019 19.528 -19.6191 -13.9562 27.022 -17.0203 
-6.4622 27.022 -18.1936 1.03181 27.022 -18.9534 8.52583 27.022 -20.0755 
16.0198 27.022 -20.8984 23.5139 27.022 -20.164 31.0079 27.022 -18.8617 
1.03181 -33.8643 -16.0653 8.52583 -35.6157 -16.0653 16.0198 -36.0062 -16.0653 
23.5139 -34.5811 -16.0653 -28.9443 -26.7451 -16.0653 -28.9443 -32.9301 -8.66144 
-21.4502 -29.5678 -16.0653 -21.4502 -32.9301 -12.5922 -13.9562 -31.7705 -16.0653 
-13.9562 -32.9301 -14.9343 -5.13647 -32.9301 -16.0653 -6.4622 -32.6159 -16.0653 
-6.4622 -32.9301 -15.8458 27.1395 -32.9301 -16.0653 31.0079 -30.3145 -16.0653 
31.0079 -32.9301 -13.9342 38.5019 -26.5432 -16.0653 38.5019 -32.9301 -9.29368 
-43.9323 -25.4361 -8.75295 -31.7573 -25.4361 -16.0653 -36.4383 -22.3569 -16.0653 
-36.4383 -25.4361 -14.0157 40.6935 -25.4361 -16.0653 45.9959 -22.1132 -16.0653 
45.9959 -25.4361 -12.8891 -51.4263 -17.9421 -8.69239 -41.6228 -17.9421 -16.0653 
-43.9323 -13.5567 -16.0653 -43.9323 -17.9421 -14.9236 49.7882 -17.9421 -16.0653 
53.4899 -14.519 -16.0653 53.4899 -17.9421 -11.9289 -45.1877 -10.4481 -16.0653 
-51.4263 -10.4481 -12.3995 55.8713 -10.4481 -16.0653 -44.4881 -2.95405 -16.0653 
-51.4263 -2.95405 -12.7307 -43.9323 -2.20274 -16.0653 -36.4383 3.70263 -16.0653 
57.2136 -2.95405 -16.0653 -51.4263 4.53996 -10.1086 -43.9323 4.53996 -13.8957 
-34.4125 4.53996 -16.0653 -36.4383 4.53996 -15.817 -28.9443 6.89517 -16.0653 
-21.4502 11.0083 -16.0653 56.7021 4.53996 -16.0653 53.4899 11.1597 -16.0653 
-43.9323 12.034 -10.8239 -36.4383 12.034 -13.091 -28.9443 12.034 -14.5791 
-21.0381 12.034 -16.0653 -21.4502 12.034 -15.9076 52.9233 12.034 -16.0653 
45.9959 19.1466 -16.0653 53.4899 12.034 -15.193 -36.4383 19.528 -10.6147 
-28.9443 19.528 -12.5515 -19.8192 19.528 -16.0653 -21.4502 19.528 -15.3618 
45.5178 19.528 -16.0653 38.5019 25.4135 -16.0653 45.9959 19.528 -15.6098 
-28.9443 27.022 -9.96915 -16.1726 27.022 -16.0653 -21.4502 27.022 -13.4788 
-13.9562 28.5102 -16.0653 -6.4622 30.7336 -16.0653 1.03181 31.2249 -16.0653 
8.52583 32.5385 -16.0653 16.0198 33.2494 -16.0653 23.5139 32.9612 -16.0653 
36.6691 27.022 -16.0653 31.0079 30.7623 -16.0653 38.5019 27.022 -14.2756 
-13.9562 34.516 -9.81829 -6.4622 34.516 -11.6753 1.03181 34.516 -10.9641 
8.52583 34.516 -11.4956 16.0198 34.516 -13.5645 23.5139 34.516 -13.287 
31.0079 34.516 -9.13229 -28.9443 -32.9803 -8.5713 -21.4502 -35.2216 -8.5713 
-13.9562 -36.5718 -8.5713 -6.4622 -37.7736 -8.5713 1.03181 -39.3253 -8.5713 
8.52583 -40.2486 -8.5713 16.0198 -39.8277 -8.5713 23.5139 -38.6356 -8.5713 
31.0079 -36.6192 -8.5713 38.5019 -33.2935 -8.5713 -43.9323 -25.6019 -8.5713 
-29.0798 -32.9301 -8.5713 -36.4383 -29.8281 -8.5713 39.0765 -32.9301 -8.5713 
38.5019 -32.9301 -1.80866 45.9959 -27.7396 -8.5713 -44.1177 -25.4361 -8.5713 
-51.4263 -18.0756 -8.5713 48.5759 -25.4361 -8.5713 53.4899 -20.0218 -8.5713 
-51.5252 -17.9421 -8.5713 55.1307 -17.9421 -8.5713 -54.9319 -10.4481 -8.5713 
58.8366 -10.4481 -8.5713 -55.5606 -2.95405 -8.5713 -58.9203 -2.95405 -1.36186 
60.3406 -2.95405 -8.5713 -53.1516 4.53996 -8.5713 -51.4263 8.04062 -8.5713 
59.9147 4.53996 -8.5713 -48.1481 12.034 -8.5713 -51.4263 12.034 -6.4264 
-43.9323 18.3979 -8.5713 56.2424 12.034 -8.5713 53.4899 15.8968 -8.5713 
-51.4263 19.528 -1.86544 -42.6992 19.528 -8.5713 -43.9323 19.528 -8.15672 
-36.4383 24.627 -8.5713 50.3926 19.528 -8.5713 45.9959 24.3418 -8.5713 
-43.9323 27.022 -2.39229 -33.2624 27.022 -8.5713 -36.4383 27.022 -7.43583 
-28.9443 28.8806 -8.5713 -21.4502 33.0669 -8.5713 42.9813 27.022 -8.5713 
38.5019 30.7115 -8.5713 -28.9443 34.516 -2.15202 -17.1527 34.516 -8.5713 
-21.4502 34.516 -6.08212 -13.9562 35.3 -8.5713 -6.4622 36.0203 -8.5713 
1.03181 35.5641 -8.5713 8.52583 35.4083 -8.5713 16.0198 36.1746 -8.5713 
23.5139 36.2887 -8.5713 31.5393 34.516 -8.5713 31.0079 34.7559 -8.5713 
-28.9443 -34.7057 -1.07728 -21.4502 -36.3934 -1.07728 -13.9562 -37.9596 -1.07728 
-6.4622 -39.1024 -1.07728 1.03181 -40.1085 -1.07728 8.52583 -40.1425 -1.07728 
16.0198 -39.3512 -1.07728 23.5139 -38.2482 -1.07728 31.0079 -36.6658 -1.07728 
-43.9323 -28.3517 -1.07728 -34.5327 -32.9301 -1.07728 -36.4383 -32.2791 -1.07728 
38.4195 -32.9301 -1.07728 31.0079 -32.9301 4.97379 38.5019 -32.878 -1.07728 
45.9959 -27.15 -1.07728 -47.6554 -25.4361 -1.07728 -51.4263 -21.7944 -1.07728 
47.6864 -25.4361 -1.07728 45.9959 -25.4361 0.954026 53.4899 -17.988 -1.07728 
-54.4621 -17.9421 -1.07728 45.9959 -17.9421 5.19486 53.5225 -17.9421 -1.07728 
53.4899 -17.9421 -1.03122 -58.0369 -10.4481 -1.07728 -58.9203 -3.86275 -1.07728 
56.0167 -10.4481 -1.07728 53.4899 -10.4481 2.43631 -59.0373 -2.95405 -1.07728 
-58.9203 -1.98823 -1.07728 -58.9203 -2.95405 2.56506 58.3663 -2.95405 -1.07728 
53.4899 -2.95405 4.76357 -58.0962 4.53996 -1.07728 58.0871 4.53996 -1.07728 
53.4899 4.53996 5.65084 -56.1157 12.034 -1.07728 55.4308 12.034 -1.07728 
53.4899 15.2637 -1.07728 53.4899 12.034 2.6863 -52.2053 19.528 -1.07728 
-51.4263 20.8054 -1.07728 50.4504 19.528 -1.07728 45.9959 24.6206 -1.07728 
-45.8859 27.022 -1.07728 -43.9323 28.5066 -1.07728 -36.4383 33.0375 -1.07728 
43.5245 27.022 -1.07728 38.5019 31.2798 -1.07728 -31.4472 34.516 -1.07728 
-36.4383 34.516 3.0526 -28.9443 35.1639 -1.07728 -21.4502 36.5668 -1.07728 
-13.9562 37.4616 -1.07728 -6.4622 37.4755 -1.07728 1.03181 36.3496 -1.07728 
8.52583 35.572 -1.07728 16.0198 36.1749 -1.07728 23.5139 36.62 -1.07728 
32.6168 34.516 -1.07728 31.0079 35.2588 -1.07728 31.0079 34.516 2.18801 
-28.9443 -34.2208 6.41674 -21.4502 -35.777 6.41674 -13.9562 -37.2074 6.41674 
-6.4622 -38.0884 6.41674 1.03181 -38.0358 6.41674 8.52583 -36.6383 6.41674 
16.0198 -35.4562 6.41674 23.5139 -34.327 6.41674 -43.9323 -28.0773 6.41674 
-33.1636 -32.9301 6.41674 -36.4383 -31.8766 6.41674 -28.9443 -32.9301 9.43416 
-21.4502 -32.9301 12.3746 1.03181 -32.9301 13.5691 8.52583 -32.9301 10.746 
16.0198 -32.9301 9.45338 27.8508 -32.9301 6.41674 23.5139 -32.9301 7.96196 
31.0079 -31.5685 6.41674 38.5019 -26.1934 6.41674 -47.2066 -25.4361 6.41674 
-51.4263 -21.2386 6.41674 -43.9323 -25.4361 11.4584 31.0079 -25.4361 10.8674 
39.2452 -25.4361 6.41674 38.5019 -25.4361 6.89399 -53.9497 -17.9421 6.41674 
-51.4263 -17.9421 11.0944 31.0079 -17.9421 13.7942 44.368 -17.9421 6.41674 
38.5019 -17.9421 9.90845 45.9959 -15.1004 6.41674 -57.4691 -10.4481 6.41674 
38.5019 -10.4481 11.6416 49.0682 -10.4481 6.41674 45.9959 -10.4481 8.10073 
-58.7944 -2.95405 6.41674 51.8882 -2.95405 6.41674 45.9959 -2.95405 10.9558 
-58.7368 4.53996 6.41674 52.8456 4.53996 6.41674 45.9959 4.53996 12.0455 
-57.7082 12.034 6.41674 51.1687 12.034 6.41674 45.9959 12.034 11.7918 
-54.5312 19.528 6.41674 -51.4263 24.4838 6.41674 -51.4263 19.528 12.2909 
47.2254 19.528 6.41674 45.9959 21.1246 6.41674 45.9959 19.528 7.93646 
-49.453 27.022 6.41674 -43.9323 31.6436 6.41674 31.0079 33.4837 6.41674 
40.663 27.022 6.41674 38.5019 28.9351 6.41674 38.5019 27.022 8.97262 
-38.4543 34.516 6.41674 -36.4383 35.548 6.41674 -36.4383 34.516 9.31335 
-28.9443 36.8764 6.41674 -21.4502 37.5349 6.41674 -13.9562 37.8559 6.41674 
-6.4622 37.8096 6.41674 1.03181 36.678 6.41674 8.52583 35.6824 6.41674 
16.0198 35.651 6.41674 16.0198 34.516 12.5786 27.3082 34.516 6.41674 
23.5139 35.4506 6.41674 23.5139 34.516 9.19104 -13.9562 -33.0275 13.9108 
-6.4622 -33.7266 13.9108 -36.4383 -28.0779 13.9108 -28.9443 -30.5197 13.9108 
-14.711 -32.9301 13.9108 -21.4502 -31.8351 13.9108 -13.9562 -32.9301 14.0124 
-0.892885 -32.9301 13.9108 -6.4622 -32.9301 14.7043 1.03181 -32.4917 13.9108 
8.52583 -28.6861 13.9108 16.0198 -27.2465 13.9108 23.5139 -25.4992 13.9108 
-41.4428 -25.4361 13.9108 -43.9323 -23.7932 13.9108 -36.4383 -25.4361 16.6058 
-28.9443 -25.4361 18.2093 -21.4502 -25.4361 18.2761 -13.9562 -25.4361 19.0267 
-6.4622 -25.4361 19.6268 1.03181 -25.4361 18.3953 8.52583 -25.4361 15.8608 
[...]
POINT_DATA 550
SCALARS ImageScalars float
LOOKUP_TABLE default
0 0 0 0 0 0 0 0 0 
0 0 0 0 0 0 0 0 0 
0 0 0 0 0 0 0 0 0 
0 0 0 0 0 0 0 0 0 
0 0 0 0 0 0 0 0 0 
0 0 0 0 0 0 0 0 0 
0 0 0 0 0 0 0 0 0 
0 0 0 0 0 0 0 0 0 
0 0 0 0 0 0 0 0 0 
0 0 0 0 0 0 0 0 0 
0 0 0 0 0 0 0 0 0 
0 0 0 0 0 0 0 0 0 
0 0 0 0 0 0 0 0 0 
0 0 0 0 0 0 0 0 0 
0 0 0 0 0 0 0 0 0 
0 0 0 0 0 0 0 0 0 
0 0 0 0 0 0 0 0 0 
0 0 0 0 0 0 0 0 0 
0 0 0 0 0 0 0 0 0 
0 0 0 0 0 0 0 0 0 
0 0 0 0 0 0 0 0 0 
0 0 0 0 0 0 0 0 0 
0 0 0 0 0 0 0 0 0 
0 0 0 0 0 0 0 0 0 
0 0 0 0 0 0 0 0 0 
0 0 0 0 0 0 0 0 0 
0 0 0 0 0 0 0 0 0 
0 0 0 0 0 0 0 0 0 
0 0 0 0 0 0 0 0 0 
0 0 0 0 0 0 0 0 0 
0 0 0 0 0 0 0 0 0 
0 0 0 0 0 0 0 0 0 
0 0 0 0 0 0 0 0 0 
0 0 0 0 0 0 0 0 0 
0 0 0 0 0 0 0 0 0 
0 0 0 0 0 0 0 0 0 
0 0 0 0 0 0 0 0 0 
0 0 0 0 0 0 0 0 0 
0 0 0 0 0 0 0 0 0 
0 0 0 0 0 0 0 0 0 
0 0 0 0 0 0 0 0 0 
0 0 0 0 0 0 0 0 0 
0 0 0 0 0 0 0 0 0 
0 0 0 0 0 0 0 0 0 
0 0 0 0 0 0 0 0 0 
0 0 0 0 0 0 0 0 0 
0 0 0 0 0 0 0 0 0 
0 0 0 0 0 0 0 0 0 
0 0 0 0 0 0 0 0 0 
0 0 0 0 0 0 0 0 0 
0 0 0 0 0 0 0 0 0 
0 0 0 0 0 0 0 0 0 
0 0 0 0 0 0 0 0 0 
0 0 0 0 0 0 0 0 0 
0 0 0 0 0 0 0 0 0 
0 0 0 0 0 0 0 0 0 
0 0 0 0 0 0 0 0 0 
0 0 0 0 0 0 0 0 0 
0 0 0 0 0 0 0 0 0 
0 0 0 0 0 0 0 0 0 
0 0 0 0 0 0 0 0 0 
0 
NORMALS Normals float
0.145269 0.530013 0.835454 0.111498 0.525589 0.8434 -0.042531 0.549486 0.83442 
-0.233581 0.575884 0.783453 0.245037 0.44291 0.862431 0.161537 0.349698 0.922831 
0.0421609 0.276459 0.960101 0.0050567 0.236125 0.971709 0.113315 0.14945 0.982255 
0.128259 0.168048 0.977399 -0.0319433 0.195082 0.980267 -0.170903 0.225309 0.959181 
-0.204169 0.352738 0.913176 -0.277424 0.51641 0.810159 0.239634 0.237531 0.941358 
0.124333 0.147413 0.981229 0.0890207 0.0409022 0.99519 0.0149378 0.00758847 0.99986 
-0.0610473 0.0275488 0.997755 0.0838045 -0.0645316 0.99439 0.16964 -0.00559767 0.98549 
0.0100079 0.00553043 0.999935 -0.0695622 0.0925948 0.993271 -0.07241 0.240855 0.967856 
-0.143081 0.313918 0.938607 -0.351199 0.444873 0.823861 0.368229 0.0717462 0.926963 
0.159569 0.0176885 0.987028 0.0381883 -0.0163638 0.999137 0.0130817 -0.0892539 0.995923 
0.0262359 -0.0852067 0.996018 -0.0677984 0.0471572 0.996584 0.0747272 -0.00315842 0.997199 
0.203951 -0.032553 0.97844 0.0652276 -0.075369 0.99502 0.0748371 0.0349438 0.996583 
0.0278327 0.14438 0.989131 -0.0888151 0.200817 0.975594 -0.238778 0.231175 0.943156 
-0.600105 0.308601 0.737997 0.330818 -0.182057 0.925967 0.146742 -0.18243 0.972207 
0.0162473 -0.167563 0.985727 0.0187393 -0.145048 0.989247 0.150605 -0.0241304 0.988299 
0.0186927 -0.0020956 0.999823 0.00782131 0.0497968 0.998729 0.0959407 -0.0246759 0.995081 
0.0792101 -0.0707499 0.994344 0.151669 -0.000369209 0.988431 0.106072 0.019862 0.99416 
-0.0322077 0.0712261 0.99694 -0.205676 0.0781502 0.975495 -0.576607 0.0613123 0.814718 
0.0816756 -0.274359 0.958152 0.155766 -0.155622 0.975458 0.165476 -0.0207212 0.985996 
0.0042294 -0.127586 0.991819 0.0632267 0.021818 0.997761 0.0776672 0.0431046 0.996047 
0.0931089 0.0297428 0.995212 0.165693 0.00733719 0.98615 0.0986804 -0.0200629 0.994917 
-0.0336336 -0.0864795 0.995686 -0.232141 -0.136785 0.963016 -0.600838 -0.219227 0.768722 
0.187133 -0.0459125 0.981261 0.0607774 -0.0153173 0.998034 0.179438 0.0703879 0.981248 
0.0968102 0.0894395 0.991276 0.0443604 0.0893396 0.995013 0.099909 -0.030715 0.994522 
0.0116697 -0.12261 0.992386 -0.147456 -0.227907 0.962453 -0.359171 -0.355409 0.862949 
0.251488 -0.106394 0.961995 0.117538 -0.03637 0.992402 0.16462 -0.0459189 0.985288 
0.100134 -0.0780525 0.991908 -0.0272013 -0.0184758 0.999459 -0.0372508 -0.118209 0.99229 
-0.105016 -0.24773 0.963121 -0.307138 -0.399003 0.863981 0.277647 -0.386967 0.8793 
0.122904 -0.329019 0.936291 0.12498 -0.391412 0.911689 0.125422 -0.418922 0.899318 
0.0045734 -0.348767 0.937198 -0.129855 -0.358698 0.924377 -0.275351 -0.478318 0.833903 
0.14832 0.575871 0.803974 0.104605 0.675957 0.729479 -0.055059 0.718075 0.693784 
-0.247622 0.668716 0.701073 0.262782 0.514008 0.816542 0.315522 0.875669 0.365581 
0.198969 0.578257 0.79122 0.223415 0.8127 0.538149 0.118079 0.646719 0.753533 
0.134594 0.739295 0.659793 0.0970915 0.607356 0.788474 0.0831429 0.606406 0.790797 
0.0895261 0.629687 0.771673 -0.288491 0.623069 0.72702 -0.295349 0.552368 0.779525 
-0.340198 0.720271 0.604545 -0.301641 0.552707 0.776871 -0.492392 0.831252 0.258013 
0.553088 0.672412 0.491889 0.29256 0.501131 0.814418 0.324585 0.441159 0.836674 
0.383637 0.611837 0.691721 -0.33936 0.555862 0.758849 -0.428019 0.553276 0.714622 
-0.547142 0.695078 0.466371 0.708279 0.49767 0.500665 0.398909 0.318189 0.860016 
0.413158 0.187618 0.891123 0.474406 0.373068 0.797346 -0.494978 0.527299 0.690618 
-0.634584 0.449228 0.628885 -0.736369 0.588982 0.332958 0.403592 0.0835704 0.911115 
0.650269 0.183258 0.73727 -0.746867 0.301839 0.592523 0.341507 -0.178069 0.922857 
0.562877 -0.134156 0.815581 0.329716 -0.19459 0.923808 0.171913 -0.289925 0.941483 
-0.761742 0.0542899 0.645602 0.579051 -0.316789 0.751229 0.333339 -0.3098 0.890454 
0.149703 -0.295958 0.943397 0.17328 -0.3038 0.936846 0.10989 -0.268885 0.956883 
0.256607 -0.113379 0.959843 -0.757357 -0.236581 0.608638 -0.682118 -0.452817 0.57417 
0.356607 -0.358686 0.862656 0.226113 -0.321196 0.919623 0.17328 -0.253825 0.951602 
0.268647 -0.103519 0.95766 0.271233 -0.107437 0.956499 -0.662735 -0.476974 0.577302 
-0.533489 -0.583511 0.612295 -0.702295 -0.489841 0.516562 0.268735 -0.331957 0.904205 
0.280085 -0.269801 0.921282 0.343587 -0.127419 0.930437 0.368251 -0.137283 0.919535 
-0.528879 -0.582886 0.616871 -0.485065 -0.57837 0.655897 -0.550664 -0.597288 0.583109 
0.337676 -0.456768 0.823006 0.316053 -0.379746 0.869427 0.392067 -0.387591 0.8343 
0.277029 -0.460795 0.843163 0.118317 -0.564106 0.817182 0.0841808 -0.658469 0.747885 
0.0974027 -0.774237 0.625356 0.0214726 -0.801355 0.597804 -0.126323 -0.749795 0.6495 
-0.465834 -0.594749 0.655189 -0.32108 -0.674331 0.66497 -0.53849 -0.650164 0.536018 
0.179366 -0.852165 0.491572 0.0539108 -0.879753 0.472365 -0.0128763 -0.925728 0.37797 
0.0663798 -0.947892 0.311599 0.0357348 -0.910163 0.412705 -0.118276 -0.890405 0.439534 
-0.312898 -0.91582 0.251729 0.315071 0.877284 0.362083 0.219743 0.918862 0.327729 
0.164559 0.931424 0.324607 0.175236 0.92041 0.349483 0.155636 0.940903 0.300797 
0.0285384 0.976682 0.212787 -0.102529 0.982185 0.15748 -0.204507 0.961845 0.181746 
-0.342711 0.903568 0.257127 -0.495088 0.84266 0.211687 0.553206 0.679382 0.482083 
0.316005 0.876504 0.363155 0.384456 0.806761 0.448698 -0.505704 0.836461 0.211177 
-0.525855 0.823832 -0.211606 -0.614203 0.768591 0.17895 0.556746 0.675436 0.48355 
0.70862 0.502376 0.495455 -0.667113 0.728768 0.154456 -0.791047 0.601381 0.112183 
0.711528 0.498069 0.495636 -0.821121 0.562577 0.0962701 0.813149 0.220294 0.538758 
-0.949057 0.314099 0.0251454 0.799767 -0.0902536 0.593487 0.980306 0.00143403 0.197478 
-0.996503 0.0682637 0.0481774 0.654203 -0.28457 0.700742 0.549783 -0.368698 0.749533 
-0.961015 -0.268424 0.0663154 0.433582 -0.394299 0.810268 0.561799 -0.423621 0.710582 
0.397482 -0.391591 0.829858 -0.856376 -0.502949 0.116885 -0.784877 -0.600752 0.151868 
0.719462 -0.439099 0.538114 0.380969 -0.388987 0.83878 0.408904 -0.403351 0.8186 
0.33332 -0.446947 0.830142 -0.725172 -0.660117 0.195886 -0.675613 -0.705001 0.215687 
0.482517 -0.637516 0.600626 0.34822 -0.487542 0.800653 0.370686 -0.522027 0.768166 
0.335075 -0.539225 0.772633 0.308456 -0.760379 0.571558 -0.634989 -0.736722 0.23244 
-0.564258 -0.789077 0.242839 0.230969 -0.87359 0.428361 0.216903 -0.851287 0.47777 
0.245365 -0.86663 0.434453 0.162514 -0.885825 0.43463 0.0150174 -0.948153 0.317459 
-0.0407121 -0.965499 0.257204 0.0448236 -0.986389 0.158201 0.0551674 -0.986925 0.151446 
-0.0827827 -0.977984 0.191559 -0.327947 -0.917099 0.226671 -0.310736 -0.923092 0.22659 
0.256467 0.963556 0.0760521 0.207544 0.977489 0.0379673 0.177748 0.983312 0.0387677 
0.143623 0.989474 0.0177288 0.0683776 0.994842 -0.0749291 -0.0468674 0.97879 -0.199435 
-0.119094 0.959938 -0.253646 -0.167817 0.956971 -0.236738 -0.326777 0.917307 -0.227519 
0.548619 0.828889 0.109361 0.353037 0.930254 0.0999673 0.386271 0.915699 0.110863 
-0.521385 0.814037 -0.255931 -0.329474 0.728162 -0.601022 -0.523708 0.812354 -0.256535 
-0.667482 0.661881 -0.341147 0.627446 0.768598 0.124778 0.7394 0.661271 0.126525 
-0.696824 0.620695 -0.359409 -0.660227 0.583044 -0.473455 -0.785594 0.457354 -0.416737 
0.837733 0.530168 0.130861 -0.555789 0.368989 -0.744947 -0.786014 0.45623 -0.417176 
-0.784855 0.456123 -0.419469 0.950033 0.27308 0.151207 0.982561 0.0359702 0.182429 
-0.822676 0.289609 -0.489214 -0.746447 0.256961 -0.61383 0.982674 0.0044273 0.185292 
0.979629 -0.0173239 0.20007 0.999044 0.040446 -0.0165739 -0.871004 0.110289 -0.478736 
-0.728091 0.119127 -0.67505 0.936427 -0.173432 0.305002 -0.897455 -0.184757 -0.400548 
-0.765792 -0.0541319 -0.640806 0.8665 -0.336575 0.368638 -0.876017 -0.399843 -0.269665 
-0.835991 -0.500803 -0.224312 -0.839513 -0.344453 -0.420203 0.745721 -0.442047 0.498493 
0.724759 -0.473536 0.500489 -0.76637 -0.624266 -0.151551 -0.712479 -0.692363 -0.114052 
0.538725 -0.650174 0.535769 0.48926 -0.68526 0.539485 0.335681 -0.795178 0.504986 
-0.670686 -0.735843 -0.0933519 -0.573775 -0.815167 -0.0792721 0.245049 -0.873059 0.421567 
0.337315 -0.918242 0.207483 0.20467 -0.900567 0.383521 0.144179 -0.956374 0.254091 
0.0560457 -0.986374 0.154676 -0.0752017 -0.989827 0.120775 -0.12896 -0.988961 0.0729803 
-0.0111641 -0.999779 0.0178307 0.0693802 -0.996996 -0.0344205 -0.0530432 -0.997163 -0.0534139 
-0.366866 -0.927345 -0.0737544 -0.312589 -0.947049 -0.0733912 -0.323598 -0.927889 -0.185221 
0.239996 0.943796 -0.22727 0.187731 0.950644 -0.24705 0.148499 0.949482 -0.276462 
0.0532305 0.951912 -0.30171 -0.0834825 0.902154 -0.423259 -0.153563 0.816358 -0.556757 
-0.124718 0.803774 -0.581715 -0.185781 0.780985 -0.596279 0.545478 0.813829 -0.200341 
0.30068 0.926923 -0.224512 0.354048 0.907958 -0.224191 0.232154 0.903911 -0.359235 
0.143491 0.813027 -0.564268 -0.194862 0.649714 -0.734779 -0.185271 0.681879 -0.707613 
-0.13224 0.72669 -0.674118 -0.268451 0.714345 -0.646255 -0.200724 0.736669 -0.645777 
-0.335078 0.6451 -0.686708 -0.482848 0.476455 -0.734744 0.619732 0.753621 -0.219062 
0.743921 0.625842 -0.234315 0.536085 0.703712 -0.466264 -0.384678 0.437285 -0.812899 
-0.492556 0.453049 -0.743058 -0.482937 0.447906 -0.752431 0.823834 0.513603 -0.239811 
0.728985 0.508145 -0.45866 -0.398952 0.213833 -0.891691 -0.529106 0.332581 -0.780664 
-0.45664 0.25937 -0.851004 -0.50064 0.337635 -0.797096 0.925553 0.283633 -0.250806 
-0.389244 0.274123 -0.879401 -0.531492 0.28842 -0.796448 -0.4428 0.307237 -0.842338 
0.969033 0.078315 -0.234185 -0.669318 0.13533 -0.730547 -0.495624 0.222037 -0.839676 
0.980634 -0.0693472 -0.183159 -0.736653 -0.0407375 -0.675043 -0.568182 0.0539351 -0.821133 
0.955106 -0.260386 -0.141318 -0.774435 -0.263042 -0.575377 -0.655968 -0.162508 -0.737087 
0.890872 -0.447776 -0.0764461 0.800536 -0.591746 -0.0947591 0.705105 -0.447928 -0.549716 
-0.738482 -0.491336 -0.461772 -0.725182 -0.526784 -0.443407 -0.719643 -0.464255 -0.516315 
0.723236 -0.68644 -0.0756952 0.537762 -0.842044 -0.0421102 -0.347169 -0.874331 -0.339144 
-0.629189 -0.677449 -0.381031 -0.584661 -0.718375 -0.376973 -0.586783 -0.650818 -0.48179 
0.381246 -0.923868 -0.03347 0.332364 -0.942802 -0.0256618 0.353782 -0.905985 -0.232442 
0.125473 -0.991622 -0.0307112 0.0640454 -0.99648 -0.0540959 0.018118 -0.996844 -0.0772895 
-0.07909 -0.994057 -0.074806 -0.144064 -0.988505 -0.0458589 -0.0681834 -0.996925 -0.0386334 
-0.0149634 -0.992693 -0.119738 -0.115318 -0.932394 -0.342554 -0.230669 -0.93048 -0.284602 
-0.124904 -0.963516 -0.236719 -0.18002 -0.924545 -0.335871 0.0928178 0.731473 -0.675524 
-0.0170588 0.731097 -0.682061 0.314618 0.732654 -0.603517 0.187877 0.766142 -0.614597 
0.0961938 0.733213 -0.67316 0.11863 0.729675 -0.673426 0.0922872 0.727444 -0.679933 
-0.152117 0.661718 -0.734159 -0.0220447 0.699893 -0.713907 -0.200078 0.632133 -0.748584 
-0.181059 0.542978 -0.819995 -0.115517 0.5421 -0.832336 -0.229194 0.442115 -0.867182 
0.449894 0.664118 -0.597112 0.510178 0.62116 -0.594876 0.294867 0.629103 -0.719224 
0.0886454 0.531071 -0.842678 0.049296 0.423504 -0.904552 0.0848633 0.349961 -0.932913 
-0.0287532 0.419112 -0.907479 -0.232207 0.449587 -0.862526 -0.182534 0.465263 -0.866147 
-0.111716 0.498725 -0.859531 -0.231523 0.439796 -0.867742 -0.2294 0.440005 -0.8682 
0.641845 0.481906 -0.596491 0.692014 0.395612 -0.603828 0.436146 0.403183 -0.8045 
0.151874 0.323793 -0.933859 -0.0207986 0.25818 -0.965873 -0.0661404 0.197327 -0.978104 
0.102707 0.0814982 -0.991367 -0.195579 0.174302 -0.965074 -0.151113 0.28029 -0.947947 
-0.15449 0.35288 -0.922826 -0.395722 0.214891 -0.892875 -0.31185 0.264632 -0.912535 
-0.398293 0.210287 -0.892828 0.74756 0.262263 -0.610223 0.655471 0.253474 -0.711414 
0.359134 0.125899 -0.924755 -0.138591 0.0916788 -0.986097 0.0278272 0.0175912 -0.999458 
-0.0457197 0.0652364 -0.996822 -0.122343 0.162786 -0.979047 -0.380919 0.213478 -0.899627 
-0.391332 0.219003 -0.89381 -0.393264 0.194067 -0.898711 -0.370798 0.283426 -0.884408 
0.773153 0.0632797 -0.631055 0.613593 0.0418787 -0.788511 0.311015 -0.00942518 -0.950358 
-0.0385809 0.0541381 -0.997788 -0.042707 -0.00415308 -0.999079 -0.0727412 -0.0355277 -0.996718 
0.103173 0.00584319 -0.994646 -0.00560419 0.000942087 -0.999984 -0.256437 0.134924 -0.957097 
-0.333851 0.289102 -0.897197 -0.388325 0.269102 -0.881355 -0.365663 0.282526 -0.886831 
0.75492 -0.0660766 -0.652479 0.591468 -0.0668975 -0.803549 0.292994 -0.100507 -0.950817 
0.0165626 0.0722752 -0.997247 -0.0791423 0.137614 -0.987319 -0.0082211 0.110011 -0.993896 
-0.00427439 -0.0214337 -0.999761 -0.0908759 0.0433011 -0.99492 -0.241673 0.133783 -0.961091 
-0.518554 0.103556 -0.848751 -0.437359 0.14488 -0.88754 0.726063 -0.208889 -0.655132 
0.640049 -0.367412 -0.674793 0.608577 -0.222452 -0.761675 0.341354 -0.101496 -0.934439 
-0.0769064 0.0613677 -0.995148 -0.0998639 0.00263644 -0.994998 -0.233041 -0.0345804 -0.971852 
-0.563291 -0.103429 -0.819759 -0.43371 -0.0608388 -0.898996 0.60432 -0.406034 -0.685517 
0.409133 -0.267616 -0.872348 0.1422 -0.201365 -0.96914 0.0808419 -0.122825 -0.98913 
-0.17942 -0.119316 -0.97651 -0.302914 -0.227587 -0.925444 -0.560436 -0.361113 -0.745325 
-0.535707 -0.429915 -0.726767 -0.512294 -0.344799 -0.786555 0.53333 -0.560356 -0.633688 
0.504216 -0.594371 -0.62649 0.494362 -0.546274 -0.676158 0.343501 -0.712685 -0.611627 
0.291332 -0.453626 -0.842228 0.117924 -0.374717 -0.919609 0.0937976 -0.321646 -0.942203 
0.0401769 -0.276646 -0.960132 0.00927582 -0.27764 -0.96064 0.0317031 -0.29433 -0.955178 
-0.141207 -0.903971 -0.403606 -0.16818 -0.34808 -0.922256 -0.277647 -0.772277 -0.571402 
-0.292114 -0.439391 -0.849473 -0.473062 -0.562041 -0.678471 -0.423406 -0.615582 -0.664671 
-0.420721 -0.530772 -0.735714 0.200139 -0.828584 -0.522869 0.177383 -0.839042 -0.514338 
0.1795 -0.82808 -0.531097 0.0888895 -0.867062 -0.490206 0.0894076 -0.809907 -0.579704 
0.0355293 -0.879405 -0.474746 0.0371049 -0.793289 -0.607714 -0.0356558 -0.886906 -0.460571 
-0.0224696 -0.800313 -0.599162 -0.0801958 -0.918269 -0.387752 -0.0662768 -0.870066 -0.488459 
-0.116613 -0.919978 -0.374222 -0.0844602 -0.935467 -0.343174 -0.0826954 -0.918789 -0.38599 
0.0387517 0.226181 -0.973314 0.136612 0.221339 -0.965581 -0.0233886 0.246459 -0.968871 
0.0818585 0.112976 -0.99022 -0.146802 0.16703 -0.974962 0.0673737 0.138954 -0.988004 
-0.140371 0.0290705 -0.989672 0.225838 0.108976 -0.96805 0.122841 0.102378 -0.987132 
-0.137802 0.0916722 -0.986208 -0.0520787 0.0856595 -0.994962 -0.138674 0.0900365 -0.986237 
0.0636954 -0.0353559 -0.997343 -0.0152318 -0.0162949 -0.999751 0.0808113 -0.0585188 -0.99501 
-0.0851117 -0.0690218 -0.993978 -0.089666 -0.086738 -0.992188 -0.0916728 -0.0915268 -0.991574 
0.250121 -0.0162104 -0.968079 0.110662 -0.0259894 -0.993518 -0.0412131 -0.0212232 -0.998925 
-0.104882 0.0249449 -0.994172 -0.141292 0.00738933 -0.98994 -0.035031 0.00423733 -0.999377 
0.168379 -0.0596131 -0.983918 0.120945 -0.0470087 -0.991545 -0.0199658 -0.0677699 -0.997501 
-0.0352157 0.0119725 -0.999308 -0.0632664 -0.0208503 -0.997779 0.00552757 0.0566694 -0.998378 
0.0133123 0.0577479 -0.998242 -0.0440262 0.0782808 -0.995959 -0.0137481 0.0285932 -0.999497 
-0.0397024 0.112563 -0.992851 -0.0403513 0.121889 -0.991723 0.178466 -0.0883465 -0.979972 
0.139523 -0.119221 -0.983016 0.142704 -0.0910497 -0.985569 0.0239405 -0.0892517 -0.995721 
-0.0150436 -0.0674538 -0.997609 0.000908903 0.00295177 -0.999995 0.00919791 0.0393463 -0.999183 
0.0201859 0.000179259 -0.999796 0.0127213 0.0807104 -0.996656 -0.0702225 0.0881921 -0.993625 
-0.0587948 0.127819 -0.990053 -0.101418 0.0211928 -0.994618 0.0577773 -0.0918025 -0.9941 
0.053074 -0.107448 -0.992793 0.0469389 -0.0780291 -0.995845 0.0322597 -0.19997 -0.979271 
0.0134937 -0.0287723 -0.999495 0.0178502 -0.149205 -0.988645 0.027128 -0.0464217 -0.998554 
0.0330529 -0.276719 -0.960382 0.0495732 -0.0395483 -0.997987 -0.0298004 -0.0227764 -0.999296 
-0.142001 -0.050946 -0.988555 -0.140262 -0.126164 -0.982043 -0.12794 -0.0240997 -0.991489 
-0.00205135 -0.314467 -0.949266 -0.053409 -0.338963 -0.939283 -0.0434557 -0.346748 -0.936951 
-0.0432954 -0.339804 -0.939499 
