# vtk DataFile Version 4.2
vtk output
ASCII
DATASET POLYDATA
POINTS 552 float
-6.13722 3.66409 -18.4896 -28.7288 18.7251 -18.3781 -28.7288 -41.5191 -13.8889 
-21.1983 -41.5191 -15.2269 -13.6678 -41.5191 -15.8565 -6.13722 -41.5191 -15.3436 
1.3933 -41.5191 -14.0269 8.92383 -41.5191 -12.0923 -36.2593 -33.9885 -14.4649 
-28.7288 -33.9885 -16.5564 -21.1983 -33.9885 -17.3006 -13.6678 -33.9885 -17.2255 
-6.13722 -33.9885 -16.7167 1.3933 -33.9885 -15.6965 8.92383 -33.9885 -15.0039 
16.4544 -33.9885 -14.6129 23.9849 -33.9885 -14.4806 31.5154 -33.9885 -13.4135 
39.0459 -33.9885 -11.6374 -43.7899 -26.458 -12.0541 -36.2593 -26.458 -15.6023 
-28.7288 -26.458 -16.9905 -21.1983 -26.458 -17.8407 -13.6678 -26.458 -17.2394 
-6.13722 -26.458 -16.6215 1.3933 -26.458 -15.8234 8.92383 -26.458 -15.6433 
16.4544 -26.458 -15.5226 23.9849 -26.458 -15.4849 31.5154 -26.458 -15.1655 
39.0459 -26.458 -14.1654 46.5765 -26.458 -11.6727 -43.7899 -18.9275 -14.1562 
-36.2593 -18.9275 -16.3846 -28.7288 -18.9275 -16.6545 -21.1983 -18.9275 -16.7481 
-13.6678 -18.9275 -16.4918 -6.13722 -18.9275 -15.5563 1.3933 -18.9275 -15.0995 
8.92383 -18.9275 -14.5998 16.4544 -18.9275 -15.196 23.9849 -18.9275 -16.1241 
31.5154 -18.9275 -16.059 39.0459 -18.9275 -14.5526 46.5765 -18.9275 -11.6392 
-51.3204 -11.397 -11.2027 -43.7899 -11.397 -15.0886 -36.2593 -11.397 -16.9767 
-28.7288 -11.397 -16.3488 -21.1983 -11.397 -15.7327 -13.6678 -11.397 -14.7398 
-6.13722 -11.397 -14.739 1.3933 -11.397 -16.6488 8.92383 -11.397 -15.2543 
16.4544 -11.397 -14.5336 23.9849 -11.397 -15.6986 31.5154 -11.397 -15.9574 
39.0459 -11.397 -14.9227 46.5765 -11.397 -12.262 -51.3204 -3.86643 -12.7406 
-43.7899 -3.86643 -15.4549 -36.2593 -3.86643 -16.3911 -28.7288 -3.86643 -15.9631 
-21.1983 -3.86643 -14.8066 -13.6678 -3.86643 -14.3047 -6.13722 2.80447 -18.3485 
-6.13722 -3.86643 -17.0822 1.3933 -3.86643 -13.997 8.92383 -3.86643 -16.4095 
16.4544 -3.86643 -14.5258 23.9849 -3.86643 -15.4001 31.5154 -3.86643 -15.5656 
39.0459 -3.86643 -14.5191 46.5765 -3.86643 -11.9487 -51.3204 3.66409 -14.0091 
-43.7899 3.66409 -16.4187 -36.2593 3.66409 -17.0208 -28.7288 3.66409 -16.5092 
-21.1983 3.66409 -14.9249 -6.36006 3.66409 -18.3485 -13.6678 3.66409 -13.661 
-5.73946 3.66409 -18.3485 -6.13722 4.08741 -18.3485 1.3933 3.66409 -14.5557 
8.92383 3.66409 -17.4811 16.4544 3.66409 -14.5819 23.9849 3.66409 -14.5299 
31.5154 3.66409 -14.4686 39.0459 3.66409 -13.5786 46.5765 3.66409 -10.9762 
-51.3204 11.1946 -14.7556 -43.7899 11.1946 -17.0921 -36.2593 11.1946 -17.6857 
-28.7288 18.4984 -18.3485 -28.7288 11.1946 -17.3873 -21.1983 11.1946 -16.5188 
-13.6678 11.1946 -14.8719 -6.13722 11.1946 -15.7613 1.3933 11.1946 -17.4141 
8.92383 11.1946 -17.0482 16.4544 11.1946 -15.6469 23.9849 11.1946 -14.6115 
31.5154 11.1946 -14.2095 39.0459 11.1946 -12.5678 -51.3204 18.7251 -12.9688 
-43.7899 18.7251 -16.8166 -29.124 18.7251 -18.3485 -36.2593 18.7251 -17.8144 
-28.516 18.7251 -18.3485 -28.7288 19.0078 -18.3485 -21.1983 18.7251 -17.33 
-13.6678 18.7251 -16.2258 -6.13722 18.7251 -16.036 1.3933 18.7251 -15.3497 
8.92383 18.7251 -15.6323 16.4544 18.7251 -16.0634 23.9849 18.7251 -15.2468 
31.5154 18.7251 -14.1444 39.0459 18.7251 -11.4597 -43.7899 26.2557 -15.047 
-36.2593 26.2557 -17.6686 -28.7288 26.2557 -17.5831 -21.1983 26.2557 -17.9001 
-13.6678 26.2557 -16.9998 -6.13722 26.2557 -16.5302 1.3933 26.2557 -15.6844 
8.92383 26.2557 -15.2848 16.4544 26.2557 -15.3283 23.9849 26.2557 -14.7788 
31.5154 26.2557 -13.2381 -43.7899 33.7862 -11.7121 -36.2593 33.7862 -14.4366 
-28.7288 33.7862 -16.0906 -21.1983 33.7862 -16.9529 -13.6678 33.7862 -16.145 
-6.13722 33.7862 -15.7037 1.3933 33.7862 -14.9266 8.92383 33.7862 -14.1709 
16.4544 33.7862 -13.3598 23.9849 33.7862 -12.6029 -21.1983 41.3167 -11.1542 
-13.6678 41.3167 -12.0303 -6.13722 41.3167 -12.0347 1.3933 41.3167 -11.7722 
-28.7288 -44.5283 -10.818 -21.1983 -47.5185 -10.818 -13.6678 -48.3063 -10.818 
-6.13722 -47.5601 -10.818 1.3933 -45.7174 -10.818 8.92383 -43.0893 -10.818 
-34.6884 -41.5191 -10.818 -36.2593 -40.2449 -10.818 -36.2593 -41.5191 -6.81371 
15.2954 -41.5191 -10.818 16.4544 -41.0767 -10.818 16.4544 -41.5191 -10.1294 
23.9849 -39.7832 -10.818 23.9849 -41.5191 -7.00029 31.5154 -37.7284 -10.818 
39.0459 -34.973 -10.818 -41.6206 -33.9885 -10.818 -43.7899 -30.0498 -10.818 
-43.7899 -33.9885 -6.44199 40.2394 -33.9885 -10.818 46.5765 -27.7342 -10.818 
-45.4072 -26.458 -10.818 47.5166 -26.458 -10.818 -50.2741 -18.9275 -10.818 
-51.3204 -14.0673 -10.818 -51.3204 -18.9275 -9.36393 47.9279 -18.9275 -10.818 
54.107 -18.9275 -5.68123 -51.7708 -11.397 -10.818 48.97 -11.397 -10.818 
54.107 -11.397 -7.09395 -53.7154 -3.86643 -10.818 48.529 -3.86643 -10.818 
54.107 -3.86643 -7.12916 -55.1367 3.66409 -10.818 -58.8509 3.66409 -3.46132 
46.8694 3.66409 -10.818 46.5765 4.49422 -10.818 54.107 3.66409 -6.38863 
-55.4642 11.1946 -10.818 43.5628 11.1946 -10.818 46.5765 11.1946 -9.40886 
54.107 11.1946 -3.52823 -53.4679 18.7251 -10.818 -51.3204 26.0393 -10.818 
40.5541 18.7251 -10.818 39.0459 21.4419 -10.818 46.5765 18.7251 -7.5381 
-51.2338 26.2557 -10.818 -51.3204 26.2557 -10.6268 36.8695 26.2557 -10.818 
31.5154 32.5985 -10.818 39.0459 26.2557 -9.60941 46.5765 26.2557 -4.811 
-44.8405 33.7862 -10.818 -43.7899 34.6311 -10.818 -36.2593 38.1612 -10.818 
-28.7288 40.6651 -10.818 8.92383 40.5112 -10.818 16.4544 38.2655 -10.818 
29.9305 33.7862 -10.818 23.9849 37.3934 -10.818 31.5154 33.7862 -10.2363 
39.0459 33.7862 -6.80555 -23.7805 41.3167 -10.818 -28.7288 41.3167 -8.66352 
-21.1983 41.6032 -10.818 -13.6678 42.4391 -10.818 -6.13722 42.4925 -10.818 
6.63862 41.3167 -10.818 1.3933 42.4736 -10.818 8.92383 41.3167 -10.2685 
16.4544 41.3167 -8.64025 23.9849 41.3167 -7.93893 31.5154 41.3167 -3.98873 
-36.2593 -42.0411 -3.28744 -28.7288 -46.1364 -3.28744 -21.1983 -48.2005 -3.28744 
-13.6678 -48.7144 -3.28744 -6.13722 -48.1456 -3.28744 1.3933 -46.7771 -3.28744 
8.92383 -45.103 -3.28744 16.4544 -43.6341 -3.28744 23.9849 -42.7002 -3.28744 
-36.9744 -41.5191 -3.28744 -43.7899 -35.0861 -3.28744 -36.2593 -41.5191 -2.15207 
8.92383 -41.5191 3.57797 16.4544 -41.5191 1.22815 28.9894 -41.5191 -3.28744 
23.9849 -41.5191 -0.408555 31.5154 -40.9242 -3.28744 39.0459 -37.9848 -3.28744 
-44.7036 -33.9885 -3.28744 -43.7899 -33.9885 -1.03362 44.7226 -33.9885 -3.28744 
46.5765 -32.3983 -3.28744 -50.0231 -26.458 -3.28744 -51.3204 -24.0386 -3.28744 
51.5267 -26.458 -3.28744 54.107 -21.8344 -3.28744 -53.7554 -18.9275 -3.28744 
55.5943 -18.9275 -3.28744 -56.5904 -11.397 -3.28744 57.1239 -11.397 -3.28744 
-58.1911 -3.86643 -3.28744 -58.8509 3.06669 -3.28744 57.4548 -3.86643 -3.28744 
-58.9066 3.66409 -3.28744 -58.8509 5.52217 -3.28744 -58.8509 3.66409 -3.02624 
56.8433 3.66409 -3.28744 -58.6845 11.1946 -3.28744 54.3173 11.1946 -3.28744 
54.107 11.7855 -3.28744 -56.712 18.7251 -3.28744 51 18.7251 -3.28744 
54.107 18.7251 3.31773 -53.4819 26.2557 -3.28744 -51.3204 29.2931 -3.28744 
-51.3204 26.2557 2.89712 47.7613 26.2557 -3.28744 46.5765 28.0238 -3.28744 
-47.2401 33.7862 -3.28744 -43.7899 36.3928 -3.28744 -43.7899 33.7862 4.03988 
-36.2593 40.1234 -3.28744 42.1721 33.7862 -3.28744 39.0459 36.9005 -3.28744 
-32.5318 41.3167 -3.28744 -28.7288 42.5799 -3.28744 -28.7288 41.3167 0.764948 
-21.1983 43.4567 -3.28744 -21.1983 41.3167 3.79028 -13.6678 44.3843 -3.28744 
-6.13722 45.4486 -3.28744 1.3933 46.4711 -3.28744 8.92383 46.2991 -3.28744 
16.4544 45.5365 -3.28744 23.9849 44.7177 -3.28744 32.3013 41.3167 -3.28744 
31.5154 41.768 -3.28744 -28.7288 -42.6023 4.24309 -21.1983 -43.4191 4.24309 
-13.6678 -43.984 4.24309 -6.13722 -43.2987 4.24309 1.3933 -42.129 4.24309 
-30.7888 -41.5191 4.24309 -36.2593 -37.3971 4.24309 -28.7288 -41.5191 5.45312 
-21.1983 -41.5191 6.28715 -13.6678 -41.5191 6.86693 -6.13722 -41.5191 5.9651 
5.73422 -41.5191 4.24309 1.3933 -41.5191 4.90768 8.92383 -40.9282 4.24309 
16.4544 -39.3324 4.24309 23.9849 -38.773 4.24309 31.5154 -38.0836 4.24309 
39.0459 -35.7564 4.24309 -40.4028 -33.9885 4.24309 -43.7899 -30.2702 4.24309 
-36.2593 -33.9885 7.56442 -28.7288 -33.9885 10.4985 -6.13722 -33.9885 11.2496 
1.3933 -33.9885 10.1838 8.92383 -33.9885 8.86872 16.4544 -33.9885 8.48311 
23.9849 -33.9885 8.21723 31.5154 -33.9885 7.84257 42.3553 -33.9885 4.24309 
39.0459 -33.9885 7.28556 46.5765 -31.4093 4.24309 -46.4483 -26.458 4.24309 
-51.3204 -19.6892 4.24309 -43.7899 -26.458 7.0251 -36.2593 -26.458 11.6771 
51.8315 -26.458 4.24309 46.5765 -26.458 10.8033 54.107 -23.3738 4.24309 
-51.727 -18.9275 4.24309 -51.3204 -18.9275 4.74883 -43.7899 -18.9275 10.2653 
56.8508 -18.9275 4.24309 54.107 -18.9275 9.93255 -54.7624 -11.397 4.24309 
-51.3204 -11.397 8.1883 59.1925 -11.397 4.24309 -55.893 -3.86643 4.24309 
-51.3204 -3.86643 10.0798 60.2809 -3.86643 4.24309 -56.8601 3.66409 4.24309 
-51.3204 3.66409 9.82915 59.5357 3.66409 4.24309 -56.3967 11.1946 4.24309 
-51.3204 11.1946 9.91313 57.4116 11.1946 4.24309 -54.6528 18.7251 4.24309 
-51.3204 25.4069 4.24309 -51.3204 18.7251 8.50831 54.423 18.7251 4.24309 
54.107 19.2543 4.24309 54.107 18.7251 5.32511 -50.6763 26.2557 4.24309 
-43.7899 33.6756 4.24309 -43.7899 26.2557 9.87434 49.9956 26.2557 4.24309 
46.5765 30.9392 4.24309 46.5765 26.2557 10.5548 -43.6339 33.7862 4.24309 
-36.2593 37.3909 4.24309 -36.2593 33.7862 8.3328 -28.7288 39.9471 4.24309 
-28.7288 33.7862 10.6126 -21.1983 41.145 4.24309 44.0762 33.7862 4.24309 
39.0459 38.6019 4.24309 39.0459 33.7862 11.5434 -20.0606 41.3167 4.24309 
-13.6678 42.1664 4.24309 -13.6678 41.3167 5.50221 -6.13722 43.7299 4.24309 
-6.13722 41.3167 8.05902 1.3933 45.4082 4.24309 1.3933 41.3167 11.0458 
8.92383 46.7352 4.24309 16.4544 46.9802 4.24309 23.9849 46.1172 4.24309 
35.0188 41.3167 4.24309 31.5154 43.3298 4.24309 31.5154 41.3167 8.46111 
-21.1983 -34.4049 11.7736 -13.6678 -34.4919 11.7736 -22.4947 -33.9885 11.7736 
-28.7288 -31.454 11.7736 -21.1983 -33.9885 12.0197 -11.0457 -33.9885 11.7736 
-13.6678 -33.9885 12.0411 -6.13722 -32.7645 11.7736 1.3933 -30.4043 11.7736 
[...]
POINT_DATA 552
SCALARS ImageScalars float
LOOKUP_TABLE default
0 0 0 0 0 0 0 0 0 
0 0 0 0 0 0 0 0 0 
0 0 0 0 0 0 0 0 0 
0 0 0 0 0 0 0 0 0 
0 0 0 0 0 0 0 0 0 
0 0 0 0 0 0 0 0 0 
0 0 0 0 0 0 0 0 0 
0 0 0 0 0 0 0 0 0 
0 0 0 0 0 0 0 0 0 
0 0 0 0 0 0 0 0 0 
0 0 0 0 0 0 0 0 0 
0 0 0 0 0 0 0 0 0 
0 0 0 0 0 0 0 0 0 
0 0 0 0 0 0 0 0 0 
0 0 0 0 0 0 0 0 0 
0 0 0 0 0 0 0 0 0 
0 0 0 0 0 0 0 0 0 
0 0 0 0 0 0 0 0 0 
0 0 0 0 0 0 0 0 0 
0 0 0 0 0 0 0 0 0 
0 0 0 0 0 0 0 0 0 
0 0 0 0 0 0 0 0 0 
0 0 0 0 0 0 0 0 0 
0 0 0 0 0 0 0 0 0 
0 0 0 0 0 0 0 0 0 
0 0 0 0 0 0 0 0 0 
0 0 0 0 0 0 0 0 0 
0 0 0 0 0 0 0 0 0 
0 0 0 0 0 0 0 0 0 
0 0 0 0 0 0 0 0 0 
0 0 0 0 0 0 0 0 0 
0 0 0 0 0 0 0 0 0 
0 0 0 0 0 0 0 0 0 
0 0 0 0 0 0 0 0 0 
0 0 0 0 0 0 0 0 0 
0 0 0 0 0 0 0 0 0 
0 0 0 0 0 0 0 0 0 
0 0 0 0 0 0 0 0 0 
0 0 0 0 0 0 0 0 0 
0 0 0 0 0 0 0 0 0 
0 0 0 0 0 0 0 0 0 
0 0 0 0 0 0 0 0 0 
0 0 0 0 0 0 0 0 0 
0 0 0 0 0 0 0 0 0 
0 0 0 0 0 0 0 0 0 
0 0 0 0 0 0 0 0 0 
0 0 0 0 0 0 0 0 0 
0 0 0 0 0 0 0 0 0 
0 0 0 0 0 0 0 0 0 
0 0 0 0 0 0 0 0 0 
0 0 0 0 0 0 0 0 0 
0 0 0 0 0 0 0 0 0 
0 0 0 0 0 0 0 0 0 
0 0 0 0 0 0 0 0 0 
0 0 0 0 0 0 0 0 0 
0 0 0 0 0 0 0 0 0 
0 0 0 0 0 0 0 0 0 
0 0 0 0 0 0 0 0 0 
0 0 0 0 0 0 0 0 0 
0 0 0 0 0 0 0 0 0 
0 0 0 0 0 0 0 0 0 
0 0 0 
NORMALS Normals float
0.173019 -0.104482 0.979361 -0.0320502 0.0127364 0.999405 0.317079 0.572546 0.756077 
0.107443 0.462929 0.87986 0.00868749 0.383118 0.923658 -0.134815 0.408037 0.902957 
-0.232352 0.473782 0.849437 -0.218053 0.627862 0.747156 0.427176 0.315681 0.84727 
0.168937 0.161851 0.972247 0.0374563 0.161041 0.986237 -0.0395284 0.09305 0.994876 
-0.102462 0.0823715 0.991321 -0.12133 0.120474 0.985274 -0.0686659 0.215866 0.974006 
-0.0428231 0.267039 0.962734 -0.0637731 0.33258 0.940916 -0.215114 0.429732 0.876958 
-0.428207 0.53938 0.725058 0.571028 0.308238 0.760866 0.289094 0.104463 0.951584 
0.133933 0.00316161 0.990985 0.022748 -0.0328088 0.999203 -0.0804448 -0.0441061 0.995783 
-0.092444 -0.0763913 0.992783 -0.0643371 -0.0401619 0.99712 -0.0205511 -0.0249084 0.999478 
-0.0099352 0.0319708 0.999439 -0.0223384 0.112858 0.99336 -0.0731575 0.15451 0.985279 
-0.253419 0.206652 0.945026 -0.562319 0.32386 0.760862 0.364975 0.168723 0.915601 
0.175721 0.0892127 0.980389 0.0229455 -0.0449957 0.998724 -0.0092163 -0.138766 0.990282 
-0.081381 -0.162642 0.983323 -0.0874776 -0.121455 0.988735 -0.0633444 0.0368106 0.997313 
0.0065628 -0.0308626 0.999502 0.100427 -0.0650145 0.992818 0.0567978 0.0140827 0.998286 
-0.0952049 0.0473198 0.994332 -0.272505 0.0435988 0.961166 -0.473667 0.0364316 0.87995 
0.652645 0.147644 0.743139 0.306503 0.0820362 0.948328 0.0943398 -0.0020506 0.995538 
-0.0798611 -0.045498 0.995767 -0.10246 -0.123978 0.986981 -0.0675539 -0.133601 0.98873 
0.109029 0.0763422 0.991103 0.0516355 -0.0149771 0.998554 -0.142535 0.123762 0.982022 
0.0405029 -0.0444206 0.998192 0.0940075 -0.0477861 0.994424 -0.0489248 -0.0333087 0.998247 
-0.222541 -0.000699766 0.974923 -0.442034 0.0161935 0.896852 0.532871 0.158692 0.831183 
0.207845 0.0883607 0.974163 0.0302974 0.00489169 0.999529 -0.10137 0.0105206 0.994793 
-0.108202 -0.0556131 0.992572 0.134677 -0.0750859 0.988041 0.157846 -0.0582094 0.985747 
0.0229434 0.225943 0.97387 -0.0470877 -0.169189 0.984458 -0.0221917 0.143452 0.989408 
-0.0460436 0.00317413 0.998934 0.0686906 -0.0772724 0.994641 -0.0519951 -0.0956336 0.994058 
-0.227669 -0.0882523 0.969731 -0.408095 -0.0773617 0.909656 0.500065 0.108274 0.859192 
0.169222 0.106588 0.979797 0.0036913 0.0857242 0.996312 -0.135463 0.093325 0.986377 
-0.185231 0.102497 0.977335 0.178282 -0.102047 0.978674 0.0996947 0.0394943 0.994234 
0.162218 -0.0913138 0.982521 0.175126 -0.11141 0.978222 0.0636019 0.2638 0.962478 
-0.0723516 0.0348429 0.99677 -0.190842 0.0758069 0.978689 -0.00724573 -0.0522272 0.998609 
-0.0625968 -0.092618 0.993732 -0.213343 -0.123383 0.969155 -0.405013 -0.14257 0.903127 
0.516402 -0.0512244 0.854813 0.160282 0.027473 0.986689 0.0168285 0.0525822 0.998475 
-0.0330455 0.0162358 0.999322 -0.0733498 0.127914 0.989069 -0.160623 0.162314 0.973578 
-0.0478265 0.171175 0.984079 0.158678 -0.0904744 0.983176 0.0810683 -0.0203175 0.996501 
-0.118654 -0.123622 0.98521 -0.154107 0.0975039 0.983231 -0.0962027 0.0472575 0.994239 
-0.131759 -0.0200723 0.991078 -0.293642 -0.128244 0.947274 0.656036 -0.223126 0.720993 
0.268412 -0.135662 0.953704 -0.0256386 0.0124244 0.999594 0.0943361 -5.39201e-05 0.99554 
-0.0351639 0.0147465 0.999273 -0.0304471 0.00691222 0.999512 -0.140875 0.0836302 0.986489 
-0.0872214 0.134113 0.98712 -0.0586914 0.0489191 0.997077 -0.0277856 -0.0897459 0.995577 
0.048229 -0.112336 0.992499 -0.0265199 -0.0204111 0.99944 -0.123898 0.0107154 0.992237 
-0.233591 -0.0668817 0.970032 -0.358723 -0.174303 0.917026 0.386124 -0.28109 0.878577 
0.17022 -0.219124 0.960734 0.0154586 -0.148094 0.988852 -0.0399107 -0.0147509 0.999094 
-0.0890477 -0.00718429 0.996001 -0.0849971 -0.0198508 0.996183 -0.0851258 -0.0276119 0.995988 
-0.0222199 -0.0876169 0.995906 -0.0341167 -0.163422 0.985966 -0.138239 -0.168801 0.975908 
-0.29948 -0.215489 0.929449 0.520168 -0.650601 0.553302 0.25552 -0.52985 0.808683 
0.157395 -0.374203 0.913892 5.57961e-05 -0.354155 0.935187 -0.0731986 -0.275267 0.958577 
-0.0818031 -0.251787 0.964319 -0.0968182 -0.236646 0.96676 -0.0958958 -0.295457 0.950531 
-0.101515 -0.370219 0.923381 -0.169105 -0.371172 0.913036 0.100575 -0.823814 0.557867 
0.0485896 -0.76479 0.642445 -0.0168908 -0.701287 0.712679 -0.100288 -0.596675 0.796192 
0.405112 0.765422 0.500014 0.186365 0.868929 0.458509 0.0018656 0.911547 0.411191 
-0.145574 0.878786 0.454471 -0.252373 0.808132 0.532194 -0.253521 0.733152 0.631043 
0.533345 0.682382 0.499897 0.558649 0.645048 0.521368 0.591864 0.793691 0.140545 
-0.205575 0.766022 0.609056 -0.187852 0.763997 0.617268 -0.197373 0.824421 0.530447 
-0.126312 0.746379 0.653425 -0.166453 0.951923 0.257168 -0.281557 0.658012 0.698388 
-0.439779 0.586093 0.680507 0.644074 0.465156 0.607288 0.638337 0.405776 0.654119 
0.77595 0.59835 0.199698 -0.462357 0.564818 0.683525 -0.583743 0.384789 0.71497 
0.618137 0.355929 0.700872 -0.601192 0.337702 0.724241 0.672101 0.253292 0.69579 
0.681706 0.183126 0.708337 0.781493 0.288834 0.553031 -0.510624 0.0661547 0.857255 
-0.803106 0.316953 0.504541 0.671235 0.151609 0.725574 -0.485209 0.0204857 0.874158 
-0.712383 0.0636769 0.698896 0.645718 0.160115 0.7466 -0.458174 -0.0710381 0.886019 
-0.685454 -0.0397326 0.727031 0.713314 0.0816647 0.696071 0.997349 0.0323958 0.0651518 
-0.412075 -0.143256 0.899818 -0.413536 -0.144183 0.898999 -0.689892 -0.184875 0.699907 
0.765705 -0.0905785 0.636782 -0.405056 -0.151742 0.901612 -0.488193 -0.18314 0.853304 
-0.754014 -0.307815 0.58027 0.745552 -0.226429 0.626804 0.71789 -0.41695 0.557482 
-0.391691 -0.185983 0.901104 -0.393862 -0.19868 0.89744 -0.602717 -0.240494 0.760852 
0.715638 -0.421665 0.556831 0.724978 -0.427321 0.540189 -0.417736 -0.232676 0.87827 
-0.316504 -0.410284 0.855273 -0.474839 -0.255852 0.842061 -0.712834 -0.433559 0.551266 
0.557392 -0.660169 0.503479 0.526417 -0.686278 0.501904 0.333472 -0.770136 0.543771 
0.184759 -0.851447 0.490817 -0.156537 -0.563605 0.811076 -0.101024 -0.538539 0.836522 
-0.283172 -0.43133 0.856603 -0.169736 -0.502799 0.847575 -0.322797 -0.457488 0.828557 
-0.566969 -0.531316 0.629484 0.133348 -0.84669 0.515106 0.203066 -0.925877 0.318616 
0.10502 -0.837171 0.536763 0.0571917 -0.827426 0.558655 0.0023713 -0.765375 0.64358 
-0.14118 -0.598451 0.788622 -0.085675 -0.654071 0.751566 -0.157345 -0.616613 0.771383 
-0.110902 -0.7006 0.704884 -0.191726 -0.7204 0.666532 -0.437813 -0.791513 0.426411 
0.559489 0.818317 -0.131639 0.369598 0.918762 -0.138828 0.16383 0.965789 -0.201027 
-0.00400842 0.978417 -0.206601 -0.121526 0.971317 -0.20439 -0.207656 0.959346 -0.191138 
-0.203935 0.969893 -0.13311 -0.161394 0.982101 -0.0971113 -0.182733 0.981626 -0.0549445 
0.578101 0.806218 -0.125745 0.764719 0.642575 -0.0479846 0.560303 0.805525 -0.192848 
-0.134602 0.770931 -0.622534 -0.132787 0.89183 -0.432442 -0.252979 0.966963 -0.0313858 
-0.143941 0.953801 -0.263712 -0.287869 0.957502 -0.0179341 -0.482488 0.875276 0.0331265 
0.78007 0.624421 -0.0398647 0.751592 0.632265 -0.188016 -0.6288 0.767102 0.127142 
-0.678985 0.715833 0.162979 0.849073 0.527934 0.0189959 0.879265 0.475558 0.0271368 
-0.818483 0.511937 0.260779 -0.849901 0.403357 0.339074 0.924696 0.376622 0.0556199 
-0.873881 0.332821 0.354348 0.950829 0.288732 0.112061 -0.888412 0.12584 0.441463 
0.986288 0.149773 0.0693059 0.99771 0.0405432 0.054148 -0.854612 -0.0171671 0.518983 
0.998072 0.0315129 0.0534726 0.998916 -0.0102919 0.0454007 0.99881 0.0313847 0.0373296 
-0.832618 -0.180331 0.523669 0.990386 -0.136541 0.022196 -0.762196 -0.309223 0.568717 
-0.7602 -0.316215 0.567542 0.950023 -0.310541 0.0319352 -0.751538 -0.352418 0.557667 
-0.884029 -0.460247 0.0816442 0.860727 -0.508453 -0.0250091 0.805464 -0.59208 -0.0258691 
0.745122 -0.534128 -0.399374 -0.757521 -0.445793 0.476896 -0.745895 -0.468825 0.473121 
0.661708 -0.748682 -0.0402245 0.555306 -0.830154 -0.0497959 0.520199 -0.707858 -0.477838 
0.355796 -0.933343 -0.0477492 -0.679352 -0.593733 0.431233 -0.591864 -0.687453 0.420839 
0.286805 -0.956928 -0.0450673 0.220443 -0.974521 -0.0413978 0.219887 -0.935986 -0.274916 
0.117274 -0.992542 -0.03327 0.122654 -0.891529 -0.436041 0.131246 -0.991136 -0.0205998 
0.136451 -0.98808 0.0712749 0.0588828 -0.989411 0.132664 -0.0587958 -0.953162 0.296692 
-0.103115 -0.903973 0.414971 -0.234585 -0.8835 0.40546 -0.451758 -0.801738 0.391318 
-0.437804 -0.809797 0.390585 0.270769 0.742169 -0.613082 0.0788741 0.729749 -0.67915 
-0.00557762 0.725037 -0.688687 -0.0955487 0.706153 -0.701582 -0.121493 0.727408 -0.675364 
0.330643 0.726051 -0.60293 0.484525 0.656106 -0.578585 0.26131 0.706934 -0.657238 
0.0713019 0.694172 -0.716269 -0.0186902 0.670814 -0.741391 -0.0913502 0.660872 -0.744919 
-0.12201 0.732313 -0.669949 -0.115937 0.710068 -0.694523 -0.125172 0.725906 -0.676308 
-0.0889425 0.729029 -0.67868 -0.0570519 0.758188 -0.649535 -0.185728 0.768907 -0.61179 
-0.340544 0.844561 -0.413215 0.559443 0.600205 -0.571645 0.648912 0.527465 -0.548355 
0.434929 0.565732 -0.700559 0.215765 0.497648 -0.840114 -0.104961 0.452512 -0.88556 
-0.141589 0.45569 -0.878805 -0.0944919 0.48865 -0.867348 -0.0373263 0.55661 -0.829935 
-0.03439 0.606166 -0.794594 -0.0411477 0.662086 -0.748297 -0.434313 0.817133 -0.379033 
-0.282792 0.780451 -0.557606 -0.563899 0.755154 -0.334305 0.699555 0.475817 -0.533124 
0.762658 0.423012 -0.4893 0.618778 0.432978 -0.655473 0.355639 0.304885 -0.883496 
-0.739395 0.634289 -0.225773 -0.422396 0.62442 -0.657025 -0.820462 0.54705 -0.166068 
0.772394 0.415191 -0.48065 0.75037 0.413811 -0.515466 0.483551 0.274968 -0.831006 
-0.889163 0.444958 -0.106779 -0.704183 0.46973 -0.532429 0.84177 0.248486 -0.479247 
0.675591 0.24963 -0.69373 -0.977835 0.20828 -0.0214086 0.862894 0.123754 -0.489998 
0.649452 0.0846344 -0.755678 -0.998337 0.0213516 0.0535543 0.869215 0.0266148 -0.493718 
0.639733 -0.0064661 -0.76857 -0.981786 -0.180533 0.0592034 0.864397 -0.1338 -0.484682 
0.662516 -0.0637071 -0.746334 -0.945179 -0.323729 0.0428505 0.841202 -0.292315 -0.454897 
0.720997 -0.501024 -0.478683 0.698373 -0.272354 -0.66189 -0.887235 -0.460695 0.023949 
-0.884525 -0.465957 0.0223347 -0.883029 -0.466566 -0.0507538 0.696875 -0.526025 -0.487508 
0.517532 -0.700759 -0.491017 0.490775 -0.459167 -0.740476 -0.839386 -0.541082 -0.051595 
-0.779078 -0.623351 -0.0668699 -0.686629 -0.509634 -0.518472 0.512638 -0.704318 -0.491058 
0.328406 -0.808745 -0.487936 0.296267 -0.664966 -0.685598 0.205552 -0.841967 -0.498838 
0.177068 -0.631372 -0.754994 0.122587 -0.876906 -0.464766 -0.730335 -0.677918 -0.0838913 
-0.615265 -0.781211 -0.105634 -0.522277 -0.582995 -0.62237 0.124691 -0.878582 -0.461026 
0.148395 -0.878776 -0.453576 0.149196 -0.848861 -0.507125 0.219379 -0.892163 -0.394865 
0.234785 -0.786996 -0.570537 0.179281 -0.939249 -0.292693 0.224852 -0.711413 -0.665833 
0.100781 -0.980704 -0.167522 -0.0392249 -0.995076 -0.0910197 -0.241118 -0.965097 -0.102221 
-0.509804 -0.854536 -0.0993362 -0.426349 -0.898099 -0.107911 -0.407892 -0.827517 -0.385798 
0.0879673 0.49346 -0.865309 -0.0451409 0.453881 -0.889918 0.105579 0.48548 -0.867849 
0.212015 0.427735 -0.878688 0.085494 0.48344 -0.871193 -0.0660563 0.443123 -0.894024 
-0.0456806 0.43996 -0.896855 -0.105961 0.416323 -0.903021 -0.130131 0.353907 -0.926183 
-0.0661515 0.337934 -0.938842 0.0214304 0.352587 -0.935534 0.0448952 0.475094 -0.878789 
0.00158588 0.554198 -0.832383 -0.169341 0.547615 -0.819415 0.349135 0.303567 -0.886539 
0.352617 0.29826 -0.886962 0.215895 0.294267 -0.931019 0.0641071 0.2993 -0.952003 
-0.0700886 0.29413 -0.953192 -0.113608 0.242425 -0.963495 -0.118573 0.26001 -0.958298 
-0.0619658 0.304543 -0.950481 0.0331837 0.315505 -0.948343 0.0764583 0.429022 -0.900053 
0.00114047 0.498413 -0.866939 -0.300402 0.568687 -0.765737 -0.143872 0.498901 -0.854634 
-0.389044 0.573616 -0.720839 0.405332 0.227903 -0.885305 0.411195 0.238305 -0.879846 
0.312293 0.193805 -0.930007 0.208601 0.14099 -0.967785 0.0781186 0.11016 -0.990839 
-0.111689 0.158352 -0.981045 -0.15129 0.111545 -0.982176 -0.0834415 0.0607443 -0.99466 
-0.0360468 0.026999 -0.998985 0.101327 0.131535 -0.986119 0.176224 0.240821 -0.954437 
0.0753501 0.318661 -0.944869 -0.108941 0.340831 -0.933791 -0.57393 0.447541 -0.685792 
-0.334172 0.373694 -0.865264 -0.654156 0.405851 -0.638251 0.42085 0.239644 -0.874903 
0.385143 0.225168 -0.894966 0.225518 0.151726 -0.962352 0.131266 0.0703787 -0.988846 
0.0833175 -0.00935929 -0.996479 -0.0594666 0.070282 -0.995753 -0.227202 0.193866 -0.954356 
-0.198565 0.0202439 -0.979879 0.00236778 -0.111688 -0.99374 0.257117 0.072914 -0.963626 
0.277267 0.138596 -0.950744 0.121302 0.188787 -0.974497 -0.0574984 0.208354 -0.976362 
-0.239637 0.293496 -0.925437 -0.746564 0.288574 -0.599473 -0.641987 0.276803 -0.715006 
0.532045 0.0939605 -0.841487 0.347131 0.105835 -0.931826 0.176945 0.0952792 -0.979598 
0.0597782 0.0688049 -0.995838 0.0776238 0.0159685 -0.996855 0.0979877 -0.0177241 -0.99503 
-0.202527 0.153835 -0.967118 -0.358817 0.139497 -0.922925 0.0144856 0.329272 -0.944124 
0.316545 0.207864 -0.925523 0.273169 0.141421 -0.951514 -0.817564 0.0749851 -0.570935 
-0.61218 0.0545304 -0.788836 0.525107 0.00660939 -0.85101 0.379838 0.0549046 -0.923422 
0.187226 0.066773 -0.980045 0.0482492 0.0706725 -0.996332 -0.00177905 0.0519034 -0.998651 
0.0715872 -0.0351047 -0.996816 -0.047846 -0.0236819 -0.998574 -0.0343563 0.186847 -0.981788 
0.071454 0.324394 -0.943219 0.0684448 0.216844 -0.973804 0.156227 0.0917477 -0.983451 
-0.820619 -0.184181 -0.540983 -0.659764 -0.116619 -0.742369 0.569086 -0.0563813 -0.820343 
0.396769 -0.0602816 -0.915937 0.190278 -0.0275486 -0.981344 0.0479271 -0.0114581 -0.998785 
-0.0257348 -0.00542914 -0.999654 0.0246201 -0.0205554 -0.999486 0.00985692 -0.0685429 -0.997599 
0.0171739 0.0585402 -0.998137 0.069836 -0.0302429 -0.9971 0.0619511 0.0494593 -0.996853 
0.0720355 -0.0122332 -0.997327 -0.32164 -0.300804 -0.897811 -0.791158 -0.334639 -0.511944 
-0.771892 -0.363219 -0.52178 -0.749445 -0.323753 -0.577509 0.486785 -0.266256 -0.831954 
0.435009 -0.35785 -0.826263 0.398541 -0.260804 -0.879287 0.236222 -0.198434 -0.951222 
0.070617 -0.153865 -0.985565 -0.00984308 -0.131406 -0.99128 0.0108004 -0.0956617 -0.995355 
0.0262343 -0.0840268 -0.996118 0.0186977 0.013726 -0.999731 0.0637176 -0.00491143 -0.997956 
0.0778671 -0.0164842 -0.996827 0.0318949 -0.055932 -0.997925 -0.012745 -0.158445 -0.987285 
-0.22858 -0.237507 -0.944109 -0.672036 -0.426905 -0.605079 -0.624961 -0.473303 -0.620812 
-0.484373 -0.343719 -0.804512 0.388659 -0.42558 -0.817206 0.287443 -0.487025 -0.824732 
0.281176 -0.400245 -0.872207 0.161215 -0.564344 -0.809645 0.108039 -0.353046 -0.929347 
0.0409487 -0.318189 -0.947143 0.0736408 -0.247029 -0.966206 0.118659 -0.196398 -0.973318 
0.0987995 -0.0796111 -0.991918 0.0361397 -0.0401714 -0.998539 0.0126374 -0.0808527 -0.996646 
-0.0677129 -0.103849 -0.992285 -0.170924 -0.230115 -0.958035 -0.615057 -0.475727 -0.628799 
-0.512542 -0.570738 -0.641528 -0.315711 -0.353813 -0.880422 0.120659 -0.560187 -0.819532 
0.118291 -0.559444 -0.820384 0.1179 -0.557416 -0.82182 0.152164 -0.564902 -0.811007 
0.138217 -0.513208 -0.847062 0.231189 -0.578369 -0.78233 0.202699 -0.420136 -0.884533 
0.220102 -0.662505 -0.715991 0.172716 -0.346488 -0.922017 0.0698516 -0.285438 -0.955848 
0.0104461 -0.263227 -0.964677 -0.131939 -0.337322 -0.932097 -0.508277 -0.573374 -0.64257 
-0.345772 -0.66167 -0.665308 -0.275685 -0.399592 -0.874256 0.203903 -0.680583 -0.703726 
0.13885 -0.707661 -0.692775 0.130159 -0.633755 -0.762505 -0.0380688 -0.729551 -0.682866 
-0.0496161 -0.632975 -0.772581 -0.258427 -0.676594 -0.689519 -0.223509 -0.666652 -0.711069 
-0.208959 -0.639063 -0.740226 0.152128 0.105954 -0.982665 -0.0290478 0.169311 -0.985135 
-0.266654 0.147528 -0.952434 0.171076 0.0881348 -0.981308 0.160936 0.0826532 -0.983498 
0.00482758 0.113859 -0.993485 -0.297986 0.110054 -0.948205 -0.276374 0.114593 -0.954194 
0.136623 0.0668575 -0.988364 0.0903493 0.00623057 -0.995891 -0.023727 -0.0572822 -0.998076 
-0.312246 -0.102818 -0.944421 -0.281734 -0.151427 -0.947468 -0.27785 -0.105151 -0.954852 
0.0542564 -0.030774 -0.998053 0.00365047 -0.106775 -0.994277 0.0107416 -0.0755878 -0.997081 
-0.116031 -0.118368 -0.986167 -0.119468 -0.122012 -0.985312 -0.109645 -0.112182 -0.98762 

