# vtk DataFile Version 4.2
vtk output
ASCII
DATASET POLYDATA
POINTS 542 float
42.1932 -3.32952 -23.8807 42.1932 4.44299 -24.2428 57.7382 4.44299 -23.8343 
-35.5319 -26.6471 -17.315 -27.7594 -26.6471 -18.7639 -19.9869 -26.6471 -18.6677 
-12.2144 -26.6471 -17.1836 -43.3044 -18.8745 -18.2824 -35.5319 -18.8745 -19.7232 
-27.7594 -18.8745 -20.6199 -19.9869 -18.8745 -21.2628 -12.2144 -18.8745 -20.6617 
-4.4419 -18.8745 -18.6193 3.33061 -18.8745 -17.8316 26.6481 -18.8745 -16.5054 
34.4207 -18.8745 -18.2999 42.1932 -18.8745 -19.0777 49.9657 -18.8745 -18.4019 
-51.077 -11.102 -16.652 -43.3044 -11.102 -18.6109 -35.5319 -11.102 -19.7001 
-27.7594 -11.102 -20.1883 -19.9869 -11.102 -21.031 -12.2144 -11.102 -22.0073 
-4.4419 -11.102 -19.8653 3.33061 -11.102 -19.9451 11.1031 -11.102 -15.9781 
26.6481 -11.102 -18.148 34.4207 -11.102 -20.4148 42.1932 -4.46582 -23.5367 
42.1932 -11.102 -21.4592 49.9657 -11.102 -23.2609 57.7382 -11.102 -20.3477 
-43.3044 -3.32952 -17.4453 -35.5319 -3.32952 -18.4986 -27.7594 -3.32952 -19.0026 
-19.9869 -3.32952 -19.8824 -12.2144 -3.32952 -22.7151 -4.4419 -3.32952 -19.575 
3.33061 -3.32952 -20.4568 18.8756 -3.32952 -16.0577 26.6481 -3.32952 -19.2054 
41.0344 -3.32952 -23.5367 34.4207 -3.32952 -21.4657 47.7928 -3.32952 -23.5367 
49.9657 -3.32952 -23.4047 57.7382 -1.82902 -23.5367 57.7382 -3.32952 -23.4675 
65.5107 -3.32952 -18.7981 -43.3044 4.44299 -16.0399 -35.5319 4.44299 -17.4077 
-27.7594 4.44299 -18.1888 -19.9869 4.44299 -20.1235 -12.2144 4.44299 -21.7182 
-4.4419 4.44299 -19.0101 3.33061 4.44299 -21.224 18.8756 4.44299 -16.0019 
26.6481 4.44299 -19.0527 40.012 4.44299 -23.5367 34.4207 4.44299 -21.7224 
48.5088 4.44299 -23.5367 42.1932 6.64328 -23.5367 53.013 4.44299 -23.5367 
49.9657 4.44299 -23.3813 58.1469 4.44299 -23.5367 57.7382 5.06318 -23.5367 
65.5107 4.44299 -18.9157 -35.5319 12.2155 -15.8588 -27.7594 12.2155 -17.2395 
-19.9869 12.2155 -18.385 -12.2144 12.2155 -18.8635 -4.4419 12.2155 -18.5829 
3.33061 12.2155 -16.12 26.6481 12.2155 -17.5675 34.4207 12.2155 -20.6869 
42.1932 12.2155 -21.8586 49.9657 12.2155 -21.893 57.7382 12.2155 -20.4816 
-12.2144 19.988 -16.6023 42.1932 19.988 -17.1052 49.9657 19.988 -16.1731 
-35.5319 -28.5388 -15.7642 -27.7594 -30.0503 -15.7642 -19.9869 -30.1863 -15.7642 
-12.2144 -28.2823 -15.7642 -51.077 -26.6471 -8.65491 -40.9615 -26.6471 -15.7642 
-43.3044 -24.977 -15.7642 -43.3044 -26.6471 -14.9487 -7.58048 -26.6471 -15.7642 
-4.4419 -24.8864 -15.7642 -4.4419 -26.6471 -14.599 3.33061 -22.7859 -15.7642 
3.33061 -26.6471 -13.0092 11.1031 -26.6471 -11.8606 18.8756 -26.6471 -10.9011 
26.6481 -20.1401 -15.7642 26.6481 -26.6471 -10.687 34.4207 -22.6004 -15.7642 
34.4207 -26.6471 -11.4594 42.1932 -22.769 -15.7642 42.1932 -26.6471 -9.83483 
49.9657 -22.0079 -15.7642 -48.125 -18.8745 -15.7642 -51.077 -14.4441 -15.7642 
-51.077 -18.8745 -14.0001 11.0681 -18.8745 -15.7642 11.1031 -18.4384 -15.7642 
11.1031 -18.8745 -15.7549 23.357 -18.8745 -15.7642 18.8756 -18.8745 -14.8519 
56.3432 -18.8745 -15.7642 57.7382 -18.0708 -15.7642 57.7382 -18.8745 -14.5733 
-52.4482 -11.102 -15.7642 -58.8495 -11.102 -9.92397 -51.077 -5.43622 -15.7642 
13.0997 -11.102 -15.7642 11.1031 -10.4945 -15.7642 20.0902 -11.102 -15.7642 
18.8756 -6.42719 -15.7642 18.8756 -11.102 -15.338 65.2884 -11.102 -15.7642 
65.5107 -10.7511 -15.7642 65.5107 -11.102 -15.3197 -58.8495 -3.32952 -10.3485 
-49.6144 -3.32952 -15.7642 -51.077 -3.32952 -15.3239 8.75063 -3.32952 -15.7642 
17.789 -3.32952 -15.7642 11.1031 -3.32952 -13.5163 68.8005 -3.32952 -15.7642 
-58.8495 4.44299 -9.16047 -44.2593 4.44299 -15.7642 -51.077 4.44299 -13.6052 
-43.3044 5.5714 -15.7642 7.31273 4.44299 -15.7642 18.4144 4.44299 -15.7642 
11.1031 4.44299 -11.743 18.8756 5.47845 -15.7642 69.1023 4.44299 -15.7642 
65.5107 11.6107 -15.7642 -51.077 12.2155 -11.8849 -35.9671 12.2155 -15.7642 
-43.3044 12.2155 -14.1803 -35.5319 12.4919 -15.7642 -27.7594 16.8224 -15.7642 
-19.9869 19.1773 -15.7642 -4.4419 19.671 -15.7642 3.67023 12.2155 -15.7642 
3.33061 12.6674 -15.7642 11.1031 12.2155 -10.4715 22.5356 12.2155 -15.7642 
18.8756 12.2155 -14.0791 26.6481 16.1429 -15.7642 34.4207 19.141 -15.7642 
65.083 12.2155 -15.7642 57.7382 17.6817 -15.7642 65.5107 12.2155 -14.7943 
-51.077 19.988 -8.33244 -43.3044 19.988 -11.5771 -35.5319 19.988 -13.1536 
-27.7594 19.988 -14.6261 -17.9993 19.988 -15.7642 -19.9869 19.988 -15.4661 
-5.37573 19.988 -15.7642 -12.2144 21.7582 -15.7642 -4.4419 19.988 -15.5956 
3.33061 19.988 -10.0443 18.8756 19.988 -9.21753 26.6481 19.988 -13.2929 
37.0913 19.988 -15.7642 34.4207 19.988 -14.8855 42.1932 21.4806 -15.7642 
51.037 19.988 -15.7642 49.9657 20.3386 -15.7642 57.7382 19.988 -10.0814 
-35.5319 27.7605 -9.50362 -27.7594 27.7605 -10.6886 -19.9869 27.7605 -12.1243 
-12.2144 27.7605 -12.3272 -4.4419 27.7605 -8.52159 -51.077 -27.2201 -7.99172 
-43.3044 -31.5115 -7.99172 -35.5319 -33.4683 -7.99172 -35.5319 -34.4196 -1.35055 
-27.7594 -33.7278 -7.99172 -27.7594 -34.4196 -0.924645 -19.9869 -33.6325 -7.99172 
-19.9869 -34.4196 -0.376653 -12.2144 -33.2402 -7.99172 -4.4419 -31.6255 -7.99172 
3.33061 -30.7107 -7.99172 11.1031 -30.0354 -7.99172 18.8756 -28.84 -7.99172 
26.6481 -28.5908 -7.99172 34.4207 -29.0051 -7.99172 42.1932 -27.4825 -7.99172 
-51.899 -26.6471 -7.99172 46.6745 -26.6471 -7.99172 49.9657 -25.9711 -7.99172 
57.7382 -22.1707 -7.99172 -58.1614 -18.8745 -7.99172 -58.8495 -17.1558 -7.99172 
-58.8495 -18.8745 -6.93476 62.1791 -18.8745 -7.99172 65.5107 -15.0168 -7.99172 
-61.1086 -11.102 -7.99172 68.1681 -11.102 -7.99172 -62.2813 -3.32952 -7.99172 
71.5191 -3.32952 -7.99172 -60.2295 4.44299 -7.99172 -66.622 4.44299 -1.21592 
-58.8495 8.38254 -7.99172 71.7239 4.44299 -7.99172 -57.5377 12.2155 -7.99172 
-58.8495 12.2155 -6.87014 11.1031 18.9593 -7.99172 67.712 12.2155 -7.99172 
65.5107 15.2039 -7.99172 -51.8863 19.988 -7.99172 -58.8495 19.988 -0.916063 
-51.077 20.6545 -7.99172 -43.3044 25.937 -7.99172 9.45504 19.988 -7.99172 
3.33061 21.7738 -7.99172 13.2749 19.988 -7.99172 11.1031 19.988 -7.58407 
18.8756 21.1606 -7.99172 26.6481 23.2715 -7.99172 34.4207 24.2898 -7.99172 
42.1932 23.9396 -7.99172 49.9657 23.6004 -7.99172 59.2289 19.988 -7.99172 
57.7382 20.7172 -7.99172 -51.077 27.7605 -1.18472 -39.9434 27.7605 -7.99172 
-43.3044 27.7605 -6.6107 -35.5319 29.7372 -7.99172 -27.7594 32.0716 -7.99172 
-19.9869 33.7616 -7.99172 -12.2144 32.7604 -7.99172 -3.89463 27.7605 -7.99172 
-4.4419 28.1616 -7.99172 11.1031 27.7605 -0.40855 -35.5319 35.533 -1.79542 
-27.7594 35.533 -4.89973 -19.9869 35.533 -5.89973 -35.5319 -34.5757 -0.219208 
-27.7594 -34.4886 -0.219208 -19.9869 -34.4355 -0.219208 -51.077 -29.7217 -0.219208 
-36.1333 -34.4196 -0.219208 -43.3044 -32.5573 -0.219208 -35.5319 -34.4196 0.564256 
-27.7594 -34.4196 0.242261 -19.6282 -34.4196 -0.219208 -19.9869 -34.4196 -0.0945831 
-12.2144 -34.0878 -0.219208 -4.4419 -33.581 -0.219208 3.33061 -33.3129 -0.219208 
11.1031 -32.5168 -0.219208 18.8756 -30.5762 -0.219208 26.6481 -29.1566 -0.219208 
34.4207 -28.4479 -0.219208 42.1932 -27.4337 -0.219208 -55.5901 -26.6471 -0.219208 
-58.8495 -23.5401 -0.219208 26.6481 -26.6471 7.04865 34.4207 -26.6471 4.54099 
44.2776 -26.6471 -0.219208 42.1932 -26.6471 1.40106 49.9657 -24.1748 -0.219208 
57.7382 -21.1929 -0.219208 -62.2305 -18.8745 -0.219208 60.6882 -18.8745 -0.219208 
57.7382 -18.8745 2.97653 65.5107 -12.8511 -0.219208 -65.9222 -11.102 -0.219208 
66.6633 -11.102 -0.219208 65.5107 -11.102 1.39789 -66.4927 -3.32952 -0.219208 
-66.622 -1.86086 -0.219208 68.3936 -3.32952 -0.219208 65.5107 -3.32952 4.42976 
-67.1515 4.44299 -0.219208 -66.622 7.32829 -0.219208 -66.622 4.44299 4.66824 
68.6663 4.44299 -0.219208 65.5107 4.44299 5.17717 -65.3263 12.2155 -0.219208 
66.3232 12.2155 -0.219208 65.5107 13.3809 -0.219208 65.5107 12.2155 1.11417 
-59.2558 19.988 -0.219208 -58.8495 20.5965 -0.219208 3.33061 27.0829 -0.219208 
18.8756 27.3925 -0.219208 26.6481 26.0824 -0.219208 34.4207 26.0848 -0.219208 
42.1932 24.9597 -0.219208 49.9657 23.6907 -0.219208 58.4132 19.988 -0.219208 
57.7382 20.3834 -0.219208 57.7382 19.988 1.03311 -52.1001 27.7605 -0.219208 
-51.077 28.4928 -0.219208 -43.3044 34.4647 -0.219208 -12.2144 35.521 -0.219208 
1.43181 27.7605 -0.219208 -4.4419 30.4003 -0.219208 9.8446 27.7605 -0.219208 
3.33061 27.7605 2.24518 13.2538 27.7605 -0.219208 11.1031 27.8885 -0.219208 
18.8756 27.7605 0.588247 26.6481 27.7605 6.52691 -39.9648 35.533 -0.219208 
-35.5319 36.8711 -0.219208 -27.7594 39.021 -0.219208 -12.2423 35.533 -0.219208 
-19.9869 38.6449 -0.219208 -12.2144 35.533 0.0253085 -51.077 -27.8341 7.5533 
-43.3044 -31.4881 7.5533 -35.5319 -32.9774 7.5533 -27.7594 -33.2887 7.5533 
-19.9869 -33.4143 7.5533 -12.2144 -33.0947 7.5533 -4.4419 -32.6526 7.5533 
3.33061 -32.3696 7.5533 11.1031 -31.2168 7.5533 18.8756 -28.4389 7.5533 
-53.0807 -26.6471 7.5533 -58.8495 -21.5869 7.5533 -51.077 -26.6471 9.18708 
-43.3044 -26.6471 14.8921 11.1031 -26.6471 14.3121 25.9308 -26.6471 7.5533 
18.8756 -26.6471 10.5114 26.6481 -26.4471 7.5533 34.4207 -25.2496 7.5533 
42.1932 -23.2302 7.5533 49.9657 -19.7699 7.5533 -60.873 -18.8745 7.5533 
-58.8495 -18.8745 9.84033 34.4207 -18.8745 15.1722 42.1932 -18.8745 12.7376 
51.4377 -18.8745 7.5533 49.9657 -18.8745 8.57235 57.7382 -12.6608 7.5533 
-64.8266 -11.102 7.5533 -58.8495 -11.102 14.7641 49.9657 -11.102 14.3049 
59.0273 -11.102 7.5533 57.7382 -11.102 8.71395 -66.4169 -3.32952 7.5533 
63.2447 -3.32952 7.5533 57.7382 -3.32952 12.2375 -66.2954 4.44299 7.5533 
63.8088 4.44299 7.5533 57.7382 4.44299 12.9728 -65.0428 12.2155 7.5533 
60.6314 12.2155 7.5533 57.7382 16.1402 7.5533 57.7382 12.2155 10.5396 
-61.2088 19.988 7.5533 -58.8495 23.4322 7.5533 -58.8495 19.988 10.8839 
34.4207 26.7846 7.5533 42.1932 24.879 7.5533 53.5071 19.988 7.5533 
49.9657 21.8738 7.5533 49.9657 19.988 10.966 -54.885 27.7605 7.5533 
-51.077 30.8726 7.5533 -51.077 27.7605 11.6896 -43.3044 35.3308 7.5533 
-4.4419 31.7956 7.5533 3.33061 29.0363 7.5533 3.33061 27.7605 11.1026 
11.1031 30.3882 7.5533 11.1031 27.7605 13.8405 18.8756 30.377 7.5533 
[...]
POINT_DATA 542
SCALARS ImageScalars float
LOOKUP_TABLE default
0 0 0 0 0 0 0 0 0 
0 0 0 0 0 0 0 0 0 
0 0 0 0 0 0 0 0 0 
0 0 0 0 0 0 0 0 0 
0 0 0 0 0 0 0 0 0 
0 0 0 0 0 0 0 0 0 
0 0 0 0 0 0 0 0 0 
0 0 0 0 0 0 0 0 0 
0 0 0 0 0 0 0 0 0 
0 0 0 0 0 0 0 0 0 
0 0 0 0 0 0 0 0 0 
0 0 0 0 0 0 0 0 0 
0 0 0 0 0 0 0 0 0 
0 0 0 0 0 0 0 0 0 
0 0 0 0 0 0 0 0 0 
0 0 0 0 0 0 0 0 0 
0 0 0 0 0 0 0 0 0 
0 0 0 0 0 0 0 0 0 
0 0 0 0 0 0 0 0 0 
0 0 0 0 0 0 0 0 0 
0 0 0 0 0 0 0 0 0 
0 0 0 0 0 0 0 0 0 
0 0 0 0 0 0 0 0 0 
0 0 0 0 0 0 0 0 0 
0 0 0 0 0 0 0 0 0 
0 0 0 0 0 0 0 0 0 
0 0 0 0 0 0 0 0 0 
0 0 0 0 0 0 0 0 0 
0 0 0 0 0 0 0 0 0 
0 0 0 0 0 0 0 0 0 
0 0 0 0 0 0 0 0 0 
0 0 0 0 0 0 0 0 0 
0 0 0 0 0 0 0 0 0 
0 0 0 0 0 0 0 0 0 
0 0 0 0 0 0 0 0 0 
0 0 0 0 0 0 0 0 0 
0 0 0 0 0 0 0 0 0 
0 0 0 0 0 0 0 0 0 
0 0 0 0 0 0 0 0 0 
0 0 0 0 0 0 0 0 0 
0 0 0 0 0 0 0 0 0 
0 0 0 0 0 0 0 0 0 
0 0 0 0 0 0 0 0 0 
0 0 0 0 0 0 0 0 0 
0 0 0 0 0 0 0 0 0 
0 0 0 0 0 0 0 0 0 
0 0 0 0 0 0 0 0 0 
0 0 0 0 0 0 0 0 0 
0 0 0 0 0 0 0 0 0 
0 0 0 0 0 0 0 0 0 
0 0 0 0 0 0 0 0 0 
0 0 0 0 0 0 0 0 0 
0 0 0 0 0 0 0 0 0 
0 0 0 0 0 0 0 0 0 
0 0 0 0 0 0 0 0 0 
0 0 0 0 0 0 0 0 0 
0 0 0 0 0 0 0 0 0 
0 0 0 0 0 0 0 0 0 
0 0 0 0 0 0 0 0 0 
0 0 0 0 0 0 0 0 0 
0 0 
NORMALS Normals float
0.116435 0.172004 0.978191 0.105116 -0.133529 0.985455 -0.305384 -0.200797 0.930818 
0.220169 0.515687 0.828005 0.0819219 0.486708 0.869715 -0.0895735 0.53076 0.842775 
-0.224726 0.587217 0.777608 0.302933 0.208004 0.930036 0.136989 0.134993 0.981331 
0.0951556 0.075769 0.992575 0.00387503 0.133492 0.991042 -0.16058 0.267606 0.950053 
-0.175443 0.284234 0.942566 -0.161048 0.363243 0.91767 0.223904 0.36436 0.903941 
0.141108 0.434648 0.889477 0.0129811 0.520139 0.853983 -0.202687 0.610933 0.765297 
0.440048 0.0413239 0.897023 0.212529 -0.0537422 0.975676 0.0972711 -0.0790879 0.992111 
0.0845457 -0.103241 0.991057 0.117742 -0.0837022 0.98951 -0.0674108 0.126233 0.989708 
-0.137823 0.0613613 0.988554 -0.179653 0.163061 0.970122 -0.343025 -0.126109 0.930822 
0.315518 0.151795 0.9367 0.197108 0.193859 0.961024 0.128596 0.182968 0.974672 
0.165098 0.265209 0.949951 -0.0692718 0.274255 0.959159 -0.346519 0.415194 0.841153 
0.205736 -0.155631 0.966153 0.0958903 -0.144008 0.98492 0.083543 -0.126654 0.988423 
0.244314 -0.0617602 0.967727 -0.00244851 -0.015895 0.999871 -0.167623 -0.0584392 0.984118 
-0.211236 0.0821336 0.973978 0.319936 0.0446557 0.946386 0.342616 0.0597874 0.937571 
0.140212 0.161563 0.976851 0.278774 0.0866826 0.956437 0.0141952 0.0517032 0.998562 
-0.0266146 0.00625288 0.999626 -0.308435 0.160085 0.937678 -0.303044 0.239644 0.922353 
-0.625304 0.141478 0.76745 0.223506 -0.202205 0.953498 0.132188 -0.164127 0.977542 
0.164122 -0.111476 0.980121 0.226876 -0.0937796 0.969398 -0.0678585 -0.239648 0.968486 
-0.0729665 -0.0608428 0.995477 -0.187334 -0.216702 0.958095 0.384291 -0.10861 0.916801 
0.368658 -0.101103 0.92405 0.152594 -0.106291 0.982557 0.285297 -0.0413251 0.957548 
-0.00367928 -0.109684 0.99396 0.0868282 -0.196556 0.97664 -0.129985 -0.140045 0.981576 
-0.0291221 -0.103002 0.994255 -0.322555 -0.191083 0.927063 -0.300873 -0.221263 0.927641 
-0.615868 -0.134801 0.776231 0.187257 -0.254755 0.948701 0.154321 -0.214392 0.96448 
0.103088 -0.283574 0.953393 0.0119097 -0.323267 0.946233 -0.119655 -0.198756 0.972717 
-0.576032 -0.57332 0.582659 0.362042 -0.284868 0.887567 0.258195 -0.328157 0.908652 
0.0654865 -0.361284 0.930153 -0.0780924 -0.346252 0.934885 -0.305231 -0.479255 0.82289 
0.0129917 -0.360373 0.932718 0.0624268 -0.739384 0.670384 -0.177522 -0.806638 0.563757 
0.214901 0.613858 0.759603 0.0838123 0.730558 0.677687 -0.0864506 0.738789 0.668369 
-0.224805 0.662403 0.714622 0.576048 0.648906 0.497082 0.316245 0.528557 0.787792 
0.355036 0.462605 0.812371 0.361596 0.553099 0.750553 -0.214829 0.598341 0.771905 
-0.20061 0.5248 0.827249 -0.199561 0.627403 0.752689 -0.157769 0.499987 0.851541 
-0.128832 0.687548 0.714618 -0.10105 0.670095 0.735365 -0.0625763 0.749121 0.659471 
0.196854 0.416506 0.887565 0.0252214 0.835119 0.549491 0.0920211 0.601364 0.793659 
-0.0129666 0.859144 0.51157 -0.032012 0.69143 0.721734 -0.15454 0.938074 0.310055 
-0.234232 0.730292 0.641724 0.428612 0.311381 0.848136 0.4648 0.185445 0.865778 
0.511697 0.38024 0.770444 -0.195785 0.212804 0.957279 -0.203943 0.195307 0.959303 
-0.195822 0.212055 0.957437 0.149584 0.294591 0.943844 0.0416939 0.207631 0.977318 
-0.381315 0.694382 0.610273 -0.418201 0.677412 0.605161 -0.440906 0.726015 0.527735 
0.48288 0.0476209 0.874391 0.677052 0.121595 0.72582 0.410165 -0.113018 0.904982 
-0.208478 -0.0748973 0.975155 -0.345175 -0.149233 0.926598 0.172735 0.0900361 0.980845 
0.254164 0.0587871 0.965373 0.144409 0.0725702 0.986853 -0.690267 0.498904 0.524049 
-0.69881 0.486418 0.524464 -0.710981 0.503892 0.490509 0.572309 -0.0295641 0.819505 
0.360317 -0.172522 0.916737 0.396325 -0.173083 0.901648 -0.396572 -0.257748 0.881077 
0.267656 0.00307656 0.96351 -0.264293 -0.329024 0.906583 -0.7897 0.172259 0.588813 
0.593907 -0.182242 0.783622 0.236429 -0.205481 0.949673 0.355292 -0.208265 0.911259 
0.227641 -0.212464 0.950283 -0.542517 -0.376818 0.750788 0.369614 -0.120323 0.921362 
-0.0146729 -0.226398 0.973924 0.398513 -0.139574 0.90648 -0.784498 -0.174534 0.595064 
-0.707909 -0.506707 0.492049 0.363824 -0.299575 0.881979 0.19046 -0.25594 0.947744 
0.244459 -0.27011 0.931279 0.187696 -0.259079 0.947443 0.145538 -0.317406 0.937055 
0.113842 -0.345239 0.931585 -0.297091 -0.47566 0.82794 -0.579509 -0.568255 0.584171 
-0.583593 -0.57438 0.574027 0.0932573 -0.259114 0.961334 0.401122 -0.304158 0.864054 
0.41593 -0.346564 0.840771 0.327737 -0.436144 0.838074 0.186622 -0.687106 0.70218 
-0.693062 -0.532666 0.485728 -0.364031 -0.759413 0.539234 -0.72777 -0.542086 0.420111 
0.388829 -0.445219 0.806593 0.273314 -0.417197 0.866745 0.178759 -0.381788 0.906798 
0.141205 -0.38668 0.911339 0.0893725 -0.355364 0.930446 0.116132 -0.353251 0.928292 
-0.263926 -0.473998 0.840041 -0.0123328 -0.401889 0.915605 -0.305017 -0.490355 0.816405 
-0.429088 -0.540567 0.723651 0.261608 -0.653299 0.710466 0.260449 -0.676422 0.688927 
0.136141 -0.733581 0.665826 0.155316 -0.740355 0.654027 0.0541446 -0.806432 0.588843 
-0.200109 -0.819456 0.537073 -0.18509 -0.818795 0.543431 -0.373851 -0.900332 0.222797 
0.217131 -0.547024 0.808467 0.147281 -0.478999 0.865372 0.0938474 -0.490188 0.86655 
-0.150325 -0.602049 0.784181 -0.513689 -0.736201 0.440604 0.573447 0.673746 0.466074 
0.310842 0.891997 0.328205 0.150812 0.940045 0.305893 0.128625 0.991565 0.0159694 
0.00946832 0.973289 0.229389 -0.00725725 0.999967 -0.00352978 -0.0284467 0.976454 0.21384 
-0.025599 0.999631 -0.00906039 -0.120438 0.950349 0.286935 -0.146558 0.901596 0.406995 
-0.0928376 0.866243 0.490922 -0.113685 0.843865 0.524374 -0.0887451 0.884307 0.458394 
0.0118491 0.930286 0.366643 -0.0728057 0.961356 0.265507 -0.183806 0.960422 0.209299 
0.592622 0.655572 0.468001 -0.25649 0.955342 0.146747 -0.316066 0.943596 0.0986297 
-0.501989 0.85301 0.142762 0.731473 0.373399 0.570544 0.734155 0.320791 0.598422 
0.7682 0.398721 0.50089 -0.681969 0.723839 0.104766 -0.811111 0.581423 0.0636105 
0.725587 0.171232 0.666485 -0.859951 0.508792 0.0401831 0.694595 -0.0240558 0.718998 
-0.98065 0.19564 -0.00705984 0.629218 -0.197485 0.751721 0.950731 -0.0726535 0.301382 
0.622699 -0.2198 0.750955 -0.980027 -0.197494 -0.0233237 0.607337 -0.247541 0.754894 
0.657653 -0.266859 0.704471 0.000468704 -0.432725 0.901526 -0.825014 -0.563429 0.0435782 
-0.76182 -0.645236 0.0574497 0.412028 -0.449769 0.792428 0.756407 -0.541614 0.366748 
0.394274 -0.460106 0.795519 0.288682 -0.530416 0.797071 -0.102792 -0.479866 0.8713 
-0.397544 -0.602872 0.69174 0.051914 -0.528829 0.847139 -0.026083 -0.472283 0.881061 
0.207797 -0.690941 0.692402 0.1665 -0.890712 0.422977 0.0475263 -0.929314 0.366219 
-0.041458 -0.984165 0.172336 -0.200393 -0.96158 0.187635 -0.440738 -0.889124 0.123324 
-0.383532 -0.913721 0.134227 0.546867 -0.714623 0.436177 0.258853 -0.561852 0.785696 
0.311876 -0.579039 0.753291 0.224895 -0.601099 0.766878 0.172958 -0.582619 0.794129 
0.0149709 -0.686013 0.727435 -0.302742 -0.774028 0.556083 -0.511313 -0.746113 0.426467 
-0.524187 -0.742089 0.417771 0.0178848 -0.874118 0.485385 0.25838 -0.793987 0.550294 
0.175526 -0.752764 0.634458 -0.0583646 -0.799702 0.597553 0.123507 0.991874 -0.0305232 
-0.00884856 0.999627 -0.0258412 -0.025654 0.999582 -0.0133477 0.485284 0.874087 0.0216971 
0.134629 0.990494 -0.0282224 0.273024 0.962006 -0.00148933 0.124425 0.990362 -0.0608464 
-0.00679251 0.99916 -0.0404156 -0.0269878 0.999545 -0.0134397 -0.0254407 0.999532 -0.0169836 
-0.0548013 0.998406 -0.0134946 -0.0495977 0.9972 0.0559584 -0.067412 0.993857 0.0877675 
-0.172258 0.983101 0.0619715 -0.210298 0.977345 -0.0238895 -0.135485 0.982635 -0.126776 
-0.106156 0.972391 -0.207813 -0.245877 0.940499 -0.234535 0.611386 0.790032 0.0453544 
0.748603 0.657988 0.081521 -0.175909 0.886497 -0.427995 -0.151318 0.91212 -0.380972 
-0.28539 0.922122 -0.261236 -0.258013 0.92004 -0.294884 -0.370116 0.868612 -0.329434 
-0.51323 0.777627 -0.363169 0.853634 0.508274 0.113871 -0.631862 0.673289 -0.383969 
-0.55243 0.657507 -0.512353 -0.790253 0.456504 -0.408784 0.95966 0.23731 0.150784 
-0.813255 0.405931 -0.416936 -0.775998 0.407293 -0.481601 0.981548 0.0783646 0.17442 
0.981518 0.0545735 0.183425 -0.866414 0.115108 -0.485878 -0.810071 0.142125 -0.568845 
0.971119 -0.0596472 0.231018 0.954113 -0.168778 0.247352 0.995276 -0.0786176 -0.0569567 
-0.878574 -0.115368 -0.463463 -0.810761 -0.109418 -0.57506 0.879885 -0.367584 0.301138 
-0.818606 -0.453637 -0.352274 -0.795507 -0.496734 -0.347022 -0.800643 -0.448446 -0.397325 
0.769982 -0.546717 0.328981 0.759987 -0.55719 0.334603 -0.115322 -0.914926 0.386796 
-0.102065 -0.862994 0.494797 -0.0694816 -0.946131 0.316241 -0.0740944 -0.984992 0.155885 
-0.136556 -0.989023 0.0564364 -0.298926 -0.949075 -0.0994971 -0.501318 -0.844732 -0.187371 
-0.478061 -0.861139 -0.17291 -0.504784 -0.835988 -0.215214 0.572751 -0.720692 0.390589 
0.559261 -0.732502 0.388159 0.373552 -0.846535 0.379259 -0.456766 -0.874323 0.164088 
-0.206655 -0.920098 0.332735 -0.514501 -0.83417 0.198615 -0.00215689 -0.886891 0.461975 
-0.0842796 -0.967777 0.237285 -0.0158191 -0.875616 0.482748 0.0195552 -0.878704 0.476966 
-0.110812 -0.887539 0.447208 -0.222261 -0.97023 0.096196 0.322618 -0.849526 0.4174 
0.274181 -0.834966 0.477134 0.0939794 -0.917706 0.385985 -0.455765 -0.874756 0.164562 
-0.175258 -0.946548 0.270797 -0.456851 -0.875925 0.155056 0.488525 0.786345 -0.378159 
0.263053 0.908246 -0.325412 0.12076 0.928091 -0.352227 0.0268503 0.956182 -0.291538 
-0.0120471 0.965176 -0.261323 -0.04768 0.95924 -0.278541 -0.0450651 0.952027 -0.302678 
-0.0862226 0.943681 -0.319424 -0.235997 0.907293 -0.348031 -0.283602 0.872354 -0.398206 
0.532278 0.768541 -0.355 0.700513 0.617427 -0.357862 0.471241 0.758281 -0.450492 
0.266881 0.620037 -0.737786 -0.201382 0.683955 -0.701178 -0.187902 0.875899 -0.444403 
-0.275078 0.808893 -0.519639 -0.178413 0.874646 -0.450736 -0.177772 0.844977 -0.504392 
-0.277766 0.795718 -0.538218 -0.423939 0.69638 -0.579078 0.761483 0.52516 -0.379936 
0.705721 0.493965 -0.507894 -0.18856 0.600627 -0.776976 -0.290933 0.626301 -0.72326 
-0.454533 0.659623 -0.598579 -0.42927 0.668573 -0.607238 -0.593321 0.471889 -0.652143 
0.908685 0.279242 -0.310347 0.549608 0.300758 -0.779407 -0.409734 0.411858 -0.813936 
-0.616223 0.439525 -0.653519 -0.598399 0.435219 -0.672683 0.970995 0.0919072 -0.220729 
-0.73486 0.17835 -0.654348 -0.603951 0.178412 -0.776796 0.971184 -0.088256 -0.221388 
-0.757532 -0.112248 -0.643075 -0.622271 -0.0645502 -0.780136 0.936189 -0.282082 -0.209714 
-0.711961 -0.399405 -0.577571 -0.664804 -0.552904 -0.502327 -0.684737 -0.347182 -0.640781 
0.83534 -0.522793 -0.169985 0.780011 -0.607235 -0.151161 0.775252 -0.484341 -0.405461 
-0.198865 -0.979312 -0.0374338 -0.280587 -0.94935 -0.141442 -0.519954 -0.766869 -0.376245 
-0.429215 -0.841823 -0.327274 -0.474331 -0.740403 -0.476249 0.667603 -0.731661 -0.137762 
0.579472 -0.799315 -0.159083 0.501337 -0.741243 -0.44634 0.419516 -0.885678 -0.19895 
-0.442022 -0.891384 -0.100258 -0.0415766 -0.99779 -0.051827 -0.0521417 -0.947741 -0.314751 
0.0867264 -0.995674 -0.0333468 0.102211 -0.819282 -0.564208 -0.127029 -0.991442 0.0301078 
-0.00779147 -0.78399 -0.620724 -0.233488 -0.971444 0.0421981 -0.24246 -0.968237 0.0610675 
-0.224766 -0.971822 -0.0710125 0.412505 -0.890318 -0.192804 0.292932 -0.945202 -0.144167 
0.240564 -0.733165 -0.63608 0.0330523 -0.978327 -0.204412 0.0287975 -0.6883 -0.724854 
-0.211924 -0.958949 -0.18843 -0.0993731 -0.718537 -0.688353 -0.445678 -0.886995 -0.120873 
-0.444895 -0.887051 -0.123321 -0.434802 -0.879051 -0.195489 0.131955 0.649207 -0.749078 
0.0677214 0.663036 -0.745518 -0.00914116 0.652898 -0.757391 -0.0751009 0.663474 -0.744421 
-0.0776585 0.639481 -0.764875 -0.0883763 0.634215 -0.768089 0.398892 0.461276 -0.792533 
0.229288 0.609532 -0.75888 0.257432 0.585959 -0.768362 0.126095 0.596771 -0.792442 
0.044638 0.541124 -0.839757 -0.00917812 0.502503 -0.864527 -0.0649907 0.553596 -0.830246 
-0.0756844 0.591962 -0.802404 -0.115475 0.633106 -0.765404 -0.0868277 0.620895 -0.77907 
-0.184625 0.608154 -0.772051 -0.202732 0.549285 -0.81067 -0.147447 0.604644 -0.78273 
0.467737 0.374924 -0.800409 0.400099 0.36706 -0.839754 0.192576 0.285022 -0.938976 
0.0261018 0.26376 -0.964235 -0.00956855 0.195977 -0.980562 -0.00569687 0.151184 -0.988489 
0.00262124 0.199969 -0.979799 -0.00696287 0.244004 -0.969749 -0.0434965 0.295986 -0.954202 
-0.125861 0.314132 -0.940999 -0.14694 0.383184 -0.911909 -0.184131 0.593796 -0.783264 
-0.130357 0.538535 -0.832459 -0.187515 0.589834 -0.785451 -0.28372 0.473792 -0.833681 
0.499015 0.273252 -0.822385 0.520416 0.229989 -0.822358 0.266967 0.166974 -0.94913 
0.165874 0.0611006 -0.984252 0.0364579 0.0400968 -0.99853 -0.0904943 0.00554279 -0.995882 
-0.000510562 0.0215516 -0.999768 0.0401728 0.230313 -0.972287 0.0211807 0.0850536 -0.996151 
-0.0102089 0.105235 -0.994395 -0.12806 0.0902104 -0.987655 -0.0545825 0.0354875 -0.997878 
0.0270628 0.172194 -0.984691 -0.116657 0.271326 -0.955392 -0.361908 0.392958 -0.845344 
-0.271583 0.351647 -0.895872 -0.402849 0.33396 -0.852164 0.557675 0.113899 -0.822208 
0.48923 0.105471 -0.865754 0.204781 0.0522995 -0.977409 0.0692687 0.0256162 -0.997269 
-0.0322872 -0.0655193 -0.997329 -0.0361905 -0.0711945 -0.996806 0.212116 -0.0392121 -0.976458 
-0.136606 -0.0118216 -0.990555 -0.0328568 0.0576713 -0.997795 -0.235382 0.00934314 -0.971858 
-0.0182216 -0.0341706 -0.99925 0.124854 0.0309566 -0.991692 0.00342491 0.0917414 -0.995777 
-0.174468 0.184246 -0.967272 -0.481402 0.179165 -0.857993 -0.393859 0.190189 -0.899279 
0.57241 -0.0345335 -0.81924 0.464777 -0.0319023 -0.884853 0.185775 -0.0462596 -0.981503 
0.0510671 -0.0435732 -0.997744 -0.0572692 0.0169688 -0.998215 -0.0637152 -0.0097708 -0.99792 
0.160499 -0.0606493 -0.985171 0.0960106 -0.279698 -0.955275 -0.0454835 -0.0731023 -0.996287 
0.0282155 -0.0474131 -0.998477 -0.248095 0.0087028 -0.968697 0.000955845 0.106525 -0.994309 
0.155299 0.0709546 -0.985316 0.0459171 0.0488742 -0.997749 -0.185401 0.0170196 -0.982516 
-0.525061 -0.0302437 -0.850527 -0.40811 -0.00830476 -0.912895 0.520033 -0.265553 -0.811817 
0.511461 -0.277989 -0.813099 0.483569 -0.260947 -0.835504 0.204693 -0.118079 -0.971678 
0.12861 -0.0551876 -0.990158 0.00132938 -0.0582524 -0.998301 -0.110342 -0.0142395 -0.993792 
-0.0112164 0.000379315 -0.999937 0.0639694 -0.117168 -0.99105 0.0692666 -0.0377106 -0.996885 
0.0362788 -0.185566 -0.981962 -0.0559487 -0.097094 -0.993701 0.00780979 0.072756 -0.997319 
0.0726764 -0.00131817 -0.997355 -0.0504312 -0.0467343 -0.997634 -0.227243 -0.171023 -0.958703 
-0.529323 -0.274024 -0.80295 -0.491858 -0.416536 -0.764574 -0.453881 -0.257338 -0.853094 
0.499647 -0.324825 -0.80302 0.371837 -0.483546 -0.792415 0.347717 -0.263857 -0.899707 
0.13191 -0.23852 -0.962137 -0.0124815 -0.143503 -0.989571 -0.00223771 -0.0991843 -0.995067 
0.0582908 -0.0333287 -0.997743 0.0187619 -0.0790897 -0.996691 -0.0941691 -0.214572 -0.972158 
-0.0728957 -0.685472 -0.724441 -0.0360332 -0.388555 -0.920721 0.095477 -0.684383 -0.722844 
0.0486194 -0.318852 -0.946557 -0.00206365 -0.76556 -0.643361 0.0585911 -0.24334 -0.96817 
-0.128077 -0.838894 -0.529012 0.0344285 -0.319895 -0.946827 -0.235411 -0.816572 -0.52706 
-0.139496 -0.43499 -0.889564 -0.459623 -0.606022 -0.649218 -0.413855 -0.687075 -0.597204 
-0.403002 -0.545149 -0.73512 0.288287 -0.494929 -0.819717 0.289153 -0.487157 -0.824056 
0.273601 -0.460441 -0.844474 0.191529 -0.556794 -0.808268 0.129927 -0.318442 -0.938996 
0.033434 -0.544318 -0.838212 0.0158525 -0.249806 -0.968166 -0.0570347 -0.604487 -0.794571 
0.00429507 -0.256688 -0.966485 -0.278259 -0.637067 -0.71883 -0.139273 -0.418808 -0.897331 
-0.232965 -0.728819 -0.643856 -0.313372 -0.709763 -0.6309 -0.287703 -0.669185 -0.685142 
0.0934089 0.164923 -0.981873 0.10529 0.147539 -0.983436 0.077552 0.145666 -0.98629 
0.10072 -0.0281293 -0.994517 0.0961575 0.157386 -0.982844 
