# vtk DataFile Version 4.2
vtk output
ASCII
DATASET POLYDATA
POINTS 530 float
-24.5443 -32.1552 -10.9413 -17.6741 -32.1552 -12.1508 -10.8038 -32.1552 -11.9129 
-3.93355 -32.1552 -11.7241 2.9367 -32.1552 -11.5492 9.80695 -32.1552 -11.2967 
16.6772 -32.1552 -10.9196 -31.4146 -25.285 -11.7064 -24.5443 -25.285 -13.2174 
-17.6741 -25.285 -13.4334 -10.8038 -25.285 -13.6114 -3.93355 -25.285 -14.0361 
2.9367 -25.285 -14.2326 9.80695 -25.285 -13.9236 16.6772 -25.285 -13.2029 
23.5475 -25.285 -11.7787 -38.2848 -18.4147 -10.9822 -31.4146 -18.4147 -13.6858 
-24.5443 -18.4147 -14.2345 -17.6741 -18.4147 -14.1182 -10.8038 -18.4147 -13.6824 
-3.93355 -18.4147 -14.2029 2.9367 -18.4147 -14.8945 9.80695 -18.4147 -14.4195 
16.6772 -18.4147 -13.9052 23.5475 -18.4147 -13.5109 30.4177 -18.4147 -12.392 
37.288 -18.4147 -10.8098 -38.2848 -11.5445 -13.1166 -31.4146 -11.5445 -14.8688 
-24.5443 -11.5445 -15.1465 -17.6741 -11.5445 -14.464 -10.8038 -11.5445 -12.9376 
-3.93355 -11.5445 -13.9078 2.9367 -11.5445 -14.3249 9.80695 -11.5445 -14.0896 
16.6772 -11.5445 -14.6445 23.5475 -11.5445 -14.7037 30.4177 -11.5445 -14.2418 
37.288 -11.5445 -13.1794 -38.2848 -4.6742 -13.6701 -31.4146 -4.6742 -15.3008 
-24.5443 -4.6742 -15.7861 -17.6741 -4.6742 -15.1746 -10.8038 -4.6742 -14.1612 
-3.93355 -4.6742 -15.7801 2.9367 -4.6742 -16.0056 9.80695 -4.6742 -16.0713 
16.6772 -4.6742 -15.1204 23.5475 -4.6742 -15.2291 30.4177 -4.6742 -15.0627 
37.288 -4.6742 -14.2157 44.1582 -4.6742 -11.9785 -38.2848 2.19605 -13.2129 
-31.4146 2.19605 -14.5615 -24.5443 2.19605 -15.0123 -17.6741 2.19605 -15.4372 
-10.8038 2.19605 -16.7174 -3.93355 2.19605 -13.7013 2.9367 2.19605 -15.2886 
9.80695 2.19605 -15.607 16.6772 2.19605 -14.3934 23.5475 2.19605 -15.3756 
30.4177 2.19605 -15.5148 37.288 2.19605 -14.7036 44.1582 2.19605 -12.4577 
-38.2848 9.0663 -12.6549 -31.4146 9.0663 -13.571 -24.5443 9.0663 -13.7984 
-17.6741 9.0663 -13.7246 -10.8038 9.0663 -15.2864 -3.93355 9.0663 -14.363 
2.9367 9.0663 -16.7684 9.80695 9.0663 -15.018 16.6772 9.0663 -14.9021 
23.5475 9.0663 -15.84 30.4177 9.0663 -15.7853 37.288 9.0663 -14.8512 
44.1582 9.0663 -11.9913 -38.2848 15.9366 -11.1758 -31.4146 15.9366 -12.024 
-24.5443 15.9366 -12.6293 -17.6741 15.9366 -13.0443 -10.8038 15.9366 -13.0195 
-3.93355 15.9366 -12.3018 2.9367 15.9366 -12.7914 9.80695 15.9366 -13.9677 
16.6772 15.9366 -15.1788 23.5475 15.9366 -15.8266 30.4177 15.9366 -15.7563 
37.288 15.9366 -14.4007 44.1582 15.9366 -10.6746 -31.4146 22.8068 -11.9075 
-24.5443 22.8068 -12.6187 -17.6741 22.8068 -13.4669 -10.8038 22.8068 -13.9188 
-3.93355 22.8068 -13.161 2.9367 22.8068 -13.2641 9.80695 22.8068 -13.8371 
16.6772 22.8068 -14.3643 23.5475 22.8068 -14.7774 30.4177 22.8068 -14.9985 
37.288 22.8068 -12.5695 -24.5443 29.6771 -12.6166 -17.6741 29.6771 -13.7142 
-10.8038 29.6771 -13.7035 -3.93355 29.6771 -13.7537 2.9367 29.6771 -13.642 
9.80695 29.6771 -13.668 16.6772 29.6771 -13.3672 23.5475 29.6771 -13.0119 
30.4177 29.6771 -11.7941 -17.6741 36.5473 -12.1969 -10.8038 36.5473 -12.5745 
-3.93355 36.5473 -13.1879 2.9367 36.5473 -12.8846 9.80695 36.5473 -12.9156 
16.6772 36.5473 -11.8953 -3.93355 43.4176 -10.8964 2.9367 43.4176 -10.4311 
-24.5443 -33.2187 -10.4205 -24.5443 -39.0255 -6.81416 -17.6741 -35.2748 -10.4205 
-17.6741 -39.0255 -7.60316 -10.8038 -34.8914 -10.4205 -10.8038 -39.0255 -7.69116 
-3.93355 -34.2604 -10.4205 -3.93355 -39.0255 -6.75363 2.9367 -33.8595 -10.4205 
2.9367 -39.0255 -6.06203 9.80695 -33.5692 -10.4205 9.80695 -39.0255 -5.50127 
16.6772 -32.9913 -10.4205 16.6772 -39.0255 -5.5703 23.5475 -39.0255 -3.70005 
-25.8315 -32.1552 -10.4205 -31.4146 -28.0276 -10.4205 -31.4146 -32.1552 -7.85466 
18.6833 -32.1552 -10.4205 23.5475 -28.8401 -10.4205 23.5475 -32.1552 -9.01152 
30.4177 -32.1552 -6.08796 -34.6631 -25.285 -10.4205 -38.2848 -20.0585 -10.4205 
-38.2848 -25.285 -8.08868 29.6237 -25.285 -10.4205 30.4177 -24.7212 -10.4205 
30.4177 -25.285 -10.2372 37.288 -19.4977 -10.4205 37.288 -25.285 -7.22901 
-39.0862 -18.4147 -10.4205 38.3768 -18.4147 -10.4205 44.1582 -18.4147 -7.90479 
-43.5489 -11.5445 -10.4205 -45.1551 -11.5445 -8.69075 43.3851 -11.5445 -10.4205 
44.1582 -9.99101 -10.4205 44.1582 -11.5445 -9.98608 51.0285 -11.5445 -4.10183 
-44.2753 -4.6742 -10.4205 -45.1551 -4.6742 -9.80406 47.0561 -4.6742 -10.4205 
51.0285 -4.6742 -6.71011 -44.5186 2.19605 -10.4205 -45.1551 2.19605 -10.0946 
46.8332 2.19605 -10.4205 51.0285 2.19605 -5.31971 -43.3221 9.0663 -10.4205 
-45.1551 9.0663 -9.47741 45.9568 9.0663 -10.4205 -40.7869 15.9366 -10.4205 
-45.1551 15.9366 -8.40202 -38.2848 17.6253 -10.4205 44.3751 15.9366 -10.4205 
44.1582 16.5542 -10.4205 -45.1551 22.8068 -4.66465 -34.5485 22.8068 -10.4205 
-38.2848 22.8068 -8.26739 -31.4146 26.7499 -10.4205 40.8866 22.8068 -10.4205 
37.288 26.7322 -10.4205 -38.2848 29.6771 -6.07217 -29.1414 29.6771 -10.4205 
-31.4146 29.6771 -9.03991 -24.5443 34.8076 -10.4205 23.5475 34.2185 -10.4205 
33.179 29.6771 -10.4205 30.4177 31.7781 -10.4205 37.288 29.6771 -7.09863 
-31.4146 36.5473 -5.11709 -22.4643 36.5473 -10.4205 -24.5443 36.5473 -9.30504 
-17.6741 41.6847 -10.4205 -10.8038 42.0089 -10.4205 9.80695 41.6288 -10.4205 
19.9808 36.5473 -10.4205 16.6772 39.1597 -10.4205 23.5475 36.5473 -8.69196 
30.4177 36.5473 -5.52808 -17.6741 43.4176 -8.28563 -6.7356 43.4176 -10.4205 
-10.8038 43.4176 -9.56704 -3.93355 44.0299 -10.4205 2.99531 43.4176 -10.4205 
2.9367 43.4318 -10.4205 9.80695 43.4176 -9.25574 16.6772 43.4176 -6.63616 
-24.5443 -41.3667 -3.5503 -17.6741 -43.1602 -3.5503 -10.8038 -43.0803 -3.5503 
-10.8038 -45.8957 2.90109 -3.93355 -41.9818 -3.5503 2.9367 -41.2544 -3.5503 
9.80695 -40.4988 -3.5503 16.6772 -40.6346 -3.5503 23.5475 -39.1516 -3.5503 
-28.6548 -39.0255 -3.5503 -31.4146 -36.8739 -3.5503 23.8264 -39.0255 -3.5503 
30.4177 -34.8409 -3.5503 -36.1756 -32.1552 -3.5503 -38.2848 -29.8184 -3.5503 
34.1919 -32.1552 -3.5503 37.288 -29.4111 -3.5503 37.288 -32.1552 1.85245 
-41.302 -25.285 -3.5503 41.1512 -25.285 -3.5503 44.1582 -22.9297 -3.5503 
-45.0225 -18.4147 -3.5503 -45.1551 -18.1311 -3.5503 47.8331 -18.4147 -3.5503 
51.0285 -12.3386 -3.5503 -47.7477 -11.5445 -3.5503 51.3779 -11.5445 -3.5503 
-50.1953 -4.6742 -3.5503 52.4984 -4.6742 -3.5503 -51.7782 2.19605 -3.5503 
51.8646 2.19605 -3.5503 51.0285 5.03834 -3.5503 51.0285 2.19605 1.608 
-51.8257 9.0663 -3.5503 49.799 9.0663 -3.5503 -49.0583 15.9366 -3.5503 
47.3798 15.9366 -3.5503 44.1582 22.3622 -3.5503 -46.1821 22.8068 -3.5503 
-45.1551 24.1035 -3.5503 43.9318 22.8068 -3.5503 -40.5271 29.6771 -3.5503 
-38.2848 31.8552 -3.5503 39.2996 29.6771 -3.5503 37.288 31.806 -3.5503 
-32.5774 36.5473 -3.5503 -31.4146 37.4207 -3.5503 -31.4146 36.5473 -0.842085 
-24.5443 41.5353 -3.5503 23.5475 41.1907 -3.5503 31.832 36.5473 -3.5503 
30.4177 37.5692 -3.5503 -20.8996 43.4176 -3.5503 -17.6741 45.0203 -3.5503 
-17.6741 43.4176 0.0745514 -10.8038 47.1836 -3.5503 -3.93355 48.7539 -3.5503 
2.9367 48.8457 -3.5503 9.80695 47.9851 -3.5503 19.8596 43.4176 -3.5503 
16.6772 44.9736 -3.5503 -10.8038 -46.0368 3.31995 -24.5443 -43.1875 3.31995 
-13.2122 -45.8957 3.31995 -17.6741 -45.6198 3.31995 -8.97645 -45.8957 3.31995 
-10.8038 -45.8957 4.33615 -3.93355 -45.505 3.31995 2.9367 -45.0523 3.31995 
9.80695 -43.9835 3.31995 16.6772 -43.3784 3.31995 23.5475 -41.6585 3.31995 
-31.0386 -39.0255 3.31995 -31.4146 -38.7141 3.31995 28.123 -39.0255 3.31995 
23.5475 -39.0255 8.74535 30.4177 -37.5776 3.31995 37.288 -32.5937 3.31995 
-37.7162 -32.1552 3.31995 -38.2848 -31.332 3.31995 30.4177 -32.1552 10.0469 
37.7354 -32.1552 3.31995 37.288 -32.1552 4.13475 -41.8769 -25.285 3.31995 
-38.2848 -25.285 9.45334 44.0179 -25.285 3.31995 37.288 -25.285 9.10984 
44.1582 -25.1139 3.31995 -45.0173 -18.4147 3.31995 -45.1551 -18.0684 3.31995 
48.6646 -18.4147 3.31995 44.1582 -18.4147 9.15488 51.0285 -12.3513 3.31995 
-47.7354 -11.5445 3.31995 -45.1551 -11.5445 7.76153 44.1582 -11.5445 9.50329 
51.3059 -11.5445 3.31995 51.0285 -11.5445 3.72709 -49.6422 -4.6742 3.31995 
-45.1551 -4.6742 8.54944 44.1582 -4.6742 10.1008 51.6758 -4.6742 3.31995 
51.0285 0.069402 3.31995 51.0285 -4.6742 4.61805 -51.8349 2.19605 3.31995 
-45.1551 2.19605 9.85429 50.6246 2.19605 3.31995 44.1582 2.19605 8.61877 
-51.7816 9.0663 3.31995 -45.1551 9.0663 9.52049 37.288 9.0663 9.83191 
47.0287 9.0663 3.31995 44.1582 9.0663 6.22183 -49.9304 15.9366 3.31995 
-45.1551 15.9366 10.1023 37.288 15.9366 8.77019 44.8734 15.9366 3.31995 
44.1582 17.4186 3.31995 44.1582 15.9366 4.13268 -46.6341 22.8068 3.31995 
-45.1551 24.5737 3.31995 -45.1551 22.8068 5.14442 -38.2848 22.8068 8.99787 
41.2611 22.8068 3.31995 37.288 22.8068 7.44529 -39.721 29.6771 3.31995 
-38.2848 30.8308 3.31995 -38.2848 29.6771 4.55685 -31.4146 34.7813 3.31995 
-31.4146 29.6771 8.81415 -24.5443 29.6771 8.61827 -17.6741 29.6771 9.67328 
30.4177 29.6771 9.52244 37.5608 29.6771 3.31995 37.288 30.0175 3.31995 
37.288 29.6771 3.658 -29.0537 36.5473 3.31995 -24.5443 38.9883 3.31995 
-24.5443 36.5473 5.73971 -17.6741 41.0613 3.31995 -17.6741 36.5473 6.81344 
-10.8038 36.5473 8.23071 -3.93355 36.5473 10.019 16.6772 36.5473 10.0408 
23.5475 40.8199 3.31995 23.5475 36.5473 7.88583 30.7526 36.5473 3.31995 
30.4177 36.7958 3.31995 30.4177 36.5473 3.69666 -13.5952 43.4176 3.31995 
-10.8038 44.4134 3.31995 -10.8038 43.4176 4.35118 -3.93355 45.4215 3.31995 
-3.93355 43.4176 5.53435 2.9367 46.6198 3.31995 2.9367 43.4176 7.00793 
9.80695 46.1324 3.31995 9.80695 43.4176 6.70833 18.2303 43.4176 3.31995 
16.6772 44.0614 3.31995 16.6772 43.4176 4.25306 -24.5443 -39.3576 10.1902 
-17.6741 -42.7372 10.1902 -10.8038 -44.6986 10.1902 -3.93355 -43.958 10.1902 
2.9367 -43.6406 10.1902 9.80695 -43.2492 10.1902 16.6772 -41.4594 10.1902 
-25.1305 -39.0255 10.1902 -31.4146 -34.2894 10.1902 -24.5443 -39.0255 10.5111 
-17.6741 -39.0255 12.6827 -10.8038 -39.0255 14.0973 -3.93355 -39.0255 14.2693 
2.9367 -39.0255 14.1827 9.80695 -39.0255 13.7103 21.7809 -39.0255 10.1902 
16.6772 -39.0255 12.2138 23.5475 -38.072 10.1902 -33.3433 -32.1552 10.1902 
[...]
POINT_DATA 530
SCALARS ImageScalars float
LOOKUP_TABLE default
0 0 0 0 0 0 0 0 0 
0 0 0 0 0 0 0 0 0 
0 0 0 0 0 0 0 0 0 
0 0 0 0 0 0 0 0 0 
0 0 0 0 0 0 0 0 0 
0 0 0 0 0 0 0 0 0 
0 0 0 0 0 0 0 0 0 
0 0 0 0 0 0 0 0 0 
0 0 0 0 0 0 0 0 0 
0 0 0 0 0 0 0 0 0 
0 0 0 0 0 0 0 0 0 
0 0 0 0 0 0 0 0 0 
0 0 0 0 0 0 0 0 0 
0 0 0 0 0 0 0 0 0 
0 0 0 0 0 0 0 0 0 
0 0 0 0 0 0 0 0 0 
0 0 0 0 0 0 0 0 0 
0 0 0 0 0 0 0 0 0 
0 0 0 0 0 0 0 0 0 
0 0 0 0 0 0 0 0 0 
0 0 0 0 0 0 0 0 0 
0 0 0 0 0 0 0 0 0 
0 0 0 0 0 0 0 0 0 
0 0 0 0 0 0 0 0 0 
0 0 0 0 0 0 0 0 0 
0 0 0 0 0 0 0 0 0 
0 0 0 0 0 0 0 0 0 
0 0 0 0 0 0 0 0 0 
0 0 0 0 0 0 0 0 0 
0 0 0 0 0 0 0 0 0 
0 0 0 0 0 0 0 0 0 
0 0 0 0 0 0 0 0 0 
0 0 0 0 0 0 0 0 0 
0 0 0 0 0 0 0 0 0 
0 0 0 0 0 0 0 0 0 
0 0 0 0 0 0 0 0 0 
0 0 0 0 0 0 0 0 0 
0 0 0 0 0 0 0 0 0 
0 0 0 0 0 0 0 0 0 
0 0 0 0 0 0 0 0 0 
0 0 0 0 0 0 0 0 0 
0 0 0 0 0 0 0 0 0 
0 0 0 0 0 0 0 0 0 
0 0 0 0 0 0 0 0 0 
0 0 0 0 0 0 0 0 0 
0 0 0 0 0 0 0 0 0 
0 0 0 0 0 0 0 0 0 
0 0 0 0 0 0 0 0 0 
0 0 0 0 0 0 0 0 0 
0 0 0 0 0 0 0 0 0 
0 0 0 0 0 0 0 0 0 
0 0 0 0 0 0 0 0 0 
0 0 0 0 0 0 0 0 0 
0 0 0 0 0 0 0 0 0 
0 0 0 0 0 0 0 0 0 
0 0 0 0 0 0 0 0 0 
0 0 0 0 0 0 0 0 0 
0 0 0 0 0 0 0 0 0 
0 0 0 0 0 0 0 0 
NORMALS Normals float
0.266064 0.374373 0.888287 0.0558047 0.351026 0.934701 -0.0307077 0.368457 0.929138 
-0.0243575 0.442178 0.896596 -0.0282137 0.487476 0.87268 -0.043501 0.458907 0.887419 
-0.136693 0.447056 0.884 0.282455 0.339521 0.897187 0.12224 0.211639 0.969673 
0.0270311 0.146169 0.98889 0.0431435 0.118511 0.992015 0.0452062 0.164766 0.985296 
-0.00734252 0.221591 0.975112 -0.0760612 0.207501 0.975273 -0.143878 0.209181 0.967235 
-0.200533 0.289746 0.93586 0.489528 0.313392 0.813725 0.196859 0.230296 0.953001 
0.0278462 0.136963 0.990185 -0.0390182 0.0706373 0.996739 0.00432645 -0.0480219 0.998837 
0.0896158 -0.00708382 0.995951 0.0156986 0.00829915 0.999842 -0.0713542 0.010234 0.997399 
-0.0649246 0.104873 0.992364 -0.103289 0.201185 0.974092 -0.17635 0.271924 0.946022 
-0.265926 0.342023 0.901279 0.362347 0.159083 0.918366 0.144487 0.109343 0.983447 
-0.0258691 0.11261 0.993303 -0.164409 0.0809169 0.983068 -0.0418359 0.024244 0.99883 
0.107585 0.0959462 0.989555 0.00990588 0.0794324 0.996791 0.0239591 0.113355 0.993266 
0.0443932 0.0880978 0.995122 -0.0303229 0.123276 0.991909 -0.111834 0.180896 0.977123 
-0.262627 0.210095 0.941747 0.330357 0.00791102 0.943823 0.145391 -0.0223319 0.989122 
-0.00963231 -0.00942335 0.999909 -0.109292 0.0665287 0.991781 0.0223497 0.293189 0.955793 
0.137154 0.00439483 0.99054 0.0184726 0.0831179 0.996368 -0.0676637 0.121416 0.990293 
-0.0582525 -0.0157841 0.998177 -0.00407743 0.0486896 0.998806 -0.0705367 0.0943731 0.993035 
-0.196567 0.115447 0.97367 -0.406222 0.150595 0.90128 0.276174 -0.0711921 0.958467 
0.125206 -0.121706 0.984638 0.0624862 -0.142909 0.987761 0.123767 -0.103411 0.986908 
-0.0778842 0.0736803 0.994236 -0.167625 -0.101223 0.98064 0.139344 0.0330442 0.989693 
-0.0768339 -0.0829426 0.993588 0.000591289 -0.0164054 0.999865 0.0775537 0.0443501 0.996001 
-0.0464095 0.0524836 0.997543 -0.185578 0.044778 0.981609 -0.492655 0.00330638 0.870218 
0.255791 -0.132165 0.957655 0.0841343 -0.183071 0.979493 0.0107342 -0.173603 0.984757 
0.0951813 -0.175366 0.979891 0.0615866 -0.288394 0.955529 0.073979 -0.129603 0.988802 
0.0234972 -0.254418 0.966809 -0.105125 -0.118503 0.987373 0.0616726 0.0563617 0.996504 
0.0639739 0.0327242 0.997415 -0.0669305 0.0174579 0.997605 -0.229631 -0.0203119 0.973066 
-0.575564 -0.101619 0.811419 0.214791 -0.316884 0.923823 0.0978267 -0.119876 0.987957 
0.0708411 -0.0824499 0.994074 0.02823 -0.0177174 0.999444 -0.0548248 -0.0782498 0.995425 
-0.0164773 -0.0581057 0.998174 0.123549 -0.172834 0.977171 0.171222 -0.0805684 0.981933 
0.133851 -0.0381437 0.990267 0.0417657 -0.0757959 0.996248 -0.0942497 -0.0511355 0.994234 
-0.301233 -0.159866 0.940054 -0.735514 -0.242165 0.632752 0.274484 -0.178667 0.944847 
0.121758 -0.000961772 0.992559 0.0923095 0.0472247 0.99461 -0.0227858 0.0503014 0.998474 
-0.0473252 0.105016 0.993344 0.046391 0.0615987 0.997022 0.0809213 -0.02315 0.996452 
0.0674063 -0.130736 0.989123 0.0436976 -0.190011 0.980809 -0.153047 -0.235434 0.959764 
-0.425979 -0.34927 0.834597 0.27929 -0.17976 0.94323 0.0943396 -0.107894 0.989676 
0.00285314 -0.08971 0.995964 -0.00447269 0.00402451 0.999982 -0.00608345 -0.0245989 0.999679 
-0.0180524 -0.0672 0.997576 -0.0493369 -0.159647 0.985941 -0.09141 -0.373973 0.922924 
-0.27828 -0.499348 0.820495 0.184696 -0.268454 0.94542 0.0726084 -0.237566 0.968654 
0.021461 -0.172185 0.984831 -0.0185805 -0.190246 0.981561 -0.0547289 -0.271137 0.960984 
-0.266791 -0.361468 0.8934 0.0434965 -0.522506 0.851525 -0.105823 -0.508007 0.854828 
0.270546 0.414376 0.868964 0.294556 0.714405 0.634714 0.0465495 0.479912 0.876081 
0.0437521 0.660169 0.749842 -0.0424366 0.470427 0.881418 -0.0458296 0.649934 0.758608 
-0.0409822 0.513391 0.857176 -0.0877526 0.688164 0.720229 -0.0283336 0.543377 0.839011 
-0.0619064 0.716847 0.694477 -0.037589 0.517902 0.854613 -0.0255318 0.779222 0.626227 
-0.137675 0.478381 0.867293 -0.0939421 0.766554 0.635271 -0.302307 0.778518 0.550017 
0.302641 0.399712 0.865239 0.337801 0.409408 0.847511 0.480945 0.550483 0.682393 
-0.169369 0.454315 0.874592 -0.232142 0.382075 0.894499 -0.266595 0.483801 0.833585 
-0.424069 0.618887 0.661168 0.422437 0.379492 0.823124 0.515401 0.341469 0.785977 
0.649226 0.445007 0.616826 -0.226709 0.345135 0.910761 -0.22524 0.346194 0.910723 
-0.234635 0.356759 0.904251 -0.283993 0.365007 0.886633 -0.486253 0.553075 0.676511 
0.524424 0.333167 0.783568 -0.304149 0.345183 0.887886 -0.585143 0.420807 0.693202 
0.627406 0.209977 0.749848 0.76338 0.252455 0.594573 -0.478527 0.22193 0.849564 
-0.481817 0.204172 0.852154 -0.515242 0.229716 0.825685 -0.885303 0.316361 0.340815 
0.590521 0.0366768 0.806188 0.652508 0.0609661 0.755325 -0.537413 0.132204 0.832892 
-0.884764 0.0751053 0.459948 0.496963 -0.0313223 0.867206 0.532966 -0.0252701 0.845759 
-0.622572 -0.0517859 0.780847 -0.935845 -0.181651 0.301988 0.447545 -0.0881625 0.889905 
0.539947 -0.087567 0.837132 -0.675348 -0.146273 0.722848 0.333293 -0.302469 0.892989 
0.599883 -0.290149 0.745623 0.267958 -0.313815 0.910889 -0.749685 -0.245283 0.614662 
-0.745719 -0.261595 0.612757 0.706012 -0.513366 0.487855 0.352329 -0.225551 0.90829 
0.476204 -0.312453 0.821951 0.354113 -0.261259 0.897969 -0.614839 -0.425754 0.663857 
-0.492237 -0.528678 0.691521 0.623333 -0.565285 0.540286 0.367714 -0.275366 0.888234 
0.444911 -0.369258 0.815906 0.33264 -0.404303 0.851992 -0.217648 -0.519394 0.826353 
-0.397298 -0.566673 0.721828 -0.326905 -0.569219 0.754402 -0.628421 -0.681986 0.374142 
0.616819 -0.740703 0.266256 0.299463 -0.410411 0.861328 0.385838 -0.536421 0.750587 
0.245546 -0.571981 0.782652 0.0797208 -0.51434 0.853873 -0.125793 -0.519772 0.844993 
-0.287411 -0.47158 0.833671 -0.306952 -0.484511 0.819164 -0.32093 -0.642921 0.695454 
-0.495204 -0.803002 0.331604 0.323038 -0.809361 0.490491 0.061514 -0.549353 0.833323 
0.122242 -0.658622 0.742478 0.0468486 -0.543332 0.838209 -0.106095 -0.508787 0.85433 
-0.105854 -0.508481 0.854542 -0.168502 -0.640775 0.749009 -0.404014 -0.801619 0.440658 
0.340583 0.827744 0.445919 0.121306 0.826932 0.549062 -0.0688811 0.814655 0.575841 
-0.0133542 0.992318 0.12299 -0.108235 0.773287 0.62475 -0.0891971 0.77059 0.631058 
-0.0356368 0.818626 0.57322 -0.0850388 0.826414 0.556604 -0.302667 0.783482 0.542724 
0.482515 0.765246 0.42612 0.574234 0.701108 0.422733 -0.311728 0.781282 0.540763 
-0.481778 0.706579 0.518301 0.683771 0.614751 0.393115 0.743854 0.572378 0.345057 
-0.536136 0.667073 0.517274 -0.590194 0.645934 0.484191 -0.689687 0.723812 0.0207094 
0.819125 0.486436 0.303998 -0.611966 0.66172 0.433156 -0.65823 0.638752 0.398409 
0.870013 0.432002 0.237595 0.872778 0.428521 0.233729 -0.768126 0.514689 0.380892 
-0.887673 0.331736 0.319356 0.909744 0.350925 0.221851 -0.900723 0.30309 0.311182 
0.930471 0.271301 0.246209 -0.984318 0.0343087 0.173034 0.946279 0.11067 0.303822 
-0.968312 -0.195328 0.155627 -0.964408 -0.243088 0.104041 -0.913341 -0.257556 -0.315393 
0.932009 -0.145704 0.331858 -0.952388 -0.302899 0.0347756 0.835066 -0.369636 0.407474 
-0.919047 -0.393682 0.0191384 -0.88078 -0.472627 -0.029166 0.753773 -0.50502 0.420453 
0.737591 -0.535391 0.411481 -0.876818 -0.479909 -0.0296369 0.702883 -0.641755 0.306765 
0.669958 -0.690589 0.272476 -0.734317 -0.671801 0.0972738 -0.688723 -0.713662 0.127861 
0.623272 -0.772294 0.12286 0.608917 -0.786964 0.0995395 0.588845 -0.79276 -0.157459 
0.499715 -0.864845 0.0482497 -0.4973 -0.824152 0.271047 -0.559026 -0.81063 0.174267 
-0.527406 -0.829967 0.181654 0.432264 -0.901108 -0.0339503 0.386561 -0.920945 -0.0493003 
0.391615 -0.845344 -0.363361 0.265534 -0.963749 0.0260507 0.122367 -0.992264 0.020945 
-0.0599319 -0.992213 0.109189 -0.278643 -0.948913 0.148064 -0.481419 -0.853395 0.199883 
-0.437933 -0.882906 0.169386 -0.00914348 0.995142 0.0980209 0.423185 0.903792 -0.0638308 
0.0632243 0.995826 0.0658243 0.199667 0.979863 0.00139179 -0.0255297 0.994151 0.104942 
-0.00140962 0.999773 0.0212507 -0.0710756 0.990105 0.120994 -0.109874 0.983576 0.143202 
-0.120523 0.978557 0.167037 -0.158828 0.984221 0.0779937 -0.374654 0.926965 -0.0192411 
0.635082 0.769144 -0.0713262 0.646531 0.759562 -0.0711617 -0.506204 0.860917 -0.0507825 
-0.40454 0.775472 -0.484758 -0.575215 0.815332 -0.0660435 -0.687504 0.720084 -0.093901 
0.781826 0.614724 -0.104226 0.796763 0.59328 -0.114841 -0.510618 0.455988 -0.728934 
-0.692844 0.714435 -0.0977188 -0.691345 0.703485 -0.164774 0.878472 0.443719 -0.177205 
0.70558 0.368328 -0.605385 -0.74768 0.642665 -0.167202 -0.534574 0.363076 -0.763156 
-0.749324 0.640287 -0.168957 0.89886 0.376104 -0.224934 0.899905 0.372397 -0.226917 
-0.852771 0.456783 -0.25324 -0.559815 0.271337 -0.782932 -0.909915 0.23546 -0.341487 
0.915742 0.30761 -0.258443 0.794047 0.208509 -0.570976 -0.52225 0.0534186 -0.851118 
-0.915606 0.202976 -0.347084 -0.900877 0.20865 -0.380639 0.896855 0.270283 -0.35014 
0.693169 0.114043 -0.711696 -0.361704 -0.0576587 -0.930508 -0.945399 -0.0438195 -0.322957 
-0.882351 -0.201272 -0.425379 -0.914259 -0.0533701 -0.401599 0.939974 0.134828 -0.31348 
0.522208 0.0486935 -0.851427 -0.841075 -0.26622 -0.470871 -0.502962 -0.217541 -0.836484 
0.939408 -0.113936 -0.323313 0.585992 0.00342566 -0.81031 -0.313577 -0.179129 -0.932514 
-0.752433 -0.332821 -0.568397 -0.625251 -0.275159 -0.730307 0.902891 -0.336193 -0.267884 
0.555687 -0.196183 -0.807914 -0.460855 -0.147333 -0.875161 -0.766124 -0.332248 -0.550151 
-0.763879 -0.343712 -0.546215 -0.735917 -0.324166 -0.594426 0.770734 -0.560193 -0.303568 
0.726231 -0.612638 -0.31187 0.694686 -0.583436 -0.42073 0.322993 -0.478186 -0.816709 
-0.757773 -0.383762 -0.527737 -0.644025 -0.260166 -0.719406 0.558556 -0.721192 -0.409752 
0.530204 -0.725482 -0.438817 0.51572 -0.699495 -0.494711 0.458335 -0.721923 -0.518416 
0.219206 -0.552853 -0.803929 0.0634161 -0.398362 -0.915033 0.159303 -0.286665 -0.944693 
-0.497702 -0.392436 -0.77349 -0.734405 -0.532607 -0.420688 -0.729901 -0.542378 -0.416018 
-0.727513 -0.527755 -0.438406 0.411096 -0.719952 -0.559169 0.341546 -0.745115 -0.572844 
0.297766 -0.612624 -0.732139 0.30429 -0.667645 -0.679454 0.173483 -0.512408 -0.841036 
0.187421 -0.42713 -0.884553 0.192499 -0.393137 -0.899104 -0.198839 -0.498523 -0.843764 
-0.441466 -0.831274 -0.337773 -0.31586 -0.677161 -0.664595 -0.557048 -0.760754 -0.333093 
-0.549684 -0.766683 -0.331729 -0.546277 -0.757901 -0.356606 0.269675 -0.722969 -0.636075 
0.217764 -0.760727 -0.611452 0.221744 -0.696028 -0.682916 0.141006 -0.762435 -0.631514 
0.149808 -0.684314 -0.713633 0.0373657 -0.823571 -0.565982 0.0603897 -0.680177 -0.730556 
-0.168735 -0.851928 -0.49573 -0.128604 -0.712244 -0.69005 -0.370145 -0.851441 -0.371538 
-0.342607 -0.856303 -0.386478 -0.330546 -0.830649 -0.448063 0.383829 0.628757 -0.676269 
0.277768 0.699856 -0.658062 0.0569886 0.843594 -0.533949 -0.0639078 0.855817 -0.513316 
-0.0448892 0.866462 -0.497221 -0.13658 0.86368 -0.485183 -0.291817 0.746696 -0.597736 
0.394799 0.623123 -0.675167 0.512647 0.544436 -0.663915 0.37775 0.615333 -0.69186 
0.214637 0.497166 -0.840688 0.111819 0.391548 -0.913338 0.00806716 0.455451 -0.890224 
-0.0432175 0.479044 -0.876727 -0.143422 0.498943 -0.854685 -0.372013 0.693531 -0.616945 
-0.264795 0.583367 -0.767832 -0.38801 0.664042 -0.639137 0.559821 0.486918 -0.670456 
0.485877 0.4698 -0.737029 0.246587 0.329773 -0.911287 0.119181 0.264598 -0.956966 
0.0158501 0.129433 -0.991461 0.0312197 0.110339 -0.993404 -0.0369906 0.127127 -0.991196 
-0.0530405 0.149812 -0.987291 -0.152033 0.226943 -0.961968 -0.501456 0.44577 -0.741506 
-0.279703 0.25992 -0.924234 -0.50099 0.440287 -0.745088 0.65733 0.342066 -0.671497 
0.66327 0.325315 -0.673975 0.372311 0.217374 -0.902293 0.136364 0.154522 -0.978534 
0.00763229 0.0156229 -0.999849 -0.0156295 -0.0269258 -0.999515 0.0192691 -0.0582313 -0.998117 
-0.01008 -0.0457853 -0.9989 -0.0518311 -0.0445167 -0.997663 -0.0848562 -0.0580273 -0.994702 
-0.211125 0.0163828 -0.977322 -0.45642 0.289356 -0.8414 -0.328659 0.165861 -0.929771 
-0.422205 0.307408 -0.852786 0.666241 0.245562 -0.704147 0.552199 0.172542 -0.815663 
0.296948 0.0501064 -0.953578 0.0452645 -0.00188867 -0.998973 -0.0860578 -0.0614992 -0.99439 
-0.0599002 -0.0994962 -0.993233 0.0119035 -0.0645411 -0.997844 -0.0225768 -0.0812374 -0.996439 
-0.0658858 -0.162966 -0.984429 -0.0760669 -0.151704 -0.985495 -0.0980044 -0.0826066 -0.991752 
-0.120925 0.0662263 -0.99045 -0.452164 0.251 -0.855889 -0.303871 0.240173 -0.921943 
0.623233 0.134152 -0.770444 0.406769 0.0540314 -0.911932 0.204008 -0.0855225 -0.975226 
0.0431992 -0.122191 -0.991566 -0.089112 -0.137362 -0.986504 -0.0235469 -0.123898 -0.992016 
0.039726 0.0294902 -0.998775 -0.113194 0.00784521 -0.993542 -0.120659 -0.180816 -0.976088 
-0.00731258 -0.189683 -0.981818 0.0229546 -0.0816661 -0.996395 -0.0763936 0.00567012 -0.997062 
-0.455131 0.0397064 -0.889539 -0.25374 -0.00876956 -0.967233 0.564569 0.0526622 -0.823704 
0.32066 -0.00417236 -0.947185 0.125209 -0.0705283 -0.98962 0.00455674 -0.133383 -0.991054 
-0.0810823 -0.144799 -0.986133 0.0978772 -0.0741632 -0.992431 0.158113 -0.122398 -0.979806 
-0.206438 -0.0393474 -0.977668 -0.292906 -0.0741513 -0.953262 0.0527077 -0.138067 -0.989019 
0.095158 -0.0993509 -0.990492 -0.0541004 -0.104382 -0.993065 -0.351806 -0.0592866 -0.934193 
-0.20891 -0.0904388 -0.973744 0.482886 0.0440969 -0.874572 0.258478 0.0282387 -0.965604 
0.0874315 -0.0106341 -0.996114 -0.0357012 -0.0336413 -0.998796 -0.0341791 -0.0278746 -0.999027 
0.0016952 0.0154135 -0.99988 0.0537855 -0.113921 -0.992033 -0.0143068 -0.237371 -0.971314 
-0.252292 0.0555921 -0.966053 -0.0258743 0.0768654 -0.996706 0.0554757 -0.00927573 -0.998417 
-0.0536531 -0.121805 -0.991103 -0.345693 -0.177194 -0.921465 -0.290233 -0.172539 -0.941273 
-0.231673 -0.151488 -0.960926 0.528319 0.00983357 -0.848989 0.263608 0.00269147 -0.964626 
0.0670123 -0.0640052 -0.995697 -0.0120967 -0.0503042 -0.998661 -0.0331173 -0.035261 -0.998829 
0.0173592 -0.0345518 -0.999252 -0.0805031 0.0609502 -0.994889 -0.0840499 -0.0403211 -0.995645 
0.0283647 0.0405551 -0.998775 -0.019458 0.202375 -0.979115 -0.100296 0.115483 -0.988233 
-0.284849 -0.151748 -0.946485 -0.195378 -0.0348714 -0.980108 0.545309 -0.19779 -0.814565 
0.266029 -0.422429 -0.866477 0.244 -0.313117 -0.917835 0.0415945 -0.216091 -0.975487 
-0.00137608 -0.191401 -0.981511 -0.0168601 -0.153061 -0.988073 0.0999475 -0.112589 -0.988602 
0.036354 -0.0274912 -0.998961 -0.0651317 0.0925 -0.99358 0.0482401 0.0697183 -0.9964 
0.0172511 0.079023 -0.996724 -0.154183 0.0771077 -0.985029 -0.398053 -0.0618795 -0.915273 
-0.349898 0.0102827 -0.936731 0.220576 -0.346586 -0.911715 0.177468 -0.387855 -0.904474 
0.164913 -0.28027 -0.945649 0.039728 -0.352984 -0.934786 0.0457023 -0.324848 -0.944661 
0.133179 -0.266133 -0.954692 0.0517244 -0.240569 -0.969253 0.145765 -0.148391 -0.978127 
0.119179 -0.134927 -0.983662 0.0141969 -0.0371903 -0.999207 0.0195056 -0.0251595 -0.999493 
-0.00940742 -0.071941 -0.997365 -0.16748 -0.0777565 -0.982804 -0.491993 -0.162783 -0.855246 
-0.46712 -0.312399 -0.827167 -0.390553 -0.127182 -0.911753 0.174613 -0.274413 -0.945626 
0.187441 -0.312761 -0.931153 0.197235 -0.270729 -0.942234 0.191551 -0.381609 -0.904258 
0.154138 -0.256952 -0.954053 0.0468213 -0.197858 -0.979112 0.00641842 -0.201695 -0.979427 
-0.190773 -0.485337 -0.85326 -0.0390626 -0.258586 -0.965198 -0.439519 -0.376226 -0.815645 
-0.247187 -0.513723 -0.821576 -0.209454 -0.333671 -0.919126 0.17628 -0.38623 -0.905402 
0.0674296 -0.43762 -0.896628 0.0743616 -0.362221 -0.929121 -0.182114 -0.484009 -0.855903 
-0.0834401 -0.469432 -0.879018 -0.0565191 -0.40129 -0.914206 
