# vtk DataFile Version 4.2
vtk output
ASCII
DATASET POLYDATA
POINTS 536 float
-10.323 -33.7145 -17.625 -2.11352 -33.7145 -19.0328 6.09601 -33.7145 -19.4937 
14.3055 -33.7145 -19.7544 22.5151 -33.7145 -19.9498 30.7246 -33.7145 -18.1604 
-34.9516 -25.5049 -16.3576 -26.7421 -25.5049 -17.0148 -18.5326 -25.5049 -18.2772 
-10.323 -25.5049 -20.4003 -2.11352 -25.5049 -21.8937 6.09601 -25.5049 -22.3099 
14.3055 -25.5049 -21.8965 22.5151 -25.5049 -22.1487 30.7246 -25.5049 -21.3557 
38.9341 -25.5049 -18.9069 -51.3707 -17.2954 -16.1586 -43.1612 -17.2954 -18.1119 
-34.9516 -17.2954 -18.5258 -26.7421 -17.2954 -18.8466 -18.5326 -17.2954 -19.2379 
-10.323 -17.2954 -21.0145 -2.11352 -17.2954 -21.8898 6.09601 -17.2954 -21.4261 
14.3055 -17.2954 -21.7493 22.5151 -17.2954 -21.9698 30.7246 -17.2954 -21.8303 
38.9341 -17.2954 -20.4434 47.1436 -17.2954 -18.0891 -51.3707 -9.08588 -17.9272 
-43.1612 -9.08588 -19.9634 -34.9516 -9.08588 -20.1505 -26.7421 -9.08588 -19.7443 
-18.5326 -9.08588 -20.4673 -10.323 -9.08588 -22.3902 -2.11352 -9.08588 -20.8202 
6.09601 -9.08588 -21.0219 14.3055 -9.08588 -21.2193 22.5151 -9.08588 -20.8843 
30.7246 -9.08588 -21.2801 38.9341 -9.08588 -20.9663 47.1436 -9.08588 -19.6467 
55.3532 -9.08588 -16.3181 -51.3707 -0.876352 -19.0649 -43.1612 -0.876352 -20.4877 
-34.9516 -0.876352 -20.725 -26.7421 -0.876352 -20.3461 -18.5326 -0.876352 -20.9242 
-10.323 -0.876352 -23.4226 -2.11352 -0.876352 -20.1843 6.09601 -0.876352 -23.3682 
14.3055 -0.876352 -22.3659 22.5151 -0.876352 -20.1727 30.7246 -0.876352 -21.0026 
38.9341 -0.876352 -20.9405 47.1436 -0.876352 -19.6842 55.3532 -0.876352 -16.311 
-51.3707 7.33318 -18.9334 -43.1612 7.33318 -20.5661 -34.9516 7.33318 -20.898 
-26.7421 7.33318 -20.3698 -18.5326 7.33318 -20.1384 -10.323 7.33318 -22.1667 
-2.11352 7.33318 -20.9957 6.09601 7.33318 -21.4243 14.3055 7.33318 -21.4314 
22.5151 7.33318 -20.9 30.7246 7.33318 -21.2463 38.9341 7.33318 -20.8473 
47.1436 7.33318 -19.0535 -51.3707 15.5427 -18.2877 -43.1612 15.5427 -20.1468 
-34.9516 15.5427 -21.7472 -26.7421 15.5427 -21.0735 -18.5326 15.5427 -20.6552 
-10.323 15.5427 -21.7415 -2.11352 15.5427 -22.0509 6.09601 15.5427 -21.2715 
14.3055 15.5427 -21.5594 22.5151 15.5427 -22.0889 30.7246 15.5427 -21.6181 
38.9341 15.5427 -20.3665 47.1436 15.5427 -17.4267 -43.1612 23.7522 -17.9657 
-34.9516 23.7522 -19.5382 -26.7421 23.7522 -20.0365 -18.5326 23.7522 -20.5487 
-10.323 23.7522 -20.7599 -2.11352 23.7522 -21.9196 6.09601 23.7522 -21.9538 
14.3055 23.7522 -21.7174 22.5151 23.7522 -22.0334 30.7246 23.7522 -20.8736 
38.9341 23.7522 -18.5179 -34.9516 31.9618 -15.9798 -26.7421 31.9618 -17.1607 
-18.5326 31.9618 -16.6421 -10.323 31.9618 -17.3778 -2.11352 31.9618 -19.6041 
6.09601 31.9618 -20.6997 14.3055 31.9618 -20.2851 22.5151 31.9618 -19.2254 
30.7246 31.9618 -16.9542 -10.323 -35.7609 -15.7489 -2.11352 -37.0254 -15.7489 
6.09601 -37.7131 -15.7489 14.3055 -38.6305 -15.7489 22.5151 -38.9829 -15.7489 
22.5151 -41.924 -9.53943 30.7246 -36.9248 -15.7489 -34.9516 -26.6157 -15.7489 
-34.9516 -33.7145 -10.9721 -26.7421 -28.3566 -15.7489 -26.7421 -33.7145 -12.5654 
-18.1995 -33.7145 -15.7489 -18.5326 -33.4911 -15.7489 -18.5326 -33.7145 -15.6298 
38.3251 -33.7145 -15.7489 38.9341 -33.2729 -15.7489 38.9341 -33.7145 -15.3285 
-51.3707 -18.1389 -15.7489 -51.3707 -25.5049 -11.0603 -39.7971 -25.5049 -15.7489 
-43.1612 -24.338 -15.7489 -43.1612 -25.5049 -15.2634 45.7395 -25.5049 -15.7489 
47.1436 -23.5839 -15.7489 47.1436 -25.5049 -14.7548 -52.1522 -17.2954 -15.7489 
-59.5802 -17.2954 -10.3984 51.7962 -17.2954 -15.7489 55.3532 -11.2264 -15.7489 
55.3532 -17.2954 -13.525 -56.585 -9.08588 -15.7489 -59.5802 -9.08588 -14.318 
56.4539 -9.08588 -15.7489 63.5627 -9.08588 -8.89007 -58.9085 -0.876352 -15.7489 
-59.5802 -0.876352 -15.4264 56.3544 -0.876352 -15.7489 55.3532 2.997 -15.7489 
63.5627 -0.876352 -9.05501 -57.9576 7.33318 -15.7489 -59.5802 7.33318 -14.7584 
53.9897 7.33318 -15.7489 55.3532 7.33318 -14.9267 -55.3393 15.5427 -15.7489 
-59.5802 15.5427 -10.8281 -51.3707 21.1843 -15.7489 49.5531 15.5427 -15.7489 
47.1436 18.8355 -15.7489 55.3532 15.5427 -10.6464 -48.1303 23.7522 -15.7489 
-51.3707 23.7522 -13.4844 -43.1612 27.8603 -15.7489 43.4787 23.7522 -15.7489 
38.9341 28.0745 -15.7489 47.1436 23.7522 -11.9173 -35.6879 31.9618 -15.7489 
-43.1612 31.9618 -11.7765 -34.9516 32.2162 -15.7489 -26.7421 33.8824 -15.7489 
-18.5326 33.1382 -15.7489 -10.323 33.9039 -15.7489 -2.11352 36.612 -15.7489 
6.09601 38.5396 -15.7489 14.3055 38.1536 -15.7489 22.5151 36.049 -15.7489 
33.2339 31.9618 -15.7489 30.7246 33.2978 -15.7489 38.9341 31.9618 -10.4176 
-2.11352 40.1713 -8.43499 6.09601 40.1713 -12.4045 14.3055 40.1713 -11.4767 
22.5151 -42.5616 -7.53941 -34.9516 -36.208 -7.53941 -26.7421 -37.491 -7.53941 
-18.5326 -38.3774 -7.53941 -10.323 -39.1344 -7.53941 -2.11352 -39.4822 -7.53941 
6.09601 -40.2257 -7.53941 16.6138 -41.924 -7.53941 14.3055 -41.6795 -7.53941 
26.1539 -41.924 -7.53941 22.5151 -41.924 -3.12933 30.7246 -41.0765 -7.53941 
38.9341 -37.3166 -7.53941 -51.3707 -29.2249 -7.53941 -43.0243 -33.7145 -7.53941 
-43.1612 -33.657 -7.53941 -43.1612 -33.7145 -7.39858 44.1492 -33.7145 -7.53941 
47.1436 -31.3531 -7.53941 -56.2687 -25.5049 -7.53941 -59.5802 -21.6786 -7.53941 
-59.5802 -25.5049 -2.93276 53.7545 -25.5049 -7.53941 55.3532 -23.8081 -7.53941 
-62.8074 -17.2954 -7.53941 60.84 -17.2954 -7.53941 63.5627 -11.1499 -7.53941 
-65.8608 -9.08588 -7.53941 64.4184 -9.08588 -7.53941 -67.2363 -0.876352 -7.53941 
-67.7897 -0.876352 -3.38924 64.5638 -0.876352 -7.53941 63.5627 3.268 -7.53941 
-65.4288 7.33318 -7.53941 62.4366 7.33318 -7.53941 63.5627 7.33318 -4.75162 
-61.9469 15.5427 -7.53941 -59.5802 19.0396 -7.53941 57.9512 15.5427 -7.53941 
55.3532 18.7042 -7.53941 -55.9177 23.7522 -7.53941 -51.3707 28.257 -7.53941 
50.6048 23.7522 -7.53941 47.1436 26.9972 -7.53941 -46.6967 31.9618 -7.53941 
-43.1612 34.2733 -7.53941 -34.9516 37.9874 -7.53941 -26.7421 39.9351 -7.53941 
-18.5326 39.511 -7.53941 -10.323 39.3078 -7.53941 22.5151 39.8984 -7.53941 
30.7246 37.4353 -7.53941 41.0374 31.9618 -7.53941 38.9341 33.3696 -7.53941 
-26.7421 40.1713 -4.2868 -18.5326 40.1713 -3.37961 -4.42323 40.1713 -7.53941 
-2.11352 40.4917 -7.53941 -2.11352 40.1713 0.533667 6.09601 41.7363 -7.53941 
21.1433 40.1713 -7.53941 14.3055 41.4835 -7.53941 -43.1612 -36.1326 0.67012 
-34.9516 -37.3428 0.67012 -26.7421 -38.0686 0.67012 -18.5326 -38.012 0.67012 
-10.323 -38.1126 0.67012 -2.11352 -38.3396 0.67012 6.09601 -38.9834 0.67012 
14.3055 -40.3945 0.67012 22.5151 -41.3475 0.67012 30.7246 -40.3108 0.67012 
38.9341 -36.8 0.67012 -59.5802 -27.278 0.67012 -50.4567 -33.7145 0.67012 
-51.3707 -33.3559 0.67012 43.7861 -33.7145 0.67012 38.9341 -33.7145 6.51458 
47.1436 -31.4676 0.67012 -61.2274 -25.5049 0.67012 -59.5802 -25.5049 5.50491 
55.2003 -25.5049 0.67012 55.3532 -25.3773 0.67012 -65.728 -17.2954 0.67012 
63.2923 -17.2954 0.67012 63.5627 -16.8127 0.67012 -67.637 -9.08588 0.67012 
-67.7897 -7.09588 0.67012 66.9319 -9.08588 0.67012 -68.2672 -0.876352 0.67012 
-67.7897 0.653613 0.67012 -67.7897 -0.876352 1.75933 67.5785 -0.876352 0.67012 
-65.5964 7.33318 0.67012 65.6445 7.33318 0.67012 63.5627 10.6684 0.67012 
-61.4831 15.5427 0.67012 -59.5802 17.992 0.67012 -59.5802 15.5427 3.57785 
60.7955 15.5427 0.67012 55.3532 21.4741 0.67012 -54.8157 23.7522 0.67012 
-51.3707 27.6254 0.67012 -51.3707 23.7522 5.59991 52.8002 23.7522 0.67012 
47.1436 28.5911 0.67012 -46.2337 31.9618 0.67012 -43.1612 33.9072 0.67012 
-43.1612 31.9618 4.29583 -34.9516 38.2162 0.67012 -10.323 40.143 0.67012 
-2.11352 40.1658 0.67012 22.5151 39.9213 0.67012 30.7246 37.8862 0.67012 
42.376 31.9618 0.67012 38.9341 34.1891 0.67012 -28.0332 40.1713 0.67012 
-26.7421 40.5074 0.67012 -26.7421 40.1713 1.67797 -10.6983 40.1713 0.67012 
-18.5326 40.7616 0.67012 -18.5326 40.1713 2.90078 -2.04556 40.1713 0.67012 
6.09601 40.8482 0.67012 6.09601 40.1713 2.63524 20.4054 40.1713 0.67012 
14.3055 40.902 0.67012 14.3055 40.1713 3.04557 -43.1612 -33.7252 8.87965 
-34.9516 -35.6188 8.87965 -26.7421 -34.5785 8.87965 -18.5326 -33.9243 8.87965 
-10.323 -34.4798 8.87965 -2.11352 -34.9392 8.87965 6.09601 -34.8811 8.87965 
14.3055 -35.567 8.87965 22.5151 -36.212 8.87965 30.7246 -35.1132 8.87965 
-43.1969 -33.7145 8.87965 -51.3707 -30.6329 8.87965 -43.1612 -33.7145 8.89499 
-34.9516 -33.7145 11.4281 -26.7421 -33.7145 9.99241 -18.5326 -33.7145 9.1583 
-10.323 -33.7145 9.97091 -2.11352 -33.7145 10.5609 6.09601 -33.7145 10.2725 
14.3055 -33.7145 10.7643 22.5151 -33.7145 11.3375 34.8623 -33.7145 8.87965 
30.7246 -33.7145 10.3706 38.9341 -32.1049 8.87965 47.1436 -27.361 8.87965 
-57.8257 -25.5049 8.87965 -59.5802 -22.9425 8.87965 -51.3707 -25.5049 13.8049 
-43.1612 -25.5049 16.6078 -18.5326 -25.5049 16.9431 -10.323 -25.5049 16.9956 
6.09601 -25.5049 16.0888 14.3055 -25.5049 15.9659 22.5151 -25.5049 16.6036 
30.7246 -25.5049 16.0214 38.9341 -25.5049 14.2678 49.8923 -25.5049 8.87965 
47.1436 -25.5049 10.9194 55.3532 -21.2947 8.87965 -62.3468 -17.2954 8.87965 
-59.5802 -17.2954 11.7247 -51.3707 -17.2954 16.6392 47.1436 -17.2954 16.8852 
59.508 -17.2954 8.87965 55.3532 -17.2954 13.3375 63.5627 -11.1806 8.87965 
-64.0127 -9.08588 8.87965 -59.5802 -9.08588 13.2887 64.7359 -9.08588 8.87965 
63.5627 -9.08588 10.3003 -64.1743 -0.876352 8.87965 -59.5802 -0.876352 13.4268 
65.8963 -0.876352 8.87965 63.5627 -0.876352 12.3893 -61.3884 7.33318 8.87965 
-59.5802 9.94648 8.87965 -59.5802 7.33318 10.3368 -51.3707 7.33318 15.6849 
64.2027 7.33318 8.87965 63.5627 8.47007 8.87965 63.5627 7.33318 9.95466 
-55.9431 15.5427 8.87965 -51.3707 21.0394 8.87965 -51.3707 15.5427 12.755 
-43.1612 15.5427 17.0348 59.7302 15.5427 8.87965 55.3532 20.3607 8.87965 
55.3532 15.5427 15.8606 -48.5019 23.7522 8.87965 -43.1612 28.6285 8.87965 
-43.1612 23.7522 12.8916 51.5235 23.7522 8.87965 47.1436 27.4206 8.87965 
47.1436 23.7522 16.1289 -38.6726 31.9618 8.87965 -34.9516 34.184 8.87965 
-34.9516 31.9618 11.2744 -26.7421 37.3563 8.87965 -26.7421 31.9618 15.0427 
[...]
POINT_DATA 536
SCALARS ImageScalars float
LOOKUP_TABLE default
0 0 0 0 0 0 0 0 0 
0 0 0 0 0 0 0 0 0 
0 0 0 0 0 0 0 0 0 
0 0 0 0 0 0 0 0 0 
0 0 0 0 0 0 0 0 0 
0 0 0 0 0 0 0 0 0 
0 0 0 0 0 0 0 0 0 
0 0 0 0 0 0 0 0 0 
0 0 0 0 0 0 0 0 0 
0 0 0 0 0 0 0 0 0 
0 0 0 0 0 0 0 0 0 
0 0 0 0 0 0 0 0 0 
0 0 0 0 0 0 0 0 0 
0 0 0 0 0 0 0 0 0 
0 0 0 0 0 0 0 0 0 
0 0 0 0 0 0 0 0 0 
0 0 0 0 0 0 0 0 0 
0 0 0 0 0 0 0 0 0 
0 0 0 0 0 0 0 0 0 
0 0 0 0 0 0 0 0 0 
0 0 0 0 0 0 0 0 0 
0 0 0 0 0 0 0 0 0 
0 0 0 0 0 0 0 0 0 
0 0 0 0 0 0 0 0 0 
0 0 0 0 0 0 0 0 0 
0 0 0 0 0 0 0 0 0 
0 0 0 0 0 0 0 0 0 
0 0 0 0 0 0 0 0 0 
0 0 0 0 0 0 0 0 0 
0 0 0 0 0 0 0 0 0 
0 0 0 0 0 0 0 0 0 
0 0 0 0 0 0 0 0 0 
0 0 0 0 0 0 0 0 0 
0 0 0 0 0 0 0 0 0 
0 0 0 0 0 0 0 0 0 
0 0 0 0 0 0 0 0 0 
0 0 0 0 0 0 0 0 0 
0 0 0 0 0 0 0 0 0 
0 0 0 0 0 0 0 0 0 
0 0 0 0 0 0 0 0 0 
0 0 0 0 0 0 0 0 0 
0 0 0 0 0 0 0 0 0 
0 0 0 0 0 0 0 0 0 
0 0 0 0 0 0 0 0 0 
0 0 0 0 0 0 0 0 0 
0 0 0 0 0 0 0 0 0 
0 0 0 0 0 0 0 0 0 
0 0 0 0 0 0 0 0 0 
0 0 0 0 0 0 0 0 0 
0 0 0 0 0 0 0 0 0 
0 0 0 0 0 0 0 0 0 
0 0 0 0 0 0 0 0 0 
0 0 0 0 0 0 0 0 0 
0 0 0 0 0 0 0 0 0 
0 0 0 0 0 0 0 0 0 
0 0 0 0 0 0 0 0 0 
0 0 0 0 0 0 0 0 0 
0 0 0 0 0 0 0 0 0 
0 0 0 0 0 0 0 0 0 
0 0 0 0 0 
NORMALS Normals float
0.194054 0.587518 0.785599 0.107195 0.598187 0.794155 0.0420267 0.570123 0.820483 
0.0254313 0.479111 0.877386 -0.0901039 0.447684 0.889641 -0.244723 0.514197 0.822017 
0.100569 0.375316 0.921425 0.106625 0.303805 0.946749 0.197402 0.19551 0.960629 
0.220437 0.182798 0.958119 0.110028 0.142075 0.983722 0.000803468 0.0924636 0.995716 
-0.00945412 0.109745 0.993915 -0.030057 0.102051 0.994325 -0.184041 0.194089 0.963565 
-0.344221 0.27549 0.897562 0.359574 0.330015 0.87281 0.141562 0.282948 0.948631 
0.0432149 0.222041 0.974079 0.0413633 0.155819 0.986919 0.125985 0.125875 0.984014 
0.160825 0.118137 0.979887 0.0224226 -0.0640324 0.997696 -0.00794301 -0.0764153 0.997044 
0.0330238 -0.0410999 0.998609 0.0053486 -0.0763016 0.99707 -0.0914134 -0.00701407 0.995788 
-0.204849 0.120168 0.971389 -0.35606 0.254685 0.899087 0.303978 0.1727 0.936895 
0.122627 0.131109 0.983755 -0.0120775 0.124988 0.992085 0.0149403 0.0906813 0.995768 
0.162927 0.105276 0.981005 0.0177578 0.146069 0.989115 -0.0814183 -0.101904 0.991457 
0.0248841 0.0992976 0.994747 -0.00858734 0.0247464 0.999657 0.00369181 -0.110708 0.993846 
0.00530394 -0.048714 0.998799 -0.0928968 0.0291583 0.995249 -0.275326 0.0844525 0.957634 
-0.430312 0.119874 0.894685 0.259121 0.0575299 0.96413 0.0947798 0.0391956 0.994726 
-0.00887556 0.047933 0.998811 0.0118103 0.0379032 0.999212 0.188988 -0.0222484 0.981727 
-0.0337631 -0.0132432 0.999342 -0.0321996 0.0104154 0.999427 0.143322 0.0323066 0.989149 
-0.208076 0.0164964 0.977974 -0.0572676 -0.000567435 0.998359 0.0468637 -0.00206232 0.998899 
-0.0754603 -0.00712643 0.997123 -0.269466 -0.0325677 0.962459 -0.456122 -0.0664343 0.887434 
0.285193 -0.049786 0.957176 0.110865 -0.0236094 0.993555 -0.0123061 0.0595919 0.998147 
-0.0461211 0.0439905 0.997967 0.106182 -0.0161784 0.994215 0.0568048 -0.103535 0.993002 
-0.0451441 0.11382 0.992475 0.0266225 -0.114024 0.993121 -0.0319032 -0.0395883 0.998707 
-0.0104672 0.118131 0.992943 -0.0031075 0.0371725 0.999304 -0.12547 -0.0337945 0.991522 
-0.317549 -0.115961 0.941125 0.400625 -0.239968 0.884259 0.201534 -0.1294 0.970896 
0.0646013 -0.0744527 0.99513 -0.0645848 -0.0187354 0.997736 0.0403981 0.0253184 0.998863 
0.0854724 -0.08268 0.992904 -0.0278075 0.053894 0.998159 -0.0302144 0.0318705 0.999035 
0.0495804 0.0171268 0.998623 0.00404497 0.0664494 0.997782 -0.100758 -0.0225963 0.994654 
-0.225983 -0.133779 0.964901 -0.461477 -0.303143 0.833753 0.296514 -0.393971 0.869981 
0.108597 -0.296975 0.94869 0.0580121 -0.219403 0.973908 0.0427935 -0.201711 0.97851 
0.0822125 -0.235382 0.96842 0.0703027 -0.132691 0.988661 -0.0123437 -0.026296 0.999578 
0.00431957 -0.0736568 0.997274 -0.0531827 -0.144957 0.988008 -0.194764 -0.238083 0.951517 
-0.410965 -0.373474 0.83164 0.198311 -0.589974 0.78269 0.0314714 -0.512897 0.857873 
0.00992942 -0.556812 0.830579 0.161568 -0.55797 0.813981 0.180804 -0.474785 0.86133 
0.0364711 -0.369405 0.928553 -0.0777306 -0.390515 0.917309 -0.187073 -0.505167 0.842502 
-0.316058 -0.628279 0.710896 0.180985 0.71439 0.675937 0.105335 0.807525 0.580351 
0.0843459 0.80993 0.580431 0.0650608 0.776383 0.626894 -0.0743663 0.759636 0.646083 
-0.039217 0.980387 0.19314 -0.268086 0.673137 0.689214 0.112713 0.409923 0.905129 
0.221573 0.764338 0.605551 0.147132 0.411542 0.899436 0.190915 0.720145 0.667041 
0.251496 0.577126 0.776965 0.252847 0.565149 0.785286 0.252854 0.581424 0.773312 
-0.445558 0.598814 0.665507 -0.456905 0.58644 0.668825 -0.467392 0.615519 0.634572 
0.362225 0.348783 0.864375 0.423378 0.569014 0.704964 0.188412 0.427278 0.88427 
0.23096 0.433982 0.870814 0.251425 0.467823 0.847306 -0.488572 0.426085 0.761413 
-0.483171 0.409259 0.773985 -0.531256 0.482984 0.696056 0.379433 0.331253 0.863888 
0.61219 0.41224 0.674745 -0.468057 0.327232 0.820879 -0.460367 0.190419 0.867066 
-0.586114 0.423812 0.690545 0.442093 0.208119 0.872491 0.55 0.249791 0.796934 
-0.465687 0.130798 0.87523 -0.850153 0.188395 0.491678 0.482698 0.0312903 0.875228 
0.513485 0.0273913 0.857661 -0.48826 -0.0744585 0.869516 -0.489049 -0.148841 0.859463 
-0.830152 -0.100374 0.548428 0.531865 -0.143692 0.834549 0.622518 -0.194785 0.757978 
-0.491488 -0.223306 0.841768 -0.542094 -0.249306 0.802484 0.560636 -0.301546 0.771205 
0.774564 -0.455691 0.43863 0.486949 -0.449658 0.748791 -0.527157 -0.342155 0.77784 
-0.529861 -0.39135 0.752391 -0.675229 -0.470628 0.567958 0.421404 -0.497138 0.758467 
0.559223 -0.589426 0.582964 0.355669 -0.535004 0.766335 -0.527594 -0.458293 0.715271 
-0.46808 -0.563947 0.680342 -0.62072 -0.578278 0.529436 0.217879 -0.599349 0.770266 
0.475396 -0.751081 0.458123 0.201497 -0.601687 0.772898 0.0458231 -0.595451 0.802084 
0.00324608 -0.605218 0.796053 0.155917 -0.645888 0.747341 0.207576 -0.727684 0.653749 
0.0763286 -0.779277 0.622014 -0.110641 -0.763225 0.63659 -0.234648 -0.727243 0.645026 
-0.369932 -0.665722 0.648047 -0.328218 -0.687428 0.647855 -0.503923 -0.778208 0.374771 
0.151791 -0.968542 0.197194 0.0715923 -0.927078 0.367968 -0.112649 -0.937067 0.330477 
-0.0326681 0.995793 0.0856122 0.20687 0.897434 0.389636 0.136199 0.92656 0.350624 
0.102006 0.972661 0.208629 0.067681 0.992318 0.103557 0.0660979 0.996191 0.0568794 
0.133305 0.989693 0.0523259 0.0922734 0.993387 0.0683249 0.139911 0.98809 0.0640622 
-0.145205 0.984408 0.0992771 -0.0154292 0.99143 -0.129728 -0.288872 0.949117 0.125419 
-0.503311 0.848851 0.161651 0.461972 0.699539 0.545185 0.35784 0.791785 0.495001 
0.35979 0.789535 0.497177 0.35853 0.795548 0.488426 -0.57909 0.790287 0.200252 
-0.61156 0.750246 0.251246 0.586017 0.60609 0.53781 0.654976 0.533573 0.535076 
0.728829 0.643025 0.235219 -0.677601 0.660946 0.322504 -0.691554 0.632966 0.348005 
0.722289 0.438883 0.534491 -0.777499 0.483124 0.4026 -0.865867 0.26541 0.424066 
0.886061 0.206463 0.415054 -0.880351 0.193282 0.433156 0.942245 -0.0260627 0.33391 
0.99425 -0.0761253 0.0753053 -0.86575 -0.0943667 0.4915 -0.846251 -0.220802 0.484878 
0.920977 -0.276122 0.274879 -0.808091 -0.34236 0.479353 -0.861028 -0.378407 0.339763 
0.839609 -0.486272 0.242066 0.799598 -0.554098 0.231557 -0.734036 -0.51033 0.448057 
-0.704102 -0.57456 0.417278 0.737796 -0.644914 0.199357 0.657042 -0.721139 0.219669 
-0.665912 -0.662943 0.342153 -0.642623 -0.698367 0.315149 0.568277 -0.795105 0.211826 
0.500208 -0.841098 0.205783 0.295988 -0.918893 0.260818 0.0968756 -0.951445 0.292176 
-0.0354406 -0.94474 0.3259 0.060322 -0.955579 0.288495 -0.229849 -0.959569 0.162469 
-0.358568 -0.908911 0.212864 -0.54427 -0.799384 0.254471 -0.50266 -0.828003 0.248482 
0.118804 -0.985269 0.123003 -0.0296861 -0.991892 0.123567 0.119101 -0.974792 0.188668 
0.142974 -0.977596 0.154482 0.0431144 -0.984907 -0.167626 0.059124 -0.993483 0.0974437 
-0.207403 -0.966335 0.152253 -0.10619 -0.986901 0.121453 0.229668 0.973212 -0.0105261 
0.112706 0.993359 -0.023121 0.0398005 0.986986 -0.155803 0.00241988 0.969322 -0.245781 
0.0190079 0.964624 -0.262942 0.0498326 0.965512 -0.255546 0.118003 0.95039 -0.287808 
0.135315 0.940432 -0.311893 -0.0012091 0.946915 -0.321483 -0.240786 0.927247 -0.286767 
-0.449094 0.86253 -0.233146 0.718374 0.693776 0.0511236 0.439023 0.896563 0.058601 
0.4675 0.881586 0.065192 -0.527617 0.821463 -0.216377 -0.402854 0.76334 -0.504995 
-0.567591 0.802061 -0.185847 0.776208 0.628856 0.0451811 0.739934 0.604546 -0.294993 
-0.652528 0.750373 -0.105581 -0.655238 0.748245 -0.103886 0.926565 0.37265 -0.0510806 
-0.82974 0.557156 -0.0332981 -0.842402 0.538079 -0.0288127 0.985192 0.142199 -0.095796 
0.990469 0.0794209 -0.112535 -0.967314 0.25238 0.0246537 0.980742 -0.115827 -0.157255 
0.97508 -0.156583 -0.157166 0.971141 -0.112125 -0.210506 -0.996292 -0.0571985 0.0642754 
0.92404 -0.346231 -0.162095 -0.904497 -0.418219 0.0835362 -0.873591 -0.4803 0.0784238 
0.803178 -0.544041 -0.242743 0.774381 -0.581217 -0.250042 0.754394 -0.53143 -0.38532 
-0.81293 -0.577412 0.0757653 -0.706352 -0.705892 0.0527648 0.713298 -0.653906 -0.252216 
0.659658 -0.697273 -0.280467 0.598161 -0.649265 -0.469742 -0.672048 -0.739651 0.0356053 
-0.605714 -0.795599 0.0115282 0.561878 -0.786476 -0.256416 0.511235 -0.827384 -0.23254 
0.528853 -0.756384 -0.384965 0.350305 -0.921258 -0.169027 -0.0361182 -0.99627 -0.0783644 
0.0413382 -0.98404 -0.173077 -0.172611 -0.978588 -0.11212 -0.32752 -0.943014 -0.0587833 
-0.536603 -0.843678 -0.0162761 -0.486197 -0.873436 -0.0268723 0.173696 -0.975961 -0.13164 
0.143391 -0.981199 -0.129178 0.148793 -0.973993 -0.170873 -0.0354322 -0.996369 -0.0774184 
-0.0227869 -0.998016 -0.0586878 -0.012444 -0.987313 -0.1583 0.0413603 -0.983974 -0.173451 
0.0437401 -0.97455 -0.219863 0.0444488 -0.960973 -0.273048 -0.141823 -0.981187 -0.130988 
-0.0554629 -0.98135 -0.184056 -0.0393698 -0.967866 -0.248366 0.23156 0.861538 -0.45181 
0.0519653 0.899344 -0.434143 -0.0902258 0.83044 -0.549753 -0.00439568 0.829218 -0.558909 
0.0560657 0.846167 -0.52996 0.0223125 0.854523 -0.518934 0.0308785 0.80131 -0.597452 
0.0667476 0.749968 -0.658097 -0.019876 0.737398 -0.675166 -0.179855 0.74938 -0.637246 
0.232187 0.861291 -0.451959 0.43884 0.745782 -0.501227 0.231584 0.861176 -0.452488 
0.0414079 0.818576 -0.572905 -0.0904929 0.808221 -0.581884 -0.0032599 0.823757 -0.566934 
0.057936 0.822001 -0.566531 0.0102721 0.811831 -0.583802 0.0123151 0.759127 -0.650826 
0.049492 0.688297 -0.723739 -0.0147501 0.664014 -0.747575 -0.276101 0.727606 -0.627979 
-0.177182 0.709048 -0.682537 -0.35996 0.69619 -0.621086 -0.443707 0.717779 -0.53658 
0.648399 0.540784 -0.535846 0.696829 0.456928 -0.552853 0.466435 0.522076 -0.714056 
0.199182 0.481538 -0.853491 -0.0383198 0.485347 -0.873482 0.0308082 0.475497 -0.879178 
-0.0817639 0.40328 -0.911417 0.0285128 0.41502 -0.909365 0.00310752 0.421729 -0.906716 
-0.114443 0.440041 -0.890655 -0.244956 0.551972 -0.797072 -0.479536 0.698527 -0.531136 
-0.415043 0.668506 -0.617121 -0.57618 0.649711 -0.495875 0.772813 0.29281 -0.563047 
0.664987 0.284725 -0.690452 0.41854 0.176554 -0.890872 -0.228144 0.484431 -0.844557 
-0.65803 0.571767 -0.489978 -0.509033 0.56247 -0.651546 -0.786584 0.377367 -0.488753 
0.806925 0.0927494 -0.583326 0.613395 0.0841478 -0.78528 -0.822408 0.30915 -0.477568 
-0.784418 0.316519 -0.533389 0.78898 -0.105356 -0.605318 0.589286 -0.148008 -0.794252 
-0.918022 -0.0312536 -0.395297 -0.833577 0.00806315 -0.552344 0.673057 -0.358652 -0.64681 
0.635105 -0.412706 -0.652928 0.610342 -0.369181 -0.700849 0.433204 -0.236787 -0.869636 
-0.879015 -0.346663 -0.327348 -0.871088 -0.374813 -0.317365 -0.866396 -0.336853 -0.368631 
0.622742 -0.455326 -0.636294 0.545693 -0.568502 -0.61565 0.512882 -0.400498 -0.759311 
0.376912 -0.274803 -0.884545 -0.77901 -0.560259 -0.28152 -0.689964 -0.674099 -0.263705 
-0.644345 -0.475303 -0.599088 0.523767 -0.601054 -0.603657 0.523239 -0.618895 -0.585824 
0.478601 -0.4986 -0.72273 -0.642887 -0.727328 -0.24019 -0.590638 -0.769973 -0.24143 
-0.553246 -0.646839 -0.524898 0.454295 -0.687895 -0.566054 0.382484 -0.739776 -0.553568 
0.38288 -0.668499 -0.637583 0.20044 -0.837741 -0.507951 0.211236 -0.621238 -0.754614 
0.021103 -0.88888 -0.457653 0.0525437 -0.607996 -0.7922 -0.0545732 -0.897977 -0.436646 
0.000692301 -0.63429 -0.773095 -0.0010215 -0.89004 -0.455882 0.0244869 -0.703751 -0.710025 
0.0495411 -0.885333 -0.462312 0.0616414 -0.700013 -0.711465 0.00474719 -0.905614 -0.424076 
-0.103563 -0.927124 -0.360161 -0.275779 -0.914024 -0.297499 -0.18415 -0.757257 -0.626618 
-0.479851 -0.840784 -0.250649 -0.456997 -0.852173 -0.254863 -0.445001 -0.831257 -0.333147 
0.0536385 0.472321 -0.879793 -0.0627055 0.525132 -0.848708 -0.0484808 0.457146 -0.888069 
0.149147 0.456867 -0.876942 0.199254 0.434146 -0.87853 0.0583659 0.423137 -0.904184 
-0.0421068 0.485389 -0.873284 -0.0580695 0.491933 -0.868694 -0.0372222 0.471641 -0.881005 
0.0164512 0.467545 -0.883816 0.0301733 0.469787 -0.882264 -0.0610616 0.422974 -0.904082 
-0.0516549 0.43527 -0.898817 -0.0793255 0.373434 -0.924259 0.0347137 0.392621 -0.919045 
0.00853122 0.396771 -0.917878 -0.0915684 0.401131 -0.911433 -0.170473 0.453029 -0.875045 
0.388336 0.174439 -0.904857 0.394569 0.102507 -0.913131 0.213705 0.184841 -0.959252 
0.051852 0.168531 -0.984332 -0.0506189 0.161378 -0.985594 0.00240136 0.218277 -0.975884 
0.0254422 0.312393 -0.949612 -0.0944516 0.2623 -0.960353 -0.0679874 0.359513 -0.93066 
0.0399342 0.381938 -0.923325 0.0270892 0.285201 -0.958085 -0.0449695 0.331052 -0.942541 
-0.216077 0.474875 -0.853114 -0.140495 0.402633 -0.904515 -0.224123 0.475248 -0.850828 
-0.47094 0.350658 -0.809478 0.38936 0.0437379 -0.920047 0.372595 0.0417646 -0.927054 
0.186254 0.0114718 -0.982435 0.0227699 0.00780505 -0.99971 -0.00345751 0.037356 -0.999296 
0.11908 0.108228 -0.986968 0.0767569 0.259827 -0.9626 -0.00632986 0.157584 -0.987485 
0.0566001 0.335733 -0.940255 -0.0513634 0.395609 -0.916982 -0.0568107 0.299606 -0.95237 
-0.000878811 0.289861 -0.957068 -0.0688419 0.301493 -0.95098 -0.208011 0.303993 -0.929688 
-0.518658 0.275956 -0.809223 -0.462975 0.273518 -0.843114 0.366399 -0.101878 -0.924864 
0.366998 -0.123971 -0.921924 0.350879 -0.0990571 -0.931167 0.189533 -0.0839673 -0.978277 
0.0730393 -0.000652404 -0.997329 0.0497191 0.0771876 -0.995776 0.227862 0.127458 -0.965315 
0.0855398 0.107318 -0.990538 -0.0194651 0.184183 -0.982699 0.169693 0.174897 -0.969853 
-0.0810927 0.244947 -0.966139 -0.0317664 0.233409 -0.97186 -0.101836 0.205405 -0.973364 
-0.2473 0.157068 -0.956123 -0.596212 0.0579348 -0.800734 -0.467708 0.0853698 -0.87975 
0.361693 -0.19582 -0.9115 0.373994 -0.270505 -0.887105 0.28282 -0.151326 -0.947161 
0.18309 -0.0455889 -0.982039 0.120579 0.0371122 -0.99201 0.159986 0.0349307 -0.986501 
0.130873 -0.116075 -0.984581 0.0630956 0.117362 -0.991083 -0.141091 0.0206243 -0.989782 
-0.293558 -0.0524077 -0.954504 -0.662338 -0.202748 -0.72125 -0.62506 -0.389999 -0.676166 
-0.550371 -0.162136 -0.819026 0.374854 -0.272816 -0.886034 0.261918 -0.195962 -0.944986 
0.127887 -0.130582 -0.983155 0.0738622 -0.148477 -0.986154 0.15848 -0.231493 -0.959841 
0.157856 -0.169872 -0.972741 -0.00184665 -0.188789 -0.982016 -0.215286 -0.196122 -0.956655 
-0.609181 -0.442554 -0.658061 -0.539505 -0.613158 -0.577036 -0.425702 -0.322963 -0.845265 
0.330053 -0.406618 -0.851896 0.325234 -0.411976 -0.851175 0.322843 -0.402976 -0.856378 
0.193447 -0.496569 -0.846166 0.171235 -0.34109 -0.924303 0.0528202 -0.541287 -0.839177 
0.0545138 -0.314334 -0.947746 0.0156253 -0.571897 -0.820176 0.0835052 -0.342892 -0.935656 
0.0366676 -0.662073 -0.748542 0.108078 -0.442596 -0.890184 0.0616143 -0.690124 -0.721064 
0.0487029 -0.438617 -0.897353 0.0421527 -0.375159 -0.926002 0.0210264 -0.366957 -0.93 
-0.183268 -0.755063 -0.629518 -0.094466 -0.419129 -0.902999 -0.526664 -0.628642 -0.572218 
-0.386479 -0.699552 -0.60105 -0.323341 -0.517175 -0.792452 0.0586259 -0.693674 -0.717899 
0.0499138 -0.697657 -0.714691 0.051293 -0.680298 -0.731139 -0.17702 -0.755103 -0.631255 
-0.028761 -0.736409 -0.675925 -0.0255204 -0.708256 -0.705495 -0.0117332 0.214078 -0.976746 
0.0626954 0.174798 -0.982606 0.094406 0.0819151 -0.992158 -0.0320218 0.201478 -0.97897 
-0.00220843 0.173982 -0.984746 -0.0477931 0.13499 -0.989694 -0.0418193 0.123292 -0.991489 
0.0654909 0.0813126 -0.994535 0.0674309 0.0500343 -0.996469 0.00365234 -0.149462 -0.988761 
0.01885 -0.0435509 -0.998873 -0.020049 0.0494572 -0.998575 -0.114174 0.0334403 -0.992898 
-0.0449596 0.0662973 -0.996786 0.044556 -0.172817 -0.983946 0.000931746 -0.178032 -0.984024 
0.00419074 -0.184733 -0.98278 0.0022228 -0.173578 -0.984818 0.0214867 -0.16579 -0.985927 
0.0282327 -0.166618 -0.985617 0.0286438 -0.158819 -0.986892 -0.0863683 -0.154787 -0.984165 
-0.0643807 -0.168286 -0.983634 -0.0631983 -0.147957 -0.986973 
