# vtk DataFile Version 4.2
vtk output
ASCII
DATASET POLYDATA
POINTS 520 float
7.87413 0.422732 -20.4521 45.663 0.422732 -20.2297 -29.9147 -29.8084 -13.9611 
-22.357 -29.8084 -14.3525 -14.7992 -29.8084 -13.8393 -7.24142 -29.8084 -13.0712 
-37.4725 -22.2506 -15.2544 -29.9147 -22.2506 -16.7861 -22.357 -22.2506 -16.9059 
-14.7992 -22.2506 -15.822 -7.24142 -22.2506 -14.6067 0.316351 -22.2506 -14.4154 
7.87413 -22.2506 -15.332 15.4319 -22.2506 -14.5838 22.9897 -22.2506 -13.8911 
30.5474 -22.2506 -13.6218 38.1052 -22.2506 -13.7328 45.663 -22.2506 -12.6788 
-45.0303 -14.6928 -13.5294 -37.4725 -14.6928 -17.1591 -29.9147 -14.6928 -17.8947 
-22.357 -14.6928 -17.2251 -14.7992 -14.6928 -16.2661 -7.24142 -14.6928 -15.426 
0.316351 -14.6928 -15.3176 7.87413 -14.6928 -16.1871 15.4319 -14.6928 -15.329 
22.9897 -14.6928 -15.3467 30.5474 -14.6928 -16.6451 38.1052 -14.6928 -18.1674 
45.663 -14.6928 -17.6813 53.2208 -14.6928 -16.8195 -45.0303 -7.13504 -13.3368 
-37.4725 -7.13504 -16.589 -29.9147 -7.13504 -17.1953 -22.357 -7.13504 -16.391 
-14.7992 -7.13504 -15.3183 -7.24142 -7.13504 -18.9129 0.316351 -7.13504 -18.4613 
7.87413 -0.0807434 -20.2198 7.87413 -7.13504 -16.2889 15.4319 -7.13504 -14.0238 
22.9897 -7.13504 -16.2747 30.5474 -7.13504 -17.6772 38.1052 -7.13504 -18.6986 
45.663 0.287559 -20.2198 45.663 -7.13504 -19.6686 53.2208 -7.13504 -17.8279 
60.7785 -7.13504 -14.3971 -37.4725 0.422732 -15.2739 -29.9147 0.422732 -16.7988 
-22.357 0.422732 -16.6996 -14.7992 0.422732 -15.721 -7.24142 0.422732 -17.8767 
7.3561 0.422732 -20.2198 0.316351 0.422732 -16.6415 8.25026 0.422732 -20.2198 
7.87413 1.16804 -20.2198 15.4319 0.422732 -15.2505 22.9897 0.422732 -16.2801 
30.5474 0.422732 -18.1287 45.6013 0.422732 -20.2198 38.1052 0.422732 -19.1066 
45.6874 0.422732 -20.2198 45.663 0.459209 -20.2198 53.2208 0.422732 -17.7594 
60.7785 0.422732 -13.3483 -37.4725 7.98051 -13.0304 -29.9147 7.98051 -15.2019 
-22.357 7.98051 -16.2595 -14.7992 7.98051 -17.3751 -7.24142 7.98051 -18.1968 
0.316351 7.98051 -17.0681 7.87413 7.98051 -17.798 15.4319 7.98051 -15.3064 
22.9897 7.98051 -16.5089 30.5474 7.98051 -17.5789 38.1052 7.98051 -18.0986 
45.663 7.98051 -18.0721 53.2208 7.98051 -16.8435 -29.9147 15.5383 -12.8855 
-22.357 15.5383 -13.6601 -14.7992 15.5383 -13.916 -7.24142 15.5383 -14.7045 
0.316351 15.5383 -15.5892 7.87413 15.5383 -15.5701 15.4319 15.5383 -15.1948 
22.9897 15.5383 -15.5327 30.5474 15.5383 -16.1302 38.1052 15.5383 -16.2562 
45.663 15.5383 -14.7844 -14.7992 23.0961 -12.8229 -7.24142 23.0961 -13.2715 
0.316351 23.0961 -13.1683 7.87413 23.0961 -14.2671 15.4319 23.0961 -14.9229 
22.9897 23.0961 -14.8153 30.5474 23.0961 -13.353 -29.9147 -31.6203 -12.662 
-29.9147 -37.3661 -6.92048 -22.357 -32.6862 -12.662 -22.357 -37.3661 -9.37728 
-14.7992 -32.2832 -12.662 -14.7992 -37.3661 -9.74514 -7.24142 -30.6737 -12.662 
-7.24142 -37.3661 -8.67389 0.316351 -37.3661 -5.63376 -45.0303 -29.8084 -5.15574 
-33.943 -29.8084 -12.662 -37.4725 -27.5033 -12.662 -37.4725 -29.8084 -11.0937 
-4.25136 -29.8084 -12.662 0.316351 -27.7878 -12.662 0.316351 -29.8084 -11.9104 
7.87413 -26.9434 -12.662 7.87413 -29.8084 -10.2481 15.4319 -25.1397 -12.662 
15.4319 -29.8084 -6.62602 22.9897 -24.0067 -12.662 30.5474 -23.2494 -12.662 
38.1052 -23.3621 -12.662 45.663 -22.2647 -12.662 -42.7276 -22.2506 -12.662 
-45.0303 -18.0441 -12.662 -45.0303 -22.2506 -11.0335 45.7099 -22.2506 -12.662 
53.2208 -19.2071 -12.662 53.2208 -22.2506 -6.33332 -46.2907 -14.6928 -12.662 
59.2487 -14.6928 -12.662 60.7785 -11.8347 -12.662 60.7785 -14.6928 -10.1741 
-45.9935 -7.13504 -12.662 -45.0303 -4.30554 -12.662 62.3905 -7.13504 -12.662 
-42.8251 0.422732 -12.662 -45.0303 0.422732 -11.2123 61.4225 0.422732 -12.662 
60.7785 3.53958 -12.662 -38.2048 7.98051 -12.662 -45.0303 7.98051 -8.74829 
-37.4725 9.27654 -12.662 59.3327 7.98051 -12.662 53.2208 13.4582 -12.662 
60.7785 7.98051 -8.06062 -45.0303 15.5383 -5.59817 -30.8533 15.5383 -12.662 
-37.4725 15.5383 -10.8491 -29.9147 17.7463 -12.662 -22.357 22.5592 -12.662 
38.1052 21.9931 -12.662 50.4869 15.5383 -12.662 45.663 18.3351 -12.662 
53.2208 15.5383 -9.81286 -37.4725 23.0961 -8.74007 -29.9147 23.0961 -12.0927 
-20.0281 23.0961 -12.662 -22.357 23.0961 -12.5889 -14.7992 25.6214 -12.662 
-7.24142 29.4006 -12.662 0.316351 27.0433 -12.662 7.87413 28.6962 -12.662 
15.4319 29.6668 -12.662 22.9897 28.5857 -12.662 34.5074 23.0961 -12.662 
30.5474 24.224 -12.662 38.1052 23.0961 -11.7497 -37.4725 30.6538 -6.82614 
-29.9147 30.6538 -10.1278 -22.357 30.6538 -12.5628 -14.7992 30.6538 -12.3358 
-7.24142 30.6538 -12.5267 0.316351 30.6538 -12.1974 7.87413 30.6538 -12.0698 
15.4319 30.6538 -12.2661 22.9897 30.6538 -11.3095 30.5474 30.6538 -6.67086 
-29.9147 38.2116 -7.87642 -22.357 38.2116 -9.95137 -14.7992 38.2116 -10.5497 
-7.24142 38.2116 -10.3474 0.316351 38.2116 -9.52405 7.87413 38.2116 -7.58733 
-22.357 45.7694 -5.30067 -14.7992 45.7694 -6.04624 -29.9147 -38.8593 -5.10424 
-22.357 -41.4455 -5.10424 -14.7992 -42.3326 -5.10424 -14.7992 -44.9239 1.02868 
-7.24142 -41.1082 -5.10424 0.316351 -37.8137 -5.10424 -45.0303 -29.8391 -5.10424 
-33.579 -37.3661 -5.10424 -37.4725 -35.5403 -5.10424 -37.4725 -37.3661 2.31123 
1.16687 -37.3661 -5.10424 7.87413 -33.851 -5.10424 15.4319 -30.6536 -5.10424 
-45.0595 -29.8084 -5.10424 20.4932 -29.8084 -5.10424 22.9897 -29.4179 -5.10424 
30.5474 -28.2763 -5.10424 38.1052 -27.6285 -5.10424 45.663 -26.0695 -5.10424 
53.2208 -22.6522 -5.10424 -49.5528 -22.2506 -5.10424 53.7878 -22.2506 -5.10424 
53.2208 -22.2506 -3.99565 60.7785 -16.5268 -5.10424 -51.9219 -14.6928 -5.10424 
62.2292 -14.6928 -5.10424 60.7785 -14.6928 -2.26016 -51.9623 -7.13504 -5.10424 
-52.5881 -7.13504 1.68433 65.816 -7.13504 -5.10424 -50.2866 0.422732 -5.10424 
64.2252 0.422732 -5.10424 60.7785 0.422732 1.3401 -48.3909 7.98051 -5.10424 
61.338 7.98051 -5.10424 60.7785 8.68066 -5.10424 60.7785 7.98051 -4.00239 
-45.4548 15.5383 -5.10424 -45.0303 19.548 -5.10424 45.663 23.0928 -5.10424 
55.462 15.5383 -5.10424 53.2208 17.6233 -5.10424 53.2208 15.5383 -0.844042 
-44.4542 23.0961 -5.10424 -45.0303 23.0961 -4.46838 45.6577 23.0961 -5.10424 
38.1052 27.6911 -5.10424 -39.7374 30.6538 -5.10424 -45.0303 30.6538 1.0063 
-37.4725 35.3367 -5.10424 15.4319 38.102 -5.10424 22.9897 35.24 -5.10424 
32.5042 30.6538 -5.10424 30.5474 31.6635 -5.10424 -35.2948 38.2116 -5.10424 
-37.4725 38.2116 -3.21422 -29.9147 41.8188 -5.10424 -7.24142 44.8352 -5.10424 
0.316351 43.1197 -5.10424 15.0971 38.2116 -5.10424 7.87413 40.5751 -5.10424 
15.4319 38.2116 0.711545 -22.8622 45.7694 -5.10424 -22.357 45.9157 -5.10424 
-10.6649 45.7694 -5.10424 -14.7992 46.4775 -5.10424 -14.7992 -45.3824 2.45353 
-37.4725 -37.3942 2.45353 -29.9147 -41.8566 2.45353 -19.4918 -44.9239 2.45353 
-22.357 -44.6411 2.45353 -11.5892 -44.9239 2.45353 -14.7992 -44.9239 6.28183 
-7.24142 -44.22 2.45353 0.316351 -40.772 2.45353 -37.5067 -37.3661 2.45353 
-45.0303 -30.2293 2.45353 -37.4725 -37.3661 2.55618 6.09472 -37.3661 2.45353 
7.87413 -36.1914 2.45353 15.4319 -31.8784 2.45353 -45.3929 -29.8084 2.45353 
-45.0303 -29.8084 3.42739 21.3895 -29.8084 2.45353 15.4319 -29.8084 7.34823 
22.9897 -29.2857 2.45353 30.5474 -27.6557 2.45353 38.1052 -26.3575 2.45353 
45.663 -24.5863 2.45353 -50.0538 -22.2506 2.45353 30.5474 -22.2506 9.54479 
38.1052 -22.2506 8.37301 49.3003 -22.2506 2.45353 45.663 -22.2506 4.92953 
53.2208 -19.5877 2.45353 -52.2871 -14.6928 2.45353 -52.5881 -8.45619 2.45353 
57.9087 -14.6928 2.45353 53.2208 -14.6928 6.3778 60.7785 -9.21537 2.45353 
-52.6499 -7.13504 2.45353 -52.5881 -6.50245 2.45353 -52.5881 -7.13504 2.64995 
53.2208 -7.13504 8.5367 62.1972 -7.13504 2.45353 60.7785 -2.73891 2.45353 
60.7785 -7.13504 3.96187 -51.9089 0.422732 2.45353 59.8309 0.422732 2.45353 
53.2208 0.422732 7.53999 -50.8395 7.98051 2.45353 57.0523 7.98051 2.45353 
53.2208 12.9187 2.45353 53.2208 7.98051 5.65488 -49.5505 15.5383 2.45353 
51.1016 15.5383 2.45353 45.663 20.3598 2.45353 45.663 15.5383 6.91857 
-48.2734 23.0961 2.45353 30.5474 23.0961 9.71859 42.2769 23.0961 2.45353 
38.1052 26.1959 2.45353 38.1052 23.0961 6.2558 -45.7342 30.6538 2.45353 
-45.0303 31.895 2.45353 -45.0303 30.6538 6.04624 22.9897 34.667 2.45353 
22.9897 30.6538 7.23385 30.7569 30.6538 2.45353 30.5474 30.7727 2.45353 
30.5474 30.6538 2.62985 -40.4598 38.2116 2.45353 -37.4725 40.9237 2.45353 
-29.9147 45.084 2.45353 -29.9147 38.2116 9.88281 -22.357 38.2116 9.72556 
-14.7992 38.2116 9.26783 -7.24142 44.7296 2.45353 -7.24142 38.2116 8.01059 
0.316351 42.8645 2.45353 0.316351 38.2116 7.16418 7.87413 41.1866 2.45353 
7.87413 38.2116 6.21316 15.4937 38.2116 2.45353 15.4319 38.24 2.45353 
15.4319 38.2116 2.50131 -24.6308 45.7694 2.45353 -22.357 46.0405 2.45353 
-22.357 45.7694 2.8947 -14.1551 45.7694 2.45353 -14.7992 45.8426 2.45353 
-14.7992 45.7694 2.56063 -29.9147 -40.2654 10.0113 -22.357 -43.5998 10.0113 
-14.7992 -44.3344 10.0113 -7.24142 -41.9372 10.0113 0.316351 -38.1466 10.0113 
-34.1968 -37.3661 10.0113 -37.4725 -34.5009 10.0113 -29.9147 -37.3661 13.1637 
-22.357 -37.3661 16.1844 -14.7992 -37.3661 16.5575 -7.24142 -37.3661 14.3576 
1.58107 -37.3661 10.0113 0.316351 -37.3661 10.7811 7.87413 -33.0759 10.0113 
-41.8213 -29.8084 10.0113 -45.0303 -24.737 10.0113 -37.4725 -29.8084 13.8638 
-7.24142 -29.8084 16.6459 0.316351 -29.8084 14.9175 13.1259 -29.8084 10.0113 
7.87413 -29.8084 12.578 15.4319 -28.1269 10.0113 22.9897 -23.8955 10.0113 
-46.4194 -22.2506 10.0113 -45.0303 -22.2506 11.6736 -37.4725 -22.2506 17.3197 
-7.24142 -22.2506 17.5641 0.316351 -22.2506 16.1964 7.87413 -22.2506 15.6984 
15.4319 -22.2506 13.7049 28.6862 -22.2506 10.0113 22.9897 -22.2506 11.2746 
30.5474 -21.565 10.0113 38.1052 -19.6081 10.0113 45.663 -16.0413 10.0113 
-48.7977 -14.6928 10.0113 -45.0303 -14.6928 13.7535 0.316351 -14.6928 17.4836 
7.87413 -14.6928 16.6057 15.4319 -14.6928 15.2731 22.9897 -14.6928 14.3932 
30.5474 -14.6928 13.6257 38.1052 -14.6928 12.0112 47.1404 -14.6928 10.0113 
45.663 -14.6928 10.7636 -49.5612 -7.13504 10.0113 -45.0303 -7.13504 14.2832 
[...]
POINT_DATA 520
SCALARS ImageScalars float
LOOKUP_TABLE default
0 0 0 0 0 0 0 0 0 
0 0 0 0 0 0 0 0 0 
0 0 0 0 0 0 0 0 0 
0 0 0 0 0 0 0 0 0 
0 0 0 0 0 0 0 0 0 
0 0 0 0 0 0 0 0 0 
0 0 0 0 0 0 0 0 0 
0 0 0 0 0 0 0 0 0 
0 0 0 0 0 0 0 0 0 
0 0 0 0 0 0 0 0 0 
0 0 0 0 0 0 0 0 0 
0 0 0 0 0 0 0 0 0 
0 0 0 0 0 0 0 0 0 
0 0 0 0 0 0 0 0 0 
0 0 0 0 0 0 0 0 0 
0 0 0 0 0 0 0 0 0 
0 0 0 0 0 0 0 0 0 
0 0 0 0 0 0 0 0 0 
0 0 0 0 0 0 0 0 0 
0 0 0 0 0 0 0 0 0 
0 0 0 0 0 0 0 0 0 
0 0 0 0 0 0 0 0 0 
0 0 0 0 0 0 0 0 0 
0 0 0 0 0 0 0 0 0 
0 0 0 0 0 0 0 0 0 
0 0 0 0 0 0 0 0 0 
0 0 0 0 0 0 0 0 0 
0 0 0 0 0 0 0 0 0 
0 0 0 0 0 0 0 0 0 
0 0 0 0 0 0 0 0 0 
0 0 0 0 0 0 0 0 0 
0 0 0 0 0 0 0 0 0 
0 0 0 0 0 0 0 0 0 
0 0 0 0 0 0 0 0 0 
0 0 0 0 0 0 0 0 0 
0 0 0 0 0 0 0 0 0 
0 0 0 0 0 0 0 0 0 
0 0 0 0 0 0 0 0 0 
0 0 0 0 0 0 0 0 0 
0 0 0 0 0 0 0 0 0 
0 0 0 0 0 0 0 0 0 
0 0 0 0 0 0 0 0 0 
0 0 0 0 0 0 0 0 0 
0 0 0 0 0 0 0 0 0 
0 0 0 0 0 0 0 0 0 
0 0 0 0 0 0 0 0 0 
0 0 0 0 0 0 0 0 0 
0 0 0 0 0 0 0 0 0 
0 0 0 0 0 0 0 0 0 
0 0 0 0 0 0 0 0 0 
0 0 0 0 0 0 0 0 0 
0 0 0 0 0 0 0 0 0 
0 0 0 0 0 0 0 0 0 
0 0 0 0 0 0 0 0 0 
0 0 0 0 0 0 0 0 0 
0 0 0 0 0 0 0 0 0 
0 0 0 0 0 0 0 0 0 
0 0 0 0 0 0 0 
NORMALS Normals float
-0.0942452 0.0833857 0.992051 -0.121304 -0.0979234 0.987773 0.152391 0.506222 0.848833 
-0.0102223 0.414206 0.910126 -0.0794467 0.352685 0.932363 -0.115955 0.330858 0.93653 
0.300454 0.309565 0.902162 0.095455 0.233195 0.967734 -0.0650427 0.1761 0.982221 
-0.14393 0.156027 0.97721 -0.0922213 0.154765 0.983638 0.0446644 0.209917 0.976698 
0.0121353 0.306573 0.95177 -0.0958458 0.359009 0.9284 -0.059527 0.431667 0.900067 
-0.012055 0.61316 0.789866 -0.0400258 0.664218 0.746467 -0.182021 0.764424 0.618486 
0.535414 0.0974791 0.838946 0.271024 0.0741812 0.95971 -0.00122784 0.0306864 0.999528 
-0.105591 -0.0351911 0.993787 -0.117374 -0.0335539 0.992521 -0.0636251 0.226021 0.972042 
0.0514767 0.235508 0.970508 -0.000797244 0.0578799 0.998323 -0.0565058 -0.0329748 0.997858 
0.0837323 0.152765 0.984709 0.170655 0.218862 0.960717 0.0632509 0.276854 0.958828 
-0.0631617 0.334066 0.940431 -0.355497 0.431922 0.828894 0.538567 -0.11771 0.83432 
0.232886 -0.115049 0.965675 -0.0127597 -0.0722745 0.997303 -0.126232 -0.035358 0.99137 
0.104899 -0.039292 0.993706 0.246558 0.186019 0.951108 -0.151497 0.11249 0.982036 
-0.112642 0.102577 0.988327 -0.285394 0.225064 0.93161 0.0306807 -0.0181196 0.999365 
0.231164 0.0620824 0.970932 0.157791 0.0946891 0.982922 0.126061 0.0577392 0.990341 
-0.12089 -0.0929521 0.988304 -0.0836782 0.1821 0.979713 -0.243336 0.0342885 0.969336 
-0.730579 0.112868 0.673436 0.309654 -0.209299 0.927528 0.0864677 -0.123851 0.988526 
-0.065332 -0.00840251 0.997828 0.078005 0.138856 0.987236 0.0637992 -0.0314309 0.997468 
-0.0769393 0.0719375 0.994437 0.116093 -0.0854259 0.989558 -0.108685 0.0846988 0.990461 
-0.102275 0.0397306 0.993962 -0.19604 0.0866789 0.976757 0.180982 0.0155533 0.983363 
0.184992 -0.00656161 0.982718 -0.119129 -0.0974502 0.988085 0.131266 -0.0384867 0.9906 
-0.121976 -0.0974726 0.987735 -0.120854 -0.0991336 0.987708 -0.338368 -0.044456 0.939963 
-0.780481 -0.131747 0.611139 0.359847 -0.272178 0.892429 0.187233 -0.252281 0.949367 
0.137509 -0.189703 0.972165 0.133031 -0.114997 0.984418 -0.0189846 -0.161073 0.98676 
-0.0351798 -0.065571 0.997228 -0.12722 -0.289277 0.948754 -0.0617273 -0.00438199 0.998083 
0.152686 -0.0502262 0.986998 0.102842 -0.127142 0.986539 0.0326376 -0.170229 0.984864 
-0.0595495 -0.343837 0.937139 -0.360017 -0.377393 0.853207 0.163725 -0.201296 0.965751 
0.0647381 -0.242896 0.96789 0.0579243 -0.296365 0.953317 0.107423 -0.357275 0.927801 
0.0472267 -0.259233 0.964659 -0.0257209 -0.206316 0.978147 -0.00216892 -0.0245055 0.999697 
0.0603001 -0.114227 0.991623 0.0462787 -0.246486 0.968041 -0.0849794 -0.387732 0.917847 
-0.261982 -0.516 0.815543 0.0468476 -0.0977736 0.994105 0.0221138 -0.116943 0.992892 
0.0631494 -0.201217 0.977509 0.107867 -0.215398 0.970551 0.0354176 -0.170236 0.984767 
-0.0872614 -0.240089 0.966821 -0.187815 -0.447972 0.874098 0.171236 0.56592 0.806482 
0.273444 0.774656 0.570208 0.0331935 0.494369 0.868618 0.126003 0.663446 0.737538 
-0.0635272 0.416065 0.907113 -0.0387157 0.589466 0.806865 -0.122019 0.357861 0.925768 
-0.202905 0.630533 0.749171 -0.369902 0.749138 0.549513 0.697737 0.663649 0.269689 
0.261015 0.542754 0.798304 0.354384 0.48266 0.800906 0.387912 0.593847 0.70489 
-0.122098 0.372908 0.9198 -0.0848972 0.377058 0.922291 -0.143674 0.452417 0.880157 
-0.0975727 0.545929 0.832131 -0.218297 0.713203 0.666099 -0.123964 0.549473 0.826264 
-0.23279 0.890583 0.39073 -0.08922 0.541541 0.835927 -0.0301104 0.65767 0.752704 
-0.051541 0.713458 0.6988 -0.18213 0.765249 0.617432 0.502768 0.334822 0.796943 
0.560184 0.204432 0.802746 0.636361 0.361193 0.681604 -0.183101 0.764968 0.617493 
-0.38745 0.696601 0.603846 -0.527547 0.845988 0.0774542 0.58828 0.104951 0.801818 
-0.641372 0.460193 0.613893 -0.72422 0.307722 0.617101 -0.772396 0.508373 0.380738 
0.579849 -0.115736 0.806461 0.542035 -0.16828 0.823335 -0.78412 0.102167 0.612142 
0.473096 -0.244899 0.846289 0.584783 -0.248067 0.772329 -0.80292 -0.129777 0.581788 
-0.778788 -0.261053 0.570386 0.383675 -0.270881 0.882846 0.651411 -0.268769 0.709526 
0.358228 -0.272955 0.892843 -0.67316 -0.486656 0.556796 -0.498805 -0.622187 0.603388 
-0.834992 -0.539193 0.109819 0.717757 -0.216426 0.661804 0.184239 -0.20905 0.960393 
0.363193 -0.265195 0.893176 0.18469 -0.197024 0.962845 0.0467827 -0.0817462 0.995555 
-0.238567 -0.596376 0.766434 -0.438828 -0.619087 0.651277 -0.332948 -0.634056 0.697939 
-0.611657 -0.708515 0.351969 0.424423 -0.20317 0.882376 0.234913 -0.18692 0.953875 
0.0462444 -0.077869 0.99589 0.045993 -0.0695367 0.996519 0.0311447 -0.108194 0.993642 
-0.00326318 -0.159435 0.987203 0.0147472 -0.210248 0.977537 0.0343517 -0.321662 0.946231 
-0.0126092 -0.442687 0.896588 -0.173722 -0.492756 0.85265 -0.230813 -0.549692 0.802847 
-0.224752 -0.492029 0.841067 -0.290777 -0.661949 0.690848 0.543657 -0.286255 0.788984 
0.290813 -0.209964 0.933457 0.156664 -0.174507 0.972113 -0.00145626 -0.135714 0.990747 
-0.00862811 -0.17288 0.984905 -0.0301604 -0.230041 0.972714 0.00270035 -0.376555 0.92639 
-0.0304424 -0.495228 0.86823 -0.230504 -0.631671 0.740175 -0.445814 -0.834835 0.322955 
0.385249 -0.485197 0.784963 0.137163 -0.42016 0.897024 0.037408 -0.415676 0.908743 
-0.0752546 -0.481962 0.872954 -0.171541 -0.566949 0.805694 -0.255263 -0.732708 0.630856 
0.197803 -0.886609 0.41809 -0.0459862 -0.878803 0.474964 0.309535 0.808432 0.500625 
0.180563 0.810077 0.557828 -0.0161384 0.818213 0.574689 -0.0207741 0.984373 0.174865 
-0.247302 0.786771 0.565538 -0.379944 0.762506 0.523668 0.697948 0.664522 0.266982 
0.39526 0.804692 0.442991 0.494573 0.781286 0.380776 0.610413 0.79168 -0.0252704 
-0.381975 0.765818 0.517318 -0.377284 0.82007 0.430281 -0.259133 0.91158 0.319175 
0.698993 0.66351 0.266764 -0.175819 0.950805 0.255064 -0.142364 0.962402 0.231331 
-0.114968 0.970011 0.21415 -0.154627 0.975878 0.154121 -0.279319 0.953517 0.113081 
-0.541201 0.840778 -0.0139053 0.869688 0.40783 0.278059 -0.550948 0.834451 -0.0121417 
-0.535994 0.842017 -0.0609681 -0.769495 0.634457 -0.0730812 0.951462 0.136927 0.275627 
-0.830495 0.551265 -0.0799096 -0.807775 0.524179 -0.269697 0.947469 -0.0915294 0.306472 
0.996526 -0.0317541 -0.0769959 -0.992424 0.122401 0.0105726 0.895025 -0.215734 0.390371 
-0.968856 -0.246001 -0.0282998 -0.773243 -0.279236 -0.569318 0.811492 -0.264127 0.521265 
-0.836824 -0.534021 -0.120609 -0.829292 -0.546486 -0.116739 -0.828993 -0.525846 -0.190412 
0.736075 -0.214408 0.642046 0.71492 -0.214438 0.665512 -0.554702 -0.82817 0.0802497 
-0.717402 -0.696579 -0.0105744 -0.65601 -0.754696 0.00918545 -0.674113 -0.644559 -0.360715 
0.685974 -0.218113 0.694166 0.735199 -0.223743 0.639861 -0.554663 -0.828189 0.0803212 
-0.481146 -0.857282 0.18321 0.628273 -0.327269 0.70581 0.865857 -0.440763 0.236685 
0.575376 -0.414035 0.705349 -0.315824 -0.885024 0.342036 -0.377973 -0.887449 0.263764 
-0.458744 -0.861602 0.217245 -0.449622 -0.865608 0.220371 0.527337 -0.506055 0.682513 
0.616023 -0.569868 0.543845 0.429277 -0.650414 0.626644 -0.20556 -0.908186 0.364613 
-0.236543 -0.901863 0.361512 -0.316593 -0.882891 0.346803 -0.30855 -0.851139 0.424688 
-0.403151 -0.904159 -0.141302 0.212096 -0.88268 0.419394 0.194362 -0.89249 0.407045 
-0.147718 -0.919537 0.364186 -0.0536305 -0.920609 0.386786 -0.0227492 0.994775 0.099526 
0.611428 0.79065 -0.0320738 0.438261 0.895803 0.0739186 0.121532 0.987102 0.104209 
0.209474 0.972028 0.106216 -0.137039 0.987401 0.0791157 -0.050339 0.987646 -0.148398 
-0.29626 0.953971 0.0465788 -0.459699 0.887699 0.0258546 0.612062 0.790146 -0.0323921 
0.759857 0.636338 -0.133006 0.612292 0.789743 -0.0374648 -0.508347 0.861152 -0.00110013 
-0.515746 0.8566 -0.0155615 -0.404514 0.910233 -0.08857 0.76819 0.625408 -0.136924 
0.764049 0.619532 -0.180024 -0.283097 0.938138 -0.199382 -0.425897 0.798543 -0.425371 
-0.256165 0.937896 -0.233946 -0.184283 0.929725 -0.318828 -0.179239 0.904788 -0.386305 
-0.39313 0.788778 -0.472524 0.900522 0.407921 -0.150537 -0.141782 0.612535 -0.777624 
-0.227101 0.659725 -0.716371 -0.435255 0.778099 -0.452895 -0.358658 0.695092 -0.623066 
-0.507797 0.718344 -0.475524 0.975534 0.154095 -0.156807 0.992361 0.0052412 -0.123255 
-0.678967 0.421498 -0.601119 -0.523499 0.340606 -0.780984 -0.737143 0.216265 -0.640195 
0.992909 -0.0250967 -0.116195 0.99323 -0.03323 -0.111312 0.991702 -0.0242789 -0.126248 
-0.404858 0.0860717 -0.91032 -0.735807 0.144823 -0.661524 -0.731019 -0.10866 -0.67365 
-0.683905 0.130554 -0.717795 0.99085 -0.123511 -0.0544247 -0.69696 -0.252091 -0.67134 
-0.479199 -0.165429 -0.861975 0.987885 -0.154981 -0.00801061 -0.656185 -0.385827 -0.648505 
-0.604656 -0.473389 -0.640543 -0.552655 -0.36867 -0.747432 0.980933 -0.168123 0.0974918 
-0.591444 -0.530252 -0.607475 -0.520043 -0.685317 -0.5098 -0.478993 -0.487014 -0.730331 
0.961097 -0.251606 0.113961 -0.281459 -0.458804 -0.842781 -0.514393 -0.731297 -0.447889 
-0.521828 -0.755464 -0.396194 -0.489972 -0.614388 -0.61843 0.89131 -0.431108 0.140397 
0.870343 -0.474492 0.131759 0.870966 -0.466602 -0.153947 -0.409132 -0.843281 -0.348552 
-0.333639 -0.66973 -0.663436 -0.481039 -0.806279 -0.344261 -0.480285 -0.806997 -0.34363 
-0.478765 -0.803628 -0.353505 0.716357 -0.69458 0.0662667 0.619427 -0.784914 0.014849 
0.291027 -0.943663 -0.157493 -0.0187999 -0.630372 -0.776065 -0.0346488 -0.575632 -0.816974 
-0.106744 -0.540676 -0.834431 -0.171451 -0.905717 -0.387662 -0.126905 -0.551321 -0.824585 
-0.214125 -0.899541 -0.380757 -0.107364 -0.673666 -0.731196 -0.282398 -0.909116 -0.306203 
-0.20274 -0.784145 -0.586527 -0.410357 -0.869591 -0.274625 -0.410154 -0.869757 -0.274403 
-0.40975 -0.868981 -0.277448 0.125286 -0.954664 -0.270039 0.0488905 -0.949546 -0.309795 
0.0446849 -0.939881 -0.338565 -0.0815294 -0.913426 -0.398754 -0.0730332 -0.913967 -0.399162 
-0.0736667 -0.910061 -0.407874 0.460615 0.769804 -0.441854 0.219867 0.888951 -0.401777 
-0.0805293 0.904555 -0.418682 -0.34039 0.797278 -0.49848 -0.441852 0.693691 -0.568823 
0.551935 0.701238 -0.451257 0.608062 0.637271 -0.473441 0.420459 0.659618 -0.622991 
0.1669 0.492229 -0.854315 -0.0913882 0.455289 -0.885641 -0.322797 0.493896 -0.807384 
-0.444249 0.689413 -0.572147 -0.433162 0.6539 -0.62031 -0.426684 0.673558 -0.60354 
0.677644 0.533405 -0.506238 0.747941 0.405002 -0.525887 0.547112 0.477642 -0.687405 
-0.240552 0.171226 -0.955414 -0.256825 0.301092 -0.91836 -0.416829 0.663154 -0.621676 
-0.348403 0.534266 -0.770179 -0.400953 0.638488 -0.65694 -0.274448 0.585766 -0.762598 
0.769263 0.346274 -0.536962 0.722581 0.325818 -0.609688 0.378806 0.221747 -0.898518 
-0.194369 0.0897846 -0.976811 -0.119419 0.158767 -0.980067 -0.153902 0.237181 -0.959197 
-0.260691 0.351611 -0.899116 -0.166893 0.581014 -0.796599 -0.252657 0.516147 -0.818386 
-0.138848 0.57312 -0.807623 -0.20624 0.502064 -0.839879 -0.331253 0.384031 -0.861854 
0.78908 0.159009 -0.593354 0.646332 0.116931 -0.754043 -0.0924095 0.287736 -0.953241 
-0.146759 0.102938 -0.983802 -0.138693 0.167521 -0.976064 -0.105609 0.269573 -0.957171 
-0.152656 0.31405 -0.937053 -0.188404 0.282813 -0.94049 -0.372318 0.310288 -0.8747 
-0.336892 0.319438 -0.885699 0.810828 0.0195448 -0.584958 0.61201 0.00607147 -0.790827 
-0.273304 0.197676 -0.941397 -0.0849148 0.144087 -0.985915 -0.097528 0.111746 -0.988939 
-0.163497 0.0770815 -0.983528 -0.214087 0.0817699 -0.973386 -0.325975 0.0511146 -0.943996 
-0.281124 0.0181393 -0.9595 0.81632 -0.073443 -0.572912 0.616992 -0.0604541 -0.784644 
-0.220803 -0.0368537 -0.974622 -0.166831 -0.0473729 -0.984847 -0.18757 -0.0613547 -0.980333 
-0.242811 -0.0770111 -0.967012 -0.352691 -0.0894523 -0.931455 -0.323944 -0.0651381 -0.943831 
0.819769 -0.0923097 -0.565206 0.67069 -0.0760743 -0.737826 -0.309951 -0.279926 -0.90861 
-0.133737 -0.202083 -0.970194 -0.117933 -0.133854 -0.983959 -0.195802 -0.144454 -0.969946 
-0.235328 -0.190077 -0.953148 -0.395312 -0.235912 -0.887735 -0.392209 -0.259219 -0.882597 
-0.375218 -0.222008 -0.899958 0.833684 -0.103214 -0.542511 0.714985 -0.075796 -0.695019 
0.0298506 -0.428827 -0.902893 -0.239004 -0.220357 -0.945685 -0.087178 -0.188017 -0.978289 
-0.112426 -0.216604 -0.969764 -0.273347 -0.431886 -0.859509 -0.236309 -0.252649 -0.938257 
-0.330864 -0.321019 -0.887398 -0.330796 -0.321943 -0.887089 -0.329087 -0.318532 -0.888954 
0.833335 -0.225702 -0.504591 0.780593 -0.358676 -0.511885 0.752811 -0.205935 -0.625193 
0.300657 -0.211554 -0.929973 0.0238011 -0.240932 -0.97025 -0.135542 -0.28528 -0.948812 
-0.228711 -0.32253 -0.918513 -0.0684691 -0.339731 -0.938027 0.0495411 -0.400104 -0.91513 
-0.0683347 -0.243672 -0.967447 -0.142543 -0.270825 -0.952017 -0.264923 -0.441756 -0.857127 
-0.235002 -0.477827 -0.846437 -0.185278 -0.375215 -0.908232 0.716125 -0.44559 -0.537228 
0.360906 -0.387218 -0.848416 -0.0214075 -0.621462 -0.783151 -0.00140366 -0.40469 -0.914453 
-0.0424156 -0.557611 -0.829018 -0.178238 -0.394398 -0.901488 -0.125021 -0.473713 -0.87176 
-0.201993 -0.327051 -0.923166 -0.0888845 -0.382412 -0.919707 -0.0752322 -0.319405 -0.944627 
-0.0166332 -0.440572 -0.897563 0.0160611 -0.375061 -0.926861 -0.0926999 -0.511819 -0.854077 
-0.0777457 -0.433009 -0.89803 -0.22845 -0.457452 -0.859388 -0.228429 -0.457451 -0.859394 
-0.228398 -0.457359 -0.859452 0.372895 -0.695608 -0.614067 0.160319 -0.672459 -0.722563 
0.364516 -0.6976 -0.616832 0.360721 -0.693492 -0.623658 0.273106 0.375979 -0.885467 
0.105188 0.355674 -0.928672 -0.108005 0.320228 -0.941163 0.300253 0.353133 -0.886084 
0.254893 0.335846 -0.906773 0.0429485 0.248401 -0.967705 -0.197496 0.15567 -0.967865 
-0.141871 0.155049 -0.977667 0.356902 0.210969 -0.910007 0.370924 0.176749 -0.911688 
0.186524 0.140612 -0.972336 -0.0449046 0.101776 -0.993793 -0.19429 0.0896702 -0.976837 
-0.164142 0.0582989 -0.984712 -0.193757 0.0909954 -0.97682 0.399228 0.056217 -0.915127 
0.356226 0.0556977 -0.932738 0.143962 0.0281314 -0.989183 -0.0344146 0.0225265 -0.999154 
-0.164455 0.0797761 -0.983153 -0.100553 0.272473 -0.956895 -0.136998 0.192873 -0.971613 
-0.0958383 0.285749 -0.9535 0.381566 -0.0265846 -0.923959 0.341508 -0.0314094 -0.939354 
0.141611 -0.0490384 -0.988707 0.00637206 -0.0398409 -0.999186 0.0101793 0.0514818 -0.998622 
0.0161499 0.16752 -0.985736 -0.270702 0.19814 -0.942052 -0.200803 0.16831 -0.965065 
-0.267863 0.181487 -0.946209 0.325376 -0.0363786 -0.944885 0.314443 -0.0357876 -0.948602 
0.138119 -0.0788331 -0.987273 0.0663971 -0.0696327 -0.995361 0.0359149 -0.0637863 -0.997317 
-0.00603298 -0.0737746 -0.997257 -0.0508763 -0.032724 -0.998169 -0.220057 -0.0343165 -0.974883 
-0.309521 -0.278589 -0.909167 -0.193362 0.0279281 -0.98073 0.3299 0.00360255 -0.944009 
0.325261 0.00419507 -0.945615 0.115613 -0.0172776 -0.993144 0.0229176 -0.0668229 -0.997502 
0.00659178 -0.168783 -0.985631 0.037246 -0.385703 -0.921871 0.0450417 -0.2002 -0.978719 
-0.309318 -0.27941 -0.908984 -0.0978636 -0.125623 -0.987239 0.374145 -0.0680157 -0.924873 
0.347273 -0.0906573 -0.933372 0.358381 -0.06913 -0.931013 0.0269149 -0.229533 -0.972929 
0.078847 -0.100619 -0.991796 -0.119643 -0.24284 -0.96266 -0.0871882 -0.159755 -0.983299 
-0.0905274 -0.301251 -0.949238 -0.132288 -0.266888 -0.954605 -0.123585 -0.262942 -0.956864 
-0.0206355 -0.422065 -0.906331 -0.137919 -0.369288 -0.919024 -0.0707845 -0.414917 -0.907102 
-0.0945187 -0.40294 -0.910333 
