# vtk DataFile Version 4.2
vtk output
ASCII
DATASET POLYDATA
POINTS 524 float
-23.4668 -36.7098 -14.7013 -15.331 -36.7098 -15.1158 -7.19506 -36.7098 -14.5959 
0.940833 -36.7098 -14.2436 9.07673 -36.7098 -14.3681 17.2126 -36.7098 -13.9558 
-39.7386 -28.574 -15.5128 -31.6027 -28.574 -17.3501 -23.4668 -28.574 -17.8715 
-15.331 -28.574 -18.0976 -7.19506 -28.574 -16.7683 0.940833 -28.574 -16.5926 
9.07673 -28.574 -16.7186 17.2126 -28.574 -16.9062 25.3485 -28.574 -16.911 
33.4844 -28.574 -17.5966 41.6203 -28.574 -16.4604 -47.8745 -20.4381 -15.5437 
-39.7386 -20.4381 -18.1162 -31.6027 -20.4381 -19.038 -23.4668 -20.4381 -18.9161 
-15.331 -20.4381 -18.1645 -7.19506 -20.4381 -17.3464 0.940833 -20.4381 -17.3233 
9.07673 -20.4381 -17.3522 17.2126 -20.4381 -17.5776 25.3485 -20.4381 -18.523 
33.4844 -20.4381 -19.3007 41.6203 -20.4381 -19.7888 49.7562 -20.4381 -17.0257 
-47.8745 -12.3022 -17.3052 -39.7386 -12.3022 -19.2905 -31.6027 -12.3022 -19.8739 
-23.4668 -12.3022 -19.2572 -15.331 -12.3022 -18.3661 -7.19506 -12.3022 -17.7118 
0.940833 -12.3022 -18.1265 9.07673 -12.3022 -17.7814 17.2126 -12.3022 -17.5732 
25.3485 -12.3022 -19.0555 33.4844 -12.3022 -20.0896 41.6203 -12.3022 -19.9824 
49.7562 -12.3022 -18.3196 -47.8745 -4.16627 -18.2617 -39.7386 -4.16627 -20.2036 
-31.6027 -4.16627 -20.4138 -23.4668 -4.16627 -19.5809 -15.331 -4.16627 -18.7115 
-7.19506 -4.16627 -19.4548 0.940833 -4.16627 -16.8001 9.07673 -4.16627 -20.4854 
17.2126 -4.16627 -18.0117 25.3485 -4.16627 -19.2838 33.4844 -4.16627 -20.4189 
41.6203 -4.16627 -20.7241 49.7562 -4.16627 -19.2523 57.8921 -4.16627 -14.877 
-47.8745 3.96962 -18.0201 -39.7386 3.96962 -20.4561 -31.6027 3.96962 -20.8012 
-23.4668 3.96962 -19.848 -15.331 3.96962 -18.5893 -7.19506 3.96962 -19.2836 
0.940833 3.96962 -16.9453 9.07673 3.96962 -20.0332 17.2126 3.96962 -18.6921 
25.3485 3.96962 -19.8704 33.4844 3.96962 -20.8761 41.6203 3.96962 -20.6461 
49.7562 3.96962 -19.0321 57.8921 3.96962 -14.41 -47.8745 12.1055 -17.3712 
-39.7386 12.1055 -20.328 -31.6027 12.1055 -21.2867 -23.4668 12.1055 -21.0481 
-15.331 12.1055 -19.7995 -7.19506 12.1055 -18.7121 0.940833 12.1055 -18.5498 
9.07673 12.1055 -17.4067 17.2126 12.1055 -18.1722 25.3485 12.1055 -19.5796 
33.4844 12.1055 -20.4794 41.6203 12.1055 -20.027 49.7562 12.1055 -17.9497 
-47.8745 20.2414 -14.5218 -39.7386 20.2414 -19.8519 -31.6027 20.2414 -21.5413 
-23.4668 20.2414 -21.791 -15.331 20.2414 -20.9325 -7.19506 20.2414 -19.2301 
0.940833 20.2414 -18.2565 9.07673 20.2414 -17.5928 17.2126 20.2414 -17.9706 
25.3485 20.2414 -18.5353 33.4844 20.2414 -18.941 41.6203 20.2414 -18.5296 
49.7562 20.2414 -14.7926 -39.7386 28.3773 -18.8193 -31.6027 28.3773 -21.1384 
-23.4668 28.3773 -21.5043 -15.331 28.3773 -21.0524 -7.19506 28.3773 -19.8497 
0.940833 28.3773 -18.3737 9.07673 28.3773 -17.1073 17.2126 28.3773 -16.6162 
25.3485 28.3773 -16.4307 33.4844 28.3773 -15.6737 -31.6027 36.5132 -18.4385 
-23.4668 36.5132 -19.9563 -15.331 36.5132 -19.7571 -7.19506 36.5132 -18.4902 
0.940833 36.5132 -16.7025 9.07673 36.5132 -15.2562 -23.4668 44.6491 -14.3392 
-15.331 44.6491 -15.3379 -7.19506 44.6491 -14.0613 -23.4668 -37.7203 -13.8854 
-15.331 -38.342 -13.8854 -7.19506 -37.7768 -13.8854 0.940833 -37.2448 -13.8854 
9.07673 -37.4298 -13.8854 17.2126 -36.7968 -13.8854 -39.7386 -31.0614 -13.8854 
-39.7386 -36.7098 -7.79541 -28.4889 -36.7098 -13.8854 -31.6027 -35.7083 -13.8854 
-31.6027 -36.7098 -13.1743 18.9053 -36.7098 -13.8854 25.3485 -36.1483 -13.8854 
25.3485 -36.7098 -13.5081 33.4844 -33.9881 -13.8854 33.4844 -36.7098 -10.9969 
41.6203 -32.4308 -13.8854 41.6203 -36.7098 -6.10687 -42.8985 -28.574 -13.8854 
-47.8745 -23.5776 -13.8854 -47.8745 -28.574 -10.0726 47.4452 -28.574 -13.8854 
49.7562 -26.5838 -13.8854 49.7562 -28.574 -11.9513 -51.2766 -20.4381 -13.8854 
-56.0104 -20.4381 -9.69886 54.9269 -20.4381 -13.8854 57.8921 -20.4381 -10.1708 
-54.2084 -12.3022 -13.8854 -56.0104 -12.3022 -12.6824 57.4612 -12.3022 -13.8854 
57.8921 -10.3216 -13.8854 57.8921 -12.3022 -13.4925 -55.2345 -4.16627 -13.8854 
-56.0104 -4.16627 -13.2997 58.8167 -4.16627 -13.8854 -53.9099 3.96962 -13.8854 
-56.0104 3.96962 -11.8751 58.3795 3.96962 -13.8854 57.8921 5.95824 -13.8854 
-52.1601 12.1055 -13.8854 -56.0104 12.1055 -8.52967 55.9425 12.1055 -13.8854 
57.8921 12.1055 -11.6536 -48.5277 20.2414 -13.8854 -47.8745 21.487 -13.8854 
41.6203 26.9883 -13.8854 51.1077 20.2414 -13.8854 49.7562 21.6302 -13.8854 
-44.5827 28.3773 -13.8854 -47.8745 28.3773 -6.24267 -39.7386 34.5454 -13.8854 
17.2126 35.4364 -13.8854 25.3485 33.1532 -13.8854 38.7255 28.3773 -13.8854 
33.4844 30.479 -13.8854 41.6203 28.3773 -12.2205 -37.4604 36.5132 -13.8854 
-39.7386 36.5132 -9.2608 -31.6027 41.1132 -13.8854 0.940833 42.1095 -13.8854 
15.3434 36.5132 -13.8854 9.07673 38.8065 -13.8854 17.2126 36.5132 -13.3984 
25.3485 36.5132 -10.9048 -24.4339 44.6491 -13.8854 -23.4668 45.0445 -13.8854 
-15.331 45.9802 -13.8854 -6.38392 44.6491 -13.8854 -7.19506 44.8231 -13.8854 
0.940833 44.6491 -11.4492 9.07673 44.6491 -7.34788 -39.7386 -38.1425 -5.74946 
-31.6027 -41.5429 -5.74946 -23.4668 -43.5717 -5.74946 -15.331 -43.8555 -5.74946 
-7.19506 -44.1285 -5.74946 0.940833 -44.0315 -5.74946 9.07673 -44.138 -5.74946 
17.2126 -43.3549 -5.74946 25.3485 -41.5624 -5.74946 33.4844 -39.6744 -5.74946 
41.6203 -36.8393 -5.74946 -42.3027 -36.7098 -5.74946 -47.8745 -32.7929 -5.74946 
41.8909 -36.7098 -5.74946 41.6203 -36.7098 -4.94163 49.7562 -32.3325 -5.74946 
-52.7419 -28.574 -5.74946 -56.0104 -24.6687 -5.74946 54.0754 -28.574 -5.74946 
57.8921 -23.9085 -5.74946 -58.6548 -20.4381 -5.74946 60.1539 -20.4381 -5.74946 
-62.3993 -12.3022 -5.74946 62.5652 -12.3022 -5.74946 -62.3168 -4.16627 -5.74946 
-64.1463 -4.16627 1.7678 63.7966 -4.16627 -5.74946 -60.4512 3.96962 -5.74946 
63.4175 3.96962 -5.74946 -57.695 12.1055 -5.74946 -56.0104 15.1817 -5.74946 
61.1856 12.1055 -5.74946 57.8921 18.2862 -5.74946 -53.3001 20.2414 -5.74946 
56.5744 20.2414 -5.74946 49.7562 26.4315 -5.74946 -48.0784 28.3773 -5.74946 
-47.8745 28.6633 -5.74946 -47.8745 28.3773 -3.88274 33.4844 36.1801 -5.74946 
47.0355 28.3773 -5.74946 41.6203 32.3018 -5.74946 -41.1018 36.5132 -5.74946 
-39.7386 37.7824 -5.74946 -39.7386 36.5132 -2.57724 -31.6027 43.6636 -5.74946 
17.2126 43.3273 -5.74946 32.8109 36.5132 -5.74946 25.3485 40.2425 -5.74946 
33.4844 36.5132 0.785153 -29.8012 44.6491 -5.74946 -23.4668 47.4442 -5.74946 
-23.4668 44.6491 0.875994 -15.331 48.9558 -5.74946 -7.19506 48.809 -5.74946 
0.940833 47.4798 -5.74946 12.3855 44.6491 -5.74946 9.07673 45.5103 -5.74946 
-39.7386 -38.7505 2.38644 -31.6027 -41.1637 2.38644 -23.4668 -42.6911 2.38644 
-15.331 -43.142 2.38644 -7.19506 -43.3932 2.38644 0.940833 -43.9504 2.38644 
9.07673 -44.3308 2.38644 17.2126 -43.1148 2.38644 25.3485 -40.6986 2.38644 
33.4844 -38.3335 2.38644 -43.3824 -36.7098 2.38644 -47.8745 -34.2476 2.38644 
-39.7386 -36.7098 6.96694 -31.6027 -36.7098 10.058 25.3485 -36.7098 9.31059 
38.0475 -36.7098 2.38644 33.4844 -36.7098 5.61081 41.6203 -35.444 2.38644 
49.7562 -30.927 2.38644 -55.0428 -28.574 2.38644 -56.0104 -27.566 2.38644 
52.6335 -28.574 2.38644 49.7562 -28.574 6.82762 57.8921 -22.8598 2.38644 
-61.2304 -20.4381 2.38644 59.5759 -20.4381 2.38644 57.8921 -20.4381 6.02903 
-64.0641 -12.3022 2.38644 -64.1463 -9.07372 2.38644 62.6244 -12.3022 2.38644 
-64.2712 -4.16627 2.38644 -64.1463 -3.66592 2.38644 -64.1463 -4.16627 2.87779 
64.2748 -4.16627 2.38644 -62.1602 3.96962 2.38644 63.9589 3.96962 2.38644 
-59.0009 12.1055 2.38644 -56.0104 17.0453 2.38644 61.566 12.1055 2.38644 
57.8921 18.4109 2.38644 -53.9047 20.2414 2.38644 -47.8745 27.4589 2.38644 
56.5274 20.2414 2.38644 49.7562 26.4288 2.38644 -46.9394 28.3773 2.38644 
-39.7386 34.4753 2.38644 46.951 28.3773 2.38644 41.6203 31.883 2.38644 
-36.8591 36.5132 2.38644 -31.6027 39.8826 2.38644 -31.6027 36.5132 6.92045 
-23.4668 43.856 2.38644 -23.4668 36.5132 10.061 17.2126 44.0636 2.38644 
25.3485 41.1897 2.38644 33.6264 36.5132 2.38644 33.4844 36.5916 2.38644 
33.4844 36.5132 2.61893 -21.0572 44.6491 2.38644 -15.331 46.4713 2.38644 
-15.331 44.6491 4.58079 -7.19506 46.6159 2.38644 -7.19506 44.6491 5.16906 
0.940833 45.8536 2.38644 0.940833 44.6491 4.34366 12.9863 44.6491 2.38644 
9.07673 45.1873 2.38644 9.07673 44.6491 3.50491 -23.4668 -37.9941 10.5223 
-15.331 -38.3523 10.5223 -7.19506 -39.0422 10.5223 0.940833 -40.0741 10.5223 
9.07673 -40.3669 10.5223 17.2126 -38.5773 10.5223 -47.8745 -30.5535 10.5223 
-39.7386 -34.6448 10.5223 -30.018 -36.7098 10.5223 -31.6027 -36.3544 10.5223 
-23.4668 -36.7098 11.8574 -15.331 -36.7098 12.1629 -7.19506 -36.7098 12.9569 
0.940833 -36.7098 13.9054 9.07673 -36.7098 13.9502 22.8155 -36.7098 10.5223 
17.2126 -36.7098 12.4039 25.3485 -35.7702 10.5223 33.4844 -33.5154 10.5223 
41.6203 -30.6076 10.5223 -50.6826 -28.574 10.5223 -56.0104 -24.1027 10.5223 
-47.8745 -28.574 12.763 -39.7386 -28.574 15.8622 -31.6027 -28.574 17.1763 
-23.4668 -28.574 17.1023 -15.331 -28.574 17.5604 -7.19506 -28.574 17.9385 
0.940833 -28.574 18.3473 9.07673 -28.574 17.828 17.2126 -28.574 17.4198 
25.3485 -28.574 16.5761 33.4844 -28.574 15.3927 45.4184 -28.574 10.5223 
41.6203 -28.574 12.6915 49.7562 -25.7817 10.5223 -58.7625 -20.4381 10.5223 
-56.0104 -20.4381 13.5953 -47.8745 -20.4381 17.777 54.8407 -20.4381 10.5223 
49.7562 -20.4381 15.1852 57.8921 -15.8355 10.5223 -61.7224 -12.3022 10.5223 
-56.0104 -12.3022 16.9758 59.5558 -12.3022 10.5223 57.8921 -12.3022 12.674 
-61.6759 -4.16627 10.5223 -56.0104 -4.16627 17.2136 61.8218 -4.16627 10.5223 
57.8921 -4.16627 15.861 -59.6674 3.96962 10.5223 -56.0104 3.96962 15.0271 
61.623 3.96962 10.5223 57.8921 3.96962 15.7027 -56.4233 12.1055 10.5223 
-56.0104 12.7516 10.5223 -56.0104 12.1055 11.0797 -47.8745 12.1055 17.2867 
59.0761 12.1055 10.5223 57.8921 14.1016 10.5223 57.8921 12.1055 12.2189 
-50.9299 20.2414 10.5223 -47.8745 23.4168 10.5223 -47.8745 20.2414 13.3317 
-39.7386 20.2414 17.2329 -31.6027 20.2414 18.5206 -23.4668 20.2414 18.5677 
-15.331 20.2414 18.6539 53.187 20.2414 10.5223 49.7562 23.6001 10.5223 
[...]
POINT_DATA 524
SCALARS ImageScalars float
LOOKUP_TABLE default
0 0 0 0 0 0 0 0 0 
0 0 0 0 0 0 0 0 0 
0 0 0 0 0 0 0 0 0 
0 0 0 0 0 0 0 0 0 
0 0 0 0 0 0 0 0 0 
0 0 0 0 0 0 0 0 0 
0 0 0 0 0 0 0 0 0 
0 0 0 0 0 0 0 0 0 
0 0 0 0 0 0 0 0 0 
0 0 0 0 0 0 0 0 0 
0 0 0 0 0 0 0 0 0 
0 0 0 0 0 0 0 0 0 
0 0 0 0 0 0 0 0 0 
0 0 0 0 0 0 0 0 0 
0 0 0 0 0 0 0 0 0 
0 0 0 0 0 0 0 0 0 
0 0 0 0 0 0 0 0 0 
0 0 0 0 0 0 0 0 0 
0 0 0 0 0 0 0 0 0 
0 0 0 0 0 0 0 0 0 
0 0 0 0 0 0 0 0 0 
0 0 0 0 0 0 0 0 0 
0 0 0 0 0 0 0 0 0 
0 0 0 0 0 0 0 0 0 
0 0 0 0 0 0 0 0 0 
0 0 0 0 0 0 0 0 0 
0 0 0 0 0 0 0 0 0 
0 0 0 0 0 0 0 0 0 
0 0 0 0 0 0 0 0 0 
0 0 0 0 0 0 0 0 0 
0 0 0 0 0 0 0 0 0 
0 0 0 0 0 0 0 0 0 
0 0 0 0 0 0 0 0 0 
0 0 0 0 0 0 0 0 0 
0 0 0 0 0 0 0 0 0 
0 0 0 0 0 0 0 0 0 
0 0 0 0 0 0 0 0 0 
0 0 0 0 0 0 0 0 0 
0 0 0 0 0 0 0 0 0 
0 0 0 0 0 0 0 0 0 
0 0 0 0 0 0 0 0 0 
0 0 0 0 0 0 0 0 0 
0 0 0 0 0 0 0 0 0 
0 0 0 0 0 0 0 0 0 
0 0 0 0 0 0 0 0 0 
0 0 0 0 0 0 0 0 0 
0 0 0 0 0 0 0 0 0 
0 0 0 0 0 0 0 0 0 
0 0 0 0 0 0 0 0 0 
0 0 0 0 0 0 0 0 0 
0 0 0 0 0 0 0 0 0 
0 0 0 0 0 0 0 0 0 
0 0 0 0 0 0 0 0 0 
0 0 0 0 0 0 0 0 0 
0 0 0 0 0 0 0 0 0 
0 0 0 0 0 0 0 0 0 
0 0 0 0 0 0 0 0 0 
0 0 0 0 0 0 0 0 0 
0 0 
NORMALS Normals float
0.0981649 0.540967 0.835295 -0.00949789 0.520521 0.853796 -0.0515781 0.453376 0.889826 
-0.0138804 0.464625 0.885399 -0.0136596 0.465623 0.884878 -0.0440633 0.537538 0.842088 
0.318794 0.426215 0.846588 0.141554 0.315088 0.938447 0.0413117 0.228767 0.972604 
-0.0670273 0.175725 0.982155 -0.0867333 0.161024 0.983132 -0.00292647 0.178347 0.983963 
0.0184951 0.172722 0.984797 0.0120206 0.19225 0.981272 0.0334915 0.27846 0.959864 
-0.0284255 0.40374 0.914432 -0.223508 0.469047 0.854424 0.362733 0.322599 0.874274 
0.202712 0.224514 0.953153 0.0440705 0.144346 0.988545 -0.0531936 0.081983 0.995213 
-0.0961953 0.016213 0.99523 -0.0515065 0.0562838 0.997085 0.000356452 0.0915566 0.9958 
0.0155423 0.0627736 0.997907 0.0713478 0.0389722 0.99669 0.102558 0.123195 0.987069 
0.0756232 0.132815 0.988252 -0.134118 0.206938 0.969118 -0.397831 0.262588 0.879078 
0.340228 0.158002 0.926974 0.146094 0.119179 0.982066 -0.00294645 0.0825636 0.996581 
-0.0921678 0.0406046 0.994915 -0.0928205 0.0335314 0.995118 -0.0157286 0.124697 0.99207 
0.00481213 -0.0193727 0.999801 -0.0352564 0.181449 0.982768 0.0734743 0.0272312 0.996925 
0.158887 0.0479721 0.986131 0.0517471 0.067379 0.996385 -0.0993621 0.0558928 0.99348 
-0.322339 0.135683 0.93685 0.355302 0.042647 0.933778 0.119982 0.0707821 0.99025 
-0.038429 0.0568309 0.997644 -0.105043 0.0353709 0.993838 -0.0108983 0.0138132 0.999845 
-0.0973569 0.0979984 0.990413 0.0537109 -0.0841939 0.995001 0.0419354 0.137743 0.98958 
-0.0574772 0.0717606 0.995764 0.146931 0.0486152 0.987951 0.0873994 0.0480202 0.995015 
-0.0652057 0.0407488 0.997039 -0.29101 0.0411408 0.955835 -0.673778 0.0398403 0.737859 
0.403807 -0.0496843 0.913494 0.153572 0.00799522 0.988105 -0.0345239 0.0534376 0.997974 
-0.138389 0.0916103 0.986132 -0.0304818 0.0626599 0.997569 -0.0874151 -0.0467006 0.995077 
0.0409497 0.121926 0.991694 0.0880764 -0.192387 0.977359 -0.00482467 0.0118909 0.999918 
0.133458 0.0178761 0.990893 0.0475235 0.00381595 0.998863 -0.106319 -0.0422688 0.993433 
-0.30921 -0.0745145 0.94807 -0.685872 -0.120408 0.717691 0.506954 -0.17886 0.843212 
0.227987 -0.0373217 0.972948 0.0402829 0.0454775 0.998153 -0.0867226 0.114294 0.989655 
-0.144896 0.145178 0.978738 -0.0727555 -0.00333913 0.997344 -0.0800377 0.068891 0.994408 
-0.0264917 -0.140715 0.989696 0.136647 -0.0454308 0.989577 0.138263 -0.0823312 0.986968 
0.0275968 -0.113345 0.993172 -0.141849 -0.114495 0.983245 -0.380495 -0.226101 0.896717 
0.681408 -0.343923 0.646065 0.361562 -0.0799497 0.928914 0.115099 -0.00701083 0.993329 
-0.039011 0.0294223 0.998806 -0.154442 0.0724819 0.98534 -0.163384 0.0686492 0.984171 
-0.0991968 -0.0110098 0.995007 -0.017888 -0.0181116 0.999676 0.0579347 -0.0913054 0.994136 
0.0576598 -0.191819 0.979735 0.0034735 -0.265647 0.964064 -0.216736 -0.375546 0.901105 
-0.492098 -0.463856 0.736667 0.509395 -0.344187 0.788703 0.14756 -0.154489 0.976913 
-0.00672759 -0.10839 0.994086 -0.100569 -0.0660003 0.992739 -0.162013 -0.0384759 0.986038 
-0.167446 -0.0881308 0.981934 -0.102878 -0.138386 0.985021 -0.0416914 -0.248712 0.96768 
-0.0483872 -0.370778 0.92746 -0.19215 -0.560393 0.805629 0.373833 -0.521724 0.766846 
0.0579602 -0.367965 0.928031 -0.0858436 -0.307683 0.947609 -0.179435 -0.294762 0.938573 
-0.191707 -0.32524 0.925995 -0.177533 -0.390704 0.903234 0.233312 -0.795284 0.559544 
-0.013892 -0.716687 0.697257 -0.164696 -0.708681 0.686036 0.103665 0.595667 0.796514 
0.00378877 0.600346 0.799731 -0.0468515 0.505662 0.861459 -0.0141233 0.489125 0.872099 
-0.0189515 0.498906 0.866449 -0.0451248 0.542374 0.838924 0.353429 0.508488 0.785193 
0.4401 0.790213 0.42647 0.208335 0.5815 0.786419 0.257611 0.563875 0.784654 
0.281983 0.62278 0.729815 -0.0560263 0.555709 0.829487 -0.0930369 0.594439 0.79874 
-0.107236 0.634103 0.765777 -0.121588 0.624951 0.771137 -0.214082 0.808973 0.547477 
-0.277932 0.662279 0.695802 -0.380115 0.917774 0.114907 0.39406 0.474932 0.786865 
0.415483 0.41008 0.811916 0.536292 0.591248 0.602343 -0.441857 0.582002 0.682668 
-0.502051 0.535931 0.678766 -0.555434 0.650138 0.518473 0.481237 0.339596 0.808137 
0.71528 0.391014 0.579209 -0.634989 0.330243 0.698375 -0.811906 0.397813 0.427263 
0.554037 0.12289 0.823372 0.628182 0.130436 0.767056 -0.674106 0.163436 0.720326 
-0.691201 0.134735 0.709991 -0.704026 0.16971 0.689599 0.624213 -0.0182549 0.781041 
0.659774 -0.0279391 0.750944 -0.711149 0.0379105 0.702018 0.645108 -0.129813 0.752983 
0.742427 -0.180916 0.645037 -0.704786 -0.121261 0.69898 -0.703624 -0.157349 0.692932 
0.684986 -0.240901 0.687576 0.83419 -0.352395 0.424199 -0.659034 -0.266864 0.703177 
-0.778235 -0.307464 0.547554 0.6967 -0.35237 0.624856 0.702686 -0.361551 0.612792 
-0.318263 -0.640276 0.69911 -0.539436 -0.484544 0.688641 -0.510607 -0.524398 0.681386 
0.72352 -0.444525 0.528126 0.799862 -0.580324 0.153116 0.61977 -0.609222 0.494705 
-0.17554 -0.475332 0.862117 -0.168288 -0.542838 0.822804 -0.289477 -0.646184 0.706151 
-0.241465 -0.630762 0.737451 -0.372203 -0.717627 0.588623 0.583544 -0.646154 0.491895 
0.665279 -0.718848 0.201648 0.460692 -0.735555 0.49671 -0.21741 -0.589584 0.777897 
-0.193402 -0.482227 0.854431 -0.21177 -0.487054 0.847308 -0.203842 -0.52315 0.827504 
-0.304781 -0.719685 0.623829 0.260801 -0.805086 0.532746 0.235765 -0.810881 0.535617 
-0.00489541 -0.792204 0.610237 -0.171388 -0.711384 0.681586 -0.164206 -0.718357 0.676018 
-0.227033 -0.800069 0.555289 -0.259303 -0.904611 0.338292 0.442181 0.840268 0.313728 
0.304673 0.925987 0.222983 0.133447 0.971801 0.19441 0.0328752 0.978683 0.202729 
0.0111149 0.975903 0.217923 0.000412229 0.963107 0.26912 -0.0406877 0.958166 0.283306 
-0.151621 0.953366 0.26097 -0.219566 0.954145 0.203466 -0.287286 0.943509 0.165096 
-0.381627 0.919248 0.0966627 0.482426 0.815548 0.319603 0.568888 0.733851 0.371254 
-0.386443 0.917253 0.0964815 -0.383525 0.921464 0.0617504 -0.583193 0.800897 0.13583 
0.635666 0.654286 0.409681 0.730871 0.548607 0.406028 -0.711779 0.687645 0.143228 
-0.82874 0.535073 0.163974 0.805777 0.418824 0.418701 -0.881173 0.433075 0.189686 
0.889228 0.179847 0.420628 -0.948272 0.215328 0.233268 0.902177 -0.103825 0.418686 
0.993724 -0.111791 0.00397058 -0.962453 0.0504653 0.266717 0.891262 -0.248094 0.379607 
-0.950719 -0.150184 0.271252 0.862848 -0.387465 0.324599 0.853609 -0.42907 0.295384 
-0.901638 -0.357333 0.243645 -0.810407 -0.552251 0.1956 0.839293 -0.48686 0.241982 
-0.762985 -0.620089 0.182602 -0.604055 -0.781932 0.153949 0.798619 -0.587578 0.130228 
0.797383 -0.590233 0.125717 0.784309 -0.618297 0.0506769 -0.408922 -0.870575 0.273648 
-0.564622 -0.809838 0.159259 -0.498596 -0.844235 0.196645 0.691018 -0.722723 -0.0128731 
0.659951 -0.751091 -0.0180993 0.648456 -0.742232 -0.169106 0.522042 -0.848871 -0.0830047 
-0.283548 -0.899222 0.333167 -0.409579 -0.868501 0.279196 -0.396385 -0.852446 0.340902 
-0.482816 -0.874291 -0.0500393 0.470737 -0.878331 -0.0833178 0.288585 -0.956544 -0.0417439 
0.339185 -0.827602 -0.447245 0.0807966 -0.996019 0.0376496 -0.0964672 -0.993275 0.0640166 
-0.199227 -0.971412 0.129102 -0.260242 -0.927645 0.267861 -0.246259 -0.941047 0.23192 
0.391793 0.906037 -0.159984 0.223907 0.939853 -0.257957 0.11479 0.950968 -0.287199 
0.0420988 0.961907 -0.270115 0.0488989 0.964167 -0.260751 0.0552968 0.978918 -0.196626 
-0.0503658 0.982212 -0.180892 -0.212335 0.949425 -0.231313 -0.276421 0.917737 -0.285219 
-0.305462 0.901847 -0.305556 0.449631 0.881159 -0.146258 0.525519 0.843358 -0.112144 
0.345592 0.849027 -0.399649 0.158887 0.781866 -0.60286 -0.238215 0.775037 -0.585296 
-0.346639 0.894451 -0.282486 -0.27716 0.864958 -0.418365 -0.378843 0.882241 -0.279516 
-0.552264 0.783872 -0.283812 0.682718 0.727838 -0.0644018 0.715668 0.696491 -0.0521495 
-0.648898 0.710108 -0.273272 -0.543911 0.721451 -0.428566 -0.811151 0.532065 -0.242778 
0.902091 0.431475 -0.00780659 -0.84816 0.478268 -0.227783 -0.783684 0.503312 -0.364027 
0.985162 0.169754 -0.0252812 0.997928 0.0590162 -0.0256407 -0.949288 0.271162 -0.159136 
0.993484 -0.111053 -0.0256287 0.992305 -0.120992 -0.0263142 0.992361 -0.1122 -0.0512895 
-0.991426 0.0759973 -0.106294 0.956914 -0.288226 -0.0352187 -0.983709 -0.152263 -0.0955648 
0.887895 -0.457146 -0.0515822 0.842025 -0.534318 -0.0741524 -0.917721 -0.382367 -0.107629 
-0.800759 -0.584381 -0.131467 0.805147 -0.585006 -0.0974966 0.702511 -0.679051 -0.212999 
-0.745972 -0.651287 -0.139108 -0.598826 -0.792474 -0.115726 0.681586 -0.693192 -0.23436 
0.579547 -0.720554 -0.380693 -0.566869 -0.814214 -0.125357 -0.522454 -0.834928 -0.173023 
0.530943 -0.73468 -0.422309 0.422402 -0.772313 -0.474456 0.360864 -0.728684 -0.582063 
0.331685 -0.775485 -0.537222 0.193788 -0.616421 -0.763198 -0.226875 -0.964037 -0.138424 
-0.419886 -0.900401 -0.113906 -0.492931 -0.861055 -0.124917 -0.492537 -0.861409 -0.124025 
-0.49194 -0.860473 -0.132593 0.287142 -0.795778 -0.533186 0.142283 -0.844895 -0.515663 
0.154637 -0.778998 -0.60766 -0.0380923 -0.893496 -0.447453 -0.00555772 -0.826266 -0.563253 
-0.0856363 -0.917638 -0.388082 -0.0595397 -0.878472 -0.474069 -0.165112 -0.966279 -0.197592 
-0.106971 -0.961305 -0.253869 -0.0906319 -0.94736 -0.307073 0.0959418 0.737121 -0.668915 
0.0533969 0.739652 -0.670868 0.0860951 0.768629 -0.633874 0.0668052 0.787855 -0.612227 
-0.0742348 0.770431 -0.633187 -0.222439 0.723633 -0.653358 0.440154 0.722855 -0.532677 
0.280127 0.743919 -0.606724 0.140903 0.760719 -0.633603 0.151607 0.763663 -0.627562 
0.0851423 0.697416 -0.711591 0.0534995 0.683703 -0.727797 0.0866147 0.681551 -0.726627 
0.0487327 0.649465 -0.758828 -0.0744818 0.60438 -0.793207 -0.224706 0.728145 -0.647543 
-0.205893 0.653794 -0.728122 -0.219295 0.732688 -0.644266 -0.225241 0.757395 -0.612878 
-0.329092 0.721569 -0.609128 0.489495 0.690391 -0.532686 0.647717 0.562362 -0.514015 
0.418799 0.641522 -0.642695 0.203629 0.574866 -0.792505 0.0569869 0.464394 -0.883793 
0.0214515 0.41457 -0.909765 0.0476909 0.380146 -0.923696 0.0453724 0.354927 -0.933792 
-0.00714893 0.293531 -0.955923 -0.0530514 0.307833 -0.94996 -0.0679792 0.396273 -0.915613 
-0.0981859 0.530097 -0.842233 -0.173596 0.621781 -0.76371 -0.403042 0.695605 -0.59472 
-0.308094 0.676433 -0.668967 -0.514796 0.638261 -0.572371 0.749828 0.424205 -0.507747 
0.618642 0.431738 -0.656417 0.342448 0.32856 -0.880215 -0.648735 0.520929 -0.554775 
-0.485268 0.491956 -0.722838 -0.752557 0.407081 -0.517632 0.839929 0.165493 -0.516847 
0.546077 0.173252 -0.819624 -0.805035 0.321903 -0.498294 -0.744087 0.324895 -0.583762 
0.852057 -0.108891 -0.511998 0.563512 -0.080297 -0.822197 -0.882741 0.111155 -0.456522 
-0.713604 0.126201 -0.689088 0.826852 -0.266549 -0.495245 0.654584 -0.2378 -0.717615 
-0.884972 -0.147019 -0.441826 -0.729571 -0.136571 -0.67013 0.780322 -0.439406 -0.444994 
0.773666 -0.450722 -0.445297 0.764164 -0.437804 -0.473689 0.360466 -0.322196 -0.875359 
-0.814217 -0.389361 -0.430637 -0.7853 -0.450417 -0.424768 -0.77646 -0.38127 -0.50174 
0.655362 -0.569321 -0.496361 0.590225 -0.614364 -0.523634 0.544618 -0.534385 -0.646393 
0.259094 -0.380841 -0.887598 0.0726707 -0.301346 -0.950742 0.00797742 -0.249884 -0.968243 
0.0247074 -0.241781 -0.970016 -0.642888 -0.635666 -0.427345 -0.566773 -0.700411 -0.433812 
-0.529718 -0.601869 -0.597622 0.434529 -0.688737 -0.580368 0.410089 -0.694247 -0.59148 
0.401206 -0.680963 -0.612636 0.273106 -0.65513 -0.704428 0.18421 -0.550389 -0.814333 
0.18187 -0.602483 -0.777134 0.0795663 -0.452997 -0.887955 0.0354405 -0.397321 -0.916995 
0.0239783 -0.379698 -0.9248 0.098458 -0.362127 -0.926914 0.135315 -0.337863 -0.931417 
0.0222753 -0.35247 -0.935558 -0.127341 -0.459013 -0.879256 -0.426834 -0.768063 -0.47738 
-0.304313 -0.606978 -0.734147 -0.449222 -0.766667 -0.458717 -0.442594 -0.768193 -0.46259 
-0.436282 -0.761729 -0.478985 0.167659 -0.592218 -0.788143 0.117004 -0.562621 -0.818393 
0.107775 -0.535897 -0.837377 0.0370932 -0.583432 -0.811315 0.0444227 -0.515294 -0.855861 
0.0497177 -0.61964 -0.78331 0.0741539 -0.541778 -0.837244 0.05095 -0.712341 -0.699981 
0.0935313 -0.584143 -0.806244 -0.111997 -0.78222 -0.612853 -0.0646967 -0.633689 -0.770878 
-0.370895 -0.771438 -0.51703 -0.335694 -0.772435 -0.539123 -0.307203 -0.728605 -0.612178 
0.153294 0.372899 -0.915122 0.0125923 0.344442 -0.938723 -0.0140362 0.286127 -0.958089 
0.0261111 0.279225 -0.959871 0.0285218 0.293187 -0.95563 -0.00938296 0.261353 -0.965198 
-0.0184281 0.265861 -0.963835 -0.0115992 0.308166 -0.951262 -0.0376565 0.393283 -0.918646 
-0.100261 0.430421 -0.897043 -0.223935 0.421504 -0.878742 0.267039 0.295211 -0.917355 
0.287619 0.250835 -0.924314 0.130325 0.243107 -0.961205 -0.0142172 0.216865 -0.976098 
-0.0375681 0.196164 -0.979851 0.00543295 0.194935 -0.980801 0.00451977 0.206404 -0.978456 
-0.0152112 0.159959 -0.987006 0.01598 0.230453 -0.972952 0.0444823 0.221836 -0.974069 
0.00616248 0.278743 -0.960346 -0.0809114 0.345837 -0.9348 -0.245287 0.411684 -0.877696 
-0.218353 0.402898 -0.888817 -0.421218 0.315045 -0.850483 0.365567 0.167916 -0.915514 
0.222312 0.139276 -0.964976 0.0563678 0.0817659 -0.995056 -0.0206165 0.0398856 -0.998992 
0.00315282 0.0357807 -0.999355 0.0662606 0.128496 -0.989494 0.00317513 0.187907 -0.982182 
0.0197302 0.0921107 -0.995553 0.0167098 0.267858 -0.963314 -0.0181995 0.051864 -0.998488 
0.0482261 0.08239 -0.995433 -0.00342979 0.184661 -0.982796 -0.159987 0.240055 -0.957485 
-0.434178 0.296883 -0.8505 -0.416582 0.295156 -0.85985 0.411027 -0.0578421 -0.909786 
0.214986 -0.0217413 -0.976375 0.0591679 -0.00959672 -0.998202 -0.0544713 -0.0163582 -0.998381 
0.0425735 -0.030171 -0.998638 0.17953 0.0237426 -0.983466 -0.0453447 0.0365567 -0.998302 
0.0689646 -0.0978976 -0.992804 -0.0499679 0.0611107 -0.996879 -0.126432 -0.011558 -0.991908 
0.150978 0.0306863 -0.988061 0.0673575 0.102698 -0.992429 -0.121927 0.102558 -0.987226 
-0.531507 0.130189 -0.836989 -0.355165 0.111117 -0.928176 0.350788 -0.186426 -0.917711 
0.300154 -0.227624 -0.926334 0.288504 -0.169012 -0.942444 0.0630877 -0.112772 -0.991616 
-0.0400218 -0.0617753 -0.997287 0.0233309 -0.0388682 -0.998972 0.133142 -0.109381 -0.985043 
-0.112138 -0.118788 -0.986567 0.0892193 -0.0336578 -0.995443 0.0748938 -0.143119 -0.986868 
-0.0608778 0.0532612 -0.996723 0.171361 0.0297147 -0.98476 0.0637014 -0.0320132 -0.997455 
-0.145008 -0.0433983 -0.988478 -0.550174 -0.115187 -0.827067 -0.378257 -0.0821354 -0.92205 
0.21255 -0.239177 -0.947426 0.183799 -0.254816 -0.949361 0.143218 -0.197469 -0.969791 
0.0673531 -0.283723 -0.956538 0.0204344 -0.120588 -0.992492 0.00804487 -0.237447 -0.971367 
0.013518 -0.0857988 -0.996221 0.024887 -0.241436 -0.970097 0.0877357 -0.140001 -0.986257 
0.0179151 -0.176056 -0.984217 0.0228281 -0.0288474 -0.999323 0.0772049 -0.187398 -0.979245 
0.0414856 -0.00676761 -0.999116 0.0590316 -0.0503828 -0.996984 -0.00483242 -0.184009 -0.982913 
-0.170718 -0.243954 -0.954642 -0.481304 -0.322208 -0.815186 -0.452649 -0.36785 -0.812277 
-0.443544 -0.317674 -0.838064 0.0246352 -0.242597 -0.969814 0.0188699 -0.312576 -0.949705 
0.0187693 -0.304248 -0.952408 0.058812 -0.25785 -0.964393 0.0525293 -0.243853 -0.968388 
0.12813 -0.285587 -0.949749 0.116945 -0.220474 -0.968357 0.0233314 -0.349495 -0.936648 
0.0799576 -0.182937 -0.979868 -0.104712 -0.419876 -0.901521 -0.0150842 -0.228457 -0.973437 
-0.189267 -0.456036 -0.869603 -0.116272 -0.350201 -0.92943 -0.31343 -0.49919 -0.807819 
-0.291663 -0.511825 -0.808064 -0.277133 -0.482611 -0.830833 
