# vtk DataFile Version 4.2
vtk output
ASCII
DATASET POLYDATA
POINTS 548 float
-50.345 -27.8682 -19.5244 -41.6927 -27.8682 -20.0244 -33.0404 -27.8682 -19.5977 
-24.3881 -27.8682 -18.5739 -15.7358 -27.8682 -18.2125 -7.08351 -27.8682 -18.5219 
1.56879 -27.8682 -19.8037 10.2211 -27.8682 -18.5173 -58.9973 -19.2159 -19.2067 
-50.345 -19.2159 -22.7215 -41.6927 -19.2159 -23.7253 -33.0404 -19.2159 -22.6394 
-24.3881 -19.2159 -20.9897 -15.7358 -19.2159 -18.6613 -7.08351 -19.2159 -18.8808 
1.56879 -19.2159 -21.1401 10.2211 -19.2159 -19.441 -58.9973 -10.5636 -21.5924 
-50.345 -10.5636 -24.776 -41.6927 -10.5636 -25.0514 -33.0404 -10.5636 -23.9081 
-24.3881 -10.5636 -22.5813 -15.7358 -10.5636 -20.5232 -7.08351 -10.5636 -20.8222 
1.56879 -10.5636 -20.9105 10.2211 -10.5636 -20.8614 18.8734 -10.5636 -17.9165 
27.5257 -10.5636 -18.7545 36.178 -10.5636 -19.1603 44.8303 -10.5636 -19.0581 
53.4826 -10.5636 -17.1803 -58.9973 -1.91125 -23.0838 -50.345 -1.91125 -25.5064 
-41.6927 -1.91125 -25.5826 -33.0404 -1.91125 -24.573 -24.3881 -1.91125 -23.0273 
-15.7358 -1.91125 -24.0957 -7.08351 -1.91125 -23.6397 1.56879 -1.91125 -18.4837 
10.2211 -1.91125 -22.9509 18.8734 -1.91125 -21.0518 27.5257 -1.91125 -21.6886 
36.178 -1.91125 -22.5562 44.8303 -1.91125 -22.2858 53.4826 -1.91125 -20.5875 
-58.9973 6.74105 -23.0987 -50.345 6.74105 -25.5139 -41.6927 6.74105 -25.7154 
-33.0404 6.74105 -24.9573 -24.3881 6.74105 -23.641 -15.7358 6.74105 -24.0797 
-7.08351 6.74105 -24.6423 1.56879 6.74105 -21.9667 10.2211 6.74105 -22.6289 
18.8734 6.74105 -21.3064 27.5257 6.74105 -22.9793 36.178 6.74105 -23.9599 
44.8303 6.74105 -24.3274 53.4826 6.74105 -22.4836 62.1349 6.74105 -19.5951 
-58.9973 15.3934 -21.9908 -50.345 15.3934 -24.8252 -41.6927 15.3934 -25.4488 
-33.0404 15.3934 -25.0527 -24.3881 15.3934 -24.852 -15.7358 15.3934 -24.5549 
-7.08351 15.3934 -24.7536 1.56879 15.3934 -24.043 10.2211 15.3934 -23.8493 
18.8734 15.3934 -22.821 27.5257 15.3934 -23.316 36.178 15.3934 -23.937 
44.8303 15.3934 -23.8373 53.4826 15.3934 -22.3216 62.1349 15.3934 -17.8916 
-58.9973 24.0457 -19.6175 -50.345 24.0457 -23.7671 -41.6927 24.0457 -24.4014 
-33.0404 24.0457 -24.3393 -24.3881 24.0457 -23.9769 -15.7358 24.0457 -24.0931 
-7.08351 24.0457 -24.0792 1.56879 24.0457 -24.0502 10.2211 24.0457 -24.4838 
18.8734 24.0457 -24.1829 27.5257 24.0457 -24.466 36.178 24.0457 -23.9973 
44.8303 24.0457 -22.479 53.4826 24.0457 -19.3274 -50.345 32.698 -17.9186 
-41.6927 32.698 -18.5323 -33.0404 32.698 -19.3436 -24.3881 32.698 -18.907 
-15.7358 32.698 -19.8601 -7.08351 32.698 -21.3069 1.56879 32.698 -22.1121 
10.2211 32.698 -23.2762 18.8734 32.698 -23.5138 27.5257 32.698 -22.6739 
36.178 32.698 -20.6646 44.8303 32.698 -17.4592 10.2211 41.3503 -17.6032 
18.8734 41.3503 -17.6041 -50.345 -31.3993 -17.1679 -41.6927 -32.5232 -17.1679 
-41.6927 -36.5205 -13.6244 -33.0404 -33.1975 -17.1679 -33.0404 -36.5205 -15.1915 
-24.3881 -31.1426 -17.1679 -24.3881 -36.5205 -14.5554 -15.7358 -30.8674 -17.1679 
-15.7358 -36.5205 -14.5963 -7.08351 -31.2599 -17.1679 -7.08351 -36.5205 -14.4786 
1.56879 -33.1068 -17.1679 1.56879 -36.5205 -14.3631 10.2211 -31.061 -17.1679 
10.2211 -36.5205 -13.922 18.8734 -36.5205 -12.0656 27.5257 -36.5205 -10.3922 
-54.109 -27.8682 -17.1679 -58.9973 -22.4517 -17.1679 -58.9973 -27.8682 -10.3288 
15.9206 -27.8682 -17.1679 18.8734 -27.8682 -16.5093 27.5257 -27.8682 -14.6412 
36.178 -27.8682 -13.002 44.8303 -27.8682 -10.3716 -61.1552 -19.2159 -17.1679 
18.1918 -19.2159 -17.1679 18.8734 -17.4431 -17.1679 18.8734 -19.2159 -16.9888 
27.5257 -16.4202 -17.1679 27.5257 -19.2159 -16.4073 36.178 -17.0723 -17.1679 
36.178 -19.2159 -16.4927 44.8303 -14.3744 -17.1679 44.8303 -19.2159 -14.6147 
53.4826 -10.5868 -17.1679 53.4826 -19.2159 -11.9766 -63.5028 -10.5636 -17.1679 
53.5064 -10.5636 -17.1679 62.1349 -10.5636 -11.4083 -65.0995 -1.91125 -17.1679 
60.707 -1.91125 -17.1679 62.1349 -0.104253 -17.1679 62.1349 -1.91125 -16.3917 
-65.1662 6.74105 -17.1679 -67.6496 6.74105 -9.93363 65.4805 6.74105 -17.1679 
70.7872 6.74105 -9.11165 -64.6719 15.3934 -17.1679 -67.6496 15.3934 -10.4384 
63.1635 15.3934 -17.1679 62.1349 17.2367 -17.1679 -61.5783 24.0457 -17.1679 
-58.9973 26.9301 -17.1679 57.2148 24.0457 -17.1679 53.4826 27.6833 -17.1679 
62.1349 24.0457 -12.8168 -51.4744 32.698 -17.1679 -50.345 33.3345 -17.1679 
-41.6927 33.7653 -17.1679 -33.0404 34.3838 -17.1679 -24.3881 34.2168 -17.1679 
-15.7358 34.8803 -17.1679 -7.08351 37.2029 -17.1679 1.56879 39.6482 -17.1679 
27.5257 39.6071 -17.1679 36.178 36.6839 -17.1679 45.5307 32.698 -17.1679 
44.8303 32.9868 -17.1679 53.4826 32.698 -10.1663 8.43542 41.3503 -17.1679 
1.56879 41.3503 -12.2786 10.2211 41.6607 -17.1679 20.6438 41.3503 -17.1679 
18.8734 41.6808 -17.1679 27.5257 41.3503 -9.09037 -41.6927 -40.2776 -8.51559 
-33.0404 -41.7811 -8.51559 -24.3881 -42.5362 -8.51559 -24.3881 -45.1728 -0.184839 
-15.7358 -42.3355 -8.51559 -7.08351 -41.3936 -8.51559 1.56879 -40.1506 -8.51559 
10.2211 -40.0766 -8.51559 18.8734 -39.4696 -8.51559 27.5257 -38.015 -8.51559 
-58.9973 -29.0264 -8.51559 -49.4309 -36.5205 -8.51559 -50.345 -36.0775 -8.51559 
-50.345 -36.5205 -5.52912 31.8482 -36.5205 -8.51559 36.178 -34.2167 -8.51559 
36.178 -36.5205 -5.79422 44.8303 -30.2253 -8.51559 44.8303 -36.5205 -0.0465936 
-59.9957 -27.8682 -8.51559 48.398 -27.8682 -8.51559 53.4826 -24.0425 -8.51559 
53.4826 -27.8682 -4.8198 -64.6131 -19.2159 -8.51559 58.9697 -19.2159 -8.51559 
62.1349 -15.4121 -8.51559 62.1349 -19.2159 -5.5779 -66.6429 -10.5636 -8.51559 
65.6511 -10.5636 -8.51559 70.7872 -10.5636 -0.678314 -67.4817 -1.91125 -8.51559 
-67.6496 0.847932 -8.51559 69.4357 -1.91125 -8.51559 70.7872 5.0852 -8.51559 
70.7872 -1.91125 -5.22289 -68.0091 6.74105 -8.51559 -67.6496 6.74105 -6.60879 
71.0972 6.74105 -8.51559 70.7872 8.78456 -8.51559 -68.2447 15.3934 -8.51559 
-67.6496 17.1983 -8.51559 -67.6496 15.3934 -1.29868 69.7558 15.3934 -8.51559 
70.7872 15.3934 -0.416944 -65.3922 24.0457 -8.51559 -58.9973 31.6941 -8.51559 
65.6002 24.0457 -8.51559 62.1349 27.5328 -8.51559 -57.7095 32.698 -8.51559 
-50.345 36.7423 -8.51559 -41.6927 37.5658 -8.51559 -33.0404 36.7549 -8.51559 
-24.3881 36.873 -8.51559 -15.7358 37.1138 -8.51559 -7.08351 39.2345 -8.51559 
36.178 39.6037 -8.51559 44.8303 37.1402 -8.51559 54.7295 32.698 -8.51559 
53.4826 33.3577 -8.51559 -1.06936 41.3503 -8.51559 1.56879 42.2651 -8.51559 
1.56879 41.3503 -5.86997 10.2211 43.251 -8.51559 10.2211 41.3503 -2.71166 
18.8734 42.771 -8.51559 18.8734 41.3503 -3.70515 27.9365 41.3503 -8.51559 
27.5257 41.4346 -8.51559 27.5257 41.3503 -8.17436 -24.3881 -45.256 0.13671 
-50.345 -37.3406 0.13671 -41.6927 -41.9803 0.13671 -25.2583 -45.1728 0.13671 
-33.0404 -44.3974 0.13671 -23.5024 -45.1728 0.13671 -24.3881 -45.1728 0.650526 
-15.7358 -44.4329 0.13671 -7.08351 -42.8413 0.13671 1.56879 -41.0298 0.13671 
10.2211 -40.7116 0.13671 18.8734 -41.2948 0.13671 27.5257 -40.9034 0.13671 
36.178 -39.4638 0.13671 44.8303 -36.6196 0.13671 -51.441 -36.5205 0.13671 
-58.9973 -29.1387 0.13671 -50.345 -36.5205 2.72374 45.0516 -36.5205 0.13671 
53.4826 -31.888 0.13671 -59.9165 -27.8682 0.13671 -58.9973 -27.8682 1.98191 
58.9894 -27.8682 0.13671 62.1349 -24.8303 0.13671 -62.6977 -19.2159 0.13671 
-58.9973 -19.2159 6.88881 66.5182 -19.2159 0.13671 70.7872 -11.3659 0.13671 
-64.129 -10.5636 0.13671 71.1337 -10.5636 0.13671 -65.6586 -1.91125 0.13671 
72.7699 -1.91125 0.13671 -66.097 6.74105 0.13671 73.3813 6.74105 0.13671 
-67.5095 15.3934 0.13671 70.8569 15.3934 0.13671 70.7872 15.5748 0.13671 
70.7872 15.3934 0.330132 -64.2019 24.0457 0.13671 -58.9973 31.5391 0.13671 
66.3019 24.0457 0.13671 62.1349 28.0898 0.13671 62.1349 24.0457 6.93829 
-58.0126 32.698 0.13671 -50.345 37.4576 0.13671 -41.6927 39.0364 0.13671 
-33.0404 38.0592 0.13671 -24.3881 37.7268 0.13671 -15.7358 36.18 0.13671 
-7.08351 36.87 0.13671 1.56879 39.0726 0.13671 10.2211 40.2624 0.13671 
18.8734 40.0336 0.13671 27.5257 39.0322 0.13671 36.178 38.0577 0.13671 
44.8303 36.8029 0.13671 44.8303 32.698 8.04495 54.7473 32.698 0.13671 
53.4826 33.2693 0.13671 53.4826 32.698 1.6231 -41.6927 -39.166 8.78901 
-33.0404 -42.4544 8.78901 -24.3881 -43.7078 8.78901 -15.7358 -42.7569 8.78901 
-7.08351 -41.0837 8.78901 1.56879 -39.5768 8.78901 10.2211 -39.8661 8.78901 
18.8734 -40.0454 8.78901 27.5257 -39.8318 8.78901 36.178 -39.0976 8.78901 
44.8303 -37.5134 8.78901 -46.5699 -36.5205 8.78901 -50.345 -33.4438 8.78901 
-41.6927 -36.5205 12.4575 -33.0404 -36.5205 16.5806 -15.7358 -36.5205 17.3982 
-7.08351 -36.5205 16.0644 1.56879 -36.5205 15.8335 18.8734 -36.5205 17.2936 
27.5257 -36.5205 15.6604 36.178 -36.5205 13.9157 47.0954 -36.5205 8.78901 
44.8303 -36.5205 11.4432 53.4826 -33.1855 8.78901 -54.6065 -27.8682 8.78901 
-50.345 -27.8682 13.5794 60.6271 -27.8682 8.78901 62.1349 -26.4146 8.78901 
-57.9987 -19.2159 8.78901 -58.9973 -11.9875 8.78901 67.7068 -19.2159 8.78901 
70.7872 -10.7851 8.78901 -59.1931 -10.5636 8.78901 -58.9973 -10.5636 9.07371 
70.8681 -10.5636 8.78901 70.7872 -10.5636 8.94614 -60.2499 -1.91125 8.78901 
-58.9973 -1.91125 10.5012 71.4542 -1.91125 8.78901 70.7872 -1.91125 9.93861 
-60.8092 6.74105 8.78901 -58.9973 6.74105 11.1706 71.6184 6.74105 8.78901 
70.7872 8.53602 8.78901 70.7872 6.74105 9.91068 -62.056 15.3934 8.78901 
-58.9973 15.3934 12.6689 67.5123 15.3934 8.78901 62.1349 22.8242 8.78901 
62.1349 15.3934 14.3917 -59.777 24.0457 8.78901 -58.9973 25.5175 8.78901 
-58.9973 24.0457 9.81093 44.8303 32.2549 8.78901 44.8303 24.0457 16.6368 
60.8084 24.0457 8.78901 53.4826 29.3675 8.78901 53.4826 24.0457 13.9472 
-54.1637 32.698 8.78901 -50.345 35.4102 8.78901 -50.345 32.698 13.0584 
-41.6927 37.8943 8.78901 -33.0404 37.8829 8.78901 -24.3881 37.8081 8.78901 
-15.7358 36.0944 8.78901 -7.08351 34.2679 8.78901 -7.08351 32.698 12.712 
1.56879 33.6749 8.78901 1.56879 32.698 10.1861 10.2211 33.8983 8.78901 
10.2211 32.698 10.1803 18.8734 34.1484 8.78901 18.8734 32.698 10.5133 
27.5257 34.3694 8.78901 27.5257 32.698 10.8993 42.1237 32.698 8.78901 
[...]
POINT_DATA 548
SCALARS ImageScalars float
LOOKUP_TABLE default
0 0 0 0 0 0 0 0 0 
0 0 0 0 0 0 0 0 0 
0 0 0 0 0 0 0 0 0 
0 0 0 0 0 0 0 0 0 
0 0 0 0 0 0 0 0 0 
0 0 0 0 0 0 0 0 0 
0 0 0 0 0 0 0 0 0 
0 0 0 0 0 0 0 0 0 
0 0 0 0 0 0 0 0 0 
0 0 0 0 0 0 0 0 0 
0 0 0 0 0 0 0 0 0 
0 0 0 0 0 0 0 0 0 
0 0 0 0 0 0 0 0 0 
0 0 0 0 0 0 0 0 0 
0 0 0 0 0 0 0 0 0 
0 0 0 0 0 0 0 0 0 
0 0 0 0 0 0 0 0 0 
0 0 0 0 0 0 0 0 0 
0 0 0 0 0 0 0 0 0 
0 0 0 0 0 0 0 0 0 
0 0 0 0 0 0 0 0 0 
0 0 0 0 0 0 0 0 0 
0 0 0 0 0 0 0 0 0 
0 0 0 0 0 0 0 0 0 
0 0 0 0 0 0 0 0 0 
0 0 0 0 0 0 0 0 0 
0 0 0 0 0 0 0 0 0 
0 0 0 0 0 0 0 0 0 
0 0 0 0 0 0 0 0 0 
0 0 0 0 0 0 0 0 0 
0 0 0 0 0 0 0 0 0 
0 0 0 0 0 0 0 0 0 
0 0 0 0 0 0 0 0 0 
0 0 0 0 0 0 0 0 0 
0 0 0 0 0 0 0 0 0 
0 0 0 0 0 0 0 0 0 
0 0 0 0 0 0 0 0 0 
0 0 0 0 0 0 0 0 0 
0 0 0 0 0 0 0 0 0 
0 0 0 0 0 0 0 0 0 
0 0 0 0 0 0 0 0 0 
0 0 0 0 0 0 0 0 0 
0 0 0 0 0 0 0 0 0 
0 0 0 0 0 0 0 0 0 
0 0 0 0 0 0 0 0 0 
0 0 0 0 0 0 0 0 0 
0 0 0 0 0 0 0 0 0 
0 0 0 0 0 0 0 0 0 
0 0 0 0 0 0 0 0 0 
0 0 0 0 0 0 0 0 0 
0 0 0 0 0 0 0 0 0 
0 0 0 0 0 0 0 0 0 
0 0 0 0 0 0 0 0 0 
0 0 0 0 0 0 0 0 0 
0 0 0 0 0 0 0 0 0 
0 0 0 0 0 0 0 0 0 
0 0 0 0 0 0 0 0 0 
0 0 0 0 0 0 0 0 0 
0 0 0 0 0 0 0 0 0 
0 0 0 0 0 0 0 0 0 
0 0 0 0 0 0 0 0 
NORMALS Normals float
0.273412 0.51376 0.813201 0.0050501 0.472183 0.881486 -0.0767366 0.369003 0.926255 
-0.0771724 0.327338 0.941751 -0.00223911 0.200448 0.979702 0.0943504 0.207489 0.973677 
0.00106568 0.29944 0.954115 -0.184317 0.242397 0.952508 0.607015 0.354193 0.711393 
0.221939 0.281417 0.933567 -0.000423917 0.274658 0.961542 -0.148783 0.230448 0.961643 
-0.221873 0.215056 0.951064 -0.117765 0.127249 0.984855 0.147405 0.124999 0.981146 
0.0299981 0.0634577 0.997534 -0.243885 0.123948 0.961851 0.555787 0.212128 0.803805 
0.1567 0.164838 0.973793 -0.0503421 0.10239 0.99347 -0.144393 0.112606 0.983092 
-0.189236 0.116161 0.975037 -0.103814 0.30051 0.948112 0.0226262 0.252276 0.967391 
0.00222318 -0.13535 0.990795 -0.171279 0.211589 0.962234 -0.102804 0.241076 0.965046 
0.0648972 0.290346 0.954719 0.0172898 0.349643 0.936723 -0.104464 0.40242 0.909476 
-0.341959 0.422866 0.839195 0.500896 0.0705763 0.862625 0.115695 0.0421424 0.99239 
-0.0538124 0.038012 0.997827 -0.146088 0.0593943 0.987487 -0.0341132 0.0606573 0.997576 
0.0424496 0.200351 0.978804 -0.311783 0.226583 0.922741 0.0203484 0.0526584 0.998405 
0.110027 0.0871626 0.990099 -0.0755348 0.181761 0.980437 0.0864764 0.238744 0.967224 
0.032614 0.25639 0.966023 -0.104431 0.292116 0.950664 -0.300689 0.299472 0.905485 
0.494442 -0.0507492 0.867728 0.123084 -0.0390311 0.991628 -0.0322232 -0.00769225 0.999451 
-0.119672 0.027553 0.992431 -0.0500949 0.100526 0.993672 0.0573437 0.027807 0.997967 
-0.115194 0.055974 0.991765 -0.107481 0.302294 0.947136 -0.0421104 0.052386 0.997739 
0.0206311 0.102337 0.994536 0.152883 0.0905721 0.984085 0.0766661 0.0777655 0.99402 
-0.0920272 0.0882409 0.991839 -0.261184 0.0904338 0.961043 -0.507962 0.0727701 0.8583 
0.488543 -0.191236 0.851325 0.167611 -0.0866415 0.982039 0.0111688 -0.0702096 0.99747 
-0.0369097 -0.0388813 0.998562 -0.029662 0.0196364 0.999367 -0.00471063 0.000312399 0.999989 
-0.0297239 -0.0320316 0.999045 -0.0517241 0.108748 0.992723 -0.0704871 0.10679 0.99178 
-0.0303798 0.167348 0.98543 0.0637201 0.0826961 0.994536 0.0306142 0.00183174 0.99953 
-0.0864634 -0.108458 0.990334 -0.306498 -0.150948 0.939827 -0.540838 -0.259537 0.800084 
0.552562 -0.430583 0.713634 0.245488 -0.351592 0.903393 0.0255197 -0.308605 0.950848 
-0.0246113 -0.265208 0.963877 -0.0142023 -0.268705 0.963118 0.00608304 -0.212606 0.977119 
-0.00247948 -0.188291 0.98211 0.0236757 -0.102908 0.994409 0.00715549 -0.0313504 0.999483 
-0.001628 0.0442128 0.999021 -0.00852875 -0.0204775 0.999754 -0.111423 -0.162608 0.980379 
-0.228167 -0.288727 0.929826 -0.409214 -0.402911 0.818661 0.280804 -0.714076 0.641283 
0.0690222 -0.776719 0.626053 0.0133881 -0.784104 0.620485 0.023411 -0.761111 0.648199 
0.129803 -0.730787 0.67015 0.117335 -0.54511 0.830113 0.11786 -0.386333 0.914798 
0.0778757 -0.301 0.950439 -0.0302625 -0.302111 0.952792 -0.157195 -0.406293 0.90012 
-0.250932 -0.538852 0.804159 -0.330885 -0.689219 0.644587 0.0892786 -0.868582 0.487436 
-0.0958188 -0.868035 0.48717 0.341024 0.633816 0.694248 0.058922 0.586556 0.807763 
0.193988 0.749262 0.633226 -0.0265062 0.521461 0.852863 0.0270595 0.661277 0.749654 
-0.0570137 0.410083 0.910265 -0.0254058 0.586157 0.809799 0.0023026 0.302652 0.953098 
-0.00326603 0.563433 0.826155 0.0642924 0.342761 0.93722 -0.0105518 0.648285 0.761325 
-0.00646649 0.529475 0.848301 -0.0238331 0.763787 0.645029 -0.172322 0.373366 0.911539 
-0.10713 0.730855 0.674073 -0.151934 0.72179 0.67523 -0.256292 0.708646 0.65737 
0.473313 0.582951 0.660411 0.659298 0.467351 0.588989 0.743618 0.607312 0.279651 
-0.19885 0.225451 0.953746 -0.207211 0.225191 0.952025 -0.192848 0.28209 0.939806 
-0.217471 0.450196 0.866042 -0.326175 0.541599 0.774778 0.720061 0.366939 0.588956 
-0.167909 0.0801443 0.982539 -0.148896 0.110467 0.982663 -0.161376 0.0771116 0.983876 
0.00452097 0.244309 0.969687 -0.0291347 0.225143 0.97389 -0.0650169 0.308993 0.948839 
-0.0938452 0.302078 0.948653 -0.148878 0.420375 0.895053 -0.216934 0.438113 0.872351 
-0.341869 0.423061 0.839133 -0.35121 0.500162 0.791511 0.803973 0.202133 0.559257 
-0.342615 0.422775 0.838973 -0.567396 0.436514 0.698224 0.831585 0.0815034 0.549384 
-0.456656 0.358909 0.814033 -0.500194 0.310405 0.808365 -0.498968 0.361615 0.787569 
0.816618 -0.0176452 0.576908 0.993556 0.0355816 0.107616 -0.648357 0.0668521 0.758395 
-0.911897 0.0190743 0.409975 0.791623 -0.188652 0.581158 0.968833 -0.161359 0.187952 
-0.573876 -0.262801 0.77563 -0.55034 -0.318381 0.771855 0.666064 -0.440941 0.601606 
0.570498 -0.553711 0.606577 -0.492815 -0.449811 0.744851 -0.44749 -0.54147 0.711732 
-0.654169 -0.573937 0.492603 0.317752 -0.727101 0.60857 0.279943 -0.743239 0.607641 
0.0628165 -0.818646 0.570853 0.0231634 -0.866358 0.498887 0.027311 -0.833208 0.552285 
0.159221 -0.845682 0.509382 0.243709 -0.812477 0.52961 0.227909 -0.802063 0.552045 
-0.239405 -0.824557 0.512631 -0.297894 -0.753954 0.585501 -0.340298 -0.69523 0.63313 
-0.333934 -0.699596 0.631706 -0.455875 -0.854747 0.248164 0.122162 -0.875404 0.467701 
0.240932 -0.95419 0.177405 0.0897406 -0.884027 0.45874 -0.12736 -0.878773 0.459932 
-0.0952248 -0.884943 0.455859 -0.183065 -0.982908 -0.0194845 0.291686 0.873194 0.390451 
0.113232 0.87293 0.474522 0.0305862 0.853269 0.520573 0.00206259 0.998035 0.06262 
-0.064326 0.873504 0.482548 -0.124958 0.908215 0.399413 -0.071865 0.948176 0.309513 
-0.0380785 0.946194 0.321352 -0.115562 0.878751 0.463078 -0.24351 0.792308 0.55942 
0.753647 0.618081 0.223591 0.460796 0.851014 0.251875 0.479579 0.846009 0.232966 
0.5193 0.844824 0.12884 -0.298849 0.726672 0.618577 -0.309422 0.647711 0.696224 
-0.317776 0.794628 0.517286 -0.341268 0.609794 0.715323 -0.366833 0.875695 0.313993 
0.778734 0.59186 0.208025 -0.38646 0.578044 0.71869 -0.437492 0.558729 0.704573 
-0.495006 0.660763 0.564235 0.937426 0.339437 0.0775618 -0.532382 0.514567 0.672153 
-0.593581 0.493969 0.63534 -0.653709 0.521115 0.54873 0.987801 0.154754 0.017328 
-0.660259 0.421499 0.621608 -0.915385 0.324606 0.238121 0.996725 0.0786986 0.0186197 
0.997493 0.067043 0.0226687 -0.853285 0.219031 0.473213 -0.913844 0.0529126 0.402604 
-0.932233 0.177947 0.315082 0.998622 0.043332 0.0296102 0.997315 0.052529 -0.0510317 
-0.921875 0.0158591 0.387162 -0.927888 -0.0418347 0.370506 0.983273 -0.147005 0.107534 
0.973265 -0.200427 0.112176 0.961062 -0.107925 -0.254386 -0.919992 -0.238947 0.310675 
-0.942342 -0.324551 -0.081599 0.896203 -0.427497 0.118603 0.631378 -0.751616 0.190881 
-0.765227 -0.582139 0.274848 -0.670331 -0.68921 0.275037 0.565706 -0.798126 0.207294 
0.257182 -0.940166 0.223484 0.00676157 -0.961899 0.273321 -0.0372708 -0.977478 0.20772 
0.0198222 -0.984121 0.176388 0.130954 -0.989139 0.0667483 0.296643 -0.954559 -0.0286439 
-0.250951 -0.966561 0.0527635 -0.323193 -0.932673 0.160209 -0.474654 -0.861725 0.17926 
-0.449994 -0.876776 0.169615 0.249983 -0.967112 -0.0469327 0.221614 -0.973716 -0.0525702 
0.217177 -0.961362 -0.169169 0.0264742 -0.997035 -0.0722559 0.0435651 -0.940674 -0.336504 
-0.101626 -0.991139 -0.0855374 -0.0816424 -0.957876 -0.275332 -0.181005 -0.982447 -0.0451099 
-0.177393 -0.982894 -0.0495174 -0.175035 -0.982625 -0.0617287 0.00125738 0.99884 0.0481358 
0.574576 0.815001 -0.0750737 0.372748 0.926588 -0.0499396 0.0173712 0.998737 0.0471479 
0.174906 0.983944 0.0355326 -0.0117426 0.998922 0.0449022 0.00141725 0.999643 0.0266804 
-0.134757 0.99076 0.0153225 -0.201308 0.979462 -0.0113746 -0.11114 0.993234 -0.0336801 
0.0152754 0.999836 -0.00972176 0.00951076 0.999624 0.0257132 -0.0998442 0.9916 0.0822287 
-0.241859 0.951692 0.189175 -0.366367 0.878786 0.305796 0.605136 0.791212 -0.0882832 
0.826179 0.515286 -0.227834 0.594496 0.780813 -0.19211 -0.3695 0.877299 0.306294 
-0.508106 0.791148 0.34046 0.84597 0.475589 -0.241142 0.833133 0.466426 -0.297215 
-0.625644 0.697052 0.350268 -0.700256 0.625139 0.344737 0.912409 0.229417 -0.338935 
0.851943 0.198292 -0.484637 -0.796856 0.511818 0.321035 -0.918472 0.338098 0.20518 
0.911154 0.138059 -0.38825 -0.926293 0.319175 0.20027 0.923084 0.0972287 -0.372107 
-0.987124 0.126709 0.0976226 0.926074 0.0871442 -0.367143 -0.995205 -0.0926153 0.0314562 
0.940407 -0.0975654 -0.325753 -0.938466 -0.328793 -0.105719 -0.936321 -0.33456 -0.106645 
-0.936942 -0.330676 -0.113102 0.881728 -0.384872 -0.272819 0.725564 -0.667922 -0.165642 
-0.752163 -0.639765 -0.157962 -0.6363 -0.753422 -0.165764 -0.61703 -0.65502 -0.436145 
0.667845 -0.731292 -0.138544 0.315251 -0.947322 -0.0565477 0.0457939 -0.998753 0.019871 
-0.0725594 -0.995265 0.0646791 -0.111135 -0.992088 0.0584052 -0.0497026 -0.997135 -0.0570151 
0.151866 -0.948688 -0.277358 0.174016 -0.883622 -0.434662 0.0478281 -0.882133 -0.468566 
-0.0613602 -0.897194 -0.437353 -0.100166 -0.920164 -0.378504 -0.116255 -0.941566 -0.316129 
-0.250542 -0.937385 -0.241945 -0.194471 -0.823406 -0.533089 -0.409308 -0.895985 -0.172275 
-0.383795 -0.906296 -0.177001 -0.373914 -0.898626 -0.229478 0.397087 0.81095 -0.429746 
0.225647 0.890946 -0.39408 0.0140064 0.933348 -0.358699 -0.141549 0.922578 -0.358906 
-0.181186 0.922426 -0.341031 -0.0583666 0.960554 -0.271898 0.0272805 0.976732 -0.212722 
-0.00217434 0.969777 -0.243984 -0.0527543 0.960466 -0.273353 -0.140654 0.958873 -0.246533 
-0.299888 0.94499 -0.130622 0.510416 0.731319 -0.45238 0.624715 0.615075 -0.481055 
0.3929 0.727109 -0.562976 0.214633 0.628482 -0.747625 -0.0853237 0.595919 -0.798499 
-0.0622513 0.722018 -0.689068 0.0381437 0.847321 -0.529709 -0.0610606 0.796377 -0.60171 
-0.0901195 0.827287 -0.554504 -0.108686 0.879273 -0.463753 -0.344561 0.92877 -0.136613 
-0.296543 0.914019 -0.276824 -0.499186 0.858444 -0.117846 0.737793 0.437971 -0.513656 
0.620719 0.450804 -0.64147 -0.680102 0.721812 -0.128256 -0.726427 0.672036 -0.143776 
0.826306 0.203485 -0.525179 0.84503 0.120729 -0.520912 -0.869008 0.45748 -0.188512 
-0.94302 0.211779 -0.256636 0.846727 0.106163 -0.521327 0.844606 0.10589 -0.524813 
-0.944082 0.205627 -0.257735 -0.942491 0.204868 -0.264083 0.834194 0.0775116 -0.545997 
0.820307 0.0718811 -0.567389 -0.938537 0.0387268 -0.342999 -0.920047 0.0257553 -0.39096 
0.827463 0.0864325 -0.554829 0.800349 0.0807061 -0.594078 -0.877491 -0.195682 -0.437857 
-0.863438 -0.238191 -0.44468 -0.850433 -0.198495 -0.487199 0.822568 -0.0472101 -0.566704 
0.754348 -0.0480877 -0.654711 -0.765828 -0.415018 -0.49119 -0.598049 -0.613344 -0.515894 
-0.539129 -0.407672 -0.736983 0.801225 -0.311845 -0.510678 0.781575 -0.366905 -0.504501 
0.787201 -0.314628 -0.5304 -0.189812 -0.805533 -0.561327 -0.185627 -0.550555 -0.813899 
-0.560266 -0.640975 -0.524645 -0.356102 -0.759203 -0.544796 -0.331077 -0.564767 -0.755928 
0.563156 -0.69391 -0.448714 0.426653 -0.81586 -0.390307 0.473828 -0.667755 -0.5741 
0.130084 -0.951337 -0.279349 -0.00510238 -0.991234 -0.132023 -0.0989061 -0.98676 -0.12854 
-0.202836 -0.967421 -0.151508 -0.131953 -0.93464 -0.330207 -0.203741 -0.888313 -0.41157 
-0.0229757 -0.825881 -0.563376 -0.0575975 -0.81485 -0.576803 0.022583 -0.770807 -0.636669 
0.0131192 -0.74927 -0.662135 0.0227635 -0.780223 -0.625088 0.0289256 -0.749585 -0.661276 
-0.0289862 -0.820237 -0.571289 -0.0158157 -0.77569 -0.630916 -0.162931 -0.819264 -0.549781 
-0.104473 -0.838435 -0.534895 -0.102737 -0.81599 -0.568863 0.0354003 0.589382 -0.807078 
0.0381268 0.835458 -0.54823 0.355661 0.519255 -0.777097 0.125096 0.586127 -0.800503 
0.195343 0.577915 -0.792373 -0.0795505 0.593039 -0.801234 0.033877 0.551695 -0.833358 
-0.084434 0.5923 -0.801281 -0.0223024 0.622415 -0.78237 0.0421612 0.828409 -0.558535 
0.0709071 0.779547 -0.622317 -0.0376238 0.803281 -0.594411 0.036733 0.827371 -0.560454 
-0.0622701 0.789449 -0.610649 -0.0924548 0.751458 -0.653271 -0.0990699 0.749622 -0.65441 
-0.235385 0.710663 -0.662987 -0.427757 0.677433 -0.598422 0.447012 0.433424 -0.782511 
0.600127 0.294405 -0.743756 0.333653 0.419408 -0.844258 0.104837 0.380346 -0.918883 
0.00417231 0.294227 -0.955726 -0.0174333 0.260656 -0.965274 0.0728857 0.332081 -0.940431 
0.168287 0.390322 -0.905168 0.0214971 0.36316 -0.931479 -0.0770271 0.372087 -0.924996 
-0.0374895 0.410519 -0.911081 -0.0302801 0.457221 -0.888838 -0.194386 0.52326 -0.829707 
-0.494088 0.620036 -0.609452 -0.422906 0.597601 -0.681193 -0.630933 0.387134 -0.672347 
0.619312 0.261503 -0.740317 0.598187 0.266845 -0.755623 0.295259 0.237156 -0.925516 
0.0492789 0.191425 -0.980269 -0.0769673 0.179866 -0.980675 -0.0167169 0.162134 -0.986627 
0.143533 0.266949 -0.952962 0.142622 0.167141 -0.975563 -0.00249224 0.116625 -0.993173 
-0.0428305 0.114721 -0.992474 0.0133526 0.127023 -0.99181 -0.0106571 0.161359 -0.986838 
-0.10606 0.172499 -0.979283 -0.364625 0.228024 -0.902803 -0.633348 0.379965 -0.674164 
-0.628206 0.378154 -0.679968 0.702961 0.100733 -0.704059 0.611974 0.0965404 -0.784963 
0.24967 0.0839349 -0.964686 0.052842 0.0662202 -0.996405 -0.0264804 0.0835893 -0.996148 
0.0833966 0.183881 -0.979404 -0.0719659 0.0272868 -0.997034 0.0193686 -0.049272 -0.998598 
0.0435265 -0.0345713 -0.998454 -0.135212 -0.00518697 -0.990803 -0.300144 -0.0262186 -0.953534 
-0.703477 0.124478 -0.699732 -0.542308 0.0908821 -0.83525 0.684263 0.0201586 -0.728957 
0.586557 -0.00391316 -0.809898 0.252786 -0.00912225 -0.967479 0.0493774 -0.0229331 -0.998517 
0.0339265 -0.0359503 -0.998778 0.13873 0.0144209 -0.990225 0.00207156 -0.136337 -0.99066 
-0.183196 -0.132088 -0.974162 -0.0416019 -0.146174 -0.988384 0.0325196 -0.162 -0.986255 
-0.113397 -0.166509 -0.979498 -0.278878 -0.0985376 -0.955258 -0.617099 -0.0965339 -0.780942 
-0.510159 -0.111791 -0.852784 0.649823 0.0181666 -0.759868 0.553994 0.0020409 -0.832518 
0.236317 -0.0215539 -0.971437 0.0270138 0.000682349 -0.999635 0.0111135 -0.0190539 -0.999757 
0.135334 -0.0379469 -0.990073 -0.0740131 -0.0497864 -0.996014 -0.0287432 -0.326171 -0.944874 
-0.145527 -0.28694 -0.94683 -0.0137736 -0.195645 -0.980578 0.0172313 -0.188057 -0.982007 
-0.0685279 -0.233169 -0.970019 -0.253661 -0.23716 -0.937769 -0.513751 -0.239399 -0.823862 
-0.486777 -0.270287 -0.830658 -0.483475 -0.240489 -0.841675 0.599339 -0.054748 -0.798621 
0.507271 -0.0468631 -0.860511 0.246351 -0.081113 -0.96578 0.0484275 -0.0336104 -0.998261 
-0.00419481 -0.0046263 -0.999981 0.105993 -0.0274542 -0.993988 -0.289477 -0.184074 -0.939319 
-0.164011 -0.396306 -0.90335 -0.0241823 -0.304221 -0.952295 0.0413957 -0.259071 -0.964971 
-0.00264692 -0.277683 -0.960669 -0.179774 -0.50768 -0.842581 -0.153044 -0.314753 -0.936754 
-0.366908 -0.368574 -0.854126 -0.316089 -0.402817 -0.858968 -0.313737 -0.368308 -0.875168 
0.575941 -0.276934 -0.769155 0.519378 -0.376122 -0.767319 0.512918 -0.276808 -0.812584 
0.267564 -0.265317 -0.926292 0.103215 -0.24344 -0.964408 0.0134239 -0.222403 -0.974862 
-0.0282556 -0.296764 -0.954533 -0.280995 -0.788865 -0.546566 -0.216695 -0.511543 -0.831485 
-0.260916 -0.650327 -0.713441 -0.297922 -0.57008 -0.765671 -0.0830523 -0.505796 -0.858646 
-0.0854154 -0.501238 -0.861083 0.0148481 -0.470817 -0.882106 0.0140226 -0.463252 -0.886116 
0.0194561 -0.480456 -0.876803 0.0191084 -0.460334 -0.88754 -0.111898 -0.505284 -0.855668 
-0.0597051 -0.4997 -0.864138 -0.0553546 -0.474461 -0.878534 0.340754 -0.647084 -0.682033 
0.307984 -0.675942 -0.669513 0.312156 -0.649143 -0.693666 0.0838567 -0.836391 -0.541681 
0.0853627 -0.663795 -0.743027 -0.126614 -0.812874 -0.568511 -0.101214 -0.695613 -0.711251 
-0.236468 -0.826234 -0.511293 -0.228483 -0.831228 -0.506809 -0.220512 -0.811227 -0.541559 
0.100152 0.238821 -0.965885 0.0141216 -0.0154049 -0.999782 -0.0169648 0.100778 -0.994764 
0.094747 0.227247 -0.969217 0.0934261 0.233775 -0.967792 0.00447165 -0.0333518 -0.999434 
0.00450913 -0.0285296 -0.999583 -0.0493933 0.0615412 -0.996882 -0.0336323 0.0836959 -0.995924 
0.101337 0.0123589 -0.994775 -0.0348892 -0.0604496 -0.997561 -0.0682306 0.0044236 -0.99766 
0.0308662 -0.0985166 -0.994657 -0.122511 -0.114931 -0.98579 0.00625619 -0.223219 -0.974748 
0.0586021 -0.0623681 -0.996331 -0.0138332 -0.0444708 -0.998915 -0.0576663 -0.0447136 -0.997334 
-0.0567712 -0.0452041 -0.997363 -0.0189275 -0.111854 -0.993544 -0.0984125 -0.144443 -0.984607 
-0.083012 -0.190173 -0.978235 -0.066282 -0.142242 -0.98761 
