# vtk DataFile Version 4.2
vtk output
ASCII
DATASET POLYDATA
POINTS 564 float
-22.095 -39.6287 -14.0549 -14.4971 -39.6287 -15.5804 -6.89917 -39.6287 -15.8525 
0.698745 -39.6287 -15.3563 8.29666 -39.6287 -13.6965 15.8946 -39.6287 -14.0124 
-29.6929 -32.0308 -15.1952 -22.095 -32.0308 -16.992 -14.4971 -32.0308 -18.1876 
-6.89917 -32.0308 -18.4886 0.698745 -32.0308 -16.9503 8.29666 -32.0308 -15.6855 
15.8946 -32.0308 -15.5775 23.4925 -32.0308 -15.1454 -44.8888 -24.4328 -13.4301 
-37.2908 -24.4328 -16.4023 -29.6929 -24.4328 -17.3071 -22.095 -24.4328 -18.3179 
-14.4971 -24.4328 -18.8585 -6.89917 -24.4328 -18.0645 0.698745 -24.4328 -16.5715 
8.29666 -24.4328 -15.575 15.8946 -24.4328 -16.6532 23.4925 -24.4328 -16.0986 
31.0904 -24.4328 -14.8246 -44.8888 -16.8349 -16.5184 -37.2908 -16.8349 -18.2995 
-29.6929 -16.8349 -19.072 -22.095 -16.8349 -18.4061 -14.4971 -16.8349 -18.3508 
-6.89917 -16.8349 -18.1271 0.698745 -16.8349 -15.4446 8.29666 -16.8349 -14.4743 
15.8946 -16.8349 -15.7775 23.4925 -16.8349 -16.0805 31.0904 -16.8349 -15.4126 
-52.4867 -9.237 -15.0307 -44.8888 -9.237 -18.7787 -37.2908 -9.237 -19.196 
-29.6929 -9.237 -18.8559 -22.095 -9.237 -17.9017 -14.4971 -9.237 -17.3237 
-6.89917 -9.237 -18.9854 0.698745 -9.237 -17.1273 8.29666 -9.237 -13.8437 
15.8946 -9.237 -14.7896 23.4925 -9.237 -15.6003 31.0904 -9.237 -15.5876 
38.6883 -9.237 -14.4012 -52.4867 -1.63908 -15.8492 -44.8888 -1.63908 -19.255 
-37.2908 -1.63908 -19.5899 -29.6929 -1.63908 -18.9888 -22.095 -1.63908 -17.8032 
-14.4971 -1.63908 -17.355 -6.89917 -1.63908 -19.7606 0.698745 -1.63908 -15.1379 
8.29666 -1.63908 -18.1115 15.8946 -1.63908 -14.382 23.4925 -1.63908 -15.1369 
31.0904 -1.63908 -15.5724 38.6883 -1.63908 -15.084 -52.4867 5.95884 -14.794 
-44.8888 5.95884 -18.4353 -37.2908 5.95884 -19.2136 -29.6929 5.95884 -18.8645 
-22.095 5.95884 -17.8626 -14.4971 5.95884 -17.3762 -6.89917 5.95884 -20.3817 
0.698745 5.95884 -17.1935 8.29666 5.95884 -16.6367 15.8946 5.95884 -14.0327 
23.4925 5.95884 -14.7791 31.0904 5.95884 -15.3396 38.6883 5.95884 -15.0867 
46.2863 5.95884 -14.0242 -44.8888 13.5568 -16.5345 -37.2908 13.5568 -18.2169 
-29.6929 13.5568 -18.7415 -22.095 13.5568 -18.2159 -14.4971 13.5568 -17.6919 
-6.89917 13.5568 -17.1648 0.698745 13.5568 -16.3565 8.29666 13.5568 -15.1317 
15.8946 13.5568 -14.1736 23.4925 13.5568 -14.7549 31.0904 13.5568 -14.8361 
38.6883 13.5568 -14.316 -44.8888 21.1547 -14.3168 -37.2908 21.1547 -17.3251 
-29.6929 21.1547 -18.7845 -22.095 21.1547 -18.5442 -14.4971 21.1547 -17.9639 
-6.89917 21.1547 -16.657 0.698745 21.1547 -15.4333 8.29666 21.1547 -15.2553 
15.8946 21.1547 -14.821 23.4925 21.1547 -14.0522 31.0904 21.1547 -13.9262 
38.6883 21.1547 -13.8324 -37.2908 28.7526 -14.4401 -29.6929 28.7526 -16.4709 
-22.095 28.7526 -17.4288 -14.4971 28.7526 -17.057 -6.89917 28.7526 -15.2649 
0.698745 28.7526 -13.7295 8.29666 28.7526 -13.6528 15.8946 28.7526 -13.488 
-22.095 -40.4552 -13.2531 -14.4971 -42.288 -13.2531 -6.89917 -43.3935 -13.2531 
0.698745 -42.5653 -13.2531 0.698745 -47.2266 -6.71742 8.29666 -40.3169 -13.2531 
15.8946 -40.7049 -13.2531 -23.5488 -39.6287 -13.2531 -29.6929 -34.6537 -13.2531 
18.8735 -39.6287 -13.2531 23.4925 -36.4287 -13.2531 23.4925 -39.6287 -11.2011 
-44.8888 -24.707 -13.2531 -34.4241 -32.0308 -13.2531 -37.2908 -30.0685 -13.2531 
-37.2908 -32.0308 -11.1609 29.8953 -32.0308 -13.2531 31.0904 -30.649 -13.2531 
31.0904 -32.0308 -12.7337 -45.2649 -24.4328 -13.2531 34.5207 -24.4328 -13.2531 
38.6883 -24.4328 -10.5811 -50.9446 -16.8349 -13.2531 -52.4867 -14.4949 -13.2531 
-52.4867 -16.8349 -11.8569 38.5841 -16.8349 -13.2531 38.6883 -16.6407 -13.2531 
38.6883 -16.8349 -13.2194 46.2863 -16.8349 -8.26145 -54.999 -9.237 -13.2531 
42.1113 -9.237 -13.2531 46.2863 -9.237 -11.7141 53.8842 -9.237 -6.94774 
-56.6679 -1.63908 -13.2531 -60.0846 -1.63908 -7.27911 46.1544 -1.63908 -13.2531 
46.2863 -1.30897 -13.2531 46.2863 -1.63908 -13.2183 53.8842 -1.63908 -9.38779 
-54.7582 5.95884 -13.2531 -52.4867 11.1053 -13.2531 47.9449 5.95884 -13.2531 
46.2863 10.6513 -13.2531 53.8842 5.95884 -10.3386 -51.051 13.5568 -13.2531 
-52.4867 13.5568 -12.1615 44.0545 13.5568 -13.2531 46.2863 13.5568 -12.7757 
53.8842 13.5568 -9.35616 -46.5607 21.1547 -13.2531 -52.4867 21.1547 -7.18169 
-44.8888 23.0172 -13.2531 23.4925 25.4337 -13.2531 31.0904 24.7943 -13.2531 
40.3716 21.1547 -13.2531 38.6883 22.5367 -13.2531 46.2863 21.1547 -10.8627 
53.8842 21.1547 -7.41543 -39.2658 28.7526 -13.2531 -44.8888 28.7526 -8.25582 
-37.2908 30.3513 -13.2531 -29.6929 34.1025 -13.2531 -22.095 35.775 -13.2531 
-14.4971 35.0168 -13.2531 -6.89917 31.902 -13.2531 0.698745 29.5545 -13.2531 
8.29666 29.5685 -13.2531 18.0156 28.7526 -13.2531 15.8946 29.3542 -13.2531 
23.4925 28.7526 -12.6469 31.0904 28.7526 -12.3781 38.6883 28.7526 -10.1548 
46.2863 28.7526 -6.64204 -29.6929 36.3505 -10.765 -22.095 36.3505 -12.6517 
-14.4971 36.3505 -11.7254 -6.89917 36.3505 -8.94207 0.698745 36.3505 -7.60374 
8.29666 36.3505 -8.72248 15.8946 36.3505 -9.49923 23.4925 36.3505 -8.7948 
31.0904 36.3505 -6.84064 0.698745 -47.6785 -5.65521 -22.095 -43.2142 -5.65521 
-14.4971 -45.7765 -5.65521 -5.62541 -47.2266 -5.65521 -6.89917 -47.1315 -5.65521 
7.71108 -47.2266 -5.65521 0.698745 -47.2266 -4.33389 8.29666 -47.1878 -5.65521 
15.8946 -46.111 -5.65521 23.4925 -43.6161 -5.65521 -37.2908 -34.9799 -5.65521 
-29.2154 -39.6287 -5.65521 -29.6929 -39.3732 -5.65521 -22.095 -39.6287 0.421969 
29.312 -39.6287 -5.65521 31.0904 -38.1765 -5.65521 -41.8649 -32.0308 -5.65521 
-44.8888 -29.9221 -5.65521 -37.2908 -32.0308 1.53978 36.8127 -32.0308 -5.65521 
38.6883 -29.6971 -5.65521 -50.8664 -24.4328 -5.65521 -52.4867 -22.4452 -5.65521 
42.9612 -24.4328 -5.65521 46.2863 -20.0732 -5.65521 -56.2719 -16.8349 -5.65521 
49.3259 -16.8349 -5.65521 53.8842 -11.1984 -5.65521 53.8842 -16.8349 1.31731 
-59.2148 -9.237 -5.65521 -60.0846 -4.68654 -5.65521 55.0922 -9.237 -5.65521 
-60.6506 -1.63908 -5.65521 -60.0846 4.18796 -5.65521 -60.0846 -1.63908 -1.06413 
57.7161 -1.63908 -5.65521 61.4821 -1.63908 1.16506 -59.8935 5.95884 -5.65521 
59.6064 5.95884 -5.65521 61.4821 5.95884 -2.20533 -57.3557 13.5568 -5.65521 
57.7155 13.5568 -5.65521 -53.5372 21.1547 -5.65521 -52.4867 22.5785 -5.65521 
55.7838 21.1547 -5.65521 53.8842 23.5807 -5.65521 -47.1159 28.7526 -5.65521 
-44.8888 30.8104 -5.65521 -37.2908 36.3146 -5.65521 38.6883 35.4263 -5.65521 
47.5175 28.7526 -5.65521 46.2863 29.7317 -5.65521 -37.213 36.3505 -5.65521 
-37.2908 36.3505 -5.47604 -29.6929 39.2323 -5.65521 -22.095 40.2241 -5.65521 
-14.4971 39.7906 -5.65521 -6.89917 38.4701 -5.65521 0.698745 37.7512 -5.65521 
8.29666 38.879 -5.65521 15.8946 39.8882 -5.65521 23.4925 39.5629 -5.65521 
35.7563 36.3505 -5.65521 31.0904 37.5356 -5.65521 38.6883 36.3505 -2.5472 
-14.4971 -42.3393 1.94271 -6.89917 -43.6785 1.94271 0.698745 -44.6094 1.94271 
8.29666 -45.3537 1.94271 15.8946 -45.1628 1.94271 23.4925 -42.9375 1.94271 
-29.6929 -35.3105 1.94271 -19.6881 -39.6287 1.94271 -22.095 -38.4254 1.94271 
-14.4971 -39.6287 4.18001 -6.89917 -39.6287 6.20024 0.698745 -39.6287 7.75029 
28.7531 -39.6287 1.94271 23.4925 -39.6287 8.29026 31.0904 -37.9104 1.94271 
-44.8888 -27.2806 1.94271 -36.9076 -32.0308 1.94271 -37.2908 -31.8521 1.94271 
-29.6929 -32.0308 5.34126 -22.095 -32.0308 7.33533 -14.4971 -32.0308 9.05705 
37.4736 -32.0308 1.94271 38.6883 -30.8406 1.94271 -48.0319 -24.4328 1.94271 
-52.4867 -19.417 1.94271 -44.8888 -24.4328 4.80647 -37.2908 -24.4328 9.02426 
45.9137 -24.4328 1.94271 46.2863 -24.0891 1.94271 53.8842 -17.1382 1.94271 
-54.2509 -16.8349 1.94271 -52.4867 -16.8349 4.16222 54.1674 -16.8349 1.94271 
53.8842 -16.8349 5.92567 -57.9895 -9.237 1.94271 58.5753 -9.237 1.94271 
61.4821 -2.42537 1.94271 -59.6916 -1.63908 1.94271 61.7766 -1.63908 1.94271 
61.4821 -1.63908 4.30429 -59.592 5.95884 1.94271 63.0688 5.95884 1.94271 
61.4821 13.4222 1.94271 -58.3846 13.5568 1.94271 61.4528 13.5568 1.94271 
-54.8781 21.1547 1.94271 -52.4867 24.5134 1.94271 -52.4867 21.1547 8.17566 
58.3607 21.1547 1.94271 53.8842 26.8608 1.94271 -48.967 28.7526 1.94271 
-44.8888 32.5228 1.94271 52.0256 28.7526 1.94271 46.2863 33.0937 1.94271 
-39.2562 36.3505 1.94271 -37.2908 37.5416 1.94271 -37.2908 36.3505 6.2788 
-29.6929 40.2003 1.94271 -22.095 41.2233 1.94271 -14.4971 40.9334 1.94271 
-6.89917 40.5134 1.94271 0.698745 40.2994 1.94271 8.29666 41.3163 1.94271 
15.8946 42.1247 1.94271 23.4925 41.8777 1.94271 31.0904 40.2141 1.94271 
31.0904 36.3505 8.86759 40.4613 36.3505 1.94271 38.6883 37.2503 1.94271 
38.6883 36.3505 4.13405 8.29666 -39.6971 9.54062 15.8946 -40.1588 9.54062 
-6.89917 -34.4417 9.54062 7.99848 -39.6287 9.54062 0.698745 -37.4079 9.54062 
8.29666 -39.6287 9.6072 19.0899 -39.6287 9.54062 15.8946 -39.6287 10.0881 
23.4925 -38.7706 9.54062 31.0904 -34.0129 9.54062 -29.6929 -26.3386 9.54062 
-22.095 -28.3236 9.54062 -12.5904 -32.0308 9.54062 -14.4971 -31.0989 9.54062 
-6.89917 -32.0308 10.9508 0.698745 -32.0308 13.202 8.29666 -32.0308 14.8712 
15.8946 -32.0308 15.3803 23.4925 -32.0308 14.9541 33.7976 -32.0308 9.54062 
31.0904 -32.0308 11.5409 38.6883 -28.5605 9.54062 -44.8888 -17.5198 9.54062 
-35.1638 -24.4328 9.54062 -37.2908 -23.5206 9.54062 -29.6929 -24.4328 10.7202 
-22.095 -24.4328 11.6162 -14.4971 -24.4328 12.7612 -6.89917 -24.4328 14.4572 
0.698745 -24.4328 16.0852 8.29666 -24.4328 17.1177 31.0904 -24.4328 16.9755 
44.3935 -24.4328 9.54062 38.6883 -24.4328 14.057 46.2863 -23.0337 9.54062 
-45.5329 -16.8349 9.54062 -52.4867 -9.25954 9.54062 -44.8888 -16.8349 9.92472 
-37.2908 -16.8349 12.8243 -29.6929 -16.8349 14.3179 -22.095 -16.8349 14.6955 
-14.4971 -16.8349 15.0777 -6.89917 -16.8349 16.157 0.698745 -16.8349 17.0291 
8.29666 -16.8349 16.9421 53.5076 -16.8349 9.54062 46.2863 -16.8349 15.9667 
53.8842 -16.3751 9.54062 -52.4995 -9.237 9.54062 -52.4867 -9.237 9.552 
-44.8888 -9.237 12.9906 -37.2908 -9.237 15.2917 -29.6929 -9.237 15.9981 
-22.095 -9.237 15.896 -14.4971 -9.237 15.5979 -6.89917 -9.237 16.052 
8.29666 -9.237 17.1346 58.0806 -9.237 9.54062 53.8842 -9.237 15.4334 
[...]
POINT_DATA 564
SCALARS ImageScalars float
LOOKUP_TABLE default
0 0 0 0 0 0 0 0 0 
0 0 0 0 0 0 0 0 0 
0 0 0 0 0 0 0 0 0 
0 0 0 0 0 0 0 0 0 
0 0 0 0 0 0 0 0 0 
0 0 0 0 0 0 0 0 0 
0 0 0 0 0 0 0 0 0 
0 0 0 0 0 0 0 0 0 
0 0 0 0 0 0 0 0 0 
0 0 0 0 0 0 0 0 0 
0 0 0 0 0 0 0 0 0 
0 0 0 0 0 0 0 0 0 
0 0 0 0 0 0 0 0 0 
0 0 0 0 0 0 0 0 0 
0 0 0 0 0 0 0 0 0 
0 0 0 0 0 0 0 0 0 
0 0 0 0 0 0 0 0 0 
0 0 0 0 0 0 0 0 0 
0 0 0 0 0 0 0 0 0 
0 0 0 0 0 0 0 0 0 
0 0 0 0 0 0 0 0 0 
0 0 0 0 0 0 0 0 0 
0 0 0 0 0 0 0 0 0 
0 0 0 0 0 0 0 0 0 
0 0 0 0 0 0 0 0 0 
0 0 0 0 0 0 0 0 0 
0 0 0 0 0 0 0 0 0 
0 0 0 0 0 0 0 0 0 
0 0 0 0 0 0 0 0 0 
0 0 0 0 0 0 0 0 0 
0 0 0 0 0 0 0 0 0 
0 0 0 0 0 0 0 0 0 
0 0 0 0 0 0 0 0 0 
0 0 0 0 0 0 0 0 0 
0 0 0 0 0 0 0 0 0 
0 0 0 0 0 0 0 0 0 
0 0 0 0 0 0 0 0 0 
0 0 0 0 0 0 0 0 0 
0 0 0 0 0 0 0 0 0 
0 0 0 0 0 0 0 0 0 
0 0 0 0 0 0 0 0 0 
0 0 0 0 0 0 0 0 0 
0 0 0 0 0 0 0 0 0 
0 0 0 0 0 0 0 0 0 
0 0 0 0 0 0 0 0 0 
0 0 0 0 0 0 0 0 0 
0 0 0 0 0 0 0 0 0 
0 0 0 0 0 0 0 0 0 
0 0 0 0 0 0 0 0 0 
0 0 0 0 0 0 0 0 0 
0 0 0 0 0 0 0 0 0 
0 0 0 0 0 0 0 0 0 
0 0 0 0 0 0 0 0 0 
0 0 0 0 0 0 0 0 0 
0 0 0 0 0 0 0 0 0 
0 0 0 0 0 0 0 0 0 
0 0 0 0 0 0 0 0 0 
0 0 0 0 0 0 0 0 0 
0 0 0 0 0 0 0 0 0 
0 0 0 0 0 0 0 0 0 
0 0 0 0 0 0 0 0 0 
0 0 0 0 0 0 0 0 0 
0 0 0 0 0 0 
NORMALS Normals float
0.338297 0.651076 0.679452 0.117635 0.557173 0.822022 -0.0134892 0.473501 0.88069 
-0.131113 0.410477 0.902396 -0.0708102 0.410706 0.909014 -0.109923 0.455891 0.883222 
0.326874 0.473006 0.81818 0.169675 0.264545 0.949329 0.104197 0.185531 0.977098 
-0.0777346 0.14233 0.986762 -0.183232 0.0656547 0.980875 -0.0871534 0.104685 0.990679 
-0.032108 0.176058 0.983856 -0.172332 0.267916 0.947904 0.402104 0.496043 0.76958 
0.244406 0.398871 0.883837 0.122634 0.223449 0.96697 0.0957812 0.0920034 0.991141 
-0.0134798 0.0076942 0.99988 -0.142321 -0.0220428 0.989575 -0.167087 -0.0926514 0.981579 
0.00980652 -0.080764 0.996685 0.0361297 0.0128246 0.999265 -0.112016 0.054768 0.992196 
-0.303195 0.163045 0.938876 0.326633 0.317654 0.890172 0.145224 0.156686 0.976913 
0.0133795 0.0997972 0.994918 -0.0461081 -0.0268712 0.998575 -0.0179692 -0.100176 0.994807 
-0.173491 0.0593646 0.983045 -0.250305 0.0268269 0.967795 0.0282192 -0.101579 0.994427 
0.108967 -0.123779 0.986309 -0.022322 -0.0334059 0.999193 -0.178721 0.0466388 0.982794 
0.534188 0.179923 0.825997 0.267368 0.166784 0.949051 0.00149638 0.0932961 0.995637 
-0.0842531 -0.00502844 0.996432 -0.100409 -0.0394788 0.994163 0.0689708 -0.0663065 0.995413 
0.00602705 0.101093 0.994859 -0.309167 -0.0157825 0.950877 -0.139307 0.216796 0.966226 
0.101945 -0.0912902 0.990592 0.052197 -0.0618425 0.99672 -0.0747847 0.00994882 0.99715 
-0.235113 0.117204 0.964876 0.482332 -0.0148846 0.875862 0.23438 -0.0203892 0.971931 
-0.0201416 0.000961207 0.999797 -0.116044 0.000652985 0.993244 -0.106209 -0.00260816 0.99434 
0.11678 0.00374539 0.993151 -0.139577 0.0965885 0.985489 -0.111877 0.0168157 0.99358 
-0.0563181 0.151825 0.986802 -0.160788 -0.0507487 0.985683 0.0725283 -0.0538369 0.995912 
-0.00263683 -0.0163091 0.999864 -0.145402 0.0434741 0.988417 0.519725 -0.186173 0.833802 
0.287075 -0.168197 0.943026 0.0230329 -0.0894134 0.995728 -0.0885848 -0.0162974 0.995935 
-0.0958583 0.0270395 0.995028 0.141967 0.0235931 0.98959 -0.00406806 -0.189055 0.981958 
-0.218171 0.0674576 0.973576 -0.21748 -0.198946 0.955575 -0.0879236 -0.0116887 0.996059 
0.0817932 -0.0250629 0.996334 0.0204319 -0.0483623 0.998621 -0.080368 -0.0496038 0.99553 
-0.292208 -0.0272048 0.955968 0.318523 -0.250645 0.914177 0.132168 -0.115633 0.98446 
-0.00091515 -0.00531437 0.999985 -0.0705282 0.0455685 0.996468 -0.0680371 0.0377782 0.996967 
-0.0894687 -0.213444 0.97285 -0.131123 -0.112253 0.98499 -0.147403 -0.0711459 0.986514 
-0.0232411 0.0559895 0.998161 0.0436617 -0.0475935 0.997912 -0.0277886 -0.0902266 0.995534 
-0.127541 -0.0861222 0.988087 0.453486 -0.377163 0.807527 0.270103 -0.222883 0.936679 
0.0703447 -0.144375 0.98702 -0.0533165 -0.0468934 0.997476 -0.118083 -0.0339176 0.992424 
-0.167587 -0.11454 0.979181 -0.0861506 -0.156654 0.983889 -0.042623 -0.092661 0.994785 
-0.0759293 -0.0450371 0.996096 -0.06002 -0.13054 0.989625 -0.0154166 -0.156292 0.98759 
-0.183096 -0.245692 0.951899 0.384245 -0.488288 0.783537 0.172557 -0.386808 0.905872 
0.0390481 -0.310865 0.949652 -0.131888 -0.308239 0.942122 -0.200547 -0.362361 0.910206 
-0.0964467 -0.384448 0.918095 -0.015966 -0.342833 0.939261 -0.0644354 -0.287411 0.955637 
0.342935 0.703406 0.622588 0.175694 0.703698 0.688434 0.0189923 0.682409 0.730724 
-0.130993 0.559059 0.818715 -0.00826163 0.991805 0.127495 -0.071867 0.450215 0.890023 
-0.109889 0.521369 0.846226 0.365252 0.682254 0.633341 0.399624 0.576007 0.713103 
-0.206265 0.486437 0.849019 -0.286836 0.40741 0.867031 -0.409746 0.606609 0.681274 
0.408846 0.507497 0.75848 0.38054 0.580639 0.719755 0.361629 0.582175 0.728215 
0.454179 0.719245 0.525746 -0.413281 0.382721 0.826271 -0.43171 0.360062 0.827032 
-0.475793 0.419254 0.773206 0.416837 0.503132 0.757037 -0.41722 0.245772 0.874942 
-0.609808 0.416347 0.67438 0.583839 0.349589 0.732748 0.606329 0.314681 0.730302 
0.695603 0.403599 0.594344 -0.371877 0.187236 0.909203 -0.371071 0.187243 0.909531 
-0.37517 0.18974 0.907329 -0.600752 0.470888 0.646035 0.645753 0.221956 0.730574 
-0.309784 0.172224 0.935079 -0.413822 0.257912 0.873059 -0.680728 0.36165 0.637038 
0.680761 -0.00783212 0.732464 0.974144 0.0358966 0.223058 -0.303411 0.136956 0.942966 
-0.305875 0.131517 0.942944 -0.306627 0.138609 0.941683 -0.602873 0.180094 0.777245 
0.612545 -0.217246 0.759996 0.575708 -0.300431 0.760461 -0.341884 -0.0218658 0.939488 
-0.275182 -0.135857 0.951744 -0.53732 -0.00153128 0.843377 0.553797 -0.326329 0.766041 
0.632683 -0.354805 0.68835 -0.222157 -0.165019 0.960945 -0.266621 -0.199504 0.942927 
-0.576288 -0.167005 0.800001 0.50567 -0.403023 0.762805 0.743616 -0.509653 0.43277 
0.487624 -0.431519 0.758956 -0.0631063 -0.214511 0.974681 -0.0775454 -0.259871 0.962525 
-0.222693 -0.247212 0.943024 -0.191585 -0.27983 0.940739 -0.363365 -0.283961 0.887317 
-0.635394 -0.411056 0.653688 0.44257 -0.51591 0.733464 0.60125 -0.631583 0.48949 
0.405421 -0.546726 0.732615 0.230994 -0.622427 0.747814 0.038078 -0.706231 0.706957 
-0.159811 -0.667009 0.727708 -0.202642 -0.5267 0.825544 -0.0895668 -0.422174 0.902079 
-0.00529614 -0.374865 0.927064 -0.063466 -0.286731 0.955907 -0.0617048 -0.309478 0.948902 
-0.0658574 -0.292301 0.954056 -0.15458 -0.383266 0.910611 -0.267118 -0.461774 0.845821 
-0.50665 -0.623506 0.595438 0.251972 -0.78359 0.567888 0.0373925 -0.750427 0.659895 
-0.154737 -0.766211 0.62368 -0.14812 -0.814145 0.561453 0.000549475 -0.815126 0.579283 
0.0914265 -0.727776 0.679694 -0.00120937 -0.656659 0.754187 -0.146465 -0.665206 0.732153 
-0.206545 -0.717813 0.664893 0.00430213 0.999229 0.0390159 0.385745 0.920544 -0.0616384 
0.248735 0.968519 0.0100507 0.0996805 0.994954 -0.0114255 0.119966 0.992548 -0.0213642 
-0.0910522 0.986295 0.13759 0.0187019 0.998665 -0.0481543 -0.0993002 0.984194 0.146636 
-0.214185 0.953701 0.211138 -0.43773 0.876863 0.198755 0.522732 0.849454 0.071971 
0.475725 0.878808 -0.0371683 0.48144 0.875986 -0.0293931 0.369013 0.751464 -0.546929 
-0.604566 0.762954 0.228914 -0.651205 0.722298 0.232847 0.573316 0.817205 0.059032 
0.618784 0.781645 0.0783428 0.419774 0.753087 -0.506607 -0.736038 0.615296 0.282238 
-0.740388 0.592927 0.316644 0.736768 0.675019 0.0390173 0.781771 0.621534 0.0503045 
-0.714338 0.566432 0.410945 -0.666012 0.555084 0.498307 0.874487 0.476049 0.0930023 
-0.645848 0.536455 0.543228 -0.70124 0.419082 0.576743 -0.734015 0.650455 0.195271 
0.960946 0.255965 0.105186 0.98614 0.129102 0.104213 -0.722567 0.375563 0.580387 
0.991919 0.0445068 0.118807 0.975171 -0.135928 0.174829 0.982985 0.0822628 -0.164234 
-0.743992 0.233282 0.626143 -0.946935 0.271624 0.171858 0.961551 -0.191513 0.196831 
-0.79206 0.000648693 0.610443 -0.929049 -0.00942947 0.369837 0.867562 -0.376146 0.325347 
-0.742458 -0.196217 0.640511 0.777912 -0.516509 0.357871 0.757436 -0.544663 0.360045 
-0.713688 -0.41188 0.566573 -0.658405 -0.496078 0.566047 0.654074 -0.658294 0.372608 
0.609745 -0.702276 0.36745 0.447771 -0.830287 0.331851 -0.3517 -0.794921 0.494376 
-0.541528 -0.645209 0.538937 -0.526803 -0.658388 0.537592 0.44538 -0.831765 0.331368 
0.448256 -0.833624 0.322703 0.238115 -0.925743 0.293769 0.0361143 -0.954044 0.297483 
-0.11854 -0.936152 0.33101 -0.11701 -0.899855 0.420201 0.0212577 -0.870224 0.492198 
0.129094 -0.843299 0.52171 0.0445304 -0.838683 0.542796 -0.134245 -0.81543 0.563074 
-0.301138 -0.796425 0.524427 -0.232189 -0.765841 0.599646 -0.396662 -0.890674 0.222167 
0.264519 0.731302 -0.62867 0.112578 0.791847 -0.600253 0.099434 0.833885 -0.542908 
0.0298185 0.906869 -0.420357 -0.146392 0.932064 -0.331401 -0.411705 0.873994 -0.258136 
0.293162 0.7635 -0.575434 0.332593 0.678443 -0.655055 0.330117 0.679483 -0.65523 
0.277712 0.61852 -0.735057 0.178451 0.64661 -0.741654 0.166087 0.67999 -0.714163 
-0.560933 0.800641 -0.210541 -0.315682 0.773635 -0.549393 -0.617289 0.763909 -0.188142 
0.540303 0.692468 -0.478079 0.403016 0.739431 -0.539277 0.408684 0.738174 -0.536728 
0.267343 0.656899 -0.70499 0.198429 0.560169 -0.804261 0.197851 0.473158 -0.858473 
-0.693224 0.715275 -0.0884499 -0.697586 0.713939 -0.0605449 0.626298 0.638244 -0.447654 
0.720265 0.555418 -0.415607 0.51129 0.623223 -0.591756 0.282447 0.535706 -0.795765 
-0.676597 0.730577 0.0920522 -0.677282 0.728809 0.100629 -0.734952 0.658374 0.162444 
0.757393 0.501489 -0.418168 0.690039 0.50189 -0.521492 -0.739385 0.652875 0.16451 
-0.742941 0.665293 -0.073647 0.868919 0.31554 -0.381332 -0.868115 0.468922 0.162751 
-0.947789 0.291319 0.129729 0.929967 0.105422 -0.352203 -0.955229 0.267613 0.126175 
-0.964273 0.263606 -0.0262578 0.967398 -0.0779308 -0.240972 -0.992503 -0.0198963 0.120588 
-0.964632 -0.260118 0.0427152 0.946838 -0.2975 -0.122441 -0.963556 -0.264287 0.0413678 
0.85596 -0.509264 -0.0893452 0.81123 -0.580382 -0.071152 0.765994 -0.46071 -0.44833 
-0.851514 -0.523712 -0.0254946 -0.741981 -0.668828 -0.0461868 0.726036 -0.68595 -0.0484068 
0.619016 -0.784077 -0.0451951 -0.687838 -0.725018 -0.0350335 -0.553578 -0.831284 -0.0501865 
0.484122 -0.873471 -0.0517106 0.443229 -0.894829 -0.0531941 0.44011 -0.851703 -0.284439 
0.236648 -0.968828 -0.0732745 0.0444811 -0.997534 -0.0542838 -0.0465853 -0.998724 -0.0194938 
-0.0421149 -0.998308 0.0400915 0.0530245 -0.993975 0.0959317 0.119324 -0.991882 0.0439494 
0.0377684 -0.99898 -0.0247527 -0.130409 -0.988872 -0.0715953 -0.282594 -0.956247 -0.0757096 
-0.233194 -0.764124 -0.601444 -0.44607 -0.890192 -0.0926281 -0.415727 -0.904963 -0.0906226 
-0.41072 -0.881289 -0.233749 0.110613 0.684955 -0.720139 -0.0428284 0.721837 -0.690737 
0.215935 0.509037 -0.833219 0.11369 0.682757 -0.721746 0.196226 0.606973 -0.770117 
0.110886 0.683245 -0.72172 -0.14452 0.735033 -0.66245 -0.0390045 0.706864 -0.706273 
-0.287019 0.731983 -0.617917 -0.475339 0.704404 -0.527132 0.166104 0.503944 -0.847614 
0.155116 0.486971 -0.859534 0.204071 0.46959 -0.858976 0.194039 0.459254 -0.866853 
0.231515 0.461358 -0.856475 0.229273 0.448867 -0.863686 0.124597 0.420297 -0.898791 
0.00618657 0.403994 -0.914741 -0.181172 0.485581 -0.855212 -0.50619 0.714043 -0.483647 
-0.426928 0.665566 -0.612172 -0.545407 0.738056 -0.397247 0.422348 0.432784 -0.796442 
0.238909 0.515724 -0.822771 0.273971 0.509173 -0.815894 0.142525 0.477142 -0.867192 
0.122795 0.42333 -0.897615 0.170336 0.364549 -0.915472 0.204835 0.315542 -0.92654 
0.16341 0.217448 -0.962296 0.0907731 0.118285 -0.988822 -0.185171 0.420543 -0.888175 
-0.57564 0.752276 -0.320498 -0.403908 0.644597 -0.649117 -0.597669 0.742601 -0.302217 
0.436306 0.420644 -0.795422 0.578978 0.321424 -0.749314 0.420042 0.415288 -0.806908 
0.247018 0.358983 -0.900063 0.113497 0.319181 -0.940873 0.0473882 0.260435 -0.964328 
0.094591 0.173932 -0.980204 0.12693 0.0955224 -0.987302 0.0508763 0.0792517 -0.995556 
0.0522713 0.000965314 -0.998632 -0.707904 0.642338 -0.293723 -0.441174 0.506076 -0.741115 
-0.719721 0.629263 -0.293309 0.579362 0.321011 -0.749194 0.578831 0.321018 -0.749601 
0.339752 0.286876 -0.895696 0.184414 0.239831 -0.953138 0.0365476 0.162145 -0.98609 
-0.0260158 0.096694 -0.994974 0.0100485 0.034697 -0.999347 0.112253 0.0837252 -0.990146 
-0.00272229 0.141593 -0.989921 -0.856019 0.415769 -0.307195 -0.62614 0.348844 -0.697321 
0.672276 0.16326 -0.722075 0.58036 0.169813 -0.796458 0.322312 0.180392 -0.929287 
0.12499 0.139497 -0.982302 -0.023435 0.125662 -0.991796 -0.0834065 0.0732312 -0.993821 
0.0807144 0.0462191 -0.995665 0.103817 -0.037265 -0.993898 -0.01912 0.00131605 -0.999816 
-0.897641 0.217433 -0.383357 -0.908074 0.0487906 -0.415957 0.745553 0.0298814 -0.665776 
0.598513 0.0533012 -0.799338 0.3146 0.0843845 -0.945466 -0.109385 0.0896013 -0.989953 
0.176968 0.0941871 -0.9797 -0.0981894 0.0408962 -0.994327 -0.899116 -0.0892602 -0.428513 
-0.880633 -0.143243 -0.451628 -0.875119 -0.0954629 -0.474398 0.793501 -0.209335 -0.571432 
0.738956 -0.399632 -0.542438 0.66151 -0.181086 -0.727745 0.326556 -0.0711349 -0.942497 
0.00966734 0.0915714 -0.995752 -0.184186 -0.225546 -0.956663 -0.772855 -0.336274 -0.538159 
-0.529566 -0.346231 -0.774393 0.722147 -0.434888 -0.537936 0.472071 -0.282886 -0.83494 
-0.0701433 -0.248911 -0.965983 -0.0889788 -0.250685 -0.963971 -0.333118 -0.405261 -0.85135 
-0.627761 -0.50425 -0.593 -0.610764 -0.519268 -0.597769 -0.579844 -0.49065 -0.650418 
0.607838 -0.621535 -0.494194 0.582084 -0.647782 -0.491484 0.566988 -0.602914 -0.561266 
0.414345 -0.766425 -0.490826 0.331085 -0.484437 -0.809755 0.125796 -0.296299 -0.946775 
0.0243792 -0.258384 -0.965735 -0.0524764 -0.220675 -0.973935 -0.0360368 -0.224202 -0.973876 
-0.0480146 -0.233319 -0.971214 -0.0757647 -0.289266 -0.954246 -0.0833253 -0.360056 -0.929202 
-0.220223 -0.719122 -0.659064 -0.102863 -0.402105 -0.909797 -0.317477 -0.691611 -0.648754 
-0.256206 -0.541974 -0.800389 -0.459908 -0.632951 -0.622782 -0.423557 -0.655698 -0.625027 
-0.41796 -0.624232 -0.660033 0.351098 -0.81002 -0.469679 0.240342 -0.847447 -0.473359 
0.225168 -0.775949 -0.589239 0.101676 -0.869871 -0.482686 0.0827012 -0.71628 -0.692895 
-0.00328317 -0.897163 -0.441687 0.0122121 -0.684238 -0.729156 -0.0120215 -0.903938 -0.427494 
-0.0135086 -0.709815 -0.704259 0.0337239 -0.901939 -0.430544 -0.00345598 -0.696211 -0.717828 
-0.000429945 -0.862773 -0.505591 -0.0502376 -0.633718 -0.771931 -0.0941232 -0.780272 -0.618317 
-0.124314 -0.628995 -0.767406 -0.215367 -0.720479 -0.659187 -0.188132 -0.708518 -0.680153 
-0.177293 -0.642274 -0.745689 0.0462119 0.193356 -0.98004 -0.069773 0.31702 -0.945849 
0.0887313 0.119903 -0.988812 0.0549819 0.150076 -0.987144 -0.161053 0.394666 -0.9046 
-0.0313394 0.253451 -0.96684 -0.173867 0.40677 -0.896832 -0.260767 0.432015 -0.863345 
0.0582666 0.0483063 -0.997132 0.0710439 -0.00175185 -0.997472 0.137076 -0.0123686 -0.990483 
0.118699 0.0581354 -0.991227 -0.0183147 0.194277 -0.980776 -0.339257 0.423024 -0.840212 
-0.193956 0.319897 -0.927387 -0.375082 0.406603 -0.833059 0.0815966 0.000768498 -0.996665 
0.0914487 0.219729 -0.971265 -0.00142739 0.138971 -0.990295 0.0856937 -0.0252143 -0.996002 
0.0759522 -0.0153924 -0.996993 -0.000121029 0.137252 -0.990536 -0.00271972 0.141534 -0.98993 
0.0693288 -0.0428272 -0.996674 0.117811 -0.0662297 -0.990825 0.1874 -0.0260885 -0.981937 
0.0935093 0.0274972 -0.995239 -0.0420785 0.116005 -0.992357 -0.475694 0.299837 -0.82693 
-0.287172 0.210303 -0.934508 -0.537895 0.162823 -0.827138 0.124593 0.111124 -0.985965 
-0.0261569 0.119033 -0.992546 0.0837993 0.224755 -0.970805 0.0952076 0.11698 -0.98856 
0.0830093 0.270904 -0.95902 0.0888856 -0.0167325 -0.995901 -0.0184974 0.0132248 -0.999741 
-0.0132773 0.0719204 -0.997322 0.0203331 -0.00908125 -0.999752 -0.0163759 0.0329905 -0.999322 
0.203485 -0.0545382 -0.977558 0.122702 -0.0654977 -0.99028 -0.0179882 -0.0556656 -0.998287 
-0.189767 -0.0191937 -0.981642 -0.544512 0.0766313 -0.835245 -0.504246 0.0679019 -0.860887 
0.176531 0.0880197 -0.980352 0.122853 0.0893552 -0.988394 -0.0998692 0.0906238 -0.990865 
-0.0379062 0.0966676 -0.994595 -0.106689 0.086251 -0.990544 0.162841 0.0771441 -0.983632 
-0.0909906 0.0376716 -0.995139 0.0285686 -0.00748604 -0.999564 -0.0760831 0.013844 -0.997005 
-0.0430742 0.0471871 -0.997957 0.0240573 -0.0907489 -0.995583 -0.0128719 0.051863 -0.998571 
0.121429 -0.0453842 -0.991562 0.0935958 -0.0901346 -0.991522 -0.00181051 -0.162477 -0.986711 
-0.18386 -0.225266 -0.956792 -0.161867 -0.174329 -0.971292 -0.435224 -0.177695 -0.882612 
-0.431251 -0.186401 -0.882767 -0.428244 -0.1779 -0.885979 0.22253 -0.0199325 -0.974722 
0.137943 0.0256989 -0.990107 -0.0165919 0.0305583 -0.999395 -0.0183417 0.0867559 -0.996061 
-0.093603 0.0731426 -0.992919 0.013018 0.0408717 -0.99908 0.000850998 0.0770108 -0.99703 
0.0221659 -0.138004 -0.990184 -0.00539603 0.0505386 -0.998708 0.018703 -0.0572125 -0.998187 
0.0174437 0.00737279 -0.999821 0.0643816 -0.0449558 -0.996912 -0.055658 -0.228673 -0.971911 
0.00325694 -0.165972 -0.986125 -0.182858 -0.225213 -0.956997 -0.0839756 -0.218905 -0.972126 
-0.0917067 -0.204323 -0.974598 0.288569 -0.207987 -0.934596 0.252705 -0.264267 -0.930754 
0.230847 -0.192613 -0.953735 0.124179 -0.293231 -0.947942 0.00370054 -0.0875953 -0.996149 
0.0155556 -0.231611 -0.972684 -0.045787 -0.0405095 -0.998129 -0.023964 0.0317191 -0.99921 
-0.0367747 -0.16559 -0.985509 -0.00259696 -0.0597527 -0.99821 -0.0275493 -0.130956 -0.991005 
-0.0195178 -0.0429131 -0.998888 -0.0211942 -0.12465 -0.991974 -0.0122429 -0.0887378 -0.99598 
-0.0130104 -0.142936 -0.989646 0.00171994 -0.106888 -0.99427 -0.0603718 -0.20544 -0.976806 
-0.056807 -0.200467 -0.978052 -0.0509992 -0.173896 -0.983443 0.0149898 -0.242476 -0.970042 
-0.0344333 -0.209712 -0.977157 -0.00681775 -0.243056 -0.969988 -0.0107661 -0.204186 -0.978873 

