# vtk DataFile Version 4.2
vtk output
ASCII
DATASET POLYDATA
POINTS 538 float
-29.4054 -38.4812 -17.7193 -21.394 -38.4812 -19.7589 -13.3827 -38.4812 -20.4583 
-5.37135 -38.4812 -20.5329 2.63999 -38.4812 -20.4824 10.6513 -38.4812 -20.4543 
18.6627 -38.4812 -19.7932 26.674 -38.4812 -19.403 34.6854 -38.4812 -16.3476 
-37.4167 -30.4699 -18.3776 -29.4054 -30.4699 -20.2863 -21.394 -30.4699 -21.0463 
-13.3827 -30.4699 -21.6201 -5.37135 -30.4699 -21.583 2.63999 -30.4699 -21.7828 
10.6513 -30.4699 -21.8482 18.6627 -30.4699 -21.3098 26.674 -30.4699 -21.0242 
34.6854 -30.4699 -19.7331 42.6967 -30.4699 -17.7038 -45.4281 -22.4585 -17.7326 
-37.4167 -22.4585 -19.9487 -29.4054 -22.4585 -20.9916 -21.394 -22.4585 -21.555 
-13.3827 -22.4585 -21.0074 -5.37135 -22.4585 -20.117 2.63999 -22.4585 -20.395 
10.6513 -22.4585 -21.2189 18.6627 -22.4585 -20.7545 26.674 -22.4585 -20.6826 
34.6854 -22.4585 -20.6607 42.6967 -22.4585 -19.986 50.708 -22.4585 -16.4889 
-45.4281 -14.4472 -19.1517 -37.4167 -14.4472 -21.057 -29.4054 -14.4472 -21.233 
-21.394 -14.4472 -20.7025 -13.3827 -14.4472 -20.0397 -5.37135 -14.4472 -19.758 
2.63999 -14.4472 -20.4265 10.6513 -14.4472 -20.0831 18.6627 -14.4472 -19.6441 
26.674 -14.4472 -20.6603 34.6854 -14.4472 -20.8198 42.6967 -14.4472 -20.1443 
50.708 -14.4472 -18.1116 -53.4394 -6.43585 -14.7998 -45.4281 -6.43585 -19.3455 
-37.4167 -6.43585 -20.9536 -29.4054 -6.43585 -20.9264 -21.394 -6.43585 -19.8584 
-13.3827 -6.43585 -20.4086 -5.37135 -6.43585 -21.8715 2.63999 -6.43585 -21.0514 
10.6513 -6.43585 -21.0299 18.6627 -6.43585 -19.3103 26.674 -6.43585 -20.5712 
34.6854 -6.43585 -21.2276 42.6967 -6.43585 -20.9035 50.708 -6.43585 -19.2172 
-45.4281 1.57549 -18.2925 -37.4167 1.57549 -19.887 -29.4054 1.57549 -20.0785 
-21.394 1.57549 -19.3662 -13.3827 1.57549 -21.5489 -5.37135 1.57549 -20.9169 
2.63999 1.57549 -18.8589 10.6513 1.57549 -21.4126 18.6627 1.57549 -19.5172 
26.674 1.57549 -20.4972 34.6854 1.57549 -21.1178 42.6967 1.57549 -20.6611 
50.708 1.57549 -18.5349 -45.4281 9.58683 -17.1742 -37.4167 9.58683 -19.1833 
-29.4054 9.58683 -19.9063 -21.394 9.58683 -20.2305 -13.3827 9.58683 -21.2798 
-5.37135 9.58683 -20.8204 2.63999 9.58683 -20.6573 10.6513 9.58683 -19.103 
18.6627 9.58683 -17.9436 26.674 9.58683 -19.332 34.6854 9.58683 -19.9826 
42.6967 9.58683 -19.3621 50.708 9.58683 -16.9371 -45.4281 17.5982 -15.259 
-37.4167 17.5982 -18.7312 -29.4054 17.5982 -20.1681 -21.394 17.5982 -21.2949 
-13.3827 17.5982 -21.5143 -5.37135 17.5982 -21.1155 2.63999 17.5982 -21.7129 
10.6513 17.5982 -20.6889 18.6627 17.5982 -19.3737 26.674 17.5982 -18.8585 
34.6854 17.5982 -18.5808 42.6967 17.5982 -17.3218 -37.4167 25.6095 -17.1024 
-29.4054 25.6095 -19.6913 -21.394 25.6095 -20.9143 -13.3827 25.6095 -21.077 
-5.37135 25.6095 -21.5437 2.63999 25.6095 -22.1147 10.6513 25.6095 -22.2068 
18.6627 25.6095 -21.1271 26.674 25.6095 -19.9398 34.6854 25.6095 -18.1185 
42.6967 25.6095 -15.654 -29.4054 33.6209 -15.2255 -21.394 33.6209 -17.6243 
-13.3827 33.6209 -18.6389 -5.37135 33.6209 -19.563 2.63999 33.6209 -20.7765 
10.6513 33.6209 -20.5086 18.6627 33.6209 -19.6182 26.674 33.6209 -17.2498 
34.6854 33.6209 -15.3826 -29.4054 -41.6441 -14.4896 -21.394 -44.7564 -14.4896 
-13.3827 -45.9123 -14.4896 -5.37135 -45.6248 -14.4896 2.63999 -44.9803 -14.4896 
10.6513 -45.0521 -14.4896 18.6627 -44.5063 -14.4896 26.674 -42.7927 -14.4896 
34.6854 -40.3714 -14.4896 -34.7909 -38.4812 -14.4896 -37.4167 -36.2726 -14.4896 
-37.4167 -38.4812 -11.366 38.5692 -38.4812 -14.4896 42.6967 -35.7614 -14.4896 
42.6967 -38.4812 -8.09907 -43.9523 -30.4699 -14.4896 -45.4281 -28.9996 -14.4896 
-45.4281 -30.4699 -13.0611 48.1152 -30.4699 -14.4896 50.708 -26.8921 -14.4896 
50.708 -30.4699 -11.1766 -50.1464 -22.4585 -14.4896 -53.4394 -22.4585 -10.3659 
54.4411 -22.4585 -14.4896 58.7194 -22.4585 -6.49022 -53.0319 -14.4472 -14.4896 
-53.4394 -10.9107 -14.4896 -53.4394 -14.4472 -14.1455 56.0734 -14.4472 -14.4896 
58.7194 -14.4472 -11.5764 -53.837 -6.43585 -14.4896 -53.4394 -3.21852 -14.4896 
58.4777 -6.43585 -14.4896 58.7194 -6.43585 -14.2594 -52.5762 1.57549 -14.4896 
-53.4394 1.57549 -13.9179 56.9657 1.57549 -14.4896 58.7194 1.57549 -12.6786 
-50.105 9.58683 -14.4896 -53.4394 9.58683 -12.2045 54.302 9.58683 -14.4896 
50.708 16.3232 -14.4896 58.7194 9.58683 -9.31402 -46.6887 17.5982 -14.4896 
-53.4394 17.5982 -9.03627 -45.4281 20.3021 -14.4896 49.5032 17.5982 -14.4896 
50.708 17.5982 -13.853 -42.4374 25.6095 -14.4896 -45.4281 25.6095 -12.5116 
-37.4167 29.7786 -14.4896 44.4925 25.6095 -14.4896 42.6967 27.5899 -14.4896 
50.708 25.6095 -8.16922 -30.9984 33.6209 -14.4896 -37.4167 33.6209 -10.551 
-29.4054 34.2448 -14.4896 -21.394 36.6145 -14.4896 -13.3827 38.4461 -14.4896 
-5.37135 39.3746 -14.4896 2.63999 39.3855 -14.4896 10.6513 39.2493 -14.4896 
18.6627 38.8036 -14.4896 26.674 37.0428 -14.4896 36.139 33.6209 -14.4896 
34.6854 34.6283 -14.4896 42.6967 33.6209 -8.44442 -37.4167 -40.5661 -6.47824 
-29.4054 -44.2471 -6.47824 -21.394 -45.403 -6.47824 -13.3827 -45.3726 -6.47824 
-5.37135 -44.6072 -6.47824 2.63999 -44.0832 -6.47824 10.6513 -43.779 -6.47824 
18.6627 -43.7779 -6.47824 26.674 -43.4072 -6.47824 34.6854 -42.2289 -6.47824 
42.6967 -38.9355 -6.47824 -40.6421 -38.4812 -6.47824 -45.4281 -34.8021 -6.47824 
-5.37135 -38.4812 0.817132 2.63999 -38.4812 -0.0498787 10.6513 -38.4812 0.382799 
18.6627 -38.4812 0.801851 26.674 -38.4812 1.38984 34.6854 -38.4812 0.333175 
43.5106 -38.4812 -6.47824 42.6967 -38.4812 -4.87566 50.708 -33.4383 -6.47824 
-49.7595 -30.4699 -6.47824 -53.4394 -25.8858 -6.47824 53.3625 -30.4699 -6.47824 
50.708 -30.4699 0.0914034 58.7194 -22.4645 -6.47824 -55.7438 -22.4585 -6.47824 
58.7232 -22.4585 -6.47824 58.7194 -22.4585 -6.46135 -59.1277 -14.4472 -6.47824 
61.4662 -14.4472 -6.47824 -60.1291 -6.43585 -6.47824 -61.4507 -6.43585 0.76957 
63.0252 -6.43585 -6.47824 -59.8304 1.57549 -6.47824 -61.4507 1.57549 -0.22006 
62.3582 1.57549 -6.47824 -58.5528 9.58683 -6.47824 60.4943 9.58683 -6.47824 
58.7194 14.2578 -6.47824 -55.598 17.5982 -6.47824 -53.4394 22.649 -6.47824 
57.2766 17.5982 -6.47824 58.7194 17.5982 -1.14812 -51.8583 25.6095 -6.47824 
-53.4394 25.6095 -2.28687 -45.4281 31.3951 -6.47824 52.0995 25.6095 -6.47824 
50.708 27.4176 -6.47824 -42.0384 33.6209 -6.47824 -37.4167 36.2914 -6.47824 
-29.4054 37.9838 -6.47824 -21.394 39.428 -6.47824 -13.3827 40.5396 -6.47824 
-5.37135 40.1509 -6.47824 2.63999 38.4575 -6.47824 10.6513 38.2975 -6.47824 
18.6627 38.5754 -6.47824 26.674 39.6357 -6.47824 34.6854 38.8772 -6.47824 
44.6007 33.6209 -6.47824 42.6967 35.076 -6.47824 -37.4167 -39.6374 1.5331 
-29.4054 -41.287 1.5331 -21.394 -41.7121 1.5331 -13.3827 -40.1019 1.5331 
-39.3987 -38.4812 1.5331 -45.4281 -34.8041 1.5331 -37.4167 -38.4812 4.547 
-29.4054 -38.4812 7.39761 -21.394 -38.4812 6.52139 -7.64373 -38.4812 1.5331 
-13.3827 -38.4812 4.27998 -5.37135 -37.7954 1.5331 2.63999 -36.8179 1.5331 
10.6513 -37.4469 1.5331 18.6627 -37.9309 1.5331 26.674 -38.3831 1.5331 
34.6854 -37.86 1.5331 42.6967 -36.1286 1.5331 -50.4518 -30.4699 1.5331 
-53.4394 -26.8913 1.5331 2.63999 -30.4699 8.12741 10.6513 -30.4699 8.72498 
49.8576 -30.4699 1.5331 42.6967 -30.4699 7.06386 50.708 -29.7085 1.5331 
-56.6534 -22.4585 1.5331 56.688 -22.4585 1.5331 50.708 -22.4585 8.15663 
58.7194 -18.2434 1.5331 -60.0521 -14.4472 1.5331 -61.4507 -7.10487 1.5331 
60.1996 -14.4472 1.5331 58.7194 -14.4472 4.18593 -61.5709 -6.43585 1.5331 
-61.4507 -6.43585 2.14229 62.6582 -6.43585 1.5331 58.7194 -6.43585 8.85262 
-61.824 1.57549 1.5331 -61.4507 4.84487 1.5331 -61.4507 1.57549 4.16073 
62.7285 1.57549 1.5331 -60.9093 9.58683 1.5331 61.6473 9.58683 1.5331 
-58.633 17.5982 1.5331 59.3055 17.5982 1.5331 58.7194 18.6306 1.5331 
58.7194 17.5982 3.85986 -54.5602 25.6095 1.5331 -53.4394 26.9811 1.5331 
-53.4394 25.6095 9.40569 -45.4281 33.5996 1.5331 54.2408 25.6095 1.5331 
50.708 29.7066 1.5331 -45.3899 33.6209 1.5331 -37.4167 38.048 1.5331 
-29.4054 38.9309 1.5331 -21.394 39.9186 1.5331 -13.3827 40.5852 1.5331 
-5.37135 39.3123 1.5331 2.63999 36.8965 1.5331 10.6513 35.9341 1.5331 
18.6627 37.1698 1.5331 26.674 38.3258 1.5331 34.6854 38.5924 1.5331 
46.3269 33.6209 1.5331 42.6967 36.0669 1.5331 -45.4281 -32.1589 9.54445 
-37.4167 -36.1535 9.54445 -29.4054 -37.3548 9.54445 -21.394 -36.6939 9.54445 
-13.3827 -35.0744 9.54445 -5.37135 -32.5032 9.54445 18.6627 -31.0795 9.54445 
26.674 -31.6391 9.54445 34.6854 -30.8245 9.54445 -47.5119 -30.4699 9.54445 
-53.4394 -24.265 9.54445 -45.4281 -30.4699 11.9073 -37.4167 -30.4699 16.0255 
-13.3827 -30.4699 16.5016 -0.106287 -30.4699 9.54445 -5.37135 -30.4699 12.8524 
2.63999 -29.4045 9.54445 15.1201 -30.4699 9.54445 10.6513 -29.8385 9.54445 
18.6627 -30.4699 10.1594 26.674 -30.4699 10.671 35.7016 -30.4699 9.54445 
34.6854 -30.4699 9.8696 42.6967 -27.0097 9.54445 -54.8277 -22.4585 9.54445 
-53.4394 -22.4585 11.5493 18.6627 -22.4585 16.8503 26.674 -22.4585 15.7701 
34.6854 -22.4585 14.7398 48.4122 -22.4585 9.54445 42.6967 -22.4585 12.4531 
50.708 -20.1491 9.54445 -58.1578 -14.4472 9.54445 -53.4394 -14.4472 16.3249 
34.6854 -14.4472 17.5006 42.6967 -14.4472 16.0872 54.3587 -14.4472 9.54445 
50.708 -14.4472 12.5833 -59.8078 -6.43585 9.54445 -53.4394 -6.43585 17.4492 
58.1699 -6.43585 9.54445 50.708 -6.43585 15.9081 58.7194 -3.88364 9.54445 
-60.571 1.57549 9.54445 59.5678 1.57549 9.54445 58.7194 1.57549 10.6879 
-59.3598 9.58683 9.54445 -53.4394 9.58683 17.3895 59.3987 9.58683 9.54445 
58.7194 12.021 9.54445 58.7194 9.58683 10.5588 -57.4738 17.5982 9.54445 
-53.4394 25.5742 9.54445 -53.4394 17.5982 15.961 57.0458 17.5982 9.54445 
50.708 17.5982 16.9421 -53.417 25.6095 9.54445 -45.4281 32.9518 9.54445 
52.2141 25.6095 9.54445 50.708 27.315 9.54445 50.708 25.6095 11.6485 
-44.2733 33.6209 9.54445 -37.4167 37.1099 9.54445 -37.4167 33.6209 16.2793 
-29.4054 38.7949 9.54445 -21.394 40.5436 9.54445 -13.3827 41.2049 9.54445 
-5.37135 40.1139 9.54445 2.63999 37.8628 9.54445 10.6513 36.1245 9.54445 
18.6627 37.2529 9.54445 26.674 36.9693 9.54445 34.6854 36.5252 9.54445 
[...]
POINT_DATA 538
SCALARS ImageScalars float
LOOKUP_TABLE default
0 0 0 0 0 0 0 0 0 
0 0 0 0 0 0 0 0 0 
0 0 0 0 0 0 0 0 0 
0 0 0 0 0 0 0 0 0 
0 0 0 0 0 0 0 0 0 
0 0 0 0 0 0 0 0 0 
0 0 0 0 0 0 0 0 0 
0 0 0 0 0 0 0 0 0 
0 0 0 0 0 0 0 0 0 
0 0 0 0 0 0 0 0 0 
0 0 0 0 0 0 0 0 0 
0 0 0 0 0 0 0 0 0 
0 0 0 0 0 0 0 0 0 
0 0 0 0 0 0 0 0 0 
0 0 0 0 0 0 0 0 0 
0 0 0 0 0 0 0 0 0 
0 0 0 0 0 0 0 0 0 
0 0 0 0 0 0 0 0 0 
0 0 0 0 0 0 0 0 0 
0 0 0 0 0 0 0 0 0 
0 0 0 0 0 0 0 0 0 
0 0 0 0 0 0 0 0 0 
0 0 0 0 0 0 0 0 0 
0 0 0 0 0 0 0 0 0 
0 0 0 0 0 0 0 0 0 
0 0 0 0 0 0 0 0 0 
0 0 0 0 0 0 0 0 0 
0 0 0 0 0 0 0 0 0 
0 0 0 0 0 0 0 0 0 
0 0 0 0 0 0 0 0 0 
0 0 0 0 0 0 0 0 0 
0 0 0 0 0 0 0 0 0 
0 0 0 0 0 0 0 0 0 
0 0 0 0 0 0 0 0 0 
0 0 0 0 0 0 0 0 0 
0 0 0 0 0 0 0 0 0 
0 0 0 0 0 0 0 0 0 
0 0 0 0 0 0 0 0 0 
0 0 0 0 0 0 0 0 0 
0 0 0 0 0 0 0 0 0 
0 0 0 0 0 0 0 0 0 
0 0 0 0 0 0 0 0 0 
0 0 0 0 0 0 0 0 0 
0 0 0 0 0 0 0 0 0 
0 0 0 0 0 0 0 0 0 
0 0 0 0 0 0 0 0 0 
0 0 0 0 0 0 0 0 0 
0 0 0 0 0 0 0 0 0 
0 0 0 0 0 0 0 0 0 
0 0 0 0 0 0 0 0 0 
0 0 0 0 0 0 0 0 0 
0 0 0 0 0 0 0 0 0 
0 0 0 0 0 0 0 0 0 
0 0 0 0 0 0 0 0 0 
0 0 0 0 0 0 0 0 0 
0 0 0 0 0 0 0 0 0 
0 0 0 0 0 0 0 0 0 
0 0 0 0 0 0 0 0 0 
0 0 0 0 0 0 0 0 0 
0 0 0 0 0 0 0 
NORMALS Normals float
-0.374473 -0.545459 -0.74983 -0.149514 -0.416034 -0.896974 -0.055538 -0.371964 -0.926584 
-0.00152569 -0.329227 -0.944249 0.00461862 -0.349824 -0.936804 0.0507362 -0.414028 -0.908849 
0.0622168 -0.442223 -0.894744 0.210228 -0.535049 -0.818246 0.334202 -0.679209 -0.65344 
-0.361075 -0.363723 -0.85868 -0.148453 -0.171115 -0.974003 -0.0805066 -0.106722 -0.991024 
-0.034264 -0.023806 -0.999129 -0.0102116 0.0401505 -0.999141 -0.0172877 0.0206284 -0.999638 
0.0306847 -0.0392096 -0.99876 0.0517482 -0.058704 -0.996933 0.113307 -0.0549978 -0.992037 
0.20107 -0.230801 -0.951999 0.368156 -0.337483 -0.866352 -0.415392 -0.288299 -0.862747 
-0.198282 -0.145551 -0.969278 -0.094099 -0.0554564 -0.994017 -0.000908751 0.0233296 -0.999727 
0.0871667 0.097875 -0.991374 0.0388624 0.113485 -0.992779 -0.0657013 0.0810412 -0.994543 
-0.022924 0.108769 -0.993803 0.0323627 0.100471 -0.994414 0.00588232 0.0216492 -0.999748 
0.0392579 -0.0745577 -0.996444 0.244547 -0.149185 -0.958092 0.451155 -0.271814 -0.850045 
-0.375883 -0.0943773 -0.921849 -0.115849 -0.0617073 -0.991348 0.0226075 0.00270137 -0.999741 
0.0737908 0.101378 -0.992108 0.0587999 0.0392172 -0.997499 -0.0247063 -0.108118 -0.993831 
-0.0205479 -0.0391679 -0.999021 0.0479268 0.013986 -0.998753 -0.0381577 0.0925454 -0.994977 
-0.0696151 0.00698068 -0.99755 0.0307685 -0.0347606 -0.998922 0.154143 -0.0555825 -0.986484 
0.38645 -0.162448 -0.907891 -0.600716 0.0129305 -0.799358 -0.340183 0.0467782 -0.939195 
-0.0890261 0.0731079 -0.993343 0.0708033 0.0745239 -0.994703 0.0296924 0.0829795 -0.996109 
-0.131197 -0.0874006 -0.987496 -0.0380904 -0.0828468 -0.995834 0.0543549 0.085983 -0.994813 
0.11589 -0.0820632 -0.989866 0.0186163 0.00725522 -0.9998 -0.119035 0.010108 -0.992839 
-0.0209476 -0.0185986 -0.999608 0.113307 -0.0315131 -0.99306 0.329108 -0.0246005 -0.943972 
-0.334939 0.119373 -0.934647 -0.10094 0.108291 -0.988981 0.0328056 0.059625 -0.997682 
-0.0680559 -0.0216591 -0.997446 -0.114413 -0.0548205 -0.99192 0.162972 0.0718252 -0.984013 
-0.0331897 0.0202194 -0.999245 -0.0282844 0.11559 -0.992894 0.0392922 0.0868221 -0.995449 
-0.0972248 0.0772249 -0.992262 -0.0107066 0.0771073 -0.996965 0.146975 0.0993772 -0.984135 
0.388524 0.136633 -0.911252 -0.35198 0.166735 -0.921037 -0.157776 0.0708022 -0.984933 
-0.0630796 -0.00539773 -0.997994 -0.0839825 -0.121288 -0.989058 -0.0357828 -0.000795862 -0.999359 
0.0381807 -0.0137764 -0.999176 0.0968129 -0.165566 -0.981435 0.178772 0.0353446 -0.983255 
-0.0229812 0.00581243 -0.999719 -0.126916 0.102108 -0.986644 -0.000470828 0.155241 -0.987877 
0.177457 0.186391 -0.966316 0.44196 0.245702 -0.862729 -0.465809 0.228015 -0.855004 
-0.280285 0.114204 -0.953099 -0.153405 0.0105368 -0.988107 -0.0830306 -0.0420874 -0.995658 
0.0112443 0.0127723 -0.999855 -0.0123012 -0.0445455 -0.998932 0.0196213 -0.0892032 -0.99582 
0.150363 -0.187714 -0.970646 0.105577 -0.183131 -0.977403 0.0485236 -0.0325013 -0.998293 
0.0873453 0.113366 -0.989706 0.268065 0.245537 -0.931586 -0.370586 0.347141 -0.861486 
-0.212123 0.223986 -0.951228 -0.0816212 0.194397 -0.977521 -0.0383107 0.160905 -0.986226 
-0.0655204 0.0851455 -0.994212 -0.0410712 0.0463509 -0.998081 0.0529045 0.00779182 -0.998569 
0.148701 -0.0336979 -0.988308 0.169034 0.0934793 -0.981167 0.264617 0.181179 -0.947181 
0.420733 0.350426 -0.836771 -0.30542 0.708579 -0.636108 -0.172723 0.617104 -0.767691 
-0.112627 0.514113 -0.850296 -0.13219 0.482141 -0.866064 -0.0618231 0.468246 -0.881433 
0.068685 0.485033 -0.871794 0.211552 0.461742 -0.861417 0.248813 0.528032 -0.811957 
0.387203 0.545704 -0.743156 -0.406897 -0.734181 -0.543519 -0.220368 -0.880038 -0.420679 
-0.0528498 -0.951168 -0.304115 0.0522239 -0.965079 -0.256699 0.029098 -0.968925 -0.245638 
0.0300428 -0.96762 -0.250617 0.130203 -0.937216 -0.323533 0.252952 -0.872592 -0.41785 
0.353912 -0.783954 -0.510062 -0.487587 -0.641771 -0.591936 -0.490819 -0.593485 -0.637865 
-0.523329 -0.74309 -0.417066 0.431237 -0.76268 -0.482031 0.504514 -0.669481 -0.545217 
0.445171 -0.892389 -0.0739268 -0.521027 -0.5282 -0.670474 -0.532588 -0.504246 -0.67977 
-0.571818 -0.574445 -0.585694 0.592004 -0.489861 -0.639974 0.577723 -0.436701 -0.689586 
0.715716 -0.597721 -0.361221 -0.633917 -0.327136 -0.700808 -0.787275 -0.41132 -0.459362 
0.601825 -0.330149 -0.727192 0.882724 -0.468001 -0.0421042 -0.608374 -0.153681 -0.778629 
-0.613605 -0.0818269 -0.785362 -0.629757 -0.16198 -0.759716 0.653734 -0.142772 -0.743134 
0.850298 -0.195994 -0.488446 -0.614261 0.0125562 -0.789003 -0.593595 0.0569561 -0.802746 
0.715623 -0.0394392 -0.697373 0.734197 -0.0401138 -0.677751 -0.553856 0.123202 -0.823447 
-0.593277 0.121957 -0.795707 0.658099 0.168153 -0.733915 0.774077 0.183718 -0.605848 
-0.514835 0.193257 -0.835222 -0.65475 0.216336 -0.724224 0.594091 0.247338 -0.765428 
0.46508 0.37594 -0.80148 0.836221 0.278198 -0.472589 -0.498658 0.230248 -0.835659 
-0.728426 0.305622 -0.613181 -0.479074 0.278483 -0.832428 0.435381 0.379769 -0.816222 
0.48215 0.408029 -0.77527 -0.448491 0.382288 -0.807906 -0.521609 0.431267 -0.736161 
-0.383473 0.53196 -0.754962 0.474153 0.378271 -0.795041 0.45193 0.4177 -0.788217 
0.708415 0.51567 -0.481906 -0.322032 0.712977 -0.622863 -0.374767 0.755523 -0.537341 
-0.303665 0.738394 -0.602131 -0.225887 0.786342 -0.575014 -0.166319 0.793482 -0.585426 
-0.0542297 0.879852 -0.472143 0.00846614 0.962951 -0.269543 0.0351415 0.960916 -0.274602 
0.138647 0.905292 -0.401527 0.238406 0.725994 -0.645055 0.422498 0.563033 -0.710274 
0.390003 0.596547 -0.701448 0.534179 0.719528 -0.443771 -0.496709 -0.860699 -0.111702 
-0.268049 -0.962086 0.0503905 -0.0685815 -0.984684 0.160294 0.0424242 -0.95701 0.286936 
0.0712176 -0.926644 0.369133 0.0449267 -0.924441 0.378669 0.0167169 -0.931917 0.362287 
0.020945 -0.943042 0.332014 0.08439 -0.972091 0.218899 0.264783 -0.958618 0.104602 
0.422215 -0.906485 0.0044622 -0.54229 -0.828366 -0.140473 -0.635282 -0.744206 -0.206334 
0.148047 -0.753819 0.640187 0.0205796 -0.725092 0.688344 -0.0370316 -0.745892 0.665036 
-0.0366088 -0.799689 0.599298 0.00700444 -0.795744 0.605593 0.128609 -0.847136 0.515578 
0.445019 -0.895518 -0.00242948 0.407537 -0.907938 0.0977895 0.708521 -0.703372 -0.0571501 
-0.730797 -0.639746 -0.238034 -0.804611 -0.531383 -0.265016 0.779076 -0.621971 -0.0786882 
0.647246 -0.684312 0.335842 0.882681 -0.468148 -0.0413661 -0.838905 -0.459165 -0.292242 
0.882736 -0.468046 -0.0413458 0.882752 -0.468083 -0.040589 -0.913716 -0.253384 -0.317677 
0.957801 -0.242105 -0.154929 -0.929042 -0.0382252 -0.367994 -0.994941 -0.0995206 -0.0137465 
0.980582 -0.0583218 -0.187235 -0.898982 0.0840764 -0.429839 -0.992345 0.0498944 -0.112971 
0.952727 0.148655 -0.264977 -0.859311 0.213598 -0.464716 0.895312 0.287522 -0.340217 
0.862434 0.367767 -0.347785 -0.795478 0.332092 -0.506883 -0.765773 0.448217 -0.461188 
0.824421 0.430253 -0.367713 0.900536 0.422643 -0.102021 -0.731429 0.526408 -0.433481 
-0.794842 0.563283 -0.225694 -0.551044 0.73836 -0.388812 0.739495 0.53494 -0.408639 
0.717191 0.574043 -0.395111 -0.459717 0.813922 -0.355233 -0.363249 0.854746 -0.370756 
-0.175092 0.9516 -0.252586 -0.151773 0.972292 -0.177799 -0.0432667 0.993858 -0.101859 
0.129915 0.991438 0.0131768 0.116368 0.983777 0.136532 -0.00744824 0.979248 0.202528 
-0.0840901 0.993427 0.0776646 -0.0247046 0.99886 -0.0408432 0.255003 0.945076 -0.204465 
0.569535 0.743751 -0.349949 0.531078 0.777 -0.337974 -0.365135 -0.901187 0.233533 
-0.119102 -0.9136 0.38878 0.0527272 -0.874362 0.482401 0.195466 -0.813791 0.5473 
-0.412997 -0.884988 0.21501 -0.569168 -0.809864 0.142012 -0.340647 -0.88373 0.320907 
-0.0357692 -0.880414 0.472855 0.0889557 -0.875395 0.475152 0.166816 -0.761633 0.62617 
0.21523 -0.819135 0.53169 0.157521 -0.740953 0.652821 0.0158481 -0.689065 0.724526 
-0.0524468 -0.715037 0.697116 -0.0432424 -0.784442 0.618692 0.00514581 -0.791103 0.611661 
0.107032 -0.810329 0.576118 0.341964 -0.787511 0.512725 -0.716634 -0.690567 0.097739 
-0.799849 -0.595653 0.0737469 0.125282 -0.819503 0.559213 -0.0860006 -0.787625 0.610123 
0.589083 -0.675479 0.443519 0.319912 -0.618698 0.717544 0.613281 -0.662285 0.430424 
-0.865206 -0.498883 0.0503397 0.796412 -0.470249 0.380255 0.507872 -0.442952 0.738823 
0.859878 -0.37882 0.342207 -0.956756 -0.285525 0.0556123 -0.992581 -0.119374 0.0230638 
0.895156 -0.312416 0.31795 0.831894 -0.324032 0.450506 -0.994301 -0.104793 0.0195732 
-0.993144 -0.107659 0.0455504 0.957437 -0.151678 0.245577 0.778775 -0.229868 0.583669 
-0.9985 0.0413117 -0.035936 -0.994363 0.100915 -0.0325364 -0.995375 0.03811 0.0881781 
0.985951 0.060295 0.15577 -0.981701 0.187804 -0.0315105 0.975656 0.2105 0.0615252 
-0.934207 0.346766 -0.0837321 0.911694 0.410549 0.0162392 0.901677 0.432145 0.0151412 
0.905733 0.404798 0.125641 -0.814233 0.577371 -0.0605633 -0.788672 0.611624 -0.0625498 
-0.780949 0.553209 0.289961 -0.504785 0.86094 -0.0630374 0.803245 0.595648 -0.000992068 
0.715401 0.69839 0.0212724 -0.503762 0.861547 -0.0629365 -0.320446 0.946513 -0.0377862 
-0.11218 0.992585 -0.0467947 -0.101349 0.99257 -0.0673265 0.0364195 0.998499 -0.0409023 
0.204959 0.978765 0.00341454 0.229467 0.972091 0.0488301 -0.00701778 0.990746 0.135544 
-0.17891 0.97876 0.100101 -0.0685931 0.983894 0.165067 0.140152 0.980283 0.139293 
0.564238 0.824222 0.0478881 0.443387 0.894064 0.0636988 -0.514496 -0.738141 0.436396 
-0.281422 -0.823452 0.492676 -0.0219737 -0.856031 0.516457 0.105809 -0.867368 0.486289 
0.235985 -0.825052 0.513421 0.273705 -0.815649 0.509709 -0.089116 -0.708986 0.699569 
0.0120541 -0.695707 0.718225 0.161331 -0.63477 0.755672 -0.574425 -0.696303 0.430348 
-0.734553 -0.550962 0.396071 -0.50432 -0.678547 0.534073 -0.269261 -0.636223 0.722993 
0.215473 -0.710968 0.6694 0.188185 -0.834508 0.517864 0.248621 -0.792525 0.55686 
0.138274 -0.830435 0.539683 -0.0868793 -0.748307 0.657639 -0.0776787 -0.790911 0.606981 
-0.0804297 -0.704633 0.704998 0.0171704 -0.667548 0.744369 0.175883 -0.625552 0.760099 
0.163527 -0.626052 0.762442 0.303972 -0.545152 0.781288 -0.766473 -0.506773 0.394588 
-0.713509 -0.506988 0.483599 0.120515 -0.435707 0.891984 0.115787 -0.409022 0.905149 
0.175214 -0.415613 0.892505 0.433998 -0.436183 0.788283 0.331616 -0.461329 0.822926 
0.493976 -0.400893 0.771539 -0.872762 -0.287691 0.39436 -0.653704 -0.238716 0.718113 
0.122834 -0.298551 0.946456 0.250465 -0.344723 0.904673 0.621532 -0.335246 0.708031 
0.509385 -0.369559 0.777144 -0.909033 -0.133999 0.394592 -0.607368 -0.0735335 0.79101 
0.748594 -0.238816 0.618526 0.476172 -0.270353 0.836761 0.788955 -0.17812 0.588067 
-0.929791 0.0281135 0.367012 0.848217 -0.0552701 0.526758 0.818739 -0.063768 0.570614 
-0.913412 0.172324 0.368759 -0.631344 0.0837718 0.770965 0.886678 0.138377 0.441196 
0.877008 0.208774 0.432747 0.863935 0.130542 0.486389 -0.885771 0.325039 0.331299 
-0.780103 0.551107 0.296178 -0.709404 0.256288 0.656553 0.834553 0.365988 0.411793 
0.587357 0.284097 0.757826 -0.779299 0.552245 0.296171 -0.522152 0.816726 0.245593 
0.717301 0.58342 0.380921 0.679074 0.628252 0.37968 0.671973 0.570078 0.472719 
-0.49206 0.837406 0.237967 -0.343884 0.902846 0.258097 -0.373314 0.719219 0.58597 
-0.193109 0.970669 0.143213 -0.153415 0.983795 0.0927919 0.026457 0.997698 0.0624403 
0.192532 0.981163 0.0158441 0.268905 0.962956 -0.0201601 0.0284454 0.998547 0.0457608 
-0.0548353 0.986805 0.152344 0.0409935 0.966404 0.253738 0.167945 0.914455 0.368194 
0.238337 0.782992 0.574559 0.459083 0.795736 0.395027 0.440136 0.807006 0.393728 
0.442696 0.78899 0.426045 -0.105658 -0.616846 0.77996 0.0674397 -0.634426 0.770036 
-0.422604 -0.444356 0.789907 -0.158085 -0.601933 0.782742 -0.253202 -0.544038 0.799945 
-0.101058 -0.589075 0.801734 0.146778 -0.65472 0.741483 0.063494 -0.591228 0.804001 
0.202467 -0.645846 0.736132 0.194356 -0.594087 0.780568 0.151005 -0.539346 0.828434 
0.113831 -0.506153 0.854899 -0.43404 -0.435098 0.788859 -0.418445 -0.429511 0.800265 
-0.193046 -0.335799 0.92194 -0.0634898 -0.272358 0.960099 0.0248098 -0.216623 0.97594 
0.103988 -0.260049 0.95998 0.151006 -0.354689 0.922709 0.134822 -0.420966 0.897001 
0.119906 -0.460567 0.879489 0.114137 -0.47605 0.87198 0.124136 -0.355176 0.92652 
0.0961593 -0.289233 0.952417 -0.572449 -0.225269 0.788388 -0.334527 -0.18393 0.924263 
-0.133533 -0.139073 0.981238 0.0116709 -0.0957016 0.995342 0.0636264 -0.0660072 0.995789 
0.0661594 -0.122184 0.9903 0.11789 -0.19658 0.973375 0.0608889 -0.183607 0.981112 
0.0608486 -0.22873 0.971586 0.113755 -0.192922 0.974598 0.119508 -0.294662 0.948099 
0.0839541 -0.251194 0.964289 0.121283 -0.297779 0.946899 0.225474 -0.3115 0.923108 
-0.59885 -0.0722828 0.797593 -0.601778 -0.0596791 0.796431 -0.301417 -0.0715996 0.9508 
-0.10139 -0.0582124 0.993142 0.0217587 -0.0360956 0.999111 0.000905735 -0.0422054 0.999109 
-0.0432625 -0.140755 0.989099 0.0742336 -0.230303 0.970284 0.0719626 -0.284687 0.955916 
0.11107 -0.294689 0.949116 0.111537 -0.194979 0.974445 0.0190933 -0.23981 0.970632 
0.0712479 -0.273613 0.959197 0.338041 -0.276919 0.899469 0.209956 -0.285683 0.935042 
0.487575 -0.147595 0.860515 -0.601232 0.00328036 0.799068 -0.617624 0.0629185 0.783952 
-0.582745 0.0023122 0.812652 -0.288197 -0.0169417 0.957421 -0.0927504 -0.0240667 0.995398 
0.0272238 -0.0432256 0.998694 -0.0386284 -0.0889138 0.99529 -0.120216 -0.0987877 0.98782 
-0.0216518 -0.110267 0.993666 -0.00534423 -0.21179 0.977301 0.149465 -0.156146 0.97636 
0.15106 -0.177703 0.972421 0.000464729 -0.193691 0.981062 0.0766598 -0.199626 0.976869 
0.246671 -0.172228 0.953672 0.498946 -0.130681 0.856724 0.489478 -0.132228 0.861932 
-0.618598 0.0806188 0.781561 -0.326087 0.056055 0.943676 -0.125038 -0.00318311 0.992147 
-0.0452844 -0.0538392 0.997522 -0.0562383 -0.142022 0.988265 -0.0652717 -0.0977786 0.993065 
-0.0452754 -0.0661579 0.996781 0.0199796 -0.069701 0.997368 0.151928 -0.00556016 0.988376 
0.0909163 -0.101196 0.990704 -0.00393862 -0.0569074 0.998372 0.0855846 -0.0371274 0.995639 
0.261497 -0.000735156 0.965204 0.562099 0.0436247 0.825918 0.56133 0.194952 0.804303 
0.517784 0.0320928 0.854909 -0.616262 0.225116 0.754681 -0.392884 0.170375 0.903667 
-0.200846 0.0769088 0.976599 -0.11289 0.002323 0.993605 -0.0895422 -0.0543789 0.994497 
0.1159 0.0328688 0.992717 0.109802 -0.0213921 0.993723 0.0653704 0.0616867 0.995953 
0.130298 0.133328 0.982469 0.545067 0.2683 0.794303 0.308582 0.179307 0.934145 
-0.520736 0.460975 0.718566 -0.503973 0.486583 0.713616 -0.495679 0.445515 0.745533 
-0.368051 0.649597 0.665254 -0.295791 0.353196 0.887559 -0.183564 0.200832 0.962274 
-0.106463 0.156233 0.981966 -0.0348259 0.1174 0.992474 0.0839789 0.208265 0.97446 
0.110016 0.222371 0.968735 0.128498 0.249136 0.959906 0.161969 0.292419 0.942474 
0.256346 0.611313 0.748721 0.203727 0.381949 0.901449 0.447932 0.481194 0.753531 
0.419368 0.505244 0.754227 0.411912 0.469501 0.78096 -0.354242 0.686488 0.635017 
-0.282542 0.770245 0.571745 -0.284012 0.63752 0.716175 -0.186254 0.827107 0.530286 
-0.170502 0.567814 0.805305 -0.0485256 0.882544 0.467719 -0.0432377 0.484148 0.873917 
0.123163 0.88961 0.439801 0.102331 0.537998 0.836712 0.251375 0.876236 0.411122 
0.166319 0.672637 0.721039 0.153723 0.910228 0.384518 0.151151 0.812618 0.562855 
0.0943715 0.828177 0.552465 0.112193 0.781913 0.613209 0.158832 0.749777 0.642344 
0.1579 0.750466 0.641769 0.157993 0.749738 0.642597 -0.0447373 -0.054215 0.997527 
-0.0144945 -0.0422276 0.999003 0.0300223 -0.0433878 0.998607 -0.0536874 -0.048241 0.997392 
-0.0354347 0.101941 0.994159 -0.0409412 -0.0461697 0.998094 0.00484586 -0.0275095 0.99961 
0.0603603 0.020045 0.997975 0.0594875 0.0527398 0.996835 0.0536991 0.0180527 0.998394 
-0.0263431 0.123136 0.99204 0.0328943 0.164571 0.985817 0.0220457 0.16534 0.98599 
0.0194575 0.154317 0.98783 
