# vtk DataFile Version 4.2
vtk output
ASCII
DATASET POLYDATA
POINTS 497 float
-24.6341 -44.8461 -18.6337 -15.9164 -44.8461 -20.6491 -7.19859 -44.8461 -21.4445 
1.51918 -44.8461 -20.6686 10.237 -44.8461 -19.456 18.9547 -44.8461 -17.3643 
-33.3519 -36.1283 -20.341 -24.6341 -36.1283 -21.3751 -15.9164 -36.1283 -22.285 
-7.19859 -36.1283 -22.5245 1.51918 -36.1283 -22.5279 10.237 -36.1283 -22.2961 
18.9547 -36.1283 -21.8184 27.6725 -36.1283 -19.9163 36.3903 -36.1283 -17.3834 
-42.0697 -27.4106 -20.1986 -33.3519 -27.4106 -21.7878 -24.6341 -27.4106 -21.9636 
-15.9164 -27.4106 -21.877 -7.19859 -27.4106 -22.1331 1.51918 -27.4106 -22.5673 
10.237 -27.4106 -22.8429 18.9547 -27.4106 -22.7222 27.6725 -27.4106 -21.2838 
36.3903 -27.4106 -19.982 45.1081 -27.4106 -18.5247 -50.7875 -18.6928 -16.8437 
-42.0697 -18.6928 -21.3185 -33.3519 -18.6928 -22.3914 -24.6341 -18.6928 -21.7498 
-15.9164 -18.6928 -21.0042 -7.19859 -18.6928 -20.7387 1.51918 -18.6928 -21.9697 
10.237 -18.6928 -22.7584 18.9547 -18.6928 -21.8457 27.6725 -18.6928 -21.3662 
36.3903 -18.6928 -21.7585 45.1081 -18.6928 -20.3262 53.8258 -18.6928 -17.8886 
-50.7875 -9.97501 -18.1725 -42.0697 -9.97501 -22.5074 -33.3519 -9.97501 -22.9743 
-24.6341 -9.97501 -21.9286 -15.9164 -9.97501 -20.1029 -7.19859 -9.97501 -22.2249 
1.51918 -9.97501 -24.4478 10.237 -9.97501 -23.5337 18.9547 -9.97501 -20.338 
27.6725 -9.97501 -21.0637 36.3903 -9.97501 -22.3045 45.1081 -9.97501 -21.7782 
53.8258 -9.97501 -18.9919 -50.7875 -1.25723 -18.3065 -42.0697 -1.25723 -22.0922 
-33.3519 -1.25723 -22.6329 -24.6341 -1.25723 -21.3815 -15.9164 -1.25723 -20.3074 
-7.19859 -1.25723 -21.6443 1.51918 -1.25723 -19.9772 10.237 -1.25723 -22.3759 
18.9547 -1.25723 -20.3468 27.6725 -1.25723 -21.9964 36.3903 -1.25723 -22.9074 
45.1081 -1.25723 -22.3278 53.8258 -1.25723 -18.8248 -50.7875 7.46054 -16.2059 
-42.0697 7.46054 -20.1601 -33.3519 7.46054 -21.0631 -24.6341 7.46054 -20.3992 
-15.9164 7.46054 -20.2143 -7.19859 7.46054 -20.8842 1.51918 7.46054 -20.5782 
10.237 7.46054 -20.6261 18.9547 7.46054 -20.3363 27.6725 7.46054 -21.8258 
36.3903 7.46054 -22.3508 45.1081 7.46054 -21.2423 -42.0697 16.1783 -18.0086 
-33.3519 16.1783 -18.8779 -24.6341 16.1783 -18.2711 1.51918 16.1783 -17.2354 
10.237 16.1783 -18.9124 18.9547 16.1783 -19.6084 27.6725 16.1783 -20.7659 
36.3903 16.1783 -21.1416 45.1081 16.1783 -18.4598 -33.3519 24.8961 -16.0644 
1.51918 24.8961 -15.9584 10.237 24.8961 -18.0119 18.9547 24.8961 -18.8234 
27.6725 24.8961 -19.5726 36.3903 24.8961 -18.6636 10.237 33.6139 -16.3847 
18.9547 33.6139 -16.9663 27.6725 33.6139 -17.1308 36.3903 33.6139 -16.0461 
-24.6341 -47.4937 -15.9428 -15.9164 -51.4294 -15.9428 -7.19859 -52.4691 -15.9428 
-7.19859 -53.5639 -9.26623 1.51918 -51.6042 -15.9428 10.237 -49.0536 -15.9428 
18.9547 -46.0123 -15.9428 -29.5189 -44.8461 -15.9428 -33.3519 -42.1225 -15.9428 
-33.3519 -44.8461 -9.98914 22.4594 -44.8461 -15.9428 27.6725 -42.6396 -15.9428 
27.6725 -44.8461 -10.5819 36.3903 -37.8142 -15.9428 -40.4045 -36.1283 -15.9428 
-42.0697 -34.4138 -15.9428 -42.0697 -36.1283 -13.504 38.8907 -36.1283 -15.9428 
45.1081 -31.3005 -15.9428 45.1081 -36.1283 -8.50073 -47.1166 -27.4106 -15.9428 
-50.7875 -20.7176 -15.9428 -50.7875 -27.4106 -8.53349 49.5743 -27.4106 -15.9428 
53.8258 -22.4637 -15.9428 53.8258 -27.4106 -11.0845 -51.6185 -18.6928 -15.9428 
56.4145 -18.6928 -15.9428 -52.9396 -9.97501 -15.9428 57.614 -9.97501 -15.9428 
62.5436 -9.97501 -8.54929 -53.163 -1.25723 -15.9428 56.7867 -1.25723 -15.9428 
53.8258 6.9573 -15.9428 -51.0869 7.46054 -15.9428 -50.7875 8.38251 -15.9428 
-15.9164 15.8714 -15.9428 -7.19859 12.6017 -15.9428 53.6031 7.46054 -15.9428 
53.8258 7.46054 -15.5571 -46.689 16.1783 -15.9428 -50.7875 16.1783 -13.236 
-42.0697 23.1407 -15.9428 -16.4319 16.1783 -15.9428 -24.6341 23.6177 -15.9428 
-15.9164 16.1783 -15.7866 -0.538396 16.1783 -15.9428 -7.19859 16.1783 -12.8581 
48.2932 16.1783 -15.9428 45.1081 22.4194 -15.9428 -50.7875 24.8961 -8.83603 
-34.9625 24.8961 -15.9428 -42.0697 24.8961 -15.2594 -31.3358 24.8961 -15.9428 
-33.3519 25.2963 -15.9428 -24.6341 24.8961 -15.5488 -15.9164 24.8961 -13.9853 
1.46409 24.8961 -15.9428 -7.19859 24.8961 -13.5502 1.51918 25.0192 -15.9428 
43.1356 24.8961 -15.9428 45.1081 24.8961 -14.3839 -42.0697 33.6139 -9.55967 
-33.3519 33.6139 -12.9183 -24.6341 33.6139 -12.9304 -15.9164 33.6139 -12.4895 
-7.19859 33.6139 -13.165 7.75828 33.6139 -15.9428 1.51918 33.6139 -14.855 
10.237 34.8063 -15.9428 18.9547 36.4712 -15.9428 27.6725 36.0126 -15.9428 
36.5689 33.6139 -15.9428 36.3903 33.7689 -15.9428 -24.6341 42.3316 -8.55676 
-15.9164 42.3316 -10.2136 -7.19859 42.3316 -10.6142 1.51918 42.3316 -11.8962 
10.237 42.3316 -12.7989 18.9547 42.3316 -13.1729 27.6725 42.3316 -11.2355 
-7.19859 -53.807 -7.22501 -33.3519 -45.6801 -7.22501 -24.6341 -50.3893 -7.22501 
-10.0711 -53.5639 -7.22501 -15.9164 -52.9987 -7.22501 -3.52449 -53.5639 -7.22501 
-7.19859 -53.5639 -6.6598 1.51918 -53.1886 -7.22501 10.237 -50.9521 -7.22501 
18.9547 -48.7808 -7.22501 27.6725 -45.7586 -7.22501 -34.5317 -44.8461 -7.22501 
-42.0697 -38.838 -7.22501 -33.3519 -44.8461 -5.65422 18.9547 -44.8461 -0.419523 
29.686 -44.8461 -7.22501 27.6725 -44.8461 -4.74289 36.3903 -41.6309 -7.22501 
45.1081 -36.7483 -7.22501 -44.8529 -36.1283 -7.22501 -50.7875 -28.1711 -7.22501 
-42.0697 -36.1283 -1.1162 46.0107 -36.1283 -7.22501 45.1081 -36.1283 -5.46481 
53.8258 -29.9479 -7.22501 -51.2664 -27.4106 -7.22501 -50.7875 -27.4106 -4.94888 
56.2826 -27.4106 -7.22501 53.8258 -27.4106 1.37059 -55.0867 -18.6928 -7.22501 
61.9301 -18.6928 -7.22501 62.5436 -14.6408 -7.22501 -57.0799 -9.97501 -7.22501 
62.5436 -7.46512 -7.22501 62.5436 -9.97501 -4.0793 -58.2596 -1.25723 -7.22501 
60.9763 -1.25723 -7.22501 -57.3552 7.46054 -7.22501 57.5926 7.46054 -7.22501 
53.8258 14.6166 -7.22501 -55.7186 16.1783 -7.22501 53.1072 16.1783 -7.22501 
-52.1441 24.8961 -7.22501 -50.7875 27.298 -7.22501 49.342 24.8961 -7.22501 
45.1081 33.4783 -7.22501 -45.4612 33.6139 -7.22501 -42.0697 36.6373 -7.22501 
-33.3519 40.785 -7.22501 45.026 33.6139 -7.22501 36.3903 42.1203 -7.22501 
45.1081 33.6139 -6.77409 -29.2728 42.3316 -7.22501 -33.3519 42.3316 -4.70021 
-24.6341 43.8627 -7.22501 -15.9164 46.3163 -7.22501 -7.19859 46.5357 -7.22501 
1.51918 47.9235 -7.22501 10.237 48.1613 -7.22501 18.9547 47.2624 -7.22501 
35.924 42.3316 -7.22501 27.6725 45.5075 -7.22501 36.3903 42.3316 -6.24749 
-24.6341 -44.858 1.49277 -15.9164 -47.6398 1.49277 -7.19859 -48.4044 1.49277 
1.51918 -47.7421 1.49277 10.237 -45.7123 1.49277 -24.6576 -44.8461 1.49277 
-33.3519 -40.8789 1.49277 -24.6341 -44.8461 1.50502 -15.9164 -44.8461 3.99153 
-7.19859 -44.8461 4.53491 1.51918 -44.8461 3.96044 13.4496 -44.8461 1.49277 
10.237 -44.8461 2.28203 18.9547 -43.2276 1.49277 27.6725 -41.536 1.49277 
36.3903 -37.5062 1.49277 -40.4634 -36.1283 1.49277 -42.0697 -34.9962 1.49277 
-33.3519 -36.1283 7.12889 -24.6341 -36.1283 9.52468 1.51918 -36.1283 9.67144 
10.237 -36.1283 8.22258 18.9547 -36.1283 6.81867 27.6725 -36.1283 5.8563 
38.9938 -36.1283 1.49277 36.3903 -36.1283 2.78013 45.1081 -33.2694 1.49277 
-49.3251 -27.4106 1.49277 -50.7875 -25.2555 1.49277 53.7718 -27.4106 1.49277 
45.1081 -27.4106 7.79972 53.8258 -27.3627 1.49277 -54.5661 -18.6928 1.49277 
59.766 -18.6928 1.49277 53.8258 -18.6928 9.25062 -57.8852 -9.97501 1.49277 
61.4375 -9.97501 1.49277 -59.3886 -1.25723 1.49277 59.4871 -1.25723 1.49277 
-59.414 7.46054 1.49277 56.3716 7.46054 1.49277 53.8258 13.0378 1.49277 
53.8258 7.46054 8.55995 -58.1638 16.1783 1.49277 52.6915 16.1783 1.49277 
-55.1721 24.8961 1.49277 -50.7875 32.0587 1.49277 49.7373 24.8961 1.49277 
-49.593 33.6139 1.49277 -42.0697 40.5217 1.49277 46.3543 33.6139 1.49277 
45.1081 35.3687 1.49277 45.1081 33.6139 6.2692 -38.8916 42.3316 1.49277 
-33.3519 44.9743 1.49277 -24.6341 47.4724 1.49277 -15.9164 48.9795 1.49277 
-7.19859 50.4797 1.49277 1.51918 50.7248 1.49277 10.237 50.1702 1.49277 
18.9547 48.8139 1.49277 27.6725 47.0226 1.49277 38.3224 42.3316 1.49277 
36.3903 43.623 1.49277 36.3903 42.3316 5.93449 -15.9164 -36.3531 10.2105 
-7.19859 -36.5013 10.2105 -42.0697 -29.1549 10.2105 -33.3519 -33.1213 10.2105 
-17.6612 -36.1283 10.2105 -24.6341 -35.2573 10.2105 -15.9164 -36.1283 10.3602 
-4.5527 -36.1283 10.2105 -7.19859 -36.1283 10.4387 1.51918 -35.0261 10.2105 
10.237 -32.0492 10.2105 18.9547 -29.6152 10.2105 27.6725 -29.2297 10.2105 
36.3903 -27.6232 10.2105 -44.1901 -27.4106 10.2105 -50.7875 -21.1303 10.2105 
-42.0697 -27.4106 12.2064 -33.3519 -27.4106 15.1519 -24.6341 -27.4106 15.9729 
-15.9164 -27.4106 15.5068 -7.19859 -27.4106 15.099 1.51918 -27.4106 13.9779 
10.237 -27.4106 12.4228 18.9547 -27.4106 11.3352 27.6725 -27.4106 11.2129 
37.0243 -27.4106 10.2105 36.3903 -27.4106 10.377 45.1081 -24.3654 10.2105 
-52.6274 -18.6928 10.2105 -50.7875 -18.6928 13.3406 10.237 -18.6928 18.3588 
18.9547 -18.6928 16.7247 27.6725 -18.6928 16.689 36.3903 -18.6928 16.2481 
52.3961 -18.6928 10.2105 45.1081 -18.6928 13.9681 53.8258 -16.737 10.2105 
-57.1988 -9.97501 10.2105 45.1081 -9.97501 18.2686 56.4237 -9.97501 10.2105 
53.8258 -9.97501 12.9309 -58.9339 -1.25723 10.2105 55.6492 -1.25723 10.2105 
53.8258 5.47061 10.2105 53.8258 -1.25723 12.668 -59.1136 7.46054 10.2105 
53.277 7.46054 10.2105 -57.4955 16.1783 10.2105 50.5861 16.1783 10.2105 
45.1081 16.1783 18.7397 -53.8786 24.8961 10.2105 -50.7875 29.4261 10.2105 
-50.7875 24.8961 15.0735 48.1052 24.8961 10.2105 45.1081 31.5427 10.2105 
45.1081 24.8961 14.9575 -47.1722 33.6139 10.2105 -42.0697 37.9357 10.2105 
-42.0697 33.6139 15.1132 43.7384 33.6139 10.2105 36.3903 40.6122 10.2105 
36.3903 33.6139 16.8807 -33.7804 42.3316 10.2105 -33.3519 42.5262 10.2105 
-33.3519 42.3316 10.5101 -24.6341 44.2713 10.2105 -24.6341 42.3316 12.7438 
-15.9164 45.8593 10.2105 -15.9164 42.3316 14.6996 -7.19859 47.1503 10.2105 
-7.19859 42.3316 16.111 1.51918 48.1436 10.2105 1.51918 42.3316 17.5661 
10.237 47.7715 10.2105 10.237 42.3316 17.8486 18.9547 46.2195 10.2105 
18.9547 42.3316 15.7395 32.503 42.3316 10.2105 27.6725 44.0119 10.2105 
[...]
POINT_DATA 497
SCALARS ImageScalars float
LOOKUP_TABLE default
0 0 0 0 0 0 0 0 0 
0 0 0 0 0 0 0 0 0 
0 0 0 0 0 0 0 0 0 
0 0 0 0 0 0 0 0 0 
0 0 0 0 0 0 0 0 0 
0 0 0 0 0 0 0 0 0 
0 0 0 0 0 0 0 0 0 
0 0 0 0 0 0 0 0 0 
0 0 0 0 0 0 0 0 0 
0 0 0 0 0 0 0 0 0 
0 0 0 0 0 0 0 0 0 
0 0 0 0 0 0 0 0 0 
0 0 0 0 0 0 0 0 0 
0 0 0 0 0 0 0 0 0 
0 0 0 0 0 0 0 0 0 
0 0 0 0 0 0 0 0 0 
0 0 0 0 0 0 0 0 0 
0 0 0 0 0 0 0 0 0 
0 0 0 0 0 0 0 0 0 
0 0 0 0 0 0 0 0 0 
0 0 0 0 0 0 0 0 0 
0 0 0 0 0 0 0 0 0 
0 0 0 0 0 0 0 0 0 
0 0 0 0 0 0 0 0 0 
0 0 0 0 0 0 0 0 0 
0 0 0 0 0 0 0 0 0 
0 0 0 0 0 0 0 0 0 
0 0 0 0 0 0 0 0 0 
0 0 0 0 0 0 0 0 0 
0 0 0 0 0 0 0 0 0 
0 0 0 0 0 0 0 0 0 
0 0 0 0 0 0 0 0 0 
0 0 0 0 0 0 0 0 0 
0 0 0 0 0 0 0 0 0 
0 0 0 0 0 0 0 0 0 
0 0 0 0 0 0 0 0 0 
0 0 0 0 0 0 0 0 0 
0 0 0 0 0 0 0 0 0 
0 0 0 0 0 0 0 0 0 
0 0 0 0 0 0 0 0 0 
0 0 0 0 0 0 0 0 0 
0 0 0 0 0 0 0 0 0 
0 0 0 0 0 0 0 0 0 
0 0 0 0 0 0 0 0 0 
0 0 0 0 0 0 0 0 0 
0 0 0 0 0 0 0 0 0 
0 0 0 0 0 0 0 0 0 
0 0 0 0 0 0 0 0 0 
0 0 0 0 0 0 0 0 0 
0 0 0 0 0 0 0 0 0 
0 0 0 0 0 0 0 0 0 
0 0 0 0 0 0 0 0 0 
0 0 0 0 0 0 0 0 0 
0 0 0 0 0 0 0 0 0 
0 0 0 0 0 0 0 0 0 
0 0 
NORMALS Normals float
0.361964 0.564948 0.741495 0.140356 0.42157 0.895868 0.0063514 0.358855 0.933372 
-0.125651 0.421637 0.898017 -0.159562 0.560378 0.812721 -0.288663 0.718068 0.633286 
0.325223 0.390199 0.861379 0.111161 0.156434 0.981413 0.059828 0.067323 0.995936 
0.0156863 0.0404219 0.99906 -0.0131068 0.099106 0.994991 -0.0388782 0.184683 0.982029 
-0.141977 0.223409 0.964329 -0.244237 0.353202 0.903104 -0.419065 0.556714 0.717255 
0.425921 0.319339 0.846531 0.0811771 0.101004 0.991569 0.00441565 0.0188358 0.999813 
0.0101053 -0.0751988 0.997117 0.0389677 -0.0985373 0.99437 0.0412585 -0.0312132 0.998661 
0.00875421 0.0257415 0.99963 -0.0948021 -0.00405619 0.995488 -0.156663 0.0803134 0.984381 
-0.160619 0.229217 0.960032 -0.324636 0.429254 0.842824 0.713907 0.25179 0.653405 
0.270477 0.115958 0.955717 0.0200373 0.0655453 0.997648 -0.0789607 -0.00206335 0.996876 
-0.0590578 -0.104812 0.992737 0.0552398 -0.0065427 0.998452 0.115237 0.103453 0.987936 
-0.00862137 0.0341529 0.999379 -0.0796132 -0.134012 0.987777 -0.00580283 -0.0124058 0.999906 
-0.0650022 0.143508 0.987512 -0.210051 0.180772 0.960833 -0.483551 0.267106 0.833566 
0.66291 0.0696212 0.745455 0.226824 0.0430706 0.972983 -0.0352814 0.0139401 0.99928 
-0.16458 -0.0189247 0.986182 0.00059647 -0.036754 0.999324 0.25966 0.0548741 0.96414 
0.0662694 -0.0519521 0.996448 -0.242941 -0.0188083 0.969859 -0.118932 -0.0858641 0.989183 
0.112562 0.0362673 0.992983 0.0419399 0.0645232 0.997034 -0.163985 0.11764 0.979423 
-0.483143 0.0582397 0.873602 0.605983 -0.0985653 0.789347 0.205895 -0.132367 0.96958 
-0.0382799 -0.105743 0.993656 -0.134995 -0.0885261 0.986884 0.0134957 0.00705776 0.999884 
0.00602644 -0.0711241 0.997449 0.0494877 -0.259698 0.964421 -0.0169101 -0.16207 0.986634 
-0.0143309 -0.00010203 0.999897 0.146859 0.0437177 0.988191 0.0200588 0.00298323 0.999794 
-0.190667 -0.0305959 0.981178 -0.608692 -0.153987 0.77832 0.593271 -0.217982 0.774928 
0.23618 -0.22645 0.944955 0.0114567 -0.210445 0.977539 -0.0465088 -0.172369 0.983934 
0.0236761 -0.256009 0.966384 0.0211673 -0.379539 0.924934 -0.0135763 -0.119734 0.992713 
-0.0144004 -0.193494 0.980996 0.0696422 -0.0415922 0.996705 0.114496 -0.0695028 0.990989 
-0.0317785 -0.096302 0.994845 -0.302544 -0.195877 0.932791 0.248063 -0.2581 0.933729 
0.0155683 -0.275148 0.961276 -0.166682 -0.273998 0.947176 0.357878 -0.296602 0.88541 
0.107628 -0.14566 0.983463 0.104513 -0.0863769 0.990765 0.0860438 -0.127406 0.988111 
-0.106524 -0.221744 0.969269 -0.474323 -0.347336 0.808935 0.00762177 -0.304515 0.952477 
0.261238 -0.116326 0.958239 0.159111 -0.13801 0.977567 0.0862291 -0.145372 0.985612 
-0.00976983 -0.208895 0.977889 -0.222608 -0.272626 0.936013 0.115903 -0.263201 0.957754 
0.0411227 -0.272341 0.961322 -0.0496848 -0.364444 0.929899 -0.336021 -0.465325 0.818878 
0.409374 0.709585 0.5735 0.224437 0.828594 0.512893 0.0127186 0.877394 0.479601 
0.0120164 0.999558 -0.0271987 -0.171363 0.834766 0.52326 -0.257158 0.793184 0.552023 
-0.311928 0.777999 0.545361 0.470118 0.663034 0.582559 0.482232 0.632016 0.606637 
0.570865 0.814455 0.10381 -0.338462 0.763494 0.550018 -0.355019 0.707506 0.611062 
-0.399181 0.899595 0.177155 -0.440662 0.623166 0.646128 0.562969 0.559616 0.608191 
0.581073 0.539801 0.609073 0.642565 0.636183 0.427062 -0.438676 0.612097 0.657952 
-0.426329 0.561847 0.708923 -0.545518 0.825637 0.143994 0.652522 0.422633 0.628964 
0.734519 0.298516 0.609402 0.864165 0.483386 0.139845 -0.516518 0.506602 0.690335 
-0.578839 0.404659 0.707953 -0.694899 0.636458 0.334718 0.753467 0.249932 0.60813 
-0.61674 0.289719 0.731911 0.764695 0.0787642 0.63956 -0.665092 0.0159769 0.74659 
-0.978147 -0.0494198 0.201958 0.715247 -0.0812667 0.694131 -0.737766 -0.180273 0.65054 
-0.720021 -0.350402 0.598989 0.606208 -0.214437 0.765852 0.593233 -0.224229 0.773173 
-0.283149 -0.322113 0.903366 0.0518552 -0.503996 0.862148 -0.715319 -0.358887 0.599598 
-0.733019 -0.366566 0.572987 0.418232 -0.275695 0.865491 0.632514 -0.295879 0.715809 
0.274737 -0.369554 0.887665 -0.285022 -0.320768 0.903256 -0.118401 -0.295969 0.947831 
-0.29112 -0.322291 0.900765 0.330299 -0.335876 0.882094 0.0353574 -0.356539 0.933611 
-0.614039 -0.39693 0.682204 -0.56849 -0.398419 0.719778 0.705812 -0.415847 0.573499 
0.0583627 -0.323988 0.944259 0.290271 -0.407586 0.865804 -0.0205185 -0.303189 0.952709 
0.0119294 -0.305919 0.951983 -0.109136 -0.295724 0.949019 -0.115123 -0.179596 0.976981 
0.260262 -0.115258 0.958634 0.0986631 0.0161059 0.994991 0.260033 -0.117397 0.958437 
-0.512724 -0.380224 0.769769 -0.642823 -0.417278 0.642385 0.432956 -0.572652 0.696146 
0.156459 -0.419422 0.894207 -0.0232383 -0.349436 0.936672 0.0116097 -0.21065 0.977493 
0.133891 -0.148431 0.979817 0.132973 -0.248392 0.959489 0.178127 -0.204888 0.96244 
0.112701 -0.293921 0.949162 0.0209848 -0.362974 0.931563 -0.0913151 -0.428728 0.898807 
-0.343756 -0.467959 0.814154 -0.338175 -0.470922 0.814783 0.206732 -0.657187 0.724822 
0.111389 -0.489084 0.865095 0.0961874 -0.453955 0.885817 0.113575 -0.512265 0.851284 
0.0655803 -0.567909 0.820475 -0.0608165 -0.637604 0.76796 -0.246908 -0.734001 0.632676 
0.00952052 0.986731 -0.162085 0.55595 0.825722 -0.095415 0.363958 0.925016 -0.108999 
0.0691035 0.984483 -0.161299 0.188442 0.969336 -0.157725 -0.0584953 0.984542 -0.165095 
0.00947207 0.981486 -0.191298 -0.151143 0.974455 -0.166111 -0.244351 0.959908 -0.137363 
-0.276412 0.955059 -0.107044 -0.383191 0.922505 -0.0463648 0.572732 0.815651 -0.0817946 
0.672443 0.740148 0.00148769 0.536506 0.826591 -0.170023 -0.197343 0.816492 -0.542584 
-0.403975 0.914325 -0.0285257 -0.354361 0.914338 -0.195994 -0.467423 0.88399 0.00879385 
-0.545472 0.836132 0.0578207 0.722925 0.690759 0.0152417 0.865858 0.495788 0.0669599 
0.612359 0.725774 -0.313478 -0.555811 0.829139 0.0600172 -0.531837 0.845435 -0.0488699 
-0.689825 0.713948 0.120084 0.874272 0.480574 0.0685337 0.862916 0.50495 -0.0200629 
-0.750362 0.647673 0.132199 -0.620492 0.658043 -0.426578 0.94374 0.299039 0.141178 
-0.923582 0.358228 0.136638 -0.977745 0.159205 0.136633 0.959279 0.164041 0.229945 
-0.985623 -0.117759 0.121166 -0.998155 -0.0494747 -0.035189 0.957484 0.0157576 0.288055 
-0.955831 -0.276131 0.100687 0.916939 -0.12601 0.378608 -0.885986 -0.449457 0.11409 
-0.902423 -0.408384 0.137313 0.858735 -0.26031 0.441376 -0.902057 -0.402821 0.155015 
0.756187 -0.417917 0.503514 0.724491 -0.469314 0.504833 -0.883817 -0.397556 0.246612 
-0.784743 -0.511918 0.349454 0.565853 -0.598797 0.566791 0.471995 -0.660539 0.583874 
0.291392 -0.753316 0.589581 -0.781968 -0.514667 0.351632 -0.44806 -0.800735 0.397575 
-0.790891 -0.514895 0.330717 0.271773 -0.741198 0.613812 0.329803 -0.855744 0.398664 
0.24465 -0.711563 0.658654 0.133588 -0.724038 0.6767 0.0827232 -0.720657 0.688339 
0.0758507 -0.779701 0.621541 -0.0394172 -0.854274 0.518326 -0.138522 -0.888854 0.436749 
-0.436624 -0.806402 0.398843 -0.271242 -0.871852 0.407801 -0.455849 -0.819596 0.347079 
0.294358 0.706784 -0.643281 0.145902 0.731117 -0.666469 0.00442941 0.737298 -0.675553 
-0.111731 0.714489 -0.690667 -0.185812 0.709605 -0.679658 0.294566 0.706862 -0.643099 
0.381496 0.764566 -0.519518 0.294168 0.706582 -0.643589 0.125229 0.660455 -0.740349 
-0.00255217 0.634308 -0.773077 -0.103566 0.630285 -0.769425 -0.178397 0.71407 -0.676962 
-0.176131 0.685674 -0.706278 -0.164055 0.715037 -0.679565 -0.230332 0.747716 -0.62279 
-0.344327 0.738562 -0.579625 0.529152 0.713688 -0.458964 0.568981 0.701645 -0.428899 
0.322454 0.696405 -0.641127 0.131744 0.615655 -0.776925 -0.11217 0.47653 -0.871973 
-0.140872 0.479721 -0.866039 -0.11695 0.502319 -0.856737 -0.179312 0.595808 -0.782854 
-0.352914 0.743749 -0.567705 -0.321498 0.710304 -0.626184 -0.404859 0.766405 -0.498711 
0.76816 0.570215 -0.29118 0.817579 0.524844 -0.236863 -0.616381 0.656626 -0.434645 
-0.342857 0.657524 -0.670903 -0.618391 0.655058 -0.434156 0.903307 0.410778 -0.123686 
-0.854451 0.333944 -0.397987 -0.60182 0.437372 -0.66822 0.966536 0.256434 0.00710698 
-0.943415 -0.0258684 -0.330604 0.995693 0.0862436 0.0340164 -0.931566 -0.244736 -0.268867 
0.993688 -0.0669824 0.0899905 -0.89489 -0.393975 -0.209656 -0.923926 -0.346694 -0.161755 
-0.87719 -0.307085 -0.369103 0.970946 -0.225656 0.0796381 -0.936751 -0.323142 -0.134447 
0.899675 -0.429739 0.0768747 0.797907 -0.601599 0.0377098 -0.940085 -0.334106 -0.0679161 
0.762909 -0.645519 0.0357179 0.571954 -0.820064 0.0190712 -0.86671 -0.496201 -0.0509757 
-0.833791 -0.54936 -0.0547408 -0.814239 -0.529101 -0.238886 0.485891 -0.873655 0.0252453 
0.361767 -0.931285 0.0428066 0.22016 -0.975461 -0.00218943 0.173669 -0.984204 -0.0343884 
0.098668 -0.99512 2.17505e-05 -0.0175772 -0.999836 -0.00426447 -0.107657 -0.993826 -0.0268359 
-0.174112 -0.983284 -0.0532616 -0.288139 -0.954587 -0.075765 -0.546752 -0.834964 -0.0624282 
-0.484287 -0.872957 -0.0584123 -0.480991 -0.839081 -0.254148 0.041655 0.544196 -0.837923 
-0.0325639 0.501839 -0.864348 0.448854 0.685852 -0.572832 0.248972 0.661518 -0.707394 
0.057266 0.556888 -0.828611 0.117309 0.607046 -0.78596 0.0399238 0.542387 -0.83918 
-0.0572385 0.491817 -0.868815 -0.0338711 0.498853 -0.866025 -0.115139 0.471851 -0.874128 
-0.134158 0.453182 -0.881265 -0.0707561 0.462759 -0.883656 -0.0657437 0.501117 -0.862879 
-0.148868 0.594422 -0.790253 0.500055 0.677142 -0.539837 0.708466 0.594236 -0.380735 
0.421937 0.676366 -0.603736 0.151806 0.623872 -0.766641 0.0130811 0.532966 -0.846035 
-0.042099 0.463524 -0.885084 -0.0752852 0.460012 -0.884715 -0.138872 0.468483 -0.872489 
-0.130129 0.454449 -0.881217 -0.0617961 0.46958 -0.880725 -0.0431271 0.496716 -0.866841 
-0.158119 0.596572 -0.78683 -0.144814 0.592804 -0.79222 -0.317373 0.576604 -0.752863 
0.763689 0.547591 -0.341941 0.674467 0.582572 -0.453546 -0.109889 0.602743 -0.790332 
-0.070079 0.598512 -0.798043 -0.0237092 0.552378 -0.833257 -0.130908 0.496303 -0.858223 
-0.540457 0.444235 -0.714536 -0.298272 0.459884 -0.836386 -0.611208 0.368792 -0.700298 
0.916851 0.330346 -0.224179 -0.364405 0.290643 -0.884723 -0.746538 0.101839 -0.657503 
-0.64882 0.135806 -0.748725 0.977303 0.10033 -0.18658 -0.837886 -0.147485 -0.525542 
-0.860734 -0.254839 -0.440675 -0.787979 -0.109444 -0.605896 0.979203 -0.0748212 -0.18858 
-0.865791 -0.279506 -0.415068 0.927425 -0.269752 -0.259068 -0.890885 -0.26346 -0.370016 
-0.651337 -0.205836 -0.730337 0.819699 -0.481961 -0.309529 0.747906 -0.573731 -0.333871 
0.694841 -0.479501 -0.535981 -0.872556 -0.334395 -0.356127 -0.777857 -0.493642 -0.388916 
-0.744682 -0.342178 -0.573029 0.645844 -0.662157 -0.380043 0.513503 -0.751386 -0.414407 
0.471634 -0.639862 -0.606744 -0.724834 -0.547916 -0.417617 -0.470141 -0.751227 -0.463276 
-0.43451 -0.51172 -0.741177 0.306627 -0.848833 -0.430654 0.296172 -0.851718 -0.432272 
0.293853 -0.847187 -0.442634 0.168347 -0.849516 -0.499981 0.149752 -0.807588 -0.570417 
0.14415 -0.850031 -0.506624 0.129587 -0.753052 -0.645073 0.115084 -0.850622 -0.513028 
0.1112 -0.698939 -0.706484 0.029544 -0.876928 -0.479713 0.0678387 -0.704346 -0.706608 
-0.100467 -0.89597 -0.432601 -0.0670901 -0.705571 -0.705457 -0.191984 -0.877791 -0.43889 
-0.194294 -0.745268 -0.637828 -0.366671 -0.809835 -0.457952 -0.263687 -0.846251 -0.462957 
-0.261646 -0.797605 -0.543478 0.303412 0.55314 -0.775872 0.0769734 0.531114 -0.843797 
-0.0660727 0.431155 -0.899855 -0.0562324 0.370204 -0.927247 -0.0290131 0.448197 -0.893464 
-0.0491477 0.398637 -0.915791 0.349053 0.551128 -0.757905 0.572284 0.459551 -0.679193 
0.289744 0.535492 -0.793282 0.02819 0.451677 -0.891736 -0.0992786 0.370695 -0.923433 
-0.055023 0.357609 -0.932249 -0.0235873 0.448437 -0.893503 -0.0526363 0.412969 -0.909223 
-0.0482704 0.397815 -0.916195 -0.0930695 0.592843 -0.799922 -0.092782 0.567708 -0.817985 
-0.07089 0.486059 -0.871046 -0.158722 0.405939 -0.900012 0.64855 0.370982 -0.664647 
0.548561 0.353223 -0.757835 0.194423 0.265746 -0.944234 -0.0773157 0.22764 -0.970671 
-0.115453 0.196591 -0.973665 0.0481122 0.256284 -0.965403 -0.0540564 0.434994 -0.898809 
-0.0208833 0.299093 -0.953995 0.0864918 0.395005 -0.914598 -0.0928603 0.413051 -0.905961 
-0.131127 0.364081 -0.92209 -0.313965 0.307638 -0.898212 -0.181308 0.344953 -0.920942 
-0.398744 0.220786 -0.890088 0.751826 0.104676 -0.651 0.493355 0.0956304 -0.864555 
0.130966 0.0377066 -0.99067 -0.0649735 0.0382019 -0.997155 -0.067271 0.0819947 -0.99436 
0.196473 0.0858166 -0.976747 0.0524383 0.0615829 -0.996724 -0.0549433 0.332785 -0.941401 
0.0219954 0.309669 -0.95059 -0.142561 0.181918 -0.972925 -0.137873 0.163363 -0.976885 
-0.213057 0.157585 -0.964248 -0.499866 0.0833415 -0.862084 -0.44952 0.103998 -0.887195 
0.732308 -0.136597 -0.667133 0.491114 -0.140646 -0.859666 0.144483 -0.025099 -0.989189 
-0.0344065 0.0217369 -0.999171 -0.0744997 0.0724322 -0.994587 0.0551911 0.0462078 -0.997406 
0.186257 -0.163766 -0.968756 0.191241 0.0406475 -0.980701 -0.231785 0.0367195 -0.972074 
-0.1575 0.0430764 -0.986579 -0.247423 0.0126643 -0.968825 -0.598927 -0.0858638 -0.796187 
-0.638867 -0.192935 -0.744731 -0.533903 -0.0569048 -0.843629 0.627688 -0.308566 -0.714699 
0.598807 -0.353217 -0.718796 0.580413 -0.301901 -0.756292 0.276256 -0.193159 -0.941473 
0.0334821 -0.0910623 -0.995282 -0.0455582 0.00565566 -0.998946 -0.0462381 0.0600473 -0.997124 
0.0528448 -0.0467847 -0.997506 0.164908 -0.0985947 -0.981369 0.0136013 -0.173424 -0.984753 
-0.146382 -0.0856072 -0.985517 -0.167443 -0.0711825 -0.983309 -0.638329 -0.203388 -0.742408 
-0.296597 -0.118042 -0.947679 0.498202 -0.441911 -0.745995 0.39601 -0.504327 -0.767353 
0.349393 -0.416109 -0.839511 0.173645 -0.300875 -0.937722 0.0733996 -0.211232 -0.974676 
0.00363251 -0.148177 -0.988954 0.0268554 -0.112336 -0.993307 0.0620036 -0.128304 -0.989795 
-0.0300678 -0.220643 -0.974891 -0.119253 -0.209434 -0.970524 -0.192926 -0.222333 -0.955692 
-0.502602 -0.328189 -0.799802 -0.391832 -0.416789 -0.820216 -0.366711 -0.309838 -0.877225 
0.298854 -0.559682 -0.772943 0.258438 -0.576178 -0.775389 0.256328 -0.542104 -0.800262 
0.115751 -0.612427 -0.782007 0.107334 -0.518261 -0.848461 0.098703 -0.594464 -0.798042 
0.0656247 -0.466102 -0.882294 0.100651 -0.572621 -0.813618 0.0785759 -0.396286 -0.914758 
0.0677992 -0.637499 -0.767462 0.0480688 -0.370286 -0.927673 -0.0644516 -0.647254 -0.759545 
-0.0639748 -0.372777 -0.925713 -0.18184 -0.588872 -0.787505 -0.149581 -0.412417 -0.898631 
-0.321056 -0.473812 -0.820015 -0.2559 -0.520296 -0.814744 -0.248764 -0.455179 -0.854943 
-0.0111489 0.181778 -0.983276 0.131387 0.0382028 -0.990595 -0.138973 0.0371214 -0.9896 
0.00170008 -0.127899 -0.991786 -0.0414288 0.0332674 -0.998587 
