# vtk DataFile Version 4.2
vtk output
ASCII
DATASET POLYDATA
POINTS 534 float
-27.4599 -30.3761 -13.6613 -20.0121 -30.3761 -14.6526 -12.5642 -30.3761 -14.1679 
-5.1164 -30.3761 -13.111 2.33145 -30.3761 -13.5929 9.77931 -30.3761 -13.9605 
17.2272 -30.3761 -13.6642 24.675 -30.3761 -13.3744 -27.4599 -22.9283 -15.1956 
-20.0121 -22.9283 -15.3866 -12.5642 -22.9283 -14.4162 -5.1164 -22.9283 -14.7004 
2.33145 -22.9283 -16.9086 9.77931 -22.9283 -17.7233 17.2272 -22.9283 -17.6941 
24.675 -22.9283 -17.7318 32.1229 -22.9283 -16.7615 39.5707 -22.9283 -15.691 
-27.4599 -15.4804 -14.9606 -20.0121 -15.4804 -15.5626 -12.5642 -15.4804 -14.2918 
-5.1164 -15.4804 -15.2215 2.33145 -15.4804 -19.0578 9.77931 -15.4804 -19.1456 
17.2272 -15.4804 -18.6478 24.675 -15.4804 -18.6503 32.1229 -15.4804 -18.5597 
39.5707 -15.4804 -18.3248 47.0186 -15.4804 -15.726 -27.4599 -8.03256 -14.3087 
-20.0121 -8.03256 -16.063 -12.5642 -8.03256 -14.8446 -5.1164 -8.03256 -14.8619 
2.33145 -8.03256 -19.7587 9.77931 -8.03256 -18.9176 17.2272 -8.03256 -17.5189 
24.675 -8.03256 -18.1639 32.1229 -8.03256 -18.7444 39.5707 -8.03256 -18.3915 
47.0186 -8.03256 -16.8936 54.4664 -8.03256 -12.9174 -27.4599 -0.584705 -13.6792 
-20.0121 -0.584705 -16.4941 -12.5642 -0.584705 -18.1776 -5.1164 -0.584705 -15.7165 
2.33145 -0.584705 -17.4791 9.77931 -0.584705 -17.6667 17.2272 -0.584705 -16.8427 
24.675 -0.584705 -18.204 32.1229 -0.584705 -19.0638 39.5707 -0.584705 -18.9421 
47.0186 -0.584705 -17.4738 54.4664 -0.584705 -13.6184 -34.9078 6.86315 -12.86 
-27.4599 6.86315 -14.3082 -20.0121 6.86315 -14.8145 -12.5642 6.86315 -16.8527 
-5.1164 6.86315 -18.2846 2.33145 6.86315 -17.6566 9.77931 6.86315 -16.1098 
17.2272 6.86315 -17.4335 24.675 6.86315 -18.7398 32.1229 6.86315 -19.4871 
39.5707 6.86315 -19.1714 47.0186 6.86315 -17.5521 54.4664 6.86315 -13.1482 
-42.3556 14.311 -13.1667 -34.9078 14.311 -14.3777 -27.4599 14.311 -15.2639 
-20.0121 14.311 -15.7623 -12.5642 14.311 -17.2056 -5.1164 14.311 -18.4554 
2.33145 14.311 -15.9826 9.77931 14.311 -16.0001 17.2272 14.311 -18.0847 
24.675 14.311 -19.5826 32.1229 14.311 -19.9866 39.5707 14.311 -18.4661 
47.0186 14.311 -15.7549 -42.3556 21.7588 -14.1011 -34.9078 21.7588 -14.7452 
-27.4599 21.7588 -15.9408 -20.0121 21.7588 -17.2125 -12.5642 21.7588 -18.3296 
-5.1164 21.7588 -18.0122 2.33145 21.7588 -15.8912 9.77931 21.7588 -17.0137 
17.2272 21.7588 -18.0559 24.675 21.7588 -18.5865 32.1229 21.7588 -18.1184 
39.5707 21.7588 -16.0406 -34.9078 29.2067 -14.8152 -27.4599 29.2067 -16.2255 
-20.0121 29.2067 -16.2381 -12.5642 29.2067 -16.8095 -5.1164 29.2067 -15.2891 
2.33145 29.2067 -14.832 9.77931 29.2067 -15.8083 17.2272 29.2067 -16.5233 
24.675 29.2067 -16.2933 32.1229 29.2067 -14.5246 -34.9078 -37.824 -7.88831 
-27.4599 -32.4559 -12.8516 -27.4599 -37.824 -10.4653 -20.0121 -34.7132 -12.8516 
-20.0121 -37.824 -11.4084 -12.5642 -33.8277 -12.8516 -12.5642 -37.824 -10.6961 
-5.1164 -30.9899 -12.8516 -5.1164 -37.824 -8.44893 2.33145 -31.3321 -12.8516 
9.77931 -31.5165 -12.8516 17.2272 -31.1896 -12.8516 24.675 -30.8278 -12.8516 
-42.3556 -30.3761 -5.81229 -30.0755 -30.3761 -12.8516 -34.9078 -30.3761 -11.2188 
27.5783 -30.3761 -12.8516 32.1229 -29.3717 -12.8516 32.1229 -30.3761 -11.4762 
39.5707 -26.8345 -12.8516 39.5707 -30.3761 -7.51483 -42.3556 -22.9283 -7.3283 
-34.0725 -22.9283 -12.8516 -34.9078 -22.9283 -12.4786 45.2097 -22.9283 -12.8516 
47.0186 -21.2342 -12.8516 47.0186 -22.9283 -11.3927 -42.3556 -15.4804 -7.27592 
-34.2883 -15.4804 -12.8516 -34.9078 -15.4804 -12.6115 51.4628 -15.4804 -12.8516 
54.4664 -8.20123 -12.8516 54.4664 -15.4804 -9.46809 -42.3556 -8.03256 -8.13467 
-31.7359 -8.03256 -12.8516 -34.9078 -8.03256 -11.748 54.5413 -8.03256 -12.8516 
-49.8035 -0.584705 -6.43765 -42.3556 -0.584705 -9.66428 -30.25 -0.584705 -12.8516 
-34.9078 6.82187 -12.8516 -34.9078 -0.584705 -11.563 55.283 -0.584705 -12.8516 
-49.8035 6.86315 -7.39515 -34.9405 6.86315 -12.8516 -42.3556 13.2559 -12.8516 
-42.3556 6.86315 -10.9962 54.7666 6.86315 -12.8516 54.4664 7.4955 -12.8516 
-44.4448 14.311 -12.8516 -49.8035 14.311 -11.6654 51.0743 14.311 -12.8516 
47.0186 19.3929 -12.8516 54.4664 14.311 -8.37475 -44.3842 21.7588 -12.8516 
-49.8035 21.7588 -9.33051 -42.3556 24.875 -12.8516 44.6351 21.7588 -12.8516 
39.5707 25.797 -12.8516 47.0186 21.7588 -10.0654 -49.8035 29.2067 -7.19179 
-39.4679 29.2067 -12.8516 -42.3556 29.2067 -11.3085 -34.9078 32.7142 -12.8516 
-27.4599 34.3156 -12.8516 -20.0121 34.6307 -12.8516 -12.5642 33.9128 -12.8516 
-5.1164 32.3781 -12.8516 2.33145 32.1702 -12.8516 9.77931 34.3715 -12.8516 
17.2272 35.7465 -12.8516 24.675 34.1547 -12.8516 34.8557 29.2067 -12.8516 
32.1229 30.9188 -12.8516 39.5707 29.2067 -7.00254 -34.9078 36.6545 -7.91998 
-27.4599 36.6545 -10.1264 -20.0121 36.6545 -9.02054 2.33145 36.6545 -7.1223 
9.77931 36.6545 -10.2845 17.2272 36.6545 -11.873 24.675 36.6545 -8.9249 
-34.9078 -39.6581 -5.40377 -27.4599 -43.5645 -5.40377 -20.0121 -43.5332 -5.40377 
-20.0121 -45.2718 1.63729 -12.5642 -42.7826 -5.40377 -5.1164 -40.2248 -5.40377 
-37.0749 -37.824 -5.40377 -42.3556 -30.8814 -5.40377 0.5924 -37.824 -5.40377 
2.33145 -37.1908 -5.40377 9.77931 -35.2714 -5.40377 17.2272 -34.6051 -5.40377 
24.675 -34.0614 -5.40377 32.1229 -33.2358 -5.40377 39.5707 -31.4902 -5.40377 
-42.6267 -30.3761 -5.40377 41.5372 -30.3761 -5.40377 47.0186 -27.1621 -5.40377 
-44.2763 -22.9283 -5.40377 51.8959 -22.9283 -5.40377 54.4664 -19.6536 -5.40377 
-44.8721 -15.4804 -5.40377 -49.8035 -15.4804 -0.0876314 57.1583 -15.4804 -5.40377 
-47.3538 -8.03256 -5.40377 -49.8035 -3.48315 -5.40377 -49.8035 -8.03256 -3.32583 
59.986 -8.03256 -5.40377 -51.0075 -0.584705 -5.40377 60.2762 -0.584705 -5.40377 
-52.1217 6.86315 -5.40377 59.2912 6.86315 -5.40377 -56.5192 14.311 -5.40377 
-57.2514 14.311 -3.3222 56.0646 14.311 -5.40377 54.4664 16.4993 -5.40377 
-54.8013 21.7588 -5.40377 49.7642 21.7588 -5.40377 47.0186 24.2408 -5.40377 
-51.3263 29.2067 -5.40377 -49.8035 30.9718 -5.40377 -42.3556 36.2535 -5.40377 
-12.5642 36.2533 -5.40377 -5.1164 35.6452 -5.40377 32.1229 34.5254 -5.40377 
40.5224 29.2067 -5.40377 39.5707 29.9199 -5.40377 -40.911 36.6545 -5.40377 
-34.9078 37.9548 -5.40377 -27.4599 38.9576 -5.40377 -14.486 36.6545 -5.40377 
-20.0121 37.8131 -5.40377 -20.0121 36.6545 -0.839994 -0.959299 36.6545 -5.40377 
2.33145 37.48 -5.40377 9.77931 39.2513 -5.40377 17.2272 39.8344 -5.40377 
28.023 36.6545 -5.40377 24.675 38.2486 -5.40377 -20.0121 -45.3607 2.04408 
-34.9078 -42.0938 2.04408 -24.4925 -45.2718 2.04408 -27.4599 -45.209 2.04408 
-19.5658 -45.2718 2.04408 -20.0121 -45.2718 2.2885 -12.5642 -43.8333 2.04408 
-5.1164 -41.2884 2.04408 -40.277 -37.824 2.04408 -42.3556 -35.6703 2.04408 
0.937797 -37.824 2.04408 -5.1164 -37.824 7.42561 2.33145 -37.1588 2.04408 
9.77931 -35.0054 2.04408 17.2272 -34.2865 2.04408 24.675 -33.5525 2.04408 
32.1229 -32.5265 2.04408 39.5707 -30.5114 2.04408 -46.1016 -30.3761 2.04408 
32.1229 -30.3761 7.02255 39.8086 -30.3761 2.04408 39.5707 -30.3761 2.28515 
47.0186 -26.1981 2.04408 -49.0865 -22.9283 2.04408 -49.8035 -20.4601 2.04408 
50.8644 -22.9283 2.04408 47.0186 -22.9283 6.91621 54.4664 -18.796 2.04408 
-51.0674 -15.4804 2.04408 56.7175 -15.4804 2.04408 54.4664 -15.4804 5.78099 
-53.1337 -8.03256 2.04408 59.4745 -8.03256 2.04408 -54.9739 -0.584705 2.04408 
60.0055 -0.584705 2.04408 -56.8828 6.86315 2.04408 -57.2514 8.60062 2.04408 
59.1323 6.86315 2.04408 -58.3412 14.311 2.04408 -57.2514 18.7309 2.04408 
-57.2514 14.311 3.9583 55.8183 14.311 2.04408 54.4664 16.1888 2.04408 
54.4664 14.311 4.80967 -56.4613 21.7588 2.04408 49.6061 21.7588 2.04408 
47.0186 24.198 2.04408 47.0186 21.7588 7.14584 -51.8473 29.2067 2.04408 
-49.8035 31.861 2.04408 -49.8035 29.2067 4.20597 -42.3556 34.9694 2.04408 
-34.9078 29.2067 9.19535 -20.0121 35.8229 2.04408 -12.5642 34.9467 2.04408 
-5.1164 35.3753 2.04408 32.1229 34.3843 2.04408 40.3934 29.2067 2.04408 
39.5707 29.8107 2.04408 39.5707 29.2067 3.64157 -38.3207 36.6545 2.04408 
-34.9078 37.8713 2.04408 -34.9078 36.6545 3.70242 -25.3783 36.6545 2.04408 
-27.4599 36.9517 2.04408 -27.4599 36.6545 2.50571 -0.892861 36.6545 2.04408 
2.33145 37.6201 2.04408 2.33145 36.6545 4.97552 9.77931 39.2605 2.04408 
9.77931 36.6545 9.48357 17.2272 39.6649 2.04408 17.2272 36.6545 9.29712 
27.5087 36.6545 2.04408 24.675 37.9424 2.04408 24.675 36.6545 5.92885 
-34.9078 -39.1477 9.49194 -27.4599 -41.4215 9.49194 -20.0121 -41.5435 9.49194 
-12.5642 -39.7192 9.49194 -36.8053 -37.824 9.49194 -42.3556 -32.8747 9.49194 
-34.9078 -37.824 11.1027 -27.4599 -37.824 12.9297 -20.0121 -37.824 12.5469 
-8.35494 -37.824 9.49194 -12.5642 -37.824 11.2363 -5.1164 -36.0886 9.49194 
2.33145 -33.4984 9.49194 9.77931 -32.6122 9.49194 17.2272 -32.0134 9.49194 
24.675 -30.9862 9.49194 -44.4484 -30.3761 9.49194 -42.3556 -30.3761 11.7931 
-34.9078 -30.3761 15.0118 -27.4599 -30.3761 16.6529 -20.0121 -30.3761 16.0878 
-12.5642 -30.3761 15.105 -5.1164 -30.3761 13.3699 2.33145 -30.3761 12.1951 
9.77931 -30.3761 12.3606 17.2272 -30.3761 11.7853 27.3383 -30.3761 9.49194 
24.675 -30.3761 10.3233 32.1229 -28.8981 9.49194 39.5707 -25.2911 9.49194 
-48.2609 -22.9283 9.49194 -49.8035 -19.393 9.49194 -42.3556 -22.9283 14.9485 
-12.5642 -22.9283 16.7151 -5.1164 -22.9283 15.6129 2.33145 -22.9283 15.8643 
24.675 -22.9283 16.7902 32.1229 -22.9283 14.4566 43.4851 -22.9283 9.49194 
39.5707 -22.9283 11.5947 47.0186 -19.9202 9.49194 -51.1949 -15.4804 9.49194 
-49.8035 -15.4804 11.6829 39.5707 -15.4804 15.6746 50.8255 -15.4804 9.49194 
47.0186 -15.4804 12.405 54.4664 -9.10925 9.49194 -52.3327 -8.03256 9.49194 
-49.8035 -8.03256 12.9363 47.0186 -8.03256 14.7444 54.9075 -8.03256 9.49194 
54.4664 -8.03256 9.92966 -53.5558 -0.584705 9.49194 -49.8035 -0.584705 13.9287 
47.0186 -0.584705 15.7701 55.891 -0.584705 9.49194 54.4664 -0.584705 10.9538 
-53.0946 6.86315 9.49194 -49.8035 6.86315 12.292 -42.3556 6.86315 14.9487 
-34.9078 6.86315 16.1065 -27.4599 6.86315 16.1094 47.0186 6.86315 15.4224 
55.3527 6.86315 9.49194 54.4664 8.77559 9.49194 54.4664 6.86315 10.4363 
[...]
POINT_DATA 534
SCALARS ImageScalars float
LOOKUP_TABLE default
0 0 0 0 0 0 0 0 0 
0 0 0 0 0 0 0 0 0 
0 0 0 0 0 0 0 0 0 
0 0 0 0 0 0 0 0 0 
0 0 0 0 0 0 0 0 0 
0 0 0 0 0 0 0 0 0 
0 0 0 0 0 0 0 0 0 
0 0 0 0 0 0 0 0 0 
0 0 0 0 0 0 0 0 0 
0 0 0 0 0 0 0 0 0 
0 0 0 0 0 0 0 0 0 
0 0 0 0 0 0 0 0 0 
0 0 0 0 0 0 0 0 0 
0 0 0 0 0 0 0 0 0 
0 0 0 0 0 0 0 0 0 
0 0 0 0 0 0 0 0 0 
0 0 0 0 0 0 0 0 0 
0 0 0 0 0 0 0 0 0 
0 0 0 0 0 0 0 0 0 
0 0 0 0 0 0 0 0 0 
0 0 0 0 0 0 0 0 0 
0 0 0 0 0 0 0 0 0 
0 0 0 0 0 0 0 0 0 
0 0 0 0 0 0 0 0 0 
0 0 0 0 0 0 0 0 0 
0 0 0 0 0 0 0 0 0 
0 0 0 0 0 0 0 0 0 
0 0 0 0 0 0 0 0 0 
0 0 0 0 0 0 0 0 0 
0 0 0 0 0 0 0 0 0 
0 0 0 0 0 0 0 0 0 
0 0 0 0 0 0 0 0 0 
0 0 0 0 0 0 0 0 0 
0 0 0 0 0 0 0 0 0 
0 0 0 0 0 0 0 0 0 
0 0 0 0 0 0 0 0 0 
0 0 0 0 0 0 0 0 0 
0 0 0 0 0 0 0 0 0 
0 0 0 0 0 0 0 0 0 
0 0 0 0 0 0 0 0 0 
0 0 0 0 0 0 0 0 0 
0 0 0 0 0 0 0 0 0 
0 0 0 0 0 0 0 0 0 
0 0 0 0 0 0 0 0 0 
0 0 0 0 0 0 0 0 0 
0 0 0 0 0 0 0 0 0 
0 0 0 0 0 0 0 0 0 
0 0 0 0 0 0 0 0 0 
0 0 0 0 0 0 0 0 0 
0 0 0 0 0 0 0 0 0 
0 0 0 0 0 0 0 0 0 
0 0 0 0 0 0 0 0 0 
0 0 0 0 0 0 0 0 0 
0 0 0 0 0 0 0 0 0 
0 0 0 0 0 0 0 0 0 
0 0 0 0 0 0 0 0 0 
0 0 0 0 0 0 0 0 0 
0 0 0 0 0 0 0 0 0 
0 0 0 0 0 0 0 0 0 
0 0 0 
NORMALS Normals float
-0.198953 -0.280021 -0.939152 -0.0286099 -0.232003 -0.972294 0.0974572 -0.207503 -0.973368 
0.0489655 -0.300642 -0.952479 -0.0529322 -0.550561 -0.833115 -0.00467384 -0.667223 -0.744843 
0.0329779 -0.695562 -0.717708 0.0908396 -0.746839 -0.658771 -0.167513 -0.0801251 -0.982608 
0.0520583 -0.0583579 -0.996937 0.0458897 -0.00962391 -0.9989 -0.161867 -0.129626 -0.978262 
-0.198457 -0.306701 -0.930886 -0.0515627 -0.30411 -0.951241 -0.000380164 -0.286436 -0.958099 
0.0632475 -0.281458 -0.957487 0.126622 -0.356512 -0.925671 0.266978 -0.450631 -0.851853 
-0.186628 0.0592761 -0.980641 0.0461649 -0.0445274 -0.997941 0.0347138 -0.0247819 -0.99909 
-0.312013 -0.0187389 -0.949893 -0.234606 -0.196716 -0.951978 0.0282839 -0.0769475 -0.996634 
0.0332067 0.0159325 -0.999322 0.00580109 -0.0223162 -0.999734 0.0201632 -0.135048 -0.990634 
0.194134 -0.172846 -0.965627 0.407978 -0.254218 -0.876885 -0.276062 0.0824043 -0.957601 
-0.0402521 -0.0606862 -0.997345 0.0827855 -0.260399 -0.961945 -0.335221 -0.0338658 -0.941531 
-0.198574 0.0913898 -0.975816 0.150323 0.0912199 -0.98442 0.0446327 0.120484 -0.991711 
-0.0844853 0.0303473 -0.995963 -0.0156045 -0.0334174 -0.99932 0.116257 -0.0405102 -0.992393 
0.29818 -0.121131 -0.946793 0.620788 -0.191842 -0.760144 -0.307095 -0.00119942 -0.951678 
-0.300198 0.0896429 -0.949655 0.040594 -0.133678 -0.990193 0.0641678 -0.228605 -0.971402 
-0.127153 0.14111 -0.981794 0.04792 0.197127 -0.979206 -0.0441199 0.00611774 -0.999008 
-0.147564 -0.0382288 -0.988313 -0.0490908 -0.0497398 -0.997555 0.0997506 -0.0517152 -0.993668 
0.296107 -0.0418913 -0.954236 0.634861 -0.0122271 -0.77253 -0.216922 -0.195407 -0.956431 
-0.119033 -0.103592 -0.987472 -0.14887 0.0447661 -0.987843 -0.252743 0.0688855 -0.965078 
-0.0428326 -0.162461 -0.985785 0.15479 0.0980682 -0.983068 0.00447071 0.0995207 -0.995025 
-0.176366 -0.0821665 -0.980889 -0.135876 -0.0911782 -0.986521 -0.0290158 -0.0603912 -0.997753 
0.120549 0.0322486 -0.992183 0.329121 0.110954 -0.937747 0.680343 0.206748 -0.703128 
-0.167856 -0.200064 -0.965297 -0.133568 -0.115864 -0.984243 -0.0885416 -0.108729 -0.99012 
-0.122301 -0.164967 -0.978687 -0.179307 -0.0986132 -0.978838 0.077175 0.018127 -0.996853 
0.172073 0.111743 -0.978726 -0.137971 -0.059135 -0.988669 -0.237836 -0.0411822 -0.970432 
-0.124386 0.0138772 -0.992137 0.0721915 0.0865591 -0.993628 0.260008 0.177184 -0.949211 
0.473568 0.337895 -0.813364 -0.321879 0.119004 -0.939272 -0.1181 -0.0300819 -0.992546 
-0.160571 -0.0603161 -0.98518 -0.161354 -0.0273313 -0.986518 -0.0537795 0.0274602 -0.998175 
0.163953 0.17661 -0.97053 0.0665431 0.0673419 -0.995508 -0.143151 0.00393113 -0.989693 
-0.107394 0.0968968 -0.989484 -0.00326688 0.203513 -0.979067 0.148788 0.308293 -0.939584 
0.392044 0.476798 -0.786743 -0.275219 0.249917 -0.92833 -0.113753 0.269055 -0.956384 
-0.0385297 0.329185 -0.943479 0.0491206 0.439623 -0.896838 0.136198 0.525567 -0.839779 
-0.037015 0.376146 -0.925821 -0.107075 0.325394 -0.939497 -0.0293015 0.330264 -0.943434 
0.108653 0.45387 -0.884419 0.353271 0.629016 -0.692487 -0.508752 -0.615208 -0.602238 
-0.179703 -0.335022 -0.924915 -0.163383 -0.536702 -0.827802 -0.0335495 -0.398915 -0.916374 
-0.0172661 -0.543589 -0.839174 0.101975 -0.349134 -0.931508 0.144699 -0.579266 -0.802193 
0.063183 -0.321966 -0.944641 0.283927 -0.753604 -0.592846 -0.0200591 -0.592191 -0.805548 
0.0105196 -0.728073 -0.685418 0.0411315 -0.738039 -0.673503 0.0933075 -0.772156 -0.628544 
-0.772619 -0.312867 -0.552426 -0.255303 -0.253988 -0.932904 -0.40538 -0.210357 -0.889616 
0.136634 -0.758403 -0.637303 0.191055 -0.711811 -0.675887 0.20098 -0.805568 -0.557376 
0.320555 -0.635524 -0.702392 0.368272 -0.879157 -0.302422 -0.683045 -0.0616456 -0.72777 
-0.406186 -0.0864898 -0.909688 -0.440953 -0.0839648 -0.893594 0.469351 -0.534266 -0.703043 
0.500058 -0.488868 -0.714808 0.543909 -0.593156 -0.593573 -0.588948 -0.0523762 -0.806472 
-0.44134 0.0527623 -0.895788 -0.465129 0.0489871 -0.883887 0.591426 -0.314965 -0.742302 
0.623836 -0.195337 -0.756751 0.774844 -0.393137 -0.495035 -0.469623 -0.134596 -0.872547 
-0.339844 0.0786465 -0.937188 -0.385759 0.0566423 -0.920859 0.623099 -0.19219 -0.758163 
-0.585638 -0.209437 -0.783048 -0.323493 -0.191702 -0.926608 -0.283852 -0.0280599 -0.958457 
-0.21712 -0.194753 -0.95652 -0.249292 -0.0732043 -0.965658 0.664906 -0.00775367 -0.746887 
-0.588981 -0.248824 -0.768888 -0.217116 -0.195534 -0.956361 -0.175527 -0.201436 -0.963646 
-0.288844 -0.212823 -0.933421 0.690176 0.209911 -0.692527 0.689338 0.227583 -0.687764 
-0.255394 -0.15632 -0.954116 -0.481057 -0.066847 -0.874137 0.632054 0.396705 -0.665682 
0.563481 0.527353 -0.635915 0.784024 0.489452 -0.381762 -0.418339 0.145559 -0.896552 
-0.621857 0.194965 -0.758474 -0.363586 0.215454 -0.906303 0.53532 0.580256 -0.613788 
0.486398 0.630188 -0.605211 0.610918 0.652365 -0.448552 -0.705846 0.471023 -0.529073 
-0.341619 0.308165 -0.88788 -0.413164 0.378499 -0.828272 -0.243916 0.507078 -0.826666 
-0.0904095 0.598249 -0.796194 0.0295169 0.72704 -0.68596 0.106731 0.79588 -0.595973 
0.101799 0.729907 -0.675923 -0.0756881 0.576327 -0.813706 -0.149736 0.617962 -0.771818 
0.0251612 0.699379 -0.714308 0.229768 0.696427 -0.679851 0.43182 0.678352 -0.59445 
0.389075 0.700155 -0.598668 0.56708 0.782347 -0.257593 -0.182438 0.897445 -0.401633 
-0.0584822 0.857248 -0.511571 0.129589 0.947096 -0.293626 -0.201456 0.918089 -0.341362 
-0.167752 0.82373 -0.541597 0.0375967 0.781688 -0.622536 0.310755 0.866391 -0.390893 
-0.521272 -0.718029 -0.461205 -0.206808 -0.867021 -0.453327 0.0463593 -0.89789 -0.437771 
0.087862 -0.994884 0.0498666 0.198509 -0.893454 -0.402906 0.34236 -0.864739 -0.367445 
-0.601974 -0.638319 -0.479767 -0.777746 -0.330037 -0.534964 0.312008 -0.90739 -0.281594 
0.297905 -0.917801 -0.262478 0.168589 -0.967444 -0.188761 0.078512 -0.983408 -0.163535 
0.0902591 -0.983788 -0.154969 0.160087 -0.974498 -0.157243 0.372475 -0.912754 -0.167755 
-0.782996 -0.314789 -0.536494 0.423543 -0.892208 -0.156768 0.568794 -0.807669 -0.155384 
-0.735239 -0.133272 -0.664577 0.710389 -0.680744 -0.178705 0.798489 -0.567008 -0.20228 
-0.640866 -0.114322 -0.759092 -0.871696 -0.24404 -0.424959 0.868787 -0.436283 -0.234238 
-0.604378 -0.214139 -0.76738 -0.627694 -0.21788 -0.747347 -0.743069 -0.261432 -0.616037 
0.954928 -0.205987 -0.213731 -0.643824 -0.219704 -0.732953 0.97299 0.0444707 -0.226523 
-0.67032 -0.23798 -0.702878 0.937054 0.278037 -0.211247 -0.812651 -0.104275 -0.573346 
-0.924202 -0.0682301 -0.37576 0.83746 0.50236 -0.215165 0.78969 0.576397 -0.210135 
-0.797498 0.250968 -0.548645 0.675984 0.711676 -0.191212 0.634193 0.749726 -0.188971 
-0.775115 0.507079 -0.376918 -0.712719 0.592805 -0.374986 -0.358306 0.915145 -0.184732 
0.143531 0.988955 -0.03697 -0.0725701 0.989818 -0.122451 0.482741 0.858732 -0.171874 
0.578101 0.796769 -0.175951 0.571996 0.801345 -0.175119 -0.314161 0.930975 -0.18598 
-0.172874 0.956704 -0.234163 0.0100991 0.996947 -0.0774243 0.150953 0.988031 -0.031753 
0.177651 0.983567 -0.0321919 0.155262 0.961004 0.228836 -0.160688 0.97023 -0.1812 
-0.230032 0.943568 -0.238254 -0.164402 0.958873 -0.231374 0.0661012 0.976939 -0.20303 
0.401321 0.898602 -0.17736 0.328745 0.926817 -0.181485 0.0889572 -0.993404 0.0723558 
-0.498458 -0.865709 0.0456927 -0.0862886 -0.993062 0.0798868 -0.203085 -0.97554 0.084129 
0.0966788 -0.992439 0.075616 0.0899205 -0.992074 0.0877649 0.238392 -0.96089 0.140921 
0.417627 -0.892883 0.168365 -0.680465 -0.732776 0.00270717 -0.765572 -0.64269 -0.0291436 
0.39488 -0.901457 0.177328 0.370549 -0.75085 0.546733 0.375494 -0.909153 0.180126 
0.187239 -0.968958 0.16144 0.0937572 -0.984471 0.148415 0.114937 -0.975182 0.189234 
0.187317 -0.95125 0.245022 0.379045 -0.874327 0.303113 -0.889586 -0.44155 -0.116922 
0.255058 -0.85592 0.44983 0.384127 -0.872377 0.302334 0.380209 -0.870129 0.313555 
0.554649 -0.777912 0.295326 -0.930067 -0.322149 -0.176623 -0.92585 -0.311465 -0.213991 
0.635897 -0.705908 0.311976 0.542467 -0.635558 0.54936 0.767854 -0.567514 0.297202 
-0.916279 -0.272425 -0.293627 0.864186 -0.430351 0.260731 0.73543 -0.467126 0.490853 
-0.934667 -0.263185 -0.239019 0.934484 -0.214206 0.28435 -0.960502 -0.253371 -0.115062 
0.968795 0.0199696 0.247057 -0.973823 -0.226275 -0.0216544 -0.984627 -0.17237 0.0282465 
0.935922 0.271337 0.224559 -0.986458 0.0262791 0.161896 -0.950946 0.228115 0.208963 
-0.948401 0.064628 0.310418 0.83694 0.499192 0.224365 0.799435 0.560069 0.217317 
0.794171 0.49181 0.356952 -0.909063 0.356131 0.216277 0.686417 0.703672 0.183514 
0.648457 0.742491 0.16796 0.641255 0.640253 0.422927 -0.716667 0.631096 0.296827 
-0.634125 0.725076 0.268608 -0.640535 0.591939 0.489206 -0.303956 0.902077 0.30638 
0.00541569 0.511108 0.8595 0.125413 0.904854 0.406831 0.023215 0.964303 0.263782 
-0.167289 0.974509 0.149487 0.471579 0.867966 0.15572 0.573483 0.804347 0.155383 
0.566617 0.809047 0.156166 0.564903 0.793761 0.22545 -0.205923 0.912448 0.353602 
-0.118166 0.916319 0.382618 -0.101114 0.866603 0.488646 0.134321 0.892962 0.429625 
0.131243 0.889306 0.438076 0.126958 0.877181 0.463072 -0.216863 0.965027 0.147287 
-0.251852 0.955825 0.151557 -0.23439 0.927161 0.292289 -0.142176 0.976249 0.163474 
-0.0968017 0.834284 0.542771 0.0839748 0.97807 0.190597 0.0767464 0.83594 0.543429 
0.376604 0.911804 0.163654 0.31907 0.932408 0.169736 0.302887 0.894081 0.329968 
-0.396116 -0.749343 0.530638 -0.146858 -0.748663 0.64648 0.0853055 -0.734359 0.67338 
0.247057 -0.698808 0.67129 -0.45918 -0.710482 0.533263 -0.642407 -0.587161 0.492499 
-0.39087 -0.666642 0.634673 -0.067519 -0.59427 0.801426 0.0876425 -0.569678 0.817182 
0.292935 -0.664751 0.687237 0.237745 -0.617888 0.749461 0.299437 -0.63205 0.714738 
0.170339 -0.727766 0.664335 0.0788929 -0.863682 0.497825 0.102288 -0.879401 0.464963 
0.165683 -0.845767 0.507175 -0.711168 -0.528583 0.463508 -0.592351 -0.516555 0.618297 
-0.256903 -0.424982 0.867981 -0.0640144 -0.291111 0.954545 0.0938377 -0.303898 0.948072 
0.168482 -0.307484 0.936519 0.18001 -0.409867 0.894207 0.0659289 -0.601596 0.796075 
0.0151728 -0.76326 0.645913 0.0978192 -0.811196 0.576534 0.204412 -0.82476 0.527245 
0.167524 -0.820559 0.54646 0.281184 -0.762552 0.582623 0.36944 -0.648128 0.665916 
-0.843921 -0.390092 0.368272 -0.893106 -0.318299 0.317881 -0.542526 -0.299494 0.784837 
0.13655 -0.145419 0.979902 0.0551071 -0.218217 0.974343 -0.125592 -0.315722 0.940503 
0.201039 -0.446278 0.87202 0.277389 -0.497278 0.822052 0.439938 -0.588287 0.678508 
0.361051 -0.573736 0.735166 0.512224 -0.508436 0.692184 -0.923347 -0.246165 0.294675 
-0.85331 -0.23116 0.467361 0.297615 -0.340458 0.891916 0.567038 -0.423919 0.70623 
0.488376 -0.386992 0.782129 0.679137 -0.251567 0.689555 -0.901377 -0.151815 0.405552 
-0.741826 -0.103592 0.662543 0.44694 -0.180639 0.876136 0.698186 -0.214841 0.68292 
0.680832 -0.218859 0.698977 -0.864034 -0.0621912 0.499578 -0.620063 0.0418796 0.783433 
0.429796 -0.0393653 0.902067 0.750209 -0.0233172 0.66079 0.694921 -0.0286831 0.718514 
-0.778289 0.00673635 0.62787 -0.512919 0.105991 0.851868 -0.211828 0.218052 0.952671 
-0.072232 0.192109 0.978712 -0.0938224 0.210978 0.972978 0.424544 0.120779 0.897315 
0.75126 0.224765 0.620555 0.736689 0.28211 0.614576 0.720313 0.219098 0.658137 
-0.646184 0.140792 0.750083 -0.432811 0.168787 0.885542 -0.192949 0.195442 0.961547 
-0.0993112 0.230636 0.967959 -0.111753 0.159578 0.980839 -0.333812 0.168596 0.92744 
0.678249 0.432379 0.594161 0.615876 0.560742 0.553412 0.532297 0.357812 0.767223 
-0.415085 0.409691 0.812316 -0.404818 0.414651 0.814977 -0.396788 0.410308 0.821101 
-0.188974 0.292745 0.937331 -0.00251559 0.490335 0.871531 -0.122934 0.335941 0.933826 
-0.15113 0.309113 0.93894 -0.229383 0.351449 0.907671 0.0376677 0.211213 0.976714 
0.593871 0.591672 0.545198 0.51973 0.676769 0.521406 0.441374 0.490232 0.751572 
-0.278852 0.412852 0.867061 -0.0750426 0.478093 0.875097 -0.22817 0.459789 0.858215 
-0.241953 0.413024 0.877992 -0.0306946 0.518511 0.85452 -0.0843935 0.55507 0.827512 
-0.0925493 0.538245 0.837691 -0.0858364 0.682859 0.72549 -0.116385 0.626788 0.770449 
-0.131558 0.807263 0.575342 -0.167844 0.702345 0.691766 -0.175372 0.851028 0.494971 
-0.129814 0.648594 0.749983 -0.19587 0.812988 0.548348 -0.0770531 0.482105 0.872719 
-0.0967381 0.833941 0.543308 -0.0539256 0.402099 0.914007 0.0765219 0.827662 0.555986 
0.00661617 0.419718 0.90763 0.270917 0.808096 0.523053 0.171666 0.492972 0.852941 
0.48153 0.71651 0.50472 0.423895 0.74861 0.5098 0.391077 0.655836 0.645708 
-0.216138 -0.317251 0.923383 -0.0425784 -0.268583 0.962315 0.106289 -0.222689 0.969078 
-0.117412 -0.415615 0.901931 0.0640999 -0.466002 0.882459 -0.345437 -0.250506 0.904389 
-0.359447 -0.142859 0.922166 -0.183241 -0.222186 0.957631 0.0570713 -0.169126 0.983941 
0.130796 -0.147272 0.98041 0.113215 -0.153233 0.981683 0.12195 -0.135778 0.983205 
-0.0240648 -0.304144 0.952322 -0.131761 -0.340975 0.930793 -0.141343 -0.2462 0.958858 
-0.131907 -0.357847 0.924417 0.183498 -0.438529 0.879784 0.0536564 -0.388544 0.919867 
0.19714 -0.430494 0.880801 0.230221 -0.335548 0.913458 -0.361314 -0.1361 0.922458 
-0.350152 -0.13292 0.927214 -0.125232 -0.0525368 0.990735 0.0362919 -0.0531998 0.997924 
0.120213 -0.0502953 0.991473 0.0932794 -0.120027 0.988379 -0.025368 -0.305725 0.951782 
-0.142499 -0.198161 0.969756 -0.136479 -0.0918122 0.986379 0.00320487 -0.120997 0.992648 
0.130654 -0.194127 0.972237 0.241894 -0.305263 0.921033 0.211383 -0.287221 0.934249 
0.281542 -0.224722 0.932864 -0.360151 -0.0167119 0.932744 -0.332718 -0.00940725 0.94298 
-0.138821 0.0659563 0.988119 0.0531461 0.0556082 0.997037 0.0460293 -0.00287456 0.998936 
-0.107208 -0.185108 0.976853 -0.0169815 -0.0738308 0.997126 0.0638833 -0.0906286 0.993834 
-0.0596887 -0.0636418 0.996186 -0.0483095 0.0598786 0.997036 0.0353199 -0.0161122 0.999246 
0.141639 -0.1003 0.984824 0.317101 -0.164661 0.933988 0.276252 -0.162811 0.947195 
-0.27294 0.152169 0.94992 -0.225183 0.179305 0.957676 -0.23406 0.164293 0.95824 
-0.0722159 0.201836 0.976753 -0.0661248 0.211069 0.975232 -0.0699281 0.215553 0.973985 
-0.0310695 0.206757 0.977899 -0.119382 0.0441888 0.991865 0.000586495 -0.168817 0.985647 
0.0775423 0.103868 0.991564 -0.134186 -0.106863 0.985177 0.0249012 -0.0606096 0.997851 
0.0497673 0.164251 0.985162 -0.0341788 0.0979373 0.994605 0.0675478 0.0351374 0.997097 
0.334565 -0.0269004 0.941989 0.224629 -0.0110847 0.974381 -0.245972 0.160193 0.955948 
-0.339457 0.156879 0.927447 -0.35258 0.109701 0.929329 -0.0339052 0.0116888 0.999357 
0.0629876 -0.0345793 0.997415 -0.094963 0.0638698 0.99343 0.245646 0.152512 0.957287 
0.0623368 0.0776791 0.995028 -0.0912154 0.0764721 0.992891 0.0350677 0.0820172 0.996014 
0.278891 0.0934926 0.955761 0.201461 0.0798559 0.976236 -0.325126 0.173227 0.929669 
-0.106733 0.242544 0.964251 0.116428 0.0746356 0.990391 0.0390998 0.213691 0.976118 
0.0422331 0.244986 0.968606 0.0385515 0.172623 0.984233 -0.00762704 -0.0111618 0.999909 
-0.0358464 0.0295091 0.998922 0.0735245 0.121532 0.989861 0.276552 0.254411 0.926711 
0.274409 0.257513 0.926492 0.271136 0.252653 0.928791 -0.174278 0.407684 0.896338 
-0.164452 0.44443 0.880589 -0.157168 0.419941 0.893839 0.0410667 0.22466 0.973571 
0.0175257 0.322614 0.946368 0.048767 0.261593 0.963946 -0.0516613 0.178093 0.982657 
-0.054532 0.17797 0.982524 -0.0545698 0.177093 0.98268 -0.0435732 0.212304 0.976232 
-0.060982 0.132312 0.98933 0.0782101 0.295331 0.952188 0.0394597 0.196343 0.979741 
0.239603 0.311942 0.919393 0.235874 0.314896 0.91935 0.232501 0.306322 0.923098 

