# vtk DataFile Version 4.2
vtk output
ASCII
DATASET POLYDATA
POINTS 546 float
-29.9127 -19.6521 -19.2268 -5.89133 -51.6806 -11.0693 -29.9127 -43.6735 -11.9086 
-21.9056 -43.6735 -13.5775 -13.8985 -43.6735 -15.3763 -5.89133 -43.6735 -15.9577 
2.11578 -43.6735 -15.7665 10.1229 -43.6735 -15.1625 18.13 -43.6735 -12.9286 
-45.9269 -35.6664 -12.4388 -37.9198 -35.6664 -15.2537 -29.9127 -35.6664 -16.2719 
-21.9056 -35.6664 -17.5226 -13.8985 -35.6664 -16.5962 -5.89133 -35.6664 -16.9485 
2.11578 -35.6664 -17.2602 10.1229 -35.6664 -16.8061 18.13 -35.6664 -16.6527 
26.1371 -35.6664 -16.2181 34.1443 -35.6664 -15.0426 42.1514 -35.6664 -12.6357 
-53.9341 -27.6592 -11.1892 -45.9269 -27.6592 -15.7455 -37.9198 -27.6592 -18.4244 
-29.9127 -21.5146 -19.0069 -29.9127 -27.6592 -18.279 -21.9056 -27.6592 -17.6956 
-13.8985 -27.6592 -17.3942 -5.89133 -27.6592 -16.6409 2.11578 -27.6592 -16.9669 
10.1229 -27.6592 -17.0034 18.13 -27.6592 -17.8462 26.1371 -27.6592 -17.8407 
34.1443 -27.6592 -18.6125 42.1514 -27.6592 -16.2597 50.1585 -27.6592 -13.8609 
-53.9341 -19.6521 -13.6481 -45.9269 -19.6521 -17.6244 -33.9241 -19.6521 -19.0069 
-37.9198 -19.6521 -18.7878 -28.8062 -19.6521 -19.0069 -29.9127 -17.8154 -19.0069 
-21.9056 -19.6521 -17.62 -13.8985 -19.6521 -16.12 -5.89133 -19.6521 -15.119 
2.11578 -19.6521 -15.7079 10.1229 -19.6521 -15.8424 18.13 -19.6521 -17.2447 
26.1371 -19.6521 -18.0935 34.1443 -19.6521 -18.3869 42.1514 -19.6521 -17.7701 
50.1585 -19.6521 -16.3139 -53.9341 -11.645 -13.6799 -45.9269 -11.645 -16.8068 
-37.9198 -11.645 -18.1655 -29.9127 -11.645 -18.2528 -21.9056 -11.645 -17.1461 
-13.8985 -11.645 -14.8627 -5.89133 -11.645 -13.9193 2.11578 -11.645 -16.6372 
10.1229 -11.645 -14.7889 18.13 -11.645 -16.0197 26.1371 -11.645 -17.3037 
34.1443 -11.645 -18.2159 42.1514 -11.645 -18.1418 50.1585 -11.645 -15.9645 
58.1656 -11.645 -12.264 -45.9269 -3.63788 -15.232 -37.9198 -3.63788 -16.6281 
-29.9127 -3.63788 -16.6515 -21.9056 -3.63788 -15.266 -13.8985 -3.63788 -13.3848 
-5.89133 -3.63788 -14.2201 2.11578 -3.63788 -14.4513 10.1229 -3.63788 -15.5703 
18.13 -3.63788 -14.2385 26.1371 -3.63788 -16.1304 34.1443 -3.63788 -17.4211 
42.1514 -3.63788 -17.8774 50.1585 -3.63788 -15.9624 58.1656 -3.63788 -12.4719 
-45.9269 4.36924 -12.7404 -37.9198 4.36924 -14.2152 -29.9127 4.36924 -14.3527 
-21.9056 4.36924 -13.3277 -13.8985 4.36924 -11.1999 -5.89133 4.36924 -11.6309 
2.11578 4.36924 -13.93 10.1229 4.36924 -14.2735 18.13 4.36924 -13.5538 
26.1371 4.36924 -15.5459 34.1443 4.36924 -16.7287 42.1514 4.36924 -17.0742 
50.1585 4.36924 -15.0191 58.1656 4.36924 -11.0643 -37.9198 12.3764 -12.9447 
-29.9127 12.3764 -13.3231 -21.9056 12.3764 -12.5239 10.1229 12.3764 -11.5853 
18.13 12.3764 -14.4116 26.1371 12.3764 -15.7756 34.1443 12.3764 -16.2695 
42.1514 12.3764 -15.2904 50.1585 12.3764 -12.8556 -37.9198 20.3835 -11.2047 
-29.9127 20.3835 -12.2517 -21.9056 20.3835 -12.8743 -13.8985 20.3835 -11.4563 
18.13 20.3835 -12.8457 26.1371 20.3835 -14.6378 34.1443 20.3835 -14.7331 
42.1514 20.3835 -13.2501 -29.9127 28.3906 -11.6869 -21.9056 28.3906 -12.0017 
-13.8985 28.3906 -11.7543 26.1371 28.3906 -12.5463 34.1443 28.3906 -12.1886 
-13.8985 36.3977 -11.5605 -5.89133 -51.728 -10.9998 -29.9127 -44.4505 -10.9998 
-21.9056 -46.972 -10.9998 -6.19685 -51.6806 -10.9998 -13.8985 -49.9778 -10.9998 
-5.57761 -51.6806 -10.9998 -5.89133 -51.6806 -10.6559 2.11578 -49.9095 -10.9998 
10.1229 -48.5768 -10.9998 18.13 -45.7128 -10.9998 -45.9269 -37.0356 -10.9998 
-32.3784 -43.6735 -10.9998 -37.9198 -41.7006 -10.9998 25.1916 -43.6735 -10.9998 
26.1371 -43.3074 -10.9998 26.1371 -43.6735 -9.64024 34.1443 -41.4106 -10.9998 
42.1514 -37.1884 -10.9998 -47.5876 -35.6664 -10.9998 -53.9341 -27.9278 -10.9998 
44.3263 -35.6664 -10.9998 50.1585 -31.3589 -10.9998 -54.1187 -27.6592 -10.9998 
53.3099 -27.6592 -10.9998 -56.6346 -19.6521 -10.9998 57.3956 -19.6521 -10.9998 
58.1656 -17.4846 -10.9998 58.1656 -19.6521 -9.56913 -56.4126 -11.645 -10.9998 
-53.9341 -4.03374 -10.9998 59.4604 -11.645 -10.9998 -53.7585 -3.63788 -10.9998 
-53.9341 -3.63788 -10.8624 59.6815 -3.63788 -10.9998 -50.0794 4.36924 -10.9998 
-53.9341 4.36924 -9.23987 -45.9269 9.73895 -10.9998 -13.8985 6.9704 -10.9998 
-5.89133 5.26457 -10.9998 2.11578 7.58048 -10.9998 58.2315 4.36924 -10.9998 
58.1656 4.51006 -10.9998 -53.9341 12.3764 -5.75546 -43.8402 12.3764 -10.9998 
-45.9269 12.3764 -10.2 -15.4009 12.3764 -10.9998 -13.8985 15.8748 -10.9998 
-13.8985 12.3764 -10.645 -5.89133 12.3764 -8.52362 9.11694 12.3764 -10.9998 
2.11578 12.3764 -7.20396 10.1229 14.971 -10.9998 52.6937 12.3764 -10.9998 
50.1585 16.8125 -10.9998 -38.6847 20.3835 -10.9998 -45.9269 20.3835 -8.55995 
-37.9198 22.5738 -10.9998 -11.4388 20.3835 -10.9998 -5.89133 20.3835 -9.97146 
2.11578 20.3835 -8.40607 13.0327 20.3835 -10.9998 10.1229 20.3835 -9.96534 
18.13 27.3382 -10.9998 47.2612 20.3835 -10.9998 42.1514 25.8735 -10.9998 
50.1585 20.3835 -7.95482 -45.9269 28.3906 -4.21985 -34.3594 28.3906 -10.9998 
-37.9198 28.3906 -10.3226 -29.9127 32.214 -10.9998 -21.9056 34.7796 -10.9998 
-6.50113 28.3906 -10.9998 -5.89133 28.3906 -10.9375 2.11578 28.3906 -9.88478 
10.1229 28.3906 -9.45763 19.2782 28.3906 -10.9998 18.13 28.3906 -10.7403 
26.1371 32.8493 -10.9998 38.5082 28.3906 -10.9998 34.1443 30.8385 -10.9998 
42.1514 28.3906 -9.2641 -37.9198 36.3977 -5.30129 -29.9127 36.3977 -10.075 
-19.2985 36.3977 -10.9998 -21.9056 36.3977 -10.729 -9.58403 36.3977 -10.9998 
-13.8985 39.5833 -10.9998 -5.89133 36.3977 -10.5377 2.11578 36.3977 -9.31972 
10.1229 36.3977 -8.59252 18.13 36.3977 -8.87663 26.1371 36.3977 -9.38495 
34.1443 36.3977 -7.78572 -29.9127 44.4048 -3.83354 -21.9056 44.4048 -7.62387 
-13.8985 44.4048 -9.94098 -5.89133 44.4048 -9.91473 2.11578 44.4048 -8.45458 
10.1229 44.4048 -7.2138 18.13 44.4048 -5.32407 26.1371 44.4048 -4.69351 
-13.8985 52.412 -3.5051 -5.89133 52.412 -4.65505 2.11578 52.412 -4.61153 
-29.9127 -45.5117 -2.99263 -21.9056 -47.9457 -2.99263 -13.8985 -49.5144 -2.99263 
-5.89133 -50.3741 -2.99263 2.11578 -50.154 -2.99263 10.1229 -48.2987 -2.99263 
18.13 -46.3031 -2.99263 26.1371 -44.779 -2.99263 -45.9269 -37.8369 -2.99263 
-34.6398 -43.6735 -2.99263 -37.9198 -42.1348 -2.99263 -29.9127 -43.6735 0.247989 
-21.9056 -43.6735 3.5603 -5.89133 -43.6735 4.09427 2.11578 -43.6735 3.84897 
10.1229 -43.6735 3.61285 18.13 -43.6735 1.33786 31.5903 -43.6735 -2.99263 
26.1371 -43.6735 -0.672813 34.1443 -43.1258 -2.99263 42.1514 -39.4076 -2.99263 
-48.8726 -35.6664 -2.99263 -53.9341 -30.5993 -2.99263 -45.9269 -35.6664 0.989495 
47.7159 -35.6664 -2.99263 42.1514 -35.6664 4.51632 50.1585 -33.7224 -2.99263 
-56.2211 -27.6592 -2.99263 -53.9341 -27.6592 1.94412 55.7089 -27.6592 -2.99263 
58.1656 -23.5092 -2.99263 -59.824 -19.6521 -2.99263 60.3172 -19.6521 -2.99263 
58.1656 -19.6521 3.96384 -61.5572 -11.645 -2.99263 62.4048 -11.645 -2.99263 
-61.14 -3.63788 -2.99263 62.8739 -3.63788 -2.99263 -59.2444 4.36924 -2.99263 
61.4747 4.36924 -2.99263 58.1656 11.4167 -2.99263 -56.4995 12.3764 -2.99263 
-53.9341 17.2651 -2.99263 57.6724 12.3764 -2.99263 -51.9384 20.3835 -2.99263 
-53.9341 20.3835 1.55368 52.5856 20.3835 -2.99263 50.1585 23.8925 -2.99263 
-47.1268 28.3906 -2.99263 -45.9269 29.9859 -2.99263 46.8203 28.3906 -2.99263 
42.1514 34.1871 -2.99263 -40.4758 36.3977 -2.99263 -37.9198 38.9226 -2.99263 
40.1212 36.3977 -2.99263 34.1443 41.7055 -2.99263 42.1514 36.3977 2.66429 
-30.9985 44.4048 -2.99263 -29.9127 45.1834 -2.99263 -21.9056 49.2641 -2.99263 
10.1229 51.8282 -2.99263 18.13 47.9965 -2.99263 29.6869 44.4048 -2.99263 
26.1371 46.4604 -2.99263 34.1443 44.4048 1.91543 -15.1693 52.412 -2.99263 
-13.8985 52.8721 -2.99263 -5.89133 54.1017 -2.99263 8.89805 52.412 -2.99263 
2.11578 54.0914 -2.99263 10.1229 52.412 -2.32567 18.13 52.412 2.64589 
-13.8985 -43.94 5.01449 -37.9198 -36.1651 5.01449 -29.9127 -39.1689 5.01449 
-15.4699 -43.6735 5.01449 -21.9056 -41.9118 5.01449 -12.0131 -43.6735 5.01449 
-13.8985 -43.6735 5.24583 -5.89133 -42.3543 5.01449 2.11578 -41.9997 5.01449 
10.1229 -41.7268 5.01449 18.13 -40.2891 5.01449 26.1371 -39.88 5.01449 
34.1443 -38.6339 5.01449 -39.1775 -35.6664 5.01449 -45.9269 -32.296 5.01449 
-37.9198 -35.6664 5.49582 -29.9127 -35.6664 7.68167 -21.9056 -35.6664 8.61793 
-13.8985 -35.6664 8.93299 -5.89133 -35.6664 9.03986 2.11578 -35.6664 8.49287 
10.1229 -35.6664 8.3675 18.13 -35.6664 8.72855 26.1371 -35.6664 9.10186 
41.3629 -35.6664 5.01449 34.1443 -35.6664 8.1544 42.1514 -35.3179 5.01449 
50.1585 -30.2079 5.01449 -51.4646 -27.6592 5.01449 -53.9341 -24.892 5.01449 
-45.9269 -27.6592 8.77556 -37.9198 -27.6592 10.8054 -29.9127 -27.6592 12.2636 
-21.9056 -27.6592 12.1861 -13.8985 -27.6592 12.2973 -5.89133 -27.6592 12.4127 
2.11578 -27.6592 12.0363 10.1229 -27.6592 12.3262 42.1514 -27.6592 11.2269 
52.5814 -27.6592 5.01449 50.1585 -27.6592 7.55441 -56.9856 -19.6521 5.01449 
-53.9341 -19.6521 8.72456 -45.9269 -19.6521 12.6819 57.7022 -19.6521 5.01449 
50.1585 -19.6521 11.0928 58.1656 -18.6974 5.01449 -61.7116 -11.645 5.01449 
-53.9341 -11.645 11.7194 60.4334 -11.645 5.01449 58.1656 -11.645 8.04984 
-61.6859 -3.63788 5.01449 61.1321 -3.63788 5.01449 58.1656 -3.63788 9.19511 
-60.8768 4.36924 5.01449 59.8932 4.36924 5.01449 58.1656 8.09188 5.01449 
58.1656 4.36924 7.52144 -58.9572 12.3764 5.01449 -53.9341 12.3764 12.7966 
55.5939 12.3764 5.01449 50.1585 12.3764 10.8433 -55.0658 20.3835 5.01449 
-53.9341 22.2569 5.01449 -53.9341 20.3835 7.35825 51.7861 20.3835 5.01449 
50.1585 22.9677 5.01449 50.1585 20.3835 7.27115 -49.8586 28.3906 5.01449 
-45.9269 33.2696 5.01449 -45.9269 28.3906 11.3225 46.689 28.3906 5.01449 
42.1514 28.3906 11.0587 -42.822 36.3977 5.01449 -37.9198 40.9221 5.01449 
-37.9198 36.3977 11.2796 42.7395 36.3977 5.01449 42.1514 37.2042 5.01449 
42.1514 36.3977 6.1331 -33.853 44.4048 5.01449 -29.9127 47.3003 5.01449 
-29.9127 44.4048 9.21889 -21.9056 51.9213 5.01449 26.1371 50.903 5.01449 
35.7704 44.4048 5.01449 34.1443 45.9067 5.01449 34.1443 44.4048 7.6364 
-20.8333 52.412 5.01449 -13.8985 54.9713 5.01449 -13.8985 52.412 8.79774 
[...]
POINT_DATA 546
SCALARS ImageScalars float
LOOKUP_TABLE default
0 0 0 0 0 0 0 0 0 
0 0 0 0 0 0 0 0 0 
0 0 0 0 0 0 0 0 0 
0 0 0 0 0 0 0 0 0 
0 0 0 0 0 0 0 0 0 
0 0 0 0 0 0 0 0 0 
0 0 0 0 0 0 0 0 0 
0 0 0 0 0 0 0 0 0 
0 0 0 0 0 0 0 0 0 
0 0 0 0 0 0 0 0 0 
0 0 0 0 0 0 0 0 0 
0 0 0 0 0 0 0 0 0 
0 0 0 0 0 0 0 0 0 
0 0 0 0 0 0 0 0 0 
0 0 0 0 0 0 0 0 0 
0 0 0 0 0 0 0 0 0 
0 0 0 0 0 0 0 0 0 
0 0 0 0 0 0 0 0 0 
0 0 0 0 0 0 0 0 0 
0 0 0 0 0 0 0 0 0 
0 0 0 0 0 0 0 0 0 
0 0 0 0 0 0 0 0 0 
0 0 0 0 0 0 0 0 0 
0 0 0 0 0 0 0 0 0 
0 0 0 0 0 0 0 0 0 
0 0 0 0 0 0 0 0 0 
0 0 0 0 0 0 0 0 0 
0 0 0 0 0 0 0 0 0 
0 0 0 0 0 0 0 0 0 
0 0 0 0 0 0 0 0 0 
0 0 0 0 0 0 0 0 0 
0 0 0 0 0 0 0 0 0 
0 0 0 0 0 0 0 0 0 
0 0 0 0 0 0 0 0 0 
0 0 0 0 0 0 0 0 0 
0 0 0 0 0 0 0 0 0 
0 0 0 0 0 0 0 0 0 
0 0 0 0 0 0 0 0 0 
0 0 0 0 0 0 0 0 0 
0 0 0 0 0 0 0 0 0 
0 0 0 0 0 0 0 0 0 
0 0 0 0 0 0 0 0 0 
0 0 0 0 0 0 0 0 0 
0 0 0 0 0 0 0 0 0 
0 0 0 0 0 0 0 0 0 
0 0 0 0 0 0 0 0 0 
0 0 0 0 0 0 0 0 0 
0 0 0 0 0 0 0 0 0 
0 0 0 0 0 0 0 0 0 
0 0 0 0 0 0 0 0 0 
0 0 0 0 0 0 0 0 0 
0 0 0 0 0 0 0 0 0 
0 0 0 0 0 0 0 0 0 
0 0 0 0 0 0 0 0 0 
0 0 0 0 0 0 0 0 0 
0 0 0 0 0 0 0 0 0 
0 0 0 0 0 0 0 0 0 
0 0 0 0 0 0 0 0 0 
0 0 0 0 0 0 0 0 0 
0 0 0 0 0 0 0 0 0 
0 0 0 0 0 0 
NORMALS Normals float
0.0716428 -2.62393e-06 -0.99743 -0.00324203 -0.93972 -0.341929 -0.278635 -0.776899 -0.564615 
-0.205344 -0.607331 -0.767452 -0.161759 -0.404183 -0.900261 -0.0342613 -0.349328 -0.936374 
0.0584791 -0.423732 -0.903898 0.182034 -0.490668 -0.85212 0.251445 -0.707358 -0.660621 
-0.539276 -0.64822 -0.53758 -0.21512 -0.505631 -0.8355 -0.150736 -0.352207 -0.923704 
-0.0114848 -0.274225 -0.961597 0.0303922 -0.134228 -0.990484 -0.0436482 -0.0360764 -0.998395 
0.00925994 -0.0660834 -0.997771 0.041139 -0.117026 -0.992276 0.0344644 -0.280713 -0.959173 
0.112457 -0.357686 -0.927046 0.182017 -0.500777 -0.846222 0.436977 -0.652322 -0.619296 
-0.717493 -0.442804 -0.537706 -0.385236 -0.285488 -0.877547 -0.16413 -0.228454 -0.95962 
0.0665674 -0.0369062 -0.997099 0.0443597 -0.1679 -0.984805 0.0555651 -0.00482572 -0.998443 
0.0661256 0.0293264 -0.99738 0.0264843 0.113082 -0.993233 -0.0224528 0.0960487 -0.995123 
-0.0541931 0.059794 -0.996739 -0.0527098 -0.0398011 -0.997816 -0.0431844 -0.104683 -0.993568 
0.110852 -0.210092 -0.971377 0.276714 -0.254395 -0.926667 0.552094 -0.44452 -0.705404 
-0.648637 -0.127659 -0.750315 -0.303376 -0.0658613 -0.950592 -0.0131061 0.0103542 -0.999861 
-0.09777 0.0183251 -0.99504 0.0883653 0.00390598 -0.99608 0.0679988 0.03698 -0.997 
0.191445 0.0311195 -0.98101 0.154792 0.15609 -0.975538 0.0253734 0.155201 -0.987557 
-0.0455554 0.0341697 -0.998377 -0.096574 0.139718 -0.985471 -0.13933 0.112442 -0.983841 
-0.0740051 0.0346069 -0.996657 0.01841 0.0233359 -0.999558 0.109296 -0.122626 -0.986416 
0.399407 -0.125591 -0.908131 -0.595785 0.149405 -0.789125 -0.236675 0.162094 -0.957972 
-0.0835713 0.137031 -0.987035 0.0583624 0.162554 -0.984972 0.211861 0.140364 -0.967167 
0.178159 0.170394 -0.969136 -0.0854642 0.0680711 -0.994013 -0.0229793 0.0362065 -0.99908 
0.0138269 0.0337816 -0.999334 -0.15396 0.182095 -0.971153 -0.135553 0.120118 -0.983462 
-0.051832 0.0586835 -0.99693 0.149714 -0.00638953 -0.988709 0.326697 0.0157781 -0.944997 
0.689748 -0.107886 -0.715967 -0.295887 0.213351 -0.931092 -0.0929051 0.236413 -0.967201 
0.0780257 0.238582 -0.967983 0.203488 0.227968 -0.952168 0.0662099 0.208447 -0.97579 
-0.0895674 0.0892754 -0.991972 -0.0955562 0.212009 -0.972585 0.0463113 0.0173985 -0.998776 
-0.0612969 0.156593 -0.985759 -0.193332 0.108477 -0.975118 -0.106871 0.0932328 -0.989892 
0.100699 0.0659065 -0.992732 0.301659 0.0575137 -0.95168 0.668794 0.0715486 -0.739997 
-0.292758 0.323769 -0.899704 -0.0865419 0.239282 -0.967086 0.0539861 0.204468 -0.977383 
0.176535 0.162908 -0.97072 0.128363 0.184839 -0.97435 -0.211835 0.477887 -0.852496 
-0.123382 0.430287 -0.89422 0.0340871 0.235924 -0.971173 -0.090308 -0.0106778 -0.995857 
-0.195265 0.022061 -0.980502 -0.0932825 0.070116 -0.993168 0.109339 0.157074 -0.981516 
0.338668 0.167937 -0.925798 0.696104 0.288216 -0.657549 -0.174807 0.172742 -0.969331 
0.0248494 0.129546 -0.991262 0.163664 0.0266559 -0.986156 -0.42006 0.242016 -0.87463 
-0.230512 0.0414977 -0.972184 -0.11647 0.0569101 -0.991562 0.0292034 0.117945 -0.992591 
0.182591 0.226217 -0.956811 0.470621 0.33597 -0.815868 -0.198913 0.167699 -0.965562 
-0.0986392 0.0981039 -0.990276 0.0493277 0.0326721 -0.998248 0.177675 -0.0680729 -0.981732 
-0.28525 0.214074 -0.93424 -0.114194 0.20449 -0.972185 0.0831737 0.256252 -0.963025 
0.289231 0.323104 -0.901082 -0.10441 0.133909 -0.985478 -0.00242871 0.127768 -0.991801 
0.0662805 -0.00711143 -0.997776 -0.0786811 0.297766 -0.951391 0.15338 0.390082 -0.907915 
0.0111469 0.107752 -0.994115 -0.00284566 -0.942263 -0.334862 -0.30566 -0.82032 -0.483371 
-0.289274 -0.792361 -0.537108 -0.0125516 -0.941761 -0.336049 -0.227735 -0.881414 -0.413819 
0.00514595 -0.941881 -0.335908 -0.00464455 -0.952818 -0.303508 0.161656 -0.89842 -0.4083 
0.235022 -0.88365 -0.404879 0.30293 -0.822239 -0.481827 -0.559342 -0.70238 -0.440227 
-0.332696 -0.821211 -0.4636 -0.373241 -0.809213 -0.453724 0.239836 -0.854322 -0.461099 
0.229435 -0.854523 -0.465994 0.231596 -0.909934 -0.34407 0.296802 -0.798743 -0.523372 
0.466439 -0.726877 -0.504067 -0.59979 -0.66399 -0.446507 -0.722979 -0.451204 -0.523179 
0.498299 -0.7032 -0.507157 0.606118 -0.586315 -0.537453 -0.727074 -0.44405 -0.523625 
0.694923 -0.462763 -0.550393 -0.798985 -0.119057 -0.589447 0.73789 -0.327091 -0.590364 
0.751177 -0.279994 -0.597776 0.802563 -0.358261 -0.477013 -0.717298 0.126824 -0.685127 
-0.605038 0.205343 -0.769261 0.766103 -0.11864 -0.631673 -0.596751 0.207758 -0.775064 
-0.606195 0.205998 -0.768175 0.762447 0.071506 -0.643088 -0.419876 0.284533 -0.861827 
-0.572119 0.239585 -0.784397 -0.35253 0.248705 -0.902147 0.171496 0.114341 -0.978527 
-0.151877 0.45631 -0.876764 -0.245589 0.525396 -0.814644 0.699747 0.288391 -0.653594 
0.698067 0.291563 -0.653983 -0.639193 0.406879 -0.652596 -0.328975 0.197486 -0.923458 
-0.390352 0.211477 -0.896049 0.222807 -0.0096034 -0.974815 0.211294 -0.0395504 -0.976622 
0.239031 -0.0189208 -0.970828 0.24611 0.0212829 -0.969008 -0.42556 0.251344 -0.869324 
-0.186647 0.127582 -0.974108 -0.382253 0.196928 -0.90283 0.57015 0.390707 -0.722687 
0.554627 0.42416 -0.715875 -0.223342 0.178449 -0.958266 -0.493678 0.305979 -0.814039 
-0.244071 0.199941 -0.948922 0.178941 -0.0906665 -0.979673 0.184836 -0.146286 -0.971821 
0.00191714 -0.165532 -0.986203 -0.269759 0.161077 -0.94936 -0.260762 0.114893 -0.958542 
-0.206687 0.246525 -0.94684 0.501114 0.431552 -0.750099 0.39877 0.45073 -0.79864 
0.697523 0.536409 -0.475108 -0.662151 0.474021 -0.580396 -0.250718 0.218062 -0.94318 
-0.368851 0.290644 -0.882879 -0.178135 0.243933 -0.953291 -0.0636668 0.204678 -0.976757 
0.108823 -0.0331405 -0.993509 0.112649 -0.0354533 -0.993002 0.0960977 -0.0540411 -0.993904 
-0.0594128 0.0865788 -0.994472 -0.179418 0.256893 -0.94964 -0.193247 0.247531 -0.949412 
-0.0261858 0.396406 -0.917702 0.315204 0.455497 -0.832568 0.194112 0.432307 -0.880586 
0.497891 0.539977 -0.678623 -0.550348 0.56782 -0.612125 -0.270152 0.376339 -0.886221 
-0.0492839 0.185842 -0.981343 -0.0820117 0.229832 -0.969769 0.0847214 0.076354 -0.993475 
-0.0336227 0.230319 -0.972534 0.14441 0.0597617 -0.987712 0.127799 0.0837405 -0.988259 
0.0271996 0.129672 -0.991184 -0.0417499 0.299695 -0.953121 0.0495066 0.473986 -0.87914 
0.32517 0.571054 -0.753765 -0.460975 0.705603 -0.53817 -0.319964 0.590118 -0.741205 
-0.105422 0.422738 -0.900099 0.0776477 0.344782 -0.935466 0.145336 0.296237 -0.943992 
0.191087 0.284612 -0.939405 0.138694 0.480926 -0.865722 0.242315 0.588288 -0.771493 
-0.236276 0.780919 -0.578221 -0.0595936 0.714453 -0.697141 0.081157 0.664055 -0.743266 
-0.343206 -0.913538 0.218305 -0.235649 -0.937987 0.254264 -0.147275 -0.932202 0.330618 
-0.0367763 -0.924009 0.380598 0.136177 -0.929173 0.343648 0.223865 -0.912788 0.341617 
0.220317 -0.942487 0.251354 0.201224 -0.966743 0.15785 -0.516805 -0.8357 0.185787 
-0.395878 -0.888363 0.232577 -0.420308 -0.872852 0.247934 -0.325191 -0.847037 0.420451 
-0.178815 -0.722464 0.667886 0.0606847 -0.636077 0.769235 0.0239096 -0.652103 0.757753 
0.0948306 -0.695116 0.712616 0.161645 -0.845612 0.508734 0.270386 -0.953359 0.134158 
0.169063 -0.939691 0.297319 0.302573 -0.945124 0.123251 0.479368 -0.872913 0.0907142 
-0.593628 -0.788069 0.162949 -0.782339 -0.615358 0.0963333 -0.474606 -0.774988 0.417304 
0.597721 -0.799109 0.0644503 0.39817 -0.748425 0.530397 0.663193 -0.746496 0.0540206 
-0.841524 -0.536183 0.0659124 -0.712768 -0.571168 0.407098 0.820792 -0.570747 0.0234048 
0.883995 -0.467493 0.00172917 -0.958586 -0.279813 -0.0530744 0.921099 -0.389063 -0.0143704 
0.804437 -0.420913 0.419182 -0.958235 -0.085304 -0.272962 0.98806 -0.14758 -0.0442404 
-0.930078 0.13986 -0.339697 0.995717 0.0584967 -0.0715988 -0.845261 0.258935 -0.467425 
0.950851 0.29844 -0.0825558 0.885695 0.456809 -0.0828844 -0.771704 0.410368 -0.485871 
-0.740285 0.434738 -0.512817 0.873781 0.478761 -0.0854111 -0.725826 0.440241 -0.528549 
-0.851036 0.492786 -0.181381 0.806598 0.573301 -0.143963 0.793863 0.583869 -0.169933 
-0.701718 0.499285 -0.508238 -0.686061 0.53749 -0.490331 0.756484 0.609652 -0.236761 
0.683378 0.632596 -0.36444 -0.627867 0.64228 -0.439613 -0.611715 0.667513 -0.424536 
0.630945 0.641245 -0.436707 0.495574 0.653411 -0.572241 0.81008 0.58586 -0.0232145 
-0.500906 0.728158 -0.467845 -0.484597 0.731197 -0.480122 -0.378418 0.760379 -0.527848 
0.324957 0.664806 -0.672634 0.210511 0.607182 -0.766169 0.379996 0.644689 -0.663309 
0.269806 0.670654 -0.690962 0.639427 0.740683 -0.206208 -0.268701 0.792394 -0.547642 
-0.241297 0.801516 -0.547127 -0.0742781 0.805916 -0.587352 0.298623 0.690891 -0.658403 
0.0810352 0.771951 -0.630495 0.333459 0.737146 -0.587724 0.304883 0.943413 -0.130455 
-0.0156972 -0.633526 0.773562 -0.258232 -0.688397 0.67781 -0.223459 -0.646088 0.72982 
-0.0435701 -0.636349 0.77017 -0.151842 -0.628556 0.762798 0.00645325 -0.621501 0.783387 
-0.0133415 -0.623053 0.782066 0.0591425 -0.578157 0.813779 0.0211218 -0.575839 0.81729 
0.0644819 -0.608958 0.790577 0.0612739 -0.683269 0.727591 0.0722406 -0.756691 0.649769 
0.226215 -0.743077 0.629812 -0.275388 -0.686921 0.672533 -0.410653 -0.626936 0.662054 
-0.250882 -0.678457 0.690474 -0.155258 -0.573623 0.804271 -0.061334 -0.479167 0.875578 
-0.0236157 -0.421504 0.906519 0.024124 -0.439865 0.89774 0.0375588 -0.433254 0.900489 
-0.01088 -0.479882 0.877266 -0.0365925 -0.584123 0.81084 0.0214827 -0.648734 0.760712 
0.370584 -0.734569 0.568397 0.18778 -0.668157 0.719934 0.385635 -0.729438 0.564983 
0.581787 -0.61752 0.529333 -0.54691 -0.549886 0.631281 -0.639014 -0.505043 0.580166 
-0.367324 -0.519951 0.771183 -0.171605 -0.427951 0.887361 -0.0789843 -0.351698 0.932775 
-0.00222818 -0.311176 0.95035 -0.0135037 -0.301258 0.953447 0.0150132 -0.357243 0.933891 
0.00535043 -0.374877 0.927059 -0.0726105 -0.35916 0.930447 0.297752 -0.506343 0.809296 
0.653591 -0.550368 0.519532 0.560155 -0.52884 0.637616 -0.754232 -0.422636 0.502506 
-0.612565 -0.406343 0.677974 -0.215803 -0.335424 0.917017 0.766053 -0.415384 0.49053 
0.518402 -0.314876 0.795055 0.784096 -0.392374 0.480871 -0.914914 -0.230717 0.331213 
-0.533231 -0.203068 0.821236 0.866725 -0.185605 0.462966 0.769567 -0.192699 0.608798 
-0.968598 0.0506547 0.243417 0.900814 0.0340074 0.432872 0.763306 0.0194624 0.645744 
-0.980277 0.155653 0.121777 0.859645 0.292371 0.418963 0.833632 0.366999 0.412759 
0.792117 0.284068 0.540236 -0.934232 0.347081 0.0821288 -0.644629 0.24374 0.7246 
0.798439 0.418976 0.432382 0.635189 0.301464 0.711094 -0.872506 0.484766 0.0611228 
-0.860009 0.50707 0.0571338 -0.854894 0.466992 0.225996 0.810517 0.47028 0.34914 
0.818049 0.485099 0.308989 0.777724 0.415718 0.471512 -0.803626 0.591734 0.0635258 
-0.741173 0.666577 0.0796027 -0.660322 0.529831 0.532216 0.839726 0.480287 0.253346 
0.69168 0.356021 0.628353 -0.696289 0.710561 0.10142 -0.646066 0.752823 0.125917 
-0.550522 0.640055 0.535962 0.832737 0.537283 0.133706 0.822005 0.556592 0.12047 
0.82659 0.527739 0.195553 -0.595144 0.791683 0.137995 -0.540073 0.827551 0.153233 
-0.484908 0.752828 0.4451 -0.450009 0.888264 0.0920832 0.423361 0.90375 -0.0632503 
0.683346 0.729285 0.0343793 0.648828 0.7599 0.0396799 0.650911 0.723422 0.230164 
-0.429404 0.897148 0.103619 -0.265716 0.948498 0.172474 -0.216642 0.852824 0.47514 
-0.107389 0.983926 0.142676 -0.103244 0.765035 0.635659 0.0633082 0.990803 0.119591 
0.0420747 0.74123 0.669932 0.195277 0.970529 0.141211 0.165602 0.829273 0.533743 
0.329898 0.943848 -0.0178575 0.268752 0.961905 0.050116 0.232404 0.953664 0.191083 
-0.09012 -0.383697 0.919051 -0.00853915 -0.440874 0.897528 0.145364 -0.444156 0.884079 
-0.118801 -0.315799 0.941359 -0.0620905 -0.300349 0.951806 0.0130519 -0.233875 0.972179 
-0.0354206 -0.21606 0.975737 -0.000531217 -0.320328 0.947307 0.0115138 -0.342191 0.93956 
-0.0859315 -0.365547 0.926818 -0.0647639 -0.318577 0.945682 -0.091945 -0.368501 0.925069 
-0.0113447 -0.392716 0.91959 0.174493 -0.437859 0.881948 0.140729 -0.421229 0.89597 
0.293958 -0.414307 0.861358 -0.174279 -0.318865 0.931639 -0.210521 -0.31417 0.925731 
-0.107632 -0.288147 0.951518 -0.0244146 -0.200722 0.979344 0.0318676 -0.135056 0.990325 
-0.0676118 -0.0856949 0.994025 -0.0621934 -0.181905 0.981347 0.0301279 -0.267232 0.963161 
-0.0390756 -0.216019 0.975607 -0.123052 -0.216113 0.968583 -0.0490131 -0.235215 0.970707 
0.0922265 -0.266668 0.959366 0.416082 -0.301443 0.857909 0.280485 -0.288553 0.915459 
0.466656 -0.215553 0.85777 -0.412134 -0.183037 0.892549 -0.481243 -0.117298 0.868703 
-0.209256 -0.178641 0.961405 -0.0297705 -0.197512 0.979848 0.0927684 -0.121136 0.988292 
0.106772 -0.054052 0.992813 -0.0623375 0.0227523 0.997796 -0.173047 -0.0764678 0.981941 
-0.0306769 -0.0446812 0.99853 -0.0240501 -0.206412 0.97817 -0.120515 -0.0995769 0.987705 
-0.0749129 -0.111859 0.990896 0.0613698 -0.152201 0.986442 0.241312 -0.162672 0.956716 
0.48552 -0.181274 0.855225 0.455008 -0.180074 0.87209 -0.482757 -0.115108 0.868157 
-0.480619 -0.11566 0.869269 -0.195614 -0.120717 0.973223 -0.0459934 -0.129477 0.990515 
0.111408 -0.153913 0.981784 0.165445 -0.166343 0.972089 -0.0894042 -0.24173 0.966216 
-0.101863 -0.142734 0.984506 -0.120361 -0.0612492 0.990839 -0.0741803 -0.21176 0.974503 
-0.0231626 -0.0474562 0.998605 -0.103862 -0.0286701 0.994178 0.0466243 -0.0341913 0.998327 
0.264929 -0.0181881 0.964096 0.516739 -0.00373619 0.856135 0.441178 -0.00533723 0.897404 
-0.598489 0.0194972 0.800894 -0.623072 0.204535 0.754948 -0.551347 0.00421803 0.834265 
-0.203332 -0.0534441 0.97765 -0.0427011 -0.0987784 0.994193 0.0586974 -0.13018 0.989751 
0.0254596 -0.214398 0.976415 -0.0299782 -0.228471 0.973089 -0.0149759 -0.0356904 0.999251 
-0.123623 -0.121021 0.984922 0.0265954 0.0232162 0.999377 0.0471466 -0.0660798 0.9967 
-0.0628227 -0.0021418 0.998022 0.0689771 0.0551958 0.99609 0.274847 0.112897 0.954837 
0.517619 0.192465 0.833683 0.520541 0.213139 0.826806 0.477182 0.176387 0.860921 
-0.622134 0.231862 0.747789 -0.28883 0.0858445 0.953524 -0.120132 0.00141732 0.992757 
-0.00685749 -0.103285 0.994628 0.0529743 -0.145621 0.987921 0.0821964 -0.104934 0.991076 
0.0281773 -0.0511131 0.998295 -0.0509125 0.0486234 0.997519 -0.045864 0.107842 0.99311 
-0.0391899 -0.0641974 0.997167 0.0213234 -0.0191037 0.99959 0.161945 0.0630481 0.984784 
0.529302 0.237993 0.81437 0.371436 0.176366 0.911554 -0.618221 0.318592 0.718542 
-0.582135 0.434582 0.68721 -0.431131 0.23169 0.872035 -0.221523 0.10846 0.969105 
-0.0960856 0.0409696 0.99453 0.019903 -0.0644403 0.997723 0.0695223 -0.0820739 0.994198 
0.14042 -0.0911001 0.985892 0.0573646 0.0191161 0.99817 -0.105313 0.0384516 0.993695 
-0.0789686 -0.0264001 0.996527 0.065544 0.024037 0.99756 0.252643 0.0917713 0.963198 
0.555323 0.252887 0.792253 0.566658 0.281509 0.774371 0.500957 0.224631 0.835813 
-0.568137 0.46882 0.676335 -0.487405 0.554849 0.674225 -0.319277 0.294177 0.900845 
-0.172835 0.195859 0.965281 -0.0721887 0.112628 0.991012 0.0567764 0.0534885 0.996953 
0.131295 0.0229989 0.991077 0.08026 -0.00943454 0.996729 -0.0924391 0.0267525 0.995359 
-0.0532037 0.0776523 0.99556 0.13819 0.0953919 0.985801 0.562367 0.297879 0.77137 
0.346959 0.214051 0.913127 -0.464164 0.572599 0.675783 -0.371927 0.583378 0.722039 
-0.278335 0.422556 0.86254 -0.131634 0.323691 0.936961 -0.0168981 0.239937 0.970641 
0.0730958 0.189934 0.979072 0.0581933 0.107604 0.992489 -0.0268683 0.154124 0.987686 
-0.00448899 0.216412 0.976292 0.198169 0.214945 0.956309 0.536039 0.372185 0.75772 
0.483523 0.43834 0.75767 0.428349 0.338538 0.8378 -0.305532 0.563755 0.767352 
-0.275169 0.568387 0.775383 -0.256385 0.515367 0.817719 -0.102667 0.574336 0.812156 
-0.0896098 0.465508 0.880495 -0.0583308 0.522805 0.850454 -0.0136415 0.363127 0.93164 
0.0402735 0.495994 0.867391 0.0465368 0.307684 0.95035 0.0246661 0.474367 0.879982 
-0.00855688 0.353517 0.935389 0.0606855 0.597059 0.799898 0.0184197 0.404846 0.914199 
0.422251 0.523484 0.740046 0.377542 0.555537 0.740838 0.365901 0.506648 0.780657 

