# vtk DataFile Version 4.2
vtk output
ASCII
DATASET POLYDATA
POINTS 536 float
-11.459 -36.6064 -11.5254 -3.6249 -36.6064 -11.8695 4.20916 -36.6064 -11.6881 
12.0432 -36.6064 -11.3929 -27.1271 -28.7724 -10.8144 -19.293 -28.7724 -12.5852 
-11.459 -28.7724 -13.8549 -3.6249 -28.7724 -14.3139 4.20916 -28.7724 -14.0224 
12.0432 -28.7724 -13.5358 19.8773 -28.7724 -12.7838 27.7113 -28.7724 -12.4574 
35.5454 -28.7724 -10.6991 -34.9611 -20.9383 -10.774 -27.1271 -20.9383 -12.7957 
-19.293 -20.9383 -14.3405 -11.459 -20.9383 -14.9841 -3.6249 -20.9383 -15.0876 
4.20916 -20.9383 -15.2387 12.0432 -20.9383 -14.6503 19.8773 -20.9383 -14.3917 
27.7113 -20.9383 -14.4339 35.5454 -20.9383 -13.6076 43.3794 -20.9383 -10.837 
-34.9611 -13.1042 -12.3444 -27.1271 -13.1042 -13.8765 -19.293 -13.1042 -15.0374 
-11.459 -13.1042 -14.9755 -3.6249 -13.1042 -14.3527 4.20916 -13.1042 -15.8331 
12.0432 -13.1042 -15.5446 19.8773 -13.1042 -15.3053 27.7113 -13.1042 -15.1557 
35.5454 -13.1042 -14.7588 43.3794 -13.1042 -13.2546 51.2135 -13.1042 -10.7055 
-42.7952 -5.27018 -12.1548 -34.9611 -5.27018 -13.4389 -27.1271 -5.27018 -14.0604 
-19.293 -5.27018 -14.8472 -11.459 -5.27018 -15.8961 -3.6249 -5.27018 -16.5187 
4.20916 -5.27018 -17.4936 12.0432 -5.27018 -16.5926 19.8773 -5.27018 -15.23 
27.7113 -5.27018 -15.5956 35.5454 -5.27018 -15.6019 43.3794 -5.27018 -14.6927 
51.2135 -5.27018 -11.321 -42.7952 2.56387 -13.4647 -34.9611 2.56387 -14.5285 
-27.1271 2.56387 -14.4756 -19.293 2.56387 -14.0416 -11.459 2.56387 -17.6466 
-3.6249 2.56387 -15.7085 4.20916 2.56387 -15.0631 12.0432 2.56387 -18.1357 
19.8773 2.56387 -15.381 27.7113 2.56387 -15.5336 35.5454 2.56387 -15.6012 
43.3794 2.56387 -14.7878 51.2135 2.56387 -12.4809 -42.7952 10.3979 -14.3878 
-34.9611 10.3979 -15.2324 -27.1271 10.3979 -14.9692 -19.293 10.3979 -14.4536 
-11.459 10.3979 -14.8268 -3.6249 10.3979 -15.8021 4.20916 10.3979 -16.9149 
12.0432 10.3979 -16.2301 19.8773 10.3979 -15.4595 27.7113 10.3979 -16.2852 
35.5454 10.3979 -15.9914 43.3794 10.3979 -15.3202 51.2135 10.3979 -13.096 
-50.6292 18.232 -11.4636 -42.7952 18.232 -14.8136 -34.9611 18.232 -15.1157 
-27.1271 18.232 -15.126 -19.293 18.232 -14.4277 -11.459 18.232 -14.2433 
-3.6249 18.232 -14.4107 4.20916 18.232 -14.7648 12.0432 18.232 -13.5732 
19.8773 18.232 -14.7496 27.7113 18.232 -15.5131 35.5454 18.232 -16.3356 
43.3794 18.232 -15.2926 51.2135 18.232 -12.2985 -42.7952 26.066 -12.4621 
-34.9611 26.066 -14.1993 -27.1271 26.066 -15.5082 -19.293 26.066 -14.9661 
-11.459 26.066 -14.8707 -3.6249 26.066 -14.7083 4.20916 26.066 -14.0844 
12.0432 26.066 -13.5359 19.8773 26.066 -14.1252 27.7113 26.066 -14.4994 
35.5454 26.066 -14.2807 43.3794 26.066 -13.4362 51.2135 26.066 -10.678 
-42.7952 33.9001 -10.9535 -34.9611 33.9001 -13.6659 -27.1271 33.9001 -13.9138 
-19.293 33.9001 -14.9668 -11.459 33.9001 -15.2604 -3.6249 33.9001 -14.7886 
4.20916 33.9001 -14.0362 12.0432 33.9001 -13.2473 19.8773 33.9001 -12.7607 
27.7113 33.9001 -13.2836 35.5454 33.9001 -10.9702 43.3794 33.9001 -10.6127 
-34.9611 41.7342 -10.9224 -27.1271 41.7342 -12.5173 -19.293 41.7342 -15.498 
-11.459 41.7342 -14.1936 -3.6249 41.7342 -13.8901 4.20916 41.7342 -13.1026 
12.0432 41.7342 -12.4093 27.7113 41.7342 -10.9084 -19.293 49.5682 -11.6426 
4.20916 49.5682 -11.0665 -19.293 -44.4405 -4.77765 -11.459 -38.5051 -10.5945 
-11.459 -44.4405 -7.23621 -3.6249 -39.6717 -10.5945 -3.6249 -44.4405 -8.00687 
4.20916 -39.5768 -10.5945 4.20916 -44.4405 -8.26871 12.0432 -38.7708 -10.5945 
12.0432 -44.4405 -7.63298 19.8773 -44.4405 -6.35886 27.7113 -44.4405 -3.1923 
-34.9611 -36.6064 -3.67578 -27.1271 -29.3619 -10.5945 -27.1271 -36.6064 -7.21027 
-15.6834 -36.6064 -10.5945 -19.293 -34.344 -10.5945 -19.293 -36.6064 -9.72608 
17.9982 -36.6064 -10.5945 19.8773 -35.7695 -10.5945 19.8773 -36.6064 -10.3423 
27.7113 -35.6711 -10.5945 27.7113 -36.6064 -10.2061 35.5454 -28.9987 -10.5945 
35.5454 -36.6064 -6.71057 -42.7952 -28.7724 -4.31911 -27.9426 -28.7724 -10.5945 
-34.9611 -21.5873 -10.5945 -34.9611 -28.7724 -8.24644 35.9115 -28.7724 -10.5945 
43.3794 -21.7237 -10.5945 43.3794 -28.7724 -8.05851 -50.6292 -20.9383 -2.88323 
-35.5264 -20.9383 -10.5945 -42.7952 -20.9383 -7.88481 43.9202 -20.9383 -10.5945 
51.2135 -13.4144 -10.5945 51.2135 -20.9383 -6.07031 -50.6292 -13.1042 -6.42327 
-40.8575 -13.1042 -10.5945 -42.7952 -10.8463 -10.5945 -42.7952 -13.1042 -10.0156 
51.3624 -13.1042 -10.5945 -47.7746 -5.27018 -10.5945 -50.6292 -5.27018 -9.37504 
52.3314 -5.27018 -10.5945 59.0476 -5.27018 -3.42761 -58.4633 2.56387 -2.90017 
-48.9987 2.56387 -10.5945 -50.6292 2.56387 -9.66253 54.2887 2.56387 -10.5945 
59.0476 2.56387 -5.20629 -58.4633 10.3979 -2.79139 -50.5669 10.3979 -10.5945 
-50.6292 10.6935 -10.5945 -50.6292 10.3979 -10.5493 55.217 10.3979 -10.5945 
59.0476 10.3979 -5.59358 -51.7989 18.232 -10.5945 -50.6292 21.2585 -10.5945 
53.5498 18.232 -10.5945 -46.5414 26.066 -10.5945 -50.6292 26.066 -6.5545 
51.3149 26.066 -10.5945 51.2135 26.1879 -10.5945 -43.3397 33.9001 -10.5945 
-42.7952 34.4899 -10.5945 19.8773 41.6695 -10.5945 35.5454 34.6625 -10.5945 
43.4073 33.9001 -10.5945 43.3794 33.922 -10.5945 -35.504 41.7342 -10.5945 
-34.9611 42.203 -10.5945 -27.1271 45.3597 -10.5945 -11.459 48.3202 -10.5945 
-3.6249 47.6214 -10.5945 19.7866 41.7342 -10.5945 12.0432 46.6862 -10.5945 
20.2615 41.7342 -10.5945 19.8773 41.7342 -10.5762 28.6312 41.7342 -10.5945 
27.7113 42.1851 -10.5945 35.5454 41.7342 -2.8486 -22.4604 49.5682 -10.5945 
-27.1271 49.5682 -5.94911 -14.7446 49.5682 -10.5945 -19.293 50.7995 -10.5945 
-11.459 49.5682 -9.58737 1.92601 49.5682 -10.5945 -3.6249 49.5682 -9.0818 
7.13141 49.5682 -10.5945 4.20916 50.1929 -10.5945 12.0432 49.5682 -8.9741 
19.8773 49.5682 -4.53387 -19.293 -46.3379 -2.76042 -11.459 -48.5816 -2.76042 
-3.6249 -49.304 -2.76042 -3.6249 -52.2745 4.76379 4.20916 -49.7202 -2.76042 
4.20916 -52.2745 3.39394 12.0432 -48.9011 -2.76042 19.8773 -47.7625 -2.76042 
27.7113 -44.824 -2.76042 -34.9611 -37.5883 -2.76042 -23.8051 -44.4405 -2.76042 
-27.1271 -42.4188 -2.76042 -27.1271 -44.4405 -0.0656008 28.5054 -44.4405 -2.76042 
35.5454 -40.6348 -2.76042 -36.1631 -36.6064 -2.76042 -42.7952 -30.6779 -2.76042 
41.0859 -36.6064 -2.76042 43.3794 -34.6539 -2.76042 -44.5254 -28.7724 -2.76042 
-50.6292 -21.0999 -2.76042 48.6342 -28.7724 -2.76042 51.2135 -24.9915 -2.76042 
-50.7378 -20.9383 -2.76042 53.4988 -20.9383 -2.76042 -54.1373 -13.1042 -2.76042 
56.8159 -13.1042 -2.76042 59.0476 -6.35158 -2.76042 -56.5765 -5.27018 -2.76042 
-58.4633 2.09889 -2.76042 59.3848 -5.27018 -2.76042 59.0476 -5.27018 -1.68769 
-58.5518 2.56387 -2.76042 -58.4633 2.56387 -1.41327 60.1474 2.56387 -2.76042 
59.0476 2.56387 0.728064 -58.4824 10.3979 -2.76042 -58.4633 10.4684 -2.76042 
-58.4633 10.3979 -2.65044 60.1579 10.3979 -2.76042 59.0476 16.024 -2.76042 
59.0476 10.3979 -0.231236 -56.3176 18.232 -2.76042 -50.6292 18.232 4.19393 
58.5567 18.232 -2.76042 -52.2646 26.066 -2.76042 -50.6292 28.7512 -2.76042 
-50.6292 26.066 -0.0460497 -42.7952 26.066 4.79387 54.0167 26.066 -2.76042 
51.2135 29.3151 -2.76042 51.2135 26.066 1.32565 -46.8486 33.9001 -2.76042 
-42.7952 38.1147 -2.76042 -42.7952 33.9001 1.67148 -34.9611 33.9001 4.4416 
46.3569 33.9001 -2.76042 43.3794 36.3238 -2.76042 43.3794 33.9001 0.502985 
-39.2456 41.7342 -2.76042 -34.9611 45.4843 -2.76042 -34.9611 41.7342 1.78486 
27.7113 46.6175 -2.76042 27.7113 41.7342 4.81256 35.595 41.7342 -2.76042 
35.5454 41.7696 -2.76042 35.5454 41.7342 -2.7072 -29.1463 49.5682 -2.76042 
-27.1271 50.7949 -2.76042 -27.1271 49.5682 -0.775021 -19.293 53.8848 -2.76042 
-19.293 49.5682 3.92455 -11.459 55.1016 -2.76042 -3.6249 54.9533 -2.76042 
4.20916 54.4801 -2.76042 12.0432 52.9909 -2.76042 12.0432 49.5682 4.55277 
21.8943 49.5682 -2.76042 19.8773 50.5001 -2.76042 19.8773 49.5682 -0.752604 
-3.6249 -52.3692 5.07363 4.20916 -52.8059 5.07363 -27.1271 -46.8397 5.07363 
-19.293 -49.9833 5.07363 -4.78783 -52.2745 5.07363 -11.459 -51.714 5.07363 
-3.6249 -52.2745 5.30823 7.66456 -52.2745 5.07363 4.20916 -52.2745 6.09778 
12.0432 -51.6007 5.07363 19.8773 -49.7222 5.07363 27.7113 -46.638 5.07363 
-31.2606 -44.4405 5.07363 -34.9611 -41.9285 5.07363 19.8773 -44.4405 11.8245 
31.6477 -44.4405 5.07363 27.7113 -44.4405 7.88584 35.5454 -41.6812 5.07363 
-41.6045 -36.6064 5.07363 -42.7952 -35.5592 5.07363 41.56 -36.6064 5.07363 
35.5454 -36.6064 9.53861 43.3794 -34.4289 5.07363 -48.5826 -28.7724 5.07363 
-50.6292 -25.6589 5.07363 48.4174 -28.7724 5.07363 43.3794 -28.7724 10.3351 
51.2135 -24.4472 5.07363 -53.3726 -20.9383 5.07363 -50.6292 -20.9383 9.38556 
43.3794 -20.9383 10.8552 52.5888 -20.9383 5.07363 51.2135 -20.9383 6.66044 
-55.8697 -13.1042 5.07363 -50.6292 -13.1042 11.5927 43.3794 -13.1042 11.5086 
53.6364 -13.1042 5.07363 51.2135 -13.1042 7.42542 -57.4884 -5.27018 5.07363 
-50.6292 -5.27018 11.4485 43.3794 -5.27018 12.1884 55.9432 -5.27018 5.07363 
51.2135 -5.27018 9.61933 -57.8212 2.56387 5.07363 -50.6292 2.56387 10.0931 
43.3794 2.56387 11.5403 56.4791 2.56387 5.07363 51.2135 2.56387 8.9496 
-55.6412 10.3979 5.07363 -50.6292 16.4419 5.07363 -50.6292 10.3979 7.81357 
-42.7952 10.3979 11.1352 -34.9611 10.3979 12.3564 -27.1271 10.3979 12.5023 
-19.293 10.3979 11.9075 27.7113 10.3979 12.8192 35.5454 10.3979 12.1824 
43.3794 10.3979 10.5189 54.6943 10.3979 5.07363 51.2135 10.3979 7.42699 
-49.2199 18.232 5.07363 -42.7952 25.4911 5.07363 -42.7952 18.232 8.4626 
-34.9611 18.232 9.79367 -27.1271 18.232 10.1304 -19.293 18.232 10.102 
-11.459 18.232 10.6915 -3.6249 18.232 11.3125 4.20916 18.232 10.4184 
12.0432 18.232 10.3655 19.8773 18.232 10.5399 27.7113 18.232 10.5263 
35.5454 18.232 10.318 43.3794 18.232 9.33187 53.4162 18.232 5.07363 
51.2135 21.5967 5.07363 51.2135 18.232 6.64902 -42.1625 26.066 5.07363 
-34.9611 32.5355 5.07363 -34.9611 26.066 8.46666 -27.1271 26.066 8.65827 
-19.293 26.066 9.96035 -11.459 26.066 10.3352 -3.6249 26.066 10.4559 
4.20916 26.066 10.286 12.0432 26.066 10.011 19.8773 26.066 9.86137 
27.7113 26.066 8.56447 35.5454 26.066 8.34169 47.1335 26.066 5.07363 
[...]
POINT_DATA 536
SCALARS ImageScalars float
LOOKUP_TABLE default
0 0 0 0 0 0 0 0 0 
0 0 0 0 0 0 0 0 0 
0 0 0 0 0 0 0 0 0 
0 0 0 0 0 0 0 0 0 
0 0 0 0 0 0 0 0 0 
0 0 0 0 0 0 0 0 0 
0 0 0 0 0 0 0 0 0 
0 0 0 0 0 0 0 0 0 
0 0 0 0 0 0 0 0 0 
0 0 0 0 0 0 0 0 0 
0 0 0 0 0 0 0 0 0 
0 0 0 0 0 0 0 0 0 
0 0 0 0 0 0 0 0 0 
0 0 0 0 0 0 0 0 0 
0 0 0 0 0 0 0 0 0 
0 0 0 0 0 0 0 0 0 
0 0 0 0 0 0 0 0 0 
0 0 0 0 0 0 0 0 0 
0 0 0 0 0 0 0 0 0 
0 0 0 0 0 0 0 0 0 
0 0 0 0 0 0 0 0 0 
0 0 0 0 0 0 0 0 0 
0 0 0 0 0 0 0 0 0 
0 0 0 0 0 0 0 0 0 
0 0 0 0 0 0 0 0 0 
0 0 0 0 0 0 0 0 0 
0 0 0 0 0 0 0 0 0 
0 0 0 0 0 0 0 0 0 
0 0 0 0 0 0 0 0 0 
0 0 0 0 0 0 0 0 0 
0 0 0 0 0 0 0 0 0 
0 0 0 0 0 0 0 0 0 
0 0 0 0 0 0 0 0 0 
0 0 0 0 0 0 0 0 0 
0 0 0 0 0 0 0 0 0 
0 0 0 0 0 0 0 0 0 
0 0 0 0 0 0 0 0 0 
0 0 0 0 0 0 0 0 0 
0 0 0 0 0 0 0 0 0 
0 0 0 0 0 0 0 0 0 
0 0 0 0 0 0 0 0 0 
0 0 0 0 0 0 0 0 0 
0 0 0 0 0 0 0 0 0 
0 0 0 0 0 0 0 0 0 
0 0 0 0 0 0 0 0 0 
0 0 0 0 0 0 0 0 0 
0 0 0 0 0 0 0 0 0 
0 0 0 0 0 0 0 0 0 
0 0 0 0 0 0 0 0 0 
0 0 0 0 0 0 0 0 0 
0 0 0 0 0 0 0 0 0 
0 0 0 0 0 0 0 0 0 
0 0 0 0 0 0 0 0 0 
0 0 0 0 0 0 0 0 0 
0 0 0 0 0 0 0 0 0 
0 0 0 0 0 0 0 0 0 
0 0 0 0 0 0 0 0 0 
0 0 0 0 0 0 0 0 0 
0 0 0 0 0 0 0 0 0 
0 0 0 0 0 
NORMALS Normals float
0.121648 0.379975 0.916963 0.0101991 0.351116 0.936276 -0.0297804 0.323302 0.945827 
-0.0784522 0.32249 0.943316 0.236908 0.298885 0.924414 0.184679 0.267673 0.945645 
0.104823 0.213892 0.971217 0.0104172 0.195728 0.980603 -0.0492631 0.216662 0.975003 
-0.0752845 0.204006 0.976071 -0.0712021 0.242775 0.967466 -0.114822 0.259257 0.958959 
-0.237581 0.391111 0.88915 0.276109 0.231476 0.932836 0.210483 0.185298 0.959876 
0.13427 0.149857 0.979548 0.0468368 0.0697632 0.996463 0.0161678 0.00364504 0.999863 
-0.0273879 0.112787 0.993242 -0.0537588 0.128707 0.990224 -0.0137517 0.155668 0.987714 
-0.0537973 0.17746 0.982656 -0.192984 0.222858 0.955558 -0.381908 0.290951 0.877208 
0.226482 0.154423 0.961696 0.167847 0.0764911 0.982841 0.0692034 0.0314544 0.997107 
-0.0425015 0.0558664 0.997533 0.0579459 0.0560826 0.996743 0.0708128 0.140065 0.987607 
-0.0334227 0.120345 0.992169 -0.02478 0.0528667 0.998294 -0.0339184 0.0722185 0.996812 
-0.122243 0.134001 0.983413 -0.256311 0.228354 0.939233 -0.52703 0.207121 0.824221 
0.245175 0.226862 0.942562 0.112903 0.136771 0.984148 0.0885486 0.0379345 0.995349 
0.11411 -0.0637996 0.991417 0.102275 0.142938 0.984433 0.117257 0.113196 0.986629 
-0.0101222 -0.0120162 0.999877 -0.145419 0.15993 0.976359 -0.0601623 0.00484652 0.998177 
0.0237627 0.0240914 0.999427 -0.062534 0.0513273 0.996722 -0.225598 0.0926983 0.9698 
-0.503973 0.103761 0.857464 0.262108 0.136957 0.955271 0.0737701 0.113588 0.990785 
-0.030793 0.0578708 0.997849 0.136871 -0.0255838 0.990258 0.168375 -0.0669623 0.983446 
-0.14722 -0.040076 0.988292 0.181964 -0.0499884 0.982034 -0.0298894 0.00113162 0.999553 
-0.153059 0.0146433 0.988109 0.0141551 0.0443403 0.998916 -0.0471577 0.0252542 0.998568 
-0.17107 0.0397468 0.984457 -0.392668 0.101138 0.914102 0.230547 0.0813465 0.969655 
0.049048 0.0372955 0.9981 -0.0492779 0.0413889 0.997927 -0.0115592 0.0244157 0.999635 
0.093592 -0.176961 0.979758 0.124038 -0.086335 0.988514 0.0407631 -0.0404526 0.99835 
-0.0984358 -0.312342 0.944856 0.0150779 -0.0404907 0.999066 0.0329265 -0.00193791 0.999456 
-0.0608167 0.0459704 0.99709 -0.156511 0.0310513 0.987188 -0.405092 -0.00953178 0.914226 
0.54164 -0.10179 0.834425 0.265823 -0.0818936 0.960537 0.0164222 -0.0657623 0.9977 
-0.043878 0.0336514 0.99847 -0.0572724 0.0332601 0.997804 -0.00111363 0.00673801 0.999977 
0.0320042 -0.0709819 0.996964 -0.056332 -0.180514 0.981958 0.00483322 -0.136192 0.990671 
0.121679 -0.0853926 0.988889 0.0986282 -0.111038 0.98891 -0.0251528 -0.108781 0.993748 
-0.216501 -0.0901144 0.972115 -0.541198 -0.156566 0.826191 0.394612 -0.269184 0.878534 
0.174641 -0.0893349 0.980571 0.0492796 -0.0782306 0.995717 -0.039647 0.034357 0.998623 
-0.0163877 0.0640712 0.997811 -0.0501276 0.0239893 0.998455 -0.074617 -0.0428457 0.996291 
0.00501829 -0.0204356 0.999779 0.0587123 -0.120855 0.990932 0.0120838 -0.155031 0.987836 
-0.0575641 -0.303288 0.951159 -0.282029 -0.402869 0.870722 -0.572295 -0.445919 0.688211 
0.508453 -0.409811 0.757318 0.251692 -0.278184 0.926965 0.0832319 -0.176971 0.98069 
0.0853998 0.0248016 0.996038 -0.0114863 -0.0566096 0.99833 -0.0754429 -0.0611036 0.995276 
-0.0978028 -0.0704178 0.992711 -0.0807491 -0.0637758 0.994692 0.0070368 -0.201431 0.979477 
-0.0804287 -0.253248 0.964052 -0.232544 -0.48035 0.845688 -0.3782 -0.608441 0.697685 
0.40531 -0.522901 0.749866 0.300779 -0.392312 0.869266 0.0431908 -0.236876 0.970579 
-0.0793072 -0.283334 0.955736 -0.0746094 -0.281783 0.956573 -0.0949368 -0.201141 0.974951 
-0.167557 -0.262937 0.950152 -0.169856 -0.553205 0.815545 0.070717 -0.613919 0.786195 
0.0163569 -0.546243 0.837467 0.303783 0.664506 0.68275 0.13591 0.427619 0.893684 
0.157714 0.625604 0.764033 0.0333066 0.4333 0.900634 0.0547876 0.611205 0.789574 
-0.0214745 0.402271 0.915269 -0.0171506 0.585383 0.810575 -0.0914453 0.385292 0.918253 
-0.100996 0.611916 0.784448 -0.222966 0.643352 0.732382 -0.39092 0.76052 0.518451 
0.467533 0.59078 0.657565 0.242158 0.311094 0.91901 0.327515 0.491919 0.806691 
0.177839 0.401772 0.898305 0.212506 0.376673 0.901642 0.22783 0.425442 0.875838 
-0.0709801 0.348202 0.934729 -0.0673681 0.345485 0.936003 -0.0712276 0.360562 0.930012 
-0.170932 0.455966 0.873428 -0.184139 0.49121 0.851355 -0.242265 0.398067 0.884788 
-0.434384 0.657182 0.615973 0.533325 0.489023 0.690232 0.248523 0.306419 0.918882 
0.282648 0.243401 0.927829 0.360732 0.384394 0.849773 -0.245662 0.393931 0.885702 
-0.390732 0.301678 0.869666 -0.508027 0.482264 0.713674 0.678575 0.484174 0.552369 
0.285643 0.237037 0.928559 0.43025 0.33255 0.839223 -0.396052 0.303691 0.866553 
-0.529203 0.219016 0.819741 -0.721679 0.519895 0.457044 0.599015 0.337522 0.726126 
0.307431 0.203834 0.929483 0.306684 0.22786 0.924134 0.341241 0.224927 0.912668 
-0.534354 0.208646 0.819105 0.416695 0.202241 0.886264 0.548212 0.184224 0.815797 
-0.56322 0.114174 0.818381 -0.966619 0.216143 0.137588 0.947475 0.0961581 0.305032 
0.454797 0.0789654 0.887087 0.536171 0.0594611 0.842013 -0.59146 0.110396 0.798741 
-0.972765 0.0744773 0.219501 0.960966 -0.146718 0.234559 0.584672 0.112341 0.803454 
0.58623 0.105505 0.803245 0.589118 0.112486 0.800179 -0.659006 -0.0385916 0.751147 
-0.979145 -0.0940058 0.180104 0.592879 -0.107853 0.798036 0.576244 -0.206757 0.790692 
-0.668827 -0.186287 0.7197 0.505367 -0.322878 0.800221 0.782002 -0.524228 0.337131 
-0.578442 -0.449054 0.680996 -0.576677 -0.453184 0.679756 0.536468 -0.428534 0.727021 
0.531646 -0.439468 0.724031 -0.0767386 -0.338996 0.937653 -0.261949 -0.497779 0.8268 
-0.379942 -0.609501 0.69581 -0.379187 -0.609707 0.696042 0.432344 -0.542315 0.720398 
0.420927 -0.546775 0.72378 0.34426 -0.518582 0.782661 -0.126722 -0.562863 0.816779 
0.04086 -0.532171 0.84565 -0.079026 -0.339092 0.937428 -0.219403 -0.468102 0.856004 
-0.0822849 -0.351843 0.932435 -0.0782247 -0.341252 0.936711 -0.200502 -0.572494 0.795015 
-0.182045 -0.574422 0.798059 -0.596317 -0.795518 -0.107507 0.205436 -0.634958 0.744731 
0.519372 -0.820094 0.240203 -0.0680547 -0.6158 0.784958 0.0790395 -0.687647 0.72173 
-0.133379 -0.655659 0.743183 0.0423533 -0.570767 0.820019 0.0659152 -0.680392 0.729878 
-0.0680899 -0.568248 0.820035 0.0128993 -0.590267 0.807105 -0.250535 -0.671399 0.697464 
-0.393968 -0.906397 0.152427 0.292895 0.755573 0.585937 0.162076 0.799155 0.578863 
0.0674923 0.807734 0.585671 0.0694435 0.997181 -0.0284051 -0.0219759 0.801719 0.597296 
-0.0459642 0.998554 0.0278959 -0.117349 0.813163 0.570084 -0.236858 0.843474 0.48213 
-0.389902 0.775605 0.496401 0.47999 0.621482 0.619168 0.393321 0.681271 0.617388 
0.428167 0.627778 0.650052 0.470111 0.765913 0.438602 -0.408618 0.76581 0.496554 
-0.495881 0.744757 0.446587 0.500344 0.608842 0.615603 0.573972 0.53934 0.616172 
-0.587172 0.722273 0.365446 -0.645412 0.689192 0.329328 0.599851 0.523604 0.604995 
0.681524 0.487799 0.545507 -0.753413 0.576968 0.315401 -0.79767 0.528355 0.290799 
0.68324 0.485553 0.545364 -0.856135 0.476863 0.199084 0.840005 0.33102 0.429905 
-0.928069 0.349173 0.129484 -0.968006 0.228555 0.103571 0.866933 0.266011 0.421503 
0.946909 0.105536 0.303687 -0.972968 0.209863 0.0963921 -0.977919 0.20888 0.00666145 
0.950712 0.0948557 0.29521 0.980669 0.0759805 0.180321 -0.996773 0.0508234 0.0621369 
-0.965469 0.0243528 -0.259378 0.961484 -0.146974 0.232265 0.961481 -0.148917 0.231038 
0.963212 -0.149617 0.223243 -0.994413 -0.102005 -0.0271737 -0.957936 -0.281762 -0.054481 
-0.958665 -0.13939 -0.248057 0.93626 -0.351159 0.0102446 0.580988 -0.357639 -0.731127 
-0.933846 -0.352461 -0.060856 0.837855 -0.541788 -0.0668103 0.810418 -0.577974 -0.0957483 
0.785686 -0.559247 -0.264463 0.37651 -0.364435 -0.851721 -0.778387 -0.611631 -0.141495 
-0.700914 -0.697398 -0.149516 -0.653925 -0.595055 -0.467217 0.748871 -0.64436 -0.154895 
0.70583 -0.688149 -0.16809 0.606834 -0.613127 -0.505795 0.33596 -0.34331 -0.87708 
-0.630752 -0.754974 -0.179347 -0.594234 -0.785249 -0.17398 -0.576444 -0.724449 -0.378002 
0.681755 -0.712789 -0.164746 0.620633 -0.767785 -0.159123 0.644405 -0.595414 -0.479817 
-0.520935 -0.85315 -0.0275962 -0.344472 -0.483103 -0.804954 -0.595607 -0.794837 -0.116127 
-0.595541 -0.794947 -0.115718 -0.595668 -0.794314 -0.119349 0.540341 -0.832752 -0.120644 
0.495585 -0.861563 -0.110021 0.503258 -0.829968 -0.240593 0.266162 -0.959818 -0.0889256 
0.268053 -0.605382 -0.74944 0.0745706 -0.997165 -0.0100148 -0.0422909 -0.998594 0.0319583 
-0.135966 -0.990706 0.00383355 -0.267051 -0.962873 0.0394917 -0.218599 -0.642629 -0.734331 
-0.411331 -0.91134 0.0163307 -0.37871 -0.925085 0.0282209 -0.405225 -0.898511 -0.168733 
0.067854 0.996493 -0.0489718 -0.0498563 0.993187 -0.105324 0.435373 0.897506 0.0702342 
0.297086 0.952527 0.0665825 0.0790032 0.996098 -0.0393319 0.147252 0.989055 0.00935394 
0.0656017 0.995909 -0.0621419 -0.108452 0.991635 -0.0699847 -0.0441289 0.984296 -0.170921 
-0.184439 0.982041 -0.0397208 -0.30907 0.941868 -0.131758 -0.452651 0.866233 -0.211535 
0.507167 0.856486 0.0959848 0.577162 0.811129 0.0946207 -0.34091 0.571204 -0.746663 
-0.516736 0.828729 -0.214925 -0.425854 0.781459 -0.456038 -0.586417 0.767806 -0.258047 
0.681516 0.729424 0.0589586 0.704023 0.708761 0.0448262 -0.696855 0.640786 -0.322158 
-0.533991 0.509306 -0.674879 -0.711307 0.622241 -0.326892 0.812937 0.581207 0.0365073 
0.860837 0.508516 -0.019241 -0.757468 0.544987 -0.359489 -0.559259 0.335933 -0.757878 
-0.82197 0.381216 -0.42313 0.910234 0.400444 -0.105448 0.839099 0.295194 -0.456917 
-0.439583 0.0608062 -0.896142 -0.845193 0.253322 -0.470614 -0.796805 0.229893 -0.558795 
0.951157 0.257438 -0.170372 0.643111 0.0911806 -0.760325 -0.354287 0.0851793 -0.931249 
-0.763359 0.181284 -0.620015 -0.65272 0.152798 -0.742031 0.952552 0.117091 -0.280953 
0.548107 -0.0979215 -0.830657 -0.221964 0.00103855 -0.975054 -0.770881 0.129514 -0.623673 
-0.549496 0.0728558 -0.832314 0.884416 -0.0530016 -0.463679 0.539092 -0.210245 -0.815584 
-0.230233 -0.104044 -0.967557 -0.714512 -0.0402941 -0.698462 -0.494491 -0.113367 -0.861758 
0.704186 -0.330988 -0.628147 0.522982 -0.353114 -0.775758 0.464491 -0.326968 -0.823007 
0.257296 -0.351552 -0.900117 0.0794496 -0.328242 -0.941247 -0.0279177 -0.337187 -0.941024 
0.0220141 -0.372776 -0.92766 -0.112236 -0.234649 -0.965579 -0.14106 -0.173128 -0.974745 
-0.261386 -0.122872 -0.957382 -0.617957 -0.130898 -0.775239 -0.502478 -0.133079 -0.854287 
0.495346 -0.350712 -0.794754 0.361298 -0.356543 -0.861592 0.272204 -0.345937 -0.897905 
0.101233 -0.228638 -0.968234 0.0185185 -0.228233 -0.97343 0.0341531 -0.122966 -0.991823 
0.0856242 -0.162696 -0.982954 -0.0239419 -0.34864 -0.936951 -0.0640468 -0.279982 -0.957867 
0.00796481 -0.256697 -0.966459 0.0102878 -0.241912 -0.970244 -0.0133533 -0.267277 -0.963527 
-0.0659612 -0.224762 -0.972178 -0.250641 -0.258759 -0.932857 -0.59334 -0.29419 -0.749267 
-0.524738 -0.373552 -0.764924 -0.45217 -0.273987 -0.848807 0.355112 -0.354948 -0.864816 
0.303901 -0.32613 -0.895144 0.200953 -0.309673 -0.929366 0.092921 -0.122787 -0.988073 
0.103169 -0.071738 -0.992073 0.0319034 -0.0592049 -0.997736 -0.00324837 -0.0912345 -0.995824 
-0.0294037 -0.03552 -0.998936 -0.0281306 -0.0668088 -0.997369 -0.0886408 -0.111368 -0.989818 
-0.0907377 -0.220721 -0.971107 -0.127327 -0.308356 -0.942711 -0.443928 -0.462331 -0.767579 
-0.406774 -0.518234 -0.752309 -0.325308 -0.376071 -0.867609 0.313434 -0.28603 -0.905509 
0.262962 -0.150128 -0.953054 0.0900358 -0.153847 -0.983984 0.0601143 -0.061794 -0.996277 
0.0081225 -0.136776 -0.990569 -0.0353762 -0.0348201 -0.998767 -0.0693339 -0.107258 -0.991811 
-0.13278 -0.189821 -0.972799 -0.32751 -0.452008 -0.829715 -0.250713 -0.275266 -0.928101 
-0.343951 -0.510736 -0.787938 -0.325953 -0.500741 -0.801881 -0.258786 -0.436597 -0.861634 
0.423686 -0.431438 -0.796462 0.322691 -0.524675 -0.787773 0.221353 -0.353233 -0.908972 
0.206179 -0.46935 -0.858604 0.148234 -0.313161 -0.93806 0.0563539 -0.288642 -0.955777 
0.0218865 -0.260059 -0.965345 0.00971308 -0.288962 -0.957291 -0.209435 -0.591452 -0.778666 
-0.195656 -0.32437 -0.925474 -0.31157 -0.469749 -0.825991 -0.225732 -0.514284 -0.827379 
-0.195508 -0.456553 -0.867949 0.179075 -0.550388 -0.815478 0.101635 -0.605676 -0.789194 
0.102321 -0.556628 -0.824436 -0.00531614 -0.635253 -0.772286 -0.00198087 -0.56413 -0.825684 
-0.174052 -0.61204 -0.771436 -0.0762755 -0.64643 -0.759151 -0.0741779 -0.603079 -0.794225 
0.421583 0.707221 -0.567544 0.171183 0.812753 -0.556892 0.0082008 0.756107 -0.654396 
-0.0117091 0.673035 -0.739518 -0.037814 0.622534 -0.781679 -0.185142 0.51595 -0.836372 
0.427362 0.704902 -0.566105 0.535317 0.631351 -0.561099 0.418656 0.699317 -0.579381 
0.159478 0.62815 -0.761573 -0.0232716 0.567442 -0.823084 -0.0412749 0.498069 -0.866154 
-0.0906021 0.415312 -0.905156 -0.27228 0.464902 -0.842454 -0.181749 0.404832 -0.896146 
-0.268349 0.426962 -0.863535 -0.288737 0.412009 -0.864222 0.578682 0.570306 -0.582991 
0.544635 0.483155 -0.685517 0.488381 0.504428 -0.712065 0.270407 0.401159 -0.875187 
0.0444049 0.241007 -0.969507 -0.0619556 0.237178 -0.969489 -0.149883 0.193039 -0.969676 
-0.0924398 0.138959 -0.985974 -0.122146 0.20917 -0.970221 -0.16597 0.209133 -0.9637 
-0.33257 0.359036 -0.872061 -0.262364 0.322776 -0.909385 -0.290018 0.284094 -0.913882 
0.560126 0.440745 -0.701429 0.514015 0.422817 -0.746334 0.380942 0.193859 -0.904047 
0.125593 0.0536525 -0.99063 0.0401695 0.0566293 -0.997587 -0.0826691 0.0402468 -0.995764 
-0.185734 0.00948101 -0.982554 -0.12312 0.00227244 -0.992389 -0.0920705 -0.00845594 -0.995717 
-0.113841 0.0771836 -0.990496 -0.145291 0.09643 -0.984679 -0.320837 0.255058 -0.912145 
-0.265005 0.253448 -0.930342 0.641909 0.144947 -0.752956 0.403933 0.0900837 -0.910342 
0.197387 -0.0246138 -0.980017 0.119819 -0.0683106 -0.990443 0.0301814 -0.0905313 -0.995436 
-0.105584 -0.130548 -0.985804 -0.193459 -0.105187 -0.975453 -0.107808 -0.0856755 -0.990473 
-0.0429785 -0.0451902 -0.998053 -0.0777087 -0.00796856 -0.996944 -0.146767 -0.00971826 -0.989123 
-0.299685 0.0240668 -0.953735 -0.263961 0.0230001 -0.964259 0.501791 0.00445257 -0.864977 
0.322852 -0.0995934 -0.941195 0.183082 -0.108496 -0.977092 0.0700163 -0.128816 -0.989194 
-0.0155461 -0.16482 -0.986201 -0.0923863 -0.166079 -0.981775 -0.150627 0.00139135 -0.98859 
-0.060829 0.0644961 -0.996062 -0.0138851 -0.0583179 -0.998201 -0.0812724 -0.0842887 -0.993121 
-0.12199 -0.0564589 -0.990924 -0.261161 0.030868 -0.964802 -0.212387 -0.0124619 -0.977106 
0.398368 -0.0857246 -0.913211 0.283975 -0.0757788 -0.955833 0.157407 -0.164078 -0.973808 
0.0534873 -0.199162 -0.978506 -0.0102383 -0.172227 -0.985004 0.0554917 -0.144964 -0.98788 
0.0622733 -0.0782916 -0.994984 -0.191869 -0.0629716 -0.979398 -0.188756 -0.0618106 -0.980077 
-0.0755227 -0.0199787 -0.996944 -0.0809171 -0.0517424 -0.995377 -0.175348 -0.0232128 -0.984233 
-0.141437 -0.0470174 -0.98883 0.364285 -0.203651 -0.908748 0.27023 -0.27882 -0.92154 
0.277812 -0.205387 -0.938423 0.0745024 -0.313039 -0.946814 0.0749854 -0.255529 -0.963889 
-0.0179602 -0.333675 -0.942517 0.0561291 -0.30247 -0.951505 0.0313327 -0.370201 -0.928423 
0.0389178 -0.324778 -0.944989 -0.0241208 -0.236024 -0.971448 -0.131919 -0.182659 -0.974286 
0.0147529 -0.210086 -0.977572 0.0873229 -0.0677918 -0.993871 -0.0723844 -0.0428855 -0.996454 
-0.11534 -0.226041 -0.967265 -0.148251 -0.103193 -0.983551 -0.169977 -0.092991 -0.981051 
-0.156646 -0.11151 -0.98134 -0.162341 -0.0903945 -0.982585 0.258676 -0.360886 -0.896018 
0.265463 -0.356801 -0.895669 0.268229 -0.359379 -0.893812 0.0259299 -0.325908 -0.945046 
0.0886692 -0.229141 -0.969346 -0.0891351 -0.26187 -0.960978 -0.0806341 -0.216431 -0.972962 
-0.0377825 -0.325875 -0.944658 -0.056024 -0.339932 -0.93878 -0.111956 -0.241801 -0.963846 
-0.0645883 -0.313792 -0.947292 -0.109504 -0.335497 -0.935655 
