# vtk DataFile Version 4.2
vtk output
ASCII
DATASET POLYDATA
POINTS 562 float
-44.2341 -35.4399 -12.8617 -35.8491 -35.4399 -13.4698 -27.4641 -35.4399 -14.0487 
-19.0791 -35.4399 -13.9861 -10.6941 -35.4399 -14.9344 -2.3091 -35.4399 -16.4134 
6.0759 -35.4399 -17.1543 14.4609 -35.4399 -16.8796 22.8459 -35.4399 -16.9609 
31.2309 -35.4399 -15.9764 39.6159 -35.4399 -13.0159 -52.6191 -27.0549 -13.6026 
-44.2341 -27.0549 -16.1108 -35.8491 -27.0549 -17.1058 -27.4641 -27.0549 -16.9541 
-19.0791 -27.0549 -17.0957 -10.6941 -27.0549 -17.07 -2.3091 -27.0549 -18.6335 
6.0759 -27.0549 -19.6611 14.4609 -27.0549 -18.5771 22.8459 -27.0549 -19.3606 
31.2309 -27.0549 -18.7995 39.6159 -27.0549 -17.26 48.0009 -27.0549 -15.0806 
-61.0041 -18.6699 -14.6304 -52.6191 -18.6699 -17.0435 -44.2341 -18.6699 -17.0154 
-35.8491 -18.6699 -17.7633 -27.4641 -18.6699 -18.1181 -19.0791 -18.6699 -17.6357 
-10.6941 -18.6699 -17.4109 -2.3091 -18.6699 -18.6666 6.0759 -18.6699 -18.3814 
14.4609 -18.6699 -17.9378 22.8459 -18.6699 -18.9699 31.2309 -18.6699 -19.5772 
39.6159 -18.6699 -18.0014 48.0009 -18.6699 -15.8952 56.3859 -18.6699 -14.1493 
-61.0041 -10.2849 -14.5913 -52.6191 -10.2849 -17.5672 -44.2341 -10.2849 -18.3249 
-35.8491 -10.2849 -17.5885 -27.4641 -10.2849 -16.7398 -19.0791 -10.2849 -16.8186 
-10.6941 -10.2849 -17.7939 -2.3091 -10.2849 -18.6795 6.0759 -10.2849 -18.4877 
14.4609 -10.2849 -16.8707 22.8459 -10.2849 -17.8718 31.2309 -10.2849 -17.8106 
39.6159 -10.2849 -16.5975 48.0009 -10.2849 -15.2335 56.3859 -10.2849 -12.2721 
-69.3891 -1.89991 -13.2873 -61.0041 -1.89991 -16.1044 -52.6191 -1.89991 -17.2981 
-44.2341 -1.89991 -18.3599 -35.8491 -1.89991 -17.5004 -27.4641 -1.89991 -16.2955 
-19.0791 -1.89991 -16.1537 -10.6941 -1.89991 -20.4536 -2.3091 -1.89991 -16.907 
6.0759 -1.89991 -18.9913 14.4609 -1.89991 -19.4669 22.8459 -1.89991 -17.9628 
31.2309 -1.89991 -16.1824 39.6159 -1.89991 -15.3978 48.0009 -1.89991 -14.5865 
-69.3891 6.48508 -13.9764 -61.0041 6.48508 -16.778 -52.6191 6.48508 -17.8753 
-44.2341 6.48508 -18.9237 -35.8491 6.48508 -18.1614 -27.4641 6.48508 -17.519 
-19.0791 6.48508 -16.7753 -10.6941 6.48508 -19.734 -2.3091 6.48508 -19.2593 
6.0759 6.48508 -16.6854 14.4609 6.48508 -19.7055 22.8459 6.48508 -19.0976 
31.2309 6.48508 -16.6222 39.6159 6.48508 -15.5935 48.0009 6.48508 -15.0728 
56.3859 6.48508 -12.508 -69.3891 14.8701 -14.2343 -61.0041 14.8701 -16.9184 
-52.6191 14.8701 -17.8514 -44.2341 14.8701 -19.4358 -35.8491 14.8701 -18.791 
-27.4641 14.8701 -18.2385 -19.0791 14.8701 -17.4795 -10.6941 14.8701 -17.197 
-2.3091 14.8701 -19.1302 6.0759 14.8701 -17.9592 14.4609 14.8701 -18.2064 
22.8459 14.8701 -18.9519 31.2309 14.8701 -17.6213 39.6159 14.8701 -16.4379 
48.0009 14.8701 -14.2318 -61.0041 23.2551 -14.1785 -52.6191 23.2551 -19.0094 
-44.2341 23.2551 -18.314 -35.8491 23.2551 -18.6022 -27.4641 23.2551 -18.6772 
-19.0791 23.2551 -17.956 -10.6941 23.2551 -17.971 -2.3091 23.2551 -18.401 
6.0759 23.2551 -18.3048 14.4609 23.2551 -17.7588 22.8459 23.2551 -17.8706 
31.2309 23.2551 -17.1527 39.6159 23.2551 -15.8389 48.0009 23.2551 -13.8541 
56.3859 23.2551 -12.7816 -52.6191 31.6401 -13.8949 -44.2341 31.6401 -17.763 
-35.8491 31.6401 -16.7278 -27.4641 31.6401 -18.4133 -19.0791 31.6401 -17.2977 
-10.6941 31.6401 -17.5546 -2.3091 31.6401 -16.9741 6.0759 31.6401 -17.0125 
14.4609 31.6401 -16.1221 22.8459 31.6401 -15.3136 31.2309 31.6401 -14.8869 
39.6159 31.6401 -13.5883 48.0009 31.6401 -13.0286 -27.4641 40.0251 -13.1338 
-19.0791 40.0251 -13.7358 -10.6941 40.0251 -13.1593 -44.2341 -36.1004 -12.2375 
-35.8491 -36.8599 -12.2375 -27.4641 -37.7645 -12.2375 -19.0791 -37.6209 -12.2375 
-10.6941 -38.9471 -12.2375 -2.3091 -40.1593 -12.2375 6.0759 -40.6905 -12.2375 
14.4609 -40.7807 -12.2375 22.8459 -40.5099 -12.2375 31.2309 -39.2614 -12.2375 
39.6159 -36.0387 -12.2375 -45.954 -35.4399 -12.2375 -52.6191 -29.7962 -12.2375 
-52.6191 -35.4399 -7.02082 40.9399 -35.4399 -12.2375 48.0009 -30.8715 -12.2375 
-57.0825 -27.0549 -12.2375 -61.0041 -24.9012 -12.2375 -61.0041 -27.0549 -10.3954 
51.9119 -27.0549 -12.2375 56.3859 -22.6458 -12.2375 56.3859 -27.0549 -8.25159 
-64.974 -18.6699 -12.2375 -69.3891 -18.6699 -6.92182 58.8641 -18.6699 -12.2375 
64.7709 -18.6699 -6.73634 -67.3299 -10.2849 -12.2375 -69.3891 -7.24119 -12.2375 
-69.3891 -10.2849 -11.3097 56.5055 -10.2849 -12.2375 56.3859 -6.95613 -12.2375 
64.7709 -10.2849 -9.22254 -70.8945 -1.89991 -12.2375 56.2094 -1.89991 -12.2375 
56.3859 -0.569725 -12.2375 56.3859 -1.89991 -12.1938 64.7709 -1.89991 -9.42847 
73.1559 -1.89991 -5.9586 -71.8084 6.48508 -12.2375 -77.7741 6.48508 -4.05181 
57.3102 6.48508 -12.2375 56.3859 9.18226 -12.2375 64.7709 6.48508 -9.74532 
73.1559 6.48508 -6.73892 -71.8828 14.8701 -12.2375 -69.3891 19.9727 -12.2375 
54.5208 14.8701 -12.2375 56.3859 18.714 -12.2375 56.3859 14.8701 -11.7165 
64.7709 14.8701 -8.36881 73.1559 14.8701 -4.43975 -65.4495 23.2551 -12.2375 
-69.3891 23.2551 -9.91298 -61.0041 28.5303 -12.2375 57.6393 23.2551 -12.2375 
56.3859 24.5062 -12.2375 64.7709 23.2551 -8.28922 -57.4859 31.6401 -12.2375 
-61.0041 31.6401 -10.2901 -52.6191 33.9886 -12.2375 -44.2341 38.4208 -12.2375 
-35.8491 39.4888 -12.2375 -2.3091 39.3372 -12.2375 6.0759 38.0125 -12.2375 
14.4609 37.0644 -12.2375 22.8459 35.76 -12.2375 31.2309 35.6197 -12.2375 
39.6159 33.7629 -12.2375 49.6038 31.6401 -12.2375 48.0009 32.7755 -12.2375 
56.3859 31.6401 -8.08776 -44.2341 40.0251 -9.26965 -33.6505 40.0251 -12.2375 
-35.8491 40.0251 -11.536 -27.4641 41.0254 -12.2375 -19.0791 41.4986 -12.2375 
-5.36306 40.0251 -12.2375 -10.6941 40.8089 -12.2375 -2.3091 40.0251 -8.13135 
6.0759 40.0251 -4.23167 14.4609 40.0251 -6.12138 22.8459 40.0251 -6.8586 
31.2309 40.0251 -6.71543 39.6159 40.0251 -5.88213 -52.6191 -36.8011 -3.85252 
-44.2341 -39.4312 -3.85252 -35.8491 -40.9547 -3.85252 -27.4641 -42.6163 -3.85252 
-19.0791 -43.4023 -3.85252 -10.6941 -43.6898 -3.85252 -2.3091 -43.2921 -3.85252 
6.0759 -42.953 -3.85252 14.4609 -43.2451 -3.85252 22.8459 -43.2568 -3.85252 
31.2309 -41.4788 -3.85252 39.6159 -38.7928 -3.85252 -54.9634 -35.4399 -3.85252 
-61.0041 -31.1805 -3.85252 -52.6191 -35.4399 4.23351 47.862 -35.4399 -3.85252 
48.0009 -35.3792 -3.85252 56.3859 -30.2681 -3.85252 -65.2656 -27.0549 -3.85252 
-69.3891 -21.6122 -3.85252 60.5609 -27.0549 -3.85252 64.7709 -22.8882 -3.85252 
-71.6004 -18.6699 -3.85252 68.1126 -18.6699 -3.85252 -74.8718 -10.2849 -3.85252 
72.572 -10.2849 -3.85252 73.1559 -8.41877 -3.85252 73.1559 -10.2849 -3.15421 
-77.3304 -1.89991 -3.85252 -77.7741 4.70254 -3.85252 74.3432 -1.89991 -3.85252 
-77.8894 6.48508 -3.85252 -77.7741 7.8937 -3.85252 -77.7741 6.48508 -3.02716 
74.6548 6.48508 -3.85252 -77.17 14.8701 -3.85252 73.3484 14.8701 -3.85252 
73.1559 15.4957 -3.85252 -73.5861 23.2551 -3.85252 -69.3891 28.6909 -3.85252 
70.2481 23.2551 -3.85252 64.7709 29.9083 -3.85252 73.1559 23.2551 1.52808 
-66.1067 31.6401 -3.85252 -61.0041 35.665 -3.85252 -52.6191 39.4226 -3.85252 
48.0009 39.9789 -3.85252 62.9064 31.6401 -3.85252 56.3859 35.9922 -3.85252 
64.7709 31.6401 0.615179 -50.3233 40.0251 -3.85252 -44.2341 41.7105 -3.85252 
-44.2341 40.0251 1.51281 -35.8491 43.0689 -3.85252 -35.8491 40.0251 3.95727 
-27.4641 43.9455 -3.85252 -27.4641 40.0251 3.20755 -19.0791 43.6337 -3.85252 
-19.0791 40.0251 3.85538 -10.6941 42.3986 -3.85252 -10.6941 40.0251 0.783619 
-2.3091 40.4947 -3.85252 -2.3091 40.0251 -2.86781 6.0759 40.0906 -3.85252 
6.0759 40.0251 -3.69651 14.4609 40.7779 -3.85252 14.4609 40.0251 -1.32299 
22.8459 41.4859 -3.85252 22.8459 40.0251 3.31705 31.2309 41.5337 -3.85252 
47.7593 40.0251 -3.85252 39.6159 41.069 -3.85252 -44.2341 -37.6705 4.53248 
-35.8491 -39.3407 4.53248 -27.4641 -40.8701 4.53248 -19.0791 -42.3424 4.53248 
-10.6941 -43.1978 4.53248 -2.3091 -42.6321 4.53248 6.0759 -42.1821 4.53248 
14.4609 -42.4209 4.53248 22.8459 -41.8832 4.53248 31.2309 -39.6163 4.53248 
39.6159 -36.9164 4.53248 -61.0041 -29.2592 4.53248 -52.4175 -35.4399 4.53248 
-52.6191 -35.3513 4.53248 -44.2341 -35.4399 7.45743 -35.8491 -35.4399 9.26102 
-27.4641 -35.4399 10.7183 31.2309 -35.4399 10.7858 43.8121 -35.4399 4.53248 
39.6159 -35.4399 6.84722 48.0009 -33.6968 4.53248 56.3859 -30.2289 4.53248 
-63.46 -27.0549 4.53248 -69.3891 -19.7121 4.53248 -61.0041 -27.0549 7.33585 
48.0009 -27.0549 12.1373 61.6309 -27.0549 4.53248 56.3859 -27.0549 11.0217 
64.7709 -24.601 4.53248 -70.1223 -18.6699 4.53248 -69.3891 -18.6699 5.35088 
71.6961 -18.6699 4.53248 73.1559 -16.7187 4.53248 -73.7652 -10.2849 4.53248 
-69.3891 -10.2849 9.60776 76.9266 -10.2849 4.53248 -76.2898 -1.89991 4.53248 
-69.3891 -1.89991 12.0081 79.5881 -1.89991 4.53248 -76.2641 6.48508 4.53248 
-69.3891 6.48508 11.594 14.4609 6.48508 12.7046 80.3218 6.48508 4.53248 
-75.7662 14.8701 4.53248 -69.3891 14.8701 10.9739 -10.6941 14.8701 12.8579 
14.4609 14.8701 12.8782 78.1844 14.8701 4.53248 -71.7034 23.2551 4.53248 
-69.3891 26.2755 4.53248 -69.3891 23.2551 6.83212 -19.0791 23.2551 12.7177 
-10.6941 23.2551 11.823 -2.3091 23.2551 11.7571 6.0759 23.2551 12.1084 
14.4609 23.2551 12.4421 74.5574 23.2551 4.53248 73.1559 24.9371 4.53248 
73.1559 23.2551 7.10585 -62.9217 31.6401 4.53248 -61.0041 32.9704 4.53248 
-61.0041 31.6401 5.83796 -52.6191 36.0916 4.53248 -52.6191 31.6401 9.7554 
-44.2341 38.6243 4.53248 -44.2341 31.6401 10.5456 -35.8491 39.7227 4.53248 
-35.8491 31.6401 10.7987 -27.4641 39.0602 4.53248 -27.4641 31.6401 10.4487 
-19.0791 39.5348 4.53248 -19.0791 31.6401 9.94788 -10.6941 37.5235 4.53248 
-10.6941 31.6401 9.01689 -2.3091 35.5375 4.53248 -2.3091 31.6401 7.85412 
6.0759 35.6829 4.53248 6.0759 31.6401 8.16347 14.4609 37.6685 4.53248 
14.4609 31.6401 9.85608 22.8459 39.6379 4.53248 22.8459 31.6401 10.9699 
31.2309 31.6401 11.5382 39.6159 31.6401 11.9053 48.0009 39.456 4.53248 
56.3859 36.8204 4.53248 56.3859 31.6401 11.2055 66.1285 31.6401 4.53248 
64.7709 32.8411 4.53248 64.7709 31.6401 6.07313 27.668 40.0251 4.53248 
31.2309 40.2141 4.53248 31.2309 40.0251 4.85001 43.293 40.0251 4.53248 
[...]
POINT_DATA 562
SCALARS ImageScalars float
LOOKUP_TABLE default
0 0 0 0 0 0 0 0 0 
0 0 0 0 0 0 0 0 0 
0 0 0 0 0 0 0 0 0 
0 0 0 0 0 0 0 0 0 
0 0 0 0 0 0 0 0 0 
0 0 0 0 0 0 0 0 0 
0 0 0 0 0 0 0 0 0 
0 0 0 0 0 0 0 0 0 
0 0 0 0 0 0 0 0 0 
0 0 0 0 0 0 0 0 0 
0 0 0 0 0 0 0 0 0 
0 0 0 0 0 0 0 0 0 
0 0 0 0 0 0 0 0 0 
0 0 0 0 0 0 0 0 0 
0 0 0 0 0 0 0 0 0 
0 0 0 0 0 0 0 0 0 
0 0 0 0 0 0 0 0 0 
0 0 0 0 0 0 0 0 0 
0 0 0 0 0 0 0 0 0 
0 0 0 0 0 0 0 0 0 
0 0 0 0 0 0 0 0 0 
0 0 0 0 0 0 0 0 0 
0 0 0 0 0 0 0 0 0 
0 0 0 0 0 0 0 0 0 
0 0 0 0 0 0 0 0 0 
0 0 0 0 0 0 0 0 0 
0 0 0 0 0 0 0 0 0 
0 0 0 0 0 0 0 0 0 
0 0 0 0 0 0 0 0 0 
0 0 0 0 0 0 0 0 0 
0 0 0 0 0 0 0 0 0 
0 0 0 0 0 0 0 0 0 
0 0 0 0 0 0 0 0 0 
0 0 0 0 0 0 0 0 0 
0 0 0 0 0 0 0 0 0 
0 0 0 0 0 0 0 0 0 
0 0 0 0 0 0 0 0 0 
0 0 0 0 0 0 0 0 0 
0 0 0 0 0 0 0 0 0 
0 0 0 0 0 0 0 0 0 
0 0 0 0 0 0 0 0 0 
0 0 0 0 0 0 0 0 0 
0 0 0 0 0 0 0 0 0 
0 0 0 0 0 0 0 0 0 
0 0 0 0 0 0 0 0 0 
0 0 0 0 0 0 0 0 0 
0 0 0 0 0 0 0 0 0 
0 0 0 0 0 0 0 0 0 
0 0 0 0 0 0 0 0 0 
0 0 0 0 0 0 0 0 0 
0 0 0 0 0 0 0 0 0 
0 0 0 0 0 0 0 0 0 
0 0 0 0 0 0 0 0 0 
0 0 0 0 0 0 0 0 0 
0 0 0 0 0 0 0 0 0 
0 0 0 0 0 0 0 0 0 
0 0 0 0 0 0 0 0 0 
0 0 0 0 0 0 0 0 0 
0 0 0 0 0 0 0 0 0 
0 0 0 0 0 0 0 0 0 
0 0 0 0 0 0 0 0 0 
0 0 0 0 0 0 0 0 0 
0 0 0 0 
NORMALS Normals float
0.211369 0.67498 0.706913 0.0699173 0.613916 0.786269 0.029493 0.531194 0.846737 
0.0512989 0.518994 0.853237 0.131235 0.468449 0.87369 0.129856 0.504995 0.853298 
0.0266225 0.523083 0.851866 -0.0115695 0.462949 0.88631 -0.0516359 0.507721 0.859973 
-0.167126 0.574099 0.801548 -0.396314 0.716801 0.5737 0.328743 0.407936 0.851773 
0.169239 0.225891 0.959339 0.0572372 0.244315 0.968005 -0.000204779 0.235221 0.971942 
0.00692961 0.188878 0.981976 0.0949812 0.138441 0.985806 0.148498 0.11639 0.98204 
-0.00169382 0.0534796 0.998568 -0.0173115 0.0541135 0.998385 0.0105039 0.0936605 0.995549 
-0.109389 0.186784 0.976292 -0.209393 0.207724 0.955513 -0.444992 0.354421 0.822416 
0.384482 0.206156 0.899818 0.189217 0.233182 0.953847 0.0438747 0.136234 0.989705 
0.0658709 0.0255149 0.997502 -0.00743275 -0.0137173 0.999878 -0.0439417 -0.0177747 0.998876 
0.0577479 0.0427311 0.997416 0.0592789 0.00284041 0.998237 -0.0438206 -0.0705564 0.996545 
0.0352361 -0.101556 0.994206 0.0957022 -0.087174 0.991585 -0.0541288 -0.0484211 0.997359 
-0.229956 -0.0433755 0.972234 -0.2373 -0.00617474 0.971417 -0.485125 0.133367 0.864215 
0.349388 0.0750104 0.933971 0.176585 0.00885463 0.984246 0.0129039 0.0799471 0.996716 
-0.092869 -0.0155837 0.995556 -0.0463532 -0.11502 0.992281 0.0634348 -0.0837054 0.994469 
0.112809 0.157995 0.980975 0.0443065 -0.102768 0.993718 -0.122802 0.0373769 0.991727 
-0.0191736 0.0685206 0.997465 0.0560071 -0.0599429 0.996629 -0.075533 -0.202649 0.976334 
-0.155179 -0.152617 0.976026 -0.236206 -0.0765693 0.968682 -0.30385 -0.123576 0.944671 
0.463363 0.114693 0.878715 0.283036 0.125311 0.950888 0.120031 0.0136905 0.992676 
0.0116012 0.0357156 0.999295 -0.121665 0.0338523 0.991994 -0.0787317 0.0461267 0.995828 
0.223637 -0.00288704 0.974668 0.0185572 0.135203 0.990644 -0.0703767 0.0232647 0.997249 
0.152536 -0.119492 0.981048 -0.0669661 0.178589 0.981642 -0.186309 0.0732977 0.979753 
-0.150882 -0.064917 0.986418 -0.0936664 -0.0590004 0.993854 -0.186058 -0.0128867 0.982454 
0.485898 0.0613207 0.871862 0.270754 0.0449272 0.9616 0.119851 0.032688 0.992254 
0.0167607 0.0634739 0.997843 -0.082925 0.0765723 0.99361 -0.0827586 0.116172 0.989775 
0.107601 0.0769344 0.991213 0.162213 -0.200504 0.96617 -0.187114 0.134817 0.973043 
0.02302 -0.0467349 0.998642 0.150429 -0.080562 0.985333 -0.183675 0.0594719 0.981186 
-0.203332 0.0842456 0.975479 -0.0908818 0.0609093 0.993997 -0.176678 -0.019919 0.984067 
-0.254464 -0.0263775 0.966722 0.5005 -0.128244 0.856185 0.25243 -0.1395 0.957506 
0.136929 0.0528613 0.989169 0.0550039 -0.0340332 0.997906 -0.0702713 0.0261553 0.997185 
-0.0778582 0.0681762 0.994631 -0.0617342 0.0699617 0.995638 0.0919435 -0.0845815 0.992166 
0.0470032 -0.0517631 0.997553 -0.0516882 0.0974789 0.993894 0.0601545 -0.10721 0.992415 
-0.0339153 -0.0699825 0.996971 -0.148213 0.0300676 0.988498 -0.196891 0.0160476 0.980294 
-0.275065 -0.0683891 0.95899 0.384178 -0.300971 0.872825 0.197221 -0.172285 0.965102 
-0.0165655 -0.0918256 0.995637 0.0205283 -0.110531 0.993661 -0.0391585 0.0133567 0.999144 
-0.0414169 -0.00836347 0.999107 0.0273737 0.0249633 0.999314 0.0182886 -0.122526 0.992297 
-0.0381238 -0.0459888 0.998214 -0.0254808 -0.122019 0.992201 -0.0374927 -0.189054 0.981251 
-0.113021 -0.159269 0.980744 -0.187063 -0.144161 0.971712 -0.203869 -0.0820525 0.975554 
-0.296488 -0.176791 0.938531 0.304031 -0.52001 0.79822 0.134812 -0.372635 0.918133 
0.0438252 -0.298726 0.953332 0.0284945 -0.293376 0.955572 -0.0438167 -0.228762 0.972496 
-0.0205103 -0.243519 0.969679 -0.0317673 -0.338668 0.940369 -0.0537177 -0.3834 0.922019 
-0.0901464 -0.407866 0.908581 -0.0740333 -0.460906 0.884355 -0.0852144 -0.435196 0.896294 
-0.121035 -0.415568 0.901473 -0.286762 -0.412474 0.864658 0.0845086 -0.699764 0.709357 
0.00536082 -0.70631 0.707883 -0.107921 -0.787204 0.607176 0.213668 0.706211 0.67499 
0.0846553 0.683157 0.725348 0.039058 0.649087 0.759711 0.0537838 0.630801 0.774078 
0.116954 0.661255 0.740988 0.0836974 0.787131 0.611081 0.0325445 0.836819 0.546512 
-0.00839461 0.823336 0.567492 -0.0874214 0.808221 0.582354 -0.218656 0.826599 0.518578 
-0.400746 0.750873 0.524969 0.262048 0.678266 0.686503 0.374194 0.48342 0.791381 
0.460176 0.816748 0.348082 -0.414563 0.73394 0.538023 -0.468182 0.573371 0.672348 
0.40721 0.477797 0.778389 0.459152 0.453925 0.763631 0.519922 0.577157 0.629739 
-0.500475 0.465414 0.73001 -0.53431 0.315863 0.784055 -0.577437 0.604442 0.548832 
0.51889 0.314676 0.794816 0.743999 0.539814 0.393784 -0.529904 0.184886 0.827658 
-0.643609 0.364845 0.672797 0.562555 0.215305 0.798233 0.557864 0.226631 0.798389 
0.648942 0.297135 0.700418 -0.304339 -0.120337 0.944932 -0.285574 -0.0691108 0.955862 
-0.412152 0.177305 0.893697 0.509206 0.146535 0.848078 -0.254686 0.0117862 0.966952 
-0.255803 0.00615165 0.966709 -0.256343 0.0129203 0.966499 -0.317457 0.0276413 0.94787 
-0.681734 0.102359 0.724405 0.571656 0.0478851 0.819095 0.969607 -0.00899586 0.244503 
-0.250043 -0.0285393 0.967814 -0.264338 -0.0115747 0.964361 -0.315636 -0.056246 0.947212 
-0.654802 -0.020172 0.755531 0.586061 -0.190631 0.787523 0.575739 -0.364561 0.731861 
-0.283331 0.00115563 0.959021 -0.295015 -0.0715909 0.952807 -0.292959 0.00664631 0.956102 
-0.328499 -0.0860396 0.940577 -0.793346 -0.251454 0.554413 0.511496 -0.393328 0.76398 
0.670369 -0.522336 0.527039 0.414397 -0.437009 0.79831 -0.310352 -0.204379 0.928392 
-0.336683 -0.237245 0.911241 -0.464965 -0.32313 0.824254 0.357868 -0.527905 0.770225 
0.483991 -0.613465 0.62403 0.306562 -0.597676 0.740812 0.202045 -0.730142 0.652741 
0.121118 -0.77222 0.623704 -0.132153 -0.85676 0.498496 -0.100319 -0.817454 0.56719 
-0.092546 -0.718796 0.689034 -0.0629732 -0.631208 0.773053 -0.0649248 -0.619686 0.78216 
-0.127311 -0.507071 0.85245 -0.33503 -0.444607 0.83071 -0.296675 -0.47964 0.82579 
-0.473533 -0.576117 0.666225 0.217891 -0.890306 0.399849 0.117084 -0.774426 0.621736 
0.126613 -0.829666 0.543713 0.0967797 -0.742673 0.662624 -0.0182989 -0.792271 0.609895 
-0.130408 -0.858503 0.49595 -0.120339 -0.837828 0.532506 -0.140548 -0.979697 0.14297 
0.0148327 -0.995358 -0.0950878 0.041665 -0.985554 0.164155 0.0108519 -0.939299 0.342927 
-0.0317964 -0.931289 0.362892 -0.1155 -0.92885 0.351991 0.428744 0.895439 0.119866 
0.255186 0.963541 0.0804341 0.18495 0.977188 0.104386 0.140626 0.982228 0.124309 
0.0639715 0.982153 0.176873 -0.00794874 0.984856 0.173195 -0.0430146 0.993254 0.10769 
-0.00308793 0.99782 0.065919 0.0181951 0.997499 0.0683052 -0.112325 0.992591 0.0463277 
-0.243529 0.9697 0.0193692 -0.336938 0.941174 0.0257719 0.481144 0.867074 0.129163 
0.636864 0.757089 0.145673 0.423676 0.809774 -0.405912 -0.448485 0.891042 0.0700407 
-0.451326 0.889505 0.0713171 -0.586393 0.771932 0.245488 0.746641 0.641156 0.177331 
0.790638 0.572573 0.216915 -0.622722 0.706363 0.336555 -0.676917 0.566287 0.470215 
0.832373 0.528829 0.165816 -0.7209 0.440771 0.534813 0.925013 0.301206 0.23157 
-0.773467 0.346485 0.530751 -0.782705 0.307479 0.541137 -0.802707 0.375049 0.46368 
0.955817 0.171575 0.238696 0.971785 0.0316948 0.233728 -0.772519 0.10269 0.626633 
0.973248 -0.00941476 0.229564 0.972334 -0.0482142 0.228565 0.985413 -0.0114471 0.169792 
-0.776309 -0.0610785 0.627386 0.952619 -0.225667 0.203938 -0.819546 -0.253471 0.513904 
-0.814676 -0.277848 0.509022 0.85163 -0.493611 0.176282 0.701099 -0.699133 0.140265 
-0.724725 -0.439312 0.530828 -0.606935 -0.574642 0.549014 -0.814757 -0.568282 0.115006 
0.63333 -0.765997 0.110187 0.571376 -0.814607 0.0997235 0.300579 -0.953223 0.0318948 
-0.294352 -0.895256 0.334474 -0.574583 -0.633045 0.518756 -0.433738 -0.786353 0.43991 
-0.642273 -0.7499 0.15854 0.271595 -0.962245 0.0178977 0.216472 -0.976281 -0.00387203 
0.197002 -0.911476 -0.361111 0.129857 -0.991268 -0.0229243 0.0201944 -0.864028 -0.503039 
0.0349042 -0.995336 -0.0899384 0.000560722 -0.833213 -0.552952 -0.0862746 -0.990922 -0.103103 
-0.0637316 -0.799856 -0.596799 -0.190689 -0.97043 -0.147998 -0.192018 -0.886936 -0.420089 
-0.130335 -0.976505 -0.171613 -0.12654 -0.965101 -0.229274 0.0197449 -0.992721 -0.118808 
0.0214724 -0.991577 -0.127726 0.0803809 -0.99667 0.0137074 0.116073 -0.98337 -0.139678 
0.0459994 -0.990263 0.131393 0.117078 -0.914327 -0.387683 -0.0256235 -0.984033 0.17613 
-0.28828 -0.898499 0.33105 -0.0941487 -0.971996 0.215314 0.238974 0.862371 -0.446326 
0.172095 0.88093 -0.440846 0.169735 0.888005 -0.427361 0.124408 0.92782 -0.351671 
0.0130599 0.960973 -0.276332 -0.0578998 0.961248 -0.269537 -0.0116917 0.966509 -0.256367 
-0.0161208 0.970663 -0.239903 -0.149613 0.945582 -0.288947 -0.278296 0.888483 -0.364897 
-0.295464 0.875186 -0.383081 0.578207 0.69518 -0.427085 0.416407 0.803658 -0.425133 
0.420796 0.801537 -0.424817 0.211498 0.791128 -0.573921 0.142195 0.742147 -0.65498 
0.167351 0.649842 -0.741417 -0.301233 0.717173 -0.628427 -0.353046 0.856611 -0.376266 
-0.29156 0.835237 -0.466232 -0.389171 0.839849 -0.378416 -0.425585 0.881097 -0.206267 
0.637603 0.646959 -0.418218 0.723404 0.530234 -0.442198 0.555698 0.62277 -0.550779 
-0.209933 0.679176 -0.703313 -0.548806 0.816523 -0.179172 -0.336516 0.706297 -0.622817 
-0.608511 0.778525 -0.153668 0.739003 0.515314 -0.433966 0.70683 0.514234 -0.485751 
-0.754861 0.655449 -0.0238937 -0.808455 0.588479 0.00966175 0.847212 0.316474 -0.426704 
0.697097 0.321982 -0.640611 -0.901777 0.427896 0.060854 0.893273 0.138879 -0.427524 
0.626774 0.107406 -0.771763 -0.975367 0.183993 0.121676 0.881188 -0.0312118 -0.471735 
0.647016 -0.0642246 -0.759766 -0.109798 -0.328012 -0.938271 -0.979876 -0.0770377 0.184145 
0.862436 -0.220448 -0.455638 0.58681 -0.250694 -0.769939 -0.0322166 -0.265775 -0.963497 
0.000218265 -0.0164041 -0.999865 -0.939066 -0.335682 0.0739823 0.714792 -0.530699 -0.455447 
0.631706 -0.610191 -0.478137 0.612777 -0.520691 -0.594462 -0.10021 -0.20383 -0.973864 
-0.0550534 -0.214995 -0.975062 0.0159623 -0.268169 -0.96324 0.0393016 -0.294302 -0.954904 
0.0764641 -0.15767 -0.984527 -0.822195 -0.567125 -0.0486232 -0.78491 -0.617498 -0.0511171 
-0.777085 -0.599562 -0.191478 0.474724 -0.713746 -0.514979 0.436528 -0.73401 -0.520262 
0.428086 -0.689744 -0.583949 0.255212 -0.812544 -0.52406 0.226062 -0.600894 -0.766696 
0.171619 -0.794415 -0.582625 0.0462077 -0.582862 -0.811256 0.0132361 -0.837176 -0.546773 
-0.00841029 -0.46796 -0.88371 -0.0114331 -0.761807 -0.647703 -0.0474093 -0.448759 -0.892394 
-0.0613889 -0.760194 -0.64679 -0.077477 -0.423033 -0.902796 -0.166916 -0.719985 -0.673618 
-0.112215 -0.468633 -0.876237 -0.0784347 -0.706793 -0.703059 -0.0479775 -0.571914 -0.818909 
0.0990634 -0.733786 -0.672119 0.103023 -0.580714 -0.807562 0.172305 -0.799151 -0.575907 
0.141905 -0.487887 -0.861295 0.12512 -0.864689 -0.486475 0.0887541 -0.432835 -0.897093 
0.0531663 -0.433925 -0.899379 0.114605 -0.555923 -0.823295 -0.206316 -0.913101 -0.351682 
-0.307909 -0.908256 -0.283306 -0.30079 -0.589189 -0.749921 -0.614373 -0.768741 -0.177716 
-0.5816 -0.791451 -0.18801 -0.581174 -0.769582 -0.264538 0.0759294 -0.895757 -0.438011 
0.0375628 -0.912347 -0.40769 0.0378285 -0.902744 -0.428512 -0.114681 -0.917649 -0.380486 
-0.0389589 -0.919049 -0.392212 -0.0398127 -0.901585 -0.430767 0.180456 0.554591 -0.81232 
0.0812114 0.616074 -0.78349 0.00996874 0.641949 -0.766683 0.0440613 0.667708 -0.743118 
-0.00910324 0.725032 -0.688655 -0.208009 0.712549 -0.670079 0.287132 0.498551 -0.817926 
0.16792 0.553732 -0.815588 0.114351 0.569043 -0.814318 0.180436 0.554512 -0.812379 
0.118091 0.520435 -0.845696 0.180456 0.554359 -0.812479 0.0799897 0.534296 -0.841505 
0.0160377 0.550606 -0.834611 0.0511479 0.556335 -0.829382 0.0137529 0.58047 -0.814166 
-0.268347 0.665845 -0.696162 -0.202999 0.62222 -0.756064 -0.278896 0.621516 -0.732076 
-0.265844 0.62693 -0.732315 0.29121 0.498172 -0.816713 0.478173 0.289135 -0.829307 
0.286716 0.496636 -0.819235 0.163255 0.486519 -0.858282 0.0678757 0.425738 -0.902297 
0.0456113 0.376408 -0.925331 0.107754 0.267349 -0.957556 0.0742862 0.239351 -0.968087 
0.000342771 0.270881 -0.962613 0.0648742 0.164696 -0.984209 0.0607179 0.208992 -0.976031 
-0.0960354 0.23602 -0.966991 -0.178826 0.399177 -0.899266 -0.211846 0.640544 -0.738122 
-0.225453 0.522748 -0.822135 -0.199747 0.639642 -0.742267 -0.294682 0.595817 -0.747104 
-0.430407 0.585227 -0.687212 0.478179 0.275501 -0.833933 0.472019 0.269639 -0.839341 
0.263399 0.299225 -0.917107 0.117072 0.252841 -0.960399 0.0523234 0.230425 -0.971682 
-0.00049196 0.196507 -0.980502 0.0317146 0.0989562 -0.994586 0.100011 0.0693684 -0.992565 
-0.0740744 0.303348 -0.949996 -0.0114092 -0.0141319 -0.999835 0.120671 0.00332987 -0.992687 
0.0181344 0.041343 -0.99898 -0.0453653 0.161244 -0.985871 -0.0898688 0.267522 -0.959352 
-0.12797 0.399944 -0.907562 -0.247047 0.442375 -0.862132 -0.440892 0.576261 -0.68814 
-0.424632 0.569782 -0.703589 -0.605829 0.456844 -0.651356 0.501173 0.149205 -0.852387 
0.425623 0.110756 -0.898097 0.269075 0.0779428 -0.95996 0.12575 0.0915555 -0.987828 
-0.0117094 0.0724067 -0.997306 -0.0763672 0.0188435 -0.996902 -0.0273492 -0.0619991 -0.997701 
0.291766 -0.0695316 -0.953959 -0.204314 -0.0672952 -0.97659 0.11943 -0.0681544 -0.990501 
0.0594315 -0.120383 -0.990947 0.053144 -0.060587 -0.996747 0.0581776 0.0566375 -0.996698 
-0.0534329 0.19119 -0.980098 -0.157267 0.163111 -0.973993 -0.355219 0.374947 -0.856291 
-0.611929 0.448613 -0.651376 -0.597807 0.440697 -0.669637 0.516175 0.0932656 -0.85139 
0.26424 0.0449344 -0.96341 0.210834 -0.023904 -0.97723 0.101379 -0.0494049 -0.99362 
-0.0185886 -0.0740638 -0.99708 -0.134845 -0.118244 -0.983786 -0.0679412 -0.160518 -0.984692 
0.128615 -0.0689493 -0.989295 -0.0783224 -0.408531 -0.909378 -0.0460105 -0.00155593 -0.99894 
-0.103363 -0.335637 -0.936303 0.0504283 -0.206984 -0.977044 0.0412187 -0.274619 -0.960669 
0.140497 -0.150389 -0.978593 0.160496 -0.108688 -0.981034 -0.0504102 0.0202862 -0.998523 
-0.335059 0.0810374 -0.938706 -0.743882 0.217452 -0.631945 -0.569805 0.184839 -0.800723 
0.491648 -0.0703067 -0.867951 0.265155 -0.0729922 -0.961439 0.189624 -0.0229808 -0.981588 
0.0580134 -0.124134 -0.990568 -0.0786459 -0.145308 -0.986256 -0.161161 -0.177632 -0.970811 
-0.000501462 -0.19516 -0.980771 -0.0323415 -0.266105 -0.963401 0.0810845 -0.288414 -0.954066 
-0.000640309 -0.348163 -0.937434 -0.11663 -0.322845 -0.939238 -0.0791965 -0.165618 -0.983005 
-0.0640718 -0.315514 -0.946756 0.204296 -0.194984 -0.959294 0.205176 -0.187539 -0.960589 
0.149545 -0.15086 -0.977178 0.0756074 -0.206666 -0.975486 -0.0274443 -0.135805 -0.990355 
-0.291564 -0.273842 -0.916516 -0.811706 -0.126138 -0.570283 -0.421023 -0.0372856 -0.906283 
0.385268 -0.124789 -0.914328 0.311438 -0.0843041 -0.946519 0.176578 -0.177763 -0.968102 
-0.00996934 -0.183002 -0.983062 -0.0700744 -0.208527 -0.975503 -0.185424 -0.190252 -0.964065 
-0.0432276 -0.256962 -0.965454 -0.113403 -0.193014 -0.974621 -0.154641 -0.16017 -0.974901 
-0.00243941 -0.241889 -0.970301 0.0575666 -0.195759 -0.978961 0.0624774 -0.191989 -0.979406 
-0.000263457 -0.0259906 -0.999662 0.0173866 -0.271304 -0.962337 -0.0102405 -0.273585 -0.961793 
0.00617644 -0.0192374 -0.999796 0.136242 -0.0818709 -0.987287 0.199628 -0.183171 -0.962599 
0.146127 -0.152349 -0.977464 0.032959 -0.145487 -0.988811 -0.0825517 -0.251093 -0.964436 
-0.220279 -0.282113 -0.93375 -0.60675 -0.503389 -0.615187 -0.595163 -0.523323 -0.609847 
-0.567811 -0.466527 -0.678191 0.365966 -0.362885 -0.856961 0.356255 -0.375008 -0.855834 
0.344199 -0.350078 -0.871191 0.134089 -0.405191 -0.904345 0.107602 -0.355663 -0.928399 
0.0120792 -0.461314 -0.887155 0.0151475 -0.332638 -0.942933 -0.0593086 -0.38292 -0.921876 
-0.0834133 -0.339512 -0.936896 -0.0993943 -0.224097 -0.969485 -0.0850085 -0.31869 -0.944039 
-0.098877 -0.293804 -0.950738 0.0863992 -0.152609 -0.984503 0.0956179 -0.208526 -0.973331 
0.0982083 -0.153857 -0.9832 0.126071 -0.294816 -0.947201 0.18128 -0.197286 -0.963439 
0.129843 -0.486106 -0.8642 0.159315 -0.259453 -0.952524 -0.0610025 -0.322629 -0.944558 
-0.210478 -0.454785 -0.865373 -0.144443 -0.393518 -0.907898 -0.398371 -0.483124 -0.779674 
-0.313279 -0.492104 -0.812213 -0.231165 -0.390053 -0.891303 0.0585808 -0.534561 -0.843097 
-0.146893 -0.526491 -0.837395 -0.0425138 -0.580553 -0.813112 -0.0316148 -0.519278 -0.85402 
-0.0929389 0.204945 -0.974351 0.0999092 -0.00496679 -0.994984 -0.167308 0.0085156 -0.985868 
-0.0964838 -0.235437 -0.967089 -0.102517 0.0385954 -0.993982 -0.000782987 -0.0436652 -0.999046 
0.00580838 -0.0593222 -0.998222 0.0017518 -0.0565469 -0.998398 0.00406943 -0.0613286 -0.998109 
0.00248231 -0.058302 -0.998296 
