# vtk DataFile Version 4.2
vtk output
ASCII
DATASET POLYDATA
POINTS 530 float
26.0753 -11.4439 -24.1432 33.9955 -11.4439 -24.0878 2.31494 -43.1245 -17.0312 
10.2351 -43.1245 -16.6131 -13.5253 -35.2043 -17.6075 -5.60519 -35.2043 -19.2879 
2.31494 -35.2043 -19.907 10.2351 -35.2043 -20.5301 18.1552 -35.2043 -20.8579 
26.0753 -35.2043 -19.1546 -21.4455 -27.2842 -17.0405 -13.5253 -27.2842 -19.1709 
-5.60519 -27.2842 -20.4654 2.31494 -27.2842 -21.1458 10.2351 -27.2842 -21.5971 
18.1552 -27.2842 -22.7598 26.0753 -27.2842 -22.354 33.9955 -27.2842 -21.0588 
-21.4455 -19.3641 -18.1081 -13.5253 -19.3641 -19.6605 -5.60519 -19.3641 -20.9484 
2.31494 -19.3641 -20.9741 10.2351 -19.3641 -21.6642 18.1552 -19.3641 -22.8322 
26.0753 -14.0852 -23.9522 26.0753 -19.3641 -23.5696 33.9955 -12.3646 -23.9522 
33.9955 -19.3641 -22.979 41.9156 -19.3641 -19.8018 -29.3656 -11.4439 -17.3466 
-21.4455 -11.4439 -18.744 -13.5253 -11.4439 -19.6904 -5.60519 -11.4439 -21.3899 
2.31494 -11.4439 -20.9695 10.2351 -11.4439 -21.4324 24.8242 -11.4439 -23.9522 
18.1552 -11.4439 -22.9267 26.0753 -9.70144 -23.9522 34.4584 -11.4439 -23.9522 
33.9955 -9.76856 -23.9522 41.9156 -11.4439 -21.5966 -29.3656 -3.52381 -18.2018 
-21.4455 -3.52381 -19.01 -13.5253 -3.52381 -19.3526 -5.60519 -3.52381 -20.3459 
2.31494 -3.52381 -21.0092 10.2351 -3.52381 -22.7537 18.1552 -3.52381 -22.8006 
26.0753 -3.52381 -23.2747 33.9955 -3.52381 -23.4606 41.9156 -3.52381 -22.1305 
49.8357 -3.52381 -17.5924 -37.2857 4.39632 -16.2332 -29.3656 4.39632 -18.859 
-21.4455 4.39632 -19.155 -13.5253 4.39632 -19.2505 -5.60519 4.39632 -19.9025 
2.31494 4.39632 -20.5254 10.2351 4.39632 -21.9673 18.1552 4.39632 -21.5993 
26.0753 4.39632 -22.4935 33.9955 4.39632 -22.8702 41.9156 4.39632 -22.0687 
49.8357 4.39632 -18.4852 -37.2857 12.3165 -16.934 -29.3656 12.3165 -18.853 
-21.4455 12.3165 -19.2638 -13.5253 12.3165 -19.1133 -5.60519 12.3165 -19.0169 
2.31494 12.3165 -18.187 10.2351 12.3165 -18.8655 18.1552 12.3165 -20.43 
26.0753 12.3165 -21.6388 33.9955 12.3165 -22.0247 41.9156 12.3165 -20.9155 
49.8357 12.3165 -17.0713 -29.3656 20.2366 -18.4595 -21.4455 20.2366 -19.0255 
-13.5253 20.2366 -19.1945 -5.60519 20.2366 -19.3242 2.31494 20.2366 -19.0689 
10.2351 20.2366 -19.1728 18.1552 20.2366 -20.1071 26.0753 20.2366 -21.0539 
33.9955 20.2366 -21.2574 41.9156 20.2366 -19.2958 -29.3656 28.1567 -16.5173 
-21.4455 28.1567 -18.0653 -13.5253 28.1567 -19.0371 -5.60519 28.1567 -20.1646 
2.31494 28.1567 -19.6843 10.2351 28.1567 -19.744 18.1552 28.1567 -19.3642 
26.0753 28.1567 -19.5516 33.9955 28.1567 -18.7641 41.9156 28.1567 -16.4001 
-13.5253 36.0769 -17.0798 -5.60519 36.0769 -18.5261 2.31494 36.0769 -18.8051 
10.2351 36.0769 -17.9619 18.1552 36.0769 -17.5321 2.31494 -44.4107 -16.032 
10.2351 -43.8021 -16.032 -21.4455 -43.1245 -9.78681 -13.5253 -38.6366 -16.032 
-13.5253 -43.1245 -13.5672 -5.18594 -43.1245 -16.032 -5.60519 -42.9999 -16.032 
-5.60519 -43.1245 -15.9637 13.7528 -43.1245 -16.032 18.1552 -42.0845 -16.032 
18.1552 -43.1245 -14.8192 26.0753 -39.369 -16.032 -29.3656 -35.2043 -10.2813 
-18.5053 -35.2043 -16.032 -21.4455 -31.4533 -16.032 -21.4455 -35.2043 -14.9952 
32.2698 -35.2043 -16.032 33.9955 -34.0456 -16.032 33.9955 -35.2043 -13.3809 
-23.8719 -27.2842 -16.032 -29.3656 -27.2842 -13.4558 40.9937 -27.2842 -16.032 
41.9156 -26.0296 -16.032 41.9156 -27.2842 -13.3115 -37.2857 -19.3641 -10.4518 
-28.2081 -19.3641 -16.032 -29.3656 -17.712 -16.032 -29.3656 -19.3641 -15.6399 
46.2808 -19.3641 -16.032 -32.1248 -11.4439 -16.032 -37.2857 -11.4439 -12.8384 
49.7228 -11.4439 -16.032 49.8357 -10.9559 -16.032 49.8357 -11.4439 -15.7518 
-35.0831 -3.52381 -16.032 -37.2857 2.9264 -16.032 -37.2857 -3.52381 -14.9928 
51.2196 -3.52381 -16.032 -37.6161 4.39632 -16.032 -45.2059 4.39632 -9.85886 
52.1629 4.39632 -16.032 -38.902 12.3165 -16.032 -45.2059 12.3165 -11.1679 
-37.2857 18.1961 -16.032 50.9032 12.3165 -16.032 49.8357 16.659 -16.032 
-45.2059 20.2366 -10.2422 -36.3418 20.2366 -16.032 -37.2857 20.2366 -15.6755 
48.4971 20.2366 -16.032 49.8357 20.2366 -14.6641 -30.8473 28.1567 -16.032 
-37.2857 28.1567 -12.9791 -29.3656 29.3773 -16.032 -21.4455 34.7253 -16.032 
26.0753 35.7246 -16.032 33.9955 33.0903 -16.032 42.4838 28.1567 -16.032 
41.9156 28.6658 -16.032 -29.3656 36.0769 -12.061 -19.0301 36.0769 -16.032 
-21.4455 36.0769 -15.5234 -13.5253 37.7508 -16.032 -5.60519 40.0342 -16.032 
2.31494 40.2134 -16.032 10.2351 39.1666 -16.032 25.3424 36.0769 -16.032 
18.1552 38.406 -16.032 26.0753 36.0769 -15.812 33.9955 36.0769 -12.7709 
-13.5253 43.997 -9.47544 -5.60519 43.997 -11.0782 2.31494 43.997 -10.7259 
10.2351 43.997 -9.77094 -21.4455 -44.5456 -8.1119 -13.5253 -48.0107 -8.1119 
-5.60519 -49.9058 -8.1119 -5.60519 -51.0446 -0.192619 2.31494 -49.9893 -8.1119 
2.31494 -51.0446 -2.10854 10.2351 -48.9374 -8.1119 18.1552 -46.7845 -8.1119 
-23.401 -43.1245 -8.1119 -29.3656 -37.7259 -8.1119 25.6848 -43.1245 -8.1119 
26.0753 -42.9221 -8.1119 33.9955 -37.1573 -8.1119 -31.5508 -35.2043 -8.1119 
36.1471 -35.2043 -8.1119 41.9156 -28.996 -8.1119 -36.6267 -27.2842 -8.1119 
-37.2857 -25.8282 -8.1119 -37.2857 -27.2842 -7.34615 43.3213 -27.2842 -8.1119 
41.9156 -27.2842 -3.45033 -39.7517 -19.3641 -8.1119 -45.2059 -19.3641 -0.619335 
48.2825 -19.3641 -8.1119 49.8357 -16.0933 -8.1119 -42.1936 -11.4439 -8.1119 
-45.2059 -11.4439 -4.08737 51.9027 -11.4439 -8.1119 -44.5336 -3.52381 -8.1119 
-45.2059 -1.20266 -8.1119 -45.2059 -3.52381 -7.20364 54.5086 -3.52381 -8.1119 
-46.6605 4.39632 -8.1119 55.7434 4.39632 -8.1119 -47.7918 12.3165 -8.1119 
55.4172 12.3165 -8.1119 -46.974 20.2366 -8.1119 -45.2059 23.8178 -8.1119 
53.343 20.2366 -8.1119 49.8357 26.2559 -8.1119 -42.3745 28.1567 -8.1119 
-45.2059 28.1567 -3.39649 -37.2857 33.7742 -8.1119 48.4275 28.1567 -8.1119 
41.9156 34.7215 -8.1119 -34.5754 36.0769 -8.1119 -37.2857 36.0769 -4.44317 
-29.3656 39.4463 -8.1119 -21.4455 42.8106 -8.1119 18.1552 43.6626 -8.1119 
26.0753 41.7622 -8.1119 39.6653 36.0769 -8.1119 33.9955 38.8584 -8.1119 
-16.7559 43.997 -8.1119 -21.4455 43.997 -3.28903 -13.5253 44.7096 -8.1119 
-5.60519 45.328 -8.1119 2.31494 45.0882 -8.1119 15.7329 43.997 -8.1119 
10.2351 44.7162 -8.1119 -5.60519 -51.0447 -0.19177 2.31494 -51.3506 -0.19177 
-21.4455 -47.478 -0.19177 -5.60611 -51.0446 -0.19177 -13.5253 -50.0824 -0.19177 
-5.60519 -51.0446 -0.191447 3.64472 -51.0446 -0.19177 2.31494 -51.0446 0.558754 
10.2351 -49.3731 -0.19177 18.1552 -46.2805 -0.19177 -28.1834 -43.1245 -0.19177 
-29.3656 -42.2192 -0.19177 24.1874 -43.1245 -0.19177 18.1552 -43.1245 5.51592 
26.0753 -41.968 -0.19177 33.9955 -35.3814 -0.19177 -36.6291 -35.2043 -0.19177 
-37.2857 -34.3121 -0.19177 34.1747 -35.2043 -0.19177 33.9955 -35.2043 0.0434307 
-41.8016 -27.2842 -0.19177 -45.2059 -19.9478 -0.19177 40.7215 -27.2842 -0.19177 
33.9955 -27.2842 6.88419 41.9156 -25.4302 -0.19177 -45.4514 -19.3641 -0.19177 
45.3741 -19.3641 -0.19177 41.9156 -19.3641 3.97223 49.8357 -11.7053 -0.19177 
-47.8602 -11.4439 -0.19177 49.9588 -11.4439 -0.19177 49.8357 -11.4439 0.0074253 
-49.7637 -3.52381 -0.19177 52.6684 -3.52381 -0.19177 49.8357 -3.52381 4.09895 
-51.455 4.39632 -0.19177 -53.126 4.39632 7.53118 54.382 4.39632 -0.19177 
49.8357 4.39632 6.99086 -52.4096 12.3165 -0.19177 -53.126 12.3165 5.80581 
54.6273 12.3165 -0.19177 -50.6056 20.2366 -0.19177 53.0761 20.2366 -0.19177 
49.8357 26.7736 -0.19177 49.8357 20.2366 5.62635 -46.7382 28.1567 -0.19177 
-45.2059 30.2336 -0.19177 48.9677 28.1567 -0.19177 41.9156 35.4216 -0.19177 
-39.7305 36.0769 -0.19177 -37.2857 37.9817 -0.19177 -29.3656 42.4726 -0.19177 
18.1552 43.7637 -0.19177 26.0753 42.2822 -0.19177 40.8764 36.0769 -0.19177 
33.9955 39.3971 -0.19177 33.9955 36.0769 7.11573 -24.0302 43.997 -0.19177 
-21.4455 44.6579 -0.19177 -21.4455 43.997 3.6035 -13.5253 45.3307 -0.19177 
-13.5253 43.997 4.52035 -5.60519 44.9888 -0.19177 -5.60519 43.997 2.40616 
2.31494 44.1312 -0.19177 2.31494 43.997 0.161191 14.4224 43.997 -0.19177 
10.2351 44.242 -0.19177 10.2351 43.997 0.406973 -21.4455 -45.5988 7.72836 
-13.5253 -47.5236 7.72836 -5.60519 -47.9474 7.72836 2.31494 -47.3808 7.72836 
10.2351 -45.431 7.72836 -26.4886 -43.1245 7.72836 -29.3656 -41.5251 7.72836 
-21.4455 -43.1245 11.2546 -13.5253 -43.1245 13.1458 -5.60519 -43.1245 13.2767 
2.31494 -43.1245 12.1489 15.3943 -43.1245 7.72836 10.2351 -43.1245 10.2789 
18.1552 -41.4012 7.72836 26.0753 -35.8108 7.72836 -36.961 -35.2043 7.72836 
-37.2857 -34.8904 7.72836 -29.3656 -35.2043 15.156 10.2351 -35.2043 15.1301 
18.1552 -35.2043 12.288 26.7324 -35.2043 7.72836 26.0753 -35.2043 8.23128 
-43.3393 -27.2842 7.72836 -45.2059 -24.441 7.72836 18.1552 -27.2842 15.1335 
33.0298 -27.2842 7.72836 26.0753 -27.2842 12.0929 33.9955 -25.8868 7.72836 
-48.0094 -19.3641 7.72836 26.0753 -19.3641 14.0518 38.0761 -19.3641 7.72836 
33.9955 -19.3641 10.5842 41.9156 -12.7902 7.72836 -50.6734 -11.4439 7.72836 
26.0753 -11.4439 15.578 33.9955 -11.4439 13.0072 42.6893 -11.4439 7.72836 
41.9156 -11.4439 8.32109 -52.2529 -3.52381 7.72836 -53.126 4.07283 7.72836 
33.9955 -3.52381 15.3992 46.7444 -3.52381 7.72836 41.9156 -3.52381 11.6863 
-53.1626 4.39632 7.72836 -53.126 4.39632 7.93517 49.2208 4.39632 7.72836 
41.9156 4.39632 14.1861 49.8357 9.5873 7.72836 -53.3325 12.3165 7.72836 
-53.126 13.0787 7.72836 -53.126 12.3165 8.44325 41.9156 12.3165 14.9372 
50.1102 12.3165 7.72836 49.8357 13.7877 7.72836 49.8357 12.3165 8.04013 
-51.1539 20.2366 7.72836 48.5093 20.2366 7.72836 41.9156 20.2366 13.8121 
-47.1768 28.1567 7.72836 -45.2059 30.625 7.72836 -45.2059 28.1567 12.6658 
33.9955 35.7626 7.72836 33.9955 28.1567 14.8176 43.7886 28.1567 7.72836 
41.9156 30.0108 7.72836 41.9156 28.1567 9.41484 -39.6287 36.0769 7.72836 
-37.2857 37.8733 7.72836 -37.2857 36.0769 11.8669 -29.3656 41.7597 7.72836 
-21.4455 43.2694 7.72836 -13.5253 43.0225 7.72836 -5.60519 41.7403 7.72836 
2.31494 40.9154 7.72836 2.31494 36.0769 14.6764 10.2351 40.6318 7.72836 
10.2351 36.0769 14.4261 18.1552 40.5237 7.72836 18.1552 36.0769 13.9054 
[...]
POINT_DATA 530
SCALARS ImageScalars float
LOOKUP_TABLE default
0 0 0 0 0 0 0 0 0 
0 0 0 0 0 0 0 0 0 
0 0 0 0 0 0 0 0 0 
0 0 0 0 0 0 0 0 0 
0 0 0 0 0 0 0 0 0 
0 0 0 0 0 0 0 0 0 
0 0 0 0 0 0 0 0 0 
0 0 0 0 0 0 0 0 0 
0 0 0 0 0 0 0 0 0 
0 0 0 0 0 0 0 0 0 
0 0 0 0 0 0 0 0 0 
0 0 0 0 0 0 0 0 0 
0 0 0 0 0 0 0 0 0 
0 0 0 0 0 0 0 0 0 
0 0 0 0 0 0 0 0 0 
0 0 0 0 0 0 0 0 0 
0 0 0 0 0 0 0 0 0 
0 0 0 0 0 0 0 0 0 
0 0 0 0 0 0 0 0 0 
0 0 0 0 0 0 0 0 0 
0 0 0 0 0 0 0 0 0 
0 0 0 0 0 0 0 0 0 
0 0 0 0 0 0 0 0 0 
0 0 0 0 0 0 0 0 0 
0 0 0 0 0 0 0 0 0 
0 0 0 0 0 0 0 0 0 
0 0 0 0 0 0 0 0 0 
0 0 0 0 0 0 0 0 0 
0 0 0 0 0 0 0 0 0 
0 0 0 0 0 0 0 0 0 
0 0 0 0 0 0 0 0 0 
0 0 0 0 0 0 0 0 0 
0 0 0 0 0 0 0 0 0 
0 0 0 0 0 0 0 0 0 
0 0 0 0 0 0 0 0 0 
0 0 0 0 0 0 0 0 0 
0 0 0 0 0 0 0 0 0 
0 0 0 0 0 0 0 0 0 
0 0 0 0 0 0 0 0 0 
0 0 0 0 0 0 0 0 0 
0 0 0 0 0 0 0 0 0 
0 0 0 0 0 0 0 0 0 
0 0 0 0 0 0 0 0 0 
0 0 0 0 0 0 0 0 0 
0 0 0 0 0 0 0 0 0 
0 0 0 0 0 0 0 0 0 
0 0 0 0 0 0 0 0 0 
0 0 0 0 0 0 0 0 0 
0 0 0 0 0 0 0 0 0 
0 0 0 0 0 0 0 0 0 
0 0 0 0 0 0 0 0 0 
0 0 0 0 0 0 0 0 0 
0 0 0 0 0 0 0 0 0 
0 0 0 0 0 0 0 0 0 
0 0 0 0 0 0 0 0 0 
0 0 0 0 0 0 0 0 0 
0 0 0 0 0 0 0 0 0 
0 0 0 0 0 0 0 0 0 
0 0 0 0 0 0 0 0 
NORMALS Normals float
0.0723762 -0.0186256 0.997203 -0.14783 0.0322334 0.988487 0.0393189 0.538415 0.841762 
-0.0909825 0.6312 0.770266 0.252753 0.293358 0.921985 0.131282 0.260214 0.956584 
0.0798751 0.246762 0.965779 0.0543479 0.271817 0.960813 -0.0727058 0.368767 0.926674 
-0.275376 0.534883 0.798792 0.317957 0.17574 0.931675 0.206769 0.120071 0.970994 
0.12021 0.103606 0.987327 0.0707795 0.0642079 0.995423 0.0982138 0.0737905 0.992426 
0.0485776 0.109895 0.992755 -0.0948849 0.248748 0.963909 -0.33765 0.402955 0.850658 
0.232201 0.100509 0.967461 0.175464 0.0315932 0.983979 0.0808744 0.0578218 0.995046 
0.0444299 -0.0110246 0.998952 0.117205 -0.0102858 0.993054 0.122533 0.0105745 0.992408 
0.0508971 0.0260647 0.998364 0.00834218 0.114362 0.993404 -0.153447 0.048816 0.98695 
-0.200149 0.172685 0.964427 -0.558634 0.304908 0.771336 0.308358 0.146306 0.939952 
0.145916 0.0552998 0.98775 0.166435 -0.0194816 0.98586 0.079636 -0.0371466 0.996132 
0.00243669 0.002142 0.999995 0.124352 0.0688835 0.989844 0.0877734 -0.0160682 0.996011 
0.170909 -0.00203518 0.985285 0.0656291 -0.0364228 0.997179 -0.161478 0.0373745 0.986168 
-0.130421 0.00925404 0.991416 -0.41871 0.131547 0.898542 0.226796 0.0939822 0.969397 
0.070142 0.0255864 0.997209 0.0833136 -0.0275292 0.996143 0.10368 -0.0943425 0.990126 
0.155012 -0.0274234 0.987532 0.110384 0.0380204 0.993162 0.0327653 -0.0826915 0.996036 
0.0413075 -0.101346 0.993993 -0.0657043 -0.0746566 0.995042 -0.289923 0.0270091 0.956669 
-0.717724 0.123981 0.685201 0.440395 0.106352 0.891483 0.171858 0.0400331 0.984308 
0.0240915 0.0160304 0.999581 0.0471574 -0.0150617 0.998774 0.077971 -0.0827886 0.993512 
0.126494 -0.184904 0.974582 0.0668143 -0.250415 0.96583 0.0329668 -0.149202 0.988257 
0.080741 -0.104675 0.991224 -0.0243114 -0.0897138 0.995671 -0.217549 -0.0711119 0.973455 
-0.637982 -0.0303005 0.769455 0.388514 -0.0268312 0.921052 0.143615 -0.023364 0.989358 
0.0157712 -0.00797947 0.999844 -0.015538 -0.00352282 0.999873 -0.0586505 -0.0366454 0.997606 
-0.0110373 -0.0853134 0.996293 0.141959 -0.159585 0.976924 0.170546 -0.0927917 0.980971 
0.0992237 -0.087508 0.99121 -0.0410307 -0.0985028 0.994291 -0.258006 -0.170949 0.950899 
-0.632361 -0.173361 0.755027 0.18742 -0.149526 0.970833 0.0442852 -0.0719515 0.996424 
0.0187022 -0.00461951 0.999814 -0.00787364 0.0707822 0.997461 -0.00994027 0.0943145 0.995493 
0.0667621 0.0554533 0.996227 0.113684 -0.0657837 0.991337 0.0721433 -0.124628 0.989577 
-0.107384 -0.20368 0.973131 -0.325961 -0.254822 0.910393 0.252622 -0.30987 0.916604 
0.160111 -0.209805 0.964545 0.12657 -0.114521 0.985325 0.0394294 -0.0378023 0.998507 
-0.0257423 -0.00937775 0.999625 -0.0199858 -0.0671833 0.99754 -0.0127288 -0.159145 0.987173 
-0.0391733 -0.275382 0.960536 -0.176613 -0.394893 0.901592 -0.445405 -0.51047 0.735551 
0.173575 -0.390795 0.903964 0.0947665 -0.354784 0.930133 -0.0337963 -0.326207 0.944694 
-0.0763053 -0.376329 0.923338 -0.106905 -0.423606 0.899516 0.0281259 0.600782 0.798918 
-0.101649 0.659011 0.745233 0.472471 0.666333 0.576863 0.267328 0.410881 0.871615 
0.290834 0.609055 0.737881 0.168072 0.527955 0.832476 0.17476 0.522505 0.834534 
0.175086 0.5287 0.830555 -0.143852 0.684086 0.715076 -0.192895 0.702384 0.685163 
-0.230856 0.776452 0.586368 -0.34395 0.699385 0.626545 0.592 0.464927 0.658315 
0.324857 0.321745 0.889353 0.344549 0.257459 0.902774 0.376614 0.348318 0.858392 
-0.481189 0.689889 0.540841 -0.518103 0.686277 0.510484 -0.588356 0.735212 0.336601 
0.362751 0.200385 0.910087 0.49096 0.273012 0.827298 -0.707924 0.541774 0.453127 
-0.724692 0.51682 0.455762 -0.768404 0.579022 0.272561 0.639124 0.252136 0.726601 
0.373011 0.201273 0.905733 0.378934 0.203137 0.902854 0.400921 0.219178 0.889507 
-0.760779 0.413457 0.500268 0.401913 0.174423 0.898912 0.60243 0.219082 0.767516 
-0.819828 0.248179 0.516032 -0.819616 0.241981 0.519302 -0.831205 0.254964 0.494057 
0.431798 0.14697 0.889916 0.453473 0.118337 0.883379 0.522981 0.17374 0.834449 
-0.779917 0.140635 0.609878 0.451043 0.109077 0.885812 0.748949 0.164124 0.64198 
-0.759139 -0.0126917 0.650804 0.447492 -0.0242408 0.893959 0.72277 0.0147425 0.690931 
0.417345 -0.152832 0.895804 -0.680211 -0.166236 0.713918 -0.652206 -0.259771 0.712142 
0.718055 -0.246147 0.651005 0.399626 -0.191031 0.896552 0.428078 -0.199579 0.881429 
-0.59879 -0.323825 0.732522 -0.699457 -0.355716 0.61986 0.292969 -0.325906 0.898863 
0.509522 -0.434968 0.742422 0.272893 -0.347192 0.897211 0.215189 -0.412952 0.884966 
-0.206959 -0.586801 0.782836 -0.256844 -0.583586 0.770363 -0.465931 -0.517453 0.71774 
-0.451879 -0.526994 0.71978 0.42051 -0.616354 0.665792 0.207717 -0.436984 0.875156 
0.234587 -0.46714 0.852496 0.177269 -0.476852 0.860923 0.0918021 -0.5962 0.79757 
-0.0349102 -0.626063 0.778991 -0.0758531 -0.564293 0.822083 -0.206465 -0.584696 0.78454 
-0.143121 -0.557302 0.817882 -0.218633 -0.607457 0.763673 -0.35083 -0.765762 0.539005 
0.157177 -0.921134 0.356101 0.0444954 -0.932602 0.358154 -0.0380777 -0.955764 0.291658 
-0.0903178 -0.959218 0.267849 0.473004 0.720765 0.506721 0.290049 0.842832 0.453328 
0.108875 0.927161 0.358496 0.0781311 0.991596 -0.10312 -0.0599397 0.938851 0.339067 
-0.0937343 0.99544 -0.0176826 -0.190073 0.945396 0.26476 -0.340701 0.921686 0.185519 
0.513582 0.685724 0.515768 0.612799 0.546402 0.570896 -0.490612 0.865095 0.104454 
-0.499144 0.860715 0.10012 -0.657997 0.751657 0.0452917 0.647172 0.488275 0.585454 
-0.689859 0.723411 0.0277647 -0.775486 0.631052 -0.0198592 0.674696 0.374441 0.636065 
0.681472 0.356789 0.638982 0.697236 0.38877 0.602263 -0.796084 0.604935 -0.0174177 
-0.778033 0.578662 -0.244571 0.703143 0.259361 0.662059 0.851117 0.307062 0.425809 
-0.884766 0.463823 -0.0453537 -0.908611 0.416996 -0.0232582 0.726479 0.222017 0.650336 
0.802346 0.227868 0.55165 -0.933072 0.359634 0.00637788 0.754317 0.216592 0.619753 
0.766717 0.202172 0.60932 0.773597 0.21584 0.595786 -0.970941 0.23096 0.0626988 
0.78931 0.162068 0.59222 -0.993079 0.0575787 0.102367 0.800644 0.0141495 0.598974 
-0.97632 -0.138078 0.166536 0.788805 -0.244959 0.563722 0.74196 -0.362766 0.563822 
-0.901203 -0.385564 0.197925 -0.788391 -0.571279 0.228212 0.667096 -0.497733 0.554297 
0.772936 -0.531035 0.347236 0.564736 -0.623036 0.541202 -0.739694 -0.628498 0.240506 
-0.563911 -0.780753 0.269125 0.524462 -0.674592 0.519486 0.576318 -0.731325 0.364721 
0.43246 -0.753807 0.494725 0.288568 -0.86593 0.408527 -0.179351 -0.959185 0.218627 
-0.275227 -0.917458 0.287263 -0.512965 -0.813847 0.272982 -0.404774 -0.872463 0.2738 
0.197658 -0.924275 0.326568 0.214072 -0.963602 0.160141 0.141873 -0.94819 0.284267 
0.0223854 -0.982618 0.184285 -0.0381596 -0.989459 0.139697 -0.148997 -0.967949 0.202175 
-0.0862143 -0.980798 0.174938 0.0781277 0.991591 -0.103164 -0.100737 0.986597 -0.128367 
0.427747 0.902672 0.0470647 0.0781419 0.991591 -0.103157 0.204724 0.978315 -0.0314136 
0.0781253 0.99159 -0.103179 -0.13227 0.981424 -0.138963 -0.105681 0.979624 -0.170785 
-0.281193 0.941224 -0.187159 -0.40989 0.878315 -0.246075 0.584743 0.799985 0.134533 
0.614847 0.773474 0.153955 -0.508682 0.812441 -0.284926 -0.429 0.737434 -0.52168 
-0.542659 0.783392 -0.303015 -0.673936 0.643248 -0.363377 0.76093 0.595689 0.257176 
0.770634 0.576428 0.27176 -0.675778 0.640216 -0.365306 -0.673869 0.637158 -0.374073 
0.829795 0.450004 0.330056 0.855026 0.31856 0.409207 -0.735312 0.532644 -0.419054 
-0.579005 0.440965 -0.685786 -0.745848 0.509244 -0.429396 0.85591 0.309814 0.414044 
-0.770538 0.444466 -0.45686 -0.688305 0.394439 -0.608814 -0.835677 0.37212 -0.403944 
0.862408 0.243736 0.443672 -0.837536 0.368752 -0.403182 -0.833852 0.368474 -0.410995 
0.887811 0.192388 0.418065 -0.879303 0.260404 -0.398769 -0.792438 0.253319 -0.554862 
0.922354 0.14257 0.359078 0.997571 0.0685143 0.0125375 -0.927246 0.115081 -0.356329 
-0.776911 0.15049 -0.61136 0.948863 -0.0576162 0.310385 0.993918 -0.10998 0.0056278 
-0.954734 -0.0693518 -0.289263 0.927829 -0.295242 0.227958 -0.910467 -0.33406 -0.243833 
-0.817428 -0.541945 -0.195209 -0.807945 -0.283343 -0.516665 0.817219 -0.534468 0.21563 
0.780244 -0.590428 0.206432 -0.785046 -0.591634 -0.183501 -0.580867 -0.793077 -0.183364 
0.624112 -0.761261 0.175971 0.565388 -0.807728 0.167067 0.376692 -0.919676 0.110901 
-0.115707 -0.977176 -0.178153 -0.243259 -0.958836 -0.146488 -0.551324 -0.814953 -0.178586 
-0.404835 -0.901244 -0.15449 -0.409029 -0.777546 -0.477616 0.234081 -0.971135 0.0458465 
0.168313 -0.985588 0.0169378 0.122527 -0.983894 -0.130151 0.0198083 -0.994799 -0.0999127 
-0.0418143 -0.965425 -0.257307 -0.0735603 -0.975873 -0.205575 -0.0911196 -0.956837 -0.275971 
-0.0480675 -0.968938 -0.242589 -0.0487188 -0.966555 -0.251789 -0.0716853 -0.975906 -0.206079 
-0.0228754 -0.971509 -0.235896 -0.0222777 -0.967063 -0.253559 0.331617 0.849926 -0.409457 
0.132936 0.864383 -0.484943 -0.00560024 0.850352 -0.526185 -0.140586 0.796431 -0.58816 
-0.274624 0.757089 -0.592788 0.457531 0.824568 -0.332797 0.523914 0.799563 -0.293622 
0.280843 0.773049 -0.56879 0.0814424 0.692652 -0.716659 -0.0511022 0.656974 -0.752179 
-0.149423 0.644229 -0.750094 -0.37654 0.694028 -0.61363 -0.274985 0.66736 -0.692109 
-0.416194 0.647012 -0.638873 -0.507324 0.545173 -0.66739 0.689135 0.703059 -0.175504 
0.69772 0.696403 -0.167957 0.349265 0.597357 -0.721927 -0.240769 0.352946 -0.904135 
-0.356588 0.449206 -0.819182 -0.519313 0.529749 -0.670581 -0.504968 0.525162 -0.68499 
0.816838 0.573556 -0.0617232 0.859025 0.511822 -0.0106402 -0.277402 0.217842 -0.935731 
-0.556172 0.420332 -0.716933 -0.433702 0.308075 -0.846754 -0.55833 0.410998 -0.720658 
0.915717 0.400233 0.0357258 -0.320469 0.195964 -0.926767 -0.578083 0.342512 -0.740612 
-0.485831 0.307238 -0.818274 -0.580736 0.352205 -0.73396 0.962502 0.265218 0.0570094 
-0.213171 0.167549 -0.962541 -0.382574 0.260508 -0.886438 -0.583401 0.349656 -0.733065 
-0.564119 0.348165 -0.7487 0.986486 0.152456 0.0600264 0.997526 0.069997 0.00658083 
-0.286956 0.271804 -0.918574 -0.667057 0.263837 -0.696724 -0.515192 0.288561 -0.807038 
0.997763 0.0667045 0.00440612 0.997877 0.0648694 -0.00584487 -0.751422 0.154535 -0.641471 
-0.511094 0.176527 -0.841202 -0.775325 0.0289215 -0.630899 0.988493 -0.122642 -0.0885444 
0.985457 -0.144379 -0.0896059 0.984166 -0.127262 -0.123372 -0.522084 -0.0194197 -0.852673 
-0.779863 -0.0338062 -0.625037 -0.777702 -0.0758862 -0.624036 -0.77345 -0.0354174 -0.632868 
0.93161 -0.345706 -0.112203 -0.741793 -0.269432 -0.614125 -0.536717 -0.249053 -0.806168 
0.813664 -0.563751 -0.141902 0.757893 -0.634233 -0.152796 0.726359 -0.567442 -0.387831 
-0.409625 -0.758714 -0.506517 -0.373856 -0.456663 -0.807274 -0.632147 -0.540416 -0.555284 
-0.584832 -0.59043 -0.556205 -0.579351 -0.532413 -0.617162 0.595132 -0.781913 -0.185551 
0.537845 -0.821841 -0.187884 0.519173 -0.764034 -0.38303 0.318085 -0.914276 -0.250841 
0.0700069 -0.952642 -0.295925 -0.0877316 -0.925902 -0.367435 -0.125597 -0.89868 -0.420238 
-0.0639894 -0.881085 -0.468609 -0.102594 -0.703085 -0.703666 -0.0220198 -0.879273 -0.475809 
-0.03232 -0.69747 -0.715885 -0.0838668 -0.871731 -0.482754 -0.120929 -0.691359 -0.712319 
-0.39637 -0.767894 -0.50322 -0.246714 -0.831297 -0.498074 -0.264224 -0.720869 -0.640729 
0.184445 0.550847 -0.81397 0.0379232 0.534784 -0.844137 -0.0717552 0.498289 -0.864037 
-0.159628 0.420188 -0.893287 0.489367 0.562005 -0.666836 0.309997 0.56582 -0.764035 
0.325757 0.569989 -0.754317 0.144849 0.441845 -0.88532 0.0165099 0.388256 -0.921404 
-0.0814599 0.348297 -0.933838 -0.213105 0.351912 -0.911452 -0.163086 0.354497 -0.920725 
-0.233267 0.297332 -0.92584 0.534046 0.548897 -0.643045 0.735653 0.473153 -0.484707 
0.454804 0.518252 -0.724271 0.172214 0.369256 -0.913232 0.0400423 0.258404 -0.965207 
-0.0335956 0.187011 -0.981783 -0.115651 0.172056 -0.978275 -0.171153 0.160336 -0.972111 
-0.258025 0.19876 -0.945472 -0.214579 0.156572 -0.964075 -0.254445 0.162427 -0.95335 
0.755172 0.449441 -0.477198 0.720194 0.441938 -0.534801 0.271061 0.346099 -0.898188 
0.0467248 0.204483 -0.977754 -0.0598597 0.152366 -0.98651 -0.0658056 0.0952147 -0.993279 
-0.113094 0.134307 -0.984465 -0.192668 0.134178 -0.972047 -0.194831 0.104653 -0.975238 
-0.253147 0.124456 -0.959389 -0.227793 0.0969474 -0.968871 0.836535 0.2823 -0.46959 
0.614377 0.226572 -0.755782 0.200923 0.161056 -0.966277 0.00425431 0.128264 -0.991731 
-0.0786044 0.101173 -0.991759 -0.0517145 0.135045 -0.989489 -0.0744618 0.143476 -0.986849 
-0.194477 0.117455 -0.97385 -0.260502 0.1391 -0.9554 -0.211218 0.162485 -0.963839 
-0.191421 0.0788319 -0.978337 -0.208627 0.168922 -0.963297 0.886397 0.136656 -0.442297 
0.529726 0.114584 -0.840393 -0.0541297 0.0843885 -0.994962 -0.0220951 0.117573 -0.992818 
-0.138403 0.0769893 -0.987379 -0.185457 0.0166431 -0.982512 -0.245638 0.0634172 -0.967285 
-0.184468 0.138542 -0.973025 -0.261356 0.260156 -0.929522 -0.129067 0.196396 -0.971993 
-0.282909 0.263394 -0.922272 0.884575 -0.0154897 -0.46614 0.513576 -0.0334618 -0.857391 
-0.17611 -0.0411194 -0.983511 -0.206517 0.0214336 -0.978208 -0.139582 0.0247002 -0.989902 
-0.071931 0.142445 -0.987186 -0.0802277 0.185943 -0.97928 -0.407438 0.182661 -0.894779 
-0.249238 0.187294 -0.950159 0.820732 -0.174868 -0.543893 0.539657 -0.131554 -0.831543 
-0.11224 -0.0484556 -0.992499 -0.110108 -0.0726871 -0.991258 -0.13221 0.0070051 -0.991197 
-0.116413 0.0471411 -0.992082 -0.0308763 0.0624718 -0.997569 -0.0773308 0.0370262 -0.996318 
-0.476162 -0.0188889 -0.879155 -0.284315 -0.00744416 -0.958702 0.759269 -0.358207 -0.543322 
0.678646 -0.484561 -0.551943 0.625889 -0.3226 -0.710065 0.255372 -0.223233 -0.940719 
-0.130802 -0.0959903 -0.986751 -0.116553 -0.10861 -0.987228 -0.0924235 -0.120583 -0.988391 
-0.0841338 -0.0661683 -0.994255 -0.0834101 -0.0756354 -0.993641 -0.147214 -0.158454 -0.97633 
-0.420951 -0.223618 -0.879088 -0.351886 -0.3794 -0.855705 -0.30477 -0.201702 -0.930823 
0.621038 -0.532984 -0.574665 0.467085 -0.646784 -0.602912 0.391233 -0.470042 -0.7912 
0.166633 -0.375881 -0.911563 0.0019433 -0.295767 -0.955258 -0.113806 -0.25646 -0.959831 
-0.139378 -0.29942 -0.943886 -0.105575 -0.645303 -0.756596 -0.0848786 -0.342756 -0.935582 
-0.0402981 -0.613449 -0.788706 -0.0666508 -0.320231 -0.944992 -0.12736 -0.56618 -0.814383 
-0.119011 -0.315271 -0.94151 -0.31915 -0.427258 -0.845928 -0.236359 -0.478857 -0.845476 
-0.210698 -0.379078 -0.901058 0.348096 -0.708605 -0.613765 0.253925 -0.730009 -0.634515 
0.24506 -0.679838 -0.691206 0.0485288 -0.761768 -0.646029 0.056113 -0.624146 -0.77929 
-0.092917 -0.754435 -0.649764 -0.106223 -0.632677 -0.767096 -0.132209 -0.67379 -0.726999 
-0.166562 -0.693609 -0.700831 -0.171785 -0.639802 -0.749095 0.183275 0.112674 -0.976583 
1.42116e-06 0.120961 -0.992657 0.217836 0.0969325 -0.97116 0.177351 0.0960513 -0.979449 
-0.0534252 0.0844811 -0.994992 -0.0237962 0.0886686 -0.995777 -0.0540362 0.0833942 -0.99505 
-0.0257637 0.104942 -0.994145 0.265053 -0.0196038 -0.964035 0.185858 -0.0147722 -0.982466 
-0.00839649 0.0137543 -0.99987 -0.0520527 0.0489048 -0.997446 -0.122861 -0.0252083 -0.992104 
-0.0995708 -0.0381488 -0.994299 -0.0577749 -0.0048748 -0.998318 0.233772 -0.0760601 -0.969312 
0.228315 -0.0977041 -0.968672 0.224293 -0.076087 -0.971547 0.0386214 -0.0335562 -0.99869 
-0.106577 -0.0418675 -0.993423 -0.0722743 -0.00237853 -0.997382 0.171625 -0.196426 -0.965382 
0.0934868 -0.225703 -0.9697 0.0668189 -0.161518 -0.984605 -0.10798 -0.0985533 -0.989256 
-0.0448307 -0.172568 -0.983977 -0.068946 -0.100258 -0.99257 
