# vtk DataFile Version 4.2
vtk output
ASCII
DATASET POLYDATA
POINTS 578 float
-32.6246 16.6854 -20.901 -32.6246 -29.4445 -14.2748 -24.9362 -29.4445 -13.8044 
-17.2479 -29.4445 -14.0169 -9.55962 -29.4445 -13.9668 -1.87131 -29.4445 -13.0707 
5.817 -29.4445 -12.609 -48.0012 -21.7562 -13.3368 -40.3129 -21.7562 -15.4606 
-32.6246 -21.7562 -16.3689 -24.9362 -21.7562 -15.8263 -17.2479 -21.7562 -14.9785 
-9.55962 -21.7562 -13.9004 -1.87131 -21.7562 -14.5979 5.817 -21.7562 -14.8777 
13.5053 -21.7562 -13.6125 -55.6895 -14.0679 -13.0162 -48.0012 -14.0679 -15.5132 
-40.3129 -14.0679 -17.5276 -32.6246 -14.0679 -17.761 -24.9362 -14.0679 -16.9645 
-17.2479 -14.0679 -15.2275 -9.55962 -14.0679 -13.7695 -1.87131 -14.0679 -14.9908 
5.817 -14.0679 -15.6313 13.5053 -14.0679 -15.0823 21.1936 -14.0679 -13.3041 
28.8819 -14.0679 -12.9978 36.5703 -14.0679 -12.9341 -48.0012 -6.37957 -15.9049 
-40.3129 -6.37957 -17.8858 -32.6246 -6.37957 -18.3347 -24.9362 -6.37957 -17.9165 
-17.2479 -6.37957 -16.3338 -9.55962 -6.37957 -16.7507 -1.87131 -6.37957 -17.5923 
5.817 -6.37957 -16.6269 13.5053 -6.37957 -16.501 21.1936 -6.37957 -14.672 
28.8819 -6.37957 -15.0136 36.5703 -6.37957 -15.3707 44.2586 -6.37957 -15.0291 
51.9469 -6.37957 -13.2256 -55.6895 1.30874 -12.8852 -48.0012 1.30874 -16.8662 
-40.3129 1.30874 -18.71 -32.6246 1.30874 -19.2219 -24.9362 1.30874 -18.7151 
-17.2479 1.30874 -17.9403 -9.55962 1.30874 -19.7455 -1.87131 1.30874 -16.5715 
5.817 1.30874 -18.018 13.5053 1.30874 -18.0761 21.1936 1.30874 -15.5713 
28.8819 1.30874 -16.0784 36.5703 1.30874 -16.6129 44.2586 1.30874 -16.3368 
51.9469 1.30874 -15.1266 59.6352 1.30874 -13.4801 -48.0012 8.99706 -16.9803 
-40.3129 8.99706 -19.5637 -32.6246 10.1558 -20.1865 -32.6246 8.99706 -20.0459 
-24.9362 8.99706 -19.5284 -17.2479 8.99706 -18.4612 -9.55962 8.99706 -18.4551 
-1.87131 8.99706 -18.7467 5.817 8.99706 -17.2468 13.5053 8.99706 -16.9842 
21.1936 8.99706 -16.7528 28.8819 8.99706 -17.274 36.5703 8.99706 -17.4715 
44.2586 8.99706 -17.1352 51.9469 8.99706 -16.857 59.6352 8.99706 -14.4768 
-48.0012 16.6854 -17.0922 -36.3708 16.6854 -20.1865 -40.3129 16.6854 -19.3887 
-25.1994 16.6854 -20.1865 -32.6246 20.3496 -20.1865 -24.9362 16.6854 -20.1577 
-17.2479 16.6854 -18.9065 -9.55962 16.6854 -18.6755 -1.87131 16.6854 -19.0102 
5.817 16.6854 -17.7197 13.5053 16.6854 -17.2217 21.1936 16.6854 -17.4217 
28.8819 16.6854 -17.9428 36.5703 16.6854 -17.4299 44.2586 16.6854 -16.2827 
51.9469 16.6854 -14.955 -48.0012 24.3737 -15.0467 -40.3129 24.3737 -18.6511 
-32.6246 24.3737 -19.2686 -24.9362 24.3737 -19.3037 -17.2479 24.3737 -18.9317 
-9.55962 24.3737 -18.9721 -1.87131 24.3737 -19.6437 5.817 24.3737 -18.7794 
13.5053 24.3737 -17.6295 21.1936 24.3737 -17.0261 28.8819 24.3737 -16.1637 
36.5703 24.3737 -14.9937 44.2586 24.3737 -13.3262 -40.3129 32.062 -14.5696 
-32.6246 32.062 -17.081 -24.9362 32.062 -17.1876 -17.2479 32.062 -17.5851 
-9.55962 32.062 -18.1041 -1.87131 32.062 -18.5476 5.817 32.062 -18.0004 
13.5053 32.062 -16.8836 21.1936 32.062 -14.15 -17.2479 39.7503 -12.6353 
-9.55962 39.7503 -12.9832 -1.87131 39.7503 -13.4586 5.817 39.7503 -13.1027 
-40.3129 -37.1328 -5.85146 -32.6246 -34.0401 -12.4982 -32.6246 -37.1328 -9.92115 
-24.9362 -32.5097 -12.4982 -24.9362 -37.1328 -10.3033 -17.2479 -33.3995 -12.4982 
-17.2479 -37.1328 -10.9522 -9.55962 -33.4615 -12.4982 -9.55962 -37.1328 -10.5853 
-1.87131 -30.7745 -12.4982 -1.87131 -37.1328 -8.47848 5.817 -29.6334 -12.4982 
5.817 -37.1328 -5.75062 -48.0012 -24.0177 -12.4982 -48.0012 -29.4445 -9.02326 
-39.3302 -29.4445 -12.4982 -40.3129 -28.7609 -12.4982 -40.3129 -29.4445 -12.1503 
6.33515 -29.4445 -12.4982 13.5053 -25.0095 -12.4982 13.5053 -29.4445 -10.7452 
21.1936 -29.4445 -8.40514 28.8819 -29.4445 -5.56035 -49.5493 -21.7562 -12.4982 
-55.6895 -15.3814 -12.4982 -55.6895 -21.7562 -8.31803 17.1414 -21.7562 -12.4982 
21.1936 -17.1295 -12.4982 21.1936 -21.7562 -11.225 28.8819 -15.4221 -12.4982 
28.8819 -21.7562 -9.79816 36.5703 -15.0188 -12.4982 36.5703 -21.7562 -8.85782 
44.2586 -21.7562 -7.40345 51.9469 -21.7562 -5.19935 -56.3545 -14.0679 -12.4982 
-55.6895 -9.73343 -12.4982 40.2745 -14.0679 -12.4982 44.2586 -12.9163 -12.4982 
44.2586 -14.0679 -11.9896 51.9469 -8.02983 -12.4982 51.9469 -14.0679 -9.89255 
59.6352 -14.0679 -6.92048 -54.8108 -6.37957 -12.4982 -55.6895 -1.79526 -12.4982 
-55.6895 -6.37957 -11.9456 54.2492 -6.37957 -12.4982 59.6352 -1.94917 -12.4982 
59.6352 -6.37957 -10.4022 67.3235 -6.37957 -6.0355 -56.1499 1.30874 -12.4982 
-63.3778 1.30874 -4.87608 -55.6895 5.64476 -12.4982 61.1327 1.30874 -12.4982 
67.3235 1.30874 -6.49751 -55.3077 8.99706 -12.4982 -55.6895 8.99706 -12.1931 
62.8007 8.99706 -12.4982 59.6352 14.1444 -12.4982 67.3235 8.99706 -6.69829 
-54.458 16.6854 -12.4982 -55.6895 16.6854 -11.0787 56.7823 16.6854 -12.4982 
51.9469 22.0121 -12.4982 59.6352 16.6854 -10.4754 -52.5314 24.3737 -12.4982 
-55.6895 24.3737 -7.17768 -48.0012 28.7636 -12.4982 28.8819 30.6646 -12.4982 
36.5703 28.1569 -12.4982 47.7597 24.3737 -12.4982 44.2586 25.5102 -12.4982 
51.9469 24.3737 -10.909 -44.25 32.062 -12.4982 -48.0012 32.062 -7.98023 
-40.3129 34.763 -12.4982 -32.6246 37.3075 -12.4982 -24.9362 39.4577 -12.4982 
13.5053 37.7113 -12.4982 25.7709 32.062 -12.4982 21.1936 33.6252 -12.4982 
28.8819 32.062 -10.5105 36.5703 32.062 -4.97689 -32.6246 39.7503 -7.54234 
-19.99 39.7503 -12.4982 -24.9362 39.7503 -11.9554 -17.2479 39.8691 -12.4982 
-9.55962 40.11 -12.4982 -1.87131 40.4788 -12.4982 7.57242 39.7503 -12.4982 
5.817 40.2158 -12.4982 -40.3129 -37.8406 -4.8099 -32.6246 -40.3184 -4.8099 
-24.9362 -42.9513 -4.8099 -17.2479 -43.776 -4.8099 -17.2479 -44.8211 0.54133 
-9.55962 -42.3123 -4.8099 -1.87131 -39.7457 -4.8099 5.817 -37.7589 -4.8099 
-41.4277 -37.1328 -4.8099 -48.0012 -32.1466 -4.8099 9.59488 -37.1328 -4.8099 
13.5053 -36.2952 -4.8099 13.5053 -37.1328 -3.272 21.1936 -34.3449 -4.8099 
21.1936 -37.1328 -1.28796 28.8819 -30.4065 -4.8099 28.8819 -37.1328 2.20831 
-51.1695 -29.4445 -4.8099 -55.6895 -25.1777 -4.8099 31.4152 -29.4445 -4.8099 
36.5703 -27.4125 -4.8099 36.5703 -29.4445 -3.26707 44.2586 -24.8362 -4.8099 
44.2586 -29.4445 0.0186944 51.9469 -22.2164 -4.8099 -58.0893 -21.7562 -4.8099 
52.5998 -21.7562 -4.8099 59.6352 -16.6988 -4.8099 59.6352 -21.7562 2.33122 
-61.2266 -14.0679 -4.8099 62.133 -14.0679 -4.8099 67.3235 -8.04445 -4.8099 
-62.5207 -6.37957 -4.8099 -63.3778 0.894376 -4.8099 -63.3778 -6.37957 2.27187 
68.458 -6.37957 -4.8099 -63.4162 1.30874 -4.8099 -63.3778 1.51772 -4.8099 
68.6743 1.30874 -4.8099 -61.7877 8.99706 -4.8099 68.5605 8.99706 -4.8099 
67.3235 11.4323 -4.8099 -59.778 16.6854 -4.8099 64.0902 16.6854 -4.8099 
59.6352 21.9652 -4.8099 -56.4469 24.3737 -4.8099 -55.6895 25.3664 -4.8099 
-55.6895 24.3737 -0.65071 44.2586 30.3415 -4.8099 57.2747 24.3737 -4.8099 
51.9469 27.6666 -4.8099 -49.5485 32.062 -4.8099 -48.0012 33.4112 -4.8099 
-48.0012 32.062 1.65969 -40.3129 38.1717 -4.8099 13.5053 39.7283 -4.8099 
21.1936 36.998 -4.8099 28.8819 34.3801 -4.8099 36.7995 32.062 -4.8099 
36.5703 32.1125 -4.8099 36.5703 32.062 -4.44933 -35.8546 39.7503 -4.8099 
-32.6246 40.7679 -4.8099 -32.6246 39.7503 0.228189 -24.9362 42.1021 -4.8099 
-17.2479 42.8332 -4.8099 -9.55962 42.3401 -4.8099 -1.87131 41.7823 -4.8099 
-1.87131 39.7503 1.04739 13.4094 39.7503 -4.8099 5.817 41.2951 -4.8099 
5.817 39.7503 -0.80653 -17.2479 -45.1817 2.87841 -40.3129 -38.7597 2.87841 
-32.6246 -42.3191 2.87841 -21.9478 -44.8211 2.87841 -24.9362 -44.5919 2.87841 
-15.6971 -44.8211 2.87841 -17.2479 -44.8211 3.82721 -9.55962 -43.3315 2.87841 
-1.87131 -40.5895 2.87841 5.817 -39.2361 2.87841 13.5053 -39.5626 2.87841 
21.1936 -39.3133 2.87841 28.8819 -37.5402 2.87841 -42.7831 -37.1328 2.87841 
-48.0012 -33.5943 2.87841 -40.3129 -37.1328 6.17117 -1.87131 -37.1328 9.76829 
5.817 -37.1328 8.51505 30.0298 -37.1328 2.87841 36.5703 -34.6771 2.87841 
44.2586 -31.4305 2.87841 -52.5279 -29.4445 2.87841 -55.6895 -25.8711 2.87841 
-48.0012 -29.4445 9.57756 48.6384 -29.4445 2.87841 51.9469 -27.7921 2.87841 
59.6352 -22.1056 2.87841 -58.7202 -21.7562 2.87841 -55.6895 -21.7562 8.04887 
60.1097 -21.7562 2.87841 59.6352 -21.7562 5.68441 -62.2245 -14.0679 2.87841 
-63.3778 -6.77842 2.87841 66.3487 -14.0679 2.87841 67.3235 -12.2967 2.87841 
-63.4352 -6.37957 2.87841 -63.3778 -6.37957 3.0038 70.2689 -6.37957 2.87841 
67.3235 -6.37957 9.26381 -63.7788 1.30874 2.87841 -63.3778 3.40377 2.87841 
-63.3778 1.30874 3.72943 70.3467 1.30874 2.87841 67.3235 1.30874 8.86996 
-62.3072 8.99706 2.87841 68.938 8.99706 2.87841 67.3235 12.0974 2.87841 
67.3235 8.99706 5.77268 -59.3853 16.6854 2.87841 -55.6895 23.2251 2.87841 
-55.6895 16.6854 8.66847 64.9342 16.6854 2.87841 59.6352 22.04 2.87841 
59.6352 16.6854 9.52835 -54.8721 24.3737 2.87841 -48.0012 31.7317 2.87841 
-48.0012 24.3737 10.4066 36.5703 31.0014 2.87841 44.2586 29.4502 2.87841 
44.2586 24.3737 10.2933 56.0409 24.3737 2.87841 51.9469 27.2842 2.87841 
51.9469 24.3737 6.92741 -47.5476 32.062 2.87841 -40.3129 36.2173 2.87841 
-40.3129 32.062 8.28905 -32.6246 39.1439 2.87841 -1.87131 39.0141 2.87841 
5.817 38.0798 2.87841 5.817 32.062 10.252 13.5053 36.4258 2.87841 
13.5053 32.062 8.46255 21.1936 34.2563 2.87841 21.1936 32.062 6.0647 
31.9013 32.062 2.87841 28.8819 32.7458 2.87841 28.8819 32.062 4.09315 
-29.489 39.7503 2.87841 -24.9362 40.5482 2.87841 -24.9362 39.7503 4.41222 
-17.2479 41.2479 2.87841 -17.2479 39.7503 5.33537 -6.83767 39.7503 2.87841 
-9.55962 40.1239 2.87841 -9.55962 39.7503 3.54946 -32.6246 -38.395 10.5667 
-24.9362 -41.2199 10.5667 -17.2479 -41.6066 10.5667 -9.55962 -39.6626 10.5667 
13.5053 -37.8471 10.5667 21.1936 -38.6104 10.5667 28.8819 -37.6793 10.5667 
-35.2075 -37.1328 10.5667 -40.3129 -33.6593 10.5667 -32.6246 -37.1328 11.9417 
-24.9362 -37.1328 14.031 -17.2479 -37.1328 14.6537 -3.16708 -37.1328 10.5667 
-9.55962 -37.1328 12.9339 -1.87131 -36.5084 10.5667 10.0694 -37.1328 10.5667 
5.817 -36.0065 10.5667 13.5053 -37.1328 11.4396 21.1936 -37.1328 12.3184 
30.8971 -37.1328 10.5667 28.8819 -37.1328 11.2761 36.5703 -35.3579 10.5667 
[...]
POINT_DATA 578
SCALARS ImageScalars float
LOOKUP_TABLE default
0 0 0 0 0 0 0 0 0 
0 0 0 0 0 0 0 0 0 
0 0 0 0 0 0 0 0 0 
0 0 0 0 0 0 0 0 0 
0 0 0 0 0 0 0 0 0 
0 0 0 0 0 0 0 0 0 
0 0 0 0 0 0 0 0 0 
0 0 0 0 0 0 0 0 0 
0 0 0 0 0 0 0 0 0 
0 0 0 0 0 0 0 0 0 
0 0 0 0 0 0 0 0 0 
0 0 0 0 0 0 0 0 0 
0 0 0 0 0 0 0 0 0 
0 0 0 0 0 0 0 0 0 
0 0 0 0 0 0 0 0 0 
0 0 0 0 0 0 0 0 0 
0 0 0 0 0 0 0 0 0 
0 0 0 0 0 0 0 0 0 
0 0 0 0 0 0 0 0 0 
0 0 0 0 0 0 0 0 0 
0 0 0 0 0 0 0 0 0 
0 0 0 0 0 0 0 0 0 
0 0 0 0 0 0 0 0 0 
0 0 0 0 0 0 0 0 0 
0 0 0 0 0 0 0 0 0 
0 0 0 0 0 0 0 0 0 
0 0 0 0 0 0 0 0 0 
0 0 0 0 0 0 0 0 0 
0 0 0 0 0 0 0 0 0 
0 0 0 0 0 0 0 0 0 
0 0 0 0 0 0 0 0 0 
0 0 0 0 0 0 0 0 0 
0 0 0 0 0 0 0 0 0 
0 0 0 0 0 0 0 0 0 
0 0 0 0 0 0 0 0 0 
0 0 0 0 0 0 0 0 0 
0 0 0 0 0 0 0 0 0 
0 0 0 0 0 0 0 0 0 
0 0 0 0 0 0 0 0 0 
0 0 0 0 0 0 0 0 0 
0 0 0 0 0 0 0 0 0 
0 0 0 0 0 0 0 0 0 
0 0 0 0 0 0 0 0 0 
0 0 0 0 0 0 0 0 0 
0 0 0 0 0 0 0 0 0 
0 0 0 0 0 0 0 0 0 
0 0 0 0 0 0 0 0 0 
0 0 0 0 0 0 0 0 0 
0 0 0 0 0 0 0 0 0 
0 0 0 0 0 0 0 0 0 
0 0 0 0 0 0 0 0 0 
0 0 0 0 0 0 0 0 0 
0 0 0 0 0 0 0 0 0 
0 0 0 0 0 0 0 0 0 
0 0 0 0 0 0 0 0 0 
0 0 0 0 0 0 0 0 0 
0 0 0 0 0 0 0 0 0 
0 0 0 0 0 0 0 0 0 
0 0 0 0 0 0 0 0 0 
0 0 0 0 0 0 0 0 0 
0 0 0 0 0 0 0 0 0 
0 0 0 0 0 0 0 0 0 
0 0 0 0 0 0 0 0 0 
0 0 0 0 0 0 0 0 0 
0 0 
NORMALS Normals float
-0.0493299 0.0431876 -0.997848 -0.0811062 -0.328995 -0.940842 0.0188289 -0.31229 -0.9498 
-0.00955443 -0.250139 -0.968163 0.05776 -0.179888 -0.98199 0.0923124 -0.301819 -0.948886 
0.130168 -0.420383 -0.897961 -0.376653 -0.322722 -0.868322 -0.165674 -0.29666 -0.940503 
-0.020444 -0.230548 -0.972846 0.0886469 -0.193993 -0.97699 0.125065 -0.0727275 -0.989479 
0.0241622 0.0131449 -0.999622 -0.062662 -0.117524 -0.991091 0.0614363 -0.191213 -0.979624 
0.222515 -0.251174 -0.942018 -0.576945 -0.153113 -0.802304 -0.295163 -0.135867 -0.945737 
-0.153663 -0.155108 -0.975874 0.0370706 -0.126911 -0.991221 0.152265 -0.129483 -0.979821 
0.211019 -0.0883714 -0.973479 0.0129817 -0.129658 -0.991474 -0.126188 -0.173856 -0.976653 
-0.00376037 -0.105438 -0.994419 0.150101 -0.17491 -0.973076 0.132365 -0.214876 -0.96763 
0.0235273 -0.314231 -0.949055 0.0590237 -0.369901 -0.927194 -0.333183 -0.0835654 -0.939152 
-0.147498 -0.074043 -0.986287 -0.00345187 -0.0938011 -0.995585 0.130593 -0.115414 -0.984695 
0.0790135 -0.17258 -0.981821 -0.0810993 -0.410511 -0.908242 0.021804 -0.121277 -0.992379 
0.0647452 -0.14855 -0.986783 0.136874 -0.178312 -0.974408 0.0839632 -0.143072 -0.986144 
-0.0441337 -0.202008 -0.978389 -0.000181013 -0.234698 -0.972068 0.124511 -0.25707 -0.958338 
0.25656 -0.308478 -0.915979 -0.590627 -0.0160248 -0.806786 -0.313084 -0.0669259 -0.947364 
-0.141732 -0.107077 -0.984097 5.24626e-05 -0.110716 -0.993852 0.0826018 -0.101147 -0.991436 
-0.0540994 -0.135945 -0.989238 0.0446045 -0.0610919 -0.997135 0.134627 -0.0981438 -0.986024 
-0.0881408 -0.040452 -0.995286 0.182927 -0.0252597 -0.982802 0.0863102 -0.136121 -0.986925 
-0.0664581 -0.145382 -0.987141 -0.0169374 -0.132723 -0.991008 0.091512 -0.138102 -0.986181 
0.204686 -0.210351 -0.955958 0.423929 -0.219349 -0.878732 -0.394903 -0.0141684 -0.918614 
-0.18452 -0.0427641 -0.981898 -0.00532077 -0.0888683 -0.996029 0.00280028 -0.11312 -0.993577 
0.102341 -0.091877 -0.990497 0.069339 -0.0621797 -0.995653 -0.0185479 0.0638985 -0.997784 
0.0777466 -0.128255 -0.988689 0.11422 0.00973686 -0.993408 0.0326858 0.037373 -0.998767 
-0.018656 -0.116761 -0.992985 -0.0465855 -0.118716 -0.991835 0.0085725 -0.0521108 -0.998605 
0.0378763 0.0010166 -0.999282 0.202235 -0.00934246 -0.979292 0.417623 0.127126 -0.899683 
-0.413078 0.107022 -0.904386 -0.142255 0.0451326 -0.988801 -0.238273 0.0504321 -0.969888 
0.128602 0.018412 -0.991525 -0.0395669 0.128648 -0.990901 0.135099 0.0173042 -0.990681 
0.0932858 -0.0304251 -0.995174 -0.00679381 -0.0336494 -0.999411 0.0626095 -0.0575766 -0.996376 
0.118255 -0.0976513 -0.98817 0.0190823 -0.0412694 -0.998966 -0.0457502 -0.0197151 -0.998758 
0.00246767 0.072044 -0.997398 0.0974359 0.13183 -0.986472 0.150619 0.220951 -0.963584 
0.336632 0.327345 -0.882907 -0.45909 0.367406 -0.808857 -0.255238 0.289371 -0.922561 
-0.0377554 0.232714 -0.971812 0.0209423 0.182154 -0.983047 0.0229298 0.0767236 -0.996789 
-0.0469167 0.0357806 -0.998258 0.0102395 0.0287623 -0.999534 0.131443 -0.0192813 -0.991136 
0.109049 0.0194926 -0.993845 0.099047 0.167875 -0.98082 0.11767 0.354624 -0.927575 
0.175111 0.464905 -0.867871 0.213664 0.525721 -0.823386 -0.35312 0.56256 -0.747551 
-0.158346 0.456995 -0.875261 -0.028829 0.393173 -0.919012 -0.0617724 0.347408 -0.935677 
-0.0611199 0.292614 -0.954275 0.00756685 0.320353 -0.947268 0.110241 0.300377 -0.947428 
0.224367 0.368112 -0.902304 0.343371 0.603682 -0.719489 -0.0371239 0.777558 -0.627714 
-0.0424363 0.836042 -0.547022 -0.00394751 0.848855 -0.52861 0.151326 0.84795 -0.508017 
-0.423302 -0.800632 -0.424034 -0.11981 -0.531393 -0.83861 -0.186207 -0.722817 -0.66548 
0.0198363 -0.388002 -0.921445 -0.0527321 -0.565425 -0.823112 -0.0250588 -0.346317 -0.937783 
-0.0175292 -0.478522 -0.8779 0.0711238 -0.351745 -0.93339 0.115612 -0.57312 -0.811275 
0.112695 -0.353427 -0.928649 0.234282 -0.748219 -0.620709 0.13249 -0.42774 -0.894139 
0.202577 -0.86236 -0.464002 -0.398316 -0.395331 -0.827682 -0.512975 -0.634057 -0.578644 
-0.222158 -0.446931 -0.866544 -0.237541 -0.449239 -0.861254 -0.250282 -0.47387 -0.844279 
0.137755 -0.422975 -0.895609 0.230833 -0.335576 -0.913293 0.236747 -0.47705 -0.846389 
0.274693 -0.466697 -0.840677 0.281293 -0.557322 -0.781195 -0.427303 -0.354556 -0.831686 
-0.592844 -0.202666 -0.779399 -0.698263 -0.461124 -0.547534 0.224428 -0.267924 -0.936936 
0.167694 -0.243808 -0.955215 0.228935 -0.289351 -0.929443 0.0403511 -0.327989 -0.94382 
0.137072 -0.401594 -0.905502 0.0671406 -0.388417 -0.919035 0.126101 -0.520597 -0.844439 
0.210886 -0.569146 -0.794733 0.350428 -0.614301 -0.706989 -0.614114 -0.158565 -0.773125 
-0.584407 -0.0555068 -0.80956 0.120271 -0.395503 -0.910556 0.174823 -0.397697 -0.900708 
0.180935 -0.424 -0.887405 0.265998 -0.335358 -0.903759 0.288881 -0.462246 -0.838377 
0.484682 -0.480084 -0.731165 -0.549631 0.00797974 -0.835369 -0.586657 -0.001033 -0.809835 
-0.590565 0.00702146 -0.80696 0.309764 -0.337605 -0.888858 0.435788 -0.307357 -0.845944 
0.449118 -0.384764 -0.806381 0.687439 -0.338389 -0.642589 -0.606102 -0.0126015 -0.795287 
-0.941381 0.0476436 -0.333965 -0.625423 0.0392885 -0.779296 0.481014 -0.225867 -0.847118 
0.812631 -0.0364259 -0.581639 -0.636952 0.073391 -0.767402 -0.655663 0.0825162 -0.750531 
0.58558 0.152269 -0.796185 0.508905 0.367143 -0.778602 0.873011 0.240652 -0.424193 
-0.697779 0.0963571 -0.709802 -0.777508 0.133049 -0.614637 0.464114 0.417597 -0.78116 
0.388053 0.467407 -0.794321 0.577738 0.487842 -0.654392 -0.65222 0.406706 -0.639687 
-0.830031 0.514814 -0.214513 -0.5361 0.557123 -0.634201 0.221824 0.676977 -0.701781 
0.214983 0.651689 -0.727381 0.304385 0.536343 -0.787201 0.21979 0.587073 -0.779126 
0.434475 0.610782 -0.661949 -0.481788 0.62343 -0.615804 -0.624036 0.73224 -0.27277 
-0.385336 0.674595 -0.629633 -0.213815 0.778596 -0.589976 -0.125841 0.793132 -0.595907 
0.343599 0.784688 -0.515949 0.290024 0.70146 -0.65103 0.370051 0.693093 -0.618614 
0.261205 0.8193 -0.510411 0.243596 0.96608 -0.0857309 -0.238838 0.945089 -0.223077 
-0.0701356 0.790267 -0.608735 -0.13075 0.825934 -0.548395 -0.0361705 0.783964 -0.619752 
-0.0391875 0.855007 -0.517134 -0.0056727 0.886503 -0.462689 0.19858 0.863256 -0.464063 
0.152593 0.872743 -0.463718 -0.423913 -0.831002 -0.360186 -0.295448 -0.861135 -0.41371 
-0.185062 -0.877127 -0.443171 0.0416862 -0.905661 -0.421948 0.0699047 -0.997054 -0.0315671 
0.242175 -0.892397 -0.380761 0.275853 -0.891616 -0.359063 0.198267 -0.889707 -0.411232 
-0.447311 -0.820549 -0.355828 -0.582265 -0.744161 -0.327402 0.180165 -0.855606 -0.485262 
0.167269 -0.801738 -0.573792 0.129207 -0.87697 -0.462848 0.252833 -0.671543 -0.696495 
0.19535 -0.867866 -0.456779 0.290246 -0.573277 -0.766232 0.299996 -0.886426 -0.352494 
-0.634922 -0.70284 -0.320764 -0.753106 -0.568863 -0.330494 0.265375 -0.58234 -0.768411 
0.206616 -0.596027 -0.775927 0.24388 -0.666542 -0.704446 0.235953 -0.68522 -0.689057 
0.373316 -0.813822 -0.445341 0.357262 -0.628962 -0.690486 -0.821899 -0.457351 -0.339576 
0.364813 -0.629073 -0.686424 0.526081 -0.556978 -0.642662 0.588832 -0.773976 -0.232891 
-0.897135 -0.275905 -0.345001 0.608706 -0.512184 -0.605925 0.723154 -0.409138 -0.556465 
-0.918369 -0.115963 -0.378353 -0.942525 0.0392159 -0.331827 -0.985659 -0.0944881 0.139813 
0.759946 -0.346345 -0.550025 -0.942748 0.0479745 -0.330039 -0.942859 0.0530613 -0.328939 
0.87795 -0.00765066 -0.478692 -0.925197 0.21241 -0.314471 0.910864 0.256833 -0.323053 
0.878789 0.336746 -0.338131 -0.924931 0.311763 -0.217501 0.786752 0.507228 -0.351768 
0.658722 0.698416 -0.279822 -0.83763 0.541703 -0.0702458 -0.819504 0.569758 -0.0615514 
-0.802885 0.577203 0.149038 0.300667 0.942345 -0.14692 0.577142 0.786611 -0.219431 
0.436147 0.883029 -0.173305 -0.658409 0.74787 -0.0847785 -0.620896 0.779651 -0.0814407 
-0.595694 0.742665 0.305937 -0.430641 0.901812 -0.0358366 0.277364 0.95647 0.0907414 
0.330467 0.943797 -0.00628691 0.297828 0.95216 -0.0684887 0.24449 0.966609 -0.0767591 
0.243101 0.967053 -0.0755643 0.241732 0.968453 -0.060531 -0.318888 0.946207 -0.0547963 
-0.240405 0.967622 -0.0768933 -0.250173 0.943581 0.216951 -0.128722 0.99022 -0.0538013 
-0.0165644 0.997682 -0.0660032 0.0708233 0.99748 0.00411717 0.0683639 0.99403 0.0850292 
0.105135 0.930175 0.351739 0.275563 0.956935 0.0913294 0.130725 0.985008 0.112558 
0.1448 0.938324 0.313977 0.077215 -0.990966 0.109651 -0.496436 -0.85502 0.149978 
-0.350614 -0.932387 0.087891 -0.076447 -0.992995 0.0900888 -0.17349 -0.981899 0.0759988 
0.1201 -0.986331 0.112818 0.0791277 -0.983714 0.161384 0.289534 -0.94922 0.12309 
0.261238 -0.952762 0.154914 0.0642889 -0.994884 0.077933 -0.00581856 -0.996744 -0.0804157 
0.134104 -0.969128 -0.2069 0.29455 -0.905394 -0.305783 -0.526617 -0.836375 0.152154 
-0.621671 -0.768886 0.149464 -0.494186 -0.791559 0.359465 0.192813 -0.772417 0.605141 
-0.0341516 -0.891934 0.450875 0.303109 -0.89945 -0.314824 0.335295 -0.876063 -0.346541 
0.422229 -0.839695 -0.341518 -0.717706 -0.673224 0.177952 -0.76415 -0.609799 0.210284 
-0.548329 -0.53554 0.642287 0.458059 -0.83686 -0.299745 0.487982 -0.830428 -0.268817 
0.593123 -0.777822 -0.20784 -0.831061 -0.514923 0.210221 -0.66848 -0.50246 0.548333 
0.604985 -0.770311 -0.201531 0.652929 -0.757419 -0.000918005 -0.938912 -0.291005 0.183742 
-0.978736 -0.101545 0.178226 0.871626 -0.481622 -0.0911478 0.905861 -0.421395 -0.0429143 
-0.979954 -0.092021 0.176699 -0.978655 -0.0922141 0.183662 0.965841 -0.242061 0.0925102 
0.875576 -0.146773 0.460243 -0.977268 0.0713527 0.199639 -0.971027 0.12103 0.206056 
-0.967047 0.0737029 0.243697 0.98899 0.0787143 0.125308 0.865814 0.126974 0.483987 
-0.943652 0.25944 0.205455 0.914577 0.349205 0.203974 0.885899 0.399464 0.235822 
0.840661 0.37439 0.391306 -0.859166 0.425242 0.284611 -0.761997 0.56213 0.321512 
-0.665252 0.423544 0.614858 0.817952 0.520651 0.244698 0.554195 0.781636 0.286206 
0.548731 0.519522 0.654974 -0.741324 0.582267 0.333772 -0.580363 0.721655 0.37735 
-0.428377 0.478701 0.76638 0.193956 0.935559 0.295146 0.217536 0.920676 0.324088 
0.207329 0.674987 0.708101 0.493517 0.805281 0.328578 0.436454 0.842961 0.314523 
0.41141 0.733931 0.540451 -0.569389 0.729519 0.378943 -0.4097 0.816486 0.406813 
-0.355882 0.657736 0.663876 -0.247584 0.889473 0.384109 0.116904 0.889531 0.441664 
0.148068 0.852465 0.501378 0.141877 0.623271 0.769028 0.223883 0.83593 0.501097 
0.182387 0.680525 0.709662 0.214718 0.863288 0.456759 0.174418 0.798466 0.57622 
0.196087 0.921887 0.334177 0.196995 0.907968 0.369848 0.178585 0.888026 0.423694 
-0.196049 0.910569 0.363909 -0.125025 0.929556 0.346835 -0.123608 0.89962 0.418814 
0.0259885 0.921876 0.386612 0.0321183 0.866593 0.497982 0.126589 0.902357 0.411979 
0.132613 0.906944 0.399834 0.130684 0.89638 0.423586 -0.346423 -0.697801 0.626949 
-0.162137 -0.763832 0.624718 0.0818331 -0.776119 0.625254 0.268503 -0.728101 0.630694 
-0.148062 -0.849683 0.506079 0.0152168 -0.901217 0.433101 0.200371 -0.903329 0.379272 
-0.381065 -0.667852 0.639346 -0.413772 -0.582945 0.699262 -0.334831 -0.637137 0.694223 
-0.13225 -0.547402 0.826354 0.0567617 -0.53181 0.844959 0.197709 -0.72785 0.656617 
0.247347 -0.604582 0.757165 0.175678 -0.723966 0.667091 -0.113141 -0.828396 0.548598 
-0.0708927 -0.784758 0.615735 -0.147393 -0.809773 0.567929 0.00955069 -0.820872 0.571032 
0.235505 -0.909076 0.343683 0.186443 -0.879616 0.437624 0.323325 -0.905834 0.273727 
0.447343 -0.851481 0.273614 -0.492062 -0.494713 0.716334 -0.501036 -0.474705 0.723615 
-0.346569 -0.413279 0.842075 -0.203038 -0.270847 0.940966 -0.130801 -0.245323 0.960577 
0.0143367 -0.231944 0.972624 0.13705 -0.27234 0.952391 0.0733545 -0.39445 0.915985 
-0.0721013 -0.429703 0.900087 -0.0797979 -0.330806 0.940319 -0.0499771 -0.28348 0.957675 
0.0518054 -0.3634 0.930192 0.170984 -0.563192 0.808443 0.502692 -0.81193 0.296767 
0.369406 -0.70585 0.604413 0.53427 -0.777239 0.332349 -0.531906 -0.42632 0.731661 
-0.596898 -0.34946 0.722212 -0.41415 -0.378482 0.827787 -0.229203 -0.189974 0.95466 
-0.167232 -0.113152 0.979403 0.0710728 -0.010245 0.997419 0.00319122 -0.0911218 0.995835 
-0.0379473 -0.145563 0.988621 0.00444467 0.00532319 0.999976 -0.039215 -0.0463479 0.998155 
0.247803 -0.324047 0.91301 0.671738 -0.63253 0.385583 0.388236 -0.39666 0.831825 
0.683218 -0.606843 0.406147 -0.663386 -0.219281 0.715426 -0.559038 -0.196166 0.805603 
-0.306982 -0.139139 0.941489 -0.0650707 -0.164652 0.984203 -0.020047 -0.0407962 0.998966 
0.000789427 0.0915194 0.995803 0.0206018 0.167266 0.985697 0.0258571 0.0571655 0.99803 
-0.0690023 0.158793 0.984898 0.0235362 -0.0576921 0.998057 0.0351005 0.125999 0.991409 
-0.122791 0.0441752 0.991449 0.352874 -0.13222 0.926282 0.787493 -0.390061 0.477187 
0.500023 -0.367012 0.784398 -0.666447 -0.0265703 0.745079 -0.563969 -0.0235058 0.825461 
-0.298251 -0.000193928 0.954487 -0.113772 -0.00867512 0.993469 0.0787244 -0.00884847 0.996857 
0.117202 0.0468941 0.992 0.000831705 0.152873 0.988246 0.0642281 -0.095635 0.993342 
-0.0904234 0.135015 0.986709 0.0902761 -0.0592343 0.994154 -0.159513 0.0597816 0.985384 
0.830691 -0.107846 0.546189 0.422291 -0.0321466 0.90589 -0.678616 0.00403546 0.734482 
-0.555417 -0.0096982 0.831516 -0.24918 0.0383621 0.967697 -0.0914859 0.0434373 0.994859 
0.0405108 0.0287278 0.998766 0.161317 0.0256841 0.986568 -0.0784626 0.0415974 0.996049 
0.00177276 -0.196461 0.98051 0.131438 0.0362698 0.990661 -0.0194968 0.0611455 0.997938 
-0.130497 0.0960354 0.986787 0.246164 0.106089 0.963405 0.752665 0.139578 0.643439 
0.390763 0.239696 0.888735 -0.689873 0.205113 0.694265 -0.613293 0.325485 0.719675 
-0.559079 0.188898 0.807309 -0.287693 0.151393 0.945681 -0.12633 0.110038 0.985866 
0.0577239 0.0920913 0.994076 0.126774 0.0188173 0.991753 0.0981833 -0.0199322 0.994969 
-0.136081 0.203502 0.969571 -0.113523 0.027254 0.993161 0.122427 0.220926 0.967576 
0.0371525 0.184775 0.982078 -0.0982056 0.0988622 0.990243 -0.0874087 0.14072 0.986183 
-0.0145541 0.175885 0.984303 0.0458961 0.269863 0.961804 0.246622 0.216448 0.944631 
0.599483 0.331067 0.728708 0.524236 0.45643 0.718921 0.448561 0.287727 0.846171 
-0.547944 0.391156 0.739428 -0.422548 0.470844 0.774441 -0.37064 0.316827 0.873067 
-0.146482 0.23713 0.960371 -0.0479347 0.16672 0.984838 0.0494821 0.0958061 0.994169 
0.0966377 0.00863096 0.995282 -0.00176603 0.0144205 0.999894 -0.00825199 0.165199 0.986226 
0.0465604 0.157083 0.986487 -0.00752899 0.143959 0.989555 -0.0564897 0.202796 0.97759 
-0.0424382 0.260499 0.964541 0.0527264 0.307989 0.949928 0.200519 0.658293 0.725564 
0.112594 0.376028 0.919742 0.501207 0.495227 0.709607 0.351266 0.617153 0.704084 
0.305709 0.467776 0.829293 -0.416418 0.473371 0.776219 -0.297951 0.532618 0.792176 
-0.242357 0.398312 0.884653 -0.106226 0.307349 0.945649 -0.0359034 0.24342 0.969256 
0.022986 0.163113 0.98634 0.0301876 0.144565 0.989035 0.038426 0.241178 0.96972 
0.139111 0.598706 0.788796 0.0920918 0.264018 0.960111 0.144027 0.53907 0.829855 
0.0862939 0.345065 0.934603 0.0829555 0.58047 0.810045 0.0328975 0.451531 0.891649 
0.0763461 0.637001 0.767073 0.0466129 0.536768 0.842441 0.194783 0.660528 0.725095 
0.141072 0.658579 0.73917 0.125301 0.600258 0.789931 -0.227989 0.561956 0.795127 
-0.214548 0.563449 0.797806 -0.209498 0.551107 0.807708 -0.103415 0.597866 0.794897 
-0.0937343 0.476462 0.874184 0.024656 0.596589 0.802168 0.00148824 0.47385 0.880604 
0.0834197 0.614925 0.784161 0.0752979 0.498144 0.863819 0.135176 0.60516 0.784543 
0.118136 0.602514 0.789317 0.113462 0.558099 0.821981 -0.0978398 -0.0280894 0.994806 
0.0269071 -0.0587532 0.99791 -0.084763 -0.167799 0.98217 0.082106 -0.331216 0.939976 
-0.099034 -0.0208352 0.994866 -0.0897445 -0.00969624 0.995918 -0.0959947 -0.0166763 0.995242 
0.0450332 0.0130065 0.998901 0.0307463 0.0533124 0.998104 0.0342796 0.0231456 0.999144 
-0.12103 -0.0535155 0.991205 -0.159689 -0.0575931 0.985486 0.208439 -0.292406 0.933301 
0.0308397 -0.174668 0.984144 0.230503 -0.284625 0.930514 0.0121485 -0.0550559 0.998409 
-0.113655 0.019707 0.993325 -0.108798 0.0036753 0.994057 -0.129688 0.0248674 0.991243 
0.292952 -0.113825 0.949328 0.14653 -0.0853934 0.985514 0.157409 -0.0264418 0.987179 
-0.0280489 0.0342995 0.999018 -0.0777864 -0.0204302 0.996761 -0.0452537 -0.0373804 0.998276 
-0.0752991 -0.0356578 0.996523 -0.160109 0.0479025 0.985936 -0.147743 0.0662595 0.986804 
-0.160449 0.0438343 0.98607 -0.0559462 0.0458456 0.997381 0.0610326 0.0910264 0.993976 
0.190015 -0.0128691 0.981697 0.136211 0.01722 0.99053 0.105679 -0.00341085 0.994394 
-0.0956173 0.114834 0.988772 -0.0547483 0.0530047 0.997092 -0.0965886 0.166215 0.981348 
-0.0777886 0.12296 0.989358 -0.10704 0.0853733 0.990583 -7.65936e-05 0.0887358 0.996055 
-0.0640021 0.164632 0.984276 -0.127414 0.133944 0.982764 -0.107778 0.111132 0.987944 
-0.0524604 0.148061 0.987586 -0.0748771 0.132717 0.988322 0.162375 0.119866 0.979421 
0.0656022 0.198808 0.97784 0.0896511 0.13565 0.986692 
