# vtk DataFile Version 4.2
vtk output
ASCII
DATASET POLYDATA
POINTS 540 float
-30.4223 -33.1396 -13.0783 -23.0662 -33.1396 -14.3762 -15.7101 -33.1396 -15.113 
-8.35394 -33.1396 -14.543 -0.997806 -33.1396 -14.4608 6.35833 -33.1396 -14.371 
13.7145 -33.1396 -13.9868 21.0706 -33.1396 -13.3279 -37.7785 -25.7834 -14.8455 
-30.4223 -25.7834 -16.4743 -23.0662 -25.7834 -16.5783 -15.7101 -25.7834 -17.1723 
-8.35394 -25.7834 -16.2032 -0.997806 -25.7834 -16.301 6.35833 -25.7834 -16.4442 
13.7145 -25.7834 -16.253 21.0706 -25.7834 -15.5985 28.4267 -25.7834 -15.1382 
35.7829 -25.7834 -12.7648 -52.4908 -18.4273 -11.3421 -45.1346 -18.4273 -14.3755 
-37.7785 -18.4273 -16.4395 -30.4223 -18.4273 -16.7157 -23.0662 -18.4273 -16.7411 
-15.7101 -18.4273 -16.5621 -8.35394 -18.4273 -16.024 -0.997806 -18.4273 -15.9593 
6.35833 -18.4273 -16.2895 13.7145 -18.4273 -16.0503 21.0706 -18.4273 -16.2022 
28.4267 -18.4273 -15.9865 35.7829 -18.4273 -15.2689 43.139 -18.4273 -13.4087 
-52.4908 -11.0712 -12.5064 -45.1346 -11.0712 -15.8633 -37.7785 -11.0712 -17.5658 
-30.4223 -11.0712 -16.9939 -23.0662 -11.0712 -16.3559 -15.7101 -11.0712 -15.5057 
-8.35394 -11.0712 -15.1337 -0.997806 -11.0712 -15.9534 6.35833 -11.0712 -15.5109 
13.7145 -11.0712 -15.1106 21.0706 -11.0712 -16.1045 28.4267 -11.0712 -16.84 
35.7829 -11.0712 -16.5555 43.139 -11.0712 -14.9733 50.4951 -11.0712 -12.0745 
-52.4908 -3.71503 -13.292 -45.1346 -3.71503 -15.7871 -37.7785 -3.71503 -16.7706 
-30.4223 -3.71503 -17.058 -23.0662 -3.71503 -15.9253 -15.7101 -3.71503 -14.5792 
-8.35394 -3.71503 -17.8248 -0.997806 -3.71503 -14.8796 6.35833 -3.71503 -18.2647 
13.7145 -3.71503 -15.3167 21.0706 -3.71503 -15.5709 28.4267 -3.71503 -16.5472 
35.7829 -3.71503 -16.8047 43.139 -3.71503 -15.8814 50.4951 -3.71503 -13.768 
-52.4908 3.64111 -13.0802 -45.1346 3.64111 -15.6804 -37.7785 3.64111 -16.7233 
-30.4223 3.64111 -17.0091 -23.0662 3.64111 -15.8801 -15.7101 3.64111 -14.4977 
-8.35394 3.64111 -18.3127 -0.997806 3.64111 -14.0669 6.35833 3.64111 -17.5747 
13.7145 3.64111 -15.0534 21.0706 3.64111 -15.3471 28.4267 3.64111 -16.3922 
35.7829 3.64111 -16.7226 43.139 3.64111 -15.9504 50.4951 3.64111 -13.7063 
-52.4908 10.9972 -11.6621 -45.1346 10.9972 -15.433 -37.7785 10.9972 -17.4026 
-30.4223 10.9972 -16.8658 -23.0662 10.9972 -16.2089 -15.7101 10.9972 -15.3196 
-8.35394 10.9972 -15.4724 -0.997806 10.9972 -16.7235 6.35833 10.9972 -16.2052 
13.7145 10.9972 -15.1306 21.0706 10.9972 -16.1633 28.4267 10.9972 -17.1177 
35.7829 10.9972 -16.4823 43.139 10.9972 -15.049 50.4951 10.9972 -12.0636 
-45.1346 18.3534 -13.9511 -37.7785 18.3534 -15.9789 -30.4223 18.3534 -16.5196 
-23.0662 18.3534 -16.5689 -15.7101 18.3534 -16.5016 -8.35394 18.3534 -15.8234 
-0.997806 18.3534 -15.6405 6.35833 18.3534 -15.6845 13.7145 18.3534 -15.9269 
21.0706 18.3534 -16.607 28.4267 18.3534 -16.7323 35.7829 18.3534 -16.0562 
43.139 18.3534 -13.8501 -37.7785 25.7095 -13.9525 -30.4223 25.7095 -16.3469 
-23.0662 25.7095 -16.5871 -15.7101 25.7095 -17.2262 -8.35394 25.7095 -16.184 
-0.997806 25.7095 -15.912 6.35833 25.7095 -15.8003 13.7145 25.7095 -16.1454 
21.0706 25.7095 -16.393 28.4267 25.7095 -16.742 35.7829 25.7095 -14.3972 
-30.4223 33.0657 -13.1755 -23.0662 33.0657 -15.0104 -15.7101 33.0657 -15.5248 
-8.35394 33.0657 -15.3694 -0.997806 33.0657 -15.2454 6.35833 33.0657 -14.9783 
13.7145 33.0657 -14.9315 21.0706 33.0657 -14.6017 28.4267 33.0657 -13.3163 
-15.7101 40.4218 -11.7048 -8.35394 40.4218 -12.6621 -0.997806 40.4218 -12.8852 
6.35833 40.4218 -12.4363 13.7145 40.4218 -11.3214 -30.4223 -35.3885 -11.2769 
-23.0662 -36.8639 -11.2769 -15.7101 -37.7008 -11.2769 -15.7101 -40.4957 -5.30602 
-8.35394 -37.515 -11.2769 -8.35394 -40.4957 -4.26877 -0.997806 -37.1235 -11.2769 
6.35833 -36.857 -11.2769 13.7145 -36.3995 -11.2769 21.0706 -35.5271 -11.2769 
-35.2621 -33.1396 -11.2769 -37.7785 -31.7981 -11.2769 -37.7785 -33.1396 -9.44979 
27.4364 -33.1396 -11.2769 28.4267 -32.5759 -11.2769 28.4267 -33.1396 -10.8105 
35.7829 -28.7569 -11.2769 35.7829 -33.1396 -6.78433 -52.4908 -18.5441 -11.2769 
-44.9574 -25.7834 -11.2769 -45.1346 -25.5706 -11.2769 -45.1346 -25.7834 -11.122 
40.909 -25.7834 -11.2769 43.139 -23.8466 -11.2769 43.139 -25.7834 -10.1532 
-52.5637 -18.4273 -11.2769 48.3 -18.4273 -11.2769 50.4951 -14.6384 -11.2769 
50.4951 -18.4273 -10.0036 -54.038 -11.0712 -11.2769 51.7207 -11.0712 -11.2769 
57.8513 -11.0712 -5.59928 -55.1505 -3.71503 -11.2769 -59.8469 -3.71503 -4.36321 
54.6495 -3.71503 -11.2769 57.8513 -3.71503 -8.78896 -54.8993 3.64111 -11.2769 
54.3772 3.64111 -11.2769 57.8513 3.64111 -8.36767 -52.9422 10.9972 -11.2769 
-52.4908 12.1592 -11.2769 51.6392 10.9972 -11.2769 50.4951 14.7133 -11.2769 
57.8513 10.9972 -4.46218 -49.199 18.3534 -11.2769 -52.4908 18.3534 -5.99957 
-45.1346 23.667 -11.2769 49.0174 18.3534 -11.2769 43.139 24.6005 -11.2769 
50.4951 18.3534 -9.91776 -43.43 25.7095 -11.2769 -45.1346 25.7095 -8.29649 
-37.7785 30.0323 -11.2769 42.2241 25.7095 -11.2769 35.7829 31.1593 -11.2769 
43.139 25.7095 -10.3738 -33.9703 33.0657 -11.2769 -30.4223 35.4144 -11.2769 
-23.0662 38.2233 -11.2769 21.0706 37.95 -11.2769 33.1088 33.0657 -11.2769 
28.4267 36.0867 -11.2769 35.7829 33.0657 -8.49077 -17.2437 40.4218 -11.2769 
-23.0662 40.4218 -4.92101 -15.7101 40.8667 -11.2769 -8.35394 41.8723 -11.2769 
-0.997806 42.1791 -11.2769 6.35833 41.8834 -11.2769 13.9103 40.4218 -11.2769 
13.7145 40.4752 -11.2769 21.0706 40.4218 -7.13533 -15.7101 -40.9381 -3.92081 
-8.35394 -40.6003 -3.92081 -37.7785 -36.0364 -3.92081 -30.4223 -38.5682 -3.92081 
-19.0124 -40.4957 -3.92081 -23.0662 -39.9526 -3.92081 -15.7101 -40.4957 -2.02248 
-6.97778 -40.4957 -3.92081 -8.35394 -40.4957 -3.39483 -0.997806 -40.0475 -3.92081 
6.35833 -39.6977 -3.92081 13.7145 -39.6042 -3.92081 21.0706 -39.2386 -3.92081 
28.4267 -37.3572 -3.92081 35.7829 -34.5758 -3.92081 -42.5569 -33.1396 -3.92081 
-45.1346 -31.368 -3.92081 38.3213 -33.1396 -3.92081 43.139 -30.0135 -3.92081 
-50.8917 -25.7834 -3.92081 -52.4908 -23.7321 -3.92081 48.4876 -25.7834 -3.92081 
50.4951 -23.8118 -3.92081 -55.8435 -18.4273 -3.92081 55.5189 -18.4273 -3.92081 
57.8513 -13.9081 -3.92081 -59.286 -11.0712 -3.92081 -59.8469 -5.59322 -3.92081 
58.9464 -11.0712 -3.92081 -60.023 -3.71503 -3.92081 -59.8469 -0.698417 -3.92081 
-59.8469 -3.71503 -2.87606 61.0192 -3.71503 -3.92081 -59.5682 3.64111 -3.92081 
60.6537 3.64111 -3.92081 -57.7571 10.9972 -3.92081 58.1566 10.9972 -3.92081 
57.8513 11.6524 -3.92081 -53.2348 18.3534 -3.92081 -52.4908 19.3213 -3.92081 
-52.4908 18.3534 -0.0881028 54.1352 18.3534 -3.92081 50.4951 22.5734 -3.92081 
-46.6895 25.7095 -3.92081 -45.1346 27.201 -3.92081 -45.1346 25.7095 1.26459 
-37.7785 33.0225 -3.92081 47.5978 25.7095 -3.92081 43.139 29.7262 -3.92081 
-37.7118 33.0657 -3.92081 -30.4223 37.388 -3.92081 28.4267 38.7998 -3.92081 
38.7603 33.0657 -3.92081 35.7829 35.082 -3.92081 35.7829 33.0657 2.25759 
-23.6046 40.4218 -3.92081 -23.0662 40.6436 -3.92081 -23.0662 40.4218 -3.19555 
-15.7101 42.925 -3.92081 -15.7101 40.4218 3.39364 -8.35394 44.1349 -3.92081 
-0.997806 44.5811 -3.92081 6.35833 44.32 -3.92081 13.7145 43.3125 -3.92081 
13.7145 40.4218 2.96318 24.1587 40.4218 -3.92081 21.0706 41.5477 -3.92081 
21.0706 40.4218 -0.741381 -37.7785 -34.3458 3.43532 -30.4223 -37.0455 3.43532 
-23.0662 -38.4655 3.43532 -15.7101 -39.0405 3.43532 -8.35394 -38.9692 3.43532 
-0.997806 -38.6748 3.43532 6.35833 -38.5232 3.43532 13.7145 -38.636 3.43532 
21.0706 -38.7105 3.43532 28.4267 -37.278 3.43532 35.7829 -34.677 3.43532 
-39.8182 -33.1396 3.43532 -45.1346 -29.5141 3.43532 -37.7785 -33.1396 5.10629 
-30.4223 -33.1396 8.63432 -23.0662 -33.1396 10.3699 28.4267 -33.1396 10.3152 
38.8332 -33.1396 3.43532 35.7829 -33.1396 6.8581 43.139 -30.7244 3.43532 
-48.8941 -25.7834 3.43532 -52.4908 -21.255 3.43532 -45.1346 -25.7834 7.5691 
49.7057 -25.7834 3.43532 50.4951 -25.0511 3.43532 -54.3278 -18.4273 3.43532 
-52.4908 -18.4273 5.87611 56.7377 -18.4273 3.43532 57.8513 -16.1922 3.43532 
-57.7011 -11.0712 3.43532 -52.4908 -11.0712 10.1579 59.7728 -11.0712 3.43532 
57.8513 -11.0712 7.55592 -58.5275 -3.71503 3.43532 61.6602 -3.71503 3.43532 
57.8513 -3.71503 10.6785 -58.0155 3.64111 3.43532 61.1039 3.64111 3.43532 
57.8513 3.64111 9.72179 -56.3015 10.9972 3.43532 -52.4908 17.175 3.43532 
-52.4908 10.9972 8.68377 58.1518 10.9972 3.43532 57.8513 11.6027 3.43532 
57.8513 10.9972 3.97045 -51.6683 18.3534 3.43532 -45.1346 25.0322 3.43532 
-45.1346 18.3534 10.758 53.3939 18.3534 3.43532 50.4951 21.3108 3.43532 
50.4951 18.3534 6.8821 -44.3384 25.7095 3.43532 -37.7785 30.5944 3.43532 
-37.7785 25.7095 9.89379 35.7829 32.5814 3.43532 35.7829 25.7095 9.82881 
45.7133 25.7095 3.43532 43.139 27.7456 3.43532 43.139 25.7095 5.93457 
-33.8747 33.0657 3.43532 -30.4223 35.0597 3.43532 -30.4223 33.0657 6.39311 
-23.0662 37.991 3.43532 -23.0662 33.0657 10.0014 -15.7101 40.4033 3.43532 
-0.997806 33.0657 10.1399 6.35833 33.0657 9.42653 13.7145 40.1327 3.43532 
13.7145 33.0657 8.99389 21.0706 38.3844 3.43532 21.0706 33.0657 8.32309 
34.7758 33.0657 3.43532 28.4267 35.7854 3.43532 28.4267 33.0657 6.4694 
-15.5903 40.4218 3.43532 -8.35394 41.3414 3.43532 -8.35394 40.4218 4.62406 
-0.997806 41.5184 3.43532 -0.997806 40.4218 4.76375 11.9329 40.4218 3.43532 
6.35833 41.0969 3.43532 6.35833 40.4218 4.21088 -15.7101 -33.4988 10.7915 
-8.35394 -33.5838 10.7915 -0.997806 -33.691 10.7915 6.35833 -33.5635 10.7915 
13.7145 -33.9888 10.7915 21.0706 -33.8966 10.7915 -37.7785 -26.9587 10.7915 
-30.4223 -30.4164 10.7915 -19.1599 -33.1396 10.7915 -23.0662 -32.6104 10.7915 
-15.7101 -33.1396 11.0996 -8.35394 -33.1396 11.2005 -0.997806 -33.1396 11.2769 
6.35833 -33.1396 11.1811 13.7145 -33.1396 11.5402 25.8719 -33.1396 10.7915 
21.0706 -33.1396 11.4205 28.4267 -32.5996 10.7915 35.7829 -30.4255 10.7915 
43.139 -26.8277 10.7915 -39.5169 -25.7834 10.7915 -45.1346 -19.9228 10.7915 
-37.7785 -25.7834 11.5363 -30.4223 -25.7834 13.7008 -23.0662 -25.7834 14.7857 
-15.7101 -25.7834 15.1922 -8.35394 -25.7834 15.1758 -0.997806 -25.7834 15.2257 
[...]
POINT_DATA 540
SCALARS ImageScalars float
LOOKUP_TABLE default
0 0 0 0 0 0 0 0 0 
0 0 0 0 0 0 0 0 0 
0 0 0 0 0 0 0 0 0 
0 0 0 0 0 0 0 0 0 
0 0 0 0 0 0 0 0 0 
0 0 0 0 0 0 0 0 0 
0 0 0 0 0 0 0 0 0 
0 0 0 0 0 0 0 0 0 
0 0 0 0 0 0 0 0 0 
0 0 0 0 0 0 0 0 0 
0 0 0 0 0 0 0 0 0 
0 0 0 0 0 0 0 0 0 
0 0 0 0 0 0 0 0 0 
0 0 0 0 0 0 0 0 0 
0 0 0 0 0 0 0 0 0 
0 0 0 0 0 0 0 0 0 
0 0 0 0 0 0 0 0 0 
0 0 0 0 0 0 0 0 0 
0 0 0 0 0 0 0 0 0 
0 0 0 0 0 0 0 0 0 
0 0 0 0 0 0 0 0 0 
0 0 0 0 0 0 0 0 0 
0 0 0 0 0 0 0 0 0 
0 0 0 0 0 0 0 0 0 
0 0 0 0 0 0 0 0 0 
0 0 0 0 0 0 0 0 0 
0 0 0 0 0 0 0 0 0 
0 0 0 0 0 0 0 0 0 
0 0 0 0 0 0 0 0 0 
0 0 0 0 0 0 0 0 0 
0 0 0 0 0 0 0 0 0 
0 0 0 0 0 0 0 0 0 
0 0 0 0 0 0 0 0 0 
0 0 0 0 0 0 0 0 0 
0 0 0 0 0 0 0 0 0 
0 0 0 0 0 0 0 0 0 
0 0 0 0 0 0 0 0 0 
0 0 0 0 0 0 0 0 0 
0 0 0 0 0 0 0 0 0 
0 0 0 0 0 0 0 0 0 
0 0 0 0 0 0 0 0 0 
0 0 0 0 0 0 0 0 0 
0 0 0 0 0 0 0 0 0 
0 0 0 0 0 0 0 0 0 
0 0 0 0 0 0 0 0 0 
0 0 0 0 0 0 0 0 0 
0 0 0 0 0 0 0 0 0 
0 0 0 0 0 0 0 0 0 
0 0 0 0 0 0 0 0 0 
0 0 0 0 0 0 0 0 0 
0 0 0 0 0 0 0 0 0 
0 0 0 0 0 0 0 0 0 
0 0 0 0 0 0 0 0 0 
0 0 0 0 0 0 0 0 0 
0 0 0 0 0 0 0 0 0 
0 0 0 0 0 0 0 0 0 
0 0 0 0 0 0 0 0 0 
0 0 0 0 0 0 0 0 0 
0 0 0 0 0 0 0 0 0 
0 0 0 0 0 0 0 0 0 

NORMALS Normals float
-0.232388 -0.570536 -0.787708 -0.13228 -0.491866 -0.860564 -0.00599562 -0.472712 -0.881197 
0.0385941 -0.436509 -0.898872 0.0116911 -0.473506 -0.880713 0.0314031 -0.50263 -0.863931 
0.0667946 -0.524848 -0.848571 0.19332 -0.538641 -0.820057 -0.280716 -0.322087 -0.904134 
-0.130419 -0.235687 -0.963038 -0.0452921 -0.140628 -0.989026 0.0262304 -0.0733025 -0.996965 
0.055677 -0.0949764 -0.993921 -0.0162854 -0.0936589 -0.995471 0.00403129 -0.118804 -0.992909 
0.0544774 -0.12094 -0.991164 0.0740965 -0.175525 -0.981683 0.1841 -0.301565 -0.935503 
0.27931 -0.389583 -0.877616 -0.638843 -0.332141 -0.693947 -0.321284 -0.272637 -0.906888 
-0.162069 -0.190682 -0.968181 -0.0193883 -0.0337272 -0.999243 0.00958281 0.0155337 -0.999833 
0.0501594 0.111927 -0.99245 0.0382446 0.0720568 -0.996667 -0.0182737 0.0236314 -0.999554 
-0.00623369 0.0612259 -0.998104 0.00615142 0.0765614 -0.997046 0.00399521 -0.032952 -0.999449 
0.0610312 -0.108736 -0.992195 0.150097 -0.254945 -0.955235 0.324214 -0.292503 -0.899626 
-0.598128 -0.122226 -0.792025 -0.273199 -0.0903008 -0.95771 -0.0882816 -0.0169843 -0.995951 
0.0799557 -0.0230678 -0.996531 0.0988484 0.0550995 -0.993576 0.0847939 0.13253 -0.987545 
-0.0321601 -0.0657601 -0.997317 -0.0272457 0.0595886 -0.997851 0.0576481 -0.110593 -0.992193 
-0.0429435 0.053144 -0.997663 -0.112752 0.0428625 -0.992698 -0.0297629 -0.0370155 -0.998871 
0.118716 -0.0955245 -0.988323 0.278528 -0.142841 -0.949747 0.482189 -0.20232 -0.852385 
-0.516926 -0.0337583 -0.855364 -0.200771 0.0128709 -0.979554 -0.0823475 0.0541997 -0.995129 
0.0577675 -0.00104026 -0.99833 0.169068 0.0324425 -0.98507 -0.0623066 0.0710694 -0.995524 
-0.0714047 -0.23914 -0.968356 -0.0852811 0.16466 -0.982657 -0.00586452 -0.153279 -0.988166 
0.168774 0.00298994 -0.98565 -0.0815561 0.0513692 -0.995344 -0.0833519 0.0301942 -0.996063 
0.0428662 -0.0122281 -0.999006 0.183257 -0.0646578 -0.980936 0.409499 -0.0960682 -0.907239 
-0.526269 0.0981357 -0.844636 -0.212416 0.0256108 -0.976844 -0.0859892 -0.039684 -0.995505 
0.0576522 0.0131508 -0.99825 0.171099 -0.0193579 -0.985064 -0.0881215 -0.052441 -0.994728 
-0.0423409 0.19793 -0.979301 -0.00397556 -0.170811 -0.985296 -0.0367308 0.143306 -0.988997 
0.136354 0.0117629 -0.99059 -0.0900839 -0.0410481 -0.995088 -0.0927894 -0.0383058 -0.994949 
0.0282924 0.0219311 -0.999359 0.180325 0.0547377 -0.982083 0.426681 0.0954544 -0.899351 
-0.650127 0.219285 -0.727495 -0.313717 0.0872295 -0.945501 -0.106425 0.0412697 -0.993464 
0.0785049 0.0330395 -0.996366 0.102829 -0.0465139 -0.993611 0.0502296 -0.136471 -0.98937 
-0.0985444 0.111623 -0.988853 -0.0527791 -0.0683602 -0.996264 0.112067 0.117422 -0.986739 
-0.00205357 -0.0596224 -0.998219 -0.134386 -0.0853278 -0.987248 -0.0219785 -0.0236801 -0.999478 
0.133419 0.0425972 -0.990144 0.261113 0.137557 -0.955457 0.507805 0.194532 -0.839221 
-0.428162 0.337357 -0.838372 -0.144798 0.230251 -0.962298 -0.0371629 0.0339103 -0.998734 
0.00124988 -0.0256489 -0.99967 0.0507656 -0.126099 -0.990718 0.0580343 -0.0481074 -0.997155 
0.00955245 0.0553104 -0.998424 -0.019366 0.0251163 -0.999497 -0.0637553 -0.0700178 -0.995506 
-0.0545481 -0.0159362 -0.998384 0.0347416 0.0257209 -0.999065 0.195476 0.145016 -0.969928 
0.342643 0.233967 -0.909866 -0.363275 0.391858 -0.845268 -0.188255 0.221091 -0.956911 
-0.0574168 0.0908435 -0.994209 0.0278104 0.0679648 -0.9973 0.0867535 0.0286957 -0.995816 
0.0260685 0.0260675 -0.99932 -0.0158524 0.046358 -0.998799 -0.039633 0.0699159 -0.996765 
-0.0379094 0.119004 -0.99217 0.132539 0.212315 -0.968171 0.320782 0.320632 -0.891232 
-0.348543 0.56962 -0.744346 -0.168725 0.385508 -0.907147 -0.0193751 0.327857 -0.944529 
0.0196788 0.226346 -0.973848 0.026184 0.197471 -0.979959 0.0212076 0.21807 -0.975703 
0.0219826 0.296721 -0.954711 0.117481 0.392075 -0.912401 0.253782 0.519079 -0.816181 
-0.185507 0.740587 -0.645847 -0.0779362 0.65206 -0.754151 0.0166186 0.610642 -0.791732 
0.109593 0.59507 -0.796167 0.188032 0.689094 -0.699853 -0.251712 -0.696222 -0.672247 
-0.124438 -0.757134 -0.641299 -0.0347074 -0.748283 -0.662471 -0.0429455 -0.989539 -0.137724 
0.0313391 -0.732447 -0.680102 0.0597037 -0.995609 -0.0720943 0.0360601 -0.749159 -0.661408 
0.0404441 -0.757356 -0.651748 0.0733756 -0.739773 -0.668843 0.190648 -0.68728 -0.700927 
-0.331686 -0.667938 -0.666216 -0.364273 -0.641582 -0.675039 -0.402686 -0.7612 -0.508349 
0.261493 -0.607459 -0.750077 0.265939 -0.592565 -0.760357 0.275509 -0.632805 -0.723638 
0.331317 -0.521872 -0.786053 0.44582 -0.798514 -0.4045 -0.641359 -0.336081 -0.689716 
-0.532878 -0.464838 -0.707083 -0.531857 -0.463562 -0.708687 -0.542853 -0.473213 -0.693816 
0.401209 -0.492851 -0.772094 0.424753 -0.475515 -0.77037 0.475414 -0.56175 -0.677066 
-0.643939 -0.332963 -0.688823 0.471052 -0.377501 -0.797247 0.508648 -0.297777 -0.80784 
0.556522 -0.434818 -0.707967 -0.654196 -0.133631 -0.744427 0.522982 -0.213637 -0.825136 
0.828988 -0.329393 -0.451973 -0.630714 -0.0401439 -0.774976 -0.98848 -0.0201298 -0.150004 
0.562597 -0.101327 -0.820498 0.752138 -0.113943 -0.64908 -0.635111 0.110351 -0.764498 
0.571364 0.113953 -0.812747 0.779423 0.156323 -0.606682 -0.667606 0.224285 -0.709928 
-0.665091 0.252565 -0.702755 0.545003 0.211773 -0.811248 0.572311 0.29179 -0.766367 
0.872602 0.389076 -0.295273 -0.598513 0.43062 -0.675536 -0.796006 0.563992 -0.219744 
-0.581441 0.516825 -0.628346 0.570022 0.365916 -0.73565 0.548392 0.484958 -0.681235 
0.662618 0.430537 -0.612841 -0.570818 0.532289 -0.625168 -0.674359 0.649885 -0.350556 
-0.481919 0.619041 -0.620115 0.551723 0.502348 -0.665769 0.455172 0.611355 -0.647351 
0.59955 0.552232 -0.579292 -0.459161 0.669566 -0.583826 -0.399376 0.706553 -0.584193 
-0.290338 0.769719 -0.568539 0.200859 0.704065 -0.681137 0.415718 0.642357 -0.64386 
0.317672 0.685579 -0.655031 0.520392 0.771493 -0.366048 -0.220646 0.775942 -0.590957 
-0.343007 0.939201 -0.0157668 -0.196674 0.765051 -0.613202 -0.0831334 0.758449 -0.646409 
-0.0034824 0.746022 -0.665913 0.103605 0.69074 -0.715642 0.190147 0.693325 -0.695086 
0.189383 0.691739 -0.696873 0.278505 0.933533 -0.225723 -0.0437593 -0.998218 -0.0405729 
0.0601314 -0.996952 -0.0497076 -0.432883 -0.896575 -0.0936266 -0.248993 -0.966799 -0.0574708 
-0.0936829 -0.994515 -0.046513 -0.156178 -0.986037 -0.057779 -0.0414673 -0.99704 0.0647465 
0.0604155 -0.996842 -0.0515449 0.0580819 -0.998059 -0.0224773 0.0622423 -0.996106 -0.0624377 
0.0304675 -0.996924 -0.072208 0.03041 -0.99442 -0.101013 0.153361 -0.97524 -0.159336 
0.297129 -0.931218 -0.21106 0.441772 -0.866654 -0.231836 -0.546941 -0.833295 -0.0804746 
-0.614077 -0.784307 -0.0881551 0.493827 -0.832646 -0.250671 0.565847 -0.76971 -0.295573 
-0.747713 -0.655165 -0.108092 -0.790969 -0.605098 -0.0906837 0.646635 -0.69464 -0.31518 
0.677165 -0.658828 -0.32771 -0.876712 -0.471065 -0.0973332 0.764878 -0.537623 -0.354855 
0.838694 -0.4095 -0.359029 -0.956266 -0.263242 -0.127514 -0.989661 -0.0813389 -0.118136 
0.875742 -0.328345 -0.353929 -0.99294 -0.0183871 -0.117181 -0.992855 0.0463855 -0.109943 
-0.998686 -0.0194076 -0.0474208 0.934626 -0.106514 -0.339306 -0.984469 0.142305 -0.102809 
0.931126 0.178828 -0.317845 -0.913581 0.38101 -0.142128 0.88309 0.390556 -0.260035 
0.876399 0.4061 -0.258858 -0.809365 0.583321 -0.0683069 -0.795713 0.6024 -0.0628921 
-0.794039 0.589017 0.150202 0.801433 0.562676 -0.202731 0.750004 0.644116 -0.15036 
-0.696617 0.717166 -0.0199464 -0.675938 0.736829 -0.0137828 -0.657449 0.708083 0.257643 
-0.567458 0.823319 0.011745 0.70648 0.695775 -0.129546 0.647717 0.757701 -0.0797015 
-0.566399 0.824041 0.0121943 -0.457137 0.888362 0.0428843 0.395412 0.917436 0.0442839 
0.571486 0.819496 -0.0427781 0.5185 0.854617 -0.0280728 0.454271 0.803539 0.384659 
-0.348921 0.936214 0.0419148 -0.34132 0.939075 0.0404901 -0.342193 0.936605 0.0753291 
-0.227854 0.972582 0.0465429 -0.192167 0.856221 0.479539 -0.114416 0.992367 0.0460132 
-0.0126606 0.998586 0.0516313 0.0865369 0.993326 0.0762613 0.189781 0.980655 0.0479461 
0.147705 0.815743 0.559237 0.332826 0.942606 0.0268669 0.290575 0.956852 -0.000935937 
0.29105 0.925808 0.241181 -0.430364 -0.807938 0.402521 -0.243177 -0.882686 0.402157 
-0.126736 -0.912871 0.388078 -0.0314391 -0.912895 0.406981 0.0229371 -0.922819 0.38455 
0.028012 -0.936161 0.350453 0.00228853 -0.943845 0.330381 -0.0120598 -0.950634 0.31008 
0.0968162 -0.955403 0.278984 0.247785 -0.938069 0.242135 0.397862 -0.897392 0.190772 
-0.475458 -0.786346 0.394462 -0.588507 -0.706726 0.392682 -0.420531 -0.76512 0.487591 
-0.234439 -0.716739 0.656752 -0.120777 -0.651553 0.748927 0.155752 -0.685888 0.710844 
0.464713 -0.867013 0.179805 0.376421 -0.840481 0.389742 0.551034 -0.818376 0.163162 
-0.669315 -0.621249 0.407513 -0.742303 -0.53356 0.40534 -0.550934 -0.545699 0.631415 
0.670404 -0.726681 0.149976 0.686292 -0.712017 0.148439 -0.787115 -0.463984 0.40641 
-0.710558 -0.460441 0.532072 0.815663 -0.555279 0.162356 0.862353 -0.47877 0.164699 
-0.87544 -0.249566 0.413911 -0.616945 -0.263438 0.741606 0.936608 -0.313242 0.156988 
0.840418 -0.305149 0.447864 -0.912187 -0.021341 0.409219 0.978029 -0.0828488 0.1913 
0.722406 -0.0587684 0.688967 -0.914074 0.128407 0.384682 0.953525 0.219523 0.206399 
0.741314 0.230957 0.630169 -0.845003 0.369913 0.386179 -0.762845 0.540381 0.355044 
-0.705006 0.361996 0.609857 0.863803 0.434399 0.255229 0.855594 0.448563 0.25836 
0.853726 0.438457 0.280903 -0.742248 0.569659 0.352925 -0.632059 0.678431 0.374477 
-0.555668 0.49166 0.67045 0.7177 0.619715 0.317585 0.661737 0.668369 0.339687 
0.604765 0.600568 0.523046 -0.618517 0.689843 0.376236 -0.498693 0.766125 0.405412 
-0.451451 0.634575 0.627301 0.427384 0.77163 0.471095 0.318726 0.564006 0.761781 
0.582102 0.713391 0.390167 0.541763 0.73252 0.412197 0.50016 0.683278 0.53195 
-0.448047 0.79213 0.414468 -0.411871 0.802069 0.432491 -0.387616 0.764384 0.515239 
-0.300864 0.839267 0.452892 -0.234346 0.720251 0.652932 -0.191721 0.854835 0.482183 
0.121987 0.522152 0.844083 0.0647225 0.475643 0.877254 0.141674 0.788956 0.597893 
0.0611135 0.53684 0.841468 0.2361 0.760164 0.605316 0.130043 0.621665 0.772413 
0.408908 0.777042 0.478539 0.316087 0.775706 0.546232 0.252792 0.712918 0.654098 
-0.189821 0.854746 0.483092 -0.0698325 0.84075 0.536902 -0.057878 0.813206 0.57909 
0.0148651 0.807929 0.589092 0.0230583 0.763704 0.645155 0.128239 0.791627 0.597396 
0.0814865 0.793651 0.602891 0.0822747 0.759169 0.645672 -0.0427527 -0.641463 0.765962 
-0.00987852 -0.664205 0.747485 0.000972409 -0.667459 0.744646 -0.0161678 -0.669042 0.743049 
-0.0171728 -0.660854 0.750318 0.0661951 -0.664703 0.744169 -0.324974 -0.500215 0.802606 
-0.217954 -0.58651 0.780066 -0.0801341 -0.635705 0.767761 -0.119642 -0.625 0.771402 
-0.0436092 -0.627492 0.777401 -0.0104587 -0.645248 0.763902 0.00103291 -0.643501 0.765445 
-0.0161764 -0.648492 0.76105 -0.0126702 -0.617166 0.786731 0.118905 -0.658387 0.743228 
0.0642795 -0.631906 0.772375 0.146315 -0.649718 0.745961 0.273312 -0.660166 0.69963 
0.441044 -0.631007 0.638209 -0.362578 -0.471042 0.804149 -0.476214 -0.369602 0.797881 
-0.319978 -0.464086 0.825977 -0.203816 -0.410701 0.888698 -0.090229 -0.389922 0.916417 
-0.024971 -0.347 0.937533 -0.0023038 -0.315001 0.949089 0.0111869 -0.323672 0.946103 
0.0136878 -0.291979 0.956327 -0.0104398 -0.267439 0.963518 -0.00322677 -0.289328 0.957224 
0.0958956 -0.376023 0.921635 0.190638 -0.458908 0.86779 0.467646 -0.61511 0.634781 
0.420991 -0.590624 0.688425 0.57444 -0.497829 0.649758 -0.492287 -0.351845 0.796153 
-0.466974 -0.338169 0.817054 -0.26646 -0.314587 0.911062 -0.150491 -0.246068 0.957498 
-0.0441326 -0.208341 0.97706 0.0149649 -0.162744 0.986555 0.00647148 -0.134906 0.990837 
0.0248256 -0.185175 0.982392 0.0529614 -0.242675 0.968661 0.000385136 -0.0790483 0.996871 
-0.0519679 -0.101633 0.993464 -0.0312676 -0.141798 0.989402 0.117342 -0.246707 0.96196 
0.283048 -0.292806 0.913317 0.6083 -0.448083 0.655127 0.541878 -0.442201 0.714721 
-0.570249 -0.262006 0.778569 -0.618319 -0.195009 0.76135 -0.38259 -0.204711 0.900954 
-0.242098 -0.18894 0.951678 -0.0879603 -0.183258 0.979122 -0.0162154 -0.181253 0.983303 
0.0545087 -0.192887 0.979706 -0.0160399 -0.185125 0.982584 -0.119049 -0.107122 0.987093 
0.147329 -0.0399247 0.988281 -0.073963 -0.0196577 0.997067 -0.0687734 -0.058557 0.995912 
0.0451751 -0.080996 0.99569 0.187912 -0.170263 0.967316 0.661573 -0.255249 0.705102 
0.456811 -0.21942 0.862078 -0.667322 -0.0703517 0.741439 -0.630557 -0.0710028 0.772888 
-0.396086 -0.105556 0.912126 -0.250821 -0.0980004 0.96306 0.291726 0.0808286 0.953081 
-0.0738694 0.0354762 0.996637 -0.0955596 0.0164781 0.995287 0.00916515 0.00612843 0.999939 
0.12755 -0.0173753 0.99168 0.714434 -0.0578373 0.697308 0.405983 -0.0379892 0.913091 
-0.689876 0.132717 0.711658 -0.673639 0.207822 0.709239 -0.657622 0.125653 0.742795 
-0.427108 0.052283 0.902688 0.154844 0.0844662 0.984321 -0.129237 0.0392175 0.990838 
-0.0986634 0.0576208 0.993451 0.0116841 0.119701 0.992741 0.142479 0.165834 0.975807 
0.670748 0.22691 0.706123 0.416833 0.224068 0.880934 -0.619761 0.338129 0.708212 
-0.555027 0.489798 0.672342 -0.488861 0.251315 0.835378 -0.329144 0.178954 0.927168 
0.118189 0.188849 0.974868 0.0699227 0.232219 0.970147 0.134322 0.253704 0.95791 
0.0222073 0.000162054 0.999753 -0.0948917 0.0558143 0.993922 -0.017791 0.150742 0.988413 
0.117099 0.226709 0.966898 0.256756 0.298176 0.91933 0.541683 0.399565 0.739546 
0.508481 0.422752 0.750152 0.485865 0.390446 0.781976 -0.554547 0.490994 0.671865 
-0.442892 0.602256 0.664179 -0.381506 0.411782 0.82758 -0.210673 0.325964 0.92161 
0.181866 0.115265 0.976544 0.152921 0.212336 0.965157 0.0375893 0.239729 0.970112 
-0.0324482 0.147122 0.988586 0.0158442 0.19668 0.98034 0.0834286 0.282208 0.955719 
0.289896 0.520675 0.80303 0.191616 0.374427 0.907242 0.396695 0.496904 0.771828 
0.369397 0.506403 0.779168 0.34831 0.474379 0.808483 -0.423569 0.619734 0.660696 
-0.349521 0.659501 0.665502 -0.32023 0.567096 0.758851 -0.229442 0.697306 0.679059 
-0.159677 0.468254 0.869046 0.0274137 0.368549 0.929204 0.174835 0.329514 0.927822 
0.138895 0.491757 0.859583 0.196 0.33663 0.921013 0.0639253 0.412976 0.908496 
0.0603161 0.340608 0.938269 0.0168139 0.46674 0.884234 -0.0224951 0.385727 0.922339 
0.0779423 0.515455 0.853365 0.0474345 0.408111 0.911699 0.260253 0.523029 0.811609 
0.191381 0.527356 0.827809 0.169455 0.462178 0.870446 -0.171695 0.703299 0.689849 
-0.0795178 0.697846 0.71182 -0.0700308 0.672089 0.737151 0.109417 0.561096 0.820487 
0.0764719 0.627322 0.774996 0.0927058 0.603437 0.792003 0.107818 -0.302685 0.946973 
-0.107512 -0.170718 0.979437 -0.0189961 -0.180054 0.983473 0.0451476 -0.190191 0.980708 
0.0280231 -0.191807 0.981033 -0.0974344 -0.127609 0.987027 -0.106702 -0.0902628 0.990185 
0.14017 -0.247995 0.958567 0.122024 -0.321533 0.939003 -0.202692 -0.122042 0.971608 
-0.287737 -0.0171955 0.957555 -0.13733 -0.155412 0.978257 -0.0520074 -0.156797 0.986261 
0.000902734 -0.174924 0.984582 0.0995077 -0.195658 0.975611 -0.0905945 -0.0695805 0.993454 
0.246591 0.0515283 0.967749 0.0780221 0.0108597 0.996893 -0.295532 -0.00658043 0.95531 
-0.296776 0.0153421 0.954824 -0.291733 -0.00771224 0.956469 -0.13908 -0.0386993 0.989525 
-0.0314929 -0.026984 0.99914 0.0210564 0.045572 0.998739 0.108709 0.18048 0.977553 
0.0901288 0.147969 0.984877 0.071188 0.151319 0.985918 0.0724715 0.0634578 0.99535 
0.265379 0.269512 0.925709 0.234306 0.299144 0.924994 0.262033 0.303002 0.916258 
-0.279487 0.163694 0.946093 -0.199343 0.289824 0.93609 -0.152052 0.132844 0.979404 
0.0294577 0.102634 0.994283 0.139037 0.166136 0.976252 0.168762 0.13109 0.976901 
-0.154167 0.298219 0.941965 -0.0613227 0.294457 0.953695 -0.0333095 0.241975 0.96971 
0.124651 0.149724 0.980839 0.103247 0.181508 0.977954 0.112038 0.156767 0.98126 

