# vtk DataFile Version 4.2
vtk output
ASCII
DATASET POLYDATA
POINTS 552 float
-31.7767 -35.4305 -12.3861 -23.8561 -35.4305 -13.2516 -15.9356 -35.4305 -13.7065 
-8.01511 -35.4305 -14.4815 -0.094596 -35.4305 -14.7037 7.82592 -35.4305 -13.5922 
15.7464 -35.4305 -11.3613 -55.5382 -27.51 -11.1245 -47.6177 -27.51 -12.951 
-39.6972 -27.51 -14.7928 -31.7767 -27.51 -14.8541 -23.8561 -27.51 -15.9788 
-15.9356 -27.51 -15.6618 -8.01511 -27.51 -16.33 -0.094596 -27.51 -16.9889 
7.82592 -27.51 -15.8352 15.7464 -27.51 -14.3345 23.6669 -27.51 -14.4874 
31.5875 -27.51 -14.6616 39.508 -27.51 -14.2636 47.4285 -27.51 -12.8067 
-55.5382 -19.5895 -13.0285 -47.6177 -19.5895 -17.6318 -39.6972 -19.5895 -15.9086 
-31.7767 -19.5895 -16.4117 -23.8561 -19.5895 -15.4177 -15.9356 -19.5895 -15.1684 
-8.01511 -19.5895 -15.9164 -0.094596 -19.5895 -17.2374 7.82592 -19.5895 -16.9687 
15.7464 -19.5895 -15.747 23.6669 -19.5895 -16.5097 31.5875 -19.5895 -16.3255 
39.508 -19.5895 -16.612 47.4285 -19.5895 -16.4548 55.349 -19.5895 -13.9474 
-63.4587 -11.6689 -12.718 -55.5382 -11.6689 -15.8222 -47.6177 -11.6689 -16.0843 
-39.6972 -11.6689 -16.8783 -31.7767 -11.6689 -15.8085 -23.8561 -11.6689 -14.3915 
-15.9356 -11.6689 -13.803 -8.01511 -11.6689 -15.9788 -0.094596 -11.6689 -16.845 
7.82592 -11.6689 -16.9583 15.7464 -11.6689 -16.1884 23.6669 -11.6689 -16.893 
31.5875 -11.6689 -17.3201 39.508 -11.6689 -17.1165 47.4285 -11.6689 -15.7217 
55.349 -11.6689 -14.2174 63.2695 -11.6689 -12.4418 -63.4587 -3.74843 -13.3521 
-55.5382 -3.74843 -16.4408 -47.6177 -3.74843 -16.3667 -39.6972 -3.74843 -17.121 
-31.7767 -3.74843 -15.834 -23.8561 -3.74843 -14.315 -15.9356 -3.74843 -13.8615 
-8.01511 -3.74843 -18.6615 -0.094596 -3.74843 -15.8057 7.82592 -3.74843 -17.1644 
15.7464 -3.74843 -16.8414 23.6669 -3.74843 -15.9378 31.5875 -3.74843 -16.1917 
39.508 -3.74843 -15.8096 47.4285 -3.74843 -15.7575 55.349 -3.74843 -13.5463 
63.2695 -3.74843 -11.9102 -63.4587 4.17208 -12.9645 -55.5382 4.17208 -15.732 
-47.6177 4.17208 -16.2941 -39.6972 4.17208 -17.1003 -31.7767 4.17208 -16.033 
-23.8561 4.17208 -14.706 -15.9356 4.17208 -13.6508 -8.01511 4.17208 -14.1448 
-0.094596 4.17208 -15.4597 7.82592 4.17208 -16.9597 15.7464 4.17208 -17.2678 
23.6669 4.17208 -13.9175 31.5875 4.17208 -13.7348 39.508 4.17208 -13.9628 
47.4285 4.17208 -13.8337 55.349 4.17208 -12.5385 63.2695 4.17208 -11.4061 
-63.4587 12.0926 -12.0163 -55.5382 12.0926 -14.8471 -47.6177 12.0926 -16.0177 
-39.6972 12.0926 -16.8744 -31.7767 12.0926 -16.0995 -23.8561 12.0926 -15.1142 
-15.9356 12.0926 -13.0281 -8.01511 12.0926 -11.56 -0.094596 12.0926 -16.6747 
7.82592 12.0926 -12.7676 15.7464 12.0926 -14.9673 23.6669 12.0926 -13.1493 
31.5875 12.0926 -12.6756 39.508 12.0926 -12.6593 47.4285 12.0926 -11.3963 
55.349 12.0926 -11.0335 -55.5382 20.0131 -12.2469 -47.6177 20.0131 -16.7764 
-39.6972 20.0131 -15.7922 -31.7767 20.0131 -15.9448 -23.8561 20.0131 -13.8423 
-15.9356 20.0131 -11.6765 -8.01511 20.0131 -11.0896 -0.094596 20.0131 -14.4342 
7.82592 20.0131 -12.0174 15.7464 20.0131 -12.7669 23.6669 20.0131 -12.945 
31.5875 20.0131 -12.1507 -55.5382 27.9336 -11.7816 -47.6177 27.9336 -12.7994 
-39.6972 27.9336 -14.818 -31.7767 27.9336 -13.1673 -23.8561 27.9336 -12.9913 
-15.9356 27.9336 -11.1039 -0.094596 27.9336 -11.4187 -39.6972 35.8541 -11.7563 
-31.7767 35.8541 -11.2918 -31.7767 -37.124 -10.9576 -23.8561 -39.0342 -10.9576 
-15.9356 -39.2499 -10.9576 -8.01511 -40.2999 -10.9576 -8.01511 -43.351 -3.1986 
-0.094596 -40.3189 -10.9576 -0.094596 -43.351 -3.252 7.82592 -38.4137 -10.9576 
15.7464 -35.9619 -10.9576 -55.5382 -27.7764 -10.9576 -47.6177 -31.7559 -10.9576 
-47.6177 -35.4305 -7.60709 -36.7084 -35.4305 -10.9576 -39.6972 -34.3918 -10.9576 
-39.6972 -35.4305 -10.0183 17.3094 -35.4305 -10.9576 23.6669 -32.8784 -10.9576 
23.6669 -35.4305 -8.01972 31.5875 -32.2237 -10.9576 31.5875 -35.4305 -5.10951 
39.508 -31.0314 -10.9576 47.4285 -29.4523 -10.9576 -55.8853 -27.51 -10.9576 
51.1145 -27.51 -10.9576 55.349 -24.4375 -10.9576 55.349 -27.51 -6.33416 
-61.2259 -19.5895 -10.9576 -63.4587 -17.6336 -10.9576 -63.4587 -19.5895 -9.65987 
59.9457 -19.5895 -10.9576 63.2695 -14.1667 -10.9576 63.2695 -19.5895 -7.323 
-66.098 -11.6689 -10.9576 64.8869 -11.6689 -10.9576 71.19 -11.6689 -4.85298 
-67.0678 -3.74843 -10.9576 -71.3792 -3.74843 -3.90711 64.3193 -3.74843 -10.9576 
71.19 -3.74843 -6.08036 -66.3275 4.17208 -10.9576 63.762 4.17208 -10.9576 
63.2695 4.8926 -10.9576 71.19 4.17208 -5.9583 -64.9218 12.0926 -10.9576 
-63.4587 15.4892 -10.9576 39.508 17.6894 -10.9576 47.4285 14.6304 -10.9576 
55.4923 12.0926 -10.9576 55.349 12.2223 -10.9576 63.2695 12.0926 -7.83208 
-58.7773 20.0131 -10.9576 -63.4587 20.0131 -8.35046 -8.01511 20.8717 -10.9576 
7.82592 25.6383 -10.9576 15.7464 25.7773 -10.9576 23.6669 26.126 -10.9576 
36.5254 20.0131 -10.9576 31.5875 22.9762 -10.9576 39.508 20.0131 -10.1455 
47.4285 20.0131 -9.82991 55.349 20.0131 -7.49867 63.2695 20.0131 -3.86244 
-56.3066 27.9336 -10.9576 -63.4587 27.9336 -3.4691 -55.5382 28.714 -10.9576 
-47.6177 32.3899 -10.9576 -23.8561 31.6552 -10.9576 -14.7313 27.9336 -10.9576 
-15.9356 28.2327 -10.9576 -2.78842 27.9336 -10.9576 -8.01511 27.9336 -10.0984 
3.9064 27.9336 -10.9576 -0.094596 28.8553 -10.9576 7.82592 27.9336 -10.5016 
15.7464 27.9336 -10.2838 23.6669 27.9336 -10.2459 31.5875 27.9336 -8.6313 
39.508 27.9336 -7.17865 47.4285 27.9336 -5.36363 -55.5382 35.8541 -3.1035 
-43.0392 35.8541 -10.9576 -47.6177 35.8541 -9.13312 -39.6972 37.0029 -10.9576 
-30.8539 35.8541 -10.9576 -31.7767 36.2316 -10.9576 -23.8561 35.8541 -8.46035 
-15.9356 35.8541 -6.53242 -8.01511 35.8541 -6.17043 -0.094596 35.8541 -6.64013 
7.82592 35.8541 -5.78142 15.7464 35.8541 -4.72929 23.6669 35.8541 -3.44143 
-8.01511 -43.394 -3.03711 -0.094596 -43.4107 -3.03711 -47.6177 -37.4078 -3.03711 
-39.6972 -40.5194 -3.03711 -31.7767 -41.7486 -3.03711 -23.8561 -42.3048 -3.03711 
-8.43248 -43.351 -3.03711 -15.9356 -42.6267 -3.03711 -8.01511 -43.351 -2.91217 
0.339866 -43.351 -3.03711 -0.094596 -43.351 -2.84307 7.82592 -42.3057 -3.03711 
15.7464 -40.0952 -3.03711 23.6669 -37.9296 -3.03711 31.5875 -36.3184 -3.03711 
-51.5093 -35.4305 -3.03711 -55.5382 -32.9599 -3.03711 -47.6177 -35.4305 3.06357 
23.6669 -35.4305 4.60399 35.4846 -35.4305 -3.03711 31.5875 -35.4305 -0.472178 
39.508 -34.4925 -3.03711 47.4285 -31.9831 -3.03711 55.349 -28.9489 -3.03711 
-62.8928 -27.51 -3.03711 -63.4587 -26.8272 -3.03711 57.5451 -27.51 -3.03711 
55.349 -27.51 0.793455 63.2695 -22.9152 -3.03711 -67.3567 -19.5895 -3.03711 
66.7722 -19.5895 -3.03711 71.19 -13.7613 -3.03711 -70.843 -11.6689 -3.03711 
-71.3792 -7.2085 -3.03711 72.6592 -11.6689 -3.03711 -71.7951 -3.74843 -3.03711 
-71.3792 2.76831 -3.03711 -71.3792 -3.74843 -1.68795 74.1977 -3.74843 -3.03711 
-71.2887 4.17208 -3.03711 74.3845 4.17208 -3.03711 71.19 10.8472 -3.03711 
-69.9467 12.0926 -3.03711 70.4227 12.0926 -3.03711 71.19 12.0926 -1.84886 
-67.0327 20.0131 -3.03711 55.349 26.1717 -3.03711 64.4694 20.0131 -3.03711 
63.2695 21.0175 -3.03711 -63.7211 27.9336 -3.03711 -63.4587 28.2897 -3.03711 
-63.4587 27.9336 -1.9982 31.5875 34.951 -3.03711 39.508 32.3829 -3.03711 
52.2472 27.9336 -3.03711 47.4285 30.3324 -3.03711 55.349 27.9336 0.0625913 
-55.5915 35.8541 -3.03711 -55.5382 35.9073 -3.03711 -55.5382 35.8541 -2.86692 
-47.6177 40.2523 -3.03711 -39.6972 41.8912 -3.03711 -31.7767 42.1402 -3.03711 
-23.8561 41.1336 -3.03711 -15.9356 40.0507 -3.03711 -8.01511 39.1018 -3.03711 
-0.094596 39.0987 -3.03711 7.82592 38.1383 -3.03711 15.7464 37.0463 -3.03711 
25.9605 35.8541 -3.03711 23.6669 36.1408 -3.03711 31.5875 35.8541 0.00340277 
-39.6972 -36.7448 4.8834 -31.7767 -38.7766 4.8834 -23.8561 -39.6397 4.8834 
-15.9356 -39.765 4.8834 -8.01511 -39.7038 4.8834 -0.094596 -40.1764 4.8834 
7.82592 -39.2685 4.8834 15.7464 -36.7436 4.8834 -55.5382 -29.4139 4.8834 
-44.591 -35.4305 4.8834 -47.6177 -34.3352 4.8834 -39.6972 -35.4305 6.379 
-31.7767 -35.4305 8.39366 -23.8561 -35.4305 9.43074 -15.9356 -35.4305 8.97952 
-8.01511 -35.4305 8.89012 -0.094596 -35.4305 9.47236 7.82592 -35.4305 8.74433 
23.0193 -35.4305 4.8834 15.7464 -35.4305 6.22369 23.6669 -35.2615 4.8834 
31.5875 -32.6437 4.8834 39.508 -30.4407 4.8834 47.4285 -28.9168 4.8834 
-57.9587 -27.51 4.8834 -63.4587 -20.5418 4.8834 -55.5382 -27.51 6.45497 
-47.6177 -27.51 10.0418 -39.6972 -27.51 11.6844 15.7464 -27.51 11.2624 
23.6669 -27.51 9.98215 31.5875 -27.51 8.90872 39.508 -27.51 7.86232 
51.0613 -27.51 4.8834 47.4285 -27.51 6.66348 55.349 -24.8839 4.8834 
63.2695 -20.9891 4.8834 -63.9823 -19.5895 4.8834 -63.4587 -19.5895 5.34696 
-55.5382 -19.5895 9.82616 -47.6177 -19.5895 12.1925 47.4285 -19.5895 11.4478 
55.349 -19.5895 10.0229 65.0935 -19.5895 4.8834 63.2695 -19.5895 6.54404 
71.19 -12.8064 4.8834 -65.3634 -11.6689 4.8834 -63.4587 -11.6689 6.43313 
63.2695 -11.6689 12.5095 71.9805 -11.6689 4.8834 71.19 -11.6689 5.79128 
-67.6172 -3.74843 4.8834 -63.4587 -3.74843 8.2217 -55.5382 -3.74843 12.0681 
75.9852 -3.74843 4.8834 71.19 -3.74843 11.4182 -67.6951 4.17208 4.8834 
-63.4587 4.17208 8.48687 -55.5382 4.17208 12.2716 76.8116 4.17208 4.8834 
-66.1039 12.0926 4.8834 -63.4587 12.0926 7.2972 -55.5382 12.0926 11.6963 
74.7548 12.0926 4.8834 71.19 18.2262 4.8834 71.19 12.0926 12.4661 
-64.7089 20.0131 4.8834 -63.4587 23.1526 4.8834 -63.4587 20.0131 6.07834 
-55.5382 20.0131 11.8659 69.993 20.0131 4.8834 63.2695 25.8661 4.8834 
-61.0119 27.9336 4.8834 -55.5382 33.4238 4.8834 -55.5382 27.9336 8.65169 
-39.6972 27.9336 12.2287 -23.8561 27.9336 12.3535 39.508 35.5829 4.8834 
47.4285 33.3913 4.8834 59.6342 27.9336 4.8834 55.349 30.3832 4.8834 
55.349 27.9336 10.065 -52.6549 35.8541 4.8834 -47.6177 39.047 4.8834 
-47.6177 35.8541 8.13804 -39.6972 40.5663 4.8834 -39.6972 35.8541 9.74998 
-31.7767 41.8425 4.8834 -31.7767 35.8541 9.36758 -23.8561 41.7342 4.8834 
-23.8561 35.8541 10.0425 -15.9356 41.0873 4.8834 -15.9356 35.8541 10.3317 
-8.01511 40.9749 4.8834 -8.01511 35.8541 10.8638 -0.094596 40.6717 4.8834 
[...]
POINT_DATA 552
SCALARS ImageScalars float
LOOKUP_TABLE default
0 0 0 0 0 0 0 0 0 
0 0 0 0 0 0 0 0 0 
0 0 0 0 0 0 0 0 0 
0 0 0 0 0 0 0 0 0 
0 0 0 0 0 0 0 0 0 
0 0 0 0 0 0 0 0 0 
0 0 0 0 0 0 0 0 0 
0 0 0 0 0 0 0 0 0 
0 0 0 0 0 0 0 0 0 
0 0 0 0 0 0 0 0 0 
0 0 0 0 0 0 0 0 0 
0 0 0 0 0 0 0 0 0 
0 0 0 0 0 0 0 0 0 
0 0 0 0 0 0 0 0 0 
0 0 0 0 0 0 0 0 0 
0 0 0 0 0 0 0 0 0 
0 0 0 0 0 0 0 0 0 
0 0 0 0 0 0 0 0 0 
0 0 0 0 0 0 0 0 0 
0 0 0 0 0 0 0 0 0 
0 0 0 0 0 0 0 0 0 
0 0 0 0 0 0 0 0 0 
0 0 0 0 0 0 0 0 0 
0 0 0 0 0 0 0 0 0 
0 0 0 0 0 0 0 0 0 
0 0 0 0 0 0 0 0 0 
0 0 0 0 0 0 0 0 0 
0 0 0 0 0 0 0 0 0 
0 0 0 0 0 0 0 0 0 
0 0 0 0 0 0 0 0 0 
0 0 0 0 0 0 0 0 0 
0 0 0 0 0 0 0 0 0 
0 0 0 0 0 0 0 0 0 
0 0 0 0 0 0 0 0 0 
0 0 0 0 0 0 0 0 0 
0 0 0 0 0 0 0 0 0 
0 0 0 0 0 0 0 0 0 
0 0 0 0 0 0 0 0 0 
0 0 0 0 0 0 0 0 0 
0 0 0 0 0 0 0 0 0 
0 0 0 0 0 0 0 0 0 
0 0 0 0 0 0 0 0 0 
0 0 0 0 0 0 0 0 0 
0 0 0 0 0 0 0 0 0 
0 0 0 0 0 0 0 0 0 
0 0 0 0 0 0 0 0 0 
0 0 0 0 0 0 0 0 0 
0 0 0 0 0 0 0 0 0 
0 0 0 0 0 0 0 0 0 
0 0 0 0 0 0 0 0 0 
0 0 0 0 0 0 0 0 0 
0 0 0 0 0 0 0 0 0 
0 0 0 0 0 0 0 0 0 
0 0 0 0 0 0 0 0 0 
0 0 0 0 0 0 0 0 0 
0 0 0 0 0 0 0 0 0 
0 0 0 0 0 0 0 0 0 
0 0 0 0 0 0 0 0 0 
0 0 0 0 0 0 0 0 0 
0 0 0 0 0 0 0 0 0 
0 0 0 0 0 0 0 0 0 
0 0 0 
NORMALS Normals float
0.183084 0.523325 0.832233 0.068659 0.465896 0.882172 0.0827358 0.443591 0.892402 
0.0591054 0.434636 0.898665 -0.0455775 0.470478 0.881234 -0.206327 0.513698 0.832792 
-0.24412 0.565591 0.787726 0.354874 0.442984 0.823304 0.247852 0.450249 0.857814 
0.0922387 0.28276 0.954746 0.0716605 0.204121 0.976319 0.047906 0.134215 0.989794 
0.0236773 0.0768569 0.996761 0.0817726 0.0822717 0.99325 -0.0292907 0.149402 0.988343 
-0.165991 0.187701 0.968099 -0.0845252 0.257842 0.962483 0.0202478 0.359962 0.932747 
-0.0087355 0.421757 0.906667 -0.119965 0.531502 0.838519 -0.30192 0.633487 0.712417 
0.361585 0.264587 0.894008 0.128222 0.128685 0.983361 -0.0621199 0.139965 0.988206 
-0.0343395 0.060478 0.997579 -0.0694358 -0.0967847 0.99288 0.0309508 -0.115855 0.992784 
0.13204 -0.0228554 0.990981 0.0659527 -0.00936747 0.997779 -0.0949322 0.0693126 0.993068 
-0.0317739 0.112961 0.993091 0.0383584 0.140333 0.989361 0.00683466 0.164724 0.986316 
0.0098137 0.140515 0.99003 -0.174322 0.166302 0.970544 -0.407846 0.301651 0.861782 
0.459901 0.149585 0.87528 0.277756 0.202085 0.939156 0.0616496 -0.0604164 0.996268 
-0.0179384 0.075586 0.996978 -0.154525 -0.03103 0.987501 -0.128439 -0.0708414 0.989184 
0.0826101 -0.087287 0.992752 0.214265 0.0913162 0.972498 0.0535814 -0.0871209 0.994756 
-0.0417613 0.0120494 0.999055 -0.00392173 0.0673665 0.997721 0.0712244 -0.0337129 0.99689 
0.0142958 -0.00206822 0.999896 -0.100452 -0.0505964 0.993655 -0.170619 -0.0350781 0.984713 
-0.182269 -0.0252426 0.982925 -0.480713 0.205015 0.852575 0.43994 0.017883 0.897849 
0.262517 -0.00720493 0.9649 0.0437075 0.0131058 0.998958 -0.0334953 0.0138977 0.999342 
-0.174594 0.0139893 0.984541 -0.115106 0.0196981 0.993158 0.134918 -0.0115922 0.990789 
0.0624117 -0.113649 0.991559 0.000504565 -0.0909196 0.995858 0.0630081 0.00250343 0.99801 
-0.0744876 0.0632236 0.995216 -0.0416949 -0.189373 0.98102 -0.00912347 -0.217584 0.975999 
-0.0259313 -0.196623 0.980136 -0.140076 -0.114284 0.983523 -0.212003 -0.10122 0.972013 
-0.498275 -0.0528583 0.865407 0.455185 -0.0896289 0.885875 0.260602 -0.0928756 0.960969 
0.0812365 -0.0218182 0.996456 -0.0166193 -0.0154467 0.999743 -0.149128 0.016535 0.98868 
-0.148398 0.0477266 0.987775 -0.0438668 -0.0467946 0.997941 0.123653 -0.273921 0.95377 
0.149287 0.0464521 0.987702 0.113235 -0.268873 0.956496 -0.215144 -0.128625 0.968075 
-0.174633 -0.168775 0.970061 0.00167215 -0.205409 0.978675 0.00539107 -0.210385 0.977604 
-0.0866783 -0.262115 0.961136 -0.12832 -0.136025 0.98236 -0.453492 -0.285845 0.844179 
0.487675 -0.198068 0.85026 0.282872 -0.193742 0.939387 0.113006 0.0231764 0.993324 
0.00470868 -0.081301 0.996678 -0.10489 -0.0048378 0.994472 -0.188595 -0.0542454 0.980556 
-0.185696 -0.126527 0.974427 0.21953 -0.174335 0.959903 -0.00371128 -0.0686796 0.997632 
-0.0771718 -0.277319 0.957673 0.00757215 -0.242374 0.970153 -0.142376 -0.061952 0.987872 
-0.0309825 -0.0958428 0.994914 -0.0737397 -0.214975 0.973832 -0.106558 -0.227879 0.967841 
-0.2602 -0.362386 0.89497 0.396612 -0.154194 0.904944 0.171917 -0.162692 0.971584 
-0.0450351 -0.119012 0.991871 -0.123807 -0.181447 0.975576 -0.257637 -0.128786 0.957621 
-0.161764 -0.115293 0.980071 0.176628 -0.0891522 0.980232 0.0143224 -0.309096 0.950923 
-0.0976206 -0.126866 0.987104 0.0595181 -0.283698 0.957065 -0.0419335 -0.168603 0.984792 
-0.167446 -0.22784 0.959193 0.449354 -0.402141 0.797724 0.138486 -0.399498 0.906214 
0.0109601 -0.295292 0.955344 -0.0985954 -0.284309 0.953649 -0.13299 -0.307139 0.942326 
-0.183443 -0.284299 0.941022 0.0269154 -0.406208 0.913384 0.0962031 -0.513016 0.852971 
-0.21323 -0.552863 0.805528 0.20417 0.620524 0.757142 0.0929969 0.685293 0.722305 
0.0627818 0.692041 0.719123 0.0473348 0.740837 0.670015 0.052142 0.998244 -0.0280987 
-0.0929484 0.752447 0.652062 -0.0684797 0.997652 -0.00126656 -0.211645 0.687282 0.694874 
-0.249739 0.595534 0.763524 0.361431 0.455879 0.813352 0.271819 0.552004 0.788293 
0.363901 0.819112 0.443432 0.17986 0.604972 0.775667 0.158841 0.596106 0.787037 
0.183515 0.683447 0.706557 -0.240057 0.606939 0.757626 -0.12675 0.64413 0.754341 
-0.222356 0.868317 0.443377 -0.0805382 0.713696 0.69581 -0.189279 0.966325 0.174328 
-0.164639 0.744806 0.646652 -0.302587 0.723689 0.620255 0.364753 0.451118 0.814523 
-0.38476 0.66886 0.636071 -0.468352 0.547781 0.69324 -0.504173 0.815508 0.284177 
0.526083 0.370524 0.765473 0.56047 0.364758 0.743522 0.662134 0.456602 0.594216 
-0.515282 0.41585 0.749369 -0.543663 0.311467 0.779371 -0.65357 0.580995 0.485067 
0.566166 0.205774 0.798193 -0.547563 0.186349 0.81575 -0.81372 0.37039 0.447963 
0.596463 0.0112074 0.802563 0.989744 0.0265951 0.140355 -0.514156 -0.0520299 0.856117 
-0.672978 0.0450874 0.738287 0.56904 -0.111738 0.814683 -0.469486 -0.268097 0.841253 
-0.446841 -0.301243 0.842369 -0.6254 -0.143177 0.767056 0.542127 -0.209379 0.813793 
0.497388 -0.305963 0.811783 -0.119235 -0.265396 0.956738 -0.143444 -0.282288 0.948545 
-0.261682 -0.364895 0.893518 -0.263045 -0.362456 0.89411 -0.347147 -0.392127 0.851895 
0.438147 -0.267679 0.858123 0.665831 -0.458254 0.588789 0.157712 -0.107047 0.981666 
-0.0772961 -0.256387 0.963479 0.00935258 -0.347577 0.937605 -0.0773131 -0.378706 0.922282 
-0.152252 -0.267521 0.951447 -0.159036 -0.317318 0.934889 -0.14416 -0.302284 0.942254 
-0.200143 -0.398786 0.894937 -0.328756 -0.379376 0.864866 -0.48656 -0.557111 0.672968 
0.491673 -0.4208 0.762355 0.822044 -0.53398 0.197758 0.468181 -0.445744 0.762967 
0.252863 -0.480776 0.839592 -0.184946 -0.407411 0.894321 -0.154396 -0.282231 0.946841 
-0.181345 -0.294532 0.938278 0.0234282 -0.35862 0.93319 0.0206271 -0.275983 0.960941 
-0.0203911 -0.361271 0.932238 0.0246166 -0.426496 0.904154 -0.0683908 -0.325157 0.943184 
-0.0154762 -0.388127 0.921476 -0.0943475 -0.456578 0.884667 -0.157608 -0.504077 0.849156 
-0.201238 -0.541201 0.816459 -0.240049 -0.614972 0.751123 0.63855 -0.74745 0.18323 
0.193257 -0.538702 0.820032 0.340176 -0.635442 0.693176 0.0950967 -0.574262 0.81313 
-0.223121 -0.550865 0.804216 -0.21119 -0.575166 0.790305 -0.22172 -0.594645 0.772811 
-0.151855 -0.645567 0.748454 0.00307036 -0.668909 0.743338 -0.0162034 -0.709957 0.704058 
-0.0954091 -0.763708 0.638473 -0.111435 -0.84187 0.52805 -0.118701 -0.882303 0.455469 
0.0524193 0.997864 -0.0389782 -0.0674435 0.997607 -0.0151935 0.403873 0.913527 0.0485238 
0.27121 0.960195 0.0668572 0.11221 0.992905 0.039348 0.057497 0.998231 -0.0151021 
0.053206 0.997894 -0.037098 0.0676438 0.997708 -0.00152606 0.052007 0.99757 -0.0463641 
-0.0748848 0.997111 -0.0127617 -0.0667242 0.997424 -0.0263409 -0.207585 0.977816 0.0280092 
-0.281627 0.959439 0.0127424 -0.230805 0.9713 0.0574883 -0.210862 0.976959 0.0329932 
0.490406 0.870667 0.0379521 0.583547 0.81099 0.0420429 0.39022 0.813235 -0.431715 
-0.197996 0.801064 -0.564884 -0.233921 0.972186 0.0116016 -0.218712 0.963537 -0.154146 
-0.262915 0.964623 -0.0194535 -0.341563 0.939256 -0.033659 -0.475368 0.879474 0.0234623 
0.737511 0.674499 0.0335958 0.756854 0.652718 0.0336224 -0.530724 0.846838 0.0346196 
-0.484435 0.832304 -0.269432 -0.68123 0.71699 0.147822 0.88274 0.46847 0.0361482 
-0.746243 0.64477 0.16551 -0.824514 0.499795 0.265296 0.966794 0.251604 0.0447733 
0.989742 0.124322 0.0703979 -0.854493 0.430606 0.290553 0.996859 0.0283799 0.0739403 
0.990024 -0.0901084 0.108319 0.999257 0.0364268 0.0126227 -0.865174 0.0940689 0.49257 
0.986869 -0.115884 0.112521 -0.816439 -0.110457 0.566769 -0.651265 -0.477781 0.589558 
0.964213 -0.247246 0.09572 -0.622262 -0.510683 0.59329 -0.693462 -0.525909 0.492473 
0.90715 -0.413981 0.07549 -0.48582 -0.659101 0.574077 -0.519292 -0.565315 0.640901 
-0.492203 -0.596363 0.634104 0.828337 -0.535337 0.165141 0.820662 -0.547649 0.16308 
0.835438 -0.54465 0.0734885 -0.177693 -0.847664 0.49989 -0.260241 -0.736124 0.624816 
-0.437541 -0.693147 0.572805 -0.260799 -0.747259 0.611218 -0.520084 -0.800489 0.297877 
0.639913 -0.747567 0.177919 0.639147 -0.748131 0.178301 0.6416 -0.74936 0.163737 
0.298251 -0.924554 0.237163 0.122753 -0.969215 0.213435 -0.0600844 -0.926615 0.371179 
-0.102814 -0.930751 0.350901 -0.141588 -0.829873 0.539689 -0.0500182 -0.831975 0.552554 
-0.0595075 -0.870242 0.489018 -0.12844 -0.873006 0.470493 -0.122424 -0.896348 0.426114 
-0.133055 -0.88508 0.446015 -0.117813 -0.894042 0.432215 -0.160079 -0.956525 0.243791 
0.22215 0.79129 -0.569657 0.143016 0.812351 -0.56536 0.0494756 0.855387 -0.515621 
0.00426078 0.810881 -0.585196 0.020333 0.785579 -0.618427 -0.022667 0.812498 -0.582523 
-0.176946 0.800336 -0.572846 -0.218415 0.756648 -0.616261 0.497181 0.609996 -0.617022 
0.306942 0.75593 -0.578236 0.362731 0.720065 -0.59155 0.215828 0.738064 -0.63928 
0.13499 0.688701 -0.712368 0.0265751 0.641879 -0.766345 -0.0281026 0.627721 -0.777931 
0.024812 0.621776 -0.782802 -0.00616162 0.619543 -0.784939 -0.165459 0.629819 -0.758914 
-0.195864 0.782368 -0.591217 -0.20453 0.701803 -0.682378 -0.194058 0.782452 -0.591702 
-0.185996 0.746421 -0.638953 -0.184418 0.770457 -0.610235 -0.240545 0.813402 -0.529637 
0.526931 0.546839 -0.650624 0.64563 0.323768 -0.691619 0.482099 0.502812 -0.717468 
0.315533 0.443207 -0.839051 0.190772 0.381551 -0.904447 -0.169485 0.477028 -0.862391 
-0.130833 0.497264 -0.857678 -0.0986923 0.560318 -0.822377 -0.112241 0.682552 -0.722167 
-0.321117 0.755782 -0.570682 -0.239683 0.728871 -0.641326 -0.403576 0.695262 -0.594758 
-0.480958 0.747975 -0.457398 0.662166 0.297158 -0.687919 0.632658 0.29262 -0.71702 
0.423236 0.386972 -0.819222 0.244702 0.1871 -0.951375 -0.157595 0.438916 -0.8846 
-0.255465 0.598367 -0.759404 -0.552408 0.689269 -0.46878 -0.492902 0.680282 -0.542461 
-0.709993 0.574919 -0.406666 0.699347 0.160376 -0.696558 0.626794 0.147887 -0.765022 
-0.388906 0.389345 -0.834963 -0.725415 0.568613 -0.387883 -0.684386 0.574858 -0.448502 
0.792143 0.0931436 -0.603187 0.562895 0.102741 -0.820118 0.333856 -0.0878889 -0.938518 
-0.938534 0.269781 -0.215341 -0.679372 0.370816 -0.633206 0.820473 -0.0719275 -0.567142 
0.576646 -0.0493829 -0.8155 0.342206 -0.0221469 -0.939364 -0.988845 -0.0645838 -0.134217 
0.783706 -0.154336 -0.601653 0.637637 -0.140933 -0.757335 0.352885 -0.0325832 -0.935099 
-0.907851 -0.412583 -0.0747081 -0.840925 -0.540391 0.0286883 -0.784895 -0.379102 -0.490124 
0.755711 -0.261394 -0.600478 0.721629 -0.342103 -0.601844 0.683428 -0.254933 -0.684058 
0.406547 -0.19703 -0.892131 -0.805917 -0.591038 0.0342463 -0.539681 -0.838495 0.075304 
0.672644 -0.46094 -0.578865 0.574294 -0.602255 -0.554504 0.517488 -0.437558 -0.735356 
0.0516187 -0.283961 -0.957445 -0.00365661 -0.211317 -0.977411 -0.212439 -0.975033 -0.0646489 
-0.304557 -0.952471 -0.00670192 -0.47698 -0.877507 0.0497079 -0.438992 -0.898253 -0.0206781 
-0.40285 -0.798515 -0.44731 0.51217 -0.676289 -0.529448 0.353589 -0.834568 -0.422458 
0.39065 -0.587026 -0.709079 0.199486 -0.799729 -0.56625 0.0772647 -0.55629 -0.827389 
0.0565276 -0.871319 -0.48745 0.0267346 -0.573971 -0.818439 -0.046948 -0.925631 -0.375504 
0.0650451 -0.509007 -0.858301 -0.050224 -0.945632 -0.321336 0.0506159 -0.576977 -0.81519 
-0.0268503 -0.970589 -0.239239 0.0640042 -0.654245 -0.75357 -0.088718 -0.976808 -0.194871 
0.00748294 -0.681513 -0.731768 -0.148424 -0.972118 -0.181542 -0.0832286 -0.767718 -0.63536 
-0.131335 -0.978123 -0.16133 -0.105278 -0.849839 -0.516421 -0.0859664 -0.984429 -0.153329 
-0.0890715 -0.911899 -0.400632 -0.195286 -0.977316 -0.081952 -0.127725 -0.982377 -0.136459 
-0.114959 -0.954117 -0.276486 0.118916 0.416382 -0.901379 -0.00198409 0.416894 -0.908953 
-0.0200525 0.437708 -0.898894 0.0167683 0.412274 -0.910905 -0.0188972 0.43017 -0.90255 
-0.15905 0.380867 -0.910848 0.153669 0.352895 -0.922958 0.18009 0.298191 -0.937363 
0.130408 0.341385 -0.930833 0.000424417 0.364345 -0.931264 -0.0205437 0.392538 -0.919506 
0.0128997 0.373418 -0.927573 -0.0252639 0.365568 -0.930442 -0.159483 0.382382 -0.910137 
-0.15829 0.364865 -0.917506 -0.133075 0.437964 -0.889088 -0.127463 0.427124 -0.895164 
-0.0565517 0.410545 -0.910085 -0.091717 0.379364 -0.92069 0.351765 0.203135 -0.913782 
0.221535 0.181578 -0.958098 0.173774 0.185515 -0.967154 0.179916 0.187754 -0.965598 
0.0971696 0.128191 -0.986978 0.0505536 0.139996 -0.988861 -0.0197732 0.160793 -0.98679 
0.00655296 0.197374 -0.980306 -0.0161914 0.156759 -0.987504 -0.0522618 0.124489 -0.990844 
-0.0751972 0.382628 -0.920837 -0.126646 0.397097 -0.908997 -0.0582861 0.400548 -0.91442 
-0.101419 0.368539 -0.924064 -0.0935736 0.355973 -0.929799 -0.118502 0.406442 -0.905959 
-0.179002 0.449401 -0.875213 0.37448 0.11449 -0.920139 0.322629 -0.0344862 -0.945897 
0.311181 0.0817359 -0.946829 0.0840775 0.189664 -0.978243 0.106152 0.077484 -0.991326 
0.0819979 0.060296 -0.994807 0.0486575 0.0169382 -0.998672 0.0413684 -0.0251968 -0.998826 
0.0172811 0.0930122 -0.995515 -0.11961 0.0980925 -0.987963 0.0917488 -0.0588183 -0.994044 
0.0946081 0.188854 -0.977437 -0.108656 0.202243 -0.973289 -0.0680948 0.265276 -0.961765 
-0.0549707 0.29097 -0.955152 -0.102267 0.364467 -0.925584 -0.34919 0.38239 -0.855479 
-0.168074 0.375988 -0.911254 -0.378519 0.359722 -0.852833 0.295825 -0.0561262 -0.953592 
0.217857 0.0670097 -0.973678 0.082334 0.0579166 -0.99492 0.0348259 0.0306983 -0.998922 
-0.0339347 -0.00962011 -0.999378 0.0209011 -0.0572282 -0.998142 0.166188 -0.054599 -0.984581 
-0.217401 -0.0420419 -0.975176 0.177992 0.198323 -0.96384 0.139277 0.0621705 -0.9883 
-0.0495865 0.00975889 -0.998722 0.00321968 0.0989537 -0.995087 0.00480281 0.161718 -0.986825 
-0.0461803 0.219455 -0.974529 -0.174862 0.252059 -0.951782 -0.524491 0.289996 -0.800507 
-0.28755 0.181124 -0.940484 -0.657325 0.160612 -0.736293 0.311504 -0.0242393 -0.949936 
0.211833 -0.0232751 -0.977029 0.071971 -0.040823 -0.996571 0.01467 -0.0567434 -0.998281 
-0.039447 -0.0869392 -0.995432 0.00603445 -0.0965473 -0.99531 0.041375 0.0164594 -0.999008 
0.13658 -0.0389115 -0.989865 0.153725 0.196146 -0.96845 -0.108105 0.015687 -0.994016 
-0.0605191 0.0130044 -0.998082 0.0948117 0.0629478 -0.993503 0.0700268 0.0572148 -0.995903 
-0.0301204 0.0572875 -0.997903 -0.180314 0.0553968 -0.982048 -0.27006 0.0455242 -0.961767 
-0.676232 0.0673471 -0.733604 -0.761138 -0.25371 -0.596909 -0.628925 0.0776138 -0.773582 
0.291337 -0.0660059 -0.954341 0.218377 -0.147056 -0.964721 0.0464048 -0.0795762 -0.995748 
-0.0108947 -0.124763 -0.992127 -0.0738304 -0.166643 -0.983249 0.124429 -0.112797 -0.985796 
0.168043 0.0103534 -0.985725 0.0572938 0.0753643 -0.995509 0.135893 -0.0777465 -0.987668 
-0.0258568 -0.0781579 -0.996606 -0.000183155 0.0252942 -0.99968 0.0482577 -0.0127542 -0.998753 
-0.00164455 -0.00635322 -0.999978 -0.0504466 -0.119796 -0.991516 -0.16622 -0.0811715 -0.982742 
-0.756052 -0.351974 -0.551815 -0.274534 -0.0756176 -0.9586 0.19597 -0.106545 -0.974804 
0.179748 -0.10073 -0.978542 0.0512396 -0.246973 -0.967667 0.0749521 -0.160089 -0.984253 
-0.0804031 -0.124625 -0.988941 -0.0117337 -0.185838 -0.98251 -0.023378 -0.157128 -0.987302 
0.169169 -0.0435792 -0.984623 0.240038 -0.146503 -0.959645 0.0531833 -0.0393485 -0.997809 
0.0125241 -0.152934 -0.988157 0.009274 -0.19851 -0.980055 -0.010772 -0.141854 -0.989829 
0.0581606 -0.20168 -0.977723 -0.0383556 -0.229543 -0.972543 -0.108943 -0.245701 -0.963204 
-0.28171 -0.625982 -0.727176 -0.184404 -0.404418 -0.895791 -0.573009 -0.471396 -0.670408 
-0.488341 -0.545798 -0.680902 -0.409098 -0.368368 -0.834832 0.233315 -0.265673 -0.935405 
0.196504 -0.26213 -0.944814 0.230108 -0.263562 -0.936795 0.223707 -0.258684 -0.939701 
0.0260273 -0.274633 -0.961197 -0.00128725 -0.2353 -0.971922 -0.00347651 -0.316098 -0.94872 
0.0032083 -0.277437 -0.960739 0.0539526 -0.195731 -0.979172 0.121112 -0.249701 -0.960719 
0.14062 -0.180403 -0.973489 0.106804 -0.439103 -0.892066 0.161647 -0.294764 -0.941799 
0.0287025 -0.563519 -0.825604 0.0478416 -0.313017 -0.948542 -0.051365 -0.571512 -0.818984 
-0.0377102 -0.320331 -0.946555 -0.0466496 -0.584319 -0.810182 -0.00800038 -0.379229 -0.925268 
-0.0633864 -0.601303 -0.796503 -0.0160659 -0.420954 -0.90694 -0.0333368 -0.608496 -0.792856 
-0.016922 -0.45632 -0.889655 -0.0829169 -0.672472 -0.735463 -0.0516408 -0.500356 -0.864278 
-0.292447 -0.631011 -0.71854 -0.262382 -0.640859 -0.721426 -0.248314 -0.586635 -0.770844 

