# vtk DataFile Version 4.2
vtk output
ASCII
DATASET POLYDATA
POINTS 504 float
-0.512417 -41.8965 -13.4343 8.07559 -41.8965 -15.7668 16.6636 -41.8965 -15.708 
-9.10043 -33.3085 -15.688 -0.512417 -33.3085 -18.0042 8.07559 -33.3085 -19.2782 
16.6636 -33.3085 -18.5145 25.2516 -33.3085 -17.5979 33.8396 -33.3085 -16.6914 
42.4276 -33.3085 -13.6424 -43.4525 -24.7205 -14.9583 -34.8645 -24.7205 -15.6856 
-26.2765 -24.7205 -16.4116 -17.6884 -24.7205 -17.75 -9.10043 -24.7205 -18.5542 
-0.512417 -24.7205 -19.551 8.07559 -24.7205 -19.9906 16.6636 -24.7205 -19.5298 
25.2516 -24.7205 -19.8285 33.8396 -24.7205 -19.2276 42.4276 -24.7205 -18.9122 
51.0157 -24.7205 -16.1739 -52.0405 -16.1325 -14.8973 -43.4525 -16.1325 -16.1257 
-34.8645 -16.1325 -16.77 -26.2765 -16.1325 -16.9695 -17.6884 -16.1325 -18.1871 
-9.10043 -16.1325 -19.0408 -0.512417 -16.1325 -19.2676 8.07559 -16.1325 -19.7957 
16.6636 -16.1325 -18.7255 25.2516 -16.1325 -19.6944 33.8396 -16.1325 -21.3533 
42.4276 -16.1325 -20.4549 51.0157 -16.1325 -19.3624 59.6037 -16.1325 -15.4922 
-60.6285 -7.54448 -13.9393 -52.0405 -7.54448 -16.3935 -43.4525 -7.54448 -17.2797 
-34.8645 -7.54448 -17.338 -26.2765 -7.54448 -17.0825 -17.6884 -7.54448 -18.249 
-9.10043 -7.54448 -19.7336 -0.512417 -7.54448 -18.6306 8.07559 -7.54448 -21.2387 
16.6636 -7.54448 -17.8629 25.2516 -7.54448 -19.175 33.8396 -7.54448 -20.644 
42.4276 -7.54448 -21.3014 51.0157 -7.54448 -21.3914 59.6037 -7.54448 -19.7253 
-60.6285 1.04353 -13.9348 -52.0405 1.04353 -16.3303 -43.4525 1.04353 -18.1438 
-34.8645 1.04353 -18.4933 -26.2765 1.04353 -17.9761 -17.6884 1.04353 -18.95 
-9.10043 1.04353 -21.2504 -0.512417 1.04353 -17.7868 8.07559 1.04353 -21.2567 
16.6636 1.04353 -17.9883 25.2516 1.04353 -19.0693 33.8396 1.04353 -20.4054 
42.4276 1.04353 -20.9966 51.0157 1.04353 -20.628 59.6037 1.04353 -17.9686 
68.1917 1.04353 -13.5685 -52.0405 9.63154 -15.4056 -43.4525 9.63154 -18.5312 
-34.8645 9.63154 -19.3592 -26.2765 9.63154 -19.2593 -17.6884 9.63154 -18.0781 
-9.10043 9.63154 -18.4927 -0.512417 9.63154 -20.3222 8.07559 9.63154 -18.9373 
16.6636 9.63154 -19.2688 25.2516 9.63154 -19.6472 33.8396 9.63154 -20.1523 
42.4276 9.63154 -20.0006 51.0157 9.63154 -19.1783 59.6037 9.63154 -16.8241 
-52.0405 18.2196 -13.5846 -43.4525 18.2196 -17.5627 -34.8645 18.2196 -19.3493 
-26.2765 18.2196 -19.8411 -17.6884 18.2196 -19.5814 -9.10043 18.2196 -19.5693 
-0.512417 18.2196 -19.2178 8.07559 18.2196 -18.6115 16.6636 18.2196 -19.9381 
25.2516 18.2196 -19.8843 33.8396 18.2196 -19.2178 42.4276 18.2196 -18.2899 
51.0157 18.2196 -15.9906 -43.4525 26.8076 -15.9555 -34.8645 26.8076 -18.8158 
-26.2765 26.8076 -20.2629 -17.6884 26.8076 -20.187 -9.10043 26.8076 -19.6322 
-0.512417 26.8076 -17.7204 8.07559 26.8076 -17.5918 16.6636 26.8076 -18.0958 
25.2516 26.8076 -16.8372 33.8396 26.8076 -14.4857 -34.8645 35.3956 -16.698 
-26.2765 35.3956 -18.4263 -17.6884 35.3956 -18.7846 -9.10043 35.3956 -17.3029 
-0.512417 35.3956 -15.0543 -26.2765 43.9836 -13.7216 -17.6884 43.9836 -14.9691 
-0.512417 -41.9581 -13.3772 8.07559 -44.5149 -13.3772 16.6636 -44.4251 -13.3772 
-0.621357 -41.8965 -13.3772 -9.10043 -36.4962 -13.3772 -9.10043 -41.8965 -7.2686 
23.2099 -41.8965 -13.3772 25.2516 -40.7699 -13.3772 25.2516 -41.8965 -11.8566 
33.8396 -37.3455 -13.3772 42.4276 -33.5892 -13.3772 -52.0405 -33.3085 -6.44231 
-43.4525 -28.957 -13.3772 -43.4525 -33.3085 -10.056 -34.8645 -29.6983 -13.3772 
-34.8645 -33.3085 -11.2034 -26.2765 -31.0181 -13.3772 -26.2765 -33.3085 -11.7349 
-16.9616 -33.3085 -13.3772 -17.6884 -32.956 -13.3772 -17.6884 -33.3085 -13.0822 
43.0083 -33.3085 -13.3772 51.0157 -28.6038 -13.3772 -60.6285 -24.7205 -8.11761 
-48.3003 -24.7205 -13.3772 -52.0405 -20.4702 -13.3772 -52.0405 -24.7205 -11.945 
55.5973 -24.7205 -13.3772 59.6037 -19.7212 -13.3772 -59.2889 -16.1325 -13.3772 
-60.6285 -13.759 -13.3772 -60.6285 -16.1325 -12.9635 61.8755 -16.1325 -13.3772 
-61.4229 -7.54448 -13.3772 67.418 -7.54448 -13.3772 68.1917 -1.35087 -13.3772 
68.1917 -7.54448 -11.0719 -61.3508 1.04353 -13.3772 -60.6285 3.45665 -13.3772 
68.3799 1.04353 -13.3772 68.1917 1.94261 -13.3772 -56.8429 9.63154 -13.3772 
-60.6285 9.63154 -10.264 65.0199 9.63154 -13.3772 59.6037 15.9924 -13.3772 
68.1917 9.63154 -10.2781 -52.3297 18.2196 -13.3772 -52.0405 19.0303 -13.3772 
42.4276 24.4983 -13.3772 57.1183 18.2196 -13.3772 51.0157 21.635 -13.3772 
59.6037 18.2196 -11.7837 -48.7347 26.8076 -13.3772 -52.0405 26.8076 -9.73786 
-43.4525 32.0245 -13.3772 8.07559 35.2355 -13.3772 16.6636 33.3881 -13.3772 
25.2516 30.0939 -13.3772 36.8319 26.8076 -13.3772 33.8396 27.7184 -13.3772 
42.4276 26.8076 -9.38342 51.0157 26.8076 -6.79346 -40.5773 35.3956 -13.3772 
-43.4525 35.3956 -10.0415 -34.8645 40.1818 -13.3772 -9.10043 43.1793 -13.3772 
7.68157 35.3956 -13.3772 -0.512417 38.3531 -13.3772 8.07559 35.3956 -13.2768 
16.6636 35.3956 -10.5893 -27.1247 43.9836 -13.3772 -34.8645 43.9836 -7.61947 
-26.2765 44.3461 -13.3772 -10.8877 43.9836 -13.3772 -17.6884 45.7488 -13.3772 
-9.10043 43.9836 -12.8463 -0.512417 43.9836 -9.03284 -9.10043 -44.049 -4.78921 
-0.512417 -48.321 -4.78921 8.07559 -50.2438 -4.78921 16.6636 -48.6979 -4.78921 
25.2516 -45.159 -4.78921 -52.0405 -34.4083 -4.78921 -43.4525 -36.6266 -4.78921 
-34.8645 -37.815 -4.78921 -26.2765 -38.3304 -4.78921 -12.5804 -41.8965 -4.78921 
-17.6884 -39.4941 -4.78921 -17.6884 -41.8965 2.93716 32.206 -41.8965 -4.78921 
33.8396 -41.0935 -4.78921 42.4276 -36.2783 -4.78921 -54.2144 -33.3085 -4.78921 
-60.6285 -28.2421 -4.78921 47.0346 -33.3085 -4.78921 42.4276 -33.3085 2.02302 
51.0157 -30.4594 -4.78921 -63.7467 -24.7205 -4.78921 57.7277 -24.7205 -4.78921 
59.6037 -22.8707 -4.78921 -68.2194 -16.1325 -4.78921 -69.2165 -16.1325 -0.0860177 
65.0214 -16.1325 -4.78921 68.1917 -10.1675 -4.78921 -68.5743 -7.54448 -4.78921 
-69.2165 -7.54448 3.74273 69.6367 -7.54448 -4.78921 68.1917 -7.54448 -0.791512 
-67.1319 1.04353 -4.78921 71.5474 1.04353 -4.78921 -63.9583 9.63154 -4.78921 
-60.6285 17.4127 -4.78921 71.1663 9.63154 -4.78921 68.1917 15.4028 -4.78921 
-60.2614 18.2196 -4.78921 66.0639 18.2196 -4.78921 59.6037 22.9114 -4.78921 
-54.656 26.8076 -4.78921 -52.0405 29.9801 -4.78921 25.2516 33.4709 -4.78921 
33.8396 29.7923 -4.78921 42.4276 28.7188 -4.78921 53.0509 26.8076 -4.78921 
51.0157 27.6915 -4.78921 -46.99 35.3956 -4.78921 -43.4525 38.8654 -4.78921 
8.07559 43.9654 -4.78921 22.1534 35.3956 -4.78921 16.6636 38.9114 -4.78921 
-37.0149 43.9836 -4.78921 -34.8645 45.4564 -4.78921 -26.2765 49.4531 -4.78921 
-17.6884 51.0261 -4.78921 -9.10043 50.7337 -4.78921 8.03602 43.9836 -4.78921 
-0.512417 47.6174 -4.78921 8.07559 43.9836 -4.74553 -17.6884 -42.1571 3.7988 
-9.10043 -46.3352 3.7988 -0.512417 -49.71 3.7988 8.07559 -50.1536 3.7988 
16.6636 -47.4158 3.7988 25.2516 -43.2565 3.7988 -52.0405 -36.4125 3.7988 
-43.4525 -38.5413 3.7988 -34.8645 -38.9262 3.7988 -18.8319 -41.8965 3.7988 
-26.2765 -40.4237 3.7988 -17.6884 -41.8965 4.96812 16.6636 -41.8965 10.8377 
27.6016 -41.8965 3.7988 25.2516 -41.8965 5.70554 33.8396 -37.5809 3.7988 
-57.6945 -33.3085 3.7988 -60.6285 -31.2506 3.7988 -52.0405 -33.3085 10.6294 
-43.4525 -33.3085 11.806 40.8241 -33.3085 3.7988 33.8396 -33.3085 8.21172 
42.4276 -32.043 3.7988 51.0157 -25.5232 3.7988 -66.2334 -24.7205 3.7988 
-69.2165 -17.5093 3.7988 -60.6285 -24.7205 11.4359 42.4276 -24.7205 9.10191 
51.9139 -24.7205 3.7988 51.0157 -24.7205 4.51381 59.6037 -17.5273 3.7988 
-69.7861 -16.1325 3.7988 -69.2165 -16.1325 4.70542 51.0157 -16.1325 9.64642 
60.791 -16.1325 3.7988 59.6037 -16.1325 4.9583 -69.2196 -7.54448 3.7988 
-69.2165 -7.52698 3.7988 -69.2165 -7.54448 3.80391 66.3438 -7.54448 3.7988 
59.6037 -7.54448 10.0231 68.1917 -2.86523 3.7988 -67.6132 1.04353 3.7988 
69.4574 1.04353 3.7988 68.1917 1.04353 5.50365 -64.5657 9.63154 3.7988 
-60.6285 16.8495 3.7988 -60.6285 9.63154 9.72944 70.2125 9.63154 3.7988 
68.1917 13.9311 3.7988 68.1917 9.63154 6.84215 -59.7022 18.2196 3.7988 
-52.0405 18.2196 11.793 65.6762 18.2196 3.7988 59.6037 23.3206 3.7988 
-53.7229 26.8076 3.7988 -52.0405 28.678 3.7988 -52.0405 26.8076 5.96117 
25.2516 34.8928 3.7988 33.8396 31.1307 3.7988 42.4276 29.8119 3.7988 
54.3929 26.8076 3.7988 51.0157 28.4207 3.7988 51.0157 26.8076 9.62729 
-45.4155 35.3956 3.7988 -43.4525 37.1481 3.7988 -43.4525 35.3956 6.05145 
24.3592 35.3956 3.7988 16.6636 40.7595 3.7988 25.2516 35.3956 10.4199 
-35.2895 43.9836 3.7988 -34.8645 44.2841 3.7988 -34.8645 43.9836 4.29565 
-26.2765 49.5639 3.7988 -26.2765 43.9836 12.0135 -17.6884 52.049 3.7988 
-9.10043 52.3681 3.7988 -0.512417 50.339 3.7988 12.7042 43.9836 3.7988 
8.07559 46.8 3.7988 -9.10043 -44.2995 12.3868 -0.512417 -45.4618 12.3868 
8.07559 -44.9448 12.3868 -34.8645 -35.7933 12.3868 -26.2765 -36.7552 12.3868 
-14.1276 -41.8965 12.3868 -17.6884 -39.8451 12.3868 -9.10043 -41.8965 14.9442 
-0.512417 -41.8965 15.6942 13.8015 -41.8965 12.3868 8.07559 -41.8965 14.629 
16.6636 -39.7073 12.3868 25.2516 -34.3195 12.3868 -52.0405 -30.6758 12.3868 
-42.108 -33.3085 12.3868 -43.4525 -32.5032 12.3868 -34.8645 -33.3085 14.463 
-26.2765 -33.3085 15.2 -17.6884 -33.3085 17.0927 -9.10043 -33.3085 18.9493 
-0.512417 -33.3085 18.4249 8.07559 -33.3085 17.4815 16.6636 -33.3085 15.5648 
26.611 -33.3085 12.3868 25.2516 -33.3085 13.0083 33.8396 -26.4646 12.3868 
-58.3914 -24.7205 12.3868 -60.6285 -22.7691 12.3868 -52.0405 -24.7205 14.7412 
-43.4525 -24.7205 16.1431 -34.8645 -24.7205 18.1324 -26.2765 -24.7205 17.7985 
-17.6884 -24.7205 18.2911 -9.10043 -24.7205 19.2286 -0.512417 -24.7205 19.0894 
8.07559 -24.7205 18.1527 16.6636 -24.7205 17.654 25.2516 -24.7205 16.3421 
35.7857 -24.7205 12.3868 33.8396 -24.7205 13.2083 42.4276 -18.1022 12.3868 
-63.4598 -16.1325 12.3868 -60.6285 -16.1325 14.35 -52.0405 -16.1325 17.4828 
-43.4525 -16.1325 17.8159 -34.8645 -16.1325 18.2767 -26.2765 -16.1325 18.0352 
-17.6884 -16.1325 18.185 -9.10043 -16.1325 19.1532 -0.512417 -16.1325 19.0934 
8.07559 -16.1325 18.929 16.6636 -16.1325 19.2694 25.2516 -16.1325 17.9546 
[...]
POINT_DATA 504
SCALARS ImageScalars float
LOOKUP_TABLE default
0 0 0 0 0 0 0 0 0 
0 0 0 0 0 0 0 0 0 
0 0 0 0 0 0 0 0 0 
0 0 0 0 0 0 0 0 0 
0 0 0 0 0 0 0 0 0 
0 0 0 0 0 0 0 0 0 
0 0 0 0 0 0 0 0 0 
0 0 0 0 0 0 0 0 0 
0 0 0 0 0 0 0 0 0 
0 0 0 0 0 0 0 0 0 
0 0 0 0 0 0 0 0 0 
0 0 0 0 0 0 0 0 0 
0 0 0 0 0 0 0 0 0 
0 0 0 0 0 0 0 0 0 
0 0 0 0 0 0 0 0 0 
0 0 0 0 0 0 0 0 0 
0 0 0 0 0 0 0 0 0 
0 0 0 0 0 0 0 0 0 
0 0 0 0 0 0 0 0 0 
0 0 0 0 0 0 0 0 0 
0 0 0 0 0 0 0 0 0 
0 0 0 0 0 0 0 0 0 
0 0 0 0 0 0 0 0 0 
0 0 0 0 0 0 0 0 0 
0 0 0 0 0 0 0 0 0 
0 0 0 0 0 0 0 0 0 
0 0 0 0 0 0 0 0 0 
0 0 0 0 0 0 0 0 0 
0 0 0 0 0 0 0 0 0 
0 0 0 0 0 0 0 0 0 
0 0 0 0 0 0 0 0 0 
0 0 0 0 0 0 0 0 0 
0 0 0 0 0 0 0 0 0 
0 0 0 0 0 0 0 0 0 
0 0 0 0 0 0 0 0 0 
0 0 0 0 0 0 0 0 0 
0 0 0 0 0 0 0 0 0 
0 0 0 0 0 0 0 0 0 
0 0 0 0 0 0 0 0 0 
0 0 0 0 0 0 0 0 0 
0 0 0 0 0 0 0 0 0 
0 0 0 0 0 0 0 0 0 
0 0 0 0 0 0 0 0 0 
0 0 0 0 0 0 0 0 0 
0 0 0 0 0 0 0 0 0 
0 0 0 0 0 0 0 0 0 
0 0 0 0 0 0 0 0 0 
0 0 0 0 0 0 0 0 0 
0 0 0 0 0 0 0 0 0 
0 0 0 0 0 0 0 0 0 
0 0 0 0 0 0 0 0 0 
0 0 0 0 0 0 0 0 0 
0 0 0 0 0 0 0 0 0 
0 0 0 0 0 0 0 0 0 
0 0 0 0 0 0 0 0 0 
0 0 0 0 0 0 0 0 0 

NORMALS Normals float
-0.314554 -0.622511 -0.716614 -0.10458 -0.576923 -0.810076 0.161249 -0.556953 -0.81474 
-0.255624 -0.480106 -0.839139 -0.191973 -0.292494 -0.9368 -0.028643 -0.201575 -0.979054 
0.0997176 -0.205116 -0.973645 0.10023 -0.36082 -0.927234 0.217571 -0.498332 -0.839243 
0.381182 -0.694076 -0.610704 -0.190446 -0.248546 -0.949713 -0.086618 -0.276792 -0.957018 
-0.117548 -0.241858 -0.963165 -0.125268 -0.245774 -0.961199 -0.101196 -0.168493 -0.980494 
-0.0862085 -0.0698982 -0.993822 0.00147003 -0.0306604 -0.999529 0.0102726 -0.00882787 -0.999908 
0.0171588 -0.125015 -0.992007 0.0486862 -0.248456 -0.967419 0.179404 -0.384827 -0.905385 
0.41561 -0.501513 -0.758784 -0.199995 -0.242605 -0.949287 -0.100381 -0.138513 -0.98526 
-0.0469728 -0.0904502 -0.994793 -0.0818753 -0.0377205 -0.995929 -0.12012 -0.028071 -0.992362 
-0.0627241 -0.0670613 -0.995775 -0.04347 0.0508101 -0.997762 0.0323131 -0.0631616 -0.99748 
0.00370659 0.0962386 -0.995351 -0.141174 0.0370907 -0.98929 -0.0480846 -0.0833857 -0.995357 
0.107143 -0.125002 -0.986354 0.239802 -0.28491 -0.928074 0.588205 -0.420476 -0.690807 
-0.501763 -0.050033 -0.863557 -0.224723 -0.0758493 -0.971466 -0.0491159 -0.116607 -0.991963 
0.0116024 -0.0999259 -0.994927 -0.0456559 -0.0583607 -0.997251 -0.161898 -0.0454376 -0.985761 
-0.0195185 -0.130963 -0.991195 -0.0780604 0.0893972 -0.992932 0.0635086 -0.0895765 -0.993953 
0.0995133 0.0445876 -0.994037 -0.160884 0.0361282 -0.986312 -0.12198 0.0503795 -0.991253 
-0.0431872 -0.0308187 -0.998592 0.0716075 -0.0749197 -0.994615 0.410174 -0.0823331 -0.908283 
-0.565779 0.124668 -0.815078 -0.250298 0.0547842 -0.966618 -0.136274 -0.069415 -0.988236 
0.0106578 -0.117585 -0.993006 -0.0232094 -0.127544 -0.991561 -0.195614 0.0154242 -0.98056 
0.0671838 0.0692538 -0.995334 0.000828814 -0.108504 -0.994096 -0.00137595 0.14268 -0.989768 
0.120949 -0.0819255 -0.989272 -0.13978 -0.0274494 -0.989802 -0.110962 0.0284286 -0.993418 
-0.0139548 0.0742628 -0.997141 0.177345 0.121751 -0.976589 0.377576 0.121677 -0.917949 
0.73778 0.0640716 -0.671993 -0.382262 0.142702 -0.912969 -0.222623 0.0306068 -0.974424 
-0.0393212 -0.0501831 -0.997966 0.0747214 -0.107992 -0.99134 0.0469582 -0.0371604 -0.998205 
-0.136154 0.093933 -0.986225 -0.0185705 -0.077247 -0.996839 0.0605254 0.144752 -0.987615 
-0.0418504 -0.114056 -0.992592 -0.050452 -0.0466491 -0.997636 -0.0207232 0.0663002 -0.997585 
0.0540784 0.144884 -0.98797 0.151778 0.241647 -0.958421 0.408694 0.28741 -0.866236 
-0.536101 0.220369 -0.814882 -0.283424 0.142685 -0.948321 -0.126029 0.0328228 -0.991483 
-0.0136097 -0.0579607 -0.998226 0.0157658 -0.124408 -0.992106 0.0206004 -0.0619815 -0.997865 
0.0562839 0.14862 -0.987291 -0.0427375 0.0753954 -0.996237 -0.0740218 0.0641803 -0.995189 
0.0418614 0.129555 -0.990688 0.087485 0.271859 -0.958352 0.172591 0.389344 -0.904778 
0.292766 0.491917 -0.819942 -0.402393 0.286166 -0.869591 -0.232003 0.14214 -0.962274 
-0.0841473 0.0827981 -0.993007 0.0352318 0.0426943 -0.998467 0.139053 0.120796 -0.98289 
0.11386 0.229023 -0.966739 -0.0213757 0.289758 -0.956861 0.0316381 0.406627 -0.913046 
0.194819 0.604315 -0.77256 0.259648 0.766458 -0.587474 -0.329952 0.410443 -0.850099 
-0.113355 0.3178 -0.941357 0.059925 0.285581 -0.956479 0.204334 0.35061 -0.913959 
0.20962 0.400369 -0.892056 -0.230882 0.669071 -0.706426 0.0467172 0.615342 -0.786875 
-0.314265 -0.62466 -0.714869 -0.105463 -0.684399 -0.72144 0.153769 -0.702803 -0.694567 
-0.315679 -0.623631 -0.715144 -0.321161 -0.560237 -0.763538 -0.447876 -0.719294 -0.531058 
0.306131 -0.657571 -0.688392 0.318949 -0.636799 -0.701968 0.372208 -0.729754 -0.573516 
0.309448 -0.720567 -0.620504 0.387756 -0.704406 -0.594523 -0.365573 -0.766354 -0.52826 
-0.18303 -0.456822 -0.870525 -0.189355 -0.739362 -0.646133 -0.052972 -0.490549 -0.869802 
-0.0554032 -0.695554 -0.716334 -0.0980318 -0.534597 -0.839402 -0.0762582 -0.678159 -0.730948 
-0.192276 -0.633875 -0.749155 -0.183236 -0.631193 -0.753671 -0.185546 -0.650537 -0.736461 
0.397714 -0.705731 -0.586317 0.499999 -0.685784 -0.528868 -0.612087 -0.519068 -0.596589 
-0.253465 -0.296505 -0.920783 -0.241317 -0.288894 -0.926448 -0.319437 -0.360577 -0.876324 
0.576876 -0.613495 -0.539295 0.657286 -0.523103 -0.54253 -0.423146 -0.224435 -0.877825 
-0.476629 -0.172098 -0.862095 -0.472853 -0.222752 -0.852521 0.688512 -0.445954 -0.571905 
-0.531277 -0.044829 -0.846011 0.80482 -0.273902 -0.526539 0.775189 -0.0295171 -0.63104 
0.87715 -0.315449 -0.362077 -0.597785 0.131821 -0.790744 -0.593519 0.177533 -0.784995 
0.748805 0.0609963 -0.659977 0.735914 0.0927198 -0.670697 -0.520582 0.251553 -0.815913 
-0.715752 0.31908 -0.621198 0.576478 0.349016 -0.738825 0.46463 0.513103 -0.721695 
0.767899 0.344916 -0.539782 -0.543919 0.228524 -0.807421 -0.550263 0.240554 -0.79959 
0.248893 0.742322 -0.622102 0.425045 0.558673 -0.712195 0.317456 0.614067 -0.722595 
0.490493 0.609136 -0.623193 -0.564689 0.376304 -0.734521 -0.727471 0.502927 -0.466744 
-0.535097 0.471671 -0.700855 0.16882 0.537998 -0.825868 0.223174 0.700828 -0.67752 
0.286601 0.772216 -0.567047 0.263926 0.799676 -0.539316 0.270418 0.810374 -0.519777 
0.191435 0.888317 -0.417427 0.291639 0.884166 -0.364961 -0.526436 0.533633 -0.661892 
-0.645283 0.628037 -0.434948 -0.411681 0.621585 -0.666446 0.253534 0.54409 -0.799804 
0.174117 0.535815 -0.826187 0.238996 0.477568 -0.845464 0.174466 0.54382 -0.820866 
0.338537 0.777249 -0.530355 -0.254295 0.680661 -0.687048 -0.498082 0.814354 -0.297897 
-0.234418 0.680775 -0.693969 0.21503 0.581017 -0.784972 0.0290207 0.691572 -0.721724 
0.255436 0.576282 -0.776306 0.31417 0.684474 -0.65787 -0.464523 -0.781678 -0.416172 
-0.268833 -0.897709 -0.349067 -0.0102458 -0.971205 -0.238027 0.273572 -0.951743 -0.139082 
0.415001 -0.907215 -0.0688066 -0.345448 -0.837203 -0.423978 -0.204196 -0.890948 -0.405605 
-0.0839326 -0.924031 -0.372991 -0.0905813 -0.910101 -0.404365 -0.390844 -0.807242 -0.442269 
-0.260903 -0.86062 -0.437337 -0.332362 -0.940388 -0.0721531 0.457066 -0.888592 -0.0386739 
0.466361 -0.884349 -0.0208444 0.510485 -0.858392 0.0506843 -0.406649 -0.797365 -0.445922 
-0.623698 -0.601296 -0.499443 0.553066 -0.827339 0.0981244 0.516366 -0.723541 0.458099 
0.598909 -0.790569 0.127706 -0.72014 -0.486063 -0.495117 0.683602 -0.716287 0.140079 
0.720007 -0.682608 0.125044 -0.859141 -0.203774 -0.469418 -0.976444 -0.200861 -0.0788147 
0.845356 -0.530156 0.0656307 0.906679 -0.416473 0.0669533 -0.913991 0.0544891 -0.402058 
-0.950229 0.125214 0.285284 0.926766 -0.373099 0.0436134 0.879281 -0.405418 0.250004 
-0.904636 0.241564 -0.351114 0.995318 -0.0766615 -0.0588584 -0.882255 0.351828 -0.312798 
-0.860089 0.447057 -0.245737 0.940935 0.281008 -0.188878 0.81777 0.531581 -0.220622 
-0.856746 0.455899 -0.241129 0.712591 0.65779 -0.243978 0.53435 0.803114 -0.263585 
-0.790717 0.587687 -0.171433 -0.760935 0.631303 -0.149782 0.44941 0.863385 -0.22934 
0.228031 0.957421 -0.177048 0.133773 0.957629 -0.255054 0.336069 0.901027 -0.27424 
0.275402 0.923579 -0.266751 -0.704117 0.693893 -0.150768 -0.667914 0.731291 -0.138215 
0.409675 0.786825 -0.461598 0.476327 0.841985 -0.253326 0.515468 0.796779 -0.315336 
-0.552352 0.820598 -0.146717 -0.51665 0.842447 -0.152827 -0.279687 0.930872 -0.235059 
-0.0763263 0.941051 -0.329542 0.175299 0.895449 -0.409197 0.409429 0.78687 -0.461739 
0.342033 0.803117 -0.48787 0.410409 0.787805 -0.45927 -0.337857 -0.940468 -0.0370514 
-0.404857 -0.914266 0.0144606 -0.207102 -0.972313 0.10824 0.111209 -0.970751 0.212781 
0.367138 -0.861942 0.349665 0.452814 -0.801242 0.391114 -0.372926 -0.921577 0.107805 
-0.155259 -0.978754 0.133919 -0.110646 -0.99072 0.0789448 -0.314002 -0.949008 -0.0280517 
-0.179023 -0.983214 0.0352371 -0.344686 -0.938169 0.0321032 0.368305 -0.603824 0.706929 
0.463654 -0.782221 0.41612 0.449572 -0.752298 0.481594 0.485244 -0.714911 0.503429 
-0.511698 -0.845759 0.151182 -0.614528 -0.769545 0.173658 -0.352181 -0.69359 0.628412 
-0.184009 -0.660206 0.728196 0.495792 -0.665472 0.557977 0.451675 -0.585468 0.673214 
0.492043 -0.647995 0.581374 0.516202 -0.593203 0.617775 -0.869034 -0.450264 0.205041 
-0.943054 -0.222091 0.24764 -0.516816 -0.440036 0.73435 0.411338 -0.463662 0.784741 
0.523064 -0.585688 0.619172 0.506806 -0.571774 0.645153 0.581061 -0.565462 0.585338 
-0.955175 -0.180335 0.234776 -0.936713 -0.181702 0.299255 0.395507 -0.44062 0.805871 
0.600074 -0.548567 0.582225 0.562937 -0.541612 0.624306 -0.949017 0.125453 0.289185 
-0.948984 0.125745 0.289166 -0.948929 0.125433 0.289484 0.761456 -0.411751 0.500645 
0.494873 -0.369848 0.786329 0.828173 -0.294689 0.476747 -0.934745 0.255563 0.246858 
0.868879 -0.182885 0.460002 0.81543 -0.193403 0.54559 -0.875245 0.409259 0.257786 
-0.823834 0.489968 0.285007 -0.686112 0.37484 0.623494 0.921416 0.181986 0.343327 
0.85768 0.387381 0.338113 0.848986 0.164397 0.502192 -0.810182 0.502023 0.302618 
-0.532453 0.352919 0.769378 0.755011 0.594779 0.276038 0.598318 0.78234 0.173087 
-0.724185 0.610197 0.321272 -0.705059 0.630275 0.325032 -0.681551 0.586075 0.438184 
0.48051 0.870572 -0.105897 0.276324 0.95506 -0.107263 0.171915 0.984974 0.0164519 
0.413596 0.903046 0.115957 0.308036 0.947222 0.0887973 0.379896 0.833023 0.402184 
-0.638649 0.691311 0.337959 -0.622726 0.701873 0.345813 -0.595236 0.665548 0.450267 
0.496369 0.862098 -0.102007 0.59633 0.800631 -0.0581502 0.456671 0.876166 0.154223 
-0.585389 0.751147 0.30512 -0.58048 0.75542 0.303946 -0.580423 0.746485 0.325375 
-0.393992 0.888964 0.233481 -0.390984 0.587218 0.708735 -0.165995 0.977956 0.126681 
0.0963872 0.991029 0.0925752 0.307453 0.951134 0.0285756 0.55178 0.833248 -0.0351627 
0.461042 0.887319 -0.0102471 -0.263192 -0.799334 0.54018 -0.0410778 -0.744668 0.666169 
0.207495 -0.633921 0.745044 -0.167219 -0.722577 0.670761 -0.191928 -0.709272 0.678304 
-0.323454 -0.778706 0.537582 -0.339573 -0.738556 0.58243 -0.244286 -0.67135 0.699724 
0.0245568 -0.534182 0.845013 0.314322 -0.547026 0.775864 0.223249 -0.480278 0.848229 
0.33159 -0.51122 0.792907 0.349411 -0.469661 0.810759 -0.310241 -0.533221 0.787036 
-0.181787 -0.629001 0.755851 -0.18509 -0.597147 0.780485 -0.151749 -0.593007 0.790769 
-0.161886 -0.509953 0.844832 -0.205439 -0.368357 0.906702 -0.0744367 -0.204546 0.976023 
0.0774612 -0.158587 0.984302 0.16318 -0.194011 0.967332 0.234987 -0.333853 0.912865 
0.353651 -0.462902 0.812805 0.33552 -0.447143 0.82915 0.37822 -0.380815 0.843759 
-0.435667 -0.39918 0.806752 -0.487835 -0.366747 0.792158 -0.286305 -0.345812 0.893557 
-0.167022 -0.268709 0.94863 -0.0901474 -0.211398 0.973234 -0.0112418 -0.14203 0.989798 
-0.0815546 -0.0609556 0.994803 -0.0464314 -0.0103997 0.998867 0.0646152 -0.0400626 0.997106 
0.0810446 -0.0786341 0.993604 0.102401 -0.206135 0.973151 0.242268 -0.264759 0.933386 
0.372898 -0.365276 0.852948 0.361703 -0.338362 0.868724 0.32354 -0.361558 0.874413 
-0.577605 -0.159929 0.800497 -0.473601 -0.150503 0.867785 -0.229415 -0.0557125 0.971733 
-0.043812 -0.118032 0.992043 -0.011793 -0.0207249 0.999716 0.00527676 -0.0235412 0.999709 
-0.0649993 -0.0502893 0.996617 -0.0526514 -0.0840273 0.995071 0.0128252 -0.0134595 0.999827 
-0.0098662 -0.184819 0.982723 0.054211 -0.147812 0.987529 0.211544 -0.109827 0.971178 
0.264161 -0.226197 0.937579 0.323606 -0.360962 0.874634 0.296598 -0.337668 0.893314 
0.333598 -0.381266 0.862176 -0.612874 0.0757887 0.786538 -0.492353 0.0642994 0.868017 
-0.236599 0.0752356 0.96869 -0.136524 -0.0267327 0.990276 0.00161893 -0.0272722 0.999627 
-0.03812 -0.0376625 0.998563 -0.154614 -0.105993 0.982273 -0.000599818 -0.0545074 0.998513 
-0.038171 0.0447488 0.998269 0.180557 0.0348089 0.982948 0.162065 -0.0328285 0.986234 
0.129296 -0.190252 0.973184 0.196225 -0.289996 0.936695 0.353705 -0.362771 0.862143 
0.297827 -0.354477 0.886366 0.505609 -0.1962 0.840158 -0.564633 0.219599 0.795591 
-0.555312 0.256768 0.791011 -0.513006 0.208053 0.83279 -0.285964 0.0702101 0.955665 
-0.166349 0.0225975 0.985808 -0.0220861 -0.0220851 0.999512 -0.064279 -0.0577686 0.996258 
-0.0817131 0.0534876 0.99522 0.0915516 0.129394 0.987358 -0.128158 -0.1913 0.973129 
0.206217 0.0815531 0.975102 -0.0127765 -0.063744 0.997885 0.0151119 -0.130943 0.991275 
0.135164 -0.179297 0.974466 0.299281 -0.18647 0.935767 0.513943 -0.18351 0.837966 
0.507426 -0.183211 0.841994 -0.51896 0.3024 0.799522 -0.498103 0.324774 0.803999 
-0.401959 0.208699 0.891557 -0.200363 0.133579 0.970573 -0.0774797 0.0526202 0.995604 
0.0250142 0.00454883 0.999677 0.0339241 0.0866663 0.99566 -0.222197 0.0526146 0.973581 
0.0876397 -0.116341 0.989335 -0.0472819 -0.130206 0.990359 0.00569395 -0.0945852 0.995501 
0.129938 -0.0702788 0.989028 0.272403 0.00724014 0.962156 0.552068 0.0269933 0.833362 
0.474449 0.00481736 0.88027 -0.495254 0.329952 0.803651 -0.300144 0.232007 0.925249 
-0.144819 0.15664 0.976981 -0.0292091 0.0875868 0.995729 -0.0262744 -0.0106823 0.999598 
-0.115004 -0.0480416 0.992203 -0.0762452 0.173739 0.981836 -0.0200228 0.0735952 0.997087 
-0.0285024 -0.103221 0.99425 0.0188308 -0.0663644 0.997618 0.0711631 0.103412 0.99209 
0.227023 0.217329 0.949331 0.401927 0.688093 0.604138 0.387756 0.297733 0.872353 
0.580423 0.400353 0.709102 0.576644 0.408969 0.707267 0.574302 0.399163 0.714735 
-0.441233 0.432283 0.786412 -0.431813 0.444107 0.785052 -0.415096 0.417938 0.808099 
-0.234924 0.290489 0.927592 -0.144619 0.148195 0.978327 -0.103431 0.0165759 0.994498 
-0.0458294 -0.000850001 0.998949 -0.0197323 0.0908627 0.995668 -0.0700932 0.125559 0.989607 
-0.0457918 0.188072 0.981087 0.158953 0.252026 0.954577 0.377134 0.869921 0.317816 
0.320156 0.5542 0.768351 0.374764 0.765009 0.523749 0.344353 0.814464 0.466979 
0.334681 0.751071 0.569106 -0.394679 0.443786 0.804538 -0.394563 0.444818 0.804025 
-0.390825 0.439295 0.808873 -0.384447 0.556419 0.736613 -0.317181 0.272177 0.908469 
-0.166868 0.200627 0.965352 -0.0415193 0.189651 0.980973 0.0568053 0.214082 0.975163 
0.0972994 0.366694 0.92524 0.403226 0.817102 0.412012 0.212859 0.64723 0.731973 
0.439473 0.86877 0.228261 0.442847 0.866861 0.228996 0.43904 0.864211 0.24573 
-0.366227 0.574459 0.732034 -0.198795 0.640398 0.74187 -0.169691 0.519232 0.837618 
0.0244051 0.698864 0.714838 -0.0300585 0.514892 0.856728 0.196946 0.753712 0.627001 
0.153503 0.586003 0.795636 0.358575 0.748279 0.558124 0.356157 0.747048 0.561312 
0.354128 0.742957 0.567986 -0.0455268 -0.194529 0.97984 -0.0502543 -0.149576 0.987472 
0.0362744 -0.110105 0.993258 -0.0534074 -0.193639 0.979618 -0.0537927 -0.0585302 0.996835 
-0.150752 -0.142986 0.978176 0.081557 0.0405516 0.995843 -0.00202429 0.0111249 0.999936 
-0.187074 -0.0394497 0.981553 -0.098723 0.0972633 0.99035 -0.15059 -0.0934811 0.984167 
0.208689 0.10417 0.972418 0.17083 0.113395 0.978754 0.217094 0.121485 0.968562 

