# vtk DataFile Version 4.2
vtk output
ASCII
DATASET POLYDATA
POINTS 554 float
-17.7488 -43.3762 -14.2004 -9.40239 -43.3762 -13.8839 -26.0952 -35.0298 -17.0577 
-17.7488 -35.0298 -17.9342 -9.40239 -35.0298 -16.5795 -1.05597 -35.0298 -15.1257 
7.29045 -35.0298 -14.3984 15.6369 -35.0298 -14.9802 23.9833 -35.0298 -14.5784 
-42.7881 -26.6833 -15.2245 -34.4416 -26.6833 -18.4504 -26.0952 -26.6833 -20.4162 
-17.7488 -26.6833 -19.813 -9.40239 -26.6833 -18.2985 -1.05597 -26.6833 -15.9292 
7.29045 -26.6833 -15.9029 15.6369 -26.6833 -17.1381 23.9833 -26.6833 -16.4708 
32.3297 -26.6833 -14.5385 -51.1345 -18.3369 -15.554 -42.7881 -18.3369 -19.5887 
-34.4416 -18.3369 -20.7513 -26.0952 -18.3369 -20.9734 -17.7488 -18.3369 -20.02 
-9.40239 -18.3369 -18.1243 -1.05597 -18.3369 -16.0967 7.29045 -18.3369 -16.036 
15.6369 -18.3369 -16.5472 23.9833 -18.3369 -16.8904 32.3297 -18.3369 -16.6744 
40.6761 -18.3369 -14.395 -51.1345 -9.9905 -17.5818 -42.7881 -9.9905 -19.8028 
-34.4416 -9.9905 -20.4604 -26.0952 -9.9905 -20.0611 -17.7488 -9.9905 -19.4608 
-9.40239 -9.9905 -17.7107 -1.05597 -9.9905 -18.1749 7.29045 -9.9905 -17.0554 
15.6369 -9.9905 -16.352 23.9833 -9.9905 -17.3306 32.3297 -9.9905 -17.0247 
40.6761 -9.9905 -15.8196 -59.4809 -1.64409 -15.2411 -51.1345 -1.64409 -18.6298 
-42.7881 -1.64409 -19.7175 -34.4416 -1.64409 -19.757 -26.0952 -1.64409 -19.0001 
-17.7488 -1.64409 -18.9331 -9.40239 -1.64409 -21.4865 -1.05597 -1.64409 -15.3983 
7.29045 -1.64409 -19.4246 15.6369 -1.64409 -19.4251 23.9833 -1.64409 -17.3252 
32.3297 -1.64409 -17.7772 40.6761 -1.64409 -17.3302 49.0225 -1.64409 -15.841 
-59.4809 6.70233 -15.0538 -51.1345 6.70233 -18.2908 -42.7881 6.70233 -19.5425 
-34.4416 6.70233 -19.3629 -26.0952 6.70233 -18.5337 -17.7488 6.70233 -18.0637 
-9.40239 6.70233 -21.0209 -1.05597 6.70233 -17.5875 7.29045 6.70233 -20.1479 
15.6369 6.70233 -17.7193 23.9833 6.70233 -17.1905 32.3297 6.70233 -18.444 
40.6761 6.70233 -17.9995 49.0225 6.70233 -17.3034 57.3689 6.70233 -16.2551 
65.7154 6.70233 -14.0413 -59.4809 15.0487 -14.0243 -51.1345 15.0487 -17.7646 
-42.7881 15.0487 -19.8051 -34.4416 15.0487 -20.9249 -26.0952 15.0487 -19.8317 
-17.7488 15.0487 -19.126 -9.40239 15.0487 -18.4656 -1.05597 15.0487 -18.56 
7.29045 15.0487 -17.1562 15.6369 15.0487 -16.2186 23.9833 15.0487 -17.4271 
32.3297 15.0487 -18.561 40.6761 15.0487 -18.9155 49.0225 15.0487 -17.8575 
57.3689 15.0487 -15.4298 -51.1345 23.3952 -17.0948 -42.7881 23.3952 -19.3968 
-34.4416 23.3952 -19.8402 -26.0952 23.3952 -19.9523 -17.7488 23.3952 -19.888 
-9.40239 23.3952 -18.9389 -1.05597 23.3952 -18.2959 7.29045 23.3952 -16.7432 
15.6369 23.3952 -16.163 23.9833 23.3952 -17.529 32.3297 23.3952 -17.7521 
40.6761 23.3952 -18.7451 49.0225 23.3952 -17.4751 57.3689 23.3952 -14.4153 
-42.7881 31.7416 -16.8519 -34.4416 31.7416 -18.5673 -26.0952 31.7416 -18.8935 
-17.7488 31.7416 -18.872 -9.40239 31.7416 -17.9115 -1.05597 31.7416 -16.6381 
7.29045 31.7416 -14.9137 15.6369 31.7416 -14.5181 23.9833 31.7416 -14.8574 
32.3297 31.7416 -15.1197 40.6761 31.7416 -15.9263 -26.0952 40.088 -14.2002 
-17.7488 -43.8398 -13.8019 -9.40239 -43.4827 -13.8019 -19.0666 -43.3762 -13.8019 
-26.0952 -40.0797 -13.8019 -26.0952 -43.3762 -9.66641 -9.06129 -43.3762 -13.8019 
-1.05597 -38.5743 -13.8019 -1.05597 -43.3762 -11.5452 7.29045 -36.5702 -13.8019 
7.29045 -43.3762 -10.5005 15.6369 -37.5059 -13.8019 15.6369 -43.3762 -10.4597 
23.9833 -36.4914 -13.8019 23.9833 -43.3762 -8.80413 -42.7881 -28.3158 -13.8019 
-33.3458 -35.0298 -13.8019 -34.4416 -34.2503 -13.8019 -34.4416 -35.0298 -12.7034 
26.5034 -35.0298 -13.8019 32.3297 -29.0946 -13.8019 32.3297 -35.0298 -11.4573 
-44.9177 -26.6833 -13.8019 -51.1345 -20.9858 -13.8019 34.1446 -26.6833 -13.8019 
40.6761 -19.9978 -13.8019 40.6761 -26.6833 -10.4815 -54.1025 -18.3369 -13.8019 
41.9037 -18.3369 -13.8019 49.0225 -18.3369 -9.30703 -58.2346 -9.9905 -13.8019 
-59.4809 -6.90891 -13.8019 -59.4809 -9.9905 -12.8389 48.1246 -9.9905 -13.8019 
49.0225 -9.12021 -13.8019 49.0225 -9.9905 -13.5353 57.3689 -9.9905 -9.39437 
-61.2521 -1.64409 -13.8019 55.1661 -1.64409 -13.8019 57.3689 0.447019 -13.8019 
57.3689 -1.64409 -13.0179 65.7154 6.22357 -13.8019 65.7154 -1.64409 -8.12113 
-61.1095 6.70233 -13.8019 66.0537 6.70233 -13.8019 65.7154 8.26438 -13.8019 
-59.7868 15.0487 -13.8019 -59.4809 18.2591 -13.8019 61.893 15.0487 -13.8019 
65.7154 15.0487 -11.6975 -58.8426 23.3952 -13.8019 -59.4809 23.3952 -13.259 
-51.1345 30.0165 -13.8019 49.0225 31.4313 -13.8019 58.889 23.3952 -13.8019 
57.3689 26.0934 -13.8019 65.7154 23.3952 -9.88495 -49.2218 31.7416 -13.8019 
-51.1345 31.7416 -12.3462 -42.7881 35.8844 -13.8019 -34.4416 38.483 -13.8019 
-17.7488 39.9684 -13.8019 -9.40239 38.6121 -13.8019 -1.05597 36.2525 -13.8019 
7.29045 33.5991 -13.8019 15.6369 32.8806 -13.8019 23.9833 32.9959 -13.8019 
32.3297 33.5668 -13.8019 48.4509 31.7416 -13.8019 40.6761 34.8347 -13.8019 
49.0225 31.7416 -13.5403 57.3689 31.7416 -11.3615 -42.7881 40.088 -7.21017 
-28.1718 40.088 -13.8019 -34.4416 40.088 -11.576 -19.1464 40.088 -13.8019 
-26.0952 40.4604 -13.8019 -17.7488 40.088 -13.6449 -9.40239 40.088 -11.5014 
-1.05597 40.088 -7.97048 -26.0952 -45.5249 -5.45546 -17.7488 -49.1555 -5.45546 
-9.40239 -50.7002 -5.45546 -9.40239 -51.7226 2.73661 -1.05597 -49.7396 -5.45546 
-1.05597 -51.7226 2.62406 7.29045 -48.6776 -5.45546 15.6369 -48.1184 -5.45546 
23.9833 -45.9794 -5.45546 -28.9183 -43.3762 -5.45546 -34.4416 -38.6524 -5.45546 
29.6371 -43.3762 -5.45546 32.3297 -41.6857 -5.45546 -38.9551 -35.0298 -5.45546 
-42.7881 -32.3571 -5.45546 39.7057 -35.0298 -5.45546 40.6761 -33.9274 -5.45546 
40.6761 -35.0298 -0.539258 -50.3814 -26.6833 -5.45546 -51.1345 -26.0711 -5.45546 
47.0218 -26.6833 -5.45546 49.0225 -24.3563 -5.45546 49.0225 -26.6833 -0.868244 
-59.4103 -18.3369 -5.45546 -59.4809 -18.24 -5.45546 54.2193 -18.3369 -5.45546 
57.3689 -14.8581 -5.45546 57.3689 -18.3369 1.18369 -64.6307 -9.9905 -5.45546 
61.3197 -9.9905 -5.45546 65.7154 -5.25018 -5.45546 -67.4262 -1.64409 -5.45546 
67.99 -1.64409 -5.45546 -67.6096 6.70233 -5.45546 72.1977 6.70233 -5.45546 
-66.5336 15.0487 -5.45546 70.4357 15.0487 -5.45546 -63.5269 23.3952 -5.45546 
-59.4809 29.1342 -5.45546 68.8732 23.3952 -5.45546 65.7154 27.5433 -5.45546 
-56.9367 31.7416 -5.45546 -51.1345 36.4998 -5.45546 7.29045 39.8702 -5.45546 
15.6369 39.0544 -5.45546 23.9833 39.2103 -5.45546 32.3297 39.7276 -5.45546 
40.6761 38.2781 -5.45546 49.0225 37.1279 -5.45546 61.5121 31.7416 -5.45546 
57.3689 34.3773 -5.45546 -44.4815 40.088 -5.45546 -42.7881 40.9243 -5.45546 
-34.4416 42.7535 -5.45546 -26.0952 43.793 -5.45546 -17.7488 43.6568 -5.45546 
-9.40239 42.4279 -5.45546 5.83615 40.088 -5.45546 -1.05597 41.0957 -5.45546 
-1.05597 40.088 -0.389287 -9.40239 -51.7391 2.89096 -1.05597 -51.7737 2.89096 
-26.0952 -45.5027 2.89096 -9.47042 -51.7226 2.89096 -17.7488 -49.545 2.89096 
-9.40239 -51.7226 2.93948 -0.218895 -51.7226 2.89096 -1.05597 -51.7226 3.09953 
7.29045 -51.2605 2.89096 15.6369 -50.33 2.89096 23.9833 -47.7053 2.89096 
-28.7959 -43.3762 2.89096 -34.4416 -37.9195 2.89096 -26.0952 -43.3762 7.30455 
31.8002 -43.3762 2.89096 32.3297 -43.0205 2.89096 40.6761 -35.56 2.89096 
-38.0015 -35.0298 2.89096 -42.7881 -31.6694 2.89096 -34.4416 -35.0298 8.53385 
41.235 -35.0298 2.89096 40.6761 -35.0298 4.56493 49.0225 -27.9242 2.89096 
-49.318 -26.6833 2.89096 -51.1345 -25.239 2.89096 -42.7881 -26.6833 11.0124 
50.2887 -26.6833 2.89096 49.0225 -26.6833 7.38351 57.3689 -19.0118 2.89096 
-58.2165 -18.3369 2.89096 -59.4809 -16.6845 2.89096 -51.1345 -18.3369 11.2357 
58.0063 -18.3369 2.89096 57.3689 -18.3369 4.79952 -63.8287 -9.9905 2.89096 
-59.4809 -9.9905 9.72968 64.7557 -9.9905 2.89096 65.7154 -8.5409 2.89096 
-66.4218 -1.64409 2.89096 69.6972 -1.64409 2.89096 65.7154 -1.64409 10.5757 
-67.0563 6.70233 2.89096 72.189 6.70233 2.89096 -66.2991 15.0487 2.89096 
71.5544 15.0487 2.89096 65.7154 15.0487 11.0077 -63.141 23.3952 2.89096 
-59.4809 28.5198 2.89096 -59.4809 23.3952 9.50926 68.6039 23.3952 2.89096 
65.7154 26.3133 2.89096 65.7154 23.3952 5.87065 -56.5661 31.7416 2.89096 
-51.1345 36.2418 2.89096 -1.05597 39.3682 2.89096 7.29045 38.695 2.89096 
15.6369 37.8183 2.89096 23.9833 36.697 2.89096 23.9833 31.7416 10.2055 
32.3297 36.3639 2.89096 32.3297 31.7416 8.69034 40.6761 35.9041 2.89096 
40.6761 31.7416 8.41821 49.0225 35.0115 2.89096 49.0225 31.7416 7.38982 
59.6917 31.7416 2.89096 57.3689 33.5039 2.89096 57.3689 31.7416 5.04782 
-43.4536 40.088 2.89096 -42.7881 40.4171 2.89096 -42.7881 40.088 3.66477 
-34.4416 42.1231 2.89096 -34.4416 40.088 8.48856 -26.0952 42.7235 2.89096 
-26.0952 40.088 10.3844 -17.7488 42.2583 2.89096 -17.7488 40.088 7.80514 
-5.45505 40.088 2.89096 -9.40239 40.688 2.89096 -9.40239 40.088 4.11676 
-17.7488 -45.419 11.2374 -9.40239 -48.1391 11.2374 -1.05597 -49.1603 11.2374 
7.29045 -49.026 11.2374 15.6369 -47.487 11.2374 23.9833 -44.1626 11.2374 
-21.4918 -43.3762 11.2374 -26.0952 -40.5018 11.2374 -17.7488 -43.3762 13.052 
-9.40239 -43.3762 15.6152 -1.05597 -43.3762 16.6744 7.29045 -43.3762 16.7092 
15.6369 -43.3762 15.283 25.5303 -43.3762 11.2374 23.9833 -43.3762 12.0385 
32.3297 -39.1509 11.2374 -32.4536 -35.0298 11.2374 -34.4416 -33.2942 11.2374 
-26.0952 -35.0298 15.2753 -17.7488 -35.0298 17.7704 -9.40239 -35.0298 19.2382 
-1.05597 -35.0298 19.3819 15.6369 -35.0298 19.3676 23.9833 -35.0298 17.5175 
37.4815 -35.0298 11.2374 32.3297 -35.0298 14.3989 40.6761 -32.2975 11.2374 
-42.5427 -26.6833 11.2374 -42.7881 -26.4578 11.2374 -34.4416 -26.6833 15.919 
-26.0952 -26.6833 18.4622 32.3297 -26.6833 18.1994 47.3272 -26.6833 11.2374 
40.6761 -26.6833 15.0971 49.0225 -24.9491 11.2374 -51.1322 -18.3369 11.2374 
-51.1345 -18.3342 11.2374 -42.7881 -18.3369 16.1016 -34.4416 -18.3369 18.6499 
-1.05597 -18.3369 19.2299 7.29045 -18.3369 19.4593 40.6761 -18.3369 18.8066 
54.5597 -18.3369 11.2374 49.0225 -18.3369 14.8185 57.3689 -14.6661 11.2374 
-57.7892 -9.9905 11.2374 -59.4809 -6.86786 11.2374 -51.1345 -9.9905 15.4126 
[...]
POINT_DATA 554
SCALARS ImageScalars float
LOOKUP_TABLE default
0 0 0 0 0 0 0 0 0 
0 0 0 0 0 0 0 0 0 
0 0 0 0 0 0 0 0 0 
0 0 0 0 0 0 0 0 0 
0 0 0 0 0 0 0 0 0 
0 0 0 0 0 0 0 0 0 
0 0 0 0 0 0 0 0 0 
0 0 0 0 0 0 0 0 0 
0 0 0 0 0 0 0 0 0 
0 0 0 0 0 0 0 0 0 
0 0 0 0 0 0 0 0 0 
0 0 0 0 0 0 0 0 0 
0 0 0 0 0 0 0 0 0 
0 0 0 0 0 0 0 0 0 
0 0 0 0 0 0 0 0 0 
0 0 0 0 0 0 0 0 0 
0 0 0 0 0 0 0 0 0 
0 0 0 0 0 0 0 0 0 
0 0 0 0 0 0 0 0 0 
0 0 0 0 0 0 0 0 0 
0 0 0 0 0 0 0 0 0 
0 0 0 0 0 0 0 0 0 
0 0 0 0 0 0 0 0 0 
0 0 0 0 0 0 0 0 0 
0 0 0 0 0 0 0 0 0 
0 0 0 0 0 0 0 0 0 
0 0 0 0 0 0 0 0 0 
0 0 0 0 0 0 0 0 0 
0 0 0 0 0 0 0 0 0 
0 0 0 0 0 0 0 0 0 
0 0 0 0 0 0 0 0 0 
0 0 0 0 0 0 0 0 0 
0 0 0 0 0 0 0 0 0 
0 0 0 0 0 0 0 0 0 
0 0 0 0 0 0 0 0 0 
0 0 0 0 0 0 0 0 0 
0 0 0 0 0 0 0 0 0 
0 0 0 0 0 0 0 0 0 
0 0 0 0 0 0 0 0 0 
0 0 0 0 0 0 0 0 0 
0 0 0 0 0 0 0 0 0 
0 0 0 0 0 0 0 0 0 
0 0 0 0 0 0 0 0 0 
0 0 0 0 0 0 0 0 0 
0 0 0 0 0 0 0 0 0 
0 0 0 0 0 0 0 0 0 
0 0 0 0 0 0 0 0 0 
0 0 0 0 0 0 0 0 0 
0 0 0 0 0 0 0 0 0 
0 0 0 0 0 0 0 0 0 
0 0 0 0 0 0 0 0 0 
0 0 0 0 0 0 0 0 0 
0 0 0 0 0 0 0 0 0 
0 0 0 0 0 0 0 0 0 
0 0 0 0 0 0 0 0 0 
0 0 0 0 0 0 0 0 0 
0 0 0 0 0 0 0 0 0 
0 0 0 0 0 0 0 0 0 
0 0 0 0 0 0 0 0 0 
0 0 0 0 0 0 0 0 0 
0 0 0 0 0 0 0 0 0 
0 0 0 0 0 
NORMALS Normals float
0.11871 0.61608 0.778687 -0.132372 0.522165 0.842509 0.229901 0.477358 0.8481 
-0.030792 0.314967 0.948603 -0.166363 0.248406 0.954263 -0.12541 0.230349 0.964993 
-0.0131377 0.282769 0.959098 0.0140016 0.350735 0.93637 -0.165942 0.355379 0.919874 
0.445356 0.560938 0.697859 0.280826 0.376153 0.882976 0.0701776 0.208161 0.975574 
-0.116515 0.118241 0.986125 -0.237225 0.0900782 0.96727 -0.130969 0.059875 0.989577 
0.0710771 0.100115 0.992434 0.035397 0.0858107 0.995682 -0.141106 0.126242 0.981912 
-0.297248 0.281334 0.912412 0.461127 0.391588 0.796254 0.287453 0.228859 0.930051 
0.0729851 0.112795 0.990934 -0.0436679 -0.0227672 0.998787 -0.160414 -0.0211193 0.986824 
-0.237614 -0.0339389 0.970767 -0.115416 0.120342 0.986 0.0246217 0.0590432 0.997952 
0.053079 -0.0473689 0.997466 0.00512694 0.0508895 0.998691 -0.146444 0.133567 0.98016 
-0.378049 0.249351 0.891573 0.334509 0.167853 0.927324 0.163233 0.0053509 0.986573 
0.0144278 -0.0584337 0.998187 -0.0602814 -0.118662 0.991103 -0.135189 -0.0625132 0.988846 
-0.0841419 0.184373 0.979248 -0.0322225 1.25036e-05 0.999481 -0.108973 0.197338 0.97426 
0.0240882 0.154234 0.987741 0.0370954 0.026044 0.998972 -0.0865284 0.0673021 0.993973 
-0.19438 0.181514 0.963986 0.543784 0.101082 0.833115 0.221025 0.0407558 0.974416 
0.0630996 -0.0155819 0.997886 -0.0427974 -0.0655887 0.996929 -0.0489865 -0.0910701 0.994639 
0.142313 -0.0913756 0.985595 -0.134348 0.207886 0.968883 -0.157523 -0.0364353 0.986843 
0.201591 0.178227 0.963118 -0.137618 0.105916 0.984806 -0.0819412 -0.00784557 0.996606 
-0.000416698 0.0853382 0.996352 -0.111137 0.123468 0.986106 -0.239191 0.200887 0.949964 
0.521906 -0.0586088 0.850987 0.227202 -0.049047 0.972612 0.0588879 0.00696866 0.99824 
-0.0606102 0.0606686 0.996316 -0.0794577 0.0510022 0.995533 0.127931 0.0149505 0.99167 
-0.0121743 -0.195306 0.980667 -0.0370722 0.17689 0.983532 0.0330255 -0.141809 0.989343 
-0.185154 -0.204025 0.961297 0.0526039 0.00626673 0.998596 0.0443771 0.0476034 0.99788 
-0.0668301 0.10334 0.992398 -0.0966007 0.116138 0.988524 -0.23822 0.147386 0.959963 
-0.513941 0.193484 0.835721 0.552514 -0.0870347 0.828947 0.30546 -0.0691416 0.949691 
0.164695 -0.00645078 0.986324 0.00882835 0.0315483 0.999463 -0.100181 0.0842286 0.991398 
-0.0820503 0.108914 0.990659 -0.0339532 -0.0999107 0.994417 -0.0708076 0.0376409 0.99678 
-0.145121 -0.193787 0.970251 0.0211745 -0.0717839 0.997195 0.139313 0.0189415 0.990067 
0.09157 -0.0405456 0.994973 -0.0345218 0.0425472 0.998498 -0.205505 0.00668883 0.978633 
-0.333491 -0.0993969 0.937499 0.338436 -0.23522 0.911116 0.167439 -0.17474 0.970273 
0.0314028 -0.125342 0.991616 0.0027884 -0.0567786 0.998383 -0.0612979 -0.00836859 0.998084 
-0.0935113 -0.0314823 0.99512 -0.129185 -0.110456 0.985449 -0.127074 -0.121982 0.984364 
0.0444903 -0.0984634 0.994146 0.0979171 -0.116107 0.988398 0.0671033 -0.177539 0.981823 
-0.0293065 -0.197631 0.979838 -0.208382 -0.172656 0.962687 -0.402028 -0.163416 0.900927 
0.282496 -0.451314 0.84647 0.116942 -0.356517 0.926941 0.0159065 -0.295598 0.95518 
-0.0617936 -0.310425 0.948587 -0.127526 -0.294041 0.947247 -0.171723 -0.360372 0.916866 
-0.12748 -0.38617 0.913576 -0.00647533 -0.411341 0.911459 0.0360659 -0.516626 0.855451 
0.0668178 -0.47533 0.877267 -0.0586787 -0.489997 0.869747 0.0584231 -0.758377 0.649193 
0.124059 0.637941 0.760027 -0.13097 0.526765 0.839861 0.167355 0.636802 0.752646 
0.349788 0.626696 0.696348 0.476518 0.762646 0.43738 -0.133418 0.521344 0.842852 
-0.139745 0.339172 0.930287 -0.157363 0.534474 0.830406 -0.0218811 0.323445 0.945994 
-0.0556706 0.573817 0.817089 -0.00744219 0.410847 0.911674 -0.073002 0.630937 0.772392 
-0.168258 0.413002 0.895052 -0.259342 0.760288 0.59557 0.481362 0.617626 0.621956 
0.457966 0.632832 0.624332 0.470414 0.630081 0.617825 0.506836 0.671176 0.540962 
-0.220096 0.371078 0.902142 -0.318094 0.313951 0.894567 -0.420809 0.453564 0.78562 
0.488943 0.603815 0.629556 0.500228 0.508456 0.700888 -0.342261 0.301064 0.890066 
-0.404862 0.272779 0.872742 -0.536569 0.417562 0.733305 0.550996 0.433298 0.713202 
-0.400892 0.275629 0.873679 -0.526369 0.460261 0.714909 0.589725 0.240351 0.771009 
0.606781 0.200372 0.769199 0.66306 0.27746 0.695247 -0.283583 0.31996 0.903995 
-0.287973 0.322824 0.901585 -0.297226 0.339498 0.892411 -0.546652 0.480485 0.685788 
0.615624 0.114382 0.779695 -0.346356 0.268299 0.898918 -0.34321 0.256192 0.903644 
-0.39146 0.300643 0.869697 -0.52272 0.215394 0.824845 -0.694497 0.447169 0.563661 
0.590834 -0.0523534 0.805093 -0.531741 0.198144 0.823402 -0.532027 0.135376 0.835835 
0.562704 -0.0897494 0.821772 0.592109 -0.176122 0.786376 -0.460972 -0.131993 0.877544 
-0.631882 -0.15199 0.760016 0.614814 -0.300053 0.729364 0.652302 -0.3143 0.689723 
0.455397 -0.514286 0.726721 -0.224714 -0.609314 0.760421 -0.446562 -0.189394 0.874478 
-0.412971 -0.278929 0.866979 -0.725502 -0.381219 0.572992 0.442062 -0.554095 0.705379 
0.504592 -0.607042 0.613911 0.316136 -0.636988 0.703068 0.192464 -0.708196 0.679276 
-0.0788853 -0.759162 0.646104 -0.144391 -0.731936 0.665899 -0.184495 -0.629285 0.754958 
-0.131291 -0.490956 0.861234 -0.0199067 -0.474609 0.879972 0.0275157 -0.577381 0.816011 
0.0826465 -0.572927 0.815429 -0.212961 -0.618139 0.756672 -0.0746885 -0.675964 0.73314 
-0.226664 -0.637799 0.736095 -0.448071 -0.645814 0.618188 0.349627 -0.894487 0.278666 
0.0933613 -0.767461 0.634261 0.194533 -0.836659 0.512013 -0.0550736 -0.765594 0.640962 
0.0581275 -0.776428 0.627519 -0.0790772 -0.770595 0.6324 -0.15222 -0.875373 0.458859 
-0.160095 -0.956125 0.245346 0.523222 0.826187 0.208933 0.276738 0.922557 0.268894 
0.0400495 0.917035 0.396791 0.120692 0.986985 -0.106272 -0.10318 0.871696 0.479062 
-0.0305053 0.999447 -0.0132244 -0.0822276 0.83923 0.537523 -0.147044 0.859555 0.489431 
-0.313388 0.850454 0.422511 0.576433 0.794856 0.18955 0.625366 0.7685 0.135369 
-0.479611 0.798386 0.364077 -0.56094 0.748816 0.353016 0.580813 0.803762 0.12893 
0.559091 0.81849 0.132255 -0.683482 0.643679 0.344281 -0.687486 0.632412 0.356957 
-0.702204 0.70575 0.0939454 0.603366 0.785922 0.135186 0.611353 0.77907 0.138917 
-0.648163 0.580315 0.493071 -0.635073 0.577946 0.512505 -0.698492 0.68013 0.22256 
0.802491 0.586128 0.111638 0.80431 0.583457 0.112531 -0.621037 0.570449 0.537495 
-0.63697 0.577849 0.510255 -0.729289 0.675671 0.107731 0.895647 0.399307 0.195884 
-0.644152 0.577263 0.501833 -0.71881 0.51122 0.471132 0.969316 0.173811 0.173826 
-0.784014 0.421012 0.456147 0.977835 -0.0468139 0.204076 -0.897179 0.204239 0.391607 
0.944297 -0.243843 0.221006 -0.876263 -0.180564 0.446721 0.8743 -0.440261 0.204378 
0.760089 -0.622545 0.186286 -0.847189 -0.421626 0.323267 -0.801017 -0.548493 0.239848 
0.682049 -0.701964 0.205073 0.532981 -0.819322 0.211288 -0.122252 -0.982529 0.140323 
-0.039716 -0.985484 0.165059 0.0411172 -0.993162 0.109268 -0.0596573 -0.996827 0.0527008 
-0.147939 -0.98884 0.0175649 -0.245871 -0.96576 0.0827899 -0.623231 -0.762765 0.172549 
-0.423205 -0.892788 0.154362 0.382029 -0.905344 0.18549 0.348058 -0.918481 0.187747 
0.15662 -0.975743 0.152957 0.0567701 -0.991736 0.115052 -0.0811833 -0.99142 0.102444 
-0.151458 -0.985818 0.0722722 -0.126144 -0.983703 0.128128 -0.149486 -0.984447 0.0922966 
-0.129794 -0.975562 -0.177291 0.121766 0.985878 -0.114968 -0.0284843 0.999238 -0.0266938 
0.553024 0.808915 -0.199553 0.123607 0.985637 -0.115073 0.349815 0.924944 -0.148689 
0.121959 0.985592 -0.117197 -0.0338983 0.999164 -0.0228372 -0.0269041 0.998953 -0.0369967 
-0.0846161 0.996326 0.0131894 -0.206243 0.978131 -0.0268972 -0.389612 0.918565 -0.0666363 
0.600482 0.773986 -0.200917 0.63085 0.747342 -0.208585 0.535865 0.749727 -0.388275 
-0.569463 0.817251 -0.0883865 -0.581384 0.80884 -0.0881503 -0.685034 0.726148 -0.058627 
0.593913 0.775402 -0.21452 0.569566 0.785779 -0.241133 0.576462 0.686032 -0.443905 
-0.686978 0.724582 -0.0551594 -0.676673 0.723893 -0.134506 -0.698056 0.715863 0.0160984 
0.590725 0.764778 -0.257213 0.605826 0.749138 -0.267896 0.512204 0.600926 -0.613624 
-0.704831 0.70909 0.0201211 -0.67992 0.689721 -0.248983 -0.733303 0.679743 0.0147009 
0.754463 0.583105 -0.301287 0.779304 0.551838 -0.296918 0.542223 0.478872 -0.690418 
-0.736261 0.676565 0.0134456 -0.735925 0.668909 -0.104762 0.860144 0.409526 -0.304042 
0.677245 0.392231 -0.62249 -0.801652 0.597089 -0.0289632 -0.822513 0.566495 -0.0505498 
0.935358 0.185993 -0.300852 -0.926021 0.355936 -0.125679 -0.707029 0.330419 -0.625246 
0.963383 -0.00612513 -0.268059 -0.972816 0.107972 -0.204868 0.947811 -0.22393 -0.226955 
-0.958608 -0.164414 -0.232461 -0.566588 -0.326594 -0.756515 0.856111 -0.453211 -0.248342 
0.763939 -0.599619 -0.238441 0.714692 -0.444112 -0.540351 -0.734133 -0.605928 -0.30643 
-0.646596 -0.672891 -0.359348 -0.582741 -0.601366 -0.5466 0.677783 -0.701444 -0.220423 
0.52475 -0.824613 -0.211309 -0.111421 -0.926051 -0.360576 -0.0854877 -0.947566 -0.307912 
-0.109239 -0.943828 -0.311858 -0.0832186 -0.897558 -0.432972 -0.164414 -0.728675 -0.664831 
-0.0429855 -0.864597 -0.500625 -0.0662972 -0.747345 -0.66112 -0.0759568 -0.884382 -0.460541 
-0.0529211 -0.73782 -0.67292 -0.129552 -0.883357 -0.45044 -0.143597 -0.786664 -0.60045 
-0.520198 -0.754026 -0.401048 -0.428672 -0.80132 -0.417284 -0.412549 -0.74873 -0.518851 
0.342703 -0.913084 -0.220981 0.329482 -0.917717 -0.221894 0.331825 -0.909017 -0.252151 
0.125923 -0.970013 -0.207891 0.15139 -0.900254 -0.408195 0.00781447 -0.975537 -0.219696 
-0.0276752 -0.862025 -0.50611 -0.116458 -0.952568 -0.28116 -0.157874 -0.883686 -0.440653 
-0.140283 -0.92892 -0.342677 -0.164502 -0.928947 -0.331656 -0.170987 -0.913179 -0.369956 
0.338969 0.706233 -0.621559 0.168212 0.7847 -0.596617 0.0431065 0.843852 -0.534842 
-0.0842564 0.860242 -0.502876 -0.236332 0.803085 -0.546993 -0.365483 0.725895 -0.582665 
0.409397 0.680084 -0.608177 0.481734 0.644997 -0.593221 0.316251 0.632514 -0.707044 
0.176497 0.54305 -0.820942 0.0573765 0.511214 -0.857536 -0.06902 0.543542 -0.83654 
-0.222639 0.597591 -0.77027 -0.392109 0.717636 -0.575543 -0.355812 0.696066 -0.623611 
-0.490038 0.667593 -0.560519 0.528078 0.619757 -0.580546 0.524643 0.620162 -0.583223 
0.387731 0.450031 -0.804448 0.203458 0.327807 -0.922576 0.0914503 0.22056 -0.971077 
0.0565167 0.175816 -0.982799 -0.15525 0.260666 -0.952864 -0.249459 0.391773 -0.885598 
-0.547819 0.647563 -0.529676 -0.41141 0.525535 -0.744685 -0.566033 0.637419 -0.522785 
0.507356 0.59378 -0.624512 0.50798 0.591782 -0.6259 0.359496 0.425246 -0.830619 
0.200011 0.249047 -0.947613 -0.264749 0.290026 -0.91967 -0.599351 0.611282 -0.516829 
-0.426185 0.469674 -0.773158 -0.608629 0.594268 -0.525752 0.542168 0.478821 -0.690496 
0.542176 0.478799 -0.690505 0.362496 0.381354 -0.850391 0.208466 0.230092 -0.950579 
-0.0148272 -0.0472882 -0.998771 0.0464548 -0.0834377 -0.99543 -0.280833 0.204899 -0.93763 
-0.62447 0.521802 -0.58117 -0.489147 0.377332 -0.786356 -0.644759 0.485303 -0.590564 
0.611686 0.372975 -0.69766 0.6531 0.313086 -0.68952 0.459802 0.315777 -0.82998 
0.255738 0.24177 -0.936026 -0.0968805 0.0704307 -0.992801 0.0116145 0.0243994 -0.999635 
0.0587822 -0.0127641 -0.998189 -0.124489 0.037803 -0.991501 -0.267001 0.201304 -0.942437 
-0.68316 0.422623 -0.595552 -0.545624 0.377612 -0.748133 0.702859 0.20361 -0.681566 
0.633935 0.201881 -0.746572 0.403033 0.18289 -0.896725 -0.0151236 -0.0282392 -0.999487 
0.0162772 -0.0236016 -0.999589 -0.0578605 0.00189996 -0.998323 -0.17265 0.0643558 -0.982879 
-0.670958 0.311193 -0.673034 -0.412409 0.139803 -0.900208 -0.678351 0.282549 -0.678237 
0.75506 0.0303897 -0.654951 0.631351 0.0356958 -0.774675 0.405389 0.0440319 -0.913083 
-0.0451388 0.00644337 -0.99896 -0.0484454 0.0133817 -0.998736 -0.00216686 -0.0470156 -0.998892 
-0.0391908 -0.0533722 -0.997805 -0.1291 -0.0847748 -0.988001 -0.34199 -0.0634227 -0.937561 
-0.70302 0.0218542 -0.710835 -0.560961 -0.306224 -0.769123 -0.567792 -0.00141516 -0.823171 
0.75326 -0.207556 -0.624115 0.689291 -0.364735 -0.625976 0.643104 -0.193061 -0.741043 
0.405159 -0.0750833 -0.911158 -0.0973631 -0.135181 -0.986026 -0.0519672 -0.192708 -0.979879 
-0.0919425 -0.20884 -0.973618 -0.175449 -0.233713 -0.956345 -0.548227 -0.322584 -0.771613 
-0.360201 -0.263529 -0.894879 0.65759 -0.426181 -0.621245 0.476511 -0.341559 -0.810108 
-0.126443 -0.258793 -0.957621 -0.0212702 -0.391315 -0.920011 0.0264283 -0.335807 -0.94156 
-0.120282 -0.372237 -0.920311 -0.170459 -0.687299 -0.70609 -0.161652 -0.458486 -0.873876 
-0.0781175 -0.668687 -0.739429 -0.071453 -0.468792 -0.880414 -0.0655663 -0.631819 -0.772338 
-0.0851629 -0.489752 -0.867693 -0.147801 -0.629409 -0.762888 -0.172287 -0.473955 -0.86353 
-0.389341 -0.472721 -0.790537 -0.363127 -0.513604 -0.7774 -0.363752 -0.453071 -0.813887 
0.507614 -0.619861 -0.598415 0.506756 -0.620847 -0.59812 0.506546 -0.619481 -0.599712 
0.33252 -0.730041 -0.597051 0.310391 -0.591956 -0.743805 0.16033 -0.830005 -0.534215 
0.119312 -0.504745 -0.854984 -0.0318077 -0.836199 -0.547504 -0.0331012 -0.478805 -0.877297 
-0.182622 -0.789226 -0.586321 -0.151819 -0.521374 -0.839714 -0.20374 -0.737545 -0.64383 
-0.195375 -0.600657 -0.775267 -0.0933176 -0.7241 -0.683353 -0.0857575 -0.659815 -0.746519 
-0.0341098 -0.751978 -0.658305 -0.0232143 -0.695689 -0.717968 -0.157104 -0.720877 -0.675022 
-0.12816 -0.766627 -0.629172 -0.131184 -0.723669 -0.677565 -0.0122698 0.238339 -0.971104 
0.0828449 0.132798 -0.987675 0.0607054 0.123272 -0.990514 0.0429228 0.174595 -0.983704 
0.0457272 0.122842 -0.991372 -0.117083 0.238753 -0.963996 0.00247199 0.174986 -0.984568 
-0.122661 0.212663 -0.969396 -0.14976 0.209108 -0.966357 0.0833609 0.132774 -0.987635 
0.108566 0.157693 -0.981502 0.081872 0.131302 -0.987956 0.0294457 0.0265132 -0.999215 
-0.00145366 -0.031457 -0.999504 0.0175809 -0.00858862 -0.999809 0.0411271 -0.0770637 -0.996178 
0.0151488 -0.0428168 -0.998968 -0.00170571 0.0338425 -0.999426 -0.165438 0.195167 -0.966716 
-0.119725 0.152703 -0.980993 -0.145417 0.151977 -0.977628 0.115543 0.156249 -0.980936 
0.132725 0.197979 -0.971179 0.0811149 0.130302 -0.988151 -0.013622 0.0527174 -0.998517 
-0.0406585 0.00842223 -0.999138 -0.0489433 0.0272282 -0.99843 0.0482582 -0.0758118 -0.995954 
0.058109 -0.0185693 -0.998138 0.054578 -0.0501059 -0.997252 0.0133828 -0.0232417 -0.99964 
-0.181795 0.142605 -0.972941 -0.0942411 0.0897508 -0.991496 0.199912 0.221897 -0.954357 
0.246675 0.213813 -0.945217 0.0850645 0.181507 -0.979704 0.0152112 0.113758 -0.993392 
-0.0199821 0.0617232 -0.997893 -0.0907044 0.0975001 -0.991094 -0.0669701 0.171963 -0.982824 
-0.114777 0.0818905 -0.99001 -0.022802 0.0102543 -0.999687 0.0461334 -0.0281645 -0.998538 
0.0322619 0.00102603 -0.999479 0.00280403 -0.0536164 -0.998558 0.0133436 -0.0682966 -0.997576 
-0.059877 -0.0167069 -0.998066 0.00503369 -0.0271436 -0.999619 -0.0324496 -0.0394332 -0.998695 
0.283295 0.148203 -0.947512 0.223057 0.136544 -0.965195 0.0742933 0.144205 -0.986755 
-0.0440604 0.0754765 -0.996174 0.0396641 -0.0142599 -0.999111 -0.0189629 0.0285137 -0.999413 
-0.170756 0.112874 -0.978827 -0.0422778 0.00342324 -0.9991 -0.0386656 0.00271338 -0.999249 
-0.0313133 0.0135376 -0.999418 -0.0417214 0.0390158 -0.998367 0.357983 0.044577 -0.932664 
0.213748 0.0442314 -0.975887 0.0182881 0.023608 -0.999554 -0.142057 -0.015886 -0.989731 
-0.0787031 -0.0549031 -0.995385 0.0588221 -0.146272 -0.987494 -0.0772805 0.0152978 -0.996892 
-0.135088 0.0274577 -0.990453 -0.00750639 0.0216183 -0.999738 -0.0419017 0.00784303 -0.999091 
-0.0238829 0.0207924 -0.999499 0.0262896 0.0334312 -0.999095 0.323958 -0.0723013 -0.943305 
0.197974 -0.0994313 -0.975151 0.0144076 -0.081338 -0.996582 -0.112324 -0.0701561 -0.991192 
-0.0838904 0.0186533 -0.9963 -0.0696199 -0.202237 -0.976859 0.0476141 -0.0904853 -0.994759 
-0.0148904 -0.279751 -0.959957 -0.0188825 -0.156898 -0.987434 -0.0105876 -0.12316 -0.99233 
-0.0357832 0.0108397 -0.999301 -0.0884739 -0.126197 -0.988052 -0.0787627 -0.229852 -0.970033 
-0.0304228 -0.0713226 -0.996989 0.245328 -0.289825 -0.925103 0.206684 -0.311757 -0.92741 
0.196545 -0.280218 -0.9396 0.0814539 -0.367393 -0.926492 0.0529763 -0.241753 -0.96889 
-0.0369336 -0.318472 -0.947213 -0.0477773 -0.187132 -0.981172 -0.116865 -0.229697 -0.96622 
-0.106542 -0.255165 -0.96101 -0.0865699 -0.146135 -0.98547 
