# vtk DataFile Version 4.2
vtk output
ASCII
DATASET POLYDATA
POINTS 558 float
-3.88971 -46.56 -11.9942 4.22473 -46.56 -12.8209 12.3392 -46.56 -12.0007 
20.4536 -46.56 -11.2656 -20.1186 -38.4456 -12.2891 -12.0041 -38.4456 -14.3664 
-3.88971 -38.4456 -16.3207 4.22473 -38.4456 -16.6621 12.3392 -38.4456 -15.4564 
20.4536 -38.4456 -14.279 28.568 -38.4456 -11.8114 -36.3474 -30.3311 -13.6103 
-28.233 -30.3311 -15.7922 -20.1186 -30.3311 -16.9038 -12.0041 -30.3311 -17.167 
-3.88971 -30.3311 -17.2055 4.22473 -30.3311 -17.2071 12.3392 -30.3311 -16.8 
20.4536 -30.3311 -15.8641 28.568 -30.3311 -14.3075 36.6825 -30.3311 -11.3167 
-52.5763 -22.2167 -11.7096 -44.4619 -22.2167 -14.4915 -36.3474 -22.2167 -15.5155 
-28.233 -22.2167 -17.2427 -20.1186 -22.2167 -18.1179 -12.0041 -22.2167 -17.9499 
-3.88971 -22.2167 -17.2237 4.22473 -22.2167 -16.9652 12.3392 -22.2167 -16.622 
20.4536 -22.2167 -16.4396 28.568 -22.2167 -15.5225 36.6825 -22.2167 -14.1365 
-52.5763 -14.1023 -12.7849 -44.4619 -14.1023 -14.7149 -36.3474 -14.1023 -16.6494 
-28.233 -14.1023 -16.7872 -20.1186 -14.1023 -17.2703 -12.0041 -14.1023 -17.888 
-3.88971 -14.1023 -16.5082 4.22473 -14.1023 -15.9458 12.3392 -14.1023 -15.6672 
20.4536 -14.1023 -15.6381 28.568 -14.1023 -15.4124 36.6825 -14.1023 -14.8739 
44.7969 -14.1023 -13.444 -60.6907 -5.98782 -12.3973 -52.5763 -5.98782 -15.9559 
-44.4619 -5.98782 -16.5649 -36.3474 -5.98782 -16.831 -28.233 -5.98782 -16.0862 
-20.1186 -5.98782 -15.1494 -12.0041 -5.98782 -16.2293 -3.88971 -5.98782 -16.0722 
4.22473 -5.98782 -16.7264 12.3392 -5.98782 -14.463 20.4536 -5.98782 -14.375 
28.568 -5.98782 -15.5411 36.6825 -5.98782 -16.2629 44.7969 -5.98782 -15.2509 
52.9113 -5.98782 -13.1899 -60.6907 2.12662 -14.0284 -52.5763 2.12662 -16.4509 
-44.4619 2.12662 -18.2852 -36.3474 2.12662 -18.2441 -28.233 2.12662 -17.637 
-20.1186 2.12662 -16.58 -12.0041 2.12662 -16.6505 -3.88971 2.12662 -15.2994 
4.22473 2.12662 -13.5873 12.3392 2.12662 -15.9827 20.4536 2.12662 -14.5715 
28.568 2.12662 -15.7058 36.6825 2.12662 -15.9683 44.7969 2.12662 -15.7943 
52.9113 2.12662 -14.9217 61.0258 2.12662 -12.5567 -60.6907 10.241 -13.4121 
-52.5763 10.241 -17.3969 -44.4619 10.241 -18.5266 -36.3474 10.241 -18.5721 
-28.233 10.241 -17.9821 -20.1186 10.241 -16.0598 -12.0041 10.241 -14.0664 
-3.88971 10.241 -15.5105 4.22473 10.241 -16.3005 12.3392 10.241 -18.6919 
20.4536 10.241 -16.3795 28.568 10.241 -15.9937 36.6825 10.241 -16.4422 
44.7969 10.241 -15.65 52.9113 10.241 -14.7742 61.0258 10.241 -12.9543 
-60.6907 18.3555 -10.9516 -52.5763 18.3555 -15.3976 -44.4619 18.3555 -17.1899 
-36.3474 18.3555 -18.1333 -28.233 18.3555 -17.0963 -20.1186 18.3555 -15.3686 
-12.0041 18.3555 -14.6512 -3.88971 18.3555 -16.0824 4.22473 18.3555 -17.3979 
12.3392 18.3555 -18.3368 20.4536 18.3555 -16.8701 28.568 18.3555 -15.3002 
36.6825 18.3555 -15.1476 44.7969 18.3555 -15.1319 52.9113 18.3555 -12.8885 
61.0258 18.3555 -12.6709 -52.5763 26.4699 -12.6549 -44.4619 26.4699 -15.43 
-36.3474 26.4699 -15.3931 -28.233 26.4699 -16.0584 -20.1186 26.4699 -15.0574 
-12.0041 26.4699 -15.4311 -3.88971 26.4699 -15.5902 4.22473 26.4699 -15.289 
12.3392 26.4699 -15.0217 20.4536 26.4699 -14.2114 28.568 26.4699 -13.3958 
36.6825 26.4699 -13.3165 44.7969 26.4699 -11.7491 52.9113 26.4699 -11.6507 
-44.4619 34.5844 -11.719 -36.3474 34.5844 -12.6181 -28.233 34.5844 -13.6491 
-20.1186 34.5844 -13.7322 -12.0041 34.5844 -14.0153 -3.88971 34.5844 -13.2247 
4.22473 34.5844 -11.6836 12.3392 34.5844 -10.9045 -3.88971 -47.7984 -10.8144 
4.22473 -49.3261 -10.8144 12.3392 -48.2223 -10.8144 12.3392 -54.6744 -2.842 
20.4536 -47.0893 -10.8144 -20.1186 -40.1936 -10.8144 -6.47896 -46.56 -10.8144 
-12.0041 -43.5693 -10.8144 -12.0041 -46.56 -6.82069 21.5051 -46.56 -10.8144 
28.568 -40.2312 -10.8144 28.568 -46.56 -5.91139 -36.3474 -34.876 -10.8144 
-26.3053 -38.4456 -10.8144 -28.233 -37.7848 -10.8144 -28.233 -38.4456 -9.7511 
31.105 -38.4456 -10.8144 36.6825 -31.8228 -10.8144 36.6825 -38.4456 -7.86718 
-52.5763 -23.6621 -10.8144 -42.1533 -30.3311 -10.8144 -44.4619 -28.1636 -10.8144 
-44.4619 -30.3311 -8.99836 37.6012 -30.3311 -10.8144 44.7969 -30.3311 -5.16707 
-53.8678 -22.2167 -10.8144 43.4313 -22.2167 -10.8144 44.7969 -20.194 -10.8144 
44.7969 -22.2167 -9.83047 -57.7646 -14.1023 -10.8144 -60.6907 -11.2986 -10.8144 
-60.6907 -14.1023 -9.32204 51.6189 -14.1023 -10.8144 52.9113 -12.7519 -10.8144 
52.9113 -14.1023 -10.193 -62.7838 -5.98782 -10.8144 59.047 -5.98782 -10.8144 
61.0258 -3.93403 -10.8144 61.0258 -5.98782 -9.65292 -64.737 2.12662 -10.8144 
-68.8052 2.12662 -3.84154 63.5601 2.12662 -10.8144 69.1402 2.12662 -3.98972 
-63.8729 10.241 -10.8144 64.2117 10.241 -10.8144 69.1402 10.241 -5.78432 
-60.8467 18.3555 -10.8144 -60.6907 18.6525 -10.8144 62.5548 18.3555 -10.8144 
61.0258 20.2512 -10.8144 69.1402 18.3555 -4.20492 -55.5067 26.4699 -10.8144 
-60.6907 26.4699 -4.00176 -52.5763 29.3399 -10.8144 20.4536 33.4637 -10.8144 
28.568 32.1525 -10.8144 36.6825 32.9108 -10.8144 44.7969 28.4615 -10.8144 
54.4807 26.4699 -10.8144 52.9113 27.7041 -10.8144 61.0258 26.4699 -6.14747 
-46.1777 34.5844 -10.8144 -52.5763 34.5844 -3.9888 -44.4619 35.7064 -10.8144 
-36.3474 37.3471 -10.8144 -28.233 40.7181 -10.8144 -20.1186 39.5577 -10.8144 
-12.0041 39.4828 -10.8144 -3.88971 38.0075 -10.8144 4.22473 35.9799 -10.8144 
13.4687 34.5844 -10.8144 12.3392 34.7229 -10.8144 20.4536 34.5844 -10.2154 
28.568 34.5844 -9.56704 36.6825 34.5844 -9.88329 44.7969 34.5844 -7.28291 
52.9113 34.5844 -3.92825 -36.3474 42.6988 -4.92158 -28.233 42.6988 -8.62 
-20.1186 42.6988 -7.46286 -12.0041 42.6988 -6.73392 -3.88971 42.6988 -5.39656 
4.22473 42.6988 -4.28176 12.3392 42.6988 -3.39529 20.4536 42.6988 -2.74418 
12.3392 -54.7393 -2.69999 -12.0041 -48.6338 -2.69999 -3.88971 -52.7858 -2.69999 
7.57943 -54.6744 -2.69999 4.22473 -54.6258 -2.69999 12.5696 -54.6744 -2.69999 
12.3392 -54.6744 -2.07494 20.4536 -52.3421 -2.69999 28.568 -48.7882 -2.69999 
-28.233 -41.1783 -2.69999 -15.7472 -46.56 -2.69999 -20.1186 -44.1322 -2.69999 
-12.0041 -46.56 4.9135 32.0294 -46.56 -2.69999 36.6825 -42.9296 -2.69999 
-44.4619 -34.3287 -2.69999 -34.3705 -38.4456 -2.69999 -36.3474 -37.6428 -2.69999 
-28.233 -38.4456 4.40521 41.1936 -38.4456 -2.69999 44.7969 -33.2116 -2.69999 
-50.6197 -30.3311 -2.69999 -52.5763 -28.884 -2.69999 46.5302 -30.3311 -2.69999 
-59.4427 -22.2167 -2.69999 -60.6907 -20.6623 -2.69999 52.2056 -22.2167 -2.69999 
52.9113 -21.4768 -2.69999 -65.2687 -14.1023 -2.69999 59.6927 -14.1023 -2.69999 
61.0258 -12.5048 -2.69999 -68.2265 -5.98782 -2.69999 -68.8052 -1.95703 -2.69999 
66.9769 -5.98782 -2.69999 69.1402 -0.800507 -2.69999 -69.3643 2.12662 -2.69999 
-68.8052 8.04126 -2.69999 -68.8052 2.12662 1.75158 70.0226 2.12662 -2.69999 
-68.5972 10.241 -2.69999 71.5387 10.241 -2.69999 -65.509 18.3555 -2.69999 
70.3303 18.3555 -2.69999 69.1402 20.4772 -2.69999 -61.3689 26.4699 -2.69999 
-60.6907 27.3544 -2.69999 -60.6907 26.4699 1.85282 64.8122 26.4699 -2.69999 
61.0258 31.2438 -2.69999 -53.4771 34.5844 -2.69999 -52.5763 35.4037 -2.69999 
-44.4619 40.7411 -2.69999 28.568 42.1292 -2.69999 36.6825 40.8952 -2.69999 
44.7969 38.6702 -2.69999 55.4726 34.5844 -2.69999 52.9113 35.658 -2.69999 
-39.4107 42.6988 -2.69999 -36.3474 43.7495 -2.69999 -28.233 45.16 -2.69999 
-20.1186 45.0679 -2.69999 -20.1186 42.6988 5.13841 -12.0041 44.5211 -2.69999 
-12.0041 42.6988 3.41655 -3.88971 44.1188 -2.69999 -3.88971 42.6988 4.00762 
4.22473 43.5943 -2.69999 12.3392 43.163 -2.69999 20.9551 42.6988 -2.69999 
20.4536 42.7277 -2.69999 28.568 42.6988 -0.0972807 36.6825 42.6988 3.0769 
-3.88971 -50.8694 5.41444 4.22473 -53.682 5.41444 12.3392 -53.6982 5.41444 
20.4536 -51.9217 5.41444 28.568 -48.9275 5.41444 -20.1186 -41.6553 5.41444 
-11.7076 -46.56 5.41444 -12.0041 -46.384 5.41444 -3.88971 -46.56 9.63939 
4.22473 -46.56 11.7853 12.3392 -46.56 12.4365 20.4536 -46.56 11.1655 
32.845 -46.56 5.41444 28.568 -46.56 8.08726 36.6825 -43.7572 5.41444 
-44.4619 -31.2336 5.41444 -36.3474 -35.6184 5.41444 -27.1888 -38.4456 5.41444 
-28.233 -37.9806 5.41444 -20.1186 -38.4456 8.81913 -12.0041 -38.4456 12.1956 
41.2878 -38.4456 5.41444 36.6825 -38.4456 9.96491 44.7969 -32.7454 5.41444 
-46.1827 -30.3311 5.41444 -52.5763 -26.9364 5.41444 -44.4619 -30.3311 6.75385 
-36.3474 -30.3311 9.68644 -28.233 -30.3311 12.5017 46.1589 -30.3311 5.41444 
44.7969 -30.3311 7.07984 -58.081 -22.2167 5.41444 -60.6907 -19.2349 5.41444 
-52.5763 -22.2167 9.34415 -44.4619 -22.2167 12.3119 52.0274 -22.2167 5.41444 
44.7969 -22.2167 11.665 52.9113 -21.1312 5.41444 -64.2466 -14.1023 5.41444 
-60.6907 -14.1023 9.52536 -52.5763 -14.1023 12.7875 59.0247 -14.1023 5.41444 
52.9113 -14.1023 10.1052 61.0258 -12.1539 5.41444 -66.9654 -5.98782 5.41444 
-60.6907 -5.98782 13.0801 66.1793 -5.98782 5.41444 61.0258 -5.98782 11.476 
69.1402 1.53685 5.41444 -68.162 2.12662 5.41444 -60.6907 2.12662 11.5552 
69.3208 2.12662 5.41444 69.1402 2.12662 5.64683 -67.0437 10.241 5.41444 
-60.6907 10.241 12.8634 61.0258 10.241 12.4183 71.4798 10.241 5.41444 
69.1402 10.241 8.36815 -64.313 18.3555 5.41444 -60.6907 25.4104 5.41444 
-60.6907 18.3555 9.70275 70.1068 18.3555 5.41444 69.1402 20.414 5.41444 
69.1402 18.3555 6.60138 -59.7782 26.4699 5.41444 -52.5763 26.4699 13.1033 
52.9113 26.4699 12.9674 65.9931 26.4699 5.41444 61.0258 34.5068 5.41444 
61.0258 26.4699 10.7432 -52.6401 34.5844 5.41444 -52.5763 34.6446 5.41444 
-52.5763 34.5844 5.48757 -44.4619 39.5739 5.41444 -44.4619 34.5844 12.4011 
-36.3474 34.5844 13.295 -20.1186 42.5874 5.41444 -20.1186 34.5844 12.8141 
-12.0041 41.9004 5.41444 -12.0041 34.5844 12.089 -3.88971 42.3051 5.41444 
-3.88971 34.5844 12.2369 4.22473 34.5844 12.5437 12.3392 34.5844 13.0488 
44.7969 40.9676 5.41444 44.7969 34.5844 12.2822 60.896 34.5844 5.41444 
52.9113 37.4806 5.41444 52.9113 34.5844 9.88434 -37.0284 42.6988 5.41444 
-36.3474 42.9011 5.41444 -36.3474 42.6988 5.74541 -21.269 42.6988 5.41444 
-28.233 43.32 5.41444 -28.233 42.6988 6.17726 0.71931 42.6988 5.41444 
[...]
POINT_DATA 558
SCALARS ImageScalars float
LOOKUP_TABLE default
0 0 0 0 0 0 0 0 0 
0 0 0 0 0 0 0 0 0 
0 0 0 0 0 0 0 0 0 
0 0 0 0 0 0 0 0 0 
0 0 0 0 0 0 0 0 0 
0 0 0 0 0 0 0 0 0 
0 0 0 0 0 0 0 0 0 
0 0 0 0 0 0 0 0 0 
0 0 0 0 0 0 0 0 0 
0 0 0 0 0 0 0 0 0 
0 0 0 0 0 0 0 0 0 
0 0 0 0 0 0 0 0 0 
0 0 0 0 0 0 0 0 0 
0 0 0 0 0 0 0 0 0 
0 0 0 0 0 0 0 0 0 
0 0 0 0 0 0 0 0 0 
0 0 0 0 0 0 0 0 0 
0 0 0 0 0 0 0 0 0 
0 0 0 0 0 0 0 0 0 
0 0 0 0 0 0 0 0 0 
0 0 0 0 0 0 0 0 0 
0 0 0 0 0 0 0 0 0 
0 0 0 0 0 0 0 0 0 
0 0 0 0 0 0 0 0 0 
0 0 0 0 0 0 0 0 0 
0 0 0 0 0 0 0 0 0 
0 0 0 0 0 0 0 0 0 
0 0 0 0 0 0 0 0 0 
0 0 0 0 0 0 0 0 0 
0 0 0 0 0 0 0 0 0 
0 0 0 0 0 0 0 0 0 
0 0 0 0 0 0 0 0 0 
0 0 0 0 0 0 0 0 0 
0 0 0 0 0 0 0 0 0 
0 0 0 0 0 0 0 0 0 
0 0 0 0 0 0 0 0 0 
0 0 0 0 0 0 0 0 0 
0 0 0 0 0 0 0 0 0 
0 0 0 0 0 0 0 0 0 
0 0 0 0 0 0 0 0 0 
0 0 0 0 0 0 0 0 0 
0 0 0 0 0 0 0 0 0 
0 0 0 0 0 0 0 0 0 
0 0 0 0 0 0 0 0 0 
0 0 0 0 0 0 0 0 0 
0 0 0 0 0 0 0 0 0 
0 0 0 0 0 0 0 0 0 
0 0 0 0 0 0 0 0 0 
0 0 0 0 0 0 0 0 0 
0 0 0 0 0 0 0 0 0 
0 0 0 0 0 0 0 0 0 
0 0 0 0 0 0 0 0 0 
0 0 0 0 0 0 0 0 0 
0 0 0 0 0 0 0 0 0 
0 0 0 0 0 0 0 0 0 
0 0 0 0 0 0 0 0 0 
0 0 0 0 0 0 0 0 0 
0 0 0 0 0 0 0 0 0 
0 0 0 0 0 0 0 0 0 
0 0 0 0 0 0 0 0 0 
0 0 0 0 0 0 0 0 0 
0 0 0 0 0 0 0 0 0 

NORMALS Normals float
0.222501 0.617285 0.754621 -0.0031249 0.533936 0.845519 -0.0958772 0.520284 0.848594 
-0.234223 0.574707 0.784125 0.210163 0.646828 0.733106 0.215972 0.438776 0.872257 
0.127633 0.252918 0.959032 -0.0502365 0.247482 0.967589 -0.143991 0.255883 0.955924 
-0.19121 0.277633 0.941466 -0.333291 0.391726 0.857594 0.330048 0.38786 0.8606 
0.200206 0.336067 0.920313 0.0748194 0.310766 0.947537 0.0179856 0.199812 0.979669 
0.00238045 0.0490347 0.998794 -0.0244553 0.0154582 0.999581 -0.0855716 0.0662888 0.994124 
-0.143825 0.130834 0.980916 -0.247017 0.201843 0.947756 -0.41414 0.337785 0.845215 
0.469756 0.350001 0.81045 0.258726 0.264326 0.929082 0.15602 0.179175 0.971367 
0.155804 0.048863 0.986579 0.042501 0.0241293 0.998805 -0.0548074 0.0424138 0.997596 
-0.0605615 -0.0424688 0.997261 -0.0369519 -0.0774799 0.996309 -0.0321931 -0.0691671 0.997086 
-0.069103 -0.0128388 0.997527 -0.144135 0.0627499 0.987567 -0.291651 0.178568 0.939709 
0.255649 0.253664 0.932898 0.208446 0.120556 0.970575 0.126598 0.0796739 0.988749 
0.0353897 -0.0680413 0.997055 0.0688877 -0.187966 0.979757 -0.049889 -0.101398 0.993594 
-0.11955 -0.0709224 0.990292 -0.0516149 -0.0157539 0.998543 -0.0190043 -0.126797 0.991747 
-0.0155885 -0.121811 0.992431 -0.0457778 0.00103367 0.998951 -0.106816 0.133779 0.985238 
-0.263207 0.306278 0.914831 0.503236 0.199317 0.840849 0.311197 0.218088 0.924983 
0.0467302 0.212755 0.975987 -0.0271804 0.0975047 0.994864 -0.106037 0.0536096 0.992916 
0.00860476 -0.0323655 0.999439 0.0602349 -0.0799943 0.994974 0.0321379 -0.0675259 0.9972 
-0.0919521 -0.101257 0.990602 -0.150419 0.00777796 0.988592 0.0689732 -0.0679634 0.995301 
0.110315 0.0172027 0.993748 -0.0243277 0.066019 0.997522 -0.163596 0.119676 0.979241 
-0.32371 0.262754 0.90894 0.485834 0.069826 0.871258 0.255368 0.0709856 0.964234 
0.120938 0.119328 0.985462 -0.0397142 0.106814 0.993486 -0.102039 0.110918 0.988577 
-0.0618154 0.0573302 0.99644 -0.0633918 -0.128176 0.989723 -0.191365 -0.0413539 0.980647 
0.056104 -0.0478325 0.997279 0.028114 0.266631 0.963389 -0.0109322 0.123155 0.992327 
0.0870209 0.0288216 0.995789 0.00436 0.0113747 0.999926 -0.0594825 0.0279877 0.997837 
-0.230539 0.088668 0.969015 -0.452966 0.163215 0.87646 0.529505 -0.168621 0.831379 
0.313069 -0.0364869 0.949029 0.063868 -0.067088 0.995701 -0.033611 -0.00565511 0.999419 
-0.15199 -0.0290366 0.987955 -0.232787 -0.074619 0.969661 -0.0400413 -0.116833 0.992344 
0.131634 0.0473195 0.990168 0.207695 0.210468 0.955283 -0.00686187 0.124098 0.992246 
-0.169882 0.142677 0.975081 0.00425076 -0.0255741 0.999664 -0.0210983 -0.049583 0.998547 
-0.0980752 -0.0382014 0.994446 -0.191849 -0.121996 0.973813 -0.413094 0.0157862 0.910551 
0.612782 -0.358319 0.704347 0.379649 -0.293907 0.877203 0.147308 -0.167903 0.974735 
-0.0030878 -0.181235 0.983435 -0.170118 -0.117392 0.978406 -0.145001 -0.0620271 0.987485 
0.0450043 0.0825055 0.995574 0.171307 0.0034612 0.985212 0.137457 -0.0629131 0.988508 
-0.0295978 -0.195426 0.980272 -0.187189 -0.126047 0.974203 -0.101096 -0.148095 0.983792 
-0.0101252 -0.178282 0.983927 -0.128363 -0.203905 0.970539 -0.138144 -0.193926 0.971241 
-0.419845 -0.353274 0.836019 0.399621 -0.406704 0.82152 0.171716 -0.339373 0.924846 
0.0374541 -0.298686 0.953616 -0.0232151 -0.218365 0.975591 -0.0357595 -0.0930325 0.995021 
0.0329376 -0.0286809 0.999046 -0.00803641 -0.157102 0.98755 -0.0320212 -0.322392 0.946064 
-0.0631399 -0.434856 0.898284 -0.0881186 -0.37716 0.921947 -0.0516535 -0.314995 0.947687 
-0.087589 -0.310278 0.946602 -0.0947303 -0.390359 0.915776 -0.26839 -0.409987 0.87171 
0.276161 -0.553521 0.785716 0.132825 -0.469457 0.872907 0.0546099 -0.362695 0.930306 
0.0215446 -0.332874 0.942725 -0.0269802 -0.351241 0.935896 -0.128315 -0.429293 0.894004 
-0.127711 -0.487911 0.8635 -0.0777815 -0.508449 0.857572 0.24692 0.664989 0.704855 
0.0275868 0.644529 0.764082 -0.109678 0.585046 0.803549 -0.141471 0.970721 0.194133 
-0.238802 0.598651 0.764586 0.252767 0.708602 0.658781 0.276107 0.664153 0.694741 
0.306953 0.645523 0.699342 0.437473 0.823093 0.362127 -0.257249 0.585777 0.768562 
-0.363746 0.444544 0.818577 -0.493534 0.724362 0.481377 0.370314 0.6659 0.647645 
0.227958 0.754179 0.615832 0.227953 0.755749 0.613906 0.2536 0.819289 0.51425 
-0.387132 0.414294 0.823705 -0.429998 0.362568 0.826829 -0.561985 0.527282 0.637296 
0.502502 0.433289 0.748166 0.427433 0.528155 0.733726 0.405795 0.510562 0.758061 
0.490321 0.64723 0.583677 -0.439269 0.34919 0.827713 -0.758353 0.488328 0.431782 
0.507549 0.40149 0.762365 -0.487775 0.314504 0.814348 -0.460609 0.341883 0.819118 
-0.548328 0.364566 0.752614 0.514277 0.390346 0.763642 0.582786 0.39123 0.712249 
0.656974 0.496585 0.567263 -0.418288 0.411567 0.809721 -0.429449 0.395313 0.811973 
-0.467939 0.442898 0.764771 0.580434 0.250813 0.774719 -0.493804 0.387044 0.778688 
-0.525373 0.365816 0.76822 -0.569999 0.445282 0.690525 0.703685 0.0569392 0.708227 
0.969957 0.0261879 0.241863 -0.571377 0.19063 0.798241 -0.897889 0.24756 0.364018 
0.663851 -0.194675 0.722083 -0.538079 -0.0496484 0.841431 -0.830105 -0.00643769 0.55757 
0.618171 -0.360872 0.69831 0.616075 -0.370005 0.695376 -0.505796 -0.368974 0.779762 
-0.461932 -0.411279 0.785791 -0.846278 -0.306565 0.435696 0.509647 -0.495848 0.703132 
0.785449 -0.577428 0.222815 0.504946 -0.498243 0.704829 -0.0676246 -0.485918 0.871385 
-0.0211495 -0.467529 0.883725 -0.0903487 -0.522466 0.84786 -0.137376 -0.429893 0.892368 
-0.308253 -0.417158 0.854962 -0.25973 -0.452236 0.853243 -0.551184 -0.526243 0.647506 
0.362876 -0.580523 0.728913 0.645217 -0.719418 0.257162 0.291664 -0.609584 0.737116 
0.193185 -0.564143 0.802759 0.0716685 -0.633635 0.770305 -0.0403617 -0.598341 0.800225 
-0.0637881 -0.636022 0.76903 -0.127152 -0.595863 0.792956 -0.124751 -0.53474 0.835757 
-0.076077 -0.507586 0.858236 -0.0778086 -0.51226 0.855299 -0.0677145 -0.518961 0.852112 
-0.0229904 -0.556735 0.830372 -0.0960574 -0.592273 0.799991 -0.295309 -0.64702 0.702963 
-0.305161 -0.781648 0.54397 0.282684 -0.901501 0.327697 0.0771478 -0.817099 0.571312 
-0.0576768 -0.886849 0.458446 -0.0725802 -0.929466 0.361697 -0.0814595 -0.940307 0.330436 
-0.0774643 -0.931247 0.356059 -0.0600319 -0.914863 0.399277 -0.0562747 -0.916009 0.397191 
-0.140463 0.972655 0.184967 0.48464 0.869225 0.0978381 0.339082 0.932712 0.122763 
0.0132618 0.983849 0.178511 0.116999 0.978146 0.171877 -0.145669 0.971515 0.18692 
-0.138821 0.979673 0.144811 -0.317171 0.916445 0.24399 -0.493553 0.81768 0.296319 
0.367945 0.929847 0.00120041 0.466871 0.88093 0.0774261 0.425821 0.903101 0.0555435 
0.449675 0.78112 -0.433179 -0.560759 0.770035 0.304295 -0.638014 0.70117 0.318274 
0.48092 0.874264 0.0661701 0.367601 0.929931 0.009845 0.373321 0.92756 0.0162352 
0.287083 0.838012 -0.464026 -0.738226 0.605515 0.297277 -0.795958 0.538896 0.275759 
0.59307 0.797019 0.114145 0.627398 0.768417 0.126123 -0.803609 0.52927 0.272187 
0.752383 0.627517 0.200356 0.766732 0.605554 0.213136 -0.745176 0.612639 0.263414 
-0.742206 0.619461 0.255732 0.855624 0.466462 0.224323 -0.730229 0.643669 0.229033 
-0.740856 0.628112 0.237925 0.947267 0.228955 0.224197 0.97001 0.125845 0.207951 
-0.79586 0.531393 0.290221 -0.883443 0.361557 0.298003 0.984359 0.0201678 0.175018 
0.973255 -0.148345 0.175408 0.987288 0.00907918 -0.158681 -0.924731 0.252734 0.284602 
0.963353 -0.207915 0.169475 -0.944541 0.0142286 0.328084 0.884394 -0.436129 0.166246 
-0.88776 -0.323786 0.327176 -0.855607 -0.404694 0.322736 0.811118 -0.563991 0.154926 
0.792867 -0.585803 0.167919 0.786737 -0.595345 -0.163125 -0.698132 -0.612113 0.371387 
-0.619914 -0.675642 0.399016 0.64972 -0.732392 0.203632 0.636156 -0.746998 0.193131 
0.435458 -0.876419 0.205587 -0.0886919 -0.883463 0.460029 -0.175184 -0.841623 0.510864 
-0.291965 -0.84079 0.455883 -0.424717 -0.787322 0.446922 -0.332764 -0.814452 0.475326 
0.326672 -0.924228 0.197705 0.257839 -0.949406 0.179298 0.0826976 -0.991261 0.102776 
-0.0404496 -0.995247 0.0885817 -0.0715329 -0.864829 -0.496945 -0.058784 -0.995762 0.0707323 
-0.0266331 -0.925458 -0.377914 -0.0578917 -0.9866 0.152541 0.03508 -0.928196 -0.370435 
-0.0616541 -0.965675 0.252331 -0.0557684 -0.931919 0.358352 -0.0579258 -0.91556 0.397987 
-0.0560994 -0.917267 0.394302 -0.0714854 -0.96901 0.236453 -0.173196 -0.982038 0.0748567 
0.362032 0.805907 -0.468452 0.141909 0.902536 -0.40656 -0.0952496 0.917576 -0.385981 
-0.244862 0.902204 -0.355064 -0.420433 0.842239 -0.337445 0.40775 0.76847 -0.493147 
0.439099 0.765563 -0.470219 0.440948 0.764528 -0.470172 0.311488 0.632118 -0.709508 
0.138852 0.499081 -0.855359 -0.0266702 0.503591 -0.86353 -0.209936 0.640803 -0.738444 
-0.535279 0.793454 -0.289667 -0.370952 0.768565 -0.52125 -0.639701 0.721817 -0.264125 
0.40208 0.789065 -0.464444 0.336292 0.789133 -0.513982 0.284607 0.800586 -0.527314 
0.270275 0.80101 -0.534168 0.348649 0.665893 -0.659569 0.264001 0.48642 -0.832886 
-0.7571 0.587861 -0.28499 -0.58105 0.535401 -0.612965 -0.814082 0.492744 -0.307366 
0.424593 0.780345 -0.45911 0.515727 0.705186 -0.486558 0.385144 0.756501 -0.528556 
0.253611 0.5914 -0.765459 0.223489 0.491902 -0.841478 -0.813766 0.480986 -0.326249 
-0.789956 0.435617 -0.431517 0.647412 0.625169 -0.435915 0.721701 0.559298 -0.407839 
0.445414 0.530992 -0.72087 0.296353 0.381171 -0.875719 -0.767647 0.561396 -0.309115 
-0.544859 0.405552 -0.733932 -0.753772 0.572702 -0.322243 0.805401 0.419153 -0.419095 
0.614263 0.418364 -0.669068 0.3022 0.363875 -0.881062 -0.674107 0.638031 -0.37215 
-0.560975 0.438198 -0.702346 -0.701908 0.624514 -0.342502 0.86416 0.215653 -0.454665 
0.551843 0.0755661 -0.830517 -0.790055 0.479029 -0.382551 -0.533624 0.429324 -0.728647 
-0.849636 0.305481 -0.429884 0.889287 -0.000380861 -0.45735 0.572092 -0.00195349 -0.820187 
-0.855521 0.29054 -0.428569 -0.848746 0.290194 -0.442062 0.861375 -0.212723 -0.461283 
0.568273 -0.0769095 -0.819238 -0.413618 0.0365911 -0.909715 -0.915688 0.0482466 -0.398983 
-0.829372 0.0436814 -0.556986 0.828825 -0.361393 -0.427135 0.724569 -0.542816 -0.424676 
0.648266 -0.338099 -0.682232 -0.857922 -0.321109 -0.401073 -0.843629 -0.371124 -0.388017 
-0.821026 -0.316202 -0.475324 0.704166 -0.570186 -0.42313 0.475873 -0.347133 -0.808111 
-0.328622 -0.272969 -0.904155 -0.83213 -0.466183 -0.300388 -0.581637 -0.775609 -0.245212 
-0.580947 -0.484604 -0.653956 0.628237 -0.675366 -0.386264 0.626928 -0.676718 -0.386023 
0.626703 -0.674448 -0.390338 0.441118 -0.810231 -0.385928 0.339464 -0.55604 -0.758672 
0.0874617 -0.515789 -0.852239 -0.0720125 -0.852576 -0.517619 -0.113283 -0.557624 -0.822328 
-0.0138572 -0.84323 -0.537374 -0.029281 -0.563157 -0.825831 0.055232 -0.873016 -0.484554 
0.0250512 -0.50317 -0.863824 0.0467204 -0.456973 -0.888253 0.0776408 -0.424499 -0.902093 
-0.32746 -0.931997 -0.155409 -0.227964 -0.568853 -0.790214 -0.577324 -0.779347 -0.243546 
-0.424264 -0.888076 -0.176977 -0.38732 -0.700759 -0.599099 0.19732 -0.906406 -0.373487 
0.176049 -0.911151 -0.372572 0.17413 -0.904117 -0.390194 -0.0647239 -0.855474 -0.513785 
-0.0144219 -0.870186 -0.492512 -0.0228387 -0.848989 -0.527917 0.0632306 -0.897378 -0.436709 
0.0689165 -0.912633 -0.402928 0.0704823 -0.902942 -0.423944 0.0502977 -0.944272 -0.3253 
0.0599002 -0.914822 -0.399391 0.00957839 -0.970901 -0.239291 0.0172354 -0.933718 -0.357594 
-0.0321651 -0.976563 -0.212813 -0.0143426 -0.948963 -0.315062 -0.202292 -0.973999 -0.102 
-0.164189 -0.981847 -0.0949614 -0.152818 -0.968001 -0.199051 0.176874 0.376323 -0.909449 
0.112146 0.377721 -0.919103 -0.00893126 0.410307 -0.911904 -0.108721 0.438188 -0.892284 
-0.259428 0.482512 -0.836588 0.187742 0.423305 -0.886322 0.188036 0.384404 -0.903812 
0.202514 0.399355 -0.89415 0.162332 0.342786 -0.925282 0.0920122 0.29937 -0.94969 
0.015044 0.279609 -0.959996 -0.0485262 0.301716 -0.952162 -0.341363 0.43428 -0.83359 
-0.239221 0.403777 -0.883027 -0.441006 0.327486 -0.835623 0.18971 0.396887 -0.898049 
0.188888 0.428611 -0.883523 0.200008 0.41918 -0.885599 0.17073 0.395214 -0.902584 
0.130351 0.283251 -0.950146 0.0762136 0.179549 -0.980792 0.0460966 0.106256 -0.99327 
0.0156615 0.102418 -0.994618 -0.00283444 0.13042 -0.991455 -0.170183 0.178525 -0.969106 
-0.463101 0.288867 -0.83791 -0.411461 0.272728 -0.869666 0.224545 0.362566 -0.904503 
0.265123 0.310594 -0.91282 0.184595 0.367134 -0.911667 0.144756 0.276056 -0.950178 
0.0945168 0.184875 -0.978206 0.032683 0.0890586 -0.99549 -0.00957395 0.0760112 -0.997061 
0.0164106 0.0936301 -0.995472 0.0404521 -0.0141328 -0.999082 0.00820099 0.0339613 -0.99939 
-0.0915887 0.0510878 -0.994486 -0.426783 0.293087 -0.855544 -0.299734 0.149614 -0.942218 
-0.431774 0.304031 -0.849198 0.266975 0.33334 -0.904217 0.278018 0.328632 -0.902611 
0.213797 0.256764 -0.94253 0.125827 0.217445 -0.967928 0.0362632 0.147684 -0.98837 
-0.0199419 0.0706048 -0.997305 0.0166482 0.0057086 -0.999845 0.0818995 0.018377 -0.996471 
-0.0487596 0.127301 -0.990665 -0.0425105 0.0084926 -0.99906 0.0636548 -0.0232562 -0.997701 
-0.0508786 -0.018898 -0.998526 -0.173475 0.0433609 -0.983883 -0.425249 0.263845 -0.865765 
-0.342842 0.188729 -0.92024 -0.279149 0.315636 -0.90689 0.513658 0.0869494 -0.853578 
0.287879 0.187084 -0.939215 0.118406 0.150111 -0.981553 0.0500044 0.0922441 -0.99448 
-0.00786948 0.0446028 -0.998974 -0.0418769 0.0165287 -0.998986 -0.0234047 0.0702257 -0.997257 
0.104458 -0.0473034 -0.993404 0.00209667 -0.0803153 -0.996767 -0.0985278 0.15966 -0.982243 
-0.0197369 -0.0939885 -0.995378 -0.0273188 -0.0935909 -0.995236 -0.0899073 -0.00750547 -0.995922 
-0.148065 0.0802729 -0.985714 -0.310337 0.342967 -0.886603 -0.233669 0.307071 -0.922554 
-0.482038 0.169493 -0.8596 0.458585 0.00122035 -0.88865 0.325155 0.0130493 -0.945571 
0.151903 0.0145349 -0.988289 0.0240678 0.00584961 -0.999693 -0.0408116 -0.00402545 -0.999159 
0.00142995 -0.0250532 -0.999685 -0.0386589 -0.0214315 -0.999023 -0.0965377 -0.0454129 -0.994293 
0.19465 -0.101942 -0.975561 -0.0853591 0.128193 -0.988069 -0.181276 -0.0501108 -0.982155 
0.0389406 -0.0427794 -0.998325 0.00490143 -0.011738 -0.999919 -0.0494611 0.0514157 -0.997452 
-0.176879 0.133562 -0.975128 -0.505369 0.0354283 -0.862176 -0.440476 0.0195732 -0.897551 
-0.458972 0.0166586 -0.888295 0.515533 -0.0858191 -0.852561 0.299928 -0.13027 -0.945025 
0.111502 -0.0998574 -0.988734 0.0317383 -0.024833 -0.999188 -0.0387014 -0.0041491 -0.999242 
-0.057599 0.00586992 -0.998323 -0.0389159 -0.0570735 -0.997611 0.0308999 0.0157752 -0.999398 
0.154981 -0.0588619 -0.986162 -0.0632463 -0.208949 -0.975879 -0.155153 0.0784612 -0.98477 
0.00785554 0.0653801 -0.997829 0.000404297 0.0492319 -0.998787 -0.0117017 -0.00844383 -0.999896 
-0.356647 0.031505 -0.933708 -0.260973 0.0232897 -0.965065 -0.417002 -0.00838912 -0.908867 
0.349814 -0.15971 -0.923105 0.373221 -0.194548 -0.907115 0.346163 -0.157004 -0.924944 
0.237273 -0.124604 -0.963419 0.110272 -0.0841163 -0.990336 -0.00988871 -0.0723614 -0.997329 
-0.0519747 -0.0431714 -0.997715 -0.0397968 -0.0593106 -0.997446 -0.0714554 -0.0740109 -0.994694 
-0.0254493 -0.145681 -0.989004 0.0738476 -0.216347 -0.97352 0.0457665 -0.0157921 -0.998827 
0.0138021 0.0303534 -0.999444 -0.06458 -0.0123394 -0.997836 -0.0788178 0.0412578 -0.996035 
-0.280318 -0.251975 -0.926245 -0.155343 -0.219353 -0.963199 -0.504819 -0.0983617 -0.857603 
-0.464465 -0.222656 -0.857145 -0.420474 -0.0447188 -0.906202 0.436165 -0.321481 -0.840482 
0.293735 -0.442981 -0.847047 0.233378 -0.230708 -0.944621 0.0860664 -0.493814 -0.865298 
0.0886331 -0.248365 -0.964603 0.00952194 -0.234898 -0.971973 -0.105186 -0.502787 -0.857987 
-0.0446082 -0.256596 -0.965489 -0.0440733 -0.459826 -0.886915 -0.0671278 -0.276531 -0.958658 
-0.00757118 -0.402818 -0.915249 -0.0574772 -0.27612 -0.959403 0.0267334 -0.348029 -0.937102 
-0.00357211 -0.196719 -0.980453 0.0734875 -0.371287 -0.925606 0.073029 -0.202871 -0.976478 
0.115151 -0.197062 -0.973605 0.00582868 -0.162252 -0.986732 0.00231758 -0.126988 -0.991902 
-0.308989 -0.258544 -0.915249 -0.208717 -0.459258 -0.863435 -0.215351 -0.226463 -0.949915 
0.0581335 -0.507124 -0.85991 -0.0731705 -0.524198 -0.848447 -0.0287504 -0.527857 -0.848846 
-0.0263086 -0.491325 -0.870579 0.0755723 -0.40457 -0.911379 0.0734995 -0.425947 -0.901758 
0.0748498 -0.398396 -0.914154 0.0498484 -0.503114 -0.862781 0.0553838 -0.449142 -0.891742 
-0.17007 -0.46501 -0.868816 -0.115597 -0.51204 -0.851148 -0.123661 -0.411477 -0.902992 

