# vtk DataFile Version 4.2
vtk output
ASCII
DATASET POLYDATA
POINTS 526 float
-10.6863 -32.3697 -14.6945 -3.49705 -32.3697 -14.6424 3.69215 -32.3697 -14.2283 
-32.2539 -25.1805 -14.4101 -25.0647 -25.1805 -15.831 -17.8755 -25.1805 -16.3658 
-10.6863 -25.1805 -16.6645 -3.49705 -25.1805 -17.2405 3.69215 -25.1805 -16.9944 
10.8813 -25.1805 -16.1651 18.0705 -25.1805 -15.8938 25.2598 -25.1805 -14.9854 
-39.4431 -17.9913 -14.7031 -32.2539 -17.9913 -16.8182 -25.0647 -17.9913 -17.8377 
-17.8755 -17.9913 -17.436 -10.6863 -17.9913 -17.7589 -3.49705 -17.9913 -17.8311 
3.69215 -17.9913 -16.9319 10.8813 -17.9913 -16.8666 18.0705 -17.9913 -16.844 
25.2598 -17.9913 -16.1728 32.449 -17.9913 -15.5668 -39.4431 -10.8021 -16.8442 
-32.2539 -10.8021 -18.4577 -25.0647 -10.8021 -18.6928 -17.8755 -10.8021 -18.0428 
-10.6863 -10.8021 -18.9784 -3.49705 -10.8021 -18.643 3.69215 -10.8021 -16.8806 
10.8813 -10.8021 -17.8597 18.0705 -10.8021 -16.9995 25.2598 -10.8021 -16.4894 
32.449 -10.8021 -16.3987 39.6381 -10.8021 -15.9979 46.8274 -10.8021 -14.6685 
-39.4431 -3.61287 -17.2215 -32.2539 -3.61287 -18.3102 -25.0647 -3.61287 -18.5588 
-17.8755 -3.61287 -18.5275 -10.6863 -3.61287 -19.9721 -3.49705 -3.61287 -18.3081 
3.69215 -3.61287 -18.9401 10.8813 -3.61287 -20.9376 18.0705 -3.61287 -16.4505 
25.2598 -3.61287 -17.0743 32.449 -3.61287 -17.8157 39.6381 -3.61287 -17.7567 
46.8274 -3.61287 -16.8579 -46.6323 3.57634 -14.1128 -39.4431 3.57634 -17.0766 
-32.2539 3.57634 -18.2646 -25.0647 3.57634 -18.4583 -17.8755 3.57634 -18.4417 
-10.6863 3.57634 -19.2584 -3.49705 3.57634 -18.0904 3.69215 3.57634 -19.3431 
10.8813 3.57634 -15.524 18.0705 3.57634 -15.5578 25.2598 3.57634 -17.5798 
32.449 3.57634 -18.5426 39.6381 3.57634 -19.0705 46.8274 3.57634 -17.7075 
54.0166 3.57634 -15.7126 -39.4431 10.7655 -16.4216 -32.2539 10.7655 -17.9242 
-25.0647 10.7655 -18.2362 -17.8755 10.7655 -17.7692 -10.6863 10.7655 -17.9216 
-3.49705 10.7655 -19.2622 3.69215 10.7655 -18.8978 10.8813 10.7655 -15.0863 
18.0705 10.7655 -16.08 25.2598 10.7655 -17.9968 32.449 10.7655 -19.7259 
39.6381 10.7655 -18.8798 46.8274 10.7655 -18.1547 54.0166 10.7655 -15.6099 
-39.4431 17.9547 -14.4374 -32.2539 17.9547 -16.2714 -25.0647 17.9547 -17.1069 
-17.8755 17.9547 -16.8425 -10.6863 17.9547 -16.4305 -3.49705 17.9547 -17.3058 
3.69215 17.9547 -17.3719 10.8813 17.9547 -15.4433 18.0705 17.9547 -16.1917 
25.2598 17.9547 -17.1931 32.449 17.9547 -18.4079 39.6381 17.9547 -19.323 
46.8274 17.9547 -17.1774 -25.0647 25.1439 -14.8235 -17.8755 25.1439 -14.9727 
-10.6863 25.1439 -15.0581 -3.49705 25.1439 -15.7463 3.69215 25.1439 -15.2485 
10.8813 25.1439 -14.2032 25.2598 25.1439 -15.3352 32.449 25.1439 -16.1436 
39.6381 25.1439 -15.6176 -10.6863 -33.1778 -14.1107 -3.49705 -33.0701 -14.1107 
3.69215 -32.5297 -14.1107 -32.2539 -25.6667 -14.1107 -32.2539 -32.3697 -8.46446 
-25.0647 -28.5342 -14.1107 -25.0647 -32.3697 -11.5951 -14.2276 -32.3697 -14.1107 
-17.8755 -30.9554 -14.1107 -17.8755 -32.3697 -13.3503 5.16784 -32.3697 -14.1107 
10.8813 -31.2025 -14.1107 10.8813 -32.3697 -13.5181 18.0705 -28.997 -14.1107 
18.0705 -32.3697 -12.0588 25.2598 -27.1457 -14.1107 25.2598 -32.3697 -9.89949 
-32.9371 -25.1805 -14.1107 -39.4431 -19.2624 -14.1107 -39.4431 -25.1805 -10.3345 
27.8445 -25.1805 -14.1107 32.449 -21.5996 -14.1107 32.449 -25.1805 -12.2171 
39.6381 -25.1805 -9.19067 -40.3656 -17.9913 -14.1107 -46.6323 -17.9913 -8.3619 
37.1002 -17.9913 -14.1107 39.6381 -15.6037 -14.1107 39.6381 -17.9913 -13.1081 
46.8274 -11.9114 -14.1107 46.8274 -17.9913 -9.91688 -44.3332 -10.8021 -14.1107 
-46.6323 -10.8021 -12.3509 47.8349 -10.8021 -14.1107 54.0166 -10.8021 -8.79876 
-46.4581 -3.61287 -14.1107 -46.6323 3.40518 -14.1107 -46.6323 -3.61287 -13.995 
53.0452 -3.61287 -14.1107 54.0166 -1.59674 -14.1107 54.0166 -3.61287 -13.5757 
-46.6349 3.57634 -14.1107 -46.6323 3.59008 -14.1107 55.7004 3.57634 -14.1107 
-44.2078 10.7655 -14.1107 -46.6323 10.7655 -12.691 55.3592 10.7655 -14.1107 
54.0166 14.1359 -14.1107 -40.0582 17.9547 -14.1107 -46.6323 17.9547 -9.73419 
-39.4431 18.8261 -14.1107 -32.2539 24.4313 -14.1107 18.0705 24.4591 -14.1107 
52.1984 17.9547 -14.1107 46.8274 23.6766 -14.1107 54.0166 17.9547 -11.8673 
-39.4431 25.1439 -11.4443 -30.4379 25.1439 -14.1107 -32.2539 25.1439 -13.8496 
-25.0647 26.7236 -14.1107 -17.8755 26.9551 -14.1107 -10.6863 27.6367 -14.1107 
-3.49705 28.8455 -14.1107 3.69215 27.2912 -14.1107 13.0044 25.1439 -14.1107 
10.8813 25.3013 -14.1107 19.155 25.1439 -14.1107 18.0705 25.1439 -13.8614 
25.2598 26.9661 -14.1107 32.449 27.288 -14.1107 44.2222 25.1439 -14.1107 
39.6381 26.8248 -14.1107 46.8274 25.1439 -12.0039 -32.2539 32.3331 -9.28414 
-25.0647 32.3331 -10.8126 -17.8755 32.3331 -11.0505 -10.6863 32.3331 -11.6652 
-3.49705 32.3331 -11.993 3.69215 32.3331 -10.2887 10.8813 32.3331 -7.71416 
25.2598 32.3331 -7.76883 -32.2539 -33.4243 -6.92151 -25.0647 -36.3527 -6.92151 
-17.8755 -37.8001 -6.92151 -10.6863 -38.6404 -6.92151 -3.49705 -38.7051 -6.92151 
3.69215 -37.9209 -6.92151 10.8813 -36.8631 -6.92151 18.0705 -35.8848 -6.92151 
25.2598 -34.165 -6.92151 -33.9262 -32.3697 -6.92151 -39.4431 -28.1219 -6.92151 
30.3505 -32.3697 -6.92151 32.449 -31.4019 -6.92151 39.6381 -27.2794 -6.92151 
-42.3674 -25.1805 -6.92151 -46.6323 -19.5522 -6.92151 42.3954 -25.1805 -6.92151 
46.8274 -21.327 -6.92151 -47.6525 -17.9913 -6.92151 50.4557 -17.9913 -6.92151 
54.0166 -13.3958 -6.92151 -50.9588 -10.8021 -6.92151 55.6719 -10.8021 -6.92151 
-52.177 -3.61287 -6.92151 -53.8215 -3.61287 0.0857918 59.4528 -3.61287 -6.92151 
-52.4726 3.57634 -6.92151 -53.8215 3.57634 -1.53901 60.3152 3.57634 -6.92151 
-51.6806 10.7655 -6.92151 59.8301 10.7655 -6.92151 -49.1413 17.9547 -6.92151 
-46.6323 22.0614 -6.92151 57.0289 17.9547 -6.92151 54.0166 21.1482 -6.92151 
-44.5086 25.1439 -6.92151 -46.6323 25.1439 -1.82655 -39.4431 30.0898 -6.92151 
18.0705 32.2176 -6.92151 32.449 31.4776 -6.92151 39.6381 30.223 -6.92151 
49.6923 25.1439 -6.92151 46.8274 27.1856 -6.92151 46.8274 25.1439 -1.98891 
-36.0493 32.3331 -6.92151 -39.4431 32.3331 -2.01949 -32.2539 34.5106 -6.92151 
-25.0647 35.7468 -6.92151 -17.8755 36.0774 -6.92151 -10.6863 36.2059 -6.92151 
-3.49705 35.9819 -6.92151 3.69215 34.6793 -6.92151 16.8928 32.3331 -6.92151 
10.8813 32.8657 -6.92151 19.2947 32.3331 -6.92151 18.0705 32.3331 -6.45994 
27.8857 32.3331 -6.92151 25.2598 32.7682 -6.92151 -32.2539 -34.7826 0.26769 
-25.0647 -37.5806 0.26769 -17.8755 -38.9554 0.26769 -10.6863 -39.4799 0.26769 
-3.49705 -39.1346 0.26769 3.69215 -38.1874 0.26769 10.8813 -36.8096 0.26769 
18.0705 -35.7202 0.26769 25.2598 -34.3401 0.26769 -36.1003 -32.3697 0.26769 
-39.4431 -29.9369 0.26769 18.0705 -32.3697 7.4564 31.4189 -32.3697 0.26769 
25.2598 -32.3697 4.88946 32.449 -32.0328 0.26769 39.6381 -28.8697 0.26769 
-44.1896 -25.1805 0.26769 -46.6323 -22.0422 0.26769 44.544 -25.1805 0.26769 
39.6381 -25.1805 6.07292 46.8274 -23.2684 0.26769 -49.3502 -17.9913 0.26769 
51.8405 -17.9913 0.26769 46.8274 -17.9913 6.83139 54.0166 -14.5659 0.26769 
-52.5592 -10.8021 0.26769 -53.8215 -3.84749 0.26769 55.9709 -10.8021 0.26769 
54.0166 -10.8021 3.07644 -53.8598 -3.61287 0.26769 -53.8215 -3.61287 0.489958 
58.4405 -3.61287 0.26769 54.0166 -3.61287 5.77048 -54.227 3.57634 0.26769 
-53.8215 8.16395 0.26769 -53.8215 3.57634 2.09336 59.2412 3.57634 0.26769 
54.0166 3.57634 5.65541 -53.5749 10.7655 0.26769 57.0563 10.7655 0.26769 
54.0166 10.7655 4.16117 -51.0351 17.9547 0.26769 46.8274 23.7795 0.26769 
46.8274 17.9547 5.31133 54.8011 17.9547 0.26769 54.0166 18.8203 0.26769 
54.0166 17.9547 1.21056 -47.366 25.1439 0.26769 -46.6323 26.2123 0.26769 
-46.6323 25.1439 2.82126 32.449 31.3943 0.26769 45.0649 25.1439 0.26769 
39.6381 28.8729 0.26769 39.6381 25.1439 4.47524 -40.712 32.3331 0.26769 
-39.4431 33.2289 0.26769 -39.4431 32.3331 3.90301 -32.2539 36.6071 0.26769 
-25.0647 38.5195 0.26769 -17.8755 38.1606 0.26769 -10.6863 37.5695 0.26769 
-3.49705 37.0117 0.26769 3.69215 36.0695 0.26769 10.8813 34.6961 0.26769 
18.0705 33.7996 0.26769 18.0705 32.3331 4.99813 29.0286 32.3331 0.26769 
25.2598 33.1653 0.26769 25.2598 32.3331 2.33804 -32.2539 -33.2867 7.45689 
-25.0647 -35.9529 7.45689 -17.8755 -37.1331 7.45689 -10.6863 -37.4539 7.45689 
-3.49705 -36.8399 7.45689 3.69215 -35.2353 7.45689 10.8813 -33.3511 7.45689 
-33.7919 -32.3697 7.45689 -39.4431 -28.3415 7.45689 -32.2539 -32.3697 9.31866 
-25.0647 -32.3697 13.5659 -3.49705 -32.3697 13.704 3.69215 -32.3697 11.5608 
18.0686 -32.3697 7.45689 10.8813 -32.3697 8.79912 18.0705 -32.3694 7.45689 
25.2598 -30.8912 7.45689 32.449 -27.9795 7.45689 -42.6794 -25.1805 7.45689 
-46.6323 -20.0588 7.45689 -39.4431 -25.1805 12.6108 18.0705 -25.1805 13.8981 
25.2598 -25.1805 12.3129 37.9495 -25.1805 7.45689 32.449 -25.1805 10.2987 
39.6381 -23.9454 7.45689 -47.9794 -17.9913 7.45689 -46.6323 -17.9913 9.99087 
32.449 -17.9913 14.295 46.1353 -17.9913 7.45689 39.6381 -17.9913 11.3746 
46.8274 -17.1175 7.45689 -51.2094 -10.8021 7.45689 39.6381 -10.8021 13.3587 
50.2838 -10.8021 7.45689 46.8274 -10.8021 10.0708 -52.5485 -3.61287 7.45689 
39.6381 -3.61287 13.8505 52.1051 -3.61287 7.45689 46.8274 -3.61287 10.8915 
-52.556 3.57634 7.45689 39.6381 3.57634 13.2437 51.5006 3.57634 7.45689 
46.8274 3.57634 10.2875 -51.7143 10.7655 7.45689 -46.6323 10.7655 14.1916 
32.449 10.7655 13.6035 39.6381 10.7655 11.7324 49.7473 10.7655 7.45689 
46.8274 13.8114 7.45689 46.8274 10.7655 8.72447 -49.123 17.9547 7.45689 
-46.6323 22.7544 7.45689 -46.6323 17.9547 11.0442 18.0705 17.9547 14.3011 
25.2598 17.9547 13.0374 32.449 17.9547 11.5663 43.5281 17.9547 7.45689 
39.6381 21.5155 7.45689 39.6381 17.9547 9.43596 -45.2004 25.1439 7.45689 
-39.4431 31.3177 7.45689 -39.4431 25.1439 13.9708 18.0705 31.3249 7.45689 
18.0705 25.1439 12.5758 25.2598 29.0226 7.45689 25.2598 25.1439 10.4942 
34.5561 25.1439 7.45689 32.449 26.243 7.45689 32.449 25.1439 8.37393 
-38.0949 32.3331 7.45689 -32.2539 35.5244 7.45689 -32.2539 32.3331 12.4475 
-25.0647 36.9897 7.45689 -25.0647 32.3331 13.9786 -17.8755 36.7099 7.45689 
[...]
POINT_DATA 526
SCALARS ImageScalars float
LOOKUP_TABLE default
0 0 0 0 0 0 0 0 0 
0 0 0 0 0 0 0 0 0 
0 0 0 0 0 0 0 0 0 
0 0 0 0 0 0 0 0 0 
0 0 0 0 0 0 0 0 0 
0 0 0 0 0 0 0 0 0 
0 0 0 0 0 0 0 0 0 
0 0 0 0 0 0 0 0 0 
0 0 0 0 0 0 0 0 0 
0 0 0 0 0 0 0 0 0 
0 0 0 0 0 0 0 0 0 
0 0 0 0 0 0 0 0 0 
0 0 0 0 0 0 0 0 0 
0 0 0 0 0 0 0 0 0 
0 0 0 0 0 0 0 0 0 
0 0 0 0 0 0 0 0 0 
0 0 0 0 0 0 0 0 0 
0 0 0 0 0 0 0 0 0 
0 0 0 0 0 0 0 0 0 
0 0 0 0 0 0 0 0 0 
0 0 0 0 0 0 0 0 0 
0 0 0 0 0 0 0 0 0 
0 0 0 0 0 0 0 0 0 
0 0 0 0 0 0 0 0 0 
0 0 0 0 0 0 0 0 0 
0 0 0 0 0 0 0 0 0 
0 0 0 0 0 0 0 0 0 
0 0 0 0 0 0 0 0 0 
0 0 0 0 0 0 0 0 0 
0 0 0 0 0 0 0 0 0 
0 0 0 0 0 0 0 0 0 
0 0 0 0 0 0 0 0 0 
0 0 0 0 0 0 0 0 0 
0 0 0 0 0 0 0 0 0 
0 0 0 0 0 0 0 0 0 
0 0 0 0 0 0 0 0 0 
0 0 0 0 0 0 0 0 0 
0 0 0 0 0 0 0 0 0 
0 0 0 0 0 0 0 0 0 
0 0 0 0 0 0 0 0 0 
0 0 0 0 0 0 0 0 0 
0 0 0 0 0 0 0 0 0 
0 0 0 0 0 0 0 0 0 
0 0 0 0 0 0 0 0 0 
0 0 0 0 0 0 0 0 0 
0 0 0 0 0 0 0 0 0 
0 0 0 0 0 0 0 0 0 
0 0 0 0 0 0 0 0 0 
0 0 0 0 0 0 0 0 0 
0 0 0 0 0 0 0 0 0 
0 0 0 0 0 0 0 0 0 
0 0 0 0 0 0 0 0 0 
0 0 0 0 0 0 0 0 0 
0 0 0 0 0 0 0 0 0 
0 0 0 0 0 0 0 0 0 
0 0 0 0 0 0 0 0 0 
0 0 0 0 0 0 0 0 0 
0 0 0 0 0 0 0 0 0 
0 0 0 0 
NORMALS Normals float
0.0764385 0.484374 0.871515 -0.029288 0.522726 0.851997 -0.0631391 0.532414 0.844126 
0.287613 0.433351 0.854099 0.118707 0.370702 0.921135 0.0541465 0.252284 0.966137 
0.0620608 0.20595 0.976593 0.0220618 0.190306 0.981477 -0.074162 0.160674 0.984217 
-0.0718012 0.205188 0.976085 -0.0838778 0.264056 0.960853 -0.221033 0.299796 0.928045 
0.422752 0.33436 0.842308 0.199498 0.245464 0.948656 0.0379145 0.184248 0.982148 
-0.00679376 0.11679 0.993133 0.0270587 0.150498 0.98824 -0.057408 0.0944528 0.993873 
-0.0666616 -0.00747092 0.997748 -0.00606106 0.114336 0.993424 -0.0469816 0.0716796 0.996321 
-0.0951274 0.109606 0.989413 -0.184315 0.242991 0.952357 0.353055 0.156927 0.922348 
0.110996 0.0971128 0.989065 -0.0299072 0.0540677 0.998089 0.0158442 0.0756846 0.997006 
0.0444405 0.156131 0.986736 -0.142846 0.0374927 0.989034 -0.0509434 0.11957 0.991518 
0.00489199 0.227473 0.973772 -0.0940892 -0.0274246 0.995186 -0.0412466 0.0616034 0.997248 
-0.0328826 0.1643 0.985862 -0.119975 0.30419 0.945026 -0.346043 0.377086 0.859104 
0.277549 0.0116319 0.960641 0.0952264 -0.0127582 0.995374 0.0149835 -0.0161669 0.999757 
0.0930111 0.0274727 0.995286 1.13972e-05 0.01634 0.999866 -0.0842533 -0.0407069 0.995613 
0.151199 0.181437 0.97171 -0.235011 0.00916577 0.97195 -0.177164 -0.0966565 0.979423 
0.0935458 0.0714777 0.993046 0.0481427 0.146709 0.988007 -0.0626653 0.195224 0.978755 
-0.221857 0.213115 0.951505 0.574755 -0.0643104 0.815795 0.274479 -0.0497807 0.960304 
0.0986952 -0.0255235 0.99479 0.0122542 -0.0222984 0.999676 0.0536262 -0.0519952 0.997206 
-0.0182588 -0.139752 0.990018 0.000235242 0.0689783 0.997618 -0.0666412 -0.00372774 0.99777 
-0.292191 -0.349366 0.890263 0.133696 -0.0271071 0.990652 0.199823 0.0663306 0.977584 
0.0926767 0.119603 0.988487 -0.0553049 0.080695 0.995203 -0.183029 0.0866957 0.979277 
-0.539363 0.114517 0.83425 0.315684 -0.169133 0.933669 0.116023 -0.137258 0.983717 
-0.0116353 -0.0961331 0.9953 -0.021725 -0.107688 0.993947 0.0995917 -0.192206 0.976288 
0.0729675 -0.057592 0.99567 -0.288568 -0.141041 0.947014 -0.163248 0.00872941 0.986546 
0.19323 0.0395079 0.980358 0.234923 -0.0290416 0.97158 0.0660939 -0.00517476 0.9978 
-0.0952517 0.0142663 0.995351 -0.172082 -0.0420862 0.984183 -0.595463 -0.167403 0.785748 
0.357982 -0.291794 0.886964 0.169336 -0.254712 0.952075 0.0374187 -0.223584 0.973966 
-0.0473898 -0.187404 0.981139 0.0318372 -0.198092 0.979666 0.065125 -0.233734 0.970117 
-0.131307 -0.229025 0.964524 -0.0787675 -0.0610121 0.995024 0.121351 -0.130315 0.984018 
0.145712 -0.179378 0.972929 0.139448 -0.201853 0.969438 -0.0893126 -0.206506 0.974361 
-0.348051 -0.313014 0.883676 0.0687104 -0.373214 0.925197 0.0159067 -0.340037 0.940278 
0.0493085 -0.276853 0.959646 0.0167455 -0.30988 0.950628 -0.103078 -0.381345 0.918668 
-0.0879935 -0.375268 0.92273 0.131072 -0.441865 0.887455 0.0232786 -0.544763 0.838267 
-0.183692 -0.62061 0.7623 0.0744883 0.530139 0.844633 -0.0302278 0.563013 0.825895 
-0.0633642 0.542093 0.837926 0.293539 0.450416 0.843184 0.434055 0.76763 0.471531 
0.170379 0.482603 0.859107 0.236053 0.668454 0.7053 0.121166 0.511831 0.850499 
0.147217 0.47923 0.865255 0.170005 0.559532 0.811186 -0.0730684 0.537489 0.840099 
-0.107856 0.493974 0.862761 -0.115781 0.583176 0.804053 -0.116593 0.454004 0.883338 
-0.16772 0.706308 0.687749 -0.231884 0.398553 0.887347 -0.296166 0.803628 0.516205 
0.308933 0.443336 0.841436 0.437484 0.363788 0.822354 0.565468 0.580452 0.585936 
-0.251812 0.356677 0.899651 -0.245208 0.350123 0.904039 -0.326755 0.502807 0.80026 
-0.483929 0.656855 0.578234 0.455752 0.340777 0.82229 0.761459 0.439995 0.476008 
-0.275425 0.320074 0.906473 -0.254315 0.344252 0.903778 -0.337819 0.381077 0.860615 
-0.349797 0.401539 0.846409 -0.487438 0.594843 0.639192 0.540814 0.227636 0.809754 
0.665265 0.257097 0.700945 -0.386175 0.382089 0.83957 -0.718781 0.499757 0.483318 
0.583578 0.0751916 0.808568 0.575282 -0.0610575 0.815673 0.593767 0.076626 0.80098 
-0.493671 0.322811 0.807516 -0.541658 0.282426 0.791734 -0.553652 0.346956 0.757028 
0.574876 -0.064311 0.815709 0.57478 -0.0645912 0.815755 -0.620646 0.0903569 0.778867 
0.485712 -0.20897 0.848773 0.606339 -0.219578 0.764289 -0.679939 -0.18395 0.709821 
-0.674439 -0.312166 0.669092 0.382235 -0.292184 0.876655 0.687335 -0.37457 0.622309 
0.36097 -0.301616 0.882456 0.194839 -0.391796 0.899185 0.0849197 -0.427694 0.899926 
-0.622956 -0.417737 0.661378 -0.428785 -0.624132 0.653148 -0.732498 -0.505201 0.456311 
0.420699 -0.460998 0.78134 0.16358 -0.399691 0.901936 0.197917 -0.410758 0.890004 
0.0754243 -0.420338 0.904227 0.0254737 -0.403434 0.914654 0.0559505 -0.373278 0.926031 
-0.0210525 -0.460491 0.887415 -0.12579 -0.464723 0.876475 -0.0395309 -0.400921 0.915259 
-0.0894381 -0.383526 0.919189 0.0875596 -0.456584 0.885361 0.0795025 -0.465055 0.881705 
0.104595 -0.542113 0.83377 -0.0133681 -0.689483 0.724178 -0.341745 -0.681218 0.64742 
-0.192465 -0.722103 0.664473 -0.474725 -0.758582 0.446306 0.283321 -0.690846 0.665178 
0.0981518 -0.663356 0.741839 0.0463425 -0.664421 0.74592 0.0522803 -0.644052 0.763193 
-0.0636019 -0.682755 0.727874 -0.203013 -0.768746 0.606478 -0.156904 -0.861613 0.482705 
-0.0393891 -0.937215 0.346521 0.448464 0.809898 0.37808 0.279983 0.871469 0.40268 
0.148304 0.911042 0.384718 0.0579548 0.94252 0.329085 -0.0486306 0.956357 0.288126 
-0.12735 0.956284 0.263254 -0.144721 0.956816 0.252107 -0.182432 0.947942 0.261006 
-0.297107 0.908785 0.292979 0.487015 0.787515 0.377673 0.614075 0.688964 0.385019 
-0.384672 0.861719 0.330858 -0.411778 0.830902 0.374219 -0.524483 0.741616 0.418239 
0.685196 0.618655 0.384412 0.782991 0.480938 0.394491 -0.564513 0.716387 0.410017 
-0.595818 0.686406 0.416951 0.799813 0.449935 0.397313 -0.670307 0.633006 0.387288 
-0.747435 0.569523 0.34203 0.866224 0.283404 0.411507 -0.771182 0.529964 0.352727 
0.904298 0.0879645 0.417742 0.993968 0.106042 0.0279619 -0.946746 0.26399 0.184342 
0.897225 -0.0283134 0.440665 0.994378 -0.0197618 0.104027 -0.98777 0.0282246 0.15334 
0.866728 -0.196017 0.45865 -0.974676 -0.201982 0.0959732 0.79486 -0.389413 0.465355 
0.748135 -0.469169 0.469227 -0.816027 -0.567747 0.108457 -0.737497 -0.670011 0.0847559 
0.692541 -0.535445 0.483411 0.827508 -0.543789 0.139728 0.513211 -0.701294 0.494774 
-0.00103943 -0.912427 0.409239 -0.166819 -0.962979 0.211762 -0.296587 -0.945404 0.13508 
-0.593271 -0.804924 0.0112296 -0.500719 -0.86527 0.0242493 -0.550814 -0.774295 -0.311563 
0.418088 -0.755616 0.504229 0.538014 -0.823525 0.179856 0.308072 -0.794275 0.523659 
0.0971286 -0.828722 0.551167 0.0290818 -0.856924 0.514622 -0.00744343 -0.898238 0.439447 
-0.103095 -0.921551 0.374319 -0.210035 -0.892455 0.399261 -0.0276236 -0.910353 0.41291 
-0.160204 -0.883624 0.439936 -0.0100773 -0.921996 0.387068 -0.00804856 -0.925556 0.378525 
-0.0918939 -0.95954 0.266155 -0.049752 -0.954658 0.293517 0.458433 0.888677 -0.00959669 
0.280396 0.95946 -0.0285522 0.129597 0.990457 -0.0469037 0.0125774 0.997075 -0.0753838 
-0.0857654 0.989681 -0.11479 -0.156416 0.973709 -0.165604 -0.165036 0.96297 -0.213194 
-0.159793 0.963531 -0.214648 -0.234241 0.955717 -0.178147 0.540812 0.841142 -0.00136732 
0.632323 0.774661 0.00828432 -0.131417 0.796807 -0.58977 -0.311738 0.931147 -0.189166 
-0.244957 0.863563 -0.440744 -0.327234 0.92602 -0.18816 -0.519093 0.840211 -0.156805 
0.764999 0.643849 0.0153513 0.823987 0.566336 0.0175701 -0.633439 0.757245 -0.15917 
-0.503785 0.672766 -0.541836 -0.674715 0.719653 -0.16389 0.875804 0.482373 0.0168508 
-0.777286 0.610945 -0.150242 -0.538719 0.532601 -0.652777 -0.846826 0.491712 -0.202744 
0.953351 0.301847 0.00331946 0.993446 0.112842 0.0181982 -0.883062 0.383429 -0.270524 
-0.839648 0.319784 -0.43901 0.994112 0.106691 0.0189436 0.994325 0.106053 0.00843167 
-0.897085 0.207269 -0.390228 -0.708834 0.109262 -0.696861 0.999821 -0.0188134 0.00193609 
0.989525 -0.144337 -0.00279785 0.995192 -0.0259547 -0.094444 -0.895498 -0.0657089 -0.440189 
-0.654424 -0.0647144 -0.753353 0.976325 -0.216265 -0.00423137 -0.787089 -0.284552 -0.547286 
-0.692392 -0.232126 -0.683163 0.928744 -0.370431 -0.0146642 -0.533721 -0.687662 -0.492203 
-0.463007 -0.448927 -0.764257 -0.70233 -0.50796 -0.498707 -0.682206 -0.541078 -0.491762 
-0.670861 -0.506063 -0.542075 0.842642 -0.537807 0.0268015 0.822151 -0.56889 0.0207866 
0.827273 -0.547511 -0.125899 -0.255676 -0.927846 -0.271534 -0.5247 -0.715581 -0.461122 
-0.419676 -0.811416 -0.406788 -0.415241 -0.666649 -0.618995 0.577315 -0.815056 0.04889 
0.536411 -0.842066 0.0564626 0.568616 -0.807526 -0.156773 0.318611 -0.946832 0.0446717 
0.108653 -0.991826 0.0669071 -0.0644949 -0.997464 0.0301057 -0.079501 -0.996767 -0.0116488 
-0.103041 -0.994439 -0.0217585 -0.159676 -0.987041 0.015927 -0.155624 -0.987194 0.0350572 
-0.111841 -0.992978 -0.0385527 -0.195798 -0.917019 -0.347476 -0.197916 -0.955362 -0.219346 
-0.151118 -0.97357 -0.171243 -0.184619 -0.937001 -0.296555 0.425091 0.850525 -0.309683 
0.242644 0.905994 -0.346842 0.0948867 0.922743 -0.373552 -0.0176029 0.916941 -0.398634 
-0.137836 0.889626 -0.435393 -0.212732 0.854314 -0.474228 -0.175486 0.827093 -0.533968 
0.462292 0.832218 -0.306104 0.620213 0.724952 -0.299635 0.416679 0.825316 -0.381093 
0.194494 0.769635 -0.608139 -0.153352 0.704282 -0.693159 -0.21776 0.754667 -0.618917 
-0.131427 0.796799 -0.589778 -0.184532 0.799936 -0.571009 -0.131417 0.796787 -0.589797 
-0.229683 0.760598 -0.607236 -0.331429 0.71221 -0.618799 0.697288 0.652561 -0.296571 
0.800646 0.516742 -0.303222 0.593093 0.619218 -0.514597 -0.199667 0.562585 -0.802266 
-0.190073 0.553216 -0.811064 -0.442532 0.642029 -0.62607 -0.306856 0.61571 -0.725769 
-0.479797 0.600836 -0.639368 0.83063 0.464419 -0.307195 0.786264 0.459629 -0.412953 
-0.26825 0.294162 -0.917339 -0.511832 0.506781 -0.693687 -0.430474 0.382293 -0.817645 
-0.523116 0.479145 -0.704819 0.900177 0.289057 -0.325772 -0.360648 0.140002 -0.922135 
-0.634602 0.223245 -0.739893 -0.511091 0.214389 -0.83236 0.932725 0.0844786 -0.350553 
-0.322632 -0.00878361 -0.946484 -0.618263 0.0653918 -0.783247 -0.474832 0.014004 -0.879965 
0.914206 -0.0521824 -0.401875 -0.291286 -0.134574 -0.947123 -0.553244 -0.0759964 -0.829545 
-0.442619 -0.137607 -0.886088 0.882523 -0.223259 -0.413894 0.646589 -0.188112 -0.739281 
-0.194317 -0.224859 -0.954819 -0.307953 -0.249516 -0.918099 -0.490591 -0.254697 -0.833337 
-0.416849 -0.335654 -0.844733 -0.397428 -0.277837 -0.874561 0.842809 -0.362332 -0.397981 
0.776452 -0.474864 -0.414279 0.722575 -0.361258 -0.589388 -0.190837 -0.173501 -0.966167 
-0.186895 -0.26516 -0.945918 -0.235126 -0.3152 -0.919437 -0.418802 -0.393873 -0.818211 
-0.380996 -0.501587 -0.776693 -0.357936 -0.363584 -0.860051 0.734688 -0.534593 -0.417664 
0.577563 -0.724478 -0.376234 0.51531 -0.449351 -0.729753 -0.249438 -0.80823 -0.533428 
-0.304408 -0.412479 -0.858602 -0.264159 -0.689851 -0.674037 -0.263494 -0.489132 -0.831457 
-0.32701 -0.591651 -0.736894 -0.310087 -0.615879 -0.724251 -0.301817 -0.562361 -0.769842 
0.529128 -0.765952 -0.365159 0.312546 -0.886233 -0.341914 0.302042 -0.720119 -0.62466 
0.086516 -0.918468 -0.385917 0.0887551 -0.699801 -0.708802 -0.0585381 -0.933376 -0.354095 
0.0144824 -0.71067 -0.703376 -0.0675235 -0.941902 -0.329031 -0.0233608 -0.733263 -0.679543 
-0.0753948 -0.948392 -0.308006 -0.0764259 -0.754376 -0.651978 -0.151927 -0.93861 -0.309724 
-0.191371 -0.791021 -0.581087 -0.235402 -0.861615 -0.449672 -0.224642 -0.901044 -0.371019 
-0.249598 -0.845143 -0.472689 0.0619372 0.735327 -0.674876 -0.0590878 0.713663 -0.697992 
0.369852 0.665714 -0.6481 0.0984035 0.735289 -0.670572 0.183334 0.721895 -0.667275 
0.0605843 0.724041 -0.687091 -0.0919879 0.69799 -0.710175 -0.060958 0.697974 -0.713524 
-0.153313 0.655824 -0.739182 -0.204173 0.620608 -0.757072 -0.21628 0.593269 -0.775406 
0.511326 0.585632 -0.628952 0.560257 0.539151 -0.628831 0.335413 0.510291 -0.791897 
0.146204 0.458169 -0.876758 0.00560333 0.384794 -0.922986 -0.0770254 0.374464 -0.924037 
-0.125215 0.428817 -0.894672 -0.178868 0.48656 -0.855141 -0.206709 0.55412 -0.806364 
-0.212485 0.543954 -0.811766 -0.204388 0.520808 -0.828845 -0.204328 0.404383 -0.891473 
0.639462 0.409167 -0.6509 0.724719 0.243803 -0.644471 0.489839 0.343224 -0.801408 
0.264938 0.217936 -0.939314 -0.0419202 0.0783622 -0.996043 -0.0399096 0.0990927 -0.994278 
-0.0611502 0.198835 -0.978123 -0.119378 0.23994 -0.96342 -0.183794 0.30183 -0.935477 
-0.215155 0.335987 -0.916963 -0.255975 0.294823 -0.920628 -0.221191 0.315858 -0.922664 
-0.268673 0.247851 -0.930798 0.734933 0.204191 -0.646668 0.708754 0.199423 -0.676682 
0.361605 0.123352 -0.924136 0.16313 0.0783964 -0.983485 -0.0582463 -0.0666438 -0.996075 
0.0449471 -0.0318249 -0.998482 -0.0849909 -0.0108623 -0.996323 -0.128611 0.0963218 -0.987006 
-0.210672 0.114367 -0.970844 -0.246843 0.106133 -0.963226 -0.313313 0.119613 -0.942087 
-0.276577 0.117579 -0.953771 0.678208 0.00138302 -0.734869 0.639506 -0.0069347 -0.768755 
0.357578 -0.0237962 -0.93358 0.125063 -0.0156099 -0.992026 -0.0451093 -0.0198252 -0.998785 
-0.045865 0.00333258 -0.998942 0.053607 0.0374703 -0.997859 -0.0402489 -0.0838325 -0.995667 
-0.0481572 -0.0805197 -0.995589 -0.0581539 -0.0340586 -0.997727 -0.223203 -0.0955551 -0.970077 
-0.226816 -0.0900046 -0.96977 -0.300501 -0.0274584 -0.953386 -0.259332 -0.0568774 -0.964112 
0.647021 -0.0714864 -0.759114 0.633859 -0.136061 -0.761387 0.623502 -0.0735199 -0.778357 
0.360031 -0.0878374 -0.928796 0.162845 -0.0678731 -0.984314 0.0172613 0.000620262 -0.999851 
-0.00139351 0.0629873 -0.998013 -0.0402471 -0.01934 -0.999003 -0.101513 -0.176753 -0.979006 
-0.0357966 -0.1248 -0.991536 -0.146554 -0.263138 -0.953562 -0.258511 -0.278376 -0.925029 
-0.196132 -0.198293 -0.960319 -0.211827 -0.159459 -0.964211 -0.199493 -0.175081 -0.964131 
-0.201411 -0.165301 -0.965458 0.616511 -0.181912 -0.766043 0.37625 -0.143419 -0.915351 
0.221489 -0.0915402 -0.970857 0.0828407 -0.0378078 -0.995845 -0.065568 -0.0209825 -0.997627 
-0.182903 -0.120608 -0.975705 -0.140164 -0.102536 -0.984805 -0.144642 -0.134696 -0.980273 
-0.22005 -0.278689 -0.934832 -0.165811 -0.19035 -0.967612 -0.124084 -0.233226 -0.964473 
-0.123345 -0.214787 -0.968841 -0.119294 -0.216908 -0.968876 -0.113719 -0.213159 -0.970377 
0.540804 -0.30166 -0.785196 0.496835 -0.404861 -0.767622 0.456752 -0.260863 -0.850487 
0.26273 -0.200331 -0.943843 0.0828047 -0.188297 -0.978615 -0.0815094 -0.178018 -0.980646 
-0.121641 -0.145222 -0.981893 -0.110191 -0.0431408 -0.992974 -0.215962 -0.0880248 -0.972426 
-0.207052 -0.149388 -0.966857 -0.265612 -0.0837543 -0.960435 0.472344 -0.432757 -0.767862 
0.290887 -0.572839 -0.766316 0.290754 -0.398315 -0.869947 0.0932695 -0.658633 -0.746661 
0.107051 -0.404206 -0.908382 0.0151911 -0.698291 -0.715653 -0.0198913 -0.382448 -0.923763 
-0.021394 -0.703412 -0.71046 -0.0389314 -0.318052 -0.947274 -0.0777732 -0.693482 -0.716264 
-0.0832917 -0.284281 -0.955116 -0.209613 -0.587893 -0.781309 -0.203872 -0.295737 -0.933261 
-0.302508 -0.317259 -0.898796 -0.304702 -0.375683 -0.875225 -0.29949 -0.295651 -0.907136 
0.0982199 0.174961 -0.979664 0.114688 0.157023 -0.980913 0.00662713 0.104103 -0.994544 
0.0942167 0.149382 -0.984281 0.0107247 0.0442769 -0.998962 0.0234141 -0.0148511 -0.999616 
-0.00691311 -0.0346499 -0.999376 -0.0126724 -0.026626 -0.999565 0.00143548 -0.0288573 -0.999583 
0.020975 0.0216188 -0.999546 0.00434784 0.02175 -0.999754 0.0065627 0.0044238 -0.999969 
0.0186428 0.0272203 -0.999456 
