# vtk DataFile Version 4.2
vtk output
ASCII
DATASET POLYDATA
POINTS 520 float
-36.5795 -17.4573 -23.2425 -28.2704 -42.3848 -17.9185 -19.9612 -42.3848 -18.4927 
-11.652 -42.3848 -19.4054 -3.34283 -42.3848 -20.1802 4.96635 -42.3848 -20.1627 
13.2755 -42.3848 -18.8757 21.5847 -42.3848 -16.67 -36.5795 -34.0756 -19.9724 
-28.2704 -34.0756 -21.0153 -19.9612 -34.0756 -22.4185 -11.652 -34.0756 -21.7254 
-3.34283 -34.0756 -22.3053 4.96635 -34.0756 -22.3849 13.2755 -34.0756 -21.5354 
21.5847 -34.0756 -20.6005 29.8939 -34.0756 -18.328 38.2031 -34.0756 -15.7982 
-44.8887 -25.7665 -19.2258 -36.5795 -19.5997 -22.8217 -36.5795 -25.7665 -21.5994 
-28.2704 -25.7665 -21.9526 -19.9612 -25.7665 -22.2138 -11.652 -25.7665 -21.4142 
-3.34283 -25.7665 -21.9043 4.96635 -25.7665 -22.2435 13.2755 -25.7665 -21.6999 
21.5847 -25.7665 -21.1153 29.8939 -25.7665 -20.1999 38.2031 -25.7665 -17.929 
-53.1979 -17.4573 -16.4319 -37.9966 -17.4573 -22.8217 -44.8887 -17.4573 -20.8977 
-33.439 -17.4573 -22.8217 -36.5795 -14.3371 -22.8217 -28.2704 -17.4573 -22.1685 
-19.9612 -17.4573 -20.8577 -11.652 -17.4573 -19.6742 -3.34283 -17.4573 -19.7048 
4.96635 -17.4573 -20.5602 13.2755 -17.4573 -20.6882 21.5847 -17.4573 -20.186 
29.8939 -17.4573 -19.4306 38.2031 -17.4573 -17.7455 46.5122 -17.4573 -15.4111 
-53.1979 -9.14811 -19.4114 -44.8887 -9.14811 -21.8989 -36.5795 -9.14811 -22.1618 
-28.2704 -9.14811 -21.1221 -19.9612 -9.14811 -19.1631 -11.652 -9.14811 -17.8166 
-3.34283 -9.14811 -20.0975 4.96635 -9.14811 -20.1051 13.2755 -9.14811 -19.7458 
21.5847 -9.14811 -18.607 29.8939 -9.14811 -17.8019 38.2031 -9.14811 -16.6158 
-53.1979 -0.838935 -20.1149 -44.8887 -0.838935 -22.0255 -36.5795 -0.838935 -21.9981 
-28.2704 -0.838935 -20.6418 -19.9612 -0.838935 -18.4608 -11.652 -0.838935 -19.7626 
-3.34283 -0.838935 -21.601 4.96635 -0.838935 -18.0845 13.2755 -0.838935 -19.6632 
21.5847 -0.838935 -16.4504 29.8939 -0.838935 -15.9714 38.2031 -0.838935 -14.9631 
-53.1979 7.47024 -18.8946 -44.8887 7.47024 -21.1867 -36.5795 7.47024 -21.4431 
-28.2704 7.47024 -20.2454 -19.9612 7.47024 -18.6724 -11.652 7.47024 -19.5518 
-3.34283 7.47024 -19.6762 4.96635 7.47024 -18.6085 13.2755 7.47024 -17.8753 
21.5847 7.47024 -15.1164 29.8939 7.47024 -14.5187 -53.1979 15.7794 -16.4212 
-44.8887 15.7794 -20.5815 -36.5795 15.7794 -20.7765 -28.2704 15.7794 -20.3503 
-19.9612 15.7794 -19.7602 -11.652 15.7794 -19.4836 -3.34283 15.7794 -19.2819 
4.96635 15.7794 -19.2917 13.2755 15.7794 -16.1136 -44.8887 24.0886 -16.9617 
-36.5795 24.0886 -18.7414 -28.2704 24.0886 -19.5909 -19.9612 24.0886 -19.4833 
-11.652 24.0886 -18.8026 -3.34283 24.0886 -17.8309 4.96635 24.0886 -16.8007 
13.2755 24.0886 -14.7229 -36.5795 32.3978 -14.9297 -28.2704 32.3978 -16.9013 
-19.9612 32.3978 -17.6425 -11.652 32.3978 -17.0543 -3.34283 32.3978 -15.8871 
-28.2704 -45.3277 -14.5126 -19.9612 -46.8874 -14.5126 -11.652 -47.9588 -14.5126 
-3.34283 -48.9491 -14.5126 -3.34283 -50.694 -6.55213 4.96635 -48.8575 -14.5126 
4.96635 -50.694 -7.497 13.2755 -47.281 -14.5126 21.5847 -44.441 -14.5126 
-34.4713 -42.3848 -14.5126 -36.5795 -40.8418 -14.5126 -36.5795 -42.3848 -10.6312 
26.9764 -42.3848 -14.5126 29.8939 -40.8241 -14.5126 29.8939 -42.3848 -11.5954 
38.2031 -35.7077 -14.5126 -44.7373 -34.0756 -14.5126 -44.8887 -33.9038 -14.5126 
-44.8887 -34.0756 -14.1829 40.0395 -34.0756 -14.5126 46.5122 -34.0756 -6.41739 
-50.2659 -25.7665 -14.5126 -53.1979 -21.0111 -14.5126 44.5443 -25.7665 -14.5126 
46.5122 -21.6869 -14.5126 46.5122 -25.7665 -13.3736 -54.9133 -17.4573 -14.5126 
48.0371 -17.4573 -14.5126 46.5122 -10.1755 -14.5126 54.8214 -17.4573 -8.84164 
-58.1722 -9.14811 -14.5126 45.9944 -9.14811 -14.5126 46.5122 -9.14811 -14.3588 
54.8214 -9.14811 -9.08642 -59.393 -0.838935 -14.5126 -61.5071 -0.838935 -9.55471 
39.9747 -0.838935 -14.5126 38.2031 1.73166 -14.5126 46.5122 -0.838935 -12.7479 
54.8214 -0.838935 -8.2833 -58.3767 7.47024 -14.5126 -61.5071 7.47024 -6.41714 
21.5847 13.1853 -14.5126 29.9453 7.47024 -14.5126 29.8939 7.52488 -14.5126 
38.2031 7.47024 -13.5185 46.5122 7.47024 -11.2972 54.8214 7.47024 -6.7761 
-55.7588 15.7794 -14.5126 -53.1979 19.1377 -14.5126 20.1852 15.7794 -14.5126 
21.5847 15.7794 -14.232 29.8939 15.7794 -13.5621 38.2031 15.7794 -12.4297 
46.5122 15.7794 -9.41505 -48.904 24.0886 -14.5126 -53.1979 24.0886 -9.65196 
-44.8887 27.8181 -14.5126 4.96635 32.0713 -14.5126 14.3705 24.0886 -14.5126 
13.2755 25.0016 -14.5126 21.5847 24.0886 -13.1421 29.8939 24.0886 -11.5908 
38.2031 24.0886 -9.85987 -37.5331 32.3978 -14.5126 -44.8887 32.3978 -8.96272 
-36.5795 32.9494 -14.5126 -28.2704 35.6759 -14.5126 -19.9612 37.9996 -14.5126 
-11.652 37.2772 -14.5126 4.41618 32.3978 -14.5126 -3.34283 35.3348 -14.5126 
4.96635 32.3978 -14.4159 13.2755 32.3978 -12.8287 21.5847 32.3978 -10.9457 
29.8939 32.3978 -8.76511 -28.2704 40.707 -9.39042 -19.9612 40.707 -12.1185 
-11.652 40.707 -12.3485 -3.34283 40.707 -11.6317 4.96635 40.707 -10.4136 
13.2755 40.707 -8.37118 -3.34283 -50.7538 -6.20339 4.96635 -50.9619 -6.20339 
-36.5795 -43.5905 -6.20339 -28.2704 -47.1817 -6.20339 -19.9612 -49.277 -6.20339 
-4.12756 -50.694 -6.20339 -11.652 -50.0798 -6.20339 -3.34283 -50.694 -6.05271 
7.55291 -50.694 -6.20339 4.96635 -50.694 -5.5313 13.2755 -50.0388 -6.20339 
21.5847 -47.5696 -6.20339 29.8939 -44.0912 -6.20339 -38.329 -42.3848 -6.20339 
-44.8887 -36.6962 -6.20339 -36.5795 -42.3848 -3.78526 33.3688 -42.3848 -6.20339 
29.8939 -42.3848 -1.90579 38.2031 -39.9186 -6.20339 46.5122 -34.216 -6.20339 
-47.1753 -34.0756 -6.20339 -44.8887 -34.0756 -2.4646 46.6687 -34.0756 -6.20339 
46.5122 -34.0756 -5.59357 -52.6261 -25.7665 -6.20339 -53.1979 -24.5243 -6.20339 
53.7272 -25.7665 -6.20339 54.8214 -23.208 -6.20339 -56.18 -17.4573 -6.20339 
-53.1979 -17.4573 -0.28585 56.9977 -17.4573 -6.20339 -60.131 -9.14811 -6.20339 
-61.5071 -4.67197 -6.20339 58.1521 -9.14811 -6.20339 -62.5985 -0.838935 -6.20339 
-61.5071 -0.838935 -3.9026 57.0574 -0.838935 -6.20339 -61.5708 7.47024 -6.20339 
-61.5071 7.77494 -6.20339 -61.5071 7.47024 -5.97581 55.4815 7.47024 -6.20339 
54.8214 10.7407 -6.20339 -59.8304 15.7794 -6.20339 53.2669 15.7794 -6.20339 
46.5122 23.3852 -6.20339 54.8214 15.7794 -5.08169 -55.5313 24.0886 -6.20339 
-53.1979 26.8892 -6.20339 45.9147 24.0886 -6.20339 38.2031 31.2509 -6.20339 
46.5122 24.0886 -5.80844 -47.3011 32.3978 -6.20339 -44.8887 34.2495 -6.20339 
-36.5795 39.2695 -6.20339 21.5847 40.432 -6.20339 36.5989 32.3978 -6.20339 
29.8939 37.2149 -6.20339 38.2031 32.3978 -5.37367 46.5122 32.3978 0.683416 
-33.3136 40.707 -6.20339 -28.2704 42.7246 -6.20339 -19.9612 44.8734 -6.20339 
-11.652 45.8184 -6.20339 -3.34283 45.7695 -6.20339 4.96635 45.0181 -6.20339 
20.9648 40.707 -6.20339 13.2755 43.1308 -6.20339 21.5847 40.707 -5.9795 
29.8939 40.707 -2.89371 -28.2704 -43.2598 2.10579 -19.9612 -45.2622 2.10579 
-11.652 -46.1486 2.10579 -3.34283 -46.8609 2.10579 4.96635 -46.8323 2.10579 
13.2755 -46.1939 2.10579 21.5847 -44.1335 2.10579 -29.9606 -42.3848 2.10579 
-36.5795 -38.432 2.10579 -28.2704 -42.3848 3.03286 -19.9612 -42.3848 5.25669 
-11.652 -42.3848 6.12823 -3.34283 -42.3848 6.80184 4.96635 -42.3848 6.91053 
13.2755 -42.3848 6.32768 25.6028 -42.3848 2.10579 21.5847 -42.3848 4.00911 
29.8939 -40.5405 2.10579 38.2031 -36.9949 2.10579 -41.2309 -34.0756 2.10579 
-44.8887 -29.4171 2.10579 -36.5795 -34.0756 5.85385 -28.2704 -34.0756 9.36757 
29.8939 -34.0756 8.86163 43.4936 -34.0756 2.10579 38.2031 -34.0756 5.78734 
46.5122 -32.2274 2.10579 -47.9143 -25.7665 2.10579 -44.8887 -25.7665 4.61147 
53.6376 -25.7665 2.10579 46.5122 -25.7665 9.94232 54.8214 -24.3622 2.10579 
-51.8813 -17.4573 2.10579 -53.1979 -15.2786 2.10579 -44.8887 -17.4573 9.24199 
59.0494 -17.4573 2.10579 -56.1959 -9.14811 2.10579 -53.1979 -9.14811 6.11231 
61.7334 -9.14811 2.10579 -58.4325 -0.838935 2.10579 -53.1979 -0.838935 9.31139 
62.2779 -0.838935 2.10579 -59.3148 7.47024 2.10579 61.6033 7.47024 2.10579 
-58.5661 15.7794 2.10579 59.4016 15.7794 2.10579 54.8214 23.9092 2.10579 
-55.1381 24.0886 2.10579 -53.1979 26.9534 2.10579 -53.1979 24.0886 6.80614 
54.6781 24.0886 2.10579 54.8214 24.0886 3.3424 -48.4715 32.3978 2.10579 
-44.8887 35.46 2.10579 -36.5795 40.5608 2.10579 38.2031 39.4146 2.10579 
47.6615 32.3978 2.10579 46.5122 33.5659 2.10579 -36.2587 40.707 2.10579 
-28.2704 44.0266 2.10579 -19.9612 46.3147 2.10579 -11.652 47.5627 2.10579 
-3.34283 48.243 2.10579 4.96635 48.3697 2.10579 13.2755 47.8718 2.10579 
21.5847 46.2311 2.10579 35.9913 40.707 2.10579 29.8939 43.577 2.10579 
-19.9612 -34.9646 10.415 -11.652 -35.4952 10.415 -3.34283 -35.3003 10.415 
4.96635 -36.0706 10.415 13.2755 -36.4854 10.415 21.5847 -34.5814 10.415 
-36.5795 -26.2924 10.415 -22.8765 -34.0756 10.415 -28.2704 -31.9443 10.415 
-19.9612 -34.0756 10.9275 -11.652 -34.0756 11.1684 -3.34283 -34.0756 10.9563 
4.96635 -34.0756 11.2933 13.2755 -34.0756 11.7711 23.2646 -34.0756 10.415 
21.5847 -34.0756 10.7493 29.8939 -31.9849 10.415 38.2031 -29.0902 10.415 
-37.0322 -25.7665 10.415 -36.5795 -25.7665 10.6757 -28.2704 -25.7665 13.1685 
-19.9612 -25.7665 14.3174 -11.652 -25.7665 14.1259 -3.34283 -25.7665 13.3742 
4.96635 -25.7665 13.9209 13.2755 -25.7665 14.9886 21.5847 -25.7665 15.1563 
29.8939 -25.7665 14.474 45.4692 -25.7665 10.415 38.2031 -25.7665 12.7552 
46.5122 -25.1939 10.415 54.8214 -17.4626 10.415 -43.1713 -17.4573 10.415 
-44.8887 -15.0169 10.415 -36.5795 -17.4573 13.9365 -28.2704 -17.4573 16.0693 
-19.9612 -17.4573 16.5792 -11.652 -17.4573 16.5235 -3.34283 -17.4573 16.3407 
4.96635 -17.4573 16.8634 13.2755 -17.4573 18.3473 21.5847 -17.4573 18.5806 
29.8939 -17.4573 18.2435 38.2031 -17.4573 17.5408 46.5122 -17.4573 15.0274 
54.8254 -17.4573 10.415 54.8214 -17.4573 10.4192 -48.2949 -9.14811 10.415 
-44.8887 -9.14811 12.9052 -36.5795 -9.14811 16.8102 -28.2704 -9.14811 18.4492 
-19.9612 -9.14811 18.5192 -11.652 -9.14811 18.6901 58.635 -9.14811 10.415 
54.8214 -9.14811 14.6429 -52.0272 -0.838935 10.415 -53.1979 3.92059 10.415 
-44.8887 -0.838935 15.5557 61.0376 -0.838935 10.415 54.8214 -0.838935 17.0388 
[...]
POINT_DATA 520
SCALARS ImageScalars float
LOOKUP_TABLE default
0 0 0 0 0 0 0 0 0 
0 0 0 0 0 0 0 0 0 
0 0 0 0 0 0 0 0 0 
0 0 0 0 0 0 0 0 0 
0 0 0 0 0 0 0 0 0 
0 0 0 0 0 0 0 0 0 
0 0 0 0 0 0 0 0 0 
0 0 0 0 0 0 0 0 0 
0 0 0 0 0 0 0 0 0 
0 0 0 0 0 0 0 0 0 
0 0 0 0 0 0 0 0 0 
0 0 0 0 0 0 0 0 0 
0 0 0 0 0 0 0 0 0 
0 0 0 0 0 0 0 0 0 
0 0 0 0 0 0 0 0 0 
0 0 0 0 0 0 0 0 0 
0 0 0 0 0 0 0 0 0 
0 0 0 0 0 0 0 0 0 
0 0 0 0 0 0 0 0 0 
0 0 0 0 0 0 0 0 0 
0 0 0 0 0 0 0 0 0 
0 0 0 0 0 0 0 0 0 
0 0 0 0 0 0 0 0 0 
0 0 0 0 0 0 0 0 0 
0 0 0 0 0 0 0 0 0 
0 0 0 0 0 0 0 0 0 
0 0 0 0 0 0 0 0 0 
0 0 0 0 0 0 0 0 0 
0 0 0 0 0 0 0 0 0 
0 0 0 0 0 0 0 0 0 
0 0 0 0 0 0 0 0 0 
0 0 0 0 0 0 0 0 0 
0 0 0 0 0 0 0 0 0 
0 0 0 0 0 0 0 0 0 
0 0 0 0 0 0 0 0 0 
0 0 0 0 0 0 0 0 0 
0 0 0 0 0 0 0 0 0 
0 0 0 0 0 0 0 0 0 
0 0 0 0 0 0 0 0 0 
0 0 0 0 0 0 0 0 0 
0 0 0 0 0 0 0 0 0 
0 0 0 0 0 0 0 0 0 
0 0 0 0 0 0 0 0 0 
0 0 0 0 0 0 0 0 0 
0 0 0 0 0 0 0 0 0 
0 0 0 0 0 0 0 0 0 
0 0 0 0 0 0 0 0 0 
0 0 0 0 0 0 0 0 0 
0 0 0 0 0 0 0 0 0 
0 0 0 0 0 0 0 0 0 
0 0 0 0 0 0 0 0 0 
0 0 0 0 0 0 0 0 0 
0 0 0 0 0 0 0 0 0 
0 0 0 0 0 0 0 0 0 
0 0 0 0 0 0 0 0 0 
0 0 0 0 0 0 0 0 0 
0 0 0 0 0 0 0 0 0 
0 0 0 0 0 0 0 
NORMALS Normals float
-0.0793081 -0.0287093 -0.996437 -0.248301 -0.638031 -0.728878 -0.0837096 -0.58906 -0.803742 
-0.0994532 -0.498048 -0.861427 -0.0451085 -0.462973 -0.885224 0.0749159 -0.470608 -0.879156 
0.180488 -0.523338 -0.832791 0.291323 -0.637151 -0.713561 -0.322085 -0.408897 -0.853853 
-0.133017 -0.221562 -0.966031 -0.0357124 -0.186846 -0.98174 0.00394582 -0.107582 -0.994188 
-0.0401549 -0.0955037 -0.994619 0.0463613 -0.114681 -0.99232 0.101746 -0.150639 -0.983339 
0.196462 -0.212408 -0.957228 0.271214 -0.338131 -0.901172 0.465111 -0.46393 -0.75395 
-0.483904 -0.342312 -0.805394 -0.0904602 -0.063854 -0.993851 -0.13696 -0.176072 -0.974803 
-0.0354689 -0.0648155 -0.997267 0.0322546 0.091861 -0.995249 0.0200094 0.121131 -0.992435 
-0.0495438 0.156578 -0.986422 0.0135626 0.111004 -0.993727 0.066201 0.0507033 -0.996517 
0.0865283 0.0273337 -0.995874 0.179838 -0.06155 -0.981769 0.360002 -0.105098 -0.927013 
-0.7246 -0.392201 -0.566686 -0.122566 -0.044747 -0.991451 -0.341856 -0.136042 -0.929853 
0.00557043 0.000289035 -0.999984 -0.0312484 0.00977401 -0.999464 0.137804 0.0486583 -0.989264 
0.147945 0.180324 -0.972417 0.069032 0.21691 -0.973748 -0.0545854 0.10743 -0.992713 
-0.0582659 0.123208 -0.990669 0.0221664 0.117311 -0.992848 0.0756955 0.148147 -0.986064 
0.147613 0.13635 -0.979601 0.245041 0.0727094 -0.966782 0.432591 -0.0373014 -0.900818 
-0.519081 -0.19437 -0.832331 -0.155395 -0.0705209 -0.985332 0.0462894 0.070916 -0.996408 
0.183673 0.094109 -0.978472 0.199113 0.144255 -0.969301 -0.0445121 0.0320675 -0.998494 
-0.149945 -0.0906001 -0.984535 0.0208984 0.129966 -0.991298 0.0890945 0.0610061 -0.994153 
0.115619 0.219582 -0.968719 0.114472 0.205629 -0.971912 0.207118 0.167423 -0.963883 
-0.432647 0.0281789 -0.901123 -0.0938124 0.0431774 -0.994653 0.081756 0.0424007 -0.99575 
0.209156 0.051697 -0.976515 0.0784609 0.0298258 -0.996471 -0.188757 -0.13296 -0.972981 
0.130223 0.0309987 -0.991 0.0599839 0.10566 -0.992592 0.112294 0.101708 -0.988456 
0.204348 0.207075 -0.956745 0.0856259 0.192817 -0.977492 0.181197 0.180088 -0.966817 
-0.458263 0.212209 -0.863112 -0.131414 0.0803978 -0.988062 0.057078 0.0723225 -0.995747 
0.169058 0.0176782 -0.985448 0.0500268 -0.0795356 -0.995576 -0.0665957 0.0142742 -0.997678 
0.0579393 0.110473 -0.992189 0.102075 -0.0702134 -0.992296 0.22313 0.202691 -0.953483 
0.173041 0.12989 -0.976312 0.0944747 0.140564 -0.985554 -0.5375 0.339074 -0.77209 
-0.227126 0.236949 -0.9446 0.0162643 0.167173 -0.985793 0.0601834 0.0370172 -0.997501 
0.0518653 -0.0488019 -0.997461 0.0286442 0.0438905 -0.998626 0.0116405 0.106274 -0.994269 
0.165745 0.109544 -0.980066 0.310605 0.175412 -0.934214 -0.323905 0.468994 -0.821663 
-0.146864 0.314307 -0.937892 -0.0461012 0.183165 -0.982001 0.0472284 0.127282 -0.990742 
0.0956974 0.13412 -0.986334 0.117289 0.194439 -0.973877 0.174996 0.272152 -0.946208 
0.215298 0.182318 -0.959378 -0.288593 0.561278 -0.775681 -0.154532 0.466116 -0.871123 
-0.00451408 0.360068 -0.932915 0.101183 0.33166 -0.937957 0.145044 0.322615 -0.935351 
-0.292942 -0.813339 -0.502657 -0.153673 -0.815052 -0.558636 -0.106056 -0.84503 -0.524096 
-0.0465461 -0.8729 -0.485674 -0.0515748 -0.994243 0.093917 0.0842842 -0.861619 -0.500508 
0.0471957 -0.998749 0.0165391 0.222335 -0.799377 -0.558179 0.318527 -0.742181 -0.589667 
-0.458847 -0.731194 -0.504792 -0.499375 -0.699355 -0.511397 -0.546423 -0.80799 -0.220394 
0.374254 -0.719276 -0.5853 0.387973 -0.679935 -0.622226 0.433868 -0.829982 -0.350555 
0.484584 -0.54885 -0.681133 -0.64969 -0.573739 -0.498725 -0.652072 -0.571871 -0.497761 
-0.661885 -0.579958 -0.474928 0.519971 -0.480543 -0.706193 0.656696 -0.732765 -0.178342 
-0.727972 -0.480375 -0.48918 -0.775863 -0.440997 -0.451173 0.474831 -0.26302 -0.839855 
0.477538 -0.175856 -0.860832 0.540471 -0.327713 -0.774916 -0.808961 -0.401993 -0.428934 
0.492076 -0.0484948 -0.869201 0.387724 0.125468 -0.913197 0.783764 -0.159363 -0.600264 
-0.854595 -0.241396 -0.459778 0.368223 0.15098 -0.917397 0.37999 0.148008 -0.913072 
0.640142 0.0272872 -0.767772 -0.849449 -0.0261835 -0.527021 -0.988533 -0.0749937 -0.131066 
0.212575 0.178603 -0.960684 0.181488 0.167107 -0.969091 0.340554 0.167175 -0.925243 
0.616041 0.11498 -0.779277 -0.786393 0.169469 -0.594026 -0.986977 0.159722 -0.019132 
0.144048 0.116844 -0.982648 0.0949972 0.140538 -0.985507 0.0944881 0.14076 -0.985525 
0.181333 0.142493 -0.973044 0.348743 0.188036 -0.918161 0.618475 0.150435 -0.77127 
-0.64676 0.364665 -0.669867 -0.591101 0.455836 -0.665442 0.160686 0.120975 -0.979564 
0.13342 0.112802 -0.984619 0.099701 0.172934 -0.979874 0.233134 0.213779 -0.948655 
0.376744 0.267266 -0.886923 -0.510767 0.52217 -0.682976 -0.713635 0.589729 -0.378081 
-0.412084 0.555843 -0.721959 0.172449 0.324792 -0.929931 0.210412 0.179162 -0.961056 
0.21066 0.195174 -0.957878 0.180909 0.177689 -0.967315 0.186089 0.266003 -0.94584 
0.289361 0.339671 -0.894927 -0.30519 0.578907 -0.756125 -0.522853 0.732993 -0.435139 
-0.292802 0.581696 -0.758879 -0.196236 0.574616 -0.794549 -0.0642292 0.57963 -0.812345 
0.0769591 0.497366 -0.864121 0.170215 0.327283 -0.929469 0.12828 0.406508 -0.904597 
0.172145 0.327833 -0.928919 0.185104 0.320349 -0.929039 0.229924 0.362886 -0.903022 
0.267046 0.400961 -0.876308 -0.276261 0.810773 -0.51607 -0.11068 0.732347 -0.671877 
0.0276711 0.659565 -0.751138 0.093778 0.619899 -0.779057 0.165958 0.595982 -0.785661 
0.215441 0.613937 -0.759385 -0.0515486 -0.992055 0.114758 0.040505 -0.994542 0.0961513 
-0.525847 -0.844923 0.0979286 -0.308979 -0.94809 0.0752088 -0.1735 -0.980389 0.0934568 
-0.0545417 -0.992002 0.113834 -0.0850488 -0.991365 0.0998131 -0.0515521 -0.991206 0.121873 
0.0922575 -0.991703 0.0895188 0.0400217 -0.990155 0.13413 0.204097 -0.976592 0.0679183 
0.319793 -0.947317 0.0179434 0.424166 -0.905177 0.0271516 -0.572032 -0.814611 0.0958522 
-0.738347 -0.664405 0.115802 -0.527615 -0.818248 0.228237 0.451996 -0.891928 0.0128012 
0.407669 -0.869719 0.278199 0.508913 -0.860021 -0.0370374 0.653801 -0.738683 -0.163987 
-0.783581 -0.609202 0.121953 -0.73472 -0.593827 0.327956 0.65679 -0.735431 -0.166638 
0.651193 -0.747856 -0.129068 -0.870511 -0.485918 0.0780602 -0.876536 -0.473354 0.0872986 
0.829963 -0.470733 -0.299286 0.844611 -0.394923 -0.36148 -0.903282 -0.41133 0.122019 
-0.809754 -0.39183 0.43677 0.843772 -0.221546 -0.488841 -0.938904 -0.326551 0.108739 
-0.975124 -0.200768 0.0939415 0.746183 -0.0175082 -0.665511 -0.993721 -0.0876354 0.0695598 
-0.973348 -0.112435 0.199877 0.685012 0.11853 -0.718825 -0.987155 0.159531 -0.00863912 
-0.986387 0.16409 -0.0107043 -0.98783 0.155517 0.00242605 0.638607 0.151188 -0.754535 
0.624139 0.20527 -0.753866 -0.946199 0.309476 -0.094511 0.574465 0.290844 -0.765114 
0.48855 0.413506 -0.768331 0.652203 0.303467 -0.69465 -0.789432 0.576166 -0.211733 
-0.732916 0.63592 -0.241741 0.486674 0.420224 -0.765872 0.3802 0.522065 -0.763476 
0.506308 0.432059 -0.746309 -0.600049 0.746121 -0.288521 -0.557363 0.770765 -0.308656 
-0.413716 0.849764 -0.326712 0.219755 0.620129 -0.753092 0.366777 0.52353 -0.769019 
0.303617 0.567598 -0.765277 0.401712 0.563792 -0.721641 0.630209 0.652266 -0.421172 
-0.366573 0.867623 -0.335939 -0.299287 0.886855 -0.352017 -0.180113 0.905541 -0.384128 
-0.0507939 0.89894 -0.435117 0.0398631 0.859191 -0.510099 0.133337 0.780978 -0.610159 
0.218578 0.628854 -0.746167 0.206819 0.696716 -0.686886 0.220597 0.635285 -0.740101 
0.347325 0.760544 -0.548579 -0.304502 -0.741485 0.597896 -0.140661 -0.80048 0.582621 
-0.0840709 -0.805478 0.586633 -0.0361008 -0.813929 0.579841 0.0356318 -0.797153 0.602725 
0.128753 -0.809296 0.573117 0.27874 -0.778221 0.56274 -0.340325 -0.727069 0.596279 
-0.481919 -0.660185 0.576116 -0.298563 -0.714426 0.632816 -0.140292 -0.694747 0.705439 
-0.0747393 -0.649947 0.756295 -0.0378491 -0.602157 0.79748 0.0222976 -0.634965 0.772219 
0.125649 -0.67907 0.72324 0.322905 -0.768895 0.551845 0.269707 -0.719162 0.640362 
0.342327 -0.775579 0.530367 0.392557 -0.801199 0.45164 -0.593216 -0.555254 0.582913 
-0.648097 -0.492832 0.580592 -0.439801 -0.527782 0.726651 -0.247573 -0.485069 0.838699 
0.21621 -0.625561 0.749618 0.461869 -0.779918 0.422381 0.353581 -0.718824 0.598559 
0.523152 -0.762093 0.381478 -0.680763 -0.448074 0.579475 -0.609852 -0.43234 0.664201 
0.748897 -0.611243 0.255997 0.413946 -0.603741 0.681283 0.789746 -0.574009 0.216369 
-0.739481 -0.373178 0.560273 -0.758394 -0.361646 0.542264 -0.569107 -0.366934 0.735851 
0.901041 -0.42638 0.0795368 -0.807347 -0.30452 0.50543 -0.701679 -0.332935 0.629921 
0.982904 -0.183495 -0.0151698 -0.842958 -0.180017 0.506968 -0.70308 -0.210878 0.679124 
0.985873 0.00369242 -0.167452 -0.908436 -0.00656793 0.417972 0.946084 0.184247 -0.266417 
-0.915267 0.236834 0.325878 0.893965 0.351902 -0.277473 0.7648 0.566395 -0.307047 
-0.853052 0.481066 0.202182 -0.813647 0.554083 0.175985 -0.806567 0.443469 0.390878 
0.761017 0.57028 -0.309247 0.785064 0.571701 -0.238397 -0.689173 0.715529 0.114276 
-0.61672 0.782806 0.0828877 -0.444999 0.894261 0.0476736 0.481449 0.805087 -0.346469 
0.661695 0.665051 -0.346217 0.640395 0.68556 -0.346267 -0.439517 0.897003 0.0470103 
-0.314845 0.947858 0.0493721 -0.214763 0.974851 0.0595211 -0.113685 0.99339 0.0158533 
-0.0478552 0.997434 -0.0532378 0.0202482 0.993345 -0.113386 0.127114 0.967886 -0.216885 
0.2481 0.933546 -0.258724 0.447784 0.834816 -0.320269 0.360141 0.887725 -0.286779 
-0.0946763 -0.472272 0.876354 -0.0120488 -0.44242 0.896727 -0.0130613 -0.3784 0.92555 
-0.0327859 -0.413953 0.909708 0.0560282 -0.494107 0.867594 0.148331 -0.536849 0.830537 
-0.38553 -0.395187 0.833783 -0.143321 -0.465247 0.873501 -0.233975 -0.446353 0.863727 
-0.0903531 -0.456252 0.885252 -0.00126878 -0.416424 0.90917 -0.00689461 -0.353675 0.935343 
-0.0464071 -0.362629 0.930778 0.027364 -0.441252 0.896966 0.155948 -0.546101 0.823076 
0.141882 -0.529727 0.836217 0.186927 -0.578381 0.794061 0.25202 -0.576677 0.777129 
-0.395897 -0.389992 0.831368 -0.385735 -0.390708 0.835796 -0.202447 -0.356376 0.912147 
-0.0512076 -0.313197 0.948307 0.0566406 -0.298977 0.952578 0.00990649 -0.29105 0.956657 
-0.0919479 -0.295995 0.950754 -0.0727865 -0.366095 0.927726 0.0247976 -0.417763 0.908217 
0.127118 -0.471812 0.872487 0.380002 -0.590646 0.711853 0.210915 -0.530737 0.820873 
0.401372 -0.586451 0.703545 0.636377 -0.47293 0.609395 -0.517868 -0.36006 0.775996 
-0.548125 -0.351024 0.759172 -0.339458 -0.334152 0.879267 -0.1456 -0.29844 0.943257 
-0.025631 -0.248755 0.968227 0.013296 -0.267109 0.963575 -0.0175054 -0.416276 0.90907 
-0.114834 -0.403745 0.907636 -0.0910719 -0.377797 0.921399 0.00542008 -0.333592 0.942702 
0.0558112 -0.349438 0.935296 0.162933 -0.407422 0.898588 0.328377 -0.435755 0.838025 
0.636528 -0.472847 0.609302 0.636292 -0.472875 0.609526 -0.570254 -0.321156 0.756088 
-0.509519 -0.310425 0.802513 -0.284153 -0.280364 0.916871 -0.0940723 -0.218545 0.971282 
-0.0140383 -0.172316 0.984942 -0.0964922 -0.172599 0.980254 0.763927 -0.326054 0.556871 
0.607523 -0.308319 0.732022 -0.661411 -0.216303 0.718157 -0.702182 -0.12723 0.700538 
-0.46071 -0.207729 0.862899 0.894525 -0.141517 0.424025 0.587589 -0.163185 0.792534 
-0.722813 -0.06207 0.68825 -0.703899 -0.0637533 0.707433 -0.459279 -0.0685497 0.885643 
0.952432 0.0962419 0.289155 0.581841 0.00262572 0.813298 -0.747186 0.115183 0.654558 
-0.749588 0.180565 0.6368 -0.730933 0.109865 0.673548 -0.473565 0.102073 0.874824 
0.905817 0.31845 0.279438 0.731231 0.202243 0.651459 -0.713421 0.385457 0.585196 
-0.516293 0.296752 0.803355 0.837505 0.517397 0.175745 0.825067 0.538393 0.171455 
0.824421 0.506022 0.253519 -0.617203 0.616303 0.489113 -0.616785 0.616839 0.488965 
-0.616662 0.615983 0.490197 -0.434367 0.756828 0.488402 -0.382488 0.517096 0.765712 
0.470533 0.870612 0.143642 0.70252 0.696931 0.144059 0.655274 0.7405 0.149248 
0.632636 0.652251 0.41754 -0.33434 0.814416 0.474282 -0.288375 0.827835 0.481174 
-0.280152 0.792164 0.54221 -0.207138 0.852733 0.479521 -0.203668 0.721849 0.661403 
-0.177024 0.877923 0.444875 -0.16714 0.630212 0.75822 -0.122276 0.912135 0.391225 
-0.116835 0.586914 0.801175 -0.0585975 0.943483 0.3262 0.0779726 0.956139 0.282345 
0.204107 0.957585 0.203399 0.464924 0.873287 0.145657 0.33294 0.922155 0.19693 
0.284297 0.754305 0.591776 -0.0781185 -0.323424 0.943024 -0.0989001 -0.347964 0.932277 
-0.0827809 -0.368723 0.925846 0.0070139 -0.32944 0.94415 0.050591 -0.336814 0.940211 
0.145465 -0.36272 0.920475 0.269446 -0.324312 0.906764 -0.23057 -0.199114 0.952466 
-0.0809756 -0.198069 0.976838 -0.00715871 -0.154031 0.98804 -0.0967514 -0.174708 0.979855 
-0.0963907 -0.167062 0.981223 -0.106698 -0.251004 0.962088 -0.0867461 -0.270652 0.958761 
-0.0285294 -0.282032 0.958981 0.0387482 -0.264526 0.9636 0.0283202 -0.284089 0.95838 
0.121221 -0.298043 0.946824 0.281034 -0.318234 0.905399 0.268635 -0.319391 0.908749 
-0.242199 -0.188332 0.951772 -0.224139 -0.185994 0.956644 -0.0317069 -0.119059 0.992381 
0.0185985 -0.0813339 0.996513 -0.0954962 -0.0381116 0.9947 -0.141599 -0.106897 0.984136 
-0.135808 -0.105263 0.985127 -0.0659393 -0.104659 0.99232 0.00870213 -0.188106 0.98211 
0.0284518 -0.221074 0.974842 0.124042 -0.202431 0.971409 0.445783 -0.169243 0.878996 
0.289025 -0.197496 0.936728 -0.315824 -0.0660471 0.946516 -0.188949 -0.0702976 0.979467 
0.0108798 -0.0676446 0.99765 0.0692 -0.0610008 0.995736 -0.116698 -0.034299 0.992575 
-0.17808 0.03101 0.983527 -0.0892106 0.0201329 0.995809 -0.120216 0.0106578 0.992691 
-0.0729228 -0.0840723 0.993788 0.00850462 -0.11531 0.993293 0.129266 -0.0947863 0.987069 
0.549426 -0.00992196 0.835483 0.293951 -0.113286 0.949083 -0.339146 0.0879932 0.936609 
-0.225696 0.0737561 0.971402 -0.0179925 -0.0138432 0.999742 0.0541522 -0.0687238 0.996165 
-0.00522909 -0.0966484 0.995305 -0.0920695 0.0129296 0.995669 -0.149696 -0.0119575 0.98866 
-0.173153 -0.0133744 0.984804 -0.117457 0.00279392 0.993074 0.0159568 0.00697754 0.999848 
0.138001 0.0251526 0.990113 0.626708 0.154078 0.76387 0.345943 0.110372 0.931741 
-0.310115 0.228805 0.922755 -0.308379 0.23373 0.922102 -0.306222 0.228196 0.924205 
-0.12213 0.119851 0.985251 -0.0133388 0.0490555 0.998707 -0.0359517 -0.0122561 0.999278 
-0.0917988 -0.0555727 0.994226 -0.116901 -0.0535702 0.991698 -0.110424 0.0129913 0.9938 
-0.0487951 0.104576 0.993319 0.0296788 0.146895 0.988707 0.250397 0.224214 0.941822 
0.526021 0.371473 0.765055 0.496285 0.453553 0.740264 0.441836 0.350191 0.825922 
-0.20886 0.415636 0.885226 -0.199165 0.42391 0.883535 -0.196586 0.409847 0.890719 
-0.10259 0.386363 0.916624 -0.0807858 0.326241 0.941828 -0.136938 0.3893 0.910875 
-0.111675 0.216602 0.969852 -0.117477 0.501311 0.857255 -0.136786 0.189102 0.972384 
-0.0771008 0.176821 0.981218 -0.0107278 0.225709 0.974136 0.0256492 0.275447 0.960974 
0.216223 0.606062 0.765465 0.13233 0.397752 0.9079 0.431594 0.52029 0.736902 
0.337056 0.571493 0.74819 0.301505 0.464496 0.832669 -0.0797479 0.563661 0.822147 
-0.0648199 0.574953 0.815615 -0.0651723 0.561774 0.82472 -0.0176779 0.592762 0.805184 
-0.0168189 0.570725 0.820969 0.149967 0.614695 0.774377 0.108947 0.610075 0.784818 
0.10472 0.575931 0.810764 
