# vtk DataFile Version 4.2
vtk output
ASCII
DATASET POLYDATA
POINTS 514 float
-3.0211 -32.585 -12.9869 4.02304 -32.585 -12.8818 -17.1094 -25.5409 -13.6815 
-10.0652 -25.5409 -14.6868 -3.0211 -25.5409 -14.9508 4.02304 -25.5409 -14.993 
11.0672 -25.5409 -15.1131 18.1113 -25.5409 -15.2003 25.1554 -25.5409 -15.3461 
32.1996 -25.5409 -14.0674 -31.1976 -18.4968 -12.9271 -24.1535 -18.4968 -14.4739 
-17.1094 -18.4968 -15.1249 -10.0652 -18.4968 -15.2105 -3.0211 -18.4968 -15.4523 
4.02304 -18.4968 -15.5502 11.0672 -18.4968 -15.8681 18.1113 -18.4968 -17.24 
25.1554 -18.4968 -17.6059 32.1996 -18.4968 -17.2537 39.2437 -18.4968 -14.4569 
-38.2418 -11.4526 -12.9961 -31.1976 -11.4526 -14.5221 -24.1535 -11.4526 -15.4046 
-17.1094 -11.4526 -15.3791 -10.0652 -11.4526 -15.3499 -3.0211 -11.4526 -16.7393 
4.02304 -11.4526 -16.076 11.0672 -11.4526 -16.5578 18.1113 -11.4526 -18.1027 
25.1554 -11.4526 -18.7456 32.1996 -11.4526 -18.4013 39.2437 -11.4526 -16.1366 
-38.2418 -4.4085 -13.1117 -31.1976 -4.4085 -15.1916 -24.1535 -4.4085 -15.9945 
-17.1094 -4.4085 -15.7508 -10.0652 -4.4085 -17.1978 -3.0211 -4.4085 -18.4461 
4.02304 -4.4085 -17.4502 11.0672 -4.4085 -18.2854 18.1113 -4.4085 -18.8731 
25.1554 -4.4085 -18.772 32.1996 -4.4085 -18.2895 39.2437 -4.4085 -17.0148 
46.2878 -4.4085 -14.4309 -38.2418 2.63563 -12.588 -31.1976 2.63563 -14.7743 
-24.1535 2.63563 -15.8612 -17.1094 2.63563 -16.5875 -10.0652 2.63563 -18.4495 
-3.0211 2.63563 -16.2809 4.02304 2.63563 -16.762 11.0672 2.63563 -19.4812 
18.1113 2.63563 -18.9508 25.1554 2.63563 -18.6675 32.1996 2.63563 -18.2116 
39.2437 2.63563 -17.0161 46.2878 2.63563 -14.7022 -31.1976 9.67977 -13.9973 
-24.1535 9.67977 -15.0908 -17.1094 9.67977 -15.7421 -10.0652 9.67977 -15.7542 
-3.0211 9.67977 -16.3092 4.02304 9.67977 -18.0621 11.0672 9.67977 -17.865 
18.1113 9.67977 -18.1013 25.1554 9.67977 -18.6687 32.1996 9.67977 -18.5302 
39.2437 9.67977 -16.8928 46.2878 9.67977 -14.4518 -31.1976 16.7239 -12.5638 
-24.1535 16.7239 -14.3309 -17.1094 16.7239 -15.0511 -10.0652 16.7239 -14.8908 
-3.0211 16.7239 -15.0801 4.02304 16.7239 -15.9066 11.0672 16.7239 -16.5477 
18.1113 16.7239 -17.2462 25.1554 16.7239 -18.0514 32.1996 16.7239 -17.8576 
39.2437 16.7239 -16.7763 46.2878 16.7239 -13.0692 -24.1535 23.768 -13.3476 
-17.1094 23.768 -14.5674 -10.0652 23.768 -14.8683 -3.0211 23.768 -15.2557 
4.02304 23.768 -15.5947 11.0672 23.768 -16.0134 18.1113 23.768 -16.9464 
25.1554 23.768 -17.3163 32.1996 23.768 -16.4988 39.2437 23.768 -14.7324 
-17.1094 30.8122 -12.9239 -10.0652 30.8122 -14.2752 -3.0211 30.8122 -14.1702 
4.02304 30.8122 -14.4445 11.0672 30.8122 -14.697 18.1113 30.8122 -15.5017 
25.1554 30.8122 -15.5558 32.1996 30.8122 -13.676 -3.0211 -33.3229 -12.485 
4.02304 -33.1536 -12.485 -24.1535 -32.585 -6.03706 -17.1094 -28.3341 -12.485 
-17.1094 -32.585 -9.83667 -6.63479 -32.585 -12.485 -10.0652 -31.3987 -12.485 
-10.0652 -32.585 -11.8794 7.26584 -32.585 -12.485 11.0672 -31.5993 -12.485 
11.0672 -32.585 -11.8443 18.1113 -30.3454 -12.485 18.1113 -32.585 -10.617 
25.1554 -30.2151 -12.485 25.1554 -32.585 -8.9621 32.1996 -27.383 -12.485 
-31.1976 -19.4743 -12.485 -31.1976 -25.5409 -9.09726 -22.4996 -25.5409 -12.485 
-24.1535 -24.4525 -12.485 -24.1535 -25.5409 -12.0625 35.5089 -25.5409 -12.485 
39.2437 -22.3222 -12.485 39.2437 -25.5409 -9.4186 -32.3566 -18.4968 -12.485 
-38.2418 -12.8908 -12.485 -38.2418 -18.4968 -9.88841 42.3895 -18.4968 -12.485 
46.2878 -18.4968 -8.35648 -39.1279 -11.4526 -12.485 -45.2859 -11.4526 -7.82876 
46.2573 -11.4526 -12.485 46.2878 -11.4008 -12.485 46.2878 -11.4526 -12.4645 
-39.4558 -4.4085 -12.485 -45.2859 -4.4085 -9.04884 50.0683 -4.4085 -12.485 
53.332 -4.4085 -8.33079 -38.4398 2.63563 -12.485 -45.2859 2.63563 -8.3211 
-38.2418 3.40038 -12.485 50.5617 2.63563 -12.485 53.332 2.63563 -8.90746 
-45.2859 9.67977 -6.5207 -35.8733 9.67977 -12.485 -38.2418 9.67977 -11.5346 
49.5925 9.67977 -12.485 53.332 9.67977 -6.61876 -31.4014 16.7239 -12.485 
-38.2418 16.7239 -9.63351 -31.1976 17.2326 -12.485 47.0447 16.7239 -12.485 
46.2878 17.8059 -12.485 -38.2418 23.768 -5.72814 -27.3694 23.768 -12.485 
-31.1976 23.768 -11.3735 -24.1535 26.7138 -12.485 42.1551 23.768 -12.485 
39.2437 26.7534 -12.485 -31.1976 30.8122 -6.02238 -18.8999 30.8122 -12.485 
-24.1535 30.8122 -10.951 -17.1094 31.5258 -12.485 -10.0652 34.6521 -12.485 
-3.0211 35.882 -12.485 4.02304 37.0492 -12.485 11.0672 37.3954 -12.485 
18.1113 36.3834 -12.485 25.1554 34.3128 -12.485 34.1316 30.8122 -12.485 
32.1996 32.0795 -12.485 -17.1094 37.8563 -6.07077 -10.0652 37.8563 -9.27949 
-3.0211 37.8563 -11.1953 4.02304 37.8563 -11.9669 11.0672 37.8563 -12.136 
18.1113 37.8563 -9.88476 -24.1535 -33.0532 -5.44087 -17.1094 -36.027 -5.44087 
-10.0652 -38.0508 -5.44087 -3.0211 -38.9886 -5.44087 -3.0211 -39.6292 1.21985 
4.02304 -38.6065 -5.44087 11.0672 -37.3431 -5.44087 18.1113 -35.8593 -5.44087 
25.1554 -34.0893 -5.44087 -25.1751 -32.585 -5.44087 -31.1976 -29.367 -5.44087 
-31.1976 -32.585 0.429175 29.9397 -32.585 -5.44087 32.1996 -31.8442 -5.44087 
39.2437 -27.9781 -5.44087 -37.1181 -25.5409 -5.44087 -38.2418 -24.6427 -5.44087 
-38.2418 -25.5409 -4.33461 42.1437 -25.5409 -5.44087 46.2878 -21.0286 -5.44087 
-44.0915 -18.4968 -5.44087 -45.2859 -16.5478 -5.44087 -45.2859 -18.4968 -3.90833 
48.1622 -18.4968 -5.44087 -47.839 -11.4526 -5.44087 52.2021 -11.4526 -5.44087 
53.332 -8.30428 -5.44087 -49.1044 -4.4085 -5.44087 -52.33 -4.4085 1.54041 
54.612 -4.4085 -5.44087 -48.3131 2.63563 -5.44087 54.8564 2.63563 -5.44087 
-46.3862 9.67977 -5.44087 -45.2859 12.9847 -5.44087 53.7878 9.67977 -5.44087 
53.332 10.9865 -5.44087 53.332 9.67977 -3.21766 -43.8916 16.7239 -5.44087 
-45.2859 16.7239 -3.42721 50.8297 16.7239 -5.44087 46.2878 22.8499 -5.44087 
-38.5815 23.768 -5.44087 -38.2418 24.2184 -5.44087 45.2418 23.768 -5.44087 
39.2437 28.525 -5.44087 39.2437 23.768 -0.457426 -32.0163 30.8122 -5.44087 
-31.1976 31.3686 -5.44087 -24.1535 35.7089 -5.44087 25.1554 37.3712 -5.44087 
25.1554 30.8122 1.43243 36.8219 30.8122 -5.44087 32.1996 33.8574 -5.44087 
32.1996 30.8122 0.402626 -18.2265 37.8563 -5.44087 -17.1094 38.208 -5.44087 
-17.1094 37.8563 -2.75802 -10.0652 39.8092 -5.44087 -3.0211 40.6657 -5.44087 
4.02304 40.8922 -5.44087 11.0672 40.6865 -5.44087 11.0672 37.8563 0.284399 
23.7972 37.8563 -5.44087 18.1113 39.334 -5.44087 18.1113 37.8563 -2.47046 
-3.0211 -39.6624 1.60327 -31.1976 -33.0408 1.60327 -24.1535 -36.0064 1.60327 
-17.1094 -38.1164 1.60327 -3.76213 -39.6292 1.60327 -10.0652 -39.3454 1.60327 
-2.69407 -39.6292 1.60327 -3.0211 -39.6292 1.75273 4.02304 -38.9382 1.60327 
11.0672 -37.6374 1.60327 18.1113 -36.1212 1.60327 25.1554 -34.1899 1.60327 
-31.9641 -32.585 1.60327 -38.2418 -28.5352 1.60327 -31.1976 -32.585 6.73743 
29.2097 -32.585 1.60327 25.1554 -32.585 5.39292 32.1996 -31.2121 1.60327 
39.2437 -26.5634 1.60327 -41.8793 -25.5409 1.60327 -45.2859 -22.0181 1.60327 
32.1996 -25.5409 8.63181 40.4337 -25.5409 1.60327 39.2437 -25.5409 2.94103 
46.2878 -19.3942 1.60327 -48.0538 -18.4968 1.60327 47.0891 -18.4968 1.60327 
46.2878 -18.4968 2.50782 -51.366 -11.4526 1.60327 -52.33 -4.57994 1.60327 
51.4556 -11.4526 1.60327 46.2878 -11.4526 8.06814 53.332 -7.11686 1.60327 
-52.352 -4.4085 1.60327 -52.33 -4.04142 1.60327 -52.33 -4.4085 1.92094 
54.3916 -4.4085 1.60327 53.332 -4.4085 3.327 -51.9041 2.63563 1.60327 
54.3874 2.63563 1.60327 53.332 6.31011 1.60327 53.332 2.63563 3.24197 
-50.573 9.67977 1.60327 52.1782 9.67977 1.60327 46.2878 9.67977 7.48863 
-47.6646 16.7239 1.60327 -45.2859 20.8639 1.60327 25.1554 16.7239 8.49012 
32.1996 16.7239 7.83012 39.2437 22.1996 1.60327 39.2437 16.7239 6.31179 
46.3457 16.7239 1.60327 46.2878 16.799 1.60327 46.2878 16.7239 1.66775 
-43.3509 23.768 1.60327 -38.2418 29.0347 1.60327 18.1113 23.768 7.67124 
25.1554 30.5606 1.60327 25.1554 23.768 5.36328 36.4512 23.768 1.60327 
32.1996 29.1888 1.60327 32.1996 23.768 3.64767 -35.9229 30.8122 1.60327 
-31.1976 33.6508 1.60327 -24.1535 36.2224 1.60327 -17.1094 37.2753 1.60327 
4.02304 30.8122 8.10072 11.0672 36.8871 1.60327 11.0672 30.8122 6.45288 
24.8684 30.8122 1.60327 18.1113 34.8939 1.60327 18.1113 30.8122 4.63646 
-11.4638 37.8563 1.60327 -10.0652 38.0159 1.60327 -10.0652 37.8563 1.83085 
-3.0211 38.3596 1.60327 -3.0211 37.8563 2.21328 5.75613 37.8563 1.60327 
4.02304 38.126 1.60327 4.02304 37.8563 1.90611 -24.1535 -34.99 8.64741 
-17.1094 -36.9144 8.64741 -10.0652 -37.821 8.64741 -3.0211 -37.8349 8.64741 
4.02304 -36.7271 8.64741 11.0672 -35.1779 8.64741 18.1113 -33.4375 8.64741 
-38.2418 -28.0309 8.64741 -30.6707 -32.585 8.64741 -31.1976 -32.3606 8.64741 
-24.1535 -32.585 11.7312 -17.1094 -32.585 14.0647 -10.0652 -32.585 14.6372 
-3.0211 -32.585 14.4173 4.02304 -32.585 13.3416 11.0672 -32.585 11.8483 
20.6343 -32.585 8.64741 18.1113 -32.585 9.68966 25.1554 -30.4835 8.64741 
-41.2582 -25.5409 8.64741 -45.2859 -21.3793 8.64741 -38.2418 -25.5409 11.9001 
-31.1976 -25.5409 15.5253 18.1113 -25.5409 14.5587 32.1761 -25.5409 8.64741 
25.1554 -25.5409 12.2083 32.1996 -25.5189 8.64741 39.2437 -19.6455 8.64741 
-47.5415 -18.4968 8.64741 -45.2859 -18.4968 12.3237 25.1554 -18.4968 13.9658 
32.1996 -18.4968 12.0893 40.2698 -18.4968 8.64741 39.2437 -18.4968 9.31345 
-50.6546 -11.4526 8.64741 -45.2859 -11.4526 15.5593 25.1554 -11.4526 14.8046 
32.1996 -11.4526 13.5694 45.3934 -11.4526 8.64741 39.2437 -11.4526 11.5674 
46.2878 -10.2119 8.64741 -51.8199 -4.4085 8.64741 25.1554 -4.4085 15.0046 
32.1996 -4.4085 14.2642 39.2437 -4.4085 12.862 48.9258 -4.4085 8.64741 
46.2878 -4.4085 10.5444 -51.6289 2.63563 8.64741 25.1554 2.63563 14.9398 
32.1996 2.63563 14.1401 39.2437 2.63563 12.7987 48.8993 2.63563 8.64741 
46.2878 7.41343 8.64741 46.2878 2.63563 10.5622 -50.5449 9.67977 8.64741 
18.1113 9.67977 13.6591 25.1554 16.4554 8.64741 25.1554 9.67977 12.3691 
32.1996 15.3903 8.64741 32.1996 9.67977 11.8433 43.6935 9.67977 8.64741 
39.2437 12.7266 8.64741 39.2437 9.67977 10.4842 -47.6658 16.7239 8.64741 
-45.2859 20.6442 8.64741 -45.2859 16.7239 13.2181 4.02304 16.7239 15.5945 
[...]
POINT_DATA 514
SCALARS ImageScalars float
LOOKUP_TABLE default
0 0 0 0 0 0 0 0 0 
0 0 0 0 0 0 0 0 0 
0 0 0 0 0 0 0 0 0 
0 0 0 0 0 0 0 0 0 
0 0 0 0 0 0 0 0 0 
0 0 0 0 0 0 0 0 0 
0 0 0 0 0 0 0 0 0 
0 0 0 0 0 0 0 0 0 
0 0 0 0 0 0 0 0 0 
0 0 0 0 0 0 0 0 0 
0 0 0 0 0 0 0 0 0 
0 0 0 0 0 0 0 0 0 
0 0 0 0 0 0 0 0 0 
0 0 0 0 0 0 0 0 0 
0 0 0 0 0 0 0 0 0 
0 0 0 0 0 0 0 0 0 
0 0 0 0 0 0 0 0 0 
0 0 0 0 0 0 0 0 0 
0 0 0 0 0 0 0 0 0 
0 0 0 0 0 0 0 0 0 
0 0 0 0 0 0 0 0 0 
0 0 0 0 0 0 0 0 0 
0 0 0 0 0 0 0 0 0 
0 0 0 0 0 0 0 0 0 
0 0 0 0 0 0 0 0 0 
0 0 0 0 0 0 0 0 0 
0 0 0 0 0 0 0 0 0 
0 0 0 0 0 0 0 0 0 
0 0 0 0 0 0 0 0 0 
0 0 0 0 0 0 0 0 0 
0 0 0 0 0 0 0 0 0 
0 0 0 0 0 0 0 0 0 
0 0 0 0 0 0 0 0 0 
0 0 0 0 0 0 0 0 0 
0 0 0 0 0 0 0 0 0 
0 0 0 0 0 0 0 0 0 
0 0 0 0 0 0 0 0 0 
0 0 0 0 0 0 0 0 0 
0 0 0 0 0 0 0 0 0 
0 0 0 0 0 0 0 0 0 
0 0 0 0 0 0 0 0 0 
0 0 0 0 0 0 0 0 0 
0 0 0 0 0 0 0 0 0 
0 0 0 0 0 0 0 0 0 
0 0 0 0 0 0 0 0 0 
0 0 0 0 0 0 0 0 0 
0 0 0 0 0 0 0 0 0 
0 0 0 0 0 0 0 0 0 
0 0 0 0 0 0 0 0 0 
0 0 0 0 0 0 0 0 0 
0 0 0 0 0 0 0 0 0 
0 0 0 0 0 0 0 0 0 
0 0 0 0 0 0 0 0 0 
0 0 0 0 0 0 0 0 0 
0 0 0 0 0 0 0 0 0 
0 0 0 0 0 0 0 0 0 
0 0 0 0 0 0 0 0 0 
0 
NORMALS Normals float
0.0551734 0.467676 0.882176 -0.0615804 0.486638 0.871431 0.172153 0.300157 0.938227 
0.0852239 0.193225 0.977446 0.021838 0.166967 0.985721 0.0115775 0.179045 0.983773 
0.0139382 0.224739 0.974319 0.0163726 0.371847 0.92815 -0.0624954 0.433349 0.899057 
-0.283843 0.568759 0.771976 0.278283 0.314865 0.907424 0.144744 0.213121 0.966245 
0.0501461 0.114785 0.992124 0.0231254 0.0475768 0.9986 0.0239545 0.110191 0.993622 
0.0292734 0.0737885 0.996844 0.116532 0.102642 0.987869 0.124401 0.192511 0.973378 
-0.000254584 0.225734 0.974189 -0.188737 0.247862 0.950233 -0.450239 0.324081 0.83202 
0.388657 0.182579 0.903112 0.17023 0.146299 0.974484 0.0578721 0.102789 0.993018 
-0.0038666 0.0439869 0.999025 0.0807583 0.126144 0.988719 0.0600122 0.21908 0.97386 
-0.00587219 0.139456 0.990211 0.140874 0.164584 0.976251 0.152521 0.113731 0.981734 
0.0220988 0.0875584 0.995914 -0.172643 0.0772035 0.981954 -0.365302 0.159562 0.917112 
0.374885 -0.0259029 0.926709 0.191992 0.0174906 0.981241 0.0384214 0.0324423 0.998735 
0.0733056 0.0860577 0.99359 0.190419 0.230481 0.954264 0.0110216 -0.0346684 0.999338 
-0.00668808 0.0525859 0.998594 0.10081 0.210608 0.972359 0.0320885 0.0595106 0.997712 
-0.0426142 -0.00555684 0.999076 -0.123107 -0.0130293 0.992308 -0.269691 0.054674 0.961394 
-0.432165 0.139066 0.891008 0.388483 -0.095966 0.916445 0.216265 -0.0836702 0.972743 
0.125491 -0.0630928 0.990086 0.181085 -0.000402357 0.983467 -0.00179647 -0.103075 0.994672 
-0.134404 -0.146787 0.979994 0.248251 0.0470158 0.967554 0.124264 -0.0307431 0.991773 
-0.0582994 -0.0535322 0.996863 -0.0538992 -0.00733538 0.998519 -0.115941 0.0157908 0.993131 
-0.246308 -0.00874179 0.969152 -0.422633 0.00171781 0.906299 0.233619 -0.14605 0.961297 
0.123136 -0.105685 0.986746 0.0464768 -0.108717 0.992986 0.0396042 -0.258042 0.965322 
0.162612 -0.0865437 0.982887 0.107293 -0.0769801 0.991243 0.00292189 -0.213234 0.976997 
0.0569446 -0.121553 0.99095 0.0295135 -0.0435484 0.998615 -0.126391 -0.0218746 0.991739 
-0.274224 -0.0151905 0.961546 -0.454875 -0.107332 0.884064 0.300651 -0.175556 0.937438 
0.167696 -0.117499 0.978812 0.0381178 -0.0818942 0.995912 0.0017697 -0.0586457 0.998277 
0.0730437 -0.0714102 0.994769 0.101741 -0.167971 0.980528 0.0941997 -0.127298 0.987381 
0.106471 -0.0819347 0.990934 0.0433854 -0.0915453 0.994855 -0.0780263 -0.149577 0.985667 
-0.360395 -0.162035 0.918619 -0.594152 -0.34882 0.724781 0.218622 -0.211449 0.952625 
0.101482 -0.134879 0.985652 0.0478432 -0.0463013 0.997781 0.0515347 -0.061466 0.996778 
0.0534488 -0.0998401 0.993567 0.100746 -0.125708 0.986939 0.0865753 -0.126266 0.988211 
-0.0339468 -0.162153 0.986181 -0.17811 -0.287201 0.941166 -0.50126 -0.449395 0.739447 
0.219299 -0.390306 0.894186 0.073822 -0.26855 0.960433 0.0106926 -0.234506 0.972056 
0.036135 -0.232999 0.971805 0.0800157 -0.255217 0.963567 0.0574541 -0.352165 0.934173 
-0.129544 -0.523099 0.842369 -0.369975 -0.642041 0.671492 0.0605573 0.508888 0.8587 
-0.0694859 0.518117 0.852482 0.364882 0.761714 0.5354 0.219178 0.417681 0.881762 
0.294127 0.658893 0.692351 0.113613 0.513742 0.850389 0.153533 0.495475 0.854946 
0.171075 0.571274 0.802733 -0.0897046 0.549807 0.830461 -0.100379 0.568861 0.816285 
-0.123998 0.644003 0.754907 -0.0480529 0.588676 0.806939 -0.115799 0.753082 0.647655 
-0.147756 0.678599 0.719493 -0.231647 0.876528 0.421946 -0.319204 0.657794 0.682214 
0.291531 0.343584 0.892726 0.394502 0.571419 0.719617 0.243477 0.406695 0.880521 
0.245465 0.4048 0.880843 0.266978 0.446841 0.853848 -0.382931 0.60519 0.697932 
-0.489119 0.472776 0.73297 -0.555089 0.694393 0.457923 0.298142 0.334576 0.893963 
0.394744 0.231059 0.889263 0.444619 0.440731 0.779788 -0.567902 0.364406 0.738035 
-0.771819 0.509633 0.380223 0.420236 0.181535 0.889071 0.654903 0.231505 0.71938 
-0.541592 0.287841 0.789826 -0.541648 0.287302 0.789984 -0.543314 0.288737 0.788315 
0.412633 -0.0210507 0.910654 0.638486 0.0270376 0.769158 -0.605809 0.184943 0.773817 
-0.887238 0.195727 0.417732 0.394441 -0.0960952 0.913883 0.647324 -0.138577 0.749512 
0.392439 -0.104679 0.913802 -0.636999 -0.0231529 0.770517 -0.887765 -0.0485958 0.457725 
0.671988 -0.230857 0.70366 0.356513 -0.171062 0.918497 0.429865 -0.184624 0.883816 
-0.628342 -0.168612 0.759445 -0.953175 -0.242816 0.180273 0.305867 -0.179287 0.935041 
0.492826 -0.318866 0.809597 0.308153 -0.185811 0.933014 -0.619604 -0.369773 0.692358 
-0.618185 -0.401997 0.675459 0.62818 -0.456241 0.630265 0.300562 -0.260103 0.91761 
0.406524 -0.332448 0.851009 0.27469 -0.316908 0.907808 -0.636974 -0.540999 0.549166 
-0.606127 -0.628709 0.48717 0.497078 -0.678967 0.540294 0.255341 -0.410102 0.875567 
0.374385 -0.50699 0.7764 0.231791 -0.424975 0.875025 0.149945 -0.509277 0.847439 
0.0741677 -0.53215 0.843395 0.0372937 -0.598938 0.799926 -0.0379418 -0.642009 0.765757 
-0.128121 -0.718111 0.684033 -0.252281 -0.731658 0.633269 -0.460351 -0.709029 0.534186 
-0.401053 -0.726719 0.557706 0.277852 -0.925898 0.25595 0.203322 -0.851693 0.48299 
0.106291 -0.733805 0.670993 0.0353831 -0.68258 0.729954 -0.0526212 -0.694078 0.717974 
-0.200706 -0.906216 0.372143 0.365829 0.779383 0.508656 0.307162 0.838105 0.450813 
0.184201 0.903118 0.387876 0.0348413 0.947335 0.318343 -0.02514 0.998517 -0.0482921 
-0.112639 0.949636 0.29241 -0.192138 0.935481 0.296577 -0.21535 0.938187 0.270979 
-0.264321 0.943607 0.199347 0.375447 0.771913 0.513021 0.433008 0.713624 0.550677 
0.468344 0.859913 0.202988 -0.329109 0.925669 0.186611 -0.36807 0.911308 0.184507 
-0.582507 0.799244 0.147971 0.507732 0.644001 0.572251 0.525222 0.624394 0.578164 
0.540287 0.668588 0.51096 -0.664221 0.735318 0.134603 -0.781718 0.603055 0.158875 
0.666527 0.480295 0.570138 0.692019 0.422051 0.585647 0.719278 0.506089 0.475934 
-0.815426 0.548064 0.186298 0.748303 0.265156 0.608059 -0.896403 0.387626 0.21496 
-0.934499 0.294692 0.199671 0.798505 0.0233144 0.601536 0.988828 0.0343731 0.145046 
-0.961857 0.182364 0.203896 0.768569 -0.144142 0.623317 -0.980012 -0.0632777 0.188605 
0.710284 -0.242368 0.660874 0.712539 -0.288192 0.639714 -0.965419 -0.243051 0.0942987 
-0.954699 -0.28671 0.0796636 -0.955694 -0.291349 -0.0420046 0.704713 -0.346092 0.619355 
0.783916 -0.382016 0.489428 -0.860279 -0.509744 0.0089542 -0.718429 -0.695495 -0.0120863 
0.634156 -0.463272 0.619052 0.631975 -0.472733 0.614109 -0.689527 -0.72289 -0.0445314 
-0.630485 -0.757367 -0.16995 -0.438403 -0.701594 -0.561755 0.514197 -0.687871 0.512284 
0.500279 -0.705111 0.502533 0.405681 -0.84169 0.356344 -0.392384 -0.914756 -0.0962131 
-0.25813 -0.514652 -0.81762 -0.596574 -0.791869 -0.130547 -0.473731 -0.871553 -0.126388 
-0.351132 -0.664759 -0.659395 0.288701 -0.931258 0.222283 0.270219 -0.941366 0.202019 
0.220098 -0.975413 0.0112669 0.174748 -0.976089 0.129281 0.0801268 -0.992596 0.0912842 
0.00166802 -0.998424 0.0560995 -0.115141 -0.993321 -0.0074288 -0.163494 -0.820926 -0.547129 
-0.357379 -0.929822 -0.0878196 -0.226535 -0.971588 -0.0685481 -0.234081 -0.925892 -0.29653 
-0.0282818 0.997311 -0.0676017 0.467807 0.872691 0.139881 0.351106 0.930061 0.108217 
0.226439 0.972717 0.0504741 -0.0143534 0.99797 -0.0620523 0.105512 0.994319 -0.0140124 
-0.0334686 0.997016 -0.0695613 -0.0290771 0.996785 -0.0746613 -0.140779 0.983676 -0.11208 
-0.198356 0.971312 -0.131179 -0.233933 0.961474 -0.144372 -0.315312 0.931002 -0.183885 
0.478389 0.866797 0.140736 0.579599 0.799283 0.158785 0.452299 0.872882 -0.183037 
-0.384818 0.893656 -0.230854 -0.350455 0.846511 -0.400749 -0.444074 0.848172 -0.288793 
-0.597454 0.717635 -0.357839 0.670489 0.725003 0.15753 0.757014 0.633444 0.160244 
-0.440754 0.533234 -0.722079 -0.622081 0.695172 -0.36021 -0.591561 0.68439 -0.426223 
-0.697689 0.611985 -0.37243 0.827809 0.536233 0.164882 -0.714187 0.597495 -0.364605 
-0.688651 0.594498 -0.415128 0.949091 0.283239 0.137844 0.98912 0.0405473 0.141413 
-0.852743 0.396769 -0.339713 -0.567464 0.379384 -0.730789 -0.908052 0.268636 -0.321366 
0.989325 0.0345247 0.141577 0.989336 0.0265661 0.143205 0.991706 0.0356087 0.123495 
-0.933903 0.187059 -0.304686 -0.890775 0.187134 -0.414126 0.977042 -0.12019 0.175906 
-0.935414 -0.127352 -0.329822 -0.897259 -0.267666 -0.351114 -0.891527 -0.12745 -0.434668 
0.936373 -0.281225 0.210041 -0.826109 -0.40723 -0.389497 -0.430889 -0.40567 -0.806081 
0.877505 -0.433443 0.205213 0.828743 -0.526727 0.189062 -0.124112 -0.463266 -0.877485 
-0.142955 -0.526987 -0.837764 -0.354949 -0.636676 -0.684584 -0.242841 -0.548555 -0.800072 
-0.617355 -0.588091 -0.522515 -0.615567 -0.588855 -0.523763 -0.614967 -0.588194 -0.525208 
0.78179 -0.596107 0.182923 0.641636 -0.760564 0.0992289 -0.286648 -0.325515 -0.90104 
-0.253617 -0.502161 -0.826748 -0.264329 -0.428153 -0.864185 -0.349062 -0.556117 -0.754248 
-0.315834 -0.55915 -0.766551 -0.29231 -0.420296 -0.859015 0.559598 -0.827028 0.053616 
0.422913 -0.90616 -0.00421449 0.256745 -0.954049 -0.15451 0.115479 -0.946897 -0.300084 
-0.159402 -0.56191 -0.811694 -0.16984 -0.72967 -0.662372 -0.215725 -0.529779 -0.820242 
-0.254241 -0.506101 -0.82415 -0.253918 -0.683647 -0.684217 -0.294664 -0.461917 -0.836544 
0.0811886 -0.905608 -0.416273 0.0731388 -0.892976 -0.444121 0.0676224 -0.888232 -0.454391 
0.00759387 -0.848937 -0.52844 0.00040349 -0.831632 -0.555327 -0.101183 -0.791914 -0.602191 
-0.0788481 -0.808149 -0.583677 -0.0808881 -0.798383 -0.596692 0.305399 0.873586 -0.378919 
0.186329 0.901926 -0.38963 0.058567 0.90261 -0.426456 -0.0686584 0.887494 -0.455676 
-0.166574 0.859483 -0.483262 -0.209465 0.835683 -0.507699 -0.259026 0.797337 -0.545124 
0.551932 0.767928 -0.32505 0.423581 0.850355 -0.31221 0.432096 0.847543 -0.308161 
0.263304 0.764973 -0.587782 0.153945 0.597658 -0.786833 0.0167875 0.57144 -0.820472 
-0.0732093 0.591722 -0.802811 -0.140423 0.633344 -0.761024 -0.199186 0.695548 -0.690318 
-0.295067 0.769789 -0.566004 -0.262047 0.754312 -0.601952 -0.369677 0.675489 -0.638007 
0.630638 0.707361 -0.319276 0.744784 0.601451 -0.289057 0.509569 0.669685 -0.540242 
0.251677 0.479022 -0.84095 -0.237506 0.348447 -0.906739 -0.440364 0.532508 -0.722852 
-0.353064 0.400922 -0.845344 -0.440228 0.532072 -0.723256 -0.484621 0.43979 -0.756127 
0.804432 0.5175 -0.291689 0.689898 0.493339 -0.529771 -0.260437 0.164191 -0.951427 
-0.309206 0.286465 -0.906824 -0.496921 0.423592 -0.75739 -0.46909 0.405406 -0.784602 
0.906305 0.288241 -0.309075 0.596443 0.229914 -0.769022 -0.155193 0.0718859 -0.985265 
-0.215953 0.150799 -0.964689 -0.524015 0.358626 -0.772525 -0.338338 0.238435 -0.910317 
-0.544961 0.337498 -0.767537 0.956932 0.0591171 -0.284228 -0.111557 0.00912384 -0.993716 
-0.149017 0.0351215 -0.988211 -0.264445 0.0809014 -0.961002 -0.609477 0.160212 -0.776447 
-0.485808 0.148277 -0.861397 0.963861 -0.0854142 -0.25234 -0.112254 -0.173251 -0.97846 
-0.151127 -0.146668 -0.977573 -0.25829 -0.148197 -0.954633 -0.602006 -0.149497 -0.784372 
-0.437489 -0.324046 -0.838807 -0.477407 -0.179381 -0.860177 0.933121 -0.262789 -0.245411 
-0.267511 -0.373225 -0.888336 -0.121114 -0.462682 -0.878212 -0.103803 -0.403095 -0.909252 
-0.143219 -0.514735 -0.845302 -0.124363 -0.416356 -0.900656 -0.346928 -0.410557 -0.843258 
-0.234835 -0.487879 -0.84073 -0.265265 -0.421535 -0.867146 0.867463 -0.4454 -0.221646 
0.803039 -0.546767 -0.237011 0.746466 -0.415067 -0.520104 -0.233858 -0.259532 -0.936992 
-0.34447 -0.3825 -0.857341 -0.144839 -0.451669 -0.88035 -0.293839 -0.338766 -0.89381 
-0.306163 -0.370363 -0.876981 0.710744 -0.64341 -0.28437 0.543072 -0.771344 -0.331815 
0.477574 -0.621284 -0.621231 -0.230736 -0.506934 -0.830529 -0.168895 -0.544457 -0.821609 
-0.235159 -0.467989 -0.851873 -0.288846 -0.361808 -0.886376 -0.26525 -0.457505 -0.848724 
-0.297873 -0.42344 -0.855552 0.361229 -0.846832 -0.39037 0.290207 -0.867766 -0.403438 
0.27413 -0.822687 -0.498034 0.0859592 -0.841009 -0.534148 0.0416514 -0.77303 -0.633001 
-0.0317844 -0.796106 -0.604322 -0.0517207 -0.743075 -0.667207 -0.0825995 -0.724 -0.684837 
-0.113308 -0.699774 -0.705321 -0.140566 -0.585422 -0.79845 -0.11346 -0.626593 -0.771044 
-0.125632 -0.616872 -0.776972 0.123746 0.458732 -0.879916 0.098959 0.396421 -0.91272 
0.0238128 0.438793 -0.898273 -0.0594374 0.454498 -0.888762 -0.125365 0.382203 -0.915535 
-0.158541 0.306972 -0.938421 0.361762 0.460101 -0.810824 0.229763 0.464299 -0.855357 
0.243253 0.466894 -0.850199 0.095007 0.3893 -0.916198 0.0530559 0.257789 -0.964743 
0.0459922 0.222426 -0.973864 -0.0418864 0.240102 -0.969844 -0.118242 0.257237 -0.959087 
-0.165868 0.29715 -0.940314 -0.156156 0.292353 -0.943475 -0.226642 0.132795 -0.964883 
0.431164 0.419447 -0.79885 0.327659 0.396418 -0.857608 0.126687 0.339146 -0.932164 
-0.0273309 0.236496 -0.971248 -0.0350029 0.169795 -0.984857 0.00841812 0.0966869 -0.995279 
-0.0264814 0.11443 -0.993078 -0.0902116 0.101252 -0.990762 -0.130856 0.102466 -0.986092 
-0.229066 0.0954221 -0.968723 -0.224129 0.0857991 -0.970775 0.584041 0.228856 -0.778794 
0.593423 0.218416 -0.774689 0.292012 0.252839 -0.922389 0.0703607 0.217522 -0.973516 
-0.0686385 0.196491 -0.9781 -0.0928931 0.187567 -0.977849 -0.0152643 0.178964 -0.983737 
-0.0418963 0.110743 -0.992966 -0.13074 0.0463416 -0.990333 -0.167602 0.0516258 -0.984502 
-0.173515 0.00659189 -0.984809 -0.179638 -0.00955113 -0.983686 0.664095 0.0905294 -0.742147 
0.606431 0.0866976 -0.790396 0.300062 0.121104 -0.946201 0.0556354 0.0825296 -0.995034 
-0.0728155 0.104308 -0.991876 -0.0593667 0.12027 -0.990965 -0.0627122 0.125488 -0.990111 
-0.164642 -0.000313661 -0.986353 -0.14379 -0.134768 -0.980389 -0.191277 -0.00577678 -0.981519 
-0.188122 -0.00666116 -0.982123 -0.200142 -0.0088363 -0.979727 0.663125 -0.0525778 -0.74666 
0.587583 -0.0429051 -0.808026 0.314539 -0.047557 -0.948052 0.0495836 -0.0442017 -0.997791 
-0.032015 -0.0105013 -0.999432 -0.0712617 -0.0255112 -0.997131 -0.135129 -0.0537407 -0.98937 
-0.32089 -0.0722112 -0.94436 -0.115728 -0.138722 -0.983546 -0.0400205 -0.119887 -0.991981 
-0.161102 -0.127831 -0.978624 -0.171544 -0.133735 -0.976057 -0.166492 -0.122573 -0.978395 
0.667225 -0.188937 -0.720495 0.659089 -0.23858 -0.713219 0.645483 -0.182478 -0.741656 
0.298093 -0.182055 -0.937015 0.0951838 -0.135819 -0.986151 -0.0520847 -0.11864 -0.99157 
-0.10362 -0.0971844 -0.989858 -0.103046 -0.114005 -0.988122 -0.250519 -0.103032 -0.962614 
-0.229128 -0.238716 -0.943671 -0.189163 -0.0499485 -0.980675 -0.196856 -0.251665 -0.947582 
-0.210665 -0.259267 -0.94255 -0.172829 -0.221583 -0.959704 0.584548 -0.369393 -0.722393 
0.420794 -0.514421 -0.747197 0.348357 -0.322098 -0.880284 0.120558 -0.266641 -0.956226 
0.00201378 -0.238494 -0.971142 -0.0723156 -0.211501 -0.974699 -0.14827 -0.238579 -0.959738 
-0.233547 -0.261209 -0.936603 -0.241925 -0.422864 -0.873303 -0.241241 -0.29888 -0.923295 
0.332363 -0.562991 -0.756688 0.22126 -0.574715 -0.787875 0.202526 -0.510687 -0.835573 
0.0184664 -0.597964 -0.80131 0.0147834 -0.476139 -0.879246 -0.0927226 -0.572116 -0.814914 
-0.0998374 -0.48225 -0.870326 -0.207787 -0.497173 -0.842404 -0.190318 -0.51808 -0.83389 
-0.192382 -0.490357 -0.850023 
