# vtk DataFile Version 4.2
vtk output
ASCII
DATASET POLYDATA
POINTS 534 float
-10.5992 -30.4738 -21.9658 -26.2315 -38.2899 -14.7518 -18.4154 -38.2899 -17.461 
-10.5992 -30.7449 -21.9024 -10.5992 -38.2899 -19.9563 -2.78304 -38.2899 -20.394 
5.03312 -38.2899 -18.6006 12.8493 -38.2899 -16.667 20.6654 -38.2899 -15.7401 
-34.0477 -30.4738 -16.745 -26.2315 -30.4738 -18.8117 -10.8602 -30.4738 -21.9024 
-18.4154 -30.4738 -20.2245 -9.69186 -30.4738 -21.9024 -10.5992 -29.9634 -21.9024 
-2.78304 -30.4738 -21.4678 5.03312 -30.4738 -20.6893 12.8493 -30.4738 -19.0291 
20.6654 -30.4738 -19.0145 28.4816 -30.4738 -18.2598 36.2978 -30.4738 -15.935 
-41.8638 -22.6576 -17.4959 -34.0477 -22.6576 -19.4606 -26.2315 -22.6576 -19.8312 
-18.4154 -22.6576 -20.1826 -10.5992 -22.6576 -21.0286 -2.78304 -22.6576 -20.9474 
5.03312 -22.6576 -19.6657 12.8493 -22.6576 -18.9506 20.6654 -22.6576 -19.5353 
28.4816 -22.6576 -20.0052 36.2978 -22.6576 -18.3231 44.1139 -22.6576 -14.8572 
-49.68 -14.8414 -15.9167 -41.8638 -14.8414 -19.1891 -34.0477 -14.8414 -20.6153 
-26.2315 -14.8414 -20.9674 -18.4154 -14.8414 -20.0794 -10.5992 -14.8414 -19.894 
-2.78304 -14.8414 -19.7789 5.03312 -14.8414 -17.8771 12.8493 -14.8414 -17.8123 
20.6654 -14.8414 -18.8465 28.4816 -14.8414 -19.3027 36.2978 -14.8414 -18.9506 
44.1139 -14.8414 -16.8944 -49.68 -7.02527 -16.8203 -41.8638 -7.02527 -19.5752 
-34.0477 -7.02527 -20.8546 -26.2315 -7.02527 -20.7526 -18.4154 -7.02527 -20.4706 
-10.5992 -7.02527 -21.3466 -2.78304 -7.02527 -19.7089 5.03312 -7.02527 -19.1248 
12.8493 -7.02527 -18.0833 20.6654 -7.02527 -18.1582 28.4816 -7.02527 -19.2437 
36.2978 -7.02527 -19.3598 44.1139 -7.02527 -18.2107 -49.68 0.790888 -16.3503 
-41.8638 0.790888 -19.3963 -34.0477 0.790888 -20.6294 -26.2315 0.790888 -20.6962 
-18.4154 0.790888 -20.6307 -10.5992 0.790888 -21.8131 -2.78304 0.790888 -17.5005 
5.03312 0.790888 -19.3516 12.8493 0.790888 -18.977 20.6654 0.790888 -17.8976 
28.4816 0.790888 -19.2743 36.2978 0.790888 -19.7507 44.1139 0.790888 -18.95 
51.9301 0.790888 -14.9 -49.68 8.60705 -14.4216 -41.8638 8.60705 -18.4598 
-34.0477 8.60705 -19.9325 -26.2315 8.60705 -19.8267 -18.4154 8.60705 -19.0853 
-10.5992 8.60705 -19.2724 -2.78304 8.60705 -20.0651 5.03312 8.60705 -18.7833 
12.8493 8.60705 -16.3504 20.6654 8.60705 -17.4921 28.4816 8.60705 -18.7985 
36.2978 8.60705 -19.1993 44.1139 8.60705 -18.3244 51.9301 8.60705 -14.312 
-41.8638 16.4232 -16.5353 -34.0477 16.4232 -18.4806 -26.2315 16.4232 -18.714 
-18.4154 16.4232 -17.6626 -10.5992 16.4232 -16.6987 -2.78304 16.4232 -17.9183 
5.03312 16.4232 -17.6522 12.8493 16.4232 -16.4861 20.6654 16.4232 -17.139 
28.4816 16.4232 -18.0385 36.2978 16.4232 -17.4235 44.1139 16.4232 -15.7887 
-34.0477 24.2394 -16.1959 -26.2315 24.2394 -17.1089 -18.4154 24.2394 -16.7738 
-10.5992 24.2394 -16.5356 -2.78304 24.2394 -16.7461 5.03312 24.2394 -16.8254 
12.8493 24.2394 -16.3246 20.6654 24.2394 -16.2393 28.4816 24.2394 -15.9771 
36.2978 24.2394 -14.3633 -26.2315 32.0555 -14.7563 -18.4154 32.0555 -15.6931 
-10.5992 32.0555 -15.1198 -2.78304 32.0555 -14.7968 5.03312 32.0555 -14.4368 
12.8493 32.0555 -14.2291 -26.2315 -38.975 -14.0862 -18.4154 -42.1481 -14.0862 
-10.5992 -44.5133 -14.0862 -10.5992 -46.1061 -7.88213 -2.78304 -44.4844 -14.0862 
-2.78304 -46.1061 -6.99702 5.03312 -42.9728 -14.0862 12.8493 -41.1967 -14.0862 
20.6654 -39.9332 -14.0862 -27.531 -38.2899 -14.0862 -34.0477 -33.9412 -14.0862 
-34.0477 -38.2899 -7.08665 27.7535 -38.2899 -14.0862 28.4816 -38.0543 -14.0862 
28.4816 -38.2899 -13.7935 36.2978 -33.1074 -14.0862 36.2978 -38.2899 -6.51471 
-39.6051 -30.4738 -14.0862 -41.8638 -28.6323 -14.0862 -41.8638 -30.4738 -12.1627 
39.0932 -30.4738 -14.0862 44.1139 -24.1973 -14.0862 44.1139 -30.4738 -7.346 
-47.6783 -22.6576 -14.0862 -49.68 -19.8124 -14.0862 -49.68 -22.6576 -12.0129 
45.0541 -22.6576 -14.0862 -51.8056 -14.8414 -14.0862 48.133 -14.8414 -14.0862 
51.9301 -14.8414 -9.7428 -52.8449 -7.02527 -14.0862 51.6253 -7.02527 -14.0862 
51.9301 -5.69164 -14.0862 51.9301 -7.02527 -13.811 -52.2672 0.790888 -14.0862 
52.9096 0.790888 -14.0862 -50.043 8.60705 -14.0862 -49.68 9.41335 -14.0862 
52.2204 8.60705 -14.0862 51.9301 9.39309 -14.0862 -45.355 16.4232 -14.0862 
-49.68 16.4232 -8.88371 -41.8638 22.1933 -14.0862 47.7036 16.4232 -14.0862 
44.1139 20.2874 -14.0862 51.9301 16.4232 -10.8874 -39.8378 24.2394 -14.0862 
-41.8638 24.2394 -12.8832 -34.0477 29.9834 -14.0862 20.6654 29.9025 -14.0862 
28.4816 28.1992 -14.0862 37.3545 24.2394 -14.0862 36.2978 24.6964 -14.0862 
44.1139 24.2394 -11.3934 -29.7474 32.0555 -14.0862 -34.0477 32.0555 -13.0473 
-26.2315 33.4639 -14.0862 -18.4154 36.0991 -14.0862 -10.5992 34.8405 -14.0862 
-2.78304 33.5035 -14.0862 5.03312 32.6161 -14.0862 13.9891 32.0555 -14.0862 
12.8493 32.2642 -14.0862 20.6654 32.0555 -13.0732 28.4816 32.0555 -11.4623 
36.2978 32.0555 -7.72882 -26.2315 39.8717 -10.5162 -18.4154 39.8717 -12.0059 
-10.5992 39.8717 -11.7729 -2.78304 39.8717 -10.0884 5.03312 39.8717 -7.86758 
-10.5992 -46.4538 -6.27004 -2.78304 -46.2443 -6.27004 -34.0477 -38.6389 -6.27004 
-26.2315 -42.5302 -6.27004 -13.2079 -46.1061 -6.27004 -18.4154 -45.3671 -6.27004 
-10.5992 -46.1061 -3.43988 -1.42454 -46.1061 -6.27004 -2.78304 -46.1061 -4.97491 
5.03312 -45.4394 -6.27004 12.8493 -45.0319 -6.27004 20.6654 -44.0326 -6.27004 
28.4816 -42.0896 -6.27004 36.2978 -38.4163 -6.27004 -34.6814 -38.2899 -6.27004 
-41.8638 -33.8257 -6.27004 -34.0477 -38.2899 -2.68929 36.4798 -38.2899 -6.27004 
36.2978 -38.2899 -4.87051 44.1139 -31.2326 -6.27004 -46.1448 -30.4738 -6.27004 
-49.68 -26.9578 -6.27004 44.6826 -30.4738 -6.27004 44.1139 -30.4738 -2.529 
-52.9042 -22.6576 -6.27004 49.7861 -22.6576 -6.27004 51.9301 -18.8104 -6.27004 
-56.274 -14.8414 -6.27004 53.8252 -14.8414 -6.27004 -57.1658 -7.02527 -6.27004 
56.3498 -7.02527 -6.27004 -56.4771 0.790888 -6.27004 57.4938 0.790888 -6.27004 
-54.6286 8.60705 -6.27004 57.2814 8.60705 -6.27004 -51.0504 16.4232 -6.27004 
-49.68 19.1353 -6.27004 54.8447 16.4232 -6.27004 51.9301 21.0401 -6.27004 
-46.7462 24.2394 -6.27004 -41.8638 31.1194 -6.27004 48.9831 24.2394 -6.27004 
44.1139 28.5944 -6.27004 -41.0815 32.0555 -6.27004 -41.8638 32.0555 -1.88919 
-34.0477 38.9764 -6.27004 12.8493 39.8277 -6.27004 20.6654 38.5329 -6.27004 
28.4816 36.3764 -6.27004 38.4583 32.0555 -6.27004 36.2978 33.1627 -6.27004 
-32.7958 39.8717 -6.27004 -34.0477 39.8717 -3.61008 -26.2315 43.8997 -6.27004 
-18.4154 45.6757 -6.27004 -10.5992 45.3295 -6.27004 -2.78304 43.5544 -6.27004 
12.5993 39.8717 -6.27004 5.03312 41.2117 -6.27004 12.8493 39.8717 -6.20172 
20.6654 39.8717 -3.87172 -18.4154 47.6878 -3.05245 -10.5992 47.6878 -2.71272 
-2.78304 47.6878 0.235769 -26.2315 -41.8645 1.54611 -18.4154 -44.5675 1.54611 
-10.5992 -45.4867 1.54611 -2.78304 -45.4042 1.54611 5.03312 -45.3542 1.54611 
12.8493 -45.5677 1.54611 20.6654 -44.5827 1.54611 28.4816 -42.3857 1.54611 
-41.8638 -32.5675 1.54611 -33.2513 -38.2899 1.54611 -34.0477 -37.8458 1.54611 
-26.2315 -38.2899 8.91943 35.4794 -38.2899 1.54611 36.2978 -37.6888 1.54611 
-44.4266 -30.4738 1.54611 -49.68 -25.1187 1.54611 -41.8638 -30.4738 4.86366 
43.4734 -30.4738 1.54611 44.1139 -29.6651 1.54611 -51.6761 -22.6576 1.54611 
-49.68 -22.6576 4.65388 48.9489 -22.6576 1.54611 51.9301 -17.3974 1.54611 
-55.4911 -14.8414 1.54611 53.2675 -14.8414 1.54611 51.9301 -14.8414 5.0054 
-56.7095 -7.02527 1.54611 56.1865 -7.02527 1.54611 -56.076 0.790888 1.54611 
57.5052 0.790888 1.54611 -54.1147 8.60705 1.54611 57.5214 8.60705 1.54611 
-50.6817 16.4232 1.54611 -49.68 18.5786 1.54611 -49.68 16.4232 3.70807 
55.5876 16.4232 1.54611 51.9301 22.966 1.54611 -46.8681 24.2394 1.54611 
51.0589 24.2394 1.54611 44.1139 31.3036 1.54611 -42.334 32.0555 1.54611 
-41.8638 32.6894 1.54611 -41.8638 32.0555 2.87493 28.4816 39.4161 1.54611 
43.0784 32.0555 1.54611 36.2978 36.2624 1.54611 -35.6296 39.8717 1.54611 
-34.0477 41.443 1.54611 -34.0477 39.8717 7.01205 -26.2315 46.6467 1.54611 
5.03312 45.9992 1.54611 12.8493 44.1187 1.54611 27.2886 39.8717 1.54611 
20.6654 42.2244 1.54611 -23.7813 47.6878 1.54611 -18.4154 49.6503 1.54611 
-10.5992 49.8812 1.54611 -0.400375 47.6878 1.54611 -2.78304 48.3337 1.54611 
5.03312 47.6878 7.7358 -18.4154 -41.2692 9.36228 -10.5992 -42.6559 9.36228 
-2.78304 -43.0195 9.36228 5.03312 -43.4571 9.36228 12.8493 -43.8207 9.36228 
20.6654 -42.7946 9.36228 28.4816 -39.9883 9.36228 -34.0477 -32.5703 9.36228 
-25.665 -38.2899 9.36228 -26.2315 -37.9996 9.36228 -18.4154 -38.2899 12.6172 
-10.5992 -38.2899 14.2998 -2.78304 -38.2899 14.9062 5.03312 -38.2899 15.9345 
12.8493 -38.2899 16.2908 20.6654 -38.2899 14.8475 31.011 -38.2899 9.36228 
28.4816 -38.2899 11.5319 36.2978 -33.4284 9.36228 -36.9343 -30.4738 9.36228 
-41.8638 -26.2455 9.36228 -34.0477 -30.4738 11.1642 -26.2315 -30.4738 15.102 
-18.4154 -30.4738 16.9502 28.4816 -30.4738 16.922 39.0894 -30.4738 9.36228 
36.2978 -30.4738 12.0127 44.1139 -24.1294 9.36228 -45.3524 -22.6576 9.36228 
-49.68 -17.0762 9.36228 -41.8638 -22.6576 11.8145 -34.0477 -22.6576 15.3543 
-26.2315 -22.6576 17.1233 36.2978 -22.6576 16.6685 45.1489 -22.6576 9.36228 
44.1139 -22.6576 10.5856 -50.8747 -14.8414 9.36228 -49.68 -14.8414 10.5063 
-41.8638 -14.8414 15.042 -34.0477 -14.8414 17.1494 49.8319 -14.8414 9.36228 
44.1139 -14.8414 15.1199 51.9301 -9.95403 9.36228 -52.137 -7.02527 9.36228 
-49.68 -7.02527 11.8663 -41.8638 -7.02527 16.5005 53.0456 -7.02527 9.36228 
51.9301 -7.02527 10.8436 -52.0747 0.790888 9.36228 -49.68 0.790888 11.8777 
-41.8638 0.790888 16.5122 54.4467 0.790888 9.36228 51.9301 0.790888 12.5718 
-50.1865 8.60705 9.36228 -49.68 9.79851 9.36228 -49.68 8.60705 9.92966 
-41.8638 8.60705 15.5907 54.6893 8.60705 9.36228 51.9301 8.60705 12.9381 
-46.3802 16.4232 9.36228 -41.8638 16.4232 13.4624 53.3109 16.4232 9.36228 
51.9301 19.0963 9.36228 51.9301 16.4232 11.5199 -43.2541 24.2394 9.36228 
-41.8638 26.9839 9.36228 -41.8638 24.2394 10.9015 -34.0477 24.2394 16.7766 
48.8744 24.2394 9.36228 44.1139 29.8812 9.36228 44.1139 24.2394 14.6649 
[...]
POINT_DATA 534
SCALARS ImageScalars float
LOOKUP_TABLE default
0 0 0 0 0 0 0 0 0 
0 0 0 0 0 0 0 0 0 
0 0 0 0 0 0 0 0 0 
0 0 0 0 0 0 0 0 0 
0 0 0 0 0 0 0 0 0 
0 0 0 0 0 0 0 0 0 
0 0 0 0 0 0 0 0 0 
0 0 0 0 0 0 0 0 0 
0 0 0 0 0 0 0 0 0 
0 0 0 0 0 0 0 0 0 
0 0 0 0 0 0 0 0 0 
0 0 0 0 0 0 0 0 0 
0 0 0 0 0 0 0 0 0 
0 0 0 0 0 0 0 0 0 
0 0 0 0 0 0 0 0 0 
0 0 0 0 0 0 0 0 0 
0 0 0 0 0 0 0 0 0 
0 0 0 0 0 0 0 0 0 
0 0 0 0 0 0 0 0 0 
0 0 0 0 0 0 0 0 0 
0 0 0 0 0 0 0 0 0 
0 0 0 0 0 0 0 0 0 
0 0 0 0 0 0 0 0 0 
0 0 0 0 0 0 0 0 0 
0 0 0 0 0 0 0 0 0 
0 0 0 0 0 0 0 0 0 
0 0 0 0 0 0 0 0 0 
0 0 0 0 0 0 0 0 0 
0 0 0 0 0 0 0 0 0 
0 0 0 0 0 0 0 0 0 
0 0 0 0 0 0 0 0 0 
0 0 0 0 0 0 0 0 0 
0 0 0 0 0 0 0 0 0 
0 0 0 0 0 0 0 0 0 
0 0 0 0 0 0 0 0 0 
0 0 0 0 0 0 0 0 0 
0 0 0 0 0 0 0 0 0 
0 0 0 0 0 0 0 0 0 
0 0 0 0 0 0 0 0 0 
0 0 0 0 0 0 0 0 0 
0 0 0 0 0 0 0 0 0 
0 0 0 0 0 0 0 0 0 
0 0 0 0 0 0 0 0 0 
0 0 0 0 0 0 0 0 0 
0 0 0 0 0 0 0 0 0 
0 0 0 0 0 0 0 0 0 
0 0 0 0 0 0 0 0 0 
0 0 0 0 0 0 0 0 0 
0 0 0 0 0 0 0 0 0 
0 0 0 0 0 0 0 0 0 
0 0 0 0 0 0 0 0 0 
0 0 0 0 0 0 0 0 0 
0 0 0 0 0 0 0 0 0 
0 0 0 0 0 0 0 0 0 
0 0 0 0 0 0 0 0 0 
0 0 0 0 0 0 0 0 0 
0 0 0 0 0 0 0 0 0 
0 0 0 0 0 0 0 0 0 
0 0 0 0 0 0 0 0 0 
0 0 0 
NORMALS Normals float
-0.0893748 -0.0566883 -0.994384 -0.362359 -0.664077 -0.653987 -0.290043 -0.536658 -0.792385 
-0.0924111 -0.0685529 -0.993358 -0.164444 -0.427368 -0.888996 0.0799359 -0.395786 -0.914857 
0.221458 -0.501843 -0.836128 0.166032 -0.536296 -0.827539 0.148482 -0.609119 -0.779055 
-0.328041 -0.475164 -0.816461 -0.201859 -0.271409 -0.941058 -0.093487 -0.0593313 -0.993851 
-0.184497 -0.143672 -0.972275 -0.0685533 -0.0516456 -0.99631 -0.0867517 -0.0434829 -0.995281 
0.0737643 -0.021631 -0.997041 0.162167 -0.0528754 -0.985346 0.102615 -0.128108 -0.986437 
0.0525995 -0.206038 -0.977129 0.164937 -0.310568 -0.936132 0.435579 -0.459881 -0.773809 
-0.383501 -0.35594 -0.852194 -0.127938 -0.219674 -0.967148 -0.044556 -0.137205 -0.98954 
-0.0757281 0.00905985 -0.997087 -0.048664 0.125427 -0.990909 0.0856141 0.108586 -0.990394 
0.129779 0.179745 -0.975115 0.00763157 0.0775976 -0.996956 -0.0659373 0.0132438 -0.997736 
0.0844768 -0.0715408 -0.993854 0.28956 -0.161272 -0.943476 0.593468 -0.33374 -0.732402 
-0.583589 -0.21317 -0.78357 -0.279079 -0.108114 -0.954163 -0.113044 -0.0823118 -0.990175 
0.0307642 -0.0584733 -0.997815 0.069565 -0.0187292 -0.997402 0.0185161 -0.0129759 -0.999744 
0.129056 0.079149 -0.988474 0.125343 0.040721 -0.991277 -0.0629775 0.057875 -0.996335 
-0.0946584 0.0845748 -0.991911 -0.0073611 0.0464787 -0.998892 0.135889 -0.0680275 -0.988386 
0.417083 -0.202346 -0.886057 -0.537711 -0.0264169 -0.842715 -0.249941 -0.0150863 -0.968144 
-0.070769 -0.00185657 -0.997491 0.0244176 0.0172054 -0.999554 -0.0335961 -0.034145 -0.998852 
0.0420649 -0.125768 -0.991167 0.138525 0.123117 -0.982676 0.103271 -0.0986125 -0.989753 
0.0604229 -0.0658363 -0.995999 -0.0760181 0.0615185 -0.995207 -0.0719618 0.00181304 -0.997406 
0.0581986 -0.0503621 -0.997034 0.309011 -0.116135 -0.943941 -0.567064 0.141543 -0.811421 
-0.25807 0.0717952 -0.963455 -0.0790574 0.0616069 -0.994965 -6.99251e-05 0.0587622 -0.998272 
-0.0679018 0.0864742 -0.993937 0.144319 0.117904 -0.982482 0.195207 -0.0325178 -0.980223 
-0.087043 0.0228123 -0.995943 0.0981229 0.126518 -0.987099 -0.0363365 0.0423886 -0.99844 
-0.113937 0.0280418 -0.993092 0.015331 0.00993422 -0.999833 0.28161 -0.00683406 -0.959505 
0.611663 -0.0213082 -0.790831 -0.645138 0.285758 -0.708618 -0.316373 0.155851 -0.935745 
-0.0839672 0.128247 -0.988181 0.0534405 0.125317 -0.990676 0.0367739 0.189697 -0.981154 
-0.063083 0.328723 -0.942317 0.0301611 -0.00437081 -0.999536 0.23926 0.101889 -0.965595 
0.0707616 0.124568 -0.989685 -0.151389 0.0468347 -0.987364 -0.108214 0.0770688 -0.991136 
0.0241573 0.145463 -0.989069 0.278837 0.178295 -0.943642 0.593889 0.164486 -0.787553 
-0.405948 0.311192 -0.859282 -0.116931 0.240416 -0.963601 0.0525504 0.169384 -0.984148 
0.125859 0.144599 -0.981453 -0.0103771 0.156088 -0.987689 -0.0631627 0.219646 -0.973533 
0.0901964 0.12336 -0.988255 0.0292911 0.00185105 -0.999569 -0.095267 0.0769873 -0.99247 
-0.0194929 0.180784 -0.98333 0.127007 0.275043 -0.953006 0.301711 0.350918 -0.886469 
-0.218571 0.314409 -0.923782 -0.0349674 0.238233 -0.970578 0.0350005 0.125893 -0.991426 
0.00120888 0.0959264 -0.995388 -0.0182183 0.180668 -0.983375 0.0258652 0.185567 -0.982291 
0.0382891 0.13548 -0.99004 0.022733 0.226356 -0.973779 0.101981 0.34218 -0.934084 
0.223455 0.46309 -0.857681 -0.153355 0.365397 -0.918132 -0.0182824 0.263955 -0.964362 
0.0576423 0.265137 -0.962486 0.0408988 0.358341 -0.932695 0.0344103 0.446128 -0.894307 
0.0718155 0.464444 -0.882686 -0.368902 -0.696862 -0.615057 -0.297427 -0.746193 -0.595595 
-0.121067 -0.871369 -0.475457 -0.0651105 -0.990517 -0.120984 0.0900042 -0.892686 -0.4416 
0.066358 -0.995204 -0.0718778 0.183972 -0.820889 -0.540644 0.172755 -0.713308 -0.679225 
0.167596 -0.694038 -0.700159 -0.380016 -0.686541 -0.619878 -0.411118 -0.608695 -0.678581 
-0.467082 -0.863968 -0.188133 0.278255 -0.712841 -0.643764 0.287029 -0.709595 -0.643498 
0.293559 -0.727843 -0.619731 0.464262 -0.55167 -0.692907 0.519965 -0.832315 -0.192064 
-0.457896 -0.583736 -0.67051 -0.470607 -0.564078 -0.678488 -0.530177 -0.666738 -0.523806 
0.528856 -0.497169 -0.687848 0.619918 -0.371213 -0.691305 0.780319 -0.586307 -0.217591 
-0.544585 -0.447655 -0.709248 -0.608822 -0.372409 -0.700463 -0.671751 -0.495861 -0.550338 
0.634639 -0.344927 -0.691562 -0.691974 -0.206809 -0.691666 0.608872 -0.268951 -0.746284 
0.841095 -0.36033 -0.403387 -0.709331 -0.0239627 -0.704469 0.641302 -0.200275 -0.74069 
0.648603 -0.171971 -0.741445 0.664233 -0.205239 -0.718799 -0.699554 0.152456 -0.698127 
0.651661 -0.0275683 -0.758009 -0.660967 0.286851 -0.693426 -0.653517 0.298902 -0.695394 
0.604052 0.167569 -0.779129 0.600419 0.191054 -0.776528 -0.547522 0.367074 -0.751982 
-0.826492 0.433975 -0.358576 -0.488415 0.420619 -0.764546 0.464006 0.379872 -0.800247 
0.361447 0.443573 -0.820122 0.710961 0.434247 -0.55314 -0.437608 0.419066 -0.795539 
-0.54725 0.475153 -0.689019 -0.316963 0.436438 -0.842055 0.102642 0.450467 -0.886873 
0.156014 0.469032 -0.869292 0.247687 0.475576 -0.844085 0.230406 0.475687 -0.848902 
0.453685 0.593826 -0.664485 -0.24495 0.419572 -0.874047 -0.375557 0.501662 -0.77929 
-0.17508 0.394137 -0.902221 -0.0431257 0.411449 -0.910412 0.0734097 0.357261 -0.931115 
0.0631913 0.405268 -0.912012 0.0411306 0.467892 -0.882828 0.0813958 0.475009 -0.876208 
0.0735024 0.473914 -0.877498 0.139164 0.550575 -0.823104 0.226558 0.646331 -0.728648 
0.376711 0.75334 -0.539043 -0.289511 0.609248 -0.738242 -0.0617945 0.575553 -0.815427 
0.0919599 0.565512 -0.819597 0.18075 0.647724 -0.740124 0.171154 0.755632 -0.632239 
-0.052904 -0.997572 -0.0452832 0.0638289 -0.997113 -0.0411291 -0.463464 -0.87473 -0.14159 
-0.388832 -0.911202 -0.136089 -0.113501 -0.991432 -0.0646565 -0.237032 -0.965337 -0.109276 
-0.0514053 -0.99749 0.0487035 0.0657849 -0.996291 -0.0554754 0.054969 -0.99848 -0.00408854 
0.0769478 -0.988671 -0.128873 0.0952562 -0.967645 -0.233643 0.166572 -0.957683 -0.234727 
0.314979 -0.922212 -0.224307 0.51947 -0.836047 -0.176567 -0.473501 -0.869425 -0.141059 
-0.589567 -0.795342 -0.140858 -0.48602 -0.873238 0.0352227 0.525171 -0.832659 -0.175712 
0.541524 -0.833849 -0.106994 0.78243 -0.605284 -0.146409 -0.665936 -0.733989 -0.133378 
-0.763446 -0.631511 -0.135438 0.794053 -0.589213 -0.149359 0.786647 -0.616001 0.0415835 
-0.848169 -0.512485 -0.134046 0.85875 -0.483039 -0.170943 0.886571 -0.42311 -0.187002 
-0.953051 -0.240217 -0.184365 0.905717 -0.372302 -0.202654 -0.980613 -0.0111401 -0.195636 
0.946329 -0.237311 -0.219421 -0.965976 0.163748 -0.200194 0.973209 -0.0562878 -0.222927 
-0.926929 0.318161 -0.198939 0.95638 0.156971 -0.246367 -0.881659 0.429268 -0.195977 
-0.862932 0.457656 -0.214241 0.850347 0.43121 -0.301608 0.756604 0.564598 -0.329819 
-0.806707 0.530067 -0.261253 -0.730818 0.588051 -0.346556 0.660376 0.653337 -0.370209 
0.550884 0.718809 -0.424076 -0.715713 0.5965 -0.363238 -0.799782 0.592134 -0.0986193 
-0.546957 0.707474 -0.447569 0.136702 0.814127 -0.564367 0.179764 0.827795 -0.531452 
0.276069 0.824623 -0.493744 0.433713 0.77039 -0.467324 0.385289 0.78739 -0.481216 
-0.512824 0.718348 -0.470093 -0.614674 0.730273 -0.298122 -0.316525 0.797789 -0.513171 
-0.0744775 0.795872 -0.600867 0.103405 0.77654 -0.621525 0.207482 0.76182 -0.613662 
0.138234 0.81358 -0.564782 0.189049 0.783045 -0.592538 0.137207 0.815713 -0.561949 
0.211135 0.875995 -0.433653 -0.129438 0.90272 -0.410296 0.102366 0.884133 -0.455884 
0.227484 0.896264 -0.380739 -0.384956 -0.894194 0.22853 -0.215825 -0.950094 0.22526 
-0.0494342 -0.974736 0.217821 0.00828406 -0.982107 0.188139 -0.0103287 -0.993041 0.117314 
0.052298 -0.996112 0.0708941 0.187676 -0.980154 0.0638454 0.386982 -0.914872 0.115129 
-0.581673 -0.756985 0.297709 -0.481177 -0.840788 0.248081 -0.492178 -0.832567 0.254153 
-0.392498 -0.736707 0.550644 0.58266 -0.789108 0.194464 0.604618 -0.768979 0.207623 
-0.617893 -0.724636 0.305141 -0.738398 -0.595495 0.316472 -0.568717 -0.699828 0.432206 
0.744322 -0.621549 0.244256 0.755868 -0.608202 0.242391 -0.791889 -0.535746 0.293066 
-0.707216 -0.553707 0.439606 0.826896 -0.513575 0.229094 0.871575 -0.440321 0.215578 
-0.913773 -0.28067 0.293671 0.893686 -0.399323 0.204611 0.852517 -0.40317 0.332668 
-0.963802 -0.033723 0.264477 0.94769 -0.262087 0.182191 -0.953407 0.166487 0.251588 
0.982154 -0.079274 0.170555 -0.913949 0.322712 0.246079 0.981937 0.116268 0.14927 
-0.885627 0.408974 0.220011 -0.878267 0.428532 0.212149 -0.86056 0.400317 0.314933 
0.924856 0.367412 0.0982339 0.825232 0.562224 0.0538139 -0.858425 0.481174 0.177702 
0.796768 0.603211 0.0360205 0.639843 0.7666 -0.0540946 -0.819362 0.564842 0.097971 
-0.812592 0.575056 0.0948883 -0.813087 0.559749 0.15991 0.347879 0.91995 -0.180753 
0.613029 0.787333 -0.0655858 0.441153 0.886789 -0.137801 -0.715285 0.6987 0.0136095 
-0.681828 0.731508 -0.00257696 -0.691257 0.656361 0.302249 -0.436057 0.897006 -0.0723466 
0.247324 0.893054 -0.375879 0.228134 0.91826 -0.323657 0.337163 0.921672 -0.191941 
0.27228 0.927755 -0.255214 -0.357418 0.927461 -0.10986 -0.185401 0.968073 -0.168707 
0.0807133 0.958589 -0.273118 0.238197 0.907004 -0.347283 0.227463 0.913094 -0.338409 
0.264947 0.961162 -0.0772714 -0.244202 -0.793371 0.557608 -0.0985119 -0.844904 0.525768 
-0.0485232 -0.874376 0.482817 -0.0486405 -0.906842 0.418655 0.0392497 -0.913401 0.405164 
0.220534 -0.876695 0.427518 0.442008 -0.766641 0.465715 -0.471927 -0.613053 0.633601 
-0.381691 -0.727663 0.569929 -0.391567 -0.718759 0.574509 -0.247442 -0.669488 0.700399 
-0.113993 -0.603413 0.789239 -0.0823908 -0.561324 0.823485 -0.0707348 -0.518557 0.852112 
0.0539985 -0.514824 0.855594 0.216372 -0.610708 0.761721 0.505835 -0.717045 0.47956 
0.440499 -0.697771 0.564869 0.598722 -0.605496 0.524316 -0.486324 -0.590398 0.644142 
-0.504574 -0.542239 0.67185 -0.445748 -0.545308 0.709893 -0.297379 -0.386665 0.872958 
-0.170264 -0.290259 0.941679 0.3199 -0.36129 0.875861 0.62788 -0.563438 0.536939 
0.563718 -0.528231 0.634976 0.692179 -0.499775 0.520686 -0.532556 -0.500449 0.682594 
-0.654601 -0.343015 0.673676 -0.454592 -0.443906 0.772201 -0.281449 -0.30919 0.908398 
-0.173224 -0.180533 0.968195 0.391809 -0.338787 0.8554 0.705278 -0.482886 0.519042 
0.677122 -0.47433 0.562599 -0.698162 -0.258653 0.667585 -0.650515 -0.266237 0.7113 
-0.373928 -0.242005 0.895327 -0.188558 -0.192514 0.963008 0.7644 -0.386079 0.516368 
0.563395 -0.329594 0.757598 0.807475 -0.300698 0.507508 -0.746597 -0.0629623 0.662291 
-0.6339 -0.0740292 0.769864 -0.354034 -0.0870875 0.931169 0.824785 -0.246932 0.50868 
0.786802 -0.241096 0.568168 -0.756345 0.111155 0.64466 -0.658078 0.0961671 0.746783 
-0.385771 0.0497342 0.921253 0.847336 -0.0911172 0.523181 0.753278 -0.0879297 0.651798 
-0.742719 0.279956 0.608271 -0.739171 0.292172 0.606846 -0.723604 0.276125 0.632576 
-0.445195 0.159284 0.881153 0.859555 0.0721807 0.50592 0.747766 0.040266 0.662741 
-0.720618 0.321382 0.614348 -0.58297 0.2367 0.777251 0.846661 0.311768 0.431238 
0.82075 0.385794 0.421347 0.790885 0.303335 0.531497 -0.745045 0.361296 0.56069 
-0.739507 0.400873 0.540768 -0.708273 0.332096 0.622946 -0.418781 0.208667 0.883788 
0.756924 0.510609 0.407854 0.662326 0.661629 0.351527 0.601309 0.413162 0.683904 
-0.705467 0.470522 0.530024 -0.663548 0.591233 0.458419 -0.583308 0.382205 0.716709 
0.409096 0.889412 0.203928 0.610773 0.723871 0.320885 0.505067 0.814244 0.286206 
0.486058 0.63998 0.595124 -0.649684 0.614838 0.447085 -0.517565 0.7577 0.397514 
-0.473401 0.518024 0.71242 0.325488 0.945173 0.0265477 0.407079 0.890841 0.201715 
0.350165 0.928452 0.123939 0.367371 0.662533 0.652755 -0.385409 0.864774 0.321911 
-0.287005 0.911477 0.294684 -0.306026 0.847942 0.432831 -0.0553009 0.980743 0.187308 
-0.144062 0.832084 0.535614 0.146864 0.988347 0.0400034 0.0274142 0.822103 0.568679 
0.272735 0.962059 -0.00762187 0.26223 0.96498 -0.0069546 0.255977 0.960825 0.10626 
-0.0537112 -0.298822 0.952796 -0.0106297 -0.208498 0.977965 -0.069819 -0.291631 0.953979 
0.0247194 -0.378957 0.925084 0.147855 -0.38674 0.910259 -0.141032 -0.271467 0.952059 
-0.153786 -0.253935 0.954917 -0.0283641 -0.208806 0.977546 -0.000115407 -0.164368 0.986399 
-0.0677152 -0.142207 0.987518 -0.0406473 -0.174858 0.983754 0.287977 -0.346423 0.892782 
0.102148 -0.2674 0.958156 0.303291 -0.342855 0.889081 -0.168251 -0.176106 0.969886 
-0.16832 -0.177412 0.969636 -0.0740904 -0.0921484 0.992985 0.0087412 -0.0433484 0.999022 
-0.0138161 -0.0663899 0.997698 -0.0793981 -0.0427128 0.995928 -0.0710515 -0.0315192 0.996975 
0.00566111 -0.0696204 0.997558 0.349974 -0.310666 0.883745 0.187544 -0.208212 0.959935 
0.362616 -0.309834 0.878927 -0.185466 -0.190556 0.963997 -0.188072 -0.190807 0.963443 
-0.0809809 -0.121868 0.989237 -0.0290207 -0.0338696 0.999005 -0.00410339 -0.0670446 0.997742 
-0.0052855 -0.100175 0.994956 -0.0343065 -0.062861 0.997432 -0.0721101 0.0468119 0.996298 
-0.0662133 0.00115642 0.997805 0.0551438 -0.0828094 0.995039 0.406565 -0.268566 0.873257 
0.267444 -0.218934 0.938372 0.47364 -0.204135 0.856735 -0.294314 -0.0968556 0.950788 
-0.163742 -0.0997545 0.981447 -0.00430542 -0.0658929 0.997817 -0.0217638 -0.0801065 0.996549 
-0.0579388 -0.137537 0.988801 -0.00746814 0.014447 0.999868 0.0685945 -0.00815107 0.997611 
-0.00879549 0.0579479 0.998281 -0.125105 0.0238812 0.991856 -0.0347751 -0.0265748 0.999042 
0.169214 -0.103879 0.98009 0.479206 -0.178068 0.859449 0.453186 -0.170666 0.874926 
-0.32471 0.0400392 0.944966 -0.162658 0.0211528 0.986456 -0.0646957 -0.029219 0.997477 
-0.0967025 -0.100527 0.990224 0.0762211 -0.107979 0.991227 0.140613 -0.110469 0.983882 
0.00466335 -0.0294987 0.999554 -0.0429451 0.0277558 0.998692 -0.151243 0.0122797 0.98842 
-0.0735417 -0.00790836 0.997261 0.124667 -0.0189471 0.992018 0.490956 -0.0539324 0.869513 
0.413598 -0.0430813 0.90944 -0.320192 0.114058 0.940461 -0.228751 0.0724882 0.970782 
-0.125694 -0.0216554 0.991833 -0.103122 -0.0307203 0.994194 -0.0514246 0.0442632 0.997696 
0.0661938 -0.0946196 0.99331 0.202475 -0.0563808 0.977663 0.0336577 -0.0583078 0.997731 
-0.161966 -0.0304691 0.986326 -0.0648813 0.00369772 0.997886 0.138183 0.037033 0.989714 
0.471827 0.0470827 0.880433 0.388373 0.0486861 0.920215 -0.358418 0.106775 0.927435 
-0.378415 0.153508 0.912818 -0.334755 0.0937154 0.937634 -0.161539 0.0250192 0.986549 
-0.0311628 0.000904191 0.999514 0.00804984 0.0282106 0.99957 0.0241359 -0.00392665 0.999701 
0.0647973 -0.0758605 0.995011 -0.0165065 -0.140786 0.989902 -0.0876196 -0.0555032 0.994607 
-0.00681445 0.00864723 0.999939 0.169107 0.10572 0.979911 0.437272 0.211384 0.874134 
0.435877 0.227233 0.870848 0.418159 0.205741 0.884768 -0.385109 0.184884 0.904162 
-0.213444 0.0785962 0.973789 -0.102123 0.00801614 0.994739 -0.0546619 -0.0839211 0.994972 
-0.0395103 -0.164769 0.985541 0.0548429 -0.179838 0.982166 0.0546739 -0.107414 0.99271 
-0.0115924 -0.00142214 0.999932 0.0990121 0.143353 0.984706 0.42804 0.314741 0.847184 
0.378112 0.418975 0.825525 0.295122 0.249709 0.922252 -0.417774 0.276212 0.865547 
-0.394905 0.326966 0.85857 -0.350965 0.235877 0.906193 -0.190689 0.117015 0.974651 
-0.173928 0.0171132 0.98461 -0.0666011 -0.0570428 0.996148 0.122854 -0.00661957 0.992403 
0.154973 0.0807192 0.984616 0.308981 0.49854 0.809931 0.16381 0.246635 0.955163 
0.335536 0.482164 0.80928 0.296918 0.506296 0.809632 0.251635 0.406896 0.878132 
-0.350462 0.403694 0.845108 -0.311341 0.467248 0.827494 -0.295925 0.342196 0.891813 
-0.185673 0.615426 0.766013 -0.219999 0.299046 0.928532 0.00224628 0.748899 0.662681 
-0.0670459 0.35623 0.93199 0.196815 0.744663 0.637762 0.196459 0.408599 0.89132 
0.341728 0.5413 0.768256 0.33165 0.627171 0.704744 0.317318 0.43431 0.843021 

