# vtk DataFile Version 4.2
vtk output
ASCII
DATASET POLYDATA
POINTS 532 float
25.7976 16.048 -22.8806 -15.2426 -33.2002 -16.0825 -7.03454 -33.2002 -16.6136 
1.17348 -33.2002 -15.7842 -31.6586 -24.9921 -14.8399 -23.4506 -24.9921 -17.0123 
-15.2426 -24.9921 -18.4515 -7.03454 -24.9921 -18.9025 1.17348 -24.9921 -18.5461 
9.38151 -24.9921 -17.3536 17.5895 -24.9921 -16.8303 25.7976 -24.9921 -15.6249 
-31.6586 -16.7841 -15.957 -23.4506 -16.7841 -18.3976 -15.2426 -16.7841 -19.8749 
-7.03454 -16.7841 -20.006 1.17348 -16.7841 -20.084 9.38151 -16.7841 -19.741 
17.5895 -16.7841 -19.4755 25.7976 -16.7841 -18.2904 34.0056 -16.7841 -16.3234 
42.2136 -16.7841 -14.6659 -39.8666 -8.57608 -14.8307 -31.6586 -8.57608 -16.3149 
-23.4506 -8.57608 -18.2414 -15.2426 -8.57608 -21.3944 -7.03454 -8.57608 -20.1835 
1.17348 -8.57608 -21.7408 9.38151 -8.57608 -22.1831 17.5895 -8.57608 -20.7314 
25.7976 -8.57608 -19.9119 34.0056 -8.57608 -18.7288 42.2136 -8.57608 -17.3872 
50.4216 -8.57608 -14.853 -48.0747 -0.368051 -14.9811 -39.8666 -0.368051 -16.1798 
-31.6586 -0.368051 -16.9396 -23.4506 -0.368051 -18.1623 -15.2426 -0.368051 -21.0135 
-7.03454 -0.368051 -19.6672 1.17348 -0.368051 -20.9688 9.38151 -0.368051 -21.3535 
17.5895 -0.368051 -20.4988 25.7976 -0.368051 -20.8827 34.0056 -0.368051 -20.6003 
42.2136 -0.368051 -19.4653 50.4216 -0.368051 -17.1316 -48.0747 7.83998 -16.6344 
-39.8666 7.83998 -17.7747 -31.6586 7.83998 -18.0701 -23.4506 7.83998 -18.3103 
-15.2426 7.83998 -18.8764 -7.03454 7.83998 -19.874 1.17348 7.83998 -21.9684 
9.38151 7.83998 -20.8383 17.5895 7.83998 -21.039 25.7976 15.5272 -22.8315 
25.7976 7.83998 -22.1012 34.0056 7.83998 -22.1056 42.2136 7.83998 -21.1313 
50.4216 7.83998 -19.0057 58.6297 7.83998 -14.8421 -48.0747 16.048 -15.9017 
-39.8666 16.048 -18.9017 -31.6586 16.048 -19.2869 -23.4506 16.048 -19.1155 
-15.2426 16.048 -18.7182 -7.03454 16.048 -18.7557 1.17348 16.048 -20.3219 
9.38151 16.048 -21.0976 25.2798 16.048 -22.8315 17.5895 16.048 -22.0986 
28.9479 16.048 -22.8315 25.7976 16.9956 -22.8315 34.0056 16.048 -22.752 
42.2136 16.048 -21.6294 50.4216 16.048 -19.4448 -48.0747 24.256 -15.5911 
-39.8666 24.256 -17.485 -31.6586 24.256 -18.3266 -23.4506 24.256 -18.9478 
-15.2426 24.256 -19.4763 -7.03454 24.256 -19.8704 1.17348 24.256 -20.5099 
9.38151 24.256 -21.0704 17.5895 24.256 -21.7329 25.7976 24.256 -22.4427 
34.0056 24.256 -22.3521 42.2136 24.256 -21.571 50.4216 24.256 -16.6921 
-39.8666 32.4641 -14.7104 -31.6586 32.4641 -16.5703 -23.4506 32.4641 -17.7574 
-15.2426 32.4641 -19.4735 -7.03454 32.4641 -19.5946 1.17348 32.4641 -19.8957 
9.38151 32.4641 -19.7749 17.5895 32.4641 -20.044 25.7976 32.4641 -20.1526 
34.0056 32.4641 -19.0986 42.2136 32.4641 -16.0349 -23.4506 40.6721 -14.6548 
-15.2426 40.6721 -15.768 -7.03454 40.6721 -16.7692 1.17348 40.6721 -16.8208 
9.38151 40.6721 -16.1465 17.5895 40.6721 -15.1448 -23.4506 -41.4082 -8.74175 
-15.2426 -36.0674 -14.6235 -15.2426 -41.4082 -11.0716 -7.03454 -36.7464 -14.6235 
-7.03454 -41.4082 -11.1128 1.17348 -34.9897 -14.6235 1.17348 -41.4082 -9.26116 
-39.8666 -33.2002 -7.20031 -31.6586 -25.6401 -14.6235 -31.6586 -33.2002 -11.952 
-21.4396 -33.2002 -14.6235 -23.4506 -31.8074 -14.6235 -23.4506 -33.2002 -14.1064 
5.58784 -33.2002 -14.6235 9.38151 -31.1543 -14.6235 9.38151 -33.2002 -13.5362 
17.5895 -29.4047 -14.6235 17.5895 -33.2002 -12.3608 25.7976 -26.9191 -14.6235 
25.7976 -33.2002 -10.6411 34.0056 -33.2002 -7.08535 -48.0747 -24.9921 -6.90106 
-32.2994 -24.9921 -14.6235 -39.8666 -24.9921 -11.8176 29.0112 -24.9921 -14.6235 
34.0056 -21.1014 -14.6235 34.0056 -24.9921 -12.9019 42.2136 -16.8692 -14.6235 
42.2136 -24.9921 -9.53945 -48.0747 -16.7841 -10.5351 -35.9645 -16.7841 -14.6235 
-39.8666 -9.76046 -14.6235 -39.8666 -16.7841 -13.4957 42.3232 -16.7841 -14.6235 
50.4216 -9.11967 -14.6235 50.4216 -16.7841 -10.6934 -56.2827 -8.57608 -8.46725 
-40.8802 -8.57608 -14.6235 -48.0747 -2.06128 -14.6235 -48.0747 -8.57608 -12.9575 
51.0475 -8.57608 -14.6235 58.6297 -8.57608 -9.96941 -48.9617 -0.368051 -14.6235 
-56.2827 -0.368051 -10.8382 55.2414 -0.368051 -14.6235 58.6297 7.11024 -14.6235 
58.6297 -0.368051 -12.545 -52.1572 7.83998 -14.6235 -56.2827 7.83998 -12.1043 
58.8997 7.83998 -14.6235 58.6297 8.86084 -14.6235 -51.2159 16.048 -14.6235 
-56.2827 16.048 -12.3118 56.8526 16.048 -14.6235 58.6297 16.048 -12.88 
-50.6159 24.256 -14.6235 -56.2827 24.256 -11.139 -48.0747 25.85 -14.6235 
53.2115 24.256 -14.6235 50.4216 27.3155 -14.6235 58.6297 24.256 -6.79635 
-40.0864 32.4641 -14.6235 -48.0747 32.4641 -10.1261 -39.8666 32.5954 -14.6235 
-31.6586 35.6596 -14.6235 25.7976 39.6879 -14.6235 34.0056 36.9307 -14.6235 
44.4172 32.4641 -14.6235 42.2136 33.8405 -14.6235 -23.5296 40.6721 -14.6235 
-31.6586 40.6721 -9.19428 -23.4506 40.7024 -14.6235 -15.2426 41.7973 -14.6235 
-7.03454 43.0788 -14.6235 1.17348 43.0286 -14.6235 9.38151 42.3096 -14.6235 
20.3745 40.6721 -14.6235 17.5895 41.1027 -14.6235 25.7976 40.6721 -12.5318 
-23.4506 -43.5929 -6.41544 -15.2426 -45.6235 -6.41544 -7.03454 -45.5509 -6.41544 
1.17348 -43.8559 -6.41544 -39.8666 -34.287 -6.41544 -28.0313 -41.4082 -6.41544 
-31.6586 -39.6035 -6.41544 -31.6586 -41.4082 -3.27827 8.98532 -41.4082 -6.41544 
9.38151 -41.2698 -6.41544 9.38151 -41.4082 -6.24047 17.5895 -39.4101 -6.41544 
17.5895 -41.4082 -4.04578 25.7976 -37.9959 -6.41544 25.7976 -41.4082 -1.74321 
34.0056 -33.9514 -6.41544 -41.3072 -33.2002 -6.41544 -48.0747 -25.7938 -6.41544 
35.6447 -33.2002 -6.41544 42.2136 -29.5283 -6.41544 42.2136 -33.2002 -1.09566 
-48.6167 -24.9921 -6.41544 47.2 -24.9921 -6.41544 50.4216 -22.3635 -6.41544 
50.4216 -24.9921 -3.21559 -55.5667 -16.7841 -6.41544 -56.2827 -14.752 -6.41544 
-56.2827 -16.7841 -4.81407 55.8556 -16.7841 -6.41544 58.6297 -13.0202 -6.41544 
58.6297 -16.7841 -2.40871 -58.0089 -8.57608 -6.41544 61.5596 -8.57608 -6.41544 
-61.9392 -0.368051 -6.41544 64.6181 -0.368051 -6.41544 -63.5655 7.83998 -6.41544 
-64.4907 7.83998 0.824387 65.7137 7.83998 -6.41544 -63.3782 16.048 -6.41544 
63.2807 16.048 -6.41544 -59.1346 24.256 -6.41544 -56.2827 27.8896 -6.41544 
50.4216 32.215 -6.41544 58.8426 24.256 -6.41544 58.6297 24.5293 -6.41544 
58.6297 24.256 -5.44026 -51.9617 32.4641 -6.41544 -48.0747 35.2684 -6.41544 
-39.8666 39.4462 -6.41544 34.0056 40.5003 -6.41544 50.0751 32.4641 -6.41544 
42.2136 37.1829 -6.41544 -36.4086 40.6721 -6.41544 -31.6586 42.1863 -6.41544 
-23.4506 44.261 -6.41544 -15.2426 45.2552 -6.41544 -7.03454 45.9222 -6.41544 
1.17348 46.0807 -6.41544 9.38151 45.7113 -6.41544 17.5895 44.6675 -6.41544 
33.4089 40.6721 -6.41544 25.7976 42.7708 -6.41544 25.7976 40.6721 1.68587 
-31.6586 -43.901 1.79259 -23.4506 -47.1581 1.79259 -15.2426 -48.8967 1.79259 
-7.03454 -49.0116 1.79259 1.17348 -48.4329 1.79259 9.38151 -46.5868 1.79259 
17.5895 -45.3698 1.79259 25.7976 -43.2918 1.79259 -36.359 -41.4082 1.79259 
-39.8666 -39.2543 1.79259 30.123 -41.4082 1.79259 34.0056 -39.5864 1.79259 
42.2136 -34.4201 1.79259 -47.1427 -33.2002 1.79259 -48.0747 -32.2235 1.79259 
43.859 -33.2002 1.79259 42.2136 -33.2002 7.6405 50.4216 -27.995 1.79259 
-53.3404 -24.9921 1.79259 -56.2827 -19.9942 1.79259 53.6344 -24.9921 1.79259 
50.4216 -24.9921 9.84512 58.6297 -19.3967 1.79259 -57.991 -16.7841 1.79259 
-56.2827 -16.7841 5.69568 60.5925 -16.7841 1.79259 58.6297 -16.7841 5.92639 
-61.5522 -8.57608 1.79259 64.4661 -8.57608 1.79259 -64.166 -0.368051 1.79259 
-64.4907 6.00611 1.79259 65.661 -0.368051 1.79259 -64.5811 7.83998 1.79259 
-64.4907 8.47054 1.79259 -64.4907 7.83998 1.96805 65.4304 7.83998 1.79259 
-63.3111 16.048 1.79259 62.4497 16.048 1.79259 58.6297 22.0527 1.79259 
58.6297 16.048 6.78038 -59.3388 24.256 1.79259 -56.2827 27.7232 1.79259 
-56.2827 24.256 6.6201 56.8359 24.256 1.79259 50.4216 29.9281 1.79259 
50.4216 24.256 8.08231 -51.8408 32.4641 1.79259 -48.0747 35.2657 1.79259 
-48.0747 32.4641 6.59023 -39.8666 39.2843 1.79259 25.7976 40.6397 1.79259 
34.0056 38.066 1.79259 34.0056 32.4641 9.03205 46.5294 32.4641 1.79259 
42.2136 35.1506 1.79259 42.2136 32.4641 5.26518 -35.0684 40.6721 1.79259 
-31.6586 41.5646 1.79259 -31.6586 40.6721 3.84221 -23.4506 42.9574 1.79259 
-23.4506 40.6721 6.99637 -15.2426 43.6069 1.79259 -15.2426 40.6721 8.379 
-7.03454 43.6519 1.79259 -7.03454 40.6721 7.55993 1.17348 43.7101 1.79259 
1.17348 40.6721 7.14667 9.38151 43.8689 1.79259 9.38151 40.6721 6.7908 
25.6888 40.6721 1.79259 17.5895 42.9851 1.79259 17.5895 40.6721 5.20153 
-31.6586 -42.0858 10.0006 -23.4506 -45.7634 10.0006 -15.2426 -48.3428 10.0006 
-7.03454 -49.3956 10.0006 1.17348 -49.2912 10.0006 9.38151 -48.3335 10.0006 
17.5895 -46.7844 10.0006 25.7976 -43.9046 10.0006 -32.7275 -41.4082 10.0006 
-39.8666 -36.1945 10.0006 -31.6586 -41.4082 10.8724 -23.4506 -41.4082 15.085 
30.1694 -41.4082 10.0006 25.7976 -41.4082 13.3423 34.0056 -38.6289 10.0006 
-43.1496 -33.2002 10.0006 -48.0747 -27.3855 10.0006 -39.8666 -33.2002 12.7894 
-31.6586 -33.2002 16.4625 25.7976 -33.2002 18.01 41.3849 -33.2002 10.0006 
34.0056 -33.2002 14.6072 42.2136 -32.4004 10.0006 -49.8629 -24.9921 10.0006 
-48.0747 -24.9921 11.6049 -39.8666 -24.9921 15.5074 34.0056 -24.9921 17.9258 
50.3252 -24.9921 10.0006 42.2136 -24.9921 14.2584 50.4216 -24.871 10.0006 
-53.2178 -16.7841 10.0006 -56.2827 -11.2844 10.0006 -48.0747 -16.7841 14.0699 
-39.8666 -16.7841 17.2217 34.0056 -16.7841 18.1761 42.2136 -16.7841 16.6752 
55.7008 -16.7841 10.0006 50.4216 -16.7841 14.1233 58.6297 -11.7371 10.0006 
-57.2866 -8.57608 10.0006 -56.2827 -8.57608 10.9383 -48.0747 -8.57608 15.1816 
-39.8666 -8.57608 17.7673 42.2136 -8.57608 17.6895 50.4216 -8.57608 16.1883 
60.0388 -8.57608 10.0006 58.6297 -8.57608 11.2186 -59.6131 -0.368051 10.0006 
-56.2827 -0.368051 12.9076 -48.0747 -0.368051 16.1612 42.2136 -0.368051 17.4946 
50.4216 -0.368051 15.5662 60.2573 -0.368051 10.0006 58.6297 -0.368051 11.3716 
-59.6119 7.83998 10.0006 -56.2827 7.83998 12.8507 -48.0747 7.83998 16.2246 
34.0056 7.83998 18.0156 42.2136 7.83998 16.649 50.4216 7.83998 14.4737 
59.1724 7.83998 10.0006 58.6297 8.76217 10.0006 58.6297 7.83998 10.3183 
[...]
POINT_DATA 532
SCALARS ImageScalars float
LOOKUP_TABLE default
0 0 0 0 0 0 0 0 0 
0 0 0 0 0 0 0 0 0 
0 0 0 0 0 0 0 0 0 
0 0 0 0 0 0 0 0 0 
0 0 0 0 0 0 0 0 0 
0 0 0 0 0 0 0 0 0 
0 0 0 0 0 0 0 0 0 
0 0 0 0 0 0 0 0 0 
0 0 0 0 0 0 0 0 0 
0 0 0 0 0 0 0 0 0 
0 0 0 0 0 0 0 0 0 
0 0 0 0 0 0 0 0 0 
0 0 0 0 0 0 0 0 0 
0 0 0 0 0 0 0 0 0 
0 0 0 0 0 0 0 0 0 
0 0 0 0 0 0 0 0 0 
0 0 0 0 0 0 0 0 0 
0 0 0 0 0 0 0 0 0 
0 0 0 0 0 0 0 0 0 
0 0 0 0 0 0 0 0 0 
0 0 0 0 0 0 0 0 0 
0 0 0 0 0 0 0 0 0 
0 0 0 0 0 0 0 0 0 
0 0 0 0 0 0 0 0 0 
0 0 0 0 0 0 0 0 0 
0 0 0 0 0 0 0 0 0 
0 0 0 0 0 0 0 0 0 
0 0 0 0 0 0 0 0 0 
0 0 0 0 0 0 0 0 0 
0 0 0 0 0 0 0 0 0 
0 0 0 0 0 0 0 0 0 
0 0 0 0 0 0 0 0 0 
0 0 0 0 0 0 0 0 0 
0 0 0 0 0 0 0 0 0 
0 0 0 0 0 0 0 0 0 
0 0 0 0 0 0 0 0 0 
0 0 0 0 0 0 0 0 0 
0 0 0 0 0 0 0 0 0 
0 0 0 0 0 0 0 0 0 
0 0 0 0 0 0 0 0 0 
0 0 0 0 0 0 0 0 0 
0 0 0 0 0 0 0 0 0 
0 0 0 0 0 0 0 0 0 
0 0 0 0 0 0 0 0 0 
0 0 0 0 0 0 0 0 0 
0 0 0 0 0 0 0 0 0 
0 0 0 0 0 0 0 0 0 
0 0 0 0 0 0 0 0 0 
0 0 0 0 0 0 0 0 0 
0 0 0 0 0 0 0 0 0 
0 0 0 0 0 0 0 0 0 
0 0 0 0 0 0 0 0 0 
0 0 0 0 0 0 0 0 0 
0 0 0 0 0 0 0 0 0 
0 0 0 0 0 0 0 0 0 
0 0 0 0 0 0 0 0 0 
0 0 0 0 0 0 0 0 0 
0 0 0 0 0 0 0 0 0 
0 0 0 0 0 0 0 0 0 
0 
NORMALS Normals float
0.0396232 0.0212391 0.998989 0.134923 0.375707 0.916864 -0.0134473 0.386387 0.922239 
-0.168092 0.461893 0.870861 0.277773 0.217092 0.935796 0.202075 0.235192 0.950711 
0.107486 0.221902 0.969126 0.0053788 0.192655 0.981252 -0.0922586 0.241423 0.966025 
-0.0990664 0.334405 0.937208 -0.0975599 0.378964 0.920255 -0.210705 0.391533 0.895715 
0.284379 0.0806702 0.955312 0.232978 0.0702483 0.969941 0.0958532 0.176375 0.979645 
0.0124601 0.0762721 0.997009 -0.0155384 0.187644 0.982114 -0.0358682 0.283306 0.958359 
-0.0838401 0.227832 0.970084 -0.181634 0.249172 0.951274 -0.210153 0.320355 0.923693 
-0.27969 0.388145 0.878133 0.188047 0.16715 0.967832 0.194614 0.0587537 0.979119 
0.310801 -0.0138714 0.950374 0.10705 0.0705663 0.991746 0.0174515 -0.019068 0.999666 
0.125956 0.0597166 0.990237 -0.0636321 0.0974746 0.993202 -0.134661 0.0588662 0.989142 
-0.118549 0.150106 0.981537 -0.144045 0.245874 0.958539 -0.227703 0.285547 0.930921 
-0.319108 0.332413 0.887509 0.274601 0.22044 0.935949 0.120581 0.176838 0.976826 
0.112568 0.105538 0.988023 0.245498 0.00471657 0.969386 0.0834484 -0.158216 0.983872 
-0.00734985 -0.0208808 0.999755 0.107976 0.0177786 0.993995 -0.033185 -0.0827987 0.996014 
-0.026266 0.0186576 0.999481 0.00652254 0.132894 0.991109 -0.0828334 0.201465 0.975987 
-0.196382 0.210066 0.957761 -0.350898 0.229897 0.907754 0.301981 0.0572575 0.951593 
0.0962722 0.15847 0.982659 0.0323969 0.14015 0.9896 0.0488205 0.057167 0.99717 
0.0911534 -0.132868 0.986933 0.194773 -0.0581177 0.979125 0.0490793 -0.0441268 0.99782 
-0.0573048 -0.0143597 0.998253 0.0774936 0.0988928 0.992076 0.0412376 0.0275552 0.998769 
0.0650045 0.121922 0.990409 -0.057452 0.129018 0.989977 -0.176162 0.126564 0.976191 
-0.318129 0.130551 0.939016 -0.585273 0.0353281 0.810066 0.343093 -0.0630527 0.937183 
0.193631 -0.0106354 0.981017 0.0117853 0.0172618 0.999782 -0.0342685 0.0386764 0.998664 
-0.0223198 0.0371005 0.999062 0.0952538 0.00613714 0.995434 0.142806 -0.0886384 0.985774 
0.105986 0.0136531 0.994274 0.0439451 0.0225503 0.998779 0.108187 0.0419346 0.993246 
-0.0034963 0.0196252 0.999801 0.0397378 0.00144252 0.999209 -0.0733331 0.0166186 0.997169 
-0.183585 0.027607 0.982616 -0.430858 -0.127688 0.89334 0.300592 -0.27595 0.91296 
0.140461 -0.249552 0.95812 0.0844827 -0.14914 0.985201 0.0681819 -0.0785447 0.994576 
0.0573202 0.046543 0.99727 0.0625826 0.0507685 0.996748 0.0732512 -0.025339 0.996992 
0.0743168 -0.0776535 0.994207 0.0826336 -0.121941 0.989092 0.0384495 -0.155502 0.987087 
-0.0414491 -0.166645 0.985145 -0.305192 -0.271031 0.912907 -0.524126 -0.394276 0.754876 
0.290433 -0.477855 0.829037 0.184877 -0.377984 0.907165 0.161814 -0.232509 0.959039 
0.108003 -0.170358 0.979445 0.0245882 -0.16901 0.985308 0.0110733 -0.202093 0.979304 
0.00861918 -0.266845 0.963701 0.0221597 -0.308506 0.950964 -0.0419595 -0.439408 0.897307 
-0.218146 -0.561936 0.797898 -0.376769 -0.657438 0.652549 0.239652 -0.678289 0.694615 
0.126392 -0.667388 0.733906 0.0542578 -0.59481 0.802033 -0.0359023 -0.615521 0.787302 
-0.0845901 -0.646863 0.757901 -0.12866 -0.767046 0.62856 0.2759 0.685412 0.673861 
0.130482 0.454625 0.881074 0.108302 0.660368 0.743092 -0.0421854 0.500264 0.864845 
-0.0789436 0.69192 0.717645 -0.180147 0.516524 0.837108 -0.207339 0.711215 0.671702 
0.48897 0.541095 0.684197 0.280219 0.229674 0.932056 0.337172 0.440396 0.832086 
0.204803 0.395572 0.895309 0.224309 0.373449 0.900123 0.227208 0.407393 0.884538 
-0.171742 0.496827 0.850687 -0.154976 0.472261 0.867728 -0.16975 0.52852 0.831776 
-0.116891 0.48335 0.867588 -0.135023 0.589322 0.796535 -0.217799 0.43452 0.873931 
-0.245371 0.598002 0.763012 -0.324561 0.641022 0.695522 0.60416 0.459459 0.651067 
0.279821 0.22207 0.934016 0.367115 0.321792 0.872741 -0.247079 0.410699 0.877655 
-0.254263 0.383956 0.887653 -0.304164 0.451209 0.838984 -0.280497 0.389282 0.877372 
-0.399833 0.528281 0.749034 0.419434 0.26965 0.866813 0.292699 0.117692 0.948934 
0.206793 0.164316 0.964488 0.303694 0.153839 0.940268 -0.281628 0.388904 0.877177 
-0.324103 0.341406 0.882269 -0.456803 0.475971 0.75152 0.668721 0.273091 0.691544 
0.196142 0.181336 0.963663 0.271309 0.238603 0.932448 0.286301 0.272447 0.918588 
-0.333469 0.332652 0.882123 -0.632366 0.389143 0.669836 0.297863 0.21205 0.930759 
0.538867 0.16994 0.825072 -0.480803 0.196789 0.85446 -0.585917 0.0478801 0.808955 
-0.616788 0.200875 0.761066 0.411106 0.0557759 0.909879 0.552715 0.0737175 0.830104 
-0.591535 0.0331846 0.805596 -0.602416 -0.000543796 0.798182 0.390886 -0.0428764 0.91944 
0.54788 -0.0244195 0.8362 -0.631977 -0.209769 0.746057 -0.733105 -0.264047 0.626767 
0.392679 -0.298071 0.870033 0.691159 -0.408245 0.596351 0.328742 -0.350413 0.877006 
-0.591485 -0.432714 0.68037 -0.557601 -0.530424 0.638538 -0.803911 -0.572216 0.162161 
0.294721 -0.481013 0.825691 0.492453 -0.683985 0.538195 0.291977 -0.483352 0.8253 
0.243393 -0.506858 0.826955 -0.187946 -0.795467 0.576115 -0.291538 -0.753967 0.588676 
-0.439672 -0.683564 0.582605 -0.390483 -0.712736 0.582692 0.240408 -0.678999 0.69366 
0.305754 -0.869996 0.386809 0.239421 -0.680155 0.692868 0.138583 -0.728026 0.671396 
0.0657018 -0.73822 0.671353 -0.0420468 -0.749831 0.660292 -0.106297 -0.727886 0.677409 
-0.155039 -0.79528 0.586082 -0.136142 -0.786002 0.603047 -0.213336 -0.881594 0.421046 
0.287307 0.765814 0.575311 0.0956501 0.834126 0.543217 -0.0907536 0.830227 0.549988 
-0.205148 0.77911 0.592369 0.497535 0.578528 0.646347 0.336288 0.752445 0.566336 
0.370456 0.734941 0.568001 0.404987 0.833912 0.374935 -0.212228 0.746965 0.630081 
-0.211568 0.745201 0.632388 -0.21149 0.750156 0.626528 -0.134927 0.728909 0.671183 
-0.142385 0.793457 0.591737 -0.231271 0.722681 0.651341 -0.28478 0.853823 0.435759 
-0.332808 0.659226 0.674284 0.520184 0.560901 0.644049 0.612553 0.483547 0.625269 
-0.3528 0.659584 0.663688 -0.454802 0.637187 0.622212 -0.560247 0.78517 0.263876 
0.618943 0.475019 0.625513 -0.501419 0.603651 0.619826 -0.527181 0.596175 0.605522 
-0.598408 0.69841 0.392597 0.73455 0.355621 0.577901 0.748399 0.340999 0.568875 
0.812384 0.389329 0.434114 -0.624531 0.524205 0.578938 -0.692002 0.491155 0.529056 
-0.783994 0.56028 0.267282 0.748375 0.309306 0.58674 -0.751385 0.433038 0.497894 
0.801122 0.263133 0.537555 -0.880842 0.207794 0.425369 0.896023 0.0578116 0.440228 
0.989203 -0.0359187 -0.142079 -0.961645 -0.0892044 0.259388 0.900174 -0.237448 0.365109 
-0.910503 -0.35172 0.217432 0.815635 -0.511683 0.270038 0.75839 -0.602512 0.248645 
-0.58283 -0.809954 0.0654514 -0.805826 -0.575072 0.141199 -0.801551 -0.581484 0.139255 
-0.803377 -0.58864 0.089935 0.61387 -0.732349 0.294666 0.505827 -0.812013 0.291158 
0.382336 -0.887026 0.258852 -0.323853 -0.945643 0.0296496 -0.57475 -0.815936 0.0625342 
-0.427421 -0.902015 0.0606592 0.334667 -0.913745 0.230364 0.284663 -0.937207 0.201521 
0.181773 -0.976664 0.114392 0.101923 -0.992072 0.0735217 0.0492912 -0.99877 0.00541025 
-0.012545 -0.999801 0.0154984 -0.0846329 -0.994571 0.0605467 -0.175461 -0.980236 0.091378 
-0.318201 -0.947577 0.0291008 -0.249228 -0.967322 0.0466113 -0.26807 -0.865317 -0.423515 
0.438861 0.893127 0.0986155 0.27834 0.955474 0.0979595 0.108035 0.985308 0.132275 
-0.0250392 0.982569 0.184203 -0.13493 0.951331 0.277062 -0.173714 0.915207 0.363621 
-0.180569 0.913213 0.36529 -0.335283 0.899421 0.280404 0.516654 0.854484 0.0540813 
0.574895 0.817664 0.0303437 -0.408319 0.88478 0.224589 -0.463651 0.867421 0.180581 
-0.585322 0.804327 0.102256 0.706462 0.707608 -0.0142163 0.728102 0.685248 -0.0173792 
-0.598584 0.795731 0.0922421 -0.614904 0.729356 -0.299889 -0.642937 0.760556 0.0904807 
0.831948 0.554852 0.0016552 0.873858 0.482275 -0.0615083 -0.694602 0.716422 0.065329 
-0.622232 0.552616 -0.554475 -0.806542 0.591154 0.00526031 0.894129 0.441747 -0.0734409 
0.838188 0.421824 -0.345696 -0.845364 0.533959 -0.0157382 -0.795689 0.509191 -0.32803 
0.934846 0.347146 -0.0745183 -0.948785 0.3015 -0.0943663 0.971064 0.181673 -0.155016 
0.980463 0.00336392 -0.196673 -0.975316 0.0544912 -0.213987 0.977752 -0.0457691 -0.204711 
0.975418 -0.061307 -0.211664 0.975763 -0.0465173 -0.213827 -0.953971 -0.192081 -0.230314 
0.923425 -0.269539 -0.273195 -0.857631 -0.403876 -0.318361 -0.737131 -0.585201 -0.337902 
-0.700979 -0.384738 -0.600505 0.800535 -0.565264 -0.199049 0.738878 -0.628142 -0.243921 
0.642626 -0.569474 -0.512572 -0.684719 -0.638095 -0.352127 -0.553054 -0.744269 -0.374426 
-0.426357 -0.541467 -0.724592 0.618256 -0.742464 -0.25789 0.509289 -0.825747 -0.242416 
0.525246 -0.69321 -0.493535 0.376649 -0.895659 -0.236495 -0.267783 -0.862295 -0.429814 
-0.282342 -0.854011 -0.436975 -0.234627 -0.65479 -0.718471 -0.489801 -0.777077 -0.395279 
-0.397586 -0.814623 -0.422272 -0.371734 -0.717097 -0.589564 0.277477 -0.931315 -0.235922 
0.20541 -0.949728 -0.236269 0.210799 -0.925693 -0.314095 0.1149 -0.953785 -0.277653 
0.113273 -0.893556 -0.434428 0.0427349 -0.945267 -0.323488 0.0109974 -0.867185 -0.497865 
0.00574822 -0.928296 -0.371799 -0.0332068 -0.850143 -0.525504 0.0123891 -0.91957 -0.392731 
-0.0255569 -0.83213 -0.553991 -0.0374982 -0.919451 -0.391414 -0.0698215 -0.80078 -0.594875 
-0.267015 -0.862802 -0.429274 -0.182961 -0.892657 -0.411934 -0.190296 -0.811803 -0.552054 
0.465798 0.77458 -0.427853 0.350226 0.845412 -0.403262 0.19825 0.939959 -0.277802 
0.053434 0.975893 -0.211609 -0.0660908 0.981257 -0.181017 -0.149932 0.981506 -0.11902 
-0.266392 0.955547 -0.126354 -0.448933 0.850893 -0.272837 0.480204 0.762177 -0.434155 
0.576578 0.638012 -0.510391 0.464284 0.747254 -0.475449 0.363113 0.624891 -0.69113 
-0.511373 0.799673 -0.314677 -0.47599 0.712379 -0.515703 -0.536468 0.745537 -0.395446 
0.620612 0.577969 -0.529898 0.657491 0.461839 -0.595324 0.541612 0.506626 -0.67081 
0.326944 0.346802 -0.879111 -0.324823 0.281032 -0.903057 -0.58858 0.661319 -0.465007 
-0.437834 0.491439 -0.752854 -0.587991 0.650533 -0.480701 0.681457 0.429727 -0.592411 
0.600994 0.405635 -0.68867 0.383411 0.228953 -0.89475 -0.291859 0.176763 -0.939986 
-0.617366 0.545405 -0.566915 -0.425796 0.360511 -0.829897 -0.617974 0.543722 -0.567868 
0.652908 0.319153 -0.686915 0.678877 0.298616 -0.670787 0.501502 0.200687 -0.841559 
0.265381 0.131582 -0.955122 -0.130334 0.0406634 -0.990636 -0.217602 0.204015 -0.954477 
-0.637738 0.393491 -0.662159 -0.46762 0.310419 -0.82763 -0.667979 0.28216 -0.688614 
0.687472 0.273295 -0.672824 0.647747 0.265601 -0.714058 0.384933 0.107391 -0.916676 
0.24744 0.0634121 -0.966826 -0.135198 0.0472174 -0.989693 -0.356794 0.061658 -0.932146 
-0.687858 0.193392 -0.699608 -0.631986 0.181457 -0.753437 0.716386 0.12131 -0.687077 
0.567044 0.105168 -0.816946 0.328531 0.0620893 -0.94245 -0.163478 -0.0591369 -0.984773 
-0.346011 -0.0870763 -0.934181 -0.652921 -0.0241601 -0.75704 -0.585959 -0.0479579 -0.808921 
0.698406 -0.0894786 -0.710086 0.553513 -0.0930163 -0.82763 0.346284 -0.0545079 -0.936545 
-0.151304 -0.103567 -0.983047 -0.201077 -0.144824 -0.968811 -0.350123 -0.154496 -0.923875 
-0.510303 -0.217285 -0.832092 -0.515605 -0.233997 -0.824255 -0.500096 -0.21701 -0.838338 
0.634068 -0.244208 -0.733703 0.574959 -0.362177 -0.733656 0.578752 -0.252244 -0.775512 
0.404108 -0.184683 -0.895873 -0.0903744 -0.235028 -0.967778 -0.173435 -0.218647 -0.960267 
-0.238211 -0.245697 -0.939621 -0.545142 -0.320896 -0.774497 -0.399567 -0.440985 -0.803666 
-0.380424 -0.314194 -0.869804 0.495372 -0.473363 -0.728377 0.4836 -0.512049 -0.709885 
0.443918 -0.394117 -0.804741 0.299802 -0.332833 -0.894059 -0.139616 -0.276292 -0.950879 
-0.098274 -0.340502 -0.935094 -0.0996918 -0.398564 -0.911706 -0.223763 -0.608609 -0.761266 
-0.166198 -0.416471 -0.893829 -0.353777 -0.500368 -0.790236 -0.312447 -0.545588 -0.777631 
-0.313999 -0.477779 -0.820446 0.42248 -0.630191 -0.651437 0.353294 -0.691291 -0.630317 
0.347958 -0.619515 -0.703652 0.223067 -0.763015 -0.60667 0.211751 -0.569339 -0.794365 
0.115204 -0.82086 -0.559389 0.0896667 -0.499575 -0.861617 0.00208527 -0.828623 -0.559803 
-0.00995035 -0.501371 -0.865175 -0.0571905 -0.788013 -0.612997 -0.0650489 -0.492894 -0.867654 
-0.0628972 -0.743473 -0.665802 -0.133999 -0.503767 -0.853383 -0.10785 -0.647237 -0.754621 
-0.160383 -0.468189 -0.868951 -0.162385 -0.591045 -0.790124 -0.146115 -0.48825 -0.860385 
-0.194313 -0.611203 -0.767251 -0.166491 -0.602669 -0.780429 -0.152878 -0.574628 -0.804009 
0.192636 0.51024 -0.838181 0.0523995 0.529043 -0.846976 -0.00234263 0.591674 -0.806174 
-0.0741295 0.556448 -0.827569 -0.263566 0.492031 -0.829722 0.217337 0.487418 -0.845688 
0.298207 0.336254 -0.893312 0.185529 0.468159 -0.863948 0.0594546 0.456848 -0.887556 
0.00471738 0.480634 -0.876908 -0.079917 0.47187 -0.878039 -0.274957 0.478217 -0.83409 
-0.260107 0.468361 -0.844382 0.287624 0.280233 -0.915829 0.283485 0.179938 -0.941944 
0.275938 0.260391 -0.925232 0.154083 0.170297 -0.973271 0.0717448 0.177101 -0.981574 
-0.0169935 0.115205 -0.993196 -0.114008 0.119364 -0.986283 -0.313612 0.265791 -0.911593 
-0.197805 0.135488 -0.970833 -0.305025 0.250366 -0.918845 0.28634 0.166679 -0.943519 
0.279916 0.162355 -0.946197 0.188771 0.088442 -0.97803 0.114853 0.0282846 -0.99298 
0.0181684 0.0107049 -0.999778 -0.0538312 -0.0307841 -0.998075 -0.0734385 -0.0595882 -0.995518 
-0.11893 -0.0450826 -0.991879 -0.272078 0.155025 -0.949706 -0.181659 0.0485875 -0.98216 
0.227559 0.0969705 -0.968924 0.196332 0.0570355 -0.978877 0.135964 0.00590869 -0.990696 
0.0845192 -0.0182386 -0.996255 0.0114637 -0.00828359 -0.9999 -0.0884763 0.0439384 -0.995109 
-0.124044 -0.00380951 -0.992269 -0.0985968 -0.0508971 -0.993825 -0.12848 0.0369049 -0.991025 
-0.0900377 -0.0425278 -0.99503 -0.125603 0.0390374 -0.991312 0.226652 0.0525269 -0.972558 
0.232409 0.0558162 -0.971015 0.168572 0.0355176 -0.985049 0.115913 0.0195804 -0.993066 
0.100985 -0.0198552 -0.99469 0.0806814 -0.0329136 -0.996196 -0.0448286 -0.0617584 -0.997084 
-0.168151 0.00414485 -0.985753 -0.162064 0.0747412 -0.983946 -0.0723306 0.0171271 -0.997234 
-0.0943896 0.0323434 -0.99501 -0.0649299 0.0198691 -0.997692 0.233123 0.0548445 -0.970899 
0.228208 0.0548843 -0.972064 0.151869 0.0604815 -0.986548 0.0778166 0.0321437 -0.996449 
0.0315092 -0.0793722 -0.996347 -0.0343906 -0.138638 -0.989746 -0.0553602 -0.0860936 -0.994748 
0.0171299 -0.115457 -0.993165 -0.0850742 0.0239756 -0.996086 -0.145049 0.0254907 -0.989096 
-0.118783 -0.043265 -0.991977 -0.131842 -0.0780851 -0.98819 -0.101256 -0.0359324 -0.994211 
0.267284 0.00861121 -0.963579 0.249798 0.017775 -0.968135 0.144276 -0.00169237 -0.989536 
-0.024672 -0.0358952 -0.999051 -0.0771808 -0.112248 -0.990678 0.0851454 -0.151577 -0.984771 
-0.0226442 -0.0225136 -0.99949 -0.0589658 -0.121555 -0.990832 -0.0229804 -0.145672 -0.989066 
-0.149369 -0.098313 -0.983882 -0.0974799 -0.213231 -0.972127 -0.139959 -0.0678069 -0.987833 
0.290415 -0.13679 -0.947073 0.273371 -0.17286 -0.946249 0.268805 -0.13438 -0.953774 
0.104374 -0.114381 -0.987939 -0.0295375 -0.113549 -0.993093 -0.0782688 -0.0322603 -0.99641 
0.0495948 -0.0656847 -0.996607 -0.033354 -0.178785 -0.983323 -0.118748 -0.181744 -0.97615 
-0.113578 -0.160035 -0.980555 -0.0550591 -0.250386 -0.966579 -0.0322009 -0.26518 -0.963661 
-0.0285981 -0.261625 -0.964746 0.183881 -0.279393 -0.942405 0.173591 -0.291753 -0.94061 
0.170468 -0.272644 -0.946893 0.067238 -0.307856 -0.949054 0.0559204 -0.221775 -0.973493 
-0.0205755 -0.303381 -0.952647 -0.029238 -0.157579 -0.987073 -0.0635649 -0.220714 -0.973265 
-0.0628639 -0.15675 -0.985636 -0.111771 -0.272135 -0.955746 -0.110732 -0.283247 -0.952633 
-0.108714 -0.272233 -0.95607 
