# vtk DataFile Version 4.2
vtk output
ASCII
DATASET POLYDATA
POINTS 536 float
-30.9225 -32.53 -13.1385 -22.5007 -32.53 -13.6385 -14.0789 -32.53 -15.3116 
-5.65712 -32.53 -15.8843 2.76469 -32.53 -14.7689 11.1865 -32.53 -13.3841 
-47.7662 -24.1082 -14.1651 -39.3443 -24.1082 -15.0449 -30.9225 -24.1082 -15.5267 
-22.5007 -24.1082 -15.5158 -14.0789 -24.1082 -16.6179 -5.65712 -24.1082 -17.593 
2.76469 -24.1082 -17.0145 11.1865 -24.1082 -16.291 19.6083 -24.1082 -15.3358 
28.0301 -24.1082 -14.2938 36.4519 -24.1082 -13.8099 44.8737 -24.1082 -13.0875 
-56.188 -15.6864 -15.6518 -47.7662 -15.6864 -17.0001 -39.3443 -15.6864 -17.6389 
-30.9225 -15.6864 -17.0409 -22.5007 -15.6864 -16.129 -14.0789 -15.6864 -17.0969 
-5.65712 -15.6864 -18.9381 2.76469 -15.6864 -17.9472 11.1865 -15.6864 -18.4096 
19.6083 -15.6864 -17.6842 28.0301 -15.6864 -17.7917 36.4519 -15.6864 -17.9314 
44.8737 -15.6864 -17.6091 53.2955 -15.6864 -16.2915 -64.6098 -7.26458 -13.7604 
-56.188 -7.26458 -17.8049 -47.7662 -7.26458 -19.2687 -39.3443 -7.26458 -18.9345 
-30.9225 -7.26458 -17.8222 -22.5007 -7.26458 -16.4172 -14.0789 -7.26458 -18.892 
-5.65712 -7.26458 -19.8037 2.76469 -7.26458 -17.3903 11.1865 -7.26458 -19.9184 
19.6083 -7.26458 -18.1776 28.0301 -7.26458 -19.3872 36.4519 -7.26458 -20.5892 
44.8737 -7.26458 -20.2627 53.2955 -7.26458 -19.5728 61.7173 -7.26458 -17.4653 
70.1391 -7.26458 -13.242 -64.6098 1.15723 -15.4811 -56.188 1.15723 -18.2483 
-47.7662 1.15723 -20.9161 -39.3443 1.15723 -19.9174 -30.9225 1.15723 -18.7735 
-22.5007 1.15723 -17.2502 -14.0789 1.15723 -18.2008 -5.65712 1.15723 -18.8453 
2.76469 1.15723 -17.3263 11.1865 1.15723 -20.3722 19.6083 1.15723 -17.8132 
28.0301 1.15723 -19.3199 36.4519 1.15723 -20.7041 44.8737 1.15723 -21.236 
53.2955 1.15723 -20.6584 61.7173 1.15723 -19.323 70.1391 1.15723 -13.4811 
-64.6098 9.57903 -14.644 -56.188 9.57903 -18.5378 -47.7662 9.57903 -20.7109 
-39.3443 9.57903 -20.2986 -30.9225 9.57903 -19.3979 -22.5007 9.57903 -18.1573 
-14.0789 9.57903 -17.5147 -5.65712 9.57903 -18.8204 2.76469 9.57903 -19.1586 
11.1865 9.57903 -18.2855 19.6083 9.57903 -18.0114 28.0301 9.57903 -19.9308 
36.4519 9.57903 -20.6499 44.8737 9.57903 -21.0029 53.2955 9.57903 -20.2199 
61.7173 9.57903 -18.178 -64.6098 18.0008 -13.207 -56.188 18.0008 -18.0026 
-47.7662 18.0008 -19.1355 -39.3443 18.0008 -19.6419 -30.9225 18.0008 -20.0489 
-22.5007 18.0008 -18.5084 -14.0789 18.0008 -17.4363 -5.65712 18.0008 -18.283 
2.76469 18.0008 -18.2529 11.1865 18.0008 -16.5188 19.6083 18.0008 -17.5664 
28.0301 18.0008 -18.7786 36.4519 18.0008 -19.7751 44.8737 18.0008 -20.0964 
53.2955 18.0008 -18.3524 61.7173 18.0008 -14.3956 -56.188 26.4226 -14.4165 
-47.7662 26.4226 -16.5876 -39.3443 26.4226 -18.0941 -30.9225 26.4226 -17.7841 
-22.5007 26.4226 -17.3609 -14.0789 26.4226 -17.0505 -5.65712 26.4226 -17.3138 
2.76469 26.4226 -16.5643 11.1865 26.4226 -14.7851 19.6083 26.4226 -15.3222 
28.0301 26.4226 -16.458 36.4519 26.4226 -17.0359 44.8737 26.4226 -16.3368 
53.2955 26.4226 -13.2934 -39.3443 34.8445 -13.4655 -30.9225 34.8445 -14.6546 
-22.5007 34.8445 -14.5515 -14.0789 34.8445 -14.6167 -5.65712 34.8445 -15.0846 
2.76469 34.8445 -13.3778 -30.9225 -33.1456 -12.8879 -30.9225 -40.9518 -7.09151 
-22.5007 -34.3725 -12.8879 -22.5007 -40.9518 -9.39197 -14.0789 -39.2069 -12.8879 
-14.0789 -40.9518 -12.0174 -5.65712 -39.736 -12.8879 -5.65712 -40.9518 -12.2489 
2.76469 -36.7962 -12.8879 2.76469 -40.9518 -10.6747 11.1865 -33.4939 -12.8879 
11.1865 -40.9518 -8.22931 19.6083 -40.9518 -4.88023 -47.7662 -27.2467 -12.8879 
-47.7662 -32.53 -9.57084 -31.8928 -32.53 -12.8879 -39.3443 -28.414 -12.8879 
-39.3443 -32.53 -10.4136 13.3989 -32.53 -12.8879 19.6083 -29.486 -12.8879 
19.6083 -32.53 -11.297 28.0301 -26.3931 -12.8879 28.0301 -32.53 -8.34701 
36.4519 -25.3911 -12.8879 36.4519 -32.53 -5.70982 44.8737 -24.3305 -12.8879 
-51.4545 -24.1082 -12.8879 -56.188 -21.0095 -12.8879 -56.188 -24.1082 -11.2298 
45.694 -24.1082 -12.8879 53.2955 -21.1322 -12.8879 53.2955 -24.1082 -9.83292 
-63.9124 -15.6864 -12.8879 -64.6098 -13.8483 -12.8879 -64.6098 -15.6864 -12.5382 
61.1479 -15.6864 -12.8879 61.7173 -15.2064 -12.8879 61.7173 -15.6864 -12.5864 
70.1391 -7.81861 -12.8879 -65.8644 -7.26458 -12.8879 70.4946 -7.26458 -12.8879 
-68.2435 1.15723 -12.8879 -73.0316 1.15723 -7.00867 70.7206 1.15723 -12.8879 
70.1391 4.39235 -12.8879 -66.9007 9.57903 -12.8879 68.6618 9.57903 -12.8879 
70.1391 9.57903 -10.5345 -64.9651 18.0008 -12.8879 -64.6098 18.6081 -12.8879 
63.5308 18.0008 -12.8879 61.7173 20.2312 -12.8879 -58.4803 26.4226 -12.8879 
-56.188 28.2825 -12.8879 -47.7662 32.899 -12.8879 11.1865 31.0877 -12.8879 
19.6083 31.1402 -12.8879 28.0301 32.7132 -12.8879 36.4519 31.9443 -12.8879 
44.8737 30.61 -12.8879 53.9678 26.4226 -12.8879 53.2955 26.8396 -12.8879 
-41.6551 34.8445 -12.8879 -47.7662 34.8445 -10.0902 -39.3443 35.4814 -12.8879 
-30.9225 37.4146 -12.8879 -22.5007 37.2643 -12.8879 -14.0789 38.054 -12.8879 
-5.65712 38.517 -12.8879 4.59318 34.8445 -12.8879 2.76469 35.6725 -12.8879 
11.1865 34.8445 -11.0329 19.6083 34.8445 -10.6074 28.0301 34.8445 -11.0243 
36.4519 34.8445 -9.77752 44.8737 34.8445 -7.61821 -30.9225 43.2663 -4.61216 
-22.5007 43.2663 -6.99288 -14.0789 43.2663 -8.22702 -5.65712 43.2663 -8.12446 
2.76469 43.2663 -5.49134 -30.9225 -42.5407 -4.46605 -22.5007 -45.0789 -4.46605 
-14.0789 -47.2802 -4.46605 -5.65712 -47.8904 -4.46605 2.76469 -47.0863 -4.46605 
2.76469 -49.3736 3.29139 11.1865 -44.9209 -4.46605 19.6083 -41.3257 -4.46605 
-47.7662 -35.3831 -4.46605 -35.1424 -40.9518 -4.46605 -39.3443 -38.9598 -4.46605 
20.3807 -40.9518 -4.46605 28.0301 -36.7214 -4.46605 36.4519 -33.4552 -4.46605 
-52.8137 -32.53 -4.46605 -56.188 -30.4365 -4.46605 39.2854 -32.53 -4.46605 
44.8737 -30.4551 -4.46605 44.8737 -32.53 2.64937 53.2955 -27.1508 -4.46605 
-63.7175 -24.1082 -4.46605 -64.6098 -23.1065 -4.46605 59.3426 -24.1082 -4.46605 
61.7173 -22.7456 -4.46605 -70.3484 -15.6864 -4.46605 69.3522 -15.6864 -4.46605 
70.1391 -14.4583 -4.46605 -72.8947 -7.26458 -4.46605 -73.0316 -6.48778 -4.46605 
73.8694 -7.26458 -4.46605 -74.2388 1.15723 -4.46605 -73.0316 7.60309 -4.46605 
-73.0316 1.15723 1.18355 74.2194 1.15723 -4.46605 -72.6615 9.57903 -4.46605 
72.5901 9.57903 -4.46605 70.1391 14.4834 -4.46605 -69.0465 18.0008 -4.46605 
-64.6098 24.4854 -4.46605 68.2764 18.0008 -4.46605 61.7173 25.6218 -4.46605 
-62.9278 26.4226 -4.46605 -56.188 31.9663 -4.46605 60.8737 26.4226 -4.46605 
53.2955 32.2826 -4.46605 -51.8341 34.8445 -4.46605 -47.7662 37.2084 -4.46605 
-39.3443 40.7859 -4.46605 11.1865 42.7159 -4.46605 19.6083 40.4012 -4.46605 
28.0301 39.334 -4.46605 36.4519 38.4892 -4.46605 48.5731 34.8445 -4.46605 
44.8737 36.6604 -4.46605 -31.1413 43.2663 -4.46605 -30.9225 43.3318 -4.46605 
-30.9225 43.2663 -3.68288 -22.5007 44.8184 -4.46605 -14.0789 45.5466 -4.46605 
-5.65712 45.5161 -4.46605 7.71247 43.2663 -4.46605 2.76469 43.893 -4.46605 
11.1865 43.2663 0.902909 2.76469 -49.5294 3.95576 -30.9225 -42.7053 3.95576 
-22.5007 -45.1033 3.95576 -14.0789 -47.613 3.95576 0.0806502 -49.3736 3.95576 
-5.65712 -49.0379 3.95576 3.79424 -49.3736 3.95576 2.76469 -49.3736 4.38757 
11.1865 -48.228 3.95576 19.6083 -45.2557 3.95576 -47.7662 -35.3042 3.95576 
-35.5263 -40.9518 3.95576 -39.3443 -39.1944 3.95576 -30.9225 -40.9518 6.92378 
-22.5007 -40.9518 9.28358 27.2851 -40.9518 3.95576 28.0301 -40.5012 3.95576 
36.4519 -36.1811 3.95576 44.8737 -32.848 3.95576 -52.1884 -32.53 3.95576 
-56.188 -29.7112 3.95576 -47.7662 -32.53 8.06248 -39.3443 -32.53 10.7238 
45.5598 -32.53 3.95576 44.8737 -32.53 4.90586 53.2955 -29.0776 3.95576 
-62.2774 -24.1082 3.95576 -64.6098 -21.2167 3.95576 -56.188 -24.1082 10.1802 
61.2165 -24.1082 3.95576 61.7173 -23.7078 3.95576 -68.8275 -15.6864 3.95576 
-64.6098 -15.6864 8.20924 -56.188 -15.6864 12.0672 68.9406 -15.6864 3.95576 
70.1391 -13.5533 3.95576 -70.5304 -7.26458 3.95576 -64.6098 -7.26458 10.54 
72.9435 -7.26458 3.95576 70.1391 -7.26458 8.63405 -72.1702 1.15723 3.95576 
-64.6098 1.15723 11.9068 72.6011 1.15723 3.95576 70.1391 1.15723 7.29735 
-69.7508 9.57903 3.95576 -64.6098 9.57903 9.83197 70.2413 9.57903 3.95576 
70.1391 9.74642 3.95576 70.1391 9.57903 4.06683 -66.3901 18.0008 3.95576 
-64.6098 20.7936 3.95576 -64.6098 18.0008 5.96459 -56.188 18.0008 11.6815 
66.0777 18.0008 3.95576 61.7173 23.3174 3.95576 61.7173 18.0008 8.79418 
-59.8664 26.4226 3.95576 -56.188 29.5429 3.95576 -56.188 26.4226 7.27637 
-47.7662 26.4226 11.5869 57.7223 26.4226 3.95576 53.2955 30.2334 3.95576 
53.2955 26.4226 8.58954 -48.9423 34.8445 3.95576 -47.7662 35.5643 3.95576 
-47.7662 34.8445 4.97545 -39.3443 39.3289 3.95576 -39.3443 34.8445 9.16961 
-30.9225 42.5109 3.95576 19.6083 41.9656 3.95576 28.0301 40.8405 3.95576 
36.4519 39.1839 3.95576 36.4519 34.8445 11.0168 47.3938 34.8445 3.95576 
44.8737 36.2238 3.95576 44.8737 34.8445 6.35493 -27.9543 43.2663 3.95576 
-22.5007 44.4287 3.95576 -22.5007 43.2663 6.09108 -14.0789 45.4923 3.95576 
-14.0789 43.2663 7.36191 -5.65712 45.7443 3.95576 -5.65712 43.2663 7.83402 
2.76469 45.1307 3.95576 2.76469 43.2663 7.00547 12.353 43.2663 3.95576 
11.1865 43.4783 3.95576 11.1865 43.2663 4.36887 -14.0789 -41.3442 12.3776 
-5.65712 -43.6401 12.3776 2.76469 -45.3677 12.3776 11.1865 -44.247 12.3776 
19.6083 -42.3148 12.3776 -30.9225 -35.1502 12.3776 -14.9932 -40.9518 12.3776 
-22.5007 -36.8948 12.3776 -14.0789 -40.9518 12.6627 -5.65712 -40.9518 14.6717 
2.76469 -40.9518 15.8187 11.1865 -40.9518 15.3932 21.9338 -40.9518 12.3776 
19.6083 -40.9518 13.6019 28.0301 -36.833 12.3776 36.4519 -33.3554 12.3776 
-47.7662 -24.7083 12.3776 -35.2953 -32.53 12.3776 -39.3443 -29.6017 12.3776 
-30.9225 -32.53 13.7737 -22.5007 -32.53 14.8399 -14.0789 -32.53 16.1965 
-5.65712 -32.53 17.8414 2.76469 -32.53 18.8818 11.1865 -32.53 18.9109 
19.6083 -32.53 17.4997 28.0301 -32.53 15.8927 38.2202 -32.53 12.3776 
36.4519 -32.53 13.2113 44.8737 -29.5956 12.3776 53.2955 -24.7685 12.3776 
-48.7153 -24.1082 12.3776 -47.7662 -24.1082 12.6332 -39.3443 -24.1082 14.8609 
[...]
POINT_DATA 536
SCALARS ImageScalars float
LOOKUP_TABLE default
0 0 0 0 0 0 0 0 0 
0 0 0 0 0 0 0 0 0 
0 0 0 0 0 0 0 0 0 
0 0 0 0 0 0 0 0 0 
0 0 0 0 0 0 0 0 0 
0 0 0 0 0 0 0 0 0 
0 0 0 0 0 0 0 0 0 
0 0 0 0 0 0 0 0 0 
0 0 0 0 0 0 0 0 0 
0 0 0 0 0 0 0 0 0 
0 0 0 0 0 0 0 0 0 
0 0 0 0 0 0 0 0 0 
0 0 0 0 0 0 0 0 0 
0 0 0 0 0 0 0 0 0 
0 0 0 0 0 0 0 0 0 
0 0 0 0 0 0 0 0 0 
0 0 0 0 0 0 0 0 0 
0 0 0 0 0 0 0 0 0 
0 0 0 0 0 0 0 0 0 
0 0 0 0 0 0 0 0 0 
0 0 0 0 0 0 0 0 0 
0 0 0 0 0 0 0 0 0 
0 0 0 0 0 0 0 0 0 
0 0 0 0 0 0 0 0 0 
0 0 0 0 0 0 0 0 0 
0 0 0 0 0 0 0 0 0 
0 0 0 0 0 0 0 0 0 
0 0 0 0 0 0 0 0 0 
0 0 0 0 0 0 0 0 0 
0 0 0 0 0 0 0 0 0 
0 0 0 0 0 0 0 0 0 
0 0 0 0 0 0 0 0 0 
0 0 0 0 0 0 0 0 0 
0 0 0 0 0 0 0 0 0 
0 0 0 0 0 0 0 0 0 
0 0 0 0 0 0 0 0 0 
0 0 0 0 0 0 0 0 0 
0 0 0 0 0 0 0 0 0 
0 0 0 0 0 0 0 0 0 
0 0 0 0 0 0 0 0 0 
0 0 0 0 0 0 0 0 0 
0 0 0 0 0 0 0 0 0 
0 0 0 0 0 0 0 0 0 
0 0 0 0 0 0 0 0 0 
0 0 0 0 0 0 0 0 0 
0 0 0 0 0 0 0 0 0 
0 0 0 0 0 0 0 0 0 
0 0 0 0 0 0 0 0 0 
0 0 0 0 0 0 0 0 0 
0 0 0 0 0 0 0 0 0 
0 0 0 0 0 0 0 0 0 
0 0 0 0 0 0 0 0 0 
0 0 0 0 0 0 0 0 0 
0 0 0 0 0 0 0 0 0 
0 0 0 0 0 0 0 0 0 
0 0 0 0 0 0 0 0 0 
0 0 0 0 0 0 0 0 0 
0 0 0 0 0 0 0 0 0 
0 0 0 0 0 0 0 0 0 
0 0 0 0 0 
NORMALS Normals float
-0.152204 -0.333424 -0.93041 -0.13151 -0.293906 -0.946744 -0.124115 -0.244695 -0.961624 
0.027838 -0.292552 -0.955844 0.139957 -0.331157 -0.933138 0.177574 -0.397911 -0.900074 
-0.200448 -0.365152 -0.909112 -0.0676591 -0.369061 -0.926939 -0.026923 -0.237342 -0.971053 
-0.0640684 -0.139076 -0.988207 -0.124455 -0.10607 -0.98654 -0.0224285 -0.170273 -0.985142 
0.0754191 -0.178329 -0.981076 0.0957563 -0.283473 -0.954187 0.109146 -0.343417 -0.932819 
0.0843329 -0.472125 -0.877488 0.0620814 -0.550454 -0.832554 0.149288 -0.652158 -0.743238 
-0.26705 -0.374463 -0.887954 -0.0994322 -0.255638 -0.961646 -0.00109695 -0.219265 -0.975665 
0.0883728 -0.129245 -0.987667 -0.00113583 -0.0535414 -0.998565 -0.168454 -0.110535 -0.979492 
-0.0458341 -0.12663 -0.990891 0.0294449 -0.0256814 -0.999236 0.0149532 -0.208411 -0.977927 
0.0360945 -0.159035 -0.986613 -0.0140483 -0.274718 -0.961422 0.00875103 -0.368632 -0.929534 
0.0863263 -0.391016 -0.916327 0.240937 -0.452555 -0.858571 -0.549586 -0.148783 -0.822082 
-0.263739 -0.119603 -0.95715 -0.0778175 -0.223785 -0.971527 0.0828412 -0.134695 -0.987418 
0.1492 -0.102109 -0.983521 -0.0261259 -0.0672012 -0.997397 -0.229338 -0.0793935 -0.970104 
0.10646 -0.00529153 -0.994303 -0.0307286 0.0398229 -0.998734 -0.0318558 -0.1097 -0.993454 
0.0302507 -0.00726763 -0.999516 -0.139825 -0.0875111 -0.986301 -0.0536139 -0.158316 -0.985932 
0.0572392 -0.197703 -0.978589 0.138788 -0.234281 -0.962211 0.366486 -0.318864 -0.874079 
0.664618 -0.310657 -0.67954 -0.442509 -0.0479712 -0.89548 -0.280099 -0.0482901 -0.958756 
-0.0954653 -0.0853055 -0.991771 0.123028 -0.0799355 -0.989179 0.156344 -0.0909566 -0.983506 
0.0428008 -0.10199 -0.993864 -0.100759 0.0810152 -0.991607 0.0406008 0.0617964 -0.997263 
-0.0766847 -0.130755 -0.988444 0.0253735 0.103825 -0.994272 0.0219788 0.0109033 -0.999699 
-0.175371 -0.0326623 -0.983961 -0.11263 -0.00343554 -0.993631 0.00148423 -0.042552 -0.999093 
0.0975467 -0.0365768 -0.994559 0.391705 -0.0324018 -0.91952 0.722702 0.0655378 -0.688046 
-0.555748 0.119485 -0.822719 -0.294328 0.00690788 -0.955679 -0.123479 0.10128 -0.987165 
0.0775168 0.0154594 -0.996871 0.123838 -0.0740906 -0.989533 0.111345 -0.0748515 -0.990959 
-0.041529 0.0398163 -0.998344 -0.0956774 0.0331548 -0.99486 0.0286506 -0.0263047 -0.999243 
0.0691619 0.202726 -0.97679 -0.101116 0.014348 -0.994771 -0.148764 0.0307893 -0.988393 
-0.0652409 0.0554318 -0.996329 0.0234379 0.062533 -0.997768 0.141907 0.134171 -0.980745 
0.423407 0.234459 -0.875075 -0.643439 0.320048 -0.695382 -0.328256 0.234434 -0.915035 
-0.0811031 0.241092 -0.967108 -0.0520341 0.119004 -0.991529 0.0684603 0.0932744 -0.993284 
0.152054 0.0446263 -0.987364 0.0132593 0.0284569 -0.999507 -0.0489637 0.0885206 -0.99487 
0.104164 0.1498 -0.983214 0.0401103 0.196327 -0.979718 -0.133225 0.147388 -0.980065 
-0.127777 0.193187 -0.972806 -0.0752776 0.19337 -0.978234 0.0849763 0.260874 -0.961626 
0.273142 0.311168 -0.910257 0.561571 0.445822 -0.697051 -0.442473 0.547149 -0.710525 
-0.198523 0.380832 -0.903081 -0.0726091 0.302072 -0.950516 0.0395596 0.291752 -0.955676 
0.044475 0.21475 -0.975656 0.00242806 0.158306 -0.987387 0.0258926 0.187012 -0.982016 
0.146557 0.25825 -0.954897 0.0709723 0.286871 -0.955337 -0.0942965 0.37027 -0.924126 
-0.0926378 0.391471 -0.915515 0.00474461 0.461048 -0.887362 0.162744 0.528129 -0.833423 
0.376133 0.639809 -0.670201 -0.170229 0.627885 -0.759462 -0.0466 0.505027 -0.861845 
0.0017499 0.450277 -0.892887 -0.0300542 0.388784 -0.920838 0.0582433 0.40077 -0.914326 
0.222242 0.445323 -0.86735 -0.158912 -0.35583 -0.920941 -0.290056 -0.831896 -0.473093 
-0.139905 -0.357905 -0.923218 -0.224184 -0.702602 -0.675346 -0.125231 -0.460406 -0.878831 
-0.129067 -0.548954 -0.825827 0.0621723 -0.501187 -0.863103 0.0648665 -0.553797 -0.830121 
0.167482 -0.420894 -0.891514 0.193789 -0.557241 -0.807421 0.185486 -0.416832 -0.889857 
0.261274 -0.627422 -0.733538 0.349714 -0.718293 -0.601461 -0.229086 -0.465098 -0.855104 
-0.320936 -0.73354 -0.599098 -0.152005 -0.353331 -0.923066 -0.106338 -0.457834 -0.882655 
-0.194851 -0.606091 -0.771159 0.191557 -0.419868 -0.88714 0.188709 -0.432665 -0.881584 
0.242261 -0.49395 -0.835059 0.1184 -0.509956 -0.852013 0.25536 -0.646896 -0.718552 
0.0807731 -0.584395 -0.807439 0.256476 -0.815569 -0.518718 0.151899 -0.65828 -0.737289 
-0.276473 -0.428853 -0.860028 -0.312796 -0.469965 -0.825404 -0.397181 -0.555467 -0.73055 
0.166579 -0.656739 -0.73549 0.29767 -0.603833 -0.739445 0.33144 -0.743216 -0.581186 
-0.47298 -0.34314 -0.811508 -0.511867 -0.292402 -0.80777 -0.507891 -0.346243 -0.788773 
0.440348 -0.503508 -0.743352 0.44928 -0.496309 -0.742849 0.458654 -0.512008 -0.726281 
0.671025 -0.335793 -0.661036 -0.609013 -0.147437 -0.779337 0.683622 -0.314281 -0.658702 
-0.665601 -0.0345927 -0.745506 -0.966587 0.00640563 -0.256257 0.750795 0.0674771 -0.65708 
0.741753 0.158243 -0.651738 -0.673833 0.142926 -0.724929 0.708887 0.29536 -0.640501 
0.825285 0.327111 -0.460329 -0.658429 0.325196 -0.678763 -0.65282 0.340515 -0.676665 
0.619986 0.450907 -0.642107 0.574675 0.505671 -0.643463 -0.526132 0.562922 -0.63742 
-0.476614 0.601445 -0.641173 -0.302793 0.675604 -0.672217 0.106362 0.400007 -0.91032 
-0.0504462 0.477955 -0.876935 -0.0144257 0.608657 -0.793302 0.0827531 0.651297 -0.754297 
0.208502 0.662259 -0.719681 0.391902 0.649436 -0.651648 0.380342 0.655001 -0.652927 
-0.221657 0.669291 -0.709166 -0.38887 0.810671 -0.437713 -0.185778 0.654187 -0.733162 
-0.0718528 0.609943 -0.789181 -0.0195602 0.545722 -0.837738 -0.0446723 0.511839 -0.857919 
0.0714827 0.541669 -0.837547 0.204522 0.457324 -0.865463 0.224449 0.472156 -0.852462 
0.142663 0.532681 -0.834206 0.00591526 0.619679 -0.784833 0.027473 0.721744 -0.691614 
0.123549 0.8048 -0.580545 0.294596 0.864958 -0.406276 -0.236852 0.952793 -0.189967 
-0.109786 0.90456 -0.411968 -0.0443915 0.855156 -0.516467 0.0894196 0.85052 -0.518286 
0.173175 0.892174 -0.417176 -0.322748 -0.898647 -0.297098 -0.280345 -0.899702 -0.334578 
-0.152694 -0.937736 -0.311986 0.00597181 -0.926202 -0.376981 0.14575 -0.866495 -0.477434 
0.0525958 -0.998216 0.0282557 0.278007 -0.779144 -0.561825 0.356131 -0.727551 -0.586379 
-0.415787 -0.871754 -0.259165 -0.360693 -0.884116 -0.297051 -0.39321 -0.857846 -0.330886 
0.359099 -0.729751 -0.581818 0.358551 -0.74666 -0.560304 0.27957 -0.834496 -0.474823 
-0.49285 -0.83582 -0.241876 -0.547136 -0.796278 -0.258038 0.297109 -0.837561 -0.458495 
0.332024 -0.841838 -0.425521 0.391947 -0.919618 -0.0260781 0.363688 -0.86595 -0.343309 
-0.720645 -0.66493 -0.196312 -0.742737 -0.643979 -0.183395 0.428674 -0.847155 -0.313954 
0.483722 -0.820733 -0.303991 -0.869264 -0.462267 -0.175184 0.824595 -0.51235 -0.239877 
0.856605 -0.468071 -0.21711 -0.968288 -0.206951 -0.139964 -0.972767 -0.185941 -0.138388 
0.951987 -0.273413 -0.137718 -0.990849 0.0163782 -0.133979 -0.973833 0.207635 -0.0923974 
-0.951318 0.0334087 0.306394 0.992715 0.0690036 -0.0987652 -0.961216 0.263203 -0.0823856 
0.939101 0.335731 -0.0733093 0.894807 0.443841 -0.0482256 -0.853966 0.515933 -0.0674899 
-0.767307 0.639349 -0.0497259 0.843122 0.533581 -0.0666085 0.694834 0.715904 -0.0684671 
-0.72622 0.685941 -0.0457124 -0.600813 0.797348 -0.0570925 0.676234 0.733685 -0.0664362 
0.513151 0.847505 -0.135686 -0.522378 0.848947 -0.0800643 -0.448043 0.888873 -0.0957181 
-0.329386 0.935205 -0.129988 0.189635 0.886459 -0.422172 0.155425 0.892392 -0.423651 
0.10332 0.918251 -0.382283 0.156544 0.934307 -0.320255 0.405874 0.891035 -0.203278 
0.32769 0.916212 -0.230596 -0.24139 0.953687 -0.179477 -0.238875 0.953952 -0.181423 
-0.244372 0.960046 -0.136363 -0.128538 0.956147 -0.263174 -0.0427812 0.961111 -0.272828 
0.086423 0.952219 -0.292935 0.179811 0.902604 -0.391119 0.167323 0.917284 -0.361376 
0.195822 0.980628 0.00468674 0.0461412 -0.997023 0.0617806 -0.316671 -0.910327 0.266504 
-0.283689 -0.908969 0.305445 -0.221499 -0.946909 0.233026 -0.00108886 -0.99558 0.0939111 
-0.103707 -0.981119 0.163248 0.0700324 -0.995866 0.0578529 0.0433025 -0.99522 0.0875374 
0.243482 -0.969583 0.0249895 0.41356 -0.908912 -0.0533569 -0.461921 -0.835388 0.29792 
-0.364302 -0.891119 0.270538 -0.402534 -0.868298 0.289872 -0.286924 -0.84428 0.452621 
-0.24099 -0.740833 0.626969 0.489769 -0.871659 -0.0183657 0.493158 -0.869813 -0.0148712 
0.397711 -0.91736 -0.0166593 0.392948 -0.918683 0.0401529 -0.518249 -0.792879 0.320564 
-0.575083 -0.73787 0.35331 -0.422148 -0.701284 0.574449 -0.285185 -0.586384 0.758171 
0.395856 -0.917493 0.0387845 0.391921 -0.915964 0.0860744 0.454324 -0.888845 0.0595421 
-0.697854 -0.602828 0.38678 -0.732031 -0.537524 0.418568 -0.472826 -0.458289 0.7526 
0.584445 -0.802652 0.119053 0.599204 -0.790589 0.126192 -0.795519 -0.393777 0.460531 
-0.648372 -0.395985 0.650238 -0.4243 -0.214888 0.879655 0.8315 -0.480188 0.279333 
0.864744 -0.404363 0.297841 -0.851294 -0.157297 0.500556 -0.605088 -0.164566 0.778965 
0.934599 -0.182878 0.305092 0.819839 -0.159317 0.549984 -0.853345 0.0394907 0.519849 
-0.564313 0.0273886 0.825107 0.906756 0.121943 0.403638 0.786992 0.185705 0.588351 
-0.815888 0.266167 0.513305 -0.636356 0.244795 0.731524 0.773921 0.39235 0.497099 
0.773078 0.393583 0.497436 0.770255 0.391836 0.503162 -0.762424 0.434861 0.479172 
-0.722055 0.490991 0.487406 -0.687429 0.433147 0.582945 -0.472788 0.329349 0.817313 
0.759682 0.469135 0.450329 0.649187 0.627325 0.43014 0.597348 0.447037 0.665833 
-0.627294 0.626858 0.462117 -0.57707 0.677398 0.456204 -0.532389 0.584821 0.612002 
-0.372651 0.480446 0.793916 0.607332 0.680502 0.409957 0.587309 0.719254 0.371136 
0.558946 0.565203 0.606733 -0.480354 0.777062 0.406737 -0.457904 0.792807 0.40222 
-0.455928 0.766597 0.45217 -0.356168 0.848571 0.391244 -0.30553 0.686181 0.660157 
-0.271581 0.900862 0.338661 0.150535 0.977262 0.149327 0.164565 0.978986 0.120434 
0.263835 0.942838 0.203588 0.280743 0.725667 0.628164 0.472447 0.830711 0.294471 
0.421474 0.862774 0.279251 0.41843 0.80854 0.413738 -0.235026 0.919536 0.314985 
-0.168604 0.942605 0.288215 -0.162676 0.899932 0.404549 -0.0793114 0.948321 0.307241 
-0.0623728 0.863306 0.500812 0.0218749 0.959827 0.279739 0.0122924 0.846141 0.532818 
0.139775 0.963872 0.226744 0.120362 0.894041 0.431513 0.18086 0.961513 0.20684 
0.185706 0.958527 0.216192 0.182235 0.953376 0.240551 -0.24022 -0.557299 0.794803 
-0.172083 -0.652196 0.73826 -0.0252144 -0.719754 0.693771 0.147506 -0.748771 0.646207 
0.329627 -0.715053 0.616477 -0.213223 -0.502951 0.837601 -0.237501 -0.554369 0.797664 
-0.177117 -0.524582 0.832732 -0.239167 -0.541311 0.80609 -0.175142 -0.517521 0.837554 
-0.0364715 -0.515755 0.855959 0.11939 -0.55863 0.820779 0.356265 -0.69781 0.621399 
0.32293 -0.646988 0.69074 0.368417 -0.6865 0.626886 0.334496 -0.75648 0.562006 
-0.254356 -0.415134 0.87348 -0.231349 -0.470951 0.851283 -0.243257 -0.45742 0.855332 
-0.194137 -0.405108 0.893419 -0.141077 -0.368788 0.918745 -0.163277 -0.287495 0.943762 
-0.162072 -0.223793 0.961067 -0.0576269 -0.21609 0.974671 0.0804674 -0.201299 0.976219 
0.154815 -0.30066 0.941082 0.230007 -0.535056 0.812903 0.33339 -0.764134 0.552224 
0.315534 -0.72795 0.608709 0.352807 -0.76113 0.54425 0.464927 -0.630839 0.621197 
-0.267831 -0.402636 0.8753 -0.248006 -0.402274 0.881288 -0.189641 -0.321056 0.927879 
-0.132532 -0.222072 0.965981 -0.0975235 -0.181564 0.978531 -0.100228 -0.144528 0.984411 
-0.109227 -0.0684815 0.991655 -0.0350166 -0.040415 0.998569 0.0278715 -0.0601438 0.997801 
0.0187742 -0.183288 0.98288 0.0499023 -0.263847 0.963273 0.109766 -0.382367 0.917468 
0.252479 -0.485967 0.836714 0.473194 -0.618491 0.62734 0.459646 -0.599932 0.654834 
0.577286 -0.394158 0.715108 -0.410599 -0.212052 0.886816 -0.410137 -0.206686 0.888296 
-0.260218 -0.195269 0.945598 -0.116266 -0.175076 0.977666 -0.0473876 -0.108472 0.992969 
-0.0587531 -0.0617613 0.99636 -0.0547252 -0.103837 0.993088 -0.0494542 -0.0245175 0.998475 
-0.0531202 0.0218286 0.998349 -0.0652393 -0.129683 0.989407 -0.0679724 -0.108324 0.991789 
0.214284 -0.154259 0.964514 0.37143 -0.234223 0.898431 0.603921 -0.32149 0.729331 
0.562843 -0.309559 0.766408 -0.480494 -0.175941 0.859168 -0.343439 -0.175002 0.922726 
-0.188061 -0.102918 0.97675 -0.0748685 -0.0746451 0.994396 -0.0215431 -0.077334 0.996772 
-0.0957627 -0.0589672 0.993656 -0.0660706 -0.110696 0.991656 0.0180354 -0.0966975 0.99515 
-0.146628 -0.0283661 0.988785 0.139314 0.0527139 0.988844 0.279018 -0.0229493 0.960012 
0.611354 -0.0648649 0.788694 0.463082 -0.0308362 0.885779 -0.533791 0.0249185 0.845249 
-0.344474 0.0038889 0.938788 -0.180615 -0.0156941 0.983429 -0.0853389 -0.0301146 0.995897 
-0.0298888 -0.056835 0.997936 -0.0878359 -0.0483733 0.99496 -0.0973564 0.0473841 0.994121 
0.0294993 -0.0672869 0.997297 -0.0796702 -0.132618 0.98796 0.0894663 0.0472141 0.99487 
0.0249989 0.0322324 0.999168 0.0555573 0.0740009 0.995709 0.149876 0.0984963 0.983786 
0.300826 0.105024 0.947879 0.558836 0.124564 0.819869 0.505695 0.114736 0.855048 
-0.476669 0.221566 0.850703 -0.441362 0.285527 0.85069 -0.36255 0.186103 0.913194 
-0.217174 0.112087 0.969676 -0.115758 0.0575363 0.99161 -0.039809 0.0330684 0.99866 
0.00691163 0.0360518 0.999326 -0.0763837 0.127763 0.988859 -0.157882 0.0924353 0.983122 
0.0695201 0.182558 0.980734 0.0138955 0.0710222 0.997378 0.0389555 0.042111 0.998353 
0.112363 0.100344 0.988588 0.178685 0.159454 0.9709 0.321326 0.210743 0.923221 
0.537546 0.256705 0.80321 0.531126 0.278088 0.800358 0.522774 0.247618 0.815716 
-0.442597 0.312774 0.840405 -0.354619 0.438796 0.825653 -0.296982 0.266003 0.917084 
-0.167214 0.202975 0.964801 -0.0526388 0.146912 0.987748 0.00456503 0.12394 0.992279 
-0.0375578 0.0996179 0.994317 -0.0725296 0.173131 0.982225 0.0202396 0.25175 0.967581 
0.00426715 0.212126 0.977233 -0.0496873 0.158861 0.98605 0.0533127 0.159353 0.985781 
0.166722 0.174161 0.970501 0.254613 0.21624 0.942556 0.451846 0.362033 0.815333 
0.454404 0.386068 0.802788 0.414585 0.339431 0.844337 -0.339202 0.45456 0.8236 
-0.263203 0.51263 0.817273 -0.232552 0.384623 0.8933 -0.1139 0.323562 0.939327 
-0.0462786 0.26562 0.962966 -0.026937 0.223619 0.974304 -0.00127716 0.259639 0.965705 
0.0276758 0.291182 0.956267 -0.0195054 0.28006 0.959784 -0.0470718 0.293602 0.954768 
0.0567077 0.324144 0.944307 0.269375 0.627907 0.730185 0.178607 0.344023 0.921818 
0.430751 0.468487 0.771346 0.366471 0.530248 0.76455 0.354746 0.434489 0.827873 
-0.209784 0.536828 0.817194 -0.208818 0.537128 0.817244 -0.208043 0.534886 0.818911 
-0.109883 0.539505 0.834781 -0.100811 0.453742 0.885412 -0.0424384 0.567357 0.822378 
-0.044595 0.452586 0.890605 -0.000684027 0.554691 0.832056 0.000255637 0.443323 0.896362 
0.0513148 0.556296 0.829398 0.0375814 0.453545 0.890441 0.0538091 0.571907 0.818552 
0.0292752 0.488701 0.87196 0.0242796 0.651093 0.75861 0.011465 0.574556 0.818385 
0.208812 0.665094 0.716971 0.121147 0.691179 0.712457 0.108935 0.625806 0.772334 
-0.0133143 -0.127128 0.991797 0.047022 -0.169083 0.98448 -0.0816504 -0.125572 0.988719 
-0.055354 -0.105941 0.992831 -0.037909 -0.079845 0.996086 -0.0271152 -0.100725 0.994545 
0.124218 -0.147409 0.981244 0.0409878 -0.142815 0.9889 -0.12039 -0.0827779 0.989269 
-0.0941834 -0.116738 0.988687 0.0801412 0.0368472 0.996102 0.0450602 -0.00223705 0.998982 
0.0175849 0.037191 0.999153 0.0123735 0.0408721 0.999088 0.0701317 0.0511095 0.996228 
0.0504373 0.0552234 0.997199 0.0481948 0.0494405 0.997614 -0.0603247 -0.0538208 0.996727 
-0.0442547 -0.0521993 0.997656 0.0792306 0.0485063 0.995675 0.0656488 0.178165 0.981808 
-0.0303296 0.062738 0.997569 -0.123063 0.0778813 0.989338 0.0651936 0.174278 0.982536 
0.00185317 0.115009 0.993363 -0.0101488 0.0287574 0.999535 
