# vtk DataFile Version 4.2
vtk output
ASCII
DATASET POLYDATA
POINTS 536 float
-1.71813 -34.7318 -14.8825 6.89435 -34.7318 -15.6717 15.5068 -34.7318 -15.7879 
24.1193 -34.7318 -15.7379 32.7318 -34.7318 -15.4547 41.3443 -34.7318 -15.3608 
-44.7805 -26.1194 -16.2632 -36.1681 -26.1194 -17.9458 -27.5556 -26.1194 -18.0324 
-18.9431 -26.1194 -18.0427 -10.3306 -26.1194 -17.1726 -1.71813 -26.1194 -17.3827 
6.89435 -26.1194 -18.0852 15.5068 -26.1194 -17.7621 24.1193 -26.1194 -18.5816 
32.7318 -26.1194 -18.5195 41.3443 -26.1194 -18.3113 49.9568 -26.1194 -16.2003 
-53.393 -17.5069 -17.279 -44.7805 -17.5069 -19.6253 -36.1681 -17.5069 -19.6817 
-27.5556 -17.5069 -19.3865 -18.9431 -17.5069 -18.8432 -10.3306 -17.5069 -18.1758 
-1.71813 -17.5069 -18.0809 6.89435 -17.5069 -18.1868 15.5068 -17.5069 -17.6802 
24.1193 -17.5069 -18.7636 32.7318 -17.5069 -19.6492 41.3443 -17.5069 -19.4579 
49.9568 -17.5069 -17.7219 -62.0055 -8.89439 -15.5053 -53.393 -8.89439 -19.4417 
-44.7805 -8.89439 -20.8452 -36.1681 -8.89439 -21.4139 -27.5556 -8.89439 -19.856 
-18.9431 -8.89439 -18.6142 -10.3306 -8.89439 -20.1541 -1.71813 -8.89439 -18.4699 
6.89435 -8.89439 -17.6456 15.5068 -8.89439 -17.0736 24.1193 -8.89439 -18.3117 
32.7318 -8.89439 -19.2503 41.3443 -8.89439 -19.2571 49.9568 -8.89439 -18.0208 
58.5693 -8.89439 -14.9843 -62.0055 -0.28191 -16.4153 -53.393 -0.28191 -20.539 
-44.7805 -0.28191 -21.7377 -36.1681 -0.28191 -21.6647 -27.5556 -0.28191 -20.3413 
-18.9431 -0.28191 -19.0665 -10.3306 -0.28191 -23.1883 -1.71813 -0.28191 -16.8221 
6.89435 -0.28191 -19.5656 15.5068 -0.28191 -20.2365 24.1193 -0.28191 -19.1328 
32.7318 -0.28191 -19.6093 41.3443 -0.28191 -19.4903 49.9568 -0.28191 -18.1283 
58.5693 -0.28191 -14.9958 -53.393 8.33057 -20.0702 -44.7805 8.33057 -21.8579 
-36.1681 8.33057 -22.1781 -27.5556 8.33057 -21.3932 -18.9431 8.33057 -20.7012 
-10.3306 8.33057 -21.6422 -1.71813 8.33057 -19.2484 6.89435 8.33057 -20.8072 
15.5068 8.33057 -20.809 24.1193 8.33057 -20.1202 32.7318 8.33057 -20.2754 
41.3443 8.33057 -19.9526 49.9568 8.33057 -18.584 58.5693 8.33057 -15.4837 
-53.393 16.9431 -17.8149 -44.7805 16.9431 -20.9648 -36.1681 16.9431 -22.0743 
-27.5556 16.9431 -22.5686 -18.9431 16.9431 -21.6583 -10.3306 16.9431 -20.351 
-1.71813 16.9431 -20.0898 6.89435 16.9431 -20.9394 15.5068 16.9431 -20.3102 
24.1193 16.9431 -20.5291 32.7318 16.9431 -20.5051 41.3443 16.9431 -19.7018 
49.9568 16.9431 -18.1024 -44.7805 25.5555 -18.305 -36.1681 25.5555 -21.2735 
-27.5556 25.5555 -21.6565 -18.9431 25.5555 -22.0972 -10.3306 25.5555 -21.0094 
-1.71813 25.5555 -21.5308 6.89435 25.5555 -21.8321 15.5068 25.5555 -20.893 
24.1193 25.5555 -19.847 32.7318 25.5555 -19.5233 41.3443 25.5555 -18.7311 
49.9568 25.5555 -15.9843 -36.1681 34.168 -16.7902 -27.5556 34.168 -19.0459 
-18.9431 34.168 -20.1145 -10.3306 34.168 -20.1136 -1.71813 34.168 -20.8037 
6.89435 34.168 -21.0832 15.5068 34.168 -19.9594 24.1193 34.168 -18.1424 
32.7318 34.168 -16.0022 -10.3306 42.7805 -14.876 -1.71813 42.7805 -16.5899 
6.89435 42.7805 -16.889 -1.71813 -34.8177 -14.8239 6.89435 -35.9102 -14.8239 
15.5068 -36.0766 -14.8239 24.1193 -35.9104 -14.8239 32.7318 -35.6617 -14.8239 
41.3443 -35.5172 -14.8239 -44.7805 -28.5078 -14.8239 -44.7805 -34.7318 -8.85645 
-36.1681 -31.4386 -14.8239 -36.1681 -34.7318 -12.4568 -27.5556 -33.1614 -14.8239 
-27.5556 -34.7318 -13.9113 -18.9431 -33.8596 -14.8239 -18.9431 -34.7318 -14.3331 
-2.81197 -34.7318 -14.8239 -10.3306 -33.4968 -14.8239 -10.3306 -34.7318 -14.3221 
42.7394 -34.7318 -14.8239 49.9568 -28.9972 -14.8239 49.9568 -34.7318 -10.7143 
-62.0055 -26.1194 -7.6467 -48.5001 -26.1194 -14.8239 -53.393 -22.4182 -14.8239 
-53.393 -26.1194 -12.2607 54.9832 -26.1194 -14.8239 58.5693 -26.1194 -12.637 
-57.89 -17.5069 -14.8239 -62.0055 -10.488 -14.8239 -62.0055 -17.5069 -11.5923 
56.044 -17.5069 -14.8239 58.5693 -9.81853 -14.8239 58.5693 -17.5069 -13.4464 
67.1817 -17.5069 -6.24191 -62.7929 -8.89439 -14.8239 58.8675 -8.89439 -14.8239 
67.1817 -8.89439 -9.1238 -63.7886 -0.28191 -14.8239 -62.0055 8.19735 -14.8239 
58.8787 -0.28191 -14.8239 67.1817 -0.28191 -9.19236 -61.9716 8.33057 -14.8239 
-62.0055 8.33057 -14.7896 59.7232 8.33057 -14.8239 58.5693 10.8978 -14.8239 
67.1817 8.33057 -9.19961 -57.3752 16.9431 -14.8239 -62.0055 16.9431 -7.50982 
-53.393 22.2594 -14.8239 56.0804 16.9431 -14.8239 58.5693 16.9431 -13.2015 
-50.2419 25.5555 -14.8239 -53.393 25.5555 -10.8454 -44.7805 30.4751 -14.8239 
41.3443 33.3175 -14.8239 52.7984 25.5555 -14.8239 49.9568 27.356 -14.8239 
58.5693 25.5555 -9.54939 -39.6727 34.168 -14.8239 -44.7805 34.168 -9.13153 
-36.1681 36.0326 -14.8239 -27.5556 39.1357 -14.8239 -18.9431 40.7519 -14.8239 
15.5068 42.7011 -14.8239 24.1193 38.8149 -14.8239 38.9253 34.168 -14.8239 
32.7318 35.5447 -14.8239 41.3443 34.168 -13.9799 49.9568 34.168 -6.70388 
-10.5719 42.7805 -14.8239 -18.9431 42.7805 -10.1537 -10.3306 42.8261 -14.8239 
-1.71813 44.4442 -14.8239 15.2706 42.7805 -14.8239 6.89435 44.7503 -14.8239 
15.5068 42.7805 -14.6775 -44.7805 -36.6749 -6.21139 -36.1681 -39.6718 -6.21139 
-27.5556 -41.3118 -6.21139 -18.9431 -41.5429 -6.21139 -10.3306 -41.4804 -6.21139 
-1.71813 -41.5457 -6.21139 6.89435 -41.8675 -6.21139 15.5068 -42.3163 -6.21139 
24.1193 -42.8227 -6.21139 32.7318 -42.6206 -6.21139 41.3443 -41.6807 -6.21139 
49.9568 -38.7956 -6.21139 -62.0055 -27.2576 -6.21139 -50.2042 -34.7318 -6.21139 
-53.393 -33.1861 -6.21139 -53.393 -34.7318 -2.32547 57.0502 -34.7318 -6.21139 
58.5693 -33.1612 -6.21139 -63.0994 -26.1194 -6.21139 62.9785 -26.1194 -6.21139 
67.1817 -17.5717 -6.21139 -67.0819 -17.5069 -6.21139 67.204 -17.5069 -6.21139 
-69.9248 -8.89439 -6.21139 -70.618 -8.89439 0.977579 69.2899 -8.89439 -6.21139 
-70.2724 -0.28191 -6.21139 -70.618 -0.28191 -2.48935 69.3846 -0.28191 -6.21139 
-67.1158 8.33057 -6.21139 69.1477 8.33057 -6.21139 67.1817 13.7358 -6.21139 
-62.6469 16.9431 -6.21139 -62.0055 17.9505 -6.21139 65.7413 16.9431 -6.21139 
-56.1204 25.5555 -6.21139 -53.393 28.2342 -6.21139 60.5478 25.5555 -6.21139 
58.5693 27.7585 -6.21139 -46.5505 34.168 -6.21139 -44.7805 35.3847 -6.21139 
-36.1681 39.691 -6.21139 -27.5556 42.4261 -6.21139 24.1193 42.7589 -6.21139 
32.7318 40.6166 -6.21139 41.3443 37.7255 -6.21139 50.4547 34.168 -6.21139 
49.9568 34.4424 -6.21139 49.9568 34.168 -4.54451 -25.655 42.7805 -6.21139 
-18.9431 44.002 -6.21139 -10.3306 45.7933 -6.21139 -1.71813 47.5034 -6.21139 
6.89435 47.6534 -6.21139 24.055 42.7805 -6.21139 15.5068 45.6415 -6.21139 
-53.393 -35.9399 2.40109 -44.7805 -39.1836 2.40109 -36.1681 -41.0923 2.40109 
-27.5556 -42.3829 2.40109 -18.9431 -41.9966 2.40109 -10.3306 -41.3279 2.40109 
-1.71813 -40.8961 2.40109 6.89435 -41.1213 2.40109 15.5068 -41.9043 2.40109 
24.1193 -42.89 2.40109 32.7318 -42.6804 2.40109 41.3443 -41.738 2.40109 
49.9568 -39.4257 2.40109 -55.2184 -34.7318 2.40109 -62.0055 -29.2834 2.40109 
-53.393 -34.7318 8.89878 57.3281 -34.7318 2.40109 49.9568 -34.7318 10.589 
58.5693 -33.7648 2.40109 -64.9647 -26.1194 2.40109 65.0607 -26.1194 2.40109 
67.1817 -22.1336 2.40109 -69.5397 -17.5069 2.40109 -70.618 -9.82653 2.40109 
69.2483 -17.5069 2.40109 67.1817 -17.5069 7.71326 -70.7359 -8.89439 2.40109 
-70.618 -8.89439 2.77717 71.4596 -8.89439 2.40109 -71.0163 -0.28191 2.40109 
-70.618 0.656045 2.40109 -70.618 -0.28191 3.43627 71.4367 -0.28191 2.40109 
-67.167 8.33057 2.40109 70.5557 8.33057 2.40109 67.1817 16.687 2.40109 
67.1817 8.33057 10.2438 -62.2737 16.9431 2.40109 -62.0055 17.348 2.40109 
-62.0055 16.9431 3.00494 67.0716 16.9431 2.40109 -55.7742 25.5555 2.40109 
-53.393 28.0042 2.40109 -53.393 25.5555 7.30205 49.9568 32.9803 2.40109 
60.7829 25.5555 2.40109 58.5693 27.8568 2.40109 58.5693 25.5555 5.55691 
-45.8522 34.168 2.40109 -44.7805 34.8876 2.40109 -44.7805 34.168 4.37111 
-36.1681 39.0135 2.40109 -27.5556 41.5963 2.40109 24.1193 40.1081 2.40109 
32.7318 38.4806 2.40109 32.7318 34.168 8.84301 46.6753 34.168 2.40109 
41.3443 35.9858 2.40109 41.3443 34.168 6.25134 -20.6985 42.7805 2.40109 
-18.9431 43.0768 2.40109 -18.9431 42.7805 3.4342 -10.3306 45.1013 2.40109 
-10.3306 42.7805 9.96309 -1.71813 46.726 2.40109 6.89435 46.1579 2.40109 
6.89435 42.7805 9.62296 16.9514 42.7805 2.40109 15.5068 43.2962 2.40109 
15.5068 42.7805 3.4167 -44.7805 -37.3523 11.0136 -36.1681 -39.0618 11.0136 
-27.5556 -39.3731 11.0136 -18.9431 -38.1239 11.0136 -10.3306 -36.4354 11.0136 
-1.71813 -35.151 11.0136 6.89435 -35.3419 11.0136 15.5068 -36.9725 11.0136 
24.1193 -38.0813 11.0136 32.7318 -38.2676 11.0136 41.3443 -36.8883 11.0136 
-62.0055 -27.5089 11.0136 -52.2088 -34.7318 11.0136 -53.393 -34.1471 11.0136 
-44.7805 -34.7318 14.8791 -36.1681 -34.7318 16.609 -27.5556 -34.7318 16.1096 
-18.9431 -34.7318 14.8318 -10.3306 -34.7318 12.6992 -1.71813 -34.7318 11.4013 
6.89435 -34.7318 11.5418 15.5068 -34.7318 13.0763 24.1193 -34.7318 13.9798 
32.7318 -34.7318 13.9709 48.9983 -34.7318 11.0136 41.3443 -34.7318 13.3298 
49.9568 -34.3664 11.0136 58.5693 -28.0328 11.0136 -63.2411 -26.1194 11.0136 
-62.0055 -26.1194 12.549 -53.393 -26.1194 19.397 -10.3306 -26.1194 18.7625 
-1.71813 -26.1194 17.196 6.89435 -26.1194 16.6771 15.5068 -26.1194 17.2304 
24.1193 -26.1194 18.0884 32.7318 -26.1194 18.1394 41.3443 -26.1194 17.8269 
49.9568 -26.1194 16.157 60.2252 -26.1194 11.0136 58.5693 -26.1194 12.3572 
-66.8802 -17.5069 11.0136 -62.0055 -17.5069 16.7523 6.89435 -17.5069 19.5485 
15.5068 -17.5069 19.0699 24.1193 -17.5069 19.6256 49.9568 -17.5069 19.0065 
65.2733 -17.5069 11.0136 58.5693 -17.5069 16.5199 67.1817 -12.4994 11.0136 
-67.3137 -8.89439 11.0136 -62.0055 -8.89439 17.0045 24.1193 -8.89439 19.6207 
58.5693 -8.89439 18.8097 68.243 -8.89439 11.0136 67.1817 -8.89439 12.1729 
-66.7931 -0.28191 11.0136 -62.0055 -0.28191 16.5935 15.5068 -0.28191 19.4513 
24.1193 -0.28191 19.337 58.5693 -0.28191 19.1802 68.2747 -0.28191 11.0136 
67.1817 6.2823 11.0136 67.1817 -0.28191 12.2468 -63.2589 8.33057 11.0136 
-62.0055 10.5848 11.0136 -62.0055 8.33057 12.4172 -53.393 8.33057 18.0269 
49.9568 8.33057 19.4921 66.6551 8.33057 11.0136 58.5693 8.33057 17.0918 
[...]
POINT_DATA 536
SCALARS ImageScalars float
LOOKUP_TABLE default
0 0 0 0 0 0 0 0 0 
0 0 0 0 0 0 0 0 0 
0 0 0 0 0 0 0 0 0 
0 0 0 0 0 0 0 0 0 
0 0 0 0 0 0 0 0 0 
0 0 0 0 0 0 0 0 0 
0 0 0 0 0 0 0 0 0 
0 0 0 0 0 0 0 0 0 
0 0 0 0 0 0 0 0 0 
0 0 0 0 0 0 0 0 0 
0 0 0 0 0 0 0 0 0 
0 0 0 0 0 0 0 0 0 
0 0 0 0 0 0 0 0 0 
0 0 0 0 0 0 0 0 0 
0 0 0 0 0 0 0 0 0 
0 0 0 0 0 0 0 0 0 
0 0 0 0 0 0 0 0 0 
0 0 0 0 0 0 0 0 0 
0 0 0 0 0 0 0 0 0 
0 0 0 0 0 0 0 0 0 
0 0 0 0 0 0 0 0 0 
0 0 0 0 0 0 0 0 0 
0 0 0 0 0 0 0 0 0 
0 0 0 0 0 0 0 0 0 
0 0 0 0 0 0 0 0 0 
0 0 0 0 0 0 0 0 0 
0 0 0 0 0 0 0 0 0 
0 0 0 0 0 0 0 0 0 
0 0 0 0 0 0 0 0 0 
0 0 0 0 0 0 0 0 0 
0 0 0 0 0 0 0 0 0 
0 0 0 0 0 0 0 0 0 
0 0 0 0 0 0 0 0 0 
0 0 0 0 0 0 0 0 0 
0 0 0 0 0 0 0 0 0 
0 0 0 0 0 0 0 0 0 
0 0 0 0 0 0 0 0 0 
0 0 0 0 0 0 0 0 0 
0 0 0 0 0 0 0 0 0 
0 0 0 0 0 0 0 0 0 
0 0 0 0 0 0 0 0 0 
0 0 0 0 0 0 0 0 0 
0 0 0 0 0 0 0 0 0 
0 0 0 0 0 0 0 0 0 
0 0 0 0 0 0 0 0 0 
0 0 0 0 0 0 0 0 0 
0 0 0 0 0 0 0 0 0 
0 0 0 0 0 0 0 0 0 
0 0 0 0 0 0 0 0 0 
0 0 0 0 0 0 0 0 0 
0 0 0 0 0 0 0 0 0 
0 0 0 0 0 0 0 0 0 
0 0 0 0 0 0 0 0 0 
0 0 0 0 0 0 0 0 0 
0 0 0 0 0 0 0 0 0 
0 0 0 0 0 0 0 0 0 
0 0 0 0 0 0 0 0 0 
0 0 0 0 0 0 0 0 0 
0 0 0 0 0 0 0 0 0 
0 0 0 0 0 
NORMALS Normals float
0.0713626 0.480314 0.874189 0.051982 0.490009 0.870166 0.00418244 0.461026 0.887377 
-0.0180995 0.505748 0.862491 -0.0196222 0.48238 0.875742 -0.19071 0.5 0.844766 
0.249204 0.443977 0.860687 0.10155 0.357969 0.928195 0.00491684 0.272295 0.962201 
-0.0481277 0.230592 0.97186 -0.0402818 0.210095 0.976851 0.0526314 0.179117 0.982419 
0.0208078 0.138338 0.990166 0.0274578 0.104199 0.994177 0.0444951 0.149179 0.987809 
-0.0143006 0.215395 0.976422 -0.135807 0.243885 0.960248 -0.256362 0.305604 0.916997 
0.354787 0.321266 0.878017 0.13549 0.25419 0.957617 -0.0143369 0.176837 0.984136 
-0.04789 0.0995292 0.993882 -0.0691119 0.0343283 0.997018 -0.0443305 0.156882 0.986622 
0.000800799 0.0603732 0.998176 -0.0235893 -0.02474 0.999416 0.0333601 -0.0393746 0.998667 
0.113465 -0.0158706 0.993415 0.039266 0.0413759 0.998372 -0.103097 0.047765 0.993524 
-0.31334 0.102372 0.944107 0.566729 0.211639 0.796258 0.254163 0.185813 0.949144 
0.103271 0.115722 0.987899 -0.0510725 0.113547 0.992219 -0.156286 0.0563179 0.986105 
0.0120093 0.012336 0.999852 -0.00326475 0.264771 0.964306 -0.142857 -0.0402545 0.988924 
-0.0810254 0.0552555 0.995179 0.0402443 0.122208 0.991688 0.126812 0.021565 0.991692 
0.0546152 -0.00223582 0.998505 -0.0686489 0.000930523 0.99764 -0.220895 0.0223168 0.975042 
-0.411665 0.0768759 0.908087 0.592064 -0.029963 0.805334 0.257056 0.0357122 0.965736 
0.0611807 0.0595602 0.996348 -0.079428 0.0429302 0.995916 -0.147098 0.0868362 0.985303 
0.120008 0.12334 0.985081 0.00207744 0.0799916 0.996793 -0.229397 0.057691 0.971622 
0.157576 0.208676 0.965207 -0.0376471 0.234891 0.971292 -0.0265333 0.104505 0.99417 
0.0206659 0.0594007 0.99802 -0.0828235 0.040182 0.995754 -0.238989 0.0314894 0.970511 
-0.422761 0.0233307 0.905941 0.336914 -0.147351 0.929934 0.112218 -0.0461595 0.992611 
-0.0271615 0.0225873 0.999376 -0.0835502 0.1219 0.98902 0.0105874 0.145854 0.989249 
-0.0822148 -0.149896 0.985278 -0.0484176 0.150051 0.987492 0.091298 0.0669309 0.993572 
-0.0412609 -0.00084392 0.999148 -0.0306205 0.0792007 0.996388 -0.00959895 0.0519322 0.998604 
-0.0943641 0.0125034 0.995459 -0.222368 -0.000335776 0.974963 -0.431299 -0.0825496 0.898425 
0.490877 -0.345632 0.799737 0.227415 -0.173898 0.958145 0.0884613 -0.0504178 0.994803 
-0.0197939 0.0164421 0.999669 -0.124546 0.0794975 0.989024 -0.0886296 -0.0317538 0.995558 
0.0346798 0.12985 0.990927 0.0124145 0.0588426 0.99819 -0.02454 0.00597359 0.999681 
0.0116928 -0.0159068 0.999805 -0.0468004 -0.0412484 0.998052 -0.131677 -0.0613972 0.989389 
-0.317459 -0.141253 0.937693 0.421878 -0.431123 0.797591 0.162544 -0.244015 0.956052 
0.046949 -0.18206 0.982166 -0.0386458 -0.0743069 0.996486 -0.0314818 -0.0155619 0.999383 
0.04788 0.0431602 0.99792 -0.0387782 0.0104176 0.999194 -0.112498 -0.0186317 0.993477 
-0.0798682 -0.128706 0.988461 -0.0581469 -0.220275 0.973703 -0.209491 -0.30174 0.93009 
-0.326899 -0.398733 0.856825 0.330695 -0.661003 0.673585 0.164005 -0.506869 0.846278 
0.0580514 -0.411475 0.90957 0.0391314 -0.291498 0.955771 0.0578002 -0.245415 0.967694 
-0.0497605 -0.245978 0.967997 -0.166326 -0.295918 0.940621 -0.215704 -0.415945 0.883437 
-0.216884 -0.577672 0.786928 0.1723 -0.792675 0.584789 0.0995169 -0.701946 0.705243 
-0.0897685 -0.696082 0.712328 0.0712016 0.484411 0.871938 0.0501637 0.549282 0.83413 
0.000474835 0.531098 0.84731 -0.0161888 0.556198 0.830892 -0.015585 0.527299 0.849537 
-0.192595 0.535858 0.822048 0.266231 0.518391 0.812645 0.313214 0.776957 0.546109 
0.14812 0.515374 0.844068 0.198908 0.661166 0.723391 0.0699679 0.524255 0.848682 
0.0815466 0.602782 0.793728 0.0113925 0.523213 0.852126 0.0184282 0.569299 0.821924 
0.0653958 0.48171 0.873887 0.0146235 0.448211 0.893808 0.0250497 0.508702 0.860578 
-0.222168 0.512766 0.829284 -0.288297 0.397318 0.871219 -0.412703 0.657825 0.630034 
0.640783 0.586243 0.495698 0.305271 0.491006 0.815918 0.375096 0.450099 0.810379 
0.393189 0.563606 0.726464 -0.420763 0.288555 0.860055 -0.60531 0.310045 0.733125 
0.480348 0.332432 0.811637 0.577246 0.232199 0.782861 0.637814 0.337743 0.692188 
-0.459278 0.0753911 0.885088 -0.422928 0.0758744 0.902981 -0.537182 0.104699 0.836943 
-0.837357 0.280608 0.469141 0.595974 0.206558 0.775982 -0.420181 0.0780806 0.904075 
-0.788938 0.122397 0.602159 0.655125 -0.0424583 0.754326 0.686241 -0.262109 0.678507 
-0.431985 0.0228148 0.901592 -0.792345 0.00302382 0.610066 0.685994 -0.265145 0.677577 
0.688072 -0.26616 0.675067 -0.463569 -0.091855 0.881287 -0.473651 -0.110018 0.873814 
-0.813232 -0.177183 0.554311 0.638989 -0.397031 0.658832 0.827547 -0.503855 0.247582 
0.579413 -0.493667 0.648516 -0.498081 -0.15931 0.85237 -0.600354 -0.212557 0.77097 
0.551916 -0.54153 0.63414 0.654645 -0.634924 0.410257 0.490635 -0.605392 0.62672 
-0.297753 -0.631762 0.715696 -0.409527 -0.41853 0.81063 -0.352905 -0.479055 0.803719 
-0.719291 -0.539307 0.437914 0.410056 -0.697968 0.587108 0.532779 -0.79429 0.291974 
0.351117 -0.738782 0.575255 0.222875 -0.77324 0.593655 0.162656 -0.795359 0.583907 
-0.268257 -0.764734 0.58585 -0.288225 -0.667255 0.686802 -0.282791 -0.645859 0.709151 
-0.237061 -0.642664 0.72855 -0.313744 -0.698915 0.642715 -0.438646 -0.87523 0.203865 
0.172846 -0.795452 0.580844 0.188799 -0.939518 0.285764 0.172838 -0.794634 0.581965 
0.107302 -0.783802 0.61167 -0.264301 -0.76719 0.584435 -0.093481 -0.792678 0.602431 
-0.269833 -0.773021 0.574133 0.322903 0.835113 0.445331 0.235633 0.895666 0.377174 
0.0989331 0.925415 0.365813 0.00885128 0.947258 0.32035 0.000294914 0.957237 0.289305 
0.0229186 0.972154 0.233218 0.0442436 0.977748 0.205066 0.0549312 0.97001 0.236777 
0.0171888 0.963151 0.268411 -0.0593626 0.967679 0.245098 -0.185307 0.948394 0.257314 
-0.425942 0.838219 0.340532 0.650608 0.627642 0.427521 0.413572 0.787461 0.457015 
0.462454 0.747819 0.476344 0.487526 0.83246 0.263305 -0.634058 0.706219 0.314999 
-0.686838 0.655801 0.313336 0.684268 0.590547 0.427822 -0.787265 0.475742 0.392281 
-0.837805 0.282338 0.467299 0.808196 0.369432 0.458627 -0.838102 0.280698 0.467754 
0.93653 0.141665 0.320689 0.994925 0.0889218 -0.0470908 -0.879825 0.122965 0.459115 
0.943887 -0.151581 0.293429 0.978417 -0.179507 0.102357 -0.883434 -0.00765924 0.468492 
0.901078 -0.375271 0.217325 -0.901548 -0.192257 0.38762 -0.868698 -0.317915 0.379861 
0.837851 -0.511967 0.18946 0.82836 -0.528321 0.186269 -0.835787 -0.387366 0.389111 
0.721107 -0.669802 0.177117 0.6855 -0.706552 0.175709 -0.773896 -0.58887 0.233061 
-0.72986 -0.645011 0.226417 0.563391 -0.812103 0.151921 0.530741 -0.834449 0.148352 
0.373631 -0.918734 0.127781 0.235457 -0.966852 0.0987817 -0.27902 -0.960066 0.0205037 
-0.278706 -0.956545 0.0856947 -0.335412 -0.936516 0.102165 -0.447452 -0.875858 0.180718 
-0.435171 -0.882772 0.177033 -0.428575 -0.899508 0.0849044 0.225416 -0.969548 0.0957346 
0.195184 -0.976318 0.093305 0.199384 -0.973403 0.112842 0.104241 -0.988787 0.10693 
-0.102795 -0.992926 0.0594228 -0.278941 -0.960093 0.0203216 -0.277075 -0.960647 0.019649 
0.478918 0.877265 0.0322964 0.294685 0.955247 0.0257544 0.175101 0.983631 -0.0425454 
0.0527231 0.994798 -0.0871653 -0.0592624 0.985098 -0.161464 -0.062766 0.970958 -0.230869 
-0.0119359 0.957374 -0.288606 0.0569612 0.955052 -0.290916 0.0983416 0.964473 -0.245196 
0.0430336 0.977489 -0.206554 -0.0638768 0.98181 -0.178797 -0.171177 0.961484 -0.215051 
-0.409039 0.888226 -0.209144 0.521384 0.852585 0.0354671 0.708273 0.705648 0.0202596 
0.482664 0.82885 -0.28292 -0.598724 0.77739 -0.192857 -0.334862 0.697862 -0.633132 
-0.632196 0.753047 -0.182342 0.795349 0.606088 0.00874501 -0.818889 0.561845 -0.117259 
-0.894664 0.435936 -0.0976557 0.950467 0.309426 -0.0294588 0.989091 0.101564 -0.106698 
-0.947004 0.315318 -0.0613063 -0.857787 0.34317 -0.38267 0.990447 0.0780817 -0.113659 
0.988483 0.0764031 -0.130626 -0.991203 0.125886 -0.0408679 0.966171 -0.204465 -0.157188 
0.959723 -0.230602 -0.16048 0.956425 -0.208016 -0.20489 -0.99751 -0.0490034 -0.0507245 
0.893274 -0.411695 -0.180471 -0.963364 -0.24724 -0.103937 -0.890129 -0.432953 -0.142207 
-0.769461 -0.283002 -0.572573 0.820007 -0.537029 -0.197959 0.816665 -0.541564 -0.199416 
0.813561 -0.537321 -0.222272 -0.88654 -0.439841 -0.143484 0.728411 -0.659919 -0.184185 
0.693999 -0.697854 -0.177101 0.682484 -0.630559 -0.369609 -0.36809 -0.869529 -0.329285 
-0.693013 -0.688322 -0.21435 -0.635229 -0.729793 -0.252756 -0.595666 -0.694326 -0.403849 
0.539928 -0.822585 -0.178418 0.517431 -0.836867 -0.178657 0.521355 -0.816888 -0.246742 
0.335415 -0.922665 -0.190226 0.225427 -0.953093 -0.201979 -0.256415 -0.871616 -0.417776 
-0.215411 -0.896668 -0.386762 -0.147586 -0.773585 -0.616267 -0.329708 -0.889027 -0.317684 
-0.287612 -0.907641 -0.305723 -0.2682 -0.84594 -0.460928 0.201993 -0.960683 -0.190492 
0.196605 -0.962085 -0.189046 0.197135 -0.955196 -0.220765 0.204356 -0.962294 -0.179526 
0.169709 -0.879971 -0.443678 0.0592528 -0.975999 -0.209561 -0.182213 -0.940157 -0.287928 
-0.23675 -0.815431 -0.528225 -0.312494 -0.877465 -0.363872 -0.316807 -0.879306 -0.355604 
-0.323072 -0.865953 -0.381772 0.266936 0.876198 -0.401276 0.105555 0.905972 -0.409967 
-0.0440061 0.84808 -0.528038 -0.138341 0.807554 -0.57334 -0.138014 0.741135 -0.657017 
-0.0502558 0.694258 -0.717969 0.0821614 0.668061 -0.739556 0.120064 0.714245 -0.68952 
0.0593997 0.727573 -0.683454 -0.0552539 0.728294 -0.683033 -0.182518 0.721615 -0.667801 
0.672199 0.608162 -0.422241 0.444362 0.806706 -0.389574 0.472324 0.789227 -0.392466 
0.238565 0.787307 -0.568537 0.0429071 0.682902 -0.729249 -0.0800945 0.64984 -0.755839 
-0.156758 0.673929 -0.721974 -0.152764 0.688983 -0.708495 -0.0526682 0.681629 -0.7298 
0.0819702 0.646521 -0.75848 0.121862 0.619678 -0.775338 0.0445601 0.589754 -0.806353 
-0.0275785 0.590466 -0.806591 -0.31088 0.687048 -0.656748 -0.161488 0.642848 -0.748778 
-0.326119 0.678093 -0.658662 -0.557224 0.519256 -0.647978 0.714434 0.559628 -0.420001 
0.668871 0.561342 -0.487347 0.390265 0.397601 -0.830426 -0.145336 0.425568 -0.893179 
-0.105668 0.466559 -0.878155 0.00446069 0.397837 -0.917445 0.0761269 0.302858 -0.94999 
0.0531381 0.293293 -0.954545 -0.012877 0.339876 -0.940382 -0.111912 0.324674 -0.939182 
-0.272694 0.410306 -0.870223 -0.585553 0.503157 -0.63558 -0.523366 0.488399 -0.698251 
0.849366 0.211391 -0.483623 0.627617 0.184261 -0.756403 -0.110104 0.366062 -0.924054 
0.00571583 0.166503 -0.986024 0.0942445 0.0834712 -0.992044 -0.17076 0.24733 -0.953766 
-0.715868 0.329966 -0.61535 -0.440243 0.307143 -0.843712 -0.772648 0.222943 -0.5944 
0.828162 -0.001527 -0.560487 0.61507 -0.00506578 -0.788456 0.0249197 -0.0166941 -0.99955 
-0.399741 0.121432 -0.908549 -0.796246 0.134853 -0.589752 -0.755271 0.133202 -0.641734 
0.80752 -0.204094 -0.553404 0.620326 -0.203966 -0.75736 -0.196722 0.0223385 -0.980205 
0.0648426 0.00208878 -0.997893 -0.402704 -0.075809 -0.912186 -0.809578 -0.0700191 -0.582821 
-0.755206 -0.231882 -0.613102 -0.764925 -0.0704843 -0.640251 0.737095 -0.373492 -0.5632 
0.714712 -0.407864 -0.568184 0.693152 -0.379044 -0.613079 0.393144 -0.273645 -0.877813 
-0.158583 -0.20501 -0.965827 -0.728373 -0.281984 -0.624466 -0.42406 -0.265594 -0.865813 
0.65391 -0.485166 -0.58053 0.634014 -0.545337 -0.5483 0.547608 -0.395798 -0.737204 
0.274741 -0.251508 -0.928042 -0.0526323 -0.182887 -0.981724 -0.127493 -0.280735 -0.95128 
-0.268944 -0.340482 -0.900967 -0.604205 -0.436332 -0.666747 -0.501799 -0.5157 -0.694444 
-0.487584 -0.441748 -0.753074 0.605692 -0.574045 -0.551008 0.498081 -0.675814 -0.543315 
0.44737 -0.481779 -0.753491 -0.106855 -0.330477 -0.937746 -0.135843 -0.416367 -0.898991 
-0.134426 -0.700413 -0.700965 -0.149707 -0.477361 -0.86586 -0.231484 -0.674332 -0.701208 
-0.204239 -0.526186 -0.825478 -0.36882 -0.6267 -0.686454 -0.355056 -0.642335 -0.679221 
-0.340794 -0.603614 -0.72077 0.397453 -0.75533 -0.521065 0.318619 -0.788895 -0.525477 
0.306446 -0.728376 -0.612829 0.217048 -0.826569 -0.519301 0.169531 -0.641607 -0.748064 
0.200887 -0.830579 -0.519407 0.129551 -0.546517 -0.827366 0.161778 -0.855293 -0.492242 
0.0931682 -0.389953 -0.916109 -0.0449416 -0.33884 -0.93977 -0.242575 -0.769404 -0.59091 
-0.197558 -0.422311 -0.88466 -0.326554 -0.701667 -0.633266 -0.290575 -0.590077 -0.753243 
-0.227735 -0.716761 -0.659083 -0.237419 -0.71635 -0.656106 -0.236451 -0.7128 -0.660309 
0.107568 -0.856769 -0.504356 -0.139251 -0.812837 -0.565601 -0.0161266 -0.839129 -0.543693 
-0.0215322 -0.809215 -0.587118 0.132565 0.459209 -0.878381 -0.00231864 0.43484 -0.900505 
-0.0775528 0.387527 -0.91859 -0.120664 0.344533 -0.930987 0.362566 0.387153 -0.847737 
0.378862 0.360446 -0.852375 0.111796 0.320281 -0.940703 -0.0115181 0.312088 -0.949983 
-0.0810779 0.298586 -0.950933 -0.125184 0.351459 -0.927796 -0.115791 0.319933 -0.940338 
-0.114412 0.349566 -0.9299 -0.114195 0.347951 -0.930532 0.00629972 0.225854 -0.974141 
-0.0960379 0.192869 -0.976513 0.389618 0.128621 -0.911951 0.299791 0.108144 -0.947856 
0.105828 0.108742 -0.988421 -0.00945712 0.0879047 -0.996084 -0.0838782 0.0686193 -0.994111 
-0.0527578 0.0588804 -0.99687 -0.0307354 0.17808 -0.983536 -0.11063 0.362209 -0.925508 
-0.104652 0.275996 -0.955444 -0.11075 0.362688 -0.925306 -0.100856 0.101254 -0.989735 
0.0942112 0.0834971 -0.992045 0.0176037 0.142442 -0.989647 -0.117847 0.19871 -0.972947 
-0.0938394 0.173028 -0.980436 -0.150748 0.194699 -0.96921 0.434991 0.00339178 -0.900428 
0.314454 0.000658508 -0.949272 0.0936432 -0.0353622 -0.994978 -0.0511789 -0.0362943 -0.99803 
-0.118151 -0.05907 -0.991237 -0.001576 -0.0324548 -0.999472 0.0679355 0.23248 -0.970226 
0.0602432 0.0302577 -0.997725 -0.0962387 0.152419 -0.983619 0.0228205 -0.0163565 -0.999606 
-0.203614 0.0223738 -0.978796 -0.21906 0.0338009 -0.975126 0.0252101 -0.0166487 -0.999544 
0.0837107 -0.00779326 -0.99646 0.00592392 0.0693716 -0.997573 -0.292337 0.114755 -0.949405 
-0.130561 0.100362 -0.986347 0.375637 -0.195123 -0.905993 0.308574 -0.218557 -0.925751 
0.26422 -0.185149 -0.946524 0.0760398 -0.139081 -0.987357 -0.0363908 -0.109348 -0.993337 
-0.0729749 -0.0615143 -0.995435 0.252008 0.0273226 -0.967339 0.0317479 0.2862 -0.957644 
-0.202591 0.0517274 -0.977896 -0.192913 0.0153752 -0.981095 -0.0966047 -0.084025 -0.99177 
-0.187058 0.0354767 -0.981708 0.0736645 -0.00531863 -0.997269 -0.0153778 0.0365284 -0.999214 
0.104003 -0.0292523 -0.994147 0.0135277 -0.0442663 -0.998928 -0.334271 -0.0742352 -0.939549 
-0.152515 -0.191133 -0.969643 -0.119539 -0.0690694 -0.990424 0.248261 -0.186092 -0.95065 
0.244001 -0.218531 -0.944832 0.167992 -0.14685 -0.974789 0.0229004 -0.0690603 -0.99735 
0.0144219 -0.00434323 -0.999887 0.307803 0.010288 -0.951394 0.0781078 -0.250359 -0.964997 
-0.277783 -0.0777901 -0.957489 -0.134098 -0.0963936 -0.986269 -0.128815 0.0887928 -0.987686 
-0.0240263 0.0401335 -0.998905 -0.0352374 -0.159018 -0.986647 0.0370886 -0.0596438 -0.99753 
-0.137466 -0.190538 -0.972007 -0.0896251 -0.211366 -0.973289 -0.0335725 -0.117578 -0.992496 
0.243122 -0.219376 -0.944863 0.122755 -0.0994307 -0.987444 0.00919184 -0.0506819 -0.998673 
0.0264594 -0.0753779 -0.996804 -0.0431545 -0.353873 -0.934297 -0.0565003 -0.176821 -0.98262 
0.0387293 -0.122613 -0.991699 -0.0902201 -0.273657 -0.957587 -0.0456169 -0.0807151 -0.995693 
-0.0613454 -0.163808 -0.984583 -0.100128 -0.155035 -0.982822 -0.092358 -0.099268 -0.990765 
0.225775 -0.352135 -0.90831 0.222763 -0.354781 -0.908024 0.221265 -0.350066 -0.910218 
0.0453179 -0.304935 -0.951294 0.029934 -0.257075 -0.965928 0.00544836 -0.28418 -0.958755 
-0.0141671 -0.234421 -0.972032 0.00335116 -0.218292 -0.975878 -0.0186712 -0.185986 -0.982375 
-0.0216345 -0.143722 -0.989382 -0.0148445 -0.0931565 -0.995541 -0.0428932 -0.189633 -0.980918 
-0.039603 -0.179295 -0.982998 -0.0362267 -0.174952 -0.98391 
