# vtk DataFile Version 4.2
vtk output
ASCII
DATASET POLYDATA
POINTS 492 float
-25.7235 -3.18593 -25.7495 -25.7235 4.5545 -25.7343 5.23825 20.0354 -25.794 
-10.2426 -34.1477 -18.3535 -2.50218 -34.1477 -18.015 -25.7235 -26.4072 -20.8936 
-17.983 -26.4072 -22.6841 -10.2426 -26.4072 -22.9121 -2.50218 -26.4072 -21.7836 
5.23825 -26.4072 -20.5743 12.9787 -26.4072 -19.852 20.7191 -26.4072 -18.8484 
-33.4639 -18.6668 -21.7177 -25.7235 -18.6668 -24.2681 -17.983 -18.6668 -24.7869 
-10.2426 -18.6668 -24.1409 -2.50218 -18.6668 -22.7484 5.23825 -18.6668 -21.1966 
12.9787 -18.6668 -20.6956 20.7191 -18.6668 -20.4458 28.4595 -18.6668 -19.4869 
-41.2043 -10.9264 -20.7869 -33.4639 -10.9264 -24.2875 -25.7235 -4.31422 -25.6845 
-25.7235 -10.9264 -25.3035 -17.983 -10.9264 -25.2946 -10.2426 -10.9264 -24.61 
-2.50218 -10.9264 -23.1568 5.23825 -10.9264 -21.53 12.9787 -10.9264 -20.7779 
20.7191 -10.9264 -20.4846 28.4595 -10.9264 -20.6105 36.2 -10.9264 -18.5494 
-41.2043 -3.18593 -22.492 -26.7859 -3.18593 -25.6845 -33.4639 -3.18593 -25.2619 
-25.0974 -3.18593 -25.6845 -17.983 -3.18593 -24.9474 -10.2426 -3.18593 -25.0103 
-2.50218 -3.18593 -25.1851 5.23825 -3.18593 -24.2581 12.9787 -3.18593 -21.1474 
20.7191 -3.18593 -19.8117 28.4595 -3.18593 -19.7363 36.2 -3.18593 -18.7855 
-41.2043 4.5545 -22.8286 -26.741 4.5545 -25.6845 -33.4639 4.5545 -25.3437 
-25.2442 4.5545 -25.6845 -25.7235 6.88722 -25.6845 -17.983 4.5545 -24.9295 
-10.2426 4.5545 -24.9345 -2.50218 4.5545 -25.0354 5.23825 4.5545 -24.8925 
12.9787 4.5545 -22.3481 20.7191 4.5545 -19.6524 28.4595 4.5545 -19.5753 
36.2 4.5545 -18.3915 -41.2043 12.2949 -22.3661 -33.4639 12.2949 -24.7628 
-25.7235 12.2949 -25.5687 -17.983 12.2949 -25.4461 -10.2426 12.2949 -25.2313 
-2.50218 12.2949 -24.6273 5.23825 19.0951 -25.6845 5.23825 12.2949 -24.8935 
12.9787 12.2949 -24.2199 20.7191 12.2949 -21.5673 28.4595 12.2949 -19.834 
-41.2043 20.0354 -19.2225 -33.4639 20.0354 -23.5937 -25.7235 20.0354 -25.0971 
-17.983 20.0354 -25.669 -10.2426 20.0354 -25.5946 2.19664 20.0354 -25.6845 
-2.50218 20.0354 -25.5101 6.55189 20.0354 -25.6845 5.23825 20.9559 -25.6845 
12.9787 20.0354 -25.1602 20.7191 20.0354 -23.2901 28.4595 20.0354 -20.0037 
-33.4639 27.7758 -19.4721 -25.7235 27.7758 -22.5979 -17.983 27.7758 -24.1227 
-10.2426 27.7758 -25.3624 -2.50218 27.7758 -24.9613 5.23825 27.7758 -24.8757 
12.9787 27.7758 -24.5364 20.7191 27.7758 -22.6499 28.4595 27.7758 -18.5572 
-17.983 35.5162 -19.0878 -10.2426 35.5162 -21.2437 -2.50218 35.5162 -22.1179 
5.23825 35.5162 -21.7758 12.9787 35.5162 -20.3535 -10.2426 -34.5763 -17.9441 
-2.50218 -34.2288 -17.9441 -25.7235 -29.9211 -17.9441 -25.7235 -34.1477 -10.7958 
-13.4 -34.1477 -17.9441 -17.983 -33.3882 -17.9441 -17.983 -34.1477 -16.9844 
-1.875 -34.1477 -17.9441 5.23825 -32.4889 -17.9441 5.23825 -34.1477 -16.9586 
12.9787 -30.4802 -17.9441 12.9787 -34.1477 -15.4002 20.7191 -28.1352 -17.9441 
20.7191 -34.1477 -12.9198 -30.679 -26.4072 -17.9441 -33.4639 -24.0521 -17.9441 
-33.4639 -26.4072 -14.4044 24.3336 -26.4072 -17.9441 28.4595 -23.3149 -17.9441 
28.4595 -26.4072 -16.6538 36.2 -26.4072 -11.4232 -38.5553 -18.6668 -17.9441 
-41.2043 -15.1368 -17.9441 -41.2043 -18.6668 -13.3758 33.4081 -18.6668 -17.9441 
36.2 -14.049 -17.9441 36.2 -18.6668 -16.8991 -43.728 -10.9264 -17.9441 
37.4074 -10.9264 -17.9441 43.9404 -10.9264 -13.5689 -46.0047 -3.18593 -17.9441 
38.2384 -3.18593 -17.9441 43.9404 -3.18593 -15.0812 -46.5951 4.5545 -17.9441 
-48.9448 4.5545 -11.7182 37.448 4.5545 -17.9441 36.2 10.0697 -17.9441 
43.9404 4.5545 -15.2453 -45.4477 12.2949 -17.9441 35.5379 12.2949 -17.9441 
36.2 12.2949 -17.7675 43.9404 12.2949 -13.5117 -42.4845 20.0354 -17.9441 
-41.2043 21.9198 -17.9441 33.9081 20.0354 -17.9441 36.2 20.0354 -16.9673 
-35.6063 27.7758 -17.9441 -33.4639 29.3186 -17.9441 -25.7235 33.2137 -17.9441 
20.7191 35.1303 -17.9441 29.3547 27.7758 -17.9441 28.4595 28.709 -17.9441 
36.2 27.7758 -12.0465 -20.5815 35.5162 -17.9441 -25.7235 35.5162 -12.9469 
-17.983 36.5047 -17.9441 -10.2426 38.6096 -17.9441 -2.50218 39.6039 -17.9441 
5.23825 39.2506 -17.9441 19.9457 35.5162 -17.9441 12.9787 37.8682 -17.9441 
20.7191 35.5162 -17.5088 28.4595 35.5162 -10.7191 -25.7235 -34.4421 -10.2036 
-17.983 -37.9568 -10.2036 -10.2426 -39.4681 -10.2036 -2.50218 -39.7574 -10.2036 
5.23825 -39.3256 -10.2036 12.9787 -38.1874 -10.2036 20.7191 -36.0625 -10.2036 
-26.1651 -34.1477 -10.2036 -33.4639 -28.6383 -10.2036 25.4588 -34.1477 -10.2036 
28.4595 -32.8111 -10.2036 28.4595 -34.1477 -3.3615 36.2 -27.3752 -10.2036 
-35.8592 -26.4072 -10.2036 -41.2043 -20.5074 -10.2036 37.2372 -26.4072 -10.2036 
-42.501 -18.6668 -10.2036 43.3093 -18.6668 -10.2036 43.9404 -17.3655 -10.2036 
43.9404 -18.6668 -6.58775 -46.9338 -10.9264 -10.2036 46.4994 -10.9264 -10.2036 
-48.9436 -3.18593 -10.2036 -48.9448 -3.16728 -10.2036 48.3057 -3.18593 -10.2036 
-49.3659 4.5545 -10.2036 -48.9448 7.29413 -10.2036 -48.9448 4.5545 -6.64167 
48.7216 4.5545 -10.2036 -48.1134 12.2949 -10.2036 47.0599 12.2949 -10.2036 
43.9404 19.5764 -10.2036 -45.6593 20.0354 -10.2036 -41.2043 27.5611 -10.2036 
43.7227 20.0354 -10.2036 43.9404 20.0354 -9.53871 -40.9947 27.7758 -10.2036 
-33.4639 33.1318 -10.2036 37.8552 27.7758 -10.2036 36.2 29.3996 -10.2036 
-28.2514 35.5162 -10.2036 -25.7235 36.5103 -10.2036 -17.983 39.3001 -10.2036 
-10.2426 41.5093 -10.2036 -2.50218 42.5709 -10.2036 5.23825 42.4312 -10.2036 
12.9787 41.4439 -10.2036 20.7191 39.3434 -10.2036 28.8826 35.5162 -10.2036 
28.4595 35.7962 -10.2036 -25.7235 -35.5562 -2.46321 -17.983 -39.2504 -2.46321 
-10.2426 -41.0628 -2.46321 -2.50218 -41.6497 -2.46321 5.23825 -41.3082 -2.46321 
12.9787 -39.9445 -2.46321 20.7191 -37.6066 -2.46321 28.4595 -34.2922 -2.46321 
-27.7639 -34.1477 -2.46321 -33.4639 -29.6312 -2.46321 28.706 -34.1477 -2.46321 
28.4595 -34.1477 -1.44607 36.2 -28.9077 -2.46321 -36.7629 -26.4072 -2.46321 
-41.2043 -21.0962 -2.46321 38.886 -26.4072 -2.46321 43.9404 -19.6593 -2.46321 
-42.9012 -18.6668 -2.46321 44.5647 -18.6668 -2.46321 43.9404 -18.6668 4.09852 
-46.6462 -10.9264 -2.46321 48.0891 -10.9264 -2.46321 -48.1856 -3.18593 -2.46321 
50.4014 -3.18593 -2.46321 -48.411 4.5545 -2.46321 50.8935 4.5545 -2.46321 
-47.7784 12.2949 -2.46321 49.5784 12.2949 -2.46321 -45.1459 20.0354 -2.46321 
-41.2043 26.2838 -2.46321 45.9277 20.0354 -2.46321 43.9404 22.7145 -2.46321 
-39.784 27.7758 -2.46321 -33.4639 32.5883 -2.46321 39.4883 27.7758 -2.46321 
36.2 30.7165 -2.46321 36.2 27.7758 4.88154 -26.823 35.5162 -2.46321 
-25.7235 35.947 -2.46321 -25.7235 35.5162 -1.17762 -17.983 38.603 -2.46321 
-10.2426 40.8302 -2.46321 -2.50218 42.0222 -2.46321 5.23825 42.0278 -2.46321 
12.9787 41.1914 -2.46321 20.7191 39.4121 -2.46321 29.6352 35.5162 -2.46321 
28.4595 36.267 -2.46321 28.4595 35.5162 -0.645052 -25.7235 -35.2516 5.27722 
-17.983 -39.0253 5.27722 -10.2426 -41.0664 5.27722 -2.50218 -41.7614 5.27722 
5.23825 -41.1655 5.27722 12.9787 -39.309 5.27722 20.7191 -36.5737 5.27722 
-27.3589 -34.1477 5.27722 -33.4639 -29.3848 5.27722 -25.7235 -34.1477 8.71122 
26.2276 -34.1477 5.27722 20.7191 -34.1477 11.9311 28.4595 -33.0876 5.27722 
36.2 -27.7811 5.27722 -36.494 -26.4072 5.27722 -41.2043 -20.6038 5.27722 
-33.4639 -26.4072 12.8355 37.7017 -26.4072 5.27722 36.2 -26.4072 8.8834 
-42.4229 -18.6668 5.27722 -41.2043 -18.6668 9.10286 43.8239 -18.6668 5.27722 
43.9404 -18.4493 5.27722 -45.9167 -10.9264 5.27722 47.495 -10.9264 5.27722 
-47.1094 -3.18593 5.27722 49.8672 -3.18593 5.27722 -46.8099 4.5545 5.27722 
50.3796 4.5545 5.27722 -45.7462 12.2949 5.27722 48.6734 12.2949 5.27722 
-42.9311 20.0354 5.27722 -41.2043 22.6297 5.27722 -41.2043 20.0354 8.37576 
36.2 27.595 5.27722 44.1073 20.0354 5.27722 43.9404 20.2446 5.27722 
43.9404 20.0354 5.59061 -35.9355 27.7758 5.27722 -33.4639 29.5932 5.27722 
-33.4639 27.7758 7.97101 -25.7235 33.1831 5.27722 -25.7235 27.7758 12.744 
35.9459 27.7758 5.27722 28.4595 32.6145 5.27722 28.4595 27.7758 11.8404 
-18.7594 35.5162 5.27722 -17.983 35.7656 5.27722 -17.983 35.5162 5.6864 
-10.2426 37.9699 5.27722 -10.2426 35.5162 8.97032 -2.50218 39.1942 5.27722 
-2.50218 35.5162 10.5437 5.23825 39.195 5.27722 5.23825 35.5162 10.4652 
12.9787 38.2373 5.27722 12.9787 35.5162 9.10053 22.1318 35.5162 5.27722 
20.7191 36.1451 5.27722 20.7191 35.5162 6.18704 -17.983 -36.7164 13.0176 
-10.2426 -38.9535 13.0176 -2.50218 -39.6905 13.0176 5.23825 -38.867 13.0176 
12.9787 -36.6299 13.0176 -23.0955 -34.1477 13.0176 -25.7235 -32.6152 13.0176 
-17.983 -34.1477 16.8103 -10.2426 -34.1477 19.7118 -2.50218 -34.1477 20.6887 
5.23825 -34.1477 19.7748 19.6238 -34.1477 13.0176 12.9787 -34.1477 16.8973 
20.7191 -33.7143 13.0176 28.4595 -30.0871 13.0176 -33.3792 -26.4072 13.0176 
-33.4639 -26.317 13.0176 -25.7235 -26.4072 19.6039 33.9653 -26.4072 13.0176 
28.4595 -26.4072 18.2078 36.2 -24.6707 13.0176 -39.6083 -18.6668 13.0176 
-41.2043 -15.5027 13.0176 -33.4639 -18.6668 19.1399 41.3652 -18.6668 13.0176 
36.2 -18.6668 20.0241 43.9404 -14.0113 13.0176 -43.127 -10.9264 13.0176 
-41.2043 -10.9264 15.4416 45.4492 -10.9264 13.0176 43.9404 -10.9264 15.8695 
-44.2167 -3.18593 13.0176 -41.2043 -3.18593 16.8641 47.703 -3.18593 13.0176 
43.9404 -3.18593 19.5274 -43.8227 4.5545 13.0176 -41.2043 4.5545 16.3733 
47.9174 4.5545 13.0176 43.9404 4.5545 19.4955 -41.9732 12.2949 13.0176 
-41.2043 13.9816 13.0176 -41.2043 12.2949 13.9481 -33.4639 12.2949 20.0582 
45.5411 12.2949 13.0176 43.9404 14.7301 13.0176 43.9404 12.2949 15.4265 
-37.3489 20.0354 13.0176 -33.4639 23.6275 13.0176 -33.4639 20.0354 15.9797 
-25.7235 27.517 13.0176 -25.7235 20.0354 18.7039 -17.983 20.0354 19.7296 
-10.2426 20.0354 20.3804 28.4595 26.8375 13.0176 28.4595 20.0354 20.2212 
38.8675 20.0354 13.0176 36.2 22.3106 13.0176 36.2 20.0354 15.7459 
-24.9834 27.7758 13.0176 -17.983 29.9961 13.0176 -17.983 27.7758 14.9548 
-10.2426 32.0425 13.0176 -10.2426 27.7758 16.4099 -2.50218 33.2903 13.0176 
-2.50218 27.7758 17.535 5.23825 33.2669 13.0176 5.23825 27.7758 17.8306 
12.9787 32.2064 13.0176 12.9787 27.7758 17.2732 26.2976 27.7758 13.0176 
[...]
POINT_DATA 492
SCALARS ImageScalars float
LOOKUP_TABLE default
0 0 0 0 0 0 0 0 0 
0 0 0 0 0 0 0 0 0 
0 0 0 0 0 0 0 0 0 
0 0 0 0 0 0 0 0 0 
0 0 0 0 0 0 0 0 0 
0 0 0 0 0 0 0 0 0 
0 0 0 0 0 0 0 0 0 
0 0 0 0 0 0 0 0 0 
0 0 0 0 0 0 0 0 0 
0 0 0 0 0 0 0 0 0 
0 0 0 0 0 0 0 0 0 
0 0 0 0 0 0 0 0 0 
0 0 0 0 0 0 0 0 0 
0 0 0 0 0 0 0 0 0 
0 0 0 0 0 0 0 0 0 
0 0 0 0 0 0 0 0 0 
0 0 0 0 0 0 0 0 0 
0 0 0 0 0 0 0 0 0 
0 0 0 0 0 0 0 0 0 
0 0 0 0 0 0 0 0 0 
0 0 0 0 0 0 0 0 0 
0 0 0 0 0 0 0 0 0 
0 0 0 0 0 0 0 0 0 
0 0 0 0 0 0 0 0 0 
0 0 0 0 0 0 0 0 0 
0 0 0 0 0 0 0 0 0 
0 0 0 0 0 0 0 0 0 
0 0 0 0 0 0 0 0 0 
0 0 0 0 0 0 0 0 0 
0 0 0 0 0 0 0 0 0 
0 0 0 0 0 0 0 0 0 
0 0 0 0 0 0 0 0 0 
0 0 0 0 0 0 0 0 0 
0 0 0 0 0 0 0 0 0 
0 0 0 0 0 0 0 0 0 
0 0 0 0 0 0 0 0 0 
0 0 0 0 0 0 0 0 0 
0 0 0 0 0 0 0 0 0 
0 0 0 0 0 0 0 0 0 
0 0 0 0 0 0 0 0 0 
0 0 0 0 0 0 0 0 0 
0 0 0 0 0 0 0 0 0 
0 0 0 0 0 0 0 0 0 
0 0 0 0 0 0 0 0 0 
0 0 0 0 0 0 0 0 0 
0 0 0 0 0 0 0 0 0 
0 0 0 0 0 0 0 0 0 
0 0 0 0 0 0 0 0 0 
0 0 0 0 0 0 0 0 0 
0 0 0 0 0 0 0 0 0 
0 0 0 0 0 0 0 0 0 
0 0 0 0 0 0 0 0 0 
0 0 0 0 0 0 0 0 0 
0 0 0 0 0 0 0 0 0 
0 0 0 0 0 0 
NORMALS Normals float
-0.0214508 0.0277725 0.999384 -0.0275973 -0.0116438 0.999551 -0.0238691 -0.00104556 0.999715 
0.0340781 0.672459 0.739349 -0.0681854 0.618593 0.782748 0.329076 0.537794 0.7762 
0.109031 0.40364 0.908398 -0.0546697 0.320579 0.945643 -0.13968 0.267093 0.953494 
-0.121879 0.234871 0.964355 -0.103873 0.268772 0.957586 -0.178551 0.344179 0.92177 
0.436597 0.431802 0.789259 0.171378 0.249704 0.953036 -0.00885154 0.159769 0.987115 
-0.127759 0.100832 0.986666 -0.189124 0.0838018 0.978371 -0.128383 0.0592186 0.989955 
-0.0477646 0.0603658 0.997033 -0.0740849 0.0987792 0.992348 -0.202225 0.216718 0.95506 
0.632195 0.337239 0.697567 0.2217 0.199978 0.954389 -0.00926428 0.0372222 0.999264 
0.0621717 0.0929423 0.993729 -0.0442452 0.00979784 0.998973 -0.13354 0.0555221 0.989487 
-0.198129 0.15388 0.968022 -0.149725 0.185807 0.971112 -0.0665889 0.02673 0.997422 
-0.0110571 -0.0409971 0.999098 -0.117425 0.0125779 0.993002 -0.355983 0.10231 0.928875 
0.541471 0.100803 0.834654 0.0062993 0.0330959 0.999432 0.186424 0.0664471 0.98022 
-0.023445 0.0236449 0.999445 -0.0475851 -0.0235588 0.998589 0.0150113 0.0206452 0.999674 
-0.0448734 0.11712 0.992103 -0.242431 0.217631 0.945444 -0.285557 0.0938636 0.953754 
-0.0823363 -0.0533763 0.995174 -0.0622293 -0.0644395 0.995979 -0.255693 -0.0101065 0.966705 
0.510171 -0.00392622 0.860064 -0.00227783 -0.0147494 0.999889 0.170384 -0.0340189 0.98479 
-0.0289871 -0.00893221 0.99954 -0.00545704 -0.0200151 0.999785 -0.0515764 0.0321838 0.99815 
0.0067904 0.0139216 0.99988 -0.00278445 -0.0357427 0.999357 -0.147734 0.0378714 0.988302 
-0.352593 0.18921 0.916448 -0.153364 0.101552 0.982938 -0.0775975 0.00570623 0.996968 
-0.247061 -0.0623752 0.96699 0.549126 -0.185318 0.814934 0.164656 -0.104685 0.98078 
0.0455055 -0.0397507 0.998173 -0.0216284 0.0477473 0.998625 -0.0528243 0.0429625 0.997679 
-0.0212728 0.029192 0.999347 -0.0233942 0.0060883 0.999708 -0.0229333 0.0568682 0.998118 
-0.203933 0.169692 0.964166 -0.266561 0.22781 0.936508 -0.224496 0.0270165 0.9741 
0.642047 -0.414676 0.644841 0.309382 -0.280443 0.908644 0.129194 -0.169285 0.977063 
0.0307664 -0.0804515 0.996284 -0.0100046 0.00960095 0.999904 -0.00942876 0.00725424 0.999929 
0.0127696 0.020733 0.999703 -0.0458484 0.00232758 0.998946 -0.0234916 -0.0260265 0.999385 
-0.151067 0.0190088 0.988341 -0.318691 0.0653798 0.945601 -0.372018 -0.0620169 0.926152 
0.443069 -0.623007 0.644633 0.248929 -0.472379 0.845513 0.15802 -0.343215 0.925869 
0.0490119 -0.220833 0.974079 -0.0285541 -0.179202 0.983398 -0.0253245 -0.215083 0.976267 
-0.125468 -0.252966 0.959305 -0.326004 -0.277684 0.903666 -0.508037 -0.352601 0.785857 
0.274037 -0.750444 0.601446 0.155234 -0.645973 0.74741 0.0280026 -0.576332 0.816736 
-0.094466 -0.594934 0.798204 -0.208161 -0.648817 0.731919 0.0381401 0.689417 0.72336 
-0.0675942 0.62219 0.779942 0.397758 0.669581 0.627256 0.481381 0.826951 0.29056 
0.110041 0.705282 0.700334 0.206862 0.711743 0.67129 0.22642 0.757878 0.611845 
-0.072209 0.616786 0.783811 -0.118779 0.514448 0.849256 -0.119999 0.616458 0.77819 
-0.130552 0.454855 0.880945 -0.172148 0.686777 0.706189 -0.201587 0.418265 0.885673 
-0.290486 0.789501 0.540653 0.499819 0.632852 0.591337 0.5499 0.604692 0.576159 
0.612726 0.68119 0.400683 -0.248858 0.402157 0.881101 -0.276783 0.366331 0.888365 
-0.348964 0.500664 0.792187 -0.609627 0.659267 0.440139 0.635653 0.527985 0.563185 
0.700747 0.471235 0.535623 0.76852 0.552942 0.321919 -0.346749 0.271136 0.897914 
-0.388511 0.18049 0.903594 -0.45718 0.321918 0.829069 0.762841 0.364242 0.53423 
-0.401717 0.1169 0.908272 -0.750141 0.245137 0.614163 0.816011 0.150704 0.558045 
-0.338621 0.00786401 0.94089 -0.632195 0.0818676 0.770472 0.829192 -0.028171 0.558253 
0.986151 -0.0469733 0.159061 -0.292638 -0.0669706 0.953875 -0.316111 -0.0752758 0.945731 
-0.58668 -0.0849001 0.805356 0.807891 -0.212393 0.549728 -0.331564 -0.071329 0.940732 
-0.34387 -0.0812115 0.935499 -0.665771 -0.236582 0.707657 0.710521 -0.419857 0.564695 
0.668186 -0.467898 0.578445 -0.413098 -0.185568 0.89158 -0.457926 -0.254143 0.851889 
0.512709 -0.64285 0.569099 0.457897 -0.684853 0.566839 0.348571 -0.743936 0.570137 
-0.369676 -0.665993 0.647914 -0.51633 -0.368694 0.77296 -0.507853 -0.398408 0.763778 
-0.645475 -0.595709 0.478009 0.306323 -0.783161 0.541134 0.361313 -0.893385 0.26705 
0.282542 -0.790308 0.543675 0.180934 -0.799962 0.572122 0.0377975 -0.80977 0.585529 
-0.0970711 -0.796753 0.596457 -0.353782 -0.6832 0.638808 -0.212519 -0.754714 0.620679 
-0.369167 -0.696119 0.615739 -0.503823 -0.811875 0.294994 0.484236 0.833036 0.267518 
0.277358 0.910182 0.307637 0.105124 0.93127 0.348834 -0.00792072 0.920155 0.391474 
-0.0930004 0.902554 0.420414 -0.188072 0.888239 0.419119 -0.309289 0.868071 0.388321 
0.493765 0.827889 0.266076 0.647564 0.725129 0.234196 -0.386244 0.841535 0.377669 
-0.44072 0.81209 0.382459 -0.466469 0.883201 0.0486035 -0.620286 0.693446 0.366576 
0.684349 0.694135 0.223256 0.790115 0.581173 0.194825 -0.644257 0.670892 0.367201 
0.815926 0.547471 0.185849 -0.805199 0.461511 0.372374 -0.820692 0.430622 0.37554 
-0.851631 0.483117 0.203279 0.918623 0.369456 0.14012 -0.862653 0.281933 0.419934 
0.985074 0.138195 0.102621 0.985145 0.137731 0.102566 -0.858731 0.138627 0.493318 
0.995375 -0.0492708 0.0824686 0.98956 -0.111995 0.0907065 0.998849 -0.039006 -0.0279212 
-0.853641 -0.0707672 0.516032 0.968056 -0.224485 0.111686 -0.800511 -0.275816 0.532079 
-0.787103 -0.439892 0.432394 0.901075 -0.417894 0.115882 0.715042 -0.687289 0.127863 
-0.785362 -0.448749 0.426415 -0.79712 -0.462322 0.388404 0.706126 -0.696425 0.127979 
0.507761 -0.848684 0.148034 -0.679206 -0.632638 0.372087 -0.656749 -0.666385 0.353004 
0.404065 -0.904873 0.133929 0.358003 -0.924795 0.128791 0.305827 -0.945522 0.111617 
0.202505 -0.972699 0.113351 0.0576933 -0.990841 0.12209 -0.0699703 -0.987181 0.143446 
-0.191048 -0.966303 0.172511 -0.341005 -0.917237 0.205893 -0.511482 -0.816647 0.267346 
-0.50239 -0.822366 0.267054 0.514814 0.856245 0.042557 0.320285 0.945295 0.0619228 
0.147055 0.984557 0.0949829 0.0155259 0.992819 0.118618 -0.106869 0.988606 0.10601 
-0.228405 0.971611 0.0616655 -0.344863 0.938349 0.0238693 -0.467056 0.884184 0.00882312 
0.55643 0.829848 0.0416978 0.675296 0.73673 0.0346976 -0.471983 0.881563 0.00891557 
-0.467424 0.883784 -0.0209754 -0.64908 0.76048 0.0191083 0.727802 0.685262 0.0268165 
0.818764 0.574108 0.0049943 -0.715219 0.698566 0.0216096 -0.857413 0.514055 0.0243028 
0.852893 0.522053 -0.00575641 -0.86941 0.493452 0.025105 -0.85396 0.501182 -0.139889 
0.948968 0.309818 -0.0589333 -0.93874 0.339956 0.0565524 0.988045 0.106031 -0.111914 
-0.981493 0.172778 0.0825725 0.986713 -0.024143 -0.160672 -0.994908 -0.0509087 0.0869858 
0.968937 -0.201769 -0.143001 -0.95478 -0.286247 0.0803607 0.894323 -0.42036 -0.153247 
0.745232 -0.641395 -0.182324 -0.842032 -0.539008 0.0212916 -0.796213 -0.605012 0.00226108 
0.68353 -0.706014 -0.185285 0.496029 -0.850138 -0.176693 -0.691352 -0.720059 -0.0595599 
-0.632172 -0.770134 -0.0851588 -0.558811 -0.730391 -0.392759 0.362277 -0.913369 -0.185774 
0.345021 -0.919827 -0.186758 0.340011 -0.913005 -0.22542 0.294962 -0.933779 -0.202621 
0.2094 -0.956518 -0.203039 0.0744489 -0.97809 -0.194415 -0.0518145 -0.981416 -0.184762 
-0.160166 -0.97053 -0.180049 -0.309471 -0.935239 -0.171918 -0.497177 -0.854336 -0.15141 
-0.472833 -0.866886 -0.157916 -0.464985 -0.854408 -0.231897 0.511186 0.846505 -0.148723 
0.333223 0.931757 -0.144189 0.166153 0.978389 -0.12308 0.00613752 0.993426 -0.114314 
-0.151382 0.978357 -0.141069 -0.276719 0.941865 -0.190572 -0.362994 0.905551 -0.219575 
0.543826 0.82616 -0.147352 0.671532 0.726526 -0.145617 0.510137 0.818494 -0.264249 
-0.43027 0.875034 -0.221775 -0.351137 0.84814 -0.396688 -0.463396 0.857924 -0.221881 
-0.636534 0.744181 -0.20253 0.722705 0.674782 -0.149558 0.833184 0.529255 -0.160292 
0.650926 0.629204 -0.424733 -0.673822 0.711949 -0.197718 -0.623287 0.726898 -0.288327 
0.859645 0.483426 -0.165255 0.827394 0.478191 -0.294537 -0.847995 0.502106 -0.169689 
-0.851107 0.496984 -0.169184 0.939867 0.27868 -0.197454 -0.924564 0.348303 -0.154488 
0.970939 0.0503294 -0.233974 -0.970523 0.176312 -0.164313 0.959216 -0.0795759 -0.271243 
-0.981676 -0.0665741 -0.178549 0.916911 -0.227505 -0.327896 -0.906061 -0.347389 -0.241606 
0.817617 -0.446285 -0.363776 0.755768 -0.532816 -0.380685 0.751983 -0.468833 -0.463375 
-0.553183 -0.726037 -0.408484 -0.746183 -0.586944 -0.314178 -0.742252 -0.591317 -0.315287 
-0.740992 -0.589013 -0.322481 0.552101 -0.726893 -0.408424 0.479651 -0.773587 -0.414124 
0.469112 -0.733503 -0.491841 0.319682 -0.843989 -0.43068 0.276025 -0.699969 -0.658675 
-0.548139 -0.72818 -0.411458 -0.415316 -0.780689 -0.466945 -0.36917 -0.722614 -0.584417 
0.270655 -0.857744 -0.437061 0.266128 -0.858583 -0.438191 0.264459 -0.853002 -0.449942 
0.195582 -0.866483 -0.459298 0.176987 -0.801452 -0.571271 0.0707519 -0.877547 -0.474242 
0.0565756 -0.775227 -0.629144 -0.0541417 -0.875317 -0.48051 -0.0571265 -0.779384 -0.623937 
-0.167219 -0.8582 -0.485315 -0.161174 -0.795944 -0.583521 -0.32152 -0.815762 -0.480788 
-0.302064 -0.822788 -0.481432 -0.297931 -0.811604 -0.50253 0.339855 0.845181 -0.412513 
0.170103 0.896763 -0.40851 -0.00441022 0.912945 -0.408058 -0.174911 0.890898 -0.419174 
-0.290773 0.85506 -0.429329 0.446216 0.793166 -0.414463 0.500306 0.754089 -0.425492 
0.331918 0.749851 -0.572324 0.154624 0.687787 -0.709254 0.00425314 0.67626 -0.736651 
-0.143237 0.730467 -0.667758 -0.339263 0.838158 -0.427073 -0.27062 0.791428 -0.548093 
-0.347584 0.834047 -0.428428 -0.444829 0.792171 -0.417842 0.648054 0.627321 -0.431851 
0.64959 0.625426 -0.43229 0.443131 0.511534 -0.736185 -0.552776 0.730799 -0.400463 
-0.416094 0.690121 -0.592114 -0.61096 0.688022 -0.391604 0.763191 0.463438 -0.450293 
0.800053 0.378438 -0.46551 0.535792 0.36283 -0.762418 -0.76274 0.526316 -0.375791 
-0.560711 0.492353 -0.665726 -0.840651 0.408731 -0.35531 0.835223 0.246158 -0.491741 
0.763985 0.23306 -0.601672 -0.872817 0.340514 -0.34963 -0.825504 0.341052 -0.449695 
0.865166 0.0379641 -0.500047 0.738008 0.0412941 -0.673527 -0.914833 0.143088 -0.377633 
-0.766009 0.114046 -0.632633 0.851537 -0.121388 -0.510048 0.744387 -0.130544 -0.654863 
-0.900827 -0.123524 -0.416236 -0.735361 -0.159366 -0.65867 0.774064 -0.293939 -0.560736 
0.745715 -0.338305 -0.573985 0.74635 -0.298934 -0.594643 0.413792 -0.31736 -0.853264 
-0.784241 -0.412422 -0.463545 -0.729267 -0.487625 -0.47999 -0.728696 -0.431538 -0.531768 
0.572345 -0.516772 -0.636685 0.440409 -0.616528 -0.652635 0.421 -0.524987 -0.739694 
0.272281 -0.691414 -0.669185 0.195793 -0.501257 -0.842856 0.0935973 -0.474726 -0.875143 
0.106683 -0.431108 -0.895972 -0.356471 -0.712329 -0.604579 -0.2851 -0.622893 -0.728507 
-0.566878 -0.63837 -0.520705 -0.503261 -0.673469 -0.54145 -0.492436 -0.644332 -0.585101 
0.266471 -0.69063 -0.672327 0.208111 -0.676129 -0.706781 0.181303 -0.617065 -0.765742 
0.150172 -0.67258 -0.724627 0.136775 -0.544655 -0.827432 0.0540357 -0.700137 -0.711961 
0.077518 -0.551993 -0.830238 -0.0504058 -0.715153 -0.697148 -0.0110763 -0.603142 -0.797557 
-0.140167 -0.720816 -0.678806 -0.102447 -0.662882 -0.741682 -0.327581 -0.714726 -0.617946 
-0.252341 -0.719629 -0.646883 -0.232399 -0.694907 -0.68051 0.29899 0.530722 -0.793056 
0.150487 0.622736 -0.767824 0.00484484 0.67253 -0.740054 -0.130298 0.695058 -0.707048 
-0.23578 0.686136 -0.688204 -0.29978 0.659134 -0.689692 0.388811 0.463565 -0.796199 
0.401312 0.428722 -0.809411 0.275388 0.379665 -0.883185 0.162669 0.371823 -0.91394 
0.0762773 0.427051 -0.901005 -0.059566 0.510973 -0.85753 -0.197594 0.562845 -0.802597 
-0.337045 0.641512 -0.689102 -0.291034 0.614276 -0.73346 -0.38681 0.585565 -0.712385 
0.43998 0.308554 -0.843334 0.468933 0.220553 -0.855253 0.312887 0.236126 -0.919971 
0.224946 0.158664 -0.961366 0.215578 0.156926 -0.963795 0.174757 0.208943 -0.962187 
-0.265849 0.298075 -0.916775 -0.524995 0.477118 -0.704796 -0.344723 0.386098 -0.855625 
-0.543294 0.456478 -0.704599 0.478505 0.171162 -0.861241 0.444352 0.166515 -0.880241 
0.24571 0.0901647 -0.965141 0.205079 0.0854169 -0.975011 0.233899 0.0626225 -0.970242 
-0.221386 0.0670058 -0.972881 -0.225684 0.171253 -0.95903 -0.642985 0.311495 -0.699672 
-0.455954 0.268069 -0.848672 0.486146 0.0377309 -0.873063 0.395473 0.0301868 -0.917982 
0.249185 0.0200298 -0.968249 0.19906 0.0293009 -0.979549 0.170504 -0.00639166 -0.985336 
-0.126107 -0.0144994 -0.991911 -0.167125 0.0442025 -0.984944 -0.700325 0.102846 -0.706377 
-0.387809 0.0486595 -0.920455 0.475313 -0.12785 -0.870478 0.407493 -0.248952 -0.87862 
0.405104 -0.121837 -0.906116 0.252361 -0.123013 -0.959782 0.175768 -0.158176 -0.971641 
0.0833499 -0.214044 -0.973262 0.0660473 -0.258334 -0.963795 0.0531018 -0.234009 -0.970783 
-0.0419948 -0.126368 -0.991094 -0.0848321 -0.076846 -0.993428 -0.172435 -0.108835 -0.97899 
-0.666262 -0.168751 -0.726373 -0.392598 -0.149944 -0.907405 0.348686 -0.319374 -0.881146 
0.193745 -0.402056 -0.894882 0.200053 -0.322979 -0.925021 0.0911952 -0.449929 -0.888396 
0.0977651 -0.377656 -0.92077 0.102462 -0.429076 -0.897438 0.0663645 -0.411867 -0.908824 
0.125757 -0.356625 -0.925745 0.141123 -0.315354 -0.938422 0.019598 -0.283131 -0.958881 
-0.107254 -0.286929 -0.951929 -0.280802 -0.602812 -0.746839 -0.231513 -0.361735 -0.903078 
-0.528591 -0.440906 -0.725392 -0.467582 -0.498707 -0.729835 -0.455977 -0.427297 -0.780706 
0.114565 -0.421859 -0.899394 0.123409 -0.428324 -0.895159 0.136093 -0.401974 -0.905481 
0.0561038 -0.52729 -0.847831 0.103718 -0.473699 -0.874558 -0.0479478 -0.596823 -0.800939 
-0.0176202 -0.530368 -0.847585 -0.256739 -0.612453 -0.747654 -0.176365 -0.611395 -0.771422 
-0.160443 -0.568075 -0.807186 -0.00446667 0.352946 -0.935633 -0.175799 0.295995 -0.938873 
0.169474 0.211693 -0.96253 0.177072 0.201746 -0.963299 0.0164559 0.286071 -0.958067 
-0.184771 0.280506 -0.9419 -0.175244 0.280415 -0.943746 0.231043 0.0434922 -0.971971 
0.226796 0.0314992 -0.973433 0.025455 0.0276296 -0.999294 -0.213437 0.0497728 -0.975688 
-0.194618 0.0257915 -0.98054 0.153936 -0.0786575 -0.984945 0.120366 -0.162042 -0.979415 
0.143819 -0.122024 -0.982052 0.0461997 -0.223258 -0.973664 0.0108935 -0.16458 -0.986304 
-0.135572 -0.0578676 -0.989076 -0.0701526 -0.117323 -0.990613 -0.143606 -0.0956574 -0.985001 

