# vtk DataFile Version 4.2
vtk output
ASCII
DATASET POLYDATA
POINTS 548 float
-31.83 -19.4136 -21.1688 24.3273 -19.4136 -20.7532 32.3498 -19.4136 -21.4961 
0.259916 -43.481 -13.5799 8.28238 -43.481 -16.3406 16.3049 -43.481 -16.4373 
24.3273 -43.481 -14.9586 -39.8524 -35.4585 -15.7049 -31.83 -35.4585 -17.5454 
-23.8075 -35.4585 -17.2424 -15.785 -35.4585 -14.6966 -7.76255 -35.4585 -14.0556 
0.259916 -35.4585 -16.4323 8.28238 -35.4585 -18.7002 16.3049 -35.4585 -18.9476 
24.3273 -35.4585 -18.5147 32.3498 -35.4585 -17.6184 40.3723 -35.4585 -13.3171 
-47.8749 -27.4361 -13.6507 -39.8524 -27.4361 -19.0724 -31.83 -21.6539 -20.7515 
-31.83 -27.4361 -19.6686 -23.8075 -27.4361 -19.4491 -15.785 -27.4361 -17.718 
-7.76255 -27.4361 -16.2348 0.259916 -27.4361 -17.5988 8.28238 -27.4361 -18.753 
16.3049 -27.4361 -19.4455 24.3273 -19.4369 -20.7515 24.3273 -27.4361 -20.2185 
32.3498 -24.277 -20.7515 32.3498 -27.4361 -20.1781 40.3723 -27.4361 -18.4364 
-47.8749 -19.4136 -14.7005 -33.6564 -19.4136 -20.7515 -39.8524 -19.4136 -19.4102 
-29.3186 -19.4136 -20.7515 -31.83 -16.6968 -20.7515 -23.8075 -19.4136 -19.8546 
-15.785 -19.4136 -17.7561 -7.76255 -19.4136 -16.6414 0.259916 -19.4136 -17.6609 
8.28238 -19.4136 -18.2126 24.317 -19.4136 -20.7515 16.3049 -19.4136 -19.469 
24.3273 -19.4026 -20.7515 35.1659 -19.4136 -20.7515 32.3498 -14.6944 -20.7515 
40.3723 -19.4136 -19.2498 48.3947 -19.4136 -15.7884 -47.8749 -11.3911 -15.3979 
-39.8524 -11.3911 -18.9763 -31.83 -11.3911 -19.9556 -23.8075 -11.3911 -19.2006 
-15.785 -11.3911 -17.2754 -7.76255 -11.3911 -16.887 0.259916 -11.3911 -19.3018 
8.28238 -11.3911 -17.8292 16.3049 -11.3911 -18.6052 24.3273 -11.3911 -19.5443 
32.3498 -11.3911 -20.175 40.3723 -11.3911 -19.2837 48.3947 -11.3911 -16.9186 
-47.8749 -3.36867 -14.6795 -39.8524 -3.36867 -18.0703 -31.83 -3.36867 -18.8494 
-23.8075 -3.36867 -18.1742 -15.785 -3.36867 -16.7024 -7.76255 -3.36867 -17.4689 
0.259916 -3.36867 -15.5755 8.28238 -3.36867 -18.1113 16.3049 -3.36867 -16.6441 
24.3273 -3.36867 -17.9684 32.3498 -3.36867 -19.0675 40.3723 -3.36867 -19.0525 
48.3947 -3.36867 -17.3262 -47.8749 4.6538 -13.3074 -39.8524 4.6538 -16.8911 
-31.83 4.6538 -17.6433 -23.8075 4.6538 -16.5678 -15.785 4.6538 -15.9956 
-7.76255 4.6538 -19.6641 0.259916 4.6538 -16.1168 8.28238 4.6538 -19.5227 
16.3049 4.6538 -15.5711 24.3273 4.6538 -17.2773 32.3498 4.6538 -18.4014 
40.3723 4.6538 -18.7388 48.3947 4.6538 -17.0059 -39.8524 12.6763 -14.3243 
-31.83 12.6763 -15.3824 -23.8075 12.6763 -14.8818 -15.785 12.6763 -14.9408 
-7.76255 12.6763 -17.7726 0.259916 12.6763 -16.2837 8.28238 12.6763 -17.0542 
16.3049 12.6763 -16.3324 24.3273 12.6763 -17.1359 32.3498 12.6763 -18.1116 
40.3723 12.6763 -17.893 48.3947 12.6763 -16.2442 -31.83 20.6987 -13.6254 
-23.8075 20.6987 -13.8784 -15.785 20.6987 -14.857 -7.76255 20.6987 -16.8517 
0.259916 20.6987 -17.0563 8.28238 20.6987 -16.2291 16.3049 20.6987 -16.3718 
24.3273 20.6987 -16.8995 32.3498 20.6987 -16.8668 40.3723 20.6987 -15.9595 
48.3947 20.6987 -12.9323 -15.785 28.7212 -14.8224 -7.76255 28.7212 -16.9207 
0.259916 28.7212 -17.2984 8.28238 28.7212 -16.274 16.3049 28.7212 -15.4793 
24.3273 28.7212 -15.3601 32.3498 28.7212 -14.2554 -15.785 36.7437 -13.0405 
-7.76255 36.7437 -15.8252 0.259916 36.7437 -16.5019 8.28238 36.7437 -14.9835 
16.3049 36.7437 -13.1364 0.259916 44.7661 -13.0427 0.259916 -44.7994 -12.729 
8.28238 -47.983 -12.729 8.28238 -51.5035 -5.15895 16.3049 -48.2333 -12.729 
16.3049 -51.5035 -6.03185 24.3273 -46.7892 -12.729 -39.8524 -39.8405 -12.729 
-31.83 -40.7601 -12.729 -23.8075 -39.4662 -12.729 -15.785 -37.4226 -12.729 
-0.944019 -43.481 -12.729 -7.76255 -37.2592 -12.729 29.3178 -43.481 -12.729 
32.3498 -41.6664 -12.729 40.3723 -36.0638 -12.729 -46.1616 -35.4585 -12.729 
-47.8749 -30.9596 -12.729 -47.8749 -35.4585 -9.51432 41.0778 -35.4585 -12.729 
-48.594 -27.4361 -12.729 48.3439 -27.4361 -12.729 48.3947 -27.3471 -12.729 
48.3947 -27.4361 -12.544 -49.693 -19.4136 -12.729 52.0424 -19.4136 -12.729 
-50.8222 -11.3911 -12.729 53.7169 -11.3911 -12.729 -50.2912 -3.36867 -12.729 
55.2379 -3.36867 -12.729 56.4172 -3.36867 -10.3592 -48.683 4.6538 -12.729 
-47.8749 6.90782 -12.729 55.3558 4.6538 -12.729 56.4172 4.6538 -11.2062 
-44.0701 12.6763 -12.729 -47.8749 12.6763 -10.9745 -39.8524 18.9488 -12.729 
54.63 12.6763 -12.729 56.4172 12.6763 -9.51516 -47.8749 20.6987 -8.39889 
-37.2263 20.6987 -12.729 -39.8524 20.6987 -12.244 -31.83 23.8598 -12.729 
-23.8075 27.0758 -12.729 40.3723 28.0126 -12.729 48.659 20.6987 -12.729 
48.3947 21.043 -12.729 -39.8524 28.7212 -9.31611 -31.83 28.7212 -11.2303 
-22.7896 28.7212 -12.729 -23.8075 28.7212 -12.4335 24.3273 35.6377 -12.729 
38.9648 28.7212 -12.729 32.3498 31.7316 -12.729 40.3723 28.7212 -12.3275 
48.3947 28.7212 -5.63136 -39.8524 36.7437 -4.88535 -31.83 36.7437 -7.25608 
-16.6404 36.7437 -12.729 -23.8075 36.7437 -10.1115 -15.785 37.7139 -12.729 
-7.76255 43.8917 -12.729 8.28238 41.4722 -12.729 20.0321 36.7437 -12.729 
16.3049 37.4683 -12.729 24.3273 36.7437 -12.2011 32.3498 36.7437 -9.63022 
40.3723 36.7437 -4.90011 -23.8075 44.7661 -6.01374 -15.785 44.7661 -9.85413 
-3.20377 44.7661 -12.729 -7.76255 44.7661 -12.234 1.49935 44.7661 -12.729 
0.259916 45.2028 -12.729 8.28238 44.7661 -10.4691 16.3049 44.7661 -7.08761 
24.3273 44.7661 -5.29664 8.28238 -51.643 -4.70658 16.3049 -51.9414 -4.70658 
7.9228 -51.5035 -4.70658 0.259916 -47.5711 -4.70658 8.28238 -51.5035 -4.30573 
17.6659 -51.5035 -4.70658 16.3049 -51.5035 -3.63006 24.3273 -48.7632 -4.70658 
-47.8749 -36.8265 -4.70658 -39.8524 -42.5608 -4.70658 -31.83 -43.3659 -4.70658 
-23.8075 -42.1375 -4.70658 -15.785 -40.6649 -4.70658 -4.49675 -43.481 -4.70658 
-7.76255 -41.1081 -4.70658 0.259916 -43.481 3.28681 31.9539 -43.481 -4.70658 
32.3498 -43.2234 -4.70658 40.3723 -37.1169 -4.70658 -48.9244 -35.4585 -4.70658 
-47.8749 -35.4585 0.114313 42.3749 -35.4585 -4.70658 40.3723 -35.4585 -1.60121 
48.3947 -29.3286 -4.70658 -51.5536 -27.4361 -4.70658 49.7414 -27.4361 -4.70658 
48.3947 -27.4361 -1.71989 -52.7107 -19.4136 -4.70658 53.6479 -19.4136 -4.70658 
-54.1874 -11.3911 -4.70658 56.0718 -11.3911 -4.70658 56.4172 -10.082 -4.70658 
-55.0389 -3.36867 -4.70658 58.1174 -3.36867 -4.70658 56.4172 -3.36867 1.73094 
-55.1792 4.6538 -4.70658 58.9212 4.6538 -4.70658 -54.0052 12.6763 -4.70658 
57.9696 12.6763 -4.70658 56.4172 16.6479 -4.70658 56.4172 12.6763 2.58746 
-51.0925 20.6987 -4.70658 -47.8749 27.8682 -4.70658 54.5834 20.6987 -4.70658 
-47.2319 28.7212 -4.70658 -47.8749 28.7212 -3.8508 48.95 28.7212 -4.70658 
48.3947 29.3335 -4.70658 -40.0857 36.7437 -4.70658 -39.8524 36.9378 -4.70658 
-31.83 40.0531 -4.70658 32.3498 41.3407 -4.70658 40.5334 36.7437 -4.70658 
40.3723 36.8708 -4.70658 -26.1028 44.7661 -4.70658 -31.83 44.7661 0.795715 
-23.8075 45.9414 -4.70658 -15.785 49.5756 -4.70658 -7.76255 51.7608 -4.70658 
0.259916 51.6783 -4.70658 8.28238 49.3239 -4.70658 16.3049 46.6104 -4.70658 
25.2815 44.7661 -4.70658 24.3273 45.1397 -4.70658 8.28238 -48.0606 3.31589 
16.3049 -47.8241 3.31589 24.3273 -43.7455 3.31589 -39.8524 -40.8228 3.31589 
-31.83 -41.1655 3.31589 -23.8075 -39.2156 3.31589 -15.785 -37.0678 3.31589 
-7.76255 -35.9532 3.31589 0.285416 -43.481 3.31589 0.259916 -43.4635 3.31589 
8.28238 -43.481 8.18842 16.3049 -43.481 7.61328 24.6851 -43.481 3.31589 
24.3273 -43.481 3.54574 32.3498 -38.3828 3.31589 -46.6789 -35.4585 3.31589 
-47.8749 -33.3026 3.31589 -39.8524 -35.4585 10.0615 -15.785 -35.4585 6.00865 
-7.76255 -35.4585 3.77195 0.259916 -35.4585 10.9416 24.3273 -35.4585 9.82367 
36.2917 -35.4585 3.31589 32.3498 -35.4585 6.02873 40.3723 -32.3965 3.31589 
-50.007 -27.4361 3.31589 -47.8749 -27.4361 7.07498 45.3551 -27.4361 3.31589 
40.3723 -27.4361 7.77145 48.3947 -22.8241 3.31589 -52.1411 -19.4136 3.31589 
-47.8749 -19.4136 11.2115 50.2847 -19.4136 3.31589 48.3947 -19.4136 5.55724 
-54.3617 -11.3911 3.31589 53.0116 -11.3911 3.31589 48.3947 -11.3911 8.76256 
-55.1289 -3.36867 3.31589 55.9027 -3.36867 3.31589 56.4172 0.410837 3.31589 
-55.8874 4.6538 3.31589 56.913 4.6538 3.31589 56.4172 10.7104 3.31589 
56.4172 4.6538 4.14849 -55.4276 12.6763 3.31589 56.2399 12.6763 3.31589 
-53.6465 20.6987 3.31589 53.5499 20.6987 3.31589 48.3947 20.6987 10.8164 
-50.4789 28.7212 3.31589 -47.8749 32.9098 3.31589 48.7583 28.7212 3.31589 
48.3947 29.1673 3.31589 48.3947 28.7212 4.02046 -44.9013 36.7437 3.31589 
-39.8524 41.1859 3.31589 32.3498 42.9327 3.31589 41.4859 36.7437 3.31589 
40.3723 37.7365 3.31589 40.3723 36.7437 5.45038 -34.0861 44.7661 3.31589 
-31.83 46.0362 3.31589 -31.83 44.7661 10.0828 -23.8075 49.149 3.31589 
-15.785 51.7164 3.31589 -7.76255 52.7805 3.31589 0.259916 52.344 3.31589 
8.28238 50.4169 3.31589 16.3049 48.4497 3.31589 16.3049 44.7661 10.4393 
28.3284 44.7661 3.31589 24.3273 46.3322 3.31589 24.3273 44.7661 6.95902 
-31.83 -35.9269 11.3384 -23.8075 -36.0254 11.3384 8.28238 -39.98 11.3384 
16.3049 -38.7913 11.3384 -34.4052 -35.4585 11.3384 -39.8524 -33.7308 11.3384 
-31.83 -35.4585 11.9323 -22.7096 -35.4585 11.3384 -23.8075 -35.4585 11.9772 
-15.785 -32.1689 11.3384 -7.76255 -30.0794 11.3384 0.927974 -35.4585 11.3384 
0.259916 -35.0917 11.3384 8.28238 -35.4585 14.9874 21.3596 -35.4585 11.3384 
16.3049 -35.4585 13.7912 24.3273 -33.1194 11.3384 32.3498 -28.2687 11.3384 
-44.3492 -27.4361 11.3384 -39.8524 -27.4361 14.6927 -31.83 -27.4361 17.8812 
-15.785 -27.4361 18.5083 -7.76255 -27.4361 16.6938 16.3049 -27.4361 18.1187 
24.3273 -27.4361 14.6693 33.5085 -27.4361 11.3384 32.3498 -27.4361 11.8751 
40.3723 -20.2605 11.3384 -47.7693 -19.4136 11.3384 -47.8749 -19.0756 11.3384 
-39.8524 -19.4136 17.3121 24.3273 -19.4136 17.8231 32.3498 -19.4136 15.2538 
40.9748 -19.4136 11.3384 40.3723 -19.4136 11.711 -49.9492 -11.3911 11.3384 
-47.8749 -11.3911 13.3075 -39.8524 -11.3911 18.0317 24.3273 -11.3911 18.735 
32.3498 -11.3911 17.5585 45.2481 -11.3911 11.3384 40.3723 -11.3911 14.4844 
48.3947 -5.56363 11.3384 -51.5937 -3.36867 11.3384 -47.8749 -3.36867 14.7786 
-39.8524 -3.36867 18.5836 0.259916 -3.36867 19.3275 40.3723 -3.36867 16.931 
[...]
POINT_DATA 548
SCALARS ImageScalars float
LOOKUP_TABLE default
0 0 0 0 0 0 0 0 0 
0 0 0 0 0 0 0 0 0 
0 0 0 0 0 0 0 0 0 
0 0 0 0 0 0 0 0 0 
0 0 0 0 0 0 0 0 0 
0 0 0 0 0 0 0 0 0 
0 0 0 0 0 0 0 0 0 
0 0 0 0 0 0 0 0 0 
0 0 0 0 0 0 0 0 0 
0 0 0 0 0 0 0 0 0 
0 0 0 0 0 0 0 0 0 
0 0 0 0 0 0 0 0 0 
0 0 0 0 0 0 0 0 0 
0 0 0 0 0 0 0 0 0 
0 0 0 0 0 0 0 0 0 
0 0 0 0 0 0 0 0 0 
0 0 0 0 0 0 0 0 0 
0 0 0 0 0 0 0 0 0 
0 0 0 0 0 0 0 0 0 
0 0 0 0 0 0 0 0 0 
0 0 0 0 0 0 0 0 0 
0 0 0 0 0 0 0 0 0 
0 0 0 0 0 0 0 0 0 
0 0 0 0 0 0 0 0 0 
0 0 0 0 0 0 0 0 0 
0 0 0 0 0 0 0 0 0 
0 0 0 0 0 0 0 0 0 
0 0 0 0 0 0 0 0 0 
0 0 0 0 0 0 0 0 0 
0 0 0 0 0 0 0 0 0 
0 0 0 0 0 0 0 0 0 
0 0 0 0 0 0 0 0 0 
0 0 0 0 0 0 0 0 0 
0 0 0 0 0 0 0 0 0 
0 0 0 0 0 0 0 0 0 
0 0 0 0 0 0 0 0 0 
0 0 0 0 0 0 0 0 0 
0 0 0 0 0 0 0 0 0 
0 0 0 0 0 0 0 0 0 
0 0 0 0 0 0 0 0 0 
0 0 0 0 0 0 0 0 0 
0 0 0 0 0 0 0 0 0 
0 0 0 0 0 0 0 0 0 
0 0 0 0 0 0 0 0 0 
0 0 0 0 0 0 0 0 0 
0 0 0 0 0 0 0 0 0 
0 0 0 0 0 0 0 0 0 
0 0 0 0 0 0 0 0 0 
0 0 0 0 0 0 0 0 0 
0 0 0 0 0 0 0 0 0 
0 0 0 0 0 0 0 0 0 
0 0 0 0 0 0 0 0 0 
0 0 0 0 0 0 0 0 0 
0 0 0 0 0 0 0 0 0 
0 0 0 0 0 0 0 0 0 
0 0 0 0 0 0 0 0 0 
0 0 0 0 0 0 0 0 0 
0 0 0 0 0 0 0 0 0 
0 0 0 0 0 0 0 0 0 
0 0 0 0 0 0 0 0 0 
0 0 0 0 0 0 0 0 
NORMALS Normals float
0.0305961 0.015563 0.999411 0.129381 -0.0387122 0.990839 -0.0898832 -0.00416574 0.995944 
0.49978 0.493981 0.711479 0.183963 0.448789 0.874498 -0.0850048 0.461114 0.88326 
-0.263685 0.584235 0.767554 0.319079 0.474597 0.820333 0.097539 0.479235 0.87225 
-0.148263 0.534589 0.832005 -0.190115 0.622087 0.759515 0.122292 0.517778 0.846729 
0.293197 0.24819 0.923275 0.150346 0.126496 0.980507 -0.0131031 0.162729 0.986584 
-0.0727908 0.308938 0.948293 -0.284557 0.447358 0.847879 -0.57041 0.663451 0.484216 
0.783193 0.157234 0.60157 0.271464 0.23327 0.933752 0.0261646 0.0733233 0.996965 
0.018801 0.217204 0.975945 -0.118627 0.142653 0.982638 -0.195729 0.146437 0.969663 
-0.00185157 0.151361 0.988477 0.157743 0.0709537 0.984928 0.113051 -0.0287455 0.993173 
0.0937202 0.0311192 0.995112 0.129151 -0.0381957 0.990889 0.0441212 0.135835 0.989749 
-0.0854388 0.126715 0.988253 -0.091472 0.223154 0.970482 -0.337381 0.32451 0.883667 
0.738315 0.0819586 0.669457 0.0958066 0.00830015 0.995365 0.319038 -0.00799266 0.947708 
-0.0458844 0.00477193 0.998935 0.024276 -0.0384579 0.998965 -0.206111 -0.0164968 0.978389 
-0.204709 -0.0275475 0.978435 -0.00573517 0.0386953 0.999235 0.0954482 0.100168 0.990382 
0.114174 -0.0578693 0.991774 0.129417 -0.0387288 0.990834 0.153662 -0.0515676 0.986777 
0.129347 -0.038892 0.990836 -0.164792 0.00612626 0.986309 -0.047779 -0.090567 0.994744 
-0.318286 0.0415433 0.947084 -0.61127 0.186957 0.769023 0.609294 -0.00727765 0.792911 
0.250704 -0.0861965 0.964219 0.0122851 -0.140868 0.989952 -0.161895 -0.102902 0.981428 
-0.144821 -0.0658118 0.987267 0.129499 0.053477 0.990136 0.0455077 -0.0775466 0.99595 
-0.0397427 -0.00535113 0.999196 0.10416 -0.172073 0.979562 0.0965364 -0.170555 0.980608 
-0.0160397 -0.152609 0.988156 -0.192395 -0.0120788 0.981243 -0.479331 0.0893714 0.873072 
0.573693 -0.119537 0.810301 0.232192 -0.11846 0.96543 0.00839357 -0.141515 0.989901 
-0.128514 -0.162495 0.978304 -0.046853 -0.0779691 0.995854 -0.0468909 0.168983 0.984503 
0.0556226 -0.23295 0.970897 0.0319549 0.0872483 0.995674 -0.00970975 -0.191905 0.981366 
0.148898 -0.136346 0.979408 0.0662067 -0.110209 0.991701 -0.0976287 -0.033781 0.994649 
-0.377356 0.00641192 0.926046 0.523616 -0.190635 0.830352 0.247575 -0.224749 0.942441 
-0.0254321 -0.215728 0.976122 -0.0984605 -0.20292 0.974232 0.189116 -0.112983 0.975433 
0.0230763 0.0228676 0.999472 -0.0532903 0.0427289 0.997664 -0.0686323 -0.0671138 0.995382 
-0.0948572 -0.0187328 0.995315 0.181935 -0.0527247 0.981896 0.0836845 -0.0583475 0.994783 
-0.0749545 -0.072297 0.994563 -0.336161 -0.0701857 0.939186 0.226677 -0.251847 0.940846 
0.0297225 -0.23676 0.971113 -0.0268387 -0.166515 0.985674 0.168518 -0.0693955 0.983253 
0.0847806 -0.174464 0.981007 -0.0398146 0.0593639 0.997442 0.00304918 -0.178979 0.983848 
0.00731588 0.0497831 0.998733 0.109637 -0.0220476 0.993727 0.0470877 -0.102406 0.993628 
-0.115601 -0.160511 0.980241 -0.350538 -0.188956 0.917289 0.0907333 -0.241909 0.966047 
0.0732954 -0.144824 0.986739 0.18048 -0.00722123 0.983552 0.136865 -0.0482667 0.989413 
-0.0395222 0.0634335 0.997203 -0.0426344 -0.0458352 0.998039 0.0405635 -0.0519179 0.997827 
0.0313296 -0.114747 0.992901 -0.051733 -0.211918 0.975917 -0.199604 -0.300944 0.932518 
-0.487844 -0.458413 0.742877 0.268132 -0.104037 0.957748 0.151121 -0.0635727 0.986469 
-0.0390297 -0.0365788 0.998568 -0.113257 -0.0771822 0.990563 -0.0552628 -0.18648 0.980903 
-0.067056 -0.270839 0.960286 -0.161213 -0.39384 0.904931 0.339864 -0.254149 0.905484 
0.203636 -0.25747 0.944585 -0.0510998 -0.240611 0.969276 -0.198276 -0.288764 0.936644 
-0.166796 -0.401532 0.900528 -0.0745858 -0.557079 0.827103 0.51906 0.576769 0.630804 
0.152432 0.743313 0.651345 0.205253 0.978701 0.00384235 -0.0507192 0.753271 0.655752 
-0.128217 0.990855 0.0420453 -0.342356 0.752186 0.563035 0.340073 0.733759 0.588173 
-0.0426615 0.838902 0.542607 -0.182687 0.83327 0.521811 -0.144161 0.752242 0.642922 
0.505677 0.562231 0.65436 0.199926 0.622878 0.756341 -0.4327 0.763289 0.47975 
-0.474385 0.771465 0.424029 -0.582129 0.683499 0.440402 0.674926 0.490127 0.551589 
0.785101 0.308885 0.536849 0.802276 0.516012 0.300142 -0.59498 0.672491 0.440176 
0.817669 0.169034 0.550314 -0.797321 0.476479 0.37047 -0.79798 0.474496 0.371593 
-0.801897 0.479454 0.35649 0.814524 0.112719 0.569075 -0.805549 0.299916 0.51102 
0.768524 0.0369435 0.638753 -0.807521 0.145664 0.571569 0.689195 -0.0940925 0.718441 
-0.785886 0.0843202 0.612596 -0.909491 0.12764 0.395643 0.555278 -0.186851 0.810403 
0.519311 -0.201078 0.830592 -0.757858 -0.0248301 0.651947 -0.867002 -0.0203704 0.497887 
0.370344 -0.239065 0.897604 0.551353 -0.234847 0.800535 0.245612 -0.2616 0.933402 
-0.702239 -0.239376 0.670491 -0.887892 -0.2516 0.385157 0.615632 -0.343183 0.709382 
0.196468 -0.259028 0.945677 0.2566 -0.272564 0.927289 0.11465 -0.272337 0.955347 
0.177626 -0.204122 0.962696 -0.309761 -0.479768 0.820896 -0.498071 -0.46426 0.732386 
-0.493427 -0.467976 0.733163 0.362944 -0.426783 0.828328 0.168436 -0.333796 0.927475 
0.212728 -0.204966 0.955372 0.205818 -0.220521 0.95342 -0.152092 -0.424871 0.892386 
-0.289415 -0.479837 0.828248 -0.208216 -0.471928 0.856697 -0.328078 -0.505712 0.797885 
-0.700335 -0.659926 0.272082 0.437964 -0.600286 0.669212 0.313745 -0.529622 0.788077 
0.332593 -0.262816 0.90571 0.289309 -0.346588 0.892288 0.340027 -0.284889 0.896226 
0.164522 -0.474289 0.86486 -0.239831 -0.464383 0.852543 -0.165309 -0.425874 0.889553 
-0.170357 -0.427196 0.887965 -0.169311 -0.463416 0.869816 -0.311837 -0.644523 0.698103 
-0.553113 -0.764807 0.330359 0.401023 -0.662809 0.632349 0.326733 -0.567264 0.755948 
0.0234742 -0.538798 0.842108 0.157077 -0.517004 0.841448 -0.102768 -0.565095 0.8186 
-0.079071 -0.570414 0.817543 -0.267728 -0.654271 0.707285 -0.229351 -0.786918 0.57285 
-0.272168 -0.861982 0.427681 0.206394 0.978282 -0.0191101 -0.140375 0.989461 -0.035527 
0.219974 0.975291 -0.0204416 0.571243 0.819452 -0.0466847 0.205123 0.977785 -0.0431363 
-0.19113 0.980044 -0.0546168 -0.145432 0.983368 -0.108796 -0.474912 0.870359 -0.130127 
0.804348 0.594157 -0.0015276 0.342221 0.939389 0.0208062 -0.0247204 0.999449 0.0221392 
-0.168277 0.985518 -0.0208981 -0.0622226 0.996981 -0.0464371 0.51682 0.855915 -0.0174799 
0.385482 0.922588 -0.0153199 0.549796 0.685668 -0.477058 -0.580807 0.800068 -0.150184 
-0.582143 0.798914 -0.151146 -0.620995 0.770694 -0.142815 0.852333 0.522983 0.00422848 
0.801749 0.551259 -0.230893 -0.647023 0.745268 -0.161052 -0.618739 0.72508 -0.302361 
-0.806802 0.57401 -0.139941 0.966882 0.248342 0.058869 -0.845759 0.522239 -0.109354 
-0.786066 0.54965 -0.282817 0.979917 0.158564 0.120914 -0.923746 0.369918 -0.0992684 
0.975829 0.138244 0.169254 -0.963528 0.264082 -0.0432851 -0.968394 0.247087 -0.0340719 
0.972523 0.0622402 0.224333 -0.985402 0.169965 0.00969778 -0.918726 0.196987 -0.342254 
0.946892 -0.0509444 0.31749 -0.998859 -0.00824527 0.0470432 0.883863 -0.213092 0.416387 
-0.970989 -0.233779 0.0502882 -0.930092 -0.357913 0.0826292 -0.923178 -0.192725 -0.332566 
0.781864 -0.354684 0.512726 0.663616 -0.483153 0.571119 -0.85453 -0.496493 0.152556 
0.643324 -0.494647 0.584345 0.690685 -0.505597 0.517036 -0.720175 -0.658655 0.217996 
-0.710602 -0.667267 0.223158 0.448868 -0.60528 0.657384 0.443887 -0.605905 0.660184 
0.387717 -0.606303 0.694315 -0.414471 -0.80946 0.415918 -0.558787 -0.765591 0.318792 
-0.555369 -0.767467 0.320249 0.416076 -0.683 0.600327 0.475079 -0.823585 0.309852 
0.397527 -0.717509 0.571973 0.339319 -0.796641 0.500226 0.118961 -0.924202 0.362902 
-0.143833 -0.933138 0.329493 -0.288252 -0.881923 0.372992 -0.251165 -0.856452 0.451005 
-0.29394 -0.871389 0.392785 -0.276154 -0.87732 0.39249 0.16255 0.789695 -0.591573 
-0.180647 0.750084 -0.636193 -0.440561 0.647731 -0.621571 0.350467 0.842952 -0.408173 
-0.0987799 0.913037 -0.395735 -0.232618 0.914228 -0.331776 -0.16685 0.870207 -0.463574 
0.252951 0.73085 -0.633935 0.548123 0.685401 -0.47936 0.549184 0.684873 -0.478901 
0.11394 0.693567 -0.711324 -0.208567 0.659935 -0.721794 -0.440895 0.645146 -0.624017 
-0.440255 0.638473 -0.63129 -0.442761 0.647399 -0.620352 0.718452 0.57282 -0.394594 
0.792929 0.482046 -0.372687 0.361361 0.61852 -0.697748 -0.237608 0.84632 -0.476744 
0.238896 0.732297 -0.637706 0.499523 0.60754 -0.617553 -0.372279 0.528966 -0.762629 
-0.510362 0.624691 -0.591009 -0.414086 0.601227 -0.683417 -0.558827 0.597972 -0.574579 
0.89024 0.303588 -0.339568 0.812616 0.314159 -0.490876 -0.613975 0.541006 -0.574758 
-0.495485 0.490282 -0.71702 -0.709382 0.441555 -0.549369 0.93792 0.23844 -0.251896 
0.750218 0.241055 -0.615683 -0.768395 0.354102 -0.533086 -0.701675 0.364934 -0.611944 
0.961469 0.190525 -0.198187 -0.802273 0.299714 -0.516266 -0.669667 0.291179 -0.683199 
0.982861 0.0862525 -0.162928 -0.877178 0.200657 -0.436229 -0.898716 0.114286 -0.423376 
0.990592 0.0192023 -0.135498 -0.912813 0.0171956 -0.408016 -0.91395 -0.136377 -0.382226 
-0.897653 0.0205624 -0.440224 0.985436 -0.138525 -0.098628 -0.909766 -0.184906 -0.371666 
0.95552 -0.285887 -0.0724579 -0.863025 -0.398576 -0.310364 -0.696991 -0.310431 -0.646403 
0.881732 -0.47152 0.0147402 0.811982 -0.578328 0.0788788 -0.770921 -0.597054 -0.221829 
-0.766126 -0.604252 -0.218931 -0.763948 -0.593604 -0.253018 0.720623 -0.684413 0.110821 
0.582598 -0.802897 0.126235 -0.463785 -0.879015 -0.110618 -0.674421 -0.722519 -0.152063 
-0.652163 -0.744281 -0.143979 -0.649485 -0.713475 -0.262914 0.489138 -0.858397 0.154592 
0.45476 -0.877355 0.153108 0.394921 -0.854037 -0.338613 0.341257 -0.937735 0.0647781 
0.21355 -0.975336 -0.0558248 0.041496 -0.989841 -0.135989 -0.149303 -0.975239 -0.16315 
-0.231503 -0.961479 -0.148203 -0.262343 -0.959094 -0.106367 -0.195136 -0.760748 -0.619019 
-0.382339 -0.916715 -0.115977 -0.306845 -0.943138 -0.127817 -0.286542 -0.895538 -0.340448 
0.0770898 0.77669 -0.625148 -0.208558 0.802896 -0.558445 0.0920387 0.64438 -0.759146 
-0.235718 0.572095 -0.785586 0.169803 0.724311 -0.668236 0.388311 0.544777 -0.743258 
0.0838332 0.764992 -0.63856 -0.221393 0.799976 -0.557696 -0.201789 0.788364 -0.581174 
-0.280028 0.812996 -0.510511 0.115888 0.848268 -0.516731 0.468412 0.612006 -0.637212 
0.490481 0.612255 -0.620139 0.0708769 0.612589 -0.787217 -0.3254 0.523884 -0.787186 
-0.255448 0.519457 -0.81542 -0.354614 0.500507 -0.789773 -0.350459 0.488625 -0.799015 
0.631511 0.33711 -0.698249 0.472248 0.352991 -0.8077 0.248032 0.359888 -0.899423 
-0.101781 0.72026 -0.686197 0.0580322 0.824795 -0.562446 -0.315603 0.364905 -0.875922 
-0.33018 0.426344 -0.842147 -0.367867 0.474125 -0.799924 -0.34914 0.474982 -0.807771 
-0.468353 0.348253 -0.812013 0.744 0.241031 -0.623192 0.745161 0.239137 -0.622535 
0.419566 0.182824 -0.889123 -0.300447 0.220226 -0.928026 -0.337747 0.309122 -0.889028 
-0.477778 0.337623 -0.811011 -0.465493 0.336293 -0.818672 0.7484 0.198137 -0.632961 
0.669936 0.173885 -0.721769 0.350812 0.0726264 -0.933625 -0.168671 0.11001 -0.979514 
-0.23544 0.238371 -0.942203 -0.566291 0.28636 -0.77286 -0.434692 0.278061 -0.856577 
-0.626674 0.234901 -0.743035 0.779867 0.100047 -0.617898 0.614748 0.0762495 -0.785029 
0.275854 0.0122951 -0.961121 -0.0515528 -0.213169 -0.975654 -0.388099 0.237687 -0.89044 
-0.638348 0.213447 -0.739562 -0.61689 0.217088 -0.756518 0.760611 -0.00595094 -0.64918 
0.567219 -0.0441477 -0.822383 0.249166 -0.060571 -0.966565 0.0630081 -0.0626552 -0.996044 
-0.0316423 -0.0732093 -0.996814 0.026334 -0.1513 -0.988137 0.00946734 -0.193029 -0.981147 
-0.365878 0.0964933 -0.925647 -0.70719 0.0605068 -0.70443 -0.649833 0.0663308 -0.757177 
0.708581 -0.111903 -0.6967 0.558547 -0.0488942 -0.82803 0.277561 -0.0317378 -0.960184 
0.0823075 -0.00424978 -0.996598 -0.051232 0.0272892 -0.998314 -0.157749 -0.00117038 -0.987478 
-0.114725 -0.0945774 -0.988885 0.0581775 -0.0500245 -0.997052 0.175995 -0.103463 -0.978939 
0.212191 -0.100885 -0.972007 -0.378315 -0.103968 -0.91982 -0.716478 -0.123006 -0.686679 
-0.686654 -0.273362 -0.673631 -0.657317 -0.122488 -0.743593 0.776253 -0.180554 -0.604012 
0.676448 -0.133542 -0.724282 0.27176 -0.033839 -0.96177 0.107341 -0.0151595 -0.994107 
-0.119007 0.0565089 -0.991284 -0.090012 0.113543 -0.989447 0.0125515 0.101113 -0.994796 
0.074592 0.0348562 -0.996605 0.0998832 -0.0365328 -0.994328 -0.146116 -0.216522 -0.965281 
-0.67396 -0.304806 -0.672957 -0.394349 -0.302188 -0.867855 0.789248 -0.306572 -0.532072 
0.788315 -0.310621 -0.531106 0.786942 -0.306386 -0.535584 0.400775 -0.182289 -0.897859 
0.175953 -0.116789 -0.977446 -0.108652 -0.0506223 -0.99279 -0.0689391 -0.0195152 -0.99743 
-0.0211203 -0.0307229 -0.999305 0.0426237 -0.0848463 -0.995482 -0.00450192 -0.119314 -0.992846 
-0.097966 -0.254953 -0.961978 -0.252308 -0.36218 -0.89731 -0.563252 -0.465344 -0.68279 
-0.533317 -0.512475 -0.673009 -0.496498 -0.441036 -0.747648 0.637877 -0.614254 -0.464548 
0.584826 -0.673642 -0.451869 0.553629 -0.575444 -0.601963 0.370379 -0.819708 -0.436918 
0.214176 -0.367076 -0.905198 0.0415637 -0.350813 -0.935523 -0.0422821 -0.238594 -0.970198 
-0.0679504 -0.21229 -0.974841 -0.0525182 -0.243112 -0.968575 -0.0300013 -0.300729 -0.953238 
-0.176224 -0.699708 -0.692353 -0.0746087 -0.405848 -0.91089 -0.237774 -0.708549 -0.664396 
-0.216342 -0.452752 -0.864992 -0.426195 -0.584384 -0.690546 -0.385377 -0.60418 -0.697461 
-0.366812 -0.561261 -0.741913 0.350259 -0.820971 -0.450915 0.20005 -0.797599 -0.569049 
0.16547 -0.707327 -0.687247 0.104264 -0.751175 -0.651816 0.0674165 -0.5952 -0.800745 
-0.0177119 -0.718856 -0.694933 -0.0514718 -0.516601 -0.854678 -0.148661 -0.655905 -0.74006 
-0.131491 -0.531862 -0.83656 -0.178273 -0.698534 -0.693014 -0.174942 -0.680571 -0.711491 
-0.159904 -0.639282 -0.752163 0.0504964 0.501982 -0.863403 0.150316 0.527039 -0.836442 
-0.0617351 0.462354 -0.884544 0.0694733 0.486567 -0.870877 0.262396 0.193425 -0.945376 
0.0310828 0.536916 -0.843063 0.0556801 0.495858 -0.866617 -0.0629149 0.658585 -0.749872 
0.131229 0.562331 -0.816433 0.0291324 0.720281 -0.693071 0.140961 0.518656 -0.843283 
-0.190851 0.392539 -0.899716 -0.0766955 0.407443 -0.910004 -0.30827 0.245473 -0.919083 
0.298328 0.13564 -0.944776 0.261354 0.119691 -0.957793 0.184819 0.0912284 -0.978529 
0.100256 0.169989 -0.980333 -0.0236821 0.25668 -0.966206 -0.0550098 0.112841 -0.992089 
-0.123699 0.0900382 -0.988227 -0.298156 0.162856 -0.940522 -0.292783 0.125186 -0.947949 
0.242378 0.0152255 -0.970062 0.191044 -0.00622079 -0.981562 0.142625 -0.110175 -0.983626 
0.127263 -0.15033 -0.980411 -0.0437076 -0.0881265 -0.99515 -0.0519728 -0.21313 -0.975641 
-0.0736175 -0.205092 -0.97597 -0.0813372 -0.0917945 -0.992451 -0.181543 0.0534597 -0.981929 
-0.204826 -0.0448579 -0.97777 -0.071931 0.139838 -0.987558 -0.153268 0.200136 -0.967706 
0.169091 -0.021904 -0.985357 0.0636628 -0.0623525 -0.996022 0.0952853 -0.0440579 -0.994475 
-0.0229941 -0.0795613 -0.996565 0.0379991 -0.122233 -0.991774 0.0571051 -0.172212 -0.983403 
0.114179 -0.215674 -0.969767 -0.0519588 -0.213259 -0.975613 -0.0791282 -0.20464 -0.975634 
-0.0501356 -0.211771 -0.976032 0.0239134 -0.135803 -0.990447 -0.083792 -0.0142593 -0.996381 
-0.022402 0.155484 -0.987584 -0.157546 0.20009 -0.967028 -0.150412 0.198653 -0.968459 
-0.00698896 -0.272532 -0.962121 -0.0261476 -0.3173 -0.947964 -0.0463589 -0.335063 -0.941055 
-0.037773 -0.361627 -0.931557 0.0878462 -0.223022 -0.970847 0.132406 -0.213347 -0.967963 
0.120303 -0.234178 -0.964722 0.198266 -0.0933554 -0.975692 0.0847084 -0.0328144 -0.995865 
0.0426807 0.0626053 -0.997125 -0.311966 0.091002 -0.945725 -0.130276 0.0714287 -0.988901 
-0.0382456 0.0490873 -0.998062 0.20362 -0.101003 -0.973826 0.0844632 -0.0988294 -0.991513 
-0.286816 -0.105492 -0.95216 -0.140592 -0.194256 -0.970824 -0.11971 -0.103728 -0.987375 
0.081968 -0.000197874 -0.996635 -0.0621811 0.0629379 -0.996078 -0.0297175 0.0672624 -0.997293 
0.048423 -0.14975 -0.987537 -0.0477836 -0.197241 -0.97919 0.0165959 -0.191839 -0.981286 
0.0333093 -0.181381 -0.982849 0.0998595 -0.105175 -0.989427 -0.0659581 -0.0652123 -0.995689 
0.0282745 -0.182914 -0.982722 0.0207737 -0.0942902 -0.995328 
