# vtk DataFile Version 4.2
vtk output
ASCII
DATASET POLYDATA
POINTS 544 float
-25.9393 -46.263 -13.9697 -17.3718 -46.263 -16.0265 -8.80437 -46.263 -16.2384 
-0.236923 -46.263 -16.4376 8.33053 -46.263 -16.6427 16.898 -46.263 -15.6423 
25.4654 -46.263 -13.7214 -43.0742 -37.6955 -13.66 -34.5067 -37.6955 -16.9614 
-25.9393 -37.6955 -18.6879 -17.3718 -37.6955 -18.6298 -8.80437 -37.6955 -18.9927 
-0.236923 -37.6955 -19.026 8.33053 -37.6955 -18.7422 16.898 -37.6955 -18.5376 
25.4654 -37.6955 -18.0197 34.0329 -37.6955 -16.1294 -51.6416 -29.1281 -13.6863 
-43.0742 -29.1281 -16.9481 -34.5067 -29.1281 -19.8374 -25.9393 -29.1281 -19.7247 
-17.3718 -29.1281 -19.5357 -8.80437 -29.1281 -19.3634 -0.236923 -29.1281 -19.1659 
8.33053 -29.1281 -18.9441 16.898 -29.1281 -18.9965 25.4654 -29.1281 -19.0172 
34.0329 -29.1281 -19.0561 42.6003 -29.1281 -16.5841 -60.2091 -20.5606 -12.9619 
-51.6416 -20.5606 -16.606 -43.0742 -20.5606 -19.3691 -34.5067 -20.5606 -19.4704 
-25.9393 -20.5606 -19.431 -17.3718 -20.5606 -18.8794 -8.80437 -20.5606 -18.322 
-0.236923 -20.5606 -17.9007 8.33053 -20.5606 -18.1101 16.898 -20.5606 -18.4407 
25.4654 -20.5606 -19.0351 34.0329 -20.5606 -19.0343 42.6003 -20.5606 -18.2192 
51.1678 -20.5606 -16.4839 -60.2091 -11.9932 -13.4299 -51.6416 -11.9932 -17.3054 
-43.0742 -11.9932 -19.2901 -34.5067 -11.9932 -19.7204 -25.9393 -11.9932 -18.9362 
-17.3718 -11.9932 -17.5459 -8.80437 -11.9932 -17.0379 -0.236923 -11.9932 -17.5855 
8.33053 -11.9932 -18.7686 16.898 -11.9932 -17.7035 25.4654 -11.9932 -18.4794 
34.0329 -11.9932 -19.1808 42.6003 -11.9932 -19.0599 51.1678 -11.9932 -17.3532 
59.7352 -11.9932 -12.9468 -60.2091 -3.42574 -13.9023 -51.6416 -3.42574 -17.4006 
-43.0742 -3.42574 -19.0316 -34.5067 -3.42574 -19.1363 -25.9393 -3.42574 -18.1579 
-17.3718 -3.42574 -17.0235 -8.80437 -3.42574 -18.8812 -0.236923 -3.42574 -17.4114 
8.33053 -3.42574 -20.9206 16.898 -3.42574 -16.5072 25.4654 -3.42574 -17.2424 
34.0329 -3.42574 -18.6123 42.6003 -3.42574 -18.6638 51.1678 -3.42574 -17.6108 
59.7352 -3.42574 -14.7222 -51.6416 5.14171 -16.91 -43.0742 5.14171 -18.6466 
-34.5067 5.14171 -19.3535 -25.9393 5.14171 -18.2682 -17.3718 5.14171 -17.4129 
-8.80437 5.14171 -17.6487 -0.236923 5.14171 -15.9495 8.33053 5.14171 -17.8349 
16.898 5.14171 -15.4312 25.4654 5.14171 -17.018 34.0329 5.14171 -18.3178 
42.6003 5.14171 -19.0524 51.1678 5.14171 -17.4321 59.7352 5.14171 -15.0164 
-51.6416 13.7092 -14.442 -43.0742 13.7092 -17.2694 -34.5067 13.7092 -18.5304 
-25.9393 13.7092 -18.7649 -17.3718 13.7092 -18.0677 -8.80437 13.7092 -16.1503 
-0.236923 13.7092 -16.9162 8.33053 13.7092 -17.7179 16.898 13.7092 -15.9553 
25.4654 13.7092 -16.6496 34.0329 13.7092 -17.5512 42.6003 13.7092 -18.149 
51.1678 13.7092 -17.2444 59.7352 13.7092 -13.5964 -43.0742 22.2766 -15.3956 
-34.5067 22.2766 -17.7372 -25.9393 22.2766 -19.0013 -17.3718 22.2766 -18.4611 
-8.80437 22.2766 -16.22 -0.236923 22.2766 -15.3436 8.33053 22.2766 -16.9487 
16.898 22.2766 -16.3003 25.4654 22.2766 -15.8265 34.0329 22.2766 -16.3714 
42.6003 22.2766 -15.8688 51.1678 22.2766 -14.7837 59.7352 22.2766 -12.7167 
-43.0742 30.8441 -13.2302 -34.5067 30.8441 -16.5064 -25.9393 30.8441 -18.0971 
-17.3718 30.8441 -17.0728 -8.80437 30.8441 -14.4222 -0.236923 30.8441 -13.2292 
8.33053 30.8441 -14.937 16.898 30.8441 -14.7019 25.4654 30.8441 -13.8277 
34.0329 30.8441 -13.6224 -34.5067 39.4115 -13.8255 -25.9393 39.4115 -15.3878 
-17.3718 39.4115 -14.2354 -25.9393 -47.8283 -12.6837 -17.3718 -50.694 -12.6837 
-8.80437 -50.6488 -12.6837 -8.80437 -54.8304 -5.25513 -0.236923 -50.8697 -12.6837 
-0.236923 -54.8304 -4.33928 8.33053 -51.0214 -12.6837 16.898 -50.2428 -12.6837 
25.4654 -47.5537 -12.6837 -43.0742 -38.9496 -12.6837 -29.6724 -46.263 -12.6837 
-34.5067 -44.1193 -12.6837 -34.5067 -46.263 -9.24969 30.5909 -46.263 -12.6837 
34.0329 -44.9523 -12.6837 34.0329 -46.263 -10.6771 -44.8628 -37.6955 -12.6837 
-51.6416 -31.014 -12.6837 41.9348 -37.6955 -12.6837 42.6003 -37.1202 -12.6837 
42.6003 -37.6955 -12.1221 -53.1139 -29.1281 -12.6837 -60.2091 -21.141 -12.6837 
50.3709 -29.1281 -12.6837 51.1678 -28.0647 -12.6837 51.1678 -29.1281 -11.9176 
-60.5201 -20.5606 -12.6837 58.0272 -20.5606 -12.6837 59.7352 -13.89 -12.6837 
59.7352 -20.5606 -10.7604 -61.1596 -11.9932 -12.6837 60.0865 -11.9932 -12.6837 
-61.8466 -3.42574 -12.6837 -68.7765 -3.42574 -5.31041 -60.2091 3.0493 -12.6837 
62.8413 -3.42574 -12.6837 68.3027 -3.42574 -6.58377 -59.6584 5.14171 -12.6837 
-60.2091 5.14171 -12.2546 63.9712 5.14171 -12.6837 68.3027 5.14171 -8.82232 
-54.7735 13.7092 -12.6837 -60.2091 13.7092 -9.03368 -51.6416 18.1273 -12.6837 
61.3188 13.7092 -12.6837 68.3027 13.7092 -6.70122 -48.7556 22.2766 -12.6837 
-51.6416 22.2766 -10.6942 42.6003 29.9622 -12.6837 51.1678 28.1036 -12.6837 
59.7877 22.2766 -12.6837 59.7352 22.3373 -12.6837 -43.7651 30.8441 -12.6837 
-51.6416 30.8441 -4.67414 -43.0742 31.8665 -12.6837 -8.80437 36.2903 -12.6837 
-0.236923 32.2745 -12.6837 8.33053 35.3626 -12.6837 16.898 36.1196 -12.6837 
25.4654 33.5229 -12.6837 40.1896 30.8441 -12.6837 34.0329 33.1644 -12.6837 
42.6003 30.8441 -12.2926 51.1678 30.8441 -11.4932 59.7352 30.8441 -5.39862 
-36.3732 39.4115 -12.6837 -43.0742 39.4115 -7.20973 -34.5067 41.0544 -12.6837 
-25.9393 43.6316 -12.6837 -12.2484 39.4115 -12.6837 -17.3718 42.0128 -12.6837 
-8.80437 39.4115 -11.5544 -0.236923 39.4115 -9.70855 8.33053 39.4115 -10.4404 
16.898 39.4115 -11.1558 25.4654 39.4115 -9.69166 34.0329 39.4115 -8.48527 
42.6003 39.4115 -5.57492 -34.5067 47.979 -6.07128 -25.9393 47.979 -8.92902 
-17.3718 47.979 -7.56054 -8.80437 47.979 -4.57965 -8.80437 -55.2659 -4.11629 
-0.236923 -54.9035 -4.11629 -34.5067 -48.6774 -4.11629 -25.9393 -52.0407 -4.11629 
-11.8891 -54.8304 -4.11629 -17.3718 -54.0564 -4.11629 -8.80437 -54.8304 -2.31796 
0.917443 -54.8304 -4.11629 -0.236923 -54.8304 -3.83939 8.33053 -54.3594 -4.11629 
16.898 -53.7397 -4.11629 25.4654 -51.9172 -4.11629 34.0329 -48.4355 -4.11629 
-38.9138 -46.263 -4.11629 -43.0742 -43.7889 -4.11629 -34.5067 -46.263 2.56817 
37.5791 -46.263 -4.11629 42.6003 -42.746 -4.11629 -50.9914 -37.6955 -4.11629 
-51.6416 -37.1203 -4.11629 48.4841 -37.6955 -4.11629 51.1678 -35.0437 -4.11629 
-59.0704 -29.1281 -4.11629 -60.2091 -27.5413 -4.11629 56.5358 -29.1281 -4.11629 
59.7352 -24.8446 -4.11629 -64.449 -20.5606 -4.11629 62.6492 -20.5606 -4.11629 
-67.7295 -11.9932 -4.11629 -68.7765 -6.6954 -4.11629 66.739 -11.9932 -4.11629 
68.3027 -7.37321 -4.11629 -69.4342 -3.42574 -4.11629 -68.7765 -0.0435921 -4.11629 
-68.7765 -3.42574 0.533088 69.5583 -3.42574 -4.11629 68.3027 -3.42574 4.25542 
-67.5225 5.14171 -4.11629 70.7507 5.14171 -4.11629 -64.7578 13.7092 -4.11629 
-60.2091 20.58 -4.11629 69.8586 13.7092 -4.11629 68.3027 20.7538 -4.11629 
-58.8657 22.2766 -4.11629 -60.2091 22.2766 0.512957 67.884 22.2766 -4.11629 
-52.0778 30.8441 -4.11629 -51.6416 31.4841 -4.11629 51.1678 37.2805 -4.11629 
60.8215 30.8441 -4.11629 59.7352 31.8676 -4.11629 -45.6252 39.4115 -4.11629 
-43.0742 42.5101 -4.11629 -0.236923 46.7401 -4.11629 8.33053 47.0781 -4.11629 
16.898 47.0789 -4.11629 25.4654 45.2682 -4.11629 34.0329 42.6187 -4.11629 
45.695 39.4115 -4.11629 42.6003 40.5236 -4.11629 -36.7185 47.979 -4.11629 
-34.5067 49.3183 -4.11629 -25.9393 51.3944 -4.11629 -17.3718 50.3517 -4.11629 
-6.52622 47.979 -4.11629 -8.80437 48.3515 -4.11629 -0.236923 47.979 -2.2992 
8.33053 47.979 -2.40232 16.898 47.979 -1.67062 -25.9393 -48.8447 4.45116 
-17.3718 -51.475 4.45116 -8.80437 -52.7224 4.45116 -0.236923 -52.1067 4.45116 
8.33053 -51.5596 4.45116 16.898 -51.0768 4.45116 25.4654 -49.3151 4.45116 
34.0329 -46.3927 4.45116 -43.0742 -40.0601 4.45116 -32.5398 -46.263 4.45116 
-34.5067 -45.2521 4.45116 -25.9393 -46.263 7.49402 -17.3718 -46.263 9.46797 
-8.80437 -46.263 10.5873 -0.236923 -46.263 10.4846 8.33053 -46.263 10.1127 
16.898 -46.263 9.77396 25.4654 -46.263 8.1886 34.2443 -46.263 4.45116 
34.0329 -46.263 4.63303 42.6003 -40.3691 4.45116 -46.1406 -37.6955 4.45116 
-51.6416 -33.2473 4.45116 -43.0742 -37.6955 6.53802 -34.5067 -37.6955 9.59005 
-25.9393 -37.6955 12.1225 34.0329 -37.6955 11.3064 45.6369 -37.6955 4.45116 
42.6003 -37.6955 7.46475 51.1678 -32.0636 4.45116 -55.5659 -29.1281 4.45116 
-60.2091 -23.1663 4.45116 -51.6416 -29.1281 7.65482 -43.0742 -29.1281 10.4668 
42.6003 -29.1281 11.7919 53.8682 -29.1281 4.45116 51.1678 -29.1281 7.26159 
59.7352 -21.0875 4.45116 -61.9657 -20.5606 4.45116 -60.2091 -20.5606 6.30359 
-51.6416 -20.5606 10.7247 51.1678 -20.5606 11.2204 60.0929 -20.5606 4.45116 
59.7352 -20.5606 4.87925 -65.917 -11.9932 4.45116 -60.2091 -11.9932 11.6714 
64.2941 -11.9932 4.45116 59.7352 -11.9932 9.68091 -68.0421 -3.42574 4.45116 
68.2612 -3.42574 4.45116 59.7352 -3.42574 11.9587 68.3027 -3.18505 4.45116 
-68.176 5.14171 4.45116 69.3314 5.14171 4.45116 68.3027 5.14171 5.89235 
-65.9884 13.7092 4.45116 -60.2091 13.7092 12.9526 59.7352 13.7092 12.6762 
69.1275 13.7092 4.45116 68.3027 20.5248 4.45116 68.3027 13.7092 5.59981 
-61.0088 22.2766 4.45116 -60.2091 23.3695 4.45116 -60.2091 22.2766 6.65719 
67.9699 22.2766 4.45116 -54.5692 30.8441 4.45116 -51.6416 34.6409 4.45116 
-51.6416 30.8441 11.0088 51.1678 38.6791 4.45116 51.1678 30.8441 12.4257 
61.1889 30.8441 4.45116 59.7352 32.3571 4.45116 59.7352 30.8441 6.39335 
-47.6247 39.4115 4.45116 -43.0742 44.6817 4.45116 -43.0742 39.4115 11.9035 
25.4654 47.812 4.45116 34.0329 45.5017 4.45116 49.7676 39.4115 4.45116 
42.6003 42.3734 4.45116 42.6003 39.4115 11.1867 -39.0502 47.979 4.45116 
-34.5067 50.8574 4.45116 -34.5067 47.979 9.52679 -25.9393 53.4235 4.45116 
-17.3718 53.3591 4.45116 -8.80437 52.7395 4.45116 -0.236923 51.1155 4.45116 
8.33053 50.5303 4.45116 8.33053 47.979 12.1834 24.7431 47.979 4.45116 
16.898 49.6928 4.45116 16.898 47.979 8.27773 -17.3718 -38.9088 13.0186 
-8.80437 -41.2677 13.0186 -0.236923 -41.7521 13.0186 8.33053 -41.745 13.0186 
16.898 -41.5039 13.0186 25.4654 -40.1904 13.0186 -34.5067 -29.595 13.0186 
-20.6382 -37.6955 13.0186 -25.9393 -34.5067 13.0186 -17.3718 -37.6955 13.5151 
[...]
POINT_DATA 544
SCALARS ImageScalars float
LOOKUP_TABLE default
0 0 0 0 0 0 0 0 0 
0 0 0 0 0 0 0 0 0 
0 0 0 0 0 0 0 0 0 
0 0 0 0 0 0 0 0 0 
0 0 0 0 0 0 0 0 0 
0 0 0 0 0 0 0 0 0 
0 0 0 0 0 0 0 0 0 
0 0 0 0 0 0 0 0 0 
0 0 0 0 0 0 0 0 0 
0 0 0 0 0 0 0 0 0 
0 0 0 0 0 0 0 0 0 
0 0 0 0 0 0 0 0 0 
0 0 0 0 0 0 0 0 0 
0 0 0 0 0 0 0 0 0 
0 0 0 0 0 0 0 0 0 
0 0 0 0 0 0 0 0 0 
0 0 0 0 0 0 0 0 0 
0 0 0 0 0 0 0 0 0 
0 0 0 0 0 0 0 0 0 
0 0 0 0 0 0 0 0 0 
0 0 0 0 0 0 0 0 0 
0 0 0 0 0 0 0 0 0 
0 0 0 0 0 0 0 0 0 
0 0 0 0 0 0 0 0 0 
0 0 0 0 0 0 0 0 0 
0 0 0 0 0 0 0 0 0 
0 0 0 0 0 0 0 0 0 
0 0 0 0 0 0 0 0 0 
0 0 0 0 0 0 0 0 0 
0 0 0 0 0 0 0 0 0 
0 0 0 0 0 0 0 0 0 
0 0 0 0 0 0 0 0 0 
0 0 0 0 0 0 0 0 0 
0 0 0 0 0 0 0 0 0 
0 0 0 0 0 0 0 0 0 
0 0 0 0 0 0 0 0 0 
0 0 0 0 0 0 0 0 0 
0 0 0 0 0 0 0 0 0 
0 0 0 0 0 0 0 0 0 
0 0 0 0 0 0 0 0 0 
0 0 0 0 0 0 0 0 0 
0 0 0 0 0 0 0 0 0 
0 0 0 0 0 0 0 0 0 
0 0 0 0 0 0 0 0 0 
0 0 0 0 0 0 0 0 0 
0 0 0 0 0 0 0 0 0 
0 0 0 0 0 0 0 0 0 
0 0 0 0 0 0 0 0 0 
0 0 0 0 0 0 0 0 0 
0 0 0 0 0 0 0 0 0 
0 0 0 0 0 0 0 0 0 
0 0 0 0 0 0 0 0 0 
0 0 0 0 0 0 0 0 0 
0 0 0 0 0 0 0 0 0 
0 0 0 0 0 0 0 0 0 
0 0 0 0 0 0 0 0 0 
0 0 0 0 0 0 0 0 0 
0 0 0 0 0 0 0 0 0 
0 0 0 0 0 0 0 0 0 
0 0 0 0 0 0 0 0 0 
0 0 0 0 
NORMALS Normals float
-0.257346 -0.611483 -0.748239 -0.121729 -0.489764 -0.863315 -0.0234636 -0.489698 -0.871576 
-0.0234694 -0.482882 -0.875371 0.0480804 -0.472153 -0.880204 0.162908 -0.518948 -0.839139 
0.20227 -0.59667 -0.776577 -0.448379 -0.516874 -0.729244 -0.228084 -0.40485 -0.88548 
-0.0963869 -0.292451 -0.951411 -0.0176666 -0.195366 -0.980571 -0.0227808 -0.157309 -0.987287 
0.0146078 -0.139503 -0.990114 0.0292287 -0.130634 -0.991 0.037097 -0.179084 -0.983134 
0.149585 -0.294082 -0.944002 0.262006 -0.36349 -0.893995 -0.487891 -0.424003 -0.76301 
-0.296774 -0.266932 -0.916882 -0.142938 -0.142757 -0.979382 0.0173548 -0.0369753 -0.999165 
0.0208235 -0.0132922 -0.999695 0.0215581 0.0365635 -0.999099 0.0244127 0.0614444 -0.997812 
0.00988066 0.0370798 -0.999263 -0.00425012 0.00342835 -0.999985 -0.00329484 -0.0528132 -0.998599 
0.142348 -0.164378 -0.976072 0.318186 -0.266476 -0.909807 -0.653586 -0.254201 -0.712887 
-0.338159 -0.161469 -0.927134 -0.180488 -0.132277 -0.974642 -0.00304982 0.00479508 -0.999984 
0.0342492 0.0455405 -0.998375 0.0638609 0.113278 -0.991509 0.0565272 0.138333 -0.988771 
0.0113861 0.0933372 -0.995569 -0.0311654 0.0144536 -0.99941 -0.0548162 0.0764573 -0.995565 
-0.0346031 0.0313131 -0.99891 0.0453597 -0.00744762 -0.998943 0.127314 -0.148522 -0.980679 
0.360863 -0.256028 -0.896787 -0.537585 -0.049911 -0.841731 -0.302751 -0.0463636 -0.951941 
-0.127822 0.018354 -0.991627 0.0184016 0.0196094 -0.999638 0.122111 0.0740901 -0.989747 
0.11349 0.109973 -0.987434 -0.00147251 -0.0223514 -0.999749 -0.100746 0.0272125 -0.99454 
-0.00186603 -0.160688 -0.987004 0.0105643 0.110213 -0.993852 -0.0853252 0.0978012 -0.991542 
-0.0340935 0.0247206 -0.999113 0.114041 -0.023197 -0.993205 0.286831 -0.051588 -0.956591 
0.593275 -0.150993 -0.790712 -0.506788 0.060239 -0.859963 -0.255534 0.0250234 -0.966476 
-0.0944664 0.0395729 -0.994741 0.0523295 0.0220633 -0.998386 0.123956 0.0395759 -0.991498 
-0.0280438 0.00610951 -0.999588 -0.0422812 -0.0478337 -0.99796 -0.121891 0.101864 -0.987303 
0.0900051 0.0689698 -0.99355 0.193916 0.141166 -0.970808 -0.12494 0.088171 -0.988239 
-0.0768594 0.0507347 -0.99575 0.0570242 -3.2475e-05 -0.998373 0.201941 -0.005932 -0.97938 
0.465749 -0.0986463 -0.879401 -0.317888 0.137112 -0.938162 -0.142762 0.0945705 -0.985229 
0.0200546 0.0348588 -0.999191 0.113864 -0.0357523 -0.992853 0.0375178 -0.0602268 -0.997479 
0.078053 0.156503 -0.984589 -0.0211822 0.0175127 -0.999622 0.04352 0.165684 -0.985218 
0.0459909 0.0297119 -0.9985 -0.168631 0.0336951 -0.985103 -0.116811 0.0612833 -0.991262 
0.0483546 0.0269784 -0.998466 0.20308 0.0216485 -0.978923 0.406527 0.0592927 -0.911713 
-0.384988 0.31828 -0.866304 -0.205984 0.190797 -0.959775 -0.0827517 0.0944495 -0.992084 
0.0269685 -0.0432422 -0.998701 0.149291 -0.0610266 -0.986908 0.0716584 0.0754268 -0.994573 
-0.0962555 0.0367055 -0.99468 0.0611591 0.052536 -0.996744 0.0619658 -0.050201 -0.996815 
-0.0931948 0.0680954 -0.993317 -0.085446 0.109372 -0.990322 0.0234173 0.180502 -0.983296 
0.220786 0.128227 -0.966856 0.471278 0.121945 -0.873514 -0.345151 0.205928 -0.915677 
-0.204531 0.110903 -0.972557 -0.0415017 0.0365546 -0.99847 0.15025 0.0544179 -0.987149 
0.184433 0.100075 -0.977737 -0.0499446 0.209445 -0.976544 -0.0478327 0.155166 -0.98673 
0.0644644 0.07177 -0.995336 -0.00283047 0.158865 -0.987296 -0.00278425 0.227361 -0.973806 
0.0820042 0.300236 -0.950333 0.196146 0.342757 -0.918719 0.415048 0.313245 -0.854174 
-0.50833 0.344881 -0.789087 -0.250661 0.200932 -0.946993 -0.0288584 0.199615 -0.979449 
0.207996 0.233844 -0.949766 0.214349 0.24361 -0.94589 -0.0284563 0.294644 -0.955183 
-0.083777 0.340991 -0.936326 0.0610735 0.270982 -0.960645 0.0613358 0.303033 -0.951004 
0.0798558 0.361014 -0.929135 -0.343938 0.444811 -0.826952 -0.00972557 0.441215 -0.897349 
0.208226 0.431973 -0.87752 -0.279988 -0.672732 -0.684864 -0.127158 -0.73981 -0.66069 
-0.00790784 -0.715584 -0.698481 -0.0451369 -0.990548 -0.129526 -0.0178787 -0.742167 -0.669977 
0.0517195 -0.997728 -0.0431646 0.0281867 -0.770693 -0.636583 0.158754 -0.729919 -0.664843 
0.225753 -0.654923 -0.721188 -0.469887 -0.571622 -0.672648 -0.30121 -0.680234 -0.668247 
-0.31818 -0.678866 -0.661741 -0.392458 -0.83843 -0.378169 0.316709 -0.675895 -0.665478 
0.375504 -0.66703 -0.643481 0.422524 -0.772716 -0.473692 -0.493155 -0.553345 -0.671273 
-0.517207 -0.479219 -0.709117 0.481659 -0.565433 -0.669545 0.48721 -0.562096 -0.668337 
0.509772 -0.596313 -0.620115 -0.525785 -0.456886 -0.717499 -0.662345 -0.273413 -0.697527 
0.564068 -0.449205 -0.692851 0.563093 -0.450466 -0.692825 0.60708 -0.485344 -0.629202 
-0.670558 -0.256697 -0.696031 0.620141 -0.348217 -0.702972 0.617271 -0.192858 -0.762747 
0.733658 -0.401888 -0.547934 -0.58657 -0.0581012 -0.807812 0.608583 -0.156831 -0.777838 
-0.589928 0.0584321 -0.805339 -0.963237 0.00612543 -0.268584 -0.584053 0.165916 -0.794578 
0.575581 -0.128124 -0.807645 0.916087 -0.218388 -0.33629 -0.584346 0.197666 -0.787063 
-0.610611 0.204131 -0.765169 0.544146 0.0408756 -0.837995 0.850934 0.0061828 -0.525236 
-0.462141 0.349844 -0.814884 -0.646653 0.389156 -0.656047 -0.467781 0.367487 -0.803825 
0.533154 0.130882 -0.835833 0.90033 0.193058 -0.390043 -0.478611 0.334581 -0.81178 
-0.557488 0.419902 -0.716163 0.103419 0.45309 -0.885446 0.233665 0.475474 -0.84813 
0.417029 0.314374 -0.852793 0.416621 0.315273 -0.85266 -0.524093 0.355285 -0.774015 
-0.746134 0.494416 -0.445912 -0.51897 0.36475 -0.773063 0.226478 0.343464 -0.91145 
-0.0142856 0.320483 -0.947146 -0.0848554 0.453118 -0.887403 0.0406755 0.414318 -0.909223 
0.0661573 0.377595 -0.923605 0.0994278 0.43899 -0.892974 0.103694 0.427697 -0.897955 
0.10732 0.478132 -0.871706 0.279898 0.556862 -0.782024 0.622879 0.684266 -0.379212 
-0.400596 0.460796 -0.791953 -0.651163 0.552176 -0.520662 -0.344138 0.496879 -0.796668 
-0.030021 0.576521 -0.816531 0.223808 0.422211 -0.878435 0.197262 0.50798 -0.838477 
0.228649 0.428938 -0.873917 0.0542036 0.491603 -0.869131 -0.0736469 0.55198 -0.830598 
0.033053 0.526873 -0.849301 0.118574 0.60428 -0.7879 0.185421 0.699419 -0.690241 
0.267826 0.809895 -0.521861 -0.383081 0.795228 -0.46996 -0.0443792 0.770382 -0.636036 
0.178517 0.761452 -0.623155 0.18375 0.767932 -0.613609 -0.0489643 -0.996584 -0.0665007 
0.0524778 -0.998127 -0.0314454 -0.433078 -0.900833 -0.0307296 -0.294595 -0.95522 -0.0277293 
-0.09633 -0.994054 -0.050765 -0.182116 -0.983062 -0.0205385 -0.0452834 -0.998275 0.0373752 
0.054361 -0.998048 -0.0307542 0.0528928 -0.998456 -0.0169745 0.0676594 -0.997416 -0.024146 
0.14355 -0.989491 -0.0173745 0.291248 -0.955338 -0.0500335 0.466855 -0.883392 -0.0408165 
-0.49482 -0.868949 -0.0090245 -0.554659 -0.832074 0.00250854 -0.422574 -0.798381 0.428975 
0.531296 -0.846079 -0.0432968 0.610297 -0.787887 -0.0822889 -0.660476 -0.750567 0.0205019 
-0.670748 -0.741491 0.0169864 0.686471 -0.72338 -0.0740136 0.719249 -0.69077 -0.0742833 
-0.782442 -0.622164 -0.0263928 -0.80663 -0.59063 -0.0224658 0.774592 -0.625495 -0.0936121 
0.815345 -0.575467 -0.0636357 -0.895246 -0.440046 -0.0699528 0.853663 -0.515701 -0.0728818 
-0.953863 -0.256594 -0.155898 -0.975959 -0.107202 -0.189769 0.923001 -0.36486 -0.122258 
0.946233 -0.288732 -0.145867 -0.977058 -0.00483052 -0.212917 -0.961928 0.0853976 -0.259618 
-0.989594 -0.0564437 0.132352 0.958941 -0.22541 -0.172112 0.868992 -0.24051 0.432444 
-0.912041 0.229561 -0.339828 0.986056 -0.0196962 -0.165245 -0.812501 0.428141 -0.395647 
-0.73226 0.5415 -0.413005 0.954595 0.167666 -0.246244 0.875227 0.379121 -0.300408 
-0.716424 0.560046 -0.416036 -0.795365 0.588017 -0.147074 0.851304 0.424359 -0.308547 
-0.751806 0.50506 -0.423914 -0.752977 0.507016 -0.419476 0.424296 0.809743 -0.405326 
0.643225 0.693565 -0.324389 0.618904 0.718275 -0.317867 -0.712998 0.592433 -0.375043 
-0.679653 0.633615 -0.3696 0.0555166 0.759513 -0.648119 -0.0138492 0.811934 -0.583585 
0.0837547 0.854097 -0.513325 0.213124 0.831888 -0.512386 0.24735 0.835128 -0.491304 
0.317967 0.842092 -0.435636 0.262091 0.861207 -0.435466 -0.47362 0.799451 -0.369543 
-0.393509 0.838031 -0.377961 -0.0447623 0.900345 -0.432869 0.159689 0.86541 -0.474937 
0.147772 0.77955 -0.608658 0.179827 0.779585 -0.599925 0.0743146 0.847987 -0.524781 
0.00951852 0.886949 -0.461769 0.110849 0.936506 -0.332669 -0.304609 -0.779943 0.546719 
-0.185249 -0.830592 0.525166 -0.0291076 -0.858477 0.512026 0.0560004 -0.855325 0.515056 
0.0505404 -0.855578 0.515201 0.115753 -0.856132 0.503627 0.242242 -0.84263 0.48093 
0.430808 -0.788438 0.439056 -0.475398 -0.656345 0.585839 -0.378042 -0.736901 0.560412 
-0.389151 -0.71558 0.580092 -0.282966 -0.66751 0.688739 -0.137566 -0.599289 0.788624 
-0.0512577 -0.572552 0.818265 0.0224894 -0.613326 0.78951 0.0328526 -0.653384 0.756313 
0.0834807 -0.677641 0.730639 0.207375 -0.727014 0.654558 0.434983 -0.786184 0.438981 
0.430472 -0.783856 0.447509 0.567015 -0.690616 0.448937 -0.511913 -0.638997 0.574132 
-0.565765 -0.607747 0.557273 -0.444665 -0.587029 0.676513 -0.283426 -0.457727 0.842707 
-0.223102 -0.328117 0.917913 0.335724 -0.460366 0.821798 0.606459 -0.654606 0.45133 
0.528314 -0.60178 0.598953 0.652427 -0.597787 0.465821 -0.647249 -0.590732 0.481773 
-0.717527 -0.508014 0.476526 -0.430163 -0.517889 0.739426 -0.291025 -0.364142 0.884706 
0.360707 -0.389732 0.847348 0.676081 -0.56766 0.469763 0.597418 -0.525466 0.605786 
0.735419 -0.481048 0.477234 -0.736962 -0.451539 0.50299 -0.65645 -0.431062 0.61908 
-0.368655 -0.32911 0.869356 0.483544 -0.330346 0.810591 0.739142 -0.474705 0.477834 
0.727524 -0.473246 0.496736 -0.833497 -0.311443 0.456384 -0.51409 -0.359819 0.778615 
0.798411 -0.373754 0.472068 0.630826 -0.303138 0.71426 -0.901164 -0.103036 0.421054 
0.862412 -0.239724 0.445846 0.542484 -0.143381 0.82774 0.864116 -0.234511 0.445318 
-0.959143 0.11828 0.257009 0.904828 -0.0510789 0.422703 0.860797 -0.0537618 0.506102 
-0.915114 0.357067 0.187267 -0.709286 0.128884 0.693038 0.517904 -0.0107118 0.855372 
0.916611 0.0814433 0.391398 0.883247 0.324699 0.338298 0.880546 0.0728908 0.468323 
-0.81792 0.571396 0.06719 -0.811805 0.580792 0.0604483 -0.814149 0.546646 0.195807 
0.865858 0.384337 0.320273 -0.799953 0.598444 0.0440426 -0.78204 0.620179 0.0615756 
-0.713316 0.543418 0.44258 0.514434 0.837896 0.182448 0.435591 0.452422 0.778187 
0.717554 0.636795 0.28215 0.689704 0.671702 0.270415 0.67205 0.622217 0.401491 
-0.746457 0.658529 0.0956154 -0.684313 0.722153 0.101047 -0.612247 0.571863 0.546009 
0.242561 0.963885 0.10995 0.304099 0.949254 0.0802467 0.489556 0.858145 0.154665 
0.367032 0.924912 0.09912 0.313371 0.74921 0.58351 -0.569668 0.812817 0.12168 
-0.441827 0.885342 0.144773 -0.409777 0.799771 0.438689 -0.125187 0.990446 0.0578331 
0.0402276 0.997507 -0.0579743 0.132798 0.984562 -0.11403 0.131433 0.984202 -0.118623 
0.0828768 0.995822 -0.0383282 0.198529 0.79508 0.573091 0.234465 0.966239 0.10681 
0.15456 0.985609 0.0684514 0.200497 0.929846 0.308524 -0.123091 -0.318712 0.939825 
-0.0683919 -0.383722 0.920913 -0.0114354 -0.433705 0.900982 0.00737627 -0.479024 0.877771 
0.0506018 -0.485387 0.872834 0.186144 -0.468183 0.863802 -0.213308 -0.281305 0.935611 
-0.159487 -0.296382 0.941659 -0.178622 -0.26453 0.947691 -0.12396 -0.283548 0.950913 
-0.0800642 -0.273789 0.958451 -0.0360627 -0.298876 0.95361 -0.00811478 -0.352886 0.935631 
0.0430638 -0.36379 0.930485 0.252263 -0.412653 0.87526 0.181767 -0.386689 0.90412 
0.290475 -0.3565 0.887993 -0.215329 -0.278805 0.935896 -0.248229 -0.301899 0.920456 
-0.209173 -0.272399 0.939173 -0.116115 -0.177131 0.977314 -0.0864027 -0.105587 0.990649 
-0.0755946 -0.0412579 0.996285 -0.0740338 -0.0970297 0.992524 -0.0484924 -0.139907 0.988977 
0.0455858 -0.115831 0.992222 0.14175 -0.157702 0.97726 0.306071 -0.339235 0.889517 
0.243044 -0.280427 0.928596 0.32466 -0.33678 0.883841 -0.265649 -0.292456 0.91864 
-0.211515 -0.312518 0.926064 -0.229923 -0.282398 0.931336 -0.0900162 -0.185449 0.978522 
-0.0350242 -0.122935 0.991796 0.009228 -0.0922678 0.995691 -0.0756519 -0.0176309 0.996978 
-0.140253 -0.0741866 0.987333 -0.0295767 -0.0136699 0.999469 0.0308661 0.0501807 0.998263 
0.0128171 -0.0533705 0.998493 0.116874 -0.15984 0.9802 0.393844 -0.285875 0.873591 
0.282718 -0.236514 0.929587 0.387327 -0.274962 0.879985 -0.29714 -0.338277 0.892904 
-0.508226 -0.238504 0.82754 -0.183349 -0.308021 0.933545 -0.140954 -0.222911 0.964595 
-0.0578125 -0.200605 0.977965 -0.0274221 -0.150613 0.988212 0.0032633 -0.245555 0.969377 
-0.0533041 -0.291324 0.955138 -0.0531506 -0.0299531 0.998137 0.0915037 -0.00476266 0.995793 
-0.00422113 0.0467662 0.998897 -0.0654147 -0.0249759 0.997546 0.04096 -0.0763606 0.996239 
0.176261 -0.151938 0.972547 0.409915 -0.257303 0.87508 0.329888 -0.240553 0.912857 
-0.582224 -0.0681404 0.810168 -0.521222 -0.0683234 0.850682 -0.241565 -0.194428 0.950707 
-0.130003 -0.215995 0.967701 -0.000331321 -0.199498 0.979898 -0.0713636 -0.190882 0.979015 
-0.134839 -0.184945 0.973455 0.139169 -0.24786 0.958748 0.140134 -0.0668812 0.987871 
0.0472512 -0.0637569 0.996846 0.00488705 -0.0180073 0.999826 -0.112828 -0.0256078 0.993284 
-0.00984059 -0.0626516 0.997987 0.142611 -0.0869087 0.985956 0.474441 -0.135683 0.869768 
0.307377 -0.135387 0.941908 0.508614 -0.039309 0.860097 -0.572611 0.0655802 0.8172 
-0.671504 0.111034 0.732635 -0.563883 0.0636356 0.823399 -0.301027 -0.127096 0.945108 
-0.133957 -0.114984 0.984294 -0.0347055 -0.151827 0.987798 -0.0136013 -0.142295 0.989731 
-0.0664796 0.0190965 0.997605 0.0322309 0.088387 0.995565 0.163155 -0.137564 0.976963 
0.146681 0.0513672 0.987849 0.0340497 -0.0395751 0.998636 -0.112268 -0.0236572 0.993396 
-0.0181405 -0.0186597 0.999661 0.103047 -0.0579239 0.992989 0.274344 -0.0435288 0.960646 
0.50932 -0.0322909 0.859971 0.507793 -0.0287958 0.860998 0.506395 -0.0319457 0.861709 
-0.704996 0.126512 0.697836 -0.324152 0.0425055 0.94505 -0.160235 -0.0511164 0.985754 
-0.0226215 -0.0741097 0.996993 0.090716 -0.0464717 0.994792 0.0939776 0.0180528 0.995411 
0.00306776 0.10158 0.994823 0.106383 0.00936986 0.994281 0.130537 0.024552 0.991139 
-0.0547684 -0.0614667 0.996605 -0.0900991 -0.0481623 0.994768 -0.0479075 0.0226187 0.998596 
0.125912 0.0322631 0.991517 0.496957 -0.0097511 0.86772 0.323424 0.0302445 0.945771 
0.508106 0.0882051 0.856766 -0.656034 0.40083 0.639496 -0.637748 0.48893 0.595168 
-0.492078 0.31163 0.812863 -0.238286 0.139133 0.961177 -0.0229403 0.0905372 0.995629 
0.0784178 0.00918249 0.996878 0.0826453 -0.0383107 0.995842 0.0394543 -0.0596102 0.997442 
0.08031 -0.00699056 0.996745 0.0715371 -0.076493 0.994501 -0.038368 -0.040079 0.99846 
-0.0267387 0.0456312 0.9986 0.062299 0.0985737 0.993178 0.104766 0.182751 0.977561 
0.402889 0.411956 0.817296 0.268306 0.206243 0.940997 0.513952 0.225361 0.827687 
0.502762 0.248163 0.828037 0.493187 0.220203 0.841592 -0.631359 0.497471 0.594902 
-0.568104 0.533621 0.626504 -0.346689 0.353469 0.86883 -0.151951 0.216261 0.964439 
-0.0383198 0.0942906 0.994807 0.0227297 0.0377223 0.99903 0.0327867 0.0147978 0.999353 
0.0831092 0.0338995 0.995964 0.100059 0.028879 0.994562 0.0693003 0.0778667 0.994552 
0.0524152 0.20171 0.978042 0.0903938 0.237539 0.967163 0.399096 0.416804 0.816699 
0.273237 0.604852 0.747995 0.207415 0.288422 0.934768 -0.555611 0.541541 0.630896 
-0.352233 0.64761 0.675672 -0.285107 0.397931 0.871989 -0.111122 0.307366 0.945081 
-0.00288595 0.228121 0.973629 0.0431243 0.23467 0.971118 0.0951689 0.273181 0.957243 
0.204654 0.732373 0.64942 0.116575 0.288635 0.950316 0.208119 0.62394 0.753249 
0.147078 0.339123 0.929174 0.17071 0.594502 0.785764 0.136408 0.448429 0.883348 
0.207422 0.598973 0.773439 0.194606 0.589635 0.783875 0.190492 0.578384 0.793212 
-0.290048 0.674718 0.678696 -0.242761 0.681712 0.69017 -0.227668 0.625176 0.74654 
-0.0616656 0.783713 0.618054 -0.0764859 0.628647 0.77392 0.0976208 0.805724 0.584191 
0.0681479 0.641865 0.763783 0.201425 0.754266 0.624909 0.173351 0.802101 0.571474 
0.171763 0.726882 0.664936 
