# vtk DataFile Version 4.2
vtk output
ASCII
DATASET POLYDATA
POINTS 512 float
-22.8298 23.7687 -18.7598 -22.8298 -46.6248 -10.8953 -15.0083 -46.6248 -13.2097 
-7.18679 -46.6248 -13.2182 0.634706 -46.6248 -12.2744 -30.6513 -38.8033 -13.2453 
-22.8298 -38.8033 -15.2991 -15.0083 -38.8033 -15.8156 -7.18679 -38.8033 -16.3274 
0.634706 -38.8033 -15.4736 8.4562 -38.8033 -13.0714 -38.4728 -30.9818 -13.5412 
-30.6513 -30.9818 -15.5635 -22.8298 -30.9818 -17.2163 -15.0083 -30.9818 -16.6524 
-7.18679 -30.9818 -16.954 0.634706 -30.9818 -16.3377 8.4562 -30.9818 -14.6297 
16.2777 -30.9818 -13.5798 24.0992 -30.9818 -11.6126 -46.2943 -23.1603 -11.3991 
-38.4728 -23.1603 -15.313 -30.6513 -23.1603 -16.7855 -22.8298 -23.1603 -16.9624 
-15.0083 -23.1603 -16.2837 -7.18679 -23.1603 -16.5259 0.634706 -23.1603 -16.0802 
8.4562 -23.1603 -15.0173 16.2777 -23.1603 -15.3069 24.0992 -23.1603 -14.9617 
31.9207 -23.1603 -12.7571 -46.2943 -15.3388 -14.5964 -38.4728 -15.3388 -16.9216 
-30.6513 -15.3388 -17.2034 -22.8298 -15.3388 -16.7089 -15.0083 -15.3388 -15.5372 
-7.18679 -15.3388 -14.9474 0.634706 -15.3388 -15.6089 8.4562 -15.3388 -15.3481 
16.2777 -15.3388 -16.3346 24.0992 -15.3388 -16.4337 31.9207 -15.3388 -14.9974 
39.7422 -15.3388 -12.7285 -46.2943 -7.51732 -14.3536 -38.4728 -7.51732 -17.5077 
-30.6513 -7.51732 -17.4037 -22.8298 -7.51732 -16.1716 -15.0083 -7.51732 -14.9652 
-7.18679 -7.51732 -17.1879 0.634706 -7.51732 -17.4331 8.4562 -7.51732 -16.7161 
16.2777 -7.51732 -15.9723 24.0992 -7.51732 -16.3142 31.9207 -7.51732 -15.9163 
39.7422 -7.51732 -14.8667 47.5637 -7.51732 -12.519 -46.2943 0.304181 -14.1643 
-38.4728 0.304181 -16.2405 -30.6513 0.304181 -17.0099 -22.8298 0.304181 -15.572 
-15.0083 0.304181 -14.5825 -7.18679 0.304181 -18.0308 0.634706 0.304181 -12.4521 
8.4562 0.304181 -17.3965 16.2777 0.304181 -14.8595 24.0992 0.304181 -16.0199 
31.9207 0.304181 -16.6309 39.7422 0.304181 -16.4761 47.5637 0.304181 -14.5697 
55.3852 0.304181 -11.5224 -46.2943 8.12568 -13.6136 -38.4728 8.12568 -16.354 
-30.6513 8.12568 -17.5648 -22.8298 8.12568 -16.7887 -15.0083 8.12568 -16.4931 
-7.18679 8.12568 -17.4066 0.634706 8.12568 -16.4852 8.4562 8.12568 -17.7265 
16.2777 8.12568 -15.3087 24.0992 8.12568 -16.2807 31.9207 8.12568 -17.0538 
39.7422 8.12568 -17.2966 47.5637 8.12568 -15.4814 55.3852 8.12568 -12.8827 
-46.2943 15.9472 -12.7243 -38.4728 15.9472 -16.8141 -30.6513 15.9472 -18.3166 
-22.8298 21.6121 -18.6203 -22.8298 15.9472 -18.2526 -15.0083 15.9472 -17.69 
-7.18679 15.9472 -16.3197 0.634706 15.9472 -15.91 8.4562 15.9472 -15.4911 
16.2777 15.9472 -15.4522 24.0992 15.9472 -15.8277 31.9207 15.9472 -16.5692 
39.7422 15.9472 -16.2727 47.5637 15.9472 -15.8867 -46.2943 23.7687 -10.9443 
-38.4728 23.7687 -16.2228 -24.4465 23.7687 -18.6203 -30.6513 23.7687 -18.0716 
-19.9734 23.7687 -18.6203 -22.8298 25.2409 -18.6203 -15.0083 23.7687 -18.369 
-7.18679 23.7687 -17.2905 0.634706 23.7687 -17.0451 8.4562 23.7687 -16.5485 
16.2777 23.7687 -15.7839 24.0992 23.7687 -14.9819 31.9207 23.7687 -15.281 
39.7422 23.7687 -13.9976 -38.4728 31.5902 -13.8503 -30.6513 31.5902 -17.6298 
-22.8298 31.5902 -18.0077 -15.0083 31.5902 -18.4077 -7.18679 31.5902 -17.984 
0.634706 31.5902 -17.7231 8.4562 31.5902 -16.4995 16.2777 31.5902 -14.5369 
24.0992 31.5902 -13.4149 31.9207 31.5902 -11.1364 -30.6513 39.4117 -14.0978 
-22.8298 39.4117 -16.4119 -15.0083 39.4117 -17.7603 -7.18679 39.4117 -17.1965 
0.634706 39.4117 -16.8414 8.4562 39.4117 -15.2587 16.2777 39.4117 -10.9816 
-22.8298 47.2332 -12.1565 -15.0083 47.2332 -14.0569 -7.18679 47.2332 -14.4052 
0.634706 47.2332 -13.1633 -22.8298 -46.7407 -10.7988 -15.0083 -49.4736 -10.7988 
-7.18679 -50.1414 -10.7988 -7.18679 -54.4463 -3.98843 0.634706 -48.3473 -10.7988 
-23.205 -46.6248 -10.7988 -30.6513 -43.1693 -10.7988 -30.6513 -46.6248 -7.38168 
3.82673 -46.6248 -10.7988 8.4562 -43.1563 -10.7988 8.4562 -46.6248 -8.28045 
-37.3109 -38.8033 -10.7988 -38.4728 -37.7253 -10.7988 -38.4728 -38.8033 -9.90422 
14.35 -38.8033 -10.7988 16.2777 -37.1176 -10.7988 16.2777 -38.8033 -9.83575 
24.0992 -32.2491 -10.7988 24.0992 -38.8033 -3.57343 -42.6655 -30.9818 -10.7988 
-46.2943 -24.6648 -10.7988 -46.2943 -30.9818 -3.88912 25.8612 -30.9818 -10.7988 
31.9207 -26.4143 -10.7988 31.9207 -30.9818 -6.35377 -46.9191 -23.1603 -10.7988 
35.8982 -23.1603 -10.7988 39.7422 -19.3992 -10.7988 39.7422 -23.1603 -8.139 
-50.0913 -15.3388 -10.7988 44.5547 -15.3388 -10.7988 47.5637 -11.9566 -10.7988 
47.5637 -15.3388 -9.04007 -51.6646 -7.51732 -10.7988 50.7333 -7.51732 -10.7988 
55.3852 -1.62784 -10.7988 55.3852 -7.51732 -7.45924 -51.5232 0.304181 -10.7988 
56.2822 0.304181 -10.7988 -50.0569 8.12568 -10.7988 57.9474 8.12568 -10.7988 
55.3852 15.8971 -10.7988 -47.9041 15.9472 -10.7988 55.3584 15.9472 -10.7988 
47.5637 23.6931 -10.7988 55.3852 15.9472 -10.774 -46.409 23.7687 -10.7988 
-46.2943 24.036 -10.7988 47.4764 23.7687 -10.7988 39.7422 29.9524 -10.7988 
47.5637 23.7687 -10.7302 -42.1836 31.5902 -10.7988 -38.4728 38.4963 -10.7988 
24.0992 34.9567 -10.7988 33.4669 31.5902 -10.7988 31.9207 31.9099 -10.7988 
39.7422 31.5902 -7.19774 -37.6614 39.4117 -10.7988 -38.4728 39.4117 -9.37656 
-30.6513 45.2843 -10.7988 8.4562 44.796 -10.7988 16.5986 39.4117 -10.7988 
16.2777 39.6096 -10.7988 -26.6544 47.2332 -10.7988 -30.6513 47.2332 -7.58302 
-22.8298 48.5497 -10.7988 -15.0083 51.218 -10.7988 -7.18679 51.6643 -10.7988 
4.87009 47.2332 -10.7988 0.634706 49.6125 -10.7988 -7.18679 -54.8569 -2.97732 
-30.6513 -48.6774 -2.97732 -22.8298 -52.4503 -2.97732 -12.7187 -54.4463 -2.97732 
-15.0083 -54.2656 -2.97732 -3.94676 -54.4463 -2.97732 -7.18679 -54.4463 3.73915 
0.634706 -53.8182 -2.97732 8.4562 -50.4495 -2.97732 -33.4271 -46.6248 -2.97732 
-38.4728 -42.0998 -2.97732 14.3951 -46.6248 -2.97732 16.2777 -45.1707 -2.97732 
24.0992 -39.1839 -2.97732 -41.4532 -38.8033 -2.97732 -46.2943 -31.4022 -2.97732 
24.5985 -38.8033 -2.97732 31.9207 -33.2853 -2.97732 -46.5522 -30.9818 -2.97732 
-46.2943 -30.9818 -2.24025 35.1016 -30.9818 -2.97732 39.7422 -27.4357 -2.97732 
-50.5648 -23.1603 -2.97732 45.2172 -23.1603 -2.97732 47.5637 -21.1007 -2.97732 
47.5637 -23.1603 2.52076 -52.8926 -15.3388 -2.97732 53.699 -15.3388 -2.97732 
55.3852 -13.2412 -2.97732 55.3852 -15.3388 2.07633 -54.03 -7.51732 -2.97732 
59.8325 -7.51732 -2.97732 -53.7002 0.304181 -2.97732 61.6085 0.304181 -2.97732 
-52.5443 8.12568 -2.97732 62.6221 8.12568 -2.97732 -50.2173 15.9472 -2.97732 
59.7608 15.9472 -2.97732 55.3852 21.8149 -2.97732 -47.8909 23.7687 -2.97732 
-46.2943 28.0126 -2.97732 -46.2943 23.7687 2.15193 53.4628 23.7687 -2.97732 
47.5637 28.47 -2.97732 47.5637 23.7687 4.57294 -44.8957 31.5902 -2.97732 
24.0992 37.9265 -2.97732 31.9207 35.4162 -2.97732 41.8399 31.5902 -2.97732 
39.7422 32.6283 -2.97732 39.7422 31.5902 -0.097139 -40.2802 39.4117 -2.97732 
-38.4728 41.602 -2.97732 -38.4728 39.4117 3.57032 8.4562 46.4685 -2.97732 
20.6894 39.4117 -2.97732 16.2777 41.4629 -2.97732 16.2777 39.4117 1.30886 
-32.7005 47.2332 -2.97732 -30.6513 48.787 -2.97732 -30.6513 47.2332 3.34869 
-22.8298 52.2769 -2.97732 -15.0083 53.7648 -2.97732 -7.18679 53.4259 -2.97732 
7.33265 47.2332 -2.97732 0.634706 51.1045 -2.97732 0.634706 47.2332 4.23737 
-30.6513 -47.0097 4.84418 -22.8298 -50.5489 4.84418 -15.0083 -53.3097 4.84418 
-7.18679 -54.3679 4.84418 0.634706 -53.2959 4.84418 8.4562 -50.197 4.84418 
-31.138 -46.6248 4.84418 -38.4728 -39.0913 4.84418 -30.6513 -46.6248 5.32933 
-22.8298 -46.6248 9.013 -15.0083 -46.6248 12.2793 14.9816 -46.6248 4.84418 
8.4562 -46.6248 10.2244 16.2777 -45.8443 4.84418 24.0992 -40.1179 4.84418 
-38.7072 -38.8033 4.84418 -38.4728 -38.8033 5.10774 -30.6513 -38.8033 10.4548 
26.1603 -38.8033 4.84418 24.0992 -38.8033 7.64273 31.9207 -35.0357 4.84418 
-42.9872 -30.9818 4.84418 -46.2943 -25.6753 4.84418 -38.4728 -30.9818 8.75516 
38.0713 -30.9818 4.84418 39.7422 -29.8045 4.84418 47.5637 -23.8585 4.84418 
-47.5314 -23.1603 4.84418 -46.2943 -23.1603 6.23351 -38.4728 -23.1603 11.4034 
48.3712 -23.1603 4.84418 47.5637 -23.1603 7.13547 55.3852 -16.1437 4.84418 
-48.8728 -15.3388 4.84418 -46.2943 -15.3388 7.4518 56.0423 -15.3388 4.84418 
55.3852 -15.3388 6.34616 -50.3865 -7.51732 4.84418 -46.2943 -7.51732 8.91133 
60.3278 -7.51732 4.84418 -50.2026 0.304181 4.84418 -46.2943 0.304181 8.70112 
61.9952 0.304181 4.84418 55.3852 0.304181 12.318 -48.6412 8.12568 4.84418 
-46.2943 8.12568 7.51115 60.9768 8.12568 4.84418 55.3852 8.12568 11.6547 
-46.6077 15.9472 4.84418 -46.2943 17.8709 4.84418 -46.2943 15.9472 5.28065 
47.5637 23.5426 4.84418 47.5637 15.9472 11.4218 56.8284 15.9472 4.84418 
55.3852 17.6554 4.84418 55.3852 15.9472 6.51044 -45.2186 23.7687 4.84418 
-38.4728 23.7687 11.8278 24.0992 23.7687 12.1063 31.9207 23.7687 10.749 
47.1851 23.7687 4.84418 39.7422 28.6851 4.84418 39.7422 23.7687 8.69364 
-42.5528 31.5902 4.84418 -38.4728 38.6646 4.84418 -38.4728 31.5902 9.19283 
16.2777 37.2212 4.84418 16.2777 31.5902 9.71074 24.0992 33.4431 4.84418 
24.0992 31.5902 6.6636 33.8666 31.5902 4.84418 31.9207 32.2501 4.84418 
31.9207 31.5902 5.60546 -37.9534 39.4117 4.84418 -30.6513 46.6612 4.84418 
-30.6513 39.4117 10.6114 0.634706 46.7559 4.84418 0.634706 39.4117 11.2532 
12.5625 39.4117 4.84418 8.4562 41.8189 4.84418 8.4562 39.4117 7.16269 
-29.2742 47.2332 4.84418 -22.8298 49.2489 4.84418 -22.8298 47.2332 7.53 
-15.0083 50.5452 4.84418 -15.0083 47.2332 8.44698 -0.563136 47.2332 4.84418 
-7.18679 49.8756 4.84418 -7.18679 47.2332 7.38714 -7.18679 -48.1457 12.6657 
0.634706 -47.2002 12.6657 -22.8298 -42.2232 12.6657 -13.1563 -46.6248 12.6657 
-15.0083 -45.9732 12.6657 -7.18679 -46.6248 13.6659 2.30937 -46.6248 12.6657 
0.634706 -46.6248 13.1063 8.4562 -44.2472 12.6657 16.2777 -40.1824 12.6657 
-27.0357 -38.8033 12.6657 -30.6513 -33.815 12.6657 -22.8298 -38.8033 14.6614 
-15.0083 -38.8033 16.1121 -7.18679 -38.8033 17.0304 0.634706 -38.8033 17.1731 
8.4562 -38.8033 16.1363 18.6867 -38.8033 12.6657 16.2777 -38.8033 13.8007 
24.0992 -35.6849 12.6657 31.9207 -31.9154 12.6657 -32.5854 -30.9818 12.6657 
[...]
POINT_DATA 512
SCALARS ImageScalars float
LOOKUP_TABLE default
0 0 0 0 0 0 0 0 0 
0 0 0 0 0 0 0 0 0 
0 0 0 0 0 0 0 0 0 
0 0 0 0 0 0 0 0 0 
0 0 0 0 0 0 0 0 0 
0 0 0 0 0 0 0 0 0 
0 0 0 0 0 0 0 0 0 
0 0 0 0 0 0 0 0 0 
0 0 0 0 0 0 0 0 0 
0 0 0 0 0 0 0 0 0 
0 0 0 0 0 0 0 0 0 
0 0 0 0 0 0 0 0 0 
0 0 0 0 0 0 0 0 0 
0 0 0 0 0 0 0 0 0 
0 0 0 0 0 0 0 0 0 
0 0 0 0 0 0 0 0 0 
0 0 0 0 0 0 0 0 0 
0 0 0 0 0 0 0 0 0 
0 0 0 0 0 0 0 0 0 
0 0 0 0 0 0 0 0 0 
0 0 0 0 0 0 0 0 0 
0 0 0 0 0 0 0 0 0 
0 0 0 0 0 0 0 0 0 
0 0 0 0 0 0 0 0 0 
0 0 0 0 0 0 0 0 0 
0 0 0 0 0 0 0 0 0 
0 0 0 0 0 0 0 0 0 
0 0 0 0 0 0 0 0 0 
0 0 0 0 0 0 0 0 0 
0 0 0 0 0 0 0 0 0 
0 0 0 0 0 0 0 0 0 
0 0 0 0 0 0 0 0 0 
0 0 0 0 0 0 0 0 0 
0 0 0 0 0 0 0 0 0 
0 0 0 0 0 0 0 0 0 
0 0 0 0 0 0 0 0 0 
0 0 0 0 0 0 0 0 0 
0 0 0 0 0 0 0 0 0 
0 0 0 0 0 0 0 0 0 
0 0 0 0 0 0 0 0 0 
0 0 0 0 0 0 0 0 0 
0 0 0 0 0 0 0 0 0 
0 0 0 0 0 0 0 0 0 
0 0 0 0 0 0 0 0 0 
0 0 0 0 0 0 0 0 0 
0 0 0 0 0 0 0 0 0 
0 0 0 0 0 0 0 0 0 
0 0 0 0 0 0 0 0 0 
0 0 0 0 0 0 0 0 0 
0 0 0 0 0 0 0 0 0 
0 0 0 0 0 0 0 0 0 
0 0 0 0 0 0 0 0 0 
0 0 0 0 0 0 0 0 0 
0 0 0 0 0 0 0 0 0 
0 0 0 0 0 0 0 0 0 
0 0 0 0 0 0 0 0 0 
0 0 0 0 0 0 0 0 
NORMALS Normals float
0.0184905 -0.0151446 0.999714 0.218461 0.641001 0.735793 0.123745 0.522955 0.84333 
-0.0465122 0.489981 0.870492 -0.24279 0.542797 0.804005 0.318518 0.390809 0.863605 
0.126369 0.319777 0.939028 0.0686911 0.187238 0.97991 -0.0196195 0.22225 0.974792 
-0.190452 0.208302 0.959343 -0.30009 0.31121 0.901718 0.408731 0.311324 0.857914 
0.199407 0.201926 0.958886 0.0601237 0.112342 0.991849 -0.0144084 0.0266477 0.999541 
-0.0173765 0.0100942 0.999798 -0.143374 0.0364189 0.988998 -0.164443 0.117433 0.979371 
-0.174797 0.290376 0.940812 -0.316427 0.502448 0.804624 0.654634 0.324888 0.68257 
0.288995 0.187018 0.938886 0.0940979 0.0949411 0.991026 -0.0312427 -0.0313137 0.999021 
-0.0277509 -0.0709717 0.997092 -0.0117977 -0.128183 0.99168 -0.098993 -0.0452495 0.994059 
-0.0472253 0.0435222 0.997936 -0.00305373 0.16573 0.986166 -0.145216 0.279166 0.949199 
-0.355505 0.405762 0.842006 0.540174 0.140222 0.829789 0.12684 0.137646 0.982326 
-0.0151484 0.0416561 0.999017 -0.105843 -0.0476665 0.99324 -0.112095 -0.0839739 0.990143 
0.00282118 0.00711638 0.999971 0.0267955 0.0767988 0.996686 0.0470352 0.107785 0.993061 
0.0690225 0.0399721 0.996814 -0.0840064 0.0842728 0.992895 -0.22401 0.182432 0.95736 
-0.328571 0.336943 0.882332 0.474232 -0.0233689 0.88009 0.188935 -0.0535907 0.980526 
-0.079241 -0.0123487 0.996779 -0.159535 -0.0706719 0.984659 0.0370391 -0.0618138 0.9974 
0.177198 0.211138 0.961261 -0.0362606 -0.132964 0.990457 -0.0881098 0.128209 0.987825 
-0.0268596 -0.0963369 0.994986 -0.00362915 -0.0270979 0.999626 -0.0869142 0.102943 0.990883 
-0.196392 0.227587 0.953747 -0.370896 0.31045 0.875247 0.440149 -0.0486521 0.896606 
0.172783 -0.0630179 0.982942 -0.0290696 0.0101391 0.999526 -0.158481 0.0383681 0.986616 
0.125157 0.0937806 0.987695 -0.055396 0.00630542 0.998445 0.0158316 -0.04367 0.998921 
0.0755997 0.0654483 0.994988 -0.0783524 -0.0428297 0.996005 0.113512 -0.00116717 0.993536 
0.0295269 0.0724427 0.996935 -0.133978 0.149894 0.979582 -0.300991 0.171888 0.938008 
-0.562341 0.249996 0.78821 0.533505 -0.0784319 0.842153 0.23446 0.0330518 0.971564 
0.0347354 0.0828755 0.995954 -0.0678895 0.167194 0.983584 0.0346298 0.199491 0.979288 
-0.00236783 -0.107163 0.994239 0.0163101 0.163881 0.986345 -0.0884046 -0.140208 0.986167 
-0.0708179 0.0392428 0.996717 0.110974 -0.0122033 0.993748 0.0641122 -0.00391727 0.997935 
-0.115515 -0.0120623 0.993232 -0.261712 0.0748005 0.962243 -0.542949 -0.0429224 0.838668 
0.719801 -0.153358 0.677029 0.276557 -0.00651689 0.960975 0.0821679 0.0327999 0.996079 
0.00245396 0.0216371 0.999763 -0.0401815 0.120359 0.991917 -0.123472 0.11296 0.985898 
-0.113799 0.000688306 0.993504 -0.0539267 0.037776 0.99783 -0.0291948 -0.0536099 0.998135 
0.0214378 0.0298581 0.999324 0.0737807 -0.0850087 0.993645 0.0293105 -0.104872 0.994054 
-0.038073 -0.215429 0.975777 -0.337499 -0.218446 0.915629 0.831041 -0.283168 0.478733 
0.368025 -0.169536 0.914229 0.0477001 -0.019581 0.99867 0.16056 -0.0404833 0.986196 
-0.0223865 0.00726541 0.999723 0.0232104 -0.0376969 0.99902 -0.0946913 0.0462362 0.994432 
-0.0838698 0.108159 0.990589 -0.0469424 0.115227 0.992229 -0.0795776 0.0658854 0.994649 
-0.100582 -0.0543609 0.993443 -0.0328142 -0.151373 0.987932 -0.0697809 -0.269993 0.96033 
-0.237005 -0.374439 0.896451 0.546302 -0.333121 0.768495 0.241108 -0.243058 0.939569 
0.0466347 -0.140001 0.989052 -0.00199781 -0.0351507 0.99938 -0.0432498 -0.00971031 0.999017 
-0.0906989 -0.0141853 0.995777 -0.211346 -0.0736889 0.97463 -0.207137 -0.281731 0.936868 
-0.178933 -0.455829 0.871896 -0.262561 -0.698803 0.665385 0.324974 -0.445501 0.834218 
0.216644 -0.297937 0.929677 0.0377847 -0.247235 0.968219 -0.0539601 -0.208727 0.976484 
-0.110689 -0.258772 0.959575 -0.362406 -0.349844 0.86387 -0.503949 -0.648713 0.570269 
0.263691 -0.663585 0.700087 0.110139 -0.569435 0.814625 -0.0509438 -0.553907 0.831018 
-0.272029 -0.675232 0.68561 0.21905 0.644614 0.732455 0.151716 0.664709 0.731535 
-0.0502665 0.653121 0.755583 -0.0301006 0.972315 0.231726 -0.264723 0.616952 0.741142 
0.226606 0.642984 0.731588 0.388307 0.549657 0.739659 0.488483 0.755577 0.436449 
-0.316832 0.574628 0.7546 -0.364404 0.475801 0.800514 -0.437019 0.669606 0.600536 
0.516983 0.52458 0.67642 0.53288 0.517211 0.669725 0.577898 0.566942 0.587035 
-0.374684 0.457747 0.806275 -0.348097 0.46627 0.813277 -0.416449 0.530438 0.73838 
-0.346013 0.530487 0.77386 -0.579579 0.744572 0.331211 0.614118 0.412476 0.672846 
0.681873 0.352644 0.640853 0.862806 0.504472 0.0327625 -0.355636 0.536499 0.765305 
-0.415046 0.50988 0.753498 -0.517521 0.694858 0.499343 0.687506 0.329504 0.647119 
-0.431988 0.482543 0.761931 -0.41746 0.449077 0.789973 -0.513174 0.587887 0.625332 
0.76311 0.232812 0.602878 -0.42726 0.421811 0.799702 -0.444179 0.402785 0.800294 
-0.508784 0.497521 0.702575 0.777891 0.0684806 0.624657 -0.464332 0.36915 0.805062 
-0.574845 0.300939 0.760913 -0.635512 0.45392 0.624564 0.778314 -0.0821215 0.622481 
-0.605945 0.25231 0.754434 0.754106 -0.184918 0.630182 -0.684872 -0.0473376 0.727125 
-0.610257 -0.35997 0.705697 0.810599 -0.210974 0.546277 -0.609487 -0.361841 0.705405 
-0.481561 -0.556086 0.677398 -0.61125 -0.362527 0.703525 0.836521 -0.284107 0.468526 
0.834572 -0.289383 0.468772 -0.480371 -0.556294 0.678071 -0.317747 -0.701358 0.63807 
-0.484608 -0.561198 0.670978 0.716988 -0.419738 0.55655 0.6428 -0.549627 0.533589 
-0.299668 -0.696755 0.651714 -0.280541 -0.721814 0.632678 -0.270845 -0.716865 0.642455 
-0.378797 -0.881847 0.280817 0.621238 -0.564167 0.543855 0.685932 -0.591378 0.423992 
0.438324 -0.652063 0.618616 -0.519526 -0.741857 0.423958 -0.501478 -0.662252 0.556725 
-0.508443 -0.657805 0.555677 0.37027 -0.700073 0.610572 0.515105 -0.780917 0.353321 
0.290437 -0.714905 0.636048 0.161941 -0.752313 0.638593 -0.103385 -0.809912 0.577368 
-0.447572 -0.779593 0.438079 -0.351186 -0.787818 0.505976 -0.0265157 0.98508 0.17004 
0.527493 0.842089 0.112415 0.35007 0.924898 0.148374 0.0936578 0.983274 0.156204 
0.144428 0.977928 0.150985 -0.122859 0.9755 0.182497 -0.00604431 0.976206 -0.216762 
-0.259836 0.944231 0.202272 -0.450437 0.855075 0.256813 0.59083 0.800378 0.101564 
0.713745 0.69846 0.0521692 -0.581409 0.763063 0.282311 -0.598612 0.742731 0.300025 
-0.586915 0.752716 0.298243 0.784993 0.618927 0.0267553 0.863543 0.503538 -0.0272709 
-0.584816 0.752778 0.302185 -0.555081 0.755885 0.347163 0.865608 0.499808 -0.0302291 
0.862987 0.499854 -0.0734726 -0.55836 0.746657 0.361577 -0.567536 0.723788 0.392471 
0.924599 0.38082 -0.00961323 -0.598373 0.688123 0.41041 -0.611782 0.670782 0.419255 
-0.647583 0.752538 0.119677 0.975101 0.210281 -0.0704312 -0.688487 0.596912 0.411925 
-0.71511 0.563711 0.413338 -0.783911 0.614761 0.0869018 0.996023 0.0489641 -0.0744349 
-0.77667 0.482748 0.404646 0.99208 -0.0984521 -0.0780039 -0.936405 0.147427 0.31845 
0.972906 -0.216589 -0.0808903 -0.978239 -0.120901 0.168616 0.954216 -0.28976 -0.0742414 
-0.885967 -0.454667 0.0913243 -0.745679 -0.66557 0.0312895 0.945009 -0.321431 -0.0603397 
0.927316 -0.373891 -0.0170543 0.908835 -0.242693 -0.339293 -0.682345 -0.730912 0.0131257 
-0.537084 -0.842834 -0.0342409 -0.439545 -0.692055 -0.572591 0.905548 -0.423938 0.0161081 
-0.353069 -0.933787 -0.0581778 -0.322654 -0.946125 -0.0272229 -0.426385 -0.902929 -0.0539834 
-0.39567 -0.91669 -0.0559053 -0.402932 -0.88307 -0.240486 0.80125 -0.59833 -0.000308138 
0.757864 -0.652346 0.00932345 0.745267 -0.566969 -0.350889 -0.5428 -0.830616 -0.124279 
-0.407248 -0.910225 -0.0750992 -0.482412 -0.868739 -0.112126 -0.430936 -0.822671 -0.370818 
0.591496 -0.805427 0.0376858 0.536583 -0.843074 0.0361286 0.494532 -0.79416 -0.353198 
0.303791 -0.952507 0.0209847 0.0670507 -0.996707 -0.0455971 -0.170154 -0.98316 -0.0666657 
-0.530959 -0.837868 -0.126725 -0.400926 -0.906331 -0.133504 -0.361408 -0.753111 -0.549735 
0.524822 0.725046 -0.445948 0.354284 0.818045 -0.453084 0.201029 0.912361 -0.35663 
-0.00240468 0.959531 -0.281592 -0.23679 0.924787 -0.297823 -0.408883 0.87337 -0.264651 
0.53746 0.714745 -0.447522 0.685558 0.522901 -0.506542 0.522349 0.708553 -0.474452 
0.325495 0.675086 -0.662051 0.22879 0.544671 -0.806838 -0.524607 0.82377 -0.214921 
-0.339508 0.730439 -0.592615 -0.545073 0.814037 -0.200596 -0.555633 0.820226 -0.136022 
0.688452 0.516848 -0.508824 0.682211 0.513235 -0.520748 0.491886 0.40753 -0.769394 
-0.5539 0.823635 -0.121737 -0.517857 0.799207 -0.30511 -0.547135 0.834756 -0.0618541 
0.71441 0.413639 -0.564377 0.761019 0.334551 -0.555811 0.594887 0.317933 -0.73826 
-0.57243 0.819829 -0.0142841 -0.586673 0.809821 -0.00220556 -0.643483 0.765461 -0.000298074 
0.774407 0.284071 -0.56533 0.729298 0.26955 -0.628861 0.463087 0.226273 -0.856943 
-0.651601 0.758561 -0.000539204 -0.650796 0.745623 -0.143215 -0.784144 0.615598 -0.0784751 
0.768269 0.150396 -0.622208 0.688607 0.13352 -0.712736 -0.800843 0.592706 -0.0857298 
-0.795672 0.578833 -0.178489 0.796648 0.0645197 -0.60099 0.665933 0.0597107 -0.743618 
-0.917521 0.348607 -0.191386 0.796143 -0.0904552 -0.598309 0.67183 -0.063805 -0.737953 
-0.955349 0.0535868 -0.290579 -0.593516 -0.0510289 -0.803203 0.786507 -0.183353 -0.589736 
0.725527 -0.143954 -0.67297 -0.836255 -0.285223 -0.468321 -0.560783 -0.241933 -0.791828 
0.830298 -0.173133 -0.529746 0.835331 -0.175039 -0.521136 0.822124 -0.169053 -0.54363 
-0.430631 -0.679966 -0.593467 -0.326249 -0.470358 -0.819955 -0.674428 -0.525671 -0.518475 
-0.637596 -0.561919 -0.52699 -0.620537 -0.520929 -0.586145 0.841602 -0.197077 -0.502859 
0.631164 -0.175519 -0.75553 -0.209632 -0.42597 -0.880116 -0.177764 -0.474685 -0.862017 
-0.426377 -0.679734 -0.596795 -0.361941 -0.701683 -0.61371 -0.271723 -0.573468 -0.772852 
0.804321 -0.37441 -0.461394 0.728648 -0.531586 -0.431844 0.676246 -0.31828 -0.664372 
-0.361731 -0.709203 -0.60513 -0.303784 -0.589082 -0.748797 -0.237162 -0.730833 -0.640029 
-0.209748 -0.676017 -0.706404 -0.252487 -0.762506 -0.59568 -0.216104 -0.771206 -0.598782 
-0.207402 -0.745523 -0.633387 0.715946 -0.549919 -0.430128 0.474414 -0.75396 -0.454396 
0.423259 -0.516511 -0.744357 -0.352564 -0.729872 -0.58565 -0.29771 -0.519044 -0.801225 
-0.395549 -0.695396 -0.599971 -0.43332 -0.676253 -0.595747 -0.406028 -0.622833 -0.668745 
0.423692 -0.781327 -0.458272 0.21628 -0.834467 -0.506841 0.180556 -0.772727 -0.608517 
0.0371485 -0.811795 -0.582759 -0.0131807 -0.704491 -0.709591 -0.33106 -0.735205 -0.5915 
-0.208977 -0.746862 -0.631289 -0.181401 -0.68953 -0.701172 0.0399585 0.583266 -0.811298 
-0.153661 0.619737 -0.76962 0.30412 0.477265 -0.824457 0.1847 0.533049 -0.825678 
0.220813 0.514835 -0.828364 0.0456264 0.521235 -0.852193 -0.182409 0.61751 -0.765119 
-0.147121 0.599459 -0.786768 -0.278851 0.599422 -0.75029 -0.357253 0.62063 -0.697989 
0.39575 0.377449 -0.837206 0.429208 0.293012 -0.854356 0.289083 0.339386 -0.895125 
0.156959 0.315674 -0.935796 0.0613997 0.281869 -0.957486 -0.0507387 0.321756 -0.945462 
-0.184616 0.420324 -0.888394 -0.370755 0.629121 -0.68319 -0.334303 0.581611 -0.7416 
-0.363815 0.667754 -0.649418 -0.389094 0.749326 -0.535833 0.439631 0.252262 -0.862026 
0.39001 0.238349 -0.889428 0.238428 0.138003 -0.961305 0.15977 0.0963734 -0.982439 
0.0755793 0.0926583 -0.992825 0.00371656 0.127681 -0.991808 -0.0468759 0.194136 -0.979854 
-0.120163 0.349591 -0.929165 -0.234855 0.543608 -0.805812 -0.405152 0.74893 -0.524362 
-0.371138 0.724107 -0.581313 -0.503565 0.703659 -0.501285 0.410342 0.194047 -0.891047 
0.452695 0.176876 -0.873946 0.326593 0.149577 -0.933254 0.165257 0.108364 -0.980279 
0.101686 0.0134568 -0.994726 0.0910361 -0.0423357 -0.994947 0.0597901 -0.00856662 -0.998174 
0.0488123 0.0633421 -0.996797 0.00801549 0.112689 -0.993598 -0.0693222 0.202548 -0.976816 
-0.172742 0.323324 -0.930388 -0.576667 0.635056 -0.513964 -0.447992 0.524791 -0.723808 
-0.611848 0.568507 -0.549947 0.470306 0.159537 -0.867963 0.451592 0.163112 -0.877188 
0.266159 0.139938 -0.953717 0.109712 0.121122 -0.986556 0.00605916 0.0592555 -0.998224 
0.0555159 0.00431408 -0.998448 0.109809 0.00293849 -0.993948 0.0802774 -0.018088 -0.996608 
0.0515363 -0.0712227 -0.996128 0.00290991 -0.00245669 -0.999993 -0.0918686 0.0450411 -0.994752 
-0.225178 0.128326 -0.96583 -0.680177 0.409026 -0.608323 -0.520714 0.328577 -0.787968 
-0.687398 0.180485 -0.703497 0.52228 0.0686012 -0.85001 0.460078 0.0751247 -0.884695 
0.26141 0.112174 -0.958687 0.079791 0.0985301 -0.99193 -0.0110653 0.0626419 -0.997975 
0.0365608 0.110421 -0.993212 0.0320123 0.00479616 -0.999476 -0.0269654 -0.0847342 -0.996039 
0.0205019 -0.182271 -0.983035 0.050973 -0.159501 -0.985881 -0.032621 -0.109293 -0.993474 
-0.144812 -0.0493734 -0.988227 -0.317836 0.00297009 -0.948141 -0.685241 0.164306 -0.709541 
-0.64551 0.076979 -0.759862 -0.678655 0.160365 -0.716736 0.549127 -0.0278072 -0.835276 
0.497645 -0.018517 -0.867183 0.27713 0.0114088 -0.960765 0.0587467 -0.000230084 -0.998273 
0.0134666 -0.0415876 -0.999044 -0.00165975 -0.0256761 -0.999669 -0.0819996 -0.0137129 -0.996538 
-0.101382 -0.0185132 -0.994675 -0.0202638 -0.0929642 -0.995463 0.0719738 -0.17134 -0.982579 
0.00944951 -0.179573 -0.983699 -0.121504 -0.162525 -0.979195 -0.561367 -0.0587069 -0.825482 
-0.301236 -0.154749 -0.940909 0.570848 -0.0801852 -0.817131 0.524874 -0.0697215 -0.84832 
0.274103 -0.0257489 -0.961355 0.0278274 -0.0121286 -0.999539 -0.0365261 -0.021209 -0.999108 
0.0647906 -0.0994519 -0.992931 0.0390978 0.00776376 -0.999205 -0.112121 0.0554506 -0.992146 
-0.134922 -0.0046562 -0.990845 -0.0349465 -0.179799 -0.983082 -0.0265572 -0.25124 -0.96756 
-0.134721 -0.291058 -0.947172 -0.470345 -0.243555 -0.848208 -0.292151 -0.398251 -0.869508 
-0.263034 -0.267866 -0.926855 0.586879 -0.114939 -0.801475 0.592631 -0.133617 -0.794314 
0.573834 -0.111824 -0.811302 0.32559 -0.0552624 -0.943895 0.0590502 -0.0376867 -0.997543 
-0.0719266 0.0168138 -0.997268 0.0263598 -0.0353594 -0.999027 0.0715839 -0.0774755 -0.994421 
-0.107485 -0.0910579 -0.990028 -0.258452 -0.148994 -0.954465 -0.200351 -0.393468 -0.897241 
-0.163265 -0.267698 -0.94957 -0.127047 -0.396805 -0.909068 -0.0924376 -0.338047 -0.936579 
-0.228986 -0.424499 -0.875994 -0.175079 -0.430782 -0.88531 -0.156257 -0.393567 -0.905919 
0.591857 -0.165023 -0.788969 0.347001 -0.143603 -0.926805 0.0956858 -0.145703 -0.98469 
-0.0386619 -0.111305 -0.993034 -0.0297952 -0.0931535 -0.995206 -0.0215483 -0.20863 -0.977757 
-0.181473 -0.341403 -0.922232 -0.230751 -0.417771 -0.878761 -0.30114 -0.480767 -0.823515 
-0.305705 -0.397156 -0.865339 0.511623 -0.316772 -0.798685 0.388173 -0.43216 -0.813978 
0.367576 -0.319118 -0.873528 0.0999343 -0.279561 -0.954913 -0.0217751 -0.248659 -0.968346 
-0.078112 -0.267905 -0.960274 -0.261683 -0.466275 -0.84505 -0.182964 -0.374166 -0.909134 
-0.30965 -0.527447 -0.791149 -0.315548 -0.526121 -0.7897 -0.309022 -0.522038 -0.794972 
0.242341 -0.457379 -0.855614 0.163414 -0.483811 -0.85978 0.163721 -0.430343 -0.887694 
-0.0271295 -0.505644 -0.862316 -0.01714 -0.44042 -0.897628 -0.194875 -0.47107 -0.8603 
-0.148519 -0.478909 -0.86521 -0.148999 -0.452382 -0.879289 
