# vtk DataFile Version 4.2
vtk output
ASCII
DATASET POLYDATA
POINTS 518 float
13.4073 -3.61172 -21.9254 -35.2967 -36.0811 -14.2271 -27.1794 -36.0811 -14.3735 
-19.0621 -36.0811 -14.6197 -10.9447 -36.0811 -14.2471 -2.82739 -36.0811 -13.7661 
-43.4141 -27.9637 -16.1907 -35.2967 -27.9637 -17.5498 -27.1794 -27.9637 -17.4064 
-19.0621 -27.9637 -17.5345 -10.9447 -27.9637 -17.023 -2.82739 -27.9637 -17.0035 
5.28995 -27.9637 -16.4471 13.4073 -27.9637 -16.076 21.5246 -27.9637 -14.2084 
-51.5314 -19.8464 -14.7832 -43.4141 -19.8464 -18.2726 -35.2967 -19.8464 -18.8753 
-27.1794 -19.8464 -19.4132 -19.0621 -19.8464 -18.0814 -10.9447 -19.8464 -18.1362 
-2.82739 -19.8464 -18.489 5.28995 -19.8464 -17.4393 13.4073 -19.8464 -16.8531 
21.5246 -19.8464 -15.5579 29.642 -19.8464 -13.7564 -51.5314 -11.7291 -16.5505 
-43.4141 -11.7291 -19.378 -35.2967 -11.7291 -20.5715 -27.1794 -11.7291 -19.2393 
-19.0621 -11.7291 -17.8224 -10.9447 -11.7291 -18.4694 -2.82739 -11.7291 -20.3477 
5.28995 -11.7291 -18.195 13.4073 -4.00254 -21.8223 13.4073 -11.7291 -19.4107 
21.5246 -11.7291 -16.6641 29.642 -11.7291 -15.8355 37.7593 -11.7291 -15.5903 
45.8767 -11.7291 -14.8404 -51.5314 -3.61172 -16.8119 -43.4141 -3.61172 -19.9316 
-35.2967 -3.61172 -20.7115 -27.1794 -3.61172 -19.8018 -19.0621 -3.61172 -17.9624 
-10.9447 -3.61172 -19.4024 -2.82739 -3.61172 -19.0999 13.1091 -3.61172 -21.8223 
5.28995 -3.61172 -18.2736 13.6116 -3.61172 -21.8223 13.4073 -3.17452 -21.8223 
21.5246 -3.61172 -17.6042 29.642 -3.61172 -17.3708 37.7593 -3.61172 -17.9044 
45.8767 -3.61172 -17.8766 53.994 -3.61172 -16.4486 -51.5314 4.50562 -15.9442 
-43.4141 4.50562 -19.9494 -35.2967 4.50562 -20.7626 -27.1794 4.50562 -20.0278 
-19.0621 4.50562 -18.0299 -10.9447 4.50562 -18.6731 -2.82739 4.50562 -20.377 
5.28995 4.50562 -18.8924 13.4073 4.50562 -19.7256 21.5246 4.50562 -17.8617 
29.642 4.50562 -18.5276 37.7593 4.50562 -19.2088 45.8767 4.50562 -18.6107 
53.994 4.50562 -16.9704 -51.5314 12.623 -14.0883 -43.4141 12.623 -18.9545 
-35.2967 12.623 -21.0166 -27.1794 12.623 -20.0732 -19.0621 12.623 -18.6504 
-10.9447 12.623 -17.839 -2.82739 12.623 -19.5834 5.28995 12.623 -18.6191 
13.4073 12.623 -18.9589 21.5246 12.623 -18.9189 29.642 12.623 -18.9862 
37.7593 12.623 -19.0248 45.8767 12.623 -18.1493 53.994 12.623 -16.3343 
-43.4141 20.7403 -17.2308 -35.2967 20.7403 -19.278 -27.1794 20.7403 -19.5252 
-19.0621 20.7403 -19.5943 -10.9447 20.7403 -19.2297 -2.82739 20.7403 -18.8066 
5.28995 20.7403 -18.2573 13.4073 20.7403 -18.7807 21.5246 20.7403 -19.1822 
29.642 20.7403 -19.0002 37.7593 20.7403 -17.8312 45.8767 20.7403 -15.8745 
-35.2967 28.8576 -17.4003 -27.1794 28.8576 -18.6204 -19.0621 28.8576 -19.1177 
-10.9447 28.8576 -19.3319 -2.82739 28.8576 -19.1816 5.28995 28.8576 -18.2473 
13.4073 28.8576 -17.817 21.5246 28.8576 -17.3288 29.642 28.8576 -15.9082 
-27.1794 36.975 -15.3889 -19.0621 36.975 -16.9563 -10.9447 36.975 -17.8053 
-2.82739 36.975 -17.5038 5.28995 36.975 -16.0569 13.4073 36.975 -14.1844 
-35.2967 -36.8479 -13.705 -27.1794 -37.0476 -13.705 -19.0621 -37.2574 -13.705 
-10.9447 -36.8102 -13.705 -2.82739 -36.1574 -13.705 -36.7748 -36.0811 -13.705 
-43.4141 -32.2731 -13.705 -43.4141 -36.0811 -9.90992 -2.11939 -36.0811 -13.705 
5.28995 -34.628 -13.705 5.28995 -36.0811 -12.6058 13.4073 -32.2348 -13.705 
13.4073 -36.0811 -9.81355 21.5246 -28.8242 -13.705 21.5246 -36.0811 -6.01482 
-47.9394 -27.9637 -13.705 -51.5314 -22.4752 -13.705 -51.5314 -27.9637 -10.4531 
23.038 -27.9637 -13.705 29.642 -20.0191 -13.705 29.642 -27.9637 -11.0473 
37.7593 -27.9637 -7.65911 45.8767 -27.9637 -5.90012 -53.0549 -19.8464 -13.705 
29.9841 -19.8464 -13.705 37.7593 -16.7838 -13.705 37.7593 -19.8464 -12.486 
45.8767 -14.1145 -13.705 45.8767 -19.8464 -10.849 53.994 -19.8464 -9.16491 
-55.4618 -11.7291 -13.705 50.5656 -11.7291 -13.705 53.994 -10.0093 -13.705 
53.994 -11.7291 -12.869 62.1113 -11.7291 -8.2539 -55.0425 -3.61172 -13.705 
59.4368 -3.61172 -13.705 62.1113 -3.61172 -12.0106 -53.8611 4.50562 -13.705 
60.7979 4.50562 -13.705 62.1113 4.50562 -12.8566 -51.8976 12.623 -13.705 
-51.5314 13.524 -13.705 58.4248 12.623 -13.705 53.994 16.8146 -13.705 
62.1113 12.623 -10.3627 -47.9968 20.7403 -13.705 -51.5314 20.7403 -8.01943 
-43.4141 28.0779 -13.705 37.7593 28.6843 -13.705 50.2238 20.7403 -13.705 
45.8767 23.6348 -13.705 53.994 20.7403 -9.38476 -42.6562 28.8576 -13.705 
-43.4141 28.8576 -13.0487 -35.2967 35.2142 -13.705 21.5246 35.2366 -13.705 
37.4099 28.8576 -13.705 29.642 31.842 -13.705 37.7593 28.8576 -13.4613 
-32.1927 36.975 -13.705 -35.2967 36.975 -11.8271 -27.1794 39.065 -13.705 
-19.0621 41.6082 -13.705 -10.9447 42.9706 -13.705 -2.82739 42.3636 -13.705 
5.28995 40.1677 -13.705 16.0077 36.975 -13.705 13.4073 37.5522 -13.705 
21.5246 36.975 -11.472 -19.0621 45.0923 -8.70289 -10.9447 45.0923 -10.4736 
-2.82739 45.0923 -9.02906 -43.4141 -39.4537 -5.58762 -35.2967 -42.4998 -5.58762 
-27.1794 -43.8139 -5.58762 -19.0621 -43.9085 -5.58762 -10.9447 -42.8528 -5.58762 
-2.82739 -41.5207 -5.58762 5.28995 -39.9104 -5.58762 13.4073 -38.2256 -5.58762 
21.5246 -36.3192 -5.58762 -49.2866 -36.0811 -5.58762 -51.5314 -34.0949 -5.58762 
22.375 -36.0811 -5.58762 29.642 -33.575 -5.58762 29.642 -36.0811 0.230848 
37.7593 -30.4465 -5.58762 45.8767 -28.2534 -5.58762 -55.7011 -27.9637 -5.58762 
46.4563 -27.9637 -5.58762 53.994 -23.7587 -5.58762 53.994 -27.9637 2.31085 
-58.7287 -19.8464 -5.58762 60.9234 -19.8464 -5.58762 62.1113 -17.9905 -5.58762 
62.1113 -19.8464 -3.04505 -59.5173 -11.7291 -5.58762 64.6665 -11.7291 -5.58762 
-59.3992 -3.61172 -5.58762 69.6831 -3.61172 -5.58762 -57.5476 4.50562 -5.58762 
68.5871 4.50562 -5.58762 -55.5512 12.623 -5.58762 64.8116 12.623 -5.58762 
62.1113 16.5746 -5.58762 -52.5648 20.7403 -5.58762 -51.5314 22.6581 -5.58762 
45.8767 27.7188 -5.58762 57.2123 20.7403 -5.58762 53.994 22.6235 -5.58762 
53.994 20.7403 0.737453 -47.7254 28.8576 -5.58762 -43.4141 33.9345 -5.58762 
29.642 36.2308 -5.58762 43.7192 28.8576 -5.58762 37.7593 32.0214 -5.58762 
-39.9041 36.975 -5.58762 -35.2967 40.2616 -5.58762 -27.1794 44.3345 -5.58762 
5.28995 44.7072 -5.58762 13.4073 42.247 -5.58762 27.8943 36.975 -5.58762 
21.5246 39.5744 -5.58762 -24.5684 45.0923 -5.58762 -19.0621 46.626 -5.58762 
-10.9447 47.2356 -5.58762 3.61794 45.0923 -5.58762 -2.82739 46.5276 -5.58762 
-43.4141 -39.2634 2.52972 -35.2967 -41.9078 2.52972 -27.1794 -43.1197 2.52972 
-19.0621 -43.4282 2.52972 -10.9447 -42.6339 2.52972 -2.82739 -40.9506 2.52972 
5.28995 -38.524 2.52972 13.4073 -36.9882 2.52972 21.5246 -36.9256 2.52972 
29.642 -36.8891 2.52972 -49.1407 -36.0811 2.52972 -51.5314 -34.0924 2.52972 
-43.4141 -36.0811 7.48808 5.28995 -36.0811 7.44712 13.4073 -36.0811 4.62269 
21.5246 -36.0811 5.09425 32.6539 -36.0811 2.52972 29.642 -36.0811 5.78237 
37.7593 -34.6996 2.52972 45.8767 -32.0823 2.52972 53.994 -28.0628 2.52972 
-55.7766 -27.9637 2.52972 -51.5314 -27.9637 9.28974 54.1312 -27.9637 2.52972 
53.994 -27.9637 3.08295 62.1113 -21.2934 2.52972 -58.8006 -19.8464 2.52972 
63.5191 -19.8464 2.52972 62.1113 -19.8464 9.49179 -59.5757 -11.7291 2.52972 
68.2281 -11.7291 2.52972 -59.3385 -3.61172 2.52972 69.9259 -3.61172 2.52972 
-57.5445 4.50562 2.52972 69.1244 4.50562 2.52972 -55.4531 12.623 2.52972 
53.994 20.1988 2.52972 63.4833 12.623 2.52972 62.1113 14.4511 2.52972 
62.1113 12.623 4.46352 -52.1148 20.7403 2.52972 -51.5314 21.8345 2.52972 
-51.5314 20.7403 4.48484 53.195 20.7403 2.52972 45.8767 25.1088 2.52972 
45.8767 20.7403 8.62457 -47.4234 28.8576 2.52972 -43.4141 33.5603 2.52972 
29.642 33.6429 2.52972 29.642 28.8576 8.86039 38.0723 28.8576 2.52972 
37.7593 29.0306 2.52972 37.7593 28.8576 2.77506 -39.7034 36.975 2.52972 
-35.2967 40.2703 2.52972 -35.2967 36.975 9.91409 -27.1794 44.4097 2.52972 
5.28995 43.5188 2.52972 13.4073 41.0919 2.52972 13.4073 36.975 9.24082 
23.619 36.975 2.52972 21.5246 38.0773 2.52972 21.5246 36.975 4.53177 
-24.8992 45.0923 2.52972 -19.0621 46.7564 2.52972 -19.0621 45.0923 6.76757 
-10.9447 47.0516 2.52972 -10.9447 45.0923 7.36077 -0.232648 45.0923 2.52972 
-2.82739 45.7864 2.52972 -2.82739 45.0923 4.14246 -35.2967 -36.4197 10.6471 
-27.1794 -37.502 10.6471 -19.0621 -37.9149 10.6471 -10.9447 -37.9537 10.6471 
-2.82739 -36.6708 10.6471 -36.3524 -36.0811 10.6471 -43.4141 -33.1939 10.6471 
-35.2967 -36.0811 11.0074 -27.1794 -36.0811 11.8151 -19.0621 -36.0811 12.193 
-10.9447 -36.0811 12.4166 -0.891449 -36.0811 10.6471 -2.82739 -36.0811 11.2957 
5.28995 -33.9862 10.6471 13.4073 -32.8574 10.6471 21.5246 -33.8196 10.6471 
29.642 -34.6225 10.6471 37.7593 -33.6911 10.6471 45.8767 -31.4379 10.6471 
-50.0468 -27.9637 10.6471 -51.5314 -25.7811 10.6471 -43.4141 -27.9637 14.7705 
-35.2967 -27.9637 16.1834 -27.1794 -27.9637 16.4939 -19.0621 -27.9637 16.2967 
-10.9447 -27.9637 16.0123 -2.82739 -27.9637 16.0856 5.28995 -27.9637 15.4633 
13.4073 -27.9637 15.4595 21.5246 -27.9637 16.606 29.642 -27.9637 17.7645 
37.7593 -27.9637 16.73 51.718 -27.9637 10.6471 45.8767 -27.9637 15.6783 
53.994 -25.9372 10.6471 -54.0978 -19.8464 10.6471 -51.5314 -19.8464 13.2847 
-43.4141 -19.8464 17.3752 -35.2967 -19.8464 18.5531 -19.0621 -19.8464 18.4074 
-10.9447 -19.8464 17.496 -2.82739 -19.8464 17.1274 5.28995 -19.8464 17.5973 
13.4073 -19.8464 18.2332 45.8767 -19.8464 18.4857 61.7177 -19.8464 10.6471 
53.994 -19.8464 16.035 62.1113 -19.2315 10.6471 -55.987 -11.7291 10.6471 
-51.5314 -11.7291 15.3771 -10.9447 -11.7291 18.6687 -2.82739 -11.7291 17.5841 
5.28995 -11.7291 18.7207 13.4073 -11.7291 18.5807 53.994 -11.7291 17.5657 
64.8966 -11.7291 10.6471 62.1113 -11.7291 13.3597 -55.7854 -3.61172 10.6471 
-51.5314 -3.61172 14.8944 53.994 -3.61172 17.6782 65.8054 -3.61172 10.6471 
62.1113 -3.61172 13.97 -54.6052 4.50562 10.6471 -51.5314 4.50562 14.2055 
53.994 4.50562 16.4483 64.1217 4.50562 10.6471 62.1113 7.19569 10.6471 
62.1113 4.50562 12.5028 -52.7031 12.623 10.6471 -51.5314 15.6979 10.6471 
-51.5314 12.623 12.3393 13.4073 12.623 18.1853 21.5246 12.623 18.2014 
29.642 12.623 17.8689 37.7593 12.623 17.0469 45.8767 18.4273 10.6471 
[...]
POINT_DATA 518
SCALARS ImageScalars float
LOOKUP_TABLE default
0 0 0 0 0 0 0 0 0 
0 0 0 0 0 0 0 0 0 
0 0 0 0 0 0 0 0 0 
0 0 0 0 0 0 0 0 0 
0 0 0 0 0 0 0 0 0 
0 0 0 0 0 0 0 0 0 
0 0 0 0 0 0 0 0 0 
0 0 0 0 0 0 0 0 0 
0 0 0 0 0 0 0 0 0 
0 0 0 0 0 0 0 0 0 
0 0 0 0 0 0 0 0 0 
0 0 0 0 0 0 0 0 0 
0 0 0 0 0 0 0 0 0 
0 0 0 0 0 0 0 0 0 
0 0 0 0 0 0 0 0 0 
0 0 0 0 0 0 0 0 0 
0 0 0 0 0 0 0 0 0 
0 0 0 0 0 0 0 0 0 
0 0 0 0 0 0 0 0 0 
0 0 0 0 0 0 0 0 0 
0 0 0 0 0 0 0 0 0 
0 0 0 0 0 0 0 0 0 
0 0 0 0 0 0 0 0 0 
0 0 0 0 0 0 0 0 0 
0 0 0 0 0 0 0 0 0 
0 0 0 0 0 0 0 0 0 
0 0 0 0 0 0 0 0 0 
0 0 0 0 0 0 0 0 0 
0 0 0 0 0 0 0 0 0 
0 0 0 0 0 0 0 0 0 
0 0 0 0 0 0 0 0 0 
0 0 0 0 0 0 0 0 0 
0 0 0 0 0 0 0 0 0 
0 0 0 0 0 0 0 0 0 
0 0 0 0 0 0 0 0 0 
0 0 0 0 0 0 0 0 0 
0 0 0 0 0 0 0 0 0 
0 0 0 0 0 0 0 0 0 
0 0 0 0 0 0 0 0 0 
0 0 0 0 0 0 0 0 0 
0 0 0 0 0 0 0 0 0 
0 0 0 0 0 0 0 0 0 
0 0 0 0 0 0 0 0 0 
0 0 0 0 0 0 0 0 0 
0 0 0 0 0 0 0 0 0 
0 0 0 0 0 0 0 0 0 
0 0 0 0 0 0 0 0 0 
0 0 0 0 0 0 0 0 0 
0 0 0 0 0 0 0 0 0 
0 0 0 0 0 0 0 0 0 
0 0 0 0 0 0 0 0 0 
0 0 0 0 0 0 0 0 0 
0 0 0 0 0 0 0 0 0 
0 0 0 0 0 0 0 0 0 
0 0 0 0 0 0 0 0 0 
0 0 0 0 0 0 0 0 0 
0 0 0 0 0 0 0 0 0 
0 0 0 0 0 
NORMALS Normals float
-0.0847328 0.0149705 0.996291 0.17473 0.519502 0.836413 0.0219055 0.490546 0.87114 
-0.00842217 0.507417 0.861659 -0.0465332 0.515591 0.85557 -0.0696444 0.583307 0.80926 
0.302725 0.358486 0.883089 0.0806027 0.288919 0.953955 -0.000307193 0.273821 0.96178 
-0.0236908 0.184058 0.98263 -0.0311634 0.221833 0.974586 -0.0340143 0.266886 0.963128 
-0.0535038 0.24874 0.967091 -0.137852 0.275416 0.95139 -0.263283 0.36386 0.89347 
0.515499 0.277193 0.810818 0.237038 0.208355 0.948895 0.0660323 0.175343 0.98229 
-0.0495561 0.106885 0.993036 -0.0756695 0.0162506 0.997001 0.0242907 0.0828611 0.996265 
-0.0456615 0.195905 0.979559 -0.095406 0.101227 0.990278 -0.115319 0.175319 0.977734 
-0.180205 0.148827 0.972305 -0.18584 0.269809 0.94481 0.496564 0.115823 0.860238 
0.22593 0.0929801 0.969696 -0.00599384 0.112675 0.993614 -0.168178 0.0240884 0.985462 
-0.057364 -0.00806198 0.998321 0.169108 0.0773669 0.982556 -0.0416972 0.0610447 0.997264 
-0.0615935 0.0543343 0.996621 -0.0862132 0.0299696 0.995826 -0.097133 0.305065 0.947365 
-0.201753 0.127894 0.97105 -0.0641679 0.207807 0.976063 -0.0587751 0.318276 0.946174 
-0.150708 0.394742 0.906347 0.563317 -0.0303027 0.825685 0.218052 0.0365777 0.975251 
-0.00896548 0.0115931 0.999893 -0.163986 0.04799 0.985295 -0.0409335 0.0129827 0.999077 
0.0854722 0.00872229 0.996302 -0.0696314 -0.015791 0.997448 -0.0779001 0.0169186 0.996818 
0.192446 0.0452991 0.980262 -0.0905236 0.0164324 0.995759 -0.0859854 0.00380783 0.996289 
-0.254866 0.0750558 0.964059 0.0190261 0.165298 0.98606 0.0294797 0.212014 0.976822 
-0.0967443 0.22431 0.969704 -0.301645 0.217167 0.928358 0.654564 -0.141018 0.742739 
0.247236 -0.0570898 0.967272 0.00625976 0.0181546 0.999816 -0.166618 0.0165071 0.985883 
-0.0914789 0.0430384 0.994877 0.137258 -0.101997 0.98527 0.00918197 0.010077 0.999907 
-0.0264213 0.0142979 0.999549 -0.0759675 -0.178771 0.980954 -0.0594298 0.0801092 0.995013 
0.0821343 0.0951736 0.992067 0.0062113 0.068928 0.997602 -0.149403 0.018044 0.988612 
-0.307651 0.00600911 0.95148 0.721666 -0.267169 0.638607 0.348506 -0.153293 0.924686 
0.0654982 -0.0899448 0.993791 -0.142569 -0.0308767 0.989303 -0.138342 0.0914625 0.986152 
0.0545479 0.0452465 0.997485 0.0488705 -0.0869332 0.995015 -0.0357097 -0.0372038 0.998669 
0.0183681 -0.0522504 0.998465 0.00169101 0.0812188 0.996695 0.00646596 0.0290011 0.999558 
-0.0496159 -0.085104 0.995136 -0.1354 -0.161728 0.977502 -0.369664 -0.282988 0.885024 
0.442958 -0.316494 0.83882 0.123059 -0.201393 0.97175 0.0183803 -0.0864843 0.996084 
-0.0191356 0.0281503 0.999421 -0.0465257 0.0915008 0.994718 -0.0600706 -0.0228936 0.997932 
-0.00163604 -0.0231008 0.999732 0.0563224 -0.0716697 0.995837 0.0144196 -0.0869068 0.996112 
-0.0856514 -0.177258 0.98043 -0.185898 -0.292265 0.938096 -0.33744 -0.455454 0.82383 
0.282971 -0.36256 0.887963 0.0967544 -0.222501 0.970119 0.0410317 -0.145556 0.988499 
0.00493102 -0.0849085 0.996377 -0.0668681 -0.0786306 0.994659 -0.0840567 -0.127236 0.988304 
-0.0520003 -0.249274 0.967036 -0.117467 -0.361108 0.925096 -0.208902 -0.520917 0.82765 
0.243208 -0.545637 0.801954 0.132604 -0.439668 0.888318 0.0314979 -0.382794 0.923296 
-0.105161 -0.401449 0.909824 -0.197473 -0.468715 0.860994 -0.19519 -0.618944 0.760795 
0.180303 0.553973 0.812776 0.017058 0.536948 0.843443 -0.0118439 0.567801 0.82308 
-0.0479537 0.549373 0.8342 -0.0702247 0.586926 0.806589 0.21204 0.545829 0.810623 
0.347502 0.516107 0.782864 0.412792 0.729806 0.544964 -0.0749787 0.588556 0.804972 
-0.119832 0.569051 0.813524 -0.144666 0.694292 0.705003 -0.197105 0.527186 0.826574 
-0.239134 0.865886 0.439383 -0.270203 0.403825 0.874023 -0.256663 0.906971 0.333957 
0.470229 0.393967 0.789731 0.545313 0.322993 0.773504 0.669314 0.443192 0.596322 
-0.273048 0.38153 0.883108 -0.189299 0.273676 0.94301 -0.330726 0.486744 0.808517 
-0.264681 0.595723 0.758326 -0.30612 0.713147 0.630644 0.57979 0.279655 0.765269 
-0.185094 0.276184 0.943113 -0.124215 0.378812 0.9171 -0.162354 0.419845 0.892956 
-0.159035 0.418062 0.894389 -0.17925 0.473112 0.862574 -0.312655 0.587275 0.746562 
0.70183 0.0788692 0.707965 -0.224388 0.401976 0.88773 -0.284963 0.366525 0.885695 
-0.285781 0.400555 0.870566 -0.655175 0.397542 0.642422 0.738175 -0.0778072 0.670107 
-0.466336 0.19773 0.862226 -0.570327 0.191572 0.798766 0.762375 -0.159584 0.62715 
-0.531629 -0.01723 0.846802 -0.600279 -0.0286784 0.799276 0.737471 -0.270504 0.61884 
0.732873 -0.281355 0.619464 -0.528353 -0.340731 0.777654 -0.467563 -0.493745 0.733213 
-0.746848 -0.425068 0.511406 0.656455 -0.366777 0.659197 0.863313 -0.413484 0.289348 
0.543572 -0.505401 0.670149 -0.364439 -0.686874 0.628799 -0.452252 -0.564906 0.69018 
-0.413482 -0.610348 0.675654 -0.553153 -0.765197 0.329387 0.529059 -0.512138 0.676617 
0.567916 -0.532636 0.627511 0.406591 -0.584381 0.702269 -0.238298 -0.668675 0.704335 
-0.361699 -0.687986 0.629165 -0.281352 -0.65455 0.701716 -0.37241 -0.702609 0.606343 
0.361274 -0.607853 0.707104 0.459019 -0.68272 0.568503 0.264091 -0.630404 0.729964 
0.168053 -0.655056 0.736654 0.0308054 -0.713313 0.700169 -0.12629 -0.705352 0.697517 
-0.225229 -0.640163 0.734482 -0.21927 -0.662116 0.716605 -0.205639 -0.644669 0.736284 
-0.29538 -0.81156 0.504104 0.177992 -0.898479 0.401315 0.0146131 -0.886317 0.462849 
-0.147652 -0.926186 0.346955 0.439434 0.855917 0.272587 0.228948 0.952037 0.202998 
0.0793247 0.974321 0.210728 -0.0588656 0.96893 0.240229 -0.139933 0.959341 0.245118 
-0.182972 0.959421 0.214553 -0.202192 0.96941 0.139147 -0.217066 0.965078 0.146652 
-0.249826 0.917597 0.309197 0.61351 0.740907 0.273245 0.693892 0.66353 0.279718 
-0.251946 0.90874 0.332739 -0.283894 0.776794 0.562134 -0.173937 0.967889 0.181485 
-0.280811 0.697092 0.659703 -0.309635 0.72285 0.61775 0.832486 0.474639 0.285805 
-0.320239 0.719993 0.615676 -0.405447 0.693121 0.595983 -0.543237 0.828831 0.133911 
0.952131 0.192963 0.237092 -0.599921 0.598056 0.531437 -0.652035 0.544848 0.527249 
-0.685995 0.628086 0.367313 0.985435 0.0352907 0.166349 -0.715592 0.421081 0.557332 
0.971098 -0.118118 0.207406 -0.875847 0.184582 0.445895 0.95952 -0.219795 0.176101 
-0.900749 -0.260554 0.347509 0.939496 -0.295966 0.172488 -0.845512 -0.508701 0.162273 
-0.75544 -0.638934 0.145171 0.893719 -0.416881 0.165761 0.878205 -0.449946 0.162186 
-0.489344 -0.871628 0.0283994 -0.589891 -0.801833 0.0953544 -0.545016 -0.835807 0.0662172 
-0.497206 -0.820232 -0.282851 0.798699 -0.576083 0.173805 0.6969 -0.690703 0.193029 
-0.425409 -0.903771 0.0471712 -0.479565 -0.877404 0.01342 -0.461533 -0.887015 0.013806 
0.609667 -0.767464 0.198255 0.508396 -0.83786 0.19881 0.346688 -0.912251 0.218187 
-0.257662 -0.95722 0.131681 -0.29705 -0.943325 0.147983 -0.408656 -0.910988 0.0556937 
-0.35093 -0.930314 0.106599 0.291286 -0.931354 0.218475 0.175774 -0.957362 0.229265 
-0.00728046 -0.981953 0.188987 -0.234772 -0.962937 0.132792 -0.150074 -0.977354 0.149186 
0.424762 0.862494 -0.275104 0.209311 0.933448 -0.291315 0.0902169 0.955144 -0.282064 
-0.0297088 0.960554 -0.276504 -0.146123 0.96015 -0.238243 -0.240708 0.939243 -0.24471 
-0.236533 0.923375 -0.302375 -0.0944164 0.954968 -0.281286 -0.00595305 0.992394 -0.122958 
-0.134048 0.989753 0.0491859 0.590177 0.766208 -0.254199 0.680846 0.690478 -0.244313 
0.374991 0.755445 -0.537294 -0.208193 0.850635 -0.482779 -0.0734704 0.933903 -0.349897 
0.0230307 0.970197 -0.241219 -0.187106 0.979844 0.0699767 -0.0951933 0.983776 -0.152064 
-0.278149 0.95276 0.12199 -0.38721 0.906302 0.169369 -0.543448 0.830535 0.121966 
0.839751 0.488887 -0.236236 0.642918 0.45508 -0.616083 -0.546029 0.828897 0.121581 
-0.551836 0.829234 0.088595 -0.721859 0.691061 0.0368061 0.957464 0.199082 -0.208877 
-0.756153 0.65408 0.0203079 -0.706584 0.559914 -0.432706 0.986206 0.0315255 -0.16249 
-0.937105 0.348479 -0.0198968 0.977113 -0.119174 -0.176201 -0.978328 0.0523862 -0.200324 
0.960814 -0.230328 -0.154225 -0.899787 -0.353375 -0.255949 0.93753 -0.312035 -0.153856 
-0.475345 -0.790801 -0.385593 -0.733371 -0.596594 -0.325947 -0.693976 -0.625304 -0.356921 
-0.674452 -0.611862 -0.413206 0.89045 -0.426549 -0.158599 0.882501 -0.442 -0.160711 
0.87378 -0.430101 -0.226983 -0.465713 -0.795319 -0.388044 -0.418095 -0.804149 -0.422541 
-0.33904 -0.677037 -0.653202 0.798598 -0.574152 -0.180531 0.705475 -0.683731 -0.186594 
-0.457635 -0.788724 -0.410469 -0.415375 -0.635955 -0.650404 -0.457908 -0.767447 -0.448715 
-0.458218 -0.766692 -0.449688 -0.45678 -0.76265 -0.457949 0.618211 -0.764743 -0.181613 
0.526733 -0.831969 -0.174298 0.485546 -0.713448 -0.50521 0.358044 -0.920234 -0.158034 
-0.272703 -0.915459 -0.29592 -0.298814 -0.902763 -0.309401 -0.268767 -0.734518 -0.623095 
-0.417141 -0.843434 -0.338544 -0.399789 -0.858681 -0.32068 -0.399873 -0.824347 -0.400691 
0.302277 -0.939857 -0.159055 0.157582 -0.971894 -0.174902 0.141305 -0.917997 -0.370559 
-0.0570857 -0.978307 -0.199138 -0.0700753 -0.90366 -0.422479 -0.22749 -0.938822 -0.258577 
-0.204819 -0.947138 -0.246937 -0.210861 -0.926418 -0.311909 0.168617 0.710269 -0.683437 
0.0703485 0.656501 -0.751038 0.0200028 0.669433 -0.742604 -0.0651532 0.713433 -0.697688 
-0.193134 0.742354 -0.641568 0.186995 0.702107 -0.68708 0.347505 0.625383 -0.698667 
0.166124 0.697061 -0.697502 0.0560619 0.61013 -0.790316 0.0317183 0.601833 -0.797992 
-0.0408904 0.62388 -0.78045 -0.190426 0.747146 -0.636798 -0.185348 0.717401 -0.671552 
-0.166774 0.74169 -0.649679 -0.00257071 0.78676 -0.617254 0.091014 0.831257 -0.548386 
-0.0133422 0.870572 -0.491861 -0.178981 0.912614 -0.367561 -0.402219 0.844218 -0.354283 
0.567283 0.449691 -0.689905 0.623991 0.383534 -0.680836 0.335424 0.467143 -0.818088 
0.0835868 0.371486 -0.924668 0.00747979 0.403947 -0.914752 -0.0289519 0.341106 -0.939579 
-0.0118493 0.265708 -0.963981 -0.0306484 0.289418 -0.956712 -0.0389836 0.445125 -0.894619 
0.0587287 0.539939 -0.839653 0.117869 0.531686 -0.838699 0.00194168 0.504827 -0.863218 
-0.0991827 0.546796 -0.83137 -0.554543 0.730134 -0.399233 -0.348214 0.618474 -0.704441 
-0.574301 0.685579 -0.447393 0.711659 0.251674 -0.655897 0.614502 0.267386 -0.742221 
0.252854 0.217693 -0.942695 0.115566 0.240257 -0.963806 -0.108554 0.161705 -0.98085 
-0.0783538 0.164066 -0.983333 0.00644829 0.0872881 -0.996162 0.0677203 0.183212 -0.980738 
0.102735 0.159851 -0.981781 -0.18057 0.238252 -0.95427 -0.680014 0.531895 -0.504646 
-0.445331 0.396901 -0.80259 -0.69148 0.508352 -0.513258 0.794801 0.0807662 -0.601471 
0.593943 0.0713495 -0.801337 -0.0910129 0.167151 -0.981722 0.00286559 0.179826 -0.983694 
0.0612958 0.194141 -0.979057 0.0264577 0.0409466 -0.998811 -0.373005 0.0698611 -0.925196 
-0.779003 0.222149 -0.586348 -0.646689 0.197244 -0.736809 0.802927 -0.0738506 -0.591484 
0.619915 -0.0544262 -0.782779 -0.362016 -0.0557836 -0.930501 -0.759696 -0.0437885 -0.648802 
-0.570224 -0.052588 -0.819805 0.832138 -0.167504 -0.528668 0.704213 -0.110017 -0.701413 
-0.359462 -0.312707 -0.879205 -0.666618 -0.351719 -0.657202 -0.577357 -0.471005 -0.666943 
-0.5747 -0.355264 -0.737229 0.836963 -0.277022 -0.471966 0.81859 -0.332899 -0.46807 
0.793978 -0.261559 -0.548804 -0.140677 -0.11275 -0.983615 -0.0184898 -0.181694 -0.983181 
-0.0623512 -0.321636 -0.944808 -0.159631 -0.433402 -0.88695 -0.311857 -0.61198 -0.726791 
-0.276106 -0.505984 -0.817157 -0.424717 -0.583849 -0.691907 -0.41437 -0.583322 -0.698593 
-0.402819 -0.570464 -0.715757 0.759685 -0.421135 -0.495504 0.518564 -0.353658 -0.778471 
-0.180124 -0.250943 -0.951096 -0.130907 -0.170438 -0.976634 -0.162145 -0.292085 -0.942547 
-0.373556 -0.575359 -0.727611 -0.257684 -0.459357 -0.850053 -0.291722 -0.625001 -0.724067 
-0.292141 -0.624914 -0.723972 -0.27664 -0.613326 -0.739799 0.649741 -0.570131 -0.502779 
0.641906 -0.577907 -0.503964 0.637028 -0.567884 -0.521252 0.473616 -0.691465 -0.545494 
0.3295 -0.449544 -0.830265 0.159566 -0.303878 -0.939253 -0.0573711 -0.203095 -0.977477 
-0.133778 -0.302238 -0.943799 -0.174109 -0.336194 -0.925559 -0.252024 -0.663308 -0.704632 
-0.187955 -0.388343 -0.902143 -0.37417 -0.574184 -0.728223 -0.347403 -0.602358 -0.718663 
-0.308292 -0.491311 -0.814598 0.458962 -0.697701 -0.550061 0.314048 -0.739414 -0.595517 
0.270714 -0.601608 -0.75152 0.122687 -0.792275 -0.597703 0.102308 -0.499714 -0.860127 
-0.0774148 -0.788244 -0.610474 -0.0823717 -0.496901 -0.863889 -0.218532 -0.734881 -0.642023 
-0.195363 -0.555198 -0.808448 -0.257151 -0.680018 -0.686622 -0.260569 -0.686565 -0.678773 
-0.249084 -0.626281 -0.738735 -0.00392132 0.242432 -0.97016 0.130066 0.210676 -0.968864 
0.00169368 0.366567 -0.93039 -0.0978718 0.287308 -0.952825 0.232331 0.114689 -0.965851 
0.0808593 0.230877 -0.969617 0.109533 0.223537 -0.968521 -0.0690715 0.178482 -0.981516 
-0.009536 0.202614 -0.979212 -0.098653 0.0949942 -0.990577 0.11727 0.142108 -0.98288 
0.126316 0.12742 -0.983773 0.00800882 0.133724 -0.990986 -0.151565 0.231808 -0.960881 
-0.094957 0.2254 -0.969628 -0.177364 0.211134 -0.961231 0.266579 0.0895808 -0.959641 
0.232299 0.0927984 -0.968208 0.0671755 0.10235 -0.992478 -0.0648186 0.0407537 -0.997065 
-0.0905937 0.136563 -0.98648 -0.0879091 0.0376154 -0.995418 -0.0817536 0.161753 -0.983439 
0.0162733 0.264334 -0.964294 0.0583527 0.193452 -0.979373 0.0508712 0.0229535 -0.998441 
-0.0446553 0.0356446 -0.998366 0.101634 -0.0142656 -0.99472 0.114906 0.0226082 -0.993119 
-0.0100623 0.0946002 -0.995465 -0.29396 0.0734062 -0.952995 -0.197198 0.089263 -0.976291 
0.290608 -0.0111708 -0.956777 0.276684 -0.00758517 -0.960931 0.0567587 0.0192883 -0.998202 
-0.074522 0.0156732 -0.997096 0.0193157 0.0202611 -0.999608 0.0741737 0.0853952 -0.993582 
0.0273695 0.346407 -0.937685 -0.0724059 0.160909 -0.98431 -0.106704 0.0308122 -0.993813 
0.100863 0.0162184 -0.994768 0.119152 -0.00761421 -0.992847 -0.0217668 -0.0634565 -0.997747 
-0.294401 -0.0639512 -0.95354 -0.194 -0.0774838 -0.977937 0.324946 -0.00509056 -0.945719 
0.310773 -0.00323724 -0.950479 0.0803068 0.0411492 -0.99592 -0.0665612 0.076248 -0.994865 
-0.0295887 0.0296676 -0.999122 0.264321 -0.0330094 -0.96387 0.0594977 0.19926 -0.978139 
-0.274588 0.0275066 -0.961168 -0.125762 -0.068515 -0.989692 -0.116787 -0.0465528 -0.992065 
0.0207509 -0.120019 -0.992555 0.0636892 -0.0519608 -0.996616 -0.0208736 -0.256285 -0.966376 
0.0332519 -0.159571 -0.986626 -0.108854 -0.312084 -0.943798 -0.0809448 -0.228663 -0.970135 
-0.192094 -0.288802 -0.93792 -0.189826 -0.291032 -0.937692 -0.189067 -0.288609 -0.938594 
0.390044 -0.145739 -0.90919 0.385498 -0.152716 -0.909983 0.380246 -0.143055 -0.913755 
0.134468 -0.0713541 -0.988346 -0.0783602 -0.0394915 -0.996143 -0.0911057 0.0419177 -0.994959 
0.236031 -0.0144555 -0.971638 0.0814225 -0.212342 -0.973797 -0.185047 -0.128213 -0.97433 
-0.189303 -0.247632 -0.95018 -0.348923 -0.182833 -0.919144 0.225681 -0.277436 -0.933861 
0.199433 -0.288461 -0.936492 0.183248 -0.263879 -0.946989 0.115502 -0.245845 -0.962403 
0.0495461 -0.172783 -0.983713 0.00117378 -0.0292772 -0.999571 -0.054449 -0.194289 -0.979432 
0.00451389 -0.0622316 -0.998052 -0.170045 -0.255624 -0.951704 -0.109954 -0.295931 -0.94886 
-0.0602288 -0.298068 -0.952643 0.0795964 -0.244413 -0.966399 -0.045448 -0.204165 -0.977881 
0.0402358 -0.246242 -0.968373 0.0313912 -0.210608 -0.977066 
