# vtk DataFile Version 4.2
vtk output
ASCII
DATASET POLYDATA
POINTS 507 float
-10.7338 -34.5399 -14.6373 -3.17052 -34.5399 -15.8351 4.39274 -34.5399 -16.0524 
11.956 -34.5399 -15.9438 19.5193 -34.5399 -15.8065 27.0825 -34.5399 -15.1855 
-18.297 -26.9767 -14.2144 -10.7338 -26.9767 -16.1648 -3.17052 -26.9767 -17.4194 
4.39274 -26.9767 -18.825 11.956 -26.9767 -19.7071 19.5193 -26.9767 -20.0416 
27.0825 -26.9767 -19.9893 34.6458 -26.9767 -17.9488 42.209 -26.9767 -14.2816 
-18.297 -19.4134 -14.61 -10.7338 -19.4134 -15.4857 -3.17052 -19.4134 -16.7852 
4.39274 -19.4134 -19.0541 11.956 -19.4134 -20.4228 19.5193 -19.4134 -20.863 
27.0825 -19.4134 -20.8306 34.6458 -19.4134 -20.5236 42.209 -19.4134 -17.9168 
-33.4236 -11.8502 -15.0233 -25.8603 -11.8502 -15.3159 -18.297 -11.8502 -14.4917 
-10.7338 -11.8502 -15.945 -3.17052 -11.8502 -18.0298 4.39274 -11.8502 -20.4944 
11.956 -11.8502 -20.6859 19.5193 -11.8502 -20.2387 27.0825 -11.8502 -20.8531 
34.6458 -11.8502 -20.2469 42.209 -11.8502 -18.8728 49.7723 -11.8502 -15.2592 
-40.9868 -4.2869 -15.3479 -33.4236 -4.2869 -17.0132 -25.8603 -4.2869 -17.2673 
-18.297 -4.2869 -16.8296 -10.7338 -4.2869 -20.8979 -3.17052 -4.2869 -18.7264 
4.39274 -4.2869 -19.7225 11.956 -4.2869 -21.3524 19.5193 -4.2869 -19.0625 
27.0825 -4.2869 -19.4547 34.6458 -4.2869 -19.7241 42.209 -4.2869 -19.1763 
49.7723 -4.2869 -16.5221 -40.9868 3.27636 -16.4281 -33.4236 3.27636 -18.5601 
-25.8603 3.27636 -18.3489 -18.297 3.27636 -18.4799 -10.7338 3.27636 -20.2475 
-3.17052 3.27636 -18.1886 4.39274 3.27636 -19.4381 11.956 3.27636 -20.6457 
19.5193 3.27636 -17.8391 27.0825 3.27636 -18.8876 34.6458 3.27636 -19.16 
42.209 3.27636 -18.5739 49.7723 3.27636 -16.2342 -40.9868 10.8396 -15.4597 
-33.4236 10.8396 -18.7272 -25.8603 10.8396 -19.66 -18.297 10.8396 -19.0619 
-10.7338 10.8396 -19.8173 -3.17052 10.8396 -20.5445 4.39274 10.8396 -19.468 
11.956 10.8396 -17.8517 19.5193 10.8396 -17.4323 27.0825 10.8396 -18.1316 
34.6458 10.8396 -18.407 42.209 10.8396 -17.6476 49.7723 10.8396 -14.2532 
-33.4236 18.4029 -17.3711 -25.8603 18.4029 -19.1198 -18.297 18.4029 -19.5049 
-10.7338 18.4029 -19.207 -3.17052 18.4029 -18.3672 4.39274 18.4029 -17.5243 
11.956 18.4029 -17.6828 19.5193 18.4029 -17.9767 27.0825 18.4029 -18.3119 
34.6458 18.4029 -16.8835 42.209 18.4029 -15.0325 -25.8603 25.9661 -17.4954 
-18.297 25.9661 -18.6211 -10.7338 25.9661 -18.9923 -3.17052 25.9661 -18.1796 
4.39274 25.9661 -18.2426 11.956 25.9661 -17.9192 19.5193 25.9661 -18.3301 
27.0825 25.9661 -16.6126 34.6458 25.9661 -14.9105 -18.297 33.5294 -15.766 
-10.7338 33.5294 -16.9185 -3.17052 33.5294 -17.4447 4.39274 33.5294 -17.3016 
11.956 33.5294 -16.5686 19.5193 33.5294 -15.6444 -10.7338 -35.2763 -14.1448 
-3.17052 -36.784 -14.1448 4.39274 -36.6563 -14.1448 11.956 -36.1802 -14.1448 
19.5193 -36.0469 -14.1448 27.0825 -35.4034 -14.1448 -25.8603 -34.5399 -8.8701 
-12.3473 -34.5399 -14.1448 -18.297 -27.2522 -14.1448 -18.297 -34.5399 -11.9059 
29.4578 -34.5399 -14.1448 34.6458 -31.9468 -14.1448 34.6458 -34.5399 -7.68124 
42.209 -27.128 -14.1448 -40.9868 -26.9767 -7.19488 -33.4236 -26.9767 -11.0161 
-18.6272 -26.9767 -14.1448 -25.8603 -26.9767 -12.6778 42.3716 -26.9767 -14.1448 
-48.5501 -19.4134 -6.60988 -40.9868 -19.4134 -11.5632 -33.4236 -15.2998 -14.1448 
-33.4236 -19.4134 -13.1509 -23.3096 -19.4134 -14.1448 -25.8603 -18.1512 -14.1448 
-25.8603 -19.4134 -13.9217 47.5364 -19.4134 -14.1448 49.7723 -15.1715 -14.1448 
49.7723 -19.4134 -10.9228 -48.5501 -11.8502 -9.78102 -37.5132 -11.8502 -14.1448 
-40.9868 -8.80087 -14.1448 -40.9868 -11.8502 -13.3783 51.0694 -11.8502 -14.1448 
-43.3991 -4.2869 -14.1448 -48.5501 -4.2869 -11.1546 52.8168 -4.2869 -14.1448 
57.3356 -4.2869 -6.93271 -44.4161 3.27636 -14.1448 -48.5501 3.27636 -10.4826 
52.3807 3.27636 -14.1448 -42.6029 10.8396 -14.1448 -40.9868 14.027 -14.1448 
49.9289 10.8396 -14.1448 49.7723 11.1164 -14.1448 -38.6337 18.4029 -14.1448 
-40.9868 18.4029 -10.4648 -33.4236 24.7604 -14.1448 43.9015 18.4029 -14.1448 
42.209 20.5893 -14.1448 49.7723 18.4029 -9.02261 -32.1672 25.9661 -14.1448 
-33.4236 25.9661 -12.3119 -25.8603 31.0122 -14.1448 27.0825 31.8772 -14.1448 
36.5422 25.9661 -14.1448 34.6458 27.271 -14.1448 42.209 25.9661 -10.3779 
-22.0947 33.5294 -14.1448 -25.8603 33.5294 -9.5641 -18.297 35.7144 -14.1448 
-10.7338 38.1008 -14.1448 -3.17052 39.8291 -14.1448 4.39274 39.6304 -14.1448 
11.956 37.8437 -14.1448 24.7167 33.5294 -14.1448 19.5193 35.8398 -14.1448 
27.0825 33.5294 -12.9077 34.6458 33.5294 -7.08314 -10.7338 41.0927 -11.0816 
-3.17052 41.0927 -13.174 4.39274 41.0927 -12.9434 11.956 41.0927 -10.5981 
-25.8603 -36.7348 -6.58155 -18.297 -39.5901 -6.58155 -10.7338 -41.0937 -6.58155 
-10.7338 -42.1032 0.281251 -3.17052 -41.0251 -6.58155 4.39274 -39.8506 -6.58155 
11.956 -38.9723 -6.58155 19.5193 -38.7489 -6.58155 27.0825 -37.1767 -6.58155 
34.6458 -34.8844 -6.58155 -40.9868 -27.7925 -6.58155 -30.4341 -34.5399 -6.58155 
-33.4236 -32.89 -6.58155 -33.4236 -34.5399 -3.24969 35.3633 -34.5399 -6.58155 
34.6458 -34.5399 -3.54063 42.209 -30.5119 -6.58155 -41.9847 -26.9767 -6.58155 
-48.5501 -19.4498 -6.58155 45.9761 -26.9767 -6.58155 49.7723 -22.3883 -6.58155 
-48.5735 -19.4134 -6.58155 51.8635 -19.4134 -6.58155 -52.5746 -11.8502 -6.58155 
-56.1133 -11.8502 0.169189 55.4261 -11.8502 -6.58155 57.3356 -4.95629 -6.58155 
-53.1159 -4.2869 -6.58155 57.3356 -0.672325 -6.58155 57.3356 -4.2869 -5.62142 
-51.4424 3.27636 -6.58155 -48.5501 10.0801 -6.58155 57.1372 3.27636 -6.58155 
-48.1952 10.8396 -6.58155 -48.5501 10.8396 -5.36746 55.1848 10.8396 -6.58155 
-43.0186 18.4029 -6.58155 -40.9868 20.6766 -6.58155 51.4412 18.4029 -6.58155 
49.7723 20.5715 -6.58155 49.7723 18.4029 -0.329503 -36.059 25.9661 -6.58155 
-33.4236 28.3849 -6.58155 45.0531 25.9661 -6.58155 42.209 28.5755 -6.58155 
-27.3497 33.5294 -6.58155 -25.8603 34.7932 -6.58155 -18.297 40.0021 -6.58155 
19.5193 40.3913 -6.58155 27.0825 37.351 -6.58155 35.0711 33.5294 -6.58155 
34.6458 33.7862 -6.58155 34.6458 33.5294 -4.91883 -16.2091 41.0927 -6.58155 
-10.7338 43.7486 -6.58155 -3.17052 45.3765 -6.58155 4.39274 45.0415 -6.58155 
17.5432 41.0927 -6.58155 11.956 43.1758 -6.58155 -10.7338 -42.1989 0.981715 
-33.4236 -36.1072 0.981715 -25.8603 -39.8798 0.981715 -11.9155 -42.1032 0.981715 
-18.297 -41.5629 0.981715 -9.19013 -42.1032 0.981715 -10.7338 -42.1032 1.64718 
-3.17052 -41.7288 0.981715 4.39274 -40.4494 0.981715 11.956 -39.4613 0.981715 
19.5193 -38.5795 0.981715 27.0825 -36.9252 0.981715 -36.4901 -34.5399 0.981715 
-40.9868 -32.1957 0.981715 33.3798 -34.5399 0.981715 34.6458 -34.0028 0.981715 
42.209 -28.7131 0.981715 -47.4401 -26.9767 0.981715 -48.5501 -25.7686 0.981715 
44.1033 -26.9767 0.981715 42.209 -26.9767 3.72184 49.7723 -19.8886 0.981715 
-53.0724 -19.4134 0.981715 -56.1133 -12.5206 0.981715 50.1089 -19.4134 0.981715 
49.7723 -19.4134 1.51832 -56.373 -11.8502 0.981715 -56.1133 -5.21616 0.981715 
-56.1133 -11.8502 3.17191 54.0447 -11.8502 0.981715 49.7723 -11.8502 7.48779 
-56.0732 -4.2869 0.981715 56.0928 -4.2869 0.981715 -54.0052 3.27636 0.981715 
55.8376 3.27636 0.981715 -50.4359 10.8396 0.981715 -48.5501 13.3526 0.981715 
54.0324 10.8396 0.981715 49.7723 17.8241 0.981715 49.7723 10.8396 5.94862 
-44.5557 18.4029 0.981715 -40.9868 22.0219 0.981715 49.412 18.4029 0.981715 
42.209 18.4029 8.45492 -36.6705 25.9661 0.981715 -33.4236 28.6623 0.981715 
34.6458 32.5816 0.981715 42.9764 25.9661 0.981715 42.209 26.6703 0.981715 
42.209 25.9661 1.71846 -27.3461 33.5294 0.981715 -25.8603 34.7848 0.981715 
-18.297 40.4197 0.981715 19.5193 40.0857 0.981715 33.1539 33.5294 0.981715 
27.0825 36.8526 0.981715 27.0825 33.5294 7.33166 -17.1965 41.0927 0.981715 
-10.7338 44.6486 0.981715 -3.17052 46.3138 0.981715 4.39274 45.6312 0.981715 
17.0446 41.0927 0.981715 11.956 43.1984 0.981715 -33.4236 -35.1264 8.54498 
-25.8603 -37.829 8.54498 -18.297 -40.099 8.54498 -10.7338 -41.0344 8.54498 
-3.17052 -40.7673 8.54498 4.39274 -39.6647 8.54498 11.956 -38.6358 8.54498 
19.5193 -37.503 8.54498 27.0825 -35.2794 8.54498 -34.4576 -34.5399 8.54498 
-40.9868 -29.982 8.54498 -33.4236 -34.5399 9.35668 -25.8603 -34.5399 12.2266 
-18.297 -34.5399 15.2107 -10.7338 -34.5399 15.8491 -3.17052 -34.5399 15.6968 
4.39274 -34.5399 15.1245 11.956 -34.5399 15.123 19.5193 -34.5399 13.0396 
28.4876 -34.5399 8.54498 27.0825 -34.5399 9.60955 34.6458 -29.9778 8.54498 
-44.8347 -26.9767 8.54498 -48.5501 -23.7177 8.54498 -40.9868 -26.9767 12.2524 
-33.4236 -26.9767 14.8768 27.0825 -26.9767 15.7644 38.2393 -26.9767 8.54498 
34.6458 -26.9767 11.1668 42.209 -22.6644 8.54498 -51.8371 -19.4134 8.54498 
-48.5501 -19.4134 12.9872 34.6458 -19.4134 14.9338 44.7472 -19.4134 8.54498 
42.209 -19.4134 10.6414 -55.2701 -11.8502 8.54498 -48.5501 -11.8502 15.8111 
34.6458 -11.8502 15.589 48.7729 -11.8502 8.54498 42.209 -11.8502 13.0947 
49.7723 -8.68036 8.54498 -55.6218 -4.2869 8.54498 42.209 -4.2869 14.2103 
50.944 -4.2869 8.54498 49.7723 -4.2869 9.58712 -54.0467 3.27636 8.54498 
34.6458 3.27636 15.898 42.209 3.27636 13.5999 50.4648 3.27636 8.54498 
49.7723 5.0422 8.54498 49.7723 3.27636 9.15424 -50.8022 10.8396 8.54498 
-48.5501 13.9494 8.54498 -48.5501 10.8396 14.9992 27.0825 10.8396 16.0952 
34.6458 10.8396 14.322 46.7103 10.8396 8.54498 42.209 18.2114 8.54498 
42.209 10.8396 11.5085 -44.945 18.4029 8.54498 -40.9868 22.2759 8.54498 
27.0825 18.4029 14.8078 42.0636 18.4029 8.54498 34.6458 18.4029 12.0974 
-36.4908 25.9661 8.54498 -33.4236 28.2772 8.54498 -33.4236 25.9661 14.3307 
19.5193 25.9661 16.0752 27.0825 32.5166 8.54498 27.0825 25.9661 13.0515 
35.3363 25.9661 8.54498 34.6458 26.5826 8.54498 34.6458 25.9661 9.00479 
-26.1409 33.5294 8.54498 -25.8603 33.7372 8.54498 -25.8603 33.5294 8.97465 
-18.297 39.3549 8.54498 11.956 33.5294 15.9855 25.7809 33.5294 8.54498 
19.5193 37.2913 8.54498 19.5193 33.5294 12.524 -15.5776 41.0927 8.54498 
-10.7338 43.8187 8.54498 -10.7338 41.0927 13.3533 -3.17052 45.3581 8.54498 
-3.17052 41.0927 15.5416 4.39274 44.4196 8.54498 4.39274 41.0927 13.785 
[...]
POINT_DATA 507
SCALARS ImageScalars float
LOOKUP_TABLE default
0 0 0 0 0 0 0 0 0 
0 0 0 0 0 0 0 0 0 
0 0 0 0 0 0 0 0 0 
0 0 0 0 0 0 0 0 0 
0 0 0 0 0 0 0 0 0 
0 0 0 0 0 0 0 0 0 
0 0 0 0 0 0 0 0 0 
0 0 0 0 0 0 0 0 0 
0 0 0 0 0 0 0 0 0 
0 0 0 0 0 0 0 0 0 
0 0 0 0 0 0 0 0 0 
0 0 0 0 0 0 0 0 0 
0 0 0 0 0 0 0 0 0 
0 0 0 0 0 0 0 0 0 
0 0 0 0 0 0 0 0 0 
0 0 0 0 0 0 0 0 0 
0 0 0 0 0 0 0 0 0 
0 0 0 0 0 0 0 0 0 
0 0 0 0 0 0 0 0 0 
0 0 0 0 0 0 0 0 0 
0 0 0 0 0 0 0 0 0 
0 0 0 0 0 0 0 0 0 
0 0 0 0 0 0 0 0 0 
0 0 0 0 0 0 0 0 0 
0 0 0 0 0 0 0 0 0 
0 0 0 0 0 0 0 0 0 
0 0 0 0 0 0 0 0 0 
0 0 0 0 0 0 0 0 0 
0 0 0 0 0 0 0 0 0 
0 0 0 0 0 0 0 0 0 
0 0 0 0 0 0 0 0 0 
0 0 0 0 0 0 0 0 0 
0 0 0 0 0 0 0 0 0 
0 0 0 0 0 0 0 0 0 
0 0 0 0 0 0 0 0 0 
0 0 0 0 0 0 0 0 0 
0 0 0 0 0 0 0 0 0 
0 0 0 0 0 0 0 0 0 
0 0 0 0 0 0 0 0 0 
0 0 0 0 0 0 0 0 0 
0 0 0 0 0 0 0 0 0 
0 0 0 0 0 0 0 0 0 
0 0 0 0 0 0 0 0 0 
0 0 0 0 0 0 0 0 0 
0 0 0 0 0 0 0 0 0 
0 0 0 0 0 0 0 0 0 
0 0 0 0 0 0 0 0 0 
0 0 0 0 0 0 0 0 0 
0 0 0 0 0 0 0 0 0 
0 0 0 0 0 0 0 0 0 
0 0 0 0 0 0 0 0 0 
0 0 0 0 0 0 0 0 0 
0 0 0 0 0 0 0 0 0 
0 0 0 0 0 0 0 0 0 
0 0 0 0 0 0 0 0 0 
0 0 0 0 0 0 0 0 0 
0 0 0 
NORMALS Normals float
0.222951 0.429184 0.875268 0.0975214 0.463498 0.880715 0.00884538 0.588794 0.808235 
-0.0146944 0.694446 0.719395 -0.0428349 0.740641 0.670534 -0.20828 0.780247 0.589774 
0.230687 0.145472 0.962092 0.202393 0.0545747 0.977782 0.175662 0.0616789 0.982516 
0.143775 0.176042 0.973826 0.0776386 0.245902 0.96618 0.0174358 0.274477 0.961436 
-0.129491 0.315261 0.940129 -0.311113 0.453399 0.835247 -0.577177 0.569117 0.585639 
0.101781 0.0176861 0.99465 0.136763 -0.0240726 0.990311 0.235401 0.028077 0.971493 
0.230614 0.102072 0.967677 0.116576 0.0606182 0.99133 0.0269492 0.0134563 0.999546 
-0.020785 0.0496937 0.998548 -0.166432 0.143665 0.975531 -0.448288 0.255835 0.856496 
0.117274 0.240876 0.963445 -0.0333585 0.214911 0.976064 0.0146152 0.133531 0.990937 
0.232255 0.297571 0.926018 0.26982 0.123441 0.954966 0.154176 0.0539612 0.986569 
-0.018141 0.0583939 0.998129 0.00749075 -0.117703 0.993021 -0.00393037 -0.0944091 0.995526 
-0.119054 -0.0483838 0.991708 -0.30716 0.0697079 0.949101 -0.610541 0.226496 0.758906 
0.318995 0.181478 0.930219 0.115458 0.226175 0.96722 -0.0108409 0.20355 0.979004 
0.169776 0.265842 0.948949 0.156057 0.230568 0.960461 -0.061684 0.0128578 0.998013 
0.181103 -0.0732249 0.980734 -0.0662883 0.0113691 0.997736 -0.111618 -0.156373 0.981371 
0.0433468 -0.12139 0.991658 -0.0193739 -0.0782581 0.996745 -0.206026 -0.0230685 0.978275 
-0.51449 0.0545382 0.855761 0.425694 0.0167539 0.904712 0.103293 0.108744 0.988689 
-0.00472762 0.155053 0.987895 0.116787 0.13889 0.983397 0.0100305 -0.0605635 0.998114 
-0.0773901 0.144242 0.986512 0.15299 -0.0169932 0.988082 -0.14262 -0.242152 0.959699 
-0.0642692 -0.10942 0.991916 0.089439 -0.0884467 0.992057 -0.0230389 -0.0834626 0.996245 
-0.189448 -0.0911929 0.977647 -0.512184 -0.138863 0.847576 0.559206 -0.226704 0.79743 
0.2229 -0.0727652 0.972122 0.016346 0.0506228 0.998584 0.00938817 0.0670052 0.997708 
0.0971809 -0.068155 0.99293 -0.0179529 -0.0185121 0.999667 -0.172548 -0.134322 0.9758 
-0.132432 -0.15324 0.979275 0.0212202 0.00912152 0.999733 0.0645288 -0.0382743 0.997182 
-0.0257449 -0.152075 0.988034 -0.260187 -0.217026 0.940852 -0.527332 -0.317412 0.788144 
0.38453 -0.286995 0.877366 0.134493 -0.12819 0.982588 0.00482568 -0.0267584 0.99963 
-0.0733188 -0.0529014 0.995905 -0.111694 -0.149492 0.982434 -0.0430079 -0.0677675 0.996774 
0.0297589 0.00547467 0.999542 0.0408349 0.0579351 0.997485 -0.0711383 -0.0974083 0.992699 
-0.191882 -0.201846 0.960437 -0.340901 -0.337806 0.87731 0.295676 -0.394626 0.869969 
0.0878531 -0.227449 0.969819 -0.0333577 -0.134754 0.990317 -0.0465284 -0.0538999 0.997462 
-0.0169727 -0.00926564 0.999813 0.00402308 -0.0663388 0.997789 -0.0807554 -0.146871 0.985854 
-0.195906 -0.27892 0.940119 -0.296516 -0.394372 0.869798 0.252652 -0.534016 0.806841 
0.102468 -0.387183 0.916291 0.0225318 -0.26075 0.965144 -0.055293 -0.273769 0.960205 
-0.107297 -0.332029 0.937147 -0.181905 -0.466574 0.865574 0.221731 0.471896 0.853317 
0.0648297 0.615484 0.785478 -0.037394 0.731382 0.680942 -0.0357238 0.796564 0.603498 
-0.0512344 0.819324 0.571036 -0.215259 0.824011 0.52409 0.360787 0.637768 0.680503 
0.242215 0.436039 0.866719 0.233741 0.155906 0.959718 0.311608 0.512793 0.799965 
-0.279117 0.803968 0.525099 -0.392119 0.716451 0.57701 -0.38174 0.912088 0.149565 
-0.578963 0.574633 0.578445 0.466063 0.563754 0.681885 0.332121 0.452179 0.827786 
0.229017 0.150074 0.961784 0.196968 0.270602 0.942326 -0.583184 0.570655 0.578142 
0.690728 0.413698 0.593084 0.30663 0.367372 0.878075 0.13068 0.240096 0.961913 
0.149998 0.246378 0.957496 0.0972115 0.119279 0.98809 0.0735676 0.177004 0.981457 
0.0944785 0.168994 0.981078 -0.61885 0.392995 0.680132 -0.647911 0.316835 0.692695 
-0.768614 0.487195 0.414577 0.565921 0.205125 0.798534 0.210337 0.236471 0.948599 
0.305684 0.206968 0.929366 0.297823 0.231802 0.92605 -0.668976 0.234122 0.705449 
0.409628 0.147822 0.900197 0.649415 0.0485813 0.75888 -0.672393 0.0661978 0.737228 
-0.977543 0.106342 0.181938 0.549345 -0.0453073 0.834366 0.745901 -0.173397 0.643091 
-0.66559 -0.127299 0.735381 0.622906 -0.261807 0.737187 0.639822 -0.345167 0.686649 
-0.532747 -0.319288 0.783732 -0.531502 -0.326029 0.7818 0.627797 -0.436682 0.644344 
0.723627 -0.543531 0.425369 0.584903 -0.577317 0.569731 -0.415887 -0.371031 0.830285 
-0.398686 -0.388336 0.83081 -0.771123 -0.54927 0.321983 0.570756 -0.595099 0.565769 
0.625645 -0.644435 0.439626 0.472371 -0.632258 0.614097 -0.302244 -0.535011 0.788931 
-0.349333 -0.432449 0.831237 -0.323218 -0.447093 0.834049 -0.605927 -0.651592 0.456377 
0.402095 -0.64007 0.654699 0.588401 -0.74958 0.303173 0.309148 -0.628756 0.713508 
0.169635 -0.598301 0.783109 0.0602618 -0.608492 0.791269 -0.0743959 -0.612129 0.787251 
-0.152436 -0.576232 0.802944 -0.284746 -0.565775 0.773833 -0.228248 -0.58497 0.778276 
-0.352167 -0.659859 0.66375 -0.475211 -0.859774 0.186982 0.265837 -0.797066 0.542233 
0.0700585 -0.700806 0.709904 -0.092284 -0.728751 0.678532 -0.246881 -0.84484 0.474653 
0.355262 0.757161 0.548175 0.252153 0.851158 0.460379 0.0836353 0.935155 0.344225 
0.0151758 0.999569 0.0251234 -0.0808569 0.964191 0.252582 -0.136442 0.968087 0.210217 
-0.0704598 0.978839 0.192119 -0.113532 0.983402 0.141533 -0.231441 0.968206 0.094931 
-0.37247 0.923531 0.0914142 0.475197 0.591335 0.651545 0.387966 0.72468 0.569493 
0.399133 0.694983 0.598073 0.432919 0.826211 0.360495 -0.392228 0.915514 0.0893924 
-0.403226 0.914399 -0.0358223 -0.617345 0.78356 0.0701361 0.494135 0.57341 0.653477 
0.691118 0.414704 0.591927 -0.71431 0.696049 0.0726366 -0.808507 0.581736 0.0888801 
0.691649 0.41399 0.591805 -0.84737 0.523594 0.0883899 0.746297 0.22241 0.627356 
0.969792 0.189255 0.153902 -0.932649 0.331436 0.142535 -0.979239 0.127075 0.157936 
0.835068 -0.073202 0.545254 -0.985318 -0.0114638 0.170344 -0.989147 0.108759 0.0987898 
0.84996 -0.262486 0.456804 0.828975 -0.421453 0.367665 -0.973204 -0.142661 0.180336 
0.824488 -0.440425 0.355311 0.829129 -0.460035 0.317669 -0.924102 -0.336391 0.18132 
0.755596 -0.59744 0.268589 0.732739 -0.633983 0.247305 -0.819965 -0.548389 0.164096 
-0.789825 -0.588259 0.173574 -0.793371 -0.515904 -0.32312 0.685474 -0.704246 0.184829 
0.663936 -0.729862 0.162756 -0.690678 -0.703549 0.16728 -0.638536 -0.752199 0.162689 
0.627032 -0.763795 0.153128 0.615335 -0.772379 0.157459 0.495511 -0.840375 0.219635 
-0.347195 -0.922035 0.171194 -0.403086 -0.894698 0.192451 -0.48114 -0.862897 0.154638 
-0.474461 -0.866874 0.153025 -0.487339 -0.871558 0.0537301 0.444956 -0.861844 0.243391 
0.301211 -0.905206 0.29979 0.0780718 -0.943348 0.32249 -0.139436 -0.946497 0.291033 
-0.329186 -0.927391 0.177716 -0.289199 -0.930594 0.224406 0.00924295 0.99995 -0.00386544 
0.441798 0.892541 0.090478 0.326941 0.943708 0.0502392 0.0298203 0.999555 0.000917265 
0.146689 0.988815 0.0269643 -0.0158873 0.999858 -0.00553608 0.0114721 0.999445 -0.0312816 
-0.114586 0.993313 -0.0141133 -0.148359 0.988856 -0.0123703 -0.126396 0.991724 -0.0225108 
-0.157687 0.984578 -0.0757629 -0.280505 0.952746 -0.116589 0.466948 0.88021 0.0847924 
0.534571 0.842077 0.0716937 -0.41318 0.887035 -0.206036 -0.442617 0.866262 -0.231689 
-0.629306 0.713953 -0.306992 0.715863 0.693347 0.0825281 0.749801 0.654771 0.0952597 
-0.669256 0.673673 -0.313466 -0.635876 0.654236 -0.409435 -0.786333 0.518528 -0.335871 
0.875988 0.463735 0.132647 0.971952 0.209613 0.106636 -0.791245 0.510669 -0.336376 
-0.783951 0.507385 -0.357744 0.976858 0.18489 0.107535 0.986262 -0.111883 0.121531 
0.979299 0.201615 -0.0180465 -0.886338 0.327198 -0.327637 -0.6994 0.294441 -0.651263 
0.980709 -0.151865 0.123071 -0.934893 0.10511 -0.339009 0.941174 -0.305527 0.14438 
-0.931913 -0.106973 -0.346549 0.832208 -0.53597 0.142004 0.80311 -0.583065 0.122675 
-0.844952 -0.360299 -0.395273 -0.765819 -0.485845 -0.42128 -0.663178 -0.373012 -0.648889 
0.742502 -0.663865 0.0892963 0.698644 -0.712253 0.0677585 -0.759441 -0.494955 -0.422218 
-0.505548 -0.40489 -0.761896 0.654389 -0.75589 0.0201569 0.633836 -0.773442 -0.00628877 
-0.502729 -0.800005 -0.3275 -0.64296 -0.656267 -0.394863 -0.630481 -0.669982 -0.391941 
-0.630182 -0.649118 -0.426047 0.636324 -0.770111 -0.0449541 0.632631 -0.772634 -0.053049 
0.55055 -0.833966 -0.0373432 -0.383289 -0.909979 -0.1582 -0.482651 -0.82181 -0.302781 
-0.414149 -0.878514 -0.238104 -0.467155 -0.69995 -0.540219 0.524228 -0.851044 -0.0301521 
0.338076 -0.941118 0.00076329 0.0593551 -0.998229 -0.00405048 -0.190791 -0.980818 -0.0399401 
-0.374702 -0.916901 -0.137447 -0.354756 -0.928438 -0.11023 0.416634 0.817121 -0.39841 
0.30993 0.831002 -0.461929 0.191945 0.899668 -0.392116 0.0381226 0.933705 -0.356007 
-0.0902921 0.937291 -0.33665 -0.141835 0.935202 -0.324469 -0.142074 0.942976 -0.301018 
-0.214353 0.911918 -0.34994 -0.380182 0.824154 -0.419799 0.432638 0.806847 -0.402271 
0.519861 0.733743 -0.437454 0.410886 0.792115 -0.451361 0.294352 0.671408 -0.680124 
0.186986 0.515077 -0.8365 0.0234173 0.464176 -0.885433 -0.0395371 0.472645 -0.880366 
-0.0344052 0.551181 -0.833676 -0.0944189 0.603933 -0.791423 -0.242936 0.725864 -0.643508 
-0.412881 0.798942 -0.437288 -0.385909 0.789265 -0.477635 -0.519982 0.640686 -0.564925 
0.586878 0.684448 -0.432557 0.680701 0.610022 -0.405609 0.451994 0.616637 -0.644562 
0.212596 0.468412 -0.857551 -0.340002 0.321313 -0.883831 -0.556425 0.575748 -0.599088 
-0.498663 0.518743 -0.694436 -0.602829 0.479712 -0.637552 0.789215 0.485893 -0.375565 
0.601926 0.467452 -0.647437 -0.348337 0.239749 -0.906191 -0.626995 0.415312 -0.659085 
-0.570095 0.375729 -0.73063 0.907609 0.232006 -0.349885 0.52558 0.251549 -0.812705 
-0.219535 0.0816841 -0.972179 -0.649485 0.273067 -0.709651 -0.440515 0.196042 -0.876079 
-0.667564 0.193182 -0.719054 0.964364 -0.0800376 -0.252184 -0.38621 0.02759 -0.921998 
-0.676493 0.0725526 -0.732866 -0.64251 0.0703219 -0.763043 0.948775 -0.269773 -0.164464 
-0.192673 -0.116153 -0.974364 -0.387906 -0.149416 -0.909507 -0.652716 -0.160104 -0.740492 
-0.630243 -0.205097 -0.748819 -0.631269 -0.163607 -0.758111 0.850991 -0.510179 -0.124624 
0.807937 -0.580319 -0.102315 0.785336 -0.44017 -0.435314 -0.153252 -0.118252 -0.981086 
-0.266647 -0.236495 -0.934328 -0.536975 -0.334119 -0.774611 -0.502318 -0.400866 -0.766148 
-0.432389 -0.301467 -0.849799 0.734247 -0.67191 -0.0970528 0.671669 -0.734658 -0.0955893 
-0.286141 -0.178025 -0.941504 -0.501507 -0.401257 -0.766475 -0.373978 -0.298059 -0.878238 
0.612249 -0.779311 -0.13351 0.589538 -0.79161 -0.160621 0.470362 -0.72824 -0.498424 
-0.271028 -0.219012 -0.937325 -0.463672 -0.639137 -0.613606 -0.40205 -0.360617 -0.841612 
-0.498511 -0.491261 -0.714247 -0.491085 -0.50196 -0.711949 -0.485126 -0.48005 -0.730893 
0.583881 -0.779577 -0.22659 0.583573 -0.778845 -0.229873 0.578654 -0.77628 -0.2501 
0.549724 -0.791479 -0.267142 -0.314283 -0.349331 -0.882719 -0.466596 -0.662941 -0.585489 
-0.455288 -0.74795 -0.482994 -0.432811 -0.547014 -0.716555 0.480779 -0.833191 -0.273212 
0.328265 -0.90187 -0.280842 0.313274 -0.762723 -0.565785 0.039119 -0.950832 -0.307227 
0.00908178 -0.670628 -0.741738 -0.238639 -0.91033 -0.338157 -0.253412 -0.716086 -0.650387 
-0.404713 -0.831703 -0.380101 -0.403864 -0.832492 -0.379277 -0.404022 -0.829818 -0.384926 
0.175498 0.362954 -0.915131 0.158803 0.402501 -0.90154 0.0200443 0.423682 -0.905589 
-0.0343705 0.401248 -0.915324 -0.0172373 0.389939 -0.920679 -0.0626565 0.44426 -0.893704 
-0.178508 0.411028 -0.893975 0.264779 0.371258 -0.889977 0.171296 0.363508 -0.915707 
0.17295 0.384592 -0.90674 0.167846 0.350612 -0.921357 0.105332 0.195833 -0.974964 
0.0147807 0.151934 -0.98828 -0.0174767 0.114117 -0.993314 -0.0119889 0.138084 -0.990348 
-0.00431065 0.177937 -0.984032 -0.301736 0.305213 -0.903217 -0.129591 0.250179 -0.959488 
-0.296034 0.238884 -0.924823 0.276218 0.365954 -0.888696 0.257243 0.361549 -0.896163 
0.13644 0.299094 -0.944419 0.038267 0.214132 -0.976055 -0.0139708 0.0723419 -0.997282 
-0.0512682 0.0463958 -0.997607 -0.0498968 0.0846734 -0.995159 0.0401178 0.10171 -0.994005 
0.0224403 -0.0122351 -0.999673 -0.0997465 -0.0469526 -0.993904 -0.249872 0.119223 -0.960911 
-0.19503 0.0629188 -0.978777 0.495517 0.254312 -0.830535 0.52655 0.23495 -0.817034 
0.234365 0.28805 -0.928493 0.0516526 0.266657 -0.962406 -0.0811631 0.17921 -0.980457 
-0.0749202 0.0959029 -0.992567 0.0313425 0.105108 -0.993967 0.0482882 0.164374 -0.985215 
-0.126122 0.168458 -0.977607 -0.151532 -0.0667317 -0.986197 -0.0499353 -0.0836708 -0.995242 
-0.161077 0.0502782 -0.98566 -0.091088 0.0113222 -0.995779 -0.1788 0.0335285 -0.983314 
0.668924 0.105459 -0.735812 0.585798 0.146522 -0.797102 0.215315 0.212822 -0.953072 
-0.00522079 0.193934 -0.981001 -0.141358 0.138986 -0.980154 -0.0847842 0.0759577 -0.9935 
0.00778936 -0.0250449 -0.999656 0.00660833 -0.0883466 -0.996068 -0.168275 -0.0857178 -0.982006 
-0.229491 0.0504072 -0.972005 -0.019753 0.000190497 -0.999805 -0.0292044 -0.00584305 -0.999556 
-0.1834 0.0212019 -0.98281 -0.178544 -0.0339347 -0.983346 -0.168136 0.0210464 -0.985539 
0.769056 -0.149766 -0.621388 0.766279 -0.378356 -0.519291 0.685272 -0.108888 -0.720101 
0.252991 -0.014919 -0.967354 -0.0296857 0.0117329 -0.99949 -0.209467 0.015944 -0.977686 
-0.22545 -0.00961225 -0.974207 -0.119105 -0.116369 -0.986039 -0.0111408 -0.0956299 -0.995355 
0.00876983 -0.224338 -0.974472 -0.0833502 -0.0252254 -0.996201 -0.10141 0.00965013 -0.994798 
-0.159871 -0.0988273 -0.982178 -0.151409 -0.116839 -0.981542 -0.0713983 -0.0553725 -0.99591 
0.752575 -0.417372 -0.509344 0.334632 -0.303759 -0.892049 0.0247421 -0.133037 -0.990802 
-0.162325 -0.0909085 -0.982541 -0.215149 -0.0081166 -0.976547 -0.0837051 0.0662623 -0.994285 
-0.106069 0.0475563 -0.993221 -0.101595 -0.0464388 -0.993741 0.0211426 -0.0648561 -0.997671 
-0.151609 -0.116589 -0.981541 -0.0606378 -0.0176626 -0.998004 0.606808 -0.596589 -0.525229 
0.5801 -0.623625 -0.524 0.560685 -0.576953 -0.593934 0.402034 -0.670823 -0.623189 
0.184141 -0.429177 -0.884251 -0.0633403 -0.177976 -0.981994 -0.0755236 -0.045675 -0.996097 
-0.062113 0.0920298 -0.993817 -0.126837 0.0690316 -0.989519 -0.10371 0.124458 -0.98679 
-0.0494074 0.0304742 -0.998314 -0.19913 -0.0896815 -0.975861 -0.265547 -0.210486 -0.94084 
-0.156189 -0.0466492 -0.986625 0.386282 -0.658861 -0.645514 0.349354 -0.60302 -0.71716 
0.225759 -0.487072 -0.843679 0.0667688 -0.175386 -0.982233 0.0286916 -0.0409891 -0.998748 
-0.0756417 0.024275 -0.99684 -0.132877 0.0606636 -0.989274 -0.268205 -0.215391 -0.938974 
-0.301549 -0.326684 -0.895737 -0.147332 -0.0728967 -0.986397 0.396785 -0.553215 -0.732472 
0.390921 -0.547271 -0.740051 0.360055 -0.48745 -0.795458 0.237692 -0.556554 -0.796084 
0.137677 -0.296168 -0.945161 0.00245635 -0.61293 -0.790133 -0.0156761 -0.21715 -0.976012 
-0.308352 -0.340516 -0.888239 -0.239185 -0.483717 -0.841908 -0.210923 -0.233454 -0.949216 

