# vtk DataFile Version 4.2
vtk output
ASCII
DATASET POLYDATA
POINTS 536 float
-26.5615 -29.0647 -19.5117 -26.5615 -21.0546 -19.5833 -34.5716 -13.0445 -20.3028 
-34.5716 -5.03441 -20.0938 -26.5615 -45.0849 -15.1607 -18.5514 -45.0849 -16.1834 
-10.5413 -45.0849 -16.4418 -2.53123 -45.0849 -15.7536 5.47888 -45.0849 -14.6738 
13.489 -45.0849 -13.2591 -34.5716 -37.0748 -15.4905 -26.5615 -29.0727 -19.5107 
-26.5615 -37.0748 -18.4248 -18.5514 -37.0748 -18.5819 -10.5413 -37.0748 -18.3944 
-2.53123 -37.0748 -17.8485 5.47888 -37.0748 -17.2426 13.489 -37.0748 -16.7468 
21.4991 -37.0748 -15.3998 29.5092 -37.0748 -13.1394 -42.5817 -29.0647 -13.7488 
-26.574 -29.0647 -19.5107 -34.5716 -29.0647 -18.7813 -26.5188 -29.0647 -19.5107 
-18.5514 -29.0647 -19.3365 -10.5413 -29.0647 -18.7128 -2.53123 -29.0647 -18.1019 
5.47888 -29.0647 -17.7272 13.489 -29.0647 -18.0378 21.4991 -29.0647 -16.7532 
29.5092 -29.0647 -15.7624 37.5193 -29.0647 -14.1089 45.5294 -29.0647 -12.7209 
-42.5817 -21.0546 -17.2657 -28.8983 -21.0546 -19.5107 -34.5716 -19.5542 -19.5107 
-34.5716 -21.0546 -19.3277 -24.9033 -21.0546 -19.5107 -26.5615 -18.1421 -19.5107 
-18.5514 -21.0546 -19.2119 -10.5413 -21.0546 -17.9225 -2.53123 -21.0546 -17.1462 
5.47888 -21.0546 -16.7869 13.489 -21.0546 -16.8553 21.4991 -21.0546 -16.7588 
29.5092 -21.0546 -16.0288 37.5193 -21.0546 -15.5048 45.5294 -21.0546 -14.8334 
53.5395 -21.0546 -12.2911 -50.5918 -13.0445 -13.4744 -41.5973 -13.0445 -19.5107 
-42.5817 -13.0445 -19.3808 -27.7028 -13.0445 -19.5107 -26.5615 -13.0445 -19.3835 
-18.5514 -13.0445 -17.9001 -10.5413 -13.0445 -16.4891 -2.53123 -13.0445 -16.4372 
5.47888 -13.0445 -15.4491 13.489 -13.0445 -15.0943 21.4991 -13.0445 -15.3887 
29.5092 -13.0445 -16.0116 37.5193 -13.0445 -16.6031 45.5294 -13.0445 -15.697 
53.5395 -13.0445 -12.3686 -50.5918 -5.03441 -15.1028 -37.7596 -5.03441 -19.5107 
-42.5817 -5.03441 -18.6596 -30.4593 -5.03441 -19.5107 -34.5716 0.638654 -19.5107 
-26.5615 -5.03441 -18.919 -18.5514 -5.03441 -16.4567 -10.5413 -5.03441 -15.8648 
-2.53123 -5.03441 -17.1133 5.47888 -5.03441 -15.9389 13.489 -5.03441 -14.8576 
21.4991 -5.03441 -14.9604 29.5092 -5.03441 -15.8376 37.5193 -5.03441 -16.3469 
45.5294 -5.03441 -15.3518 53.5395 -5.03441 -12.9136 -50.5918 2.97569 -15.1488 
-42.5817 2.97569 -19.0604 -34.5716 2.97569 -19.2708 -26.5615 2.97569 -18.1276 
-18.5514 2.97569 -16.0361 -10.5413 2.97569 -16.6544 -2.53123 2.97569 -14.7842 
5.47888 2.97569 -14.7309 13.489 2.97569 -16.0731 21.4991 2.97569 -15.0127 
29.5092 2.97569 -15.4827 37.5193 2.97569 -15.575 45.5294 2.97569 -14.5072 
53.5395 2.97569 -12.0746 -50.5918 10.9858 -14.4664 -42.5817 10.9858 -17.3467 
-34.5716 10.9858 -17.8807 -26.5615 10.9858 -17.1564 -18.5514 10.9858 -15.3915 
-10.5413 10.9858 -13.5369 -2.53123 10.9858 -16.0289 5.47888 10.9858 -13.1422 
13.489 10.9858 -13.1064 21.4991 10.9858 -14.3479 29.5092 10.9858 -14.7796 
37.5193 10.9858 -14.4128 45.5294 10.9858 -13.1215 -50.5918 18.9959 -12.0477 
-42.5817 18.9959 -15.9197 -34.5716 18.9959 -17.4475 -26.5615 18.9959 -16.5154 
-18.5514 18.9959 -15.5067 -10.5413 18.9959 -15.2278 -2.53123 18.9959 -15.5204 
5.47888 18.9959 -13.1016 13.489 18.9959 -12.8167 21.4991 18.9959 -13.4657 
29.5092 18.9959 -13.9645 37.5193 18.9959 -13.3717 -42.5817 27.006 -13.4971 
-34.5716 27.006 -15.0676 -26.5615 27.006 -15.9902 -18.5514 27.006 -15.8743 
-10.5413 27.006 -16.1452 -2.53123 27.006 -15.5046 5.47888 27.006 -13.7486 
13.489 27.006 -12.7854 21.4991 27.006 -12.7006 29.5092 27.006 -12.7728 
-34.5716 35.0161 -12.7093 -26.5615 35.0161 -14.6152 -18.5514 35.0161 -15.2063 
-10.5413 35.0161 -15.7573 -2.53123 35.0161 -14.6278 5.47888 35.0161 -12.6044 
13.489 35.0161 -11.8716 -10.5413 43.0262 -11.7622 -26.5615 -48.042 -11.5006 
-18.5514 -51.0167 -11.5006 -10.5413 -51.7282 -11.5006 -10.5413 -53.095 -4.8691 
-2.53123 -50.5056 -11.5006 5.47888 -48.9026 -11.5006 13.489 -47.1636 -11.5006 
-31.507 -45.0849 -11.5006 -34.5716 -42.7489 -11.5006 19.0549 -45.0849 -11.5006 
21.4991 -43.7927 -11.5006 21.4991 -45.0849 -9.72485 29.5092 -39.9317 -11.5006 
-39.4241 -37.0748 -11.5006 -42.5817 -32.4693 -11.5006 35.9828 -37.0748 -11.5006 
37.5193 -36.1187 -11.5006 37.5193 -37.0748 -10.472 45.5294 -30.8529 -11.5006 
-44.5596 -29.0647 -11.5006 47.7052 -29.0647 -11.5006 53.5395 -22.6589 -11.5006 
53.5395 -29.0647 -4.96179 -49.2457 -21.0546 -11.5006 -50.5918 -17.774 -11.5006 
54.7701 -21.0546 -11.5006 -52.3528 -13.0445 -11.5006 55.3124 -13.0445 -11.5006 
61.5496 -13.0445 -7.18421 -54.3395 -5.03441 -11.5006 56.397 -5.03441 -11.5006 
61.5496 -5.03441 -8.17192 -55.0426 2.97569 -11.5006 54.6678 2.97569 -11.5006 
53.5395 7.67893 -11.5006 61.5496 2.97569 -7.19452 -54.2358 10.9858 -11.5006 
-58.6019 10.9858 -3.73759 51.9471 10.9858 -11.5006 45.5294 16.5886 -11.5006 
53.5395 10.9858 -10.9492 -51.2159 18.9959 -11.5006 -50.5918 20.6362 -11.5006 
43.5626 18.9959 -11.5006 37.5193 24.9372 -11.5006 45.5294 18.9959 -10.7938 
53.5395 18.9959 -6.83704 -46.5638 27.006 -11.5006 -50.5918 27.006 -8.30261 
-42.5817 31.9996 -11.5006 21.4991 32.0447 -11.5006 34.7901 27.006 -11.5006 
29.5092 30.3264 -11.5006 37.5193 27.006 -10.7867 45.5294 27.006 -8.46918 
-38.6124 35.0161 -11.5006 -42.5817 35.0161 -9.70176 -34.5716 37.0603 -11.5006 
-26.5615 40.7616 -11.5006 -18.5514 42.8632 -11.5006 -2.53123 41.6969 -11.5006 
5.47888 37.8144 -11.5006 16.3874 35.0161 -11.5006 13.489 36.2881 -11.5006 
21.4991 35.0161 -10.7243 29.5092 35.0161 -9.4643 37.5193 35.0161 -7.77035 
-34.5716 43.0262 -5.48562 -26.5615 43.0262 -9.41619 -16.6556 43.0262 -11.5006 
-18.5514 43.0262 -11.3945 -8.23625 43.0262 -11.5006 -10.5413 43.3618 -11.5006 
-2.53123 43.0262 -10.726 5.47888 43.0262 -9.08744 13.489 43.0262 -8.50909 
21.4991 43.0262 -6.71322 29.5092 43.0262 -4.40459 -10.5413 -53.2995 -3.49049 
-26.5615 -50.5426 -3.49049 -15.3632 -53.095 -3.49049 -18.5514 -52.9616 -3.49049 
-8.84862 -53.095 -3.49049 -10.5413 -53.095 -2.91793 -2.53123 -52.3315 -3.49049 
5.47888 -51.2085 -3.49049 13.489 -49.8134 -3.49049 21.4991 -47.5064 -3.49049 
-34.5587 -45.0849 -3.49049 -34.5716 -45.0726 -3.49049 27.396 -45.0849 -3.49049 
21.4991 -45.0849 3.85504 29.5092 -44.1642 -3.49049 37.5193 -39.8494 -3.49049 
-41.0121 -37.0748 -3.49049 -42.5817 -34.517 -3.49049 42.3111 -37.0748 -3.49049 
37.5193 -37.0748 4.44002 45.5294 -35.0477 -3.49049 53.5395 -29.909 -3.49049 
-45.7026 -29.0647 -3.49049 54.4713 -29.0647 -3.49049 53.5395 -29.0647 -0.811534 
-50.3321 -21.0546 -3.49049 -50.5918 -20.4621 -3.49049 60.435 -21.0546 -3.49049 
61.5496 -18.7854 -3.49049 -53.5007 -13.0445 -3.49049 64.0141 -13.0445 -3.49049 
-56.6454 -5.03441 -3.49049 64.9459 -5.03441 -3.49049 -58.4867 2.97569 -3.49049 
-58.6019 7.58833 -3.49049 64.4022 2.97569 -3.49049 61.5496 9.8833 -3.49049 
-58.6868 10.9858 -3.49049 -58.6019 11.3855 -3.49049 -58.6019 10.9858 -2.70678 
60.9014 10.9858 -3.49049 61.5496 10.9858 1.79028 -56.9177 18.9959 -3.49049 
57.0346 18.9959 -3.49049 53.5395 23.7608 -3.49049 -53.4844 27.006 -3.49049 
-50.5918 31.5873 -3.49049 51.1695 27.006 -3.49049 45.5294 33.1751 -3.49049 
53.5395 27.006 4.14175 -47.7623 35.0161 -3.49049 -42.5817 39.552 -3.49049 
43.4656 35.0161 -3.49049 37.5193 39.5425 -3.49049 45.5294 35.0161 1.40558 
-36.746 43.0262 -3.49049 -34.5716 44.1009 -3.49049 -26.5615 46.8989 -3.49049 
-18.5514 48.8631 -3.49049 -10.5413 49.1826 -3.49049 -2.53123 49.1169 -3.49049 
5.47888 48.6361 -3.49049 13.489 47.6892 -3.49049 21.4991 45.9429 -3.49049 
31.1269 43.0262 -3.49049 29.5092 43.8299 -3.49049 -26.5615 -47.5016 4.51961 
-18.5514 -49.2355 4.51961 -10.5413 -49.475 4.51961 -2.53123 -48.3997 4.51961 
5.47888 -47.539 4.51961 13.489 -46.4593 4.51961 -30.3057 -45.0849 4.51961 
-34.5716 -41.2506 4.51961 -26.5615 -45.0849 7.31995 -18.5514 -45.0849 8.4941 
-10.5413 -45.0849 8.41957 -2.53123 -45.0849 7.66874 5.47888 -45.0849 7.00452 
20.1965 -45.0849 4.51961 13.489 -45.0849 6.16174 21.4991 -44.7597 4.51961 
29.5092 -40.4844 4.51961 -38.0002 -37.0748 4.51961 -42.5817 -29.9302 4.51961 
-34.5716 -37.0748 8.39059 -26.5615 -37.0748 12.0829 -2.53123 -37.0748 12.2599 
5.47888 -37.0748 12.0422 13.489 -37.0748 12.099 21.4991 -37.0748 10.21 
37.4318 -37.0748 4.51961 29.5092 -37.0748 7.29424 37.5193 -37.0315 4.51961 
45.5294 -32.2646 4.51961 -43.082 -29.0647 4.51961 -42.5817 -29.0647 5.25434 
29.5092 -29.0647 11.8802 37.5193 -29.0647 9.50956 50.4642 -29.0647 4.51961 
45.5294 -29.0647 7.36688 53.5395 -26.6934 4.51961 -47.549 -21.0546 4.51961 
-50.5918 -15.3673 4.51961 -42.5817 -21.0546 10.9656 45.5294 -21.0546 10.7279 
58.3725 -21.0546 4.51961 53.5395 -21.0546 8.55054 61.5496 -15.5321 4.51961 
-51.8132 -13.0445 4.51961 -50.5918 -13.0445 6.54981 53.5395 -13.0445 12.2562 
62.6922 -13.0445 4.51961 61.5496 -13.0445 5.80531 -55.0646 -5.03441 4.51961 
-50.5918 -5.03441 11.9743 53.5395 -5.03441 12.186 64.6899 -5.03441 4.51961 
61.5496 -5.03441 8.31672 -57.6721 2.97569 4.51961 53.5395 2.97569 12.5006 
63.9493 2.97569 4.51961 61.5496 2.97569 7.70254 -57.7397 10.9858 4.51961 
53.5395 10.9858 12.1967 61.7991 10.9858 4.51961 61.5496 11.665 4.51961 
61.5496 10.9858 4.96404 -56.3851 18.9959 4.51961 58.6937 18.9959 4.51961 
53.5395 18.9959 10.9068 -53.4406 27.006 4.51961 -50.5918 31.5901 4.51961 
-50.5918 27.006 9.49747 53.6439 27.006 4.51961 53.5395 27.1419 4.51961 
53.5395 27.006 4.73738 -47.8706 35.0161 4.51961 -42.5817 39.7424 4.51961 
-42.5817 35.0161 9.85219 37.5193 42.1899 4.51961 46.6193 35.0161 4.51961 
45.5294 36.0832 4.51961 45.5294 35.0161 7.04632 -37.0561 43.0262 4.51961 
-34.5716 44.2502 4.51961 -34.5716 43.0262 6.93748 -26.5615 46.8857 4.51961 
-26.5615 43.0262 11.2255 -18.5514 49.0232 4.51961 -10.5413 49.7894 4.51961 
-2.53123 50.5381 4.51961 5.47888 50.9975 4.51961 13.489 50.9334 4.51961 
21.4991 49.0177 4.51961 36.0388 43.0262 4.51961 29.5092 46.3418 4.51961 
29.5092 43.0262 10.8859 -18.5514 -39.1163 12.5297 -10.5413 -37.4746 12.5297 
-34.5716 -29.5089 12.5297 -24.5055 -37.0748 12.5297 -26.5615 -36.0335 12.5297 
-18.5514 -37.0748 13.6221 -7.22291 -37.0748 12.5297 -10.5413 -37.0748 12.7213 
[...]
POINT_DATA 536
SCALARS ImageScalars float
LOOKUP_TABLE default
0 0 0 0 0 0 0 0 0 
0 0 0 0 0 0 0 0 0 
0 0 0 0 0 0 0 0 0 
0 0 0 0 0 0 0 0 0 
0 0 0 0 0 0 0 0 0 
0 0 0 0 0 0 0 0 0 
0 0 0 0 0 0 0 0 0 
0 0 0 0 0 0 0 0 0 
0 0 0 0 0 0 0 0 0 
0 0 0 0 0 0 0 0 0 
0 0 0 0 0 0 0 0 0 
0 0 0 0 0 0 0 0 0 
0 0 0 0 0 0 0 0 0 
0 0 0 0 0 0 0 0 0 
0 0 0 0 0 0 0 0 0 
0 0 0 0 0 0 0 0 0 
0 0 0 0 0 0 0 0 0 
0 0 0 0 0 0 0 0 0 
0 0 0 0 0 0 0 0 0 
0 0 0 0 0 0 0 0 0 
0 0 0 0 0 0 0 0 0 
0 0 0 0 0 0 0 0 0 
0 0 0 0 0 0 0 0 0 
0 0 0 0 0 0 0 0 0 
0 0 0 0 0 0 0 0 0 
0 0 0 0 0 0 0 0 0 
0 0 0 0 0 0 0 0 0 
0 0 0 0 0 0 0 0 0 
0 0 0 0 0 0 0 0 0 
0 0 0 0 0 0 0 0 0 
0 0 0 0 0 0 0 0 0 
0 0 0 0 0 0 0 0 0 
0 0 0 0 0 0 0 0 0 
0 0 0 0 0 0 0 0 0 
0 0 0 0 0 0 0 0 0 
0 0 0 0 0 0 0 0 0 
0 0 0 0 0 0 0 0 0 
0 0 0 0 0 0 0 0 0 
0 0 0 0 0 0 0 0 0 
0 0 0 0 0 0 0 0 0 
0 0 0 0 0 0 0 0 0 
0 0 0 0 0 0 0 0 0 
0 0 0 0 0 0 0 0 0 
0 0 0 0 0 0 0 0 0 
0 0 0 0 0 0 0 0 0 
0 0 0 0 0 0 0 0 0 
0 0 0 0 0 0 0 0 0 
0 0 0 0 0 0 0 0 0 
0 0 0 0 0 0 0 0 0 
0 0 0 0 0 0 0 0 0 
0 0 0 0 0 0 0 0 0 
0 0 0 0 0 0 0 0 0 
0 0 0 0 0 0 0 0 0 
0 0 0 0 0 0 0 0 0 
0 0 0 0 0 0 0 0 0 
0 0 0 0 0 0 0 0 0 
0 0 0 0 0 0 0 0 0 
0 0 0 0 0 0 0 0 0 
0 0 0 0 0 0 0 0 0 
0 0 0 0 0 
NORMALS Normals float
0.0272311 0.0642056 0.997565 -0.00652371 -0.0081017 0.999946 0.00448999 0.0473761 0.998867 
0.0207085 -0.0663133 0.997584 0.32222 0.613558 0.720916 0.0578522 0.483887 0.873216 
-0.0277265 0.426924 0.903862 -0.11368 0.466106 0.877395 -0.155465 0.535471 0.830121 
-0.209245 0.620415 0.755845 0.472494 0.45008 0.757745 0.0273515 0.0643236 0.997554 
0.183971 0.213535 0.959457 -0.00283694 0.180207 0.983625 -0.0464991 0.139677 0.989105 
-0.0712458 0.141425 0.987382 -0.0689949 0.177233 0.981748 -0.102185 0.260422 0.960072 
-0.231515 0.296673 0.926491 -0.25652 0.431924 0.864661 0.689265 0.439934 0.575649 
0.0275898 0.0644289 0.997541 0.273116 0.207955 0.939235 0.026807 0.0641113 0.997583 
-0.0494673 0.0435863 0.997824 -0.0774278 -0.0297756 0.996553 -0.0613346 -0.0438816 0.997152 
-0.00435701 -0.029302 0.999561 -0.0608897 0.00800357 0.998112 -0.135727 0.0742911 0.987957 
-0.170892 0.172643 0.970047 -0.187974 0.256229 0.948163 -0.384387 0.461935 0.799289 
0.432892 0.299183 0.850349 0.0319253 0.0194065 0.999302 0.103217 0.080287 0.991413 
0.129007 0.0893262 0.987612 -0.0265125 -0.0247404 0.999342 -0.0573059 -0.0190523 0.998175 
-0.105684 -0.0906776 0.990257 -0.122032 -0.136626 0.983078 -0.0709004 -0.101896 0.992265 
-0.0179173 -0.140743 0.989884 -0.0012346 -0.180671 0.983543 -0.0537167 -0.0885101 0.994626 
-0.0728173 0.0141831 0.997244 -0.0680255 0.158587 0.984999 -0.222669 0.208499 0.952338 
-0.451979 0.26269 0.852472 0.770697 0.241072 0.589839 0.278011 0.06216 0.958564 
0.316608 0.0652237 0.946311 -0.125608 -0.0262534 0.991733 -0.145046 -0.0387214 0.988667 
-0.178423 -0.163931 0.970202 -0.0903214 -0.122601 0.988338 -0.0679242 -0.0124983 0.997612 
-0.0818207 -0.0558328 0.995082 -0.00373906 -0.122926 0.992409 0.0569037 -0.104508 0.992895 
0.0743326 -0.0119 0.997163 -0.0267135 0.0511295 0.998335 -0.2232 0.0208324 0.97455 
-0.435975 0.0370554 0.899196 0.626053 0.08316 0.775334 0.120616 -0.0460347 0.991631 
0.262468 -0.0142494 0.964836 -0.109279 -0.0703055 0.991522 -0.0337465 -0.117151 0.992541 
-0.224294 -0.0760419 0.97155 -0.175834 -0.116793 0.977467 0.0254241 -0.00105699 0.999676 
-0.00406728 -0.0813545 0.996677 -0.125135 -0.0357288 0.991496 -0.063745 0.0561583 0.996385 
0.0609025 -0.0237504 0.997861 0.0858828 -0.032869 0.995763 -0.0300781 -0.0630223 0.997559 
-0.197306 -0.0747818 0.977486 -0.358573 -0.01889 0.933311 0.556016 -0.0305117 0.830611 
0.221694 -0.0719802 0.972456 -0.0548513 -0.136027 0.989186 -0.202055 -0.104556 0.973777 
-0.0945394 -0.067275 0.993245 -0.0482068 -0.173376 0.983675 -0.139121 -0.0731796 0.987568 
0.0860658 -0.172196 0.981296 0.00306337 -0.130285 0.991472 -0.027691 -0.0383311 0.998881 
0.0348706 -0.0656966 0.99723 -0.0606292 -0.120394 0.990873 -0.200959 -0.129805 0.970961 
-0.372718 -0.107317 0.921718 0.508105 -0.1635 0.845634 0.173046 -0.196498 0.965113 
-0.0122396 -0.111146 0.993729 -0.154941 -0.0972967 0.983121 -0.223751 -0.0332288 0.97408 
0.0110933 -0.0531493 0.998525 0.0344936 0.0247247 0.999099 -0.175636 -0.100382 0.979324 
0.0787762 -0.184477 0.979675 0.102693 -0.094481 0.990216 0.00428417 -0.09373 0.995588 
-0.096949 -0.139495 0.985465 -0.21028 -0.222369 0.952016 0.60466 -0.251328 0.755791 
0.266489 -0.198919 0.943088 0.0422078 -0.164238 0.985517 -0.117749 -0.0732782 0.990336 
-0.0787261 0.0299745 0.996446 0.000780796 0.164963 0.986299 -0.123868 -0.0265935 0.991942 
-0.172141 0.0389578 0.984302 0.0231359 -0.0204268 0.999524 0.0720237 -0.103121 0.992058 
-0.00902838 -0.129612 0.991524 -0.177254 -0.20687 0.962178 0.320113 -0.356063 0.877922 
0.138754 -0.258079 0.956108 0.0457189 -0.120043 0.991715 0.00809591 -0.0158839 0.999841 
-0.0235059 0.0319335 0.999214 -0.144597 -0.0511115 0.98817 -0.176418 -0.030529 0.983842 
-0.0621929 -0.0605156 0.996228 -0.00101525 -0.159707 0.987164 -0.107528 -0.256842 0.960453 
0.272899 -0.405533 0.872392 0.127982 -0.319753 0.938818 0.0727536 -0.22809 0.970918 
-0.0333015 -0.246682 0.968524 -0.1845 -0.26131 0.947458 -0.163122 -0.247731 0.954998 
-0.106536 -0.21343 0.971132 -0.0341205 -0.585129 0.810222 0.39551 0.768047 0.503663 
0.181822 0.832892 0.522715 -0.0260173 0.859275 0.510852 -0.0375193 0.999181 -0.0151235 
-0.144998 0.827101 0.543028 -0.171755 0.783749 0.596857 -0.242946 0.735696 0.632241 
0.527658 0.701026 0.479729 0.587085 0.64847 0.48458 -0.292416 0.721237 0.627941 
-0.307252 0.690941 0.654367 -0.333167 0.822083 0.461714 -0.319106 0.577996 0.75106 
0.710944 0.535771 0.455531 0.756711 0.503932 0.416463 -0.372566 0.599975 0.707973 
-0.373937 0.592903 0.713188 -0.423744 0.678865 0.599653 -0.430448 0.529052 0.731313 
0.770408 0.482771 0.416417 -0.451285 0.496454 0.741536 -0.492976 0.329771 0.805125 
-0.653979 0.72255 0.224128 0.832429 0.403648 0.379645 0.844025 0.358827 0.398579 
-0.510494 0.287941 0.810238 0.842006 0.293094 0.452904 -0.5133 0.0562609 0.856363 
-0.850229 0.244198 0.466345 0.825987 0.143993 0.544988 -0.451888 -0.0230701 0.891776 
-0.772411 -0.00936554 0.635054 0.765052 0.00489479 0.643949 -0.40736 -0.120798 0.905243 
-0.425372 -0.197957 0.883103 -0.770172 -0.259238 0.582778 0.689142 -0.176902 0.702701 
0.986503 -0.0965005 0.132288 -0.406316 -0.259645 0.876066 -0.309573 -0.248578 0.917809 
-0.469898 -0.274524 0.838947 0.627031 -0.250599 0.737585 0.608363 -0.276872 0.743798 
-0.310622 -0.245899 0.918176 -0.227619 -0.29232 0.928837 -0.361974 -0.261817 0.894666 
-0.614327 -0.456896 0.643311 0.466867 -0.393619 0.791896 0.693164 -0.460769 0.554269 
0.396702 -0.467294 0.790104 -0.0943772 -0.251602 0.963218 -0.19857 -0.300128 0.933002 
-0.130933 -0.330114 0.934816 -0.246975 -0.324493 0.913076 -0.459574 -0.428775 0.777781 
0.362236 -0.469654 0.805115 0.48068 -0.568739 0.667445 0.301346 -0.487286 0.819599 
0.172764 -0.58897 0.789473 0.103723 -0.605233 0.789262 -0.14606 -0.515901 0.844105 
-0.135415 -0.342881 0.929567 -0.122219 -0.245669 0.961618 -0.106082 -0.26246 0.959094 
-0.147792 -0.314832 0.937571 -0.162366 -0.447356 0.879494 -0.368503 -0.538527 0.757756 
0.396854 -0.839141 0.371954 0.21113 -0.740166 0.638419 0.071171 -0.607077 0.791449 
0.105715 -0.616533 0.7802 -0.0630987 -0.580399 0.811884 -0.0320873 -0.596333 0.802096 
-0.13412 -0.584615 0.800148 -0.106505 -0.576293 0.810273 -0.115156 -0.580126 0.806345 
-0.203548 -0.646611 0.735161 -0.330318 -0.740044 0.585854 -0.0389457 0.993912 -0.103059 
0.407283 0.912046 -0.0478866 0.0810048 0.992185 -0.0949087 0.159122 0.983302 -0.0882976 
-0.0577739 0.992999 -0.103029 -0.0389718 0.990135 -0.134586 -0.129038 0.986563 -0.100216 
-0.159933 0.98459 -0.070742 -0.220596 0.974364 -0.0441864 -0.330043 0.943947 0.00593478 
0.678476 0.731698 -0.0654859 0.678926 0.731275 -0.0655483 -0.40919 0.912438 -0.00456074 
-0.277481 0.828091 -0.487104 -0.440269 0.897816 -0.00945274 -0.500948 0.865364 0.0140054 
0.837889 0.540562 -0.0757245 0.857764 0.507824 -0.0797183 -0.534733 0.844264 0.0357668 
-0.384269 0.73278 -0.561579 -0.560359 0.826483 0.054079 -0.646877 0.754928 0.107857 
0.87503 0.477672 -0.0784425 -0.676156 0.728222 0.111833 -0.650876 0.751852 -0.105258 
0.891242 0.44615 -0.0814676 0.894562 0.440117 -0.0778199 -0.834114 0.528899 0.156588 
-0.866927 0.464758 0.180103 0.925587 0.377859 -0.0226176 -0.937954 0.258642 0.23097 
0.955967 0.292191 0.0273978 -0.964453 0.0222471 0.263315 0.986453 0.122908 0.108647 
0.993431 -0.00115986 0.114427 -0.930684 -0.234892 0.28045 -0.837644 -0.386113 0.386355 
0.988496 -0.0942812 0.118261 0.987151 -0.103371 0.121852 0.992433 -0.0927839 0.0804207 
-0.822391 -0.406765 0.397763 -0.929966 -0.367168 -0.0187267 0.935015 -0.287508 0.20757 
-0.748137 -0.464261 0.47408 -0.706991 -0.522651 0.476444 0.836172 -0.492533 0.241305 
0.764929 -0.591812 0.254247 -0.685982 -0.550517 0.475773 -0.607033 -0.632752 0.480767 
-0.802543 -0.593532 -0.060371 0.6976 -0.665401 0.265699 0.577562 -0.769535 0.272465 
-0.573374 -0.658107 0.487993 -0.457435 -0.728191 0.510383 -0.678563 -0.714976 0.168406 
0.447534 -0.857014 0.255422 0.403247 -0.879906 0.25131 0.272818 -0.925888 0.261348 
0.145074 -0.949812 0.277147 0.0155449 -0.952558 0.303959 -0.0301723 -0.913485 0.405753 
-0.0779211 -0.844801 0.529376 -0.150472 -0.787676 0.597432 -0.219395 -0.779241 0.587068 
-0.358187 -0.768814 0.529742 -0.331233 -0.781571 0.528614 0.344765 0.767874 -0.539914 
0.108353 0.787505 -0.606709 -0.040398 0.771692 -0.634712 -0.0943761 0.764729 -0.637403 
-0.0979979 0.779738 -0.618389 -0.153078 0.800336 -0.57968 0.472358 0.706596 -0.526877 
0.617799 0.612858 -0.492676 0.321298 0.676686 -0.662468 0.0519913 0.627856 -0.776591 
-0.042042 0.603356 -0.796363 -0.0727264 0.637888 -0.766687 -0.0705984 0.685819 -0.72434 
-0.247863 0.802015 -0.543448 -0.134259 0.745307 -0.653063 -0.267038 0.79753 -0.540959 
-0.368583 0.699354 -0.612413 0.705121 0.523814 -0.477936 0.776955 0.456765 -0.433253 
0.565271 0.517214 -0.642619 0.245316 0.40618 -0.880249 -0.0394647 0.359608 -0.932269 
-0.00983611 0.380997 -0.924524 -0.101661 0.374223 -0.921749 -0.24985 0.468063 -0.847639 
-0.381737 0.729044 -0.568129 -0.308185 0.577083 -0.756305 -0.381754 0.729216 -0.567897 
-0.444215 0.704662 -0.553285 0.780725 0.453257 -0.430146 0.765641 0.452185 -0.457518 
-0.224025 0.339881 -0.913397 -0.247881 0.44959 -0.858151 -0.508079 0.671012 -0.539999 
-0.388027 0.607945 -0.692703 -0.568543 0.628062 -0.531317 0.7938 0.445717 -0.413785 
0.824614 0.428873 -0.36889 0.631399 0.421245 -0.651067 -0.252442 0.338899 -0.906322 
-0.694362 0.509672 -0.508031 -0.493575 0.496737 -0.713888 -0.771214 0.407389 -0.489145 
0.83959 0.417838 -0.347132 0.802214 0.414816 -0.429396 -0.391303 0.197115 -0.898904 
-0.809972 0.339953 -0.477888 -0.749015 0.345544 -0.56531 0.894606 0.299969 -0.331208 
0.731981 0.267296 -0.626703 -0.358739 0.0159928 -0.933301 -0.90923 0.077124 -0.409087 
-0.776376 0.114675 -0.61975 0.943804 0.151181 -0.293901 -0.367861 0.00404486 -0.929872 
-0.90722 -0.175913 -0.382109 -0.823464 -0.131106 -0.552013 0.953723 -0.0715238 -0.292056 
-0.462974 -0.0806672 -0.882694 -0.918787 -0.319655 -0.231626 -0.914553 -0.330627 -0.232977 
-0.912887 -0.319428 -0.254172 0.926918 -0.241817 -0.286962 -0.869403 -0.43365 -0.236826 
-0.703394 -0.235745 -0.670568 0.85953 -0.449916 -0.242453 0.787157 -0.567175 -0.242274 
0.736267 -0.41162 -0.537103 -0.802221 -0.590887 -0.0854023 -0.80077 -0.592979 -0.0845146 
-0.801785 -0.589164 -0.100127 0.705789 -0.657421 -0.263931 0.57678 -0.772913 -0.264444 
0.542338 -0.607448 -0.58041 -0.535563 -0.844352 -0.0155743 -0.700236 -0.713202 -0.0318156 
-0.683068 -0.729784 -0.0288704 -0.684274 -0.698009 -0.211075 0.452318 -0.863102 -0.224639 
0.398559 -0.889708 -0.222646 0.391826 -0.849334 -0.353701 0.270422 -0.934395 -0.231902 
0.235752 -0.73814 -0.632115 0.187479 -0.957622 -0.21866 0.0927078 -0.980468 -0.173456 
0.0740739 -0.991688 -0.105207 0.0241565 -0.998322 -0.0526306 -0.123186 -0.991665 -0.0377586 
-0.271778 -0.962351 0.00427676 -0.504352 -0.863325 -0.0173075 -0.385085 -0.921382 -0.0525819 
-0.36172 -0.778611 -0.512761 0.0342148 0.430643 -0.901874 -0.082322 0.36401 -0.92775 
0.432117 0.37581 -0.819781 0.188293 0.396601 -0.898473 0.231324 0.387256 -0.892481 
0.0350365 0.374126 -0.926716 -0.065675 0.355715 -0.932284 -0.0835851 0.35412 -0.931457 
-0.0389428 0.336474 -0.940887 -0.00952106 0.333413 -0.942733 -0.0920184 0.330163 -0.939428 
-0.162301 0.303589 -0.938878 0.437972 0.372601 -0.818138 0.427714 0.368482 -0.825398 
0.154036 0.301117 -0.941064 -0.0198111 0.200405 -0.979513 -0.0679886 0.207831 -0.975799 
-0.0434599 0.177797 -0.983107 -0.0218052 0.163568 -0.986291 -0.0524597 0.186335 -0.981085 
-0.182392 0.30094 -0.936039 -0.129745 0.248012 -0.960029 -0.18407 0.281095 -0.941862 
-0.189287 0.289282 -0.938342 0.542543 0.401974 -0.737607 0.58419 0.402725 -0.704652 
0.3012 0.331782 -0.893979 0.0568748 0.200649 -0.978011 -0.06814 0.122621 -0.990112 
-0.0966772 0.0880331 -0.991415 -0.0828666 0.177067 -0.980704 -0.00173098 0.0957951 -0.9954 
-0.00759739 0.151926 -0.988363 -0.0890815 0.123657 -0.988319 -0.109431 0.169689 -0.979403 
-0.193509 0.278808 -0.940649 -0.180286 0.267162 -0.946637 -0.157412 0.290692 -0.943779 
0.623092 0.381966 -0.682538 0.500171 0.342701 -0.795227 0.172544 0.245105 -0.954019 
-0.0608618 0.142453 -0.987929 -0.135368 0.0783041 -0.987696 -0.00137428 0.0839508 -0.996469 
-0.0338812 0.217125 -0.975556 -0.0550614 0.130513 -0.989916 -0.030897 0.178748 -0.98341 
-0.120508 0.0240751 -0.99242 -0.0785654 0.0906691 -0.992777 -0.0736085 0.149881 -0.98596 
-0.338246 0.20964 -0.91741 -0.125571 0.265428 -0.955918 0.70852 0.260295 -0.655931 
0.712139 0.236753 -0.660913 0.392728 0.176464 -0.902566 0.0985016 0.0921713 -0.990859 
-0.106817 0.082556 -0.990845 -0.127094 0.0724134 -0.989244 0.0287386 0.197022 -0.979978 
-0.0385468 0.134317 -0.990188 -0.0221354 0.076078 -0.996856 -0.142775 -0.00975759 -0.989707 
-0.153607 -0.00927363 -0.988088 0.0164873 0.0905359 -0.995757 -0.0292637 0.121287 -0.992186 
-0.331754 0.0212546 -0.943126 -0.177804 0.0941149 -0.979555 0.704713 0.125681 -0.698272 
0.640728 0.108154 -0.760112 0.319459 0.0207863 -0.947372 0.082541 0.0489205 -0.995386 
-0.0820017 0.0164588 -0.996496 -0.0253214 0.064654 -0.997586 0.0828131 0.125524 -0.988628 
-0.195427 0.0785727 -0.977566 -0.179898 0.0857344 -0.979942 -0.113298 -0.0131419 -0.993474 
-0.0137127 0.155928 -0.987673 0.0491153 0.142569 -0.988566 -0.0603128 0.113372 -0.99172 
-0.365279 0.00451075 -0.930887 -0.207727 0.0379436 -0.977451 0.698942 -0.0743908 -0.711299 
0.606456 -0.065384 -0.792424 0.336463 -0.0663335 -0.939358 -0.0936058 -0.0164975 -0.995473 
-0.0246938 0.0466859 -0.998604 0.0548666 -0.0359151 -0.997848 -0.0905634 -0.0875628 -0.992034 
-0.124926 0.0882646 -0.988232 -0.0354629 0.161361 -0.986258 -0.0144156 0.251755 -0.967684 
-0.0285662 0.190704 -0.981232 -0.126459 0.124345 -0.984147 -0.432447 -0.061343 -0.89957 
-0.2757 0.038414 -0.960476 0.667088 -0.209294 -0.714975 0.662846 -0.221604 -0.715211 
0.660755 -0.20858 -0.721039 0.33089 -0.192566 -0.923813 0.131723 -0.135397 -0.981996 
0.019864 -0.0479275 -0.998653 -0.0349879 0.0231561 -0.999119 -0.0474799 0.0195451 -0.998681 
-0.037683 -0.0327075 -0.998754 0.0180094 0.058071 -0.99815 0.048948 0.104744 -0.993294 
0.0108197 0.106111 -0.994295 -0.0741801 0.0664554 -0.995028 -0.223634 -0.00322319 -0.974668 
-0.589753 -0.163378 -0.790885 -0.362061 -0.0460393 -0.931017 0.558606 -0.374409 -0.74012 
0.45888 -0.479424 -0.748052 0.396086 -0.346887 -0.850168 0.230602 -0.246943 -0.941192 
0.0693316 -0.154963 -0.985484 0.0442683 -0.0925876 -0.99472 -0.00950877 -0.0223866 -0.999704 
-0.0418013 0.0301282 -0.998672 0.0103142 0.0413911 -0.99909 0.0193359 -0.02367 -0.999533 
-0.0525616 -0.0889015 -0.994653 -0.145645 -0.133319 -0.980313 -0.228269 -0.251818 -0.940468 
-0.564324 -0.380313 -0.732735 -0.546172 -0.451297 -0.70571 -0.495722 -0.331206 -0.802846 
0.432574 -0.517123 -0.738555 0.351868 -0.59518 -0.722461 0.325087 -0.457088 -0.827882 
0.222884 -0.657443 -0.719786 0.185397 -0.392619 -0.900821 0.0965829 -0.310448 -0.945671 
0.0764153 -0.263075 -0.961744 0.0290537 -0.167095 -0.985513 -0.036283 -0.14738 -0.988414 
-0.0813342 -0.211508 -0.973986 -0.0976033 -0.276101 -0.95616 -0.326724 -0.663752 -0.672818 
-0.25014 -0.339009 -0.906919 -0.461673 -0.507658 -0.727421 -0.394597 -0.549581 -0.736379 
-0.359427 -0.442658 -0.821502 0.210555 -0.681145 -0.701219 0.192134 -0.689536 -0.698302 
0.18909 -0.647652 -0.7381 0.115578 -0.743131 -0.659089 0.120948 -0.59756 -0.79265 
0.0755406 -0.748918 -0.658343 0.0569675 -0.55233 -0.831677 -0.00348736 -0.743703 -0.668501 
-0.0208059 -0.509027 -0.860499 -0.0775405 -0.70003 -0.709891 -0.0942032 -0.539135 -0.836934 
-0.298595 -0.688548 -0.660865 -0.222144 -0.695373 -0.683453 -0.186448 -0.580657 -0.792512 
0.0985046 -0.0503602 -0.993861 0.101652 -0.0562081 -0.993231 0.0929993 -0.0549474 -0.994149 
0.0997982 -0.0574118 -0.99335 0.0994283 -0.0561861 -0.993457 
