# vtk DataFile Version 4.2
vtk output
ASCII
DATASET POLYDATA
POINTS 524 float
-18.3231 -46.4287 -15.3132 -9.93796 -46.4287 -16.9208 -1.55278 -46.4287 -17.3479 
6.8324 -46.4287 -17.0425 15.2176 -46.4287 -17.1771 23.6028 -46.4287 -15.0685 
-26.7083 -38.0436 -16.8483 -18.3231 -38.0436 -18.7745 -9.93796 -38.0436 -19.5692 
-1.55278 -38.0436 -19.7003 6.8324 -38.0436 -19.2586 15.2176 -38.0436 -18.7192 
23.6028 -38.0436 -19.3381 31.9879 -38.0436 -16.6878 -35.0935 -29.6584 -17.012 
-26.7083 -29.6584 -18.5413 -18.3231 -29.6584 -19.403 -9.93796 -29.6584 -19.7214 
-1.55278 -29.6584 -19.703 6.8324 -29.6584 -19.4332 15.2176 -29.6584 -19.1853 
23.6028 -29.6584 -18.9341 31.9879 -29.6584 -19.2406 40.3731 -29.6584 -16.1024 
-43.4787 -21.2732 -16.6046 -35.0935 -21.2732 -18.3647 -26.7083 -21.2732 -19.5275 
-18.3231 -21.2732 -18.8185 -9.93796 -21.2732 -18.3089 -1.55278 -21.2732 -18.2617 
6.8324 -21.2732 -18.7605 15.2176 -21.2732 -18.385 23.6028 -21.2732 -18.4374 
31.9879 -21.2732 -18.1092 40.3731 -21.2732 -17.3435 48.7583 -21.2732 -15.0536 
-51.8639 -12.888 -13.4551 -43.4787 -12.888 -17.6473 -35.0935 -12.888 -18.7582 
-26.7083 -12.888 -18.4896 -18.3231 -12.888 -17.2743 -9.93796 -12.888 -16.1814 
-1.55278 -12.888 -17.9663 6.8324 -12.888 -20.269 15.2176 -12.888 -17.7805 
23.6028 -12.888 -18.0552 31.9879 -12.888 -18.4938 40.3731 -12.888 -18.2009 
48.7583 -12.888 -16.5122 -51.8639 -4.50283 -14.2121 -43.4787 -4.50283 -17.787 
-35.0935 -4.50283 -18.3966 -26.7083 -4.50283 -17.5769 -18.3231 -4.50283 -15.9888 
-9.93796 -4.50283 -17.6006 -1.55278 -4.50283 -17.407 6.8324 -4.50283 -20.8274 
15.2176 -4.50283 -19.8659 23.6028 -4.50283 -18.1549 31.9879 -4.50283 -18.4098 
40.3731 -4.50283 -18.0843 48.7583 -4.50283 -16.4868 -51.8639 3.88235 -13.7949 
-43.4787 3.88235 -17.1322 -35.0935 3.88235 -17.8634 -26.7083 3.88235 -17.2956 
-18.3231 3.88235 -15.7264 -9.93796 3.88235 -18.9151 -1.55278 3.88235 -16.5447 
6.8324 3.88235 -19.227 15.2176 3.88235 -18.302 23.6028 3.88235 -17.9892 
31.9879 3.88235 -18.3113 40.3731 3.88235 -17.9972 48.7583 3.88235 -15.6654 
-43.4787 12.2675 -16.1751 -35.0935 12.2675 -17.7875 -26.7083 12.2675 -18.4833 
-18.3231 12.2675 -18.496 -9.93796 12.2675 -17.9098 -1.55278 12.2675 -17.6823 
6.8324 12.2675 -18.7313 15.2176 12.2675 -16.3017 23.6028 12.2675 -17.4293 
31.9879 12.2675 -17.6519 40.3731 12.2675 -16.606 48.7583 12.2675 -13.4046 
-43.4787 20.6527 -14.8554 -35.0935 20.6527 -17.7225 -26.7083 20.6527 -19.5195 
-18.3231 20.6527 -19.9415 -9.93796 20.6527 -18.9699 -1.55278 20.6527 -17.7417 
6.8324 20.6527 -17.6437 15.2176 20.6527 -17.5761 23.6028 20.6527 -17.1356 
31.9879 20.6527 -16.594 40.3731 20.6527 -14.6143 -35.0935 29.0379 -15.6537 
-26.7083 29.0379 -18.9192 -18.3231 29.0379 -20.0395 -9.93796 29.0379 -19.6426 
-1.55278 29.0379 -18.9243 6.8324 29.0379 -18.2396 15.2176 29.0379 -18.1678 
23.6028 29.0379 -17.0262 31.9879 29.0379 -15.8917 -26.7083 37.4231 -14.8073 
-18.3231 37.4231 -18.1584 -9.93796 37.4231 -19.0217 -1.55278 37.4231 -18.7231 
6.8324 37.4231 -17.7844 15.2176 37.4231 -17.1231 23.6028 37.4231 -15.6839 
31.9879 37.4231 -13.5647 -9.93796 45.8083 -15.9491 -1.55278 45.8083 -15.9676 
6.8324 45.8083 -15.7727 15.2176 45.8083 -14.1234 -18.3231 -48.5177 -13.3671 
-9.93796 -50.6095 -13.3671 -1.55278 -51.3142 -13.3671 -1.55278 -54.8139 -5.69946 
6.8324 -51.1417 -13.3671 6.8324 -54.8139 -5.29452 15.2176 -51.1884 -13.3671 
23.6028 -48.5001 -13.3671 -22.5851 -46.4287 -13.3671 -26.7083 -43.4745 -13.3671 
-26.7083 -46.4287 -7.66636 27.3496 -46.4287 -13.3671 31.9879 -43.3533 -13.3671 
-34.2141 -38.0436 -13.3671 -35.0935 -37.2246 -13.3671 -35.0935 -38.0436 -12.356 
38.3297 -38.0436 -13.3671 40.3731 -35.7538 -13.3671 40.3731 -38.0436 -8.2979 
-42.6285 -29.6584 -13.3671 -43.4787 -28.8041 -13.3671 -43.4787 -29.6584 -12.5153 
45.4977 -29.6584 -13.3671 48.7583 -24.6788 -13.3671 48.7583 -29.6584 -8.8432 
-48.4024 -21.2732 -13.3671 -51.8639 -13.1149 -13.3671 -51.8639 -21.2732 -8.1505 
52.415 -21.2732 -13.3671 57.1435 -21.2732 -8.34645 -51.9548 -12.888 -13.3671 
54.2822 -12.888 -13.3671 57.1435 -12.888 -10.8791 -53.0938 -4.50283 -13.3671 
54.7642 -4.50283 -13.3671 57.1435 -4.50283 -11.6983 -52.4158 3.88235 -13.3671 
-51.8639 6.15679 -13.3671 53.0095 3.88235 -13.3671 57.1435 3.88235 -10.3238 
-49.7079 12.2675 -13.3671 -51.8639 12.2675 -12.1026 48.8238 12.2675 -13.3671 
48.7583 12.3696 -13.3671 57.1435 12.2675 -6.31558 -45.9542 20.6527 -13.3671 
-51.8639 20.6527 -8.14871 -43.4787 23.882 -13.3671 42.9013 20.6527 -13.3671 
40.3731 25.714 -13.3671 48.7583 20.6527 -9.33907 -39.0059 29.0379 -13.3671 
-43.4787 29.0379 -9.6268 -35.0935 32.5298 -13.3671 38.2881 29.0379 -13.3671 
40.3731 29.0379 -12.3171 -29.0735 37.4231 -13.3671 -35.0935 37.4231 -6.72082 
-26.7083 39.1044 -13.3671 -18.3231 44.5526 -13.3671 23.6028 42.5068 -13.3671 
32.3933 37.4231 -13.3671 31.9879 37.8985 -13.3671 40.3731 37.4231 -7.49239 
-16.0369 45.8083 -13.3671 -18.3231 45.8083 -9.3792 -9.93796 48.4235 -13.3671 
-1.55278 48.8062 -13.3671 6.8324 48.8265 -13.3671 18.1048 45.8083 -13.3671 
15.2176 46.9568 -13.3671 23.6028 45.8083 -11.2998 31.9879 45.8083 -6.5847 
-1.55278 -55.0369 -4.98188 6.8324 -54.9098 -4.98188 -26.7083 -47.2774 -4.98188 
-18.3231 -51.5584 -4.98188 -3.46845 -54.8139 -4.98188 -9.93796 -54.0355 -4.98188 
-1.55278 -54.8139 -4.18084 7.49862 -54.8139 -4.98188 6.8324 -54.8139 -4.73564 
15.2176 -53.6023 -4.98188 23.6028 -51.1941 -4.98188 -28.0154 -46.4287 -4.98188 
-35.0935 -41.2401 -4.98188 -26.7083 -46.4287 -0.239204 30.3871 -46.4287 -4.98188 
23.6028 -46.4287 -0.156157 31.9879 -45.4257 -4.98188 40.3731 -39.248 -4.98188 
-38.805 -38.0436 -4.98188 -43.4787 -33.8593 -4.98188 31.9879 -38.0436 2.90858 
41.5299 -38.0436 -4.98188 40.3731 -38.0436 -3.78482 48.7583 -31.8491 -4.98188 
-47.3757 -29.6584 -4.98188 -51.8639 -23.536 -4.98188 51.0894 -29.6584 -4.98188 
48.7583 -29.6584 -1.67374 57.1435 -23.0421 -4.98188 -53.3703 -21.2732 -4.98188 
58.4705 -21.2732 -4.98188 57.1435 -21.2732 -1.27206 -57.4649 -12.888 -4.98188 
61.7903 -12.888 -4.98188 -59.2018 -4.50283 -4.98188 62.5824 -4.50283 -4.98188 
-59.5086 3.88235 -4.98188 -60.2491 3.88235 2.1212 61.5554 3.88235 -4.98188 
-58.5021 12.2675 -4.98188 58.0215 12.2675 -4.98188 57.1435 13.8298 -4.98188 
-54.2862 20.6527 -4.98188 -51.8639 23.9909 -4.98188 52.5783 20.6527 -4.98188 
48.7583 28.2082 -4.98188 -47.4628 29.0379 -4.98188 -43.4787 32.4528 -4.98188 
48.2838 29.0379 -4.98188 48.7583 29.0379 1.78512 -36.3571 37.4231 -4.98188 
-35.0935 38.2207 -4.98188 -26.7083 42.9088 -4.98188 42.2268 37.4231 -4.98188 
40.3731 39.5616 -4.98188 -20.5376 45.8083 -4.98188 -18.3231 47.034 -4.98188 
-18.3231 45.8083 2.88265 -9.93796 50.4629 -4.98188 -1.55278 52.5491 -4.98188 
6.8324 53.1451 -4.98188 15.2176 52.5131 -4.98188 23.6028 50.4195 -4.98188 
33.1445 45.8083 -4.98188 31.9879 46.627 -4.98188 -18.3231 -49.929 3.4033 
-9.93796 -51.9476 3.4033 -1.55278 -52.2464 3.4033 6.8324 -50.5937 3.4033 
15.2176 -47.9516 3.4033 -35.0935 -39.697 3.4033 -25.4153 -46.4287 3.4033 
-26.7083 -45.681 3.4033 -18.3231 -46.4287 9.298 -9.93796 -46.4287 11.2847 
-1.55278 -46.4287 10.0752 6.8324 -46.4287 7.71189 17.9586 -46.4287 3.4033 
15.2176 -46.4287 4.75199 23.6028 -41.5878 3.4033 -37.0694 -38.0436 3.4033 
-43.4787 -32.5763 3.4033 -35.0935 -38.0436 6.66456 15.2176 -38.0436 8.66401 
30.581 -38.0436 3.4033 23.6028 -38.0436 5.46743 31.9879 -37.1284 3.4033 
40.3731 -32.4582 3.4033 -46.2839 -29.6584 3.4033 -51.8639 -22.9752 3.4033 
-43.4787 -29.6584 8.24295 15.2176 -29.6584 10.7995 23.6028 -29.6584 8.40011 
31.9879 -29.6584 6.83779 44.3157 -29.6584 3.4033 40.3731 -29.6584 5.6104 
48.7583 -25.576 3.4033 -53.1111 -21.2732 3.4033 -51.8639 -21.2732 6.48137 
23.6028 -21.2732 10.4939 31.9879 -21.2732 10.2612 40.3731 -21.2732 9.21123 
54.1998 -21.2732 3.4033 48.7583 -21.2732 6.86684 57.1435 -18.7828 3.4033 
-57.0786 -12.888 3.4033 48.7583 -12.888 11.2454 60.744 -12.888 3.4033 
57.1435 -12.888 7.53358 -59.571 -4.50283 3.4033 -60.2491 2.63859 3.4033 
63.0822 -4.50283 3.4033 -60.3656 3.88235 3.4033 -60.2491 5.66265 3.4033 
-60.2491 3.88235 3.83822 62.3959 3.88235 3.4033 -59.7767 12.2675 3.4033 
59.1192 12.2675 3.4033 57.1435 15.8685 3.4033 57.1435 12.2675 8.28268 
-56.3053 20.6527 3.4033 -51.8639 27.0311 3.4033 54.3296 20.6527 3.4033 
-49.969 29.0379 3.4033 -43.4787 34.5448 3.4033 48.8521 29.0379 3.4033 
48.7583 29.1642 3.4033 48.7583 29.0379 3.62214 -38.4975 37.4231 3.4033 
-35.0935 39.1877 3.4033 -26.7083 42.7812 3.4033 -18.3231 45.7442 3.4033 
42.1721 37.4231 3.4033 40.3731 39.3368 3.4033 40.3731 37.4231 6.46928 
-18.1164 45.8083 3.4033 -9.93796 48.3175 3.4033 -9.93796 45.8083 7.51915 
-1.55278 50.1611 3.4033 -1.55278 45.8083 9.74505 6.8324 51.5214 3.4033 
6.8324 45.8083 11.5673 15.2176 51.6873 3.4033 15.2176 45.8083 11.601 
23.6028 49.9852 3.4033 23.6028 45.8083 9.54205 32.3463 45.8083 3.4033 
31.9879 46.0446 3.4033 31.9879 45.8083 3.83055 -26.7083 -40.2135 11.7885 
-18.3231 -44.489 11.7885 -9.93796 -45.9414 11.7885 -1.55278 -44.0493 11.7885 
6.8324 -38.2891 11.7885 -30.2334 -38.0436 11.7885 -35.0935 -34.4501 11.7885 
-26.7083 -38.0436 13.8374 -18.3231 -38.0436 17.1015 -9.93796 -38.0436 17.3104 
-1.55278 -38.0436 15.2255 7.0739 -38.0436 11.7885 6.8324 -38.0436 11.8862 
-40.3167 -29.6584 11.7885 -43.4787 -26.6092 11.7885 -35.0935 -29.6584 15.4463 
-26.7083 -29.6584 19.3453 -9.93796 -29.6584 20.122 -1.55278 -29.6584 17.3736 
12.661 -29.6584 11.7885 6.8324 -29.6584 14.042 15.2176 -23.2746 11.7885 
-48.466 -21.2732 11.7885 -51.8639 -16.1513 11.7885 -43.4787 -21.2732 15.8122 
-35.0935 -21.2732 20.0971 -1.55278 -21.2732 17.8904 6.8324 -21.2732 14.6638 
16.7127 -21.2732 11.7885 15.2176 -21.2732 12.087 23.6028 -15.9772 11.7885 
31.9879 -16.9024 11.7885 40.3731 -16.0233 11.7885 -53.5985 -12.888 11.7885 
-51.8639 -12.888 13.7135 -43.4787 -12.888 20.0447 -1.55278 -12.888 17.0952 
6.8324 -12.888 15.92 15.2176 -12.888 13.0449 23.6028 -12.888 12.573 
31.9879 -12.888 13.1592 46.4957 -12.888 11.7885 40.3731 -12.888 13.1071 
[...]
POINT_DATA 524
SCALARS ImageScalars float
LOOKUP_TABLE default
0 0 0 0 0 0 0 0 0 
0 0 0 0 0 0 0 0 0 
0 0 0 0 0 0 0 0 0 
0 0 0 0 0 0 0 0 0 
0 0 0 0 0 0 0 0 0 
0 0 0 0 0 0 0 0 0 
0 0 0 0 0 0 0 0 0 
0 0 0 0 0 0 0 0 0 
0 0 0 0 0 0 0 0 0 
0 0 0 0 0 0 0 0 0 
0 0 0 0 0 0 0 0 0 
0 0 0 0 0 0 0 0 0 
0 0 0 0 0 0 0 0 0 
0 0 0 0 0 0 0 0 0 
0 0 0 0 0 0 0 0 0 
0 0 0 0 0 0 0 0 0 
0 0 0 0 0 0 0 0 0 
0 0 0 0 0 0 0 0 0 
0 0 0 0 0 0 0 0 0 
0 0 0 0 0 0 0 0 0 
0 0 0 0 0 0 0 0 0 
0 0 0 0 0 0 0 0 0 
0 0 0 0 0 0 0 0 0 
0 0 0 0 0 0 0 0 0 
0 0 0 0 0 0 0 0 0 
0 0 0 0 0 0 0 0 0 
0 0 0 0 0 0 0 0 0 
0 0 0 0 0 0 0 0 0 
0 0 0 0 0 0 0 0 0 
0 0 0 0 0 0 0 0 0 
0 0 0 0 0 0 0 0 0 
0 0 0 0 0 0 0 0 0 
0 0 0 0 0 0 0 0 0 
0 0 0 0 0 0 0 0 0 
0 0 0 0 0 0 0 0 0 
0 0 0 0 0 0 0 0 0 
0 0 0 0 0 0 0 0 0 
0 0 0 0 0 0 0 0 0 
0 0 0 0 0 0 0 0 0 
0 0 0 0 0 0 0 0 0 
0 0 0 0 0 0 0 0 0 
0 0 0 0 0 0 0 0 0 
0 0 0 0 0 0 0 0 0 
0 0 0 0 0 0 0 0 0 
0 0 0 0 0 0 0 0 0 
0 0 0 0 0 0 0 0 0 
0 0 0 0 0 0 0 0 0 
0 0 0 0 0 0 0 0 0 
0 0 0 0 0 0 0 0 0 
0 0 0 0 0 0 0 0 0 
0 0 0 0 0 0 0 0 0 
0 0 0 0 0 0 0 0 0 
0 0 0 0 0 0 0 0 0 
0 0 0 0 0 0 0 0 0 
0 0 0 0 0 0 0 0 0 
0 0 0 0 0 0 0 0 0 
0 0 0 0 0 0 0 0 0 
0 0 0 0 0 0 0 0 0 
0 0 
NORMALS Normals float
0.283387 0.62891 0.723992 0.117628 0.506638 0.854097 0.00662556 0.458959 0.888433 
-0.00814892 0.445496 0.895247 -0.125324 0.436315 0.891024 -0.333896 0.624662 0.705912 
0.343678 0.38461 0.856715 0.140527 0.21016 0.967515 0.0586272 0.144029 0.987835 
-0.0186633 0.121099 0.992465 -0.057883 0.124533 0.990526 -0.000913368 0.12581 0.992054 
-0.133603 0.227774 0.964505 -0.339461 0.394524 0.853884 0.314131 0.300873 0.900443 
0.131398 0.138002 0.981677 0.0681078 0.00432548 0.997669 0.0178176 -0.0745549 0.997058 
-0.0171175 -0.0851502 0.996221 -0.0308349 -0.0300194 0.999074 -0.0295436 -0.0206716 0.99935 
0.000746299 -0.0515568 0.99867 -0.186663 0.0909424 0.978206 -0.39266 0.231302 0.890122 
0.39214 0.246426 0.886284 0.163247 0.0929328 0.982198 0.0278955 -0.00527992 0.999597 
-0.0680135 -0.12729 0.989531 -0.0332458 -0.210572 0.977013 0.027342 -0.102989 0.994307 
0.00732926 0.0391353 0.999207 -0.0193394 -0.0830979 0.996354 -0.016354 -0.0523082 0.998497 
-0.0615556 -0.0353302 0.997478 -0.153922 0.139154 0.978235 -0.360382 0.303266 0.882131 
0.645095 0.204056 0.736351 0.257695 0.0730031 0.963464 0.0436016 0.00180505 0.999047 
-0.0875363 -0.10858 0.990226 -0.134602 -0.159589 0.977964 0.0298976 -0.0757909 0.996675 
0.245151 -0.0489058 0.968251 -0.0254621 0.126318 0.991663 -0.120829 0.0671222 0.990401 
0.0419227 -0.0168074 0.998979 0.00749999 0.0177801 0.999814 -0.12198 0.0387465 0.991776 
-0.350373 0.0620874 0.93455 0.522316 0.0127598 0.852657 0.248201 -0.0302967 0.968235 
-0.0156346 -0.0533759 0.998452 -0.135182 -0.0710102 0.988273 -0.0372235 -0.0965227 0.994635 
0.0974375 0.186532 0.977605 0.189638 -0.0945526 0.977291 0.141861 -0.0641817 0.987804 
-0.164287 0.0460147 0.985339 -0.0660618 -0.00389527 0.997808 -0.00408058 -0.010838 0.999933 
-0.108187 -0.0125714 0.994051 -0.320917 -0.048915 0.945843 0.529149 -0.104529 0.842066 
0.207206 -0.0924462 0.97392 0.00649364 -0.0361189 0.999326 -0.120468 0.0492077 0.991497 
0.0704973 0.15373 0.985595 0.0671824 -0.012981 0.997656 0.0262553 0.0218629 0.999416 
0.0966986 -0.107643 0.989476 -0.0731159 -0.201979 0.976657 0.00307493 -0.0432835 0.999058 
9.14511e-05 -0.0446949 0.999001 -0.149588 -0.0818489 0.985355 -0.374938 -0.16448 0.912342 
0.284626 -0.129761 0.949816 0.127578 -0.00847973 0.991792 0.0425515 0.135342 0.989885 
-0.0343375 0.242585 0.969522 -0.0477412 0.00825284 0.998826 0.0452446 0.0660385 0.996791 
-0.0883936 -0.100099 0.991043 -0.0634767 -0.0281773 0.997585 0.076419 -0.050935 0.995774 
-0.0453723 -0.102634 0.993684 -0.228441 -0.194189 0.953994 -0.436304 -0.293935 0.850436 
0.444977 -0.271641 0.85335 0.262752 -0.106786 0.958936 0.132425 0.024882 0.990881 
-0.0290762 0.0907294 0.995451 -0.129101 0.105323 0.986022 -0.0764505 0.075748 0.994192 
-0.00948438 -0.0216999 0.99972 -0.0308156 0.107899 0.993684 -0.057923 -0.0238475 0.998036 
-0.139845 -0.098717 0.98524 -0.339809 -0.2152 0.915543 0.431482 -0.398273 0.809446 
0.243502 -0.228259 0.942658 0.0377488 -0.100383 0.994232 -0.0663664 0.00279757 0.997791 
-0.0831956 0.054093 0.995064 -0.0450596 0.00913914 0.998942 -0.0724466 -0.030484 0.996906 
-0.125755 -0.0771641 0.989056 -0.229247 -0.175925 0.957338 0.446203 -0.577683 0.683509 
0.206456 -0.38041 0.901479 0.033584 -0.199699 0.979282 -0.0729992 -0.148659 0.986191 
-0.0953562 -0.143381 0.985063 -0.113686 -0.225631 0.967557 -0.216061 -0.267248 0.939093 
-0.353053 -0.331678 0.874839 0.186834 -0.637062 0.747827 -0.0120327 -0.546242 0.837541 
-0.10867 -0.483187 0.868747 -0.215122 -0.505907 0.835333 0.303149 0.741192 0.598945 
0.1463 0.769972 0.621079 0.0268966 0.762464 0.646471 0.0499251 0.997404 0.0518963 
-0.00569209 0.748854 0.66271 -0.0785952 0.996615 -0.0241251 -0.140831 0.803074 0.578997 
-0.36856 0.717081 0.591573 0.387838 0.699211 0.600571 0.455735 0.622585 0.636155 
0.518902 0.82851 0.210504 -0.456168 0.712434 0.533243 -0.499584 0.682365 0.533661 
0.509493 0.570723 0.643966 0.507103 0.564254 0.651509 0.546108 0.618834 0.564633 
-0.579042 0.612202 0.538442 -0.584493 0.556518 0.59047 -0.670602 0.740636 0.0418472 
0.550055 0.498269 0.670199 0.559592 0.489473 0.668785 0.594192 0.535045 0.600552 
-0.567149 0.398583 0.720746 -0.487245 0.408402 0.771881 -0.718637 0.645454 0.258748 
0.628718 0.334148 0.702182 0.649873 0.210705 0.730252 0.815908 0.463666 0.34541 
-0.509345 0.336396 0.792089 -0.828677 0.467103 0.308399 0.649181 0.206205 0.73215 
-0.563519 0.0538745 0.824344 -0.736724 0.0916228 0.669957 0.573626 0.0227757 0.818801 
-0.537402 -0.0379556 0.842472 -0.667436 -0.024846 0.744253 0.552062 -0.107051 0.826903 
0.537828 -0.144646 0.830553 -0.511924 -0.181596 0.839617 -0.700865 -0.215443 0.67998 
0.484043 -0.209229 0.849662 0.581816 -0.250343 0.773834 -0.438221 -0.294658 0.849199 
-0.438053 -0.294416 0.84937 -0.799232 -0.424364 0.42561 0.512474 -0.313516 0.799424 
0.705118 -0.445671 0.551531 0.499064 -0.387033 0.775333 -0.416447 -0.250124 0.874077 
-0.418648 -0.2843 0.862501 -0.666857 -0.377351 0.64258 0.500501 -0.490605 0.713306 
0.571477 -0.608865 0.55018 0.491341 -0.548902 0.676233 -0.411454 -0.286349 0.86528 
-0.502102 -0.343888 0.793495 0.485685 -0.626475 0.609622 0.521504 -0.791314 0.319148 
0.483115 -0.644527 0.592608 0.406824 -0.722791 0.558629 -0.246737 -0.473448 0.845558 
-0.366227 -0.33851 0.866769 -0.359351 -0.349852 0.865142 -0.698368 -0.568394 0.434984 
0.370464 -0.74955 0.548572 0.442688 -0.848824 0.289007 0.207925 -0.791727 0.5744 
0.0235601 -0.714779 0.698953 -0.0752675 -0.66016 0.747344 -0.236068 -0.541395 0.806947 
-0.221765 -0.547427 0.806935 -0.287531 -0.671652 0.682796 -0.525587 -0.795753 0.30089 
0.0502917 0.998626 0.0147389 -0.079587 0.995989 -0.040897 0.513425 0.856358 0.0551874 
0.366619 0.928748 0.0549308 0.0831927 0.996351 0.019096 0.199435 0.979219 0.0368207 
0.0426833 0.998735 -0.0265844 -0.0857883 0.995092 -0.0493226 -0.0833566 0.994968 -0.0555885 
-0.182912 0.971683 -0.149583 -0.458864 0.869021 -0.185058 0.533455 0.843994 0.0556797 
0.628453 0.774572 0.0713127 0.515441 0.84514 -0.141631 -0.508845 0.847616 -0.150411 
-0.420157 0.665657 -0.616741 -0.509405 0.849672 -0.136251 -0.636908 0.746567 -0.192316 
0.659106 0.748294 0.0750652 0.710229 0.696805 0.100193 -0.381109 0.42838 -0.819296 
-0.654348 0.735002 -0.177765 -0.614531 0.741498 -0.269318 -0.700007 0.713492 -0.0303286 
0.76082 0.637711 0.120322 0.829166 0.533604 0.166584 -0.70827 0.705126 -0.0339135 
-0.686603 0.675653 -0.268456 -0.824584 0.565712 0.00564591 0.848098 0.497075 0.18343 
-0.852402 0.521709 0.0350719 -0.776417 0.610274 -0.157294 0.923332 0.322502 0.208448 
-0.941758 0.227333 0.247812 0.957323 0.111578 0.266613 -0.936066 -0.0109655 0.351654 
0.947551 -0.0298371 0.318209 0.999469 0.00875331 -0.0313859 -0.883025 -0.267582 0.385574 
0.886107 -0.27656 0.371926 -0.828309 -0.432948 0.355613 -0.816895 -0.453032 0.356993 
0.77685 -0.479958 0.407607 0.738979 -0.535566 0.408753 -0.777223 -0.48287 0.403437 
-0.799635 -0.51502 0.308768 0.658872 -0.651712 0.375712 0.57116 -0.735252 0.36494 
-0.800012 -0.518479 0.301927 -0.813321 -0.577751 -0.0686513 0.519091 -0.8126 0.265002 
0.513613 -0.820722 0.250235 0.471951 -0.870981 0.136582 -0.746052 -0.59871 0.291464 
-0.71644 -0.638474 0.281186 0.44173 -0.895467 0.05489 0.442427 -0.896238 0.0318829 
0.324321 -0.920682 -0.217163 0.27289 -0.961864 -0.0186719 0.156354 -0.987124 0.0337517 
0.000431347 -0.993424 0.114492 -0.162719 -0.97082 0.176157 -0.339651 -0.907999 0.245305 
-0.557274 -0.804884 0.203978 -0.528107 -0.825273 0.200066 0.323918 0.883558 -0.338235 
0.127303 0.909237 -0.396336 -0.0586852 0.867867 -0.493318 -0.217553 0.74269 -0.633311 
-0.30435 0.632964 -0.711848 0.60158 0.751739 -0.270166 0.474048 0.825637 -0.305943 
0.49948 0.812229 -0.301336 0.264785 0.790437 -0.552357 0.0122399 0.720266 -0.69359 
-0.149369 0.654563 -0.741105 -0.26328 0.591119 -0.762405 -0.320103 0.579117 -0.749772 
-0.325921 0.572159 -0.752602 -0.322516 0.474735 -0.818907 0.616619 0.741094 -0.265633 
0.672257 0.689174 -0.270386 0.582158 0.721862 -0.374175 -0.327048 0.312284 -0.891918 
-0.360008 0.409018 -0.838509 -0.322631 0.412429 -0.851946 -0.34575 0.406588 -0.845661 
-0.324634 0.579356 -0.747636 0.712812 0.651584 -0.259493 0.80044 0.564952 -0.200312 
0.638126 0.634752 -0.435758 -0.31339 0.195732 -0.929234 -0.210966 0.27721 -0.937362 
-0.163172 0.412225 -0.896351 -0.439131 0.538651 -0.71904 -0.290119 0.505712 -0.812457 
-0.496196 0.562875 -0.66103 0.820649 0.538154 -0.19216 0.781345 0.54202 -0.309376 
-0.105957 0.239955 -0.964984 -0.0675329 0.34385 -0.936593 -0.165931 0.435219 -0.884902 
-0.561555 0.6588 -0.500638 -0.307631 0.566832 -0.764241 -0.670117 0.617567 -0.41177 
0.912981 0.369607 -0.172789 -0.288048 0.372405 -0.882237 -0.83872 0.393992 -0.375924 
-0.60848 0.413262 -0.67747 0.974139 0.180185 -0.136332 0.994748 0.0383142 -0.0949125 
-0.958737 0.0912878 -0.269239 0.996032 0.0139667 -0.0878987 0.995183 -0.0372429 -0.0906841 
0.994219 0.0141873 -0.106429 -0.952598 -0.223139 -0.206801 0.96803 -0.231786 -0.0958808 
-0.898058 -0.424481 -0.11536 -0.872435 -0.478817 -0.0979309 -0.836584 -0.371899 -0.402266 
0.882203 -0.470019 -0.0282981 0.783853 -0.620603 0.0206318 -0.841638 -0.5347 -0.0757732 
0.732159 -0.680024 0.0388767 0.55814 -0.827705 0.0581754 -0.80108 -0.579728 -0.148951 
-0.800274 -0.58071 -0.149456 -0.798682 -0.58029 -0.15928 0.468833 -0.882737 0.0311725 
0.428703 -0.903435 0.00424411 0.347822 -0.929215 -0.124815 0.315788 -0.919593 -0.233724 
-0.707942 -0.673219 -0.213526 -0.676997 -0.699202 -0.229763 -0.641934 -0.668103 -0.376244 
0.314451 -0.919033 -0.237694 0.237227 -0.890122 -0.389109 0.171576 -0.836825 -0.519889 
0.180073 -0.885748 -0.427813 0.145543 -0.757531 -0.636368 0.0830584 -0.921455 -0.379503 
0.0673577 -0.697742 -0.713175 -0.0999759 -0.939641 -0.32723 -0.0850391 -0.666918 -0.740262 
-0.288436 -0.91145 -0.293366 -0.252059 -0.7364 -0.627838 -0.529225 -0.804522 -0.269566 
-0.5213 -0.809255 -0.270837 -0.519424 -0.803598 -0.290567 0.404482 0.682251 -0.609038 
0.230752 0.72171 -0.652601 0.00145353 0.697952 -0.716143 -0.198424 0.553933 -0.808571 
-0.356269 0.300254 -0.884828 0.453934 0.665507 -0.592489 0.519131 0.628299 -0.579434 
0.373157 0.627398 -0.683466 0.154704 0.52545 -0.836642 -0.103081 0.434124 -0.894936 
-0.288119 0.349799 -0.891419 -0.356814 0.293995 -0.886708 -0.357859 0.293627 -0.886409 
0.560528 0.590397 -0.580724 0.585364 0.57577 -0.570823 0.448284 0.517536 -0.728833 
0.261816 0.373198 -0.890043 -0.196084 0.198178 -0.960352 -0.348135 0.14863 -0.925587 
-0.331685 0.184165 -0.92524 -0.368216 0.152239 -0.917191 -0.26156 0.13702 -0.955412 
0.655174 0.520059 -0.547984 0.729863 0.421659 -0.538055 0.505724 0.475692 -0.719694 
0.27098 0.352188 -0.895842 -0.353262 -0.0130148 -0.935434 -0.320889 0.106781 -0.941078 
-0.219397 0.140247 -0.965503 -0.243844 0.120378 -0.962315 -0.0294184 0.229937 -0.972761 
-0.00788532 0.315068 -0.949036 -0.116391 0.383623 -0.916126 0.765449 0.357839 -0.534827 
0.711894 0.345786 -0.611261 0.391661 0.286208 -0.874464 -0.316344 -0.0410888 -0.947754 
-0.210738 0.0835481 -0.973966 -0.209828 0.0501159 -0.976453 0.00902933 0.224886 -0.974343 
0.0309442 0.297113 -0.954341 -0.233958 0.360062 -0.903116 -0.0995748 0.342394 -0.934265 
-0.269388 0.350189 -0.897105 -0.523577 0.217383 -0.823779 0.835569 0.180983 -0.518719 
0.666731 0.169904 -0.725673 -0.401856 0.10696 -0.909435 -0.233069 0.155381 -0.959966 
-0.107784 0.204307 -0.972955 0.148103 0.284382 -0.947202 0.0759673 0.307809 -0.948411 
-0.0714098 0.295612 -0.952635 -0.217936 0.277336 -0.935729 -0.543106 0.20268 -0.814835 
-0.523933 0.206161 -0.826433 0.859106 0.0188686 -0.51145 0.627437 0.00937394 -0.778611 
-0.154961 0.099006 -0.982947 -0.0836487 0.115666 -0.98976 -0.049234 0.378352 -0.924351 
0.0730733 0.347126 -0.934967 0.0225869 0.267544 -0.963281 -0.111752 0.204157 -0.972539 
-0.357689 0.101438 -0.928315 -0.659392 -0.0948915 -0.745787 -0.669552 -0.125975 -0.732005 
-0.646475 -0.0904362 -0.757556 0.85117 -0.196383 -0.486769 0.62634 -0.16482 -0.761927 
-0.131678 0.0485594 -0.990103 -0.00732656 0.00360121 -0.999967 0.132239 0.0727478 -0.988545 
-0.0561694 0.0676412 -0.996127 -0.232404 0.0118334 -0.972547 -0.702284 -0.269094 -0.659079 
-0.470806 -0.149186 -0.869532 0.793926 -0.386096 -0.469693 0.776666 -0.454479 -0.436163 
0.744261 -0.357827 -0.563946 -0.140691 0.0255819 -0.989723 -0.0551841 0.0705254 -0.995982 
0.0534114 -0.042475 -0.997669 0.0591735 -0.112288 -0.991912 -0.0558067 -0.151499 -0.986881 
-0.311322 -0.258775 -0.914393 -0.679014 -0.430936 -0.594335 -0.655948 -0.459608 -0.598743 
-0.622865 -0.392247 -0.676891 0.716756 -0.593988 -0.365294 0.57344 -0.746909 -0.33659 
0.527553 -0.55445 -0.64364 -0.0644098 -0.163074 -0.984509 -0.0739068 -0.0862646 -0.993527 
-0.0505491 -0.123435 -0.991064 -0.0534728 -0.22214 -0.973547 -0.215029 -0.369078 -0.904181 
-0.554184 -0.525272 -0.645731 -0.49908 -0.54883 -0.670601 -0.441815 -0.480364 -0.757661 
0.417204 -0.864243 -0.281114 0.37628 -0.882482 -0.282203 0.375678 -0.845265 -0.379991 
0.206224 -0.907782 -0.365244 0.100298 -0.724656 -0.681773 0.102915 -0.841041 -0.531092 
-0.0438372 -0.642232 -0.765256 0.0729649 -0.733424 -0.675844 -0.019089 -0.571377 -0.820466 
0.122512 -0.682667 -0.720387 0.0335957 -0.47121 -0.881381 0.0655642 -0.686122 -0.724526 
-0.000630746 -0.383948 -0.923354 -0.0860464 -0.65469 -0.750984 -0.0845057 -0.347803 -0.933752 
-0.225726 -0.60152 -0.766304 -0.201249 -0.42181 -0.884067 -0.39728 -0.55681 -0.729473 
-0.352589 -0.565716 -0.745417 -0.330218 -0.521964 -0.786454 0.0529247 0.289936 -0.955581 
0.128302 0.299708 -0.945365 0.199888 0.305472 -0.930984 -0.176009 0.203213 -0.963185 
0.0384002 0.248669 -0.967827 -0.198967 0.187565 -0.96189 0.262223 0.344063 -0.901588 
0.266607 0.346816 -0.899244 0.0997057 0.193669 -0.975987 -0.0430274 0.0981348 -0.994243 
-0.260104 0.0448202 -0.96454 -0.23092 0.056454 -0.971334 0.378377 0.281252 -0.881889 
0.386995 0.273952 -0.880446 0.147708 0.197655 -0.969079 -0.00687574 0.110049 -0.993902 
-0.0977916 0.0532161 -0.993783 -0.302922 0.0684637 -0.950553 -0.28597 0.0894431 -0.954055 
0.452741 0.128626 -0.882316 0.339715 0.115392 -0.933423 0.0799522 0.0657615 -0.994627 
-0.056554 0.0133496 -0.99831 -0.0648836 -0.0416128 -0.997025 -0.356451 0.045217 -0.933219 
-0.264411 -0.00238657 -0.964407 0.440682 -0.0134224 -0.897563 0.295668 -0.0299412 -0.954821 
0.0458438 -0.0515256 -0.997619 -0.117006 -0.0410462 -0.992283 -0.114768 -0.0810539 -0.99008 
-0.156144 -0.0499147 -0.986472 -0.155784 -0.128857 -0.97935 0.0598364 0.0863718 -0.994464 
0.377 -0.0787594 -0.922859 0.291689 -0.0576356 -0.954775 0.0737832 -0.0517632 -0.99593 
-0.0843212 0.0305626 -0.99597 -0.152626 0.0503417 -0.987001 -0.135812 0.00267765 -0.990731 
-0.13596 0.00115687 -0.990714 0.0617108 0.0825982 -0.99467 -0.028005 0.0715024 -0.997047 
0.0600051 0.0762867 -0.995279 0.0599022 0.0832162 -0.99473 0.459061 -0.21122 -0.862931 
0.423748 -0.283421 -0.860297 0.391419 -0.190626 -0.900252 0.137015 -0.111654 -0.984256 
-0.0124096 -0.0354889 -0.999293 -0.151412 -0.000769116 -0.98847 -0.148655 0.018885 -0.988709 
-0.16236 0.00573584 -0.986715 0.302194 -0.386155 -0.871529 0.276262 -0.40575 -0.871233 
0.263212 -0.360434 -0.894878 0.0445242 -0.478682 -0.876859 0.032546 -0.285682 -0.957772 
-0.111776 -0.369107 -0.922641 -0.120436 -0.271198 -0.954959 -0.0908963 -0.216844 -0.971965 
-0.0954538 -0.242104 -0.965544 -0.0981112 -0.229966 -0.96824 
