# vtk DataFile Version 4.2
vtk output
ASCII
DATASET POLYDATA
POINTS 560 float
-35.953 -43.8385 -16.4393 -26.737 -43.8385 -17.89 -17.521 -43.8385 -16.4756 
-8.30493 -43.8385 -16.4362 0.911108 -43.8385 -16.0017 -45.1691 -34.6225 -19.2156 
-35.953 -34.6225 -19.3429 -26.737 -34.6225 -18.7019 -17.521 -34.6225 -18.8023 
-8.30493 -34.6225 -19.262 0.911108 -34.6225 -19.6362 10.1271 -34.6225 -19.3924 
19.3432 -34.6225 -19.1793 28.5592 -34.6225 -19.367 37.7753 -34.6225 -19.0097 
46.9913 -34.6225 -17.7411 -54.3851 -25.4064 -18.7341 -45.1691 -25.4064 -20.069 
-35.953 -25.4064 -20.1938 -26.737 -25.4064 -20.2107 -17.521 -25.4064 -19.1011 
-8.30493 -25.4064 -20.0694 0.911108 -25.4064 -21.3613 10.1271 -25.4064 -20.5796 
19.3432 -25.4064 -20.962 28.5592 -25.4064 -21.8952 37.7753 -25.4064 -21.9882 
46.9913 -25.4064 -21.6427 56.2073 -25.4064 -18.4989 -54.3851 -16.1904 -18.252 
-45.1691 -16.1904 -20.8115 -35.953 -16.1904 -21.0592 -26.737 -16.1904 -20.1915 
-17.521 -16.1904 -18.9463 -8.30493 -16.1904 -21.7134 0.911108 -16.1904 -22.3999 
10.1271 -16.1904 -20.0016 19.3432 -16.1904 -21.0314 28.5592 -16.1904 -22.4622 
37.7753 -16.1904 -22.671 46.9913 -16.1904 -22.2079 56.2073 -16.1904 -19.6708 
-54.3851 -6.97435 -18.0135 -45.1691 -6.97435 -20.4869 -35.953 -6.97435 -21.4562 
-26.737 -6.97435 -20.936 -17.521 -6.97435 -21.2663 -8.30493 -6.97435 -22.8844 
0.911108 -6.97435 -19.524 10.1271 -6.97435 -22.5465 19.3432 -6.97435 -20.7322 
28.5592 -6.97435 -21.2919 37.7753 -6.97435 -22.2572 46.9913 -6.97435 -22.302 
56.2073 -6.97435 -20.8623 65.4234 -6.97435 -16.6485 -54.3851 2.24168 -16.732 
-45.1691 2.24168 -20.0596 -35.953 2.24168 -21.418 -26.737 2.24168 -22.0373 
-17.521 2.24168 -23.536 -8.30493 2.24168 -23.8364 0.911108 2.24168 -19.397 
10.1271 2.24168 -24.2882 19.3432 2.24168 -19.5835 28.5592 2.24168 -20.587 
37.7753 2.24168 -21.8021 46.9913 2.24168 -21.8676 56.2073 2.24168 -20.1781 
-45.1691 11.4577 -18.2784 -35.953 11.4577 -20.3865 -26.737 11.4577 -20.7036 
-17.521 11.4577 -20.8044 -8.30493 11.4577 -23.0026 0.911108 11.4577 -21.6824 
10.1271 11.4577 -19.7376 19.3432 11.4577 -19.8081 28.5592 11.4577 -21.5595 
37.7753 11.4577 -21.949 46.9913 11.4577 -21.7074 56.2073 11.4577 -19.4814 
-35.953 20.6738 -18.4431 -26.737 20.6738 -19.5972 -17.521 20.6738 -19.9851 
-8.30493 20.6738 -20.1735 0.911108 20.6738 -20.425 10.1271 20.6738 -20.6289 
19.3432 20.6738 -21.4682 28.5592 20.6738 -22.122 37.7753 20.6738 -22.3793 
46.9913 20.6738 -21.576 56.2073 20.6738 -17.6541 -35.953 29.8898 -15.8812 
-26.737 29.8898 -18.8671 -17.521 29.8898 -20.397 -8.30493 29.8898 -21.6128 
0.911108 29.8898 -21.3296 10.1271 29.8898 -22.1317 19.3432 29.8898 -21.839 
28.5592 29.8898 -21.8294 37.7753 29.8898 -20.3031 46.9913 29.8898 -17.7922 
-26.737 39.1058 -16.5427 -17.521 39.1058 -19.4117 -8.30493 39.1058 -21.2884 
0.911108 39.1058 -21.9611 10.1271 39.1058 -21.2849 19.3432 39.1058 -20.0503 
28.5592 39.1058 -17.8227 -17.521 48.3219 -16.2353 -8.30493 48.3219 -18.2014 
0.911108 48.3219 -18.2506 10.1271 48.3219 -16.4214 -35.953 -45.547 -15.6619 
-26.737 -46.9956 -15.6619 -17.521 -45.0849 -15.6619 -17.521 -53.0545 -6.9929 
-8.30493 -44.9667 -15.6619 -8.30493 -53.0545 -6.56959 0.911108 -44.3164 -15.6619 
-54.3851 -43.8385 -8.36518 -38.7439 -43.8385 -15.6619 -45.1691 -41.0127 -15.6619 
-45.1691 -43.8385 -13.0313 4.81602 -43.8385 -15.6619 10.1271 -42.9201 -15.6619 
10.1271 -43.8385 -15.0457 19.3432 -41.8968 -15.6619 19.3432 -43.8385 -14.0929 
28.5592 -40.5593 -15.6619 28.5592 -43.8385 -12.0932 37.7753 -39.1991 -15.6619 
37.7753 -43.8385 -10.4695 46.9913 -37.6615 -15.6619 -63.6011 -34.6225 -10.1743 
-53.7584 -34.6225 -15.6619 -54.3851 -33.8527 -15.6619 -54.3851 -34.6225 -15.3028 
51.9447 -34.6225 -15.6619 56.2073 -31.1127 -15.6619 56.2073 -34.6225 -12.7626 
-59.8759 -25.4064 -15.6619 -63.6011 -25.4064 -12.7723 62.55 -25.4064 -15.6619 
65.4234 -25.4064 -13.1056 -72.8172 -16.1904 -7.65084 -60.4809 -16.1904 -15.6619 
-63.6011 -16.1904 -14.2399 63.9676 -16.1904 -15.6619 65.4234 -11.776 -15.6619 
65.4234 -16.1904 -14.6202 -58.7912 -6.97435 -15.6619 -63.6011 -6.97435 -12.5611 
66.5261 -6.97435 -15.6619 65.4234 0.428651 -15.6619 -56.2921 2.24168 -15.6619 
-63.6011 2.24168 -9.24944 -54.3851 5.5284 -15.6619 65.0391 2.24168 -15.6619 
65.4234 2.24168 -15.3781 -50.3592 11.4577 -15.6619 -54.3851 11.4577 -13.144 
-45.1691 20.2693 -15.6619 62.9449 11.4577 -15.6619 65.4234 11.4577 -13.3624 
-54.3851 20.6738 -7.79053 -44.8136 20.6738 -15.6619 -45.1691 20.6738 -15.5269 
59.0837 20.6738 -15.6619 56.2073 24.4923 -15.6619 65.4234 20.6738 -6.87 
-36.3977 29.8898 -15.6619 -45.1691 29.8898 -10.2278 -35.953 30.4407 -15.6619 
37.7753 37.3872 -15.6619 50.8565 29.8898 -15.6619 46.9913 32.6733 -15.6619 
56.2073 29.8898 -9.86792 -28.6178 39.1058 -15.6619 -35.953 39.1058 -11.3802 
-26.737 40.9875 -15.6619 19.3432 45.3565 -15.6619 34.1257 39.1058 -15.6619 
28.5592 41.3018 -15.6619 37.7753 39.1058 -13.2457 -18.8061 48.3219 -15.6619 
-26.737 48.3219 -10.8006 -17.521 49.0458 -15.6619 -8.30493 51.5006 -15.6619 
0.911108 51.2054 -15.6619 12.1961 48.3219 -15.6619 10.1271 49.0689 -15.6619 
19.3432 48.3219 -10.6369 -8.30493 57.5379 -7.353 -17.521 -53.3364 -6.44591 
-8.30493 -53.1166 -6.44591 -54.3851 -44.6524 -6.44591 -45.1691 -48.523 -6.44591 
-35.953 -50.9058 -6.44591 -21.5397 -53.0545 -6.44591 -26.737 -52.6931 -6.44591 
-17.521 -53.0545 -5.6755 -7.94985 -53.0545 -6.44591 -8.30493 -53.0545 -6.24973 
0.911108 -51.4493 -6.44591 10.1271 -49.808 -6.44591 19.3432 -48.3813 -6.44591 
28.5592 -47.1258 -6.44591 37.7753 -46.275 -6.44591 -55.8752 -43.8385 -6.44591 
-63.6011 -37.9546 -6.44591 -54.3851 -43.8385 -4.22431 46.6915 -43.8385 -6.44591 
46.9913 -43.7573 -6.44591 46.9913 -43.8385 -3.78732 56.2073 -39.2871 -6.44591 
-66.4345 -34.6225 -6.44591 62.4271 -34.6225 -6.44591 65.4234 -31.3639 -6.44591 
-70.3936 -25.4064 -6.44591 -72.8172 -19.1804 -6.44591 69.1744 -25.4064 -6.44591 
-73.7291 -16.1904 -6.44591 -72.8172 -13.6148 -6.44591 71.6353 -16.1904 -6.44591 
-69.8581 -6.97435 -6.44591 73.0845 -6.97435 -6.44591 -65.7165 2.24168 -6.44591 
-63.6011 8.12152 -6.44591 71.8342 2.24168 -6.44591 -62.0771 11.4577 -6.44591 
-63.6011 11.4577 -3.47452 69.6819 11.4577 -6.44591 -55.5639 20.6738 -6.44591 
-54.3851 22.5824 -6.44591 65.6319 20.6738 -6.44591 65.4234 20.9675 -6.44591 
65.4234 20.6738 -0.795077 -49.1876 29.8898 -6.44591 -45.1691 34.7522 -6.44591 
46.9913 38.3911 -6.44591 58.1003 29.8898 -6.44591 56.2073 31.5971 -6.44591 
-41.4448 39.1058 -6.44591 -45.1691 39.1058 -0.448924 -35.953 44.2413 -6.44591 
28.5592 46.3015 -6.44591 45.5567 39.1058 -6.44591 37.7753 42.634 -6.44591 
-31.2931 48.3219 -6.44591 -35.953 48.3219 2.01816 -26.737 51.5679 -6.44591 
-17.521 56.1589 -6.44591 0.911108 57.0672 -6.44591 10.1271 54.0519 -6.44591 
23.7833 48.3219 -6.44591 19.3432 50.1983 -6.44591 -10.8741 57.5379 -6.44591 
-3.65684 57.5379 -6.44591 -8.30493 57.9752 -6.44591 -45.1691 -45.3519 2.77012 
-35.953 -46.3708 2.77012 -26.737 -48.1891 2.77012 -17.521 -47.9901 2.77012 
-8.30493 -49.0821 2.77012 0.911108 -49.0433 2.77012 10.1271 -48.399 2.77012 
19.3432 -47.9625 2.77012 28.5592 -47.4782 2.77012 37.7753 -46.8479 2.77012 
46.9913 -44.0325 2.77012 -63.6011 -36.1825 2.77012 -47.8259 -43.8385 2.77012 
-54.3851 -40.9736 2.77012 -45.1691 -43.8385 3.89634 -35.953 -43.8385 5.152 
-26.737 -43.8385 6.51946 -17.521 -43.8385 5.97602 -8.30493 -43.8385 7.66004 
0.911108 -43.8385 7.96533 10.1271 -43.8385 8.50168 19.3432 -43.8385 9.28526 
28.5592 -43.8385 9.83483 37.7753 -43.8385 9.63044 47.4695 -43.8385 2.77012 
46.9913 -43.8385 3.30748 56.2073 -39.7583 2.77012 -65.5055 -34.6225 2.77012 
-63.6011 -34.6225 4.46489 -54.3851 -34.6225 11.6065 -45.1691 -34.6225 11.9071 
-35.953 -34.6225 10.5262 -26.737 -34.6225 9.98459 -17.521 -34.6225 9.83471 
-8.30493 -34.6225 11.3188 62.9654 -34.6225 2.77012 65.4234 -31.7645 2.77012 
-72.0271 -25.4064 2.77012 -72.8172 -22.7812 2.77012 -17.521 -25.4064 11.8436 
69.5058 -25.4064 2.77012 65.4234 -25.4064 11.0541 -74.8007 -16.1904 2.77012 
-72.8172 -7.22814 2.77012 -72.8172 -16.1904 6.9707 72.3603 -16.1904 2.77012 
-72.763 -6.97435 2.77012 73.6404 -6.97435 2.77012 -69.1822 2.24168 2.77012 
72.2914 2.24168 2.77012 -65.7139 11.4577 2.77012 -63.6011 15.0373 2.77012 
69.5246 11.4577 2.77012 65.4234 20.3845 2.77012 65.4234 11.4577 11.2853 
-60.1532 20.6738 2.77012 -54.3851 29.8197 2.77012 65.2574 20.6738 2.77012 
-54.3375 29.8898 2.77012 -54.3851 29.8898 6.09708 46.9913 37.3021 2.77012 
56.9307 29.8898 2.77012 56.2073 30.5631 2.77012 56.2073 29.8898 4.04319 
-46.8908 39.1058 2.77012 -45.1691 40.8987 2.77012 28.5592 46.4622 2.77012 
43.8806 39.1058 2.77012 37.7753 42.3116 2.77012 37.7753 39.1058 11.0096 
-36.3654 48.3219 2.77012 -35.953 48.6137 2.77012 -26.737 54.2867 2.77012 
-17.521 57.4676 2.77012 0.911108 57.0424 2.77012 10.1271 53.7378 2.77012 
23.9113 48.3219 2.77012 19.3432 50.1305 2.77012 19.3432 48.3219 8.1646 
-16.5958 57.5379 2.77012 -2.95854 57.5379 2.77012 -8.30493 58.1656 2.77012 
-8.30493 57.5379 5.18678 0.911108 -35.4291 11.9862 10.1271 -38.9009 11.9862 
19.3432 -41.1513 11.9862 28.5592 -42.2393 11.9862 37.7753 -42.3862 11.9862 
46.9913 -39.4449 11.9862 56.2073 -34.9985 11.9862 -63.6011 -28.6497 11.9862 
-54.3851 -33.9087 11.9862 -45.1691 -34.5308 11.9862 -35.953 -32.1561 11.9862 
-26.737 -29.3978 11.9862 -2.16537 -34.6225 11.9862 -8.30493 -30.1752 11.9862 
0.911108 -34.6225 12.3219 10.1271 -34.6225 14.2091 19.3432 -34.6225 16.1829 
28.5592 -34.6225 17.9283 37.7753 -34.6225 17.7628 46.9913 -34.6225 16.5691 
56.6706 -34.6225 11.9862 56.2073 -34.6225 12.366 -66.8468 -25.4064 11.9862 
-63.6011 -25.4064 14.6451 -54.3851 -25.4064 15.17 -45.1691 -25.4064 16.896 
-35.953 -25.4064 16.0624 -18.2452 -25.4064 11.9862 -26.737 -25.4064 13.7112 
-15.9445 -25.4064 11.9862 -17.521 -24.9862 11.9862 -8.30493 -25.4064 12.6688 
0.911108 -25.4064 14.3826 10.1271 -25.4064 16.1507 19.3432 -25.4064 18.5378 
28.5592 -25.4064 20.7119 37.7753 -25.4064 20.8873 46.9913 -25.4064 20.7986 
[...]
POINT_DATA 560
SCALARS ImageScalars float
LOOKUP_TABLE default
0 0 0 0 0 0 0 0 0 
0 0 0 0 0 0 0 0 0 
0 0 0 0 0 0 0 0 0 
0 0 0 0 0 0 0 0 0 
0 0 0 0 0 0 0 0 0 
0 0 0 0 0 0 0 0 0 
0 0 0 0 0 0 0 0 0 
0 0 0 0 0 0 0 0 0 
0 0 0 0 0 0 0 0 0 
0 0 0 0 0 0 0 0 0 
0 0 0 0 0 0 0 0 0 
0 0 0 0 0 0 0 0 0 
0 0 0 0 0 0 0 0 0 
0 0 0 0 0 0 0 0 0 
0 0 0 0 0 0 0 0 0 
0 0 0 0 0 0 0 0 0 
0 0 0 0 0 0 0 0 0 
0 0 0 0 0 0 0 0 0 
0 0 0 0 0 0 0 0 0 
0 0 0 0 0 0 0 0 0 
0 0 0 0 0 0 0 0 0 
0 0 0 0 0 0 0 0 0 
0 0 0 0 0 0 0 0 0 
0 0 0 0 0 0 0 0 0 
0 0 0 0 0 0 0 0 0 
0 0 0 0 0 0 0 0 0 
0 0 0 0 0 0 0 0 0 
0 0 0 0 0 0 0 0 0 
0 0 0 0 0 0 0 0 0 
0 0 0 0 0 0 0 0 0 
0 0 0 0 0 0 0 0 0 
0 0 0 0 0 0 0 0 0 
0 0 0 0 0 0 0 0 0 
0 0 0 0 0 0 0 0 0 
0 0 0 0 0 0 0 0 0 
0 0 0 0 0 0 0 0 0 
0 0 0 0 0 0 0 0 0 
0 0 0 0 0 0 0 0 0 
0 0 0 0 0 0 0 0 0 
0 0 0 0 0 0 0 0 0 
0 0 0 0 0 0 0 0 0 
0 0 0 0 0 0 0 0 0 
0 0 0 0 0 0 0 0 0 
0 0 0 0 0 0 0 0 0 
0 0 0 0 0 0 0 0 0 
0 0 0 0 0 0 0 0 0 
0 0 0 0 0 0 0 0 0 
0 0 0 0 0 0 0 0 0 
0 0 0 0 0 0 0 0 0 
0 0 0 0 0 0 0 0 0 
0 0 0 0 0 0 0 0 0 
0 0 0 0 0 0 0 0 0 
0 0 0 0 0 0 0 0 0 
0 0 0 0 0 0 0 0 0 
0 0 0 0 0 0 0 0 0 
0 0 0 0 0 0 0 0 0 
0 0 0 0 0 0 0 0 0 
0 0 0 0 0 0 0 0 0 
0 0 0 0 0 0 0 0 0 
0 0 0 0 0 0 0 0 0 
0 0 0 0 0 0 0 0 0 
0 0 0 0 0 0 0 0 0 
0 0 
NORMALS Normals float
-0.222848 -0.388001 -0.894312 -0.0176444 -0.378189 -0.92556 0.0921317 -0.414178 -0.905521 
0.0248689 -0.46216 -0.886448 0.0576248 -0.525775 -0.84867 -0.166402 -0.266788 -0.949281 
0.0278236 -0.223496 -0.974308 0.0259428 -0.126927 -0.991573 -0.0299581 -0.125464 -0.991646 
-0.0447363 -0.168528 -0.984681 -0.00617404 -0.266112 -0.963922 0.0239897 -0.247717 -0.968535 
0.00197103 -0.313261 -0.949665 0.00671415 -0.410704 -0.911744 0.0851918 -0.467963 -0.879632 
0.227459 -0.492053 -0.840325 -0.317673 -0.117255 -0.940922 -0.090016 -0.103448 -0.990553 
-0.00741597 -0.08984 -0.995929 0.0593411 -0.0797841 -0.995044 0.00795858 -0.00735593 -0.999941 
-0.123667 -0.117935 -0.985291 -0.0271034 -0.147088 -0.988752 0.0214162 -0.0333344 -0.999215 
-0.0734347 -0.0949779 -0.992767 -0.05341 -0.158048 -0.985986 0.0124816 -0.175841 -0.984339 
0.175881 -0.220978 -0.959289 0.366333 -0.259792 -0.893481 -0.326728 0.0402252 -0.944262 
-0.137545 -0.0202613 -0.990288 0.0322164 -0.0674272 -0.997204 0.113721 -0.0389287 -0.99275 
-0.0578485 -0.104294 -0.992863 -0.200745 -0.153789 -0.967497 0.10177 0.0827233 -0.991363 
0.0695037 -0.084917 -0.993961 -0.135349 0.0127694 -0.990716 -0.0876164 0.031775 -0.995647 
0.0139779 -0.0138374 -0.999807 0.152118 -0.0334644 -0.987796 0.343023 -0.120881 -0.931516 
-0.364298 0.0774755 -0.928054 -0.176573 0.0424504 -0.983372 -0.0232685 -0.0195113 -0.999539 
0.0126642 -0.101472 -0.994758 -0.0980805 -0.25692 -0.961443 0.0909779 -0.102034 -0.990612 
0.0189594 0.175583 -0.984282 -0.0490342 -0.22339 -0.973495 0.054774 0.0770405 -0.995522 
-0.0823994 0.100924 -0.991476 -0.054435 0.0470162 -0.99741 0.0698071 0.0184735 -0.997389 
0.262392 -0.0256842 -0.96462 0.599109 -0.0302253 -0.800097 -0.433365 0.210124 -0.876381 
-0.240329 0.10781 -0.964686 -0.107632 0.0590549 -0.992435 -0.109383 0.00917562 -0.993957 
-0.0966203 0.0311708 -0.994833 0.190855 -0.00909906 -0.981576 0.00394802 -0.125139 -0.992131 
0.0420464 0.18157 -0.982479 0.128267 0.0545303 -0.990239 -0.115992 -0.0100026 -0.9932 
-0.068967 0.0166976 -0.997479 0.0828631 0.0321629 -0.996042 0.293181 0.0702003 -0.953476 
-0.336616 0.235035 -0.911838 -0.116022 0.153962 -0.981241 -0.0227713 0.132576 -0.990911 
-0.103836 0.191958 -0.975895 -0.0580708 0.210507 -0.975866 0.170529 -0.0283051 -0.984946 
0.0888737 0.125466 -0.988109 -0.0919807 -0.103032 -0.990416 -0.120021 -0.0859181 -0.989047 
-0.00626806 -0.0315749 -0.999482 0.123703 0.0147706 -0.992209 0.354461 0.127798 -0.926296 
-0.20505 0.227099 -0.95204 -0.0794814 0.0933891 -0.992452 -0.031006 0.0193299 -0.999332 
-0.0239073 0.0434958 -0.998767 -0.024902 0.00773249 -0.99966 -0.0571285 -0.122442 -0.99083 
-0.0803119 -0.109064 -0.990785 -0.049278 -0.0130731 -0.9987 0.0240846 0.0874112 -0.995881 
0.233202 0.181587 -0.955323 0.500488 0.315358 -0.806264 -0.375398 0.311202 -0.873058 
-0.22186 0.147978 -0.963785 -0.143024 0.028006 -0.989323 -0.0507483 -0.0622565 -0.996769 
-0.0252583 -0.0804526 -0.996438 -0.0288963 -0.0413807 -0.998726 0.0154642 0.0728828 -0.997221 
0.0855865 0.184403 -0.979117 0.196879 0.364639 -0.910097 0.375961 0.514214 -0.770868 
-0.36034 0.330272 -0.872397 -0.231214 0.198021 -0.952538 -0.135296 0.162368 -0.977411 
-0.00131249 0.123028 -0.992402 0.0995934 0.24692 -0.963904 0.158285 0.395077 -0.904909 
0.282511 0.602919 -0.746107 -0.29376 0.523364 -0.799872 -0.0954373 0.501532 -0.859859 
0.0778225 0.563496 -0.822445 0.233178 0.671454 -0.703405 -0.215583 -0.47088 -0.855451 
0.021231 -0.554057 -0.832208 0.0915291 -0.471593 -0.877054 -0.0239295 -0.993683 -0.10964 
0.0285775 -0.498675 -0.866318 0.104516 -0.988817 -0.106381 0.0623184 -0.541737 -0.838235 
-0.487704 -0.855525 -0.173844 -0.236759 -0.45336 -0.859308 -0.213738 -0.516227 -0.829352 
-0.278135 -0.724803 -0.630318 0.0624094 -0.567752 -0.82083 0.0655186 -0.587895 -0.806279 
0.0765086 -0.646055 -0.759447 0.0728274 -0.597385 -0.798641 0.102458 -0.721477 -0.684816 
0.0810905 -0.621986 -0.778818 0.116477 -0.815383 -0.567084 0.103025 -0.616757 -0.780383 
0.155201 -0.851294 -0.50121 0.251093 -0.614578 -0.747827 -0.70231 -0.482824 -0.523107 
-0.400618 -0.345723 -0.848517 -0.410245 -0.329823 -0.850245 -0.422947 -0.359278 -0.831887 
0.360429 -0.557672 -0.747725 0.435504 -0.480579 -0.76117 0.50487 -0.645631 -0.572945 
-0.49824 -0.123443 -0.858207 -0.641043 -0.15772 -0.751124 0.554395 -0.308183 -0.773091 
0.707553 -0.350693 -0.613501 -0.858059 0.0260709 -0.512889 -0.430334 0.0258151 -0.9023 
-0.502743 0.00722542 -0.864406 0.585383 -0.115844 -0.802438 0.620308 -0.0749048 -0.780773 
0.656572 -0.128392 -0.743256 -0.477844 0.110035 -0.871526 -0.625908 0.194735 -0.755194 
0.63551 -0.0300954 -0.771506 0.628401 0.0911954 -0.772526 -0.481097 0.226387 -0.846933 
-0.750334 0.307183 -0.585353 -0.471053 0.259313 -0.843129 0.618506 0.118436 -0.776803 
0.640065 0.122545 -0.758485 -0.451359 0.301435 -0.839888 -0.551619 0.365798 -0.749606 
-0.417985 0.323374 -0.848951 0.601215 0.199907 -0.773678 0.745671 0.253186 -0.616337 
-0.691046 0.430939 -0.580299 -0.412782 0.32395 -0.851274 -0.422793 0.328285 -0.844675 
0.584764 0.361844 -0.726031 0.547263 0.457226 -0.701034 0.826078 0.517236 -0.223745 
-0.383546 0.318586 -0.86683 -0.562632 0.475618 -0.67619 -0.383317 0.320551 -0.866207 
0.313923 0.670534 -0.672188 0.482383 0.570829 -0.664425 0.42116 0.619792 -0.66218 
0.637742 0.701301 -0.318533 -0.389062 0.358664 -0.848522 -0.52152 0.503849 -0.688588 
-0.38614 0.381048 -0.840058 0.287923 0.684159 -0.670095 0.323985 0.689203 -0.648099 
0.320982 0.686461 -0.652488 0.354646 0.772706 -0.526452 -0.31752 0.534295 -0.783396 
-0.485015 0.642354 -0.593415 -0.293953 0.554073 -0.778842 -0.0819496 0.633719 -0.769211 
0.107709 0.682189 -0.723199 0.257059 0.705821 -0.660104 0.240798 0.701625 -0.670625 
0.360988 0.853511 -0.375774 -0.0414945 0.954875 -0.294095 -0.0243431 -0.996708 -0.0773304 
0.104563 -0.989736 -0.0974098 -0.478589 -0.877338 -0.0350684 -0.331592 -0.937485 -0.105683 
-0.235554 -0.9686 0.0795505 -0.0723163 -0.995841 -0.0554131 -0.129799 -0.991102 -0.0294856 
-0.029666 -0.998875 -0.0370068 0.10756 -0.989252 -0.0990512 0.103196 -0.991062 -0.0845378 
0.172853 -0.973456 -0.15002 0.167535 -0.966351 -0.195187 0.145774 -0.961945 -0.231112 
0.110102 -0.956399 -0.270514 0.18075 -0.939322 -0.291555 -0.514632 -0.856057 -0.0481656 
-0.734281 -0.640381 -0.225263 -0.474901 -0.87741 0.0679681 0.303546 -0.926402 -0.222797 
0.307768 -0.925416 -0.221097 0.31748 -0.941565 -0.112525 0.535314 -0.796116 -0.282204 
-0.800115 -0.533576 -0.274065 0.67573 -0.684063 -0.274675 0.769611 -0.583876 -0.258431 
-0.841698 -0.312184 -0.440551 -0.893857 -0.0938169 -0.438426 0.871699 -0.418044 -0.255695 
-0.893516 0.0261061 -0.448272 -0.882275 0.124327 -0.45402 0.923511 -0.198257 -0.328363 
-0.805217 0.329028 -0.493322 0.955657 -0.00793591 -0.294376 -0.807042 0.341387 -0.481808 
-0.776887 0.383635 -0.49927 0.940909 0.178277 -0.287938 -0.74713 0.421502 -0.513938 
-0.820176 0.442757 -0.362323 0.919349 0.317205 -0.232762 -0.71394 0.446832 -0.539102 
-0.708206 0.452345 -0.54206 0.829746 0.519602 -0.203801 0.826649 0.525177 -0.202089 
0.835121 0.546542 0.0621619 -0.654388 0.509765 -0.558494 -0.628461 0.546684 -0.553329 
0.501794 0.851429 -0.152547 0.679785 0.717229 -0.153214 0.642854 0.750362 -0.153933 
-0.618331 0.578703 -0.531761 -0.689361 0.65396 -0.311637 -0.585832 0.631334 -0.508152 
0.354832 0.912026 -0.205676 0.485588 0.859917 -0.157309 0.408088 0.892911 -0.190192 
-0.549538 0.699903 -0.456228 -0.570714 0.799583 -0.186957 -0.474556 0.773782 -0.419594 
-0.300408 0.894002 -0.332437 0.192292 0.956273 -0.220378 0.332957 0.923295 -0.191485 
0.366782 0.909932 -0.193633 0.38474 0.903828 -0.187271 -0.109755 0.956397 -0.270662 
0.0795274 0.968564 -0.235709 -0.0373502 0.967105 -0.251621 -0.260865 -0.71091 0.653112 
-0.125152 -0.725846 0.676376 -0.0850746 -0.737953 0.669469 -0.0396755 -0.715308 0.697682 
-0.0392554 -0.76739 0.639978 0.0368442 -0.845141 0.533273 0.0548524 -0.908336 0.414629 
0.0484623 -0.954751 0.29343 0.0587569 -0.976838 0.205757 0.181012 -0.968412 0.171502 
0.325736 -0.933229 0.151588 -0.525433 -0.759156 0.384192 -0.316028 -0.719613 0.618291 
-0.369279 -0.83001 0.41799 -0.236923 -0.656384 0.716259 -0.132162 -0.631507 0.764024 
-0.047073 -0.539686 0.840549 -0.0463729 -0.512492 0.857439 -0.0910704 -0.563182 0.821299 
-0.035988 -0.622562 0.781743 -0.0525701 -0.717923 0.694134 -0.047658 -0.788706 0.61292 
-0.014436 -0.839006 0.543931 0.129146 -0.858273 0.496678 0.33495 -0.929666 0.153394 
0.32724 -0.928964 0.173033 0.540764 -0.821759 0.179685 -0.582987 -0.729577 0.357552 
-0.509951 -0.736119 0.44506 -0.283609 -0.481412 0.829343 0.0567728 -0.674574 0.736021 
0.080724 -0.529315 0.844576 0.0321827 -0.365803 0.930136 -0.069422 -0.282644 0.956709 
-0.129283 -0.224052 0.965964 0.702075 -0.685483 0.192881 0.77327 -0.602208 0.198494 
-0.921701 -0.348859 0.169603 -0.950765 -0.255824 0.174929 0.0509726 -0.267968 0.962079 
0.874811 -0.449524 0.18065 0.687871 -0.449195 0.570137 -0.987686 -0.0367125 0.152083 
-0.961636 0.27365 0.0192532 -0.92939 -0.0967713 0.356186 0.967764 -0.198704 0.154756 
-0.959571 0.281064 0.015081 0.985592 0.00450862 0.169078 -0.922846 0.377811 -0.074931 
0.965541 0.204611 0.160825 -0.888029 0.455125 -0.0653173 -0.872724 0.480747 -0.0850608 
0.907498 0.365236 0.207485 0.811289 0.537625 0.229715 0.742607 0.371391 0.557317 
-0.851766 0.506623 -0.133521 -0.813008 0.554582 -0.177362 0.807021 0.543504 0.23091 
-0.812544 0.555108 -0.177841 -0.83381 0.550735 -0.0380978 0.525794 0.817208 0.236034 
0.657921 0.708825 0.254376 0.646924 0.719478 0.252668 0.6453 0.702754 0.299539 
-0.710425 0.673574 -0.203945 -0.69025 0.695284 -0.200337 0.380679 0.914204 0.138978 
0.49241 0.844596 0.210214 0.437217 0.882838 0.171577 0.445274 0.740214 0.5038 
-0.570391 0.804836 -0.163994 -0.565545 0.808592 -0.162288 -0.425281 0.902168 -0.0723077 
-0.194753 0.98032 0.0323079 0.232129 0.961632 0.146217 0.338181 0.923641 0.180336 
0.372183 0.917226 0.14204 0.36517 0.91862 0.15096 0.340979 0.865417 0.367133 
-0.173434 0.983984 0.0411859 0.142535 0.980774 0.133286 0.0208298 0.993358 0.113161 
0.034856 0.981008 0.190812 -0.141329 -0.323084 0.935758 -0.149056 -0.47649 0.866452 
-0.104211 -0.633449 0.766735 -0.0437862 -0.740675 0.670435 0.106556 -0.767323 0.632346 
0.303506 -0.725327 0.617888 0.481413 -0.637293 0.601747 -0.417737 -0.52119 0.744216 
-0.270772 -0.461192 0.844976 0.0569082 -0.671471 0.738842 0.132178 -0.503483 0.853835 
0.124802 -0.360406 0.924409 -0.142346 -0.274061 0.951119 -0.13178 -0.218996 0.966786 
-0.151174 -0.302388 0.941121 -0.194203 -0.333296 0.922605 -0.184411 -0.383819 0.904807 
-0.082788 -0.429567 0.899232 0.0563432 -0.468516 0.881657 0.236278 -0.551753 0.799839 
0.491359 -0.626561 0.604968 0.482275 -0.625 0.613828 -0.561573 -0.41744 0.714408 
-0.364127 -0.421652 0.830435 -0.134031 -0.417533 0.898722 -0.0381425 -0.360471 0.93199 
0.169137 -0.438941 0.882453 0.0624942 -0.274877 0.959446 0.203279 -0.364797 0.908626 
0.018721 -0.260902 0.965184 0.051355 -0.272299 0.960841 -0.136343 -0.238482 0.961528 
-0.178007 -0.216639 0.959886 -0.220179 -0.152561 0.963455 -0.234194 -0.174368 0.956425 
-0.120306 -0.183506 0.975629 -0.00470744 -0.284518 0.958659 0.111981 -0.265896 0.957475 
0.650698 -0.44389 0.616079 0.409621 -0.354018 0.840763 0.676597 -0.411031 0.610958 
-0.704905 -0.139223 0.695504 -0.446402 -0.171944 0.878157 -0.181995 -0.286387 0.94067 
-0.00613848 -0.29758 0.954677 0.147907 -0.284342 0.947245 0.227655 -0.344797 0.910653 
0.0292055 -0.370896 0.928215 -0.11037 -0.38599 0.915877 -0.00804558 -0.1874 0.982251 
-0.135623 -0.207946 0.968692 -0.243049 -0.0892192 0.965902 0.33543 -0.148345 0.930312 
0.794869 -0.191933 0.575626 0.678829 -0.216102 0.701778 -0.809553 0.083422 0.58109 
-0.550768 -0.0219856 0.834369 0.157676 -0.211525 0.96457 0.0586929 -0.268884 0.961383 
0.0456103 -0.157742 0.986426 -0.0717012 -0.0857141 0.993736 -0.12043 -0.325137 0.937967 
-0.0899227 -0.0699188 0.993491 0.814914 -0.00304762 0.579574 0.657375 -0.00645323 0.753536 
-0.82921 0.283074 0.481955 -0.666845 0.199339 0.71804 0.0551835 -0.165757 0.984621 
0.0359782 -0.0559977 0.997782 -0.171418 -0.214325 0.961603 0.0095382 -0.0194018 0.999766 
0.369253 0.144982 0.91795 0.796892 0.194476 0.571964 0.729919 0.351497 0.586233 
0.68539 0.19858 0.700576 -0.828064 0.396022 0.396835 -0.828761 0.398529 0.392849 
-0.820187 0.391639 0.417027 -0.430432 0.172203 0.886044 0.0524944 -0.0131296 0.998535 
-0.0379959 0.0170694 0.999132 0.0190628 0.159842 0.986959 -0.0694923 -0.00192621 0.997581 
0.71793 0.368763 0.590416 0.447722 0.28418 0.847813 -0.83524 0.417086 0.358348 
-0.674113 0.286728 0.680705 0.188998 -0.103074 0.976553 0.0411895 0.00108607 0.999151 
-0.0684562 0.00299272 0.99765 -0.0752452 0.00799053 0.997133 0.109882 0.22546 0.968036 
0.302142 0.342332 0.889674 0.614649 0.5022 0.608278 0.579849 0.541708 0.608545 
0.54409 0.479386 0.688589 -0.82829 0.512614 0.226192 -0.827327 0.514377 0.225712 
-0.82699 0.510884 0.234704 0.0737713 -0.0716821 0.994696 0.0179113 0.0421752 0.99895 
0.0274737 0.144562 0.989114 0.106451 0.2534 0.961487 0.438013 0.708011 0.553954 
0.253564 0.421322 0.870743 0.518734 0.618664 0.59006 0.495059 0.645315 0.581795 
0.469085 0.589658 0.657467 -0.716137 0.662355 0.220077 -0.680679 0.698744 0.220076 
-0.665657 0.632955 0.395308 0.138256 0.155927 0.978045 0.148299 0.300992 0.942025 
0.301852 0.768125 0.564685 0.160255 0.446986 0.880069 0.431881 0.716055 0.548402 
0.344928 0.766162 0.542237 0.280864 0.590567 0.756536 -0.536858 0.805986 0.249341 
-0.526369 0.812142 0.251716 -0.519637 0.803675 0.289972 -0.31197 0.887953 0.337955 
-0.257552 0.686212 0.680279 -0.104746 0.906706 0.40855 -0.0471711 0.526509 0.84886 
0.0899994 0.876439 0.473027 0.138783 0.437752 0.88832 0.254404 0.799346 0.544357 
0.251946 0.543868 0.800457 0.306338 0.776608 0.550487 0.306616 0.767894 0.562428 
0.291647 0.710714 0.640178 -0.157726 -0.135005 0.978211 -0.00930056 -0.266644 0.96375 
0.120278 -0.227332 0.966361 -0.200613 -0.128432 0.971216 -0.0120329 -0.219842 0.975461 
0.110577 -0.190909 0.97536 -0.210936 -0.0835642 0.973921 -0.200633 -0.0837306 0.976082 
-0.0366861 -0.13876 0.989646 0.251336 -0.137402 0.958098 0.15664 -0.129886 0.979078 
0.318374 -0.0725239 0.945187 -0.222157 -0.107775 0.969036 -0.204127 -0.114213 0.972259 
-0.0129813 -0.130799 0.991324 0.12041 -0.180737 0.976133 0.101577 -0.165695 0.980932 
0.135008 -0.16093 0.977688 -0.104541 -0.267266 0.957935 -0.124829 -0.0593438 0.990402 
-0.172382 -0.0485535 0.983833 -0.0611499 -0.0140367 0.99803 0.0899439 -0.0463867 0.994866 
0.345059 -0.0344639 0.937948 0.35088 0.0835113 0.932689 0.313741 -0.037871 0.948753 
-0.314933 0.0579838 0.947341 -0.321808 0.0726701 0.944012 -0.303261 0.0526937 0.951449 
-0.0611368 -0.041115 0.997282 0.0613842 -0.0992261 0.99317 0.100301 -0.14995 0.983593 
0.125068 -0.14246 0.981867 0.106021 -0.157773 0.981767 -0.108391 -0.107123 0.98832 
0.00168461 -0.0153982 0.99988 0.0073895 0.129888 0.991501 -0.0314342 0.00102431 0.999505 
-0.0203084 -0.0125996 0.999714 -0.149299 0.0146756 0.988683 -0.0339673 0.0360264 0.998773 
0.344751 0.138748 0.928383 0.137165 0.088101 0.986623 -0.335168 0.113215 0.935331 
-0.154512 -0.00152741 0.98799 -0.00162699 -0.0808245 0.996727 0.0923759 -0.141727 0.985586 
0.11286 -0.0977246 0.988793 0.149327 -0.150457 0.977274 -0.089894 0.0270479 0.995584 
-0.119022 0.066637 0.990653 0.107087 0.222634 0.969003 0.011858 0.128599 0.991626 
0.245364 0.213875 0.945544 0.221083 0.227385 0.948377 0.203104 0.200897 0.958326 
-0.392937 0.113394 0.912547 -0.289081 0.0708588 0.954679 -0.0722819 -0.0529685 0.995977 
0.0555515 -0.0824315 0.995047 0.189922 -0.106159 0.976043 0.184553 -0.123267 0.975062 
0.18628 -0.0857193 0.97875 -0.0387601 0.0625239 0.997291 0.0882528 0.203544 0.97508 
0.00333518 0.121651 0.992567 -0.0152191 0.0976389 0.995106 -0.42065 0.265375 0.867542 
-0.415029 0.282837 0.864728 -0.396351 0.254954 0.881989 -0.164339 0.102473 0.981067 
0.0232781 0.037452 0.999027 0.137475 -0.0424922 0.989593 0.108373 -0.0666589 0.991873 
0.17766 -0.0510959 0.982765 -0.360048 0.438035 0.823705 -0.309512 0.468694 0.827362 
-0.281116 0.400683 0.872025 -0.149304 0.446546 0.882216 -0.0828615 0.251527 0.964297 
-0.0135623 0.433453 0.901074 0.0961837 0.203914 0.974252 0.139164 0.13831 0.980563 
0.143207 0.193951 0.970502 0.147441 0.0997946 0.984024 
