# vtk DataFile Version 4.2
vtk output
ASCII
DATASET POLYDATA
POINTS 549 float
-7.20441 -19.0027 -13.5511 -0.98507 -19.0027 -14.4262 5.23427 -19.0027 -15.2639 
11.4536 -19.0027 -14.5214 17.6729 -19.0027 -13.7396 -44.5204 -12.7833 -13.5572 
-38.3011 -12.7833 -15.6861 -32.0818 -12.7833 -16.2992 -25.8624 -12.7833 -16.2628 
-19.6431 -12.7833 -15.7811 -13.4237 -12.7833 -15.9083 -7.20441 -12.7833 -17.0383 
-0.98507 -12.7833 -17.1239 5.23427 -12.7833 -17.8182 11.4536 -12.7833 -17.3056 
17.6729 -12.7833 -16.4242 23.8923 -12.7833 -16.5152 30.1116 -12.7833 -16.8368 
36.331 -12.7833 -16.4379 42.5503 -12.7833 -15.3706 -44.5204 -6.56399 -16.2898 
-38.3011 -6.56399 -17.5949 -32.0818 -6.56399 -18.0197 -25.8624 -6.56399 -17.9567 
-19.6431 -6.56399 -16.923 -13.4237 -6.56399 -16.8595 -7.20441 -6.56399 -18.2405 
-0.98507 -6.56399 -16.4311 5.23427 -6.56399 -17.69 11.4536 -6.56399 -17.4995 
17.6729 -6.56399 -16.6929 23.8923 -6.56399 -17.3357 30.1116 -6.56399 -17.8365 
36.331 -6.56399 -18.0817 42.5503 -6.56399 -17.7628 48.7696 -6.56399 -16.3718 
-50.7398 -0.344653 -14.7857 -44.5204 -0.344653 -18.01 -38.3011 -0.344653 -19.0454 
-32.0818 -0.344653 -19.2552 -25.8624 -0.344653 -18.5144 -19.6431 -0.344653 -17.3138 
-13.4237 -0.344653 -16.8177 -7.20441 -0.344653 -18.4479 -0.98507 -0.344653 -16.1635 
5.23427 -0.344653 -18.4651 11.4536 -0.344653 -16.9858 17.6729 -0.344653 -16.1178 
23.8923 -0.344653 -17.2194 30.1116 -0.344653 -18.1526 36.331 -0.344653 -18.5561 
42.5503 -0.344653 -18.5116 48.7696 -0.344653 -16.4807 54.989 -0.344653 -13.6167 
-50.7398 5.87469 -14.5708 -44.5204 5.87469 -18.2335 -38.3011 5.87469 -19.3729 
-32.0818 5.87469 -19.6255 -25.8624 5.87469 -19.4399 -19.6431 5.87469 -18.3549 
-13.4237 5.87469 -17.7262 -7.20441 5.87469 -17.5086 -0.98507 5.87469 -16.1815 
5.23427 5.87469 -16.7479 11.4536 5.87469 -15.6276 17.6729 5.87469 -16.1572 
23.8923 5.87469 -16.9888 30.1116 5.87469 -17.9059 36.331 5.87469 -18.275 
42.5503 5.87469 -18.2412 48.7696 5.87469 -16.9359 54.989 5.87469 -13.8838 
-44.5204 12.094 -17.0171 -38.3011 12.094 -18.6914 -32.0818 12.094 -19.2128 
-25.8624 12.094 -19.461 -19.6431 12.094 -18.1308 -13.4237 12.094 -16.7869 
-7.20441 12.094 -16.024 -0.98507 12.094 -15.5646 5.23427 12.094 -13.7242 
11.4536 12.094 -14.2915 17.6729 12.094 -15.6895 23.8923 12.094 -16.6893 
30.1116 12.094 -17.5747 36.331 12.094 -17.2208 42.5503 12.094 -16.1373 
48.7696 12.094 -14.3645 -44.5204 18.3134 -13.8399 -38.3011 18.3134 -15.6035 
-32.0818 18.3134 -16.7296 -25.8624 18.3134 -16.2036 -19.6431 18.3134 -14.8527 
17.6729 18.3134 -13.7463 23.8923 18.3134 -14.7528 30.1116 18.3134 -15.0312 
36.331 18.3134 -14.3285 -7.20441 -19.0369 -13.52 -0.98507 -19.8463 -13.52 
5.23427 -20.5365 -13.52 11.4536 -20.0529 -13.52 17.6729 -19.2627 -13.52 
-44.5204 -12.8379 -13.52 -44.5204 -19.0027 -7.62752 -38.3011 -15.7335 -13.52 
-38.3011 -19.0027 -9.99963 -32.0818 -17.2532 -13.52 -32.0818 -19.0027 -12.0199 
-25.8624 -17.5608 -13.52 -25.8624 -19.0027 -12.1762 -19.6431 -17.352 -13.52 
-19.6431 -19.0027 -12.2735 -7.44358 -19.0027 -13.52 -13.4237 -17.6722 -13.52 
-13.4237 -19.0027 -12.6214 22.7837 -19.0027 -13.52 23.8923 -18.9136 -13.52 
23.8923 -19.0027 -13.4548 30.1116 -18.1361 -13.52 30.1116 -19.0027 -12.7206 
36.331 -17.6187 -13.52 36.331 -19.0027 -12.0789 42.5503 -15.3578 -13.52 
42.5503 -19.0027 -9.03336 -44.5911 -12.7833 -13.52 -50.7398 -12.7833 -8.24386 
47.3677 -12.7833 -13.52 48.7696 -11.8734 -13.52 48.7696 -12.7833 -12.8037 
54.989 -12.7833 -7.54435 -49.8062 -6.56399 -13.52 -50.7398 -4.71969 -13.52 
-50.7398 -6.56399 -12.8808 54.4145 -6.56399 -13.52 54.989 -1.588 -13.52 
54.989 -6.56399 -13.073 -52.3383 -0.344653 -13.52 -56.9591 -0.344653 -7.59445 
55.1477 -0.344653 -13.52 61.2083 -0.344653 -7.34991 -51.9339 5.87469 -13.52 
-50.7398 9.86455 -13.52 55.6149 5.87469 -13.52 54.989 6.46475 -13.52 
61.2083 5.87469 -8.14967 -49.7696 12.094 -13.52 -50.7398 12.094 -12.4977 
-13.4237 16.9717 -13.52 -7.20441 16.1028 -13.52 -0.98507 16.604 -13.52 
5.23427 12.5048 -13.52 11.4536 13.9689 -13.52 42.5503 17.1246 -13.52 
50.2024 12.094 -13.52 48.7696 13.4159 -13.52 54.989 12.094 -9.72604 
-44.9296 18.3134 -13.52 -44.5204 18.6003 -13.52 -38.3011 20.1829 -13.52 
-32.0818 22.2783 -13.52 -25.8624 20.7419 -13.52 -16.1224 18.3134 -13.52 
-19.6431 19.8408 -13.52 -13.4237 18.3134 -12.115 -7.20441 18.3134 -11.7573 
-0.98507 18.3134 -12.2688 5.23427 18.3134 -9.93889 17.0167 18.3134 -13.52 
11.4536 18.3134 -11.3384 17.6729 18.6327 -13.52 23.8923 19.8099 -13.52 
30.1116 20.1908 -13.52 39.7031 18.3134 -13.52 36.331 19.3116 -13.52 
42.5503 18.3134 -12.4969 48.7696 18.3134 -8.12671 -44.5204 -19.2028 -7.30063 
-38.3011 -20.7125 -7.30063 -32.0818 -22.0949 -7.30063 -25.8624 -22.3501 -7.30063 
-19.6431 -22.6128 -7.30063 -13.4237 -23.3693 -7.30063 -7.20441 -23.8806 -7.30063 
-0.98507 -23.2513 -7.30063 5.23427 -23.2044 -7.30063 11.4536 -23.7936 -7.30063 
17.6729 -23.6939 -7.30063 23.8923 -23.202 -7.30063 30.1116 -22.6895 -7.30063 
36.331 -21.6508 -7.30063 42.5503 -20.0445 -7.30063 -44.836 -19.0027 -7.30063 
-50.7398 -13.5122 -7.30063 45.092 -19.0027 -7.30063 48.7696 -17.3773 -7.30063 
54.989 -13.0392 -7.30063 -51.5203 -12.7833 -7.30063 55.2422 -12.7833 -7.30063 
-55.0626 -6.56399 -7.30063 -56.9591 -0.85174 -7.30063 60.6955 -6.56399 -7.30063 
61.2083 -0.727869 -7.30063 61.2083 -6.56399 -5.49489 -57.1187 -0.344653 -7.30063 
-56.9591 0.561741 -7.30063 61.2375 -0.344653 -7.30063 -56.0208 5.87469 -7.30063 
-56.9591 5.87469 -1.98808 61.7077 5.87469 -7.30063 61.2083 6.85519 -7.30063 
-54.0914 12.094 -7.30063 -50.7398 16.1201 -7.30063 57.7682 12.094 -7.30063 
54.989 15.222 -7.30063 -48.4122 18.3134 -7.30063 -44.5204 20.9024 -7.30063 
-38.3011 23.1046 -7.30063 -32.0818 23.6894 -7.30063 -25.8624 24.0131 -7.30063 
-19.6431 22.6779 -7.30063 -13.4237 21.715 -7.30063 -7.20441 22.0779 -7.30063 
-0.98507 21.5154 -7.30063 5.23427 20.4257 -7.30063 11.4536 21.9726 -7.30063 
17.6729 23.2985 -7.30063 23.8923 24.0417 -7.30063 30.1116 23.8198 -7.30063 
36.331 22.9648 -7.30063 42.5503 21.6188 -7.30063 50.0874 18.3134 -7.30063 
48.7696 18.8129 -7.30063 -25.8624 24.5327 -2.10626 -44.5204 -20.2246 -1.08129 
-38.3011 -22.5046 -1.08129 -32.0818 -23.3563 -1.08129 -25.8624 -23.9997 -1.08129 
-19.6431 -24.0463 -1.08129 -13.4237 -24.7282 -1.08129 -7.20441 -25.2106 -1.08129 
-0.98507 -24.7851 -1.08129 5.23427 -24.6543 -1.08129 11.4536 -24.9003 -1.08129 
17.6729 -24.6454 -1.08129 23.8923 -24.1354 -1.08129 30.1116 -23.8724 -1.08129 
36.331 -22.478 -1.08129 42.5503 -21.5296 -1.08129 -46.6712 -19.0027 -1.08129 
-50.7398 -15.9358 -1.08129 47.777 -19.0027 -1.08129 48.7696 -18.5227 -1.08129 
54.989 -15.2886 -1.08129 -54.1148 -12.7833 -1.08129 57.0819 -12.7833 -1.08129 
61.2083 -7.84373 -1.08129 -56.7214 -6.56399 -1.08129 -56.9591 -5.69711 -1.08129 
62.1712 -6.56399 -1.08129 61.2083 -6.56399 3.48011 -58.427 -0.344653 -1.08129 
63.3273 -0.344653 -1.08129 -57.1083 5.87469 -1.08129 -56.9591 6.46139 -1.08129 
-56.9591 5.87469 0.185808 63.5047 5.87469 -1.08129 61.2083 9.61822 -1.08129 
-55.1297 12.094 -1.08129 -50.7398 17.0472 -1.08129 59.2973 12.094 -1.08129 
54.989 17.7398 -1.08129 -49.2019 18.3134 -1.08129 -44.5204 21.0921 -1.08129 
-38.3011 23.5722 -1.08129 -32.0818 24.228 -1.08129 -19.6431 24.1823 -1.08129 
-13.4237 24.0986 -1.08129 -7.20441 23.7102 -1.08129 -0.98507 22.1332 -1.08129 
5.23427 21.5277 -1.08129 11.4536 23.0793 -1.08129 17.6729 23.7405 -1.08129 
23.8923 23.8157 -1.08129 30.1116 24.0857 -1.08129 36.331 23.0322 -1.08129 
42.5503 22.7171 -1.08129 53.6821 18.3134 -1.08129 48.7696 19.7594 -1.08129 
48.7696 18.3134 4.40944 -27.3462 24.5327 -1.08129 -24.5307 24.5327 -1.08129 
-25.8624 24.5327 -0.517479 -44.5204 -20.3862 5.13805 -38.3011 -22.7575 5.13805 
-32.0818 -23.5912 5.13805 -25.8624 -24.1364 5.13805 -19.6431 -23.6158 5.13805 
-13.4237 -23.2113 5.13805 -7.20441 -23.1681 5.13805 -0.98507 -23.2663 5.13805 
5.23427 -23.4325 5.13805 11.4536 -23.1877 5.13805 17.6729 -22.8319 5.13805 
23.8923 -22.5047 5.13805 30.1116 -22.2129 5.13805 36.331 -21.2168 5.13805 
42.5503 -19.5779 5.13805 -46.7772 -19.0027 5.13805 -50.7398 -15.6198 5.13805 
11.4536 -19.0027 11.0153 17.6729 -19.0027 11.0316 23.8923 -19.0027 11.1125 
30.1116 -19.0027 10.6187 36.331 -19.0027 9.12051 43.9968 -19.0027 5.13805 
42.5503 -19.0027 6.22355 48.7696 -17.2966 5.13805 54.989 -13.4901 5.13805 
-53.6562 -12.7833 5.13805 -50.7398 -12.7833 10.6886 48.7696 -12.7833 10.2678 
55.583 -12.7833 5.13805 54.989 -12.7833 5.84228 -56.1521 -6.56399 5.13805 
-56.9591 -3.50827 5.13805 60.7178 -6.56399 5.13805 54.989 -6.56399 11.2181 
61.2083 -5.31522 5.13805 -57.7469 -0.344653 5.13805 -56.9591 3.22626 5.13805 
-56.9591 -0.344653 7.38296 62.403 -0.344653 5.13805 61.2083 -0.344653 6.76124 
-56.3198 5.87469 5.13805 62.5161 5.87469 5.13805 61.2083 7.91563 5.13805 
61.2083 5.87469 7.01278 -53.9863 12.094 5.13805 -50.7398 15.302 5.13805 
-50.7398 12.094 10.6701 48.7696 18.1188 5.13805 57.2467 12.094 5.13805 
54.989 15.2568 5.13805 54.989 12.094 7.7758 -47.5523 18.3134 5.13805 
-44.5204 20.3037 5.13805 -44.5204 18.3134 9.8231 -38.3011 21.975 5.13805 
-32.0818 23.0942 5.13805 -25.8624 23.5383 5.13805 -19.6431 23.4254 5.13805 
-13.4237 23.4424 5.13805 -7.20441 22.5538 5.13805 -0.98507 20.4513 5.13805 
5.23427 20.3171 5.13805 5.23427 18.3134 10.7958 11.4536 21.3144 5.13805 
11.4536 18.3134 10.7883 17.6729 21.294 5.13805 17.6729 18.3134 9.89221 
23.8923 21.6165 5.13805 23.8923 18.3134 10.1594 30.1116 21.504 5.13805 
30.1116 18.3134 10.3139 36.331 21.1048 5.13805 36.331 18.3134 10.1076 
48.1338 18.3134 5.13805 42.5503 20.0879 5.13805 42.5503 18.3134 7.82595 
-44.5204 -19.1962 11.3574 -38.3011 -20.9683 11.3574 -32.0818 -22.6058 11.3574 
-25.8624 -22.6608 11.3574 -19.6431 -21.8221 11.3574 -13.4237 -20.9658 11.3574 
-7.20441 -19.3519 11.3574 -0.98507 -19.0848 11.3574 5.23427 -19.1714 11.3574 
-44.7957 -19.0027 11.3574 -44.5204 -19.0027 11.6521 -38.3011 -19.0027 14.3493 
-32.0818 -19.0027 16.6764 -25.8624 -19.0027 16.8994 -19.6431 -19.0027 15.8325 
[...]
POINT_DATA 549
SCALARS ImageScalars float
LOOKUP_TABLE default
0 0 0 0 0 0 0 0 0 
0 0 0 0 0 0 0 0 0 
0 0 0 0 0 0 0 0 0 
0 0 0 0 0 0 0 0 0 
0 0 0 0 0 0 0 0 0 
0 0 0 0 0 0 0 0 0 
0 0 0 0 0 0 0 0 0 
0 0 0 0 0 0 0 0 0 
0 0 0 0 0 0 0 0 0 
0 0 0 0 0 0 0 0 0 
0 0 0 0 0 0 0 0 0 
0 0 0 0 0 0 0 0 0 
0 0 0 0 0 0 0 0 0 
0 0 0 0 0 0 0 0 0 
0 0 0 0 0 0 0 0 0 
0 0 0 0 0 0 0 0 0 
0 0 0 0 0 0 0 0 0 
0 0 0 0 0 0 0 0 0 
0 0 0 0 0 0 0 0 0 
0 0 0 0 0 0 0 0 0 
0 0 0 0 0 0 0 0 0 
0 0 0 0 0 0 0 0 0 
0 0 0 0 0 0 0 0 0 
0 0 0 0 0 0 0 0 0 
0 0 0 0 0 0 0 0 0 
0 0 0 0 0 0 0 0 0 
0 0 0 0 0 0 0 0 0 
0 0 0 0 0 0 0 0 0 
0 0 0 0 0 0 0 0 0 
0 0 0 0 0 0 0 0 0 
0 0 0 0 0 0 0 0 0 
0 0 0 0 0 0 0 0 0 
0 0 0 0 0 0 0 0 0 
0 0 0 0 0 0 0 0 0 
0 0 0 0 0 0 0 0 0 
0 0 0 0 0 0 0 0 0 
0 0 0 0 0 0 0 0 0 
0 0 0 0 0 0 0 0 0 
0 0 0 0 0 0 0 0 0 
0 0 0 0 0 0 0 0 0 
0 0 0 0 0 0 0 0 0 
0 0 0 0 0 0 0 0 0 
0 0 0 0 0 0 0 0 0 
0 0 0 0 0 0 0 0 0 
0 0 0 0 0 0 0 0 0 
0 0 0 0 0 0 0 0 0 
0 0 0 0 0 0 0 0 0 
0 0 0 0 0 0 0 0 0 
0 0 0 0 0 0 0 0 0 
0 0 0 0 0 0 0 0 0 
0 0 0 0 0 0 0 0 0 
0 0 0 0 0 0 0 0 0 
0 0 0 0 0 0 0 0 0 
0 0 0 0 0 0 0 0 0 
0 0 0 0 0 0 0 0 0 
0 0 0 0 0 0 0 0 0 
0 0 0 0 0 0 0 0 0 
0 0 0 0 0 0 0 0 0 
0 0 0 0 0 0 0 0 0 
0 0 0 0 0 0 0 0 0 
0 0 0 0 0 0 0 0 0 

NORMALS Normals float
0.1098 0.641554 0.759179 0.118477 0.671488 0.731483 0.00571841 0.681377 0.73191 
-0.108039 0.621921 0.775591 -0.0712012 0.591691 0.803014 0.37249 0.489128 0.788673 
0.196706 0.445271 0.873522 0.0386603 0.410801 0.910905 -0.0404802 0.362533 0.931091 
-0.028862 0.306774 0.951344 0.097789 0.29084 0.951761 0.0936264 0.318019 0.94345 
0.0642351 0.117742 0.990965 0.0161274 0.155418 0.987717 -0.111749 0.19509 0.974398 
-0.0619413 0.207845 0.976199 0.0311732 0.272754 0.961579 -0.00548382 0.338877 0.940815 
-0.108756 0.386484 0.915862 -0.221222 0.454806 0.862678 0.287893 0.312627 0.905197 
0.128401 0.239592 0.962346 0.0264946 0.209981 0.977346 -0.0888778 0.182366 0.979205 
-0.0853919 0.122154 0.988831 0.104576 0.070514 0.992014 -0.0312879 0.109598 0.993483 
-0.0466534 -0.0788957 0.995791 0.0878811 0.0479147 0.994978 -0.0827459 -0.0213448 0.996342 
-0.00846179 -0.0250133 0.999651 0.0934025 0.0531586 0.994208 0.0594751 0.0985808 0.99335 
-0.00374623 0.16123 0.98691 -0.144503 0.245091 0.958671 -0.293585 0.21304 0.931892 
0.558621 0.0917637 0.824331 0.290762 0.137489 0.946866 0.0932176 0.145282 0.984989 
-0.0403593 0.140535 0.989253 -0.1494 0.119278 0.981556 -0.130859 0.116403 0.984544 
0.0939176 0.0689825 0.993187 -0.0501621 -0.0592322 0.996983 -0.0128358 -0.0203084 0.999711 
0.0785997 -0.0627464 0.99493 -0.194241 -0.153958 0.968797 0.028664 -0.0441264 0.998615 
0.161937 -0.0274832 0.986418 0.106295 0.00542611 0.99432 0.0291109 0.0149317 0.999465 
-0.155814 0.0338243 0.987207 -0.323658 0.0467423 0.945019 -0.481209 0.0476553 0.875309 
0.621902 -0.106486 0.775821 0.344084 -0.0618297 0.936901 0.101048 -0.0265023 0.994529 
0.0047358 -0.00667294 0.999967 -0.101533 0.0710011 0.992295 -0.134301 0.0622906 0.988981 
-0.0691086 -0.000906723 0.997609 -0.122282 -0.186661 0.974784 -0.0667769 -0.0473243 0.996645 
-0.0410647 -0.371089 0.927689 -0.0402302 -0.202548 0.978446 0.109793 -0.0342656 0.993364 
0.136417 -0.0427539 0.989729 0.102164 -0.0445654 0.993769 0.0273612 -0.113435 0.993169 
-0.120374 -0.186897 0.974977 -0.275149 -0.151739 0.949352 -0.528647 -0.232203 0.816465 
0.375921 -0.32592 0.867444 0.157379 -0.233169 0.959616 0.0556001 -0.198588 0.978505 
-0.0791569 -0.209161 0.974672 -0.209838 -0.247175 0.945977 -0.160738 -0.329051 0.930531 
-0.0933737 -0.376743 0.9216 -0.175335 -0.251853 0.95175 -0.0985816 -0.42739 0.898677 
0.152432 -0.288586 0.945242 0.183869 -0.171089 0.967947 0.143914 -0.157214 0.977022 
0.0413889 -0.224498 0.973595 -0.103243 -0.26831 0.957784 -0.222899 -0.380048 0.897708 
-0.373676 -0.469681 0.799854 0.423971 -0.669708 0.609705 0.21071 -0.660735 0.720438 
0.0331618 -0.563991 0.825115 -0.131152 -0.639525 0.7575 -0.241282 -0.629768 0.73836 
0.231256 -0.486231 0.842674 0.0989036 -0.521616 0.847428 -0.0289769 -0.54932 0.835109 
-0.160465 -0.60371 0.780887 0.109123 0.643175 0.757904 0.104548 0.731638 0.673628 
0.0184577 0.796773 0.603997 -0.0866906 0.68733 0.721153 -0.0709873 0.607237 0.791344 
0.372753 0.491243 0.787233 0.416479 0.820225 0.392142 0.215662 0.610108 0.762403 
0.232151 0.8128 0.534287 0.0915078 0.61156 0.785889 0.104209 0.727888 0.677731 
0.00598115 0.622714 0.782427 0.0140612 0.733984 0.679021 0.00227732 0.558496 0.829504 
0.0249845 0.687733 0.725533 0.108251 0.640296 0.760462 0.075576 0.532728 0.842905 
0.0746869 0.626954 0.775468 -0.0595988 0.636567 0.768915 -0.056102 0.640761 0.765687 
-0.0575468 0.648098 0.759379 -0.0551551 0.643835 0.763174 -0.0688622 0.711505 0.699298 
-0.148381 0.649957 0.745345 -0.169023 0.765104 0.621327 -0.24451 0.614922 0.749724 
-0.287859 0.853843 0.433692 0.374759 0.489997 0.787057 0.644383 0.613094 0.457041 
-0.406526 0.520688 0.750747 -0.43986 0.492101 0.751239 -0.462465 0.548484 0.696629 
-0.628226 0.623011 0.466036 0.560217 0.329606 0.759945 0.596807 0.267106 0.756621 
0.621745 0.340514 0.705325 -0.532202 0.335946 0.777111 -0.497812 0.104282 0.860992 
-0.561367 0.353284 0.74837 0.63233 0.0979017 0.768488 0.923462 0.0651574 0.378116 
-0.486736 0.0484296 0.872206 -0.900263 0.0629211 0.430776 0.676551 -0.127421 0.725288 
0.666253 -0.30737 0.679434 -0.545522 -0.233974 0.804774 -0.533111 -0.251111 0.807921 
-0.848001 -0.202699 0.489701 0.640813 -0.404599 0.652425 0.693511 -0.438002 0.572011 
-0.193654 -0.658589 0.727158 -0.0267705 -0.562929 0.826072 -0.136593 -0.542117 0.829127 
-0.0977324 -0.43777 0.893759 0.182307 -0.363261 0.913677 -0.28609 -0.590118 0.754926 
-0.420004 -0.480431 0.769924 -0.382714 -0.536628 0.752037 -0.604413 -0.511757 0.610564 
0.443768 -0.67184 0.593045 0.420204 -0.691125 0.588026 0.25434 -0.755855 0.603319 
0.0308639 -0.805787 0.591401 -0.143778 -0.78232 0.606056 -0.225066 -0.692792 0.685117 
-0.243234 -0.700095 0.671345 -0.16987 -0.748053 0.64153 0.00783429 -0.693167 0.720735 
-0.118906 -0.697702 0.706451 -0.0279372 -0.751897 0.658688 0.234245 -0.492979 0.837915 
0.247413 -0.613694 0.749778 0.230955 -0.502469 0.833178 0.0891399 -0.610036 0.787343 
-0.028072 -0.660448 0.750347 -0.234607 -0.630551 0.739841 -0.169177 -0.652352 0.738794 
-0.30378 -0.675281 0.672096 -0.379764 -0.841568 0.384114 0.415133 0.829805 0.372944 
0.237281 0.881645 0.407922 0.117611 0.927095 0.355897 0.0407015 0.913158 0.405568 
0.0717496 0.91071 0.406766 0.0969808 0.906393 0.411152 -0.0122646 0.914675 0.404005 
-0.0486012 0.932195 0.358679 0.0422476 0.948145 0.315017 0.0372834 0.945777 0.32267 
-0.0449371 0.938761 0.341625 -0.0760256 0.93477 0.347024 -0.121835 0.926943 0.35487 
-0.191318 0.933701 0.302653 -0.304013 0.880818 0.362955 0.430912 0.820743 0.375094 
0.6568 0.633495 0.409021 -0.333801 0.885824 0.322325 -0.41571 0.855571 0.308517 
-0.626835 0.634844 0.45172 0.674577 0.61265 0.411834 -0.635113 0.626841 0.451334 
0.86172 0.326773 0.388146 0.927447 0.0851463 0.364132 -0.84524 0.3559 0.398628 
-0.901055 0.078648 0.426515 -0.882132 0.386083 0.269783 0.929701 0.065842 0.362382 
0.931754 0.027016 0.362083 -0.901582 0.06295 0.428005 0.915495 -0.202822 0.347465 
0.972521 -0.222818 0.0674867 -0.876722 -0.195932 0.439282 -0.863125 -0.254896 0.43594 
0.836175 -0.463137 0.293797 0.726688 -0.631517 0.270391 -0.690521 -0.560367 0.457351 
-0.585952 -0.676552 0.446025 0.617098 -0.754715 0.222699 0.42247 -0.887346 0.18476 
0.217191 -0.950254 0.223262 0.0678959 -0.990072 0.123078 -0.0750361 -0.957393 0.278868 
-0.173639 -0.938354 0.2989 -0.0469606 -0.875481 0.480965 -0.0184213 -0.891776 0.452102 
-0.129965 -0.937915 0.321597 0.0266842 -0.894968 0.445332 0.236492 -0.871225 0.43016 
0.156398 -0.945081 0.286986 0.0403462 -0.971436 0.233848 -0.0867141 -0.966084 0.243234 
-0.163089 -0.964469 0.207848 -0.317021 -0.885292 0.340228 -0.411657 -0.840203 0.352983 
-0.380608 -0.860843 0.337766 -0.0147494 -0.999822 0.0117655 0.412882 0.905975 0.09348 
0.245342 0.957444 0.152013 0.112685 0.986381 0.119814 0.0549343 0.989839 0.131154 
0.0585194 0.995793 0.07051 0.0931248 0.995426 -0.0213146 0.00447389 0.998816 -0.0484474 
-0.0447185 0.998977 0.00670096 0.00927182 0.999742 0.0207266 -0.000671913 0.999478 -0.032289 
-0.0612592 0.99618 -0.0622339 -0.0617199 0.996704 -0.052643 -0.132636 0.990411 -0.0386606 
-0.179229 0.983418 -0.0276822 -0.308698 0.950996 -0.0176916 0.510169 0.854257 0.0998577 
0.688056 0.715504 0.120965 -0.374956 0.926897 -0.0164437 -0.393834 0.919125 -0.0102203 
-0.652257 0.757866 0.014123 0.793735 0.597803 0.112317 -0.738425 0.674323 -0.00419365 
-0.863068 0.504979 -0.010486 0.960131 0.269815 0.0731262 0.969953 0.233145 0.0695293 
-0.895177 0.445706 -0.00183434 -0.824905 0.48066 -0.297485 0.99858 0.029751 0.0442023 
-0.994215 0.093471 0.0529208 0.973928 -0.225796 0.021915 0.968457 -0.248154 0.0225869 
0.973304 -0.226954 -0.034228 -0.964228 -0.26311 0.0322209 -0.865262 -0.501319 -0.000873036 
0.864088 -0.503328 0.0035863 0.715195 -0.697109 -0.0503503 -0.77954 -0.625142 -0.0389336 
-0.554813 -0.831903 0.0109226 0.63613 -0.770022 -0.0490421 0.405054 -0.913027 -0.0480842 
0.247824 -0.965091 -0.08475 0.0809022 -0.995707 -0.0449635 -0.0424586 -0.997714 0.0525784 
-0.0376343 -0.992845 0.113326 -0.154719 -0.987454 0.0315681 -0.175864 -0.981275 -0.0785538 
0.0700395 -0.997543 -0.00182775 0.183682 -0.981459 -0.0547685 0.0558617 -0.988451 -0.140866 
0.026678 -0.984549 -0.173064 -0.0683727 -0.980608 -0.183668 -0.100005 -0.98639 -0.130517 
-0.256361 -0.960134 -0.111455 -0.500477 -0.86575 -0.000157236 -0.375696 -0.925289 -0.0518865 
-0.258958 -0.913245 -0.314523 0.0161691 -0.999084 -0.0396162 -0.0119708 -0.99975 -0.0188849 
-0.000954089 -0.998288 -0.0584843 0.441665 0.893613 -0.0799298 0.262024 0.958436 -0.112889 
0.104022 0.992589 -0.062825 0.0020853 0.994971 -0.100139 -0.0714954 0.983798 -0.164408 
-0.0363631 0.95572 -0.292022 0.00375425 0.897186 -0.441637 0.0194377 0.915701 -0.401389 
-0.00535895 0.927853 -0.372908 -0.0452117 0.901559 -0.430287 -0.0496237 0.912823 -0.405329 
-0.0463197 0.923288 -0.381305 -0.0954896 0.917893 -0.385169 -0.181017 0.923986 -0.336871 
-0.298829 0.876913 -0.376465 0.547904 0.829849 -0.105602 0.712251 0.676625 -0.186754 
-0.027242 0.739505 -0.672599 0.00445898 0.71946 -0.69452 -0.0179655 0.737467 -0.675144 
-0.086322 0.755758 -0.649137 -0.171611 0.798884 -0.576484 -0.304839 0.880915 -0.362026 
-0.293402 0.855267 -0.427123 -0.357756 0.860193 -0.363425 -0.666916 0.61415 -0.42195 
0.791595 0.573843 -0.209954 0.697014 0.545149 -0.465815 -0.401889 0.556386 -0.727269 
-0.689644 0.590395 -0.419314 -0.66705 0.584314 -0.462191 0.940323 0.257808 -0.222096 
0.965964 0.132903 -0.221925 -0.778798 0.47452 -0.410248 -0.535384 0.329988 -0.777478 
-0.810973 0.40957 -0.417822 0.974032 0.0138686 -0.225987 0.960736 -0.12526 -0.247582 
0.943092 0.0038625 -0.33251 -0.891521 0.116019 -0.43787 -0.841909 0.116585 -0.526875 
0.934038 -0.237453 -0.266813 -0.856946 -0.296677 -0.421457 -0.799995 -0.427452 -0.421061 
-0.809066 -0.289898 -0.511245 0.784494 -0.550161 -0.286167 0.696669 -0.65142 -0.300508 
0.65353 -0.551647 -0.518251 -0.251109 -0.900715 -0.35448 -0.702769 -0.569713 -0.426078 
-0.593564 -0.672106 -0.442668 -0.609054 -0.547024 -0.574297 0.568693 -0.773571 -0.2796 
0.399346 -0.880889 -0.254081 0.433873 -0.772514 -0.463656 0.223031 -0.924885 -0.307969 
0.116166 -0.966469 -0.229003 0.0257739 -0.961815 -0.272484 -0.00758831 -0.967736 -0.251851 
-0.0657743 -0.961557 -0.266611 -0.227736 -0.933652 -0.276461 -0.166978 -0.942418 -0.28977 
0.0676375 -0.959162 -0.274653 -0.0216567 -0.881714 -0.471288 0.0695057 -0.925568 -0.372145 
-0.04066 -0.832591 -0.552395 0.0206675 -0.886868 -0.461561 -0.0234859 -0.794902 -0.606283 
0.0154387 -0.893386 -0.449025 0.0196561 -0.757288 -0.652785 -0.0355996 -0.891812 -0.451003 
-0.00126781 -0.784461 -0.620176 -0.104539 -0.921391 -0.374312 -0.124438 -0.745329 -0.654981 
-0.240813 -0.900832 -0.361262 -0.212946 -0.862979 -0.458172 -0.201149 -0.810749 -0.549749 
0.469764 0.780205 -0.413039 0.276261 0.872082 -0.403922 0.120278 0.940148 -0.318834 
-0.0569389 0.922622 -0.381478 -0.126842 0.914058 -0.385238 -0.17793 0.857298 -0.483095 
-0.130518 0.799758 -0.585963 -0.0133124 0.745347 -0.666543 -0.0223514 0.71181 -0.702016 
0.483243 0.769772 -0.417045 0.472647 0.767994 -0.432193 0.279616 0.777368 -0.563484 
0.127148 0.648194 -0.750785 -0.0375836 0.690338 -0.72251 -0.163561 0.721905 -0.672384 
-0.206107 0.759859 -0.616551 -0.135698 0.788394 -0.600018 -0.0146641 0.742105 -0.670123 
-0.0240795 0.717569 -0.696071 -0.0226872 0.704413 -0.709428 -0.0268127 0.718939 -0.694556 
0.00456838 0.694876 -0.719115 -0.0178703 0.718939 -0.694844 -0.0851796 0.701872 -0.707192 
-0.144582 0.65524 -0.741456 -0.270896 0.600673 -0.752202 0.683385 0.532131 -0.499821 
0.698896 0.507279 -0.504195 0.468124 0.480151 -0.741832 -0.208633 0.460029 -0.863044 
-0.127909 0.373272 -0.918862 -0.0221957 0.347317 -0.937485 -0.0334144 0.334187 -0.941914 
-0.0417937 0.306826 -0.950848 -0.0297012 0.320754 -0.946697 -0.0580836 0.387384 -0.920087 
-0.120818 0.446279 -0.8867 -0.348373 0.510939 -0.785861 -0.26059 0.478808 -0.838353 
-0.376878 0.482186 -0.79086 0.806329 0.267151 -0.527696 0.71115 0.240736 -0.660539 
-0.225389 0.238458 -0.944636 -0.0722234 0.23484 -0.969347 -0.0835036 0.0742064 -0.993741 
-0.0285249 -0.00508839 -0.99958 0.0621796 0.105425 -0.992481 0.0177023 0.143685 -0.989465 
-0.0828642 0.187285 -0.978804 -0.140974 0.25113 -0.957632 -0.524449 0.329172 -0.785239 
-0.30539 0.360316 -0.881425 -0.542283 0.256021 -0.800239 0.832307 -0.0151836 -0.554108 
0.667147 -0.0149253 -0.744777 -0.305927 0.143489 -0.94118 -0.00341516 0.0103228 -0.999941 
0.130386 0.0285682 -0.991052 0.040456 0.0367824 -0.998504 -0.0116076 0.0365033 -0.999266 
-0.0861505 0.0523298 -0.994907 -0.332044 0.0894513 -0.939013 -0.564844 0.108078 -0.818089 
-0.553188 0.108251 -0.825993 0.790419 -0.274419 -0.54766 0.661034 -0.511414 -0.549081 
0.707427 -0.259986 -0.657232 -0.130978 0.0198057 -0.991187 0.0857911 -0.10226 -0.991051 
0.0259778 -0.112746 -0.993284 -0.0697769 -0.151774 -0.985949 -0.0683353 -0.179611 -0.981361 
-0.275271 -0.253209 -0.927422 -0.610052 -0.196115 -0.767708 -0.527632 -0.335408 -0.780452 
-0.510098 -0.185748 -0.83982 0.634782 -0.545798 -0.546952 0.444262 -0.716024 -0.538461 
0.45586 -0.52806 -0.71648 -0.156366 -0.352274 -0.922742 -0.0307758 -0.866222 -0.498711 
-0.00194776 -0.439607 -0.898188 -0.0550193 -0.811321 -0.582006 -0.121496 -0.421719 -0.89855 
-0.0466239 -0.722173 -0.69014 -0.129803 -0.352063 -0.926932 0.0127529 -0.685277 -0.728171 
-0.0143432 -0.393868 -0.919055 6.93058e-05 -0.728492 -0.685055 -0.0132615 -0.422108 -0.906449 
-0.113887 -0.659307 -0.743198 -0.0648094 -0.422864 -0.903872 -0.203794 -0.657122 -0.725712 
-0.191122 -0.464746 -0.864571 -0.384603 -0.500867 -0.775379 -0.366058 -0.514469 -0.77545 
-0.368972 -0.496745 -0.78556 0.347473 -0.78436 -0.51385 0.243155 -0.838928 -0.486904 
0.237349 -0.808749 -0.538135 0.115391 -0.866657 -0.485376 0.135519 -0.743749 -0.654578 
-0.0116825 -0.880231 -0.474402 -0.000928868 -0.753885 -0.657006 -0.0306108 -0.869666 -0.492691 
-0.0588118 -0.739288 -0.670817 -0.0664052 -0.846945 -0.527517 -0.0542817 -0.760237 -0.647374 
-0.154807 -0.864087 -0.478946 -0.138139 -0.793747 -0.592354 -0.101496 -0.878207 -0.467388 
-0.136404 -0.880095 -0.454782 -0.137101 -0.875546 -0.463275 0.255381 0.528111 -0.809864 
0.121285 0.54914 -0.826883 -0.0287597 0.619454 -0.784506 -0.167156 0.531888 -0.830153 
-0.20417 0.430166 -0.879359 0.367645 0.453648 -0.811813 0.440792 0.396696 -0.805192 
0.221746 0.41196 -0.883809 0.0830398 0.341106 -0.93635 -0.023272 0.277298 -0.960502 
-0.134125 0.249902 -0.958937 -0.206209 0.430176 -0.878878 -0.186019 0.322128 -0.92824 
-0.204884 0.43206 -0.878264 0.533333 0.227822 -0.814649 0.417024 0.212719 -0.883653 
0.206319 0.172861 -0.963095 -0.0164701 0.169382 -0.985413 -0.128821 0.0939279 -0.987209 
-0.142944 0.046089 -0.988657 -0.0441347 0.0608184 -0.997173 -0.218725 0.241957 -0.945313 
-0.140779 0.249453 -0.958099 -0.218477 0.203813 -0.954321 -0.116169 0.192618 -0.974373 
0.570809 -0.0156623 -0.820934 0.379086 -0.0140458 -0.925255 0.165846 -0.00442033 -0.986142 
0.0018943 -0.00562171 -0.999982 -0.153726 0.015013 -0.988 -0.165483 0.029997 -0.985756 
0.0249846 0.0567241 -0.998077 -0.0356444 0.0457501 -0.998317 -0.177706 0.0430442 -0.983142 
-0.23722 0.144435 -0.960659 -0.159906 0.140884 -0.977027 -0.253091 0.0645176 -0.965289 
0.521832 -0.264336 -0.81106 0.436515 -0.40194 -0.804922 0.425794 -0.253783 -0.868501 
0.214587 -0.211732 -0.953479 0.00337039 -0.190314 -0.981717 -0.0950983 -0.127295 -0.987295 
-0.101252 -0.077176 -0.991863 -0.0264195 -0.0304115 -0.999188 -0.156864 -0.14641 -0.976708 
-0.137689 -0.206477 -0.968715 -0.130208 -0.158022 -0.978813 0.00933477 -0.303532 -0.952775 
0.0152718 -0.134977 -0.990731 -0.20205 0.02457 -0.979067 -0.184252 -0.158476 -0.970019 
-0.222476 0.0173017 -0.974785 0.321895 -0.502401 -0.802482 0.24606 -0.54726 -0.799975 
0.238006 -0.485083 -0.841456 0.123734 -0.579403 -0.805594 0.0837718 -0.436552 -0.89577 
-0.00921312 -0.59243 -0.805569 -0.0281758 -0.368767 -0.929095 -0.0716498 -0.519556 -0.851427 
-0.0631424 -0.352751 -0.933584 -0.0412463 -0.494399 -0.868256 -0.0451882 -0.350962 -0.935299 
-0.158448 -0.342636 -0.92601 -0.153033 -0.485199 -0.860908 -0.159519 -0.359013 -0.9196 

