# vtk DataFile Version 4.2
vtk output
ASCII
DATASET POLYDATA
POINTS 548 float
-27.3584 -30.8733 -18.6613 41.1255 -15.6546 -20.3948 -34.9677 -38.4826 -13.7923 
-27.3584 -31.4501 -18.4385 -27.3584 -38.4826 -15.1076 -19.7491 -38.4826 -15.5851 
-12.1398 -38.4826 -16.0646 -4.53043 -38.4826 -16.1433 3.0789 -38.4826 -16.5548 
10.6882 -38.4826 -16.3709 18.2976 -38.4826 -14.9798 25.9069 -38.4826 -12.6545 
-42.5771 -30.8733 -14.7346 -28.342 -30.8733 -18.4385 -34.9677 -30.8733 -16.4818 
-25.7151 -30.8733 -18.4385 -27.3584 -25.824 -18.4385 -19.7491 -30.8733 -17.4662 
-12.1398 -30.8733 -17.7521 -4.53043 -30.8733 -18.0323 3.0789 -30.8733 -18.2675 
10.6882 -30.8733 -18.1432 18.2976 -30.8733 -16.4727 25.9069 -30.8733 -17.1049 
33.5162 -30.8733 -16.1895 41.1255 -30.8733 -14.5827 48.7349 -30.8733 -12.2812 
-50.1864 -23.2639 -13.1586 -42.5771 -23.2639 -16.4768 -34.9677 -23.2639 -18.0165 
-27.3584 -23.2639 -18.304 -19.7491 -23.2639 -17.5739 -12.1398 -23.2639 -17.3864 
-4.53043 -23.2639 -17.4974 3.0789 -23.2639 -17.9342 10.6882 -23.2639 -17.3193 
18.2976 -23.2639 -16.1112 25.9069 -23.2639 -16.9174 33.5162 -23.2639 -17.7077 
41.1255 -21.2683 -18.4385 41.1255 -23.2639 -17.7217 48.7349 -23.2639 -17.6864 
56.3442 -23.2639 -11.178 -50.1864 -15.6546 -14.9391 -42.5771 -15.6546 -17.8125 
-34.9677 -15.6546 -18.354 -27.3584 -15.6546 -18.1719 -19.7491 -15.6546 -17.2876 
-12.1398 -15.6546 -15.9869 -4.53043 -15.6546 -16.0941 3.0789 -15.6546 -16.3595 
10.6882 -15.6546 -14.4262 18.2976 -15.6546 -15.258 25.9069 -15.6546 -17.3703 
34.5893 -15.6546 -18.4385 33.5162 -15.6546 -18.1523 45.5967 -15.6546 -18.4385 
41.1255 -9.415 -18.4385 48.7349 -15.6546 -17.3846 56.3442 -15.6546 -14.0213 
-50.1864 -8.0453 -15.3823 -42.5771 -8.0453 -17.5929 -34.9677 -8.0453 -18.1602 
-27.3584 -8.0453 -17.5398 -19.7491 -8.0453 -16.3653 -12.1398 -8.0453 -15.1143 
-4.53043 -8.0453 -14.9716 3.0789 -8.0453 -14.6316 10.6882 -8.0453 -11.6952 
18.2976 -8.0453 -13.7965 25.9069 -8.0453 -16.3203 33.5162 -8.0453 -18.0997 
41.1255 -8.0453 -18.0549 48.7349 -8.0453 -17.1272 56.3442 -8.0453 -14.2328 
-50.1864 -0.435971 -14.7622 -42.5771 -0.435971 -16.2087 -34.9677 -0.435971 -16.637 
-27.3584 -0.435971 -15.7361 -19.7491 -0.435971 -14.1065 -12.1398 -0.435971 -12.7776 
-4.53043 -0.435971 -14.2138 3.0789 -0.435971 -13.1899 18.2976 -0.435971 -12.9765 
25.9069 -0.435971 -15.4806 33.5162 -0.435971 -16.879 41.1255 -0.435971 -17.5471 
48.7349 -0.435971 -15.4761 56.3442 -0.435971 -11.4694 -42.5771 7.17336 -13.7912 
-34.9677 7.17336 -14.5738 -27.3584 7.17336 -13.6741 -19.7491 7.17336 -11.8289 
-4.53043 7.17336 -14.6536 3.0789 7.17336 -12.0692 10.6882 7.17336 -13.0712 
18.2976 7.17336 -13.4832 25.9069 7.17336 -14.6752 33.5162 7.17336 -14.9549 
41.1255 7.17336 -14.3358 48.7349 7.17336 -11.9085 -42.5771 14.7827 -12.6542 
-34.9677 14.7827 -13.259 -27.3584 14.7827 -13.4586 -19.7491 14.7827 -13.2134 
-12.1398 14.7827 -12.2457 -4.53043 14.7827 -11.5057 3.0789 14.7827 -12.3237 
10.6882 14.7827 -14.1725 18.2976 14.7827 -13.8253 25.9069 14.7827 -13.349 
33.5162 14.7827 -12.1905 -34.9677 22.392 -13.2682 -27.3584 22.392 -13.9355 
-19.7491 22.392 -13.6993 -12.1398 22.392 -13.3538 -4.53043 22.392 -12.4754 
3.0789 22.392 -12.4993 10.6882 22.392 -13.0367 18.2976 22.392 -12.9989 
25.9069 22.392 -11.4827 -34.9677 30.0013 -11.4573 -27.3584 30.0013 -13.6094 
-19.7491 30.0013 -13.6477 -12.1398 30.0013 -13.6845 -4.53043 30.0013 -12.8224 
3.0789 30.0013 -11.9586 10.6882 30.0013 -11.2624 -19.7491 37.6107 -11.9646 
-12.1398 37.6107 -12.1456 -4.53043 37.6107 -11.651 -34.9677 -41.2494 -10.8291 
-27.3584 -44.0085 -10.8291 -19.7491 -44.2861 -10.8291 -19.7491 -46.0919 -4.74583 
-12.1398 -44.1152 -10.8291 -4.53043 -44.4489 -10.8291 3.0789 -44.9549 -10.8291 
10.6882 -44.0772 -10.8291 18.2976 -42.5804 -10.8291 25.9069 -40.2929 -10.8291 
-39.9225 -38.4826 -10.8291 -42.5771 -36.3697 -10.8291 -42.5771 -38.4826 -6.76955 
33.2904 -38.4826 -10.8291 33.5162 -38.4204 -10.8291 33.5162 -38.4826 -10.5849 
41.1255 -36.0981 -10.8291 48.7349 -32.2862 -10.8291 -47.1756 -30.8733 -10.8291 
-50.1864 -27.2232 -10.8291 50.6157 -30.8733 -10.8291 56.3442 -23.7914 -10.8291 
-52.4878 -23.2639 -10.8291 56.6346 -23.2639 -10.8291 -54.0574 -15.6546 -10.8291 
59.0439 -15.6546 -10.8291 -55.1389 -8.0453 -10.8291 10.6882 -3.21049 -10.8291 
59.2169 -8.0453 -10.8291 -54.5431 -0.435971 -10.8291 -57.7957 -0.435971 -3.48056 
-50.1864 6.92556 -10.8291 -12.1398 3.40101 -10.8291 8.74169 -0.435971 -10.8291 
12.0399 -0.435971 -10.8291 10.6882 0.852948 -10.8291 10.6882 -0.435971 -10.3624 
56.9482 -0.435971 -10.8291 56.3442 0.560239 -10.8291 -49.9383 7.17336 -10.8291 
-50.1864 7.17336 -10.6998 -16.4773 7.17336 -10.8291 -9.35348 7.17336 -10.8291 
-12.1398 10.665 -10.8291 -12.1398 7.17336 -9.62982 41.1255 13.2994 -10.8291 
50.2487 7.17336 -10.8291 48.7349 9.19788 -10.8291 -46.9225 14.7827 -10.8291 
-50.1864 14.7827 -8.63503 -42.5771 20.1148 -10.8291 38.1952 14.7827 -10.8291 
33.5162 17.9369 -10.8291 41.1255 14.7827 -9.83344 48.7349 14.7827 -5.65442 
-41.1831 22.392 -10.8291 -42.5771 22.392 -10.0848 18.2976 29.173 -10.8291 
27.9044 22.392 -10.8291 25.9069 24.0697 -10.8291 33.5162 22.392 -8.70628 
41.1255 22.392 -4.93098 -36.8911 30.0013 -10.8291 -42.5771 30.0013 -7.99259 
-34.9677 31.8878 -10.8291 -27.3584 37.2804 -10.8291 3.0789 35.1791 -10.8291 
15.3964 30.0013 -10.8291 10.6882 31.379 -10.8291 18.2976 30.0013 -10.5386 
25.9069 30.0013 -8.2428 33.5162 30.0013 -5.45154 -34.9677 37.6107 -8.09153 
-26.411 37.6107 -10.8291 -27.3584 37.6107 -10.6596 -19.7491 40.1866 -10.8291 
-12.1398 41.6209 -10.8291 0.155242 37.6107 -10.8291 -4.53043 40.2158 -10.8291 
3.0789 37.6107 -10.2604 10.6882 37.6107 -8.82016 18.2976 37.6107 -7.40421 
25.9069 37.6107 -4.81329 -27.3584 45.22 -4.08573 -19.7491 45.22 -8.0946 
-12.1398 45.22 -9.05788 -4.53043 45.22 -8.61753 3.0789 45.22 -6.7162 
10.6882 45.22 -5.83101 -19.7491 -46.4064 -3.21981 -42.5771 -39.7043 -3.21981 
-34.9677 -44.0611 -3.21981 -22.9406 -46.0919 -3.21981 -27.3584 -45.6566 -3.21981 
-16.4489 -46.0919 -3.21981 -19.7491 -46.0919 -2.24092 -12.1398 -45.6817 -3.21981 
-4.53043 -45.5262 -3.21981 3.0789 -45.6957 -3.21981 10.6882 -45.0347 -3.21981 
18.2976 -43.3554 -3.21981 25.9069 -41.6356 -3.21981 33.5162 -39.9923 -3.21981 
-43.9106 -38.4826 -3.21981 -42.5771 -38.4826 0.0427085 25.9069 -38.4826 3.92282 
37.4238 -38.4826 -3.21981 33.5162 -38.4826 0.268278 41.1255 -37.0873 -3.21981 
48.7349 -32.6506 -3.21981 -50.0225 -30.8733 -3.21981 -50.1864 -30.6017 -3.21981 
50.9743 -30.8733 -3.21981 48.7349 -30.8733 -0.0407972 56.3442 -24.2215 -3.21981 
-54.3151 -23.2639 -3.21981 56.9235 -23.2639 -3.21981 56.3442 -23.2639 -2.24494 
-56.6175 -15.6546 -3.21981 59.9916 -15.6546 -3.21981 56.3442 -15.6546 3.68552 
-57.7571 -8.0453 -3.21981 -57.7957 -5.45135 -3.21981 61.0343 -8.0453 -3.21981 
-57.8703 -0.435971 -3.21981 -57.7957 -0.149099 -3.21981 -57.7957 -0.435971 -2.97709 
59.544 -0.435971 -3.21981 56.3442 6.71146 -3.21981 -55.8346 7.17336 -3.21981 
56.08 7.17336 -3.21981 56.3442 7.17336 1.57605 -53.0817 14.7827 -3.21981 
-50.1864 21.9294 -3.21981 50.4252 14.7827 -3.21981 48.7349 16.7007 -3.21981 
-49.9614 22.392 -3.21981 43.1045 22.392 -3.21981 41.1255 24.5287 -3.21981 
-45.6584 30.0013 -3.21981 -42.5771 34.0595 -3.21981 36.4624 30.0013 -3.21981 
33.5162 33.0963 -3.21981 41.1255 30.0013 2.67785 -39.1805 37.6107 -3.21981 
-34.9677 41.1528 -3.21981 18.2976 43.785 -3.21981 28.4768 37.6107 -3.21981 
25.9069 39.643 -3.21981 33.5162 37.6107 1.58677 -28.4095 45.22 -3.21981 
-27.3584 45.8173 -3.21981 -19.7491 49.1142 -3.21981 -12.1398 50.4539 -3.21981 
-4.53043 50.7541 -3.21981 3.0789 49.1324 -3.21981 16.4877 45.22 -3.21981 
10.6882 48.0007 -3.21981 18.2976 45.22 -1.8945 25.9069 45.22 3.89909 
-4.53043 52.8293 1.06818 3.0789 52.8293 2.55882 -34.9677 -41.5044 4.38952 
-27.3584 -42.9824 4.38952 -19.7491 -43.3718 4.38952 -12.1398 -42.7327 4.38952 
-4.53043 -42.854 4.38952 3.0789 -42.7238 4.38952 10.6882 -41.4919 4.38952 
18.2976 -39.654 4.38952 -40.2008 -38.4826 4.38952 -42.5771 -36.3451 4.38952 
-34.9677 -38.4826 8.11316 -27.3584 -38.4826 9.28315 -19.7491 -38.4826 9.3546 
-12.1398 -38.4826 9.23433 -4.53043 -38.4826 9.71604 3.0789 -38.4826 9.28597 
10.6882 -38.4826 7.48378 24.594 -38.4826 4.38952 18.2976 -38.4826 5.70741 
25.9069 -38.1938 4.38952 33.5162 -35.9906 4.38952 41.1255 -32.3192 4.38952 
-47.0498 -30.8733 4.38952 -50.1864 -26.4291 4.38952 -42.5771 -30.8733 9.56299 
18.2976 -30.8733 11.2843 25.9069 -30.8733 10.7606 33.5162 -30.8733 8.86313 
43.6512 -30.8733 4.38952 41.1255 -30.8733 5.82416 48.7349 -25.7336 4.38952 
-51.8769 -23.2639 4.38952 -50.1864 -23.2639 6.5734 -42.5771 -23.2639 11.7285 
41.1255 -23.2639 10.8029 50.4229 -23.2639 4.38952 48.7349 -23.2639 5.74696 
-53.3336 -15.6546 4.38952 -50.1864 -15.6546 8.24224 55.7117 -15.6546 4.38952 
48.7349 -15.6546 10.1558 56.3442 -13.7221 4.38952 -54.7949 -8.0453 4.38952 
-50.1864 -8.0453 9.96315 48.7349 -8.0453 10.9143 57.5611 -8.0453 4.38952 
56.3442 -8.0453 5.75485 -54.8297 -0.435971 4.38952 -50.1864 -0.435971 9.01401 
57.823 -0.435971 4.38952 56.3442 -0.435971 6.45751 -53.1757 7.17336 4.38952 
-50.1864 7.17336 8.39261 56.467 7.17336 4.38952 56.3442 7.44857 4.38952 
56.3442 7.17336 4.68292 -51.8504 14.7827 4.38952 -50.1864 19.3792 4.38952 
-50.1864 14.7827 6.61695 52.8538 14.7827 4.38952 48.7349 21.4483 4.38952 
-48.7108 22.392 4.38952 -42.5771 22.392 9.7655 48.0552 22.392 4.38952 
-45.0261 30.0013 4.38952 -42.5771 33.2959 4.38952 -42.5771 30.0013 7.78475 
42.5586 30.0013 4.38952 41.1255 31.4726 4.38952 -38.7275 37.6107 4.38952 
-34.9677 41.0903 4.38952 -34.9677 37.6107 8.15873 35.8553 37.6107 4.38952 
33.5162 39.8644 4.38952 -29.0642 45.22 4.38952 -27.3584 46.3088 4.38952 
-27.3584 45.22 6.93069 -19.7491 50.2213 4.38952 -19.7491 45.22 11.7094 
-12.1398 52.8086 4.38952 10.6882 51.9812 4.38952 18.2976 49.206 4.38952 
26.4018 45.22 4.38952 25.9069 45.605 4.38952 25.9069 45.22 6.97137 
-12.0103 52.8293 4.38952 -4.53043 53.9543 4.38952 -4.53043 52.8293 7.10849 
[...]
POINT_DATA 548
SCALARS ImageScalars float
LOOKUP_TABLE default
0 0 0 0 0 0 0 0 0 
0 0 0 0 0 0 0 0 0 
0 0 0 0 0 0 0 0 0 
0 0 0 0 0 0 0 0 0 
0 0 0 0 0 0 0 0 0 
0 0 0 0 0 0 0 0 0 
0 0 0 0 0 0 0 0 0 
0 0 0 0 0 0 0 0 0 
0 0 0 0 0 0 0 0 0 
0 0 0 0 0 0 0 0 0 
0 0 0 0 0 0 0 0 0 
0 0 0 0 0 0 0 0 0 
0 0 0 0 0 0 0 0 0 
0 0 0 0 0 0 0 0 0 
0 0 0 0 0 0 0 0 0 
0 0 0 0 0 0 0 0 0 
0 0 0 0 0 0 0 0 0 
0 0 0 0 0 0 0 0 0 
0 0 0 0 0 0 0 0 0 
0 0 0 0 0 0 0 0 0 
0 0 0 0 0 0 0 0 0 
0 0 0 0 0 0 0 0 0 
0 0 0 0 0 0 0 0 0 
0 0 0 0 0 0 0 0 0 
0 0 0 0 0 0 0 0 0 
0 0 0 0 0 0 0 0 0 
0 0 0 0 0 0 0 0 0 
0 0 0 0 0 0 0 0 0 
0 0 0 0 0 0 0 0 0 
0 0 0 0 0 0 0 0 0 
0 0 0 0 0 0 0 0 0 
0 0 0 0 0 0 0 0 0 
0 0 0 0 0 0 0 0 0 
0 0 0 0 0 0 0 0 0 
0 0 0 0 0 0 0 0 0 
0 0 0 0 0 0 0 0 0 
0 0 0 0 0 0 0 0 0 
0 0 0 0 0 0 0 0 0 
0 0 0 0 0 0 0 0 0 
0 0 0 0 0 0 0 0 0 
0 0 0 0 0 0 0 0 0 
0 0 0 0 0 0 0 0 0 
0 0 0 0 0 0 0 0 0 
0 0 0 0 0 0 0 0 0 
0 0 0 0 0 0 0 0 0 
0 0 0 0 0 0 0 0 0 
0 0 0 0 0 0 0 0 0 
0 0 0 0 0 0 0 0 0 
0 0 0 0 0 0 0 0 0 
0 0 0 0 0 0 0 0 0 
0 0 0 0 0 0 0 0 0 
0 0 0 0 0 0 0 0 0 
0 0 0 0 0 0 0 0 0 
0 0 0 0 0 0 0 0 0 
0 0 0 0 0 0 0 0 0 
0 0 0 0 0 0 0 0 0 
0 0 0 0 0 0 0 0 0 
0 0 0 0 0 0 0 0 0 
0 0 0 0 0 0 0 0 0 
0 0 0 0 0 0 0 0 0 
0 0 0 0 0 0 0 0 
NORMALS Normals float
0.0500391 0.190685 0.980375 -0.0532846 -0.0088039 0.998541 0.331137 0.572899 0.749757 
0.0504182 0.209471 0.976514 0.0868774 0.507507 0.857256 0.0633177 0.441466 0.895041 
0.0342362 0.428312 0.902982 0.030927 0.454628 0.890144 0.0156543 0.433825 0.900861 
-0.0973448 0.472713 0.875823 -0.24352 0.507824 0.826325 -0.22979 0.713738 0.661646 
0.432448 0.404768 0.805699 0.0682594 0.191191 0.979177 0.219731 0.234043 0.94707 
0.0278549 0.174214 0.984314 4.29552e-05 0.0446834 0.999001 -0.0551637 0.111841 0.992194 
0.0366587 0.0649996 0.997212 0.0342068 0.0781276 0.996356 0.00694936 0.0796914 0.996795 
-0.12094 0.0486129 0.991469 -0.071156 0.063199 0.995461 -0.0259178 0.264249 0.964106 
-0.16532 0.344643 0.924062 -0.24147 0.487646 0.838984 -0.483993 0.70275 0.521433 
0.665524 0.334097 0.667426 0.29173 0.160896 0.942871 0.1163 0.108816 0.987235 
-0.0279542 -0.0339083 0.999034 -0.0598779 -0.0104509 0.998151 -0.00504311 -0.114325 0.993431 
0.0365855 -0.121303 0.991941 -0.00689498 -0.113629 0.993499 -0.12195 -0.242555 0.962442 
-0.0177298 -0.0821369 0.996463 0.114516 0.0148238 0.993311 0.0483675 0.124284 0.991067 
-0.000418938 0.306113 0.951995 -0.000614063 0.398949 0.916973 -0.310572 0.24801 0.917625 
-0.798842 0.419107 0.43151 0.578773 0.127132 0.805518 0.179061 0.0822225 0.980396 
0.0203123 0.0118056 0.999724 -0.0657527 -0.0497749 0.996594 -0.146273 -0.0801294 0.985994 
-0.0729102 -0.149887 0.986011 0.0231066 -0.166978 0.98569 -0.114656 -0.183723 0.976268 
-0.0600342 -0.337113 0.939548 0.177112 -0.139127 0.974307 0.198072 -0.039652 0.979385 
0.141854 0.0315132 0.989386 0.172441 0.0302441 0.984555 -0.224456 -0.0205165 0.974268 
-0.0594983 -0.137085 0.988771 -0.332682 -0.028627 0.942604 -0.759745 0.15887 0.630515 
0.508685 -0.00992143 0.860896 0.148818 -0.0940656 0.98438 -0.00628127 -0.11499 0.993347 
-0.113026 -0.155738 0.981311 -0.157056 -0.196908 0.967761 -0.0891194 -0.152182 0.984326 
-0.025024 -0.105776 0.994075 -0.266179 -0.20704 0.941426 -0.00398348 -0.257108 0.966374 
0.300482 -0.153436 0.941365 0.251052 -0.111495 0.961531 0.109824 -0.0813366 0.990618 
-0.059087 -0.165707 0.984403 -0.19563 -0.13501 0.97134 -0.698301 -0.17074 0.695143 
0.444745 -0.238128 0.863421 0.104216 -0.254825 0.961355 -0.0342644 -0.225312 0.973684 
-0.161326 -0.251226 0.95439 -0.164959 -0.29132 0.942296 -0.0389963 -0.405547 0.913242 
0.03581 -0.0530343 0.99795 -0.203202 -0.208463 0.956688 0.242852 -0.0115255 0.969995 
0.247773 -0.103739 0.963248 0.129118 -0.20159 0.970922 -0.0952928 -0.238351 0.966493 
-0.332137 -0.280883 0.900439 -0.693648 -0.379021 0.612532 0.202079 -0.194358 0.95989 
-0.00959734 -0.217834 0.975939 -0.166853 -0.145613 0.97517 -0.241342 -0.0546909 0.968898 
0.0794898 -0.286454 0.954791 -0.0295793 -0.0278676 0.999174 0.0926202 0.160194 0.982731 
0.103789 0.0556144 0.993043 0.0970852 -0.142905 0.984963 -0.019884 -0.290893 0.956549 
-0.164423 -0.415208 0.894744 -0.436442 -0.470289 0.767038 0.255593 -0.236054 0.937524 
0.0445985 -0.0843759 0.995435 -0.00334578 0.0172361 0.999846 -0.0820483 0.117904 0.98963 
-0.111796 0.200377 0.973319 0.00241245 -0.0523388 0.998626 0.177842 0.0277648 0.983667 
0.0919 0.00206569 0.995766 -0.0554899 -0.0308124 0.997984 -0.10004 -0.199775 0.974721 
-0.194866 -0.366675 0.909712 0.211061 -0.0966012 0.972688 0.0342551 0.00748911 0.999385 
-0.0379108 0.0285627 0.998873 -0.0765588 0.0930029 0.992718 -0.0575275 0.088048 0.994454 
0.0344105 -0.0235882 0.999129 0.0336126 -0.191423 0.980932 -0.0999177 -0.209632 0.972662 
-0.247173 -0.306215 0.919314 0.312595 -0.290384 0.904412 0.117694 -0.182608 0.976116 
0.00524858 -0.101018 0.994871 -0.0543944 -0.0831818 0.995049 -0.111417 -0.0561676 0.992185 
-0.101233 -0.138556 0.985167 -0.0873138 -0.255669 0.962813 0.0915891 -0.326434 0.940772 
-0.022333 -0.266214 0.963655 -0.116963 -0.236669 0.964525 0.375619 0.731342 0.569254 
0.152507 0.84858 0.506609 0.00618719 0.845433 0.534046 0.00268782 0.999401 0.0345018 
0.0113619 0.881517 0.472015 0.0478707 0.88807 0.45721 -0.0214558 0.911041 0.411757 
-0.147984 0.887151 0.437109 -0.239893 0.869864 0.431032 -0.25618 0.81613 0.51798 
0.499637 0.649912 0.572692 0.541767 0.610354 0.57789 0.626643 0.738771 0.248065 
-0.238092 0.864692 0.44229 -0.236441 0.86584 0.440928 -0.240518 0.874402 0.421394 
-0.341804 0.798139 0.49613 -0.528428 0.735565 0.42392 0.65099 0.520183 0.55283 
0.729147 0.434358 0.528846 -0.581902 0.700784 0.412664 -0.802319 0.438944 0.404491 
0.781151 0.336739 0.525747 -0.813281 0.420373 0.402318 0.807913 0.150477 0.569765 
-0.88292 0.152681 0.444006 0.79136 0.0296526 0.610631 0.0488243 -0.0476381 0.997671 
-0.829905 -0.144343 0.538909 0.722315 -0.222105 0.654928 0.991733 -0.128066 0.00798233 
0.526742 -0.281972 0.801895 0.000518486 -0.235243 0.971936 -0.00444197 0.0811745 0.99669 
0.137524 0.109069 0.984475 0.0816247 0.166553 0.982648 0.098199 0.141824 0.985009 
-0.729013 -0.374741 0.572808 -0.70381 -0.402745 0.58519 0.517896 -0.279858 0.80837 
0.534859 -0.284619 0.795561 -0.134467 -0.0266819 0.990559 0.14549 -0.0319668 0.988843 
-0.0114721 0.137088 0.990492 0.0730958 0.0428931 0.996402 -0.243885 -0.497546 0.832447 
-0.49792 -0.4981 0.70991 -0.458999 -0.509111 0.728098 0.455528 -0.256739 0.852396 
0.710155 -0.310767 0.631747 0.396233 -0.21832 0.891816 -0.240296 -0.455706 0.857082 
-0.25598 -0.380261 0.88875 -0.284193 -0.517138 0.807343 -0.585954 -0.623746 0.5173 
0.414305 -0.19001 0.890083 0.487894 -0.232581 0.841347 -0.167811 -0.307961 0.936483 
-0.267148 -0.332139 0.904608 -0.258537 -0.329626 0.908023 -0.342368 -0.399386 0.850456 
-0.506078 -0.543616 0.669602 0.373495 -0.31355 0.873034 0.649945 -0.449643 0.612692 
0.336478 -0.348496 0.874833 0.171932 -0.468023 0.86683 -0.158882 -0.242571 0.957035 
-0.142331 -0.294876 0.944876 -0.0976834 -0.270561 0.957734 -0.178784 -0.321582 0.92985 
-0.292771 -0.396879 0.869927 -0.452718 -0.439038 0.776075 0.475891 -0.605282 0.638092 
0.165185 -0.462906 0.87088 0.177252 -0.485528 0.856063 0.135401 -0.411613 0.901244 
0.00697147 -0.411224 0.911507 -0.161523 -0.26788 0.949816 -0.125316 -0.331214 0.935197 
-0.183373 -0.295759 0.937497 -0.159648 -0.343486 0.925489 -0.240829 -0.465816 0.851479 
-0.371529 -0.505603 0.778673 0.44392 -0.808252 0.386863 0.217152 -0.654231 0.72445 
0.0249529 -0.585385 0.810372 -0.117289 -0.545543 0.829835 -0.150557 -0.54921 0.822011 
-0.242407 -0.554156 0.796336 0.00159713 0.998302 -0.058223 0.629056 0.777282 -0.0110258 
0.32114 0.946844 -0.0188792 0.0624726 0.996046 -0.063165 0.1474 0.986742 -0.0679221 
-0.0241367 0.997264 -0.0698695 0.000319259 0.993636 -0.112634 -0.0576135 0.994823 -0.0837094 
0.000874285 0.995722 -0.0924009 -0.0319501 0.991906 -0.122887 -0.149664 0.980658 -0.126136 
-0.219726 0.963402 -0.153547 -0.217165 0.968348 -0.123047 -0.294026 0.948908 -0.114551 
0.668799 0.743341 -0.0123529 0.640591 0.736766 -0.216377 -0.18021 0.812401 -0.554553 
-0.347348 0.927589 -0.137577 -0.297113 0.895783 -0.330601 -0.399581 0.901644 -0.165451 
-0.627097 0.749491 -0.212161 0.848902 0.527966 -0.0248308 0.852387 0.52227 -0.0258814 
-0.682417 0.695711 -0.224261 -0.620497 0.679328 -0.391787 -0.815707 0.519353 -0.254746 
0.922042 0.38434 -0.0460558 -0.834679 0.495717 -0.239948 -0.80924 0.508983 -0.293372 
0.974141 0.221425 -0.0449462 -0.951446 0.245619 -0.185533 -0.737315 0.285648 -0.612186 
0.996311 0.0788435 -0.0338891 0.999595 0.0104748 -0.026453 -0.992902 -0.0291759 -0.115304 
0.992073 -0.125191 -0.0108792 0.991254 -0.131711 -0.00819274 0.991863 -0.124598 -0.0261216 
-0.964431 -0.261706 0.0371928 -0.833074 -0.496053 0.244786 0.949103 -0.302669 0.0871523 
-0.817452 -0.512556 0.262789 -0.920487 -0.389611 -0.0301178 0.910877 -0.380009 0.160926 
0.874602 -0.44279 0.197507 -0.680156 -0.612422 0.402899 -0.645703 -0.613154 0.455094 
0.871077 -0.44706 0.203378 -0.563956 -0.556174 0.61043 -0.552326 -0.535064 0.639252 
0.813192 -0.536567 0.225421 0.752813 -0.616662 0.230216 -0.52342 -0.479947 0.704047 
-0.495171 -0.511333 0.702385 -0.717531 -0.608318 0.339263 0.669263 -0.699988 0.249206 
0.559312 -0.782108 0.274732 -0.394653 -0.551173 0.735158 -0.431088 -0.540742 0.722331 
-0.385147 -0.56754 0.727709 -0.628037 -0.667235 0.400458 0.460093 -0.82628 0.324925 
0.447524 -0.832688 0.326118 0.277124 -0.873343 0.400592 0.0987544 -0.85233 0.513596 
-0.064299 -0.770087 0.63469 -0.155753 -0.686739 0.710021 -0.376439 -0.579653 0.7227 
-0.214341 -0.721583 0.658313 -0.436531 -0.630745 0.641562 -0.522772 -0.810703 0.263572 
0.0107079 -0.972851 0.231187 -0.154561 -0.971891 0.177594 0.30709 0.808245 -0.502431 
0.109125 0.856206 -0.504979 -0.0133101 0.831906 -0.554757 -0.0268203 0.846915 -0.531051 
-0.000533022 0.865106 -0.501588 -0.0713712 0.844424 -0.530899 -0.171449 0.787732 -0.591679 
-0.179102 0.772524 -0.609204 0.517759 0.692019 -0.503026 0.608962 0.61524 -0.500644 
0.303773 0.677214 -0.670152 0.0604296 0.652346 -0.755509 -0.00212887 0.652172 -0.758068 
0.0164814 0.665479 -0.746234 0.00273424 0.667054 -0.745004 -0.11027 0.659019 -0.743999 
-0.176847 0.664183 -0.726352 -0.174717 0.790507 -0.587003 -0.166082 0.735215 -0.657172 
-0.176068 0.791642 -0.585067 -0.275267 0.739658 -0.614112 -0.375392 0.655697 -0.65509 
0.71392 0.5017 -0.488482 0.775417 0.394042 -0.493416 0.542699 0.433091 -0.719659 
-0.0884205 0.440989 -0.893146 -0.127402 0.53184 -0.837206 -0.243137 0.584886 -0.773817 
-0.421136 0.624586 -0.657675 -0.357895 0.61708 -0.700802 -0.581607 0.471812 -0.662666 
0.807164 0.315386 -0.499017 0.736134 0.309663 -0.601843 0.444425 0.197451 -0.873784 
-0.377857 0.349411 -0.8574 -0.605144 0.439567 -0.663763 -0.56027 0.418515 -0.714803 
0.817368 0.169558 -0.5506 0.701247 0.155008 -0.695862 -0.701038 0.286026 -0.653249 
-0.497714 0.248442 -0.830998 -0.724141 0.243207 -0.645345 0.834176 0.080264 -0.545627 
0.652034 0.0240986 -0.757807 -0.483556 0.131777 -0.865337 -0.785106 0.115013 -0.608589 
-0.726006 0.133206 -0.674664 0.82631 -0.0856043 -0.556672 0.645785 -0.0656482 -0.760692 
-0.888306 -0.0732868 -0.453368 -0.828087 -0.0111691 -0.560489 0.843326 -0.176649 -0.507539 
0.722142 -0.117958 -0.681613 -0.93327 -0.307205 -0.186098 -0.932015 -0.313338 -0.182119 
-0.931532 -0.302088 -0.202464 0.867314 -0.252878 -0.428742 0.846449 -0.349093 -0.402067 
0.792208 -0.236571 -0.562531 -0.883781 -0.46158 -0.0766439 -0.851698 -0.516667 0.0875536 
0.821133 -0.403013 -0.404131 0.600958 -0.238849 -0.762758 -0.83897 -0.531748 0.115643 
0.798297 -0.487201 -0.354058 0.751646 -0.564201 -0.341622 0.702369 -0.429994 -0.567259 
-0.757615 -0.614485 0.220063 -0.733676 -0.640027 0.228221 0.675423 -0.652788 -0.343033 
0.604823 -0.729736 -0.318864 0.585377 -0.581354 -0.565121 -0.680933 -0.694215 0.233229 
-0.648449 -0.72365 0.236316 0.533108 -0.825647 -0.184672 0.514078 -0.841682 -0.165215 
0.514638 -0.790657 -0.331675 0.409618 -0.905053 -0.114418 0.3529 -0.605917 -0.71297 
0.220101 -0.974733 -0.0380953 -0.272405 -0.950732 0.148001 -0.368252 -0.917686 0.14914 
-0.534804 -0.812184 0.233112 -0.524177 -0.818894 0.233776 -0.527613 -0.847585 0.0567896 
0.216938 -0.975449 -0.0379191 0.0540328 -0.997677 -0.0414757 0.0480467 -0.974794 -0.217873 
-0.199724 -0.974652 0.100816 -0.129246 -0.991034 0.0338653 -0.0962172 -0.987656 -0.123608 
0.256314 0.391273 -0.88386 0.0761153 0.499876 -0.862746 -0.014145 0.489513 -0.871881 
0.0107324 0.442015 -0.896944 0.00600761 0.472179 -0.881482 -0.11354 0.453709 -0.883887 
-0.163232 0.385608 -0.908109 0.308217 0.369945 -0.876438 0.250873 0.356996 -0.899787 
0.0878782 0.373485 -0.923464 -0.0315577 0.335849 -0.941387 -0.00724766 0.293632 -0.955891 
0.00848833 0.284296 -0.958699 -0.103416 0.297018 -0.949255 -0.138223 0.38847 -0.911035 
-0.159871 0.366442 -0.916603 -0.0648237 0.399079 -0.914622 -0.0950944 0.45977 -0.882932 
-0.213339 0.41372 -0.885055 0.425403 0.196704 -0.883369 0.43614 0.186667 -0.880305 
0.247669 0.217781 -0.944051 0.0517127 0.159805 -0.985793 -0.0781724 0.106765 -0.991206 
-0.0366278 0.0455242 -0.998291 0.00319399 0.0240924 -0.999705 -0.0515905 0.0732067 -0.995982 
-0.0427395 0.156729 -0.986716 0.00330504 0.299646 -0.954045 -0.0553758 0.332451 -0.941493 
-0.296585 0.339672 -0.892558 -0.206162 0.33486 -0.919438 -0.320892 0.27195 -0.907233 
0.494171 0.158689 -0.854759 0.415431 0.134723 -0.899593 0.205856 0.0792566 -0.975367 
-0.0306023 0.0435427 -0.998583 -0.144641 0.0263285 -0.989134 -0.094538 -0.0233331 -0.995248 
0.0363742 0.047016 -0.998232 0.032866 0.174433 -0.98412 0.0745169 0.20943 -0.97498 
0.0920516 0.166231 -0.981781 -0.0635488 0.151927 -0.986347 -0.217997 0.167191 -0.961522 
-0.365598 0.217141 -0.90509 -0.281491 0.207562 -0.936846 0.518932 0.00578746 -0.854796 
0.340157 0.0114462 -0.940299 0.163028 -0.035617 -0.985978 -0.000952251 -0.00793975 -0.999968 
-0.128453 0.0273461 -0.991339 -0.0205064 0.208256 -0.977859 0.227463 0.206559 -0.951627 
0.0703183 0.0209967 -0.997304 -0.0457088 0.197902 -0.979155 -0.0547848 0.0555501 -0.996952 
-0.0655299 0.0747748 -0.995045 -0.15459 0.146338 -0.977081 -0.422652 0.139834 -0.895439 
-0.291935 0.181302 -0.939097 -0.488487 0.157955 -0.858155 0.463891 -0.0477332 -0.884605 
0.37615 -0.0432058 -0.925551 0.182616 -0.0281419 -0.982782 0.0348707 -0.0244588 -0.999092 
0.078509 0.0165981 -0.996775 0.100763 0.0990038 -0.989972 -0.232341 0.0222274 -0.97238 
0.0973117 0.0293783 -0.99482 0.107132 0.0853131 -0.990578 -0.0216341 0.0615148 -0.997872 
0.0278144 0.133344 -0.990679 -0.10215 0.189553 -0.976542 -0.274369 0.219051 -0.936343 
-0.5198 0.171833 -0.836828 -0.491747 0.175249 -0.85292 0.493935 -0.0916511 -0.864655 
0.373084 -0.0771251 -0.924586 0.1798 -0.0412887 -0.982836 0.0455827 0.0109907 -0.9989 
-0.00275478 0.042874 -0.999077 0.0366812 -0.0394705 -0.998547 0.140338 0.00534548 -0.990089 
0.163141 0.193468 -0.967448 -0.0560862 0.010823 -0.998367 -0.00991626 0.120561 -0.992656 
0.0656852 0.124397 -0.990056 -0.0504365 0.135096 -0.989548 -0.291647 0.141857 -0.945949 
-0.649569 -0.0480787 -0.758781 -0.541378 0.00615679 -0.840757 0.453653 -0.218557 -0.863963 
0.453575 -0.21809 -0.864122 0.451619 -0.217575 -0.865275 0.258763 -0.0910873 -0.961637 
0.11758 0.0186698 -0.992888 0.0276161 0.111322 -0.993401 0.0262134 0.144618 -0.98914 
0.0593623 0.101041 -0.99311 0.0504152 -0.0530916 -0.997316 0.0512642 -0.0510848 -0.997378 
0.0862798 0.0866944 -0.992492 0.0432942 0.0383437 -0.998326 -0.0608417 -0.0134772 -0.998056 
-0.34469 -0.0798419 -0.935315 -0.752574 -0.249234 -0.60952 -0.76543 -0.272141 -0.583143 
-0.739466 -0.231743 -0.632048 0.46923 -0.180055 -0.864525 0.369883 -0.157215 -0.91568 
0.233475 -0.0354228 -0.971717 0.118717 0.0487798 -0.991729 0.0275458 0.0997367 -0.994632 
-0.0390105 0.0835637 -0.995739 -0.0137082 0.00525696 -0.999892 0.0977457 0.0093707 -0.995167 
0.0831565 0.0353113 -0.995911 -0.0357466 -0.0474588 -0.998233 -0.180907 -0.0872731 -0.97962 
-0.788934 -0.396084 -0.469787 -0.463522 -0.317593 -0.827214 0.442112 -0.321542 -0.837346 
0.43346 -0.339704 -0.834694 0.419348 -0.311077 -0.852865 0.315147 -0.195657 -0.928655 
0.157025 -0.0953093 -0.982985 0.0594707 -0.0551858 -0.996703 -0.0364247 -0.0403021 -0.998523 
-0.0256852 -0.00999245 -0.99962 0.0784489 -0.0395218 -0.996134 0.0311945 -0.118228 -0.992496 
-0.0786613 -0.154236 -0.984898 -0.348999 -0.318888 -0.881198 -0.7269 -0.546688 -0.41563 
-0.723251 -0.560486 -0.40344 -0.703926 -0.531924 -0.470685 0.465591 -0.401676 -0.788595 
0.454647 -0.467615 -0.758045 0.427411 -0.36668 -0.826357 0.346367 -0.581565 -0.736079 
0.275229 -0.291293 -0.916186 0.0788148 -0.237469 -0.968192 0.00211017 -0.175981 -0.984391 
-0.0120386 -0.159 -0.987205 -0.00690958 -0.188979 -0.981957 -0.0367607 -0.329347 -0.943493 
-0.443523 -0.790566 -0.422246 -0.258241 -0.369761 -0.892518 -0.63641 -0.641649 -0.428099 
-0.57852 -0.688882 -0.436756 -0.53471 -0.609094 -0.585739 0.342296 -0.588422 -0.732525 
0.20846 -0.702854 -0.680104 0.218634 -0.499669 -0.838171 0.0267516 -0.748935 -0.662104 
0.039521 -0.413835 -0.909494 -0.0140831 -0.711683 -0.70236 -0.0447715 -0.445748 -0.894038 
-0.0980506 -0.794118 -0.599802 -0.0826867 -0.459701 -0.884216 -0.417615 -0.788832 -0.450934 
-0.290779 -0.768134 -0.570454 -0.214025 -0.625757 -0.750081 
