# vtk DataFile Version 4.2
vtk output
ASCII
DATASET POLYDATA
POINTS 498 float
-4.54977 -32.6752 -17.0643 2.83307 -32.6752 -18.2588 10.2159 -32.6752 -18.2411 
-19.3154 -25.2923 -18.211 -11.9326 -25.2923 -19.6668 -4.54977 -25.2923 -20.883 
2.83307 -25.2923 -21.8145 10.2159 -25.2923 -22.6122 17.5988 -25.2923 -21.8985 
24.9816 -25.2923 -19.6598 -34.0811 -17.9095 -17.5933 -26.6983 -17.9095 -20.5561 
-19.3154 -17.9095 -21.4601 -11.9326 -17.9095 -21.8693 -4.54977 -17.9095 -22.286 
2.83307 -17.9095 -23.2235 10.2159 -17.9095 -23.8274 17.5988 -17.9095 -23.6093 
24.9816 -17.9095 -22.3026 32.3644 -17.9095 -19.662 -34.0811 -10.5266 -21.1746 
-26.6983 -10.5266 -22.8129 -19.3154 -10.5266 -22.9589 -11.9326 -10.5266 -22.9125 
-4.54977 -10.5266 -23.0238 2.83307 -10.5266 -23.3921 10.2159 -10.5266 -23.6535 
17.5988 -10.5266 -23.6195 24.9816 -10.5266 -23.011 32.3644 -10.5266 -21.9124 
39.7473 -10.5266 -18.3942 -41.464 -3.1438 -19.0985 -34.0811 -3.1438 -22.7145 
-26.6983 -3.1438 -23.7579 -19.3154 -3.1438 -23.9695 -11.9326 -3.1438 -23.6093 
-4.54977 -3.1438 -23.7941 2.83307 -3.1438 -24.2176 10.2159 -3.1438 -23.7805 
17.5988 -3.1438 -23.3814 24.9816 -3.1438 -23.4556 32.3644 -3.1438 -22.8763 
39.7473 -3.1438 -20.3995 -41.464 4.23904 -18.9551 -34.0811 4.23904 -22.7889 
-26.6983 4.23904 -23.9804 -19.3154 4.23904 -24.2765 -11.9326 4.23904 -23.7839 
-4.54977 4.23904 -23.5296 2.83307 4.23904 -24.087 10.2159 4.23904 -23.844 
17.5988 4.23904 -23.6425 24.9816 4.23904 -23.8945 32.3644 4.23904 -23.308 
39.7473 4.23904 -20.9225 -34.0811 11.6219 -21.4208 -26.6983 11.6219 -23.4497 
-19.3154 11.6219 -23.9109 -11.9326 11.6219 -23.8354 -4.54977 11.6219 -23.5667 
2.83307 11.6219 -23.4925 10.2159 11.6219 -23.5004 17.5988 11.6219 -23.7396 
24.9816 11.6219 -23.7689 32.3644 11.6219 -23.2508 39.7473 11.6219 -20.0373 
-34.0811 19.0047 -18.3311 -26.6983 19.0047 -21.641 -19.3154 19.0047 -22.8855 
-11.9326 19.0047 -23.645 -4.54977 19.0047 -24.2532 2.83307 19.0047 -24.247 
10.2159 19.0047 -23.6776 17.5988 19.0047 -23.5136 24.9816 19.0047 -22.9886 
32.3644 19.0047 -21.4736 39.7473 19.0047 -17.2769 -26.6983 26.3876 -17.2071 
-19.3154 26.3876 -20.3183 -11.9326 26.3876 -22.3638 -4.54977 26.3876 -23.3606 
2.83307 26.3876 -23.5814 10.2159 26.3876 -23.4176 17.5988 26.3876 -22.169 
24.9816 26.3876 -20.8018 32.3644 26.3876 -17.8995 -11.9326 33.7704 -17.398 
-4.54977 33.7704 -19.6348 2.83307 33.7704 -20.0786 10.2159 33.7704 -19.143 
17.5988 33.7704 -17.5648 -4.54977 -32.7008 -17.0409 2.83307 -33.9956 -17.0409 
10.2159 -33.8943 -17.0409 -19.3154 -26.8586 -17.0409 -4.63078 -32.6752 -17.0409 
-11.9326 -29.6181 -17.0409 -11.9326 -32.6752 -13.7729 16.5887 -32.6752 -17.0409 
17.5988 -32.4319 -17.0409 17.5988 -32.6752 -16.7394 24.9816 -28.7262 -17.0409 
24.9816 -32.6752 -11.4028 -34.0811 -18.6276 -17.0409 -22.7583 -25.2923 -17.0409 
-26.6983 -23.2737 -17.0409 -26.6983 -25.2923 -15.113 29.6397 -25.2923 -17.0409 
32.3644 -22.6875 -17.0409 32.3644 -25.2923 -14.5117 -34.9188 -17.9095 -17.0409 
-41.464 -17.9095 -10.3714 36.313 -17.9095 -17.0409 39.7473 -13.1662 -17.0409 
39.7473 -17.9095 -12.9392 -41.3644 -10.5266 -17.0409 -41.464 -10.3053 -17.0409 
-41.464 -10.5266 -16.9401 41.3005 -10.5266 -17.0409 -43.6858 -3.1438 -17.0409 
43.8229 -3.1438 -17.0409 47.1301 -3.1438 -12.2077 -43.5197 4.23904 -17.0409 
-41.464 11.0047 -17.0409 44.7809 4.23904 -17.0409 47.1301 4.23904 -13.6061 
-41.2102 11.6219 -17.0409 -41.464 11.6219 -16.7826 43.1969 11.6219 -17.0409 
47.1301 11.6219 -10.5286 -35.8964 19.0047 -17.0409 -41.464 19.0047 -10.9316 
-34.0811 20.8089 -17.0409 40.0075 19.0047 -17.0409 39.7473 19.3673 -17.0409 
-27.0002 26.3876 -17.0409 -34.0811 26.3876 -10.4558 -26.6983 26.5706 -17.0409 
-19.3154 30.4569 -17.0409 24.9816 31.4758 -17.0409 33.5223 26.3876 -17.0409 
32.3644 27.3313 -17.0409 -12.707 33.7704 -17.0409 -19.3154 33.7704 -10.6458 
-11.9326 34.0605 -17.0409 -4.54977 35.874 -17.0409 2.83307 36.3107 -17.0409 
10.2159 35.6202 -17.0409 19.1207 33.7704 -17.0409 17.5988 34.2277 -17.0409 
24.9816 33.7704 -12.9564 -11.9326 -35.1055 -9.65801 -4.54977 -37.5672 -9.65801 
2.83307 -38.7366 -9.65801 2.83307 -40.058 -2.72278 10.2159 -38.4 -9.65801 
17.5988 -36.6562 -9.65801 24.9816 -33.5403 -9.65801 -26.6983 -29.0675 -9.65801 
-18.1464 -32.6752 -9.65801 -19.3154 -32.194 -9.65801 -19.3154 -32.6752 -6.60658 
26.4215 -32.6752 -9.65801 32.3644 -28.4905 -9.65801 -41.464 -18.396 -9.65801 
-33.4614 -25.2923 -9.65801 -34.0811 -24.8796 -9.65801 -34.0811 -25.2923 -7.91369 
35.7666 -25.2923 -9.65801 39.7473 -20.5851 -9.65801 -41.8686 -17.9095 -9.65801 
41.6574 -17.9095 -9.65801 -45.9581 -10.5266 -9.65801 45.6668 -10.5266 -9.65801 
47.1301 -6.66884 -9.65801 -47.8175 -3.1438 -9.65801 48.3209 -3.1438 -9.65801 
-47.8409 4.23904 -9.65801 -48.8468 4.23904 -3.06844 48.9889 4.23904 -9.65801 
-46.1599 11.6219 -9.65801 47.5103 11.6219 -9.65801 47.1301 12.5344 -9.65801 
-42.2268 19.0047 -9.65801 -41.464 19.9594 -9.65801 44.1037 19.0047 -9.65801 
39.7473 24.9005 -9.65801 -34.672 26.3876 -9.65801 -34.0811 26.837 -9.65801 
-26.6983 31.1031 -9.65801 38.3877 26.3876 -9.65801 32.3644 31.5195 -9.65801 
-20.2206 33.7704 -9.65801 -19.3154 34.1267 -9.65801 -11.9326 36.5805 -9.65801 
-4.54977 38.1296 -9.65801 2.83307 38.7038 -9.65801 10.2159 38.3585 -9.65801 
17.5988 37.2645 -9.65801 27.9066 33.7704 -9.65801 24.9816 35.0893 -9.65801 
2.83307 -40.1365 -2.27517 -19.3154 -33.2914 -2.27517 -11.9326 -36.0571 -2.27517 
2.41809 -40.058 -2.27517 -4.54977 -38.6355 -2.27517 5.59824 -40.058 -2.27517 
2.83307 -40.058 -0.827797 10.2159 -39.9234 -2.27517 17.5988 -38.1278 -2.27517 
24.9816 -35.0342 -2.27517 -34.0811 -26.4454 -2.27517 -20.9608 -32.6752 -2.27517 
-26.6983 -30.5645 -2.27517 28.8099 -32.6752 -2.27517 32.3644 -30.109 -2.27517 
-35.5612 -25.2923 -2.27517 -41.464 -19.6556 -2.27517 37.2561 -25.2923 -2.27517 
39.7473 -21.9992 -2.27517 -42.8471 -17.9095 -2.27517 42.4979 -17.9095 -2.27517 
-46.8869 -10.5266 -2.27517 46.2187 -10.5266 -2.27517 47.1301 -7.83202 -2.27517 
-48.767 -3.1438 -2.27517 -48.8468 -0.114666 -2.27517 48.6344 -3.1438 -2.27517 
47.1301 -3.1438 4.7317 -48.9601 4.23904 -2.27517 -48.8468 4.85411 -2.27517 
-48.8468 4.23904 -1.23516 49.2767 4.23904 -2.27517 -47.4806 11.6219 -2.27517 
47.8655 11.6219 -2.27517 47.1301 13.3697 -2.27517 47.1301 11.6219 1.20521 
-43.5444 19.0047 -2.27517 -41.464 21.5295 -2.27517 44.46 19.0047 -2.27517 
39.7473 25.0912 -2.27517 -35.9345 26.3876 -2.27517 -34.0811 27.6987 -2.27517 
-34.0811 26.3876 3.24799 -26.6983 31.3279 -2.27517 38.4961 26.3876 -2.27517 
32.3644 31.2854 -2.27517 -19.5197 33.7704 -2.27517 -19.3154 33.8382 -2.27517 
-19.3154 33.7704 -2.03758 -11.9326 35.9648 -2.27517 -4.54977 37.6186 -2.27517 
2.83307 38.4171 -2.27517 10.2159 38.3296 -2.27517 17.5988 37.193 -2.27517 
27.4197 33.7704 -2.27517 24.9816 34.9052 -2.27517 24.9816 33.7704 1.97341 
-19.3154 -33.1507 5.10766 -11.9326 -35.6731 5.10766 -4.54977 -38.1174 5.10766 
2.83307 -39.7293 5.10766 10.2159 -39.5627 5.10766 17.5988 -37.9299 5.10766 
24.9816 -34.8942 5.10766 -34.0811 -26.2153 5.10766 -20.6499 -32.6752 5.10766 
-26.6983 -30.5063 5.10766 -19.3154 -32.6752 8.08918 28.4811 -32.6752 5.10766 
24.9816 -32.6752 11.0131 32.3644 -29.5678 5.10766 -35.1861 -25.2923 5.10766 
-41.464 -18.7568 5.10766 -34.0811 -25.2923 8.21546 36.4055 -25.2923 5.10766 
39.7473 -20.2603 5.10766 -42.1023 -17.9095 5.10766 -41.464 -17.9095 6.98003 
41.1252 -17.9095 5.10766 39.7473 -17.9095 7.92719 -45.9051 -10.5266 5.10766 
44.6079 -10.5266 5.10766 -47.8587 -3.1438 5.10766 47.042 -3.1438 5.10766 
47.1301 -2.05583 5.10766 -48.124 4.23904 5.10766 47.6185 4.23904 5.10766 
47.1301 6.94761 5.10766 47.1301 4.23904 6.12758 -46.542 11.6219 5.10766 
46.2168 11.6219 5.10766 -42.2869 19.0047 5.10766 -41.464 19.9735 5.10766 
-41.464 19.0047 6.87212 -34.0811 25.9196 5.10766 42.2203 19.0047 5.10766 
39.7473 22.1215 5.10766 39.7473 19.0047 8.95064 -33.2754 26.3876 5.10766 
-26.6983 29.6892 5.10766 -26.6983 26.3876 11.9463 -19.3154 31.7218 5.10766 
24.9816 32.7892 5.10766 35.2873 26.3876 5.10766 32.3644 28.6284 5.10766 
32.3644 26.3876 8.42474 -12.1725 33.7704 5.10766 -11.9326 33.8413 5.10766 
-11.9326 33.7704 5.28555 -4.54977 35.7688 5.10766 -4.54977 33.7704 9.91645 
2.83307 36.7868 5.10766 2.83307 33.7704 11.8946 10.2159 36.6353 5.10766 
10.2159 33.7704 10.8296 22.2637 33.7704 5.10766 17.5988 35.2372 5.10766 
17.5988 33.7704 7.96498 -11.9326 -34.1768 12.4905 -4.54977 -36.2574 12.4905 
2.83307 -37.3731 12.4905 10.2159 -36.9888 12.4905 17.5988 -35.0977 12.4905 
-26.6983 -28.5928 12.4905 -16.9581 -32.6752 12.4905 -19.3154 -31.9048 12.4905 
-11.9326 -32.6752 15.3214 -4.54977 -32.6752 18.027 2.83307 -32.6752 18.5176 
10.2159 -32.6752 17.5313 23.541 -32.6752 12.4905 17.5988 -32.6752 15.511 
24.9816 -31.9307 12.4905 32.3644 -25.5581 12.4905 -32.0795 -25.2923 12.4905 
-34.0811 -23.6546 12.4905 -26.6983 -25.2923 17.466 24.9816 -25.2923 18.4093 
32.6039 -25.2923 12.4905 32.3644 -25.2923 12.7509 -39.1754 -17.9095 12.4905 
-41.464 -14.0861 12.4905 -34.0811 -17.9095 18.9323 37.142 -17.9095 12.4905 
32.3644 -17.9095 17.2239 39.7473 -12.6776 12.4905 -43.3047 -10.5266 12.4905 
-41.464 -10.5266 15.633 32.3644 -10.5266 19.6929 40.6921 -10.5266 12.4905 
39.7473 -10.5266 13.6101 -45.3011 -3.1438 12.4905 -41.464 -3.1438 18.9691 
42.9493 -3.1438 12.4905 39.7473 -3.1438 15.9342 -45.4553 4.23904 12.4905 
-41.464 4.23904 18.7291 43.5233 4.23904 12.4905 39.7473 4.23904 16.4417 
-43.3863 11.6219 12.4905 -41.464 14.7475 12.4905 -41.464 11.6219 15.2025 
32.3644 11.6219 19.0525 41.7245 11.6219 12.4905 39.7473 15.0411 12.4905 
39.7473 11.6219 14.5218 -37.8336 19.0047 12.4905 -34.0811 21.9689 12.4905 
-34.0811 19.0047 16.0754 -26.6983 26.0708 12.4905 24.9816 19.0047 18.6054 
36.4674 19.0047 12.4905 32.3644 22.7827 12.4905 32.3644 19.0047 15.4022 
-25.8098 26.3876 12.4905 -19.3154 28.4373 12.4905 -19.3154 26.3876 15.8305 
-11.9326 30.7372 12.4905 -11.9326 26.3876 19.2325 -4.54977 32.5835 12.4905 
2.83307 33.4624 12.4905 10.2159 32.7492 12.4905 10.2159 26.3876 18.8737 
[...]
POINT_DATA 498
SCALARS ImageScalars float
LOOKUP_TABLE default
0 0 0 0 0 0 0 0 0 
0 0 0 0 0 0 0 0 0 
0 0 0 0 0 0 0 0 0 
0 0 0 0 0 0 0 0 0 
0 0 0 0 0 0 0 0 0 
0 0 0 0 0 0 0 0 0 
0 0 0 0 0 0 0 0 0 
0 0 0 0 0 0 0 0 0 
0 0 0 0 0 0 0 0 0 
0 0 0 0 0 0 0 0 0 
0 0 0 0 0 0 0 0 0 
0 0 0 0 0 0 0 0 0 
0 0 0 0 0 0 0 0 0 
0 0 0 0 0 0 0 0 0 
0 0 0 0 0 0 0 0 0 
0 0 0 0 0 0 0 0 0 
0 0 0 0 0 0 0 0 0 
0 0 0 0 0 0 0 0 0 
0 0 0 0 0 0 0 0 0 
0 0 0 0 0 0 0 0 0 
0 0 0 0 0 0 0 0 0 
0 0 0 0 0 0 0 0 0 
0 0 0 0 0 0 0 0 0 
0 0 0 0 0 0 0 0 0 
0 0 0 0 0 0 0 0 0 
0 0 0 0 0 0 0 0 0 
0 0 0 0 0 0 0 0 0 
0 0 0 0 0 0 0 0 0 
0 0 0 0 0 0 0 0 0 
0 0 0 0 0 0 0 0 0 
0 0 0 0 0 0 0 0 0 
0 0 0 0 0 0 0 0 0 
0 0 0 0 0 0 0 0 0 
0 0 0 0 0 0 0 0 0 
0 0 0 0 0 0 0 0 0 
0 0 0 0 0 0 0 0 0 
0 0 0 0 0 0 0 0 0 
0 0 0 0 0 0 0 0 0 
0 0 0 0 0 0 0 0 0 
0 0 0 0 0 0 0 0 0 
0 0 0 0 0 0 0 0 0 
0 0 0 0 0 0 0 0 0 
0 0 0 0 0 0 0 0 0 
0 0 0 0 0 0 0 0 0 
0 0 0 0 0 0 0 0 0 
0 0 0 0 0 0 0 0 0 
0 0 0 0 0 0 0 0 0 
0 0 0 0 0 0 0 0 0 
0 0 0 0 0 0 0 0 0 
0 0 0 0 0 0 0 0 0 
0 0 0 0 0 0 0 0 0 
0 0 0 0 0 0 0 0 0 
0 0 0 0 0 0 0 0 0 
0 0 0 0 0 0 0 0 0 
0 0 0 0 0 0 0 0 0 
0 0 0 
NORMALS Normals float
0.193664 0.637655 0.74558 0.0680297 0.625104 0.777571 -0.0745949 0.670602 0.738057 
0.24161 0.532026 0.811525 0.161975 0.407917 0.898536 0.14053 0.310714 0.940057 
0.106032 0.291191 0.950771 0.00894521 0.318486 0.947886 -0.174174 0.381542 0.907793 
-0.364494 0.48038 0.797734 0.435338 0.533483 0.725174 0.20914 0.416139 0.884923 
0.0803571 0.29351 0.952573 0.0531084 0.207964 0.976694 0.0892911 0.135007 0.986813 
0.102061 0.10299 0.989432 0.0258715 0.0628588 0.997687 -0.10203 0.106479 0.989066 
-0.244369 0.196704 0.949522 -0.447593 0.355254 0.820643 0.331966 0.280331 0.900674 
0.117389 0.201469 0.972435 0.00606518 0.160077 0.987086 0.00431852 0.115047 0.993351 
0.0322939 0.101098 0.994352 0.0425427 0.066782 0.99686 0.0154456 -0.00321873 0.999876 
-0.0448019 -0.0154815 0.998876 -0.105546 0.0755815 0.991538 -0.276173 0.201401 0.939769 
-0.572361 0.32524 0.752743 0.604866 0.109163 0.788809 0.276194 0.103056 0.955561 
0.0782321 0.0749171 0.994116 -0.0101077 0.0897611 0.995912 -0.0118775 0.0586594 0.998207 
0.0409891 0.0339471 0.998583 -0.000776571 0.0471995 0.998885 -0.0566623 0.0129587 0.998309 
-0.0217962 0.00158487 0.999761 -0.034084 0.0607259 0.997572 -0.17735 0.0875192 0.980249 
-0.500645 0.149563 0.852635 0.616082 -0.123206 0.777987 0.294988 -0.0810576 0.952057 
0.0930423 -0.018889 0.995483 -0.0134498 -0.00463263 0.999899 -0.0505259 0.01527 0.998606 
0.0202569 -0.015428 0.999676 0.0215373 -0.0494394 0.998545 -0.0300128 -0.0190605 0.999368 
0.00343589 0.0242467 0.9997 -0.0238245 0.0207186 0.999501 -0.181062 0.0251647 0.98315 
-0.476271 -0.0194505 0.879084 0.376571 -0.246404 0.893017 0.164354 -0.143553 0.9759 
0.0238825 -0.0911348 0.995552 -0.0234048 -0.00951539 0.999681 -0.0232244 0.0488282 0.998537 
-0.00449248 0.0111815 0.999927 0.0167289 -0.0112121 0.999797 0.0182829 -0.00859377 0.999796 
-0.0292569 -0.0579839 0.997889 -0.212597 -0.11588 0.970245 -0.531975 -0.204757 0.821631 
0.467715 -0.474689 0.745596 0.258475 -0.356723 0.897741 0.122233 -0.210002 0.97003 
0.0907977 -0.0912407 0.991681 0.0412706 -0.0122298 0.999073 -0.0390047 0.00605468 0.999221 
-0.0494852 -0.00381917 0.998768 -0.0453465 -0.101381 0.993814 -0.131984 -0.188254 0.973212 
-0.328703 -0.304414 0.894028 -0.632433 -0.413841 0.654801 0.391266 -0.617421 0.682424 
0.302196 -0.487833 0.818961 0.181633 -0.332885 0.925309 0.0776666 -0.244547 0.966522 
0.00456188 -0.219407 0.975623 -0.0923753 -0.237031 0.9671 -0.161158 -0.328544 0.930638 
-0.252954 -0.441207 0.861017 -0.464587 -0.581684 0.667685 0.285394 -0.7765 0.561781 
0.140912 -0.713895 0.685928 -0.0283154 -0.691106 0.722198 -0.135255 -0.70725 0.693904 
-0.215478 -0.749755 0.625648 0.193758 0.638833 0.744547 0.0629057 0.68772 0.723245 
-0.084132 0.720289 0.688553 0.269789 0.597604 0.755039 0.194514 0.638722 0.744445 
0.227177 0.592307 0.773022 0.300664 0.786838 0.538968 -0.218435 0.724665 0.653565 
-0.238947 0.720604 0.650872 -0.242807 0.735228 0.632839 -0.40492 0.629788 0.662878 
-0.444373 0.813851 0.374405 0.443361 0.556306 0.702819 0.290557 0.59431 0.749915 
0.311494 0.592722 0.742733 0.356105 0.687383 0.633003 -0.489755 0.562643 0.666013 
-0.526183 0.510911 0.67978 -0.578472 0.621265 0.528582 0.462343 0.542023 0.701747 
0.736834 0.589635 0.330767 -0.577854 0.430552 0.693332 -0.617857 0.384855 0.685667 
-0.732728 0.517986 0.441361 0.643926 0.347277 0.681732 0.647911 0.340793 0.681227 
0.650477 0.348339 0.674937 -0.645266 0.338538 0.684854 0.719514 0.108574 0.685939 
-0.702861 0.17553 0.68933 -0.902772 0.205411 0.3779 0.714138 -0.120431 0.689567 
0.651691 -0.304772 0.69456 -0.729308 -0.0320276 0.683436 -0.890917 -0.0455343 0.451877 
0.643146 -0.319281 0.696004 0.657885 -0.322403 0.68062 -0.703457 -0.237572 0.669857 
-0.918591 -0.291426 0.266949 0.524146 -0.493793 0.693859 0.744538 -0.551714 0.375864 
0.487956 -0.533759 0.690652 -0.642395 -0.415903 0.643703 -0.637602 -0.424467 0.642877 
0.396975 -0.621059 0.675793 0.568425 -0.75915 0.317151 0.393463 -0.624075 0.675068 
0.36029 -0.687129 0.630908 -0.334635 -0.706334 0.623788 -0.504097 -0.598412 0.622728 
-0.476529 -0.619924 0.623389 0.295051 -0.784671 0.545193 0.350744 -0.914851 0.200067 
0.28525 -0.790974 0.541288 0.143584 -0.841514 0.520805 -0.0148661 -0.846526 0.53214 
-0.131545 -0.806908 0.575843 -0.243923 -0.766287 0.594396 -0.21762 -0.771854 0.597397 
-0.361083 -0.867959 0.340979 0.329374 0.892667 0.307667 0.226494 0.920113 0.31952 
0.0520613 0.938209 0.34213 0.0784785 0.994025 0.0758709 -0.127507 0.930697 0.342849 
-0.295869 0.899746 0.320809 -0.44724 0.840539 0.30573 0.410012 0.841197 0.352531 
0.359205 0.882526 0.303512 0.363765 0.87896 0.308388 0.359527 0.912227 0.196421 
-0.476936 0.824226 0.305261 -0.609692 0.729467 0.310087 0.740802 0.60234 0.29732 
0.538897 0.774174 0.332031 0.551585 0.766185 0.32972 0.564569 0.781591 0.265288 
-0.684698 0.664274 0.299882 -0.767509 0.576947 0.279396 0.751878 0.589192 0.295859 
-0.799897 0.534098 0.273687 0.887645 0.362642 0.28386 -0.886284 0.392657 0.245602 
-0.923911 0.298244 0.239663 0.951914 0.111274 0.285445 -0.947476 0.208435 0.242578 
0.947843 -0.0959609 0.30395 0.995721 -0.0802296 0.045853 -0.97021 -0.0517043 0.236684 
0.885052 -0.335803 0.322365 -0.928725 -0.293201 0.226944 -0.921952 -0.315536 0.224591 
0.768654 -0.554779 0.31842 0.749768 -0.581238 0.316244 -0.842556 -0.493238 0.216367 
-0.73221 -0.65141 0.198832 0.581871 -0.763501 0.280165 0.568778 -0.774067 0.278052 
0.431401 -0.871394 0.233592 -0.695021 -0.692192 0.194463 -0.529668 -0.827762 0.185097 
0.352141 -0.923092 0.154589 0.342396 -0.927955 0.147186 0.258818 -0.959886 0.107851 
0.139401 -0.98515 0.100235 0.0155308 -0.992291 0.122953 -0.0974149 -0.982837 0.156658 
-0.20516 -0.964198 0.168024 -0.418018 -0.892652 0.168619 -0.355375 -0.919721 0.166797 
0.0799553 0.994977 0.0602272 0.34686 0.936326 0.0546077 0.337153 0.940874 0.032909 
0.0903957 0.994166 0.0588473 0.270367 0.962159 0.0339529 0.00132169 0.997938 0.0641797 
0.0820073 0.996501 0.0161351 -0.131416 0.988829 0.0703331 -0.306006 0.949093 0.0747196 
-0.462438 0.882973 0.0806833 0.586139 0.807011 0.0719381 0.355955 0.932575 0.0599996 
0.404018 0.911059 0.0821002 -0.548459 0.832934 0.0735776 -0.637756 0.768101 0.0573446 
0.620141 0.781789 0.0650438 0.781835 0.623139 0.0207913 -0.757592 0.652088 0.0289049 
-0.812151 0.583447 -0.000658111 0.817241 0.576158 0.0126571 -0.854533 0.518501 -0.0305026 
0.931029 0.364927 -0.00365108 -0.926578 0.370975 -0.0618973 -0.949061 0.307122 -0.0704252 
0.991801 0.127772 0.00232546 0.999059 0.0425567 0.00835353 -0.976903 0.197421 -0.0817596 
-0.931567 0.181869 -0.314813 0.996766 -0.0786051 0.0167193 0.995012 -0.0982614 0.0171756 
0.996821 -0.0780917 -0.0158126 -0.994941 -0.0496675 -0.0873191 0.94432 -0.328338 0.0213045 
-0.954334 -0.288755 -0.0765995 -0.938981 -0.334724 -0.0792092 -0.935642 -0.293248 -0.196415 
0.816561 -0.577232 0.00565731 0.756877 -0.653556 -0.00137787 -0.852846 -0.51278 -0.0985434 
-0.722003 -0.681886 -0.117231 0.574603 -0.817457 -0.0399402 0.528549 -0.847371 -0.050968 
0.514711 -0.824835 -0.23392 0.376567 -0.922061 -0.0894503 -0.686191 -0.71666 -0.124658 
-0.524158 -0.837987 -0.151777 0.291059 -0.945146 -0.148267 0.289129 -0.945529 -0.149596 
0.28838 -0.944887 -0.155001 0.246531 -0.953843 -0.171482 0.161672 -0.9751 -0.151798 
0.0473125 -0.991215 -0.123511 -0.0854457 -0.990344 -0.109168 -0.214469 -0.968965 -0.122926 
-0.413733 -0.900095 -0.136583 -0.365368 -0.92147 -0.131902 -0.37158 -0.889094 -0.267282 
0.323219 0.942678 -0.0829968 0.312201 0.942483 -0.119401 0.26656 0.95208 -0.149965 
0.0895567 0.9815 -0.169224 -0.115243 0.978666 -0.170096 -0.287055 0.942318 -0.172153 
-0.467385 0.867956 -0.16794 0.613223 0.77848 -0.133889 0.335341 0.938249 -0.0850584 
0.410301 0.904919 -0.113024 0.326739 0.929067 -0.173426 -0.557504 0.811203 -0.176461 
-0.45973 0.780765 -0.423148 -0.662966 0.720872 -0.202038 0.639657 0.755947 -0.139225 
0.799248 0.570615 -0.18868 0.620503 0.74917 -0.231777 -0.756917 0.613052 -0.226372 
-0.829097 0.493771 -0.262275 0.813967 0.548524 -0.191258 0.80195 0.546628 -0.240985 
-0.846384 0.454291 -0.277947 -0.817083 0.438102 -0.374757 0.911031 0.355449 -0.208992 
-0.883214 0.345841 -0.316745 0.966658 0.132671 -0.219022 -0.927394 0.180735 -0.327529 
-0.932374 0.147528 -0.330021 0.972469 -0.0756182 -0.220421 -0.939523 -0.048719 -0.339002 
-0.930297 -0.138279 -0.339745 -0.926853 -0.0502264 -0.372051 0.911393 -0.33905 -0.233254 
-0.89171 -0.296671 -0.341817 0.760799 -0.59475 -0.259725 0.735197 -0.624048 -0.264667 
0.734122 -0.604677 -0.308918 0.506837 -0.809372 -0.296702 -0.756255 -0.539573 -0.370053 
-0.693951 -0.61258 -0.378387 -0.673107 -0.542672 -0.502428 0.488353 -0.820308 -0.297669 
0.33673 -0.88806 -0.312989 0.33407 -0.810631 -0.480911 0.253894 -0.908503 -0.331903 
-0.368783 -0.846928 -0.383031 -0.577003 -0.711312 -0.401375 -0.513198 -0.754465 -0.409158 
-0.497183 -0.701586 -0.510478 0.259627 -0.910101 -0.322971 0.259509 -0.910133 -0.322974 
0.259313 -0.9093 -0.325468 0.186988 -0.929766 -0.31713 0.17277 -0.89649 -0.40799 
0.0555306 -0.949278 -0.309496 0.0190641 -0.867739 -0.496655 -0.0987938 -0.936774 -0.335701 
-0.124935 -0.845492 -0.519167 -0.31653 -0.8719 -0.37363 -0.232468 -0.90113 -0.365954 
-0.239607 -0.852298 -0.464948 0.270888 0.904355 -0.329792 0.200624 0.9037 -0.378255 
0.0485823 0.890132 -0.453107 -0.1347 0.860274 -0.491717 -0.284519 0.816993 -0.501568 
0.438037 0.8201 -0.368184 0.307629 0.896577 -0.318613 0.328409 0.88711 -0.324321 
0.252756 0.846812 -0.468 0.119114 0.738879 -0.663227 -0.0291379 0.662716 -0.748304 
-0.144966 0.662727 -0.734696 -0.417663 0.762364 -0.494327 -0.266708 0.716245 -0.644872 
-0.452841 0.741019 -0.495807 -0.648141 0.554406 -0.522061 0.564963 0.734073 -0.376768 
0.621351 0.685592 -0.379324 0.397119 0.698178 -0.595688 -0.398061 0.472426 -0.786359 
-0.653529 0.547458 -0.522675 -0.646705 0.546072 -0.532521 0.742894 0.536816 -0.39992 
0.807987 0.435949 -0.396365 0.565525 0.518933 -0.641007 -0.725619 0.398539 -0.56093 
-0.579072 0.337813 -0.741996 -0.758265 0.329279 -0.56268 0.850128 0.344859 -0.397937 
0.798918 0.341502 -0.495082 -0.483693 0.189274 -0.854527 -0.766683 0.298216 -0.568563 
-0.740039 0.29053 -0.606577 0.903851 0.122053 -0.410069 0.785991 0.101747 -0.609809 
-0.781308 0.157514 -0.603943 -0.672971 0.137517 -0.726773 0.894806 -0.102443 -0.434544 
0.766349 -0.144368 -0.625993 -0.786337 -0.0642437 -0.614449 -0.650595 -0.0747256 -0.755739 
0.802449 -0.373715 -0.465202 0.739139 -0.482291 -0.470179 0.7433 -0.381388 -0.549589 
-0.392149 -0.29694 -0.870658 -0.709622 -0.311682 -0.631895 -0.649761 -0.41684 -0.635654 
-0.639218 -0.316296 -0.700969 0.593856 -0.640186 -0.487337 0.492262 -0.718757 -0.490985 
0.479522 -0.640034 -0.600346 0.333285 -0.802077 -0.495574 -0.283776 -0.43811 -0.852954 
-0.55767 -0.523476 -0.644187 -0.467347 -0.597017 -0.652041 -0.443599 -0.495472 -0.746811 
0.32378 -0.80859 -0.491273 0.270389 -0.845393 -0.460652 0.271974 -0.791356 -0.547527 
0.240406 -0.865582 -0.439287 0.207139 -0.734831 -0.645846 0.158224 -0.873354 -0.460671 
0.0141328 -0.856318 -0.516256 -0.139833 -0.800168 -0.583248 -0.217543 -0.571241 -0.791428 
-0.261003 -0.720106 -0.642904 -0.277259 -0.582913 -0.763767 -0.37483 -0.652246 -0.658846 
-0.349335 -0.663651 -0.661462 -0.341074 -0.636436 -0.691823 0.240501 0.60618 -0.758093 
0.184609 0.59148 -0.784902 0.0844045 0.604744 -0.791935 -0.0477877 0.559766 -0.827272 
-0.136963 0.497368 -0.85666 -0.212126 0.451736 -0.866567 0.278042 0.603672 -0.747176 
0.352389 0.60374 -0.715066 0.220662 0.566801 -0.793754 0.13557 0.43509 -0.890122 
0.048839 0.355958 -0.933225 -0.0638264 0.340117 -0.938214 -0.126322 0.359063 -0.924725 
-0.28152 0.422249 -0.861657 -0.200768 0.39664 -0.89575 -0.358146 0.361958 -0.86065 
0.513864 0.509947 -0.689854 0.550865 0.485355 -0.678954 0.282381 0.475867 -0.832954 
0.0764366 0.404688 -0.911255 0.00197486 0.302346 -0.953196 -0.0108307 0.195225 -0.980699 
-0.0366005 0.197835 -0.979552 -0.0890523 0.236392 -0.967568 -0.167849 0.233629 -0.957729 
-0.419073 0.276909 -0.864696 -0.324429 0.245816 -0.913411 0.667441 0.339779 -0.662625 
0.515156 0.337322 -0.787926 0.235449 0.327009 -0.915221 -0.104991 0.23486 -0.966342 
-0.0628449 0.138307 -0.988393 -0.0217386 0.1445 -0.989266 -0.0888578 0.16919 -0.98157 
-0.191652 0.122715 -0.973761 -0.471383 0.183499 -0.862627 -0.28847 0.113184 -0.950776 
-0.470387 0.167939 -0.866333 0.755836 0.0977158 -0.647429 0.507108 0.093198 -0.856829 
-0.105347 -0.0107545 -0.994377 -0.00212013 0.00836213 -0.999963 -0.105365 0.0432107 -0.993494 
-0.223016 0.00711789 -0.974789 -0.270678 0.0119226 -0.962596 -0.454485 0.0751339 -0.88758 
-0.40572 0.0593129 -0.912071 0.72422 -0.153708 -0.672219 0.491848 -0.180775 -0.851708 
-0.102834 -0.0689113 -0.992309 0.0328898 -0.0601545 -0.997647 -0.0895026 -0.0956428 -0.991384 
-0.224529 -0.113218 -0.967868 -0.247901 -0.102725 -0.963324 -0.418893 -0.0961928 -0.902926 
-0.377128 -0.200959 -0.904096 -0.360798 -0.0987921 -0.927397 0.568119 -0.415012 -0.710638 
0.47442 -0.513594 -0.714945 0.475168 -0.430975 -0.767122 0.257439 -0.418183 -0.871119 
0.0549203 -0.326798 -0.943497 -0.0696555 -0.188818 -0.979539 -0.0541822 -0.0570274 -0.996901 
-0.0306595 -0.095431 -0.994964 -0.160586 -0.216844 -0.962907 -0.226665 -0.245881 -0.942425 
-0.343419 -0.28075 -0.896238 -0.269394 -0.356268 -0.894707 -0.253076 -0.256419 -0.932846 
0.368798 -0.611168 -0.70033 0.342298 -0.631524 -0.695708 0.33882 -0.606159 -0.719564 
0.26629 -0.672246 -0.690779 0.211215 -0.526798 -0.82333 0.200037 -0.70636 -0.679 
0.100464 -0.392425 -0.914281 -0.00477296 -0.264308 -0.964427 -0.129844 -0.305449 -0.943314 
-0.227057 -0.518331 -0.824486 -0.238892 -0.367443 -0.898842 -0.258291 -0.406574 -0.876346 
-0.253366 -0.424925 -0.869048 -0.248779 -0.392578 -0.885433 0.16038 -0.710799 -0.684867 
0.066437 -0.697568 -0.713432 0.0541029 -0.655668 -0.753109 -0.151652 -0.591713 -0.791756 
-0.101406 -0.628792 -0.770932 -0.108228 -0.605287 -0.788615 0.00446774 0.300901 -0.953645 
0.0636513 0.303978 -0.95055 0.230981 0.262376 -0.936913 -0.0291704 0.277946 -0.960154 
0.000259599 0.293772 -0.955876 -0.130881 0.168204 -0.977025 0.346245 0.0907976 -0.93374 
0.220987 0.0846465 -0.971596 -0.0269887 0.0747654 -0.996836 -0.136068 0.0149062 -0.990587 
-0.173221 0.0470846 -0.983757 0.297826 -0.185216 -0.93648 0.224877 -0.27146 -0.93581 
0.209335 -0.181984 -0.960761 0.0180391 -0.273123 -0.96181 -0.0408029 -0.166074 -0.985269 
-0.181585 -0.105661 -0.977682 -0.16392 -0.130079 -0.97786 -0.193257 -0.111808 -0.974757 

