# vtk DataFile Version 4.2
vtk output
ASCII
DATASET POLYDATA
POINTS 522 float
-26.355 -30.8449 -17.5311 -18.5225 -30.8449 -17.5792 -10.6901 -30.8449 -18.3413 
-2.85766 -30.8449 -18.8188 4.97478 -30.8449 -19.0218 12.8072 -30.8449 -19.1941 
20.6397 -30.8449 -18.5483 28.4721 -30.8449 -17.4378 -42.0198 -23.0125 -19.445 
-34.1874 -23.0125 -20.9329 -26.355 -23.0125 -20.7282 -18.5225 -23.0125 -20.6667 
-10.6901 -23.0125 -21.0138 -2.85766 -23.0125 -21.2138 4.97478 -23.0125 -20.4405 
12.8072 -23.0125 -19.7147 20.6397 -23.0125 -19.6656 28.4721 -23.0125 -19.3918 
36.3045 -23.0125 -18.443 -49.8523 -15.1801 -19.752 -42.0198 -15.1801 -21.6807 
-34.1874 -15.1801 -21.9851 -26.355 -15.1801 -21.3354 -18.5225 -15.1801 -20.6938 
-10.6901 -15.1801 -20.7393 -2.85766 -15.1801 -21.9612 4.97478 -15.1801 -20.1731 
12.8072 -15.1801 -18.7603 20.6397 -15.1801 -18.8985 28.4721 -15.1801 -19.0577 
36.3045 -15.1801 -18.6419 44.137 -15.1801 -17.3356 -57.6847 -7.34762 -17.0569 
-49.8523 -7.34762 -21.3084 -42.0198 -7.34762 -22.6103 -34.1874 -7.34762 -22.4102 
-26.355 -7.34762 -21.2077 -18.5225 -7.34762 -19.7256 -10.6901 -7.34762 -20.3797 
-2.85766 -7.34762 -21.4861 4.97478 -7.34762 -20.1048 12.8072 -7.34762 -18.751 
20.6397 -7.34762 -18.3169 28.4721 -7.34762 -18.6794 36.3045 -7.34762 -18.7099 
44.137 -7.34762 -17.8676 -57.6847 0.48482 -17.3476 -49.8523 0.48482 -21.0024 
-42.0198 0.48482 -22.1284 -34.1874 0.48482 -21.8214 -26.355 0.48482 -20.7876 
-18.5225 0.48482 -19.4405 -10.6901 0.48482 -22.4569 -2.85766 0.48482 -19.8228 
4.97478 0.48482 -21.2376 12.8072 0.48482 -23.6513 20.6397 0.48482 -18.4594 
28.4721 0.48482 -18.6203 36.3045 0.48482 -18.7108 44.137 0.48482 -17.8867 
-49.8523 8.31726 -19.2813 -42.0198 8.31726 -20.6526 -34.1874 8.31726 -20.6844 
-26.355 8.31726 -20.0858 -18.5225 8.31726 -20.0585 -10.6901 8.31726 -22.6566 
-2.85766 8.31726 -20.722 4.97478 8.31726 -21.132 12.8072 8.31726 -21.6778 
20.6397 8.31726 -18.877 28.4721 8.31726 -18.8629 36.3045 8.31726 -18.8142 
44.137 8.31726 -17.9823 -49.8523 16.1497 -16.8025 -42.0198 16.1497 -18.6917 
-34.1874 16.1497 -19.4265 -26.355 16.1497 -19.3843 -18.5225 16.1497 -19.4659 
-10.6901 16.1497 -20.0275 -2.85766 16.1497 -19.2459 4.97478 16.1497 -18.6208 
12.8072 16.1497 -18.3181 20.6397 16.1497 -18.3912 28.4721 16.1497 -18.7306 
36.3045 16.1497 -18.4068 44.137 16.1497 -17.302 -34.1874 23.9821 -16.7305 
-26.355 23.9821 -17.3213 -18.5225 23.9821 -17.7517 -10.6901 23.9821 -18.0482 
-2.85766 23.9821 -17.9093 4.97478 23.9821 -18.2296 12.8072 23.9821 -18.5509 
20.6397 23.9821 -17.9842 28.4721 23.9821 -18.1147 36.3045 23.9821 -17.8156 
12.8072 31.8146 -16.774 20.6397 31.8146 -17.0276 -26.355 -31.8534 -16.5724 
-18.5225 -31.9718 -16.5724 -10.6901 -32.799 -16.5724 -2.85766 -33.5362 -16.5724 
4.97478 -34.4569 -16.5724 12.8072 -35.1045 -16.5724 12.8072 -38.6774 -10.212 
20.6397 -33.7319 -16.5724 28.4721 -32.1901 -16.5724 -42.0198 -27.7765 -16.5724 
-42.0198 -30.8449 -12.0668 -32.759 -30.8449 -16.5724 -34.1874 -30.5077 -16.5724 
-34.1874 -30.8449 -16.2423 31.2831 -30.8449 -16.5724 36.3045 -27.4614 -16.5724 
36.3045 -30.8449 -14.2611 44.137 -30.8449 -9.04562 -49.7266 -23.0125 -16.5724 
-49.8523 -22.8842 -16.5724 -49.8523 -23.0125 -16.4862 41.3753 -23.0125 -16.5724 
44.137 -18.2423 -16.5724 44.137 -23.0125 -15.262 51.9694 -23.0125 -10.0679 
-55.0074 -15.1801 -16.5724 -57.6847 -9.24922 -16.5724 -57.6847 -15.1801 -14.0848 
45.8506 -15.1801 -16.5724 51.9694 -15.1801 -13.5506 -58.2583 -7.34762 -16.5724 
48.6448 -7.34762 -16.5724 51.9694 -7.34762 -15.4773 59.8018 -7.34762 -9.9075 
-58.6967 0.48482 -16.5724 -57.6847 3.70392 -16.5724 48.7592 0.48482 -16.5724 
51.9694 0.48482 -15.5493 59.8018 0.48482 -10.0792 -55.3854 8.31726 -16.5724 
-57.6847 8.31726 -15.2024 49.1931 8.31726 -16.5724 51.9694 8.31726 -15.6873 
59.8018 8.31726 -10.1849 -50.2455 16.1497 -16.5724 -57.6847 16.1497 -10.0036 
-49.8523 16.5298 -16.5724 -42.0198 20.2135 -16.5724 46.0014 16.1497 -16.5724 
44.137 19.0541 -16.5724 51.9694 16.1497 -14.5034 -49.8523 23.9821 -9.70656 
-34.7427 23.9821 -16.5724 -42.0198 23.9821 -13.9617 -34.1874 24.2389 -16.5724 
-26.355 25.3151 -16.5724 -18.5225 26.6368 -16.5724 -10.6901 27.1938 -16.5724 
-2.85766 28.0365 -16.5724 4.97478 31.3812 -16.5724 28.4721 28.6556 -16.5724 
40.0883 23.9821 -16.5724 36.3045 26.3547 -16.5724 44.137 23.9821 -15.251 
51.9694 23.9821 -10.5408 -34.1874 31.8146 -9.04153 -26.355 31.8146 -11.5391 
-18.5225 31.8146 -13.2225 -10.6901 31.8146 -13.6814 -2.85766 31.8146 -14.9136 
7.83055 31.8146 -16.5724 4.97478 31.8146 -16.4454 12.8072 32.0892 -16.5724 
23.0866 31.8146 -16.5724 20.6397 32.4867 -16.5724 28.4721 31.8146 -15.2473 
36.3045 31.8146 -13.2616 44.137 31.8146 -9.22528 12.8072 -39.2151 -8.73997 
-42.0198 -32.2301 -8.73997 -34.1874 -35.0802 -8.73997 -26.355 -35.6685 -8.73997 
-18.5225 -36.1546 -8.73997 -10.6901 -36.3533 -8.73997 -2.85766 -37.3121 -8.73997 
6.58396 -38.6774 -8.73997 4.97478 -38.5403 -8.73997 16.8583 -38.6774 -8.73997 
12.8072 -38.6774 -7.13612 20.6397 -38.2062 -8.73997 28.4721 -37.0439 -8.73997 
36.3045 -34.7251 -8.73997 44.137 -31.0589 -8.73997 -44.9337 -30.8449 -8.73997 
-49.8523 -28.072 -8.73997 44.5206 -30.8449 -8.73997 51.9694 -24.7303 -8.73997 
-55.9172 -23.0125 -8.73997 -57.6847 -20.8122 -8.73997 53.4293 -23.0125 -8.73997 
-61.3587 -15.1801 -8.73997 57.7642 -15.1801 -8.73997 59.8018 -10.4346 -8.73997 
59.8018 -15.1801 -5.85858 -63.8295 -7.34762 -8.73997 61.1728 -7.34762 -8.73997 
-64.9675 0.48482 -8.73997 -65.5172 0.48482 -6.92375 61.2563 0.48482 -8.73997 
-63.0426 8.31726 -8.73997 61.3305 8.31726 -8.73997 59.8018 12.106 -8.73997 
-58.9627 16.1497 -8.73997 -57.6847 17.6202 -8.73997 58.4928 16.1497 -8.73997 
59.8018 16.1497 -6.27795 -51.0203 23.9821 -8.73997 -49.8523 24.7736 -8.73997 
-42.0198 28.9244 -8.73997 53.9264 23.9821 -8.73997 51.9694 26.19 -8.73997 
-34.748 31.8146 -8.73997 -34.1874 32.0225 -8.73997 -26.355 33.7959 -8.73997 
-18.5225 34.9176 -8.73997 -10.6901 35.6675 -8.73997 -2.85766 36.6768 -8.73997 
4.97478 37.8988 -8.73997 12.8072 38.6588 -8.73997 20.6397 37.9928 -8.73997 
28.4721 37.0211 -8.73997 36.3045 35.3978 -8.73997 44.7907 31.8146 -8.73997 
44.137 32.2014 -8.73997 -42.0198 -32.7015 -0.90753 -34.1874 -35.1329 -0.90753 
-26.355 -36.0249 -0.90753 -18.5225 -36.0922 -0.90753 -10.6901 -36.0063 -0.90753 
-2.85766 -36.0492 -0.90753 4.97478 -36.1481 -0.90753 12.8072 -36.3092 -0.90753 
20.6397 -36.5565 -0.90753 28.4721 -36.0036 -0.90753 36.3045 -34.8934 -0.90753 
44.137 -32.823 -0.90753 -46.2933 -30.8449 -0.90753 -49.8523 -29.0155 -0.90753 
-42.0198 -30.8449 6.41273 47.7866 -30.8449 -0.90753 44.137 -30.8449 6.13784 
51.9694 -28.2813 -0.90753 -57.6081 -23.0125 -0.90753 -57.6847 -22.9251 -0.90753 
57.6395 -23.0125 -0.90753 59.8018 -19.914 -0.90753 -62.6194 -15.1801 -0.90753 
62.7618 -15.1801 -0.90753 -65.4316 -7.34762 -0.90753 -65.5172 -6.95507 -0.90753 
65.5932 -7.34762 -0.90753 -67.1552 0.48482 -0.90753 -65.5172 8.09051 -0.90753 
65.6403 0.48482 -0.90753 -65.4683 8.31726 -0.90753 65.3274 8.31726 -0.90753 
-62.0754 16.1497 -0.90753 -57.6847 22.1958 -0.90753 62.7136 16.1497 -0.90753 
59.8018 21.0999 -0.90753 -55.7605 23.9821 -0.90753 -49.8523 27.9165 -0.90753 
-42.0198 31.7082 -0.90753 57.7552 23.9821 -0.90753 51.9694 29.5115 -0.90753 
-41.7063 31.8146 -0.90753 -34.1874 34.5095 -0.90753 -26.355 35.7796 -0.90753 
-18.5225 36.6008 -0.90753 -10.6901 36.945 -0.90753 -2.85766 37.1045 -0.90753 
4.97478 37.2988 -0.90753 12.8072 37.5237 -0.90753 20.6397 37.7703 -0.90753 
28.4721 37.2174 -0.90753 36.3045 36.1429 -0.90753 48.2426 31.8146 -0.90753 
44.137 34.0751 -0.90753 44.137 31.8146 5.87321 -34.1874 -33.1401 6.92491 
-26.355 -34.18 6.92491 -18.5225 -34.6861 6.92491 -10.6901 -34.5101 6.92491 
-2.85766 -33.4099 6.92491 4.97478 -31.7875 6.92491 12.8072 -31.077 6.92491 
20.6397 -31.9713 6.92491 28.4721 -32.978 6.92491 36.3045 -32.0681 6.92491 
-49.8523 -26.2484 6.92491 -41.5697 -30.8449 6.92491 -42.0198 -30.6986 6.92491 
-34.1874 -30.8449 10.4226 -26.355 -30.8449 11.7596 -18.5225 -30.8449 12.5879 
-10.6901 -30.8449 12.6688 -2.85766 -30.8449 10.8148 4.97478 -30.8449 8.22076 
12.8072 -30.8449 7.19725 20.6397 -30.8449 8.4208 28.4721 -30.8449 10.0235 
42.9469 -30.8449 6.92491 36.3045 -30.8449 9.42758 44.137 -30.6192 6.92491 
51.9694 -27.1083 6.92491 -54.1446 -23.0125 6.92491 -57.6847 -19.1053 6.92491 
-49.8523 -23.0125 11.3613 57.2215 -23.0125 6.92491 51.9694 -23.0125 12.9206 
59.8018 -20.0697 6.92491 -60.4077 -15.1801 6.92491 -57.6847 -15.1801 10.5385 
62.8166 -15.1801 6.92491 59.8018 -15.1801 12.2022 -64.1405 -7.34762 6.92491 
-65.5172 0.175033 6.92491 66.0047 -7.34762 6.92491 -65.5687 0.48482 6.92491 
-65.5172 0.946504 6.92491 -65.5172 0.48482 7.04137 65.9968 0.48482 6.92491 
-64.6389 8.31726 6.92491 65.3588 8.31726 6.92491 -61.3883 16.1497 6.92491 
-57.6847 21.3833 6.92491 -57.6847 16.1497 11.9445 62.0859 16.1497 6.92491 
59.8018 19.8262 6.92491 59.8018 16.1497 10.7263 -55.0465 23.9821 6.92491 
-49.8523 27.3717 6.92491 -49.8523 23.9821 12.3605 -42.0198 31.2081 6.92491 
44.137 31.446 6.92491 56.2594 23.9821 6.92491 51.9694 27.5419 6.92491 
51.9694 23.9821 11.5305 -40.1022 31.8146 6.92491 -34.1874 33.7832 6.92491 
-34.1874 31.8146 10.9417 -26.355 34.8351 6.92491 -26.355 31.8146 13.0883 
-18.5225 35.5795 6.92491 -10.6901 36.0784 6.92491 -2.85766 36.1171 6.92491 
4.97478 35.7833 6.92491 12.8072 35.2866 6.92491 20.6397 34.9179 6.92491 
20.6397 31.8146 13.2095 28.4721 35.0121 6.92491 28.4721 31.8146 12.2411 
42.771 31.8146 6.92491 36.3045 33.4848 6.92491 36.3045 31.8146 10.274 
-42.0198 -24.2516 14.7573 -34.1874 -26.8891 14.7573 -26.355 -27.4556 14.7573 
-18.5225 -27.4063 14.7573 -10.6901 -27.3831 14.7573 -2.85766 -26.3846 14.7573 
4.97478 -24.221 14.7573 12.8072 -23.2851 14.7573 20.6397 -24.8884 14.7573 
28.4721 -26.5032 14.7573 36.3045 -27.0516 14.7573 44.137 -25.2266 14.7573 
-44.2553 -23.0125 14.7573 -49.8523 -19.4926 14.7573 -42.0198 -23.0125 15.6699 
-34.1874 -23.0125 17.4299 -26.355 -23.0125 17.5419 -18.5225 -23.0125 16.6618 
[...]
POINT_DATA 522
SCALARS ImageScalars float
LOOKUP_TABLE default
0 0 0 0 0 0 0 0 0 
0 0 0 0 0 0 0 0 0 
0 0 0 0 0 0 0 0 0 
0 0 0 0 0 0 0 0 0 
0 0 0 0 0 0 0 0 0 
0 0 0 0 0 0 0 0 0 
0 0 0 0 0 0 0 0 0 
0 0 0 0 0 0 0 0 0 
0 0 0 0 0 0 0 0 0 
0 0 0 0 0 0 0 0 0 
0 0 0 0 0 0 0 0 0 
0 0 0 0 0 0 0 0 0 
0 0 0 0 0 0 0 0 0 
0 0 0 0 0 0 0 0 0 
0 0 0 0 0 0 0 0 0 
0 0 0 0 0 0 0 0 0 
0 0 0 0 0 0 0 0 0 
0 0 0 0 0 0 0 0 0 
0 0 0 0 0 0 0 0 0 
0 0 0 0 0 0 0 0 0 
0 0 0 0 0 0 0 0 0 
0 0 0 0 0 0 0 0 0 
0 0 0 0 0 0 0 0 0 
0 0 0 0 0 0 0 0 0 
0 0 0 0 0 0 0 0 0 
0 0 0 0 0 0 0 0 0 
0 0 0 0 0 0 0 0 0 
0 0 0 0 0 0 0 0 0 
0 0 0 0 0 0 0 0 0 
0 0 0 0 0 0 0 0 0 
0 0 0 0 0 0 0 0 0 
0 0 0 0 0 0 0 0 0 
0 0 0 0 0 0 0 0 0 
0 0 0 0 0 0 0 0 0 
0 0 0 0 0 0 0 0 0 
0 0 0 0 0 0 0 0 0 
0 0 0 0 0 0 0 0 0 
0 0 0 0 0 0 0 0 0 
0 0 0 0 0 0 0 0 0 
0 0 0 0 0 0 0 0 0 
0 0 0 0 0 0 0 0 0 
0 0 0 0 0 0 0 0 0 
0 0 0 0 0 0 0 0 0 
0 0 0 0 0 0 0 0 0 
0 0 0 0 0 0 0 0 0 
0 0 0 0 0 0 0 0 0 
0 0 0 0 0 0 0 0 0 
0 0 0 0 0 0 0 0 0 
0 0 0 0 0 0 0 0 0 
0 0 0 0 0 0 0 0 0 
0 0 0 0 0 0 0 0 0 
0 0 0 0 0 0 0 0 0 
0 0 0 0 0 0 0 0 0 
0 0 0 0 0 0 0 0 0 
0 0 0 0 0 0 0 0 0 
0 0 0 0 0 0 0 0 0 
0 0 0 0 0 0 0 0 0 
0 0 0 0 0 0 0 0 0 

NORMALS Normals float
-0.0714339 -0.639617 -0.765367 -0.0486303 -0.626883 -0.777594 -0.0746037 -0.585287 -0.807387 
-0.041992 -0.526175 -0.849339 -0.0243385 -0.398111 -0.917014 0.0270211 -0.327478 -0.944472 
0.120555 -0.381467 -0.916488 0.211547 -0.438774 -0.873341 -0.239137 -0.392566 -0.888091 
-0.0788293 -0.322032 -0.943441 0.0161957 -0.210966 -0.977359 -0.0172012 -0.167747 -0.98568 
-0.0363248 -0.132431 -0.990526 0.0365796 -0.176628 -0.983598 0.095098 -0.0634775 -0.993442 
0.0490932 0.0250092 -0.998481 0.0201349 -0.0116474 -0.999729 0.08411 -0.103526 -0.991064 
0.232548 -0.205838 -0.950554 -0.398226 -0.268412 -0.877138 -0.122608 -0.193484 -0.973412 
0.0230256 -0.0890594 -0.99576 0.0812336 -0.0306253 -0.996224 0.0398256 0.0626989 -0.997238 
-0.0819859 0.0379511 -0.995911 0.0297767 -0.0187712 -0.99938 0.208133 0.0219578 -0.977854 
0.0768636 0.0619776 -0.995113 -0.0186608 0.08518 -0.996191 0.0157472 0.0447648 -0.998873 
0.104321 -0.018118 -0.994379 0.277456 -0.144135 -0.949865 -0.608427 -0.128209 -0.783185 
-0.324641 -0.0646233 -0.943627 -0.0613056 -0.0279201 -0.997728 0.0884167 0.0106061 -0.996027 
0.169205 0.0344842 -0.984977 0.0586688 0.0758535 -0.995391 -0.115055 -0.0824675 -0.98993 
0.0263796 0.11976 -0.992452 0.156128 -0.050908 -0.986424 0.128388 -0.238103 -0.962717 
-0.00189445 0.0301406 -0.999544 -0.0250519 0.0278983 -0.999297 0.0487721 -0.00430925 -0.998801 
0.201523 -0.0333755 -0.978915 -0.546449 0.0928529 -0.832329 -0.281971 0.115512 -0.952444 
-0.0447743 0.120582 -0.991693 0.0847739 0.109185 -0.9904 0.149533 0.0707551 -0.986222 
-0.0614277 -0.021422 -0.997882 -0.0677262 -0.149519 -0.986437 0.0731432 0.0551821 -0.995794 
-0.213385 -0.0806867 -0.973631 0.241053 -0.17579 -0.954459 0.229002 -0.0387967 -0.972652 
-0.0151963 -0.0117033 -0.999816 0.0446559 -0.00664802 -0.99898 0.194445 -0.00701959 -0.980888 
-0.301947 0.25149 -0.919555 -0.0796046 0.218914 -0.972492 0.0365478 0.148385 -0.988254 
0.0392535 0.0879601 -0.99535 -0.155987 -0.00220569 -0.987757 -0.0515378 0.158183 -0.986064 
0.100064 0.0487668 -0.993785 -0.0572234 0.180479 -0.981913 0.172832 0.334776 -0.926312 
0.144951 0.00638186 -0.989418 0.00400137 -0.00707846 -0.999967 0.0533849 0.0189551 -0.998394 
0.197062 0.0354547 -0.97975 -0.396288 0.424852 -0.813914 -0.15627 0.344033 -0.925862 
-0.0452437 0.247176 -0.967914 -0.0026124 0.16418 -0.986427 -0.0396191 0.14 -0.989359 
0.0128882 0.283699 -0.958827 0.0889241 0.172886 -0.980919 0.0578437 0.164774 -0.984634 
0.0146609 0.157979 -0.987334 -0.026217 0.0572694 -0.998014 -0.00137838 0.0464927 -0.998918 
0.086887 0.0591094 -0.994463 0.253555 0.162218 -0.953622 -0.169618 0.457478 -0.872894 
-0.0633712 0.380146 -0.922753 -0.0439227 0.315429 -0.947932 -0.00894669 0.327112 -0.944943 
-0.0111771 0.23584 -0.971728 -0.0402089 0.134213 -0.990136 0.0158743 0.0805957 -0.99662 
0.0274824 0.0883008 -0.995715 0.00796756 0.176911 -0.984195 0.176058 0.280176 -0.943666 
-0.0380871 0.451252 -0.891583 0.0775596 0.412349 -0.907718 -0.0720276 -0.699462 -0.71103 
-0.0515146 -0.69292 -0.719172 -0.0824351 -0.711284 -0.698054 -0.0816098 -0.70035 -0.709119 
-0.0775508 -0.647111 -0.758441 0.0294355 -0.633941 -0.772821 0.0245581 -0.991466 -0.128034 
0.133451 -0.575417 -0.806899 0.22131 -0.520316 -0.824799 -0.31372 -0.632066 -0.708571 
-0.374342 -0.847572 -0.376151 -0.152468 -0.671414 -0.725228 -0.166147 -0.660992 -0.731768 
-0.172618 -0.686545 -0.7063 0.258107 -0.491437 -0.831788 0.298154 -0.41512 -0.859523 
0.363364 -0.648644 -0.668751 0.471696 -0.775332 -0.419956 -0.492555 -0.53023 -0.690106 
-0.495233 -0.527768 -0.690076 -0.497978 -0.534043 -0.68324 0.355633 -0.281944 -0.891085 
0.336645 -0.210887 -0.917713 0.43307 -0.354305 -0.828805 0.617723 -0.476631 -0.625492 
-0.565836 -0.320249 -0.759784 -0.621587 -0.179785 -0.762435 -0.698095 -0.377473 -0.608422 
0.319107 -0.166699 -0.932943 0.522796 -0.263981 -0.810555 -0.629776 -0.132272 -0.765432 
0.322996 -0.0758735 -0.943354 0.421701 -0.10564 -0.90056 0.663906 -0.152696 -0.732061 
-0.588951 0.0833757 -0.803857 -0.541743 0.184872 -0.819962 0.318888 -0.00937919 -0.947746 
0.412905 -0.0110555 -0.910707 0.681098 -0.0144289 -0.73205 -0.458848 0.292573 -0.838963 
-0.556424 0.321211 -0.7663 0.332634 0.0670091 -0.940672 0.415139 0.071564 -0.906939 
0.687814 0.132159 -0.713755 -0.409245 0.428622 -0.805482 -0.638061 0.539654 -0.549228 
-0.400573 0.435332 -0.806243 -0.224699 0.457115 -0.860556 0.292334 0.178848 -0.939444 
0.293535 0.228657 -0.928199 0.440328 0.242412 -0.864493 -0.477853 0.705856 -0.522899 
-0.179115 0.465407 -0.866784 -0.313244 0.603443 -0.733304 -0.171607 0.466789 -0.867559 
-0.0787797 0.439926 -0.894572 -0.0605739 0.418269 -0.906301 -0.0325857 0.443585 -0.89564 
-0.0731451 0.379667 -0.922227 -0.0885088 0.429954 -0.898502 0.125792 0.371459 -0.919888 
0.265997 0.31583 -0.910767 0.200786 0.380608 -0.902675 0.362894 0.365346 -0.857222 
0.577154 0.537705 -0.614627 -0.27081 0.839297 -0.471427 -0.174091 0.801987 -0.57141 
-0.0983572 0.731173 -0.675064 -0.0823704 0.700439 -0.708943 -0.140706 0.589458 -0.79545 
-0.0727291 0.449516 -0.890306 -0.0922209 0.45339 -0.886529 -0.0380818 0.463667 -0.885191 
0.116837 0.44459 -0.888082 0.079013 0.451735 -0.888646 0.204619 0.569031 -0.796451 
0.275854 0.674717 -0.684589 0.444088 0.767073 -0.463016 0.0237396 -0.999642 -0.0123195 
-0.375954 -0.902331 -0.210849 -0.203232 -0.954908 -0.216441 -0.0656243 -0.973814 -0.217669 
-0.0439834 -0.977726 -0.205226 -0.0745365 -0.983874 -0.16259 -0.13995 -0.98566 -0.0942752 
-0.0915372 -0.995667 -0.0163806 -0.119899 -0.992599 -0.019285 0.0823318 -0.995717 -0.0420538 
0.0131003 -0.99701 0.0761587 0.133537 -0.988233 -0.0745813 0.220466 -0.966476 -0.131599 
0.350772 -0.895171 -0.275006 0.470122 -0.785411 -0.402636 -0.442465 -0.866996 -0.229221 
-0.567431 -0.776646 -0.273575 0.477893 -0.779065 -0.405802 0.633135 -0.545216 -0.549436 
-0.705163 -0.642813 -0.299225 -0.752689 -0.577275 -0.316564 0.662019 -0.494913 -0.562843 
-0.840385 -0.424009 -0.337593 0.714137 -0.326335 -0.619285 0.710032 -0.238493 -0.662552 
0.799236 -0.382018 -0.463988 -0.90217 -0.19582 -0.384373 0.69692 -0.171585 -0.696319 
-0.902708 0.0434038 -0.428058 -0.94313 0.0320517 -0.330876 0.720529 -0.00752617 -0.693384 
-0.855766 0.281715 -0.433936 0.737744 0.158618 -0.656181 0.764855 0.236826 -0.599091 
-0.676241 0.539072 -0.502095 -0.643129 0.57135 -0.509847 0.774558 0.31126 -0.550615 
0.837841 0.349358 -0.41949 -0.508085 0.70823 -0.490164 -0.485714 0.726182 -0.486561 
-0.3629 0.798718 -0.479951 0.634794 0.56942 -0.522299 0.598876 0.631374 -0.492661 
-0.280049 0.844436 -0.456619 -0.272613 0.845888 -0.458428 -0.169637 0.882855 -0.437938 
-0.115936 0.905708 -0.407739 -0.109804 0.908897 -0.402306 -0.145157 0.930791 -0.335496 
-0.126886 0.963641 -0.235151 -0.00487409 0.979437 -0.201694 0.104178 0.965481 -0.238732 
0.165767 0.943486 -0.286975 0.275407 0.886958 -0.370751 0.462508 0.772317 -0.435446 
0.448457 0.778602 -0.438936 -0.345478 -0.934508 0.0856745 -0.196133 -0.975008 0.104361 
-0.0646274 -0.994223 0.085691 0.00119977 -0.99608 0.0884472 0.00283109 -0.99367 0.112307 
-0.00835805 -0.971901 0.23524 -0.0155033 -0.914551 0.404174 -0.0230417 -0.899022 0.437297 
0.0223593 -0.929924 0.367071 0.0972354 -0.967703 0.232584 0.189938 -0.969961 0.151983 
0.38459 -0.922762 0.02452 -0.461369 -0.883062 0.0856745 -0.557245 -0.825662 0.0880991 
-0.347057 -0.873264 0.341996 0.468804 -0.883296 0.00316173 0.290663 -0.887744 0.356966 
0.587309 -0.806784 -0.0645545 -0.73658 -0.674183 0.0541075 -0.739172 -0.671367 0.0537614 
0.729378 -0.663364 -0.1672 0.803334 -0.556368 -0.212388 -0.885821 -0.462274 0.040288 
0.879664 -0.409728 -0.241483 -0.966604 -0.255171 -0.0237555 -0.969783 -0.242718 -0.0246936 
0.959676 -0.162399 -0.229452 -0.999533 -0.00348339 -0.0303673 -0.959848 0.266596 -0.0872869 
0.972822 0.0159802 -0.231003 -0.957479 0.274543 -0.0886567 0.961778 0.182211 -0.204409 
-0.846423 0.523484 -0.0976344 -0.715803 0.68481 -0.136606 0.901147 0.392762 -0.183497 
0.826171 0.543004 -0.150292 -0.650588 0.746864 -0.137582 -0.525613 0.840499 -0.1315 
-0.35315 0.929144 -0.109435 0.756278 0.644962 -0.109852 0.588729 0.807638 -0.0334574 
-0.348849 0.930899 -0.108314 -0.254302 0.962136 -0.0981037 -0.129378 0.989811 -0.0594667 
-0.0732973 0.996629 -0.0368568 -0.0320012 0.999269 -0.0208985 -0.0220259 0.998999 0.0389348 
-0.026501 0.989963 0.13882 -0.0293319 0.975324 0.218823 0.0232879 0.980543 0.19492 
0.0955186 0.989078 0.112257 0.19036 0.976044 0.105366 0.480953 0.87665 0.0130041 
0.387907 0.92097 0.0366545 0.329091 0.865622 0.377357 -0.204936 -0.888012 0.411626 
-0.090553 -0.909619 0.405454 -0.0198363 -0.925687 0.377771 0.0794151 -0.9246 0.372569 
0.155796 -0.883817 0.44113 0.130344 -0.823077 0.55277 -0.00983929 -0.780193 0.625461 
-0.101006 -0.818482 0.565584 -0.00333275 -0.868286 0.496052 0.126187 -0.911639 0.391141 
-0.531005 -0.748145 0.397885 -0.337072 -0.867691 0.36537 -0.345291 -0.865362 0.363213 
-0.175677 -0.803195 0.569224 -0.0868711 -0.763038 0.640489 -0.0393396 -0.691199 0.721593 
0.0749278 -0.689535 0.720366 0.179464 -0.772906 0.608612 0.143946 -0.799211 0.583559 
-0.00944602 -0.776452 0.630106 -0.114235 -0.796988 0.593094 -0.0497475 -0.808202 0.5868 
0.254012 -0.883884 0.392717 0.116026 -0.87425 0.471408 0.278775 -0.875836 0.39395 
0.494363 -0.82131 0.284703 -0.621311 -0.679174 0.390762 -0.724567 -0.564795 0.394981 
-0.478543 -0.662248 0.576562 0.658785 -0.707721 0.255212 0.473482 -0.65879 0.584645 
0.76918 -0.598384 0.224273 -0.783656 -0.478826 0.395739 -0.717455 -0.445762 0.535308 
0.873164 -0.434641 0.220618 0.743153 -0.438639 0.50529 -0.898948 -0.261185 0.351675 
-0.948802 -0.0349483 0.313934 0.96619 -0.19643 0.167008 -0.949402 -0.0260331 0.312981 
-0.950114 -0.0123502 0.311658 -0.947748 -0.0264338 0.317923 0.981951 0.0364973 0.185582 
-0.930234 0.213157 0.298713 0.945439 0.238028 0.222458 -0.822882 0.484355 0.297096 
-0.718982 0.63549 0.281455 -0.700732 0.441576 0.560344 0.84709 0.449655 0.283283 
0.781031 0.549295 0.297097 0.76552 0.441679 0.467865 -0.631537 0.72973 0.262019 
-0.518467 0.814868 0.259195 -0.485426 0.681818 0.547253 -0.339336 0.910778 0.235233 
0.318163 0.845372 0.42909 0.648877 0.680698 0.340012 0.519513 0.774773 0.360324 
0.515821 0.658756 0.547695 -0.30921 0.921184 0.236241 -0.222488 0.93836 0.264535 
-0.211084 0.869184 0.447171 -0.108283 0.955753 0.273517 -0.117483 0.82075 0.559078 
-0.0771196 0.961241 0.264703 -0.0327646 0.970668 0.238179 0.0187217 0.975953 0.217174 
0.0516744 0.971739 0.230334 0.0531787 0.956232 0.287738 0.0179459 0.922991 0.384403 
0.110556 0.820525 0.560817 0.0811122 0.908998 0.408831 0.0860213 0.802808 0.59 
0.294756 0.857919 0.420825 0.191685 0.900803 0.38963 0.200218 0.847844 0.490992 
-0.277865 -0.593258 0.755537 -0.122976 -0.619777 0.775083 -0.0220726 -0.589421 0.807524 
0.00238426 -0.491382 0.870941 0.0371699 -0.463262 0.885441 0.112021 -0.504123 0.856336 
0.115789 -0.5405 0.833338 -0.0341938 -0.526609 0.84942 -0.139909 -0.561982 0.815231 
-0.0944743 -0.621668 0.777563 0.0646392 -0.679116 0.731179 0.226508 -0.671452 0.705583 
-0.316895 -0.578535 0.751581 -0.439382 -0.506001 0.742231 -0.269768 -0.557435 0.78517 
-0.0968825 -0.495631 0.863113 0.0465234 -0.437406 0.89806 0.0610828 -0.343639 0.937113 
0.000949346 -0.271275 0.962502 0.0505973 -0.348413 0.935974 0.10187 -0.498585 0.860834 
-0.0348263 -0.5156 0.856122 -0.140513 -0.478483 0.866782 -0.103824 -0.482556 0.86969 
0.0347687 -0.512421 0.85803 0.357965 -0.622437 0.696013 0.207415 -0.605398 0.768422 
0.446963 -0.556911 0.700052 -0.554001 -0.391543 0.734695 -0.603802 -0.277573 0.747246 
-0.412154 -0.376431 0.829716 -0.20594 -0.305241 0.92974 -0.0446498 -0.267779 0.962445 
0.113451 -0.240294 0.964048 0.150597 -0.274195 0.949809 0.0555893 -0.294825 0.953933 
-0.0541475 -0.157631 0.986012 0.0259167 -0.315811 0.948468 0.0147397 -0.270979 0.962472 
-0.135903 -0.177751 0.974646 -0.152298 -0.194778 0.968952 -0.0927098 -0.212441 0.972766 
0.14546 -0.273745 0.950739 0.603617 -0.407032 0.685544 0.410031 -0.345656 0.844036 
0.674226 -0.314013 0.668443 -0.606187 -0.267171 0.749104 -0.596274 -0.263023 0.75847 
-0.352724 -0.209696 0.911928 -0.133211 -0.169726 0.976447 -0.00835188 -0.0844887 0.996389 
0.0486044 -0.0974513 0.994053 -0.00347439 -0.186189 0.982508 0.13279 -0.373436 0.918103 
0.0321936 -0.0874468 0.995649 -0.0436029 -0.197418 0.979349 0.125454 -0.261539 0.957005 
-0.0678809 -0.0822953 0.994294 -0.170934 -0.0743534 0.982473 -0.0769522 -0.074552 0.994244 
0.064991 -0.043143 0.996953 0.26581 -0.17187 0.948581 0.700695 -0.200788 0.684625 
0.630359 -0.172345 0.756931 -0.658861 -0.0420339 0.751089 -0.546104 -0.0345132 0.837006 
-0.319982 -0.0286123 0.946991 -0.075678 -0.0307561 0.996658 0.0267841 -0.0118927 0.99957 
0.0192435 -0.0188611 0.999637 -0.118521 -0.0654753 0.99079 0.151609 -0.188436 0.970313 
-0.148896 -0.0579016 0.987156 0.159227 -0.0827363 0.983769 0.0268277 -0.0765856 0.996702 
-0.151957 -0.0351014 0.987764 -0.0682126 -0.00945094 0.997626 0.0616618 0.0181738 0.997932 
0.34827 0.0422258 0.936443 0.701519 0.0574077 0.710334 0.628767 0.0602643 0.775255 
-0.622488 0.218441 0.751526 -0.605683 0.277656 0.745691 -0.58307 0.205114 0.786103 
-0.34545 0.169621 0.92298 -0.113973 0.132382 0.984624 0.00294912 0.0757209 0.997125 
-0.00305075 0.0409242 0.999158 -0.125252 0.019891 0.991926 0.131349 -0.134896 0.982115 
0.0533212 0.0260808 0.998237 0.101595 0.0583635 0.993112 -0.0170057 -0.0532778 0.998435 
-0.106018 0.00148427 0.994363 -0.0241012 0.0588518 0.997976 0.116775 0.0795692 0.989966 
0.323767 0.202237 0.92427 0.673596 0.250447 0.695374 0.668583 0.281116 0.688455 
0.652379 0.242514 0.718045 -0.554491 0.394067 0.732974 -0.447201 0.541852 0.711623 
-0.387325 0.364519 0.846821 -0.197178 0.265454 0.943745 -0.0656819 0.188104 0.97995 
-0.032999 0.139627 0.989654 -0.0717739 0.125367 0.989511 -0.0157373 0.213642 0.976785 
0.0573017 0.0847688 0.994752 0.0657746 0.076306 0.994913 0.0591185 0.0531483 0.996835 
-0.0124852 0.0514339 0.998598 -0.0379663 0.126976 0.991179 0.0138941 0.243244 0.969866 
0.202904 0.282366 0.937603 0.585727 0.411314 0.698387 0.472952 0.528875 0.704704 
0.428809 0.368159 0.824974 -0.397739 0.602607 0.691859 -0.323571 0.655249 0.682606 
-0.298166 0.536872 0.789218 -0.188679 0.720935 0.666823 -0.136922 0.469249 0.872386 
-0.109487 0.741384 0.662089 -0.0682199 0.405282 0.911643 -0.0475946 0.364536 0.929972 
-0.0271623 0.371654 0.927974 -0.018785 0.29796 0.954394 0.0228442 0.263033 0.964516 
0.074884 0.275842 0.958282 0.128444 0.751874 0.646674 0.0737256 0.343945 0.936091 
0.0886914 0.695016 0.713503 0.0897419 0.42292 0.901712 0.170002 0.678042 0.715093 
0.13366 0.487533 0.862813 0.384397 0.606647 0.695858 0.303715 0.646076 0.700245 
0.275959 0.581375 0.765408 -0.0970116 0.766318 0.635095 -0.0954635 0.766942 0.634576 
-0.0952334 0.763547 0.638692 -0.0761283 0.761582 0.643582 -0.0757993 0.727195 0.682233 
-0.0379299 0.800641 0.597943 -0.0469843 0.725312 0.686815 0.0461905 0.82516 0.563008 
0.0407618 0.743992 0.666944 0.132151 0.792612 0.595233 0.133553 0.806191 0.576385 
0.132362 0.774723 0.618291 0.132498 -0.278932 0.951126 -0.0416598 -0.0875242 0.995291 
0.128163 -0.151846 0.98006 0.121048 -0.12444 0.984816 -0.094884 0.033831 0.994913 
0.0918565 -0.0505894 0.994486 -0.0122206 0.200525 0.979612 0.0180796 0.0835077 0.996343 

