# vtk DataFile Version 4.2
vtk output
ASCII
DATASET POLYDATA
POINTS 554 float
-40.0695 -16.1216 -18.6366 29.5731 -16.1216 -18.9025 -32.3315 -8.38354 -18.7318 
-32.3315 -39.3358 -12.1634 -24.5934 -39.3358 -14.0944 -16.8553 -39.3358 -14.2214 
-9.11725 -39.3358 -13.7294 -1.37918 -39.3358 -11.1477 -40.0695 -31.5978 -14.3983 
-32.3315 -31.5978 -16.0518 -24.5934 -31.5978 -16.9549 -16.8553 -31.5978 -16.934 
-9.11725 -31.5978 -16.3806 -1.37918 -31.5978 -15.1022 6.35889 -31.5978 -12.317 
37.3112 -31.5978 -11.3992 -47.8076 -23.8597 -14.1628 -40.0695 -16.7315 -18.493 
-40.0695 -23.8597 -16.52 -32.3315 -23.8597 -17.7025 -24.5934 -23.8597 -18.226 
-16.8553 -23.8597 -17.6283 -9.11725 -23.8597 -17.1859 -1.37918 -23.8597 -16.6922 
6.35889 -23.8597 -15.6774 14.097 -23.8597 -14.0266 21.835 -23.8597 -14.9634 
29.5731 -17.3458 -18.493 29.5731 -23.8597 -15.7798 37.3112 -23.8597 -16.0978 
45.0492 -23.8597 -15.1591 52.7873 -23.8597 -12.199 -55.5457 -16.1216 -12.9823 
-40.5366 -16.1216 -18.493 -47.8076 -16.1216 -16.0947 -35.4915 -16.1216 -18.493 
-40.0695 -13.9797 -18.493 -32.3315 -13.7007 -18.493 -32.3315 -16.1216 -18.3837 
-24.5934 -16.1216 -17.9159 -16.8553 -16.1216 -17.1231 -9.11725 -16.1216 -16.4425 
-1.37918 -16.1216 -17.2253 6.35889 -16.1216 -17.969 14.097 -16.1216 -16.7618 
27.0036 -16.1216 -18.493 21.835 -16.1216 -17.6246 34.3514 -16.1216 -18.493 
29.5731 -11.9658 -18.493 37.3112 -16.1216 -18.2299 45.0492 -16.1216 -17.2105 
52.7873 -16.1216 -13.9115 -55.5457 -8.38354 -13.5335 -47.8076 -8.38354 -16.7474 
-35.1729 -8.38354 -18.493 -40.0695 -8.38354 -18.0815 -30.4064 -8.38354 -18.493 
-32.3315 -6.66284 -18.493 -24.5934 -8.38354 -17.7167 -16.8553 -8.38354 -16.4428 
-9.11725 -8.38354 -17.1451 -1.37918 -8.38354 -17.34 6.35889 -8.38354 -17.9156 
14.097 -8.38354 -16.5441 21.835 -8.38354 -17.3795 29.5731 -8.38354 -18.128 
37.3112 -8.38354 -18.2245 45.0492 -8.38354 -17.3745 52.7873 -8.38354 -15.3937 
-55.5457 -0.645473 -13.3972 -47.8076 -0.645473 -16.5293 -40.0695 -0.645473 -17.7483 
-32.3315 -0.645473 -17.6572 -24.5934 -0.645473 -16.6691 -16.8553 -0.645473 -15.8939 
-9.11725 -0.645473 -17.6982 -1.37918 -0.645473 -11.2952 6.35889 -0.645473 -16.6409 
14.097 -0.645473 -15.8121 21.835 -0.645473 -16.3644 29.5731 -0.645473 -17.1846 
37.3112 -0.645473 -17.2744 45.0492 -0.645473 -16.2209 52.7873 -0.645473 -13.8195 
-55.5457 7.0926 -12.3674 -47.8076 7.0926 -15.3204 -40.0695 7.0926 -17.3089 
-32.3315 7.0926 -16.6922 -24.5934 7.0926 -15.8753 -16.8553 7.0926 -14.4846 
-9.11725 7.0926 -15.2043 -1.37918 7.0926 -14.2221 6.35889 7.0926 -16.2202 
14.097 7.0926 -16.8477 21.835 7.0926 -16.0982 29.5731 7.0926 -16.3577 
37.3112 7.0926 -16.2817 45.0492 7.0926 -14.8146 52.7873 7.0926 -12.1989 
-47.8076 14.8307 -13.503 -40.0695 14.8307 -15.2895 -32.3315 14.8307 -15.7573 
-24.5934 14.8307 -15.4675 -16.8553 14.8307 -14.0731 -9.11725 14.8307 -13.4207 
-1.37918 14.8307 -14.2944 6.35889 14.8307 -13.8468 14.097 14.8307 -15.0676 
21.835 14.8307 -15.1893 29.5731 14.8307 -14.8138 37.3112 14.8307 -13.8809 
45.0492 14.8307 -12.2434 -40.0695 22.5687 -14.3011 -32.3315 22.5687 -15.1838 
-24.5934 22.5687 -14.8572 -16.8553 22.5687 -14.6083 -9.11725 22.5687 -14.0718 
-1.37918 22.5687 -13.9688 6.35889 22.5687 -13.0014 14.097 22.5687 -13.0322 
21.835 22.5687 -13.3905 29.5731 22.5687 -12.62 37.3112 22.5687 -11.0954 
-40.0695 30.3068 -12.0547 -32.3315 30.3068 -14.3812 -24.5934 30.3068 -14.4477 
-16.8553 30.3068 -15.2513 -9.11725 30.3068 -14.468 -1.37918 30.3068 -13.8453 
6.35889 30.3068 -13.051 14.097 30.3068 -11.5931 21.835 30.3068 -11.4138 
-32.3315 38.0449 -11.0272 -24.5934 38.0449 -13.5295 -16.8553 38.0449 -13.8986 
-9.11725 38.0449 -13.2984 -1.37918 38.0449 -12.6115 6.35889 38.0449 -11.7809 
-32.3315 -40.6199 -10.755 -24.5934 -43.317 -10.755 -16.8553 -43.7319 -10.755 
-9.11725 -43.3103 -10.755 -1.37918 -39.8109 -10.755 -35.0163 -39.3358 -10.755 
-40.0695 -36.2228 -10.755 -40.0695 -39.3358 -4.4371 -0.660524 -39.3358 -10.755 
6.35889 -33.8705 -10.755 6.35889 -39.3358 -5.94641 37.3112 -32.105 -10.755 
-46.4191 -31.5978 -10.755 -47.8076 -30.1868 -10.755 -47.8076 -31.5978 -9.17766 
9.68829 -31.5978 -10.755 14.097 -28.6909 -10.755 14.097 -31.5978 -8.4169 
21.835 -28.838 -10.755 21.835 -31.5978 -7.69941 34.0432 -31.5978 -10.755 
29.5731 -30.5893 -10.755 29.5731 -31.5978 -9.72272 40.255 -31.5978 -10.755 
45.0492 -30.4167 -10.755 45.0492 -31.5978 -9.25923 52.7873 -26.0356 -10.755 
-53.7336 -23.8597 -10.755 -55.5457 -21.7118 -10.755 -55.5457 -23.8597 -8.10474 
54.6972 -23.8597 -10.755 -58.0022 -16.1216 -10.755 57.503 -16.1216 -10.755 
60.5254 -16.1216 -7.9209 -58.743 -8.38354 -10.755 60.4733 -8.38354 -10.755 
60.5254 -8.38354 -10.7129 -58.7196 -0.645473 -10.755 -63.2837 -0.645473 -3.60695 
58.078 -0.645473 -10.755 60.5254 -0.645473 -9.02215 -57.2993 7.0926 -10.755 
-55.5457 11.2873 -10.755 55.27 7.0926 -10.755 52.7873 11.5222 -10.755 
60.5254 7.0926 -6.78859 -52.6267 14.8307 -10.755 -55.5457 14.8307 -7.74056 
-47.8076 22.5586 -10.755 49.4595 14.8307 -10.755 45.0492 18.9 -10.755 
52.7873 14.8307 -9.33756 -47.8018 22.5687 -10.755 -47.8076 22.5687 -10.7514 
29.5731 27.3945 -10.755 38.9011 22.5687 -10.755 37.3112 23.3791 -10.755 
45.0492 22.5687 -8.90815 -42.9252 30.3068 -10.755 -47.8076 30.3068 -7.00675 
-40.0695 33.9521 -10.755 14.097 33.5121 -10.755 24.8272 30.3068 -10.755 
21.835 32.977 -10.755 29.5731 30.3068 -9.56993 37.3112 30.3068 -6.61647 
-33.5633 38.0449 -10.755 -40.0695 38.0449 -8.24961 -32.3315 38.5027 -10.755 
-24.5934 43.2696 -10.755 -16.8553 44.0287 -10.755 -9.11725 44.2276 -10.755 
-1.37918 42.5274 -10.755 10.1381 38.0449 -10.755 6.35889 41.5623 -10.755 
14.097 38.0449 -9.59836 21.835 38.0449 -8.86159 29.5731 38.0449 -5.56417 
-24.5934 45.7829 -8.26981 -16.8553 45.7829 -9.29144 -9.11725 45.7829 -10.0078 
-1.37918 45.7829 -9.106 6.35889 45.7829 -8.45273 14.097 45.7829 -5.64916 
-40.0695 -39.7972 -3.01689 -32.3315 -43.7179 -3.01689 -24.5934 -46.1065 -3.01689 
-16.8553 -47.037 -3.01689 -9.11725 -47.0425 -3.01689 -1.37918 -45.01 -3.01689 
6.35889 -41.4993 -3.01689 -40.7371 -39.3358 -3.01689 -47.8076 -34.2882 -3.01689 
-40.0695 -39.3358 -1.22405 10.2692 -39.3358 -3.01689 14.097 -36.8656 -3.01689 
14.097 -39.3358 3.72727 21.835 -35.4868 -3.01689 29.5731 -36.516 -3.01689 
37.3112 -35.941 -3.01689 45.0492 -35.0622 -3.01689 -50.7568 -31.5978 -3.01689 
-55.5457 -26.1294 -3.01689 52.4381 -31.5978 -3.01689 52.7873 -31.3962 -3.01689 
52.7873 -31.5978 1.98747 -57.4193 -23.8597 -3.01689 60.0498 -23.8597 -3.01689 
60.5254 -23.0057 -3.01689 -61.5129 -16.1216 -3.01689 63.6167 -16.1216 -3.01689 
-63.2327 -8.38354 -3.01689 -63.2837 -7.06257 -3.01689 65.6011 -8.38354 -3.01689 
-63.5315 -0.645473 -3.01689 -63.2837 0.0892577 -3.01689 -63.2837 -0.645473 -1.29459 
64.9984 -0.645473 -3.01689 -60.8374 7.0926 -3.01689 63.5505 7.0926 -3.01689 
60.5254 12.7598 -3.01689 -57.808 14.8307 -3.01689 -55.5457 19.7941 -3.01689 
59.1256 14.8307 -3.01689 52.7873 22.267 -3.01689 60.5254 14.8307 1.9573 
-54.3134 22.5687 -3.01689 52.4366 22.5687 -3.01689 45.0492 28.5645 -3.01689 
52.7873 22.5687 -2.20346 -50.0302 30.3068 -3.01689 -47.8076 33.5098 -3.01689 
42.5323 30.3068 -3.01689 37.3112 34.0282 -3.01689 45.0492 30.3068 2.11214 
-43.7563 38.0449 -3.01689 -40.0695 41.0471 -3.01689 -32.3315 45.3611 -3.01689 
21.835 44.3695 -3.01689 33.1749 38.0449 -3.01689 29.5731 40.5131 -3.01689 
-31.217 45.7829 -3.01689 -24.5934 48.14 -3.01689 -24.5934 45.7829 4.31329 
-16.8553 50.3715 -3.01689 -9.11725 51.6137 -3.01689 -1.37918 51.3441 -3.01689 
6.35889 49.674 -3.01689 19.5119 45.7829 -3.01689 14.097 48.1762 -3.01689 
21.835 45.7829 2.05148 -32.3315 -41.5135 4.72118 -24.5934 -43.488 4.72118 
-16.8553 -45.236 4.72118 -9.11725 -45.5119 4.72118 -1.37918 -44.9075 4.72118 
6.35889 -42.79 4.72118 14.097 -39.6277 4.72118 -47.8076 -32.6503 4.72118 
-36.9561 -39.3358 4.72118 -40.0695 -37.3804 4.72118 -32.3315 -39.3358 7.60159 
-24.5934 -39.3358 9.38422 -16.8553 -39.3358 10.6386 -9.11725 -39.3358 11.6952 
-1.37918 -39.3358 12.4446 6.35889 -39.3358 10.7914 15.4828 -39.3358 4.72118 
14.097 -39.3358 5.34885 21.835 -38.0005 4.72118 29.5731 -37.6156 4.72118 
37.3112 -36.6402 4.72118 45.0492 -34.7807 4.72118 52.7873 -31.6862 4.72118 
-49.017 -31.5978 4.72118 -55.5457 -24.2274 4.72118 -47.8076 -31.5978 6.1778 
-40.0695 -31.5978 10.3983 45.0492 -31.5978 11.0306 52.8999 -31.5978 4.72118 
52.7873 -31.5978 4.89584 -55.8561 -23.8597 4.72118 -55.5457 -23.8597 5.19282 
-47.8076 -23.8597 11.6607 59.6408 -23.8597 4.72118 52.7873 -23.8597 10.7856 
60.5254 -22.6929 4.72118 -59.8998 -16.1216 4.72118 -55.5457 -16.1216 10.9394 
63.7813 -16.1216 4.72118 60.5254 -16.1216 9.88842 -61.9063 -8.38354 4.72118 
-55.5457 -8.38354 11.69 65.7031 -8.38354 4.72118 -62.0764 -0.645473 4.72118 
-55.5457 -0.645473 11.4859 65.8592 -0.645473 4.72118 -58.8882 7.0926 4.72118 
-55.5457 7.0926 9.95315 64.907 7.0926 4.72118 -56.3547 14.8307 4.72118 
-55.5457 16.5789 4.72118 -55.5457 14.8307 5.81472 -47.8076 14.8307 11.2983 
61.11 14.8307 4.72118 60.5254 15.6763 4.72118 60.5254 14.8307 5.88463 
-51.7709 22.5687 4.72118 -47.8076 22.5687 9.14022 -40.0695 22.5687 12.2607 
54.7737 22.5687 4.72118 52.7873 24.6788 4.72118 52.7873 22.5687 8.24725 
-47.9684 30.3068 4.72118 -47.8076 30.516 4.72118 -47.8076 30.3068 4.89145 
-40.0695 30.3068 10.3126 -32.3315 30.3068 11.5665 -24.5934 30.3068 12.4229 
37.3112 36.8005 4.72118 37.3112 30.3068 10.9301 45.9825 30.3068 4.72118 
45.0492 31.0005 4.72118 45.0492 30.3068 6.00122 -40.465 38.0449 4.72118 
-40.0695 38.3503 4.72118 -40.0695 38.0449 5.03027 -32.3315 41.0666 4.72118 
-32.3315 38.0449 7.40117 -24.5934 45.5698 4.72118 -24.5934 38.0449 9.49219 
-16.8553 38.0449 10.7635 -9.11725 38.0449 12.1426 21.835 38.0449 12.0544 
35.607 38.0449 4.72118 29.5731 42.0551 4.72118 29.5731 38.0449 8.76697 
-23.4213 45.7829 4.72118 -16.8553 46.7669 4.72118 -16.8553 45.7829 5.90311 
-9.11725 48.5996 4.72118 -9.11725 45.7829 7.30977 -1.37918 49.9914 4.72118 
-1.37918 45.7829 8.66761 6.35889 49.9145 4.72118 6.35889 45.7829 8.72481 
[...]
POINT_DATA 554
SCALARS ImageScalars float
LOOKUP_TABLE default
0 0 0 0 0 0 0 0 0 
0 0 0 0 0 0 0 0 0 
0 0 0 0 0 0 0 0 0 
0 0 0 0 0 0 0 0 0 
0 0 0 0 0 0 0 0 0 
0 0 0 0 0 0 0 0 0 
0 0 0 0 0 0 0 0 0 
0 0 0 0 0 0 0 0 0 
0 0 0 0 0 0 0 0 0 
0 0 0 0 0 0 0 0 0 
0 0 0 0 0 0 0 0 0 
0 0 0 0 0 0 0 0 0 
0 0 0 0 0 0 0 0 0 
0 0 0 0 0 0 0 0 0 
0 0 0 0 0 0 0 0 0 
0 0 0 0 0 0 0 0 0 
0 0 0 0 0 0 0 0 0 
0 0 0 0 0 0 0 0 0 
0 0 0 0 0 0 0 0 0 
0 0 0 0 0 0 0 0 0 
0 0 0 0 0 0 0 0 0 
0 0 0 0 0 0 0 0 0 
0 0 0 0 0 0 0 0 0 
0 0 0 0 0 0 0 0 0 
0 0 0 0 0 0 0 0 0 
0 0 0 0 0 0 0 0 0 
0 0 0 0 0 0 0 0 0 
0 0 0 0 0 0 0 0 0 
0 0 0 0 0 0 0 0 0 
0 0 0 0 0 0 0 0 0 
0 0 0 0 0 0 0 0 0 
0 0 0 0 0 0 0 0 0 
0 0 0 0 0 0 0 0 0 
0 0 0 0 0 0 0 0 0 
0 0 0 0 0 0 0 0 0 
0 0 0 0 0 0 0 0 0 
0 0 0 0 0 0 0 0 0 
0 0 0 0 0 0 0 0 0 
0 0 0 0 0 0 0 0 0 
0 0 0 0 0 0 0 0 0 
0 0 0 0 0 0 0 0 0 
0 0 0 0 0 0 0 0 0 
0 0 0 0 0 0 0 0 0 
0 0 0 0 0 0 0 0 0 
0 0 0 0 0 0 0 0 0 
0 0 0 0 0 0 0 0 0 
0 0 0 0 0 0 0 0 0 
0 0 0 0 0 0 0 0 0 
0 0 0 0 0 0 0 0 0 
0 0 0 0 0 0 0 0 0 
0 0 0 0 0 0 0 0 0 
0 0 0 0 0 0 0 0 0 
0 0 0 0 0 0 0 0 0 
0 0 0 0 0 0 0 0 0 
0 0 0 0 0 0 0 0 0 
0 0 0 0 0 0 0 0 0 
0 0 0 0 0 0 0 0 0 
0 0 0 0 0 0 0 0 0 
0 0 0 0 0 0 0 0 0 
0 0 0 0 0 0 0 0 0 
0 0 0 0 0 0 0 0 0 
0 0 0 0 0 
NORMALS Normals float
0.146071 0.0888117 0.98528 0.0377753 0.120785 0.99196 -0.0207848 -0.0473282 0.998663 
0.329553 0.668846 0.666363 0.0961642 0.551489 0.828621 -0.0241566 0.500061 0.865653 
-0.172221 0.492013 0.853384 -0.377452 0.572524 0.727837 0.350947 0.4526 0.81975 
0.144273 0.298516 0.943437 0.0502672 0.238593 0.969818 -0.0355727 0.195395 0.980079 
-0.11264 0.214998 0.970097 -0.237876 0.327095 0.914562 -0.379338 0.487746 0.786261 
-0.0149586 0.752939 0.65792 0.403679 0.365257 0.838827 0.147662 0.0981648 0.984154 
0.202618 0.233562 0.950997 0.0996882 0.133678 0.985998 -0.00182522 0.0650342 0.997881 
-0.0670735 0.0106728 0.997691 -0.0607288 0.000979563 0.998154 -0.085919 0.124437 0.988501 
-0.170044 0.345116 0.923027 -0.0342083 0.462882 0.885759 0.0991594 0.482924 0.87003 
0.0440876 0.168035 0.984795 0.0680476 0.460654 0.884967 -0.0424758 0.375878 0.925695 
-0.229043 0.408455 0.883574 -0.50077 0.387733 0.773881 0.591418 0.210731 0.778342 
0.157464 0.0901405 0.983402 0.329664 0.129658 0.935153 0.0334489 0.0792431 0.996294 
0.139885 0.0494949 0.98893 -0.0395291 0.0347237 0.998615 -0.0472198 0.070137 0.996419 
-0.080818 -0.0316073 0.996228 -0.0946754 -0.0761396 0.992592 0.00363439 -0.00659977 0.999972 
0.100253 0.0431945 0.994024 -0.0319082 0.120629 0.992185 -0.0216775 0.142351 0.989579 
0.0714892 0.127201 0.989297 0.135448 0.141249 0.980664 -0.0505884 0.119591 0.991534 
0.0471393 -0.00346326 0.998882 -0.104611 0.119369 0.987324 -0.246461 0.136905 0.959434 
-0.485816 0.183503 0.854581 0.532762 0.0284202 0.845788 0.255314 0.0305114 0.966377 
0.0327933 -0.0522688 0.998094 0.11996 -0.0560143 0.991197 -0.0537824 -0.0571518 0.996916 
-0.0321879 -0.0682749 0.997147 -0.147336 -0.0820612 0.985676 -0.034471 -0.0800716 0.996193 
0.060132 0.081056 0.994894 0.0497362 -0.234661 0.970804 -0.0545798 -0.0692909 0.996102 
-0.0320634 -0.0618145 0.997572 0.10031 -0.0803723 0.991705 0.0541266 -0.109474 0.992515 
-0.045986 -0.0611619 0.997068 -0.1662 -0.0636875 0.984033 -0.389839 -0.0101985 0.920827 
0.564232 -0.0783614 0.821889 0.245067 -0.0970077 0.964641 0.0681639 -0.0467869 0.996576 
-0.0717257 -0.131493 0.988719 -0.116073 -0.116214 0.986419 0.0527252 -0.121226 0.991224 
-0.139347 -0.0909109 0.986062 -0.143892 -0.285182 0.947611 0.179829 -0.123306 0.975939 
-0.00531317 0.0184343 0.999816 0.0878729 -0.082304 0.992726 0.0583766 -0.113216 0.991854 
-0.0595504 -0.121778 0.990769 -0.203435 -0.160589 0.965829 -0.401123 -0.178279 0.898508 
0.598383 -0.236204 0.765602 0.294724 -0.163933 0.941416 0.0937986 -0.154109 0.983591 
-0.089313 -0.123875 0.98827 -0.136839 -0.0769491 0.9876 -0.0565854 -0.119977 0.991163 
-0.0106836 -0.283832 0.958814 0.0833211 0.139202 0.986752 0.16161 -0.175431 0.971137 
-0.0121091 -0.0461449 0.998861 -0.0295603 -0.0742436 0.996802 0.0121087 -0.150791 0.988491 
-0.0981311 -0.20733 0.973337 -0.235792 -0.225288 0.945329 -0.428402 -0.248558 0.86873 
0.373834 -0.278047 0.884838 0.123257 -0.188163 0.974373 0.0102689 -0.0965031 0.99528 
-0.109514 -0.0662085 0.991778 -0.129127 0.00941526 0.991583 0.014678 -0.0434609 0.998947 
0.0279099 -0.0173511 0.99946 0.0503709 -0.204277 0.977616 0.0812308 -0.244518 0.966236 
-0.0160974 -0.175034 0.984431 -0.0795445 -0.229259 0.97011 -0.147363 -0.300107 0.942454 
-0.257082 -0.340155 0.904546 0.233501 -0.172864 0.956867 0.04064 -0.0980291 0.994353 
-0.0366026 -0.0648533 0.997223 -0.0505528 0.0741358 0.995966 -0.041137 0.0652509 0.997021 
-0.0699744 -0.0288933 0.99713 -0.0600079 -0.0462689 0.997125 0.0250597 -0.216812 0.975892 
-0.0235292 -0.240527 0.970357 -0.133696 -0.311712 0.940724 -0.192695 -0.362355 0.911903 
0.386522 -0.33056 0.861006 0.117548 -0.214721 0.969576 0.0563157 -0.0757577 0.995535 
-0.000123069 -0.0603373 0.998178 -0.0884662 -0.0465491 0.994991 -0.0893071 -0.0841132 0.992446 
-0.142929 -0.0846186 0.986109 -0.103062 -0.213155 0.971567 -0.118907 -0.259777 0.95832 
0.227276 -0.501751 0.834621 0.162813 -0.308936 0.937043 -0.0172553 -0.297615 0.95453 
-0.0859503 -0.239622 0.967054 -0.0983694 -0.256091 0.961634 -0.182503 -0.233788 0.955006 
0.347964 0.734129 0.583074 0.156666 0.776701 0.610075 0.00139371 0.765927 0.642926 
-0.182314 0.705352 0.685011 -0.381141 0.590438 0.711417 0.398169 0.707041 0.584426 
0.454927 0.646465 0.612474 0.536637 0.835222 0.120103 -0.386014 0.579938 0.717402 
-0.408258 0.53686 0.738314 -0.468346 0.697808 0.541956 -0.0121868 0.779903 0.625782 
0.541313 0.569558 0.618534 0.547848 0.552745 0.627961 0.59996 0.623375 0.50145 
-0.319227 0.552988 0.769609 -0.146317 0.571449 0.807488 -0.20763 0.650522 0.730555 
0.0778682 0.692818 0.716896 0.0465615 0.777538 0.62711 0.0707414 0.7517 0.6557 
0.162042 0.696791 0.698731 0.164294 0.743719 0.647989 -0.102527 0.75758 0.644641 
-0.242995 0.692763 0.678994 -0.25858 0.770402 0.582767 -0.534252 0.469037 0.703263 
0.604774 0.504306 0.61638 0.656943 0.436913 0.614437 0.717319 0.563612 0.409627 
-0.575693 0.41919 0.702038 0.743476 0.229141 0.628282 -0.60585 0.221962 0.763989 
-0.764689 0.291749 0.574572 0.729091 0.0428665 0.683073 -0.649267 0.0281188 0.760041 
-0.652417 0.0286468 0.757318 0.687657 -0.0889364 0.720568 0.97184 -0.154006 0.178353 
-0.499013 -0.176889 0.848349 -0.628983 -0.179438 0.756427 0.705104 -0.248983 0.663955 
0.650882 -0.314119 0.691145 -0.46672 -0.268606 0.842629 -0.452152 -0.345847 0.822161 
-0.670892 -0.355279 0.650908 0.560924 -0.373306 0.738923 0.768266 -0.419434 0.483572 
0.540353 -0.257508 0.801067 -0.374203 -0.389582 0.841545 -0.316862 -0.418768 0.851018 
-0.490017 -0.441141 0.75185 0.540337 -0.257388 0.801117 0.540694 -0.257528 0.80083 
-0.185405 -0.362166 0.913488 -0.229375 -0.389037 0.892209 -0.207718 -0.379886 0.90141 
-0.405889 -0.524664 0.748319 0.466488 -0.356017 0.809716 0.728119 -0.509045 0.459038 
0.405893 -0.42437 0.80942 -0.122912 -0.257585 0.958406 -0.156335 -0.308904 0.938156 
-0.148969 -0.327281 0.933111 -0.236484 -0.414739 0.878674 -0.424401 -0.617989 0.661796 
0.253293 -0.509386 0.822417 0.51001 -0.640585 0.574056 0.233161 -0.514648 0.82509 
0.189825 -0.569951 0.799451 0.0265589 -0.570116 0.821135 -0.0379579 -0.468742 0.882519 
-0.0651838 -0.416348 0.906866 -0.173338 -0.269577 0.94725 -0.184611 -0.384728 0.90438 
-0.174808 -0.342049 0.923279 -0.233182 -0.504379 0.831401 -0.438087 -0.618676 0.652165 
0.22987 -0.808706 0.541437 0.0726281 -0.718509 0.691716 -0.0137812 -0.572147 0.820036 
-0.0819933 -0.615164 0.784124 -0.191602 -0.657515 0.728672 -0.323591 -0.751797 0.574534 
0.532642 0.845934 0.026233 0.372595 0.92781 0.0184572 0.202426 0.979297 0.00141313 
0.0592775 0.996754 0.0544804 -0.117511 0.989442 0.0848223 -0.339601 0.912361 0.228624 
-0.458492 0.792087 0.402968 0.54059 0.840796 0.0287072 0.63667 0.768014 0.0693234 
0.536098 0.840833 -0.0748268 -0.42454 0.778725 0.461902 -0.301644 0.790538 0.532973 
-0.303456 0.952735 -0.0144946 -0.0132191 0.873409 0.486808 0.0212265 0.931924 0.362032 
-0.0823947 0.959336 0.269974 -0.285339 0.928374 0.238126 0.697898 0.71129 0.0836915 
0.783189 0.618125 0.0673597 -0.526874 0.820033 0.223493 -0.539368 0.812104 0.222642 
-0.567772 0.820559 -0.0657121 0.812555 0.578089 0.0746071 -0.794611 0.559627 0.235398 
-0.813029 0.527785 0.245821 0.936329 0.333702 0.109232 -0.913677 0.297666 0.276747 
0.984573 0.11939 0.127918 0.988635 0.0747608 0.130428 -0.956828 0.0872392 0.277252 
0.978311 -0.152487 0.140201 0.975251 -0.171109 0.140025 0.987062 -0.157846 0.0281599 
-0.949289 -0.120302 0.29048 0.934009 -0.340537 0.107989 -0.858947 -0.348111 0.375539 
-0.769573 -0.469091 0.433257 0.901819 -0.412402 0.129022 0.897164 -0.421956 0.130573 
-0.742497 -0.509491 0.434876 -0.601362 -0.650441 0.463994 -0.832223 -0.550347 0.067255 
0.89274 -0.429466 0.136287 -0.596151 -0.654639 0.464814 -0.524467 -0.705285 0.476977 
-0.621553 -0.669064 0.407462 0.821699 -0.557657 0.117598 0.777174 -0.620416 0.105283 
-0.514687 -0.711769 0.477998 -0.53803 -0.69658 0.474659 -0.584118 -0.807575 0.0814142 
0.680234 -0.727803 0.0870832 0.588668 -0.805058 0.0731533 0.403947 -0.91312 0.0551168 
-0.423507 -0.76503 0.485151 -0.510606 -0.713551 0.479715 -0.464298 -0.76954 0.438446 
0.387156 -0.920457 0.0535542 0.308862 -0.949665 0.0523554 0.234295 -0.79764 -0.555767 
0.228713 -0.968927 0.0941828 0.0677964 -0.990376 0.12066 -0.119702 -0.958291 0.259519 
-0.214226 -0.906263 0.364411 -0.395924 -0.795341 0.458996 -0.301999 -0.851439 0.428776 
-0.403588 -0.91374 0.0468675 0.311391 0.830547 -0.461765 0.206743 0.83704 -0.506577 
0.109148 0.87599 -0.469818 -0.0228586 0.907959 -0.418435 -0.165813 0.941167 -0.294467 
-0.328636 0.930473 -0.16192 -0.291687 0.953001 -0.0818955 0.574575 0.716893 -0.394876 
0.422331 0.788808 -0.446564 0.479102 0.75403 -0.449332 0.282716 0.759656 -0.585658 
0.144909 0.690383 -0.708782 0.109414 0.619292 -0.7775 0.0860426 0.578031 -0.811466 
-0.0217505 0.597789 -0.801358 -0.246316 0.729095 -0.638553 -0.259374 0.962172 -0.0833708 
-0.291247 0.948066 -0.127852 -0.126444 0.985571 -0.112524 -0.0863825 0.979098 -0.184131 
-0.161714 0.971345 -0.174178 -0.325565 0.912779 -0.246662 -0.562608 0.792907 -0.234031 
0.60481 0.69313 -0.392141 0.734242 0.576448 -0.358604 0.562765 0.6819 -0.467235 
0.362382 0.629039 -0.687742 -0.269867 0.711716 -0.648561 -0.56741 0.789196 -0.234982 
-0.564992 0.787469 -0.246326 0.739103 0.57009 -0.358782 0.727486 0.570514 -0.381152 
0.482133 0.456082 -0.748022 -0.738329 0.596242 -0.315223 -0.52948 0.426163 -0.73351 
-0.772232 0.560844 -0.298515 0.85855 0.330501 -0.391996 0.666563 0.236622 -0.706898 
-0.911036 0.313301 -0.26806 -0.712801 0.339364 -0.613797 0.90607 0.115899 -0.406945 
0.653461 0.018061 -0.756745 -0.955222 0.143955 -0.258512 0.892217 -0.162565 -0.421333 
0.612458 -0.0641964 -0.787892 -0.980613 -0.0537577 -0.188437 0.85191 -0.317945 -0.416126 
0.693917 -0.258389 -0.672097 -0.94546 -0.284168 -0.159232 0.828794 -0.354194 -0.433183 
0.815115 -0.375245 -0.441336 0.788155 -0.359724 -0.49941 0.440236 -0.275525 -0.854563 
-0.832538 -0.539302 -0.126627 -0.8191 -0.559298 -0.127516 -0.812611 -0.543613 -0.210116 
0.736911 -0.442847 -0.510733 0.556823 -0.359853 -0.748634 0.242533 -0.225553 -0.943559 
-0.723894 -0.681634 -0.106549 -0.695822 -0.710965 -0.101785 -0.652392 -0.649 -0.391387 
0.67559 -0.508338 -0.534014 0.67202 -0.512384 -0.534651 0.670822 -0.508417 -0.539917 
0.360668 -0.409357 -0.83806 0.114814 -0.34609 -0.93115 0.12203 -0.302088 -0.945437 
-0.569104 -0.809836 -0.14243 -0.383562 -0.522386 -0.761573 -0.589569 -0.800301 -0.109211 
-0.584771 -0.803551 -0.111126 -0.56569 -0.796021 -0.215282 0.45925 -0.668802 -0.584631 
0.449448 -0.678105 -0.581524 0.447911 -0.663877 -0.598869 0.34755 -0.671637 -0.654303 
0.271463 -0.582033 -0.766516 0.22694 -0.773988 -0.591135 0.160832 -0.458404 -0.87407 
0.165577 -0.386199 -0.907433 0.125164 -0.419811 -0.89894 -0.301547 -0.386556 -0.871575 
-0.564767 -0.807067 -0.172284 -0.527811 -0.815118 -0.238744 -0.397122 -0.673574 -0.623371 
0.218192 -0.776223 -0.591498 0.178873 -0.762054 -0.622317 0.164608 -0.723744 -0.670149 
0.170421 -0.76131 -0.62559 0.134243 -0.661696 -0.737656 0.0732448 -0.857818 -0.508707 
0.081935 -0.671341 -0.736605 -0.0841896 -0.911046 -0.403618 -0.0614032 -0.703132 -0.708403 
-0.251854 -0.887236 -0.386499 -0.14493 -0.787211 -0.599412 -0.38087 -0.90774 -0.175913 
-0.3585 -0.915842 -0.180863 -0.342931 -0.903145 -0.258315 0.230495 0.549106 -0.80334 
0.104372 0.555005 -0.825273 0.0813447 0.513781 -0.854056 0.0802669 0.516301 -0.852637 
-0.0215177 0.596275 -0.802492 -0.188915 0.568571 -0.800648 -0.188669 0.507556 -0.840708 
-0.0322168 0.547914 -0.835914 -0.00951325 0.641015 -0.76747 -0.108125 0.572485 -0.812755 
0.280326 0.549585 -0.787003 0.3324 0.543672 -0.770669 0.213643 0.48631 -0.847266 
0.0754896 0.458834 -0.88531 0.0289375 0.375713 -0.926284 0.0354316 0.315665 -0.948209 
-0.00811368 0.281274 -0.959593 -0.112714 0.306829 -0.945067 -0.145107 0.391233 -0.90878 
-0.0286692 0.533525 -0.845298 -0.010346 0.565141 -0.824929 -0.127304 0.580063 -0.804562 
-0.107059 0.565382 -0.817852 -0.257018 0.584763 -0.769411 0.442609 0.440388 -0.781125 
0.452241 0.419748 -0.78695 0.270743 0.377028 -0.885747 0.133467 0.287589 -0.948409 
0.0207692 0.222409 -0.974732 -0.0498949 0.166866 -0.984716 -0.0251341 0.0813603 -0.996368 
-0.0249561 0.0744326 -0.996914 -0.0918252 0.121688 -0.988312 -0.0477584 0.139047 -0.989134 
0.0461835 0.232797 -0.971428 0.00657967 0.256671 -0.966476 -0.0946302 0.327655 -0.940046 
-0.41292 0.347509 -0.841864 -0.255005 0.291756 -0.921874 -0.440352 0.349775 -0.82689 
0.569008 0.233264 -0.788554 0.378527 0.248298 -0.891665 0.224199 0.160663 -0.961209 
0.0327807 0.0915687 -0.995259 -0.0560359 0.027111 -0.998061 -0.121802 -0.0358202 -0.991908 
-0.0560609 -0.0806311 -0.995166 0.0308119 -0.0597125 -0.99774 -0.0525323 0.0353728 -0.997993 
-0.0247782 -0.0105642 -0.999637 0.0944089 0.0261922 -0.995189 0.0622076 0.0857491 -0.994373 
-0.0493822 0.122762 -0.991207 -0.172511 0.191623 -0.966189 -0.509393 0.320963 -0.798437 
-0.372976 0.312277 -0.873711 -0.616472 0.213778 -0.7578 0.611319 0.0119325 -0.791294 
0.339833 0.0249185 -0.940156 0.132867 -0.0309814 -0.99065 0.00925151 -0.0586766 -0.998234 
-0.112938 -0.0896438 -0.98955 -0.152328 -0.160746 -0.97517 -0.049017 -0.0284858 -0.998392 
0.0923934 -0.0625819 -0.993754 -0.0422792 -0.0667965 -0.99687 -0.0564996 -0.130424 -0.989847 
0.136085 -0.0600654 -0.988875 0.11645 -0.0123288 -0.99312 0.0195684 0.0343791 -0.999217 
-0.0743162 0.0929254 -0.992896 -0.344552 0.101461 -0.933268 -0.641739 0.171697 -0.747457 
-0.604143 0.168596 -0.778837 0.548456 -0.0683071 -0.833385 0.337237 -0.142824 -0.930523 
0.13087 -0.106284 -0.985686 -0.0197026 -0.125001 -0.991961 -0.169166 -0.147068 -0.974553 
-0.0577899 -0.126188 -0.990322 0.0602067 -0.0788649 -0.995066 -0.0151949 -0.149951 -0.988577 
-0.122078 -0.0260458 -0.992179 -0.0147505 -0.0212382 -0.999666 0.207664 -0.0300141 -0.97774 
0.154056 -0.0290202 -0.987636 0.0509833 -0.0201339 -0.998497 -0.115669 -0.0126142 -0.993208 
-0.293077 0.00360089 -0.956082 -0.684524 -0.0265343 -0.728508 -0.603899 -0.0175942 -0.796866 
0.512492 -0.251095 -0.82116 0.379601 -0.257276 -0.888658 0.328912 -0.240812 -0.913141 
0.147304 -0.216446 -0.965118 -0.0292735 -0.149604 -0.988312 -0.104822 -0.0907267 -0.990344 
-0.0838853 0.0109498 -0.996415 -0.0534029 0.0235265 -0.998296 0.130824 0.0176327 -0.991249 
0.0781827 -0.0831655 -0.993464 -0.0654389 0.0606789 -0.99601 0.12936 -0.00908499 -0.991556 
0.120357 -0.0544827 -0.991234 0.0356502 -0.0609272 -0.997505 -0.049839 -0.120087 -0.991512 
-0.332493 -0.168743 -0.927887 -0.657903 -0.260314 -0.706682 -0.649708 -0.273562 -0.709256 
-0.64577 -0.258869 -0.718309 0.349924 -0.25218 -0.902196 0.238312 -0.222626 -0.945328 
0.239345 -0.236725 -0.941634 0.0871635 -0.165905 -0.982282 -0.00493829 -0.100466 -0.994928 
0.0466121 0.019516 -0.998722 0.0330049 0.101081 -0.994331 -0.0968094 0.131349 -0.986598 
-0.0530657 -0.110376 -0.992472 0.0485555 -0.0173101 -0.99867 0.0972751 -0.0379327 -0.994534 
0.0999593 -0.0797484 -0.99179 -0.00849768 -0.220142 -0.975431 -0.184342 -0.218294 -0.958314 
-0.534375 -0.379791 -0.755117 -0.504105 -0.411512 -0.7593 -0.483915 -0.363596 -0.796005 
0.22224 -0.223734 -0.948974 0.108965 -0.291022 -0.950491 0.121747 -0.236074 -0.964078 
0.12117 -0.299856 -0.946258 0.0855813 -0.196318 -0.976798 0.119864 -0.111881 -0.986466 
0.0598778 -0.0959073 -0.993588 -0.0847696 -0.0465724 -0.995312 -0.080187 -0.0142831 -0.996678 
0.0143957 -0.0122451 -0.999821 0.0590366 -0.0859205 -0.994551 -0.0565354 -0.187621 -0.980613 
-0.257662 -0.405367 -0.877091 -0.148004 -0.33828 -0.929334 -0.302369 -0.517162 -0.800697 
-0.266226 -0.526887 -0.807164 -0.243509 -0.504852 -0.828147 0.122699 -0.30062 -0.945819 
0.159808 -0.298837 -0.940828 0.15284 -0.263735 -0.95241 0.119704 -0.398194 -0.909457 
0.0945457 -0.254436 -0.962457 -0.0122478 -0.193812 -0.980962 -0.0189303 -0.128482 -0.991531 
-0.0231861 -0.0852659 -0.996088 -0.256554 -0.340163 -0.904693 -0.0640945 -0.180329 -0.981516 
-0.263194 -0.413823 -0.871481 -0.210217 -0.442832 -0.871613 -0.155524 -0.355552 -0.921626 
0.0927881 -0.397149 -0.913051 0.0479494 -0.391211 -0.919051 0.0435313 -0.362937 -0.930796 
0.0434157 -0.352989 -0.934619 0.0479342 -0.325139 -0.944451 -0.239994 -0.3747 -0.895546 
-0.0439518 -0.457934 -0.887899 -0.0339376 -0.365363 -0.930246 
