# vtk DataFile Version 4.2
vtk output
ASCII
DATASET POLYDATA
POINTS 488 float
-17.1017 -20.0969 -22.0159 -10.2258 -20.0969 -21.8344 -23.9776 -13.221 -21.9153 
-17.1017 -13.221 -21.8149 -17.1017 -33.8487 -15.3488 -10.2258 -33.8487 -17.6647 
-3.34986 -33.8487 -18.5603 3.52605 -33.8487 -18.2915 10.402 -33.8487 -17.04 
-23.9776 -26.9728 -18.2725 -17.1017 -21.2936 -21.7975 -17.1017 -26.9728 -20.6741 
-10.2258 -20.4184 -21.7975 -10.2258 -26.9728 -21.0455 -3.34986 -26.9728 -21.3566 
3.52605 -26.9728 -20.9478 10.402 -26.9728 -19.8927 17.2779 -26.9728 -17.9828 
-30.8535 -20.0969 -19.3068 -21.2923 -20.0969 -21.7975 -23.9776 -16.3811 -21.7975 
-23.9776 -20.0969 -21.6424 -8.98817 -20.0969 -21.7975 -10.2258 -19.6041 -21.7975 
-3.34986 -20.0969 -21.6296 3.52605 -20.0969 -21.4559 10.402 -20.0969 -20.5015 
17.2779 -20.0969 -19.414 24.1538 -20.0969 -16.5684 -37.7294 -13.221 -16.5165 
-24.7347 -13.221 -21.7975 -30.8535 -13.221 -20.8542 -23.9776 -11.1768 -21.7975 
-16.8596 -13.221 -21.7975 -17.1017 -13.089 -21.7975 -10.2258 -13.221 -21.3092 
-3.34986 -13.221 -21.0025 3.52605 -13.221 -20.3308 10.402 -13.221 -19.9518 
17.2779 -13.221 -19.3744 24.1538 -13.221 -17.4885 -37.7294 -6.34507 -18.6028 
-30.8535 -6.34507 -21.6258 -23.9776 -6.34507 -21.5255 -17.1017 -6.34507 -20.9026 
-10.2258 -6.34507 -20.4801 -3.34986 -6.34507 -20.8845 3.52605 -6.34507 -19.2365 
10.402 -6.34507 -19.1584 17.2779 -6.34507 -19.1871 24.1538 -6.34507 -17.8024 
31.0297 -6.34507 -14.9951 -37.7294 0.530841 -19.0417 -30.8535 0.530841 -21.5387 
-23.9776 0.530841 -21.0373 -17.1017 0.530841 -20.123 -10.2258 0.530841 -19.6587 
-3.34986 0.530841 -21.1168 3.52605 0.530841 -19.0733 10.402 0.530841 -19.2562 
17.2779 0.530841 -19.106 24.1538 0.530841 -17.835 31.0297 0.530841 -15.6075 
-37.7294 7.40675 -18.5746 -30.8535 7.40675 -20.6278 -23.9776 7.40675 -20.8596 
-17.1017 7.40675 -19.5983 -10.2258 7.40675 -18.7606 -3.34986 7.40675 -18.7056 
3.52605 7.40675 -18.4228 10.402 7.40675 -19.3969 17.2779 7.40675 -19.3159 
24.1538 7.40675 -18.0807 31.0297 7.40675 -15.7092 -37.7294 14.2827 -16.3769 
-30.8535 14.2827 -19.3251 -23.9776 14.2827 -19.936 -17.1017 14.2827 -19.7551 
-10.2258 14.2827 -19.2147 -3.34986 14.2827 -19.0418 3.52605 14.2827 -19.2508 
10.402 14.2827 -19.6941 17.2779 14.2827 -19.3715 24.1538 14.2827 -18.0582 
31.0297 14.2827 -15.0006 -30.8535 21.1586 -17.2696 -23.9776 21.1586 -18.9806 
-17.1017 21.1586 -19.4887 -10.2258 21.1586 -19.8458 -3.34986 21.1586 -19.586 
3.52605 21.1586 -19.7248 10.402 21.1586 -19.9478 17.2779 21.1586 -18.6501 
24.1538 21.1586 -16.5886 -23.9776 28.0345 -15.5301 -17.1017 28.0345 -17.1878 
-10.2258 28.0345 -18.1712 -3.34986 28.0345 -18.8597 3.52605 28.0345 -18.9064 
10.402 28.0345 -18.1439 17.2779 28.0345 -15.9332 -17.1017 -34.2071 -14.9216 
-10.2258 -36.5444 -14.9216 -3.34986 -37.6983 -14.9216 3.52605 -37.5635 -14.9216 
10.402 -36.066 -14.9216 -17.8605 -33.8487 -14.9216 -23.9776 -30.719 -14.9216 
14.867 -33.8487 -14.9216 17.2779 -32.2163 -14.9216 17.2779 -33.8487 -13.0797 
-29.2592 -26.9728 -14.9216 -30.8535 -25.536 -14.9216 -30.8535 -26.9728 -10.3044 
22.6088 -26.9728 -14.9216 24.1538 -24.4678 -14.9216 24.1538 -26.9728 -13.3616 
-35.4261 -20.0969 -14.9216 -37.7294 -16.1143 -14.9216 26.4944 -20.0969 -14.9216 
31.0297 -20.0969 -9.99451 -39.0867 -13.221 -14.9216 29.2493 -13.221 -14.9216 
31.0297 -6.85511 -14.9216 31.0297 -13.221 -13.7059 -41.2794 -6.34507 -14.9216 
31.1519 -6.34507 -14.9216 37.9056 -6.34507 -9.54032 -42.1866 0.530841 -14.9216 
-44.6053 0.530841 -8.42559 32.3037 0.530841 -14.9216 37.9056 0.530841 -11.1629 
-41.6177 7.40675 -14.9216 32.4185 7.40675 -14.9216 37.9056 7.40675 -11.2846 
-39.3691 14.2827 -14.9216 -37.7294 16.9371 -14.9216 31.161 14.2827 -14.9216 
31.0297 14.5527 -14.9216 37.9056 14.2827 -9.88971 -34.3525 21.1586 -14.9216 
-37.7294 21.1586 -10.433 -30.8535 24.48 -14.9216 27.3987 21.1586 -14.9216 
24.1538 24.2124 -14.9216 31.0297 21.1586 -12.3624 -25.2655 28.0345 -14.9216 
-30.8535 28.0345 -10.0514 -23.9776 28.7354 -14.9216 -17.1017 31.0028 -14.9216 
-10.2258 32.7348 -14.9216 -3.34986 34.1532 -14.9216 3.52605 34.3828 -14.9216 
10.402 32.5653 -14.9216 19.4228 28.0345 -14.9216 17.2779 29.3291 -14.9216 
24.1538 28.0345 -11.5189 -17.1017 34.9104 -9.1346 -10.2258 34.9104 -12.1868 
-3.34986 34.9104 -14.0821 3.52605 34.9104 -14.3343 10.402 34.9104 -11.6209 
-17.1017 -36.2751 -8.04567 -10.2258 -38.9943 -8.04567 -3.34986 -40.4834 -8.04567 
3.52605 -40.5387 -8.04567 10.402 -39.3743 -8.04567 17.2779 -36.4462 -8.04567 
-30.8535 -27.4921 -8.04567 -21.7341 -33.8487 -8.04567 -23.9776 -32.5831 -8.04567 
21.1338 -33.8487 -8.04567 24.1538 -31.0783 -8.04567 -31.4231 -26.9728 -8.04567 
-30.8535 -26.9728 -5.87482 27.9072 -26.9728 -8.04567 31.0297 -22.3008 -8.04567 
-37.3484 -20.0969 -8.04567 -37.7294 -19.4428 -8.04567 32.3354 -20.0969 -8.04567 
-41.0063 -13.221 -8.04567 36.221 -13.221 -8.04567 37.9056 -9.43073 -8.04567 
37.9056 -13.221 -3.81723 -43.3497 -6.34507 -8.04567 -44.6053 -0.00317597 -8.04567 
39.1681 -6.34507 -8.04567 -44.7104 0.530841 -8.04567 -44.6053 2.24518 -8.04567 
-44.6053 0.530841 -6.35895 40.8189 0.530841 -8.04567 -44.289 7.40675 -8.04567 
40.9617 7.40675 -8.04567 -42.6038 14.2827 -8.04567 39.6058 14.2827 -8.04567 
37.9056 17.4919 -8.04567 -38.9757 21.1586 -8.04567 -37.7294 22.7629 -8.04567 
35.55 21.1586 -8.04567 31.0297 25.4069 -8.04567 37.9056 21.1586 -3.07259 
-32.278 28.0345 -8.04567 -30.8535 29.0854 -8.04567 -23.9776 32.8413 -8.04567 
17.2779 34.0498 -8.04567 27.7466 28.0345 -8.04567 24.1538 30.292 -8.04567 
-18.5838 34.9104 -8.04567 -17.1017 35.4281 -8.04567 -10.2258 37.0008 -8.04567 
-3.34986 38.1018 -8.04567 3.52605 38.1501 -8.04567 15.228 34.9104 -8.04567 
10.402 36.72 -8.04567 -17.1017 -35.3214 -1.16976 -10.2258 -38.5405 -1.16976 
-3.34986 -40.2619 -1.16976 3.52605 -40.4358 -1.16976 10.402 -39.2084 -1.16976 
17.2779 -36.4565 -1.16976 -19.6219 -33.8487 -1.16976 -23.9776 -31.0875 -1.16976 
-17.1017 -33.8487 2.3902 21.5516 -33.8487 -1.16976 24.1538 -31.864 -1.16976 
-29.4351 -26.9728 -1.16976 -30.8535 -25.6684 -1.16976 29.1032 -26.9728 -1.16976 
31.0297 -24.5873 -1.16976 -35.8648 -20.0969 -1.16976 -37.7294 -17.3137 -1.16976 
34.3581 -20.0969 -1.16976 37.9056 -14.7393 -1.16976 -39.9915 -13.221 -1.16976 
-37.7294 -13.221 3.53113 38.8858 -13.221 -1.16976 -42.4941 -6.34507 -1.16976 
42.3168 -6.34507 -1.16976 -44.2534 0.530841 -1.16976 44.1834 0.530841 -1.16976 
-43.9533 7.40675 -1.16976 44.3179 7.40675 -1.16976 -42.5415 14.2827 -1.16976 
42.8646 14.2827 -1.16976 -39.1541 21.1586 -1.16976 -37.7294 23.0264 -1.16976 
-37.7294 21.1586 2.61399 31.0297 27.547 -1.16976 38.6196 21.1586 -1.16976 
37.9056 21.9559 -1.16976 -32.8889 28.0345 -1.16976 -30.8535 29.6157 -1.16976 
-30.8535 28.0345 3.99003 -23.9776 33.5051 -1.16976 17.2779 34.6064 -1.16976 
30.2676 28.0345 -1.16976 24.1538 31.4626 -1.16976 -20.1163 34.9104 -1.16976 
-17.1017 35.9356 -1.16976 -17.1017 34.9104 4.1479 -10.2258 37.7205 -1.16976 
-3.34986 38.8457 -1.16976 3.52605 38.8068 -1.16976 16.4909 34.9104 -1.16976 
10.402 37.2285 -1.16976 -10.2258 -36.1658 5.70615 -3.34986 -38.0395 5.70615 
3.52605 -38.1733 5.70615 10.402 -37.0784 5.70615 17.2779 -34.7971 5.70615 
-23.9776 -27.0512 5.70615 -14.4938 -33.8487 5.70615 -17.1017 -32.1666 5.70615 
-10.2258 -33.8487 9.57054 10.402 -33.8487 11.5615 18.9972 -33.8487 5.70615 
17.2779 -33.8487 7.89066 24.1538 -30.4897 5.70615 -24.074 -26.9728 5.70615 
-30.8535 -20.8857 5.70615 -23.9776 -26.9728 5.80175 -17.1017 -26.9728 11.812 
28.192 -26.9728 5.70615 31.0297 -23.9428 5.70615 -31.6108 -20.0969 5.70615 
-30.8535 -20.0969 6.52924 -23.9776 -20.0969 12.0531 34.2367 -20.0969 5.70615 
37.9056 -15.1511 5.70615 -36.4122 -13.221 5.70615 -37.7294 -10.5969 5.70615 
-30.8535 -13.221 11.7835 39.2314 -13.221 5.70615 37.9056 -13.221 10.1019 
-39.5556 -6.34507 5.70615 -37.7294 -6.34507 8.27812 42.7921 -6.34507 5.70615 
-41.2021 0.530841 5.70615 -37.7294 0.530841 10.5515 44.6657 0.530841 5.70615 
-41.46 7.40675 5.70615 -37.7294 7.40675 11.1471 44.7601 7.40675 5.70615 
-39.8847 14.2827 5.70615 -37.7294 18.764 5.70615 -37.7294 14.2827 8.89599 
43.3043 14.2827 5.70615 -36.4748 21.1586 5.70615 -30.8535 27.3958 5.70615 
-30.8535 21.1586 12.5699 31.0297 27.3675 5.70615 38.8332 21.1586 5.70615 
37.9056 22.162 5.70615 37.9056 21.1586 8.5948 -30.0059 28.0345 5.70615 
-23.9776 31.8431 5.70615 -23.9776 28.0345 11.6018 -17.1017 34.5901 5.70615 
17.2779 33.4077 5.70615 29.8254 28.0345 5.70615 24.1538 30.8456 5.70615 
-15.9564 34.9104 5.70615 -10.2258 36.4517 5.70615 -10.2258 34.9104 8.67843 
-3.34986 37.4948 5.70615 -3.34986 34.9104 10.3457 3.52605 37.3095 5.70615 
3.52605 34.9104 10.0169 12.8173 34.9104 5.70615 10.402 35.7441 5.70615 
10.402 34.9104 7.39482 -3.34986 -33.8706 12.5821 3.52605 -34.0478 12.5821 
-3.42829 -33.8487 12.5821 -10.2258 -31.4175 12.5821 -3.34986 -33.8487 12.6071 
5.18719 -33.8487 12.5821 3.52605 -33.8487 12.8132 10.402 -33.1737 12.5821 
17.2779 -31.4101 12.5821 24.1538 -27.5885 12.5821 -16.1177 -26.9728 12.5821 
-17.1017 -26.0407 12.5821 -10.2258 -26.9728 16.3019 -3.34986 -26.9728 18.0783 
3.52605 -26.9728 18.4769 10.402 -26.9728 18.4999 17.2779 -26.9728 17.2613 
24.9397 -26.9728 12.5821 24.1538 -26.9728 13.3829 31.0297 -21.1734 12.5821 
-23.2452 -20.0969 12.5821 -23.9776 -19.2677 12.5821 -17.1017 -20.0969 16.2905 
31.9604 -20.0969 12.5821 31.0297 -20.0969 13.7816 -29.7091 -13.221 12.5821 
-30.8535 -11.6853 12.5821 -23.9776 -13.221 15.6594 -17.1017 -13.221 18.8388 
37.0664 -13.221 12.5821 31.0297 -13.221 18.8238 37.9056 -11.7941 12.5821 
-33.7113 -6.34507 12.5821 -30.8535 -6.34507 14.8186 -23.9776 -6.34507 18.0194 
40.685 -6.34507 12.5821 37.9056 -6.34507 16.2301 -35.749 0.530841 12.5821 
-30.8535 0.530841 16.2155 -23.9776 0.530841 19.4136 42.5454 0.530841 12.5821 
37.9056 0.530841 18.2338 -36.3067 7.40675 12.5821 -30.8535 7.40675 16.391 
-23.9776 7.40675 19.4479 42.5952 7.40675 12.5821 37.9056 7.40675 18.2528 
-34.5949 14.2827 12.5821 -30.8535 21.1376 12.5821 -30.8535 14.2827 15.5442 
[...]
POINT_DATA 488
SCALARS ImageScalars float
LOOKUP_TABLE default
0 0 0 0 0 0 0 0 0 
0 0 0 0 0 0 0 0 0 
0 0 0 0 0 0 0 0 0 
0 0 0 0 0 0 0 0 0 
0 0 0 0 0 0 0 0 0 
0 0 0 0 0 0 0 0 0 
0 0 0 0 0 0 0 0 0 
0 0 0 0 0 0 0 0 0 
0 0 0 0 0 0 0 0 0 
0 0 0 0 0 0 0 0 0 
0 0 0 0 0 0 0 0 0 
0 0 0 0 0 0 0 0 0 
0 0 0 0 0 0 0 0 0 
0 0 0 0 0 0 0 0 0 
0 0 0 0 0 0 0 0 0 
0 0 0 0 0 0 0 0 0 
0 0 0 0 0 0 0 0 0 
0 0 0 0 0 0 0 0 0 
0 0 0 0 0 0 0 0 0 
0 0 0 0 0 0 0 0 0 
0 0 0 0 0 0 0 0 0 
0 0 0 0 0 0 0 0 0 
0 0 0 0 0 0 0 0 0 
0 0 0 0 0 0 0 0 0 
0 0 0 0 0 0 0 0 0 
0 0 0 0 0 0 0 0 0 
0 0 0 0 0 0 0 0 0 
0 0 0 0 0 0 0 0 0 
0 0 0 0 0 0 0 0 0 
0 0 0 0 0 0 0 0 0 
0 0 0 0 0 0 0 0 0 
0 0 0 0 0 0 0 0 0 
0 0 0 0 0 0 0 0 0 
0 0 0 0 0 0 0 0 0 
0 0 0 0 0 0 0 0 0 
0 0 0 0 0 0 0 0 0 
0 0 0 0 0 0 0 0 0 
0 0 0 0 0 0 0 0 0 
0 0 0 0 0 0 0 0 0 
0 0 0 0 0 0 0 0 0 
0 0 0 0 0 0 0 0 0 
0 0 0 0 0 0 0 0 0 
0 0 0 0 0 0 0 0 0 
0 0 0 0 0 0 0 0 0 
0 0 0 0 0 0 0 0 0 
0 0 0 0 0 0 0 0 0 
0 0 0 0 0 0 0 0 0 
0 0 0 0 0 0 0 0 0 
0 0 0 0 0 0 0 0 0 
0 0 0 0 0 0 0 0 0 
0 0 0 0 0 0 0 0 0 
0 0 0 0 0 0 0 0 0 
0 0 0 0 0 0 0 0 0 
0 0 0 0 0 0 0 0 0 
0 0 
NORMALS Normals float
0.014243 0.076732 0.99695 -0.027677 0.0198363 0.99942 0.0695168 -0.00945182 0.997536 
-0.0428766 -0.0796849 0.995898 0.338567 0.785134 0.518591 0.176866 0.650539 0.738591 
0.0372574 0.569126 0.821406 -0.0901993 0.551126 0.829533 -0.271302 0.594098 0.75726 
0.392008 0.55664 0.732449 0.0379141 0.120788 0.991954 0.169654 0.351933 0.920522 
-0.0243366 0.030291 0.999245 0.0455336 0.251147 0.966878 -0.0061719 0.196536 0.980477 
-0.104499 0.202785 0.973631 -0.199166 0.199708 0.959401 -0.376327 0.337028 0.863012 
0.486061 0.392554 0.780798 0.093066 0.161918 0.982406 0.104455 0.0949808 0.989984 
0.145274 0.216182 0.965485 -0.0273891 0.0116189 0.999557 -0.0298038 0.0114605 0.99949 
-0.02695 -0.0258625 0.999302 -0.0829965 -0.045202 0.995524 -0.145973 0.00342056 0.989283 
-0.251586 0.0900763 0.963634 -0.515351 0.219728 0.828331 0.745726 0.323953 0.582192 
0.0943741 0.00405664 0.995529 0.307689 0.134586 0.94192 0.0330924 -0.0262688 0.999107 
-0.0433915 -0.0803201 0.995824 -0.0434762 -0.0804557 0.99581 -0.059054 -0.0988431 0.993349 
-0.0699594 -0.0544335 0.996064 -0.0757094 -0.156493 0.984773 -0.0683183 -0.096334 0.993002 
-0.167993 -0.0165356 0.98565 -0.358451 0.0803269 0.930086 0.587903 0.142348 0.796308 
0.16442 0.0488247 0.985181 -0.0515665 -0.0628714 0.996689 -0.0756087 -0.12207 0.989637 
-0.00147969 -0.117831 0.993033 -0.0880418 0.00772755 0.996087 -0.125721 -0.0905716 0.987923 
-0.00345104 -0.0505459 0.998716 -0.0962979 -0.0192474 0.995166 -0.285283 0.0233636 0.958159 
-0.474589 0.107185 0.873657 0.509045 -0.0043979 0.860729 0.107194 -0.0676072 0.991937 
-0.0997724 -0.0482928 0.993838 -0.100004 -0.0943719 0.990501 0.0687455 -0.12717 0.989496 
-0.0413546 -0.160839 0.986114 -0.130746 -0.0596651 0.989619 0.00215156 0.0172807 0.999848 
-0.10044 0.00914486 0.994901 -0.243843 0.0198065 0.969613 -0.401342 0.0466276 0.914741 
0.494489 -0.167562 0.85288 0.150047 -0.160039 0.97564 -0.0748655 -0.0793517 0.994031 
-0.153852 -0.0267558 0.987732 -0.0641202 -0.0316968 0.997439 -0.0247835 -0.145523 0.989044 
0.0506691 0.0117052 0.998647 0.0644839 0.0318363 0.997411 -0.0938431 0.0193421 0.995399 
-0.241887 0.0158975 0.970174 -0.418468 -0.0384976 0.907415 0.585373 -0.360854 0.726032 
0.224032 -0.218263 0.949827 0.030579 -0.135966 0.990241 -0.0521998 -0.00900779 0.998596 
-0.0522223 0.0788875 0.995515 0.0021176 0.0648938 0.99789 0.0477574 0.0958399 0.99425 
0.00725258 0.0392617 0.999203 -0.110966 -0.0470805 0.992708 -0.291302 -0.0983728 0.95156 
-0.472775 -0.175145 0.863602 0.384962 -0.444162 0.809027 0.144931 -0.272593 0.951151 
0.061308 -0.164863 0.984409 0.00852946 -0.0635278 0.997944 -0.00834637 -0.00820359 0.999932 
0.0256554 -0.0189777 0.999491 -0.07577 -0.101631 0.991933 -0.224823 -0.219118 0.949443 
-0.3746 -0.330507 0.86628 0.307474 -0.620545 0.721376 0.167262 -0.503971 0.847371 
0.113517 -0.41018 0.904912 0.0489662 -0.310792 0.949216 -0.0495741 -0.312939 0.948479 
-0.188171 -0.413155 0.891008 -0.354033 -0.530436 0.770259 0.344245 0.800394 0.490779 
0.212341 0.798349 0.563515 0.0640131 0.799344 0.597455 -0.0920413 0.777873 0.621645 
-0.285392 0.722991 0.629155 0.35796 0.796557 0.487198 0.46804 0.735048 0.490553 
-0.404381 0.653112 0.640251 -0.452262 0.594793 0.66459 -0.478258 0.709222 0.517952 
0.575813 0.673407 0.463641 0.604438 0.652562 0.456966 0.65423 0.744298 0.134174 
-0.567543 0.435047 0.69902 -0.587824 0.370655 0.719081 -0.641589 0.485778 0.593618 
0.722178 0.502737 0.475095 0.784585 0.398285 0.47518 -0.592951 0.270774 0.758347 
-0.772319 0.422519 0.474343 0.810836 0.334755 0.480088 -0.529532 0.182999 0.828316 
-0.483345 0.115079 0.867833 -0.609432 0.237463 0.756441 0.829306 0.196263 0.523193 
-0.478571 0.109037 0.871253 -0.747557 0.252403 0.614371 0.829056 0.0227309 0.558703 
0.989678 0.0662773 0.12706 -0.444587 0.0499831 0.89434 -0.681991 0.0901685 0.72578 
0.789294 -0.164054 0.591694 -0.463937 -0.04472 0.884739 -0.678761 -0.0673695 0.731262 
0.677011 -0.370259 0.636054 0.636435 -0.439251 0.634042 -0.476121 -0.176248 0.861537 
-0.476278 -0.183334 0.85997 -0.711332 -0.280239 0.644572 0.562004 -0.51236 0.649337 
0.746631 -0.570078 0.34286 0.458337 -0.579229 0.674107 -0.456945 -0.362838 0.812127 
-0.417197 -0.460283 0.783636 -0.572273 -0.451848 0.684352 0.342027 -0.644072 0.684243 
0.534401 -0.765452 0.358467 0.316642 -0.655164 0.685928 0.20183 -0.662579 0.721286 
0.154526 -0.664932 0.730744 0.0780025 -0.700745 0.709135 -0.0832036 -0.708163 0.701129 
-0.242643 -0.66694 0.704496 -0.389451 -0.565814 0.726761 -0.366473 -0.594051 0.716101 
-0.472156 -0.701438 0.533904 0.273713 -0.907308 0.319175 0.182014 -0.838362 0.513829 
0.0817293 -0.765994 0.637631 -0.088736 -0.754532 0.650236 -0.275996 -0.844667 0.458654 
0.425099 0.903356 0.056907 0.280784 0.953354 0.1108 0.108426 0.983551 0.144466 
-0.0733413 0.984329 0.160369 -0.278779 0.946497 0.162561 -0.481937 0.853363 0.198769 
0.654272 0.756245 -0.00466831 0.490251 0.871214 0.0252869 0.528292 0.849005 0.00987345 
-0.595067 0.771664 0.224566 -0.68558 0.680545 0.258531 0.666361 0.745616 -0.00444749 
0.657677 0.746585 -0.100361 -0.753428 0.585694 0.298847 -0.793639 0.493571 0.355704 
0.836556 0.54768 0.0148413 0.847194 0.530978 0.0180261 -0.798546 0.461824 0.386061 
0.918997 0.39106 0.0501637 -0.780481 0.40333 0.477675 -0.785333 0.336788 0.519448 
-0.832394 0.475742 0.284236 0.966132 0.249888 0.0643782 0.991107 0.0829277 0.104066 
-0.788112 0.270229 0.553043 0.991812 0.0683918 0.107854 0.993366 0.0150822 0.114002 
0.996719 0.0766942 0.0258774 -0.791143 0.109801 0.601694 0.980859 -0.142346 0.132864 
-0.794403 -0.0702442 0.603316 0.923218 -0.343692 0.171884 -0.767384 -0.301425 0.56592 
-0.738941 -0.415877 0.530107 0.795314 -0.566155 0.216666 0.758225 -0.61391 0.219568 
-0.687766 -0.54678 0.477504 -0.602624 -0.685212 0.409059 -0.751815 -0.610822 0.248335 
0.582973 -0.776181 0.240179 0.546536 -0.801303 0.243336 0.396219 -0.882789 0.252377 
-0.413695 -0.870462 0.266746 -0.536109 -0.766732 0.353142 -0.484455 -0.813273 0.322322 
0.303791 -0.917707 0.255977 0.278143 -0.924714 0.259886 0.18788 -0.944877 0.268156 
0.0817038 -0.957914 0.275182 -0.0937826 -0.960245 0.262933 -0.373371 -0.89142 0.256835 
-0.280566 -0.925689 0.253737 0.476446 0.846754 -0.236659 0.325655 0.928444 -0.178717 
0.131161 0.977609 -0.164551 -0.0730468 0.984139 -0.161665 -0.266151 0.952197 -0.149947 
-0.450187 0.886312 -0.108549 0.503405 0.826223 -0.252863 0.541068 0.787785 -0.294347 
0.49114 0.801242 -0.341751 -0.568032 0.819578 -0.075048 -0.647208 0.761293 -0.0394245 
0.619632 0.719062 -0.314653 0.645851 0.693381 -0.319529 -0.752009 0.658886 0.0187332 
-0.781039 0.622351 0.0515413 0.761415 0.573886 -0.301499 0.81736 0.501725 -0.283187 
-0.807825 0.578078 0.115083 -0.837719 0.520477 0.165321 0.87494 0.402246 -0.26959 
0.796236 0.414533 -0.440647 -0.846084 0.503499 0.175013 0.930505 0.278402 -0.238018 
-0.915392 0.336206 0.22141 0.967969 0.099679 -0.230437 -0.962876 0.133161 0.234814 
0.976211 -0.1168 -0.182676 -0.969363 -0.0812938 0.231791 0.93809 -0.303926 -0.166179 
-0.901604 -0.370781 0.222782 0.8251 -0.547745 -0.138513 0.786129 -0.604263 -0.129872 
0.799977 -0.519874 -0.299613 -0.553365 -0.827683 0.0934259 -0.76294 -0.625015 0.165164 
-0.745644 -0.646575 0.161106 0.62462 -0.775278 -0.0937755 0.570064 -0.817168 -0.0852256 
0.578526 -0.754576 -0.309714 0.406053 -0.912057 -0.0572128 -0.391767 -0.918925 -0.0457768 
-0.538371 -0.838574 0.0833664 -0.441783 -0.896608 0.0303495 0.337618 -0.939685 -0.0548295 
0.290209 -0.955545 -0.0520852 0.29337 -0.921596 -0.254155 0.204557 -0.978234 -0.0348405 
0.0771479 -0.996215 -0.0400574 -0.108958 -0.992445 -0.0564078 -0.381757 -0.922909 -0.0500015 
-0.297113 -0.952771 -0.0628667 0.351409 0.840317 -0.41277 0.124885 0.907513 -0.401028 
-0.0631867 0.912773 -0.403551 -0.225003 0.89959 -0.374314 -0.391098 0.869027 -0.303041 
0.547964 0.654238 -0.521257 0.445699 0.78278 -0.43429 0.498025 0.739286 -0.453242 
0.355393 0.764985 -0.537116 -0.161815 0.811461 -0.561558 -0.438922 0.850111 -0.290963 
-0.371199 0.853106 -0.366636 -0.58797 0.774068 -0.234757 0.548601 0.653286 -0.521779 
0.608934 0.583475 -0.537361 0.547853 0.652286 -0.523814 0.503009 0.578824 -0.64183 
-0.679494 0.70846 -0.190716 -0.740426 0.654073 -0.154787 0.623619 0.568597 -0.536466 
0.604908 0.568152 -0.557934 0.493034 0.483414 -0.723345 -0.777261 0.615966 -0.128261 
-0.823571 0.55703 -0.106998 0.74188 0.416993 -0.5251 0.778975 0.364172 -0.510467 
0.562572 0.408855 -0.718576 -0.840419 0.532088 -0.102847 -0.804463 0.516882 -0.292697 
0.825052 0.281934 -0.489696 0.768584 0.283566 -0.573471 -0.931024 0.351268 -0.0990191 
0.86343 0.116436 -0.490847 0.755261 0.125774 -0.643243 -0.986204 0.131722 -0.100254 
0.886664 -0.0800233 -0.455438 0.748274 -0.0672326 -0.659974 -0.990834 -0.0832969 -0.106349 
0.839608 -0.290255 -0.459141 0.792963 -0.41579 -0.44534 0.775329 -0.289546 -0.561273 
-0.910879 -0.396311 -0.115055 0.756753 -0.489548 -0.433206 0.580148 -0.715727 -0.388797 
0.561962 -0.454223 -0.691289 -0.514825 -0.845358 -0.142566 -0.753091 -0.647372 -0.117317 
-0.726191 -0.677061 -0.119312 -0.723072 -0.646281 -0.2439 0.557289 -0.737701 -0.381086 
0.42324 -0.835202 -0.351149 0.424399 -0.669867 -0.609232 0.293384 -0.902362 -0.315704 
-0.327887 -0.909341 -0.256105 -0.488458 -0.859493 -0.150603 -0.383214 -0.903153 -0.193551 
0.276096 -0.907886 -0.315459 0.194456 -0.925934 -0.323779 0.18101 -0.872962 -0.45296 
0.0583923 -0.937823 -0.342167 0.0469214 -0.834445 -0.54909 -0.114381 -0.929402 -0.350897 
-0.0977305 -0.840842 -0.532385 -0.290752 -0.909168 -0.298123 -0.26632 -0.908938 -0.320789 
-0.245712 -0.890743 -0.382365 0.124317 0.760539 -0.63728 -0.0384823 0.775116 -0.630646 
0.126813 0.759993 -0.63744 0.361126 0.669864 -0.648746 0.124344 0.759802 -0.638154 
-0.0651435 0.779399 -0.623133 -0.0375609 0.768841 -0.638336 -0.147837 0.785855 -0.60048 
-0.311077 0.786341 -0.53376 -0.510862 0.729743 -0.454418 0.485438 0.567477 -0.665072 
0.496836 0.548502 -0.672532 0.337549 0.516304 -0.787077 0.122824 0.490149 -0.862942 
0.0270705 0.500478 -0.865326 -0.0641673 0.559063 -0.826639 -0.242171 0.631395 -0.736678 
-0.53063 0.719425 -0.448174 -0.501104 0.714565 -0.48815 -0.688075 0.602738 -0.404053 
0.486835 0.470347 -0.736047 0.482058 0.464326 -0.742981 0.444879 0.377241 -0.812263 
-0.701411 0.587809 -0.403117 -0.675954 0.573904 -0.462299 0.530509 0.398876 -0.747969 
0.551504 0.374502 -0.74538 0.416427 0.353587 -0.837594 0.380259 0.278795 -0.88186 
-0.763789 0.496588 -0.412343 -0.520475 0.374388 -0.767424 -0.780988 0.46668 -0.415051 
0.618463 0.271624 -0.737376 0.523459 0.261975 -0.810777 0.369429 0.240254 -0.897664 
-0.831366 0.332565 -0.445232 -0.714147 0.299489 -0.632693 0.673719 0.120235 -0.729141 
0.507191 0.0942476 -0.856665 0.330913 0.0921173 -0.939154 -0.87492 0.122126 -0.468616 
-0.64018 0.0964625 -0.762144 0.683156 -0.0580806 -0.727959 0.49132 -0.0411573 -0.870006 
0.308207 -0.0391811 -0.950512 -0.875986 -0.0940746 -0.473073 -0.634823 -0.101466 -0.765967 
0.654146 -0.257815 -0.711073 0.561802 -0.453422 -0.691944 0.524237 -0.220145 -0.822625 
0.311474 -0.192087 -0.930638 -0.797659 -0.374394 -0.472831 -0.707197 -0.551034 -0.442983 
-0.676245 -0.350078 -0.648181 0.561411 -0.45401 -0.691876 0.415457 -0.621123 -0.664532 
0.363445 -0.401743 -0.840542 0.227404 -0.330821 -0.915885 -0.637085 -0.634803 -0.437204 
-0.485735 -0.759619 -0.432481 -0.436269 -0.576469 -0.690908 0.384653 -0.650012 -0.655383 
0.271205 -0.713531 -0.646004 0.257877 -0.608218 -0.750713 0.149097 -0.738952 -0.657054 
0.121599 -0.573273 -0.810291 0.040575 -0.744939 -0.665897 0.0388237 -0.553083 -0.832221 
-0.0721005 -0.750248 -0.657213 -0.0278884 -0.572598 -0.819362 -0.151532 -0.780587 -0.606401 
-0.0833387 -0.642122 -0.762059 -0.21941 -0.822282 -0.525083 -0.161844 -0.737006 -0.656223 
-0.339403 -0.827458 -0.447346 -0.316456 -0.833358 -0.453178 -0.307336 -0.81722 -0.487541 
0.301568 0.315997 -0.899557 0.124371 0.398173 -0.90884 0.0411699 0.437611 -0.898221 
-0.0414846 0.499498 -0.865321 -0.189428 0.501988 -0.843875 -0.379335 0.441672 -0.813038 
0.302788 0.314678 -0.89961 0.301524 0.314385 -0.900136 0.132944 0.297546 -0.945406 
0.0633695 0.315768 -0.946718 0.00113675 0.354124 -0.935198 -0.157761 0.379291 -0.911729 
-0.382627 0.439471 -0.812688 -0.378165 0.437735 -0.815708 0.353553 0.259337 -0.898746 
0.354119 0.240965 -0.903623 0.251045 0.194312 -0.948272 0.126696 0.127785 -0.983676 
0.088873 0.199934 -0.97577 0.0125221 0.205489 -0.978579 -0.127567 0.187968 -0.973856 
-0.473596 0.343338 -0.811065 -0.287713 0.23195 -0.929204 -0.480749 0.328459 -0.813016 
0.328611 0.198521 -0.923366 0.295459 0.159736 -0.941907 0.153345 0.0267763 -0.98781 
0.14077 -0.0296967 -0.989597 0.14975 0.0785955 -0.985595 -0.00743804 0.0735333 -0.997265 
-0.133433 0.046529 -0.989965 -0.21835 0.106316 -0.970062 -0.500838 0.233755 -0.833379 
-0.387282 0.197299 -0.900603 0.327221 0.0905025 -0.940604 0.173645 0.023183 -0.984535 
0.0645844 -0.0452988 -0.996884 0.175756 -0.0195704 -0.984239 0.198454 -0.0204808 -0.979896 
-0.021358 -0.0673346 -0.997502 -0.0995739 -0.0369379 -0.994344 -0.148362 0.0164504 -0.988796 
-0.539865 0.0841081 -0.837539 -0.324842 0.0573067 -0.944031 0.30721 -0.0393045 -0.95083 
0.154806 -0.0610893 -0.986054 0.113389 -0.027868 -0.99316 0.170738 0.0231861 -0.985044 
0.0980254 -0.0936082 -0.990772 -0.0233251 -0.140042 -0.989871 -0.0519462 -0.0940417 -0.994212 
-0.12781 -0.0633378 -0.989774 -0.52908 -0.0989159 -0.842787 -0.308893 -0.0840205 -0.947378 
0.257197 -0.179237 -0.949591 0.206042 -0.248193 -0.946545 0.184333 -0.163321 -0.969199 
0.149474 -0.122709 -0.981122 0.112419 -0.142909 -0.983331 0.0309512 -0.226616 -0.973492 
-0.0167404 -0.21996 -0.975365 -0.0245219 -0.194189 -0.980658 -0.140923 -0.235498 -0.961604 
-0.446609 -0.305252 -0.841048 -0.383003 -0.384634 -0.83986 -0.361942 -0.29017 -0.885889 
0.167 -0.320768 -0.932319 0.127122 -0.355925 -0.925828 0.129966 -0.318916 -0.93883 
0.0468889 -0.415047 -0.908591 0.0545171 -0.354542 -0.933449 0.00581009 -0.449175 -0.893425 
0.0199453 -0.388104 -0.9214 -0.0200225 -0.473313 -0.880667 0.00371912 -0.395523 -0.918448 
-0.0841719 -0.516029 -0.852425 -0.0670652 -0.434507 -0.898168 -0.239482 -0.490438 -0.837926 
-0.208321 -0.502817 -0.838914 -0.205491 -0.482344 -0.851538 
