# vtk DataFile Version 4.2
vtk output
ASCII
DATASET POLYDATA
POINTS 530 float
-5.12365 -39.2225 -12.2135 2.67732 -39.2225 -12.837 10.4783 -39.2225 -13.9994 
18.2793 -39.2225 -14.5537 26.0803 -39.2225 -13.4732 -44.1285 -31.4215 -13.3535 
-36.3276 -31.4215 -14.7537 -28.5266 -31.4215 -15.6957 -20.7256 -31.4215 -15.3037 
-12.9246 -31.4215 -14.5144 -5.12365 -31.4215 -14.101 2.67732 -31.4215 -15.2569 
10.4783 -31.4215 -16.2195 18.2793 -31.4215 -16.4802 26.0803 -31.4215 -16.9194 
33.8812 -31.4215 -15.498 41.6822 -31.4215 -11.9106 -51.9295 -23.6205 -12.4838 
-44.1285 -23.6205 -15.0009 -36.3276 -23.6205 -17.2389 -28.5266 -23.6205 -17.6651 
-20.7256 -23.6205 -17.7777 -12.9246 -23.6205 -16.0133 -5.12365 -23.6205 -15.0104 
2.67732 -23.6205 -15.6526 10.4783 -23.6205 -16.4887 18.2793 -23.6205 -16.8317 
26.0803 -23.6205 -17.3031 33.8812 -23.6205 -17.3328 41.6822 -23.6205 -15.3326 
-51.9295 -15.8195 -12.5428 -44.1285 -15.8195 -15.8023 -36.3276 -15.8195 -17.6217 
-28.5266 -15.8195 -18.2626 -20.7256 -15.8195 -17.968 -12.9246 -15.8195 -17.0006 
-5.12365 -15.8195 -15.6277 2.67732 -15.8195 -15.1535 10.4783 -15.8195 -15.9116 
18.2793 -15.8195 -16.743 26.0803 -15.8195 -17.0944 33.8812 -15.8195 -17.2953 
41.6822 -15.8195 -16.5724 49.4832 -15.8195 -14.8451 -51.9295 -8.01854 -13.4619 
-44.1285 -8.01854 -16.2143 -36.3276 -8.01854 -17.2535 -28.5266 -8.01854 -17.0457 
-20.7256 -8.01854 -16.4786 -12.9246 -8.01854 -16.511 -5.12365 -8.01854 -18.2061 
2.67732 -8.01854 -17.0873 10.4783 -8.01854 -17.9537 18.2793 -8.01854 -17.062 
26.0803 -8.01854 -17.4814 33.8812 -8.01854 -17.7379 41.6822 -8.01854 -17.5516 
49.4832 -8.01854 -15.7213 57.2842 -8.01854 -12.3384 -51.9295 -0.217566 -12.9752 
-44.1285 -0.217566 -15.9104 -36.3276 -0.217566 -16.8214 -28.5266 -0.217566 -16.4495 
-20.7256 -0.217566 -15.2714 -12.9246 -0.217566 -14.9484 -5.12365 -0.217566 -16.1612 
10.4783 -0.217566 -17.9179 18.2793 -0.217566 -17.4003 26.0803 -0.217566 -17.2343 
33.8812 -0.217566 -17.5314 41.6822 -0.217566 -17.3787 49.4832 -0.217566 -15.6819 
57.2842 -0.217566 -12.6194 -44.1285 7.58341 -15.0692 -36.3276 7.58341 -16.5618 
-28.5266 7.58341 -16.6673 -20.7256 7.58341 -15.5027 -12.9246 7.58341 -14.2386 
-5.12365 7.58341 -16.3197 2.67732 7.58341 -15.2484 10.4783 7.58341 -15.3016 
18.2793 7.58341 -15.6003 26.0803 7.58341 -16.2231 33.8812 7.58341 -16.5593 
41.6822 7.58341 -16.2068 49.4832 7.58341 -15.0785 -44.1285 15.3844 -14.0889 
-36.3276 15.3844 -16.8534 -28.5266 15.3844 -17.0538 -20.7256 15.3844 -16.3599 
-12.9246 15.3844 -15.1994 -5.12365 15.3844 -13.7778 10.4783 15.3844 -13.025 
18.2793 15.3844 -14.9659 26.0803 15.3844 -15.8385 33.8812 15.3844 -16.1404 
41.6822 15.3844 -15.1398 49.4832 15.3844 -12.3367 -44.1285 23.1854 -11.7863 
-36.3276 23.1854 -15.2067 -28.5266 23.1854 -16.4892 -20.7256 23.1854 -17.2282 
-12.9246 23.1854 -16.0667 -5.12365 23.1854 -14.3486 2.67732 23.1854 -11.5667 
10.4783 23.1854 -11.6088 18.2793 23.1854 -13.9321 26.0803 23.1854 -14.7017 
33.8812 23.1854 -14.1199 41.6822 23.1854 -12.9923 -36.3276 30.9863 -13.3623 
-28.5266 30.9863 -15.9579 -20.7256 30.9863 -16.161 -12.9246 30.9863 -15.8341 
-5.12365 30.9863 -13.9439 18.2793 30.9863 -11.4752 26.0803 30.9863 -12.2493 
33.8812 30.9863 -11.5787 -28.5266 38.7873 -13.1494 -20.7256 38.7873 -14.6138 
-12.9246 38.7873 -14.3633 -5.12365 38.7873 -12.2649 -5.12365 -40.4372 -11.4065 
2.67732 -41.1784 -11.4065 10.4783 -42.8935 -11.4065 18.2793 -43.4301 -11.4065 
26.0803 -41.9631 -11.4065 -44.1285 -33.7732 -11.4065 -36.3276 -36.9934 -11.4065 
-36.3276 -39.2225 -8.51127 -28.5266 -38.3671 -11.4065 -28.5266 -39.2225 -10.6432 
-20.7256 -38.6707 -11.4065 -20.7256 -39.2225 -10.9942 -11.5941 -39.2225 -11.4065 
-12.9246 -38.8195 -11.4065 -12.9246 -39.2225 -11.172 32.3074 -39.2225 -11.4065 
33.8812 -38.4492 -11.4065 33.8812 -39.2225 -10.353 41.6822 -32.1526 -11.4065 
-46.8262 -31.4215 -11.4065 -51.9295 -25.4349 -11.4065 42.3964 -31.4215 -11.4065 
-53.153 -23.6205 -11.4065 48.9287 -23.6205 -11.4065 49.4832 -22.7623 -11.4065 
49.4832 -23.6205 -10.7415 -53.3976 -15.8195 -11.4065 54.378 -15.8195 -11.4065 
57.2842 -10.7461 -11.4065 57.2842 -15.8195 -6.68163 -54.6805 -8.01854 -11.4065 
-59.7305 -8.01854 -3.88801 2.67732 -1.13127 -11.4065 58.2329 -8.01854 -11.4065 
-53.9201 -0.217566 -11.4065 -51.9295 6.51107 -11.4065 1.30995 -0.217566 -11.4065 
3.53586 -0.217566 -11.4065 2.67732 1.13627 -11.4065 2.67732 -0.217566 -5.88146 
58.6313 -0.217566 -11.4065 57.2842 7.34074 -11.4065 -51.5102 7.58341 -11.4065 
-51.9295 7.58341 -11.0712 2.67732 15.0941 -11.4065 57.1849 7.58341 -11.4065 
57.2842 7.58341 -11.3266 -49.0879 15.3844 -11.4065 -51.9295 15.3844 -6.95696 
2.29312 15.3844 -11.4065 3.27409 15.3844 -11.4065 2.67732 18.7492 -11.4065 
2.67732 15.3844 -11.2831 51.1477 15.3844 -11.4065 49.4832 18.9047 -11.4065 
57.2842 15.3844 -5.96165 -44.6014 23.1854 -11.4065 -44.1285 24.3465 -11.4065 
2.67732 26.4282 -11.4065 10.4783 24.7094 -11.4065 46.3133 23.1854 -11.4065 
41.6822 28.3058 -11.4065 49.4832 23.1854 -9.85469 -40.4228 30.9863 -11.4065 
-44.1285 30.9863 -7.46112 -36.3276 36.7126 -11.4065 2.00385 30.9863 -11.4065 
2.67732 30.9863 -11.1783 17.6526 30.9863 -11.4065 10.4783 30.9863 -10.6965 
18.2793 31.1694 -11.4065 26.0803 33.3791 -11.4065 35.1744 30.9863 -11.4065 
33.8812 31.3239 -11.4065 41.6822 30.9863 -10.0029 -33.7485 38.7873 -11.4065 
-36.3276 38.7873 -9.9559 -28.5266 41.5294 -11.4065 -20.7256 43.8609 -11.4065 
-12.9246 43.6546 -11.4065 -2.88853 38.7873 -11.4065 -5.12365 40.8302 -11.4065 
2.67732 38.7873 -9.51465 10.4783 38.7873 -8.18581 18.2793 38.7873 -7.81866 
26.0803 38.7873 -8.29074 33.8812 38.7873 -6.65849 -28.5266 46.5883 -5.05735 
-20.7256 46.5883 -8.48101 -12.9246 46.5883 -8.76216 -5.12365 46.5883 -8.11992 
2.67732 46.5883 -5.64533 -36.3276 -41.4556 -3.6055 -28.5266 -43.6528 -3.6055 
-20.7256 -44.2151 -3.6055 -12.9246 -44.7662 -3.6055 -5.12365 -45.7726 -3.6055 
2.67732 -46.8597 -3.6055 10.4783 -46.9925 -3.6055 18.2793 -46.7542 -3.6055 
26.0803 -45.4576 -3.6055 33.8812 -42.5039 -3.6055 -41.1711 -39.2225 -3.6055 
-44.1285 -37.652 -3.6055 38.9472 -39.2225 -3.6055 41.6822 -36.997 -3.6055 
-51.6509 -31.4215 -3.6055 -51.9295 -31.0887 -3.6055 47.3897 -31.4215 -3.6055 
49.4832 -29.0433 -3.6055 -56.8185 -23.6205 -3.6055 53.4366 -23.6205 -3.6055 
57.2842 -17.617 -3.6055 -59.3292 -15.8195 -3.6055 -59.7305 -9.87552 -3.6055 
58.3249 -15.8195 -3.6055 57.2842 -15.8195 -1.1803 -59.8406 -8.01854 -3.6055 
-59.7305 -6.48121 -3.6055 -59.7305 -8.01854 -3.02824 61.0393 -8.01854 -3.6055 
-59.2362 -0.217566 -3.6055 61.9547 -0.217566 -3.6055 -56.4466 7.58341 -3.6055 
61.2019 7.58341 -3.6055 -53.1242 15.3844 -3.6055 -51.9295 18.211 -3.6055 
-51.9295 15.3844 2.31213 58.5545 15.3844 -3.6055 57.2842 17.6899 -3.6055 
57.2842 15.3844 1.68696 -49.7523 23.1854 -3.6055 53.8743 23.1854 -3.6055 
49.4832 29.1768 -3.6055 -45.9471 30.9863 -3.6055 -44.1285 33.7236 -3.6055 
47.4654 30.9863 -3.6055 41.6822 36.0697 -3.6055 -40.1679 38.7873 -3.6055 
-36.3276 42.3362 -3.6055 10.4783 45.5653 -3.6055 18.2793 43.3469 -3.6055 
26.0803 42.2956 -3.6055 38.0696 38.7873 -3.6055 33.8812 40.9463 -3.6055 
-29.6191 46.5883 -3.6055 -28.5266 47.1843 -3.6055 -20.7256 49.6499 -3.6055 
-12.9246 50.3171 -3.6055 -5.12365 49.7481 -3.6055 7.79849 46.5883 -3.6055 
2.67732 47.9815 -3.6055 10.4783 46.5883 -0.273721 -36.3276 -40.5869 4.19547 
-28.5266 -42.5131 4.19547 -20.7256 -43.2303 4.19547 -12.9246 -43.7997 4.19547 
-5.12365 -44.5171 4.19547 2.67732 -45.4053 4.19547 10.4783 -45.8821 4.19547 
18.2793 -45.1732 4.19547 26.0803 -43.2594 4.19547 33.8812 -40.1506 4.19547 
-39.2162 -39.2225 4.19547 -44.1285 -36.5237 4.19547 -36.3276 -39.2225 6.47937 
-28.5266 -39.2225 8.54364 -20.7256 -39.2225 9.38984 -12.9246 -39.2225 9.71599 
-5.12365 -39.2225 10.5349 26.0803 -39.2225 9.40934 35.2714 -39.2225 4.19547 
33.8812 -39.2225 5.38546 41.6822 -33.7609 4.19547 -50.2307 -31.4215 4.19547 
-51.9295 -29.2893 4.19547 -44.1285 -31.4215 11.0014 33.8812 -31.4215 11.4368 
43.8477 -31.4215 4.19547 41.6822 -31.4215 6.23714 49.4832 -24.2036 4.19547 
-55.5166 -23.6205 4.19547 -51.9295 -23.6205 9.04078 41.6822 -23.6205 9.92089 
49.8844 -23.6205 4.19547 49.4832 -23.6205 4.59296 -57.6692 -15.8195 4.19547 
-51.9295 -15.8195 10.0169 41.6822 -15.8195 11.7814 53.6616 -15.8195 4.19547 
49.4832 -15.8195 7.90038 57.2842 -9.21968 4.19547 -57.9556 -8.01854 4.19547 
-51.9295 -8.01854 10.0349 49.4832 -8.01854 10.6851 57.7595 -8.01854 4.19547 
57.2842 -8.01854 4.68597 -57.004 -0.217566 4.19547 -51.9295 -0.217566 9.03403 
49.4832 -0.217566 10.652 59.2478 -0.217566 4.19547 57.2842 -0.217566 6.29677 
-54.7097 7.58341 4.19547 -51.9295 14.4341 4.19547 -51.9295 7.58341 7.77984 
49.4832 7.58341 11.0581 59.3397 7.58341 4.19547 57.2842 13.5422 4.19547 
57.2842 7.58341 6.48394 -51.4245 15.3844 4.19547 -44.1285 15.3844 10.9625 
56.4299 15.3844 4.19547 49.4832 15.3844 10.1516 -48.4558 23.1854 4.19547 
-44.1285 23.1854 9.2655 53.024 23.1854 4.19547 49.4832 28.6024 4.19547 
49.4832 23.1854 8.33526 -45.6558 30.9863 4.19547 -44.1285 33.4107 4.19547 
-44.1285 30.9863 7.18109 47.3046 30.9863 4.19547 41.6822 36.569 4.19547 
41.6822 30.9863 8.83796 -39.8535 38.7873 4.19547 -36.3276 42.1362 4.19547 
-36.3276 38.7873 9.18997 18.2793 45.4783 4.19547 18.2793 38.7873 11.1854 
26.0803 43.6636 4.19547 26.0803 38.7873 9.49573 38.9463 38.7873 4.19547 
33.8812 41.4012 4.19547 33.8812 38.7873 8.41475 -29.2725 46.5883 4.19547 
-28.5266 46.9906 4.19547 -28.5266 46.5883 5.0563 -20.7256 49.5106 4.19547 
-20.7256 46.5883 8.74477 -12.9246 50.1767 4.19547 -12.9246 46.5883 9.75196 
-5.12365 50.2583 4.19547 -5.12365 46.5883 9.52061 2.67732 49.0875 4.19547 
2.67732 46.5883 8.01641 14.2691 46.5883 4.19547 10.4783 47.4926 4.19547 
10.4783 46.5883 6.01484 2.67732 -39.2846 11.9965 10.4783 -39.8162 11.9965 
18.2793 -39.3807 11.9965 -36.3276 -33.2063 11.9965 -28.5266 -35.8145 11.9965 
-20.7256 -36.3419 11.9965 -12.9246 -36.3441 11.9965 2.35407 -39.2225 11.9965 
-5.12365 -36.9501 11.9965 2.67732 -39.2225 12.0483 10.4783 -39.2225 12.5084 
[...]
POINT_DATA 530
SCALARS ImageScalars float
LOOKUP_TABLE default
0 0 0 0 0 0 0 0 0 
0 0 0 0 0 0 0 0 0 
0 0 0 0 0 0 0 0 0 
0 0 0 0 0 0 0 0 0 
0 0 0 0 0 0 0 0 0 
0 0 0 0 0 0 0 0 0 
0 0 0 0 0 0 0 0 0 
0 0 0 0 0 0 0 0 0 
0 0 0 0 0 0 0 0 0 
0 0 0 0 0 0 0 0 0 
0 0 0 0 0 0 0 0 0 
0 0 0 0 0 0 0 0 0 
0 0 0 0 0 0 0 0 0 
0 0 0 0 0 0 0 0 0 
0 0 0 0 0 0 0 0 0 
0 0 0 0 0 0 0 0 0 
0 0 0 0 0 0 0 0 0 
0 0 0 0 0 0 0 0 0 
0 0 0 0 0 0 0 0 0 
0 0 0 0 0 0 0 0 0 
0 0 0 0 0 0 0 0 0 
0 0 0 0 0 0 0 0 0 
0 0 0 0 0 0 0 0 0 
0 0 0 0 0 0 0 0 0 
0 0 0 0 0 0 0 0 0 
0 0 0 0 0 0 0 0 0 
0 0 0 0 0 0 0 0 0 
0 0 0 0 0 0 0 0 0 
0 0 0 0 0 0 0 0 0 
0 0 0 0 0 0 0 0 0 
0 0 0 0 0 0 0 0 0 
0 0 0 0 0 0 0 0 0 
0 0 0 0 0 0 0 0 0 
0 0 0 0 0 0 0 0 0 
0 0 0 0 0 0 0 0 0 
0 0 0 0 0 0 0 0 0 
0 0 0 0 0 0 0 0 0 
0 0 0 0 0 0 0 0 0 
0 0 0 0 0 0 0 0 0 
0 0 0 0 0 0 0 0 0 
0 0 0 0 0 0 0 0 0 
0 0 0 0 0 0 0 0 0 
0 0 0 0 0 0 0 0 0 
0 0 0 0 0 0 0 0 0 
0 0 0 0 0 0 0 0 0 
0 0 0 0 0 0 0 0 0 
0 0 0 0 0 0 0 0 0 
0 0 0 0 0 0 0 0 0 
0 0 0 0 0 0 0 0 0 
0 0 0 0 0 0 0 0 0 
0 0 0 0 0 0 0 0 0 
0 0 0 0 0 0 0 0 0 
0 0 0 0 0 0 0 0 0 
0 0 0 0 0 0 0 0 0 
0 0 0 0 0 0 0 0 0 
0 0 0 0 0 0 0 0 0 
0 0 0 0 0 0 0 0 0 
0 0 0 0 0 0 0 0 0 
0 0 0 0 0 0 0 0 
NORMALS Normals float
0.0950914 0.455019 0.88539 0.111213 0.479668 0.870374 0.107036 0.457092 0.882955 
-0.0332271 0.457835 0.888416 -0.201174 0.548521 0.811575 0.423142 0.488418 0.76315 
0.140638 0.403094 0.904288 0.0369405 0.37114 0.927842 -0.0713867 0.345234 0.935798 
-0.0726602 0.283278 0.956281 0.0464754 0.176256 0.983247 0.133911 0.162402 0.977596 
0.0771507 0.14275 0.986747 0.0416045 0.140256 0.989241 -0.0715948 0.237759 0.968682 
-0.244255 0.320519 0.915209 -0.53536 0.519256 0.666155 0.58067 0.292759 0.75968 
0.296495 0.150204 0.943149 0.174612 0.182028 0.967665 0.0327236 0.150063 0.988135 
-0.103585 0.152972 0.982787 -0.173418 0.155242 0.972536 -0.0224985 0.0942494 0.995294 
0.0952731 -0.00735878 0.995424 0.0759308 -0.0201007 0.99691 0.0511238 0.0166387 0.998554 
0.0330193 0.00888111 0.999415 -0.142481 0.12843 0.98143 -0.319699 0.225196 0.920369 
0.551941 0.0549981 0.832067 0.279232 0.076413 0.957178 0.149 -0.000711541 0.988837 
0.0221909 -0.0406567 0.998927 -0.0803038 -0.0783063 0.99369 -0.14546 0.0318909 0.98885 
-0.122203 0.198267 0.9725 0.0202499 0.0778973 0.996756 0.0984029 0.0723137 0.992516 
0.0784095 0.0147592 0.996812 0.0335508 0.0111082 0.999375 -0.030827 0.0262204 0.999181 
-0.131765 0.147488 0.980248 -0.429261 0.262715 0.864127 0.524282 0.0236522 0.851216 
0.206829 0.00649728 0.978355 0.049689 -0.0512154 0.997451 -0.0473217 -0.115113 0.992225 
-0.0347708 -0.174895 0.983973 0.106045 -0.126236 0.986316 0.0473225 0.0761032 0.995976 
-0.022517 -0.138685 0.990081 -0.00866453 0.14547 0.989325 -0.0218637 0.0418997 0.998883 
0.0431503 0.00907244 0.999027 0.00469149 0.0150956 0.999875 -0.138153 0.0498736 0.989154 
-0.301159 0.0388487 0.952782 -0.691145 0.184116 0.698871 0.529017 -0.124057 0.839495 
0.208474 -0.0700828 0.975514 0.0313567 -0.0441723 0.998532 -0.0985694 -0.024151 0.994837 
-0.0935304 -0.0580815 0.993921 0.0323225 -0.154701 0.987432 -0.19351 -0.15176 0.96929 
0.282514 -0.19143 0.939968 -0.0393125 -0.0967162 0.994535 0.00845934 -0.0798516 0.996771 
0.00952588 -0.0751213 0.997129 -0.126991 -0.0842478 0.98832 -0.294188 -0.0334287 0.955163 
-0.630981 -0.0627189 0.773259 0.294024 -0.114016 0.948973 0.0946643 0.000648084 0.995509 
-0.0674421 0.0384598 0.996982 -0.156647 0.0701082 0.985163 0.0351533 0.0208375 0.999165 
0.0884852 -0.176208 0.980368 -0.0726074 -0.00151484 0.997359 0.0221746 -0.274456 0.961344 
0.0582538 -0.154495 0.986275 0.0608538 -0.0889846 0.994172 -0.000206942 -0.0878201 0.996136 
-0.0831156 -0.152494 0.984803 -0.302652 -0.188462 0.934283 0.413761 -0.17403 0.893597 
0.182772 -0.07819 0.980041 -0.0327563 -0.0112671 0.9994 -0.116772 0.108665 0.987196 
-0.16176 0.114889 0.98012 -0.208845 -0.106938 0.972084 0.215071 -0.233925 0.948168 
0.166467 -0.10433 0.980512 0.0742304 -0.100469 0.992167 -0.051684 -0.149222 0.987452 
-0.2 -0.176202 0.963822 -0.455284 -0.27581 0.846549 0.561027 -0.297856 0.772354 
0.252692 -0.211783 0.944084 0.121117 -0.0668609 0.990384 -0.026813 -0.0124084 0.999563 
-0.180188 0.040277 0.982807 -0.289824 0.0119255 0.957006 -0.169985 -0.00943209 0.985402 
0.153589 -0.147474 0.977068 0.181366 -0.211668 0.960366 0.0125762 -0.215448 0.976434 
-0.0988977 -0.252671 0.962484 -0.236581 -0.312321 0.920046 0.380524 -0.268816 0.884839 
0.172234 -0.176495 0.969116 -0.00837557 -0.164334 0.986369 -0.133365 -0.11243 0.984669 
-0.295138 -0.121723 0.947669 0.0947407 -0.317138 0.943635 0.0127958 -0.350248 0.936569 
-0.10412 -0.389813 0.914989 0.253455 -0.460846 0.850518 0.0547653 -0.367771 0.928302 
-0.135831 -0.358376 0.923643 -0.32441 -0.295934 0.898432 0.0977505 0.527979 0.843613 
0.107021 0.589009 0.801009 0.104817 0.670198 0.734743 -0.0464367 0.729973 0.681897 
-0.238303 0.686513 0.686958 0.443884 0.600179 0.665397 0.219987 0.672437 0.706706 
0.300795 0.834513 0.461639 0.0654805 0.661754 0.746856 0.083184 0.724404 0.684339 
0.0160352 0.646171 0.763024 0.0243449 0.685419 0.727741 0.0758579 0.544001 0.835648 
0.0649533 0.546909 0.834669 0.0728732 0.571958 0.81704 -0.342159 0.678693 0.649848 
-0.36192 0.670932 0.647197 -0.390731 0.737922 0.550272 -0.54711 0.546542 0.634006 
0.525979 0.534985 0.661163 0.629648 0.358191 0.689378 -0.556663 0.534118 0.636273 
0.662595 0.302154 0.685326 -0.615774 0.408877 0.673529 -0.61817 0.411433 0.669767 
-0.661719 0.438406 0.608217 0.60428 0.0672743 0.793927 -0.628759 0.377545 0.679796 
-0.716574 0.260168 0.647174 -0.867388 0.443519 0.225673 0.637174 0.0209461 0.770435 
0.99229 -0.00573842 0.123804 0.285316 -0.324494 0.901831 -0.75134 0.187476 0.632725 
0.625138 -0.141823 0.767521 0.628986 -0.183051 0.755558 0.187838 -0.299762 0.935339 
0.400797 -0.268191 0.876034 0.265423 -0.214181 0.940041 0.560377 -0.257012 0.787352 
-0.727087 -0.0520362 0.684571 -0.619995 -0.258214 0.740899 0.624221 -0.18727 0.758471 
0.657992 -0.201346 0.725607 -0.0644084 -0.212619 0.97501 -0.614476 -0.264686 0.74321 
-0.622579 -0.265012 0.736318 0.633094 -0.264388 0.727524 0.873477 -0.3716 0.314565 
-0.0754743 -0.213251 0.974078 -0.0391135 -0.223099 0.974011 -0.115445 -0.120756 0.985946 
-0.0657 -0.216921 0.973976 -0.504588 -0.297366 0.810534 -0.482313 -0.31906 0.815828 
-0.829737 -0.449425 0.330989 0.581765 -0.311319 0.751418 0.581685 -0.321912 0.747004 
-0.18212 -0.058331 0.981545 0.125544 -0.158088 0.979412 -0.39882 -0.363658 0.841841 
-0.321167 -0.434491 0.841468 -0.563506 -0.425382 0.708174 0.538335 -0.360601 0.761684 
0.759148 -0.487474 0.431351 0.472062 -0.48549 0.735837 -0.205907 -0.131247 0.96973 
-0.197446 -0.131634 0.971436 0.088476 -0.308549 0.947085 0.020228 -0.209174 0.977669 
0.0944271 -0.322218 0.941944 -0.00417556 -0.423784 0.905753 -0.14825 -0.409407 0.900226 
-0.110895 -0.400241 0.909675 -0.412959 -0.541135 0.732555 0.427375 -0.533988 0.729525 
0.530873 -0.593997 0.604435 0.294797 -0.574384 0.763661 0.0662587 -0.616055 0.784911 
-0.0773132 -0.575864 0.813882 -0.309017 -0.277779 0.909586 -0.281526 -0.394682 0.874625 
-0.246537 -0.277402 0.928583 -0.114702 -0.47322 0.873445 -0.00569204 -0.646161 0.76318 
-0.050783 -0.691933 0.720174 -0.296761 -0.765713 0.570629 0.402551 -0.873751 0.272969 
0.103646 -0.816935 0.567341 -0.0174174 -0.770747 0.636903 -0.144324 -0.745665 0.650503 
-0.274688 -0.783394 0.55753 0.340267 0.927995 0.151801 0.173997 0.96973 0.171312 
0.0713246 0.978245 0.194808 0.100302 0.974302 0.201683 0.130607 0.977987 0.162738 
0.0761676 0.984102 0.160441 -0.00745488 0.994968 0.0999161 -0.0940036 0.993468 0.0646953 
-0.264798 0.963573 0.0375424 -0.453322 0.890012 0.0487627 0.451914 0.880224 0.144844 
0.530129 0.836699 0.137471 -0.589128 0.807731 0.0223192 -0.65596 0.754644 0.0151384 
0.751947 0.642605 0.147087 0.760842 0.632182 0.146508 -0.728464 0.685084 -0.0011669 
-0.766275 0.642465 -0.00779467 0.897465 0.42081 0.132194 -0.834261 0.551334 -0.00629633 
-0.885081 0.46323 -0.0452655 0.970811 0.184171 0.153644 0.992674 0.0381865 0.114633 
-0.899849 0.434204 -0.0417076 -0.868776 0.443927 -0.219445 0.994598 -0.00672828 0.103581 
0.99313 -0.0479735 0.106734 0.997829 -0.00698854 0.0654922 -0.971961 0.234059 -0.0225485 
0.969915 -0.212532 0.118725 -0.999576 0.0104256 0.0272015 0.92564 -0.361872 0.110627 
-0.969613 -0.221923 0.102964 0.91396 -0.399922 0.0688415 0.909579 -0.406414 0.0865672 
0.874492 -0.37315 -0.309877 -0.891621 -0.430681 0.139734 -0.868745 -0.468427 0.160805 
-0.865987 -0.401594 -0.297975 0.896622 -0.420575 0.138508 -0.813313 -0.537795 0.222033 
-0.702932 -0.659539 0.266263 0.840748 -0.509861 0.182169 0.808444 -0.555862 0.193481 
-0.661731 -0.698372 0.272745 -0.580223 -0.756396 0.302004 0.716349 -0.668388 0.200254 
0.605816 -0.768543 0.205741 -0.237303 -0.817866 0.524197 -0.160036 -0.83342 0.528961 
-0.14836 -0.889641 0.43189 -0.45795 -0.818798 0.346195 -0.314754 -0.880308 0.354947 
0.433306 -0.881994 0.185287 0.40784 -0.894625 0.182516 0.197311 -0.945563 0.258803 
0.00625644 -0.955361 0.295373 -0.154359 -0.914293 0.374489 -0.247058 -0.844477 0.475206 
-0.259403 -0.872753 0.413536 -0.255245 -0.936968 0.238623 0.328121 0.882984 -0.335671 
0.165242 0.909365 -0.381773 0.0756425 0.924262 -0.374189 0.0750015 0.921364 -0.381396 
0.0932046 0.914836 -0.392923 0.0780575 0.920318 -0.383304 -0.014048 0.936848 -0.349455 
-0.142467 0.914097 -0.379645 -0.283619 0.85213 -0.439811 -0.453176 0.75892 -0.467623 
0.398246 0.85152 -0.341048 0.523061 0.77675 -0.350808 0.320062 0.828653 -0.459233 
0.118735 0.783557 -0.609869 0.0541451 0.758211 -0.649757 0.0540272 0.705392 -0.706755 
0.108331 0.632777 -0.766719 -0.292134 0.697346 -0.654497 -0.485457 0.736836 -0.470536 
-0.452538 0.721705 -0.523786 -0.620111 0.597395 -0.508509 0.697191 0.617851 -0.363572 
0.747719 0.548199 -0.374692 0.454996 0.511273 -0.729094 -0.454702 0.402568 -0.794472 
-0.644828 0.553721 -0.526868 -0.601375 0.507996 -0.616675 -0.682205 0.429899 -0.591425 
0.838296 0.383087 -0.387949 0.668778 0.324251 -0.669027 -0.512247 0.298542 -0.80528 
-0.684397 0.423782 -0.593304 -0.671793 0.41791 -0.611593 0.878214 0.14406 -0.456055 
0.661796 0.0426337 -0.748471 -0.34768 0.180412 -0.920092 -0.686712 0.354248 -0.634771 
-0.573492 0.304845 -0.760379 -0.722861 0.290765 -0.626839 0.88254 -0.0272473 -0.469447 
0.657753 -0.0441966 -0.751936 -0.470093 0.121487 -0.874216 -0.735653 0.267476 -0.622312 
-0.715309 0.266198 -0.64612 0.833807 -0.204719 -0.512695 0.663689 -0.121876 -0.738013 
-0.432794 0.0228453 -0.901203 -0.81884 0.0882371 -0.567199 -0.700972 0.0989654 -0.706289 
0.841311 -0.289171 -0.456701 0.832666 -0.340347 -0.436843 0.725759 -0.231203 -0.647934 
-0.438096 -0.021259 -0.898677 -0.853089 -0.163127 -0.495609 -0.804113 -0.314112 -0.504713 
-0.734771 -0.148294 -0.661907 0.829145 -0.34609 -0.439021 0.589918 -0.192311 -0.784228 
-0.7948 -0.346118 -0.498494 -0.625014 -0.145364 -0.766959 0.862007 -0.325781 -0.388343 
0.726954 -0.165415 -0.666465 -0.817568 -0.427562 -0.38571 -0.749892 -0.569286 -0.33701 
-0.688858 -0.329865 -0.645495 0.861484 -0.433761 -0.264001 0.829964 -0.496521 -0.25422 
0.81557 -0.395874 -0.422054 -0.699686 -0.639814 -0.317926 -0.61172 -0.73781 -0.285368 
-0.538399 -0.548684 -0.639588 0.706852 -0.656181 -0.264173 0.607764 -0.751592 -0.256383 
0.590918 -0.609694 -0.528289 -0.219588 -0.958223 -0.183275 -0.178898 -0.497272 -0.84895 
-0.265686 -0.928672 -0.258804 -0.150414 -0.699516 -0.698608 -0.526619 -0.808975 -0.261211 
-0.367563 -0.896357 -0.247874 -0.306061 -0.757196 -0.577045 0.428056 -0.872962 -0.233891 
0.410913 -0.881054 -0.234296 0.406334 -0.870611 -0.277361 0.199302 -0.937574 -0.285015 
0.15361 -0.830747 -0.535035 0.0485724 -0.957738 -0.283511 0.0329226 -0.806734 -0.589997 
-0.0733475 -0.965068 -0.251524 -0.0784678 -0.783724 -0.616132 -0.185666 -0.954767 -0.232269 
-0.145993 -0.83935 -0.523619 -0.233352 -0.958377 -0.164501 -0.241618 -0.957304 -0.158713 
-0.22737 -0.92253 -0.311835 0.0949589 0.615304 -0.782549 0.00418837 0.652354 -0.757903 
-0.135155 0.682452 -0.718326 0.240948 0.508646 -0.826573 0.110838 0.606099 -0.787628 
0.0232476 0.607917 -0.79366 0.0180078 0.557645 -0.829884 0.0956859 0.612304 -0.784811 
0.0963607 0.526077 -0.84496 0.0952427 0.612884 -0.784412 0.00825707 0.631374 -0.775434 
-0.145234 0.677608 -0.72094 -0.134772 0.677257 -0.723298 -0.306321 0.566728 -0.764844 
0.356903 0.472143 -0.80604 0.424382 0.41089 -0.806889 0.22698 0.442587 -0.867524 
0.124778 0.429992 -0.894169 -0.00533705 0.410496 -0.911847 -0.0263063 0.395555 -0.918065 
0.0702197 0.372937 -0.925196 0.145739 0.349238 -0.925631 0.0497033 0.337911 -0.939865 
-0.115743 0.371389 -0.921235 -0.434509 0.400551 -0.806698 -0.308653 0.412043 -0.857295 
-0.450979 0.35753 -0.817796 0.469726 0.267862 -0.841194 0.389458 0.245268 -0.887787 
0.198454 0.272341 -0.941513 0.0808163 0.213575 -0.973578 0.000673843 0.192399 -0.981317 
-0.0160448 0.20043 -0.979577 0.0516044 0.281745 -0.958101 0.0962406 0.200737 -0.974906 
0.0683763 0.118475 -0.9906 -0.063143 0.156543 -0.985651 -0.300574 0.172818 -0.937971 
-0.475548 0.235712 -0.847522 -0.431195 0.191126 -0.881783 0.560947 0.0616438 -0.825553 
0.404763 0.0911432 -0.909868 0.208583 0.0780895 -0.974882 0.0562 0.0850755 -0.994788 
-0.0147921 0.093941 -0.995468 0.0715409 0.0712628 -0.994889 0.0897232 0.231164 -0.968769 
-0.022266 0.151055 -0.988275 0.00422708 -0.0083424 -0.999956 -0.0613133 0.0142912 -0.998016 
-0.278425 -0.00155756 -0.960457 -0.347725 0.17374 -0.921359 -0.3874 0.0822632 -0.918234 
-0.334698 0.169964 -0.926871 0.564654 -0.0445065 -0.824127 0.392305 -0.0467793 -0.918645 
0.216184 -0.032152 -0.975823 0.0889861 0.00737852 -0.996006 -0.0160585 0.0569176 -0.99825 
0.109194 0.0750158 -0.991186 -0.059054 -0.0172746 -0.998105 -0.0575163 0.000528915 -0.998344 
-0.256034 -0.0173787 -0.966512 -0.279698 0.0502813 -0.958771 -0.379372 0.105055 -0.919261 
-0.28156 0.11155 -0.953037 0.530009 -0.137226 -0.836815 0.417345 -0.15418 -0.895573 
0.254598 -0.0951684 -0.962353 0.143354 -0.0410405 -0.98882 0.0530255 0.00408808 -0.998585 
0.0376576 0.023518 -0.999014 -0.0174396 -0.0747759 -0.997048 -0.0637536 -0.0538268 -0.996513 
0.0357081 -0.00383647 -0.999355 -0.0579469 -0.0115361 -0.998253 -0.237614 0.0315278 -0.970848 
-0.258226 0.0609667 -0.964159 -0.367813 0.0272262 -0.929501 -0.303943 0.0602246 -0.950785 
0.48869 -0.187628 -0.852043 0.510202 -0.18285 -0.840393 0.443406 -0.173294 -0.879409 
0.305291 -0.0831385 -0.948623 0.188829 -0.0233553 -0.981732 0.0471646 -0.0123488 -0.998811 
0.0387082 -0.0380906 -0.998524 0.0624226 -0.0638865 -0.996003 -0.0695588 -0.118849 -0.990473 
-0.0247419 -0.164151 -0.986125 -0.0247281 -0.109344 -0.993696 -0.177013 0.00369431 -0.984202 
-0.242925 0.0536975 -0.968558 -0.390662 0.0183115 -0.920352 -0.310917 0.0727257 -0.947651 
0.543006 -0.158931 -0.824552 0.397286 -0.0534658 -0.916136 0.196697 0.0220508 -0.980216 
0.0423693 0.0245469 -0.9988 -0.0119351 0.0292555 -0.999501 -0.0983221 -0.0696648 -0.992713 
-0.171621 -0.2231 -0.959569 0.0518806 -0.218931 -0.97436 0.10521 -0.2023 -0.973656 
-0.0719441 -0.111486 -0.991158 -0.208036 -0.0444145 -0.977112 -0.529226 -0.093512 -0.843312 
-0.351212 -0.0151653 -0.936173 0.600888 -0.106157 -0.792252 0.466243 -0.0992208 -0.879075 
0.251605 -0.012111 -0.967754 0.0514344 -0.0201962 -0.998472 -0.0550529 -0.01359 -0.998391 
-0.190721 -0.0794047 -0.978428 -0.218496 -0.0797031 -0.972577 -0.0153466 -0.13255 -0.991057 
0.0850243 -0.190666 -0.977966 -0.0236817 -0.225186 -0.974028 -0.142162 -0.222135 -0.964596 
-0.461412 -0.317433 -0.828454 -0.41868 -0.386043 -0.821996 -0.395155 -0.31165 -0.864134 
0.588376 -0.296506 -0.752262 0.525292 -0.423475 -0.738064 0.486624 -0.26401 -0.832764 
0.274128 -0.247714 -0.929242 0.038823 -0.216774 -0.97545 -0.0678055 -0.174268 -0.982361 
-0.185947 -0.189314 -0.964149 -0.213176 -0.177135 -0.960822 -0.0633979 -0.14145 -0.987913 
-0.136418 -0.420881 -0.896799 0.0125403 -0.288364 -0.957439 -0.0894576 -0.4957 -0.863874 
-0.0831865 -0.365551 -0.927067 -0.335782 -0.382085 -0.860965 -0.264385 -0.439926 -0.858234 
-0.265642 -0.345992 -0.899846 0.431479 -0.547597 -0.716912 0.31264 -0.618141 -0.72122 
0.290707 -0.520374 -0.802932 0.120711 -0.664006 -0.737919 0.125284 -0.481159 -0.867634 
0.0142655 -0.679382 -0.733646 -0.0238578 -0.430219 -0.902409 -0.111912 -0.60018 -0.791997 
-0.1639 -0.393694 -0.904512 -0.123608 -0.471264 -0.873288 -0.142385 -0.372342 -0.917108 
-0.150026 -0.408207 -0.900477 -0.125458 -0.43485 -0.891721 -0.11977 -0.339755 -0.932857 
0.103096 0.184557 -0.9774 -0.0652938 0.0946543 -0.993367 0.134395 0.0417312 -0.990049 
-0.0115324 -0.0715173 -0.997373 0.150446 0.0134674 -0.988527 -0.121495 -0.0261313 -0.992248 
-0.109374 -0.0413518 -0.99314 -0.155681 -0.0308946 -0.987324 
