# vtk DataFile Version 4.2
vtk output
ASCII
DATASET POLYDATA
POINTS 554 float
-23.8073 -32.9153 -12.2453 8.83573 -32.9153 -12.8912 16.9965 -32.9153 -12.9436 
25.1572 -32.9153 -12.7437 -40.1288 -24.7545 -14.2074 -31.968 -24.7545 -14.31 
-23.8073 -24.7545 -14.3055 -15.6465 -24.7545 -13.6276 -7.48578 -24.7545 -12.9686 
0.674976 -24.7545 -12.9291 8.83573 -24.7545 -14.3928 16.9965 -24.7545 -15.1006 
25.1572 -24.7545 -15.3406 33.318 -24.7545 -14.8115 41.4787 -24.7545 -13.2161 
-48.2896 -16.5937 -14.7726 -40.1288 -16.5937 -15.8272 -31.968 -16.5937 -16.0428 
-23.8073 -16.5937 -15.5736 -15.6465 -16.5937 -14.3775 -7.48578 -16.5937 -13.3241 
0.674976 -16.5937 -13.0457 8.83573 -16.5937 -14.5478 16.9965 -16.5937 -15.909 
25.1572 -16.5937 -16.7535 33.318 -16.5937 -17.2165 41.4787 -16.5937 -16.7381 
49.6395 -16.5937 -14.9554 -56.4503 -8.43299 -12.1494 -48.2896 -8.43299 -15.5853 
-40.1288 -8.43299 -17.3501 -31.968 -8.43299 -16.6751 -23.8073 -8.43299 -15.4617 
-15.6465 -8.43299 -14.308 -7.48578 -8.43299 -14.6243 0.674976 -8.43299 -15.626 
8.83573 -8.43299 -17.0313 16.9965 -8.43299 -15.9112 25.1572 -8.43299 -17.5909 
33.318 -8.43299 -18.3979 41.4787 -8.43299 -18.2419 49.6395 -8.43299 -16.7525 
57.8003 -8.43299 -13.2138 -56.4503 -0.272235 -14.3485 -48.2896 -0.272235 -16.8611 
-40.1288 -0.272235 -17.6051 -31.968 -0.272235 -17.1441 -23.8073 -0.272235 -15.5911 
-15.6465 -0.272235 -13.4523 -7.48578 -0.272235 -18.2719 8.83573 -0.272235 -20.0282 
16.9965 -0.272235 -16.1161 25.1572 -0.272235 -17.5754 33.318 -0.272235 -18.3749 
41.4787 -0.272235 -18.5177 49.6395 -0.272235 -17.0336 57.8003 -0.272235 -12.9591 
-56.4503 7.88852 -15.0046 -48.2896 7.88852 -17.2814 -40.1288 7.88852 -18.3769 
-31.968 7.88852 -18.246 -23.8073 7.88852 -16.6999 -15.6465 7.88852 -14.6968 
-7.48578 7.88852 -17.3881 0.674976 7.88852 -16.6976 8.83573 7.88852 -19.4296 
16.9965 7.88852 -17.1137 25.1572 7.88852 -18.0518 33.318 7.88852 -19.0939 
41.4787 7.88852 -18.8721 49.6395 7.88852 -17.3614 57.8003 7.88852 -13.6549 
-56.4503 16.0493 -14.8099 -48.2896 16.0493 -17.4253 -40.1288 16.0493 -18.7813 
-31.968 16.0493 -18.9212 -23.8073 16.0493 -17.6522 -15.6465 16.0493 -16.0913 
-7.48578 16.0493 -15.981 0.674976 16.0493 -17.6079 8.83573 16.0493 -17.7491 
16.9965 16.0493 -17.3247 25.1572 16.0493 -18.242 33.318 16.0493 -19.1244 
41.4787 16.0493 -19.568 49.6395 16.0493 -17.4434 57.8003 16.0493 -12.6617 
-56.4503 24.21 -13.6875 -48.2896 24.21 -16.4693 -40.1288 24.21 -19.2461 
-31.968 24.21 -18.6109 -23.8073 24.21 -18.8901 -15.6465 24.21 -17.8853 
-7.48578 24.21 -18.091 0.674976 24.21 -19.1405 8.83573 24.21 -18.8261 
16.9965 24.21 -17.7034 25.1572 24.21 -17.5903 33.318 24.21 -17.8887 
41.4787 24.21 -17.1372 49.6395 24.21 -15.4897 -48.2896 32.3708 -13.5624 
-40.1288 32.3708 -16.639 -31.968 32.3708 -18.8379 -23.8073 32.3708 -18.2801 
-15.6465 32.3708 -19.0324 -7.48578 32.3708 -19.1651 0.674976 32.3708 -19.8547 
8.83573 32.3708 -19.524 16.9965 32.3708 -17.1853 25.1572 32.3708 -16.4461 
33.318 32.3708 -15.2107 41.4787 32.3708 -14.0765 -31.968 40.5315 -15.2767 
-23.8073 40.5315 -17.2202 -15.6465 40.5315 -19.0545 -7.48578 40.5315 -18.5559 
0.674976 40.5315 -18.9531 8.83573 40.5315 -18.3111 16.9965 40.5315 -15.8811 
-15.6465 48.6923 -13.5367 -7.48578 48.6923 -14.9112 0.674976 48.6923 -14.9327 
8.83573 48.6923 -13.2876 -31.968 -41.076 -6.20689 -23.8073 -33.7159 -11.9655 
-23.8073 -41.076 -8.12638 -15.6465 -41.076 -8.38905 -7.48578 -41.076 -8.60337 
0.674976 -41.076 -8.37141 8.83573 -34.8055 -11.9655 8.83573 -41.076 -8.38317 
16.9965 -34.8808 -11.9655 16.9965 -41.076 -8.08921 25.1572 -34.2772 -11.9655 
25.1572 -41.076 -5.63659 -48.2896 -32.9153 -6.70864 -40.1288 -30.8397 -11.9655 
-40.1288 -32.9153 -10.7483 -27.828 -32.9153 -11.9655 -31.968 -31.9765 -11.9655 
-31.968 -32.9153 -11.6297 -18.6824 -32.9153 -11.9655 -15.6465 -32.1591 -11.9655 
-15.6465 -32.9153 -11.7971 -7.48578 -31.4515 -11.9655 -7.48578 -32.9153 -11.7384 
2.18255 -32.9153 -11.9655 0.674976 -31.5452 -11.9655 0.674976 -32.9153 -11.7633 
27.8198 -32.9153 -11.9655 33.318 -29.8201 -11.9655 33.318 -32.9153 -9.68251 
41.4787 -26.6372 -11.9655 41.4787 -32.9153 -6.41071 -56.4503 -24.7545 -6.20568 
-46.5691 -24.7545 -11.9655 -48.2896 -23.0762 -11.9655 -48.2896 -24.7545 -11.2046 
44.9054 -24.7545 -11.9655 49.6395 -21.6786 -11.9655 49.6395 -24.7545 -9.86122 
-55.6139 -16.5937 -11.9655 -56.4503 -11.261 -11.9655 -56.4503 -16.5937 -11.5228 
55.3857 -16.5937 -11.9655 57.8003 -12.7865 -11.9655 57.8003 -16.5937 -10.4178 
-56.7032 -8.43299 -11.9655 0.674976 -0.980269 -11.9655 59.2481 -8.43299 -11.9655 
-59.6852 -0.272235 -11.9655 0.152432 -0.272235 -11.9655 1.06121 -0.272235 -11.9655 
0.674976 0.281303 -11.9655 0.674976 -0.272235 -11.5514 58.9113 -0.272235 -11.9655 
-60.2729 7.88852 -11.9655 59.7617 7.88852 -11.9655 -59.5864 16.0493 -11.9655 
58.4987 16.0493 -11.9655 57.8003 18.3988 -11.9655 -58.1365 24.21 -11.9655 
-56.4503 26.6079 -11.9655 54.7589 24.21 -11.9655 49.6395 30.2885 -11.9655 
57.8003 24.21 -6.74352 -50.1316 32.3708 -11.9655 -48.2896 34.0825 -11.9655 
-40.1288 40.2715 -11.9655 25.1572 40.5168 -11.9655 33.318 36.8999 -11.9655 
46.6019 32.3708 -11.9655 41.4787 34.3809 -11.9655 49.6395 32.3708 -8.49113 
-39.7354 40.5315 -11.9655 -40.1288 40.5315 -9.52825 -31.968 45.364 -11.9655 
-23.8073 48.0388 -11.9655 25.14 40.5315 -11.9655 16.9965 45.4386 -11.9655 
25.1572 40.5315 -11.9491 33.318 40.5315 -5.02157 -21.8432 48.6923 -11.9655 
-23.8073 48.6923 -6.78891 -15.6465 50.0365 -11.9655 -7.48578 51.3053 -11.9655 
0.674976 51.1514 -11.9655 11.4252 48.6923 -11.9655 8.83573 49.7779 -11.9655 
-31.968 -43.2099 -3.80478 -23.8073 -45.0011 -3.80478 -15.6465 -46.5534 -3.80478 
-15.6465 -49.2368 4.19742 -7.48578 -46.7901 -3.80478 0.674976 -45.91 -3.80478 
8.83573 -45.4082 -3.80478 16.9965 -44.6462 -3.80478 25.1572 -42.3223 -3.80478 
-48.2896 -35.1771 -3.80478 -38.3504 -41.076 -3.80478 -40.1288 -40.2255 -3.80478 
-40.1288 -41.076 -1.84241 27.7395 -41.076 -3.80478 33.318 -38.0571 -3.80478 
41.4787 -34.7416 -3.80478 -51.0055 -32.9153 -3.80478 -56.4503 -26.9471 -3.80478 
44.6955 -32.9153 -3.80478 49.6395 -29.8401 -3.80478 -57.9823 -24.7545 -3.80478 
56.1943 -24.7545 -3.80478 57.8003 -23.1879 -3.80478 57.8003 -24.7545 0.57591 
-61.5721 -16.5937 -3.80478 62.2762 -16.5937 -3.80478 -63.6493 -8.43299 -3.80478 
64.416 -8.43299 -3.80478 -64.4892 -0.272235 -3.80478 64.4015 -0.272235 -3.80478 
-64.419 7.88852 -3.80478 64.1591 7.88852 -3.80478 -62.783 16.0493 -3.80478 
61.9223 16.0493 -3.80478 -58.213 24.21 -3.80478 -56.4503 26.4008 -3.80478 
-56.4503 24.21 -0.471155 58.8179 24.21 -3.80478 57.8003 25.6623 -3.80478 
57.8003 24.21 -0.988263 -51.2627 32.3708 -3.80478 -48.2896 35.0537 -3.80478 
-48.2896 32.3708 -0.0968453 41.4787 37.8352 -3.80478 51.5189 32.3708 -3.80478 
49.6395 33.7218 -3.80478 49.6395 32.3708 -0.383902 -40.7418 40.5315 -3.80478 
-40.1288 40.9791 -3.80478 -40.1288 40.5315 -3.20045 -31.968 45.8053 -3.80478 
-31.968 40.5315 3.0593 16.9965 47.9678 -3.80478 25.1572 44.2025 -3.80478 
25.1572 40.5315 3.79129 34.5284 40.5315 -3.80478 33.318 41.0058 -3.80478 
33.318 40.5315 -2.48749 -24.4772 48.6923 -3.80478 -23.8073 48.9296 -3.80478 
-23.8073 48.6923 -3.41486 -15.6465 50.7765 -3.80478 -15.6465 48.6923 -1.2368 
-7.48578 51.6095 -3.80478 -7.48578 48.6923 -0.150019 0.674976 51.3985 -3.80478 
0.674976 48.6923 -0.477006 14.4727 48.6923 -3.80478 8.83573 50.2345 -3.80478 
8.83573 48.6923 -1.12417 -15.6465 -49.2755 4.35597 -40.1288 -42.8086 4.35597 
-31.968 -46.0311 4.35597 -15.9581 -49.2368 4.35597 -23.8073 -48.2412 4.35597 
-15.1356 -49.2368 4.35597 -15.6465 -49.2368 4.45342 -7.48578 -48.6313 4.35597 
0.674976 -48.1287 4.35597 8.83573 -46.9935 4.35597 16.9965 -46.0822 4.35597 
25.1572 -43.995 4.35597 -43.0095 -41.076 4.35597 -48.2896 -37.4752 4.35597 
-40.1288 -41.076 9.03675 32.2525 -41.076 4.35597 25.1572 -41.076 11.4367 
33.318 -40.6212 4.35597 41.4787 -37.0437 4.35597 -53.0532 -32.9153 4.35597 
-56.4503 -28.2149 4.35597 -48.2896 -32.9153 11.1833 48.8153 -32.9153 4.35597 
49.6395 -32.3674 4.35597 57.8003 -26.1432 4.35597 -58.5274 -24.7545 4.35597 
-56.4503 -24.7545 9.2742 58.9037 -24.7545 4.35597 57.8003 -24.7545 8.83826 
-61.2168 -16.5937 4.35597 -56.4503 -16.5937 11.4341 63.4597 -16.5937 4.35597 
-61.4796 -8.43299 4.35597 -56.4503 -8.43299 11.3971 65.1951 -8.43299 4.35597 
-62.096 -0.272235 4.35597 -56.4503 -0.272235 11.7433 63.9423 -0.272235 4.35597 
-60.2763 7.88852 4.35597 -56.4503 7.88852 8.29983 62.3794 7.88852 4.35597 
57.8003 7.88852 10.7636 -58.2408 16.0493 4.35597 -56.4503 19.3451 4.35597 
-56.4503 16.0493 5.99074 -48.2896 16.0493 10.0312 59.9925 16.0493 4.35597 
57.8003 20.618 4.35597 57.8003 16.0493 7.2789 -52.7015 24.21 4.35597 
-48.2896 28.095 4.35597 -48.2896 24.21 6.89786 -40.1288 24.21 9.27909 
-31.968 24.21 11.3104 41.4787 24.21 12.0343 54.936 24.21 4.35597 
49.6395 29.4894 4.35597 49.6395 24.21 8.91704 -42.3892 32.3708 4.35597 
-40.1288 33.8528 4.35597 -40.1288 32.3708 5.46899 -31.968 38.6121 4.35597 
-31.968 32.3708 7.48595 -23.8073 32.3708 9.78214 -15.6465 32.3708 11.0445 
-7.48578 32.3708 11.1722 0.674976 32.3708 11.1482 8.83573 32.3708 11.4532 
16.9965 32.3708 10.4267 25.1572 40.1254 4.35597 25.1572 32.3708 9.80146 
33.318 36.8571 4.35597 33.318 32.3708 8.88105 45.1456 32.3708 4.35597 
41.4787 34.0308 4.35597 41.4787 32.3708 6.31093 -27.8042 40.5315 4.35597 
-23.8073 41.8105 4.35597 -23.8073 40.5315 5.398 -15.6465 43.7669 4.35597 
-15.6465 40.5315 6.85245 -7.48578 44.1714 4.35597 -7.48578 40.5315 6.88989 
0.674976 44.0125 4.35597 0.674976 40.5315 6.83805 8.83573 43.9913 4.35597 
8.83573 40.5315 6.95724 23.7851 40.5315 4.35597 16.9965 42.3258 4.35597 
16.9965 40.5315 6.0309 -31.968 -42.7554 12.5167 -23.8073 -45.3891 12.5167 
-15.6465 -45.3735 12.5167 -7.48578 -44.2941 12.5167 0.674976 -42.9105 12.5167 
8.83573 -42.6219 12.5167 16.9965 -42.1207 12.5167 -35.9927 -41.076 12.5167 
-40.1288 -39.0628 12.5167 -31.968 -41.076 14.0297 -23.8073 -41.076 16.1248 
-15.6465 -41.076 16.7908 -7.48578 -41.076 15.2656 0.674976 -41.076 14.3198 
[...]
POINT_DATA 554
SCALARS ImageScalars float
LOOKUP_TABLE default
0 0 0 0 0 0 0 0 0 
0 0 0 0 0 0 0 0 0 
0 0 0 0 0 0 0 0 0 
0 0 0 0 0 0 0 0 0 
0 0 0 0 0 0 0 0 0 
0 0 0 0 0 0 0 0 0 
0 0 0 0 0 0 0 0 0 
0 0 0 0 0 0 0 0 0 
0 0 0 0 0 0 0 0 0 
0 0 0 0 0 0 0 0 0 
0 0 0 0 0 0 0 0 0 
0 0 0 0 0 0 0 0 0 
0 0 0 0 0 0 0 0 0 
0 0 0 0 0 0 0 0 0 
0 0 0 0 0 0 0 0 0 
0 0 0 0 0 0 0 0 0 
0 0 0 0 0 0 0 0 0 
0 0 0 0 0 0 0 0 0 
0 0 0 0 0 0 0 0 0 
0 0 0 0 0 0 0 0 0 
0 0 0 0 0 0 0 0 0 
0 0 0 0 0 0 0 0 0 
0 0 0 0 0 0 0 0 0 
0 0 0 0 0 0 0 0 0 
0 0 0 0 0 0 0 0 0 
0 0 0 0 0 0 0 0 0 
0 0 0 0 0 0 0 0 0 
0 0 0 0 0 0 0 0 0 
0 0 0 0 0 0 0 0 0 
0 0 0 0 0 0 0 0 0 
0 0 0 0 0 0 0 0 0 
0 0 0 0 0 0 0 0 0 
0 0 0 0 0 0 0 0 0 
0 0 0 0 0 0 0 0 0 
0 0 0 0 0 0 0 0 0 
0 0 0 0 0 0 0 0 0 
0 0 0 0 0 0 0 0 0 
0 0 0 0 0 0 0 0 0 
0 0 0 0 0 0 0 0 0 
0 0 0 0 0 0 0 0 0 
0 0 0 0 0 0 0 0 0 
0 0 0 0 0 0 0 0 0 
0 0 0 0 0 0 0 0 0 
0 0 0 0 0 0 0 0 0 
0 0 0 0 0 0 0 0 0 
0 0 0 0 0 0 0 0 0 
0 0 0 0 0 0 0 0 0 
0 0 0 0 0 0 0 0 0 
0 0 0 0 0 0 0 0 0 
0 0 0 0 0 0 0 0 0 
0 0 0 0 0 0 0 0 0 
0 0 0 0 0 0 0 0 0 
0 0 0 0 0 0 0 0 0 
0 0 0 0 0 0 0 0 0 
0 0 0 0 0 0 0 0 0 
0 0 0 0 0 0 0 0 0 
0 0 0 0 0 0 0 0 0 
0 0 0 0 0 0 0 0 0 
0 0 0 0 0 0 0 0 0 
0 0 0 0 0 0 0 0 0 
0 0 0 0 0 0 0 0 0 
0 0 0 0 0 
NORMALS Normals float
0.00599441 0.303086 0.952945 0.0699039 0.315113 0.946476 -0.00925486 0.352002 0.935954 
-0.143539 0.432761 0.890008 0.159685 0.281236 0.946259 0.00603897 0.244051 0.969744 
-0.0417667 0.206784 0.977495 -0.0806037 0.152599 0.984996 -0.0423898 0.0940308 0.994666 
0.0851449 0.0753885 0.993512 0.132908 0.0952634 0.98654 0.0579215 0.171212 0.98353 
-0.0153529 0.243492 0.969781 -0.11571 0.381754 0.916993 -0.247527 0.492467 0.83439 
0.262686 0.244865 0.933294 0.0677592 0.192792 0.978897 -0.0156211 0.139915 0.99004 
-0.100585 0.0691117 0.992525 -0.137482 0.0414508 0.989637 -0.0794718 0.0976201 0.992046 
0.0740939 0.156415 0.984908 0.172515 0.130731 0.976293 0.133473 0.048262 0.989877 
0.0785245 0.138473 0.987248 0.00100152 0.206957 0.978349 -0.117313 0.277317 0.953589 
-0.337263 0.35534 0.871772 0.528422 0.123478 0.839955 0.263597 0.111924 0.958118 
0.0652439 0.108533 0.99195 -0.113254 0.0667003 0.991325 -0.143885 0.00105797 0.989594 
-0.0528121 -0.0489406 0.997404 0.0773854 0.249803 0.9652 0.141774 0.0203794 0.989689 
0.0182014 0.326877 0.944891 0.0488462 0.013063 0.998721 0.145235 0.0499676 0.988135 
0.0395167 0.0694204 0.996805 -0.0998412 0.101352 0.989828 -0.290524 0.103824 0.951218 
-0.605035 0.12077 0.786986 0.496035 0.163836 0.852706 0.147877 0.103996 0.983523 
0.0136605 0.0608798 0.998052 -0.122137 0.0894857 0.988471 -0.207659 0.0761934 0.975229 
0.10542 0.020075 0.994225 0.0306432 0.221284 0.974728 0.042902 0.124697 0.991267 
-0.120239 0.0769794 0.989756 0.142684 0.0274428 0.989388 0.054953 0.0415659 0.997623 
-0.0780142 0.038634 0.996203 -0.287434 0.036501 0.957105 -0.608784 0.0197408 0.79309 
0.52123 0.0205855 0.853168 0.171173 0.0323619 0.984709 0.0567498 0.0724852 0.995754 
-0.105433 0.113021 0.987983 -0.199605 0.125639 0.971788 -0.0258742 0.160788 0.98665 
0.143998 -0.156917 0.977058 0.13999 0.242368 0.960032 0.0180141 -0.139043 0.990123 
-0.0792686 0.0758835 0.993961 0.122512 0.0398127 0.991668 0.0475335 0.046816 0.997772 
-0.0992182 0.0607465 0.99321 -0.272476 0.0252349 0.961832 -0.613365 -0.0218411 0.789498 
0.611106 -0.0936307 0.785991 0.2041 -0.0574657 0.977262 0.085496 0.0494662 0.99511 
-0.0680644 0.018317 0.997513 -0.171191 0.126491 0.977084 -0.101364 0.188571 0.976814 
0.0920975 0.0792695 0.99259 0.104986 0.150718 0.982986 -0.0179688 -0.0298956 0.999391 
0.0301372 0.0359738 0.998898 0.109429 -0.0279997 0.9936 0.0791843 -0.0817674 0.993501 
-0.11032 -0.0869796 0.990083 -0.357058 -0.0764513 0.930948 -0.733504 -0.172854 0.657338 
0.677591 -0.40918 0.611099 0.333116 -0.192163 0.923097 0.156538 -0.150903 0.976076 
-0.0190391 -0.00695764 0.999795 -0.0456337 0.0392038 0.998189 -0.0442994 0.177241 0.98317 
0.0763483 0.186557 0.979473 0.0447676 0.135675 0.989741 -0.0872041 0.107616 0.990361 
-0.0753065 -0.00756742 0.997132 0.0135247 -0.0988995 0.995005 -0.0215658 -0.229685 0.973026 
-0.130567 -0.284824 0.949646 -0.383487 -0.389807 0.837251 0.565997 -0.581608 0.584277 
0.271988 -0.365213 0.890304 0.119099 -0.21898 0.968433 0.0160068 -0.0922303 0.995609 
0.0552787 0.0725649 0.995831 0.0508717 0.025591 0.998377 0.0222683 -0.00827405 0.999718 
-0.159767 -0.0314023 0.986655 -0.193049 -0.103407 0.975725 -0.127673 -0.318848 0.939168 
-0.112073 -0.473999 0.873364 -0.259993 -0.600811 0.75593 0.27423 -0.526338 0.804839 
0.254189 -0.324805 0.910983 0.0632216 -0.26557 0.962017 -0.00280503 -0.230996 0.972951 
-0.0144987 -0.264232 0.96435 -0.164356 -0.314372 0.934964 -0.39091 -0.368118 0.84361 
0.169503 -0.812999 0.557046 0.0779914 -0.74638 0.660934 -0.0896896 -0.772671 0.628438 
-0.277144 -0.815031 0.508837 0.220087 0.721224 0.656808 0.0149745 0.327682 0.944669 
0.111372 0.628568 0.769739 0.0239889 0.552739 0.833009 -0.000691576 0.538696 0.8425 
-0.0132743 0.586728 0.809675 0.0558863 0.376855 0.924585 -0.0135573 0.666427 0.745447 
-0.0192754 0.416081 0.909123 -0.115989 0.724794 0.679132 -0.166763 0.480405 0.861046 
-0.325698 0.810783 0.486366 0.521223 0.607731 0.599157 0.185772 0.463853 0.866215 
0.209908 0.546644 0.810628 0.0369228 0.364098 0.930629 0.0595836 0.40719 0.911398 
0.0727502 0.432693 0.898601 -0.0163517 0.292198 0.956218 -0.0345498 0.274172 0.96106 
-0.0292452 0.287376 0.957371 -0.00891159 0.219669 0.975534 -0.00216071 0.248702 0.968578 
0.0666063 0.26236 0.962669 0.0694635 0.219699 0.973092 0.0662257 0.250964 0.965728 
-0.188313 0.493603 0.849055 -0.223158 0.530625 0.817703 -0.295124 0.649057 0.701162 
-0.273013 0.539102 0.796764 -0.380678 0.746158 0.546198 0.706837 0.531967 0.466255 
0.31596 0.345966 0.883446 0.337079 0.346419 0.875427 0.372884 0.378637 0.847108 
-0.31864 0.529458 0.78622 -0.382044 0.505069 0.773917 -0.427921 0.600134 0.675812 
0.532884 0.216038 0.818146 0.542984 0.151675 0.825932 0.576349 0.217196 0.787812 
-0.51343 0.39211 0.763309 -0.604323 0.264467 0.751565 -0.614159 0.397541 0.68174 
0.543835 0.124705 0.829875 0.159115 0.0752099 0.984391 -0.671572 0.120412 0.73109 
0.625051 0.147512 0.766519 0.145651 0.0942422 0.984837 0.176308 0.103944 0.978832 
0.172966 0.122712 0.977254 0.159426 0.0935175 0.982771 -0.659427 0.0196196 0.751512 
0.681628 -0.00965166 0.731635 -0.67671 -0.034864 0.735424 0.741221 -0.134018 0.657747 
-0.76726 -0.176216 0.616653 -0.741656 -0.239694 0.626493 0.800613 -0.407432 0.439337 
0.742243 -0.487566 0.459733 -0.60451 -0.447725 0.65887 -0.470107 -0.619457 0.628706 
-0.841127 -0.497503 0.212123 0.628266 -0.639592 0.442949 0.60355 -0.663475 0.442186 
0.51206 -0.751279 0.416383 -0.387859 -0.613966 0.687467 -0.227499 -0.699681 0.677267 
-0.41911 -0.660688 0.622767 -0.303948 -0.705567 0.640149 -0.549534 -0.772936 0.317147 
0.508528 -0.752682 0.418174 0.555501 -0.809654 0.189416 0.3728 -0.789781 0.487099 
0.256484 -0.872383 0.41613 -0.388406 -0.614093 0.687045 -0.459627 -0.706977 0.537519 
-0.388532 -0.615297 0.685895 -0.356987 -0.930076 0.0867105 0.242158 -0.881166 0.406087 
0.273908 -0.960398 -0.0510831 0.18974 -0.87434 0.446686 0.0687286 -0.911157 0.406288 
-0.09809 -0.912587 0.396942 -0.341486 -0.838339 0.424941 -0.282882 -0.867506 0.40916 
0.244829 0.794385 0.555888 0.179073 0.797265 0.576455 0.0880058 0.815377 0.572202 
0.0259436 0.99738 -0.0675316 -0.0363442 0.848247 0.528352 -0.0719735 0.848624 0.524077 
-0.0712925 0.88221 0.465427 -0.177933 0.886427 0.427302 -0.339421 0.852312 0.397942 
0.529887 0.743122 0.408643 0.375727 0.77354 0.510357 0.409309 0.761197 0.503036 
0.439327 0.819358 0.368299 -0.369137 0.834854 0.408359 -0.398653 0.797788 0.452339 
-0.406466 0.80355 0.434848 0.599036 0.677862 0.426214 0.751247 0.565093 0.341025 
-0.430663 0.792358 0.432085 -0.483299 0.766623 0.422744 0.791624 0.520879 0.3194 
-0.644094 0.647456 0.407362 -0.697823 0.598026 0.394219 -0.738938 0.644036 0.197961 
0.908113 0.327931 0.260369 -0.85976 0.374782 0.346917 0.973191 0.176432 0.147547 
-0.93756 0.134207 0.32089 0.998406 0.0443128 0.0349682 -0.976519 -0.0154295 0.214879 
0.995197 -0.0950498 -0.0234289 -0.983629 -0.152498 0.0960107 0.932376 -0.345537 -0.106207 
-0.956025 -0.284622 0.070756 0.794808 -0.570683 -0.2064 0.765899 -0.600472 -0.229853 
0.724164 -0.574236 -0.38189 -0.86779 -0.496917 -0.00382626 -0.842665 -0.538329 -0.010813 
-0.827652 -0.5301 -0.184351 0.673504 -0.699994 -0.237489 0.621832 -0.756612 -0.202147 
0.60502 -0.658123 -0.448135 -0.388449 -0.920961 -0.0306438 -0.609314 -0.791802 -0.0422572 
-0.554614 -0.830985 -0.0432143 -0.552756 -0.79417 -0.252498 0.553464 -0.790443 -0.262445 
0.550124 -0.791737 -0.265548 0.543541 -0.784483 -0.298579 0.439886 -0.847206 -0.297896 
0.351601 -0.628027 -0.694232 -0.347179 -0.927241 -0.140323 -0.411716 -0.910087 -0.0472499 
-0.247567 -0.762806 -0.597359 -0.361046 -0.932529 0.00600229 -0.359746 -0.932945 0.0140494 
-0.363031 -0.928745 -0.0751019 0.27815 -0.922346 -0.26816 0.262824 -0.929085 -0.260239 
0.263735 -0.922231 -0.282724 0.177159 -0.935772 -0.30487 0.13641 -0.866409 -0.480342 
0.0344464 -0.948685 -0.314341 0.0325477 -0.816729 -0.576103 -0.0959853 -0.940767 -0.325182 
-0.0399862 -0.831269 -0.55443 -0.295775 -0.938736 -0.176896 -0.188732 -0.953893 -0.233387 
-0.152129 -0.895391 -0.418488 0.0248752 0.996664 -0.0777283 0.452375 0.891278 -0.0313199 
0.323331 0.946241 0.00922938 0.0309335 0.996787 -0.0738824 0.187643 0.981879 0.0265157 
0.0190391 0.996634 -0.0797403 0.023865 0.996263 -0.0830041 -0.0711157 0.991483 -0.109107 
-0.0982807 0.986388 -0.131835 -0.121935 0.982632 -0.139879 -0.178218 0.978035 -0.108098 
-0.31223 0.94708 -0.0745146 0.496813 0.867081 -0.0367119 0.622131 0.778206 -0.0857268 
0.451563 0.830834 -0.325277 -0.40036 0.916357 -0.00125984 -0.215055 0.825746 -0.521436 
-0.410733 0.911664 0.012948 -0.425846 0.904083 0.0359093 0.766184 0.627094 -0.14041 
0.84801 0.508412 -0.149655 0.628823 0.533531 -0.56562 -0.511417 0.856258 0.072623 
-0.525642 0.84751 0.0736648 -0.749439 0.661678 0.022867 0.885047 0.42974 -0.178925 
0.805606 0.374612 -0.458983 -0.783152 0.62162 0.0161565 -0.792585 0.565677 -0.227638 
0.927305 0.181339 -0.327448 0.686554 0.0528925 -0.725152 -0.942655 0.318947 -0.0983587 
0.887248 0.0466325 -0.45893 0.672328 0.0105209 -0.740178 -0.992175 0.0358364 -0.1196 
0.85903 -0.0522105 -0.509256 0.586333 -0.130446 -0.799498 -0.942929 -0.160696 -0.291653 
0.750375 -0.188645 -0.633523 0.605744 -0.244035 -0.757312 -0.875884 -0.252007 -0.411485 
-0.656583 -0.264794 -0.706246 0.665954 -0.315886 -0.675811 0.633134 -0.400156 -0.662583 
0.59584 -0.315058 -0.738724 0.382416 -0.325566 -0.864734 -0.834077 -0.319884 -0.449432 
-0.742705 -0.445961 -0.499508 -0.734371 -0.342462 -0.58602 0.527793 -0.510056 -0.679174 
0.462742 -0.498025 -0.733377 0.383536 -0.454276 -0.804073 0.245846 -0.419044 -0.874049 
0.207013 -0.389294 -0.89755 -0.191996 -0.422669 -0.885714 -0.631004 -0.544155 -0.552929 
-0.501634 -0.649906 -0.570952 -0.460946 -0.506007 -0.729031 0.381299 -0.538942 -0.751101 
0.334649 -0.558138 -0.75927 0.32043 -0.521595 -0.790736 0.307332 -0.545424 -0.779782 
0.237803 -0.423379 -0.874186 0.196696 -0.390146 -0.899498 0.0747555 -0.420647 -0.904139 
0.005725 -0.433051 -0.901351 0.0154689 -0.436295 -0.899671 -0.0390171 -0.421805 -0.905847 
-0.0927123 -0.401264 -0.911258 -0.229269 -0.731806 -0.641791 -0.0722037 -0.492241 -0.867459 
-0.280234 -0.724082 -0.630217 -0.16078 -0.615097 -0.771884 -0.377276 -0.724927 -0.57632 
-0.304459 -0.756316 -0.579042 -0.290528 -0.700239 -0.652119 0.263051 -0.583117 -0.768621 
0.202387 -0.606206 -0.769125 0.193802 -0.565911 -0.801365 0.0935047 -0.627504 -0.772978 
0.0719885 -0.56134 -0.824449 0.011178 -0.594084 -0.804325 -0.00075518 -0.534231 -0.845338 
-0.00699548 -0.60255 -0.798051 0.00342342 -0.540505 -0.841334 -0.0731292 -0.635458 -0.768664 
-0.0353487 -0.564553 -0.824639 -0.221149 -0.724775 -0.652529 -0.183353 -0.65785 -0.730489 
-0.151833 -0.615818 -0.773121 0.292107 0.73642 -0.610212 0.123051 0.7886 -0.602468 
-0.0503376 0.787075 -0.614801 -0.1262 0.711002 -0.691773 -0.0784097 0.711891 -0.697899 
-0.0382208 0.732342 -0.679863 -0.109375 0.741989 -0.66143 0.350318 0.723868 -0.594384 
0.424328 0.680932 -0.59689 0.263199 0.674445 -0.689819 0.142881 0.580293 -0.801777 
-0.0441643 0.558184 -0.828541 -0.126841 0.588907 -0.798185 -0.0653908 0.631806 -0.772364 
-0.0397143 0.660818 -0.749495 -0.166544 0.768231 -0.618129 -0.102793 0.696744 -0.709916 
-0.186406 0.779302 -0.598282 -0.268698 0.830022 -0.488738 -0.360882 0.830604 -0.424101 
0.574526 0.487423 -0.657524 0.577751 0.442631 -0.685771 0.371143 0.407848 -0.834214 
0.189628 0.375765 -0.907106 0.0585608 0.321 -0.945267 -0.0586958 0.252205 -0.965892 
-0.101974 0.28761 -0.952303 -0.0481605 0.29713 -0.953622 0.0138837 0.323494 -0.946128 
0.0157345 0.371377 -0.928349 -0.0305507 0.444877 -0.895071 -0.131462 0.577073 -0.806043 
-0.446731 0.809501 -0.380971 -0.31086 0.735627 -0.601847 -0.506525 0.7751 -0.377693 
0.648254 0.295413 -0.701782 0.465985 0.206842 -0.860276 0.338924 0.150323 -0.928727 
-0.0416583 0.0941683 -0.994684 0.0319728 0.0675075 -0.997206 -0.745235 0.497491 -0.443989 
-0.44967 0.444545 -0.774711 -0.779115 0.410654 -0.473648 0.621707 0.0399542 -0.78223 
0.441685 0.00895042 -0.897126 0.308475 -0.0701883 -0.948639 -0.0788128 -0.106924 -0.991139 
-0.0478127 -0.0473747 -0.997732 0.0123456 -0.0589559 -0.998184 0.108211 -0.110193 -0.988002 
-0.801259 0.225659 -0.554132 -0.721651 0.198343 -0.663235 0.603784 -0.00161508 -0.797146 
0.387509 -0.0930482 -0.917158 0.255355 -0.160061 -0.953506 0.12227 -0.178862 -0.976247 
0.0320437 -0.190598 -0.981145 -0.0851939 -0.14693 -0.985471 -0.0543518 -0.129155 -0.990134 
0.00732989 -0.0473942 -0.998849 -0.0345048 0.084635 -0.995814 0.116046 -0.128591 -0.984885 
-0.766708 -0.0731327 -0.637817 -0.625077 -0.108935 -0.772924 0.522223 -0.140282 -0.841192 
0.301965 -0.149116 -0.941585 0.220299 -0.167514 -0.960941 0.112884 -0.170304 -0.978904 
0.0523668 -0.160025 -0.985723 -0.0232571 -0.0883783 -0.995815 0.0111171 -0.0143116 -0.999836 
0.184269 -0.0568129 -0.981232 -0.0610103 -0.0152981 -0.99802 0.136964 -0.134327 -0.981426 
0.02595 -0.190539 -0.981337 -0.137272 -0.240016 -0.961014 -0.347022 -0.279487 -0.895245 
-0.674052 -0.234245 -0.700559 -0.642685 -0.246168 -0.725504 -0.650474 -0.241958 -0.719958 
0.365878 -0.271809 -0.890086 0.353032 -0.275256 -0.894205 0.349157 -0.265198 -0.898754 
0.216826 -0.208234 -0.953743 0.139127 -0.221066 -0.965284 0.117455 -0.165374 -0.979212 
0.0602916 -0.0938183 -0.993762 -0.0148414 -0.0145928 -0.999783 0.113733 -0.0776654 -0.990471 
-0.00398952 -0.215433 -0.976511 -0.11006 -0.0884855 -0.989978 0.0135548 -0.172957 -0.984836 
-0.039639 -0.232911 -0.97169 -0.179384 -0.270256 -0.94593 -0.547427 -0.276831 -0.789739 
-0.36973 -0.277988 -0.886579 0.285607 -0.342888 -0.894906 0.249829 -0.364532 -0.897052 
0.242839 -0.340151 -0.908475 0.181959 -0.360262 -0.914933 0.145077 -0.309893 -0.939638 
0.176135 -0.279835 -0.943752 0.129724 -0.247744 -0.960101 0.0349218 -0.211761 -0.976697 
-0.0237049 -0.202828 -0.978927 -0.077316 -0.337765 -0.938049 -0.0496507 -0.279147 -0.958964 
-0.0113464 -0.287733 -0.957644 -0.0788345 -0.317121 -0.945103 -0.187585 -0.404429 -0.895125 
-0.19114 -0.337391 -0.921755 -0.412653 -0.321668 -0.852202 -0.396024 -0.336393 -0.854403 
-0.391553 -0.318496 -0.863276 0.185698 -0.350675 -0.917902 0.179756 -0.341974 -0.922357 
0.177387 -0.337442 -0.924482 0.0884713 -0.395761 -0.914082 0.113516 -0.361301 -0.925514 
0.0123573 -0.422829 -0.906125 0.0262075 -0.39976 -0.916245 0.00806707 -0.424972 -0.905171 
-0.0106469 -0.397735 -0.917439 -0.0455587 -0.396296 -0.916992 -0.0658946 -0.346854 -0.935601 
-0.0746685 -0.362204 -0.929103 -0.0640009 -0.352031 -0.933798 -0.0329223 -0.423675 -0.905216 
-0.0320395 -0.402266 -0.914962 -0.147466 -0.402348 -0.903532 -0.0936134 -0.419802 -0.902775 
-0.0886111 -0.383018 -0.919481 0.162364 0.194937 -0.967283 0.0438311 0.255769 -0.965744 
-0.06518 0.193617 -0.97891 -0.0800756 0.073685 -0.994062 0.0525736 0.093176 -0.994261 
0.051986 0.173237 -0.983507 -0.000368675 0.330968 -0.943642 -0.200829 0.388566 -0.899269 
0.221574 0.121559 -0.967537 0.15024 0.10283 -0.983287 0.00513884 0.0963789 -0.995331 
-0.0768274 0.0671266 -0.994782 -0.0789505 0.0725919 -0.994232 -0.0798635 0.0656751 -0.99464 
-0.0798469 0.0720685 -0.994199 0.0519702 0.0833065 -0.995168 0.0616688 0.0566113 -0.99649 
0.0536089 0.0848571 -0.99495 0.059221 0.150568 -0.986824 0.0470941 0.233346 -0.971253 
-0.261923 0.337877 -0.904011 -0.183111 0.301003 -0.935878 -0.373171 0.201165 -0.905691 
0.178488 -0.0927317 -0.979563 0.131332 -0.121151 -0.983908 0.134598 -0.0986577 -0.985977 
0.0291527 -0.16936 -0.985123 0.0201026 -0.0975633 -0.995026 -0.0820051 -0.0969071 -0.991909 
-0.0864928 -0.120346 -0.988957 -0.0885313 -0.0748522 -0.993257 0.116987 -0.0739489 -0.990376 
0.135795 -0.00150265 -0.990736 0.0518312 0.00772634 -0.998626 -0.0556993 0.0298004 -0.998003 
-0.400711 0.147506 -0.904253 -0.361653 0.134946 -0.922495 -0.0767547 0.105013 -0.991504 
0.1714 -0.102975 -0.979805 0.171866 -0.104983 -0.97951 0.177398 -0.100904 -0.978953 
0.0327052 -0.180204 -0.983085 0.0721824 -0.118051 -0.990381 -0.115889 -0.209466 -0.970924 
-0.0770281 -0.139236 -0.987259 -0.261955 -0.180115 -0.948123 -0.255832 -0.1848 -0.948894 
-0.253718 -0.181682 -0.950063 0.0142779 0.0435532 -0.998949 -0.0993954 0.0716449 -0.992465 
-0.0194304 -0.167517 -0.985678 -0.10039 0.0980723 -0.990103 
