# vtk DataFile Version 4.2
vtk output
ASCII
DATASET POLYDATA
POINTS 504 float
-25.9259 -27.8566 -15.9631 -18.7822 -27.8566 -16.5377 -11.6384 -27.8566 -17.1393 
-4.49474 -27.8566 -16.1849 -40.2133 -20.7129 -15.0867 -33.0696 -20.7129 -17.233 
-25.9259 -20.7129 -18.7077 -18.7822 -20.7129 -18.3617 -11.6384 -20.7129 -18.4217 
-4.49474 -20.7129 -18.4283 2.64898 -20.7129 -17.839 9.79269 -20.7129 -18.0755 
16.9364 -20.7129 -18.4253 24.0801 -20.7129 -17.4712 31.2238 -20.7129 -16.2528 
38.3675 -20.7129 -15.1445 -40.2133 -13.5692 -17.9055 -33.0696 -13.5692 -19.7187 
-25.9259 -13.5692 -19.1517 -18.7822 -13.5692 -18.0495 -11.6384 -13.5692 -17.8404 
-4.49474 -13.5692 -19.1476 2.64898 -13.5692 -19.0567 9.79269 -13.5692 -19.8863 
16.9364 -13.5692 -19.9058 24.0801 -13.5692 -19.2608 31.2238 -13.5692 -18.9231 
38.3675 -13.5692 -18.1501 45.5113 -13.5692 -16.5431 -47.357 -6.42551 -15.8986 
-40.2133 -6.42551 -19.2566 -33.0696 -6.42551 -20.2467 -25.9259 -6.42551 -19.58 
-18.7822 -6.42551 -18.4089 -11.6384 -6.42551 -18.463 -4.49474 -6.42551 -21.1533 
2.64898 -6.42551 -19.2108 9.79269 -6.42551 -20.6379 16.9364 -6.42551 -19.3853 
24.0801 -6.42551 -18.105 31.2238 -6.42551 -18.2852 38.3675 -6.42551 -18.4297 
45.5113 -6.42551 -18.5701 52.655 -6.42551 -17.4934 -47.357 0.718207 -16.7171 
-40.2133 0.718207 -19.7687 -33.0696 0.718207 -20.6263 -25.9259 0.718207 -20.1938 
-18.7822 0.718207 -19.2306 -11.6384 0.718207 -19.8996 -4.49474 0.718207 -21.1041 
2.64898 0.718207 -17.844 9.79269 0.718207 -20.7619 16.9364 0.718207 -18.028 
24.0801 0.718207 -16.6095 31.2238 0.718207 -17.2979 38.3675 0.718207 -17.6353 
45.5113 0.718207 -17.3227 52.655 0.718207 -16.1309 -47.357 7.86192 -15.2829 
-40.2133 7.86192 -18.9657 -33.0696 7.86192 -19.675 -25.9259 7.86192 -19.428 
-18.7822 7.86192 -18.4002 -11.6384 7.86192 -18.2086 -4.49474 7.86192 -19.291 
2.64898 7.86192 -17.4027 9.79269 7.86192 -18.0777 16.9364 7.86192 -15.4977 
24.0801 7.86192 -15.2679 31.2238 7.86192 -15.9796 38.3675 7.86192 -16.2529 
45.5113 7.86192 -15.0101 -40.2133 15.0056 -16.239 -33.0696 15.0056 -17.7656 
-25.9259 15.0056 -17.6914 -18.7822 15.0056 -17.1875 -11.6384 15.0056 -16.2456 
-4.49474 15.0056 -16.0468 2.64898 15.0056 -15.2491 -25.9259 -29.5008 -14.8257 
-18.7822 -30.4162 -14.8257 -11.6384 -31.1798 -14.8257 -4.49474 -29.5008 -14.8257 
-40.2133 -21.1489 -14.8257 -40.2133 -27.8566 -8.48478 -29.6299 -27.8566 -14.8257 
-33.0696 -25.588 -14.8257 -33.0696 -27.8566 -13.1556 -0.064575 -27.8566 -14.8257 
2.64898 -26.4969 -14.8257 2.64898 -27.8566 -13.1944 9.79269 -25.5963 -14.8257 
9.79269 -27.8566 -11.3542 16.9364 -25.5645 -14.8257 16.9364 -27.8566 -9.2994 
24.0801 -24.0071 -14.8257 31.2238 -22.3626 -14.8257 38.3675 -21.0233 -14.8257 
-40.6361 -20.7129 -14.8257 -47.357 -20.7129 -8.13852 39.3167 -20.7129 -14.8257 
45.5113 -16.9949 -14.8257 45.5113 -20.7129 -11.3353 -46.5432 -13.5692 -14.8257 
-47.357 -11.3302 -14.8257 -47.357 -13.5692 -14.0853 51.5214 -13.5692 -14.8257 
52.655 -12.9536 -14.8257 52.655 -13.5692 -14.3815 59.7987 -13.5692 -8.53053 
-48.5477 -6.42551 -14.8257 58.215 -6.42551 -14.8257 59.7987 -6.42551 -13.5526 
-49.6392 0.718207 -14.8257 54.9473 0.718207 -14.8257 52.655 4.15594 -14.8257 
59.7987 0.718207 -11.1558 -47.8726 7.86192 -14.8257 -47.357 8.84376 -14.8257 
9.79269 13.4361 -14.8257 16.9364 9.56787 -14.8257 24.0801 9.18423 -14.8257 
31.2238 11.0565 -14.8257 38.3675 11.0986 -14.8257 46.2212 7.86192 -14.8257 
45.5113 8.29844 -14.8257 52.655 7.86192 -12.9293 -42.5666 15.0056 -14.8257 
-47.357 15.0056 -10.6756 -40.2133 16.8646 -14.8257 -33.0696 20.0194 -14.8257 
-25.9259 21.7052 -14.8257 -18.7822 21.1043 -14.8257 -11.6384 18.9803 -14.8257 
-4.49474 17.6263 -14.8257 5.08613 15.0056 -14.8257 2.64898 15.8902 -14.8257 
9.79269 15.0056 -13.9766 16.9364 15.0056 -12.8752 24.0801 15.0056 -12.8538 
31.2238 15.0056 -13.2193 38.3675 15.0056 -12.77 45.5113 15.0056 -11.0121 
-40.2133 22.1493 -8.9941 -33.0696 22.1493 -13.1946 -25.9259 22.1493 -14.5904 
-18.7822 22.1493 -14.3704 -11.6384 22.1493 -13.6009 -4.49474 22.1493 -12.638 
2.64898 22.1493 -11.4804 9.79269 22.1493 -10.0935 16.9364 22.1493 -8.88982 
24.0801 22.1493 -8.0767 31.2238 22.1493 -7.87971 -18.7822 29.2931 -9.06998 
-11.6384 29.2931 -9.19802 -40.2133 -28.3082 -7.68202 -33.0696 -31.8217 -7.68202 
-25.9259 -33.8286 -7.68202 -18.7822 -34.7618 -7.68202 -11.6384 -34.748 -7.68202 
-4.49474 -32.6439 -7.68202 2.64898 -30.3656 -7.68202 9.79269 -29.2961 -7.68202 
16.9364 -28.3269 -7.68202 -40.7921 -27.8566 -7.68202 -47.357 -21.0474 -7.68202 
19.2217 -27.8566 -7.68202 16.9364 -27.8566 -5.82507 24.0801 -26.7886 -7.68202 
31.2238 -25.536 -7.68202 38.3675 -23.8171 -7.68202 45.5113 -22.7351 -7.68202 
-47.6243 -20.7129 -7.68202 50.085 -20.7129 -7.68202 52.655 -19.4035 -7.68202 
59.7987 -14.1718 -7.68202 -51.2196 -13.5692 -7.68202 60.2255 -13.5692 -7.68202 
-53.4066 -6.42551 -7.68202 65.0038 -6.42551 -7.68202 -54.3435 0.718207 -7.68202 
-54.5007 0.718207 -6.68634 63.626 0.718207 -7.68202 59.7987 7.29231 -7.68202 
-53.2275 7.86192 -7.68202 59.4058 7.86192 -7.68202 52.655 14.4893 -7.68202 
59.7987 7.86192 -6.29181 -49.4662 15.0056 -7.68202 -47.357 17.4342 -7.68202 
38.3675 19.9788 -7.68202 51.747 15.0056 -7.68202 45.5113 17.7532 -7.68202 
52.655 15.0056 -6.58327 -41.5224 22.1493 -7.68202 -40.2133 23.1052 -7.68202 
-33.0696 26.3326 -7.68202 -25.9259 29.1093 -7.68202 -4.49474 29.2445 -7.68202 
2.64898 26.8238 -7.68202 9.79269 25.1397 -7.68202 16.9364 23.609 -7.68202 
24.0801 22.5639 -7.68202 31.8174 22.1493 -7.68202 31.2238 22.3384 -7.68202 
38.3675 22.1493 -3.75978 -25.0638 29.2931 -7.68202 -25.9259 29.2931 -7.29022 
-18.7822 30.5171 -7.68202 -4.67046 29.2931 -7.68202 -11.6384 30.7114 -7.68202 
-4.49474 29.2931 -7.629 2.64898 29.2931 -4.99166 9.79269 29.2931 -3.31432 
16.9364 29.2931 -1.37551 -40.2133 -28.5863 -0.538308 -33.0696 -32.2874 -0.538308 
-25.9259 -33.7883 -0.538308 -18.7822 -34.2785 -0.538308 -11.6384 -33.5593 -0.538308 
-4.49474 -31.8262 -0.538308 2.64898 -29.614 -0.538308 9.79269 -28.41 -0.538308 
-41.2159 -27.8566 -0.538308 -47.357 -22.0929 -0.538308 -40.2133 -27.8566 1.76187 
2.64898 -27.8566 4.4194 11.8612 -27.8566 -0.538308 9.79269 -27.8566 0.989558 
16.9364 -26.3582 -0.538308 24.0801 -24.1679 -0.538308 31.2238 -23.8254 -0.538308 
38.3675 -22.9149 -0.538308 45.5113 -21.6019 -0.538308 -48.4489 -20.7129 -0.538308 
-47.357 -20.7129 2.53729 24.0801 -20.7129 5.53295 31.2238 -20.7129 4.34939 
38.3675 -20.7129 4.27265 48.0366 -20.7129 -0.538308 45.5113 -20.7129 1.5533 
52.655 -19.3565 -0.538308 59.7987 -15.8289 -0.538308 -51.9916 -13.5692 -0.538308 
52.655 -13.5692 6.60054 61.2731 -13.5692 -0.538308 59.7987 -13.5692 1.55708 
-54.1408 -6.42551 -0.538308 -54.5007 -4.47593 -0.538308 65.0454 -6.42551 -0.538308 
-55.4182 0.718207 -0.538308 -54.5007 6.65023 -0.538308 -54.5007 0.718207 3.1605 
64.0837 0.718207 -0.538308 59.7987 0.718207 5.01884 -54.3133 7.86192 -0.538308 
61.4929 7.86192 -0.538308 59.7987 9.41171 -0.538308 59.7987 7.86192 2.64632 
-51.1617 15.0056 -0.538308 -47.357 19.6057 -0.538308 45.5113 20.7951 -0.538308 
55.0143 15.0056 -0.538308 52.655 16.9413 -0.538308 52.655 15.0056 3.13131 
-44.4319 22.1493 -0.538308 -40.2133 25.4483 -0.538308 -33.0696 28.8264 -0.538308 
24.0801 28.3643 -0.538308 31.2238 26.5762 -0.538308 42.2757 22.1493 -0.538308 
38.3675 23.7889 -0.538308 -32.0216 29.2931 -0.538308 -25.9259 31.8516 -0.538308 
-18.7822 34.0361 -0.538308 -11.6384 34.6203 -0.538308 -4.49474 33.7529 -0.538308 
2.64898 32.4966 -0.538308 9.79269 31.3543 -0.538308 19.7055 29.2931 -0.538308 
16.9364 29.9216 -0.538308 24.0801 29.2931 2.69419 -33.0696 -29.4867 6.60541 
-25.9259 -31.1679 6.60541 -18.7822 -31.6626 6.60541 -11.6384 -30.9372 6.60541 
-4.49474 -28.8012 6.60541 -36.6597 -27.8566 6.60541 -40.2133 -25.8484 6.60541 
-33.0696 -27.8566 9.15022 -25.9259 -27.8566 12.0829 -18.7822 -27.8566 12.0398 
-11.6384 -27.8566 10.8068 -0.7968 -27.8566 6.60541 -4.49474 -27.8566 7.91495 
2.64898 -26.9225 6.60541 9.79269 -25.5014 6.60541 16.9364 -21.5123 6.60541 
-45.465 -20.7129 6.60541 -47.357 -17.8588 6.60541 -40.2133 -20.7129 12.6216 
-4.49474 -20.7129 13.3204 2.64898 -20.7129 12.4275 9.79269 -20.7129 12.3475 
20.6871 -20.7129 6.60541 16.9364 -20.7129 7.63021 24.0801 -19.971 6.60541 
31.2238 -19.1824 6.60541 38.3675 -19.0814 6.60541 45.5113 -17.8236 6.60541 
-49.801 -13.5692 6.60541 -47.357 -13.5692 10.0282 24.0801 -13.5692 12.924 
31.2238 -13.5692 11.976 38.3675 -13.5692 10.9743 52.6443 -13.5692 6.60541 
45.5113 -13.5692 9.65218 52.655 -13.5616 6.60541 59.7987 -7.96183 6.60541 
-51.972 -6.42551 6.60541 -47.357 -6.42551 13.6406 45.5113 -6.42551 13.1937 
52.655 -6.42551 11.6846 60.9385 -6.42551 6.60541 59.7987 -3.22294 6.60541 
59.7987 -6.42551 7.54096 -53.591 0.718207 6.60541 58.4283 0.718207 6.60541 
52.655 0.718207 10.9646 -52.4813 7.86192 6.60541 45.5113 7.86192 13.3295 
57.2623 7.86192 6.60541 52.655 11.9529 6.60541 52.655 7.86192 10.5049 
-49.8657 15.0056 6.60541 -47.357 18.3856 6.60541 -47.357 15.0056 11.1131 
38.3675 15.0056 13.6232 49.8859 15.0056 6.60541 45.5113 18.6802 6.60541 
45.5113 15.0056 10.0316 -43.6395 22.1493 6.60541 -40.2133 24.8505 6.60541 
-40.2133 22.1493 12.3243 -33.0696 28.6328 6.60541 31.2238 27.4267 6.60541 
31.2238 22.1493 13.5057 40.8425 22.1493 6.60541 38.3675 23.6948 6.60541 
38.3675 22.1493 9.0635 -31.6572 29.2931 6.60541 -25.9259 31.8053 6.60541 
-25.9259 29.2931 13.0304 -18.7822 34.0934 6.60541 -11.6384 35.0287 6.60541 
-4.49474 34.9424 6.60541 2.64898 34.4447 6.60541 9.79269 33.8644 6.60541 
16.9364 32.5642 6.60541 16.9364 29.2931 13.2462 26.7533 29.2931 6.60541 
24.0801 30.3188 6.60541 24.0801 29.2931 8.93703 -33.0696 -24.1093 13.7491 
-25.9259 -26.3097 13.7491 -18.7822 -25.9297 13.7491 -11.6384 -23.8142 13.7491 
-38.6089 -20.7129 13.7491 -40.2133 -19.1062 13.7491 -33.0696 -20.7129 16.3512 
-25.9259 -20.7129 17.7275 -18.7822 -20.7129 17.2 -5.91149 -20.7129 13.7491 
-11.6384 -20.7129 15.3928 -4.49474 -19.5351 13.7491 2.64898 -18.1414 13.7491 
9.79269 -19.0242 13.7491 16.9364 -14.7745 13.7491 -43.9509 -13.5692 13.7491 
[...]
POINT_DATA 504
SCALARS ImageScalars float
LOOKUP_TABLE default
0 0 0 0 0 0 0 0 0 
0 0 0 0 0 0 0 0 0 
0 0 0 0 0 0 0 0 0 
0 0 0 0 0 0 0 0 0 
0 0 0 0 0 0 0 0 0 
0 0 0 0 0 0 0 0 0 
0 0 0 0 0 0 0 0 0 
0 0 0 0 0 0 0 0 0 
0 0 0 0 0 0 0 0 0 
0 0 0 0 0 0 0 0 0 
0 0 0 0 0 0 0 0 0 
0 0 0 0 0 0 0 0 0 
0 0 0 0 0 0 0 0 0 
0 0 0 0 0 0 0 0 0 
0 0 0 0 0 0 0 0 0 
0 0 0 0 0 0 0 0 0 
0 0 0 0 0 0 0 0 0 
0 0 0 0 0 0 0 0 0 
0 0 0 0 0 0 0 0 0 
0 0 0 0 0 0 0 0 0 
0 0 0 0 0 0 0 0 0 
0 0 0 0 0 0 0 0 0 
0 0 0 0 0 0 0 0 0 
0 0 0 0 0 0 0 0 0 
0 0 0 0 0 0 0 0 0 
0 0 0 0 0 0 0 0 0 
0 0 0 0 0 0 0 0 0 
0 0 0 0 0 0 0 0 0 
0 0 0 0 0 0 0 0 0 
0 0 0 0 0 0 0 0 0 
0 0 0 0 0 0 0 0 0 
0 0 0 0 0 0 0 0 0 
0 0 0 0 0 0 0 0 0 
0 0 0 0 0 0 0 0 0 
0 0 0 0 0 0 0 0 0 
0 0 0 0 0 0 0 0 0 
0 0 0 0 0 0 0 0 0 
0 0 0 0 0 0 0 0 0 
0 0 0 0 0 0 0 0 0 
0 0 0 0 0 0 0 0 0 
0 0 0 0 0 0 0 0 0 
0 0 0 0 0 0 0 0 0 
0 0 0 0 0 0 0 0 0 
0 0 0 0 0 0 0 0 0 
0 0 0 0 0 0 0 0 0 
0 0 0 0 0 0 0 0 0 
0 0 0 0 0 0 0 0 0 
0 0 0 0 0 0 0 0 0 
0 0 0 0 0 0 0 0 0 
0 0 0 0 0 0 0 0 0 
0 0 0 0 0 0 0 0 0 
0 0 0 0 0 0 0 0 0 
0 0 0 0 0 0 0 0 0 
0 0 0 0 0 0 0 0 0 
0 0 0 0 0 0 0 0 0 
0 0 0 0 0 0 0 0 0 

NORMALS Normals float
0.168788 0.498407 0.850354 0.0854467 0.419975 0.903504 -0.0207908 0.416894 0.908717 
-0.217506 0.552316 0.80476 0.406807 0.456135 0.791485 0.207026 0.350347 0.913454 
0.0729436 0.22104 0.972533 -0.0180757 0.0908735 0.995698 0.00457171 0.0482303 0.998826 
-0.0396797 0.178059 0.983219 -0.0261889 0.30302 0.952624 0.0403641 0.40602 0.912972 
-0.0435717 0.42312 0.905025 -0.148516 0.497177 0.854844 -0.159043 0.582323 0.797249 
-0.22382 0.705193 0.672761 0.321535 0.242837 0.915229 0.0844185 0.197543 0.976653 
-0.114511 0.0580696 0.991723 -0.0904812 0.00393643 0.99589 0.074092 -0.00437107 0.997242 
0.0859634 0.18236 0.979467 0.0508443 0.0939199 0.994281 0.059606 0.166545 0.984231 
-0.0461382 0.0630074 0.996946 -0.066337 0.0362755 0.997138 -0.0840623 0.116418 0.989637 
-0.151455 0.189181 0.970192 -0.227699 0.358894 0.905179 0.595813 0.143793 0.790146 
0.259416 0.128265 0.95721 0.0188099 0.0605645 0.997987 -0.128817 0.0728808 0.988987 
-0.0792382 0.0834466 0.993357 0.200179 0.14866 0.968415 0.0208862 0.138051 0.990205 
-0.0275403 -0.0802044 0.996398 0.0211801 0.0612794 0.997896 -0.184015 -0.112095 0.976511 
-0.067205 -0.186995 0.980059 0.0223546 -0.109168 0.993772 0.0193237 -0.0336814 0.999246 
-0.086015 0.049527 0.995062 -0.255365 0.0434691 0.965867 0.549913 -0.0375534 0.834378 
0.236477 -0.0234256 0.971355 0.0261608 -0.0386873 0.998909 -0.0969886 -0.0101 0.995234 
-0.0260332 0.00100027 0.999661 0.130045 -0.0317311 0.991 -0.156854 -0.137044 0.978067 
0.00799388 -0.132748 0.991118 0.0516811 -0.157744 0.986127 -0.309593 -0.251703 0.91695 
-0.0272404 -0.195363 0.980353 0.0703766 -0.157366 0.985029 0.00201799 -0.142748 0.989757 
-0.110748 -0.225847 0.967847 -0.343052 -0.273316 0.898673 0.60125 -0.26225 0.754801 
0.254095 -0.204671 0.945275 0.0328569 -0.176555 0.983742 -0.0859237 -0.167699 0.982087 
-0.084572 -0.14339 0.986046 0.0599817 -0.250684 0.966209 -0.0627797 -0.32216 0.944601 
-0.0841369 -0.168844 0.982045 -0.108043 -0.453856 0.884501 -0.173053 -0.3185 0.931993 
0.0347783 -0.252992 0.966843 0.0661389 -0.262847 0.962568 -0.0625073 -0.306693 0.949754 
-0.196037 -0.352489 0.915052 0.332398 -0.502724 0.797985 0.0848148 -0.404469 0.910611 
-0.0393711 -0.318145 0.947224 -0.0973397 -0.261682 0.960233 -0.0770066 -0.293826 0.952752 
-0.0650226 -0.420861 0.904792 -0.129646 -0.372821 0.918802 0.189936 0.58944 0.785166 
0.0891794 0.588249 0.803748 -0.0561593 0.658124 0.750812 -0.254046 0.666583 0.700805 
0.412604 0.469353 0.780682 0.553351 0.771313 0.314452 0.254641 0.556762 0.790679 
0.292627 0.521704 0.80137 0.349119 0.667385 0.65781 -0.210767 0.673073 0.708908 
-0.164892 0.649492 0.742274 -0.204373 0.797007 0.568341 -0.0369926 0.696173 0.716921 
-0.103112 0.917282 0.384659 -0.0921878 0.759596 0.643828 -0.1615 0.97776 0.133805 
-0.180735 0.738113 0.650018 -0.184349 0.685716 0.704137 -0.223715 0.726702 0.649504 
0.422896 0.461921 0.779608 0.766127 0.556878 0.320835 -0.239057 0.70657 0.666041 
-0.30587 0.493464 0.814209 -0.33489 0.811016 0.479689 0.600345 0.302071 0.740499 
0.629139 0.252484 0.735143 0.660039 0.316327 0.681385 -0.307236 0.546305 0.779202 
-0.314796 0.544231 0.777635 -0.329595 0.591891 0.735549 -0.737128 0.58291 0.341846 
0.655432 0.146191 0.74097 -0.557288 -0.00504447 0.830304 -0.674046 -0.00191391 0.738686 
0.673991 -0.0356353 0.737879 -0.423291 -0.27852 0.86212 -0.327392 -0.40397 0.85418 
-0.670049 -0.280619 0.687232 0.623617 -0.262583 0.73631 0.608245 -0.285355 0.740682 
-0.151537 -0.461738 0.873976 -0.144038 -0.325661 0.93445 0.0370554 -0.280745 0.959067 
0.0441699 -0.360502 0.931712 -0.0766588 -0.414262 0.906923 -0.206662 -0.368303 0.906446 
-0.203294 -0.360976 0.910147 -0.353902 -0.530772 0.770087 0.424729 -0.507 0.750038 
0.661178 -0.545904 0.514619 0.340746 -0.570093 0.747587 0.18746 -0.564318 0.803993 
0.0413234 -0.514932 0.856234 -0.0683401 -0.427046 0.901644 -0.0969662 -0.357469 0.928878 
-0.0864057 -0.434634 0.896452 -0.138466 -0.404039 0.904201 -0.131449 -0.392806 0.910178 
-0.15185 -0.458209 0.875778 -0.069735 -0.395555 0.915791 0.0206515 -0.41681 0.908759 
0.00016304 -0.486372 0.873752 -0.11226 -0.57102 0.813224 -0.304474 -0.645041 0.700869 
0.456694 -0.75857 0.46476 0.242536 -0.66298 0.708261 0.0487011 -0.532657 0.844929 
-0.0598565 -0.46026 0.885764 -0.107146 -0.420637 0.90088 -0.128303 -0.483411 0.86594 
-0.150102 -0.550765 0.821053 -0.151649 -0.566022 0.810322 -0.11253 -0.595942 0.795104 
-0.0574966 -0.671571 0.738706 -0.138491 -0.728975 0.670385 0.0811855 -0.747429 0.659362 
-0.0788686 -0.697352 0.712376 0.554554 0.789189 0.263913 0.361867 0.888848 0.281072 
0.194634 0.957855 0.211263 0.0612952 0.988108 0.141017 -0.144685 0.984758 0.0965243 
-0.304272 0.946585 0.106746 -0.228377 0.963808 0.137539 -0.135974 0.983403 0.120127 
-0.16864 0.985528 0.0171962 0.572588 0.775253 0.266694 0.770415 0.564574 0.29617 
-0.18131 0.9834 0.0071269 -0.194897 0.977614 -0.0792824 -0.205679 0.978566 -0.0101874 
-0.198835 0.977987 0.0632874 -0.194321 0.975176 0.106164 -0.293421 0.939293 0.177855 
0.776883 0.5557 0.296059 -0.366569 0.90625 0.210566 -0.432327 0.861636 0.265853 
-0.735909 0.615259 0.282657 0.879849 0.376902 0.289499 -0.752369 0.595978 0.280626 
0.93573 0.195696 0.293449 -0.922515 0.220974 0.316444 0.954703 -0.0113317 0.297344 
0.968926 -0.00814626 0.247216 -0.856715 -0.257445 0.446947 -0.658024 -0.628789 0.414281 
0.900318 -0.276043 0.336494 -0.640185 -0.646637 0.414757 -0.490169 -0.705829 0.511409 
-0.689099 -0.654239 0.311631 0.738781 -0.569776 0.359941 0.671862 -0.651837 0.351724 
-0.244738 -0.765312 0.595316 -0.466288 -0.721758 0.511508 -0.319532 -0.80581 0.498567 
-0.517097 -0.743592 0.42389 0.505528 -0.7687 0.391844 0.472158 -0.782024 0.406824 
0.325367 -0.831151 0.450914 0.24469 -0.82518 0.509121 -0.203315 -0.707154 0.677197 
-0.181563 -0.677394 0.712862 -0.154895 -0.640534 0.752146 -0.124345 -0.634774 0.762627 
-0.0625854 -0.681267 0.729355 -0.151292 -0.738 0.657622 -0.140873 -0.734864 0.663423 
-0.329437 -0.870815 0.3649 0.228551 -0.823136 0.519819 0.25224 -0.835614 0.48798 
0.0989494 -0.791987 0.602467 -0.200536 -0.708905 0.676194 -0.0699156 -0.759622 0.646596 
-0.203363 -0.709689 0.674526 -0.179949 -0.770544 0.611458 -0.160743 -0.788364 0.593838 
-0.181669 -0.825741 0.533992 0.542087 0.831224 -0.123321 0.33496 0.93173 -0.140287 
0.123793 0.977245 -0.172245 -0.015266 0.979755 -0.199617 -0.158262 0.955363 -0.249469 
-0.268753 0.933189 -0.2386 -0.216371 0.95286 -0.2127 -0.20911 0.949569 -0.233649 
0.574601 0.809778 -0.118716 0.781684 0.615715 -0.0993223 0.537127 0.814844 -0.218 
-0.199453 0.893674 -0.401952 -0.223859 0.936366 -0.270381 -0.222756 0.932749 -0.283475 
-0.265733 0.886448 -0.37894 -0.156124 0.897976 -0.411419 -0.0842095 0.920387 -0.381833 
-0.125835 0.951634 -0.280283 -0.262281 0.92635 -0.270342 0.811944 0.574974 -0.100756 
0.781112 0.573593 -0.24669 -0.134249 0.803756 -0.579615 -0.0441268 0.845319 -0.532436 
-0.0672292 0.862992 -0.500725 -0.256932 0.931352 -0.258011 -0.262539 0.888883 -0.375447 
-0.278273 0.925443 -0.257136 -0.718137 0.647565 -0.254831 0.924962 0.372745 -0.0742114 
-0.389823 0.555325 -0.73461 -0.812407 0.526469 -0.25065 -0.737225 0.53858 -0.40796 
0.970064 0.225633 -0.0898066 0.982674 0.167747 -0.0788227 -0.945802 0.205371 -0.251558 
0.998907 0.0113368 -0.0453491 0.975878 -0.213058 -0.0476326 0.975295 0.0215755 -0.219852 
-0.944645 -0.185259 -0.270786 -0.765461 -0.173623 -0.619616 0.965157 -0.25741 -0.0470343 
-0.786954 -0.602738 -0.131952 -0.78592 -0.613172 -0.07969 -0.790371 -0.520121 -0.323709 
0.841055 -0.540567 0.0203374 0.702236 -0.709963 0.0530788 -0.459255 -0.885641 0.0687349 
-0.662447 -0.74403 -0.0870832 -0.577691 -0.813581 -0.0660254 -0.62337 -0.70429 -0.339684 
0.618119 -0.78198 0.0802276 0.526152 -0.845338 0.092566 0.389587 -0.910976 0.13544 
-0.205081 -0.881038 0.426279 -0.278353 -0.913489 0.296743 -0.415494 -0.898653 0.140671 
-0.362022 -0.90993 0.202404 0.37987 -0.914342 0.140278 0.333764 -0.928356 0.163575 
0.186941 -0.958611 0.214753 -0.0163689 -0.963117 0.268585 -0.140259 -0.926666 0.348736 
-0.152889 -0.882471 0.444825 -0.157698 -0.85641 0.491623 -0.196398 -0.859266 0.472323 
-0.188595 -0.843026 0.503725 -0.27653 -0.941949 0.190427 0.300184 0.850894 -0.431125 
0.130521 0.893814 -0.429023 -0.0140443 0.891914 -0.451988 -0.176611 0.860028 -0.478707 
-0.258016 0.82202 -0.507652 0.403311 0.810667 -0.424452 0.528733 0.735373 -0.423872 
0.303782 0.803167 -0.512484 0.111368 0.764747 -0.634634 -0.0602393 0.718764 -0.692639 
-0.185743 0.715825 -0.673122 -0.224618 0.836578 -0.499685 -0.256157 0.781305 -0.569163 
-0.186842 0.83932 -0.510522 -0.277798 0.828359 -0.486467 -0.318564 0.751404 -0.577848 
0.705712 0.557815 -0.436822 0.759834 0.479851 -0.438628 0.532632 0.537171 -0.654026 
-0.184392 0.390824 -0.901807 -0.0573547 0.529302 -0.846492 -0.193544 0.673241 -0.713644 
-0.220361 0.76917 -0.599849 -0.32071 0.732787 -0.60014 -0.127209 0.775564 -0.618318 
-0.0449269 0.786329 -0.616172 -0.0578168 0.762007 -0.644983 -0.254176 0.692007 -0.675663 
0.824335 0.377835 -0.421559 0.736567 0.380683 -0.559061 -0.149379 0.572563 -0.806138 
-0.105824 0.528441 -0.842349 -0.138634 0.541238 -0.829362 -0.389595 0.555138 -0.734873 
-0.233015 0.53121 -0.814568 -0.389774 0.554935 -0.734931 -0.612221 0.248877 -0.750497 
0.888075 0.223518 -0.401699 0.69598 0.251992 -0.672392 -0.167097 0.287795 -0.943002 
-0.368838 0.206822 -0.906192 -0.670462 0.171764 -0.721788 -0.674216 0.012832 -0.738423 
-0.598971 0.170059 -0.782505 0.922392 0.032167 -0.384914 -0.680844 -0.138417 -0.719231 
-0.474375 -0.0520716 -0.878781 0.906768 -0.21776 -0.361042 -0.26468 -0.244075 -0.932937 
-0.665264 -0.420258 -0.617096 -0.58404 -0.548044 -0.598786 -0.492272 -0.348499 -0.797632 
0.831459 -0.469148 -0.297617 0.75338 -0.602985 -0.262351 0.758246 -0.434027 -0.486501 
-0.389224 -0.310672 -0.867172 -0.581128 -0.588233 -0.562381 -0.536629 -0.685463 -0.492108 
-0.482783 -0.529254 -0.697718 0.626122 -0.750568 -0.211233 0.545669 -0.812494 -0.205181 
0.550367 -0.695687 -0.461645 0.417384 -0.893191 -0.167334 -0.431255 -0.888081 -0.15916 
-0.336344 -0.486418 -0.806393 -0.530803 -0.778799 -0.334246 -0.515375 -0.811103 -0.276586 
-0.525839 -0.716723 -0.458041 0.400782 -0.900858 -0.166819 0.346934 -0.922643 -0.168421 
0.29481 -0.827415 -0.477986 0.215523 -0.960267 -0.177303 0.0574868 -0.983834 -0.169603 
-0.0410286 -0.990503 -0.131228 -0.0780583 -0.993005 -0.0885891 -0.135152 -0.988851 -0.0625121 
-0.249607 -0.967868 -0.0304523 -0.185549 -0.655776 -0.731798 -0.362634 -0.927374 -0.0920508 
-0.331407 -0.940603 -0.0737228 -0.334668 -0.907426 -0.254116 0.285031 0.636932 -0.716293 
0.0896407 0.685747 -0.722299 -0.088807 0.624389 -0.776049 -0.208123 0.509137 -0.835143 
0.463838 0.528566 -0.710966 0.517616 0.482638 -0.706494 0.266825 0.508629 -0.818597 
0.0537325 0.477096 -0.877207 -0.143998 0.460089 -0.876118 -0.191346 0.387445 -0.901817 
-0.239251 0.412531 -0.878964 -0.177524 0.391155 -0.903041 0.00547595 0.485458 -0.874243 
-0.148865 0.599361 -0.786515 -0.283123 0.536278 -0.79514 0.59773 0.357847 -0.717401 
0.478514 0.330488 -0.813512 0.233727 0.291749 -0.927499 0.0499881 0.266078 -0.962655 
-0.108121 0.299729 -0.947878 -0.241035 0.416124 -0.87678 -0.148572 0.485411 -0.86157 
0.0729166 0.461054 -0.884371 -0.0933886 0.372084 -0.923489 -0.207261 0.537617 -0.817319 
-0.270067 0.495538 -0.825534 -0.153319 0.51556 -0.843025 -0.12035 0.406495 -0.905692 
-0.141906 0.347549 -0.926861 0.690827 0.251235 -0.677966 0.693824 0.244613 -0.677328 
0.430324 0.206104 -0.87883 -0.161612 0.251094 -0.954376 -0.11864 0.170547 -0.978181 
-0.17327 0.287825 -0.941878 -0.143297 0.316897 -0.937572 -0.11818 0.312572 -0.942514 
-0.151613 0.291947 -0.944341 -0.140629 0.295223 -0.945022 -0.255409 0.130523 -0.957982 
0.73799 0.0591137 -0.672217 0.649715 0.064884 -0.757403 0.404956 0.0802647 -0.910807 
-0.132179 0.0856169 -0.987521 -0.072623 0.0383571 -0.996622 -0.125771 0.113194 -0.98558 
-0.159285 0.162455 -0.973775 -0.145397 0.120256 -0.982038 -0.197819 0.0679025 -0.977884 
-0.33778 0.00394649 -0.941217 -0.28884 -0.123996 -0.949314 -0.322458 0.00565746 -0.946567 
0.748429 -0.18674 -0.636383 0.729394 -0.27282 -0.627338 0.708969 -0.183219 -0.681024 
0.441668 -0.0997592 -0.891615 -0.0227309 -0.140571 -0.98981 -0.0952425 -0.136774 -0.986013 
-0.0921412 -0.181215 -0.979117 -0.0424377 -0.0938424 -0.994682 -0.141532 -0.00591792 -0.989916 
-0.21151 -0.0402065 -0.976549 -0.255659 -0.223865 -0.940491 -0.380349 -0.297312 -0.875751 
-0.26832 -0.135089 -0.953811 0.68359 -0.398749 -0.611314 0.545745 -0.638003 -0.543245 
0.495169 -0.343333 -0.798079 -0.131704 -0.129114 -0.982845 -0.144702 -0.16408 -0.975776 
-0.166036 -0.244254 -0.955391 -0.0299942 -0.187425 -0.981821 0.0452085 -0.200877 -0.978573 
-0.104065 -0.168519 -0.98019 -0.382995 -0.30401 -0.872291 -0.326957 -0.458057 -0.826609 
-0.268943 -0.231591 -0.934899 0.519903 -0.671388 -0.528147 0.392787 -0.767001 -0.507374 
0.33539 -0.58872 -0.735474 0.281575 -0.804738 -0.522601 0.128154 -0.45919 -0.879046 
-0.0333888 -0.351211 -0.935701 -0.12202 -0.308225 -0.943456 -0.134799 -0.28387 -0.94934 
-0.115168 -0.23983 -0.963959 -0.0448588 -0.190386 -0.980684 -0.165752 -0.588195 -0.791551 
-0.0348459 -0.286208 -0.957534 -0.318302 -0.470567 -0.822953 -0.245085 -0.585388 -0.772822 
-0.179257 -0.393872 -0.901517 0.26019 -0.803882 -0.53486 0.140388 -0.774798 -0.616425 
0.098992 -0.704236 -0.703031 0.00304117 -0.700625 -0.713523 -0.0238829 -0.616403 -0.787068 
-0.0473796 -0.654135 -0.754892 -0.0568944 -0.577555 -0.814367 -0.0721485 -0.603514 -0.794081 
-0.0702886 -0.544343 -0.835913 -0.120326 -0.606098 -0.786236 -0.0787032 -0.607209 -0.790634 
-0.0776392 -0.588582 -0.804701 0.224433 0.197002 -0.954369 0.0556696 0.226173 -0.972495 
-0.0611754 0.236436 -0.969719 -0.104883 0.298143 -0.948741 -0.182163 0.378382 -0.907548 
0.234546 0.190646 -0.953227 0.224316 0.190151 -0.955785 0.0621932 0.151915 -0.986435 
-0.00542804 0.155579 -0.987809 -0.037264 0.22558 -0.973512 -0.18693 0.320965 -0.92846 
-0.185329 0.343296 -0.920761 0.308416 0.0870762 -0.947258 0.170559 0.0955515 -0.980704 
0.0123562 0.0675549 -0.997639 -0.0288905 0.0127076 -0.999502 -0.0524334 -0.0689173 -0.996244 
-0.128886 0.0264448 -0.991307 -0.0462656 -0.11941 -0.991767 -0.124177 -0.0545415 -0.99076 
0.347774 -0.0870178 -0.933532 0.213438 -0.0727963 -0.974241 -0.0219363 -0.0364811 -0.999094 
-0.139204 -0.0591407 -0.988496 -0.0773567 -0.121331 -0.989593 -0.110141 -0.115264 -0.98721 
-0.104275 -0.112083 -0.988213 0.251932 -0.261953 -0.931617 0.237724 -0.279307 -0.930309 
0.232099 -0.258836 -0.937621 0.068533 -0.31962 -0.945064 0.0258343 -0.223084 -0.974457 
-0.121189 -0.129802 -0.984106 -0.0725051 -0.234608 -0.969382 -0.106333 -0.132007 -0.985529 

