# vtk DataFile Version 4.2
vtk output
ASCII
DATASET POLYDATA
POINTS 566 float
-36.2752 11.9544 -21.5655 38.5537 20.2687 -21.0169 -27.9608 -29.6172 -13.4117 
-19.6465 -29.6172 -14.5564 -11.3322 -29.6172 -14.6445 -3.0179 -29.6172 -13.6075 
5.29642 -29.6172 -12.9222 -36.2752 -21.3029 -14.9222 -27.9608 -21.3029 -15.7834 
-19.6465 -21.3029 -16.1974 -11.3322 -21.3029 -16.2261 -3.0179 -21.3029 -14.8668 
5.29642 -21.3029 -13.2273 13.6107 -21.3029 -13.053 -44.5895 -12.9886 -15.8287 
-36.2752 -12.9886 -17.2034 -27.9608 -12.9886 -17.5899 -19.6465 -12.9886 -16.3505 
-11.3322 -12.9886 -17.4511 -3.0179 -12.9886 -16.8528 5.29642 -12.9886 -14.0932 
13.6107 -12.9886 -14.0077 30.2394 -12.9886 -12.7473 38.5537 -12.9886 -13.2741 
-52.9038 -4.67423 -14.0074 -44.5895 -4.67423 -18.2396 -36.2752 -4.67423 -19.509 
-27.9608 -4.67423 -19.046 -19.6465 -4.67423 -17.3741 -11.3322 -4.67423 -18.9834 
-3.0179 -4.67423 -16.8797 5.29642 -4.67423 -15.4831 13.6107 -4.67423 -13.6711 
21.9251 -4.67423 -13.1021 30.2394 -4.67423 -14.6513 38.5537 -4.67423 -15.431 
46.868 -4.67423 -15.4077 55.1823 -4.67423 -13.4784 -52.9038 3.64008 -16.0591 
-44.5895 3.64008 -19.4727 -36.2752 5.53557 -20.7696 -36.2752 3.64008 -20.5398 
-27.9608 3.64008 -19.9155 -19.6465 3.64008 -18.2459 -11.3322 3.64008 -15.8424 
-3.0179 3.64008 -14.5415 5.29642 3.64008 -13.0727 21.9251 3.64008 -14.6674 
30.2394 3.64008 -16.7894 38.5537 3.64008 -17.6245 46.868 3.64008 -17.1223 
55.1823 3.64008 -15.1106 -52.9038 11.9544 -16.8091 -40.134 11.9544 -20.7696 
-44.5895 11.9544 -19.8898 -31.1836 11.9544 -20.7696 -36.2752 15.4955 -20.7696 
-27.9608 11.9544 -20.2645 -19.6465 11.9544 -17.5562 -11.3322 11.9544 -13.0948 
13.6107 11.9544 -13.2925 21.9251 11.9544 -15.3331 30.2394 11.9544 -17.8326 
38.5537 19.5892 -20.7696 38.5537 11.9544 -18.3256 46.868 11.9544 -18.2172 
55.1823 11.9544 -17.4279 -52.9038 20.2687 -15.1806 -44.5895 20.2687 -19.156 
-36.2752 20.2687 -19.6894 -27.9608 20.2687 -18.632 -19.6465 20.2687 -15.3381 
13.6107 20.2687 -13.3955 21.9251 20.2687 -16.6042 38.0127 20.2687 -20.7696 
30.2394 20.2687 -17.6283 39.0653 20.2687 -20.7696 38.5537 20.842 -20.7696 
46.868 20.2687 -16.9979 55.1823 20.2687 -14.5097 -44.5895 28.583 -15.9238 
-36.2752 28.583 -16.7465 -27.9608 28.583 -15.5875 -19.6465 28.583 -13.4378 
13.6107 28.583 -14.1525 21.9251 28.583 -16.13 30.2394 28.583 -19.4159 
38.5537 28.583 -17.4321 46.868 28.583 -16.7383 -36.2752 36.8974 -12.8337 
13.6107 36.8974 -12.6556 21.9251 36.8974 -15.2246 30.2394 36.8974 -15.6472 
38.5537 36.8974 -16.7748 46.868 36.8974 -12.7239 21.9251 45.2117 -13.6594 
30.2394 45.2117 -12.7973 -19.6465 -46.2458 -5.44252 -11.3322 -46.2458 -7.57841 
-3.0179 -46.2458 -8.4306 5.29642 -46.2458 -8.02427 13.6107 -46.2458 -6.82765 
21.9251 -46.2458 -6.092 -27.9608 -31.4753 -12.4553 -27.9608 -37.9315 -8.30317 
-19.6465 -35.2566 -12.4553 -19.6465 -37.9315 -11.2964 -11.3322 -37.7341 -12.4553 
-11.3322 -37.9315 -12.3961 -3.0179 -37.1233 -12.4553 -3.0179 -37.9315 -12.3173 
5.29642 -32.4524 -12.4553 5.29642 -37.9315 -11.4274 13.6107 -37.9315 -10.3871 
21.9251 -37.9315 -9.14526 30.2394 -37.9315 -6.59035 -44.5895 -29.6172 -4.95554 
-31.3318 -29.6172 -12.4553 -36.2752 -26.5978 -12.4553 -36.2752 -29.6172 -10.6778 
10.2759 -29.6172 -12.4553 13.6107 -26.6786 -12.4553 13.6107 -29.6172 -12.1242 
21.9251 -29.6172 -11.696 30.2394 -29.6172 -9.80683 38.5537 -29.6172 -7.43308 
-42.9028 -21.3029 -12.4553 -44.5895 -20.0748 -12.4553 -44.5895 -21.3029 -11.6062 
18.7617 -21.3029 -12.4553 21.9251 -21.3029 -12.0861 30.2394 -15.2142 -12.4553 
30.2394 -21.3029 -11.6221 38.5537 -15.2574 -12.4553 38.5537 -21.3029 -10.4192 
46.868 -21.3029 -8.7766 -51.0327 -12.9886 -12.4553 -52.9038 -9.00281 -12.4553 
-52.9038 -12.9886 -10.539 20.8801 -12.9886 -12.4553 25.4209 -12.9886 -12.4553 
21.9251 -10.954 -12.4553 21.9251 -12.9886 -12.2474 45.1056 -12.9886 -12.4553 
46.868 -12.4034 -12.4553 46.868 -12.9886 -12.1995 55.1823 -7.05884 -12.4553 
55.1823 -12.9886 -9.1934 -54.4014 -4.67423 -12.4553 5.29642 -4.67423 -10.0673 
13.6107 -0.685997 -12.4553 56.7079 -4.67423 -12.4553 63.4966 -4.67423 -4.76296 
-57.4038 3.64008 -12.4553 -61.2181 3.64008 -4.43925 -3.0179 7.13111 -12.4553 
-3.0179 3.64008 -7.68259 7.7769 3.64008 -12.4553 5.29642 4.60112 -12.4553 
16.109 3.64008 -12.4553 13.6107 8.06616 -12.4553 13.6107 3.64008 -11.0655 
59.4494 3.64008 -12.4553 63.4966 3.64008 -6.30213 -57.7391 11.9544 -12.4553 
-9.9217 11.9544 -12.4553 -11.3322 14.3071 -12.4553 -3.0179 11.9544 -7.4857 
11.843 11.9544 -12.4553 5.29642 11.9544 -8.91038 60.1759 11.9544 -12.4553 
-55.2863 20.2687 -12.4553 -52.9038 25.1521 -12.4553 -14.2706 20.2687 -12.4553 
-11.3322 20.2687 -10.8302 -3.0179 20.2687 -7.23482 10.5792 20.2687 -12.4553 
5.29642 20.2687 -10.3098 57.2762 20.2687 -12.4553 55.1823 25.6092 -12.4553 
-50.5936 28.583 -12.4553 -52.9038 28.583 -7.47985 -44.5895 34.2818 -12.4553 
-27.9608 35.9024 -12.4553 -17.617 28.583 -12.4553 -19.6465 30.7346 -12.4553 
-11.3322 28.583 -9.48864 -3.0179 28.583 -8.24771 10.2321 28.583 -12.4553 
5.29642 28.583 -9.97918 53.3735 28.583 -12.4553 -37.5026 36.8974 -12.4553 
-44.5895 36.8974 -8.15942 -32.8735 36.8974 -12.4553 -36.2752 37.2751 -12.4553 
-27.9608 36.8974 -11.9604 -19.6465 36.8974 -9.60709 -11.3322 36.8974 -8.37417 
-3.0179 36.8974 -9.5534 13.1352 36.8974 -12.4553 5.29642 36.8974 -8.97566 
13.6107 37.4807 -12.4553 38.5537 44.3191 -12.4553 47.1576 36.8974 -12.4553 
46.868 37.2355 -12.4553 46.868 36.8974 -8.04766 -27.9608 45.2117 -6.77118 
-19.6465 45.2117 -4.45482 -11.3322 45.2117 -5.27322 -3.0179 45.2117 -4.88569 
5.29642 45.2117 -6.191 19.6423 45.2117 -12.4553 13.6107 45.2117 -8.60136 
21.9251 46.6556 -12.4553 33.7184 45.2117 -12.4553 30.2394 45.7068 -12.4553 
38.5537 45.2117 -8.97412 -19.6465 -47.399 -4.14095 -11.3322 -49.3601 -4.14095 
-3.0179 -50.7125 -4.14095 -3.0179 -54.5601 3.99201 5.29642 -50.682 -4.14095 
5.29642 -54.5601 3.64521 13.6107 -49.3705 -4.14095 21.9251 -48.3663 -4.14095 
-21.8623 -46.2458 -4.14095 -27.9608 -42.4214 -4.14095 26.3501 -46.2458 -4.14095 
30.2394 -42.3947 -4.14095 30.2394 -46.2458 -0.181996 -44.5895 -30.2116 -4.14095 
-35.2493 -37.9315 -4.14095 -36.2752 -37.2387 -4.14095 -36.2752 -37.9315 -2.25861 
38.3234 -37.9315 -4.14095 38.5537 -37.7437 -4.14095 38.5537 -37.9315 -4.02363 
-45.1748 -29.6172 -4.14095 46.5751 -29.6172 -4.14095 46.868 -29.3861 -4.14095 
46.868 -29.6172 -3.93273 -52.0017 -21.3029 -4.14095 -52.9038 -19.968 -4.14095 
53.6143 -21.3029 -4.14095 55.1823 -19.752 -4.14095 55.1823 -21.3029 1.06012 
-56.7603 -12.9886 -4.14095 5.29642 -7.75941 -4.14095 59.296 -12.9886 -4.14095 
63.4966 -5.37112 -4.14095 -59.5173 -4.67423 -4.14095 -61.2181 3.1417 -4.14095 
-11.3322 -4.67423 2.05007 2.0587 -4.67423 -4.14095 -3.0179 2.54982 -4.14095 
-3.0179 -4.67423 2.21145 8.80789 -4.67423 -4.14095 5.29642 2.07124 -4.14095 
5.29642 -4.67423 -1.45931 63.7816 -4.67423 -4.14095 63.4966 -4.67423 -3.37931 
-61.3185 3.64008 -4.14095 -61.2181 5.82477 -4.14095 -61.2181 3.64008 -3.5284 
-4.32237 3.64008 -4.14095 1.17525 3.64008 -4.14095 -3.0179 7.33022 -4.14095 
-3.0179 3.64008 -1.65611 64.2086 3.64008 -4.14095 63.4966 6.90874 -4.14095 
63.4966 3.64008 -2.47795 -60.9331 11.9544 -4.14095 62.3528 11.9544 -4.14095 
-58.4701 20.2687 -4.14095 58.9025 20.2687 -4.14095 55.1823 25.4226 -4.14095 
55.1823 20.2687 0.253568 -53.9422 28.583 -4.14095 -52.9038 29.9701 -4.14095 
-52.9038 28.583 -1.42332 52.9666 28.583 -4.14095 46.868 36.5688 -4.14095 
46.868 28.583 3.23105 -46.6661 36.8974 -4.14095 -44.5895 38.6242 -4.14095 
-44.5895 36.8974 1.17373 -36.2752 44.1159 -4.14095 46.6329 36.8974 -4.14095 
-33.341 45.2117 -4.14095 -27.9608 46.8656 -4.14095 -19.6465 45.511 -4.14095 
-11.3322 46.5137 -4.14095 -3.0179 46.0711 -4.14095 5.29642 47.0896 -4.14095 
13.6107 51.5694 -4.14095 21.9251 52.6842 -4.14095 30.2394 51.2983 -4.14095 
39.3288 45.2117 -4.14095 38.5537 45.9857 -4.14095 38.5537 45.2117 -3.17837 
-3.0179 -54.6198 4.17336 5.29642 -54.7322 4.17336 -19.6465 -50.4582 4.17336 
-3.40249 -54.5601 4.17336 -11.3322 -53.2815 4.17336 -3.0179 -54.5601 4.40344 
7.87507 -54.5601 4.17336 5.29642 -54.5601 4.7263 13.6107 -54.1603 4.17336 
21.9251 -51.7541 4.17336 30.2394 -48.2804 4.17336 -36.2752 -39.7161 4.17336 
-27.5056 -46.2458 4.17336 -27.9608 -45.9752 4.17336 21.9251 -46.2458 12.0407 
33.637 -46.2458 4.17336 30.2394 -46.2458 10.3481 38.5537 -42.8503 4.17336 
-38.3187 -37.9315 4.17336 -44.5895 -31.9043 4.17336 -36.2752 -37.9315 9.09146 
43.9929 -37.9315 4.17336 38.5537 -37.9315 9.90422 46.868 -34.8132 4.17336 
-46.6584 -29.6172 4.17336 -44.5895 -29.6172 8.88011 51.0508 -29.6172 4.17336 
46.868 -29.6172 11.2079 55.1823 -22.2369 4.17336 -52.6247 -21.3029 4.17336 
-52.9038 -20.8117 4.17336 46.868 -21.3029 11.0761 55.6567 -21.3029 4.17336 
55.1823 -21.3029 4.85825 -56.8749 -12.9886 4.17336 -52.9038 -12.9886 10.497 
-11.3322 -6.35303 4.17336 -3.0179 -5.99137 4.17336 46.868 -12.9886 11.7655 
58.8923 -12.9886 4.17336 55.1823 -12.9886 8.09816 -58.9879 -4.67423 4.17336 
-52.9038 -4.67423 12.091 -13.2145 -4.67423 4.17336 -11.3322 0.95926 4.17336 
-11.3322 -4.67423 6.82321 -1.46018 -4.67423 4.17336 -3.0179 -0.800643 4.17336 
-3.0179 -4.67423 7.3193 46.868 -4.67423 11.871 59.3086 -4.67423 4.17336 
55.1823 -4.67423 7.77027 -59.7375 3.64008 4.17336 -52.9038 3.64008 12.0108 
46.868 3.64008 11.0207 59.136 3.64008 4.17336 55.1823 3.64008 7.37595 
-59.2513 11.9544 4.17336 -52.9038 11.9544 10.3091 38.5537 11.9544 12.2537 
46.868 11.9544 9.42438 57.0019 11.9544 4.17336 55.1823 15.0654 4.17336 
55.1823 11.9544 5.76325 -56.1163 20.2687 4.17336 -52.9038 25.4675 4.17336 
-52.9038 20.2687 8.13457 -3.0179 20.2687 11.4625 5.29642 20.2687 11.977 
38.5537 20.2687 10.1218 50.1916 20.2687 4.17336 46.868 26.3679 4.17336 
46.868 20.2687 6.28953 -50.0668 28.583 4.17336 -44.5895 35.3097 4.17336 
-44.5895 28.583 9.345 -3.0179 28.583 11.3891 5.29642 28.583 11.2605 
13.6107 28.583 12.1569 21.9251 28.583 12.308 30.2394 28.583 10.9126 
45.354 28.583 4.17336 38.5537 28.583 7.63414 -42.8383 36.8974 4.17336 
[...]
POINT_DATA 566
SCALARS ImageScalars float
LOOKUP_TABLE default
0 0 0 0 0 0 0 0 0 
0 0 0 0 0 0 0 0 0 
0 0 0 0 0 0 0 0 0 
0 0 0 0 0 0 0 0 0 
0 0 0 0 0 0 0 0 0 
0 0 0 0 0 0 0 0 0 
0 0 0 0 0 0 0 0 0 
0 0 0 0 0 0 0 0 0 
0 0 0 0 0 0 0 0 0 
0 0 0 0 0 0 0 0 0 
0 0 0 0 0 0 0 0 0 
0 0 0 0 0 0 0 0 0 
0 0 0 0 0 0 0 0 0 
0 0 0 0 0 0 0 0 0 
0 0 0 0 0 0 0 0 0 
0 0 0 0 0 0 0 0 0 
0 0 0 0 0 0 0 0 0 
0 0 0 0 0 0 0 0 0 
0 0 0 0 0 0 0 0 0 
0 0 0 0 0 0 0 0 0 
0 0 0 0 0 0 0 0 0 
0 0 0 0 0 0 0 0 0 
0 0 0 0 0 0 0 0 0 
0 0 0 0 0 0 0 0 0 
0 0 0 0 0 0 0 0 0 
0 0 0 0 0 0 0 0 0 
0 0 0 0 0 0 0 0 0 
0 0 0 0 0 0 0 0 0 
0 0 0 0 0 0 0 0 0 
0 0 0 0 0 0 0 0 0 
0 0 0 0 0 0 0 0 0 
0 0 0 0 0 0 0 0 0 
0 0 0 0 0 0 0 0 0 
0 0 0 0 0 0 0 0 0 
0 0 0 0 0 0 0 0 0 
0 0 0 0 0 0 0 0 0 
0 0 0 0 0 0 0 0 0 
0 0 0 0 0 0 0 0 0 
0 0 0 0 0 0 0 0 0 
0 0 0 0 0 0 0 0 0 
0 0 0 0 0 0 0 0 0 
0 0 0 0 0 0 0 0 0 
0 0 0 0 0 0 0 0 0 
0 0 0 0 0 0 0 0 0 
0 0 0 0 0 0 0 0 0 
0 0 0 0 0 0 0 0 0 
0 0 0 0 0 0 0 0 0 
0 0 0 0 0 0 0 0 0 
0 0 0 0 0 0 0 0 0 
0 0 0 0 0 0 0 0 0 
0 0 0 0 0 0 0 0 0 
0 0 0 0 0 0 0 0 0 
0 0 0 0 0 0 0 0 0 
0 0 0 0 0 0 0 0 0 
0 0 0 0 0 0 0 0 0 
0 0 0 0 0 0 0 0 0 
0 0 0 0 0 0 0 0 0 
0 0 0 0 0 0 0 0 0 
0 0 0 0 0 0 0 0 0 
0 0 0 0 0 0 0 0 0 
0 0 0 0 0 0 0 0 0 
0 0 0 0 0 0 0 0 0 
0 0 0 0 0 0 0 0 
NORMALS Normals float
0.024441 -0.0488771 0.998506 -0.0111774 -0.0317083 0.999435 0.192761 0.373124 0.907536 
0.0669609 0.278178 0.958193 -0.0559378 0.226675 0.972363 -0.10209 0.148576 0.983617 
-0.0861456 0.101648 0.991084 0.199024 0.33256 0.921842 0.0723257 0.240881 0.967856 
0.0252916 0.105493 0.994098 -0.0742841 0.158978 0.984483 -0.180348 0.174899 0.967928 
-0.10157 0.0675227 0.992534 -0.0676946 0.10795 0.991849 0.301869 0.315412 0.899661 
0.10403 0.257054 0.960782 -0.050327 0.182762 0.981868 -0.0172683 0.0674234 0.997575 
0.0393465 0.15427 0.987245 -0.22029 0.130907 0.96661 -0.144428 0.118394 0.982407 
-0.121292 0.046929 0.991507 0.0614702 0.178583 0.982003 -0.0246135 0.300286 0.953532 
0.62178 0.261231 0.738341 0.245485 0.218447 0.944467 0.0415354 0.19823 0.979275 
-0.122258 0.145171 0.981824 -0.023105 0.11832 0.992707 0.00936028 -0.0986794 0.995075 
-0.212933 -0.163476 0.963294 -0.498354 -0.0517471 0.865428 -0.147385 -0.169511 0.974445 
0.0673494 0.143145 0.987408 0.136014 0.235542 0.962299 0.044901 0.26145 0.964172 
-0.0927825 0.272203 0.957756 -0.429649 0.294059 0.853775 0.543017 0.125642 0.830269 
0.239948 0.0888818 0.966708 0.0275896 0.0815796 0.996285 0.0279102 0.119309 0.992465 
-0.140288 0.0715651 0.987521 -0.234103 0.0122466 0.972135 -0.24761 -0.322869 0.91348 
-0.251102 -0.591291 0.766369 -0.312033 -0.582668 0.750422 0.297266 0.134178 0.94532 
0.176015 0.190446 0.965789 0.0197926 0.168399 0.98552 -0.134114 0.172183 0.975893 
-0.403124 0.171009 0.899026 0.541065 -0.0250422 0.840608 0.131988 -0.0292177 0.990821 
0.253577 -0.0129021 0.967229 -0.125805 -0.0622921 0.990097 -0.000964075 -0.141955 0.989873 
-0.219895 -0.0707074 0.972958 -0.385302 -0.156216 0.909472 -0.462679 -0.293685 0.836467 
0.339353 0.110104 0.934193 0.269157 0.113885 0.956339 0.174336 0.0491186 0.98346 
-0.00914472 -0.0121186 0.999885 0.023033 0.181474 0.983126 -0.0390274 -0.000973418 0.999238 
-0.449978 -0.0137058 0.892934 0.641427 -0.306485 0.703305 0.202133 -0.24527 0.948148 
-0.0311681 -0.265679 0.963557 -0.226535 -0.253117 0.940539 -0.409772 -0.224177 0.884212 
0.337111 0.0497604 0.940149 0.254156 0.0465862 0.966041 0.00678228 -0.0236936 0.999696 
0.233312 0.0821917 0.968922 -0.0317223 -0.0328545 0.998957 -0.0193025 -0.0457155 0.998768 
-0.375755 -0.0949525 0.921842 -0.640709 -0.345715 0.685545 0.281712 -0.456299 0.844055 
-0.0153326 -0.347967 0.937381 -0.184429 -0.345057 0.920283 -0.332303 -0.29937 0.894401 
0.336057 -0.0390973 0.94103 0.283496 -0.0762354 0.955939 0.0975356 -0.106555 0.989511 
-0.157525 -0.253108 0.954527 -0.356947 -0.265426 0.895621 0.0781846 -0.622767 0.778491 
0.355801 -0.256661 0.898627 0.171825 -0.130455 0.976452 0.0744681 -0.34935 0.934028 
-0.163511 -0.337832 0.926895 -0.658706 -0.582899 0.475747 0.184685 -0.463161 0.866818 
-0.0964888 -0.506896 0.85659 0.304051 0.739827 0.600175 0.137803 0.659098 0.739324 
0.0163576 0.579798 0.814596 -0.077282 0.544178 0.835403 -0.102491 0.560433 0.821834 
-0.245021 0.589984 0.76934 0.220421 0.415921 0.882284 0.347956 0.614768 0.707804 
0.144602 0.385455 0.911326 0.189409 0.445951 0.874787 0.0508208 0.324273 0.944597 
0.0536016 0.327845 0.94321 -0.0579128 0.234546 0.970379 -0.053314 0.247501 0.96742 
-0.0936276 0.144127 0.98512 -0.106472 0.245669 0.963489 -0.139154 0.283561 0.948804 
-0.18876 0.319878 0.928465 -0.303735 0.448905 0.840374 0.6411 0.659144 0.393091 
0.254544 0.4263 0.86803 0.293655 0.443989 0.846546 0.369598 0.531946 0.76186 
-0.0779629 0.130939 0.98832 -0.0707203 0.135455 0.988256 -0.0735398 0.153879 0.985349 
-0.148231 0.176058 0.973155 -0.206729 0.251385 0.945552 -0.36888 0.41056 0.833887 
0.402664 0.458988 0.791954 0.429708 0.462801 0.775349 0.469794 0.496234 0.730099 
-0.0775718 0.059507 0.995209 -0.0855469 0.0322207 0.995813 0.0159025 0.179701 0.983593 
-0.104023 0.184099 0.977388 -0.0480505 0.29098 0.955522 -0.1352 0.295495 0.945729 
-0.404713 0.467958 0.785635 0.580509 0.359873 0.730411 0.648207 0.319507 0.69119 
0.702418 0.382246 0.600414 -0.0748282 0.0553392 0.99566 -0.0146968 0.109667 0.99386 
-0.0334371 0.0804373 0.996199 -0.0686688 0.0608327 0.995783 -0.146352 0.332699 0.931607 
-0.175791 0.336894 0.924986 -0.186608 0.347636 0.918872 -0.434421 0.346011 0.831598 
-0.541583 0.518493 0.661705 0.682121 0.273147 0.678308 -0.439472 -0.806046 0.396427 
-0.00284414 -0.0980361 0.995179 -0.488494 0.292906 0.821936 -0.960664 0.260141 0.0972221 
0.74609 0.146205 0.649595 0.99143 0.0801351 0.103178 -0.342932 -0.682904 0.645012 
-0.546956 -0.779931 0.304214 -0.156837 -0.415621 0.895914 -0.239518 -0.575467 0.781965 
0.205099 0.045103 0.977701 0.276681 0.0680783 0.958547 0.223734 -0.0127641 0.974567 
-0.597921 0.124069 0.791895 -0.990505 -0.041203 0.13116 0.809192 -0.101104 0.57878 
-0.464956 -0.343298 0.816065 -0.479366 -0.27092 0.834751 -0.253952 -0.0166547 0.967073 
0.36077 0.0702471 0.930005 0.36463 0.0204071 0.930929 -0.790818 -0.123468 0.599468 
0.756857 -0.332113 0.56291 0.701551 -0.442555 0.558544 -0.455373 -0.212206 0.864641 
-0.483912 -0.185074 0.855323 -0.0482995 0.0648245 0.996727 0.353814 0.0461194 0.934178 
0.414563 0.0615219 0.907939 -0.756412 -0.351019 0.55193 -0.752301 -0.469504 0.462178 
0.608086 -0.510488 0.607975 0.798545 -0.571145 0.190051 0.3763 -0.639939 0.669982 
-0.195547 -0.429338 0.88172 -0.322659 -0.268307 0.907691 -0.305207 -0.316303 0.898221 
-0.316865 -0.149428 0.936626 0.0381577 0.138785 0.989587 0.360225 -0.0630441 0.930733 
0.397174 -0.0797025 0.914276 -0.73301 -0.509365 0.450826 0.127667 -0.650207 0.748954 
0.530413 -0.781293 0.329003 -0.0347775 -0.56367 0.825268 0.0867925 -0.644459 0.759697 
-0.192925 -0.454645 0.869527 -0.203404 -0.451059 0.869007 -0.01726 -0.302907 0.952864 
0.0502662 -0.252216 0.966365 0.346094 -0.250875 0.904036 0.199632 -0.215711 0.955833 
0.35582 -0.269604 0.894821 -0.383248 -0.681458 0.623486 -0.667254 -0.588449 0.456618 
-0.663205 -0.591487 0.458587 -0.788105 -0.615292 0.0174963 0.0598749 -0.793872 0.60513 
-0.0441416 -0.796357 0.603214 0.00858148 -0.696645 0.717364 0.0288677 -0.734895 0.677566 
0.261959 -0.749843 0.607547 0.233901 -0.476689 0.847383 0.421592 -0.561596 0.711948 
0.177875 -0.539134 0.823222 -0.225101 -0.60359 0.764859 -0.0983831 -0.519395 0.848852 
-0.568013 -0.784865 0.247684 0.316874 0.775847 0.545575 0.164618 0.779698 0.604129 
0.0626847 0.763596 0.642644 0.0841469 0.99541 0.0455774 -0.0583733 0.739323 0.670816 
-0.0283927 0.998716 0.0419516 -0.11718 0.667958 0.734916 -0.260355 0.709944 0.654366 
0.361051 0.76615 0.531654 0.457934 0.722415 0.518086 -0.364473 0.639476 0.676927 
-0.397731 0.554416 0.731049 -0.496944 0.781162 0.377933 0.651177 0.670424 0.35567 
0.533237 0.722963 0.439299 0.54421 0.72113 0.428727 0.581709 0.748542 0.318275 
-0.436646 0.520829 0.733537 -0.440193 0.520931 0.731342 -0.446775 0.527014 0.722944 
0.661036 0.662825 0.351702 -0.495634 0.512694 0.701065 -0.49894 0.514318 0.697521 
-0.507702 0.519997 0.686907 0.776023 0.560841 0.288524 0.797365 0.538573 0.272303 
-0.608024 0.565707 0.55703 -0.64163 0.572951 0.509939 -0.850389 0.525002 0.0348217 
0.878079 0.413702 0.240474 -0.10398 -0.722049 0.683983 -0.823381 0.481883 0.299722 
-0.962804 0.263333 0.060535 0.95019 0.248248 0.188446 0.991936 0.0874327 0.091754 
-0.723272 -0.643721 -0.25 -0.605919 -0.743521 0.282911 -0.693528 -0.719324 0.0398835 
0.544254 -0.778343 -0.313001 0.422305 -0.505704 0.752278 0.394657 0.543867 0.740577 
0.278973 -0.546052 0.789938 -0.967909 0.246933 0.0466391 -0.971092 0.238702 0.00129357 
0.993162 0.078124 0.0867551 0.99624 0.0146185 0.0853919 0.995607 0.0757396 0.0550457 
-0.704439 -0.703129 0.0968247 0.00684105 0.257544 0.966242 -0.574621 -0.30105 0.761039 
-0.544179 -0.464621 0.698567 -0.995925 -0.0802615 -0.041121 -0.982884 -0.148934 -0.108434 
-0.986095 -0.102045 -0.131159 0.983693 -0.162011 0.0781027 -0.942609 -0.274942 -0.189458 
0.931761 -0.362731 0.0157468 -0.815491 -0.525867 -0.241739 -0.766623 -0.56602 -0.303169 
-0.693177 -0.556309 -0.458285 0.821467 -0.569494 -0.0294776 0.803202 -0.595019 -0.0286142 
0.789554 -0.586077 -0.181985 -0.772916 -0.556886 -0.304104 -0.77516 -0.557587 -0.297024 
-0.567968 -0.415856 -0.710265 0.646949 -0.762106 0.0255227 0.609968 -0.790855 0.0498664 
0.623157 -0.718916 -0.307953 0.411481 -0.884608 0.219437 -0.774863 -0.559347 -0.294479 
0.319103 -0.902154 0.29033 0.107043 -0.924767 0.365167 -0.0321405 -0.803956 0.593819 
0.0191128 -0.78628 0.617575 0.0207339 -0.787152 0.61641 0.261296 -0.823983 0.502769 
0.432435 -0.809522 0.397083 -0.0553935 -0.995078 0.0821647 -0.305779 -0.951508 -0.033642 
-0.666439 -0.718374 -0.199495 -0.658212 -0.729212 -0.187103 -0.656066 -0.707752 -0.262038 
0.0838741 0.995877 0.0345657 -0.0268026 0.999614 0.00729425 0.405984 0.913651 0.0204744 
0.0903715 0.99527 0.0356449 0.233517 0.970929 0.0526077 0.082971 0.996355 0.0198086 
-0.0726214 0.997288 0.0119328 -0.0293825 0.999112 -0.0302027 -0.176672 0.984071 0.01978 
-0.332146 0.94265 -0.033022 -0.460049 0.885996 0.0580271 0.639643 0.768412 -0.0199979 
0.537484 0.843197 0.0114412 0.544762 0.838494 0.0127281 -0.174694 0.592355 -0.78651 
-0.52351 0.850044 0.0579847 -0.38429 0.757197 -0.52818 -0.652047 0.758116 -0.00968306 
0.658479 0.752103 -0.0273188 0.731018 0.677964 -0.0773163 0.627101 0.718492 -0.300856 
-0.73388 0.678349 -0.0355476 -0.592011 0.541688 -0.596739 -0.75269 0.658254 -0.0126218 
0.762844 0.639554 -0.0950739 0.72734 0.592644 -0.346048 -0.818176 0.56885 -0.0836502 
-0.623443 0.299312 -0.72231 -0.865712 0.438759 -0.240901 0.840423 0.518847 -0.156482 
0.844923 0.509446 -0.163006 -0.479118 0.0381852 -0.87692 -0.868724 0.423228 -0.257289 
-0.859465 0.41737 -0.295164 0.906505 0.343516 -0.245451 0.777312 0.237163 -0.582701 
-0.652915 -0.74443 -0.139737 0.696851 -0.680814 -0.22559 -0.354669 0.0483951 -0.933739 
-0.865209 0.216172 -0.452419 -0.720429 0.125073 -0.682158 0.938047 0.162141 -0.306231 
0.65845 0.0561666 -0.750526 -0.807822 -0.564067 -0.171031 -0.921464 0.362065 -0.140761 
-0.743347 -0.668681 -0.0173286 0.841322 -0.533701 -0.0856763 0.994312 -0.0955035 0.0471532 
0.703639 -0.681662 -0.200571 -0.326477 -0.0459827 -0.944086 -0.78489 0.0181649 -0.619369 
-0.565377 -0.04043 -0.823841 0.918711 0.0198003 -0.394434 0.597995 -0.0843547 -0.797048 
-0.308532 -0.138297 -0.941107 -0.693328 -0.129058 -0.708972 -0.494295 -0.118685 -0.861154 
0.866348 -0.208407 -0.453881 0.621193 -0.180381 -0.762616 -0.25474 -0.169989 -0.951951 
-0.364553 -0.240237 -0.899659 -0.62053 -0.300364 -0.724378 -0.598015 -0.37088 -0.710511 
-0.555346 -0.266549 -0.787745 0.790752 -0.389518 -0.472215 0.705404 -0.501475 -0.500927 
0.654456 -0.363054 -0.663234 -0.136964 -0.110798 -0.98436 0.120964 -0.136648 -0.983207 
-0.327803 -0.23808 -0.914256 -0.55028 -0.41216 -0.726165 -0.527475 -0.380597 -0.75955 
-0.446063 -0.339068 -0.828288 0.659444 -0.542327 -0.520591 0.5986 -0.612919 -0.515761 
0.519124 -0.442967 -0.730951 -0.116158 -0.0650234 -0.9911 0.0498527 -0.10958 -0.992727 
0.0652775 -0.158446 -0.985207 -0.0684639 -0.196118 -0.978187 -0.246512 -0.198469 -0.9486 
-0.522314 -0.37173 -0.767466 -0.422424 -0.259222 -0.86854 0.577967 -0.642513 -0.503121 
0.550159 -0.713143 -0.434455 0.422524 -0.548474 -0.72156 0.182321 -0.403708 -0.896537 
-0.144846 -0.225444 -0.963428 -0.12726 -0.290802 -0.948282 0.0313979 -0.263663 -0.964104 
0.00313241 -0.245334 -0.969434 -0.101637 -0.298861 -0.948869 -0.272228 -0.315462 -0.909052 
-0.535327 -0.383956 -0.752331 -0.514715 -0.408094 -0.754008 -0.480908 -0.363898 -0.797688 
0.461948 -0.799303 -0.384341 0.282851 -0.899456 -0.333127 0.287029 -0.754594 -0.590087 
0.0177507 -0.971629 -0.235843 0.0380261 -0.787764 -0.614802 -0.0895863 -0.95159 -0.294027 
-0.100629 -0.77214 -0.627434 -0.0273599 -0.92606 -0.376384 -0.0519124 -0.816489 -0.575023 
0.141044 -0.879002 -0.45548 0.0804391 -0.745851 -0.661238 0.0554536 -0.776926 -0.627145 
-0.00071638 -0.636886 -0.770958 -0.126137 -0.713679 -0.689023 -0.116914 -0.530169 -0.839793 
-0.407578 -0.534258 -0.740573 -0.308419 -0.630178 -0.712568 -0.337124 -0.523841 -0.782265 
0.34732 0.753256 -0.558547 0.1802 0.776004 -0.604438 0.0158494 0.747916 -0.663604 
-0.0871667 0.669251 -0.737906 -0.185406 0.569362 -0.800907 0.379415 0.7443 -0.549601 
0.463022 0.723316 -0.512273 0.326467 0.712755 -0.620806 0.114685 0.582621 -0.804612 
-0.0425009 0.494389 -0.868201 -0.121654 0.425674 -0.896662 -0.163952 0.541196 -0.824759 
-0.155462 0.438273 -0.885295 -0.155814 0.5267 -0.835649 -0.306254 0.545322 -0.780277 
0.557791 0.658462 -0.505269 0.586556 0.62825 -0.511131 0.372073 0.549218 -0.748279 
0.150291 0.420701 -0.894664 -0.0118988 0.344927 -0.938554 -0.141029 0.284147 -0.948352 
-0.103753 0.208766 -0.972446 -0.121662 0.209565 -0.970196 -0.162441 0.193321 -0.967595 
-0.379255 0.336164 -0.862067 -0.235284 0.219265 -0.946871 -0.381534 0.358012 -0.852208 
0.660159 0.511655 -0.549909 0.671721 0.453208 -0.585997 0.479581 0.377735 -0.792034 
-0.205305 0.0763872 -0.975713 -0.148092 -0.0373697 -0.988267 -0.104146 0.0570231 -0.992926 
-0.0860933 0.133116 -0.987354 -0.498002 0.245356 -0.831742 -0.270703 0.215182 -0.938305 
0.698987 0.339156 -0.629596 0.585183 0.282762 -0.760004 0.33684 0.110783 -0.935022 
-0.302854 -0.0146971 -0.952923 -0.134771 -0.125368 -0.982914 -0.00993104 -0.0777598 -0.996923 
-0.11591 -0.0464851 -0.992171 -0.364358 0.0027675 -0.931255 -0.292763 -0.0180882 -0.956014 
0.671999 0.170178 -0.720733 0.440858 0.0797151 -0.89403 0.238944 -0.029596 -0.970582 
-0.326183 -0.0532523 -0.943806 -0.199087 -0.0647091 -0.977843 -0.023091 -0.130263 -0.991211 
-0.0421776 -0.127952 -0.990883 -0.29448 0.0229854 -0.955381 -0.17856 -0.0386799 -0.983168 
0.629333 0.046999 -0.775713 0.346864 -0.0341589 -0.937293 0.155415 -0.102747 -0.982491 
0.0888189 -0.159564 -0.983184 0.187588 -0.248339 -0.950336 -0.438299 -0.246442 -0.864384 
-0.127773 -0.202216 -0.97097 -0.234543 -0.0825704 -0.968593 -0.061352 -0.0282221 -0.997717 
-0.0298532 -0.0403878 -0.998738 -0.258094 -0.0533324 -0.964647 -0.133929 -0.0665986 -0.988751 
0.561472 -0.0840073 -0.82322 0.312228 -0.0940011 -0.945345 0.126796 -0.123158 -0.984253 
0.0112317 -0.119931 -0.992719 0.0621769 -0.179557 -0.981781 -0.00318527 -0.45548 -0.89024 
-0.323662 -0.283604 -0.902669 -0.245238 -0.258149 -0.934461 0.000181712 -0.120315 -0.992736 
0.0151551 0.00320036 -0.99988 -0.0816094 -0.0275321 -0.996284 -0.216908 -0.100327 -0.971023 
-0.236148 -0.146528 -0.960606 -0.184881 -0.0851794 -0.979062 0.503643 -0.182823 -0.844346 
0.330693 -0.1807 -0.926278 0.146084 -0.148521 -0.97806 0.0323866 -0.108952 -0.993519 
-0.107069 -0.110703 -0.988069 -0.211582 -0.287975 -0.933972 -0.135454 -0.279794 -0.950457 
-0.137651 -0.401774 -0.905334 0.0856971 -0.138409 -0.98666 0.0004824 -0.161952 -0.986798 
0.0424673 -0.0321438 -0.998581 0.02599 -0.0493906 -0.998441 -0.236234 -0.159764 -0.958472 
-0.120248 -0.101884 -0.987502 0.379664 -0.309866 -0.871687 0.376484 -0.316975 -0.870509 
0.367742 -0.307561 -0.877594 0.208218 -0.23464 -0.949521 0.0528453 -0.19154 -0.980061 
-0.129914 -0.16126 -0.978324 -0.192055 -0.125997 -0.973262 -0.293829 -0.161145 -0.942177 
0.109447 -0.113879 -0.987448 0.0737765 -0.133608 -0.988284 0.09942 -0.0728744 -0.992373 
-0.0652291 -0.18453 -0.98066 -0.0493521 -0.117942 -0.991793 -0.202797 -0.171849 -0.964023 
-0.200648 -0.170622 -0.964691 -0.19893 -0.169793 -0.965193 0.270104 -0.310973 -0.91123 
0.251175 -0.316766 -0.914642 0.234246 -0.293904 -0.926687 0.149778 -0.342726 -0.927419 
0.110929 -0.269562 -0.956573 -0.0836255 -0.214832 -0.973064 -0.178155 -0.0912589 -0.979761 
-0.168445 -0.174036 -0.970226 -0.211702 -0.116093 -0.970415 0.0760901 -0.325656 -0.942421 
-0.0679579 -0.250426 -0.965748 0.0392264 -0.34461 -0.937926 0.027431 -0.301872 -0.952954 
0.224043 0.232251 -0.946501 0.106621 0.298581 -0.94841 -0.0305256 0.278835 -0.959854 
-0.19711 0.162506 -0.966819 0.225131 0.231103 -0.946524 0.223376 0.230341 -0.947125 
0.0810284 0.203351 -0.975747 -0.0598979 0.164179 -0.98461 -0.203428 0.142575 -0.968653 
-0.202953 0.147834 -0.967965 0.258058 0.0565592 -0.964472 0.199768 0.0224064 -0.979587 
0.0651318 0.0159949 -0.997748 -0.070193 0.0332484 -0.996979 -0.257517 -0.00641291 -0.966253 
-0.230623 -0.00567947 -0.973027 0.170116 -0.0954234 -0.980793 0.131127 -0.131302 -0.982632 
0.145114 -0.121142 -0.981971 0.178076 -0.236998 -0.95505 0.0915003 -0.134531 -0.986676 
-0.0825247 -0.00877544 -0.99655 -0.251285 -0.165472 -0.953664 -0.25061 -0.171139 -0.952841 
-0.247175 -0.169813 -0.953975 0.165077 -0.242923 -0.955896 -0.209374 -0.175576 -0.961944 
-0.0301436 -0.34249 -0.939038 -0.0897366 -0.154489 -0.983911 
