# vtk DataFile Version 4.2
vtk output
ASCII
DATASET POLYDATA
POINTS 538 float
-6.11846 -32.4279 -13.5145 23.0582 -32.4279 -14.0104 30.3523 -32.4279 -13.9916 
37.6465 -32.4279 -13.6501 -35.2951 -25.1337 -13.862 -28.0009 -25.1337 -14.7461 
-20.7068 -25.1337 -14.7746 -13.4126 -25.1337 -15.474 -6.11846 -25.1337 -15.5326 
1.17569 -25.1337 -15.8965 8.46985 -25.1337 -15.7838 15.764 -25.1337 -16.8289 
23.0582 -25.1337 -17.807 30.3523 -25.1337 -17.8894 37.6465 -25.1337 -16.9874 
44.9406 -25.1337 -15.216 -42.5892 -17.8396 -13.8031 -35.2951 -17.8396 -15.8501 
-28.0009 -17.8396 -16.7604 -20.7068 -17.8396 -16.1489 -13.4126 -17.8396 -15.4115 
-6.11846 -17.8396 -15.913 1.17569 -17.8396 -17.1534 8.46985 -17.8396 -17.4202 
15.764 -17.8396 -18.0116 23.0582 -17.8396 -18.5099 30.3523 -17.8396 -19.1703 
37.6465 -17.8396 -18.1265 44.9406 -17.8396 -16.0012 -42.5892 -10.5454 -14.7567 
-35.2951 -10.5454 -17.0391 -28.0009 -10.5454 -17.9568 -20.7068 -10.5454 -17.2393 
-13.4126 -10.5454 -15.8781 -6.11846 -10.5454 -15.8993 1.17569 -10.5454 -18.6985 
8.46985 -10.5454 -18.8822 15.764 -10.5454 -18.0438 23.0582 -10.5454 -17.6634 
30.3523 -10.5454 -17.9665 37.6465 -10.5454 -17.6202 44.9406 -10.5454 -16.3447 
52.2348 -10.5454 -13.7088 -42.5892 -3.25126 -14.7581 -35.2951 -3.25126 -16.927 
-28.0009 -3.25126 -17.7992 -20.7068 -3.25126 -17.7183 -13.4126 -3.25126 -16.9972 
-6.11846 -3.25126 -16.9774 1.17569 -3.25126 -17.3332 8.46985 -3.25126 -20.4368 
15.764 -3.25126 -17.4688 23.0582 -3.25126 -16.5361 30.3523 -3.25126 -16.9916 
37.6465 -3.25126 -17.062 44.9406 -3.25126 -15.8745 -35.2951 4.04289 -15.3503 
-28.0009 4.04289 -16.1674 -20.7068 4.04289 -15.6727 -13.4126 4.04289 -15.3603 
-6.11846 4.04289 -17.1039 1.17569 4.04289 -17.5611 8.46985 4.04289 -19.4529 
15.764 4.04289 -16.4963 23.0582 4.04289 -16.0557 30.3523 4.04289 -16.6141 
37.6465 4.04289 -16.5358 44.9406 4.04289 -14.9334 -35.2951 11.337 -13.5441 
-28.0009 11.337 -14.4541 -20.7068 11.337 -14.4546 -13.4126 11.337 -14.3664 
-6.11846 11.337 -15.652 1.17569 11.337 -16.1068 8.46985 11.337 -15.5458 
15.764 11.337 -15.5357 23.0582 11.337 -15.8056 30.3523 11.337 -16.0345 
37.6465 11.337 -15.357 44.9406 11.337 -13.7986 -20.7068 18.6312 -13.8164 
-13.4126 18.6312 -13.4676 1.17569 18.6312 -14.1161 8.46985 18.6312 -15.3493 
15.764 18.6312 -15.9093 23.0582 18.6312 -16.2077 30.3523 18.6312 -15.9457 
37.6465 18.6312 -13.768 8.46985 25.9254 -14.453 15.764 25.9254 -15.2795 
23.0582 25.9254 -14.9349 30.3523 25.9254 -13.8759 -6.11846 -32.5436 -13.4379 
23.0582 -33.0462 -13.4379 30.3523 -33.0559 -13.4379 37.6465 -32.7184 -13.4379 
-35.2951 -25.8534 -13.4379 -35.2951 -32.4279 -8.30702 -28.0009 -28.2721 -13.4379 
-28.0009 -32.4279 -11.4228 -20.7068 -28.9058 -13.4379 -20.7068 -32.4279 -12.0262 
-7.05928 -32.4279 -13.4379 -13.4126 -30.9296 -13.4379 -13.4126 -32.4279 -12.8413 
-1.1835 -32.4279 -13.4379 1.17569 -32.3214 -13.4379 1.17569 -32.4279 -13.389 
8.46985 -31.1451 -13.4379 8.46985 -32.4279 -12.7891 17.4293 -32.4279 -13.4379 
15.764 -32.1675 -13.4379 15.764 -32.4279 -13.2542 38.0914 -32.4279 -13.4379 
44.9406 -28.0102 -13.4379 44.9406 -32.4279 -7.24822 -36.1878 -25.1337 -13.4379 
-42.5892 -18.6029 -13.4379 -42.5892 -25.1337 -9.38888 47.9251 -25.1337 -13.4379 
52.2348 -25.1337 -8.08471 -43.1726 -17.8396 -13.4379 -49.8834 -17.8396 -7.33465 
51.7165 -17.8396 -13.4379 52.2348 -14.3578 -13.4379 52.2348 -17.8396 -13.1671 
-45.0257 -10.5454 -13.4379 -49.8834 -10.5454 -10.3372 52.5906 -10.5454 -13.4379 
52.2348 -7.44978 -13.4379 -45.1725 -3.25126 -13.4379 -49.8834 -3.25126 -10.706 
-42.5892 3.47558 -13.4379 51.5048 -3.25126 -13.4379 52.2348 -3.25126 -13.0891 
-49.8834 4.04289 -9.2757 -42.2108 4.04289 -13.4379 -42.5892 4.04289 -13.3272 
48.2413 4.04289 -13.4379 52.2348 4.04289 -11.1172 -49.8834 11.337 -6.31575 
-35.6821 11.337 -13.4379 -42.5892 11.337 -11.3118 -35.2951 11.8967 -13.4379 
-28.0009 17.7196 -13.4379 -6.11846 16.786 -13.4379 45.5568 11.337 -13.4379 
44.9406 12.3311 -13.4379 52.2348 11.337 -6.98543 -42.5892 18.6312 -8.44555 
-35.2951 18.6312 -12.0131 -25.9812 18.6312 -13.4379 -28.0009 18.6312 -13.2853 
-20.7068 20.1419 -13.4379 -13.107 18.6312 -13.4379 -13.4126 18.7576 -13.4379 
-2.43852 18.6312 -13.4379 -6.11846 18.6312 -12.7498 1.17569 22.0304 -13.4379 
38.512 18.6312 -13.4379 37.6465 19.9614 -13.4379 44.9406 18.6312 -10.2036 
-35.2951 25.9254 -8.75196 -28.0009 25.9254 -11.4628 -20.7068 25.9254 -11.9088 
-13.4126 25.9254 -11.6528 -6.11846 25.9254 -11.0405 4.27577 25.9254 -13.4379 
1.17569 25.9254 -12.5911 8.46985 28.6865 -13.4379 15.764 31.1696 -13.4379 
23.0582 31.1557 -13.4379 31.986 25.9254 -13.4379 30.3523 27.0085 -13.4379 
37.6465 25.9254 -11.6069 -28.0009 33.2195 -6.55906 -20.7068 33.2195 -8.37323 
-13.4126 33.2195 -8.54827 -6.11846 33.2195 -8.50671 1.17569 33.2195 -9.38662 
8.46985 33.2195 -11.2611 15.764 33.2195 -12.5295 23.0582 33.2195 -12.6192 
30.3523 33.2195 -10.2865 -35.2951 -34.7804 -6.14371 -28.0009 -37.325 -6.14371 
-20.7068 -38.4476 -6.14371 -13.4126 -38.8693 -6.14371 -6.11846 -38.5632 -6.14371 
1.17569 -38.1587 -6.14371 8.46985 -37.576 -6.14371 15.764 -37.4994 -6.14371 
23.0582 -37.7542 -6.14371 30.3523 -37.7522 -6.14371 37.6465 -36.1064 -6.14371 
44.9406 -33.0837 -6.14371 -39.4413 -32.4279 -6.14371 -42.5892 -29.9679 -6.14371 
-42.5892 -32.4279 -0.730068 45.8786 -32.4279 -6.14371 44.9406 -32.4279 -4.47093 
52.2348 -26.7379 -6.14371 -46.7616 -25.1337 -6.14371 -49.8834 -20.0596 -6.14371 
53.4469 -25.1337 -6.14371 52.2348 -25.1337 -2.91997 -50.922 -17.8396 -6.14371 
57.7293 -17.8396 -6.14371 -54.1761 -10.5454 -6.14371 58.8018 -10.5454 -6.14371 
-55.0448 -3.25126 -6.14371 -57.1775 -3.25126 -0.726073 58.1805 -3.25126 -6.14371 
-53.572 4.04289 -6.14371 56.5058 4.04289 -6.14371 -50.0549 11.337 -6.14371 
-49.8834 11.7002 -6.14371 52.8414 11.337 -6.14371 52.2348 12.4796 -6.14371 
52.2348 11.337 -3.07904 -46.2371 18.6312 -6.14371 -49.8834 18.6312 -0.733808 
-42.5892 22.2952 -6.14371 48.6683 18.6312 -6.14371 44.9406 24.2111 -6.14371 
-39.1633 25.9254 -6.14371 -42.5892 25.9254 -2.04358 -35.2951 29.3908 -6.14371 
43.6543 25.9254 -6.14371 37.6465 32.422 -6.14371 -28.8762 33.2195 -6.14371 
-35.2951 33.2195 -0.781291 -28.0009 33.7084 -6.14371 -20.7068 36.1074 -6.14371 
-13.4126 37.066 -6.14371 -6.11846 36.902 -6.14371 1.17569 37.8093 -6.14371 
8.46985 38.9018 -6.14371 15.764 39.5421 -6.14371 23.0582 39.1156 -6.14371 
36.5955 33.2195 -6.14371 30.3523 37.0464 -6.14371 37.6465 33.2195 -2.53697 
-20.7068 40.5137 -0.166183 -13.4126 40.5137 -2.80566 -6.11846 40.5137 -2.87416 
1.17569 40.5137 -3.55723 8.46985 40.5137 -4.26833 15.764 40.5137 -4.43628 
23.0582 40.5137 -2.77948 -42.5892 -32.936 1.15044 -35.2951 -37.3814 1.15044 
-28.0009 -39.5049 1.15044 -20.7068 -39.676 1.15044 -13.4126 -39.1151 1.15044 
-6.11846 -38.4664 1.15044 1.17569 -37.4385 1.15044 8.46985 -36.856 1.15044 
15.764 -36.5413 1.15044 23.0582 -36.4063 1.15044 30.3523 -35.5316 1.15044 
37.6465 -34.1401 1.15044 -43.1914 -32.4279 1.15044 -42.5892 -32.4279 3.20204 
1.17569 -32.4279 8.12064 8.46985 -32.4279 6.62503 15.764 -32.4279 5.95061 
23.0582 -32.4279 5.65131 30.3523 -32.4279 4.98923 40.743 -32.4279 1.15044 
37.6465 -32.4279 3.0477 44.9406 -30.1503 1.15044 -49.6446 -25.1337 1.15044 
-49.8834 -24.7714 1.15044 50.4419 -25.1337 1.15044 44.9406 -25.1337 5.9303 
52.2348 -22.5306 1.15044 -53.768 -17.8396 1.15044 55.8028 -17.8396 1.15044 
52.2348 -17.8396 4.15028 -56.7265 -10.5454 1.15044 -57.1775 -7.31532 1.15044 
57.2948 -10.5454 1.15044 52.2348 -10.5454 5.39696 -57.7073 -3.25126 1.15044 
-57.1775 2.2903 1.15044 -57.1775 -3.25126 3.15681 56.6243 -3.25126 1.15044 
52.2348 -3.25126 5.11915 -56.9967 4.04289 1.15044 54.5698 4.04289 1.15044 
52.2348 9.2217 1.15044 52.2348 4.04289 3.53253 -55.0266 11.337 1.15044 
51.3563 11.337 1.15044 44.9406 11.337 7.64687 -50.6586 18.6312 1.15044 
-49.8834 19.6824 1.15044 -49.8834 18.6312 5.65988 48.1642 18.6312 1.15044 
44.9406 24.0834 1.15044 44.9406 18.6312 4.86098 -44.5719 25.9254 1.15044 
-42.5892 27.9681 1.15044 43.9107 25.9254 1.15044 -36.6318 33.2195 1.15044 
-35.2951 34.2504 1.15044 -35.2951 33.2195 7.0169 -28.0009 38.3185 1.15044 
30.3523 38.7786 1.15044 38.2924 33.2195 1.15044 37.6465 33.8603 1.15044 
37.6465 33.2195 2.63377 -22.4928 40.5137 1.15044 -20.7068 41.1623 1.15044 
-13.4126 42.7737 1.15044 -6.11846 43.3844 1.15044 1.17569 43.6989 1.15044 
8.46985 43.7341 1.15044 15.764 42.9839 1.15044 26.3818 40.5137 1.15044 
23.0582 41.875 1.15044 23.0582 40.5137 6.87742 -35.2951 -35.5696 8.44459 
-28.0009 -37.2866 8.44459 -20.7068 -37.0441 8.44459 -13.4126 -35.6319 8.44459 
-6.11846 -34.1355 8.44459 -40.5275 -32.4279 8.44459 -42.5892 -30.7509 8.44459 
-35.2951 -32.4279 12.4444 -28.0009 -32.4279 13.7788 -20.7068 -32.4279 14.0504 
-13.4126 -32.4279 12.1037 0.156033 -32.4279 8.44459 -6.11846 -32.4279 10.1005 
1.17569 -32.0588 8.44459 8.46985 -30.0924 8.44459 15.764 -29.3302 8.44459 
23.0582 -29.2221 8.44459 30.3523 -28.2461 8.44459 37.6465 -26.5306 8.44459 
-47.483 -25.1337 8.44459 -49.8834 -21.3381 8.44459 -42.5892 -25.1337 13.3921 
-6.11846 -25.1337 14.2328 1.17569 -25.1337 12.807 8.46985 -25.1337 11.7987 
15.764 -25.1337 11.2332 23.0582 -25.1337 11.128 30.3523 -25.1337 10.5443 
39.8362 -25.1337 8.44459 37.6465 -25.1337 9.33655 44.9406 -19.6447 8.44459 
-51.7837 -17.8396 8.44459 -49.8834 -17.8396 10.7924 1.17569 -17.8396 15.1512 
8.46985 -17.8396 15.2264 15.764 -17.8396 14.9339 23.0582 -17.8396 14.0268 
30.3523 -17.8396 13.0045 37.6465 -17.8396 11.3855 46.1854 -17.8396 8.44459 
44.9406 -17.8396 9.12223 -54.7919 -10.5454 8.44459 -49.8834 -10.5454 13.9654 
1.17569 -10.5454 15.1198 23.0582 -10.5454 15.3419 30.3523 -10.5454 14.0212 
37.6465 -10.5454 12.227 48.1299 -10.5454 8.44459 44.9406 -10.5454 10.3232 
-55.4321 -3.25126 8.44459 -49.8834 -3.25126 15.1775 30.3523 -3.25126 14.3029 
37.6465 -3.25126 12.4334 48.0173 -3.25126 8.44459 44.9406 -3.25126 10.2797 
-55.1259 4.04289 8.44459 -49.8834 4.04289 14.9483 30.3523 4.04289 14.5184 
37.6465 4.04289 12.2131 46.8613 4.04289 8.44459 44.9406 8.91558 8.44459 
[...]
POINT_DATA 538
SCALARS ImageScalars float
LOOKUP_TABLE default
0 0 0 0 0 0 0 0 0 
0 0 0 0 0 0 0 0 0 
0 0 0 0 0 0 0 0 0 
0 0 0 0 0 0 0 0 0 
0 0 0 0 0 0 0 0 0 
0 0 0 0 0 0 0 0 0 
0 0 0 0 0 0 0 0 0 
0 0 0 0 0 0 0 0 0 
0 0 0 0 0 0 0 0 0 
0 0 0 0 0 0 0 0 0 
0 0 0 0 0 0 0 0 0 
0 0 0 0 0 0 0 0 0 
0 0 0 0 0 0 0 0 0 
0 0 0 0 0 0 0 0 0 
0 0 0 0 0 0 0 0 0 
0 0 0 0 0 0 0 0 0 
0 0 0 0 0 0 0 0 0 
0 0 0 0 0 0 0 0 0 
0 0 0 0 0 0 0 0 0 
0 0 0 0 0 0 0 0 0 
0 0 0 0 0 0 0 0 0 
0 0 0 0 0 0 0 0 0 
0 0 0 0 0 0 0 0 0 
0 0 0 0 0 0 0 0 0 
0 0 0 0 0 0 0 0 0 
0 0 0 0 0 0 0 0 0 
0 0 0 0 0 0 0 0 0 
0 0 0 0 0 0 0 0 0 
0 0 0 0 0 0 0 0 0 
0 0 0 0 0 0 0 0 0 
0 0 0 0 0 0 0 0 0 
0 0 0 0 0 0 0 0 0 
0 0 0 0 0 0 0 0 0 
0 0 0 0 0 0 0 0 0 
0 0 0 0 0 0 0 0 0 
0 0 0 0 0 0 0 0 0 
0 0 0 0 0 0 0 0 0 
0 0 0 0 0 0 0 0 0 
0 0 0 0 0 0 0 0 0 
0 0 0 0 0 0 0 0 0 
0 0 0 0 0 0 0 0 0 
0 0 0 0 0 0 0 0 0 
0 0 0 0 0 0 0 0 0 
0 0 0 0 0 0 0 0 0 
0 0 0 0 0 0 0 0 0 
0 0 0 0 0 0 0 0 0 
0 0 0 0 0 0 0 0 0 
0 0 0 0 0 0 0 0 0 
0 0 0 0 0 0 0 0 0 
0 0 0 0 0 0 0 0 0 
0 0 0 0 0 0 0 0 0 
0 0 0 0 0 0 0 0 0 
0 0 0 0 0 0 0 0 0 
0 0 0 0 0 0 0 0 0 
0 0 0 0 0 0 0 0 0 
0 0 0 0 0 0 0 0 0 
0 0 0 0 0 0 0 0 0 
0 0 0 0 0 0 0 0 0 
0 0 0 0 0 0 0 0 0 
0 0 0 0 0 0 0 
NORMALS Normals float
0.0319179 0.463894 0.885315 0.0439953 0.632877 0.773002 -0.0232195 0.659844 0.751044 
-0.256509 0.583505 0.770536 0.281569 0.407216 0.868846 0.0629716 0.334711 0.940214 
0.0462013 0.250685 0.966966 0.0509555 0.148964 0.987529 0.0277772 0.157347 0.987153 
0.0170548 0.242921 0.969896 0.0657962 0.28872 0.95515 0.1274 0.28013 0.951471 
0.0778489 0.255341 0.963712 -0.045048 0.279941 0.95896 -0.214788 0.31441 0.924669 
-0.374638 0.316758 0.871384 0.409428 0.274131 0.870184 0.199507 0.219099 0.955088 
0.0152508 0.21072 0.977427 -0.0872416 0.162609 0.982826 -0.0176068 0.0264153 0.999496 
0.117324 0.0250336 0.992778 0.0995988 0.187287 0.977243 0.057842 0.20152 0.977775 
0.0741124 0.084834 0.993635 0.0777101 -0.013 0.996891 -0.0344256 0.0155236 0.999287 
-0.189603 0.0300748 0.9814 -0.304781 0.0829633 0.948802 0.39533 0.0636015 0.916335 
0.203745 0.0660899 0.976791 0.0126073 0.0684298 0.997576 -0.136998 0.107916 0.984675 
-0.0941847 0.110115 0.989446 0.202152 0.0771438 0.976311 0.18258 0.0190447 0.983006 
-0.0454396 0.204212 0.977872 -0.0815616 -0.0329411 0.996124 -0.00531631 -0.136449 0.990633 
-0.00293994 -0.145192 0.989399 -0.106991 -0.0758818 0.99136 -0.214143 -0.00983794 0.976753 
-0.508291 -0.00678423 0.861159 0.368239 -0.0906045 0.925306 0.194728 -0.112217 0.974417 
0.0526309 -0.120764 0.991285 -0.0550546 -0.0958598 0.993871 -0.0509226 -0.0339488 0.998125 
0.0206198 0.0738216 0.997058 0.242705 -0.0828154 0.966559 0.0117256 0.0505353 0.998653 
-0.280438 -0.100239 0.954624 -0.0259486 -0.110698 0.993515 0.0358005 -0.0929246 0.995029 
-0.0738172 -0.0782008 0.994201 -0.212678 -0.0913293 0.972845 0.179484 -0.215279 0.959917 
0.0232027 -0.225219 0.974032 -0.0547078 -0.228044 0.972113 0.100129 -0.185032 0.977618 
0.144661 -0.081743 0.986099 0.141235 -0.079137 0.986808 -0.0441673 -0.348517 0.936261 
-0.217208 -0.141977 0.965745 0.0142547 -0.0507629 0.998609 0.0324977 -0.065106 0.997349 
-0.106434 -0.107569 0.988484 -0.306909 -0.137393 0.94177 0.193545 -0.215887 0.957044 
0.0577723 -0.190408 0.980004 -0.00598532 -0.119238 0.992848 0.072213 -0.123898 0.989664 
0.121141 -0.305559 0.944436 -0.00944875 -0.238413 0.971118 -0.0361127 -0.233157 0.971768 
0.0178298 -0.0269162 0.999479 0.0339638 0.0100018 0.999373 -0.0286742 -0.0468685 0.998489 
-0.153734 -0.190592 0.969557 -0.392266 -0.251952 0.884674 0.0104063 -0.166058 0.986061 
-0.0715254 -0.177718 0.981479 0.176016 -0.221006 0.959257 0.120451 -0.0745129 0.989919 
0.0576858 -0.0156395 0.998212 0.000415083 -0.0580536 0.998313 -0.149216 -0.128373 0.980436 
-0.333377 -0.215424 0.917852 0.174014 -0.23596 0.956056 0.0343443 -0.204782 0.978205 
-0.0874265 -0.221009 0.971345 -0.192442 -0.339537 0.920696 0.031706 0.470164 0.882009 
0.041373 0.659863 0.750246 -0.0155643 0.691188 0.722507 -0.257535 0.601673 0.756086 
0.288434 0.42739 0.856822 0.36726 0.646842 0.668368 0.113837 0.403245 0.907984 
0.200798 0.549194 0.811212 0.0627605 0.366258 0.928394 0.0828864 0.523548 0.847955 
0.0399296 0.466013 0.883876 0.0849506 0.412424 0.907023 0.0898779 0.498519 0.862207 
-0.015872 0.499052 0.866427 -0.0385218 0.51124 0.858574 -0.0394687 0.517643 0.854686 
0.00829817 0.485537 0.874177 -0.00768777 0.563483 0.826092 0.0589956 0.613983 0.787111 
0.0663264 0.595412 0.800678 0.0634992 0.615694 0.785423 -0.269994 0.594392 0.757497 
-0.409557 0.486165 0.77195 -0.51179 0.843717 0.161901 0.308881 0.416561 0.855026 
0.418674 0.294147 0.859179 0.517472 0.504925 0.69085 -0.499714 0.365293 0.785396 
-0.800069 0.540871 0.259516 0.430608 0.277506 0.858817 0.75433 0.335958 0.56402 
-0.539384 0.226671 0.810978 -0.538493 0.122603 0.833663 -0.571162 0.249424 0.782024 
0.466555 0.0827865 0.880609 0.644432 0.165704 0.746491 -0.519289 -0.00663721 0.854573 
-0.526821 -0.0684289 0.847217 0.440576 -0.0819872 0.893964 0.609473 -0.0629377 0.790305 
0.356352 -0.192324 0.914344 -0.510868 -0.14394 0.847523 -0.564769 -0.153406 0.810866 
0.600483 -0.208634 0.77194 0.345475 -0.202181 0.91639 0.355561 -0.201902 0.912585 
-0.425127 -0.193964 0.884107 -0.667543 -0.319219 0.672671 0.6573 -0.345807 0.669608 
0.201153 -0.220193 0.954491 0.367337 -0.312427 0.876044 0.201302 -0.220115 0.954477 
0.105392 -0.189243 0.976258 0.0574771 -0.296153 0.95341 -0.419307 -0.261587 0.869341 
-0.407496 -0.268217 0.87293 -0.833561 -0.465142 0.298026 0.47108 -0.41399 0.778907 
0.289823 -0.285828 0.913403 0.0833915 -0.182764 0.979614 0.113301 -0.190002 0.975224 
0.00894964 -0.198949 0.979969 -0.0666831 -0.182856 0.980876 -0.0714622 -0.179895 0.981087 
0.109379 -0.25644 0.960351 0.0401655 -0.288488 0.956641 0.203679 -0.245698 0.947706 
-0.355399 -0.227869 0.906514 -0.335748 -0.242729 0.910141 -0.63315 -0.435756 0.639717 
0.414537 -0.482273 0.771733 0.185376 -0.385751 0.903788 0.0090402 -0.333871 0.942575 
-0.0587703 -0.308702 0.949341 0.0548044 -0.264579 0.962806 0.20841 -0.263134 0.94198 
0.228427 -0.282668 0.931622 0.181791 -0.335248 0.924425 0.0653127 -0.437362 0.89691 
-0.107427 -0.427627 0.897549 -0.217496 -0.35147 0.910585 -0.210038 -0.360225 0.908913 
-0.395177 -0.437397 0.807786 0.297807 -0.635613 0.712255 0.112747 -0.557174 0.822706 
0.00759943 -0.48246 0.875885 0.0481428 -0.439348 0.897026 0.155417 -0.483141 0.861638 
0.180835 -0.52356 0.832576 0.0743955 -0.540407 0.838108 -0.115735 -0.533292 0.837977 
-0.349655 -0.589298 0.728333 0.385996 0.743684 0.54584 0.197229 0.854481 0.480586 
0.0941548 0.901264 0.422916 0.0049544 0.946225 0.323473 -0.0464236 0.960617 0.273969 
-0.0684192 0.969767 0.234244 -0.044315 0.973056 0.226271 0.0128236 0.97934 0.201816 
0.0175524 0.987076 0.159291 -0.115186 0.989112 0.0915915 -0.283299 0.957622 0.0519843 
-0.508639 0.857145 0.0811722 0.495134 0.688846 0.529465 0.564072 0.645771 0.51459 
0.631308 0.765867 0.122055 -0.537809 0.838937 0.0833485 -0.509199 0.860332 -0.0233425 
-0.783841 0.613151 0.0981818 0.654596 0.539547 0.529521 0.762541 0.399402 0.508929 
-0.819021 0.56386 0.106146 -0.812107 0.572354 -0.113549 0.785106 0.349313 0.511457 
-0.919106 0.353691 0.173626 0.821277 0.219653 0.526551 -0.984298 0.0263705 0.174534 
0.827164 -0.0256305 0.561375 0.990319 0.00958123 0.138481 -0.964944 -0.157076 0.210261 
0.752153 -0.225659 0.619148 -0.917409 -0.345989 0.196601 0.663282 -0.348297 0.662379 
0.662411 -0.353189 0.660658 -0.848274 -0.476517 0.231005 -0.844358 -0.482888 0.232116 
-0.893709 -0.448554 -0.00917435 0.60216 -0.453985 0.656735 0.798725 -0.557976 0.225167 
0.549647 -0.509408 0.662112 -0.81476 -0.508098 0.279291 -0.771666 -0.57864 0.26402 
0.530596 -0.544626 0.6495 0.678278 -0.646708 0.348865 0.453124 -0.603951 0.655685 
-0.75082 -0.59891 0.278524 -0.584246 -0.706253 0.39983 0.32206 -0.647903 0.69029 
0.553996 -0.789007 0.265625 0.305907 -0.65048 0.695196 0.152168 -0.664686 0.731462 
0.0366526 -0.617547 0.785679 0.0316665 -0.58728 0.808764 0.0907549 -0.631194 0.770297 
0.0809674 -0.739049 0.668768 0.00797778 -0.813827 0.581053 -0.142997 -0.832956 0.534543 
-0.552271 -0.725081 0.411405 -0.365867 -0.832256 0.416523 -0.66188 -0.735116 0.146695 
0.276685 -0.913415 0.298528 0.0941801 -0.831692 0.547191 0.0343681 -0.805083 0.592166 
0.0627663 -0.789237 0.610872 0.0369343 -0.830527 0.555752 -0.0309892 -0.879653 0.474606 
-0.213282 -0.929011 0.302406 0.629342 0.777059 0.0103663 0.393512 0.919227 0.0130674 
0.149351 0.988784 0.000286755 -0.0262731 0.996346 -0.0812641 -0.0830088 0.979352 -0.184337 
-0.114194 0.962645 -0.245507 -0.1118 0.935913 -0.334016 -0.0571702 0.92458 -0.376674 
-0.0296146 0.919738 -0.391415 -0.0657523 0.898058 -0.434935 -0.129067 0.868402 -0.478769 
-0.307209 0.806578 -0.505029 0.646143 0.763149 0.0100728 0.634152 0.76577 -0.106991 
-0.183531 0.673184 -0.716338 -0.101438 0.698501 -0.708383 -0.0529692 0.706539 -0.705689 
-0.0504519 0.723134 -0.688863 -0.129233 0.71676 -0.68524 -0.377605 0.782073 -0.495759 
-0.296663 0.742508 -0.600561 -0.463116 0.739627 -0.48834 0.808375 0.588656 0.00381176 
0.815175 0.579201 0.00394655 -0.690645 0.542669 -0.478038 -0.428284 0.468915 -0.772458 
-0.726434 0.474859 -0.496792 0.912769 0.407389 0.029768 -0.741313 0.353608 -0.570453 
-0.650137 0.272538 -0.709256 0.966144 0.257248 0.0197377 0.988106 0.153164 0.0136576 
-0.835221 0.040796 -0.548398 -0.64129 0.0542986 -0.765375 0.999779 0.018264 0.0103843 
0.991242 -0.122765 0.0486609 0.99241 0.021159 -0.121143 -0.834638 -0.163694 -0.525912 
-0.675378 -0.102684 -0.730288 0.983743 -0.168416 0.0623339 -0.804725 -0.30505 -0.509277 
-0.845366 -0.33757 -0.414007 -0.741949 -0.231067 -0.62938 0.912126 -0.397544 0.0999203 
-0.857647 -0.353726 -0.373256 -0.514073 -0.256009 -0.81865 0.814882 -0.570339 0.103349 
0.801161 -0.589583 0.102632 0.796162 -0.570185 -0.20252 -0.833004 -0.444029 -0.330064 
-0.805265 -0.526262 -0.273123 -0.70926 -0.362845 -0.604395 0.722072 -0.677089 0.141996 
0.698058 -0.702198 0.140115 -0.805067 -0.544464 -0.235427 0.592377 -0.793461 0.139672 
0.566852 -0.810904 0.145309 0.577272 -0.76993 -0.271964 0.413117 -0.896145 0.162041 
-0.473548 -0.880392 -0.0257274 -0.708037 -0.698206 -0.105789 -0.69146 -0.714956 -0.103542 
-0.697538 -0.689941 -0.19345 0.321025 -0.925684 0.200128 0.288492 -0.932907 0.215538 
0.150164 -0.948697 0.278253 0.0660513 -0.933718 0.351863 0.0230503 -0.944496 0.327713 
-0.0496939 -0.969065 0.24175 -0.123338 -0.980968 0.149965 -0.360605 -0.932464 0.0217887 
-0.274486 -0.960424 0.0473549 -0.323383 -0.88735 -0.328686 0.349229 0.834702 -0.425807 
0.0930154 0.866649 -0.49017 -0.0952599 0.858507 -0.503877 -0.167989 0.7984 -0.578219 
-0.188244 0.715507 -0.672766 0.533931 0.730469 -0.425832 0.603821 0.67377 -0.425951 
0.318455 0.661667 -0.67881 0.0804806 0.640285 -0.76391 -0.0832443 0.621706 -0.778814 
-0.205285 0.643867 -0.737084 -0.18731 0.662955 -0.724849 -0.205421 0.640903 -0.739625 
-0.185173 0.651769 -0.735465 -0.105077 0.602045 -0.791518 -0.0358364 0.585966 -0.809542 
-0.0447767 0.584033 -0.810494 -0.118542 0.534614 -0.836741 -0.254696 0.490006 -0.833681 
0.716495 0.537342 -0.444857 0.763874 0.464712 -0.447817 0.526236 0.428313 -0.734591 
-0.225931 0.320903 -0.91977 -0.151454 0.405836 -0.901309 -0.0953831 0.499452 -0.861075 
-0.0401233 0.511324 -0.858451 -0.0414169 0.467051 -0.88326 -0.121293 0.453974 -0.882721 
-0.301556 0.433083 -0.849413 -0.264394 0.431271 -0.862613 -0.39722 0.304843 -0.865614 
0.801804 0.399304 -0.444598 0.720581 0.394625 -0.570117 -0.0363558 0.140556 -0.989405 
-0.0141116 0.292064 -0.956295 -0.07802 0.332659 -0.939814 -0.124118 0.273176 -0.953923 
-0.171144 0.223968 -0.959452 -0.263113 0.201824 -0.943419 -0.435835 0.250817 -0.864372 
-0.397938 0.261437 -0.879372 0.853182 0.220424 -0.472752 0.593641 0.208793 -0.777172 
0.0444226 0.0452664 -0.997987 -0.17705 0.124409 -0.976307 -0.209462 0.0815558 -0.97441 
-0.258559 0.0655473 -0.963769 -0.493582 0.0674686 -0.867078 -0.398108 0.0772855 -0.914077 
0.871471 0.0217147 -0.489967 0.582784 0.0527646 -0.810912 -0.24064 0.0336619 -0.970031 
-0.272362 -0.000838632 -0.962195 -0.512141 -0.0568758 -0.857016 -0.421043 -0.0425973 -0.90604 
0.876557 -0.13767 -0.46119 0.599685 -0.115601 -0.791843 -0.304865 0.0422346 -0.951459 
-0.321601 -0.0492887 -0.945591 -0.531416 -0.155293 -0.832755 -0.483906 -0.219004 -0.847273 
-0.470182 -0.156873 -0.868516 0.840275 -0.336592 -0.425021 0.75978 -0.515484 -0.396245 
0.672713 -0.317124 -0.668498 -0.338463 0.0306295 -0.940481 -0.478224 -0.222545 -0.849574 
-0.456946 -0.0856958 -0.885357 0.742896 -0.539693 -0.396028 0.532358 -0.383717 -0.754557 
-0.373686 -0.0347383 -0.926904 -0.588515 -0.187905 -0.786347 -0.559071 -0.119519 -0.82046 
0.673419 -0.63621 -0.376488 0.667134 -0.64377 -0.374824 0.658798 -0.626148 -0.417043 
0.562073 -0.736334 -0.376678 0.412504 -0.501304 -0.760615 -0.444448 -0.217315 -0.869045 
-0.667855 -0.295805 -0.682985 -0.642589 -0.383383 -0.663398 -0.616819 -0.275622 -0.737269 
0.556566 -0.741533 -0.374651 0.454928 -0.810274 -0.369455 0.401614 -0.633422 -0.661424 
-0.329883 -0.833753 -0.442757 -0.269262 -0.440555 -0.856393 -0.58027 -0.576242 -0.575528 
-0.514853 -0.675126 -0.528329 -0.485713 -0.513914 -0.707089 0.339842 -0.893797 -0.292633 
0.326924 -0.899935 -0.28851 0.3245 -0.889113 -0.322767 0.212041 -0.927017 -0.309319 
0.182462 -0.812225 -0.554073 0.0984976 -0.956651 -0.274076 0.0870006 -0.754313 -0.650724 
-0.032442 -0.961881 -0.271539 -0.0333982 -0.720222 -0.692939 -0.131074 -0.937621 -0.322003 
-0.132389 -0.75725 -0.639566 -0.311678 -0.85002 -0.424644 -0.22304 -0.897983 -0.379315 
-0.221318 -0.805097 -0.550307 0.258954 0.400279 -0.879045 0.0723675 0.459272 -0.885343 
-0.0760967 0.480372 -0.873757 -0.224093 0.355284 -0.9075 0.330661 0.347833 -0.877312 
0.398354 0.226726 -0.888769 0.251631 0.333667 -0.908487 0.055071 0.295581 -0.953729 
-0.0754005 0.319236 -0.944671 -0.223919 0.301218 -0.926892 -0.223722 0.297322 -0.928196 
-0.168297 0.109329 -0.979655 0.39836 0.226683 -0.888777 0.398299 0.226658 -0.888811 
0.198156 0.147172 -0.969059 0.0683828 0.134033 -0.988615 -0.0935898 0.103637 -0.990202 
-0.229795 0.103568 -0.967713 -0.159052 0.106353 -0.981525 -0.166867 0.104446 -0.980432 
0.0327364 0.200897 -0.979065 -0.0782098 0.243127 -0.966836 0.457684 0.1937 -0.867759 
0.342712 0.151699 -0.927112 0.12996 0.0930346 -0.987145 0.00917253 0.0515559 -0.998628 
-0.106686 0.00511417 -0.99428 -0.233815 0.0687138 -0.96985 -0.165153 0.128955 -0.977801 
-0.197081 0.140886 -0.970211 0.07064 0.0540352 -0.996037 -0.092463 0.219552 -0.971209 
0.102758 0.0618273 -0.992783 -0.146658 0.131464 -0.980412 -0.0761554 0.144889 -0.986513 
-0.188166 0.103796 -0.976637 0.533086 0.0562049 -0.844192 0.282695 0.0222928 -0.958951 
0.117984 0.0215689 -0.992781 -0.0137575 0.0172623 -0.999756 -0.0765625 0.0102851 -0.997012 
-0.10038 0.0378716 -0.994228 -0.175222 0.127724 -0.976209 -0.117624 0.251009 -0.960812 
0.0884785 0.0560965 -0.994497 -0.016343 0.0761742 -0.996961 -0.199339 0.0878338 -0.975986 
-0.192759 0.0942468 -0.97671 0.53086 -0.110522 -0.840222 0.293737 -0.0581314 -0.954117 
0.131546 -0.0227718 -0.991048 -0.00113057 0.0217141 -0.999764 -0.0863541 0.051838 -0.994915 
-0.11964 0.0423897 -0.991912 -0.000260127 0.0240029 -0.999712 -0.0363451 0.0864587 -0.995592 
-0.0590235 0.0275874 -0.997875 -0.0350161 0.0202761 -0.999181 -0.259396 0.0631488 -0.963704 
-0.21382 0.0792641 -0.973652 0.44389 -0.251639 -0.860023 0.450629 -0.29728 -0.841759 
0.377122 -0.209648 -0.902124 0.190228 -0.111252 -0.975416 0.0605187 -0.0461984 -0.997097 
-0.0571801 0.0221574 -0.998118 -0.128155 0.0680262 -0.989418 -0.123704 0.0465054 -0.991229 
-0.109872 -0.0720894 -0.991328 0.00853947 -0.00669604 -0.999941 0.0349979 -0.00979589 -0.999339 
-0.276455 0.0292069 -0.960583 -0.166333 0.0238623 -0.985781 0.451588 -0.333704 -0.827472 
0.362275 -0.425583 -0.829238 0.266641 -0.251733 -0.93034 0.124862 -0.171796 -0.977188 
0.0285867 -0.0911787 -0.995424 -0.0953803 -0.0240094 -0.995151 -0.137628 0.0252325 -0.990162 
-0.0855272 0.0328178 -0.995795 0.00156065 0.0882296 -0.996099 -0.00884767 -0.00582476 -0.999944 
-0.298518 -0.0312064 -0.953894 -0.167584 -0.0365948 -0.985178 0.342891 -0.434714 -0.832736 
0.307236 -0.446126 -0.840582 0.245711 -0.339226 -0.908048 0.0930703 -0.231756 -0.968311 
-0.0148975 -0.181815 -0.98322 -0.0667936 -0.067782 -0.995462 -0.0479753 -0.0117231 -0.99878 
-0.0334143 -0.0214676 -0.999211 -0.084851 -0.112197 -0.990057 -0.281834 -0.178853 -0.942646 
-0.214505 -0.259962 -0.941492 -0.182091 -0.157008 -0.970665 0.225743 -0.475228 -0.850411 
0.196948 -0.486113 -0.851414 0.182823 -0.443495 -0.877433 0.0796839 -0.463679 -0.882413 
0.0668489 -0.383018 -0.921319 0.0509001 -0.458702 -0.887131 0.0356021 -0.29935 -0.953479 
-0.0338402 -0.426052 -0.904065 -0.0326371 -0.251596 -0.967282 -0.1056 -0.39472 -0.912713 
-0.100042 -0.284105 -0.95356 -0.146497 -0.342198 -0.928138 -0.144621 -0.342939 -0.928158 
-0.144204 -0.34067 -0.929058 
