# vtk DataFile Version 4.2
vtk output
ASCII
DATASET POLYDATA
POINTS 528 float
-37.7357 -1.42017 -25.3307 -29.3207 -1.42017 -25.1974 -37.7357 6.99482 -25.4916 
-20.9057 -35.0801 -17.693 -12.4907 -35.0801 -17.4473 -37.7357 -26.6651 -18.8971 
-29.3207 -26.6651 -20.9934 -20.9057 -26.6651 -20.2745 -12.4907 -26.6651 -19.5191 
-4.07573 -26.6651 -18.2258 -46.1507 -18.2501 -18.3074 -37.7357 -18.2501 -22.981 
-29.3207 -18.2501 -23.6432 -20.9057 -18.2501 -22.2857 -12.4907 -18.2501 -20.5091 
-4.07573 -18.2501 -19.3008 4.33925 -18.2501 -17.8069 12.7542 -18.2501 -16.8939 
21.1692 -18.2501 -17.0783 -46.1507 -9.83515 -21.4644 -37.7357 -3.35844 -25.0969 
-37.7357 -9.83515 -24.3131 -29.3207 -2.58929 -25.0969 -29.3207 -9.83515 -24.4723 
-20.9057 -9.83515 -23.2163 -12.4907 -9.83515 -21.6143 -4.07573 -9.83515 -20.5299 
4.33925 -9.83515 -19.3793 12.7542 -9.83515 -19.1252 21.1692 -9.83515 -18.1145 
29.5842 -9.83515 -17.8023 37.9992 -9.83515 -16.9226 -38.6212 -1.42017 -25.0969 
-46.1507 -1.42017 -22.8286 -28.8853 -1.42017 -25.0969 -29.3207 3.00047 -25.0969 
-20.9057 -1.42017 -23.2422 -12.4907 -1.42017 -22.4566 -4.07573 -1.42017 -20.7687 
4.33925 -1.42017 -17.8899 12.7542 -1.42017 -21.3613 21.1692 -1.42017 -20.0622 
29.5842 -1.42017 -19.5875 37.9992 -1.42017 -18.5873 -39.2035 6.99482 -25.0969 
-46.1507 6.99482 -22.9809 -30.9559 6.99482 -25.0969 -37.7357 11.1854 -25.0969 
-29.3207 6.99482 -25.0064 -20.9057 6.99482 -23.1929 -12.4907 6.99482 -21.0104 
-4.07573 6.99482 -21.7002 4.33925 6.99482 -21.228 12.7542 6.99482 -21.0605 
21.1692 6.99482 -20.1717 29.5842 6.99482 -20.2563 37.9992 6.99482 -19.3027 
46.4142 6.99482 -16.8803 -46.1507 15.4098 -21.6614 -37.7357 15.4098 -24.7006 
-29.3207 15.4098 -24.7158 -20.9057 15.4098 -23.4662 -12.4907 15.4098 -21.9282 
-4.07573 15.4098 -21.5085 4.33925 15.4098 -21.4723 12.7542 15.4098 -20.7242 
21.1692 15.4098 -20.4042 29.5842 15.4098 -20.1668 37.9992 15.4098 -18.896 
-46.1507 23.8248 -18.5936 -37.7357 23.8248 -24.2459 -29.3207 23.8248 -25.0693 
-20.9057 23.8248 -24.7188 -12.4907 23.8248 -24.0753 -4.07573 23.8248 -23.701 
4.33925 23.8248 -22.8772 12.7542 23.8248 -21.9705 21.1692 23.8248 -21.3951 
29.5842 23.8248 -20.5612 37.9992 23.8248 -18.5213 -37.7357 32.2398 -20.1197 
-29.3207 32.2398 -24.803 -20.9057 32.2398 -24.9931 -12.4907 32.2398 -24.8867 
-4.07573 32.2398 -24.4968 4.33925 32.2398 -23.3913 12.7542 32.2398 -22.466 
21.1692 32.2398 -21.2446 29.5842 32.2398 -19.8958 -29.3207 40.6548 -19.127 
-20.9057 40.6548 -23.0099 -12.4907 40.6548 -23.5942 -4.07573 40.6548 -23.1544 
4.33925 40.6548 -22.4697 12.7542 40.6548 -20.5677 21.1692 40.6548 -19.0818 
-12.4907 49.0697 -16.7163 -4.07573 49.0697 -16.7702 -20.9057 -36.9299 -16.682 
-20.9057 -43.4951 -11.6406 -12.4907 -36.772 -16.682 -12.4907 -43.4951 -13.1053 
-4.07573 -43.4951 -12.9015 4.33925 -43.4951 -11.5833 12.7542 -43.4951 -9.34494 
-37.7357 -29.9983 -16.682 -37.7357 -35.0801 -10.9571 -26.3598 -35.0801 -16.682 
-29.3207 -34.0623 -16.682 -29.3207 -35.0801 -15.949 -4.91912 -35.0801 -16.682 
-4.07573 -34.6681 -16.682 -4.07573 -35.0801 -16.6016 4.33925 -35.0801 -15.0722 
12.7542 -35.0801 -13.9725 21.1692 -35.0801 -12.8789 29.5842 -35.0801 -11.0418 
-41.2482 -26.6651 -16.682 -46.1507 -21.0602 -16.682 -46.1507 -26.6651 -9.6633 
4.12883 -26.6651 -16.682 4.33925 -26.3611 -16.682 4.33925 -26.6651 -16.6412 
12.7542 -20.4705 -16.682 12.7542 -26.6651 -16.0774 21.1692 -20.8984 -16.682 
21.1692 -26.6651 -15.8273 29.5842 -26.6651 -15.075 37.9992 -26.6651 -12.3645 
-47.7337 -18.2501 -16.682 29.4287 -18.2501 -16.682 29.5842 -18.1927 -16.682 
29.5842 -18.2501 -16.6743 37.9992 -10.9214 -16.682 37.9992 -18.2501 -15.0636 
46.4142 -18.2501 -11.2906 -51.109 -9.83515 -16.682 38.7988 -9.83515 -16.682 
46.4142 -9.83515 -14.0576 -52.3191 -1.42017 -16.682 -54.5656 -1.42017 -8.41853 
44.5645 -1.42017 -16.682 46.4142 4.86778 -16.682 46.4142 -1.42017 -16.1127 
54.8292 -1.42017 -10.0312 -52.3804 6.99482 -16.682 46.7796 6.99482 -16.682 
46.4142 8.82313 -16.682 54.8292 6.99482 -10.9044 -50.9452 15.4098 -16.682 
44.4816 15.4098 -16.682 46.4142 15.4098 -15.9352 -47.8824 23.8248 -16.682 
-46.1507 26.9266 -16.682 42.6087 23.8248 -16.682 37.9992 30.3785 -16.682 
46.4142 23.8248 -14.2475 -42.156 32.2398 -16.682 -37.7357 36.6699 -16.682 
36.8561 32.2398 -16.682 29.5842 39.6753 -16.682 37.9992 32.2398 -15.9512 
-32.8988 40.6548 -16.682 -29.3207 42.8984 -16.682 -20.9057 46.9878 -16.682 
4.33925 47.9531 -16.682 12.7542 46.3773 -16.682 28.1788 40.6548 -16.682 
21.1692 44.2314 -16.682 29.5842 40.6548 -15.9296 37.9992 40.6548 -8.4706 
-12.6014 49.0697 -16.682 -12.4907 49.0937 -16.682 -3.43624 49.0697 -16.682 
-4.07573 49.1357 -16.682 4.33925 49.0697 -14.4298 12.7542 49.0697 -11.6211 
-20.9057 -46.2198 -8.26697 -12.4907 -48.232 -8.26697 -4.07573 -48.5092 -8.26697 
4.33925 -46.852 -8.26697 12.7542 -44.6317 -8.26697 -37.7357 -36.7686 -8.26697 
-27.1912 -43.4951 -8.26697 -29.3207 -42.4525 -8.26697 -29.3207 -43.4951 -5.38081 
16.2652 -43.4951 -8.26697 21.1692 -41.6349 -8.26697 21.1692 -43.4951 -5.66645 
29.5842 -37.9948 -8.26697 -39.6138 -35.0801 -8.26697 -46.1507 -27.5083 -8.26697 
34.683 -35.0801 -8.26697 37.9992 -32.4904 -8.26697 37.9992 -35.0801 -4.87236 
-46.7419 -26.6651 -8.26697 43.7793 -26.6651 -8.26697 46.4142 -23.5895 -8.26697 
46.4142 -26.6651 -4.70479 -51.0648 -18.2501 -8.26697 49.8221 -18.2501 -8.26697 
-53.6995 -9.83515 -8.26697 -54.5656 -1.76076 -8.26697 53.6565 -9.83515 -8.26697 
54.8292 -6.56375 -8.26697 54.8292 -9.83515 -6.12668 -54.6007 -1.42017 -8.26697 
-54.5656 0.409696 -8.26697 -54.5656 -1.42017 -7.38785 56.2609 -1.42017 -8.26697 
-54.4399 6.99482 -8.26697 56.8574 6.99482 -8.26697 54.8292 15.0852 -8.26697 
-53.1238 15.4098 -8.26697 54.7384 15.4098 -8.26697 54.8292 15.4098 -7.77089 
-50.1329 23.8248 -8.26697 -46.1507 30.3978 -8.26697 51.1531 23.8248 -8.26697 
46.4142 31.6923 -8.26697 -44.8277 32.2398 -8.26697 -37.7357 39.2321 -8.26697 
46.0344 32.2398 -8.26697 46.4142 32.2398 -1.78748 -35.8479 40.6548 -8.26697 
-29.3207 44.7985 -8.26697 -20.9057 48.4541 -8.26697 21.1692 48.4712 -8.26697 
29.5842 45.8591 -8.26697 38.1544 40.6548 -8.26697 37.9992 40.7717 -8.26697 
37.9992 40.6548 -6.86115 -18.4348 49.0697 -8.26697 -12.4907 50.4712 -8.26697 
-12.4907 49.0697 -0.956468 -4.07573 51.1921 -8.26697 4.33925 51.0921 -8.26697 
18.2069 49.0697 -8.26697 12.7542 50.1365 -8.26697 12.7542 49.0697 -1.50676 
-29.3207 -45.1526 0.148014 -20.9057 -49.1726 0.148014 -12.4907 -51.3186 0.148014 
-4.07573 -51.8934 0.148014 4.33925 -50.9529 0.148014 12.7542 -49.2904 0.148014 
21.1692 -46.3118 0.148014 -31.83 -43.4951 0.148014 -37.7357 -38.6672 0.148014 
27.5684 -43.4951 0.148014 29.5842 -42.5777 0.148014 37.9992 -37.5617 0.148014 
-41.2499 -35.0801 0.148014 -46.1507 -28.3641 0.148014 41.0269 -35.0801 0.148014 
46.4142 -29.5832 0.148014 -47.219 -26.6651 0.148014 -46.1507 -26.6651 4.73287 
48.747 -26.6651 0.148014 -51.0645 -18.2501 0.148014 53.7899 -18.2501 0.148014 
54.8292 -15.9103 0.148014 -53.3558 -9.83515 0.148014 57.2265 -9.83515 0.148014 
-54.2604 -1.42017 0.148014 58.7492 -1.42017 0.148014 -53.7994 6.99482 0.148014 
58.6945 6.99482 0.148014 -52.1097 15.4098 0.148014 56.1439 15.4098 0.148014 
54.8292 18.6073 0.148014 54.8292 15.4098 3.67498 -49.2212 23.8248 0.148014 
-46.1507 29.19 0.148014 -46.1507 23.8248 7.09563 52.3814 23.8248 0.148014 
-44.0385 32.2398 0.148014 -37.7357 38.2186 0.148014 37.9992 39.9269 0.148014 
37.9992 32.2398 8.51257 46.5172 32.2398 0.148014 46.4142 32.3602 0.148014 
46.4142 32.2398 0.290338 -34.1492 40.6548 0.148014 -29.3207 43.4258 0.148014 
-29.3207 40.6548 5.95283 -20.9057 46.7378 0.148014 -12.4907 48.8417 0.148014 
12.7542 48.7661 0.148014 21.1692 47.166 0.148014 21.1692 40.6548 7.35845 
36.5742 40.6548 0.148014 29.5842 43.7178 0.148014 29.5842 40.6548 3.59862 
-10.8124 49.0697 0.148014 -4.07573 49.9362 0.148014 -4.07573 49.0697 1.93871 
10.2355 49.0697 0.148014 4.33925 49.7222 0.148014 4.33925 49.0697 1.40762 
-29.3207 -44.0385 8.563 -20.9057 -48.0345 8.563 -12.4907 -50.1246 8.563 
-4.07573 -50.9257 8.563 4.33925 -50.5379 8.563 12.7542 -48.9129 8.563 
21.1692 -46.4517 8.563 -30.1238 -43.4951 8.563 -37.7357 -37.0393 8.563 
-29.3207 -43.4951 9.67965 -20.9057 -43.4951 16.9229 27.8668 -43.4951 8.563 
21.1692 -43.4951 16.5363 29.5842 -42.6627 8.563 37.9992 -37.2319 8.563 
-39.5295 -35.0801 8.563 -37.7357 -35.0801 11.6102 40.5097 -35.0801 8.563 
37.9992 -35.0801 13.9946 46.4142 -28.873 8.563 -45.2784 -26.6651 8.563 
-46.1507 -24.6869 8.563 48.1468 -26.6651 8.563 46.4142 -26.6651 12.5377 
-48.9588 -18.2501 8.563 -46.1507 -18.2501 13.3608 53.0998 -18.2501 8.563 
54.8292 -12.8832 8.563 -51.2447 -9.83515 8.563 -46.1507 -9.83515 15.8371 
55.7187 -9.83515 8.563 54.8292 -9.83515 10.2732 -51.8603 -1.42017 8.563 
-46.1507 -1.42017 15.9849 56.7122 -1.42017 8.563 54.8292 -1.42017 11.7032 
-50.8141 6.99482 8.563 -46.1507 6.99482 14.4527 55.9861 6.99482 8.563 
54.8292 10.2926 8.563 54.8292 6.99482 10.3231 -48.68 15.4098 8.563 
-46.1507 22.136 8.563 -46.1507 15.4098 11.9611 52.667 15.4098 8.563 
46.4142 15.4098 15.1249 -45.3909 23.8248 8.563 -37.7357 23.8248 15.5532 
12.7542 23.8248 16.7272 21.1692 23.8248 16.6087 29.5842 23.8248 16.2478 
37.9992 32.1816 8.563 37.9992 23.8248 13.9846 47.3021 23.8248 8.563 
46.4142 24.8419 8.563 46.4142 23.8248 9.48075 -39.3586 32.2398 8.563 
-37.7357 33.8436 8.563 -37.7357 32.2398 10.213 -29.3207 39.1749 8.563 
-29.3207 32.2398 14.9244 -20.9057 32.2398 16.4547 -12.4907 32.2398 16.7156 
-4.07573 32.2398 16.869 4.33925 32.2398 15.7939 12.7542 32.2398 13.9187 
21.1692 38.885 8.563 21.1692 32.2398 12.1803 37.8546 32.2398 8.563 
29.5842 35.1038 8.563 29.5842 32.2398 10.7184 -25.5053 40.6548 8.563 
-20.9057 42.2505 8.563 -20.9057 40.6548 10.4045 -12.4907 44.0035 8.563 
-12.4907 40.6548 11.8342 -4.07573 44.9192 8.563 -4.07573 40.6548 12.4377 
4.33925 44.0834 8.563 4.33925 40.6548 11.4097 16.277 40.6548 8.563 
12.7542 41.6487 8.563 12.7542 40.6548 9.33445 -12.4907 -45.3903 16.978 
-4.07573 -46.2405 16.978 4.33925 -46.3404 16.978 12.7542 -45.4821 16.978 
[...]
POINT_DATA 528
SCALARS ImageScalars float
LOOKUP_TABLE default
0 0 0 0 0 0 0 0 0 
0 0 0 0 0 0 0 0 0 
0 0 0 0 0 0 0 0 0 
0 0 0 0 0 0 0 0 0 
0 0 0 0 0 0 0 0 0 
0 0 0 0 0 0 0 0 0 
0 0 0 0 0 0 0 0 0 
0 0 0 0 0 0 0 0 0 
0 0 0 0 0 0 0 0 0 
0 0 0 0 0 0 0 0 0 
0 0 0 0 0 0 0 0 0 
0 0 0 0 0 0 0 0 0 
0 0 0 0 0 0 0 0 0 
0 0 0 0 0 0 0 0 0 
0 0 0 0 0 0 0 0 0 
0 0 0 0 0 0 0 0 0 
0 0 0 0 0 0 0 0 0 
0 0 0 0 0 0 0 0 0 
0 0 0 0 0 0 0 0 0 
0 0 0 0 0 0 0 0 0 
0 0 0 0 0 0 0 0 0 
0 0 0 0 0 0 0 0 0 
0 0 0 0 0 0 0 0 0 
0 0 0 0 0 0 0 0 0 
0 0 0 0 0 0 0 0 0 
0 0 0 0 0 0 0 0 0 
0 0 0 0 0 0 0 0 0 
0 0 0 0 0 0 0 0 0 
0 0 0 0 0 0 0 0 0 
0 0 0 0 0 0 0 0 0 
0 0 0 0 0 0 0 0 0 
0 0 0 0 0 0 0 0 0 
0 0 0 0 0 0 0 0 0 
0 0 0 0 0 0 0 0 0 
0 0 0 0 0 0 0 0 0 
0 0 0 0 0 0 0 0 0 
0 0 0 0 0 0 0 0 0 
0 0 0 0 0 0 0 0 0 
0 0 0 0 0 0 0 0 0 
0 0 0 0 0 0 0 0 0 
0 0 0 0 0 0 0 0 0 
0 0 0 0 0 0 0 0 0 
0 0 0 0 0 0 0 0 0 
0 0 0 0 0 0 0 0 0 
0 0 0 0 0 0 0 0 0 
0 0 0 0 0 0 0 0 0 
0 0 0 0 0 0 0 0 0 
0 0 0 0 0 0 0 0 0 
0 0 0 0 0 0 0 0 0 
0 0 0 0 0 0 0 0 0 
0 0 0 0 0 0 0 0 0 
0 0 0 0 0 0 0 0 0 
0 0 0 0 0 0 0 0 0 
0 0 0 0 0 0 0 0 0 
0 0 0 0 0 0 0 0 0 
0 0 0 0 0 0 0 0 0 
0 0 0 0 0 0 0 0 0 
0 0 0 0 0 0 0 0 0 
0 0 0 0 0 0 
NORMALS Normals float
0.120613 0.0690475 0.990295 -0.125763 0.0323554 0.991533 0.10023 -0.0373143 0.994264 
0.0660731 0.408916 0.910177 -0.061341 0.326126 0.943334 0.364872 0.495258 0.788409 
0.0597756 0.384144 0.921336 -0.0801216 0.260256 0.96221 -0.121871 0.17547 0.976912 
-0.163612 0.15105 0.974892 0.64353 0.385878 0.661035 0.256424 0.277299 0.925933 
-0.0468248 0.192746 0.980131 -0.18026 0.168772 0.969032 -0.172213 0.120895 0.977613 
-0.154668 0.136755 0.978456 -0.143525 0.165705 0.975675 -0.0401366 0.17104 0.984446 
-0.0123925 0.134114 0.990888 0.543134 0.23609 0.805771 0.127629 0.0814151 0.988475 
0.151236 0.12821 0.980148 -0.11734 0.0403464 0.992272 -0.0644583 0.0873553 0.99409 
-0.168212 0.0555634 0.984184 -0.156925 0.114054 0.981003 -0.134099 0.0839651 0.987404 
-0.0831668 0.0132115 0.996448 -0.0759695 0.268173 0.960371 -0.074009 0.176319 0.981547 
-0.068029 0.16783 0.983466 -0.19378 0.200661 0.960304 0.155207 0.0699769 0.9854 
0.507529 0.0817994 0.857743 -0.127963 0.0309934 0.991295 -0.126012 -6.69778e-05 0.992029 
-0.157398 -0.00121023 0.987534 -0.127908 -0.0358914 0.991136 -0.278566 0.076045 0.957402 
0.0699145 0.119355 0.990387 0.0993227 0.107762 0.989203 -0.105111 0.121486 0.987012 
-0.0863145 0.142957 0.985958 -0.192856 0.137278 0.971577 0.163017 -0.0409548 0.985773 
0.51055 -0.0623094 0.857587 -0.0833948 -0.0301673 0.99606 0.126116 -0.0518837 0.990658 
-0.126194 -0.0279996 0.99161 -0.239843 0.0132958 0.970721 -0.0830105 -0.0331044 0.995999 
0.0135768 0.0354302 0.99928 -0.0371982 0.185951 0.981855 -0.0644457 -0.0386768 0.997171 
-0.0465121 0.020373 0.99871 -0.0502845 0.0341493 0.998151 -0.185941 0.0181779 0.982393 
-0.387184 -0.0062788 0.921981 0.568893 -0.222232 0.791816 0.1524 -0.0694601 0.985875 
-0.072113 0.00303589 0.997392 -0.163497 0.0892051 0.982502 -0.116456 0.182601 0.976266 
-0.0270737 0.120333 0.992364 -0.0465846 0.0972493 0.994169 -0.0635439 0.0545766 0.996486 
-0.0329177 0.0717715 0.996878 -0.0867331 0.0169737 0.996087 -0.223769 -0.0462149 0.973546 
0.7049 -0.382841 0.597117 0.294718 -0.216106 0.930827 0.0202785 0.00853232 0.999758 
-0.0574862 0.0884395 0.994421 -0.0601609 0.17308 0.983069 -0.070114 0.175098 0.982051 
-0.102224 0.113375 0.988279 -0.0877888 0.103093 0.99079 -0.0816904 0.049767 0.995414 
-0.175563 -0.0190992 0.984283 -0.309161 -0.132372 0.941752 0.523261 -0.494216 0.694225 
0.225059 -0.258221 0.939505 0.00290249 -0.0821481 0.996616 -0.0290917 -0.0230937 0.99931 
-0.0892061 -0.0284103 0.995608 -0.118271 -0.0149212 0.992869 -0.134248 -0.070452 0.98844 
-0.152395 -0.126764 0.980156 -0.253709 -0.200424 0.946288 0.437766 -0.67168 0.597668 
0.213507 -0.435746 0.87438 0.00363916 -0.362356 0.932033 -0.0602882 -0.353462 0.933504 
-0.143747 -0.36126 0.921319 -0.190586 -0.39204 0.89999 -0.217994 -0.447413 0.867353 
0.109452 -0.895036 0.432355 -0.0481372 -0.866279 0.497236 0.0937898 0.462757 0.88151 
0.237766 0.731107 0.639492 -0.0469579 0.371941 0.927068 0.0508709 0.627466 0.77698 
-0.0723025 0.575466 0.814623 -0.182494 0.590926 0.785814 -0.233857 0.652996 0.720353 
0.411633 0.567948 0.712737 0.552705 0.715981 0.426485 0.17535 0.522033 0.834706 
0.213613 0.559264 0.800995 0.246165 0.592992 0.766657 -0.12683 0.281983 0.950999 
-0.135424 0.27069 0.953093 -0.133882 0.277218 0.951433 -0.149087 0.247663 0.957307 
-0.123853 0.340035 0.932221 -0.144222 0.455232 0.878615 -0.306058 0.578995 0.755707 
0.513637 0.532471 0.672794 0.669991 0.451624 0.589193 0.795664 0.547626 0.258893 
-0.128051 0.157157 0.979237 -0.127684 0.157602 0.979213 -0.12717 0.157194 0.979346 
-0.0418213 0.166516 0.985151 -0.0473996 0.160273 0.985934 -0.0246443 0.163835 0.98618 
-0.0537236 0.230716 0.971537 -0.174721 0.288268 0.941474 -0.421705 0.422909 0.802068 
0.711373 0.3975 0.579605 -0.116606 0.151355 0.981578 -0.11823 0.151781 0.981318 
-0.118584 0.151721 0.981284 -0.202654 0.202423 0.9581 -0.27539 0.229486 0.93354 
-0.563109 0.36492 0.741445 0.816299 0.237653 0.526477 -0.214306 0.204505 0.955118 
-0.455626 0.249936 0.854364 0.872938 0.0642275 0.483584 0.994018 0.041943 0.100845 
-0.348572 0.141582 0.926527 -0.390699 0.0314543 0.919981 -0.399547 0.145219 0.905138 
-0.790204 0.161782 0.591104 0.8808 -0.0740859 0.467656 -0.400545 -0.00834115 0.916239 
-0.405635 -0.0285736 0.913589 -0.810391 -0.0733703 0.581278 0.838505 -0.239759 0.489311 
-0.408653 -0.0912768 0.908114 -0.483285 -0.12143 0.867001 0.772231 -0.40539 0.489202 
0.740942 -0.476323 0.473414 -0.454887 -0.208247 0.865859 -0.473992 -0.313234 0.822931 
-0.639157 -0.307298 0.705016 0.663413 -0.574154 0.479824 0.595508 -0.651538 0.469967 
-0.489863 -0.341078 0.802309 -0.378289 -0.550375 0.744302 -0.536929 -0.379433 0.753484 
0.529926 -0.722169 0.444578 0.469638 -0.76021 0.44891 0.314974 -0.855156 0.411704 
-0.116437 -0.791164 0.600418 -0.159581 -0.723061 0.672098 -0.360588 -0.575134 0.734301 
-0.254954 -0.642041 0.723037 -0.398279 -0.620332 0.675694 -0.600621 -0.769182 0.218206 
0.112405 -0.89591 0.429778 0.109716 -0.895935 0.430422 -0.0521192 -0.865155 0.498788 
-0.0475149 -0.869005 0.492518 -0.0961768 -0.895205 0.435154 -0.156128 -0.952068 0.263042 
0.288077 0.819076 0.496112 0.118785 0.825097 0.552363 -0.0639508 0.803409 0.591984 
-0.18914 0.748251 0.635883 -0.240088 0.70516 0.667164 0.590525 0.740547 0.320735 
0.408175 0.79504 0.44867 0.440887 0.785807 0.433735 0.476061 0.824763 0.305175 
-0.261724 0.705763 0.658331 -0.272426 0.698777 0.661434 -0.316638 0.805984 0.50013 
-0.352968 0.683908 0.6385 0.629983 0.714775 0.303675 0.806943 0.552847 0.207852 
-0.453772 0.634195 0.626009 -0.507774 0.596787 0.621297 -0.57329 0.70278 0.421235 
0.819046 0.537362 0.201013 -0.582656 0.523144 0.621959 -0.630635 0.479702 0.61007 
-0.709966 0.570817 0.412452 0.917915 0.364533 0.156677 -0.696919 0.394565 0.598851 
0.974225 0.201175 0.102051 0.994296 0.0480709 0.0952059 -0.756439 0.300443 0.580976 
-0.801805 0.245671 0.544752 -0.845754 0.302887 0.439272 0.994584 0.0417004 0.0952071 
0.995892 0.0143454 0.0894092 0.996723 0.040434 0.0700578 -0.846543 0.155234 0.509182 
0.994117 -0.0839864 0.0683937 -0.890963 -0.0857689 0.445902 -0.867305 -0.288688 0.405515 
0.970022 -0.236581 0.0555651 -0.86523 -0.296094 0.404605 -0.876476 -0.300941 0.375799 
0.901146 -0.428674 0.0646029 0.81337 -0.578593 0.0604855 -0.825076 -0.422799 0.374822 
-0.775497 -0.549226 0.311377 0.776904 -0.626305 0.0645155 0.62923 -0.775716 0.0483196 
-0.7711 -0.557384 0.307781 -0.755663 -0.637838 -0.148782 0.589934 -0.806579 0.037531 
0.46993 -0.882489 0.0194908 0.315892 -0.948599 -0.0193144 -0.241048 -0.965502 0.0985022 
-0.41563 -0.899134 0.137149 -0.603351 -0.770537 0.205525 -0.600101 -0.77321 0.205002 
-0.599183 -0.791268 0.121964 0.268236 -0.963156 -0.0195014 0.155201 -0.987767 -0.0151241 
0.17084 -0.9454 -0.277547 0.0360366 -0.998559 0.0397667 -0.0624831 -0.995285 0.0741818 
-0.204597 -0.975008 0.0866018 -0.149375 -0.985893 0.0755083 -0.13751 -0.952906 -0.270299 
0.504302 0.860497 0.0722717 0.341674 0.935845 0.0863262 0.149655 0.985236 0.0831499 
-0.0203954 0.994551 0.102238 -0.142925 0.976618 0.160592 -0.272091 0.942744 0.192873 
-0.349352 0.913546 0.208293 0.554865 0.829283 0.0664408 0.679665 0.7332 0.0217495 
-0.412918 0.888889 0.198431 -0.437718 0.877694 0.19508 -0.596923 0.78548 0.163411 
0.741184 0.671258 -0.00773377 0.853542 0.517065 -0.0641108 -0.651882 0.740976 0.161257 
-0.757401 0.63457 0.153835 0.872405 0.48319 -0.0737414 0.861866 0.461783 -0.209627 
-0.799475 0.582079 0.148405 0.937843 0.329134 -0.110096 -0.882794 0.449651 0.135973 
-0.9086 0.400245 0.119372 0.97456 0.177896 -0.13633 -0.959769 0.269002 0.0805066 
0.98828 0.0275897 -0.150139 -0.996241 0.0848342 0.0175378 0.973442 -0.11822 -0.196046 
-0.98864 -0.142287 -0.0484377 0.942007 -0.241044 -0.233496 -0.936652 -0.339569 -0.0858798 
-0.911839 -0.393536 -0.116963 -0.890406 -0.374609 -0.258543 0.882642 -0.413548 -0.223431 
0.814478 -0.537132 -0.219349 0.786256 -0.409969 -0.462307 -0.845643 -0.505822 -0.170391 
0.754505 -0.61978 -0.21586 0.606672 -0.76488 -0.216582 -0.517745 -0.785971 -0.33792 
-0.395529 -0.57132 -0.719131 -0.720257 -0.635948 -0.277127 -0.718397 -0.637742 -0.277832 
-0.717343 -0.636123 -0.284195 0.519354 -0.820997 -0.23714 0.421929 -0.867177 -0.264537 
0.378576 -0.804335 -0.457959 0.285438 -0.905864 -0.312946 0.171908 -0.932223 -0.318447 
-0.133647 -0.922493 -0.36214 -0.243791 -0.889694 -0.38602 -0.24214 -0.594237 -0.766975 
-0.490051 -0.792169 -0.363755 -0.363053 -0.814789 -0.452009 -0.322134 -0.723513 -0.61054 
0.147139 -0.937546 -0.315211 0.050052 -0.95115 -0.304644 0.0450014 -0.927274 -0.37167 
-0.111835 -0.93102 -0.347411 -0.0657706 -0.943372 -0.32515 -0.0719406 -0.924022 -0.375509 
0.498663 0.826649 -0.260741 0.319261 0.906653 -0.275776 0.157818 0.9441 -0.289429 
0.0231211 0.961288 -0.274575 -0.11566 0.967822 -0.22348 -0.230937 0.952896 -0.196613 
-0.33886 0.928708 -0.150584 0.515485 0.815995 -0.261586 0.694178 0.665606 -0.274017 
0.497013 0.813504 -0.301976 0.272821 0.720473 -0.637564 -0.440921 0.888895 -0.124317 
-0.279593 0.827633 -0.486674 -0.469342 0.874215 -0.124367 -0.614389 0.770553 -0.169629 
0.725299 0.62746 -0.28326 0.6879 0.60824 -0.396028 -0.65841 0.731144 -0.178675 
-0.612589 0.694778 -0.376854 -0.770589 0.603967 -0.203513 0.836708 0.438424 -0.328182 
0.849524 0.408046 -0.334377 -0.798066 0.565271 -0.208708 -0.766337 0.538693 -0.350055 
0.877643 0.313036 -0.362975 0.786848 0.280397 -0.549771 -0.883563 0.395257 -0.251175 
-0.915741 0.265727 -0.301342 0.903786 0.154398 -0.399165 0.670255 0.0837462 -0.737391 
-0.924234 0.193127 -0.329385 -0.9022 0.178414 -0.392689 0.902044 -0.0212408 -0.431121 
0.631719 -0.0595647 -0.772906 -0.919115 0.0172569 -0.393612 -0.861608 -0.00660267 -0.507532 
0.866514 -0.165162 -0.471036 0.681016 -0.164371 -0.713582 -0.871698 -0.195096 -0.449534 
-0.836612 -0.284435 -0.468164 -0.83682 -0.209539 -0.505793 0.827643 -0.264531 -0.495005 
0.772236 -0.380192 -0.509023 0.733352 -0.267993 -0.6248 -0.753335 -0.410515 -0.513774 
-0.546758 -0.410545 -0.729732 0.751963 -0.407009 -0.518552 0.460472 -0.324128 -0.826381 
-0.102609 -0.405607 -0.90827 -0.0230993 -0.510368 -0.859646 -0.12646 -0.531688 -0.837446 
-0.394076 -0.570153 -0.720853 -0.304286 -0.545391 -0.780999 -0.602474 -0.549634 -0.578729 
-0.582343 -0.560173 -0.589138 -0.569639 -0.551742 -0.609174 0.610671 -0.59989 -0.516926 
0.570618 -0.639532 -0.515164 0.55906 -0.590476 -0.582057 0.351539 -0.751814 -0.557849 
0.261833 -0.517812 -0.814441 0.0889428 -0.419746 -0.903273 0.0215226 -0.368633 -0.929326 
-0.0518312 -0.320224 -0.945923 -0.151634 -0.356268 -0.921998 -0.199689 -0.378746 -0.903701 
-0.219891 -0.53919 -0.812971 -0.155706 -0.456363 -0.876064 -0.391249 -0.570464 -0.722146 
-0.219346 -0.589686 -0.777276 -0.185894 -0.561787 -0.806125 0.295524 -0.766273 -0.570518 
0.224836 -0.772997 -0.593232 0.206451 -0.724833 -0.657264 0.12708 -0.756807 -0.641166 
0.0913421 -0.648691 -0.75555 0.00816151 -0.740655 -0.671836 -0.0231305 -0.596912 -0.801973 
-0.132129 -0.687659 -0.71391 -0.152946 -0.577381 -0.802021 -0.211107 -0.566363 -0.79666 
-0.193446 -0.592835 -0.781745 -0.197415 -0.561448 -0.803619 0.133361 0.728944 -0.671458 
0.046229 0.738759 -0.672383 -0.0424369 0.767527 -0.639611 -0.158269 0.813319 -0.559877 
0.45649 0.602697 -0.654502 0.269765 0.718648 -0.640914 0.272037 0.717888 -0.640807 
0.124612 0.654396 -0.745814 0.0488947 0.623148 -0.780574 -0.0103971 0.645311 -0.763849 
-0.264899 0.817081 -0.512062 -0.126911 0.725027 -0.676926 -0.274269 0.815351 -0.509881 
-0.437695 0.745613 -0.502478 0.546545 0.516744 -0.658987 0.605409 0.393361 -0.691916 
0.426585 0.448084 -0.78565 0.196878 0.361828 -0.911219 0.0808859 0.34114 -0.936526 
0.0523298 0.270501 -0.961296 0.0446027 0.261086 -0.964284 -0.028941 0.312891 -0.949348 
-0.161246 0.447714 -0.879518 -0.556711 0.655994 -0.509651 -0.375682 0.579706 -0.723052 
-0.594262 0.611885 -0.521967 0.62551 0.320529 -0.711335 0.557799 0.290437 -0.777501 
0.309959 0.159416 -0.93729 0.177889 0.0703177 -0.981535 -0.0118009 0.0621951 -0.997994 
0.0586465 0.0461238 -0.997213 -0.684846 0.475477 -0.552184 -0.510536 0.379254 -0.771699 
-0.710838 0.370401 -0.597924 0.616266 0.193135 -0.763489 0.419691 0.100161 -0.902124 
0.201929 -0.0168461 -0.979255 0.107931 -0.092619 -0.989835 0.0718908 -0.0961449 -0.992768 
0.037714 0.0441437 -0.998313 -0.400216 0.153944 -0.903398 -0.71676 0.287071 -0.635488 
-0.667527 0.258496 -0.698274 0.585626 0.0653522 -0.807942 0.309839 0.00257966 -0.950785 
0.127386 -0.0861242 -0.988107 0.101592 -0.127965 -0.986562 0.183399 -0.109842 -0.976883 
-0.32536 0.0237586 -0.945292 -0.719077 0.10906 -0.686319 -0.594313 0.0828562 -0.799954 
0.550147 -0.06401 -0.832611 0.27312 -0.0511095 -0.960621 0.0881868 -0.0652652 -0.993964 
0.0897772 -0.0812281 -0.992644 0.135773 -0.0823263 -0.987314 0.165411 -0.218747 -0.961659 
-0.298778 -0.103376 -0.948707 -0.685527 -0.0606389 -0.725518 -0.558291 -0.0825476 -0.825529 
0.504524 -0.158586 -0.848709 0.315162 -0.142176 -0.938328 0.092345 -0.0756124 -0.992852 
0.084045 -0.060688 -0.994612 0.05475 -0.139024 -0.988774 0.081271 -0.157442 -0.984178 
0.213324 -0.188833 -0.958559 -0.151211 -0.244717 -0.957731 -0.313454 -0.262733 -0.912534 
-0.610901 -0.246172 -0.752462 -0.541821 -0.335703 -0.770541 -0.544721 -0.250638 -0.800287 
0.41856 -0.209504 -0.883694 0.393854 -0.241293 -0.886936 0.365675 -0.204253 -0.908054 
0.15988 -0.130612 -0.978458 0.028513 -0.123717 -0.991908 0.0281148 -0.200897 -0.979209 
0.100343 -0.208657 -0.972828 0.0508765 -0.307034 -0.950338 -0.097329 -0.413163 -0.905441 
-0.0162734 -0.507125 -0.861719 -0.0201609 -0.513127 -0.858076 -0.0314319 -0.499571 -0.865702 
-0.125054 -0.524118 -0.842414 -0.131662 -0.458409 -0.878935 -0.437712 -0.431596 -0.788754 
-0.295258 -0.502695 -0.812478 -0.295877 -0.445677 -0.844884 0.328948 -0.292198 -0.898005 
0.211979 -0.372451 -0.903518 0.185594 -0.26703 -0.945648 0.074554 -0.379369 -0.922237 
0.0179644 -0.233489 -0.972193 0.015715 -0.350274 -0.936515 -0.0256567 -0.212134 -0.976904 
-0.0511821 -0.314971 -0.94772 -0.029931 -0.248092 -0.968274 -0.102679 -0.398026 -0.91161 
-0.132419 -0.34799 -0.928099 -0.103741 -0.355672 -0.928835 0.0485832 0.0657987 -0.99665 
0.0242637 0.214235 -0.976481 -0.0861707 0.309408 -0.947017 -0.262082 0.275199 -0.924975 
0.0514881 0.0610164 -0.996808 0.042974 0.0608168 -0.997223 0.0491356 0.0529256 -0.997389 
0.0478549 0.0607147 -0.997007 0.064761 0.057313 -0.996254 0.085112 0.0826593 -0.992937 
0.0895534 0.104606 -0.990473 -0.014076 0.180985 -0.983385 -0.272439 0.260121 -0.926345 
-0.256289 0.25393 -0.93265 0.084932 0.0846337 -0.992786 0.0953271 0.000931922 -0.995446 
0.0889849 0.0881293 -0.992126 0.112122 0.059143 -0.991933 0.00534046 0.0165252 -0.999849 
-0.28828 0.0981573 -0.952502 -0.180901 0.0442972 -0.982503 0.173116 -0.0659532 -0.982691 
0.171988 -0.0934572 -0.980656 0.170227 -0.0543696 -0.983904 0.0753958 0.0268195 -0.996793 
0.019368 0.0297221 -0.999371 -0.0295026 -0.033846 -0.998991 -0.258781 0.00477278 -0.965924 
-0.122757 -0.0339399 -0.991856 0.182658 -0.188843 -0.96487 0.192871 -0.181053 -0.964376 
0.183718 -0.176351 -0.967031 0.050574 -0.072096 -0.996115 -0.0600203 -0.0804269 -0.994952 
-0.202669 -0.0989017 -0.97424 -0.141573 -0.182721 -0.972918 -0.126733 -0.0942041 -0.987453 
0.128578 -0.247185 -0.9604 0.0910401 -0.291138 -0.952339 0.104108 -0.258817 -0.960299 
-0.0889454 -0.248921 -0.964431 -0.0499616 -0.274278 -0.960352 -0.0510438 -0.251708 -0.966456 

