# vtk DataFile Version 4.2
vtk output
ASCII
DATASET POLYDATA
POINTS 552 float
2.7052 -27.4119 -16.6516 11.1625 -27.4119 -19.9043 19.6198 -27.4119 -22.4789 
28.0771 -27.4119 -22.3514 36.5344 -27.4119 -22.0611 44.9918 -27.4119 -21.7197 
53.4491 -27.4119 -18.8173 -56.496 -18.9546 -17.1657 -48.0387 -18.9546 -18.1579 
-39.5813 -18.9546 -17.9992 -31.124 -18.9546 -16.7047 -5.75211 -18.9546 -19.6396 
2.7052 -18.9546 -21.4517 11.1625 -18.9546 -23.473 19.6198 -18.9546 -23.629 
28.0771 -18.9546 -23.3657 36.5344 -18.9546 -23.508 44.9918 -18.9546 -23.4332 
53.4491 -18.9546 -22.715 61.9064 -18.9546 -18.8257 -56.496 -10.4973 -19.1985 
-48.0387 -10.4973 -21.0349 -39.5813 -10.4973 -20.995 -31.124 -10.4973 -19.7652 
-22.6667 -10.4973 -17.7331 -14.2094 -10.4973 -19.0459 -5.75211 -10.4973 -21.5908 
2.7052 -10.4973 -21.9096 11.1625 -10.4973 -23.5853 19.6198 -10.4973 -22.2287 
28.0771 -10.4973 -22.6001 36.5344 -10.4973 -23.4023 44.9918 -10.4973 -24.0234 
53.4491 -10.4973 -24.3439 61.9064 -10.4973 -21.2346 -64.9533 -2.03995 -16.7752 
-56.496 -2.03995 -20.7342 -48.0387 -2.03995 -22.1404 -39.5813 -2.03995 -22.1624 
-31.124 -2.03995 -21.5701 -22.6667 -2.03995 -19.5127 -14.2094 -2.03995 -20.8 
-5.75211 -2.03995 -21.9928 2.7052 -2.03995 -21.2269 11.1625 -2.03995 -24.435 
19.6198 -2.03995 -20.1236 28.0771 -2.03995 -21.4755 36.5344 -2.03995 -23.0007 
44.9918 -2.03995 -23.8705 53.4491 -2.03995 -23.328 61.9064 -2.03995 -21.1924 
-56.496 6.41736 -20.4567 -48.0387 6.41736 -22.2961 -39.5813 6.41736 -22.6439 
-31.124 6.41736 -21.8627 -22.6667 6.41736 -20.0717 -14.2094 6.41736 -19.854 
-5.75211 6.41736 -21.631 2.7052 6.41736 -21.3151 11.1625 6.41736 -24.2024 
19.6198 6.41736 -21.0038 28.0771 6.41736 -21.5768 36.5344 6.41736 -22.8436 
44.9918 6.41736 -23.8013 53.4491 6.41736 -24.3244 61.9064 6.41736 -21.2734 
70.3637 6.41736 -17.0347 -56.496 14.8747 -20.0125 -48.0387 14.8747 -21.862 
-39.5813 14.8747 -22.9331 -31.124 14.8747 -21.9343 -22.6667 14.8747 -20.6032 
-14.2094 14.8747 -19.5774 -5.75211 14.8747 -20.0514 2.7052 14.8747 -20.8821 
11.1625 14.8747 -22.0181 19.6198 14.8747 -21.3288 28.0771 14.8747 -22.1197 
36.5344 14.8747 -22.2044 44.9918 14.8747 -22.7759 53.4491 14.8747 -22.3387 
61.9064 14.8747 -20.2046 -56.496 23.332 -17.1887 -48.0387 23.332 -20.4023 
-39.5813 23.332 -21.2164 -31.124 23.332 -22.3153 -22.6667 23.332 -20.9395 
-14.2094 23.332 -20.2032 -5.75211 23.332 -20.6671 2.7052 23.332 -21.0232 
11.1625 23.332 -21.3854 19.6198 23.332 -20.3109 28.0771 23.332 -20.3447 
36.5344 23.332 -20.5548 44.9918 23.332 -20.5579 53.4491 23.332 -19.1225 
61.9064 23.332 -17.0289 -48.0387 31.7893 -17.1616 -39.5813 31.7893 -18.7449 
-31.124 31.7893 -19.8578 -22.6667 31.7893 -19.5271 -14.2094 31.7893 -19.1999 
-5.75211 31.7893 -18.8227 2.7052 31.7893 -19.1606 11.1625 31.7893 -18.3847 
2.7052 -27.4621 -16.5946 11.1625 -30.3864 -16.5946 19.6198 -32.4234 -16.5946 
28.0771 -33.7839 -16.5946 36.5344 -33.3185 -16.5946 44.9918 -32.0427 -16.5946 
53.4491 -29.7997 -16.5946 -56.496 -19.9047 -16.5946 -56.496 -27.4119 -10.2018 
-48.0387 -21.4376 -16.5946 -48.0387 -27.4119 -12.3619 -39.5813 -21.3364 -16.5946 
-39.5813 -27.4119 -11.8135 -31.124 -19.1412 -16.5946 -31.124 -27.4119 -10.2353 
2.54241 -27.4119 -16.5946 -5.75211 -23.7308 -16.5946 -5.75211 -27.4119 -11.8979 
56.9952 -27.4119 -16.5946 61.9064 -22.6831 -16.5946 61.9064 -27.4119 -9.8832 
-57.3965 -18.9546 -16.5946 -64.9533 -18.9546 -11.7113 -30.6288 -18.9546 -16.5946 
-22.6667 -13.8385 -16.5946 -22.6667 -18.9546 -14.7455 -11.1413 -18.9546 -16.5946 
-14.2094 -15.0878 -16.5946 -14.2094 -18.9546 -14.5795 64.9622 -18.9546 -16.5946 
70.3637 -18.9546 -9.02853 -62.8856 -10.4973 -16.5946 -64.9533 -3.31987 -16.5946 
-64.9533 -10.4973 -15.6108 69.3474 -10.4973 -16.5946 70.3637 -10.4973 -15.3645 
-65.177 -2.03995 -16.5946 -64.9533 -0.543456 -16.5946 70.1655 -2.03995 -16.5946 
70.3637 0.143172 -16.5946 70.3637 -2.03995 -16.4436 -63.6463 6.41736 -16.5946 
-64.9533 6.41736 -15.6122 70.8893 6.41736 -16.5946 70.3637 7.87034 -16.5946 
-61.8412 14.8747 -16.5946 -64.9533 14.8747 -13.1603 68.0427 14.8747 -16.5946 
70.3637 14.8747 -14.4798 -57.3184 23.332 -16.5946 -56.496 24.3233 -16.5946 
19.6198 31.5093 -16.5946 28.0771 30.7963 -16.5946 36.5344 31.3784 -16.5946 
44.9918 31.053 -16.5946 53.4491 28.2668 -16.5946 63.0843 23.332 -16.5946 
61.9064 23.7686 -16.5946 70.3637 23.332 -12.2855 -49.0284 31.7893 -16.5946 
-56.496 31.7893 -8.97376 -48.0387 32.5087 -16.5946 -39.5813 35.1127 -16.5946 
-31.124 37.7706 -16.5946 -22.6667 36.8287 -16.5946 -14.2094 36.3586 -16.5946 
-5.75211 35.2607 -16.5946 2.7052 35.2409 -16.5946 19.0222 31.7893 -16.5946 
11.1625 33.9346 -16.5946 19.6198 31.7893 -16.3904 28.0771 31.7893 -15.7931 
36.5344 31.7893 -16.2445 44.9918 31.7893 -15.925 53.4491 31.7893 -13.2769 
-39.5813 40.2466 -11.3158 -31.124 40.2466 -13.751 -22.6667 40.2466 -13.3871 
-14.2094 40.2466 -12.0695 -5.75211 40.2466 -9.21679 -56.496 -29.0283 -8.13731 
-48.0387 -31.6976 -8.13731 -39.5813 -30.7176 -8.13731 -31.124 -29.254 -8.13731 
-5.75211 -29.2553 -8.13731 2.7052 -30.4984 -8.13731 11.1625 -31.9114 -8.13731 
19.6198 -33.4313 -8.13731 28.0771 -35.6413 -8.13731 36.5344 -35.4243 -8.13731 
44.9918 -35.5067 -8.13731 53.4491 -32.7099 -8.13731 61.9064 -28.3705 -8.13731 
-60.4692 -27.4119 -8.13731 -64.9533 -24.712 -8.13731 -64.9533 -27.4119 -5.07453 
-24.5072 -27.4119 -8.13731 -22.6667 -26.853 -8.13731 -22.6667 -27.4119 -7.40405 
-11.3344 -27.4119 -8.13731 -14.2094 -26.1546 -8.13731 -14.2094 -27.4119 -6.44587 
63.0624 -27.4119 -8.13731 61.9064 -27.4119 -0.364837 70.3637 -19.7228 -8.13731 
-69.348 -18.9546 -8.13731 70.8569 -18.9546 -8.13731 70.3637 -18.9546 -4.1333 
-71.7733 -10.4973 -8.13731 74.7904 -10.4973 -8.13731 -72.5202 -2.03995 -8.13731 
-73.4106 -2.03995 -3.26745 76.8638 -2.03995 -8.13731 -70.4542 6.41736 -8.13731 
77.3898 6.41736 -8.13731 -68.3793 14.8747 -8.13731 -64.9533 21.2707 -8.13731 
75.7362 14.8747 -8.13731 -63.806 23.332 -8.13731 61.9064 31.4126 -8.13731 
72.3162 23.332 -8.13731 70.3637 25.507 -8.13731 -57.1799 31.7893 -8.13731 
-56.496 32.4527 -8.13731 -48.0387 38.1062 -8.13731 2.7052 39.783 -8.13731 
11.1625 38.4038 -8.13731 19.6198 36.7236 -8.13731 28.0771 36.1988 -8.13731 
36.5344 36.1188 -8.13731 44.9918 36.341 -8.13731 61.0165 31.7893 -8.13731 
53.4491 34.3415 -8.13731 -43.5524 40.2466 -8.13731 -39.5813 41.9046 -8.13731 
-31.124 43.1784 -8.13731 -22.6667 43.2788 -8.13731 -14.2094 42.2199 -8.13731 
-1.59598 40.2466 -8.13731 -5.75211 40.7274 -8.13731 -5.75211 40.2466 0.295299 
-64.9533 -29.8417 0.319999 -56.496 -33.4926 0.319999 -48.0387 -34.7078 0.319999 
-39.5813 -35.091 0.319999 -39.5813 -35.8692 7.51585 -31.124 -32.9926 0.319999 
-22.6667 -32.2424 0.319999 -14.2094 -31.4287 0.319999 -5.75211 -32.4192 0.319999 
2.7052 -31.1359 0.319999 11.1625 -31.3234 0.319999 19.6198 -33.2088 0.319999 
28.0771 -35.4514 0.319999 36.5344 -35.0813 0.319999 44.9918 -34.9814 0.319999 
53.4491 -32.2694 0.319999 -67.6998 -27.4119 0.319999 61.7864 -27.4119 0.319999 
61.9064 -27.3248 0.319999 -72.9422 -18.9546 0.319999 69.7165 -18.9546 0.319999 
70.3637 -17.7763 0.319999 -73.3881 -10.4973 0.319999 -73.4106 -10.1753 0.319999 
74.3313 -10.4973 0.319999 70.3637 -10.4973 6.17113 -73.9777 -2.03995 0.319999 
-73.4106 -0.210968 0.319999 -73.4106 -2.03995 2.35005 76.4302 -2.03995 0.319999 
70.3637 -2.03995 8.45181 -71.2723 6.41736 0.319999 77.1692 6.41736 0.319999 
-68.9325 14.8747 0.319999 -64.9533 22.4734 0.319999 75.3704 14.8747 0.319999 
70.3637 14.8747 6.36509 -64.4557 23.332 0.319999 61.9064 30.5539 0.319999 
72.6429 23.332 0.319999 70.3637 25.9616 0.319999 70.3637 23.332 5.26079 
-57.5321 31.7893 0.319999 -56.496 32.7296 0.319999 -56.496 31.7893 1.9153 
-48.0387 38.5069 0.319999 -5.75211 40.2452 0.319999 2.7052 38.7164 0.319999 
11.1625 37.0331 0.319999 11.1625 31.7893 8.46942 19.6198 35.6897 0.319999 
19.6198 31.7893 6.35724 28.0771 35.5446 0.319999 28.0771 31.7893 7.34299 
36.5344 35.7275 0.319999 36.5344 31.7893 8.41352 44.9918 35.8153 0.319999 
44.9918 31.7893 6.94667 59.784 31.7893 0.319999 53.4491 34.7791 0.319999 
53.4491 31.7893 7.38346 -43.8046 40.2466 0.319999 -39.5813 41.6906 0.319999 
-39.5813 40.2466 3.10191 -31.124 42.8634 0.319999 -31.124 40.2466 5.03934 
-22.6667 42.9507 0.319999 -22.6667 40.2466 5.48641 -5.75871 40.2466 0.319999 
-14.2094 41.9603 0.319999 -14.2094 40.2466 3.83079 -39.5813 -35.99 8.77731 
-64.9533 -28.8651 8.77731 -56.496 -33.3934 8.77731 -40.6927 -35.8692 8.77731 
-48.0387 -35.1861 8.77731 -37.8203 -35.8692 8.77731 -39.5813 -35.8692 9.27234 
-31.124 -35.3913 8.77731 -22.6667 -34.6714 8.77731 -14.2094 -35.3092 8.77731 
-5.75211 -35.316 8.77731 2.7052 -33.302 8.77731 11.1625 -32.8758 8.77731 
19.6198 -33.9941 8.77731 28.0771 -34.4598 8.77731 36.5344 -33.8575 8.77731 
44.9918 -32.4593 8.77731 53.4491 -28.9611 8.77731 -66.4891 -27.4119 8.77731 
-64.9533 -27.4119 11.0334 44.9918 -27.4119 16.992 55.8258 -27.4119 8.77731 
53.4491 -27.4119 10.788 61.9064 -21.685 8.77731 -70.6413 -18.9546 8.77731 
-64.9533 -18.9546 16.4079 64.4737 -18.9546 8.77731 61.9064 -18.9546 10.8698 
-71.385 -10.4973 8.77731 68.4099 -10.4973 8.77731 61.9064 -10.4973 14.069 
-71.4375 -2.03995 8.77731 70.0872 -2.03995 8.77731 61.9064 -2.03995 15.018 
70.3637 1.40401 8.77731 -68.9753 6.41736 8.77731 -64.9533 6.41736 13.559 
61.9064 6.41736 14.8754 70.8229 6.41736 8.77731 70.3637 7.73949 8.77731 
70.3637 6.41736 9.21222 -65.94 14.8747 8.77731 -64.9533 16.462 8.77731 
-64.9533 14.8747 9.98733 53.4491 14.8747 16.4344 67.9846 14.8747 8.77731 
61.9064 14.8747 12.9493 -60.6156 23.332 8.77731 -56.496 27.8009 8.77731 
-56.496 23.332 12.841 -22.6667 23.332 17.2249 -14.2094 23.332 16.0713 
-5.75211 23.332 15.6427 2.7052 23.332 15.43 11.1625 31.5232 8.77731 
11.1625 23.332 15.3606 19.6198 29.6111 8.77731 19.6198 23.332 13.6555 
28.0771 30.5426 8.77731 28.0771 23.332 13.7959 36.5344 31.5229 8.77731 
36.5344 23.332 14.0526 44.9918 30.3288 8.77731 44.9918 23.332 14.61 
53.4491 30.7004 8.77731 53.4491 23.332 12.7838 62.5766 23.332 8.77731 
[...]
POINT_DATA 552
SCALARS ImageScalars float
LOOKUP_TABLE default
0 0 0 0 0 0 0 0 0 
0 0 0 0 0 0 0 0 0 
0 0 0 0 0 0 0 0 0 
0 0 0 0 0 0 0 0 0 
0 0 0 0 0 0 0 0 0 
0 0 0 0 0 0 0 0 0 
0 0 0 0 0 0 0 0 0 
0 0 0 0 0 0 0 0 0 
0 0 0 0 0 0 0 0 0 
0 0 0 0 0 0 0 0 0 
0 0 0 0 0 0 0 0 0 
0 0 0 0 0 0 0 0 0 
0 0 0 0 0 0 0 0 0 
0 0 0 0 0 0 0 0 0 
0 0 0 0 0 0 0 0 0 
0 0 0 0 0 0 0 0 0 
0 0 0 0 0 0 0 0 0 
0 0 0 0 0 0 0 0 0 
0 0 0 0 0 0 0 0 0 
0 0 0 0 0 0 0 0 0 
0 0 0 0 0 0 0 0 0 
0 0 0 0 0 0 0 0 0 
0 0 0 0 0 0 0 0 0 
0 0 0 0 0 0 0 0 0 
0 0 0 0 0 0 0 0 0 
0 0 0 0 0 0 0 0 0 
0 0 0 0 0 0 0 0 0 
0 0 0 0 0 0 0 0 0 
0 0 0 0 0 0 0 0 0 
0 0 0 0 0 0 0 0 0 
0 0 0 0 0 0 0 0 0 
0 0 0 0 0 0 0 0 0 
0 0 0 0 0 0 0 0 0 
0 0 0 0 0 0 0 0 0 
0 0 0 0 0 0 0 0 0 
0 0 0 0 0 0 0 0 0 
0 0 0 0 0 0 0 0 0 
0 0 0 0 0 0 0 0 0 
0 0 0 0 0 0 0 0 0 
0 0 0 0 0 0 0 0 0 
0 0 0 0 0 0 0 0 0 
0 0 0 0 0 0 0 0 0 
0 0 0 0 0 0 0 0 0 
0 0 0 0 0 0 0 0 0 
0 0 0 0 0 0 0 0 0 
0 0 0 0 0 0 0 0 0 
0 0 0 0 0 0 0 0 0 
0 0 0 0 0 0 0 0 0 
0 0 0 0 0 0 0 0 0 
0 0 0 0 0 0 0 0 0 
0 0 0 0 0 0 0 0 0 
0 0 0 0 0 0 0 0 0 
0 0 0 0 0 0 0 0 0 
0 0 0 0 0 0 0 0 0 
0 0 0 0 0 0 0 0 0 
0 0 0 0 0 0 0 0 0 
0 0 0 0 0 0 0 0 0 
0 0 0 0 0 0 0 0 0 
0 0 0 0 0 0 0 0 0 
0 0 0 0 0 0 0 0 0 
0 0 0 0 0 0 0 0 0 
0 0 0 
NORMALS Normals float
0.300937 0.745498 0.594702 0.288432 0.660943 0.692792 0.124802 0.473157 0.872093 
-0.0238335 0.422621 0.905993 -0.0337057 0.426882 0.903679 -0.184783 0.500824 0.845595 
-0.380776 0.576806 0.722706 0.329192 0.374595 0.866782 0.037761 0.455551 0.889408 
-0.0779754 0.436756 0.896194 -0.174585 0.45355 0.873964 0.343217 0.387621 0.855542 
0.224093 0.242142 0.944007 0.124463 0.171787 0.97724 -0.00650135 -0.0234189 0.999705 
-0.00714085 0.0083419 0.99994 0.0041607 0.0681532 0.997666 -0.0414173 0.107936 0.993295 
-0.283366 0.313318 0.906386 -0.49215 0.377859 0.784226 0.282109 0.180306 0.942287 
0.0948163 0.212983 0.972444 -0.0739619 0.232453 0.969791 -0.174485 0.261256 0.949368 
-0.0591778 0.256576 0.964711 0.246414 0.308347 0.918805 0.135008 0.127995 0.982543 
0.122966 -0.00732159 0.992384 0.0188664 0.0473787 0.998699 -0.0575561 -0.213182 0.975316 
0.0673938 -0.111569 0.991469 0.08317 -0.0298531 0.996088 0.0542 0.0247968 0.998222 
-0.165994 0.0160921 0.985996 -0.386603 0.134001 0.912459 0.566144 0.00899115 0.824257 
0.268801 0.0705312 0.96061 0.0782175 0.0783224 0.993855 -0.0347532 0.0983561 0.994544 
-0.146027 0.120678 0.981893 -0.0677999 0.131531 0.988991 0.151552 0.0379017 0.987722 
0.0167209 0.00406679 0.999852 0.130627 -0.0381289 0.990698 -0.117702 0.0411184 0.992197 
-0.125871 -0.0657968 0.989862 0.168381 -0.059679 0.983914 0.139641 -0.0327054 0.989662 
0.0170626 -0.0129749 0.99977 -0.145292 0.00116133 0.989388 -0.330476 0.00214202 0.943812 
0.321502 -0.0435451 0.945907 0.119482 -0.0187497 0.992659 -0.0219538 0.0449082 0.99875 
-0.147171 0.0220206 0.988866 -0.112018 0.0634731 0.991677 0.0957753 -0.0626346 0.99343 
0.076335 -0.117441 0.990142 0.155584 -0.0230896 0.987553 -0.025973 -0.145452 0.989024 
-0.150057 0.0744162 0.985873 0.10616 0.0384536 0.993605 0.12951 -0.0464006 0.990492 
0.0858884 -0.063012 0.99431 -0.141833 -0.0446133 0.988885 -0.331623 -0.0610441 0.941435 
-0.607673 -0.0914151 0.788909 0.381241 -0.177476 0.90728 0.167788 -0.0961035 0.981128 
0.00968298 -0.0825654 0.996539 -0.135121 0.0248439 0.990518 -0.136406 0.0484716 0.989466 
-0.0333878 0.0235132 0.999166 0.0761312 -0.0517609 0.995753 0.115657 -0.0146286 0.993181 
0.0259555 -0.157415 0.987191 0.00703804 -0.038795 0.999222 0.0513732 -0.0727118 0.996029 
0.0376361 -0.125745 0.991348 0.00945033 -0.187253 0.982266 -0.161197 -0.278945 0.946681 
-0.35198 -0.177993 0.918928 0.472013 -0.422772 0.773607 0.234706 -0.295142 0.926177 
0.102556 -0.21954 0.970198 -0.0194183 -0.128669 0.991497 -0.118918 -0.055557 0.991349 
-0.0171915 -0.0238792 0.999567 0.0481938 -0.0669291 0.996593 0.0409827 -0.0865527 0.995404 
-0.038473 -0.192646 0.980514 -0.0589377 -0.239574 0.969088 0.0129652 -0.32491 0.945656 
0.0131421 -0.298274 0.95439 -0.0724084 -0.353132 0.932767 -0.168004 -0.411715 0.895693 
-0.265573 -0.585 0.76632 0.339071 -0.527376 0.779041 0.172298 -0.445918 0.878334 
0.0352033 -0.371705 0.927683 -0.0419915 -0.321427 0.946003 -0.0386198 -0.314914 0.948334 
-0.0052981 -0.397846 0.917437 -0.0236306 -0.445072 0.895183 -0.140306 -0.556636 0.818822 
0.300813 0.748049 0.591552 0.276245 0.837637 0.471225 0.191288 0.893098 0.407167 
0.0545547 0.875543 0.48005 -0.0899227 0.869538 0.48561 -0.190803 0.791027 0.581266 
-0.371146 0.723927 0.581533 0.318778 0.423491 0.84796 0.271047 0.757745 0.593596 
0.0396997 0.522018 0.85201 0.0490093 0.665228 0.74503 -0.0735435 0.500064 0.86286 
-0.0944229 0.710512 0.697322 -0.174541 0.458941 0.871153 -0.178509 0.732481 0.656967 
0.302366 0.746189 0.593108 0.378623 0.604653 0.700742 0.299739 0.806905 0.50898 
-0.470443 0.633004 0.614808 -0.541521 0.513492 0.665644 -0.597713 0.762259 0.248397 
0.355342 0.377487 0.855123 0.566334 0.395524 0.723067 -0.170665 0.453051 0.874996 
-0.0854253 0.325686 0.941611 -0.104805 0.461981 0.880676 0.318854 0.479042 0.817833 
0.271595 0.413472 0.869067 0.245415 0.53104 0.811029 -0.587907 0.416204 0.693642 
-0.838463 0.489053 0.240432 0.463488 0.233251 0.854852 0.561712 0.0448353 0.826117 
0.542043 0.245713 0.803626 -0.691105 0.224498 0.687004 -0.756326 0.254583 0.602626 
0.574141 0.00743767 0.818723 0.581421 -0.0177631 0.813409 -0.637891 0.0610189 0.767706 
-0.636057 0.0240974 0.771266 -0.649278 0.0648885 0.757778 0.597081 -0.122662 0.792747 
0.670602 -0.153619 0.725737 -0.613986 -0.0887348 0.784313 -0.616735 -0.0962824 0.78126 
0.622374 -0.237298 0.745883 0.775213 -0.311989 0.549279 -0.580196 -0.16421 0.797752 
-0.712664 -0.175653 0.679158 0.499411 -0.431749 0.751121 0.486116 -0.450115 0.749058 
-0.13273 -0.629068 0.765935 -0.0028812 -0.611222 0.791454 0.00838517 -0.690961 0.722844 
-0.0823791 -0.659581 0.747106 -0.267981 -0.542102 0.796437 -0.312102 -0.574837 0.756409 
-0.271254 -0.602729 0.750426 -0.689042 -0.518111 0.506736 0.369596 -0.542122 0.754654 
0.64564 -0.691978 0.322979 0.347602 -0.55839 0.753242 0.218913 -0.55859 0.800034 
0.0557472 -0.637244 0.768644 -0.0528903 -0.592262 0.804008 -0.0573311 -0.559642 0.826749 
-0.0410829 -0.581981 0.812164 -0.0646481 -0.661091 0.747516 -0.136549 -0.636832 0.758815 
-0.16317 -0.664356 0.729388 -0.135291 -0.65107 0.746863 -0.00717762 -0.681366 0.731907 
0.00681194 -0.72278 0.691045 -0.0852947 -0.709837 0.699182 -0.30342 -0.772351 0.558041 
0.284711 -0.857152 0.429221 0.0664816 -0.829664 0.55429 -0.0552141 -0.842358 0.536082 
-0.120114 -0.884169 0.451461 -0.136345 -0.961351 0.239194 0.301098 0.781205 0.546864 
0.0680323 0.814398 0.576305 -0.118105 0.80833 0.576762 -0.193392 0.785321 0.588107 
0.225106 0.88718 0.40279 0.14756 0.971834 0.18375 0.173965 0.983799 0.0433136 
0.208707 0.977108 0.0412509 0.123161 0.989014 0.0817482 -0.00677477 0.996694 0.0809605 
-0.157046 0.978435 0.134173 -0.348831 0.929496 0.11981 -0.58145 0.797586 0.160539 
0.404662 0.735991 0.54274 0.545728 0.61712 0.566872 0.558524 0.729725 0.394401 
-0.148145 0.780882 0.606858 -0.137081 0.77449 0.617555 -0.136365 0.794047 0.592363 
0.168987 0.831377 0.529391 0.131891 0.781473 0.60984 0.109011 0.820638 0.560955 
-0.612166 0.773823 0.162634 -0.59816 0.770082 -0.221762 -0.835447 0.515214 0.191266 
0.713591 0.406755 0.570384 -0.8479 0.493311 0.19419 -0.858964 0.511934 -0.0101977 
0.907278 0.134749 0.398359 -0.915554 0.342433 0.210952 0.927965 -0.0727414 0.365499 
0.9887 -0.102182 0.109691 -0.956532 0.149193 0.250574 0.924613 -0.220966 0.310266 
-0.971868 -0.0564684 0.228655 0.888082 -0.343704 0.305251 0.840003 -0.455178 0.295309 
-0.906387 -0.299305 0.298128 0.821465 -0.491238 0.289623 -0.461686 -0.84599 0.266734 
-0.791082 -0.562294 0.240863 -0.715316 -0.656068 0.24062 0.660042 -0.695276 0.284492 
0.644926 -0.709986 0.282827 0.433421 -0.85861 0.273742 -0.132595 -0.984283 0.11664 
-0.182269 -0.975214 0.125438 -0.133523 -0.976488 0.169245 -0.0353725 -0.982135 0.184824 
0.00753191 -0.9776 0.210339 -0.104766 -0.966136 0.235808 -0.438786 -0.859169 0.263241 
-0.260551 -0.937001 0.232686 0.345466 -0.902476 0.257274 0.273272 -0.93293 0.234446 
0.0839038 -0.971529 0.221568 -0.0579152 -0.970186 0.23534 -0.142383 -0.967344 0.209696 
-0.137652 -0.979743 0.145451 -0.145117 -0.972886 0.180093 -0.187993 -0.950071 -0.249045 
0.557748 0.816629 0.14844 0.303799 0.932639 0.194655 0.0748481 0.983658 0.163755 
-0.0964707 0.96166 0.256716 0.00425065 0.999608 -0.0276556 -0.150923 0.937115 0.314703 
-0.0862318 0.906262 0.413828 0.0127104 0.884226 0.466886 -0.0231562 0.9391 0.342864 
-0.0615925 0.98359 0.169577 0.121579 0.990904 0.0576898 0.236507 0.971108 0.0318448 
0.11027 0.991407 -0.0703753 -0.0274796 0.995445 -0.0912884 -0.158548 0.972403 -0.171156 
-0.357161 0.914701 -0.189101 0.706375 0.695121 0.133568 -0.591704 0.764847 -0.254745 
-0.595528 0.761452 -0.256001 0.947536 0.318992 0.0205093 -0.820031 0.510704 -0.258321 
-0.83545 0.48203 -0.263951 0.998085 0.0565066 -0.0251705 0.998416 0.049583 -0.0265828 
-0.886335 0.356985 -0.29491 -0.796733 0.263081 -0.544064 0.991646 -0.116543 -0.0552866 
0.986185 -0.155404 -0.0573454 0.984276 -0.115398 -0.133734 -0.939416 0.149983 -0.308226 
-0.7353 0.10495 -0.669566 0.953871 -0.293788 -0.0617963 -0.955708 -0.0552379 -0.289087 
0.926396 -0.361318 -0.106016 0.862962 -0.487092 -0.13431 -0.898557 -0.277094 -0.340316 
-0.748507 -0.152757 -0.645292 0.851906 -0.505369 -0.137328 -0.492563 -0.834485 -0.247015 
-0.816746 -0.534248 -0.217956 -0.703103 -0.677936 -0.214589 -0.677917 -0.489848 -0.548158 
0.646943 -0.738362 -0.190488 0.623637 -0.757242 -0.194068 0.620817 -0.740548 -0.257245 
0.419014 -0.889906 -0.180264 -0.188073 -0.949725 -0.250302 -0.173993 -0.935565 -0.30732 
-0.167443 -0.9239 -0.344052 -0.158114 -0.742927 -0.65043 -0.0817894 -0.938293 -0.336032 
-0.0409393 -0.795113 -0.605078 0.0018597 -0.962903 -0.269842 0.0640551 -0.778764 -0.624038 
0.0164776 -0.97241 -0.232696 -0.0152575 -0.767312 -0.641093 -0.0594402 -0.959533 -0.275252 
-0.0306838 -0.819304 -0.572537 -0.444892 -0.869826 -0.213244 -0.262161 -0.947455 -0.183307 
-0.190964 -0.810679 -0.553472 0.312219 -0.923814 -0.221556 0.226604 -0.940114 -0.254628 
0.208847 -0.898403 -0.386335 0.0771994 -0.961062 -0.265329 0.0757383 -0.866053 -0.494181 
-0.0544707 -0.967274 -0.247819 -0.0355768 -0.857737 -0.512856 -0.188043 -0.949736 -0.250281 
-0.148545 -0.9598 -0.238156 -0.143755 -0.899067 -0.413536 0.0200013 0.997089 -0.0735724 
0.632978 0.705953 -0.317757 0.378068 0.897445 -0.227284 0.0344402 0.99664 -0.0743137 
0.128082 0.987456 -0.0923325 -0.000410727 0.998747 -0.0500339 0.0212566 0.995404 -0.0933776 
-0.0793506 0.995998 0.0411337 -0.00672598 0.994454 0.104962 0.0390227 0.977309 0.208193 
-0.118757 0.981714 0.148773 -0.143948 0.985494 0.0898937 0.0402417 0.998643 0.0330681 
0.0962079 0.993668 -0.0580324 -0.00741652 0.98399 -0.178067 -0.110448 0.963846 -0.242493 
-0.262042 0.880052 -0.396034 -0.447259 0.751707 -0.48466 0.70148 0.629604 -0.333954 
0.656285 0.621473 -0.427857 -0.378634 0.610479 -0.695666 -0.50086 0.701244 -0.507342 
-0.469911 0.682185 -0.560185 -0.593522 0.530773 -0.604989 0.88608 0.26817 -0.378084 
0.660717 0.249207 -0.70806 -0.637956 0.453062 -0.622694 -0.587174 0.431578 -0.684811 
0.92354 0.0418628 -0.381209 -0.712315 0.228932 -0.663474 -0.508915 0.199458 -0.83739 
0.899243 -0.115667 -0.42188 -0.722239 0.102919 -0.683943 -0.440585 0.0388506 -0.89687 
-0.728698 0.0256724 -0.684354 0.845317 -0.279983 -0.455025 0.7147 -0.296939 -0.63327 
-0.381431 -0.114066 -0.917333 -0.723157 -0.0843809 -0.68551 -0.717759 -0.0897035 -0.690489 
-0.714038 -0.0852927 -0.694892 0.772344 -0.393529 -0.498617 0.760237 -0.412766 -0.501662 
0.744903 -0.386233 -0.544007 -0.239327 -0.281959 -0.929097 -0.630965 -0.194279 -0.751092 
-0.434539 -0.266569 -0.860301 0.673638 -0.517421 -0.52772 0.56792 -0.614198 -0.547931 
0.528132 -0.511327 -0.677954 -0.0967151 -0.296268 -0.950195 -0.0848216 -0.278921 -0.956561 
-0.0361206 -0.408007 -0.912264 -0.0147272 -0.444104 -0.895854 -0.15641 -0.732432 -0.66263 
-0.0901229 -0.565073 -0.820104 -0.0407451 -0.696472 -0.716426 -0.0755975 -0.537389 -0.83994 
0.0724599 -0.707404 -0.703086 0.0212646 -0.477954 -0.878128 -0.0143057 -0.747959 -0.66359 
0.0427158 -0.45804 -0.887905 -0.0343167 -0.742458 -0.669013 -0.0758787 -0.415274 -0.906526 
-0.185068 -0.738211 -0.648687 -0.24086 -0.412922 -0.878341 -0.392423 -0.526304 -0.754327 
-0.377608 -0.542737 -0.750232 -0.372969 -0.534386 -0.758502 0.445792 -0.683237 -0.578322 
0.34396 -0.726601 -0.594763 0.332025 -0.661164 -0.672771 0.151587 -0.735886 -0.659919 
0.122134 -0.634122 -0.763526 0.0693046 -0.731605 -0.678197 0.0169419 -0.560376 -0.828065 
-0.0340439 -0.712678 -0.700665 -0.0472163 -0.513541 -0.856765 -0.117628 -0.70399 -0.700401 
-0.103386 -0.511543 -0.853015 -0.153665 -0.68892 -0.708362 -0.128665 -0.565495 -0.814654 
-0.156821 -0.729358 -0.665915 -0.159209 -0.707252 -0.688802 -0.138879 -0.658513 -0.739644 
0.41974 0.619642 -0.663221 0.234602 0.77672 -0.584523 0.0687979 0.864875 -0.49725 
0.0347217 0.897878 -0.438873 0.0999263 0.927347 -0.360614 0.0488016 0.952058 -0.301998 
-0.154734 0.936937 -0.31338 -0.18623 0.907974 -0.375368 -0.0337699 0.89457 -0.445651 
0.00699976 0.85565 -0.517507 -0.101189 0.797752 -0.594435 -0.234367 0.706906 -0.66735 
0.470571 0.565354 -0.67745 0.423737 0.566373 -0.706873 0.239404 0.506873 -0.82811 
0.075493 0.488736 -0.86916 0.070234 0.470195 -0.879764 0.0956562 0.39219 -0.914897 
0.00741958 0.351004 -0.936345 -0.111014 0.416537 -0.902315 -0.157986 0.578719 -0.800078 
-0.0638946 0.609033 -0.790567 -0.0351925 0.555829 -0.830552 -0.126696 0.539967 -0.832096 
-0.371285 0.604286 -0.704972 -0.224497 0.559989 -0.797504 -0.378224 0.586967 -0.715833 
-0.451109 0.290464 -0.843879 0.615675 0.242386 -0.749796 0.631502 0.077189 -0.771523 
0.390609 0.226809 -0.892178 0.189619 0.192345 -0.962833 0.0501645 0.156191 -0.986452 
-0.01632 0.121828 -0.992417 0.0190365 0.00838979 -0.999784 -0.106669 0.188209 -0.976319 
-0.0848726 0.130909 -0.987755 -0.119524 0.0943928 -0.988334 -0.205503 0.124007 -0.970768 
-0.294039 0.164714 -0.941494 -0.451524 0.288947 -0.844178 -0.450716 0.288599 -0.844728 
0.632688 0.0318758 -0.773751 0.625679 0.0305526 -0.779482 0.443542 0.0287518 -0.895792 
-0.0639867 -0.127777 -0.989737 0.0452905 -0.180796 -0.982477 -0.142995 -0.0899295 -0.985629 
-0.124194 -0.124577 -0.984407 -0.162914 -0.089503 -0.982572 -0.228285 -0.00989788 -0.973544 
-0.375514 0.069392 -0.924215 -0.347277 0.0446804 -0.936698 0.601505 -0.151682 -0.784337 
0.601196 -0.152731 -0.78437 0.600532 -0.151429 -0.785131 0.386065 -0.14916 -0.910333 
0.136589 -0.184252 -0.973342 -0.00928151 -0.168812 -0.985605 -0.116894 -0.178634 -0.976947 
-0.105131 -0.244286 -0.963988 0.032403 -0.19226 -0.980809 -0.037488 -0.14908 -0.988114 
0.0656322 -0.403666 -0.912549 0.0322285 -0.14876 -0.988348 -0.180407 -0.157801 -0.970851 
-0.112109 -0.21785 -0.969522 -0.0877043 -0.135438 -0.986896 -0.156 -0.0600545 -0.98593 
-0.311472 -0.0039702 -0.950247 -0.276657 -0.0114539 -0.9609 0.553731 -0.263357 -0.789952 
0.416828 -0.258716 -0.87139 0.178284 -0.21438 -0.960342 -0.00411695 -0.208821 -0.977945 
-0.146529 -0.217926 -0.964903 -0.0875916 -0.222232 -0.971051 0.136055 -0.274711 -0.951852 
-0.110817 -0.216746 -0.969918 0.0237752 -0.147958 -0.988708 0.118168 -0.220798 -0.968135 
-0.218744 -0.251898 -0.942708 -0.0830345 -0.230928 -0.969421 -0.0108179 -0.195705 -0.980603 
-0.116726 -0.156435 -0.980767 -0.284797 -0.0916469 -0.954197 -0.258268 -0.177459 -0.949635 
-0.269438 -0.0893425 -0.958865 0.470061 -0.33875 -0.81504 0.453964 -0.354827 -0.817321 
0.446971 -0.335527 -0.82924 0.208329 -0.302768 -0.930017 -0.0043726 -0.267796 -0.963466 
-0.138744 -0.258456 -0.956008 -0.0969295 -0.295724 -0.950343 -0.137682 -0.205249 -0.968977 
-0.0268201 -0.258962 -0.965515 0.0219676 -0.261076 -0.965068 0.00421047 -0.407351 -0.913262 
0.050677 -0.423453 -0.904499 0.0248418 -0.330495 -0.943481 0.0531678 -0.220233 -0.973997 
-0.0734981 -0.516886 -0.852893 -0.0335669 -0.415184 -0.909118 -0.158116 -0.429694 -0.889023 
-0.180068 -0.409023 -0.894581 -0.0364643 -0.32901 -0.943622 -0.0375257 -0.326676 -0.944391 
0.00152542 -0.328467 -0.944514 -0.00146256 -0.320858 -0.947126 -0.0615999 -0.265494 -0.962143 
-0.0535578 -0.265777 -0.962546 -0.0533796 -0.264695 -0.962854 0.269782 -0.462251 -0.844714 
0.25966 -0.466079 -0.845782 0.258568 -0.460284 -0.849283 0.0431773 -0.477933 -0.877334 
0.0259325 -0.425045 -0.904801 -0.0961963 -0.297408 -0.949892 -0.0580062 -0.385187 -0.921014 
-0.0704679 -0.363693 -0.92885 0.0583796 0.0757623 -0.995415 -0.0533711 0.242322 -0.968727 
-0.103169 0.213507 -0.971479 0.182293 0.0266352 -0.982883 0.0437387 0.136035 -0.989738 
-0.0612825 -0.0183723 -0.997951 0.0569728 -0.0179448 -0.998214 0.0739544 -0.0556302 -0.995709 
0.0795253 -0.030926 -0.996353 0.0201714 0.0408974 -0.99896 -0.0992104 0.167652 -0.980842 
-0.0919535 0.150378 -0.984343 -0.109549 -0.00381514 -0.993974 0.19924 -0.00081124 -0.97995 
0.173992 -0.0310959 -0.984256 0.181319 -0.00288568 -0.98342 -0.00944044 -0.100571 -0.994885 
-0.0101844 -0.0284565 -0.999543 -0.0743364 -0.0645498 -0.995142 -0.0760208 -0.0650077 -0.994985 
-0.0749329 -0.0616278 -0.995282 0.0848528 -0.172599 -0.98133 0.0840603 -0.171393 -0.98161 
0.0867891 -0.172381 -0.9812 0.00758762 -0.238058 -0.971221 0.000645498 -0.21312 -0.977026 
-0.11144 -0.0302919 -0.993309 -0.101164 -0.0351659 -0.994248 -0.10973 -0.0274752 -0.993582 

