# vtk DataFile Version 4.2
vtk output
ASCII
DATASET POLYDATA
POINTS 528 float
3.09905 7.10064 -20.8678 -21.7781 -42.6536 -12.9266 -13.4857 -42.6536 -13.3856 
-30.0705 -34.3613 -14.6046 -21.7781 -34.3613 -15.5872 -13.4857 -34.3613 -15.8539 
-5.19333 -34.3613 -14.9566 3.09905 -34.3613 -13.9767 11.3914 -34.3613 -13.5691 
19.6838 -34.3613 -13.1109 27.9762 -34.3613 -13.2862 -38.3629 -26.0689 -14.232 
-30.0705 -26.0689 -15.8107 -21.7781 -26.0689 -16.2618 -13.4857 -26.0689 -16.4119 
-5.19333 -26.0689 -15.1731 3.09905 -26.0689 -14.5788 11.3914 -26.0689 -14.7348 
19.6838 -26.0689 -14.3652 27.9762 -26.0689 -14.247 36.2686 -26.0689 -14.4534 
-46.6552 -17.7765 -13.1994 -38.3629 -17.7765 -15.1529 -30.0705 -17.7765 -15.9343 
-21.7781 -17.7765 -15.9198 -13.4857 -17.7765 -15.3226 -5.19333 -17.7765 -14.5445 
3.09905 -17.7765 -15.0743 11.3914 -17.7765 -14.411 19.6838 -17.7765 -14.5308 
27.9762 -17.7765 -14.4534 36.2686 -17.7765 -15.2075 44.561 -17.7765 -16.2172 
-46.6552 -9.48413 -15.0607 -38.3629 -9.48413 -16.2482 -30.0705 -9.48413 -15.9427 
-21.7781 -9.48413 -15.2242 -13.4857 -9.48413 -14.7777 -5.19333 -9.48413 -15.5856 
3.09905 -9.48413 -17.8168 11.3914 -9.48413 -16.1185 19.6838 -9.48413 -14.3875 
27.9762 -9.48413 -15.7358 36.2686 -9.48413 -16.4831 44.561 -9.48413 -16.2307 
52.8533 -9.48413 -14.7372 -54.9476 -1.19174 -12.435 -46.6552 -1.19174 -15.2865 
-38.3629 -1.19174 -16.8178 -30.0705 -1.19174 -16.366 -21.7781 -1.19174 -14.8735 
-13.4857 -1.19174 -15.8726 -5.19333 -1.19174 -17.1674 3.09905 6.60084 -20.6127 
3.09905 -1.19174 -14.9264 11.3914 -1.19174 -19.1863 19.6838 -1.19174 -16.2994 
27.9762 -1.19174 -17.3188 36.2686 -1.19174 -17.8339 44.561 -1.19174 -17.388 
52.8533 -1.19174 -15.6747 -54.9476 7.10064 -13.2806 -46.6552 7.10064 -16.1832 
-38.3629 7.10064 -17.574 -30.0705 7.10064 -17.4396 -21.7781 7.10064 -16.6366 
-13.4857 7.10064 -16.2935 2.48002 7.10064 -20.6127 -5.19333 7.10064 -17.0418 
3.79998 7.10064 -20.6127 3.09905 7.67661 -20.6127 11.3914 7.10064 -17.1205 
19.6838 7.10064 -16.87 27.9762 7.10064 -18.0125 36.2686 7.10064 -18.1799 
44.561 7.10064 -17.1452 52.8533 7.10064 -13.9955 -54.9476 15.393 -13.2897 
-46.6552 15.393 -16.5245 -38.3629 15.393 -18.201 -30.0705 15.393 -18.597 
-21.7781 15.393 -18.3638 -13.4857 15.393 -17.4001 -5.19333 15.393 -16.6204 
3.09905 15.393 -16.8557 11.3914 15.393 -16.2306 19.6838 15.393 -17.602 
27.9762 15.393 -18.1697 36.2686 15.393 -17.7202 44.561 15.393 -15.856 
-54.9476 23.6854 -13.181 -46.6552 23.6854 -15.9342 -38.3629 23.6854 -18.6973 
-30.0705 23.6854 -18.9089 -21.7781 23.6854 -18.8653 -13.4857 23.6854 -18.8673 
-5.19333 23.6854 -17.9289 3.09905 23.6854 -17.0457 11.3914 23.6854 -17.6459 
19.6838 23.6854 -18.2914 27.9762 23.6854 -18.5897 36.2686 23.6854 -17.5247 
44.561 23.6854 -12.5801 -38.3629 31.9778 -15.7131 -30.0705 31.9778 -18.0916 
-21.7781 31.9778 -18.2269 -13.4857 31.9778 -19.1559 -5.19333 31.9778 -18.3959 
3.09905 31.9778 -17.8601 11.3914 31.9778 -18.4767 19.6838 31.9778 -18.4681 
27.9762 31.9778 -19.0456 36.2686 31.9778 -15.9556 -30.0705 40.2702 -12.4472 
-21.7781 40.2702 -15.4202 -13.4857 40.2702 -17.0617 -5.19333 40.2702 -17.1557 
3.09905 40.2702 -17.2577 11.3914 40.2702 -18.2985 19.6838 40.2702 -17.4087 
27.9762 40.2702 -16.1173 -5.19333 48.5625 -12.499 3.09905 48.5625 -13.8497 
11.3914 48.5625 -13.9647 19.6838 48.5625 -13.2431 -21.7781 -43.5364 -12.3203 
-13.4857 -44.647 -12.3203 -23.4514 -42.6536 -12.3203 -30.0705 -39.0101 -12.3203 
-30.0705 -42.6536 -9.53243 -6.24194 -42.6536 -12.3203 -5.19333 -42.2 -12.3203 
-5.19333 -42.6536 -12.1148 3.09905 -38.4098 -12.3203 3.09905 -42.6536 -10.0923 
11.3914 -37.413 -12.3203 11.3914 -42.6536 -9.12464 19.6838 -36.0707 -12.3203 
19.6838 -42.6536 -8.65297 27.9762 -36.8773 -12.3203 27.9762 -42.6536 -8.95398 
-35.4377 -34.3613 -12.3203 -38.3629 -31.0465 -12.3203 -38.3629 -34.3613 -10.5006 
31.1359 -34.3613 -12.3203 36.2686 -31.5473 -12.3203 36.2686 -34.3613 -10.8699 
44.561 -34.3613 -8.90694 -42.5231 -26.0689 -12.3203 -46.6552 -19.956 -12.3203 
-46.6552 -26.0689 -9.5066 43.6151 -26.0689 -12.3203 44.561 -25.3199 -12.3203 
44.561 -26.0689 -11.9963 52.8533 -26.0689 -9.64486 -48.5212 -17.7765 -12.3203 
-54.9476 -17.7765 -7.86767 52.4899 -17.7765 -12.3203 52.8533 -17.2132 -12.3203 
52.8533 -17.7765 -12.1604 61.1457 -17.7765 -7.27865 -52.2734 -9.48413 -12.3203 
-54.9476 -1.69176 -12.3203 -54.9476 -9.48413 -10.4408 58.1336 -9.48413 -12.3203 
61.1457 -9.48413 -10.3411 -55.1226 -1.19174 -12.3203 58.2729 -1.19174 -12.3203 
61.1457 -1.19174 -9.17085 -56.3728 7.10064 -12.3203 55.0935 7.10064 -12.3203 
52.8533 10.9636 -12.3203 -56.2241 15.393 -12.3203 50.3578 15.393 -12.3203 
52.8533 15.393 -8.54783 -55.9032 23.6854 -12.3203 -54.9476 25.0117 -12.3203 
-46.6552 31.6879 -12.3203 44.8529 23.6854 -12.3203 44.561 24.2245 -12.3203 
-46.316 31.9778 -12.3203 -46.6552 31.9778 -11.8865 -38.3629 37.228 -12.3203 
40.7492 31.9778 -12.3203 36.2686 38.5697 -12.3203 -30.49 40.2702 -12.3203 
-30.0705 40.3965 -12.3203 -21.7781 43.5479 -12.3203 -13.4857 46.0105 -12.3203 
34.6791 40.2702 -12.3203 27.9762 46.0536 -12.3203 36.2686 40.2702 -8.97085 
-5.84026 48.5625 -12.3203 -5.19333 48.7464 -12.3203 3.09905 50.5016 -12.3203 
11.3914 50.7943 -12.3203 21.9359 48.5625 -12.3203 19.6838 49.4298 -12.3203 
27.9762 48.5625 -7.46323 -30.0705 -47.7106 -4.02793 -21.7781 -50.5889 -4.02793 
-13.4857 -50.7755 -4.02793 -5.19333 -49.2131 -4.02793 3.09905 -47.1763 -4.02793 
11.3914 -46.3194 -4.02793 19.6838 -46.3617 -4.02793 27.9762 -45.3787 -4.02793 
-37.8562 -42.6536 -4.02793 -38.3629 -42.2442 -4.02793 -38.3629 -42.6536 -0.575355 
35.7825 -42.6536 -4.02793 36.2686 -42.4333 -4.02793 44.561 -38.1096 -4.02793 
-46.2752 -34.3613 -4.02793 -46.6552 -33.9005 -4.02793 49.8057 -34.3613 -4.02793 
52.8533 -31.1114 -4.02793 -51.7363 -26.0689 -4.02793 -54.9476 -21.6117 -4.02793 
57.367 -26.0689 -4.02793 61.1457 -21.5918 -4.02793 -57.2266 -17.7765 -4.02793 
63.1644 -17.7765 -4.02793 -60.6693 -9.48413 -4.02793 65.0873 -9.48413 -4.02793 
-62.7101 -1.19174 -4.02793 63.4714 -1.19174 -4.02793 61.1457 4.41872 -4.02793 
-63.1564 7.10064 -4.02793 59.8877 7.10064 -4.02793 -62.3045 15.393 -4.02793 
54.9114 15.393 -4.02793 52.8533 18.0322 -4.02793 -58.3872 23.6854 -4.02793 
-54.9476 28.0723 -4.02793 -54.9476 23.6854 3.30681 48.3446 23.6854 -4.02793 
44.561 29.6271 -4.02793 -50.5906 31.9778 -4.02793 -46.6552 34.8699 -4.02793 
-46.6552 31.9778 3.2581 -38.3629 39.9588 -4.02793 43.0445 31.9778 -4.02793 
-37.4252 40.2702 -4.02793 -30.0705 42.5466 -4.02793 -30.0705 40.2702 1.01297 
-21.7781 45.1358 -4.02793 -13.4857 48.1503 -4.02793 37.9826 40.2702 -4.02793 
36.2686 42.427 -4.02793 36.2686 40.2702 1.17528 -12.4265 48.5625 -4.02793 
-5.19333 51.3258 -4.02793 -5.19333 48.5625 3.652 3.09905 53.6336 -4.02793 
11.3914 54.3852 -4.02793 19.6838 53.377 -4.02793 29.9298 48.5625 -4.02793 
27.9762 49.9689 -4.02793 27.9762 48.5625 0.0965195 -38.3629 -43.0607 4.26445 
-30.0705 -48.0543 4.26445 -21.7781 -50.3132 4.26445 -13.4857 -49.8018 4.26445 
-5.19333 -47.8288 4.26445 3.09905 -45.8589 4.26445 11.3914 -45.3936 4.26445 
19.6838 -45.3407 4.26445 27.9762 -43.9077 4.26445 -38.8317 -42.6536 4.26445 
-38.3629 -42.6536 5.1196 -5.19333 -42.6536 10.4757 3.09905 -42.6536 8.38275 
11.3914 -42.6536 7.67465 19.6838 -42.6536 7.9452 31.6206 -42.6536 4.26445 
27.9762 -42.6536 5.87662 36.2686 -40.1009 4.26445 44.561 -36.4677 4.26445 
-46.6339 -34.3613 4.26445 -46.6552 -34.3284 4.26445 19.6838 -34.3613 11.9827 
27.9762 -34.3613 10.9263 36.2686 -34.3613 10.2422 47.5854 -34.3613 4.26445 
44.561 -34.3613 6.51152 52.8533 -30.2276 4.26445 -51.5668 -26.0689 4.26445 
-54.9476 -20.3024 4.26445 -46.6552 -26.0689 9.58046 44.561 -26.0689 10.5789 
56.8842 -26.0689 4.26445 52.8533 -26.0689 8.23712 61.1457 -20.033 4.26445 
-56.1621 -17.7765 4.26445 -54.9476 -17.7765 5.88439 -46.6552 -17.7765 12.1112 
62.4076 -17.7765 4.26445 61.1457 -17.7765 5.94314 -58.269 -9.48413 4.26445 
-54.9476 -9.48413 8.24722 63.9414 -9.48413 4.26445 61.1457 -9.48413 8.04025 
-59.9819 -1.19174 4.26445 -54.9476 -1.19174 9.93247 62.4291 -1.19174 4.26445 
61.1457 1.74557 4.26445 61.1457 -1.19174 6.21658 -59.6221 7.10064 4.26445 
-54.9476 7.10064 8.94769 58.2382 7.10064 4.26445 52.8533 7.10064 11.1405 
-58.6773 15.393 4.26445 -54.9476 22.7367 4.26445 -54.9476 15.393 7.66745 
-46.6552 15.393 11.061 53.2804 15.393 4.26445 52.8533 15.9261 4.26445 
52.8533 15.393 4.92413 -53.9365 23.6854 4.26445 -46.6552 31.1017 4.26445 
-46.6552 23.6854 8.28695 -38.3629 23.6854 11.0949 46.2652 23.6854 4.26445 
44.561 26.2302 4.26445 44.561 23.6854 7.10634 -45.1494 31.9778 4.26445 
-38.3629 34.4578 4.26445 -38.3629 31.9778 6.47455 -30.0705 38.2045 4.26445 
-30.0705 31.9778 9.34729 -21.7781 31.9778 11.8817 40.8839 31.9778 4.26445 
36.2686 38.8541 4.26445 36.2686 31.9778 11.0111 -25.3403 40.2702 4.26445 
-21.7781 41.4629 4.26445 -21.7781 40.2702 5.61889 -13.4857 44.0716 4.26445 
-13.4857 40.2702 8.30624 -5.19333 48.2322 4.26445 -5.19333 40.2702 11.4041 
34.9853 40.2702 4.26445 27.9762 46.783 4.26445 27.9762 40.2702 10.6078 
-4.13353 48.5625 4.26445 3.09905 50.3676 4.26445 3.09905 48.5625 6.34537 
11.3914 51.161 4.26445 11.3914 48.5625 7.84112 25.0753 48.5625 4.26445 
19.6838 50.8963 4.26445 19.6838 48.5625 7.36886 -30.0705 -42.7061 12.5568 
-21.7781 -44.7334 12.5568 -13.4857 -43.5102 12.5568 -30.1735 -42.6536 12.5568 
-38.3629 -35.6783 12.5568 -30.0705 -42.6536 12.6066 -21.7781 -42.6536 14.3674 
-11.0432 -42.6536 12.5568 -13.4857 -42.6536 13.2917 -5.19333 -40.2041 12.5568 
3.09905 -37.6435 12.5568 11.3914 -36.0223 12.5568 -39.4489 -34.3613 12.5568 
-38.3629 -34.3613 13.252 -30.0705 -34.3613 18.2238 -21.7781 -34.3613 19.9761 
-13.4857 -34.3613 19.405 -5.19333 -34.3613 16.8111 3.09905 -34.3613 14.6212 
16.6322 -34.3613 12.5568 11.3914 -34.3613 13.5109 19.6838 -32.8454 12.5568 
27.9762 -29.5671 12.5568 36.2686 -29.247 12.5568 -43.4185 -26.0689 12.5568 
-38.3629 -26.0689 16.44 -30.0705 -26.0689 19.5834 -5.19333 -26.0689 20.6365 
3.09905 -26.0689 18.0915 11.3914 -26.0689 16.6427 19.6838 -26.0689 14.9894 
[...]
POINT_DATA 528
SCALARS ImageScalars float
LOOKUP_TABLE default
0 0 0 0 0 0 0 0 0 
0 0 0 0 0 0 0 0 0 
0 0 0 0 0 0 0 0 0 
0 0 0 0 0 0 0 0 0 
0 0 0 0 0 0 0 0 0 
0 0 0 0 0 0 0 0 0 
0 0 0 0 0 0 0 0 0 
0 0 0 0 0 0 0 0 0 
0 0 0 0 0 0 0 0 0 
0 0 0 0 0 0 0 0 0 
0 0 0 0 0 0 0 0 0 
0 0 0 0 0 0 0 0 0 
0 0 0 0 0 0 0 0 0 
0 0 0 0 0 0 0 0 0 
0 0 0 0 0 0 0 0 0 
0 0 0 0 0 0 0 0 0 
0 0 0 0 0 0 0 0 0 
0 0 0 0 0 0 0 0 0 
0 0 0 0 0 0 0 0 0 
0 0 0 0 0 0 0 0 0 
0 0 0 0 0 0 0 0 0 
0 0 0 0 0 0 0 0 0 
0 0 0 0 0 0 0 0 0 
0 0 0 0 0 0 0 0 0 
0 0 0 0 0 0 0 0 0 
0 0 0 0 0 0 0 0 0 
0 0 0 0 0 0 0 0 0 
0 0 0 0 0 0 0 0 0 
0 0 0 0 0 0 0 0 0 
0 0 0 0 0 0 0 0 0 
0 0 0 0 0 0 0 0 0 
0 0 0 0 0 0 0 0 0 
0 0 0 0 0 0 0 0 0 
0 0 0 0 0 0 0 0 0 
0 0 0 0 0 0 0 0 0 
0 0 0 0 0 0 0 0 0 
0 0 0 0 0 0 0 0 0 
0 0 0 0 0 0 0 0 0 
0 0 0 0 0 0 0 0 0 
0 0 0 0 0 0 0 0 0 
0 0 0 0 0 0 0 0 0 
0 0 0 0 0 0 0 0 0 
0 0 0 0 0 0 0 0 0 
0 0 0 0 0 0 0 0 0 
0 0 0 0 0 0 0 0 0 
0 0 0 0 0 0 0 0 0 
0 0 0 0 0 0 0 0 0 
0 0 0 0 0 0 0 0 0 
0 0 0 0 0 0 0 0 0 
0 0 0 0 0 0 0 0 0 
0 0 0 0 0 0 0 0 0 
0 0 0 0 0 0 0 0 0 
0 0 0 0 0 0 0 0 0 
0 0 0 0 0 0 0 0 0 
0 0 0 0 0 0 0 0 0 
0 0 0 0 0 0 0 0 0 
0 0 0 0 0 0 0 0 0 
0 0 0 0 0 0 0 0 0 
0 0 0 0 0 0 
NORMALS Normals float
-0.0265119 -0.0379588 -0.998928 -0.18699 -0.465781 -0.864918 0.0461683 -0.421526 -0.90564 
-0.242755 -0.28721 -0.926596 -0.0822086 -0.173058 -0.981475 0.03832 -0.177681 -0.983342 
0.112094 -0.1664 -0.979666 0.0851462 -0.229529 -0.96957 0.0502375 -0.256049 -0.965357 
0.017095 -0.280341 -0.959748 0.130824 -0.25643 -0.957668 -0.298889 -0.222965 -0.927875 
-0.129324 -0.0867132 -0.987804 -0.0348722 -0.0176279 -0.999236 0.0667381 0.0261826 -0.997427 
0.109553 0.0247383 -0.993673 0.026068 -0.0617479 -0.997751 0.0129102 -0.047266 -0.998799 
0.0290248 -0.0820588 -0.996205 -0.00764774 -0.0613149 -0.998089 0.108075 -0.216746 -0.970227 
-0.324571 -0.300894 -0.896726 -0.142564 -0.122758 -0.982144 -0.0444524 -0.00757704 -0.998983 
0.0342365 0.0610094 -0.99755 0.0853264 0.0980567 -0.991516 0.0122701 -0.0123399 -0.999849 
0.00752092 -0.190837 -0.981593 0.0321565 -0.0462719 -0.998411 -0.00245242 -0.00142986 -0.999996 
-0.0400494 -0.088549 -0.995266 -0.0962703 -0.1299 -0.986842 0.149725 -0.221874 -0.963511 
-0.283443 -0.0986838 -0.953898 -0.0632748 -0.103698 -0.992594 0.0594697 -0.0258945 -0.997894 
0.0687041 0.0622035 -0.995696 -0.0140391 -0.0175354 -0.999748 -0.193034 -0.152483 -0.969271 
-0.0463133 -0.046314 -0.997853 0.238752 -0.306456 -0.921456 -0.0146291 -0.105058 -0.994358 
-0.125394 -0.172677 -0.976964 -0.0295321 -0.156289 -0.98727 0.0922734 -0.0691221 -0.993332 
0.312665 -0.182218 -0.932222 -0.468044 -0.143021 -0.872055 -0.237556 -0.0662604 -0.969111 
-0.0596872 -0.0749105 -0.995402 0.111508 -0.0889551 -0.989774 0.0491724 -0.0881125 -0.994896 
-0.139269 -0.103091 -0.984874 0.0474603 -0.0887762 -0.99492 -0.0314132 -0.0477249 -0.998366 
-0.143334 -0.146534 -0.978766 -0.0115187 -0.023577 -0.999656 0.0870282 -0.150551 -0.984764 
-0.0896931 -0.136503 -0.986571 -0.0048731 -0.101278 -0.994846 0.109954 -0.0560246 -0.992356 
0.392137 0.0318643 -0.919355 -0.482915 -0.0469184 -0.87441 -0.213103 -0.0708565 -0.974457 
-0.0727633 -0.0876735 -0.993488 0.0560881 -0.135067 -0.989248 0.0686163 -0.197157 -0.977968 
-0.0190887 -0.0820177 -0.996448 -0.0483264 -0.0290374 -0.998409 -0.247503 0.0325456 -0.96834 
-0.00146171 -0.0181499 -0.999834 -0.0238318 -0.0168647 -0.999574 0.219982 0.17553 -0.959582 
-0.0579093 -0.0740068 -0.995575 -0.0784714 -0.050842 -0.995619 0.0485129 0.00655558 -0.998801 
0.215777 0.0927592 -0.972027 0.524666 0.275492 -0.805499 -0.540144 0.00692821 -0.841544 
-0.248745 0.0176211 -0.968409 -0.117895 -0.0624288 -0.991062 -0.010764 -0.0907074 -0.995819 
0.0696816 -0.135901 -0.988269 0.101903 -0.152113 -0.983096 0.0322993 -0.0585275 -0.997763 
0.0233318 0.196988 -0.980128 -0.0439464 -0.0458613 -0.997981 -0.11414 -0.0885533 -0.98951 
-0.00453734 -0.0344179 -0.999397 0.136127 0.0381833 -0.989955 0.391214 0.244478 -0.887233 
-0.629906 0.334836 -0.700787 -0.320932 0.198712 -0.926022 -0.205559 0.154266 -0.96641 
-0.00865111 0.0225391 -0.999709 0.00246295 0.00826037 -0.999963 0.0579438 -0.102099 -0.993085 
0.105018 -0.102031 -0.989222 0.0171955 -0.0603705 -0.998028 -0.0758492 -0.12941 -0.988686 
-0.0564508 -0.0484116 -0.997231 0.0397638 -0.0505247 -0.997931 0.30825 0.105134 -0.945478 
0.661906 0.409271 -0.627995 -0.29311 0.440671 -0.848466 -0.150334 0.329172 -0.932226 
-0.0634515 0.193207 -0.979104 -0.00853246 0.0912122 -0.995795 0.0758828 0.0464666 -0.996033 
-0.00446886 -0.010754 -0.999932 -0.03704 -0.0409499 -0.998474 -0.030283 0.0464961 -0.998459 
0.139609 0.144767 -0.979567 0.513277 0.302452 -0.803162 -0.304794 0.756807 -0.578225 
-0.258199 0.592376 -0.763167 -0.098956 0.465236 -0.879638 -0.0115224 0.31509 -0.948992 
-0.0607305 0.217823 -0.974097 -0.0182286 0.250823 -0.967861 0.135169 0.247591 -0.959389 
0.280669 0.414008 -0.865923 -0.205633 0.749656 -0.629072 -0.0817087 0.620329 -0.780074 
0.0235215 0.589372 -0.807519 0.203464 0.672386 -0.711688 -0.193034 -0.505404 -0.841014 
0.0415275 -0.518846 -0.853858 -0.219004 -0.486993 -0.845503 -0.286584 -0.436037 -0.853077 
-0.367525 -0.62504 -0.688659 0.15227 -0.465871 -0.871652 0.167428 -0.45487 -0.874678 
0.171248 -0.481418 -0.859599 0.106708 -0.372262 -0.921973 0.146664 -0.635276 -0.758231 
0.0627519 -0.392026 -0.917811 0.0775853 -0.760115 -0.64514 0.0160176 -0.34737 -0.937591 
0.00943193 -0.755603 -0.654962 0.131609 -0.378629 -0.916144 0.175901 -0.767084 -0.616961 
-0.382104 -0.363473 -0.849638 -0.39549 -0.330887 -0.856797 -0.493291 -0.444616 -0.74765 
0.158397 -0.335269 -0.928712 0.161064 -0.371037 -0.914544 0.212622 -0.503086 -0.837673 
0.415442 -0.620235 -0.665369 -0.415718 -0.290602 -0.861817 -0.378102 -0.325588 -0.866621 
-0.607925 -0.420653 -0.673408 0.217564 -0.313578 -0.924302 0.227315 -0.31987 -0.919788 
0.240364 -0.333198 -0.911704 0.524549 -0.488376 -0.697379 -0.390474 -0.314808 -0.865116 
-0.767021 -0.402687 -0.499521 0.375076 -0.207406 -0.903494 0.377119 -0.201919 -0.903886 
0.387148 -0.210598 -0.897644 0.782511 -0.380928 -0.492515 -0.484603 -0.14621 -0.862429 
-0.475159 -0.143261 -0.868159 -0.647416 -0.197367 -0.736138 0.505525 -0.124682 -0.853755 
0.711348 -0.0831739 -0.697901 -0.474617 -0.143181 -0.868468 0.616124 0.115128 -0.77919 
0.827899 0.211532 -0.519459 -0.534644 -0.0390153 -0.844176 0.619187 0.318723 -0.717651 
0.626972 0.357041 -0.692407 -0.586425 0.0248152 -0.809623 0.629452 0.391885 -0.670982 
0.761203 0.5213 -0.385766 -0.695019 0.342337 -0.632261 -0.66099 0.38839 -0.642063 
-0.517649 0.626297 -0.582917 0.67063 0.418796 -0.612263 0.677694 0.415466 -0.606728 
-0.516248 0.632545 -0.577385 -0.531211 0.654013 -0.538593 -0.364195 0.725274 -0.584243 
0.734893 0.399137 -0.54829 0.6505 0.534644 -0.539449 -0.309887 0.763049 -0.567209 
-0.307304 0.762323 -0.569586 -0.287651 0.80333 -0.521457 -0.250004 0.783812 -0.568451 
0.605125 0.561243 -0.564651 0.384641 0.671129 -0.633748 0.744303 0.595193 -0.302916 
-0.2139 0.761619 -0.611705 -0.209693 0.757689 -0.61801 -0.110746 0.710056 -0.695382 
0.0500364 0.676647 -0.734605 0.274595 0.711753 -0.646534 0.225288 0.709794 -0.667411 
0.491989 0.836319 -0.241904 -0.438175 -0.847229 -0.300342 -0.14733 -0.962012 -0.229841 
0.079802 -0.984999 -0.152996 0.218441 -0.960639 -0.171628 0.175866 -0.963118 -0.203656 
0.0535266 -0.966189 -0.252219 0.0594927 -0.960583 -0.271553 0.238299 -0.952683 -0.188702 
-0.611481 -0.73298 -0.298046 -0.620242 -0.725646 -0.297888 -0.642734 -0.759697 -0.0987656 
0.404932 -0.891527 -0.203 0.411996 -0.887508 -0.206371 0.523499 -0.824919 -0.213209 
-0.71705 -0.626542 -0.305426 -0.721946 -0.622701 -0.301724 0.617628 -0.753058 -0.226802 
0.676241 -0.696093 -0.241147 -0.781981 -0.553075 -0.287426 -0.831837 -0.506001 -0.228059 
0.738728 -0.62089 -0.262254 0.833782 -0.489425 -0.255484 -0.870861 -0.447775 -0.202727 
0.898134 -0.36359 -0.247303 -0.929016 -0.318503 -0.188377 0.976969 -0.0157466 -0.212797 
-0.979688 -0.141952 -0.141639 0.951013 0.271696 -0.147498 0.898893 0.424901 -0.10701 
-0.997175 0.0245099 -0.0710033 0.868174 0.487058 -0.0951183 -0.960728 0.276354 -0.0250945 
0.80277 0.58792 -0.0995534 0.801815 0.591775 -0.0830366 -0.846521 0.529426 0.0557742 
-0.75285 0.653232 0.0806548 -0.62652 0.547835 0.554391 0.82945 0.556534 -0.0477725 
0.854398 0.51937 -0.0160919 -0.630439 0.774872 0.0460431 -0.549491 0.834092 0.0484802 
-0.484598 0.684455 0.544689 -0.394827 0.912995 0.102718 0.856758 0.515719 0.000328779 
-0.382313 0.918474 0.101201 -0.31583 0.943797 0.0974651 -0.302634 0.865819 0.398459 
-0.322854 0.939699 0.112833 -0.34775 0.932748 0.0951382 0.816687 0.577056 0.00535668 
0.78328 0.621661 0.00315883 0.757393 0.599722 0.258243 -0.343555 0.935063 0.0873348 
-0.314006 0.948573 0.040128 -0.302443 0.815413 0.493589 -0.190305 0.981395 0.025438 
0.0172635 0.999778 0.0121151 0.23184 0.972343 -0.0282616 0.572384 0.819855 -0.0146312 
0.517802 0.855309 -0.0180957 0.523893 0.823066 0.219311 -0.630455 -0.758019 0.167133 
-0.376222 -0.900399 0.218492 -0.0955854 -0.960055 0.26298 0.128762 -0.935303 0.329588 
0.21277 -0.893082 0.3964 0.131132 -0.902853 0.409464 0.0294506 -0.911019 0.411312 
0.0924 -0.898902 0.428297 0.252079 -0.850752 0.461168 -0.641043 -0.749064 0.167235 
-0.631519 -0.746404 0.209916 0.21363 -0.704945 0.676324 0.124731 -0.765324 0.631444 
0.018749 -0.800626 0.598871 0.0887687 -0.745776 0.660256 0.325252 -0.814884 0.479766 
0.262412 -0.789329 0.555068 0.396823 -0.767085 0.504096 0.453883 -0.775567 0.438733 
-0.783995 -0.581372 0.217617 -0.784218 -0.580873 0.218147 0.152698 -0.362394 0.919431 
0.087125 -0.425881 0.900574 0.233208 -0.564041 0.792131 0.492411 -0.731511 0.471617 
0.448209 -0.626519 0.637638 0.600419 -0.68612 0.410775 -0.814956 -0.479412 0.325593 
-0.841208 -0.380595 0.384078 -0.708983 -0.297722 0.6393 0.282747 -0.475837 0.832847 
0.695652 -0.597447 0.398906 0.49729 -0.595469 0.630967 0.800131 -0.433188 0.414897 
-0.849828 -0.327514 0.412949 -0.804859 -0.310575 0.505713 -0.519468 -0.180636 0.835179 
0.845247 -0.362629 0.392502 0.789318 -0.374286 0.486711 -0.842843 -0.207661 0.49648 
-0.711151 -0.173707 0.681241 0.910707 -0.00110699 0.413052 0.781569 -0.0228477 0.623401 
-0.837847 -0.0697181 0.541434 -0.612594 -0.0244687 0.790019 0.882847 0.287837 0.371121 
0.856566 0.370821 0.358869 0.838566 0.271742 0.47219 -0.789642 0.0693519 0.609636 
-0.60228 0.114235 0.790069 0.806005 0.476991 0.350478 0.652055 0.345927 0.674655 
-0.752154 0.266527 0.602684 -0.602306 0.50299 0.619862 -0.559704 0.259392 0.78705 
-0.333959 0.217207 0.91722 0.746034 0.564742 0.352847 0.7441 0.567789 0.352038 
0.738168 0.558062 0.379044 -0.572134 0.527472 0.628041 -0.456096 0.630654 0.627895 
-0.383107 0.407506 0.828956 -0.24263 0.353398 0.90346 0.769126 0.544329 0.334889 
0.783321 0.519991 0.340613 0.751407 0.509689 0.419052 -0.431002 0.645904 0.630115 
-0.320804 0.655895 0.683291 -0.288252 0.589487 0.754596 -0.290203 0.725709 0.623801 
-0.254204 0.52218 0.814069 -0.258219 0.488784 0.833314 0.786569 0.504667 0.355836 
0.710359 0.57524 0.405573 0.630238 0.509919 0.585476 -0.270966 0.760991 0.589466 
-0.265433 0.767177 0.583939 -0.257326 0.735734 0.626481 -0.309924 0.744436 0.591407 
-0.25978 0.669481 0.695923 -0.298224 0.791871 0.53292 -0.222903 0.585392 0.779506 
0.676482 0.596443 0.432005 0.498219 0.722508 0.479333 0.420479 0.591716 0.6878 
-0.280009 0.798384 0.533084 -0.159367 0.818816 0.55149 -0.158768 0.767858 0.620634 
-0.0257157 0.848399 0.528732 -0.0462024 0.761728 0.646247 0.392462 0.784396 0.480309 
0.197621 0.853794 0.481645 0.201826 0.769281 0.606195 -0.281188 -0.672031 0.68506 
-0.0369357 -0.714647 0.69851 0.174319 -0.668071 0.723391 -0.284453 -0.670696 0.68502 
-0.540288 -0.431617 0.722354 -0.280618 -0.670184 0.6871 -0.0279663 -0.657794 0.752678 
0.185996 -0.653131 0.734047 0.171807 -0.648604 0.741482 0.217136 -0.615587 0.757565 
0.14203 -0.544021 0.826964 0.118722 -0.486763 0.865429 -0.55694 -0.395237 0.730483 
-0.529776 -0.384694 0.755876 -0.340122 -0.335951 0.878325 -0.0607527 -0.399316 0.914798 
0.155679 -0.464162 0.871962 0.247145 -0.478662 0.842498 0.165605 -0.465344 0.8695 
0.14809 -0.384295 0.911256 0.140281 -0.433529 0.890154 0.156138 -0.335879 0.928874 
0.0717366 -0.343688 0.93634 0.183837 -0.387616 0.903304 -0.601151 -0.203522 0.772785 
-0.48526 -0.165243 0.858614 -0.303187 -0.0460059 0.95182 0.238896 -0.290826 0.926471 
0.21942 -0.293159 0.930544 0.173516 -0.273049 0.946222 0.159644 -0.293021 0.942684 
0.0927248 -0.313539 0.945037 0.206469 -0.352979 0.912566 0.168948 -0.313446 0.934456 
0.213753 -0.408802 0.887238 0.426837 -0.353254 0.832479 -0.496638 -0.158951 0.853279 
-0.461388 -0.142742 0.87564 -0.360015 0.029695 0.932474 -0.276569 0.0949674 0.95629 
0.234393 -0.144372 0.961362 0.137707 -0.205496 0.968921 0.102424 -0.312314 0.944441 
0.0631138 -0.339795 0.938379 0.104879 -0.334439 0.936563 0.158544 -0.322593 0.933165 
0.496272 -0.283564 0.820552 0.416819 -0.275414 0.866262 -0.420905 -0.101098 0.901453 
-0.36574 -0.0694796 0.92812 -0.281868 0.0421511 0.958527 -0.226699 0.0794047 0.970723 
-0.213498 0.0544617 0.975424 0.147982 -0.141883 0.97876 0.0138713 -0.0592598 0.998146 
0.0238453 -0.153076 0.987927 0.0830145 -0.239698 0.967292 0.156453 -0.214102 0.964201 
0.285384 -0.16975 0.943261 0.493765 0.00983464 0.86954 0.445842 0.0102207 0.895053 
-0.39546 0.0118138 0.918407 -0.301726 0.0201612 0.953181 -0.253578 0.0333628 0.966739 
-0.271604 0.0360325 0.961734 -0.237928 -0.0525904 0.969858 0.115911 0.077271 0.990249 
-0.0815163 0.0193738 0.996484 0.0190297 -0.0610534 0.997953 0.168174 -0.0730883 0.983044 
0.338107 -0.00160804 0.941106 0.572747 0.118497 0.811122 0.585825 0.215723 0.781199 
0.535424 0.102209 0.838376 -0.352353 0.159166 0.922233 -0.326757 0.165313 0.930538 
-0.328071 0.153663 0.932071 -0.247705 0.126183 0.960583 -0.300731 0.136304 0.943918 
-0.194883 0.136917 0.971223 0.100777 0.134412 0.985788 -0.108885 0.0421453 0.99316 
0.142472 -0.0607131 0.987935 -0.114269 -0.0566715 0.991832 -0.0126691 -0.0230933 0.999653 
0.203654 0.0428314 0.978105 0.596852 0.303947 0.742552 0.440148 0.18119 0.879454 
-0.277778 0.22069 0.934952 -0.238029 0.274925 0.931535 -0.244724 0.230081 0.941899 
-0.240235 0.237781 0.941142 -0.237197 0.280453 0.930099 -0.118835 0.14615 0.982099 
-0.0964521 -0.0246731 0.995032 -0.0102224 -0.0542601 0.998474 0.363866 0.189565 0.911958 
0.631774 0.40515 0.660844 0.650366 0.415147 0.636142 0.606545 0.370322 0.703537 
-0.240374 0.319817 0.916481 -0.243887 0.340118 0.908207 -0.244909 0.312861 0.91768 
-0.263505 0.456623 0.849741 -0.281002 0.320258 0.904695 -0.210907 0.260164 0.942249 
-0.0754018 0.196904 0.977519 -0.0184988 0.233527 0.972174 -0.0883514 0.143242 0.985736 
0.220194 0.244654 0.944277 0.658935 0.447689 0.604466 0.59836 0.489116 0.63461 
0.515598 0.371558 0.772077 -0.254865 0.486328 0.83578 -0.253943 0.544786 0.799201 
-0.24389 0.482946 0.841 -0.200786 0.550781 0.810139 -0.128935 0.428992 0.894059 
-0.0706904 0.346702 0.935308 -0.0553021 0.317302 0.946711 0.0659808 0.387775 0.919389 
0.552613 0.509427 0.659624 0.376326 0.55733 0.740109 0.302766 0.464029 0.832472 
-0.155358 0.534932 0.830489 -0.129224 0.527006 0.83998 -0.122856 0.507809 0.852664 
-0.0415216 0.540463 0.840343 -0.0395124 0.47084 0.881333 0.260501 0.548966 0.794214 
0.162836 0.551314 0.818252 0.144949 0.510919 0.84732 -0.0995373 -0.265589 0.958934 
0.116657 -0.32843 0.937297 -0.220592 -0.0571512 0.97369 -0.148734 -0.0720463 0.986249 
0.2188 -0.276728 0.935707 0.0780176 -0.184058 0.979814 0.232044 -0.270468 0.934346 
-0.223472 0.120598 0.967221 -0.212156 0.101255 0.971976 -0.207174 0.125815 0.97018 
-0.0621712 0.0351032 0.997448 0.213708 -0.132926 0.967812 0.169632 -0.112888 0.979021 
-0.186905 0.0629362 0.98036 -0.163476 0.0712945 0.983968 0.13737 -0.115428 0.983771 
0.0548545 0.085128 0.994859 0.139861 -0.140829 0.980105 -0.168333 -0.0187053 0.985553 
0.085787 0.124571 0.988495 -0.0237801 0.0503179 0.99845 -0.0413719 0.212748 0.976231 
-0.0390736 0.2168 0.975434 0.106608 -0.0251137 0.993984 0.0940919 -0.123625 0.987858 
-0.058384 0.0632849 0.996286 0.0890418 0.012273 0.995952 0.014873 0.0788025 0.996779 
-0.0727387 -0.0590611 0.995601 0.00642477 -0.0124101 0.999902 -0.0307786 0.137197 0.990065 
-0.0104314 0.117532 0.993014 -0.0108869 0.193937 0.980954 -0.00974684 0.187691 0.98218 
-0.0336688 -0.0569842 0.997807 -0.0519544 -0.0604046 0.996821 0.154648 0.0705291 0.985449 
0.143314 0.0984374 0.98477 0.117032 0.0497706 0.99188 -0.0217579 0.182984 0.982875 
0.0284302 0.198908 0.979606 -0.0057661 0.202542 0.979257 -0.00957885 0.189349 0.981863 

