# vtk DataFile Version 4.2
vtk output
ASCII
DATASET POLYDATA
POINTS 544 float
-35.67 -29.2551 -16.5145 -27.4281 -29.2551 -17.9618 -19.1862 -29.2551 -17.9316 
-10.9443 -29.2551 -18.0734 -2.70236 -29.2551 -18.0458 5.53956 -29.2551 -17.6896 
13.7815 -29.2551 -17.7929 22.0234 -29.2551 -17.2947 30.2653 -29.2551 -16.7433 
-43.912 -21.0132 -17.0608 -35.67 -21.0132 -17.8196 -27.4281 -21.0132 -18.7546 
-19.1862 -21.0132 -18.2427 -10.9443 -21.0132 -18.5224 -2.70236 -21.0132 -18.8348 
5.53956 -21.0132 -18.536 13.7815 -21.0132 -18.3272 22.0234 -21.0132 -18.6433 
30.2653 -21.0132 -19.0528 38.5072 -21.0132 -18.607 46.7492 -21.0132 -16.4985 
-52.1539 -12.7713 -17.0542 -43.912 -12.7713 -18.7556 -35.67 -12.7713 -18.4128 
-27.4281 -12.7713 -17.6385 -19.1862 -12.7713 -16.4609 -10.9443 -12.7713 -17.7096 
-2.70236 -12.7713 -18.8926 5.53956 -12.7713 -17.5326 13.7815 -12.7713 -17.0564 
22.0234 -12.7713 -18.064 30.2653 -12.7713 -19.1466 38.5072 -12.7713 -19.3877 
46.7492 -12.7713 -18.1571 54.9911 -12.7713 -15.797 -52.1539 -4.52938 -17.2421 
-43.912 -4.52938 -19.4118 -35.67 -4.52938 -18.9535 -27.4281 -4.52938 -17.5609 
-19.1862 -4.52938 -16.0346 -10.9443 -4.52938 -21.8745 -2.70236 -4.52938 -18.3175 
5.53956 -4.52938 -18.2961 13.7815 -4.52938 -17.0552 22.0234 -4.52938 -17.5846 
30.2653 -4.52938 -18.8037 38.5072 -4.52938 -19.4108 46.7492 -4.52938 -18.4536 
54.9911 -4.52938 -16.6611 -60.3958 3.71254 -16.0107 -52.1539 3.71254 -18.6244 
-43.912 3.71254 -19.5361 -35.67 3.71254 -19.7297 -27.4281 3.71254 -18.2912 
-19.1862 3.71254 -16.6697 -10.9443 3.71254 -22.7077 -2.70236 3.71254 -17.2176 
5.53956 3.71254 -20.1799 13.7815 3.71254 -20.2231 22.0234 3.71254 -16.8853 
30.2653 3.71254 -17.9124 38.5072 3.71254 -18.615 46.7492 3.71254 -18.3769 
54.9911 3.71254 -16.789 -60.3958 11.9545 -16.7691 -52.1539 11.9545 -19.4695 
-43.912 11.9545 -20.0826 -35.67 11.9545 -20.2953 -27.4281 11.9545 -19.24 
-19.1862 11.9545 -17.9912 -10.9443 11.9545 -18.8404 -2.70236 11.9545 -19.3354 
5.53956 11.9545 -19.5077 13.7815 11.9545 -18.172 22.0234 11.9545 -17.1923 
30.2653 11.9545 -18.0664 38.5072 11.9545 -18.0096 46.7492 11.9545 -17.3357 
54.9911 11.9545 -15.5885 -52.1539 20.1964 -18.3295 -43.912 20.1964 -20.9617 
-35.67 20.1964 -19.9142 -27.4281 20.1964 -19.0259 -19.1862 20.1964 -19.0173 
-10.9443 20.1964 -19.4212 -2.70236 20.1964 -19.9343 5.53956 20.1964 -18.4261 
13.7815 20.1964 -17.373 22.0234 20.1964 -18.0034 30.2653 20.1964 -18.5086 
38.5072 20.1964 -18.389 46.7492 20.1964 -16.4062 -52.1539 28.4383 -16.6071 
-43.912 28.4383 -17.8256 -35.67 28.4383 -18.8986 -27.4281 28.4383 -18.3852 
-19.1862 28.4383 -17.5577 -10.9443 28.4383 -17.5803 -2.70236 28.4383 -17.9729 
5.53956 28.4383 -16.5012 13.7815 28.4383 -15.7752 22.0234 28.4383 -16.7821 
30.2653 28.4383 -17.9381 38.5072 28.4383 -16.541 46.7492 28.4383 -16.1502 
-35.67 -31.4796 -15.5752 -35.67 -37.4971 -10.9178 -27.4281 -34.3521 -15.5752 
-27.4281 -37.4971 -13.2836 -19.1862 -35.5684 -15.5752 -19.1862 -37.4971 -14.6335 
-10.9443 -36.9328 -15.5752 -10.9443 -37.4971 -15.3368 -2.70236 -36.0856 -15.5752 
-2.70236 -37.4971 -14.9164 5.53956 -34.3063 -15.5752 5.53956 -37.4971 -13.6855 
13.7815 -33.6245 -15.5752 13.7815 -37.4971 -12.1064 22.0234 -32.2974 -15.5752 
22.0234 -37.4971 -10.2753 30.2653 -31.171 -15.5752 30.2653 -37.4971 -7.8049 
-41.8761 -29.2551 -15.5752 -43.912 -27.8728 -15.5752 -43.912 -29.2551 -15.1789 
35.6237 -29.2551 -15.5752 38.5072 -27.9441 -15.5752 38.5072 -29.2551 -14.7449 
46.7492 -22.8003 -15.5752 46.7492 -29.2551 -10.2514 -48.3465 -21.0132 -15.5752 
-52.1539 -17.5333 -15.5752 -52.1539 -21.0132 -13.8637 48.959 -21.0132 -15.5752 
54.9911 -13.3584 -15.5752 54.9911 -21.0132 -12.0813 -54.6564 -12.7713 -15.5752 
-60.3958 -12.7713 -9.32847 55.4408 -12.7713 -15.5752 63.233 -12.7713 -9.79808 
-56.3077 -4.52938 -15.5752 -60.3958 2.23817 -15.5752 -60.3958 -4.52938 -13.2463 
57.1266 -4.52938 -15.5752 63.233 -4.52938 -11.595 -61.0648 3.71254 -15.5752 
57.4467 3.71254 -15.5752 63.233 3.71254 -11.9695 -62.2887 11.9545 -15.5752 
-60.3958 19.3722 -15.5752 55.0309 11.9545 -15.5752 54.9911 12.0423 -15.5752 
63.233 11.9545 -11.7019 -68.6377 20.1964 -7.42651 -60.0886 20.1964 -15.5752 
-60.3958 20.1964 -15.4491 50.2695 20.1964 -15.5752 54.9911 20.1964 -14.5181 
63.233 20.1964 -10.6694 -57.1034 28.4383 -15.5752 -60.3958 28.4383 -13.9347 
-52.1539 29.7447 -15.5752 -43.912 31.8474 -15.5752 -35.67 33.7671 -15.5752 
-27.4281 33.067 -15.5752 -19.1862 31.3997 -15.5752 -10.9443 31.6809 -15.5752 
-2.70236 31.887 -15.5752 5.53956 29.8503 -15.5752 13.7815 28.7764 -15.5752 
22.0234 30.5454 -15.5752 30.2653 33.3341 -15.5752 38.5072 30.7109 -15.5752 
47.552 28.4383 -15.5752 46.7492 29.1678 -15.5752 54.9911 28.4383 -10.6209 
-52.1539 36.6802 -8.72529 -43.912 36.6802 -9.6546 -35.67 36.6802 -11.4568 
-27.4281 36.6802 -10.0435 -19.1862 36.6802 -8.11656 -10.9443 36.6802 -8.52229 
-2.70236 36.6802 -9.07403 22.0234 36.6802 -10.1058 30.2653 36.6802 -12.9015 
38.5072 36.6802 -11.9973 46.7492 36.6802 -9.57727 -35.67 -39.4645 -7.33325 
-27.4281 -42.312 -7.33325 -19.1862 -43.5316 -7.33325 -10.9443 -44.4796 -7.33325 
-10.9443 -45.739 0.121991 -2.70236 -44.0486 -7.33325 5.53956 -42.2876 -7.33325 
13.7815 -40.4108 -7.33325 22.0234 -39.1341 -7.33325 30.2653 -37.7337 -7.33325 
-40.365 -37.4971 -7.33325 -43.912 -35.8903 -7.33325 31.0781 -37.4971 -7.33325 
38.5072 -35.2216 -7.33325 46.7492 -31.371 -7.33325 -52.1328 -29.2551 -7.33325 
-52.1539 -29.2295 -7.33325 50.1962 -29.2551 -7.33325 54.9911 -25.7433 -7.33325 
-57.3245 -21.0132 -7.33325 -60.3958 -15.2986 -7.33325 60.5455 -21.0132 -7.33325 
63.233 -16.5876 -7.33325 -61.6513 -12.7713 -7.33325 -60.3958 -12.7713 -1.49077 
64.9548 -12.7713 -7.33325 -64.7199 -4.52938 -7.33325 67.6351 -4.52938 -7.33325 
-67.7716 3.71254 -7.33325 68.5642 3.71254 -7.33325 -68.5268 11.9545 -7.33325 
-68.6377 17.7542 -7.33325 67.024 11.9545 -7.33325 -68.6834 20.1964 -7.33325 
-68.6377 20.3379 -7.33325 -68.6377 20.1964 -6.86334 65.143 20.1964 -7.33325 
63.233 24.5949 -7.33325 -64.0287 28.4383 -7.33325 -60.3958 31.2219 -7.33325 
5.53956 36.5594 -7.33325 13.7815 36.5472 -7.33325 60.3979 28.4383 -7.33325 
54.9911 34.4367 -7.33325 -53.5591 36.6802 -7.33325 -52.1539 37.4254 -7.33325 
-52.1539 36.6802 0.273867 -43.912 37.8879 -7.33325 -35.67 38.1913 -7.33325 
-27.4281 37.8444 -7.33325 -19.1862 37.0162 -7.33325 -19.1862 36.6802 -3.85591 
-10.9443 37.1807 -7.33325 4.50256 36.6802 -7.33325 -2.70236 37.4733 -7.33325 
14.322 36.6802 -7.33325 13.7815 36.6802 -3.46159 22.0234 38.4609 -7.33325 
30.2653 39.736 -7.33325 38.5072 39.9075 -7.33325 51.9105 36.6802 -7.33325 
46.7492 38.624 -7.33325 -10.9443 -45.8561 0.90867 -35.67 -40.0868 0.90867 
-27.4281 -42.6829 0.90867 -11.6463 -45.739 0.90867 -19.1862 -44.4464 0.90867 
-6.41453 -45.739 0.90867 -10.9443 -45.739 1.30473 -2.70236 -45.643 0.90867 
5.53956 -43.4841 0.90867 13.7815 -40.896 0.90867 22.0234 -39.4679 0.90867 
30.2653 -38.3199 0.90867 -41.165 -37.4971 0.90867 -43.912 -36.0449 0.90867 
-35.67 -37.4971 8.74241 22.0234 -37.4971 7.52417 33.0278 -37.4971 0.90867 
30.2653 -37.4971 3.63279 38.5072 -35.7783 0.90867 46.7492 -32.3809 0.90867 
-51.2134 -29.2551 0.90867 -52.1539 -27.7821 0.90867 52.5523 -29.2551 0.90867 
54.9911 -27.6868 0.90867 -57.1357 -21.0132 0.90867 -52.1539 -21.0132 6.8039 
61.9827 -21.0132 0.90867 63.233 -19.4454 0.90867 -59.8466 -12.7713 0.90867 
-60.3958 -11.4299 0.90867 67.3492 -12.7713 0.90867 -63.838 -4.52938 0.90867 
-60.3958 -4.52938 5.37905 70.676 -4.52938 0.90867 -66.964 3.71254 0.90867 
70.9131 3.71254 0.90867 -67.983 11.9545 0.90867 70.2574 11.9545 0.90867 
-67.8301 20.1964 0.90867 67.9335 20.1964 0.90867 63.233 27.8535 0.90867 
-63.5581 28.4383 0.90867 -60.3958 31.5747 0.90867 -60.3958 28.4383 5.09396 
-52.1539 36.5972 0.90867 -19.1862 36.2035 0.90867 5.53956 36.6585 0.90867 
62.7859 28.4383 0.90867 54.9911 35.6779 0.90867 -50.409 36.6802 0.90867 
-43.912 36.9688 0.90867 -43.912 36.6802 1.45457 -35.67 38.0126 0.90867 
-35.67 36.6802 3.75247 -26.3989 36.6802 0.90867 -27.4281 36.7526 0.90867 
-27.4281 36.6802 1.05324 -13.9542 36.6802 0.90867 -10.9443 36.9487 0.90867 
-10.9443 36.6802 1.66771 5.33502 36.6802 0.90867 -2.70236 37.5333 0.90867 
-2.70236 36.6802 3.46583 6.6659 36.6802 0.90867 13.7815 36.8221 0.90867 
13.7815 36.6802 1.30078 22.0234 38.922 0.90867 22.0234 36.6802 6.66537 
30.2653 40.1344 0.90867 38.5072 40.6238 0.90867 53.2215 36.6802 0.90867 
46.7492 39.9579 0.90867 46.7492 36.6802 7.00219 -27.4281 -39.7798 9.15059 
-19.1862 -41.378 9.15059 -10.9443 -42.9238 9.15059 -2.70236 -42.7902 9.15059 
5.53956 -40.4951 9.15059 13.7815 -38.086 9.15059 -43.912 -31.4465 9.15059 
-35.1816 -37.4971 9.15059 -35.67 -37.3187 9.15059 -27.4281 -37.4971 12.2562 
-19.1862 -37.4971 13.7626 -10.9443 -37.4971 14.7976 -2.70236 -37.4971 14.6604 
5.53956 -37.4971 12.6473 18.1377 -37.4971 9.15059 13.7815 -37.4971 9.98013 
22.0234 -36.9184 9.15059 30.2653 -35.4923 9.15059 38.5072 -33.0613 9.15059 
46.7492 -29.4233 9.15059 -45.9837 -29.2551 9.15059 -43.912 -29.2551 11.2627 
-35.67 -29.2551 17.1251 22.0234 -29.2551 16.9046 30.2653 -29.2551 16.294 
38.5072 -29.2551 13.708 47.0464 -29.2551 9.15059 46.7492 -29.2551 9.37328 
54.9911 -23.6539 9.15059 -50.4311 -21.0132 9.15059 -52.1539 -17.4507 9.15059 
-43.912 -21.0132 16.0663 46.7492 -21.0132 16.1477 58.1002 -21.0132 9.15059 
54.9911 -21.0132 11.6304 63.233 -13.9305 9.15059 -54.4022 -12.7713 9.15059 
-52.1539 -12.7713 11.51 54.9911 -12.7713 16.4547 63.9222 -12.7713 9.15059 
63.233 -12.7713 9.82786 -57.3937 -4.52938 9.15059 -60.3958 0.677415 9.15059 
-52.1539 -4.52938 14.1714 67.041 -4.52938 9.15059 63.233 -4.52938 13.158 
-62.3348 3.71254 9.15059 -60.3958 3.71254 10.8104 67.7958 3.71254 9.15059 
63.233 3.71254 13.7113 -64.1383 11.9545 9.15059 -60.3958 11.9545 12.6003 
67.1663 11.9545 9.15059 63.233 11.9545 12.1809 -63.0276 20.1964 9.15059 
-60.3958 23.936 9.15059 -60.3958 20.1964 11.2121 -19.1862 20.1964 17.2185 
46.7492 20.1964 16.6531 54.9911 20.1964 14.4545 63.8493 20.1964 9.15059 
[...]
POINT_DATA 544
SCALARS ImageScalars float
LOOKUP_TABLE default
0 0 0 0 0 0 0 0 0 
0 0 0 0 0 0 0 0 0 
0 0 0 0 0 0 0 0 0 
0 0 0 0 0 0 0 0 0 
0 0 0 0 0 0 0 0 0 
0 0 0 0 0 0 0 0 0 
0 0 0 0 0 0 0 0 0 
0 0 0 0 0 0 0 0 0 
0 0 0 0 0 0 0 0 0 
0 0 0 0 0 0 0 0 0 
0 0 0 0 0 0 0 0 0 
0 0 0 0 0 0 0 0 0 
0 0 0 0 0 0 0 0 0 
0 0 0 0 0 0 0 0 0 
0 0 0 0 0 0 0 0 0 
0 0 0 0 0 0 0 0 0 
0 0 0 0 0 0 0 0 0 
0 0 0 0 0 0 0 0 0 
0 0 0 0 0 0 0 0 0 
0 0 0 0 0 0 0 0 0 
0 0 0 0 0 0 0 0 0 
0 0 0 0 0 0 0 0 0 
0 0 0 0 0 0 0 0 0 
0 0 0 0 0 0 0 0 0 
0 0 0 0 0 0 0 0 0 
0 0 0 0 0 0 0 0 0 
0 0 0 0 0 0 0 0 0 
0 0 0 0 0 0 0 0 0 
0 0 0 0 0 0 0 0 0 
0 0 0 0 0 0 0 0 0 
0 0 0 0 0 0 0 0 0 
0 0 0 0 0 0 0 0 0 
0 0 0 0 0 0 0 0 0 
0 0 0 0 0 0 0 0 0 
0 0 0 0 0 0 0 0 0 
0 0 0 0 0 0 0 0 0 
0 0 0 0 0 0 0 0 0 
0 0 0 0 0 0 0 0 0 
0 0 0 0 0 0 0 0 0 
0 0 0 0 0 0 0 0 0 
0 0 0 0 0 0 0 0 0 
0 0 0 0 0 0 0 0 0 
0 0 0 0 0 0 0 0 0 
0 0 0 0 0 0 0 0 0 
0 0 0 0 0 0 0 0 0 
0 0 0 0 0 0 0 0 0 
0 0 0 0 0 0 0 0 0 
0 0 0 0 0 0 0 0 0 
0 0 0 0 0 0 0 0 0 
0 0 0 0 0 0 0 0 0 
0 0 0 0 0 0 0 0 0 
0 0 0 0 0 0 0 0 0 
0 0 0 0 0 0 0 0 0 
0 0 0 0 0 0 0 0 0 
0 0 0 0 0 0 0 0 0 
0 0 0 0 0 0 0 0 0 
0 0 0 0 0 0 0 0 0 
0 0 0 0 0 0 0 0 0 
0 0 0 0 0 0 0 0 0 
0 0 0 0 0 0 0 0 0 
0 0 0 0 
NORMALS Normals float
0.180193 0.280738 0.942718 0.0734739 0.259464 0.962954 0.00660265 0.17859 0.983901 
0.00661886 0.176554 0.984269 -0.0225755 0.216447 0.976033 -0.0146497 0.245533 0.969277 
-0.0219287 0.266509 0.963583 -0.0649213 0.332814 0.940755 -0.131025 0.424429 0.895931 
0.185426 0.208337 0.960319 0.0941119 0.102288 0.990293 0.025798 -0.0146737 0.999559 
-0.0135811 -0.0858553 0.996215 0.0359146 -0.0184697 0.999184 0.000815451 0.0494791 0.998775 
-0.0308264 -0.0102542 0.999472 0.00632864 -0.0437964 0.99902 0.0432849 0.0410143 0.998221 
-0.00413523 0.145654 0.989327 -0.141466 0.23598 0.961406 -0.321766 0.321133 0.890697 
0.369098 0.141037 0.918627 0.0957595 0.147791 0.984372 -0.0660371 0.0683142 0.995476 
-0.114194 -0.0704404 0.990958 -0.00178642 -0.131697 0.991288 0.159334 0.04915 0.986 
-0.0147565 -0.0225819 0.999636 -0.113848 -0.0247995 0.993189 0.033272 -0.078648 0.996347 
0.127629 -0.0643159 0.989734 0.0795314 -0.0152835 0.996715 -0.0570477 0.0522884 0.997001 
-0.193822 0.11351 0.974448 -0.373636 0.226836 0.899412 0.313854 0.089895 0.945206 
0.0890448 0.0420438 0.99514 -0.114918 0.0791416 0.990217 -0.158863 0.039016 0.986529 
0.0436846 0.00548187 0.99903 0.181196 0.360031 0.915175 -0.108526 -0.108906 0.98811 
-0.066382 0.156862 0.985387 -0.0325086 0.147434 0.988538 0.0968551 -0.0713008 0.992741 
0.109467 -0.0729942 0.991307 -0.0198819 -0.0475317 0.998672 -0.170053 0.0127318 0.985353 
-0.349954 0.0499796 0.935433 0.446895 0.163689 0.879483 0.183244 0.131488 0.974234 
0.0632853 0.0417135 0.997123 -0.076487 0.082916 0.993617 -0.167594 0.104563 0.980295 
0.106005 0.128388 0.986042 0.0650415 -0.271078 0.960358 -0.0525932 0.100266 0.99357 
0.164665 0.0667832 0.984086 -0.255249 0.0432032 0.96591 -0.0722503 -0.0243952 0.997088 
0.105598 -0.0457309 0.993357 0.0276803 -0.085296 0.995971 -0.116633 -0.0677614 0.990861 
-0.33162 -0.0536564 0.941886 0.450692 -0.0295596 0.89219 0.168571 -0.0182145 0.985521 
0.0478283 0.0817158 0.995507 -0.050979 0.0114816 0.998634 -0.139166 0.0441417 0.989285 
-0.0259539 0.125486 0.991756 0.0852376 -0.0922827 0.992078 0.0399682 0.128848 0.990859 
-0.0606705 -0.0967592 0.993457 -0.148718 -0.14227 0.978592 -0.0011957 0.0688036 0.99763 
0.0500805 0.0370906 0.998056 -0.0431913 -0.0147598 0.998958 -0.132177 -0.115601 0.984462 
-0.274776 -0.155862 0.948792 0.273897 -0.136164 0.952071 0.0948844 -0.130445 0.986905 
-0.112596 -0.0731033 0.990948 -0.053799 -0.0539152 0.997095 0.0232779 -0.0163461 0.999595 
0.0562369 -0.0717256 0.995838 -0.0562083 -0.0697859 0.995977 -0.155832 -0.170177 0.973014 
-0.022442 -0.132577 0.990919 0.0687881 -0.0224723 0.997378 0.0236814 -0.00521363 0.999706 
-0.126342 -0.0836749 0.988451 -0.214099 -0.0650643 0.974643 0.185231 -0.441001 0.878184 
0.105601 -0.431008 0.896148 0.0312087 -0.378652 0.925013 -0.070967 -0.316586 0.945905 
-0.0536497 -0.3928 0.918058 0.0228397 -0.390055 0.920508 -0.0606883 -0.422364 0.904392 
-0.124888 -0.413213 0.90203 0.0185974 -0.384067 0.923118 0.121117 -0.339042 0.932942 
-0.0127277 -0.271881 0.962247 -0.0931322 -0.294407 0.951131 -0.33414 -0.354111 0.873474 
0.206579 0.374858 0.903774 0.323299 0.795794 0.512044 0.0937033 0.479088 0.872751 
0.139012 0.677654 0.722122 0.0702647 0.472588 0.878478 0.0999945 0.587782 0.802816 
0.0122037 0.477033 0.878801 0.0128003 0.506817 0.861959 -0.06184 0.467358 0.881903 
-0.0730402 0.53871 0.839319 -0.0617098 0.456183 0.887744 -0.119302 0.648671 0.75166 
-0.0616478 0.497253 0.865412 -0.131153 0.799118 0.586694 -0.0879573 0.494563 0.864679 
-0.147364 0.887037 0.437549 -0.153353 0.512762 0.844724 -0.221209 0.926868 0.303286 
0.295357 0.387438 0.873302 0.310029 0.383385 0.869999 0.340965 0.434011 0.833893 
-0.215591 0.515951 0.829045 -0.240643 0.511022 0.825195 -0.269484 0.58244 0.766904 
-0.344487 0.397526 0.850472 -0.4538 0.750625 0.480237 0.31568 0.321304 0.89281 
0.403809 0.308291 0.861333 0.511564 0.472023 0.717981 -0.373601 0.353511 0.857585 
-0.382936 0.243859 0.891007 -0.549792 0.502268 0.667425 0.474812 0.172135 0.86309 
0.874963 0.36218 0.321349 -0.388828 0.229989 0.892142 -0.763354 0.298779 0.572731 
0.440418 0.170655 0.881424 0.467287 0.18624 0.864267 0.666952 0.3229 0.671499 
-0.412965 0.0508388 0.909327 -0.642338 0.0806689 0.762164 0.479031 0.169221 0.861333 
-0.402568 -0.032149 0.914825 -0.61016 0.00837701 0.792234 0.53501 -0.0235349 0.844518 
0.444484 -0.0896799 0.891287 -0.276184 -0.155109 0.948506 -0.273899 -0.157188 0.948826 
-0.630107 -0.047659 0.775044 0.963215 -0.161788 0.214573 0.436052 -0.0997006 0.894382 
0.448901 -0.101152 0.887838 -0.211235 -0.148347 0.966112 -0.239623 -0.258863 0.935719 
-0.726441 -0.274017 0.630237 0.367367 -0.467975 0.803767 0.535003 -0.53138 0.656816 
0.194 -0.510748 0.837556 0.140019 -0.598596 0.788719 0.0495028 -0.623001 0.780653 
-0.0878071 -0.615587 0.783162 -0.0591795 -0.563201 0.824198 0.0192415 -0.572071 0.819978 
-0.0711541 -0.60314 0.794456 -0.118586 -0.486022 0.865864 0.0202759 -0.400493 0.916075 
0.136287 -0.44032 0.887437 0.032074 -0.501438 0.864599 -0.130351 -0.384821 0.91374 
-0.355917 -0.360016 0.862387 -0.332691 -0.386281 0.860293 -0.50343 -0.447899 0.738881 
0.302516 -0.899846 0.314261 0.0770243 -0.94727 0.311042 0.0204758 -0.89678 0.442002 
-0.0845664 -0.946789 0.310546 -0.0392744 -0.977104 0.209108 0.0261248 -0.966423 0.255626 
-0.0447538 -0.947492 0.316631 0.196959 -0.851958 0.485154 0.0747668 -0.751527 0.655452 
-0.163617 -0.755408 0.634499 -0.267387 -0.754375 0.599518 0.342732 0.898481 0.274347 
0.228588 0.918424 0.322868 0.124041 0.924277 0.361008 0.0300768 0.922509 0.384802 
0.0670756 0.997173 -0.0338622 -0.125314 0.906 0.404303 -0.2107 0.905554 0.368209 
-0.179979 0.938692 0.29405 -0.15922 0.949682 0.269728 -0.220787 0.934746 0.278395 
0.398414 0.870905 0.287734 0.458774 0.835169 0.303346 -0.230829 0.932034 0.279341 
-0.334276 0.888807 0.313499 -0.475982 0.813991 0.332956 0.74993 0.611467 0.252413 
0.750453 0.610927 0.252168 -0.52784 0.780695 0.334515 -0.600171 0.707816 0.372547 
0.851536 0.484907 0.199379 0.892863 0.413303 0.178821 -0.711665 0.583619 0.391051 
-0.791883 0.450245 0.412554 0.900185 0.394465 0.184563 0.913223 0.346814 -0.213876 
-0.824996 0.345069 0.447558 0.906579 0.365222 0.211491 -0.791957 0.181511 0.582974 
0.962554 0.217497 0.161815 -0.804916 -0.0266099 0.592791 0.985604 0.0540274 0.160203 
0.976472 -0.0956595 0.193266 -0.779773 -0.19112 0.596177 0.964759 -0.161159 0.20801 
0.963454 -0.168907 0.207908 0.969465 -0.162827 0.183371 -0.84393 -0.27686 0.459489 
-0.778704 -0.4263 0.460315 0.727611 -0.661886 0.18025 0.641732 -0.743498 0.188124 
-0.0558893 -0.966665 0.249872 0.111919 -0.950143 0.291038 -0.6467 -0.552336 0.526027 
-0.560516 -0.700887 0.441111 0.362258 -0.902327 0.233613 0.299315 -0.927377 0.224463 
0.232311 -0.933937 -0.271649 0.0490772 -0.980724 0.189135 -0.0029456 -0.98773 0.156143 
-0.0713664 -0.986963 0.144262 -0.039013 -0.986065 0.16172 -0.0178363 -0.999726 -0.0151839 
0.0273991 -0.98141 0.189956 -0.0529677 -0.968329 0.243995 -0.0367915 -0.974287 0.222288 
0.117727 -0.949564 0.290635 0.12646 -0.988859 0.0785177 0.191474 -0.927412 0.321316 
0.0898544 -0.958883 0.269202 -0.0613449 -0.942172 0.329467 -0.462334 -0.784146 0.413959 
-0.268906 -0.851557 0.450046 0.0699571 0.994884 -0.0728825 0.344338 0.931997 -0.113191 
0.251763 0.958302 -0.135179 0.0800889 0.993888 -0.0759786 0.189678 0.975639 -0.110232 
-0.0445954 0.996969 -0.0637448 0.0709831 0.993299 -0.0912087 -0.1378 0.988882 -0.0558862 
-0.281787 0.955707 -0.0849663 -0.235774 0.963719 -0.125128 -0.154882 0.980385 -0.121892 
-0.212989 0.970372 -0.114075 0.434921 0.887439 -0.152628 0.509757 0.839163 -0.189612 
0.371432 0.822435 -0.430858 -0.139075 0.909969 -0.390658 -0.249063 0.961964 -0.112217 
-0.213333 0.952207 -0.218612 -0.324643 0.939169 -0.112109 -0.446906 0.888789 -0.10163 
0.777429 0.561534 -0.283344 0.790738 0.531272 -0.304111 -0.543855 0.834743 -0.0861755 
-0.593931 0.800245 -0.0827864 0.856046 0.423054 -0.297001 0.720273 0.402906 -0.564689 
-0.740286 0.666994 -0.0842414 -0.780342 0.620575 -0.077155 0.868963 0.309767 -0.385937 
0.86211 0.329253 -0.385173 -0.894018 0.447024 -0.0300083 0.853821 0.398237 -0.335257 
0.744024 0.404444 -0.53184 -0.979337 0.195053 -0.0534112 0.948903 0.208514 -0.236866 
-0.997657 -0.0236699 -0.0641852 0.977493 0.0558911 -0.203428 -0.982705 -0.184492 0.015899 
0.950435 -0.192705 -0.244002 -0.926379 -0.375717 -0.0256655 -0.792951 -0.588778 -0.156743 
0.738813 -0.621794 -0.25986 0.633133 -0.734146 -0.2453 0.616247 -0.649622 -0.445231 
0.224815 -0.923125 -0.311927 0.0139762 -0.962838 -0.269718 -0.042976 -0.986456 -0.158299 
-0.778367 -0.607564 -0.158151 -0.527563 -0.844474 -0.092415 0.196275 -0.930779 -0.308425 
0.092819 -0.951736 -0.292545 0.0939014 -0.947135 -0.306786 -0.0142643 -0.969383 -0.245138 
-0.0105994 -0.926986 -0.374946 -0.10177 -0.948957 -0.298534 -0.118034 -0.945744 -0.302716 
-0.1179 -0.943945 -0.308332 0.0545949 -0.974985 -0.21546 0.0783711 -0.979315 -0.186548 
0.0840975 -0.972533 -0.217042 -0.0423166 -0.986498 -0.158215 -0.0171542 -0.987383 -0.15742 
-0.0143004 -0.965035 -0.261729 -0.0188296 -0.987173 -0.158542 0.135374 -0.978025 -0.15856 
0.134344 -0.975332 -0.175157 0.191157 -0.969231 -0.155083 0.189181 -0.886342 -0.422621 
0.104216 -0.983986 -0.144607 -0.0102235 -0.987376 -0.158066 -0.466471 -0.877443 -0.111799 
-0.27219 -0.94929 -0.157355 -0.220472 -0.788277 -0.574466 0.216415 0.85065 -0.479123 
0.165829 0.844388 -0.509422 0.0771164 0.84424 -0.530388 -0.128983 0.838817 -0.528914 
-0.252749 0.817529 -0.517459 -0.186508 0.85377 -0.486099 0.576452 0.589724 -0.565622 
0.36112 0.816184 -0.451038 0.371864 0.811111 -0.45146 0.185598 0.779173 -0.598701 
0.111424 0.693573 -0.711717 0.0402814 0.573688 -0.818083 -0.0979528 0.575646 -0.811811 
-0.20761 0.698685 -0.684644 -0.157209 0.867445 -0.472043 -0.177799 0.835934 -0.519232 
-0.133414 0.873546 -0.4681 -0.201659 0.861078 -0.466774 -0.308548 0.821216 -0.480002 
-0.43305 0.766921 -0.473603 0.626337 0.515239 -0.585005 0.58442 0.519713 -0.623179 
0.346982 0.480246 -0.805585 -0.0644494 0.525115 -0.848587 -0.148575 0.569448 -0.808489 
-0.280876 0.682832 -0.674425 -0.436777 0.76412 -0.474707 -0.432607 0.761811 -0.482177 
-0.542259 0.646346 -0.536836 0.683075 0.358673 -0.636209 0.686105 0.337146 -0.644665 
0.605814 0.281132 -0.744281 -0.369484 0.434822 -0.821226 -0.61266 0.596385 -0.518625 
-0.514141 0.58301 -0.629093 -0.707445 0.4305 -0.560528 0.711034 0.290416 -0.640382 
0.65703 0.293497 -0.694385 -0.440574 0.281145 -0.852556 -0.714412 0.402383 -0.572454 
-0.698373 0.392448 -0.598549 0.675977 0.344779 -0.651292 0.673752 0.313354 -0.669229 
0.617074 0.282813 -0.734328 -0.809851 0.172343 -0.560749 -0.629645 0.174208 -0.757099 
0.703712 0.279541 -0.653181 0.659025 0.277635 -0.699003 -0.839317 0.0159474 -0.543409 
-0.595496 -0.0535514 -0.801572 0.78169 0.0283071 -0.623024 0.681635 0.0132097 -0.731573 
-0.723815 -0.197511 -0.661122 -0.591198 -0.220486 -0.775804 0.688169 -0.25481 -0.679335 
0.599677 -0.418618 -0.682017 0.621924 -0.256405 -0.73991 -0.063421 -0.417512 -0.906455 
-0.197907 -0.232744 -0.952189 -0.400536 -0.368714 -0.838821 -0.601068 -0.419613 -0.680178 
-0.596783 -0.428168 -0.678617 -0.584133 -0.408963 -0.701098 0.437537 -0.623197 -0.648218 
0.322738 -0.690397 -0.64745 0.342467 -0.622266 -0.703918 0.103293 -0.832706 -0.543995 
0.118256 -0.605686 -0.786868 -0.0412547 -0.7717 -0.634648 -0.06848 -0.67236 -0.737049 
-0.0700336 -0.782575 -0.618605 -0.0640437 -0.690454 -0.720535 0.0440842 -0.76836 -0.638498 
0.010665 -0.648015 -0.761553 0.14193 -0.777323 -0.612882 0.132363 -0.582116 -0.80226 
0.00968717 -0.836114 -0.54847 0.0527723 -0.545485 -0.836457 -0.054747 -0.828709 -0.556995 
-0.0368363 -0.58728 -0.808545 0.0864407 -0.814788 -0.573279 0.0373744 -0.587429 -0.808412 
0.173409 -0.80173 -0.571977 0.0771627 -0.474114 -0.877076 -0.00216352 -0.414305 -0.910136 
-0.0763253 -0.442734 -0.893399 -0.202223 -0.667461 -0.71666 -0.262485 -0.519078 -0.813424 
-0.537588 -0.451984 -0.711835 -0.464708 -0.554135 -0.690639 -0.45622 -0.417832 -0.785672 
0.107208 -0.815 -0.569457 0.084178 -0.81315 -0.575935 0.0808562 -0.801162 -0.592959 
-0.106311 -0.768236 -0.631278 -0.0812574 -0.793805 -0.60272 -0.086288 -0.77816 -0.622111 
0.12314 0.559555 -0.819594 0.0134007 0.474375 -0.880221 -0.0274504 0.355726 -0.934187 
-0.0437207 0.344201 -0.937878 -0.0505047 0.408677 -0.911281 -0.0540531 0.461356 -0.885567 
0.317515 0.480614 -0.817432 0.34483 0.463618 -0.816181 0.110183 0.497237 -0.86059 
-0.0445445 0.383126 -0.922621 -0.0524166 0.287419 -0.95637 -0.0279134 0.285329 -0.958023 
-0.0361872 0.382943 -0.923063 -0.0543074 0.471053 -0.880432 -0.0504284 0.450171 -0.891517 
-0.0544661 0.478807 -0.876229 -0.120332 0.476292 -0.871014 -0.230305 0.46278 -0.856034 
0.536605 0.276922 -0.797101 0.553203 0.20812 -0.80663 0.322763 0.266537 -0.908175 
0.0495017 0.223899 -0.973355 -0.127724 0.212807 -0.96871 -0.0856644 0.153542 -0.984422 
0.00850538 0.206368 -0.978437 0.00373227 0.20412 -0.978939 -0.00827713 0.151497 -0.988423 
-0.0165234 0.212747 -0.976968 -0.0598974 0.253719 -0.965422 -0.306566 0.390923 -0.867869 
-0.192003 0.338638 -0.921118 -0.316695 0.3593 -0.877843 0.541046 0.19128 -0.818951 
0.534112 0.181917 -0.825609 0.304084 0.133864 -0.943193 0.0427149 0.0996588 -0.994104 
-0.151753 0.0840685 -0.984837 -0.0499077 0.129874 -0.990274 0.0339969 0.170893 -0.984703 
-0.102307 0.0255872 -0.994424 -0.0358355 0.0374051 -0.998657 0.053345 0.0336545 -0.998009 
-0.00106883 0.0799304 -0.9968 -0.108405 0.161803 -0.980851 -0.372337 0.2697 -0.888047 
-0.244385 0.251428 -0.936515 -0.417825 0.127456 -0.899543 0.521811 0.235275 -0.819975 
0.516299 0.198949 -0.832979 0.451226 0.194357 -0.870988 0.239853 0.0923692 -0.966405 
-0.00136978 0.0231969 -0.99973 -0.0974998 -0.0155868 -0.995113 -0.0135997 0.0939328 -0.995486 
-0.0981653 0.0243038 -0.994873 -0.122715 -0.0569236 -0.990808 0.00190732 0.0501107 -0.998742 
0.0236046 -0.0567308 -0.99811 0.0588906 -0.0428967 -0.997342 -0.0349233 -0.0043438 -0.999381 
-0.221424 0.0511209 -0.973837 -0.420494 0.069999 -0.904591 -0.407354 0.0651359 -0.910944 
0.515722 0.197683 -0.833638 0.513142 0.196397 -0.835532 0.334803 0.0802058 -0.938868 
0.138263 -0.0334301 -0.989831 -0.0671563 -0.12345 -0.990076 -0.0729858 -0.14855 -0.986208 
-0.00832256 -0.147067 -0.989092 -0.127823 -0.112858 -0.985355 -0.0699214 -0.0591561 -0.995797 
-0.0383998 -0.0951829 -0.994719 -0.0389418 -0.133505 -0.990283 0.0495895 -0.123962 -0.991047 
-0.00968203 -0.146259 -0.989199 -0.161981 -0.103346 -0.981367 -0.382651 -0.0211114 -0.923652 
-0.366798 -0.0197184 -0.930092 0.481612 0.00809709 -0.876347 0.427477 0.00201755 -0.904024 
0.222109 -0.134352 -0.965721 0.0443528 -0.223205 -0.973762 -0.116522 -0.279026 -0.953188 
-0.0665521 -0.410384 -0.909481 -0.114453 -0.295036 -0.948607 0.0263412 -0.292907 -0.955778 
-0.00985227 -0.236395 -0.971607 -0.104276 -0.158096 -0.981902 -0.0708587 -0.199472 -0.977338 
-0.00618477 -0.123959 -0.992268 0.049323 -0.137872 -0.989221 -0.0137909 -0.149312 -0.988694 
-0.165728 -0.227665 -0.959533 -0.125901 -0.225808 -0.966002 -0.347994 -0.161768 -0.923434 
-0.346778 -0.165476 -0.923235 -0.345823 -0.161001 -0.924384 0.375494 -0.334005 -0.864549 
0.359278 -0.352758 -0.863992 0.360641 -0.337816 -0.869378 0.114558 -0.417939 -0.901223 
0.120865 -0.35562 -0.926783 -0.023253 -0.547288 -0.836621 -0.0033976 -0.445268 -0.895391 
-0.072322 -0.41856 -0.905305 -0.115352 -0.496282 -0.860464 -0.135152 -0.436678 -0.889408 
0.000506913 -0.374332 -0.927294 0.0621365 -0.341077 -0.937979 0.0593784 -0.333828 -0.940762 
0.0292089 -0.371675 -0.927903 0.0198025 -0.32624 -0.94508 -0.0333922 -0.32284 -0.945864 
-0.0354658 -0.28259 -0.958585 -0.00207322 -0.278938 -0.960307 -0.00477572 -0.255669 -0.966753 
0.0317477 -0.232433 -0.972094 0.0244046 -0.190549 -0.981374 0.0177824 -0.250807 -0.967874 
0.0290417 -0.191743 -0.981015 -0.142762 -0.233342 -0.961858 -0.0762064 -0.297312 -0.951734 
-0.081512 -0.240855 -0.967132 
