# vtk DataFile Version 4.2
vtk output
ASCII
DATASET POLYDATA
POINTS 510 float
31.5598 15.0015 -24.656 7.1245 -33.8691 -16.7532 15.2696 -33.8691 -16.9096 
-17.3108 -25.724 -17.8165 -9.1657 -25.724 -18.9222 -1.0206 -25.724 -19.3552 
7.1245 -25.724 -20.3681 15.2696 -25.724 -20.4673 23.4147 -25.724 -19.8496 
31.5598 -25.724 -18.2461 -33.601 -17.5789 -17.2355 -25.4559 -17.5789 -18.4279 
-17.3108 -17.5789 -19.3534 -9.1657 -17.5789 -20.592 -1.0206 -17.5789 -20.682 
7.1245 -17.5789 -21.1681 15.2696 -17.5789 -21.0883 23.4147 -17.5789 -20.9172 
31.5598 -17.5789 -21.1739 39.7049 -17.5789 -19.9026 47.85 -17.5789 -17.1309 
-41.7461 -9.43376 -17.9591 -33.601 -9.43376 -19.7098 -25.4559 -9.43376 -19.8668 
-17.3108 -9.43376 -20.178 -9.1657 -9.43376 -21.6626 -1.0206 -9.43376 -20.4298 
7.1245 -9.43376 -20.9004 15.2696 -9.43376 -20.8438 23.4147 -9.43376 -21.5524 
31.5598 -9.43376 -22.5943 39.7049 -9.43376 -22.4695 47.85 -9.43376 -20.4271 
-41.7461 -1.28866 -19.0166 -33.601 -1.28866 -20.7492 -25.4559 -1.28866 -20.9056 
-17.3108 -1.28866 -20.453 -9.1657 -1.28866 -21.156 -1.0206 -1.28866 -19.5367 
7.1245 -1.28866 -22.0129 15.2696 -1.28866 -21.4808 23.4147 -1.28866 -22.303 
31.5598 -1.28866 -23.2612 39.7049 -1.28866 -23.2935 47.85 -1.28866 -21.9639 
55.9951 -1.28866 -17.9088 -41.7461 6.85644 -18.7698 -33.601 6.85644 -20.7634 
-25.4559 6.85644 -21.1504 -17.3108 6.85644 -20.6594 -9.1657 6.85644 -20.9545 
-1.0206 6.85644 -21.013 7.1245 6.85644 -21.9393 15.2696 6.85644 -22.386 
23.4147 6.85644 -23.4487 31.5598 14.3539 -24.6253 31.5598 6.85644 -24.2687 
39.7049 6.85644 -24.1286 47.85 6.85644 -22.6891 55.9951 6.85644 -18.396 
-41.7461 15.0015 -17.0008 -33.601 15.0015 -20.032 -25.4559 15.0015 -20.7872 
-17.3108 15.0015 -20.7813 -9.1657 15.0015 -20.5185 -1.0206 15.0015 -20.2595 
7.1245 15.0015 -20.642 15.2696 15.0015 -22.4277 31.2257 15.0015 -24.6253 
23.4147 15.0015 -23.8992 31.9806 15.0015 -24.6253 31.5598 15.1912 -24.6253 
39.7049 15.0015 -24.0785 47.85 15.0015 -21.6093 -33.601 23.1466 -18.2554 
-25.4559 23.1466 -20.1459 -17.3108 23.1466 -20.7595 -9.1657 23.1466 -21.1686 
-1.0206 23.1466 -21.1474 7.1245 23.1466 -20.8159 15.2696 23.1466 -21.6446 
23.4147 23.1466 -23.4907 31.5598 23.1466 -23.24 39.7049 23.1466 -22.5678 
47.85 23.1466 -18.0311 -25.4559 31.2917 -18.3279 -17.3108 31.2917 -20.0057 
-9.1657 31.2917 -20.8861 -1.0206 31.2917 -21.5801 7.1245 31.2917 -20.7337 
15.2696 31.2917 -19.3173 23.4147 31.2917 -18.568 31.5598 31.2917 -17.6443 
-9.1657 39.4368 -18.1767 -1.0206 39.4368 -18.3267 7.1245 39.4368 -17.015 
7.1245 -34.2266 -16.4802 15.2696 -34.3616 -16.4802 -25.4559 -33.8691 -11.5992 
-17.3108 -29.5868 -16.4802 -17.3108 -33.8691 -14.557 -9.1657 -31.6663 -16.4802 
-9.1657 -33.8691 -15.3624 3.65654 -33.8691 -16.4802 -1.0206 -33.0077 -16.4802 
-1.0206 -33.8691 -16.0645 18.7047 -33.8691 -16.4802 23.4147 -32.8673 -16.4802 
23.4147 -33.8691 -15.7123 31.5598 -28.6936 -16.4802 31.5598 -33.8691 -11.6635 
-41.7461 -25.724 -9.306 -33.601 -19.6011 -16.4802 -33.601 -25.724 -13.902 
-24.2483 -25.724 -16.4802 -25.4559 -24.8706 -16.4802 -25.4559 -25.724 -16.2443 
37.8494 -25.724 -16.4802 39.7049 -24.689 -16.4802 39.7049 -25.724 -15.8023 
47.85 -18.5894 -16.4802 47.85 -25.724 -9.82228 -36.6527 -17.5789 -16.4802 
-41.7461 -13.8311 -16.4802 -41.7461 -17.5789 -14.9491 48.9039 -17.5789 -16.4802 
55.9951 -17.5789 -9.19078 -44.9442 -9.43376 -16.4802 -49.8912 -9.43376 -13.4047 
55.1229 -9.43376 -16.4802 55.9951 -7.28823 -16.4802 55.9951 -9.43376 -15.6498 
-47.5766 -1.28866 -16.4802 -49.8912 -1.28866 -15.0795 57.5057 -1.28866 -16.4802 
-45.9965 6.85644 -16.4802 -49.8912 6.85644 -13.3567 57.8899 6.85644 -16.4802 
55.9951 11.8539 -16.4802 -42.5419 15.0015 -16.4802 -49.8912 15.0015 -8.84349 
-41.7461 16.5661 -16.4802 54.6843 15.0015 -16.4802 55.9951 15.0015 -14.0318 
-37.2133 23.1466 -16.4802 -41.7461 23.1466 -13.4271 -33.601 28.3181 -16.4802 
39.7049 30.3428 -16.4802 49.4344 23.1466 -16.4802 47.85 24.7391 -16.4802 
-30.6749 31.2917 -16.4802 -33.601 31.2917 -15.1504 -25.4559 34.7817 -16.4802 
-17.3108 38.9783 -16.4802 15.2696 35.2043 -16.4802 23.4147 33.2727 -16.4802 
36.0906 31.2917 -16.4802 31.5598 32.2887 -16.4802 39.7049 31.2917 -13.513 
-25.4559 39.4368 -12.762 -16.2999 39.4368 -16.4802 -17.3108 39.4368 -16.1009 
-9.1657 41.496 -16.4802 -1.0206 41.4826 -16.4802 8.21652 39.4368 -16.4802 
7.1245 39.9848 -16.4802 15.2696 39.4368 -8.58856 -25.4559 -36.8659 -8.33508 
-17.3108 -39.2005 -8.33508 -9.1657 -40.3228 -8.33508 -9.1657 -42.0142 -1.24465 
-1.0206 -40.6316 -8.33508 -1.0206 -42.0142 -1.16232 7.1245 -40.5595 -8.33508 
15.2696 -40.0974 -8.33508 23.4147 -38.7502 -8.33508 31.5598 -36.0091 -8.33508 
-41.7461 -26.7662 -8.33508 -31.8875 -33.8691 -8.33508 -33.601 -32.8757 -8.33508 
-33.601 -33.8691 -6.81838 36.178 -33.8691 -8.33508 39.7049 -32.0723 -8.33508 
47.85 -26.6704 -8.33508 -42.8409 -25.724 -8.33508 48.9644 -25.724 -8.33508 
55.9951 -18.178 -8.33508 -49.6356 -17.5789 -8.33508 -49.8912 -17.2149 -8.33508 
-49.8912 -17.5789 -7.9258 56.4746 -17.5789 -8.33508 -53.8682 -9.43376 -8.33508 
60.453 -9.43376 -8.33508 -55.0164 -1.28866 -8.33508 -58.0363 -1.28866 -0.239816 
61.878 -1.28866 -8.33508 -53.52 6.85644 -8.33508 61.508 6.85644 -8.33508 
-50.2638 15.0015 -8.33508 -49.8912 15.7924 -8.33508 58.4116 15.0015 -8.33508 
55.9951 18.9314 -8.33508 -46.2337 23.1466 -8.33508 -41.7461 30.4099 -8.33508 
52.8052 23.1466 -8.33508 47.85 27.6357 -8.33508 -41.0996 31.2917 -8.33508 
-41.7461 31.2917 -5.79356 -33.601 37.8201 -8.33508 23.4147 36.3412 -8.33508 
31.5598 34.626 -8.33508 41.9845 31.2917 -8.33508 39.7049 32.4356 -8.33508 
39.7049 31.2917 -2.25191 -31.0806 39.4368 -8.33508 -25.4559 42.0169 -8.33508 
-17.3108 44.1141 -8.33508 -9.1657 45.2828 -8.33508 -1.0206 45.5431 -8.33508 
7.1245 43.6514 -8.33508 15.5127 39.4368 -8.33508 15.2696 39.536 -8.33508 
15.2696 39.4368 -6.96389 -9.1657 -42.2375 -0.189985 -1.0206 -42.1818 -0.189985 
-33.601 -36.8414 -0.189985 -25.4559 -40.1311 -0.189985 -11.8425 -42.0142 -0.189985 
-17.3108 -41.5472 -0.189985 -9.1657 -42.0142 1.05162 1.3794 -42.0142 -0.189985 
-1.0206 -42.0142 0.645248 7.1245 -41.6079 -0.189985 15.2696 -40.7556 -0.189985 
23.4147 -39.3194 -0.189985 31.5598 -36.6517 -0.189985 -38.7156 -33.8691 -0.189985 
-41.7461 -31.6105 -0.189985 38.0469 -33.8691 -0.189985 31.5598 -33.8691 5.99353 
39.7049 -33.0564 -0.189985 47.85 -27.3364 -0.189985 -47.8769 -25.724 -0.189985 
-49.8912 -23.1724 -0.189985 49.7657 -25.724 -0.189985 47.85 -25.724 3.37168 
55.9951 -19.2794 -0.189985 -53.4434 -17.5789 -0.189985 57.3218 -17.5789 -0.189985 
55.9951 -17.5789 3.28839 -57.121 -9.43376 -0.189985 -58.0363 -1.44124 -0.189985 
60.9619 -9.43376 -0.189985 -58.0532 -1.28866 -0.189985 -58.0363 -1.17609 -0.189985 
62.0173 -1.28866 -0.189985 -56.7704 6.85644 -0.189985 61.5075 6.85644 -0.189985 
-53.4497 15.0015 -0.189985 -49.8912 21.6088 -0.189985 57.1686 15.0015 -0.189985 
55.9951 16.7313 -0.189985 55.9951 15.0015 1.8039 -48.9954 23.1466 -0.189985 
39.7049 30.7374 -0.189985 50.2449 23.1466 -0.189985 47.85 25.141 -0.189985 
47.85 23.1466 2.51221 -42.8207 31.2917 -0.189985 -41.7461 32.4942 -0.189985 
-41.7461 31.2917 3.17473 -33.601 38.4902 -0.189985 15.2696 38.9072 -0.189985 
23.4147 35.1587 -0.189985 23.4147 31.2917 6.35034 37.8658 31.2917 -0.189985 
31.5598 32.8286 -0.189985 31.5598 31.2917 2.29088 -31.4434 39.4368 -0.189985 
-25.4559 41.5814 -0.189985 -25.4559 39.4368 4.56705 -17.3108 43.1924 -0.189985 
-17.3108 39.4368 6.58157 -9.1657 43.9863 -0.189985 -9.1657 39.4368 7.62073 
-1.0206 44.3628 -0.189985 14.22 39.4368 -0.189985 7.1245 42.7565 -0.189985 
7.1245 39.4368 6.03299 -33.601 -37.2102 7.95511 -25.4559 -39.6424 7.95511 
-17.3108 -40.4452 7.95511 -9.1657 -40.7177 7.95511 -1.0206 -40.4093 7.95511 
7.1245 -39.2694 7.95511 15.2696 -37.6034 7.95511 23.4147 -35.8553 7.95511 
-39.5065 -33.8691 7.95511 -41.7461 -32.2944 7.95511 7.1245 -33.8691 14.4861 
15.2696 -33.8691 12.3852 29.0675 -33.8691 7.95511 23.4147 -33.8691 10.3261 
31.5598 -32.8618 7.95511 39.7049 -28.7925 7.95511 -48.6698 -25.724 7.95511 
-49.8912 -24.1252 7.95511 31.5598 -25.724 15.2617 44.3466 -25.724 7.95511 
39.7049 -25.724 11.5793 47.85 -22.9715 7.95511 -54.1288 -17.5789 7.95511 
53.4418 -17.5789 7.95511 47.85 -17.5789 13.1083 55.9951 -12.7709 7.95511 
-57.6666 -9.43376 7.95511 -58.0363 -6.93644 7.95511 57.3636 -9.43376 7.95511 
55.9951 -9.43376 9.60188 -58.8345 -1.28866 7.95511 -58.0363 4.2962 7.95511 
-58.0363 -1.28866 11.9851 58.3635 -1.28866 7.95511 55.9951 -1.28866 10.6982 
-57.6685 6.85644 7.95511 47.85 6.85644 15.1471 56.5317 6.85644 7.95511 
55.9951 7.69527 7.95511 55.9951 6.85644 8.51422 -54.1828 15.0015 7.95511 
-49.8912 21.2735 7.95511 15.2696 15.0015 16.0503 23.4147 15.0015 15.3763 
31.5598 15.0015 15.2616 39.7049 15.0015 13.862 51.2228 15.0015 7.95511 
47.85 18.3576 7.95511 47.85 15.0015 10.74 -48.3462 23.1466 7.95511 
-41.7461 29.5917 7.95511 7.1245 23.1466 15.5508 15.2696 23.1466 13.6467 
23.4147 29.7314 7.95511 23.4147 23.1466 12.1379 31.5598 26.6637 7.95511 
31.5598 23.1466 10.7431 40.8095 23.1466 7.95511 39.7049 23.8072 7.95511 
39.7049 23.1466 8.56097 -39.3959 31.2917 7.95511 -33.601 34.9541 7.95511 
-33.601 31.2917 12.5998 -25.4559 37.47 7.95511 -25.4559 31.2917 14.6304 
-17.3108 38.5708 7.95511 -17.3108 31.2917 15.2256 -9.1657 39.2015 7.95511 
-9.1657 31.2917 15.1717 -1.0206 31.2917 14.5228 7.1245 37.9648 7.95511 
7.1245 31.2917 12.7852 20.1847 31.2917 7.95511 15.2696 33.35 7.95511 
15.2696 31.2917 9.66406 -5.32733 39.4368 7.95511 0.366427 39.4368 7.95511 
-1.0206 39.6681 7.95511 -1.0206 39.4368 8.21521 -33.601 -34.2509 16.1002 
-25.4559 -36.2611 16.1002 -17.3108 -36.4748 16.1002 -9.1657 -35.8776 16.1002 
-1.0206 -34.4507 16.1002 -34.3565 -33.8691 16.1002 -41.7461 -29.1607 16.1002 
-33.601 -33.8691 16.5776 -25.4559 -33.8691 18.645 -17.3108 -33.8691 18.8472 
-9.1657 -33.8691 17.8629 1.07685 -33.8691 16.1002 -1.0206 -33.8691 16.5625 
7.1245 -30.9244 16.1002 15.2696 -28.2337 16.1002 23.4147 -26.7316 16.1002 
[...]
POINT_DATA 510
SCALARS ImageScalars float
LOOKUP_TABLE default
0 0 0 0 0 0 0 0 0 
0 0 0 0 0 0 0 0 0 
0 0 0 0 0 0 0 0 0 
0 0 0 0 0 0 0 0 0 
0 0 0 0 0 0 0 0 0 
0 0 0 0 0 0 0 0 0 
0 0 0 0 0 0 0 0 0 
0 0 0 0 0 0 0 0 0 
0 0 0 0 0 0 0 0 0 
0 0 0 0 0 0 0 0 0 
0 0 0 0 0 0 0 0 0 
0 0 0 0 0 0 0 0 0 
0 0 0 0 0 0 0 0 0 
0 0 0 0 0 0 0 0 0 
0 0 0 0 0 0 0 0 0 
0 0 0 0 0 0 0 0 0 
0 0 0 0 0 0 0 0 0 
0 0 0 0 0 0 0 0 0 
0 0 0 0 0 0 0 0 0 
0 0 0 0 0 0 0 0 0 
0 0 0 0 0 0 0 0 0 
0 0 0 0 0 0 0 0 0 
0 0 0 0 0 0 0 0 0 
0 0 0 0 0 0 0 0 0 
0 0 0 0 0 0 0 0 0 
0 0 0 0 0 0 0 0 0 
0 0 0 0 0 0 0 0 0 
0 0 0 0 0 0 0 0 0 
0 0 0 0 0 0 0 0 0 
0 0 0 0 0 0 0 0 0 
0 0 0 0 0 0 0 0 0 
0 0 0 0 0 0 0 0 0 
0 0 0 0 0 0 0 0 0 
0 0 0 0 0 0 0 0 0 
0 0 0 0 0 0 0 0 0 
0 0 0 0 0 0 0 0 0 
0 0 0 0 0 0 0 0 0 
0 0 0 0 0 0 0 0 0 
0 0 0 0 0 0 0 0 0 
0 0 0 0 0 0 0 0 0 
0 0 0 0 0 0 0 0 0 
0 0 0 0 0 0 0 0 0 
0 0 0 0 0 0 0 0 0 
0 0 0 0 0 0 0 0 0 
0 0 0 0 0 0 0 0 0 
0 0 0 0 0 0 0 0 0 
0 0 0 0 0 0 0 0 0 
0 0 0 0 0 0 0 0 0 
0 0 0 0 0 0 0 0 0 
0 0 0 0 0 0 0 0 0 
0 0 0 0 0 0 0 0 0 
0 0 0 0 0 0 0 0 0 
0 0 0 0 0 0 0 0 0 
0 0 0 0 0 0 0 0 0 
0 0 0 0 0 0 0 0 0 
0 0 0 0 0 0 0 0 0 
0 0 0 0 0 0 
NORMALS Normals float
0.0093312 -0.057087 0.998326 0.0437087 0.562236 0.825821 -0.0455306 0.602497 0.796821 
0.156971 0.255282 0.954039 0.0889934 0.278844 0.956204 0.0870406 0.260816 0.961457 
0.0661575 0.247364 0.966661 -0.0320065 0.213335 0.976455 -0.124478 0.269079 0.95504 
-0.208014 0.439648 0.87375 0.180838 0.326971 0.927571 0.121812 0.208105 0.970492 
0.129919 0.13948 0.981665 0.0800942 0.167738 0.982573 0.0353062 0.0626481 0.997411 
0.0247823 0.0310764 0.99921 -0.0153489 0.0231286 0.999615 0.00652725 0.102417 0.99472 
-0.0536281 0.234742 0.970577 -0.21752 0.335724 0.916501 -0.416021 0.46083 0.78394 
0.327358 0.211509 0.920924 0.106273 0.198101 0.974404 0.0286496 0.148007 0.988571 
0.110767 0.0668822 0.991593 0.0151278 0.0331592 0.999336 -0.0479359 -0.0701669 0.996383 
0.0247906 0.0490491 0.998489 0.0378894 0.0234214 0.999007 0.108552 0.0858208 0.990379 
0.0540937 0.135893 0.989246 -0.123458 0.192838 0.973433 -0.343631 0.250951 0.904954 
0.307241 0.0472755 0.950457 0.10915 0.068608 0.991655 -0.0183635 0.0782841 0.996762 
0.0154411 0.0291596 0.999456 -0.0533748 -0.0434886 0.997627 0.0476337 0.0382005 0.998134 
0.118909 0.0654931 0.990743 0.0187438 0.0951717 0.995284 0.108269 0.113742 0.987593 
0.0600488 0.102089 0.992961 -0.0809745 0.0984081 0.991846 -0.291563 0.130949 0.947546 
-0.654396 0.125748 0.745623 0.36161 -0.115164 0.925189 0.13759 -0.045025 0.989465 
-0.00729888 -0.00726631 0.999947 -0.0119771 0.0201328 0.999726 0.0216959 -0.0391145 0.998999 
0.0587815 0.0417131 0.997399 0.0861493 -0.0849861 0.992651 0.0913462 0.0571637 0.994177 
0.116297 0.0977361 0.988394 0.012003 -0.0459433 0.998872 0.0412624 0.0850337 0.995523 
-0.0978006 0.0476467 0.994065 -0.298068 -0.0191873 0.954352 -0.693362 -0.129195 0.708913 
0.484417 -0.249049 0.838639 0.214049 -0.139824 0.966764 0.0461514 -0.0598424 0.99714 
-0.016493 0.00614874 0.999845 -0.0320188 0.0130131 0.999403 0.00732765 0.00833007 0.999938 
0.127786 -0.0667697 0.989552 0.200321 -0.044783 0.978706 0.0144128 -0.0546088 0.998404 
0.137352 0.00516002 0.990509 -0.000361774 -0.0581187 0.99831 0.00825368 -0.0631825 0.997968 
-0.178464 -0.078755 0.98079 -0.44368 -0.214067 0.870243 0.329335 -0.254966 0.909137 
0.141213 -0.137432 0.980394 0.0613521 -0.048683 0.996928 0.0240179 0.0237543 0.999429 
-0.0215385 0.0791496 0.99663 0.0291724 0.00589475 0.999557 0.152149 -0.176829 0.972411 
0.0972441 -0.260194 0.960647 -0.0501189 -0.348039 0.936139 -0.249004 -0.391289 0.88594 
-0.584281 -0.558285 0.589011 0.252979 -0.330891 0.909127 0.138627 -0.2416 0.960423 
0.0978261 -0.170892 0.980421 -0.00779128 -0.134598 0.99087 -0.138312 -0.205959 0.968737 
-0.124941 -0.470478 0.873522 -0.0900941 -0.710197 0.698214 -0.137731 -0.793668 0.592555 
0.122819 -0.556802 0.821515 -0.0635249 -0.580092 0.81207 -0.283665 -0.652837 0.702381 
0.040808 0.576559 0.816036 -0.0481723 0.626951 0.777568 0.320734 0.661842 0.677565 
0.166871 0.377364 0.910906 0.18228 0.570775 0.800618 0.0748139 0.46856 0.880258 
0.0730403 0.564391 0.82227 0.0545525 0.545298 0.836465 0.0725869 0.492625 0.867209 
0.0697194 0.53231 0.843674 -0.110163 0.617585 0.77875 -0.190566 0.584191 0.788927 
-0.202998 0.651585 0.730909 -0.261904 0.541113 0.799126 -0.359673 0.803922 0.47365 
0.540106 0.58946 0.600685 0.21376 0.359822 0.908204 0.341295 0.475587 0.810762 
0.200247 0.321982 0.925326 0.198347 0.320456 0.926265 0.208699 0.337005 0.918081 
-0.310479 0.534864 0.785826 -0.328462 0.530446 0.781498 -0.352541 0.576807 0.736891 
-0.430228 0.486923 0.760138 -0.590444 0.720105 0.36445 0.259106 0.362135 0.89539 
0.366584 0.318047 0.874335 0.413856 0.421036 0.807126 -0.448276 0.472583 0.758758 
-0.768202 0.552725 0.323048 0.441148 0.240054 0.864732 0.655657 0.279713 0.701337 
-0.62208 0.296245 0.724745 -0.661816 0.247781 0.707534 -0.679186 0.300257 0.66974 
0.519383 0.0218255 0.854263 0.635296 0.00542833 0.77225 -0.72194 0.118111 0.681801 
0.52219 -0.170655 0.83558 0.714193 -0.235167 0.659261 -0.775362 -0.143173 0.615073 
-0.754632 -0.278139 0.594281 0.50995 -0.259072 0.820264 0.795159 -0.366112 0.48341 
0.503616 -0.26673 0.821721 -0.728779 -0.352014 0.587339 -0.811152 -0.393678 0.432494 
0.437848 -0.302758 0.846538 0.632206 -0.379138 0.6757 0.391658 -0.3799 0.838022 
-0.332587 -0.828585 0.450369 -0.629693 -0.587037 0.508797 -0.594837 -0.633881 0.494331 
0.366539 -0.407877 0.836233 0.458026 -0.481706 0.747109 0.295556 -0.479246 0.82642 
0.232782 -0.600087 0.765316 -0.256668 -0.656327 0.709476 -0.140912 -0.794315 0.590939 
-0.251811 -0.842401 0.476395 -0.159353 -0.836135 0.524866 -0.350471 -0.896172 0.272114 
0.336989 -0.790245 0.511812 0.222882 -0.616062 0.755508 0.237419 -0.638234 0.732318 
0.116866 -0.66619 0.736569 -0.0848109 -0.69412 0.714846 -0.296687 -0.681693 0.668783 
-0.290424 -0.682361 0.670848 -0.42242 -0.892763 0.156637 0.31392 0.785999 0.532597 
0.184961 0.865579 0.465362 0.0785142 0.898218 0.432482 0.0430853 0.997029 0.0638444 
0.0129402 0.920177 0.391288 -0.0330102 0.999011 0.0297939 -0.0314776 0.9418 0.334698 
-0.106144 0.949985 0.293704 -0.23314 0.929191 0.286791 -0.367985 0.880121 0.299958 
0.553209 0.613339 0.563715 0.411297 0.72012 0.558804 0.431541 0.69845 0.570912 
0.43841 0.749188 0.496501 -0.436458 0.848478 0.299315 -0.485664 0.819021 0.305508 
-0.601018 0.745825 0.287267 0.569656 0.597899 0.563923 -0.622835 0.72795 0.286644 
-0.776492 0.564918 0.279155 0.696777 0.485501 0.528006 0.705008 0.47691 0.524901 
0.709621 0.486646 0.509523 -0.785795 0.552312 0.278348 0.827092 0.255324 0.500727 
-0.912156 0.30325 0.275701 0.87552 -0.0175887 0.482861 0.976246 -0.0192864 0.215807 
-0.970135 0.0573964 0.235677 0.847667 -0.238252 0.474021 -0.960519 -0.206339 0.186623 
0.804205 -0.369325 0.465675 0.803108 -0.378152 0.460455 -0.893885 -0.433182 0.115427 
-0.834623 -0.544183 0.0852652 0.778305 -0.455476 0.432183 0.740038 -0.570662 0.355933 
-0.730045 -0.682218 0.0401472 -0.596617 -0.802521 0.00276644 0.73003 -0.589015 0.346579 
0.749211 -0.624636 0.220256 0.554517 -0.778719 0.293442 -0.277066 -0.956862 0.0874615 
-0.242717 -0.969805 0.0238103 -0.42271 -0.906236 0.00733673 -0.366215 -0.930433 0.0134504 
-0.371257 -0.880418 -0.295011 0.479517 -0.837898 0.260752 0.326981 -0.918971 0.220401 
0.208813 -0.961779 0.177136 0.0867984 -0.990595 0.105776 -0.097377 -0.988241 0.117885 
-0.348784 -0.928121 0.130158 -0.419665 -0.896515 0.141925 -0.423485 -0.894479 0.143414 
-0.428124 -0.900105 0.080752 0.0386653 0.999132 0.015493 -0.0385265 0.999157 -0.014186 
0.430101 0.88036 0.199948 0.270739 0.953789 0.130332 0.0646631 0.997501 0.0284582 
0.120187 0.991109 0.057085 0.03318 0.998933 -0.0321376 -0.0520475 0.998212 -0.0294014 
-0.0421317 0.997983 -0.0474755 -0.085135 0.994141 -0.0665965 -0.13371 0.982731 -0.127911 
-0.231855 0.960221 -0.155625 -0.360819 0.919316 -0.157061 0.534578 0.816301 0.218812 
0.605556 0.762917 0.226405 -0.464135 0.872557 -0.152391 -0.351115 0.831627 -0.430249 
-0.492639 0.857072 -0.150778 -0.612232 0.777154 -0.145617 0.728712 0.643754 0.233581 
0.779251 0.585004 0.224806 -0.648569 0.747154 -0.145323 -0.601211 0.738055 -0.306301 
-0.796548 0.592465 -0.120398 0.862463 0.460235 0.210573 -0.825575 0.550445 -0.124246 
-0.792317 0.540186 -0.283607 0.946703 0.248574 0.204853 0.976662 -0.0142748 0.214307 
-0.948852 0.274218 -0.156476 0.976565 -0.0192984 0.214357 0.976459 -0.0224293 0.214533 
-0.983309 0.034456 -0.178652 0.942098 -0.248467 0.225199 -0.928166 -0.293284 -0.229113 
0.880047 -0.431728 0.197808 0.839879 -0.529235 0.120473 -0.808741 -0.495569 -0.316779 
-0.780388 -0.532653 -0.327529 -0.777379 -0.496377 -0.386383 0.828365 -0.551638 0.0975021 
-0.367347 -0.838554 -0.402348 -0.604195 -0.696092 -0.387819 -0.55754 -0.731355 -0.39277 
-0.537996 -0.69113 -0.482597 0.739986 -0.671347 -0.0413842 0.71395 -0.697593 -0.0603315 
0.674041 -0.715878 -0.182171 0.468587 -0.868722 -0.160464 -0.423828 -0.869932 -0.252168 
-0.325207 -0.89625 -0.301621 -0.293238 -0.724328 -0.623988 -0.336209 -0.854716 -0.395505 
-0.251033 -0.892579 -0.374546 -0.255551 -0.841947 -0.475204 0.402896 -0.894993 -0.191477 
0.247729 -0.940575 -0.23227 0.218591 -0.880074 -0.42153 0.150987 -0.937031 -0.314922 
0.0895768 -0.839901 -0.535296 0.066978 -0.936719 -0.343616 0.0538403 -0.798668 -0.599358 
-0.0735071 -0.941579 -0.328673 -0.410087 -0.876587 -0.251841 -0.304673 -0.9112 -0.277289 
-0.273234 -0.789109 -0.550137 0.378519 0.915538 -0.136066 0.195535 0.962034 -0.19041 
0.0621553 0.963975 -0.258629 -0.00110463 0.94848 -0.316834 -0.0809772 0.925292 -0.37051 
-0.156354 0.880178 -0.448152 -0.188573 0.832599 -0.520787 -0.239698 0.806931 -0.539822 
0.534299 0.83755 -0.114165 0.599106 0.793928 -0.103684 -0.196483 0.605568 -0.771157 
-0.191648 0.677976 -0.709662 -0.312616 0.792554 -0.523574 -0.228697 0.747235 -0.623969 
-0.340006 0.783433 -0.52022 -0.434541 0.74393 -0.507683 0.760466 0.642496 -0.0942882 
0.792563 0.603278 -0.0888732 -0.226234 0.568385 -0.791048 -0.508966 0.698559 -0.502959 
-0.410915 0.67105 -0.617122 -0.570854 0.642286 -0.511463 0.885017 0.458799 -0.0790445 
-0.694172 0.510254 -0.507707 -0.530634 0.480001 -0.698589 -0.776288 0.336422 -0.533101 
0.960955 0.265731 -0.0771539 0.980413 0.184657 -0.0685007 -0.806106 0.227163 -0.546434 
-0.771451 0.215977 -0.598512 0.998791 -0.000544641 -0.0491527 0.983532 -0.175676 -0.0424454 
0.979189 0.00866618 -0.202766 -0.815943 -0.0242396 -0.577623 -0.746004 -0.0391993 -0.664787 
0.966211 -0.254797 -0.0389145 -0.421491 -0.310808 -0.851906 -0.718001 -0.33485 -0.610204 
-0.713331 -0.352941 -0.605468 -0.708489 -0.331579 -0.622975 0.867874 -0.492419 -0.0657122 
0.773382 -0.614692 -0.15503 -0.176761 -0.349972 -0.919932 -0.0455779 -0.356571 -0.933156 
-0.079856 -0.433156 -0.897774 -0.222077 -0.481977 -0.847573 -0.582819 -0.514487 -0.628987 
-0.492058 -0.579143 -0.649979 -0.451981 -0.511283 -0.730961 0.727357 -0.655889 -0.201897 
0.583744 -0.737293 -0.340061 -0.234721 -0.300888 -0.924323 -0.190006 -0.320883 -0.927864 
-0.265346 -0.642957 -0.718469 -0.162267 -0.448631 -0.878863 -0.229222 -0.64538 -0.728658 
-0.177137 -0.559513 -0.809672 -0.350921 -0.638111 -0.685323 -0.3291 -0.643545 -0.691045 
-0.323027 -0.629514 -0.706658 0.520895 -0.756274 -0.395876 0.368091 -0.797607 -0.477841 
0.297287 -0.738809 -0.6048 0.184476 -0.805563 -0.56306 0.112389 -0.663367 -0.739806 
0.0807228 -0.807235 -0.584684 0.0233866 -0.601846 -0.79827 0.0514887 -0.789279 -0.611872 
-0.0370803 -0.549999 -0.834341 -0.126346 -0.47652 -0.870037 -0.262863 -0.707785 -0.655701 
-0.244341 -0.440103 -0.864064 -0.301356 -0.644157 -0.703027 -0.344561 -0.634292 -0.692063 
-0.317184 -0.563 -0.763168 0.00551461 -0.780356 -0.625311 -0.0834647 -0.763063 -0.640912 
-0.047309 -0.766618 -0.640359 -0.0481336 -0.760205 -0.647898 0.32143 0.781955 -0.534069 
0.12703 0.803729 -0.581278 -0.0181982 0.775723 -0.630811 -0.0954631 0.682057 -0.725042 
-0.167663 0.577727 -0.798824 0.340261 0.776706 -0.530047 0.527452 0.691944 -0.492958 
0.31601 0.769778 -0.554599 0.105732 0.695625 -0.710582 -0.0454337 0.652811 -0.756157 
-0.121489 0.586697 -0.800642 -0.177378 0.557562 -0.810963 -0.169483 0.550949 -0.817148 
-0.178135 0.459274 -0.87025 -0.120756 0.455576 -0.881968 -0.121131 0.523981 -0.843073 
0.607965 0.627861 -0.485973 0.73298 0.530871 -0.425343 0.486574 0.590582 -0.643784 
0.204017 0.439957 -0.874537 -0.046735 0.336415 -0.940554 -0.128836 0.255068 -0.958301 
-0.178628 0.230016 -0.956653 -0.185837 0.215043 -0.95876 -0.137991 0.262769 -0.95494 
-0.0824035 0.384177 -0.919575 -0.162261 0.529604 -0.832581 -0.108186 0.496959 -0.861004 
-0.208715 0.52216 -0.826914 -0.333403 0.463847 -0.820785 0.781963 0.463108 -0.41721 
0.701812 0.454858 -0.548237 -0.203773 0.117014 -0.972 -0.212941 0.0983921 -0.972098 
-0.152239 0.103885 -0.982869 -0.0341539 0.122035 -0.991938 0.0332179 0.192751 -0.980685 
-0.0185791 0.261945 -0.964904 -0.151582 0.32908 -0.932056 -0.384309 0.413018 -0.825665 
-0.310863 0.386145 -0.868479 -0.494024 0.212599 -0.843055 0.863434 0.282688 -0.417815 
0.577386 0.23388 -0.782257 -0.187571 0.148728 -0.970926 -0.173705 0.0817396 -0.9814 
-0.0468081 0.037965 -0.998182 0.0782347 0.0144034 -0.996831 0.0369517 0.0265118 -0.998965 
-0.100488 0.0750568 -0.992103 -0.263902 0.125733 -0.956319 -0.507171 0.170525 -0.844807 
-0.486432 0.168208 -0.857374 0.923679 0.0203262 -0.382628 -0.27617 0.00569602 -0.961092 
-0.0947825 0.103341 -0.99012 0.0215356 -0.0710173 -0.997243 0.0467854 -0.175782 -0.983317 
-0.0466618 -0.15548 -0.986736 -0.225195 -0.118555 -0.967074 -0.486426 -0.0622293 -0.871503 
-0.43297 -0.186012 -0.882007 -0.444414 -0.0705449 -0.89304 0.886155 -0.257973 -0.38494 
0.571821 -0.241776 -0.783942 -0.20406 -0.189202 -0.960501 -0.0745112 -0.087424 -0.993381 
-0.120674 -0.0451093 -0.991667 -0.177842 -0.348821 -0.920161 -0.213891 -0.220836 -0.951568 
-0.0436113 -0.342387 -0.938546 -0.0487987 -0.297707 -0.953409 -0.0640894 -0.407459 -0.910972 
-0.0392982 -0.323981 -0.945247 -0.341162 -0.314444 -0.885852 -0.198265 -0.396616 -0.896318 
-0.187482 -0.324022 -0.927286 0.733935 -0.532576 -0.421547 0.676118 -0.601465 -0.425563 
0.662075 -0.510681 -0.548509 -0.177348 -0.291605 -0.939954 -0.147793 -0.23359 -0.961037 
-0.141386 -0.227064 -0.963562 -0.178948 -0.351618 -0.918881 -0.239904 -0.322823 -0.91555 
-0.240896 -0.402533 -0.88314 0.45599 -0.704809 -0.543431 0.414645 -0.708818 -0.570654 
0.388626 -0.691833 -0.608553 0.218331 -0.677719 -0.70216 0.138249 -0.586494 -0.798068 
0.0856395 -0.620275 -0.779695 -0.0255262 -0.502141 -0.864409 0.00531241 -0.563662 -0.825988 
-0.0735324 -0.408599 -0.909747 -0.0589077 -0.500347 -0.863818 -0.120276 -0.342636 -0.931737 
-0.226949 -0.306237 -0.924507 -0.166884 -0.393134 -0.90421 -0.204148 -0.319387 -0.925373 
0.302701 0.351474 -0.885911 0.151895 0.36323 -0.919234 -0.0675849 0.280951 -0.957339 
0.326849 0.339538 -0.881977 0.285089 0.32455 -0.901882 0.0536159 0.21368 -0.975431 
-0.18925 0.123144 -0.974177 -0.108586 0.158195 -0.981419 -0.200499 0.108745 -0.97364 
0.440141 0.202962 -0.87469 0.52168 0.0223758 -0.852848 0.19839 0.174241 -0.964511 
0.00392485 0.138006 -0.990424 -0.138457 0.0855064 -0.98667 -0.192501 0.107597 -0.97538 
-0.193596 0.0926771 -0.976694 -0.207832 0.0392012 -0.977379 0.522109 0.0163673 -0.852722 
0.522596 0.00553847 -0.852563 0.520609 0.0163288 -0.853639 0.207564 0.0511541 -0.976883 
-0.0354677 0.0366356 -0.998699 -0.161415 0.0255031 -0.986557 -0.143087 0.0191847 -0.989524 
-0.220195 0.00916858 -0.975413 -0.212165 -0.0369671 -0.976534 -0.211379 0.0106128 -0.977347 
0.491837 -0.223347 -0.841554 0.206088 -0.180476 -0.961747 -0.021793 -0.187862 -0.981954 
-0.153779 -0.137865 -0.97844 -0.206103 -0.171472 -0.963389 -0.198588 -0.205686 -0.958257 
-0.204299 -0.15693 -0.966248 0.282701 -0.440131 -0.85227 0.251581 -0.455906 -0.853731 
0.247993 -0.438038 -0.864073 0.0100589 -0.412789 -0.910771 -0.00433686 -0.384476 -0.923125 
-0.133255 -0.345766 -0.928811 -0.116754 -0.368405 -0.922305 -0.122028 -0.355903 -0.926521 

