# vtk DataFile Version 4.2
vtk output
ASCII
DATASET POLYDATA
POINTS 518 float
-13.5371 -27.683 -21.3201 -28.9021 -35.3655 -15.2243 -21.2196 -35.3655 -17.556 
-13.5371 -28.6007 -21.0882 -13.5371 -35.3655 -19.2948 -5.85455 -35.3655 -19.408 
1.82796 -35.3655 -18.6088 9.51047 -35.3655 -16.4511 -36.5846 -27.683 -17.9762 
-28.9021 -27.683 -20.0466 -15.7029 -27.683 -21.0882 -21.2196 -27.683 -20.5427 
-10.7488 -27.683 -21.0882 -13.5371 -23.2208 -21.0882 -5.85455 -27.683 -20.6979 
1.82796 -27.683 -19.8728 9.51047 -27.683 -18.2873 17.193 -27.683 -17.5741 
24.8755 -27.683 -16.5076 32.558 -27.683 -14.8153 -44.2671 -20.0004 -17.3774 
-36.5846 -20.0004 -19.7542 -28.9021 -20.0004 -20.8638 -21.2196 -20.0004 -21.0444 
-13.5371 -20.0004 -20.9182 -5.85455 -20.0004 -19.9056 1.82796 -20.0004 -18.6346 
9.51047 -20.0004 -17.8729 17.193 -20.0004 -18.1578 24.8755 -20.0004 -17.9786 
32.558 -20.0004 -17.6822 40.2405 -20.0004 -16.5393 -44.2671 -12.3179 -18.6832 
-36.5846 -12.3179 -20.21 -28.9021 -12.3179 -20.3185 -21.2196 -12.3179 -20.1109 
-13.5371 -12.3179 -19.331 -5.85455 -12.3179 -18.1396 1.82796 -12.3179 -16.6223 
9.51047 -12.3179 -16.4404 17.193 -12.3179 -17.0743 24.8755 -12.3179 -17.942 
32.558 -12.3179 -19.2454 40.2405 -12.3179 -18.6933 47.923 -12.3179 -16.7057 
-51.9496 -4.63543 -14.9338 -44.2671 -4.63543 -19.209 -36.5846 -4.63543 -19.9443 
-28.9021 -4.63543 -19.4111 -21.2196 -4.63543 -18.3799 -13.5371 -4.63543 -17.0503 
-5.85455 -4.63543 -17.9683 1.82796 -4.63543 -16.7801 9.51047 -4.63543 -16.5872 
17.193 -4.63543 -14.7642 24.8755 -4.63543 -17.1027 32.558 -4.63543 -18.4498 
40.2405 -4.63543 -19.1622 47.923 -4.63543 -19.2882 55.6055 -4.63543 -16.7917 
-51.9496 3.04708 -15.9609 -44.2671 3.04708 -19.5417 -36.5846 3.04708 -19.6823 
-28.9021 3.04708 -18.7884 -21.2196 3.04708 -17.1759 -13.5371 3.04708 -15.7556 
-5.85455 3.04708 -16.8063 9.51047 3.04708 -14.0937 17.193 3.04708 -13.8112 
24.8755 3.04708 -16.4063 32.558 3.04708 -18.7058 40.2405 3.04708 -18.6017 
47.923 3.04708 -18.5999 55.6055 3.04708 -16.7744 -51.9496 10.7296 -15.3984 
-44.2671 10.7296 -18.5737 -36.5846 10.7296 -18.7342 -28.9021 10.7296 -17.9432 
-21.2196 10.7296 -16.6689 -13.5371 10.7296 -14.1838 24.8755 10.7296 -14.5037 
32.558 10.7296 -16.373 40.2405 10.7296 -17.3318 47.923 10.7296 -16.104 
-44.2671 18.4121 -15.9677 -36.5846 18.4121 -16.947 -28.9021 18.4121 -16.1508 
-21.2196 18.4121 -14.3053 -28.9021 -36.8681 -13.4057 -21.2196 -39.3081 -13.4057 
-13.5371 -41.5582 -13.4057 -5.85455 -42.4884 -13.4057 -5.85455 -43.048 -8.01257 
1.82796 -41.5424 -13.4057 9.51047 -38.5024 -13.4057 -32.1705 -35.3655 -13.4057 
-36.5846 -32.765 -13.4057 -36.5846 -35.3655 -6.64613 16.8262 -35.3655 -13.4057 
17.193 -35.1344 -13.4057 17.193 -35.3655 -13.0231 24.8755 -32.2564 -13.4057 
32.558 -29.1129 -13.4057 -42.7626 -27.683 -13.4057 -44.2671 -26.1844 -13.4057 
-44.2671 -27.683 -10.4918 35.3637 -27.683 -13.4057 40.2405 -24.4297 -13.4057 
40.2405 -27.683 -6.77258 -48.3935 -20.0004 -13.4057 46.6569 -20.0004 -13.4057 
47.923 -18.8337 -13.4057 47.923 -20.0004 -12.0393 -51.8442 -12.3179 -13.4057 
-51.9496 -11.9958 -13.4057 -51.9496 -12.3179 -13.2689 54.2649 -12.3179 -13.4057 
55.6055 -10.8187 -13.4057 55.6055 -12.3179 -11.6944 -53.9365 -4.63543 -13.4057 
1.82796 2.296 -13.4057 59.3765 -4.63543 -13.4057 -55.6775 3.04708 -13.4057 
1.01067 3.04708 -13.4057 -5.85455 10.7068 -13.4057 5.11635 3.04708 -13.4057 
1.82796 3.04708 -13.0123 9.51047 4.24595 -13.4057 17.193 4.31777 -13.4057 
60.2767 3.04708 -13.4057 55.6055 10.5465 -13.4057 63.288 3.04708 -6.99604 
-55.0984 10.7296 -13.4057 -51.9496 16.9105 -13.4057 -5.93908 10.7296 -13.4057 
-13.5371 13.6727 -13.4057 -5.85455 10.7296 -13.396 1.82796 10.7296 -13.0395 
9.51047 10.7296 -10.7563 22.2442 10.7296 -13.4057 17.193 10.7296 -11.3761 
24.8755 12.9896 -13.4057 32.558 16.8203 -13.4057 40.2405 17.419 -13.4057 
55.4123 10.7296 -13.4057 47.923 14.9599 -13.4057 55.6055 10.7296 -13.3118 
-50.6326 18.4121 -13.4057 -51.9496 18.4121 -12.6869 -44.2671 23.0164 -13.4057 
-36.5846 24.7532 -13.4057 -28.9021 24.0522 -13.4057 -18.0604 18.4121 -13.4057 
-21.2196 20.6247 -13.4057 -13.5371 18.4121 -12.1116 -5.85455 18.4121 -10.9264 
1.82796 18.4121 -11.1899 9.51047 18.4121 -9.90447 17.193 18.4121 -9.54468 
24.8755 18.4121 -10.7217 32.558 18.4121 -12.357 40.2405 18.4121 -12.7265 
47.923 18.4121 -10.4321 -51.9496 26.0946 -6.15237 -44.2671 26.0946 -11.3713 
-36.5846 26.0946 -12.6475 -28.9021 26.0946 -12.387 -21.2196 26.0946 -11.2311 
-13.5371 26.0946 -9.92958 -5.85455 26.0946 -9.24634 1.82796 26.0946 -9.16336 
9.51047 26.0946 -8.66912 17.193 26.0946 -7.46669 24.8755 26.0946 -6.70027 
32.558 26.0946 -6.17697 -36.5846 33.7771 -5.84872 -28.9021 33.7771 -7.17555 
-21.2196 33.7771 -7.21488 -13.5371 33.7771 -7.07204 -5.85455 33.7771 -6.0356 
-5.85455 -43.2337 -5.72318 -36.5846 -35.6125 -5.72318 -28.9021 -39.0524 -5.72318 
-21.2196 -41.3994 -5.72318 -9.55759 -43.048 -5.72318 -13.5371 -42.847 -5.72318 
-3.43696 -43.048 -5.72318 -5.85455 -43.048 -5.06186 1.82796 -42.6226 -5.72318 
9.51047 -40.3788 -5.72318 17.193 -37.7127 -5.72318 -36.9652 -35.3655 -5.72318 
-44.2671 -29.4435 -5.72318 -36.5846 -35.3655 -5.01288 23.5664 -35.3655 -5.72318 
24.8755 -34.9051 -5.72318 32.558 -31.8776 -5.72318 40.2405 -28.0423 -5.72318 
-46.0288 -27.683 -5.72318 -44.2671 -27.683 -1.37853 40.8747 -27.683 -5.72318 
40.2405 -27.683 -4.66368 47.923 -23.1806 -5.72318 -51.7356 -20.0004 -5.72318 
-51.9496 -19.5956 -5.72318 51.8144 -20.0004 -5.72318 55.6055 -15.9881 -5.72318 
-55.6226 -12.3179 -5.72318 58.1722 -12.3179 -5.72318 -57.9054 -4.63543 -5.72318 
62.7875 -4.63543 -5.72318 63.288 -0.236385 -5.72318 -59.5788 3.04708 -5.72318 
63.6271 3.04708 -5.72318 63.288 4.94002 -5.72318 63.288 3.04708 -3.29434 
-59.3778 10.7296 -5.72318 62.016 10.7296 -5.72318 55.6055 18.3608 -5.72318 
-57.3039 18.4121 -5.72318 40.2405 25.6342 -5.72318 55.5231 18.4121 -5.72318 
47.923 22.628 -5.72318 55.6055 18.4121 -5.5104 -52.2792 26.0946 -5.72318 
-51.9496 26.3987 -5.72318 -44.2671 31.5508 -5.72318 1.82796 32.6729 -5.72318 
9.51047 31.9089 -5.72318 17.193 29.2861 -5.72318 24.8755 27.9052 -5.72318 
36.4971 26.0946 -5.72318 32.558 26.5991 -5.72318 40.2405 26.0946 -4.87694 
-36.866 33.7771 -5.72318 -44.2671 33.7771 1.33178 -36.5846 33.8758 -5.72318 
-28.9021 35.2757 -5.72318 -21.2196 35.9181 -5.72318 -13.5371 35.6514 -5.72318 
-3.23902 33.7771 -5.72318 -5.85455 34.2281 -5.72318 1.82796 33.7771 -4.95474 
9.51047 33.7771 -4.42166 17.193 33.7771 -2.7959 24.8755 33.7771 -0.690402 
-21.2196 41.4596 1.72591 -13.5371 41.4596 1.77822 -28.9021 -36.8872 1.95933 
-21.2196 -39.8657 1.95933 -13.5371 -41.1218 1.95933 -5.85455 -40.9385 1.95933 
1.82796 -39.9405 1.95933 9.51047 -38.2084 1.95933 17.193 -35.7633 1.95933 
-31.6693 -35.3655 1.95933 -36.5846 -32.3151 1.95933 -28.9021 -35.3655 4.27537 
-21.2196 -35.3655 9.04087 9.51047 -35.3655 8.00862 18.2683 -35.3655 1.95933 
17.193 -35.3655 2.85072 24.8755 -32.7612 1.95933 32.558 -29.3388 1.95933 
-42.5216 -27.683 1.95933 -44.2671 -26.0217 1.95933 -36.5846 -27.683 7.1623 
35.8166 -27.683 1.95933 32.558 -27.683 4.79468 40.2405 -25.3359 1.95933 
47.923 -20.2917 1.95933 -49.4436 -20.0004 1.95933 -51.9496 -16.0068 1.95933 
-44.2671 -20.0004 7.60106 48.3746 -20.0004 1.95933 47.923 -20.0004 2.4311 
55.6055 -13.3505 1.95933 -53.978 -12.3179 1.95933 -51.9496 -12.3179 4.82467 
56.2997 -12.3179 1.95933 55.6055 -12.3179 3.07315 -56.7109 -4.63543 1.95933 
-51.9496 -4.63543 8.81349 61.3624 -4.63543 1.95933 -58.4331 3.04708 1.95933 
62.5341 3.04708 1.95933 -58.3651 10.7296 1.95933 61.5871 10.7296 1.95933 
-56.5494 18.4121 1.95933 -51.9496 18.4121 8.95064 47.923 25.9634 1.95933 
57.2366 18.4121 1.95933 55.6055 19.9594 1.95933 55.6055 18.4121 6.84658 
-52.6088 26.0946 1.95933 -51.9496 26.9291 1.95933 -51.9496 26.0946 3.16234 
32.558 32.3621 1.95933 47.6532 26.0946 1.95933 40.2405 29.2939 1.95933 
-44.5296 33.7771 1.95933 -44.2671 33.9515 1.95933 -44.2671 33.7771 2.46397 
-36.5846 37.991 1.95933 -28.9021 40.2017 1.95933 -5.85455 40.2773 1.95933 
1.82796 39.4129 1.95933 9.51047 38.5533 1.95933 17.193 37.5962 1.95933 
29.1248 33.7771 1.95933 24.8755 35.4791 1.95933 -21.8979 41.4596 1.95933 
-21.2196 41.5681 1.95933 -21.2196 41.4596 6.10725 -12.8845 41.4596 1.95933 
-13.5371 41.5577 1.95933 -13.5371 41.4596 7.4347 -13.5371 -36.7396 9.64184 
-5.85455 -36.9095 9.64184 1.82796 -35.8048 9.64184 -28.9021 -29.5308 9.64184 
-19.379 -35.3655 9.64184 -21.2196 -34.6358 9.64184 -13.5371 -35.3655 11.0166 
-5.85455 -35.3655 11.2521 4.42783 -35.3655 9.64184 1.82796 -35.3655 10.1609 
9.51047 -34.4128 9.64184 17.193 -31.7068 9.64184 24.8755 -27.8016 9.64184 
-31.6939 -27.683 9.64184 -36.5846 -23.8812 9.64184 -28.9021 -27.683 10.7008 
-21.2196 -27.683 13.4909 -13.5371 -27.683 15.057 -5.85455 -27.683 15.3868 
1.82796 -27.683 15.8878 9.51047 -27.683 15.765 17.193 -27.683 13.5857 
25.1382 -27.683 9.64184 24.8755 -27.683 9.76228 32.558 -24.0866 9.64184 
40.2405 -20.2133 9.64184 -40.8708 -20.0004 9.64184 -44.2671 -16.2577 9.64184 
-36.5846 -20.0004 11.4714 -28.9021 -20.0004 13.897 -21.2196 -20.0004 15.2124 
-13.5371 -20.0004 16.6525 -5.85455 -20.0004 17.141 17.193 -20.0004 16.9463 
24.8755 -20.0004 15.2241 32.558 -20.0004 13.1312 40.5801 -20.0004 9.64184 
40.2405 -20.0004 9.86299 47.923 -14.5272 9.64184 -46.85 -12.3179 9.64184 
-44.2671 -12.3179 11.3503 -36.5846 -12.3179 14.2063 -28.9021 -12.3179 15.446 
-21.2196 -12.3179 16.096 40.2405 -12.3179 15.8169 50.1982 -12.3179 9.64184 
47.923 -12.3179 11.5704 55.6055 -6.26899 9.64184 -50.9551 -4.63543 9.64184 
-51.9496 -1.89163 9.64184 -44.2671 -4.63543 13.3122 -36.5846 -4.63543 15.4399 
-28.9021 -4.63543 16.0587 -21.2196 -4.63543 16.51 47.923 -4.63543 15.9857 
56.6888 -4.63543 9.64184 55.6055 -4.63543 10.7679 -53.1112 3.04708 9.64184 
-51.9496 3.04708 10.6673 -44.2671 3.04708 14.2676 -36.5846 3.04708 16.2434 
-28.9021 3.04708 16.8551 58.1493 3.04708 9.64184 55.6055 3.04708 12.3105 
-53.2576 10.7296 9.64184 -51.9496 16.2782 9.64184 -51.9496 10.7296 10.832 
[...]
POINT_DATA 518
SCALARS ImageScalars float
LOOKUP_TABLE default
0 0 0 0 0 0 0 0 0 
0 0 0 0 0 0 0 0 0 
0 0 0 0 0 0 0 0 0 
0 0 0 0 0 0 0 0 0 
0 0 0 0 0 0 0 0 0 
0 0 0 0 0 0 0 0 0 
0 0 0 0 0 0 0 0 0 
0 0 0 0 0 0 0 0 0 
0 0 0 0 0 0 0 0 0 
0 0 0 0 0 0 0 0 0 
0 0 0 0 0 0 0 0 0 
0 0 0 0 0 0 0 0 0 
0 0 0 0 0 0 0 0 0 
0 0 0 0 0 0 0 0 0 
0 0 0 0 0 0 0 0 0 
0 0 0 0 0 0 0 0 0 
0 0 0 0 0 0 0 0 0 
0 0 0 0 0 0 0 0 0 
0 0 0 0 0 0 0 0 0 
0 0 0 0 0 0 0 0 0 
0 0 0 0 0 0 0 0 0 
0 0 0 0 0 0 0 0 0 
0 0 0 0 0 0 0 0 0 
0 0 0 0 0 0 0 0 0 
0 0 0 0 0 0 0 0 0 
0 0 0 0 0 0 0 0 0 
0 0 0 0 0 0 0 0 0 
0 0 0 0 0 0 0 0 0 
0 0 0 0 0 0 0 0 0 
0 0 0 0 0 0 0 0 0 
0 0 0 0 0 0 0 0 0 
0 0 0 0 0 0 0 0 0 
0 0 0 0 0 0 0 0 0 
0 0 0 0 0 0 0 0 0 
0 0 0 0 0 0 0 0 0 
0 0 0 0 0 0 0 0 0 
0 0 0 0 0 0 0 0 0 
0 0 0 0 0 0 0 0 0 
0 0 0 0 0 0 0 0 0 
0 0 0 0 0 0 0 0 0 
0 0 0 0 0 0 0 0 0 
0 0 0 0 0 0 0 0 0 
0 0 0 0 0 0 0 0 0 
0 0 0 0 0 0 0 0 0 
0 0 0 0 0 0 0 0 0 
0 0 0 0 0 0 0 0 0 
0 0 0 0 0 0 0 0 0 
0 0 0 0 0 0 0 0 0 
0 0 0 0 0 0 0 0 0 
0 0 0 0 0 0 0 0 0 
0 0 0 0 0 0 0 0 0 
0 0 0 0 0 0 0 0 0 
0 0 0 0 0 0 0 0 0 
0 0 0 0 0 0 0 0 0 
0 0 0 0 0 0 0 0 0 
0 0 0 0 0 0 0 0 0 
0 0 0 0 0 0 0 0 0 
0 0 0 0 0 
NORMALS Normals float
-0.0115271 -0.0998287 -0.994938 -0.32642 -0.732925 -0.596884 -0.226773 -0.602694 -0.765071 
-0.0203218 -0.131826 -0.991065 -0.0993382 -0.423167 -0.900589 0.041946 -0.334241 -0.941554 
0.17271 -0.398418 -0.900796 0.335101 -0.511492 -0.791255 -0.411408 -0.435134 -0.800876 
-0.140084 -0.287805 -0.947388 -0.0302335 -0.121838 -0.992089 -0.0762233 -0.18226 -0.980291 
0.0259239 -0.0722922 -0.997047 0.038737 0.0323677 -0.998725 0.0896035 -0.0269478 -0.995613 
0.155919 0.00743834 -0.987742 0.143813 -0.06608 -0.987396 0.117156 -0.271203 -0.955366 
0.161388 -0.4044 -0.90023 0.338448 -0.617945 -0.709646 -0.517893 -0.333353 -0.787822 
-0.212193 -0.118216 -0.970051 -0.0798187 -0.0128941 -0.996726 -0.00396733 0.0264098 -0.999643 
0.0742518 0.125555 -0.989304 0.142708 0.160471 -0.97667 0.130667 0.203606 -0.970294 
0.0302668 0.118498 -0.992493 -0.00642651 0.0364184 -0.999316 0.0292341 -0.0898357 -0.995527 
0.0862624 -0.26024 -0.961683 0.291666 -0.4735 -0.831101 -0.381377 -0.103123 -0.91865 
-0.0899783 -0.0109558 -0.995883 0.00682528 0.0975484 -0.995207 0.0615847 0.165277 -0.984323 
0.123455 0.241084 -0.96262 0.171202 0.125898 -0.977159 0.108195 0.121766 -0.986644 
-0.029919 0.0844116 -0.995982 -0.0965029 0.2041 -0.974182 -0.137829 0.0514281 -0.98912 
-0.0458735 -0.0439706 -0.997979 0.141726 -0.141071 -0.979802 0.348062 -0.369784 -0.86146 
-0.594231 -0.153302 -0.789549 -0.289808 -0.0463474 -0.955962 -0.00704892 0.0340757 -0.999394 
0.0966582 0.0991468 -0.990367 0.154764 0.192925 -0.968931 0.0242413 0.223415 -0.974422 
0.0125017 0.0777669 -0.996893 0.0951572 0.172693 -0.980368 0.145526 0.117783 -0.982318 
-0.0531903 0.218301 -0.974431 -0.229089 0.100321 -0.968222 -0.132314 0.0365848 -0.990532 
-0.0535191 0.00259629 -0.998563 0.122184 -0.114679 -0.98586 0.523624 -0.209645 -0.825752 
-0.515567 -0.0241268 -0.856509 -0.225626 0.0366649 -0.973524 0.0501089 0.0774999 -0.995732 
0.15895 0.0934607 -0.982853 0.192748 0.106348 -0.975468 0.0363487 0.186891 -0.981708 
0.115963 0.306359 -0.944826 -0.042582 0.40285 -0.914275 -0.154091 0.21103 -0.965258 
-0.297872 0.152814 -0.942295 -0.139398 0.136054 -0.980845 0.00653359 0.111943 -0.993693 
0.0976904 0.19972 -0.974971 0.425238 0.183316 -0.886323 -0.476225 0.160783 -0.864499 
-0.225568 0.220893 -0.948855 0.0417772 0.167424 -0.984999 0.129626 0.165474 -0.977658 
0.240475 0.178817 -0.954042 0.203647 0.225616 -0.952694 -0.309426 0.339605 -0.888214 
-0.165461 0.354463 -0.920314 0.0125217 0.363199 -0.931628 0.208411 0.395599 -0.894464 
-0.217268 0.389216 -0.895157 -0.00755421 0.351319 -0.936225 0.158647 0.336711 -0.928147 
0.241285 0.327174 -0.91364 -0.348049 -0.800681 -0.487618 -0.275647 -0.825912 -0.491821 
-0.179527 -0.896623 -0.404769 -0.00834436 -0.938305 -0.345707 0.00594386 -0.999836 -0.01713 
0.217142 -0.868646 -0.445312 0.368524 -0.765364 -0.527643 -0.405001 -0.77531 -0.484632 
-0.490651 -0.707208 -0.509037 -0.507403 -0.861477 -0.0199887 0.320491 -0.719267 -0.616393 
0.313494 -0.714116 -0.625907 0.32255 -0.742308 -0.587316 0.28187 -0.709835 -0.64551 
0.374641 -0.69903 -0.609098 -0.602824 -0.605169 -0.519975 -0.626986 -0.570188 -0.530824 
-0.674221 -0.670134 -0.310398 0.40915 -0.681834 -0.606382 0.411537 -0.653772 -0.634995 
0.48606 -0.870754 -0.0743876 -0.731051 -0.390683 -0.559403 0.459486 -0.599586 -0.655263 
0.479253 -0.574378 -0.663631 0.524669 -0.657352 -0.540935 -0.694247 -0.290601 -0.658463 
-0.693733 -0.287644 -0.660299 -0.702712 -0.295276 -0.647308 0.605971 -0.477998 -0.635859 
0.638001 -0.45174 -0.623607 0.700997 -0.528336 -0.479025 -0.681825 -0.184789 -0.70779 
0.189893 0.280568 -0.940862 0.723979 -0.267305 -0.635926 -0.695848 -0.0572957 -0.7159 
0.195008 0.290624 -0.936755 0.078244 0.374479 -0.923928 0.0875981 0.337774 -0.937142 
0.189434 0.272172 -0.943418 -0.0301825 0.388741 -0.920853 -0.173848 0.22342 -0.959093 
0.693613 0.148678 -0.704838 0.472558 0.41054 -0.779837 0.987578 0.0510572 -0.148605 
-0.632927 0.18366 -0.752112 -0.516829 0.355588 -0.778746 0.0794664 0.372881 -0.92447 
0.214135 0.240478 -0.94674 0.0778659 0.374284 -0.924039 0.157432 0.117897 -0.980467 
0.119376 0.23852 -0.963773 -0.291529 0.326037 -0.899284 -0.21597 0.268203 -0.938842 
-0.283276 0.387025 -0.877477 -0.133735 0.535523 -0.833864 0.0714466 0.578747 -0.812372 
0.465653 0.415916 -0.781141 0.214946 0.533072 -0.818311 0.47595 0.417781 -0.773906 
-0.474148 0.402096 -0.783264 -0.548636 0.411321 -0.727882 -0.219841 0.526159 -0.821478 
-0.035705 0.460994 -0.886684 0.106336 0.415099 -0.90354 0.234183 0.304155 -0.92339 
0.215589 0.352041 -0.910818 0.214276 0.260044 -0.941522 0.0535997 0.234446 -0.97065 
0.0646092 0.238881 -0.968897 0.105598 0.130109 -0.98586 -0.0473289 0.239716 -0.969689 
-0.152398 0.455842 -0.876917 -0.116551 0.58256 -0.804388 0.0796373 0.612253 -0.786641 
0.267653 0.698638 -0.663526 -0.638087 0.698596 -0.323742 -0.259427 0.634332 -0.728231 
-0.0476953 0.495636 -0.86722 0.0855299 0.450934 -0.88845 0.147065 0.41106 -0.899667 
0.12354 0.310222 -0.942603 0.047102 0.302033 -0.952133 0.0361797 0.352884 -0.934967 
0.10074 0.303931 -0.947353 0.125335 0.371059 -0.920112 0.0724585 0.486985 -0.8704 
0.0775476 0.655492 -0.75121 -0.194133 0.803158 -0.563249 -0.0510382 0.699856 -0.712459 
0.00725814 0.563551 -0.82605 0.0701356 0.505794 -0.859798 0.121842 0.528751 -0.839986 
0.0136263 -0.994819 0.100748 -0.50241 -0.863888 0.0358024 -0.368139 -0.929771 -0.000328186 
-0.232934 -0.972231 -0.0225369 -0.0489742 -0.996445 0.0685449 -0.114862 -0.99285 0.0324805 
0.0663528 -0.992173 0.105782 0.0183724 -0.992356 0.12203 0.179682 -0.977631 0.109329 
0.301738 -0.952408 0.04327 0.332486 -0.943018 -0.0130369 -0.51123 -0.858708 0.0355644 
-0.689075 -0.724619 0.0101232 -0.505653 -0.859484 0.0748415 0.342138 -0.939644 0.00333549 
0.346886 -0.937895 0.00472998 0.417027 -0.908894 0.000576497 0.47798 -0.878368 -0.00242382 
-0.721616 -0.692282 0.00400248 -0.670595 -0.691209 0.269319 0.4858 -0.874068 -0.00175096 
0.48287 -0.874079 0.0531316 0.594738 -0.80331 -0.0313121 -0.863851 -0.49903 -0.0687741 
-0.867863 -0.491516 -0.0722915 0.677999 -0.733459 -0.0485293 0.776083 -0.627537 -0.0623829 
-0.923157 -0.372046 -0.0967598 0.824383 -0.563047 -0.0580598 -0.964048 -0.242848 -0.107871 
0.94855 -0.308114 -0.0729273 0.992032 -0.107602 -0.0655334 -0.991379 -0.0908451 -0.0944159 
0.997095 0.0356619 -0.0672973 0.990107 0.103761 -0.09446 0.998325 0.0253209 0.0520286 
-0.985381 0.129554 -0.110634 0.902693 0.364618 -0.228471 0.521784 0.790355 -0.321062 
-0.90492 0.370987 -0.208539 0.186331 0.790037 -0.584057 0.518473 0.791755 -0.32297 
0.366635 0.811553 -0.454928 0.527113 0.790835 -0.311017 -0.655985 0.696741 -0.290234 
-0.645627 0.703206 -0.29777 -0.36801 0.802135 -0.470264 0.0726419 0.573289 -0.816127 
0.109363 0.549974 -0.827991 0.132835 0.476789 -0.868923 0.106778 0.527932 -0.842548 
0.139578 0.733971 -0.664684 0.0947722 0.664464 -0.741287 0.212805 0.81157 -0.544121 
-0.200919 0.807368 -0.554788 -0.526131 0.850368 -0.00784266 -0.196031 0.806478 -0.557822 
-0.092146 0.737927 -0.668561 -0.016096 0.638297 -0.769622 0.0710706 0.577284 -0.813445 
0.108813 0.557527 -0.822997 0.124576 0.546983 -0.827823 0.0806257 0.63184 -0.770894 
0.107189 0.667096 -0.73722 0.168183 0.712309 -0.681418 0.294218 0.814414 -0.500165 
-0.0796543 0.967478 -0.240088 0.0773635 0.957906 -0.276462 -0.411004 -0.817006 0.404447 
-0.245678 -0.903552 0.351049 -0.0638855 -0.936886 0.343749 0.0720079 -0.930485 0.359183 
0.166755 -0.904633 0.392213 0.245927 -0.906583 0.342969 0.316803 -0.892592 0.320804 
-0.444779 -0.787 0.427554 -0.495291 -0.72644 0.476415 -0.422422 -0.756936 0.498605 
-0.275852 -0.663186 0.695766 0.213062 -0.839329 0.500131 0.325478 -0.888246 0.324164 
0.318446 -0.883026 0.344758 0.366534 -0.851479 0.375016 0.394928 -0.830841 0.392091 
-0.592123 -0.651754 0.473927 -0.621356 -0.626019 0.471187 -0.452983 -0.576906 0.679696 
0.434805 -0.8085 0.396575 0.392698 -0.790127 0.470624 0.473385 -0.782261 0.404937 
0.516593 -0.767908 0.378746 -0.735392 -0.520522 0.433885 -0.792598 -0.458082 0.40243 
-0.544096 -0.486093 0.683866 0.523256 -0.763918 0.377669 0.516083 -0.762372 0.390445 
0.746055 -0.564677 0.352904 -0.83557 -0.402065 0.374387 -0.743725 -0.407724 0.52975 
0.766796 -0.541158 0.345212 0.743469 -0.545693 0.386617 -0.898214 -0.26118 0.353549 
-0.662645 -0.248312 0.706571 0.854254 -0.370483 0.364682 -0.921327 -0.103823 0.374668 
0.941189 -0.00899014 0.337761 -0.928435 0.116838 0.352643 0.92561 0.285804 0.248116 
-0.884699 0.336237 0.322883 -0.684196 0.263985 0.679844 0.496845 0.865812 -0.0592809 
0.745474 0.661971 0.077862 0.697756 0.715362 0.0373401 0.728144 0.596961 0.336813 
-0.800376 0.563306 0.205147 -0.785313 0.586228 0.199049 -0.778581 0.562959 0.277288 
0.348883 0.87951 -0.323641 0.492583 0.867874 -0.0644737 0.39609 0.897971 -0.191731 
-0.541846 0.839795 0.0338789 -0.535076 0.844298 0.0292392 -0.543008 0.837431 0.06206 
-0.363207 0.930154 -0.0537993 -0.221469 0.962559 -0.156304 0.133058 0.937766 -0.320765 
0.107656 0.928185 -0.356207 0.112686 0.927519 -0.356386 0.19816 0.911007 -0.361662 
0.348695 0.879089 -0.324984 0.327496 0.883761 -0.334235 -0.0943742 0.971041 -0.219482 
-0.0816385 0.970779 -0.225664 -0.111608 0.991341 0.0691884 0.0816574 0.95972 -0.268829 
0.0764965 0.961312 -0.264628 0.033849 0.983993 0.174961 -0.10464 -0.719218 0.68686 
0.0550497 -0.755456 0.652883 0.131722 -0.782413 0.60867 -0.346064 -0.493414 0.797986 
-0.235269 -0.65512 0.71796 -0.274782 -0.620818 0.734221 -0.110806 -0.655444 0.747071 
0.0408333 -0.684923 0.72747 0.154709 -0.792929 0.589347 0.125163 -0.768116 0.627958 
0.200953 -0.802136 0.562312 0.32624 -0.738868 0.589611 0.357711 -0.685186 0.634479 
-0.359856 -0.476279 0.802285 -0.37839 -0.456357 0.805332 -0.32295 -0.435424 0.840303 
-0.258256 -0.335975 0.905773 -0.111969 -0.321663 0.940211 -0.0495109 -0.319941 0.946143 
-0.0255086 -0.413005 0.910372 0.119461 -0.50377 0.855538 0.306813 -0.560809 0.768999 
0.357573 -0.68504 0.634714 0.356804 -0.681304 0.639153 0.344126 -0.680729 0.646673 
0.397055 -0.675516 0.62131 -0.429698 -0.425191 0.7966 -0.48781 -0.395268 0.778334 
-0.32272 -0.369473 0.871402 -0.224662 -0.276895 0.934268 -0.167706 -0.152836 0.973918 
-0.119451 -0.164036 0.979196 -0.0864494 -0.230927 0.969123 0.215292 -0.234831 0.947894 
0.21121 -0.410347 0.887133 0.278115 -0.569902 0.773216 0.40043 -0.674104 0.620677 
0.39417 -0.671466 0.627506 0.515574 -0.584209 0.626804 -0.515777 -0.343575 0.784812 
-0.448782 -0.307001 0.839252 -0.231043 -0.249713 0.940352 -0.118599 -0.133398 0.983941 
-0.142509 -0.0802074 0.986538 0.28954 -0.452941 0.843215 0.549836 -0.546222 0.63192 
0.505497 -0.525665 0.684214 0.670503 -0.388865 0.631831 -0.608203 -0.236502 0.757731 
-0.633219 -0.189074 0.750523 -0.374667 -0.165069 0.912347 -0.168722 -0.126298 0.977539 
-0.0702527 -0.0885079 0.993595 -0.210232 -0.0836558 0.974066 0.440962 -0.291162 0.848986 
0.70027 -0.3328 0.631559 0.666067 -0.336032 0.665912 -0.654619 -0.0963335 0.749796 
-0.606172 -0.097485 0.789336 -0.347213 -0.0743924 0.934831 -0.163753 -0.0805172 0.98321 
-0.076151 -0.101489 0.991918 0.762174 -0.0425613 0.645971 0.67176 -0.0471122 0.739269 
-0.67463 0.0859189 0.733139 -0.658822 0.205907 0.723571 -0.619925 0.0814809 0.780419 
-0.357404 -0.0103622 0.933893 -0.197585 -0.0527652 0.978865 0.464983 0.0729963 0.882305 
0.768065 0.192756 0.610673 0.72785 0.417507 0.543987 0.704186 0.176593 0.687704 
-0.646632 0.252597 0.719765 -0.452339 0.160807 0.877229 -0.210417 0.0795178 0.974372 
0.689578 0.531392 0.492042 0.590186 0.692534 0.414822 0.535709 0.426723 0.728645 
-0.577384 0.42292 0.698403 -0.572704 0.482773 0.662526 -0.546049 0.391299 0.740753 
-0.302454 0.29671 0.905806 -0.176588 0.237441 0.955216 0.402918 0.882928 0.241028 
0.550451 0.752632 0.361315 0.497357 0.813574 0.30122 0.470817 0.701217 0.535375 
-0.467483 0.682797 0.56147 -0.425103 0.726713 0.539607 -0.407833 0.662618 0.62818 
-0.318982 0.825783 0.465116 -0.293684 0.546553 0.784238 -0.130265 0.937504 0.322672 
-0.123157 0.381863 0.915976 0.0133592 0.935684 0.352586 -0.0463683 0.425366 0.903833 
0.0805098 0.968231 0.23674 -0.0964317 0.413541 0.905364 0.1085 0.969751 0.218657 
0.137541 0.965324 0.221883 0.131816 0.551906 0.823422 0.205566 0.941792 0.266027 
0.178315 0.671624 0.719114 0.386524 0.890327 0.240659 0.315434 0.917881 0.240822 
0.289772 0.797889 0.528588 -0.0825599 -0.297416 0.951172 0.0879658 -0.362851 0.927686 
-0.170367 -0.178249 0.969124 -0.0905672 -0.234331 0.967929 -0.0910473 -0.230696 0.968757 
-0.107945 -0.245939 0.963256 0.185839 -0.232809 0.954602 0.0708818 -0.243122 0.967402 
0.183142 -0.186274 0.965278 0.0785754 -0.288359 0.954293 0.116735 -0.367085 0.922833 
-0.189637 -0.157789 0.969092 -0.212952 -0.199034 0.956576 -0.123893 -0.244666 0.96166 
-0.0487211 -0.124123 0.99107 0.138991 -0.177798 0.974202 0.124478 -0.101452 0.987022 
0.0401008 -0.258914 0.965068 0.118731 -0.367358 0.92247 0.115971 -0.36603 0.923349 
0.246382 -0.348776 0.904241 -0.239765 -0.106509 0.964971 -0.209237 -0.133245 0.968744 
-0.317903 -0.184089 0.93008 0.0138885 -0.0968688 0.9952 -0.0419313 -0.00433285 0.999111 
0.104507 -0.193196 0.975579 0.124995 -0.170928 0.977323 -0.065602 -0.195217 0.978564 
0.037273 -0.233013 0.971759 0.333421 -0.26805 0.903869 0.213816 -0.256966 0.942471 
0.431643 -0.0659882 0.899628 -0.192905 -0.132975 0.972165 -0.10884 -0.0925505 0.989741 
-0.20936 -0.136933 0.968203 -0.244889 -0.00479884 0.969539 0.0444908 0.00497277 0.998997 
-0.164844 -0.139753 0.976369 -0.0127226 -0.0692714 0.997517 0.119513 -0.185297 0.975388 
-0.0312406 -0.143794 0.989114 0.0574092 -0.117992 0.991354 0.228487 -0.0873454 0.969621 
0.432138 -0.0632005 0.89959 0.435262 -0.04916 0.898961 0.431496 -0.0632207 0.899897 
-0.15039 -0.0779912 0.985546 -0.128411 -0.0870484 0.987893 -0.160799 -0.0946554 0.982438 
-0.14841 0.10869 0.982935 -0.102001 0.0473789 0.993655 -0.117556 -0.0750998 0.990223 
0.0288754 0.10583 0.993965 0.0667632 -0.0170895 0.997622 -0.00172856 -0.00402737 0.99999 
0.0880049 0.0417165 0.995246 0.454473 0.0703708 0.887977 0.253239 0.0806155 0.964039 
-0.191265 0.0725607 0.978853 -0.159205 0.176794 0.971287 -0.122339 0.0442688 0.991501 
-0.0545567 0.0345397 0.997913 -0.0665489 0.116076 0.991008 -0.155804 0.113204 0.98128 
-0.0874629 0.0908816 0.992014 0.0342869 0.166505 0.985444 0.0151069 0.137528 0.990383 
0.0279949 0.191135 0.981165 0.142927 0.230896 0.962423 0.41387 0.362074 0.835233 
0.331819 0.439779 0.83456 0.269345 0.313664 0.910532 -0.148921 0.210901 0.966097 
-0.100736 0.249433 0.963138 -0.086168 0.162429 0.982951 -0.05187 0.282108 0.95798 
-0.0610314 0.174866 0.982699 -0.101898 0.375571 0.921175 -0.129887 0.173739 0.976189 
-0.0587984 0.226073 0.972334 0.123672 0.504335 0.854606 0.0696361 0.261151 0.962783 
0.121424 0.461404 0.878842 0.0871855 0.307533 0.947535 0.135608 0.466188 0.87423 
0.0894998 0.382945 0.919425 0.267191 0.526837 0.806877 0.247965 0.532058 0.809585 
0.232237 0.503952 0.831925 -0.0656161 0.437939 0.896607 0.0814783 0.525055 0.847159 
0.0113303 0.539865 0.841675 0.00484432 0.50738 0.861709 
