# vtk DataFile Version 4.2
vtk output
ASCII
DATASET POLYDATA
POINTS 522 float
-38.3289 -30.1205 -15.7677 -30.1182 -30.1205 -17.45 -21.9075 -30.1205 -17.0354 
-13.6969 -30.1205 -17.1861 -5.48622 -30.1205 -17.1898 2.72445 -30.1205 -17.4378 
10.9351 -30.1205 -17.9829 19.1458 -30.1205 -18.3846 27.3564 -30.1205 -17.827 
35.5671 -30.1205 -17.2224 -46.5395 -21.9098 -17.4674 -38.3289 -21.9098 -19.4349 
-30.1182 -21.9098 -19.4121 -21.9075 -21.9098 -18.6311 -13.6969 -21.9098 -18.2562 
-5.48622 -21.9098 -19.4765 2.72445 -21.9098 -19.6106 10.9351 -21.9098 -18.8344 
19.1458 -21.9098 -19.497 27.3564 -21.9098 -19.6859 35.5671 -21.9098 -19.7359 
43.7778 -21.9098 -18.6385 -54.7502 -13.6991 -16.8902 -46.5395 -13.6991 -20.4953 
-38.3289 -13.6991 -20.8354 -30.1182 -13.6991 -20.0775 -21.9075 -13.6991 -19.0129 
-13.6969 -13.6991 -19.2552 -5.48622 -13.6991 -21.8654 2.72445 -13.6991 -20.8912 
10.9351 -13.6991 -18.6105 19.1458 -13.6991 -19.2862 27.3564 -13.6991 -20.6274 
35.5671 -13.6991 -21.8589 43.7778 -13.6991 -20.6823 51.9884 -13.6991 -17.8008 
-54.7502 -5.48847 -18.1409 -46.5395 -5.48847 -20.5828 -38.3289 -5.48847 -21.7198 
-30.1182 -5.48847 -20.686 -21.9075 -5.48847 -19.0711 -13.6969 -5.48847 -20.3192 
-5.48622 -5.48847 -21.5688 2.72445 -5.48847 -19.5557 10.9351 -5.48847 -20.9798 
19.1458 -5.48847 -18.8922 27.3564 -5.48847 -20.3367 35.5671 -5.48847 -21.3749 
43.7778 -5.48847 -21.471 51.9884 -5.48847 -19.8146 -54.7502 2.72219 -17.9798 
-46.5395 2.72219 -20.4588 -38.3289 2.72219 -21.5668 -30.1182 2.72219 -20.5239 
-21.9075 2.72219 -18.9504 -13.6969 2.72219 -21.6728 -5.48622 2.72219 -21.3519 
2.72445 2.72219 -19.1374 10.9351 2.72219 -20.5226 19.1458 2.72219 -18.2856 
27.3564 2.72219 -20.0051 35.5671 2.72219 -21.2144 43.7778 2.72219 -21.1695 
51.9884 2.72219 -19.3211 -54.7502 10.9329 -16.9594 -46.5395 10.9329 -20.3725 
-38.3289 10.9329 -20.6611 -30.1182 10.9329 -19.9924 -21.9075 10.9329 -18.8115 
-13.6969 10.9329 -18.9973 -5.48622 10.9329 -19.8646 2.72445 10.9329 -18.4247 
10.9351 10.9329 -18.1095 19.1458 10.9329 -18.3789 27.3564 10.9329 -20.0428 
35.5671 10.9329 -20.7476 43.7778 10.9329 -20.0172 51.9884 10.9329 -18.0525 
-46.5395 19.1435 -18.0558 -38.3289 19.1435 -19.0942 -30.1182 19.1435 -19.814 
-21.9075 19.1435 -18.4822 -13.6969 19.1435 -17.4085 -5.48622 19.1435 -17.1659 
2.72445 19.1435 -17.5481 10.9351 19.1435 -18.3975 19.1458 19.1435 -19.0355 
27.3564 19.1435 -18.8524 35.5671 19.1435 -19.0884 43.7778 19.1435 -17.9223 
-46.5395 27.3542 -15.2015 -38.3289 27.3542 -17.0442 -30.1182 27.3542 -17.8841 
-21.9075 27.3542 -17.1542 -13.6969 27.3542 -16.8279 -5.48622 27.3542 -16.3963 
2.72445 27.3542 -16.7089 10.9351 27.3542 -16.9292 19.1458 27.3542 -16.9602 
27.3564 27.3542 -16.8794 35.5671 27.3542 -15.6866 -38.3289 -31.3643 -15.0068 
-38.3289 -38.3311 -8.50277 -30.1182 -35.5183 -15.0068 -30.1182 -38.3311 -12.8507 
-21.9075 -37.5976 -15.0068 -21.9075 -38.3311 -14.74 -13.6969 -35.2704 -15.0068 
-13.6969 -38.3311 -13.5296 -5.48622 -35.2198 -15.0068 -5.48622 -38.3311 -13.4046 
2.72445 -35.8447 -15.0068 2.72445 -38.3311 -13.6829 10.9351 -37.0247 -15.0068 
10.9351 -38.3311 -14.1903 19.1458 -37.1215 -15.0068 19.1458 -38.3311 -14.1711 
27.3564 -36.0459 -15.0068 27.3564 -38.3311 -12.9072 35.5671 -32.973 -15.0068 
-41.5973 -30.1205 -15.0068 -46.5395 -27.5437 -15.0068 -46.5395 -30.1205 -13.3377 
41.0773 -30.1205 -15.0068 43.7778 -28.2764 -15.0068 43.7778 -30.1205 -12.9932 
-52.149 -21.9098 -15.0068 -54.7502 -18.9872 -15.0068 -54.7502 -21.9098 -13.137 
50.7303 -21.9098 -15.0068 51.9884 -20.4014 -15.0068 51.9884 -21.9098 -13.8297 
-57.9114 -13.6991 -15.0068 55.8612 -13.6991 -15.0068 60.1991 -13.6991 -9.20485 
-58.7582 -5.48847 -15.0068 -62.9609 -5.48847 -7.2278 59.0293 -5.48847 -15.0068 
60.1991 -5.48847 -13.7274 -58.5666 2.72219 -15.0068 -62.9609 2.72219 -6.96757 
58.6956 2.72219 -15.0068 60.1991 2.72219 -13.4485 -57.1999 10.9329 -15.0068 
-54.7502 16.4715 -15.0068 56.4338 10.9329 -15.0068 51.9884 17.8469 -15.0068 
60.1991 10.9329 -10.1217 -52.6807 19.1435 -15.0068 -54.7502 19.1435 -13.3986 
50.5134 19.1435 -15.0068 43.7778 24.4001 -15.0068 51.9884 19.1435 -14.1051 
-46.8741 27.3542 -15.0068 -54.7502 27.3542 -6.98903 -46.5395 27.732 -15.0068 
-38.3289 31.0764 -15.0068 -30.1182 34.0311 -15.0068 -21.9075 32.9965 -15.0068 
-13.6969 33.0568 -15.0068 -5.48622 33.367 -15.0068 2.72445 32.8241 -15.0068 
10.9351 31.8001 -15.0068 19.1458 30.9531 -15.0068 27.3564 30.5443 -15.0068 
37.9147 27.3542 -15.0068 35.5671 28.2408 -15.0068 43.7778 27.3542 -12.7104 
-38.3289 35.5648 -11.9954 -30.1182 35.5648 -14.0139 -21.9075 35.5648 -13.8298 
-13.6969 35.5648 -14.0355 -5.48622 35.5648 -14.4198 2.72445 35.5648 -13.9928 
10.9351 35.5648 -12.9572 19.1458 35.5648 -11.7954 27.3564 35.5648 -10.326 
35.5671 35.5648 -7.02669 -38.3289 -39.3906 -6.7961 -30.1182 -42.545 -6.7961 
-21.9075 -44.5146 -6.7961 -13.6969 -44.9673 -6.7961 -5.48622 -44.7781 -6.7961 
2.72445 -44.4772 -6.7961 10.9351 -44.0361 -6.7961 19.1458 -43.3599 -6.7961 
27.3564 -41.5802 -6.7961 -40.2404 -38.3311 -6.7961 -46.5395 -34.6386 -6.7961 
-38.3289 -38.3311 -0.0880677 35.5433 -38.3311 -6.7961 35.5671 -38.3211 -6.7961 
43.7778 -33.6367 -6.7961 -52.0517 -30.1205 -6.7961 -54.7502 -27.1798 -6.7961 
48.3747 -30.1205 -6.7961 51.9884 -26.8918 -6.7961 -58.4467 -21.9098 -6.7961 
56.4717 -21.9098 -6.7961 60.1991 -16.1109 -6.7961 -62.483 -13.6991 -6.7961 
-62.9609 -7.97989 -6.7961 61.3612 -13.6991 -6.7961 -63.1385 -5.48847 -6.7961 
-62.9609 -5.48847 -5.64343 63.976 -5.48847 -6.7961 -63.0301 2.72219 -6.7961 
-62.9609 3.15831 -6.7961 -62.9609 2.72219 -6.43214 63.888 2.72219 -6.7961 
-61.674 10.9329 -6.7961 62.0216 10.9329 -6.7961 60.1991 15.735 -6.7961 
-58.9437 19.1435 -6.7961 58.4575 19.1435 -6.7961 51.9884 26.5528 -6.7961 
-54.8826 27.3542 -6.7961 -54.7502 27.5302 -6.7961 -54.7502 27.3542 -5.08109 
-46.5395 35.2452 -6.7961 51.0268 27.3542 -6.7961 43.7778 32.187 -6.7961 
51.9884 27.3542 -4.08387 -46.0287 35.5648 -6.7961 -46.5395 35.5648 -3.18943 
-38.3289 39.5237 -6.7961 -30.1182 41.4116 -6.7961 -21.9075 42.2049 -6.7961 
-13.6969 43.0718 -6.7961 -5.48622 43.5392 -6.7961 2.72445 42.964 -6.7961 
10.9351 41.8703 -6.7961 19.1458 39.9468 -6.7961 27.3564 38.1534 -6.7961 
35.9811 35.5648 -6.7961 35.5671 35.7313 -6.7961 -21.9075 43.7755 1.35501 
-13.6969 43.7755 -3.72016 -5.48622 43.7755 -5.97351 2.72445 43.7755 -4.62297 
10.9351 43.7755 -2.25965 -30.1182 -41.7555 1.41456 -21.9075 -44.6104 1.41456 
-13.6969 -46.1446 1.41456 -5.48622 -46.434 1.41456 2.72445 -46.0568 1.41456 
10.9351 -45.5661 1.41456 19.1458 -43.9826 1.41456 27.3564 -41.0857 1.41456 
-46.5395 -33.7943 1.41456 -37.8024 -38.3311 1.41456 -38.3289 -38.0774 1.41456 
-30.1182 -38.3311 6.93867 32.7878 -38.3311 1.41456 27.3564 -38.3311 8.19003 
35.5671 -36.8044 1.41456 43.7778 -31.594 1.41456 -50.2456 -30.1205 1.41456 
-54.7502 -25.4453 1.41456 -46.5395 -30.1205 6.24635 45.9351 -30.1205 1.41456 
43.7778 -30.1205 4.05484 51.9884 -25.1276 1.41456 -57.3914 -21.9098 1.41456 
-54.7502 -21.9098 6.08153 54.8651 -21.9098 1.41456 51.9884 -21.9098 6.35896 
60.1991 -14.2226 1.41456 -61.062 -13.6991 1.41456 60.4934 -13.6991 1.41456 
60.1991 -13.6991 2.12706 -61.799 -5.48847 1.41456 63.7675 -5.48847 1.41456 
-61.3403 2.72219 1.41456 64.0454 2.72219 1.41456 -60.1711 10.9329 1.41456 
62.5649 10.9329 1.41456 60.1991 17.4257 1.41456 60.1991 10.9329 8.16628 
-57.758 19.1435 1.41456 -54.7502 26.3198 1.41456 -54.7502 19.1435 6.58513 
59.461 19.1435 1.41456 -54.2527 27.3542 1.41456 43.7778 35.0505 1.41456 
53.2123 27.3542 1.41456 51.9884 28.5955 1.41456 51.9884 27.3542 5.13757 
-47.0096 35.5648 1.41456 -46.5395 35.9312 1.41456 -46.5395 35.5648 2.20099 
-38.3289 40.4047 1.41456 -30.1182 42.7422 1.41456 19.1458 43.1161 1.41456 
27.3564 41.2859 1.41456 42.7869 35.5648 1.41456 35.5671 38.8347 1.41456 
-21.9867 43.7755 1.41456 -21.9075 43.7853 1.41456 -21.9075 43.7755 1.4474 
-13.6969 44.7536 1.41456 -13.6969 43.7755 5.00167 -5.48622 45.5052 1.41456 
-5.48622 43.7755 7.93116 2.72445 45.5574 1.41456 2.72445 43.7755 9.41244 
16.2033 43.7755 1.41456 10.9351 44.9321 1.41456 10.9351 43.7755 7.94893 
-21.9075 -39.0708 9.62522 -13.6969 -41.9948 9.62522 -5.48622 -43.4527 9.62522 
2.72445 -43.6367 9.62522 10.9351 -43.0366 9.62522 19.1458 -40.8222 9.62522 
-38.3289 -32.3596 9.62522 -24.0847 -38.3311 9.62522 -30.1182 -35.9374 9.62522 
-21.9075 -38.3311 10.3354 -13.6969 -38.3311 13.3006 -5.48622 -38.3311 15.0965 
2.72445 -38.3311 15.9525 10.9351 -38.3311 15.581 25.6346 -38.3311 9.62522 
19.1458 -38.3311 12.8966 27.3564 -37.5036 9.62522 35.5671 -32.1123 9.62522 
-42.303 -30.1205 9.62522 -46.5395 -26.7827 9.62522 -38.3289 -30.1205 11.6107 
-30.1182 -30.1205 13.8596 -21.9075 -30.1205 15.6313 27.3564 -30.1205 16.5541 
38.6523 -30.1205 9.62522 35.5671 -30.1205 11.8931 43.7778 -26.6753 9.62522 
-51.4163 -21.9098 9.62522 -54.7502 -16.816 9.62522 -46.5395 -21.9098 13.1099 
-38.3289 -21.9098 16.4871 -30.1182 -21.9098 17.6071 49.6037 -21.9098 9.62522 
43.7778 -21.9098 14.4412 51.9884 -19.5813 9.62522 -56.1708 -13.6991 9.62522 
-54.7502 -13.6991 11.0622 -46.5395 -13.6991 16.5317 56.5592 -13.6991 9.62522 
51.9884 -13.6991 14.637 60.1991 -6.25131 9.62522 -57.2319 -5.48847 9.62522 
-54.7502 -5.48847 12.3077 -46.5395 -5.48847 17.694 51.9884 -5.48847 17.7847 
60.5314 -5.48847 9.62522 60.1991 -5.48847 10.0649 -56.5478 2.72219 9.62522 
-54.7502 2.72219 11.5427 -46.5395 2.72219 17.0852 60.95 2.72219 9.62522 
60.1991 7.4225 9.62522 60.1991 2.72219 10.6208 -55.3385 10.9329 9.62522 
-54.7502 12.8341 9.62522 -54.7502 10.9329 10.2529 -46.5395 10.9329 16.0661 
59.571 10.9329 9.62522 51.9884 10.9329 16.9114 -52.2506 19.1435 9.62522 
-46.5395 19.1435 14.0721 56.4134 19.1435 9.62522 51.9884 25.2635 9.62522 
51.9884 19.1435 14.707 -48.9152 27.3542 9.62522 -46.5395 30.3216 9.62522 
-46.5395 27.3542 11.6595 -38.3289 27.3542 16.0138 50.1175 27.3542 9.62522 
43.7778 32.9779 9.62522 43.7778 27.3542 15.149 -40.5376 35.5648 9.62522 
-38.3289 36.8661 9.62522 -38.3289 35.5648 11.0515 -30.1182 39.216 9.62522 
[...]
POINT_DATA 522
SCALARS ImageScalars float
LOOKUP_TABLE default
0 0 0 0 0 0 0 0 0 
0 0 0 0 0 0 0 0 0 
0 0 0 0 0 0 0 0 0 
0 0 0 0 0 0 0 0 0 
0 0 0 0 0 0 0 0 0 
0 0 0 0 0 0 0 0 0 
0 0 0 0 0 0 0 0 0 
0 0 0 0 0 0 0 0 0 
0 0 0 0 0 0 0 0 0 
0 0 0 0 0 0 0 0 0 
0 0 0 0 0 0 0 0 0 
0 0 0 0 0 0 0 0 0 
0 0 0 0 0 0 0 0 0 
0 0 0 0 0 0 0 0 0 
0 0 0 0 0 0 0 0 0 
0 0 0 0 0 0 0 0 0 
0 0 0 0 0 0 0 0 0 
0 0 0 0 0 0 0 0 0 
0 0 0 0 0 0 0 0 0 
0 0 0 0 0 0 0 0 0 
0 0 0 0 0 0 0 0 0 
0 0 0 0 0 0 0 0 0 
0 0 0 0 0 0 0 0 0 
0 0 0 0 0 0 0 0 0 
0 0 0 0 0 0 0 0 0 
0 0 0 0 0 0 0 0 0 
0 0 0 0 0 0 0 0 0 
0 0 0 0 0 0 0 0 0 
0 0 0 0 0 0 0 0 0 
0 0 0 0 0 0 0 0 0 
0 0 0 0 0 0 0 0 0 
0 0 0 0 0 0 0 0 0 
0 0 0 0 0 0 0 0 0 
0 0 0 0 0 0 0 0 0 
0 0 0 0 0 0 0 0 0 
0 0 0 0 0 0 0 0 0 
0 0 0 0 0 0 0 0 0 
0 0 0 0 0 0 0 0 0 
0 0 0 0 0 0 0 0 0 
0 0 0 0 0 0 0 0 0 
0 0 0 0 0 0 0 0 0 
0 0 0 0 0 0 0 0 0 
0 0 0 0 0 0 0 0 0 
0 0 0 0 0 0 0 0 0 
0 0 0 0 0 0 0 0 0 
0 0 0 0 0 0 0 0 0 
0 0 0 0 0 0 0 0 0 
0 0 0 0 0 0 0 0 0 
0 0 0 0 0 0 0 0 0 
0 0 0 0 0 0 0 0 0 
0 0 0 0 0 0 0 0 0 
0 0 0 0 0 0 0 0 0 
0 0 0 0 0 0 0 0 0 
0 0 0 0 0 0 0 0 0 
0 0 0 0 0 0 0 0 0 
0 0 0 0 0 0 0 0 0 
0 0 0 0 0 0 0 0 0 
0 0 0 0 0 0 0 0 0 

NORMALS Normals float
0.207177 0.4907 0.84634 0.0599214 0.326757 0.943207 -0.0175964 0.229583 0.97313 
0.00908793 0.249936 0.96822 0.0142965 0.323938 0.94597 0.0486146 0.323989 0.944811 
0.0534307 0.246406 0.967693 -0.00708183 0.27423 0.961638 -0.0621944 0.323995 0.944012 
-0.213754 0.489243 0.845548 0.294387 0.365215 0.88315 0.0964799 0.257942 0.961331 
-0.0503531 0.169327 0.984273 -0.0682835 0.115961 0.990904 0.0472393 0.115363 0.9922 
0.0816419 0.277999 0.957106 -0.0401594 0.20212 0.978537 -0.00655688 0.0395285 0.999197 
0.0522771 0.0494205 0.997409 0.0139796 0.159438 0.987109 -0.053418 0.252047 0.96624 
-0.282582 0.381781 0.879995 0.48055 0.219287 0.849109 0.225721 0.163262 0.960414 
-0.0282462 0.148092 0.98857 -0.110069 0.0761193 0.991005 -0.0512919 0.0262631 0.998338 
0.17363 0.121296 0.977313 0.0895063 0.127326 0.987814 -0.192367 0.00563128 0.981307 
-0.0921379 0.112394 0.989383 0.122296 -0.0370095 0.991803 0.153494 0.0393672 0.987365 
-0.00383859 0.0953448 0.995437 -0.210821 0.143319 0.966961 -0.47809 0.282167 0.831752 
0.492115 0.0629891 0.868248 0.205554 -0.00343806 0.97864 0.0129947 0.0439651 0.998949 
-0.151589 0.0270933 0.988072 -0.0352734 -0.00336907 0.999372 0.144474 0.128737 0.981098 
-0.0491375 -0.0317705 0.998287 -0.0242472 -0.109166 0.993728 -0.0562625 0.129888 0.989931 
-0.0222534 -0.0607377 0.997906 0.150221 -0.0374069 0.987945 0.0682288 -0.0380065 0.996946 
-0.0830222 0.0351017 0.995929 -0.364168 0.0862051 0.927335 0.497579 -0.0708918 0.864517 
0.205067 -0.0123378 0.97867 0.0103374 -0.063843 0.997906 -0.150966 -0.0422953 0.987634 
0.0187933 -0.0157276 0.9997 0.165824 -0.081545 0.982778 -0.150761 -0.109246 0.982515 
-0.0517992 -0.0767388 0.995705 -0.081652 -0.20175 0.976028 0.00217587 -0.0320972 0.999482 
0.176893 -0.0176792 0.984071 0.0697002 -0.0398318 0.996772 -0.103809 -0.0869385 0.99079 
-0.357093 -0.105154 0.928131 0.532174 -0.194326 0.824032 0.218684 -0.13109 0.96695 
-0.02559 -0.148898 0.988521 -0.11076 -0.0427006 0.99293 -0.0623555 -0.0276985 0.99767 
0.0613356 -0.229134 0.971461 -0.0448742 -0.265479 0.963072 -0.0941714 -0.0884084 0.991623 
-0.00359125 -0.0925742 0.995699 0.120274 0.0458445 0.991682 0.139874 -0.0694153 0.987733 
-0.000773686 -0.121327 0.992612 -0.16067 -0.177271 0.970958 -0.40446 -0.259022 0.877109 
0.247475 -0.301935 0.920647 0.0969857 -0.196677 0.97566 -0.0387369 -0.139321 0.989489 
-0.142687 -0.096126 0.985089 -0.0799488 -0.118264 0.989758 0.0082907 -0.1796 0.983705 
0.0751915 -0.101007 0.99204 0.0893648 -0.068753 0.993623 0.0282342 -0.0812465 0.996294 
0.00288124 -0.1877 0.982222 -0.0467981 -0.279877 0.958895 -0.258838 -0.37289 0.891042 
0.373073 -0.401333 0.83651 0.169042 -0.377829 0.910313 0.00097364 -0.311087 0.950381 
-0.069148 -0.250164 0.965731 -0.0440109 -0.187108 0.981353 -0.0088586 -0.160656 0.986971 
0.0317527 -0.199039 0.979477 0.0147406 -0.28939 0.957098 -0.00295561 -0.363219 0.931699 
-0.0654344 -0.39068 0.918198 -0.193558 -0.522143 0.830603 0.226321 0.535079 0.813922 
0.415343 0.858826 0.299848 0.160883 0.52544 0.835482 0.235634 0.702976 0.671045 
0.0032862 0.491904 0.870643 0.0101231 0.528407 0.848931 -0.0395568 0.429387 0.902254 
-0.0625945 0.564878 0.822797 0.0141433 0.444648 0.895594 0.00680319 0.562504 0.826767 
0.0483206 0.478685 0.876656 0.0370353 0.582938 0.811672 0.0327304 0.51878 0.854281 
0.0237791 0.596138 0.802529 -0.0286514 0.595891 0.802554 -0.0414513 0.673299 0.738207 
-0.158292 0.595164 0.78786 -0.222966 0.768062 0.600305 -0.278771 0.60969 0.742001 
0.262859 0.512468 0.817485 0.351155 0.465281 0.812529 0.413447 0.591272 0.69243 
-0.368215 0.591926 0.716967 -0.403914 0.580983 0.706621 -0.479718 0.682849 0.550988 
0.514638 0.425422 0.744422 0.559219 0.387743 0.732755 0.663969 0.487673 0.566851 
-0.517186 0.473784 0.712774 -0.551394 0.438958 0.709423 -0.591458 0.511369 0.623441 
0.629046 0.241593 0.738874 -0.647558 0.294925 0.70263 -0.879031 0.37096 0.299488 
0.713498 0.0209151 0.700345 0.987896 0.0265421 0.152827 -0.713632 0.118144 0.690487 
-0.793424 0.129277 0.594782 0.70293 -0.0764157 0.707142 0.988979 -0.0881622 0.118946 
-0.690387 -0.110944 0.714882 -0.793464 -0.120988 0.59647 0.650829 -0.218245 0.727179 
0.587185 -0.361693 0.724149 -0.614506 -0.27097 0.740916 -0.469528 -0.455059 0.756614 
-0.852324 -0.292095 0.433848 0.526178 -0.394524 0.753318 0.666803 -0.438596 0.6025 
-0.437693 -0.473362 0.76443 -0.319584 -0.523236 0.789993 -0.496318 -0.502691 0.707792 
0.385195 -0.405774 0.828838 0.792738 -0.548847 0.265205 0.376642 -0.415066 0.828167 
0.188498 -0.473435 0.860423 0.0598891 -0.539649 0.839757 -0.0290492 -0.441916 0.896586 
0.00563178 -0.368763 0.929506 -0.00366828 -0.333849 0.94262 -0.0341069 -0.373934 0.926828 
-0.045584 -0.424161 0.904439 -0.0368582 -0.486864 0.8727 -0.104519 -0.51708 0.849532 
-0.239977 -0.550261 0.799765 -0.206317 -0.551994 0.807921 -0.378798 -0.639755 0.66875 
0.253345 -0.678827 0.68921 0.0764534 -0.616905 0.783315 0.00299095 -0.556771 0.830661 
0.0303415 -0.473721 0.880152 -0.0010666 -0.414194 0.910188 -0.0722848 -0.484909 0.871572 
-0.106441 -0.573456 0.812292 -0.113469 -0.679278 0.725056 -0.187262 -0.76442 0.616923 
-0.288524 -0.830325 0.476776 0.425322 0.881327 0.205827 0.298223 0.919416 0.256394 
0.13872 0.934751 0.327106 0.0168381 0.906958 0.420885 -0.0269475 0.895576 0.444091 
-0.0433866 0.897608 0.438655 -0.0650512 0.925407 0.373351 -0.142234 0.939567 0.311421 
-0.283738 0.936945 0.204028 0.453169 0.868786 0.199624 0.558424 0.808179 0.18711 
0.418806 0.87281 -0.250609 -0.419378 0.898163 0.132007 -0.419799 0.897985 0.131878 
-0.55916 0.822555 0.103651 0.680249 0.719791 0.138426 0.757082 0.63873 0.1373 
-0.628803 0.769722 0.110156 -0.695865 0.707512 0.123284 0.856062 0.49524 0.147971 
-0.789633 0.600856 0.124305 -0.885042 0.439181 0.154341 0.961684 0.262158 0.0802302 
0.988612 0.0992857 0.113087 -0.908707 0.38032 0.172071 0.991 0.0298695 0.130486 
0.997109 0.0270903 0.0709889 -0.96485 0.150108 0.215712 0.99004 -0.0882134 0.109726 
0.989422 -0.0951358 0.10951 0.99184 -0.0890977 0.091189 -0.964412 -0.110133 0.240376 
0.966751 -0.225529 0.120534 -0.916449 -0.294829 0.270549 -0.860399 -0.424202 0.282427 
0.912735 -0.378102 0.15477 -0.79425 -0.525667 0.304699 -0.628617 -0.686246 0.365933 
0.796815 -0.548312 0.25385 0.793459 -0.552997 0.254198 0.819919 -0.552516 0.149864 
0.537549 -0.799205 0.26891 -0.605758 -0.702478 0.373607 -0.441627 -0.789003 0.42713 
-0.665612 -0.709828 0.230443 0.524187 -0.806003 0.274931 0.578171 -0.812531 0.0742438 
0.314008 -0.882583 0.349922 0.154362 -0.900677 0.406145 0.0920143 -0.897586 0.43113 
0.0712275 -0.899777 0.430498 -0.00438279 -0.89377 0.448505 -0.0852454 -0.850199 0.519514 
-0.157511 -0.828977 0.536645 -0.183531 -0.831437 0.524432 -0.213566 -0.847781 0.485444 
-0.296213 -0.832972 0.46735 -0.289873 -0.834197 0.469136 0.120365 -0.990721 -0.0631201 
0.0863388 -0.966974 0.239805 0.00181015 -0.918152 0.396225 -0.0700202 -0.923965 0.376012 
-0.158368 -0.952044 0.261788 0.350216 0.882163 -0.314862 0.259709 0.932252 -0.251908 
0.106463 0.985125 -0.134884 -0.00566607 0.997916 -0.0642728 -0.0529614 0.997544 -0.0458316 
-0.124088 0.991195 -0.0462112 -0.258487 0.958308 -0.121781 -0.386797 0.898087 -0.209353 
0.56345 0.769334 -0.30108 0.402739 0.846244 -0.348815 0.404902 0.844227 -0.351192 
0.330643 0.760992 -0.558182 -0.467165 0.844365 -0.262304 -0.413121 0.790762 -0.451694 
-0.491153 0.819089 -0.296416 -0.53578 0.785607 -0.309454 0.639643 0.692412 -0.3338 
0.74829 0.585716 -0.311448 0.559481 0.638697 -0.52825 -0.562267 0.768934 -0.304295 
-0.525937 0.761513 -0.378799 -0.667718 0.688555 -0.282921 0.827546 0.486957 -0.279357 
0.707811 0.509748 -0.489041 -0.722838 0.634858 -0.272875 -0.644094 0.634138 -0.427799 
-0.864666 0.445399 -0.232322 0.914303 0.251883 -0.317183 -0.872165 0.432895 -0.22788 
-0.863476 0.436462 -0.252805 0.943452 0.0136419 -0.331228 -0.963752 0.195556 -0.181493 
0.929235 -0.0990641 -0.355961 -0.98613 -0.0678462 -0.151474 0.915298 -0.208388 -0.34468 
-0.957344 -0.26139 -0.12316 -0.890789 -0.439885 -0.113997 -0.869646 -0.237865 -0.432591 
0.902629 -0.314072 -0.294312 0.831449 -0.48288 -0.274809 0.775646 -0.31536 -0.546736 
-0.865665 -0.489664 -0.104181 0.818394 -0.508905 -0.26692 -0.516199 -0.855471 0.04132 
-0.727046 -0.685227 -0.0432167 -0.700154 -0.713106 -0.0355562 -0.70834 -0.671217 -0.218456 
0.608534 -0.776666 -0.162715 0.596635 -0.785871 -0.162583 0.597412 -0.776412 -0.200708 
0.361235 -0.923923 -0.126 0.205049 -0.973703 -0.0992889 -0.213733 -0.970817 0.108776 
-0.24493 -0.963531 0.107781 -0.496107 -0.866782 0.05066 -0.36394 -0.926487 0.0957533 
0.121256 -0.990391 -0.066499 0.120432 -0.990509 -0.0662449 0.120586 -0.990386 -0.0677792 
0.103577 -0.993731 -0.0420768 0.113573 -0.967023 -0.227964 0.0486002 -0.99865 -0.0183285 
0.0720775 -0.926328 -0.369757 -0.0348685 -0.999065 0.0255675 0.00855611 -0.910347 -0.413757 
-0.191948 -0.976958 0.0933204 -0.148636 -0.9868 0.0642929 -0.0987743 -0.949715 -0.297127 
0.266035 0.663506 -0.699275 0.207792 0.759447 -0.616492 0.0799649 0.841976 -0.533556 
-0.0225511 0.884994 -0.465056 -0.14632 0.87825 -0.455266 -0.28406 0.823888 -0.490427 
0.325352 0.648831 -0.687869 0.272758 0.665423 -0.694849 0.277466 0.662657 -0.695629 
0.264004 0.644391 -0.717678 0.225644 0.622612 -0.749293 0.124711 0.643367 -0.755332 
0.0261058 0.662338 -0.74875 -0.124777 0.683392 -0.71931 -0.382652 0.772698 -0.506474 
-0.27203 0.741368 -0.613493 -0.409112 0.755421 -0.511827 -0.446605 0.703689 -0.552599 
0.415912 0.604136 -0.679733 0.501002 0.540096 -0.676234 0.31008 0.605077 -0.733302 
0.210155 0.508961 -0.834742 0.227354 0.423238 -0.877029 -0.355066 0.538151 -0.764409 
-0.454967 0.69677 -0.554542 -0.426669 0.662128 -0.616068 -0.488004 0.675474 -0.552799 
0.566262 0.486841 -0.665081 0.677135 0.336007 -0.654666 0.448055 0.459598 -0.766823 
0.214937 0.407296 -0.887644 0.119192 0.332979 -0.935371 -0.571152 0.614477 -0.544246 
-0.453437 0.563285 -0.690728 -0.616903 0.569164 -0.543583 0.730025 0.227668 -0.644384 
0.680406 0.236314 -0.693689 0.419449 0.223639 -0.8798 -0.719205 0.43911 -0.538448 
-0.574415 0.41384 -0.706246 -0.812245 0.234652 -0.534037 0.777736 0.0150849 -0.62841 
0.686157 0.021268 -0.727142 0.420363 0.0292645 -0.906884 -0.507982 0.15237 -0.847784 
-0.818529 0.213222 -0.533428 -0.808961 0.213542 -0.547705 0.754711 -0.0969798 -0.64885 
0.694562 -0.0976755 -0.712771 0.432087 -0.0893459 -0.897395 -0.851288 -0.0479106 -0.522507 
-0.845491 -0.151047 -0.512181 -0.829419 -0.046508 -0.556688 0.731658 -0.181737 -0.656999 
0.715687 -0.209438 -0.666279 0.712207 -0.185535 -0.677006 0.45567 -0.157723 -0.876064 
-0.830289 -0.228032 -0.508548 -0.523426 -0.15455 -0.837938 0.657942 -0.276671 -0.700404 
0.536236 -0.224053 -0.813788 -0.768463 -0.431491 -0.472525 -0.686951 -0.574862 -0.444558 
-0.609341 -0.373147 -0.699618 0.640028 -0.403937 -0.653605 0.574003 -0.506056 -0.643761 
0.555147 -0.390414 -0.734431 0.332469 -0.369799 -0.86759 -0.649876 -0.619746 -0.439973 
-0.538826 -0.737448 -0.407232 -0.487067 -0.526005 -0.697197 0.402449 -0.695892 -0.594785 
0.358532 -0.728793 -0.583366 0.352495 -0.67375 -0.649467 0.203855 -0.792348 -0.575002 
0.196588 -0.652572 -0.731781 0.152906 -0.835771 -0.527359 0.137894 -0.601739 -0.786699 
0.119318 -0.856501 -0.502164 0.101547 -0.551356 -0.828067 0.0775993 -0.876838 -0.474483 
0.105224 -0.523474 -0.84552 0.00992573 -0.904389 -0.426593 -0.0823517 -0.915655 -0.39344 
-0.168465 -0.922601 -0.347026 -0.0865073 -0.56223 -0.822444 -0.251472 -0.907863 -0.33548 
-0.212751 -0.640196 -0.738164 -0.462977 -0.799928 -0.381795 -0.382198 -0.845989 -0.371788 
-0.373826 -0.764203 -0.525593 0.237519 0.363479 -0.900815 0.141518 0.482592 -0.864337 
0.0385399 0.524278 -0.850675 -0.0955225 0.535423 -0.839165 -0.229714 0.518212 -0.823825 
0.236976 0.354043 -0.904708 0.166459 0.271589 -0.947909 0.237808 0.34714 -0.907161 
0.142884 0.358954 -0.922354 0.0443885 0.30863 -0.950146 -0.0583471 0.344669 -0.936909 
-0.298444 0.491125 -0.818369 -0.20771 0.424736 -0.881167 -0.313305 0.470748 -0.824764 
-0.321326 0.473478 -0.820103 0.189783 0.307875 -0.932306 0.124364 0.306289 -0.94378 
0.108982 0.318914 -0.941497 0.142307 0.223127 -0.964346 0.210255 0.136567 -0.968061 
0.110814 0.1603 -0.980828 0.0200331 0.100643 -0.994721 -0.00307153 0.137863 -0.990447 
-0.0951642 0.210431 -0.972966 -0.206027 0.306111 -0.929435 -0.331747 0.468077 -0.819053 
-0.306299 0.448431 -0.839697 -0.379313 0.394678 -0.83687 0.295179 0.212702 -0.931465 
0.17367 0.213434 -0.961397 0.0289451 0.195308 -0.980315 0.0387116 0.0717263 -0.996673 
0.187308 0.0598845 -0.980474 0.0991712 0.123342 -0.987396 0.0260332 0.0452096 -0.998638 
0.0594451 0.132362 -0.989417 -0.0441069 0.0657018 -0.996864 -0.112829 0.122271 -0.986063 
-0.185123 0.219852 -0.957807 -0.415645 0.349461 -0.839712 -0.344739 0.32042 -0.882319 
0.408498 0.0298712 -0.91227 0.187172 0.0443344 -0.981326 -0.0374959 0.0633 -0.99729 
0.00268927 0.0494877 -0.998771 0.279674 0.155757 -0.947377 0.0760083 0.104684 -0.991597 
0.0279433 0.0226261 -0.999353 0.0177768 0.0896419 -0.995815 -0.102443 -0.0572278 -0.993091 
-0.0435117 -0.00455619 -0.999043 -0.104269 0.0641543 -0.992478 -0.504173 0.151717 -0.850172 
-0.264976 0.125742 -0.956021 -0.506173 0.117281 -0.85442 0.376301 -0.0855752 -0.922537 
0.217515 -0.078347 -0.972908 0.0319927 -0.0380801 -0.998762 0.113831 0.0674917 -0.991205 
0.257839 0.0223382 -0.96593 -0.044455 -0.116781 -0.992162 0.0234126 0.00457135 -0.999715 
-0.0252304 -0.053765 -0.998235 -0.13714 -0.0692345 -0.988129 0.00758889 -0.0638061 -0.997933 
-0.0599327 -0.0453207 -0.997173 -0.240936 -0.0409883 -0.969675 -0.502719 -0.0426869 -0.863395 
-0.496306 -0.0629009 -0.865866 -0.492392 -0.0428 -0.869321 0.325779 -0.110797 -0.938931 
0.240011 -0.0859862 -0.966954 0.110084 -0.0562893 -0.992327 0.0829519 -0.00946302 -0.996509 
0.0936305 -0.135517 -0.986341 0.0663692 -0.148898 -0.986623 0.0833263 0.022908 -0.996259 
-0.05684 -0.0964872 -0.99371 -0.115493 -0.00127697 -0.993307 -0.0189456 -0.0342215 -0.999235 
-0.0829828 -0.0754099 -0.993694 -0.448875 -0.142988 -0.88208 -0.259245 -0.13868 -0.955803 
0.353438 -0.17216 -0.91948 0.320947 -0.218966 -0.921437 0.315324 -0.161039 -0.93522 
0.111208 -0.135112 -0.98457 0.0484587 -0.1009 -0.993716 0.0828584 -0.119556 -0.989364 
0.13173 -0.103747 -0.985842 0.0787393 -0.0780011 -0.993839 -0.0442553 -0.123847 -0.991314 
-0.077077 -0.0537089 -0.995577 -0.0692634 -0.0724551 -0.994964 -0.172011 -0.170909 -0.970156 
-0.389497 -0.2831 -0.87644 -0.362041 -0.335234 -0.869796 -0.308302 -0.248687 -0.918207 
0.190907 -0.338256 -0.921486 0.180837 -0.345242 -0.920927 0.179286 -0.335065 -0.92498 
0.110532 -0.383383 -0.916951 0.0995213 -0.267082 -0.958521 0.0881426 -0.406855 -0.90923 
0.0811093 -0.252732 -0.964131 0.107575 -0.468921 -0.876664 0.109967 -0.247737 -0.962566 
0.0588611 -0.273086 -0.960187 -0.030731 -0.277524 -0.960227 -0.0829621 -0.530123 -0.843853 
-0.0614644 -0.261372 -0.963279 -0.175489 -0.497769 -0.84937 -0.130917 -0.294967 -0.946496 
-0.329594 -0.419074 -0.846017 -0.280021 -0.452788 -0.846505 -0.253182 -0.376041 -0.891343 
0.0707682 -0.51802 -0.852436 0.0467335 -0.538202 -0.841519 0.0474129 -0.521005 -0.852236 
-0.0602914 -0.541657 -0.838435 -0.0367032 -0.544395 -0.838026 -0.0353872 -0.52955 -0.84754 

