# vtk DataFile Version 4.2
vtk output
ASCII
DATASET POLYDATA
POINTS 531 float
-20.5635 -37.5428 -14.1814 -13.0124 -37.5428 -15.5541 -5.4612 -37.5428 -15.9143 
2.08996 -37.5428 -15.5034 9.64112 -37.5428 -14.9965 17.1923 -37.5428 -14.2377 
-35.6659 -29.9917 -14.1068 -28.1147 -29.9917 -17.1912 -20.5635 -29.9917 -18.5376 
-13.0124 -29.9917 -18.3947 -5.4612 -29.9917 -17.5033 2.08996 -29.9917 -16.6721 
9.64112 -29.9917 -17.3884 17.1923 -29.9917 -18.3328 24.7435 -29.9917 -17.7765 
32.2946 -29.9917 -14.655 -35.6659 -22.4405 -17.362 -28.1147 -22.4405 -19.8592 
-20.5635 -22.4405 -19.8031 -13.0124 -22.4405 -18.8964 -5.4612 -22.4405 -17.6799 
2.08996 -22.4405 -16.4944 9.64112 -22.4405 -17.4213 17.1923 -22.4405 -18.9227 
24.7435 -22.4405 -18.8941 32.2946 -22.4405 -16.5534 -43.217 -14.8893 -16.042 
-35.6659 -14.8893 -19.0698 -28.1147 -14.8893 -19.8946 -20.5635 -14.8893 -19.606 
-13.0124 -14.8893 -18.7559 -5.4612 -14.8893 -17.707 2.08996 -14.8893 -15.8238 
9.64112 -14.8893 -16.7498 17.1923 -14.8893 -18.1349 24.7435 -14.8893 -17.9258 
32.2946 -14.8893 -15.8133 -43.217 -7.33816 -18.1532 -35.6659 -7.33816 -20.1967 
-28.1147 -7.33816 -20.3378 -20.5635 -7.33816 -18.9567 -13.0124 -7.33816 -18.068 
-5.4612 -7.33816 -21.0368 2.08996 -7.33816 -19.3851 9.64112 -7.33816 -16.6339 
17.1923 -7.33816 -15.8859 24.7435 -7.33816 -15.316 32.2946 -7.33816 -14.7591 
-50.7682 0.212999 -14.4995 -43.217 0.212999 -18.1246 -35.6659 0.212999 -20.0274 
-28.1147 0.212999 -19.6802 -20.5635 0.212999 -18.8939 -13.0124 0.212999 -18.359 
-5.4612 0.212999 -19.6336 2.08996 0.212999 -17.0999 9.64112 0.212999 -19.1749 
-50.7682 7.76416 -14.1251 -43.217 7.76416 -17.7527 -35.6659 7.76416 -18.5493 
-28.1147 7.76416 -18.6663 -20.5635 7.76416 -17.8227 -13.0124 7.76416 -17.9765 
-5.4612 7.76416 -20.5122 2.08996 7.76416 -18.7723 9.64112 7.76416 -18.2085 
-43.217 15.3153 -15.1922 -35.6659 15.3153 -17.1107 -28.1147 15.3153 -17.4465 
-20.5635 15.3153 -16.7724 -13.0124 15.3153 -16.429 -5.4612 15.3153 -18.7758 
2.08996 15.3153 -19.5326 9.64112 15.3153 -17.2973 -35.6659 22.8665 -14.7148 
-28.1147 22.8665 -15.6718 -20.5635 22.8665 -16.5962 -13.0124 22.8665 -15.7819 
-5.4612 22.8665 -15.4917 2.08996 22.8665 -16.428 9.64112 22.8665 -15.8406 
-28.1147 30.4177 -14.2507 -20.5635 30.4177 -14.9437 -13.0124 30.4177 -14.0626 
-20.5635 -37.6844 -14.0286 -13.0124 -39.5038 -14.0286 -5.4612 -40.5225 -14.0286 
2.08996 -40.1166 -14.0286 2.08996 -45.094 -7.10226 9.64112 -39.0225 -14.0286 
17.1923 -37.7685 -14.0286 -35.6659 -30.0857 -14.0286 -20.9637 -37.5428 -14.0286 
-28.1147 -34.5224 -14.0286 -28.1147 -37.5428 -8.78832 18.5699 -37.5428 -14.0286 
24.7435 -36.3274 -14.0286 24.7435 -37.5428 -12.1865 32.2946 -30.7932 -14.0286 
-35.7685 -29.9917 -14.0286 33.0153 -29.9917 -14.0286 -41.9922 -22.4405 -14.0286 
-43.217 -20.412 -14.0286 -43.217 -22.4405 -12.7343 37.9102 -22.4405 -14.0286 
39.8458 -22.4405 -12.5607 -45.8246 -14.8893 -14.0286 -50.7682 -14.8893 -7.30513 
37.2853 -14.8893 -14.0286 39.8458 -14.8893 -13.0397 47.3969 -14.8893 -8.64025 
-49.3295 -7.33816 -14.0286 -50.7682 -2.29415 -14.0286 -50.7682 -7.33816 -12.5947 
17.1923 -1.51015 -14.0286 24.7435 -2.4521 -14.0286 36.1603 -7.33816 -14.0286 
32.2946 -1.82005 -14.0286 39.8458 -7.33816 -13.3831 47.3969 -7.33816 -11.0935 
-51.4413 0.212999 -14.0286 16.3258 0.212999 -14.0286 17.1923 0.212999 -13.4969 
24.7435 0.212999 -13.3903 32.2946 0.212999 -13.7609 39.8458 0.212999 -13.2334 
47.3969 0.212999 -11.5791 54.9481 0.212999 -7.87279 -50.9223 7.76416 -14.0286 
-50.7682 8.05564 -14.0286 15.2515 7.76416 -14.0286 17.1923 7.76416 -12.7889 
24.7435 7.76416 -12.9034 32.2946 7.76416 -13.4705 39.8458 7.76416 -12.849 
47.3969 7.76416 -11.3556 54.9481 7.76416 -8.27058 -45.6259 15.3153 -14.0286 
-50.7682 15.3153 -11.0181 -43.217 18.6683 -14.0286 15.9887 15.3153 -14.0286 
17.1923 15.3153 -13.4372 24.7435 15.3153 -12.2222 32.2946 15.3153 -12.2266 
39.8458 15.3153 -11.8195 47.3969 15.3153 -10.2156 -50.7682 22.8665 -6.68312 
-38.0999 22.8665 -14.0286 -43.217 22.8665 -12.4482 -35.6659 25.0529 -14.0286 
-5.4612 26.9755 -14.0286 2.08996 27.1268 -14.0286 15.3793 22.8665 -14.0286 
9.64112 26.2635 -14.0286 17.1923 22.8665 -13.4543 24.7435 22.8665 -11.4705 
32.2946 22.8665 -10.5853 39.8458 22.8665 -9.70439 47.3969 22.8665 -7.05246 
-43.217 30.4177 -7.66771 -28.9844 30.4177 -14.0286 -35.6659 30.4177 -12.1659 
-28.1147 30.8537 -14.0286 -20.5635 32.5849 -14.0286 -12.814 30.4177 -14.0286 
-13.0124 30.4885 -14.0286 -5.4612 30.4177 -12.6369 2.08996 30.4177 -11.7655 
9.64112 30.4177 -11.093 17.1923 30.4177 -9.36495 24.7435 30.4177 -8.02242 
-28.1147 37.9688 -9.49096 -20.5635 37.9688 -10.7398 -13.0124 37.9688 -9.10918 
2.08996 -45.3514 -6.4774 -28.1147 -38.5313 -6.4774 -20.5635 -41.3451 -6.4774 
-13.0124 -43.6574 -6.4774 -3.9848 -45.094 -6.4774 -5.4612 -45.0314 -6.4774 
3.83211 -45.094 -6.4774 2.08996 -45.094 -5.32172 9.64112 -44.2253 -6.4774 
17.1923 -42.5265 -6.4774 24.7435 -40.0311 -6.4774 -30.292 -37.5428 -6.4774 
-35.6659 -34.6307 -6.4774 29.2834 -37.5428 -6.4774 32.2946 -35.6281 -6.4774 
-41.0609 -29.9917 -6.4774 -43.217 -27.6086 -6.4774 38.1677 -29.9917 -6.4774 
39.8458 -28.0334 -6.4774 -46.9743 -22.4405 -6.4774 -50.7682 -15.7591 -6.4774 
44.4539 -22.4405 -6.4774 47.3969 -18.1598 -6.4774 -51.2207 -14.8893 -6.4774 
50.0075 -14.8893 -6.4774 -54.8946 -7.33816 -6.4774 54.3844 -7.33816 -6.4774 
54.9481 -5.26883 -6.4774 54.9481 -7.33816 -5.61571 -57.1708 0.212999 -6.4774 
-58.3193 0.212999 0.489306 56.6079 0.212999 -6.4774 -57.0082 7.76416 -6.4774 
-58.3193 7.76416 0.650383 57.4884 7.76416 -6.4774 54.9481 14.5242 -6.4774 
62.4993 7.76416 -0.0281296 -55.5165 15.3153 -6.4774 54.6458 15.3153 -6.4774 
54.9481 15.3153 -6.26065 -50.9315 22.8665 -6.4774 -50.7682 23.0854 -6.4774 
32.2946 30.3577 -6.4774 39.8458 27.763 -6.4774 48.8185 22.8665 -6.4774 
47.3969 23.9469 -6.4774 54.9481 22.8665 -2.91866 -44.7541 30.4177 -6.4774 
-43.217 31.7924 -6.4774 -35.6659 37.6963 -6.4774 -5.4612 37.443 -6.4774 
2.08996 35.445 -6.4774 9.64112 34.293 -6.4774 17.1923 33.1898 -6.4774 
32.1301 30.4177 -6.4774 24.7435 32.2364 -6.4774 32.2946 30.4177 -6.43299 
39.8458 30.4177 -3.92223 47.3969 30.4177 -1.2735 -35.0997 37.9688 -6.4774 
-35.6659 37.9688 -5.44834 -28.1147 40.4892 -6.4774 -20.5635 41.4572 -6.4774 
-6.81045 37.9688 -6.4774 -13.0124 40.143 -6.4774 -5.4612 37.9688 -5.46543 
2.08996 37.9688 -0.820327 -28.1147 -38.0685 1.07376 -20.5635 -40.5095 1.07376 
-13.0124 -42.3845 1.07376 -5.4612 -43.5681 1.07376 2.08996 -43.6305 1.07376 
9.64112 -42.9495 1.07376 17.1923 -41.6567 1.07376 24.7435 -39.308 1.07376 
-29.3483 -37.5428 1.07376 -35.6659 -34.3468 1.07376 -28.1147 -37.5428 2.42326 
-20.5635 -37.5428 7.73555 17.1923 -37.5428 8.5776 27.7785 -37.5428 1.07376 
24.7435 -37.5428 4.40779 32.2946 -34.7611 1.07376 -40.914 -29.9917 1.07376 
-43.217 -27.4793 1.07376 37.9704 -29.9917 1.07376 39.8458 -28.2144 1.07376 
-46.8426 -22.4405 1.07376 -50.7682 -15.7493 1.07376 -43.217 -22.4405 8.05627 
45.9166 -22.4405 1.07376 47.3969 -20.9669 1.07376 -51.2522 -14.8893 1.07376 
-50.7682 -14.8893 2.03152 53.0843 -14.8893 1.07376 54.9481 -12.4992 1.07376 
-55.1512 -7.33816 1.07376 -58.3193 -0.00119968 1.07376 58.6552 -7.33816 1.07376 
-58.4079 0.212999 1.07376 -58.3193 0.212999 1.26756 61.3876 0.212999 1.07376 
62.4993 5.35681 1.07376 -58.3923 7.76416 1.07376 -58.3193 8.33352 1.07376 
-58.3193 7.76416 1.25248 62.4993 9.96944 1.07376 62.4993 7.76416 3.37583 
-57.357 15.3153 1.07376 61.2079 15.3153 1.07376 -53.5832 22.8665 1.07376 
-50.7682 26.6011 1.07376 -50.7682 22.8665 8.47395 57.6575 22.8665 1.07376 
54.9481 26.3849 1.07376 -47.3939 30.4177 1.07376 -43.217 34.072 1.07376 
9.64112 37.7642 1.07376 17.1923 37.0551 1.07376 24.7435 36.7948 1.07376 
32.2946 36.3925 1.07376 39.8458 34.4212 1.07376 49.8707 30.4177 1.07376 
47.3969 31.7807 1.07376 -37.6626 37.9688 1.07376 -35.6659 39.1659 1.07376 
-35.6659 37.9688 4.59546 -28.1147 42.0501 1.07376 -20.5635 42.7939 1.07376 
-13.0124 42.1959 1.07376 -5.4612 40.8263 1.07376 7.96031 37.9688 1.07376 
2.08996 38.6894 1.07376 2.08996 37.9688 7.34675 -13.0124 -38.1261 8.62493 
-5.4612 -38.2713 8.62493 2.08996 -38.2942 8.62493 9.64112 -37.8885 8.62493 
-35.6659 -30.5836 8.62493 -28.1147 -34.8004 8.62493 -17.302 -37.5428 8.62493 
-20.5635 -37.0736 8.62493 -13.0124 -37.5428 9.32392 -5.4612 -37.5428 9.36185 
2.08996 -37.5428 9.33314 16.5548 -37.5428 8.62493 9.64112 -37.5428 8.96908 
17.1923 -37.5039 8.62493 24.7435 -34.862 8.62493 32.2946 -30.668 8.62493 
-36.315 -29.9917 8.62493 -35.6659 -29.9917 9.23145 -28.1147 -29.9917 13.5513 
-20.5635 -29.9917 14.9232 -13.0124 -29.9917 14.9622 -5.4612 -29.9917 14.348 
2.08996 -29.9917 13.8185 9.64112 -29.9917 13.904 17.1923 -29.9917 14.1077 
24.7435 -29.9917 12.5704 33.1574 -29.9917 8.62493 32.2946 -29.9917 9.32426 
39.8458 -24.2557 8.62493 -42.8161 -22.4405 8.62493 -43.217 -21.7668 8.62493 
-35.6659 -22.4405 13.6517 -5.4612 -22.4405 15.9856 2.08996 -22.4405 15.8204 
9.64112 -22.4405 16.0498 17.1923 -22.4405 15.9842 24.7435 -22.4405 15.8837 
32.2946 -22.4405 14.273 41.9122 -22.4405 8.62493 39.8458 -22.4405 10.3941 
47.3969 -17.4353 8.62493 -46.7255 -14.8893 8.62493 -50.7682 -8.10753 8.62493 
-43.217 -14.8893 11.7566 -35.6659 -14.8893 15.6633 39.8458 -14.8893 15.0862 
49.9471 -14.8893 8.62493 47.3969 -14.8893 10.9984 54.9481 -8.68241 8.62493 
-51.1533 -7.33816 8.62493 -50.7682 -7.33816 9.01647 -43.217 -7.33816 13.7543 
47.3969 -7.33816 15.9541 55.9214 -7.33816 8.62493 54.9481 -7.33816 9.65816 
-53.9082 0.212999 8.62493 -50.7682 0.212999 11.5723 -43.217 0.212999 15.1721 
59.3038 0.212999 8.62493 54.9481 0.212999 13.1543 -54.8473 7.76416 8.62493 
-50.7682 7.76416 12.4487 -43.217 7.76416 15.6052 61.0323 7.76416 8.62493 
54.9481 7.76416 14.5209 -53.916 15.3153 8.62493 -50.7682 22.7341 8.62493 
-50.7682 15.3153 11.6959 -43.217 15.3153 15.215 59.7933 15.3153 8.62493 
54.9481 15.3153 13.6034 -50.6797 22.8665 8.62493 -43.217 22.8665 14.0629 
56.6529 22.8665 8.62493 54.9481 25.0888 8.62493 54.9481 22.8665 10.4723 
[...]
POINT_DATA 531
SCALARS ImageScalars float
LOOKUP_TABLE default
0 0 0 0 0 0 0 0 0 
0 0 0 0 0 0 0 0 0 
0 0 0 0 0 0 0 0 0 
0 0 0 0 0 0 0 0 0 
0 0 0 0 0 0 0 0 0 
0 0 0 0 0 0 0 0 0 
0 0 0 0 0 0 0 0 0 
0 0 0 0 0 0 0 0 0 
0 0 0 0 0 0 0 0 0 
0 0 0 0 0 0 0 0 0 
0 0 0 0 0 0 0 0 0 
0 0 0 0 0 0 0 0 0 
0 0 0 0 0 0 0 0 0 
0 0 0 0 0 0 0 0 0 
0 0 0 0 0 0 0 0 0 
0 0 0 0 0 0 0 0 0 
0 0 0 0 0 0 0 0 0 
0 0 0 0 0 0 0 0 0 
0 0 0 0 0 0 0 0 0 
0 0 0 0 0 0 0 0 0 
0 0 0 0 0 0 0 0 0 
0 0 0 0 0 0 0 0 0 
0 0 0 0 0 0 0 0 0 
0 0 0 0 0 0 0 0 0 
0 0 0 0 0 0 0 0 0 
0 0 0 0 0 0 0 0 0 
0 0 0 0 0 0 0 0 0 
0 0 0 0 0 0 0 0 0 
0 0 0 0 0 0 0 0 0 
0 0 0 0 0 0 0 0 0 
0 0 0 0 0 0 0 0 0 
0 0 0 0 0 0 0 0 0 
0 0 0 0 0 0 0 0 0 
0 0 0 0 0 0 0 0 0 
0 0 0 0 0 0 0 0 0 
0 0 0 0 0 0 0 0 0 
0 0 0 0 0 0 0 0 0 
0 0 0 0 0 0 0 0 0 
0 0 0 0 0 0 0 0 0 
0 0 0 0 0 0 0 0 0 
0 0 0 0 0 0 0 0 0 
0 0 0 0 0 0 0 0 0 
0 0 0 0 0 0 0 0 0 
0 0 0 0 0 0 0 0 0 
0 0 0 0 0 0 0 0 0 
0 0 0 0 0 0 0 0 0 
0 0 0 0 0 0 0 0 0 
0 0 0 0 0 0 0 0 0 
0 0 0 0 0 0 0 0 0 
0 0 0 0 0 0 0 0 0 
0 0 0 0 0 0 0 0 0 
0 0 0 0 0 0 0 0 0 
0 0 0 0 0 0 0 0 0 
0 0 0 0 0 0 0 0 0 
0 0 0 0 0 0 0 0 0 
0 0 0 0 0 0 0 0 0 
0 0 0 0 0 0 0 0 0 
0 0 0 0 0 0 0 0 0 
0 0 0 0 0 0 0 0 0 

NORMALS Normals float
-0.242252 -0.716171 -0.654533 -0.0927472 -0.55866 -0.824194 0.00555125 -0.405773 -0.913957 
0.0613979 -0.358477 -0.931517 0.072622 -0.479201 -0.874695 0.115193 -0.654182 -0.747513 
-0.515636 -0.558963 -0.649369 -0.249936 -0.454202 -0.855121 -0.0764413 -0.304704 -0.949374 
0.0651688 -0.197902 -0.978053 0.116274 -0.113931 -0.986661 0.00341462 -0.0637434 -0.997961 
-0.101814 -0.147987 -0.983735 -0.0321007 -0.255882 -0.966175 0.196059 -0.332461 -0.922513 
0.566143 -0.441989 -0.695793 -0.370433 -0.278982 -0.885973 -0.148719 -0.162513 -0.975434 
0.0640237 -0.0636757 -0.995915 0.138773 -0.0258147 -0.989988 0.159687 -0.0133324 -0.987078 
0.0209874 0.0480298 -0.998625 -0.164088 0.0429446 -0.98551 -0.0914968 0.0153378 -0.995687 
0.148439 -0.00952601 -0.988876 0.376448 -0.0483633 -0.925174 -0.492052 -0.274119 -0.826283 
-0.222813 -0.179455 -0.958201 -0.0320843 -0.0315443 -0.998987 0.0748065 0.0554553 -0.995655 
0.121427 0.0544718 -0.991105 0.177505 -0.198041 -0.963987 0.0652864 -0.112077 -0.991553 
-0.140649 0.048592 -0.988866 -0.0769441 0.189287 -0.978903 0.148753 0.22366 -0.963249 
0.300954 0.115471 -0.946622 -0.406225 -0.113346 -0.906716 -0.123203 -0.0587646 -0.99064 
0.0830806 0.0145167 -0.996437 0.151135 0.0475466 -0.987369 -0.111459 0.0269933 -0.993402 
-0.144067 -0.134879 -0.980333 0.32358 -0.0756785 -0.94317 0.16167 -0.125265 -0.978862 
0.082582 0.273285 -0.958382 0.0727797 0.29473 -0.952805 0.125412 0.133441 -0.98309 
-0.563945 -0.0587956 -0.823717 -0.324638 0.022805 -0.945563 -0.100963 0.103258 -0.989517 
0.0735293 0.108873 -0.991332 0.0861708 0.0697311 -0.993837 -0.0451734 0.00400862 -0.998971 
0.0680686 0.0250502 -0.997366 0.0589416 -0.00948092 -0.998216 0.183054 -0.124314 -0.975211 
-0.505502 0.175953 -0.844694 -0.281003 0.181523 -0.942384 -0.0557077 0.19578 -0.979064 
0.0443688 0.145248 -0.9884 0.0473048 0.143814 -0.988473 -0.184331 0.137438 -0.973208 
-0.0506357 0.0345573 -0.998119 0.153523 -0.153593 -0.976135 0.333449 0.116132 -0.935588 
-0.328553 0.291063 -0.898518 -0.13617 0.236865 -0.961953 0.0223838 0.195023 -0.980543 
0.0667549 0.0762832 -0.994849 -0.0980112 0.136631 -0.985762 -0.219221 0.342837 -0.913457 
0.0981532 0.14561 -0.984461 0.395279 0.145107 -0.907027 -0.182084 0.300749 -0.93616 
-0.114399 0.194655 -0.974178 -0.00756529 0.129138 -0.991598 0.0715053 0.152647 -0.985691 
-0.0376237 0.333755 -0.941909 -0.0236737 0.44196 -0.896722 0.188384 0.327203 -0.925986 
-0.166623 0.324582 -0.931065 0.0131531 0.309201 -0.950906 0.14494 0.344287 -0.927609 
-0.245173 -0.722753 -0.646156 -0.143188 -0.660424 -0.737115 -0.0346665 -0.589595 -0.806955 
0.0670594 -0.525572 -0.848102 0.0560152 -0.988004 -0.14391 0.102876 -0.557514 -0.823768 
0.12081 -0.663669 -0.738206 -0.516424 -0.562533 -0.645648 -0.250697 -0.721753 -0.645154 
-0.328096 -0.661229 -0.674633 -0.386705 -0.873765 -0.294948 0.150551 -0.674878 -0.722408 
0.284812 -0.688863 -0.666596 0.329195 -0.793208 -0.5123 0.574884 -0.482821 -0.6606 
-0.51846 -0.560435 -0.645842 0.587327 -0.460477 -0.665588 -0.592048 -0.409095 -0.694349 
-0.604802 -0.387678 -0.695644 -0.663206 -0.455044 -0.594217 0.553173 -0.208329 -0.806597 
0.645129 -0.306139 -0.700062 -0.611906 -0.314768 -0.725597 -0.859972 -0.43063 -0.273872 
0.369724 0.0320535 -0.928589 0.424818 -0.0440133 -0.904208 0.616632 -0.410239 -0.671914 
-0.614328 -0.230881 -0.754516 -0.599302 -0.12348 -0.790942 -0.700823 -0.271844 -0.659506 
0.276438 0.239773 -0.93064 0.0135825 0.209748 -0.977661 0.177622 0.0598729 -0.982276 
0.0404665 0.0976392 -0.994399 0.229164 -0.0102692 -0.973334 0.401432 -0.165288 -0.900851 
-0.590987 -0.0668907 -0.803903 0.330397 0.186537 -0.925225 0.322686 0.213426 -0.92213 
-0.0182037 0.155834 -0.987615 0.0102734 0.0846451 -0.996358 0.137163 0.0375483 -0.989837 
0.285423 -0.017896 -0.958235 0.601988 -0.118546 -0.789657 -0.511724 0.176333 -0.84086 
-0.506816 0.180476 -0.842951 0.37442 0.022383 -0.926989 0.311334 0.00511938 -0.950287 
-0.0449379 0.0815545 -0.995655 0.00614503 0.100794 -0.994888 0.129675 0.0851588 -0.987893 
0.265242 0.0930943 -0.959677 0.523355 0.092557 -0.847073 -0.400378 0.292734 -0.868334 
-0.60498 0.329313 -0.72495 -0.331906 0.349267 -0.876271 0.337637 -0.0191858 -0.941081 
0.314627 -0.0435428 -0.948216 0.0724178 0.0908887 -0.993225 0.0243623 0.177256 -0.983863 
0.142237 0.220881 -0.964873 0.293444 0.22873 -0.92821 -0.723348 0.514201 -0.46083 
-0.229015 0.337961 -0.912871 -0.366552 0.437504 -0.821115 -0.230059 0.332484 -0.914619 
0.0480118 0.371033 -0.927378 0.0250955 0.541119 -0.840572 0.258321 0.233548 -0.937404 
0.161021 0.467163 -0.869385 0.277387 0.208024 -0.937967 0.174198 0.249277 -0.952636 
0.123608 0.304124 -0.944579 0.189364 0.394545 -0.899153 0.350723 0.444569 -0.824228 
-0.552161 0.603233 -0.575524 -0.186616 0.337749 -0.922551 -0.354234 0.45045 -0.81952 
-0.172164 0.340874 -0.92421 0.0100686 0.382715 -0.923812 0.144503 0.346445 -0.926874 
0.145453 0.346594 -0.926669 0.129718 0.452897 -0.882076 0.0820541 0.645265 -0.759539 
0.125746 0.68425 -0.718324 0.163364 0.646152 -0.74552 0.144495 0.601383 -0.785786 
-0.241104 0.734039 -0.634866 0.0159666 0.688133 -0.725409 0.223419 0.725309 -0.651161 
0.0540811 -0.993728 -0.0978806 -0.389324 -0.907571 -0.157292 -0.312267 -0.940178 -0.136219 
-0.237615 -0.964259 -0.117236 -0.078214 -0.992393 -0.0950704 -0.108924 -0.989432 -0.0957092 
0.0839865 -0.991202 -0.102295 0.052957 -0.998266 -0.0256836 0.180331 -0.973864 -0.138091 
0.262336 -0.949506 -0.172099 0.398287 -0.905769 -0.144741 -0.431129 -0.886685 -0.167084 
-0.559413 -0.806982 -0.189306 0.504933 -0.852629 -0.13441 0.596889 -0.788011 -0.150871 
-0.690287 -0.692001 -0.211277 -0.741158 -0.635607 -0.216076 0.72432 -0.652867 -0.221642 
0.747515 -0.613843 -0.253809 -0.813454 -0.540956 -0.213679 -0.86527 -0.444447 -0.231894 
0.762869 -0.542983 -0.351 0.701778 -0.519789 -0.487162 -0.869244 -0.435545 -0.233916 
0.68372 -0.482626 -0.547357 -0.899066 -0.351472 -0.26105 0.721474 -0.304315 -0.621987 
0.711785 -0.265711 -0.6502 0.763441 -0.339721 -0.549315 -0.941382 -0.124156 -0.313663 
-0.969913 -0.209053 0.124759 0.643331 -0.151317 -0.750486 -0.933113 0.0860105 -0.349146 
-0.993403 0.0650421 0.0944493 0.571876 0.0806091 -0.81637 0.567812 0.213211 -0.795067 
0.975798 0.0198492 -0.217771 -0.827897 0.312248 -0.465927 0.561857 0.229837 -0.794665 
0.580041 0.232522 -0.780695 -0.729079 0.515871 -0.449801 -0.726605 0.518832 -0.450398 
0.226501 0.630846 -0.742112 0.197727 0.599242 -0.775766 0.384306 0.443594 -0.80965 
0.346766 0.475616 -0.80842 0.66146 0.517992 -0.542361 -0.598275 0.620675 -0.506783 
-0.572205 0.648278 -0.502312 -0.43211 0.764369 -0.478561 0.267484 0.798795 -0.538868 
0.169286 0.808208 -0.56404 0.121446 0.8308 -0.543159 0.111851 0.775566 -0.621279 
0.225667 0.632838 -0.740669 0.135672 0.690479 -0.710516 0.227133 0.634468 -0.738824 
0.217235 0.737377 -0.639597 0.395728 0.809973 -0.432831 -0.416977 0.774893 -0.475048 
-0.4429 0.801256 -0.402279 -0.224609 0.868354 -0.442168 0.0190944 0.899691 -0.436109 
0.268725 0.807789 -0.524655 0.230953 0.841466 -0.488463 0.272151 0.840582 -0.468355 
0.190586 0.954552 -0.229144 -0.34909 -0.914899 0.202719 -0.26191 -0.933166 0.246181 
-0.191174 -0.927962 0.319905 -0.0793527 -0.924219 0.373527 0.0397608 -0.921966 0.385224 
0.126603 -0.929678 0.345935 0.212956 -0.93349 0.288524 0.390561 -0.881559 0.265169 
-0.377666 -0.904038 0.200208 -0.547345 -0.81554 0.187905 -0.342751 -0.903963 0.255681 
-0.187927 -0.843868 0.502563 0.143302 -0.746844 0.649375 0.458037 -0.850002 0.260188 
0.376858 -0.831464 0.408223 0.565238 -0.788314 0.243037 -0.671653 -0.712937 0.201501 
-0.73714 -0.64429 0.203751 0.675474 -0.712088 0.191484 0.692012 -0.702328 0.166898 
-0.815287 -0.541527 0.205075 -0.850508 -0.483372 0.207335 -0.695189 -0.466276 0.547083 
0.70166 -0.708108 0.0790987 0.712066 -0.700309 0.050301 -0.854428 -0.477602 0.204569 
-0.842071 -0.475799 0.25403 0.766743 -0.641946 -0.00327365 0.804864 -0.592829 -0.0273277 
-0.895913 -0.395497 0.202291 -0.962001 -0.22065 0.160835 0.862256 -0.501766 -0.0688805 
-0.963742 -0.214525 0.158685 -0.96167 -0.215422 0.169657 0.964585 -0.254916 -0.0677739 
0.992464 -0.073495 -0.0980534 -0.991094 0.0642267 0.116651 -0.98989 0.0799941 0.117125 
-0.990003 0.0638161 0.125782 0.986425 0.100332 -0.129998 0.99974 -0.00227447 0.0226942 
-0.952299 0.285172 0.10864 0.930274 0.322228 -0.175381 -0.84104 0.539788 0.0357848 
-0.78706 0.615847 0.0356333 -0.685074 0.48933 0.539657 0.798484 0.560168 -0.220534 
0.711557 0.664736 -0.227626 -0.706559 0.7061 0.0468731 -0.622067 0.781198 0.0525633 
0.103508 0.982355 -0.155771 0.0601346 0.979586 -0.191821 0.0400676 0.969292 -0.242628 
0.14538 0.942584 -0.300667 0.280617 0.89509 -0.346509 0.50064 0.826025 -0.258926 
0.416255 0.867541 -0.272223 -0.492669 0.867046 0.0742223 -0.445953 0.891725 0.0771592 
-0.445346 0.851368 0.277199 -0.237944 0.967342 0.0873588 -0.00658251 0.995578 0.0937041 
0.120119 0.992535 0.0211025 0.234867 0.969303 -0.0727256 0.122158 0.981162 -0.149664 
0.194197 0.973267 -0.122632 0.150164 0.938936 0.309598 -0.0656323 -0.786687 0.613853 
-0.00929564 -0.700166 0.713919 0.0191275 -0.676725 0.735987 0.0417293 -0.707299 0.705682 
-0.55367 -0.63348 0.540511 -0.320683 -0.777343 0.541203 -0.127279 -0.80977 0.572776 
-0.174677 -0.818167 0.547805 -0.0569522 -0.768565 0.637232 -0.000202415 -0.678832 0.734293 
0.0196684 -0.650843 0.758958 0.133914 -0.742133 0.656739 0.0389518 -0.696003 0.716982 
0.14247 -0.744433 0.652321 0.314934 -0.704191 0.636343 0.482156 -0.66668 0.568386 
-0.568318 -0.618208 0.542985 -0.553184 -0.609404 0.567992 -0.286131 -0.558329 0.778716 
-0.0731569 -0.454872 0.887547 0.0340576 -0.399113 0.916269 0.0737198 -0.376639 0.923422 
0.0255363 -0.375465 0.926485 -0.0167867 -0.385433 0.922583 0.0743709 -0.411171 0.908519 
0.242353 -0.526778 0.814721 0.495943 -0.660945 0.563198 0.471213 -0.648624 0.5977 
0.558054 -0.643387 0.52405 -0.675375 -0.453116 0.581854 -0.677539 -0.445993 0.584835 
-0.449664 -0.325087 0.831938 0.0762236 -0.118508 0.990023 -0.00331749 -0.23199 0.972713 
-0.010888 -0.190412 0.981644 0.0104847 -0.180509 0.983518 0.0966389 -0.297483 0.949823 
0.283096 -0.412627 0.865792 0.566149 -0.645028 0.513239 0.516197 -0.607341 0.603886 
0.609097 -0.6186 0.496321 -0.66422 -0.380404 0.64351 -0.693967 -0.341551 0.63384 
-0.565476 -0.290536 0.771898 -0.358651 -0.162421 0.919233 0.323304 -0.397352 0.858828 
0.626604 -0.59847 0.4992 0.557011 -0.562124 0.611356 0.696397 -0.518443 0.496234 
-0.698748 -0.332497 0.633401 -0.683987 -0.330758 0.6502 -0.425951 -0.191595 0.884227 
0.404905 -0.273662 0.872446 0.719372 -0.48766 0.494663 0.687485 -0.483517 0.541826 
-0.740092 -0.21653 0.636694 -0.60221 -0.204363 0.771738 -0.298315 -0.118949 0.947027 
0.855387 -0.252695 0.452171 0.601911 -0.242406 0.760882 -0.794152 0.00546627 0.607694 
-0.577235 -0.00348521 0.816571 -0.290323 -0.0018109 0.956927 0.889253 -0.0349848 0.456075 
0.507722 -0.0292373 0.861024 -0.76854 0.233543 0.595654 -0.680822 0.482136 0.551385 
-0.610786 0.213446 0.762484 -0.330578 0.081913 0.940217 0.889891 0.229397 0.394297 
0.59753 0.209053 0.774116 -0.678518 0.485914 0.550909 -0.434478 0.306745 0.846839 
0.757901 0.521493 0.391959 0.711779 0.576619 0.401099 0.691308 0.497012 0.524473 
-0.566068 0.637812 0.522268 -0.551897 0.649695 0.522787 -0.544058 0.628581 0.555777 
-0.406727 0.730459 0.548637 -0.316885 0.50426 0.80331 -0.141107 0.404904 0.903406 
0.0941364 0.38363 0.918676 0.137737 0.905763 0.400776 0.0639314 0.385288 0.920579 
0.0590349 0.920378 0.386548 -0.0487648 0.465359 0.883777 -0.00205523 0.955308 0.295607 
-0.106915 0.46401 0.879354 -0.00373779 0.974112 0.226036 0.123523 0.966029 0.227002 
0.3053 0.924344 0.228866 0.268861 0.622248 0.735201 0.57555 0.755165 0.313798 
0.511535 0.807659 0.29329 0.507055 0.761582 0.403593 -0.283505 0.787759 0.546864 
-0.19456 0.806206 0.558729 -0.19478 0.766059 0.612548 -0.0491848 0.838423 0.542796 
-0.0516804 0.764699 0.642312 0.03327 0.854893 0.517737 0.0361626 0.776609 0.628944 
0.136707 0.905392 0.401965 0.126363 0.880801 0.456313 0.113818 0.823474 0.55582 
-0.21526 -0.292386 0.931758 -0.0435113 -0.308828 0.950122 0.0632019 -0.241279 0.968396 
-0.239174 -0.260616 0.935348 -0.206205 -0.250423 0.945922 -0.025693 -0.199444 0.979572 
0.0780319 -0.121111 0.989567 0.0854986 -0.13762 0.986788 0.0265182 -0.117516 0.992717 
-0.0105118 -0.229198 0.973323 -0.00544048 -0.189371 0.98189 0.000869792 -0.177862 0.984055 
0.0788442 -0.278875 0.957085 0.187157 -0.30597 0.933464 -0.315021 -0.140849 0.938575 
-0.281663 -0.098112 0.954484 -0.152248 -0.0682571 0.985982 0.0467957 -0.0789147 0.995782 
0.122382 -0.120756 0.98511 -0.0241463 -0.118892 0.992613 -0.0344769 -0.22256 0.974309 
0.0242721 -0.185896 0.98227 -0.0492327 -0.171793 0.983902 0.0049678 -0.190741 0.981628 
0.227912 -0.321797 0.918968 0.148821 -0.263171 0.953202 0.2539 -0.318292 0.913359 
-0.260396 -0.0781948 0.96233 -0.246405 -0.0693514 0.966682 -0.134643 0.038965 0.990128 
-0.0741332 0.0470407 0.996138 0.0351809 -0.138546 0.989731 -0.0191464 -0.176595 0.984097 
-0.0698714 0.00571728 0.99754 0.0407679 -0.184279 0.982028 0.00803164 -0.108088 0.994109 
0.00185504 -0.090406 0.995903 0.071266 -0.124999 0.989594 0.379734 -0.26346 0.886787 
0.167635 -0.194514 0.966469 0.377991 -0.219631 0.899381 -0.201306 -0.0780851 0.976411 
-0.141674 -0.0554603 0.988359 -0.042223 0.0145647 0.999002 -0.119273 0.0875107 0.988997 
-0.107741 0.096648 0.98947 0.119255 -0.134508 0.98371 -0.0488415 -0.011374 0.998742 
-0.0810139 0.0687041 0.994342 0.0371711 0.0292002 0.998882 -0.0155425 -0.0058893 0.999862 
0.0376169 -0.0432942 0.998354 0.154025 -0.0701829 0.985571 0.335318 -0.104275 0.936316 
0.305483 -0.0877288 0.948148 -0.230801 -0.00897652 0.97296 -0.122566 -0.024273 0.992163 
0.00432973 -0.0315582 0.999493 0.00304743 -0.0420202 0.999112 -0.180155 0.0387858 0.982873 
-0.11735 0.00678252 0.993067 0.131933 0.0111708 0.991196 0.0770552 0.176991 0.981191 
-0.0684377 0.026275 0.997309 -0.0699903 -0.0350695 0.996931 0.00694139 -0.0600352 0.998172 
0.113284 -0.017735 0.993404 0.340373 -0.0329251 0.939714 0.243755 -0.0413239 0.968956 
-0.242352 0.0561922 0.96856 -0.162416 0.0449275 0.985699 -0.0588607 -0.00495617 0.998254 
-0.048317 -0.0675926 0.996542 -0.0575543 -0.0649231 0.996229 0.0755922 0.143317 0.986786 
0.135116 0.20213 0.969993 -0.0823217 0.0668217 0.994363 -0.170955 0.0103032 0.985225 
-0.101443 -0.0175129 0.994687 0.0554282 0.0168778 0.99832 0.164544 -0.017464 0.986215 
0.356536 0.0837752 0.930518 0.294336 0.0478198 0.954505 -0.233813 0.21278 0.948713 
-0.212631 0.236132 0.948172 -0.204037 0.204187 0.957432 -0.126667 0.313291 0.941172 
-0.108531 0.15408 0.98208 -0.0599786 0.114632 0.991596 0.0323303 0.132127 0.990705 
0.10438 0.343385 0.933376 0.143664 0.200085 0.969189 0.0545331 0.161843 0.985309 
0.0541136 0.147984 0.987508 -0.0881793 0.229613 0.969279 -0.104867 0.129092 0.986072 
-0.126244 0.379638 0.916481 -0.167454 0.17319 0.970549 -0.0558521 0.175281 0.982933 
0.00841495 0.190947 0.981564 0.211761 0.456682 0.864059 0.182981 0.260932 0.947857 
0.434568 0.283704 0.854788 0.425516 0.332724 0.841564 0.412785 0.259282 0.873145 
-0.0612091 0.357352 0.931962 -0.0568426 0.359067 0.931579 -0.0569144 0.355026 0.933122 
0.0465475 0.394376 0.917769 0.0264099 0.412425 0.910608 0.0250877 0.401653 0.915448 
-0.0767427 0.471791 0.878364 -0.0514687 0.521933 0.851432 -0.0569072 0.490336 0.869674 
0.154242 0.526444 0.836101 0.130755 0.544966 0.8282 0.130568 0.521105 0.843446 

