# vtk DataFile Version 4.2
vtk output
ASCII
DATASET POLYDATA
POINTS 516 float
-27.1845 -40.3836 -17.6128 -19.0669 -40.3836 -18.8027 -10.9492 -40.3836 -19.6522 
-2.83157 -40.3836 -19.4067 5.28609 -40.3836 -19.1565 13.4037 -40.3836 -17.4343 
-35.3022 -32.266 -19.6271 -27.1845 -32.266 -22.1139 -19.0669 -32.266 -22.1401 
-10.9492 -32.266 -22.1251 -2.83157 -32.266 -21.9254 5.28609 -32.266 -21.2383 
13.4037 -32.266 -20.2243 21.5214 -32.266 -19.4188 29.6391 -32.266 -17.0619 
-43.4199 -24.1483 -17.5389 -35.3022 -24.1483 -22.217 -27.1845 -24.1483 -23.3809 
-19.0669 -24.1483 -22.8906 -10.9492 -24.1483 -22.5329 -2.83157 -24.1483 -21.7981 
5.28609 -24.1483 -21.1878 13.4037 -24.1483 -20.9917 21.5214 -24.1483 -20.8805 
29.6391 -24.1483 -20.0853 37.7567 -24.1483 -17.495 -43.4199 -16.0306 -17.8436 
-35.3022 -16.0306 -21.929 -27.1845 -16.0306 -22.9707 -19.0669 -16.0306 -22.4503 
-10.9492 -16.0306 -21.8069 -2.83157 -16.0306 -22.3714 5.28609 -16.0306 -21.4247 
13.4037 -16.0306 -20.8224 21.5214 -16.0306 -20.8512 29.6391 -16.0306 -20.4228 
37.7567 -16.0306 -19.0601 45.8744 -16.0306 -16.3102 -43.4199 -7.91299 -17.0285 
-35.3022 -7.91299 -20.7263 -27.1845 -7.91299 -21.969 -19.0669 -7.91299 -21.8463 
-10.9492 -7.91299 -22.1174 -2.83157 -7.91299 -23.7902 5.28609 -7.91299 -22.3671 
13.4037 -7.91299 -20.4759 21.5214 -7.91299 -19.925 29.6391 -7.91299 -20.0283 
37.7567 -7.91299 -19.4341 45.8744 -7.91299 -17.7246 -43.4199 0.204667 -16.2439 
-35.3022 0.204667 -19.1803 -27.1845 0.204667 -20.4079 -19.0669 0.204667 -20.8987 
-10.9492 0.204667 -22.5714 -2.83157 0.204667 -19.8822 5.28609 0.204667 -18.7785 
13.4037 0.204667 -19.7693 21.5214 0.204667 -18.6208 29.6391 0.204667 -19.1126 
37.7567 0.204667 -18.882 45.8744 0.204667 -17.5137 -35.3022 8.32232 -18.3787 
-27.1845 8.32232 -19.3994 -19.0669 8.32232 -19.6577 -10.9492 8.32232 -21.4636 
-2.83157 8.32232 -20.3667 5.28609 8.32232 -18.9864 13.4037 8.32232 -18.4944 
21.5214 8.32232 -17.5646 29.6391 8.32232 -17.8826 37.7567 8.32232 -17.7187 
45.8744 8.32232 -16.3434 -35.3022 16.44 -17.4544 -27.1845 16.44 -18.36 
-19.0669 16.44 -18.3962 -10.9492 16.44 -18.8778 -2.83157 16.44 -19.7137 
5.28609 16.44 -18.7259 13.4037 16.44 -17.4281 21.5214 16.44 -16.7983 
29.6391 16.44 -16.6179 37.7567 16.44 -16.1526 -35.3022 24.5576 -16.3392 
-27.1845 24.5576 -17.3058 -19.0669 24.5576 -17.4647 -10.9492 24.5576 -17.5561 
-2.83157 24.5576 -17.4385 5.28609 24.5576 -17.1157 13.4037 24.5576 -16.4527 
-19.0669 32.6753 -16.3786 -27.1845 -41.7878 -15.7679 -19.0669 -43.8789 -15.7679 
-10.9492 -45.1483 -15.7679 -2.83157 -45.1747 -15.7679 5.28609 -44.7942 -15.7679 
13.4037 -42.458 -15.7679 -30.4623 -40.3836 -15.7679 -35.3022 -37.5819 -15.7679 
-35.3022 -40.3836 -8.91821 18.5616 -40.3836 -15.7679 21.5214 -38.6641 -15.7679 
21.5214 -40.3836 -14.0103 29.6391 -34.3813 -15.7679 -41.2847 -32.266 -15.7679 
-43.4199 -28.3144 -15.7679 -43.4199 -32.266 -11.9659 32.7096 -32.266 -15.7679 
37.7567 -27.8982 -15.7679 37.7567 -32.266 -11.9794 -45.1727 -24.1483 -15.7679 
41.3842 -24.1483 -15.7679 45.8744 -17.5164 -15.7679 45.8744 -24.1483 -12.4228 
-45.8576 -16.0306 -15.7679 -51.5375 -16.0306 -8.00499 46.7501 -16.0306 -15.7679 
53.992 -16.0306 -10.1223 -45.0191 -7.91299 -15.7679 -51.5375 -7.91299 -9.59545 
50.2721 -7.91299 -15.7679 53.992 -7.91299 -13.7041 -44.2408 0.204667 -15.7679 
-51.5375 0.204667 -10.7762 -43.4199 5.57894 -15.7679 50.2696 0.204667 -15.7679 
53.992 0.204667 -14.1785 -51.5375 8.32232 -10.5607 -42.7649 8.32232 -15.7679 
-43.4199 8.32232 -15.5287 47.3801 8.32232 -15.7679 45.8744 11.2579 -15.7679 
53.992 8.32232 -13.007 -51.5375 16.44 -9.56885 -40.3158 16.44 -15.7679 
-43.4199 16.44 -14.6552 21.5214 23.0964 -15.7679 29.6391 20.139 -15.7679 
39.9549 16.44 -15.7679 37.7567 17.7902 -15.7679 45.8744 16.44 -14.5805 
53.992 16.44 -10.41 -36.9686 24.5576 -15.7679 -43.4199 24.5576 -13.1033 
-35.3022 26.4333 -15.7679 -27.1845 30.5538 -15.7679 -10.9492 32.1294 -15.7679 
-2.83157 30.556 -15.7679 5.28609 29.0123 -15.7679 19.4762 24.5576 -15.7679 
13.4037 27.3346 -15.7679 21.5214 24.5576 -15.5315 29.6391 24.5576 -14.7041 
37.7567 24.5576 -13.5007 45.8744 24.5576 -10.3565 -43.4199 32.6753 -8.49917 
-35.3022 32.6753 -13.4487 -23.4965 32.6753 -15.7679 -27.1845 32.6753 -15.2064 
-12.2979 32.6753 -15.7679 -19.0669 34.2553 -15.7679 -10.9492 32.6753 -15.6386 
-2.83157 32.6753 -15.1414 5.28609 32.6753 -14.5571 13.4037 32.6753 -14.2212 
21.5214 32.6753 -12.6243 29.6391 32.6753 -10.6133 37.7567 32.6753 -7.76508 
-27.1845 40.793 -10.5581 -19.0669 40.793 -12.1348 -10.9492 40.793 -11.5633 
-2.83157 40.793 -10.4695 5.28609 40.793 -9.23174 -35.3022 -40.7508 -7.65026 
-27.1845 -44.5952 -7.65026 -19.0669 -46.8836 -7.65026 -10.9492 -48.02 -7.65026 
-2.83157 -48.4711 -7.65026 5.28609 -48.1228 -7.65026 13.4037 -46.7237 -7.65026 
21.5214 -43.767 -7.65026 -35.8725 -40.3836 -7.65026 -43.4199 -34.2047 -7.65026 
-35.3022 -40.3836 -5.19525 29.0308 -40.3836 -7.65026 29.6391 -40.0753 -7.65026 
37.7567 -34.9497 -7.65026 -45.0306 -32.266 -7.65026 41.3345 -32.266 -7.65026 
45.8744 -28.2976 -7.65026 -49.7337 -24.1483 -7.65026 -51.5375 -16.9037 -7.65026 
49.9131 -24.1483 -7.65026 53.992 -18.9548 -7.65026 -51.7635 -16.0306 -7.65026 
56.0264 -16.0306 -7.65026 -53.223 -7.91299 -7.65026 59.5511 -7.91299 -7.65026 
-54.9705 0.204667 -7.65026 -59.6552 0.204667 0.179175 60.4766 0.204667 -7.65026 
62.1097 0.204667 -2.55307 -54.974 8.32232 -7.65026 59.9853 8.32232 -7.65026 
62.1097 8.32232 -2.83482 -53.8128 16.44 -7.65026 -51.5375 22.1835 -7.65026 
57.4719 16.44 -7.65026 53.992 20.47 -7.65026 -50.454 24.5576 -7.65026 
-51.5375 24.5576 -6.18727 49.8226 24.5576 -7.65026 45.8744 27.8331 -7.65026 
53.992 24.5576 -2.99787 -44.5179 32.6753 -7.65026 -43.4199 33.5696 -7.65026 
-35.3022 39.3835 -7.65026 13.4037 40.5861 -7.65026 21.5214 38.7063 -7.65026 
29.6391 35.8646 -7.65026 37.9693 32.6753 -7.65026 37.7567 32.8033 -7.65026 
45.8744 32.6753 -1.22181 -32.9409 40.793 -7.65026 -35.3022 40.793 -3.88986 
-27.1845 43.3821 -7.65026 -19.0669 44.9814 -7.65026 -10.9492 44.7966 -7.65026 
-2.83157 43.4925 -7.65026 12.5026 40.793 -7.65026 5.28609 42.113 -7.65026 
13.4037 40.793 -7.28262 21.5214 40.793 -4.07299 -27.1845 -42.6976 0.467402 
-19.0669 -45.2742 0.467402 -10.9492 -46.5381 0.467402 -2.83157 -47.1492 0.467402 
5.28609 -46.9789 0.467402 13.4037 -45.6788 0.467402 21.5214 -43.0151 0.467402 
-43.4199 -32.3691 0.467402 -33.0782 -40.3836 0.467402 -35.3022 -39.3613 0.467402 
-27.1845 -40.3836 4.24777 -19.0669 -40.3836 8.08059 28.0787 -40.3836 0.467402 
21.5214 -40.3836 5.73799 29.6391 -39.7495 0.467402 37.7567 -35.1485 0.467402 
-43.5207 -32.266 0.467402 -43.4199 -32.266 0.633947 41.7144 -32.266 0.467402 
37.7567 -32.266 8.12661 45.8744 -29.1014 0.467402 -49.8737 -24.1483 0.467402 
-51.5375 -21.2133 0.467402 51.1935 -24.1483 0.467402 53.992 -21.1847 0.467402 
-54.1279 -16.0306 0.467402 57.7861 -16.0306 0.467402 -56.9393 -7.91299 0.467402 
-59.6552 -0.183684 0.467402 61.3836 -7.91299 0.467402 62.1097 -4.36452 0.467402 
-59.7753 0.204667 0.467402 -59.6552 5.08781 0.467402 -59.6552 0.204667 4.70121 
62.9625 0.204667 0.467402 62.1097 0.204667 3.46494 -59.5635 8.32232 0.467402 
63.2649 8.32232 0.467402 62.1097 12.555 0.467402 62.1097 8.32232 5.28124 
-58.5101 16.44 0.467402 60.9505 16.44 0.467402 -54.9444 24.5576 0.467402 
-51.5375 29.2065 0.467402 56.1532 24.5576 0.467402 53.992 27.0636 0.467402 
-48.2699 32.6753 0.467402 -43.4199 36.7139 0.467402 29.6391 40.4738 0.467402 
37.7567 37.5644 0.467402 47.3412 32.6753 0.467402 45.8744 33.7397 0.467402 
-37.2989 40.793 0.467402 -35.3022 41.9606 0.467402 -35.3022 40.793 4.03239 
-27.1845 45.6929 0.467402 -19.0669 47.7644 0.467402 -10.9492 47.9016 0.467402 
-2.83157 46.6927 0.467402 5.28609 45.0282 0.467402 13.4037 43.8484 0.467402 
28.5091 40.793 0.467402 21.5214 42.5767 0.467402 -10.9492 -41.401 8.58506 
-2.83157 -41.8662 8.58506 5.28609 -41.5989 8.58506 13.4037 -40.6586 8.58506 
-35.3022 -33.563 8.58506 -27.1845 -37.1122 8.58506 -17.0564 -40.3836 8.58506 
-19.0669 -39.9893 8.58506 -10.9492 -40.3836 9.70803 -2.83157 -40.3836 10.2138 
5.28609 -40.3836 9.92812 14.6569 -40.3836 8.58506 13.4037 -40.3836 8.90176 
21.5214 -38.7009 8.58506 29.6391 -35.7385 8.58506 -37.1081 -32.266 8.58506 
-43.4199 -27.3221 8.58506 -35.3022 -32.266 9.83857 -27.1845 -32.266 12.7983 
-19.0669 -32.266 14.8895 -10.9492 -32.266 15.7648 -2.83157 -32.266 16.3324 
5.28609 -32.266 16.1385 13.4037 -32.266 15.4713 21.5214 -32.266 14.6712 
37.3656 -32.266 8.58506 29.6391 -32.266 12.4502 37.7567 -32.061 8.58506 
45.8744 -26.1859 8.58506 -46.3289 -24.1483 8.58506 -51.5375 -17.4075 8.58506 
-43.4199 -24.1483 11.5951 -35.3022 -24.1483 15.8391 37.7567 -24.1483 15.9037 
48.0444 -24.1483 8.58506 45.8744 -24.1483 10.9003 53.992 -17.0318 8.58506 
-52.4251 -16.0306 8.58506 -51.5375 -16.0306 9.91744 45.8744 -16.0306 16.3317 
54.7181 -16.0306 8.58506 53.992 -16.0306 9.50342 -56.6537 -7.91299 8.58506 
-51.5375 -7.91299 16.439 58.6761 -7.91299 8.58506 53.992 -7.91299 13.89 
-59.5228 0.204667 8.58506 60.379 0.204667 8.58506 53.992 0.204667 15.6531 
-59.0363 8.32232 8.58506 61.1317 8.32232 8.58506 53.992 8.32232 16.4804 
-57.4123 16.44 8.58506 -51.5375 16.44 16.3975 58.9338 16.44 8.58506 
53.992 16.44 14.3978 -53.1283 24.5576 8.58506 -51.5375 26.4413 8.58506 
-51.5375 24.5576 10.3752 -43.4199 24.5576 16.0224 45.8744 24.5576 16.2893 
54.5778 24.5576 8.58506 53.992 25.2819 8.58506 53.992 24.5576 9.32563 
-44.9937 32.6753 8.58506 -43.4199 33.8716 8.58506 -43.4199 32.6753 9.96379 
-35.3022 38.9471 8.58506 -35.3022 32.6753 14.4839 29.6391 39.9322 8.58506 
37.7567 37.3542 8.58506 37.7567 32.6753 14.9584 46.2949 32.6753 8.58506 
45.8744 33.0001 8.58506 45.8744 32.6753 9.0568 -32.041 40.793 8.58506 
-27.1845 43.0656 8.58506 -27.1845 40.793 11.3926 -19.0669 44.9243 8.58506 
-19.0669 40.793 13.2481 -10.9492 45.5272 8.58506 -10.9492 40.793 14.2449 
-2.83157 44.7897 8.58506 -2.83157 40.793 13.7748 5.28609 43.5291 8.58506 
5.28609 40.793 12.5269 13.4037 42.6442 8.58506 13.4037 40.793 11.5135 
[...]
POINT_DATA 516
SCALARS ImageScalars float
LOOKUP_TABLE default
0 0 0 0 0 0 0 0 0 
0 0 0 0 0 0 0 0 0 
0 0 0 0 0 0 0 0 0 
0 0 0 0 0 0 0 0 0 
0 0 0 0 0 0 0 0 0 
0 0 0 0 0 0 0 0 0 
0 0 0 0 0 0 0 0 0 
0 0 0 0 0 0 0 0 0 
0 0 0 0 0 0 0 0 0 
0 0 0 0 0 0 0 0 0 
0 0 0 0 0 0 0 0 0 
0 0 0 0 0 0 0 0 0 
0 0 0 0 0 0 0 0 0 
0 0 0 0 0 0 0 0 0 
0 0 0 0 0 0 0 0 0 
0 0 0 0 0 0 0 0 0 
0 0 0 0 0 0 0 0 0 
0 0 0 0 0 0 0 0 0 
0 0 0 0 0 0 0 0 0 
0 0 0 0 0 0 0 0 0 
0 0 0 0 0 0 0 0 0 
0 0 0 0 0 0 0 0 0 
0 0 0 0 0 0 0 0 0 
0 0 0 0 0 0 0 0 0 
0 0 0 0 0 0 0 0 0 
0 0 0 0 0 0 0 0 0 
0 0 0 0 0 0 0 0 0 
0 0 0 0 0 0 0 0 0 
0 0 0 0 0 0 0 0 0 
0 0 0 0 0 0 0 0 0 
0 0 0 0 0 0 0 0 0 
0 0 0 0 0 0 0 0 0 
0 0 0 0 0 0 0 0 0 
0 0 0 0 0 0 0 0 0 
0 0 0 0 0 0 0 0 0 
0 0 0 0 0 0 0 0 0 
0 0 0 0 0 0 0 0 0 
0 0 0 0 0 0 0 0 0 
0 0 0 0 0 0 0 0 0 
0 0 0 0 0 0 0 0 0 
0 0 0 0 0 0 0 0 0 
0 0 0 0 0 0 0 0 0 
0 0 0 0 0 0 0 0 0 
0 0 0 0 0 0 0 0 0 
0 0 0 0 0 0 0 0 0 
0 0 0 0 0 0 0 0 0 
0 0 0 0 0 0 0 0 0 
0 0 0 0 0 0 0 0 0 
0 0 0 0 0 0 0 0 0 
0 0 0 0 0 0 0 0 0 
0 0 0 0 0 0 0 0 0 
0 0 0 0 0 0 0 0 0 
0 0 0 0 0 0 0 0 0 
0 0 0 0 0 0 0 0 0 
0 0 0 0 0 0 0 0 0 
0 0 0 0 0 0 0 0 0 
0 0 0 0 0 0 0 0 0 
0 0 0 
NORMALS Normals float
0.269828 0.720927 0.638323 0.102745 0.599971 0.793397 0.0357246 0.503721 0.863127 
-0.0315756 0.483063 0.875016 -0.117347 0.468095 0.875852 -0.24216 0.538279 0.807226 
0.388777 0.430252 0.8147 0.136948 0.261249 0.955507 0.000503953 0.219984 0.975503 
-0.0131816 0.167065 0.985858 -0.0541461 0.126712 0.990461 -0.103596 0.119668 0.987394 
-0.10423 0.202274 0.973767 -0.183663 0.311029 0.932485 -0.324379 0.454191 0.829752 
0.666542 0.177268 0.724084 0.276623 0.121462 0.953271 0.0337111 0.0434143 0.998488 
-0.049989 0.0217905 0.998512 -0.0692277 -0.0213778 0.997372 -0.0798995 0.0275768 0.996421 
-0.0496199 0.0110901 0.998707 -0.0188151 0.035295 0.9992 -0.052399 0.0774733 0.995616 
-0.199357 0.187615 0.961799 -0.366161 0.300159 0.880812 0.60218 -0.0281256 0.797865 
0.274856 -0.0839438 0.957814 0.0292464 -0.0852187 0.995933 -0.0713238 -0.0621296 0.995516 
-0.00498781 -0.0237507 0.999705 -0.0219118 0.120409 0.992483 -0.0987675 0.0730896 0.992423 
-0.033959 -0.0312894 0.998933 -0.024361 -0.0583707 0.997998 -0.107451 -0.0052533 0.994197 
-0.227415 0.115168 0.966964 -0.436219 0.242932 0.866428 0.542596 -0.0891976 0.835245 
0.262595 -0.165701 0.950572 0.0633567 -0.154729 0.985923 0.00868303 -0.0971874 0.995228 
0.117992 0.0487366 0.991818 0.0145714 -0.0985308 0.995027 -0.201481 -0.136975 0.969868 
-0.146028 -0.064015 0.987207 -0.026914 -0.136488 0.990276 -0.0296471 -0.0801787 0.996339 
-0.133528 -0.0116825 0.990976 -0.310589 0.062119 0.948512 0.435098 -0.0785022 0.896954 
0.237872 -0.135577 0.961788 0.10389 -0.15755 0.982031 0.129401 -0.128404 0.983244 
-0.0226893 -0.0335854 0.999178 -0.260275 -0.235255 0.936436 0.00945527 -0.222932 0.974788 
-0.0181193 -0.120546 0.992542 -0.0391323 -0.144566 0.988721 0.0159809 -0.130833 0.991276 
-0.0932499 -0.104425 0.990151 -0.262346 -0.0815492 0.961522 0.219001 -0.102479 0.970328 
0.0753355 -0.122305 0.989629 0.114565 -0.154001 0.981406 0.0494795 -0.22664 0.972721 
-0.154814 -0.0166188 0.987804 -0.108432 -0.00465242 0.994093 -0.0886552 -0.145481 0.985381 
-0.0351496 -0.111274 0.993168 0.00957867 -0.150048 0.988632 -0.0890835 -0.158893 0.983269 
-0.254756 -0.159937 0.953687 0.208434 -0.114662 0.971292 0.0562291 -0.125988 0.990437 
0.0300828 -0.132614 0.990711 0.0793182 -0.224399 0.971264 -0.0111019 -0.183148 0.983023 
-0.137907 -0.115618 0.983674 -0.11574 -0.120861 0.985899 -0.0489564 -0.120947 0.991451 
-0.0382343 -0.194076 0.980241 -0.114674 -0.238718 0.964294 0.21628 -0.208488 0.953811 
0.0638458 -0.183117 0.981016 0.0147381 -0.123979 0.992175 -0.00170352 -0.186929 0.982372 
-0.0264432 -0.259161 0.965472 -0.0591461 -0.23779 0.969514 -0.0941353 -0.178618 0.979405 
0.0228973 -0.26475 0.964045 0.301906 0.789955 0.533689 0.178197 0.778308 0.602065 
0.0661773 0.783567 0.617772 -0.017743 0.758668 0.651236 -0.130283 0.738662 0.661366 
-0.264413 0.646165 0.715931 0.373776 0.763211 0.527068 0.471584 0.677514 0.564431 
0.517503 0.846619 0.124208 -0.306946 0.631726 0.711833 -0.305329 0.608191 0.73272 
-0.351574 0.738411 0.575452 -0.359948 0.541577 0.759692 0.65567 0.49066 0.57389 
0.719521 0.352288 0.598484 0.770063 0.554848 0.314875 -0.390889 0.514356 0.763311 
-0.43004 0.440955 0.787797 -0.539015 0.681036 0.495634 0.728829 0.211075 0.651349 
-0.450428 0.370794 0.812174 -0.461336 0.280558 0.841698 -0.606441 0.523653 0.598345 
0.672314 -0.00283433 0.740261 0.885959 0.177319 0.428525 -0.460682 0.25615 0.8498 
-0.719659 0.43333 0.542509 0.583684 -0.064407 0.809423 0.778171 0.112466 0.617901 
-0.423002 0.116483 0.89861 -0.585555 0.185194 0.789195 0.453475 -0.0687783 0.888611 
0.670373 0.0398811 0.740951 0.421584 -0.0843781 0.902855 -0.37635 -0.0666791 0.924075 
-0.511196 -0.0434078 0.858367 0.639579 -0.0615199 0.76626 0.39924 -0.0899966 0.912419 
0.415367 -0.0884759 0.905341 -0.295024 -0.165688 0.941015 -0.275565 -0.211875 0.937642 
-0.526037 -0.209192 0.824332 0.650212 -0.186074 0.736614 0.331948 -0.113904 0.936396 
0.418427 -0.121123 0.900138 -0.0932242 -0.212923 0.972612 -0.0666482 -0.239069 0.968712 
-0.166724 -0.259484 0.951247 -0.131641 -0.267667 0.954476 -0.308479 -0.32392 0.894381 
-0.536154 -0.401572 0.742482 0.26321 -0.221216 0.939034 0.487004 -0.300473 0.820087 
0.235936 -0.258975 0.936625 0.127498 -0.301199 0.944999 -0.0698276 -0.306198 0.949404 
-0.0507383 -0.333065 0.941538 -0.0516506 -0.316639 0.947139 -0.100823 -0.218984 0.970505 
-0.0975582 -0.252189 0.962748 -0.103702 -0.234524 0.966563 -0.105999 -0.304576 0.946572 
-0.230309 -0.428891 0.873504 -0.407236 -0.524044 0.748021 0.545823 -0.593628 0.591341 
0.332954 -0.478076 0.812764 0.0911974 -0.306505 0.94749 0.152555 -0.348499 0.924811 
-0.0584747 -0.306778 0.949983 0.0262485 -0.322989 0.946039 -0.0742186 -0.315773 0.945928 
-0.0625277 -0.365531 0.928696 -0.0522124 -0.398645 0.915618 -0.106267 -0.429527 0.89678 
-0.184842 -0.493984 0.849596 -0.248387 -0.581328 0.77483 -0.358013 -0.651613 0.668751 
0.259337 -0.685547 0.680272 0.0472213 -0.63647 0.769854 -0.0823268 -0.627131 0.774551 
-0.115432 -0.682417 0.721791 -0.142779 -0.759153 0.63506 0.515186 0.854992 0.0597622 
0.337408 0.940285 0.0449524 0.208714 0.976358 0.0562533 0.0959489 0.994024 0.0520622 
0.00632415 0.998227 0.0591916 -0.103192 0.990707 0.0886105 -0.25638 0.95671 0.13775 
-0.374665 0.913598 0.158002 0.528478 0.846738 0.0611998 0.758989 0.646852 0.0742832 
0.507953 0.859704 -0.0537825 -0.464365 0.868315 0.174339 -0.472807 0.862812 0.17891 
-0.559863 0.791171 0.246175 0.800574 0.592016 0.0927267 -0.602009 0.75402 0.262754 
-0.656987 0.68543 0.313934 0.910451 0.356007 0.210564 0.896072 0.203099 0.394723 
-0.715407 0.610079 0.340581 -0.75863 0.510954 0.404235 0.890372 0.186694 0.41519 
-0.786036 0.455506 0.417925 0.817768 0.155562 0.554126 -0.870229 0.246648 0.426458 
0.771513 0.0867321 0.630274 0.962471 0.152851 0.224244 -0.886662 0.0237628 0.461808 
-0.985785 0.0810013 0.147196 0.751192 -0.0494975 0.658225 -0.812001 -0.140945 0.566382 
-0.963827 -0.119402 0.238286 0.719546 -0.201977 0.664423 0.69536 -0.313803 0.646531 
-0.679276 -0.414082 0.605904 -0.582669 -0.513009 0.630332 0.684837 -0.362472 0.632149 
0.743075 -0.397988 0.538001 -0.518957 -0.567323 0.639397 -0.440058 -0.61351 0.655709 
-0.693743 -0.627351 0.353768 0.575458 -0.603951 0.551445 0.554956 -0.625869 0.548007 
0.464434 -0.722312 0.512412 -0.169013 -0.808034 0.564372 -0.214034 -0.749821 0.626065 
-0.265149 -0.705303 0.657452 -0.361569 -0.653892 0.6646 -0.358839 -0.655427 0.664567 
-0.516919 -0.798285 0.30909 0.41489 -0.754234 0.508918 0.492895 -0.835047 0.244441 
0.270271 -0.817924 0.507891 0.0838864 -0.815885 0.572097 -0.0810192 -0.797623 0.597691 
-0.1456 -0.793637 0.590712 -0.167963 -0.810837 0.560652 -0.157023 -0.816305 0.555869 
-0.169388 -0.824502 0.539911 -0.213078 -0.895098 0.391659 0.309956 0.877233 -0.366592 
0.210196 0.907261 -0.364272 0.0997878 0.930345 -0.352845 0.0245116 0.936584 -0.349585 
-0.0782775 0.934759 -0.346551 -0.216869 0.92131 -0.32273 -0.320772 0.912567 -0.253629 
0.676785 0.675644 -0.292349 0.413784 0.841366 -0.347685 0.467265 0.81882 -0.333462 
0.297995 0.80931 -0.506179 0.194032 0.76005 -0.620223 -0.388396 0.893823 -0.22412 
-0.272186 0.841501 -0.46668 -0.409178 0.887202 -0.21318 -0.53224 0.833532 -0.148138 
0.678625 0.674232 -0.291342 0.675349 0.674976 -0.297173 -0.581846 0.802641 -0.131236 
-0.463483 0.767855 -0.442247 -0.639581 0.761711 -0.1036 0.84241 0.517036 -0.151722 
0.887759 0.454354 -0.0738043 -0.724059 0.685016 -0.0805748 -0.780686 0.620545 -0.0738401 
0.926144 0.375914 0.0307655 -0.863209 0.500696 -0.0646101 0.939322 0.302435 0.161883 
0.964738 0.16303 0.206643 -0.947415 0.316575 -0.046744 -0.974663 0.222112 -0.0264201 
0.965499 0.153833 0.210113 0.982089 0.0182176 0.187534 0.986104 0.154875 -0.0601041 
-0.994537 0.10435 0.00263303 -0.978535 0.120121 -0.167449 0.982608 -0.0692432 0.172296 
-0.991584 -0.117343 0.0547036 -0.966691 -0.253179 0.037529 -0.961304 -0.105062 -0.25467 
0.954653 -0.261073 0.143101 -0.92296 -0.383199 0.0361015 0.861348 -0.494561 0.116145 
0.781703 -0.621039 0.0570155 -0.76709 -0.621556 0.158877 -0.711186 -0.683091 0.166134 
0.693969 -0.719812 0.0166727 0.613877 -0.78939 0.00433336 -0.282434 -0.944284 0.168994 
-0.380495 -0.902539 0.201611 -0.552795 -0.805234 0.214512 -0.521809 -0.823774 0.221612 
0.506328 -0.862066 -0.0217803 0.47365 -0.880154 -0.0313787 0.474409 -0.853445 -0.215795 
0.325185 -0.945432 -0.0203153 0.135266 -0.990749 -0.0109192 -0.0661251 -0.997487 0.0254347 
-0.174749 -0.982942 0.0573338 -0.172941 -0.98243 0.0701571 -0.155901 -0.982782 0.0991649 
-0.26948 -0.949048 0.163368 -0.196915 -0.97073 0.137509 0.0909193 0.759541 -0.644074 
0.0100545 0.764313 -0.644767 -0.0613991 0.762552 -0.644006 -0.13846 0.770772 -0.621883 
0.403129 0.669743 -0.623644 0.280626 0.692242 -0.664869 0.167225 0.751094 -0.638665 
0.19175 0.744016 -0.640056 0.0902232 0.731645 -0.675689 0.0101711 0.724783 -0.688902 
-0.0586893 0.731681 -0.679116 -0.154965 0.772506 -0.615809 -0.137363 0.763849 -0.630608 
-0.235188 0.770235 -0.592811 -0.32436 0.772831 -0.545456 0.447321 0.657073 -0.606761 
0.577427 0.626603 -0.523398 0.390874 0.642328 -0.659266 0.243642 0.572128 -0.78314 
0.15011 0.474504 -0.86736 0.0774822 0.459214 -0.88494 0.0201067 0.442249 -0.896667 
-0.0452319 0.446622 -0.893579 -0.0752842 0.494234 -0.866063 -0.139769 0.566864 -0.811868 
-0.449807 0.762091 -0.465715 -0.264969 0.684799 -0.678853 -0.456218 0.759975 -0.462928 
-0.581694 0.673847 -0.45559 0.636998 0.599187 -0.484983 0.766063 0.521557 -0.375666 
0.521911 0.573198 -0.631706 0.261703 0.458442 -0.849319 -0.343349 0.502125 -0.793714 
-0.624541 0.634887 -0.454827 -0.563426 0.616542 -0.549934 -0.720202 0.499567 -0.481396 
0.781402 0.504751 -0.36693 0.749485 0.50419 -0.429028 -0.468366 0.370969 -0.801883 
-0.731525 0.482525 -0.481706 -0.708778 0.477399 -0.51935 0.885675 0.373025 -0.276464 
0.572008 0.284303 -0.769401 -0.8274 0.307749 -0.469787 -0.624806 0.270106 -0.732571 
0.94256 0.14582 -0.300528 -0.856709 0.129351 -0.499318 -0.578969 0.114297 -0.807299 
0.946478 -0.11913 -0.299978 -0.869894 -0.0868058 -0.485541 -0.548125 -0.056508 -0.834485 
0.890774 -0.287182 -0.352205 0.554735 -0.267375 -0.787896 -0.852942 -0.324074 -0.409226 
-0.603621 -0.286313 -0.744088 0.717559 -0.558376 -0.416323 0.674803 -0.599888 -0.429855 
0.65513 -0.572228 -0.493315 0.385521 -0.453737 -0.803428 -0.44153 -0.375803 -0.814754 
-0.754277 -0.5396 -0.374028 -0.741451 -0.558409 -0.372062 -0.738539 -0.537324 -0.407238 
0.546271 -0.698539 -0.462202 0.519127 -0.715509 -0.467498 0.506137 -0.686415 -0.522169 
0.433509 -0.7536 -0.494122 0.324477 -0.558851 -0.763152 -0.256526 -0.925308 -0.279283 
-0.372031 -0.882028 -0.289171 -0.332991 -0.651564 -0.681602 -0.553279 -0.77506 -0.305229 
-0.545054 -0.781498 -0.303607 -0.545054 -0.770506 -0.33051 0.385521 -0.782941 -0.488238 
0.300259 -0.813181 -0.498579 0.277886 -0.725926 -0.629135 0.14083 -0.836978 -0.528806 
0.131188 -0.685673 -0.71599 -0.0105136 -0.87641 -0.481452 0.025553 -0.668351 -0.743407 
-0.117444 -0.891075 -0.438398 -0.0733728 -0.708937 -0.701445 -0.126331 -0.909446 -0.396167 
-0.0953977 -0.790484 -0.605008 -0.0987112 -0.925919 -0.364596 -0.0785586 -0.849075 -0.522399 
-0.216816 -0.931583 -0.291796 -0.158712 -0.93525 -0.316415 -0.147207 -0.892546 -0.426253 
0.12736 0.401033 -0.907167 0.111586 0.359133 -0.926592 0.0751637 0.394753 -0.915708 
0.0193115 0.414561 -0.909816 -0.040048 0.398992 -0.91608 -0.0500915 0.40627 -0.912379 
-0.08163 0.449435 -0.889576 -0.1763 0.503207 -0.845991 0.384496 0.38478 -0.839111 
0.170612 0.409865 -0.896048 0.233514 0.409368 -0.88198 0.111977 0.37774 -0.919116 
0.083367 0.292513 -0.952621 0.0701681 0.257364 -0.963764 0.0164576 0.244568 -0.969492 
-0.0254167 0.215518 -0.976169 -0.0121276 0.258109 -0.96604 -0.0218825 0.344359 -0.938583 
-0.282916 0.475651 -0.832895 -0.147107 0.432013 -0.889789 -0.32308 0.453829 -0.830457 
0.39065 0.382893 -0.83713 0.382613 0.3799 -0.84219 0.163764 0.282438 -0.945204 
0.057929 0.223498 -0.972982 0.0310689 0.206587 -0.977935 0.0273773 0.228924 -0.973059 
-0.034555 0.0964993 -0.994733 -0.0207908 0.0672581 -0.997519 0.0697157 0.143679 -0.987166 
0.0526298 0.177873 -0.982645 -0.080584 0.207263 -0.974961 -0.443981 0.360314 -0.820399 
-0.251456 0.282877 -0.925608 -0.45344 0.343459 -0.822452 0.544467 0.276584 -0.791869 
0.557924 0.235228 -0.795857 0.249969 0.194655 -0.948486 0.104186 0.140733 -0.98455 
0.0389515 0.0875438 -0.995399 0.0816296 0.0644143 -0.994579 -0.0338266 0.12438 -0.991658 
-0.148093 0.00836135 -0.988938 0.0186483 0.0555258 -0.998283 0.10112 -0.00684039 -0.994851 
0.0530054 -0.0222032 -0.998347 -0.0399048 0.0181853 -0.999038 -0.181505 0.0986322 -0.978431 
-0.466064 0.218105 -0.857447 -0.372667 0.171113 -0.912052 0.56231 0.0508838 -0.825359 
0.514355 0.0440273 -0.856446 0.220239 0.062009 -0.973473 0.0525494 0.0344259 -0.998025 
-0.0207316 0.00816693 -0.999752 0.0679925 -0.023083 -0.997419 -0.024734 -0.0456981 -0.998649 
-0.109997 0.0996483 -0.988924 -0.0367225 0.0382932 -0.998592 -0.00715721 -0.187063 -0.982322 
0.0811473 -0.130264 -0.988153 0.0416508 -0.0437634 -0.998173 -0.105502 0.0169978 -0.994274 
-0.508426 0.102952 -0.85493 -0.317093 0.0492368 -0.947116 0.547613 -0.0612501 -0.834487 
0.540456 -0.200314 -0.817179 0.514028 -0.060083 -0.855666 0.221544 -0.0651613 -0.972971 
0.0498877 -0.0315291 -0.998257 -0.0188377 -0.0101987 -0.999771 0.0282988 0.00469568 -0.999588 
0.0799097 -0.0790475 -0.993663 -0.0522534 0.0238227 -0.99835 -0.283129 -0.0545321 -0.95753 
-0.0547514 -0.0538118 -0.997049 0.199547 -0.0472437 -0.978749 0.10458 -0.0453496 -0.993482 
-0.100485 -0.0512787 -0.993616 -0.530148 -0.0558672 -0.846062 -0.279318 -0.0281174 -0.959787 
0.526365 -0.261826 -0.808942 0.356218 -0.411852 -0.838741 0.252421 -0.219056 -0.942496 
0.117075 -0.151826 -0.981449 0.0155803 -0.0870557 -0.996082 -0.000257776 -0.0235347 -0.999723 
-0.00511322 -0.0613931 -0.998101 -0.0762168 -0.10667 -0.991369 -0.120807 -0.0326638 -0.992139 
-0.00337074 0.10597 -0.994364 0.0920342 0.022898 -0.995493 0.0364514 -0.0547398 -0.997835 
-0.0887576 -0.126792 -0.98795 -0.437921 -0.239751 -0.866455 -0.419237 -0.341072 -0.841374 
-0.333347 -0.18966 -0.923531 0.345176 -0.424632 -0.836983 0.265425 -0.446942 -0.854279 
0.202732 -0.334111 -0.920473 0.099736 -0.232557 -0.967456 0.0532804 -0.162204 -0.985318 
-0.00357576 -0.135209 -0.990811 -0.038849 -0.135819 -0.989972 -0.0473708 -0.0874943 -0.995038 
-0.00563334 -0.0563993 -0.998392 0.0307322 -0.110793 -0.993368 -0.0398316 -0.195408 -0.979913 
-0.410872 -0.355387 -0.839574 -0.281524 -0.509298 -0.81324 -0.210741 -0.263539 -0.941348 
0.217729 -0.442648 -0.86986 0.202905 -0.441355 -0.874091 0.197881 -0.419294 -0.886022 
0.119042 -0.475407 -0.871675 0.109269 -0.376216 -0.920066 0.0356926 -0.48742 -0.872438 
0.0275846 -0.327554 -0.94443 -0.0426583 -0.50033 -0.864783 -0.027622 -0.336496 -0.94128 
-0.0591882 -0.489611 -0.86993 -0.0454644 -0.347643 -0.936524 -0.0498946 -0.486756 -0.872112 
-0.0370272 -0.368546 -0.928872 -0.0569599 -0.502024 -0.862976 -0.0451166 -0.415552 -0.90845 
-0.198446 -0.533133 -0.822428 -0.144969 -0.533329 -0.833393 -0.132276 -0.482175 -0.866031 

