# vtk DataFile Version 4.2
vtk output
ASCII
DATASET POLYDATA
POINTS 558 float
-28.4273 -38.4216 -14.4317 -20.0435 -38.4216 -16.0249 -11.6597 -38.4216 -18.029 
-3.27595 -38.4216 -18.2692 5.10782 -38.4216 -14.4483 -45.1948 -30.0378 -16.3788 
-36.811 -30.0378 -18.2708 -28.4273 -30.0378 -19.0224 -20.0435 -30.0378 -19.5441 
-11.6597 -30.0378 -20.0053 -3.27595 -30.0378 -21.1683 5.10782 -30.0378 -17.9464 
13.4916 -30.0378 -13.8787 30.2591 -30.0378 -14.9255 38.6429 -30.0378 -15.934 
47.0267 -30.0378 -15.2929 -53.5786 -21.654 -16.5817 -45.1948 -21.654 -19.1664 
-36.811 -21.654 -19.8583 -28.4273 -21.654 -20.0102 -20.0435 -21.654 -20.1549 
-11.6597 -21.654 -20.2814 -3.27595 -21.654 -21.8301 5.10782 -21.654 -18.7371 
13.4916 -21.654 -14.2759 21.8754 -21.654 -16.4746 30.2591 -21.654 -18.7248 
38.6429 -21.654 -19.5089 47.0267 -21.654 -18.7898 55.4105 -21.654 -16.3932 
-53.5786 -13.2702 -17.827 -45.1948 -13.2702 -20.232 -36.811 -13.2702 -20.1591 
-28.4273 -13.2702 -20.0981 -20.0435 -13.2702 -19.2764 -11.6597 -13.2702 -19.1335 
-3.27595 -13.2702 -20.575 5.10782 -13.2702 -19.7143 13.4916 -13.2702 -16.6653 
21.8754 -13.2702 -18.6138 30.2591 -13.2702 -20.1826 38.6429 -13.2702 -21.1623 
47.0267 -13.2702 -20.5343 55.4105 -13.2702 -17.9818 63.7942 -13.2702 -13.6963 
-53.5786 -4.88647 -17.8837 -45.1948 -4.88647 -20.2184 -36.811 -4.88647 -19.8695 
-28.4273 -4.88647 -18.998 -20.0435 -4.88647 -17.5324 -11.6597 -4.88647 -20.4515 
-3.27595 -4.88647 -19.5981 5.10782 -4.88647 -20.1016 13.4916 -4.88647 -19.3757 
21.8754 -4.88647 -18.59 30.2591 -4.88647 -20.1363 38.6429 -4.88647 -21.1287 
47.0267 -4.88647 -20.695 55.4105 -4.88647 -18.5324 63.7942 -4.88647 -14.3011 
-53.5786 3.4973 -17.6728 -45.1948 3.4973 -20.1201 -36.811 3.4973 -19.9601 
-28.4273 3.4973 -19.113 -20.0435 3.4973 -17.5175 -11.6597 3.4973 -19.318 
-3.27595 3.4973 -18.3482 5.10782 3.4973 -18.8879 13.4916 3.4973 -17.4024 
21.8754 3.4973 -17.2342 30.2591 3.4973 -19.0455 38.6429 3.4973 -20.2021 
47.0267 3.4973 -20.6964 55.4105 3.4973 -18.3459 63.7942 3.4973 -14.0782 
-53.5786 11.8811 -16.9256 -45.1948 11.8811 -19.5605 -36.811 11.8811 -20.0523 
-28.4273 11.8811 -19.5465 -20.0435 11.8811 -18.6216 -11.6597 11.8811 -16.8626 
-3.27595 11.8811 -17.1675 5.10782 11.8811 -18.6827 13.4916 11.8811 -15.611 
21.8754 11.8811 -17.0384 30.2591 11.8811 -18.2247 38.6429 11.8811 -19.1926 
47.0267 11.8811 -19.1851 55.4105 11.8811 -17.7017 63.7942 11.8811 -14.937 
-53.5786 20.2648 -14.3915 -45.1948 20.2648 -17.6797 -36.811 20.2648 -18.8398 
-28.4273 20.2648 -19.0501 -20.0435 20.2648 -17.5655 -11.6597 20.2648 -15.8996 
-3.27595 20.2648 -15.16 5.10782 20.2648 -14.0689 21.8754 20.2648 -15.4081 
30.2591 20.2648 -16.9358 38.6429 20.2648 -18.2603 47.0267 20.2648 -17.1651 
55.4105 20.2648 -15.5765 -45.1948 28.6486 -14.2395 -36.811 28.6486 -15.8775 
-28.4273 28.6486 -16.2368 -20.0435 28.6486 -15.4269 -11.6597 28.6486 -14.399 
30.2591 28.6486 -14.0309 38.6429 28.6486 -15.0064 -28.4273 -39.3933 -13.4806 
-20.0435 -40.8277 -13.4806 -11.6597 -43.4289 -13.4806 -3.27595 -43.8499 -13.4806 
-3.27595 -46.8053 -6.2388 5.10782 -39.6607 -13.4806 -45.1948 -34.237 -13.4806 
-33.6296 -38.4216 -13.4806 -36.811 -37.5375 -13.4806 -36.811 -38.4216 -11.9475 
7.3763 -38.4216 -13.4806 13.4916 -31.3566 -13.4806 13.4916 -38.4216 -10.9206 
21.8754 -38.4216 -9.76436 30.2591 -32.9277 -13.4806 30.2591 -38.4216 -9.60259 
38.6429 -35.3257 -13.4806 38.6429 -38.4216 -10.362 47.0267 -32.1902 -13.4806 
47.0267 -38.4216 -5.29475 -50.5569 -30.0378 -13.4806 -53.5786 -26.6893 -13.4806 
-53.5786 -30.0378 -10.7069 17.7286 -30.0378 -13.4806 23.8274 -30.0378 -13.4806 
21.8754 -29.024 -13.4806 21.8754 -30.0378 -13.1111 50.5191 -30.0378 -13.4806 
55.4105 -26.4599 -13.4806 55.4105 -30.0378 -9.86312 -58.8939 -21.654 -13.4806 
-61.9624 -21.654 -10.768 60.0671 -21.654 -13.4806 63.7942 -14.0831 -13.4806 
63.7942 -21.654 -8.22045 -61.3588 -13.2702 -13.4806 -61.9624 -13.2702 -12.976 
64.02 -13.2702 -13.4806 -61.7874 -4.88647 -13.4806 -61.9624 -4.88647 -13.3475 
64.7333 -4.88647 -13.4806 -61.1733 3.4973 -13.4806 -61.9624 3.4973 -12.8469 
64.5727 3.4973 -13.4806 -61.6228 11.8811 -13.4806 -61.9624 11.8811 -13.1967 
13.4916 20.0698 -13.4806 65.6 11.8811 -13.4806 63.7942 17.3689 -13.4806 
-54.927 20.2648 -13.4806 -61.9624 20.2648 -6.97532 -53.5786 22.2076 -13.4806 
-3.27595 27.9898 -13.4806 12.7233 20.2648 -13.4806 5.10782 21.8178 -13.4806 
13.71 20.2648 -13.4806 13.4916 20.2648 -13.4309 21.8754 25.6367 -13.4806 
47.0267 28.2547 -13.4806 61.0698 20.2648 -13.4806 55.4105 23.6245 -13.4806 
63.7942 20.2648 -12.0889 -47.0413 28.6486 -13.4806 -53.5786 28.6486 -9.21582 
-45.1948 29.8022 -13.4806 -36.811 32.7343 -13.4806 -28.4273 34.1006 -13.4806 
-20.0435 34.2963 -13.4806 -4.44156 28.6486 -13.4806 -11.6597 31.9392 -13.4806 
-3.27595 28.6486 -13.3292 5.10782 28.6486 -11.0946 13.4916 28.6486 -10.1417 
27.5506 28.6486 -13.4806 21.8754 28.6486 -12.1447 30.2591 29.4136 -13.4806 
46.1872 28.6486 -13.4806 38.6429 30.8925 -13.4806 47.0267 28.6486 -13.2628 
55.4105 28.6486 -10.0784 -45.1948 37.0324 -6.18083 -36.811 37.0324 -10.2559 
-28.4273 37.0324 -11.7303 -20.0435 37.0324 -12.3039 -11.6597 37.0324 -11.7381 
-3.27595 37.0324 -9.37075 5.10782 37.0324 -5.71683 30.2591 37.0324 -6.83964 
38.6429 37.0324 -7.00246 47.0267 37.0324 -5.95502 -3.27595 -47.1625 -5.09682 
-36.811 -40.6374 -5.09682 -28.4273 -43.1746 -5.09682 -20.0435 -44.7012 -5.09682 
-8.43039 -46.8053 -5.09682 -11.6597 -46.5763 -5.09682 -0.28384 -46.8053 -5.09682 
-3.27595 -46.8053 -3.71584 5.10782 -46.1286 -5.09682 13.4916 -44.907 -5.09682 
21.8754 -43.8418 -5.09682 30.2591 -42.289 -5.09682 38.6429 -40.9865 -5.09682 
47.0267 -38.5107 -5.09682 -53.5786 -34.0568 -5.09682 -43.9458 -38.4216 -5.09682 
-45.1948 -38.0134 -5.09682 47.1809 -38.4216 -5.09682 47.0267 -38.4216 -4.61147 
55.4105 -32.8101 -5.09682 -58.4707 -30.0378 -5.09682 -61.9624 -26.3235 -5.09682 
58.1223 -30.0378 -5.09682 55.4105 -30.0378 3.07009 63.7942 -23.231 -5.09682 
-65.2659 -21.654 -5.09682 64.8798 -21.654 -5.09682 63.7942 -21.654 -0.54207 
-68.5076 -13.2702 -5.09682 68.1233 -13.2702 -5.09682 -70.0414 -4.88647 -5.09682 
-70.3461 -4.88647 -1.58358 70.5694 -4.88647 -5.09682 -68.9797 3.4973 -5.09682 
-70.3461 3.4973 2.26407 71.2693 3.4973 -5.09682 -66.9804 11.8811 -5.09682 
70.4006 11.8811 -5.09682 -63.199 20.2648 -5.09682 -61.9624 22.2375 -5.09682 
68.0177 20.2648 -5.09682 63.7942 26.1821 -5.09682 -56.8934 28.6486 -5.09682 
-53.5786 31.9854 -5.09682 13.4916 35.5352 -5.09682 21.8754 36.762 -5.09682 
61.1512 28.6486 -5.09682 55.4105 33.1123 -5.09682 -46.4734 37.0324 -5.09682 
-45.1948 37.7671 -5.09682 -36.811 41.2011 -5.09682 -28.4273 43.9626 -5.09682 
-20.0435 45.0939 -5.09682 -11.6597 44.6052 -5.09682 -3.27595 41.8094 -5.09682 
8.05612 37.0324 -5.09682 5.10782 37.7033 -5.09682 13.4916 37.0324 -3.74066 
22.911 37.0324 -5.09682 21.8754 37.0324 -4.79191 30.2591 38.3335 -5.09682 
38.6429 38.3576 -5.09682 48.2354 37.0324 -5.09682 47.0267 37.6288 -5.09682 
-28.4273 45.4162 1.77664 -20.0435 45.4162 -4.18385 -11.6597 45.4162 -3.25618 
-3.27595 45.4162 1.71015 -36.811 -39.1865 3.28696 -28.4273 -41.5324 3.28696 
-20.0435 -42.956 3.28696 -11.6597 -44.0269 3.28696 -3.27595 -44.6189 3.28696 
5.10782 -45.0051 3.28696 13.4916 -45.0963 3.28696 21.8754 -44.2647 3.28696 
30.2591 -43.548 3.28696 38.6429 -41.0112 3.28696 -53.5786 -32.4134 3.28696 
-39.1092 -38.4216 3.28696 -45.1948 -36.281 3.28696 -36.811 -38.4216 4.63438 
-28.4273 -38.4216 7.77808 -20.0435 -38.4216 10.0038 -11.6597 -38.4216 10.5784 
-3.27595 -38.4216 9.93436 5.10782 -38.4216 9.70173 13.4916 -38.4216 10.1777 
21.8754 -38.4216 10.0604 30.2591 -38.4216 8.98775 44.0428 -38.4216 3.28696 
38.6429 -38.4216 7.0143 47.0267 -36.7412 3.28696 -56.5119 -30.0378 3.28696 
-61.9624 -25.1918 3.28696 -53.5786 -30.0378 6.29013 -45.1948 -30.0378 10.6836 
55.321 -30.0378 3.28696 47.0267 -30.0378 10.4242 55.4105 -29.9465 3.28696 
-64.8573 -21.654 3.28696 -61.9624 -21.654 7.54239 62.5834 -21.654 3.28696 
55.4105 -21.654 9.97584 63.7942 -19.476 3.28696 -69.5244 -13.2702 3.28696 
-70.3461 -7.54318 3.28696 66.5964 -13.2702 3.28696 63.7942 -13.2702 6.98686 
-70.6859 -4.88647 3.28696 -70.3461 -4.88647 4.05663 69.8443 -4.88647 3.28696 
63.7942 -4.88647 11.4131 -70.5036 3.4973 3.28696 -70.3461 4.12205 3.28696 
-70.3461 3.4973 3.67552 70.5898 3.4973 3.28696 -68.3724 11.8811 3.28696 
70.116 11.8811 3.28696 -64.3983 20.2648 3.28696 -61.9624 24.1546 3.28696 
-61.9624 20.2648 9.32772 67.8855 20.2648 3.28696 63.7942 26.2325 3.28696 
63.7942 20.2648 10.28 -58.5163 28.6486 3.28696 -53.5786 33.6657 3.28696 
61.7338 28.6486 3.28696 55.4105 34.275 3.28696 55.4105 28.6486 11.6211 
-48.947 37.0324 3.28696 -45.1948 39.2504 3.28696 -45.1948 37.0324 9.57086 
-36.811 43.031 3.28696 5.10782 43.558 3.28696 13.4916 41.884 3.28696 
21.8754 41.8005 3.28696 30.2591 41.2063 3.28696 38.6429 40.6665 3.28696 
50.5034 37.0324 3.28696 47.0267 38.74 3.28696 47.0267 37.0324 7.58777 
-29.2327 45.4162 3.28696 -28.4273 45.6588 3.28696 -28.4273 45.4162 4.06999 
-20.0435 47.2335 3.28696 -20.0435 45.4162 8.4961 -11.6597 47.3707 3.28696 
-11.6597 45.4162 11.3619 -1.1444 45.4162 3.28696 -3.27595 46.0374 3.28696 
-3.27595 45.4162 9.97559 -36.811 -31.8595 11.6707 -28.4273 -34.7079 11.6707 
-20.0435 -36.571 11.6707 -11.6597 -37.0815 11.6707 -3.27595 -35.3347 11.6707 
5.10782 -34.3618 11.6707 13.4916 -35.2909 11.6707 21.8754 -35.4234 11.6707 
30.2591 -34.4324 11.6707 38.6429 -30.6277 11.6707 -53.5786 -24.0717 11.6707 
-41.7112 -30.0378 11.6707 -45.1948 -28.6789 11.6707 -36.811 -30.0378 12.9971 
-28.4273 -30.0378 14.8024 -20.0435 -30.0378 15.5025 -11.6597 -30.0378 16.0311 
-3.27595 -30.0378 14.1078 5.10782 -30.0378 13.3626 13.4916 -30.0378 13.7738 
21.8754 -30.0378 14.1332 30.2591 -30.0378 14.1418 40.2959 -30.0378 11.6707 
38.6429 -30.0378 11.9362 47.0267 -26.7784 11.6707 -56.5594 -21.654 11.6707 
-61.9624 -17.0699 11.6707 -53.5786 -21.654 13.3464 -45.1948 -21.654 15.5224 
-36.811 -21.654 16.8415 -28.4273 -21.654 16.9336 -20.0435 -21.654 17.8309 
[...]
POINT_DATA 558
SCALARS ImageScalars float
LOOKUP_TABLE default
0 0 0 0 0 0 0 0 0 
0 0 0 0 0 0 0 0 0 
0 0 0 0 0 0 0 0 0 
0 0 0 0 0 0 0 0 0 
0 0 0 0 0 0 0 0 0 
0 0 0 0 0 0 0 0 0 
0 0 0 0 0 0 0 0 0 
0 0 0 0 0 0 0 0 0 
0 0 0 0 0 0 0 0 0 
0 0 0 0 0 0 0 0 0 
0 0 0 0 0 0 0 0 0 
0 0 0 0 0 0 0 0 0 
0 0 0 0 0 0 0 0 0 
0 0 0 0 0 0 0 0 0 
0 0 0 0 0 0 0 0 0 
0 0 0 0 0 0 0 0 0 
0 0 0 0 0 0 0 0 0 
0 0 0 0 0 0 0 0 0 
0 0 0 0 0 0 0 0 0 
0 0 0 0 0 0 0 0 0 
0 0 0 0 0 0 0 0 0 
0 0 0 0 0 0 0 0 0 
0 0 0 0 0 0 0 0 0 
0 0 0 0 0 0 0 0 0 
0 0 0 0 0 0 0 0 0 
0 0 0 0 0 0 0 0 0 
0 0 0 0 0 0 0 0 0 
0 0 0 0 0 0 0 0 0 
0 0 0 0 0 0 0 0 0 
0 0 0 0 0 0 0 0 0 
0 0 0 0 0 0 0 0 0 
0 0 0 0 0 0 0 0 0 
0 0 0 0 0 0 0 0 0 
0 0 0 0 0 0 0 0 0 
0 0 0 0 0 0 0 0 0 
0 0 0 0 0 0 0 0 0 
0 0 0 0 0 0 0 0 0 
0 0 0 0 0 0 0 0 0 
0 0 0 0 0 0 0 0 0 
0 0 0 0 0 0 0 0 0 
0 0 0 0 0 0 0 0 0 
0 0 0 0 0 0 0 0 0 
0 0 0 0 0 0 0 0 0 
0 0 0 0 0 0 0 0 0 
0 0 0 0 0 0 0 0 0 
0 0 0 0 0 0 0 0 0 
0 0 0 0 0 0 0 0 0 
0 0 0 0 0 0 0 0 0 
0 0 0 0 0 0 0 0 0 
0 0 0 0 0 0 0 0 0 
0 0 0 0 0 0 0 0 0 
0 0 0 0 0 0 0 0 0 
0 0 0 0 0 0 0 0 0 
0 0 0 0 0 0 0 0 0 
0 0 0 0 0 0 0 0 0 
0 0 0 0 0 0 0 0 0 
0 0 0 0 0 0 0 0 0 
0 0 0 0 0 0 0 0 0 
0 0 0 0 0 0 0 0 0 
0 0 0 0 0 0 0 0 0 
0 0 0 0 0 0 0 0 0 
0 0 0 0 0 0 0 0 0 

NORMALS Normals float
-0.151748 -0.700624 -0.697208 -0.197861 -0.619261 -0.759847 -0.110481 -0.496895 -0.860749 
0.18379 -0.508423 -0.841265 0.375079 -0.48957 -0.78717 -0.315481 -0.448305 -0.836358 
-0.164939 -0.380499 -0.909953 -0.0675476 -0.285572 -0.955974 -0.0577993 -0.188369 -0.980396 
-0.100023 -0.126094 -0.986963 0.110286 -0.186832 -0.976182 0.448888 -0.214711 -0.867409 
0.266898 -0.17466 -0.947765 -0.144781 -0.412176 -0.899527 -0.0309585 -0.441041 -0.896953 
0.237866 -0.545889 -0.803383 -0.402521 -0.308184 -0.861974 -0.165374 -0.229471 -0.959163 
-0.0465961 -0.0988413 -0.994012 -0.0172835 -0.0627204 -0.997881 -0.0162873 0.0183199 -0.9997 
-0.0932869 0.0518733 -0.994287 0.0439298 0.0375259 -0.99833 0.463256 -0.0918636 -0.881451 
0.0676226 -0.152559 -0.985978 -0.250781 -0.282486 -0.925911 -0.175829 -0.289997 -0.940737 
-0.004625 -0.276312 -0.961057 0.153149 -0.236157 -0.95957 0.415449 -0.350662 -0.839308 
-0.339852 -0.0575931 -0.938714 -0.159965 -0.0594284 -0.985332 0.00770905 -0.000350708 -0.99997 
0.0525468 0.0603811 -0.996791 0.0577077 0.156122 -0.986051 -0.0773469 0.0131477 -0.996918 
-0.0488188 0.119934 -0.991581 0.251223 -0.0711149 -0.965313 0.0271401 -0.294917 -0.955137 
-0.206365 -0.125429 -0.970403 -0.141765 -0.0794635 -0.986706 -0.0231605 -0.0994765 -0.99477 
0.185509 -0.105468 -0.976966 0.358188 -0.100403 -0.928235 0.696273 -0.149821 -0.701967 
-0.334316 0.00919172 -0.942416 -0.128241 0.00610764 -0.991724 0.0715232 0.011832 -0.997369 
0.13935 0.0589707 -0.988486 -0.0357704 0.106992 -0.993616 -0.157063 -0.0227635 -0.987326 
0.0128194 0.137394 -0.990434 0.0148785 0.0516674 -0.998554 0.0876734 -0.0653469 -0.994004 
-0.0518519 0.082852 -0.995212 -0.145911 0.0666595 -0.987049 -0.0335859 0.0576451 -0.997772 
0.149737 -0.00906657 -0.988684 0.324792 -0.0214353 -0.945543 0.617689 -0.0220708 -0.786113 
-0.353907 0.0544095 -0.933697 -0.141642 0.0358091 -0.98927 0.0595752 -0.0108455 -0.998165 
0.138903 -0.0327748 -0.989763 0.00123792 -0.0680298 -0.997683 -0.0574511 0.206976 -0.976658 
0.0261858 0.148268 -0.9886 0.0455719 0.0806011 -0.995704 0.0995933 0.236611 -0.966487 
-0.100287 0.089282 -0.990945 -0.17402 0.111917 -0.978362 -0.0952928 0.115744 -0.988697 
0.102249 0.0838377 -0.99122 0.326273 0.0493426 -0.943987 0.569134 -0.0446022 -0.821034 
-0.354976 0.165344 -0.920138 -0.17764 0.132173 -0.975179 0.00290611 0.0651751 -0.99787 
0.0839792 0.00243031 -0.996465 0.154652 -0.00292167 -0.987965 0.0887657 0.188809 -0.977994 
-0.0996209 0.182337 -0.978176 0.0981047 0.257527 -0.961278 0.0771347 0.206942 -0.975308 
-0.150463 0.102583 -0.983279 -0.134209 0.125776 -0.982939 -0.0553908 0.109444 -0.992448 
0.0917125 0.202991 -0.974876 0.252964 0.135345 -0.957962 0.558019 0.0966409 -0.824181 
-0.464388 0.346179 -0.815171 -0.225846 0.291785 -0.929438 -0.0744387 0.228848 -0.970612 
0.0700134 0.185478 -0.980151 0.186712 0.186157 -0.964616 0.133775 0.138103 -0.981342 
0.0955337 0.210727 -0.972866 0.103841 0.416424 -0.903221 -0.195774 0.257121 -0.946341 
-0.159317 0.230705 -0.959892 -0.0140485 0.254806 -0.96689 0.132312 0.289518 -0.947983 
0.281718 0.40432 -0.870149 -0.271495 0.480853 -0.833709 -0.109112 0.424023 -0.899055 
0.0263365 0.382549 -0.92356 0.10272 0.281772 -0.953967 0.11696 0.222039 -0.967998 
-0.151953 0.492431 -0.856984 0.0268298 0.489401 -0.871646 -0.152668 -0.745874 -0.648355 
-0.20992 -0.743897 -0.634469 -0.151122 -0.788879 -0.595677 0.152142 -0.787691 -0.596989 
0.038681 -0.995071 -0.0913113 0.357495 -0.551581 -0.753628 -0.356643 -0.658727 -0.662483 
-0.197476 -0.749632 -0.631709 -0.225208 -0.7356 -0.638885 -0.246422 -0.824829 -0.508855 
0.331232 -0.482306 -0.810966 0.263605 -0.211575 -0.941142 0.244287 -0.494184 -0.83433 
0.0765937 -0.604433 -0.792965 -0.142561 -0.501388 -0.853397 -0.0114742 -0.762241 -0.647191 
0.0357831 -0.603062 -0.796891 0.103285 -0.815491 -0.569479 0.289717 -0.617685 -0.731115 
0.402242 -0.90502 -0.138346 -0.462873 -0.524437 -0.714643 -0.479757 -0.483953 -0.731863 
-0.564211 -0.63506 -0.527603 0.10668 -0.270992 -0.956652 -0.0745377 -0.372945 -0.924855 
-0.0759547 -0.348033 -0.9344 -0.0543868 -0.361122 -0.930931 0.372038 -0.588718 -0.717635 
0.488546 -0.522243 -0.698989 0.613807 -0.675241 -0.40901 -0.55717 -0.33822 -0.758398 
-0.718508 -0.376357 -0.584895 0.601621 -0.426776 -0.675215 0.703748 -0.17788 -0.68782 
0.830016 -0.49599 -0.255082 -0.634061 -0.0811903 -0.769009 -0.664538 -0.0849592 -0.742409 
0.706816 -0.152428 -0.69078 -0.595714 0.00595911 -0.803175 -0.603453 0.00572286 -0.797378 
0.660209 -0.0313524 -0.750428 -0.596167 0.01088 -0.802787 -0.631699 0.0133722 -0.775098 
0.599975 -0.047401 -0.798614 -0.629073 0.198792 -0.751498 -0.648187 0.200991 -0.734477 
-0.0766983 0.283884 -0.955786 0.66491 0.106854 -0.739241 0.566477 0.311189 -0.763063 
-0.499274 0.367504 -0.784644 -0.774835 0.455383 -0.438472 -0.478594 0.393142 -0.785103 
0.174017 0.290667 -0.940867 -0.0636123 0.298194 -0.952383 0.115436 0.410795 -0.90439 
-0.0830425 0.285898 -0.954655 -0.079979 0.286692 -0.954678 -0.202564 0.39786 -0.894805 
0.247902 0.505581 -0.826397 0.461657 0.425011 -0.778613 0.304271 0.478742 -0.823544 
0.589065 0.434639 -0.681242 -0.32388 0.494953 -0.806303 -0.58349 0.595619 -0.552066 
-0.282405 0.513685 -0.81017 -0.145185 0.545823 -0.825226 -0.0469656 0.486566 -0.872381 
0.0325845 0.406496 -0.913071 0.170753 0.287321 -0.942491 0.12954 0.303371 -0.944026 
0.180454 0.299655 -0.936826 0.171589 0.413545 -0.894169 -0.0412888 0.489828 -0.870841 
-0.171147 0.489107 -0.855268 -0.19841 0.491646 -0.84789 -0.150184 0.513486 -0.844853 
0.230233 0.515274 -0.825521 0.0251287 0.579458 -0.814614 0.253139 0.521178 -0.815043 
0.419481 0.63451 -0.649179 -0.421902 0.804222 -0.4186 -0.222491 0.711943 -0.666059 
-0.090767 0.580992 -0.808833 -0.000764169 0.496529 -0.86802 0.144779 0.471657 -0.869815 
0.286051 0.552355 -0.782993 0.255701 0.63316 -0.730565 -0.0860135 0.803698 -0.588788 
0.0321802 0.847723 -0.529463 0.275241 0.85088 -0.447489 0.0244778 -0.999371 -0.0256753 
-0.280858 -0.957844 -0.060451 -0.232949 -0.968315 -0.0900083 -0.198031 -0.976613 -0.0837252 
-0.0803565 -0.996597 -0.0183519 -0.147319 -0.988989 -0.0140644 0.0553912 -0.99464 -0.0873106 
0.0111578 -0.998772 0.0482608 0.123236 -0.970238 -0.208451 0.131289 -0.914574 -0.382514 
0.133436 -0.899358 -0.416352 0.147376 -0.894481 -0.422119 0.206966 -0.950219 -0.232914 
0.40195 -0.906911 -0.126291 -0.548731 -0.822577 -0.149201 -0.329919 -0.942402 -0.0550632 
-0.34553 -0.936593 -0.0583384 0.405841 -0.905339 -0.12512 0.410624 -0.906959 -0.0938794 
0.657479 -0.748318 -0.0879879 -0.669234 -0.726226 -0.157231 -0.770836 -0.61331 -0.172232 
0.717734 -0.691868 -0.0785884 0.644121 -0.631407 0.43178 0.844519 -0.533107 -0.0508309 
-0.848467 -0.477309 -0.228651 0.867772 -0.49423 -0.0520472 0.83459 -0.511147 0.205397 
-0.907577 -0.242341 -0.342891 0.939256 -0.320509 -0.122773 -0.933612 -0.0310052 -0.356941 
-0.991649 -0.0423294 -0.12182 0.958569 -0.187607 -0.214358 -0.905815 0.152767 -0.395173 
-0.98809 0.138505 0.0670374 0.977232 0.00756808 -0.212037 -0.880129 0.307511 -0.361676 
0.947999 0.201695 -0.246205 -0.819645 0.455183 -0.347836 -0.794987 0.49868 -0.345419 
0.869469 0.419526 -0.260809 0.729408 0.62598 -0.275886 -0.687261 0.641862 -0.340126 
-0.624874 0.699217 -0.347315 0.0324251 0.663336 -0.747619 -0.13593 0.748326 -0.649254 
0.636265 0.700443 -0.323336 0.482414 0.795201 -0.367331 -0.45782 0.81049 -0.365386 
-0.432315 0.822714 -0.369114 -0.307115 0.852321 -0.423355 -0.197904 0.873214 -0.445345 
-0.0333554 0.868994 -0.493697 0.1479 0.833202 -0.532823 0.297636 0.734615 -0.609716 
0.181157 0.660841 -0.728335 0.258903 0.654254 -0.710578 0.0489275 0.734685 -0.676642 
-0.128387 0.764287 -0.631967 -0.129146 0.764005 -0.632154 -0.0741303 0.852145 -0.518028 
0.0380888 0.883635 -0.466624 0.312769 0.865223 -0.391873 0.27999 0.873382 -0.398509 
-0.236609 0.971554 -0.00997924 -0.0433056 0.902619 -0.428257 0.134026 0.903598 -0.406876 
0.242896 0.944383 -0.22168 -0.288103 -0.891333 0.350032 -0.208943 -0.899491 0.383742 
-0.137825 -0.915829 0.377175 -0.0887326 -0.894258 0.438667 -0.0513058 -0.87237 0.486146 
-0.02569 -0.905086 0.424451 0.0446743 -0.945342 0.323006 0.089498 -0.95772 0.273427 
0.187573 -0.940334 0.28388 0.375728 -0.869094 0.321719 -0.535662 -0.749968 0.38809 
-0.29659 -0.885769 0.356998 -0.327002 -0.857053 0.398157 -0.283516 -0.865934 0.41204 
-0.184869 -0.795057 0.577674 -0.112976 -0.727633 0.676599 0.00858514 -0.674926 0.737835 
0.0384868 -0.590681 0.805986 -0.013072 -0.552663 0.833302 -0.0188625 -0.548228 0.836116 
0.0701337 -0.622097 0.779793 0.13344 -0.686298 0.714975 0.459946 -0.800967 0.383277 
0.355708 -0.747772 0.560633 0.486582 -0.761195 0.428743 -0.593438 -0.732416 0.333764 
-0.688006 -0.672323 0.273184 -0.471113 -0.703986 0.531466 -0.265337 -0.625477 0.73374 
0.639433 -0.627567 0.444168 0.359199 -0.503871 0.785551 0.640559 -0.626101 0.444613 
-0.762772 -0.574992 0.295911 -0.654602 -0.541131 0.527896 0.755764 -0.496202 0.427322 
0.469512 -0.426003 0.773356 0.779578 -0.470419 0.413478 -0.932562 -0.307423 0.189258 
-0.974387 -0.129727 0.183688 0.83828 -0.399521 0.371039 0.715201 -0.403984 0.570337 
-0.982737 -0.0522992 0.177464 -0.975703 -0.056587 0.211666 0.917236 -0.211236 0.337724 
0.607101 -0.21946 0.763718 -0.983243 0.134755 0.12278 -0.981196 0.14872 0.123034 
-0.980409 0.133204 0.145104 0.947143 -0.0172412 0.320347 -0.936891 0.32695 0.123852 
0.939877 0.159181 0.302146 -0.867145 0.487313 0.102885 -0.819503 0.564055 0.101275 
-0.786453 0.436176 0.437313 0.869595 0.408043 0.278038 0.765643 0.59038 0.255424 
0.652314 0.367894 0.662677 -0.740662 0.665271 0.0939928 -0.649492 0.755799 0.0832372 
0.719953 0.652566 0.236273 0.55209 0.818136 0.160777 0.515723 0.452031 0.727803 
-0.544242 0.835656 0.074031 -0.474537 0.877453 0.0699402 -0.451038 0.79378 0.408018 
-0.348708 0.93566 0.0542456 0.244848 0.932898 -0.264105 0.107237 0.952894 -0.283713 
0.0408715 0.979343 -0.198031 0.0679384 0.992892 -0.0977279 0.143292 0.989578 0.0142717 
0.425767 0.895613 0.128842 0.350453 0.929133 0.117876 0.378824 0.840706 0.38692 
-0.24617 0.966727 0.069568 -0.236543 0.969028 0.0709355 -0.235829 0.965727 0.108425 
-0.101578 0.993944 0.0419184 -0.130331 0.92523 0.35632 0.0686593 0.997071 -0.0336852 
-0.0545018 0.89176 0.449214 0.230318 0.957652 -0.172787 0.220453 0.964368 -0.14627 
0.126417 0.956989 0.261133 -0.241464 -0.569591 0.78566 -0.159652 -0.601481 0.782772 
-0.0946435 -0.626271 0.77384 0.0286933 -0.615234 0.787822 0.0813451 -0.47368 0.876932 
0.00351439 -0.392238 0.919857 -0.0254489 -0.419222 0.907527 0.033503 -0.462431 0.886022 
0.108682 -0.497812 0.860449 0.222145 -0.398954 0.889655 -0.362989 -0.542944 0.757265 
-0.248165 -0.573741 0.780535 -0.244643 -0.577119 0.779155 -0.222212 -0.515992 0.827269 
-0.122623 -0.40723 0.905056 -0.0699467 -0.377904 0.923199 0.0782706 -0.391997 0.916631 
0.147262 -0.348962 0.925494 0.0176842 -0.279142 0.960087 -0.044655 -0.30115 0.952531 
-0.0211692 -0.301944 0.953091 0.107749 -0.367069 0.923932 0.24327 -0.402947 0.8823 
0.216837 -0.382681 0.898074 0.314223 -0.415673 0.85351 -0.460115 -0.483746 0.744503 
-0.576858 -0.363666 0.731425 -0.373387 -0.506558 0.777162 -0.173136 -0.398983 0.900465 
-0.0847496 -0.309105 0.947244 -0.0578396 -0.205247 0.977 -0.0778934 -0.132056 0.988177 
0.0564826 -0.176932 0.982601 0.199986 -0.233129 0.95166 0.0529434 -0.253629 0.965852 
-0.0707322 -0.198368 0.977572 -0.0231635 -0.163054 0.986345 0.0550995 -0.197972 0.978658 
0.145656 -0.302372 0.941996 0.360728 -0.361408 0.859802 0.273301 -0.313075 0.909555 
0.431607 -0.347144 0.83259 -0.648681 -0.305938 0.69686 -0.537426 -0.297711 0.789013 
-0.272144 -0.249623 0.929315 -0.0608274 -0.273353 0.959989 0.0278494 -0.187215 0.981924 
0.0654421 -0.150324 0.986468 -0.0614189 -0.0608583 0.996255 -0.0240011 -0.203431 0.978795 
0.0911048 -0.123504 0.988153 0.0601297 -0.238756 0.969216 0.0431681 -0.0218046 0.99883 
-0.0153082 -0.0201263 0.99968 -0.0387782 -0.11015 0.993158 0.0822868 -0.182551 0.979747 
0.242618 -0.233787 0.941531 0.473625 -0.319302 0.820808 0.411875 -0.300405 0.8603 
-0.699034 -0.0654899 0.712083 -0.535575 -0.0778328 0.840893 -0.278956 -0.0749218 0.957377 
-0.098216 -0.125501 0.98722 0.077289 -0.161952 0.983767 -0.13443 -0.187005 0.973118 
0.180971 -0.150714 0.971872 0.167414 -0.242822 0.955516 0.153058 -0.0369226 0.987527 
-0.113486 -0.00211669 0.993537 -0.111925 -0.0516643 0.992373 0.00564897 -0.0740656 0.997237 
0.140498 -0.146881 0.979125 0.589134 -0.216611 0.77846 0.346386 -0.180898 0.920485 
0.601009 -0.180676 0.778552 -0.728034 0.0696403 0.681994 -0.621896 0.0412793 0.782011 
-0.27732 -0.0231376 0.960499 0.338323 -0.270726 0.901246 -0.0150201 -0.149173 0.988697 
-0.111729 -0.0749395 0.990909 -0.0148921 -0.0475015 0.99876 0.131239 -0.0312523 0.990858 
0.34497 -0.025284 0.938273 0.628789 -0.0283136 0.77706 0.590557 -0.0259114 0.80658 
-0.759078 0.228453 0.609598 -0.732059 0.329269 0.596382 -0.67918 0.219228 0.700467 
-0.346629 0.130691 0.928853 0.0776906 -0.0547924 0.995471 0.0471507 -0.189039 0.980837 
-0.00456422 -0.108563 0.994079 0.0491745 -0.00331342 0.998785 0.161622 0.0740929 0.984067 
0.349081 0.0912817 0.932636 0.617268 0.0921861 0.781334 0.613103 0.157796 0.774083 
0.604059 0.0899547 0.791847 -0.702313 0.396167 0.591446 -0.475426 0.306604 0.824599 
0.0988541 -0.0118473 0.995031 -0.0162527 0.0387114 0.999118 0.160183 0.0962265 0.982386 
0.234788 0.105945 0.966256 0.568299 0.328562 0.754376 0.51354 0.448362 0.731607 
0.404178 0.27604 0.872033 -0.615583 0.565544 0.548834 -0.598519 0.583259 0.549166 
-0.58701 0.552589 0.591662 -0.42631 0.723624 0.542797 -0.349915 0.452705 0.820133 
0.050967 0.176406 0.982997 0.0424619 0.195199 0.979844 0.130726 0.278191 0.951588 
0.134751 0.296711 0.945412 0.513413 0.450493 0.730385 0.368681 0.642016 0.672228 
0.332033 0.394649 0.856742 -0.400861 0.739963 0.540154 -0.303542 0.766105 0.56652 
-0.271948 0.664566 0.695986 -0.197119 0.80571 0.558547 -0.158716 0.566369 0.808725 
-0.143025 0.806581 0.57356 -0.127012 0.517038 0.846487 -0.0598585 0.880901 0.4695 
-0.086322 0.438136 0.894754 0.0961128 0.924717 0.368322 0.0513116 0.392223 0.918438 
0.200149 0.919687 0.337812 0.170649 0.496416 0.851146 0.148044 0.905371 0.397977 
0.125222 0.591363 0.796624 0.109159 0.889984 0.442733 0.0958113 0.644024 0.758982 
0.172923 0.862104 0.476314 0.151171 0.700379 0.697579 0.303624 0.760379 0.574139 
0.274089 0.791156 0.54676 0.276087 0.755271 0.594425 0.0377967 -0.14498 0.988712 
-0.022663 -0.229138 0.97313 -0.0963936 -0.125719 0.987372 -0.0982638 -0.125349 0.987234 
0.0443611 -0.144265 0.988544 0.0377768 -0.140809 0.989316 0.0558366 -0.157641 0.985917 
-0.0998356 -0.222794 0.96974 -0.152634 -0.194552 0.968944 0.119496 -0.199433 0.972598 
-0.0192121 -0.269685 0.962757 0.134047 -0.144318 0.98041 0.147819 -0.197233 0.969148 
-0.192924 -0.0356723 0.980565 -0.120969 -0.05076 0.991358 -0.00243377 -0.10056 0.994928 
0.0249559 -0.146661 0.988872 -0.153585 -0.192479 0.969208 0.00438196 -0.0521223 0.998631 
0.100227 -0.132717 0.986073 0.264758 -0.197616 0.943849 0.086773 -0.0962646 0.991566 
-0.232772 0.0594829 0.970711 -0.168859 0.0170144 0.985493 -0.0616725 -0.0229403 0.997833 
-0.0198976 -0.0784033 0.996723 -0.057652 -0.0819191 0.99497 0.0530277 0.0583052 0.996889 
0.148333 -0.0426255 0.988018 0.0779032 -0.0117898 0.996891 0.0945615 0.0192964 0.995332 
0.0783368 0.126648 0.98885 -0.0128523 -0.0621994 0.997981 0.0669796 0.0173921 0.997603 
-0.29629 0.20927 0.93189 -0.278528 0.239271 0.930146 -0.263776 0.196355 0.944387 
-0.103227 0.113706 0.988137 -0.038323 0.0684883 0.996916 -0.0154558 0.064757 0.997781 
0.055789 0.0832042 0.99497 0.102971 -0.0110208 0.994623 0.153648 0.00493502 0.988113 
0.100683 0.00461315 0.994908 -0.0212528 -0.0104552 0.999719 0.00249055 0.0524284 0.998622 
-0.0245365 -0.0382029 0.998969 0.0839788 0.0392663 0.995694 0.0796014 0.0504306 0.99555 
0.0756195 0.0331145 0.996587 -0.191408 0.350205 0.916907 -0.19112 0.350378 0.916902 
-0.191044 0.349987 0.917067 -0.0745511 0.327679 0.941843 -0.0603427 0.288617 0.955541 
-0.072164 0.323553 0.943454 -0.0449359 0.242487 0.969113 -0.0576784 0.339123 0.938972 
-0.0051951 0.187746 0.982204 0.0523169 0.29195 0.955002 0.0615598 0.110957 0.991917 
0.0836217 0.11924 0.989338 0.121654 0.167144 0.978398 0.107689 0.0830314 0.990711 

