# vtk DataFile Version 4.2
vtk output
ASCII
DATASET POLYDATA
POINTS 486 float
-2.77909 -32.5312 -19.83 5.04465 -32.5312 -21.7088 12.8684 -32.5312 -22.9044 
20.6921 -32.5312 -22.4386 28.5159 -32.5312 -20.9057 -26.2503 -24.7075 -19.0606 
-18.4266 -24.7075 -20.1482 -10.6028 -24.7075 -21.2657 -2.77909 -24.7075 -22.4799 
5.04465 -24.7075 -23.5939 12.8684 -24.7075 -23.914 20.6921 -24.7075 -23.5083 
28.5159 -24.7075 -23.2514 36.3396 -24.7075 -21.2859 -34.0741 -16.8838 -20.0432 
-26.2503 -16.8838 -21.7026 -18.4266 -16.8838 -22.1058 -10.6028 -16.8838 -21.7975 
-2.77909 -16.8838 -21.9916 5.04465 -16.8838 -22.7752 12.8684 -16.8838 -22.7559 
20.6921 -16.8838 -22.8265 28.5159 -16.8838 -22.8816 36.3396 -16.8838 -22.5467 
44.1634 -16.8838 -20.759 -41.8978 -9.06001 -18.5022 -34.0741 -9.06001 -20.132 
-26.2503 -9.06001 -21.5829 -18.4266 -9.06001 -22.1858 -10.6028 -9.06001 -21.4232 
-2.77909 -9.06001 -20.2732 5.04465 -9.06001 -22.2507 12.8684 -9.06001 -21.3432 
20.6921 -9.06001 -21.7325 28.5159 -9.06001 -22.7567 36.3396 -9.06001 -23.0575 
44.1634 -9.06001 -21.9262 -34.0741 -1.23626 -18.8905 -26.2503 -1.23626 -20.3894 
-18.4266 -1.23626 -21.6891 -10.6028 -1.23626 -21.8758 -2.77909 -1.23626 -20.8427 
5.04465 -1.23626 -25.2976 12.8684 -1.23626 -23.5145 20.6921 -1.23626 -21.9431 
28.5159 -1.23626 -23.1822 36.3396 -1.23626 -23.7038 44.1634 -1.23626 -22.8216 
51.9871 -1.23626 -19.3497 -26.2503 6.58748 -19.1887 -18.4266 6.58748 -21.4936 
-10.6028 6.58748 -22.3514 -2.77909 6.58748 -20.2705 5.04465 6.58748 -23.3523 
12.8684 6.58748 -23.0905 20.6921 6.58748 -22.373 28.5159 6.58748 -23.168 
36.3396 6.58748 -23.5238 44.1634 6.58748 -22.5977 51.9871 6.58748 -19.0595 
-18.4266 14.4112 -20.4705 -10.6028 14.4112 -21.6432 -2.77909 14.4112 -20.9095 
5.04465 14.4112 -21.3817 12.8684 14.4112 -21.4287 20.6921 14.4112 -21.6835 
28.5159 14.4112 -22.4328 36.3396 14.4112 -22.5058 44.1634 14.4112 -21.1847 
-10.6028 22.235 -18.9565 -2.77909 22.235 -19.9284 5.04465 22.235 -20.4126 
12.8684 22.235 -20.2945 20.6921 22.235 -20.5899 28.5159 22.235 -20.5594 
36.3396 22.235 -19.8848 -2.77909 -34.6806 -17.9935 5.04465 -37.0156 -17.9935 
12.8684 -38.263 -17.9935 12.8684 -40.355 -11.2045 20.6921 -38.1889 -17.9935 
20.6921 -40.355 -11.7204 28.5159 -35.8362 -17.9935 -26.2503 -26.0596 -17.9935 
-18.4266 -27.8762 -17.9935 -18.4266 -32.5312 -12.0311 -8.07391 -32.5312 -17.9935 
-10.6028 -30.9661 -17.9935 -10.6028 -32.5312 -16.5891 36.0659 -32.5312 -17.9935 
36.3396 -32.305 -17.9935 36.3396 -32.5312 -17.7203 -41.8978 -24.7075 -11.7396 
-30.493 -24.7075 -17.9935 -34.0741 -22.4588 -17.9935 -34.0741 -24.7075 -16.6807 
43.4954 -24.7075 -17.9935 44.1634 -24.0418 -17.9935 44.1634 -24.7075 -17.4421 
-49.7216 -16.8838 -10.7444 -39.3678 -16.8838 -17.9935 -41.8978 -11.8268 -17.9935 
-41.8978 -16.8838 -16.8371 49.4027 -16.8838 -17.9935 51.9871 -16.8838 -14.0371 
-42.8185 -9.06001 -17.9935 -49.7216 -9.06001 -12.6192 -41.8978 -5.85717 -17.9935 
51.793 -9.06001 -17.9935 51.9871 -8.39877 -17.9935 51.9871 -9.06001 -17.8297 
-49.7216 -1.23626 -12.6063 -38.2494 -1.23626 -17.9935 -41.8978 -1.23626 -17.1254 
-34.0741 4.17536 -17.9935 53.369 -1.23626 -17.9935 -49.7216 6.58748 -10.7839 
-41.8978 6.58748 -14.9053 -32.1018 6.58748 -17.9935 -34.0741 6.58748 -17.5769 
-26.2503 13.9858 -17.9935 53.1063 6.58748 -17.9935 51.9871 9.49885 -17.9935 
-41.8978 14.4112 -12.1012 -34.0741 14.4112 -15.524 -26.0341 14.4112 -17.9935 
-26.2503 14.4112 -17.9236 -18.4266 20.3978 -17.9935 49.6735 14.4112 -17.9935 
44.1634 20.9766 -17.9935 51.9871 14.4112 -15.7733 -34.0741 22.235 -11.9798 
-26.2503 22.235 -14.7561 -14.9352 22.235 -17.9935 -18.4266 22.235 -17.1135 
-10.6028 23.8164 -17.9935 -2.77909 25.6907 -17.9935 5.04465 26.7881 -17.9935 
12.8684 27.2752 -17.9935 20.6921 27.861 -17.9935 28.5159 27.8328 -17.9935 
42.0044 22.235 -17.9935 36.3396 25.3239 -17.9935 44.1634 22.235 -17.0792 
-10.6028 30.0587 -12.0399 -2.77909 30.0587 -14.0841 5.04465 30.0587 -15.3068 
12.8684 30.0587 -16.1953 20.6921 30.0587 -16.5492 28.5159 30.0587 -16.5362 
36.3396 30.0587 -14.178 12.8684 -40.5861 -10.1698 20.6921 -40.7651 -10.1698 
-18.4266 -33.5397 -10.1698 -10.6028 -36.2517 -10.1698 -2.77909 -38.6498 -10.1698 
9.97945 -40.355 -10.1698 5.04465 -39.9587 -10.1698 12.8684 -40.355 -9.12527 
22.3961 -40.355 -10.1698 20.6921 -40.355 -8.96029 28.5159 -38.8543 -10.1698 
36.3396 -35.4064 -10.1698 -41.8978 -25.997 -10.1698 -34.0741 -29.6836 -10.1698 
-22.566 -32.5312 -10.1698 -26.2503 -31.6141 -10.1698 -26.2503 -32.5312 -6.41096 
40.154 -32.5312 -10.1698 44.1634 -29.3023 -10.1698 -43.6362 -24.7075 -10.1698 
-49.7216 -17.6537 -10.1698 48.287 -24.7075 -10.1698 51.9871 -19.2674 -10.1698 
-50.21 -16.8838 -10.1698 53.4778 -16.8838 -10.1698 -52.007 -9.06001 -10.1698 
56.5877 -9.06001 -10.1698 -52.1585 -1.23626 -10.1698 58.06 -1.23626 -10.1698 
-50.358 6.58748 -10.1698 -49.7216 7.87423 -10.1698 57.9307 6.58748 -10.1698 
-44.8847 14.4112 -10.1698 -49.7216 14.4112 -5.21409 -41.8978 18.1392 -10.1698 
55.507 14.4112 -10.1698 51.9871 20.0957 -10.1698 -37.6128 22.235 -10.1698 
-41.8978 22.235 -6.77537 -34.0741 24.4686 -10.1698 -26.2503 27.6541 -10.1698 
-18.4266 29.9401 -10.1698 50.298 22.235 -10.1698 44.1634 28.1106 -10.1698 
-26.2503 30.0587 -6.09726 -17.8543 30.0587 -10.1698 -18.4266 30.0587 -9.86091 
-10.6028 31.2218 -10.1698 -2.77909 32.5365 -10.1698 5.04465 33.6534 -10.1698 
12.8684 34.5714 -10.1698 20.6921 35.1706 -10.1698 28.5159 34.9688 -10.1698 
41.2509 30.0587 -10.1698 36.3396 32.721 -10.1698 -26.2503 -33.4395 -2.34603 
-18.4266 -35.1363 -2.34603 -10.6028 -37.4378 -2.34603 -2.77909 -39.1371 -2.34603 
5.04465 -39.3533 -2.34603 12.8684 -38.7154 -2.34603 20.6921 -37.8214 -2.34603 
28.5159 -36.3183 -2.34603 36.3396 -32.7405 -2.34603 -41.8978 -28.4962 -2.34603 
-30.6448 -32.5312 -2.34603 -34.0741 -31.7856 -2.34603 20.6921 -32.5312 4.97806 
28.5159 -32.5312 2.79999 36.6677 -32.5312 -2.34603 36.3396 -32.5312 -2.03223 
44.1634 -26.9046 -2.34603 -47.3726 -24.7075 -2.34603 -49.7216 -22.3241 -2.34603 
46.2802 -24.7075 -2.34603 44.1634 -24.7075 0.480911 51.9871 -17.243 -2.34603 
-53.6096 -16.8838 -2.34603 52.2187 -16.8838 -2.34603 51.9871 -16.8838 -1.92369 
-56.3592 -9.06001 -2.34603 55.6171 -9.06001 -2.34603 51.9871 -9.06001 3.67326 
-57.2278 -1.23626 -2.34603 -57.5453 -1.23626 0.116055 57.3242 -1.23626 -2.34603 
-55.2171 6.58748 -2.34603 57.4384 6.58748 -2.34603 -51.5961 14.4112 -2.34603 
-49.7216 17.5757 -2.34603 55.2317 14.4112 -2.34603 51.9871 20.1858 -2.34603 
51.9871 14.4112 4.50123 -45.8845 22.235 -2.34603 -41.8978 25.4924 -2.34603 
-34.0741 29.7313 -2.34603 50.6479 22.235 -2.34603 44.1634 28.8592 -2.34603 
-32.8456 30.0587 -2.34603 -34.0741 30.0587 -0.578678 -26.2503 31.6662 -2.34603 
-18.4266 32.1674 -2.34603 -10.6028 32.4665 -2.34603 -2.77909 33.8734 -2.34603 
5.04465 35.6799 -2.34603 12.8684 36.8495 -2.34603 20.6921 37.1922 -2.34603 
28.5159 36.5409 -2.34603 42.4139 30.0587 -2.34603 36.3396 33.5927 -2.34603 
-26.2503 -32.7791 5.47771 -18.4266 -34.0491 5.47771 -10.6028 -35.7609 5.47771 
-2.77909 -36.9164 5.47771 5.04465 -36.27 5.47771 12.8684 -34.2575 5.47771 
-41.8978 -27.9248 5.47771 -27.5444 -32.5312 5.47771 -34.0741 -31.1819 5.47771 
-26.2503 -32.5312 6.02974 -18.4266 -32.5312 8.16505 -10.6028 -32.5312 10.1003 
-2.77909 -32.5312 11.1892 5.04465 -32.5312 10.1091 19.2683 -32.5312 5.47771 
12.8684 -32.5312 7.45652 20.6921 -32.0751 5.47771 28.5159 -29.6584 5.47771 
36.3396 -25.4694 5.47771 -46.6901 -24.7075 5.47771 -49.7216 -21.9433 5.47771 
-41.8978 -24.7075 11.8019 20.6921 -24.7075 11.4146 28.5159 -24.7075 9.47632 
37.4403 -24.7075 5.47771 36.3396 -24.7075 6.06508 44.1634 -18.431 5.47771 
-53.6034 -16.8838 5.47771 -49.7216 -16.8838 13.165 36.3396 -16.8838 10.6937 
45.4215 -16.8838 5.47771 44.1634 -16.8838 6.42846 -57.0524 -9.06001 5.47771 
-57.5453 -5.8023 5.47771 36.3396 -9.06001 13.2871 50.3049 -9.06001 5.47771 
44.1634 -9.06001 9.78254 51.9871 -3.05902 5.47771 -58.2201 -1.23626 5.47771 
-57.5453 2.31777 5.47771 -57.5453 -1.23626 7.68777 44.1634 -1.23626 11.9035 
52.3671 -1.23626 5.47771 51.9871 -1.23626 5.89533 -56.7376 6.58748 5.47771 
44.1634 6.58748 13.0323 52.9601 6.58748 5.47771 51.9871 11.5397 5.47771 
51.9871 6.58748 6.62686 -53.5689 14.4112 5.47771 -49.7216 20.3842 5.47771 
51.4003 14.4112 5.47771 44.1634 14.4112 12.3198 -48.198 22.235 5.47771 
-41.8978 28.0249 5.47771 46.5509 22.235 5.47771 44.1634 25.0057 5.47771 
44.1634 22.235 8.02837 -37.1807 30.0587 5.47771 -34.0741 31.1231 5.47771 
-34.0741 30.0587 12.819 -26.2503 32.3885 5.47771 -18.4266 32.1963 5.47771 
-10.6028 32.0195 5.47771 -2.77909 33.6525 5.47771 5.04465 35.9042 5.47771 
12.8684 36.9173 5.47771 20.6921 36.5205 5.47771 28.5159 35.0416 5.47771 
28.5159 30.0587 12.685 38.5979 30.0587 5.47771 36.3396 31.4838 5.47771 
36.3396 30.0587 7.50305 -34.0741 -26.8907 13.3015 -26.2503 -28.4289 13.3015 
-18.4266 -28.744 13.3015 -10.6028 -29.1054 13.3015 -2.77909 -29.9134 13.3015 
5.04465 -28.4876 13.3015 12.8684 -24.8293 13.3015 -39.702 -24.7075 13.3015 
-41.8978 -23.6896 13.3015 -34.0741 -24.7075 15.6363 -26.2503 -24.7075 16.9721 
-18.4266 -24.7075 16.7404 -10.6028 -24.7075 16.329 -2.77909 -24.7075 16.4888 
5.04465 -24.7075 15.5683 13.1757 -24.7075 13.3015 12.8684 -24.7075 13.3755 
20.6921 -20.8781 13.3015 28.5159 -16.9757 13.3015 -49.6214 -16.8838 13.3015 
-49.7216 -16.7716 13.3015 -41.8978 -16.8838 18.9344 -18.4266 -16.8838 21.1029 
-10.6028 -16.8838 20.7452 -2.77909 -16.8838 19.9014 5.04465 -16.8838 18.1134 
12.8684 -16.8838 16.606 20.6921 -16.8838 15.0414 28.6448 -16.8838 13.3015 
28.5159 -16.8838 13.3399 -54.1895 -9.06001 13.3015 -49.7216 -9.06001 18.6894 
5.04465 -9.06001 19.6448 12.8684 -9.06001 18.8466 20.6921 -9.06001 16.8079 
36.2894 -9.06001 13.3015 28.5159 -9.06001 15.3696 36.3396 -9.00355 13.3015 
-55.6171 -1.23626 13.3015 -49.7216 -1.23626 20.9965 20.6921 -1.23626 18.4647 
28.5159 -1.23626 16.8431 41.1203 -1.23626 13.3015 36.3396 -1.23626 15.1809 
-54.7276 6.58748 13.3015 -49.7216 6.58748 20.6408 20.6921 6.58748 20.3763 
[...]
POINT_DATA 486
SCALARS ImageScalars float
LOOKUP_TABLE default
0 0 0 0 0 0 0 0 0 
0 0 0 0 0 0 0 0 0 
0 0 0 0 0 0 0 0 0 
0 0 0 0 0 0 0 0 0 
0 0 0 0 0 0 0 0 0 
0 0 0 0 0 0 0 0 0 
0 0 0 0 0 0 0 0 0 
0 0 0 0 0 0 0 0 0 
0 0 0 0 0 0 0 0 0 
0 0 0 0 0 0 0 0 0 
0 0 0 0 0 0 0 0 0 
0 0 0 0 0 0 0 0 0 
0 0 0 0 0 0 0 0 0 
0 0 0 0 0 0 0 0 0 
0 0 0 0 0 0 0 0 0 
0 0 0 0 0 0 0 0 0 
0 0 0 0 0 0 0 0 0 
0 0 0 0 0 0 0 0 0 
0 0 0 0 0 0 0 0 0 
0 0 0 0 0 0 0 0 0 
0 0 0 0 0 0 0 0 0 
0 0 0 0 0 0 0 0 0 
0 0 0 0 0 0 0 0 0 
0 0 0 0 0 0 0 0 0 
0 0 0 0 0 0 0 0 0 
0 0 0 0 0 0 0 0 0 
0 0 0 0 0 0 0 0 0 
0 0 0 0 0 0 0 0 0 
0 0 0 0 0 0 0 0 0 
0 0 0 0 0 0 0 0 0 
0 0 0 0 0 0 0 0 0 
0 0 0 0 0 0 0 0 0 
0 0 0 0 0 0 0 0 0 
0 0 0 0 0 0 0 0 0 
0 0 0 0 0 0 0 0 0 
0 0 0 0 0 0 0 0 0 
0 0 0 0 0 0 0 0 0 
0 0 0 0 0 0 0 0 0 
0 0 0 0 0 0 0 0 0 
0 0 0 0 0 0 0 0 0 
0 0 0 0 0 0 0 0 0 
0 0 0 0 0 0 0 0 0 
0 0 0 0 0 0 0 0 0 
0 0 0 0 0 0 0 0 0 
0 0 0 0 0 0 0 0 0 
0 0 0 0 0 0 0 0 0 
0 0 0 0 0 0 0 0 0 
0 0 0 0 0 0 0 0 0 
0 0 0 0 0 0 0 0 0 
0 0 0 0 0 0 0 0 0 
0 0 0 0 0 0 0 0 0 
0 0 0 0 0 0 0 0 0 
0 0 0 0 0 0 0 0 0 
0 0 0 0 0 0 0 0 0 

NORMALS Normals float
0.262224 0.54324 0.797577 0.180572 0.467906 0.865134 0.0429295 0.393464 0.918337 
-0.112857 0.39535 0.911571 -0.271307 0.512296 0.814828 0.179268 0.532487 0.827237 
0.132349 0.431332 0.892433 0.147794 0.252513 0.95624 0.142386 0.116423 0.982941 
0.090838 0.0564185 0.994266 -0.0057873 -0.0161349 0.999853 -0.0414809 0.0236018 0.99886 
-0.12644 0.0967824 0.987242 -0.313909 0.286751 0.905116 0.286711 0.164333 0.943817 
0.127328 0.141623 0.981698 0.00669318 0.120008 0.99275 -0.00806094 0.00746752 0.99994 
0.0615867 -0.142319 0.987903 0.0465289 -0.0858724 0.995219 0.00314641 -0.169755 0.985481 
0.00800092 -0.116393 0.993171 -0.0198318 -0.0301549 0.999348 -0.132554 0.0974083 0.986378 
-0.372013 0.218313 0.902189 0.383386 0.0100028 0.923534 0.197873 -0.0705431 0.977686 
0.128159 -0.0824782 0.988318 -0.0103721 -0.0263285 0.9996 -0.121986 0.00436849 0.992522 
0.0494894 -0.0714502 0.996216 0.0698686 0.147605 0.986575 -0.0318273 0.0209838 0.999273 
0.0887022 -0.0521414 0.994693 0.0848425 0.019335 0.996207 -0.0481936 0.076797 0.995881 
-0.265767 0.134657 0.954587 0.199774 -0.15864 0.966915 0.176206 -0.149899 0.972873 
0.0934133 -0.0438715 0.99466 -0.0482 0.0597827 0.997047 0.200839 -0.000445414 0.979624 
0.177876 0.0870943 0.980191 -0.224726 0.129452 0.965785 0.00286861 0.0419382 0.999116 
0.10872 0.0255843 0.993743 -0.019927 0.0297216 0.99936 -0.226035 0.0408135 0.973264 
-0.613133 0.0575632 0.78788 0.23815 -0.148647 0.959786 0.199672 -0.0752945 0.976966 
-0.0815783 -0.014768 0.996558 0.0368615 0.00844603 0.999285 0.194614 -0.254112 0.947392 
-0.0639984 -0.134258 0.988878 0.00900682 -0.0174959 0.999806 0.0728388 -0.0475186 0.996211 
-0.0320353 -0.081645 0.996147 -0.235736 -0.107703 0.965831 -0.610768 -0.163403 0.774766 
0.225689 -0.247738 0.942173 0.0229447 -0.2022 0.979075 -0.0156771 -0.0185838 0.999704 
0.0330141 -0.166315 0.98552 0.0191127 -0.164993 0.986109 0.0636218 -0.114159 0.991423 
0.0518243 -0.157827 0.986106 -0.0768222 -0.199645 0.976852 -0.327074 -0.271353 0.905202 
0.159782 -0.442913 0.882212 0.0894397 -0.317967 0.943874 0.0222273 -0.301134 0.953323 
0.0117448 -0.277796 0.960568 0.0157761 -0.271283 0.96237 -0.0384493 -0.32537 0.944805 
-0.174707 -0.455922 0.872704 0.281503 0.667735 0.68912 0.18293 0.762784 0.62024 
0.0616856 0.829074 0.555726 0.0520259 0.996908 0.0588894 -0.120009 0.804316 0.581956 
-0.113453 0.99135 0.0659854 -0.312879 0.719867 0.619595 0.19365 0.597013 0.778508 
0.186127 0.587117 0.787813 0.269745 0.865513 0.422048 0.295957 0.635889 0.71278 
0.280762 0.596044 0.752266 0.311132 0.705014 0.6373 -0.455226 0.634475 0.624668 
-0.457933 0.627928 0.629288 -0.467032 0.647685 0.601984 0.501612 0.669775 0.547528 
0.270487 0.558807 0.783946 0.3346 0.453848 0.825872 0.34502 0.600775 0.721131 
-0.56367 0.477067 0.674302 -0.5691 0.469403 0.67512 -0.600875 0.506077 0.618737 
0.7452 0.350145 0.567516 0.395026 0.256753 0.882061 0.411013 0.115 0.904347 
0.460785 0.303957 0.833839 -0.632199 0.32658 0.702616 -0.826251 0.431705 0.361856 
0.420566 0.0197602 0.907046 0.696097 0.0841179 0.713003 0.356511 -0.0777965 0.931047 
-0.663536 0.171185 0.728297 -0.669283 0.16268 0.72498 -0.67919 0.176352 0.712461 
0.624209 -0.101105 0.774688 0.255512 -0.182525 0.94942 0.319512 -0.200461 0.926136 
0.228846 -0.186676 0.955396 -0.675307 0.0620678 0.73492 0.625804 -0.28244 0.727047 
0.383951 -0.277025 0.880817 0.239955 -0.188065 0.952393 0.245036 -0.200862 0.948479 
0.290233 -0.237585 0.926994 -0.659598 -0.165084 0.733265 -0.644577 -0.238923 0.726248 
0.470584 -0.366729 0.802534 0.323718 -0.301616 0.896791 0.291831 -0.242843 0.925128 
0.293319 -0.243046 0.924604 0.23137 -0.433096 0.871147 -0.580361 -0.341392 0.739346 
-0.414174 -0.509369 0.754323 -0.720233 -0.385069 0.57705 0.350458 -0.530229 0.772034 
0.27099 -0.497303 0.824169 0.200289 -0.471424 0.858862 0.229872 -0.502414 0.83351 
0.170846 -0.504946 0.846074 0.108931 -0.494376 0.862396 0.0526453 -0.52055 0.852207 
0.0353133 -0.498629 0.866096 0.0158222 -0.518265 0.855074 -0.0864317 -0.531663 0.842534 
-0.357958 -0.530822 0.768176 -0.224231 -0.538451 0.812275 -0.442639 -0.568017 0.69385 
0.170595 -0.863595 0.474449 0.133992 -0.805774 0.576866 0.0883427 -0.734665 0.672654 
0.0551735 -0.662986 0.746596 0.0152092 -0.647958 0.761524 -0.102817 -0.653782 0.749665 
-0.322437 -0.748272 0.579762 0.0509688 0.998699 0.00143284 -0.109961 0.993305 -0.0354116 
0.272624 0.90015 0.339715 0.308004 0.900613 0.306643 0.227358 0.94881 0.219245 
0.0758928 0.996494 0.0352096 0.120143 0.987733 0.0997473 0.0340267 0.998475 -0.043469 
-0.149203 0.988015 -0.0395473 -0.119737 0.987656 -0.100987 -0.29122 0.956443 -0.0201883 
-0.523591 0.85197 -2.46464e-05 0.493928 0.734924 0.464673 0.313974 0.851334 0.420299 
0.237833 0.90562 0.351125 0.212343 0.904525 0.369789 0.208649 0.953623 0.216952 
-0.603002 0.797685 0.00938303 -0.69548 0.716806 0.0499679 0.539828 0.690543 0.481389 
0.748989 0.384835 0.539368 -0.788349 0.608184 0.0928332 -0.856328 0.508057 0.0926316 
0.758586 0.355537 0.546023 -0.878184 0.467932 0.0991589 0.756026 0.104124 0.646207 
-0.944916 0.28402 0.162683 0.701969 -0.0902776 0.706462 -0.981962 0.08066 0.17101 
0.654694 -0.280653 0.701862 0.636486 -0.310183 0.706167 -0.967125 -0.162851 0.195319 
0.541913 -0.410694 0.733254 0.729499 -0.475847 0.491325 0.507463 -0.471021 0.72154 
-0.885118 -0.405428 0.228462 -0.794318 -0.556692 0.243215 0.432221 -0.564751 0.703023 
0.554372 -0.625643 0.548856 0.359168 -0.621156 0.696537 0.250777 -0.741799 0.621969 
0.185202 -0.852631 0.48859 -0.741608 -0.61757 0.261961 -0.563359 -0.772721 0.292453 
0.195737 -0.89539 0.399954 0.18271 -0.85896 0.478335 0.179478 -0.863119 0.47203 
0.15914 -0.91341 0.374643 0.148102 -0.920969 0.360393 0.12267 -0.900731 0.416697 
0.091153 -0.888722 0.449293 0.0242772 -0.895482 0.444436 -0.161513 -0.895809 0.414053 
-0.485776 -0.819279 0.304636 -0.357181 -0.873044 0.331988 0.203946 0.976785 0.0655478 
0.247144 0.968581 0.0277535 0.251406 0.967508 -0.0268862 0.118565 0.988315 -0.0957873 
-0.0236271 0.977913 -0.207671 -0.0911181 0.929317 -0.357865 -0.150624 0.870403 -0.468733 
-0.275744 0.85445 -0.440318 -0.483368 0.771577 -0.41355 0.475403 0.874456 0.0965314 
0.257381 0.963778 0.0699079 0.30065 0.950726 0.0757008 -0.203552 0.717993 -0.665621 
-0.261965 0.722891 -0.639377 -0.489885 0.767947 -0.412638 -0.48292 0.76561 -0.425005 
-0.634926 0.66502 -0.393214 0.64466 0.755055 0.119601 0.742981 0.654163 0.1416 
-0.681249 0.625888 -0.37969 -0.611739 0.611551 -0.501778 -0.806473 0.496996 -0.320308 
0.868475 0.461374 0.181342 -0.810937 0.490278 -0.319387 -0.803185 0.490698 -0.337802 
0.945511 0.201444 0.25579 -0.896463 0.30843 -0.318159 -0.752288 0.27391 -0.599197 
0.953217 -0.0647 0.295282 0.983116 -0.0514641 0.175597 -0.949428 0.105311 -0.295798 
0.886839 -0.308006 0.344455 -0.957053 -0.129893 -0.259186 0.798992 -0.473476 0.37072 
0.754523 -0.53891 0.374527 -0.902664 -0.368987 -0.221466 -0.837386 -0.516709 -0.178318 
-0.802892 -0.2936 -0.51881 0.653403 -0.65672 0.376542 0.552045 -0.740869 0.38257 
0.319774 -0.894774 0.311646 -0.800875 -0.576729 -0.161188 -0.60166 -0.791411 -0.108045 
0.288902 -0.909798 0.297998 0.303335 -0.921458 0.2427 0.141128 -0.960177 0.241128 
0.0496317 -0.990218 0.130403 0.107154 -0.99317 0.0461558 0.202546 -0.977067 0.0656915 
0.185386 -0.973956 0.130543 0.0945333 -0.986607 0.13293 -0.0173322 -0.99709 0.0742409 
-0.2264 -0.974007 0.00725821 -0.549532 -0.830461 -0.0913766 -0.414395 -0.908189 -0.058906 
0.168878 0.951471 -0.25726 0.178789 0.929368 -0.32297 0.172446 0.900655 -0.398852 
0.0324396 0.892848 -0.449188 -0.142428 0.847706 -0.510989 -0.214489 0.765786 -0.606272 
0.461427 0.858738 -0.222832 0.1869 0.948301 -0.256504 0.281659 0.925199 -0.254314 
0.165399 0.945489 -0.280525 0.140866 0.885209 -0.443353 0.117772 0.775264 -0.620561 
-0.00377329 0.706977 -0.707226 -0.169629 0.705758 -0.687846 -0.211195 0.714856 -0.666616 
-0.232696 0.710368 -0.664251 -0.208108 0.702543 -0.680533 -0.265162 0.634437 -0.726071 
-0.391242 0.565679 -0.725904 0.592611 0.776146 -0.215431 0.703579 0.682877 -0.196609 
0.415911 0.739993 -0.52861 -0.201885 0.510541 -0.835817 -0.273217 0.524221 -0.806564 
-0.410367 0.557351 -0.721774 -0.387402 0.552561 -0.737967 -0.536894 0.458014 -0.708497 
0.841191 0.509164 -0.182073 0.648322 0.529895 -0.546708 -0.350937 0.384973 -0.853604 
-0.56124 0.434919 -0.70417 -0.529111 0.425783 -0.733996 0.960526 0.252477 -0.116811 
0.984562 0.139687 -0.105471 -0.320648 0.256308 -0.911861 -0.672588 0.263786 -0.691406 
-0.489943 0.273875 -0.827616 -0.721505 0.144414 -0.677182 0.995911 -0.020653 -0.087949 
0.989355 -0.132055 -0.0611363 0.982739 -0.00813226 -0.184818 -0.473327 0.170672 -0.864195 
-0.729361 0.112955 -0.67474 -0.71842 0.114622 -0.686101 0.964677 -0.262106 -0.0264282 
-0.487632 0.0249659 -0.872692 -0.773766 -0.0544552 -0.631126 -0.783532 -0.198607 -0.588756 
-0.747166 -0.0467156 -0.662994 0.879608 -0.475153 0.0227804 0.7816 -0.62351 0.0183256 
-0.778145 -0.278105 -0.563158 -0.555917 -0.208113 -0.804764 0.731038 -0.682009 0.0211574 
0.530638 -0.847176 0.0267609 -0.674739 -0.521098 -0.52267 -0.63594 -0.590595 -0.496767 
-0.628336 -0.493656 -0.601246 0.356478 -0.934118 0.0186197 0.254425 -0.96701 0.0125934 
0.282946 -0.923802 -0.257935 0.0628314 -0.997982 -0.00913107 -0.0233789 -0.999067 -0.0363164 
0.0906575 -0.994547 -0.0515436 0.247857 -0.967599 -0.0481523 0.204671 -0.977546 -0.0501268 
0.0402218 -0.992932 -0.111662 -0.106807 -0.965829 -0.236149 -0.301107 -0.880984 -0.364968 
-0.37737 -0.667217 -0.642194 -0.501665 -0.752733 -0.426292 -0.454823 -0.788878 -0.413288 
-0.455879 -0.735792 -0.500784 0.223181 0.757998 -0.612887 0.0942535 0.763554 -0.638828 
0.0296932 0.70796 -0.705628 0.0456042 0.627482 -0.777295 -0.0194609 0.595488 -0.803128 
-0.176509 0.535985 -0.825569 -0.234186 0.46697 -0.8527 0.347986 0.716726 -0.604326 
0.399221 0.693402 -0.599847 0.215599 0.696086 -0.684822 0.0510403 0.629645 -0.775205 
-0.0343065 0.580119 -0.813809 -0.0129439 0.528072 -0.849101 -0.0445612 0.457647 -0.888016 
-0.175965 0.416205 -0.892082 -0.232508 0.465387 -0.854023 -0.233835 0.46383 -0.854508 
-0.198255 0.402677 -0.893614 -0.241699 0.325799 -0.914022 0.642826 0.5293 -0.55373 
0.646652 0.525962 -0.552454 0.379673 0.50558 -0.77475 -0.0441458 0.452101 -0.890874 
-0.069547 0.484544 -0.871998 -0.158743 0.355574 -0.921069 -0.195387 0.239283 -0.951088 
-0.186964 0.312752 -0.931252 -0.196519 0.304601 -0.931986 -0.242777 0.324586 -0.914168 
-0.241422 0.323757 -0.914821 0.816173 0.285838 -0.502153 0.610521 0.330177 -0.719894 
-0.219539 0.306987 -0.926046 -0.173992 0.318934 -0.931669 -0.214143 0.206617 -0.9547 
-0.319878 0.255972 -0.912226 -0.20393 0.210527 -0.956081 -0.320354 0.255811 -0.912104 
0.891592 0.0298963 -0.451853 0.614548 0.0952562 -0.783107 -0.303937 0.217579 -0.927514 
-0.200676 0.184439 -0.962139 -0.392194 0.183032 -0.901489 -0.285006 0.183994 -0.940701 
0.896106 -0.192056 -0.400136 0.681195 -0.138843 -0.718816 -0.297376 0.154809 -0.942126 
-0.243086 0.129562 -0.961313 -0.472978 0.0281322 -0.880625 -0.314091 0.0664303 -0.947066 
0.839368 -0.421328 -0.343429 0.778634 -0.532554 -0.331837 0.766144 -0.399608 -0.503327 
-0.240497 -0.0104127 -0.970594 -0.288389 -0.0339841 -0.95691 -0.510395 -0.187529 -0.839244 
-0.383992 -0.116506 -0.915957 0.672976 -0.666694 -0.320347 0.542952 -0.775491 -0.322204 
0.561057 -0.61327 -0.555981 0.285188 -0.917948 -0.275751 -0.273746 -0.230672 -0.933731 
-0.379939 -0.629737 -0.677553 -0.326376 -0.299653 -0.896486 -0.485582 -0.40594 -0.774224 
-0.46442 -0.437498 -0.770006 -0.460939 -0.392926 -0.795704 0.276252 -0.921418 -0.273264 
0.093094 -0.969878 -0.225101 0.130844 -0.91565 -0.380085 0.00687538 -0.983022 -0.183361 
0.0395228 -0.923955 -0.380453 0.0919019 -0.985811 -0.140467 0.0760819 -0.906207 -0.415933 
0.199274 -0.962365 -0.184781 0.110748 -0.944359 -0.30971 -0.109658 -0.877537 -0.466801 
-0.217005 -0.590819 -0.777072 -0.371123 -0.656062 -0.657153 -0.279098 -0.755425 -0.592821 
-0.299778 -0.616156 -0.728344 0.138821 0.486667 -0.862487 -0.0197206 0.445488 -0.895071 
0.174259 0.476318 -0.861832 0.339791 0.408827 -0.846996 0.133421 0.470282 -0.872372 
-0.0430861 0.45104 -0.891463 -0.0237757 0.432167 -0.90148 -0.0438895 0.451781 -0.891049 
-0.0751379 0.481565 -0.873184 -0.23497 0.352798 -0.905717 0.43282 0.338653 -0.835452 
0.313157 0.337527 -0.887698 0.120443 0.309301 -0.943306 0.0226644 0.358006 -0.933444 
0.00941736 0.397973 -0.917349 -0.111529 0.424095 -0.898724 -0.27424 0.330884 -0.902944 
-0.325623 0.347991 -0.879131 -0.21936 0.325026 -0.919913 -0.267469 0.297135 -0.916608 
0.605869 0.097511 -0.789566 0.332764 0.153771 -0.930389 0.157017 0.211661 -0.964648 
0.0572613 0.233927 -0.970567 0.0230162 0.23658 -0.971339 -0.112284 0.194848 -0.974385 
-0.290089 0.214575 -0.932634 -0.209285 0.322884 -0.923009 -0.31477 0.2626 -0.912119 
-0.303778 0.274473 -0.912351 0.653558 -0.129561 -0.745705 0.405552 -0.0524158 -0.912568 
0.196478 0.0279741 -0.980109 0.0581795 0.0551745 -0.99678 -0.0178411 0.0653248 -0.997705 
-0.147634 0.00669051 -0.989019 -0.225872 0.0320476 -0.97363 -0.191888 0.0641126 -0.979321 
-0.298148 0.126771 -0.946064 -0.285671 0.0366831 -0.957625 0.611717 -0.337864 -0.715297 
0.54169 -0.496011 -0.678634 0.484765 -0.28592 -0.826591 0.249322 -0.192975 -0.948999 
0.0964793 -0.143091 -0.984996 -0.0271028 -0.121732 -0.992193 -0.152985 -0.115849 -0.981415 
-0.22252 -0.0557649 -0.973332 -0.213592 -0.0310384 -0.97643 -0.239676 -0.0125634 -0.970772 
-0.223884 -0.0582356 -0.972874 0.49131 -0.57949 -0.650235 0.335378 -0.700029 -0.630461 
0.328226 -0.542419 -0.773336 0.163033 -0.796768 -0.581877 0.141382 -0.460994 -0.876068 
0.056713 -0.846181 -0.529869 0.0157923 -0.432524 -0.901484 0.0590172 -0.842025 -0.5362 
-0.0756522 -0.368043 -0.926726 -0.137528 -0.270383 -0.95288 -0.199006 -0.178601 -0.963586 
-0.267884 -0.208044 -0.940721 -0.252191 -0.342602 -0.904999 -0.259995 -0.189815 -0.94677 
0.0441076 -0.789878 -0.611676 0.036378 -0.765792 -0.642058 0.0324912 -0.756302 -0.653415 
-0.111689 -0.638548 -0.761434 -0.111633 -0.638613 -0.761388 -0.111645 -0.638576 -0.761417 

