# vtk DataFile Version 4.2
vtk output
ASCII
DATASET POLYDATA
POINTS 556 float
-14.3428 -35.314 -15.5375 -5.8919 -35.314 -16.8495 2.55894 -35.314 -16.9576 
11.0098 -35.314 -16.1496 -22.7936 -26.8631 -16.368 -14.3428 -26.8631 -17.9932 
-5.8919 -26.8631 -18.5952 2.55894 -26.8631 -18.4373 11.0098 -26.8631 -17.8359 
19.4606 -26.8631 -17.2484 27.9115 -26.8631 -16.6934 36.3623 -26.8631 -15.2344 
-39.6953 -18.4123 -15.6708 -31.2444 -18.4123 -17.1149 -22.7936 -18.4123 -18.2274 
-14.3428 -18.4123 -19.3524 -5.8919 -18.4123 -18.6926 2.55894 -18.4123 -18.5621 
11.0098 -18.4123 -18.8014 19.4606 -18.4123 -18.2603 27.9115 -18.4123 -18.7478 
36.3623 -18.4123 -18.1352 44.8132 -18.4123 -17.046 -48.1461 -9.96144 -17.0567 
-39.6953 -9.96144 -18.0531 -31.2444 -9.96144 -18.5062 -22.7936 -9.96144 -18.5113 
-14.3428 -9.96144 -19.5773 -5.8919 -9.96144 -19.834 2.55894 -9.96144 -20.953 
11.0098 -9.96144 -21.5627 19.4606 -9.96144 -18.2269 27.9115 -9.96144 -19.1304 
36.3623 -9.96144 -19.9306 44.8132 -9.96144 -19.8338 53.264 -9.96144 -17.3268 
-56.597 -1.51059 -15.5162 -48.1461 -1.51059 -18.772 -39.6953 -1.51059 -19.6608 
-31.2444 -1.51059 -19.3108 -22.7936 -1.51059 -18.2313 -14.3428 -1.51059 -19.2169 
-5.8919 -1.51059 -21.0523 2.55894 -1.51059 -20.1847 11.0098 -1.51059 -21.4636 
19.4606 -1.51059 -17.4827 27.9115 -1.51059 -19.3514 36.3623 -1.51059 -20.2144 
44.8132 -1.51059 -19.9758 53.264 -1.51059 -17.9632 -56.597 6.94025 -15.8929 
-48.1461 6.94025 -19.3649 -39.6953 6.94025 -20.163 -31.2444 6.94025 -19.7262 
-22.7936 6.94025 -18.4757 -14.3428 6.94025 -18.0649 -5.8919 6.94025 -20.418 
2.55894 6.94025 -19.9931 11.0098 6.94025 -19.1716 19.4606 6.94025 -17.9169 
27.9115 6.94025 -19.718 36.3623 6.94025 -20.935 44.8132 6.94025 -20.1933 
53.264 6.94025 -18.6125 -48.1461 15.3911 -18.0144 -39.6953 15.3911 -19.4341 
-31.2444 15.3911 -19.7986 -22.7936 15.3911 -18.6732 -14.3428 15.3911 -17.615 
-5.8919 15.3911 -18.2046 2.55894 15.3911 -18.9051 11.0098 15.3911 -18.2799 
19.4606 15.3911 -18.9271 27.9115 15.3911 -20.0308 36.3623 15.3911 -20.6102 
44.8132 15.3911 -20.146 53.264 15.3911 -16.5593 -48.1461 23.8419 -15.6572 
-39.6953 23.8419 -17.8202 -31.2444 23.8419 -17.844 -22.7936 23.8419 -17.7924 
-14.3428 23.8419 -17.1929 -5.8919 23.8419 -17.4427 2.55894 23.8419 -17.9974 
11.0098 23.8419 -18.4228 19.4606 23.8419 -18.9631 27.9115 23.8419 -19.7584 
36.3623 23.8419 -19.2887 44.8132 23.8419 -17.2632 -31.2444 32.2928 -15.1222 
-22.7936 32.2928 -15.7184 -14.3428 32.2928 -15.6079 -5.8919 32.2928 -16.2779 
2.55894 32.2928 -17.0167 11.0098 32.2928 -17.4005 19.4606 32.2928 -17.3531 
27.9115 32.2928 -17.2616 36.3623 32.2928 -16.2949 -22.7936 -43.7648 -7.14164 
-14.3428 -36.5951 -14.9825 -14.3428 -43.7648 -11.2973 -5.8919 -39.5735 -14.9825 
-5.8919 -43.7648 -12.8613 2.55894 -40.068 -14.9825 2.55894 -43.7648 -13.2207 
11.0098 -38.8982 -14.9825 11.0098 -43.7648 -12.978 19.4606 -43.7648 -9.87454 
-31.2444 -35.314 -9.51008 -16.1937 -35.314 -14.9825 -22.7936 -30.3317 -14.9825 
-22.7936 -35.314 -12.7261 18.7467 -35.314 -14.9825 19.4606 -34.9328 -14.9825 
19.4606 -35.314 -14.8692 27.9115 -30.9968 -14.9825 27.9115 -35.314 -12.7582 
36.3623 -27.3223 -14.9825 36.3623 -35.314 -9.47812 -48.1461 -26.8631 -6.61999 
-39.6953 -20.1325 -14.9825 -39.6953 -26.8631 -11.7311 -28.03 -26.8631 -14.9825 
-31.2444 -24.503 -14.9825 -31.2444 -26.8631 -14.0757 37.4 -26.8631 -14.9825 
44.8132 -22.992 -14.9825 44.8132 -26.8631 -12.7623 -56.597 -18.4123 -6.99915 
-43.1335 -18.4123 -14.9825 -48.1461 -15.7031 -14.9825 -48.1461 -18.4123 -13.7818 
50.7426 -18.4123 -14.9825 53.264 -16.2707 -14.9825 53.264 -18.4123 -13.817 
-53.0249 -9.96144 -14.9825 -56.597 -3.40162 -14.9825 -56.597 -9.96144 -13.1099 
56.9954 -9.96144 -14.9825 61.7149 -9.96144 -9.83823 -57.3516 -1.51059 -14.9825 
-65.0478 -1.51059 -6.71377 58.3216 -1.51059 -14.9825 61.7149 -1.51059 -11.9223 
-58.08 6.94025 -14.9825 -56.597 11.5676 -14.9825 58.9723 6.94025 -14.9825 
61.7149 6.94025 -11.8994 -54.8427 15.3911 -14.9825 -56.597 15.3911 -13.8878 
55.5788 15.3911 -14.9825 53.264 19.0912 -14.9825 61.7149 15.3911 -7.17399 
-49.4274 23.8419 -14.9825 -56.597 23.8419 -8.44908 -48.1461 25.0608 -14.9825 
-39.6953 29.8516 -14.9825 49.1612 23.8419 -14.9825 44.8132 27.8593 -14.9825 
53.264 23.8419 -11.4423 -48.1461 32.2928 -8.41822 -32.1415 32.2928 -14.9825 
-39.6953 32.2928 -13.556 -31.2444 32.5098 -14.9825 -22.7936 33.838 -14.9825 
-14.3428 34.0876 -14.9825 -5.8919 35.9283 -14.9825 2.55894 37.8953 -14.9825 
11.0098 38.1574 -14.9825 19.4606 38.1454 -14.9825 27.9115 36.1209 -14.9825 
39.3103 32.2928 -14.9825 36.3623 33.9564 -14.9825 44.8132 32.2928 -10.6175 
-31.2444 40.7436 -8.18795 -22.7936 40.7436 -10.5477 -14.3428 40.7436 -12.2564 
-5.8919 40.7436 -13.0069 2.55894 40.7436 -13.7294 11.0098 40.7436 -13.6948 
19.4606 40.7436 -13.3383 27.9115 40.7436 -9.88145 -22.7936 -44.4155 -6.53163 
-14.3428 -48.8191 -6.53163 -5.8919 -50.1693 -6.53163 -5.8919 -52.2157 1.42546 
2.55894 -50.2583 -6.53163 2.55894 -52.2157 1.50783 11.0098 -49.2881 -6.53163 
19.4606 -46.731 -6.53163 -24.2117 -43.7648 -6.53163 -31.2444 -39.6912 -6.53163 
-31.2444 -43.7648 -1.07912 25.5151 -43.7648 -6.53163 27.9115 -42.4636 -6.53163 
27.9115 -43.7648 -1.56225 36.3623 -38.1517 -6.53163 -48.1461 -26.9478 -6.53163 
-36.3862 -35.314 -6.53163 -39.6953 -32.9147 -6.53163 -39.6953 -35.314 -3.78269 
40.9299 -35.314 -6.53163 44.8132 -32.921 -6.53163 -48.2473 -26.8631 -6.53163 
-56.597 -18.8545 -6.53163 52.8286 -26.8631 -6.53163 53.264 -26.4723 -6.53163 
53.264 -26.8631 -2.0298 -56.939 -18.4123 -6.53163 60.4103 -18.4123 -6.53163 
61.7149 -15.6853 -6.53163 -62.9251 -9.96144 -6.53163 -65.0478 -1.95082 -6.53163 
63.8422 -9.96144 -6.53163 -65.1412 -1.51059 -6.53163 -65.0478 0.579353 -6.53163 
65.1981 -1.51059 -6.53163 -64.733 6.94025 -6.53163 65.1187 6.94025 -6.53163 
-62.4383 15.3911 -6.53163 62.0674 15.3911 -6.53163 61.7149 16.071 -6.53163 
-57.8479 23.8419 -6.53163 -56.597 25.4592 -6.53163 56.786 23.8419 -6.53163 
53.264 27.8518 -6.53163 -49.8131 32.2928 -6.53163 -48.1461 33.6989 -6.53163 
-39.6953 39.0326 -6.53163 36.3623 39.453 -6.53163 48.3296 32.2928 -6.53163 
44.8132 34.8739 -6.53163 -35.1969 40.7436 -6.53163 -31.2444 42.2197 -6.53163 
-22.7936 44.6335 -6.53163 -14.3428 46.2736 -6.53163 -5.8919 47.62 -6.53163 
2.55894 48.3418 -6.53163 11.0098 47.2242 -6.53163 19.4606 45.3913 -6.53163 
33.1257 40.7436 -6.53163 27.9115 42.7383 -6.53163 -14.3428 49.1945 1.68841 
-5.8919 49.1945 -2.64964 2.55894 49.1945 -3.952 -5.8919 -52.3184 1.91922 
2.55894 -52.3009 1.91922 -31.2444 -45.182 1.91922 -22.7936 -49.326 1.91922 
-7.05664 -52.2157 1.91922 -14.3428 -51.5659 1.91922 -5.8919 -52.2157 2.21663 
3.02428 -52.2157 1.91922 2.55894 -52.2157 2.1437 11.0098 -50.7257 1.91922 
19.4606 -48.1157 1.91922 27.9115 -44.5183 1.91922 -33.4756 -43.7648 1.91922 
-39.6953 -39.3991 1.91922 19.4606 -43.7648 9.72549 29.3046 -43.7648 1.91922 
27.9115 -43.7648 3.64236 36.3623 -39.7404 1.91922 -44.7688 -35.314 1.91922 
-48.1461 -32.3982 1.91922 43.1306 -35.314 1.91922 44.8132 -34.1221 1.91922 
53.264 -27.1408 1.91922 -53.6689 -26.8631 1.91922 -56.597 -23.2646 1.91922 
53.5433 -26.8631 1.91922 53.264 -26.8631 2.39467 -59.9327 -18.4123 1.91922 
-56.597 -18.4123 9.90847 60.5085 -18.4123 1.91922 61.7149 -15.8634 1.91922 
-63.5958 -9.96144 1.91922 -65.0478 -3.19224 1.91922 64.067 -9.96144 1.91922 
61.7149 -9.96144 6.68644 -65.4086 -1.51059 1.91922 -65.0478 0.915966 1.91922 
-65.0478 -1.51059 2.68572 65.5229 -1.51059 1.91922 61.7149 -1.51059 10.0615 
-64.1386 6.94025 1.91922 65.4049 6.94025 1.91922 61.7149 6.94025 9.9915 
-61.4776 15.3911 1.91922 -56.597 15.3911 8.96983 62.4058 15.3911 1.91922 
61.7149 16.6321 1.91922 61.7149 15.3911 3.50852 -57.2202 23.8419 1.91922 
-56.597 24.6801 1.91922 -56.597 23.8419 2.90785 56.9173 23.8419 1.91922 
53.264 27.7739 1.91922 53.264 23.8419 8.94196 -50.0441 32.2928 1.91922 
-48.1461 34.0729 1.91922 -48.1461 32.2928 4.62857 -39.6953 40.4618 1.91922 
36.3623 39.0125 1.91922 47.8582 32.2928 1.91922 44.8132 34.608 1.91922 
44.8132 32.2928 6.67297 -39.1798 40.7436 1.91922 -31.2444 44.5992 1.91922 
-22.7936 47.329 1.91922 11.0098 49.0098 1.91922 19.4606 46.323 1.91922 
32.5611 40.7436 1.91922 27.9115 42.768 1.91922 27.9115 40.7436 7.14715 
-14.6619 49.1945 1.91922 -14.3428 49.2652 1.91922 -14.3428 49.1945 2.27927 
-5.8919 50.6373 1.91922 -5.8919 49.1945 8.31298 10.1554 49.1945 1.91922 
2.55894 50.6961 1.91922 2.55894 49.1945 7.52016 -31.2444 -43.89 10.3701 
-22.7936 -46.6818 10.3701 -14.3428 -48.3365 10.3701 -5.8919 -48.2938 10.3701 
2.55894 -47.4633 10.3701 11.0098 -45.6312 10.3701 -31.4458 -43.7648 10.3701 
-39.6953 -37.8788 10.3701 -31.2444 -43.7648 10.5166 -22.7936 -43.7648 13.7787 
-14.3428 -43.7648 14.1653 -5.8919 -43.7648 13.9612 2.55894 -43.7648 13.1761 
17.7631 -43.7648 10.3701 11.0098 -43.7648 11.9535 19.4606 -43.1877 10.3701 
27.9115 -39.5513 10.3701 36.3623 -35.398 10.3701 -42.6833 -35.314 10.3701 
-48.1461 -29.8662 10.3701 -39.6953 -35.314 12.8185 -31.2444 -35.314 15.7351 
-22.7936 -35.314 17.8603 -14.3428 -35.314 17.4225 -5.8919 -35.314 17.3475 
2.55894 -35.314 16.7339 11.0098 -35.314 16.375 19.4606 -35.314 15.6461 
27.9115 -35.314 13.4205 36.4852 -35.314 10.3701 36.3623 -35.314 10.4525 
44.8132 -29.0053 10.3701 -50.7951 -26.8631 10.3701 -48.1461 -26.8631 12.7271 
-39.6953 -26.8631 16.3096 -31.2444 -26.8631 17.6437 -22.7936 -26.8631 18.7103 
-14.3428 -26.8631 18.5514 -5.8919 -26.8631 18.6523 2.55894 -26.8631 18.459 
11.0098 -26.8631 18.3136 19.4606 -26.8631 18.425 27.9115 -26.8631 17.0882 
36.3623 -26.8631 15.2292 47.2995 -26.8631 10.3701 44.8132 -26.8631 12.2061 
53.264 -20.863 10.3701 -56.313 -18.4123 10.3701 -56.597 -17.8592 10.3701 
-48.1461 -18.4123 15.5151 -39.6953 -18.4123 18.7617 -22.7936 -18.4123 18.6641 
-14.3428 -18.4123 18.6742 27.9115 -18.4123 18.7893 36.3623 -18.4123 17.9944 
44.8132 -18.4123 15.9188 55.296 -18.4123 10.3701 53.264 -18.4123 12.1239 
-59.4396 -9.96144 10.3701 -56.597 -9.96144 13.1116 -48.1461 -9.96144 17.2792 
[...]
POINT_DATA 556
SCALARS ImageScalars float
LOOKUP_TABLE default
0 0 0 0 0 0 0 0 0 
0 0 0 0 0 0 0 0 0 
0 0 0 0 0 0 0 0 0 
0 0 0 0 0 0 0 0 0 
0 0 0 0 0 0 0 0 0 
0 0 0 0 0 0 0 0 0 
0 0 0 0 0 0 0 0 0 
0 0 0 0 0 0 0 0 0 
0 0 0 0 0 0 0 0 0 
0 0 0 0 0 0 0 0 0 
0 0 0 0 0 0 0 0 0 
0 0 0 0 0 0 0 0 0 
0 0 0 0 0 0 0 0 0 
0 0 0 0 0 0 0 0 0 
0 0 0 0 0 0 0 0 0 
0 0 0 0 0 0 0 0 0 
0 0 0 0 0 0 0 0 0 
0 0 0 0 0 0 0 0 0 
0 0 0 0 0 0 0 0 0 
0 0 0 0 0 0 0 0 0 
0 0 0 0 0 0 0 0 0 
0 0 0 0 0 0 0 0 0 
0 0 0 0 0 0 0 0 0 
0 0 0 0 0 0 0 0 0 
0 0 0 0 0 0 0 0 0 
0 0 0 0 0 0 0 0 0 
0 0 0 0 0 0 0 0 0 
0 0 0 0 0 0 0 0 0 
0 0 0 0 0 0 0 0 0 
0 0 0 0 0 0 0 0 0 
0 0 0 0 0 0 0 0 0 
0 0 0 0 0 0 0 0 0 
0 0 0 0 0 0 0 0 0 
0 0 0 0 0 0 0 0 0 
0 0 0 0 0 0 0 0 0 
0 0 0 0 0 0 0 0 0 
0 0 0 0 0 0 0 0 0 
0 0 0 0 0 0 0 0 0 
0 0 0 0 0 0 0 0 0 
0 0 0 0 0 0 0 0 0 
0 0 0 0 0 0 0 0 0 
0 0 0 0 0 0 0 0 0 
0 0 0 0 0 0 0 0 0 
0 0 0 0 0 0 0 0 0 
0 0 0 0 0 0 0 0 0 
0 0 0 0 0 0 0 0 0 
0 0 0 0 0 0 0 0 0 
0 0 0 0 0 0 0 0 0 
0 0 0 0 0 0 0 0 0 
0 0 0 0 0 0 0 0 0 
0 0 0 0 0 0 0 0 0 
0 0 0 0 0 0 0 0 0 
0 0 0 0 0 0 0 0 0 
0 0 0 0 0 0 0 0 0 
0 0 0 0 0 0 0 0 0 
0 0 0 0 0 0 0 0 0 
0 0 0 0 0 0 0 0 0 
0 0 0 0 0 0 0 0 0 
0 0 0 0 0 0 0 0 0 
0 0 0 0 0 0 0 0 0 
0 0 0 0 0 0 0 0 0 
0 0 0 0 0 0 0 
NORMALS Normals float
-0.211322 -0.341723 -0.915734 -0.0790964 -0.299838 -0.950705 0.039781 -0.271701 -0.961559 
0.113641 -0.254327 -0.960418 -0.215623 -0.291844 -0.931844 -0.123892 -0.214575 -0.968818 
-0.0253455 -0.102664 -0.994393 0.0439275 -0.0893507 -0.995031 0.0686918 -0.151967 -0.985996 
0.0687109 -0.185672 -0.980206 0.104349 -0.309522 -0.94515 0.197222 -0.40856 -0.891169 
-0.177373 -0.324572 -0.929081 -0.140573 -0.240787 -0.960344 -0.129293 -0.119348 -0.984398 
-0.0257724 -0.0908024 -0.995535 0.046563 -0.0701152 -0.996452 -0.00630829 -0.133643 -0.991009 
0.0178946 -0.191066 -0.981414 0.00377798 -0.0555996 -0.998446 0.00667731 -0.147618 -0.989022 
0.0917072 -0.25173 -0.963443 0.201629 -0.35394 -0.913276 -0.243653 -0.273907 -0.930381 
-0.0808273 -0.219576 -0.972241 -0.0259994 -0.125153 -0.991797 -0.0610295 0.000264138 -0.998136 
-0.0800887 0.0033241 -0.996782 -0.0769714 -0.139213 -0.987267 -0.101518 -0.114371 -0.988238 
0.188537 -0.178035 -0.965794 0.107826 0.0472006 -0.993049 -0.100062 -0.0337336 -0.994409 
-0.0421422 -0.12034 -0.991838 0.152922 -0.156865 -0.975709 0.406382 -0.180975 -0.895601 
-0.494354 -0.141294 -0.857701 -0.207516 -0.132006 -0.969284 -0.0280773 -0.12217 -0.992112 
0.0838988 -0.0717309 -0.993889 0.0190942 0.00206189 -0.999816 -0.177308 0.0945661 -0.979602 
-0.0446731 -0.0347482 -0.998397 -0.00741763 0.0598262 -0.998181 0.21148 0.153098 -0.965317 
0.0619311 0.0190283 -0.997899 -0.165748 -0.0344656 -0.985566 -0.0341524 -0.0581261 -0.997725 
0.123683 -0.0203055 -0.992114 0.3667 -0.0771587 -0.927134 -0.482579 0.0636915 -0.873534 
-0.256746 0.0421044 -0.965561 -0.0174141 0.0135166 -0.999757 0.0989733 -0.0282176 -0.99469 
0.0959132 -0.025788 -0.995056 -0.116951 0.083978 -0.989581 -0.107348 0.165942 -0.980275 
0.0700413 0.0744954 -0.994759 0.130711 0.158738 -0.97863 -0.0351124 -0.0863313 -0.995648 
-0.175893 -0.039185 -0.983629 -0.0253961 -0.0247298 -0.999372 0.134327 -0.0102578 -0.990884 
0.361917 0.0803485 -0.928741 -0.257295 0.210822 -0.943055 -0.0939546 0.126634 -0.98749 
0.0461335 0.113421 -0.992475 0.122827 0.0405764 -0.991598 0.0273232 0.0489744 -0.998426 
-0.0760776 0.172982 -0.981982 -0.00311769 0.116045 -0.993239 -0.00232946 0.0379289 -0.999278 
-0.103418 -0.0613943 -0.992741 -0.0978369 -0.00206121 -0.9952 -0.0104501 0.102602 -0.994668 
0.225329 0.152991 -0.962196 0.476816 0.292929 -0.828758 -0.358773 0.383442 -0.851031 
-0.126981 0.323398 -0.937704 0.00177457 0.24301 -0.970022 0.0379632 0.17395 -0.984022 
0.0208272 0.11544 -0.993096 -0.0467651 0.108162 -0.993033 -0.0591636 0.110413 -0.992123 
-0.0552769 0.0468075 -0.997373 -0.0793678 0.0885378 -0.992906 -0.0179797 0.163966 -0.986302 
0.130368 0.233154 -0.963661 0.340691 0.397673 -0.85193 -0.108525 0.45536 -0.883668 
-0.0244387 0.35208 -0.935651 -0.0313334 0.259938 -0.965117 -0.0832572 0.234897 -0.968448 
-0.0624932 0.220864 -0.9733 -0.0209389 0.252992 -0.967242 0.00797571 0.282782 -0.959151 
0.0568444 0.404885 -0.912599 0.259632 0.546895 -0.795925 -0.366776 -0.637342 -0.677695 
-0.217494 -0.36736 -0.904291 -0.267054 -0.573048 -0.774789 -0.0843009 -0.419153 -0.903993 
-0.0945912 -0.576285 -0.811756 0.00969228 -0.41303 -0.910666 -0.00683643 -0.568947 -0.822346 
0.124363 -0.366964 -0.921885 0.150874 -0.577525 -0.80231 0.348214 -0.685312 -0.639605 
-0.369995 -0.51926 -0.770372 -0.230765 -0.361561 -0.903339 -0.252137 -0.350367 -0.902036 
-0.307346 -0.446544 -0.84032 0.174134 -0.343998 -0.922682 0.174172 -0.345239 -0.922212 
0.180456 -0.354224 -0.917584 0.165252 -0.396359 -0.903101 0.255535 -0.526561 -0.810824 
0.205371 -0.419466 -0.884235 0.403154 -0.699258 -0.590344 -0.506117 -0.657196 -0.558515 
-0.194683 -0.353667 -0.914887 -0.31363 -0.513909 -0.798457 -0.222942 -0.353463 -0.908494 
-0.202317 -0.348977 -0.915032 -0.231904 -0.396132 -0.888425 0.213841 -0.424838 -0.87965 
0.276213 -0.446351 -0.851162 0.371423 -0.579312 -0.725563 -0.687331 -0.569016 -0.45144 
-0.222692 -0.365233 -0.903888 -0.281734 -0.373091 -0.883985 -0.317777 -0.439891 -0.839949 
0.368397 -0.43932 -0.819318 0.433675 -0.402727 -0.806063 0.468979 -0.495259 -0.731285 
-0.415015 -0.282965 -0.864693 -0.504396 -0.180575 -0.84438 -0.562935 -0.324561 -0.760109 
0.554003 -0.200292 -0.808061 0.848375 -0.236557 -0.473603 -0.521851 -0.147536 -0.840181 
-0.952405 -0.0879952 -0.291859 0.57953 -0.0775254 -0.811255 0.794357 -0.0756714 -0.60272 
-0.541739 0.0684404 -0.837756 -0.524548 0.190901 -0.829703 0.631823 0.114483 -0.766612 
0.807689 0.154123 -0.569109 -0.496962 0.282109 -0.820636 -0.599227 0.322691 -0.732665 
0.555887 0.317234 -0.768344 0.523348 0.386745 -0.759299 0.871898 0.390416 -0.295583 
-0.405348 0.401146 -0.821447 -0.758626 0.550362 -0.348695 -0.375608 0.425503 -0.823326 
-0.203097 0.474835 -0.856319 0.478398 0.445222 -0.75691 0.414357 0.495249 -0.763569 
0.648891 0.558385 -0.516863 -0.555369 0.728045 -0.401891 -0.122604 0.465341 -0.876599 
-0.258436 0.569156 -0.780559 -0.111388 0.462181 -0.879762 -0.0493938 0.394829 -0.917426 
-0.0443651 0.311572 -0.949186 -0.0813959 0.346379 -0.934557 -0.0467762 0.406222 -0.912576 
-0.00565011 0.460071 -0.887864 0.0730743 0.515219 -0.853937 0.142729 0.553414 -0.820586 
0.331179 0.584349 -0.740848 0.279553 0.619982 -0.733125 0.510842 0.719653 -0.470255 
-0.262984 0.777094 -0.571808 -0.190251 0.662162 -0.724808 -0.115742 0.562024 -0.818983 
-0.0752966 0.52377 -0.848526 -0.0354091 0.521461 -0.85254 0.0154517 0.577083 -0.816539 
0.133075 0.669003 -0.73125 0.293748 0.843855 -0.449022 -0.367877 -0.657729 -0.657312 
-0.258735 -0.805064 -0.533786 -0.0682836 -0.868625 -0.490742 -0.0438295 -0.998202 0.0408784 
0.0493302 -0.888051 -0.45709 0.0930856 -0.993564 0.0645389 0.182425 -0.885564 -0.427197 
0.352482 -0.831239 -0.429883 -0.379857 -0.64849 -0.659674 -0.425277 -0.611131 -0.667577 
-0.510771 -0.798616 -0.318317 0.398148 -0.795303 -0.457133 0.400895 -0.784046 -0.473873 
0.444881 -0.887293 -0.121622 0.454951 -0.782581 -0.424956 -0.507761 -0.658492 -0.555488 
-0.444812 -0.607118 -0.658445 -0.446227 -0.631848 -0.633758 -0.517549 -0.699168 -0.493261 
0.4817 -0.775949 -0.407269 0.511636 -0.771739 -0.377688 -0.509236 -0.658258 -0.554413 
-0.69023 -0.580812 -0.431555 0.642756 -0.694612 -0.323078 0.65037 -0.68884 -0.320183 
0.695545 -0.717282 -0.0415083 -0.69714 -0.573557 -0.430149 0.816899 -0.513569 -0.262531 
0.866227 -0.424684 -0.263238 -0.857131 -0.375735 -0.352349 -0.953763 -0.101215 -0.283004 
0.920869 -0.260758 -0.289835 -0.955724 -0.0867123 -0.2812 -0.964444 -0.0303065 -0.262543 
0.952375 -0.0703021 -0.296714 -0.968297 0.139492 -0.207228 0.940259 0.184029 -0.286438 
-0.908913 0.370344 -0.191632 0.880649 0.393082 -0.26447 0.873979 0.409563 -0.261569 
-0.795222 0.559274 -0.234168 -0.770423 0.592236 -0.23602 0.754563 0.609006 -0.244432 
0.694217 0.683618 -0.225232 -0.612485 0.735502 -0.289655 -0.5772 0.757468 -0.305092 
-0.396406 0.829179 -0.394113 0.409256 0.885304 -0.220786 0.595922 0.774779 -0.211173 
0.531661 0.818377 -0.218164 -0.336646 0.826762 -0.450704 -0.286532 0.821846 -0.492411 
-0.207242 0.825367 -0.525186 -0.14324 0.829516 -0.539801 -0.106799 0.833016 -0.542843 
0.0244088 0.874417 -0.484561 0.15711 0.890857 -0.426251 0.24309 0.908684 -0.339412 
0.367882 0.900267 -0.232768 0.316425 0.913804 -0.25463 -0.188892 0.97984 -0.06507 
-0.102046 0.951177 -0.291287 0.0504451 0.945718 -0.32105 -0.0428711 -0.996731 0.0684782 
0.0941892 -0.991677 0.0877835 -0.517701 -0.844708 -0.135848 -0.360547 -0.928382 -0.0900672 
-0.0595516 -0.996319 0.0616618 -0.167151 -0.985745 0.0191574 -0.0410659 -0.995541 0.0849262 
0.101924 -0.990728 0.0898325 0.0951804 -0.990316 0.101067 0.232698 -0.962458 0.139738 
0.342581 -0.927354 0.150512 0.440785 -0.892067 0.0996239 -0.54409 -0.826604 -0.143846 
-0.589868 -0.787914 -0.17677 0.260639 -0.739381 0.620792 0.454716 -0.884477 0.104566 
0.437489 -0.87736 0.197086 0.525835 -0.840871 0.128192 -0.632731 -0.760021 -0.148388 
-0.663309 -0.740323 -0.109288 0.575325 -0.804783 0.146029 0.588785 -0.793003 0.156457 
0.690844 -0.696999 0.192165 -0.73558 -0.675643 -0.0492808 -0.797083 -0.603869 0.000638524 
0.695316 -0.692882 0.190922 0.688257 -0.692726 0.215482 -0.864546 -0.500853 0.0413089 
-0.723495 -0.406401 0.558026 0.835451 -0.50498 0.216834 0.874018 -0.434264 0.217963 
-0.942207 -0.287108 0.172672 -0.974732 -0.0824819 0.20759 0.941031 -0.280174 0.18964 
0.838045 -0.294336 0.459398 -0.977475 -0.032498 0.208535 -0.971649 0.0359876 0.233672 
-0.969131 -0.0281891 0.24493 0.979742 -0.0733638 0.186343 0.789235 -0.0912293 0.607278 
-0.936092 0.20863 0.283204 0.964881 0.178902 0.192352 0.802674 0.162567 0.573835 
-0.880897 0.39016 0.267947 -0.607088 0.379299 0.698266 0.895538 0.40942 0.174317 
0.879306 0.441756 0.177969 0.876582 0.412197 0.248391 -0.795801 0.529803 0.293275 
-0.784379 0.549056 0.288595 -0.782631 0.524296 0.335564 0.750275 0.636704 0.17803 
0.682264 0.707857 0.182903 0.649917 0.576115 0.495681 -0.679344 0.698217 0.225797 
-0.651153 0.724732 0.225306 -0.626494 0.682638 0.376179 -0.517059 0.843319 0.146503 
0.413577 0.886052 0.20944 0.584138 0.787042 0.198361 0.537199 0.819721 0.198682 
0.514937 0.761579 0.393494 -0.507645 0.850572 0.137198 -0.379585 0.923638 0.0529962 
-0.259637 0.965689 0.00579682 0.256321 0.966317 0.0230351 0.340114 0.933532 0.113318 
0.401614 0.896633 0.186429 0.392286 0.904762 0.165886 0.385365 0.84459 0.3717 
-0.192067 0.980021 -0.0516672 -0.189641 0.980387 -0.0536431 -0.190779 0.980997 -0.0353326 
-0.0828112 0.995837 -0.0381003 -0.0602132 0.946265 0.317738 0.239773 0.970622 0.0200538 
0.0929701 0.995665 0.00279442 0.101147 0.93753 0.332875 -0.417357 -0.78324 0.460813 
-0.242343 -0.809279 0.535105 -0.0768962 -0.774167 0.628293 0.03616 -0.737507 0.674371 
0.119209 -0.686285 0.717497 0.178303 -0.675853 0.715144 -0.421345 -0.781463 0.460201 
-0.558279 -0.694076 0.454514 -0.416852 -0.777534 0.470823 -0.178901 -0.662925 0.726997 
-0.00378485 -0.546156 0.837675 0.053233 -0.531632 0.845301 0.107687 -0.532998 0.839236 
0.231282 -0.699406 0.676269 0.150701 -0.607924 0.779563 0.245063 -0.700874 0.669866 
0.325893 -0.653894 0.682801 0.424225 -0.659393 0.620673 -0.589169 -0.66319 0.461583 
-0.641887 -0.579861 0.501739 -0.498158 -0.592068 0.633478 -0.266117 -0.373459 0.888656 
-0.0961095 -0.205735 0.973877 0.027055 -0.238514 0.970762 0.0392858 -0.260471 0.964682 
0.0557911 -0.284771 0.956971 0.0570548 -0.330253 0.942167 0.155793 -0.398625 0.903785 
0.258734 -0.510212 0.820208 0.425315 -0.658771 0.620587 0.422905 -0.656853 0.624256 
0.492528 -0.60219 0.628318 -0.666005 -0.530281 0.524633 -0.575867 -0.474039 0.666081 
-0.26514 -0.30372 0.915126 -0.136913 -0.183405 0.973456 -0.0578717 -0.0418435 0.997447 
0.00326638 -0.0717244 0.997419 0.00520689 -0.11918 0.992859 0.0195946 -0.12963 0.991369 
0.00225986 -0.147949 0.988992 0.0689565 -0.176806 0.981827 0.173435 -0.286921 0.942124 
0.257872 -0.396309 0.881159 0.506637 -0.584175 0.634081 0.455711 -0.542635 0.705603 
0.580718 -0.49649 0.645185 -0.703461 -0.393677 0.591744 -0.711 -0.378541 0.592609 
-0.426156 -0.245183 0.87079 -0.18842 -0.139852 0.97208 0.0197806 0.00412646 0.999796 
-0.046863 -0.0783087 0.995827 0.0604159 -0.143998 0.987732 0.156944 -0.240526 0.95787 
0.313798 -0.317297 0.894904 0.623565 -0.43417 0.650125 0.554094 -0.432804 0.711098 
-0.757428 -0.16388 0.632017 -0.640937 -0.146067 0.753568 -0.296761 -0.0947679 0.950238 
-0.117492 -0.0151698 0.992958 -0.0417462 -0.0355298 0.998496 0.156583 0.0438364 0.986692 
0.227568 -0.21566 0.949581 0.680513 -0.275145 0.679115 0.492745 -0.223787 0.840905 
-0.689144 0.0302479 0.723993 -0.561538 0.0420167 0.826383 -0.29359 0.057423 0.954205 
0.0153227 -0.103642 0.994497 0.0423227 0.0697086 0.996669 0.774154 -0.0917567 0.626311 
0.462509 -0.0618095 0.884457 -0.687287 0.163853 0.707664 -0.581974 0.303962 0.754263 
-0.596365 0.18872 0.780214 -0.32343 0.120651 0.938529 -0.160849 0.0755387 0.984084 
0.168355 0.0890791 0.981693 -0.0722458 -0.082158 0.993997 0.786632 0.159842 0.596373 
0.467045 0.0838886 0.880245 -0.53576 0.348062 0.769295 -0.432025 0.233261 0.871174 
-0.219577 0.157149 0.962855 0.0267286 0.0576261 0.99798 -0.0695236 -0.0440905 0.996606 
0.263106 0.241644 0.934015 0.699366 0.371401 0.610695 0.627807 0.525566 0.574142 
0.541837 0.312107 0.780386 -0.580379 0.393356 0.713044 -0.526807 0.46003 0.714735 
-0.495046 0.381676 0.780546 -0.330351 0.265096 0.905865 -0.22805 0.171811 0.958371 
0.20668 0.29606 0.932541 0.609963 0.550233 0.570254 0.473795 0.670743 0.570634 
0.410495 0.446734 0.794936 -0.507802 0.540389 0.670907 -0.515197 0.558586 0.650042 
-0.492126 0.493854 0.716882 -0.29803 0.342802 0.890879 -0.206278 0.272468 0.939793 
0.151314 0.326417 0.933036 0.360957 0.764335 0.534324 0.229479 0.477288 0.848254 
0.438925 0.702969 0.559624 0.390071 0.72708 0.564977 0.363341 0.650387 0.667069 
-0.419393 0.723805 0.54792 -0.403369 0.739413 0.539038 -0.401235 0.715426 0.571994 
-0.30391 0.787088 0.536779 -0.274093 0.621347 0.734031 -0.193239 0.863009 0.46677 
-0.16746 0.49871 0.850438 -0.0472996 0.887561 0.458256 -0.037343 0.399302 0.916058 
0.101464 0.842678 0.528771 0.098849 0.437809 0.893617 0.260811 0.819134 0.51088 
0.208603 0.541789 0.814217 0.350204 0.772177 0.530188 0.335203 0.7691 0.544172 
0.301847 0.695 0.652582 -0.0134552 -0.106587 0.994212 -0.000338962 -0.132084 0.991238 
0.026969 -0.060707 0.997791 1.32648e-05 -0.065748 0.997836 0.0305012 -0.0830043 0.996082 
-0.147445 -0.130697 0.980397 0.0137729 -0.0402763 0.999094 0.00503606 -0.0947374 0.99549 
-0.0422655 -0.0985067 0.994238 -0.0640745 -0.0871178 0.994135 -0.0214842 -0.187451 0.982039 
0.14017 0.0351523 0.989503 0.0320832 -0.0199784 0.999286 -0.00018506 -0.0486724 0.998815 
0.0537966 -0.129447 0.990126 0.00799577 -0.0301737 0.999513 0.0566226 -0.139496 0.988602 
0.113315 -0.192334 0.974765 -0.105156 -0.0160214 0.994327 -0.118375 -0.00832348 0.992934 
-0.0252208 -0.0320681 0.999167 0.00829328 -0.0250129 0.999653 -0.064193 -0.0512832 0.996619 
-0.0573334 -0.0375228 0.99765 -0.203714 -0.156612 0.966423 0.155997 0.042511 0.986842 
0.0907534 -0.0828124 0.992424 0.14173 0.0330281 0.989354 -0.00889509 -0.0724625 0.997332 
-0.0197708 0.070071 0.997346 -0.0295362 0.0698583 0.99712 -0.0420423 -0.0259058 0.99878 
0.172899 -0.192422 0.965961 0.0699025 -0.144422 0.987044 0.219964 -0.173739 0.959912 
-0.140239 0.0289956 0.989693 -0.133764 0.0398582 0.990211 -0.121163 0.0256303 0.992302 
-0.0135057 0.0073305 0.999882 -0.0938259 -0.0416634 0.994716 -0.0955714 -0.0107144 0.995365 
0.0615351 -0.0531887 0.996687 0.170223 0.114956 0.978677 0.0203686 -0.0654306 0.997649 
0.0412894 -0.0716884 0.996572 0.0468394 0.0583755 0.997195 0.149591 0.0856768 0.985029 
0.053948 0.0179979 0.998382 -0.0979396 0.0156327 0.99507 -0.155794 -0.0050905 0.987776 
-0.0204014 -0.0439649 0.998825 0.279682 -0.0762539 0.95706 0.210309 -0.0799565 0.97436 
-0.0926965 0.0346534 0.995091 -0.0592532 0.0164104 0.998108 -0.0758486 -0.0209608 0.996899 
-0.0542429 0.0384457 0.997787 0.00241967 0.078597 0.996904 0.160765 0.0822361 0.983561 
0.0534098 0.048038 0.997417 0.0848774 0.043617 0.995436 -0.117966 -0.0563053 0.99142 
-0.0609794 -0.101466 0.992968 -0.154164 -0.0302145 0.987583 -0.00493529 0.0388269 0.999234 
0.288303 0.0680895 0.955115 0.249787 0.205597 0.946222 0.202159 0.0568636 0.9777 
-0.131515 0.0774168 0.988287 -0.14897 0.0940033 0.984363 -0.10724 0.0502888 0.992961 
-0.0808571 -0.0177061 0.996568 0.0210169 0.00363422 0.999772 0.106801 0.0392039 0.993507 
0.147973 0.0274846 0.988609 0.0266241 -0.02047 0.999436 -0.0679788 -0.0521438 0.996323 
-0.0650632 -0.0428717 0.99696 -0.0574995 -0.106706 0.992627 -0.0346761 0.00786425 0.999368 
0.219133 0.209883 0.952854 0.199569 0.285351 0.937415 0.0649173 0.102239 0.992639 
-0.183592 0.13137 0.974185 -0.175669 0.190182 0.965904 -0.12634 0.078654 0.988864 
-0.00503745 0.048096 0.99883 0.0667015 -0.00382494 0.997766 0.0263671 -0.0588236 0.99792 
-0.026549 -0.0333804 0.99909 0.0681788 0.194006 0.978628 -0.0162766 0.0633217 0.99786 
0.196642 0.287323 0.937431 0.0955859 0.246709 0.964364 0.0553855 0.167742 0.984274 
-0.151783 0.239202 0.959033 -0.0953149 0.276244 0.956349 -0.0593825 0.193552 0.979291 
0.0140356 0.198519 0.979997 0.0404547 0.113123 0.992757 0.0115368 0.135902 0.990655 
-0.0015685 0.0920964 0.995749 0.0927535 0.23299 0.968046 0.0790901 0.227582 0.970542 
0.0533644 0.175705 0.982995 
