# vtk DataFile Version 4.2
vtk output
ASCII
DATASET POLYDATA
POINTS 542 float
-0.362008 -36.9773 -14.2686 7.50927 -36.9773 -16.1896 15.3805 -36.9773 -16.4005 
23.2518 -36.9773 -16.1632 31.1231 -36.9773 -16.1946 -31.8471 -29.106 -15.3023 
-23.9758 -29.106 -16.302 -16.1046 -29.106 -15.4901 -8.23328 -29.106 -15.8064 
-0.362008 -29.106 -16.6846 7.50927 -29.106 -17.5985 15.3805 -29.106 -18.4141 
23.2518 -29.106 -18.43 31.1231 -29.106 -18.5265 38.9944 -29.106 -17.4488 
46.8656 -29.106 -14.2735 -39.7184 -21.2347 -15.8442 -31.8471 -21.2347 -17.2129 
-23.9758 -21.2347 -17.926 -16.1046 -21.2347 -17.3651 -8.23328 -21.2347 -16.4326 
-0.362008 -21.2347 -17.3904 7.50927 -21.2347 -17.6355 15.3805 -21.2347 -18.1696 
23.2518 -21.2347 -18.7847 31.1231 -21.2347 -19.8776 38.9944 -21.2347 -18.856 
46.8656 -21.2347 -16.8568 -47.5897 -13.3635 -15.595 -39.7184 -13.3635 -17.5633 
-31.8471 -13.3635 -17.9656 -23.9758 -13.3635 -17.9364 -16.1046 -13.3635 -17.4219 
-8.23328 -13.3635 -16.602 -0.362008 -13.3635 -18.2027 7.50927 -13.3635 -17.2912 
15.3805 -13.3635 -17.3604 23.2518 -13.3635 -18.5558 31.1231 -13.3635 -19.2043 
38.9944 -13.3635 -18.8817 46.8656 -13.3635 -16.5578 -47.5897 -5.49218 -15.8316 
-39.7184 -5.49218 -17.5224 -31.8471 -5.49218 -18.0514 -23.9758 -5.49218 -17.1805 
-16.1046 -5.49218 -16.5107 -8.23328 -5.49218 -17.9355 -0.362008 -5.49218 -17.5454 
7.50927 -5.49218 -19.0736 15.3805 -5.49218 -18.2425 23.2518 -5.49218 -17.6426 
31.1231 -5.49218 -17.918 38.9944 -5.49218 -17.7726 46.8656 -5.49218 -16.7489 
-47.5897 2.3791 -15.9641 -39.7184 2.3791 -17.3977 -31.8471 2.3791 -17.5534 
-23.9758 2.3791 -16.8975 -16.1046 2.3791 -16.6751 -8.23328 2.3791 -20.5241 
-0.362008 2.3791 -17.1739 7.50927 2.3791 -18.712 15.3805 2.3791 -18.3369 
23.2518 2.3791 -16.1564 31.1231 2.3791 -16.7117 38.9944 2.3791 -16.3464 
46.8656 2.3791 -15.3762 -47.5897 10.2504 -15.364 -39.7184 10.2504 -16.9652 
-31.8471 10.2504 -17.3962 -23.9758 10.2504 -17.3731 -16.1046 10.2504 -17.6077 
-8.23328 10.2504 -21.0252 -0.362008 10.2504 -19.215 7.50927 10.2504 -17.5348 
15.3805 10.2504 -16.5893 23.2518 10.2504 -15.27 31.1231 10.2504 -15.2987 
38.9944 10.2504 -15.3052 46.8656 10.2504 -14.7836 -39.7184 18.1216 -14.3398 
-31.8471 18.1216 -16.0726 -23.9758 18.1216 -16.8296 -16.1046 18.1216 -17.6606 
-8.23328 18.1216 -18.5668 -0.362008 18.1216 -17.8378 7.50927 18.1216 -16.9874 
15.3805 18.1216 -16.382 23.2518 18.1216 -14.943 31.1231 18.1216 -14.0728 
-23.9758 25.9929 -15.1629 -16.1046 25.9929 -16.5346 -8.23328 25.9929 -17.1822 
-0.362008 25.9929 -17.293 7.50927 25.9929 -17.0753 15.3805 25.9929 -16.1694 
23.2518 25.9929 -13.9143 -8.23328 33.8642 -14.4973 -0.362008 33.8642 -15.0299 
7.50927 33.8642 -15.0735 15.3805 33.8642 -14.0553 -0.362008 -37.6891 -13.747 
7.50927 -40.8264 -13.747 15.3805 -41.3816 -13.747 15.3805 -44.8485 -6.75789 
23.2518 -40.1213 -13.747 31.1231 -39.6664 -13.747 -31.8471 -31.6562 -13.747 
-31.8471 -36.9773 -8.37711 -23.9758 -34.1353 -13.747 -23.9758 -36.9773 -10.4222 
-16.1046 -32.4972 -13.747 -16.1046 -36.9773 -9.88498 -2.14014 -36.9773 -13.747 
-8.23328 -33.2882 -13.747 -8.23328 -36.9773 -10.5586 36.8934 -36.9773 -13.747 
38.9944 -35.2471 -13.747 38.9944 -36.9773 -10.9546 46.8656 -29.5243 -13.747 
-47.5897 -29.106 -6.9415 -38.9937 -29.106 -13.747 -39.7184 -28.5799 -13.747 
-39.7184 -29.106 -13.5451 47.2791 -29.106 -13.747 -46.1296 -21.2347 -13.747 
-47.5897 -19.7831 -13.747 -47.5897 -21.2347 -13.1739 51.5227 -21.2347 -13.747 
54.7369 -21.2347 -6.73018 -51.0498 -13.3635 -13.747 -55.4609 -13.3635 -10.3604 
52.2315 -13.3635 -13.747 54.7369 -13.3635 -11.8662 -52.612 -5.49218 -13.747 
-55.4609 -5.49218 -12.4487 54.0889 -5.49218 -13.747 54.7369 -5.49218 -13.4664 
62.6082 -5.49218 -6.20786 -63.3322 2.3791 -6.10704 -53.2139 2.3791 -13.747 
-55.4609 2.3791 -12.777 52.5361 2.3791 -13.747 54.7369 2.3791 -13.1257 
62.6082 2.3791 -7.71983 -51.0622 10.2504 -13.747 -55.4609 10.2504 -11.2433 
-47.5897 14.6856 -13.747 38.9944 15.3203 -13.747 49.5752 10.2504 -13.747 
46.8656 13.0206 -13.747 54.7369 10.2504 -11.4853 62.6082 10.2504 -6.89272 
-41.9807 18.1216 -13.747 -47.5897 18.1216 -12.284 -39.7184 19.4626 -13.747 
-31.8471 24.0972 -13.747 33.25 18.1216 -13.747 31.1231 19.5103 -13.747 
38.9944 18.1216 -12.9135 46.8656 18.1216 -11.5924 54.7369 18.1216 -9.70859 
-39.7184 25.9929 -10.5535 -29.0379 25.9929 -13.747 -31.8471 25.9929 -12.8253 
-23.9758 28.96 -13.747 -16.1046 32.5494 -13.747 24.0485 25.9929 -13.747 
23.2518 26.7036 -13.747 31.1231 25.9929 -11.9751 38.9944 25.9929 -9.01427 
46.8656 25.9929 -6.24805 -31.8471 33.8642 -6.98715 -23.9758 33.8642 -10.6087 
-12.6185 33.8642 -13.747 -16.1046 33.8642 -13.036 -8.23328 34.941 -13.747 
-0.362008 35.7116 -13.747 7.50927 35.8633 -13.747 16.5729 33.8642 -13.747 
15.3805 34.3463 -13.747 23.2518 33.8642 -11.3836 -8.23328 41.7355 -6.1459 
-0.362008 41.7355 -6.15579 7.50927 41.7355 -6.29208 15.3805 -45.1204 -5.8757 
-31.8471 -38.3522 -5.8757 -23.9758 -39.0829 -5.8757 -16.1046 -39.2874 -5.8757 
-8.23328 -39.4718 -5.8757 -0.362008 -41.9814 -5.8757 12.1135 -44.8485 -5.8757 
7.50927 -44.4384 -5.8757 17.823 -44.8485 -5.8757 15.3805 -44.8485 -5.3286 
23.2518 -44.1687 -5.8757 31.1231 -42.0851 -5.8757 38.9944 -38.818 -5.8757 
-47.5897 -30.112 -5.8757 -35.9235 -36.9773 -5.8757 -39.7184 -35.4799 -5.8757 
31.1231 -36.9773 1.46634 42.2036 -36.9773 -5.8757 38.9944 -36.9773 -1.8887 
46.8656 -32.6801 -5.8757 -48.6434 -29.106 -5.8757 49.7321 -29.106 -5.8757 
46.8656 -29.106 -2.02731 54.7369 -21.8072 -5.8757 -55.2269 -21.2347 -5.8757 
-55.4609 -20.8437 -5.8757 -55.4609 -21.2347 -5.07557 55.0912 -21.2347 -5.8757 
54.7369 -21.2347 -5.2482 -60.5759 -13.3635 -5.8757 59.1446 -13.3635 -5.8757 
62.6082 -5.95963 -5.8757 -63.1216 -5.49218 -5.8757 -63.3322 -1.41755 -5.8757 
-63.3322 -5.49218 -1.85311 62.8102 -5.49218 -5.8757 62.6082 -5.49218 -0.212839 
-63.4827 2.3791 -5.8757 -63.3322 3.1402 -5.8757 63.7793 2.3791 -5.8757 
-61.5094 10.2504 -5.8757 -55.4609 18.0361 -5.8757 63.4465 10.2504 -5.8757 
62.6082 12.4945 -5.8757 -55.3923 18.1216 -5.8757 -55.4609 18.1216 -5.73601 
-47.5897 25.4485 -5.8757 59.4142 18.1216 -5.8757 54.7369 21.9901 -5.8757 
-46.7897 25.9929 -5.8757 -47.5897 25.9929 -4.81555 -39.7184 31.1268 -5.8757 
31.1231 33.7151 -5.8757 38.9944 29.7209 -5.8757 47.3911 25.9929 -5.8757 
46.8656 26.257 -5.8757 -34.1085 33.8642 -5.8757 -39.7184 33.8642 1.39237 
-31.8471 34.8746 -5.8757 -23.9758 38.5941 -5.8757 -16.1046 40.9553 -5.8757 
15.3805 41.3152 -5.8757 30.9302 33.8642 -5.8757 23.2518 38.5439 -5.8757 
31.1231 33.8642 -5.58774 -9.83072 41.7355 -5.8757 -16.1046 41.7355 -3.84608 
-8.23328 41.9026 -5.8757 -0.362008 41.888 -5.8757 10.3672 41.7355 -5.8757 
7.50927 41.9567 -5.8757 15.3805 41.7355 1.25394 -31.8471 -38.1071 1.99557 
-23.9758 -38.3473 1.99557 -16.1046 -37.8295 1.99557 -8.23328 -37.1507 1.99557 
-0.362008 -38.9377 1.99557 7.50927 -41.1374 1.99557 15.3805 -40.4614 1.99557 
23.2518 -39.5163 1.99557 -47.5897 -31.5201 1.99557 -36.5445 -36.9773 1.99557 
-39.7184 -36.1364 1.99557 -31.8471 -36.9773 4.86743 -23.9758 -36.9773 5.44036 
-16.1046 -36.9773 3.67462 -8.23328 -36.9773 2.25878 -0.362008 -36.9773 4.22037 
7.50927 -36.9773 5.64384 15.3805 -36.9773 5.47975 29.794 -36.9773 1.99557 
23.2518 -36.9773 3.89123 31.1231 -36.4169 1.99557 38.9944 -33.5556 1.99557 
-50.247 -29.106 1.99557 -55.4609 -23.4953 1.99557 -47.5897 -29.106 6.64426 
23.2518 -29.106 8.95036 31.1231 -29.106 7.35205 42.9361 -29.106 1.99557 
38.9944 -29.106 4.41395 46.8656 -25.4552 1.99557 -57.1647 -21.2347 1.99557 
-55.4609 -21.2347 5.22784 38.9944 -21.2347 8.40516 50.276 -21.2347 1.99557 
46.8656 -21.2347 4.86056 54.7369 -15.8488 1.99557 -61.8888 -13.3635 1.99557 
-63.3322 -6.41066 1.99557 46.8656 -13.3635 9.23296 56.5128 -13.3635 1.99557 
54.7369 -13.3635 3.98291 -63.4851 -5.49218 1.99557 -63.3322 -5.49218 2.29493 
62.4921 -5.49218 1.99557 54.7369 -5.49218 8.98472 62.6082 -5.03368 1.99557 
-64.5393 2.3791 1.99557 -63.3322 7.24508 1.99557 -63.3322 2.3791 4.26516 
63.8999 2.3791 1.99557 62.6082 2.3791 4.22432 -62.5947 10.2504 1.99557 
64.718 10.2504 1.99557 62.6082 17.0743 1.99557 62.6082 10.2504 5.7624 
-58.6695 18.1216 1.99557 -55.4609 22.2408 1.99557 -55.4609 18.1216 8.87501 
62.1684 18.1216 1.99557 54.7369 24.8285 1.99557 -51.6714 25.9929 1.99557 
-47.5897 29.5024 1.99557 38.9944 32.5826 1.99557 52.8462 25.9929 1.99557 
46.8656 29.0868 1.99557 -40.086 33.8642 1.99557 -39.7184 34.0556 1.99557 
-39.7184 33.8642 2.84336 -31.8471 37.8859 1.99557 -23.9758 41.1442 1.99557 
23.2518 40.0513 1.99557 36.3567 33.8642 1.99557 31.1231 36.7005 1.99557 
-22.0254 41.7355 1.99557 -16.1046 43.3799 1.99557 -16.1046 41.7355 9.58364 
-8.23328 43.6233 1.99557 -8.23328 41.7355 9.44102 -0.362008 42.7356 1.99557 
-0.362008 41.7355 5.31179 7.50927 42.2096 1.99557 7.50927 41.7355 3.30234 
15.5693 41.7355 1.99557 15.3805 41.7741 1.99557 15.3805 41.7355 2.11386 
-39.7184 -31.8511 9.86684 -31.8471 -34.6656 9.86684 -23.9758 -34.9001 9.86684 
-16.1046 -33.186 9.86684 -8.23328 -31.9174 9.86684 -0.362008 -31.9886 9.86684 
7.50927 -31.2089 9.86684 15.3805 -29.2114 9.86684 -44.3942 -29.106 9.86684 
-47.5897 -26.4858 9.86684 -39.7184 -29.106 12.8155 -31.8471 -29.106 15.3229 
-23.9758 -29.106 15.6687 -16.1046 -29.106 14.2241 -8.23328 -29.106 13.1327 
-0.362008 -29.106 12.9556 7.50927 -29.106 11.5245 15.8376 -29.106 9.86684 
15.3805 -29.106 9.92432 23.2518 -27.4568 9.86684 31.1231 -24.5262 9.86684 
-51.9224 -21.2347 9.86684 -55.4609 -15.948 9.86684 -47.5897 -21.2347 13.5653 
-39.7184 -21.2347 16.9243 7.50927 -21.2347 15.7046 15.3805 -21.2347 14.3851 
23.2518 -21.2347 13.4428 35.272 -21.2347 9.86684 31.1231 -21.2347 11.4869 
38.9944 -18.4253 9.86684 -56.8114 -13.3635 9.86684 -55.4609 -13.3635 11.11 
-47.5897 -13.3635 15.2154 7.50927 -13.3635 17.1413 31.1231 -13.3635 15.3226 
45.5003 -13.3635 9.86684 38.9944 -13.3635 12.4884 46.8656 -12.1851 9.86684 
-59.0335 -5.49218 9.86684 -55.4609 -5.49218 13.0182 -47.5897 -5.49218 16.0239 
38.9944 -5.49218 15.7992 53.2127 -5.49218 9.86684 46.8656 -5.49218 13.2361 
[...]
POINT_DATA 542
SCALARS ImageScalars float
LOOKUP_TABLE default
0 0 0 0 0 0 0 0 0 
0 0 0 0 0 0 0 0 0 
0 0 0 0 0 0 0 0 0 
0 0 0 0 0 0 0 0 0 
0 0 0 0 0 0 0 0 0 
0 0 0 0 0 0 0 0 0 
0 0 0 0 0 0 0 0 0 
0 0 0 0 0 0 0 0 0 
0 0 0 0 0 0 0 0 0 
0 0 0 0 0 0 0 0 0 
0 0 0 0 0 0 0 0 0 
0 0 0 0 0 0 0 0 0 
0 0 0 0 0 0 0 0 0 
0 0 0 0 0 0 0 0 0 
0 0 0 0 0 0 0 0 0 
0 0 0 0 0 0 0 0 0 
0 0 0 0 0 0 0 0 0 
0 0 0 0 0 0 0 0 0 
0 0 0 0 0 0 0 0 0 
0 0 0 0 0 0 0 0 0 
0 0 0 0 0 0 0 0 0 
0 0 0 0 0 0 0 0 0 
0 0 0 0 0 0 0 0 0 
0 0 0 0 0 0 0 0 0 
0 0 0 0 0 0 0 0 0 
0 0 0 0 0 0 0 0 0 
0 0 0 0 0 0 0 0 0 
0 0 0 0 0 0 0 0 0 
0 0 0 0 0 0 0 0 0 
0 0 0 0 0 0 0 0 0 
0 0 0 0 0 0 0 0 0 
0 0 0 0 0 0 0 0 0 
0 0 0 0 0 0 0 0 0 
0 0 0 0 0 0 0 0 0 
0 0 0 0 0 0 0 0 0 
0 0 0 0 0 0 0 0 0 
0 0 0 0 0 0 0 0 0 
0 0 0 0 0 0 0 0 0 
0 0 0 0 0 0 0 0 0 
0 0 0 0 0 0 0 0 0 
0 0 0 0 0 0 0 0 0 
0 0 0 0 0 0 0 0 0 
0 0 0 0 0 0 0 0 0 
0 0 0 0 0 0 0 0 0 
0 0 0 0 0 0 0 0 0 
0 0 0 0 0 0 0 0 0 
0 0 0 0 0 0 0 0 0 
0 0 0 0 0 0 0 0 0 
0 0 0 0 0 0 0 0 0 
0 0 0 0 0 0 0 0 0 
0 0 0 0 0 0 0 0 0 
0 0 0 0 0 0 0 0 0 
0 0 0 0 0 0 0 0 0 
0 0 0 0 0 0 0 0 0 
0 0 0 0 0 0 0 0 0 
0 0 0 0 0 0 0 0 0 
0 0 0 0 0 0 0 0 0 
0 0 0 0 0 0 0 0 0 
0 0 0 0 0 0 0 0 0 
0 0 0 0 0 0 0 0 0 
0 0 
NORMALS Normals float
0.272487 0.518642 0.810408 0.137824 0.403767 0.904421 0.001436 0.413137 0.910668 
-0.0160168 0.525346 0.850738 -0.143776 0.589114 0.795156 0.17038 0.381779 0.908414 
0.00770727 0.341559 0.939829 -0.0348903 0.343753 0.938412 0.0742152 0.248772 0.965715 
0.110106 0.186932 0.976183 0.103425 0.0885451 0.990688 0.0530485 0.113357 0.992137 
0.00789592 0.139964 0.990125 -0.052853 0.233479 0.970924 -0.210825 0.318071 0.924329 
-0.624698 0.607054 0.49116 0.218739 0.237156 0.946525 0.124464 0.149928 0.980832 
0.0092179 0.103323 0.994605 -0.0970965 0.114057 0.988718 0.0021207 0.0469673 0.998894 
0.0763291 0.092629 0.992771 0.0492478 -0.0193575 0.998599 0.0738661 -0.0653262 0.995126 
0.108461 0.00675982 0.994078 0.000194504 0.0522462 0.998634 -0.193786 0.0777842 0.977955 
-0.43749 0.0686559 0.896598 0.361849 0.128206 0.923379 0.158471 0.098792 0.982409 
0.0220671 0.0523445 0.998385 -0.0344181 -0.0471604 0.998294 -0.0853422 -0.0548782 0.994839 
0.0450393 0.0880031 0.995101 0.0451444 0.0135216 0.998889 -0.0518982 0.0883209 0.994739 
0.0826775 0.00409474 0.996568 0.116157 -0.0731835 0.990531 0.0208159 -0.122259 0.99228 
-0.160167 -0.0681712 0.984733 -0.357066 -0.00803472 0.934044 0.278927 0.0235799 0.960023 
0.129274 -0.010073 0.991558 -0.0225967 -0.0271962 0.999375 -0.094667 -0.0664947 0.993286 
0.0393718 -0.0477573 0.998083 0.0705189 0.221013 0.972718 0.0768898 -0.0622203 0.995096 
0.0387928 0.0975033 0.994479 -0.0914863 0.0607775 0.99395 -0.0204165 -0.154666 0.987756 
0.00816992 -0.155077 0.987869 -0.0701656 -0.157921 0.984956 -0.196952 -0.0746379 0.977568 
0.257695 -0.0308258 0.965734 0.0942415 -0.0330215 0.995002 -0.0325666 -0.0401147 0.998664 
-0.0559274 0.0127465 0.998353 0.184367 0.0715854 0.980247 0.0880049 0.20162 0.975502 
-0.0992513 0.11907 0.987913 0.0609761 -0.107178 0.992368 -0.182659 -0.115654 0.97635 
-0.0727471 -0.147301 0.986413 0.0129909 -0.16481 0.98624 -0.0797961 -0.149099 0.985597 
-0.178356 -0.117154 0.976967 0.312699 -0.200198 0.928515 0.132082 -0.174017 0.975844 
0.0243067 -0.0972558 0.994963 0.0131475 -0.00542188 0.999899 0.205854 0.0613284 0.976659 
0.117106 -0.137041 0.983619 -0.217763 0.0101182 0.975949 -0.157483 -0.102199 0.982219 
-0.145394 -0.103126 0.983985 -0.0799228 -0.0773873 0.993793 0.00221612 -0.160751 0.986993 
-0.0355788 -0.214594 0.976055 -0.217627 -0.21561 0.95192 0.230722 -0.353485 0.90654 
0.142154 -0.256935 0.955917 0.0999633 -0.135662 0.985699 0.111404 -0.0675739 0.991475 
0.0106825 -0.217413 0.976021 -0.100655 -0.114355 0.988328 -0.0920058 -0.0278484 0.995369 
-0.127104 -0.0263173 0.99154 -0.146065 -0.0842214 0.985683 -0.130178 -0.193396 0.972446 
0.211218 -0.326801 0.921188 0.122177 -0.25984 0.957891 0.0470811 -0.242236 0.969074 
-0.00676623 -0.170427 0.985347 -0.0723539 -0.11777 0.990402 -0.192078 -0.138527 0.971554 
-0.248892 -0.178994 0.951848 0.111373 -0.485556 0.867082 0.0348739 -0.463554 0.885382 
-0.0598011 -0.437833 0.897065 -0.185756 -0.439298 0.878927 0.28938 0.559372 0.776764 
0.176335 0.656373 0.733539 -0.0292936 0.67536 0.736906 -0.0158914 0.999615 -0.022734 
-0.0887741 0.676313 0.731246 -0.226604 0.778598 0.58518 0.208133 0.510989 0.834009 
0.232598 0.892084 0.387407 0.0371397 0.581244 0.812881 0.0563028 0.858369 0.509934 
-0.0334035 0.498732 0.866112 0.0082386 0.869893 0.493171 0.260495 0.564625 0.783161 
0.138329 0.496892 0.856717 0.191339 0.849134 0.492302 -0.431689 0.734497 0.523602 
-0.488758 0.687995 0.53645 -0.512687 0.811961 0.279053 -0.629545 0.634517 0.448398 
0.618346 0.645572 0.448202 0.343606 0.456798 0.820531 0.352823 0.446792 0.822127 
0.364227 0.468318 0.804995 -0.64152 0.62125 0.450001 0.358866 0.38794 0.848951 
0.385625 0.370639 0.844938 0.405262 0.431077 0.806186 -0.686128 0.227189 0.691096 
-0.868639 0.495443 0.00149534 0.460432 0.160818 0.873006 0.639425 0.281463 0.715481 
-0.543629 0.0848516 0.835026 -0.709441 0.229363 0.666398 0.415429 0.0725035 0.906731 
0.524504 0.12487 0.842202 -0.504764 0.0350195 0.862547 -0.539444 0.052533 0.840381 
-0.916057 0.267977 0.298375 0.905712 -0.0812001 0.416043 0.407728 -0.0518154 0.911632 
0.492509 -0.0678437 0.867659 -0.298093 -0.115595 0.947512 -0.370477 -0.121931 0.920804 
-0.883195 0.0186828 0.468635 0.410146 -0.2087 0.88782 0.559429 -0.266977 0.784706 
0.30765 -0.323888 0.894677 -0.103483 -0.295377 0.94976 -0.284204 -0.199852 0.937703 
-0.196106 -0.267223 0.943469 -0.436194 -0.19454 0.878572 -0.808353 -0.230315 0.541775 
0.253336 -0.372792 0.892663 0.33166 -0.437466 0.835838 0.241967 -0.384028 0.891053 
0.22739 -0.412824 0.881969 -0.134989 -0.233834 0.96286 -0.155261 -0.225622 0.961763 
-0.143932 -0.341981 0.928619 -0.178777 -0.397133 0.90018 -0.455881 -0.488764 0.743829 
0.324208 -0.568596 0.756035 0.236579 -0.415118 0.878469 0.253766 -0.470432 0.84516 
0.239911 -0.415536 0.877367 0.177662 -0.477982 0.860215 -0.250636 -0.199238 0.947357 
-0.261374 -0.205236 0.943166 -0.276323 -0.405212 0.871463 -0.265284 -0.582952 0.767978 
-0.37885 -0.780573 0.49717 0.354001 -0.722917 0.593359 0.291469 -0.60906 0.737626 
0.155747 -0.507592 0.847404 0.191652 -0.535594 0.82244 0.111534 -0.529375 0.841024 
0.0392989 -0.550129 0.834154 -0.0539822 -0.537132 0.841769 -0.215307 -0.446296 0.868598 
-0.188461 -0.461344 0.866974 -0.405816 -0.532821 0.742573 0.0511161 -0.90596 0.420267 
0.00482235 -0.941994 0.335594 -0.0338977 -0.953439 0.299674 -0.0133893 0.995319 -0.095715 
0.20091 0.950457 0.237206 0.0598347 0.985474 0.158934 0.0255407 0.98579 0.166032 
0.172336 0.978834 0.110386 0.318843 0.946911 0.0412217 0.0749979 0.995346 -0.0605198 
0.198388 0.980107 -0.00568767 -0.0657711 0.994859 -0.0770033 -0.0165151 0.991321 -0.13042 
-0.18774 0.981827 -0.027748 -0.3229 0.941205 -0.0993386 -0.46149 0.885415 -0.0553778 
0.620288 0.685709 0.380849 0.304143 0.910817 0.279123 0.414141 0.850315 0.324734 
-0.22178 0.668456 -0.709916 -0.548656 0.834273 -0.0544449 -0.43093 0.822274 -0.371704 
-0.70927 0.695178 -0.116891 0.63899 0.663698 0.388839 -0.781405 0.612129 -0.12126 
-0.671424 0.626078 -0.396506 -0.856138 0.513156 -0.060817 0.783675 0.509955 0.354682 
0.784566 0.505943 0.358439 0.798962 0.520588 0.301077 -0.860405 0.505989 -0.0606451 
-0.853552 0.511583 -0.0986509 0.814372 0.405017 0.415644 -0.902897 0.414766 0.112896 
-0.921995 0.279101 0.268381 0.919222 0.132707 0.370703 0.922044 0.0208577 0.386522 
0.988172 0.144343 0.0517848 -0.92111 0.271129 0.279368 -0.904162 0.387679 -0.179431 
0.912022 -0.0810586 0.402052 0.909764 -0.108093 0.400806 -0.943882 0.0433179 0.327429 
0.829676 -0.363663 0.423541 0.700213 -0.567694 0.432927 -0.845666 -0.213048 0.489345 
-0.807581 -0.314746 0.498746 0.699085 -0.569118 0.432879 0.703684 -0.570644 0.423314 
0.521622 -0.699835 0.487999 -0.663065 -0.545828 0.512267 -0.521504 -0.672743 0.524834 
0.512542 -0.704249 0.491258 0.540052 -0.727626 0.422971 0.402079 -0.748477 0.527365 
-0.456608 -0.698048 0.551578 -0.356229 -0.737885 0.57326 -0.391801 -0.785827 0.478506 
-0.382812 -0.791078 0.477127 0.369313 -0.759049 0.536146 0.45782 -0.885948 0.0741393 
0.36555 -0.756457 0.542352 0.316016 -0.802043 0.506815 0.165134 -0.858235 0.485967 
-0.188275 -0.932262 0.308934 -0.458816 -0.700557 0.546542 -0.384306 -0.822232 0.419812 
-0.460885 -0.712124 0.529589 0.0717784 -0.903737 0.422028 0.160086 -0.92032 0.356908 
0.0490182 -0.911827 0.407637 0.00332065 -0.947195 0.32064 -0.0886805 -0.954398 0.285063 
-0.0335359 -0.96081 0.275173 -0.134337 -0.98622 -0.0965569 0.125039 0.971159 -0.203018 
-0.0171994 0.974094 -0.225489 -0.0656119 0.940864 -0.332371 0.048056 0.895263 -0.442939 
0.202575 0.811181 -0.548589 0.0752882 0.801322 -0.593477 -0.0702955 0.755645 -0.651199 
-0.185323 0.68724 -0.702393 0.610819 0.779862 -0.136808 0.264569 0.947538 -0.179374 
0.369863 0.914251 -0.16537 0.128769 0.945809 -0.298099 -0.0425643 0.929957 -0.365195 
-0.0894823 0.918639 -0.384832 0.042366 0.892273 -0.449504 0.145635 0.786821 -0.599752 
0.0547004 0.651997 -0.756246 -0.0939688 0.613235 -0.784291 -0.211278 0.640708 -0.738143 
-0.207372 0.604969 -0.768771 -0.214871 0.637499 -0.739882 -0.378744 0.594866 -0.709005 
0.667167 0.733219 -0.131445 0.789022 0.600195 -0.131189 0.597607 0.693491 -0.402413 
-0.1304 0.501312 -0.855384 -0.249097 0.515423 -0.819933 -0.473039 0.518986 -0.711961 
-0.379557 0.459299 -0.803107 -0.542803 0.523115 -0.657051 0.830684 0.545727 -0.110211 
0.761779 0.548673 -0.344457 -0.347803 0.43695 -0.829523 -0.613372 0.48033 -0.626943 
-0.494962 0.454829 -0.740367 -0.675818 0.515663 -0.526651 0.899152 0.383666 -0.210537 
0.958981 0.169989 -0.226845 -0.424861 0.440303 -0.790966 -0.696738 0.527995 -0.485569 
-0.629598 0.51215 -0.584216 0.963788 0.144285 -0.224264 0.960516 0.144756 -0.237601 
-0.838428 0.410821 -0.358139 -0.519776 0.445204 -0.729127 -0.848308 0.3952 -0.352407 
0.984061 -0.05565 -0.168897 0.958892 -0.220448 -0.178689 0.949411 -0.0493983 -0.310127 
-0.955935 0.137186 -0.259554 -0.905019 0.158363 -0.394793 0.932705 -0.321698 -0.16301 
-0.979953 -0.100613 -0.171955 -0.859223 -0.485186 -0.162266 -0.903782 -0.099503 -0.416266 
0.831016 -0.554377 -0.045588 0.748652 -0.662685 -0.019208 0.688673 -0.48677 -0.537386 
-0.827337 -0.540914 -0.151409 -0.622856 -0.781191 -0.0423134 0.657958 -0.752799 0.0196125 
0.580849 -0.813084 0.0388435 -0.41654 -0.908284 0.0389223 -0.56467 -0.82508 -0.0197472 
-0.420999 -0.90695 0.014224 0.464129 -0.884895 0.0393137 0.459917 -0.887027 0.0407318 
0.463733 -0.885927 -0.0091825 0.414073 -0.908424 0.0575255 0.326271 -0.944634 0.034839 
-0.305537 -0.949192 -0.0753803 -0.425942 -0.904198 0.03162 -0.436673 -0.899537 -0.0122472 
0.28158 -0.95897 0.0330137 0.146815 -0.988769 0.0279622 0.108703 -0.898638 -0.425009 
-0.0398152 -0.999069 -0.0165881 -0.0832185 -0.909507 -0.407273 -0.0888422 -0.991684 -0.0931083 
-0.114296 -0.963407 -0.242455 -0.0607407 -0.984784 -0.162821 -0.0635473 -0.97386 -0.21808 
-0.132119 -0.982187 -0.133616 -0.128015 -0.982544 -0.134981 -0.127678 -0.98184 -0.140316 
0.371356 0.71666 -0.590334 0.141998 0.834193 -0.532877 -0.0777926 0.811892 -0.578602 
-0.147773 0.780668 -0.607223 -0.060809 0.785477 -0.615896 -0.0258883 0.7336 -0.679088 
-0.0989957 0.578312 -0.809787 -0.131086 0.486419 -0.863836 0.479961 0.643665 -0.596098 
0.556021 0.558627 -0.615448 0.366164 0.615901 -0.69756 0.125781 0.528791 -0.83938 
-0.0516131 0.585238 -0.809217 -0.120806 0.651019 -0.749387 -0.0611479 0.706721 -0.704845 
-0.0778132 0.680095 -0.728983 -0.155163 0.558463 -0.814889 -0.131212 0.486655 -0.863684 
-0.131976 0.48585 -0.864021 -0.133096 0.497918 -0.85695 -0.261601 0.460424 -0.848277 
0.601017 0.455258 -0.656901 0.636499 0.386277 -0.667577 0.534108 0.361735 -0.764118 
0.277226 0.236763 -0.931176 -0.218958 0.296483 -0.9296 -0.127816 0.469961 -0.873384 
-0.16073 0.506172 -0.847323 -0.313877 0.430976 -0.846015 -0.273754 0.432122 -0.859261 
-0.337435 0.422374 -0.841271 0.675272 0.320206 -0.664437 0.620456 0.326425 -0.713078 
0.392066 0.130993 -0.910563 -0.0628189 0.171075 -0.983253 -0.313257 0.372081 -0.873742 
-0.398489 0.431438 -0.809363 -0.318372 0.397046 -0.86081 -0.410534 0.429414 -0.804404 
0.731079 0.104339 -0.674267 0.536242 0.0813825 -0.840132 0.316221 0.0695124 -0.946135 
-0.263693 0.303422 -0.915642 -0.478058 0.432293 -0.76458 -0.355794 0.358651 -0.863006 
-0.511067 0.395867 -0.762955 0.67612 -0.0267564 -0.736306 0.553107 -0.0225014 -0.832806 
0.288776 0.00956338 -0.957349 -0.222507 0.144045 -0.964231 -0.319491 0.174223 -0.931435 
-0.63852 0.201169 -0.742848 -0.487324 0.183353 -0.853754 0.735044 -0.18812 -0.651399 
0.660797 -0.421824 -0.620815 0.583743 -0.161953 -0.795623 0.329417 -0.0495167 -0.942885 
-0.292384 0.057918 -0.954545 -0.679504 -0.0821179 -0.729062 -0.515455 -0.0477429 -0.855586 
0.645816 -0.457069 -0.611563 0.46026 -0.284204 -0.841064 -0.343562 -0.256611 -0.903391 
-0.643675 -0.401961 -0.651238 -0.600115 -0.475878 -0.642964 -0.579765 -0.380996 -0.720218 
0.597023 -0.608243 -0.523072 0.585778 -0.616711 -0.525862 0.571231 -0.597912 -0.562313 
0.446464 -0.751765 -0.485304 0.37373 -0.478812 -0.794396 -0.258378 -0.442454 -0.858764 
-0.393322 -0.765562 -0.509129 -0.323056 -0.573785 -0.752599 -0.4658 -0.711592 -0.525991 
-0.443742 -0.73369 -0.51458 -0.439552 -0.709885 -0.550325 0.427558 -0.777954 -0.460414 
0.395409 -0.793136 -0.463236 0.368058 -0.705231 -0.605956 0.301285 -0.853627 -0.424911 
0.249367 -0.538442 -0.80492 0.106933 -0.889728 -0.44379 0.130683 -0.497922 -0.857319 
-0.0844154 -0.898081 -0.431654 -0.147005 -0.866678 -0.476717 -0.137706 -0.595099 -0.791766 
-0.080119 -0.837382 -0.540714 -0.1101 -0.644346 -0.756767 -0.0938601 -0.827101 -0.55416 
-0.0928098 -0.662519 -0.743273 -0.247468 -0.81353 -0.52624 -0.221174 -0.693566 -0.6856 
-0.317499 -0.806493 -0.498761 -0.314929 -0.80599 -0.501199 -0.313543 -0.802534 -0.507573 
0.13491 0.306266 -0.942338 -0.0204401 0.408501 -0.912529 -0.0819807 0.381635 -0.92067 
-0.0354687 0.343414 -0.938514 -0.139665 0.329352 -0.933821 0.209823 0.228673 -0.950622 
0.25723 0.0751848 -0.963421 0.139961 0.238004 -0.961127 -0.0036587 0.257806 -0.96619 
-0.0738544 0.302381 -0.950322 -0.0341021 0.304449 -0.951918 -0.155109 0.291981 -0.943763 
-0.141963 0.29302 -0.945508 0.0441942 0.35299 -0.934583 -0.156424 0.384003 -0.909985 
0.258828 0.0672447 -0.96358 0.256693 0.0666672 -0.964191 0.165767 0.0240336 -0.985872 
0.0256781 0.0491543 -0.998461 -0.0595213 0.114429 -0.991647 -0.0625941 0.16465 -0.984364 
-0.0898932 0.168179 -0.981649 -0.147049 0.166966 -0.974935 0.0174069 0.283452 -0.958828 
-0.0510549 0.20272 -0.977905 0.0619994 0.339802 -0.938451 -0.180094 0.369882 -0.911457 
-0.155081 0.365776 -0.917692 -0.250313 0.237025 -0.938703 0.212177 0.0245624 -0.976922 
0.194055 0.0192929 -0.980801 0.132368 -0.0387739 -0.990442 0.0898179 -0.0516169 -0.99462 
0.044336 0.0510786 -0.99771 0.0181896 0.179797 -0.983536 -0.144369 0.149779 -0.978123 
-0.0352818 0.250412 -0.967496 0.0735406 0.170021 -0.982692 -0.133874 0.126927 -0.982836 
-0.243443 0.230077 -0.942231 -0.241401 0.220468 -0.94505 0.193443 0.000475295 -0.981111 
0.171962 -0.00158476 -0.985102 0.0924293 -7.6629e-05 -0.995719 0.118125 -0.0188082 -0.992821 
0.169732 0.0349439 -0.984871 0.0247006 0.0900266 -0.995633 -0.0675006 0.0908832 -0.993571 
-0.0277891 0.239036 -0.970613 -0.0564824 0.11301 -0.991987 -0.109315 0.054915 -0.992489 
-0.2186 0.140701 -0.965617 -0.164418 0.102626 -0.981037 -0.220866 0.123144 -0.967499 
0.20508 -0.00539761 -0.97873 0.183868 -0.00553727 -0.982935 0.114231 0.0105888 -0.993398 
0.123564 0.0391248 -0.991565 0.156214 0.00952798 -0.987677 0.0754683 0.0132037 -0.997061 
0.00590373 0.0844685 -0.996409 -0.0187844 0.0642744 -0.997755 -0.111161 0.0545882 -0.992302 
-0.146447 0.0221866 -0.98897 -0.148577 0.0112015 -0.988837 -0.230639 0.0352101 -0.972402 
-0.208881 0.013316 -0.97785 0.232087 -0.194047 -0.953143 0.210655 -0.210633 -0.954598 
0.196281 -0.184312 -0.963069 0.146148 -0.0840716 -0.985684 0.120992 -0.0491937 -0.991434 
0.138484 -0.0518816 -0.989005 0.101744 -0.0570403 -0.993174 -0.0143176 -0.0770896 -0.996921 
-0.0569275 -0.138496 -0.988726 -0.100883 -0.137422 -0.985362 -0.155457 -0.123099 -0.980143 
-0.223733 -0.338451 -0.913999 -0.17287 -0.168772 -0.970377 -0.181652 -0.234679 -0.954949 
-0.162296 -0.246708 -0.955403 -0.158613 -0.23463 -0.959057 0.263526 -0.332547 -0.90552 
0.260317 -0.338546 -0.904224 0.256119 -0.325293 -0.910268 0.18282 -0.358488 -0.915458 
0.144925 -0.246 -0.958374 0.130585 -0.463997 -0.876159 0.144155 -0.209076 -0.967216 
0.0477115 -0.253076 -0.966269 -0.12874 -0.54738 -0.826922 -0.0761246 -0.317971 -0.94504 
-0.100723 -0.505677 -0.856823 -0.0788176 -0.368929 -0.92611 -0.0862002 -0.493585 -0.865415 
-0.0885155 -0.372529 -0.92379 -0.212147 -0.39603 -0.893394 -0.178444 -0.421637 -0.889033 
-0.174336 -0.363915 -0.914971 0.0699227 -0.507105 -0.859043 -0.0677317 -0.551491 -0.831427 
-0.0181224 -0.545555 -0.837879 -0.0155562 -0.524503 -0.851267 
