# vtk DataFile Version 4.2
vtk output
ASCII
DATASET POLYDATA
POINTS 560 float
4.60463 9.24686 -20.2351 -3.80974 -41.2393 -12.3777 4.60463 -41.2393 -14.0169 
13.019 -41.2393 -14.5928 21.4334 -41.2393 -13.5301 -45.8816 -32.825 -14.0423 
-37.4672 -32.825 -14.9795 -29.0528 -32.825 -15.0649 -20.6385 -32.825 -14.2685 
-12.2241 -32.825 -14.246 -3.80974 -32.825 -15.2742 4.60463 -32.825 -16.6683 
13.019 -32.825 -17.1355 21.4334 -32.825 -16.9115 29.8477 -32.825 -15.4504 
38.2621 -32.825 -12.173 -54.2959 -24.4106 -13.777 -45.8816 -24.4106 -16.3258 
-37.4672 -24.4106 -17.2699 -29.0528 -24.4106 -16.9386 -20.6385 -24.4106 -16.1911 
-12.2241 -24.4106 -15.2942 -3.80974 -24.4106 -16.4436 4.60463 -24.4106 -17.1984 
13.019 -24.4106 -17.9253 21.4334 -24.4106 -18.1622 29.8477 -24.4106 -16.9056 
38.2621 -24.4106 -15.3231 -62.7103 -15.9962 -13.0423 -54.2959 -15.9962 -16.4982 
-45.8816 -15.9962 -17.5113 -37.4672 -15.9962 -17.9547 -29.0528 -15.9962 -17.808 
-20.6385 -15.9962 -16.3241 -12.2241 -15.9962 -14.9287 -3.80974 -15.9962 -17.438 
4.60463 -15.9962 -16.618 13.019 -15.9962 -17.6071 21.4334 -15.9962 -18.1883 
29.8477 -15.9962 -16.2581 38.2621 -15.9962 -15.0803 46.6765 -15.9962 -13.9551 
-62.7103 -7.58187 -14.56 -54.2959 -7.58187 -18.7779 -45.8816 -7.58187 -18.3077 
-37.4672 -7.58187 -17.9341 -29.0528 -7.58187 -17.0718 -20.6385 -7.58187 -15.4578 
-12.2241 -7.58187 -13.6606 -3.80974 -7.58187 -19.8084 4.60463 -7.58187 -16.2149 
13.019 -7.58187 -18.2075 21.4334 -7.58187 -17.2497 29.8477 -7.58187 -15.8875 
38.2621 -7.58187 -15.6606 46.6765 -7.58187 -15.0577 55.0908 -7.58187 -13.1385 
-62.7103 0.832494 -13.889 -54.2959 0.832494 -17.3961 -45.8816 0.832494 -18.7704 
-37.4672 0.832494 -18.1823 -29.0528 0.832494 -17.0283 -20.6385 0.832494 -15.5408 
-12.2241 0.832494 -17.1304 -3.80974 0.832494 -17.327 4.60463 8.3639 -19.9657 
4.60463 0.832494 -16.9378 13.019 0.832494 -19.341 21.4334 0.832494 -15.8157 
29.8477 0.832494 -16.4411 38.2621 0.832494 -16.5345 46.6765 0.832494 -16.3807 
55.0908 0.832494 -15.3449 63.5052 0.832494 -13.4921 -62.7103 9.24686 -14.7146 
-54.2959 9.24686 -17.2065 -45.8816 9.24686 -18.7466 -37.4672 9.24686 -18.7015 
-29.0528 9.24686 -17.899 -20.6385 9.24686 -17.0472 -12.2241 9.24686 -16.8002 
3.99305 9.24686 -19.9657 -3.80974 9.24686 -16.4127 5.16217 9.24686 -19.9657 
4.60463 10.2298 -19.9657 13.019 9.24686 -15.3951 21.4334 9.24686 -16.2424 
29.8477 9.24686 -17.3266 38.2621 9.24686 -18.0893 46.6765 9.24686 -18.1393 
55.0908 9.24686 -18.1795 63.5052 9.24686 -13.8449 -62.7103 17.6612 -13.4123 
-54.2959 17.6612 -18.4418 -45.8816 17.6612 -18.4446 -37.4672 17.6612 -18.9848 
-29.0528 17.6612 -18.6593 -20.6385 17.6612 -18.2659 -12.2241 17.6612 -17.0915 
-3.80974 17.6612 -16.7215 4.60463 17.6612 -17.9522 13.019 17.6612 -15.9253 
21.4334 17.6612 -16.4882 29.8477 17.6612 -17.8948 38.2621 17.6612 -18.4829 
46.6765 17.6612 -18.2484 55.0908 17.6612 -19.5994 63.5052 17.6612 -13.3929 
-54.2959 26.0756 -15.3945 -45.8816 26.0756 -17.3325 -37.4672 26.0756 -19.5996 
-29.0528 26.0756 -18.8966 -20.6385 26.0756 -18.4924 -12.2241 26.0756 -18.0566 
-3.80974 26.0756 -18.2119 4.60463 26.0756 -17.616 13.019 26.0756 -16.2934 
21.4334 26.0756 -16.0782 29.8477 26.0756 -16.9741 38.2621 26.0756 -17.0898 
46.6765 26.0756 -16.6952 55.0908 26.0756 -13.7751 -54.2959 34.49 -12.4491 
-45.8816 34.49 -15.7831 -37.4672 34.49 -16.9016 -29.0528 34.49 -18.3839 
-20.6385 34.49 -18.1758 -12.2241 34.49 -17.9845 -3.80974 34.49 -17.4564 
4.60463 34.49 -16.2642 13.019 34.49 -14.8566 21.4334 34.49 -13.746 
29.8477 34.49 -13.7815 38.2621 34.49 -12.4728 46.6765 34.49 -12.3283 
-37.4672 42.9043 -14.0719 -29.0528 42.9043 -14.6622 -20.6385 42.9043 -15.7208 
-12.2241 42.9043 -15.9089 -3.80974 42.9043 -14.841 4.60463 42.9043 -12.7114 
-3.80974 -42.4479 -11.5513 4.60463 -44.7289 -11.5513 4.60463 -49.6537 -3.29402 
13.019 -45.4244 -11.5513 13.019 -49.6537 -3.43037 21.4334 -43.7117 -11.5513 
-45.8816 -35.9126 -11.5513 -45.8816 -41.2393 -3.6376 -37.4672 -37.7842 -11.5513 
-37.4672 -41.2393 -8.18111 -29.0528 -38.8219 -11.5513 -29.0528 -41.2393 -9.44259 
-20.6385 -38.2141 -11.5513 -20.6385 -41.2393 -9.83196 -8.24282 -41.2393 -11.5513 
-12.2241 -39.5382 -11.5513 -12.2241 -41.2393 -10.6569 27.9607 -41.2393 -11.5513 
29.8477 -40.1951 -11.5513 29.8477 -41.2393 -10.591 38.2621 -33.9329 -11.5513 
38.2621 -41.2393 -4.27313 -51.1407 -32.825 -11.5513 -54.2959 -29.1537 -11.5513 
-54.2959 -32.825 -9.09484 39.9359 -32.825 -11.5513 46.6765 -32.825 -8.53385 
-58.7736 -24.4106 -11.5513 -62.7103 -19.9997 -11.5513 -62.7103 -24.4106 -8.67293 
46.3348 -24.4106 -11.5513 46.6765 -23.7865 -11.5513 46.6765 -24.4106 -11.3783 
55.0908 -24.4106 -8.60244 -64.6102 -15.9962 -11.5513 53.2566 -15.9962 -11.5513 
55.0908 -13.5659 -11.5513 55.0908 -15.9962 -10.9219 63.5052 -15.9962 -7.49041 
-66.6003 -7.58187 -11.5513 61.3852 -7.58187 -11.5513 63.5052 -5.97736 -11.5513 
63.5052 -7.58187 -10.8785 71.9196 -7.58187 -4.72186 -66.0645 0.832494 -11.5513 
-71.1247 0.832494 -3.92957 66.5035 0.832494 -11.5513 71.9196 0.832494 -6.74094 
-66.5978 9.24686 -11.5513 68.7508 9.24686 -11.5513 71.9196 9.24686 -9.47311 
-64.9091 17.6612 -11.5513 -62.7103 23.3032 -11.5513 66.0234 17.6612 -11.5513 
63.5052 22.3987 -11.5513 71.9196 17.6612 -3.70364 -60.7651 26.0756 -11.5513 
-62.7103 26.0756 -8.68997 59.6082 26.0756 -11.5513 55.0908 29.2425 -11.5513 
63.5052 26.0756 -7.83052 -55.4189 34.49 -11.5513 -54.2959 35.5777 -11.5513 
-45.8816 40.9301 -11.5513 13.019 40.7033 -11.5513 21.4334 37.9859 -11.5513 
29.8477 37.6334 -11.5513 38.2621 35.4656 -11.5513 48.3635 34.49 -11.5513 
46.6765 35.2556 -11.5513 -43.3182 42.9043 -11.5513 -45.8816 42.9043 -7.7325 
-37.4672 45.3301 -11.5513 -29.0528 47.0049 -11.5513 -20.6385 48.9584 -11.5513 
-12.2241 49.0366 -11.5513 -3.80974 47.3095 -11.5513 8.57626 42.9043 -11.5513 
4.60463 44.3268 -11.5513 13.019 42.9043 -9.69722 21.4334 42.9043 -6.59502 
-20.6385 51.3187 -4.53363 -12.2241 51.3187 -5.94075 4.60463 -49.7157 -3.13696 
13.019 -49.7552 -3.13696 -45.8816 -41.5445 -3.13696 -37.4672 -44.3782 -3.13696 
-29.0528 -46.132 -3.13696 -20.6385 -47.176 -3.13696 -12.2241 -47.893 -3.13696 
3.9447 -49.6537 -3.13696 -3.80974 -48.8519 -3.13696 4.60463 -49.6537 -2.51567 
13.5461 -49.6537 -3.13696 13.019 -49.6537 -2.33823 21.4334 -48.0414 -3.13696 
29.8477 -45.4211 -3.13696 38.2621 -41.8032 -3.13696 -46.4412 -41.2393 -3.13696 
-54.2959 -36.9241 -3.13696 39.4215 -41.2393 -3.13696 38.2621 -41.2393 5.02183 
46.6765 -37.2667 -3.13696 -59.2122 -32.825 -3.13696 -62.7103 -29.1114 -3.13696 
53.0117 -32.825 -3.13696 55.0908 -31.1784 -3.13696 -66.1814 -24.4106 -3.13696 
62.0005 -24.4106 -3.13696 63.5052 -22.661 -3.13696 63.5052 -24.4106 0.892114 
-70.0333 -15.9962 -3.13696 68.6073 -15.9962 -3.13696 71.9196 -10.1359 -3.13696 
-71.1236 -7.58187 -3.13696 -71.1247 -7.55134 -3.13696 73.2992 -7.58187 -3.13696 
-71.4261 0.832494 -3.13696 -71.1247 2.94399 -3.13696 -71.1247 0.832494 -2.16057 
74.9522 0.832494 -3.13696 -70.225 9.24686 -3.13696 76.1025 9.24686 -3.13696 
-68.3669 17.6612 -3.13696 72.2586 17.6612 -3.13696 71.9196 18.3136 -3.13696 
71.9196 17.6612 -0.415212 -64.6098 26.0756 -3.13696 -62.7103 29.0734 -3.13696 
-62.7103 26.0756 1.06922 55.0908 33.8051 -3.13696 66.2598 26.0756 -3.13696 
63.5052 28.3689 -3.13696 63.5052 26.0756 2.89611 -58.7461 34.49 -3.13696 
-54.2959 38.8115 -3.13696 29.8477 42.2878 -3.13696 38.2621 40.0733 -3.13696 
53.5786 34.49 -3.13696 46.6765 37.6472 -3.13696 -48.0162 42.9043 -3.13696 
-45.8816 44.1742 -3.13696 -45.8816 42.9043 -0.00849871 -37.4672 47.5143 -3.13696 
-29.0528 50.0957 -3.13696 -3.80974 51.24 -3.13696 4.60463 49.2454 -3.13696 
13.019 47.2612 -3.13696 27.9062 42.9043 -3.13696 21.4334 44.9167 -3.13696 
-22.3729 51.3187 -3.13696 -20.6385 51.6362 -3.13696 -20.6385 51.3187 -2.0954 
-4.55738 51.3187 -3.13696 -12.2241 52.1054 -3.13696 -12.2241 51.3187 0.291818 
-45.8816 -42.0906 5.27741 -37.4672 -44.8909 5.27741 -29.0528 -47.0478 5.27741 
-20.6385 -48.11 5.27741 -12.2241 -48.3408 5.27741 -3.80974 -48.4051 5.27741 
4.60463 -48.6827 5.27741 13.019 -48.3616 5.27741 21.4334 -46.2953 5.27741 
29.8477 -43.524 5.27741 -47.4686 -41.2393 5.27741 -54.2959 -36.8092 5.27741 
-45.8816 -41.2393 6.90076 -37.4672 -41.2393 10.7953 -29.0528 -41.2393 13.4589 
-12.2241 -41.2393 13.4783 -3.80974 -41.2393 12.8651 4.60463 -41.2393 13.0342 
13.019 -41.2393 12.7157 21.4334 -41.2393 10.8715 38.1907 -41.2393 5.27741 
29.8477 -41.2393 8.08932 38.2621 -41.2169 5.27741 46.6765 -36.9181 5.27741 
-58.8649 -32.825 5.27741 -62.7103 -28.6778 5.27741 -54.2959 -32.825 11.0576 
38.2621 -32.825 12.7859 54.5871 -32.825 5.27741 46.6765 -32.825 9.42035 
55.0908 -32.5795 5.27741 63.5052 -25.9519 5.27741 -65.4902 -24.4106 5.27741 
-62.7103 -24.4106 9.05211 55.0908 -24.4106 12.9325 65.156 -24.4106 5.27741 
63.5052 -24.4106 7.52697 -68.4657 -15.9962 5.27741 -62.7103 -15.9962 12.3878 
71.1176 -15.9962 5.27741 63.5052 -15.9962 12.794 71.9196 -14.607 5.27741 
-68.2482 -7.58187 5.27741 -62.7103 -7.58187 11.3182 75.2417 -7.58187 5.27741 
71.9196 -7.58187 11.3702 -67.3 0.832494 5.27741 -62.7103 0.832494 9.16202 
-54.2959 0.832494 13.2696 75.9516 0.832494 5.27741 71.9196 0.832494 11.1019 
-64.9205 9.24686 5.27741 -62.7103 9.24686 7.22815 -54.2959 9.24686 12.0108 
74.8217 9.24686 5.27741 71.9196 16.0289 5.27741 71.9196 9.24686 8.96251 
-64.3672 17.6612 5.27741 -62.7103 21.4276 5.27741 -62.7103 17.6612 6.76538 
-54.2959 17.6612 12.2574 -45.8816 17.6612 13.6619 70.7918 17.6612 5.27741 
63.5052 24.8583 5.27741 63.5052 17.6612 11.9646 -59.1898 26.0756 5.27741 
-54.2959 26.0756 8.60145 -45.8816 26.0756 12.0169 46.6765 26.0756 12.9946 
61.5402 26.0756 5.27741 55.0908 29.7068 5.27741 55.0908 26.0756 9.84804 
-54.3203 34.49 5.27741 -54.2959 34.514 5.27741 -54.2959 34.49 5.29772 
-45.8816 39.1764 5.27741 -45.8816 34.49 8.81813 -37.4672 34.49 11.4732 
-29.0528 34.49 13.0895 29.8477 41.5506 5.27741 29.8477 34.49 13.3254 
38.2621 37.9388 5.27741 38.2621 34.49 9.45992 48.2548 34.49 5.27741 
46.6765 35.2959 5.27741 46.6765 34.49 6.29797 -40.5514 42.9043 5.27741 
[...]
POINT_DATA 560
SCALARS ImageScalars float
LOOKUP_TABLE default
0 0 0 0 0 0 0 0 0 
0 0 0 0 0 0 0 0 0 
0 0 0 0 0 0 0 0 0 
0 0 0 0 0 0 0 0 0 
0 0 0 0 0 0 0 0 0 
0 0 0 0 0 0 0 0 0 
0 0 0 0 0 0 0 0 0 
0 0 0 0 0 0 0 0 0 
0 0 0 0 0 0 0 0 0 
0 0 0 0 0 0 0 0 0 
0 0 0 0 0 0 0 0 0 
0 0 0 0 0 0 0 0 0 
0 0 0 0 0 0 0 0 0 
0 0 0 0 0 0 0 0 0 
0 0 0 0 0 0 0 0 0 
0 0 0 0 0 0 0 0 0 
0 0 0 0 0 0 0 0 0 
0 0 0 0 0 0 0 0 0 
0 0 0 0 0 0 0 0 0 
0 0 0 0 0 0 0 0 0 
0 0 0 0 0 0 0 0 0 
0 0 0 0 0 0 0 0 0 
0 0 0 0 0 0 0 0 0 
0 0 0 0 0 0 0 0 0 
0 0 0 0 0 0 0 0 0 
0 0 0 0 0 0 0 0 0 
0 0 0 0 0 0 0 0 0 
0 0 0 0 0 0 0 0 0 
0 0 0 0 0 0 0 0 0 
0 0 0 0 0 0 0 0 0 
0 0 0 0 0 0 0 0 0 
0 0 0 0 0 0 0 0 0 
0 0 0 0 0 0 0 0 0 
0 0 0 0 0 0 0 0 0 
0 0 0 0 0 0 0 0 0 
0 0 0 0 0 0 0 0 0 
0 0 0 0 0 0 0 0 0 
0 0 0 0 0 0 0 0 0 
0 0 0 0 0 0 0 0 0 
0 0 0 0 0 0 0 0 0 
0 0 0 0 0 0 0 0 0 
0 0 0 0 0 0 0 0 0 
0 0 0 0 0 0 0 0 0 
0 0 0 0 0 0 0 0 0 
0 0 0 0 0 0 0 0 0 
0 0 0 0 0 0 0 0 0 
0 0 0 0 0 0 0 0 0 
0 0 0 0 0 0 0 0 0 
0 0 0 0 0 0 0 0 0 
0 0 0 0 0 0 0 0 0 
0 0 0 0 0 0 0 0 0 
0 0 0 0 0 0 0 0 0 
0 0 0 0 0 0 0 0 0 
0 0 0 0 0 0 0 0 0 
0 0 0 0 0 0 0 0 0 
0 0 0 0 0 0 0 0 0 
0 0 0 0 0 0 0 0 0 
0 0 0 0 0 0 0 0 0 
0 0 0 0 0 0 0 0 0 
0 0 0 0 0 0 0 0 0 
0 0 0 0 0 0 0 0 0 
0 0 0 0 0 0 0 0 0 
0 0 
NORMALS Normals float
-0.0227656 0.0166057 0.999603 0.180252 0.485455 0.855478 0.128358 0.47547 0.870317 
-0.0253002 0.47404 0.88014 -0.181236 0.563076 0.806287 0.266631 0.472278 0.840155 
0.0606728 0.420505 0.905259 -0.0362572 0.361676 0.931598 -0.0525626 0.327061 0.94354 
0.0569372 0.245244 0.967788 0.143636 0.228609 0.962864 0.107704 0.181506 0.977474 
0.0131187 0.193331 0.981046 -0.091005 0.251404 0.963594 -0.252093 0.288367 0.923739 
-0.34251 0.43878 0.830758 0.345232 0.364719 0.864752 0.179636 0.198346 0.96353 
0.0386282 0.153566 0.987383 -0.0622162 0.165881 0.984181 -0.0975303 0.105546 0.98962 
0.0106159 0.0404424 0.999125 0.115326 0.122534 0.985741 0.0846381 -0.00439395 0.996402 
0.0577249 0.0282987 0.997931 -0.0583116 0.0757333 0.995422 -0.182444 0.0416545 0.982334 
-0.295795 0.13096 0.946232 0.520459 0.238359 0.819943 0.282956 0.26487 0.921835 
0.0792501 0.120845 0.989503 0.0168215 0.0376795 0.999148 -0.0970501 0.00793065 0.995248 
-0.168728 -0.0375733 0.984946 0.0533594 -0.0866601 0.994808 0.108915 0.146174 0.983245 
0.00860794 -0.0610347 0.998099 0.0980284 0.0138113 0.995088 -0.0832158 -0.049454 0.995304 
-0.186709 -0.0612618 0.980503 -0.130908 0.0187055 0.991218 -0.246743 0.220764 0.9436 
0.513237 0.0554881 0.856451 0.233141 0.0198185 0.972241 -0.0458107 0.0741109 0.996197 
-0.0723994 0.0134941 0.997284 -0.136261 -0.0461306 0.989598 -0.194 -0.0483846 0.979808 
0.122961 0.0631175 0.990402 0.138992 0.0275683 0.98991 -0.015219 0.00845493 0.999848 
0.0660426 0.0811555 0.994511 -0.138918 -0.147956 0.979189 -0.0872612 0.00789098 0.996154 
-0.0528214 0.0861845 0.994878 -0.138441 0.133185 0.981374 -0.231303 0.236272 0.943756 
0.51022 0.00983652 0.859988 0.23219 -0.0737509 0.96987 0.0607657 0.0260372 0.997812 
-0.101713 0.0453377 0.99378 -0.154933 0.0485803 0.98673 -0.0278032 0.0919024 0.99538 
0.131487 0.201163 0.970693 -0.0116498 -0.162694 0.986608 -0.0107719 0.0439734 0.998975 
0.0896435 0.228838 0.969328 -0.125096 -0.156498 0.979724 -0.105197 -0.0584069 0.992735 
0.044514 0.0870976 0.995205 -0.00407528 0.14681 0.989156 -0.0664754 0.187276 0.980055 
-0.18169 0.2729 0.94473 -0.402249 0.151872 0.902846 0.502208 -0.0369864 0.863955 
0.238039 0.0394488 0.970454 0.0983979 -0.0190689 0.994964 -0.0499216 0.0475403 0.997621 
-0.0960344 0.0960642 0.990732 -0.0654324 0.16193 0.984631 -0.037542 0.00490277 0.999283 
-0.00520947 0.00967865 0.99994 0.158333 -0.0223878 0.987132 -0.0391586 -0.000173953 0.999233 
-0.0274839 -0.00525012 0.999608 -0.196755 -0.135129 0.971096 0.108132 0.0420217 0.993248 
0.106764 0.0847312 0.990668 0.0461314 0.114843 0.992312 0.00513066 0.110456 0.993868 
-0.213478 0.207476 0.954663 -0.391236 -0.00338992 0.920284 0.602673 -0.247336 0.75869 
0.293699 -0.0607073 0.953968 0.0331955 -0.0829746 0.995999 0.0117245 0.0509878 0.99863 
-0.0438318 0.0605928 0.9972 -0.0927127 0.0831308 0.992217 -0.0923194 0.0752471 0.992882 
0.0508928 0.1068 0.992977 -0.0491534 -0.129307 0.990386 -0.0862269 0.0477714 0.99513 
0.116904 -0.0111999 0.99308 0.118116 -0.0205953 0.992786 0.0211564 -0.0525907 0.998392 
0.0452609 -0.0804695 0.995729 -0.350925 -0.220302 0.91012 -0.571616 -0.157815 0.805201 
0.420027 -0.332925 0.844238 0.220541 -0.133912 0.966141 0.0902073 -0.118116 0.988894 
-0.0631604 -0.0135335 0.997912 -0.0520128 -0.00748681 0.998618 -0.0166952 0.0528726 0.998462 
-0.0254981 0.044738 0.998673 -0.113631 -0.0962027 0.988854 -0.0906154 -0.06052 0.994045 
0.0385548 -0.147731 0.988276 0.0592519 -0.238595 0.96931 -0.0155671 -0.291754 0.956367 
-0.153966 -0.327615 0.932182 -0.337063 -0.551084 0.763345 0.514466 -0.51473 0.68584 
0.299499 -0.428996 0.85221 0.133137 -0.305328 0.942894 0.0738792 -0.246692 0.966274 
-0.0212402 -0.152978 0.988001 -0.0428147 -0.124931 0.991241 -0.0991501 -0.190165 0.976733 
-0.149548 -0.264493 0.952722 -0.139187 -0.313684 0.93927 -0.0639008 -0.409744 0.90996 
-0.0558411 -0.509944 0.858393 -0.0930258 -0.666775 0.739431 -0.218451 -0.733904 0.643167 
0.243326 -0.656398 0.714097 0.0971195 -0.542624 0.834342 0.0714999 -0.459386 0.885354 
-0.0504317 -0.424103 0.904209 -0.181573 -0.478309 0.859216 -0.250621 -0.565626 0.785657 
0.180501 0.538548 0.823034 0.121498 0.646197 0.753437 0.0514004 0.986048 0.158327 
-0.0481813 0.701387 0.711151 -0.0959777 0.98708 0.128302 -0.217043 0.677615 0.702659 
0.288758 0.64621 0.706421 0.393166 0.866199 0.308416 0.129449 0.615085 0.777762 
0.202469 0.802643 0.561043 0.0194796 0.581697 0.813172 0.0641254 0.712645 0.698588 
0.0103375 0.494556 0.869084 0.0593749 0.635285 0.769992 0.151962 0.508317 0.847657 
0.115009 0.46971 0.875297 0.126592 0.556111 0.821411 -0.300712 0.648668 0.699144 
-0.326136 0.624668 0.709525 -0.340076 0.702866 0.624762 -0.355477 0.474817 0.805099 
-0.442714 0.857703 0.261438 0.414497 0.537655 0.734247 0.466129 0.459845 0.755822 
0.544097 0.596748 0.589788 -0.354609 0.447846 0.820784 -0.477356 0.56882 0.669758 
0.54245 0.443048 0.713762 0.595439 0.389475 0.702682 0.700285 0.533489 0.474331 
-0.373365 0.231063 0.898448 -0.367217 0.234402 0.900115 -0.376867 0.237049 0.895421 
-0.375977 0.469696 0.798766 0.594968 0.289541 0.749786 -0.319998 0.23685 0.917335 
-0.30967 0.23398 0.921606 -0.341278 0.243891 0.90777 -0.516941 0.317654 0.794901 
0.6849 0.0784569 0.724401 -0.347911 0.323002 0.880129 -0.395715 0.31491 0.862694 
-0.404382 0.349893 0.845015 -0.729449 0.330179 0.599071 0.69088 0.00101997 0.722969 
0.995883 -0.0503442 0.0753798 -0.497431 0.174849 0.8497 -0.75263 0.194958 0.628919 
0.734779 -0.0716804 0.674508 -0.518989 -0.0253687 0.854404 -0.722877 -0.0736924 0.687036 
0.710549 -0.265202 0.651757 0.65006 -0.381531 0.657158 -0.621964 -0.244779 0.743804 
-0.61138 -0.415042 0.673761 -0.860592 -0.446156 0.245612 0.614743 -0.408733 0.674558 
0.77113 -0.482446 0.415456 -0.502568 -0.577543 0.643327 -0.418322 -0.623054 0.660917 
-0.658586 -0.68549 0.310432 0.566757 -0.544515 0.618296 0.538582 -0.575243 0.615649 
0.455522 -0.628364 0.630601 -0.215455 -0.550178 0.806773 -0.103776 -0.560446 0.821664 
-0.105605 -0.663293 0.740871 -0.112275 -0.706914 0.698331 -0.268286 -0.752073 0.602004 
-0.225898 -0.767687 0.599689 0.426037 -0.680344 0.596342 0.506106 -0.810601 0.294591 
0.261856 -0.77146 0.579897 0.182279 -0.742735 0.644298 0.0903469 -0.789689 0.606819 
-0.0728452 -0.77808 0.623927 -0.210271 -0.703824 0.678541 -0.248098 -0.600743 0.75997 
-0.258047 -0.626993 0.735045 -0.249763 -0.701772 0.667184 -0.240896 -0.871477 0.427197 
0.116768 -0.991922 0.04956 -0.0404709 -0.980599 0.191799 0.0501902 0.987482 0.149534 
-0.096817 0.988907 0.112644 0.394955 0.87088 0.292539 0.244744 0.920589 0.30433 
0.157594 0.92453 0.347 0.0994283 0.922236 0.373623 0.0940266 0.939451 0.329532 
0.054012 0.986452 0.154901 0.102378 0.968136 0.228541 0.0473412 0.992678 0.111124 
-0.105978 0.988092 0.11155 -0.0999857 0.992543 0.0697175 -0.245484 0.964355 0.0987732 
-0.356642 0.926476 0.120204 -0.43303 0.880402 0.193335 0.402832 0.867668 0.291341 
0.556363 0.789443 0.259307 -0.44374 0.871732 0.207796 -0.325612 0.882473 -0.339438 
-0.523317 0.801196 0.290215 0.672436 0.696481 0.250488 0.740721 0.625181 0.245929 
-0.580458 0.736913 0.34645 -0.591994 0.703948 0.392429 0.829768 0.510702 0.225094 
-0.681709 0.649104 0.337546 -0.691315 0.624275 0.36382 -0.703248 0.70517 0.0904284 
0.941559 0.27755 0.190872 -0.71745 0.484869 0.500167 -0.763291 0.407375 0.50143 
0.99112 0.0762043 0.108965 0.991184 0.0757327 0.108712 -0.800506 0.329082 0.500895 
0.997946 -0.053277 0.0355631 0.996242 -0.0821063 0.027576 0.99766 -0.0623616 -0.0280199 
-0.903373 0.15238 0.40087 0.984757 -0.173671 -0.00963155 -0.976138 -0.159839 0.146991 
0.942862 -0.331484 -0.0336051 -0.868593 -0.448435 0.210839 -0.860826 -0.465317 0.206053 
-0.870081 -0.492855 0.00732918 0.876639 -0.478296 -0.0523235 0.845145 -0.532307 -0.0487744 
0.796042 -0.487572 -0.358595 -0.448124 -0.893859 -0.0141905 -0.708521 -0.704073 0.0477481 
-0.648834 -0.760484 0.0260541 -0.576237 -0.72603 -0.375275 0.74873 -0.661154 -0.047731 
0.622797 -0.78114 -0.0441052 -0.275156 -0.948246 0.158486 -0.263222 -0.960814 0.0869008 
-0.426404 -0.904403 -0.0153167 -0.346963 -0.937868 0.00454315 0.488994 -0.870626 -0.0538081 
0.455271 -0.888474 -0.0578188 0.480515 -0.836379 -0.263771 0.334547 -0.940569 -0.0583771 
0.235437 -0.970451 -0.0528595 -0.164349 -0.981936 0.0937578 -0.235364 -0.954314 0.184089 
-0.259431 -0.944427 0.201873 -0.277474 -0.945345 0.171261 -0.280474 -0.936321 0.211277 
0.142372 -0.988931 -0.0417782 0.11893 -0.992177 -0.0379485 0.126941 -0.987192 -0.0966291 
-0.151547 -0.984602 0.0871307 -0.0233653 -0.999436 0.0241351 0.0118217 -0.985435 -0.169643 
0.413678 0.885499 -0.211569 0.279377 0.930179 -0.23815 0.180201 0.963837 -0.196329 
0.0769357 0.974463 -0.210958 0.0166285 0.96605 -0.25782 0.0177786 0.943604 -0.330597 
-0.00117596 0.908419 -0.418058 -0.121006 0.907138 -0.403061 -0.242488 0.870214 -0.428867 
-0.275052 0.849739 -0.449766 0.444476 0.870272 -0.212293 0.58495 0.770713 -0.252655 
0.406159 0.859282 -0.310917 0.239718 0.790506 -0.563592 0.124537 0.593462 -0.795169 
-0.0550659 0.463363 -0.884456 -0.0206129 0.472918 -0.880865 -0.00633398 0.528084 -0.849168 
-0.0992453 0.542135 -0.83441 -0.201973 0.635786 -0.744972 -0.319828 0.877681 -0.356912 
-0.242799 0.767942 -0.592716 -0.320299 0.877803 -0.356188 -0.424791 0.843536 -0.328634 
0.663057 0.6948 -0.278581 0.770179 0.548521 -0.325497 0.537504 0.578292 -0.613733 
-0.219526 0.48427 -0.846931 -0.493877 0.845542 -0.20284 -0.319869 0.724456 -0.610611 
-0.500845 0.843594 -0.193658 -0.672866 0.72877 -0.127063 0.844579 0.395646 -0.360763 
0.732808 0.373876 -0.568514 -0.347509 0.5068 -0.788918 -0.705448 0.697613 -0.125216 
-0.665834 0.701075 -0.255263 0.87934 0.17013 -0.444767 0.613024 0.0984742 -0.783903 
-0.859723 0.491247 -0.139832 -0.522721 0.336647 -0.783219 -0.880595 0.456157 -0.128351 
0.820019 -0.0468916 -0.570412 0.594451 -0.130827 -0.793418 -0.951612 0.260068 -0.163705 
-0.74513 0.208517 -0.633484 0.733321 -0.140456 -0.665216 0.556003 -0.171866 -0.813218 
0.319825 -0.180515 -0.930122 -0.965706 -0.0196546 -0.258894 -0.71346 -0.104371 -0.692879 
0.743896 -0.120863 -0.657276 0.619312 -0.116729 -0.776419 0.332746 -0.0555787 -0.941377 
-0.868107 -0.281968 -0.408515 -0.76446 -0.47295 -0.438086 -0.734003 -0.321689 -0.598127 
0.708786 -0.219181 -0.670509 0.658749 -0.309235 -0.685874 0.626309 -0.209203 -0.75098 
0.38939 -0.144127 -0.909727 0.182883 -0.14847 -0.971859 -0.731272 -0.51687 -0.445069 
-0.520304 -0.672015 -0.526953 -0.455094 -0.435378 -0.776746 0.61207 -0.385283 -0.690599 
0.517225 -0.34505 -0.783211 0.304894 -0.214657 -0.92788 -0.209491 -0.517151 -0.82986 
-0.488411 -0.68977 -0.534482 -0.43942 -0.728683 -0.525292 -0.395255 -0.601686 -0.69408 
0.524557 -0.529955 -0.666325 0.523941 -0.53056 -0.666327 0.523521 -0.52947 -0.667523 
0.424118 -0.621767 -0.65843 0.354362 -0.496445 -0.792446 0.189463 -0.420085 -0.887487 
0.138714 -0.374837 -0.916655 -0.313851 -0.885101 -0.343648 -0.261207 -0.570426 -0.778707 
-0.323922 -0.832253 -0.449921 -0.308722 -0.698083 -0.646042 -0.381407 -0.783397 -0.490731 
-0.362335 -0.796239 -0.484476 -0.357199 -0.76831 -0.53114 0.32661 -0.720441 -0.611793 
0.250199 -0.763522 -0.595344 0.245875 -0.716003 -0.653365 0.194689 -0.733759 -0.650918 
0.159591 -0.625805 -0.763478 0.178927 -0.779559 -0.600227 0.183688 -0.572926 -0.798758 
0.074898 -0.863571 -0.498634 0.150462 -0.544581 -0.825102 -0.0636833 -0.916453 -0.395043 
0.0377144 -0.540416 -0.840553 -0.193335 -0.923238 -0.332045 -0.102018 -0.612797 -0.783628 
-0.245177 -0.912761 -0.326736 -0.198996 -0.761617 -0.616717 -0.283554 -0.900189 -0.33054 
-0.262768 -0.907263 -0.328371 -0.256518 -0.868573 -0.424004 0.00136958 0.558844 -0.829272 
0.299771 0.555187 -0.775825 0.181078 0.61099 -0.77065 0.076298 0.569406 -0.818508 
0.120343 0.574731 -0.809446 -0.0344837 0.489405 -0.871374 -0.00148938 0.5413 -0.840828 
-0.0612522 0.43927 -0.896265 -0.0163968 0.377438 -0.92589 0.00516531 0.46209 -0.886818 
-0.0774574 0.465401 -0.881704 -0.151251 0.434967 -0.887652 -0.157777 0.421491 -0.893002 
0.39187 0.496199 -0.774741 0.475646 0.362692 -0.801384 0.293031 0.480568 -0.826551 
0.124852 0.408116 -0.904352 0.0323897 0.374461 -0.926677 -0.106676 0.277156 -0.954885 
-0.12689 0.24957 -0.960007 -0.00838843 0.21955 -0.975565 0.0488063 0.252031 -0.966488 
-0.0182607 0.294389 -0.955511 -0.119644 0.317696 -0.940614 -0.172159 0.417613 -0.892166 
-0.153218 0.394889 -0.905863 -0.16864 0.414605 -0.894239 -0.192472 0.473092 -0.859732 
0.505017 0.261757 -0.822461 0.458996 0.243571 -0.854398 0.232315 0.14272 -0.962113 
0.112304 0.171017 -0.978847 -0.040603 0.121724 -0.991733 -0.131065 0.132209 -0.982519 
-0.124667 0.13642 -0.982776 -0.0143326 0.121552 -0.992482 0.0736053 0.145093 -0.986676 
-0.00649518 0.124971 -0.992139 -0.0840615 0.104473 -0.990969 -0.0584688 0.212443 -0.975423 
-0.0514848 0.286288 -0.956759 -0.287206 0.458063 -0.841244 -0.15206 0.371059 -0.916075 
-0.312099 0.458526 -0.832075 0.534121 0.0778568 -0.841816 0.383602 -0.0195729 -0.923291 
0.201521 -0.0326626 -0.978939 0.105536 -0.018739 -0.994239 -0.0287941 -0.00638096 -0.999565 
-0.107898 0.0588301 -0.99242 -0.127385 0.16204 -0.978527 -0.00179623 0.172879 -0.984941 
0.0555174 0.116395 -0.99165 -0.0706412 0.0423574 -0.996602 -0.0287105 -0.0111796 -0.999525 
0.0429369 0.0930264 -0.994737 -0.00248516 0.162118 -0.986768 -0.0666771 0.233083 -0.970168 
-0.441991 0.320002 -0.837999 -0.233393 0.295478 -0.926402 -0.479185 0.26351 -0.837224 
0.430826 -0.15816 -0.888468 0.31211 -0.181789 -0.932491 0.325554 -0.175917 -0.929014 
0.21508 -0.153339 -0.964483 0.156602 -0.18226 -0.970699 0.040198 -0.152659 -0.987461 
0.0343323 -0.0271712 -0.999041 -0.00916497 0.109089 -0.99399 -0.0695224 0.0328021 -0.997041 
-0.0536374 -0.0282113 -0.998162 -0.142844 0.0308787 -0.989263 -0.0242354 0.031849 -0.999199 
0.11918 0.0455117 -0.991829 0.0847084 0.07769 -0.993372 -0.0252526 0.10017 -0.99465 
-0.151479 0.0564108 -0.986849 -0.569999 0.157173 -0.806472 -0.443716 0.137947 -0.885487 
0.292455 -0.183228 -0.938561 0.211058 -0.175543 -0.961582 0.113771 -0.164086 -0.979863 
0.12199 -0.171937 -0.977525 0.154601 -0.110205 -0.981811 -0.0636766 -0.105085 -0.992423 
-0.149791 0.00809859 -0.988685 0.0598688 -0.0550027 -0.99669 -0.0095094 -0.0378673 -0.999238 
-0.0140287 0.110276 -0.993802 0.0883152 0.0436598 -0.995135 0.0539534 -0.0121466 -0.99847 
-0.081382 -0.0711286 -0.994142 -0.2155 -0.076859 -0.973474 -0.471321 -0.114724 -0.874468 
-0.36625 -0.117176 -0.923109 0.259026 -0.0879708 -0.961856 0.185395 -0.146418 -0.971695 
0.244024 -0.106843 -0.963866 0.155626 -0.085483 -0.98411 0.103634 -0.0744662 -0.991824 
0.0964507 -0.131412 -0.986625 0.105366 -0.196617 -0.974802 -0.0074119 0.034015 -0.999394 
-0.101548 0.016748 -0.99469 0.0318549 -0.0273069 -0.999119 0.0463446 0.0697443 -0.996488 
-0.00272808 0.0232858 -0.999725 -0.0295421 -0.100187 -0.99453 -0.0696223 -0.183233 -0.980601 
-0.257646 -0.209242 -0.943311 -0.430027 -0.169861 -0.886693 -0.421216 -0.203333 -0.883874 
-0.415938 -0.162425 -0.89477 0.182167 -0.147361 -0.972162 0.159931 -0.0887109 -0.983134 
0.0836329 -0.0815645 -0.993153 0.0372782 -0.129803 -0.990839 0.0976022 -0.116777 -0.988351 
0.0716818 -0.110586 -0.991278 -0.0108908 -0.0189508 -0.999761 0.046874 0.00419464 -0.998892 
0.0362727 -0.0382365 -0.99861 -0.08469 -0.104237 -0.99094 -0.142037 -0.209527 -0.967432 
-0.200254 -0.478261 -0.855082 -0.183571 -0.271814 -0.944679 -0.296433 -0.352925 -0.887452 
-0.277949 -0.361326 -0.890049 -0.265323 -0.34336 -0.900948 0.238082 -0.214639 -0.947231 
0.188273 -0.295144 -0.936719 0.196115 -0.222949 -0.954899 0.120009 -0.332051 -0.935596 
0.0643648 -0.20271 -0.977121 0.0574425 -0.176402 -0.982641 0.123359 -0.0907523 -0.988204 
0.0945732 -0.130748 -0.986895 0.015881 -0.0989595 -0.994965 0.010587 -0.130387 -0.991407 
-0.0578281 -0.210723 -0.975834 -0.253679 -0.544328 -0.799596 -0.175505 -0.296597 -0.938738 
-0.211903 -0.48063 -0.850936 -0.264629 -0.472204 -0.84083 -0.236774 -0.399967 -0.885418 
0.141538 -0.331575 -0.932751 0.145346 -0.327886 -0.933469 0.143215 -0.313832 -0.938616 
0.149983 -0.395782 -0.906014 0.137405 -0.252321 -0.957838 0.0440117 -0.473232 -0.879838 
0.0545486 -0.280095 -0.958421 -0.0650379 -0.505556 -0.860339 -0.00289496 -0.30859 -0.951191 
-0.126848 -0.541934 -0.830793 -0.0661404 -0.356892 -0.931801 -0.245011 -0.550073 -0.798367 
-0.190075 -0.55503 -0.809823 -0.162501 -0.472052 -0.866464 
