# vtk DataFile Version 4.2
vtk output
ASCII
DATASET POLYDATA
POINTS 536 float
-20.1894 -50.1943 -12.2692 -12.2017 -50.1943 -15.3011 -4.21402 -50.1943 -15.1394 
3.77368 -50.1943 -14.7316 11.7614 -50.1943 -11.9977 -36.1648 -42.2066 -12.9045 
-28.1771 -42.2066 -14.3395 -20.1894 -42.2066 -15.4108 -12.2017 -42.2066 -17.2208 
-4.21402 -42.2066 -18.1483 3.77368 -42.2066 -17.4341 11.7614 -42.2066 -15.9036 
19.7491 -42.2066 -14.5264 -44.1525 -34.2189 -12.204 -36.1648 -34.2189 -14.5124 
-28.1771 -34.2189 -15.2685 -20.1894 -34.2189 -17.1389 -12.2017 -34.2189 -17.3614 
-4.21402 -34.2189 -18.0454 3.77368 -34.2189 -17.7992 11.7614 -34.2189 -17.272 
19.7491 -34.2189 -17.1121 27.7368 -34.2189 -16.6957 35.7244 -34.2189 -13.9709 
-36.1648 -26.2312 -14.4751 -28.1771 -26.2312 -16.6589 -20.1894 -26.2312 -16.0882 
-12.2017 -26.2312 -16.1604 -4.21402 -26.2312 -16.993 3.77368 -26.2312 -17.209 
11.7614 -26.2312 -17.1895 19.7491 -26.2312 -18.2925 27.7368 -26.2312 -17.8238 
35.7244 -26.2312 -17.4863 43.7121 -26.2312 -14.346 -36.1648 -18.2435 -14.6046 
-28.1771 -18.2435 -15.6595 -20.1894 -18.2435 -15.1276 -12.2017 -18.2435 -15.0296 
-4.21402 -18.2435 -15.8062 3.77368 -18.2435 -16.1005 11.7614 -18.2435 -16.4034 
19.7491 -18.2435 -17.5427 27.7368 -18.2435 -18.7929 35.7244 -18.2435 -17.7083 
43.7121 -18.2435 -16.299 51.6998 -18.2435 -12.9297 -36.1648 -10.2558 -13.4252 
-28.1771 -10.2558 -15.0677 -20.1894 -10.2558 -14.8239 -12.2017 -10.2558 -13.6969 
-4.21402 -10.2558 -19.1129 3.77368 -10.2558 -18.9242 11.7614 -10.2558 -15.7133 
19.7491 -10.2558 -16.2208 27.7368 -10.2558 -17.3969 35.7244 -10.2558 -17.6742 
43.7121 -10.2558 -16.9303 51.6998 -10.2558 -14.7215 -36.1648 -2.26815 -12.2036 
-28.1771 -2.26815 -14.6422 -20.1894 -2.26815 -14.644 -12.2017 -2.26815 -15.7815 
-4.21402 -2.26815 -16.0441 3.77368 -2.26815 -15.3886 11.7614 -2.26815 -18.6883 
19.7491 -2.26815 -15.7435 27.7368 -2.26815 -16.7121 35.7244 -2.26815 -17.2778 
43.7121 -2.26815 -16.7874 51.6998 -2.26815 -14.8526 -36.1648 5.71954 -13.0824 
-28.1771 5.71954 -15.8497 -20.1894 5.71954 -16.0148 -12.2017 5.71954 -15.1702 
-4.21402 5.71954 -16.8364 3.77368 5.71954 -16.7077 11.7614 5.71954 -18.1298 
19.7491 5.71954 -15.9048 27.7368 5.71954 -16.563 35.7244 5.71954 -16.897 
43.7121 5.71954 -16.3424 51.6998 5.71954 -14.3206 -36.1648 13.7072 -15.6662 
-28.1771 13.7072 -17.4424 -20.1894 13.7072 -17.1029 -12.2017 13.7072 -15.6133 
-4.21402 13.7072 -14.7056 3.77368 13.7072 -15.509 11.7614 13.7072 -16.1711 
19.7491 13.7072 -16.7602 27.7368 13.7072 -17.1069 35.7244 13.7072 -16.8327 
43.7121 13.7072 -15.061 51.6998 13.7072 -12.314 -44.1525 21.6949 -12.2218 
-36.1648 21.6949 -16.8005 -28.1771 21.6949 -18.2331 -20.1894 21.6949 -17.8987 
-12.2017 21.6949 -16.6396 -4.21402 21.6949 -15.3686 3.77368 21.6949 -16.0896 
11.7614 21.6949 -17.218 19.7491 21.6949 -17.236 27.7368 21.6949 -16.8139 
35.7244 21.6949 -16.0803 43.7121 21.6949 -14.0619 -36.1648 29.6826 -15.9934 
-28.1771 29.6826 -17.8806 -20.1894 29.6826 -17.8245 -12.2017 29.6826 -17.301 
-4.21402 29.6826 -16.9128 3.77368 29.6826 -16.8098 11.7614 29.6826 -17.6586 
19.7491 29.6826 -16.8744 27.7368 29.6826 -15.9034 35.7244 29.6826 -13.6996 
-36.1648 37.6703 -14.5702 -28.1771 37.6703 -15.8947 -20.1894 37.6703 -16.713 
-12.2017 37.6703 -16.9407 -4.21402 37.6703 -16.2408 3.77368 37.6703 -16.1772 
11.7614 37.6703 -16.048 19.7491 37.6703 -14.3932 -28.1771 45.658 -12.5634 
-20.1894 45.658 -14.2824 -12.2017 45.658 -14.078 -4.21402 45.658 -13.823 
3.77368 45.658 -12.9423 -20.1894 -50.94 -11.7914 -12.2017 -54.6903 -11.7914 
-12.2017 -58.182 -3.97435 -4.21402 -55.4618 -11.7914 -4.21402 -58.182 -4.32718 
3.77368 -53.3138 -11.7914 11.7614 -50.3832 -11.7914 -36.1648 -43.9186 -11.7914 
-23.7276 -50.1943 -11.7914 -28.1771 -48.7054 -11.7914 -28.1771 -50.1943 -10.81 
12.1715 -50.1943 -11.7914 19.7491 -46.203 -11.7914 -38.227 -42.2066 -11.7914 
-44.1525 -35.132 -11.7914 -44.1525 -42.2066 -5.96144 26.8941 -42.2066 -11.7914 
27.7368 -41.6725 -11.7914 27.7368 -42.2066 -10.5059 35.7244 -37.1588 -11.7914 
-44.713 -34.2189 -11.7914 -44.1525 -30.1854 -11.7914 39.9519 -34.2189 -11.7914 
43.7121 -30.8424 -11.7914 -42.9953 -26.2312 -11.7914 -44.1525 -26.2312 -11.2474 
47.5933 -26.2312 -11.7914 51.6998 -20.2528 -11.7914 -43.7702 -18.2435 -11.7914 
-44.1525 -18.2435 -11.565 52.8239 -18.2435 -11.7914 -39.3912 -10.2558 -11.7914 
-44.1525 -10.2558 -7.6485 55.552 -10.2558 -11.7914 59.6875 -10.2558 -5.95432 
-36.8394 -2.26815 -11.7914 -44.1525 -2.26815 -5.4369 56.5497 -2.26815 -11.7914 
59.6875 -2.26815 -8.82862 -38.1293 5.71954 -11.7914 -44.1525 5.71954 -6.50614 
56.605 5.71954 -11.7914 59.6875 5.71954 -9.42715 -42.067 13.7072 -11.7914 
-44.1525 20.0332 -11.7914 -44.1525 13.7072 -9.92768 52.5356 13.7072 -11.7914 
51.6998 16.5935 -11.7914 59.6875 13.7072 -5.50303 -44.617 21.6949 -11.7914 
-44.1525 26.9222 -11.7914 49.3417 21.6949 -11.7914 43.7121 27.779 -11.7914 
51.6998 21.6949 -10.4848 -43.8314 29.6826 -11.7914 -44.1525 29.6826 -11.5386 
27.7368 37.5461 -11.7914 41.7608 29.6826 -11.7914 35.7244 33.086 -11.7914 
43.7121 29.6826 -10.7293 -40.4819 37.6703 -11.7914 -44.1525 37.6703 -8.6458 
-36.1648 42.7288 -11.7914 11.7614 44.6691 -11.7914 27.5379 37.6703 -11.7914 
19.7491 41.1365 -11.7914 27.7368 37.6703 -11.6742 35.7244 37.6703 -5.74477 
-30.7088 45.658 -11.7914 -36.1648 45.658 -9.64206 -28.1771 46.6641 -11.7914 
-20.1894 49.3327 -11.7914 -12.2017 49.9355 -11.7914 -4.21402 48.9289 -11.7914 
9.04455 45.658 -11.7914 3.77368 47.2575 -11.7914 11.7614 45.658 -10.4951 
-20.1894 53.6457 -7.50361 -12.2017 53.6457 -7.50046 -4.21402 53.6457 -4.57004 
-12.2017 -58.2263 -3.80375 -4.21402 -58.3035 -3.80375 -28.1771 -53.6763 -3.80375 
-12.5786 -58.182 -3.80375 -20.1894 -57.1342 -3.80375 -12.2017 -58.182 -3.65564 
-3.6161 -58.182 -3.80375 -4.21402 -58.182 -3.4384 3.77368 -56.5782 -3.80375 
11.7614 -53.4065 -3.80375 -44.1525 -43.8643 -3.80375 -35.1102 -50.1943 -3.80375 
-36.1648 -49.4779 -3.80375 17.4882 -50.1943 -3.80375 19.7491 -48.8681 -3.80375 
27.7368 -44.0918 -3.80375 -45.759 -42.2066 -3.80375 30.8049 -42.2066 -3.80375 
27.7368 -42.2066 0.976256 35.7244 -39.0162 -3.80375 -50.0295 -34.2189 -3.80375 
42.1168 -34.2189 -3.80375 43.7121 -32.924 -3.80375 -51.7534 -26.2312 -3.80375 
-52.1402 -26.2312 0.918056 50.7672 -26.2312 -3.80375 51.6998 -25.1556 -3.80375 
-49.6193 -18.2435 -3.80375 57.0393 -18.2435 -3.80375 59.6875 -12.5867 -3.80375 
-47.102 -10.2558 -3.80375 60.6163 -10.2558 -3.80375 59.6875 -10.2558 3.13602 
-45.3107 -2.26815 -3.80375 62.5414 -2.26815 -3.80375 -46.1483 5.71954 -3.80375 
62.9636 5.71954 -3.80375 -48.6578 13.7072 -3.80375 60.7639 13.7072 -3.80375 
59.6875 16.1337 -3.80375 -51.378 21.6949 -3.80375 56.7348 21.6949 -3.80375 
51.6998 27.7621 -3.80375 -49.7912 29.6826 -3.80375 49.7074 29.6826 -3.80375 
43.7121 34.6495 -3.80375 -47.6821 37.6703 -3.80375 -44.1525 42.7541 -3.80375 
19.7491 45.3082 -3.80375 27.7368 41.9163 -3.80375 37.7391 37.6703 -3.80375 
35.7244 38.5596 -3.80375 -41.5791 45.658 -3.80375 -36.1648 50.0137 -3.80375 
-28.1771 53.6281 -3.80375 3.77368 51.4485 -3.80375 18.9057 45.658 -3.80375 
11.7614 48.7234 -3.80375 -28.1177 53.6457 -3.80375 -28.1771 53.6457 -3.31691 
-20.1894 55.5797 -3.80375 -12.2017 55.3362 -3.80375 -3.20842 53.6457 -3.80375 
-4.21402 53.957 -3.80375 -4.21402 53.6457 -1.49001 -28.1771 -51.6712 4.18394 
-20.1894 -53.3659 4.18394 -12.2017 -54.9567 4.18394 -4.21402 -54.7903 4.18394 
3.77368 -53.9004 4.18394 11.7614 -50.5846 4.18394 -44.1525 -43.5944 4.18394 
-31.9299 -50.1943 4.18394 -36.1648 -47.861 4.18394 -28.1771 -50.1943 6.05401 
-20.1894 -50.1943 8.15042 -12.2017 -50.1943 9.50201 -4.21402 -50.1943 9.46241 
3.77368 -50.1943 8.09701 12.4594 -50.1943 4.18394 11.7614 -50.1943 4.67847 
19.7491 -45.2911 4.18394 -45.6367 -42.2066 4.18394 -44.1525 -42.2066 6.11553 
-36.1648 -42.2066 11.057 -28.1771 -42.2066 12.0575 11.7614 -42.2066 11.2382 
25.1775 -42.2066 4.18394 19.7491 -42.2066 7.68959 27.7368 -40.5851 4.18394 
35.7244 -35.3356 4.18394 -51.0353 -34.2189 4.18394 -52.1402 -27.9766 4.18394 
-44.1525 -34.2189 10.3199 27.7368 -34.2189 10.4249 37.2597 -34.2189 4.18394 
35.7244 -34.2189 5.52788 43.7121 -29.0583 4.18394 -52.3534 -26.2312 4.18394 
-52.1402 -24.8626 4.18394 -52.1402 -26.2312 4.67799 35.7244 -26.2312 12.0807 
47.0589 -26.2312 4.18394 43.7121 -26.2312 7.19016 51.6998 -21.6705 4.18394 
-51.0817 -18.2435 4.18394 54.7101 -18.2435 4.18394 51.6998 -18.2435 7.47207 
-49.4413 -10.2558 4.18394 59.5141 -10.2558 4.18394 59.6875 -9.87828 4.18394 
-47.8425 -2.26815 4.18394 62.3295 -2.26815 4.18394 59.6875 -2.26815 8.91631 
-48.6751 5.71954 4.18394 63.1178 5.71954 4.18394 59.6875 5.71954 10.2756 
-50.9923 13.7072 4.18394 61.16 13.7072 4.18394 59.6875 17.1741 4.18394 
59.6875 13.7072 7.03214 -51.8512 21.6949 4.18394 57.4349 21.6949 4.18394 
51.6998 28.4533 4.18394 51.6998 21.6949 11.0165 -51.3461 29.6826 4.18394 
50.3522 29.6826 4.18394 43.7121 35.0385 4.18394 43.7121 29.6826 11.0616 
-48.8084 37.6703 4.18394 -44.1525 44.5537 4.18394 19.7491 44.2349 4.18394 
27.7368 41.3858 4.18394 27.7368 37.6703 11.0654 37.9975 37.6703 4.18394 
35.7244 38.5954 4.18394 35.7244 37.6703 6.01661 -43.102 45.658 4.18394 
-36.1648 50.6839 4.18394 -4.21402 52.7037 4.18394 -4.21402 45.658 11.4153 
3.77368 49.8468 4.18394 3.77368 45.658 9.03408 16.041 45.658 4.18394 
11.7614 47.289 4.18394 11.7614 45.658 6.60904 -28.8514 53.6457 4.18394 
-28.1771 53.8764 4.18394 -28.1771 53.6457 4.68026 -20.1894 55.2373 4.18394 
-20.1894 53.6457 7.741 -7.26277 53.6457 4.18394 -12.2017 54.8697 4.18394 
-12.2017 53.6457 6.31795 -20.1894 -44.3009 12.1716 -12.2017 -46.1051 12.1716 
-4.21402 -46.3179 12.1716 3.77368 -44.2415 12.1716 -36.1648 -40.6279 12.1716 
-27.2734 -42.2066 12.1716 -28.1771 -41.9056 12.1716 -20.1894 -42.2066 13.1549 
-12.2017 -42.2066 13.8468 -4.21402 -42.2066 14.0972 8.54173 -42.2066 12.1716 
3.77368 -42.2066 13.3043 11.7614 -40.7943 12.1716 19.7491 -36.9978 12.1716 
-41.1963 -34.2189 12.1716 -44.1525 -29.7113 12.1716 -36.1648 -34.2189 15.2475 
[...]
POINT_DATA 536
SCALARS ImageScalars float
LOOKUP_TABLE default
0 0 0 0 0 0 0 0 0 
0 0 0 0 0 0 0 0 0 
0 0 0 0 0 0 0 0 0 
0 0 0 0 0 0 0 0 0 
0 0 0 0 0 0 0 0 0 
0 0 0 0 0 0 0 0 0 
0 0 0 0 0 0 0 0 0 
0 0 0 0 0 0 0 0 0 
0 0 0 0 0 0 0 0 0 
0 0 0 0 0 0 0 0 0 
0 0 0 0 0 0 0 0 0 
0 0 0 0 0 0 0 0 0 
0 0 0 0 0 0 0 0 0 
0 0 0 0 0 0 0 0 0 
0 0 0 0 0 0 0 0 0 
0 0 0 0 0 0 0 0 0 
0 0 0 0 0 0 0 0 0 
0 0 0 0 0 0 0 0 0 
0 0 0 0 0 0 0 0 0 
0 0 0 0 0 0 0 0 0 
0 0 0 0 0 0 0 0 0 
0 0 0 0 0 0 0 0 0 
0 0 0 0 0 0 0 0 0 
0 0 0 0 0 0 0 0 0 
0 0 0 0 0 0 0 0 0 
0 0 0 0 0 0 0 0 0 
0 0 0 0 0 0 0 0 0 
0 0 0 0 0 0 0 0 0 
0 0 0 0 0 0 0 0 0 
0 0 0 0 0 0 0 0 0 
0 0 0 0 0 0 0 0 0 
0 0 0 0 0 0 0 0 0 
0 0 0 0 0 0 0 0 0 
0 0 0 0 0 0 0 0 0 
0 0 0 0 0 0 0 0 0 
0 0 0 0 0 0 0 0 0 
0 0 0 0 0 0 0 0 0 
0 0 0 0 0 0 0 0 0 
0 0 0 0 0 0 0 0 0 
0 0 0 0 0 0 0 0 0 
0 0 0 0 0 0 0 0 0 
0 0 0 0 0 0 0 0 0 
0 0 0 0 0 0 0 0 0 
0 0 0 0 0 0 0 0 0 
0 0 0 0 0 0 0 0 0 
0 0 0 0 0 0 0 0 0 
0 0 0 0 0 0 0 0 0 
0 0 0 0 0 0 0 0 0 
0 0 0 0 0 0 0 0 0 
0 0 0 0 0 0 0 0 0 
0 0 0 0 0 0 0 0 0 
0 0 0 0 0 0 0 0 0 
0 0 0 0 0 0 0 0 0 
0 0 0 0 0 0 0 0 0 
0 0 0 0 0 0 0 0 0 
0 0 0 0 0 0 0 0 0 
0 0 0 0 0 0 0 0 0 
0 0 0 0 0 0 0 0 0 
0 0 0 0 0 0 0 0 0 
0 0 0 0 0 
NORMALS Normals float
0.226145 0.498675 0.836769 0.146585 0.450929 0.880441 -0.025409 0.458035 0.888571 
-0.163388 0.547137 0.820942 -0.341583 0.698686 0.628617 0.339598 0.414618 0.844254 
0.184354 0.270366 0.944942 0.157097 0.253806 0.954412 0.171974 0.103147 0.979686 
0.0144101 0.192707 0.981151 -0.1349 0.146701 0.979939 -0.186191 0.27735 0.942555 
-0.217617 0.500913 0.837693 0.518675 0.187564 0.834144 0.219239 0.115547 0.968805 
0.15463 0.131022 0.979246 0.131353 0.0399326 0.990531 0.0563078 -0.0667659 0.996179 
0.0275595 -0.0717584 0.997041 -0.0483513 -0.0164494 0.998695 -0.0438254 0.0706206 0.99654 
-0.0315415 0.218781 0.975264 -0.201987 0.313926 0.927713 -0.396644 0.550322 0.734724 
0.284379 0.00553401 0.958696 0.0991141 0.02285 0.994814 -0.0297067 -0.122648 0.992006 
0.0574857 -0.148243 0.987279 0.0650478 -0.138783 0.988184 0.0121735 -0.105052 0.994392 
0.0663328 -0.0540679 0.996332 0.0408777 0.0335922 0.998599 -0.0472647 0.120969 0.99153 
-0.222861 0.230922 0.947105 -0.493338 0.366496 0.788859 0.224041 -0.0626009 0.972567 
0.0291307 -0.0963722 0.994919 -0.040006 -0.0805354 0.995949 0.0433813 -0.142841 0.988795 
0.071337 0.0642014 0.995384 0.0388444 0.0690055 0.99686 0.0894503 -0.0907476 0.991849 
0.147767 -0.127863 0.980722 0.0107989 -0.027952 0.999551 -0.145838 0.00981862 0.98926 
-0.254719 0.156948 0.954194 -0.635951 0.325047 0.699936 0.34794 -0.152221 0.925076 
0.0798749 -0.0638348 0.994759 -0.0745215 -0.0309122 0.99674 0.167425 0.0269073 0.985518 
0.320449 0.111443 0.940687 -0.23591 0.0663384 0.969508 -0.128003 0.100858 0.986632 
0.103948 -0.111946 0.988262 0.0898699 -0.127915 0.987705 -0.0269773 -0.0268811 0.999275 
-0.153855 0.0285494 0.987681 -0.460925 0.0944409 0.882399 0.434994 -0.0216339 0.900174 
0.14083 0.0467952 0.988927 0.0583408 0.0735608 0.995583 0.0913472 0.0779367 0.992765 
-0.0124596 -0.117018 0.993052 0.198485 -0.151553 0.968316 -0.0856167 0.176799 0.980516 
-0.0792763 -0.0200823 0.99665 0.0959281 -0.0521083 0.994023 0.00568082 -0.0486395 0.9988 
-0.133032 -0.036013 0.990457 -0.401225 -0.0226137 0.9157 0.446713 0.1925 0.873723 
0.165242 0.174188 0.970749 -0.0431273 0.153806 0.987159 0.0422636 -0.00594543 0.999089 
0.111781 -0.105704 0.988095 0.086254 -0.0362319 0.995614 -0.0703373 -0.163004 0.984115 
-0.0814975 0.0613425 0.994784 0.0619865 0.0245718 0.997774 -0.01232 -0.0281827 0.999527 
-0.144386 -0.106605 0.983762 -0.364021 -0.136802 0.921289 0.37123 0.212633 0.903867 
0.0737977 0.143482 0.986898 -0.109679 0.118189 0.986915 -0.149474 0.0951261 0.984179 
-0.00312193 -0.0838319 0.996475 0.0901017 -0.028091 0.995536 0.0749787 -0.0453367 0.996154 
0.0600662 0.0855736 0.99452 0.00173975 0.0161077 0.999869 -0.118589 -0.0455823 0.991897 
-0.259786 -0.125479 0.957479 -0.447768 -0.193915 0.872869 0.630406 0.0683549 0.77325 
0.311486 0.0149578 0.950133 0.0609476 0.0268206 0.997781 -0.10061 0.0454849 0.993886 
-0.155026 0.100404 0.982795 -0.0346965 0.126076 0.991414 0.110477 0.0804278 0.990619 
0.0732902 0.094735 0.992801 -0.025 0.00600533 0.999669 -0.0692755 -0.0694729 0.995176 
-0.153086 -0.197107 0.968356 -0.316745 -0.234539 0.919056 0.32568 -0.11729 0.938177 
0.103978 -0.13553 0.985302 -0.0362525 -0.0697026 0.996909 -0.0549562 0.0204385 0.99828 
-0.0322716 0.0536182 0.99804 0.0456836 0.00391546 0.998948 0.00576567 -0.0649747 0.99787 
-0.102801 -0.159404 0.981846 -0.192004 -0.271819 0.943 -0.275543 -0.395576 0.876125 
0.357708 -0.33374 0.87216 0.114525 -0.289907 0.950178 0.0637353 -0.193633 0.979002 
-0.0357233 -0.209044 0.977254 -0.0433649 -0.179607 0.982782 -0.0112857 -0.217828 0.975922 
-0.101003 -0.351605 0.930684 -0.24499 -0.473287 0.846156 0.219037 -0.525167 0.822327 
0.0728685 -0.448176 0.890971 -0.0254277 -0.416716 0.908681 -0.066504 -0.45428 0.888373 
-0.155347 -0.561751 0.81259 0.231605 0.532179 0.814337 0.166403 0.697387 0.697109 
0.0649097 0.997861 -0.00773799 -0.0630965 0.7457 0.663287 -0.0957174 0.995314 -0.0137401 
-0.264446 0.726283 0.634493 -0.344313 0.709352 0.615035 0.399842 0.509013 0.762255 
0.263229 0.547205 0.794529 0.289196 0.54147 0.789415 0.334825 0.645844 0.686132 
-0.346763 0.710805 0.611974 -0.348933 0.702538 0.620231 0.439731 0.479216 0.759597 
0.548009 0.24021 0.80124 0.679628 0.624407 0.384995 -0.415905 0.740477 0.527936 
-0.423952 0.740328 0.521707 -0.45882 0.791925 0.402914 -0.469497 0.690434 0.55034 
0.550935 0.20146 0.809867 0.523448 0.079888 0.848304 -0.538403 0.657481 0.527105 
-0.592997 0.591662 0.54616 0.478641 -0.0296222 0.877511 0.531881 -0.0370732 0.846007 
-0.632039 0.480278 0.608161 -0.68077 0.38837 0.621064 0.611092 -0.120938 0.782266 
0.634112 -0.127631 0.762635 -0.681872 0.342557 0.646301 0.485588 -0.20656 0.849433 
0.739348 -0.27328 0.615373 -0.634707 0.174784 0.752727 -0.912961 0.297213 0.279582 
0.460401 -0.0276097 0.887282 0.829637 -0.0304219 0.557474 -0.598922 0.0381725 0.799897 
-0.808607 0.0981176 0.580109 0.529926 0.188746 0.826773 0.798559 0.184216 0.573034 
-0.552195 -0.136346 0.822491 -0.749089 -0.132818 0.649019 0.612166 0.240678 0.753211 
0.64546 0.106581 0.756321 0.70757 0.253128 0.659751 -0.474789 -0.203264 0.856306 
-0.477028 -0.249671 0.842679 -0.837026 -0.34935 0.42112 0.644573 0.0674994 0.761557 
0.662186 -0.0712344 0.745946 -0.463502 -0.32429 0.824623 -0.41911 -0.454037 0.786255 
-0.560297 -0.388676 0.731436 0.659899 -0.14488 0.737254 0.677153 -0.146869 0.721036 
-0.315479 -0.634107 0.705961 -0.405478 -0.48942 0.772046 -0.333195 -0.547534 0.767586 
-0.466706 -0.546065 0.6957 0.520694 -0.346088 0.780449 0.69893 -0.384648 0.602945 
0.384647 -0.496431 0.778205 -0.257142 -0.679526 0.687111 -0.315547 -0.635943 0.704278 
-0.305675 -0.659996 0.686271 -0.318917 -0.643669 0.695689 -0.409956 -0.855905 0.315219 
0.270436 -0.548429 0.791259 0.430076 -0.625216 0.65126 0.225378 -0.562195 0.795702 
0.124487 -0.589571 0.798066 -0.019357 -0.604031 0.796726 -0.105373 -0.617906 0.779159 
-0.237043 -0.671496 0.702071 -0.189618 -0.639254 0.745251 -0.294238 -0.76366 0.574671 
0.126032 -0.864747 0.486137 -0.0779391 -0.891763 0.445739 -0.233767 -0.9551 0.182034 
0.0634382 0.997791 -0.0197271 -0.0955557 0.994177 -0.0498108 0.40531 0.909066 0.0965557 
0.073427 0.997133 -0.018309 0.290499 0.95653 0.0257074 0.0634762 0.997576 -0.0284985 
-0.11083 0.992697 -0.0476432 -0.0953327 0.992926 -0.0707753 -0.303909 0.952699 -0.00197015 
-0.437469 0.899095 -0.0157656 0.669683 0.684384 0.288347 0.52995 0.827882 0.183751 
0.551619 0.811388 0.193305 -0.483206 0.874542 -0.0410798 -0.497774 0.865559 -0.0550318 
-0.522216 0.850812 -0.0583881 0.722002 0.621911 0.303215 -0.535534 0.841044 -0.0764697 
-0.507185 0.805046 -0.307676 -0.578549 0.809359 -0.101086 0.885632 0.322906 0.333747 
-0.629562 0.769437 -0.107783 -0.640114 0.761368 -0.102823 0.933162 -0.0294433 0.358249 
0.999326 -0.0237154 0.0280276 -0.740557 0.671721 -0.019134 -0.759104 0.650941 -0.00603837 
0.895401 -0.226913 0.383102 -0.848206 0.521363 0.0934152 -0.920457 0.368732 0.129595 
0.854078 -0.270826 0.444077 -0.941186 0.309079 0.136525 -0.876971 0.385067 -0.287482 
0.870971 -0.0320124 0.49029 -0.958308 0.141363 0.248319 0.852323 0.187695 0.488176 
-0.953106 -0.109299 0.282212 0.860024 0.283013 0.424573 -0.883824 -0.342006 0.319196 
-0.858618 -0.401621 0.318552 0.941454 0.0619366 0.331404 -0.791395 -0.524811 0.313475 
-0.682495 -0.672427 0.286431 0.907379 -0.19244 0.373671 -0.643356 -0.713971 0.276294 
-0.525195 -0.807001 0.270036 0.84095 -0.415153 0.347061 0.744094 -0.580955 0.329871 
-0.383972 -0.9168 0.109742 -0.384761 -0.908111 0.165205 -0.430284 -0.875435 0.220158 
-0.406367 -0.890211 0.205888 0.661982 -0.678872 0.317666 0.512555 -0.798037 0.316897 
0.306573 -0.911626 0.273772 -0.310798 -0.946143 0.0906495 -0.381671 -0.918147 0.106459 
-0.36616 -0.924897 0.102433 0.305126 -0.912256 0.27329 0.305717 -0.919945 0.245436 
0.105784 -0.966446 0.234079 -0.102933 -0.974801 0.197907 -0.248274 -0.960499 0.125707 
-0.238272 -0.962056 0.132948 -0.257336 -0.966303 -0.00603457 0.252246 0.85725 -0.448881 
0.186485 0.812821 -0.551856 0.067015 0.81561 -0.574709 -0.0542746 0.813826 -0.578568 
-0.238551 0.805273 -0.542798 -0.410419 0.755322 -0.510925 0.592964 0.731719 -0.336127 
0.345645 0.821009 -0.454394 0.461661 0.786777 -0.409696 0.25744 0.79159 -0.554175 
0.163195 0.69067 -0.704516 0.0480258 0.63907 -0.767648 -0.0671702 0.651145 -0.755975 
-0.213033 0.667703 -0.713295 -0.415135 0.754762 -0.507934 -0.403349 0.746378 -0.529366 
-0.43519 0.741176 -0.511144 0.648351 0.688306 -0.325387 0.591578 0.667429 -0.452298 
0.256706 0.598208 -0.759111 0.0933764 0.458468 -0.883792 -0.259956 0.552241 -0.792119 
-0.453912 0.734764 -0.50407 -0.373953 0.67885 -0.631919 -0.468741 0.723174 -0.507249 
-0.499325 0.70567 -0.502697 0.893593 0.376135 -0.244979 0.978084 0.0639848 -0.198137 
0.539696 0.35216 -0.764665 -0.382165 0.578135 -0.720909 -0.513086 0.698039 -0.499485 
-0.487107 0.682014 -0.545512 -0.556228 0.666762 -0.496023 0.981577 -0.0175331 -0.190262 
0.983863 -0.0412951 -0.174095 0.974738 -0.0117099 -0.223045 -0.384634 0.497946 -0.777243 
-0.590428 0.651419 -0.476496 -0.513405 0.618733 -0.59463 -0.657725 0.60743 -0.445451 
0.981667 -0.157564 -0.107251 -0.710891 0.559991 -0.425492 -0.614825 0.543579 -0.571412 
0.975248 -0.216779 -0.0435764 -0.850171 0.391612 -0.351922 -0.856881 0.382306 -0.345829 
0.999504 -0.0287993 0.0127293 -0.939697 0.206948 -0.27229 -0.80905 0.222966 -0.543806 
0.979983 0.195828 0.0358382 -0.966057 -0.0694809 -0.24881 -0.788846 -0.0544741 -0.612172 
0.980722 0.195379 0.00329963 -0.922637 -0.318344 -0.21771 -0.887627 -0.412334 -0.20518 
-0.863767 -0.312493 -0.39529 0.996507 0.022552 -0.0804068 -0.820509 -0.530717 -0.212381 
-0.679468 -0.709705 -0.186124 -0.60341 -0.417301 -0.679526 0.984292 -0.165366 -0.0618296 
-0.647473 -0.739221 -0.185286 -0.502441 -0.836831 -0.217409 -0.454658 -0.622396 -0.63711 
0.878728 -0.455339 -0.143191 0.736103 -0.666461 -0.118243 -0.324622 -0.896735 -0.300812 
-0.316285 -0.915955 -0.246961 -0.273378 -0.751759 -0.600102 -0.395834 -0.892287 -0.217118 
-0.360334 -0.905661 -0.223469 -0.351977 -0.881118 -0.315822 0.693974 -0.709173 -0.124392 
0.480252 -0.855478 -0.193687 -0.279538 -0.881875 -0.379676 -0.237254 -0.559002 -0.794498 
-0.305866 -0.855967 -0.416854 -0.226076 -0.688192 -0.689406 -0.318418 -0.886969 -0.334508 
-0.308966 -0.87367 -0.375821 -0.264995 -0.831751 -0.48782 0.276958 -0.936492 -0.215119 
0.257167 -0.94182 -0.216427 0.25909 -0.934124 -0.24553 0.0615892 -0.968076 -0.242974 
0.0378944 -0.885143 -0.463774 -0.229812 -0.910374 -0.344102 -0.147083 -0.938442 -0.312559 
-0.167841 -0.88381 -0.436703 0.135833 0.447267 -0.884026 0.0504274 0.487045 -0.87192 
-0.0619467 0.504031 -0.861461 -0.176965 0.491061 -0.852961 0.239992 0.520928 -0.819169 
0.0943165 0.448184 -0.888952 0.0895942 0.448793 -0.889133 0.109703 0.389751 -0.914363 
0.0510083 0.367047 -0.928803 -0.0304864 0.377774 -0.925396 -0.216154 0.506211 -0.834882 
-0.154191 0.446848 -0.881222 -0.234171 0.512503 -0.826138 -0.301429 0.532622 -0.790857 
0.414318 0.309131 -0.856025 0.475869 0.258817 -0.840573 0.257497 0.314042 -0.913823 
0.0269782 0.253334 -0.967003 0.0842856 0.195762 -0.977023 0.0532469 0.172174 -0.983626 
0.0130899 0.222021 -0.974954 -0.0559645 0.285189 -0.956836 -0.13477 0.345866 -0.928555 
-0.331666 0.526248 -0.782982 -0.269273 0.467548 -0.841957 -0.347736 0.514898 -0.783556 
0.554785 0.177929 -0.812746 0.468804 0.202319 -0.85982 0.155211 0.109869 -0.981753 
0.0436736 0.141438 -0.988983 0.00411906 0.0493166 -0.998775 0.0660098 0.00131215 -0.997818 
0.0850117 0.0836929 -0.992859 -0.00833143 0.0962583 -0.995322 -0.0542255 0.113564 -0.99205 
-0.13656 0.232977 -0.962846 -0.381779 0.494814 -0.780643 -0.277515 0.376695 -0.883791 
-0.382089 0.49472 -0.780551 -0.422802 0.467207 -0.776503 0.651445 0.000865395 -0.758696 
0.53106 0.0107816 -0.847266 0.201853 0.0391986 -0.978631 -0.0457237 0.0236735 -0.998674 
-0.0678007 -0.0444519 -0.996708 0.0933868 -0.118082 -0.988603 0.110062 0.0364754 -0.993255 
-0.0253702 -0.000945141 -0.999678 0.00300396 -0.0668799 -0.997756 0.0121603 0.0432874 -0.998989 
-0.122479 0.195624 -0.973001 -0.263121 0.333843 -0.905161 -0.437566 0.456496 -0.774692 
-0.404929 0.439739 -0.801662 -0.540384 0.368126 -0.756616 0.72008 -0.0713335 -0.690215 
0.586876 -0.0352522 -0.808909 0.18453 -0.0285372 -0.982412 -0.0389565 0.00308369 -0.999236 
-0.133886 0.0105596 -0.99094 0.0999375 0.00557601 -0.994978 0.250043 -0.0637408 -0.966134 
-0.12388 0.0396433 -0.991505 0.00324536 0.0615827 -0.998097 0.128016 -0.0310106 -0.991287 
0.0147689 0.0666052 -0.99767 -0.126646 0.18213 -0.975084 -0.298871 0.284374 -0.910938 
-0.548497 0.357785 -0.755739 -0.537461 0.353822 -0.765471 0.768124 0.0368342 -0.639241 
0.684893 0.0530882 -0.726707 0.223787 0.0582153 -0.972898 -0.00420985 0.0613273 -0.998109 
-0.0589897 0.0790099 -0.995127 0.0171431 0.127004 -0.991754 0.133917 -0.0309316 -0.99051 
0.125117 -0.0120115 -0.992069 -0.079908 0.041115 -0.995954 0.0118533 -0.0505384 -0.998652 
0.0935684 -0.00187138 -0.995611 -0.0417923 0.0506766 -0.99784 -0.238911 0.135074 -0.961601 
-0.610073 0.211527 -0.763588 -0.447665 0.173831 -0.877143 0.804233 0.189935 -0.563147 
0.610371 0.171915 -0.773235 0.19267 0.0921017 -0.976932 -0.0213559 0.0676576 -0.99748 
-0.0761731 0.0530895 -0.99568 0.026853 0.0225329 -0.999385 0.0740719 0.048506 -0.996073 
-0.0434142 -0.0174162 -0.998905 -0.048075 -0.0493722 -0.997623 0.100423 0.012176 -0.99487 
0.11155 -0.0348117 -0.993149 0.0113637 -0.0472751 -0.998817 -0.196941 -0.0368282 -0.979723 
-0.662982 -0.0446565 -0.747303 -0.41893 -0.00669958 -0.907994 0.803257 0.157273 -0.574494 
0.489596 0.0812142 -0.868159 0.143671 0.051743 -0.988272 -0.0428224 0.0787944 -0.995971 
-0.103292 0.0857232 -0.99095 0.012731 0.0398302 -0.999125 0.100324 -0.0515984 -0.993616 
0.00372634 -0.0274816 -0.999615 -0.0352733 0.102021 -0.994157 0.0267296 0.0994974 -0.994679 
0.0365269 -0.00312682 -0.999328 -0.0448318 -0.0421601 -0.998105 -0.186296 -0.1759 -0.966619 
-0.60328 -0.27342 -0.749196 -0.551504 -0.357045 -0.753898 -0.496838 -0.253502 -0.829994 
0.805279 -0.0271443 -0.592274 0.460953 -0.0155993 -0.887288 0.180944 -0.0186063 -0.983317 
0.0204266 0.00710751 -0.999766 -0.116192 0.07398 -0.990468 -0.104279 0.0523232 -0.993171 
0.00636555 -0.061832 -0.998066 0.112047 -0.109382 -0.987665 0.0762511 -0.0246498 -0.996784 
-0.0110609 0.00464759 -0.999928 -0.0266081 -0.0953509 -0.995088 -0.179305 -0.206195 -0.961942 
-0.534352 -0.377789 -0.756137 -0.426703 -0.552781 -0.715792 -0.336533 -0.288775 -0.896301 
0.723494 -0.24782 -0.644315 0.561909 -0.217779 -0.798017 0.145439 -0.148804 -0.978113 
0.0500687 -0.120972 -0.991392 -0.0597194 -0.0495798 -0.996983 -0.12253 -0.035825 -0.991818 
-0.0657048 -0.0985272 -0.992963 0.0425686 -0.184305 -0.981947 0.0735903 -0.244035 -0.96697 
-0.0448875 -0.278119 -0.959497 -0.252942 -0.688378 -0.679821 -0.158507 -0.359019 -0.919772 
-0.410643 -0.577769 -0.705376 -0.317476 -0.649212 -0.691182 -0.267405 -0.478901 -0.836151 
0.644974 -0.386924 -0.659013 0.629571 -0.416336 -0.655976 0.617701 -0.385778 -0.685288 
0.239841 -0.295001 -0.924906 0.0994339 -0.22177 -0.970016 -0.0271162 -0.269752 -0.962548 
-0.151717 -0.261915 -0.953091 -0.215862 -0.500527 -0.838377 -0.145699 -0.282482 -0.948143 
-0.121068 -0.504218 -0.855048 -0.0556525 -0.394904 -0.917035 -0.0840956 -0.612159 -0.78625 
-0.0288961 -0.52832 -0.848553 -0.228693 -0.703137 -0.673274 -0.160441 -0.697574 -0.698319 
-0.13731 -0.640284 -0.755766 0.337888 -0.631639 -0.697757 0.313711 -0.638232 -0.703026 
0.310254 -0.621822 -0.719083 0.165813 -0.639274 -0.750889 0.124907 -0.575146 -0.808459 
-0.00391667 -0.604974 -0.796235 -0.0483088 -0.439358 -0.897012 -0.209453 -0.512759 -0.832591 
-0.178674 -0.532867 -0.827121 -0.151413 -0.459475 -0.875189 
