# vtk DataFile Version 4.2
vtk output
ASCII
DATASET POLYDATA
POINTS 562 float
30.7365 -17.6423 -18.3703 37.9861 -17.6423 -18.4221 30.7365 -10.3927 -18.8943 
37.9861 4.1065 -18.5808 30.7365 11.3561 -18.5717 -34.5099 -32.1415 -12.4073 
-27.2603 -32.1415 -13.3952 -20.0107 -32.1415 -13.865 -12.7611 -32.1415 -14.1289 
-5.51146 -32.1415 -14.5421 1.73814 -32.1415 -14.2674 8.98773 -32.1415 -14.0756 
16.2373 -32.1415 -14.1484 23.4869 -32.1415 -14.4912 30.7365 -32.1415 -12.9653 
-41.7595 -24.8919 -13.8014 -34.5099 -24.8919 -15.0158 -27.2603 -24.8919 -16.1901 
-20.0107 -24.8919 -15.5088 -12.7611 -24.8919 -15.5887 -5.51146 -24.8919 -15.8438 
1.73814 -24.8919 -15.267 8.98773 -24.8919 -15.5924 16.2373 -24.8919 -16.665 
23.4869 -24.8919 -17.3131 30.7365 -17.8182 -18.326 30.7365 -24.8919 -16.6465 
37.9861 -17.9667 -18.326 37.9861 -24.8919 -15.7494 45.2357 -24.8919 -12.8949 
-49.009 -17.6423 -11.9555 -41.7595 -17.6423 -14.7052 -34.5099 -17.6423 -16.4528 
-27.2603 -17.6423 -16.0312 -20.0107 -17.6423 -15.2449 -12.7611 -17.6423 -14.9281 
-5.51146 -17.6423 -15.4281 1.73814 -17.6423 -14.7773 8.98773 -17.6423 -15.7123 
16.2373 -17.6423 -17.0908 30.243 -17.6423 -18.326 23.4869 -17.6423 -17.7402 
38.2953 -17.6423 -18.326 37.9861 -16.0156 -18.326 45.2357 -17.6423 -15.8282 
52.4853 -17.6423 -13.5319 -41.7595 -10.3927 -13.8641 -34.5099 -10.3927 -15.9757 
-27.2603 -10.3927 -15.4867 -20.0107 -10.3927 -14.5153 -12.7611 -10.3927 -13.2013 
-5.51146 -10.3927 -14.7395 1.73814 -10.3927 -14.2544 8.98773 -10.3927 -15.3748 
16.2373 -10.3927 -16.4325 28.0856 -10.3927 -18.326 23.4869 -10.3927 -17.3561 
34.9806 -10.3927 -18.326 30.7365 -6.80956 -18.326 37.9861 -10.3927 -17.9304 
45.2357 -10.3927 -17.1763 52.4853 -10.3927 -15.3227 -41.7595 -3.1431 -12.5092 
-34.5099 -3.1431 -13.798 -27.2603 -3.1431 -13.8172 -20.0107 -3.1431 -12.9492 
-5.51146 -3.1431 -16.4002 1.73814 -3.1431 -13.8888 8.98773 -3.1431 -17.373 
16.2373 -3.1431 -15.5287 23.4869 -3.1431 -16.4444 30.7365 -3.1431 -17.7433 
37.9861 -2.51802 -18.326 37.9861 -3.1431 -18.3021 45.2357 -3.1431 -18.0915 
52.4853 -3.1431 -17.659 -34.5099 4.1065 -11.924 -27.2603 4.1065 -12.3735 
-20.0107 4.1065 -11.8674 -12.7611 4.1065 -11.8011 -5.51146 4.1065 -14.6332 
1.73814 4.1065 -13.3754 8.98773 4.1065 -16.4205 16.2373 4.1065 -15.5935 
23.4869 4.1065 -16.7602 34.8506 4.1065 -18.326 30.7365 8.31488 -18.326 
30.7365 4.1065 -17.9917 41.4697 4.1065 -18.326 37.9861 6.85699 -18.326 
45.2357 4.1065 -18.0383 52.4853 4.1065 -17.5709 -34.5099 11.3561 -11.5064 
-27.2603 11.3561 -12.6108 -20.0107 11.3561 -12.8253 -12.7611 11.3561 -12.7818 
-5.51146 11.3561 -11.8652 1.73814 11.3561 -14.3123 8.98773 11.3561 -14.5435 
16.2373 11.3561 -15.6336 29.5151 11.3561 -18.326 23.4869 11.3561 -17.1319 
33.3968 11.3561 -18.326 30.7365 12.5059 -18.326 37.9861 11.3561 -17.9093 
45.2357 11.3561 -16.9989 52.4853 11.3561 -14.5397 -34.5099 18.6057 -12.2752 
-27.2603 18.6057 -13.0977 -20.0107 18.6057 -13.6254 -12.7611 18.6057 -12.6206 
1.73814 18.6057 -12.2798 8.98773 18.6057 -14.3027 16.2373 18.6057 -15.5875 
23.4869 18.6057 -16.5386 30.7365 18.6057 -17.0088 37.9861 18.6057 -17.3199 
45.2357 18.6057 -14.7088 52.4853 18.6057 -11.4471 -34.5099 25.8553 -11.3367 
-27.2603 25.8553 -12.5932 -20.0107 25.8553 -12.9809 -12.7611 25.8553 -12.1491 
1.73814 25.8553 -11.162 8.98773 25.8553 -13.1524 16.2373 25.8553 -14.5227 
23.4869 25.8553 -15.2751 30.7365 25.8553 -15.2401 37.9861 25.8553 -13.4664 
23.4869 33.1049 -11.4302 -34.5099 -33.6988 -11.0764 -27.2603 -35.1988 -11.0764 
-20.0107 -35.7406 -11.0764 -12.7611 -36.262 -11.0764 -5.51146 -36.5847 -11.0764 
1.73814 -36.4136 -11.0764 8.98773 -36.1213 -11.0764 16.2373 -35.7392 -11.0764 
23.4869 -35.4831 -11.0764 30.7365 -34.0921 -11.0764 -39.5774 -32.1415 -11.0764 
-41.7595 -30.8899 -11.0764 -41.7595 -32.1415 -10.0895 36.8103 -32.1415 -11.0764 
37.9861 -31.7002 -11.0764 37.9861 -32.1415 -9.8592 45.2357 -26.6565 -11.0764 
-47.6346 -24.8919 -11.0764 -49.009 -22.2537 -11.0764 -49.009 -24.8919 -10.1071 
47.3819 -24.8919 -11.0764 52.4853 -20.6898 -11.0764 -50.0868 -17.6423 -11.0764 
-49.009 -11.1915 -11.0764 54.8345 -17.6423 -11.0764 -48.725 -10.3927 -11.0764 
-49.009 -10.3927 -10.9033 -12.7611 -3.24543 -11.0764 57.031 -10.3927 -11.0764 
-46.6129 -3.1431 -11.0764 -49.009 -3.1431 -9.88017 -41.7595 1.68576 -11.0764 
-12.8766 -3.1431 -11.0764 -12.6911 -3.1431 -11.0764 -12.7611 -2.80615 -11.0764 
-12.7611 -3.1431 -11.0463 59.1556 -3.1431 -11.0764 59.7349 -3.1431 -9.16535 
-49.009 4.1065 -6.58646 -38.3775 4.1065 -11.0764 -41.7595 4.1065 -10.2771 
59.1432 4.1065 -11.0764 59.7349 4.1065 -9.29146 -49.009 11.3561 -6.77084 
-36.1165 11.3561 -11.0764 -41.7595 11.3561 -9.6221 -5.51146 16.2254 -11.0764 
56.1429 11.3561 -11.0764 -49.009 18.6057 -5.03071 -37.745 18.6057 -11.0764 
-41.7595 18.6057 -9.46007 -6.69963 18.6057 -11.0764 -4.03591 18.6057 -11.0764 
-5.51146 18.6057 -10.7755 45.2357 25.416 -11.0764 52.8712 18.6057 -11.0764 
52.4853 19.0103 -11.0764 -35.2231 25.8553 -11.0764 -41.7595 25.8553 -8.07359 
-34.5099 26.9699 -11.0764 -27.2603 30.5581 -11.0764 -20.0107 31.7658 -11.0764 
-5.8232 25.8553 -11.0764 -12.7611 31.0744 -11.0764 -2.89165 25.8553 -11.0764 
-5.51146 25.8553 -11.0287 1.73814 26.2612 -11.0764 8.98773 31.1632 -11.0764 
16.2373 33.0855 -11.0764 30.7365 31.4947 -11.0764 44.5481 25.8553 -11.0764 
37.9861 28.7529 -11.0764 45.2357 25.8553 -9.81044 -41.7595 33.1049 -4.10393 
-34.5099 33.1049 -9.1349 -27.2603 33.1049 -10.1824 -20.0107 33.1049 -10.5961 
-12.7611 33.1049 -10.5654 -5.51146 33.1049 -9.45979 1.73814 33.1049 -9.41411 
8.98773 33.1049 -10.1493 16.4503 33.1049 -11.0764 16.2373 33.1049 -11.0633 
25.1287 33.1049 -11.0764 23.4869 33.4928 -11.0764 30.7365 33.1049 -8.58361 
-27.2603 40.3545 -5.01935 -20.0107 40.3545 -6.48336 -12.7611 40.3545 -5.68619 
-5.51146 40.3545 -6.12701 1.73814 40.3545 -3.88709 -41.7595 -35.3814 -3.82681 
-34.5099 -37.9089 -3.82681 -27.2603 -39.2961 -3.82681 -20.0107 -39.2138 -3.82681 
-12.7611 -38.977 -3.82681 -5.51146 -38.9781 -3.82681 1.73814 -38.779 -3.82681 
8.98773 -38.9306 -3.82681 16.2373 -38.5689 -3.82681 23.4869 -37.7336 -3.82681 
30.7365 -36.1825 -3.82681 37.9861 -33.5619 -3.82681 -47.1755 -32.1415 -3.82681 
-49.009 -30.4868 -3.82681 40.3587 -32.1415 -3.82681 37.9861 -32.1415 -0.217247 
45.2357 -28.475 -3.82681 -53.0794 -24.8919 -3.82681 49.4623 -24.8919 -3.82681 
45.2357 -24.8919 2.50152 52.4853 -21.6713 -3.82681 -54.7823 -17.6423 -3.82681 
55.6316 -17.6423 -3.82681 52.4853 -17.6423 1.32507 -54.8025 -10.3927 -3.82681 
-56.2586 -10.3927 3.11851 58.9746 -10.3927 -3.82681 59.7349 -7.54819 -3.82681 
-53.9097 -3.1431 -3.82681 60.8438 -3.1431 -3.82681 59.7349 -3.1431 -1.69567 
-51.8183 4.1065 -3.82681 60.9618 4.1065 -3.82681 59.7349 7.9105 -3.82681 
59.7349 4.1065 -1.43278 -51.9268 11.3561 -3.82681 58.5501 11.3561 -3.82681 
-50.2044 18.6057 -3.82681 -49.009 22.061 -3.82681 54.4082 18.6057 -3.82681 
52.4853 20.6393 -3.82681 52.4853 18.6057 0.288792 -46.9318 25.8553 -3.82681 
-49.009 25.8553 -0.0671026 37.9861 31.8843 -3.82681 46.8515 25.8553 -3.82681 
45.2357 27.0949 -3.82681 45.2357 25.8553 -0.530447 -42.0571 33.1049 -3.82681 
-41.7595 33.3724 -3.82681 -34.5099 37.8649 -3.82681 8.98773 39.4652 -3.82681 
16.2373 38.4632 -3.82681 23.4869 37.357 -3.82681 35.435 33.1049 -3.82681 
30.7365 35.1996 -3.82681 30.7365 33.1049 3.30301 -29.4879 40.3545 -3.82681 
-27.2603 41.2205 -3.82681 -20.0107 42.4425 -3.82681 -12.7611 41.9834 -3.82681 
-5.51146 42.4712 -3.82681 2.14194 40.3545 -3.82681 1.73814 40.4037 -3.82681 
8.98773 40.3545 -0.525697 -41.7595 -34.8487 3.42279 -34.5099 -37.3468 3.42279 
-27.2603 -38.7518 3.42279 -20.0107 -38.575 3.42279 -12.7611 -38.1439 3.42279 
-5.51146 -37.8689 3.42279 1.73814 -37.647 3.42279 8.98773 -37.7167 3.42279 
16.2373 -37.3692 3.42279 23.4869 -36.1106 3.42279 30.7365 -33.9129 3.42279 
-46.3419 -32.1415 3.42279 -49.009 -29.8571 3.42279 -41.7595 -32.1415 7.95764 
23.4869 -32.1415 9.34383 34.461 -32.1415 3.42279 30.7365 -32.1415 5.90605 
37.9861 -29.6387 3.42279 -52.8372 -24.8919 3.42279 -49.009 -24.8919 9.22128 
44.2743 -24.8919 3.42279 37.9861 -24.8919 7.66175 45.2357 -23.7736 3.42279 
-55.3246 -17.6423 3.42279 -56.2586 -10.7719 3.42279 37.9861 -17.6423 10.0312 
50.2133 -17.6423 3.42279 45.2357 -17.6423 6.51429 52.4853 -14.675 3.42279 
-56.3078 -10.3927 3.42279 -56.2586 -7.39855 3.42279 -56.2586 -10.3927 3.57179 
45.2357 -10.3927 9.52629 54.4205 -10.3927 3.42279 52.4853 -10.3927 5.09906 
-56.1888 -3.1431 3.42279 45.2357 -3.1431 10.3599 56.0315 -3.1431 3.42279 
52.4853 -3.1431 6.48126 -55.5029 4.1065 3.42279 56.3698 4.1065 3.42279 
52.4853 4.1065 6.86745 -54.7729 11.3561 3.42279 45.2357 11.3561 10.0649 
54.8966 11.3561 3.42279 52.4853 16.0284 3.42279 52.4853 11.3561 5.77718 
-53.0813 18.6057 3.42279 50.467 18.6057 3.42279 45.2357 23.616 3.42279 
45.2357 18.6057 7.51418 -50.3691 25.8553 3.42279 -49.009 27.7545 3.42279 
-49.009 25.8553 6.92478 30.7365 33.0609 3.42279 30.7365 25.8553 10.3911 
42.8981 25.8553 3.42279 37.9861 29.2506 3.42279 37.9861 25.8553 7.18867 
-44.3169 33.1049 3.42279 -41.7595 35.224 3.42279 -41.7595 33.1049 7.67947 
-34.5099 39.4367 3.42279 16.2373 38.7386 3.42279 30.6464 33.1049 3.42279 
23.4869 36.0047 3.42279 23.4869 33.1049 7.62601 -32.2217 40.3545 3.42279 
-27.2603 42.2805 3.42279 -27.2603 40.3545 6.75342 -20.0107 44.0593 3.42279 
-20.0107 40.3545 9.75239 -12.7611 45.0639 3.42279 -5.51146 44.6387 3.42279 
1.73814 43.3245 3.42279 11.5556 40.3545 3.42279 8.98773 41.2003 3.42279 
8.98773 40.3545 5.53119 -34.5099 -32.5652 10.6724 -27.2603 -34.1838 10.6724 
-20.0107 -34.7159 10.6724 -12.7611 -34.6584 10.6724 -5.51146 -34.4702 10.6724 
1.73814 -33.6943 10.6724 8.98773 -33.3207 10.6724 16.2373 -32.9149 10.6724 
-35.757 -32.1415 10.6724 -41.7595 -29.3537 10.6724 -34.5099 -32.1415 11.1044 
-27.2603 -32.1415 12.3893 -20.0107 -32.1415 13.0577 -12.7611 -32.1415 13.0317 
-5.51146 -32.1415 12.9963 1.73814 -32.1415 12.2368 8.98773 -32.1415 11.7172 
19.3382 -32.1415 10.6724 16.2373 -32.1415 11.4079 23.4869 -30.6189 10.6724 
[...]
POINT_DATA 562
SCALARS ImageScalars float
LOOKUP_TABLE default
0 0 0 0 0 0 0 0 0 
0 0 0 0 0 0 0 0 0 
0 0 0 0 0 0 0 0 0 
0 0 0 0 0 0 0 0 0 
0 0 0 0 0 0 0 0 0 
0 0 0 0 0 0 0 0 0 
0 0 0 0 0 0 0 0 0 
0 0 0 0 0 0 0 0 0 
0 0 0 0 0 0 0 0 0 
0 0 0 0 0 0 0 0 0 
0 0 0 0 0 0 0 0 0 
0 0 0 0 0 0 0 0 0 
0 0 0 0 0 0 0 0 0 
0 0 0 0 0 0 0 0 0 
0 0 0 0 0 0 0 0 0 
0 0 0 0 0 0 0 0 0 
0 0 0 0 0 0 0 0 0 
0 0 0 0 0 0 0 0 0 
0 0 0 0 0 0 0 0 0 
0 0 0 0 0 0 0 0 0 
0 0 0 0 0 0 0 0 0 
0 0 0 0 0 0 0 0 0 
0 0 0 0 0 0 0 0 0 
0 0 0 0 0 0 0 0 0 
0 0 0 0 0 0 0 0 0 
0 0 0 0 0 0 0 0 0 
0 0 0 0 0 0 0 0 0 
0 0 0 0 0 0 0 0 0 
0 0 0 0 0 0 0 0 0 
0 0 0 0 0 0 0 0 0 
0 0 0 0 0 0 0 0 0 
0 0 0 0 0 0 0 0 0 
0 0 0 0 0 0 0 0 0 
0 0 0 0 0 0 0 0 0 
0 0 0 0 0 0 0 0 0 
0 0 0 0 0 0 0 0 0 
0 0 0 0 0 0 0 0 0 
0 0 0 0 0 0 0 0 0 
0 0 0 0 0 0 0 0 0 
0 0 0 0 0 0 0 0 0 
0 0 0 0 0 0 0 0 0 
0 0 0 0 0 0 0 0 0 
0 0 0 0 0 0 0 0 0 
0 0 0 0 0 0 0 0 0 
0 0 0 0 0 0 0 0 0 
0 0 0 0 0 0 0 0 0 
0 0 0 0 0 0 0 0 0 
0 0 0 0 0 0 0 0 0 
0 0 0 0 0 0 0 0 0 
0 0 0 0 0 0 0 0 0 
0 0 0 0 0 0 0 0 0 
0 0 0 0 0 0 0 0 0 
0 0 0 0 0 0 0 0 0 
0 0 0 0 0 0 0 0 0 
0 0 0 0 0 0 0 0 0 
0 0 0 0 0 0 0 0 0 
0 0 0 0 0 0 0 0 0 
0 0 0 0 0 0 0 0 0 
0 0 0 0 0 0 0 0 0 
0 0 0 0 0 0 0 0 0 
0 0 0 0 0 0 0 0 0 
0 0 0 0 0 0 0 0 0 
0 0 0 0 
NORMALS Normals float
0.0487174 0.160469 0.985838 -0.170453 0.133085 0.976337 0.0427336 -0.0471502 0.997973 
0.00480521 -0.0270037 0.999624 0.0541815 -0.0657489 0.996364 0.19195 0.530063 0.825947 
0.0846788 0.511465 0.855122 0.0527502 0.444364 0.894292 0.0469814 0.427869 0.902619 
0.00996102 0.429746 0.902895 -0.0345073 0.409082 0.911845 -0.00863286 0.443399 0.896283 
0.0261783 0.550145 0.834659 -0.068475 0.585521 0.80776 -0.20726 0.692179 0.691326 
0.303361 0.277705 0.911511 0.144909 0.240328 0.959815 0.029352 0.169978 0.985011 
-0.0390894 0.0834962 0.995741 0.022707 0.051141 0.998433 -0.0220715 0.0567308 0.998146 
-0.0174988 0.0304868 0.999382 0.100259 0.108289 0.989051 0.111464 0.172413 0.978698 
-0.000162189 0.19733 0.980337 0.04553 0.16371 0.985457 -0.100902 0.3102 0.945302 
-0.169466 0.142564 0.97517 -0.206997 0.406397 0.88994 -0.518208 0.599531 0.609937 
0.585 0.0342029 0.810312 0.304248 -0.00635072 0.952572 0.0980299 0.0638094 0.993136 
-0.0813416 -0.047308 0.995563 -0.0747585 -0.067626 0.994906 0.0129883 -0.16592 0.986054 
-0.012554 -0.0691532 0.997527 0.0162139 -0.0654664 0.997723 0.16208 -0.0139808 0.986679 
0.134166 -0.014437 0.990854 0.0520001 0.149422 0.987405 0.086131 0.00141148 0.996283 
-0.175537 0.135509 0.975102 -0.158331 0.103254 0.981972 -0.309693 0.23206 0.922084 
-0.644347 0.448769 0.619212 0.310629 -0.157339 0.937419 0.105351 -0.17502 0.978912 
-0.0977545 -0.149966 0.983847 -0.158343 -0.159304 0.974448 -0.000105843 -0.244402 0.969674 
0.0875229 0.0214768 0.995931 0.0490519 -0.0623326 0.996849 0.144475 0.111645 0.98319 
0.132682 -0.107734 0.985286 0.0910946 -0.0621174 0.993903 0.157355 -0.0879187 0.983621 
-0.0502413 -0.0239356 0.99845 0.0865076 -0.0541012 0.994781 -0.108703 -0.00578276 0.994057 
-0.154585 0.168496 0.973505 -0.482974 0.230007 0.844886 0.238107 -0.228874 0.943887 
0.0909182 -0.269297 0.958756 -0.0570421 -0.210922 0.975837 -0.167166 -0.179545 0.969443 
0.227786 -0.0279855 0.973309 0.16367 -0.0629577 0.984504 0.0712676 0.0743859 0.99468 
-0.0583951 -0.0594047 0.996525 0.15357 -0.0419369 0.987247 0.127667 -0.0558057 0.990246 
0.0222607 0.0385666 0.999008 0.0239195 0.0447147 0.998713 -0.0363366 0.0568618 0.997721 
-0.394729 0.110485 0.91213 0.13384 -0.152548 0.979192 -0.00436668 -0.0827846 0.996558 
-0.0387295 -0.00753444 0.999221 0.196858 0.119579 0.973113 0.106636 -0.234208 0.966321 
0.134538 0.0234304 0.990631 0.109438 -0.209205 0.971729 0.0283599 0.00721837 0.999572 
0.167904 0.0480227 0.984633 0.0563406 0.00893685 0.998372 0.0840696 -0.0144258 0.996355 
0.12408 0.0556784 0.990709 -0.0237313 -0.0475995 0.998585 -0.0353714 -0.0461223 0.998309 
-0.061713 -0.0716796 0.995517 -0.395393 -0.150938 0.906025 0.197059 0.0270717 0.980018 
0.0922329 0.050473 0.994457 0.0110878 0.121181 0.992568 -0.0520809 0.0460676 0.99758 
0.0674487 -0.288377 0.955138 0.177497 -0.105628 0.978436 0.085593 -0.133312 0.987371 
0.181398 -0.000386779 0.98341 0.0791224 -0.0574052 0.995211 0.197636 -0.0149558 0.980161 
-0.00286804 -0.0703648 0.997517 0.0556855 -0.0868029 0.994668 -0.101124 -0.0806176 0.991602 
-0.193292 -0.229439 0.953937 -0.522346 -0.330208 0.786205 0.235337 -0.00432889 0.971904 
0.0991476 -0.00207177 0.995071 -0.0329127 0.0122625 0.999383 -0.189514 -0.0421335 0.980974 
0.245639 -0.179152 0.952663 0.21836 -0.089893 0.971719 0.155012 -0.0722584 0.985266 
0.0953252 -0.129813 0.986946 0.0507072 -0.20703 0.97702 -0.162211 -0.300046 0.940032 
-0.35244 -0.36269 0.862695 -0.642939 -0.555024 0.527805 0.266409 -0.186998 0.945547 
0.0997321 -0.175148 0.979478 -0.029389 -0.197509 0.97986 -0.132759 -0.139622 0.981265 
0.141034 -0.179374 0.973619 0.224496 -0.25958 0.939265 0.145823 -0.269735 0.951829 
0.0461832 -0.297353 0.95365 -0.124521 -0.39042 0.912177 -0.251629 -0.58109 0.773962 
-0.0649481 -0.683579 0.726981 0.207672 0.633822 0.745079 0.101001 0.681323 0.724981 
0.0586712 0.710988 0.700752 0.0466897 0.749602 0.66024 0.00832293 0.772496 0.634965 
-0.0275202 0.751486 0.659175 -0.0375365 0.735741 0.676222 -0.037278 0.770488 0.636363 
-0.0958388 0.830418 0.548836 -0.24291 0.801864 0.545902 0.324055 0.590523 0.739102 
0.367534 0.555407 0.74595 0.398855 0.643729 0.653091 -0.353144 0.81107 0.46632 
-0.373693 0.806243 0.458613 -0.39459 0.848309 0.353087 -0.556089 0.690211 0.463005 
0.527634 0.349239 0.77436 0.591964 0.236763 0.770403 0.612323 0.373479 0.696832 
-0.585874 0.667072 0.460181 -0.687793 0.561134 0.46051 0.642828 0.0423396 0.76484 
0.54763 -0.108013 0.829719 -0.763339 0.446213 0.467128 0.529762 -0.128522 0.838352 
0.544424 -0.126626 0.829197 0.089792 -0.112549 0.989581 -0.787635 0.268458 0.554582 
0.444442 -0.219693 0.868451 0.57289 -0.207739 0.792869 0.265622 -0.218024 0.939101 
0.0866307 -0.111534 0.989977 0.0924664 -0.109286 0.9897 0.0964049 -0.0992006 0.990386 
0.0908378 -0.110003 0.989772 -0.838524 0.107756 0.534103 -0.92753 0.120756 0.353702 
0.589828 -0.145439 0.794324 0.215035 -0.18198 0.959502 0.298612 -0.199414 0.933308 
-0.825894 -0.152731 0.542745 -0.91288 -0.159328 0.375853 0.585444 -0.104773 0.803914 
0.221744 0.010212 0.975051 0.317336 -0.0516159 0.946907 -0.00186617 -0.122611 0.992453 
-0.748964 -0.344094 0.566261 0.699543 -0.256692 0.666895 0.335761 -0.025474 0.941603 
0.447904 -0.0756527 0.890875 -0.0541635 -0.0469319 0.997429 0.0318601 -0.070699 0.996989 
-0.0271353 -0.045772 0.998583 -0.509502 -0.702043 0.497537 -0.660172 -0.554543 0.506612 
-0.651207 -0.566416 0.505078 0.28795 -0.192243 0.938151 0.5232 -0.29775 0.798503 
0.270057 -0.232168 0.934434 0.0783968 -0.322619 0.943277 0.0174701 -0.34029 0.940158 
-0.0699736 -0.0735166 0.994836 -0.0828597 -0.278588 0.95683 0.00853387 -0.110849 0.993801 
-0.0671508 -0.0713492 0.995188 0.135487 -0.188735 0.972637 0.132863 -0.456582 0.879705 
0.0747758 -0.605934 0.791993 -0.255934 -0.737041 0.625515 -0.493559 -0.711179 0.500623 
-0.322624 -0.724494 0.609115 -0.541453 -0.748424 0.383001 0.603976 -0.610661 0.512159 
0.328536 -0.517078 0.790376 0.0763776 -0.431899 0.898682 0.0251402 -0.382123 0.923769 
-0.0653738 -0.344645 0.936454 -0.0651867 -0.314981 0.946857 0.0385606 -0.389402 0.92026 
0.0892961 -0.545577 0.83329 0.0702033 -0.609516 0.789659 0.0742965 -0.607316 0.790979 
-0.115327 -0.717422 0.687026 -0.0733651 -0.703047 0.707349 -0.320767 -0.866583 0.382287 
0.267524 -0.822315 0.502225 0.0331032 -0.743084 0.668379 -0.0153567 -0.713686 0.700297 
-0.0897287 -0.661689 0.74439 -0.199664 -0.796695 0.570449 0.449157 0.875135 0.179994 
0.240264 0.958338 0.154474 0.0958686 0.979884 0.175031 -0.0214987 0.992326 0.121762 
-0.016591 0.997059 0.0748176 -0.0137487 0.998697 0.0491467 -0.00332153 0.999179 0.0403868 
-0.0144517 0.997911 0.0629609 -0.0816067 0.994324 0.0682587 -0.157758 0.986974 0.0315547 
-0.288028 0.957306 -0.0246137 -0.438071 0.896163 -0.0706055 0.634315 0.748085 0.19497 
0.715118 0.666603 0.210348 -0.500527 0.860731 -0.0928166 -0.479186 0.819521 -0.314271 
-0.63448 0.763797 -0.118531 0.873159 0.420817 0.245981 -0.698703 0.699496 -0.150067 
-0.586021 0.572239 -0.573692 -0.74203 0.641057 -0.196054 0.94032 0.102922 0.324355 
-0.817775 0.538642 -0.202753 -0.669716 0.507555 -0.542097 0.925218 -0.0504892 0.376061 
0.996227 0.0529581 -0.0687547 -0.934652 0.317387 -0.160285 -0.955129 0.246492 -0.164229 
0.842239 -0.159649 0.514923 -0.980112 0.133676 -0.146668 -0.948961 0.141 -0.282122 
0.789986 -0.113585 0.602512 -0.979501 -0.151814 -0.132404 -0.955543 -0.266415 -0.126333 
-0.947492 -0.144111 -0.285467 0.792852 -0.110746 0.599267 -0.923771 -0.37106 -0.0946667 
0.759764 -0.26282 0.594713 0.730875 -0.331457 0.596622 -0.775259 -0.623785 -0.0993252 
-0.733702 -0.673282 -0.0915004 -0.712354 -0.608147 -0.350299 0.689309 -0.406856 0.599435 
0.829462 -0.481147 0.283708 -0.479928 -0.877159 0.0161826 -0.615165 -0.78508 -0.072265 
-0.586895 -0.806908 -0.0667347 -0.603489 -0.754886 -0.256805 0.616393 -0.612998 0.49426 
0.607361 -0.619542 0.497273 0.428034 -0.786583 0.445055 -0.111295 -0.878306 0.464965 
-0.135854 -0.948609 0.285806 -0.207229 -0.970878 0.120217 -0.438077 -0.898391 0.031324 
-0.359242 -0.931976 0.0486455 -0.388701 -0.818019 -0.423976 0.320415 -0.849746 0.418647 
0.271648 -0.868208 0.415238 0.0585325 -0.865371 0.497702 0.0023138 -0.782873 0.622178 
-0.100063 -0.797755 0.594621 -0.196583 -0.804043 0.561133 -0.200706 -0.798602 0.567408 
-0.21371 -0.955519 0.203251 0.433592 0.854965 -0.284662 0.237575 0.933094 -0.269988 
0.0873106 0.959017 -0.269563 -0.0402183 0.966608 -0.253085 -0.046519 0.967846 -0.247203 
-0.0328856 0.963322 -0.266327 -0.0103397 0.95513 -0.296008 -0.0176881 0.947798 -0.31838 
-0.102212 0.939652 -0.326507 -0.216616 0.89857 -0.381642 -0.344619 0.82553 -0.446921 
0.587812 0.758198 -0.282158 0.688453 0.669941 -0.277869 0.408713 0.734474 -0.541758 
-0.248333 0.694306 -0.675477 -0.420806 0.751629 -0.507914 -0.371317 0.741061 -0.559422 
-0.489065 0.650743 -0.580817 0.831381 0.488472 -0.264955 0.630098 0.450821 -0.632248 
-0.555458 0.540467 -0.631951 -0.474484 0.46578 -0.746936 -0.559516 0.517174 -0.647667 
0.957484 0.207105 -0.200827 0.994018 0.0632152 -0.0890571 -0.395355 0.219649 -0.891879 
-0.588667 0.439378 -0.678541 -0.487294 0.369782 -0.791079 -0.615552 0.374928 -0.693199 
0.994909 0.0561224 -0.0837062 0.997451 0.010364 -0.0706049 0.993961 0.057359 -0.0935537 
-0.416504 0.207881 -0.885048 -0.656701 0.261587 -0.707331 -0.584266 0.243025 -0.77432 
0.997124 -0.0551682 -0.051959 -0.379136 0.0668041 -0.922926 -0.73076 0.112039 -0.673377 
-0.572352 0.113257 -0.812149 0.994295 -0.10136 0.0332279 -0.750343 -0.0716213 -0.657157 
-0.574487 -0.0431652 -0.817375 0.986474 -0.160068 0.0353179 -0.447916 -0.16249 -0.879186 
-0.732652 -0.28683 -0.617212 -0.671295 -0.455624 -0.584612 -0.631774 -0.257338 -0.73119 
0.961238 -0.275482 0.0114991 -0.629769 -0.540894 -0.557517 -0.582859 -0.622117 -0.52273 
-0.514294 -0.433058 -0.740245 0.870667 -0.491835 0.00603912 0.831835 -0.55487 -0.013021 
0.814448 -0.493516 -0.305149 -0.388156 -0.813771 -0.432565 -0.31044 -0.489615 -0.814803 
-0.548788 -0.675679 -0.49223 -0.461614 -0.745674 -0.480502 -0.421402 -0.615307 -0.666197 
0.66559 -0.741943 -0.080682 0.597587 -0.795555 -0.0999146 0.546192 -0.726785 -0.416483 
0.411292 -0.902167 -0.130132 -0.322019 -0.923291 -0.209374 -0.388029 -0.814509 -0.431288 
-0.361134 -0.856044 -0.369827 -0.355633 -0.71843 -0.597815 0.378872 -0.913189 -0.15014 
0.313261 -0.932293 -0.180822 0.283763 -0.865444 -0.412898 0.189467 -0.974136 -0.123134 
0.221853 -0.763468 -0.606546 0.0397868 -0.999028 -0.0189606 -0.112984 -0.993482 -0.0150837 
-0.245102 -0.969364 0.0160984 -0.304361 -0.944425 -0.124197 -0.299049 -0.950523 -0.0841196 
-0.31239 -0.919013 -0.240474 0.213437 0.670083 -0.710938 0.109589 0.700272 -0.705415 
0.0244717 0.734367 -0.678311 -0.0143253 0.758127 -0.651949 -0.055688 0.770423 -0.635096 
-0.0676041 0.731122 -0.678889 -0.0437541 0.687501 -0.724864 -0.122515 0.687896 -0.715394 
0.238742 0.659993 -0.712329 0.363944 0.608549 -0.705134 0.20877 0.650601 -0.73016 
0.102675 0.614233 -0.782417 0.0394615 0.587138 -0.808525 -0.00367186 0.612714 -0.790296 
-0.0460882 0.647243 -0.760889 -0.0793374 0.646277 -0.758968 -0.0473517 0.628045 -0.776735 
-0.178048 0.661907 -0.728133 -0.119859 0.65082 -0.749711 -0.254883 0.603618 -0.755433 
-0.344369 0.396821 -0.850849 0.534081 0.444423 -0.719198 0.623889 0.331282 -0.707824 
0.345031 0.448513 -0.824493 0.127902 0.378433 -0.916749 0.0423717 0.332244 -0.942241 
0.0090857 0.273907 -0.961713 0.023952 0.218616 -0.975517 -0.0354308 0.268607 -0.962598 
-0.0987449 0.25865 -0.960911 -0.024391 0.282459 -0.958969 -0.0689809 0.337495 -0.938797 
-0.258889 0.366654 -0.893611 -0.353624 0.379061 -0.855139 -0.339309 0.372398 -0.863822 
0.692477 0.223866 -0.685827 0.635266 0.227245 -0.738104 0.296898 0.185154 -0.936787 
0.118709 0.191038 -0.974378 0.000657742 0.192422 -0.981312 -0.0809068 0.134832 -0.98756 
0.011077 0.0796094 -0.996765 -0.00119232 0.188199 -0.98213 -0.0812005 0.21821 -0.972518 
0.0219294 0.1647 -0.9861 -0.0348115 0.191552 -0.980865 -0.22411 0.159925 -0.961353 
-0.386608 0.208455 -0.898377 -0.365719 0.188487 -0.91144 -0.353761 0.202313 -0.913193 
0.733365 0.110465 -0.670801 0.574502 0.121847 -0.809383 0.270207 0.107055 -0.956832 
0.0747609 0.194984 -0.977953 -0.0482147 0.199011 -0.97881 -0.2811 0.0502557 -0.958362 
-0.313338 0.0692334 -0.947115 -0.358982 0.189239 -0.913959 -0.294297 0.18207 -0.938211 
0.765121 -0.00736011 -0.643844 0.583147 0.0147067 -0.812234 0.227716 0.00788282 -0.973696 
-0.265923 0.00209019 -0.963992 -0.247568 0.092789 -0.964417 -0.363962 0.0708003 -0.928719 
-0.272789 0.132151 -0.952954 -0.4018 -0.00863856 -0.915687 0.778765 -0.0520685 -0.625151 
0.588258 -0.0324594 -0.808022 0.216099 -0.0444835 -0.975358 -0.213086 -0.123597 -0.969184 
-0.145472 -0.0280886 -0.988964 -0.187056 0.0195246 -0.982155 -0.308553 0.0172716 -0.95105 
-0.404583 -0.0158008 -0.914365 -0.406379 -0.0223956 -0.91343 -0.403963 -0.0154753 -0.914644 
0.773066 -0.160668 -0.61364 0.600319 -0.149689 -0.785627 0.244791 -0.117019 -0.962488 
-0.158291 -0.0671617 -0.985106 -0.127593 -0.0830101 -0.988347 -0.204103 -0.11896 -0.971695 
-0.422127 -0.152087 -0.893688 -0.309749 -0.153853 -0.938288 0.75591 -0.239429 -0.609322 
0.734115 -0.280412 -0.61842 0.731162 -0.243932 -0.637102 0.318378 -0.140108 -0.937553 
0.164756 -0.136054 -0.976906 -0.114045 -0.17317 -0.978267 -0.0143272 -0.176493 -0.984198 
-0.0515841 -0.14695 -0.987798 -0.150004 -0.108476 -0.982717 -0.192823 -0.204263 -0.959737 
-0.304644 -0.469414 -0.82876 -0.254015 -0.281947 -0.925193 -0.36081 -0.341543 -0.86785 
-0.340032 -0.376221 -0.861879 -0.328867 -0.328665 -0.885339 0.600002 -0.453195 -0.659251 
0.450507 -0.600266 -0.660851 0.391623 -0.420311 -0.818517 0.178983 -0.312436 -0.932925 
0.119829 -0.27559 -0.953777 0.0332776 -0.237835 -0.970735 -0.0466268 -0.242049 -0.969143 
-0.0396976 -0.152901 -0.987444 -0.0438576 -0.167635 -0.984873 -0.109029 -0.235409 -0.965761 
-0.223479 -0.299246 -0.927636 -0.306856 -0.477426 -0.823349 -0.318838 -0.539085 -0.77957 
-0.290605 -0.405537 -0.866653 0.389037 -0.624062 -0.677641 0.317284 -0.648917 -0.691547 
0.296947 -0.575674 -0.761854 0.206833 -0.683159 -0.700367 0.155059 -0.517551 -0.841486 
0.208831 -0.696935 -0.686055 0.102252 -0.413238 -0.904864 0.0228072 -0.352958 -0.935361 
-0.0352277 -0.305884 -0.951417 -0.12205 -0.37091 -0.920614 -0.298211 -0.67327 -0.676593 
-0.217491 -0.496117 -0.840575 -0.321634 -0.60711 -0.726615 -0.323114 -0.621061 -0.714059 
-0.314481 -0.588521 -0.744812 0.175144 -0.704115 -0.688147 0.10984 -0.702122 -0.703534 
0.0970726 -0.656994 -0.74762 -0.0597796 -0.748262 -0.660704 -0.0545651 -0.683276 -0.728119 
-0.229279 -0.725333 -0.649094 -0.227972 -0.725644 -0.649206 -0.227482 -0.723948 -0.651269 
0.1129 0.150381 -0.982161 0.000194186 0.190009 -0.981782 -0.0961332 0.102271 -0.990101 
0.0182959 0.201649 -0.979287 -0.112407 0.222742 -0.968375 -0.0601315 0.1353 -0.988978 
0.191782 0.10465 -0.975842 0.0977561 0.0924148 -0.99091 -0.0269096 0.0751705 -0.996808 
-0.0426087 0.121759 -0.991645 -0.105082 0.0809221 -0.991166 0.0937092 0.215947 -0.971898 
0.10462 0.198189 -0.974564 0.134231 0.262975 -0.955419 -0.0762458 0.203333 -0.976136 
-0.152353 0.212597 -0.96519 -0.0616862 0.153058 -0.98629 -0.0540866 0.185766 -0.981104 
-0.107035 0.106314 -0.988555 -0.0685664 0.118365 -0.9906 0.191984 0.00296128 -0.981394 
0.0994658 -0.0164648 -0.994905 -0.0109958 -0.0149895 -0.999827 0.0419088 0.0259597 -0.998784 
0.169648 0.194032 -0.966215 -0.00806629 0.0273578 -0.999593 -0.123996 0.0553759 -0.990736 
-0.0608993 0.142366 -0.987939 -0.209474 -0.0260757 -0.977466 -0.204665 -0.102228 -0.973479 
-0.174755 -0.0394684 -0.983821 0.148712 -0.0474266 -0.987743 0.0816804 -0.0520522 -0.995298 
0.0153483 -0.0314257 -0.999388 0.101708 0.0317542 -0.994307 0.116881 0.0210972 -0.992922 
-0.0148444 -0.0977818 -0.995097 -0.0385494 -0.00290861 -0.999252 -0.207378 -0.114388 -0.97155 
-0.161958 -0.0369496 -0.986106 0.118063 -0.0798577 -0.98979 0.115991 -0.0835884 -0.989727 
0.104998 -0.073647 -0.991742 0.0727732 -0.0239091 -0.997062 0.100322 0.0305707 -0.994485 
0.0345033 -0.0785677 -0.996312 -0.106367 -0.174672 -0.978865 -0.0318613 -0.172201 -0.984546 
-0.0274354 -0.176809 -0.983863 -0.0613601 -0.177395 -0.982225 -0.176906 -0.117266 -0.977217 
-0.102269 -0.149234 -0.983499 -0.189284 -0.152841 -0.969954 0.135889 -0.114337 -0.984104 
0.117132 -0.15209 -0.981401 0.116297 -0.101965 -0.987967 0.0356998 -0.220221 -0.974797 
0.0498858 -0.091756 -0.994531 -0.111575 -0.174007 -0.978403 -0.060646 -0.224589 -0.972565 
-0.0869405 -0.171504 -0.98134 
