# vtk DataFile Version 4.2
vtk output
ASCII
DATASET POLYDATA
POINTS 552 float
-0.346377 -7.85353 -18.7558 -24.4886 -48.0905 -11.5017 -16.4412 -48.0905 -13.3121 
-8.39377 -48.0905 -13.8334 -0.346377 -48.0905 -13.291 7.70102 -48.0905 -10.7317 
-32.536 -40.0431 -12.5078 -24.4886 -40.0431 -15.0187 -16.4412 -40.0431 -15.8901 
-8.39377 -40.0431 -17.0299 -0.346377 -40.0431 -16.7107 7.70102 -40.0431 -15.1212 
15.7484 -40.0431 -13.0369 -40.5834 -31.9957 -12.8847 -32.536 -31.9957 -15.0562 
-24.4886 -31.9957 -16.8191 -16.4412 -31.9957 -16.7559 -8.39377 -31.9957 -17.3673 
-0.346377 -31.9957 -17.3583 7.70102 -31.9957 -16.4859 15.7484 -31.9957 -15.5817 
23.7958 -31.9957 -13.7509 31.8432 -31.9957 -10.6926 -48.6308 -23.9483 -11.8971 
-40.5834 -23.9483 -15.0697 -32.536 -23.9483 -17.2444 -24.4886 -23.9483 -16.8267 
-16.4412 -23.9483 -16.1615 -8.39377 -23.9483 -16.4741 -0.346377 -23.9483 -16.4725 
7.70102 -23.9483 -16.2451 15.7484 -23.9483 -15.9181 23.7958 -23.9483 -15.084 
31.8432 -23.9483 -13.4571 39.8906 -23.9483 -10.9704 -48.6308 -15.9009 -12.8537 
-40.5834 -15.9009 -16.0253 -32.536 -15.9009 -17.1685 -24.4886 -15.9009 -16.9826 
-16.4412 -15.9009 -15.936 -8.39377 -15.9009 -14.6744 -0.346377 -7.8973 -18.737 
-0.346377 -15.9009 -15.3221 7.70102 -15.9009 -15.0611 15.7484 -15.9009 -15.5589 
23.7958 -15.9009 -15.5834 31.8432 -15.9009 -15.2655 39.8906 -15.9009 -14.4431 
47.938 -15.9009 -11.6698 -48.6308 -7.85353 -14.6003 -40.5834 -7.85353 -16.5132 
-32.536 -7.85353 -17.6343 -24.4886 -7.85353 -17.6082 -16.4412 -7.85353 -16.6727 
-0.422188 -7.85353 -18.737 -8.39377 -7.85353 -16.3734 -0.274215 -7.85353 -18.737 
-0.346377 -7.82016 -18.737 7.70102 -7.85353 -16.4116 15.7484 -7.85353 -15.5957 
23.7958 -7.85353 -15.6116 31.8432 -7.85353 -15.7901 39.8906 -7.85353 -15.4866 
47.938 -7.85353 -15.0756 55.9854 -7.85353 -13.2089 -56.6782 0.193868 -11.7834 
-48.6308 0.193868 -14.7021 -40.5834 0.193868 -16.4363 -32.536 0.193868 -16.7816 
-24.4886 0.193868 -16.9803 -16.4412 0.193868 -17.8316 -8.39377 0.193868 -17.7474 
-0.346377 0.193868 -13.0646 7.70102 0.193868 -16.8945 15.7484 0.193868 -17.0115 
23.7958 0.193868 -15.201 31.8432 0.193868 -15.3329 39.8906 0.193868 -15.317 
47.938 0.193868 -14.9769 55.9854 0.193868 -12.2988 -56.6782 8.24127 -12.5601 
-48.6308 8.24127 -15.8845 -40.5834 8.24127 -16.2331 -32.536 8.24127 -16.2031 
-24.4886 8.24127 -15.6748 -16.4412 8.24127 -15.0478 -8.39377 8.24127 -16.753 
-0.346377 8.24127 -17.4925 7.70102 8.24127 -16.851 15.7484 8.24127 -16.0692 
23.7958 8.24127 -14.2119 31.8432 8.24127 -14.1484 39.8906 8.24127 -14.1185 
47.938 8.24127 -13.6245 55.9854 8.24127 -12.8948 -56.6782 16.2887 -11.9554 
-48.6308 16.2887 -14.5882 -40.5834 16.2887 -15.5331 -32.536 16.2887 -15.9029 
-24.4886 16.2887 -16.0316 -16.4412 16.2887 -15.5441 -8.39377 16.2887 -16.1645 
-0.346377 16.2887 -15.8713 7.70102 16.2887 -15.0673 15.7484 16.2887 -16.062 
23.7958 16.2887 -15.2916 31.8432 16.2887 -14.1237 39.8906 16.2887 -13.7723 
47.938 16.2887 -11.8778 55.9854 16.2887 -10.7388 -56.6782 24.3361 -10.8826 
-48.6308 24.3361 -12.951 -40.5834 24.3361 -15.1545 -32.536 24.3361 -15.8312 
-24.4886 24.3361 -15.6499 -16.4412 24.3361 -15.8555 -8.39377 24.3361 -16.4469 
-0.346377 24.3361 -16.4432 7.70102 24.3361 -15.6414 15.7484 24.3361 -16.4219 
23.7958 24.3361 -15.5707 31.8432 24.3361 -13.9332 39.8906 24.3361 -13.225 
47.938 24.3361 -11.3673 -48.6308 32.3835 -11.7396 -40.5834 32.3835 -12.5759 
-32.536 32.3835 -13.8849 -24.4886 32.3835 -14.0749 -16.4412 32.3835 -14.7627 
-8.39377 32.3835 -15.4725 -0.346377 32.3835 -15.9087 7.70102 32.3835 -15.2231 
15.7484 32.3835 -14.7256 23.7958 32.3835 -13.9899 31.8432 32.3835 -13.3274 
-16.4412 40.4309 -10.8074 -8.39377 40.4309 -12.2956 -0.346377 40.4309 -13.3446 
7.70102 40.4309 -12.3224 -24.4886 -48.9391 -10.6896 -16.4412 -50.853 -10.6896 
-8.39377 -52.6262 -10.6896 -8.39377 -56.1379 -4.02382 -0.346377 -51.49 -10.6896 
7.70102 -48.1335 -10.6896 -26.2254 -48.0905 -10.6896 -32.536 -42.8085 -10.6896 
-32.536 -48.0905 -2.8174 7.79389 -48.0905 -10.6896 15.7484 -43.6834 -10.6896 
15.7484 -48.0905 -3.77345 -37.079 -40.0431 -10.6896 -40.5834 -36.8904 -10.6896 
-40.5834 -40.0431 -7.72272 21.564 -40.0431 -10.6896 23.7958 -38.1794 -10.6896 
23.7958 -40.0431 -9.12181 31.8432 -31.9998 -10.6896 -43.7402 -31.9957 -10.6896 
-48.6308 -26.3584 -10.6896 -48.6308 -31.9957 -2.85912 31.8489 -31.9957 -10.6896 
39.8906 -24.4901 -10.6896 39.8906 -31.9957 -4.59408 -49.8372 -23.9483 -10.6896 
40.7361 -23.9483 -10.6896 47.938 -18.2886 -10.6896 47.938 -23.9483 -7.34539 
-51.2942 -15.9009 -10.6896 50.9269 -15.9009 -10.6896 55.9854 -13.3227 -10.6896 
55.9854 -15.9009 -8.54216 -54.6322 -7.85353 -10.6896 -56.6782 -3.97762 -10.6896 
-56.6782 -7.85353 -8.26513 60.7103 -7.85353 -10.6896 64.0328 -7.85353 -7.37806 
-58.0046 0.193868 -10.6896 59.7881 0.193868 -10.6896 64.0328 0.193868 -8.74604 
-59.1502 8.24127 -10.6896 60.4767 8.24127 -10.6896 64.0328 8.24127 -8.35712 
-58.4954 16.2887 -10.6896 -64.7256 16.2887 -3.35865 56.0475 16.2887 -10.6896 
55.9854 16.3777 -10.6896 64.0328 16.2887 -5.47704 -56.8447 24.3361 -10.6896 
-56.6782 24.5944 -10.6896 39.8906 29.9455 -10.6896 49.4666 24.3361 -10.6896 
47.938 26.115 -10.6896 55.9854 24.3361 -7.11133 -50.4438 32.3835 -10.6896 
-56.6782 32.3835 -4.95231 -48.6308 33.9747 -10.6896 -40.5834 36.6148 -10.6896 
-32.536 40.0013 -10.6896 -24.4886 38.7928 -10.6896 15.7484 39.9934 -10.6896 
23.7958 38.1829 -10.6896 37.3601 32.3835 -10.6896 31.8432 36.7766 -10.6896 
39.8906 32.3835 -9.587 47.938 32.3835 -7.15344 -48.6308 40.4309 -3.05893 
-40.5834 40.4309 -8.59199 -32.536 40.4309 -10.3929 -17.3026 40.4309 -10.6896 
-24.4886 40.4309 -9.60511 -16.4412 40.5895 -10.6896 -8.39377 42.3442 -10.6896 
-0.346377 43.665 -10.6896 14.6726 40.4309 -10.6896 7.70102 42.3752 -10.6896 
15.7484 40.4309 -10.1729 23.7958 40.4309 -8.23369 31.8432 40.4309 -6.25896 
-8.39377 -56.6061 -2.64225 -32.536 -48.1556 -2.64225 -24.4886 -51.8248 -2.64225 
-10.5796 -56.1379 -2.64225 -16.4412 -54.846 -2.64225 -2.57026 -56.1379 -2.64225 
-8.39377 -56.1379 1.89395 -0.346377 -55.9591 -2.64225 7.70102 -52.9194 -2.64225 
15.7484 -48.6378 -2.64225 -32.6318 -48.0905 -2.64225 -40.5834 -42.2369 -2.64225 
-32.536 -48.0905 -2.42936 16.6353 -48.0905 -2.64225 15.7484 -48.0905 1.53971 
23.7958 -44.0508 -2.64225 -42.8459 -40.0431 -2.64225 -48.6308 -32.1163 -2.64225 
-40.5834 -40.0431 2.91096 30.452 -40.0431 -2.64225 31.8432 -39.1441 -2.64225 
39.8906 -33.2243 -2.64225 -48.7076 -31.9957 -2.64225 -48.6308 -31.9957 -2.44147 
41.4317 -31.9957 -2.64225 47.938 -27.0877 -2.64225 -52.0987 -23.9483 -2.64225 
52.1262 -23.9483 -2.64225 55.9854 -20.7469 -2.64225 -55.8733 -15.9009 -2.64225 
-56.6782 -14.0769 -2.64225 61.5648 -15.9009 -2.64225 64.0328 -12.9803 -2.64225 
-59.3533 -7.85353 -2.64225 67.4383 -7.85353 -2.64225 -63.0828 0.193868 -2.64225 
69.7924 0.193868 -2.64225 -64.6038 8.24127 -2.64225 -64.7256 9.64178 -2.64225 
69.9881 8.24127 -2.64225 -65.1989 16.2887 -2.64225 -64.7256 18.3184 -2.64225 
67.0011 16.2887 -2.64225 64.0328 21.1365 -2.64225 -63.3257 24.3361 -2.64225 
61.6783 24.3361 -2.64225 55.9854 31.2841 -2.64225 -58.6886 32.3835 -2.64225 
-56.6782 34.9716 -2.64225 39.8906 40.2426 -2.64225 54.7149 32.3835 -2.64225 
47.938 36.6048 -2.64225 55.9854 32.3835 2.9943 -49.1982 40.4309 -2.64225 
-48.6308 40.7208 -2.64225 -40.5834 44.2327 -2.64225 -32.536 45.4522 -2.64225 
-24.4886 45.747 -2.64225 -16.4412 46.333 -2.64225 -8.39377 46.699 -2.64225 
-0.346377 46.9649 -2.64225 7.70102 45.5289 -2.64225 15.7484 43.7447 -2.64225 
23.7958 43.0861 -2.64225 39.1465 40.4309 -2.64225 31.8432 41.872 -2.64225 
-24.4886 -48.147 5.40514 -16.4412 -52.4907 5.40514 -8.39377 -55.6004 5.40514 
-0.346377 -54.8063 5.40514 7.70102 -51.9419 5.40514 -24.6408 -48.0905 5.40514 
-32.536 -44.2798 5.40514 -24.4886 -48.0905 5.47358 -16.4412 -48.0905 9.66436 
-8.39377 -48.0905 11.731 -0.346377 -48.0905 12.9006 14.8761 -48.0905 5.40514 
7.70102 -48.0905 10.5954 15.7484 -47.5905 5.40514 23.7958 -43.0511 5.40514 
-38.536 -40.0431 5.40514 -40.5834 -38.0255 5.40514 -32.536 -40.0431 8.43784 
-24.4886 -40.0431 11.92 29.9588 -40.0431 5.40514 23.7958 -40.0431 9.23279 
31.8432 -38.9606 5.40514 39.8906 -32.1071 5.40514 -44.357 -31.9957 5.40514 
-48.6308 -25.8234 5.40514 -40.5834 -31.9957 8.49204 -32.536 -31.9957 13.2615 
31.8432 -31.9957 12.1829 40.0364 -31.9957 5.40514 39.8906 -31.9957 5.53296 
47.938 -25.2523 5.40514 -49.544 -23.9483 5.40514 -48.6308 -23.9483 6.4698 
-40.5834 -23.9483 11.1928 39.8906 -23.9483 12.6611 49.7745 -23.9483 5.40514 
47.938 -23.9483 7.30975 55.9854 -19.3879 5.40514 -51.6735 -15.9009 5.40514 
-56.6782 -9.66949 5.40514 -48.6308 -15.9009 8.44101 -40.5834 -15.9009 13.0521 
47.938 -15.9009 12.2303 59.9669 -15.9009 5.40514 55.9854 -15.9009 9.06382 
64.0328 -12.0878 5.40514 -57.7 -7.85353 5.40514 -56.6782 -7.85353 6.67639 
-48.6308 -7.85353 11.6735 55.9854 -7.85353 12.4285 67.3488 -7.85353 5.40514 
64.0328 -7.85353 8.88528 -60.9072 0.193868 5.40514 -56.6782 0.193868 8.85887 
69.338 0.193868 5.40514 64.0328 0.193868 11.8509 -64.0584 8.24127 5.40514 
-64.7256 11.7994 5.40514 -56.6782 8.24127 11.4112 70.6366 8.24127 5.40514 
-65.3264 16.2887 5.40514 -64.7256 19.2022 5.40514 -64.7256 16.2887 6.2457 
-56.6782 16.2887 12.2141 67.5362 16.2887 5.40514 64.0328 23.8749 5.40514 
64.0328 16.2887 10.7124 -63.2998 24.3361 5.40514 63.7634 24.3361 5.40514 
-59.1561 32.3835 5.40514 -56.6782 35.5351 5.40514 -56.6782 32.3835 8.18198 
-48.6308 32.3835 12.0108 7.70102 32.3835 12.7914 15.7484 32.3835 12.6872 
23.7958 32.3835 13.4021 31.8432 32.3835 13.4414 39.8906 39.7821 5.40514 
39.8906 32.3835 12.1894 47.938 36.5011 5.40514 47.938 32.3835 11.5529 
56.3832 32.3835 5.40514 55.9854 32.7026 5.40514 55.9854 32.3835 5.95029 
-49.831 40.4309 5.40514 -48.6308 41.0322 5.40514 -48.6308 40.4309 6.29117 
-40.5834 44.0314 5.40514 -40.5834 40.4309 9.60896 -32.536 45.4209 5.40514 
-32.536 40.4309 11.2466 -24.4886 45.4947 5.40514 -24.4886 40.4309 11.9376 
-16.4412 45.393 5.40514 -16.4412 40.4309 12.0397 -8.39377 45.3817 5.40514 
[...]
POINT_DATA 552
SCALARS ImageScalars float
LOOKUP_TABLE default
0 0 0 0 0 0 0 0 0 
0 0 0 0 0 0 0 0 0 
0 0 0 0 0 0 0 0 0 
0 0 0 0 0 0 0 0 0 
0 0 0 0 0 0 0 0 0 
0 0 0 0 0 0 0 0 0 
0 0 0 0 0 0 0 0 0 
0 0 0 0 0 0 0 0 0 
0 0 0 0 0 0 0 0 0 
0 0 0 0 0 0 0 0 0 
0 0 0 0 0 0 0 0 0 
0 0 0 0 0 0 0 0 0 
0 0 0 0 0 0 0 0 0 
0 0 0 0 0 0 0 0 0 
0 0 0 0 0 0 0 0 0 
0 0 0 0 0 0 0 0 0 
0 0 0 0 0 0 0 0 0 
0 0 0 0 0 0 0 0 0 
0 0 0 0 0 0 0 0 0 
0 0 0 0 0 0 0 0 0 
0 0 0 0 0 0 0 0 0 
0 0 0 0 0 0 0 0 0 
0 0 0 0 0 0 0 0 0 
0 0 0 0 0 0 0 0 0 
0 0 0 0 0 0 0 0 0 
0 0 0 0 0 0 0 0 0 
0 0 0 0 0 0 0 0 0 
0 0 0 0 0 0 0 0 0 
0 0 0 0 0 0 0 0 0 
0 0 0 0 0 0 0 0 0 
0 0 0 0 0 0 0 0 0 
0 0 0 0 0 0 0 0 0 
0 0 0 0 0 0 0 0 0 
0 0 0 0 0 0 0 0 0 
0 0 0 0 0 0 0 0 0 
0 0 0 0 0 0 0 0 0 
0 0 0 0 0 0 0 0 0 
0 0 0 0 0 0 0 0 0 
0 0 0 0 0 0 0 0 0 
0 0 0 0 0 0 0 0 0 
0 0 0 0 0 0 0 0 0 
0 0 0 0 0 0 0 0 0 
0 0 0 0 0 0 0 0 0 
0 0 0 0 0 0 0 0 0 
0 0 0 0 0 0 0 0 0 
0 0 0 0 0 0 0 0 0 
0 0 0 0 0 0 0 0 0 
0 0 0 0 0 0 0 0 0 
0 0 0 0 0 0 0 0 0 
0 0 0 0 0 0 0 0 0 
0 0 0 0 0 0 0 0 0 
0 0 0 0 0 0 0 0 0 
0 0 0 0 0 0 0 0 0 
0 0 0 0 0 0 0 0 0 
0 0 0 0 0 0 0 0 0 
0 0 0 0 0 0 0 0 0 
0 0 0 0 0 0 0 0 0 
0 0 0 0 0 0 0 0 0 
0 0 0 0 0 0 0 0 0 
0 0 0 0 0 0 0 0 0 
0 0 0 0 0 0 0 0 0 
0 0 0 
NORMALS Normals float
-0.00675392 -0.0716591 0.997406 0.30422 0.669174 0.67798 0.145249 0.553157 0.820317 
-0.00672694 0.482512 0.875864 -0.14834 0.520729 0.840736 -0.329555 0.64595 0.68858 
0.370235 0.457462 0.808489 0.166161 0.295926 0.940648 0.125938 0.175606 0.976372 
0.050199 0.213712 0.975606 -0.105992 0.22626 0.968283 -0.218965 0.291901 0.931047 
-0.283986 0.448224 0.847613 0.450575 0.373659 0.810778 0.206236 0.248762 0.946353 
0.102943 0.120983 0.987302 0.0340325 0.013419 0.999331 0.0376078 -0.0340267 0.998713 
-0.0542923 -0.0140173 0.998427 -0.113253 0.0620423 0.991627 -0.153815 0.16243 0.974658 
-0.270213 0.28238 0.92046 -0.393579 0.464195 0.793485 0.675111 0.284602 0.680608 
0.305952 0.157266 0.938968 0.120467 0.128875 0.984316 -0.0655368 0.0101228 0.997799 
-0.0233483 -0.0513351 0.998408 0.0194439 -0.159132 0.987066 -0.0146074 -0.12939 0.991486 
-0.0333132 -0.0877793 0.995583 -0.071165 0.00057751 0.997464 -0.146328 0.104347 0.983717 
-0.223411 0.247453 0.942791 -0.298882 0.477319 0.826339 0.546364 0.154393 0.823195 
0.231157 0.0946217 0.968304 0.0539976 0.0243129 0.998245 -0.070804 0.0486081 0.996305 
-0.142619 0.0322306 0.989253 -0.0324621 -0.0206128 0.99926 -0.00666526 -0.0705993 0.997482 
0.0217866 0.120651 0.992456 0.0132702 0.000918431 0.999912 0.0332271 -0.0205528 0.999236 
-0.0191026 0.032475 0.99929 -0.0749273 0.135932 0.987881 -0.184581 0.223559 0.957053 
-0.343278 0.37177 0.862524 0.410346 0.0936683 0.907107 0.166773 0.0239096 0.985705 
0.0657172 -0.024161 0.997546 -0.0585933 0.00161572 0.998281 -0.0777208 0.111525 0.990718 
-0.00537133 -0.0693005 0.997581 0.120405 0.189814 0.974409 -0.00855737 -0.0698383 0.997522 
-0.00689151 -0.071833 0.997393 -0.185409 0.115407 0.975861 -0.0442677 0.0835188 0.995522 
0.0120634 -0.0236803 0.999647 -0.00731685 0.00537816 0.999959 -0.0421756 0.0627779 0.997136 
-0.158316 0.167563 0.973067 -0.328328 0.174852 0.928239 0.565762 0.175579 0.805659 
0.292171 0.0654808 0.954122 0.135404 -0.0171982 0.990641 0.033177 -0.090055 0.995384 
0.0601929 -0.121788 0.990729 0.048662 -0.107949 0.992965 -0.249542 0.0155527 0.968239 
-0.0622097 -0.0535792 0.996624 0.214241 0.0265002 0.976421 -0.11224 0.0369387 0.992994 
-0.0946873 -0.0861812 0.99177 0.00716524 -0.101474 0.994812 -0.0211256 -0.084419 0.996206 
-0.177773 -0.0845489 0.980433 -0.324871 -0.0184133 0.945579 0.522645 0.00943202 0.852498 
0.256606 0.00455125 0.966505 0.0163833 -0.0566282 0.998261 -0.0345171 -0.0544516 0.99792 
-0.0715848 -0.0551286 0.99591 0.0583125 -0.124067 0.990559 0.158737 -0.0952836 0.982712 
0.00487419 0.127036 0.991886 -0.0848695 -0.112964 0.989968 -0.172067 -0.0582344 0.983362 
-0.107417 0.00541294 0.994199 -0.00576813 -0.0749453 0.997171 -0.0310788 -0.0982973 0.994672 
-0.0873983 -0.185863 0.978681 -0.26474 -0.061937 0.962329 0.481934 -0.0861242 0.871965 
0.251539 -0.168124 0.953133 0.0756439 -0.0688483 0.994755 0.0306118 -0.0228896 0.999269 
-0.0226358 -0.00160093 0.999743 0.00816153 0.0504706 0.998692 0.0206804 -0.015966 0.999659 
-0.0686601 -0.0612967 0.995755 0.0125836 -0.0708156 0.99741 0.0111369 0.0214404 0.999708 
-0.119092 0.0835073 0.989365 -0.0970934 -0.0130971 0.995189 -0.12505 -0.0485336 0.990963 
-0.175369 -0.132153 0.975593 -0.398034 -0.404577 0.823338 0.531162 -0.34008 0.776024 
0.244568 -0.176187 0.953491 0.153988 -0.149036 0.976768 0.0364294 -0.131236 0.990682 
0.00187626 -0.114972 0.993367 0.0496831 -0.0439989 0.997795 0.0364341 -0.0412247 0.998485 
-0.0500714 0.00356107 0.998739 -0.00239399 0.00862197 0.99996 -0.00383995 -0.0783106 0.996922 
-0.148385 -0.0692239 0.986504 -0.141372 -0.0420491 0.989063 -0.190209 -0.255988 0.947782 
-0.327029 -0.220111 0.919023 0.307767 -0.370334 0.876432 0.14463 -0.39386 0.907721 
0.0761328 -0.308199 0.948271 0.0521957 -0.301131 0.952153 0.0828892 -0.271211 0.958944 
0.067408 -0.236492 0.969292 -0.0155442 -0.182419 0.983098 -0.0713163 -0.18833 0.979513 
-0.0698856 -0.324059 0.943452 -0.0801912 -0.335492 0.938624 -0.252067 -0.303543 0.918871 
0.148566 -0.578242 0.802224 0.143506 -0.569457 0.809398 0.0011178 -0.533985 0.845493 
-0.175799 -0.585786 0.79117 0.305895 0.722119 0.620462 0.19501 0.702356 0.684593 
0.0294778 0.698622 0.714884 0.0608701 0.978992 0.194601 -0.19982 0.671184 0.713851 
-0.330181 0.647707 0.686626 0.34131 0.692895 0.635141 0.430318 0.549465 0.71618 
0.5199 0.853214 0.0415824 -0.331062 0.647475 0.686421 -0.359021 0.59383 0.720048 
-0.50201 0.839971 0.205997 0.474493 0.527752 0.704509 0.510886 0.503737 0.696595 
0.624698 0.655534 0.424297 -0.395333 0.571554 0.719053 -0.406073 0.538504 0.738321 
-0.455695 0.662155 0.594889 -0.393656 0.464353 0.793355 0.563715 0.442972 0.697138 
0.706788 0.348403 0.615684 0.866279 0.499555 0.00227625 -0.393672 0.464314 0.793369 
-0.313601 0.488116 0.814492 -0.61181 0.718977 0.329789 0.747251 0.296287 0.594836 
-0.312484 0.48871 0.814565 -0.373089 0.419949 0.827314 -0.504041 0.668895 0.546372 
0.66225 0.213042 0.718357 -0.379862 0.438791 0.814351 -0.409409 0.440451 0.798991 
-0.483057 0.599905 0.637785 0.636249 0.259228 0.726628 0.642908 0.238576 0.72784 
0.78321 0.334809 0.523913 -0.539287 0.263005 0.799999 -0.735206 0.39685 0.549529 
0.628638 0.192819 0.753415 -0.380609 -0.00938204 0.924688 -0.559526 0.0353593 0.828059 
0.635929 0.0316204 0.771099 -0.406341 -0.147248 0.901779 -0.587068 -0.203937 0.783429 
0.54446 -0.116875 0.830604 0.917694 -0.0859601 0.387878 -0.39976 -0.404427 0.822575 
-0.398534 -0.40428 0.823243 -0.657434 -0.365737 0.658799 0.539207 -0.342043 0.769586 
0.535065 -0.346996 0.770259 -0.259497 -0.374909 0.890003 -0.338134 -0.227636 0.913153 
-0.29912 -0.309645 0.902578 -0.486791 -0.341035 0.804195 0.363665 -0.38451 0.848469 
0.694116 -0.547871 0.466949 0.310578 -0.440213 0.842469 0.21031 -0.459661 0.862833 
0.0402929 -0.608055 0.792872 0.0220327 -0.571554 0.820269 -0.170673 -0.68322 0.709987 
-0.110533 -0.632788 0.766395 -0.288581 -0.383623 0.877243 -0.23922 -0.566194 0.788796 
-0.316982 -0.446709 0.836644 -0.302789 -0.682827 0.66488 0.436089 -0.838029 0.327923 
0.293546 -0.627469 0.721189 0.0386307 -0.637228 0.769706 0.135882 -0.585689 0.799064 
0.0216785 -0.675471 0.737068 0.149689 -0.583332 0.798322 0.138794 -0.659333 0.738929 
0.00105361 -0.713239 0.70092 -0.17636 -0.691309 0.700706 -0.192238 -0.690632 0.697188 
-0.176225 -0.732556 0.6575 -0.11515 -0.852076 0.510595 -0.196879 -0.905054 0.376982 
0.0647871 0.991484 0.11297 0.518208 0.854744 0.0295442 0.385519 0.922578 -0.0149894 
0.122394 0.987399 0.100313 0.285233 0.956406 0.06268 -0.134794 0.98308 0.124037 
0.0926489 0.984165 -0.151112 -0.210779 0.969126 0.127932 -0.395165 0.904699 0.159264 
-0.506364 0.850618 0.141582 0.519695 0.853841 0.0295366 0.666903 0.745002 0.0145884 
0.518814 0.854736 0.0160811 -0.507069 0.850119 0.142049 -0.505126 0.856088 -0.109369 
-0.504299 0.846512 0.170589 0.726459 0.687076 0.0135642 0.866535 0.498955 -0.0126406 
0.644819 0.662464 -0.381247 -0.537285 0.816226 0.212369 -0.548337 0.805369 0.225182 
-0.624461 0.756316 0.195024 0.867893 0.49658 -0.0130493 0.866783 0.498008 -0.0259974 
-0.621591 0.757159 0.200833 -0.582747 0.790202 0.189702 0.916927 0.398624 -0.0185613 
-0.605503 0.770869 0.197807 -0.634118 0.740112 0.223894 0.900685 0.434204 0.0152929 
0.902086 0.429723 0.0397387 -0.699713 0.670169 0.24754 -0.75455 0.59792 0.270456 
0.907938 0.403642 0.112795 -0.858642 0.442394 0.258885 0.932461 0.29631 0.20668 
-0.961592 0.145595 0.232684 0.94922 0.129436 0.286752 0.949473 0.0933202 0.299653 
-0.926373 -0.17076 0.335668 0.93736 -0.0842479 0.338021 0.929361 -0.145821 0.339153 
-0.800117 -0.42508 0.423225 -0.736365 -0.562573 0.375868 0.900537 -0.311254 0.303569 
-0.71558 -0.590047 0.373884 -0.654593 -0.711152 0.256457 0.75307 -0.58411 0.30282 
0.701245 -0.653859 0.28412 -0.304997 -0.916219 0.259844 -0.633815 -0.735802 0.238484 
-0.469394 -0.805408 0.361921 -0.609947 -0.787655 -0.0869695 0.456316 -0.838586 0.297572 
0.441463 -0.844349 0.303621 0.259626 -0.939239 0.224555 0.102356 -0.953944 0.281981 
0.0519315 -0.962001 0.268064 0.0645188 -0.980713 0.184499 0.0380834 -0.989747 0.137664 
-0.0728043 -0.996893 0.0300724 -0.2009 -0.979539 -0.01191 -0.149527 -0.988641 0.0151565 
-0.116641 -0.99067 0.0704884 -0.29009 -0.925843 0.242205 -0.170975 -0.978469 0.115611 
0.354452 0.763136 -0.540358 0.343929 0.788038 -0.510596 0.114583 0.909994 -0.398474 
-0.190298 0.908156 -0.37288 -0.359951 0.870401 -0.335913 0.355806 0.76232 -0.54062 
0.445159 0.664945 -0.599734 0.353782 0.761305 -0.543373 0.282021 0.605074 -0.744547 
0.168646 0.523995 -0.834858 -0.032681 0.566071 -0.823709 -0.462307 0.81488 -0.349633 
-0.321372 0.694811 -0.643396 -0.472573 0.808682 -0.350297 -0.462611 0.815937 -0.346754 
0.55214 0.593382 -0.585695 0.593199 0.55047 -0.587449 0.399241 0.535359 -0.74431 
0.264756 0.415125 -0.870388 -0.500779 0.79909 -0.332679 -0.431157 0.694514 -0.575981 
-0.521547 0.786209 -0.331458 -0.574383 0.724389 -0.381241 0.664727 0.423296 -0.615596 
0.751222 0.340348 -0.565534 0.571266 0.350138 -0.742333 0.328379 0.339974 -0.881241 
-0.423279 0.492512 -0.760439 -0.574245 0.724374 -0.381477 -0.572814 0.72179 -0.388463 
-0.579701 0.734585 -0.352607 0.76824 0.311919 -0.559029 0.730988 0.305055 -0.610408 
0.4737 0.233584 -0.849144 -0.306286 0.402415 -0.8627 -0.57735 0.732769 -0.360162 
-0.556721 0.681162 -0.475479 -0.596309 0.697324 -0.397687 0.694353 0.391686 -0.603702 
0.784306 0.380107 -0.490289 0.610489 0.302545 -0.731963 0.365316 0.198148 -0.90955 
-0.265552 0.353682 -0.896878 -0.638531 0.655042 -0.403977 -0.521911 0.557593 -0.645522 
-0.710106 0.57303 -0.409128 0.802459 0.369823 -0.468285 0.761269 0.355033 -0.542606 
0.414944 0.255343 -0.873282 -0.359134 0.245601 -0.900391 -0.786267 0.4573 -0.415524 
-0.636201 0.436065 -0.636471 0.768555 0.368268 -0.523165 0.619552 0.276635 -0.734594 
-0.878598 0.187502 -0.439214 -0.552953 0.221512 -0.803228 0.898173 0.181968 -0.400217 
0.919878 0.0807139 -0.383809 0.589881 0.153214 -0.792822 -0.916332 -0.120626 -0.381818 
0.927658 -0.0391583 -0.371371 0.92085 -0.147915 -0.360773 0.908569 -0.0389985 -0.415911 
0.531118 0.120227 -0.838724 -0.888418 -0.363018 -0.280947 -0.790801 -0.556495 -0.254846 
-0.646522 -0.360312 -0.672447 0.879205 -0.328047 -0.345519 -0.779905 -0.571776 -0.254599 
0.761479 -0.54942 -0.343931 0.686136 -0.644069 -0.338221 0.66689 -0.566559 -0.484014 
0.345838 -0.404772 -0.846496 -0.0619721 -0.40438 -0.912489 0.0274733 -0.498008 -0.866737 
0.0388477 -0.489056 -0.871387 -0.0604047 -0.483197 -0.873425 -0.205704 -0.912244 -0.354255 
-0.0882713 -0.523425 -0.847487 -0.41142 -0.861227 -0.298366 -0.239375 -0.611642 -0.754051 
-0.582525 -0.783497 -0.216326 -0.56865 -0.792952 -0.218779 -0.568214 -0.780529 -0.26059 
0.455526 -0.836425 -0.304777 0.422594 -0.854568 -0.301874 0.418105 -0.830609 -0.3678 
0.262049 -0.893847 -0.363823 0.214861 -0.708348 -0.672367 0.0953467 -0.941727 -0.322581 
0.125451 -0.662075 -0.738863 -0.00208913 -0.946823 -0.321747 0.0375524 -0.631833 -0.774195 
-0.00683643 -0.929336 -0.369171 -0.0533351 -0.626359 -0.777708 -0.0570597 -0.88696 -0.458308 
-0.128697 -0.612175 -0.780179 -0.172158 -0.804285 -0.56876 -0.170022 -0.626838 -0.760372 
-0.196184 -0.782766 -0.590584 -0.177891 -0.715557 -0.675524 -0.0858773 -0.816279 -0.571239 
-0.0840275 -0.809405 -0.581208 -0.000512243 -0.84562 -0.533785 0.00159431 -0.83918 -0.543851 
-0.0893562 -0.905092 -0.415721 -0.0437956 -0.89715 -0.43955 -0.0403101 -0.888643 -0.456825 
0.209434 0.33659 -0.918065 0.17647 0.40076 -0.899027 -0.0208283 0.522107 -0.852625 
-0.232632 0.511744 -0.827043 -0.31554 0.499078 -0.807066 0.213756 0.330914 -0.919132 
0.201548 0.331278 -0.921756 0.208222 0.321454 -0.923748 0.176094 0.283326 -0.942718 
0.0285812 0.280657 -0.959383 -0.159552 0.37007 -0.9152 -0.323068 0.493126 -0.807746 
-0.305249 0.467355 -0.8297 -0.290658 0.449352 -0.844749 0.307997 0.332323 -0.891459 
0.325483 0.321434 -0.889236 0.149055 0.28178 -0.94783 0.127394 0.191909 -0.973109 
0.133123 0.0792551 -0.987926 0.0430062 0.0375394 -0.998369 -0.0952946 0.0646749 -0.993346 
-0.170609 0.184572 -0.967898 -0.332538 0.430675 -0.83901 -0.231027 0.37879 -0.896183 
-0.35254 0.378581 -0.855799 0.373193 0.190921 -0.907897 0.308483 0.163237 -0.937119 
0.107146 0.139708 -0.984379 0.0128227 0.0958144 -0.995317 0.017975 -0.0615674 -0.997941 
0.0193105 -0.0998313 -0.994817 -0.0062561 -0.128879 -0.991641 -0.0147812 0.0549973 -0.998377 
-0.11101 0.148651 -0.982639 -0.272812 0.333944 -0.90225 -0.263368 0.215087 -0.940412 
-0.25786 0.295897 -0.919757 0.34615 0.184126 -0.919933 0.340821 0.194659 -0.919755 
0.253235 0.0707951 -0.964811 0.0821508 0.0310357 -0.996137 -0.0736314 -0.00418318 -0.997277 
-0.0644609 -0.062581 -0.995956 -0.0240652 0.0850176 -0.996089 0.0598807 -0.0861195 -0.994484 
0.106981 0.0259447 -0.993923 -0.0707238 -0.0181894 -0.99733 -0.184672 0.0617105 -0.980861 
-0.229562 0.239104 -0.943467 -0.223996 0.188894 -0.956109 -0.219149 0.273983 -0.936433 
0.325728 0.202873 -0.923441 0.35842 0.277382 -0.8914 0.270012 0.191972 -0.943525 
0.156994 0.0764007 -0.98464 0.0327343 -0.0170161 -0.999319 -0.079649 -0.0684371 -0.994471 
0.107201 0.00714882 -0.994212 -0.00378869 0.032383 -0.999468 -0.0639413 0.055362 -0.996417 
0.0482323 0.000495927 -0.998836 -0.0810504 -0.0930542 -0.992357 -0.0442221 0.0279882 -0.99863 
-0.0665207 0.158889 -0.985053 -0.295331 0.216355 -0.930575 -0.190904 0.191747 -0.962699 
-0.274845 0.191532 -0.942219 0.373997 0.281916 -0.883544 0.349611 0.281234 -0.893689 
0.206502 0.194426 -0.958935 0.0335372 0.0855529 -0.995769 -0.0633027 -0.0103271 -0.997941 
-0.0465624 -0.0585025 -0.997201 -0.00922384 0.0890257 -0.995987 0.0266306 -0.143989 -0.989221 
0.0707538 0.118458 -0.990435 -0.0450699 -0.0258411 -0.99865 -0.0366671 -0.0320458 -0.998814 
0.0585352 0.025773 -0.997953 -0.0437063 0.0735969 -0.99633 -0.155768 0.0697258 -0.98533 
-0.3514 0.198282 -0.914987 -0.227099 0.167301 -0.959394 -0.50127 0.0600304 -0.863206 
0.468397 0.130445 -0.873835 0.318339 0.123545 -0.939892 0.11625 0.0678256 -0.990901 
-0.03901 0.0130972 -0.999153 -0.107259 -0.00172332 -0.99423 0.00358372 0.00185979 -0.999992 
0.0569453 -0.0636692 -0.996345 0.0245855 -0.0795374 -0.996529 0.0289895 0.0236481 -0.9993 
-0.10454 -0.0141424 -0.99442 -0.0202663 0.0182108 -0.999629 0.0630124 -0.000552332 -0.998013 
-0.0202351 -0.00876075 -0.999757 -0.110113 0.0604141 -0.992081 -0.193602 -0.0344884 -0.980474 
-0.527149 -0.0285797 -0.849292 -0.506328 -0.112385 -0.854986 -0.485646 -0.0268677 -0.873743 
0.447984 0.0811128 -0.890355 0.497749 -0.0645901 -0.864913 0.281591 -0.0313208 -0.959023 
0.0887737 -0.0912191 -0.991866 -0.0376944 0.0154281 -0.99917 -0.0765328 -0.00506885 -0.997054 
-0.0920612 0.0306924 -0.99528 -0.0844485 -0.105457 -0.990832 0.0963892 -0.11742 -0.988393 
0.130206 -0.146428 -0.980615 -0.0469683 -0.0838393 -0.995372 -0.0293596 -0.0301356 -0.999115 
0.0309654 -0.0416185 -0.998654 0.011268 -0.124968 -0.992097 -0.152644 -0.0784875 -0.98516 
-0.356536 -0.127497 -0.925541 -0.327778 -0.0938432 -0.940082 0.509091 -0.172517 -0.843246 
0.499893 -0.212995 -0.839488 0.479694 -0.152966 -0.864 0.253634 -0.344213 -0.903984 
0.182386 -0.272659 -0.944665 0.148443 -0.129732 -0.980375 0.0467717 -0.127024 -0.990796 
-0.090735 -0.0535864 -0.994432 -0.0950481 -0.0399069 -0.994672 -0.106898 -0.0460901 -0.993201 
-0.00459716 -0.0705493 -0.997498 -0.0294151 -0.358871 -0.932924 0.0620144 -0.249961 -0.966268 
0.0317855 -0.437831 -0.898495 0.0181981 -0.249483 -0.968208 0.0385389 -0.482982 -0.874782 
0.0142999 -0.17691 -0.984123 -0.0603561 -0.482016 -0.874081 -0.0326529 -0.20075 -0.979098 
-0.0739473 -0.382854 -0.920844 -0.0781687 -0.245229 -0.966309 -0.146206 -0.444711 -0.883661 
-0.11685 -0.333684 -0.935415 -0.403677 -0.265551 -0.875515 -0.399848 -0.273194 -0.874921 
-0.392951 -0.259101 -0.882302 0.278687 -0.382303 -0.88101 0.205245 -0.465504 -0.860918 
0.207123 -0.380625 -0.901235 0.095459 -0.459763 -0.882896 0.0407082 -0.33205 -0.942383 
0.0365856 -0.48752 -0.872345 0.0119015 -0.283731 -0.95883 -0.0584365 -0.478428 -0.87618 
-0.0783372 -0.235093 -0.968811 -0.128457 -0.360565 -0.923846 -0.117013 -0.2343 -0.965097 
-0.0997199 -0.317802 -0.942899 -0.126697 -0.299339 -0.945698 -0.12043 -0.272696 -0.954533 

