# vtk DataFile Version 4.2
vtk output
ASCII
DATASET POLYDATA
POINTS 540 float
-14.8127 -35.5884 -14.297 -7.3781 -35.5884 -16.758 0.056486 -35.5884 -18.5793 
7.49108 -35.5884 -19.9653 14.9257 -35.5884 -19.2688 22.3603 -35.5884 -15.9437 
-22.2473 -28.1538 -16.1592 -14.8127 -28.1538 -17.4947 -7.3781 -28.1538 -18.7082 
0.056486 -28.1538 -19.758 7.49108 -28.1538 -21.0842 14.9257 -28.1538 -20.8326 
22.3603 -28.1538 -18.696 29.7948 -28.1538 -15.8153 -37.1165 -20.7192 -14.9073 
-29.6819 -20.7192 -16.5985 -22.2473 -20.7192 -17.3983 -14.8127 -20.7192 -17.9285 
-7.3781 -20.7192 -18.5159 0.056486 -20.7192 -19.0431 7.49108 -20.7192 -20.529 
14.9257 -20.7192 -20.5563 22.3603 -20.7192 -19.1596 29.7948 -20.7192 -17.4045 
37.2294 -20.7192 -15.2906 -44.5511 -13.2846 -15.1761 -37.1165 -13.2846 -17.1146 
-29.6819 -13.2846 -17.8756 -22.2473 -13.2846 -17.8652 -14.8127 -13.2846 -17.8855 
-7.3781 -13.2846 -17.3616 0.056486 -13.2846 -17.3964 7.49108 -13.2846 -19.1504 
14.9257 -13.2846 -18.6778 22.3603 -13.2846 -18.1287 29.7948 -13.2846 -18.2184 
37.2294 -13.2846 -17.4308 44.664 -13.2846 -15.12 -44.5511 -5.85001 -15.2988 
-37.1165 -5.85001 -17.2081 -29.6819 -5.85001 -17.8414 -22.2473 -5.85001 -17.7034 
-14.8127 -5.85001 -18.196 -7.3781 -5.85001 -19.6173 0.056486 -5.85001 -17.71 
7.49108 -5.85001 -19.0276 14.9257 -5.85001 -17.0641 22.3603 -5.85001 -17.8935 
29.7948 -5.85001 -18.5486 37.2294 -5.85001 -18.4153 44.664 -5.85001 -17.0961 
-44.5511 1.58458 -14.9687 -37.1165 1.58458 -16.696 -29.6819 1.58458 -17.0399 
-22.2473 1.58458 -16.735 -14.8127 1.58458 -17.6385 -7.3781 1.58458 -19.0225 
0.056486 1.58458 -15.91 7.49108 1.58458 -19.7769 14.9257 1.58458 -17.2978 
22.3603 1.58458 -18.0286 29.7948 1.58458 -18.8381 37.2294 1.58458 -18.8348 
44.664 1.58458 -17.5272 52.0986 1.58458 -14.2291 -44.5511 9.01917 -14.3679 
-37.1165 9.01917 -15.9554 -29.6819 9.01917 -16.3106 -22.2473 9.01917 -16.1811 
-14.8127 9.01917 -16.1879 -7.3781 9.01917 -17.0412 0.056486 9.01917 -16.4567 
7.49108 9.01917 -18.0687 14.9257 9.01917 -16.8899 22.3603 9.01917 -17.638 
29.7948 9.01917 -18.5271 37.2294 9.01917 -18.406 44.664 9.01917 -17.083 
52.0986 9.01917 -13.812 -37.1165 16.4538 -13.7642 -29.6819 16.4538 -14.9203 
-22.2473 16.4538 -14.8447 -14.8127 16.4538 -14.9537 -7.3781 16.4538 -15.3299 
0.056486 16.4538 -15.6088 7.49108 16.4538 -16.0452 14.9257 16.4538 -16.2188 
22.3603 16.4538 -17.0672 29.7948 16.4538 -17.8355 37.2294 16.4538 -17.298 
44.664 16.4538 -16.2082 -7.3781 23.8883 -13.8989 0.056486 23.8883 -14.4271 
7.49108 23.8883 -14.9169 14.9257 23.8883 -15.5545 22.3603 23.8883 -15.7612 
29.7948 23.8883 -16.0399 37.2294 23.8883 -14.8435 -14.8127 -36.2662 -13.7441 
-7.3781 -39.0466 -13.7441 0.056486 -40.7754 -13.7441 7.49108 -41.7691 -13.7441 
7.49108 -43.023 -6.3567 14.9257 -41.1695 -13.7441 22.3603 -37.9509 -13.7441 
-16.2021 -35.5884 -13.7441 -22.2473 -32.148 -13.7441 -22.2473 -35.5884 -9.65013 
25.8443 -35.5884 -13.7441 29.7948 -31.788 -13.7441 29.7948 -35.5884 -9.14146 
-37.1165 -22.7531 -13.7441 -37.1165 -28.1538 -9.07077 -29.1082 -28.1538 -13.7441 
-29.6819 -27.638 -13.7441 -29.6819 -28.1538 -13.4683 33.9405 -28.1538 -13.7441 
37.2294 -24.1281 -13.7441 37.2294 -28.1538 -10.9402 -39.9086 -20.7192 -13.7441 
-44.5511 -16.7655 -13.7441 -44.5511 -20.7192 -11.1936 40.5329 -20.7192 -13.7441 
44.664 -16.583 -13.7441 44.664 -20.7192 -11.144 -46.9075 -13.2846 -13.7441 
-51.9856 -13.2846 -9.08253 46.9688 -13.2846 -13.7441 52.0986 -13.2846 -9.17748 
-47.5911 -5.85001 -13.7441 -51.9856 -5.85001 -11.0202 51.688 -5.85001 -13.7441 
52.0986 -3.66107 -13.7441 52.0986 -5.85001 -13.4735 -47.1436 1.58458 -13.7441 
-51.9856 1.58458 -11.0675 52.8605 1.58458 -13.7441 -45.7799 9.01917 -13.7441 
-51.9856 9.01917 -9.79645 -44.5511 10.9152 -13.7441 52.1913 9.01917 -13.7441 
52.0986 9.27599 -13.7441 59.5332 9.01917 -6.47541 -51.9856 16.4538 -6.56591 
-37.1909 16.4538 -13.7441 -44.5511 16.4538 -11.5203 -37.1165 16.505 -13.7441 
-29.6819 19.9631 -13.7441 -22.2473 19.6592 -13.7441 -14.8127 20.5579 -13.7441 
49.4156 16.4538 -13.7441 44.664 22.2608 -13.7441 52.0986 16.4538 -11.8345 
-44.5511 23.8883 -7.4806 -37.1165 23.8883 -10.5035 -29.6819 23.8883 -12.0518 
-22.2473 23.8883 -12.1906 -8.39541 23.8883 -13.7441 -14.8127 23.8883 -12.7089 
-7.3781 24.2844 -13.7441 0.056486 26.1183 -13.7441 7.49108 28.3021 -13.7441 
14.9257 29.727 -13.7441 22.3603 29.3971 -13.7441 29.7948 29.9982 -13.7441 
41.5124 23.8883 -13.7441 37.2294 26.1445 -13.7441 44.664 23.8883 -12.7922 
-22.2473 31.3229 -7.71437 -14.8127 31.3229 -8.75116 -7.3781 31.3229 -10.4085 
0.056486 31.3229 -11.9127 7.49108 31.3229 -12.8303 14.9257 31.3229 -13.1453 
22.3603 31.3229 -12.9481 29.7948 31.3229 -12.993 37.2294 31.3229 -10.4086 
14.9257 38.7575 -6.44882 7.49108 -43.0293 -6.30947 -22.2473 -37.3985 -6.30947 
-14.8127 -39.9649 -6.30947 -7.3781 -41.7351 -6.30947 7.3893 -43.023 -6.30947 
0.056486 -42.5596 -6.30947 7.71008 -43.023 -6.30947 7.49108 -43.023 -6.28301 
14.9257 -42.8078 -6.30947 22.3603 -41.139 -6.30947 29.7948 -37.0146 -6.30947 
-37.1165 -30.0704 -6.30947 -26.1953 -35.5884 -6.30947 -29.6819 -33.9354 -6.30947 
31.8961 -35.5884 -6.30947 37.2294 -31.4633 -6.30947 -40.5808 -28.1538 -6.30947 
-44.5511 -25.4706 -6.30947 41.1597 -28.1538 -6.30947 44.664 -24.9727 -6.30947 
-49.6001 -20.7192 -6.30947 -51.9856 -17.4112 -6.30947 48.8532 -20.7192 -6.30947 
52.0986 -16.528 -6.30947 -54.4978 -13.2846 -6.30947 54.2817 -13.2846 -6.30947 
-56.5637 -5.85001 -6.30947 57.9459 -5.85001 -6.30947 -57.0067 1.58458 -6.30947 
-59.4202 1.58458 -0.108951 58.8215 1.58458 -6.30947 59.5332 8.08074 -6.30947 
59.5332 1.58458 -2.23038 -55.9127 9.01917 -6.30947 59.6299 9.01917 -6.30947 
59.5332 9.39749 -6.30947 -52.2263 16.4538 -6.30947 -51.9856 16.9455 -6.30947 
57.3457 16.4538 -6.30947 52.0986 23.6745 -6.30947 -46.4444 23.8883 -6.30947 
-51.9856 23.8883 -1.42208 -44.5511 25.4845 -6.30947 -37.1165 28.9586 -6.30947 
-29.6819 30.959 -6.30947 51.9148 23.8883 -6.30947 44.664 30.6116 -6.30947 
52.0986 23.8883 -5.5458 -37.1165 31.3229 -3.69956 -28.39 31.3229 -6.30947 
-29.6819 31.3229 -5.94018 -22.2473 32.8757 -6.30947 -14.8127 33.9031 -6.30947 
-7.3781 35.7418 -6.30947 0.056486 37.3713 -6.30947 7.49108 38.4089 -6.30947 
22.3603 38.5824 -6.30947 29.7948 37.4277 -6.30947 43.4875 31.3229 -6.30947 
37.2294 34.7513 -6.30947 44.664 31.3229 -0.649127 -7.3781 38.7575 -0.0652383 
0.056486 38.7575 -2.78304 13.097 38.7575 -6.30947 7.49108 38.7575 -5.29523 
17.8787 38.7575 -6.30947 14.9257 38.8587 -6.30947 22.3603 38.7575 -5.5602 
-22.2473 -37.0133 1.12512 -14.8127 -39.0757 1.12512 -7.3781 -40.388 1.12512 
0.056486 -40.7369 1.12512 7.49108 -41.093 1.12512 14.9257 -41.054 1.12512 
22.3603 -39.729 1.12512 29.7948 -36.4737 1.12512 -37.1165 -30.6686 1.12512 
-25.7178 -35.5884 1.12512 -29.6819 -34.0641 1.12512 -22.2473 -35.5884 4.18474 
-14.8127 -35.5884 8.10609 22.3603 -35.5884 7.85455 31.1422 -35.5884 1.12512 
29.7948 -35.5884 2.6052 37.2294 -31.2992 1.12512 -42.2024 -28.1538 1.12512 
-44.5511 -26.8333 1.12512 -37.1165 -28.1538 7.62615 41.078 -28.1538 1.12512 
37.2294 -28.1538 5.69214 44.664 -24.9945 1.12512 -51.8636 -20.7192 1.12512 
-51.9856 -20.5692 1.12512 48.9927 -20.7192 1.12512 44.664 -20.7192 6.84545 
52.0986 -17.0333 1.12512 -56.423 -13.2846 1.12512 54.7219 -13.2846 1.12512 
52.0986 -13.2846 5.88189 -58.6441 -5.85001 1.12512 -59.4202 -0.807652 1.12512 
58.8415 -5.85001 1.12512 59.5332 -1.94639 1.12512 -59.7822 1.58458 1.12512 
-59.4202 7.00079 1.12512 -59.4202 1.58458 4.13136 60.0753 1.58458 1.12512 
59.5332 1.58458 2.52893 -59.2761 9.01917 1.12512 60.3992 9.01917 1.12512 
59.5332 12.3985 1.12512 59.5332 9.01917 3.19724 -57.0929 16.4538 1.12512 
58.42 16.4538 1.12512 -53.3722 23.8883 1.12512 -51.9856 25.4746 1.12512 
-44.5511 31.1987 1.12512 53.5002 23.8883 1.12512 52.0986 25.459 1.12512 
52.0986 23.8883 3.60579 -44.334 31.3229 1.12512 -44.5511 31.3229 3.13345 
-37.1165 34.6475 1.12512 -29.6819 36.0563 1.12512 -22.2473 37.151 1.12512 
-14.8127 38.2466 1.12512 29.7948 38.281 1.12512 37.2294 35.4808 1.12512 
44.9508 31.3229 1.12512 44.664 31.5231 1.12512 44.664 31.3229 1.49842 
-10.9609 38.7575 1.12512 -7.3781 39.2006 1.12512 -7.3781 38.7575 5.14807 
0.056486 39.945 1.12512 0.056486 38.7575 7.77242 7.49108 40.4832 1.12512 
7.49108 38.7575 8.14566 14.9257 40.6381 1.12512 14.9257 38.7575 7.42021 
27.7674 38.7575 1.12512 22.3603 40.0072 1.12512 22.3603 38.7575 4.31206 
-7.3781 -36.3402 8.55971 0.056486 -36.4221 8.55971 7.49108 -36.465 8.55971 
14.9257 -36.2973 8.55971 -29.6819 -30.6385 8.55971 -22.2473 -33.0808 8.55971 
-12.9027 -35.5884 8.55971 -14.8127 -35.2748 8.55971 -7.3781 -35.5884 9.41377 
0.056486 -35.5884 9.45999 7.49108 -35.5884 9.43848 19.3182 -35.5884 8.55971 
14.9257 -35.5884 9.24852 22.3603 -34.8675 8.55971 29.7948 -30.6128 8.55971 
-44.5511 -23.9946 8.55971 -36.125 -28.1538 8.55971 -37.1165 -27.7594 8.55971 
-29.6819 -28.1538 11.3706 -22.2473 -28.1538 13.0798 -14.8127 -28.1538 14.1842 
-7.3781 -28.1538 14.8931 0.056486 -28.1538 14.587 7.49108 -28.1538 14.217 
14.9257 -28.1538 13.7725 22.3603 -28.1538 12.491 33.4281 -28.1538 8.55971 
29.7948 -28.1538 10.4524 37.2294 -25.0724 8.55971 -48.6781 -20.7192 8.55971 
-51.9856 -17.0328 8.55971 -44.5511 -20.7192 12.3328 -37.1165 -20.7192 15.7058 
7.49108 -20.7192 15.8517 14.9257 -20.7192 15.4897 22.3603 -20.7192 14.7344 
29.7948 -20.7192 13.3267 42.443 -20.7192 8.55971 37.2294 -20.7192 11.0907 
44.664 -18.8793 8.55971 -54.512 -13.2846 8.55971 -51.9856 -13.2846 11.8267 
22.3603 -13.2846 15.409 29.7948 -13.2846 15.1334 37.2294 -13.2846 14.2953 
49.7885 -13.2846 8.55971 44.664 -13.2846 12.1576 52.0986 -10.3848 8.55971 
-57.1654 -5.85001 8.55971 -51.9856 -5.85001 15.6476 44.664 -5.85001 14.8228 
54.9284 -5.85001 8.55971 52.0986 -5.85001 11.2351 -58.7843 1.58458 8.55971 
56.7967 1.58458 8.55971 52.0986 1.58458 13.0262 -58.0162 9.01917 8.55971 
56.9835 9.01917 8.55971 52.0986 9.01917 13.1175 -56.5348 16.4538 8.55971 
-51.9856 16.4538 15.0291 44.664 16.4538 15.2314 54.6667 16.4538 8.55971 
[...]
POINT_DATA 540
SCALARS ImageScalars float
LOOKUP_TABLE default
0 0 0 0 0 0 0 0 0 
0 0 0 0 0 0 0 0 0 
0 0 0 0 0 0 0 0 0 
0 0 0 0 0 0 0 0 0 
0 0 0 0 0 0 0 0 0 
0 0 0 0 0 0 0 0 0 
0 0 0 0 0 0 0 0 0 
0 0 0 0 0 0 0 0 0 
0 0 0 0 0 0 0 0 0 
0 0 0 0 0 0 0 0 0 
0 0 0 0 0 0 0 0 0 
0 0 0 0 0 0 0 0 0 
0 0 0 0 0 0 0 0 0 
0 0 0 0 0 0 0 0 0 
0 0 0 0 0 0 0 0 0 
0 0 0 0 0 0 0 0 0 
0 0 0 0 0 0 0 0 0 
0 0 0 0 0 0 0 0 0 
0 0 0 0 0 0 0 0 0 
0 0 0 0 0 0 0 0 0 
0 0 0 0 0 0 0 0 0 
0 0 0 0 0 0 0 0 0 
0 0 0 0 0 0 0 0 0 
0 0 0 0 0 0 0 0 0 
0 0 0 0 0 0 0 0 0 
0 0 0 0 0 0 0 0 0 
0 0 0 0 0 0 0 0 0 
0 0 0 0 0 0 0 0 0 
0 0 0 0 0 0 0 0 0 
0 0 0 0 0 0 0 0 0 
0 0 0 0 0 0 0 0 0 
0 0 0 0 0 0 0 0 0 
0 0 0 0 0 0 0 0 0 
0 0 0 0 0 0 0 0 0 
0 0 0 0 0 0 0 0 0 
0 0 0 0 0 0 0 0 0 
0 0 0 0 0 0 0 0 0 
0 0 0 0 0 0 0 0 0 
0 0 0 0 0 0 0 0 0 
0 0 0 0 0 0 0 0 0 
0 0 0 0 0 0 0 0 0 
0 0 0 0 0 0 0 0 0 
0 0 0 0 0 0 0 0 0 
0 0 0 0 0 0 0 0 0 
0 0 0 0 0 0 0 0 0 
0 0 0 0 0 0 0 0 0 
0 0 0 0 0 0 0 0 0 
0 0 0 0 0 0 0 0 0 
0 0 0 0 0 0 0 0 0 
0 0 0 0 0 0 0 0 0 
0 0 0 0 0 0 0 0 0 
0 0 0 0 0 0 0 0 0 
0 0 0 0 0 0 0 0 0 
0 0 0 0 0 0 0 0 0 
0 0 0 0 0 0 0 0 0 
0 0 0 0 0 0 0 0 0 
0 0 0 0 0 0 0 0 0 
0 0 0 0 0 0 0 0 0 
0 0 0 0 0 0 0 0 0 
0 0 0 0 0 0 0 0 0 

NORMALS Normals float
0.330815 0.595878 0.731772 0.264215 0.502827 0.823016 0.203067 0.425878 0.881698 
0.0386947 0.387774 0.920942 -0.224994 0.433727 0.872501 -0.453153 0.535811 0.712431 
0.242725 0.346947 0.905932 0.16345 0.207461 0.964492 0.162062 0.104972 0.981181 
0.152402 0.0162102 0.988186 0.079252 0.0226311 0.996598 -0.148764 0.071726 0.986268 
-0.324802 0.182435 0.92802 -0.399196 0.34235 0.850552 0.278697 0.41023 0.868354 
0.152798 0.265906 0.951812 0.0854828 0.112768 0.989937 0.073106 0.0267693 0.996965 
0.0755327 -0.0913719 0.992948 0.135514 -0.157973 0.9781 0.0995597 -0.124731 0.987183 
-0.0927436 -0.138984 0.985942 -0.198873 -0.041331 0.979153 -0.234287 0.15761 0.959306 
-0.342363 0.355838 0.869579 0.420746 0.185808 0.887946 0.182844 0.129291 0.974603 
0.0520684 0.0748217 0.995837 0.000603875 0.0199823 0.9998 -0.0338308 0.0177699 0.99927 
-0.0332625 0.0616598 0.997543 0.119448 -0.0907213 0.988687 0.0843608 -0.101818 0.99122 
-0.0683458 -0.227291 0.971426 -0.0277429 -0.0836564 0.996108 -0.0490674 0.071569 0.996228 
-0.193586 0.17735 0.96492 -0.411693 0.300511 0.86035 0.348952 -0.0124683 0.937058 
0.157278 -0.0267814 0.987191 0.0327262 -0.056327 0.997876 0.0235625 -0.0753762 0.996877 
0.125594 -0.0133581 0.991992 -0.0354455 0.124227 0.991621 -0.0312088 -0.0835057 0.996018 
-0.0441369 0.0414133 0.998167 -0.0728727 -0.0862701 0.993603 0.0992307 -0.00661524 0.995042 
0.0351487 0.0431626 0.99845 -0.0912388 0.100039 0.990791 -0.267002 0.155614 0.951049 
0.326448 -0.0618475 0.94319 0.129653 -0.0793284 0.988381 0.00239245 -0.101757 0.994806 
0.0342526 -0.102762 0.994116 0.15163 -0.143358 0.977986 -0.103348 -0.183929 0.977491 
0.076223 -0.0952542 0.99253 0.0586704 -0.0622881 0.996332 -0.11378 -0.0119704 0.993434 
0.103503 -0.0171947 0.99448 0.0539759 -0.00142574 0.998541 -0.0827964 -0.00104627 0.996566 
-0.290844 -0.00103443 0.95677 -0.507017 0.0139074 0.861824 0.344711 -0.19489 0.918255 
0.135025 -0.190625 0.972332 0.0136534 -0.147232 0.989008 -0.00807836 -0.127256 0.991837 
0.0574523 -0.172141 0.983395 0.0184285 -0.22978 0.973068 0.0654462 -0.0258482 0.997521 
0.0269308 -0.248998 0.96813 -0.0249061 -0.0727871 0.997036 0.109354 -0.0640364 0.991938 
0.0514442 -0.0647614 0.996574 -0.0898413 -0.106404 0.990256 -0.261683 -0.0909541 0.960859 
-0.525925 -0.136851 0.839449 0.204771 -0.317139 0.926008 0.0661097 -0.257122 0.964115 
0.00198665 -0.253863 0.967238 0.0321631 -0.222601 0.974379 0.0435512 -0.208483 0.977056 
0.0475638 -0.132083 0.990097 0.0400641 -0.199264 0.979127 0.0681428 -0.0913558 0.993484 
0.104862 -0.121241 0.987069 0.013769 -0.177036 0.984108 -0.10711 -0.214104 0.970921 
-0.299849 -0.251563 0.920221 0.108749 -0.287257 0.95166 0.067341 -0.224349 0.972179 
0.0767867 -0.204864 0.975774 0.0538697 -0.192261 0.979864 0.0344473 -0.25086 0.96741 
-0.0524595 -0.294727 0.95414 -0.202203 -0.383335 0.901204 0.335108 0.635509 0.69558 
0.242411 0.747921 0.617941 0.160665 0.854873 0.493335 0.0189524 0.910238 0.413651 
0.0167136 0.998586 -0.050462 -0.207895 0.864115 0.458351 -0.446458 0.673257 0.589407 
0.34069 0.624997 0.702359 0.327163 0.55538 0.764537 0.384693 0.820667 0.422513 
-0.498955 0.601044 0.624331 -0.474009 0.498278 0.725971 -0.545102 0.763388 0.346558 
0.318206 0.474871 0.820514 0.452829 0.748317 0.484734 0.343129 0.498822 0.795889 
0.33683 0.495349 0.800734 0.353095 0.519749 0.777936 -0.474284 0.441929 0.761415 
-0.434978 0.436148 0.787763 -0.583078 0.592078 0.556294 0.348085 0.461973 0.815732 
0.453356 0.351361 0.819154 0.512735 0.564049 0.647264 -0.401856 0.428672 0.809168 
-0.450057 0.381579 0.80737 -0.545812 0.562335 0.621182 0.509076 0.20895 0.834974 
0.728496 0.315772 0.607932 -0.49906 0.32357 0.803891 -0.748876 0.44791 0.488428 
0.455273 0.0155734 0.890216 0.654879 0.0970503 0.749477 -0.579633 0.241157 0.778376 
-0.572454 0.175563 0.80092 -0.604315 0.249493 0.756675 0.408725 -0.0628166 0.910493 
0.605277 -0.0710151 0.792841 -0.539678 0.0193903 0.841648 0.384073 -0.19278 0.902953 
0.610122 -0.208765 0.764309 0.342899 -0.232807 0.910067 -0.529403 -0.137626 0.837133 
-0.528807 -0.141711 0.836828 -0.92824 -0.080568 0.363152 0.663671 -0.369891 0.65017 
0.206087 -0.31744 0.925613 0.358712 -0.356163 0.862829 0.204939 -0.318194 0.925609 
0.0773461 -0.351311 0.933058 0.0104961 -0.319115 0.947658 0.073428 -0.294584 0.9528 
-0.498466 -0.253853 0.828909 -0.3189 -0.409857 0.854587 -0.622031 -0.298891 0.7237 
0.417083 -0.530693 0.737839 0.222096 -0.514581 0.828179 0.0950565 -0.478337 0.873017 
0.0399945 -0.411987 0.910312 0.108865 -0.296321 0.948864 0.106267 -0.359269 0.927164 
0.112184 -0.29857 0.947771 0.0864134 -0.289633 0.953229 0.0747479 -0.328712 0.941468 
0.0168453 -0.386794 0.922012 0.00894097 -0.424086 0.905578 -0.0983401 -0.501537 0.859529 
-0.266981 -0.431718 0.861592 -0.22682 -0.457409 0.859843 -0.343209 -0.478902 0.807998 
0.143279 -0.648677 0.747455 0.152667 -0.621554 0.768351 0.17833 -0.558571 0.81006 
0.139775 -0.48923 0.860882 0.0711081 -0.437761 0.896275 0.00685777 -0.454107 0.890921 
-0.00984403 -0.501428 0.865144 -0.116576 -0.567256 0.815249 -0.324915 -0.697718 0.638451 
0.0097662 -0.880538 0.473876 0.0167392 0.998462 -0.0528595 0.377023 0.903098 0.205589 
0.278319 0.953334 0.117017 0.170143 0.983899 0.0547176 0.0176564 0.998461 -0.0525641 
0.085941 0.995998 -0.024544 0.0129996 0.998565 -0.0519429 0.0167526 0.998405 -0.0539241 
-0.114484 0.993247 -0.0188082 -0.354384 0.931929 0.0769419 -0.527692 0.832903 0.166777 
0.477359 0.8234 0.306825 0.403033 0.888072 0.221114 0.424484 0.867414 0.259627 
-0.549742 0.815651 0.18027 -0.619199 0.75114 0.228869 0.509 0.796842 0.325518 
0.574663 0.731456 0.367062 -0.653305 0.713528 0.253123 -0.665919 0.693593 0.274737 
0.70691 0.594759 0.382806 0.76058 0.494002 0.421284 -0.716466 0.644639 0.266676 
-0.783196 0.547535 0.294634 0.815018 0.367426 0.448044 -0.822301 0.472767 0.316721 
0.858275 0.133086 0.495632 -0.907161 0.268293 0.324156 0.834716 -0.0313485 0.549788 
0.987705 0.0327619 0.152861 -0.938355 0.0976394 0.331598 -0.935405 -0.0564729 0.349039 
-0.992287 0.0992567 0.0742597 0.76666 -0.226366 0.600826 -0.932146 -0.0796084 0.353222 
-0.930772 -0.0941287 0.353275 0.671697 -0.37275 0.64022 0.664195 -0.384132 0.641317 
-0.843764 -0.379027 0.38 -0.729876 -0.591919 0.341926 0.483234 -0.542251 0.687348 
0.713305 -0.601132 0.360329 0.428994 -0.584204 0.688963 0.20511 -0.682167 0.701839 
0.185471 -0.693205 0.696468 -0.725889 -0.597365 0.340939 -0.513205 -0.790157 0.335072 
-0.738704 -0.609336 0.288142 0.233827 -0.795137 0.559537 0.181548 -0.695461 0.695251 
0.188125 -0.712843 0.675621 0.148864 -0.714526 0.683588 0.150953 -0.728031 0.668718 
0.18649 -0.774225 0.604812 0.146372 -0.831116 0.53649 0.0829806 -0.869763 0.486443 
-0.0804824 -0.887846 0.453048 -0.219698 -0.888933 0.401909 -0.487321 -0.805398 0.337421 
-0.366111 -0.855221 0.366824 -0.54178 -0.837889 -0.0664598 0.124641 -0.973176 0.193373 
0.118161 -0.950291 0.288073 0.0278724 -0.882671 0.469163 0.0781834 -0.90756 0.412581 
-0.0253505 -0.887556 0.460001 0.0100138 -0.884862 0.465746 -0.0897501 -0.914637 0.394188 
0.318853 0.918984 -0.231949 0.208746 0.940612 -0.267719 0.108105 0.941132 -0.320286 
0.0447063 0.931444 -0.361129 0.0201391 0.925239 -0.378849 -0.0818272 0.925459 -0.369905 
-0.272523 0.903259 -0.331444 -0.4717 0.836355 -0.279304 0.433794 0.892357 -0.124584 
0.350893 0.912542 -0.210098 0.377694 0.907721 -0.18273 0.305758 0.876634 -0.371518 
0.17263 0.788239 -0.590659 -0.25625 0.704632 -0.661687 -0.494146 0.823759 -0.277922 
-0.470608 0.805297 -0.360589 -0.5831 0.772103 -0.252687 0.503667 0.858334 -0.0978915 
0.556099 0.827247 -0.0801042 0.359261 0.827296 -0.431871 -0.627262 0.739437 -0.24449 
-0.529407 0.663781 -0.528321 -0.665417 0.707713 -0.237407 0.757239 0.652434 -0.0303305 
0.761853 0.647089 -0.0292625 -0.716754 0.66071 -0.222995 -0.547059 0.597784 -0.585987 
-0.780916 0.59154 -0.200626 0.907444 0.420153 -0.00414124 -0.835178 0.522057 -0.173013 
-0.699561 0.523913 -0.485931 0.97923 0.202002 0.0174032 0.993697 0.0930067 0.0625859 
-0.933226 0.330607 -0.140671 -0.971237 0.203919 -0.122947 0.995256 0.042351 0.0875894 
0.990996 -0.104545 0.0836432 0.994705 0.0477131 -0.0910212 -0.989481 0.0967302 -0.107568 
-0.978661 0.0940412 -0.182701 0.983452 -0.160481 0.0840696 -0.984007 -0.103844 -0.144727 
-0.96139 -0.230025 -0.151057 -0.962495 -0.1093 -0.248309 0.911312 -0.364991 0.190505 
-0.910366 -0.387293 -0.145732 0.774188 -0.596056 0.212954 0.727225 -0.65047 0.219163 
0.503971 -0.837552 0.210999 -0.754246 -0.643692 -0.129513 -0.722291 -0.678767 -0.132554 
-0.72029 -0.639304 -0.269209 0.498492 -0.840381 0.212757 0.51755 -0.849992 0.0982673 
0.312286 -0.905284 0.287991 0.158791 -0.950858 0.265808 0.141822 -0.966157 0.215471 
0.135604 -0.965887 0.22062 -0.28264 -0.946242 -0.157292 -0.400815 -0.90136 -0.164004 
-0.541896 -0.822627 -0.172143 -0.536153 -0.826219 -0.172923 -0.535103 -0.822627 -0.192224 
0.123383 -0.977399 0.171664 0.112152 -0.985231 0.129393 0.0693936 -0.988793 -0.132189 
0.085441 -0.994669 0.0577315 0.0267829 -0.93049 -0.365336 0.0464413 -0.998899 0.00667524 
-0.01044 -0.897332 -0.441232 -0.0307553 -0.99892 -0.0348223 -0.0970706 -0.898805 -0.427467 
-0.247164 -0.958847 -0.139725 -0.156349 -0.982544 -0.100813 -0.183876 -0.936726 -0.297881 
0.062007 0.778349 -0.624763 0.00703195 0.75332 -0.657616 -0.00644342 0.72929 -0.684174 
-0.0726533 0.711275 -0.699149 0.279447 0.777893 -0.562843 0.24429 0.756264 -0.60695 
0.141233 0.775076 -0.615882 0.168345 0.768726 -0.617025 0.0587866 0.751482 -0.657129 
0.00116123 0.721939 -0.691956 -0.0114116 0.697899 -0.716105 -0.176839 0.690861 -0.701027 
-0.0728414 0.684338 -0.725517 -0.249748 0.658841 -0.709616 -0.378685 0.571558 -0.727955 
0.511909 0.72271 -0.46437 0.334684 0.802973 -0.493174 0.343483 0.804537 -0.484499 
0.229703 0.70471 -0.671282 0.152461 0.568217 -0.808631 0.105086 0.464168 -0.879491 
0.0231268 0.410091 -0.911752 -0.0419429 0.392992 -0.918585 -0.0502489 0.361007 -0.931208 
-0.104795 0.353086 -0.929703 -0.194749 0.384553 -0.902326 -0.413657 0.551966 -0.724031 
-0.341442 0.490724 -0.801628 -0.418451 0.543229 -0.727874 0.615111 0.652963 -0.441902 
0.716121 0.553634 -0.425042 0.470099 0.629118 -0.619045 0.231953 0.551015 -0.801611 
-0.0727307 0.19819 -0.977462 -0.0737825 0.145529 -0.986599 -0.138126 0.183083 -0.973346 
-0.227658 0.27701 -0.933508 -0.451892 0.537625 -0.711866 -0.329766 0.451605 -0.82904 
-0.492386 0.53158 -0.689187 0.793157 0.448433 -0.412081 0.684928 0.449792 -0.573202 
-0.0566698 0.113509 -0.99192 -0.0757191 0.227678 -0.970788 -0.163915 0.345023 -0.92417 
-0.568417 0.481741 -0.666955 -0.413191 0.417995 -0.809045 -0.619371 0.44856 -0.644339 
0.893661 0.23431 -0.382713 0.608557 0.248789 -0.7535 -0.326392 0.237817 -0.914828 
-0.717191 0.335854 -0.610605 -0.580273 0.351198 -0.734808 0.928537 0.0539812 -0.367295 
-0.798898 0.106356 -0.591988 -0.550108 0.100755 -0.828993 0.927424 -0.133397 -0.349415 
-0.810154 -0.120594 -0.573678 -0.539546 -0.110523 -0.83467 0.899253 -0.30276 -0.315722 
0.621284 -0.28948 -0.728154 -0.312919 -0.28225 -0.906872 -0.701667 -0.386906 -0.598303 
-0.630422 -0.492038 -0.600388 -0.585815 -0.370663 -0.720715 0.764726 -0.576614 -0.287595 
0.730768 -0.616023 -0.294097 0.716291 -0.587478 -0.37656 0.425825 -0.400739 -0.811222 
-0.11746 -0.258477 -0.95885 -0.0786139 -0.316838 -0.945216 -0.209153 -0.438 -0.874306 
-0.537331 -0.571563 -0.620154 -0.443383 -0.632583 -0.63502 -0.402131 -0.531457 -0.74555 
0.530852 -0.821206 -0.209327 0.518976 -0.829436 -0.206641 0.522952 -0.816841 -0.243499 
0.305488 -0.923155 -0.233369 0.222593 -0.713931 -0.663893 0.15873 -0.9575 -0.240828 
0.102969 -0.601501 -0.792208 0.120399 -0.96551 -0.230856 0.0730897 -0.954459 -0.28925 
0.0249673 -0.928038 -0.371647 -0.0289432 -0.453107 -0.890986 0.0181792 -0.907218 -0.420268 
-0.0345113 -0.449217 -0.892756 -0.0147463 -0.882011 -0.470998 -0.0722262 -0.462749 -0.883542 
-0.109447 -0.850345 -0.514718 -0.141548 -0.454919 -0.879212 -0.215294 -0.752612 -0.622273 
-0.186297 -0.501638 -0.84478 -0.253814 -0.686073 -0.681823 -0.222264 -0.601274 -0.767508 
-0.34371 -0.685461 -0.641878 -0.327056 -0.692402 -0.643129 -0.322595 -0.672948 -0.665637 
0.08977 0.502621 -0.859833 0.0175442 0.384922 -0.922782 0.0433893 0.296769 -0.953963 
0.00651444 0.307967 -0.951375 -0.0673115 0.294827 -0.953177 0.394411 0.441843 -0.805738 
0.19831 0.531135 -0.823753 0.224109 0.53255 -0.81619 0.0528812 0.452355 -0.890269 
-0.0194986 0.342618 -0.939272 0.0201443 0.226756 -0.973743 -0.00776291 0.223956 -0.974568 
-0.0738812 0.209352 -0.975045 -0.0785279 0.257505 -0.963081 -0.0828271 0.197361 -0.976826 
-0.12778 0.0588532 -0.990055 0.443037 0.397436 -0.803594 0.380322 0.378248 -0.843969 
0.138435 0.298152 -0.944426 -0.0265053 0.266884 -0.963364 -0.105713 0.20021 -0.974033 
-0.0308004 0.126414 -0.991499 0.0518124 0.148555 -0.987546 -0.0647604 0.133538 -0.988926 
-0.182107 0.190151 -0.964717 -0.127585 0.0571707 -0.990179 -0.130166 0.0552474 -0.989952 
-0.00614839 0.135075 -0.990816 -0.0234554 0.205775 -0.978318 -0.131771 0.266242 -0.954857 
0.582129 0.246377 -0.774871 0.599978 0.221693 -0.768687 0.309309 0.166874 -0.936206 
0.124136 0.100176 -0.987196 -0.0465322 0.0712559 -0.996372 -0.179661 0.0417658 -0.982842 
-0.0369129 0.0277866 -0.998932 -0.000582327 0.0824797 -0.996593 -0.0433792 -0.0769575 -0.99609 
-0.140649 0.0952329 -0.985469 -0.149986 0.116811 -0.981763 0.0325048 0.1528 -0.987722 
0.0263499 0.188094 -0.981797 -0.210033 0.228004 -0.950737 -0.118089 0.222933 -0.967655 
-0.297134 0.104449 -0.949106 0.649634 0.0717919 -0.75685 0.566465 0.0702288 -0.821088 
0.228698 0.0360475 -0.97283 0.0537763 0.0488258 -0.997359 -0.0952319 -0.0258443 -0.99512 
-0.160796 -0.0152258 -0.98687 0.0111485 -0.0271254 -0.99957 -0.0426065 -0.0118039 -0.999022 
-0.0579304 0.0573639 -0.996671 0.01476 0.0674606 -0.997613 -0.0811583 0.116706 -0.989845 
0.0195527 0.0864037 -0.996068 0.00316977 0.0878777 -0.996126 -0.119655 0.063401 -0.990789 
-0.305643 0.0821645 -0.948595 -0.29161 0.0821459 -0.953004 0.635875 -0.1204 -0.762343 
0.589985 -0.214849 -0.778304 0.57514 -0.119867 -0.809225 0.280012 -0.0551758 -0.95841 
0.074858 -0.0403747 -0.996377 -0.118441 -0.0399892 -0.992155 -0.172264 -0.00254188 -0.985048 
-0.041395 0.0337024 -0.998574 0.0752355 -0.0772425 -0.99417 0.0355195 0.0502054 -0.998107 
-0.0756597 -0.0168558 -0.996991 -0.128292 -0.00809519 -0.991703 0.00181551 -0.0432675 -0.999062 
0.00137571 -0.0727157 -0.997352 -0.126154 -0.0699423 -0.989542 -0.295079 -0.0545362 -0.953915 
-0.291336 -0.0993146 -0.951452 -0.284328 -0.0532734 -0.957246 0.534792 -0.279927 -0.797269 
0.420656 -0.394126 -0.817137 0.329213 -0.244041 -0.912175 0.0628978 -0.196769 -0.97843 
-0.0549404 -0.102674 -0.993197 -0.0834984 -0.0573156 -0.994858 -0.062829 0.0316082 -0.997524 
-0.0284289 -0.0771443 -0.996615 0.00766398 -0.108607 -0.994055 -0.0489639 -0.132533 -0.989968 
-0.109578 -0.0899392 -0.989901 -0.0997458 -0.225361 -0.969156 -0.051964 -0.140098 -0.988773 
-0.0480015 -0.256974 -0.965226 -0.0294554 -0.22012 -0.975028 -0.202888 -0.246184 -0.94775 
-0.128754 -0.282316 -0.950642 -0.104569 -0.222698 -0.969263 0.4178 -0.395176 -0.818095 
0.20035 -0.59498 -0.77837 0.177903 -0.296798 -0.938223 0.0892565 -0.557216 -0.825556 
0.0127568 -0.284011 -0.958736 -0.0322567 -0.178364 -0.983436 -0.0591402 -0.164135 -0.984663 
-0.0314656 -0.4298 -0.902376 -0.064481 -0.171853 -0.98301 -0.0321205 -0.3882 -0.921015 
-0.0182515 -0.1803 -0.983442 -0.0695677 -0.378734 -0.922887 -0.0591404 -0.216095 -0.97458 
-0.121606 -0.238968 -0.963383 -0.136676 -0.275528 -0.951527 -0.131681 -0.203254 -0.970231 
0.0773387 -0.560817 -0.82432 0.0282653 -0.562291 -0.826456 0.0250825 -0.493227 -0.869539 
-0.0512639 -0.485581 -0.872687 -0.0595158 -0.503731 -0.861808 -0.0598656 -0.499825 -0.864055 

