# vtk DataFile Version 4.2
vtk output
ASCII
DATASET POLYDATA
POINTS 574 float
37.7816 -4.657 -17.3244 45.2678 -4.657 -17.4868 52.7539 -4.657 -17.359 
7.83696 2.82916 -17.2264 37.7816 2.82916 -17.2451 45.2678 2.82916 -17.4232 
52.7539 2.82916 -17.5407 -44.5662 -27.1155 -10.7511 -37.08 -27.1155 -12.3546 
-29.5938 -27.1155 -12.8137 -22.1077 -27.1155 -11.7663 -14.6215 -27.1155 -10.6846 
-52.0523 -19.6293 -11.3802 -44.5662 -19.6293 -14.7635 -37.08 -19.6293 -14.9859 
-29.5938 -19.6293 -15.239 -22.1077 -19.6293 -14.7519 -14.6215 -19.6293 -13.9969 
-7.13536 -19.6293 -13.4503 0.350803 -19.6293 -12.4481 7.83696 -19.6293 -11.4208 
15.3231 -19.6293 -10.7959 22.8093 -19.6293 -10.5491 30.2954 -19.6293 -11.5565 
37.7816 -19.6293 -12.3604 45.2678 -19.6293 -11.351 -59.5385 -12.1432 -10.5436 
-52.0523 -12.1432 -13.7453 -44.5662 -12.1432 -15.3775 -37.08 -12.1432 -16.8887 
-29.5938 -12.1432 -16.5928 -22.1077 -12.1432 -16.1953 -14.6215 -12.1432 -15.9478 
-7.13536 -12.1432 -16.9659 0.350803 -12.1432 -15.9163 7.83696 -12.1432 -12.6673 
15.3231 -12.1432 -12.419 22.8093 -12.1432 -13.832 30.2954 -12.1432 -14.9824 
37.7816 -5.34363 -17.1733 37.7816 -12.1432 -15.4738 45.2678 -5.86475 -17.1733 
45.2678 -12.1432 -15.3303 52.7539 -5.23127 -17.1733 52.7539 -12.1432 -14.2551 
60.2401 -12.1432 -11.923 -59.5385 -4.657 -11.3565 -52.0523 -4.657 -14.559 
-44.5662 -4.657 -15.9098 -37.08 -4.657 -16.5986 -29.5938 -4.657 -16.5028 
-22.1077 -4.657 -16.3785 -14.6215 -4.657 -16.6342 -7.13536 -4.657 -16.4791 
0.350803 -4.657 -14.3794 7.83696 2.62794 -17.1733 7.83696 -4.657 -15.104 
15.3231 -4.657 -14.4291 22.8093 -4.657 -15.6611 34.5883 -4.657 -17.1733 
30.2954 -4.657 -16.9567 53.3033 -4.657 -17.1733 60.2401 -4.657 -14.2255 
67.7262 -4.657 -10.5545 -59.5385 2.82916 -11.521 -52.0523 2.82916 -14.6176 
-44.5662 2.82916 -15.8408 -37.08 2.82916 -16.52 -29.5938 2.82916 -16.2728 
-22.1077 2.82916 -15.6083 -14.6215 2.82916 -15.4285 -7.13536 2.82916 -16.0925 
7.70988 2.82916 -17.1733 0.350803 2.82916 -13.7275 7.95785 2.82916 -17.1733 
7.83696 3.03059 -17.1733 15.3231 2.82916 -14.0455 22.8093 2.82916 -15.1965 
36.9458 2.82916 -17.1733 30.2954 2.82916 -16.599 37.7816 4.09994 -17.1733 
45.2678 4.14698 -17.1733 53.6935 2.82916 -17.1733 52.7539 4.61258 -17.1733 
60.2401 2.82916 -13.9179 67.7262 2.82916 -10.6964 -59.5385 10.3153 -10.2579 
-52.0523 10.3153 -13.8752 -44.5662 10.3153 -15.6237 -37.08 10.3153 -16.4859 
-29.5938 10.3153 -16.7189 -22.1077 10.3153 -16.1788 -14.6215 10.3153 -15.0739 
-7.13536 10.3153 -15.465 0.350803 10.3153 -16.0288 7.83696 10.3153 -15.1837 
15.3231 10.3153 -13.814 22.8093 10.3153 -14.4861 30.2954 10.3153 -15.6124 
37.7816 10.3153 -16.8095 45.2678 10.3153 -15.9847 52.7539 10.3153 -15.6303 
60.2401 10.3153 -13.2404 -52.0523 17.8015 -11.7576 -44.5662 17.8015 -14.7873 
-37.08 17.8015 -16.8512 -29.5938 17.8015 -16.7018 -22.1077 17.8015 -16.7537 
-14.6215 17.8015 -16.6173 -7.13536 17.8015 -16.5409 0.350803 17.8015 -15.6893 
7.83696 17.8015 -14.1958 15.3231 17.8015 -14.0422 22.8093 17.8015 -14.3833 
30.2954 17.8015 -15.5932 37.7816 17.8015 -14.6109 45.2678 17.8015 -15.1719 
52.7539 17.8015 -13.4014 60.2401 17.8015 -9.86364 -44.5662 25.2876 -12.8622 
-37.08 25.2876 -15.0165 -29.5938 25.2876 -16.7658 -22.1077 25.2876 -16.936 
-14.6215 25.2876 -16.8424 -7.13536 25.2876 -16.4018 0.350803 25.2876 -15.0325 
7.83696 25.2876 -13.7409 15.3231 25.2876 -13.1637 22.8093 25.2876 -13.3697 
30.2954 25.2876 -13.0706 37.7816 25.2876 -12.1931 45.2678 25.2876 -11.5192 
-37.08 32.7738 -11.1614 -29.5938 32.7738 -13.3435 -22.1077 32.7738 -14.6477 
-14.6215 32.7738 -14.7094 -7.13536 32.7738 -14.125 0.350803 32.7738 -12.788 
7.83696 32.7738 -11.4352 15.3231 32.7738 -10.6582 -44.5662 -28.6723 -9.68715 
-44.5662 -34.6016 -4.22549 -37.08 -31.7588 -9.68715 -37.08 -34.6016 -7.77879 
-29.5938 -32.7333 -9.68715 -29.5938 -34.6016 -8.25802 -22.1077 -30.9436 -9.68715 
-22.1077 -34.6016 -7.5697 -14.6215 -28.9221 -9.68715 -14.6215 -34.6016 -6.3079 
-7.13536 -34.6016 -5.21781 0.350803 -34.6016 -4.31063 7.83696 -34.6016 -3.14533 
15.3231 -34.6016 -2.26709 -47.9128 -27.1155 -9.68715 -52.0523 -23.8616 -9.68715 
-52.0523 -27.1155 -8.04177 -9.32529 -27.1155 -9.68715 -7.13536 -26.3344 -9.68715 
-7.13536 -27.1155 -9.28749 0.350803 -24.3843 -9.68715 0.350803 -27.1155 -8.20873 
7.83696 -23.8324 -9.68715 7.83696 -27.1155 -8.2092 15.3231 -22.4454 -9.68715 
15.3231 -27.1155 -7.56174 22.8093 -21.2843 -9.68715 22.8093 -27.1155 -6.64825 
30.2954 -22.7051 -9.68715 30.2954 -27.1155 -6.72325 37.7816 -23.1581 -9.68715 
37.7816 -27.1155 -5.92011 45.2678 -22.1758 -9.68715 45.2678 -27.1155 -3.55657 
-55.3276 -19.6293 -9.68715 -59.5385 -14.4812 -9.68715 -59.5385 -19.6293 -6.85086 
52.3883 -19.6293 -9.68715 52.7539 -19.4964 -9.68715 52.7539 -19.6293 -9.57991 
60.2401 -16.0635 -9.68715 60.2401 -19.6293 -5.67261 -60.6165 -12.1432 -9.68715 
63.7199 -12.1432 -9.68715 67.7262 -6.06231 -9.68715 67.7262 -12.1432 -5.34177 
-61.6982 -4.657 -9.68715 -67.0246 -4.657 -2.42252 68.9237 -4.657 -9.68715 
-61.8878 2.82916 -9.68715 -67.0246 2.82916 -2.7643 68.9315 2.82916 -9.68715 
67.7262 5.68196 -9.68715 -60.2015 10.3153 -9.68715 -59.5385 12.0496 -9.68715 
66.0825 10.3153 -9.68715 67.7262 10.3153 -7.77139 -55.6921 17.8015 -9.68715 
-59.5385 17.8015 -6.47395 -52.0523 24.6774 -9.68715 52.7539 22.8785 -9.68715 
60.498 17.8015 -9.68715 60.2401 18.0291 -9.68715 -51.6207 25.2876 -9.68715 
-52.0523 25.2876 -9.34859 -44.5662 30.3412 -9.68715 22.8093 31.981 -9.68715 
30.2954 31.4021 -9.68715 37.7816 28.1535 -9.68715 48.9494 25.2876 -9.68715 
45.2678 27.253 -9.68715 52.7539 25.2876 -5.28464 -40.5864 32.7738 -9.68715 
-44.5662 32.7738 -5.62729 -37.08 34.2243 -9.68715 -29.5938 36.8118 -9.68715 
-22.1077 38.567 -9.68715 -14.6215 39.2636 -9.68715 -7.13536 38.6614 -9.68715 
0.350803 37.1207 -9.68715 7.83696 35.6305 -9.68715 20.57 32.7738 -9.68715 
15.3231 34.1765 -9.68715 22.8093 32.7738 -8.87007 30.2954 32.7738 -6.4644 
-22.1077 40.26 -5.34362 -14.6215 40.26 -7.66224 -7.13536 40.26 -7.08191 
0.350803 40.26 -5.01168 -44.5662 -36.0269 -2.20099 -37.08 -38.5575 -2.20099 
-29.5938 -39.4385 -2.20099 -22.1077 -39.6403 -2.20099 -14.6215 -39.1273 -2.20099 
-14.6215 -42.0878 4.12142 -7.13536 -37.7303 -2.20099 -7.13536 -42.0878 5.19455 
0.350803 -37.2744 -2.20099 7.83696 -35.6619 -2.20099 15.3231 -34.6706 -2.20099 
-47.932 -34.6016 -2.20099 -52.0523 -32.4873 -2.20099 15.6782 -34.6016 -2.20099 
22.8093 -33.0176 -2.20099 22.8093 -34.6016 -0.333497 30.2954 -31.5911 -2.20099 
30.2954 -34.6016 2.70933 37.7816 -30.1503 -2.20099 45.2678 -27.9656 -2.20099 
-58.3528 -27.1155 -2.20099 -59.5385 -25.6487 -2.20099 47.6888 -27.1155 -2.20099 
52.7539 -25.5994 -2.20099 60.2401 -21.5315 -2.20099 -63.1529 -19.6293 -2.20099 
63.095 -19.6293 -2.20099 67.7262 -15.0982 -2.20099 -66.1515 -12.1432 -2.20099 
-67.0246 -5.59013 -2.20099 69.8711 -12.1432 -2.20099 -67.1539 -4.657 -2.20099 
73.8687 -4.657 -2.20099 -67.3833 2.82916 -2.20099 -67.0246 4.30753 -2.20099 
73.4205 2.82916 -2.20099 -65.567 10.3153 -2.20099 71.4624 10.3153 -2.20099 
67.7262 15.4617 -2.20099 -62.4238 17.8015 -2.20099 -59.5385 22.1645 -2.20099 
65.7567 17.8015 -2.20099 60.2401 22.2525 -2.20099 -56.9233 25.2876 -2.20099 
-52.0523 29.465 -2.20099 37.7816 31.9116 -2.20099 45.2678 29.4228 -2.20099 
55.2568 25.2876 -2.20099 52.7539 26.812 -2.20099 52.7539 25.2876 2.76385 
-46.6939 32.7738 -2.20099 -44.5662 33.9051 -2.20099 -44.5662 32.7738 3.61697 
-37.08 37.8352 -2.20099 -29.5938 39.6638 -2.20099 7.83696 40.1843 -2.20099 
15.3231 38.2447 -2.20099 22.8093 36.0701 -2.20099 22.8093 32.7738 4.09007 
34.5715 32.7738 -2.20099 30.2954 33.87 -2.20099 30.2954 32.7738 0.816143 
-26.7106 40.26 -2.20099 -22.1077 41.1757 -2.20099 -22.1077 40.26 4.91665 
-14.6215 42.1371 -2.20099 -7.13536 42.2842 -2.20099 7.40942 40.26 -2.20099 
0.350803 41.4793 -2.20099 0.350803 40.26 2.60984 -14.6215 -42.4924 5.28517 
-7.13536 -42.1264 5.28517 -44.5662 -36.78 5.28517 -37.08 -38.9462 5.28517 
-29.5938 -40.8065 5.28517 -19.7469 -42.0878 5.28517 -22.1077 -41.8934 5.28517 
-14.6215 -42.0878 6.22352 -6.89788 -42.0878 5.28517 -7.13536 -42.0878 5.38911 
0.350803 -40.8553 5.28517 7.83696 -39.5961 5.28517 15.3231 -38.7887 5.28517 
22.8093 -37.6967 5.28517 30.2954 -36.0666 5.28517 -48.7573 -34.6016 5.28517 
-52.0523 -31.9226 5.28517 -44.5662 -34.6016 9.1344 -37.08 -34.6016 10.3015 
34.2326 -34.6016 5.28517 30.2954 -34.6016 8.82437 37.7816 -33.3098 5.28517 
45.2678 -30.139 5.28517 -57.7223 -27.1155 5.28517 -59.5385 -25.3712 5.28517 
-52.0523 -27.1155 10.4639 -44.5662 -27.1155 12.6838 51.9575 -27.1155 5.28517 
45.2678 -27.1155 10.1868 52.7539 -26.6691 5.28517 60.2401 -22.1676 5.28517 
-63.0074 -19.6293 5.28517 -59.5385 -19.6293 9.22137 -52.0523 -19.6293 12.3507 
52.7539 -19.6293 12.0843 63.4406 -19.6293 5.28517 60.2401 -19.6293 8.86129 
67.7262 -14.4069 5.28517 -65.5773 -12.1432 5.28517 -67.0246 -4.77609 5.28517 
69.2983 -12.1432 5.28517 67.7262 -12.1432 7.09936 -67.0421 -4.657 5.28517 
-67.0246 -4.657 5.30918 71.7386 -4.657 5.28517 67.7262 -4.657 9.90125 
-67.1479 2.82916 5.28517 -67.0246 3.31246 5.28517 -67.0246 2.82916 5.45366 
71.5187 2.82916 5.28517 67.7262 2.82916 9.34125 -64.6756 10.3153 5.28517 
-59.5385 10.3153 11.7962 69.7493 10.3153 5.28517 67.7262 12.9907 5.28517 
67.7262 10.3153 7.33897 -61.8284 17.8015 5.28517 -59.5385 21.0758 5.28517 
-59.5385 17.8015 7.90828 -52.0523 17.8015 11.7386 45.2678 17.8015 12.0967 
52.7539 24.1864 5.28517 52.7539 17.8015 12.1533 62.4962 17.8015 5.28517 
60.2401 19.5156 5.28517 60.2401 17.8015 7.14491 -55.5006 25.2876 5.28517 
-52.0523 28.0134 5.28517 -52.0523 25.2876 8.34036 -44.5662 32.3617 5.28517 
-44.5662 25.2876 11.1774 15.3231 25.2876 12.2298 22.8093 31.771 5.28517 
22.8093 25.2876 9.93357 30.2954 30.2434 5.28517 30.2954 25.2876 9.16395 
37.7816 28.2121 5.28517 37.7816 25.2876 8.79216 50.5953 25.2876 5.28517 
45.2678 27.0774 5.28517 45.2678 25.2876 7.27484 -43.5747 32.7738 5.28517 
-37.08 35.3956 5.28517 -37.08 32.7738 8.01658 -29.5938 38.1329 5.28517 
[...]
POINT_DATA 574
SCALARS ImageScalars float
LOOKUP_TABLE default
0 0 0 0 0 0 0 0 0 
0 0 0 0 0 0 0 0 0 
0 0 0 0 0 0 0 0 0 
0 0 0 0 0 0 0 0 0 
0 0 0 0 0 0 0 0 0 
0 0 0 0 0 0 0 0 0 
0 0 0 0 0 0 0 0 0 
0 0 0 0 0 0 0 0 0 
0 0 0 0 0 0 0 0 0 
0 0 0 0 0 0 0 0 0 
0 0 0 0 0 0 0 0 0 
0 0 0 0 0 0 0 0 0 
0 0 0 0 0 0 0 0 0 
0 0 0 0 0 0 0 0 0 
0 0 0 0 0 0 0 0 0 
0 0 0 0 0 0 0 0 0 
0 0 0 0 0 0 0 0 0 
0 0 0 0 0 0 0 0 0 
0 0 0 0 0 0 0 0 0 
0 0 0 0 0 0 0 0 0 
0 0 0 0 0 0 0 0 0 
0 0 0 0 0 0 0 0 0 
0 0 0 0 0 0 0 0 0 
0 0 0 0 0 0 0 0 0 
0 0 0 0 0 0 0 0 0 
0 0 0 0 0 0 0 0 0 
0 0 0 0 0 0 0 0 0 
0 0 0 0 0 0 0 0 0 
0 0 0 0 0 0 0 0 0 
0 0 0 0 0 0 0 0 0 
0 0 0 0 0 0 0 0 0 
0 0 0 0 0 0 0 0 0 
0 0 0 0 0 0 0 0 0 
0 0 0 0 0 0 0 0 0 
0 0 0 0 0 0 0 0 0 
0 0 0 0 0 0 0 0 0 
0 0 0 0 0 0 0 0 0 
0 0 0 0 0 0 0 0 0 
0 0 0 0 0 0 0 0 0 
0 0 0 0 0 0 0 0 0 
0 0 0 0 0 0 0 0 0 
0 0 0 0 0 0 0 0 0 
0 0 0 0 0 0 0 0 0 
0 0 0 0 0 0 0 0 0 
0 0 0 0 0 0 0 0 0 
0 0 0 0 0 0 0 0 0 
0 0 0 0 0 0 0 0 0 
0 0 0 0 0 0 0 0 0 
0 0 0 0 0 0 0 0 0 
0 0 0 0 0 0 0 0 0 
0 0 0 0 0 0 0 0 0 
0 0 0 0 0 0 0 0 0 
0 0 0 0 0 0 0 0 0 
0 0 0 0 0 0 0 0 0 
0 0 0 0 0 0 0 0 0 
0 0 0 0 0 0 0 0 0 
0 0 0 0 0 0 0 0 0 
0 0 0 0 0 0 0 0 0 
0 0 0 0 0 0 0 0 0 
0 0 0 0 0 0 0 0 0 
0 0 0 0 0 0 0 0 0 
0 0 0 0 0 0 0 0 0 
0 0 0 0 0 0 0 0 0 
0 0 0 0 0 0 0 
NORMALS Normals float
0.0346713 0.106153 0.993745 0.00154271 0.128029 0.991769 -0.189961 0.186224 0.963969 
-0.0115684 0.000157879 0.999933 0.0542589 -0.0336178 0.997961 0.0208875 -0.0985114 0.994917 
-0.199873 -0.092491 0.975447 0.204039 0.49736 0.843209 0.124803 0.432025 0.893185 
-0.0369518 0.391264 0.919536 -0.132797 0.422249 0.8967 -0.145624 0.446444 0.882882 
0.392452 0.282964 0.875164 0.208406 0.267786 0.940669 0.0294951 0.268748 0.962759 
-0.0149503 0.252008 0.96761 -0.0804269 0.275384 0.957964 -0.0781751 0.320721 0.943942 
-0.0932359 0.480149 0.872218 -0.124544 0.475271 0.87098 -0.100669 0.273638 0.95655 
-0.0532188 0.288605 0.955968 0.0468161 0.426802 0.903132 0.105888 0.484657 0.868271 
-0.00737514 0.496939 0.867754 -0.148374 0.527058 0.836777 0.515995 0.198979 0.833161 
0.330175 0.190584 0.924479 0.191168 0.069755 0.979076 0.0757996 0.0987308 0.992223 
-0.0453329 0.0826759 0.995545 -0.0428653 0.104444 0.993607 0.0490375 0.168778 0.984434 
0.0033396 0.165972 0.986125 -0.28752 0.107387 0.951735 -0.20942 0.223216 0.952007 
0.0719859 0.249712 0.965641 0.160501 0.302679 0.939481 0.101183 0.346711 0.932498 
0.0345907 0.125908 0.991439 0.0231798 0.325667 0.9452 -0.00767685 0.165135 0.986241 
-0.072149 0.366489 0.927621 -0.193062 0.20326 0.959902 -0.212737 0.416508 0.883891 
-0.402095 0.37168 0.836764 0.508355 0.0616637 0.858937 0.327643 0.0534094 0.943291 
0.126315 0.0301547 0.991532 0.0386987 -0.0239376 0.998964 -0.0144608 -0.0213358 0.999668 
0.00831547 -0.0397597 0.999175 0.0072416 -0.0290593 0.999551 -0.137024 -0.058558 0.988835 
-0.0936755 -0.142881 0.985297 -0.0118111 0.00914655 0.999888 -0.00237474 0.291907 0.956444 
0.038013 0.098903 0.994371 0.167998 0.0817633 0.982391 0.065239 0.104934 0.992337 
0.107227 0.102376 0.98895 -0.198907 0.185234 0.962353 -0.34945 0.124378 0.928663 
-0.542192 0.229123 0.808413 0.501316 -0.0653662 0.862792 0.321434 -0.0431676 0.945948 
0.118687 -0.0188529 0.992753 0.0275972 -0.00774882 0.999589 -0.062451 0.014801 0.997938 
-0.0565787 -0.0122391 0.998323 0.0321487 -0.104973 0.993955 -0.0993365 -0.0682371 0.992711 
-0.0099996 0.00176283 0.999948 0.0445395 0.135385 0.989792 -0.013835 -0.000674213 0.999904 
-0.0157297 -0.00590719 0.999859 -0.101304 -0.0422382 0.993959 0.17381 -0.0784169 0.981652 
0.0638881 -0.0402624 0.997145 0.140168 -0.091476 0.985893 0.0499179 -0.0568127 0.997136 
0.00750972 -0.103583 0.994592 -0.215357 -0.0985813 0.971547 -0.203556 -0.146506 0.96804 
-0.362435 -0.0660674 0.929664 -0.566429 -0.126253 0.814382 0.575132 -0.217378 0.78865 
0.352296 -0.164106 0.921388 0.16651 -0.0750007 0.983183 0.0675395 0.0195775 0.997524 
-0.0189256 0.028653 0.99941 -0.106418 0.0762036 0.991397 -0.0496741 0.0843778 0.995195 
0.0641837 0.0318863 0.997429 -0.0149042 0.109519 0.993873 -0.154678 -0.184548 0.970576 
-0.0401937 -0.000154284 0.999192 0.118968 -0.0536613 0.991447 0.152936 -0.0670993 0.985955 
0.0258656 -0.171265 0.984885 -0.0745237 -0.139042 0.987478 -0.200331 -0.297469 0.933477 
-0.363086 -0.249316 0.897781 0.436253 -0.26802 0.858981 0.280597 -0.14593 0.948667 
0.145242 -0.109132 0.983359 -0.00589173 0.00274667 0.999979 -0.00562265 0.0500111 0.998733 
-0.0141467 0.114037 0.993376 -0.0600869 0.0628178 0.996215 -0.157127 -0.0658371 0.985381 
-0.106179 -0.0906773 0.990204 0.0124626 -0.0418485 0.999046 0.0972542 -0.0675578 0.992964 
0.01742 -0.176089 0.98422 -0.0316797 -0.25438 0.966585 -0.105871 -0.348928 0.93115 
-0.309342 -0.373662 0.874462 -0.52192 -0.542567 0.658195 0.381991 -0.416031 0.825228 
0.20949 -0.285854 0.935094 0.132751 -0.180755 0.974528 0.00390448 -0.12218 0.9925 
-0.0338947 -0.110657 0.99328 -0.119957 -0.14636 0.981931 -0.173287 -0.178303 0.968597 
-0.121084 -0.163759 0.979041 -0.0248145 -0.217233 0.975804 -0.00835444 -0.270806 0.962598 
-0.0591081 -0.401011 0.914164 -0.13145 -0.578671 0.804898 -0.23221 -0.613716 0.754606 
0.294392 -0.672111 0.679411 0.188761 -0.567085 0.801738 0.0796382 -0.461937 0.88333 
-0.0323668 -0.443538 0.895671 -0.118608 -0.445405 0.887438 -0.162058 -0.441804 0.882353 
-0.138714 -0.427565 0.893279 -0.122777 -0.519773 0.845436 0.241573 0.53935 0.806687 
0.36741 0.813032 0.451651 0.155373 0.54723 0.822435 0.176169 0.687887 0.704113 
-0.0273467 0.600636 0.799055 -0.0165251 0.697762 0.716139 -0.132829 0.471887 0.871596 
-0.107093 0.588058 0.801698 -0.137002 0.477102 0.868104 -0.127696 0.607181 0.784235 
-0.115319 0.618832 0.777012 -0.114888 0.588762 0.8001 -0.1158 0.677997 0.725886 
-0.123892 0.712754 0.690385 0.251006 0.540342 0.803135 0.358214 0.456513 0.814419 
0.381016 0.632964 0.673931 -0.147673 0.437661 0.886931 -0.145228 0.438083 0.887126 
-0.14858 0.436335 0.887432 -0.075233 0.465102 0.882055 -0.0655717 0.465132 0.882809 
-0.0555328 0.384922 0.921277 -0.0386572 0.480523 0.87613 -0.0702008 0.349499 0.934303 
-0.0894368 0.473032 0.876494 0.0231843 0.444484 0.895487 -0.0503621 0.529409 0.846871 
0.0627709 0.511327 0.857091 -0.0360901 0.608307 0.792881 -0.0198279 0.652663 0.757389 
-0.117972 0.767537 0.630055 -0.175985 0.601142 0.779524 -0.272646 0.846435 0.457398 
0.462516 0.308912 0.831055 0.528794 0.242418 0.813395 0.664922 0.416689 0.619878 
-0.225433 0.645047 0.730134 -0.227997 0.647325 0.727316 -0.230872 0.653333 0.721009 
-0.452252 0.546461 0.704875 -0.504193 0.748121 0.431399 0.557016 0.201306 0.805735 
-0.509704 0.454601 0.730438 -0.563401 0.288472 0.774186 -0.706814 0.570235 0.418624 
0.592621 0.0664406 0.802737 0.955646 0.0800502 0.28343 -0.558834 0.234722 0.795368 
0.604523 -0.0817597 0.79238 0.94394 -0.101854 0.314011 -0.603136 -0.131707 0.78669 
-0.608252 -0.238106 0.757189 0.60117 -0.222041 0.767654 0.581772 -0.280825 0.763334 
-0.582951 -0.364693 0.726063 -0.700725 -0.438567 0.562711 0.530717 -0.357011 0.768689 
0.698253 -0.515265 0.496936 0.533514 -0.470586 0.702788 -0.418616 -0.701054 0.577307 
-0.529333 -0.54466 0.650501 -0.522831 -0.553347 0.648425 0.528437 -0.487867 0.694795 
0.544991 -0.502807 0.670947 0.440508 -0.635683 0.633924 -0.121852 -0.690373 0.713118 
-0.162919 -0.751627 0.639151 -0.212242 -0.693443 0.688542 -0.367672 -0.734117 0.570868 
-0.284011 -0.761372 0.582795 -0.463379 -0.852678 0.241288 0.370504 -0.71382 0.594296 
0.474089 -0.83154 0.28945 0.308005 -0.743953 0.593015 0.228115 -0.77776 0.585707 
0.129723 -0.823225 0.552696 0.00744035 -0.809112 0.587608 -0.0996473 -0.750708 0.653076 
-0.13058 -0.671061 0.729813 -0.141601 -0.59842 0.78857 -0.139722 -0.670704 0.728446 
-0.158861 -0.602123 0.782439 -0.161754 -0.778822 0.606029 -0.228431 -0.922361 0.31156 
0.153823 -0.956077 0.249512 0.0299581 -0.901029 0.432723 -0.077847 -0.895649 0.437896 
-0.130399 -0.946903 0.29389 0.360749 0.869261 0.338003 0.216859 0.916782 0.335385 
0.0754922 0.895301 0.439018 -0.0138872 0.882646 0.469834 -0.102738 0.77749 0.620447 
0.00313006 0.998901 0.0467753 -0.0954798 0.72877 0.678069 -0.108512 0.993486 0.0348054 
-0.107778 0.720699 0.684819 -0.126516 0.719815 0.682539 -0.124285 0.715621 0.687342 
0.433973 0.836544 0.334457 0.536478 0.79082 0.29461 -0.127138 0.714179 0.68832 
-0.158424 0.689772 0.706481 -0.195396 0.812979 0.54853 -0.154818 0.782772 0.602743 
-0.279306 0.929954 0.239112 -0.189177 0.813742 0.549579 -0.285255 0.872668 0.396334 
0.73711 0.656467 0.160374 0.762853 0.622266 0.175616 -0.317722 0.865988 0.386157 
-0.379559 0.853731 0.356481 -0.507467 0.822042 0.258309 0.842639 0.48594 0.231996 
-0.607576 0.74832 0.266213 -0.746065 0.619055 0.245271 0.941164 0.225795 0.251451 
0.957964 0.0975427 0.269796 -0.789347 0.578328 0.206078 0.959664 0.0807085 0.269316 
-0.981202 0.187785 0.0444893 0.954799 -0.100719 0.279668 0.949914 -0.135638 0.281543 
-0.987832 -0.138395 0.07095 0.924643 -0.288521 0.248579 -0.876235 -0.469914 0.106733 
-0.783301 -0.606064 0.138296 0.842857 -0.506536 0.181697 0.769349 -0.601954 0.2139 
-0.727244 -0.678249 0.105334 -0.565241 -0.821792 0.0718349 0.715951 -0.676019 0.174392 
0.623065 -0.770444 0.134931 -0.285337 -0.958339 -0.0129737 -0.313752 -0.949447 -0.0105433 
-0.474608 -0.876653 0.0789078 -0.436095 -0.896891 0.0735358 -0.43509 -0.839882 -0.324491 
0.501292 -0.86195 0.0758123 0.459994 -0.886063 0.0574251 0.413696 -0.862359 -0.291877 
0.345298 -0.936791 0.0564963 0.214097 -0.974905 0.0610087 -0.209265 -0.977772 0.013005 
-0.278098 -0.959789 0.0383062 -0.284155 -0.958552 -0.0208446 -0.256444 -0.776935 -0.574986 
-0.280035 -0.95946 -0.0318991 -0.273225 -0.960472 -0.0533033 -0.24027 -0.931753 -0.272226 
0.191561 -0.979211 0.0667124 0.159833 -0.984 0.0787197 0.179472 -0.930448 -0.319461 
0.0726263 -0.99266 0.0966984 -0.0439853 -0.993078 0.108907 -0.205015 -0.978622 0.0163361 
-0.139987 -0.986323 0.0870143 -0.189605 -0.943335 -0.27234 0.0138966 0.999171 -0.0382687 
-0.108634 0.993692 0.0278459 0.379693 0.898112 -0.221872 0.268607 0.925251 -0.267882 
0.188738 0.970812 -0.147992 0.0779371 0.992578 -0.0933553 0.109557 0.986341 -0.123002 
0.024031 0.992215 -0.1222 -0.110623 0.993499 0.0268811 -0.108094 0.993954 0.0192766 
-0.169406 0.985487 -0.0107887 -0.140304 0.990101 0.00373627 -0.128777 0.991654 0.00621248 
-0.178198 0.981733 0.0666796 -0.294148 0.953235 0.069419 0.50838 0.815352 -0.277041 
0.600666 0.724131 -0.338873 0.349266 0.750209 -0.561427 0.185102 0.687223 -0.702468 
-0.339397 0.939735 0.0413131 -0.330438 0.896338 -0.295617 -0.369498 0.929187 -0.00907896 
-0.4071 0.904793 -0.124974 0.677003 0.649835 -0.345516 0.719193 0.597723 -0.354243 
0.467469 0.483519 -0.740055 0.267879 0.351316 -0.897117 -0.491618 0.854321 -0.168663 
-0.406281 0.757254 -0.511373 -0.499252 0.846246 -0.186052 -0.576131 0.776427 -0.255411 
0.826304 0.410975 -0.385125 0.684879 0.42318 -0.593178 0.397891 0.195112 -0.896445 
-0.350893 0.452116 -0.82004 -0.666913 0.683836 -0.295963 -0.526344 0.649788 -0.548395 
-0.77268 0.505334 -0.384192 0.88547 0.235086 -0.400847 0.912943 0.0887938 -0.398309 
-0.811352 0.451133 -0.371735 -0.739513 0.437741 -0.511375 0.913311 0.0862101 -0.398034 
0.912503 0.0861654 -0.399891 -0.840729 0.134553 -0.524472 -0.718864 0.119817 -0.684747 
0.907291 -0.127904 -0.40058 0.904437 -0.140201 -0.402912 0.901665 -0.127583 -0.413186 
-0.830312 -0.11886 -0.544476 -0.7303 -0.142007 -0.668204 0.872066 -0.28778 -0.395832 
0.564729 -0.277529 -0.777212 -0.766606 -0.434965 -0.472356 -0.701835 -0.492296 -0.514852 
-0.655611 -0.426868 -0.622863 0.785001 -0.465606 -0.408638 0.726057 -0.560618 -0.398183 
0.700329 -0.47433 -0.533432 0.422218 -0.336238 -0.841829 -0.0409722 -0.468641 -0.882438 
-0.401255 -0.748629 -0.527777 -0.226246 -0.517058 -0.825508 -0.549975 -0.652057 -0.521871 
-0.491479 -0.721217 -0.488154 -0.509132 -0.622526 -0.594345 0.613482 -0.679386 -0.402585 
0.545198 -0.722799 -0.424642 0.489579 -0.619438 -0.613684 0.390205 -0.825855 -0.407068 
0.316574 -0.517369 -0.795054 -0.237059 -0.438344 -0.866982 -0.234177 -0.689961 -0.68492 
-0.173371 -0.497795 -0.84979 -0.159301 -0.750686 -0.641166 -0.0592843 -0.566155 -0.822164 
-0.173521 -0.780059 -0.601165 -0.114468 -0.650414 -0.750906 -0.335689 -0.776577 -0.533143 
-0.197271 -0.817609 -0.540924 -0.196191 -0.746197 -0.636159 0.37884 -0.828782 -0.411825 
0.330034 -0.813887 -0.47819 0.302468 -0.730282 -0.612537 0.265009 -0.876025 -0.402928 
0.267612 -0.564251 -0.781028 0.179858 -0.922658 -0.341106 -0.212055 -0.842967 -0.494407 
-0.218726 -0.481488 -0.848721 -0.214628 -0.787972 -0.577092 -0.201436 -0.610137 -0.766261 
-0.251792 -0.706191 -0.661736 -0.28172 -0.755609 -0.591345 -0.271895 -0.641069 -0.717707 
0.172816 -0.924424 -0.339964 0.0500457 -0.940651 -0.335665 0.0413542 -0.903314 -0.426983 
-0.15599 -0.885301 -0.438075 -0.103661 -0.911802 -0.39733 -0.115229 -0.880289 -0.460232 
0.144552 0.439231 -0.886669 0.0760653 0.451205 -0.889172 0.10129 0.504315 -0.857559 
-0.000795647 0.585529 -0.810651 -0.0985772 0.610459 -0.78589 -0.110968 0.594163 -0.796653 
-0.0248173 0.66069 -0.750249 -0.122817 0.698522 -0.70497 0.144572 0.439086 -0.886737 
0.148005 0.48451 -0.862175 0.144203 0.435246 -0.888688 0.0777647 0.423965 -0.902334 
0.0977622 0.416242 -0.903983 0.00844857 0.402226 -0.915501 -0.0762099 0.452994 -0.88825 
-0.0938748 0.530214 -0.842651 -0.0233872 0.656065 -0.754342 -0.159247 0.683163 -0.712691 
-0.123774 0.664083 -0.737343 -0.244355 0.579022 -0.777833 -0.279035 0.539149 -0.794643 
0.262416 0.347932 -0.900045 0.264915 0.344267 -0.900722 0.134028 0.286761 -0.94858 
0.0145911 0.237171 -0.971358 0.0597227 0.211493 -0.975553 0.0556184 0.122495 -0.990909 
-0.0095629 0.113189 -0.993527 -0.0271712 0.132909 -0.990756 0.00870202 0.158694 -0.987289 
-0.00622828 0.18032 -0.983588 -0.043777 0.25849 -0.965022 -0.13985 0.346217 -0.927672 
-0.302725 0.539094 -0.785961 -0.240816 0.438818 -0.865705 -0.312314 0.513373 -0.799317 
0.505791 0.242121 -0.827981 0.372148 0.184452 -0.909661 0.353674 0.188184 -0.916243 
0.199208 0.149943 -0.968418 0.0558166 0.150565 -0.987023 0.030425 0.0840571 -0.995996 
-0.00145576 0.0545627 -0.998509 -0.0139506 -0.019296 -0.999716 0.00805151 -0.0295899 -0.99953 
-0.0208342 -0.0183453 -0.999615 -0.005114 0.00166636 -0.999986 0.0841178 -0.069287 -0.994044 
-0.00871922 0.00177425 -0.99996 -0.0962629 0.0653059 -0.993211 -0.0794936 0.250756 -0.964781 
-0.313297 0.402824 -0.859987 -0.203114 0.264452 -0.942767 -0.306188 0.404863 -0.861589 
-0.421458 0.3009 -0.855472 0.507978 0.2223 -0.832191 0.491404 0.211107 -0.844959 
0.218832 0.197571 -0.955551 0.164673 0.0463666 -0.985258 0.0598346 0.0340569 -0.997627 
-0.070053 0.0163849 -0.997409 -0.0446882 -0.0530043 -0.997594 -0.0302094 -0.0373405 -0.998846 
-0.00904676 -0.00818878 -0.999926 0.00375056 -0.0706146 -0.997497 -0.0414261 0.0978124 -0.994342 
-0.00413976 -0.119722 -0.992799 0.0940402 -0.109433 -0.989536 0.133796 0.0482938 -0.989832 
-0.0268408 0.0756396 -0.996774 -0.145547 0.154569 -0.977202 -0.205399 0.301649 -0.931031 
-0.440916 0.240908 -0.864613 -0.401783 0.211555 -0.890963 0.52271 0.0401058 -0.851567 
0.480824 0.0358484 -0.876084 0.228506 0.0660281 -0.971301 0.0798793 0.046201 -0.995733 
0.0192034 -0.0330931 -0.999268 -0.0607365 -0.000159625 -0.998154 -0.0538174 -0.0405828 -0.997726 
0.0332796 -0.0206503 -0.999233 -0.0225006 0.22364 -0.974412 0.0938944 -0.0242286 -0.995287 
-0.0838338 0.0234691 -0.996203 -0.114829 0.0211899 -0.993159 0.161715 0.00622397 -0.986818 
0.0938022 0.0295464 -0.995152 0.0236814 -0.0661298 -0.99753 0.00130622 0.0432332 -0.999064 
-0.236311 0.0562456 -0.970048 -0.437315 0.0260427 -0.898931 -0.352443 -0.00110221 -0.935833 
0.52732 -0.0875783 -0.845141 0.517027 -0.20381 -0.831351 0.480301 -0.0816306 -0.873297 
0.24442 -0.0474641 -0.968507 0.0657865 -0.0248338 -0.997525 0.0152368 0.0168837 -0.999741 
-0.0762761 0.0192754 -0.9969 -0.0632264 0.0349361 -0.997388 0.234064 -0.00544808 -0.972206 
0.011494 0.0210171 -0.999713 -0.22055 -0.00149866 -0.975375 -0.00858959 -0.0726643 -0.997319 
-0.011503 0.124478 -0.992156 0.105813 -0.0149522 -0.994274 0.0595131 -0.0890231 -0.99425 
-0.0133749 -0.0709105 -0.997393 -0.0218156 -0.128129 -0.991517 -0.215081 -0.17662 -0.960492 
-0.42375 -0.0657315 -0.903391 -0.348114 -0.0443524 -0.936402 0.451922 -0.266626 -0.851279 
0.345247 -0.274191 -0.897566 0.254448 -0.226134 -0.940277 0.143651 -0.0825219 -0.986182 
0.0561922 -0.0534291 -0.996989 -0.0441789 -0.0324621 -0.998496 -0.0772844 0.0502811 -0.99574 
0.0155298 0.0590475 -0.998134 -0.0231517 -0.211446 -0.977115 0.00176251 -0.0391352 -0.999232 
0.0730577 0.02116 -0.997103 -0.0726959 0.00187998 -0.997352 -0.0558301 -0.143543 -0.988068 
0.0302908 -0.253808 -0.96678 -0.016785 -0.255614 -0.966633 -0.0471625 -0.427551 -0.90276 
-0.10562 -0.284227 -0.952922 -0.200396 -0.454857 -0.867725 -0.166524 -0.278693 -0.945833 
-0.372546 -0.304962 -0.876474 -0.37649 -0.307269 -0.87398 -0.365433 -0.297 -0.882185 
0.370262 -0.29829 -0.879733 0.277078 -0.42197 -0.863232 0.223285 -0.246455 -0.943082 
0.0705365 -0.205716 -0.976066 0.0375873 -0.113617 -0.992813 0.0229928 -0.01075 -0.999678 
-0.0324509 0.0549387 -0.997962 -0.10801 -0.0827956 -0.990696 0.0281302 -0.0822646 -0.996213 
0.042661 -0.168178 -0.984833 -0.227395 -0.409362 -0.88358 -0.184556 -0.255492 -0.949032 
-0.157341 -0.365201 -0.917536 -0.1539 -0.328905 -0.931738 -0.0385801 -0.371841 -0.927494 
-0.040728 -0.366544 -0.929509 -0.0513712 -0.376987 -0.924793 -0.0574574 -0.372951 -0.92607 
-0.0544089 -0.36416 -0.929746 0.24645 -0.436417 -0.865334 0.224284 -0.454083 -0.862268 
0.200011 -0.37149 -0.906637 0.222546 -0.462057 -0.858473 0.13971 -0.271025 -0.952379 
0.0948475 -0.189074 -0.977371 -0.050587 -0.142796 -0.988459 -0.165188 -0.15818 -0.973495 
-0.15017 -0.329475 -0.932145 -0.0866927 -0.21363 -0.97306 -0.196004 -0.42302 -0.884667 
-0.129741 -0.442537 -0.887315 -0.099437 -0.39286 -0.914206 0.179474 -0.505326 -0.844058 
0.143732 -0.518586 -0.842858 0.138769 -0.486598 -0.862535 0.0106104 -0.546808 -0.837191 
0.00227573 -0.450185 -0.892932 -0.178439 -0.423686 -0.888059 -0.163549 -0.450918 -0.877453 
-0.163224 -0.410349 -0.897202 
