# vtk DataFile Version 4.2
vtk output
ASCII
DATASET POLYDATA
POINTS 542 float
-22.674 -30.6902 -12.157 -15.2368 -30.6902 -12.9993 -7.79959 -30.6902 -12.9588 
-0.36241 -30.6902 -12.1963 -37.5483 -23.253 -12.5322 -30.1111 -23.253 -13.1015 
-22.674 -23.253 -14.0966 -15.2368 -23.253 -13.8619 -7.79959 -23.253 -13.722 
-0.36241 -23.253 -13.5142 7.07477 -23.253 -12.9392 14.512 -23.253 -12.6987 
21.9491 -23.253 -13.2981 29.3863 -23.253 -13.3722 36.8235 -23.253 -12.7985 
-44.9855 -15.8158 -12.4619 -37.5483 -15.8158 -13.8832 -30.1111 -15.8158 -14.8553 
-22.674 -15.8158 -14.4428 -15.2368 -15.8158 -14.0175 -7.79959 -15.8158 -13.5194 
-0.36241 -15.8158 -13.7248 7.07477 -15.8158 -13.3745 14.512 -15.8158 -13.8525 
21.9491 -15.8158 -14.8898 29.3863 -15.8158 -15.6245 36.8235 -15.8158 -15.7216 
44.2607 -15.8158 -15.0536 -44.9855 -8.37866 -14.3946 -37.5483 -8.37866 -14.9581 
-30.1111 -8.37866 -14.8792 -22.674 -8.37866 -14.3231 -15.2368 -8.37866 -14.3548 
-7.79959 -8.37866 -15.205 -0.36241 -8.37866 -15.1598 7.07477 -8.37866 -14.1446 
14.512 -8.37866 -13.9604 21.9491 -8.37866 -15.7273 29.3863 -8.37866 -16.8223 
36.8235 -8.37866 -16.9985 44.2607 -8.37866 -16.0497 51.6979 -8.37866 -13.4131 
-52.4227 -0.94148 -11.3969 -44.9855 -0.94148 -14.9947 -37.5483 -0.94148 -15.6117 
-30.1111 -0.94148 -14.9864 -22.674 -0.94148 -13.8954 -15.2368 -0.94148 -13.5504 
-7.79959 -0.94148 -16.9441 7.07477 -0.94148 -17.3993 14.512 -0.94148 -14.3362 
21.9491 -0.94148 -15.9499 29.3863 -0.94148 -17.3347 36.8235 -0.94148 -17.8135 
44.2607 -0.94148 -17.255 51.6979 -0.94148 -15.3959 -52.4227 6.4957 -11.4073 
-44.9855 6.4957 -15.0253 -37.5483 6.4957 -15.7609 -30.1111 6.4957 -15.1855 
-22.674 6.4957 -14.1123 -15.2368 6.4957 -13.0927 -7.79959 6.4957 -15.3344 
-0.36241 6.4957 -15.7422 7.07477 6.4957 -18.6866 14.512 6.4957 -16.1433 
21.9491 6.4957 -16.8863 29.3863 6.4957 -17.9333 36.8235 6.4957 -18.3079 
44.2607 6.4957 -17.8654 51.6979 6.4957 -16.209 -52.4227 13.9329 -12.2749 
-44.9855 13.9329 -16.1633 -37.5483 13.9329 -15.5483 -30.1111 13.9329 -15.7249 
-22.674 13.9329 -15.3946 -15.2368 13.9329 -15.5574 -7.79959 13.9329 -16.0844 
-0.36241 13.9329 -15.9687 7.07477 13.9329 -17.3646 14.512 13.9329 -17.3972 
21.9491 13.9329 -18.1122 29.3863 13.9329 -18.1239 36.8235 13.9329 -17.7135 
44.2607 13.9329 -16.8297 51.6979 13.9329 -13.1008 -44.9855 21.3701 -12.8522 
-37.5483 21.3701 -14.6109 -30.1111 21.3701 -15.8752 -22.674 21.3701 -16.8671 
-15.2368 21.3701 -17.1645 -7.79959 21.3701 -17.0493 -0.36241 21.3701 -17.1736 
7.07477 21.3701 -17.915 14.512 21.3701 -18.0688 21.9491 21.3701 -17.7614 
29.3863 21.3701 -17.2522 36.8235 21.3701 -16.465 44.2607 21.3701 -13.6945 
-37.5483 28.8072 -13.4937 -30.1111 28.8072 -15.2131 -22.674 28.8072 -16.4724 
-15.2368 28.8072 -17.7684 -7.79959 28.8072 -17.4595 -0.36241 28.8072 -17.6304 
7.07477 28.8072 -17.8357 14.512 28.8072 -17.5166 21.9491 28.8072 -16.6244 
29.3863 28.8072 -14.4822 -30.1111 36.2444 -12.273 -22.674 36.2444 -14.6782 
-15.2368 36.2444 -16.5579 -7.79959 36.2444 -16.557 -0.36241 36.2444 -16.637 
7.07477 36.2444 -16.1806 14.512 36.2444 -15.4808 -15.2368 43.6816 -11.6925 
-7.79959 43.6816 -12.4536 -0.36241 43.6816 -11.6977 -30.1111 -38.1274 -7.01539 
-22.674 -32.998 -11.3483 -22.674 -38.1274 -9.15883 -15.2368 -34.9742 -11.3483 
-15.2368 -38.1274 -9.933 -7.79959 -34.6892 -11.3483 -7.79959 -38.1274 -9.54247 
-0.36241 -32.4338 -11.3483 -0.36241 -38.1274 -7.47909 7.07477 -38.1274 -4.30535 
-44.9855 -30.6902 -5.04397 -37.5483 -27.4097 -11.3483 -37.5483 -30.6902 -10.0152 
-29.671 -30.6902 -11.3483 -30.1111 -30.4833 -11.3483 -30.1111 -30.6902 -11.2983 
4.26863 -30.6902 -11.3483 7.07477 -28.9198 -11.3483 7.07477 -30.6902 -10.7497 
14.512 -26.794 -11.3483 14.512 -30.6902 -9.4103 21.9491 -26.7155 -11.3483 
21.9491 -30.6902 -7.85362 29.3863 -26.1494 -11.3483 29.3863 -30.6902 -6.60999 
36.8235 -24.8881 -11.3483 36.8235 -30.6902 -4.65223 -43.8722 -23.253 -11.3483 
-44.9855 -22.1149 -11.3483 -44.9855 -23.253 -11.04 40.3398 -23.253 -11.3483 
44.2607 -21.0265 -11.3483 44.2607 -23.253 -9.5733 -48.2812 -15.8158 -11.3483 
-52.4227 -15.8158 -9.57745 50.3135 -15.8158 -11.3483 51.6979 -13.7387 -11.3483 
51.6979 -15.8158 -10.4812 -50.9962 -8.37866 -11.3483 -52.4227 -1.27501 -11.3483 
-52.4227 -8.37866 -10.4135 -0.36241 -2.27228 -11.3483 54.6654 -8.37866 -11.3483 
59.135 -8.37866 -6.61498 -52.5067 -0.94148 -11.3483 -59.8599 -0.94148 -5.19308 
-1.53025 -0.94148 -11.3483 0.747092 -0.94148 -11.3483 -0.36241 0.348669 -11.3483 
-0.36241 -0.94148 -10.4009 56.9996 -0.94148 -11.3483 59.135 -0.94148 -8.83463 
-52.5167 6.4957 -11.3483 57.6271 6.4957 -11.3483 59.135 6.4957 -9.09852 
-53.5677 13.9329 -11.3483 -52.4227 16.539 -11.3483 53.7122 13.9329 -11.3483 
51.6979 17.0741 -11.3483 -48.0004 21.3701 -11.3483 -52.4227 21.3701 -6.5662 
-44.9855 26.1021 -11.3483 36.8235 28.3879 -11.3483 48.1967 21.3701 -11.3483 
44.2607 24.2954 -11.3483 51.6979 21.3701 -4.28694 -42.6918 28.8072 -11.3483 
-44.9855 28.8072 -9.0704 -37.5483 32.3072 -11.3483 21.9491 35.7279 -11.3483 
36.1516 28.8072 -11.3483 29.3863 31.8805 -11.3483 36.8235 28.8072 -10.3405 
-32.0818 36.2444 -11.3483 -37.5483 36.2444 -5.1628 -30.1111 37.2801 -11.3483 
-22.674 40.9597 -11.3483 7.07477 42.0836 -11.3483 21.1034 36.2444 -11.3483 
14.512 39.605 -11.3483 21.9491 36.2444 -4.94332 -16.2616 43.6816 -11.3483 
-22.674 43.6816 -6.69154 -15.2368 44.0171 -11.3483 -7.79959 44.7642 -11.3483 
0.90653 43.6816 -11.3483 -0.36241 43.9648 -11.3483 -30.1111 -40.7671 -3.91112 
-22.674 -43.4181 -3.91112 -15.2368 -44.0268 -3.91112 -15.2368 -45.5646 2.2105 
-7.79959 -43.5274 -3.91112 -0.36241 -41.0574 -3.91112 7.07477 -38.4151 -3.91112 
-44.9855 -31.682 -3.91112 -36.1493 -38.1274 -3.91112 -37.5483 -37.3002 -3.91112 
-37.5483 -38.1274 -1.52473 7.84699 -38.1274 -3.91112 14.512 -35.5349 -3.91112 
21.9491 -33.5124 -3.91112 29.3863 -32.4358 -3.91112 36.8235 -31.0945 -3.91112 
-46.0238 -30.6902 -3.91112 37.8435 -30.6902 -3.91112 44.2607 -27.6417 -3.91112 
-52.3357 -23.253 -3.91112 -52.4227 -23.1627 -3.91112 -52.4227 -23.253 -3.46362 
51.0992 -23.253 -3.91112 51.6979 -22.7739 -3.91112 51.6979 -23.253 -1.04074 
-56.7544 -15.8158 -3.91112 57.6044 -15.8158 -3.91112 59.135 -12.3255 -3.91112 
-59.4343 -8.37866 -3.91112 -59.8599 -5.92238 -3.91112 60.6516 -8.37866 -3.91112 
-60.5801 -0.94148 -3.91112 -59.8599 4.62096 -3.91112 -59.8599 -0.94148 -0.801056 
61.5489 -0.94148 -3.91112 -59.5958 6.4957 -3.91112 61.2932 6.4957 -3.91112 
59.135 11.4735 -3.91112 -57.679 13.9329 -3.91112 57.9833 13.9329 -3.91112 
-53.5115 21.3701 -3.91112 -52.4227 22.7877 -3.91112 -52.4227 21.3701 -0.735219 
44.2607 26.6141 -3.91112 51.8402 21.3701 -3.91112 51.6979 21.4955 -3.91112 
51.6979 21.3701 -3.49816 -47.0116 28.8072 -3.91112 -44.9855 30.7216 -3.91112 
-44.9855 28.8072 0.808265 29.3863 33.1042 -3.91112 40.0002 28.8072 -3.91112 
36.8235 30.35 -3.91112 36.8235 28.8072 1.69305 -38.0872 36.2444 -3.91112 
-37.5483 36.6517 -3.91112 -37.5483 36.2444 -2.69598 -30.1111 41.3978 -3.91112 
7.07477 42.5789 -3.91112 14.512 40.2273 -3.91112 22.1021 36.2444 -3.91112 
21.9491 36.3212 -3.91112 21.9491 36.2444 -3.72523 -25.2349 43.6816 -3.91112 
-22.674 44.7562 -3.91112 -22.674 43.6816 0.1703 -15.2368 46.4912 -3.91112 
-7.79959 46.7611 -3.91112 3.84956 43.6816 -3.91112 -0.36241 45.0692 -3.91112 
-0.36241 43.6816 -0.162598 -15.2368 -45.8379 3.52606 -37.5483 -39.2353 3.52606 
-30.1111 -43.3628 3.52606 -20.1289 -45.5646 3.52606 -22.674 -45.4205 3.52606 
-11.1178 -45.5646 3.52606 -15.2368 -45.5646 4.5769 -7.79959 -45.3188 3.52606 
-0.36241 -43.166 3.52606 7.07477 -40.569 3.52606 -38.9955 -38.1274 3.52606 
-44.9855 -32.633 3.52606 -37.5483 -38.1274 5.81612 13.6482 -38.1274 3.52606 
14.512 -37.8019 3.52606 21.9491 -35.3717 3.52606 29.3863 -33.7947 3.52606 
36.8235 -31.4607 3.52606 -46.8304 -30.6902 3.52606 -52.4227 -24.372 3.52606 
-44.9855 -30.6902 6.49525 39.1043 -30.6902 3.52606 36.8235 -30.6902 7.84551 
44.2607 -28.805 3.52606 51.6979 -24.0178 3.52606 -53.2308 -23.253 3.52606 
-52.4227 -23.253 4.80789 -44.9855 -23.253 10.4142 52.427 -23.253 3.52606 
51.6979 -23.253 5.16962 -56.3281 -15.8158 3.52606 -52.4227 -15.8158 8.50033 
58.1311 -15.8158 3.52606 59.135 -13.1093 3.52606 -57.7823 -8.37866 3.52606 
-52.4227 -8.37866 9.70683 60.7886 -8.37866 3.52606 59.135 -8.37866 6.98791 
-58.4389 -0.94148 3.52606 -52.4227 -0.94148 10.4236 61.0701 -0.94148 3.52606 
59.135 -0.94148 6.7864 -56.6245 6.4957 3.52606 -52.4227 6.4957 7.72426 
60.0452 6.4957 3.52606 59.135 8.418 3.52606 59.135 6.4957 5.11178 
-54.6308 13.9329 3.52606 -52.4227 18.2999 3.52606 -52.4227 13.9329 5.71325 
-44.9855 13.9329 9.4981 55.9655 13.9329 3.52606 51.6979 18.8508 3.52606 
51.6979 13.9329 8.81396 -50.5152 21.3701 3.52606 -44.9855 27.3903 3.52606 
-44.9855 21.3701 7.72398 -37.5483 21.3701 10.3396 36.8235 28.1233 3.52606 
48.7721 21.3701 3.52606 44.2607 24.3465 3.52606 44.2607 21.3701 7.61933 
-43.0712 28.8072 3.52606 -37.5483 33.1961 3.52606 -37.5483 28.8072 7.27101 
-30.1111 28.8072 10.4732 21.9491 33.4391 3.52606 21.9491 28.8072 10.2786 
35.0376 28.8072 3.52606 29.3863 30.6917 3.52606 29.3863 28.8072 6.40196 
-34.3449 36.2444 3.52606 -30.1111 39.0668 3.52606 -30.1111 36.2444 6.73922 
-22.674 42.5937 3.52606 -22.674 36.2444 9.58063 -0.36241 41.9759 3.52606 
-0.36241 36.2444 9.9306 7.07477 39.1123 3.52606 7.07477 36.2444 7.21577 
15.2532 36.2444 3.52606 14.512 36.5453 3.52606 14.512 36.2444 3.98471 
-18.3171 43.6816 3.52606 -15.2368 44.3125 3.52606 -15.2368 43.6816 4.49642 
-5.07752 43.6816 3.52606 -7.79959 44.5052 3.52606 -7.79959 43.6816 4.72808 
-30.1111 -38.7578 10.9632 -22.674 -42.0784 10.9632 -15.2368 -43.0432 10.9632 
-7.79959 -42.0382 10.9632 -0.36241 -40.7356 10.9632 7.07477 -38.9577 10.9632 
-31.2899 -38.1274 10.9632 -37.5483 -32.9688 10.9632 -30.1111 -38.1274 11.5246 
-22.674 -38.1274 13.9419 -15.2368 -38.1274 14.7759 -7.79959 -38.1274 14.7034 
-0.36241 -38.1274 13.8775 9.64676 -38.1274 10.9632 7.07477 -38.1274 12.0816 
14.512 -36.4623 10.9632 21.9491 -34.023 10.9632 29.3863 -32.0164 10.9632 
[...]
POINT_DATA 542
SCALARS ImageScalars float
LOOKUP_TABLE default
0 0 0 0 0 0 0 0 0 
0 0 0 0 0 0 0 0 0 
0 0 0 0 0 0 0 0 0 
0 0 0 0 0 0 0 0 0 
0 0 0 0 0 0 0 0 0 
0 0 0 0 0 0 0 0 0 
0 0 0 0 0 0 0 0 0 
0 0 0 0 0 0 0 0 0 
0 0 0 0 0 0 0 0 0 
0 0 0 0 0 0 0 0 0 
0 0 0 0 0 0 0 0 0 
0 0 0 0 0 0 0 0 0 
0 0 0 0 0 0 0 0 0 
0 0 0 0 0 0 0 0 0 
0 0 0 0 0 0 0 0 0 
0 0 0 0 0 0 0 0 0 
0 0 0 0 0 0 0 0 0 
0 0 0 0 0 0 0 0 0 
0 0 0 0 0 0 0 0 0 
0 0 0 0 0 0 0 0 0 
0 0 0 0 0 0 0 0 0 
0 0 0 0 0 0 0 0 0 
0 0 0 0 0 0 0 0 0 
0 0 0 0 0 0 0 0 0 
0 0 0 0 0 0 0 0 0 
0 0 0 0 0 0 0 0 0 
0 0 0 0 0 0 0 0 0 
0 0 0 0 0 0 0 0 0 
0 0 0 0 0 0 0 0 0 
0 0 0 0 0 0 0 0 0 
0 0 0 0 0 0 0 0 0 
0 0 0 0 0 0 0 0 0 
0 0 0 0 0 0 0 0 0 
0 0 0 0 0 0 0 0 0 
0 0 0 0 0 0 0 0 0 
0 0 0 0 0 0 0 0 0 
0 0 0 0 0 0 0 0 0 
0 0 0 0 0 0 0 0 0 
0 0 0 0 0 0 0 0 0 
0 0 0 0 0 0 0 0 0 
0 0 0 0 0 0 0 0 0 
0 0 0 0 0 0 0 0 0 
0 0 0 0 0 0 0 0 0 
0 0 0 0 0 0 0 0 0 
0 0 0 0 0 0 0 0 0 
0 0 0 0 0 0 0 0 0 
0 0 0 0 0 0 0 0 0 
0 0 0 0 0 0 0 0 0 
0 0 0 0 0 0 0 0 0 
0 0 0 0 0 0 0 0 0 
0 0 0 0 0 0 0 0 0 
0 0 0 0 0 0 0 0 0 
0 0 0 0 0 0 0 0 0 
0 0 0 0 0 0 0 0 0 
0 0 0 0 0 0 0 0 0 
0 0 0 0 0 0 0 0 0 
0 0 0 0 0 0 0 0 0 
0 0 0 0 0 0 0 0 0 
0 0 0 0 0 0 0 0 0 
0 0 0 0 0 0 0 0 0 
0 0 
NORMALS Normals float
0.101186 0.295484 0.949974 0.052683 0.232578 0.97115 -0.0528152 0.244533 0.968202 
-0.135602 0.31992 0.93769 0.151089 0.252558 0.955713 0.100992 0.212061 0.972024 
0.0473348 0.142535 0.988657 -0.0263388 0.0651474 0.997528 -0.0228324 0.0381148 0.999012 
-0.0532108 0.101147 0.993447 -0.0537153 0.154972 0.986457 0.0239429 0.2531 0.967144 
0.0428105 0.35943 0.932189 -0.0240194 0.45239 0.891497 -0.201538 0.544016 0.814512 
0.269717 0.261757 0.92668 0.144261 0.144608 0.978916 0.0363416 0.114942 0.992707 
-0.055776 0.0169917 0.998299 -0.0616562 0.0324143 0.997571 -0.0195059 0.0827494 0.996379 
-0.00959557 0.106272 0.994291 0.00837314 0.0713218 0.997418 0.100813 0.0817056 0.991545 
0.11925 0.165896 0.978907 0.0541895 0.220631 0.973851 -0.0287822 0.242539 0.969715 
-0.290402 0.340453 0.894292 0.245526 0.15249 0.957321 0.0390099 0.115505 0.992541 
-0.0425544 0.00876416 0.999056 -0.0352424 -0.0365621 0.99871 0.0531667 -0.0207166 0.998371 
0.0573669 0.221233 0.973532 -0.0609726 -0.113808 0.99163 -0.0858492 0.238393 0.967367 
0.110927 0.0327747 0.993288 0.198494 0.0704853 0.977564 0.0821733 0.109537 0.99058 
-0.047433 0.132811 0.990006 -0.207965 0.130095 0.969446 -0.474655 0.270567 0.837553 
0.520153 0.0589137 0.852039 0.219137 0.0455932 0.974628 0.00795872 0.0537458 0.998523 
-0.113623 0.0204449 0.993314 -0.0912919 -0.0142839 0.995722 0.175851 -0.0939245 0.979926 
-0.111507 0.0123396 0.993687 0.105606 0.297308 0.948923 -0.0504391 0.152102 0.987077 
0.197117 0.0767806 0.977369 0.122875 0.0772269 0.989413 -0.00375278 0.0872708 0.996178 
-0.134808 0.118698 0.983737 -0.44301 0.149791 0.883914 0.540634 0.0585529 0.839218 
0.229724 0.0532849 0.971796 0.0203653 -0.00405867 0.999784 -0.108857 0.0493402 0.992832 
-0.134246 0.0994516 0.985945 0.0588427 0.144716 0.987722 0.182616 -0.0367485 0.982497 
0.235365 0.274211 0.932423 0.00231393 -0.0227556 0.999738 -0.111702 0.206271 0.972098 
0.118714 0.136135 0.983552 0.0942858 0.0526137 0.994154 -0.00256372 -0.00591055 0.999979 
-0.119214 -0.0372299 0.99217 -0.425559 -0.119396 0.89702 0.586657 -0.134919 0.798518 
0.230306 -0.0856606 0.969341 -0.0182118 -0.0751525 0.997006 -0.010529 0.0462791 0.998873 
-0.0114504 0.184338 0.982796 0.0465415 0.262535 0.963799 0.0271884 0.106527 0.993938 
0.0840055 0.0941284 0.99201 0.0962178 -0.0458644 0.994303 0.0464872 0.129586 0.990478 
0.0509478 0.0605675 0.996863 -0.0261503 -0.0425816 0.998751 -0.0917317 -0.10819 0.989889 
-0.238712 -0.239144 0.941184 -0.591905 -0.360922 0.720683 0.37229 -0.342361 0.862664 
0.179913 -0.115745 0.976849 0.143233 -0.0302963 0.989225 0.0862537 0.0721815 0.993655 
0.0120022 0.144433 0.989442 0.000609761 0.0915793 0.995798 0.0581657 0.111134 0.992102 
0.0599353 0.0307431 0.997729 -0.0101936 0.00762322 0.999919 -0.0532593 -0.0935651 0.994188 
-0.0810291 -0.217569 0.972676 -0.224102 -0.37368 0.900079 -0.396416 -0.550193 0.734944 
0.337015 -0.354639 0.872154 0.173508 -0.184225 0.967448 0.161149 -0.132801 0.977954 
0.0669449 -0.0295343 0.997319 -0.00863325 -0.0346947 0.999361 0.0252487 -0.0365681 0.999012 
-0.00806848 -0.111004 0.993787 -0.08046 -0.137464 0.987233 -0.193273 -0.35771 0.913613 
-0.339571 -0.589984 0.732537 0.366139 -0.569353 0.736057 0.22862 -0.391065 0.891516 
0.113646 -0.342339 0.932678 0.0054822 -0.287175 0.957862 -0.0243375 -0.323921 0.945771 
-0.0713995 -0.445314 0.892523 -0.280628 -0.605987 0.74433 0.186448 -0.748806 0.636024 
0.00403174 -0.755527 0.655105 -0.152079 -0.853667 0.49812 0.306951 0.684811 0.66092 
0.107685 0.365572 0.924533 0.143217 0.56971 0.809271 0.0384135 0.399494 0.915931 
0.0216586 0.552458 0.833259 -0.0805068 0.398517 0.913621 -0.124384 0.578174 0.806377 
-0.160526 0.389556 0.906905 -0.254527 0.698058 0.669276 -0.317328 0.816626 0.482105 
0.602757 0.657703 0.451787 0.232349 0.371711 0.898802 0.330371 0.482383 0.811272 
0.108265 0.306581 0.945668 0.108994 0.304063 0.946397 0.109917 0.308348 0.944902 
-0.153101 0.389004 0.908425 -0.134471 0.366172 0.92078 -0.165917 0.444271 0.880395 
-0.0452 0.386646 0.92112 -0.152712 0.593176 0.790456 -0.0262822 0.517781 0.855109 
-0.132833 0.769265 0.624969 -0.0799435 0.581583 0.809549 -0.133934 0.848352 0.512212 
-0.217484 0.614882 0.758038 -0.277695 0.899292 0.337876 0.329428 0.351872 0.876164 
0.3443 0.35188 0.870424 0.368439 0.375164 0.850591 -0.287637 0.58484 0.758437 
-0.352926 0.545415 0.760241 -0.385244 0.647115 0.657898 0.383951 0.245613 0.890087 
0.58828 0.275468 0.760292 -0.495597 0.39166 0.775232 -0.519463 0.353506 0.777941 
-0.550897 0.406029 0.729146 0.485881 0.111231 0.866919 0.521979 0.0599374 0.85085 
0.57169 0.102154 0.814085 0.00267854 -0.0408842 0.99916 -0.577521 0.267478 0.771314 
-0.854622 0.271489 0.442624 0.524069 0.0588396 0.849641 0.965775 0.0159143 0.258893 
-0.0163205 0.0112706 0.999803 0.0734052 0.0758104 0.994417 0.0774117 0.0978445 0.992186 
0.0273761 -0.00239908 0.999622 -0.673674 0.117189 0.729678 -0.836787 0.0895139 0.540162 
0.545358 0.0572298 0.836247 -0.753998 -0.154783 0.63838 -0.867892 -0.187113 0.460166 
0.645894 -0.151076 0.748329 0.60908 -0.254128 0.751293 -0.671381 -0.372361 0.640777 
-0.633196 -0.467311 0.616996 0.47768 -0.392955 0.785753 0.773603 -0.572919 0.270744 
0.493293 -0.463675 0.73598 -0.387795 -0.75826 0.524076 -0.520649 -0.61877 0.588259 
-0.441466 -0.704399 0.555815 -0.662991 -0.747811 0.0349503 0.499432 -0.498506 0.708562 
0.624845 -0.627176 0.464992 0.436247 -0.539031 0.720509 -0.4433 -0.811467 0.380796 
-0.392773 -0.763348 0.512863 -0.429128 -0.77114 0.470311 -0.3989 -0.804569 0.43994 
0.413267 -0.613277 0.673128 0.588764 -0.803166 0.0909996 0.386845 -0.622536 0.680294 
0.297862 -0.686336 0.663491 -0.266246 -0.862008 0.431341 -0.443447 -0.818831 0.364514 
-0.389394 -0.835765 0.387129 -0.435469 -0.897403 -0.0709535 0.207357 -0.761927 0.613572 
0.322349 -0.918071 0.23073 0.191422 -0.764194 0.615926 -0.00830541 -0.81339 0.58166 
-0.176471 -0.870579 0.459293 -0.156735 -0.86761 0.471897 0.337294 0.800941 0.494697 
0.175558 0.850106 0.496486 0.00449919 0.888831 0.458214 -0.00443433 0.998809 0.0485935 
-0.180175 0.874052 0.451187 -0.299016 0.831869 0.467528 -0.32146 0.826202 0.462659 
0.610572 0.677886 0.409477 0.468542 0.740062 0.482469 0.501654 0.719793 0.479834 
0.550738 0.783716 0.287187 -0.318548 0.8288 0.460019 -0.278112 0.842467 0.461415 
-0.18553 0.88846 0.419782 -0.162288 0.911788 0.377234 -0.281561 0.912115 0.297942 
0.632989 0.660802 0.403317 -0.299777 0.905639 0.29992 -0.425697 0.837465 0.342687 
0.712128 0.610383 0.346851 0.713747 0.608987 0.345977 0.725306 0.61318 0.312956 
-0.619614 0.712894 0.328422 -0.638263 0.696363 0.328176 -0.667699 0.726844 0.160856 
0.861398 0.414352 0.293779 -0.82682 0.468781 0.310827 -0.886079 0.366929 0.283244 
0.944859 0.244623 0.217719 0.96519 0.168887 0.199713 -0.929324 0.253111 0.26887 
0.985422 0.00822234 0.169929 0.982851 -0.135985 0.124546 0.993339 -0.0186647 -0.11371 
-0.979902 0.0400837 0.195411 0.977065 -0.181781 0.110901 -0.966667 -0.223565 0.124795 
-0.916299 -0.390011 0.0910317 0.917507 -0.393273 0.0593124 -0.874483 -0.477708 0.0841099 
0.819029 -0.573049 0.0283819 0.799395 -0.600296 0.0247539 0.793495 -0.567404 -0.22004 
-0.481237 -0.876361 -0.0200577 -0.663207 -0.748352 0.0111884 -0.659606 -0.751529 0.0111634 
-0.661091 -0.750231 -0.0106295 0.701699 -0.712419 -0.00877255 0.669378 -0.742854 -0.0100546 
0.62513 -0.699342 -0.346602 -0.396271 -0.91499 -0.0759106 -0.42181 -0.90626 -0.0277308 
-0.394184 -0.918714 -0.0241804 -0.371022 -0.873418 -0.315411 0.59167 -0.806171 -0.00377279 
0.586748 -0.809764 -0.00307399 0.5972 -0.797856 -0.0823283 0.493417 -0.869084 0.0351053 
-0.304029 -0.936989 -0.172099 -0.382372 -0.904211 -0.190248 -0.425579 -0.894216 -0.138783 
-0.425878 -0.893906 -0.13986 -0.423838 -0.893787 -0.146647 0.372549 -0.927223 0.0382569 
0.310063 -0.949382 0.050335 0.318326 -0.923152 -0.215544 0.127986 -0.991773 -0.00228325 
-0.0956813 -0.994832 -0.0339803 -0.280704 -0.949021 -0.143403 -0.255577 -0.961093 -0.104785 
-0.289022 -0.911195 -0.293582 -0.00547881 0.999636 -0.0264184 0.577006 0.8097 -0.106999 
0.392406 0.91693 -0.072508 0.097067 0.994404 -0.0417 0.151432 0.987172 -0.050597 
-0.102463 0.993465 -0.0502868 -0.00725174 0.996033 -0.0886918 -0.1833 0.980479 -0.0711465 
-0.293751 0.955833 -0.00967289 -0.346661 0.937453 0.0317494 0.604594 0.788349 -0.113898 
0.718862 0.672258 -0.176938 0.580206 0.762794 -0.285493 -0.336982 0.940138 0.0508346 
-0.333504 0.941255 0.0530574 -0.256135 0.966065 0.0333632 -0.255118 0.966815 -0.0135691 
-0.296408 0.953366 -0.0568774 0.740068 0.64284 -0.197628 0.790444 0.563999 -0.238962 
0.70154 0.577801 -0.417118 -0.320558 0.945424 -0.0584469 -0.306689 0.913074 -0.268769 
-0.417841 0.905787 -0.0704128 -0.673307 0.731842 -0.105188 0.811485 0.537198 -0.230022 
0.776302 0.547733 -0.311999 0.546511 0.266856 -0.793797 -0.69386 0.712171 -0.10663 
-0.686629 0.697123 -0.2063 0.890075 0.273348 -0.364758 0.670587 0.199362 -0.71454 
-0.878314 0.434207 -0.200073 -0.915507 0.346451 -0.204494 0.868145 0.133767 -0.477945 
0.611911 0.09129 -0.785641 -0.957829 0.192129 -0.213657 -0.881607 0.167388 -0.441305 
0.857293 -0.0565856 -0.51171 0.545081 -0.0947508 -0.833012 -0.94912 -0.0452657 -0.311646 
-0.857754 -0.0670236 -0.509672 0.784225 -0.213768 -0.582489 0.595867 -0.234714 -0.768018 
-0.883477 -0.299788 -0.359993 -0.857965 -0.355485 -0.370847 -0.842245 -0.304965 -0.444545 
0.754818 -0.322633 -0.571103 0.705462 -0.42392 -0.567993 0.632897 -0.323086 -0.703603 
0.425752 -0.224215 -0.87662 -0.752277 -0.508994 -0.418336 -0.630814 -0.647148 -0.428103 
-0.574194 -0.466091 -0.673098 0.672412 -0.490183 -0.554602 0.564003 -0.61826 -0.547408 
0.4783 -0.377107 -0.793107 0.313356 -0.293863 -0.903024 -0.358076 -0.832842 -0.422085 
-0.548201 -0.717038 -0.430502 -0.445266 -0.784048 -0.432443 -0.420026 -0.669781 -0.612349 
0.548932 -0.635823 -0.542588 0.55185 -0.637224 -0.537966 0.458628 -0.506608 -0.730074 
0.312132 -0.33914 -0.887444 -0.327515 -0.841451 -0.42976 -0.291261 -0.691097 -0.661477 
-0.342081 -0.842704 -0.415729 -0.310576 -0.852194 -0.42108 -0.292998 -0.799496 -0.524365 
0.534786 -0.680983 -0.500266 0.457812 -0.747822 -0.480803 0.433827 -0.621105 -0.652704 
0.302741 -0.830264 -0.467984 0.264218 -0.530617 -0.805378 -0.292072 -0.810652 -0.507481 
-0.214332 -0.630294 -0.746184 -0.302991 -0.793687 -0.527501 -0.250975 -0.740329 -0.623638 
-0.31707 -0.825369 -0.467154 -0.315472 -0.82115 -0.475594 -0.30891 -0.818666 -0.484107 
0.188571 -0.872814 -0.450152 0.10727 -0.886769 -0.449593 0.106911 -0.864591 -0.49097 
-0.19451 -0.854535 -0.481597 -0.129473 -0.87148 -0.473032 -0.130502 -0.84166 -0.524002 
0.366532 0.605368 -0.70653 0.195994 0.722222 -0.663311 -0.00731085 0.791874 -0.610641 
-0.128157 0.793234 -0.595277 -0.186825 0.815662 -0.547532 -0.25629 0.854256 -0.452286 
0.388044 0.587809 -0.709861 0.442661 0.492743 -0.74917 0.359992 0.5733 -0.736025 
0.172029 0.493684 -0.852456 0.0527138 0.477466 -0.877068 -0.04814 0.552819 -0.831909 
-0.13462 0.666806 -0.732972 -0.270205 0.86086 -0.431172 -0.240563 0.815189 -0.526874 
-0.288767 0.86014 -0.420444 -0.264521 0.858475 -0.439374 -0.255426 0.848827 -0.462872 
0.473499 0.438618 -0.763815 0.406022 0.409115 -0.817173 0.23562 0.262071 -0.935843 
0.144229 0.193826 -0.970376 0.0925141 0.154291 -0.983685 0.00998444 0.149111 -0.98877 
-0.0221497 0.221938 -0.974809 -0.03016 0.333996 -0.942092 -0.138946 0.481844 -0.865171 
-0.22626 0.66665 -0.7102 -0.287553 0.848138 -0.444944 -0.241244 0.780867 -0.576236 
-0.308592 0.836834 -0.452195 -0.460396 0.701142 -0.544459 0.514036 0.236976 -0.824384 
0.494057 0.222755 -0.840409 0.318503 0.127732 -0.939276 0.178009 0.0827204 -0.980546 
0.0916815 0.0242914 -0.995492 0.0289866 -0.035299 -0.998956 0.047871 -0.0575623 -0.997194 
0.0755191 0.0268134 -0.996784 -0.0787157 0.230848 -0.9698 -0.0964989 0.311527 -0.945325 
-0.271525 0.415044 -0.868339 -0.553372 0.596086 -0.581774 -0.445972 0.559715 -0.698447 
-0.65798 0.391777 -0.643096 0.466014 0.169112 -0.868465 0.383046 0.147208 -0.911924 
0.220592 0.0503298 -0.974067 0.111363 -0.00523936 -0.993766 0.0302976 -0.0530139 -0.998134 
0.0111516 -0.0993007 -0.994995 0.0743429 -0.0758715 -0.994342 0.0962782 0.0148771 -0.995243 
0.0596925 -0.111339 -0.991988 -0.137586 0.0873358 -0.986632 -0.318918 0.208319 -0.924605 
-0.684083 0.305596 -0.6623 -0.634051 0.289311 -0.717132 0.515347 0.0800143 -0.853238 
0.349762 0.0262342 -0.936471 0.178907 -0.0180141 -0.983701 0.0752082 -0.0308157 -0.996692 
-0.0071338 -0.0165971 -0.999837 0.00362556 0.0757283 -0.997122 0.164382 0.0891053 -0.982364 
0.0364526 -0.0404851 -0.998515 -0.107286 -0.0344584 -0.993631 0.0471912 -0.211305 -0.97628 
0.0998002 -0.164718 -0.981279 0.0376294 -0.0880771 -0.995403 -0.074813 -0.0351466 -0.996578 
-0.230589 -0.0292409 -0.972612 -0.67494 0.101362 -0.730877 -0.499845 0.054897 -0.864374 
0.496222 -0.0979257 -0.862655 0.294903 -0.107121 -0.949504 0.167722 -0.104072 -0.980326 
0.11416 -0.0714604 -0.990889 0.135411 -0.00255018 -0.990786 0.122188 0.1476 -0.981471 
-0.0487018 0.0753368 -0.995968 -0.0250531 -0.0929867 -0.995352 -0.126283 0.096786 -0.987261 
-0.0499763 0.0189096 -0.998571 0.141765 -0.0635305 -0.98786 0.058035 -0.0874337 -0.994478 
-0.0757146 -0.112725 -0.990737 -0.244262 -0.119004 -0.962379 -0.61771 -0.105345 -0.779318 
-0.49512 -0.128546 -0.859263 0.365388 -0.226068 -0.902987 0.351627 -0.218029 -0.910397 
0.335393 -0.218633 -0.916357 0.21823 -0.134249 -0.966619 0.175153 -0.105685 -0.978852 
0.197415 -0.0701004 -0.97781 0.0874934 -0.104241 -0.990696 -0.0675907 -0.102037 -0.992482 
0.05045 -0.0120297 -0.998654 -0.00229473 -0.047296 -0.998878 -0.107617 0.133201 -0.985229 
0.00157048 0.0224055 -0.999748 -0.0100415 -0.0944617 -0.995478 -0.111898 -0.159544 -0.980828 
-0.270483 -0.225785 -0.935874 -0.560089 -0.246038 -0.791053 -0.527323 -0.316078 -0.788686 
-0.504998 -0.239008 -0.829369 0.358018 -0.211746 -0.909388 0.304732 -0.262202 -0.915635 
0.281881 -0.193877 -0.939657 0.178855 -0.136622 -0.974344 0.146093 -0.121587 -0.981771 
0.0866903 -0.147618 -0.985238 0.0366817 -0.0871483 -0.99552 0.0457667 -0.0387815 -0.998199 
0.0348572 -0.114738 -0.992784 -0.0187804 -0.0245583 -0.999522 -0.0851369 -0.0779988 -0.993312 
-0.131794 -0.210206 -0.968733 -0.220001 -0.339386 -0.914558 -0.436956 -0.431992 -0.788957 
-0.35069 -0.504185 -0.789186 -0.32184 -0.407813 -0.854463 0.295558 -0.271448 -0.915948 
0.294334 -0.310891 -0.903723 0.251887 -0.222094 -0.941927 0.186323 -0.143824 -0.971904 
0.118596 -0.105274 -0.987346 0.0483831 -0.100383 -0.993772 0.0221706 -0.140071 -0.989893 
0.00964456 -0.207477 -0.978192 -0.0704151 -0.255571 -0.964222 -0.284365 -0.658169 -0.697101 
-0.183953 -0.360215 -0.914553 -0.275757 -0.604916 -0.747017 -0.251724 -0.470485 -0.845742 
-0.295856 -0.562632 -0.771955 -0.290911 -0.56448 -0.772485 -0.289108 -0.557877 -0.777939 
0.298845 -0.324038 -0.897603 0.265121 -0.422657 -0.866644 0.260961 -0.279731 -0.923931 
0.123663 -0.250596 -0.960161 -0.0052931 -0.280757 -0.959764 -0.184759 -0.580319 -0.793155 
-0.0721498 -0.372707 -0.92514 -0.170351 -0.62789 -0.759431 -0.0990666 -0.496709 -0.862245 
-0.272525 -0.670493 -0.690051 -0.209558 -0.680133 -0.702499 -0.183849 -0.603258 -0.776067 
0.165814 -0.508166 -0.845147 0.114504 -0.543546 -0.831533 0.115287 -0.504413 -0.855732 
-0.146054 -0.571833 -0.807264 -0.0961304 -0.558777 -0.823727 -0.0872356 -0.52376 -0.847387 
0.0450177 0.108014 -0.99313 -0.0532941 0.19984 -0.978378 0.0682307 0.0417825 -0.996794 
0.0610575 -0.0442841 -0.997151 0.0605691 0.0554853 -0.996621 -0.0705221 0.2104 -0.975069 
-0.024907 0.10008 -0.994668 -0.0680534 0.199855 -0.977459 -0.0821161 0.143574 -0.986227 
0.0638781 -0.128618 -0.989635 0.064918 -0.155567 -0.98569 0.0672523 -0.146749 -0.986885 
0.0605261 -0.111167 -0.991957 0.0166559 -0.0433074 -0.998923 -0.110865 0.0619317 -0.991904 
0.0163815 -0.0656045 -0.997711 -0.0753734 0.0317078 -0.996651 
