# vtk DataFile Version 4.2
vtk output
ASCII
DATASET POLYDATA
POINTS 560 float
48.102 -2.50792 -21.3233 39.6273 -36.4067 -12.6639 -2.7462 -27.932 -13.9435 
5.72849 -27.932 -14.3007 14.2032 -27.932 -14.2427 22.6779 -27.932 -15.1129 
31.1526 -27.932 -15.5857 39.6273 -27.932 -15.6852 48.102 -27.932 -15.7017 
56.5767 -27.932 -13.3147 -62.0691 -19.4573 -14.2816 -53.5944 -19.4573 -15.2309 
-45.1197 -19.4573 -15.8251 -36.645 -19.4573 -15.3205 -28.1703 -19.4573 -14.7042 
-19.6956 -19.4573 -14.4782 -11.2209 -19.4573 -16.0246 -2.7462 -19.4573 -15.6041 
5.72849 -19.4573 -15.3615 14.2032 -19.4573 -15.6454 22.6779 -19.4573 -16.5018 
31.1526 -19.4573 -17.6708 39.6273 -19.4573 -18.6684 48.102 -19.4573 -18.4892 
56.5767 -19.4573 -18.6082 65.0514 -19.4573 -14.8086 -70.5438 -10.9826 -13.5021 
-62.0691 -10.9826 -16.151 -53.5944 -10.9826 -17.7402 -45.1197 -10.9826 -17.9173 
-36.645 -10.9826 -17.2921 -28.1703 -10.9826 -16.6032 -19.6956 -10.9826 -16.5227 
-11.2209 -10.9826 -18.5944 -2.7462 -10.9826 -15.0043 5.72849 -10.9826 -16.6286 
14.2032 -10.9826 -15.2726 22.6779 -10.9826 -17.0777 31.1526 -10.9826 -18.8356 
39.6273 -10.9826 -20.0964 48.102 -7.28078 -20.9954 48.102 -10.9826 -20.7074 
56.5767 -10.9826 -19.3342 65.0514 -10.9826 -17.2413 73.526 -10.9826 -13.062 
-70.5438 -2.50792 -14.7228 -62.0691 -2.50792 -17.4684 -53.5944 -2.50792 -18.6128 
-45.1197 -2.50792 -19.6773 -36.645 -2.50792 -18.7775 -28.1703 -2.50792 -17.4658 
-19.6956 -2.50792 -16.3119 -11.2209 -2.50792 -19.5457 -2.7462 -2.50792 -14.565 
5.72849 -2.50792 -19.0057 14.2032 -2.50792 -16.7125 22.6779 -2.50792 -17.5767 
31.1526 -2.50792 -19.3614 44.1879 -2.50792 -20.9954 39.6273 -2.50792 -20.5745 
49.902 -2.50792 -20.9954 48.102 -0.131857 -20.9954 56.5767 -2.50792 -19.6266 
65.0514 -2.50792 -17.7809 73.526 -2.50792 -13.5927 -70.5438 5.96678 -14.3249 
-62.0691 5.96678 -18.1772 -53.5944 5.96678 -18.9582 -45.1197 5.96678 -19.5645 
-36.645 5.96678 -19.492 -28.1703 5.96678 -18.2896 -19.6956 5.96678 -17.0514 
-11.2209 5.96678 -20.2182 -2.7462 5.96678 -17.8575 5.72849 5.96678 -18.8386 
14.2032 5.96678 -19.4795 22.6779 5.96678 -17.8456 31.1526 5.96678 -18.7945 
39.6273 5.96678 -19.5891 48.102 5.96678 -20.0342 56.5767 5.96678 -19.2258 
65.0514 5.96678 -16.9109 -70.5438 14.4415 -12.8322 -62.0691 14.4415 -16.2765 
-53.5944 14.4415 -18.6671 -45.1197 14.4415 -20.1065 -36.645 14.4415 -19.4562 
-28.1703 14.4415 -18.7041 -19.6956 14.4415 -18.1942 -11.2209 14.4415 -18.3203 
-2.7462 14.4415 -17.7683 5.72849 14.4415 -19.332 14.2032 14.4415 -20.2043 
22.6779 14.4415 -18.3992 31.1526 14.4415 -18.3415 39.6273 14.4415 -18.3246 
48.102 14.4415 -18.1007 56.5767 14.4415 -17.3918 65.0514 14.4415 -14.5171 
-62.0691 22.9162 -13.9845 -53.5944 22.9162 -17.168 -45.1197 22.9162 -17.9754 
-36.645 22.9162 -18.6898 -28.1703 22.9162 -19.2113 -19.6956 22.9162 -18.9528 
-11.2209 22.9162 -18.7594 -2.7462 22.9162 -18.4589 5.72849 22.9162 -19.0425 
14.2032 22.9162 -19.8216 22.6779 22.9162 -18.8064 31.1526 22.9162 -17.5268 
39.6273 22.9162 -16.9901 48.102 22.9162 -15.7484 56.5767 22.9162 -12.5255 
-53.5944 31.3909 -12.9804 -45.1197 31.3909 -14.8552 -36.645 31.3909 -16.5731 
-28.1703 31.3909 -17.8614 -19.6956 31.3909 -18.2838 -11.2209 31.3909 -18.6014 
-2.7462 31.3909 -17.4534 5.72849 31.3909 -17.4136 14.2032 31.3909 -18.0998 
22.6779 31.3909 -17.9617 31.1526 31.3909 -16.5758 39.6273 31.3909 -14.7035 
-28.1703 39.8656 -14.2847 -19.6956 39.8656 -15.167 -11.2209 39.8656 -15.0536 
-2.7462 39.8656 -13.9148 5.72849 39.8656 -13.5145 14.2032 39.8656 -14.0697 
22.6779 39.8656 -14.4824 31.1526 39.8656 -12.7244 39.6273 -36.5572 -12.5207 
-53.5944 -36.4067 -5.86925 -45.1197 -36.4067 -7.05928 -36.645 -36.4067 -7.55364 
-28.1703 -36.4067 -7.12457 -19.6956 -36.4067 -6.77885 -11.2209 -36.4067 -8.10995 
-2.7462 -31.3572 -12.5207 -2.7462 -36.4067 -9.93309 5.72849 -32.9098 -12.5207 
5.72849 -36.4067 -10.9277 14.2032 -33.2008 -12.5207 14.2032 -36.4067 -11.1691 
22.6779 -34.1146 -12.5207 22.6779 -36.4067 -11.2748 38.554 -36.4067 -12.5207 
31.1526 -34.3699 -12.5207 31.1526 -36.4067 -11.3084 40.4992 -36.4067 -12.5207 
48.102 -33.7906 -12.5207 48.102 -36.4067 -10.045 56.5767 -29.1366 -12.5207 
56.5767 -36.4067 -5.35676 -62.0691 -23.9017 -12.5207 -62.0691 -27.932 -9.83357 
-53.5944 -26.5875 -12.5207 -53.5944 -27.932 -11.861 -45.1197 -26.5825 -12.5207 
-45.1197 -27.932 -11.8134 -36.645 -26.3626 -12.5207 -36.645 -27.932 -11.8382 
-28.1703 -25.5507 -12.5207 -28.1703 -27.932 -11.57 -19.6956 -24.6496 -12.5207 
-19.6956 -27.932 -11.2887 -9.8713 -27.932 -12.5207 -11.2209 -27.3199 -12.5207 
-11.2209 -27.932 -12.2385 58.8006 -27.932 -12.5207 65.0514 -23.8805 -12.5207 
65.0514 -27.932 -9.43191 -65.3379 -19.4573 -12.5207 -70.5438 -13.0582 -12.5207 
-70.5438 -19.4573 -8.44767 68.8313 -19.4573 -12.5207 73.526 -12.4282 -12.5207 
73.526 -19.4573 -8.36707 -71.8444 -10.9826 -12.5207 74.2029 -10.9826 -12.5207 
-73.5306 -2.50792 -12.5207 -79.0185 -2.50792 -5.21209 74.8232 -2.50792 -12.5207 
73.526 5.5608 -12.5207 -72.9037 5.96678 -12.5207 73.4086 5.96678 -12.5207 
73.526 5.96678 -12.4383 -70.9357 14.4415 -12.5207 -70.5438 14.9839 -12.5207 
68.1435 14.4415 -12.5207 65.0514 18.5796 -12.5207 73.526 14.4415 -6.08274 
-64.0709 22.9162 -12.5207 -62.0691 24.9271 -12.5207 48.102 29.4286 -12.5207 
56.592 22.9162 -12.5207 56.5767 22.9272 -12.5207 65.0514 22.9162 -8.71883 
-54.3109 31.3909 -12.5207 -53.5944 31.962 -12.5207 -45.1197 35.0844 -12.5207 
-36.645 38.8781 -12.5207 45.4311 31.3909 -12.5207 39.6273 37.4171 -12.5207 
48.102 31.3909 -11.1564 56.5767 31.3909 -7.27513 -34.6718 39.8656 -12.5207 
-36.645 39.8656 -11.4857 -28.1703 42.1379 -12.5207 -19.6956 43.0626 -12.5207 
-11.2209 42.8248 -12.5207 -2.7462 41.5691 -12.5207 5.72849 41.0806 -12.5207 
14.2032 41.782 -12.5207 22.6779 42.4539 -12.5207 32.5494 39.8656 -12.5207 
31.1526 40.136 -12.5207 39.6273 39.8656 -10.6397 -53.5944 -38.7676 -4.04599 
-45.1197 -39.6272 -4.04599 -36.645 -39.6993 -4.04599 -28.1703 -39.8638 -4.04599 
-28.1703 -44.8814 3.16064 -19.6956 -39.7326 -4.04599 -11.2209 -40.5922 -4.04599 
-2.7462 -41.7543 -4.04599 5.72849 -42.3113 -4.04599 14.2032 -42.4857 -4.04599 
22.6779 -42.8758 -4.04599 31.1526 -42.4791 -4.04599 39.6273 -41.697 -4.04599 
48.102 -39.8082 -4.04599 56.5767 -37.1717 -4.04599 -56.6827 -36.4067 -4.04599 
-62.0691 -32.9148 -4.04599 58.1032 -36.4067 -4.04599 65.0514 -32.1157 -4.04599 
-69.257 -27.932 -4.04599 -70.5438 -26.5011 -4.04599 -70.5438 -27.932 1.20384 
69.8359 -27.932 -4.04599 73.526 -23.7958 -4.04599 -74.8486 -19.4573 -4.04599 
76.3028 -19.4573 -4.04599 -78.4907 -10.9826 -4.04599 -79.0185 -8.02676 -4.04599 
79.5737 -10.9826 -4.04599 -79.7404 -2.50792 -4.04599 -79.0185 1.8661 -4.04599 
80.0645 -2.50792 -4.04599 -78.3172 5.96678 -4.04599 79.1284 5.96678 -4.04599 
-75.4137 14.4415 -4.04599 -70.5438 20.9103 -4.04599 74.8289 14.4415 -4.04599 
73.526 16.7009 -4.04599 -68.9685 22.9162 -4.04599 -62.0691 29.4157 -4.04599 
68.9458 22.9162 -4.04599 65.0514 26.5436 -4.04599 -59.3218 31.3909 -4.04599 
-53.5944 35.3444 -4.04599 -45.1197 39.8404 -4.04599 48.102 39.1551 -4.04599 
59.4831 31.3909 -4.04599 56.5767 33.5936 -4.04599 -45.0649 39.8656 -4.04599 
-36.645 43.5484 -4.04599 -28.1703 46.4009 -4.04599 -19.6956 48.0655 -4.04599 
-11.2209 48.259 -4.04599 -2.7462 47.795 -4.04599 5.72849 47.8196 -4.04599 
14.2032 48.3243 -4.04599 22.6779 47.4244 -4.04599 31.1526 46.1025 -4.04599 
46.9705 39.8656 -4.04599 39.6273 43.2981 -4.04599 -28.1703 -45.4478 4.42871 
-53.5944 -41.1793 4.42871 -45.1197 -43.8335 4.42871 -35.6006 -44.8814 4.42871 
-36.645 -44.8018 4.42871 -21.8965 -44.8814 4.42871 -28.1703 -44.8814 6.56076 
-19.6956 -44.6823 4.42871 -11.2209 -43.805 4.42871 -2.7462 -43.3072 4.42871 
5.72849 -43.0039 4.42871 14.2032 -42.8511 4.42871 22.6779 -43.2506 4.42871 
31.1526 -42.9328 4.42871 39.6273 -42.2592 4.42871 48.102 -40.6308 4.42871 
56.5767 -37.5223 4.42871 -70.5438 -28.601 4.42871 -61.9011 -36.4067 4.42871 
-62.0691 -36.2923 4.42871 -53.5944 -36.4067 12.7818 5.72849 -36.4067 12.5667 
14.2032 -36.4067 12.5222 22.6779 -36.4067 12.679 39.6273 -36.4067 11.9505 
48.102 -36.4067 10.1627 58.5722 -36.4067 4.42871 56.5767 -36.4067 6.40965 
65.0514 -31.8529 4.42871 -71.0625 -27.932 4.42871 -70.5438 -27.932 5.25568 
69.4947 -27.932 4.42871 65.0514 -27.932 9.22721 73.526 -22.9675 4.42871 
-76.2293 -19.4573 4.42871 -70.5438 -19.4573 11.6225 75.5468 -19.4573 4.42871 
73.526 -19.4573 7.06424 -78.0554 -10.9826 4.42871 -79.0185 -4.37388 4.42871 
78.5089 -10.9826 4.42871 73.526 -10.9826 10.6624 -79.2257 -2.50792 4.42871 
-79.0185 -1.67915 4.42871 -79.0185 -2.50792 4.71571 78.9959 -2.50792 4.42871 
73.526 -2.50792 11.1076 -76.9226 5.96678 4.42871 -70.5438 5.96678 11.3106 
78.292 5.96678 4.42871 73.526 5.96678 9.99915 -73.2993 14.4415 4.42871 
-70.5438 18.0971 4.42871 -70.5438 14.4415 7.5922 73.9464 14.4415 4.42871 
73.526 15.1457 4.42871 73.526 14.4415 4.95991 -66.6209 22.9162 4.42871 
-62.0691 27.1464 4.42871 -62.0691 22.9162 8.78179 -53.5944 22.9162 12.2001 
68.0003 22.9162 4.42871 65.0514 25.7157 4.42871 65.0514 22.9162 7.54377 
-56.065 31.3909 4.42871 -53.5944 33.1085 4.42871 -53.5944 31.3909 6.47008 
-45.1197 37.31 4.42871 -45.1197 31.3909 9.96637 39.6273 31.3909 11.9958 
48.102 36.9962 4.42871 48.102 31.3909 10.6384 58.1437 31.3909 4.42871 
56.5767 32.5349 4.42871 56.5767 31.3909 5.83505 -40.7314 39.8656 4.42871 
-36.645 41.7121 4.42871 -36.645 39.8656 6.9563 -28.1703 44.0856 4.42871 
-28.1703 39.8656 9.21471 -19.6956 46.2248 4.42871 -19.6956 39.8656 11.3699 
-11.2209 47.078 4.42871 -2.7462 47.5807 4.42871 5.72849 47.8187 4.42871 
14.2032 47.6571 4.42871 22.6779 46.1738 4.42871 22.6779 39.8656 10.7104 
31.1526 43.8279 4.42871 31.1526 39.8656 8.44466 43.2601 39.8656 4.42871 
39.6273 41.4352 4.42871 39.6273 39.8656 6.37044 -45.1197 -40.7955 12.9034 
-36.645 -43.0533 12.9034 -28.1703 -42.1024 12.9034 -19.6956 -40.7224 12.9034 
-11.2209 -39.1963 12.9034 -2.7462 -37.7071 12.9034 31.1526 -36.7387 12.9034 
-62.0691 -31.573 12.9034 -53.3828 -36.4067 12.9034 -53.5944 -36.2648 12.9034 
[...]
POINT_DATA 560
SCALARS ImageScalars float
LOOKUP_TABLE default
0 0 0 0 0 0 0 0 0 
0 0 0 0 0 0 0 0 0 
0 0 0 0 0 0 0 0 0 
0 0 0 0 0 0 0 0 0 
0 0 0 0 0 0 0 0 0 
0 0 0 0 0 0 0 0 0 
0 0 0 0 0 0 0 0 0 
0 0 0 0 0 0 0 0 0 
0 0 0 0 0 0 0 0 0 
0 0 0 0 0 0 0 0 0 
0 0 0 0 0 0 0 0 0 
0 0 0 0 0 0 0 0 0 
0 0 0 0 0 0 0 0 0 
0 0 0 0 0 0 0 0 0 
0 0 0 0 0 0 0 0 0 
0 0 0 0 0 0 0 0 0 
0 0 0 0 0 0 0 0 0 
0 0 0 0 0 0 0 0 0 
0 0 0 0 0 0 0 0 0 
0 0 0 0 0 0 0 0 0 
0 0 0 0 0 0 0 0 0 
0 0 0 0 0 0 0 0 0 
0 0 0 0 0 0 0 0 0 
0 0 0 0 0 0 0 0 0 
0 0 0 0 0 0 0 0 0 
0 0 0 0 0 0 0 0 0 
0 0 0 0 0 0 0 0 0 
0 0 0 0 0 0 0 0 0 
0 0 0 0 0 0 0 0 0 
0 0 0 0 0 0 0 0 0 
0 0 0 0 0 0 0 0 0 
0 0 0 0 0 0 0 0 0 
0 0 0 0 0 0 0 0 0 
0 0 0 0 0 0 0 0 0 
0 0 0 0 0 0 0 0 0 
0 0 0 0 0 0 0 0 0 
0 0 0 0 0 0 0 0 0 
0 0 0 0 0 0 0 0 0 
0 0 0 0 0 0 0 0 0 
0 0 0 0 0 0 0 0 0 
0 0 0 0 0 0 0 0 0 
0 0 0 0 0 0 0 0 0 
0 0 0 0 0 0 0 0 0 
0 0 0 0 0 0 0 0 0 
0 0 0 0 0 0 0 0 0 
0 0 0 0 0 0 0 0 0 
0 0 0 0 0 0 0 0 0 
0 0 0 0 0 0 0 0 0 
0 0 0 0 0 0 0 0 0 
0 0 0 0 0 0 0 0 0 
0 0 0 0 0 0 0 0 0 
0 0 0 0 0 0 0 0 0 
0 0 0 0 0 0 0 0 0 
0 0 0 0 0 0 0 0 0 
0 0 0 0 0 0 0 0 0 
0 0 0 0 0 0 0 0 0 
0 0 0 0 0 0 0 0 0 
0 0 0 0 0 0 0 0 0 
0 0 0 0 0 0 0 0 0 
0 0 0 0 0 0 0 0 0 
0 0 0 0 0 0 0 0 0 
0 0 0 0 0 0 0 0 0 
0 0 
NORMALS Normals float
-0.0515822 -0.03646 0.998003 -0.0167946 0.63817 0.769712 0.111654 0.286597 0.951523 
0.016541 0.231041 0.972803 0.0480666 0.237179 0.970276 0.0742746 0.28176 0.956606 
0.0340795 0.314146 0.948763 0.00614966 0.338861 0.940816 -0.116639 0.419953 0.900019 
-0.248139 0.512107 0.822297 0.304085 0.26984 0.913629 0.10907 0.313962 0.94315 
0.00235166 0.323933 0.946077 -0.0653007 0.300574 0.95152 -0.046903 0.287378 0.956668 
0.0724696 0.29989 0.951217 0.063285 0.351533 0.934034 -0.0383309 0.060716 0.997419 
0.00306676 0.126515 0.99196 0.0684737 0.0582649 0.99595 0.115306 0.11048 0.987167 
0.130905 0.1788 0.975138 0.0466308 0.242933 0.968922 -0.00511886 0.260954 0.965338 
-0.188138 0.298001 0.935842 -0.403905 0.299591 0.864353 0.500081 0.299896 0.812393 
0.278186 0.205197 0.938353 0.0914142 0.176626 0.980024 -0.0254822 0.227296 0.973492 
-0.0777483 0.195551 0.977607 -0.0444736 0.157671 0.98649 0.113019 0.1028 0.988261 
-0.0763625 0.19024 0.978763 -0.121835 -0.0541459 0.991072 0.0128755 0.20398 0.97889 
0.0248136 0.054873 0.998185 0.20814 0.065939 0.975874 0.168706 0.0984437 0.980738 
0.105926 0.111815 0.988067 -0.0473436 0.0736164 0.996162 -0.043488 0.16378 0.985538 
-0.184014 0.051109 0.981594 -0.367838 0.157786 0.916405 -0.585184 0.19901 0.786101 
0.480281 0.053448 0.875485 0.266953 0.111733 0.95721 0.121988 0.0742952 0.989747 
0.0092842 0.0946724 0.995465 -0.128109 0.12717 0.983573 -0.143443 0.100192 0.984574 
0.089371 0.0318741 0.995488 -0.00275834 0.0939238 0.995576 -0.0283549 0.162341 0.986327 
0.0637235 0.140338 0.988051 -0.0670283 0.243635 0.967548 0.149897 0.0425138 0.987787 
0.172957 -0.00348999 0.984923 0.0244947 -0.0335281 0.999138 0.116077 -0.0295487 0.992801 
-0.0786481 -0.0325127 0.996372 -0.0460734 -0.0778347 0.995901 -0.190826 -0.00844278 0.981588 
-0.373531 -0.0184394 0.927434 -0.584381 -0.0320768 0.810845 0.522258 -0.111687 0.845442 
0.324908 -0.0606071 0.943802 0.0751289 0.000216976 0.997174 0.030675 0.0239868 0.999242 
-0.0739657 0.039583 0.996475 -0.14309 0.0724442 0.987055 0.0694171 0.11406 0.991046 
0.0891089 -0.092957 0.991675 -0.0644998 0.143805 0.987502 0.0895159 0.022093 0.99574 
-0.0687982 0.199326 0.977515 -0.028605 0.0488356 0.998397 0.101966 -0.059613 0.993 
0.0715737 -0.139243 0.987668 -0.0252767 -0.190101 0.981439 -0.159116 -0.109644 0.981153 
-0.401749 -0.194611 0.894832 0.56182 -0.377369 0.736173 0.403868 -0.24526 0.881328 
0.183721 -0.0785645 0.979834 0.0622306 -0.0886135 0.99412 -0.0806754 -0.0469256 0.995635 
-0.0741469 0.0531467 0.99583 -0.0226209 0.111856 0.993467 -0.0250166 -0.0575922 0.998027 
0.0550988 0.0366733 0.997807 0.151111 0.00823154 0.988483 -0.060378 0.0152992 0.998058 
-0.108042 0.0557243 0.992583 -0.00456969 -0.0744586 0.997214 -0.0133855 -0.143581 0.989548 
-0.0487613 -0.253587 0.966083 -0.214783 -0.347917 0.912591 -0.419892 -0.352838 0.836179 
0.472625 -0.42039 0.774531 0.242069 -0.351264 0.904442 0.0790384 -0.288029 0.954354 
0.0685656 -0.15483 0.985559 0.0157224 -0.0524043 0.998502 -0.0263281 0.00567582 0.999637 
-0.0290484 0.017246 0.999429 0.0163999 -0.0182032 0.9997 0.0816362 -0.110998 0.990462 
-0.0139279 -0.116626 0.993078 -0.133395 -0.0257778 0.990728 -0.104334 -0.0989377 0.989609 
-0.111413 -0.230428 0.96669 -0.212789 -0.324469 0.921651 -0.339311 -0.430508 0.83638 
0.405632 -0.591306 0.697008 0.205715 -0.466796 0.860106 0.176535 -0.328325 0.927921 
0.0904448 -0.259951 0.961377 0.0429393 -0.190667 0.980715 -0.0491055 -0.179887 0.982461 
-0.0647714 -0.23144 0.970691 0.0351833 -0.289053 0.956666 0.0311084 -0.304914 0.951872 
-0.082429 -0.238266 0.967696 -0.20066 -0.261477 0.944122 -0.260829 -0.297391 0.918437 
0.147553 -0.569541 0.80861 0.0446914 -0.535616 0.843278 -0.0647457 -0.539647 0.839398 
-0.0772932 -0.557564 0.826528 0.00820143 -0.572267 0.820026 0.0511386 -0.559579 0.827198 
-0.0711806 -0.538528 0.839596 -0.164598 -0.553943 0.816122 -0.0167745 0.647403 0.761963 
0.288786 0.627994 0.722652 0.0866764 0.620811 0.779154 0.00893954 0.58217 0.813018 
-0.0373293 0.587001 0.808725 0.0492704 0.586677 0.80832 0.157486 0.601278 0.783367 
0.127232 0.387478 0.913057 0.139115 0.61029 0.779867 0.0424293 0.396042 0.917251 
0.0595876 0.571503 0.818434 0.0291923 0.398177 0.916844 0.0166111 0.554225 0.832201 
0.0237393 0.459564 0.887828 0.0063813 0.56585 0.824484 -0.00418013 0.636463 0.771296 
0.0576738 0.531561 0.845054 0.0511099 0.640498 0.766257 -0.0393565 0.645211 0.76299 
-0.213656 0.590716 0.778078 -0.248288 0.74069 0.624285 -0.279116 0.557347 0.781958 
-0.368509 0.867345 0.334534 0.394214 0.393936 0.830307 0.442101 0.555866 0.70396 
0.0864616 0.548789 0.831477 0.0964789 0.581739 0.807634 -0.00503801 0.462756 0.886472 
-0.000598675 0.484036 0.875048 -0.0233154 0.367127 0.929878 -0.0128293 0.387628 0.921727 
-0.0380372 0.345009 0.937828 -0.030447 0.374555 0.926705 0.046161 0.357882 0.932625 
0.0351588 0.398011 0.916707 0.142935 0.385458 0.911588 0.142017 0.399707 0.905575 
0.148149 0.405159 0.902163 -0.31263 0.551226 0.773571 -0.453059 0.481016 0.750573 
-0.527618 0.686553 0.500265 0.387534 0.377885 0.840845 0.50713 0.367413 0.779632 
0.590764 0.474238 0.652761 -0.527936 0.38084 0.759107 -0.606842 0.249962 0.754494 
-0.771928 0.456087 0.442846 0.545513 0.296151 0.784035 -0.611303 0.210051 0.763012 
0.599803 0.0553635 0.79823 0.934982 -0.00758231 0.354614 -0.642538 -0.0389853 0.765262 
-0.609209 -0.250241 0.752491 0.612821 -0.126004 0.780111 -0.606845 -0.259164 0.751381 
-0.611945 -0.261507 0.746417 0.575984 -0.386135 0.720515 0.577038 -0.397223 0.713611 
-0.511538 -0.399339 0.760827 -0.442343 -0.460334 0.769692 -0.784346 -0.521531 0.335866 
0.550039 -0.48182 0.682134 0.516379 -0.540288 0.66441 -0.30597 -0.476141 0.824422 
-0.339536 -0.430755 0.836161 -0.339444 -0.430624 0.836266 -0.538418 -0.64082 0.547225 
0.436264 -0.610568 0.66097 0.426 -0.608296 0.669701 0.270067 -0.619639 0.736961 
0.28086 -0.671274 0.685936 -0.316147 -0.44724 0.836676 -0.303541 -0.537271 0.786894 
-0.357784 -0.560349 0.746994 -0.525699 -0.709689 0.469022 0.259104 -0.682429 0.683488 
0.30917 -0.74681 0.588803 0.178734 -0.660827 0.728945 0.0314826 -0.670684 0.741075 
-0.066127 -0.666154 0.742877 -0.0754617 -0.621797 0.779535 0.00892107 -0.613222 0.78986 
0.0586318 -0.622404 0.780497 -0.0665288 -0.639749 0.765699 -0.18808 -0.568639 0.800797 
-0.167639 -0.562918 0.809333 -0.344911 -0.701313 0.623856 0.356476 0.698201 0.620838 
0.0396826 0.771939 0.634456 0.0108787 0.740319 0.672167 0.00208742 0.695698 0.718331 
-0.00321836 0.983735 0.179596 0.0364206 0.690936 0.721998 0.100475 0.79738 0.595054 
0.0886984 0.894885 0.437393 0.0395458 0.934097 0.354823 0.031335 0.941883 0.334476 
-0.000202897 0.942991 0.332818 -0.063473 0.941916 0.329795 -0.138609 0.940778 0.309393 
-0.257523 0.918224 0.300909 -0.361164 0.885495 0.292334 0.437644 0.711184 0.550169 
0.484092 0.771657 0.412554 -0.398682 0.870822 0.287614 -0.573177 0.77722 0.259609 
0.633776 0.62541 0.455183 0.673434 0.586447 0.450074 0.778495 0.625661 0.049941 
-0.645456 0.719591 0.256076 -0.777423 0.579303 0.244993 0.804595 0.458043 0.37792 
-0.876105 0.427663 0.222585 0.909873 0.260304 0.323067 0.933688 0.165662 0.317464 
-0.956822 0.219939 0.190048 0.961247 -0.0168359 0.275175 0.96335 -0.125721 0.236963 
-0.979803 -0.028363 0.197944 0.958031 -0.218277 0.185827 -0.933303 -0.276733 0.228833 
0.86835 -0.482245 0.115794 0.791835 -0.601939 0.103283 -0.831272 -0.514787 0.209716 
-0.804718 -0.546494 0.231889 0.76536 -0.635355 0.102705 0.601582 -0.794774 0.0802082 
-0.711664 -0.658183 0.24562 -0.654661 -0.713956 0.248368 0.57359 -0.816544 0.0651953 
0.529483 -0.847374 0.0400726 0.438565 -0.897123 0.0532131 -0.521565 -0.831451 0.191463 
-0.60195 -0.76174 0.239599 -0.562688 -0.794095 0.229774 0.438166 -0.897302 0.0534745 
0.367534 -0.925438 0.0921077 0.249999 -0.966241 0.0622781 0.111058 -0.987055 0.115706 
-0.0143746 -0.985458 0.169309 -0.026401 -0.966201 0.256436 0.0303087 -0.953823 0.298835 
-0.0302547 -0.967479 0.251136 -0.121446 -0.982125 0.143813 -0.239432 -0.962352 0.128651 
-0.512893 -0.840128 0.176425 -0.401507 -0.906347 0.131634 -0.00723363 0.995358 0.0959704 
0.381734 0.920018 -0.0885818 0.211838 0.97128 0.108349 0.0796435 0.982708 0.167161 
0.0909452 0.980244 0.175641 -0.0745921 0.99534 0.061105 -0.0367944 0.99835 -0.044077 
-0.0962524 0.994118 0.0496475 -0.0804882 0.995786 -0.0439618 -0.0472178 0.985251 -0.164472 
-0.0265274 0.965151 -0.260344 0.0137908 0.963637 -0.266859 0.00456686 0.96308 -0.269178 
-0.0555402 0.963555 -0.261682 -0.125671 0.962144 -0.241838 -0.268574 0.934765 -0.232556 
-0.425936 0.871418 -0.243331 0.779998 0.597357 -0.186461 0.577402 0.816006 -0.027224 
0.581968 0.812774 -0.0266945 0.37185 0.603915 -0.704993 -0.0719356 0.592076 -0.802665 
0.00518122 0.517628 -0.85559 0.0300253 0.522127 -0.852339 -0.130892 0.668442 -0.732156 
-0.207131 0.75813 -0.618334 -0.472286 0.843919 -0.254452 -0.428791 0.844533 -0.320785 
-0.608677 0.733719 -0.301941 0.792937 0.58075 -0.184336 0.78116 0.578833 -0.233968 
-0.668047 0.673739 -0.315895 -0.567815 0.653314 -0.500766 -0.771095 0.526469 -0.358109 
0.891929 0.37327 -0.255208 0.675882 0.321969 -0.662963 -0.8431 0.40854 -0.349683 
-0.761314 0.410025 -0.502275 0.915566 0.154996 -0.371099 0.912919 -0.0215725 -0.407569 
-0.92735 0.203278 -0.314166 -0.638111 0.201131 -0.74321 0.909453 -0.0728951 -0.409366 
0.90433 -0.0960344 -0.415891 0.90019 -0.0747206 -0.429039 -0.955344 -0.0149529 -0.295116 
-0.607889 -0.0426127 -0.792878 0.857298 -0.27167 -0.437305 0.617153 -0.280525 -0.735138 
-0.914046 -0.262646 -0.309089 -0.625571 -0.282469 -0.727236 0.753325 -0.514784 -0.409265 
0.698284 -0.560855 -0.444793 0.634172 -0.515406 -0.576352 -0.765246 -0.519455 -0.380217 
-0.757665 -0.52662 -0.385507 -0.750806 -0.517452 -0.410529 0.652818 -0.598389 -0.464499 
0.554503 -0.689278 -0.466285 0.509149 -0.588618 -0.62793 0.327036 -0.448649 -0.831722 
-0.678566 -0.62584 -0.384541 -0.625128 -0.681344 -0.38077 -0.612371 -0.616409 -0.495017 
0.495354 -0.735431 -0.462348 0.473882 -0.7478 -0.465006 0.451044 -0.687611 -0.56899 
0.423384 -0.766534 -0.482878 0.312821 -0.593592 -0.741479 -0.156224 -0.441661 -0.883476 
-0.445137 -0.780897 -0.438238 -0.284979 -0.596918 -0.749984 -0.523167 -0.749318 -0.405978 
-0.503653 -0.769022 -0.393624 -0.493849 -0.718398 -0.489915 0.381762 -0.812256 -0.441019 
0.324394 -0.841445 -0.432134 0.307066 -0.770913 -0.558036 0.245786 -0.83725 -0.488469 
0.193237 -0.683852 -0.703567 0.162162 -0.874075 -0.457927 0.166938 -0.60746 -0.77661 
0.0739111 -0.922666 -0.378451 0.0409435 -0.949391 -0.311416 0.00490173 -0.955823 -0.293903 
-0.0871661 -0.929808 -0.357573 -0.212238 -0.877561 -0.429931 -0.226116 -0.556208 -0.79969 
-0.255119 -0.81237 -0.524374 -0.203056 -0.659567 -0.723698 -0.376566 -0.803686 -0.460746 
-0.320676 -0.822851 -0.46913 -0.295704 -0.765023 -0.5721 0.285238 0.703438 -0.65101 
0.0533064 0.809736 -0.584368 -0.0999479 0.776278 -0.622417 -0.127408 0.714089 -0.688364 
-0.13233 0.658693 -0.740684 -0.134295 0.63694 -0.759126 -0.0293959 0.597547 -0.801295 
0.52514 0.514146 -0.678146 0.36726 0.596706 -0.713486 0.366501 0.594851 -0.715422 
0.223633 0.513811 -0.828243 0.0271426 0.481342 -0.876112 0.00856812 0.441843 -0.897051 
-0.120371 0.530846 -0.838876 -0.134298 0.524564 -0.840712 -0.0849849 0.583096 -0.807946 
-0.133383 0.586834 -0.798645 -0.0773157 0.559082 -0.825499 0.000498382 0.46966 -0.882847 
0.00628639 0.543296 -0.839518 0.0338883 0.500213 -0.865239 -0.0551454 0.598268 -0.799396 
-0.0259206 0.583777 -0.8115 -0.112055 0.591195 -0.798707 -0.17937 0.587394 -0.789173 
-0.350542 0.502921 -0.790058 0.554796 0.385596 -0.737237 0.446231 0.26393 -0.855114 
0.208254 0.312848 -0.926691 0.156751 0.216219 -0.96368 0.0562118 0.188346 -0.980493 
-0.120272 0.119896 -0.985474 -0.0693338 0.0937828 -0.993176 -0.0474165 0.203005 -0.978029 
-0.0884574 0.283598 -0.954855 -0.151722 0.251838 -0.955802 -0.0342615 0.219645 -0.974978 
0.104932 0.275279 -0.955621 0.0631372 0.34429 -0.936738 0.00537323 0.347144 -0.937796 
-0.177909 0.427597 -0.88629 -0.378743 0.492747 -0.783425 -0.331409 0.444544 -0.832195 
-0.499635 0.406923 -0.764708 0.574498 0.225455 -0.786843 0.578068 0.161195 -0.799908 
0.364386 0.0748174 -0.928238 0.249097 0.0380023 -0.967733 0.125085 0.0780118 -0.989074 
-0.0763423 -0.0409338 -0.996241 -0.0680925 0.019446 -0.99749 -0.0388812 0.0203197 -0.999037 
0.0290069 0.0600024 -0.997777 -0.0722149 0.0528431 -0.995988 -0.176975 0.0815618 -0.98083 
0.00450171 0.108606 -0.994075 0.15357 0.140415 -0.97811 0.0905154 0.12561 -0.987942 
-0.0205324 0.156287 -0.987498 -0.0673665 0.125335 -0.989825 -0.279742 0.257147 -0.924997 
-0.517738 0.277239 -0.809374 -0.45319 0.209646 -0.86641 0.560357 0.0983132 -0.822396 
0.543944 0.0858309 -0.83472 0.358899 0.0669635 -0.930971 0.176109 -0.00158491 -0.984369 
0.0701308 -0.0791523 -0.994393 -0.010336 -0.00927417 -0.999904 -0.0612918 -0.00591347 -0.998102 
-0.0317594 0.0292493 -0.999067 -0.00913017 0.13119 -0.991315 -0.0663014 -0.0622287 -0.995857 
-0.109371 0.113535 -0.987496 0.0287196 0.135462 -0.990366 0.136708 0.0339929 -0.990028 
0.0913041 -0.00252988 -0.99582 0.0142907 0.0236101 -0.999619 -0.101232 0.0510156 -0.993554 
-0.224057 0.0134655 -0.974483 -0.489092 0.110164 -0.865247 -0.389924 0.046407 -0.919677 
0.539654 -0.100065 -0.835919 0.545289 -0.169652 -0.820901 0.507538 -0.0812519 -0.85779 
0.322958 -0.105364 -0.94053 0.145723 -0.0845643 -0.985705 0.0873753 -0.0402608 -0.995362 
0.00590097 -0.0516478 -0.998648 -0.0299041 -0.0380504 -0.998828 0.0983363 -0.0220361 -0.994909 
-0.0530797 0.0545767 -0.997098 -0.106724 -0.0154849 -0.994168 0.0361877 0.0386438 -0.998598 
-0.0763156 0.11223 -0.990747 0.0109225 -0.0363393 -0.99928 0.0804496 -0.0697855 -0.994313 
0.0326608 -0.0665614 -0.997248 -0.0836366 -0.0544099 -0.99501 -0.220958 -0.0395107 -0.974483 
-0.466472 -0.0409474 -0.883588 -0.354289 -0.02758 -0.934729 0.468233 -0.214591 -0.857151 
0.296299 -0.145052 -0.944017 0.23247 -0.11721 -0.965515 0.113383 -0.119024 -0.986396 
-0.0123576 -0.104085 -0.994492 -0.0318123 -0.0735361 -0.996785 0.0554594 -0.0544565 -0.996975 
0.00400093 -0.132119 -0.991226 -0.0833424 0.0327428 -0.995983 0.0170708 -0.0168268 -0.999713 
-0.0523271 0.0161737 -0.998499 -0.039278 -0.0309783 -0.998748 0.0600771 -0.0794393 -0.995028 
0.0287037 -0.0838848 -0.996062 -0.070429 -0.159631 -0.984661 -0.212303 -0.151267 -0.965425 
-0.452444 -0.172059 -0.875037 -0.384139 -0.130789 -0.913964 0.433958 -0.339068 -0.834693 
0.422016 -0.375615 -0.825116 0.386324 -0.286892 -0.876611 0.303718 -0.417388 -0.856471 
0.2112 -0.286252 -0.934588 0.107556 -0.199709 -0.973934 0.0519316 -0.160381 -0.985688 
0.0204171 -0.107006 -0.994049 0.0446162 -0.0493406 -0.997785 0.0220367 -0.0966852 -0.995071 
0.0122633 -0.00621786 -0.999905 0.0199835 0.0209049 -0.999582 -0.0880556 -0.0355467 -0.995481 
-0.0874083 -0.0519596 -0.994817 0.0263966 -0.128376 -0.991374 -0.0477271 -0.198667 -0.978904 
-0.14656 -0.207358 -0.967224 -0.228925 -0.261234 -0.937737 -0.452153 -0.319118 -0.832899 
-0.455053 -0.328676 -0.827587 -0.443927 -0.311291 -0.840254 0.306779 -0.431762 -0.848215 
0.261547 -0.479139 -0.837866 0.232571 -0.391905 -0.890124 0.0860713 -0.282261 -0.955469 
0.0841442 -0.193437 -0.977498 0.0669589 -0.144977 -0.987167 0.0431882 -0.133044 -0.990169 
0.0392218 -0.0952082 -0.994684 -0.0135143 -0.100663 -0.994829 -0.124044 -0.138179 -0.982609 
-0.13046 -0.144286 -0.980898 -0.0864624 -0.220456 -0.971557 -0.127671 -0.392133 -0.911006 
-0.077804 -0.323652 -0.942972 -0.171793 -0.455255 -0.87363 -0.106933 -0.345059 -0.93247 
-0.362127 -0.450613 -0.815973 -0.328952 -0.438046 -0.836604 -0.292411 -0.415406 -0.861356 
0.226238 -0.427872 -0.875067 0.223961 -0.42742 -0.875873 0.221841 -0.419314 -0.880319 
0.170648 -0.47664 -0.862377 0.163285 -0.386591 -0.907682 0.149142 -0.505235 -0.849997 
0.0995293 -0.325908 -0.940148 0.0732596 -0.296028 -0.952366 0.0476226 -0.26534 -0.962978 
-0.0244966 -0.267626 -0.963211 -0.131158 -0.287755 -0.948681 -0.193435 -0.412237 -0.890305 
-0.167253 -0.321019 -0.932187 -0.149067 -0.406117 -0.901581 -0.162613 -0.429801 -0.88816 
-0.154309 -0.384499 -0.910137 0.102565 -0.545755 -0.831644 0.096063 -0.547438 -0.831315 
0.0963814 -0.542149 -0.834737 0.0350862 -0.581706 -0.812642 0.0375143 -0.560118 -0.827563 
-0.00990469 -0.59387 -0.8045 -0.0144309 -0.560253 -0.828196 -0.15666 -0.518988 -0.840303 
-0.142342 -0.533474 -0.833753 -0.146292 -0.520851 -0.841019 
