# vtk DataFile Version 4.2
vtk output
ASCII
DATASET POLYDATA
POINTS 574 float
-24.879 -28.1682 -13.9164 -17.2191 -28.1682 -15.0814 -9.55918 -28.1682 -15.8186 
-1.89928 -28.1682 -15.7678 5.76063 -28.1682 -14.8696 13.4205 -28.1682 -14.1307 
21.0804 -28.1682 -14.1241 28.7403 -28.1682 -13.44 -40.1988 -20.5083 -13.575 
-32.5389 -20.5083 -14.9117 -24.879 -20.5083 -15.8948 -17.2191 -20.5083 -16.6062 
-9.55918 -20.5083 -16.8623 -1.89928 -20.5083 -17.075 5.76063 -20.5083 -16.8557 
13.4205 -20.5083 -16.6319 21.0804 -20.5083 -16.8059 28.7403 -20.5083 -16.8586 
36.4002 -20.5083 -16.1436 44.0602 -20.5083 -13.9735 -40.1988 -12.8484 -14.7466 
-32.5389 -12.8484 -15.7517 -24.879 -12.8484 -16.4985 -17.2191 -12.8484 -17.5617 
-9.55918 -12.8484 -18.1732 -1.89928 -12.8484 -18.5096 5.76063 -12.8484 -19.4453 
13.4205 -12.8484 -18.0052 21.0804 -12.8484 -17.9572 28.7403 -12.8484 -18.2549 
36.4002 -12.8484 -17.893 44.0602 -12.8484 -16.4898 51.7201 -12.8484 -13.8171 
-47.8587 -5.18846 -14.7541 -40.1988 -5.18846 -16.2069 -32.5389 -5.18846 -16.5163 
-24.879 -5.18846 -16.5609 -17.2191 -5.18846 -17.7507 -9.55918 -5.18846 -20.313 
-1.89928 -5.18846 -17.0605 5.76063 -5.18846 -19.3543 13.4205 -5.18846 -18.4593 
21.0804 -5.18846 -18.1356 28.7403 -5.18846 -18.8025 36.4002 -5.18846 -18.9576 
44.0602 -5.18846 -18.5058 51.7201 -5.18846 -16.1617 -47.8587 2.47144 -15.2217 
-40.1988 2.47144 -17.2292 -32.5389 2.47144 -17.7154 -24.879 2.47144 -17.0137 
-17.2191 2.47144 -17.3847 -9.55918 2.47144 -20.701 -1.89928 2.47144 -17.238 
5.76063 2.47144 -19.7217 13.4205 2.47144 -18.6049 21.0804 2.47144 -17.8544 
28.7403 2.47144 -19.0205 36.4002 2.47144 -19.494 44.0602 2.47144 -19.2807 
51.7201 2.47144 -17.2789 -47.8587 10.1314 -16.1077 -40.1988 10.1314 -17.9959 
-32.5389 10.1314 -19.0231 -24.879 10.1314 -18.5056 -17.2191 10.1314 -17.7931 
-9.55918 10.1314 -17.8665 -1.89928 10.1314 -18.6223 5.76063 10.1314 -18.9741 
13.4205 10.1314 -17.0815 21.0804 10.1314 -17.9025 28.7403 10.1314 -18.9992 
36.4002 10.1314 -19.5393 44.0602 10.1314 -19.6191 51.7201 10.1314 -17.384 
-47.8587 17.7913 -15.9897 -40.1988 17.7913 -18.4993 -32.5389 17.7913 -19.6819 
-24.879 17.7913 -19.5133 -17.2191 17.7913 -18.7136 -9.55918 17.7913 -17.9131 
-1.89928 17.7913 -18.5344 5.76063 17.7913 -18.5429 13.4205 17.7913 -18.3154 
21.0804 17.7913 -18.7271 28.7403 17.7913 -19.0847 36.4002 17.7913 -19.29 
44.0602 17.7913 -19.1109 51.7201 17.7913 -16.6287 -47.8587 25.4512 -14.0622 
-40.1988 25.4512 -17.3499 -32.5389 25.4512 -18.7981 -24.879 25.4512 -19.7988 
-17.2191 25.4512 -18.8781 -9.55918 25.4512 -18.9163 -1.89928 25.4512 -18.8236 
5.76063 25.4512 -19.165 13.4205 25.4512 -19.3433 21.0804 25.4512 -19.0407 
28.7403 25.4512 -19.5599 36.4002 25.4512 -20.1317 44.0602 25.4512 -18.015 
51.7201 25.4512 -13.8577 -40.1988 33.1111 -13.997 -32.5389 33.1111 -16.6396 
-24.879 33.1111 -17.339 -17.2191 33.1111 -17.575 -9.55918 33.1111 -17.0682 
-1.89928 33.1111 -17.5295 5.76063 33.1111 -17.8644 13.4205 33.1111 -19.0392 
21.0804 33.1111 -18.3917 28.7403 33.1111 -18.853 36.4002 33.1111 -17.3642 
44.0602 33.1111 -14.0842 13.4205 40.771 -13.8527 21.0804 40.771 -14.5959 
28.7403 40.771 -13.4171 -32.5389 -35.8281 -6.93033 -24.879 -29.5116 -13.237 
-24.879 -35.8281 -9.59453 -17.2191 -32.754 -13.237 -17.2191 -35.8281 -11.6838 
-9.55918 -34.1496 -13.237 -9.55918 -35.8281 -12.2656 -1.89928 -33.63 -13.237 
-1.89928 -35.8281 -11.7304 5.76063 -31.4142 -13.237 5.76063 -35.8281 -10.0448 
13.4205 -29.8421 -13.237 13.4205 -35.8281 -8.8917 21.0804 -29.5699 -13.237 
21.0804 -35.8281 -7.84848 28.7403 -28.4518 -13.237 28.7403 -35.8281 -6.28855 
-47.8587 -28.1682 -6.38943 -40.1988 -21.3403 -13.237 -40.1988 -28.1682 -9.68982 
-28.6023 -28.1682 -13.237 -32.5389 -25.9501 -13.237 -32.5389 -28.1682 -12.4599 
29.7648 -28.1682 -13.237 36.4002 -25.8794 -13.237 36.4002 -28.1682 -11.7414 
44.0602 -21.9844 -13.237 44.0602 -28.1682 -8.09107 -41.0789 -20.5083 -13.237 
-47.8587 -20.5083 -10.0471 46.2294 -20.5083 -13.237 51.7201 -14.4487 -13.237 
51.7201 -20.5083 -10.0878 -55.5186 -12.8484 -8.78674 -46.3876 -12.8484 -13.237 
-47.8587 -11.5186 -13.237 -47.8587 -12.8484 -12.8275 52.6989 -12.8484 -13.237 
59.38 -12.8484 -8.66929 -50.8726 -5.18846 -13.237 -55.5186 -5.18846 -10.2274 
56.7377 -5.18846 -13.237 59.38 -5.18846 -11.2072 -52.4464 2.47144 -13.237 
-55.5186 2.47144 -11.7365 58.1081 2.47144 -13.237 59.38 2.47144 -12.0426 
-53.4177 10.1314 -13.237 -55.5186 10.1314 -11.9225 58.8059 10.1314 -13.237 
59.38 10.1314 -12.6841 -52.2732 17.7913 -13.237 -55.5186 17.7913 -10.1591 
58.18 17.7913 -13.237 59.38 17.7913 -11.6935 -49.1311 25.4512 -13.237 
-55.5186 25.4512 -6.32078 -47.8587 26.8205 -13.237 52.5666 25.4512 -13.237 
51.7201 27.0106 -13.237 -41.6472 33.1111 -13.237 -47.8587 33.1111 -7.46425 
-40.1988 34.0572 -13.237 -32.5389 37.3033 -13.237 -24.879 38.9415 -13.237 
-17.2191 38.9203 -13.237 -9.55918 37.5056 -13.237 -1.89928 37.6604 -13.237 
5.76063 39.1992 -13.237 36.4002 38.174 -13.237 45.8745 33.1111 -13.237 
44.0602 34.064 -13.237 -32.5389 40.771 -6.55819 -24.879 40.771 -9.28159 
-17.2191 40.771 -8.87365 11.3901 40.771 -13.237 13.4205 41.2071 -13.237 
21.0804 41.9061 -13.237 29.215 40.771 -13.237 28.7403 40.9181 -13.237 
-32.5389 -37.1048 -5.57707 -24.879 -39.9126 -5.57707 -17.2191 -41.4299 -5.57707 
-17.2191 -43.488 0.0988361 -9.55918 -41.5327 -5.57707 -1.89928 -40.5272 -5.57707 
5.76063 -39.2349 -5.57707 13.4205 -38.3325 -5.57707 21.0804 -37.5775 -5.57707 
28.7403 -36.3313 -5.57707 -47.8587 -28.9557 -5.57707 -35.961 -35.8281 -5.57707 
-40.1988 -33.8023 -5.57707 -40.1988 -35.8281 -2.16131 30.4629 -35.8281 -5.57707 
36.4002 -33.8682 -5.57707 36.4002 -35.8281 0.158546 44.0602 -30.0994 -5.57707 
-48.7025 -28.1682 -5.57707 48.0736 -28.1682 -5.57707 51.7201 -25.5714 -5.57707 
51.7201 -28.1682 -0.713008 -55.4402 -20.5083 -5.57707 -55.5186 -20.3482 -5.57707 
-55.5186 -20.5083 -5.41552 55.7978 -20.5083 -5.57707 59.38 -16.6197 -5.57707 
-58.3379 -12.8484 -5.57707 61.6371 -12.8484 -5.57707 -61.0931 -5.18846 -5.57707 
64.2196 -5.18846 -5.57707 -62.3685 2.47144 -5.57707 -63.1785 2.47144 -1.48772 
64.5991 2.47144 -5.57707 -61.6141 10.1314 -5.57707 64.4301 10.1314 -5.57707 
-59.2779 17.7913 -5.57707 62.1998 17.7913 -5.57707 59.38 22.7519 -5.57707 
-55.8887 25.4512 -5.57707 -55.5186 25.9346 -5.57707 57.5609 25.4512 -5.57707 
51.7201 31.8724 -5.57707 -49.0678 33.1111 -5.57707 -47.8587 34.1385 -5.57707 
-40.1988 38.5341 -5.57707 -9.55918 40.0984 -5.57707 -1.89928 39.2524 -5.57707 
5.76063 40.4043 -5.57707 36.4002 40.6717 -5.57707 50.0656 33.1111 -5.57707 
44.0602 37.3232 -5.57707 44.0602 33.1111 1.55565 -33.721 40.771 -5.57707 
-32.5389 41.1234 -5.57707 -32.5389 40.771 -3.73064 -24.879 41.9593 -5.57707 
-24.879 40.771 -0.507272 -12.5779 40.771 -5.57707 -17.2191 41.8179 -5.57707 
-17.2191 40.771 -1.7732 7.17981 40.771 -5.57707 13.4205 42.2852 -5.57707 
13.4205 40.771 -2.60236 21.0804 42.5626 -5.57707 21.0804 40.771 -2.08864 
36.0196 40.771 -5.57707 28.7403 42.3461 -5.57707 28.7403 40.771 -1.65799 
-17.2191 -44.0781 2.08284 -40.1988 -37.5881 2.08284 -32.5389 -41.0031 2.08284 
-21.253 -43.488 2.08284 -24.879 -42.9575 2.08284 -12.5727 -43.488 2.08284 
-17.2191 -43.488 7.96512 -9.55918 -43.1083 2.08284 -1.89928 -41.7757 2.08284 
5.76063 -41.021 2.08284 13.4205 -40.8642 2.08284 21.0804 -40.4946 2.08284 
28.7403 -38.6381 2.08284 36.4002 -36.396 2.08284 -42.7801 -35.8281 2.08284 
-47.8587 -32.03 2.08284 37.9191 -35.8281 2.08284 36.4002 -35.8281 6.69342 
44.0602 -33.29 2.08284 51.7201 -28.9526 2.08284 -51.7726 -28.1682 2.08284 
-55.5186 -23.4887 2.08284 52.6613 -28.1682 2.08284 51.7201 -28.1682 5.22915 
-57.5222 -20.5083 2.08284 -55.5186 -20.5083 6.75152 59.0409 -20.5083 2.08284 
59.38 -19.9213 2.08284 -61.2487 -12.8484 2.08284 62.7552 -12.8484 2.08284 
59.38 -12.8484 9.36897 -62.9464 -5.18846 2.08284 -63.1785 -2.90342 2.08284 
64.2742 -5.18846 2.08284 -63.7178 2.47144 2.08284 -63.1785 7.65113 2.08284 
-63.1785 2.47144 3.49021 64.5143 2.47144 2.08284 59.38 2.47144 9.27985 
-62.9203 10.1314 2.08284 62.861 10.1314 2.08284 59.38 10.1314 6.30891 
-60.3768 17.7913 2.08284 51.7201 17.7913 9.23925 60.0238 17.7913 2.08284 
59.38 18.8091 2.08284 59.38 17.7913 2.86588 -56.1445 25.4512 2.08284 
-55.5186 26.1673 2.08284 -55.5186 25.4512 3.39161 44.0602 32.7934 2.08284 
44.0602 25.4512 8.58256 53.9371 25.4512 2.08284 51.7201 28.5575 2.08284 
51.7201 25.4512 4.07393 -48.995 33.1111 2.08284 -47.8587 34.0125 2.08284 
-47.8587 33.1111 4.18351 -40.1988 37.6532 2.08284 -32.5389 39.5829 2.08284 
-24.879 40.142 2.08284 -17.2191 39.5827 2.08284 -9.55918 37.9693 2.08284 
-9.55918 33.1111 9.10542 -1.89928 36.9165 2.08284 -1.89928 33.1111 8.10381 
5.76063 37.2085 2.08284 5.76063 33.1111 7.51281 13.4205 37.6754 2.08284 
13.4205 33.1111 6.74227 21.0804 37.7654 2.08284 21.0804 33.1111 6.6536 
28.7403 38.1943 2.08284 28.7403 33.1111 6.17095 43.256 33.1111 2.08284 
36.4002 36.5453 2.08284 36.4002 33.1111 4.72069 -40.1988 -35.9948 9.74274 
-32.5389 -39.8562 9.74274 -24.879 -42.1879 9.74274 -17.2191 -43.2789 9.74274 
-9.55918 -42.198 9.74274 -1.89928 -41.0342 9.74274 5.76063 -40.6354 9.74274 
13.4205 -40.5354 9.74274 21.0804 -39.5814 9.74274 28.7403 -38.1957 9.74274 
-40.438 -35.8281 9.74274 -47.8587 -29.2293 9.74274 -40.1988 -35.8281 9.94483 
-32.5389 -35.8281 14.224 -24.879 -35.8281 16.9733 13.4205 -35.8281 16.5929 
21.0804 -35.8281 15.3523 35.3853 -35.8281 9.74274 28.7403 -35.8281 13.2436 
36.4002 -35.422 9.74274 44.0602 -32.0434 9.74274 -48.7766 -28.1682 9.74274 
-47.8587 -28.1682 10.6011 -40.1988 -28.1682 15.1254 49.7972 -28.1682 9.74274 
44.0602 -28.1682 14.579 51.7201 -26.4164 9.74274 -53.6375 -20.5083 9.74274 
-55.5186 -17.7528 9.74274 -47.8587 -20.5083 14.466 -40.1988 -20.5083 17.1734 
56.6571 -20.5083 9.74274 51.7201 -20.5083 14.3321 -57.8949 -12.8484 9.74274 
-55.5186 -12.8484 12.0512 -47.8587 -12.8484 15.485 59.1125 -12.8484 9.74274 
51.7201 -12.8484 15.6567 59.38 -9.64511 9.74274 -59.6335 -5.18846 9.74274 
-55.5186 -5.18846 13.6046 -47.8587 -5.18846 16.5949 -17.2191 -5.18846 17.2437 
[...]
POINT_DATA 574
SCALARS ImageScalars float
LOOKUP_TABLE default
0 0 0 0 0 0 0 0 0 
0 0 0 0 0 0 0 0 0 
0 0 0 0 0 0 0 0 0 
0 0 0 0 0 0 0 0 0 
0 0 0 0 0 0 0 0 0 
0 0 0 0 0 0 0 0 0 
0 0 0 0 0 0 0 0 0 
0 0 0 0 0 0 0 0 0 
0 0 0 0 0 0 0 0 0 
0 0 0 0 0 0 0 0 0 
0 0 0 0 0 0 0 0 0 
0 0 0 0 0 0 0 0 0 
0 0 0 0 0 0 0 0 0 
0 0 0 0 0 0 0 0 0 
0 0 0 0 0 0 0 0 0 
0 0 0 0 0 0 0 0 0 
0 0 0 0 0 0 0 0 0 
0 0 0 0 0 0 0 0 0 
0 0 0 0 0 0 0 0 0 
0 0 0 0 0 0 0 0 0 
0 0 0 0 0 0 0 0 0 
0 0 0 0 0 0 0 0 0 
0 0 0 0 0 0 0 0 0 
0 0 0 0 0 0 0 0 0 
0 0 0 0 0 0 0 0 0 
0 0 0 0 0 0 0 0 0 
0 0 0 0 0 0 0 0 0 
0 0 0 0 0 0 0 0 0 
0 0 0 0 0 0 0 0 0 
0 0 0 0 0 0 0 0 0 
0 0 0 0 0 0 0 0 0 
0 0 0 0 0 0 0 0 0 
0 0 0 0 0 0 0 0 0 
0 0 0 0 0 0 0 0 0 
0 0 0 0 0 0 0 0 0 
0 0 0 0 0 0 0 0 0 
0 0 0 0 0 0 0 0 0 
0 0 0 0 0 0 0 0 0 
0 0 0 0 0 0 0 0 0 
0 0 0 0 0 0 0 0 0 
0 0 0 0 0 0 0 0 0 
0 0 0 0 0 0 0 0 0 
0 0 0 0 0 0 0 0 0 
0 0 0 0 0 0 0 0 0 
0 0 0 0 0 0 0 0 0 
0 0 0 0 0 0 0 0 0 
0 0 0 0 0 0 0 0 0 
0 0 0 0 0 0 0 0 0 
0 0 0 0 0 0 0 0 0 
0 0 0 0 0 0 0 0 0 
0 0 0 0 0 0 0 0 0 
0 0 0 0 0 0 0 0 0 
0 0 0 0 0 0 0 0 0 
0 0 0 0 0 0 0 0 0 
0 0 0 0 0 0 0 0 0 
0 0 0 0 0 0 0 0 0 
0 0 0 0 0 0 0 0 0 
0 0 0 0 0 0 0 0 0 
0 0 0 0 0 0 0 0 0 
0 0 0 0 0 0 0 0 0 
0 0 0 0 0 0 0 0 0 
0 0 0 0 0 0 0 0 0 
0 0 0 0 0 0 0 0 0 
0 0 0 0 0 0 0 
NORMALS Normals float
0.158229 0.354051 0.921744 0.117035 0.284511 0.951502 0.0409891 0.247795 0.967945 
-0.0598945 0.295448 0.953479 -0.101121 0.345197 0.933067 -0.0482356 0.408095 0.911664 
-0.0386766 0.455962 0.889158 -0.127527 0.52569 0.841063 0.271616 0.273765 0.922647 
0.153673 0.205481 0.966521 0.107667 0.157036 0.981706 0.0615349 0.15598 0.985842 
0.0303771 0.153101 0.987743 7.87607e-05 0.174439 0.984668 -0.0291983 0.286582 0.957611 
-0.00295319 0.233087 0.972451 0.0146667 0.233318 0.97229 -0.0390509 0.283056 0.958308 
-0.175742 0.347111 0.921211 -0.29122 0.39005 0.873528 0.173107 0.172881 0.969611 
0.110211 0.10053 0.988811 0.116791 0.0418984 0.992272 0.108771 0.0724531 0.991423 
0.0609741 0.216408 0.974397 0.0811726 0.0126356 0.99662 -0.0352164 0.16034 0.986433 
-0.0919653 0.118522 0.988683 0.0162813 0.0840698 0.996327 -0.00337586 0.121254 0.992616 
-0.11002 0.17258 0.978832 -0.223879 0.273592 0.935428 -0.415544 0.309809 0.855185 
0.32711 0.13002 0.935999 0.12398 0.165959 0.978308 0.02216 0.126862 0.991673 
0.0716642 0.0307326 0.996955 0.250915 -0.0104746 0.967952 -0.0373592 0.171157 0.984535 
-0.0692399 -0.0917391 0.993373 0.0792635 0.0158329 0.996728 -0.0779729 0.0395112 0.996172 
0.0234877 -0.00624005 0.999705 0.0534237 0.0496811 0.997335 -0.0174834 0.102047 0.994626 
-0.179277 0.170514 0.968909 -0.383905 0.193357 0.902901 0.323515 0.0842869 0.942461 
0.149525 0.108817 0.982752 -0.00746522 0.161691 0.986813 -0.0241186 0.123424 0.992061 
0.237135 0.00583289 0.971459 0.0122043 -0.156891 0.98754 -0.084768 0.123796 0.98868 
0.0805182 -0.0267553 0.996394 -0.118965 -0.0984246 0.988008 0.032817 -0.0154589 0.999342 
0.103868 0.0127606 0.994509 0.0177744 0.0377967 0.999127 -0.149348 0.0669798 0.986513 
-0.365222 0.0770583 0.927726 0.347337 0.0479242 0.936515 0.179175 0.0885485 0.979824 
0.035611 0.126717 0.991299 -0.0836996 0.161467 0.983322 -0.0385815 0.0859023 0.995556 
0.0567815 -0.174846 0.982957 0.0685358 0.070235 0.995173 -0.107776 -0.0743234 0.991393 
-0.0622517 -0.0128711 0.997977 0.124342 0.0564479 0.990632 0.106039 0.00416587 0.994353 
0.0401498 -0.0132045 0.999106 -0.150162 -0.00858355 0.988624 -0.353277 -0.044633 0.934454 
0.437792 -0.0951645 0.894026 0.230117 -0.0328927 0.972607 0.0731674 -0.0134091 0.99723 
-0.0625904 0.0779349 0.994992 -0.103902 0.0703301 0.992098 -0.0131424 0.0698792 0.997469 
0.0419243 0.0133887 0.999031 -0.0136052 0.01467 0.9998 0.0123611 0.151237 0.98842 
0.0492578 0.0747233 0.995987 0.0365935 0.0353979 0.998703 0.00296567 0.030723 0.999524 
-0.203073 -0.118448 0.971973 -0.376526 -0.170864 0.910513 0.482393 -0.383523 0.787532 
0.255611 -0.273995 0.927141 0.148811 -0.177724 0.972764 0.00376441 -0.138787 0.990315 
-0.0569485 -0.0732511 0.995686 -0.00360217 -0.0349653 0.999382 0.0161329 -0.0493451 0.998652 
0.0338686 -0.0397693 0.998635 -0.00822237 0.0468862 0.998866 0.0129842 -0.0189794 0.999736 
0.0680714 -0.00599143 0.997662 -0.110567 -0.117021 0.986955 -0.305866 -0.221997 0.925831 
-0.603422 -0.370641 0.706051 0.382794 -0.55063 0.741805 0.204868 -0.4569 0.865605 
0.0554535 -0.439405 0.896576 -0.0134515 -0.39063 0.920449 -0.00927484 -0.470577 0.88231 
0.0524166 -0.459429 0.886667 0.0941584 -0.370409 0.924084 0.0389602 -0.286749 0.957213 
-0.0142087 -0.262838 0.964735 -0.0701302 -0.329732 0.941466 -0.230826 -0.469991 0.851955 
-0.428657 -0.652353 0.625051 0.152236 -0.855266 0.495322 -0.0313018 -0.805943 0.591165 
-0.221087 -0.820097 0.52779 0.287995 0.691271 0.662724 0.168135 0.387538 0.906391 
0.230008 0.605754 0.761682 0.137104 0.440896 0.887025 0.138614 0.577826 0.804303 
0.0192283 0.50959 0.860202 0.00481874 0.608972 0.793177 -0.0877686 0.519606 0.849886 
-0.105744 0.652831 0.750087 -0.119207 0.473721 0.87257 -0.13299 0.728908 0.67157 
-0.0620838 0.46474 0.883268 -0.101865 0.74947 0.654154 -0.0537195 0.500138 0.864278 
-0.114316 0.781454 0.613402 -0.129311 0.535527 0.83456 -0.202172 0.839597 0.504186 
0.54824 0.599524 0.583098 0.276781 0.29727 0.913796 0.322852 0.508327 0.798354 
0.190266 0.375314 0.907159 0.203589 0.342012 0.917377 0.230586 0.404555 0.884966 
-0.137809 0.533122 0.834739 -0.194974 0.50757 0.83926 -0.224372 0.596951 0.770264 
-0.306322 0.443119 0.842504 -0.397533 0.712374 0.578352 0.288967 0.281238 0.915097 
0.440092 0.348135 0.82772 -0.345296 0.418549 0.839993 -0.432306 0.346821 0.832362 
-0.536817 0.517096 0.666663 0.643437 0.269375 0.716537 0.262717 0.277689 0.92405 
0.292905 0.27486 0.915783 0.291886 0.305016 0.906514 -0.44467 0.313494 0.839041 
-0.729147 0.382264 0.567644 0.420725 0.119483 0.899285 0.594052 0.142379 0.791726 
-0.547497 0.184655 0.81618 -0.680881 0.161209 0.714431 0.434609 0.0863724 0.896468 
0.539879 0.0961874 0.836229 -0.629296 0.0819929 0.772828 -0.705302 0.0714762 0.705294 
0.51565 -0.0209982 0.856542 0.606335 -0.0686571 0.79224 -0.650921 0.00754565 0.759108 
-0.695307 0.00126206 0.718711 0.589674 -0.133135 0.796593 0.739619 -0.210192 0.639361 
-0.668893 -0.210606 0.7129 -0.781266 -0.24806 0.572791 0.52633 -0.400799 0.749891 
0.805371 -0.522351 0.280227 0.505713 -0.439767 0.742199 -0.626208 -0.396809 0.671123 
-0.620216 -0.431436 0.65513 0.423266 -0.569279 0.704817 0.617592 -0.713684 0.330507 
0.392419 -0.594354 0.701962 0.238432 -0.720439 0.651243 0.0794344 -0.774266 0.627856 
-0.0739134 -0.786527 0.613116 -0.0692211 -0.800161 0.595778 0.0933048 -0.85204 0.515094 
0.188696 -0.869665 0.456154 -0.285338 -0.79922 0.528989 -0.483214 -0.66881 0.564976 
-0.439335 -0.703514 0.558618 0.207886 -0.968791 0.135006 0.0603041 -0.95468 0.291462 
-0.106133 -0.964903 0.240203 0.171251 -0.884695 0.433576 0.161563 -0.87955 0.447536 
-0.020113 -0.874749 0.484159 -0.227154 -0.827564 0.51336 -0.222825 -0.827897 0.51472 
0.296056 0.735005 0.610015 0.225591 0.799448 0.556769 0.085015 0.853007 0.514928 
0.0247287 0.980599 0.194458 -0.054373 0.911422 0.407864 -0.137921 0.916484 0.375545 
-0.13131 0.893806 0.428799 -0.0990989 0.865014 0.491865 -0.120469 0.849479 0.513685 
-0.20706 0.855628 0.474371 0.558579 0.632562 0.536521 0.352931 0.716592 0.601612 
0.407961 0.679536 0.609753 0.480132 0.802286 0.354697 -0.228245 0.853083 0.469205 
-0.308792 0.82842 0.467298 -0.320806 0.931968 0.168878 -0.423264 0.763887 0.48716 
0.57478 0.617464 0.536997 -0.489249 0.724404 0.485668 -0.571984 0.661974 0.48438 
-0.609881 0.771158 0.182649 0.716797 0.461846 0.522399 0.718936 0.459571 0.521464 
0.724551 0.465509 0.508259 -0.656839 0.598391 0.458793 -0.748457 0.51909 0.412743 
0.771883 0.32756 0.544887 -0.831127 0.400152 0.386143 0.833933 0.19335 0.516887 
-0.920636 0.199083 0.335851 0.898404 0.019596 0.438732 0.991973 0.00527903 0.126343 
-0.954339 0.0127446 0.298453 0.893633 -0.167574 0.416339 -0.97379 -0.163511 0.158108 
0.862601 -0.333023 0.380808 -0.922563 -0.377709 0.0788238 -0.856077 -0.516556 0.01739 
0.813999 -0.529819 0.238111 0.807326 -0.541635 0.234214 -0.800214 -0.599707 0.00314326 
-0.635969 -0.77149 -0.0186129 0.644967 -0.729906 0.226395 0.610713 -0.76115 0.21836 
0.422253 -0.894079 0.149418 -0.165686 -0.986174 -0.00305659 0.0159696 -0.997999 -0.0611787 
0.196953 -0.972163 -0.126916 -0.30287 -0.952311 -0.0370615 -0.592217 -0.804807 -0.039556 
-0.484669 -0.871096 -0.0792946 -0.309306 -0.750675 -0.583795 0.233446 -0.968228 0.0896541 
0.200639 -0.976064 0.0839223 0.19198 -0.981294 -0.0143545 0.0465522 -0.998028 0.042097 
0.0187215 -0.976901 -0.212869 -0.148056 -0.988978 0.0015539 -0.121906 -0.992292 0.0222491 
-0.129384 -0.97292 -0.191538 0.188976 -0.971842 -0.14075 0.141776 -0.97447 -0.174094 
0.115425 -0.928577 -0.352735 0.00433723 -0.981552 -0.191145 0.0305861 -0.905869 -0.422452 
-0.293919 -0.955007 -0.0396736 -0.122349 -0.985829 -0.114769 -0.0807121 -0.91483 -0.395691 
0.00930167 0.995309 0.0962963 0.501482 0.860823 0.0866023 0.316165 0.93984 0.129382 
0.104498 0.989491 0.099944 0.189841 0.976105 0.105734 -0.0866495 0.994347 0.0613676 
0.00366032 0.97036 -0.241637 -0.147395 0.988362 0.0376105 -0.135606 0.990366 0.0280405 
-0.0590208 0.995061 0.0798097 -0.0338062 0.991544 0.125292 -0.140616 0.984179 0.107791 
-0.250051 0.962297 0.107044 -0.321953 0.943302 0.0807913 0.549659 0.831257 0.0829853 
0.654027 0.75544 0.0394873 -0.347466 0.93436 0.0789885 -0.34471 0.924756 -0.161251 
-0.452647 0.887645 0.0848418 -0.609412 0.792607 0.0197954 0.730886 0.682496 0.00245569 
0.81893 0.572207 -0.0439701 -0.640609 0.767687 0.0166508 -0.631684 0.757466 -0.164989 
0.862477 0.501895 -0.0650737 0.781199 0.488576 -0.388614 -0.819037 0.573459 0.0179703 
-0.832936 0.553364 0.00243965 0.941655 0.32985 -0.0669649 -0.946674 0.296652 -0.125721 
-0.764008 0.159302 -0.625232 0.982996 0.152114 -0.102864 0.988537 0.105128 -0.108364 
-0.97749 0.110552 -0.179698 0.994281 -0.0023035 -0.106775 0.98426 -0.135891 -0.112986 
0.983456 -0.000788175 -0.181143 -0.975886 -0.0830659 -0.201858 -0.554407 -0.186391 -0.811105 
0.973647 -0.199714 -0.110122 -0.869231 -0.288767 -0.401312 -0.679752 -0.327704 -0.656161 
0.915251 -0.3848 -0.119347 -0.419917 -0.353699 -0.835803 -0.783455 -0.412129 -0.465132 
-0.767088 -0.433807 -0.472639 -0.757339 -0.412575 -0.506182 0.776923 -0.605228 -0.173463 
0.764688 -0.619806 -0.176332 0.760322 -0.605799 -0.234345 -0.295144 -0.728049 -0.618737 
-0.300411 -0.484646 -0.821506 -0.640401 -0.542417 -0.543756 -0.554823 -0.626251 -0.547705 
-0.560254 -0.528724 -0.637626 0.592501 -0.782082 -0.193107 0.558543 -0.806284 -0.194773 
0.550796 -0.779432 -0.298511 0.352229 -0.89208 -0.283071 0.149874 -0.926042 -0.346387 
0.00230802 -0.936283 -0.35124 -0.13507 -0.894948 -0.425235 -0.157192 -0.899509 -0.407646 
-0.105455 -0.682513 -0.723226 -0.0458498 -0.908595 -0.415154 -0.0689917 -0.754141 -0.653079 
0.0416211 -0.864698 -0.500565 -0.0619979 -0.719257 -0.691972 0.0313839 -0.772942 -0.6337 
-0.0379375 -0.645673 -0.762671 0.0217999 -0.733185 -0.67968 -0.0273498 -0.634695 -0.772279 
-0.0474257 -0.747788 -0.662241 -0.100733 -0.625309 -0.773848 -0.284872 -0.727003 -0.624752 
-0.234893 -0.729943 -0.641878 -0.218261 -0.6344 -0.741551 0.515381 0.736973 -0.437325 
0.363033 0.836787 -0.409871 0.191899 0.924179 -0.330253 0.00155001 0.93726 -0.348628 
-0.132951 0.931229 -0.339319 -0.0947961 0.948098 -0.303521 -0.0308585 0.962874 -0.268181 
-0.0662001 0.956001 -0.285796 -0.150208 0.932688 -0.32792 -0.25389 0.910218 -0.327175 
0.519925 0.733131 -0.438402 0.644689 0.548297 -0.532678 0.514868 0.72929 -0.450607 
0.352488 0.623244 -0.698082 0.158895 0.471908 -0.867211 -0.0893672 0.669674 -0.737259 
-0.150346 0.705457 -0.692623 -0.337743 0.884082 -0.323001 -0.245565 0.79384 -0.556342 
-0.348582 0.878259 -0.32734 -0.474873 0.79948 -0.367868 0.657605 0.530015 -0.535388 
0.624865 0.516982 -0.58504 0.425048 0.355879 -0.832277 -0.589563 0.693869 -0.413474 
-0.43589 0.582609 -0.685979 -0.634793 0.62908 -0.448661 0.668322 0.424993 -0.610513 
0.691239 0.396617 -0.604056 0.483426 0.265435 -0.834173 0.23467 0.203869 -0.950457 
-0.758249 0.421874 -0.497072 -0.552596 0.330655 -0.765052 0.732503 0.310264 -0.60595 
0.617038 0.297396 -0.728574 0.369514 0.124692 -0.920821 -0.743984 0.145979 -0.652057 
-0.478205 0.017273 -0.878078 -0.724124 0.0858183 -0.684309 0.790891 0.116911 -0.600685 
0.564396 0.111108 -0.817993 0.268138 0.119856 -0.955896 0.0367779 -0.192148 -0.980677 
-0.408551 -0.110077 -0.906073 -0.680932 -0.00355263 -0.732338 -0.615562 -0.0894758 -0.782992 
-0.673938 -0.014472 -0.738646 0.776109 0.0087882 -0.630538 0.566779 0.0255414 -0.823474 
-0.127459 -0.0233391 -0.991569 0.182914 -0.205616 -0.961387 -0.0491987 -0.130149 -0.990273 
-0.0846778 -0.195924 -0.976956 -0.186237 -0.253579 -0.949217 -0.513545 -0.188833 -0.837026 
-0.382856 -0.201338 -0.901601 0.8119 -0.155432 -0.562724 0.602277 -0.133247 -0.787088 
-0.182473 0.0334293 -0.982642 0.11785 -0.0603114 -0.991198 0.00707887 -0.220989 -0.975251 
-0.13552 -0.136047 -0.98139 -0.173716 -0.201708 -0.963917 -0.248087 -0.236971 -0.939307 
-0.481987 -0.280197 -0.830167 -0.416584 -0.326939 -0.848274 -0.41074 -0.262316 -0.873203 
0.730335 -0.389035 -0.561482 0.697459 -0.448188 -0.559177 0.670582 -0.376947 -0.638929 
0.40742 -0.262105 -0.87482 -0.194848 -0.126226 -0.972677 -0.0749231 -0.116406 -0.990372 
-0.0197236 -0.321191 -0.946809 0.0164133 -0.233684 -0.972174 0.0745947 -0.434184 -0.897731 
-0.0544455 -0.368974 -0.927844 -0.140282 -0.32534 -0.935134 -0.188278 -0.316374 -0.929763 
-0.382422 -0.347478 -0.856162 -0.279394 -0.422231 -0.862357 -0.264581 -0.334501 -0.904492 
0.620384 -0.543752 -0.565206 0.510203 -0.623206 -0.592711 0.474849 -0.490875 -0.730453 
0.200059 -0.463404 -0.863269 0.0130163 -0.400869 -0.916043 -0.119988 -0.371781 -0.920533 
-0.153496 -0.352542 -0.923121 -0.100159 -0.637075 -0.764266 -0.0891762 -0.32031 -0.943106 
-0.0698655 -0.655644 -0.751831 -0.0451655 -0.375212 -0.925838 -0.0997056 -0.586391 -0.803868 
-0.106427 -0.379477 -0.919059 -0.0615703 -0.525425 -0.848609 -0.0669509 -0.470544 -0.879833 
-0.0246137 -0.547753 -0.836278 -0.0227188 -0.500993 -0.865153 -0.0958893 -0.519418 -0.849123 
-0.0861109 -0.480941 -0.872514 -0.187484 -0.483065 -0.855277 -0.152892 -0.496394 -0.854528 
-0.148943 -0.484872 -0.861809 0.282626 -0.744088 -0.605356 0.263146 -0.749742 -0.607159 
0.262606 -0.743766 -0.614695 0.0966213 -0.759043 -0.64383 0.0695949 -0.666647 -0.742117 
-0.0704357 -0.687816 -0.72246 -0.0905863 -0.618436 -0.780596 -0.110569 -0.652741 -0.749469 
-0.126048 -0.652346 -0.747367 -0.122346 -0.628778 -0.7679 0.0256389 0.461134 -0.88696 
-0.00103903 0.546605 -0.83739 -0.00257175 0.574934 -0.818196 -0.0352929 0.635564 -0.771241 
0.272076 0.299826 -0.914373 0.0300967 0.460266 -0.887271 0.148518 0.417175 -0.896609 
0.0258334 0.460184 -0.887447 -0.000477456 0.543882 -0.839161 -0.00254669 0.57453 -0.81848 
-0.0356794 0.635393 -0.771364 -0.0352637 0.635298 -0.771461 -0.0877785 0.581698 -0.808654 
-0.143878 0.519811 -0.842078 -0.178502 0.429737 -0.885134 -0.193029 0.442085 -0.875957 
0.297563 0.248549 -0.921781 0.252105 0.213519 -0.94385 0.115933 0.168755 -0.978816 
0.0450869 0.145393 -0.988346 0.0178302 0.123333 -0.992205 0.0279481 0.158805 -0.986914 
0.0310704 0.186413 -0.98198 -0.0636094 0.226646 -0.971898 -0.123168 0.272249 -0.954311 
-0.151524 0.339982 -0.928145 -0.19467 0.441249 -0.876016 -0.192628 0.440582 -0.876802 
-0.301051 0.202686 -0.931819 0.219499 0.177122 -0.9594 0.227118 0.174929 -0.958028 
0.150211 0.0468028 -0.987545 0.0881377 -0.0322024 -0.995588 0.00886738 -0.0518412 -0.998616 
0.0135429 -0.0963569 -0.995255 0.0670673 -0.103086 -0.992409 0.0492353 -0.0486779 -0.9976 
-0.0105298 -0.0282422 -0.999546 -0.0548757 0.0219235 -0.998253 -0.0718661 0.0976041 -0.992627 
-0.140972 0.149087 -0.978724 -0.30519 0.178497 -0.935413 -0.290454 0.168511 -0.941934 
0.260832 0.0658024 -0.963139 0.204328 0.0502167 -0.977614 0.0586245 0.0032733 -0.998275 
0.00856092 -0.112829 -0.993577 0.0333662 -0.190848 -0.981052 -0.0183481 -0.173195 -0.984717 
-0.0353018 -0.0837107 -0.995865 0.0717045 -0.157319 -0.984941 0.10947 -0.0745442 -0.991191 
0.0125228 -0.0766297 -0.996981 -0.00161889 -0.132182 -0.991224 -0.0017709 -0.0759932 -0.997107 
-0.121913 -0.0522244 -0.991166 -0.333445 0.0301593 -0.942287 -0.268281 0.0422646 -0.962413 
0.193009 0.0729311 -0.978483 0.274718 0.0837571 -0.95787 0.130935 0.0365448 -0.990717 
-0.0154234 0.00926088 -0.999838 0.00684117 -0.16398 -0.98644 -0.0871953 -0.0770152 -0.99321 
0.0375059 -0.191366 -0.980802 0.101703 -0.200337 -0.974434 0.032754 -0.165873 -0.985603 
0.0713038 0.0131669 -0.997368 0.132242 -0.113774 -0.984666 -0.0668149 -0.0456459 -0.996721 
-0.0574238 -0.16574 -0.984496 -0.040486 -0.138917 -0.989476 0.00827743 -0.190874 -0.98158 
-0.0699879 -0.2022 -0.97684 -0.0303664 -0.212626 -0.976662 -0.293738 -0.152185 -0.943694 
-0.225617 -0.203929 -0.952633 -0.248691 -0.160487 -0.955195 0.279373 0.0802617 -0.956822 
0.274666 0.0811435 -0.95811 0.0931526 0.0732119 -0.992957 -0.0607153 0.0487168 -0.996966 
-0.168152 0.0137224 -0.985666 -0.187883 0.0283169 -0.981783 0.163892 -0.0666931 -0.984221 
0.119972 0.0718809 -0.990172 0.0301964 -0.205356 -0.978221 0.0556873 -0.18721 -0.98074 
-0.0409087 -0.0615742 -0.997264 -0.105254 -0.0884766 -0.990502 -0.149468 -0.0555492 -0.987205 
0.327691 -0.0833388 -0.941102 0.330328 -0.115275 -0.9368 0.305904 -0.0776586 -0.94889 
0.0951187 -0.00194397 -0.995464 -0.0535807 0.00658906 -0.998542 -0.174421 0.0248846 -0.984357 
-0.160778 0.00860226 -0.986953 0.101023 -0.168377 -0.980532 0.0291135 -0.223645 -0.974236 
0.0423311 -0.272758 -0.961151 0.0694697 -0.220491 -0.972912 0.0240442 -0.22306 -0.974508 
0.0755785 -0.32863 -0.94143 0.0597953 -0.220121 -0.973638 -0.127488 -0.111825 -0.985516 
-0.111859 -0.152512 -0.981951 -0.12425 -0.097068 -0.987492 0.303666 -0.224043 -0.926063 
0.185014 -0.333429 -0.924443 0.170281 -0.186899 -0.967509 -0.00367378 -0.343652 -0.93909 
-0.0509985 -0.154594 -0.986661 -0.175715 -0.128104 -0.97607 -0.149251 -0.211505 -0.965914 
-0.160019 -0.128562 -0.978706 
