# vtk DataFile Version 4.2
vtk output
ASCII
DATASET POLYDATA
POINTS 538 float
-2.2312 -12.8494 -21.3212 23.6389 30.2675 -21.4799 -45.3481 -38.7195 -13.6928 
-36.7247 -38.7195 -15.0516 -28.1013 -38.7195 -15.0581 -19.478 -38.7195 -13.8864 
-10.8546 -38.7195 -12.3924 23.6389 -38.7195 -13.4394 32.2623 -38.7195 -13.072 
-45.3481 -30.0962 -15.8449 -36.7247 -30.0962 -16.5083 -28.1013 -30.0962 -16.5658 
-19.478 -30.0962 -15.1729 -10.8546 -30.0962 -13.9382 -2.2312 -30.0962 -12.9928 
6.39217 -30.0962 -13.7635 15.0155 -30.0962 -16.0541 23.6389 -30.0962 -17.4498 
32.2623 -30.0962 -17.4513 40.8857 -30.0962 -14.9745 -45.3481 -21.4728 -16.4899 
-36.7247 -21.4728 -18.6221 -28.1013 -21.4728 -17.2989 -19.478 -21.4728 -16.0663 
-10.8546 -21.4728 -14.0717 -2.2312 -13.5634 -20.9535 -2.2312 -21.4728 -15.577 
6.39217 -21.4728 -16.1016 15.0155 -21.4728 -17.9567 23.6389 -21.4728 -18.8182 
32.2623 -21.4728 -18.466 40.8857 -21.4728 -16.9448 49.5091 -21.4728 -14.2155 
-53.9715 -12.8494 -13.6599 -45.3481 -12.8494 -17.3084 -36.7247 -12.8494 -18.195 
-28.1013 -12.8494 -17.5326 -19.478 -12.8494 -16.1095 -3.27557 -12.8494 -20.9535 
-10.8546 -12.8494 -16.2467 -1.20044 -12.8494 -20.9535 -2.2312 -11.8577 -20.9535 
6.39217 -12.8494 -17.8934 15.0155 -12.8494 -18.2289 23.6389 -12.8494 -18.5941 
32.2623 -12.8494 -19.1782 40.8857 -12.8494 -18.3327 49.5091 -12.8494 -16.2803 
58.1324 -12.8494 -12.7163 -53.9715 -4.22603 -15.2465 -45.3481 -4.22603 -18.2749 
-36.7247 -4.22603 -18.8106 -28.1013 -4.22603 -18.088 -19.478 -4.22603 -16.6952 
-10.8546 -4.22603 -19.3722 -2.2312 -4.22603 -16.7607 6.39217 -4.22603 -18.2259 
15.0155 -4.22603 -18.7066 23.6389 -4.22603 -18.8236 32.2623 -4.22603 -19.2525 
40.8857 -4.22603 -19.0887 49.5091 -4.22603 -17.2775 58.1324 -4.22603 -12.8876 
-53.9715 4.39735 -15.4966 -45.3481 4.39735 -19.333 -36.7247 4.39735 -19.6785 
-28.1013 4.39735 -18.9925 -19.478 4.39735 -17.5708 -10.8546 4.39735 -19.2789 
-2.2312 4.39735 -19.739 6.39217 4.39735 -19.5951 15.0155 4.39735 -17.9392 
23.6389 4.39735 -19.3031 32.2623 4.39735 -19.8375 40.8857 4.39735 -19.0183 
49.5091 4.39735 -15.9226 -53.9715 13.0207 -15.4021 -45.3481 13.0207 -19.5622 
-36.7247 13.0207 -20.3436 -28.1013 13.0207 -20.2611 -19.478 13.0207 -19.223 
-10.8546 13.0207 -18.1646 -2.2312 13.0207 -18.2598 6.39217 13.0207 -16.8791 
15.0155 13.0207 -18.278 23.6389 13.0207 -19.6458 32.2623 13.0207 -19.536 
40.8857 13.0207 -16.892 -53.9715 21.6441 -13.4049 -45.3481 21.6441 -18.3011 
-36.7247 21.6441 -20.0443 -28.1013 21.6441 -20.4726 -19.478 21.6441 -20.2406 
-10.8546 21.6441 -19.4 -2.2312 21.6441 -18.6108 6.39217 21.6441 -18.7185 
15.0155 21.6441 -19.6055 23.6389 25.4979 -20.9535 23.6389 21.6441 -20.551 
32.2623 21.6441 -19.3549 -45.3481 30.2675 -15.6619 -36.7247 30.2675 -19.1014 
-28.1013 30.2675 -19.8381 -19.478 30.2675 -20.2679 -10.8546 30.2675 -20.3805 
-2.2312 30.2675 -20.4214 6.39217 30.2675 -20.2832 18.1241 30.2675 -20.9535 
15.0155 30.2675 -20.6658 25.2158 30.2675 -20.9535 23.6389 32.4845 -20.9535 
32.2623 30.2675 -18.5219 -36.7247 38.8908 -15.1376 -28.1013 38.8908 -18.0971 
-19.478 38.8908 -19.3305 -10.8546 38.8908 -20.2717 -2.2312 38.8908 -20.7919 
6.39217 38.8908 -20.6347 15.0155 38.8908 -20.2374 23.6389 38.8908 -19.5367 
32.2623 38.8908 -16.4525 -28.1013 47.5142 -13.4976 -19.478 47.5142 -16.4775 
-10.8546 47.5142 -18.2389 -2.2312 47.5142 -19.2019 6.39217 47.5142 -19.0171 
15.0155 47.5142 -18.3628 23.6389 47.5142 -17.1323 -2.2312 56.1376 -13.3983 
6.39217 56.1376 -13.3151 15.0155 56.1376 -12.574 -45.3481 -41.2545 -12.3301 
-45.3481 -47.3429 -5.52209 -36.7247 -44.1349 -12.3301 -36.7247 -47.3429 -10.8163 
-28.1013 -45.9227 -12.3301 -28.1013 -47.3429 -11.3475 -19.478 -42.1384 -12.3301 
-19.478 -47.3429 -9.51409 -10.8546 -38.9351 -12.3301 -10.8546 -47.3429 -8.66042 
-2.2312 -47.3429 -5.99174 6.39217 -47.3429 -4.63194 23.6389 -40.2136 -12.3301 
32.2623 -39.5779 -12.3301 -47.5582 -38.7195 -12.3301 -10.4108 -38.7195 -12.3301 
-2.2312 -33.1279 -12.3301 -2.2312 -38.7195 -10.9965 6.39217 -33.9129 -12.3301 
6.39217 -38.7195 -10.6038 17.8473 -38.7195 -12.3301 15.0155 -37.6171 -12.3301 
15.0155 -38.7195 -11.7165 36.5606 -38.7195 -12.3301 40.8857 -36.9457 -12.3301 
40.8857 -38.7195 -10.9752 -51.2138 -30.0962 -12.3301 -53.9715 -30.0962 -8.63437 
49.4838 -30.0962 -12.3301 49.5091 -30.0549 -12.3301 49.5091 -30.0962 -12.3177 
-53.0438 -21.4728 -12.3301 -53.9715 -18.6464 -12.3301 -53.9715 -21.4728 -11.3931 
53.0945 -21.4728 -12.3301 58.1324 -14.1104 -12.3301 58.1324 -21.4728 -8.90347 
-55.4597 -12.8494 -12.3301 58.5884 -12.8494 -12.3301 -57.2398 -4.22603 -12.3301 
58.7478 -4.22603 -12.3301 58.1324 -2.40503 -12.3301 -58.6383 4.39735 -12.3301 
-62.5948 4.39735 -4.22026 54.9915 4.39735 -12.3301 49.5091 10.644 -12.3301 
58.1324 4.39735 -9.06351 -58.1632 13.0207 -12.3301 47.3756 13.0207 -12.3301 
40.8857 21.5206 -12.3301 49.5091 13.0207 -9.16897 -54.9625 21.6441 -12.3301 
-53.9715 23.7006 -12.3301 40.8156 21.6441 -12.3301 40.8857 21.6441 -12.072 
-50.1091 30.2675 -12.3301 -45.3481 35.6922 -12.3301 38.7667 30.2675 -12.3301 
-41.6988 38.8908 -12.3301 -45.3481 38.8908 -5.09686 -36.7247 42.8504 -12.3301 
36.6161 38.8908 -12.3301 32.2623 46.8893 -12.3301 -29.9594 47.5142 -12.3301 
-28.1013 48.5909 -12.3301 -19.478 54.0301 -12.3301 -10.8546 55.6872 -12.3301 
31.7764 47.5142 -12.3301 23.6389 54.0037 -12.3301 32.2623 47.5142 -11.6658 
-19.478 56.1376 -6.17206 -8.26456 56.1376 -12.3301 -10.8546 56.1376 -11.5681 
-2.2312 56.9313 -12.3301 6.39217 56.8936 -12.3301 15.8753 56.1376 -12.3301 
15.0155 56.3173 -12.3301 23.6389 56.1376 -6.74203 -45.3481 -48.3903 -3.70674 
-36.7247 -52.9803 -3.70674 -28.1013 -53.5276 -3.70674 -19.478 -53.6671 -3.70674 
-19.478 -55.9663 3.60062 -10.8546 -52.1764 -3.70674 -2.2312 -49.5216 -3.70674 
6.39217 -48.1415 -3.70674 -46.5234 -47.3429 -3.70674 -45.3481 -47.3429 2.07044 
11.1544 -47.3429 -3.70674 15.0155 -46.6398 -3.70674 15.0155 -47.3429 -0.747801 
23.6389 -46.6306 -3.70674 32.2623 -45.0028 -3.70674 40.8857 -42.6281 -3.70674 
-53.398 -38.7195 -3.70674 -53.9715 -36.9607 -3.70674 47.5959 -38.7195 -3.70674 
49.5091 -37.3206 -3.70674 -55.7958 -30.0962 -3.70674 -53.9715 -30.0962 2.04088 
56.804 -30.0962 -3.70674 58.1324 -28.181 -3.70674 58.1324 -30.0962 2.14735 
-57.9711 -21.4728 -3.70674 62.1807 -21.4728 -3.70674 -60.079 -12.8494 -3.70674 
64.5874 -12.8494 -3.70674 -61.634 -4.22603 -3.70674 -62.5948 3.14235 -3.70674 
64.6561 -4.22603 -3.70674 -62.7566 4.39735 -3.70674 -62.5948 5.95983 -3.70674 
-62.5948 4.39735 -3.06421 61.364 4.39735 -3.70674 58.1324 7.96378 -3.70674 
-61.825 13.0207 -3.70674 52.3587 13.0207 -3.70674 49.5091 15.5222 -3.70674 
-58.8991 21.6441 -3.70674 -53.9715 29.3093 -3.70674 43.0675 21.6441 -3.70674 
40.8857 27.8968 -3.70674 -53.2711 30.2675 -3.70674 40.1998 30.2675 -3.70674 
-45.8081 38.8908 -3.70674 -45.3481 39.3299 -3.70674 -45.3481 38.8908 -2.48384 
-36.7247 47.0252 -3.70674 39.4005 38.8908 -3.70674 -36.0331 47.5142 -3.70674 
-28.1013 52.7153 -3.70674 35.4908 47.5142 -3.70674 32.2623 51.6262 -3.70674 
-20.6808 56.1376 -3.70674 -19.478 56.6469 -3.70674 -19.478 56.1376 -1.86486 
-10.8546 59.1464 -3.70674 -2.2312 59.7863 -3.70674 6.39217 59.9582 -3.70674 
15.0155 59.5528 -3.70674 25.2374 56.1376 -3.70674 23.6389 56.9396 -3.70674 
23.6389 56.1376 -0.415356 -19.478 -56.3045 4.91663 -36.7247 -51.873 4.91663 
-22.4865 -55.9663 4.91663 -28.1013 -55.209 4.91663 -14.1162 -55.9663 4.91663 
-19.478 -55.9663 5.96241 -10.8546 -55.7577 4.91663 -2.2312 -54.1452 4.91663 
6.39217 -51.1869 4.91663 15.0155 -48.4494 4.91663 -44.2079 -47.3429 4.91663 
-45.3481 -45.9095 4.91663 -36.7247 -47.3429 10.5557 -28.1013 -47.3429 13.1807 
22.4466 -47.3429 4.91663 15.0155 -47.3429 7.5627 23.6389 -47.1471 4.91663 
32.2623 -44.9848 4.91663 40.8857 -42.8064 4.91663 -49.3347 -38.7195 4.91663 
-45.3481 -38.7195 8.9783 48.5692 -38.7195 4.91663 40.8857 -38.7195 10.9901 
49.5091 -38.0866 4.91663 58.1324 -30.6888 4.91663 -52.6045 -30.0962 4.91663 
-53.9715 -25.5983 4.91663 -45.3481 -30.0962 10.3935 58.651 -30.0962 4.91663 
58.1324 -30.0962 5.98778 -54.8634 -21.4728 4.91663 -53.9715 -21.4728 5.99868 
-45.3481 -21.4728 12.3291 63.9365 -21.4728 4.91663 58.1324 -21.4728 13.503 
-56.273 -12.8494 4.91663 -53.9715 -12.8494 7.31547 -45.3481 -12.8494 13.289 
66.3465 -12.8494 4.91663 -58.52 -4.22603 4.91663 -53.9715 -4.22603 9.30011 
65.906 -4.22603 4.91663 -59.9231 4.39735 4.91663 -53.9715 4.39735 10.4234 
62.3007 4.39735 4.91663 58.1324 8.92922 4.91663 -58.6514 13.0207 4.91663 
-53.9715 13.0207 10.2145 53.4154 13.0207 4.91663 49.5091 16.247 4.91663 
-56.1296 21.6441 4.91663 -53.9715 24.9594 4.91663 -53.9715 21.6441 7.49282 
-45.3481 21.6441 12.0909 43.7247 21.6441 4.91663 40.8857 27.3908 4.91663 
40.8857 21.6441 12.882 -49.1682 30.2675 4.91663 -45.3481 35.0824 4.91663 
-45.3481 30.2675 8.68477 -36.7247 30.2675 13.4672 39.6097 30.2675 4.91663 
-42.1383 38.8908 4.91663 -36.7247 43.9752 4.91663 -36.7247 38.8908 9.28525 
37.9066 38.8908 4.91663 32.2623 38.8908 12.5104 -31.9399 47.5142 4.91663 
-28.1013 49.8795 4.91663 -28.1013 47.5142 7.90866 -19.478 53.7546 4.91663 
-19.478 47.5142 10.8408 -10.8546 47.5142 12.1799 -2.2312 47.5142 12.6221 
6.39217 47.5142 13.036 15.0155 47.5142 13.3424 23.6389 54.581 4.91663 
23.6389 47.5142 12.316 33.8836 47.5142 4.91663 32.2623 49.4467 4.91663 
32.2623 47.5142 7.23477 -12.108 56.1376 4.91663 -10.8546 56.4759 4.91663 
-10.8546 56.1376 5.35374 -2.2312 57.0003 4.91663 -2.2312 56.1376 6.04426 
6.39217 57.3357 4.91663 6.39217 56.1376 6.49881 19.594 56.1376 4.91663 
15.0155 57.4679 4.91663 15.0155 56.1376 6.93448 -19.478 -50.6006 13.54 
-10.8546 -50.9695 13.54 -2.2312 -50.6337 13.54 6.39217 -48.049 13.54 
-36.7247 -41.476 13.54 -26.7148 -47.3429 13.54 -28.1013 -46.3974 13.54 
-19.478 -47.3429 15.0806 -10.8546 -47.3429 16.2875 -2.2312 -47.3429 16.4779 
8.03972 -47.3429 13.54 6.39217 -47.3429 14.2475 15.0155 -43.5826 13.54 
23.6389 -41.0854 13.54 32.2623 -39.9751 13.54 -38.6616 -38.7195 13.54 
-36.7247 -38.7195 14.4899 -28.1013 -38.7195 16.0151 -19.478 -38.7195 18.1083 
[...]
POINT_DATA 538
SCALARS ImageScalars float
LOOKUP_TABLE default
0 0 0 0 0 0 0 0 0 
0 0 0 0 0 0 0 0 0 
0 0 0 0 0 0 0 0 0 
0 0 0 0 0 0 0 0 0 
0 0 0 0 0 0 0 0 0 
0 0 0 0 0 0 0 0 0 
0 0 0 0 0 0 0 0 0 
0 0 0 0 0 0 0 0 0 
0 0 0 0 0 0 0 0 0 
0 0 0 0 0 0 0 0 0 
0 0 0 0 0 0 0 0 0 
0 0 0 0 0 0 0 0 0 
0 0 0 0 0 0 0 0 0 
0 0 0 0 0 0 0 0 0 
0 0 0 0 0 0 0 0 0 
0 0 0 0 0 0 0 0 0 
0 0 0 0 0 0 0 0 0 
0 0 0 0 0 0 0 0 0 
0 0 0 0 0 0 0 0 0 
0 0 0 0 0 0 0 0 0 
0 0 0 0 0 0 0 0 0 
0 0 0 0 0 0 0 0 0 
0 0 0 0 0 0 0 0 0 
0 0 0 0 0 0 0 0 0 
0 0 0 0 0 0 0 0 0 
0 0 0 0 0 0 0 0 0 
0 0 0 0 0 0 0 0 0 
0 0 0 0 0 0 0 0 0 
0 0 0 0 0 0 0 0 0 
0 0 0 0 0 0 0 0 0 
0 0 0 0 0 0 0 0 0 
0 0 0 0 0 0 0 0 0 
0 0 0 0 0 0 0 0 0 
0 0 0 0 0 0 0 0 0 
0 0 0 0 0 0 0 0 0 
0 0 0 0 0 0 0 0 0 
0 0 0 0 0 0 0 0 0 
0 0 0 0 0 0 0 0 0 
0 0 0 0 0 0 0 0 0 
0 0 0 0 0 0 0 0 0 
0 0 0 0 0 0 0 0 0 
0 0 0 0 0 0 0 0 0 
0 0 0 0 0 0 0 0 0 
0 0 0 0 0 0 0 0 0 
0 0 0 0 0 0 0 0 0 
0 0 0 0 0 0 0 0 0 
0 0 0 0 0 0 0 0 0 
0 0 0 0 0 0 0 0 0 
0 0 0 0 0 0 0 0 0 
0 0 0 0 0 0 0 0 0 
0 0 0 0 0 0 0 0 0 
0 0 0 0 0 0 0 0 0 
0 0 0 0 0 0 0 0 0 
0 0 0 0 0 0 0 0 0 
0 0 0 0 0 0 0 0 0 
0 0 0 0 0 0 0 0 0 
0 0 0 0 0 0 0 0 0 
0 0 0 0 0 0 0 0 0 
0 0 0 0 0 0 0 0 0 
0 0 0 0 0 0 0 
NORMALS Normals float
-0.00604744 0.0910488 0.995828 -0.115893 -0.0618836 0.991332 0.349751 0.355891 0.866612 
0.0910347 0.334253 0.938077 -0.0693511 0.260063 0.963098 -0.160143 0.291907 0.942945 
-0.162962 0.240049 0.956985 0.0679038 0.562623 0.82392 -0.0964158 0.61346 0.783818 
0.307281 0.17706 0.935002 0.0342779 0.174974 0.983976 -0.0823299 0.144691 0.986046 
-0.149155 0.127983 0.980497 -0.124657 0.099191 0.987229 -0.0168993 0.227059 0.973734 
0.164561 0.305186 0.937967 0.200465 0.333508 0.921187 0.0722578 0.287124 0.955164 
-0.143697 0.294077 0.944918 -0.275337 0.280629 0.919476 0.323045 0.073598 0.943517 
0.0436969 0.0980259 0.994224 -0.143255 0.0542039 0.9882 -0.193116 0.0571454 0.97951 
-0.0439606 0.0879938 0.995151 0.0094258 0.130665 0.991382 0.12372 0.378991 0.917093 
0.131383 0.22196 0.966164 0.152581 0.113561 0.981745 0.0286636 0.0660749 0.997403 
-0.103023 0.0942216 0.990206 -0.218524 0.193019 0.956552 -0.388629 0.232289 0.891633 
0.605308 0.175101 0.776493 0.215007 0.100547 0.971423 0.00965709 0.0117845 0.999884 
-0.112233 0.0454847 0.99264 -0.0827209 0.0388841 0.995814 0.0373782 0.130499 0.990744 
0.235748 0.309907 0.921076 -0.0277035 0.0996884 0.994633 -0.0117448 0.0723866 0.997307 
-0.114072 0.120654 0.986119 0.0399067 0.0431245 0.998272 0.0551638 0.00045056 0.998477 
-0.0162142 0.0453222 0.998841 -0.166172 0.114425 0.979435 -0.317491 0.154441 0.9356 
-0.610909 0.154887 0.776402 0.541168 0.0898997 0.836095 0.169235 0.113973 0.978964 
-0.0131205 0.0857511 0.99623 -0.120914 0.0836135 0.989135 0.0313846 0.0814823 0.996181 
0.0538766 0.131027 0.989914 -0.048149 -0.0567234 0.997228 0.102465 0.101618 0.989533 
0.0305051 -0.0161746 0.999404 0.0316351 0.0410533 0.998656 0.0158529 0.0380726 0.999149 
-0.116982 0.0413869 0.992271 -0.322681 -0.0100381 0.946455 -0.640359 -0.121083 0.758472 
0.498673 0.00576246 0.866771 0.24717 0.0732742 0.966198 -0.0216734 0.0885282 0.995838 
-0.118604 0.123087 0.985283 0.0076804 0.143668 0.989596 0.122506 -0.0730147 0.989778 
0.0201655 0.055469 0.998257 -0.106611 -0.0972233 0.989536 -0.00668202 -0.0258827 0.999643 
0.107953 0.047528 0.993019 -0.0183857 0.0158477 0.999705 -0.200762 -0.100228 0.974499 
-0.477866 -0.306425 0.823254 0.54386 -0.0870416 0.83465 0.281314 -0.0559423 0.957984 
0.0362933 0.0214719 0.99911 -0.0614681 0.0863861 0.994364 -0.121914 0.151434 0.98092 
-0.052426 0.0130173 0.99854 -0.0804642 -0.0450662 0.995738 0.00538539 -0.0436032 0.999034 
0.161134 0.0961046 0.982242 0.0718039 0.072344 0.994792 -0.127821 -0.0270177 0.991429 
-0.458562 -0.333345 0.823773 0.679482 -0.312583 0.663774 0.311326 -0.210546 0.926686 
0.115197 -0.0650988 0.991207 0.0114608 -0.0239296 0.999648 -0.0633282 0.0578064 0.996317 
-0.0914717 0.128028 0.987543 -0.0405584 0.126354 0.991156 0.0583588 0.20127 0.977796 
0.101539 0.134813 0.985655 -0.0556069 0.0318602 0.997944 -0.0089731 0.103035 0.994637 
-0.354662 -0.0588653 0.93314 0.474827 -0.393715 0.787101 0.214089 -0.243161 0.946065 
0.062732 -0.125161 0.990151 0.0307297 -0.0548103 0.998024 0.00889112 0.0504525 0.998687 
-0.00560626 0.124366 0.992221 0.0134652 0.103224 0.994567 0.00288286 0.00231947 0.999993 
0.0673909 0.0372789 0.99703 -0.179279 -0.0740154 0.98101 -0.129878 -0.105441 0.985908 
-0.501841 -0.143103 0.85304 0.384428 -0.503256 0.773918 0.233311 -0.291464 0.927693 
0.1117 -0.200603 0.973284 0.0877888 -0.110035 0.990043 0.0209494 -0.0593198 0.998019 
-0.0319482 -0.0621946 0.997553 -0.0649402 -0.121209 0.990501 -0.175675 -0.223947 0.958638 
-0.565888 -0.306593 0.765357 0.404675 -0.642899 0.650322 0.210575 -0.446695 0.869552 
0.154245 -0.373554 0.914695 0.0400937 -0.305023 0.951501 -0.0465871 -0.328721 0.943277 
-0.104604 -0.34702 0.932006 -0.267131 -0.453547 0.850256 0.0589223 -0.800623 0.596264 
-0.0344751 -0.790715 0.611212 -0.130789 -0.799438 0.586338 0.417379 0.44673 0.791345 
0.62337 0.738463 0.257066 0.142075 0.466718 0.87292 0.179755 0.599843 0.779664 
-0.0727291 0.562421 0.823646 -0.075831 0.64212 0.762845 -0.144412 0.3779 0.914514 
-0.101124 0.560103 0.822228 -0.16199 0.246982 0.955384 -0.158985 0.578657 0.799925 
-0.180117 0.63563 0.750688 -0.126266 0.779904 0.613031 0.0539609 0.615632 0.786184 
-0.106896 0.649794 0.752557 0.482104 0.411539 0.773441 -0.159808 0.242822 0.956817 
-0.0482311 0.246168 0.968026 -0.0946956 0.319687 0.942779 0.105444 0.352863 0.929715 
0.0311233 0.432124 0.901277 0.122716 0.540622 0.832267 0.159233 0.501208 0.85055 
0.143512 0.538668 0.830205 -0.237092 0.628239 0.741015 -0.357534 0.558079 0.748811 
-0.388593 0.663569 0.639274 0.60933 0.216835 0.762692 0.877328 0.259043 0.403969 
-0.498488 0.412272 0.762589 -0.498669 0.411851 0.762698 -0.499364 0.412897 0.761677 
0.665328 0.144799 0.732375 0.68045 0.158533 0.715441 0.749999 0.161958 0.641304 
-0.46311 0.30168 0.833378 -0.610025 0.186105 0.770217 -0.647553 0.386504 0.656727 
0.677839 0.184166 0.71177 -0.631523 0.150976 0.760516 0.700895 0.135743 0.700229 
-0.66314 -0.125645 0.737875 -0.65533 -0.191006 0.730794 0.705773 0.0369966 0.707471 
0.99793 0.0140065 0.0627625 -0.613552 -0.403975 0.678497 -0.61461 -0.501411 0.608968 
-0.692006 -0.486472 0.533359 0.729495 -0.165474 0.663668 -0.622847 -0.524838 0.580178 
-0.803785 -0.357915 0.475212 -0.646842 -0.623868 0.438617 0.717864 -0.335432 0.610046 
0.7118 -0.375617 0.593508 -0.805327 -0.35466 0.475042 -0.81083 -0.359626 0.461762 
0.650171 -0.486049 0.583982 0.583973 -0.570504 0.577495 -0.879309 -0.189981 0.436717 
0.535642 -0.600781 0.593422 0.698232 -0.713233 0.0614106 0.462823 -0.625427 0.628201 
-0.773826 -0.343066 0.532446 -0.667705 -0.520018 0.532684 0.443422 -0.675761 0.588833 
0.432024 -0.681921 0.590203 0.300383 -0.758182 0.578731 0.124887 -0.806091 0.578464 
-0.651775 -0.532904 0.539631 -0.342568 -0.746227 0.570782 -0.683742 -0.537368 0.493693 
0.338462 -0.934348 0.111518 0.1049 -0.822759 0.558627 0.131663 -0.846694 0.515533 
0.060204 -0.838046 0.542268 -0.0351439 -0.825816 0.562843 -0.151976 -0.806464 0.571419 
-0.130337 -0.807821 0.574838 -0.386808 -0.904059 0.181815 0.615278 0.77275 0.155851 
0.281872 0.913277 0.294062 0.038433 0.894388 0.445637 -0.0615608 0.84228 0.535513 
0.0144373 0.999151 0.0385957 -0.195294 0.781954 0.591953 -0.197895 0.747195 0.634458 
-0.142367 0.814053 0.563072 0.65253 0.739503 0.165348 0.68513 0.695048 -0.217956 
-0.103746 0.866572 0.488149 -0.0711974 0.900738 0.428488 -0.136366 0.962302 0.235329 
-0.0898092 0.957654 0.273557 -0.212371 0.94678 0.241882 -0.388611 0.88838 0.244462 
0.886249 0.454864 0.0875345 0.910664 0.406034 0.0763399 -0.561379 0.775198 0.289692 
-0.605538 0.734892 0.305382 0.966445 0.256202 0.0185504 0.900932 0.236639 -0.363764 
-0.732239 0.57439 0.365926 -0.754205 0.532772 0.383835 -0.768673 0.638698 0.0347342 
0.971675 0.2336 0.0357689 -0.830326 0.390567 0.397513 0.975429 0.218988 0.0241508 
-0.896446 0.130508 0.423501 0.988212 0.150026 0.0304898 0.999032 0.0316287 0.0305679 
-0.919975 -0.177788 0.349338 0.999424 0.0128355 0.0314245 0.999205 -0.0283663 0.0280252 
0.999901 0.0132989 -0.00457324 -0.786515 -0.541528 0.296887 -0.71817 -0.64015 0.272838 
0.975453 -0.219847 0.0126187 -0.653949 -0.723665 0.22059 -0.664282 -0.722907 0.190092 
0.903145 -0.42878 0.021835 0.819989 -0.571487 -0.0319542 -0.856638 -0.500699 0.124383 
-0.963548 -0.258549 0.0687561 0.808168 -0.587423 -0.0424225 -0.981485 -0.186854 0.0420942 
0.703152 -0.710883 -0.0149173 0.698889 -0.71506 -0.0156147 0.702333 -0.707703 -0.0767173 
0.60076 -0.799053 0.0245154 -0.961211 -0.271198 0.0502507 0.59191 -0.805593 0.0257415 
0.488133 -0.872018 0.0361975 -0.848594 -0.523461 0.0766605 -0.721738 -0.688377 0.0723338 
0.355527 -0.934303 -0.0260663 0.335793 -0.941375 -0.0325117 0.334994 -0.934125 -0.123242 
0.180453 -0.983398 0.0191338 0.0460405 -0.998836 -0.0143943 -0.0153253 -0.99988 0.00207231 
-0.158559 -0.986787 0.0333255 -0.432635 -0.901432 0.0157256 -0.385067 -0.922842 0.00932968 
-0.387879 -0.908123 -0.157681 0.0253537 0.998934 -0.0385864 0.444363 0.810237 -0.382176 
0.0813673 0.992666 -0.0894078 0.201743 0.957651 -0.205437 -0.0676858 0.996442 -0.0502102 
0.0327108 0.993634 -0.107804 -0.121862 0.990791 -0.059014 -0.259806 0.965122 0.0322611 
-0.324457 0.945885 0.00543147 -0.232135 0.968277 -0.0924813 0.646944 0.633521 -0.424399 
0.683619 0.574016 -0.450744 0.375982 0.601952 -0.70448 0.210564 0.496322 -0.842216 
-0.192553 0.961911 -0.194035 -0.257972 0.928595 -0.266763 -0.188001 0.959383 -0.210331 
-0.232983 0.946831 -0.22188 -0.352598 0.900574 -0.254246 0.762751 0.36039 -0.536964 
0.653598 0.260194 -0.71071 -0.558376 0.807752 -0.189084 -0.331703 0.754882 -0.565797 
-0.580679 0.79357 -0.181821 -0.743022 0.656645 -0.129369 0.782592 0.221728 -0.58171 
0.812312 0.177294 -0.555622 0.568507 0.156992 -0.80756 -0.756878 0.641046 -0.127263 
-0.742726 0.642246 -0.189416 0.826474 0.157045 -0.540626 0.784442 0.151458 -0.601424 
0.460822 0.145193 -0.875535 -0.900063 0.423589 -0.10227 -0.628513 0.36084 -0.689033 
0.785073 0.192338 -0.588784 0.700922 0.163203 -0.694315 0.388423 0.150754 -0.909066 
-0.990778 0.100886 -0.0904519 0.809759 0.16088 -0.564276 0.652867 0.134294 -0.745473 
-0.969906 -0.225543 -0.0917226 0.838638 0.0106016 -0.544586 0.595647 0.0460862 -0.801923 
-0.817037 -0.564203 -0.118854 -0.723876 -0.682689 -0.0996966 0.815613 -0.20662 -0.540448 
0.625088 -0.13802 -0.768255 -0.663961 -0.744366 -0.0712439 -0.66169 -0.746111 -0.0740538 
0.762137 -0.387725 -0.518475 0.72253 -0.454214 -0.521191 0.671257 -0.380829 -0.635911 
0.393475 -0.277236 -0.876537 -0.803728 -0.588618 -0.0868951 -0.914695 -0.369507 -0.163699 
-0.69144 -0.549252 -0.46929 0.670382 -0.519642 -0.529679 0.648763 -0.557916 -0.517529 
0.583257 -0.437517 -0.684391 0.323313 -0.276124 -0.90511 -0.932954 -0.291921 -0.210662 
0.617852 -0.600253 -0.507893 0.563323 -0.667193 -0.487361 0.502569 -0.515585 -0.693972 
-0.882076 -0.312854 -0.352227 -0.546989 -0.35934 -0.756094 0.492148 -0.739457 -0.45934 
0.428446 -0.774322 -0.465682 0.393367 -0.69771 -0.598718 0.293115 -0.806405 -0.513609 
0.180524 -0.584014 -0.791416 0.0889474 -0.502121 -0.860211 0.0428897 -0.467988 -0.882694 
0.0359608 -0.462987 -0.885635 -0.0291233 -0.448757 -0.893179 -0.355697 -0.815657 -0.456271 
-0.245788 -0.575971 -0.779644 -0.735865 -0.556517 -0.385735 -0.672994 -0.619205 -0.404554 
-0.654872 -0.563888 -0.503163 0.180088 -0.837466 -0.515965 0.157993 -0.83873 -0.521124 
0.156495 -0.826909 -0.540121 0.0471675 -0.849172 -0.526006 0.0483008 -0.817176 -0.574361 
0.0269373 -0.858719 -0.511738 0.0373598 -0.813429 -0.580463 -0.253747 -0.855236 -0.451866 
-0.132824 -0.883095 -0.450001 -0.128245 -0.820768 -0.55668 0.14456 0.544727 -0.82606 
-0.00625787 0.659798 -0.751417 -0.152932 0.738934 -0.656192 -0.314987 0.716557 -0.622358 
0.320554 0.305942 -0.896462 0.197536 0.464977 -0.863004 0.202148 0.452723 -0.868434 
0.151344 0.388965 -0.908736 0.0808193 0.465375 -0.881416 -0.106276 0.561038 -0.82094 
-0.316847 0.704175 -0.63541 -0.312529 0.684028 -0.659114 -0.254925 0.632928 -0.731037 
-0.151496 0.656459 -0.738993 -0.192185 0.675012 -0.712336 0.377427 0.190481 -0.906237 
0.315497 0.195695 -0.928528 0.182437 0.213059 -0.959855 0.136659 0.200265 -0.970164 
0.062275 0.163497 -0.984576 0.00645562 0.197344 -0.980313 -0.125984 0.308542 -0.942831 
-0.15821 0.447164 -0.880349 -0.129404 0.563958 -0.815601 -0.23248 0.661459 -0.713039 
-0.17925 0.627804 -0.757451 -0.292586 0.629815 -0.719532 -0.422576 0.600704 -0.678664 
0.433017 0.0717798 -0.898523 0.360727 0.0499272 -0.931334 0.194333 0.0836685 -0.977361 
0.0942118 0.00432894 -0.995543 0.0840737 -0.00831872 -0.996425 0.0593479 -0.0198315 -0.99804 
-0.029514 0.0656262 -0.997408 -0.0335218 0.188666 -0.981469 -0.0379255 0.282337 -0.958565 
-0.104785 0.348933 -0.931271 -0.204269 0.423814 -0.882414 -0.455875 0.576344 -0.678237 
-0.410074 0.564906 -0.716045 0.383328 0.111242 -0.916889 0.276241 0.0564263 -0.959431 
0.149146 -0.02996 -0.988361 0.0454486 -0.0823861 -0.995564 0.0408351 -0.104155 -0.993722 
0.0850843 -0.102151 -0.991123 0.0873776 0.00829366 -0.996141 0.070335 0.0418468 -0.996645 
0.056291 0.0577803 -0.996741 -0.0517445 0.153473 -0.986797 -0.149549 0.214655 -0.965173 
-0.626174 0.360088 -0.691551 -0.298871 0.264648 -0.916863 -0.627297 0.358711 -0.691249 
0.371217 0.144465 -0.917239 0.380173 0.142553 -0.913864 0.21393 0.0483399 -0.975652 
0.0594714 -0.0456667 -0.997185 0.0168855 -0.114118 -0.993324 0.0657196 -0.0612906 -0.995954 
0.174369 0.0706036 -0.982146 0.114543 0.145742 -0.982669 0.0219816 0.0382604 -0.999026 
0.0716554 -0.0106977 -0.997372 0.062937 0.0465531 -0.996931 -0.0440166 0.136336 -0.989684 
-0.212222 0.181473 -0.960224 -0.702971 0.138846 -0.697534 -0.571055 0.131709 -0.810277 
0.429682 0.0838796 -0.899076 0.340631 0.0800074 -0.936787 0.107937 0.0374062 -0.993454 
-0.00673659 0.00423241 -0.999968 0.0171851 -0.0260187 -0.999514 0.252085 0.132815 -0.958548 
0.243508 0.133485 -0.960669 -0.0897508 0.142435 -0.985727 0.0642803 0.0917757 -0.993703 
-0.274838 -0.0321438 -0.960953 -0.718663 -0.173742 -0.673303 -0.605126 -0.149615 -0.781945 
0.391016 0.00901546 -0.92034 0.31965 -0.0190691 -0.947344 0.127609 0.0197208 -0.991628 
-0.00342433 0.0238507 -0.99971 0.122985 0.0799959 -0.989179 0.273938 0.0723101 -0.959025 
0.105868 0.0652416 -0.992238 -0.40499 -0.323756 -0.855082 -0.68653 -0.447719 -0.572908 
-0.685406 -0.452647 -0.570376 -0.682422 -0.443905 -0.58073 0.401295 -0.133737 -0.906133 
0.342103 -0.19707 -0.918765 0.310957 -0.133698 -0.940973 0.149125 -0.0805923 -0.985529 
0.0518772 -0.00369433 -0.998647 0.0990447 0.0635455 -0.993052 0.206816 -0.110538 -0.972116 
0.134319 -0.102723 -0.985599 0.0101943 -0.155826 -0.987732 0.0282033 -0.172251 -0.984649 
0.0137651 -0.128532 -0.99161 -0.109449 -0.226341 -0.967879 -0.666264 -0.548706 -0.50499 
-0.353244 -0.423429 -0.834222 -0.587055 -0.653552 -0.47774 -0.58418 -0.656987 -0.476552 
-0.572417 -0.644603 -0.506779 0.325909 -0.229828 -0.91704 0.319991 -0.271851 -0.907581 
0.25724 -0.185044 -0.948465 0.141013 -0.0533129 -0.988571 0.0542981 -0.0262101 -0.998181 
0.0724964 -0.0841318 -0.993814 0.084976 -0.189029 -0.978288 0.0357514 -0.171186 -0.98459 
0.0339465 -0.155786 -0.987207 -0.0316399 -0.193182 -0.980653 -0.665607 -0.542903 -0.512078 
-0.280686 -0.296886 -0.912729 0.319446 -0.27334 -0.907326 0.207292 -0.198221 -0.957986 
0.0711113 -0.151609 -0.985879 0.0343411 -0.113536 -0.99294 0.0444758 -0.167859 -0.984807 
0.0532426 -0.169147 -0.984152 0.0119288 -0.143298 -0.989608 -0.126172 -0.222926 -0.966636 
-0.649633 -0.367574 -0.665483 -0.516309 -0.358103 -0.777938 -0.481674 -0.347986 -0.804298 
0.26237 -0.340255 -0.902989 0.261052 -0.34146 -0.902916 0.260235 -0.339124 -0.904031 
0.130297 -0.406716 -0.904215 0.128421 -0.318098 -0.93932 0.0781674 -0.422466 -0.903002 
0.0602311 -0.280799 -0.957875 0.0426981 -0.414285 -0.909145 0.0360225 -0.277864 -0.959945 
0.0363893 -0.435126 -0.899634 0.0497793 -0.285075 -0.957212 -0.0286626 -0.439315 -0.897876 
-0.025212 -0.303592 -0.952468 -0.445953 -0.352904 -0.822548 -0.226563 -0.48635 -0.84388 
-0.223718 -0.303041 -0.926346 0.0715301 0.109769 -0.99138 0.0899411 0.0878623 -0.992064 
-0.0330667 0.091498 -0.995256 0.0820629 0.107943 -0.990764 0.0377627 0.111942 -0.992997 
0.0673985 0.104864 -0.9922 -0.0253807 0.0553846 -0.998142 0.0911542 0.0925358 -0.991528 
0.0326529 0.0581038 -0.997776 0.0926727 0.0922823 -0.991411 -0.145425 0.00896153 -0.989329 
-0.0261164 0.0451093 -0.998641 0.110504 -0.0623397 -0.991919 0.110154 -0.063038 -0.991913 
0.110545 -0.0626531 -0.991894 0.015003 -0.0601859 -0.998074 0.00497262 0.0117247 -0.999919 
0.0262245 0.00943607 -0.999612 0.0297817 0.0551587 -0.998033 -0.0629514 -0.159761 -0.985146 
0.0163166 -0.028435 -0.999462 -0.204524 -0.169019 -0.964159 -0.187646 -0.17844 -0.965892 
-0.161838 -0.137097 -0.977248 
