# vtk DataFile Version 4.2
vtk output
ASCII
DATASET POLYDATA
POINTS 524 float
21.5365 21.246 -28.7407 -30.8613 -22.4188 -21.7346 -22.1283 -22.4188 -22.0598 
-13.3954 -22.4188 -21.8052 -4.66242 -22.4188 -20.7521 4.07054 -22.4188 -20.104 
-39.5943 -13.6859 -22.0281 -30.8613 -13.6859 -23.0978 -22.1283 -13.6859 -22.8378 
-13.3954 -13.6859 -23.8862 -4.66242 -13.6859 -22.8685 4.07054 -13.6859 -20.9368 
12.8035 -13.6859 -21.3737 -48.3272 -4.9529 -21.4124 -39.5943 -4.9529 -23.083 
-30.8613 -4.9529 -23.2833 -22.1283 -4.9529 -22.4337 -13.3954 -4.9529 -22.7627 
-4.66242 -4.9529 -23.2298 4.07054 -4.9529 -23.0723 12.8035 -4.9529 -22.9361 
21.5365 -4.9529 -20.8252 30.2694 -4.9529 -20.8257 39.0024 -4.9529 -20.1056 
-48.3272 3.78005 -22.4405 -39.5943 3.78005 -23.8373 -30.8613 3.78005 -23.7575 
-22.1283 3.78005 -23.1196 -13.3954 3.78005 -23.6935 -4.66242 3.78005 -24.3267 
4.07054 3.78005 -25.1679 12.8035 3.78005 -24.5062 21.5365 3.78005 -22.9332 
30.2694 3.78005 -23.2523 39.0024 3.78005 -23.0267 47.7353 3.78005 -21.7951 
-48.3272 12.513 -20.0049 -39.5943 12.513 -21.5745 -30.8613 12.513 -21.9184 
-13.3954 12.513 -21.527 -4.66242 12.513 -25.5001 4.07054 12.513 -26.0801 
12.8035 12.513 -26.9823 21.5365 21.0262 -28.6946 21.5365 12.513 -26.7362 
30.2694 12.513 -26.7626 39.0024 12.513 -26.4696 47.7353 12.513 -23.5357 
-4.66242 21.246 -21.6077 4.07054 21.246 -25.4832 21.1413 21.246 -28.6946 
12.8035 21.246 -27.7121 22.7645 21.246 -28.6946 21.5365 21.5642 -28.6946 
30.2694 21.246 -28.4107 39.0024 21.246 -26.9906 47.7353 21.246 -24.3476 
4.07054 29.9789 -23.6014 12.8035 29.9789 -26.1701 21.5365 29.9789 -27.3509 
30.2694 29.9789 -27.4849 39.0024 29.9789 -25.6736 47.7353 29.9789 -20.9638 
-22.1283 -39.8847 -13.8071 -13.3954 -39.8847 -15.4781 -4.66242 -39.8847 -15.3027 
4.07054 -39.8847 -14.3166 12.8035 -39.8847 -11.6356 -39.5943 -31.1518 -14.7599 
-30.8613 -26.9556 -19.9616 -30.8613 -31.1518 -17.9651 -22.1283 -28.8125 -19.9616 
-22.1283 -31.1518 -19.1197 -13.3954 -28.1136 -19.9616 -13.3954 -31.1518 -19.0108 
-4.66242 -27.0085 -19.9616 -4.66242 -31.1518 -19.2577 4.07054 -23.2853 -19.9616 
4.07054 -31.1518 -18.6182 12.8035 -31.1518 -16.8515 21.5365 -31.1518 -13.5028 
-48.3272 -22.4188 -15.5346 -37.6772 -22.4188 -19.9616 -39.5943 -20.602 -19.9616 
-39.5943 -22.4188 -19.3969 5.78002 -22.4188 -19.9616 12.8035 -19.8372 -19.9616 
12.8035 -22.4188 -19.3518 21.5365 -22.4188 -17.1065 30.2694 -22.4188 -14.7733 
39.0024 -22.4188 -12.2467 -57.0602 -13.6859 -13.3353 -46.8416 -13.6859 -19.9616 
-48.3272 -11.7364 -19.9616 -48.3272 -13.6859 -19.4976 21.4227 -13.6859 -19.9616 
21.5365 -13.5036 -19.9616 21.5365 -13.6859 -19.9424 30.2694 -7.97787 -19.9616 
30.2694 -13.6859 -18.2365 39.0024 -5.36439 -19.9616 39.0024 -13.6859 -16.778 
47.7353 -13.6859 -14.1437 -51.4414 -4.9529 -19.9616 -57.0602 -4.9529 -16.6475 
39.7085 -4.9529 -19.9616 47.7353 -0.546946 -19.9616 47.7353 -4.9529 -18.2325 
56.4683 -4.9529 -14.7467 -53.8568 3.78005 -19.9616 -57.0602 3.78005 -18.2385 
-22.1283 11.6893 -19.9616 52.0175 3.78005 -19.9616 56.4683 3.78005 -17.784 
-48.432 12.513 -19.9616 -57.0602 12.513 -15.8045 -48.3272 12.5877 -19.9616 
-39.5943 14.5525 -19.9616 -23.447 12.513 -19.9616 -30.8613 14.8955 -19.9616 
-20.1111 12.513 -19.9616 -22.1283 12.513 -19.3157 -13.3954 14.16 -19.9616 
55.6302 12.513 -19.9616 56.4683 12.513 -19.5103 -48.3272 21.246 -12.967 
-39.5943 21.246 -14.0062 -30.8613 21.246 -12.4267 -22.1283 21.246 -11.9772 
-6.64328 21.246 -19.9616 -13.3954 21.246 -13.1237 -4.66242 28.4896 -19.9616 
55.4892 21.246 -19.9616 56.4683 21.246 -19.0887 -13.3954 29.9789 -14.3932 
-3.9342 29.9789 -19.9616 -4.66242 29.9789 -19.6411 4.07054 35.7929 -19.9616 
12.8035 37.6372 -19.9616 21.5365 38.3262 -19.9616 30.2694 37.5392 -19.9616 
39.0024 34.9535 -19.9616 49.0184 29.9789 -19.9616 47.7353 30.9696 -19.9616 
-13.3954 38.7119 -12.7919 -4.66242 38.7119 -15.1713 4.07054 38.7119 -15.8299 
12.8035 38.7119 -15.9368 21.5365 38.7119 -15.5834 -22.1283 -42.6115 -11.2286 
-13.3954 -44.6071 -11.2286 -4.66242 -44.4805 -11.2286 4.07054 -43.0868 -11.2286 
12.8035 -40.3424 -11.2286 -39.5943 -35.0852 -11.2286 -29.6355 -39.8847 -11.2286 
-30.8613 -39.3944 -11.2286 -30.8613 -39.8847 -10.343 13.8057 -39.8847 -11.2286 
21.5365 -34.9958 -11.2286 21.5365 -39.8847 -7.78584 30.2694 -39.8847 -3.48909 
-45.1591 -31.1518 -11.2286 -48.3272 -28.3716 -11.2286 -48.3272 -31.1518 -6.06654 
27.5646 -31.1518 -11.2286 30.2694 -29.2507 -11.2286 30.2694 -31.1518 -10.1013 
39.0024 -24.2482 -11.2286 39.0024 -31.1518 -6.76223 -53.1035 -22.4188 -11.2286 
-57.0602 -16.6822 -11.2286 42.0735 -22.4188 -11.2286 47.7353 -19.1079 -11.2286 
47.7353 -22.4188 -8.83116 -58.8076 -13.6859 -11.2286 53.8044 -13.6859 -11.2286 
56.4683 -11.0321 -11.2286 56.4683 -13.6859 -9.55632 -61.8608 -4.9529 -11.2286 
60.4293 -4.9529 -11.2286 65.2012 -4.9529 -4.839 -63.7606 3.78005 -11.2286 
-65.7931 3.78005 -3.95882 63.2433 3.78005 -11.2286 65.2012 3.78005 -7.89041 
-61.7655 12.513 -11.2286 -57.0602 18.789 -11.2286 64.5989 12.513 -11.2286 
65.2012 12.513 -8.94458 -52.2418 21.246 -11.2286 -57.0602 21.246 -8.49798 
-48.3272 22.6219 -11.2286 -39.5943 24.1273 -11.2286 -30.8613 22.8297 -11.2286 
-22.1283 24.0287 -11.2286 62.3208 21.246 -11.2286 56.4683 27.9058 -11.2286 
-39.5943 29.9789 -5.55604 -30.8613 29.9789 -7.14645 -18.8837 29.9789 -11.2286 
-22.1283 29.9789 -9.49987 30.2694 38.6847 -11.2286 39.0024 36.2885 -11.2286 
53.4194 29.9789 -11.2286 47.7353 32.7965 -11.2286 -15.7765 38.7119 -11.2286 
-22.1283 38.7119 -7.0614 -13.3954 40.3522 -11.2286 -4.66242 41.5804 -11.2286 
4.07054 40.4693 -11.2286 12.8035 39.5959 -11.2286 12.8035 38.7119 -7.10408 
29.65 38.7119 -11.2286 21.5365 39.0222 -11.2286 21.5365 38.7119 -10.1769 
-30.8613 -43.2113 -2.49568 -22.1283 -46.5963 -2.49568 -13.3954 -48.3605 -2.49568 
-4.66242 -48.4516 -2.49568 4.07054 -47.8156 -2.49568 12.8035 -46.7841 -2.49568 
21.5365 -44.2932 -2.49568 30.2694 -40.7673 -2.49568 -48.3272 -32.4165 -2.49568 
-37.6173 -39.8847 -2.49568 -39.5943 -38.8129 -2.49568 31.5767 -39.8847 -2.49568 
39.0024 -35.1309 -2.49568 -49.6795 -31.1518 -2.49568 -48.3272 -31.1518 3.89354 
44.7834 -31.1518 -2.49568 47.7353 -28.757 -2.49568 47.7353 -31.1518 2.00261 
-56.8058 -22.4188 -2.49568 -57.0602 -21.9742 -2.49568 55.1405 -22.4188 -2.49568 
56.4683 -21.2395 -2.49568 56.4683 -22.4188 -0.174747 -61.572 -13.6859 -2.49568 
61.9854 -13.6859 -2.49568 65.2012 -7.49785 -2.49568 -64.2416 -4.9529 -2.49568 
-65.7931 2.18053 -2.49568 66.3724 -4.9529 -2.49568 -66.1335 3.78005 -2.49568 
-65.7931 7.8332 -2.49568 -65.7931 3.78005 0.606017 67.4836 3.78005 -2.49568 
-65.3516 12.513 -2.49568 66.6161 12.513 -2.49568 65.2012 16.0328 -2.49568 
65.2012 12.513 4.4639 -60.3551 21.246 -2.49568 -57.0602 24.4852 -2.49568 
-48.3272 29.8363 -2.49568 62.3504 21.246 -2.49568 56.4683 27.0967 -2.49568 
-47.9483 29.9789 -2.49568 -48.3272 29.9789 -2.19808 -39.5943 33.1825 -2.49568 
-30.8613 37.8241 -2.49568 12.8035 37.6833 -2.49568 21.5365 36.3062 -2.49568 
30.2694 35.0949 -2.49568 39.0024 33.9112 -2.49568 39.0024 29.9789 4.79343 
50.1693 29.9789 -2.49568 47.7353 30.864 -2.49568 47.7353 29.9789 -0.604908 
-29.9243 38.7119 -2.49568 -30.8613 38.7119 -1.43508 -22.1283 42.9665 -2.49568 
-13.3954 44.0114 -2.49568 -4.66242 41.7136 -2.49568 6.44981 38.7119 -2.49568 
4.07054 39.1168 -2.49568 4.07054 38.7119 -0.786708 -30.8613 -41.2408 6.23728 
-22.1283 -44.99 6.23728 -13.3954 -47.2436 6.23728 -4.66242 -47.927 6.23728 
4.07054 -48.1719 6.23728 12.8035 -48.2785 6.23728 21.5365 -46.2615 6.23728 
30.2694 -43.2585 6.23728 -33.5156 -39.8847 6.23728 -39.5943 -36.6492 6.23728 
-30.8613 -39.8847 8.24685 -22.1283 -39.8847 13.3197 36.5644 -39.8847 6.23728 
30.2694 -39.8847 13.7173 39.0024 -38.5029 6.23728 47.7353 -32.9851 6.23728 
-47.6215 -31.1518 6.23728 -48.3272 -30.5637 6.23728 -39.5943 -31.1518 13.7144 
50.1586 -31.1518 6.23728 47.7353 -31.1518 10.8537 56.4683 -25.462 6.23728 
-55.6909 -22.4188 6.23728 -57.0602 -20.0281 6.23728 59.3918 -22.4188 6.23728 
56.4683 -22.4188 12.6706 -60.1969 -13.6859 6.23728 -57.0602 -13.6859 11.7669 
64.0176 -13.6859 6.23728 65.2012 -10.1391 6.23728 -62.9533 -4.9529 6.23728 
66.9108 -4.9529 6.23728 65.2012 -4.9529 9.88972 -65.0867 3.78005 6.23728 
67.587 3.78005 6.23728 65.2012 11.412 6.23728 65.2012 3.78005 9.96526 
-64.4593 12.513 6.23728 64.7129 12.513 6.23728 56.4683 12.513 14.2415 
-60.7319 21.246 6.23728 -57.0602 26.1022 6.23728 -57.0602 21.246 13.2374 
39.0024 29.1014 6.23728 47.7353 26.6384 6.23728 47.7353 21.246 12.6911 
58.0508 21.246 6.23728 56.4683 22.3546 6.23728 56.4683 21.246 7.53687 
-53.1889 29.9789 6.23728 -48.3272 33.623 6.23728 -39.5943 38.4767 6.23728 
4.07054 37.1584 6.23728 12.8035 35.3386 6.23728 12.8035 29.9789 14.9601 
21.5365 32.478 6.23728 21.5365 29.9789 9.90751 32.5984 29.9789 6.23728 
30.2694 30.2849 6.23728 30.2694 29.9789 6.67557 -39.1165 38.7119 6.23728 
-30.8613 42.2809 6.23728 -22.1283 43.9048 6.23728 -13.3954 42.713 6.23728 
-1.67634 38.7119 6.23728 -4.66242 39.7152 6.23728 -4.66242 38.7119 9.13951 
-13.3954 -41.1691 14.9702 -4.66242 -42.4544 14.9702 4.07054 -42.9584 14.9702 
12.8035 -42.9986 14.9702 21.5365 -41.1398 14.9702 -30.8613 -34.2534 14.9702 
-17.5099 -39.8847 14.9702 -22.1283 -37.9795 14.9702 -13.3954 -39.8847 16.1212 
-4.66242 -39.8847 17.2651 4.07054 -39.8847 17.6405 12.8035 -39.8847 17.4098 
27.1294 -39.8847 14.9702 21.5365 -39.8847 16.0588 30.2694 -38.9818 14.9702 
39.0024 -34.2579 14.9702 -48.3272 -23.281 14.9702 -37.3079 -31.1518 14.9702 
-39.5943 -29.8937 14.9702 -30.8613 -31.1518 17.3795 -22.1283 -31.1518 19.3978 
-13.3954 -31.1518 20.9692 -4.66242 -31.1518 21.58 4.07054 -31.1518 21.5544 
12.8035 -31.1518 21.4146 21.5365 -31.1518 20.6822 30.2694 -31.1518 19.8022 
44.4842 -31.1518 14.9702 39.0024 -31.1518 17.9532 47.7353 -28.9083 14.9702 
-49.0966 -22.4188 14.9702 -48.3272 -22.4188 15.6394 -39.5943 -22.4188 19.8881 
-30.8613 -22.4188 21.6332 -22.1283 -22.4188 22.5803 -13.3954 -22.4188 23.3174 
4.07054 -22.4188 23.6018 12.8035 -22.4188 23.549 21.5365 -22.4188 23.2028 
[...]
POINT_DATA 524
SCALARS ImageScalars float
LOOKUP_TABLE default
0 0 0 0 0 0 0 0 0 
0 0 0 0 0 0 0 0 0 
0 0 0 0 0 0 0 0 0 
0 0 0 0 0 0 0 0 0 
0 0 0 0 0 0 0 0 0 
0 0 0 0 0 0 0 0 0 
0 0 0 0 0 0 0 0 0 
0 0 0 0 0 0 0 0 0 
0 0 0 0 0 0 0 0 0 
0 0 0 0 0 0 0 0 0 
0 0 0 0 0 0 0 0 0 
0 0 0 0 0 0 0 0 0 
0 0 0 0 0 0 0 0 0 
0 0 0 0 0 0 0 0 0 
0 0 0 0 0 0 0 0 0 
0 0 0 0 0 0 0 0 0 
0 0 0 0 0 0 0 0 0 
0 0 0 0 0 0 0 0 0 
0 0 0 0 0 0 0 0 0 
0 0 0 0 0 0 0 0 0 
0 0 0 0 0 0 0 0 0 
0 0 0 0 0 0 0 0 0 
0 0 0 0 0 0 0 0 0 
0 0 0 0 0 0 0 0 0 
0 0 0 0 0 0 0 0 0 
0 0 0 0 0 0 0 0 0 
0 0 0 0 0 0 0 0 0 
0 0 0 0 0 0 0 0 0 
0 0 0 0 0 0 0 0 0 
0 0 0 0 0 0 0 0 0 
0 0 0 0 0 0 0 0 0 
0 0 0 0 0 0 0 0 0 
0 0 0 0 0 0 0 0 0 
0 0 0 0 0 0 0 0 0 
0 0 0 0 0 0 0 0 0 
0 0 0 0 0 0 0 0 0 
0 0 0 0 0 0 0 0 0 
0 0 0 0 0 0 0 0 0 
0 0 0 0 0 0 0 0 0 
0 0 0 0 0 0 0 0 0 
0 0 0 0 0 0 0 0 0 
0 0 0 0 0 0 0 0 0 
0 0 0 0 0 0 0 0 0 
0 0 0 0 0 0 0 0 0 
0 0 0 0 0 0 0 0 0 
0 0 0 0 0 0 0 0 0 
0 0 0 0 0 0 0 0 0 
0 0 0 0 0 0 0 0 0 
0 0 0 0 0 0 0 0 0 
0 0 0 0 0 0 0 0 0 
0 0 0 0 0 0 0 0 0 
0 0 0 0 0 0 0 0 0 
0 0 0 0 0 0 0 0 0 
0 0 0 0 0 0 0 0 0 
0 0 0 0 0 0 0 0 0 
0 0 0 0 0 0 0 0 0 
0 0 0 0 0 0 0 0 0 
0 0 0 0 0 0 0 0 0 
0 0 
NORMALS Normals float
0.0395202 0.0325785 0.998688 0.138387 0.259413 0.9558 0.00529047 0.204072 0.978942 
-0.0738231 0.27426 0.958818 -0.0921338 0.195054 0.976455 -0.0755138 0.126028 0.989148 
0.199123 0.199607 0.959431 0.0424399 0.0907427 0.99497 0.0454081 0.0204003 0.99876 
0.00627918 0.050881 0.998685 -0.175403 0.143918 0.973921 -0.0772592 0.159966 0.984095 
-0.0541434 0.195579 0.979192 0.302739 0.158016 0.939883 0.101514 0.0985329 0.989942 
-0.0372966 0.0371176 0.998615 -0.0312319 0.0160427 0.999383 0.0472237 -0.0144596 0.99878 
0.0167456 0.0789328 0.996739 -0.0168284 0.24501 0.969375 -0.128694 0.174568 0.976199 
-0.114025 0.161135 0.980323 -0.0387706 0.263065 0.963999 -0.138768 0.316986 0.938224 
0.27358 -0.0571754 0.960148 0.0719471 -0.075922 0.994515 -0.0410904 -0.0723647 0.996531 
-0.00530861 -0.115099 0.99334 0.0725997 -0.0404033 0.996542 0.0845063 0.127927 0.988177 
0.00946909 0.166927 0.985924 -0.125737 0.229852 0.965069 -0.0684608 0.319895 0.944976 
0.00574371 0.338883 0.940811 -0.0712523 0.327279 0.942237 -0.246627 0.297915 0.922183 
0.267155 -0.394095 0.879385 0.0961603 -0.483885 0.869832 -0.0881934 -0.498443 0.862425 
0.371037 -0.565673 0.736441 0.218662 -0.141468 0.965491 0.080258 0.0188988 0.996595 
0.0389631 0.175974 0.983623 0.0382446 0.0395264 0.998486 -0.012229 0.321724 0.946755 
-0.0125869 0.274441 0.961522 -0.183323 0.217811 0.958619 -0.330323 0.123665 0.935732 
0.54324 -0.299862 0.784202 0.313451 -0.126806 0.9411 0.0456879 0.0295919 0.998517 
0.178057 -0.0358543 0.983367 0.020418 0.0348143 0.999185 0.0406376 0.0194622 0.998984 
-0.0976203 0.0472401 0.994102 -0.233082 -0.0350595 0.971825 -0.377282 -0.104172 0.920221 
0.323857 -0.353131 0.877733 0.20037 -0.389659 0.898898 0.0698863 -0.381726 0.921629 
-0.0819864 -0.388412 0.917831 -0.313179 -0.466315 0.827326 -0.555564 -0.603864 0.571574 
0.211166 0.651814 0.728387 0.070242 0.552303 0.830679 -0.0556951 0.573172 0.81754 
-0.175845 0.611411 0.771527 -0.285772 0.617508 0.732815 0.398133 0.58863 0.703565 
0.163136 0.375284 0.912441 0.197975 0.501787 0.84203 0.0299329 0.346262 0.93766 
0.0485998 0.402278 0.914227 -0.0236088 0.301652 0.953126 0.00833063 0.31904 0.947705 
-0.0530236 0.229599 0.97184 -0.0209706 0.269556 0.962756 -0.0797109 0.140193 0.98691 
-0.125803 0.285544 0.950073 -0.261781 0.373377 0.889978 -0.32709 0.426617 0.843214 
0.528496 0.463105 0.711495 0.25804 0.316136 0.912948 0.271955 0.305737 0.91245 
0.294929 0.335766 0.894583 -0.0912666 0.147713 0.98481 -0.127006 0.224331 0.966201 
-0.16092 0.240014 0.957339 -0.243176 0.334875 0.910343 -0.239466 0.408784 0.880654 
-0.272584 0.46795 0.840667 0.728559 0.394014 0.560316 0.330063 0.255205 0.908806 
0.346017 0.239457 0.907156 0.363782 0.270251 0.891418 -0.172658 0.197631 0.964951 
-0.172866 0.196861 0.965071 -0.174222 0.197743 0.964647 -0.0807242 0.27925 0.956819 
-0.164191 0.317202 0.934036 -0.142364 0.319455 0.936846 -0.211863 0.391167 0.895602 
-0.332738 0.439735 0.834218 0.402581 0.164415 0.900498 0.650137 0.207544 0.730923 
-0.146542 0.321689 0.935437 -0.244544 0.339562 0.908238 -0.244204 0.379063 0.892567 
-0.524413 0.37347 0.765187 0.453866 -0.0443519 0.889966 0.591531 -0.0303351 0.805711 
-0.0459637 -0.658017 0.751599 -0.40866 0.264357 0.873563 -0.575822 0.224584 0.786124 
0.270247 -0.394341 0.878329 0.557428 -0.403609 0.725516 0.26668 -0.397141 0.878157 
0.0718978 -0.564381 0.822377 -0.0586464 -0.678461 0.732292 -0.124754 -0.585668 0.800893 
0.0439784 -0.696496 0.716211 -0.0598976 -0.699733 0.711889 0.438675 -0.564381 0.699313 
-0.521812 0.0728119 0.849947 -0.554813 0.0618079 0.829676 0.193707 -0.731768 0.653447 
-0.0245857 -0.675276 0.737155 -0.098903 -0.642222 0.760111 0.0289306 -0.34357 0.938681 
0.574663 -0.317122 0.754451 0.458298 -0.159209 0.874423 0.461742 -0.272405 0.84415 
-0.596788 -0.249318 0.762682 -0.647046 -0.290452 0.70496 0.513632 -0.0267234 0.857595 
0.429654 -0.275907 0.85981 0.441266 -0.266599 0.85686 0.226443 -0.64436 0.730427 
0.0981654 -0.858079 0.504047 -0.0111091 -0.928354 0.37153 -0.172241 -0.917134 0.35944 
-0.327465 -0.844995 0.422789 -0.578173 -0.620148 0.530219 -0.550692 -0.660281 0.510655 
0.403846 -0.502058 0.764752 0.149737 -0.755759 0.637501 0.0300314 -0.91995 0.390884 
0.000959037 -0.970887 0.239537 -0.0350087 -0.991956 0.121648 0.236972 0.748689 0.61912 
0.0852914 0.778311 0.622059 -0.0702472 0.77904 0.623027 -0.177323 0.739524 0.649354 
-0.283608 0.632758 0.720544 0.444872 0.71225 0.542945 0.304195 0.753915 0.582304 
0.313095 0.754393 0.576943 0.330324 0.786341 0.522066 -0.289042 0.618466 0.730722 
-0.321624 0.504771 0.801102 -0.317275 0.663609 0.677465 -0.458134 0.70905 0.536061 
0.544193 0.652985 0.526749 0.600643 0.610929 0.515746 0.658209 0.715203 0.235044 
-0.309325 0.465193 0.829405 -0.289451 0.464559 0.836901 -0.30875 0.493024 0.813388 
-0.291847 0.487459 0.822927 -0.399976 0.622681 0.672523 0.683544 0.517386 0.514859 
0.757662 0.447022 0.47552 -0.315562 0.500175 0.806378 -0.369212 0.514311 0.774058 
-0.418886 0.573874 0.703707 0.785871 0.402323 0.469621 -0.478797 0.460517 0.747448 
-0.547984 0.435731 0.714039 -0.565995 0.469516 0.677647 0.850458 0.238269 0.468987 
-0.66141 0.352104 0.662239 -0.870031 0.313812 0.38022 0.879668 0.0152451 0.475345 
0.990843 0.0600457 0.120934 -0.781599 0.174763 0.5988 -0.893578 0.102616 0.437021 
0.751621 -0.382924 0.537062 0.529174 -0.590121 0.609698 -0.896101 -0.0438087 0.441682 
-0.941304 -0.100968 0.322106 0.335323 -0.707418 0.622188 0.5501 -0.672873 0.494603 
0.201807 -0.743448 0.63762 0.0262117 -0.666999 0.744597 -0.0410843 -0.605531 0.79476 
0.137389 -0.308023 0.941406 -0.864888 -0.450432 0.221539 -0.657143 -0.73562 0.164399 
0.193614 -0.701844 0.685513 0.194324 -0.479474 0.85577 0.432541 -0.157935 0.887674 
0.368563 -0.259104 0.892763 -0.151551 -0.979145 -0.135302 -0.295175 -0.95372 -0.0573669 
-0.539977 -0.83763 0.082463 -0.416386 -0.908918 -0.0221533 0.429166 -0.495692 0.755054 
0.450353 -0.533304 0.716079 0.369278 -0.615865 0.695948 -0.00870082 -0.933828 0.357617 
-0.109644 -0.988731 0.101928 -0.0820654 -0.996532 -0.0137193 -0.11571 -0.986317 -0.117433 
-0.144751 -0.98036 -0.133942 -0.0547195 -0.992168 -0.112286 -0.063583 -0.988022 -0.140603 
0.412897 0.907723 0.0745275 0.276029 0.956898 0.0902994 0.101191 0.989597 0.102266 
-0.0294239 0.989634 0.140567 -0.0883713 0.968931 0.231004 -0.184623 0.917911 0.351219 
-0.289053 0.847572 0.445051 -0.457381 0.743945 0.487184 0.664737 0.744432 0.0628173 
0.494047 0.868109 0.0480021 0.519912 0.853036 0.0449574 -0.463183 0.733214 0.497854 
-0.446575 0.727159 0.521355 0.691068 0.719762 0.0660855 0.64433 0.731149 -0.22419 
-0.522232 0.666563 0.531947 -0.54523 0.647135 0.532861 -0.594775 0.760525 0.260469 
0.837956 0.537237 0.0959517 0.842701 0.530084 0.0941548 -0.602838 0.638194 0.478848 
-0.631047 0.62057 0.46548 -0.665709 0.660536 0.347166 0.912464 0.404407 0.0621688 
-0.771353 0.479181 0.418808 -0.882287 0.351264 0.313342 0.971022 0.233847 0.0493079 
0.993962 0.0928402 0.0584889 -0.919356 0.278807 0.277581 0.996194 0.0637328 0.059463 
0.992628 -0.0963269 0.0735629 0.99606 0.0685637 -0.0562496 -0.979281 0.0146687 0.201975 
0.953464 -0.286932 0.0926106 -0.971351 -0.237469 0.00927868 -0.924356 -0.380357 -0.0299002 
-0.88533 -0.339321 -0.317886 0.737186 -0.636376 0.227117 0.616793 -0.736029 0.278975 
0.40365 -0.773507 0.488623 -0.776582 -0.616842 -0.128166 -0.584301 -0.776644 -0.235407 
0.3978 -0.77166 0.496282 0.41145 -0.777558 0.475513 0.290814 -0.737759 0.609212 
0.451002 -0.612945 0.648765 -0.154225 -0.959002 -0.237759 -0.141872 -0.92903 -0.341726 
-0.125493 -0.905062 -0.406343 -0.218797 -0.911154 -0.34918 -0.189625 -0.826451 -0.530114 
-0.374039 -0.882216 -0.285989 -0.310677 -0.902588 -0.298019 -0.304519 -0.893535 -0.329945 
0.468039 -0.630364 0.619339 0.466412 -0.676647 0.569745 0.291871 -0.844682 0.448691 
-0.0826688 -0.991184 0.103543 -0.265657 -0.960526 -0.0825559 -0.207578 -0.957193 -0.201725 
-0.227346 -0.955416 -0.188396 -0.227073 -0.953566 -0.197862 0.410172 0.83119 -0.375342 
0.303124 0.878126 -0.370149 0.154632 0.933452 -0.323659 0.0508514 0.963105 -0.264277 
0.0196158 0.97865 -0.204597 -0.106609 0.985794 -0.129787 -0.26901 0.955965 -0.117326 
-0.409745 0.908178 -0.0855655 0.431993 0.82027 -0.374884 0.478498 0.799333 -0.363464 
0.397998 0.797143 -0.454048 0.286545 0.693038 -0.661506 -0.479526 0.876897 -0.033269 
-0.321175 0.76774 -0.554456 -0.502118 0.864444 -0.0247818 -0.579857 0.814711 0.00335599 
0.608826 0.719916 -0.333245 0.624181 0.70819 -0.329947 0.398117 0.657093 -0.640103 
-0.608442 0.793309 0.0214062 -0.555941 0.780096 -0.287018 -0.715765 0.698195 0.0142744 
0.792348 0.530207 -0.301772 0.826439 0.478412 -0.296851 -0.787428 0.61621 0.0155519 
-0.676437 0.590204 -0.44056 0.879682 0.366449 -0.303108 0.789981 0.355626 -0.49946 
-0.938047 0.343059 -0.0487614 -0.954538 0.279329 -0.104083 0.922769 0.241119 -0.300598 
-0.962089 0.195489 -0.190183 -0.916256 0.128478 -0.379432 0.955498 0.0764609 -0.284916 
-0.952106 -0.107204 -0.286358 -0.861095 -0.327811 -0.388658 -0.868523 -0.142217 -0.474808 
0.942626 -0.214056 -0.256194 -0.834769 -0.367495 -0.410011 -0.498809 -0.459824 -0.734678 
0.844277 -0.503498 -0.183537 0.754505 -0.648356 -0.101769 0.733103 -0.459534 -0.501386 
-0.178706 -0.807589 -0.562018 -0.289381 -0.808446 -0.512517 -0.30465 -0.61937 -0.72358 
-0.541143 -0.673307 -0.503808 -0.494356 -0.693392 -0.524232 -0.489814 -0.676159 -0.550356 
0.641471 -0.767128 0.00546293 0.535041 -0.843981 0.037785 0.452784 -0.880916 0.137743 
-0.226204 -0.941604 -0.249427 -0.245319 -0.903765 -0.350753 -0.36901 -0.579758 -0.726438 
-0.259346 -0.835418 -0.484579 -0.277605 -0.753658 -0.595765 -0.168399 -0.816911 -0.551632 
-0.162469 -0.820833 -0.547574 -0.164253 -0.815719 -0.554639 0.44441 -0.885523 0.135454 
0.30032 -0.952897 0.0423657 0.0211126 -0.990774 -0.133868 -0.202556 -0.946005 -0.253074 
-0.285804 -0.922999 -0.257661 -0.322181 -0.908255 -0.266969 -0.295508 -0.899714 -0.321232 
0.169923 0.661382 -0.730548 0.0778747 0.693244 -0.716484 0.0237409 0.700925 -0.712839 
-0.0802662 0.670634 -0.737433 -0.167285 0.668347 -0.724795 0.286529 0.617395 -0.732615 
0.217353 0.646367 -0.731415 0.258589 0.621961 -0.739119 0.164425 0.620935 -0.766423 
0.0734719 0.60061 -0.796159 0.00635109 0.576001 -0.817424 -0.0793225 0.554976 -0.828076 
-0.24429 0.697768 -0.673381 -0.150198 0.622414 -0.768142 -0.284125 0.704082 -0.6508 
-0.377325 0.702157 -0.603823 0.552548 0.515508 -0.654937 0.350001 0.620093 -0.702128 
0.373782 0.614206 -0.695009 0.248976 0.547028 -0.799231 0.185015 0.433122 -0.882142 
0.109597 0.358253 -0.927169 0.0313273 0.323623 -0.945667 -0.00881029 0.304133 -0.952589 
-0.0474351 0.318926 -0.946592 -0.0851411 0.362031 -0.92827 -0.130297 0.433192 -0.891834 
-0.432397 0.686344 -0.584777 -0.308324 0.613813 -0.726753 -0.484116 0.645687 -0.590526 
0.570379 0.499427 -0.652105 0.545535 0.497809 -0.674224 0.279164 0.440051 -0.853477 
0.141226 0.359492 -0.922399 0.0922458 0.267073 -0.959251 0.0621531 0.210366 -0.975645 
-0.00888853 0.163391 -0.986521 -0.0221865 0.194421 -0.980667 -0.0349585 0.203717 -0.978405 
-0.0585828 0.231639 -0.971036 -0.147411 0.264609 -0.953022 -0.594619 0.526438 -0.607693 
-0.397047 0.409138 -0.821559 -0.620227 0.471775 -0.626696 0.686552 0.342391 -0.641416 
0.729836 0.247435 -0.637272 0.468436 0.301083 -0.830613 0.201196 0.259 -0.94469 
-0.116879 0.0710249 -0.990603 -0.28424 0.122796 -0.950857 -0.72556 0.24598 -0.642695 
-0.559515 0.232198 -0.79563 0.737156 0.214212 -0.64087 0.71723 0.208065 -0.665049 
0.42917 0.155718 -0.889699 -0.0545708 -0.136395 -0.98915 0.0157801 -0.102159 -0.994643 
-0.0516367 -0.068927 -0.996284 -0.241591 -0.0513923 -0.969016 -0.715895 0.0199879 -0.697922 
-0.505017 0.00769975 -0.863075 0.754578 0.103377 -0.648017 0.67217 0.111382 -0.731971 
0.395982 0.0515 -0.916813 -0.11129 -0.164697 -0.980046 -0.0719979 -0.13304 -0.988492 
0.0167439 -0.150062 -0.988535 -0.0668792 -0.17654 -0.982019 -0.22458 -0.210165 -0.951522 
-0.630525 -0.201829 -0.749469 -0.493838 -0.421479 -0.760578 -0.462338 -0.200109 -0.863829 
0.780026 -0.163281 -0.604069 0.71525 -0.373505 -0.590687 0.681584 -0.150449 -0.716106 
0.368221 -0.0423487 -0.928773 -0.111074 -0.0319257 -0.993299 -0.0751474 -0.140999 -0.987154 
-0.0791811 -0.275345 -0.958079 -0.0398902 -0.258524 -0.965181 -0.0359489 -0.298017 -0.953883 
-0.121591 -0.34687 -0.929998 -0.460937 -0.453592 -0.762753 -0.301127 -0.532738 -0.790893 
-0.263745 -0.403063 -0.876344 0.691736 -0.433454 -0.577597 0.465661 -0.307784 -0.829716 
-0.163204 -0.043437 -0.985636 -0.27234 -0.172622 -0.94659 -0.368837 -0.579052 -0.727088 
-0.216877 -0.324411 -0.920718 -0.188937 -0.567481 -0.801416 -0.114881 -0.480547 -0.869412 
-0.0969279 -0.641678 -0.760825 -0.0709732 -0.585074 -0.807869 -0.20736 -0.609993 -0.764795 
-0.165697 -0.634887 -0.754628 -0.167304 -0.610544 -0.774109 0.560095 -0.659335 -0.501568 
0.548115 -0.673318 -0.496199 0.539477 -0.654846 -0.529284 0.41166 -0.776996 -0.476249 
0.335476 -0.556776 -0.759906 0.129039 -0.401489 -0.906728 -0.0131385 -0.366023 -0.930513 
-0.0689357 -0.358915 -0.930821 -0.250977 -0.840361 -0.480421 -0.219323 -0.425184 -0.878132 
-0.369054 -0.579429 -0.726678 -0.326854 -0.745577 -0.580759 -0.350728 -0.505141 -0.788557 
0.274103 -0.833686 -0.479412 0.196265 -0.847215 -0.493667 0.190693 -0.807753 -0.557827 
-0.0331705 -0.832651 -0.552803 -0.0284927 -0.77924 -0.626078 -0.183262 -0.848366 -0.49668 
-0.168275 -0.844282 -0.508794 -0.163815 -0.828722 -0.53515 0.0160721 0.15794 -0.987318 
0.0906563 0.256381 -0.962315 0.0590267 0.211805 -0.975528 0.0166199 0.158243 -0.98726 
0.0449409 0.197116 -0.97935 0.0148847 0.157855 -0.98735 0.0160374 0.157578 -0.987376 
-0.00470309 0.149892 -0.988691 -0.0207264 0.178733 -0.983679 -0.0427684 0.115366 -0.992402 
-0.0545463 0.091311 -0.994327 0.134993 0.244904 -0.960104 0.199339 0.22292 -0.954238 
0.0793087 0.231513 -0.969594 0.033974 0.172221 -0.984472 -0.00614127 0.158584 -0.987326 
-0.020021 0.0976143 -0.995023 0.0288678 0.039767 -0.998792 -0.00882938 0.050229 -0.998699 
-0.0549945 -0.076758 -0.995532 -0.0534207 -0.000823236 -0.998572 -0.0889411 0.053137 -0.994618 
-0.0118332 -0.0489004 -0.998734 -0.0517349 0.0287719 -0.998246 0.300109 0.147942 -0.942363 
0.204836 0.1508 -0.96711 0.0394919 0.130267 -0.990692 0.00936075 0.068047 -0.997638 
-0.0134336 0.0162194 -0.999778 -0.106624 -0.0200699 -0.994097 -0.0543403 -0.0343679 -0.997931 
-0.059252 -0.114247 -0.991684 -0.104857 -0.153239 -0.98261 -0.0625975 -0.0799662 -0.99483 
0.357226 0.0482121 -0.932773 0.18088 0.0383914 -0.982756 -0.00488839 0.0224935 -0.999735 
-0.081954 -0.00172879 -0.996635 -0.0969443 -0.11481 -0.988646 -0.0821853 -0.11705 -0.98972 
-0.0704918 -0.151575 -0.985929 -0.0798942 -0.148231 -0.98572 -0.0322054 -0.121919 -0.992017 
-0.0274588 -0.120049 -0.992388 0.321092 -0.0415617 -0.946136 0.17458 -0.0706263 -0.982107 
-0.000907047 -0.0650074 -0.997884 -0.125618 -0.0289883 -0.991655 -0.145261 -0.0352074 -0.988767 
-0.16055 -0.0362645 -0.986361 0.301642 -0.271698 -0.913889 0.200163 -0.319883 -0.926072 
0.162021 -0.249707 -0.95467 0.106745 -0.349817 -0.930717 0.0364561 -0.173218 -0.984209 
-0.0275715 -0.303607 -0.952398 -0.0593828 -0.13288 -0.989352 -0.146937 -0.0463803 -0.988058 
-0.0824876 -0.204481 -0.975389 -0.101155 -0.0620135 -0.992936 
