# vtk DataFile Version 4.2
vtk output
ASCII
DATASET POLYDATA
POINTS 565 float
-23.1432 -38.6258 -10.5021 -15.0853 -38.6258 -11.9673 -7.02743 -38.6258 -13.1509 
1.03043 -38.6258 -13.7749 9.0883 -38.6258 -13.7869 17.1462 -38.6258 -11.9078 
-39.2589 -30.568 -11.6007 -31.201 -30.568 -13.6425 -23.1432 -30.568 -14.6505 
-15.0853 -30.568 -15.1571 -7.02743 -30.568 -15.4413 1.03043 -30.568 -16.3 
9.0883 -30.568 -16.5693 17.1462 -30.568 -15.4797 25.204 -30.568 -14.081 
33.2619 -30.568 -13.3707 41.3198 -30.568 -10.8623 -55.3746 -22.5101 -10.6275 
-47.3168 -22.5101 -12.2863 -39.2589 -22.5101 -14.1982 -31.201 -22.5101 -15.572 
-23.1432 -22.5101 -15.8619 -15.0853 -22.5101 -16.2609 -7.02743 -22.5101 -15.82 
1.03043 -22.5101 -15.9823 9.0883 -22.5101 -16.8527 17.1462 -22.5101 -16.322 
25.204 -22.5101 -15.8088 33.2619 -22.5101 -15.8752 41.3198 -22.5101 -15.2093 
49.3776 -22.5101 -13.6429 57.4355 -22.5101 -11.2551 -55.3746 -14.4522 -13.1962 
-47.3168 -14.4522 -14.3611 -39.2589 -14.4522 -14.8059 -31.201 -14.4522 -15.2123 
-23.1432 -14.4522 -15.4868 -15.0853 -14.4522 -16.5087 -7.02743 -14.4522 -15.6897 
1.03043 -14.4522 -15.2671 9.0883 -14.4522 -15.8425 17.1462 -14.4522 -15.5126 
25.204 -14.4522 -15.9928 33.2619 -14.4522 -16.7082 41.3198 -14.4522 -16.998 
49.3776 -14.4522 -16.0379 57.4355 -14.4522 -13.6497 -55.3746 -6.39436 -13.0017 
-47.3168 -6.39436 -15.2758 -39.2589 -6.39436 -15.5981 -31.201 -6.39436 -15.0597 
-23.1432 -6.39436 -14.4046 -15.0853 -6.39436 -15.6177 -7.02743 -6.39436 -17.4268 
1.03043 -6.39436 -16.018 9.0883 -6.39436 -17.3179 17.1462 -6.39436 -15.1109 
25.204 -6.39436 -16.1699 33.2619 -6.39436 -17.286 41.3198 -6.39436 -18.2821 
49.3776 -6.39436 -17.1241 57.4355 -6.39436 -16.1834 65.4934 -6.39436 -12.9644 
-63.4325 1.66351 -11.559 -55.3746 1.66351 -13.9154 -47.3168 1.66351 -15.3636 
-39.2589 1.66351 -16.3333 -31.201 1.66351 -15.4638 -23.1432 1.66351 -14.0799 
-15.0853 1.66351 -12.8377 -7.02743 1.66351 -16.8187 1.03043 1.66351 -13.3662 
9.0883 1.66351 -17.6561 17.1462 1.66351 -15.5121 25.204 1.66351 -16.4458 
33.2619 1.66351 -17.5735 41.3198 1.66351 -17.7316 49.3776 1.66351 -17.2375 
57.4355 1.66351 -16.0378 65.4934 1.66351 -12.5193 -55.3746 9.72137 -13.4462 
-47.3168 9.72137 -15.3963 -39.2589 9.72137 -16.6847 -31.201 9.72137 -15.9316 
-23.1432 9.72137 -14.7279 -15.0853 9.72137 -12.9697 -7.02743 9.72137 -12.7024 
1.03043 9.72137 -13.0686 9.0883 9.72137 -14.6542 17.1462 9.72137 -16.6216 
25.204 9.72137 -17.4277 33.2619 9.72137 -17.8438 41.3198 9.72137 -18.487 
49.3776 9.72137 -16.8269 57.4355 9.72137 -15.3209 65.4934 9.72137 -11.5826 
-55.3746 17.7792 -13.2248 -47.3168 17.7792 -16.191 -39.2589 17.7792 -16.479 
-31.201 17.7792 -16.3583 -23.1432 17.7792 -16.2205 -15.0853 17.7792 -15.0114 
-7.02743 17.7792 -13.6108 1.03043 17.7792 -13.5682 9.0883 17.7792 -15.136 
17.1462 17.7792 -17.0104 25.204 17.7792 -18.1758 33.2619 17.7792 -18.2089 
41.3198 17.7792 -18.2012 49.3776 17.7792 -16.3508 57.4355 17.7792 -14.1343 
-47.3168 25.8371 -13.3768 -39.2589 25.8371 -15.2713 -31.201 25.8371 -16.8817 
-23.1432 25.8371 -16.4951 -15.0853 25.8371 -16.4058 -7.02743 25.8371 -15.4512 
1.03043 25.8371 -15.3173 9.0883 25.8371 -16.0486 17.1462 25.8371 -17.3684 
25.204 25.8371 -18.3654 33.2619 25.8371 -17.9859 41.3198 25.8371 -16.9188 
49.3776 25.8371 -14.5559 -47.3168 33.895 -10.8802 -39.2589 33.895 -13.5384 
-31.201 33.895 -15.5183 -23.1432 33.895 -16.2413 -15.0853 33.895 -16.2076 
-7.02743 33.895 -15.7302 1.03043 33.895 -15.6066 9.0883 33.895 -15.6721 
17.1462 33.895 -16.367 25.204 33.895 -17.1017 33.2619 33.895 -16.2104 
41.3198 33.895 -14.5541 -31.201 41.9528 -11.2671 -23.1432 41.9528 -13.5926 
-15.0853 41.9528 -14.0232 -7.02743 41.9528 -14.3507 1.03043 41.9528 -14.0692 
9.0883 41.9528 -13.4063 17.1462 41.9528 -12.5206 25.204 41.9528 -11.907 
33.2619 41.9528 -10.6187 -23.1432 -38.6791 -10.4504 -15.0853 -40.5672 -10.4504 
-7.02743 -42.4038 -10.4504 1.03043 -42.7003 -10.4504 9.0883 -42.2383 -10.4504 
17.1462 -40.0938 -10.4504 -39.2589 -32.6645 -10.4504 -39.2589 -38.6258 -5.91967 
-23.6858 -38.6258 -10.4504 -31.201 -37.5095 -10.4504 -31.201 -38.6258 -9.47718 
21.5427 -38.6258 -10.4504 25.204 -36.7809 -10.4504 25.204 -38.6258 -8.50324 
33.2619 -34.3666 -10.4504 33.2619 -38.6258 -5.43066 41.3198 -31.0713 -10.4504 
-55.3746 -22.7251 -10.4504 -55.3746 -30.568 -4.30626 -44.9205 -30.568 -10.4504 
-47.3168 -28.9732 -10.4504 -47.3168 -30.568 -9.85924 43.2555 -30.568 -10.4504 
49.3776 -28.3861 -10.4504 49.3776 -30.568 -8.59115 57.4355 -23.7373 -10.4504 
-55.5576 -22.5101 -10.4504 -63.4325 -22.5101 -4.0065 58.7973 -22.5101 -10.4504 
65.4934 -22.5101 -3.7469 -60.5311 -14.4522 -10.4504 -63.4325 -14.4522 -8.19781 
64.7192 -14.4522 -10.4504 65.4934 -13.6761 -10.4504 65.4934 -14.4522 -10.0124 
-63.031 -6.39436 -10.4504 -63.4325 -5.24681 -10.4504 -63.4325 -6.39436 -10.3099 
68.7664 -6.39436 -10.4504 73.5512 -6.39436 -3.15881 -64.4541 1.66351 -10.4504 
-63.4325 6.62101 -10.4504 68.0551 1.66351 -10.4504 -62.247 9.72137 -10.4504 
-63.4325 9.72137 -9.80113 66.4785 9.72137 -10.4504 65.4934 11.6273 -10.4504 
-59.6419 17.7792 -10.4504 -63.4325 17.7792 -5.45047 -55.3746 24.5476 -10.4504 
62.6489 17.7792 -10.4504 57.4355 25.1417 -10.4504 65.4934 17.7792 -4.87967 
-53.7795 25.8371 -10.4504 -55.3746 25.8371 -9.28543 56.5968 25.8371 -10.4504 
49.3776 33.4808 -10.4504 57.4355 25.8371 -9.10924 -47.9036 33.895 -10.4504 
-47.3168 34.4068 -10.4504 -39.2589 39.3625 -10.4504 48.8908 33.895 -10.4504 
41.3198 38.0666 -10.4504 49.3776 33.895 -9.38246 -34.0135 41.9528 -10.4504 
-39.2589 41.9528 -6.40431 -31.201 42.8039 -10.4504 -23.1432 45.342 -10.4504 
-15.0853 46.9477 -10.4504 -7.02743 48.1338 -10.4504 1.03043 47.23 -10.4504 
9.0883 45.6213 -10.4504 17.1462 44.1743 -10.4504 25.204 42.9402 -10.4504 
33.5892 41.9528 -10.4504 33.2619 42.0686 -10.4504 -7.02743 50.0107 -4.66133 
1.03043 50.0107 -3.3384 -39.2589 -40.7621 -2.39248 -31.201 -42.6402 -2.39248 
-23.1432 -43.983 -2.39248 -15.0853 -45.3292 -2.39248 -7.02743 -46.4651 -2.39248 
1.03043 -46.5274 -2.39248 9.0883 -45.4208 -2.39248 17.1462 -43.6892 -2.39248 
25.204 -41.9018 -2.39248 33.2619 -40.2739 -2.39248 -55.3746 -32.3713 -2.39248 
-44.4383 -38.6258 -2.39248 -47.3168 -37.1185 -2.39248 37.6765 -38.6258 -2.39248 
41.3198 -37.2379 -2.39248 49.3776 -34.3697 -2.39248 -57.4895 -30.568 -2.39248 
-63.4325 -24.5439 -2.39248 57.1467 -30.568 -2.39248 57.4355 -30.4009 -2.39248 
65.4934 -23.5424 -2.39248 -64.9161 -22.5101 -2.39248 66.5364 -22.5101 -2.39248 
65.4934 -22.5101 5.62379 -69.4177 -14.4522 -2.39248 70.9803 -14.4522 -2.39248 
73.5512 -7.60512 -2.39248 -70.8247 -6.39436 -2.39248 73.5512 -2.41894 -2.39248 
73.5512 -6.39436 -0.771297 -71.1345 1.66351 -2.39248 73.1024 1.66351 -2.39248 
-69.0028 9.72137 -2.39248 70.9064 9.72137 -2.39248 -65.4117 17.7792 -2.39248 
-63.4325 20.889 -2.39248 66.637 17.7792 -2.39248 65.4934 19.4242 -2.39248 
65.4934 17.7792 0.326977 -59.9352 25.8371 -2.39248 -55.3746 30.7839 -2.39248 
60.1148 25.8371 -2.39248 57.4355 28.803 -2.39248 57.4355 25.8371 2.25817 
-52.19 33.895 -2.39248 -47.3168 37.9515 -2.39248 41.3198 39.8511 -2.39248 
41.3198 33.895 5.19706 51.489 33.895 -2.39248 49.3776 35.3215 -2.39248 
49.3776 33.895 0.267555 -41.3512 41.9528 -2.39248 -39.2589 43.1921 -2.39248 
-39.2589 41.9528 1.92275 -31.201 46.5197 -2.39248 -23.1432 48.5515 -2.39248 
-15.0853 49.8632 -2.39248 9.0883 48.5576 -2.39248 17.1462 46.5379 -2.39248 
25.204 44.8521 -2.39248 25.204 41.9528 4.46248 36.3485 41.9528 -2.39248 
33.2619 43.1199 -2.39248 33.2619 41.9528 0.244837 -13.1732 50.0107 -2.39248 
-7.02743 50.4821 -2.39248 -7.02743 50.0107 -0.161831 2.23907 50.0107 -2.39248 
1.03043 50.2622 -2.39248 1.03043 50.0107 -1.32227 -39.2589 -40.4286 5.66538 
-31.201 -41.8908 5.66538 -23.1432 -43.2158 5.66538 -15.0853 -44.7547 5.66538 
-7.02743 -46.293 5.66538 1.03043 -46.4167 5.66538 9.0883 -45.3259 5.66538 
17.1462 -43.6511 5.66538 25.204 -41.9017 5.66538 33.2619 -40.2296 5.66538 
-55.3746 -33.8677 5.66538 -45.2776 -38.6258 5.66538 -47.3168 -37.8247 5.66538 
-39.2589 -38.6258 8.28416 -31.201 -38.6258 9.67096 -23.1432 -38.6258 11.8294 
-15.0853 -38.6258 13.4683 25.204 -38.6258 11.1615 37.974 -38.6258 5.66538 
33.2619 -38.6258 8.15884 41.3198 -37.4158 5.66538 49.3776 -33.6822 5.66538 
-59.4803 -30.568 5.66538 -63.4325 -26.6633 5.66538 -55.3746 -30.568 10.2686 
-47.3168 -30.568 13.4611 41.3198 -30.568 13.2349 56.7911 -30.568 5.66538 
49.3776 -30.568 11.5484 57.4355 -30.1663 5.66538 -66.4056 -22.5101 5.66538 
-63.4325 -22.5101 9.90757 65.485 -22.5101 5.66538 57.4355 -22.5101 12.854 
65.4934 -22.4934 5.66538 -70.3984 -14.4522 5.66538 57.4355 -14.4522 13.2547 
68.3985 -14.4522 5.66538 65.4934 -14.4522 8.71004 -71.0237 -6.39436 5.66538 
70.971 -6.39436 5.66538 65.4934 -6.39436 10.7262 -70.8188 1.66351 5.66538 
-63.4325 1.66351 13.1652 57.4355 1.66351 13.2308 69.6917 1.66351 5.66538 
65.4934 1.66351 9.46606 -67.7406 9.72137 5.66538 -63.4325 9.72137 10.1628 
-55.3746 9.72137 13.6997 1.03043 9.72137 12.3691 9.0883 9.72137 13.4826 
49.3776 9.72137 13.6137 57.4355 9.72137 12.6732 67.649 9.72137 5.66538 
65.4934 13.4701 5.66538 65.4934 9.72137 7.63104 -64.0152 17.7792 5.66538 
-63.4325 18.6719 5.66538 -63.4325 17.7792 6.28903 -55.3746 17.7792 10.5864 
1.03043 17.7792 12.9069 33.2619 17.7792 13.4658 41.3198 17.7792 13.0017 
49.3776 17.7792 11.0309 61.2859 17.7792 5.66538 57.4355 22.2759 5.66538 
57.4355 17.7792 8.14962 -58.1299 25.8371 5.66538 -55.3746 28.7463 5.66538 
-55.3746 25.8371 8.23387 -47.3168 25.8371 11.3452 17.1462 25.8371 13.5298 
25.204 25.8371 12.7887 33.2619 25.8371 11.9364 41.3198 33.32 5.66538 
41.3198 25.8371 10.1764 53.0722 25.8371 5.66538 49.3776 28.5284 5.66538 
49.3776 25.8371 7.31433 -49.9037 33.895 5.66538 -47.3168 35.9659 5.66538 
-47.3168 33.895 7.96313 -39.2589 40.3832 5.66538 -39.2589 33.895 10.5924 
-31.201 33.895 13.6138 9.0883 33.895 12.7055 17.1462 33.895 11.4154 
25.204 41.1094 5.66538 25.204 33.895 10.1188 40.1964 33.895 5.66538 
33.2619 37.5876 5.66538 33.2619 33.895 8.08295 -35.1268 41.9528 5.66538 
[...]
POINT_DATA 565
SCALARS ImageScalars float
LOOKUP_TABLE default
0 0 0 0 0 0 0 0 0 
0 0 0 0 0 0 0 0 0 
0 0 0 0 0 0 0 0 0 
0 0 0 0 0 0 0 0 0 
0 0 0 0 0 0 0 0 0 
0 0 0 0 0 0 0 0 0 
0 0 0 0 0 0 0 0 0 
0 0 0 0 0 0 0 0 0 
0 0 0 0 0 0 0 0 0 
0 0 0 0 0 0 0 0 0 
0 0 0 0 0 0 0 0 0 
0 0 0 0 0 0 0 0 0 
0 0 0 0 0 0 0 0 0 
0 0 0 0 0 0 0 0 0 
0 0 0 0 0 0 0 0 0 
0 0 0 0 0 0 0 0 0 
0 0 0 0 0 0 0 0 0 
0 0 0 0 0 0 0 0 0 
0 0 0 0 0 0 0 0 0 
0 0 0 0 0 0 0 0 0 
0 0 0 0 0 0 0 0 0 
0 0 0 0 0 0 0 0 0 
0 0 0 0 0 0 0 0 0 
0 0 0 0 0 0 0 0 0 
0 0 0 0 0 0 0 0 0 
0 0 0 0 0 0 0 0 0 
0 0 0 0 0 0 0 0 0 
0 0 0 0 0 0 0 0 0 
0 0 0 0 0 0 0 0 0 
0 0 0 0 0 0 0 0 0 
0 0 0 0 0 0 0 0 0 
0 0 0 0 0 0 0 0 0 
0 0 0 0 0 0 0 0 0 
0 0 0 0 0 0 0 0 0 
0 0 0 0 0 0 0 0 0 
0 0 0 0 0 0 0 0 0 
0 0 0 0 0 0 0 0 0 
0 0 0 0 0 0 0 0 0 
0 0 0 0 0 0 0 0 0 
0 0 0 0 0 0 0 0 0 
0 0 0 0 0 0 0 0 0 
0 0 0 0 0 0 0 0 0 
0 0 0 0 0 0 0 0 0 
0 0 0 0 0 0 0 0 0 
0 0 0 0 0 0 0 0 0 
0 0 0 0 0 0 0 0 0 
0 0 0 0 0 0 0 0 0 
0 0 0 0 0 0 0 0 0 
0 0 0 0 0 0 0 0 0 
0 0 0 0 0 0 0 0 0 
0 0 0 0 0 0 0 0 0 
0 0 0 0 0 0 0 0 0 
0 0 0 0 0 0 0 0 0 
0 0 0 0 0 0 0 0 0 
0 0 0 0 0 0 0 0 0 
0 0 0 0 0 0 0 0 0 
0 0 0 0 0 0 0 0 0 
0 0 0 0 0 0 0 0 0 
0 0 0 0 0 0 0 0 0 
0 0 0 0 0 0 0 0 0 
0 0 0 0 0 0 0 0 0 
0 0 0 0 0 0 0 0 0 
0 0 0 0 0 0 0 
NORMALS Normals float
0.126801 0.64941 0.749792 0.139531 0.552394 0.821823 0.105987 0.460992 0.881052 
0.0393208 0.491042 0.870248 -0.103172 0.565222 0.818462 -0.242465 0.648955 0.721157 
0.234031 0.417202 0.878164 0.159101 0.313268 0.936242 0.0984915 0.269342 0.957995 
0.0455767 0.239713 0.969773 0.0699498 0.15668 0.985169 0.0695653 0.119332 0.990414 
-0.0525201 0.16898 0.984219 -0.142514 0.229776 0.962753 -0.124537 0.339748 0.932235 
-0.169219 0.469766 0.866421 -0.207765 0.614576 0.761006 0.41343 0.465924 0.782298 
0.197061 0.261669 0.944826 0.182064 0.166737 0.969047 0.112086 0.103026 0.988343 
0.0420281 0.0468785 0.998016 -0.00275786 0.0854506 0.996339 -0.0176271 0.0147502 0.999736 
0.0617587 -0.0628763 0.996109 0.0196119 -0.0473648 0.998685 -0.0623779 0.00290539 0.998048 
-0.0279789 0.108119 0.993744 -0.0410612 0.178599 0.983065 -0.118111 0.307563 0.944169 
-0.251522 0.398486 0.882012 -0.392764 0.426549 0.814735 0.287711 0.0920593 0.953282 
0.12066 0.188248 0.974681 0.0507965 0.0890344 0.994732 0.0420185 -0.0305598 0.998649 
0.0812557 -0.0911599 0.992516 0.0128726 -0.0274091 0.999541 -0.0786542 0.0951891 0.992347 
0.0099381 -0.00362289 0.999944 0.0146351 0.0168086 0.999752 0.00951174 -0.0764671 0.997027 
0.0752357 0.0227713 0.996906 0.0614773 0.0835455 0.994606 -0.0479296 0.197175 0.979196 
-0.175595 0.182036 0.967486 -0.31334 0.283027 0.906484 0.260147 0.0359305 0.9649 
0.142478 0.0548246 0.988278 -0.0105935 0.0940428 0.995512 -0.0740332 0.015656 0.997133 
0.0180515 -0.0871644 0.99603 0.202609 -0.228964 0.952116 0.0138328 0.0947094 0.995409 
-0.0165481 -0.0825802 0.996447 -0.0754468 0.121355 0.989738 -0.0477749 0.000108176 0.998858 
0.134163 0.0278897 0.990567 0.128285 0.0531556 0.990312 -0.00868749 0.0431055 0.999033 
-0.120226 0.0804396 0.989482 -0.294112 0.135916 0.946057 -0.487865 0.0855659 0.868715 
0.538205 -0.0263046 0.842404 0.191888 0.0267595 0.981052 0.136898 0.00786981 0.990554 
0.00592569 0.0672228 0.99772 -0.137707 0.0531394 0.989047 -0.150575 0.0188263 0.988419 
0.0404721 -0.141799 0.989068 0.0841267 -0.274094 0.958016 0.185172 -0.183527 0.965417 
0.062886 -0.162454 0.98471 -0.0684957 0.0941922 0.993195 0.126789 0.0779121 0.988865 
0.0791615 0.0344682 0.996266 -0.0205337 0.0123611 0.999713 -0.0957117 -0.018087 0.995245 
-0.325214 -0.0478158 0.944431 -0.531693 -0.0640249 0.844514 0.280496 -0.0424153 0.958918 
0.183439 0.0428983 0.982095 0.0326904 0.00932611 0.999422 -0.117846 0.055121 0.991501 
-0.181301 0.124581 0.975505 -0.117439 0.134057 0.98399 -0.00360487 -0.0786962 0.996892 
0.136324 0.0223014 0.990413 0.188052 -0.155147 0.969828 0.162691 0.0915291 0.982422 
0.073858 0.10661 0.991554 0.0644715 0.0393053 0.997145 -0.0619336 0.0306195 0.997611 
-0.176489 -0.0568804 0.982658 -0.267139 -0.138059 0.953717 -0.641238 -0.286745 0.711752 
0.423019 -0.202285 0.883253 0.220661 -0.0921033 0.970992 0.00785445 -0.0875091 0.996133 
-0.015139 0.0577482 0.998216 -0.0855553 0.110504 0.990186 -0.154258 0.210813 0.965278 
-0.0899105 0.149577 0.984654 0.0918253 0.131206 0.987093 0.213088 0.0847509 0.97335 
0.183995 0.0459875 0.981851 0.0733071 0.0577584 0.995636 0.00159009 0.00775891 0.999969 
-0.128238 -0.0926756 0.987404 -0.260335 -0.118224 0.958253 -0.428868 -0.269101 0.862356 
0.342034 -0.315045 0.885302 0.190201 -0.157109 0.969092 0.0756413 -0.0597931 0.995341 
-0.0287221 0.000837661 0.999587 -0.0644742 0.0727211 0.995266 -0.0673966 0.12984 0.989242 
0.0363585 0.122877 0.991756 0.126522 0.0301531 0.991505 0.147493 -0.04119 0.988205 
0.0363078 -0.054023 0.997879 -0.0804185 -0.117237 0.989843 -0.208221 -0.192888 0.958873 
-0.404495 -0.360345 0.840557 0.486681 -0.528228 0.695785 0.32055 -0.385033 0.865447 
0.135794 -0.274948 0.951821 0.0480853 -0.145299 0.988219 -0.0304281 -0.135861 0.990261 
-0.0393735 -0.0696434 0.996795 -0.00366248 -0.0767352 0.997045 0.0467251 -0.153659 0.987019 
0.0808259 -0.266588 0.960415 -0.00944105 -0.277901 0.960563 -0.127084 -0.379525 0.916412 
-0.341187 -0.517043 0.785021 0.242054 -0.69789 0.674062 0.150052 -0.549098 0.822178 
0.0430177 -0.463581 0.88501 0.00206642 -0.367779 0.929911 -0.059381 -0.40049 0.914375 
-0.0965592 -0.510987 0.854148 -0.0804485 -0.669344 0.738584 -0.102262 -0.813971 0.571834 
-0.228369 -0.871893 0.433186 0.127267 0.651807 0.74763 0.166184 0.646727 0.744397 
0.101652 0.689043 0.717556 -0.0114803 0.737671 0.675062 -0.138718 0.769699 0.623154 
-0.25444 0.723605 0.641604 0.2607 0.462712 0.847309 0.343881 0.780762 0.521686 
0.130367 0.651143 0.747674 0.178071 0.616329 0.767091 0.182866 0.705373 0.684842 
-0.250439 0.70075 0.668004 -0.232476 0.64639 0.726729 -0.243196 0.786727 0.567376 
-0.222771 0.622859 0.749946 -0.272157 0.865093 0.42136 -0.213229 0.627971 0.748455 
0.415057 0.471729 0.777946 0.517631 0.68897 0.507325 0.297098 0.444807 0.844914 
0.307349 0.413125 0.857242 0.334839 0.475607 0.813438 -0.227507 0.628975 0.743391 
-0.288075 0.597438 0.748385 -0.328579 0.724649 0.60574 -0.412213 0.476863 0.776326 
0.418947 0.467516 0.778404 0.72326 0.461304 0.5139 -0.428133 0.452453 0.782297 
-0.69402 0.649217 0.311213 0.443759 0.259437 0.85777 0.57744 0.358638 0.733445 
-0.470101 0.441524 0.764239 -0.487404 0.430161 0.759868 -0.507376 0.470641 0.72185 
0.401158 0.179153 0.898319 0.432138 0.159743 0.887546 0.415524 0.192144 0.889056 
-0.6707 0.0745588 0.737972 -0.974127 0.112832 0.19582 0.584641 -0.0260722 0.810873 
0.521594 -0.164179 0.837249 -0.664156 -0.10574 0.740079 0.461134 -0.215522 0.860759 
0.533066 -0.275462 0.799976 -0.687995 -0.31072 0.655832 -0.687318 -0.355305 0.633523 
0.578397 -0.304339 0.756858 0.790756 -0.485746 0.372499 0.51523 -0.454256 0.726767 
-0.677416 -0.382723 0.628197 -0.600346 -0.541544 0.588485 -0.835342 -0.520843 0.175862 
0.491136 -0.464005 0.737214 0.562464 -0.527422 0.636758 -0.588144 -0.555086 0.58819 
-0.51925 -0.668186 0.532829 -0.644227 -0.601181 0.472813 0.500101 -0.548378 0.67021 
0.499499 -0.557924 0.662738 0.40196 -0.617405 0.676195 -0.517818 -0.67612 0.524144 
-0.434896 -0.753148 0.493592 -0.540999 -0.720322 0.434115 0.300517 -0.712867 0.633649 
0.461619 -0.832514 0.306316 0.245525 -0.734243 0.632933 0.206969 -0.745233 0.63387 
0.126713 -0.756641 0.641434 0.0130994 -0.782755 0.622192 -0.120705 -0.746805 0.653997 
-0.155696 -0.742324 0.651701 -0.144758 -0.790134 0.595594 -0.13544 -0.87127 0.471746 
-0.235546 -0.875244 0.422451 -0.227668 -0.877658 0.421763 0.0220575 -0.989404 0.143507 
-0.120497 -0.990005 0.073287 0.312881 0.919439 0.238196 0.205803 0.95664 0.20612 
0.165694 0.966289 0.197054 0.151449 0.972937 0.174518 0.0738477 0.984406 0.159663 
-0.0634146 0.985076 0.16001 -0.17163 0.973605 0.150453 -0.211774 0.960944 0.178154 
-0.204809 0.952125 0.226962 -0.275391 0.929361 0.245863 0.5445 0.752533 0.370423 
0.390774 0.866206 0.311421 0.433309 0.835679 0.337467 -0.30909 0.919063 0.244512 
-0.331069 0.907803 0.257463 -0.394001 0.890357 0.228093 0.578762 0.727206 0.36906 
0.736758 0.549102 0.394556 -0.521578 0.815593 0.25053 -0.527577 0.8116 0.250934 
-0.701308 0.676367 0.225155 0.763268 0.497515 0.412189 -0.725603 0.652364 0.218912 
-0.723047 0.54866 -0.419731 0.890002 0.351062 0.290952 -0.918178 0.389671 0.0714514 
-0.977027 0.163843 0.136287 0.975403 0.0929396 0.19988 -0.988843 -0.0239442 0.147027 
-0.992124 0.124489 0.0138401 0.950501 -0.1086 0.291126 -0.975474 -0.17577 0.132495 
0.938656 -0.321831 0.123892 -0.921789 -0.386054 0.0356085 0.84902 -0.503978 0.158653 
0.816417 -0.549336 0.178024 -0.849487 -0.527579 0.00573643 -0.825673 -0.564148 0.00125828 
-0.803808 -0.561221 -0.197288 0.776179 -0.613095 0.147176 0.722059 -0.681667 0.118159 
-0.737366 -0.672475 -0.0637946 -0.707889 -0.701569 -0.0818109 -0.651585 -0.626703 -0.427411 
0.676084 -0.731864 0.0853527 0.602133 -0.79544 0.0686301 -0.415269 -0.891671 -0.180205 
-0.295944 -0.641597 -0.707651 -0.576405 -0.806634 -0.130763 -0.537837 -0.831545 -0.138797 
-0.514924 -0.794928 -0.320847 0.491494 -0.870595 0.0223133 0.454909 -0.890483 0.00992342 
0.432608 -0.867709 -0.244811 0.314584 -0.94901 0.0204321 0.201997 -0.979384 0.00214554 
0.117488 -0.993032 0.00914576 -0.229707 -0.973231 -0.00754868 -0.225399 -0.971043 -0.0791916 
-0.221561 -0.970038 -0.0996893 -0.19221 -0.813133 -0.549427 -0.3428 -0.924584 -0.16623 
-0.294472 -0.942444 -0.158384 -0.309997 -0.894023 -0.323458 0.0951315 -0.995447 0.00586373 
0.024535 -0.999697 -0.00207855 0.0240158 -0.992427 -0.120465 -0.133253 -0.991012 0.0117944 
-0.116583 -0.993065 0.015176 -0.121407 -0.991588 -0.0448788 0.226774 0.915382 -0.332639 
0.177572 0.907691 -0.380217 0.169844 0.925437 -0.338703 0.17801 0.936054 -0.303505 
0.0990671 0.970942 -0.217849 -0.0580394 0.976628 -0.206951 -0.162853 0.964841 -0.206303 
-0.203392 0.950681 -0.234172 -0.204886 0.94682 -0.2481 -0.266442 0.920195 -0.286791 
0.540862 0.816265 -0.202928 0.330838 0.900917 -0.280882 0.368024 0.893048 -0.258889 
0.196549 0.837372 -0.510075 0.163982 0.779323 -0.604786 0.176477 0.650835 -0.738424 
0.188323 0.56106 -0.806068 -0.224948 0.759473 -0.610409 -0.303541 0.918076 -0.254948 
-0.260756 0.856867 -0.444731 -0.335508 0.909466 -0.245573 -0.44281 0.84915 -0.287861 
0.629966 0.748108 -0.208511 0.747218 0.627666 -0.218404 0.50038 0.634419 -0.58918 
0.23966 0.586243 -0.773875 -0.140539 0.501107 -0.853898 -0.54013 0.760315 -0.360805 
-0.380066 0.624809 -0.682029 -0.548319 0.749755 -0.370424 0.840652 0.492176 -0.22598 
0.669696 0.487068 -0.560599 -0.722076 0.547369 -0.423076 -0.401171 0.35869 -0.842854 
-0.722382 0.546736 -0.423372 0.912802 0.2799 -0.297403 -0.376033 0.088181 -0.922401 
-0.785086 0.286296 -0.549248 -0.721142 0.244178 -0.64833 0.938831 0.0211091 -0.34373 
-0.755336 0.0658602 -0.65202 -0.600438 0.0260004 -0.799248 0.88781 -0.152586 -0.434179 
0.519897 -0.218782 -0.825737 -0.327074 -0.103141 -0.939353 -0.717938 -0.178848 -0.67274 
-0.631471 -0.175463 -0.755286 0.807002 -0.355199 -0.471786 0.590448 -0.326912 -0.737902 
0.263611 -0.285956 -0.92127 -0.0576353 -0.13496 -0.989173 0.123514 -0.190277 -0.97393 
-0.10004 -0.306323 -0.946656 -0.332447 -0.240239 -0.912011 -0.720737 -0.33783 -0.605317 
-0.64472 -0.422518 -0.637036 -0.613523 -0.325156 -0.719627 0.743164 -0.463675 -0.482403 
0.732864 -0.471398 -0.490606 0.710103 -0.464014 -0.529571 0.439686 -0.299481 -0.846751 
-0.0280053 0.11176 -0.99334 -0.060463 -0.16154 -0.985012 -0.155872 -0.274355 -0.948912 
-0.241729 -0.318076 -0.91673 -0.554138 -0.483241 -0.677798 -0.510381 -0.488029 -0.708054 
-0.440769 -0.438146 -0.783422 0.66758 -0.566662 -0.48294 0.632472 -0.60588 -0.482586 
0.563585 -0.498712 -0.658527 0.348596 -0.340608 -0.873194 -0.066983 -0.159783 -0.984877 
-0.0942832 -0.234105 -0.967629 -0.157419 -0.299507 -0.941018 -0.283939 -0.608762 -0.740802 
-0.224245 -0.372297 -0.900616 -0.442829 -0.510646 -0.736983 -0.376526 -0.538634 -0.753725 
-0.354211 -0.472423 -0.807063 0.565063 -0.676215 -0.472692 0.516851 -0.709725 -0.478701 
0.48389 -0.618594 -0.619025 0.370169 -0.769827 -0.519944 0.285369 -0.502239 -0.816285 
0.188917 -0.403253 -0.895376 -0.163338 -0.261919 -0.951167 -0.15382 -0.374024 -0.914574 
-0.186605 -0.742425 -0.643415 -0.18786 -0.418879 -0.888397 -0.285693 -0.608548 -0.740303 
-0.299176 -0.623404 -0.722399 -0.25239 -0.498524 -0.829321 0.320525 -0.779421 -0.5383 
0.268843 -0.774025 -0.573244 0.245946 -0.731235 -0.636244 0.206569 -0.81392 -0.543012 
0.197278 -0.666729 -0.718717 0.126374 -0.848279 -0.514249 0.096662 -0.556824 -0.824987 
0.0183117 -0.859468 -0.510862 0.0040327 -0.516125 -0.856504 -0.136924 -0.839517 -0.525797 
-0.117526 -0.514295 -0.849522 -0.269753 -0.771216 -0.576593 -0.254237 -0.603106 -0.75606 
-0.196913 -0.74232 -0.640458 -0.212643 -0.730917 -0.648493 -0.207541 -0.710612 -0.672278 
0.177022 0.643846 -0.744396 -0.012853 0.727754 -0.685718 -0.176197 0.684707 -0.707199 
-0.226526 0.640826 -0.733504 0.130356 0.540754 -0.831019 0.0952971 0.531148 -0.841903 
0.136655 0.499099 -0.855702 0.188019 0.550372 -0.813473 0.185968 0.537043 -0.8228 
0.189478 0.515061 -0.835948 0.0137793 0.536677 -0.843675 -0.1626 0.543227 -0.82369 
-0.22658 0.63672 -0.737054 -0.226706 0.632623 -0.740535 -0.19971 0.53651 -0.819922 
-0.193316 0.487515 -0.851444 0.408369 0.326012 -0.852614 0.223747 0.568326 -0.791797 
0.235767 0.563773 -0.791564 0.112093 0.457302 -0.882219 0.0509624 0.39926 -0.91542 
0.0783546 0.32952 -0.940892 0.16373 0.267261 -0.949612 0.143828 0.215244 -0.965911 
-0.0261962 0.138727 -0.989984 -0.138343 0.142727 -0.980046 -0.129862 0.196929 -0.971779 
-0.140635 0.29616 -0.944728 -0.143164 0.464203 -0.874082 -0.170762 0.424495 -0.889182 
-0.134187 0.437321 -0.889238 -0.25902 0.389835 -0.883706 0.422722 0.315953 -0.8494 
0.532722 0.279385 -0.798843 0.403333 0.299764 -0.86456 0.195641 0.201524 -0.959746 
0.0473379 0.215211 -0.97542 -0.00176291 0.199653 -0.979865 0.0287422 0.170207 -0.984989 
0.0897982 0.113989 -0.989415 0.0643402 0.0171142 -0.997781 -0.0632513 -0.0724897 -0.995362 
-0.0990526 -0.0562459 -0.993491 -0.0561122 -0.0298624 -0.997978 -0.00607252 0.0437753 -0.999023 
-0.105465 0.140566 -0.984438 -0.171513 0.206269 -0.963346 -0.303344 0.304216 -0.903014 
-0.19524 0.263125 -0.9448 0.562571 0.217414 -0.797649 0.517426 0.206227 -0.830506 
0.260653 0.17256 -0.949886 0.0954847 0.0246086 -0.995127 0.088363 -0.0100635 -0.996037 
0.0151698 0.00616695 -0.999866 -0.0116011 -0.0306064 -0.999464 0.0122262 0.0200754 -0.999724 
-0.0393883 -0.0556849 -0.997671 -0.0990949 -0.160324 -0.982078 -0.0993252 -0.0102199 -0.995003 
-0.0284605 -0.126005 -0.991621 0.0263637 -0.0834742 -0.996161 0.0205405 -0.0446925 -0.99879 
-0.0561966 0.0772439 -0.995427 -0.34724 0.0811668 -0.934257 -0.225299 0.0787063 -0.971105 
-0.340682 0.049889 -0.938854 0.547557 -0.0659783 -0.834163 0.507617 -0.181544 -0.842239 
0.481584 -0.0627186 -0.874153 0.244188 -0.0999987 -0.964558 0.0519322 -0.0770121 -0.995677 
0.0271352 -0.0943274 -0.995171 -0.0257944 -0.153201 -0.987858 0.0356985 -0.207545 -0.977574 
0.0656669 -0.256306 -0.964363 -0.128086 -0.0772119 -0.988753 -0.0054419 -0.217763 -0.975987 
-0.0672735 -0.0151539 -0.99762 -0.124481 -0.116984 -0.985302 0.0739753 -0.108346 -0.991357 
0.0590603 -0.0804521 -0.995007 -0.0479322 -0.0722258 -0.996236 -0.145088 -0.0424224 -0.988509 
-0.369502 0.00361429 -0.929223 -0.309842 -0.062659 -0.948721 -0.293564 -0.00227875 -0.955937 
0.455214 -0.214196 -0.864234 0.26225 -0.284675 -0.922055 0.213139 -0.196318 -0.957095 
0.094123 -0.126065 -0.987547 0.0140464 -0.0928862 -0.995578 -0.0935726 -0.124963 -0.987739 
-0.149391 -0.165748 -0.974787 0.0993526 -0.307384 -0.946385 0.0424225 -0.225696 -0.973274 
-0.0263806 -0.228457 -0.973197 -0.0212884 -0.24536 -0.969198 0.113284 -0.199147 -0.9734 
-0.0243726 -0.313313 -0.949337 -0.101969 -0.0824039 -0.991369 0.0667945 -0.0990971 -0.992833 
0.056092 -0.138133 -0.988824 -0.0134834 -0.16455 -0.986277 -0.291046 -0.106891 -0.950719 
-0.101752 -0.299491 -0.948658 -0.163412 -0.140551 -0.976495 0.261712 -0.283954 -0.92243 
0.155129 -0.10972 -0.981782 0.0290918 -0.0979058 -0.99477 -0.0953002 -0.0554381 -0.993904 
-0.126401 0.052688 -0.990579 -0.0464277 0.0911545 -0.994754 -0.0929974 -0.194851 -0.976414 
-0.0857873 -0.217681 -0.972243 0.108506 -0.151358 -0.982506 0.08554 0.0111166 -0.996273 
0.0691625 -0.0361591 -0.99695 0.0156486 -0.0753177 -0.997037 -0.0482503 -0.15709 -0.986405 
-0.00782974 -0.147151 -0.989083 -0.0943959 -0.293172 -0.951388 -0.114159 -0.234694 -0.965343 
-0.0614057 -0.184935 -0.98083 0.32931 -0.263061 -0.906837 0.314114 -0.275479 -0.908539 
0.304173 -0.256391 -0.917465 0.0728443 -0.126702 -0.989263 0.0534797 -0.0293084 -0.998139 
-0.0252947 0.0554822 -0.998139 -0.137277 0.107485 -0.984684 -0.113712 0.0672493 -0.991235 
-0.159006 0.0407873 -0.986435 0.0804874 0.0278771 -0.996366 -0.047274 0.0890243 -0.994907 
0.0827409 0.0262202 -0.996226 -0.0430891 -0.129545 -0.990637 0.0168533 -0.0550119 -0.998343 
-0.0528173 -0.137675 -0.989068 -0.0560209 -0.141459 -0.988358 -0.0451847 -0.112229 -0.992655 
0.258665 -0.276511 -0.925545 0.241624 -0.305577 -0.921 0.226885 -0.253671 -0.940305 
0.183153 -0.389676 -0.902556 0.0877531 -0.143414 -0.985765 0.0138357 -0.129347 -0.991503 
-0.0535169 -0.0508536 -0.997271 -0.0926649 0.0264176 -0.995347 -0.0626836 0.0800595 -0.994817 
-0.0535797 -0.110205 -0.992464 -0.0600256 -0.0919446 -0.993953 -0.0416512 -0.0611869 -0.997257 
0.164149 -0.389713 -0.906189 0.0661296 -0.358536 -0.931171 0.0561469 -0.328406 -0.942867 
0.0478168 -0.327441 -0.943661 0.0256686 -0.263747 -0.96425 -0.0139509 -0.270942 -0.962495 
-0.0269477 -0.185679 -0.982241 -0.130498 -0.188549 -0.973355 -0.116373 -0.212738 -0.970154 
-0.111533 -0.162028 -0.980463 
