# vtk DataFile Version 4.2
vtk output
ASCII
DATASET POLYDATA
POINTS 544 float
-15.4897 -45.9206 -14.2673 -7.42689 -45.9206 -15.2708 0.63587 -45.9206 -15.2582 
8.69863 -45.9206 -13.8068 -31.6152 -37.8579 -15.7539 -23.5524 -37.8579 -17.6366 
-15.4897 -37.8579 -17.9363 -7.42689 -37.8579 -17.4615 0.63587 -37.8579 -17.0057 
8.69863 -37.8579 -16.1291 16.7614 -37.8579 -13.5777 -39.6779 -29.7951 -15.776 
-31.6152 -29.7951 -18.3481 -23.5524 -29.7951 -19.6121 -15.4897 -29.7951 -19.0798 
-7.42689 -29.7951 -18.472 0.63587 -29.7951 -17.6467 8.69863 -29.7951 -16.1779 
16.7614 -29.7951 -14.7034 -39.6779 -21.7323 -18.2108 -31.6152 -21.7323 -19.7626 
-23.5524 -21.7323 -19.9776 -15.4897 -21.7323 -19.2238 -7.42689 -21.7323 -18.365 
0.63587 -21.7323 -17.2346 8.69863 -21.7323 -15.4008 16.7614 -21.7323 -14.1129 
24.8242 -21.7323 -14.1158 -47.7407 -13.6696 -15.6018 -39.6779 -13.6696 -18.9345 
-31.6152 -13.6696 -19.8307 -23.5524 -13.6696 -19.628 -15.4897 -13.6696 -18.8819 
-7.42689 -13.6696 -18.4241 0.63587 -13.6696 -18.2603 8.69863 -13.6696 -13.768 
16.7614 -13.6696 -13.7473 24.8242 -13.6696 -14.4628 32.8869 -13.6696 -14.8636 
40.9497 -13.6696 -13.595 -47.7407 -5.60682 -16.8528 -39.6779 -5.60682 -19.5132 
-31.6152 -5.60682 -20.0008 -23.5524 -5.60682 -19.4474 -15.4897 -5.60682 -18.884 
-7.42689 -5.60682 -20.8156 0.63587 -5.60682 -18.51 8.69863 -5.60682 -14.7403 
16.7614 -5.60682 -13.3828 24.8242 -5.60682 -14.4875 32.8869 -5.60682 -14.832 
40.9497 -5.60682 -13.9716 -47.7407 2.45595 -17.0157 -39.6779 2.45595 -19.4799 
-31.6152 2.45595 -19.8849 -23.5524 2.45595 -19.2724 -15.4897 2.45595 -18.8233 
-7.42689 2.45595 -20.0366 0.63587 2.45595 -14.1928 8.69863 2.45595 -14.3267 
24.8242 2.45595 -13.7299 32.8869 2.45595 -14.4226 40.9497 2.45595 -13.7169 
-47.7407 10.5187 -16.0058 -39.6779 10.5187 -18.8453 -31.6152 10.5187 -19.6133 
-23.5524 10.5187 -19.5318 -15.4897 10.5187 -18.9681 -7.42689 10.5187 -17.7172 
0.63587 10.5187 -16.2741 24.8242 10.5187 -13.3425 32.8869 10.5187 -14.2014 
40.9497 10.5187 -13.7231 -47.7407 18.5815 -13.2047 -39.6779 18.5815 -18.0028 
-31.6152 18.5815 -19.7032 -23.5524 18.5815 -20.2237 -15.4897 18.5815 -19.4107 
-7.42689 18.5815 -17.1265 0.63587 18.5815 -15.4894 8.69863 18.5815 -13.2518 
24.8242 18.5815 -13.3803 -39.6779 26.6442 -15.5037 -31.6152 26.6442 -18.58 
-23.5524 26.6442 -19.8799 -15.4897 26.6442 -19.2365 -7.42689 26.6442 -17.7748 
0.63587 26.6442 -16.1502 8.69863 26.6442 -14.5487 16.7614 26.6442 -13.3248 
-31.6152 34.707 -16.5879 -23.5524 34.707 -18.3287 -15.4897 34.707 -18.3162 
-7.42689 34.707 -17.3097 0.63587 34.707 -15.829 8.69863 34.707 -14.1375 
-23.5524 42.7698 -14.9476 -15.4897 42.7698 -15.7161 -7.42689 42.7698 -15.1295 
0.63587 42.7698 -13.6889 -15.4897 -47.6269 -12.9407 -7.42689 -49.3794 -12.9407 
0.63587 -49.0015 -12.9407 0.63587 -53.9834 -5.55897 8.69863 -47.4132 -12.9407 
-31.6152 -41.5723 -12.9407 -21.0407 -45.9206 -12.9407 -23.5524 -44.9636 -12.9407 
-23.5524 -45.9206 -11.7728 10.9483 -45.9206 -12.9407 16.7614 -39.5608 -12.9407 
16.7614 -45.9206 -9.83509 -36.2772 -37.8579 -12.9407 -39.6779 -34.4179 -12.9407 
-39.6779 -37.8579 -7.44327 18.6109 -37.8579 -12.9407 24.8242 -37.8579 -10.6439 
32.8869 -37.8579 -5.6291 -43.0976 -29.7951 -12.9407 23.4883 -29.7951 -12.9407 
24.8242 -27.961 -12.9407 24.8242 -29.7951 -12.5896 32.8869 -29.7951 -10.6738 
40.9497 -29.7951 -6.31622 -47.5533 -21.7323 -12.9407 -47.7407 -21.4025 -12.9407 
-47.7407 -21.7323 -12.6725 32.82 -21.7323 -12.9407 32.8869 -21.689 -12.9407 
32.8869 -21.7323 -12.9307 40.9497 -16.0499 -12.9407 40.9497 -21.7323 -11.1086 
49.0124 -21.7323 -5.91795 -50.9178 -13.6696 -12.9407 42.3918 -13.6696 -12.9407 
49.0124 -13.6696 -9.10447 -52.3217 -5.60682 -12.9407 -55.8035 -5.60682 -5.0189 
16.7614 -2.67378 -12.9407 44.1374 -5.60682 -12.9407 49.0124 -5.60682 -11.1505 
-52.7246 2.45595 -12.9407 -55.8035 2.45595 -6.91119 13.2902 2.45595 -12.9407 
8.69863 7.94245 -12.9407 20.8494 2.45595 -12.9407 16.7614 2.45595 -12.125 
43.4832 2.45595 -12.9407 49.0124 2.45595 -11.1012 57.0752 2.45595 -4.91832 
-51.5933 10.5187 -12.9407 7.58761 10.5187 -12.9407 8.69863 15.6023 -12.9407 
8.69863 10.5187 -12.3898 22.8472 10.5187 -12.9407 16.7614 10.5187 -11.7082 
32.8869 18.3502 -12.9407 43.0372 10.5187 -12.9407 40.9497 14.3136 -12.9407 
49.0124 10.5187 -10.1937 -48.0522 18.5815 -12.9407 -47.7407 19.0714 -12.9407 
12.4665 18.5815 -12.9407 20.1818 18.5815 -12.9407 16.7614 22.3087 -12.9407 
16.7614 18.5815 -12.6206 32.2619 18.5815 -12.9407 24.8242 21.244 -12.9407 
32.8869 18.5815 -12.9031 40.9497 18.5815 -11.8786 49.0124 18.5815 -8.48858 
-42.9573 26.6442 -12.9407 -39.6779 31.5583 -12.9407 19.1563 26.6442 -12.9407 
16.7614 29.3919 -12.9407 24.8242 26.6442 -12.1169 32.8869 26.6442 -11.5268 
40.9497 26.6442 -9.80003 -37.0944 34.707 -12.9407 -39.6779 34.707 -9.52955 
-31.6152 40.3556 -12.9407 13.6739 34.707 -12.9407 8.69863 40.3447 -12.9407 
16.7614 34.707 -12.1786 24.8242 34.707 -10.3351 32.8869 34.707 -8.11334 
-28.2251 42.7698 -12.9407 -31.6152 42.7698 -10.1082 -23.5524 45.7065 -12.9407 
-15.4897 46.3806 -12.9407 -7.42689 46.4254 -12.9407 5.2549 42.7698 -12.9407 
0.63587 44.048 -12.9407 8.69863 42.7698 -12.3542 16.7614 42.7698 -8.87918 
24.8242 42.7698 -6.31656 -15.4897 50.8325 -8.08228 -7.42689 50.8325 -8.98346 
0.63587 50.8325 -7.3789 8.69863 50.8325 -5.2231 0.63587 -54.3376 -4.87794 
-23.5524 -49.2665 -4.87794 -15.4897 -51.7307 -4.87794 -3.3423 -53.9834 -4.87794 
-7.42689 -53.6025 -4.87794 3.86159 -53.9834 -4.87794 0.63587 -53.9834 -3.2416 
8.69863 -53.3923 -4.87794 16.7614 -50.2979 -4.87794 -39.6779 -39.0905 -4.87794 
-30.8512 -45.9206 -4.87794 -31.6152 -45.5259 -4.87794 24.7684 -45.9206 -4.87794 
24.8242 -45.8812 -4.87794 24.8242 -45.9206 -4.60293 32.8869 -38.5762 -4.87794 
-40.8151 -37.8579 -4.87794 -39.6779 -37.8579 -1.76186 33.7734 -37.8579 -4.87794 
40.9497 -31.3742 -4.87794 -46.5759 -29.7951 -4.87794 -47.7407 -27.6667 -4.87794 
42.4013 -29.7951 -4.87794 49.0124 -22.9755 -4.87794 -50.8951 -21.7323 -4.87794 
49.9298 -21.7323 -4.87794 -53.7415 -13.6696 -4.87794 -55.8035 -5.78017 -4.87794 
53.6156 -13.6696 -4.87794 -55.8467 -5.60682 -4.87794 -55.8035 -5.60682 -4.74409 
56.8402 -5.60682 -4.87794 57.0752 1.2329 -4.87794 57.0752 -5.60682 -4.21043 
-56.5012 2.45595 -4.87794 -55.8035 6.77976 -4.87794 -55.8035 2.45595 -2.67862 
57.1056 2.45595 -4.87794 57.0752 2.64523 -4.87794 -55.1684 10.5187 -4.87794 
55.3992 10.5187 -4.87794 57.0752 10.5187 1.20498 -51.8218 18.5815 -4.87794 
-47.7407 25.9637 -4.87794 52.4954 18.5815 -4.87794 49.0124 24.6852 -4.87794 
-47.3313 26.6442 -4.87794 47.4917 26.6442 -4.87794 40.9497 34.1536 -4.87794 
49.0124 26.6442 -0.674129 -42.1942 34.707 -4.87794 -39.6779 38.1533 -4.87794 
40.1357 34.707 -4.87794 32.8869 38.6274 -4.87794 40.9497 34.707 -3.50857 
-35.4705 42.7698 -4.87794 -31.6152 45.962 -4.87794 -23.5524 50.603 -4.87794 
16.7614 47.2012 -4.87794 27.474 42.7698 -4.87794 24.8242 44.1383 -4.87794 
-22.7798 50.8325 -4.87794 -15.4897 52.7202 -4.87794 -7.42689 53.3297 -4.87794 
0.63587 52.5874 -4.87794 9.26769 50.8325 -4.87794 8.69863 51.0436 -4.87794 
-23.5524 -47.1338 3.18482 -15.4897 -50.0185 3.18482 -7.42689 -51.8183 3.18482 
0.63587 -52.3136 3.18482 8.69863 -51.9505 3.18482 16.7614 -50.3641 3.18482 
24.8242 -46.7046 3.18482 -26.0621 -45.9206 3.18482 -31.6152 -42.8342 3.18482 
-23.5524 -45.9206 4.82106 -15.4897 -45.9206 8.72447 -7.42689 -45.9206 9.67259 
0.63587 -45.9206 10.3984 8.69863 -45.9206 10.1663 16.7614 -45.9206 8.78741 
26.0833 -45.9206 3.18482 24.8242 -45.9206 4.80471 32.8869 -41.3045 3.18482 
-37.5424 -37.8579 3.18482 -39.6779 -35.5565 3.18482 -31.6152 -37.8579 8.31733 
37.1717 -37.8579 3.18482 32.8869 -37.8579 9.07031 40.9497 -34.5166 3.18482 
-43.7933 -29.7951 3.18482 -47.7407 -22.2752 3.18482 -39.6779 -29.7951 7.67456 
45.7058 -29.7951 3.18482 40.9497 -29.7951 11.2272 49.0124 -25.9007 3.18482 
-48.0114 -21.7323 3.18482 -47.7407 -21.7323 3.53546 -39.6779 -21.7323 9.93921 
52.0654 -21.7323 3.18482 49.0124 -21.7323 9.91305 -50.9825 -13.6696 3.18482 
-47.7407 -13.6696 6.9524 56.352 -13.6696 3.18482 57.0752 -11.4321 3.18482 
-52.6183 -5.60682 3.18482 -47.7407 -5.60682 8.81342 58.8751 -5.60682 3.18482 
57.0752 -5.60682 8.87461 -53.4683 2.45595 3.18482 -47.7407 2.45595 8.89162 
58.8761 2.45595 3.18482 57.0752 2.45595 8.62665 -52.4053 10.5187 3.18482 
-47.7407 10.5187 9.15154 57.4858 10.5187 3.18482 57.0752 11.7716 3.18482 
57.0752 10.5187 4.31347 -49.7535 18.5815 3.18482 -47.7407 22.5917 3.18482 
-47.7407 18.5815 5.92778 54.5835 18.5815 3.18482 -45.4297 26.6442 3.18482 
-39.6779 26.6442 9.59604 49.8237 26.6442 3.18482 49.0124 27.6645 3.18482 
49.0124 26.6442 4.84215 -40.4894 34.707 3.18482 -39.6779 35.8292 3.18482 
-39.6779 34.707 4.26613 32.8869 42.1163 3.18482 42.534 34.707 3.18482 
40.9497 36.15 3.18482 40.9497 34.707 6.26831 -33.5539 42.7698 3.18482 
-31.6152 44.5097 3.18482 -31.6152 42.7698 5.2952 -23.5524 49.3528 3.18482 
-23.5524 42.7698 10.5967 16.7614 49.6602 3.18482 31.7555 42.7698 3.18482 
24.8242 46.3962 3.18482 -20.0247 50.8325 3.18482 -15.4897 52.3884 3.18482 
-15.4897 50.8325 6.18497 -7.42689 53.675 3.18482 -7.42689 50.8325 9.60202 
0.63587 53.2836 3.18482 0.63587 50.8325 8.26083 12.7939 50.8325 3.18482 
8.69863 51.9986 3.18482 8.69863 50.8325 6.70724 -23.5524 -37.905 11.2476 
-15.4897 -42.378 11.2476 -7.42689 -43.6779 11.2476 0.63587 -44.6751 11.2476 
8.69863 -44.4327 11.2476 16.7614 -42.9746 11.2476 24.8242 -41.1255 11.2476 
-23.6429 -37.8579 11.2476 -31.6152 -31.091 11.2476 -23.5524 -37.8579 11.275 
-15.4897 -37.8579 13.5789 -7.42689 -37.8579 14.5325 0.63587 -37.8579 15.0884 
8.69863 -37.8579 15.1131 16.7614 -37.8579 14.7599 30.0237 -37.8579 11.2476 
24.8242 -37.8579 13.476 32.8869 -36.2395 11.2476 -32.6809 -29.7951 11.2476 
-31.6152 -29.7951 11.6951 -23.5524 -29.7951 14.2297 -15.4897 -29.7951 15.8465 
-7.42689 -29.7951 16.7863 0.63587 -29.7951 17.0917 8.69863 -29.7951 17.4425 
16.7614 -29.7951 18.1712 24.8242 -29.7951 17.5883 40.9324 -29.7951 11.2476 
[...]
POINT_DATA 544
SCALARS ImageScalars float
LOOKUP_TABLE default
0 0 0 0 0 0 0 0 0 
0 0 0 0 0 0 0 0 0 
0 0 0 0 0 0 0 0 0 
0 0 0 0 0 0 0 0 0 
0 0 0 0 0 0 0 0 0 
0 0 0 0 0 0 0 0 0 
0 0 0 0 0 0 0 0 0 
0 0 0 0 0 0 0 0 0 
0 0 0 0 0 0 0 0 0 
0 0 0 0 0 0 0 0 0 
0 0 0 0 0 0 0 0 0 
0 0 0 0 0 0 0 0 0 
0 0 0 0 0 0 0 0 0 
0 0 0 0 0 0 0 0 0 
0 0 0 0 0 0 0 0 0 
0 0 0 0 0 0 0 0 0 
0 0 0 0 0 0 0 0 0 
0 0 0 0 0 0 0 0 0 
0 0 0 0 0 0 0 0 0 
0 0 0 0 0 0 0 0 0 
0 0 0 0 0 0 0 0 0 
0 0 0 0 0 0 0 0 0 
0 0 0 0 0 0 0 0 0 
0 0 0 0 0 0 0 0 0 
0 0 0 0 0 0 0 0 0 
0 0 0 0 0 0 0 0 0 
0 0 0 0 0 0 0 0 0 
0 0 0 0 0 0 0 0 0 
0 0 0 0 0 0 0 0 0 
0 0 0 0 0 0 0 0 0 
0 0 0 0 0 0 0 0 0 
0 0 0 0 0 0 0 0 0 
0 0 0 0 0 0 0 0 0 
0 0 0 0 0 0 0 0 0 
0 0 0 0 0 0 0 0 0 
0 0 0 0 0 0 0 0 0 
0 0 0 0 0 0 0 0 0 
0 0 0 0 0 0 0 0 0 
0 0 0 0 0 0 0 0 0 
0 0 0 0 0 0 0 0 0 
0 0 0 0 0 0 0 0 0 
0 0 0 0 0 0 0 0 0 
0 0 0 0 0 0 0 0 0 
0 0 0 0 0 0 0 0 0 
0 0 0 0 0 0 0 0 0 
0 0 0 0 0 0 0 0 0 
0 0 0 0 0 0 0 0 0 
0 0 0 0 0 0 0 0 0 
0 0 0 0 0 0 0 0 0 
0 0 0 0 0 0 0 0 0 
0 0 0 0 0 0 0 0 0 
0 0 0 0 0 0 0 0 0 
0 0 0 0 0 0 0 0 0 
0 0 0 0 0 0 0 0 0 
0 0 0 0 0 0 0 0 0 
0 0 0 0 0 0 0 0 0 
0 0 0 0 0 0 0 0 0 
0 0 0 0 0 0 0 0 0 
0 0 0 0 0 0 0 0 0 
0 0 0 0 0 0 0 0 0 
0 0 0 0 
NORMALS Normals float
-0.168088 -0.600296 -0.781915 -0.0582086 -0.453748 -0.889227 0.090316 -0.44166 -0.892625 
0.26877 -0.427035 -0.863368 -0.333127 -0.480177 -0.811453 -0.127108 -0.39219 -0.91106 
0.0123716 -0.267369 -0.963515 0.0590574 -0.196776 -0.978668 0.0842292 -0.150431 -0.985026 
0.197864 -0.143458 -0.969675 0.311933 -0.229992 -0.921847 -0.509366 -0.357209 -0.78291 
-0.211976 -0.225569 -0.950886 -0.0476356 -0.13013 -0.990352 0.0686271 -0.0828837 -0.994193 
0.0882514 -0.0536549 -0.994652 0.140194 -0.0140379 -0.990025 0.18251 0.0441336 -0.982213 
0.215303 -0.0285333 -0.97613 -0.373553 -0.186772 -0.908611 -0.0928783 -0.0961391 -0.991025 
0.0339058 -6.92088e-05 -0.999425 0.0993733 0.0122565 -0.994975 0.120622 0.00296675 -0.992694 
0.182929 -0.0298557 -0.982673 0.190261 0.127611 -0.973404 0.0788249 0.0600454 -0.995079 
0.0706039 -0.112205 -0.991174 -0.591683 -0.219513 -0.775709 -0.231578 -0.0683537 -0.970412 
-0.0461256 -0.0145938 -0.998829 0.058669 0.0327947 -0.997739 0.0742144 0.0209709 -0.997022 
0.0386009 -0.152218 -0.987593 0.250899 -0.0815368 -0.964573 0.270527 0.0685111 -0.960271 
-0.0421803 0.04563 -0.998067 -0.0697566 -0.0239239 -0.997277 0.0591709 -0.117012 -0.991366 
0.300296 -0.156228 -0.940965 -0.500597 -0.0870074 -0.861297 -0.167765 -0.0369019 -0.985136 
0.0054911 -0.00333636 -0.999979 0.0694495 0.0221289 -0.99734 -0.083951 0.00377886 -0.996463 
-0.00783193 -0.110182 -0.993881 0.329453 0.234928 -0.914478 0.32627 -0.0340072 -0.944665 
-0.0151388 0.0977892 -0.995092 -0.0901297 0.0433883 -0.994984 0.0309782 0.027214 -0.99915 
0.20206 -0.008424 -0.979337 -0.470291 0.0562394 -0.880718 -0.153002 0.0451284 -0.987195 
0.0140532 0.0240154 -0.999613 0.0659789 -0.00525085 -0.997807 -0.0352636 -0.00549683 -0.999363 
0.238116 0.197107 -0.951025 0.316036 0.102259 -0.94322 0.171457 0.131847 -0.976329 
-0.142254 0.0723339 -0.987184 0.00217422 0.0388537 -0.999243 0.186198 0.0147315 -0.982402 
-0.526094 0.207761 -0.824658 -0.204976 0.0789134 -0.975581 -0.0456153 0.0115346 -0.998892 
0.0399896 -0.0587486 -0.997472 0.106739 -0.0359742 -0.993636 0.166163 0.159574 -0.973101 
0.25888 -0.0623368 -0.963896 -0.15178 0.020359 -0.988205 -0.0217941 0.0938321 -0.995349 
0.216956 0.0987338 -0.971175 -0.624108 0.398811 -0.671892 -0.349278 0.197242 -0.916024 
-0.124041 0.0677295 -0.989963 0.0194755 -0.0210466 -0.999589 0.182635 -0.0166703 -0.983039 
0.246309 -0.00554551 -0.969176 0.219953 0.00346585 -0.975504 0.181105 -0.124087 -0.975604 
-0.0182708 0.079892 -0.996636 -0.51847 0.330563 -0.788617 -0.249004 0.168618 -0.953711 
-0.0413572 0.117251 -0.992241 0.131781 0.0662666 -0.989061 0.188203 -0.00988078 -0.98208 
0.196399 -0.0208827 -0.980302 0.171561 -0.0479686 -0.984005 0.155287 0.0240203 -0.987577 
-0.365533 0.370251 -0.85399 -0.0884076 0.282517 -0.95518 0.062379 0.192301 -0.979351 
0.150298 0.149008 -0.977347 0.188815 0.137022 -0.972406 0.218087 0.128837 -0.967388 
-0.204724 0.526841 -0.82494 -0.0115665 0.471411 -0.881838 0.115818 0.386436 -0.915016 
0.157918 0.389719 -0.907293 -0.18834 -0.681001 -0.707648 -0.0624915 -0.658024 -0.750399 
0.0746078 -0.619448 -0.781484 0.0136468 -0.980898 -0.194043 0.263607 -0.502543 -0.823385 
-0.397976 -0.666742 -0.630134 -0.248133 -0.664064 -0.7053 -0.26718 -0.654374 -0.707397 
-0.299484 -0.736139 -0.606967 0.306607 -0.446698 -0.840507 0.330653 -0.283397 -0.900197 
0.418312 -0.605055 -0.677439 -0.534298 -0.595365 -0.600055 -0.617953 -0.523519 -0.586569 
-0.71689 -0.675998 -0.170575 0.32022 -0.247994 -0.914308 0.398588 -0.363356 -0.842081 
0.566367 -0.644468 -0.513702 -0.672693 -0.420916 -0.608534 0.229604 -0.165966 -0.959029 
0.196433 -0.174037 -0.964948 0.233715 -0.194511 -0.95265 0.307411 -0.35231 -0.883955 
0.588001 -0.582453 -0.561251 -0.677389 -0.376828 -0.631779 -0.681546 -0.372716 -0.629744 
-0.694286 -0.383043 -0.609299 0.168725 -0.235375 -0.957147 0.168899 -0.235786 -0.957015 
0.169565 -0.236411 -0.956743 0.307531 -0.201742 -0.929906 0.356836 -0.338385 -0.870726 
0.704866 -0.468217 -0.532858 -0.755049 -0.236218 -0.611639 0.343242 -0.169918 -0.923749 
0.591229 -0.255612 -0.764925 -0.772093 -0.0928863 -0.628684 -0.986697 -0.162567 0.000500437 
-0.00998363 0.101216 -0.994814 0.30045 -0.0387383 -0.95301 0.48451 -0.104825 -0.868483 
-0.76459 0.0392853 -0.643319 -0.990492 0.0428739 -0.130719 0.0668809 0.119442 -0.990586 
0.284437 0.084053 -0.955003 -0.0643805 0.0895134 -0.993903 -0.000214641 0.10616 -0.994349 
0.258642 0.0236506 -0.965684 0.455128 0.0530518 -0.888844 0.866205 0.0680538 -0.495032 
-0.741064 0.215814 -0.635805 0.336571 0.0336568 -0.941056 0.232242 -0.0711963 -0.970049 
0.32636 0.043439 -0.944247 -0.12857 0.0078923 -0.991669 -0.0646441 -0.0323676 -0.997383 
0.0824702 0.154193 -0.984593 0.282484 0.0977686 -0.954277 0.209665 0.145618 -0.966869 
0.519923 0.126053 -0.844861 -0.636191 0.404335 -0.657095 -0.635419 0.406489 -0.656514 
0.090452 -0.116678 -0.989042 -0.0130069 -0.0236764 -0.999635 0.0661438 -0.042489 -0.996905 
-0.00952058 -0.0984027 -0.995101 0.0776998 0.150097 -0.985613 0.0214052 0.113437 -0.993315 
0.0859431 0.156135 -0.98399 0.22029 0.21719 -0.950947 0.598908 0.332746 -0.728416 
-0.653181 0.393029 -0.647212 -0.623504 0.449097 -0.639964 0.137387 0.0725158 -0.987859 
0.182147 0.0951055 -0.978661 0.100564 0.177561 -0.978958 0.12168 0.246412 -0.961496 
0.391783 0.398626 -0.829218 -0.585006 0.491049 -0.645476 -0.737107 0.552954 -0.388478 
-0.478228 0.573588 -0.665053 0.22635 0.189653 -0.955404 0.237528 0.284827 -0.928684 
0.229344 0.234529 -0.944668 0.207861 0.323517 -0.923109 0.339159 0.532207 -0.775711 
-0.380822 0.606177 -0.698229 -0.547653 0.70194 -0.455364 -0.221793 0.650003 -0.726846 
-0.0289693 0.621692 -0.782726 0.0822027 0.560538 -0.824039 0.205542 0.370801 -0.905682 
0.152959 0.44347 -0.883141 0.2502 0.367899 -0.895572 0.330283 0.544307 -0.771131 
0.361171 0.689432 -0.627884 -0.125496 0.891403 -0.43549 0.0349319 0.845516 -0.532807 
0.149753 0.846022 -0.511685 0.272749 0.883694 -0.380386 0.0104021 -0.988509 -0.1508 
-0.344524 -0.936741 -0.0618088 -0.258942 -0.962664 -0.0789124 -0.0731183 -0.990144 -0.119453 
-0.157991 -0.983658 -0.0863431 0.0908234 -0.985125 -0.145875 0.00843942 -0.99903 -0.0432285 
0.219356 -0.965138 -0.142796 0.4143 -0.858549 -0.302076 -0.716289 -0.697364 -0.0247705 
-0.490663 -0.870212 -0.0445058 -0.508587 -0.860051 -0.040637 0.544843 -0.756591 -0.361547 
0.545632 -0.755602 -0.362426 0.546473 -0.763805 -0.343466 0.580915 -0.668182 -0.464834 
-0.741111 -0.671034 -0.0216285 -0.725157 -0.669649 0.160367 0.581411 -0.664246 -0.469829 
0.618664 -0.621467 -0.480659 -0.862022 -0.50671 -0.0127664 -0.878283 -0.478051 -0.00930203 
0.63047 -0.609052 -0.48121 0.720446 -0.505719 -0.474558 -0.914726 -0.404037 0.005533 
0.737414 -0.480808 -0.474388 -0.952481 -0.303711 0.0232327 -0.986111 -0.165856 0.00875808 
0.772253 -0.333664 -0.540641 -0.986631 -0.16278 0.00787538 -0.986437 -0.163387 0.015696 
0.846866 -0.16765 -0.50469 0.867868 0.0323082 -0.495743 0.873287 -0.168909 -0.45699 
-0.999058 0.0400001 -0.0168115 -0.986108 0.16518 -0.0175367 -0.991341 0.0344382 0.126716 
0.867651 0.0680455 -0.492495 0.867263 0.0713956 -0.492705 -0.96116 0.274913 -0.0243608 
0.828663 0.214644 -0.516958 0.968408 0.244208 -0.0504874 -0.900029 0.433074 -0.0489358 
-0.859219 0.50254 -0.0958963 0.765975 0.399828 -0.503408 0.698186 0.520778 -0.49125 
-0.855284 0.508821 -0.0979343 0.670265 0.546444 -0.50214 0.537706 0.67232 -0.508782 
0.783296 0.601739 -0.156069 -0.812794 0.572746 -0.106429 -0.774731 0.622803 -0.109126 
0.527273 0.676035 -0.514743 0.467094 0.673606 -0.57278 0.576882 0.712241 -0.3999 
-0.670761 0.731432 -0.122826 -0.581891 0.802463 -0.132125 -0.364351 0.92186 -0.131993 
0.365302 0.76708 -0.527392 0.421638 0.732381 -0.534639 0.38173 0.754242 -0.53423 
-0.34339 0.928141 -0.14366 -0.156234 0.956542 -0.246209 0.00512892 0.95406 -0.299572 
0.145843 0.918977 -0.366348 0.279606 0.887543 -0.366181 0.272532 0.892173 -0.360214 
-0.379683 -0.809498 0.447832 -0.251482 -0.872085 0.419792 -0.137371 -0.887849 0.43915 
-0.005747 -0.899368 0.437155 0.114335 -0.910001 0.39853 0.297462 -0.904255 0.30633 
0.490133 -0.853391 0.177465 -0.415018 -0.790899 0.44971 -0.494645 -0.727132 0.47603 
-0.379117 -0.765464 0.519938 -0.203521 -0.691738 0.692876 -0.0786918 -0.648962 0.75674 
-0.0232026 -0.633235 0.773612 0.0769948 -0.656716 0.750197 0.181108 -0.740593 0.647087 
0.508401 -0.844959 0.16605 0.466893 -0.843382 0.265928 0.586319 -0.802862 0.107898 
-0.633721 -0.613379 0.471343 -0.675787 -0.561742 0.47724 -0.442284 -0.526421 0.72613 
0.633788 -0.769013 0.0832566 0.490875 -0.741427 0.457524 0.676196 -0.733747 0.0661328 
-0.733812 -0.458617 0.501188 -0.77214 -0.389829 0.50183 -0.590677 -0.37917 0.712272 
0.729613 -0.682522 0.0427585 0.565693 -0.613175 0.551369 0.782452 -0.620319 0.0545354 
-0.776096 -0.381904 0.50182 -0.764715 -0.381537 0.51927 -0.49517 -0.231074 0.837503 
0.830992 -0.553105 0.0593891 0.728868 -0.503855 0.463553 -0.808685 -0.254997 0.530099 
-0.688624 -0.226784 0.688742 0.928585 -0.370218 0.0258502 0.950348 -0.309913 0.0281616 
-0.815349 -0.14138 0.561442 -0.640105 -0.0937533 0.762545 0.987899 -0.151246 0.0343496 
0.905857 -0.145487 0.397814 -0.821045 0.0122519 0.570732 -0.614012 -0.0139784 0.789173 
0.995325 0.0821283 0.0508265 0.915568 0.103133 0.388716 -0.836925 0.211547 0.504782 
-0.665015 0.119255 0.737247 0.966686 0.244659 0.0752302 0.958534 0.273127 0.0813323 
0.957151 0.252026 0.142634 -0.825942 0.357231 0.436126 -0.814701 0.40697 0.413083 
-0.759914 0.337378 0.555614 0.890422 0.438364 0.122417 -0.790946 0.458231 0.405498 
-0.590541 0.348316 0.727968 0.799789 0.58847 0.118493 0.787545 0.605239 0.116009 
0.782696 0.581968 0.220681 -0.757751 0.532087 0.377752 -0.746142 0.548671 0.377138 
-0.735951 0.521981 0.431174 0.54016 0.841525 0.00791507 0.67959 0.726777 0.0997602 
0.654258 0.751078 0.0884781 0.657784 0.696695 0.286247 -0.629319 0.682707 0.371308 
-0.589029 0.721334 0.364312 -0.576223 0.661014 0.480652 -0.39384 0.849451 0.351175 
-0.385901 0.546638 0.743147 0.319573 0.947312 0.0217576 0.521692 0.853031 0.0132313 
0.427895 0.903262 0.0319995 -0.321977 0.896654 0.303879 -0.241834 0.933418 0.26504 
-0.267165 0.866669 0.421316 -0.0555461 0.979943 0.191381 -0.0714858 0.824511 0.561312 
0.103867 0.978057 0.180601 0.0720696 0.884488 0.460964 0.270659 0.960627 0.0627686 
0.218738 0.970329 0.103027 0.174295 0.940247 0.292501 -0.272043 -0.430481 0.860627 
-0.186323 -0.527831 0.82866 -0.0738853 -0.556579 0.827503 -0.0243997 -0.580184 0.81412 
0.0648635 -0.591096 0.803989 0.116832 -0.609495 0.784134 0.285004 -0.647103 0.707128 
-0.273042 -0.429694 0.860704 -0.350096 -0.297898 0.888082 -0.271565 -0.429142 0.861446 
-0.184615 -0.376078 0.90801 -0.0881838 -0.374925 0.922851 -0.0326192 -0.354764 0.934387 
0.0180991 -0.382807 0.923651 0.0877823 -0.469346 0.87864 0.376857 -0.658961 0.650961 
0.231764 -0.549055 0.803009 0.42656 -0.664184 0.613927 -0.363949 -0.273593 0.89033 
-0.339632 -0.264118 0.902714 -0.24165 -0.238049 0.940711 -0.151862 -0.199557 0.968047 
-0.0745096 -0.192795 0.978406 -0.0405033 -0.170033 0.984606 -0.0635563 -0.197844 0.978171 
-0.0105971 -0.266171 0.963868 0.119835 -0.341496 0.932212 0.564818 -0.612554 0.552954 
0.286583 -0.423511 0.859365 0.565059 -0.612379 0.552901 -0.417882 -0.207366 0.884519 
-0.427551 -0.199709 0.881655 -0.302179 -0.173686 0.937294 -0.200749 -0.087725 0.975707 
-0.149544 -0.0758246 0.985843 -0.0717878 -0.131956 0.988653 -0.0426048 -0.105423 0.993514 
-0.0865964 -0.132207 0.987432 0.182769 -0.218353 0.958602 0.679198 -0.47552 0.559081 
0.393041 -0.332588 0.857265 0.688013 -0.458915 0.562171 -0.432816 -0.193071 0.880565 
-0.396899 -0.181235 0.899791 -0.223274 -0.0874102 0.970829 -0.155067 -0.0319634 0.987387 
-0.195414 -0.0248699 0.980405 -0.103549 -0.140892 0.984595 -0.0392579 -0.0917882 0.995004 
0.277613 -0.179901 0.943698 0.726785 -0.347375 0.592549 0.563564 -0.294372 0.771842 
-0.482923 -0.0861193 0.871418 -0.327702 -0.0845379 0.940992 -0.167388 -0.0555019 0.984328 
-0.136501 -0.0348407 0.990027 -0.271421 0.00229336 0.962458 0.80988 -0.135558 0.570717 
0.485633 -0.0975759 0.8687 -0.473071 -0.020825 0.880778 -0.35472 -0.0210222 0.934736 
-0.174282 -0.0338742 0.984113 -0.0932315 -0.0291627 0.995217 -0.250905 0.0469608 0.966872 
-0.103144 0.0192568 0.99448 0.804002 0.112132 0.583958 0.479283 0.117105 0.869813 
-0.528756 0.0869925 0.844304 -0.342735 0.0657151 0.937131 -0.175351 0.0182541 0.984337 
-0.0617562 -0.0095534 0.998046 -0.130866 0.00597916 0.991382 -0.174182 0.13483 0.975439 
-0.0832126 -0.0291343 0.996106 0.288071 0.174762 0.941527 0.700498 0.278444 0.657093 
0.531814 0.249216 0.809361 -0.493826 0.233791 0.837543 -0.495685 0.260799 0.828421 
-0.442682 0.203722 0.87323 -0.248792 0.101334 0.963241 -0.106319 0.0331935 0.993778 
-0.108887 -0.0437199 0.993092 -0.165895 -0.0147376 0.986033 0.232835 0.121972 0.964837 
0.372666 0.287425 0.88233 0.625277 0.374821 0.684498 0.622961 0.378866 0.684383 
0.617667 0.371769 0.693019 -0.485138 0.293609 0.823672 -0.331796 0.20789 0.920159 
-0.204401 0.119079 0.971617 -0.183455 0.0323868 0.982494 -0.16787 0.0088781 0.985769 
0.367109 0.278156 0.887615 0.568736 0.429582 0.701426 0.553028 0.481418 0.679998 
0.500274 0.384375 0.775875 -0.456516 0.377746 0.805544 -0.453998 0.380592 0.805628 
-0.452014 0.375407 0.809168 -0.369585 0.499021 0.783827 -0.277891 0.273228 0.920936 
-0.204407 0.201654 0.95789 -0.183694 0.204418 0.961493 0.298608 0.392696 0.869841 
0.54457 0.544172 0.638216 0.501941 0.621782 0.601201 0.475045 0.476603 0.739717 
-0.358522 0.520413 0.775005 -0.274828 0.607965 0.744882 -0.242117 0.447408 0.860933 
-0.079236 0.728388 0.680568 -0.137128 0.413105 0.9003 0.0288011 0.74988 0.660946 
-0.0517381 0.500153 0.86439 0.0964884 0.805742 0.584354 0.061063 0.537652 0.840953 
0.267121 0.786491 0.556846 0.22667 0.621408 0.749982 0.373192 0.734585 0.566668 
0.357408 0.740089 0.569673 0.3503 0.726302 0.591418 -0.0546196 -0.131052 0.98987 
0.0605995 -0.181616 0.981501 -0.0654874 -0.115961 0.991093 -0.0801513 -0.182174 0.979994 
-0.0607376 -0.112055 0.991844 0.0888835 -0.173214 0.980865 0.0502144 -0.155515 0.986556 
0.136884 -0.15905 0.977735 -0.111474 -0.124084 0.98599 -0.0648915 -0.163615 0.984388 
-0.0829949 -0.0462788 0.995475 -0.0779819 -0.200698 0.976544 -0.0391107 -0.0737749 0.996508 
0.0153686 -0.0685358 0.99753 0.164619 -0.141496 0.976155 0.107132 -0.120282 0.986942 
0.234936 -0.0975998 0.967098 -0.174169 -0.0601447 0.982877 -0.126541 -0.0851215 0.988302 
-0.104444 0.00371469 0.994524 -0.107059 -0.0222746 0.994003 -0.0652895 -0.149085 0.986667 
0.0726077 -0.0708569 0.99484 0.00257475 -0.0462458 0.998927 0.0660695 -0.0588162 0.99608 
0.249804 -0.0724519 0.965582 0.22213 -0.0706433 0.972454 -0.170871 0.0785113 0.98216 
-0.106352 0.029299 0.993897 -0.157987 0.120899 0.980012 -0.12104 0.0841576 0.989074 
-0.104608 0.0250171 0.994199 -0.1204 0.112733 0.986304 0.0639786 -0.00643507 0.997931 
0.0264399 0.002852 0.999646 0.0850294 0.0447409 0.995373 0.261307 0.078036 0.962096 
0.25169 0.0945802 0.963175 0.242985 0.075049 0.967123 -0.0836341 -0.0238103 0.996212 
-0.0903667 -0.0310756 0.995424 -0.0941465 0.0867843 0.991769 -0.0340458 0.00673547 0.999398 
0.0544523 0.0304623 0.998052 0.192829 0.127446 0.972921 0.205827 0.114475 0.97187 
0.139754 0.10111 0.98501 -0.14974 -0.0382106 0.987987 -0.144509 -0.0458762 0.988439 
-0.0904878 -0.0376 0.995188 0.0046121 -0.0161878 0.999858 0.214515 0.107875 0.970745 
0.120263 0.0488471 0.99154 -0.148754 0.00913551 0.988832 -0.109778 0.0132559 0.993868 
-0.0635868 0.037622 0.997267 0.0536172 0.0928625 0.994234 0.241866 0.166349 0.955944 
0.231921 0.232912 0.944439 0.188582 0.121618 0.974498 -0.12266 0.200767 0.97193 
-0.114328 0.211507 0.970667 -0.115807 0.200572 0.97281 0.00934599 0.29283 0.956119 
-0.00636795 0.237303 0.971415 0.123415 0.329413 0.936085 0.0971068 0.328499 0.939499 
0.0931664 0.319695 0.942929 
