# vtk DataFile Version 4.2
vtk output
ASCII
DATASET POLYDATA
POINTS 552 float
-22.6837 -45.5904 -14.1493 -14.4139 -45.5904 -14.5435 -6.14414 -45.5904 -14.7756 
2.12563 -45.5904 -14.7052 10.3954 -45.5904 -14.4261 18.6652 -45.5904 -14.116 
26.9349 -45.5904 -13.3759 35.2047 -45.5904 -12.8143 -47.493 -37.3207 -12.68 
-39.2232 -37.3207 -15.6865 -30.9534 -37.3207 -16.3767 -22.6837 -37.3207 -17.4095 
-14.4139 -37.3207 -17.2284 -6.14414 -37.3207 -16.7681 2.12563 -37.3207 -16.5943 
10.3954 -37.3207 -16.8672 18.6652 -37.3207 -17.2895 26.9349 -37.3207 -16.8089 
35.2047 -37.3207 -15.1839 -47.493 -29.0509 -14.8269 -39.2232 -29.0509 -17.3209 
-30.9534 -29.0509 -18.4794 -22.6837 -29.0509 -18.3904 -14.4139 -29.0509 -18.3375 
-6.14414 -29.0509 -17.317 2.12563 -29.0509 -17.1854 10.3954 -29.0509 -17.6111 
18.6652 -29.0509 -18.4773 26.9349 -29.0509 -17.7694 35.2047 -29.0509 -16.1711 
43.4745 -29.0509 -14.0036 -55.7628 -20.7811 -12.8901 -47.493 -20.7811 -16.6865 
-39.2232 -20.7811 -18.7408 -30.9534 -20.7811 -18.5988 -22.6837 -20.7811 -18.199 
-14.4139 -20.7811 -17.5612 -6.14414 -20.7811 -16.9337 2.12563 -20.7811 -16.8546 
10.3954 -20.7811 -17.3006 18.6652 -20.7811 -17.9384 26.9349 -20.7811 -17.7731 
35.2047 -20.7811 -17.3877 43.4745 -20.7811 -14.7676 -55.7628 -12.5114 -12.8555 
-47.493 -12.5114 -16.5271 -39.2232 -12.5114 -18.0385 -30.9534 -12.5114 -18.4092 
-22.6837 -12.5114 -17.6364 -14.4139 -12.5114 -16.3734 -6.14414 -12.5114 -17.8133 
2.12563 -12.5114 -18.114 10.3954 -12.5114 -17.0024 18.6652 -12.5114 -17.2052 
26.9349 -12.5114 -17.355 35.2047 -12.5114 -16.8221 43.4745 -12.5114 -15.2116 
-55.7628 -4.24158 -13.8389 -47.493 -4.24158 -17.0712 -39.2232 -4.24158 -18.1225 
-30.9534 -4.24158 -17.6749 -22.6837 -4.24158 -16.3385 -14.4139 -4.24158 -16.6546 
-6.14414 -4.24158 -19.2239 2.12563 -4.24158 -16.1808 10.3954 -4.24158 -18.3314 
18.6652 -4.24158 -17.3746 26.9349 -4.24158 -17.7949 35.2047 -4.24158 -17.4271 
43.4745 -4.24158 -16.1917 51.7443 -4.24158 -13.3161 -55.7628 4.02819 -15.0184 
-47.493 4.02819 -17.8059 -39.2232 4.02819 -18.5897 -30.9534 4.02819 -18.0903 
-22.6837 4.02819 -16.8519 -14.4139 4.02819 -17.7258 -6.14414 4.02819 -18.7626 
2.12563 4.02819 -17.8289 10.3954 4.02819 -18.028 18.6652 4.02819 -16.6059 
26.9349 4.02819 -18.2609 35.2047 4.02819 -18.5337 43.4745 4.02819 -17.0474 
51.7443 4.02819 -14.0497 -55.7628 12.298 -15.1825 -47.493 12.298 -17.9112 
-39.2232 12.298 -18.8256 -30.9534 12.298 -18.5294 -22.6837 12.298 -17.6796 
-14.4139 12.298 -16.3288 -6.14414 12.298 -16.2959 2.12563 12.298 -18.8452 
10.3954 12.298 -16.0865 18.6652 12.298 -16.4865 26.9349 12.298 -18.2341 
35.2047 12.298 -18.8588 43.4745 12.298 -17.7714 51.7443 12.298 -14.6397 
-55.7628 20.5677 -12.8619 -47.493 20.5677 -17.488 -39.2232 20.5677 -19.3823 
-30.9534 20.5677 -18.8637 -22.6837 20.5677 -18.0808 -14.4139 20.5677 -17.6438 
-6.14414 20.5677 -17.6412 2.12563 20.5677 -17.3142 10.3954 20.5677 -16.915 
18.6652 20.5677 -17.7191 26.9349 20.5677 -18.9598 35.2047 20.5677 -18.7299 
43.4745 20.5677 -17.5504 51.7443 20.5677 -14.4682 -47.493 28.8375 -15.3468 
-39.2232 28.8375 -17.1006 -30.9534 28.8375 -18.2238 -22.6837 28.8375 -18.5184 
-14.4139 28.8375 -18.558 -6.14414 28.8375 -18.7084 2.12563 28.8375 -18.3444 
10.3954 28.8375 -17.9742 18.6652 28.8375 -18.6426 26.9349 28.8375 -18.3224 
35.2047 28.8375 -18.6386 43.4745 28.8375 -16.5296 51.7443 28.8375 -12.5608 
-39.2232 37.1073 -14.5109 -30.9534 37.1073 -16.6932 -22.6837 37.1073 -18.2827 
-14.4139 37.1073 -17.9633 -6.14414 37.1073 -18.4821 2.12563 37.1073 -18.0669 
10.3954 37.1073 -17.5512 18.6652 37.1073 -17.3348 26.9349 37.1073 -16.9634 
35.2047 37.1073 -15.802 43.4745 37.1073 -12.874 -22.6837 45.377 -13.7906 
-14.4139 45.377 -15.4005 -6.14414 45.377 -16.0829 2.12563 45.377 -15.8948 
10.3954 45.377 -14.9295 18.6652 45.377 -13.5091 -22.6837 -47.4307 -12.5048 
-14.4139 -48.9818 -12.5048 -6.14414 -49.6466 -12.5048 -6.14414 -53.8602 -4.48454 
2.12563 -49.4714 -12.5048 10.3954 -48.614 -12.5048 18.6652 -48.069 -12.5048 
26.9349 -46.6112 -12.5048 35.2047 -45.9441 -12.5048 -47.493 -37.5539 -12.5048 
-39.2232 -42.1959 -12.5048 -39.2232 -45.5904 -8.55993 -29.8485 -45.5904 -12.5048 
-30.9534 -45.2033 -12.5048 -30.9534 -45.5904 -12.2211 35.7607 -45.5904 -12.5048 
-47.7174 -37.3207 -12.5048 42.1013 -37.3207 -12.5048 43.4745 -34.784 -12.5048 
43.4745 -37.3207 -11.8889 -51.2915 -29.0509 -12.5048 -55.7628 -22.0478 -12.5048 
-55.7628 -29.0509 -8.3056 48.4258 -29.0509 -12.5048 51.7443 -29.0509 -11.0111 
-56.1921 -20.7811 -12.5048 48.3908 -20.7811 -12.5048 51.7443 -20.7811 -10.6322 
60.014 -20.7811 -5.21313 -56.1903 -12.5114 -12.5048 50.3176 -12.5114 -12.5048 
51.7443 -8.91886 -12.5048 51.7443 -12.5114 -11.906 60.014 -12.5114 -6.89045 
-57.4388 -4.24158 -12.5048 53.2442 -4.24158 -12.5048 60.014 -4.24158 -8.45753 
-58.9367 4.02819 -12.5048 -64.0325 4.02819 -4.56473 54.3348 4.02819 -12.5048 
60.014 4.02819 -8.72754 -58.7058 12.298 -12.5048 55.0566 12.298 -12.5048 
60.014 12.298 -8.42525 -56.1565 20.5677 -12.5048 -55.7628 21.7802 -12.5048 
54.7145 20.5677 -12.5048 60.014 20.5677 -7.43271 -52.2397 28.8375 -12.5048 
-55.7628 28.8375 -7.86383 -47.493 34.7356 -12.5048 51.8012 28.8375 -12.5048 
51.7443 28.9299 -12.5048 -44.5337 37.1073 -12.5048 -47.493 37.1073 -10.1717 
-39.2232 39.8279 -12.5048 -30.9534 44.0404 -12.5048 26.9349 44.5167 -12.5048 
35.2047 42.4316 -12.5048 44.0472 37.1073 -12.5048 43.4745 37.5236 -12.5048 
-27.3777 45.377 -12.5048 -30.9534 45.377 -10.993 -22.6837 46.8751 -12.5048 
-14.4139 48.6482 -12.5048 -6.14414 49.3284 -12.5048 2.12563 49.1523 -12.5048 
10.3954 48.1844 -12.5048 24.1153 45.377 -12.5048 18.6652 46.5005 -12.5048 
26.9349 45.377 -11.0479 35.2047 45.377 -5.20834 -6.14414 -53.9344 -4.23498 
-39.2232 -47.5218 -4.23498 -30.9534 -50.8247 -4.23498 -22.6837 -52.5292 -4.23498 
-8.81255 -53.8602 -4.23498 -14.4139 -53.6976 -4.23498 -2.46192 -53.8602 -4.23498 
-6.14414 -53.8602 -3.92366 2.12563 -53.7642 -4.23498 10.3954 -52.992 -4.23498 
18.6652 -52.3296 -4.23498 26.9349 -51.527 -4.23498 35.2047 -49.2169 -4.23498 
-42.6477 -45.5904 -4.23498 -47.493 -42.2575 -4.23498 -39.2232 -45.5904 3.99798 
42.606 -45.5904 -4.23498 43.4745 -45.1105 -4.23498 -52.3551 -37.3207 -4.23498 
-55.7628 -32.6175 -4.23498 51.7377 -37.3207 -4.23498 51.7443 -37.3089 -4.23498 
-58.169 -29.0509 -4.23498 56.5298 -29.0509 -4.23498 60.014 -22.5633 -4.23498 
-60.5775 -20.7811 -4.23498 60.7666 -20.7811 -4.23498 -62.6229 -12.5114 -4.23498 
62.3966 -12.5114 -4.23498 -63.5712 -4.24158 -4.23498 -64.0325 2.06374 -4.23498 
63.5736 -4.24158 -4.23498 -64.1625 4.02819 -4.23498 -64.0325 5.20309 -4.23498 
-64.0325 4.02819 -3.03497 63.7492 4.02819 -4.23498 -63.3004 12.298 -4.23498 
63.0037 12.298 -4.23498 -61.1283 20.5677 -4.23498 61.7751 20.5677 -4.23498 
60.014 24.138 -4.23498 -57.2026 28.8375 -4.23498 -55.7628 31.0448 -4.23498 
-55.7628 28.8375 2.62246 57.4939 28.8375 -4.23498 51.7443 35.9497 -4.23498 
-50.7261 37.1073 -4.23498 -47.493 39.9331 -4.23498 -39.2232 45.3458 -4.23498 
50.3411 37.1073 -4.23498 43.4745 41.6867 -4.23498 -39.166 45.377 -4.23498 
-30.9534 49.0348 -4.23498 -22.6837 50.9567 -4.23498 -14.4139 51.7433 -4.23498 
-6.14414 52.0788 -4.23498 2.12563 51.996 -4.23498 10.3954 50.8575 -4.23498 
18.6652 49.3307 -4.23498 26.9349 47.5975 -4.23498 26.9349 45.377 2.82152 
35.7505 45.377 -4.23498 35.2047 45.6039 -4.23498 35.2047 45.377 -3.24624 
-30.9534 -47.8175 4.03479 -22.6837 -49.7487 4.03479 -14.4139 -50.9401 4.03479 
-6.14414 -51.1908 4.03479 2.12563 -50.5215 4.03479 10.3954 -49.4111 4.03479 
18.6652 -48.3241 4.03479 26.9349 -47.5924 4.03479 35.2047 -46.756 4.03479 
-47.493 -40.5317 4.03479 -39.1855 -45.5904 4.03479 -39.2232 -45.5787 4.03479 
-30.9534 -45.5904 6.95487 -22.6837 -45.5904 8.95078 -14.4139 -45.5904 8.80386 
-6.14414 -45.5904 8.81951 2.12563 -45.5904 8.39291 10.3954 -45.5904 8.0226 
18.6652 -45.5904 6.88876 26.9349 -45.5904 6.10748 38.1129 -45.5904 4.03479 
35.2047 -45.5904 5.50183 43.4745 -43.2064 4.03479 -51.0844 -37.3207 4.03479 
-55.7628 -31.3418 4.03479 -47.493 -37.3207 7.57272 -39.2232 -37.3207 10.7984 
2.12563 -37.3207 12.2548 10.3954 -37.3207 11.9562 18.6652 -37.3207 11.6691 
26.9349 -37.3207 11.1722 35.2047 -37.3207 10.418 51.6922 -37.3207 4.03479 
43.4745 -37.3207 9.9669 51.7443 -37.2753 4.03479 -57.1842 -29.0509 4.03479 
-55.7628 -29.0509 6.1113 58.6148 -29.0509 4.03479 51.7443 -29.0509 12.0016 
60.014 -26.4806 4.03479 -60.5262 -20.7811 4.03479 -55.7628 -20.7811 12.2809 
62.7784 -20.7811 4.03479 60.014 -20.7811 9.31209 -62.7265 -12.5114 4.03479 
65.061 -12.5114 4.03479 -63.1674 -4.24158 4.03479 66.026 -4.24158 4.03479 
-63.1661 4.02819 4.03479 66.2257 4.02819 4.03479 -62.1262 12.298 4.03479 
-55.7628 12.298 11.8517 64.738 12.298 4.03479 -59.7375 20.5677 4.03479 
-55.7628 28.3176 4.03479 -55.7628 20.5677 9.76959 62.4069 20.5677 4.03479 
60.014 25.0368 4.03479 60.014 20.5677 9.45638 -55.3992 28.8375 4.03479 
-47.493 28.8375 11.8454 57.5991 28.8375 4.03479 51.7443 34.7389 4.03479 
51.7443 28.8375 11.9745 -49.0982 37.1073 4.03479 -47.493 38.608 4.03479 
-47.493 37.1073 6.13375 -39.2232 44.5261 4.03479 26.9349 44.9096 4.03479 
35.2047 43.0845 4.03479 35.2047 37.1073 10.8549 48.1552 37.1073 4.03479 
43.4745 39.6787 4.03479 43.4745 37.1073 8.06627 -37.7789 45.377 4.03479 
-30.9534 48.4355 4.03479 -30.9534 45.377 9.78425 -22.6837 50.1955 4.03479 
-14.4139 50.7314 4.03479 -6.14414 51.0235 4.03479 2.12563 50.536 4.03479 
10.3954 49.1433 4.03479 10.3954 45.377 10.6943 25.4547 45.377 4.03479 
18.6652 47.169 4.03479 18.6652 45.377 6.87411 -30.9534 -37.4134 12.3046 
-22.6837 -39.7545 12.3046 -14.4139 -38.372 12.3046 -6.14414 -38.4031 12.3046 
-47.493 -29.3365 12.3046 -31.1867 -37.3207 12.3046 -39.2232 -34.6725 12.3046 
-30.9534 -37.3207 12.3467 -22.6837 -37.3207 13.1656 -14.4139 -37.3207 12.7479 
1.32079 -37.3207 12.3046 -6.14414 -37.3207 12.7638 2.12563 -37.1233 12.3046 
10.3954 -35.6035 12.3046 18.6652 -34.7267 12.3046 26.9349 -33.5831 12.3046 
35.2047 -33.4049 12.3046 43.4745 -31.1214 12.3046 -47.7505 -29.0509 12.3046 
[...]
POINT_DATA 552
SCALARS ImageScalars float
LOOKUP_TABLE default
0 0 0 0 0 0 0 0 0 
0 0 0 0 0 0 0 0 0 
0 0 0 0 0 0 0 0 0 
0 0 0 0 0 0 0 0 0 
0 0 0 0 0 0 0 0 0 
0 0 0 0 0 0 0 0 0 
0 0 0 0 0 0 0 0 0 
0 0 0 0 0 0 0 0 0 
0 0 0 0 0 0 0 0 0 
0 0 0 0 0 0 0 0 0 
0 0 0 0 0 0 0 0 0 
0 0 0 0 0 0 0 0 0 
0 0 0 0 0 0 0 0 0 
0 0 0 0 0 0 0 0 0 
0 0 0 0 0 0 0 0 0 
0 0 0 0 0 0 0 0 0 
0 0 0 0 0 0 0 0 0 
0 0 0 0 0 0 0 0 0 
0 0 0 0 0 0 0 0 0 
0 0 0 0 0 0 0 0 0 
0 0 0 0 0 0 0 0 0 
0 0 0 0 0 0 0 0 0 
0 0 0 0 0 0 0 0 0 
0 0 0 0 0 0 0 0 0 
0 0 0 0 0 0 0 0 0 
0 0 0 0 0 0 0 0 0 
0 0 0 0 0 0 0 0 0 
0 0 0 0 0 0 0 0 0 
0 0 0 0 0 0 0 0 0 
0 0 0 0 0 0 0 0 0 
0 0 0 0 0 0 0 0 0 
0 0 0 0 0 0 0 0 0 
0 0 0 0 0 0 0 0 0 
0 0 0 0 0 0 0 0 0 
0 0 0 0 0 0 0 0 0 
0 0 0 0 0 0 0 0 0 
0 0 0 0 0 0 0 0 0 
0 0 0 0 0 0 0 0 0 
0 0 0 0 0 0 0 0 0 
0 0 0 0 0 0 0 0 0 
0 0 0 0 0 0 0 0 0 
0 0 0 0 0 0 0 0 0 
0 0 0 0 0 0 0 0 0 
0 0 0 0 0 0 0 0 0 
0 0 0 0 0 0 0 0 0 
0 0 0 0 0 0 0 0 0 
0 0 0 0 0 0 0 0 0 
0 0 0 0 0 0 0 0 0 
0 0 0 0 0 0 0 0 0 
0 0 0 0 0 0 0 0 0 
0 0 0 0 0 0 0 0 0 
0 0 0 0 0 0 0 0 0 
0 0 0 0 0 0 0 0 0 
0 0 0 0 0 0 0 0 0 
0 0 0 0 0 0 0 0 0 
0 0 0 0 0 0 0 0 0 
0 0 0 0 0 0 0 0 0 
0 0 0 0 0 0 0 0 0 
0 0 0 0 0 0 0 0 0 
0 0 0 0 0 0 0 0 0 
0 0 0 0 0 0 0 0 0 
0 0 0 
NORMALS Normals float
0.119788 0.559049 0.820436 0.0314397 0.457234 0.88879 0.0100638 0.397764 0.917433 
-0.0221698 0.396207 0.917894 -0.0368322 0.457074 0.888666 -0.0540149 0.512006 0.857282 
-0.0892027 0.579633 0.80998 -0.314584 0.603252 0.732887 0.515843 0.466551 0.718496 
0.227138 0.387035 0.893651 0.0891916 0.326515 0.940974 0.0491823 0.207769 0.976941 
-0.036474 0.222318 0.974292 -0.0394675 0.155088 0.987112 0.00580886 0.151338 0.988465 
0.0422378 0.193047 0.98028 -0.000973423 0.253449 0.967348 -0.13457 0.221084 0.965926 
-0.242618 0.200671 0.949141 0.41833 0.261354 0.869882 0.193765 0.157032 0.968399 
0.0577902 0.119562 0.991143 -0.0090808 0.0422282 0.999067 -0.0660065 0.0270856 0.997451 
-0.0687681 0.00950373 0.997587 0.0177649 0.0151732 0.999727 0.0772378 0.0252542 0.996693 
0.0098853 0.0401506 0.999145 -0.132124 0.0514303 0.989898 -0.20104 0.129273 0.971016 
-0.285732 0.156422 0.945457 0.664723 0.141904 0.733489 0.334995 0.0745882 0.939263 
0.132197 0.0399495 0.990418 -0.0322191 -0.00361911 0.999474 -0.0598158 -0.0453282 0.99718 
-0.0786003 -0.116337 0.990095 -0.0399011 0.0243535 0.998907 0.0221426 0.048415 0.998582 
0.0655766 -0.0366762 0.997173 0.0285221 -0.0762522 0.996681 -0.032318 -0.0251912 0.99916 
-0.188737 0.0362753 0.981357 -0.35464 0.0614004 0.932985 0.578498 0.0474921 0.8143 
0.264973 0.021057 0.964026 0.107343 -0.034335 0.993629 -0.0244123 -0.0562189 0.99812 
-0.118402 -0.112927 0.986523 0.00173647 -0.0549757 0.998486 0.105186 0.128767 0.986081 
-0.0541146 -0.0171404 0.998388 -0.048811 0.0603314 0.996984 0.0212019 -0.0340604 0.999195 
-0.0229241 0.00145494 0.999736 -0.124704 0.00366248 0.992187 -0.271195 0.0819856 0.959026 
0.548183 0.111704 0.828865 0.214648 0.0739848 0.973885 0.0331045 0.0332797 0.998898 
-0.10727 -0.019243 0.994044 -0.0667739 -0.0482654 0.9966 0.161997 0.0778163 0.983718 
-0.0256734 0.064021 0.997618 -0.0209743 -0.0525829 0.998396 0.0457432 0.0686662 0.99659 
-0.0304314 -0.0359313 0.998891 0.00339854 0.0547272 0.998496 -0.0921142 0.102179 0.990492 
-0.232152 0.109458 0.966501 -0.397565 0.114465 0.910407 0.507304 0.0666248 0.859188 
0.183894 0.0501154 0.981668 0.0143772 0.0424726 0.998994 -0.104371 0.0513229 0.993213 
-0.0332122 0.0772106 0.996461 0.119199 -0.033433 0.992307 0.0158608 -0.192643 0.981141 
-0.052904 0.187921 0.980758 -0.095201 -0.139329 0.985659 0.0416694 -0.0553312 0.997598 
0.115502 0.0265587 0.992952 -0.0702796 0.0872535 0.993704 -0.24704 0.0903833 0.964781 
-0.435939 0.069969 0.897252 0.528164 -0.102509 0.842932 0.184491 -0.0225311 0.982576 
0.0336228 0.0456934 0.99839 -0.0673732 0.0483487 0.996556 -0.132665 0.0765134 0.988203 
-0.0787682 0.00741044 0.996865 0.125577 -0.0373113 0.991382 0.0128201 -0.0566917 0.998309 
-0.124316 -0.0378026 0.991522 0.124825 0.0668984 0.989921 0.141337 0.0381719 0.989225 
-0.0250365 0.0112008 0.999624 -0.230415 0.0298328 0.972635 -0.464056 0.0235141 0.885493 
0.676669 -0.228643 0.699886 0.307315 -0.11575 0.944542 0.0906009 -0.0928932 0.991545 
-0.076508 -0.0210135 0.996848 -0.0715807 0.048315 0.996264 -0.0272998 0.134207 0.990577 
-0.0189122 0.143512 0.989468 -0.0444082 -0.011119 0.998952 0.025996 0.106111 0.994014 
0.11446 0.127445 0.985219 0.0636316 0.00578401 0.997957 -0.0792436 -0.0128764 0.996772 
-0.224012 -0.0776095 0.971491 -0.477997 -0.103004 0.872301 0.370908 -0.37463 0.849753 
0.153583 -0.252067 0.955445 0.078314 -0.129821 0.98844 0.0215842 0.0139942 0.999669 
0.0114665 0.0161738 0.999803 -0.0128931 0.0508692 0.998622 -0.0443158 0.0423668 0.998119 
0.0173868 0.0370699 0.999161 0.0215156 -0.026319 0.999422 -0.00129841 -0.107026 0.994255 
-0.115616 -0.180149 0.976821 -0.298887 -0.223493 0.927748 -0.628092 -0.326502 0.706326 
0.322467 -0.465026 0.824479 0.182766 -0.330752 0.925851 0.0804075 -0.24552 0.966051 
0.0134698 -0.173893 0.984672 0.00643681 -0.148206 0.988936 -0.0564525 -0.141334 0.988351 
-0.0438035 -0.168402 0.984745 -0.0319815 -0.274791 0.960972 -0.102216 -0.317041 0.942888 
-0.204837 -0.435071 0.876787 -0.445029 -0.596978 0.667508 0.203872 -0.623726 0.754588 
0.133849 -0.550577 0.823984 0.0289956 -0.533286 0.845438 -0.070365 -0.523453 0.849144 
-0.14566 -0.568713 0.809536 -0.159961 -0.680729 0.714857 0.160961 0.645199 0.746866 
0.0853518 0.626323 0.774877 0.0194746 0.627018 0.778761 0.00452719 0.99888 0.0470982 
-0.0423321 0.621437 0.78232 -0.0545572 0.625369 0.77842 -0.0819585 0.638339 0.76538 
-0.1057 0.634966 0.765275 -0.314472 0.622445 0.716708 0.519784 0.474067 0.710693 
0.307661 0.593421 0.743771 0.418034 0.81356 0.404187 0.183606 0.62402 0.759532 
0.184962 0.618106 0.764025 0.194419 0.64487 0.739151 -0.32922 0.608671 0.721896 
0.526886 0.469273 0.708642 -0.443564 0.313071 0.839784 -0.42058 0.293202 0.858572 
-0.493272 0.359258 0.792222 0.534237 0.337996 0.774822 0.670687 0.175589 0.720657 
0.763739 0.440179 0.47217 -0.463092 0.203801 0.862561 -0.616159 0.240574 0.749981 
0.688386 0.143093 0.711091 -0.437096 0.0441823 0.898329 -0.514978 0.0610738 0.855025 
-0.787843 0.299821 0.53797 0.593791 0.0499617 0.803067 -0.407831 0.126617 0.904236 
-0.417714 0.128756 0.899409 -0.441424 0.144256 0.885627 -0.713055 0.164763 0.681473 
0.608418 0.112382 0.785619 -0.436105 0.110493 0.893087 -0.700796 0.0899322 0.70767 
0.656909 0.0499623 0.752313 0.985882 -0.0210139 0.166116 -0.502186 0.0551781 0.862997 
-0.711626 0.00078247 0.702558 0.67422 -0.12178 0.728421 -0.56065 0.0122477 0.827962 
-0.778716 -0.0488823 0.625469 0.689934 -0.227931 0.687051 0.680185 -0.253759 0.687717 
-0.570123 -0.153342 0.807122 -0.831002 -0.28407 0.478269 0.555285 -0.42824 0.712931 
0.795935 -0.502491 0.337625 0.468797 -0.540104 0.69894 -0.630567 -0.326863 0.70395 
-0.629138 -0.329344 0.704072 0.444256 -0.55307 0.704805 0.554489 -0.646915 0.523491 
0.366856 -0.581244 0.726342 0.255399 -0.662174 0.704483 -0.187477 -0.760578 0.621589 
-0.288844 -0.713199 0.638683 -0.460477 -0.604861 0.649695 -0.452102 -0.615309 0.645754 
0.242991 -0.680789 0.691 0.277732 -0.757418 0.590917 0.217399 -0.681346 0.698932 
0.128562 -0.741895 0.658076 0.0266837 -0.788181 0.614865 -0.0620744 -0.77487 0.629066 
-0.149428 -0.739694 0.656143 -0.187794 -0.764437 0.616741 -0.17908 -0.736319 0.652506 
-0.205024 -0.854808 0.476726 -0.32381 -0.944324 0.05831 0.0038948 0.999539 0.0301131 
0.440281 0.893022 0.0930818 0.294263 0.952172 0.0823291 0.170609 0.982892 0.0693977 
0.0295773 0.998942 0.0352266 0.0836411 0.995361 0.0475562 -0.0233488 0.999572 0.0176071 
0.0030116 0.999935 0.0110116 -0.057183 0.998359 0.00309033 -0.087017 0.996179 0.00750163 
-0.089116 0.995884 -0.0165101 -0.188622 0.981973 0.0123019 -0.356429 0.933673 0.0348371 
0.518879 0.848006 0.107935 0.646085 0.752528 0.127577 0.343827 0.813666 -0.468754 
-0.488565 0.862845 0.129624 -0.508896 0.847483 0.150986 0.762729 0.627555 0.156267 
0.828196 0.526446 0.192212 -0.790549 0.523728 0.317398 -0.790677 0.523455 0.31753 
0.875636 0.440256 0.198588 -0.808345 0.395009 0.436515 -0.807683 0.326897 0.4907 
0.938922 0.245818 0.240829 -0.820002 0.299096 0.487994 0.949988 0.17343 0.2597 
-0.832958 0.17282 0.525655 0.973426 0.0886842 0.21113 0.987185 0.00337378 0.159542 
-0.857816 0.0746466 0.508508 0.989027 -0.0227847 0.145966 0.988834 -0.044333 0.142273 
0.996388 -0.0268774 0.0805456 -0.864028 -0.0323335 0.502405 0.978128 -0.165694 0.12574 
-0.898193 -0.119684 0.422994 0.929113 -0.347123 0.127495 -0.906743 -0.305811 0.29034 
-0.875646 -0.393191 0.280435 0.853135 -0.516136 0.0759198 0.821227 -0.563808 0.0877864 
0.800059 -0.517837 -0.302903 -0.829572 -0.497451 0.253677 -0.677715 -0.721473 0.142053 
0.694205 -0.710671 0.114132 0.626935 -0.769216 0.123531 0.477009 -0.866511 0.147041 
-0.635568 -0.762457 0.121299 -0.475597 -0.877627 0.0598143 0.475737 -0.867178 0.147227 
0.301998 -0.937722 0.171684 0.170213 -0.975451 0.139722 0.0671216 -0.993759 0.0890942 
0.0153045 -0.996919 0.0769246 -0.0742967 -0.995403 0.0604342 -0.158686 -0.986853 0.03064 
-0.194273 -0.980878 0.0116819 -0.231399 -0.972799 -0.0107997 -0.216556 -0.895104 -0.389734 
-0.32836 -0.94455 0.00231183 -0.320065 -0.947395 0.000778699 -0.31939 -0.946519 -0.0457317 
0.217937 0.840098 -0.496728 0.161101 0.827918 -0.537213 0.0682715 0.8253 -0.560552 
-0.0204045 0.821097 -0.570424 -0.0831486 0.802006 -0.591501 -0.10641 0.787597 -0.606933 
-0.090553 0.748407 -0.657029 -0.0844102 0.786012 -0.612421 -0.233754 0.824573 -0.515208 
0.556756 0.71532 -0.422303 0.342403 0.812805 -0.471284 0.343082 0.81253 -0.471264 
0.209679 0.743538 -0.634969 0.0694848 0.650474 -0.756344 -0.00503937 0.591541 -0.806259 
-0.022323 0.583268 -0.811973 -0.0396199 0.580833 -0.813058 -0.0715634 0.616028 -0.784467 
-0.0874218 0.654116 -0.751325 -0.0651937 0.724096 -0.686612 -0.289506 0.813966 -0.503632 
-0.227713 0.768654 -0.597761 -0.399751 0.790533 -0.463957 0.654419 0.648026 -0.389614 
0.778677 0.525982 -0.342061 0.495434 0.619224 -0.609185 0.225321 0.533824 -0.815023 
-0.0461852 0.320841 -0.946006 -0.0327721 0.266522 -0.963271 -0.0469488 0.319776 -0.946329 
-0.0690677 0.366198 -0.92797 -0.0707914 0.453799 -0.888288 -0.646173 0.691969 -0.321932 
-0.25601 0.549432 -0.795351 -0.647753 0.691291 -0.320208 0.809942 0.476272 -0.342284 
0.744465 0.491354 -0.452042 -0.834393 0.523217 -0.173298 -0.371379 0.413044 -0.831548 
-0.869179 0.470748 -0.151409 0.92091 0.293914 -0.256008 0.626731 0.252444 -0.737211 
-0.92281 0.370201 -0.10664 -0.722709 0.420098 -0.548826 0.952747 0.15717 -0.259943 
-0.979428 0.198275 -0.0375115 0.965256 0.0242863 -0.260175 -0.996496 0.0702694 -0.0453545 
0.943747 -0.0536962 -0.326279 -0.995566 -0.0773567 -0.053521 0.909524 -0.199237 -0.36479 
0.662288 -0.157947 -0.732412 -0.9736 -0.216557 -0.0721592 0.867631 -0.333552 -0.368726 
0.781226 -0.496877 -0.377888 0.709737 -0.292804 -0.640734 -0.905807 -0.39379 -0.156344 
-0.850345 -0.493919 -0.18154 -0.777942 -0.41681 -0.470187 0.773762 -0.506819 -0.380035 
0.592631 -0.373162 -0.71382 -0.770548 -0.595348 -0.227633 -0.6043 -0.732341 -0.313844 
-0.498001 -0.559015 -0.662946 0.677 -0.653002 -0.339499 0.647126 -0.687261 -0.329999 
0.64289 -0.633127 -0.431095 0.491331 -0.825518 -0.277694 -0.213014 -0.86197 -0.460036 
-0.273619 -0.852709 -0.444994 -0.184135 -0.7041 -0.685812 -0.499847 -0.793324 -0.347547 
-0.377404 -0.843788 -0.38156 -0.342753 -0.781502 -0.52132 0.458452 -0.84629 -0.271322 
0.298068 -0.917016 -0.265023 0.290997 -0.792428 -0.536078 0.140479 -0.951442 -0.273905 
0.0486571 -0.961596 -0.270121 -0.0107949 -0.963325 -0.26812 -0.107446 -0.947381 -0.301538 
-0.196223 -0.916507 -0.348584 -0.247496 -0.77528 -0.581108 -0.216129 -0.867665 -0.447711 
-0.231377 -0.882668 -0.409099 -0.24538 -0.826833 -0.506098 0.130919 0.374313 -0.918014 
0.0220224 0.387262 -0.921707 -0.0289547 0.327776 -0.944312 -0.0277754 0.331389 -0.943085 
0.385101 0.401973 -0.830732 0.131715 0.375854 -0.91727 0.185691 0.461293 -0.867599 
0.129422 0.371891 -0.91921 0.0185789 0.306954 -0.951543 -0.0243219 0.298761 -0.954018 
-0.0441552 0.318672 -0.946836 -0.0272884 0.301955 -0.952931 -0.0462969 0.316924 -0.94732 
-0.0335108 0.23024 -0.972557 -0.0313139 0.261893 -0.964589 -0.0195229 0.297063 -0.954658 
-0.046614 0.374672 -0.925985 -0.153214 0.356736 -0.921556 0.391501 0.399609 -0.828878 
0.384006 0.396969 -0.83364 0.146257 0.340845 -0.928673 0.0162872 0.261591 -0.965041 
-0.0514336 0.19155 -0.980134 -0.0432758 0.120125 -0.991815 -0.0117098 0.137576 -0.990422 
-0.0614568 0.175847 -0.982497 -0.0423785 0.127425 -0.990942 0.0126676 0.163392 -0.98648 
0.0411296 0.230505 -0.972202 -0.0284274 0.307755 -0.951041 -0.304284 0.382553 -0.87239 
-0.133064 0.314449 -0.939902 -0.349136 0.387601 -0.853153 0.624648 0.252345 -0.739011 
0.626217 0.24906 -0.738798 0.278092 0.25823 -0.925193 0.0838786 0.221528 -0.97154 
-0.0577978 0.173792 -0.983085 -0.1371 0.0877645 -0.986662 -0.0669563 0.0115045 -0.99769 
0.0299032 0.104595 -0.994065 -0.0567265 0.137057 -0.988938 -0.0551152 0.117537 -0.991538 
0.0604437 0.0753302 -0.995325 0.0929529 0.133846 -0.986633 0.0233981 0.180389 -0.983317 
-0.0991425 0.230888 -0.967916 -0.434423 0.347652 -0.830912 -0.295541 0.281249 -0.912992 
-0.606258 0.281398 -0.743819 0.658247 0.0958417 -0.746676 0.622467 0.0959754 -0.776739 
0.275637 0.153001 -0.949007 0.0538548 0.135122 -0.989364 -0.112675 0.126062 -0.985603 
-0.218801 0.064828 -0.973614 -0.0336402 0.0352076 -0.998814 0.128281 0.27662 -0.952379 
-0.0474886 -0.0287749 -0.998457 -0.114399 0.286185 -0.951321 0.0258882 0.0643827 -0.997589 
0.143412 0.111145 -0.983402 0.0771287 0.13524 -0.987806 -0.050252 0.213932 -0.975555 
-0.227023 0.168952 -0.959123 -0.696173 0.174244 -0.696406 -0.586412 0.175559 -0.790759 
0.691533 0.0154871 -0.722179 0.616695 0.0168974 -0.787021 0.278098 0.0431277 -0.959584 
0.0452882 0.0621772 -0.997037 -0.12834 0.0742886 -0.988944 -0.210835 0.0800319 -0.97424 
0.116184 0.0881627 -0.989307 -0.0257107 0.241598 -0.970036 -0.0311765 0.0466473 -0.998425 
0.00438669 0.173605 -0.984806 -0.100135 0.12197 -0.98747 0.167233 0.132876 -0.976922 
0.13117 0.130967 -0.982671 -0.0545975 0.108972 -0.992544 -0.279942 0.0800495 -0.956674 
-0.667396 0.00472323 -0.744688 -0.611346 0.0110985 -0.791285 0.670576 -0.102126 -0.734778 
0.651146 -0.143603 -0.745243 0.627802 -0.106565 -0.771044 0.316544 -0.0755553 -0.945564 
0.0816756 -0.035952 -0.99601 -0.0924585 0.0221358 -0.99547 -0.20522 0.0802772 -0.975418 
0.0567809 0.136171 -0.989057 -0.0912472 0.291297 -0.952271 -0.0913365 -0.0483422 -0.994646 
-0.00719844 0.185964 -0.98253 0.153094 0.158368 -0.975439 0.0543297 0.138538 -0.988866 
-0.0943291 0.0163264 -0.995407 -0.280394 0.0168007 -0.959738 -0.689275 -0.00928196 -0.72444 
-0.633559 0.000913736 -0.773694 0.639569 -0.156316 -0.752673 0.354932 -0.149187 -0.922912 
0.146944 -0.0611809 -0.987251 -0.0155596 0.00963319 -0.999833 -0.112679 0.106082 -0.987952 
-0.0408551 0.212994 -0.976199 0.109544 -0.00784205 -0.993951 0.0127548 0.119618 -0.992738 
-0.0441888 0.0613145 -0.99714 0.0725259 0.166499 -0.983371 0.111102 0.0578553 -0.992124 
-0.00773536 0.00710846 -0.999945 -0.176876 -0.0366735 -0.98355 -0.314772 -0.0592773 -0.947315 
-0.754675 -0.158447 -0.636679 -0.709048 -0.28552 -0.64477 -0.677008 -0.150226 -0.720481 
0.571954 -0.279988 -0.771022 0.570366 -0.358023 -0.739258 0.428283 -0.254088 -0.867187 
0.244299 -0.112334 -0.963171 0.0713277 -0.044476 -0.996461 -0.00514963 0.108337 -0.994101 
-0.00666247 0.169222 -0.985556 0.0469167 0.152123 -0.987247 -0.00615282 0.090929 -0.995838 
-0.0489437 0.0988643 -0.993897 -0.0114593 -0.00581322 -0.999917 -0.0108122 -0.113642 -0.993463 
-0.044032 -0.178733 -0.982912 -0.153666 -0.237554 -0.959143 -0.638178 -0.399995 -0.657825 
-0.489477 -0.543881 -0.68162 -0.410852 -0.287691 -0.865121 0.573872 -0.361371 -0.734903 
0.336459 -0.262904 -0.904255 0.199978 -0.164932 -0.965819 0.10005 -0.0879586 -0.991087 
0.00811186 -0.0181576 -0.999802 -0.136963 -0.122236 -0.983005 -0.13959 -0.24903 -0.958384 
-0.0614343 -0.35346 -0.93343 -0.170296 -0.656449 -0.734897 -0.126816 -0.400453 -0.9075 
-0.477709 -0.550787 -0.684418 -0.294887 -0.620416 -0.726722 -0.267201 -0.468748 -0.84195 
0.454161 -0.55771 -0.694765 0.441854 -0.573595 -0.689749 0.436896 -0.553045 -0.709411 
0.285535 -0.677909 -0.677428 0.260352 -0.419394 -0.86967 0.147373 -0.390818 -0.908594 
0.0937061 -0.314624 -0.94458 0.0247959 -0.28626 -0.957831 -0.136217 -0.328814 -0.934519 
-0.261103 -0.706978 -0.657273 -0.262838 -0.42811 -0.864661 -0.248407 -0.622598 -0.742068 
-0.235842 -0.516771 -0.822998 -0.181002 -0.638396 -0.748123 -0.185236 -0.62907 -0.754956 
-0.181597 -0.616381 -0.766223 0.164508 -0.740973 -0.651073 0.152491 -0.743971 -0.65058 
0.152471 -0.737898 -0.657464 0.0777321 -0.796425 -0.59972 0.083965 -0.745493 -0.661204 
-0.013262 -0.805992 -0.591778 -0.00857899 -0.739798 -0.672775 -0.202709 -0.762009 -0.615022 
-0.141229 -0.794719 -0.590319 -0.141534 -0.757827 -0.63692 0.0867242 0.0483978 -0.995056 
0.184528 -0.116438 -0.975906 0.11936 -0.0657381 -0.990672 0.170071 -0.130465 -0.976757 
0.175609 -0.136929 -0.974891 0.0251158 0.0286811 -0.999273 -0.0209466 0.0380985 -0.999054 
0.0140102 -0.00550869 -0.999887 0.0230686 -0.0353411 -0.999109 0.0217923 0.0101015 -0.999712 
-0.0711355 -0.0618657 -0.995546 -0.0651813 -0.105741 -0.992255 -0.0412293 -0.036145 -0.998496 

