# vtk DataFile Version 4.2
vtk output
ASCII
DATASET POLYDATA
POINTS 564 float
-7.54842 29.4303 -20.1668 0.317681 29.4303 -20.2181 8.18378 -25.6324 -12.2224 
16.0499 -25.6324 -13.2094 23.916 -25.6324 -13.1345 31.7821 -25.6324 -12.4423 
-39.0128 -17.7663 -13.4255 -31.1467 -17.7663 -13.3772 -23.2806 -17.7663 -13.0376 
-15.4145 -17.7663 -12.2799 -7.54842 -17.7663 -12.2821 0.317681 -17.7663 -12.596 
8.18378 -17.7663 -14.2361 16.0499 -17.7663 -15.0474 23.916 -17.7663 -15.1104 
31.7821 -17.7663 -14.812 39.6482 -17.7663 -13.8777 -46.8789 -9.90022 -14.0188 
-39.0128 -9.90022 -15.0243 -31.1467 -9.90022 -14.9862 -23.2806 -9.90022 -14.3652 
-15.4145 -9.90022 -14.9314 -7.54842 -9.90022 -17.309 0.317681 -9.90022 -17.7017 
8.18378 -9.90022 -18.0164 16.0499 -9.90022 -16.1543 23.916 -9.90022 -16.3536 
31.7821 -9.90022 -16.8567 39.6482 -9.90022 -16.9706 47.5143 -9.90022 -15.819 
55.3804 -9.90022 -12.2629 -46.8789 -2.03412 -15.6664 -39.0128 -2.03412 -16.6475 
-31.1467 -2.03412 -16.3935 -23.2806 -2.03412 -15.8168 -15.4145 -2.03412 -16.7119 
-7.54842 -2.03412 -18.0125 0.317681 -2.03412 -13.7379 8.18378 -2.03412 -18.6284 
16.0499 -2.03412 -16.1354 23.916 -2.03412 -16.8198 31.7821 -2.03412 -17.7459 
39.6482 -2.03412 -18.0446 47.5143 -2.03412 -17.3024 55.3804 -2.03412 -15.4239 
-46.8789 5.83198 -15.6009 -39.0128 5.83198 -17.2428 -31.1467 5.83198 -17.5669 
-23.2806 5.83198 -16.8494 -15.4145 5.83198 -17.685 -7.54842 5.83198 -19.5595 
0.317681 5.83198 -18.2923 8.18378 5.83198 -19.5988 16.0499 5.83198 -16.7092 
23.916 5.83198 -17.3403 31.7821 5.83198 -18.2672 39.6482 5.83198 -18.5573 
47.5143 5.83198 -18.1176 55.3804 5.83198 -17.5459 -46.8789 13.6981 -16.0864 
-39.0128 13.6981 -18.5721 -31.1467 13.6981 -18.4403 -23.2806 13.6981 -18.4956 
-15.4145 13.6981 -18.2065 -7.54842 13.6981 -18.2954 0.317681 13.6981 -18.0963 
8.18378 13.6981 -18.6679 16.0499 13.6981 -18.1923 23.916 13.6981 -18.5132 
31.7821 13.6981 -18.9052 39.6482 13.6981 -18.4069 47.5143 13.6981 -17.1159 
55.3804 13.6981 -14.3301 -46.8789 21.5642 -14.7131 -39.0128 21.5642 -17.6442 
-31.1467 21.5642 -18.5864 -23.2806 21.5642 -19.061 -15.4145 21.5642 -19.2125 
-7.54842 26.1654 -19.8951 -7.54842 21.5642 -19.4955 0.317681 27.2234 -19.8951 
0.317681 21.5642 -19.0804 8.18378 21.5642 -19.5336 16.0499 21.5642 -19.2944 
23.916 21.5642 -18.9198 31.7821 21.5642 -18.3335 39.6482 21.5642 -17.8512 
47.5143 21.5642 -15.4276 55.3804 21.5642 -12.8035 -39.0128 29.4303 -15.9146 
-31.1467 29.4303 -18.635 -23.2806 29.4303 -19.2604 -11.4655 29.4303 -19.8951 
-15.4145 29.4303 -19.6235 -7.54842 31.2264 -19.8951 6.44883 29.4303 -19.8951 
0.317681 31.4074 -19.8951 8.18378 29.4303 -19.8043 16.0499 29.4303 -19.224 
23.916 29.4303 -18.3625 31.7821 29.4303 -17.9832 39.6482 29.4303 -15.1592 
47.5143 29.4303 -13.1613 -31.1467 37.2964 -15.3337 -23.2806 37.2964 -17.7478 
-15.4145 37.2964 -18.374 -7.54842 37.2964 -18.8981 0.317681 37.2964 -18.8338 
8.18378 37.2964 -18.2979 16.0499 37.2964 -17.3013 23.916 37.2964 -16.4168 
31.7821 37.2964 -13.3241 -15.4145 45.1625 -12.879 -7.54842 45.1625 -13.5765 
0.317681 45.1625 -12.8715 -7.54842 -41.3646 -4.34702 0.317681 -41.3646 -5.48968 
8.18378 -41.3646 -6.22457 16.0499 -41.3646 -6.32914 23.916 -41.3646 -5.94993 
-39.0128 -33.4985 -5.74395 -31.1467 -33.4985 -7.14886 -23.2806 -33.4985 -7.02515 
-15.4145 -33.4985 -8.07624 -7.54842 -33.4985 -8.86779 0.317681 -33.4985 -9.55344 
8.18378 -26.479 -12.029 8.18378 -33.4985 -10.2967 16.0499 -29.7187 -12.029 
16.0499 -33.4985 -10.8291 23.916 -28.8026 -12.029 23.916 -33.4985 -10.3779 
31.7821 -26.5057 -12.029 31.7821 -33.4985 -7.96705 39.6482 -33.4985 -5.25679 
-54.745 -25.6324 -4.23264 -46.8789 -25.6324 -8.19777 -39.0128 -21.2471 -12.029 
-39.0128 -25.6324 -9.9815 -31.1467 -21.7397 -12.029 -31.1467 -25.6324 -10.6069 
-23.2806 -21.6344 -12.029 -23.2806 -25.6324 -10.8872 -15.4145 -18.963 -12.029 
-15.4145 -25.6324 -10.5965 -7.54842 -19.2293 -12.029 -7.54842 -25.6324 -11.1063 
6.94816 -25.6324 -12.029 0.317681 -20.1225 -12.029 0.317681 -25.6324 -11.0559 
33.2056 -25.6324 -12.029 39.6482 -21.5606 -12.029 39.6482 -25.6324 -9.81931 
47.5143 -25.6324 -7.20537 -54.745 -17.7663 -8.30922 -45.2336 -17.7663 -12.029 
-46.8789 -16.5476 -12.029 -46.8789 -17.7663 -11.6353 46.7098 -17.7663 -12.029 
47.5143 -17.3935 -12.029 47.5143 -17.7663 -11.7875 55.3804 -10.744 -12.029 
55.3804 -17.7663 -8.91705 -51.277 -9.90022 -12.029 -54.745 -9.90022 -10.2607 
55.766 -9.90022 -12.029 63.2465 -9.90022 -4.98253 -62.6111 -2.03412 -4.36389 
-53.9164 -2.03412 -12.029 -54.745 -2.03412 -11.4749 61.2619 -2.03412 -12.029 
63.2465 -2.03412 -10.1747 -54.6507 5.83198 -12.029 -54.745 5.83198 -11.9751 
63.2233 5.83198 -12.029 63.2465 5.83198 -12.0007 -54.0843 13.6981 -12.029 
-54.745 13.6981 -11.4183 58.8008 13.6981 -12.029 63.2465 13.6981 -6.09797 
-52.0221 21.5642 -12.029 -54.745 21.5642 -7.71428 -46.8789 27.7477 -12.029 
56.3264 21.5642 -12.029 55.3804 22.8188 -12.029 -45.6405 29.4303 -12.029 
-46.8789 29.4303 -10.5574 -39.0128 36.1218 -12.029 39.6482 35.9535 -12.029 
49.1791 29.4303 -12.029 47.5143 30.7588 -12.029 -37.5416 37.2964 -12.029 
-39.0128 37.2964 -10.3074 -31.1467 41.7939 -12.029 -23.2806 44.3146 -12.029 
8.18378 45.1266 -12.029 16.0499 43.9077 -12.029 23.916 42.091 -12.029 
36.7629 37.2964 -12.029 31.7821 38.9246 -12.029 39.6482 37.2964 -8.63006 
-19.3241 45.1625 -12.029 -23.2806 45.1625 -9.22719 -15.4145 45.8006 -12.029 
-7.54842 46.3264 -12.029 7.81069 45.1625 -12.029 0.317681 45.7567 -12.029 
8.18378 45.1625 -11.8333 16.0499 45.1625 -7.38966 -7.54842 -41.5635 -4.16291 
0.317681 -42.8401 -4.16291 8.18378 -43.6152 -4.16291 16.0499 -43.6343 -4.16291 
23.916 -43.1706 -4.16291 -39.0128 -35.1954 -4.16291 -31.1467 -36.7658 -4.16291 
-23.2806 -37.6557 -4.16291 -23.2806 -41.3646 0.839066 -8.88779 -41.3646 -4.16291 
-15.4145 -40.1271 -4.16291 -15.4145 -41.3646 -2.77793 28.298 -41.3646 -4.16291 
31.7821 -39.1709 -4.16291 31.7821 -41.3646 -1.20277 39.6482 -34.5984 -4.16291 
-54.745 -25.7138 -4.16291 -42.7911 -33.4985 -4.16291 -46.8789 -30.7002 -4.16291 
-46.8789 -33.4985 -0.44709 41.0927 -33.4985 -4.16291 47.5143 -28.0654 -4.16291 
-54.8234 -25.6324 -4.16291 50.5669 -25.6324 -4.16291 55.3804 -21.4355 -4.16291 
-58.7695 -17.7663 -4.16291 59.0605 -17.7663 -4.16291 63.2465 -10.962 -4.16291 
-62.0108 -9.90022 -4.16291 -62.6111 -3.64353 -4.16291 63.7018 -9.90022 -4.16291 
63.2465 -9.90022 0.919947 -62.7319 -2.03412 -4.16291 -62.6111 -1.07932 -4.16291 
-62.6111 -2.03412 -0.797129 66.1561 -2.03412 -4.16291 -61.6357 5.83198 -4.16291 
66.6209 5.83198 -4.16291 -60.2047 13.6981 -4.16291 64.0222 13.6981 -4.16291 
63.2465 15.4182 -4.16291 63.2465 13.6981 -2.15826 -56.0303 21.5642 -4.16291 
-54.745 23.6253 -4.16291 -54.745 21.5642 1.10786 59.8071 21.5642 -4.16291 
55.3804 26.6769 -4.16291 -50.7386 29.4303 -4.16291 -46.8789 33.6772 -4.16291 
52.5716 29.4303 -4.16291 47.5143 33.47 -4.16291 -42.7506 37.2964 -4.16291 
-39.0128 40.1233 -4.16291 -39.0128 37.2964 3.5154 -31.1467 44.2059 -4.16291 
23.916 44.5787 -4.16291 31.7821 41.9211 -4.16291 41.3186 37.2964 -4.16291 
39.6482 38.2311 -4.16291 39.6482 37.2964 -1.30998 -27.6169 45.1625 -4.16291 
-23.2806 46.2525 -4.16291 -23.2806 45.1625 -0.949979 -15.4145 46.9086 -4.16291 
-15.4145 45.1625 1.04146 -7.54842 47.1965 -4.16291 -7.54842 45.1625 1.22986 
0.317681 46.6885 -4.16291 0.317681 45.1625 -0.439856 8.18378 46.3308 -4.16291 
8.18378 45.1625 -1.15041 20.2686 45.1625 -4.16291 16.0499 45.8141 -4.16291 
16.0499 45.1625 -2.35545 -23.2806 -42.745 3.70319 -15.4145 -44.7828 3.70319 
-7.54842 -46.8972 3.70319 0.317681 -48.2318 3.70319 8.18378 -48.9738 3.70319 
16.0499 -48.787 3.70319 23.916 -47.3065 3.70319 31.7821 -43.5487 3.70319 
-46.8789 -35.4417 3.70319 -39.0128 -39.4589 3.70319 -29.5713 -41.3646 3.70319 
-31.1467 -41.0182 3.70319 -23.2806 -41.3646 11.2894 35.1468 -41.3646 3.70319 
39.6482 -38.1307 3.70319 -49.9014 -33.4985 3.70319 -54.745 -29.5008 3.70319 
45.3323 -33.4985 3.70319 47.5143 -31.5133 3.70319 -57.8518 -25.6324 3.70319 
53.3876 -25.6324 3.70319 47.5143 -25.6324 11.1742 55.3804 -23.3115 3.70319 
-61.3775 -17.7663 3.70319 59.3058 -17.7663 3.70319 55.3804 -17.7663 9.87243 
-62.1583 -9.90022 3.70319 62.9002 -9.90022 3.70319 63.2465 -7.42035 3.70319 
-62.3993 -2.03412 3.70319 -54.745 -2.03412 10.9527 55.3804 -2.03412 10.588 
63.7892 -2.03412 3.70319 63.2465 -2.03412 4.30493 -59.6893 5.83198 3.70319 
-54.745 5.83198 10.5543 55.3804 5.83198 9.60643 64.0385 5.83198 3.70319 
63.2465 7.84966 3.70319 63.2465 5.83198 4.5275 -57.6815 13.6981 3.70319 
-54.745 20.137 3.70319 -54.745 13.6981 7.2032 47.5143 13.6981 10.4776 
59.6502 13.6981 3.70319 55.3804 13.6981 6.90831 -53.8111 21.5642 3.70319 
-46.8789 21.5642 10.0974 39.6482 21.5642 11.136 47.5143 21.5642 8.8473 
56.1057 21.5642 3.70319 55.3804 22.4387 3.70319 55.3804 21.5642 4.33752 
-47.934 29.4303 3.70319 -46.8789 30.5616 3.70319 -46.8789 29.4303 4.80141 
-39.0128 37.1945 3.70319 -39.0128 29.4303 9.42252 31.7821 29.4303 10.541 
39.6482 34.9569 3.70319 39.6482 29.4303 8.60911 48.6481 29.4303 3.70319 
47.5143 30.3587 3.70319 47.5143 29.4303 4.59987 -38.8364 37.2964 3.70319 
-31.1467 40.7625 3.70319 -31.1467 37.2964 7.647 -23.2806 43.1717 3.70319 
-23.2806 37.2964 9.58489 -15.4145 44.0915 3.70319 -15.4145 37.2964 10.6474 
-7.54842 44.0058 3.70319 -7.54842 37.2964 10.6905 0.317681 43.259 3.70319 
0.317681 37.2964 10.013 8.18378 42.938 3.70319 8.18378 37.2964 9.17291 
16.0499 42.3091 3.70319 16.0499 37.2964 8.26972 23.916 40.8428 3.70319 
23.916 37.2964 7.56973 36.0427 37.2964 3.70319 31.7821 39.2381 3.70319 
31.7821 37.2964 5.9288 -15.4145 -43.1587 11.5693 -7.54842 -45.2441 11.5693 
0.317681 -46.586 11.5693 8.18378 -47.3719 11.5693 16.0499 -46.7551 11.5693 
23.916 -45.7726 11.5693 31.7821 -41.7422 11.5693 -46.8789 -34.1112 11.5693 
-39.0128 -37.9003 11.5693 -31.1467 -39.5847 11.5693 -23.0417 -41.3646 11.5693 
-23.2806 -41.2987 11.5693 -15.4145 -41.3646 13.6562 -7.54842 -41.3646 15.7482 
0.317681 -41.3646 16.933 8.18378 -41.3646 17.5587 16.0499 -41.3646 16.6677 
[...]
POINT_DATA 564
SCALARS ImageScalars float
LOOKUP_TABLE default
0 0 0 0 0 0 0 0 0 
0 0 0 0 0 0 0 0 0 
0 0 0 0 0 0 0 0 0 
0 0 0 0 0 0 0 0 0 
0 0 0 0 0 0 0 0 0 
0 0 0 0 0 0 0 0 0 
0 0 0 0 0 0 0 0 0 
0 0 0 0 0 0 0 0 0 
0 0 0 0 0 0 0 0 0 
0 0 0 0 0 0 0 0 0 
0 0 0 0 0 0 0 0 0 
0 0 0 0 0 0 0 0 0 
0 0 0 0 0 0 0 0 0 
0 0 0 0 0 0 0 0 0 
0 0 0 0 0 0 0 0 0 
0 0 0 0 0 0 0 0 0 
0 0 0 0 0 0 0 0 0 
0 0 0 0 0 0 0 0 0 
0 0 0 0 0 0 0 0 0 
0 0 0 0 0 0 0 0 0 
0 0 0 0 0 0 0 0 0 
0 0 0 0 0 0 0 0 0 
0 0 0 0 0 0 0 0 0 
0 0 0 0 0 0 0 0 0 
0 0 0 0 0 0 0 0 0 
0 0 0 0 0 0 0 0 0 
0 0 0 0 0 0 0 0 0 
0 0 0 0 0 0 0 0 0 
0 0 0 0 0 0 0 0 0 
0 0 0 0 0 0 0 0 0 
0 0 0 0 0 0 0 0 0 
0 0 0 0 0 0 0 0 0 
0 0 0 0 0 0 0 0 0 
0 0 0 0 0 0 0 0 0 
0 0 0 0 0 0 0 0 0 
0 0 0 0 0 0 0 0 0 
0 0 0 0 0 0 0 0 0 
0 0 0 0 0 0 0 0 0 
0 0 0 0 0 0 0 0 0 
0 0 0 0 0 0 0 0 0 
0 0 0 0 0 0 0 0 0 
0 0 0 0 0 0 0 0 0 
0 0 0 0 0 0 0 0 0 
0 0 0 0 0 0 0 0 0 
0 0 0 0 0 0 0 0 0 
0 0 0 0 0 0 0 0 0 
0 0 0 0 0 0 0 0 0 
0 0 0 0 0 0 0 0 0 
0 0 0 0 0 0 0 0 0 
0 0 0 0 0 0 0 0 0 
0 0 0 0 0 0 0 0 0 
0 0 0 0 0 0 0 0 0 
0 0 0 0 0 0 0 0 0 
0 0 0 0 0 0 0 0 0 
0 0 0 0 0 0 0 0 0 
0 0 0 0 0 0 0 0 0 
0 0 0 0 0 0 0 0 0 
0 0 0 0 0 0 0 0 0 
0 0 0 0 0 0 0 0 0 
0 0 0 0 0 0 0 0 0 
0 0 0 0 0 0 0 0 0 
0 0 0 0 0 0 0 0 0 
0 0 0 0 0 0 
NORMALS Normals float
0.0380271 -0.0323653 0.998752 -0.0231908 -0.00746602 0.999703 0.13611 0.223568 0.965138 
0.0554014 0.250322 0.966576 -0.0488439 0.285007 0.95728 -0.179698 0.370837 0.911147 
0.0974819 0.288637 0.952463 -0.0243535 0.258714 0.965647 -0.0685864 0.212297 0.974795 
-0.0469652 0.238536 0.969997 0.0162682 0.35077 0.93632 0.113659 0.427206 0.896982 
0.131265 0.35059 0.927284 0.0500182 0.185564 0.981358 -0.0141745 0.197948 0.98011 
-0.0744463 0.275866 0.958309 -0.160279 0.39409 0.904988 0.258294 0.244912 0.934506 
0.0638441 0.204731 0.976734 -0.0410791 0.18675 0.981548 -0.00982085 0.175728 0.98439 
0.169927 0.288441 0.942298 0.162813 0.325763 0.931327 0.0411774 0.0598963 0.997355 
-0.104131 0.258939 0.960264 -0.0958776 0.0671041 0.993129 0.0434455 0.106393 0.993375 
0.0390654 0.181616 0.982593 -0.0695026 0.252325 0.965143 -0.241775 0.289503 0.926139 
-0.492898 0.281752 0.823205 0.264756 0.0991174 0.959208 0.0553895 0.143563 0.98809 
-0.0516707 0.161407 0.985534 0.0127492 0.155537 0.987748 0.137583 0.164505 0.976734 
-0.156852 0.153869 0.975562 0.0878109 0.00826089 0.996103 0.0777866 0.0956298 0.992373 
-0.109501 0.0349724 0.993371 0.103776 0.0632227 0.992589 0.0773052 0.086866 0.993216 
-0.0266367 0.0968683 0.994941 -0.142241 0.149507 0.978476 -0.380991 0.263464 0.886246 
0.28831 0.0288832 0.957102 0.115898 0.110285 0.987119 -0.0226745 0.126611 0.991693 
0.00354629 0.16946 0.985531 0.177563 0.0919497 0.979804 0.0434542 0.000193485 0.999055 
-0.00273889 0.234955 0.972003 -0.114492 -0.000494435 0.993424 -0.12779 0.128844 0.983397 
0.0993522 0.106956 0.989287 0.0766917 0.0730407 0.994376 -0.00842226 0.0215807 0.999732 
-0.0572616 -0.0115547 0.998292 -0.378756 -0.0474467 0.924279 0.3539 -0.0532554 0.933766 
0.160352 0.0366223 0.98638 -0.00438996 0.0663185 0.997789 -0.0148172 0.139475 0.990115 
-0.0126406 0.0941634 0.995476 -0.00702595 -0.00493532 0.999963 0.0237143 0.0518729 0.998372 
0.00749247 -0.00068078 0.999972 -0.0105086 0.163885 0.986423 0.0447842 0.10105 0.993873 
-0.0117532 0.00481877 0.999919 -0.103687 -0.0386119 0.99386 -0.223987 -0.166862 0.960202 
-0.47749 -0.265537 0.837552 0.410712 -0.259797 0.873969 0.250959 -0.169454 0.95305 
0.0859926 0.0121767 0.996221 0.0393142 0.0479362 0.998076 0.026521 0.0894778 0.995636 
0.0187331 0.0302786 0.999366 -0.00852302 0.120911 0.992627 -0.0161345 0.0324759 0.999342 
0.00267496 0.136253 0.990671 0.0137854 0.0734179 0.997206 -0.0382552 0.062349 0.997321 
-0.0603984 -0.00888107 0.998135 -0.0655289 -0.0549512 0.996336 -0.192646 -0.218275 0.956683 
-0.296208 -0.235467 0.925644 -0.572203 -0.388619 0.722191 0.371026 -0.308474 0.87589 
0.205937 -0.179935 0.96188 0.0597257 -0.0713614 0.995661 0.0468444 -0.0428484 0.997983 
0.0563317 -0.0519935 0.997057 0.0377721 -0.094793 0.99478 -0.0543433 -0.0598653 0.996726 
-0.0276269 -0.087078 0.995818 -0.0629624 -0.0742859 0.995247 -0.0887168 -0.115749 0.989309 
-0.0756875 -0.14798 0.98609 -0.201321 -0.27419 0.940367 -0.272207 -0.361404 0.89179 
-0.464346 -0.564598 0.682357 0.335901 -0.497903 0.799539 0.18144 -0.398568 0.899012 
0.0665305 -0.329296 0.94188 0.0312754 -0.333551 0.942213 -0.0389627 -0.36049 0.931949 
-0.0940722 -0.381525 0.919559 -0.116871 -0.431896 0.894319 -0.231886 -0.451849 0.861429 
-0.302967 -0.608168 0.733718 0.115806 -0.863364 0.491112 0.00137375 -0.838179 0.545393 
-0.0758052 -0.879767 0.469322 0.116796 0.652441 0.748785 0.0958196 0.588313 0.802936 
0.0423963 0.589645 0.806549 -0.015628 0.620427 0.784108 -0.186168 0.667578 0.720889 
0.256769 0.620058 0.741349 0.0756098 0.549023 0.83238 0.0560519 0.505745 0.86086 
0.106906 0.411405 0.905161 0.0899102 0.368904 0.925109 0.0823384 0.300898 0.950095 
0.129923 0.230296 0.964409 0.0741843 0.319166 0.944791 0.0264586 0.298562 0.954023 
0.00360164 0.363473 0.931598 -0.0860695 0.334226 0.938555 -0.151333 0.406272 0.901133 
-0.189157 0.387662 0.902185 -0.284594 0.522221 0.803922 -0.441797 0.632715 0.635993 
0.5718 0.544023 0.614072 0.338024 0.53598 0.773605 0.0984887 0.366427 0.925219 
0.11615 0.457393 0.881647 0.0112279 0.324026 0.945981 0.0520755 0.383881 0.921913 
-0.0374228 0.279217 0.959499 -0.00185831 0.352516 0.935804 -0.0409106 0.238376 0.970311 
0.0144893 0.255604 0.966673 0.0145734 0.316212 0.948577 0.0276023 0.195277 0.98036 
0.12509 0.21386 0.968822 0.101729 0.346724 0.932434 0.0674391 0.170982 0.982963 
-0.186494 0.389235 0.902062 -0.189296 0.431407 0.882074 -0.246708 0.483453 0.839886 
-0.458819 0.644751 0.611376 0.577803 0.349235 0.737685 0.212377 0.301269 0.929588 
0.246598 0.297778 0.922235 0.248706 0.308221 0.918229 -0.216758 0.446812 0.867972 
-0.224928 0.446013 0.866302 -0.22944 0.457468 0.859116 -0.49473 0.302825 0.814579 
-0.535798 0.571813 0.621249 0.388981 0.191443 0.901134 0.533961 0.155769 0.831037 
-0.507 0.286501 0.812938 -0.880033 0.390984 0.269582 0.95116 -0.0251283 0.307674 
0.520891 0.098343 0.84794 0.564241 0.0966423 0.819934 -0.610863 0.237466 0.755285 
-0.770128 0.229556 0.595152 0.54337 0.00540405 0.839476 0.548994 0.00444171 0.835814 
-0.710151 -0.0847685 0.698928 -0.712305 -0.0850739 0.696695 0.638441 -0.0865404 0.76479 
0.686185 -0.110315 0.719014 -0.590572 -0.286985 0.754231 -0.908183 -0.385903 0.162122 
0.620265 -0.334793 0.709355 0.835773 -0.448895 0.316191 0.583497 -0.449118 0.676627 
-0.635455 -0.40324 0.658479 -0.615385 -0.43035 0.660379 0.594579 -0.463066 0.657302 
0.663503 -0.527173 0.530898 0.499655 -0.611885 0.613141 -0.404519 -0.698175 0.590691 
-0.520064 -0.596104 0.611714 -0.494198 -0.614899 0.614547 0.487715 -0.634546 0.599571 
0.537468 -0.708158 0.457865 0.367126 -0.732816 0.572887 0.199144 -0.825069 0.528775 
-0.100088 -0.897085 0.430372 -0.167987 -0.835502 0.523179 -0.247085 -0.802758 0.542705 
-0.387771 -0.707702 0.590586 -0.327202 -0.689805 0.645839 -0.466662 -0.843135 0.267113 
0.152523 -0.867604 0.473286 0.190022 -0.935244 0.298681 0.111313 -0.893349 0.435359 
-0.00326779 -0.904959 0.425486 -0.0990034 -0.898208 0.428276 -0.0767831 -0.909452 0.408657 
-0.0991172 -0.903751 0.416425 -0.134889 -0.980472 0.143108 0.117919 0.661963 0.740202 
0.0986172 0.662145 0.742859 0.0372822 0.664583 0.746284 -0.0250321 0.687181 0.726055 
-0.195958 0.73058 0.654105 0.28017 0.703771 0.652848 0.127871 0.728706 0.672782 
0.143162 0.630153 0.763159 0.235409 0.910424 0.340163 0.123583 0.666592 0.735107 
0.152603 0.673269 0.723479 0.180635 0.770262 0.611611 -0.324808 0.697435 0.638815 
-0.404262 0.646512 0.646989 -0.474768 0.772617 0.421494 -0.469688 0.669121 0.575908 
0.572466 0.547337 0.610496 0.357236 0.683284 0.636793 0.407703 0.665466 0.625247 
0.484235 0.796403 0.362295 -0.472067 0.669269 0.573787 -0.528196 0.700532 0.479858 
0.576559 0.543936 0.609683 -0.573227 0.684933 0.449753 -0.64895 0.660212 0.378132 
0.759692 0.375851 0.530664 -0.727118 0.6163 0.302446 -0.883678 0.407262 0.230763 
0.917434 0.18404 0.352766 0.951819 0.0147995 0.306305 -0.898846 0.377441 0.222741 
-0.921156 0.335962 -0.196471 0.955325 -0.0270303 0.294319 0.958793 -0.0424809 0.280911 
0.997154 -0.0713369 0.0244116 -0.980016 0.178477 0.0878349 0.973913 -0.148021 0.171997 
-0.99078 -0.12871 0.0422827 0.939514 -0.323695 0.111959 -0.928027 -0.372427 0.00793174 
-0.908672 -0.417476 0.00541348 -0.911409 -0.396686 -0.109427 0.864422 -0.500155 0.0511857 
0.848565 -0.527342 0.0429906 0.807284 -0.510322 -0.29642 -0.807597 -0.589717 -0.00455892 
-0.728456 -0.684691 -0.0234505 0.776577 -0.627425 0.0571517 0.69907 -0.714259 0.0337078 
-0.673661 -0.738593 -0.0257031 -0.583997 -0.811496 -0.0205574 0.614252 -0.789024 0.011635 
0.544849 -0.838516 0.00548676 0.47875 -0.715724 -0.508466 0.358958 -0.931158 -0.0639871 
-0.247369 -0.967701 -0.048609 -0.362451 -0.931706 -0.0235196 -0.488578 -0.871333 -0.0454979 
-0.467161 -0.882743 -0.0502432 -0.476046 -0.852196 -0.217121 0.268038 -0.961155 -0.0658541 
0.160841 -0.984894 -0.0641375 0.165367 -0.956094 -0.241948 0.058735 -0.993944 -0.0928773 
0.0473717 -0.932006 -0.359334 -0.0109297 -0.991692 -0.128168 -0.0361959 -0.919973 -0.390308 
-0.0559325 -0.988998 -0.136944 -0.0587305 -0.946137 -0.318395 -0.0552443 -0.992286 -0.110981 
-0.0463837 -0.960697 -0.273696 -0.180565 -0.981652 -0.0612809 -0.105418 -0.991276 -0.0791098 
-0.104471 -0.977595 -0.18274 0.230432 0.964053 0.132296 0.258066 0.956104 0.138805 
0.220377 0.961849 0.162114 0.128425 0.978063 0.164014 0.0345885 0.986324 0.161147 
-0.0985789 0.985538 0.137829 -0.310586 0.937969 0.154113 -0.491798 0.864779 0.101452 
0.48412 0.865293 0.129983 0.323241 0.932132 0.163232 0.202024 0.967194 0.154021 
0.197189 0.967746 0.156793 0.209667 0.861015 -0.463349 -0.537181 0.837053 0.103821 
-0.597011 0.798544 0.0768413 0.5734 0.812397 0.105941 0.753563 0.656088 0.0411317 
-0.66497 0.74617 0.032333 -0.696055 0.717981 -0.00326269 0.845002 0.5344 -0.0197133 
-0.744352 0.65603 -0.124757 -0.648176 0.370593 -0.665228 -0.78309 0.60233 -0.154816 
0.958349 0.246249 -0.144669 -0.846757 0.449125 -0.285113 -0.683445 0.325263 -0.653534 
0.953478 0.0621143 -0.294995 -0.85906 0.278167 -0.429696 -0.847189 0.213352 -0.486571 
0.929233 -0.123044 -0.348405 0.576825 -0.0596699 -0.814686 -0.455428 -0.0909561 -0.885614 
-0.810132 0.0630033 -0.582852 -0.783551 0.056194 -0.618781 0.859812 -0.260962 -0.438888 
0.637276 -0.18148 -0.748962 -0.417704 -0.184054 -0.889746 -0.771614 -0.169705 -0.613035 
-0.759835 -0.236201 -0.605689 -0.727668 -0.157398 -0.667626 0.813054 -0.302975 -0.497141 
0.75295 -0.455032 -0.475408 0.688127 -0.310854 -0.65563 -0.323531 -0.142156 -0.935478 
-0.704387 -0.350694 -0.617133 -0.509312 -0.28929 -0.810502 0.730736 -0.487071 -0.478316 
0.50986 -0.362745 -0.780038 -0.218218 -0.230816 -0.948212 -0.400756 -0.330322 -0.854565 
-0.636944 -0.457027 -0.620828 -0.624106 -0.481137 -0.615629 -0.606793 -0.443084 -0.659908 
0.64537 -0.583225 -0.493301 0.621872 -0.599144 -0.504284 0.596207 -0.57523 -0.560043 
0.474337 -0.70852 -0.522498 0.389342 -0.482281 -0.784741 -0.164094 -0.392754 -0.904885 
-0.428503 -0.713956 -0.553761 -0.32542 -0.502937 -0.800723 -0.532353 -0.628574 -0.567005 
-0.515108 -0.643405 -0.566298 -0.500746 -0.602013 -0.62196 0.471267 -0.710843 -0.52212 
0.318086 -0.771778 -0.550618 0.286644 -0.653675 -0.700389 0.166387 -0.824092 -0.541469 
0.140726 -0.59467 -0.791558 0.0414356 -0.856196 -0.514986 0.0538019 -0.559564 -0.827039 
-0.0434231 -0.849589 -0.525655 -0.0309085 -0.569612 -0.821332 -0.0552525 -0.835446 -0.546788 
-0.0773506 -0.593804 -0.800883 -0.0485126 -0.81484 -0.577652 -0.090123 -0.565958 -0.819493 
-0.104389 -0.789481 -0.604833 -0.0790588 -0.587666 -0.805232 -0.172867 -0.780855 -0.600319 
-0.124883 -0.642639 -0.755923 -0.371467 -0.753274 -0.542762 -0.287796 -0.790722 -0.540308 
-0.274783 -0.691748 -0.667817 0.236098 0.839826 -0.488825 0.202883 0.844527 -0.495594 
0.123654 0.857974 -0.498589 0.011168 0.863672 -0.50393 -0.0841995 0.862253 -0.49943 
-0.270299 0.816247 -0.510567 -0.472209 0.753507 -0.457433 0.520506 0.710582 -0.473441 
0.32746 0.800933 -0.501274 0.170026 0.888528 -0.426157 0.208182 0.849148 -0.485395 
0.206266 0.849186 -0.486145 0.227883 0.732028 -0.642032 0.168062 0.606751 -0.776922 
0.096641 0.515358 -0.851508 -0.014225 0.502408 -0.864513 -0.140233 0.477405 -0.867421 
-0.21853 0.579695 -0.784983 -0.481475 0.747322 -0.457922 -0.462502 0.737308 -0.492412 
-0.564461 0.642608 -0.51811 0.543928 0.687403 -0.481269 0.723446 0.342379 -0.599502 
0.516443 0.675172 -0.526716 0.288636 0.558729 -0.777503 0.157941 0.443546 -0.882225 
0.0455781 0.428079 -0.902591 0.0851671 0.339907 -0.936595 0.0347742 0.192298 -0.98072 
0.0492422 0.11343 -0.992325 -0.106312 0.160414 -0.981308 -0.130237 0.258208 -0.957271 
-0.283162 0.336317 -0.89817 -0.583574 0.598957 -0.548353 -0.530067 0.552778 -0.643013 
0.730981 0.322709 -0.60127 0.713047 0.319527 -0.624072 0.394538 0.244947 -0.88563 
0.271952 0.237867 -0.932449 -0.0261727 -0.0154118 -0.999539 0.0311466 -0.0984906 -0.99465 
-0.199157 0.0945064 -0.9754 -0.631267 0.345624 -0.694295 -0.392685 0.132134 -0.910131 
-0.618348 0.334549 -0.711142 0.660724 -0.00282987 -0.750624 0.646236 -0.00750873 -0.7631 
0.365681 0.0821437 -0.927108 0.200115 -0.0305485 -0.979296 -0.0748964 -0.0230284 -0.996925 
-0.0643845 -0.0511135 -0.996615 0.0634442 -0.0191698 -0.997801 -0.0445687 -0.140244 -0.989113 
-0.188154 -0.114529 -0.975439 -0.238292 -0.0916986 -0.966855 -0.562084 0.248892 -0.788742 
-0.378751 0.112915 -0.918585 -0.473801 0.0157654 -0.880491 0.646053 -0.0425647 -0.762105 
0.616227 -0.0453504 -0.786262 0.633903 -0.0441682 -0.77215 0.348199 -0.0979277 -0.932292 
0.138844 -0.110505 -0.98413 0.0428236 -0.107948 -0.993234 -0.0275983 -0.139019 -0.989905 
-0.000397233 -0.111329 -0.993783 -0.013011 0.0186437 -0.999742 -0.0223565 -0.087011 -0.995956 
0.00890412 0.0484381 -0.998787 -0.0950567 -0.213426 -0.972324 -0.119596 -0.362824 -0.924151 
-0.124638 -0.290518 -0.948717 -0.16431 -0.163964 -0.972686 -0.252482 -0.108838 -0.961461 
-0.472999 0.0143712 -0.880946 -0.472603 0.0134748 -0.881172 -0.472741 0.0142344 -0.881086 
0.532049 -0.0675619 -0.844014 0.340146 -0.175567 -0.923838 0.181904 -0.128648 -0.974864 
0.0551794 -0.0920619 -0.994223 -0.0109104 -0.0671106 -0.997686 0.0869766 -0.0395204 -0.995426 
-0.0475598 -0.0714456 -0.99631 -0.0638998 -0.0480097 -0.996801 -0.375525 -0.23391 -0.896809 
-0.043911 -0.219586 -0.974604 0.0163376 -0.17188 -0.984982 -0.0824054 -0.143648 -0.986192 
-0.327902 -0.10643 -0.938697 -0.18941 -0.117957 -0.974787 0.564326 -0.176184 -0.806533 
0.340501 -0.167522 -0.9252 0.227898 -0.132054 -0.964689 0.102231 -0.0861632 -0.991022 
0.0250776 -0.0596841 -0.997902 0.0973885 -0.0733893 -0.992537 -0.105627 0.0577756 -0.992726 
-0.0877074 -0.201657 -0.975521 -0.354234 0.0573117 -0.933399 -0.0615692 0.0570093 -0.996473 
-0.0329914 -0.0169268 -0.999312 -0.113821 -0.0268481 -0.993138 -0.190678 -0.135164 -0.972303 
-0.188712 -0.132043 -0.973115 -0.179244 -0.1323 -0.974868 0.442208 -0.237011 -0.865031 
0.443825 -0.2604 -0.857444 0.419664 -0.220002 -0.880614 0.261355 -0.196051 -0.945123 
0.128166 -0.165094 -0.977915 0.00424574 -0.140113 -0.990126 0.0389802 -0.140972 -0.989246 
0.0691672 -0.19545 -0.978271 -0.136201 -0.106935 -0.984893 -0.115093 -0.244488 -0.962798 
-0.0891754 -0.0696231 -0.99358 -0.145103 0.0620296 -0.98747 -0.0621286 -0.0361461 -0.997413 
-0.273382 -0.122349 -0.954093 -0.211639 -0.201218 -0.95641 -0.203411 -0.100754 -0.973896 
0.408078 -0.333885 -0.849702 0.321741 -0.385963 -0.864589 0.273365 -0.306926 -0.911629 
0.156972 -0.261943 -0.952232 0.0470797 -0.220588 -0.97423 0.0525518 -0.155558 -0.986428 
0.00568657 -0.198422 -0.9801 -0.154151 -0.226199 -0.961806 -0.0908989 -0.180088 -0.979441 
0.00565337 -0.218642 -0.975789 -0.0803562 -0.150196 -0.985385 -0.209068 -0.213524 -0.954305 
-0.173015 -0.296858 -0.939117 -0.192874 -0.171836 -0.96606 0.273487 -0.404055 -0.872894 
0.233047 -0.428793 -0.872826 0.218431 -0.371178 -0.902505 0.120198 -0.463642 -0.877832 
0.117793 -0.340549 -0.932819 0.055373 -0.493742 -0.867843 0.0572932 -0.296773 -0.953228 
-0.0283097 -0.513442 -0.857657 -0.0198653 -0.340656 -0.939978 -0.0873055 -0.483708 -0.870864 
-0.104028 -0.319219 -0.941954 -0.102922 -0.378782 -0.919745 -0.104055 -0.281053 -0.954035 
-0.0624234 -0.3774 -0.923944 -0.0633698 -0.334727 -0.940182 -0.110858 -0.358729 -0.926835 
-0.102377 -0.369575 -0.923544 -0.101025 -0.353384 -0.930007 0.0183714 0.158292 -0.987221 
0.0485355 0.158269 -0.986202 0.0169249 0.17667 -0.984125 0.0130951 0.146623 -0.989106 
-0.0337026 0.0207191 -0.999217 0.036822 0.0788293 -0.996208 -0.068972 0.130764 -0.989012 
0.0303386 -0.0245495 -0.999238 0.0299856 0.0641436 -0.99749 -0.0504459 0.101453 -0.993561 
-0.0784595 0.0942996 -0.992447 0.0923886 0.162459 -0.98238 0.0402102 0.141774 -0.989082 
0.0141891 0.154306 -0.987921 -0.0104395 0.0910209 -0.995794 -0.0369502 0.00795066 -0.999285 
-0.042236 0.00604202 -0.999089 -0.037948 0.00999207 -0.99923 0.0349792 -0.032421 -0.998862 
0.0374765 0.0137622 -0.999203 -0.0940029 0.0737266 -0.992838 -0.0492697 -0.102557 -0.993506 
-0.0711776 0.0693516 -0.99505 0.14056 -0.0319606 -0.989556 0.0616535 -0.0701991 -0.995626 
0.0815226 -0.0311986 -0.996183 -0.0223134 -0.113839 -0.993249 -0.00605997 -0.0326224 -0.999449 
-0.0730417 -0.0395394 -0.996545 -0.0502441 -0.0856075 -0.995061 -0.0697377 -0.0743484 -0.994791 
0.0686509 -0.0656625 -0.995477 0.00150678 -0.111175 -0.9938 0.0583163 -0.0770616 -0.995319 
0.0691304 -0.0683237 -0.995265 -0.0329684 0.0312866 -0.998967 -0.0294368 0.0293681 -0.999135 
-0.041238 0.0313138 -0.998659 -0.0409488 0.0361579 -0.998507 -0.0011172 -0.100542 -0.994932 
-0.0278259 -0.0885005 -0.995687 -0.00524302 -0.117784 -0.993025 -0.0163862 -0.103916 -0.994451 

