# vtk DataFile Version 4.2
vtk output
ASCII
DATASET POLYDATA
POINTS 550 float
-14.2751 -41.633 -12.0695 -6.25156 -41.633 -11.8388 1.77194 -41.633 -11.062 
-30.322 -33.6095 -13.8813 -22.2985 -33.6095 -13.6813 -14.2751 -33.6095 -14.4061 
-6.25156 -33.6095 -14.4832 1.77194 -33.6095 -14.4143 9.79543 -33.6095 -13.8298 
17.8189 -33.6095 -12.359 25.8424 -33.6095 -10.7209 -46.369 -25.586 -11.7542 
-38.3455 -25.586 -14.4395 -30.322 -25.586 -15.0817 -22.2985 -25.586 -15.1044 
-14.2751 -25.586 -15.1616 -6.25156 -25.586 -15.0695 1.77194 -25.586 -15.7779 
9.79543 -25.586 -15.7833 17.8189 -25.586 -15.3412 25.8424 -25.586 -14.7577 
33.8659 -25.586 -13.425 -54.3925 -17.5625 -12.8397 -46.369 -17.5625 -15.5721 
-38.3455 -17.5625 -15.8073 -30.322 -17.5625 -16.0446 -22.2985 -17.5625 -15.8252 
-14.2751 -17.5625 -15.1146 -6.25156 -17.5625 -15.0941 1.77194 -17.5625 -16.4214 
9.79543 -17.5625 -16.0502 17.8189 -17.5625 -16.2801 25.8424 -17.5625 -16.004 
33.8659 -17.5625 -14.8406 41.8894 -17.5625 -13.9918 49.9129 -17.5625 -12.402 
-54.3925 -9.53903 -13.5609 -46.369 -9.53903 -15.5315 -38.3455 -9.53903 -16.966 
-30.322 -9.53903 -16.5274 -22.2985 -9.53903 -15.9093 -14.2751 -9.53903 -14.8886 
-6.25156 -9.53903 -15.7433 1.77194 -9.53903 -17.732 9.79543 -9.53903 -15.1428 
17.8189 -9.53903 -16.3557 25.8424 -9.53903 -15.7642 33.8659 -9.53903 -14.919 
41.8894 -9.53903 -13.919 49.9129 -9.53903 -12.5955 57.9364 -9.53903 -11.9135 
-62.416 -1.51554 -12.0445 -54.3925 -1.51554 -14.9204 -46.369 -1.51554 -16.1007 
-38.3455 -1.51554 -16.6432 -30.322 -1.51554 -16.7694 -22.2985 -1.51554 -15.7881 
-14.2751 -1.51554 -15.6188 -6.25156 -1.51554 -15.0744 1.77194 -1.51554 -15.7637 
9.79543 -1.51554 -17.2763 17.8189 -1.51554 -17.0925 25.8424 -1.51554 -14.263 
33.8659 -1.51554 -14.0372 41.8894 -1.51554 -14.1134 49.9129 -1.51554 -13.3894 
57.9364 -1.51554 -13.0859 -62.416 6.50796 -12.207 -54.3925 6.50796 -15.1518 
-46.369 6.50796 -16.3522 -38.3455 6.50796 -16.9778 -30.322 6.50796 -16.9587 
-22.2985 6.50796 -16.0536 -14.2751 6.50796 -15.5141 -6.25156 6.50796 -17.5677 
1.77194 6.50796 -16.1054 9.79543 6.50796 -16.8271 17.8189 6.50796 -16.4392 
25.8424 6.50796 -14.353 33.8659 6.50796 -14.6373 41.8894 6.50796 -14.033 
49.9129 6.50796 -13.9643 57.9364 6.50796 -13.9154 -62.416 14.5315 -11.9177 
-54.3925 14.5315 -14.908 -46.369 14.5315 -16.153 -38.3455 14.5315 -17.8985 
-30.322 14.5315 -17.2857 -22.2985 14.5315 -16.4403 -14.2751 14.5315 -15.2764 
-6.25156 14.5315 -16.4819 1.77194 14.5315 -16.8095 9.79543 14.5315 -15.3598 
17.8189 14.5315 -15.3417 25.8424 14.5315 -14.7349 33.8659 14.5315 -14.2764 
41.8894 14.5315 -15.4407 49.9129 14.5315 -12.4886 57.9364 14.5315 -12.8492 
-54.3925 22.5549 -12.5847 -46.369 22.5549 -17.4282 -38.3455 22.5549 -16.8848 
-30.322 22.5549 -16.8351 -22.2985 22.5549 -16.7674 -14.2751 22.5549 -15.8459 
-6.25156 22.5549 -16.1222 1.77194 22.5549 -15.9445 9.79543 22.5549 -15.3534 
17.8189 22.5549 -15.0354 25.8424 22.5549 -14.1649 33.8659 22.5549 -13.592 
41.8894 22.5549 -12.2934 49.9129 22.5549 -11.7609 -46.369 30.5784 -13.3984 
-38.3455 30.5784 -15.4221 -30.322 30.5784 -16.0692 -22.2985 30.5784 -16.2354 
-14.2751 30.5784 -15.8723 -6.25156 30.5784 -15.7528 1.77194 30.5784 -14.9752 
9.79543 30.5784 -14.4324 17.8189 30.5784 -13.3334 25.8424 30.5784 -11.6398 
-38.3455 38.6019 -10.9577 -30.322 38.6019 -14.1361 -22.2985 38.6019 -14.4833 
-14.2751 38.6019 -14.7658 -6.25156 38.6019 -13.9558 1.77194 38.6019 -12.3292 
-14.2751 -43.5977 -10.6335 -6.25156 -43.5954 -10.6335 1.77194 -42.2448 -10.6335 
-38.3455 -41.633 -3.46846 -30.322 -40.4936 -10.6335 -30.322 -41.633 -9.81313 
-21.2304 -41.633 -10.6335 -22.2985 -41.2039 -10.6335 -22.2985 -41.633 -10.4372 
3.57797 -41.633 -10.6335 9.79543 -39.0322 -10.6335 9.79543 -41.633 -8.46111 
17.8189 -36.4136 -10.6335 17.8189 -41.633 -3.95251 25.8424 -33.7191 -10.6335 
-46.369 -28.3862 -10.6335 -46.369 -33.6095 -7.47971 -38.1042 -33.6095 -10.6335 
-38.3455 -33.4567 -10.6335 -38.3455 -33.6095 -10.5305 26.433 -33.6095 -10.6335 
33.8659 -31.6269 -10.6335 33.8659 -33.6095 -8.89828 41.8894 -33.6095 -3.67589 
-49.7178 -25.586 -10.6335 -54.3925 -22.8023 -10.6335 -54.3925 -25.586 -8.3439 
41.6357 -25.586 -10.6335 41.8894 -25.3454 -10.6335 41.8894 -25.586 -10.52 
49.9129 -21.2953 -10.6335 49.9129 -25.586 -7.44819 -57.9415 -17.5625 -10.6335 
-62.416 -17.5625 -5.48789 53.214 -17.5625 -10.6335 57.9364 -11.4469 -10.6335 
57.9364 -17.5625 -7.52272 -61.4502 -9.53903 -10.6335 -62.416 -8.05078 -10.6335 
-62.416 -9.53903 -10.1562 59.5677 -9.53903 -10.6335 65.9599 -9.53903 -6.4283 
-64.3997 -1.51554 -10.6335 62.5772 -1.51554 -10.6335 65.9599 -1.51554 -8.58553 
-64.5547 6.50796 -10.6335 -70.4395 6.50796 -2.83599 63.7554 6.50796 -10.6335 
65.9599 6.50796 -9.36411 73.9834 6.50796 -7.26007 -64.135 14.5315 -10.6335 
-62.416 18.0896 -10.6335 60.7585 14.5315 -10.6335 57.9364 18.3317 -10.6335 
65.9599 14.5315 -7.92645 -58.307 22.5549 -10.6335 -62.416 22.5549 -7.77279 
-54.3925 29.0882 -10.6335 33.8659 28.2836 -10.6335 41.8894 26.1394 -10.6335 
53.2504 22.5549 -10.6335 49.9129 24.4564 -10.6335 57.9364 22.5549 -8.57026 
65.9599 22.5549 -5.13802 -53.2599 30.5784 -10.6335 -54.3925 30.5784 -9.794 
-46.369 35.2502 -10.6335 9.79543 38.4295 -10.6335 17.8189 35.041 -10.6335 
29.1779 30.5784 -10.6335 25.8424 32.2778 -10.6335 33.8659 30.5784 -8.75169 
41.8894 30.5784 -7.51805 49.9129 30.5784 -4.00568 -39.3626 38.6019 -10.6335 
-46.369 38.6019 -4.18683 -38.3455 38.9851 -10.6335 -30.322 42.7535 -10.6335 
-22.2985 45.2625 -10.6335 -14.2751 45.5114 -10.6335 -6.25156 43.2352 -10.6335 
9.36471 38.6019 -10.6335 1.77194 40.8631 -10.6335 9.79543 38.6019 -10.4503 
17.8189 38.6019 -6.39897 -38.3455 -42.0864 -2.61004 -30.322 -45.6375 -2.61004 
-22.2985 -48.3692 -2.61004 -14.2751 -49.5967 -2.61004 -6.25156 -49.299 -2.61004 
1.77194 -47.9902 -2.61004 9.79543 -45.4034 -2.61004 17.8189 -42.2344 -2.61004 
-39.0725 -41.633 -2.61004 -46.369 -36.7137 -2.61004 -38.3455 -41.633 -0.440723 
19.6461 -41.633 -2.61004 17.8189 -41.633 0.719253 25.8424 -39.6099 -2.61004 
33.8659 -37.1928 -2.61004 41.8894 -34.2415 -2.61004 -50.3056 -33.6095 -2.61004 
-54.3925 -29.9105 -2.61004 43.1426 -33.6095 -2.61004 41.8894 -33.6095 4.76361 
49.9129 -29.7815 -2.61004 -58.5892 -25.586 -2.61004 -62.416 -20.5119 -2.61004 
55.6077 -25.586 -2.61004 57.9364 -23.6594 -2.61004 -64.5053 -17.5625 -2.61004 
64.0836 -17.5625 -2.61004 65.9599 -15.1332 -2.61004 65.9599 -17.5625 5.0434 
-68.098 -9.53903 -2.61004 70.1916 -9.53903 -2.61004 -70.329 -1.51554 -2.61004 
-70.4395 2.04973 -2.61004 73.1904 -1.51554 -2.61004 73.9834 0.975189 -2.61004 
73.9834 -1.51554 -0.376383 -70.5736 6.50796 -2.61004 -70.4395 8.15126 -2.61004 
-70.4395 6.50796 0.624739 76.5473 6.50796 -2.61004 73.9834 11.1124 -2.61004 
-69.8656 14.5315 -2.61004 72.6603 14.5315 -2.61004 73.9834 14.5315 0.970967 
-65.9297 22.5549 -2.61004 -62.416 27.2435 -2.61004 57.9364 29.5356 -2.61004 
67.3925 22.5549 -2.61004 65.9599 23.8184 -2.61004 -59.1392 30.5784 -2.61004 
-54.3925 34.8597 -2.61004 25.8424 37.519 -2.61004 33.8659 34.9751 -2.61004 
41.8894 33.6047 -2.61004 54.1498 30.5784 -2.61004 49.9129 31.4992 -2.61004 
-47.3712 38.6019 -2.61004 -46.369 39.0529 -2.61004 -46.369 38.6019 -1.71381 
-38.3455 42.8935 -2.61004 -38.3455 38.6019 5.21702 -30.322 44.6365 -2.61004 
-30.322 38.6019 4.25533 -22.2985 46.4366 -2.61004 -14.2751 46.4692 -2.61004 
-6.25156 45.3834 -2.61004 1.77194 43.8082 -2.61004 9.79543 42.3398 -2.61004 
9.79543 38.6019 4.76206 22.779 38.6019 -2.61004 17.8189 40.3616 -2.61004 
17.8189 38.6019 1.98258 -30.322 -41.9546 5.41346 -22.2985 -45.0973 5.41346 
-14.2751 -46.9581 5.41346 -6.25156 -47.1108 5.41346 1.77194 -45.6593 5.41346 
9.79543 -43.1024 5.41346 -46.369 -35.134 5.41346 -31.5775 -41.633 5.41346 
-38.3455 -39.4983 5.41346 -30.322 -41.633 5.75362 -22.2985 -41.633 9.0764 
-14.2751 -41.633 9.10427 -6.25156 -41.633 9.50473 1.77194 -41.633 9.02395 
14.5423 -41.633 5.41346 9.79543 -41.633 7.00541 17.8189 -40.5831 5.41346 
25.8424 -38.6988 5.41346 33.8659 -36.4946 5.41346 -48.3857 -33.6095 5.41346 
-54.3925 -28.439 5.41346 -46.369 -33.6095 6.98309 -38.3455 -33.6095 8.81953 
-30.322 -33.6095 11.2523 -22.2985 -33.6095 12.6873 -14.2751 -33.6095 12.0496 
-6.25156 -33.6095 12.5134 1.77194 -33.6095 13.1343 9.79543 -33.6095 12.5553 
17.8189 -33.6095 11.738 25.8424 -33.6095 10.9912 41.7154 -33.6095 5.41346 
33.8659 -33.6095 8.79013 41.8894 -33.5446 5.41346 49.9129 -29.5365 5.41346 
-57.1996 -25.586 5.41346 -62.416 -18.8183 5.41346 -54.3925 -25.586 7.9399 
-46.369 -25.586 10.3155 -38.3455 -25.586 13.2654 -30.322 -25.586 13.3071 
-14.2751 -25.586 13.3401 41.8894 -25.586 13.0665 56.2003 -25.586 5.41346 
49.9129 -25.586 9.29049 57.9364 -24.625 5.41346 65.9599 -17.6587 5.41346 
-63.3002 -17.5625 5.41346 -62.416 -17.5625 6.32697 -54.3925 -17.5625 13.0486 
57.9364 -17.5625 11.1264 66.0437 -17.5625 5.41346 65.9599 -17.5625 5.52477 
-66.2536 -9.53903 5.41346 -62.416 -9.53903 9.84201 72.0978 -9.53903 5.41346 
65.9599 -9.53903 12.7977 73.9834 -5.94217 5.41346 -69.8198 -1.51554 5.41346 
65.9599 -1.51554 12.914 75.8793 -1.51554 5.41346 73.9834 -1.51554 8.25677 
-70.1419 6.50796 5.41346 77.5627 6.50796 5.41346 73.9834 6.50796 10.6696 
-68.5896 14.5315 5.41346 -62.416 14.5315 10.6528 75.5742 14.5315 5.41346 
73.9834 18.2792 5.41346 73.9834 14.5315 7.80467 -64.2253 22.5549 5.41346 
-62.416 24.6373 5.41346 -62.416 22.5549 7.29894 -54.3925 22.5549 10.5204 
-46.369 22.5549 12.7709 -30.322 22.5549 13.1548 -22.2985 22.5549 12.9153 
-14.2751 22.5549 13.0069 57.9364 30.2597 5.41346 70.7875 22.5549 5.41346 
65.9599 25.5212 5.41346 65.9599 22.5549 9.75992 -55.2221 30.5784 5.41346 
-54.3925 31.2446 5.41346 -54.3925 30.5784 5.99585 -46.369 34.1764 5.41346 
-46.369 30.5784 9.45709 -38.3455 38.3699 5.41346 -38.3455 30.5784 10.7103 
-30.322 37.4194 5.41346 -30.322 30.5784 10.2492 -22.2985 30.5784 10.0793 
-14.2751 30.5784 10.2167 -6.25156 30.5784 10.4961 1.77194 30.5784 11.3022 
9.79543 38.1554 5.41346 9.79543 30.5784 12.1029 17.8189 36.7178 5.41346 
[...]
POINT_DATA 550
SCALARS ImageScalars float
LOOKUP_TABLE default
0 0 0 0 0 0 0 0 0 
0 0 0 0 0 0 0 0 0 
0 0 0 0 0 0 0 0 0 
0 0 0 0 0 0 0 0 0 
0 0 0 0 0 0 0 0 0 
0 0 0 0 0 0 0 0 0 
0 0 0 0 0 0 0 0 0 
0 0 0 0 0 0 0 0 0 
0 0 0 0 0 0 0 0 0 
0 0 0 0 0 0 0 0 0 
0 0 0 0 0 0 0 0 0 
0 0 0 0 0 0 0 0 0 
0 0 0 0 0 0 0 0 0 
0 0 0 0 0 0 0 0 0 
0 0 0 0 0 0 0 0 0 
0 0 0 0 0 0 0 0 0 
0 0 0 0 0 0 0 0 0 
0 0 0 0 0 0 0 0 0 
0 0 0 0 0 0 0 0 0 
0 0 0 0 0 0 0 0 0 
0 0 0 0 0 0 0 0 0 
0 0 0 0 0 0 0 0 0 
0 0 0 0 0 0 0 0 0 
0 0 0 0 0 0 0 0 0 
0 0 0 0 0 0 0 0 0 
0 0 0 0 0 0 0 0 0 
0 0 0 0 0 0 0 0 0 
0 0 0 0 0 0 0 0 0 
0 0 0 0 0 0 0 0 0 
0 0 0 0 0 0 0 0 0 
0 0 0 0 0 0 0 0 0 
0 0 0 0 0 0 0 0 0 
0 0 0 0 0 0 0 0 0 
0 0 0 0 0 0 0 0 0 
0 0 0 0 0 0 0 0 0 
0 0 0 0 0 0 0 0 0 
0 0 0 0 0 0 0 0 0 
0 0 0 0 0 0 0 0 0 
0 0 0 0 0 0 0 0 0 
0 0 0 0 0 0 0 0 0 
0 0 0 0 0 0 0 0 0 
0 0 0 0 0 0 0 0 0 
0 0 0 0 0 0 0 0 0 
0 0 0 0 0 0 0 0 0 
0 0 0 0 0 0 0 0 0 
0 0 0 0 0 0 0 0 0 
0 0 0 0 0 0 0 0 0 
0 0 0 0 0 0 0 0 0 
0 0 0 0 0 0 0 0 0 
0 0 0 0 0 0 0 0 0 
0 0 0 0 0 0 0 0 0 
0 0 0 0 0 0 0 0 0 
0 0 0 0 0 0 0 0 0 
0 0 0 0 0 0 0 0 0 
0 0 0 0 0 0 0 0 0 
0 0 0 0 0 0 0 0 0 
0 0 0 0 0 0 0 0 0 
0 0 0 0 0 0 0 0 0 
0 0 0 0 0 0 0 0 0 
0 0 0 0 0 0 0 0 0 
0 0 0 0 0 0 0 0 0 
0 
NORMALS Normals float
0.072115 0.469895 0.879772 -0.0560724 0.462377 0.884909 -0.154234 0.543407 0.825179 
0.161236 0.313037 0.935955 0.0328886 0.242816 0.969515 0.050088 0.162121 0.985499 
0.000241086 0.191979 0.981399 -0.0362731 0.274078 0.961023 -0.120268 0.360627 0.924924 
-0.17465 0.460536 0.87029 -0.156959 0.584082 0.796374 0.309576 0.391715 0.866442 
0.17121 0.269977 0.947523 0.0452806 0.122184 0.991474 0.00481832 0.125345 0.992102 
-0.00218442 0.0416172 0.999131 0.0379798 0.0389248 0.99852 0.0445543 0.125272 0.991122 
-0.0258304 0.122328 0.992154 -0.0621857 0.223121 0.972805 -0.118142 0.287086 0.950591 
-0.219974 0.300088 0.928202 0.418814 0.188562 0.888279 0.203375 0.195245 0.959436 
0.0276349 0.164281 0.986026 0.0011719 0.0873121 0.99618 -0.0591161 0.0510591 0.996944 
-0.0435227 -0.0169473 0.998909 0.0824149 0.0376465 0.995887 0.0564211 0.103963 0.99298 
-0.0087313 -0.0395848 0.999178 -0.00266486 0.0606842 0.998153 -0.0876516 0.0561742 0.994566 
-0.120688 0.094802 0.988153 -0.170474 0.17156 0.970312 -0.334519 0.250001 0.908623 
0.264887 0.128011 0.955745 0.190251 0.0323373 0.981203 0.0620958 0.0505201 0.996791 
-0.065356 0.0449962 0.996847 -0.101102 -0.00250354 0.994873 -0.017626 0.0316698 0.999343 
0.167614 -0.00289852 0.985848 -0.0608178 -0.0295539 0.997711 -0.0524829 0.064187 0.996557 
0.0389913 0.0439936 0.998271 -0.0893759 -0.107516 0.990178 -0.114744 -0.0502992 0.992121 
-0.137107 0.00800907 0.990524 -0.117404 0.0651518 0.990945 -0.35855 0.371454 0.856425 
0.470002 0.0807503 0.878964 0.29252 0.0947013 0.951558 0.0981171 0.0508371 0.993876 
0.0411457 0.00122657 0.999152 -0.0534025 0.0265572 0.99822 -0.0722282 0.00898625 0.997348 
-0.0445481 0.0390959 0.998242 0.00372256 0.110771 0.993839 0.141861 -0.0867855 0.986075 
0.0815839 0.121527 0.98923 -0.204896 0.0109116 0.978723 -0.163619 -0.0868539 0.982693 
-0.00926171 -0.0174752 0.999804 -0.0392748 0.00702979 0.999204 -0.0699354 0.0825202 0.994133 
-0.253192 0.11128 0.960995 0.506407 -0.00813036 0.862256 0.289865 -0.000218135 0.957067 
0.106159 0.00338741 0.994343 0.0371454 0.0763965 0.996385 -0.0591814 0.0330929 0.997699 
-0.0888937 0.0409827 0.995198 0.0865996 -0.0216724 0.996007 0.0518396 0.0979414 0.993841 
-0.04894 0.0685658 0.996445 0.0190923 -0.126164 0.991826 -0.168776 -0.114271 0.979008 
-0.096875 0.0290364 0.994873 -0.0198987 0.0151244 0.999688 -0.041632 0.073424 0.996431 
-0.0086427 -0.0554775 0.998423 -0.23382 0.0135673 0.972185 0.500606 -0.165793 0.84965 
0.293719 -0.144352 0.944929 0.168792 0.0520461 0.984277 0.0693624 -0.00333041 0.997586 
-0.0894042 -0.00834047 0.995961 -0.124638 0.0441789 0.991218 -0.00334 0.0206854 0.99978 
0.104406 -0.0942373 0.99006 -0.0752479 -0.0177579 0.997007 -0.0896201 -0.0827427 0.992533 
-0.0387314 -0.0792937 0.996099 -0.066667 -0.0128647 0.997692 0.0368682 -0.0702718 0.996846 
-0.103117 -0.0864622 0.990904 -0.150695 -0.143231 0.978149 -0.291836 -0.326031 0.899186 
0.421455 -0.252964 0.870853 0.213786 -0.124501 0.968914 -0.0315478 -0.163441 0.986049 
-0.00716987 -0.0732848 0.997285 -0.0617124 -0.0158169 0.997969 -0.0395945 0.0372234 0.998522 
0.00585602 -0.0422459 0.99909 -0.0477618 -0.110125 0.99277 -0.0571727 -0.0597043 0.996578 
-0.0763768 -0.1134 0.990609 -0.0918573 -0.179893 0.979388 -0.106321 -0.26064 0.959564 
-0.128529 -0.390353 0.911649 -0.188575 -0.33807 0.922035 0.334706 -0.477324 0.812486 
0.142064 -0.291042 0.946104 0.0597247 -0.146046 0.987473 -0.0123353 -0.14495 0.989362 
-0.0334 -0.0724693 0.996811 -0.0562117 -0.135725 0.989151 -0.0834522 -0.213202 0.973437 
-0.0918442 -0.265 0.959864 -0.175545 -0.340231 0.923811 -0.231437 -0.441787 0.866754 
0.289888 -0.666682 0.686658 0.199701 -0.518474 0.831447 0.0377951 -0.41156 0.910599 
-0.0336141 -0.359168 0.932667 -0.161781 -0.438757 0.883922 -0.219037 -0.534141 0.816527 
0.0899184 0.567574 0.818397 -0.0562479 0.558462 0.827621 -0.166054 0.569721 0.804888 
0.511644 0.831783 0.215306 0.211099 0.571685 0.792852 0.237232 0.653826 0.718493 
0.098587 0.506676 0.856481 0.0972534 0.49644 0.862606 0.103579 0.521822 0.846743 
-0.173572 0.575316 0.799302 -0.195079 0.588493 0.784615 -0.262949 0.760897 0.593206 
-0.209927 0.57652 0.789655 -0.345556 0.913428 0.215036 -0.158971 0.588253 0.792898 
0.36834 0.440998 0.818442 0.495733 0.664211 0.559528 0.277159 0.490214 0.826362 
0.277795 0.49146 0.825407 0.282807 0.499328 0.818958 -0.163977 0.590587 0.790138 
-0.252183 0.576474 0.777226 -0.276716 0.720693 0.635634 -0.429114 0.846275 0.31572 
0.421545 0.485531 0.765871 0.503579 0.490364 0.711302 0.579268 0.647474 0.495203 
-0.33068 0.441517 0.834094 -0.328256 0.439815 0.835949 -0.33492 0.449359 0.828194 
-0.36353 0.397739 0.842407 -0.438389 0.633223 0.637843 0.515356 0.321815 0.794257 
0.747856 0.525102 0.406176 -0.36988 0.336644 0.865944 -0.387375 0.435376 0.812643 
-0.470369 0.488791 0.734736 0.58314 0.282912 0.761517 0.591868 0.27108 0.759083 
0.637405 0.318565 0.701592 -0.407777 0.372813 0.833504 -0.57365 0.362036 0.734749 
0.540754 0.123295 0.832095 -0.352014 0.152734 0.923449 -0.471892 0.180472 0.862988 
0.586122 -0.013805 0.810105 0.953264 -0.0270667 0.300925 -0.30655 -0.0558254 0.950216 
-0.359968 -0.0456236 0.931848 -0.6549 0.00224363 0.755712 0.563085 -0.175964 0.807448 
0.523256 -0.319851 0.789872 -0.330625 -0.288253 0.898664 -0.278407 -0.478763 0.832632 
-0.410852 -0.197872 0.88997 0.482198 -0.354198 0.801267 0.664074 -0.537863 0.519335 
0.496872 -0.416311 0.761448 -0.167207 -0.534308 0.828587 -0.150623 -0.483719 0.862165 
-0.208002 -0.427793 0.879618 -0.229367 -0.427829 0.874273 -0.278781 -0.560037 0.780153 
-0.567999 -0.650179 0.504623 0.488727 -0.462449 0.739789 0.535311 -0.506733 0.67577 
0.375327 -0.624502 0.684928 -0.227177 -0.648314 0.726691 -0.227999 -0.593183 0.772108 
-0.214493 -0.52968 0.820629 -0.254591 -0.530949 0.808255 -0.205624 -0.716294 0.666814 
-0.211451 -0.763819 0.609811 -0.257308 -0.873094 0.414126 0.296004 -0.685527 0.665158 
0.444049 -0.89548 0.0305888 0.294556 -0.690415 0.66073 0.317055 -0.713494 0.624822 
0.136592 -0.755983 0.640181 -0.116102 -0.777085 0.618595 -0.232359 -0.725991 0.647261 
-0.229588 -0.651305 0.72325 -0.246143 -0.653873 0.715447 -0.231104 -0.667523 0.707817 
-0.29145 -0.904096 0.312519 0.507507 0.848382 0.150613 0.387626 0.917781 0.0861677 
0.231443 0.965336 0.120666 0.0596732 0.993168 0.100282 -0.0942136 0.988147 0.1212 
-0.243308 0.961719 0.126084 -0.340743 0.929674 0.140001 -0.352679 0.926946 0.128019 
0.514347 0.844019 0.151915 0.569214 0.803373 0.174893 0.499516 0.865964 -0.0243004 
-0.339538 0.930193 0.13948 -0.321775 0.940912 -0.105573 -0.291601 0.934984 0.201926 
-0.33259 0.91803 0.215883 -0.421501 0.87328 0.244375 0.632015 0.753095 0.182772 
0.68494 0.702709 0.192502 -0.437398 0.862681 0.253897 -0.360183 0.906437 -0.220545 
-0.516462 0.797208 0.312611 0.743996 0.640743 0.189521 0.79025 0.574546 0.213077 
-0.58664 0.733195 0.343916 -0.60618 0.690304 0.395001 0.826533 0.531282 0.185965 
-0.728624 0.594864 0.339477 -0.725776 0.588125 0.356874 -0.743355 0.642224 -0.187004 
0.922881 0.317157 0.218406 -0.710748 0.537115 0.454252 0.953901 0.147031 0.261638 
0.958792 0.0729594 0.27458 -0.840855 0.337149 0.423431 -0.894255 0.222265 0.388468 
-0.908406 0.34707 0.233112 0.958041 -0.0272929 0.285327 0.95643 -0.075901 0.281921 
0.999407 -0.0338427 0.0063613 -0.931959 -0.0242567 0.361751 -0.890989 -0.282498 0.355434 
0.936619 -0.253314 0.242028 -0.787525 -0.46885 0.399981 -0.894793 -0.431507 0.114662 
0.851646 -0.510301 0.119552 0.747042 -0.653685 0.120933 -0.412122 -0.79884 0.438189 
-0.652286 -0.690135 0.313427 -0.602061 -0.741754 0.295506 0.665978 -0.743557 0.0599678 
0.575576 -0.817594 0.0159115 -0.324687 -0.94441 0.0516567 -0.24727 -0.957506 0.14846 
-0.219153 -0.952039 0.213527 -0.326217 -0.861311 0.389519 -0.229 -0.918152 0.323352 
0.451145 -0.888205 -0.0869454 0.439188 -0.893115 -0.097259 0.432988 -0.890822 -0.137684 
0.307721 -0.946032 -0.101638 0.150301 -0.6853 -0.712582 0.236419 -0.940906 -0.24249 
0.053071 -0.716446 -0.695621 0.107322 -0.961246 -0.253947 -0.0732633 -0.966453 -0.246171 
-0.159989 -0.97646 -0.14467 -0.187441 -0.97575 -0.113037 -0.21472 -0.976143 -0.0322488 
-0.0990853 -0.813138 -0.573575 -0.312018 -0.94928 0.0388947 -0.295677 -0.954878 0.0279955 
-0.239549 -0.920885 -0.307552 0.240022 0.77754 -0.581224 0.232611 0.757821 -0.60959 
0.0889608 0.789867 -0.606791 -0.0690487 0.811861 -0.579754 -0.203096 0.810194 -0.549853 
-0.266711 0.809407 -0.523189 0.48202 0.714014 -0.507781 0.258112 0.775192 -0.576589 
0.374257 0.721308 -0.582792 0.237918 0.764341 -0.599315 0.142156 0.598143 -0.788681 
0.0258485 0.517549 -0.855263 -0.00167653 0.522367 -0.852719 -0.130282 0.626836 -0.768182 
-0.248421 0.83495 -0.491066 -0.239994 0.75402 -0.611438 -0.231928 0.852393 -0.468652 
-0.220098 0.894189 -0.389851 -0.297122 0.876138 -0.379607 0.515933 0.695709 -0.499803 
0.60665 0.631353 -0.483083 0.442312 0.649269 -0.618716 0.276108 0.507154 -0.816431 
0.21909 0.343658 -0.913181 0.0525947 0.208478 -0.976612 -0.00588384 0.252852 -0.967487 
0.0680149 0.284886 -0.956145 0.00391779 0.350052 -0.936722 -0.0777542 0.427301 -0.90076 
-0.0860711 0.530691 -0.843184 -0.144905 0.618439 -0.772358 -0.34909 0.898987 -0.264495 
-0.218456 0.765305 -0.605463 -0.350679 0.899044 -0.26219 -0.47724 0.809726 -0.341446 
0.651985 0.588142 -0.478544 0.732262 0.475768 -0.487275 0.514201 0.565795 -0.644573 
0.294397 0.400165 -0.86787 0.195525 0.366324 -0.909712 0.0308441 0.236325 -0.971184 
0.0288397 0.12327 -0.991954 -0.261815 0.374941 -0.88931 -0.51881 0.809973 -0.273459 
-0.408311 0.65675 -0.634004 -0.535281 0.804428 -0.257625 -0.738022 0.642145 -0.207301 
0.752249 0.457746 -0.473908 0.705764 0.456888 -0.541434 0.385185 0.295598 -0.874216 
-0.408644 0.4532 -0.792225 -0.739618 0.640381 -0.207069 -0.737307 0.641199 -0.2127 
0.807415 0.330711 -0.488582 0.613847 0.32828 -0.71793 -0.817205 0.539278 -0.203362 
-0.566729 0.368629 -0.736839 -0.870075 0.456624 -0.185647 0.87905 0.183596 -0.439959 
-0.448321 0.0450141 -0.892738 -0.927664 0.307399 -0.212001 -0.867136 0.334208 -0.369297 
0.900129 -0.0414441 -0.433648 -0.961289 -0.0121586 -0.275272 -0.802466 -0.0141593 -0.59653 
0.814232 -0.326328 -0.480141 0.612423 -0.340264 -0.713553 -0.913145 -0.356448 -0.197765 
-0.844629 -0.51285 -0.153584 -0.890964 -0.351618 -0.287311 0.676659 -0.52135 -0.51993 
0.633132 -0.595122 -0.494947 0.617741 -0.489779 -0.615234 0.322162 -0.47541 -0.818656 
0.152948 -0.299821 -0.941655 -0.0394284 -0.344787 -0.937853 -0.00944268 -0.301676 -0.953364 
0.0817418 -0.304401 -0.94903 -0.3925 -0.881044 -0.264015 -0.678941 -0.71324 -0.174151 
-0.518652 -0.827963 -0.213255 -0.479501 -0.699701 -0.529621 0.47865 -0.637648 -0.603572 
0.458355 -0.62876 -0.62815 0.446491 -0.618594 -0.646519 0.271883 -0.766335 -0.582074 
0.249445 -0.553821 -0.794392 0.145886 -0.67203 -0.726012 0.0232847 -0.517959 -0.855089 
0.0351921 -0.650117 -0.759019 -0.0284032 -0.448459 -0.893352 -0.00216016 -0.358413 -0.933561 
0.0234888 -0.390625 -0.92025 0.0565361 -0.443896 -0.894293 0.0885603 -0.497862 -0.862723 
-0.0836446 -0.778875 -0.621577 -0.0257733 -0.545385 -0.837789 -0.170132 -0.78072 -0.601275 
-0.141277 -0.565994 -0.812214 -0.198787 -0.805346 -0.558481 -0.103876 -0.636596 -0.76417 
-0.107293 -0.889038 -0.445084 -0.0893643 -0.817732 -0.568619 -0.0581241 -0.892567 -0.447154 
-0.0373664 -0.812852 -0.581271 -0.347841 -0.898534 -0.267662 -0.119869 -0.952715 -0.279224 
-0.0942474 -0.909185 -0.405585 0.077758 -0.606674 -0.791139 0.100605 -0.578009 -0.809805 
0.0938825 -0.564108 -0.820347 0.00839544 -0.569748 -0.821777 0.00654512 -0.546055 -0.837723 
-0.0471261 -0.596247 -0.801417 -0.0329168 -0.572145 -0.819492 -0.065014 -0.703327 -0.707888 
-0.0615757 -0.686952 -0.724089 -0.0596841 -0.68465 -0.726424 0.0191084 0.142697 -0.989582 
0.099711 0.204598 -0.973754 0.0121596 0.329692 -0.94401 -0.0574026 0.347516 -0.935915 
-0.0362335 0.376022 -0.925902 -0.084897 0.414757 -0.905963 -0.121315 0.411631 -0.90324 
0.12151 0.344482 -0.930896 0.178822 0.345396 -0.921262 0.0220915 0.204153 -0.97869 
0.0277213 0.230301 -0.972724 0.0228 0.122185 -0.992245 0.00134483 0.120744 -0.992683 
0.0387869 0.125257 -0.991366 0.0259535 0.115581 -0.992959 0.121805 0.144376 -0.981998 
0.0620697 0.22196 -0.973078 -0.0227159 0.200993 -0.979329 -0.00711866 0.264235 -0.964432 
-0.0508522 0.294384 -0.954333 -0.203259 0.365076 -0.908518 -0.113878 0.370232 -0.921933 
-0.23194 0.330033 -0.915031 -0.253864 0.444524 -0.859041 0.300486 0.30649 -0.903201 
0.33141 0.203389 -0.921304 0.100641 0.335021 -0.93682 0.0492739 0.189167 -0.980708 
0.00193563 0.168054 -0.985776 -0.0608338 0.0948492 -0.993631 0.0153431 0.0740631 -0.997136 
0.187258 0.152939 -0.970332 0.0498653 0.0503273 -0.997487 -0.0197413 0.0855869 -0.996135 
0.031181 0.0967413 -0.994821 -0.0126718 0.0734494 -0.997218 -0.080648 0.130339 -0.988184 
-0.109737 0.195171 -0.974611 -0.263083 0.411786 -0.872479 -0.237217 0.416142 -0.877812 
-0.288681 0.357044 -0.88836 0.309241 0.142082 -0.94031 0.477008 0.139086 -0.867824 
0.28623 0.124492 -0.950039 0.156512 0.133052 -0.978673 0.0356539 0.152273 -0.987695 
-0.0690835 0.121106 -0.990233 -0.0998293 0.0857438 -0.991303 0.0707384 0.0845193 -0.993908 
0.113635 0.191885 -0.974817 -0.00537342 -0.0713917 -0.997434 0.0272546 0.143894 -0.989218 
-0.0242916 -0.0505948 -0.998424 -0.00958605 -0.0596715 -0.998172 0.0344976 0.0376148 -0.998697 
0.0291552 0.173739 -0.98436 -0.107226 0.138969 -0.984475 -0.437563 0.354307 -0.826441 
-0.23328 0.363998 -0.901713 0.477664 0.130309 -0.868825 0.472737 0.129528 -0.871632 
0.225631 0.115774 -0.967309 0.111462 0.0803804 -0.990513 0.02573 0.0569314 -0.998046 
-0.0678505 0.0769536 -0.994723 -0.0979824 0.0541716 -0.993713 0.114463 0.0783252 -0.990335 
0.0502463 0.0359905 -0.998088 0.0221954 -0.115817 -0.993023 -0.000519493 0.0819919 -0.996633 
-0.184011 -0.0427812 -0.981993 0.086413 -0.0228104 -0.995998 0.148065 0.0485009 -0.987788 
0.027192 0.117751 -0.992671 -0.0230476 0.0740076 -0.996991 -0.416749 0.0587868 -0.907119 
-0.25355 0.291529 -0.922347 -0.436241 0.207326 -0.875619 0.494816 -0.109817 -0.862031 
0.49517 -0.114514 -0.861216 0.493307 -0.108985 -0.863001 0.246086 -0.084931 -0.96552 
0.106356 -0.0570306 -0.992691 0.0347402 -0.0181067 -0.999232 -0.077966 -0.0639872 -0.9949 
-0.0946468 -0.0461675 -0.99444 0.0770496 0.0127813 -0.996945 -0.0793053 -0.0604044 -0.995019 
0.0195549 0.024085 -0.999519 0.0944554 -0.0477725 -0.994382 -0.127442 0.0728592 -0.989166 
0.0782909 0.0487563 -0.995738 0.174972 -0.0247626 -0.984262 0.049436 -0.032491 -0.998249 
0.0438361 -0.0322446 -0.998518 -0.161845 -0.0697557 -0.984348 -0.440658 0.218664 -0.870636 
-0.436079 0.221271 -0.872281 0.264125 -0.264208 -0.927595 0.231626 -0.267772 -0.935226 
0.220197 -0.24872 -0.943214 0.151568 -0.270024 -0.950849 0.167034 -0.229904 -0.958772 
0.0220919 -0.236379 -0.97141 -0.0442125 -0.333894 -0.941573 -0.0924186 -0.234725 -0.967659 
-0.0145425 -0.279492 -0.960038 -0.0256068 -0.201807 -0.979091 0.0901769 -0.280123 -0.955719 
0.124286 -0.17366 -0.976932 0.0206777 -0.175732 -0.984221 0.0313107 0.0474922 -0.998381 
0.0499986 -0.113669 -0.99226 -0.082291 -0.0691626 -0.994206 -0.0158106 -0.107547 -0.994074 
0.0599138 -0.175869 -0.982589 0.020496 -0.242002 -0.970059 -0.0519142 -0.178177 -0.982628 
-0.0922554 -0.327204 -0.94044 -0.615077 -0.220847 -0.756906 -0.42317 -0.443469 -0.790102 
-0.290899 -0.176934 -0.940251 0.0435218 -0.307867 -0.950433 0.00502041 -0.322659 -0.946502 
0.0208198 -0.324718 -0.945582 0.024925 -0.312892 -0.949462 0.0980112 -0.336712 -0.936493 
0.117098 -0.413649 -0.902875 0.12647 -0.401395 -0.907131 0.1076 -0.374502 -0.920961 
0.103146 -0.257317 -0.960806 -0.0230447 -0.467509 -0.883688 -0.015443 -0.310494 -0.95045 
-0.122978 -0.390695 -0.912269 -0.118934 -0.315069 -0.941587 -0.0408233 -0.405203 -0.913315 
-0.0393592 -0.370212 -0.928113 0.0211687 -0.416721 -0.908788 0.0397632 -0.350484 -0.935724 
0.0101551 -0.546251 -0.83756 0.0328492 -0.485159 -0.873809 0.0083648 -0.526236 -0.850298 
0.00185442 -0.441641 -0.89719 -0.315524 -0.533368 -0.784833 -0.23871 -0.561209 -0.792504 
-0.216784 -0.415765 -0.883258 
