# vtk DataFile Version 4.2
vtk output
ASCII
DATASET POLYDATA
POINTS 526 float
-31.7843 1.01945 -22.6621 32.7422 1.01945 -22.3928 -31.7843 9.08527 -22.4131 
-23.7185 -39.3096 -15.6627 -15.6527 -39.3096 -15.9493 -7.58687 -39.3096 -15.4144 
0.478953 -39.3096 -14.7383 8.54477 -39.3096 -14.1936 -39.8501 -31.2438 -14.3885 
-31.7843 -31.2438 -17.8354 -23.7185 -31.2438 -18.7092 -15.6527 -31.2438 -19.0626 
-7.58687 -31.2438 -18.0642 0.478953 -31.2438 -17.7713 8.54477 -31.2438 -18.2528 
16.6106 -31.2438 -18.8102 24.6764 -31.2438 -18.5601 32.7422 -31.2438 -16.8366 
-39.8501 -23.178 -18.0242 -31.7843 -23.178 -20.0497 -23.7185 -23.178 -20.0488 
-15.6527 -23.178 -19.218 -7.58687 -23.178 -17.9829 0.478953 -23.178 -17.7677 
8.54477 -23.178 -19.169 16.6106 -23.178 -20.2207 24.6764 -23.178 -20.6844 
32.7422 -23.178 -20.2547 40.808 -23.178 -18.906 -47.916 -15.1122 -15.8999 
-39.8501 -15.1122 -19.9066 -31.7843 -15.1122 -20.8856 -23.7185 -15.1122 -20.4742 
-15.6527 -15.1122 -18.8575 -7.58687 -15.1122 -17.2525 0.478953 -15.1122 -16.9104 
8.54477 -15.1122 -18.9639 16.6106 -15.1122 -20.3665 24.6764 -15.1122 -21.222 
32.7422 -15.1122 -21.4009 40.808 -15.1122 -20.6682 48.8739 -15.1122 -18.3632 
-47.916 -7.04637 -17.2673 -39.8501 -7.04637 -21.1473 -31.7843 -3.32457 -22.2225 
-31.7843 -7.04637 -21.85 -23.7185 -7.04637 -20.9954 -15.6527 -7.04637 -19.0892 
-7.58687 -7.04637 -17.6283 0.478953 -7.04637 -17.6855 8.54477 -7.04637 -19.1452 
16.6106 -7.04637 -20.1041 24.6764 -7.04637 -21.4952 32.7422 -6.8801 -22.2225 
32.7422 -7.04637 -22.2189 40.808 -7.04637 -21.984 48.8739 -7.04637 -19.9904 
-47.916 1.01945 -17.8782 -35.4204 1.01945 -22.2225 -39.8501 1.01945 -21.6464 
-29.4062 1.01945 -22.2225 -23.7185 1.01945 -21.1904 -15.6527 1.01945 -20.3702 
-7.58687 1.01945 -20.7058 0.478953 1.01945 -16.4886 8.54477 1.01945 -19.4941 
16.6106 1.01945 -20.3279 31.5104 1.01945 -22.2225 24.6764 1.01945 -21.2736 
40.2315 1.01945 -22.2225 32.7422 5.33261 -22.2225 40.808 1.01945 -22.2089 
48.8739 1.01945 -20.1891 -47.916 9.08527 -17.2519 -33.5295 9.08527 -22.2225 
-39.8501 9.08527 -21.4686 -29.111 9.08527 -22.2225 -31.7843 11.3515 -22.2225 
-23.7185 9.08527 -21.8255 -15.6527 9.08527 -20.7506 -7.58687 9.08527 -21.1863 
0.478953 9.08527 -19.7894 8.54477 9.08527 -19.3699 16.6106 9.08527 -20.1644 
24.6764 9.08527 -21.3872 32.7422 9.08527 -22.0741 40.808 9.08527 -21.6421 
48.8739 9.08527 -19.5068 -47.916 17.1511 -15.3194 -39.8501 17.1511 -20.4565 
-31.7843 17.1511 -21.7365 -23.7185 17.1511 -21.7154 -15.6527 17.1511 -21.35 
-7.58687 17.1511 -21.3304 0.478953 17.1511 -20.6697 8.54477 17.1511 -19.3365 
16.6106 17.1511 -20.0948 24.6764 17.1511 -20.9883 32.7422 17.1511 -21.2924 
40.808 17.1511 -20.5675 48.8739 17.1511 -17.7775 -39.8501 25.2169 -18.8136 
-31.7843 25.2169 -21.1946 -23.7185 25.2169 -21.7818 -15.6527 25.2169 -21.9222 
-7.58687 25.2169 -22.1944 0.478953 25.2169 -21.4454 8.54477 25.2169 -19.736 
16.6106 25.2169 -19.8967 24.6764 25.2169 -19.9884 32.7422 25.2169 -20.069 
40.808 25.2169 -18.7134 -31.7843 33.2827 -18.2556 -23.7185 33.2827 -20.4433 
-15.6527 33.2827 -21.1775 -7.58687 33.2827 -21.603 0.478953 33.2827 -20.8606 
8.54477 33.2827 -19.18 16.6106 33.2827 -18.3839 24.6764 33.2827 -17.6835 
32.7422 33.2827 -16.291 -23.7185 41.3485 -16.5455 -15.6527 41.3485 -18.2437 
-7.58687 41.3485 -19.0803 0.478953 41.3485 -18.2051 8.54477 41.3485 -15.8192 
-23.7185 -40.9767 -14.1566 -15.6527 -41.3686 -14.1566 -7.58687 -41.0727 -14.1566 
0.478953 -40.0795 -14.1566 8.54477 -39.3513 -14.1566 -39.8501 -31.5606 -14.1566 
-27.9519 -39.3096 -14.1566 -31.7843 -37.0406 -14.1566 -31.7843 -39.3096 -11.8698 
9.3335 -39.3096 -14.1566 16.6106 -38.8304 -14.1566 16.6106 -39.3096 -13.4984 
24.6764 -37.1581 -14.1566 24.6764 -39.3096 -10.0517 32.7422 -33.9802 -14.1566 
-40.1701 -31.2438 -14.1566 38.2802 -31.2438 -14.1566 40.808 -29.6831 -14.1566 
40.808 -31.2438 -12.2275 -45.9192 -23.178 -14.1566 -47.916 -19.7835 -14.1566 
-47.916 -23.178 -12.1779 48.3395 -23.178 -14.1566 48.8739 -22.6763 -14.1566 
48.8739 -23.178 -13.6271 -49.7833 -15.1122 -14.1566 53.9438 -15.1122 -14.1566 
56.9397 -15.1122 -8.93878 -51.1284 -7.04637 -14.1566 56.603 -7.04637 -14.1566 
56.9397 -7.04637 -13.6728 -51.6368 1.01945 -14.1566 56.8103 1.01945 -14.1566 
56.9397 1.01945 -13.9625 -50.7327 9.08527 -14.1566 55.4814 9.08527 -14.1566 
56.9397 9.08527 -11.6222 -48.9616 17.1511 -14.1566 -47.916 19.7156 -14.1566 
52.9778 17.1511 -14.1566 48.8739 23.3055 -14.1566 -45.0922 25.2169 -14.1566 
-47.916 25.2169 -8.3651 -39.8501 32.5195 -14.1566 47.1016 25.2169 -14.1566 
40.808 31.2766 -14.1566 48.8739 25.2169 -11.3574 -39.1143 33.2827 -14.1566 
-39.8501 33.2827 -13.1311 -31.7843 38.883 -14.1566 16.6106 40.9727 -14.1566 
24.6764 37.9961 -14.1566 37.4719 33.2827 -14.1566 32.7422 35.4925 -14.1566 
40.808 33.2827 -10.369 -27.9871 41.3485 -14.1566 -31.7843 41.3485 -9.51264 
-23.7185 43.5394 -14.1566 -15.6527 46.0024 -14.1566 -7.58687 47.4925 -14.1566 
0.478953 46.2017 -14.1566 15.6697 41.3485 -14.1566 8.54477 43.2373 -14.1566 
16.6106 41.3485 -13.6443 24.6764 41.3485 -7.15531 -7.58687 49.4144 -9.36043 
0.478953 49.4144 -6.81738 -31.7843 -42.918 -6.09081 -23.7185 -45.6226 -6.09081 
-15.6527 -46.6961 -6.09081 -7.58687 -47.0213 -6.09081 -7.58687 -47.3755 0.836208 
0.478953 -45.802 -6.09081 8.54477 -44.3292 -6.09081 16.6106 -42.7216 -6.09081 
24.6764 -40.8696 -6.09081 -38.3057 -39.3096 -6.09081 -39.8501 -38.2505 -6.09081 
29.7451 -39.3096 -6.09081 32.7422 -38.3287 -6.09081 40.808 -34.5361 -6.09081 
-46.8729 -31.2438 -6.09081 -47.916 -29.8023 -6.09081 -47.916 -31.2438 -0.454373 
45.2409 -31.2438 -6.09081 48.8739 -28.1587 -6.09081 -52.0472 -23.178 -6.09081 
53.4193 -23.178 -6.09081 56.9397 -17.5814 -6.09081 -54.7536 -15.1122 -6.09081 
58.2124 -15.1122 -6.09081 -55.5526 -7.04637 -6.09081 60.3316 -7.04637 -6.09081 
-55.5652 1.01945 -6.09081 60.296 1.01945 -6.09081 -54.3524 9.08527 -6.09081 
59.0283 9.08527 -6.09081 56.9397 15.9174 -6.09081 -52.0716 17.1511 -6.09081 
56.4803 17.1511 -6.09081 -48.7605 25.2169 -6.09081 -47.916 26.7829 -6.09081 
-47.916 25.2169 -0.0170754 51.0469 25.2169 -6.09081 48.8739 27.6632 -6.09081 
48.8739 25.2169 -0.345475 -43.4775 33.2827 -6.09081 -39.8501 37.0055 -6.09081 
32.7422 38.942 -6.09081 42.7038 33.2827 -6.09081 40.808 34.6889 -6.09081 
40.808 33.2827 -2.50231 -34.1029 41.3485 -6.09081 -31.7843 42.7837 -6.09081 
-23.7185 46.8099 -6.09081 -15.6527 49.3087 -6.09081 8.54477 47.2074 -6.09081 
16.6106 44.3424 -6.09081 25.7857 41.3485 -6.09081 24.6764 41.7143 -6.09081 
24.6764 41.3485 -4.71746 -14.8622 49.4144 -6.09081 -7.58687 50.375 -6.09081 
1.30223 49.4144 -6.09081 0.478953 49.6565 -6.09081 0.478953 49.4144 -4.13482 
-7.58687 -47.4295 1.97501 -31.7843 -43.3282 1.97501 -23.7185 -45.883 1.97501 
-9.24152 -47.3755 1.97501 -15.6527 -47.1661 1.97501 -7.19079 -47.3755 1.97501 
-7.58687 -47.3755 2.20055 0.478953 -46.3236 1.97501 8.54477 -44.5283 1.97501 
16.6106 -42.3568 1.97501 24.6764 -40.2366 1.97501 -47.916 -31.6646 1.97501 
-39.5886 -39.3096 1.97501 -39.8501 -39.1482 1.97501 27.9255 -39.3096 1.97501 
24.6764 -39.3096 4.6326 32.7422 -37.8685 1.97501 40.808 -34.2412 1.97501 
-48.2697 -31.2438 1.97501 -47.916 -31.2438 3.09832 45.0864 -31.2438 1.97501 
40.808 -31.2438 9.2548 48.8739 -27.9211 1.97501 -52.8883 -23.178 1.97501 
53.0127 -23.178 1.97501 56.9397 -15.7915 1.97501 -55.4528 -15.1122 1.97501 
57.2522 -15.1122 1.97501 56.9397 -15.1122 2.75157 -55.9549 -7.04637 1.97501 
59.5314 -7.04637 1.97501 56.9397 -7.04637 7.94289 -55.4969 1.01945 1.97501 
59.1062 1.01945 1.97501 56.9397 1.01945 6.97978 -53.9318 9.08527 1.97501 
57.4573 9.08527 1.97501 56.9397 10.4073 1.97501 56.9397 9.08527 3.12401 
-51.2967 17.1511 1.97501 -47.916 24.6537 1.97501 53.9805 17.1511 1.97501 
48.8739 24.0229 1.97501 -47.6334 25.2169 1.97501 47.7625 25.2169 1.97501 
40.808 31.1984 1.97501 -41.9053 33.2827 1.97501 -39.8501 35.4306 1.97501 
-39.8501 33.2827 6.52009 24.6764 39.5041 1.97501 37.4484 33.2827 1.97501 
32.7422 35.8698 1.97501 32.7422 33.2827 6.43965 -32.3227 41.3485 1.97501 
-31.7843 41.7004 1.97501 -31.7843 41.3485 2.91678 -23.7185 45.8407 1.97501 
-15.6527 48.5311 1.97501 0.478953 48.6526 1.97501 8.54477 46.2848 1.97501 
20.4297 41.3485 1.97501 16.6106 42.9716 1.97501 16.6106 41.3485 5.69084 
-8.16102 49.4144 1.97501 -6.92735 49.4144 1.97501 -7.58687 49.4838 1.97501 
-7.58687 49.4144 2.16653 -31.7843 -40.4869 10.0408 -23.7185 -43.083 10.0408 
-15.6527 -44.853 10.0408 -7.58687 -45.2674 10.0408 0.478953 -44.299 10.0408 
8.54477 -42.0996 10.0408 16.6106 -39.5201 10.0408 -34.1518 -39.3096 10.0408 
-39.8501 -35.5442 10.0408 -31.7843 -39.3096 11.6186 -23.7185 -39.3096 14.9195 
-15.6527 -39.3096 16.8539 -7.58687 -39.3096 17.6271 0.478953 -39.3096 16.7432 
8.54477 -39.3096 13.9927 17.3726 -39.3096 10.0408 16.6106 -39.3096 10.3361 
24.6764 -37.104 10.0408 32.7422 -34.4579 10.0408 -44.6366 -31.2438 10.0408 
-47.916 -27.3941 10.0408 -39.8501 -31.2438 13.8143 -31.7843 -31.2438 18.0589 
16.6106 -31.2438 17.6028 24.6764 -31.2438 16.23 39.991 -31.2438 10.0408 
32.7422 -31.2438 13.7757 40.808 -30.8018 10.0408 48.8739 -23.3362 10.0408 
-50.4555 -23.178 10.0408 -47.916 -23.178 13.171 40.808 -23.178 16.8366 
49.0057 -23.178 10.0408 48.8739 -23.178 10.1898 -52.7429 -15.1122 10.0408 
-47.916 -15.1122 15.2175 53.6677 -15.1122 10.0408 48.8739 -15.1122 15.2305 
-53.4856 -7.04637 10.0408 -47.916 -7.04637 16.3261 55.8221 -7.04637 10.0408 
48.8739 -7.04637 17.1159 -52.918 1.01945 10.0408 -47.916 1.01945 16.0503 
55.3521 1.01945 10.0408 48.8739 1.01945 17.1957 -51.3469 9.08527 10.0408 
-47.916 9.08527 14.5157 53.3538 9.08527 10.0408 48.8739 9.08527 15.2941 
-48.4198 17.1511 10.0408 -47.916 18.233 10.0408 -47.916 17.1511 10.7854 
40.808 17.1511 17.6872 49.3061 17.1511 10.0408 48.8739 17.7031 10.0408 
48.8739 17.1511 10.5655 -44.2468 25.2169 10.0408 -39.8501 31.2108 10.0408 
-39.8501 25.2169 15.1674 32.7422 30.8486 10.0408 32.7422 25.2169 16.3637 
41.3599 25.2169 10.0408 40.808 25.6678 10.0408 40.808 25.2169 10.5578 
[...]
POINT_DATA 526
SCALARS ImageScalars float
LOOKUP_TABLE default
0 0 0 0 0 0 0 0 0 
0 0 0 0 0 0 0 0 0 
0 0 0 0 0 0 0 0 0 
0 0 0 0 0 0 0 0 0 
0 0 0 0 0 0 0 0 0 
0 0 0 0 0 0 0 0 0 
0 0 0 0 0 0 0 0 0 
0 0 0 0 0 0 0 0 0 
0 0 0 0 0 0 0 0 0 
0 0 0 0 0 0 0 0 0 
0 0 0 0 0 0 0 0 0 
0 0 0 0 0 0 0 0 0 
0 0 0 0 0 0 0 0 0 
0 0 0 0 0 0 0 0 0 
0 0 0 0 0 0 0 0 0 
0 0 0 0 0 0 0 0 0 
0 0 0 0 0 0 0 0 0 
0 0 0 0 0 0 0 0 0 
0 0 0 0 0 0 0 0 0 
0 0 0 0 0 0 0 0 0 
0 0 0 0 0 0 0 0 0 
0 0 0 0 0 0 0 0 0 
0 0 0 0 0 0 0 0 0 
0 0 0 0 0 0 0 0 0 
0 0 0 0 0 0 0 0 0 
0 0 0 0 0 0 0 0 0 
0 0 0 0 0 0 0 0 0 
0 0 0 0 0 0 0 0 0 
0 0 0 0 0 0 0 0 0 
0 0 0 0 0 0 0 0 0 
0 0 0 0 0 0 0 0 0 
0 0 0 0 0 0 0 0 0 
0 0 0 0 0 0 0 0 0 
0 0 0 0 0 0 0 0 0 
0 0 0 0 0 0 0 0 0 
0 0 0 0 0 0 0 0 0 
0 0 0 0 0 0 0 0 0 
0 0 0 0 0 0 0 0 0 
0 0 0 0 0 0 0 0 0 
0 0 0 0 0 0 0 0 0 
0 0 0 0 0 0 0 0 0 
0 0 0 0 0 0 0 0 0 
0 0 0 0 0 0 0 0 0 
0 0 0 0 0 0 0 0 0 
0 0 0 0 0 0 0 0 0 
0 0 0 0 0 0 0 0 0 
0 0 0 0 0 0 0 0 0 
0 0 0 0 0 0 0 0 0 
0 0 0 0 0 0 0 0 0 
0 0 0 0 0 0 0 0 0 
0 0 0 0 0 0 0 0 0 
0 0 0 0 0 0 0 0 0 
0 0 0 0 0 0 0 0 0 
0 0 0 0 0 0 0 0 0 
0 0 0 0 0 0 0 0 0 
0 0 0 0 0 0 0 0 0 
0 0 0 0 0 0 0 0 0 
0 0 0 0 0 0 0 0 0 
0 0 0 0 
NORMALS Normals float
0.0308336 -0.0366114 -0.998854 -0.0575726 0.00895326 -0.998301 -0.017707 0.057396 -0.998194 
-0.170762 -0.578822 -0.797374 0.0162927 -0.552023 -0.833669 0.0663157 -0.501427 -0.862655 
0.0692403 -0.555327 -0.828745 0.05356 -0.657726 -0.75135 -0.48655 -0.498497 -0.717474 
-0.232775 -0.393287 -0.889461 -0.0671667 -0.254513 -0.964734 0.046024 -0.165343 -0.985162 
0.0749971 -0.143528 -0.9868 -0.00975625 -0.169967 -0.985401 -0.0654773 -0.268147 -0.96115 
-0.0198239 -0.317045 -0.948203 0.0963478 -0.43569 -0.894925 0.301144 -0.579565 -0.757242 
-0.374891 -0.31103 -0.873337 -0.106968 -0.17106 -0.979437 0.0511925 -0.10439 -0.993218 
0.13078 0.0133097 -0.991322 0.0894054 0.0502856 -0.994725 -0.0726864 0.0514128 -0.996029 
-0.151208 -0.0433201 -0.987552 -0.092426 -0.0942439 -0.991249 -0.00410477 -0.158207 -0.987397 
0.0950336 -0.233634 -0.967669 0.331311 -0.391605 -0.858416 -0.633355 -0.220224 -0.741865 
-0.264127 -0.165162 -0.950241 -0.036067 -0.108066 -0.993489 0.123498 -0.056521 -0.990734 
0.200534 0.00836029 -0.979651 0.120457 0.024656 -0.992412 -0.106465 0.00540493 -0.994302 
-0.20963 0.00153262 -0.97778 -0.137328 0.00713538 -0.9905 -0.0634506 -0.0485563 -0.996803 
0.0317483 -0.116689 -0.992661 0.182995 -0.167635 -0.968716 0.445133 -0.313482 -0.8388 
-0.5912 -0.104192 -0.799766 -0.243588 -0.112165 -0.963371 0.0211226 -0.076708 -0.99683 
0.0105135 -0.107449 -0.994155 0.169157 -0.0448129 -0.98457 0.193569 -0.0933369 -0.976637 
0.0887707 -0.209855 -0.973694 -0.093129 0.0166393 -0.995515 -0.149857 -0.0315258 -0.988205 
-0.141348 0.00233439 -0.989957 -0.132305 -0.00327764 -0.991204 -0.0294484 -0.0592619 -0.997808 
-0.0288533 -0.0606983 -0.997739 0.121429 -0.0926602 -0.988266 0.404201 -0.107223 -0.908364 
-0.603432 1.28702e-05 -0.797414 -0.0892143 -0.0281404 -0.995615 -0.232269 -0.0179599 -0.972486 
0.0661171 -0.0400962 -0.997006 0.134468 -0.0485231 -0.989729 0.0314125 -0.100051 -0.994486 
0.203976 -0.205373 -0.957192 0.0735237 -0.136965 -0.987844 -0.216953 -0.0140934 -0.97608 
-0.10655 -0.00378799 -0.9943 -0.0684973 0.00892225 -0.997611 -0.129371 0.0061718 -0.991577 
0.109182 0.0200503 -0.993819 -0.0359981 0.0403896 -0.998535 0.122367 0.0209033 -0.992265 
0.401179 0.0240771 -0.915683 -0.656861 0.125049 -0.74357 -0.0698726 0.0619417 -0.995631 
-0.273161 0.0753234 -0.959015 0.0220734 0.0275128 -0.999378 -0.0347001 0.0608998 -0.997541 
0.104276 -0.0330017 -0.994001 0.036268 -0.0604722 -0.997511 0.0560837 -0.0363947 -0.997763 
0.114313 -0.228861 -0.966724 -0.0235231 0.0093093 -0.99968 -0.125546 0.0143018 -0.991985 
-0.116729 0.0175757 -0.993008 -0.0167544 0.0677647 -0.997561 0.136494 0.105475 -0.98501 
0.444467 0.132563 -0.885932 -0.743527 0.2676 -0.612827 -0.324336 0.135864 -0.936134 
-0.0757169 0.0721313 -0.994517 0.0239039 0.00247659 -0.999711 0.0238396 -0.0718312 -0.997132 
0.0405146 -0.0621793 -0.997242 0.124971 -0.0986211 -0.987247 0.0345669 -0.0226606 -0.999145 
-0.103992 0.0165867 -0.99444 -0.0743855 0.0885394 -0.993291 0.0275712 0.118267 -0.992599 
0.189921 0.14885 -0.97045 0.545328 0.335879 -0.767986 -0.463711 0.343417 -0.816723 
-0.153427 0.204055 -0.966862 -0.0424711 0.0718376 -0.996512 -0.0255199 0.0123922 -0.999597 
0.0271971 -0.0182286 -0.999464 0.155176 -0.0117338 -0.987817 0.0899363 0.00840122 -0.995912 
-0.0156915 0.0970787 -0.995153 -0.0101988 0.186918 -0.982323 0.0602991 0.263354 -0.962813 
0.371535 0.428203 -0.823774 -0.339086 0.454299 -0.823792 -0.175694 0.276054 -0.944947 
-0.0649706 0.198882 -0.977867 0.0171664 0.179537 -0.983601 0.147189 0.183874 -0.971867 
0.145606 0.21218 -0.966322 0.0924368 0.334925 -0.9377 0.111741 0.473779 -0.873526 
0.268895 0.626183 -0.73184 -0.311863 0.643844 -0.698718 -0.131573 0.536874 -0.83334 
0.00369145 0.478649 -0.877998 0.18257 0.498578 -0.847401 0.241586 0.592345 -0.768611 
-0.175965 -0.671706 -0.719616 -0.00759085 -0.652314 -0.757911 0.0574584 -0.58365 -0.80997 
0.076932 -0.592199 -0.802111 0.0543877 -0.659519 -0.749717 -0.490254 -0.508034 -0.708203 
-0.286653 -0.63275 -0.719345 -0.35294 -0.588157 -0.727671 -0.399529 -0.708826 -0.581328 
0.0588099 -0.670099 -0.739938 0.0970027 -0.753375 -0.650397 0.112802 -0.794623 -0.596531 
0.213442 -0.741161 -0.636492 0.247573 -0.900839 -0.356647 0.340249 -0.694802 -0.633625 
-0.496728 -0.501992 -0.708001 0.405577 -0.653094 -0.639512 0.428201 -0.627979 -0.649835 
0.465041 -0.707185 -0.532565 -0.575457 -0.389774 -0.718975 -0.64488 -0.321107 -0.693556 
-0.676318 -0.411032 -0.611267 0.546941 -0.540466 -0.639337 0.556128 -0.532228 -0.638323 
0.570186 -0.553585 -0.606985 -0.711437 -0.208698 -0.671045 0.719973 -0.329623 -0.610727 
0.88514 -0.365388 -0.288129 -0.750467 -0.0945139 -0.654115 0.763935 -0.144427 -0.628923 
0.790509 -0.147069 -0.594531 -0.778545 0.0247884 -0.627099 0.787041 0.0481952 -0.615015 
0.798097 0.0492241 -0.600515 -0.793804 0.140492 -0.591724 0.758438 0.183056 -0.62551 
0.875439 0.211462 -0.434614 -0.786489 0.26583 -0.557467 -0.763112 0.317943 -0.562647 
0.74349 0.352264 -0.568448 0.634629 0.513816 -0.57727 -0.687667 0.427518 -0.586807 
-0.868374 0.442039 -0.224784 -0.591256 0.563244 -0.577211 0.59726 0.560167 -0.574015 
0.472643 0.673228 -0.568658 0.69248 0.61555 -0.376258 -0.577454 0.572418 -0.582137 
-0.614908 0.597285 -0.514916 -0.446374 0.661485 -0.60265 0.240119 0.723898 -0.646773 
0.222752 0.709183 -0.66891 0.406537 0.699934 -0.587214 0.312253 0.730954 -0.606798 
0.546385 0.789351 -0.279978 -0.408881 0.708193 -0.575568 -0.501536 0.809547 -0.305114 
-0.333561 0.749193 -0.57223 -0.201316 0.777178 -0.59621 -0.0117453 0.798942 -0.601293 
0.206408 0.752581 -0.625314 0.246329 0.725014 -0.643177 0.267231 0.683772 -0.679002 
0.253316 0.757887 -0.601197 0.309382 0.945188 -0.104411 -0.0186837 0.963328 -0.267675 
0.190139 0.971844 -0.13916 -0.404133 -0.874419 -0.268456 -0.208846 -0.945346 -0.250407 
-0.0802371 -0.961616 -0.262405 0.0510473 -0.960968 -0.271909 0.0522854 -0.99758 0.0458292 
0.158624 -0.945099 -0.285702 0.182197 -0.951529 -0.247784 0.202797 -0.963925 -0.1724 
0.25706 -0.956036 -0.141125 -0.542172 -0.787926 -0.291928 -0.580688 -0.757517 -0.298277 
0.317679 -0.935586 -0.154143 0.35736 -0.918625 -0.168587 0.505902 -0.842508 -0.185052 
-0.741604 -0.590461 -0.3184 -0.76541 -0.557927 -0.320725 -0.78324 -0.620293 -0.0420947 
0.592125 -0.784001 -0.18636 0.672315 -0.717267 -0.183086 -0.861623 -0.41445 -0.292978 
0.788985 -0.589353 -0.173682 0.889039 -0.431957 -0.151733 -0.939253 -0.184064 -0.289698 
0.917515 -0.368581 -0.149377 -0.971353 -0.0440109 -0.23353 0.981596 -0.129688 -0.140179 
-0.980694 0.0703366 -0.182461 0.991059 0.0793067 -0.107292 -0.96687 0.198299 -0.160748 
0.968078 0.237921 -0.0788522 0.918264 0.393793 -0.0414432 -0.944003 0.309594 -0.114056 
0.90477 0.424458 -0.0350245 -0.895363 0.434443 -0.0978974 -0.875667 0.473077 -0.0969822 
-0.870629 0.470372 0.144068 0.770827 0.636681 -0.0215176 0.722155 0.691529 -0.0167151 
0.710205 0.645465 0.28104 -0.749022 0.655245 -0.0980827 -0.668856 0.736591 -0.100322 
0.396969 0.917787 0.00910699 0.600206 0.799663 0.0170845 0.56387 0.825552 0.0226783 
0.549953 0.809041 0.207376 -0.545532 0.83106 -0.108325 -0.50575 0.855646 -0.109938 
-0.360142 0.926347 -0.110356 -0.20629 0.972302 -0.109875 0.314218 0.940221 -0.131345 
0.326339 0.940415 -0.0955061 0.32121 0.946612 -0.027374 0.311905 0.949386 -0.0371718 
0.326707 0.944708 0.0281019 -0.187739 0.976397 -0.106782 -0.0204711 0.996129 -0.085483 
0.199076 0.974595 -0.102634 0.186698 0.977211 -0.101008 0.187739 0.981984 -0.0214752 
0.0521285 -0.993979 0.0963731 -0.388859 -0.912081 0.129987 -0.220391 -0.96647 0.131773 
0.0221849 -0.995064 0.0967198 -0.0925756 -0.990924 0.0974657 0.0582616 -0.993693 0.0958159 
0.0517349 -0.993177 0.104516 0.174178 -0.981245 0.0825813 0.238714 -0.963623 0.120195 
0.253742 -0.951283 0.175142 0.262643 -0.944293 0.198315 -0.773417 -0.629599 0.0737029 
-0.561325 -0.820888 0.105156 -0.568228 -0.816166 0.104838 0.291244 -0.936646 0.194607 
0.261242 -0.920456 0.290712 0.33847 -0.920924 0.193227 0.490288 -0.852268 0.182367 
-0.782756 -0.618065 0.0727192 -0.772007 -0.623141 0.125299 0.587212 -0.79131 0.170326 
0.464698 -0.753475 0.465114 0.689785 -0.701062 0.180856 -0.913703 -0.398214 0.0810717 
0.797906 -0.568442 0.200548 0.904726 -0.35377 0.237314 -0.978694 -0.178331 0.101768 
0.910036 -0.338065 0.239889 0.903781 -0.336099 0.264987 -0.994299 -0.00224416 0.106606 
0.963259 -0.109923 0.245049 0.879426 -0.100711 0.465261 -0.98089 0.127435 0.147022 
0.955724 0.116207 0.270346 0.892984 0.122594 0.433071 -0.955329 0.244535 0.16598 
0.913428 0.27599 0.29913 0.901233 0.301895 0.310867 0.899482 0.280793 0.334795 
-0.918755 0.343791 0.194158 -0.856762 0.466337 0.220202 0.816009 0.459572 0.350603 
0.690223 0.608341 0.391809 -0.850083 0.477158 0.22289 0.662855 0.634646 0.397301 
0.510013 0.751583 0.418342 -0.730145 0.644897 0.225823 -0.688994 0.689188 0.224292 
-0.690631 0.635001 0.346125 0.380798 0.855218 0.351562 0.465788 0.779662 0.418532 
0.414822 0.814955 0.404686 0.41828 0.77017 0.48154 -0.518728 0.828801 0.209785 
-0.509263 0.83494 0.208629 -0.509012 0.82861 0.233051 -0.372689 0.904537 0.207161 
-0.208776 0.954915 0.211069 0.184227 0.954173 0.235826 0.329975 0.913285 0.238802 
0.387126 0.869614 0.30644 0.37959 0.883866 0.273299 0.390181 0.838876 0.379534 
-0.0220375 0.973473 0.22774 0.00836589 0.973296 0.229399 -0.00753346 0.973423 0.22889 
-0.00731154 0.972 0.234868 -0.356136 -0.80149 0.480396 -0.23924 -0.843962 0.480096 
-0.118785 -0.889283 0.441663 0.0323514 -0.907121 0.419625 0.177323 -0.894821 0.409697 
0.273558 -0.853358 0.443785 0.266892 -0.830225 0.489383 -0.40996 -0.774944 0.481036 
-0.531942 -0.676685 0.509053 -0.353888 -0.760316 0.544686 -0.223911 -0.681184 0.697031 
-0.116948 -0.618882 0.776729 0.00274356 -0.630506 0.77618 0.152477 -0.665602 0.730565 
0.275267 -0.720584 0.636386 0.265335 -0.83026 0.490169 0.266813 -0.822748 0.501894 
0.248749 -0.820109 0.515311 0.319106 -0.792884 0.519139 -0.628611 -0.597297 0.498082 
-0.725407 -0.496579 0.476649 -0.489399 -0.54566 0.680253 -0.284178 -0.394963 0.87364 
0.140608 -0.463758 0.874733 0.180393 -0.583917 0.791517 0.443167 -0.743503 0.500806 
0.283799 -0.689025 0.66686 0.460411 -0.732753 0.501094 0.659103 -0.545616 0.517577 
-0.798185 -0.375674 0.470924 -0.693431 -0.35085 0.629332 0.402358 -0.441083 0.802218 
0.661528 -0.542002 0.51828 0.658374 -0.541002 0.523317 -0.84673 -0.161383 0.506955 
-0.635778 -0.144036 0.758314 0.78486 -0.306598 0.538509 0.613235 -0.288038 0.735511 
-0.879177 -0.00762959 0.476434 -0.624964 -0.0427072 0.779485 0.82652 -0.0925382 0.555248 
0.594918 -0.099644 0.797586 -0.866024 0.123947 0.484396 -0.663073 0.083148 0.743922 
0.829827 0.12081 0.544787 0.619563 0.0763643 0.781224 -0.850527 0.243246 0.466299 
-0.719168 0.210426 0.662207 0.781299 0.29095 0.552195 0.66921 0.268159 0.693 
-0.819254 0.356354 0.44926 -0.812023 0.370886 0.450623 -0.806193 0.352704 0.47503 
0.477417 0.445318 0.757473 0.685546 0.488061 0.540206 0.677637 0.497449 0.54162 
0.676326 0.487649 0.55207 -0.745799 0.470625 0.471482 -0.674882 0.577814 0.458982 
-0.600462 0.436976 0.669699 0.407906 0.727827 0.551254 0.369885 0.616044 0.695468 
0.522866 0.646668 0.555367 0.51178 0.654149 0.556929 0.512596 0.647641 0.563743 
-0.638943 0.619393 0.456185 -0.502728 0.736976 0.451808 -0.440497 0.549938 0.709599 
0.376054 0.7648 0.52313 0.300221 0.616409 0.727947 0.375219 0.742633 0.554714 
0.362661 0.751954 0.550493 0.348781 0.720232 0.599681 -0.410099 0.793395 0.449827 
-0.350966 0.817949 0.455831 -0.34196 0.769885 0.538832 -0.172204 0.854628 0.489854 
-0.137488 0.691255 0.709411 0.0118764 0.849864 0.526868 0.0252404 0.646044 0.762883 
0.180989 0.829495 0.528375 0.166119 0.676165 0.717778 0.340366 0.783843 0.519366 
0.311131 0.796362 0.518658 0.299693 0.756393 0.581424 -0.189329 -0.45989 0.867558 
-0.116894 -0.523748 0.843815 -0.000205473 -0.592264 0.805744 0.152754 -0.55694 0.816385 
0.231465 -0.414359 0.880187 -0.340854 -0.276313 0.898593 -0.280957 -0.393051 0.875542 
-0.282587 -0.39109 0.875895 -0.179859 -0.347385 0.920312 -0.110352 -0.319966 0.94098 
-0.00273125 -0.298088 0.954535 0.144061 -0.284413 0.947816 0.165238 -0.420273 0.892226 
0.219759 -0.349479 0.910807 0.126321 -0.425728 0.89599 0.128579 -0.45245 0.882472 
0.192096 -0.458834 0.867509 -0.345551 -0.269943 0.898735 -0.337094 -0.268108 0.902489 
-0.219672 -0.202918 0.954237 -0.126953 -0.141146 0.981815 -0.0978077 -0.13918 0.985425 
0.014253 -0.153899 0.987984 0.146186 -0.133066 0.980267 0.118484 -0.190836 0.974445 
0.0585829 -0.263477 0.962885 0.0683696 -0.330108 0.941464 0.284171 -0.414697 0.86445 
0.173023 -0.399937 0.900063 0.372987 -0.350834 0.858951 -0.414212 -0.125525 0.901483 
-0.318206 -0.131284 0.938887 -0.161474 -0.0805531 0.983584 -0.125551 -0.0324058 0.991558 
-0.121584 -0.0689878 0.990181 0.00994538 -0.0844443 0.996379 0.101821 -0.0677757 0.992491 
0.0632601 -0.244521 0.967578 0.012736 -0.219968 0.975424 0.0296869 -0.201497 0.979039 
0.147436 -0.213295 0.965799 0.440726 -0.255349 0.860557 0.344639 -0.248145 0.905344 
-0.475221 -0.0533295 0.878249 -0.297382 -0.0661825 0.952462 -0.105588 -0.0436073 0.993453 
-0.111455 -0.00798584 0.993737 -0.157975 0.0144141 0.987338 0.0209093 0.0189568 0.999602 
-0.0159798 -0.00925756 0.999829 -0.029179 -0.160956 0.98653 0.0974103 -0.122624 0.987661 
0.0640637 -0.0929904 0.993604 0.110772 -0.0978202 0.98902 0.534763 -0.107351 0.838155 
0.321226 -0.112901 0.940248 -0.511349 0.0570339 0.857479 -0.321724 0.0244645 0.946517 
-0.0921111 -0.0155784 0.995627 -0.0724085 -0.00274816 0.997371 -0.0930094 0.0966541 0.990963 
-0.0131319 0.132217 0.991134 -0.0851633 -0.0245364 0.996065 -0.0469359 0.0323527 0.998374 
0.0842212 0.0145236 0.996341 0.0501271 -0.0150413 0.99863 0.130993 -0.00555825 0.991368 
0.56545 0.0657832 0.822155 0.333255 0.0297719 0.942367 -0.506052 0.125926 0.853261 
-0.398254 0.093013 0.912547 -0.128429 0.0348519 0.991106 -0.00171778 -0.00965792 0.999952 
-0.0139917 0.0579363 0.998222 -0.10566 0.132556 0.985528 -0.118534 0.0595907 0.99116 
0.0121445 0.127037 0.991824 0.0486974 0.0676945 0.996517 0.0461852 0.0734952 0.996226 
0.15156 0.115494 0.981678 0.546675 0.241223 0.801846 0.470159 0.418341 0.777137 
0.402038 0.212459 0.890633 -0.517525 0.238253 0.821829 -0.498774 0.28415 0.81883 
-0.462312 0.22496 0.857707 -0.203479 0.120728 0.971608 -0.0470391 0.024319 0.998597 
0.0479738 0.0225145 0.998595 -0.0081199 0.0488521 0.998773 -0.0862061 0.163116 0.982833 
-0.0401451 0.171438 0.984377 0.0303822 0.172043 0.984621 0.101558 0.240155 0.965407 
0.458072 0.435918 0.774691 0.340865 0.544577 0.766321 0.264479 0.346475 0.900003 
-0.448168 0.349309 0.822878 -0.385912 0.418089 0.822358 -0.34493 0.285201 0.894251 
-0.0983485 0.185411 0.977727 0.00942639 0.118917 0.992859 0.0325032 0.101626 0.994292 
0.00697546 0.165087 0.986254 0.0237402 0.257657 0.965945 0.236523 0.521879 0.819573 
0.122696 0.358382 0.925477 0.302456 0.557015 0.77347 0.266593 0.549584 0.791761 
0.233676 0.496681 0.835885 -0.305221 0.479101 0.822984 -0.246452 0.504049 0.827766 
-0.224562 0.444739 0.867052 -0.0923193 0.502313 0.859743 -0.0409266 0.327141 0.944089 
0.0413163 0.464207 0.884763 0.0507008 0.30935 0.949596 0.101003 0.444112 0.89026 
0.070463 0.340614 0.937559 0.205401 0.504432 0.838665 0.178713 0.49098 0.852643 
0.160045 0.453698 0.876666 
