# vtk DataFile Version 4.2
vtk output
ASCII
DATASET POLYDATA
POINTS 484 float
29.6071 3.19958 -23.0199 -19.0794 -29.2581 -16.5043 -10.965 -29.2581 -17.9246 
-2.8506 -29.2581 -17.9095 5.26382 -29.2581 -18.0652 13.3782 -29.2581 -18.426 
21.4927 -29.2581 -18.2306 29.6071 -29.2581 -16.2938 -35.3083 -21.1437 -15.1635 
-27.1939 -21.1437 -17.7254 -19.0794 -21.1437 -18.9761 -10.965 -21.1437 -19.7994 
-2.8506 -21.1437 -19.5514 5.26382 -21.1437 -20.0606 13.3782 -21.1437 -21.3913 
21.4927 -21.1437 -21.6415 29.6071 -21.1437 -20.9892 37.7215 -21.1437 -18.9563 
-35.3083 -13.0293 -18.6013 -27.1939 -13.0293 -19.7861 -19.0794 -13.0293 -20.0546 
-10.965 -13.0293 -20.7323 -2.8506 -13.0293 -20.4709 5.26382 -13.0293 -20.911 
13.3782 -13.0293 -21.9477 21.4927 -13.0293 -22.2266 29.6071 -13.0293 -22.8026 
37.7215 -13.0293 -22.1151 45.8359 -13.0293 -18.176 -43.4227 -4.91484 -17.1487 
-35.3083 -4.91484 -20.2723 -27.1939 -4.91484 -20.9597 -19.0794 -4.91484 -20.5856 
-10.965 -4.91484 -20.3148 -2.8506 -4.91484 -18.8953 5.26382 -4.91484 -20.2388 
13.3782 -4.91484 -20.7725 21.4927 -4.91484 -21.5979 29.6071 2.08301 -22.9426 
29.6071 -4.91484 -22.4577 37.7215 -4.91484 -22.2975 45.8359 -4.91484 -20.3069 
-43.4227 3.19958 -17.7518 -35.3083 3.19958 -20.7494 -27.1939 3.19958 -21.783 
-19.0794 3.19958 -21.5593 -10.965 3.19958 -21.8799 -2.8506 3.19958 -21.2457 
5.26382 3.19958 -21.3237 13.3782 3.19958 -20.6257 28.9977 3.19958 -22.9426 
21.4927 3.19958 -21.9455 31.2843 3.19958 -22.9426 29.6071 4.53562 -22.9426 
37.7215 3.19958 -22.6427 45.8359 3.19958 -20.3345 -43.4227 11.314 -16.2232 
-35.3083 11.314 -20.2511 -27.1939 11.314 -21.8053 -19.0794 11.314 -22.2536 
-10.965 11.314 -22.2024 -2.8506 11.314 -20.5363 5.26382 11.314 -19.3966 
13.3782 11.314 -20.5606 21.4927 11.314 -22.01 29.6071 11.314 -22.5464 
37.7215 11.314 -21.9414 45.8359 11.314 -18.4012 -35.3083 19.4284 -18.2271 
-27.1939 19.4284 -20.7005 -19.0794 19.4284 -21.9418 -10.965 19.4284 -21.9165 
-2.8506 19.4284 -20.9624 5.26382 19.4284 -20.5116 13.3782 19.4284 -20.6966 
21.4927 19.4284 -21.0721 29.6071 19.4284 -20.9219 37.7215 19.4284 -18.9007 
-27.1939 27.5428 -18.6103 -19.0794 27.5428 -21.1979 -10.965 27.5428 -22.2083 
-2.8506 27.5428 -22.6112 5.26382 27.5428 -22.0313 13.3782 27.5428 -20.9284 
21.4927 27.5428 -19.4219 29.6071 27.5428 -16.2413 -19.0794 35.6573 -19.6107 
-10.965 35.6573 -21.7442 -2.8506 35.6573 -22.481 5.26382 35.6573 -21.6683 
13.3782 35.6573 -20.0569 21.4927 35.6573 -15.1074 -10.965 43.7717 -18.2788 
-2.8506 43.7717 -19.7259 5.26382 43.7717 -18.3658 -27.1939 -37.3725 -7.04742 
-19.0794 -32.4679 -14.8282 -19.0794 -37.3725 -11.6796 -10.965 -35.8991 -14.8282 
-10.965 -37.3725 -13.937 -2.8506 -37.3139 -14.8282 -2.8506 -37.3725 -14.8003 
5.26382 -36.7037 -14.8282 5.26382 -37.3725 -14.4421 13.3782 -35.0949 -14.8282 
13.3782 -37.3725 -12.5512 21.4927 -33.1823 -14.8282 21.4927 -37.3725 -7.16748 
29.6071 -30.681 -14.8282 -35.3083 -21.7548 -14.8282 -35.3083 -29.2581 -8.47355 
-25.3198 -29.2581 -14.8282 -27.1939 -28.0577 -14.8282 -27.1939 -29.2581 -14.2378 
32.9824 -29.2581 -14.8282 37.7215 -26.7838 -14.8282 37.7215 -29.2581 -9.32186 
-35.893 -21.1437 -14.8282 -43.4227 -21.1437 -7.18742 44.4859 -21.1437 -14.8282 
45.8359 -19.5249 -14.8282 45.8359 -21.1437 -12.6757 -42.9601 -13.0293 -14.8282 
-43.4227 -12.2978 -14.8282 -43.4227 -13.0293 -14.4765 49.801 -13.0293 -14.8282 
-46.3306 -4.91484 -14.8282 52.92 -4.91484 -14.8282 53.9503 -4.91484 -12.6609 
-47.0599 3.19958 -14.8282 -51.5371 3.19958 -6.82078 52.5649 3.19958 -14.8282 
53.9503 3.19958 -11.5473 -45.0455 11.314 -14.8282 -43.4227 14.7356 -14.8282 
49.5488 11.314 -14.8282 45.8359 16.562 -14.8282 -40.5848 19.4284 -14.8282 
-43.4227 19.4284 -10.7486 -35.3083 25.2788 -14.8282 43.2552 19.4284 -14.8282 
37.7215 23.8761 -14.8282 45.8359 19.4284 -6.92872 -33.1698 27.5428 -14.8282 
-35.3083 27.5428 -11.7594 -27.1939 33.8647 -14.8282 31.9256 27.5428 -14.8282 
29.6071 29.097 -14.8282 -25.7345 35.6573 -14.8282 -27.1939 35.6573 -11.8682 
-19.0794 42.6508 -14.8282 13.3782 42.9999 -14.8282 21.8509 35.6573 -14.8282 
21.4927 35.9994 -14.8282 -17.5248 43.7717 -14.8282 -19.0794 43.7717 -12.0473 
-10.965 47.4006 -14.8282 -2.8506 49.0117 -14.8282 12.2953 43.7717 -14.8282 
5.26382 47.4074 -14.8282 13.3782 43.7717 -13.2537 -27.1939 -37.6461 -6.71374 
-19.0794 -41.7689 -6.71374 -10.965 -43.7439 -6.71374 -10.965 -45.4869 1.02509 
-2.8506 -44.3036 -6.71374 5.26382 -43.452 -6.71374 13.3782 -41.0961 -6.71374 
21.4927 -37.574 -6.71374 -27.5743 -37.3725 -6.71374 -35.3083 -30.8436 -6.71374 
21.9444 -37.3725 -6.71374 21.4927 -37.3725 -2.9597 29.6071 -34.0265 -6.71374 
37.7215 -30.0703 -6.71374 -36.8615 -29.2581 -6.71374 -43.4227 -21.5709 -6.71374 
38.9465 -29.2581 -6.71374 37.7215 -29.2581 -1.83123 45.8359 -23.7495 -6.71374 
-43.7412 -21.1437 -6.71374 48.3418 -21.1437 -6.71374 -48.6244 -13.0293 -6.71374 
53.4377 -13.0293 -6.71374 53.9503 -11.4913 -6.71374 -51.1882 -4.91484 -6.71374 
-51.5371 2.26018 -6.71374 55.9665 -4.91484 -6.71374 -51.5825 3.19958 -6.71374 
-51.5371 3.43805 -6.71374 55.4851 3.19958 -6.71374 53.9503 7.41795 -6.71374 
-49.8829 11.314 -6.71374 52.3902 11.314 -6.71374 -45.3801 19.4284 -6.71374 
-43.4227 21.9026 -6.71374 37.7215 25.7121 -6.71374 45.8942 19.4284 -6.71374 
45.8359 19.4866 -6.71374 45.8359 19.4284 -6.52927 -38.1007 27.5428 -6.71374 
-35.3083 30.1122 -6.71374 35.1803 27.5428 -6.71374 29.6071 31.6489 -6.71374 
-29.4658 35.6573 -6.71374 -27.1939 38.0631 -6.71374 -27.1939 35.6573 1.30903 
25.1491 35.6573 -6.71374 21.4927 39.4384 -6.71374 -21.1349 43.7717 -6.71374 
-19.0794 45.5278 -6.71374 -19.0794 43.7717 -0.944697 -10.965 50.2236 -6.71374 
-2.8506 51.764 -6.71374 5.26382 50.3024 -6.71374 16.5024 43.7717 -6.71374 
13.3782 46.1701 -6.71374 -10.965 -45.5601 1.40068 -27.1939 -40.2773 1.40068 
-11.4696 -45.4869 1.40068 -19.0794 -44.2871 1.40068 -5.2387 -45.4869 1.40068 
-10.965 -45.4869 2.06902 -2.8506 -45.4566 1.40068 5.26382 -44.0934 1.40068 
13.3782 -41.2115 1.40068 -31.0433 -37.3725 1.40068 -35.3083 -33.2572 1.40068 
21.0523 -37.3725 1.40068 21.4927 -37.1449 1.40068 29.6071 -33.0119 1.40068 
-38.7446 -29.2581 1.40068 -43.4227 -22.9692 1.40068 36.6563 -29.2581 1.40068 
37.7215 -28.6287 1.40068 45.8359 -21.9908 1.40068 -44.673 -21.1437 1.40068 
-43.4227 -21.1437 6.48874 46.6508 -21.1437 1.40068 45.8359 -21.1437 2.73993 
-48.9806 -13.0293 1.40068 51.9817 -13.0293 1.40068 53.9503 -7.15596 1.40068 
-51.2199 -4.91484 1.40068 -51.5371 2.22244 1.40068 54.6703 -4.91484 1.40068 
53.9503 -4.91484 2.87766 -51.5809 3.19958 1.40068 -51.5371 3.43549 1.40068 
-51.5371 3.19958 1.55491 53.9781 3.19958 1.40068 53.9503 3.27037 1.40068 
53.9503 3.19958 1.45639 -49.9026 11.314 1.40068 50.433 11.314 1.40068 
45.8359 16.8634 1.40068 45.8359 11.314 8.93779 -45.2305 19.4284 1.40068 
-43.4227 21.6525 1.40068 -43.4227 19.4284 5.86916 42.5482 19.4284 1.40068 
37.7215 22.9008 1.40068 37.7215 19.4284 6.77416 -37.1259 27.5428 1.40068 
-35.3083 29.0523 1.40068 -35.3083 27.5428 4.29597 -27.1939 35.6333 1.40068 
21.4927 27.5428 8.94113 30.9657 27.5428 1.40068 29.6071 28.5762 1.40068 
29.6071 27.5428 2.60921 -27.1664 35.6573 1.40068 -19.0794 43.0518 1.40068 
22.4687 35.6573 1.40068 21.4927 36.7561 1.40068 21.4927 35.6573 2.6741 
-18.1562 43.7717 1.40068 -10.965 48.4251 1.40068 -10.965 43.7717 8.963 
-2.8506 50.5242 1.40068 5.26382 49.3604 1.40068 14.7318 43.7717 1.40068 
13.3782 44.9002 1.40068 13.3782 43.7717 3.33076 -27.1939 -39.236 9.5151 
-19.0794 -43.3864 9.5151 -10.965 -44.633 9.5151 -2.8506 -43.9623 9.5151 
5.26382 -41.809 9.5151 13.3782 -38.3566 9.5151 -29.5858 -37.3725 9.5151 
-35.3083 -31.239 9.5151 -27.1939 -37.3725 12.7898 5.26382 -37.3725 17.0221 
15.315 -37.3725 9.5151 13.3782 -37.3725 11.1821 21.4927 -34.134 9.5151 
29.6071 -29.6328 9.5151 -36.7749 -29.2581 9.5151 -35.3083 -29.2581 11.918 
21.4927 -29.2581 16.5262 30.2541 -29.2581 9.5151 29.6071 -29.2581 10.0833 
37.7215 -24.2122 9.5151 -42.5901 -21.1437 9.5151 -43.4227 -19.671 9.5151 
41.1613 -21.1437 9.5151 37.7215 -21.1437 12.8104 45.8359 -15.416 9.5151 
-46.7216 -13.0293 9.5151 -43.4227 -13.0293 14.8732 37.7215 -13.0293 17.1283 
47.3464 -13.0293 9.5151 45.8359 -13.0293 11.1654 -48.9372 -4.91484 9.5151 
49.8889 -4.91484 9.5151 45.8359 -4.91484 13.4798 -49.0223 3.19958 9.5151 
-43.4227 3.19958 17.1566 49.1532 3.19958 9.5151 45.8359 10.4856 9.5151 
45.8359 3.19958 12.8294 -46.9076 11.314 9.5151 -43.4227 16.9706 9.5151 
-43.4227 11.314 13.7349 29.6071 11.314 16.891 45.2454 11.314 9.5151 
37.7215 17.3038 9.5151 37.7215 11.314 14.5681 -41.3792 19.4284 9.5151 
-35.3083 24.6016 9.5151 -35.3083 19.4284 14.727 13.3782 19.4284 15.9286 
21.4927 26.6829 9.5151 21.4927 19.4284 13.2303 33.4569 19.4284 9.5151 
29.6071 21.2998 9.5151 29.6071 19.4284 11.0202 -31.0345 27.5428 9.5151 
-27.1939 30.2094 9.5151 -27.1939 27.5428 12.128 -19.0794 27.5428 15.2641 
-10.965 27.5428 17.2176 5.26382 27.5428 17.5934 20.763 27.5428 9.5151 
13.3782 27.5428 14.4489 -20.0316 35.6573 9.5151 -19.0794 36.4749 9.5151 
-19.0794 35.6573 10.1698 -10.965 43.2582 9.5151 -10.965 35.6573 14.7505 
-2.8506 35.6573 16.2888 5.26382 35.6573 15.4494 16.02 35.6573 9.5151 
13.3782 38.8031 9.5151 13.3782 35.6573 11.6433 -9.69572 43.7717 9.5151 
-2.8506 45.8053 9.5151 -2.8506 43.7717 11.5057 7.01278 43.7717 9.5151 
5.26382 44.7782 9.5151 5.26382 43.7717 10.4782 -19.0794 -39.486 17.6295 
-10.965 -40.9901 17.6295 -2.8506 -39.8743 17.6295 -22.6282 -37.3725 17.6295 
-27.1939 -33.7503 17.6295 -19.0794 -37.3725 19.9342 -10.965 -37.3725 21.8416 
4.20859 -37.3725 17.6295 -2.8506 -37.3725 20.6175 5.26382 -36.9242 17.6295 
13.3782 -32.8102 17.6295 -31.247 -29.2581 17.6295 -35.3083 -23.5152 17.6295 
-27.1939 -29.2581 21.1246 -19.0794 -29.2581 25.0132 5.26382 -29.2581 24.3557 
19.8647 -29.2581 17.6295 13.3782 -29.2581 20.8969 21.4927 -28.2069 17.6295 
29.6071 -22.2576 17.6295 -36.9145 -21.1437 17.6295 -35.3083 -21.1437 19.0844 
-27.1939 -21.1437 24.1433 21.4927 -21.1437 22.5102 30.9925 -21.1437 17.6295 
[...]
POINT_DATA 484
SCALARS ImageScalars float
LOOKUP_TABLE default
0 0 0 0 0 0 0 0 0 
0 0 0 0 0 0 0 0 0 
0 0 0 0 0 0 0 0 0 
0 0 0 0 0 0 0 0 0 
0 0 0 0 0 0 0 0 0 
0 0 0 0 0 0 0 0 0 
0 0 0 0 0 0 0 0 0 
0 0 0 0 0 0 0 0 0 
0 0 0 0 0 0 0 0 0 
0 0 0 0 0 0 0 0 0 
0 0 0 0 0 0 0 0 0 
0 0 0 0 0 0 0 0 0 
0 0 0 0 0 0 0 0 0 
0 0 0 0 0 0 0 0 0 
0 0 0 0 0 0 0 0 0 
0 0 0 0 0 0 0 0 0 
0 0 0 0 0 0 0 0 0 
0 0 0 0 0 0 0 0 0 
0 0 0 0 0 0 0 0 0 
0 0 0 0 0 0 0 0 0 
0 0 0 0 0 0 0 0 0 
0 0 0 0 0 0 0 0 0 
0 0 0 0 0 0 0 0 0 
0 0 0 0 0 0 0 0 0 
0 0 0 0 0 0 0 0 0 
0 0 0 0 0 0 0 0 0 
0 0 0 0 0 0 0 0 0 
0 0 0 0 0 0 0 0 0 
0 0 0 0 0 0 0 0 0 
0 0 0 0 0 0 0 0 0 
0 0 0 0 0 0 0 0 0 
0 0 0 0 0 0 0 0 0 
0 0 0 0 0 0 0 0 0 
0 0 0 0 0 0 0 0 0 
0 0 0 0 0 0 0 0 0 
0 0 0 0 0 0 0 0 0 
0 0 0 0 0 0 0 0 0 
0 0 0 0 0 0 0 0 0 
0 0 0 0 0 0 0 0 0 
0 0 0 0 0 0 0 0 0 
0 0 0 0 0 0 0 0 0 
0 0 0 0 0 0 0 0 0 
0 0 0 0 0 0 0 0 0 
0 0 0 0 0 0 0 0 0 
0 0 0 0 0 0 0 0 0 
0 0 0 0 0 0 0 0 0 
0 0 0 0 0 0 0 0 0 
0 0 0 0 0 0 0 0 0 
0 0 0 0 0 0 0 0 0 
0 0 0 0 0 0 0 0 0 
0 0 0 0 0 0 0 0 0 
0 0 0 0 0 0 0 0 0 
0 0 0 0 0 0 0 0 0 
0 0 0 0 0 0 0 
NORMALS Normals float
0.0409641 0.00581068 0.999144 0.207553 0.3744 0.90374 0.077334 0.323953 0.942907 
0.00810326 0.275948 0.961138 0.0299089 0.314146 0.948904 0.011196 0.437234 0.899278 
-0.107437 0.569 0.815289 -0.271766 0.705288 0.65476 0.393539 0.431613 0.811688 
0.216472 0.311499 0.925261 0.117773 0.203343 0.971999 0.0346328 0.171652 0.984549 
0.0152425 0.152505 0.988185 0.1109 0.169048 0.979349 0.0935211 0.204031 0.974487 
-0.0238029 0.204852 0.978503 -0.149049 0.329839 0.932197 -0.364475 0.459859 0.809745 
0.260767 0.294232 0.919472 0.0823237 0.186395 0.97902 0.056611 0.0955681 0.993812 
0.0267594 0.0303074 0.999182 0.0108712 -0.0391763 0.999173 0.0918258 0.0106706 0.995718 
0.0804419 -0.0391611 0.99599 0.0512496 -0.00275599 0.998682 -0.00138215 0.0836575 0.996494 
-0.242922 0.17535 0.954066 -0.543522 0.31542 0.777878 0.54175 0.159499 0.825268 
0.208322 0.117696 0.970953 0.0213477 0.11976 0.992573 -0.0398353 0.0937662 0.994797 
-0.101228 0.0666456 0.992629 -0.00856037 0.0371801 0.999272 0.117227 0.0262307 0.992759 
0.0820735 -0.0813018 0.993305 0.103737 -0.0182941 0.994437 0.0412968 0.00678286 0.999124 
0.04302 0.0133334 0.998985 -0.122269 0.0311703 0.992007 -0.416809 0.117537 0.901363 
0.526532 -0.0478873 0.848805 0.231436 0.000669253 0.97285 0.0474404 0.0519322 0.997523 
0.00534523 0.102268 0.994743 -0.0166774 0.117825 0.992894 -0.0349875 0.106665 0.993679 
-0.0387528 -0.0522638 0.997881 0.0349738 -0.0129261 0.999305 0.0490894 0.00736927 0.998767 
0.14764 0.0255495 0.988711 0.00109284 0.000191268 0.999999 0.0334951 -0.0159784 0.999311 
-0.150911 -0.0210755 0.988323 -0.448608 -0.0943001 0.88874 0.610908 -0.252873 0.750231 
0.301252 -0.137833 0.94353 0.120265 -0.0624119 0.990778 0.0243593 0.0235884 0.999425 
-0.10211 0.00151335 0.994772 -0.174955 -0.0148986 0.984464 0.00248374 -0.0553106 0.998466 
0.157729 0.00439433 0.987473 0.120363 -0.0540897 0.991255 -0.00412364 -0.124959 0.992153 
-0.207653 -0.193554 0.958862 -0.578668 -0.352304 0.735545 0.412642 -0.357728 0.83771 
0.213575 -0.181235 0.959969 0.0709684 -0.063021 0.995486 -0.0595497 0.000670545 0.998225 
-0.086773 0.129636 0.987758 -0.0165172 0.164959 0.986162 0.0345744 0.0231834 0.999133 
0.0142864 -0.154265 0.987926 -0.11347 -0.332659 0.936196 -0.404033 -0.547039 0.733148 
0.404102 -0.367061 0.837835 0.203973 -0.134673 0.969669 0.0839814 -0.0113606 0.996403 
-0.0109957 0.0922538 0.995675 -0.104179 0.0660555 0.992363 -0.154511 -0.0281709 0.987589 
-0.260475 -0.322059 0.910182 -0.437792 -0.657452 0.613266 0.416433 -0.334144 0.845536 
0.156744 -0.20056 0.967061 -0.00148877 -0.157429 0.987529 -0.130941 -0.191131 0.972792 
-0.346729 -0.296462 0.889882 -0.57015 -0.596901 0.56448 0.273225 -0.599927 0.751954 
0.0052865 -0.532372 0.846494 -0.25492 -0.588041 0.767609 0.490528 0.732882 0.471451 
0.234174 0.467175 0.852591 0.292649 0.650214 0.701126 0.130317 0.51644 0.84635 
0.142934 0.57887 0.802795 0.0252915 0.514647 0.857029 0.0254023 0.517286 0.855435 
-0.0730702 0.537996 0.839774 -0.087434 0.571979 0.815595 -0.127512 0.619904 0.774247 
-0.222587 0.752522 0.619811 -0.201 0.720086 0.664135 -0.391361 0.899523 0.194153 
-0.295207 0.760001 0.57901 0.40305 0.442468 0.801108 0.607476 0.6397 0.470911 
0.294828 0.441381 0.847502 0.306309 0.436696 0.845856 0.331136 0.468436 0.819095 
-0.358987 0.748096 0.558105 -0.457219 0.695554 0.554216 -0.50709 0.838051 0.201322 
0.411356 0.439224 0.798667 0.759621 0.559206 0.33206 -0.604609 0.563789 0.562663 
-0.628834 0.529911 0.569 -0.669771 0.613066 0.418995 0.579234 0.379155 0.721616 
0.595127 0.362686 0.717135 0.607114 0.385472 0.694855 -0.702079 0.367669 0.60984 
0.67274 0.174579 0.718987 -0.801365 0.130202 0.583834 -0.893638 0.129128 0.429811 
0.697989 -0.0611488 0.713493 0.974801 -0.0693351 0.212026 -0.806384 -0.16467 0.568004 
-0.922121 -0.188753 0.337735 0.675827 -0.274183 0.684165 0.662241 -0.360286 0.656986 
-0.742327 -0.407803 0.531645 -0.668233 -0.563244 0.486025 0.614186 -0.462687 0.639294 
0.7519 -0.538217 0.380747 0.571327 -0.548613 0.610417 -0.615209 -0.641614 0.458094 
-0.508751 -0.732726 0.451979 -0.678689 -0.734407 -0.00526229 0.577839 -0.554969 0.598424 
0.644398 -0.654269 0.395832 0.626225 -0.527622 0.573984 -0.482446 -0.721898 0.496094 
-0.497237 -0.699646 0.513079 0.638773 -0.531419 0.556383 0.70173 -0.614787 0.360018 
0.548761 -0.663932 0.507992 -0.511941 -0.688344 0.513906 -0.575662 -0.608777 0.545897 
-0.575792 -0.607287 0.547418 0.505601 -0.697474 0.507836 0.587424 -0.744104 0.318186 
0.301142 -0.77072 0.561519 -0.000979323 -0.817075 0.576531 -0.490113 -0.705749 0.511574 
-0.29505 -0.769045 0.567024 -0.534814 -0.738783 0.410089 0.493055 0.74145 0.455136 
0.305586 0.823357 0.478226 0.135558 0.895424 0.424074 0.0688646 0.99594 0.0579773 
-0.0182775 0.93063 0.365505 -0.187951 0.927657 0.322688 -0.329473 0.907224 0.261518 
-0.397493 0.901485 0.171245 0.500648 0.736763 0.454457 0.634499 0.667412 0.389837 
-0.398872 0.901622 0.167268 -0.429405 0.903035 0.0118044 -0.422804 0.899788 0.107788 
-0.511503 0.856746 0.0659618 0.65756 0.653204 0.375418 0.765387 0.564448 0.309162 
-0.533741 0.84295 0.0675065 -0.518128 0.844898 -0.133003 -0.690673 0.718933 0.0781361 
0.770296 0.559071 0.306731 -0.749934 0.656518 0.0811401 0.879027 0.394373 0.267921 
-0.914935 0.395799 0.0789703 -0.936347 0.342694 0.0762587 0.961902 0.163671 0.218989 
0.977155 -0.0426194 0.208211 -0.989963 0.118168 0.07752 0.975963 -0.0693114 0.206619 
0.97529 -0.0767111 0.207182 -0.978141 -0.199761 0.0577608 -0.941856 -0.333284 0.0427693 
0.915875 -0.334354 0.222216 -0.881144 -0.471876 0.0302993 0.806099 -0.562514 0.1838 
0.769616 -0.613061 0.17846 -0.567571 -0.821946 -0.0476218 -0.67824 -0.734661 -0.0162105 
-0.677032 -0.735774 -0.0162633 -0.676988 -0.735609 -0.0237973 0.689019 -0.710728 0.141839 
0.678961 -0.723954 0.122076 -0.569778 -0.820758 -0.0413409 -0.634221 -0.772902 -0.0196661 
0.714312 -0.697007 0.062766 0.7151 -0.697511 0.0459342 0.639377 -0.69637 -0.325984 
-0.691974 -0.721883 0.00760117 -0.691869 -0.721359 0.0309485 0.63878 -0.769277 0.0131368 
0.614137 -0.789019 0.016857 0.610506 -0.74695 -0.26334 0.315971 -0.947933 0.0398252 
0.00382471 -0.997933 0.0641508 -0.291822 -0.952112 0.0912257 -0.612449 -0.787968 0.0633427 
-0.56546 -0.821007 0.0787567 0.0655415 0.996951 0.0423391 0.535864 0.841346 0.070621 
0.0794126 0.995845 0.0445783 0.29908 0.950796 0.0808511 -0.0422278 0.999103 -0.00308031 
0.0631471 0.997816 0.0194014 -0.0869925 0.995968 -0.0219267 -0.247492 0.965046 -0.0862207 
-0.385791 0.911917 -0.139903 0.62984 0.774401 0.0600343 0.731059 0.681908 0.0235457 
-0.449872 0.876402 -0.171858 -0.452199 0.874765 -0.174073 -0.449854 0.865043 -0.222107 
0.777069 0.629155 -0.0181059 0.830245 0.554826 -0.0534955 -0.500534 0.825663 -0.260281 
-0.516087 0.813513 -0.26805 -0.680181 0.669027 -0.299593 0.844994 0.531358 -0.0603651 
0.822703 0.516039 -0.238461 -0.699111 0.648154 -0.301893 -0.683573 0.645312 -0.341029 
0.924284 0.367666 -0.102576 -0.872494 0.379864 -0.307341 -0.932872 0.181359 -0.311221 
0.98133 0.146266 -0.124892 0.989398 -0.0434748 -0.138569 -0.943978 0.11134 -0.310658 
-0.924981 0.110057 -0.363728 0.987694 -0.0695002 -0.140109 0.987119 -0.0769094 -0.140289 
0.986969 -0.0697971 -0.144983 -0.921263 -0.220274 -0.320554 -0.920709 -0.222335 -0.320721 
-0.920598 -0.220359 -0.322398 0.928844 -0.339983 -0.147175 -0.794371 -0.501806 -0.342294 
-0.651971 -0.666546 -0.361455 -0.630162 -0.499814 -0.594207 0.796757 -0.580369 -0.168378 
0.755014 -0.631788 -0.175495 0.734349 -0.591826 -0.332377 -0.575744 -0.729833 -0.368596 
-0.506308 -0.771141 -0.385997 -0.446972 -0.718435 -0.53298 0.629529 -0.743237 -0.226477 
0.615747 -0.750665 -0.239495 0.582114 -0.740652 -0.335526 0.637638 -0.696016 -0.33012 
-0.520126 -0.449583 -0.726185 -0.533141 -0.722916 -0.439493 -0.554763 -0.705474 -0.441072 
-0.52619 -0.700554 -0.482026 0.637697 -0.695798 -0.330465 0.593524 -0.710866 -0.377358 
-0.707851 -0.595528 -0.379858 -0.712045 -0.597423 -0.368887 -0.710461 -0.564178 -0.420652 
0.57612 -0.726669 -0.374217 0.351677 -0.870409 -0.344546 0.382338 -0.676134 -0.62981 
0.0488126 -0.951074 -0.305084 -0.284917 -0.91895 -0.272677 -0.604503 -0.742296 -0.289089 
-0.580439 -0.762622 -0.285478 -0.580723 -0.735944 -0.348063 0.556557 0.784743 -0.272804 
0.282788 0.926084 -0.2498 0.0310541 0.968324 -0.24776 -0.154279 0.940838 -0.3017 
-0.30023 0.878007 -0.372781 -0.395683 0.824527 -0.404463 0.616389 0.735321 -0.281723 
0.742032 0.592929 -0.312766 0.561736 0.718982 -0.409289 -0.322895 0.749453 -0.577979 
-0.407201 0.817967 -0.406346 -0.394837 0.803152 -0.446151 -0.433749 0.79808 -0.418246 
-0.454564 0.774371 -0.440138 0.757386 0.565587 -0.32631 0.734682 0.542371 -0.407524 
-0.40635 0.674435 -0.616456 -0.459161 0.769485 -0.44392 -0.454921 0.764709 -0.456364 
-0.549634 0.660845 -0.511064 0.793627 0.496675 -0.351382 0.808838 0.468216 -0.355745 
-0.603809 0.592571 -0.533174 -0.552999 0.55008 -0.625783 -0.689442 0.42076 -0.589602 
0.86373 0.336477 -0.375171 0.769292 0.310613 -0.558309 -0.481743 0.246125 -0.841038 
-0.719391 0.352407 -0.59857 -0.681014 0.341997 -0.647501 0.910469 0.122663 -0.394968 
-0.763953 0.0908144 -0.63885 -0.643126 0.0743053 -0.762147 0.894615 -0.101441 -0.435171 
0.639447 -0.168384 -0.750169 -0.738259 -0.204768 -0.642685 -0.63062 -0.465378 -0.621081 
-0.632592 -0.194104 -0.749768 0.803726 -0.362434 -0.471876 0.705849 -0.52259 -0.478202 
0.667916 -0.371324 -0.644986 -0.169006 -0.467384 -0.867749 -0.609193 -0.497968 -0.617181 
-0.413626 -0.65847 -0.628753 -0.368322 -0.48366 -0.793985 0.640001 -0.591986 -0.489848 
0.506617 -0.678989 -0.531331 0.421292 -0.56653 -0.708207 -0.309936 -0.266821 -0.912549 
-0.48885 -0.442931 -0.751557 -0.263711 -0.444256 -0.856209 -0.343447 -0.661811 -0.666371 
-0.318459 -0.633373 -0.705282 -0.268334 -0.620749 -0.73666 0.465287 -0.680579 -0.565968 
0.454825 -0.658114 -0.600017 0.389127 -0.629464 -0.672574 0.252554 -0.46755 -0.847121 
0.180673 -0.290434 -0.939684 -0.212637 -0.183772 -0.959695 -0.512772 -0.423818 -0.746621 
-0.442301 -0.227837 -0.867444 0.495986 -0.569989 -0.655065 0.496561 -0.564341 -0.659505 
0.485225 -0.55187 -0.678231 0.377922 -0.654927 -0.654405 0.310028 -0.406327 -0.859524 
0.0314774 -0.369859 -0.928554 -0.237367 -0.36209 -0.901415 -0.596329 -0.424122 -0.681551 
-0.561534 -0.50998 -0.651613 -0.535613 -0.38398 -0.752116 0.330172 -0.675063 -0.659755 
0.0649028 -0.733367 -0.676728 0.0604498 -0.665582 -0.743873 -0.334438 -0.684618 -0.647649 
-0.270822 -0.701926 -0.658753 -0.261324 -0.670828 -0.694046 0.307562 0.752008 -0.583001 
0.0167074 0.833206 -0.55271 -0.201891 0.798267 -0.56746 0.421279 0.685005 -0.594384 
0.549418 0.576588 -0.60472 0.321618 0.672369 -0.666695 0.0336829 0.697113 -0.71617 
-0.308398 0.744418 -0.592227 -0.201894 0.713267 -0.671185 -0.32244 0.733801 -0.597971 
-0.372095 0.679328 -0.632502 0.625511 0.48516 -0.611028 0.643924 0.432711 -0.63097 
0.523732 0.439366 -0.729837 0.311604 0.370999 -0.874793 -0.266998 0.500976 -0.823247 
-0.394485 0.652572 -0.64694 -0.350184 0.589115 -0.728227 -0.40459 0.629025 -0.663803 
-0.454236 0.464951 -0.759928 0.647169 0.415072 -0.639443 0.611595 0.396667 -0.684549 
0.432948 0.230424 -0.871471 -0.391071 0.342098 -0.854419 -0.464191 0.437508 -0.770139 
-0.449966 0.422512 -0.786774 0.682861 0.273506 -0.677418 0.695409 0.0887952 -0.713107 
0.49436 0.191962 -0.847796 0.324678 0.0717707 -0.943098 -0.355851 0.000313973 -0.934543 
-0.464698 0.228993 -0.855346 -0.371564 0.130965 -0.919124 -0.453872 0.16163 -0.876285 
0.694819 0.0737628 -0.715392 0.679031 0.00963515 -0.734046 0.689947 0.0725132 -0.720219 
0.407817 -0.0345316 -0.91241 0.254691 -0.113835 -0.960299 -0.267108 -0.233699 -0.9349 
-0.26825 -0.179763 -0.946429 -0.236967 -0.0686139 -0.969092 -0.441048 0.0341455 -0.896834 
-0.39819 0.0243288 -0.91698 0.609175 -0.17273 -0.773996 0.351093 -0.212148 -0.911991 
0.192832 -0.24194 -0.950937 0.176199 -0.303368 -0.936441 -0.137199 -0.277944 -0.950749 
-0.12574 -0.246419 -0.960972 -0.20886 -0.296181 -0.932016 -0.196172 -0.265375 -0.943977 
-0.170107 -0.411589 -0.895354 -0.182981 -0.22572 -0.956853 -0.368904 -0.185908 -0.910685 
-0.366651 -0.190069 -0.910737 -0.366547 -0.186037 -0.91161 0.452961 -0.346467 -0.821454 
0.377732 -0.420902 -0.824718 0.362922 -0.339135 -0.867914 0.177208 -0.330514 -0.927016 
0.120514 -0.33407 -0.934812 0.0589892 -0.395528 -0.916558 -0.053337 -0.337609 -0.939774 
-0.183592 -0.34818 -0.919274 -0.283019 -0.346447 -0.894357 -0.26409 -0.430326 -0.863178 
-0.151232 -0.444617 -0.882862 -0.151282 -0.434394 -0.887928 -0.146029 -0.432352 -0.889802 
0.232863 -0.474463 -0.848916 0.22335 -0.473834 -0.851819 0.217464 -0.466677 -0.857276 
0.164039 -0.41772 -0.893645 0.116028 -0.391624 -0.91278 0.1562 -0.29771 -0.941791 
0.0318026 -0.35295 -0.935102 -0.0734836 -0.285576 -0.955535 -0.254128 -0.265256 -0.930085 
-0.212744 -0.186607 -0.959123 -0.221907 -0.272607 -0.936185 0.129191 -0.263121 -0.956074 
-0.203525 -0.184682 -0.961494 0.0226355 -0.267189 -0.963378 0.0193925 -0.203296 -0.978925 
0.0603021 0.445494 -0.893252 -0.157282 0.442161 -0.883038 0.230403 0.364563 -0.902224 
0.299443 0.311437 -0.901854 0.0674504 0.354496 -0.932622 -0.186084 0.437447 -0.87978 
-0.150567 0.413016 -0.898191 -0.23533 0.406049 -0.883031 -0.295536 0.309419 -0.903835 
0.354134 0.19877 -0.913827 0.274186 0.174214 -0.945765 0.0886512 0.154386 -0.984025 
-0.0690614 0.193837 -0.9786 -0.186197 0.250588 -0.950019 -0.295872 0.308357 -0.904088 
-0.295313 0.308295 -0.904292 0.319385 0.0669847 -0.945255 0.241341 0.00302088 -0.970436 
0.0940805 -0.00340984 -0.995559 -0.0439229 -0.0484405 -0.99786 -0.152449 -0.0412366 -0.987451 
-0.320506 -0.0114723 -0.947177 -0.271192 -0.208362 -0.939702 -0.28926 -0.0106818 -0.957191 
0.24847 -0.121719 -0.960962 0.1853 -0.274435 -0.943583 0.203375 -0.170109 -0.96421 
0.0370059 -0.177105 -0.983496 -0.136202 -0.277115 -0.951134 -0.111371 -0.256221 -0.960181 
-0.254129 -0.239468 -0.937056 -0.137902 -0.262817 -0.95494 -0.148559 -0.280623 -0.948251 
0.119114 -0.309758 -0.943325 -0.101939 -0.288758 -0.95196 0.0277943 -0.34274 -0.939019 
0.0138097 -0.315185 -0.94893 
