# vtk DataFile Version 4.2
vtk output
ASCII
DATASET POLYDATA
POINTS 526 float
-25.3472 -46.4772 -14.2976 -16.9736 -46.4772 -17.1627 -8.59989 -46.4772 -17.2736 
-0.226204 -46.4772 -15.5791 -33.7209 -38.1036 -16.3023 -25.3472 -38.1036 -19.0766 
-16.9736 -38.1036 -20.2818 -8.59989 -38.1036 -20.2784 -0.226204 -38.1036 -18.8877 
8.14748 -38.1036 -16.5563 16.5212 -38.1036 -13.2399 -42.0946 -29.7299 -14.843 
-33.7209 -29.7299 -18.9225 -25.3472 -29.7299 -21.4647 -16.9736 -29.7299 -21.0236 
-8.59989 -29.7299 -20.7651 -0.226204 -29.7299 -19.6703 8.14748 -29.7299 -17.3581 
16.5212 -29.7299 -15.4572 24.8948 -29.7299 -16.2085 33.2685 -29.7299 -16.5197 
41.6422 -29.7299 -14.2073 -42.0946 -21.3562 -17.4083 -33.7209 -21.3562 -20.163 
-25.3472 -21.3562 -20.965 -16.9736 -21.3562 -20.393 -8.59989 -21.3562 -19.4901 
-0.226204 -21.3562 -18.4963 8.14748 -21.3562 -17.1628 16.5212 -21.3562 -16.4372 
24.8948 -21.3562 -17.5253 33.2685 -21.3562 -18.091 41.6422 -21.3562 -18.548 
50.0159 -21.3562 -15.3054 -50.4683 -12.9825 -14.0782 -42.0946 -12.9825 -18.4473 
-33.7209 -12.9825 -20.1192 -25.3472 -12.9825 -20.3364 -16.9736 -12.9825 -19.4761 
-8.59989 -12.9825 -17.8158 -0.226204 -12.9825 -18.2782 8.14748 -12.9825 -18.8265 
16.5212 -12.9825 -17.6108 24.8948 -12.9825 -18.968 33.2685 -12.9825 -19.963 
41.6422 -12.9825 -19.897 50.0159 -12.9825 -17.6639 -50.4683 -4.60884 -15.8263 
-42.0946 -4.60884 -19.1617 -33.7209 -4.60884 -20.1239 -25.3472 -4.60884 -19.8463 
-16.9736 -4.60884 -19.3958 -8.59989 -4.60884 -20.7911 -0.226204 -4.60884 -18.9146 
8.14748 -4.60884 -20.9016 16.5212 -4.60884 -19.3941 24.8948 -4.60884 -20.0691 
33.2685 -4.60884 -20.8383 41.6422 -4.60884 -20.8876 50.0159 -4.60884 -18.7863 
58.3896 -4.60884 -13.7325 -50.4683 3.76484 -16.3299 -42.0946 3.76484 -19.2406 
-33.7209 3.76484 -20.3289 -25.3472 3.76484 -19.94 -16.9736 3.76484 -19.1404 
-8.59989 3.76484 -21.0128 -0.226204 3.76484 -19.2149 8.14748 3.76484 -20.9558 
16.5212 3.76484 -20.0945 24.8948 3.76484 -20.538 33.2685 3.76484 -20.9726 
41.6422 3.76484 -20.6036 50.0159 3.76484 -18.5399 -50.4683 12.1385 -15.6234 
-42.0946 12.1385 -19.2146 -33.7209 12.1385 -20.4967 -25.3472 12.1385 -20.4387 
-16.9736 12.1385 -19.7738 -8.59989 12.1385 -19.4626 -0.226204 12.1385 -20.1963 
8.14748 12.1385 -21.1615 16.5212 12.1385 -20.768 24.8948 12.1385 -20.6881 
33.2685 12.1385 -20.5031 41.6422 12.1385 -19.6137 50.0159 12.1385 -16.7588 
-42.0946 20.5122 -18.3844 -33.7209 20.5122 -20.2808 -25.3472 20.5122 -20.5412 
-16.9736 20.5122 -20.1959 -8.59989 20.5122 -19.7686 -0.226204 20.5122 -19.6292 
8.14748 20.5122 -19.977 16.5212 20.5122 -20.6811 24.8948 20.5122 -20.5867 
33.2685 20.5122 -19.9029 41.6422 20.5122 -17.8058 -42.0946 28.8859 -15.2595 
-33.7209 28.8859 -18.2461 -25.3472 28.8859 -19.1936 -16.9736 28.8859 -19.5645 
-8.59989 28.8859 -19.9611 -0.226204 28.8859 -19.9026 8.14748 28.8859 -19.6784 
16.5212 28.8859 -19.5739 24.8948 28.8859 -19.2586 33.2685 28.8859 -17.9292 
41.6422 28.8859 -13.611 -25.3472 37.2596 -15.6543 -16.9736 37.2596 -17.0411 
-8.59989 37.2596 -17.9078 -0.226204 37.2596 -18.182 8.14748 37.2596 -17.9734 
16.5212 37.2596 -17.0396 24.8948 37.2596 -15.6393 -0.226204 45.6333 -13.5786 
-25.3472 -47.5323 -13.2239 -16.9736 -50.4291 -13.2239 -8.59989 -51.0532 -13.2239 
-8.59989 -54.8509 -5.73234 -0.226204 -49.2499 -13.2239 -27.1203 -46.4772 -13.2239 
-33.7209 -41.8881 -13.2239 6.52418 -46.4772 -13.2239 8.14748 -45.4396 -13.2239 
8.14748 -46.4772 -12.4793 16.5212 -38.1333 -13.2239 16.5212 -46.4772 -6.76826 
-37.4444 -38.1036 -13.2239 -42.0946 -32.1735 -13.2239 16.606 -38.1036 -13.2239 
24.8948 -35.2241 -13.2239 24.8948 -38.1036 -11.231 33.2685 -34.0041 -13.2239 
33.2685 -38.1036 -7.31213 41.6422 -31.1975 -13.2239 -43.8405 -29.7299 -13.2239 
45.6447 -29.7299 -13.2239 50.0159 -26.8516 -13.2239 50.0159 -29.7299 -8.47898 
-47.7463 -21.3562 -13.2239 -50.4683 -15.5063 -13.2239 -50.4683 -21.3562 -9.50291 
53.9749 -21.3562 -13.2239 -51.5386 -12.9825 -13.2239 56.8917 -12.9825 -13.2239 
58.3896 -7.0066 -13.2239 58.3896 -12.9825 -11.1287 -53.9334 -4.60884 -13.2239 
58.8174 -4.60884 -13.2239 58.3896 -0.870887 -13.2239 -54.6226 3.76484 -13.2239 
-58.842 3.76484 -5.10775 57.715 3.76484 -13.2239 58.3896 3.76484 -12.4016 
-53.5437 12.1385 -13.2239 -50.4683 20.3343 -13.2239 55.2465 12.1385 -13.2239 
50.0159 19.8581 -13.2239 58.3896 12.1385 -7.76524 -50.3826 20.5122 -13.2239 
-50.4683 20.5122 -13.1422 49.4603 20.5122 -13.2239 50.0159 20.5122 -12.6957 
-45.1955 28.8859 -13.2239 -50.4683 28.8859 -5.46217 -42.0946 31.71 -13.2239 
-33.7209 37.0336 -13.2239 33.2685 35.9984 -13.2239 42.2286 28.8859 -13.2239 
41.6422 29.4581 -13.2239 -42.0946 37.2596 -6.65349 -33.2646 37.2596 -13.2239 
-33.7209 37.2596 -13.0214 -25.3472 40.3906 -13.2239 -16.9736 42.869 -13.2239 
-8.59989 45.2202 -13.2239 8.14748 44.972 -13.2239 16.5212 42.8299 -13.2239 
31.1014 37.2596 -13.2239 24.8948 40.1706 -13.2239 33.2685 37.2596 -11.8658 
-25.3472 45.6333 -6.69676 -16.9736 45.6333 -10.3164 -4.96697 45.6333 -13.2239 
-8.59989 45.6333 -12.8197 3.24982 45.6333 -13.2239 -0.226204 46.001 -13.2239 
8.14748 45.6333 -12.4238 16.5212 45.6333 -9.5211 -8.59989 -55.1595 -4.85019 
-25.3472 -50.1301 -4.85019 -9.95963 -54.8509 -4.85019 -16.9736 -53.1682 -4.85019 
-3.90607 -54.8509 -4.85019 -8.59989 -54.8509 -2.49816 -0.226204 -54.5842 -4.85019 
8.14748 -52.0412 -4.85019 16.5212 -47.9255 -4.85019 -31.4354 -46.4772 -4.85019 
-33.7209 -44.8732 -4.85019 19.0913 -46.4772 -4.85019 24.8948 -43.3316 -4.85019 
33.2685 -39.4903 -4.85019 -40.5948 -38.1036 -4.85019 -42.0946 -36.3133 -4.85019 
36.4734 -38.1036 -4.85019 33.2685 -38.1036 -0.590141 41.6422 -35.7502 -4.85019 
50.0159 -30.6576 -4.85019 -47.0595 -29.7299 -4.85019 -50.4683 -24.822 -4.85019 
51.0272 -29.7299 -4.85019 50.0159 -29.7299 -3.11098 -52.6887 -21.3562 -4.85019 
57.9265 -21.3562 -4.85019 58.3896 -20.3321 -4.85019 -56.116 -12.9825 -4.85019 
61.0811 -12.9825 -4.85019 58.3896 -12.9825 2.6395 -58.4577 -4.60884 -4.85019 
-58.842 2.05199 -4.85019 62.6367 -4.60884 -4.85019 -58.9345 3.76484 -4.85019 
-58.842 4.42693 -4.85019 -58.842 3.76484 -3.66595 62.2957 3.76484 -4.85019 
-57.7186 12.1385 -4.85019 59.4882 12.1385 -4.85019 58.3896 14.318 -4.85019 
58.3896 12.1385 2.61095 -55.2556 20.5122 -4.85019 54.8712 20.5122 -4.85019 
50.0159 26.9078 -4.85019 -50.7451 28.8859 -4.85019 -50.4683 29.279 -4.85019 
48.2564 28.8859 -4.85019 41.6422 35.2593 -4.85019 -43.4795 37.2596 -4.85019 
-42.0946 38.5902 -4.85019 -33.7209 43.2829 -4.85019 24.8948 45.6207 -4.85019 
39.1705 37.2596 -4.85019 33.2685 41.3872 -4.85019 -28.2185 45.6333 -4.85019 
-25.3472 46.6616 -4.85019 -16.9736 48.9845 -4.85019 -8.59989 50.1066 -4.85019 
-0.226204 50.3621 -4.85019 8.14748 49.5513 -4.85019 24.855 45.6333 -4.85019 
16.5212 47.9467 -4.85019 -25.3472 -48.5335 3.52349 -16.9736 -52.3108 3.52349 
-8.59989 -53.9812 3.52349 -0.226204 -54.2758 3.52349 8.14748 -52.6205 3.52349 
16.5212 -48.3148 3.52349 -28.6068 -46.4772 3.52349 -33.7209 -42.6709 3.52349 
-25.3472 -46.4772 7.23264 19.0206 -46.4772 3.52349 16.5212 -46.4772 6.59146 
24.8948 -41.1213 3.52349 -38.322 -38.1036 3.52349 -42.0946 -33.621 3.52349 
-33.7209 -38.1036 9.09161 30.0991 -38.1036 3.52349 24.8948 -38.1036 6.44226 
33.2685 -35.8344 3.52349 41.6422 -31.7657 3.52349 -45.1383 -29.7299 3.52349 
-50.4683 -22.7818 3.52349 -42.0946 -29.7299 7.62782 24.8948 -29.7299 10.5305 
33.2685 -29.7299 8.46782 44.547 -29.7299 3.52349 41.6422 -29.7299 5.28417 
50.0159 -24.9582 3.52349 -51.4423 -21.3562 3.52349 -50.4683 -21.3562 5.17043 
33.2685 -21.3562 11.0637 41.6422 -21.3562 9.21239 53.2785 -21.3562 3.52349 
50.0159 -21.3562 6.13649 -55.2019 -12.9825 3.52349 -50.4683 -12.9825 9.99936 
57.9142 -12.9825 3.52349 50.0159 -12.9825 9.52454 58.3896 -11.9142 3.52349 
-57.6835 -4.60884 3.52349 60.5751 -4.60884 3.52349 58.3896 -4.60884 6.57875 
-58.2237 3.76484 3.52349 60.435 3.76484 3.52349 58.3896 11.6244 3.52349 
58.3896 3.76484 6.60752 -57.2705 12.1385 3.52349 58.24 12.1385 3.52349 
-54.588 20.5122 3.52349 -50.4683 20.5122 10.9187 54.3136 20.5122 3.52349 
50.0159 26.5745 3.52349 50.0159 20.5122 10.0656 -50.7027 28.8859 3.52349 
-50.4683 29.2551 3.52349 -50.4683 28.8859 4.07096 48.1394 28.8859 3.52349 
41.6422 35.477 3.52349 -44.4288 37.2596 3.52349 -42.0946 39.4502 3.52349 
-42.0946 37.2596 9.53926 -33.7209 44.9097 3.52349 24.8948 45.4466 3.52349 
39.4536 37.2596 3.52349 33.2685 41.4758 3.52349 -31.8095 45.6333 3.52349 
-25.3472 47.8688 3.52349 -25.3472 45.6333 11.8882 -16.9736 49.6556 3.52349 
-8.59989 50.8409 3.52349 -0.226204 50.4173 3.52349 8.14748 49.4962 3.52349 
24.2934 45.6333 3.52349 16.5212 47.8914 3.52349 16.5212 45.6333 9.09364 
-16.9736 -47.3118 11.8972 -8.59989 -49.5062 11.8972 -0.226204 -50.4124 11.8972 
8.14748 -48.6264 11.8972 -18.8341 -46.4772 11.8972 -25.3472 -42.3036 11.8972 
-16.9736 -46.4772 12.7375 -8.59989 -46.4772 14.8659 -0.226204 -46.4772 15.925 
11.3231 -46.4772 11.8972 8.14748 -46.4772 14.0846 16.5212 -41.5611 11.8972 
-30.1334 -38.1036 11.8972 -33.7209 -33.9915 11.8972 -25.3472 -38.1036 14.6536 
-16.9736 -38.1036 17.5197 -8.59989 -38.1036 19.3458 8.14748 -38.1036 19.1285 
19.2804 -38.1036 11.8972 16.5212 -38.1036 14.2919 -37.1842 -29.7299 11.8972 
-42.0946 -22.7629 11.8972 -33.7209 -29.7299 13.9874 -25.3472 -29.7299 17.7858 
-16.9736 -29.7299 19.5445 22.5814 -29.7299 11.8972 16.5212 -29.7299 15.5542 
24.8948 -23.3466 11.8972 -43.143 -21.3562 11.8972 -42.0946 -21.3562 12.508 
-33.7209 -21.3562 16.4502 -25.3472 -21.3562 18.8725 -16.9736 -21.3562 20.1307 
16.5212 -21.3562 16.749 27.6671 -21.3562 11.8972 24.8948 -21.3562 12.2743 
33.2685 -19.2823 11.8972 41.6422 -15.3649 11.8972 -48.1804 -12.9825 11.8972 
-50.4683 -8.25083 11.8972 -42.0946 -12.9825 15.6863 -33.7209 -12.9825 18.3975 
-25.3472 -12.9825 19.6808 16.5212 -12.9825 19.0352 24.8948 -12.9825 14.5541 
33.2685 -12.9825 14.3571 44.4046 -12.9825 11.8972 41.6422 -12.9825 12.9748 
50.0159 -7.48037 11.8972 -51.8331 -4.60884 11.8972 -50.4683 -4.60884 13.0339 
-42.0946 -4.60884 17.3871 -33.7209 -4.60884 19.3401 -25.3472 -4.60884 20.1501 
[...]
POINT_DATA 526
SCALARS ImageScalars float
LOOKUP_TABLE default
0 0 0 0 0 0 0 0 0 
0 0 0 0 0 0 0 0 0 
0 0 0 0 0 0 0 0 0 
0 0 0 0 0 0 0 0 0 
0 0 0 0 0 0 0 0 0 
0 0 0 0 0 0 0 0 0 
0 0 0 0 0 0 0 0 0 
0 0 0 0 0 0 0 0 0 
0 0 0 0 0 0 0 0 0 
0 0 0 0 0 0 0 0 0 
0 0 0 0 0 0 0 0 0 
0 0 0 0 0 0 0 0 0 
0 0 0 0 0 0 0 0 0 
0 0 0 0 0 0 0 0 0 
0 0 0 0 0 0 0 0 0 
0 0 0 0 0 0 0 0 0 
0 0 0 0 0 0 0 0 0 
0 0 0 0 0 0 0 0 0 
0 0 0 0 0 0 0 0 0 
0 0 0 0 0 0 0 0 0 
0 0 0 0 0 0 0 0 0 
0 0 0 0 0 0 0 0 0 
0 0 0 0 0 0 0 0 0 
0 0 0 0 0 0 0 0 0 
0 0 0 0 0 0 0 0 0 
0 0 0 0 0 0 0 0 0 
0 0 0 0 0 0 0 0 0 
0 0 0 0 0 0 0 0 0 
0 0 0 0 0 0 0 0 0 
0 0 0 0 0 0 0 0 0 
0 0 0 0 0 0 0 0 0 
0 0 0 0 0 0 0 0 0 
0 0 0 0 0 0 0 0 0 
0 0 0 0 0 0 0 0 0 
0 0 0 0 0 0 0 0 0 
0 0 0 0 0 0 0 0 0 
0 0 0 0 0 0 0 0 0 
0 0 0 0 0 0 0 0 0 
0 0 0 0 0 0 0 0 0 
0 0 0 0 0 0 0 0 0 
0 0 0 0 0 0 0 0 0 
0 0 0 0 0 0 0 0 0 
0 0 0 0 0 0 0 0 0 
0 0 0 0 0 0 0 0 0 
0 0 0 0 0 0 0 0 0 
0 0 0 0 0 0 0 0 0 
0 0 0 0 0 0 0 0 0 
0 0 0 0 0 0 0 0 0 
0 0 0 0 0 0 0 0 0 
0 0 0 0 0 0 0 0 0 
0 0 0 0 0 0 0 0 0 
0 0 0 0 0 0 0 0 0 
0 0 0 0 0 0 0 0 0 
0 0 0 0 0 0 0 0 0 
0 0 0 0 0 0 0 0 0 
0 0 0 0 0 0 0 0 0 
0 0 0 0 0 0 0 0 0 
0 0 0 0 0 0 0 0 0 
0 0 0 0 
NORMALS Normals float
0.381455 0.699091 0.604785 0.151467 0.597907 0.787124 -0.0833666 0.506079 0.858448 
-0.241537 0.532304 0.811365 0.494271 0.47486 0.728151 0.204484 0.353555 0.91279 
0.0713174 0.200788 0.977035 -0.0807276 0.178595 0.980605 -0.221668 0.21347 0.951469 
-0.301757 0.241849 0.9222 -0.284934 0.371972 0.88343 0.63075 0.39439 0.668289 
0.341552 0.199953 0.918347 0.124503 0.11304 0.985759 -0.0400782 0.00435801 0.999187 
-0.0796579 -0.0424113 0.99592 -0.195997 -0.0261053 0.980257 -0.249329 0.0363445 0.967737 
-0.0671744 0.169673 0.983208 0.0633501 0.337072 0.939345 -0.120418 0.412068 0.903161 
-0.255599 0.550868 0.794489 0.438546 0.193126 0.877713 0.189048 0.07049 0.979434 
0.0110277 -0.0655287 0.99779 -0.083258 -0.0917419 0.992296 -0.115399 -0.177297 0.977368 
-0.134848 -0.0819979 0.987468 -0.12256 0.0716727 0.98987 0.0206821 0.126422 0.991761 
0.095745 0.156507 0.983025 0.0566092 0.20343 0.977452 -0.167827 0.365725 0.915467 
-0.429753 0.315943 0.845868 0.617793 0.240695 0.748597 0.320996 0.0952786 0.942276 
0.107133 -0.00212773 0.994242 -0.0374633 -0.066522 0.997081 -0.146915 -0.0588278 0.987398 
-0.0745273 0.0670097 0.994965 0.0578282 0.0254242 0.998003 -0.0431563 0.240561 0.969674 
0.02177 0.175211 0.98429 0.137115 0.149607 0.979192 0.0550421 0.158856 0.985766 
-0.115394 0.120093 0.986033 -0.391712 0.200167 0.898051 0.542835 0.119403 0.831308 
0.233947 0.0450489 0.971205 0.0435761 0.0125176 0.998972 -0.0434042 -0.02362 0.998778 
0.0467393 -0.0199912 0.998707 -0.0264104 0.198458 0.979754 0.0162399 0.0540424 0.998407 
0.0253144 0.106469 0.993994 -0.0474266 0.145054 0.988286 0.0857466 0.0937679 0.991895 
0.0485022 0.0595778 0.997045 -0.112952 0.0505184 0.992315 -0.339036 0.0475437 0.939571 
-0.754289 0.0294457 0.655881 0.504365 -0.00984846 0.863434 0.228229 0.00340095 0.973602 
0.0389566 0.0222333 0.998994 -0.0707277 0.0352641 0.996872 0.0568463 0.0227772 0.998123 
0.0122596 -0.0842122 0.996372 -5.45332e-05 0.0787082 0.996898 0.0470047 0.0158507 0.998769 
-0.0232009 0.0828795 0.996289 0.0523502 0.0367762 0.997951 0.00433826 -0.0197824 0.999795 
-0.135034 -0.0780984 0.987758 -0.362886 -0.11508 0.9247 0.566123 -0.164616 0.807717 
0.258783 -0.0428474 0.964985 0.0747285 -0.00213333 0.997202 -0.043077 0.0357869 0.998431 
-0.0581693 0.0628996 0.996323 0.0237679 -0.0676681 0.997425 0.103152 0.0211289 0.994441 
0.0323776 -0.0587836 0.997746 -0.0281279 0.0348937 0.998995 -0.0156979 0.00299297 0.999872 
-0.066137 -0.0615508 0.99591 -0.203021 -0.14496 0.968385 -0.455294 -0.284664 0.843608 
0.359852 -0.215947 0.907675 0.116195 -0.120155 0.985932 -0.00599401 -0.0691662 0.997587 
-0.0458964 -0.0116886 0.998878 -0.0337778 0.0294335 0.998996 0.0123258 -0.0167597 0.999784 
0.0626103 -0.0877017 0.994177 0.0363301 -0.0696706 0.996908 -0.0441347 -0.0805343 0.995774 
-0.152255 -0.138484 0.978591 -0.350036 -0.314435 0.882386 0.431847 -0.463833 0.773542 
0.211738 -0.357806 0.909474 0.0717365 -0.265598 0.961411 0.0438809 -0.175608 0.983482 
0.0201298 -0.101024 0.99468 -0.0167214 -0.0783457 0.996786 -0.0195689 -0.12086 0.992477 
-0.0236183 -0.205884 0.978291 -0.0865322 -0.262931 0.960926 -0.287568 -0.37657 0.880625 
-0.497841 -0.503137 0.706405 0.197528 -0.5093 0.837613 0.118522 -0.42996 0.895035 
0.0642781 -0.367561 0.927775 0.00253464 -0.335111 0.942175 -0.0634052 -0.351627 0.93399 
-0.125706 -0.433415 0.892384 -0.240678 -0.546077 0.802418 -0.0118561 -0.685933 0.727568 
0.393962 0.741206 0.543514 0.174642 0.807192 0.563862 -0.0508102 0.757114 0.651304 
0.0725579 0.985713 0.152005 -0.221681 0.663497 0.714584 0.428633 0.730183 0.532077 
0.557821 0.645426 0.521786 -0.333257 0.556815 0.760853 -0.353989 0.518319 0.778484 
-0.364142 0.577273 0.73086 -0.285187 0.372959 0.882933 -0.452287 0.775831 0.439912 
0.639091 0.558494 0.528816 0.684651 0.466287 0.560205 -0.284 0.373662 0.883018 
-0.104922 0.464698 0.879231 -0.248363 0.618019 0.745901 -0.150352 0.658144 0.737727 
-0.337254 0.907264 0.251261 -0.277282 0.61397 0.739024 0.69391 0.427785 0.579214 
-0.400786 0.609851 0.683705 -0.520791 0.548718 0.653977 -0.646926 0.743702 0.168506 
0.681309 0.325987 0.655401 0.666664 0.287115 0.68784 0.816083 0.427204 0.389236 
-0.613045 0.385497 0.689615 0.658918 0.261781 0.705194 -0.724461 0.17702 0.666198 
-0.770027 0.0691538 0.634252 -0.856278 0.209065 0.472314 0.70173 0.12956 0.700564 
-0.774016 0.0292841 0.632488 -0.766662 -0.0520302 0.63994 0.710631 -0.016667 0.703368 
0.986899 -0.0427189 0.155583 -0.738621 -0.147503 0.657786 -0.791436 -0.156742 0.590814 
0.706892 -0.193666 0.680292 0.649385 -0.309587 0.69459 -0.681942 -0.322676 0.65638 
-0.581008 -0.442749 0.682937 -0.8829 -0.386334 0.266895 0.647927 -0.311949 0.694894 
0.653038 -0.313531 0.689377 -0.573716 -0.449535 0.684666 -0.603313 -0.465052 0.647874 
0.545968 -0.491217 0.678694 0.79675 -0.562653 0.220477 0.464082 -0.540848 0.701506 
0.342519 -0.616327 0.7091 -0.381425 -0.612831 0.692064 -0.512976 -0.513487 0.687886 
-0.506202 -0.520525 0.687615 0.583311 -0.710108 0.394329 0.338306 -0.617314 0.710262 
0.348021 -0.625877 0.697968 0.23106 -0.628972 0.742297 0.176752 -0.63585 0.751302 
0.123109 -0.686094 0.717021 -0.123553 -0.70368 0.699692 -0.195061 -0.660103 0.725407 
-0.356859 -0.627846 0.691709 -0.274601 -0.658548 0.700649 -0.415253 -0.678098 0.606422 
0.291319 -0.87189 0.393625 0.203185 -0.787475 0.581893 0.0671478 -0.698112 0.712833 
0.124694 -0.713579 0.689388 -0.0613368 -0.70845 0.70309 -0.0115747 -0.701957 0.712126 
-0.131606 -0.754774 0.642647 -0.22287 -0.851662 0.474343 0.0816174 0.990578 0.109972 
0.424102 0.90494 0.0349297 0.1134 0.988084 0.104067 0.277579 0.957306 0.0807204 
-0.05524 0.985147 0.162583 0.0929226 0.995646 0.0073586 -0.165778 0.964399 0.206042 
-0.356128 0.890285 0.28384 -0.468999 0.821659 0.323908 0.565069 0.824696 0.0239424 
0.622124 0.782688 0.0189819 -0.473089 0.834835 0.281489 -0.451441 0.8758 0.170809 
-0.390505 0.91419 0.108454 0.755703 0.654451 0.024647 0.776131 0.629918 0.0287094 
-0.408896 0.910862 0.05599 -0.438103 0.867186 -0.236757 -0.467781 0.883764 -0.011882 
-0.64624 0.756412 -0.101064 0.820539 0.569582 0.0478784 0.849906 0.517065 0.101511 
-0.674409 0.72978 -0.112221 -0.659134 0.71937 -0.2192 0.87128 0.472693 0.132033 
-0.856868 0.509793 -0.0767395 -0.876944 0.475779 -0.0678404 0.933163 0.332062 0.137628 
-0.964395 0.263943 0.0166474 -0.805466 0.339104 -0.486038 0.976095 0.160332 0.146741 
0.98976 -0.00206443 0.142725 -0.995434 0.0683355 0.0666422 0.988886 -0.0433062 0.142228 
0.988219 -0.0570523 0.142018 0.995562 -0.0406932 0.0848541 -0.978954 -0.179978 0.0962105 
0.965377 -0.214428 0.148552 -0.913774 -0.392577 0.104404 -0.892892 -0.434961 0.11642 
-0.900312 -0.329475 -0.284403 0.912834 -0.369025 0.174795 -0.818703 -0.546474 0.176326 
-0.747736 -0.639088 0.180159 0.803522 -0.563513 0.191849 0.797904 -0.570709 0.194014 
-0.718966 -0.669727 0.185886 -0.631657 -0.750016 0.196177 0.628109 -0.714445 0.308299 
0.593634 -0.742602 0.310065 0.398025 -0.849393 0.346566 -0.354735 -0.910571 0.212187 
-0.594578 -0.778689 0.2003 -0.498209 -0.840622 0.212468 0.326213 -0.887693 0.324939 
0.295367 -0.900345 0.31959 0.199255 -0.933438 0.298313 0.0808971 -0.958546 0.273213 
-0.0328864 -0.977389 0.208878 -0.142729 -0.967998 0.206416 -0.354097 -0.910833 0.212127 
-0.227484 -0.950568 0.211358 0.47938 0.816921 -0.320679 0.288224 0.916081 -0.278787 
0.117539 0.951787 -0.283347 -0.0768505 0.97684 -0.199696 -0.318682 0.935277 -0.153945 
-0.574062 0.787086 -0.225716 0.53662 0.775888 -0.331718 0.611385 0.69852 -0.371858 
0.480987 0.746009 -0.460567 -0.595712 0.755792 -0.271856 -0.599053 0.709065 -0.371971 
-0.546642 0.691246 -0.472611 0.688628 0.621641 -0.373301 0.725196 0.578218 -0.373837 
0.582069 0.555967 -0.593376 -0.467021 0.686142 -0.557764 -0.541643 0.565565 -0.621899 
-0.407686 0.670682 -0.619659 -0.396472 0.657621 -0.640581 0.744296 0.556069 -0.369879 
0.782781 0.524698 -0.334584 0.669205 0.501746 -0.548101 -0.367956 0.288471 -0.883964 
-0.293117 0.463663 -0.836121 -0.46192 0.60169 -0.651612 -0.393784 0.572002 -0.719547 
-0.564083 0.52441 -0.637812 0.794498 0.509 -0.331198 0.762998 0.501745 -0.407537 
-0.175204 0.297251 -0.938587 -0.25835 0.411211 -0.874163 -0.635909 0.50387 -0.584581 
-0.468414 0.484502 -0.738814 0.884562 0.348772 -0.309691 0.674767 0.307077 -0.671114 
-0.759887 0.340585 -0.55369 -0.457832 0.349231 -0.817574 -0.783461 0.316204 -0.534981 
0.940772 0.1662 -0.295508 -0.879146 0.129334 -0.458666 -0.786419 0.15532 -0.597847 
0.9588 -0.0215263 -0.283266 -0.900239 -0.128366 -0.416044 -0.890156 -0.305776 -0.337822 
-0.832346 -0.103739 -0.544461 0.940787 -0.20914 -0.266795 -0.888374 -0.316411 -0.332681 
0.904596 -0.335793 -0.262583 0.761602 -0.247819 -0.598789 -0.824232 -0.498762 -0.268101 
-0.767177 -0.60269 -0.219554 -0.723881 -0.39743 -0.563955 0.849938 -0.492796 -0.186431 
0.846414 -0.500199 -0.182712 0.84737 -0.487616 -0.210225 -0.741116 -0.640769 -0.200404 
-0.651191 -0.740003 -0.168362 0.706532 -0.701215 -0.0954472 0.64837 -0.755488 -0.0940924 
0.666429 -0.637083 -0.387295 0.43477 -0.89991 -0.0337326 -0.340887 -0.923761 -0.174533 
-0.610091 -0.775525 -0.162326 -0.500656 -0.84856 -0.171139 0.392578 -0.918945 -0.0377065 
0.262456 -0.963632 -0.0503101 0.225569 -0.865134 -0.447954 0.168067 -0.981216 -0.0946995 
0.0454474 -0.9916 -0.121094 -0.0793649 -0.980156 -0.181647 -0.147274 -0.96994 -0.193718 
-0.332445 -0.926666 -0.175415 -0.229514 -0.955523 -0.185199 -0.20321 -0.88284 -0.423438 
0.279199 0.681686 -0.676278 0.156328 0.754762 -0.6371 -0.0413788 0.795224 -0.604902 
-0.346215 0.713556 -0.609076 0.314525 0.666656 -0.675754 0.432353 0.581761 -0.68893 
0.276124 0.651805 -0.706333 0.158504 0.621042 -0.767583 -0.0337653 0.625881 -0.779187 
-0.448604 0.641128 -0.622663 -0.341437 0.628357 -0.698991 -0.598682 0.468762 -0.649494 
0.49396 0.499944 -0.711378 0.52217 0.43983 -0.730676 0.39158 0.450813 -0.802143 
0.244997 0.350788 -0.903839 0.161073 0.311205 -0.936593 -0.302013 0.336702 -0.891863 
-0.593738 0.379062 -0.70978 -0.589538 0.325859 -0.739095 0.537965 0.39679 -0.743741 
0.508609 0.376642 -0.774246 0.470896 0.338539 -0.814646 0.301615 0.220729 -0.927527 
0.176552 0.140752 -0.974176 -0.408486 0.212027 -0.887797 -0.550017 0.106343 -0.828355 
-0.263695 0.217267 -0.939819 0.509265 0.370529 -0.776761 0.481733 0.357862 -0.799918 
0.338352 0.232329 -0.911889 0.207816 0.10742 -0.972252 0.0871493 0.071483 -0.993627 
-0.573885 0.160249 -0.803104 -0.218773 0.229106 -0.948498 -0.245659 0.202957 -0.947871 
-0.1493 0.309233 -0.939194 -0.251915 0.387456 -0.886801 0.567708 0.289154 -0.770777 
0.619216 0.219457 -0.75393 0.393419 0.257865 -0.882455 0.220089 0.171851 -0.960223 
0.131916 0.0752974 -0.988397 -0.538296 0.343978 -0.769361 -0.199605 0.396933 -0.895881 
-0.0854915 0.387139 -0.918049 -0.313578 0.372781 -0.873329 -0.248809 0.37809 -0.891707 
-0.446555 0.278911 -0.850175 0.652511 0.161149 -0.740446 0.604643 0.160516 -0.780155 
0.33632 0.127568 -0.933068 0.155897 0.0907841 -0.983593 0.149211 0.0694735 -0.986362 
-0.280774 0.425074 -0.86051 -0.17503 0.365368 -0.91426 -0.274108 0.300998 -0.913381 
-0.502168 0.224104 -0.835227 -0.447891 0.236412 -0.862266 0.684018 -0.00336244 -0.729457 
0.608953 -0.000112766 -0.793207 0.333155 0.0348479 -0.942228 0.162342 0.0708159 -0.98419 
-0.361014 0.126535 -0.923936 -0.622599 -0.00637857 -0.782515 -0.544138 0.0346457 -0.83828 
0.686402 -0.134077 -0.714756 0.712955 -0.195541 -0.673394 0.645357 -0.117055 -0.75486 
0.395352 -0.0104622 -0.91847 -0.407978 -0.0664647 -0.910569 -0.670478 -0.18393 -0.718769 
-0.674948 -0.282873 -0.68149 -0.620959 -0.158371 -0.767677 0.723283 -0.228986 -0.65148 
0.474876 -0.0976733 -0.874616 -0.67032 -0.356496 -0.650832 -0.489519 -0.266791 -0.830177 
0.714553 -0.354144 -0.603322 0.652579 -0.539429 -0.532125 0.608445 -0.313317 -0.729127 
0.320082 -0.195039 -0.927096 -0.408436 -0.407906 -0.816574 -0.609683 -0.515772 -0.601885 
-0.599197 -0.534057 -0.596445 -0.5899 -0.502744 -0.631875 0.622367 -0.592649 -0.511299 
0.435905 -0.764335 -0.475162 0.402345 -0.506548 -0.76258 0.225509 -0.864903 -0.448428 
0.186421 -0.451513 -0.872572 -0.080315 -0.431503 -0.898529 -0.0833912 -0.472274 -0.877498 
-0.179549 -0.805956 -0.56409 -0.118934 -0.55799 -0.82128 -0.308341 -0.779512 -0.54524 
-0.273926 -0.6154 -0.739085 -0.462762 -0.691412 -0.554798 -0.459727 -0.693405 -0.554833 
-0.458945 -0.69011 -0.55957 0.225271 -0.864973 -0.448414 0.102768 -0.879534 -0.464607 
0.0887477 -0.826599 -0.55575 -0.0186075 -0.829332 -0.558446 -0.0363559 -0.763661 -0.644593 
-0.0941369 -0.811652 -0.576506 -0.091763 -0.775355 -0.624824 -0.127008 -0.808949 -0.573995 
-0.123501 -0.808355 -0.575595 -0.12301 -0.805591 -0.579561 -0.00511351 0.267584 -0.963521 
0.0143958 0.263765 -0.964479 0.130773 0.162428 -0.978016 -0.0352763 0.266591 -0.963164 
-0.00488915 0.257961 -0.966143 -0.295027 0.224185 -0.928816 0.13912 0.0940281 -0.985801 
0.104565 0.0507003 -0.993225 0.00290845 0.0582715 -0.998297 -0.334969 0.148509 -0.930452 
-0.284721 0.14806 -0.947107 0.0755164 0.0557677 -0.995584 0.096137 0.0790292 -0.992226 
0.0712479 0.050111 -0.996199 0.0918742 0.0334895 -0.995207 -0.368444 0.184793 -0.911098 
-0.19192 0.168135 -0.966901 0.127652 0.0904623 -0.987685 0.128959 0.107179 -0.985841 
0.0659543 0.314798 -0.946864 0.112446 0.101932 -0.988416 -0.481053 0.315927 -0.817789 
-0.0855148 0.16817 -0.982042 -0.497807 0.342221 -0.796915 0.162337 0.0697289 -0.984269 
0.143269 0.0750023 -0.986838 0.337524 0.0784158 -0.938045 0.0189307 0.148001 -0.988806 
-0.0528032 0.0516836 -0.997267 0.0328939 0.0299399 -0.99901 -0.292928 0.406261 -0.865532 
-0.293697 0.260242 -0.919791 -0.272816 0.3791 -0.884226 -0.213801 0.237366 -0.9476 
0.147161 0.0803869 -0.985841 0.191083 0.0655274 -0.979384 0.11184 0.102955 -0.988378 
0.225184 0.0365167 -0.973632 0.0378678 -0.0699515 -0.996831 -0.0234312 0.0876865 -0.995872 
0.0983634 -0.00334183 -0.995145 -0.103787 0.0433552 -0.993654 -0.200451 0.191422 -0.960821 
-0.262 0.173523 -0.94934 -0.219524 0.191901 -0.956548 0.230608 0.0561182 -0.971427 
0.216091 0.0601385 -0.974519 0.132092 0.106051 -0.985548 0.143732 0.102098 -0.984336 
0.0970689 -0.0256951 -0.994946 0.0149544 0.0708454 -0.997375 -0.0117791 -0.029196 -0.999504 
-0.0772041 -0.038642 -0.996266 -0.153785 0.0194693 -0.987913 -0.320926 -0.0184944 -0.946924 
-0.266613 0.0111835 -0.963739 0.309023 -0.0347253 -0.950421 0.306444 -0.163569 -0.93773 
0.252747 -0.0196197 -0.967333 0.157611 0.0294272 -0.987063 0.0915975 0.0404601 -0.994974 
0.0136373 -0.0662437 -0.99771 -0.0257105 -0.108627 -0.99375 -0.014546 -0.129913 -0.991419 
-0.0545131 -0.117388 -0.991589 -0.152848 -0.109361 -0.98218 -0.337375 -0.180203 -0.923962 
-0.333698 -0.244375 -0.910454 -0.295775 -0.160043 -0.941756 0.308263 -0.190314 -0.93207 
0.186713 -0.399369 -0.897576 0.192704 -0.146985 -0.970186 0.0416955 -0.159044 -0.986391 
-0.05398 -0.20029 -0.978248 -0.0774276 -0.408409 -0.909509 -0.0483231 -0.227065 -0.97268 
-0.0598871 -0.39421 -0.917067 -0.0177573 -0.255248 -0.966713 -0.0802409 -0.423279 -0.902439 
-0.0526089 -0.276548 -0.959559 -0.286579 -0.338182 -0.896385 -0.21939 -0.379122 -0.898963 
-0.201091 -0.297083 -0.933437 0.132016 -0.434391 -0.890998 0.0493339 -0.458325 -0.887415 
0.0446417 -0.41594 -0.908296 -0.0703172 -0.423743 -0.903049 -0.0520215 -0.441487 -0.895758 
-0.0501585 -0.41489 -0.908488 
