# vtk DataFile Version 4.2
vtk output
ASCII
DATASET POLYDATA
POINTS 512 float
-8.5907 -34.5198 -19.5697 -1.44163 -34.5198 -20.2264 5.70744 -34.5198 -18.9434 
-22.8888 -27.3707 -19.6683 -15.7398 -27.3707 -21.9719 -8.5907 -27.3707 -23.6687 
-1.44163 -27.3707 -24.0017 5.70744 -27.3707 -23.7313 12.8565 -27.3707 -22.0487 
20.0056 -27.3707 -18.7447 -30.0379 -20.2216 -18.8199 -22.8888 -20.2216 -21.85 
-15.7398 -20.2216 -23.0931 -8.5907 -20.2216 -23.8564 -1.44163 -20.2216 -24.7762 
5.70744 -20.2216 -24.9184 12.8565 -20.2216 -24.1941 20.0056 -20.2216 -22.2953 
27.1546 -20.2216 -19.442 -30.0379 -13.0725 -20.6103 -22.8888 -13.0725 -22.2892 
-15.7398 -13.0725 -22.783 -8.5907 -13.0725 -22.8597 -1.44163 -13.0725 -23.3812 
5.70744 -13.0725 -23.8296 12.8565 -13.0725 -23.773 20.0056 -13.0725 -22.7308 
27.1546 -13.0725 -20.8907 -30.0379 -5.92347 -21.298 -22.8888 -5.92347 -22.378 
-15.7398 -5.92347 -22.3612 -8.5907 -5.92347 -22.2605 -1.44163 -5.92347 -22.3298 
5.70744 -5.92347 -22.2397 12.8565 -5.92347 -21.9463 20.0056 -5.92347 -21.6953 
27.1546 -5.92347 -20.6564 34.3037 -5.92347 -18.2095 -37.187 1.2256 -18.6723 
-30.0379 1.2256 -21.9004 -22.8888 1.2256 -22.7607 -15.7398 1.2256 -22.5296 
-8.5907 1.2256 -22.6368 -1.44163 1.2256 -23.2581 5.70744 1.2256 -22.2022 
12.8565 1.2256 -20.7938 20.0056 1.2256 -20.759 27.1546 1.2256 -19.9871 
34.3037 1.2256 -17.8735 -37.187 8.37467 -18.494 -30.0379 8.37467 -21.8216 
-22.8888 8.37467 -22.8377 -15.7398 8.37467 -22.5955 -8.5907 8.37467 -21.8332 
-1.44163 8.37467 -21.8347 5.70744 8.37467 -21.7744 12.8565 8.37467 -20.6582 
20.0056 8.37467 -20.0893 27.1546 8.37467 -19.4573 -30.0379 15.5237 -21.1465 
-22.8888 15.5237 -22.9884 -15.7398 15.5237 -23.1334 -8.5907 15.5237 -22.7074 
-1.44163 15.5237 -22.4239 5.70744 15.5237 -21.8545 12.8565 15.5237 -20.7112 
20.0056 15.5237 -19.5976 27.1546 15.5237 -18.0492 -30.0379 22.6728 -19.002 
-22.8888 22.6728 -21.7506 -15.7398 22.6728 -23.312 -8.5907 22.6728 -23.2757 
-1.44163 22.6728 -23.2422 5.70744 22.6728 -22.0299 12.8565 22.6728 -20.1969 
20.0056 22.6728 -18.3003 -22.8888 29.8219 -18.8823 -15.7398 29.8219 -21.3488 
-8.5907 29.8219 -21.9471 -1.44163 29.8219 -21.6608 5.70744 29.8219 -20.2381 
12.8565 29.8219 -18.2995 -8.5907 -36.2654 -17.7862 -1.44163 -36.7698 -17.7862 
5.70744 -35.5309 -17.7862 -22.8888 -30.1041 -17.7862 -22.8888 -34.5198 -12.3917 
-14.9128 -34.5198 -17.7862 -15.7398 -34.2061 -17.7862 -15.7398 -34.5198 -17.4416 
8.36041 -34.5198 -17.7862 12.8565 -32.5021 -17.7862 12.8565 -34.5198 -14.7239 
20.0056 -28.4115 -17.7862 -26.1911 -27.3707 -17.7862 -30.0379 -22.5456 -17.7862 
-30.0379 -27.3707 -13.9967 21.6157 -27.3707 -17.7862 27.1546 -22.8502 -17.7862 
27.1546 -27.3707 -12.7717 -31.4801 -20.2216 -17.7862 29.9199 -20.2216 -17.7862 
34.3037 -20.2216 -13.3132 -34.3681 -13.0725 -17.7862 -37.187 -13.0725 -15.0295 
33.5222 -13.0725 -17.7862 34.3037 -9.59651 -17.7862 34.3037 -13.0725 -17.2613 
-36.9955 -5.92347 -17.7862 -37.187 -5.13392 -17.7862 -37.187 -5.92347 -17.6396 
34.9492 -5.92347 -17.7862 41.4528 -5.92347 -11.1439 -38.2909 1.2256 -17.7862 
34.4465 1.2256 -17.7862 34.3037 1.89459 -17.7862 41.4528 1.2256 -11.5733 
-38.0582 8.37467 -17.7862 -37.187 11.9524 -17.7862 32.0493 8.37467 -17.7862 
34.3037 8.37467 -16.8423 -35.9535 15.5237 -17.7862 -37.187 15.5237 -16.7425 
27.8311 15.5237 -17.7862 27.1546 16.5122 -17.7862 34.3037 15.5237 -14.8683 
-31.7428 22.6728 -17.7862 -37.187 22.6728 -10.8328 -30.0379 24.8484 -17.7862 
21.6896 22.6728 -17.7862 20.0056 23.9416 -17.7862 27.1546 22.6728 -15.9457 
34.3037 22.6728 -10.9291 -24.8644 29.8219 -17.7862 -30.0379 29.8219 -12.6791 
-22.8888 31.2476 -17.7862 -15.7398 34.3878 -17.7862 -8.5907 35.7054 -17.7862 
-1.44163 35.3056 -17.7862 5.70744 33.4156 -17.7862 14.1038 29.8219 -17.7862 
12.8565 30.5684 -17.7862 20.0056 29.8219 -14.8473 -15.7398 36.971 -13.9372 
-8.5907 36.971 -15.9346 -1.44163 36.971 -15.5446 5.70744 36.971 -13.6548 
12.8565 36.971 -10.6823 -22.8888 -35.4914 -10.6371 -15.7398 -38.6201 -10.6371 
-8.5907 -40.2031 -10.6371 -1.44163 -40.4437 -10.6371 5.70744 -39.2046 -10.6371 
12.8565 -36.635 -10.6371 -24.3596 -34.5198 -10.6371 -30.0379 -29.7825 -10.6371 
17.2431 -34.5198 -10.6371 20.0056 -33.1012 -10.6371 20.0056 -34.5198 -5.21156 
27.1546 -28.7615 -10.6371 -32.3119 -27.3707 -10.6371 28.9811 -27.3707 -10.6371 
34.3037 -22.4218 -10.6371 -36.9837 -20.2216 -10.6371 -37.187 -19.781 -10.6371 
-37.187 -20.2216 -9.3545 36.0879 -20.2216 -10.6371 -40.0687 -13.0725 -10.6371 
40.1753 -13.0725 -10.6371 41.4528 -7.55548 -10.6371 41.4528 -13.0725 -6.06199 
-42.2755 -5.92347 -10.6371 41.7956 -5.92347 -10.6371 -43.4644 1.2256 -10.6371 
-44.3361 1.2256 -4.97848 42.1384 1.2256 -10.6371 41.4528 7.22755 -10.6371 
-43.1841 8.37467 -10.6371 41.2975 8.37467 -10.6371 41.4528 8.37467 -10.3045 
-41.2312 15.5237 -10.6371 39.0075 15.5237 -10.6371 41.4528 15.5237 -4.64186 
-37.306 22.6728 -10.6371 -37.187 22.8386 -10.6371 27.1546 29.6544 -10.6371 
34.5863 22.6728 -10.6371 34.3037 23.0215 -10.6371 -31.4285 29.8219 -10.6371 
-30.0379 31.0935 -10.6371 -22.8888 35.9808 -10.6371 26.9207 29.8219 -10.6371 
20.0056 33.974 -10.6371 27.1546 29.8219 -10.3393 -20.3353 36.971 -10.6371 
-15.7398 38.5693 -10.6371 -8.5907 39.5072 -10.6371 -1.44163 39.5062 -10.6371 
5.70744 38.7246 -10.6371 12.9354 36.971 -10.6371 12.8565 37 -10.6371 
-22.8888 -36.5594 -3.48804 -15.7398 -39.9912 -3.48804 -8.5907 -41.4928 -3.48804 
-1.44163 -41.6519 -3.48804 5.70744 -40.5267 -3.48804 12.8565 -38.2307 -3.48804 
20.0056 -34.9394 -3.48804 -25.9602 -34.5198 -3.48804 -30.0379 -31.1121 -3.48804 
20.7828 -34.5198 -3.48804 27.1546 -30.6631 -3.48804 -33.4252 -27.3707 -3.48804 
-37.187 -21.6814 -3.48804 31.3139 -27.3707 -3.48804 34.3037 -24.5427 -3.48804 
-38.051 -20.2216 -3.48804 -37.187 -20.2216 0.897614 37.8152 -20.2216 -3.48804 
41.4528 -14.2354 -3.48804 -41.1879 -13.0725 -3.48804 42.0518 -13.0725 -3.48804 
-43.3767 -5.92347 -3.48804 -44.3361 -0.0779125 -3.48804 43.9971 -5.92347 -3.48804 
-44.547 1.2256 -3.48804 -44.3361 5.61868 -3.48804 -44.3361 1.2256 -2.06156 
44.563 1.2256 -3.48804 -44.2009 8.37467 -3.48804 43.8764 8.37467 -3.48804 
-42.2757 15.5237 -3.48804 41.832 15.5237 -3.48804 41.4528 16.2851 -3.48804 
-38.5078 22.6728 -3.48804 -37.187 24.517 -3.48804 37.8352 22.6728 -3.48804 
34.3037 26.8604 -3.48804 -32.6493 29.8219 -3.48804 -30.0379 32.1413 -3.48804 
-22.8888 36.6685 -3.48804 20.0056 36.7602 -3.48804 31.1039 29.8219 -3.48804 
27.1546 32.7288 -3.48804 -22.1293 36.971 -3.48804 -15.7398 39.2175 -3.48804 
-8.5907 40.5577 -3.48804 -1.44163 40.9579 -3.48804 5.70744 40.6076 -3.48804 
19.4428 36.971 -3.48804 12.8565 39.2798 -3.48804 -22.8888 -35.261 3.66103 
-15.7398 -38.9392 3.66103 -8.5907 -40.8574 3.66103 -1.44163 -41.2234 3.66103 
5.70744 -40.2919 3.66103 12.8565 -38.2213 3.66103 20.0056 -34.9677 3.66103 
-23.9455 -34.5198 3.66103 -30.0379 -29.2422 3.66103 -22.8888 -34.5198 5.05757 
20.7971 -34.5198 3.66103 20.0056 -34.5198 5.80714 27.1546 -30.4305 3.66103 
-31.7312 -27.3707 3.66103 -30.0379 -27.3707 6.25884 30.8222 -27.3707 3.66103 
34.3037 -23.9079 3.66103 -36.5921 -20.2216 3.66103 -37.187 -19.068 3.66103 
37.2722 -20.2216 3.66103 41.4528 -13.423 3.66103 -39.9288 -13.0725 3.66103 
-37.187 -13.0725 9.31221 41.6379 -13.0725 3.66103 41.4528 -13.0725 4.24678 
-42.2187 -5.92347 3.66103 43.7479 -5.92347 3.66103 41.4528 -5.92347 10.432 
-43.4431 1.2256 3.66103 44.4328 1.2256 3.66103 -43.1689 8.37467 3.66103 
43.7897 8.37467 3.66103 -41.2823 15.5237 3.66103 41.8398 15.5237 3.66103 
41.4528 16.3233 3.66103 41.4528 15.5237 5.06151 -37.3974 22.6728 3.66103 
-37.187 22.9593 3.66103 -37.187 22.6728 4.13874 37.9424 22.6728 3.66103 
34.3037 27.0495 3.66103 -31.1125 29.8219 3.66103 -30.0379 30.7385 3.66103 
-30.0379 29.8219 5.44003 -22.8888 35.2177 3.66103 20.0056 36.9404 3.66103 
31.3767 29.8219 3.66103 27.1546 32.9812 3.66103 -18.505 36.971 3.66103 
-15.7398 37.9336 3.66103 -15.7398 36.971 5.57566 -8.5907 39.5319 3.66103 
-8.5907 36.971 9.3696 -1.44163 40.5231 3.66103 5.70744 40.5773 3.66103 
19.9213 36.971 3.66103 12.8565 39.3487 3.66103 -15.7398 -35.571 10.8101 
-8.5907 -38.2946 10.8101 -1.44163 -39.3081 10.8101 5.70744 -38.7393 10.8101 
12.8565 -36.8291 10.8101 -17.4675 -34.5198 10.8101 -22.8888 -30.3643 10.8101 
-15.7398 -34.5198 12.1071 -8.5907 -34.5198 16.3126 17.8037 -34.5198 10.8101 
12.8565 -34.5198 16.0463 20.0056 -33.4038 10.8101 27.1546 -28.1385 10.8101 
-26.1279 -27.3707 10.8101 -30.0379 -23.1412 10.8101 -22.8888 -27.3707 13.4246 
27.9996 -27.3707 10.8101 27.1546 -27.3707 11.9975 34.3037 -20.4685 10.8101 
-32.2037 -20.2216 10.8101 -30.0379 -20.2216 13.0202 -22.8888 -20.2216 17.7052 
34.4972 -20.2216 10.8101 34.3037 -20.2216 11.1089 -36.2676 -13.0725 10.8101 
-37.187 -10.8778 10.8101 -30.0379 -13.0725 16.85 38.9356 -13.0725 10.8101 
34.3037 -13.0725 16.5735 -38.9378 -5.92347 10.8101 -37.187 -5.92347 13.041 
41.3046 -5.92347 10.8101 41.4528 -4.81522 10.8101 -40.1415 1.2256 10.8101 
-37.187 1.2256 14.4079 42.1916 1.2256 10.8101 41.4528 1.2256 12.0769 
-40.0102 8.37467 10.8101 -37.187 8.37467 14.229 41.6571 8.37467 10.8101 
41.4528 9.19634 10.8101 41.4528 8.37467 11.1883 -38.1001 15.5237 10.8101 
-37.187 17.2401 10.8101 -37.187 15.5237 12.0272 39.7535 15.5237 10.8101 
-33.5485 22.6728 10.8101 -30.0379 26.3401 10.8101 -30.0379 22.6728 14.2111 
35.8867 22.6728 10.8101 34.3037 24.6875 10.8101 34.3037 22.6728 13.5092 
-24.9828 29.8219 10.8101 -22.8888 31.045 10.8101 -22.8888 29.8219 12.1968 
-15.7398 33.7984 10.8101 -15.7398 29.8219 15.1439 -8.5907 36.1711 10.8101 
-8.5907 29.8219 17.2511 20.0056 35.0319 10.8101 28.9217 29.8219 10.8101 
27.1546 31.1168 10.8101 27.1546 29.8219 13.1488 -5.41719 36.971 10.8101 
-1.44163 37.8398 10.8101 -1.44163 36.971 12.0119 5.70744 38.2894 10.8101 
5.70744 36.971 12.7749 13.993 36.971 10.8101 12.8565 37.3261 10.8101 
12.8565 36.971 11.4177 -1.44163 -35.3845 17.9592 5.70744 -35.4527 17.9592 
-15.7398 -27.6588 17.9592 -4.4614 -34.5198 17.9592 -8.5907 -32.9184 17.9592 
[...]
POINT_DATA 512
SCALARS ImageScalars float
LOOKUP_TABLE default
0 0 0 0 0 0 0 0 0 
0 0 0 0 0 0 0 0 0 
0 0 0 0 0 0 0 0 0 
0 0 0 0 0 0 0 0 0 
0 0 0 0 0 0 0 0 0 
0 0 0 0 0 0 0 0 0 
0 0 0 0 0 0 0 0 0 
0 0 0 0 0 0 0 0 0 
0 0 0 0 0 0 0 0 0 
0 0 0 0 0 0 0 0 0 
0 0 0 0 0 0 0 0 0 
0 0 0 0 0 0 0 0 0 
0 0 0 0 0 0 0 0 0 
0 0 0 0 0 0 0 0 0 
0 0 0 0 0 0 0 0 0 
0 0 0 0 0 0 0 0 0 
0 0 0 0 0 0 0 0 0 
0 0 0 0 0 0 0 0 0 
0 0 0 0 0 0 0 0 0 
0 0 0 0 0 0 0 0 0 
0 0 0 0 0 0 0 0 0 
0 0 0 0 0 0 0 0 0 
0 0 0 0 0 0 0 0 0 
0 0 0 0 0 0 0 0 0 
0 0 0 0 0 0 0 0 0 
0 0 0 0 0 0 0 0 0 
0 0 0 0 0 0 0 0 0 
0 0 0 0 0 0 0 0 0 
0 0 0 0 0 0 0 0 0 
0 0 0 0 0 0 0 0 0 
0 0 0 0 0 0 0 0 0 
0 0 0 0 0 0 0 0 0 
0 0 0 0 0 0 0 0 0 
0 0 0 0 0 0 0 0 0 
0 0 0 0 0 0 0 0 0 
0 0 0 0 0 0 0 0 0 
0 0 0 0 0 0 0 0 0 
0 0 0 0 0 0 0 0 0 
0 0 0 0 0 0 0 0 0 
0 0 0 0 0 0 0 0 0 
0 0 0 0 0 0 0 0 0 
0 0 0 0 0 0 0 0 0 
0 0 0 0 0 0 0 0 0 
0 0 0 0 0 0 0 0 0 
0 0 0 0 0 0 0 0 0 
0 0 0 0 0 0 0 0 0 
0 0 0 0 0 0 0 0 0 
0 0 0 0 0 0 0 0 0 
0 0 0 0 0 0 0 0 0 
0 0 0 0 0 0 0 0 0 
0 0 0 0 0 0 0 0 0 
0 0 0 0 0 0 0 0 0 
0 0 0 0 0 0 0 0 0 
0 0 0 0 0 0 0 0 0 
0 0 0 0 0 0 0 0 0 
0 0 0 0 0 0 0 0 0 
0 0 0 0 0 0 0 0 
NORMALS Normals float
0.148167 0.660323 0.736221 -0.0293231 0.668861 0.742809 -0.225104 0.725428 0.650449 
0.393665 0.440869 0.806636 0.24895 0.318838 0.914531 0.135175 0.236642 0.962148 
0.0035376 0.254713 0.96701 -0.118032 0.325906 0.938005 -0.289645 0.452522 0.843404 
-0.426124 0.574986 0.698433 0.524243 0.298254 0.79763 0.269535 0.160876 0.949458 
0.139368 0.0516173 0.988894 0.117186 -0.0576272 0.991437 0.0738264 -0.0418819 0.996391 
-0.0383681 0.00155071 0.999262 -0.168579 0.096057 0.980996 -0.303563 0.217895 0.927562 
-0.437564 0.364806 0.82186 0.384994 0.160249 0.9089 0.134169 0.0363593 0.990291 
0.0405914 -0.0509098 0.997878 0.0408764 -0.111402 0.992934 0.0677776 -0.17264 0.98265 
0.0269445 -0.1882 0.981761 -0.0761147 -0.156168 0.984793 -0.194271 -0.0451056 0.97991 
-0.337406 0.070801 0.938693 0.290134 0.0842743 0.953268 0.0746108 0.0330783 0.996664 
-0.00812577 -0.017659 0.999811 -0.00221861 -0.0154478 0.999878 -0.0014496 -0.00658875 0.999977 
-0.0266037 -0.112505 0.993295 -0.0379956 -0.203065 0.978428 -0.0869945 -0.134841 0.987041 
-0.23083 -0.0617307 0.971034 -0.473937 0.0299972 0.880047 0.583115 0.0497318 0.810866 
0.254951 0.0361133 0.966279 0.0459891 0.0320779 0.998427 -0.00855983 0.0162651 0.999831 
0.0510357 -0.0302965 0.998237 -0.0283256 -0.0327743 0.999061 -0.174272 -0.032733 0.984153 
-0.0974125 -0.0880612 0.991341 -0.0549331 -0.111259 0.992272 -0.191096 -0.0829057 0.978064 
-0.433384 -0.0834535 0.897337 0.597166 -0.094199 0.796567 0.268738 -0.0462669 0.962102 
0.0553108 0.0154826 0.998349 -0.0708114 0.0405416 0.996665 -0.0519512 0.00210965 0.998647 
-0.00412906 -0.0588214 0.99826 -0.0819929 -0.0235759 0.996354 -0.116731 -0.0058096 0.993147 
-0.0851335 -0.0798255 0.993167 -0.205298 -0.125181 0.970661 0.352688 -0.180228 0.918221 
0.125639 -0.0763252 0.989136 -0.0192212 0.0499232 0.998568 -0.0488007 0.102421 0.993543 
-0.0583161 0.0961864 0.993654 -0.118256 0.0171598 0.992835 -0.155297 -0.0302207 0.987406 
-0.178192 -0.117371 0.976971 -0.283651 -0.22331 0.932563 0.494754 -0.368805 0.786893 
0.265433 -0.24635 0.932125 0.103002 -0.10185 0.989453 -0.00474039 -0.0495645 0.99876 
-0.083964 -0.0466967 0.995374 -0.206194 -0.10285 0.973091 -0.243575 -0.154531 0.957492 
-0.263843 -0.273173 0.925075 0.38348 -0.526897 0.7585 0.19072 -0.433235 0.880871 
0.0169282 -0.378893 0.925286 -0.112902 -0.396851 0.910913 -0.21834 -0.409323 0.885879 
-0.313482 -0.436816 0.843161 0.139225 0.741982 0.655804 -0.0440367 0.779957 0.624281 
-0.229751 0.767296 0.598725 0.422359 0.56288 0.710478 0.470881 0.794077 0.384334 
0.273009 0.689221 0.671149 0.288632 0.67548 0.678541 0.291269 0.697512 0.654706 
-0.277765 0.751443 0.598481 -0.355419 0.698673 0.620913 -0.37018 0.801213 0.470133 
-0.433141 0.618522 0.655606 0.4991 0.493181 0.712511 0.560704 0.372488 0.739502 
0.657795 0.584224 0.475382 -0.448493 0.600568 0.661946 -0.475811 0.485367 0.733501 
-0.541127 0.71686 0.439652 0.576074 0.317979 0.753013 -0.529612 0.410669 0.7422 
-0.710301 0.51433 0.480558 0.590483 0.229959 0.773595 0.76346 0.291792 0.576183 
-0.537567 0.180178 0.823746 -0.522027 0.113689 0.845318 -0.575768 0.202777 0.792068 
0.611379 0.166471 0.77363 0.617017 0.154467 0.771641 0.62414 0.169005 0.762815 
-0.500985 0.0340654 0.864785 -0.866613 0.113767 0.485839 0.632938 0.0515131 0.772487 
-0.439374 -0.0829588 0.894465 -0.435898 -0.0913297 0.89535 -0.835299 -0.0339089 0.54875 
0.636241 -0.10335 0.764537 0.635081 -0.194456 0.747569 -0.376423 -0.1567 0.9131 
-0.472072 -0.171744 0.864669 0.613371 -0.278027 0.739241 0.684652 -0.303207 0.66281 
-0.302158 -0.231323 0.924765 -0.296928 -0.244823 0.922982 -0.537841 -0.31525 0.781885 
0.555819 -0.39813 0.729766 0.782774 -0.531036 0.324447 0.531565 -0.445076 0.720657 
-0.291544 -0.296955 0.909296 -0.286409 -0.31425 0.905106 -0.403433 -0.40214 0.821904 
-0.658075 -0.518345 0.546128 0.439201 -0.561803 0.701056 0.619383 -0.679435 0.393361 
0.393699 -0.595261 0.700475 0.218839 -0.69821 0.681625 0.0439934 -0.740303 0.670832 
-0.105251 -0.712247 0.693993 -0.217853 -0.599645 0.770042 -0.324711 -0.450993 0.831365 
-0.314985 -0.474117 0.82219 -0.391931 -0.560284 0.729707 0.225091 -0.875812 0.42695 
0.0498685 -0.839011 0.541824 -0.0856599 -0.831445 0.548964 -0.183994 -0.835846 0.517211 
-0.27746 -0.853057 0.441939 0.474089 0.827181 0.30168 0.298955 0.899196 0.319489 
0.114458 0.943294 0.311601 -0.0647176 0.953388 0.294724 -0.241469 0.923089 0.299331 
-0.375953 0.869657 0.319932 0.508645 0.806286 0.301967 0.671237 0.676532 0.302894 
-0.416802 0.847826 0.327823 -0.445011 0.828255 0.340528 -0.452432 0.877092 0.161291 
-0.545485 0.762371 0.348191 0.733693 0.608258 0.302847 -0.581249 0.735599 0.347914 
-0.716938 0.60172 0.352041 0.841011 0.439692 0.315233 0.844956 0.431739 0.315675 
0.857602 0.448077 0.252478 -0.759765 0.545017 0.35456 0.885009 0.321785 0.336471 
-0.857483 0.317416 0.404933 -0.879147 0.163351 0.447679 -0.91343 0.359495 0.19081 
0.914306 0.215074 0.343203 -0.878976 0.119229 0.46172 0.939737 0.0591642 0.33674 
0.996312 0.057955 0.0632767 -0.863402 -0.0297648 0.503639 -0.842592 -0.14868 0.517622 
0.933378 -0.14216 0.329539 -0.835078 -0.172062 0.522532 -0.84756 -0.172783 0.501785 
0.881967 -0.338736 0.327706 -0.757436 -0.353777 0.548756 -0.906744 -0.369499 0.203189 
0.786063 -0.531989 0.314791 0.783953 -0.535192 0.314622 -0.500089 -0.692803 0.519554 
-0.667971 -0.522169 0.530239 -0.661905 -0.5303 0.529777 0.65741 -0.694445 0.292505 
0.624972 -0.725438 0.288356 0.429958 -0.864795 0.259357 -0.497421 -0.69585 0.518039 
-0.400644 -0.760784 0.51058 -0.503839 -0.702802 0.502211 0.353055 -0.89961 0.257009 
0.227974 -0.937582 0.262619 0.0601218 -0.956282 0.286199 -0.0507737 -0.9423 0.330898 
-0.157318 -0.907809 0.388759 -0.278461 -0.853502 0.440448 -0.27719 -0.854095 0.440099 
0.502131 0.864718 -0.0112592 0.318748 0.94766 0.0184308 0.107827 0.993262 0.0424834 
-0.0656967 0.996511 0.0514852 -0.225761 0.971724 0.0691705 -0.363466 0.926453 0.097865 
-0.453626 0.884565 0.108477 0.575932 0.817281 -0.018796 0.694718 0.718845 -0.0250712 
-0.465301 0.87872 0.106515 -0.574376 0.813937 0.0871661 0.780742 0.62401 -0.032438 
0.869324 0.493599 -0.0252015 -0.652861 0.754134 0.0710982 -0.730634 0.679916 0.0623572 
0.884248 0.46641 -0.0238142 0.860114 0.471134 -0.195544 -0.813139 0.578895 0.0607032 
-0.909086 0.409227 0.0780722 0.939366 0.342735 -0.0111685 -0.922655 0.376592 0.0829816 
0.97458 0.223956 -0.00605388 0.996206 0.0869278 -0.00408287 -0.97795 0.171225 0.119569 
0.998391 0.0566052 -0.00336795 0.997348 -0.0726241 -0.00473465 0.996752 0.0581802 -0.0556887 
-0.990072 -0.00865594 0.140291 0.988117 -0.153619 -0.00513023 -0.973214 -0.174858 0.149263 
0.93528 -0.353905 -0.00131421 -0.917399 -0.369396 0.148075 -0.909043 -0.389153 0.148996 
0.834084 -0.551636 0.00163087 0.805737 -0.592273 -0.000165863 -0.800717 -0.57597 0.164654 
-0.713982 -0.681453 0.16078 0.687495 -0.726019 -0.0157439 0.621534 -0.783004 -0.0245172 
0.430837 -0.901447 -0.0420998 -0.400142 -0.903041 0.156216 -0.62808 -0.760835 0.163237 
-0.544322 -0.821776 0.168515 0.411292 -0.910553 -0.0416249 0.257015 -0.965523 -0.0413407 
0.121475 -0.992594 0.00127971 0.00318599 -0.997817 0.0659579 -0.112486 -0.986543 0.118662 
-0.388567 -0.908364 0.154568 -0.257156 -0.955725 0.143039 0.521315 0.79904 -0.29961 
0.346149 0.903823 -0.251564 0.145173 0.968804 -0.200859 -0.0392073 0.987051 -0.155541 
-0.197769 0.97315 -0.117753 -0.345222 0.934336 -0.0885319 -0.462828 0.881929 -0.0893972 
0.544506 0.78217 -0.302858 0.685948 0.651531 -0.32401 0.525172 0.773787 -0.354186 
-0.476262 0.874428 -0.0924693 -0.467382 0.871923 -0.145961 -0.599845 0.789868 -0.127648 
0.72203 0.6099 -0.326641 0.674197 0.601568 -0.428455 -0.663675 0.73291 -0.149593 
-0.737464 0.653157 -0.171852 0.827732 0.467864 -0.309779 0.841275 0.447238 -0.303703 
-0.79866 0.575086 -0.177251 -0.898538 0.401577 -0.177104 0.892972 0.348557 -0.284795 
0.796608 0.358659 -0.4866 -0.902584 0.392483 -0.176914 -0.898402 0.392165 -0.197687 
0.935212 0.22516 -0.27328 -0.967319 0.189498 -0.168477 -0.885542 0.189879 -0.423982 
0.959539 0.0623635 -0.274583 -0.988449 0.00190323 -0.15154 0.955332 -0.143368 -0.258431 
-0.97557 -0.16785 -0.141738 0.903827 -0.345947 -0.251829 -0.92344 -0.362309 -0.126459 
-0.915145 -0.383713 -0.123585 -0.918334 -0.356312 -0.172349 0.791449 -0.558843 -0.247593 
0.786862 -0.565146 -0.247908 0.786219 -0.5588 -0.263822 -0.81615 -0.568597 -0.10294 
-0.726548 -0.681264 -0.0894808 0.617301 -0.734949 -0.280695 0.590134 -0.755589 -0.284301 
0.581612 -0.737083 -0.344145 0.42154 -0.852091 -0.310232 -0.394303 -0.912895 -0.105581 
-0.643017 -0.761088 -0.0852878 -0.548339 -0.831881 -0.0854279 0.32873 -0.889821 -0.316474 
0.272234 -0.90884 -0.316068 0.276052 -0.879038 -0.388701 0.172331 -0.948552 -0.265616 
0.219448 -0.848026 -0.482384 0.0696138 -0.978041 -0.19644 -0.078189 -0.986073 -0.146787 
-0.392432 -0.913669 -0.105856 -0.242748 -0.962266 -0.122955 0.402728 0.753212 -0.520079 
0.218661 0.868652 -0.444558 0.0239224 0.932577 -0.360176 -0.157551 0.939573 -0.30394 
-0.329457 0.90164 -0.280185 0.434838 0.723257 -0.536484 0.530241 0.608205 -0.590704 
0.414518 0.712458 -0.566196 0.29949 0.717858 -0.628479 -0.429642 0.858431 -0.280185 
-0.317399 0.825503 -0.466694 -0.481432 0.827352 -0.289332 -0.63143 0.690034 -0.353765 
0.576719 0.552892 -0.60142 0.625262 0.504228 -0.595652 0.52394 0.522473 -0.672688 
-0.644079 0.67513 -0.35967 -0.634438 0.663602 -0.396385 -0.732186 0.547323 -0.405391 
0.667655 0.461214 -0.584395 0.601812 0.455251 -0.656177 0.430221 0.380222 -0.818744 
-0.735189 0.542812 -0.40602 -0.731471 0.540554 -0.415634 0.755427 0.356814 -0.549558 
0.77846 0.315623 -0.542571 0.537485 0.315111 -0.782186 -0.810363 0.378065 -0.447637 
-0.657533 0.332334 -0.676169 0.813997 0.218784 -0.538092 0.755462 0.212103 -0.61991 
-0.877855 0.190061 -0.439598 -0.884581 0.163078 -0.436947 0.833542 0.0645411 -0.548674 
0.725769 0.0564625 -0.685618 -0.905438 0.0201126 -0.424003 -0.882871 0.024728 -0.468964 
0.83148 -0.123042 -0.541758 0.724128 -0.110377 -0.680776 -0.906662 -0.147858 -0.395099 
-0.90422 -0.167501 -0.392849 -0.901343 -0.146239 -0.407669 0.783075 -0.335315 -0.523792 
0.760812 -0.383086 -0.523841 0.751374 -0.330919 -0.570903 -0.868169 -0.329606 -0.371002 
0.65857 -0.536922 -0.527258 0.557905 -0.629463 -0.540849 0.547257 -0.519202 -0.656459 
-0.777392 -0.531985 -0.33564 -0.740483 -0.586155 -0.328796 -0.738748 -0.52071 -0.427917 
0.414912 -0.722293 -0.5533 0.367239 -0.743053 -0.559471 0.359478 -0.713247 -0.601709 
0.277299 -0.764646 -0.58174 0.249985 -0.667329 -0.701555 0.227119 -0.806774 -0.545465 
0.184534 -0.592767 -0.783948 -0.355268 -0.860825 -0.364371 -0.568946 -0.757844 -0.319331 
-0.523811 -0.789587 -0.319647 -0.510171 -0.75568 -0.410698 0.183745 -0.830119 -0.52644 
0.125218 -0.851499 -0.509186 0.129646 -0.81998 -0.557516 -0.0331357 -0.885999 -0.462502 
-0.0158655 -0.836899 -0.547127 -0.226709 -0.889929 -0.395766 -0.202703 -0.89326 -0.401245 
-0.197991 -0.883443 -0.42465 0.120613 0.775055 -0.620276 -0.106134 0.822145 -0.559297 
0.450181 0.441893 -0.775931 0.205901 0.730721 -0.650885 0.325045 0.634534 -0.701222 
0.132017 0.739186 -0.660436 -0.210023 0.806279 -0.552995 -0.1005 0.784033 -0.61253 
-0.31238 0.767918 -0.559214 -0.502434 0.615419 -0.607305 0.452637 0.43665 -0.777468 
0.45058 0.43347 -0.780437 0.344954 0.388153 -0.854602 0.160608 0.374265 -0.913307 
-0.0282942 0.373792 -0.927081 -0.270754 0.441462 -0.855455 -0.542335 0.564962 -0.621844 
-0.494572 0.53133 -0.687814 -0.570153 0.459981 -0.680693 0.424821 0.372136 -0.825252 
0.423471 0.367708 -0.827927 0.374572 0.276866 -0.884896 0.31124 0.161158 -0.936567 
-0.382923 0.258243 -0.88695 -0.579922 0.431806 -0.690821 -0.54563 0.409195 -0.731333 
0.479481 0.293441 -0.827037 0.496997 0.232143 -0.836124 0.354472 0.243191 -0.902889 
0.262875 0.144969 -0.953877 0.188554 0.046717 -0.980951 -0.248313 0.107505 -0.962696 
-0.598847 0.303555 -0.741105 -0.433402 0.235538 -0.869876 -0.620202 0.264518 -0.738498 
0.513991 0.162762 -0.842213 0.463425 0.150409 -0.873278 0.286137 0.0825595 -0.954625 
0.188058 0.0134145 -0.982066 0.136597 -0.0306072 -0.990154 -0.160209 0.0723468 -0.984428 
-0.342941 0.144694 -0.928146 -0.641253 0.201195 -0.740483 -0.585822 0.198643 -0.785719 
0.511001 0.0333325 -0.858933 0.410924 0.028966 -0.911209 0.229473 0.00886908 -0.973275 
0.155455 -0.00778107 -0.987812 0.134106 -0.0234207 -0.99069 0.0819707 -0.100094 -0.991596 
-0.309569 0.058288 -0.949089 -0.68699 0.0556417 -0.724533 -0.577577 0.0684477 -0.813461 
0.518416 -0.0886029 -0.850526 0.437434 -0.0820835 -0.895496 0.239687 -0.0461493 -0.969753 
0.161317 -0.0107363 -0.986844 0.045195 -0.0283835 -0.998575 -0.0486191 -0.125216 -0.990937 
0.0610986 -0.168635 -0.983783 0.133396 -0.100574 -0.985946 -0.299628 -0.0104924 -0.953998 
-0.715214 -0.0946805 -0.692463 -0.605078 -0.0754146 -0.792586 0.477123 -0.26991 -0.836362 
0.469891 -0.284471 -0.835631 0.464875 -0.267209 -0.844092 0.296226 -0.207752 -0.93225 
0.171956 -0.165718 -0.971066 0.0197156 -0.163775 -0.986301 -0.059514 -0.132334 -0.989417 
0.0719855 -0.0861991 -0.993674 0.142614 -0.123826 -0.982002 -0.0301078 -0.155345 -0.987401 
-0.340056 -0.176849 -0.923627 -0.709794 -0.28011 -0.646321 -0.695743 -0.334548 -0.635625 
-0.679025 -0.270319 -0.682534 0.358539 -0.469137 -0.807069 0.337037 -0.48296 -0.80818 
0.334711 -0.462892 -0.820792 0.220706 -0.553995 -0.802732 0.192954 -0.435358 -0.879336 
0.168642 -0.561524 -0.810093 0.0828687 -0.392351 -0.916075 0.0364811 -0.280864 -0.959054 
0.0764015 -0.218263 -0.972895 0.0600196 -0.263389 -0.962821 -0.102428 -0.375237 -0.921252 
-0.598071 -0.497606 -0.62825 -0.468697 -0.61373 -0.635341 -0.419117 -0.467722 -0.778188 
0.156377 -0.553832 -0.817812 0.130035 -0.547462 -0.826666 0.126591 -0.515396 -0.84755 
0.046514 -0.570904 -0.819698 0.0607693 -0.487343 -0.871093 -0.0819107 -0.655856 -0.750429 
-0.0510986 -0.571256 -0.81918 -0.275153 -0.688415 -0.6711 -0.243338 -0.693126 -0.6785 
-0.236796 -0.676008 -0.697812 0.163996 0.192062 -0.967583 -0.0214231 0.264666 -0.964102 
-0.204697 0.177318 -0.96263 0.210101 0.115929 -0.970782 0.164226 0.0964926 -0.981692 
-0.0211143 0.0817634 -0.996428 -0.221858 0.13754 -0.96533 -0.19066 0.115507 -0.974837 
0.125314 -0.00792349 -0.992085 0.0908504 -0.0377527 -0.995149 -0.00471602 -0.0376697 -0.999279 
-0.139254 0.0304207 -0.989789 -0.101741 0.0059422 -0.994793 0.0877841 -0.0430833 -0.995207 
0.0827523 -0.0551983 -0.99504 0.0828413 -0.0442536 -0.99558 0.0264559 -0.0398006 -0.998857 
-0.117689 0.0478581 -0.991897 -0.0551005 0.0117073 -0.998412 -0.136045 0.0498948 -0.989445 
0.0593314 -0.141254 -0.988194 0.0521549 -0.155895 -0.986396 0.0516315 -0.154832 -0.986591 
0.0684711 -0.0822419 -0.994258 0.00903591 -0.0653342 -0.997823 -0.146516 0.0361035 -0.988549 
-0.117858 0.032724 -0.992491 0.00690936 -0.0535176 -0.998543 -0.0747629 -0.032618 -0.996668 
-0.0352095 -0.0818221 -0.996025 -0.0383185 -0.0360908 -0.998614 
