# vtk DataFile Version 4.2
vtk output
ASCII
DATASET POLYDATA
POINTS 508 float
-13.9788 -27.2372 -13.2125 -7.20882 -27.2372 -14.0814 -0.438788 -27.2372 -14.7391 
6.33124 -27.2372 -14.9165 13.1013 -27.2372 -14.5051 19.8713 -27.2372 -13.7715 
-27.5189 -20.4671 -13.5073 -20.7489 -20.4671 -14.7635 -13.9788 -20.4671 -15.1424 
-7.20882 -20.4671 -15.3627 -0.438788 -20.4671 -16.1928 6.33124 -20.4671 -16.4566 
13.1013 -20.4671 -16.4237 19.8713 -20.4671 -16.4557 26.6413 -20.4671 -15.6617 
33.4114 -20.4671 -13.4236 -27.5189 -13.6971 -14.7339 -20.7489 -13.6971 -15.394 
-13.9788 -13.6971 -15.8341 -7.20882 -13.6971 -16.6201 -0.438788 -13.6971 -18.2778 
6.33124 -13.6971 -18.6096 13.1013 -13.6971 -18.1719 19.8713 -13.6971 -18.0764 
26.6413 -13.6971 -17.818 33.4114 -13.6971 -16.6283 40.1814 -13.6971 -13.5234 
-34.2889 -6.92709 -14.2123 -27.5189 -6.92709 -15.5556 -20.7489 -6.92709 -15.27 
-13.9788 -6.92709 -15.8576 -7.20882 -6.92709 -18.0768 -0.438788 -6.92709 -18.3773 
6.33124 -6.92709 -19.5331 13.1013 -6.92709 -19.2865 19.8713 -6.92709 -18.5636 
26.6413 -6.92709 -18.6329 33.4114 -6.92709 -17.9299 40.1814 -6.92709 -15.4326 
-34.2889 -0.15706 -14.9518 -27.5189 -0.15706 -15.8557 -20.7489 -0.15706 -16.0857 
-13.9788 -0.15706 -16.7072 -7.20882 -0.15706 -18.4766 -0.438788 -0.15706 -15.6719 
6.33124 -0.15706 -18.0557 13.1013 -0.15706 -17.5125 19.8713 -0.15706 -17.6274 
26.6413 -0.15706 -18.5637 33.4114 -0.15706 -18.1834 40.1814 -0.15706 -16.1169 
-34.2889 6.61297 -15.2549 -27.5189 6.61297 -16.7939 -20.7489 6.61297 -17.2375 
-13.9788 6.61297 -16.9484 -7.20882 6.61297 -16.7983 -0.438788 6.61297 -17.7372 
6.33124 6.61297 -17.8165 13.1013 6.61297 -16.2133 19.8713 6.61297 -17.3863 
26.6413 6.61297 -18.0086 33.4114 6.61297 -17.8484 40.1814 6.61297 -15.7313 
-34.2889 13.383 -14.4601 -27.5189 13.383 -16.8972 -20.7489 13.383 -17.5421 
-13.9788 13.383 -17.0146 -7.20882 13.383 -16.3605 -0.438788 13.383 -16.9259 
6.33124 13.383 -16.7279 13.1013 13.383 -16.5676 19.8713 13.383 -17.3227 
26.6413 13.383 -17.6156 33.4114 13.383 -16.953 40.1814 13.383 -14.2095 
-27.5189 20.153 -15.6392 -20.7489 20.153 -17.0056 -13.9788 20.153 -17.2725 
-7.20882 20.153 -17.5762 -0.438788 20.153 -17.3282 6.33124 20.153 -16.9439 
13.1013 20.153 -16.7506 19.8713 20.153 -17.1116 26.6413 20.153 -17.263 
33.4114 20.153 -16.1209 -20.7489 26.9231 -15.7206 -13.9788 26.9231 -16.8825 
-7.20882 26.9231 -17.5798 -0.438788 26.9231 -17.7383 6.33124 26.9231 -16.8722 
13.1013 26.9231 -16.2299 19.8713 26.9231 -15.6002 26.6413 26.9231 -15.2055 
-13.9788 33.6931 -14.0785 -7.20882 33.6931 -15.8944 -0.438788 33.6931 -15.8692 
6.33124 33.6931 -15.256 13.1013 33.6931 -13.6494 -13.9788 -27.68 -13.0039 
-13.9788 -34.0072 -9.01592 -7.20882 -29.5815 -13.0039 -7.20882 -34.0072 -10.5443 
-0.438788 -31.3361 -13.0039 -0.438788 -34.0072 -11.558 6.33124 -31.4237 -13.0039 
6.33124 -34.0072 -11.4638 13.1013 -30.0355 -13.0039 13.1013 -34.0072 -10.3312 
19.8713 -28.4867 -13.0039 19.8713 -34.0072 -7.7815 -27.5189 -21.7107 -13.0039 
-27.5189 -27.2372 -9.85373 -15.4123 -27.2372 -13.0039 -20.7489 -25.1856 -13.0039 
-20.7489 -27.2372 -12.0972 22.6512 -27.2372 -13.0039 26.6413 -25.2179 -13.0039 
26.6413 -27.2372 -11.4843 33.4114 -21.0564 -13.0039 -28.9681 -20.4671 -13.0039 
-34.2889 -20.4671 -10.5974 34.0636 -20.4671 -13.0039 40.1814 -14.5321 -13.0039 
40.1814 -20.4671 -6.46337 -41.059 -13.6971 -8.49688 -33.3289 -13.6971 -13.0039 
-34.2889 -12.4822 -13.0039 -34.2889 -13.6971 -12.7031 40.7735 -13.6971 -13.0039 
-37.2631 -6.92709 -13.0039 -41.059 -6.92709 -10.9549 43.1503 -6.92709 -13.0039 
46.9514 -6.92709 -6.76747 -38.8736 -0.15706 -13.0039 -41.059 -0.15706 -11.781 
44.0347 -0.15706 -13.0039 46.9514 -0.15706 -8.2054 -38.3208 6.61297 -13.0039 
-41.059 6.61297 -10.8065 43.3384 6.61297 -13.0039 -36.4293 13.383 -13.0039 
-41.059 13.383 -7.61035 -34.2889 17.8564 -13.0039 41.4432 13.383 -13.0039 
40.1814 16.0355 -13.0039 -32.758 20.153 -13.0039 -34.2889 20.153 -11.7346 
-27.5189 26.1439 -13.0039 37.5549 20.153 -13.0039 33.4114 25.9789 -13.0039 
40.1814 20.153 -8.73497 -26.8127 26.9231 -13.0039 -27.5189 26.9231 -12.4609 
-20.7489 31.5813 -13.0039 19.8713 31.9466 -13.0039 32.1824 26.9231 -13.0039 
26.6413 30.0547 -13.0039 33.4114 26.9231 -12.018 -16.9539 33.6931 -13.0039 
-20.7489 33.6931 -10.552 -13.9788 35.1393 -13.0039 -7.20882 37.4177 -13.0039 
-0.438788 37.8048 -13.0039 6.33124 36.9302 -13.0039 15.9027 33.6931 -13.0039 
13.1013 34.5719 -13.0039 19.8713 33.6931 -11.6378 26.6413 33.6931 -8.25603 
-7.20882 40.4631 -7.03968 -0.438788 40.4631 -8.55382 6.33124 40.4631 -6.74508 
-13.9788 -36.2931 -6.23387 -7.20882 -37.9776 -6.23387 -0.438788 -38.9311 -6.23387 
-0.438788 -40.7772 0.0882947 6.33124 -38.6596 -6.23387 13.1013 -37.4169 -6.23387 
19.8713 -35.1095 -6.23387 -27.5189 -30.2405 -6.23387 -19.5025 -34.0072 -6.23387 
-20.7489 -33.4288 -6.23387 -20.7489 -34.0072 -4.53256 22.2026 -34.0072 -6.23387 
26.6413 -31.7425 -6.23387 -31.9547 -27.2372 -6.23387 -34.2889 -25.2903 -6.23387 
-34.2889 -27.2372 -1.06045 33.2648 -27.2372 -6.23387 33.4114 -27.1235 -6.23387 
33.4114 -27.2372 -5.49298 40.1814 -20.6173 -6.23387 -39.0402 -20.4671 -6.23387 
-41.059 -17.3719 -6.23387 -41.059 -20.4671 -1.31133 40.3117 -20.4671 -6.23387 
-43.2567 -13.6971 -6.23387 44.8634 -13.6971 -6.23387 46.9514 -7.71176 -6.23387 
-45.2949 -6.92709 -6.23387 -47.829 -6.92709 0.510559 47.1834 -6.92709 -6.23387 
46.9514 -6.92709 -3.59647 -45.9021 -0.15706 -6.23387 -47.829 -0.15706 -0.93128 
47.7692 -0.15706 -6.23387 46.9514 5.8135 -6.23387 46.9514 -0.15706 -1.43416 
-44.4932 6.61297 -6.23387 46.8381 6.61297 -6.23387 -41.9355 13.383 -6.23387 
-41.059 15.0937 -6.23387 44.6016 13.383 -6.23387 -38.1938 20.153 -6.23387 
-34.2889 25.2944 -6.23387 41.1217 20.153 -6.23387 40.1814 21.5999 -6.23387 
40.1814 20.153 -3.48673 -32.854 26.9231 -6.23387 -27.5189 31.624 -6.23387 
36.1893 26.9231 -6.23387 33.4114 29.6815 -6.23387 -24.6482 33.6931 -6.23387 
-20.7489 36.0635 -6.23387 -13.9788 39.0873 -6.23387 13.1013 39.1795 -6.23387 
19.8713 37.3604 -6.23387 28.0447 33.6931 -6.23387 26.6413 34.5532 -6.23387 
26.6413 33.6931 -1.25478 -8.55334 40.4631 -6.23387 -7.20882 40.7825 -6.23387 
-0.438788 41.315 -6.23387 7.25812 40.4631 -6.23387 6.33124 40.6604 -6.23387 
6.33124 40.4631 -4.48478 -0.438788 -40.8877 0.536165 -20.7489 -35.4266 0.536165 
-13.9788 -38.3439 0.536165 -1.51476 -40.7772 0.536165 -7.20882 -40.1739 0.536165 
1.43748 -40.7772 0.536165 -0.438788 -40.7772 1.47207 6.33124 -40.4862 0.536165 
13.1013 -39.0497 0.536165 19.8713 -36.7317 0.536165 -34.2889 -27.7623 0.536165 
-23.6817 -34.0072 0.536165 -27.5189 -32.2112 0.536165 25.081 -34.0072 0.536165 
26.6413 -33.105 0.536165 33.4114 -28.0208 0.536165 -34.9524 -27.2372 0.536165 
-41.059 -21.2937 0.536165 -34.2889 -27.2372 2.7127 34.2773 -27.2372 0.536165 
33.4114 -27.2372 2.90314 40.1814 -20.7631 0.536165 -41.7532 -20.4671 0.536165 
-41.059 -20.4671 3.48716 40.4241 -20.4671 0.536165 40.1814 -20.4671 1.14719 
-45.7855 -13.6971 0.536165 -47.829 -6.95689 0.536165 44.7281 -13.6971 0.536165 
-47.8374 -6.92709 0.536165 -47.829 -6.92709 0.585342 46.5838 -6.92709 0.536165 
-48.2996 -0.15706 0.536165 -47.829 1.71317 0.536165 -47.829 -0.15706 3.37796 
46.5907 -0.15706 0.536165 -46.5744 6.61297 0.536165 45.4646 6.61297 0.536165 
40.1814 6.61297 6.73891 -43.4454 13.383 0.536165 -41.059 17.5456 0.536165 
42.5957 13.383 0.536165 40.1814 17.4318 0.536165 40.1814 13.383 3.43899 
-39.3922 20.153 0.536165 -34.2889 26.6366 0.536165 38.6387 20.153 0.536165 
33.4114 20.153 6.93933 -34.0254 26.9231 0.536165 -27.5189 32.525 0.536165 
26.6413 33.2916 0.536165 33.781 26.9231 0.536165 33.4114 27.3205 0.536165 
33.4114 26.9231 0.985256 -25.6547 33.6931 0.536165 -20.7489 36.4694 0.536165 
-13.9788 39.0721 0.536165 6.33124 39.8732 0.536165 13.1013 38.4291 0.536165 
25.8767 33.6931 0.536165 19.8713 36.6214 0.536165 19.8713 33.6931 4.75975 
-7.41586 40.4631 0.536165 -7.20882 40.509 0.536165 -7.20882 40.4631 0.651389 
1.19995 40.4631 0.536165 -0.438788 40.6566 0.536165 -0.438788 40.4631 0.97527 
-20.7489 -34.3642 7.30619 -13.9788 -37.1019 7.30619 -7.20882 -39.2093 7.30619 
-0.438788 -40.0347 7.30619 6.33124 -39.5827 7.30619 13.1013 -38.0478 7.30619 
19.8713 -35.3937 7.30619 -21.4488 -34.0072 7.30619 -27.5189 -30.6602 7.30619 
-20.7489 -34.0072 7.91204 -13.9788 -34.0072 11.9522 22.3703 -34.0072 7.30619 
19.8713 -34.0072 9.73716 26.6413 -31.3155 7.30619 -32.7162 -27.2372 7.30619 
-34.2889 -25.9996 7.30619 -27.5189 -27.2372 11.5281 31.5604 -27.2372 7.30619 
26.6413 -27.2372 12.4607 33.4114 -25.3253 7.30619 -40.0478 -20.4671 7.30619 
-41.059 -19.219 7.30619 -34.2889 -20.4671 12.5168 37.4781 -20.4671 7.30619 
33.4114 -20.4671 11.6851 40.1814 -15.9797 7.30619 -44.4551 -13.6971 7.30619 
-41.059 -13.6971 12.048 33.4114 -13.6971 14.0732 41.4202 -13.6971 7.30619 
40.1814 -13.6971 8.80563 -46.5159 -6.92709 7.30619 -41.059 -6.92709 13.9374 
33.4114 -6.92709 14.0456 42.8074 -6.92709 7.30619 40.1814 -6.92709 9.99266 
-47.0874 -0.15706 7.30619 33.4114 -0.15706 12.7344 42.0051 -0.15706 7.30619 
40.1814 5.1643 7.30619 40.1814 -0.15706 8.962 -45.5152 6.61297 7.30619 
-41.059 6.61297 13.7248 26.6413 6.61297 13.2406 39.5001 6.61297 7.30619 
33.4114 6.61297 10.9704 -42.377 13.383 7.30619 -41.059 15.57 7.30619 
-41.059 13.383 9.67394 26.6413 13.383 12.2224 36.0189 13.383 7.30619 
33.4114 19.2376 7.30619 33.4114 13.383 9.19164 -37.9292 20.153 7.30619 
-34.2889 24.4258 7.30619 -34.2889 20.153 11.7509 19.8713 20.153 13.3601 
32.9383 20.153 7.30619 26.6413 20.153 10.9571 -31.6203 26.9231 7.30619 
-27.5189 30.2104 7.30619 -27.5189 26.9231 10.8479 -20.7489 26.9231 13.6476 
6.33124 26.9231 13.7061 13.1013 26.9231 11.7635 19.8713 31.4374 7.30619 
19.8713 26.9231 10.5093 27.5771 26.9231 7.30619 26.6413 27.7789 7.30619 
26.6413 26.9231 7.98295 -21.5784 33.6931 7.30619 -20.7489 34.1336 7.30619 
-20.7489 33.6931 7.93006 -13.9788 36.4649 7.30619 -13.9788 33.6931 10.4706 
-7.20882 37.5617 7.30619 -7.20882 33.6931 11.6414 -0.438788 37.2685 7.30619 
[...]
POINT_DATA 508
SCALARS ImageScalars float
LOOKUP_TABLE default
0 0 0 0 0 0 0 0 0 
0 0 0 0 0 0 0 0 0 
0 0 0 0 0 0 0 0 0 
0 0 0 0 0 0 0 0 0 
0 0 0 0 0 0 0 0 0 
0 0 0 0 0 0 0 0 0 
0 0 0 0 0 0 0 0 0 
0 0 0 0 0 0 0 0 0 
0 0 0 0 0 0 0 0 0 
0 0 0 0 0 0 0 0 0 
0 0 0 0 0 0 0 0 0 
0 0 0 0 0 0 0 0 0 
0 0 0 0 0 0 0 0 0 
0 0 0 0 0 0 0 0 0 
0 0 0 0 0 0 0 0 0 
0 0 0 0 0 0 0 0 0 
0 0 0 0 0 0 0 0 0 
0 0 0 0 0 0 0 0 0 
0 0 0 0 0 0 0 0 0 
0 0 0 0 0 0 0 0 0 
0 0 0 0 0 0 0 0 0 
0 0 0 0 0 0 0 0 0 
0 0 0 0 0 0 0 0 0 
0 0 0 0 0 0 0 0 0 
0 0 0 0 0 0 0 0 0 
0 0 0 0 0 0 0 0 0 
0 0 0 0 0 0 0 0 0 
0 0 0 0 0 0 0 0 0 
0 0 0 0 0 0 0 0 0 
0 0 0 0 0 0 0 0 0 
0 0 0 0 0 0 0 0 0 
0 0 0 0 0 0 0 0 0 
0 0 0 0 0 0 0 0 0 
0 0 0 0 0 0 0 0 0 
0 0 0 0 0 0 0 0 0 
0 0 0 0 0 0 0 0 0 
0 0 0 0 0 0 0 0 0 
0 0 0 0 0 0 0 0 0 
0 0 0 0 0 0 0 0 0 
0 0 0 0 0 0 0 0 0 
0 0 0 0 0 0 0 0 0 
0 0 0 0 0 0 0 0 0 
0 0 0 0 0 0 0 0 0 
0 0 0 0 0 0 0 0 0 
0 0 0 0 0 0 0 0 0 
0 0 0 0 0 0 0 0 0 
0 0 0 0 0 0 0 0 0 
0 0 0 0 0 0 0 0 0 
0 0 0 0 0 0 0 0 0 
0 0 0 0 0 0 0 0 0 
0 0 0 0 0 0 0 0 0 
0 0 0 0 0 0 0 0 0 
0 0 0 0 0 0 0 0 0 
0 0 0 0 0 0 0 0 0 
0 0 0 0 0 0 0 0 0 
0 0 0 0 0 0 0 0 0 
0 0 0 0 
NORMALS Normals float
0.127198 0.361378 0.923703 0.108891 0.298387 0.948213 0.0574788 0.289961 0.955311 
-0.0145093 0.307417 0.951464 -0.0796629 0.375049 0.923576 -0.169942 0.477487 0.862047 
0.254279 0.279864 0.925753 0.118886 0.211353 0.970153 0.0426136 0.185106 0.981794 
0.0747128 0.175087 0.981714 0.0781094 0.249836 0.965133 0.0162476 0.263197 0.964605 
1.95094e-05 0.252645 0.967559 -0.0492156 0.295086 0.954202 -0.189737 0.395141 0.898812 
-0.413447 0.531316 0.739435 0.178218 0.145328 0.9732 0.0793505 0.0349657 0.996233 
0.0875576 0.0513522 0.994835 0.173938 0.194097 0.965439 0.145824 0.161512 0.976037 
-0.00897587 0.223135 0.974746 -0.0383705 0.209418 0.977073 -0.0256401 0.156909 0.98728 
-0.104773 0.201944 0.973777 -0.275227 0.273677 0.921602 -0.601725 0.383317 0.70071 
0.293196 0.150587 0.944118 0.0820791 0.0797729 0.993428 0.0221374 0.0480856 0.998598 
0.199262 0.0593082 0.97815 0.185121 0.134233 0.973505 0.106593 -0.193452 0.975302 
0.0626356 -0.0401369 0.997229 -0.0723708 -0.044734 0.996374 -0.0458843 -0.0333783 0.998389 
-0.043518 0.0535799 0.997615 -0.207625 0.115391 0.971379 -0.510826 0.164878 0.843725 
0.266545 0.0784587 0.960624 0.0841293 0.0900451 0.992378 0.0588837 0.147346 0.987331 
0.178144 0.0836202 0.980445 -0.0822203 -0.0874791 0.992767 -0.0330442 -0.0357443 0.998815 
0.136473 -0.124222 0.982824 -0.030874 -0.228677 0.973013 0.0768875 -0.0869869 0.993238 
0.0421148 -0.0464123 0.998034 -0.152122 -0.00580361 0.988345 -0.477038 0.0194724 0.878667 
0.370164 -0.0316132 0.928428 0.140942 0.0742395 0.98723 0.0107982 0.102889 0.994634 
-0.0313144 0.0210194 0.999289 0.0593551 -0.159043 0.985486 0.0699128 0.0882913 0.993638 
-0.118967 -0.101392 0.987708 -0.018324 -0.0644177 0.997755 0.133084 -0.0224642 0.99085 
0.0346338 -0.0695081 0.99698 -0.139451 -0.089762 0.986152 -0.508375 -0.118391 0.852959 
0.48852 -0.191424 0.851296 0.20838 -0.0735405 0.975279 0.0105738 -0.0159912 0.999816 
-0.0885575 0.02432 0.995774 -0.00657595 0.0583465 0.998275 0.0273307 -0.028493 0.99922 
-0.0269065 -0.0560553 0.998065 0.0446604 0.040181 0.998194 0.077139 -0.0199697 0.99682 
-0.0244592 -0.0532802 0.99828 -0.210943 -0.110835 0.971194 -0.625865 -0.297631 0.720908 
0.31341 -0.274864 0.908969 0.110048 -0.131823 0.985146 0.0407956 -0.0103425 0.999114 
0.00419934 0.0916675 0.995781 -0.0467812 0.0597949 0.997114 -0.0426678 0.0105289 0.999034 
0.0119447 -0.0260109 0.99959 0.037343 -0.11871 0.992227 -0.0532349 -0.14875 0.987441 
-0.396119 -0.29894 0.868173 0.26833 -0.333772 0.903657 0.130323 -0.204489 0.970155 
0.0654724 -0.119458 0.990678 -0.0524763 -0.0927228 0.994308 -0.111952 -0.121484 0.98626 
-0.0876469 -0.208013 0.974191 -0.0730221 -0.326825 0.94226 -0.204678 -0.456128 0.866057 
0.285467 -0.550107 0.784787 0.121848 -0.45515 0.882038 -0.0488447 -0.433241 0.899953 
-0.153105 -0.430811 0.88936 -0.214483 -0.530195 0.820299 0.132955 0.377247 0.916519 
0.255581 0.708737 0.657549 0.119363 0.394249 0.911219 0.145004 0.633321 0.760183 
0.0598043 0.455549 0.8882 0.0550522 0.59702 0.800336 -0.0491102 0.484012 0.873682 
-0.0704431 0.627912 0.77509 -0.112854 0.483504 0.868037 -0.184599 0.693352 0.696554 
-0.190248 0.519634 0.832938 -0.341474 0.796218 0.499432 0.271145 0.329498 0.904385 
0.393059 0.625082 0.674371 0.140105 0.386451 0.911606 0.165533 0.402665 0.900255 
0.20016 0.503677 0.840384 -0.231862 0.527596 0.817241 -0.288707 0.535718 0.793508 
-0.351255 0.629302 0.693252 -0.423666 0.548013 0.721241 0.29587 0.301097 0.906533 
0.498643 0.432446 0.751229 -0.436916 0.542714 0.717332 -0.615689 0.410552 0.672588 
-0.737745 0.625871 0.253015 0.661993 0.364977 0.654643 0.343578 0.216062 0.913932 
0.355492 0.216318 0.909303 0.375933 0.231123 0.897361 -0.634585 0.387976 0.668413 
0.387079 0.167396 0.906724 0.572053 0.18222 0.799719 -0.672074 0.184054 0.717245 
-0.960841 0.189919 0.201781 0.474894 0.0284839 0.879582 0.5995 -0.000210219 0.800375 
-0.695103 0.00945045 0.718849 -0.963624 -0.0160695 0.266779 0.542717 -0.106711 0.833109 
0.697895 -0.184915 0.691917 -0.701008 -0.154174 0.696288 0.573734 -0.234201 0.784844 
0.81575 -0.372207 0.442734 0.566661 -0.345937 0.747812 -0.688508 -0.307314 0.656898 
-0.671809 -0.364389 0.644898 0.535847 -0.399278 0.743939 0.626577 -0.444803 0.639962 
0.495296 -0.502751 0.708465 -0.619394 -0.423717 0.66092 -0.510826 -0.563575 0.649185 
-0.828349 -0.513453 0.224061 0.494461 -0.51043 0.70354 0.523387 -0.540173 0.658998 
0.38807 -0.597331 0.701853 -0.185441 -0.565867 0.803372 -0.470713 -0.58035 0.664548 
-0.290274 -0.613113 0.734733 -0.554854 -0.623732 0.550541 0.351745 -0.625147 0.696754 
0.437497 -0.748704 0.498035 0.308423 -0.629747 0.712948 0.137596 -0.709636 0.691002 
-0.0248057 -0.70319 0.710569 -0.166078 -0.650038 0.741531 -0.217659 -0.580084 0.784938 
-0.22668 -0.578408 0.783621 -0.242351 -0.708185 0.663129 -0.446999 -0.851524 0.274041 
0.155945 -0.963435 0.217884 -0.00934594 -0.958304 0.285599 -0.156292 -0.973215 0.168598 
0.290671 0.826008 0.48293 0.175565 0.840006 0.513388 0.0435634 0.875056 0.482056 
0.0230554 0.995923 0.087213 -0.102343 0.878465 0.466717 -0.228222 0.865731 0.445448 
-0.361202 0.838491 0.408002 0.439028 0.774617 0.455217 0.367356 0.812509 0.452636 
0.377091 0.80755 0.453504 0.397816 0.852094 0.340114 -0.404423 0.825663 0.393349 
-0.473824 0.799646 0.368858 0.528384 0.712858 0.461134 0.577826 0.664043 0.474515 
0.617504 0.776427 0.125901 -0.600154 0.74195 0.298873 -0.602969 0.740377 0.297103 
-0.613893 0.746618 0.256315 -0.739961 0.628413 0.239908 0.681044 0.528715 0.506597 
0.716333 0.458623 0.525864 0.782229 0.599908 0.168012 -0.743002 0.625134 0.239074 
0.768905 0.356789 0.530553 -0.866545 0.449875 0.216128 -0.961157 0.216319 0.171415 
0.846747 0.159563 0.507502 0.981521 0.174079 0.0794527 -0.968273 0.187206 0.165535 
-0.98645 0.163988 -0.00487736 0.862075 -0.0547947 0.50381 0.982271 -0.0870955 0.166009 
-0.993155 -0.025146 0.114064 -0.97542 -0.195874 0.100943 -0.975988 -0.0517506 -0.211589 
0.856239 -0.253564 0.450066 -0.970494 -0.219882 0.0989627 0.845384 -0.388453 0.366648 
0.8351 -0.418761 0.356716 -0.918616 -0.390693 0.0591958 0.792907 -0.518398 0.320252 
0.720449 -0.622694 0.305297 -0.860623 -0.50899 0.0160161 -0.842508 -0.538137 0.0242866 
-0.849288 -0.50089 -0.16679 0.688757 -0.659066 0.302069 0.588431 -0.75515 0.288959 
-0.73662 -0.674382 0.0509887 -0.660936 -0.74706 0.0711664 0.532132 -0.804244 0.264625 
0.454582 -0.855644 0.247446 0.324716 -0.926172 0.191742 -0.234186 -0.954808 0.183025 
-0.335072 -0.919616 0.205019 -0.500355 -0.857806 0.117529 -0.465146 -0.877018 0.120326 
-0.480492 -0.847634 -0.225042 0.188421 -0.967283 0.169885 0.155466 -0.973067 0.17021 
-0.0104332 -0.991283 0.131338 -0.162839 -0.976989 0.137752 -0.152862 -0.979051 0.134505 
-0.155899 -0.98735 0.0289034 0.0215264 0.997738 0.0636877 0.412205 0.909739 0.0496274 
0.328556 0.943331 0.0466679 0.0466019 0.996796 0.0650041 0.183086 0.980466 0.071877 
-0.0202105 0.997968 0.0604235 0.0218876 0.999591 0.0184229 -0.130962 0.990021 0.0520383 
-0.258588 0.965277 0.0370578 -0.402077 0.915488 0.0147039 0.615432 0.787577 0.0310745 
0.431144 0.901273 0.0426965 0.469006 0.882809 0.0261141 -0.506615 0.862087 -0.0121202 
-0.537978 0.842655 -0.0226588 -0.657685 0.749526 -0.0752421 0.629049 0.77674 0.0311651 
0.776763 0.627943 0.0482425 0.616806 0.781669 -0.092438 -0.67294 0.735183 -0.0815967 
-0.668633 0.718944 -0.189869 -0.780287 0.606665 -0.152017 0.793303 0.606708 0.0507518 
0.772791 0.6204 -0.133781 -0.785065 0.600136 -0.153332 -0.781407 0.596801 -0.182297 
0.925499 0.374822 0.0544049 0.981487 0.174938 0.0779782 -0.896135 0.390911 -0.210073 
0.981615 0.174154 0.078114 0.981821 0.174297 0.0751491 -0.953518 0.118897 -0.276889 
0.992594 -0.0937748 0.0772208 0.984273 -0.160803 0.0731429 0.991329 -0.0895978 -0.0961227 
-0.934205 -0.065794 -0.350618 0.944468 -0.322979 0.0605346 -0.884215 -0.251928 -0.393314 
-0.619174 -0.291126 -0.729294 0.886755 -0.461578 0.024725 0.846226 -0.532822 0.00160246 
-0.800223 -0.403365 -0.443778 -0.779271 -0.432825 -0.45321 -0.710796 -0.381279 -0.591096 
0.819508 -0.572852 -0.0157342 0.732825 -0.678608 -0.0495908 -0.772808 -0.453615 -0.443849 
-0.603629 -0.36878 -0.706847 0.726593 -0.685091 -0.0520839 0.570137 -0.817527 -0.0811962 
-0.476012 -0.805426 -0.353132 -0.676127 -0.607979 -0.416191 -0.669558 -0.617449 -0.412854 
-0.667782 -0.603524 -0.43569 0.526543 -0.844816 -0.0950697 0.425362 -0.897108 -0.11943 
0.275873 -0.947305 -0.162811 -0.156001 -0.943218 -0.293263 -0.216289 -0.924716 -0.313241 
-0.45791 -0.817201 -0.350001 -0.342911 -0.886036 -0.312013 -0.341842 -0.745875 -0.571677 
0.12039 -0.970913 -0.206963 0.115533 -0.971212 -0.208327 0.114506 -0.970221 -0.213448 
-0.0712074 -0.961903 -0.263956 -0.0451718 -0.965789 -0.255364 -0.0480129 -0.960134 -0.275387 
0.411823 0.847006 -0.336127 0.325752 0.879863 -0.346016 0.200351 0.929641 -0.309235 
0.0236989 0.95674 -0.289979 -0.136975 0.949248 -0.283136 -0.276937 0.913457 -0.298164 
-0.419964 0.848359 -0.322363 0.418789 0.843134 -0.337254 0.473871 0.787178 -0.394711 
0.409771 0.835047 -0.367131 0.306666 0.720699 -0.621731 -0.466329 0.820506 -0.330618 
-0.418817 0.791406 -0.445275 -0.550317 0.75296 -0.360837 0.55313 0.737236 -0.387983 
0.576775 0.717712 -0.390155 0.432669 0.6237 -0.650996 -0.634463 0.663737 -0.396118 
-0.51685 0.555508 -0.651365 -0.665351 0.615197 -0.422896 0.695178 0.600538 -0.39507 
0.731296 0.56398 -0.383579 0.462216 0.512041 -0.723996 -0.717071 0.507867 -0.477368 
-0.62303 0.412573 -0.664542 -0.75984 0.382492 -0.525683 0.845949 0.373379 -0.380734 
0.660844 0.345894 -0.666065 -0.467711 0.117828 -0.875993 -0.781485 0.303635 -0.545057 
-0.737574 0.288128 -0.61071 0.907267 0.174755 -0.382526 0.589869 0.144531 -0.794459 
-0.379493 -0.0881591 -0.920985 -0.762091 0.0394166 -0.646269 -0.654719 -0.00462072 -0.755858 
0.933648 -0.0748447 -0.350286 -0.370336 -0.201629 -0.906751 -0.685575 -0.162776 -0.709571 
-0.610426 -0.266122 -0.746028 -0.606766 -0.186194 -0.772766 0.894514 -0.299866 -0.331549 
0.667229 -0.210762 -0.714413 -0.234955 -0.181807 -0.954852 -0.58702 -0.284202 -0.758048 
-0.40441 -0.224391 -0.886624 0.834996 -0.461839 -0.299143 0.808699 -0.500834 -0.308498 
0.785922 -0.450609 -0.423413 -0.340018 -0.151396 -0.928152 -0.573743 -0.296304 -0.763559 
-0.588762 -0.350168 -0.72852 -0.510955 -0.251416 -0.822019 0.728278 -0.584762 -0.357302 
0.655061 -0.649661 -0.385792 0.55855 -0.560563 -0.611385 -0.222116 -0.259189 -0.939939 
-0.586901 -0.358803 -0.725815 -0.410224 -0.271353 -0.87068 0.595526 -0.68167 -0.425058 
0.503069 -0.73387 -0.45646 0.433779 -0.627486 -0.646604 0.21366 -0.434659 -0.874883 
-0.228303 -0.382723 -0.89521 -0.209679 -0.415816 -0.884947 -0.300713 -0.624933 -0.720438 
-0.235512 -0.488772 -0.840021 -0.482411 -0.517256 -0.706913 -0.457309 -0.542695 -0.704521 
-0.454713 -0.509491 -0.730517 0.39207 -0.797238 -0.459013 0.374827 -0.803986 -0.46164 
0.369057 -0.786698 -0.494878 0.218788 -0.822341 -0.52525 0.185005 -0.69116 -0.698621 
0.0524038 -0.831324 -0.553312 0.0382402 -0.652792 -0.756572 -0.103859 -0.794783 -0.597941 
-0.131225 -0.645433 -0.75246 -0.181443 -0.72727 -0.661934 -0.188249 -0.647269 -0.738651 
-0.248695 -0.676101 -0.693569 -0.222557 -0.690639 -0.688103 -0.224999 -0.666529 -0.710714 
0.202573 0.65019 -0.732268 0.0541129 0.702937 -0.70919 -0.109424 0.714632 -0.690889 
-0.261417 0.68609 -0.678927 0.329208 0.499989 -0.80102 0.230675 0.632831 -0.73913 
0.270495 0.563982 -0.780229 0.201695 0.610341 -0.76603 0.0612567 0.596757 -0.80008 
-0.101027 0.618101 -0.77958 -0.26255 0.685526 -0.679059 -0.261317 0.684991 -0.680074 
-0.386233 0.573674 -0.722303 0.344465 0.477916 -0.808047 0.327711 0.443111 -0.834421 
0.308712 0.428917 -0.848956 0.222665 0.344685 -0.911928 0.14785 0.287809 -0.946206 
0.0604101 0.251828 -0.965885 -0.0405725 0.243733 -0.968993 -0.175671 0.321285 -0.930546 
-0.453273 0.493628 -0.742209 -0.347574 0.425922 -0.835334 -0.467447 0.427764 -0.773635 
0.352216 0.423598 -0.834571 0.387016 0.400735 -0.83044 0.261585 0.343565 -0.901963 
0.180265 0.17545 -0.967844 0.180294 0.0971548 -0.978803 0.129168 0.0898445 -0.987544 
0.0268232 0.0893168 -0.995642 -0.0354469 0.0366711 -0.998699 -0.0943478 0.0877227 -0.991667 
-0.227003 0.133582 -0.964689 -0.502416 0.321206 -0.802749 -0.391888 0.255259 -0.883893 
0.488803 0.302076 -0.818426 0.304851 0.268489 -0.913772 0.11514 0.183086 -0.976331 
0.0683973 0.110296 -0.991543 0.151391 0.0257203 -0.988139 0.139213 0.0686136 -0.987883 
0.00853635 0.0143894 -0.99986 -0.0428522 0.0399302 -0.998283 -0.0868688 -0.0203089 -0.996013 
-0.184188 -0.0687016 -0.980487 -0.467509 0.117687 -0.876119 -0.305335 -0.00275102 -0.952241 
0.575423 0.143377 -0.805191 0.587736 0.120273 -0.800063 0.268122 0.158895 -0.950191 
0.0750022 0.151246 -0.985647 0.0148862 0.135594 -0.990653 0.136475 0.128471 -0.982278 
0.120268 0.0749793 -0.989906 -0.00291808 -0.101001 -0.994882 -0.0669744 0.0252937 -0.997434 
-0.207419 -0.122776 -0.970517 -0.20659 -0.217804 -0.953877 -0.376944 -0.089254 -0.921926 
-0.232 -0.158662 -0.959689 0.621911 -0.014316 -0.782957 0.642274 -0.149469 -0.75176 
0.587457 -0.00880391 -0.809208 0.272424 0.0442542 -0.961159 0.0936366 0.0851102 -0.991962 
0.0525096 0.0713537 -0.996068 0.0861354 0.0631694 -0.994279 -0.0919409 0.00652023 -0.995743 
-0.0421689 0.021297 -0.998883 -0.0525028 -0.0293354 -0.99819 -0.353105 -0.201657 -0.913592 
-0.179808 -0.214086 -0.960123 -0.24473 -0.198741 -0.949004 -0.201496 -0.18931 -0.961021 
-0.179582 -0.194614 -0.964301 0.640872 -0.200499 -0.741001 0.336117 -0.130685 -0.93271 
0.0907988 -0.108226 -0.989971 -0.0104673 -0.1127 -0.993574 0.0743855 -0.196545 -0.977669 
0.0851288 -0.134199 -0.987291 -0.0378453 0.137828 -0.989733 -0.274423 -0.105284 -0.955828 
-0.384061 -0.120915 -0.915356 -0.193187 -0.0945506 -0.976596 -0.185259 -0.070519 -0.980156 
0.555444 -0.377523 -0.740917 0.46575 -0.453521 -0.759865 0.391216 -0.342692 -0.854115 
0.117146 -0.271489 -0.955286 -0.0353747 -0.234037 -0.971584 0.0494443 -0.21128 -0.976174 
0.236229 -0.235201 -0.942802 -0.00229868 -0.182942 -0.983121 -0.351142 -0.260621 -0.89932 
-0.248335 -0.125197 -0.96055 -0.252089 -0.0765028 -0.964675 -0.235085 -0.121219 -0.964386 
-0.241145 -0.0645631 -0.968339 0.369054 -0.479988 -0.795871 0.296675 -0.479492 -0.825876 
0.241097 -0.421177 -0.874347 0.185839 -0.404327 -0.895535 0.0560972 -0.288165 -0.955936 
0.0616988 -0.173855 -0.982836 0.11401 -0.212476 -0.970492 -0.0681852 -0.355055 -0.932355 
-0.232602 -0.362202 -0.90261 -0.253383 -0.302422 -0.918879 -0.174346 -0.265004 -0.948355 
-0.166116 -0.279346 -0.945712 -0.163142 -0.267065 -0.949769 0.180443 -0.395716 -0.900471 
0.142725 -0.39297 -0.908407 0.14047 -0.346895 -0.927325 0.0378281 -0.456587 -0.888874 
0.0374588 -0.330291 -0.943135 -0.206229 -0.387455 -0.898526 -0.137322 -0.469731 -0.872064 
-0.131759 -0.409481 -0.902754 
