# vtk DataFile Version 4.2
vtk output
ASCII
DATASET POLYDATA
POINTS 542 float
-17.9643 -44.1463 -13.4777 -9.87696 -44.1463 -14.0192 -34.1391 -36.0589 -15.3023 
-26.0517 -36.0589 -16.0017 -17.9643 -36.0589 -16.6868 -9.87696 -36.0589 -16.7032 
-1.78957 -36.0589 -15.9688 6.29783 -36.0589 -15.7673 14.3852 -36.0589 -15.179 
22.4726 -36.0589 -14.2725 -42.2265 -27.9715 -15.4925 -34.1391 -27.9715 -17.364 
-26.0517 -27.9715 -17.4233 -17.9643 -27.9715 -17.4889 -9.87696 -27.9715 -16.7967 
-1.78957 -27.9715 -16.7032 6.29783 -27.9715 -16.8379 14.3852 -27.9715 -17.4971 
22.4726 -27.9715 -16.9132 30.56 -27.9715 -16.226 38.6474 -27.9715 -13.4189 
-42.2265 -19.8841 -15.6981 -34.1391 -19.8841 -17.2901 -26.0517 -19.8841 -18.0044 
-17.9643 -19.8841 -16.851 -9.87696 -19.8841 -15.8689 -1.78957 -19.8841 -16.1315 
6.29783 -19.8841 -17.0897 14.3852 -19.8841 -17.4561 22.4726 -19.8841 -17.6215 
30.56 -19.8841 -17.2428 38.6474 -19.8841 -16.608 46.7348 -19.8841 -13.9588 
-42.2265 -11.7967 -15.2431 -34.1391 -11.7967 -16.7241 -26.0517 -11.7967 -16.8529 
-17.9643 -11.7967 -15.5297 -9.87696 -11.7967 -15.0585 -1.78957 -11.7967 -16.4445 
6.29783 -11.7967 -17.8621 14.3852 -11.7967 -16.5 22.4726 -11.7967 -17.3296 
30.56 -11.7967 -18.726 38.6474 -11.7967 -18.2992 46.7348 -11.7967 -16.7752 
-42.2265 -3.7093 -15.6492 -34.1391 -3.7093 -16.9519 -26.0517 -3.7093 -16.6137 
-17.9643 -3.7093 -15.9876 -9.87696 -3.7093 -20.1599 -1.78957 -3.7093 -15.5192 
6.29783 -3.7093 -18.6902 14.3852 -3.7093 -17.9106 22.4726 -3.7093 -17.5086 
30.56 -3.7093 -18.634 38.6474 -3.7093 -18.9919 46.7348 -3.7093 -18.1304 
54.8222 -3.7093 -15.1777 -50.3139 4.37809 -13.9045 -42.2265 4.37809 -17.9713 
-34.1391 4.37809 -18.4716 -26.0517 4.37809 -17.8262 -17.9643 4.37809 -16.9792 
-9.87696 4.37809 -20.6496 -1.78957 4.37809 -15.4738 6.29783 4.37809 -18.1758 
14.3852 4.37809 -15.2562 22.4726 4.37809 -16.3912 30.56 4.37809 -17.9453 
38.6474 4.37809 -18.5243 46.7348 4.37809 -18.3639 54.8222 4.37809 -15.6703 
-50.3139 12.4655 -16.2872 -42.2265 12.4655 -19.8251 -34.1391 12.4655 -19.6685 
-26.0517 12.4655 -18.6062 -17.9643 12.4655 -17.2666 -9.87696 12.4655 -16.6246 
-1.78957 12.4655 -17.6204 6.29783 12.4655 -16.6341 14.3852 12.4655 -14.3881 
22.4726 12.4655 -16.0134 30.56 12.4655 -17.5793 38.6474 12.4655 -17.98 
46.7348 12.4655 -17.0305 54.8222 12.4655 -14.0241 -50.3139 20.5529 -16.2562 
-42.2265 20.5529 -19.1347 -34.1391 20.5529 -19.2335 -26.0517 20.5529 -18.5552 
-17.9643 20.5529 -17.9674 -9.87696 20.5529 -16.8009 -1.78957 20.5529 -16.0437 
6.29783 20.5529 -16.3481 14.3852 20.5529 -17.0089 22.4726 20.5529 -16.8478 
30.56 20.5529 -17.3681 38.6474 20.5529 -17.7167 46.7348 20.5529 -16.3932 
-50.3139 28.6403 -14.1284 -42.2265 28.6403 -17.4162 -34.1391 28.6403 -18.8486 
-26.0517 28.6403 -18.2824 -17.9643 28.6403 -17.9039 -9.87696 28.6403 -16.388 
-1.78957 28.6403 -15.0439 6.29783 28.6403 -15.8174 14.3852 28.6403 -17.5487 
22.4726 28.6403 -17.2968 30.56 28.6403 -19.0372 38.6474 28.6403 -16.0963 
46.7348 28.6403 -14.911 -42.2265 36.7277 -13.4843 -34.1391 36.7277 -15.8458 
-26.0517 36.7277 -15.8104 -17.9643 36.7277 -15.2679 14.3852 36.7277 -14.8464 
22.4726 36.7277 -16.1073 30.56 36.7277 -15.1572 38.6474 36.7277 -14.6737 
-17.9643 -44.3417 -13.3612 -9.87696 -45.0675 -13.3612 -9.87696 -52.2336 -5.27955 
-34.1391 -39.0974 -13.3612 -34.1391 -44.1463 -8.70014 -18.6707 -44.1463 -13.3612 
-26.0517 -41.5724 -13.3612 -26.0517 -44.1463 -11.6577 -2.6866 -44.1463 -13.3612 
-1.78957 -43.8999 -13.3612 -1.78957 -44.1463 -13.2457 6.29783 -40.8674 -13.3612 
6.29783 -44.1463 -10.6357 14.3852 -39.0314 -13.3612 14.3852 -44.1463 -7.81788 
22.4726 -37.3055 -13.3612 -39.0651 -36.0589 -13.3612 -42.2265 -33.3148 -13.3612 
-42.2265 -36.0589 -11.5423 25.5469 -36.0589 -13.3612 30.56 -33.3276 -13.3612 
30.56 -36.0589 -11.1365 38.6474 -28.0658 -13.3612 -47.2006 -27.9715 -13.3612 
-50.3139 -27.9715 -8.62393 38.804 -27.9715 -13.3612 46.7348 -21.24 -13.3612 
46.7348 -27.9715 -6.98348 -45.6441 -19.8841 -13.3612 -50.3139 -19.8841 -8.10288 
48.0722 -19.8841 -13.3612 54.8222 -19.8841 -7.17184 -45.675 -11.7967 -13.3612 
-50.3139 -11.7967 -8.77739 53.8236 -11.7967 -13.3612 54.8222 -9.8373 -13.3612 
54.8222 -11.7967 -12.6556 -46.3357 -3.7093 -13.3612 -50.3139 2.76666 -13.3612 
-50.3139 -3.7093 -9.62948 57.1604 -3.7093 -13.3612 -51.0075 4.37809 -13.3612 
57.8223 4.37809 -13.3612 62.9096 4.37809 -6.23109 -54.213 12.4655 -13.3612 
55.689 12.4655 -13.3612 54.8222 15.4379 -13.3612 -54.9185 20.5529 -13.3612 
53.1501 20.5529 -13.3612 54.8222 20.5529 -12.0675 -51.3108 28.6403 -13.3612 
-50.3139 30.4722 -13.3612 -9.87696 35.9124 -13.3612 -1.78957 32.2763 -13.3612 
6.29783 33.9853 -13.3612 49.3897 28.6403 -13.3612 46.7348 32.623 -13.3612 
54.8222 28.6403 -8.36419 -42.5924 36.7277 -13.3612 -50.3139 36.7277 -8.13959 
-42.2265 36.896 -13.3612 -34.1391 40.3652 -13.3612 -26.0517 40.1092 -13.3612 
-11.3254 36.7277 -13.3612 -17.9643 39.0554 -13.3612 -9.87696 36.7277 -12.8233 
-1.78957 36.7277 -9.88682 10.4109 36.7277 -13.3612 6.29783 36.7277 -11.2292 
14.3852 38.3716 -13.3612 22.4726 40.4342 -13.3612 30.56 39.3239 -13.3612 
41.9658 36.7277 -13.3612 38.6474 38.0907 -13.3612 46.7348 36.7277 -9.64092 
-26.0517 44.815 -5.78101 -9.87696 -52.2373 -5.27377 -34.1391 -46.7279 -5.27377 
-26.0517 -49.1423 -5.27377 -9.90948 -52.2336 -5.27377 -17.9643 -51.2254 -5.27377 
-9.85862 -52.2336 -5.27377 -1.78957 -50.4432 -5.27377 6.29783 -47.7768 -5.27377 
14.3852 -45.6511 -5.27377 -40.5723 -44.1463 -5.27377 -42.2265 -43.1406 -5.27377 
20.3949 -44.1463 -5.27377 22.4726 -43.5875 -5.27377 30.56 -39.8271 -5.27377 
-47.9334 -36.0589 -5.27377 -50.3139 -31.003 -5.27377 36.9888 -36.0589 -5.27377 
38.6474 -34.9348 -5.27377 46.7348 -28.9083 -5.27377 -51.367 -27.9715 -5.27377 
-50.3139 -27.9715 -0.672348 47.8622 -27.9715 -5.27377 54.8222 -21.1661 -5.27377 
-51.8868 -19.8841 -5.27377 -50.3139 -19.8841 1.90754 55.9307 -19.8841 -5.27377 
-52.0724 -11.7967 -5.27377 60.3495 -11.7967 -5.27377 -52.5295 -3.7093 -5.27377 
62.8641 -3.7093 -5.27377 62.9096 -2.97024 -5.27377 -55.1252 4.37809 -5.27377 
63.3236 4.37809 -5.27377 62.9096 7.25534 -5.27377 62.9096 4.37809 0.46103 
-58.026 12.4655 -5.27377 62.0843 12.4655 -5.27377 -58.3778 20.5529 -5.27377 
60.4777 20.5529 -5.27377 -56.7774 28.6403 -5.27377 56.4801 28.6403 -5.27377 
54.8222 30.9238 -5.27377 54.8222 28.6403 1.84404 -51.7386 36.7277 -5.27377 
-50.3139 37.9583 -5.27377 -50.3139 36.7277 2.80184 -42.2265 43.3358 -5.27377 
-34.1391 44.7784 -5.27377 -17.9643 44.4854 -5.27377 -9.87696 41.8746 -5.27377 
-1.78957 39.6624 -5.27377 6.29783 40.2211 -5.27377 14.3852 42.3797 -5.27377 
22.4726 43.515 -5.27377 30.56 43.8827 -5.27377 38.6474 41.6063 -5.27377 
48.9454 36.7277 -5.27377 46.7348 38.3285 -5.27377 46.7348 36.7277 0.345735 
-32.9374 44.815 -5.27377 -22.9323 44.815 -5.27377 -26.0517 45.0133 -5.27377 
-26.0517 44.815 -1.83897 -9.87696 -52.5227 2.81362 -34.1391 -45.3024 2.81362 
-26.0517 -49.131 2.81362 -13.4079 -52.2336 2.81362 -17.9643 -51.8163 2.81362 
-7.96594 -52.2336 2.81362 -9.87696 -52.2336 3.59555 -1.78957 -51.2986 2.81362 
6.29783 -48.7734 2.81362 14.3852 -46.2183 2.81362 -36.397 -44.1463 2.81362 
-42.2265 -40.0875 2.81362 -34.1391 -44.1463 4.34111 -26.0517 -44.1463 10.7115 
20.8863 -44.1463 2.81362 14.3852 -44.1463 9.07033 22.4726 -43.6164 2.81362 
30.56 -39.8586 2.81362 -45.5747 -36.0589 2.81362 -42.2265 -36.0589 6.10957 
-34.1391 -36.0589 10.0676 36.6634 -36.0589 2.81362 30.56 -36.0589 9.21401 
38.6474 -34.7564 2.81362 46.7348 -28.6459 2.81362 -49.2639 -27.9715 2.81362 
-42.2265 -27.9715 10.5109 47.5655 -27.9715 2.81362 46.7348 -27.9715 4.04955 
54.8222 -21.0209 2.81362 -50.0915 -19.8841 2.81362 -50.3139 -15.5787 2.81362 
55.8088 -19.8841 2.81362 54.8222 -19.8841 4.56799 -50.4973 -11.7967 2.81362 
-50.3139 -11.7967 3.11212 60.3367 -11.7967 2.81362 -50.5869 -3.7093 2.81362 
-50.3139 -3.7093 3.27148 62.3483 -3.7093 2.81362 -53.1625 4.37809 2.81362 
-50.3139 4.37809 7.38247 62.7235 4.37809 2.81362 -56.3137 12.4655 2.81362 
-50.3139 12.4655 10.6061 61.2699 12.4655 2.81362 -56.6016 20.5529 2.81362 
59.3794 20.5529 2.81362 54.8222 28.2259 2.81362 54.8222 20.5529 8.55829 
-55.4049 28.6403 2.81362 -50.3139 36.7249 2.81362 -50.3139 28.6403 10.1239 
54.5254 28.6403 2.81362 46.7348 35.8779 2.81362 46.7348 28.6403 9.94912 
-50.3113 36.7277 2.81362 -42.2265 42.5984 2.81362 -34.1391 44.2033 2.81362 
-26.0517 44.5415 2.81362 -17.9643 43.6963 2.81362 -9.87696 41.4233 2.81362 
-1.78957 39.5822 2.81362 -1.78957 36.7277 10.6308 6.29783 39.2093 2.81362 
6.29783 36.7277 8.76649 14.3852 39.6637 2.81362 14.3852 36.7277 7.64211 
22.4726 39.8121 2.81362 22.4726 36.7277 6.88563 30.56 41.0262 2.81362 
30.56 36.7277 7.22607 44.6948 36.7277 2.81362 38.6474 38.7956 2.81362 
38.6474 36.7277 5.50814 -17.9643 -46.119 10.901 -9.87696 -48.505 10.901 
-1.78957 -48.0791 10.901 6.29783 -45.9278 10.901 -25.3289 -44.1463 10.901 
-26.0517 -43.7871 10.901 -17.9643 -44.1463 12.429 -9.87696 -44.1463 14.5233 
-1.78957 -44.1463 14.7228 12.1229 -44.1463 10.901 6.29783 -44.1463 12.9373 
14.3852 -43.3022 10.901 22.4726 -39.7737 10.901 -32.3057 -36.0589 10.901 
-34.1391 -34.0939 10.901 -26.0517 -36.0589 13.316 -17.9643 -36.0589 15.8684 
-9.87696 -36.0589 17.6498 -1.78957 -36.0589 18.6014 6.29783 -36.0589 18.0531 
14.3852 -36.0589 16.3915 28.5153 -36.0589 10.901 22.4726 -36.0589 14.0593 
30.56 -34.4512 10.901 38.6474 -29.0813 10.901 -41.366 -27.9715 10.901 
-42.2265 -22.3327 10.901 -34.1391 -27.9715 13.03 -26.0517 -27.9715 15.0487 
-17.9643 -27.9715 16.1637 -9.87696 -27.9715 18.6328 14.3852 -27.9715 18.2559 
22.4726 -27.9715 16.7843 30.56 -27.9715 15.1228 40.1835 -27.9715 10.901 
38.6474 -27.9715 11.7268 46.7348 -22.8447 10.901 -42.3957 -19.8841 10.901 
-42.2265 -19.8841 11.0377 -34.1391 -19.8841 14.2581 -26.0517 -19.8841 15.4056 
-17.9643 -19.8841 16.2358 -9.87696 -19.8841 18.024 6.29783 -19.8841 18.8197 
14.3852 -19.8841 18.2501 22.4726 -19.8841 17.8065 30.56 -19.8841 17.3782 
38.6474 -19.8841 16.5594 49.832 -19.8841 10.901 46.7348 -19.8841 13.164 
[...]
POINT_DATA 542
SCALARS ImageScalars float
LOOKUP_TABLE default
0 0 0 0 0 0 0 0 0 
0 0 0 0 0 0 0 0 0 
0 0 0 0 0 0 0 0 0 
0 0 0 0 0 0 0 0 0 
0 0 0 0 0 0 0 0 0 
0 0 0 0 0 0 0 0 0 
0 0 0 0 0 0 0 0 0 
0 0 0 0 0 0 0 0 0 
0 0 0 0 0 0 0 0 0 
0 0 0 0 0 0 0 0 0 
0 0 0 0 0 0 0 0 0 
0 0 0 0 0 0 0 0 0 
0 0 0 0 0 0 0 0 0 
0 0 0 0 0 0 0 0 0 
0 0 0 0 0 0 0 0 0 
0 0 0 0 0 0 0 0 0 
0 0 0 0 0 0 0 0 0 
0 0 0 0 0 0 0 0 0 
0 0 0 0 0 0 0 0 0 
0 0 0 0 0 0 0 0 0 
0 0 0 0 0 0 0 0 0 
0 0 0 0 0 0 0 0 0 
0 0 0 0 0 0 0 0 0 
0 0 0 0 0 0 0 0 0 
0 0 0 0 0 0 0 0 0 
0 0 0 0 0 0 0 0 0 
0 0 0 0 0 0 0 0 0 
0 0 0 0 0 0 0 0 0 
0 0 0 0 0 0 0 0 0 
0 0 0 0 0 0 0 0 0 
0 0 0 0 0 0 0 0 0 
0 0 0 0 0 0 0 0 0 
0 0 0 0 0 0 0 0 0 
0 0 0 0 0 0 0 0 0 
0 0 0 0 0 0 0 0 0 
0 0 0 0 0 0 0 0 0 
0 0 0 0 0 0 0 0 0 
0 0 0 0 0 0 0 0 0 
0 0 0 0 0 0 0 0 0 
0 0 0 0 0 0 0 0 0 
0 0 0 0 0 0 0 0 0 
0 0 0 0 0 0 0 0 0 
0 0 0 0 0 0 0 0 0 
0 0 0 0 0 0 0 0 0 
0 0 0 0 0 0 0 0 0 
0 0 0 0 0 0 0 0 0 
0 0 0 0 0 0 0 0 0 
0 0 0 0 0 0 0 0 0 
0 0 0 0 0 0 0 0 0 
0 0 0 0 0 0 0 0 0 
0 0 0 0 0 0 0 0 0 
0 0 0 0 0 0 0 0 0 
0 0 0 0 0 0 0 0 0 
0 0 0 0 0 0 0 0 0 
0 0 0 0 0 0 0 0 0 
0 0 0 0 0 0 0 0 0 
0 0 0 0 0 0 0 0 0 
0 0 0 0 0 0 0 0 0 
0 0 0 0 0 0 0 0 0 
0 0 0 0 0 0 0 0 0 
0 0 
NORMALS Normals float
-0.111932 -0.47527 -0.872691 0.0111181 -0.511514 -0.859203 -0.202004 -0.399076 -0.89439 
-0.0804872 -0.278556 -0.957042 -0.0413396 -0.240754 -0.969705 0.0425144 -0.164065 -0.985533 
0.061754 -0.201094 -0.977624 0.046709 -0.293968 -0.954673 0.0847926 -0.425496 -0.900979 
0.194496 -0.495109 -0.846781 -0.31969 -0.180409 -0.930189 -0.133887 -0.121225 -0.983554 
-0.00758986 -0.119971 -0.992748 0.0392582 -0.00626414 -0.999209 0.0481351 0.0508021 -0.997548 
-0.00250927 -0.00905511 -0.999956 -0.0509303 -0.0825881 -0.995282 -0.00578014 -0.132512 -0.991165 
0.0741951 -0.182248 -0.980449 0.208444 -0.301163 -0.930512 0.330501 -0.477092 -0.814342 
-0.386752 0.0117828 -0.922109 -0.130668 0.0380254 -0.990697 0.0275408 0.0372896 -0.998925 
0.129976 0.119094 -0.984339 0.0447363 0.100173 -0.993964 -0.0752398 0.020043 -0.996964 
-0.0822387 -0.059902 -0.994811 -0.0327608 0.0585708 -0.997746 0.0125618 -0.0252344 -0.999603 
0.0599271 -0.146118 -0.98745 0.192245 -0.294069 -0.936251 0.367849 -0.380056 -0.848672 
-0.32597 0.00349247 -0.945374 -0.090095 0.0209983 -0.995712 0.0734143 0.0854176 -0.993637 
0.10702 0.0583305 -0.992544 -0.0428089 -0.114025 -0.992555 -0.170217 0.0242766 -0.985108 
0.0113339 -0.0941639 -0.995492 0.0307369 -0.0172334 -0.999379 -0.136643 0.00717493 -0.990594 
-0.055922 -0.0855808 -0.994761 0.114173 -0.137122 -0.983952 0.282811 -0.237379 -0.929338 
-0.305074 -0.155619 -0.939528 -0.0512084 -0.106469 -0.992997 0.0530793 -0.0597619 -0.9968 
-0.100284 -0.103671 -0.989543 -0.0126091 -0.367402 -0.929977 -0.0332691 0.0805176 -0.996198 
-0.121387 -0.025748 -0.992271 0.0715185 0.0274 -0.997063 -0.0478343 0.0577167 -0.997186 
-0.0911355 0.0476158 -0.994699 0.0284125 -0.0137053 -0.999502 0.201311 -0.0953676 -0.974874 
0.511881 -0.146498 -0.846473 -0.58293 -0.298959 -0.755524 -0.256038 -0.228198 -0.939346 
0.0127359 -0.166752 -0.985917 0.0932202 -0.125675 -0.987682 -0.104137 -0.0746183 -0.99176 
-0.0176274 0.281599 -0.95937 0.105737 -0.183306 -0.977353 0.00927045 0.13165 -0.991253 
0.0980467 0.236187 -0.966748 -0.142733 0.0932151 -0.985362 -0.131807 0.0657546 -0.989092 
-0.0265623 0.0635737 -0.997624 0.146475 0.0683786 -0.986848 0.497601 0.0586707 -0.865419 
-0.523212 -0.135299 -0.841393 -0.202838 -0.0591004 -0.977427 0.0751247 -0.0462787 -0.9961 
0.14438 -0.0443244 -0.988529 0.121533 -0.0608335 -0.990721 -0.0197066 0.158601 -0.987146 
-0.00819977 0.0093149 -0.999923 0.209067 0.107922 -0.971928 0.0194279 -0.131258 -0.991158 
-0.188258 -0.0281116 -0.981717 -0.120327 0.0352948 -0.992107 0.0315641 0.049146 -0.998293 
0.201155 0.121616 -0.971981 0.515312 0.180796 -0.837715 -0.450865 0.0978118 -0.887217 
-0.194079 0.143371 -0.970453 0.0362521 0.0482679 -0.998176 0.0818829 0.0203477 -0.996434 
0.107816 -0.038618 -0.993421 0.117865 0.0146786 -0.992921 0.0276863 0.15241 -0.987929 
-0.0592791 0.0463621 -0.997164 -0.031251 -0.184992 -0.982243 -0.0231827 -0.0821981 -0.996346 
-0.0522922 -0.0786193 -0.995532 0.0721392 0.115051 -0.990737 0.273301 0.104044 -0.956285 
-0.524528 0.325606 -0.78667 -0.233464 0.280945 -0.930894 -0.0503818 0.216394 -0.975005 
0.0546782 0.14833 -0.987425 0.117873 0.138605 -0.983308 0.173957 0.190806 -0.966091 
0.0363194 0.26536 -0.963465 -0.151967 0.222063 -0.963117 -0.090444 0.101605 -0.990705 
-0.0804067 0.0355935 -0.996126 0.0710038 0.122865 -0.98988 0.21613 0.150351 -0.964719 
0.343364 0.299557 -0.89015 -0.303462 0.559637 -0.771179 -0.105635 0.479435 -0.871196 
0.0317394 0.453453 -0.890715 0.149009 0.507798 -0.848492 -0.236643 0.570688 -0.78633 
-0.0104439 0.438985 -0.898433 0.0766279 0.529837 -0.84463 0.236175 0.529267 -0.814922 
-0.113124 -0.483512 -0.867997 0.0157059 -0.551524 -0.834011 0.0440352 -0.939893 -0.338617 
-0.216391 -0.511135 -0.831815 -0.28474 -0.82187 -0.493409 -0.12211 -0.486352 -0.865189 
-0.169209 -0.503922 -0.847013 -0.230021 -0.666621 -0.709018 0.1325 -0.506001 -0.852295 
0.146237 -0.494459 -0.856811 0.149849 -0.508164 -0.848124 0.132877 -0.50227 -0.85444 
0.220227 -0.724005 -0.653695 0.127758 -0.548157 -0.82656 0.222596 -0.866282 -0.447221 
0.207204 -0.56082 -0.801591 -0.350813 -0.440967 -0.826122 -0.400516 -0.365259 -0.840341 
-0.516684 -0.507835 -0.689305 0.255523 -0.542472 -0.80027 0.30478 -0.507485 -0.805958 
0.384699 -0.672601 -0.632151 0.332518 -0.480542 -0.811487 -0.59202 -0.146514 -0.792493 
-0.932788 -0.175561 -0.314778 0.334328 -0.480355 -0.810854 0.397599 -0.422446 -0.814527 
0.615238 -0.727323 -0.304113 -0.552763 0.0458254 -0.832078 -0.934779 -0.0117764 -0.355036 
0.410284 -0.403429 -0.817871 0.730938 -0.590855 -0.341498 -0.511088 -0.0238251 -0.859198 
-0.918188 -0.0582643 -0.391836 0.555194 -0.275112 -0.784903 0.576801 -0.248336 -0.778222 
0.613932 -0.294195 -0.732487 -0.541837 -0.177285 -0.821573 -0.614564 -0.292425 -0.732665 
-0.880596 -0.20702 -0.426255 0.616391 -0.154691 -0.772096 -0.613437 -0.313287 -0.724946 
0.637764 0.0576093 -0.768074 0.96914 0.0460265 -0.242176 -0.716669 -0.179741 -0.673854 
0.554008 0.176057 -0.813683 0.540088 0.186905 -0.820592 -0.700225 0.0961675 -0.707415 
0.509911 0.185498 -0.839989 0.621454 0.226958 -0.749857 -0.566092 0.340714 -0.750635 
-0.532787 0.396812 -0.747448 0.235955 0.565773 -0.79008 0.0491431 0.453869 -0.889712 
-0.198926 0.52634 -0.826677 0.456723 0.337158 -0.823243 0.425846 0.446379 -0.78702 
0.788085 0.484536 -0.379667 -0.314869 0.563316 -0.763893 -0.619381 0.715555 -0.32303 
-0.305808 0.566755 -0.76503 -0.109527 0.666056 -0.737816 0.0602495 0.654329 -0.753806 
0.227375 0.591746 -0.773394 0.172936 0.621174 -0.764353 0.248561 0.625354 -0.739696 
0.0754197 0.80797 -0.584377 -0.238459 0.634194 -0.735483 -0.214161 0.759494 -0.614251 
-0.263702 0.664505 -0.699209 -0.0583931 0.694822 -0.716808 0.104067 0.676626 -0.728935 
0.359722 0.570528 -0.738307 0.248092 0.642079 -0.725386 0.545421 0.732041 -0.408207 
0.0198744 0.981957 -0.188059 0.0440277 -0.940008 -0.338301 -0.350765 -0.907339 -0.231733 
-0.258244 -0.923562 -0.28345 0.043166 -0.940133 -0.338062 -0.17072 -0.943247 -0.284851 
0.0445092 -0.940019 -0.338205 0.247724 -0.916145 -0.315136 0.273762 -0.905099 -0.325346 
0.249609 -0.921576 -0.297311 -0.530974 -0.836085 -0.137941 -0.59068 -0.7976 -0.122198 
0.298136 -0.920578 -0.252291 0.318148 -0.916717 -0.241686 0.450552 -0.860909 -0.236304 
-0.825081 -0.552684 -0.117399 -0.942968 -0.328981 -0.0508179 0.534829 -0.813125 -0.22975 
0.55503 -0.798082 -0.234536 0.626001 -0.753209 -0.201988 -0.977855 -0.204902 -0.0425939 
-0.94341 -0.218709 0.249288 0.63812 -0.742032 -0.205405 0.745303 -0.627577 -0.225102 
-0.988719 -0.042406 -0.143655 -0.931587 -0.0568354 0.359049 0.768769 -0.598307 -0.225884 
-0.990316 -0.0422155 -0.132254 0.896099 -0.364558 -0.253189 -0.974847 -0.191753 -0.113596 
0.968048 -0.164599 -0.189186 0.97123 -0.145792 -0.1883 -0.943344 -0.324921 -0.0672922 
0.981987 0.0444897 -0.183633 0.979812 0.0837895 -0.181515 0.986686 0.0612924 0.150643 
-0.973117 -0.210611 -0.0932015 0.967714 0.160034 -0.194726 -0.997355 0.067176 -0.0277592 
0.924738 0.330982 -0.18791 -0.930316 0.346802 -0.119336 0.84621 0.514962 -0.136904 
0.791941 0.599111 -0.117875 0.752503 0.56207 0.343244 -0.685559 0.718576 -0.116865 
-0.634787 0.763056 -0.12162 -0.675304 0.674863 0.29753 -0.374763 0.909557 -0.179607 
-0.0849408 0.985034 -0.149974 0.179346 0.967934 -0.175897 0.286996 0.932565 -0.218986 
0.0972653 0.958347 -0.268533 -0.165057 0.969257 -0.182473 -0.210048 0.977506 -0.0190479 
-0.0917204 0.993271 0.0707062 0.119443 0.991279 -0.0556734 0.313813 0.949234 0.0218058 
0.577856 0.814994 -0.0432132 0.518575 0.853641 -0.0487511 0.523279 0.786227 0.328674 
-0.0689291 0.986011 -0.151761 0.0795353 0.982668 -0.167443 0.0177358 0.986317 -0.163902 
0.0223874 0.999667 -0.0128522 0.0345954 -0.985655 0.165187 -0.462951 -0.796753 0.388408 
-0.358284 -0.896492 0.260643 -0.0677591 -0.983443 0.16807 -0.204054 -0.962944 0.176353 
0.0790787 -0.985267 0.151646 0.0300036 -0.978499 0.204059 0.219208 -0.969733 0.107542 
0.302553 -0.948825 0.0905167 0.302415 -0.946398 0.11347 -0.494645 -0.762428 0.417169 
-0.610708 -0.635926 0.471841 -0.481945 -0.740721 0.468039 -0.335247 -0.571061 0.749332 
0.341023 -0.92799 0.150129 0.298974 -0.851224 0.431315 0.354569 -0.920673 0.163226 
0.473766 -0.855571 0.20867 -0.715864 -0.536956 0.446337 -0.558746 -0.528598 0.639052 
-0.383271 -0.412135 0.826588 0.532339 -0.818345 0.216624 0.461399 -0.690246 0.557379 
0.548021 -0.807953 0.216527 0.614352 -0.75938 0.214274 -0.848866 -0.226417 0.477663 
-0.518521 -0.231667 0.823084 0.622925 -0.752559 0.213588 0.607133 -0.7482 0.267558 
0.755996 -0.617885 0.216075 -0.904312 -0.0585582 0.422837 -0.911137 -0.0425058 0.409905 
0.776361 -0.591483 0.217741 0.747406 -0.590934 0.303613 -0.91612 -0.0292544 0.399834 
-0.909326 -0.0304958 0.414965 0.915176 -0.329785 0.23172 -0.898388 -0.158244 0.409705 
-0.889804 -0.158005 0.428115 0.948161 -0.136349 0.287052 -0.86175 -0.313299 0.399037 
-0.786003 -0.266906 0.557638 0.956434 0.0654679 0.284513 -0.894514 -0.205602 0.396955 
-0.713978 -0.193817 0.672808 0.929224 0.180594 0.32238 -0.914604 0.0529492 0.400869 
0.86118 0.369036 0.349546 0.732758 0.550215 0.40041 0.636005 0.390716 0.665462 
-0.873774 0.326207 0.360704 -0.675315 0.674596 0.29811 -0.680133 0.303416 0.667351 
0.724453 0.558498 0.404039 0.499263 0.716947 0.486543 0.421664 0.499825 0.756555 
-0.675208 0.674717 0.29808 -0.391589 0.878066 0.275059 -0.0994528 0.967088 0.234202 
0.0289546 0.979834 0.197702 0.186971 0.955479 0.22826 0.241397 0.949566 0.200129 
0.132534 0.978059 0.160732 0.131228 0.825643 0.54872 -0.00382317 0.967734 0.251943 
0.0832674 0.877869 0.471607 -0.0354523 0.902908 0.42837 0.0576466 0.835796 0.546005 
-0.0633838 0.832998 0.549634 0.012704 0.777936 0.628216 0.0657148 0.844255 0.531897 
0.0632305 0.730136 0.68037 0.422029 0.761234 0.492355 0.219745 0.848206 0.481932 
0.221745 0.78057 0.584414 -0.231015 -0.615363 0.753632 -0.0685094 -0.741263 0.667709 
0.137747 -0.794085 0.591992 0.245959 -0.80722 0.536564 -0.323513 -0.562815 0.760643 
-0.333053 -0.550646 0.765418 -0.223361 -0.528336 0.819128 -0.112029 -0.53211 0.839231 
0.0755302 -0.620357 0.780674 0.276899 -0.798971 0.533829 0.223336 -0.736914 0.638027 
0.292215 -0.782902 0.54925 0.378207 -0.687812 0.619575 -0.362981 -0.361477 0.858824 
-0.34565 -0.356802 0.867882 -0.308328 -0.238142 0.92099 -0.262227 -0.176358 0.948754 
-0.15654 -0.225526 0.961579 -0.0247469 -0.254513 0.966753 0.126833 -0.332487 0.93454 
0.224798 -0.402431 0.887421 0.429621 -0.623687 0.653024 0.333447 -0.500513 0.798937 
0.421755 -0.607455 0.673143 0.409478 -0.592551 0.693694 -0.484092 -0.228655 0.844613 
-0.521471 -0.109853 0.846168 -0.260278 -0.219253 0.94031 -0.197237 -0.128787 0.97186 
-0.211102 -0.021682 0.977224 -0.204651 -0.0214154 0.978601 0.165932 -0.101516 0.980898 
0.184065 -0.20461 0.961382 0.275965 -0.37391 0.885457 0.421381 -0.591486 0.687446 
0.387158 -0.564131 0.72929 0.505731 -0.56425 0.652578 -0.528198 -0.0591851 0.847056 
-0.52246 -0.0595199 0.850584 -0.237499 -0.167657 0.95681 -0.117158 -0.121293 0.985678 
-0.159669 -0.0993192 0.982162 -0.195357 -0.0274542 0.980348 0.0712307 0.0647214 0.995358 
0.0623535 0.0336378 0.997487 0.0526691 -0.0992985 0.993663 0.0727822 -0.21062 0.974855 
0.201143 -0.360732 0.910722 0.547861 -0.513538 0.660399 0.466355 -0.463271 0.753587 
0.669475 -0.329669 0.665674 -0.591084 -0.0787293 0.802758 -0.564906 -0.082156 0.821055 
-0.295469 -0.204964 0.933107 -0.130919 -0.316569 0.939492 -0.124176 -0.383817 0.915022 
0.133454 -0.0642003 0.988973 0.00470916 -0.00541758 0.999974 -0.0692182 -0.0664477 0.995386 
-0.000380333 -0.128819 0.991668 0.146634 -0.140211 0.979203 0.365654 -0.192658 0.910593 
0.693947 -0.272938 0.66629 0.656537 -0.270166 0.704251 -0.673165 -0.164992 0.720851 
-0.63047 -0.17143 0.757047 -0.415666 -0.22597 0.880999 0.144531 -0.0403584 0.988677 
0.0598312 -0.0297066 0.997766 -0.0741938 -0.00806105 0.997211 0.335338 -0.047631 0.940893 
0.706883 -0.0726297 0.703591 0.613047 -0.0590195 0.787839 -0.685935 -0.240227 0.686865 
-0.574304 -0.215931 0.789651 0.136547 -0.0565115 0.98902 -0.0548064 0.00145468 0.998496 
0.116525 0.0771203 0.990189 0.315524 0.0948266 0.944168 0.683839 0.0688659 0.726375 
0.581629 0.0722221 0.810242 -0.704654 -0.191059 0.683344 -0.713651 -0.160852 0.681784 
-0.501487 -0.131272 0.855148 0.0369511 0.00799805 0.999285 0.0625276 0.0875437 0.994196 
0.176445 0.135377 0.974957 0.355968 0.185871 0.915827 0.640137 0.192851 0.743662 
0.603543 0.249444 0.757307 0.604273 0.194186 0.772752 -0.745672 0.0193713 0.666031 
-0.688156 0.210509 0.694354 -0.70184 0.025637 0.711873 -0.425574 0.0649604 0.902589 
0.0974605 0.204853 0.973929 0.126827 0.25689 0.958083 0.217049 0.279968 0.935151 
0.503615 0.357468 0.786504 0.405587 0.448954 0.796203 0.392894 0.314946 0.863969 
-0.646487 0.297399 0.702573 -0.457988 0.302782 0.835805 0.186203 0.428698 0.884051 
0.130342 0.813991 0.566065 0.0887862 0.41691 0.904601 0.108398 0.806649 0.581005 
0.0550605 0.458393 0.887042 0.108417 0.745574 0.657545 0.0958569 0.529541 0.842851 
0.0662992 0.689818 0.72094 0.102591 0.558063 0.823433 0.0893441 0.620691 0.778948 
0.103166 0.518429 0.848875 0.342805 0.500929 0.794705 0.213408 0.567747 0.79506 
0.21024 0.509797 0.83421 -0.420769 0.616559 0.665438 -0.405354 0.629718 0.662679 
-0.407781 0.610269 0.679181 -0.197867 0.774578 0.600731 -0.225135 0.654556 0.721714 
-0.00190118 0.849351 0.527826 -0.0089929 0.646852 0.762562 0.176966 0.821021 0.542778 
0.151845 0.693063 0.704704 0.135447 0.816255 0.561588 0.18976 0.815075 0.547397 
0.18998 0.766033 0.614085 -0.0402175 -0.153769 0.987288 0.0958811 -0.157447 0.982862 
-0.138119 -0.0324798 0.989883 -0.0570388 -0.0450296 0.997356 0.115889 -0.0689726 0.990864 
0.0720348 0.0414582 0.99654 0.073123 -0.0416421 0.996453 -0.0925741 -0.0268082 0.995345 
-0.124388 -0.230346 0.965126 0.0369672 0.0387334 0.998566 -0.0476769 -0.0259271 0.998526 
-0.204553 -0.323249 0.923941 -0.114782 -0.285184 0.951575 -0.11886 -0.385536 0.915005 
-0.110412 -0.264752 0.957975 0.100968 -0.0150914 0.994775 0.0837507 0.0209234 0.996267 
0.0418871 0.0767159 0.996173 0.0855884 -0.0916133 0.99211 -0.00268376 -0.103924 0.994582 
0.139656 -0.0314835 0.989699 -0.359211 -0.258221 0.896822 -0.399946 -0.192844 0.896021 
-0.255985 -0.298219 0.919531 -0.0834614 -0.308619 0.947517 0.173182 -0.107269 0.979031 
0.252557 -0.23992 0.937365 0.0579025 -0.101869 0.993111 0.155305 -0.137756 0.978214 
0.0291961 -0.0782216 0.996508 -0.0155457 -0.143188 0.989573 -0.0646534 -0.00893473 0.997868 
-0.0119899 -0.0137274 0.999834 0.147537 -0.0159498 0.988928 0.133815 0.00553606 0.990991 
0.138359 -0.0144115 0.990277 -0.417988 -0.172738 0.891879 -0.388656 -0.16357 0.906748 
-0.220086 -0.111307 0.969109 -0.069144 -0.0829711 0.99415 0.137669 -0.126317 0.982391 
0.181458 -0.287519 0.940429 0.145095 -0.0550025 0.987888 0.163151 -0.0479954 0.985433 
0.117603 -0.0620079 0.991123 -0.0135789 0.0478711 0.998761 0.0160812 0.0601886 0.998057 
0.00550008 0.0612161 0.998109 -0.00662186 0.0560243 0.998407 -0.405811 -0.0968821 0.908808 
-0.320401 -0.0666363 0.944936 -0.185971 -0.0264103 0.9822 -0.0947758 0.016507 0.995362 
0.077039 0.105485 0.991432 0.230317 0.115494 0.966238 0.186682 0.0931974 0.97799 
0.0614598 -0.0156066 0.997988 0.111862 -0.062509 0.991756 -0.370536 0.0817854 0.92521 
-0.30631 0.0974838 0.946927 -0.13013 0.108752 0.985515 0.0620001 0.200003 0.977832 
0.199162 0.404873 0.892419 0.229407 0.342477 0.911088 0.131373 0.313196 0.940558 
0.135339 0.308713 0.941477 0.00191704 0.25286 0.967501 -0.00219868 0.232467 0.972602 
0.062776 0.183246 0.981061 0.0521106 0.198868 0.97864 0.0498387 0.176327 0.983069 
-0.286414 0.290917 0.912872 -0.277348 0.303228 0.911664 -0.278536 0.290531 0.915429 
-0.0356053 0.461122 0.886622 -0.0657632 0.359699 0.930748 0.17471 0.424533 0.888396 
0.145084 0.483278 0.863361 0.148022 0.429846 0.890686 
