# vtk DataFile Version 4.2
vtk output
ASCII
DATASET POLYDATA
POINTS 536 float
-12.3067 28.6319 -20.5714 -27.9123 -18.1849 -12.6715 -20.1095 -18.1849 -13.0854 
-12.3067 -18.1849 -12.9714 26.7073 -18.1849 -13.5843 34.5101 -18.1849 -14.9793 
42.3129 -18.1849 -14.9393 -43.5179 -10.3821 -13.6752 -35.7151 -10.3821 -14.5134 
-27.9123 -10.3821 -14.3608 -20.1095 -10.3821 -13.8089 -12.3067 -10.3821 -14.3985 
-4.50393 -10.3821 -12.8975 3.29887 -10.3821 -12.8359 18.9045 -10.3821 -13.0782 
26.7073 -10.3821 -15.4716 34.5101 -10.3821 -16.8972 42.3129 -10.3821 -17.1494 
50.1157 -10.3821 -15.4844 -51.3207 -2.57932 -13.2541 -43.5179 -2.57932 -15.792 
-35.7151 -2.57932 -16.6052 -27.9123 -2.57932 -16.0021 -20.1095 -2.57932 -14.9523 
-12.3067 -2.57932 -16.4786 -4.50393 -2.57932 -14.3683 3.29887 -2.57932 -14.3316 
18.9045 -2.57932 -13.9753 26.7073 -2.57932 -16.3435 34.5101 -2.57932 -17.694 
42.3129 -2.57932 -18.1056 50.1157 -2.57932 -16.4467 -51.3207 5.22348 -15.4515 
-43.5179 5.22348 -17.6537 -35.7151 5.22348 -18.0645 -27.9123 5.22348 -17.6262 
-20.1095 5.22348 -16.7913 -12.3067 5.22348 -18.8118 -4.50393 5.22348 -18.1356 
3.29887 5.22348 -14.1719 11.1017 5.22348 -12.9857 18.9045 5.22348 -14.3189 
26.7073 5.22348 -16.0331 34.5101 5.22348 -16.8585 42.3129 5.22348 -16.7687 
50.1157 5.22348 -15.2078 -51.3207 13.0263 -13.8713 -43.5179 13.0263 -17.175 
-35.7151 13.0263 -18.1826 -27.9123 13.0263 -17.9028 -20.1095 13.0263 -17.7067 
-12.3067 13.0263 -18.9913 -4.50393 13.0263 -17.842 3.29887 13.0263 -14.033 
11.1017 13.0263 -15.3474 18.9045 13.0263 -15.8497 26.7073 13.0263 -16.1272 
34.5101 13.0263 -16.0577 42.3129 13.0263 -14.9389 -43.5179 20.8291 -15.5638 
-35.7151 20.8291 -17.4971 -27.9123 20.8291 -18.8509 -20.1095 20.8291 -19.0096 
-12.3067 25.9978 -20.4047 -12.3067 20.8291 -20.0651 -4.50393 20.8291 -18.5022 
3.29887 20.8291 -16.3973 11.1017 20.8291 -16.7635 18.9045 20.8291 -17.2195 
26.7073 20.8291 -16.2322 34.5101 20.8291 -14.8055 -35.7151 28.6319 -15.7625 
-27.9123 28.6319 -18.1116 -13.5744 28.6319 -20.4047 -20.1095 28.6319 -19.5941 
-11.3468 28.6319 -20.4047 -12.3067 30.3705 -20.4047 -4.50393 28.6319 -19.2095 
3.29887 28.6319 -17.698 11.1017 28.6319 -17.3897 18.9045 28.6319 -17.7233 
26.7073 28.6319 -16.2549 34.5101 28.6319 -12.6693 -27.9123 36.4347 -16.7562 
-20.1095 36.4347 -18.8668 -12.3067 36.4347 -19.7804 -4.50393 36.4347 -18.9346 
3.29887 36.4347 -17.6188 11.1017 36.4347 -16.9381 18.9045 36.4347 -17.0975 
26.7073 36.4347 -14.684 -20.1095 44.2375 -14.485 -12.3067 44.2375 -16.7312 
-4.50393 44.2375 -16.1043 3.29887 44.2375 -14.9858 11.1017 44.2375 -14.545 
-12.3067 -41.5933 -5.89081 -4.50393 -41.5933 -6.94605 3.29887 -41.5933 -7.35464 
11.1017 -41.5933 -6.60846 18.9045 -41.5933 -4.82047 -27.9123 -33.7905 -7.7485 
-20.1095 -33.7905 -9.03669 -12.3067 -33.7905 -9.5287 -4.50393 -33.7905 -10.598 
3.29887 -33.7905 -10.6864 11.1017 -33.7905 -10.4808 18.9045 -33.7905 -9.02905 
26.7073 -33.7905 -8.30285 34.5101 -33.7905 -6.74739 -43.5179 -25.9877 -5.5637 
-35.7151 -25.9877 -8.91997 -27.9123 -18.4773 -12.6019 -27.9123 -25.9877 -10.7122 
-20.1095 -20.5744 -12.6019 -20.1095 -25.9877 -11.4878 -12.3067 -20.1379 -12.6019 
-12.3067 -25.9877 -11.4825 -4.50393 -25.9877 -11.1175 3.29887 -25.9877 -11.9026 
11.1017 -25.9877 -11.6132 18.9045 -25.9877 -10.7753 26.7073 -22.436 -12.6019 
26.7073 -25.9877 -11.7275 34.5101 -23.9852 -12.6019 34.5101 -25.9877 -11.6712 
42.3129 -25.3026 -12.6019 42.3129 -25.9877 -12.1475 50.1157 -25.9877 -6.15188 
-51.3207 -18.1849 -5.67108 -43.5179 -13.0298 -12.6019 -43.5179 -18.1849 -10.327 
-29.1918 -18.1849 -12.6019 -35.7151 -16.9437 -12.6019 -35.7151 -18.1849 -12.2146 
-10.339 -18.1849 -12.6019 -4.50393 -11.9207 -12.6019 -4.50393 -18.1849 -11.5187 
3.29887 -12.0435 -12.6019 3.29887 -18.1849 -11.908 11.1017 -18.1849 -10.7992 
22.3834 -18.1849 -12.6019 18.9045 -13.3061 -12.6019 18.9045 -18.1849 -11.7855 
48.7125 -18.1849 -12.6019 50.1157 -16.9367 -12.6019 50.1157 -18.1849 -11.8363 
57.9184 -18.1849 -5.28405 -47.1227 -10.3821 -12.6019 -51.3207 -5.0082 -12.6019 
-51.3207 -10.3821 -10.8742 3.77252 -10.3821 -12.6019 17.8509 -10.3821 -12.6019 
11.1017 -10.3821 -9.68071 56.3254 -10.3821 -12.6019 57.9184 -10.3821 -11.0639 
-52.3481 -2.57932 -12.6019 -59.1235 -2.57932 -5.08824 6.87925 -2.57932 -12.6019 
15.2435 -2.57932 -12.6019 11.1017 3.73684 -12.6019 11.1017 -2.57932 -10.9212 
56.5961 -2.57932 -12.6019 57.9184 -2.57932 -11.3685 -54.6559 5.22348 -12.6019 
54.8169 5.22348 -12.6019 50.1157 11.3063 -12.6019 57.9184 5.22348 -10.1533 
-52.6681 13.0263 -12.6019 -51.3207 15.626 -12.6019 48.3227 13.0263 -12.6019 
42.3129 18.7397 -12.6019 50.1157 13.0263 -11.7054 -48.5576 20.8291 -12.6019 
-51.3207 20.8291 -7.49113 -43.5179 27.3665 -12.6019 40.0445 20.8291 -12.6019 
42.3129 20.8291 -11.4207 -42.1433 28.6319 -12.6019 -43.5179 28.6319 -11.0714 
-35.7151 35.063 -12.6019 34.6282 28.6319 -12.6019 34.5101 28.7632 -12.6019 
-34.6747 36.4347 -12.6019 -35.7151 36.4347 -10.9365 -27.9123 41.942 -12.6019 
18.9045 43.5665 -12.6019 29.7207 36.4347 -12.6019 26.7073 39.2934 -12.6019 
-23.809 44.2375 -12.6019 -20.1095 45.9685 -12.6019 -12.3067 47.9864 -12.6019 
-4.50393 47.8998 -12.6019 3.29887 47.0764 -12.6019 17.6071 44.2375 -12.6019 
11.1017 46.3454 -12.6019 18.9045 44.2375 -11.536 -12.3067 -42.9591 -4.79914 
-4.50393 -44.5855 -4.79914 -4.50393 -49.3961 2.47417 3.29887 -44.8691 -4.79914 
11.1017 -43.3935 -4.79914 18.9045 -41.6131 -4.79914 -27.9123 -38.7781 -4.79914 
-27.9123 -41.5933 -2.63517 -17.3688 -41.5933 -4.79914 -20.1095 -40.8426 -4.79914 
-20.1095 -41.5933 -4.14523 19.0395 -41.5933 -4.79914 26.7073 -40.0052 -4.79914 
26.7073 -41.5933 -1.66466 34.5101 -35.9296 -4.79914 -43.5179 -27.1331 -4.79914 
-43.5179 -33.7905 1.2601 -34.6443 -33.7905 -4.79914 -35.7151 -33.1113 -4.79914 
-35.7151 -33.7905 -4.24752 41.226 -33.7905 -4.79914 42.3129 -33.3953 -4.79914 
42.3129 -33.7905 -2.67625 50.1157 -26.8751 -4.79914 -44.703 -25.9877 -4.79914 
-51.3207 -19.3066 -4.79914 -51.3207 -25.9877 2.41111 51.0141 -25.9877 -4.79914 
57.9184 -18.5128 -4.79914 -52.1013 -18.1849 -4.79914 58.1587 -18.1849 -4.79914 
57.9184 -18.1849 -2.61592 -57.9595 -10.3821 -4.79914 -59.1235 -3.80319 -4.79914 
61.1157 -10.3821 -4.79914 -59.2534 -2.57932 -4.79914 -59.1235 -1.08056 -4.79914 
-59.1235 -2.57932 -3.38516 62.5126 -2.57932 -4.79914 -58.5893 5.22348 -4.79914 
61.4799 5.22348 -4.79914 57.9184 11.8384 -4.79914 -56.3016 13.0263 -4.79914 
57.0891 13.0263 -4.79914 50.1157 20.6665 -4.79914 -52.2811 20.8291 -4.79914 
-51.3207 22.203 -4.79914 -51.3207 20.8291 -2.43771 49.9338 20.8291 -4.79914 
42.3129 27.869 -4.79914 -46.4041 28.6319 -4.79914 -43.5179 31.8845 -4.79914 
-43.5179 28.6319 1.41191 41.5572 28.6319 -4.79914 34.5101 35.9814 -4.79914 
-38.7632 36.4347 -4.79914 -35.7151 38.8925 -4.79914 -35.7151 36.4347 0.816722 
-27.9123 43.8052 -4.79914 34.1068 36.4347 -4.79914 26.7073 42.6737 -4.79914 
-26.9197 44.2375 -4.79914 -20.1095 47.2114 -4.79914 -20.1095 44.2375 1.1428 
-12.3067 49.6411 -4.79914 -4.50393 50.2175 -4.79914 3.29887 50.16 -4.79914 
11.1017 49.1932 -4.79914 23.8413 44.2375 -4.79914 18.9045 46.6599 -4.79914 
18.9045 44.2375 1.29087 -4.50393 -49.6198 3.00365 -27.9123 -45.2802 3.00365 
-20.1095 -47.7057 3.00365 -9.63012 -49.3961 3.00365 -12.3067 -49.2606 3.00365 
-1.93573 -49.3961 3.00365 -4.50393 -49.3961 4.6437 3.29887 -48.9313 3.00365 
11.1017 -47.182 3.00365 18.9045 -45.2071 3.00365 26.7073 -42.9665 3.00365 
-43.5179 -35.0553 3.00365 -34.8793 -41.5933 3.00365 -35.7151 -40.9861 3.00365 
18.9045 -41.5933 9.76689 30.1835 -41.5933 3.00365 26.7073 -41.5933 6.85863 
34.5101 -39.7601 3.00365 42.3129 -34.5041 3.00365 -44.8722 -33.7905 3.00365 
-51.3207 -26.4129 3.00365 34.5101 -33.7905 10.5761 43.1601 -33.7905 3.00365 
42.3129 -33.7905 4.14298 50.1157 -26.7389 3.00365 -51.6594 -25.9877 3.00365 
-51.3207 -25.9877 5.305 50.7518 -25.9877 3.00365 50.1157 -25.9877 3.89658 
-55.951 -18.1849 3.00365 57.1586 -18.1849 3.00365 57.9184 -16.4688 3.00365 
-58.0242 -10.3821 3.00365 60.1642 -10.3821 3.00365 57.9184 -10.3821 6.42349 
-58.4027 -2.57932 3.00365 -51.3207 -2.57932 10.2781 61.751 -2.57932 3.00365 
57.9184 -2.57932 9.21068 -55.7782 5.22348 3.00365 -51.3207 5.22348 8.28218 
61.2205 5.22348 3.00365 57.9184 11.4273 3.00365 57.9184 5.22348 8.31151 
-53.1494 13.0263 3.00365 -51.3207 16.1539 3.00365 -51.3207 13.0263 4.80837 
-43.5179 13.0263 10.1452 56.8749 13.0263 3.00365 50.1157 20.5494 3.00365 
50.1157 13.0263 10.7644 -48.5743 20.8291 3.00365 -43.5179 27.5214 3.00365 
-43.5179 20.8291 7.6569 49.7944 20.8291 3.00365 42.3129 27.2268 3.00365 
42.3129 20.8291 10.388 -42.3566 28.6319 3.00365 -35.7151 34.9332 3.00365 
-35.7151 28.6319 8.07534 40.6625 28.6319 3.00365 34.5101 33.9161 3.00365 
34.5101 28.6319 8.83611 -33.8905 36.4347 3.00365 -27.9123 40.0172 3.00365 
-27.9123 36.4347 6.59733 -20.1095 43.1381 3.00365 -20.1095 36.4347 9.34789 
18.9045 43.3695 3.00365 18.9045 36.4347 9.54971 31.2871 36.4347 3.00365 
26.7073 39.6689 3.00365 26.7073 36.4347 6.80411 -17.3485 44.2375 3.00365 
-12.3067 45.8604 3.00365 -12.3067 44.2375 5.07416 -4.50393 47.2637 3.00365 
-4.50393 44.2375 6.82884 3.29887 47.2488 3.00365 3.29887 44.2375 6.59123 
16.7147 44.2375 3.00365 11.1017 46.0578 3.00365 11.1017 44.2375 5.22044 
-27.9123 -44.8232 10.8064 -20.1095 -47.5951 10.8064 -12.3067 -48.6778 10.8064 
-4.50393 -48.0274 10.8064 3.29887 -46.2022 10.8064 11.1017 -43.7249 10.8064 
-43.5179 -35.2623 10.8064 -35.5598 -41.5933 10.8064 -35.7151 -41.5126 10.8064 
-27.9123 -41.5933 13.9369 -20.1095 -41.5933 15.812 -12.3067 -41.5933 16.2883 
-4.50393 -41.5933 15.8713 3.29887 -41.5933 14.5233 16.7681 -41.5933 10.8064 
11.1017 -41.5933 12.5446 18.9045 -40.5674 10.8064 26.7073 -39.0531 10.8064 
-44.9278 -33.7905 10.8064 -43.5179 -33.7905 12.4978 -35.7151 -33.7905 16.363 
-20.1095 -33.7905 18.4535 3.29887 -33.7905 17.4856 11.1017 -33.7905 16.0273 
18.9045 -33.7905 14.9102 34.0815 -33.7905 10.8064 26.7073 -33.7905 13.5744 
34.5101 -33.4711 10.8064 42.3129 -26.2181 10.8064 -50.3355 -25.9877 10.8064 
[...]
POINT_DATA 536
SCALARS ImageScalars float
LOOKUP_TABLE default
0 0 0 0 0 0 0 0 0 
0 0 0 0 0 0 0 0 0 
0 0 0 0 0 0 0 0 0 
0 0 0 0 0 0 0 0 0 
0 0 0 0 0 0 0 0 0 
0 0 0 0 0 0 0 0 0 
0 0 0 0 0 0 0 0 0 
0 0 0 0 0 0 0 0 0 
0 0 0 0 0 0 0 0 0 
0 0 0 0 0 0 0 0 0 
0 0 0 0 0 0 0 0 0 
0 0 0 0 0 0 0 0 0 
0 0 0 0 0 0 0 0 0 
0 0 0 0 0 0 0 0 0 
0 0 0 0 0 0 0 0 0 
0 0 0 0 0 0 0 0 0 
0 0 0 0 0 0 0 0 0 
0 0 0 0 0 0 0 0 0 
0 0 0 0 0 0 0 0 0 
0 0 0 0 0 0 0 0 0 
0 0 0 0 0 0 0 0 0 
0 0 0 0 0 0 0 0 0 
0 0 0 0 0 0 0 0 0 
0 0 0 0 0 0 0 0 0 
0 0 0 0 0 0 0 0 0 
0 0 0 0 0 0 0 0 0 
0 0 0 0 0 0 0 0 0 
0 0 0 0 0 0 0 0 0 
0 0 0 0 0 0 0 0 0 
0 0 0 0 0 0 0 0 0 
0 0 0 0 0 0 0 0 0 
0 0 0 0 0 0 0 0 0 
0 0 0 0 0 0 0 0 0 
0 0 0 0 0 0 0 0 0 
0 0 0 0 0 0 0 0 0 
0 0 0 0 0 0 0 0 0 
0 0 0 0 0 0 0 0 0 
0 0 0 0 0 0 0 0 0 
0 0 0 0 0 0 0 0 0 
0 0 0 0 0 0 0 0 0 
0 0 0 0 0 0 0 0 0 
0 0 0 0 0 0 0 0 0 
0 0 0 0 0 0 0 0 0 
0 0 0 0 0 0 0 0 0 
0 0 0 0 0 0 0 0 0 
0 0 0 0 0 0 0 0 0 
0 0 0 0 0 0 0 0 0 
0 0 0 0 0 0 0 0 0 
0 0 0 0 0 0 0 0 0 
0 0 0 0 0 0 0 0 0 
0 0 0 0 0 0 0 0 0 
0 0 0 0 0 0 0 0 0 
0 0 0 0 0 0 0 0 0 
0 0 0 0 0 0 0 0 0 
0 0 0 0 0 0 0 0 0 
0 0 0 0 0 0 0 0 0 
0 0 0 0 0 0 0 0 0 
0 0 0 0 0 0 0 0 0 
0 0 0 0 0 0 0 0 0 
0 0 0 0 0 
NORMALS Normals float
-0.0199708 -0.0155077 0.99968 0.0529748 0.22317 0.973339 0.0183514 0.145651 0.989166 
-0.101133 0.184813 0.977556 0.193847 0.231071 0.95343 0.0832604 0.300136 0.950256 
-0.154521 0.28998 0.944476 0.18642 0.322892 0.927894 0.0391897 0.276064 0.96034 
-0.0446048 0.20886 0.976928 0.00248417 0.117719 0.993044 -0.0490688 0.200235 0.978518 
-0.106033 0.164293 0.980696 -0.260601 0.168987 0.950542 0.363723 0.136196 0.921497 
0.242934 0.176794 0.953796 0.104084 0.167815 0.980309 -0.0907493 0.212667 0.972902 
-0.305592 0.242203 0.920842 0.437317 0.219834 0.872025 0.18123 0.236204 0.954654 
0.0106733 0.218431 0.975794 -0.103818 0.206192 0.972989 0.0143694 0.193308 0.981033 
0.00599674 0.289487 0.957163 -0.147326 0.350118 0.925047 -0.237839 0.0882776 0.967285 
0.312414 0.0759087 0.946908 0.2297 0.0337132 0.972677 0.111976 -0.0027272 0.993707 
-0.0912406 -0.0238709 0.995543 -0.334173 -0.0105445 0.942453 0.495738 0.0491901 0.867078 
0.133946 0.0903613 0.98686 -0.00369792 0.099358 0.995045 -0.0803918 0.119 0.989634 
0.0534579 0.172623 0.983536 0.109155 0.151702 0.982381 -0.338553 0.175381 0.924459 
-0.27521 -0.0165861 0.961241 0.011016 0.264728 0.96426 0.187708 0.115388 0.975424 
0.161109 -0.0140073 0.986837 0.0467284 -0.107728 0.993082 -0.0981648 -0.19904 0.975062 
-0.334902 -0.266012 0.903924 0.609354 -0.277062 0.742916 0.216431 -0.14261 0.965826 
0.0399386 -0.0393782 0.998426 -0.030221 0.0763957 0.996619 0.0632799 0.141924 0.987853 
0.0245127 0.0784984 0.996613 -0.327154 0.029953 0.944496 -0.118595 0.144591 0.982359 
0.109675 0.231748 0.966573 0.0482562 0.186117 0.981342 0.0123574 0.012634 0.999844 
-0.0712163 -0.120932 0.990103 -0.244213 -0.281744 0.92789 0.383933 -0.266145 0.884173 
0.201562 -0.133484 0.970338 0.10465 0.0105311 0.994453 0.0772725 0.12669 0.988928 
-0.0240848 0.021081 0.999488 -0.0304993 0.0969597 0.994821 -0.233181 0.0802616 0.969115 
-0.110038 0.227648 0.967506 0.052978 0.127412 0.990434 -0.0334706 0.115195 0.992779 
-0.145713 0.00817866 0.989293 -0.258114 -0.204385 0.944248 0.356928 -0.344507 0.868284 
0.229052 -0.124233 0.965454 0.00950741 -0.0149063 0.999844 0.157819 -0.00837393 0.987432 
-0.0413785 -0.0106654 0.999087 -0.0146753 -0.0581288 0.998201 -0.189853 0.0284328 0.981401 
-0.114944 0.0759262 0.990466 0.00117416 0.0114207 0.999934 -0.0738821 -0.00158635 0.997266 
-0.274456 -0.0935964 0.957034 -0.512081 -0.366836 0.776663 0.419293 -0.405853 0.812082 
0.182263 -0.267626 0.946127 0.00713556 -0.220706 0.975314 -0.136955 -0.164336 0.976851 
-0.122795 -0.14534 0.981732 -0.0338751 -0.171635 0.984578 -0.14264 -0.317259 0.93755 
-0.44234 -0.421757 0.79149 0.3356 -0.739733 0.58324 0.0850995 -0.596215 0.798302 
-0.109603 -0.57548 0.810439 -0.0958185 -0.540834 0.835654 -0.167707 -0.582462 0.795369 
0.151991 0.553895 0.818596 0.077494 0.53352 0.84223 -0.0113967 0.552112 0.833692 
-0.137068 0.637117 0.758482 -0.15916 0.72737 0.667534 0.259582 0.438805 0.860272 
0.0925671 0.390539 0.915921 0.0948108 0.30197 0.948591 0.0687662 0.243233 0.967527 
-0.00657502 0.264967 0.964235 -0.101211 0.255103 0.961602 -0.133532 0.315659 0.93943 
-0.110881 0.455644 0.883229 -0.225029 0.65459 0.721716 0.432712 0.495301 0.753284 
0.255766 0.404958 0.877834 0.0567411 0.224178 0.972895 0.156336 0.271113 0.949767 
0.0255752 0.181315 0.983092 0.0447131 0.258129 0.965075 -0.0830799 0.190095 0.978244 
-0.0247276 0.206517 0.97813 0.0276709 0.0563187 0.998029 0.0337786 0.0774357 0.996425 
-0.0729792 0.0130546 0.997248 0.00182327 0.163437 0.986552 0.123005 0.279433 0.952254 
0.057548 0.325374 0.943833 0.0543522 0.393983 0.917509 0.0139445 0.445867 0.894991 
-0.169543 0.552548 0.816055 -0.180737 0.585958 0.789929 -0.620614 0.702056 0.349221 
0.621583 0.489022 0.611957 0.217638 0.35651 0.908589 0.297494 0.424768 0.855026 
0.0650488 0.242225 0.968037 0.113548 0.327896 0.937865 0.128934 0.337491 0.932457 
-0.0924604 0.167367 0.98155 -0.100811 0.148671 0.983735 -0.0636988 0.10631 0.992291 
-0.208649 0.137465 0.968281 -0.0463591 0.0417213 0.998053 -0.0125185 -0.123142 0.99231 
0.185588 0.184511 0.965149 0.300276 0.141483 0.943301 0.179004 0.142539 0.973468 
-0.366756 0.398207 0.840786 -0.39268 0.398003 0.829094 -0.431385 0.444738 0.78493 
-0.806566 0.548083 0.221487 0.309047 0.338318 0.888837 0.443413 0.255131 0.85924 
0.493379 0.381052 0.781905 -0.245343 0.155386 0.956902 0.328978 0.12298 0.936295 
0.059975 -0.000132993 0.9982 -0.602481 0.202214 0.772092 -0.745151 0.202244 0.63549 
0.482487 0.210174 0.850314 0.978102 0.0157594 0.20753 -0.118985 0.1844 0.975622 
0.196561 0.15214 0.968616 0.0102134 0.265786 0.963978 0.0417281 0.240208 0.969824 
-0.634588 -0.0498976 0.771238 -0.728005 -0.0417293 0.684301 0.686631 -0.00438012 0.726993 
-0.526602 -0.278916 0.803054 -0.435313 -0.381918 0.815256 -0.721712 -0.288163 0.62936 
0.683789 -0.3 0.665156 0.683182 -0.340161 0.646184 -0.418168 -0.382155 0.824071 
-0.377324 -0.390268 0.839832 -0.481319 -0.42916 0.7643 0.651273 -0.389877 0.65103 
0.83638 -0.52322 0.163434 0.569477 -0.516225 0.639693 -0.376811 -0.364935 0.851373 
-0.457292 -0.461664 0.760099 0.560831 -0.525935 0.639422 0.644652 -0.596319 0.478359 
0.54341 -0.528192 0.652471 -0.514741 -0.369505 0.773633 -0.51595 -0.370511 0.772345 
0.552709 -0.551573 0.624724 0.596822 -0.633994 0.491788 0.467971 -0.723346 0.507713 
-0.348371 -0.66235 0.663272 -0.551559 -0.490822 0.674446 -0.471174 -0.603149 0.643588 
0.399551 -0.791234 0.462934 0.3389 -0.822516 0.456742 0.11452 -0.877386 0.465916 
-0.0513057 -0.810834 0.583022 -0.0973604 -0.72841 0.678189 -0.331409 -0.678452 0.655645 
-0.171632 -0.734077 0.657019 -0.378355 -0.739192 0.557173 0.162913 0.590723 0.790257 
0.0801862 0.658472 0.748322 -0.0174539 0.983134 0.182052 -0.059575 0.711032 0.700631 
-0.17084 0.727324 0.66469 -0.159246 0.72847 0.666313 0.283229 0.567461 0.773156 
0.303891 0.708867 0.63652 0.14798 0.615327 0.774257 0.139896 0.620588 0.771557 
0.149361 0.662164 0.734323 -0.160324 0.728919 0.665562 -0.221788 0.723814 0.653378 
-0.287736 0.888651 0.357081 -0.312677 0.712108 0.628598 0.447889 0.512033 0.732951 
0.584477 0.720998 0.372222 0.359855 0.549306 0.754166 0.360906 0.551967 0.751717 
0.380253 0.579695 0.720667 -0.432226 0.765604 0.476478 -0.452838 0.771223 0.447385 
-0.527551 0.805632 0.26953 -0.635919 0.724241 0.266611 0.462129 0.507718 0.72709 
0.631108 0.499617 0.593367 0.789389 0.581085 0.198002 -0.650283 0.71715 0.250654 
-0.811486 0.552739 0.189658 0.656892 0.488985 0.573923 -0.818536 0.542975 0.187556 
-0.840783 0.540149 0.036368 0.868303 0.369529 0.330905 0.977061 0.0602671 0.204254 
-0.946701 0.277887 0.162897 0.982441 0.0102521 0.186291 0.987997 -0.0259783 0.152272 
0.995844 -0.010442 0.0904769 -0.974619 0.0210302 0.222881 0.985506 -0.168868 0.0161847 
-0.914796 -0.312884 0.255446 -0.8015 -0.542465 0.251654 0.919981 -0.391922 -0.00563754 
-0.774463 -0.578091 0.256938 -0.67263 -0.703126 0.230613 0.842867 -0.537941 -0.0139288 
0.832202 -0.553524 -0.0324178 0.815508 -0.548856 -0.183589 -0.672609 -0.703273 0.230228 
-0.686773 -0.702148 0.187965 0.772838 -0.633869 -0.0305232 0.727117 -0.685442 -0.0383411 
0.655878 -0.616641 -0.435406 -0.693768 -0.698582 0.175129 -0.722978 -0.68431 0.0949864 
0.640133 -0.766959 -0.0447574 0.594716 -0.803632 -0.0220995 0.594293 -0.690138 -0.412947 
0.477865 -0.871875 -0.107139 -0.717444 -0.691631 0.0831883 -0.554533 -0.832151 -0.00421396 
0.459984 -0.880543 -0.114275 0.344278 -0.931588 -0.116689 0.336218 -0.80276 -0.492477 
0.184755 -0.974169 -0.12985 0.0286715 -0.997692 -0.0615444 -0.0663332 -0.997341 -0.030171 
-0.213529 -0.976625 -0.0246845 -0.482244 -0.87589 -0.0160755 -0.373729 -0.927466 -0.0115566 
-0.378054 -0.813806 -0.441356 -0.0226359 0.988821 0.147377 0.371841 0.891319 0.259392 
0.247302 0.922409 0.296653 0.0626703 0.976446 0.20646 0.108212 0.965557 0.236622 
-0.0680628 0.990739 0.117485 -0.0455275 0.998443 0.0322322 -0.154817 0.986302 0.0569259 
-0.234318 0.971794 0.026683 -0.265731 0.963843 -0.0198486 -0.330711 0.943384 -0.0256308 
0.605353 0.746306 0.276721 0.52271 0.798236 0.299321 0.537297 0.785519 0.307037 
-0.221515 0.766516 -0.602813 -0.379908 0.923841 -0.0467752 -0.316602 0.887361 -0.335193 
-0.462433 0.883452 -0.0752838 -0.617877 0.765229 -0.1807 0.630191 0.729994 0.264515 
0.796492 0.581914 0.164244 -0.407071 0.557321 -0.723662 -0.631037 0.752391 -0.188944 
-0.616314 0.741558 -0.265045 -0.735783 0.623822 -0.26357 0.802888 0.574666 0.158522 
0.826992 0.562178 -0.00633233 -0.739781 0.615372 -0.272106 -0.72574 0.609114 -0.319815 
0.940863 0.338779 -0.00218161 -0.814144 0.475695 -0.332992 -0.832343 0.434365 -0.344284 
0.953035 0.150611 -0.262756 -0.901192 0.284013 -0.327399 -0.779999 0.296845 -0.550895 
0.923185 -0.109282 -0.368492 0.595674 -0.202305 -0.777333 -0.945355 0.0600835 -0.320459 
-0.74307 0.0732408 -0.665194 0.776773 -0.289682 -0.559203 0.63643 -0.269321 -0.722789 
-0.916311 -0.270477 -0.295324 -0.820094 -0.508102 -0.263208 -0.762249 -0.254749 -0.595046 
0.738218 -0.362125 -0.569122 0.692234 -0.422039 -0.585401 0.655644 -0.379306 -0.652884 
0.463085 -0.282938 -0.839939 -0.788143 -0.558767 -0.258088 -0.66726 -0.706939 -0.234522 
-0.531436 -0.4231 -0.733868 0.660171 -0.47934 -0.578279 0.615096 -0.568633 -0.546181 
0.552054 -0.380695 -0.741827 -0.662951 -0.711088 -0.234202 -0.615299 -0.733873 -0.287816 
-0.451586 -0.577884 -0.679794 0.598782 -0.583763 -0.548343 0.55309 -0.604864 -0.572915 
0.465203 -0.479977 -0.74378 -0.609633 -0.731795 -0.30467 -0.583079 -0.720256 -0.375833 
-0.456415 -0.621139 -0.637081 0.518503 -0.634758 -0.57292 0.355836 -0.733572 -0.579011 
0.347807 -0.624087 -0.699675 0.317847 -0.728877 -0.606393 0.269127 -0.572438 -0.774523 
-0.34944 -0.74412 -0.569366 -0.195977 -0.580633 -0.790227 -0.53307 -0.728498 -0.430263 
-0.454692 -0.739767 -0.495985 -0.386363 -0.6753 -0.628246 0.287959 -0.763584 -0.577944 
0.199065 -0.816139 -0.542485 0.218152 -0.768046 -0.602092 0.0787123 -0.845746 -0.527748 
0.0663567 -0.734182 -0.675702 -0.0714711 -0.834425 -0.546468 -0.0770736 -0.714361 -0.69552 
-0.318333 -0.762196 -0.563669 -0.192529 -0.817455 -0.542863 -0.206486 -0.730962 -0.65043 
0.353436 0.835494 -0.420752 0.208598 0.897171 -0.38932 0.0302944 0.904436 -0.425532 
-0.124866 0.85953 -0.495597 -0.20051 0.781795 -0.590417 -0.263967 0.697373 -0.666327 
0.685271 0.652718 -0.323054 0.490025 0.817667 -0.302152 0.492639 0.816884 -0.300012 
0.259518 0.69063 -0.675041 0.143624 0.52155 -0.841046 0.00767906 0.499352 -0.866365 
-0.107492 0.478381 -0.871549 -0.18365 0.497815 -0.847616 -0.220758 0.683954 -0.695322 
-0.239152 0.59122 -0.770237 -0.19946 0.665746 -0.719026 -0.262488 0.640272 -0.721908 
0.712284 0.618048 -0.33267 0.662224 0.587581 -0.464982 0.338017 0.468652 -0.816156 
-0.0171572 0.21163 -0.977199 -0.167345 0.223209 -0.960298 -0.150018 0.241722 -0.958679 
-0.168095 0.310347 -0.935643 -0.391903 0.539683 -0.745086 -0.213509 0.38793 -0.896618 
-0.396388 0.53825 -0.743749 -0.481097 0.415047 -0.772193 0.767131 0.438962 -0.467785 
0.789224 0.360356 -0.497261 0.532919 0.226338 -0.815334 -0.110519 0.0251628 -0.993555 
-0.132904 0.0101592 -0.991077 -0.0529231 0.0646595 -0.996503 -0.122092 0.179714 -0.976113 
-0.260697 0.280869 -0.923661 -0.482881 0.413943 -0.771671 -0.47924 0.41057 -0.775733 
-0.53227 0.373434 -0.759761 0.793925 0.136917 -0.5924 0.732934 0.139638 -0.665815 
0.392546 0.0704607 -0.917029 -0.0489983 -0.110085 -0.992714 -0.0356304 -0.0253221 -0.999044 
-0.140627 -0.0963298 -0.985365 -0.111833 -0.138863 -0.983977 0.0162906 -0.00779662 -0.999837 
0.0107892 0.0565291 -0.998343 -0.148699 0.18814 -0.97082 -0.288085 0.257812 -0.922247 
-0.543462 0.357339 -0.759577 -0.509998 0.348241 -0.78653 0.735722 -0.101157 -0.669687 
0.608044 -0.188458 -0.771211 0.650522 -0.120043 -0.749941 0.293285 -0.137985 -0.946015 
0.128278 -0.135708 -0.982409 -0.0981402 -0.120182 -0.987889 -0.00744251 -0.079159 -0.996834 
-0.0359997 -0.0243933 -0.999054 -0.236296 -0.0142893 -0.971576 -0.0308779 0.0256405 -0.999194 
0.144569 0.0319684 -0.988978 0.0722599 0.0831318 -0.993915 -0.0683319 0.106832 -0.991926 
-0.242189 0.18807 -0.951827 -0.548746 0.217714 -0.807142 -0.47436 0.186265 -0.8604 
0.560101 -0.203511 -0.803038 0.348606 -0.230326 -0.908528 0.175391 -0.193163 -0.965363 
0.0206108 -0.142448 -0.989588 -0.0303697 -0.0468361 -0.998441 0.0430073 0.0380359 -0.99835 
0.0287125 -0.0640211 -0.997535 -0.0593531 0.103375 -0.99287 -0.0782972 0.201857 -0.97628 
0.056272 0.0241387 -0.998124 0.0871644 0.0115887 -0.996127 -0.040178 0.00392822 -0.999185 
-0.199448 0.0417601 -0.979018 -0.63833 0.0725645 -0.766335 -0.424011 0.0876925 -0.901401 
0.500239 -0.260013 -0.825927 0.439596 -0.276795 -0.854482 0.378127 -0.254482 -0.890089 
0.233898 -0.194727 -0.952561 0.146915 -0.0892265 -0.985116 0.0839336 0.018252 -0.996304 
-0.0218236 0.069451 -0.997347 0.0177215 -0.0105546 -0.999787 0.0221041 -0.0684905 -0.997407 
-0.124816 0.00318797 -0.992175 -0.0176094 0.00388825 -0.999837 0.0552774 -0.0809066 -0.995188 
-0.0377969 -0.132183 -0.990504 -0.155903 -0.150261 -0.976277 -0.627493 -0.226356 -0.744994 
-0.529932 -0.42028 -0.736571 -0.43184 -0.1967 -0.88024 0.4383 -0.274102 -0.856015 
0.343427 -0.227697 -0.91116 0.234366 -0.132812 -0.963033 0.125586 -0.0791614 -0.988919 
0.0151589 -0.0187598 -0.999709 -0.106775 0.0280241 -0.993888 -0.0403657 -0.116142 -0.992412 
-0.00184611 -0.0742761 -0.997236 -0.0406348 -0.00695118 -0.99915 -0.0453587 -0.118691 -0.991895 
-0.107344 -0.205051 -0.972847 -0.528869 -0.421561 -0.736603 -0.43526 -0.554063 -0.709622 
-0.279883 -0.3074 -0.909489 0.401754 -0.297297 -0.866145 0.391905 -0.324608 -0.860837 
0.373126 -0.283635 -0.883362 0.285666 -0.272115 -0.918884 0.19894 -0.225544 -0.953705 
0.0838275 -0.159237 -0.983675 -0.0834839 -0.0996308 -0.991516 -0.0882334 -0.093463 -0.991705 
-0.00180161 -0.1688 -0.985649 -0.0660988 -0.160321 -0.984849 -0.149309 -0.233329 -0.960867 
-0.429554 -0.556459 -0.711222 -0.377315 -0.537771 -0.753947 -0.249062 -0.373502 -0.893569 
0.328452 -0.427269 -0.842354 0.294516 -0.445595 -0.845403 0.287881 -0.416861 -0.862178 
0.258055 -0.511791 -0.819437 0.233884 -0.387155 -0.891857 0.140369 -0.338651 -0.930383 
-0.0306394 -0.306494 -0.951379 -0.104864 -0.264674 -0.95862 -0.0698762 -0.323832 -0.943531 
-0.166128 -0.526436 -0.833826 -0.105261 -0.386006 -0.916471 -0.351217 -0.529336 -0.772302 
-0.291267 -0.517929 -0.804309 -0.254169 -0.443874 -0.859287 0.212315 -0.545164 -0.810999 
0.170732 -0.566014 -0.806523 0.162135 -0.52813 -0.833541 0.0216958 -0.559762 -0.828369 
0.00157981 -0.497274 -0.867592 -0.0851211 -0.509405 -0.856306 -0.0896861 -0.461307 -0.882696 
-0.136601 -0.487884 -0.862154 -0.132211 -0.481386 -0.86648 -0.130321 -0.477528 -0.868898 
0.119285 0.33879 -0.93327 0.0130644 0.178066 -0.983932 -0.0819757 0.145747 -0.98592 
0.148873 0.328798 -0.932593 0.259826 0.249911 -0.932757 0.0132639 0.234042 -0.972136 
0.110883 0.304141 -0.946152 -0.00626497 0.185914 -0.982546 -0.0232053 0.180023 -0.983389 
0.0104369 0.148601 -0.988842 -0.0836996 0.144348 -0.985981 -0.0814564 0.142618 -0.98642 
0.31764 0.148837 -0.936457 0.226055 0.137386 -0.964378 -0.0292751 0.0445693 -0.998577 
-0.0458843 0.041585 -0.998081 -0.0471244 -0.0929519 -0.994555 -0.0390291 -0.0217681 -0.999001 
-0.0663538 -0.00856442 -0.997759 -0.0477146 -0.0206551 -0.998647 -0.0526542 -0.0188085 -0.998436 
0.214685 -0.0652122 -0.974504 0.14059 -0.125076 -0.982136 0.166835 -0.0935917 -0.981533 
0.00483058 -0.0584447 -0.998279 -0.0539359 -0.100191 -0.993505 -0.0934784 -0.106784 -0.989878 
-0.0757793 -0.0561546 -0.995542 0.0778183 -0.131263 -0.988289 -0.0655253 -0.121608 -0.990413 
0.0069664 -0.128276 -0.991714 0.00303807 -0.123961 -0.992282 
