# vtk DataFile Version 4.2
vtk output
ASCII
DATASET POLYDATA
POINTS 546 float
-36.3743 -37.0041 -14.2176 -28.0496 -37.0041 -15.2512 -19.7249 -37.0041 -16.7158 
-11.4001 -37.0041 -16.8922 -3.07538 -37.0041 -16.0602 5.24936 -37.0041 -13.4681 
-44.6991 -28.6794 -16.2126 -36.3743 -28.6794 -18.4336 -28.0496 -28.6794 -18.8586 
-19.7249 -28.6794 -18.834 -11.4001 -28.6794 -19.0157 -3.07538 -28.6794 -19.7174 
5.24936 -28.6794 -18.8713 13.5741 -28.6794 -18.0424 21.8988 -28.6794 -17.2668 
-53.0238 -20.3546 -15.3407 -44.6991 -20.3546 -18.5086 -36.3743 -20.3546 -19.5551 
-28.0496 -20.3546 -19.8131 -19.7249 -20.3546 -19.3325 -11.4001 -20.3546 -19.5334 
-3.07538 -20.3546 -20.2585 5.24936 -20.3546 -19.7564 13.5741 -20.3546 -20.2817 
21.8988 -20.3546 -20.0523 30.2236 -20.3546 -17.3076 38.5483 -20.3546 -14.8832 
-61.3485 -12.0299 -13.8077 -53.0238 -12.0299 -17.0513 -44.6991 -12.0299 -19.4118 
-36.3743 -12.0299 -20.0024 -28.0496 -12.0299 -20.1644 -19.7249 -12.0299 -19.5505 
-11.4001 -12.0299 -19.1229 -3.07538 -12.0299 -21.0412 5.24936 -12.0299 -19.3199 
13.5741 -12.0299 -19.8653 21.8988 -12.0299 -19.3853 30.2236 -12.0299 -18.0838 
38.5483 -12.0299 -17.6695 46.873 -12.0299 -16.9479 55.1978 -12.0299 -16.1673 
63.5225 -12.0299 -14.7551 -53.0238 -3.70514 -17.1199 -44.6991 -3.70514 -19.0111 
-36.3743 -3.70514 -19.4129 -28.0496 -3.70514 -19.4823 -19.7249 -3.70514 -19.5984 
-11.4001 -3.70514 -21.0382 -3.07538 -3.70514 -20.231 5.24936 -3.70514 -18.9059 
13.5741 -3.70514 -19.6466 21.8988 -3.70514 -16.8422 30.2236 -3.70514 -17.0899 
38.5483 -3.70514 -17.878 46.873 -3.70514 -18.3567 55.1978 -3.70514 -17.4141 
63.5225 -3.70514 -15.9977 71.8473 -3.70514 -14.0895 -53.0238 4.61959 -16.3216 
-44.6991 4.61959 -17.8991 -36.3743 4.61959 -18.2889 -28.0496 4.61959 -18.251 
-19.7249 4.61959 -18.4913 -11.4001 4.61959 -21.38 -3.07538 4.61959 -19.2578 
5.24936 4.61959 -18.5052 13.5741 4.61959 -17.8358 21.8988 4.61959 -15.6819 
30.2236 4.61959 -16.8316 38.5483 4.61959 -17.6406 46.873 4.61959 -18.2622 
55.1978 4.61959 -17.9908 63.5225 4.61959 -15.8696 71.8473 4.61959 -14.4582 
-53.0238 12.9443 -14.8396 -44.6991 12.9443 -16.2941 -36.3743 12.9443 -16.9491 
-28.0496 12.9443 -17.0845 -19.7249 12.9443 -16.4949 -11.4001 12.9443 -17.0505 
-3.07538 12.9443 -17.74 5.24936 12.9443 -16.5748 13.5741 12.9443 -17.0816 
21.8988 12.9443 -17.4852 30.2236 12.9443 -17.062 38.5483 12.9443 -17.8281 
46.873 12.9443 -16.4846 55.1978 12.9443 -15.9065 63.5225 12.9443 -14.6572 
-44.6991 21.2691 -15.5482 -36.3743 21.2691 -15.791 -28.0496 21.2691 -15.9342 
-19.7249 21.2691 -15.6996 -11.4001 21.2691 -14.9544 -3.07538 21.2691 -15.6947 
5.24936 21.2691 -15.7353 13.5741 21.2691 -15.7683 21.8988 21.2691 -16.5811 
30.2236 21.2691 -16.2252 38.5483 21.2691 -15.0391 46.873 21.2691 -14.0329 
-36.3743 29.5938 -14.1296 -28.0496 29.5938 -14.0688 -19.7249 29.5938 -14.1042 
-3.07538 29.5938 -13.5068 -36.3743 -38.0225 -13.3418 -28.0496 -39.3701 -13.3418 
-19.7249 -40.7731 -13.3418 -19.7249 -45.3288 -5.66186 -11.4001 -41.3829 -13.3418 
-11.4001 -45.3288 -5.22876 -3.07538 -39.8895 -13.3418 5.24936 -37.114 -13.3418 
-38.4411 -37.0041 -13.3418 -44.6991 -33.1874 -13.3418 -44.6991 -37.0041 -8.69351 
5.68278 -37.0041 -13.3418 13.5741 -34.6556 -13.3418 21.8988 -32.4265 -13.3418 
-50.1302 -28.6794 -13.3418 -53.0238 -24.536 -13.3418 -53.0238 -28.6794 -11.0354 
28.8624 -28.6794 -13.3418 30.2236 -27.528 -13.3418 30.2236 -28.6794 -10.7534 
38.5483 -22.1966 -13.3418 -56.2839 -20.3546 -13.3418 -61.3485 -13.4746 -13.3418 
-61.3485 -20.3546 -8.84729 44.3929 -20.3546 -13.3418 46.873 -19.1665 -13.3418 
46.873 -20.3546 -12.4201 55.1978 -16.6648 -13.3418 55.1978 -20.3546 -9.48684 
63.5225 -14.405 -13.3418 63.5225 -20.3546 -7.27212 -61.9147 -12.0299 -13.3418 
-61.3485 -9.15578 -13.3418 66.3972 -12.0299 -13.3418 71.8473 -5.00997 -13.3418 
71.8473 -12.0299 -9.0572 -59.8602 -3.70514 -13.3418 -61.3485 -3.70514 -12.246 
72.5578 -3.70514 -13.3418 80.172 -3.70514 -6.26372 -59.0945 4.61959 -13.3418 
-61.3485 4.61959 -11.9774 72.9082 4.61959 -13.3418 71.8473 6.25684 -13.3418 
80.172 4.61959 -6.83131 -58.7528 12.9443 -13.3418 -61.3485 12.9443 -12.3677 
-53.0238 17.5653 -13.3418 55.1978 19.5427 -13.3418 66.1246 12.9443 -13.3418 
63.5225 15.6742 -13.3418 71.8473 12.9443 -8.9525 -61.3485 21.2691 -8.5493 
-50.0841 21.2691 -13.3418 -53.0238 21.2691 -12.2366 -44.6991 25.9326 -13.3418 
-11.4001 28.3039 -13.3418 5.24936 28.6829 -13.3418 13.5741 26.6702 -13.3418 
21.8988 27.0344 -13.3418 30.2236 27.1329 -13.3418 38.5483 24.4379 -13.3418 
50.8736 21.2691 -13.3418 46.873 22.351 -13.3418 55.1978 21.2691 -12.3139 
63.5225 21.2691 -7.50037 -53.0238 29.5938 -8.23188 -38.9397 29.5938 -13.3418 
-44.6991 29.5938 -11.77 -36.3743 30.8693 -13.3418 -28.0496 31.1828 -13.3418 
-13.8324 29.5938 -13.3418 -19.7249 31.1286 -13.3418 -5.90757 29.5938 -13.3418 
-11.4001 29.5938 -13.0365 -0.226893 29.5938 -13.3418 -3.07538 29.8957 -13.3418 
5.24936 29.5938 -12.9753 13.5741 29.5938 -11.5878 21.8988 29.5938 -11.3401 
30.2236 29.5938 -11.3097 38.5483 29.5938 -9.08135 46.873 29.5938 -5.48273 
-44.6991 37.9185 -7.25179 -36.3743 37.9185 -8.65425 -28.0496 37.9185 -9.80956 
-19.7249 37.9185 -9.37703 -11.4001 37.9185 -8.33677 -3.07538 37.9185 -6.95487 
-19.7249 -45.5872 -5.01709 -11.4001 -45.4028 -5.01709 -44.6991 -39.0933 -5.01709 
-36.3743 -41.9546 -5.01709 -21.7965 -45.3288 -5.01709 -28.0496 -44.4866 -5.01709 
-19.7249 -45.3288 -3.49493 -11.0877 -45.3288 -5.01709 -11.4001 -45.3288 -4.42772 
-3.07538 -43.2635 -5.01709 5.24936 -39.5605 -5.01709 -48.7845 -37.0041 -5.01709 
-53.0238 -34.2298 -5.01709 13.5466 -37.0041 -5.01709 13.5741 -36.9959 -5.01709 
21.8988 -34.6634 -5.01709 30.2236 -30.1654 -5.01709 -58.2637 -28.6794 -5.01709 
-61.3485 -24.2271 -5.01709 33.6674 -28.6794 -5.01709 30.2236 -28.6794 1.23282 
38.5483 -26.6194 -5.01709 46.873 -26.0288 -5.01709 55.1978 -22.714 -5.01709 
63.5225 -21.5231 -5.01709 -63.6158 -20.3546 -5.01709 65.8211 -20.3546 -5.01709 
63.5225 -20.3546 0.670825 71.8473 -15.5501 -5.01709 -67.0414 -12.0299 -5.01709 
75.9681 -12.0299 -5.01709 80.172 -5.92982 -5.01709 -69.2777 -3.70514 -5.01709 
81.149 -3.70514 -5.01709 -69.6155 4.61959 -5.01709 -69.6733 4.61959 -3.50695 
81.6467 4.61959 -5.01709 80.172 7.3203 -5.01709 -68.1075 12.9443 -5.01709 
75.8403 12.9443 -5.01709 71.8473 17.1595 -5.01709 -64.5946 21.2691 -5.01709 
-61.3485 26.1211 -5.01709 55.1978 26.4524 -5.01709 66.1188 21.2691 -5.01709 
63.5225 22.6674 -5.01709 -57.1645 29.5938 -5.01709 -53.0238 33.7693 -5.01709 
5.24936 37.0504 -5.01709 13.5741 34.8365 -5.01709 21.8988 34.2088 -5.01709 
30.2236 33.8567 -5.01709 38.5483 32.1888 -5.01709 47.5273 29.5938 -5.01709 
46.873 29.8234 -5.01709 -48.5557 37.9185 -5.01709 -53.0238 37.9185 3.17081 
-44.6991 39.864 -5.01709 -36.3743 41.5418 -5.01709 -28.0496 43.2925 -5.01709 
-19.7249 42.1962 -5.01709 -11.4001 40.7294 -5.01709 2.11857 37.9185 -5.01709 
-3.07538 39.2821 -5.01709 5.24936 37.9185 -0.62706 -44.6991 -37.9206 3.30764 
-36.3743 -40.8477 3.30764 -28.0496 -43.0871 3.30764 -19.7249 -44.0299 3.30764 
-11.4001 -44.2748 3.30764 -3.07538 -42.1321 3.30764 5.24936 -38.1325 3.30764 
-46.5467 -37.0041 3.30764 -53.0238 -32.8448 3.30764 -44.6991 -37.0041 4.72682 
-36.3743 -37.0041 9.51834 -28.0496 -37.0041 11.4294 8.60353 -37.0041 3.30764 
5.24936 -37.0041 5.8337 13.5741 -35.3517 3.30764 21.8988 -32.8975 3.30764 
-56.8357 -28.6794 3.30764 -61.3485 -22.4828 3.30764 -53.0238 -28.6794 7.74447 
29.368 -28.6794 3.30764 21.8988 -28.6794 10.9883 30.2236 -28.1752 3.30764 
38.5483 -25.4719 3.30764 46.873 -24.9435 3.30764 55.1978 -22.4389 3.30764 
-62.6199 -20.3546 3.30764 -61.3485 -20.3546 5.04462 46.873 -20.3546 10.652 
61.4896 -20.3546 3.30764 55.1978 -20.3546 7.95797 63.5225 -19.7125 3.30764 
71.8473 -16.0142 3.30764 -66.6726 -12.0299 3.30764 -61.3485 -12.0299 10.4445 
76.5565 -12.0299 3.30764 71.8473 -12.0299 8.88179 80.172 -7.29076 3.30764 
-68.6563 -3.70514 3.30764 -69.6733 2.94552 3.30764 81.9475 -3.70514 3.30764 
80.172 -3.70514 5.99043 -69.865 4.61959 3.30764 -69.6733 7.68133 3.30764 
-69.6733 4.61959 3.63377 81.9267 4.61959 3.30764 80.172 7.84891 3.30764 
80.172 4.61959 6.15237 -69.3536 12.9443 3.30764 76.4059 12.9443 3.30764 
71.8473 17.9201 3.30764 71.8473 12.9443 8.88708 -66.1223 21.2691 3.30764 
-61.3485 29.3495 3.30764 55.1978 26.7213 3.30764 66.3761 21.2691 3.30764 
63.5225 22.5703 3.30764 63.5225 21.2691 6.85979 -61.1703 29.5938 3.30764 
13.5741 36.2239 3.30764 21.8988 35.3579 3.30764 30.2236 34.4445 3.30764 
38.5483 32.2111 3.30764 38.5483 29.5938 7.67103 46.9076 29.5938 3.30764 
46.873 29.6053 3.30764 46.873 29.5938 3.33252 -53.0693 37.9185 3.30764 
-53.0238 37.9547 3.30764 -53.0238 37.9185 3.40426 -44.6991 41.9347 3.30764 
-36.3743 44.4431 3.30764 -28.0496 45.191 3.30764 -19.7249 44.8287 3.30764 
-11.4001 43.2267 3.30764 -3.07538 41.1976 3.30764 7.57547 37.9185 3.30764 
5.24936 38.5981 3.30764 5.24936 37.9185 5.14909 -19.7249 -38.5246 11.6324 
-11.4001 -39.3805 11.6324 -3.07538 -37.8826 11.6324 -44.6991 -30.2379 11.6324 
-36.3743 -34.9413 11.6324 -27.1651 -37.0041 11.6324 -28.0496 -36.7631 11.6324 
-19.7249 -37.0041 12.9709 -11.4001 -37.0041 13.9405 -1.20594 -37.0041 11.6324 
-3.07538 -37.0041 12.4999 5.24936 -33.421 11.6324 13.5741 -30.5949 11.6324 
-46.922 -28.6794 11.6324 -53.0238 -20.5269 11.6324 -44.6991 -28.6794 12.7319 
-36.3743 -28.6794 15.5109 -28.0496 -28.6794 16.4805 -19.7249 -28.6794 16.9795 
-11.4001 -28.6794 17.215 -3.07538 -28.6794 17.2717 5.24936 -28.6794 15.1026 
20.3667 -28.6794 11.6324 13.5741 -28.6794 13.4667 21.8988 -28.0639 11.6324 
30.2236 -22.6437 11.6324 38.5483 -21.6232 11.6324 -53.1226 -20.3546 11.6324 
-53.0238 -20.3546 11.6933 -44.6991 -20.3546 16.1228 -36.3743 -20.3546 17.6505 
-28.0496 -20.3546 19.0071 -19.7249 -20.3546 18.7135 -11.4001 -20.3546 18.2938 
-3.07538 -20.3546 18.3622 5.24936 -20.3546 17.2811 13.5741 -20.3546 16.9801 
21.8988 -20.3546 15.9979 30.2236 -20.3546 13.3885 44.2361 -20.3546 11.6324 
38.5483 -20.3546 13.0144 46.873 -19.6279 11.6324 55.1978 -18.1543 11.6324 
[...]
POINT_DATA 546
SCALARS ImageScalars float
LOOKUP_TABLE default
0 0 0 0 0 0 0 0 0 
0 0 0 0 0 0 0 0 0 
0 0 0 0 0 0 0 0 0 
0 0 0 0 0 0 0 0 0 
0 0 0 0 0 0 0 0 0 
0 0 0 0 0 0 0 0 0 
0 0 0 0 0 0 0 0 0 
0 0 0 0 0 0 0 0 0 
0 0 0 0 0 0 0 0 0 
0 0 0 0 0 0 0 0 0 
0 0 0 0 0 0 0 0 0 
0 0 0 0 0 0 0 0 0 
0 0 0 0 0 0 0 0 0 
0 0 0 0 0 0 0 0 0 
0 0 0 0 0 0 0 0 0 
0 0 0 0 0 0 0 0 0 
0 0 0 0 0 0 0 0 0 
0 0 0 0 0 0 0 0 0 
0 0 0 0 0 0 0 0 0 
0 0 0 0 0 0 0 0 0 
0 0 0 0 0 0 0 0 0 
0 0 0 0 0 0 0 0 0 
0 0 0 0 0 0 0 0 0 
0 0 0 0 0 0 0 0 0 
0 0 0 0 0 0 0 0 0 
0 0 0 0 0 0 0 0 0 
0 0 0 0 0 0 0 0 0 
0 0 0 0 0 0 0 0 0 
0 0 0 0 0 0 0 0 0 
0 0 0 0 0 0 0 0 0 
0 0 0 0 0 0 0 0 0 
0 0 0 0 0 0 0 0 0 
0 0 0 0 0 0 0 0 0 
0 0 0 0 0 0 0 0 0 
0 0 0 0 0 0 0 0 0 
0 0 0 0 0 0 0 0 0 
0 0 0 0 0 0 0 0 0 
0 0 0 0 0 0 0 0 0 
0 0 0 0 0 0 0 0 0 
0 0 0 0 0 0 0 0 0 
0 0 0 0 0 0 0 0 0 
0 0 0 0 0 0 0 0 0 
0 0 0 0 0 0 0 0 0 
0 0 0 0 0 0 0 0 0 
0 0 0 0 0 0 0 0 0 
0 0 0 0 0 0 0 0 0 
0 0 0 0 0 0 0 0 0 
0 0 0 0 0 0 0 0 0 
0 0 0 0 0 0 0 0 0 
0 0 0 0 0 0 0 0 0 
0 0 0 0 0 0 0 0 0 
0 0 0 0 0 0 0 0 0 
0 0 0 0 0 0 0 0 0 
0 0 0 0 0 0 0 0 0 
0 0 0 0 0 0 0 0 0 
0 0 0 0 0 0 0 0 0 
0 0 0 0 0 0 0 0 0 
0 0 0 0 0 0 0 0 0 
0 0 0 0 0 0 0 0 0 
0 0 0 0 0 0 0 0 0 
0 0 0 0 0 0 
NORMALS Normals float
0.240481 0.623616 0.743822 0.132434 0.56068 0.817374 0.0872187 0.502903 0.859931 
-0.0362251 0.481606 0.875639 -0.173155 0.608588 0.774363 -0.259894 0.78541 0.56177 
0.329798 0.380688 0.863892 0.164408 0.31073 0.936171 0.0207728 0.235905 0.971554 
0.00909686 0.12577 0.992018 0.0514546 0.147452 0.98773 -0.00451572 0.214136 0.976793 
-0.0988741 0.308643 0.946025 -0.0895592 0.467002 0.879709 -0.274993 0.561661 0.78033 
0.436813 0.298225 0.848679 0.211316 0.191138 0.958547 0.0736654 0.0862969 0.993542 
-0.0138636 0.07696 0.996938 -0.0171802 0.0444504 0.998864 0.0549615 0.00603407 0.99847 
0.0139148 0.0769934 0.996934 0.00123685 0.0218638 0.99976 0.0184748 0.0995914 0.994857 
-0.170238 0.0945833 0.980853 -0.299744 0.267848 0.915648 -0.250671 0.568626 0.783472 
0.619248 0.0861754 0.780452 0.332652 0.0801287 0.939639 0.18457 0.0259824 0.982476 
0.0432193 -0.0090018 0.999025 -0.0251543 -0.0197662 0.999488 -0.063881 0.0163969 0.997823 
0.0901261 0.0829738 0.992468 0.0107943 0.00488936 0.99993 -0.0693713 -0.0507613 0.996299 
0.00652594 -0.0360673 0.999328 -0.113579 -0.192895 0.974624 -0.0962942 -0.015988 0.995224 
-0.0655194 0.155426 0.985672 -0.0903188 0.279795 0.955802 -0.144562 0.347415 0.926501 
-0.302111 0.377853 0.875189 0.327333 -0.0445913 0.943856 0.148451 -0.0858954 0.985182 
0.0272437 -0.102181 0.994393 0.0110462 -0.114014 0.993418 0.087692 -0.0608658 0.994286 
0.0463824 0.136183 0.989597 -0.133712 -0.108527 0.98506 -0.0297259 -0.0491852 0.998347 
-0.131841 -0.103789 0.985822 -0.136732 -0.212519 0.967543 0.0620492 -0.0762095 0.995159 
0.0759443 -6.56469e-05 0.997112 -0.0276013 0.0763268 0.996701 -0.132208 0.100334 0.986131 
-0.170427 0.0730533 0.982659 -0.533554 0.236746 0.811956 0.303341 -0.12531 0.944607 
0.126097 -0.159205 0.979159 0.0202312 -0.146302 0.989033 0.0114354 -0.147543 0.98899 
0.167984 -0.187548 0.967785 0.0544936 -0.219737 0.974036 -0.163375 -0.143996 0.975999 
-0.0739076 -0.144174 0.986788 -0.18923 -0.159589 0.968877 -0.0372276 0.0392373 0.998536 
0.121658 -0.00188463 0.99257 0.0806919 -0.00373911 0.996732 0.0177176 -0.111369 0.993621 
-0.126003 -0.0712679 0.989467 -0.205284 -0.0865641 0.974867 -0.498959 -0.245982 0.830983 
0.232886 -0.255776 0.938266 0.116373 -0.134074 0.984115 0.0463345 -0.146209 0.988168 
-0.0256863 -0.133511 0.990714 -0.00820823 -0.162434 0.986685 0.0738934 -0.363252 0.928756 
-0.0350761 -0.211953 0.97665 -0.0344785 -0.157695 0.986886 0.0542156 -0.110094 0.992441 
-0.00115277 0.0600418 0.998195 0.0182379 -0.0394131 0.999057 -0.0346992 -0.153946 0.98747 
-0.104438 -0.215601 0.970881 -0.122236 -0.346797 0.929941 -0.309019 -0.319818 0.89567 
0.200161 -0.259194 0.944857 0.0215421 -0.156967 0.987369 -0.00650684 -0.177966 0.984015 
-0.0566878 -0.13233 0.989583 -0.00347635 -0.217611 0.976029 0.0463115 -0.234047 0.971122 
0.00426318 -0.193715 0.981049 0.0469598 -0.276705 0.959807 0.0249676 -0.290313 0.956606 
-0.0866896 -0.268404 0.959398 -0.120694 -0.384752 0.915095 -0.146029 -0.438395 0.88684 
0.135384 -0.380798 0.914693 -0.00108465 -0.317259 0.948338 -0.0591704 -0.322962 0.94456 
0.000875066 -0.387516 0.921863 0.251594 0.669334 0.699066 0.129585 0.671002 0.730044 
0.0898028 0.698234 0.710215 0.0540644 0.986356 0.155494 -0.0494951 0.721516 0.690627 
-0.129316 0.983881 0.123517 -0.226055 0.751954 0.619245 -0.262179 0.790107 0.55407 
0.28401 0.652468 0.702584 0.374501 0.569476 0.731742 0.414454 0.82068 0.393334 
-0.260183 0.792801 0.551154 -0.216311 0.804804 0.552721 -0.354939 0.787407 0.503993 
0.473598 0.429065 0.769161 0.492767 0.388163 0.778788 0.599398 0.506849 0.619537 
-0.476749 0.711175 0.516663 -0.483575 0.676646 0.555252 -0.494044 0.796626 0.348293 
-0.284727 0.654247 0.700637 0.520291 0.354992 0.776709 0.634635 0.133239 0.76124 
0.778431 0.422967 0.463836 -0.238023 0.61794 0.74933 -0.2123 0.583111 0.784162 
-0.228038 0.659284 0.71648 -0.171148 0.580375 0.796162 -0.207779 0.848871 0.486052 
-0.330324 0.490543 0.806383 -0.357352 0.871427 0.336028 0.642754 0.0934665 0.76035 
0.614175 0.0199911 0.788916 -0.355618 0.453209 0.817397 -0.536994 0.300141 0.788386 
-0.530019 0.637164 0.559556 0.536662 -0.0903434 0.838947 0.608223 -0.0797161 0.789753 
-0.55916 0.219813 0.799388 -0.827333 0.21945 0.517071 0.4731 -0.0327535 0.880399 
0.562783 0.000571707 0.826605 -0.538906 -0.219471 0.813273 -0.513223 -0.317626 0.797318 
-0.813819 -0.202728 0.54461 0.414292 -0.1986 0.888212 0.515106 -0.171393 0.839815 
0.29261 -0.27101 0.917024 -0.195925 -0.517422 0.832999 -0.359583 -0.389061 0.848134 
-0.356013 -0.438831 0.825035 -0.555124 -0.588446 0.587851 0.654198 -0.436745 0.617478 
0.302344 -0.273042 0.913256 0.35272 -0.288276 0.890217 0.224701 -0.34477 0.911396 
-0.0296883 -0.294244 0.955269 -0.0783551 -0.45141 0.88887 -0.0278474 -0.483518 0.874891 
0.0130006 -0.559495 0.828732 -0.0827413 -0.551786 0.829871 -0.151568 -0.505243 0.849563 
-0.183056 -0.501776 0.845406 -0.161183 -0.488303 0.85766 -0.243976 -0.592923 0.76741 
-0.440915 -0.798553 0.409766 0.493096 -0.521815 0.696107 0.169292 -0.390287 0.904995 
0.251152 -0.402836 0.88014 0.135549 -0.420294 0.897207 0.00827524 -0.360227 0.932828 
-0.0406326 -0.317274 0.947463 -0.0562073 -0.379024 0.923678 -0.0114624 -0.361842 0.932169 
-0.0347233 -0.315333 0.948345 -0.0298979 -0.421058 0.906541 -0.00373574 -0.398903 0.916986 
-0.0925973 -0.494059 0.864484 -0.0800679 -0.643842 0.760958 -0.0124721 -0.717958 0.695974 
-0.0895472 -0.724366 0.683575 -0.203982 -0.823206 0.529833 -0.3116 -0.915308 0.255181 
0.307322 -0.740534 0.597631 0.128159 -0.663676 0.73696 0.0364906 -0.610617 0.791085 
-0.0707121 -0.665769 0.7428 -0.109534 -0.71128 0.694322 -0.179093 -0.82482 0.536282 
0.0532482 0.991727 0.116801 -0.130034 0.985132 0.112274 0.411594 0.894549 0.174279 
0.298898 0.946944 0.118144 0.0917219 0.988782 0.11789 0.207059 0.970084 0.126745 
0.0545411 0.997723 0.0396765 -0.137856 0.984145 0.111596 -0.129462 0.987815 0.0863757 
-0.332603 0.938179 0.0958947 -0.36167 0.931098 0.0474545 0.506176 0.844562 0.174643 
0.626466 0.755742 0.190777 -0.273337 0.961858 0.010806 -0.273089 0.961929 0.010754 
-0.380836 0.924547 0.013262 -0.447373 0.894318 0.0072065 0.762537 0.617998 0.191351 
0.834531 0.519023 0.18486 -0.349279 0.935656 0.0505213 -0.421154 0.877541 -0.229238 
-0.232276 0.962857 0.137676 -0.221339 0.95687 0.188173 -0.252943 0.94179 0.221475 
-0.337604 0.923468 0.182294 0.870786 0.446058 0.206794 -0.433794 0.875023 0.214842 
-0.325235 0.939626 -0.10642 -0.621137 0.705025 0.342241 0.916686 0.302235 0.261421 
-0.678037 0.680751 0.277209 -0.841275 0.373757 0.390592 0.942634 0.138023 0.303958 
-0.877702 0.237441 0.416248 0.924327 -0.0472536 0.378663 0.964361 -0.0343037 0.262357 
-0.894398 -0.231763 0.382542 -0.844663 -0.395196 0.36106 0.851522 -0.274026 0.447013 
-0.712397 -0.636998 0.29449 -0.622948 -0.690025 0.368513 0.778211 -0.41804 0.468646 
0.667031 -0.556047 0.495865 -0.397364 -0.870818 0.289445 -0.49809 -0.819571 0.283212 
-0.448232 -0.855868 0.258028 0.587727 -0.610584 0.530815 0.560408 -0.631348 0.536043 
-0.240352 -0.888573 0.390729 -0.151533 -0.908719 0.388931 -0.0546841 -0.930132 0.36313 
-0.12259 -0.940722 0.31625 -0.233757 -0.931838 0.277553 -0.319828 -0.919125 0.23004 
-0.312754 -0.922191 0.227484 0.437333 -0.736756 0.515684 0.585241 -0.809781 -0.0418019 
0.317836 -0.801497 0.50654 0.18164 -0.797977 0.574664 0.0346462 -0.833784 0.551003 
-0.133493 -0.825312 0.548671 -0.160309 -0.841076 0.516616 -0.22781 -0.887206 0.401208 
-0.202806 -0.877212 0.435164 -0.278865 -0.952234 0.124434 0.392872 0.853398 -0.342584 
0.268019 0.906732 -0.32558 0.181429 0.917697 -0.353434 0.0642499 0.938981 -0.337916 
-0.107126 0.95186 -0.287204 -0.335165 0.905964 -0.258638 -0.37692 0.886819 -0.267365 
0.433139 0.833218 -0.343714 0.62271 0.695049 -0.359361 0.392895 0.822957 -0.410335 
0.238311 0.762148 -0.601946 0.144785 0.648516 -0.747305 -0.336769 0.898484 -0.281625 
-0.372006 0.850077 -0.372801 -0.279714 0.910821 -0.303588 -0.382332 0.869579 -0.312496 
0.720534 0.595383 -0.355456 0.774634 0.520989 -0.358486 0.596539 0.528568 -0.603951 
-0.409599 0.857409 -0.311573 -0.331078 0.677912 -0.656371 -0.404711 0.858072 -0.316105 
-0.169288 0.946413 -0.275036 -0.168407 0.94169 -0.291306 -0.28555 0.933582 -0.216533 
0.799019 0.490433 -0.347913 0.748027 0.494684 -0.442428 -0.166474 0.778864 -0.604696 
-0.296501 0.926973 -0.2298 -0.202108 0.891302 -0.405873 -0.311736 0.92138 -0.23212 
-0.583329 0.775741 -0.240735 0.890046 0.306897 -0.337094 0.602995 0.289755 -0.743263 
-0.657862 0.735682 -0.161209 -0.508619 0.691214 -0.513351 -0.856221 0.469883 -0.214699 
0.910206 0.187383 -0.369341 0.949026 0.0598396 -0.309464 -0.9488 0.201878 -0.242946 
-0.881537 0.188507 -0.432848 0.956825 0.0267547 -0.28943 0.961158 -0.0584177 -0.269746 
0.950952 0.028687 -0.308006 -0.936088 -0.247752 -0.249717 -0.879045 -0.421971 -0.221858 
-0.879762 -0.206853 -0.428055 0.955927 -0.18983 -0.223984 -0.733884 -0.655798 -0.177043 
-0.613768 -0.750641 -0.244594 -0.562382 -0.644519 -0.517997 0.876365 -0.455053 -0.157833 
0.784736 -0.613609 -0.0876037 -0.384366 -0.892389 -0.236443 -0.482618 -0.855055 -0.189632 
-0.438074 -0.885189 -0.156625 -0.441093 -0.81483 -0.376151 0.781698 -0.618086 -0.0831751 
-0.187523 -0.975727 -0.1131 -0.10538 -0.985687 -0.131589 -0.184141 -0.964809 -0.187713 
-0.280601 -0.927994 -0.245132 -0.263828 -0.836668 -0.479981 -0.298313 -0.927281 -0.226186 
-0.298043 -0.927384 -0.226117 -0.297987 -0.927113 -0.227302 0.584972 -0.809483 -0.0504457 
0.583692 -0.810412 -0.0503553 0.584287 -0.80959 -0.0563324 0.374085 -0.926459 -0.0416421 
0.182914 -0.982926 -0.0199801 0.0226592 -0.997204 -0.0712102 -0.117234 -0.992847 -0.0226208 
-0.212966 -0.976908 -0.0171829 -0.267505 -0.962355 -0.0481058 -0.265306 -0.959521 -0.0945132 
-0.294277 -0.951416 -0.0906026 -0.300325 -0.933444 -0.19618 0.115405 0.667654 -0.735472 
-0.0350549 0.717843 -0.695322 -0.254849 0.718825 -0.646794 0.367439 0.529308 -0.764736 
0.221731 0.646608 -0.729885 0.141193 0.641032 -0.754416 0.142014 0.636863 -0.757785 
0.12299 0.605566 -0.786233 -0.0214359 0.598236 -0.801033 -0.278699 0.708573 -0.648268 
-0.253191 0.683331 -0.684802 -0.317106 0.642958 -0.697172 -0.233423 0.696798 -0.678222 
0.402369 0.486493 -0.775515 0.522876 0.286249 -0.802909 0.358975 0.483295 -0.798475 
0.186817 0.3825 -0.904872 0.0837641 0.391171 -0.916498 0.0418601 0.303863 -0.951796 
0.0165309 0.214369 -0.976613 -0.116126 0.297049 -0.947775 -0.213483 0.43489 -0.874812 
-0.305483 0.659924 -0.686426 -0.211654 0.608136 -0.765097 -0.31876 0.645974 -0.693621 
-0.236598 0.659952 -0.713081 -0.131753 0.761321 -0.634847 0.52375 0.284648 -0.802908 
0.521925 0.283137 -0.804629 0.311836 0.202519 -0.928302 0.167779 0.156694 -0.973292 
0.0650611 0.154392 -0.985865 -0.0425266 0.129775 -0.990631 -0.0202746 0.0551475 -0.998272 
-0.0589293 0.127463 -0.990091 -0.0827616 0.195939 -0.977117 -0.0706712 0.244029 -0.967189 
-0.194763 0.37758 -0.905263 -0.170055 0.592387 -0.787502 -0.150542 0.751082 -0.642816 
-0.112604 0.717471 -0.687427 -0.156244 0.741286 -0.65275 -0.14879 0.775296 -0.613822 
-0.350889 0.653401 -0.670779 0.51283 0.271989 -0.814265 0.567339 0.2411 -0.787399 
0.360379 0.221442 -0.90614 0.207321 0.0934229 -0.973802 0.137947 0.0598161 -0.988632 
0.0575224 0.00890467 -0.998304 -0.0683865 0.0572051 -0.996018 0.0139389 0.109224 -0.993919 
0.0319428 0.182776 -0.982635 -0.0668806 0.141207 -0.987718 -0.0273019 0.147708 -0.988654 
-0.0127485 0.210071 -0.977603 -0.000974183 0.355504 -0.934674 -0.0248476 0.408534 -0.912405 
-0.0561808 0.439124 -0.896668 -0.183103 0.440927 -0.878667 -0.406586 0.599688 -0.689248 
-0.31942 0.482729 -0.815441 -0.472667 0.521684 -0.710234 0.60103 0.190609 -0.776164 
0.562002 0.184825 -0.806222 0.326152 0.106209 -0.939332 0.1415 0.115358 -0.983194 
0.0861847 0.0775578 -0.993256 0.0624805 0.036416 -0.997382 0.0598372 0.0565191 -0.996607 
-0.111596 0.0733631 -0.991042 0.0104684 0.118646 -0.992881 0.0426007 0.117653 -0.992141 
-0.0747463 0.151215 -0.985671 -0.117826 0.112289 -0.986665 -0.328984 0.204308 -0.92197 
-0.609925 0.17327 -0.773285 -0.483004 0.194683 -0.853701 0.644861 0.105226 -0.757021 
0.516148 0.12372 -0.847516 0.300618 0.0553785 -0.952135 0.191235 0.115863 -0.974682 
0.0622398 0.109039 -0.992087 0.0355774 0.108419 -0.993468 -0.0893522 -0.13066 -0.987393 
0.0376112 -0.196057 -0.979871 0.0979884 -0.0227425 -0.994928 -0.138269 -0.090342 -0.986266 
-0.3222 -0.197212 -0.925902 -0.628269 -0.166104 -0.760058 -0.506112 -0.497816 -0.704294 
-0.471277 -0.176369 -0.864171 0.680338 -0.133159 -0.7207 0.54077 -0.109351 -0.834033 
0.310039 0.0186015 -0.950542 0.209598 0.0199205 -0.977585 -0.177024 -0.00924411 -0.984163 
-0.104983 -0.0409676 -0.99363 0.0679587 -0.00751146 -0.99766 0.0730773 -0.146753 -0.98647 
0.00714558 -0.197631 -0.98025 -0.0400757 -0.166883 -0.985162 -0.0313643 -0.215861 -0.97592 
-0.0309854 -0.281593 -0.959033 -0.0690788 -0.340391 -0.937743 -0.194854 -0.408549 -0.891695 
-0.458105 -0.557504 -0.692336 -0.410533 -0.592208 -0.693363 -0.33613 -0.427607 -0.839148 
0.619927 -0.371629 -0.691073 0.620337 -0.372686 -0.690136 0.619235 -0.371011 -0.692026 
0.422865 -0.167028 -0.890666 0.187449 -0.167157 -0.967947 -0.0866748 -0.0164692 -0.996101 
-0.0648057 -0.0698495 -0.99545 -0.08537 -0.235454 -0.968129 -0.00390649 -0.305818 -0.952082 
-0.0440144 -0.32232 -0.945607 -0.103127 -0.360036 -0.927221 -0.210367 -0.663926 -0.717599 
-0.125194 -0.473459 -0.871873 -0.23054 -0.652688 -0.721699 -0.206359 -0.567396 -0.797169 
-0.212156 -0.669167 -0.712184 -0.185705 -0.673712 -0.71528 -0.18596 -0.663636 -0.724573 
0.635999 -0.469865 -0.612154 0.545437 -0.550437 -0.632074 0.478463 -0.428402 -0.766515 
0.266688 -0.324263 -0.907596 0.139842 -0.327529 -0.934435 -0.0132942 -0.26344 -0.964584 
-0.0915979 -0.251218 -0.963587 -0.114645 -0.204664 -0.972095 -0.16263 -0.320364 -0.93323 
-0.262857 -0.6674 -0.696767 -0.189245 -0.43499 -0.880324 -0.133791 -0.691139 -0.71023 
-0.1024 -0.578547 -0.809195 -0.103287 -0.717518 -0.688839 -0.0919363 -0.646734 -0.757155 
-0.215701 -0.676749 -0.703906 -0.213841 -0.677542 -0.703711 -0.213029 -0.669896 -0.711237 
0.379674 -0.714383 -0.587796 0.337554 -0.733877 -0.589476 0.331731 -0.706804 -0.624806 
0.171498 -0.745326 -0.644265 0.148702 -0.619473 -0.770805 0.0325363 -0.801705 -0.596834 
0.0451939 -0.597968 -0.800245 -0.0951049 -0.782809 -0.614952 -0.060877 -0.588715 -0.806045 
-0.192153 -0.792652 -0.578602 -0.168931 -0.654512 -0.736938 -0.280266 -0.759796 -0.586653 
-0.278668 -0.76262 -0.583742 -0.277518 -0.750523 -0.599749 0.0886967 0.076255 -0.993135 
0.0132878 0.123038 -0.992313 0.0477254 0.137492 -0.989352 -0.0190669 0.200198 -0.97957 
0.0808298 0.0646936 -0.994626 0.00726997 0.029738 -0.999531 0.0495499 0.018488 -0.998601 
0.0977937 0.0715456 -0.992632 -0.0945442 0.0447526 -0.994514 -0.00169391 -0.124386 -0.992232 
-0.0335981 -0.0484479 -0.99826 0.0136529 0.0505773 -0.998627 0.0476221 0.112506 -0.992509 
0.00956003 0.0368853 -0.999274 0.0523481 0.107121 -0.992867 -0.0714766 0.149399 -0.98619 
-0.0170469 0.119999 -0.992628 -0.0743296 0.136433 -0.987857 0.0651147 0.0785276 -0.994783 
0.0220364 0.0889992 -0.995788 0.0320878 0.104701 -0.993986 -0.0462841 -0.0248724 -0.998619 
-0.125567 -0.00247415 -0.992082 -0.0334752 0.0100325 -0.999389 0.0837742 -0.0205095 -0.996274 
0.012733 -0.0845467 -0.996338 0.0163427 -0.00966983 -0.99982 -0.0218397 -0.0568192 -0.998146 
-0.0161673 -0.0261977 -0.999526 0.0113972 -0.106923 -0.994202 0.0164611 -0.0944242 -0.995396 
0.0122463 -0.15827 -0.98732 0.0269253 -0.109336 -0.99364 -0.100217 -0.0947406 -0.990445 
-0.0622201 -0.159601 -0.985219 -0.0648924 -0.103263 -0.992535 0.17494 0.0247329 -0.984268 
0.072398 0.0380817 -0.996649 -0.162574 -0.00509881 -0.986683 -0.034508 0.0275955 -0.999023 
-0.134131 -0.0387238 -0.990207 0.0976875 -0.0975851 -0.990421 0.087964 -0.134411 -0.987014 
0.0703061 -0.0720012 -0.994924 -0.0133154 -0.162971 -0.986541 -0.011435 -0.104051 -0.994506 
-0.112072 -0.0520505 -0.992336 -0.112097 -0.0629439 -0.991702 -0.113086 -0.0532101 -0.992159 

