# vtk DataFile Version 4.2
vtk output
ASCII
DATASET POLYDATA
POINTS 528 float
29.8629 -13.5511 -23.2881 -34.5433 -37.7034 -15.3455 -26.4926 -37.7034 -17.3675 
-18.4418 -37.7034 -18.6888 -10.391 -37.7034 -19.233 -2.34022 -37.7034 -19.2047 
5.71056 -37.7034 -19.6994 13.7613 -37.7034 -19.8455 21.8121 -37.7034 -19.2235 
29.8629 -37.7034 -17.3609 -42.5941 -29.6526 -17.132 -34.5433 -29.6526 -19.6741 
-26.4926 -29.6526 -21.5218 -18.4418 -29.6526 -21.3737 -10.391 -29.6526 -21.8187 
-2.34022 -29.6526 -21.5741 5.71056 -29.6526 -21.7242 13.7613 -29.6526 -22.3456 
21.8121 -29.6526 -21.8005 29.8629 -29.6526 -21.4108 37.9137 -29.6526 -18.2649 
-50.6449 -21.6019 -15.3151 -42.5941 -21.6019 -19.5706 -34.5433 -21.6019 -22.4283 
-26.4926 -21.6019 -22.6065 -18.4418 -21.6019 -22.1039 -10.391 -21.6019 -21.6544 
-2.34022 -21.6019 -22.0214 5.71056 -21.6019 -21.6802 13.7613 -21.6019 -21.9362 
21.8121 -21.6019 -22.2161 29.8629 -17.7502 -22.8779 29.8629 -21.6019 -22.4649 
37.9137 -21.6019 -21.2322 45.9645 -21.6019 -15.6706 -50.6449 -13.5511 -17.5625 
-42.5941 -13.5511 -20.6919 -34.5433 -13.5511 -22.1563 -26.4926 -13.5511 -22.4309 
-18.4418 -13.5511 -21.7614 -10.391 -13.5511 -21.0676 -2.34022 -13.5511 -21.7464 
5.71056 -13.5511 -21.0946 13.7613 -13.5511 -20.3734 27.2932 -13.5511 -22.8779 
21.8121 -13.5511 -21.9384 32.7727 -13.5511 -22.8779 29.8629 -10.299 -22.8779 
37.9137 -13.5511 -22.0117 45.9645 -13.5511 -17.0921 -50.6449 -5.50031 -17.1582 
-42.5941 -5.50031 -20.8415 -34.5433 -5.50031 -22.1044 -26.4926 -5.50031 -22.0822 
-18.4418 -5.50031 -21.0357 -10.391 -5.50031 -20.6153 -2.34022 -5.50031 -22.1871 
5.71056 -5.50031 -22.1425 13.7613 -5.50031 -20.7289 21.8121 -5.50031 -22.263 
29.8629 -5.50031 -22.2268 37.9137 -5.50031 -20.7027 45.9645 -5.50031 -17.655 
-50.6449 2.55047 -16.8635 -42.5941 2.55047 -20.477 -34.5433 2.55047 -21.9624 
-26.4926 2.55047 -22.0433 -18.4418 2.55047 -21.4506 -10.391 2.55047 -21.9903 
-2.34022 2.55047 -21.8507 5.71056 2.55047 -21.54 13.7613 2.55047 -21.7042 
21.8121 2.55047 -21.6498 29.8629 2.55047 -20.4255 37.9137 2.55047 -18.4452 
45.9645 2.55047 -15.5161 -42.5941 10.6013 -19.4898 -34.5433 10.6013 -21.2914 
-26.4926 10.6013 -21.7079 -18.4418 10.6013 -21.4681 -10.391 10.6013 -21.462 
-2.34022 10.6013 -21.755 5.71056 10.6013 -20.6303 13.7613 10.6013 -21.1052 
21.8121 10.6013 -20.2383 29.8629 10.6013 -18.18 37.9137 10.6013 -15.9613 
-42.5941 18.652 -16.602 -34.5433 18.652 -19.2226 -26.4926 18.652 -19.9653 
-18.4418 18.652 -19.429 -10.391 18.652 -19.4679 -2.34022 18.652 -19.6408 
5.71056 18.652 -18.7936 13.7613 18.652 -19.2546 21.8121 18.652 -18.5518 
29.8629 18.652 -16.0563 -26.4926 26.7028 -16.6439 -18.4418 26.7028 -17.4391 
-10.391 26.7028 -18.361 -2.34022 26.7028 -18.3257 5.71056 26.7028 -16.766 
13.7613 26.7028 -16.3558 21.8121 26.7028 -15.1452 -18.4418 34.7536 -14.9185 
-10.391 34.7536 -16.3337 -2.34022 34.7536 -15.522 -34.5433 -38.2018 -14.8271 
-26.4926 -40.8027 -14.8271 -18.4418 -42.7031 -14.8271 -18.4418 -45.7542 -8.80161 
-10.391 -42.7773 -14.8271 -10.391 -45.7542 -6.97256 -2.34022 -42.3656 -14.8271 
5.71056 -42.8323 -14.8271 13.7613 -43.4135 -14.8271 21.8121 -42.8766 -14.8271 
29.8629 -39.6628 -14.8271 -35.3221 -37.7034 -14.8271 -42.5941 -32.3779 -14.8271 
33.1284 -37.7034 -14.8271 37.9137 -33.6555 -14.8271 -45.3807 -29.6526 -14.8271 
-50.6449 -22.3962 -14.8271 41.7158 -29.6526 -14.8271 45.9645 -23.1982 -14.8271 
-51.1381 -21.6019 -14.8271 46.8811 -21.6019 -14.8271 -53.6905 -13.5511 -14.8271 
49.0852 -13.5511 -14.8271 54.0152 -13.5511 -10.1929 -53.2676 -5.50031 -14.8271 
50.8585 -5.50031 -14.8271 54.0152 -5.50031 -12.9403 62.066 -5.50031 -6.82003 
-52.8597 2.55047 -14.8271 -50.6449 10.4524 -14.8271 47.4505 2.55047 -14.8271 
45.9645 5.48305 -14.8271 54.0152 2.55047 -11.9106 62.066 2.55047 -7.93819 
-50.5842 10.6013 -14.8271 -50.6449 10.6013 -14.7662 41.9271 10.6013 -14.8271 
37.9137 13.7691 -14.8271 45.9645 10.6013 -13.5514 54.0152 10.6013 -9.7595 
-45.0792 18.652 -14.8271 -50.6449 18.652 -9.11823 -42.5941 21.3054 -14.8271 
-34.5433 26.1754 -14.8271 33.0572 18.652 -14.8271 29.8629 21.5083 -14.8271 
37.9137 18.652 -12.9874 45.9645 18.652 -10.2397 54.0152 18.652 -7.68269 
-42.5941 26.7028 -10.2116 -33.379 26.7028 -14.8271 -34.5433 26.7028 -14.4497 
-26.4926 30.1354 -14.8271 5.71056 30.9422 -14.8271 13.7613 29.029 -14.8271 
22.7864 26.7028 -14.8271 21.8121 27.1556 -14.8271 29.8629 26.7028 -12.165 
37.9137 26.7028 -8.34629 -34.5433 34.7536 -7.22943 -18.7366 34.7536 -14.8271 
-26.4926 34.7536 -11.7531 -18.4418 34.9002 -14.8271 -10.391 37.2992 -14.8271 
-0.149847 34.7536 -14.8271 -2.34022 35.8079 -14.8271 5.71056 34.7536 -12.625 
13.7613 34.7536 -9.97445 21.8121 34.7536 -7.73121 -18.4418 42.8044 -7.50026 
-10.391 42.8044 -9.7627 -2.34022 42.8044 -7.58957 -18.4418 -46.4911 -6.77634 
-10.391 -45.8118 -6.77634 -34.5433 -41.8914 -6.77634 -22.7194 -45.7542 -6.77634 
-26.4926 -45.102 -6.77634 -18.4418 -45.7542 -2.65876 -9.9328 -45.7542 -6.77634 
-10.391 -45.7542 -6.51107 -2.34022 -44.8054 -6.77634 5.71056 -44.8221 -6.77634 
13.7613 -45.2185 -6.77634 21.8121 -44.0071 -6.77634 29.8629 -41.5255 -6.77634 
-41.0893 -37.7034 -6.77634 -42.5941 -36.5555 -6.77634 36.1403 -37.7034 -6.77634 
29.8629 -37.7034 0.635597 37.9137 -36.4082 -6.77634 -49.7587 -29.6526 -6.77634 
-50.6449 -28.506 -6.77634 45.5163 -29.6526 -6.77634 45.9645 -29.1448 -6.77634 
-54.9397 -21.6019 -6.77634 52.3286 -21.6019 -6.77634 54.0152 -18.778 -6.77634 
-57.9785 -13.5511 -6.77634 57.2457 -13.5511 -6.77634 62.066 -5.58613 -6.77634 
-58.3164 -5.50031 -6.77634 62.1048 -5.50031 -6.77634 -57.4588 2.55047 -6.77634 
63.2288 2.55047 -6.77634 62.066 6.85196 -6.77634 -55.8166 10.6013 -6.77634 
59.8928 10.6013 -6.77634 62.066 10.6013 -5.07883 -52.1566 18.652 -6.77634 
-50.6449 21.0648 -6.77634 45.9645 24.6733 -6.77634 55.2694 18.652 -6.77634 
54.0152 19.7813 -6.77634 62.066 18.652 0.281391 -45.9236 26.7028 -6.77634 
-42.5941 29.8243 -6.77634 29.8629 32.2003 -6.77634 42.2125 26.7028 -6.77634 
37.9137 28.3691 -6.77634 45.9645 26.7028 -4.42156 -35.1952 34.7536 -6.77634 
-34.5433 35.1638 -6.77634 -26.4926 39.4672 -6.77634 5.71056 40.1847 -6.77634 
13.7613 37.6357 -6.77634 23.8129 34.7536 -6.77634 21.8121 35.5509 -6.77634 
29.8629 34.7536 -2.57518 -19.6505 42.8044 -6.77634 -26.4926 42.8044 -0.763342 
-18.4418 43.3219 -6.77634 -10.391 44.7251 -6.77634 -0.90169 42.8044 -6.77634 
-2.34022 43.3176 -6.77634 5.71056 42.8044 -1.46743 -34.5433 -40.8603 1.27444 
-26.4926 -43.7827 1.27444 -18.4418 -44.9626 1.27444 -10.391 -43.8328 1.27444 
-2.34022 -42.4996 1.27444 5.71056 -42.312 1.27444 13.7613 -42.0442 1.27444 
21.8121 -40.8845 1.27444 -38.7418 -37.7034 1.27444 -42.5941 -34.5981 1.27444 
-34.5433 -37.7034 5.78913 -26.4926 -37.7034 9.2673 -10.391 -37.7034 8.94828 
-2.34022 -37.7034 7.44694 5.71056 -37.7034 6.99847 13.7613 -37.7034 6.71141 
28.8973 -37.7034 1.27444 21.8121 -37.7034 4.51295 29.8629 -37.2685 1.27444 
37.9137 -33.3603 1.27444 -47.5142 -29.6526 1.27444 -50.6449 -25.7174 1.27444 
-42.5941 -29.6526 7.63441 29.8629 -29.6526 8.60493 42.6265 -29.6526 1.27444 
37.9137 -29.6526 5.61515 45.9645 -27.3925 1.27444 -53.4409 -21.6019 1.27444 
-50.6449 -21.6019 6.5417 53.1482 -21.6019 1.27444 54.0152 -20.8275 1.27444 
-56.9951 -13.5511 1.27444 60.4618 -13.5511 1.27444 62.066 -10.9094 1.27444 
-58.3142 -5.50031 1.27444 65.2314 -5.50031 1.27444 -58.4892 2.55047 1.27444 
66.2987 2.55047 1.27444 -57.4382 10.6013 1.27444 65.9488 10.6013 1.27444 
-54.689 18.652 1.27444 -50.6449 25.7125 1.27444 54.0152 25.317 1.27444 
62.6916 18.652 1.27444 62.066 19.3645 1.27444 62.066 18.652 6.83038 
-49.9048 26.7028 1.27444 -42.5941 34.1647 1.27444 37.9137 32.6993 1.27444 
51.9357 26.7028 1.27444 45.9645 29.5273 1.27444 -41.7993 34.7536 1.27444 
-42.5941 34.7536 8.85137 -34.5433 39.416 1.27444 13.7613 42.2193 1.27444 
21.8121 39.7704 1.27444 33.6383 34.7536 1.27444 29.8629 36.5847 1.27444 
-28.403 42.8044 1.27444 -26.4926 43.6905 1.27444 -26.4926 42.8044 8.77074 
-18.4418 45.7199 1.27444 -10.391 46.3552 1.27444 -2.34022 45.4015 1.27444 
11.1451 42.8044 1.27444 5.71056 43.8951 1.27444 13.7613 42.8044 5.33026 
-18.4418 -38.5115 9.32522 -34.5433 -33.9491 9.32522 -25.9483 -37.7034 9.32522 
-26.4926 -37.6363 9.32522 -12.97 -37.7034 9.32522 -18.4418 -37.7034 10.0552 
-10.391 -37.2072 9.32522 -2.34022 -35.3406 9.32522 5.71056 -34.7783 9.32522 
13.7613 -34.0725 9.32522 21.8121 -31.6339 9.32522 -40.1599 -29.6526 9.32522 
-42.5941 -27.5999 9.32522 -34.5433 -29.6526 12.0546 -26.4926 -29.6526 14.5796 
-18.4418 -29.6526 14.6589 -10.391 -29.6526 13.7626 -2.34022 -29.6526 12.6549 
5.71056 -29.6526 12.2839 13.7613 -29.6526 11.7481 27.2393 -29.6526 9.32522 
21.8121 -29.6526 10.5133 29.8629 -28.6334 9.32522 37.9137 -25.6386 9.32522 
45.9645 -22.7769 9.32522 -48.136 -21.6019 9.32522 -50.6449 -18.2676 9.32522 
-42.5941 -21.6019 13.1389 -34.5433 -21.6019 16.5068 -10.391 -21.6019 16.4539 
-2.34022 -21.6019 14.9974 5.71056 -21.6019 14.4107 13.7613 -21.6019 13.902 
21.8121 -21.6019 13.5132 29.8629 -21.6019 13.3577 37.9137 -21.6019 12.1889 
47.6481 -21.6019 9.32522 45.9645 -21.6019 10.4527 54.0152 -16.8733 9.32522 
-52.9055 -13.5511 9.32522 -50.6449 -13.5511 11.9113 5.71056 -13.5511 15.3407 
13.7613 -13.5511 14.4954 21.8121 -13.5511 15.1485 29.8629 -13.5511 15.921 
37.9137 -13.5511 16.1283 45.9645 -13.5511 14.7989 57.554 -13.5511 9.32522 
54.0152 -13.5511 12.2689 62.066 -8.33185 9.32522 -55.5613 -5.50031 9.32522 
-50.6449 -5.50031 15.6703 5.71056 -5.50031 17.0099 13.7613 -5.50031 15.7343 
21.8121 -5.50031 15.5322 29.8629 -5.50031 16.972 54.0152 -5.50031 16.5409 
64.0387 -5.50031 9.32522 62.066 -5.50031 11.3755 -57.0072 2.55047 9.32522 
65.5034 2.55047 9.32522 62.066 2.55047 13.0135 -56.419 10.6013 9.32522 
65.1327 10.6013 9.32522 62.066 17.9275 9.32522 62.066 10.6013 12.8172 
-54.1914 18.652 9.32522 -50.6449 25.8955 9.32522 -50.6449 18.652 16.4827 
61.629 18.652 9.32522 54.0152 24.9221 9.32522 54.0152 18.652 15.2153 
-50.1932 26.7028 9.32522 37.9137 32.2547 9.32522 37.9137 26.7028 15.733 
[...]
POINT_DATA 528
SCALARS ImageScalars float
LOOKUP_TABLE default
0 0 0 0 0 0 0 0 0 
0 0 0 0 0 0 0 0 0 
0 0 0 0 0 0 0 0 0 
0 0 0 0 0 0 0 0 0 
0 0 0 0 0 0 0 0 0 
0 0 0 0 0 0 0 0 0 
0 0 0 0 0 0 0 0 0 
0 0 0 0 0 0 0 0 0 
0 0 0 0 0 0 0 0 0 
0 0 0 0 0 0 0 0 0 
0 0 0 0 0 0 0 0 0 
0 0 0 0 0 0 0 0 0 
0 0 0 0 0 0 0 0 0 
0 0 0 0 0 0 0 0 0 
0 0 0 0 0 0 0 0 0 
0 0 0 0 0 0 0 0 0 
0 0 0 0 0 0 0 0 0 
0 0 0 0 0 0 0 0 0 
0 0 0 0 0 0 0 0 0 
0 0 0 0 0 0 0 0 0 
0 0 0 0 0 0 0 0 0 
0 0 0 0 0 0 0 0 0 
0 0 0 0 0 0 0 0 0 
0 0 0 0 0 0 0 0 0 
0 0 0 0 0 0 0 0 0 
0 0 0 0 0 0 0 0 0 
0 0 0 0 0 0 0 0 0 
0 0 0 0 0 0 0 0 0 
0 0 0 0 0 0 0 0 0 
0 0 0 0 0 0 0 0 0 
0 0 0 0 0 0 0 0 0 
0 0 0 0 0 0 0 0 0 
0 0 0 0 0 0 0 0 0 
0 0 0 0 0 0 0 0 0 
0 0 0 0 0 0 0 0 0 
0 0 0 0 0 0 0 0 0 
0 0 0 0 0 0 0 0 0 
0 0 0 0 0 0 0 0 0 
0 0 0 0 0 0 0 0 0 
0 0 0 0 0 0 0 0 0 
0 0 0 0 0 0 0 0 0 
0 0 0 0 0 0 0 0 0 
0 0 0 0 0 0 0 0 0 
0 0 0 0 0 0 0 0 0 
0 0 0 0 0 0 0 0 0 
0 0 0 0 0 0 0 0 0 
0 0 0 0 0 0 0 0 0 
0 0 0 0 0 0 0 0 0 
0 0 0 0 0 0 0 0 0 
0 0 0 0 0 0 0 0 0 
0 0 0 0 0 0 0 0 0 
0 0 0 0 0 0 0 0 0 
0 0 0 0 0 0 0 0 0 
0 0 0 0 0 0 0 0 0 
0 0 0 0 0 0 0 0 0 
0 0 0 0 0 0 0 0 0 
0 0 0 0 0 0 0 0 0 
0 0 0 0 0 0 0 0 0 
0 0 0 0 0 0 
NORMALS Normals float
0.00676613 -0.0153565 0.999859 0.376444 0.67361 0.636034 0.175967 0.567955 0.804029 
0.105207 0.488243 0.866343 0.0304558 0.492218 0.869939 0.0248427 0.518839 0.854511 
0.0360344 0.487872 0.872171 -0.029191 0.481219 0.876114 -0.120777 0.525798 0.841991 
-0.379844 0.683062 0.623814 0.478532 0.504891 0.718396 0.236217 0.368626 0.899064 
0.0977458 0.282638 0.954234 0.0183533 0.199098 0.979808 0.0106347 0.131033 0.991321 
-0.0045558 0.144824 0.989447 0.0455068 0.094102 0.994522 0.00808802 0.107203 0.994204 
-0.0548888 0.170839 0.983769 -0.175731 0.25223 0.951577 -0.502923 0.4935 0.709596 
0.662712 0.374396 0.648568 0.380891 0.192255 0.904411 0.174956 0.140324 0.974525 
-0.0215401 0.0501069 0.998512 -0.0583885 0.0220985 0.998049 -0.00508485 -0.0459875 0.998929 
0.00162844 0.011667 0.999931 -0.00651218 -0.0375763 0.999273 0.0342478 -0.124735 0.991599 
0.0311263 0.00781663 0.999485 -0.0264604 0.0484394 0.998476 -0.0611833 0.111203 0.991913 
-0.342842 0.170547 0.923782 -0.695849 0.275515 0.663239 0.567252 0.100061 0.817443 
0.271524 0.0772085 0.95933 0.101857 -0.0187265 0.994623 -0.0245922 -0.0319683 0.999186 
-0.0843326 -0.0659951 0.99425 -0.000909937 -0.0646738 0.997906 0.00399092 0.00946894 0.999947 
-0.0889466 0.0252242 0.995717 0.0555227 -0.0694264 0.996041 0.0647747 -0.00936074 0.997856 
0.184174 0.00295479 0.982889 -0.114163 -0.0200677 0.993259 -0.0307995 -0.0751066 0.9967 
-0.336215 -0.0299478 0.941309 -0.566828 0.0967148 0.818139 0.580187 -0.0407383 0.813464 
0.269516 -0.0127787 0.962911 0.0722228 -0.0119517 0.997317 -0.0665023 -0.0241818 0.997493 
-0.0910762 -0.0193871 0.995655 0.0676226 0.054169 0.996239 0.0990489 0.00697762 0.995058 
-0.0948661 0.0254753 0.995164 0.0139203 0.0843582 0.996338 0.0924519 -0.0172184 0.995568 
-0.092601 -0.16701 0.981597 -0.25609 -0.201725 0.94537 -0.435274 -0.0903332 0.895755 
0.604431 -0.126194 0.786599 0.291441 -0.0802797 0.953214 0.0916939 -0.0498039 0.994541 
-0.03185 -0.0229661 0.999229 -0.00444531 0.0267884 0.999631 0.025487 0.0559255 0.99811 
-0.0277708 -0.0260301 0.999275 -0.00886754 -0.0903444 0.995871 0.00683049 0.0238741 0.999692 
-0.0729835 -0.122033 0.989839 -0.191247 -0.246025 0.950209 -0.274456 -0.279995 0.919933 
-0.365454 -0.217116 0.905154 0.353063 -0.200783 0.913801 0.129898 -0.158252 0.978817 
0.0104097 -0.115552 0.993247 -0.0152209 -0.117778 0.992923 0.017775 -0.159209 0.987085 
-0.0523763 -0.138237 0.989013 -0.038313 -0.166852 0.985237 -0.0224553 -0.145956 0.989036 
-0.175011 -0.188912 0.966273 -0.254107 -0.245806 0.935419 -0.262625 -0.30542 0.915285 
0.432099 -0.43735 0.788679 0.169428 -0.370848 0.913108 0.0111412 -0.306942 0.951663 
-0.0269724 -0.249998 0.967871 0.0128075 -0.181166 0.983369 -0.0402875 -0.208202 0.977256 
-0.0251865 -0.228756 0.973158 -0.0145339 -0.281901 0.959333 -0.178687 -0.281552 0.942761 
-0.323014 -0.313637 0.892913 0.158628 -0.417401 0.89477 0.100211 -0.260496 0.96026 
0.0545186 -0.181526 0.981874 -0.0911871 -0.230193 0.968863 -0.121784 -0.327902 0.936829 
-0.0896097 -0.468989 0.878647 -0.212558 -0.512334 0.832065 0.222605 -0.443321 0.868282 
0.0384221 -0.390721 0.919707 -0.186733 -0.467355 0.864124 0.38273 0.696395 0.607084 
0.221902 0.696903 0.681972 0.0922017 0.738828 0.667557 0.0528092 0.975802 0.212185 
-0.0176967 0.799425 0.600506 -0.101937 0.993603 0.0486081 0.0022084 0.834052 0.551682 
0.0544329 0.860802 0.50602 0.00239475 0.861396 0.507928 -0.208316 0.85933 0.467072 
-0.425329 0.782973 0.453925 0.394631 0.689207 0.607668 0.52635 0.598479 0.603968 
-0.501163 0.734469 0.457592 -0.580511 0.651887 0.487904 0.601651 0.539297 0.589215 
0.677116 0.398791 0.618449 -0.646512 0.555646 0.522762 -0.720659 0.333052 0.608052 
0.68281 0.380797 0.623509 -0.717426 0.298686 0.629355 0.72142 0.117759 0.682412 
-0.612579 0.151412 0.775772 -0.70604 0.32913 0.627042 0.696818 -0.0439028 0.715903 
-0.517316 -0.0196109 0.85557 -0.576384 0.0534912 0.815426 -0.76943 0.271785 0.578023 
0.708883 -0.131329 0.692992 0.66062 -0.302139 0.687236 -0.381411 -0.205823 0.901201 
-0.357618 -0.239815 0.902551 -0.444946 -0.169132 0.879441 -0.717931 -0.0681331 0.692772 
0.658999 -0.304939 0.687555 0.662224 -0.305504 0.684198 -0.299917 -0.298633 0.906018 
-0.282922 -0.331367 0.900084 -0.339026 -0.293135 0.893942 -0.435384 -0.239966 0.867673 
0.516925 -0.45479 0.725227 0.741997 -0.452653 0.494515 0.447068 -0.501811 0.740484 
0.27383 -0.545717 0.791966 -0.32357 -0.339524 0.883191 -0.330031 -0.387639 0.860706 
-0.315443 -0.382656 0.868372 -0.297341 -0.415153 0.859789 -0.485528 -0.486479 0.726362 
0.500857 -0.626916 0.596756 0.265137 -0.536233 0.801347 0.285145 -0.560006 0.777872 
0.235912 -0.45898 0.856553 -0.199024 -0.446505 0.872366 -0.122754 -0.529479 0.839395 
-0.22838 -0.51496 0.826232 -0.21464 -0.525055 0.823557 -0.334408 -0.551987 0.76386 
-0.327811 -0.623662 0.709637 0.43516 -0.702092 0.563651 0.226087 -0.446852 0.865568 
0.34565 -0.585313 0.73344 0.222921 -0.448418 0.865579 0.0340807 -0.498914 0.865981 
-0.207311 -0.494119 0.844315 -0.196415 -0.508279 0.838495 -0.270846 -0.585595 0.764016 
-0.212245 -0.697024 0.684916 -0.26032 -0.763488 0.591033 0.269462 -0.824813 0.497065 
0.0130595 -0.839604 0.543043 -0.242899 -0.859907 0.448954 0.0427642 0.994884 0.091528 
-0.103521 0.993901 0.0379992 0.446867 0.884425 0.134543 0.158763 0.982516 0.0972427 
0.260447 0.959149 0.110457 0.0269022 0.988647 -0.14783 -0.101037 0.994274 0.0347801 
-0.104889 0.99418 0.0245718 -0.0612579 0.998059 -0.011239 0.0254963 0.998876 -0.0399498 
-0.0464222 0.995019 -0.0882111 -0.222771 0.970939 -0.087473 -0.411482 0.905676 -0.102145 
0.603717 0.790885 0.100133 0.637224 0.764758 0.0953446 -0.562256 0.824307 -0.0662259 
-0.355064 0.757862 -0.547334 -0.598336 0.800303 -0.0388561 0.76828 0.634459 0.084902 
0.792065 0.603958 0.088701 -0.730637 0.681456 0.0422907 -0.740495 0.669564 0.0578919 
0.89759 0.427231 0.108656 -0.77832 0.558321 0.287221 -0.76796 0.510157 0.38727 
0.968898 0.189985 0.158565 -0.755118 0.422043 0.501673 -0.770277 0.274547 0.575584 
0.973191 -0.0305188 0.227964 -0.770411 0.272382 0.576433 0.946296 -0.13769 0.292514 
-0.766569 -0.054431 0.639852 -0.683869 -0.208095 0.699299 0.888209 -0.293504 0.353468 
-0.573348 -0.306316 0.759896 -0.695322 -0.307888 0.649409 0.795186 -0.446613 0.410141 
0.757592 -0.493401 0.427328 -0.365271 -0.630277 0.685075 -0.523097 -0.498032 0.691617 
-0.500089 -0.526771 0.687331 -0.723559 -0.615557 0.312332 0.618377 -0.625764 0.475426 
0.535855 -0.68281 0.496618 -0.333124 -0.739274 0.585237 -0.354369 -0.672538 0.649704 
-0.33669 -0.689798 0.640951 -0.400316 -0.762422 0.508389 0.445609 -0.708973 0.546617 
0.4396 -0.711341 0.548402 0.384806 -0.75692 0.528201 -0.291553 -0.792883 0.535102 
-0.228675 -0.77138 0.593869 -0.28152 -0.775938 0.564506 -0.265863 -0.782426 0.56314 
-0.367948 -0.852307 0.371734 0.288744 -0.832768 0.47236 0.366764 -0.899085 0.239021 
0.269469 -0.843584 0.464491 -0.00134947 -0.918477 0.395473 -0.249558 -0.86638 0.432558 
-0.240963 -0.877821 0.413966 -0.228013 -0.924043 0.306847 0.464058 0.822716 -0.328312 
0.211182 0.913379 -0.348053 0.00638673 0.919966 -0.391946 -0.138212 0.897278 -0.419273 
-0.0845674 0.889922 -0.448204 -0.0252497 0.880803 -0.472809 -0.0676866 0.850353 -0.521841 
-0.239176 0.802869 -0.546074 0.559798 0.747317 -0.357972 0.61639 0.699244 -0.362107 
0.45209 0.689602 -0.565742 0.157072 0.649442 -0.744012 -0.120316 0.651474 -0.74907 
-0.0867352 0.691135 -0.717502 -0.0327076 0.703488 -0.709954 -0.111284 0.683734 -0.721196 
-0.334615 0.740854 -0.582382 -0.253488 0.686681 -0.681331 -0.342486 0.738024 -0.581399 
-0.460506 0.758662 -0.460831 0.703465 0.610389 -0.36409 0.767249 0.546186 -0.33617 
0.541687 0.576293 -0.611932 -0.2224 0.586489 -0.778825 -0.524395 0.754163 -0.395283 
-0.390425 0.683521 -0.61674 -0.557953 0.772854 -0.3023 0.822738 0.476245 -0.310312 
0.708346 0.499078 -0.499167 -0.649145 0.744269 -0.157082 -0.669979 0.730481 -0.132386 
0.924659 0.275995 -0.262359 -0.838768 0.544334 0.0130082 -0.884488 0.46444 0.0444593 
0.985384 0.0841802 -0.148095 -0.934359 0.332782 0.127394 0.998238 -0.0524279 -0.0277801 
-0.986697 0.0445189 0.156353 0.973763 -0.226878 0.0176797 -0.946042 -0.225327 0.232877 
0.910407 -0.400562 0.103488 0.802276 -0.574717 0.161413 -0.558096 -0.798201 0.226724 
-0.748876 -0.612688 0.252584 -0.717538 -0.649796 0.250807 -0.760838 -0.605106 -0.234461 
0.780075 -0.600769 0.174815 0.601277 -0.768963 0.217168 -0.390342 -0.905222 0.167946 
-0.514801 -0.830692 0.21197 -0.417219 -0.890136 0.183268 0.585763 -0.78026 0.21926 
0.603141 -0.78606 -0.13539 0.485999 -0.848961 0.207535 -0.234542 -0.926414 0.294528 
-0.32719 -0.915175 0.235376 -0.393031 -0.902316 0.177065 -0.394542 -0.897894 0.19525 
0.38622 -0.908402 0.160126 0.352446 -0.92411 0.147658 0.27241 -0.92727 -0.256834 
0.164532 -0.984418 0.0620554 -0.0208238 -0.999666 -0.0152942 -0.149377 -0.98759 0.0484985 
-0.220259 -0.939008 0.264101 -0.191602 -0.960807 0.200346 -0.233531 -0.970488 0.0601329 
-0.0156994 0.653416 -0.756836 0.379408 0.564393 -0.733151 0.145278 0.64792 -0.747725 
0.156503 0.646442 -0.74674 -0.0859799 0.642276 -0.761636 -0.0135407 0.630685 -0.775921 
-0.119325 0.629495 -0.767787 -0.0821306 0.582208 -0.808881 -0.0419596 0.566465 -0.823017 
-0.11168 0.527632 -0.8421 -0.183033 0.49927 -0.846893 0.469324 0.540757 -0.69808 
0.50177 0.538137 -0.677226 0.339088 0.499394 -0.797261 0.129625 0.426337 -0.895229 
-0.0461677 0.3856 -0.92151 -0.117341 0.388095 -0.914119 -0.0842507 0.392561 -0.915859 
-0.0518092 0.376703 -0.924884 -0.104942 0.374584 -0.921235 -0.197434 0.539823 -0.818298 
-0.161574 0.452688 -0.876908 -0.200699 0.557459 -0.80558 -0.249013 0.598338 -0.761567 
-0.378027 0.66133 -0.647872 0.603088 0.493016 -0.627073 0.681223 0.431571 -0.591338 
0.435202 0.474825 -0.764945 0.220136 0.422808 -0.879075 -0.14492 0.299851 -0.942915 
-0.118556 0.272808 -0.954736 -0.0657609 0.179295 -0.981595 -0.0552298 0.156508 -0.986131 
-0.0320728 0.27366 -0.961292 -0.0690325 0.400116 -0.913861 -0.162818 0.527167 -0.834018 
-0.40362 0.670501 -0.622511 -0.346798 0.630488 -0.694418 -0.522481 0.649887 -0.55196 
0.746839 0.347042 -0.567268 0.664808 0.358024 -0.655629 -0.176582 0.161428 -0.970958 
-0.0108123 0.107225 -0.994176 0.0866156 0.125135 -0.988352 0.0598703 0.211374 -0.97557 
-0.0617439 0.30875 -0.949137 -0.214585 0.402261 -0.890022 -0.608834 0.590733 -0.529487 
-0.448851 0.531625 -0.718267 -0.727369 0.489723 -0.480734 0.858303 0.218605 -0.46425 
0.655455 0.283604 -0.699963 -0.182495 0.22959 -0.956025 -0.0997409 0.285332 -0.953225 
0.0791931 0.147463 -0.985892 0.138045 0.139096 -0.98061 -0.336842 0.355408 -0.871907 
-0.783887 0.393312 -0.480445 -0.68715 0.378764 -0.61997 0.939487 0.0401967 -0.340219 
-0.908179 0.0676572 -0.413079 -0.723768 0.0859933 -0.684665 0.948412 -0.155986 -0.276014 
-0.885135 -0.230905 -0.404005 -0.73102 -0.529224 -0.430734 -0.734515 -0.216083 -0.643269 
0.911875 -0.342484 -0.226251 0.836354 -0.518192 -0.178856 0.742846 -0.314719 -0.590874 
-0.71557 -0.555472 -0.423569 -0.563893 -0.745265 -0.355815 -0.472076 -0.536238 -0.699709 
0.822433 -0.541666 -0.173786 -0.401664 -0.862229 -0.308589 -0.278843 -0.551875 -0.785926 
-0.493177 -0.800689 -0.340108 -0.381282 -0.865318 -0.325345 -0.374311 -0.754057 -0.539713 
0.601959 -0.783129 -0.156059 0.600998 -0.783857 -0.156104 0.60081 -0.783215 -0.160008 
0.420328 -0.884209 -0.203714 0.264424 -0.921164 -0.285548 -0.398925 -0.893293 -0.207089 
-0.427943 -0.858433 -0.282766 -0.443044 -0.852178 -0.278398 -0.441049 -0.786656 -0.432027 
0.258999 -0.921493 -0.289429 0.110754 -0.916258 -0.384974 0.0834339 -0.853285 -0.514727 
-0.0129292 -0.906363 -0.422302 -0.00188507 -0.834767 -0.550601 -0.0262958 -0.935447 -0.352486 
-0.00166617 -0.870976 -0.491322 -0.0621043 -0.971593 -0.228362 -0.0418156 -0.91927 -0.3914 
-0.252687 -0.952121 -0.172088 -0.220472 -0.961305 -0.165182 -0.21949 -0.946328 -0.23725 
0.0570888 0.348035 -0.935742 -0.0708302 0.308654 -0.948534 0.383931 0.368602 -0.846599 
0.0959065 0.364692 -0.926176 0.201434 0.40038 -0.893936 0.0508478 0.342291 -0.938217 
-0.0774005 0.306742 -0.94864 -0.0718624 0.307063 -0.948972 -0.146657 0.309803 -0.939422 
-0.231814 0.251051 -0.939806 0.3855 0.367681 -0.846286 0.383407 0.367586 -0.847278 
0.161094 0.332135 -0.929374 -0.00325957 0.27025 -0.962785 -0.0683265 0.225178 -0.971919 
-0.133939 0.330065 -0.934408 -0.234943 0.24407 -0.940868 -0.238234 0.250644 -0.938308 
0.0165538 0.204512 -0.978724 -0.0814783 0.264765 -0.960865 0.547366 0.290471 -0.784867 
0.639803 0.213799 -0.738202 0.332907 0.288205 -0.897837 0.0932283 0.233583 -0.967857 
-0.069031 0.145024 -0.987017 -0.030115 0.0758553 -0.996664 -0.104682 0.165656 -0.980612 
-0.210875 0.220159 -0.952398 -0.317459 0.168839 -0.93312 -0.165469 0.242852 -0.955847 
-0.107179 0.385892 -0.916297 -0.0406102 0.26688 -0.962874 0.0914641 0.15469 -0.98372 
0.122427 0.146298 -0.981636 0.0429235 0.169399 -0.984612 -0.14895 0.28468 -0.94698 
-0.0679683 0.249982 -0.965862 -0.32418 0.285766 -0.901801 0.678339 0.152366 -0.718777 
0.64327 0.167396 -0.747116 0.27335 0.144395 -0.951015 0.0116802 0.0922802 -0.995665 
-0.171116 0.0442426 -0.984257 -0.0399368 0.00124268 -0.999201 -0.0213856 -0.015508 -0.999651 
-0.187439 0.197898 -0.962135 -0.0465742 0.290139 -0.955851 -0.135748 0.439486 -0.887933 
-0.0545998 0.277538 -0.959162 0.0875348 0.162176 -0.982872 0.0519583 0.10612 -0.992995 
-0.0327029 0.103336 -0.994109 -0.386159 0.125048 -0.913917 -0.297615 0.118198 -0.947341 
0.743052 -0.0816778 -0.664231 0.717405 -0.24922 -0.650554 0.68665 -0.0756763 -0.723039 
0.232951 -0.0523691 -0.971077 -0.0115424 -0.05956 -0.998158 -0.158663 -0.00600012 -0.987315 
-0.0960764 0.0342202 -0.994786 0.0430296 -0.0840977 -0.995528 -0.0096037 -0.000775908 -0.999954 
0.0411052 0.101704 -0.993965 -0.0519938 0.131139 -0.99 -0.184877 0.234924 -0.95427 
-0.0446894 0.0900104 -0.994938 -0.0126927 -0.00977576 -0.999872 -0.0627107 -0.092199 -0.993764 
-0.407083 -0.186459 -0.894157 -0.372629 -0.335587 -0.865176 -0.296587 -0.144564 -0.944001 
0.686836 -0.297228 -0.663259 0.295615 -0.231814 -0.926755 0.0563706 -0.139703 -0.988588 
-0.0671505 -0.0825846 -0.994319 -0.122172 0.00344936 -0.992503 -0.056847 -0.0641813 -0.996318 
0.0331699 -0.0885303 -0.995521 0.100808 -0.0126566 -0.994825 0.00197148 -0.0553719 -0.998464 
-0.164664 -0.00153935 -0.986348 -0.149158 -0.0677287 -0.986491 -0.19397 -0.351772 -0.915769 
-0.128548 -0.192773 -0.972787 -0.202316 -0.304518 -0.930772 -0.196614 -0.303201 -0.932422 
-0.192882 -0.296947 -0.935211 0.532069 -0.45537 -0.713821 0.464692 -0.526263 -0.712116 
0.418658 -0.423753 -0.803218 0.143841 -0.310786 -0.939533 -0.00758531 -0.225961 -0.974107 
-0.0744242 -0.167802 -0.983007 -0.0534155 -0.142396 -0.988367 0.0480677 -0.12044 -0.991556 
0.0776401 -0.117055 -0.990086 -0.0427032 -0.181205 -0.982518 -0.193024 -0.209572 -0.958552 
-0.257354 -0.405032 -0.877336 -0.294176 -0.408199 -0.864195 -0.257545 -0.343372 -0.903198 
0.308393 -0.611117 -0.728992 0.294975 -0.613631 -0.732425 0.290099 -0.601922 -0.743998 
0.0873248 -0.599183 -0.795836 0.0596802 -0.466924 -0.882281 -0.0252506 -0.522908 -0.852015 
-0.0401374 -0.443956 -0.895149 0.0138067 -0.463897 -0.885782 0.00694073 -0.385019 -0.922882 
0.0593829 -0.483126 -0.873535 0.063048 -0.371952 -0.926108 0.0177052 -0.552524 -0.833309 
0.0328706 -0.379519 -0.9246 -0.139738 -0.580131 -0.802447 -0.102411 -0.44561 -0.88935 
-0.338745 -0.552005 -0.761933 -0.333889 -0.559693 -0.758461 -0.329335 -0.542377 -0.772895 

