# vtk DataFile Version 4.2
vtk output
ASCII
DATASET POLYDATA
POINTS 542 float
-13.173 -43.3601 -14.7637 -5.11545 -43.3601 -16.1281 2.9421 -43.3601 -15.9393 
10.9996 -43.3601 -14.8974 -21.2306 -35.3025 -16.2865 -13.173 -35.3025 -18.9895 
-5.11545 -35.3025 -19.8023 2.9421 -35.3025 -19.4362 10.9996 -35.3025 -18.7745 
19.0572 -35.3025 -18.0308 27.1147 -35.3025 -16.1496 -29.2881 -27.245 -14.2589 
-21.2306 -27.245 -18.4051 -13.173 -27.245 -20.1408 -5.11545 -27.245 -20.0181 
2.9421 -27.245 -19.8233 10.9996 -27.245 -20.0273 19.0572 -27.245 -19.5725 
27.1147 -27.245 -18.9864 35.1723 -27.245 -16.8916 -29.2881 -19.1874 -16.8549 
-21.2306 -19.1874 -19.5202 -13.173 -19.1874 -20.0242 -5.11545 -19.1874 -19.6722 
2.9421 -19.1874 -19.6321 10.9996 -19.1874 -19.5764 19.0572 -19.1874 -19.9495 
27.1147 -19.1874 -19.9109 35.1723 -19.1874 -18.981 43.2299 -19.1874 -16.4452 
-37.3457 -11.1299 -15.6575 -29.2881 -11.1299 -17.9712 -21.2306 -11.1299 -19.5893 
-13.173 -11.1299 -19.9454 -5.11545 -11.1299 -19.5915 2.9421 -11.1299 -19.803 
10.9996 -11.1299 -19.1963 19.0572 -11.1299 -19.4173 27.1147 -11.1299 -20.4979 
35.1723 -11.1299 -20.57 43.2299 -11.1299 -18.4325 51.2874 -11.1299 -15.2167 
-45.4032 -3.07233 -15.1407 -37.3457 -3.07233 -16.9611 -29.2881 -3.07233 -18.2555 
-21.2306 -3.07233 -18.839 -13.173 -3.07233 -20.1069 -5.11545 -3.07233 -18.8579 
2.9421 -3.07233 -20.1357 10.9996 -3.07233 -20.1794 19.0572 -3.07233 -18.8466 
27.1147 -3.07233 -19.7481 35.1723 -3.07233 -20.0708 43.2299 -3.07233 -19.2917 
51.2874 -3.07233 -17.0443 -45.4032 4.98522 -15.4844 -37.3457 4.98522 -17.4594 
-29.2881 4.98522 -17.962 -21.2306 4.98522 -17.5084 -13.173 4.98522 -17.6395 
-5.11545 4.98522 -18.6918 2.9421 4.98522 -20.7378 10.9996 4.98522 -19.5569 
19.0572 4.98522 -18.7372 27.1147 4.98522 -19.749 35.1723 4.98522 -20.1213 
43.2299 4.98522 -19.586 51.2874 4.98522 -17.1631 -45.4032 13.0428 -15.1485 
-37.3457 13.0428 -17.1657 -29.2881 13.0428 -17.8026 -21.2306 13.0428 -17.2787 
-13.173 13.0428 -18.003 -5.11545 13.0428 -19.541 2.9421 13.0428 -18.7734 
10.9996 13.0428 -18.9996 19.0572 13.0428 -19.8791 27.1147 13.0428 -20.9317 
35.1723 13.0428 -20.883 43.2299 13.0428 -18.7265 51.2874 13.0428 -15.397 
-45.4032 21.1003 -14.3855 -37.3457 21.1003 -16.4276 -29.2881 21.1003 -17.3258 
-21.2306 21.1003 -17.8468 -13.173 21.1003 -19.0238 -5.11545 21.1003 -19.9115 
2.9421 21.1003 -19.901 10.9996 21.1003 -20.4632 19.0572 21.1003 -21.206 
27.1147 21.1003 -20.9067 35.1723 21.1003 -19.884 43.2299 21.1003 -16.444 
-37.3457 29.1579 -14.7189 -29.2881 29.1579 -16.1921 -21.2306 29.1579 -17.2005 
-13.173 29.1579 -18.4857 -5.11545 29.1579 -19.5272 2.9421 29.1579 -20.7459 
10.9996 29.1579 -21.3044 19.0572 29.1579 -21.0418 27.1147 29.1579 -20.0301 
35.1723 29.1579 -16.3305 -21.2306 37.2154 -14.1305 -13.173 37.2154 -15.2206 
-5.11545 37.2154 -16.295 2.9421 37.2154 -17.5539 10.9996 37.2154 -18.3357 
19.0572 37.2154 -17.3883 -13.173 -44.3199 -13.8583 -5.11545 -45.8654 -13.8583 
2.9421 -45.6957 -13.8583 10.9996 -44.4879 -13.8583 -14.9412 -43.3601 -13.8583 
-21.2306 -39.008 -13.8583 -21.2306 -43.3601 -8.36677 16.4687 -43.3601 -13.8583 
19.0572 -42.6768 -13.8583 19.0572 -43.3601 -13.0014 27.1147 -38.1733 -13.8583 
-24.6684 -35.3025 -13.8583 -29.2881 -28.0712 -13.8583 -29.2881 -35.3025 -8.15159 
31.5866 -35.3025 -13.8583 35.1723 -32.2887 -13.8583 35.1723 -35.3025 -10.4543 
-29.8532 -27.245 -13.8583 -37.3457 -27.245 -6.45899 40.5832 -27.245 -13.8583 
43.2299 -24.4257 -13.8583 43.2299 -27.245 -11.3618 -45.4032 -19.1874 -7.08257 
-35.2948 -19.1874 -13.8583 -37.3457 -16.338 -13.8583 -37.3457 -19.1874 -12.576 
47.6744 -19.1874 -13.8583 51.2874 -14.3719 -13.8583 51.2874 -19.1874 -10.4015 
-41.4089 -11.1299 -13.8583 -45.4032 -6.57548 -13.8583 -45.4032 -11.1299 -11.7106 
53.4788 -11.1299 -13.8583 59.345 -11.1299 -7.04048 -47.6066 -3.07233 -13.8583 
-53.4608 -3.07233 -9.30795 56.093 -3.07233 -13.8583 59.345 -3.07233 -10.3374 
-48.8766 4.98522 -13.8583 -53.4608 4.98522 -11.4289 56.6796 4.98522 -13.8583 
59.345 4.98522 -11.1169 -48.4104 13.0428 -13.8583 -53.4608 13.0428 -11.293 
53.8494 13.0428 -13.8583 51.2874 16.3801 -13.8583 59.345 13.0428 -8.51194 
-46.8863 21.1003 -13.8583 -53.4608 21.1003 -9.3882 -45.4032 22.4317 -13.8583 
47.4481 21.1003 -13.8583 43.2299 24.9009 -13.8583 51.2874 21.1003 -10.2289 
-39.3337 29.1579 -13.8583 -45.4032 29.1579 -10.1959 -37.3457 30.7945 -13.8583 
-29.2881 34.8243 -13.8583 27.1147 36.5312 -13.8583 38.6773 29.1579 -13.8583 
35.1723 31.6228 -13.8583 43.2299 29.1579 -7.91391 -37.3457 37.2154 -8.94505 
-22.8542 37.2154 -13.8583 -29.2881 37.2154 -12.6571 -21.2306 37.5699 -13.8583 
-13.173 38.9066 -13.8583 -5.11545 39.888 -13.8583 2.9421 40.8763 -13.8583 
10.9996 41.2621 -13.8583 25.8393 37.2154 -13.8583 19.0572 40.1246 -13.8583 
27.1147 37.2154 -12.0609 -21.2306 -44.7773 -5.80071 -13.173 -49.3027 -5.80071 
-5.11545 -51.0024 -5.80071 2.9421 -50.9673 -5.80071 10.9996 -49.4821 -5.80071 
19.0572 -46.9314 -5.80071 -22.9235 -43.3601 -5.80071 -29.2881 -37.007 -5.80071 
26.9928 -43.3601 -5.80071 27.1147 -43.3003 -5.80071 35.1723 -37.9162 -5.80071 
-30.9544 -35.3025 -5.80071 -37.3457 -27.8783 -5.80071 38.4441 -35.3025 -5.80071 
43.2299 -31.088 -5.80071 -38.0132 -27.245 -5.80071 -45.4032 -20.5723 -5.80071 
47.2253 -27.245 -5.80071 51.2874 -22.9764 -5.80071 -46.8264 -19.1874 -5.80071 
54.8041 -19.1874 -5.80071 59.345 -12.4203 -5.80071 -53.3981 -11.1299 -5.80071 
-53.4608 -11.0211 -5.80071 -53.4608 -11.1299 -5.72019 59.9973 -11.1299 -5.80071 
-57.0034 -3.07233 -5.80071 62.4458 -3.07233 -5.80071 -59.4234 4.98522 -5.80071 
-61.5183 4.98522 1.8339 62.9518 4.98522 -5.80071 -59.1572 13.0428 -5.80071 
60.9674 13.0428 -5.80071 59.345 15.7528 -5.80071 -55.8343 21.1003 -5.80071 
-53.4608 25.2626 -5.80071 54.8783 21.1003 -5.80071 51.2874 25.0384 -5.80071 
-50.6044 29.1579 -5.80071 -45.4032 34.5357 -5.80071 35.1723 34.7278 -5.80071 
45.2867 29.1579 -5.80071 43.2299 30.2177 -5.80071 -42.0108 37.2154 -5.80071 
-37.3457 40.0549 -5.80071 -29.2881 43.3654 -5.80071 -21.2306 44.7889 -5.80071 
-13.173 44.8163 -5.80071 -5.11545 44.5401 -5.80071 2.9421 44.7118 -5.80071 
10.9996 44.4456 -5.80071 19.0572 42.636 -5.80071 30.7743 37.2154 -5.80071 
27.1147 39.1648 -5.80071 -21.2306 45.273 -3.29299 -13.173 45.273 -3.36857 
-5.11545 45.273 -2.17378 2.9421 45.273 -3.24082 10.9996 45.273 -1.66556 
-21.2306 -46.2934 2.25684 -13.173 -49.8285 2.25684 -5.11545 -51.0519 2.25684 
2.9421 -50.4755 2.25684 10.9996 -48.59 2.25684 19.0572 -45.6174 2.25684 
-25.3694 -43.3601 2.25684 -29.2881 -40.3228 2.25684 10.9996 -43.3601 9.83108 
23.5459 -43.3601 2.25684 19.0572 -43.3601 5.83016 27.1147 -41.3967 2.25684 
35.1723 -35.993 2.25684 -35.2233 -35.3025 2.25684 -37.3457 -33.3867 2.25684 
27.1147 -35.3025 9.29061 36.1053 -35.3025 2.25684 35.1723 -35.3025 3.26455 
43.2299 -29.6941 2.25684 -44.5436 -27.245 2.25684 -45.4032 -26.4325 2.25684 
-45.4032 -27.245 5.571 46.1521 -27.245 2.25684 43.2299 -27.245 5.71539 
51.2874 -22.5005 2.25684 -52.5543 -19.1874 2.25684 -53.4608 -17.9952 2.25684 
54.5536 -19.1874 2.25684 51.2874 -19.1874 6.67569 59.345 -12.1647 2.25684 
-57.9182 -11.1299 2.25684 59.8849 -11.1299 2.25684 59.345 -11.1299 3.27306 
-60.7483 -3.07233 2.25684 -61.5183 4.12766 2.25684 63.2818 -3.07233 2.25684 
59.345 -3.07233 9.56163 -61.6069 4.98522 2.25684 -61.5183 5.8409 2.25684 
-61.5183 4.98522 2.56162 63.8288 4.98522 2.25684 -60.7029 13.0428 2.25684 
61.8131 13.0428 2.25684 59.345 17.2206 2.25684 59.345 13.0428 7.49905 
-57.2856 21.1003 2.25684 -53.4608 26.7864 2.25684 -53.4608 21.1003 9.368 
56.4898 21.1003 2.25684 51.2874 26.8238 2.25684 -51.6202 29.1579 2.25684 
-45.4032 35.6074 2.25684 35.1723 35.5926 2.25684 47.5994 29.1579 2.25684 
43.2299 31.4396 2.25684 43.2299 29.1579 10.1742 -43.4721 37.2154 2.25684 
-37.3457 41.4884 2.25684 -37.3457 37.2154 9.77037 -29.2881 45.1759 2.25684 
19.0572 43.9541 2.25684 32.3636 37.2154 2.25684 27.1147 40.1166 2.25684 
-28.6052 45.273 2.25684 -21.2306 46.2394 2.25684 -21.2306 45.273 4.97558 
-13.173 46.2449 2.25684 -13.173 45.273 5.66227 -5.11545 46.1117 2.25684 
-5.11545 45.273 5.85271 2.9421 46.4128 2.25684 14.0627 45.273 2.25684 
10.9996 46.0167 2.25684 10.9996 45.273 8.31241 -21.2306 -44.9249 10.3144 
-13.173 -47.1309 10.3144 -5.11545 -47.3094 10.3144 2.9421 -45.8566 10.3144 
-24.3669 -43.3601 10.3144 -29.2881 -40.7953 10.3144 -21.2306 -43.3601 12.307 
-13.173 -43.3601 14.3971 -5.11545 -43.3601 14.1107 9.72237 -43.3601 10.3144 
2.9421 -43.3601 12.4059 10.9996 -42.7508 10.3144 19.0572 -38.6809 10.3144 
-45.4032 -28.2469 10.3144 -37.2108 -35.3025 10.3144 -37.3457 -35.2075 10.3144 
-29.2881 -35.3025 17.2069 -5.11545 -35.3025 17.8772 2.9421 -35.3025 16.3882 
10.9996 -35.3025 14.5606 24.8273 -35.3025 10.3144 19.0572 -35.3025 12.4225 
27.1147 -33.8828 10.3144 35.1723 -28.8856 10.3144 -46.4659 -27.245 10.3144 
-45.4032 -27.245 12.3226 2.9421 -27.245 18.1377 10.9996 -27.245 16.9265 
19.0572 -27.245 15.8395 27.1147 -27.245 14.2262 37.4882 -27.245 10.3144 
35.1723 -27.245 11.4696 43.2299 -22.7694 10.3144 -53.3645 -19.1874 10.3144 
-53.4608 -19.0302 10.3144 19.0572 -19.1874 17.826 27.1147 -19.1874 16.8867 
35.1723 -19.1874 15.4703 47.3631 -19.1874 10.3144 43.2299 -19.1874 12.8186 
51.2874 -14.8383 10.3144 -57.6042 -11.1299 10.3144 -53.4608 -11.1299 16.0445 
-13.173 -11.1299 18.1205 19.0572 -11.1299 18.1619 27.1147 -11.1299 17.5224 
35.1723 -11.1299 16.9647 43.2299 -11.1299 15.474 53.8592 -11.1299 10.3144 
51.2874 -11.1299 12.211 -59.3862 -3.07233 10.3144 -53.4608 -3.07233 16.1382 
2.9421 -3.07233 17.6753 19.0572 -3.07233 17.0494 27.1147 -3.07233 17.6284 
35.1723 -3.07233 17.8496 43.2299 -3.07233 17.2197 58.6346 -3.07233 10.3144 
51.2874 -3.07233 15.2363 59.345 1.04513 10.3144 -58.4045 4.98522 10.3144 
-53.4608 4.98522 15.6383 19.0572 4.98522 17.2126 27.1147 4.98522 18.0528 
51.2874 4.98522 16.0622 59.7937 4.98522 10.3144 59.345 6.89447 10.3144 
59.345 4.98522 10.7612 -57.1791 13.0428 10.3144 -53.4608 19.8843 10.3144 
-53.4608 13.0428 13.2852 -45.4032 13.0428 16.4055 -37.3457 13.0428 17.8308 
[...]
POINT_DATA 542
SCALARS ImageScalars float
LOOKUP_TABLE default
0 0 0 0 0 0 0 0 0 
0 0 0 0 0 0 0 0 0 
0 0 0 0 0 0 0 0 0 
0 0 0 0 0 0 0 0 0 
0 0 0 0 0 0 0 0 0 
0 0 0 0 0 0 0 0 0 
0 0 0 0 0 0 0 0 0 
0 0 0 0 0 0 0 0 0 
0 0 0 0 0 0 0 0 0 
0 0 0 0 0 0 0 0 0 
0 0 0 0 0 0 0 0 0 
0 0 0 0 0 0 0 0 0 
0 0 0 0 0 0 0 0 0 
0 0 0 0 0 0 0 0 0 
0 0 0 0 0 0 0 0 0 
0 0 0 0 0 0 0 0 0 
0 0 0 0 0 0 0 0 0 
0 0 0 0 0 0 0 0 0 
0 0 0 0 0 0 0 0 0 
0 0 0 0 0 0 0 0 0 
0 0 0 0 0 0 0 0 0 
0 0 0 0 0 0 0 0 0 
0 0 0 0 0 0 0 0 0 
0 0 0 0 0 0 0 0 0 
0 0 0 0 0 0 0 0 0 
0 0 0 0 0 0 0 0 0 
0 0 0 0 0 0 0 0 0 
0 0 0 0 0 0 0 0 0 
0 0 0 0 0 0 0 0 0 
0 0 0 0 0 0 0 0 0 
0 0 0 0 0 0 0 0 0 
0 0 0 0 0 0 0 0 0 
0 0 0 0 0 0 0 0 0 
0 0 0 0 0 0 0 0 0 
0 0 0 0 0 0 0 0 0 
0 0 0 0 0 0 0 0 0 
0 0 0 0 0 0 0 0 0 
0 0 0 0 0 0 0 0 0 
0 0 0 0 0 0 0 0 0 
0 0 0 0 0 0 0 0 0 
0 0 0 0 0 0 0 0 0 
0 0 0 0 0 0 0 0 0 
0 0 0 0 0 0 0 0 0 
0 0 0 0 0 0 0 0 0 
0 0 0 0 0 0 0 0 0 
0 0 0 0 0 0 0 0 0 
0 0 0 0 0 0 0 0 0 
0 0 0 0 0 0 0 0 0 
0 0 0 0 0 0 0 0 0 
0 0 0 0 0 0 0 0 0 
0 0 0 0 0 0 0 0 0 
0 0 0 0 0 0 0 0 0 
0 0 0 0 0 0 0 0 0 
0 0 0 0 0 0 0 0 0 
0 0 0 0 0 0 0 0 0 
0 0 0 0 0 0 0 0 0 
0 0 0 0 0 0 0 0 0 
0 0 0 0 0 0 0 0 0 
0 0 0 0 0 0 0 0 0 
0 0 0 0 0 0 0 0 0 
0 0 
NORMALS Normals float
0.27435 0.619411 0.735569 0.0594644 0.575931 0.815333 -0.0631493 0.564587 0.822954 
-0.136959 0.613029 0.778099 0.454961 0.40891 0.791077 0.202838 0.287166 0.936158 
0.024605 0.195249 0.980445 -0.0589625 0.194805 0.979068 -0.0866749 0.273965 0.957826 
-0.135717 0.334891 0.932432 -0.334608 0.495282 0.801706 0.55692 0.354093 0.751304 
0.313488 0.180556 0.932269 0.0988355 0.058446 0.993386 -0.0194572 -0.00935398 0.999767 
0.00036543 0.0102217 0.999948 -0.0153522 0.044359 0.998898 -0.0611915 0.118323 0.991088 
-0.146348 0.205025 0.967754 -0.360459 0.377504 0.852971 0.373208 0.201961 0.905499 
0.178447 0.0709106 0.981391 0.00810456 -0.012286 0.999892 -0.0230413 -0.0263458 0.999387 
-0.00594814 -0.00127148 0.999982 0.0196707 -0.0510454 0.998503 0.0207739 -0.00996489 0.999735 
-0.0574117 0.0891062 0.994366 -0.193033 0.199597 0.960677 -0.387616 0.338603 0.857381 
0.339332 0.226529 0.912983 0.233763 0.0800941 0.968989 0.119383 -0.0418284 0.991967 
0.000269941 0.00508881 0.999987 -0.00893235 -0.0478158 0.998816 -0.0248976 0.0290488 0.999268 
-0.0238699 0.0312381 0.999227 0.079997 -0.0680235 0.994471 0.0718484 -0.0104553 0.997361 
-0.120615 0.0611452 0.990814 -0.297873 0.154596 0.942004 -0.475302 0.286545 0.831853 
0.38302 0.192778 0.903401 0.193347 0.106985 0.97528 0.112861 -0.00105936 0.99361 
0.112563 -0.128908 0.985247 0.00565967 -0.138236 0.990383 -0.00476363 -0.0579141 0.99831 
0.0853365 0.0616421 0.994444 -0.0871883 0.0289189 0.995772 -0.0185647 -0.0422572 0.998934 
0.0757609 -0.0461778 0.996056 -0.0275277 -0.0262671 0.999276 -0.18403 0.070962 0.980356 
-0.418994 0.106888 0.901676 0.325183 0.00199188 0.945649 0.144032 0.0116592 0.989504 
0.00256745 -0.0288204 0.999581 -0.0204448 -0.0960882 0.995163 0.0738591 -0.131333 0.988583 
0.180521 0.0430963 0.982626 0.0620317 -0.0918349 0.99384 -0.12938 -0.0758225 0.988692 
0.0172866 0.0639532 0.997803 0.0852793 0.0727465 0.993698 -0.0126976 0.0478707 0.998773 
-0.176176 -0.035704 0.983711 -0.420684 -0.0899465 0.902737 0.312719 -0.066618 0.947507 
0.155623 -0.059172 0.986043 0.00638054 -0.0373471 0.999282 0.00702908 0.0211885 0.999751 
0.143 0.083601 0.986185 0.0430162 0.0740305 0.996328 -0.033678 -0.0430115 0.998507 
0.0692879 0.0604514 0.995763 0.120831 0.154804 0.980528 0.0622762 0.0720207 0.995457 
-0.136538 -0.013199 0.990547 -0.299966 -0.168049 0.939031 -0.470786 -0.291119 0.832833 
0.288786 -0.229805 0.929404 0.189318 -0.159905 0.968808 0.0852659 -0.0976067 0.991566 
0.101585 -0.00275722 0.994823 0.130359 0.0263401 0.991117 0.0517634 7.3531e-05 0.998659 
0.0337792 0.11619 0.992652 0.0832527 0.144099 0.986055 0.0273157 0.0716902 0.997053 
-0.0817073 -0.0487997 0.995461 -0.245575 -0.229315 0.941864 -0.456981 -0.416792 0.785782 
0.289618 -0.350682 0.890586 0.155489 -0.2617 0.952542 0.138265 -0.19993 0.970006 
0.136056 -0.206519 0.968937 0.134493 -0.191519 0.972231 0.103483 -0.108009 0.988749 
0.0173566 -0.102066 0.994626 -0.0721673 -0.185383 0.980013 -0.261705 -0.323666 0.909258 
-0.468304 -0.582433 0.664427 0.134375 -0.513862 0.847284 0.114691 -0.552948 0.825285 
0.127976 -0.572172 0.810087 0.110429 -0.571941 0.812828 -0.00422445 -0.573156 0.819436 
-0.214734 -0.680874 0.700214 0.277314 0.665206 0.693252 0.0674116 0.68225 0.728004 
-0.0663998 0.670722 0.73873 -0.143859 0.671661 0.726757 0.330682 0.641928 0.691793 
0.499302 0.542458 0.675601 0.580356 0.705693 0.406429 -0.221732 0.689362 0.689648 
-0.254574 0.68547 0.682146 -0.276021 0.741604 0.611422 -0.398136 0.597017 0.696462 
0.563756 0.464165 0.683177 0.573018 0.371376 0.730568 0.667545 0.568023 0.481386 
-0.450753 0.577831 0.680392 -0.469894 0.545152 0.694268 -0.570406 0.702383 0.425788 
0.566017 0.366604 0.738395 0.594454 0.575024 0.562114 -0.484908 0.504021 0.714722 
-0.493519 0.478667 0.726165 -0.590228 0.607648 0.531409 0.561762 0.543334 0.623869 
0.455109 0.347029 0.820029 0.430334 0.334909 0.838241 0.483789 0.408779 0.773852 
-0.529778 0.421641 0.735904 -0.538966 0.375367 0.754066 -0.679592 0.546726 0.489126 
0.369993 0.310708 0.875537 0.395522 0.27643 0.875871 0.43642 0.394017 0.808881 
-0.551633 0.310168 0.774272 -0.872311 0.375181 0.31355 0.456447 0.186905 0.869898 
0.656719 0.233331 0.717131 -0.61789 0.113372 0.778048 -0.806132 0.131795 0.576872 
0.421629 0.0350807 0.90609 0.592651 0.0976516 0.799518 -0.626951 -0.0727391 0.775655 
-0.778827 -0.0646339 0.6239 0.394832 -0.0476146 0.917519 0.601928 -0.0773066 0.7948 
-0.54807 -0.313166 0.775594 -0.524635 -0.392562 0.755416 -0.808341 -0.364044 0.462662 
0.344471 -0.240647 0.90743 0.736295 -0.347074 0.580869 0.314386 -0.266238 0.911196 
-0.536259 -0.484164 0.691384 -0.510629 -0.555837 0.655975 -0.618618 -0.576117 0.534229 
0.335181 -0.377608 0.863172 0.51875 -0.524799 0.674896 0.30569 -0.404072 0.862137 
0.209619 -0.41307 0.886246 -0.43576 -0.783211 0.443502 -0.506897 -0.651767 0.564141 
-0.493088 -0.695875 0.522132 -0.487788 -0.796204 0.357943 0.409813 -0.680922 0.606959 
0.153982 -0.50871 0.847056 0.247017 -0.513826 0.821563 0.130249 -0.529914 0.837989 
0.102229 -0.623533 0.775085 0.0996329 -0.705401 0.701771 0.0735501 -0.777764 0.624239 
-0.0472106 -0.831467 0.553565 -0.414993 -0.796879 0.439049 -0.257161 -0.827705 0.498771 
-0.440564 -0.818919 0.367798 0.592278 0.748265 0.298842 0.33326 0.906507 0.259197 
0.0939997 0.96848 0.230676 -0.0918456 0.974275 0.205798 -0.234784 0.955971 0.176056 
-0.344014 0.929652 0.131918 0.621804 0.718808 0.310924 0.672533 0.621922 0.401139 
-0.47586 0.873072 0.10631 -0.478051 0.87187 0.106348 -0.602372 0.7905 0.110718 
0.672011 0.606042 0.425575 0.600508 0.587129 0.542835 -0.631499 0.765377 0.124123 
-0.669769 0.726076 0.155639 0.593273 0.588534 0.549231 0.573658 0.571905 0.58638 
-0.697733 0.695705 0.170774 -0.726747 0.654397 0.208813 0.586816 0.558935 0.585865 
-0.759394 0.604956 0.239476 -0.875143 0.420066 0.240143 0.693769 0.464699 0.550218 
0.694909 0.4625 0.550631 0.696374 0.465655 0.546103 -0.891446 0.383875 0.240755 
0.763382 0.27468 0.584636 -0.920921 0.17476 0.348372 0.860806 0.104182 0.498155 
0.999847 0.00499752 -0.0167787 -0.931417 -0.094815 0.351385 0.877446 -0.190761 0.440112 
-0.870921 -0.37203 0.321076 -0.819411 -0.476677 0.318345 0.836495 -0.406252 0.367743 
0.797103 -0.491352 0.350999 -0.686174 -0.646126 0.334195 -0.61391 -0.717383 0.329358 
0.708197 -0.592551 0.38385 0.590774 -0.707112 0.388559 -0.467024 -0.863051 0.192437 
-0.496527 -0.821541 0.280235 -0.472971 -0.839498 0.267471 0.535278 -0.744884 0.398277 
0.436819 -0.793329 0.424049 0.251166 -0.889393 0.381963 0.0779154 -0.918139 0.388523 
-0.0147866 -0.935698 0.352492 -0.00567294 -0.946913 0.321439 -0.00573126 -0.95262 0.304109 
-0.117049 -0.95473 0.273477 -0.298392 -0.929386 0.217265 -0.44993 -0.873411 0.186322 
-0.434761 -0.881521 0.184128 0.0739374 -0.969337 0.234347 -0.0135726 -0.974257 0.225031 
0.000995057 -0.986731 0.162362 -0.00609448 -0.976447 0.215671 -0.131485 -0.980096 0.148743 
0.51059 0.859797 0.00691716 0.265518 0.957875 -0.109431 0.0402541 0.983332 -0.177306 
-0.148797 0.963065 -0.224423 -0.280248 0.908253 -0.310703 -0.380512 0.855115 -0.35212 
0.582417 0.808933 0.0801099 0.628023 0.759852 0.167966 -0.269084 0.64097 -0.718854 
-0.456375 0.809528 -0.369306 -0.383621 0.765167 -0.517062 -0.488284 0.778387 -0.394579 
-0.557906 0.752732 -0.349478 0.644797 0.721316 0.252865 0.636309 0.713381 0.293597 
-0.361695 0.595138 -0.717626 -0.567857 0.747649 -0.344323 -0.547476 0.741153 -0.388538 
-0.6116 0.728518 -0.308558 0.652024 0.691496 0.310961 0.657503 0.687458 0.30837 
0.68565 0.714778 0.137753 -0.627925 0.723041 -0.287962 -0.562154 0.686089 -0.461805 
-0.681332 0.684885 -0.258302 0.746401 0.612545 0.260143 0.763976 0.594785 0.250144 
-0.730524 0.63466 -0.252074 -0.629188 0.599645 -0.494518 -0.852834 0.46343 -0.240639 
0.866742 0.464645 0.181284 -0.866099 0.44159 -0.234244 -0.848741 0.44638 -0.28352 
0.974758 0.196363 0.10625 0.999485 0.019455 -0.025534 -0.957451 0.219564 -0.187294 
-0.729847 0.230264 -0.643663 0.999189 3.21284e-05 -0.0402771 0.998639 -0.026361 -0.0450106 
0.998331 -0.00332516 -0.0576609 -0.982339 -0.0837049 -0.167341 0.96097 -0.262926 -0.0860578 
-0.917423 -0.367032 -0.153694 -0.837882 -0.530744 -0.127533 -0.81181 -0.344339 -0.471589 
0.864691 -0.479459 -0.14976 0.796597 -0.576092 -0.183168 0.632277 -0.475996 -0.611272 
-0.738268 -0.669081 -0.0853897 -0.608896 -0.788466 -0.0869903 0.766309 -0.61267 -0.193406 
0.643039 -0.743254 -0.184591 -0.467776 -0.882858 -0.0418025 -0.532292 -0.843254 -0.0747587 
-0.479296 -0.876247 -0.0496742 -0.496993 -0.738046 -0.456384 0.607838 -0.773753 -0.178435 
0.488585 -0.860296 -0.145518 0.418594 -0.618612 -0.664905 0.27153 -0.956812 -0.103836 
-0.341188 -0.93981 0.0186289 -0.468048 -0.883387 -0.0236471 -0.459767 -0.888036 0.00247778 
0.254126 -0.961819 -0.101605 0.0684226 -0.99369 -0.088878 0.0883721 -0.963929 -0.25106 
-0.007936 -0.998424 -0.0555567 0.018828 -0.967599 -0.25179 0.0104762 -0.999759 -0.0192725 
0.0466839 -0.97102 -0.234394 -0.00593045 -0.999318 0.0364384 -0.216916 -0.975727 0.0300717 
-0.143436 -0.989101 0.0332455 -0.13884 -0.945625 -0.294136 0.3461 0.845353 -0.40693 
0.131655 0.836529 -0.53187 -0.0520125 0.778604 -0.625356 -0.216088 0.696231 -0.684521 
0.416493 0.845577 -0.333966 0.509336 0.830909 -0.223979 0.302613 0.797871 -0.52137 
0.0772762 0.664961 -0.74287 -0.101254 0.59823 -0.794901 -0.259872 0.625122 -0.735995 
-0.224701 0.590287 -0.775288 -0.265372 0.610636 -0.746125 -0.307517 0.566605 -0.764456 
0.688148 0.718607 -0.100275 0.592668 0.796203 -0.12168 0.594217 0.795332 -0.119803 
0.270742 0.559993 -0.783011 -0.138437 0.27642 -0.951014 -0.188234 0.301266 -0.934776 
-0.227451 0.378502 -0.897219 -0.326837 0.550352 -0.768303 -0.268313 0.473396 -0.83899 
-0.332937 0.54906 -0.766607 -0.378831 0.549568 -0.744622 0.699214 0.707603 -0.101972 
0.68159 0.693593 -0.233161 -0.136526 0.155045 -0.978428 -0.136424 0.22587 -0.964558 
-0.15502 0.30727 -0.938911 -0.239477 0.396468 -0.886264 -0.39929 0.54781 -0.735167 
-0.354419 0.51223 -0.782309 -0.449165 0.535619 -0.715096 0.815356 0.55271 -0.172351 
0.817747 0.548497 -0.174475 -0.099267 0.137527 -0.985511 -0.137409 0.188015 -0.972507 
-0.209996 0.296862 -0.931544 -0.489053 0.501576 -0.713617 -0.394493 0.434904 -0.809465 
-0.534083 0.443207 -0.719946 0.893828 0.322436 -0.311618 0.747963 0.165914 -0.64267 
-0.0705791 0.00418557 -0.997497 -0.11586 -0.0493855 -0.992037 -0.0708781 0.0438823 -0.996519 
-0.12216 0.137309 -0.982966 -0.252557 0.22884 -0.940132 -0.57355 0.395906 -0.717146 
-0.479273 0.373098 -0.794415 0.894883 0.0623164 -0.441929 0.581082 -0.0185544 -0.813633 
-0.0198293 -0.0703018 -0.997329 -0.122 -0.0556077 -0.990971 0.0492167 0.032841 -0.998248 
-0.0237247 0.0916663 -0.995507 -0.142263 0.181608 -0.973026 -0.680442 0.224577 -0.697541 
-0.397173 0.193064 -0.897207 -0.714738 0.0862663 -0.694052 0.803038 -0.111346 -0.585434 
0.568229 -0.16022 -0.807121 -0.154366 0.0403628 -0.987189 0.0779511 0.0450056 -0.995941 
-0.427859 -0.0140325 -0.903737 -0.727408 -0.0519635 -0.684235 -0.724026 -0.111028 -0.680778 
-0.708164 -0.0507015 -0.704225 0.71615 -0.283022 -0.637987 0.599855 -0.435647 -0.671108 
0.538717 -0.293916 -0.789555 0.256669 -0.237787 -0.936791 0.114894 -0.214325 -0.969981 
0.0170763 -0.138257 -0.990249 0.00782084 -0.0497576 -0.998731 -0.112887 -0.188537 -0.975556 
0.00465853 -0.223572 -0.974676 0.0815507 0.0540038 -0.995205 0.0523616 0.0398526 -0.997833 
-0.195934 -0.163699 -0.966857 -0.686178 -0.2868 -0.66851 -0.450846 -0.2195 -0.865192 
0.573813 -0.454942 -0.681004 0.370621 -0.34546 -0.862147 0.172109 -0.245912 -0.95389 
0.090448 -0.132855 -0.987 0.0199195 -0.07562 -0.996938 -0.033191 -0.0534662 -0.998018 
-0.0519079 -0.10475 -0.993143 -0.00698806 -0.0179107 -0.999815 0.0688353 0.039972 -0.996827 
0.093509 0.0291548 -0.995191 -0.496522 -0.733237 -0.464574 -0.37628 -0.322932 -0.868406 
-0.647204 -0.514018 -0.56295 -0.611727 -0.553157 -0.565516 -0.585589 -0.49045 -0.645402 
0.518695 -0.473334 -0.711976 0.516819 -0.480721 -0.708382 0.501284 -0.459904 -0.732941 
0.398406 -0.580981 -0.709742 0.294809 -0.346648 -0.890462 0.178662 -0.232308 -0.956093 
0.0880944 -0.206835 -0.974402 0.00124346 -0.149201 -0.988806 -0.00945014 -0.12309 -0.992351 
0.0474825 -0.0540895 -0.997406 0.0501484 -0.0481179 -0.997582 -0.0567983 -0.113002 -0.99197 
-0.19247 -0.300417 -0.934187 -0.496087 -0.734108 -0.463663 -0.474885 -0.765175 -0.434732 
-0.324907 -0.565256 -0.758235 0.388786 -0.595083 -0.703364 0.275942 -0.658225 -0.700426 
0.251346 -0.529888 -0.809965 0.128849 -0.740231 -0.659891 0.101363 -0.4685 -0.87763 
0.0591562 -0.791281 -0.608584 0.0542975 -0.454822 -0.888926 0.0999912 -0.817402 -0.567324 
0.0714394 -0.403486 -0.912193 0.0715418 -0.344973 -0.935882 -0.131605 -0.899135 -0.417417 
-0.00291881 -0.355788 -0.934562 -0.323085 -0.863983 -0.386199 -0.177349 -0.45624 -0.872005 
-0.490223 -0.779571 -0.389807 -0.475123 -0.789022 -0.38949 -0.443867 -0.697934 -0.562023 
0.054717 -0.886531 -0.459422 0.0227153 -0.892971 -0.449541 0.052867 -0.8882 -0.456405 
0.0533693 -0.885904 -0.460789 0.0646976 0.367189 -0.927894 -0.0260678 0.301677 -0.953054 
0.345009 0.505676 -0.790735 0.0694556 0.37029 -0.926316 0.180819 0.448084 -0.875514 
0.0641492 0.365057 -0.928773 -0.0704944 0.277008 -0.958278 -0.0308888 0.276442 -0.960534 
-0.123502 0.181361 -0.975631 0.401014 0.476192 -0.782578 0.462011 0.411873 -0.785434 
0.29235 0.404218 -0.866683 0.0280813 0.247619 -0.96845 -0.0704662 0.113628 -0.991021 
-0.0610908 0.033303 -0.997576 -0.127213 0.12695 -0.983718 -0.0943554 0.0298866 -0.99509 
-0.0958377 0.15554 -0.98317 -0.0757293 0.157849 -0.984555 0.478233 0.358223 -0.801854 
0.406755 0.327238 -0.852916 0.137051 0.11621 -0.983724 -0.0778184 0.0664138 -0.994753 
-0.141604 0.01799 -0.98976 -0.0819774 -0.019557 -0.996442 -0.12179 -0.096081 -0.987895 
-0.0203078 0.0114435 -0.999728 0.00601295 0.156546 -0.987652 -0.075748 0.146945 -0.98624 
-0.0684195 0.150029 -0.986311 0.558003 0.0738744 -0.826544 0.241313 0.0149465 -0.970332 
0.0567398 -0.0405113 -0.997567 -0.0685131 -0.0634001 -0.995634 -0.0903094 -0.00361012 -0.995907 
-0.236535 -0.0552274 -0.970052 -0.0215766 0.0256033 -0.999439 -0.0471016 0.0218758 -0.998651 
0.169797 0.117375 -0.978464 -0.0203121 -0.0608999 -0.997937 -0.0105903 -0.0628194 -0.997969 
-0.123016 -0.0285133 -0.991995 -0.156435 0.0769291 -0.984688 0.357078 -0.102944 -0.928384 
0.253156 -0.147632 -0.956095 0.0533341 -0.0955391 -0.993996 -0.0904542 -0.139041 -0.986147 
-0.0703556 -0.109187 -0.991528 0.0451372 0.0938323 -0.994564 -0.0478406 -0.0428122 -0.997937 
-0.107295 -0.00514082 -0.994214 -0.0340358 -0.011947 -0.999349 0.00829076 -0.0423711 -0.999068 
-0.0933382 0.0103713 -0.99558 -0.0569508 0.101064 -0.993249 0.0216403 0.0500277 -0.998513 
-0.132432 0.0371596 -0.990495 0.280495 -0.192938 -0.940265 0.215774 -0.203261 -0.955053 
0.209129 -0.196326 -0.957978 0.099082 -0.208177 -0.97306 0.0559829 -0.192484 -0.979702 
0.00889185 -0.139099 -0.990239 -0.0803494 -0.143537 -0.986378 -0.00159783 -0.0677476 -0.997701 
-0.010273 -0.0856908 -0.996269 0.0507402 -0.0672981 -0.996442 0.0218485 -0.0991249 -0.994835 
-0.0556441 -0.147951 -0.987428 0.112565 0.00847749 -0.993608 -0.178644 -0.0327506 -0.983369 
-0.0719092 -0.231635 -0.970141 -0.19 -0.150213 -0.970225 0.0426374 0.042515 -0.998186 
0.0311377 0.0417564 -0.998643 -0.157239 0.0112848 -0.987496 -0.141392 -0.0160202 -0.989824 
-0.132519 0.0134055 -0.99109 0.0361402 -0.108849 -0.993401 0.0361388 -0.108861 -0.9934 
0.0361504 -0.108871 -0.993398 -0.0650201 -0.15655 -0.985528 -0.0426949 -0.12794 -0.990862 
-0.0361212 -0.134669 -0.990232 0.0425308 0.0386404 -0.998348 0.0523535 0.0337792 -0.998057 
-0.0744668 -0.000830865 -0.997223 -0.0553585 0.0244759 -0.998167 0.0747869 -0.0290332 -0.996777 
0.0116015 -0.129191 -0.991552 0.048048 -0.0984215 -0.993984 -0.195419 -0.203431 -0.959389 
-0.172642 -0.227944 -0.958246 -0.160022 -0.185615 -0.969505 
