# vtk DataFile Version 4.2
vtk output
ASCII
DATASET POLYDATA
POINTS 506 float
10.5858 -24.9894 -15.456 17.7099 -24.9894 -15.5668 24.8341 -24.9894 -14.8096 
3.46164 -17.8652 -15.1404 10.5858 -17.8652 -16.2667 17.7099 -17.8652 -17.0937 
24.8341 -17.8652 -16.6485 31.9582 -17.8652 -15.6755 -3.66251 -10.7411 -16.8577 
3.46164 -10.7411 -17.8143 10.5858 -10.7411 -18.1208 17.7099 -10.7411 -17.7891 
24.8341 -10.7411 -17.6104 31.9582 -10.7411 -17.0227 39.0824 -10.7411 -15.3226 
-32.1591 -3.6169 -14.6998 -25.035 -3.6169 -15.6296 -17.9108 -3.6169 -16.027 
-10.7867 -3.6169 -17.7365 -3.66251 -3.6169 -17.0149 3.46164 -3.6169 -19.5782 
10.5858 -3.6169 -21.5063 17.7099 -3.6169 -18.253 24.8341 -3.6169 -17.5631 
31.9582 -3.6169 -18.0237 39.0824 -3.6169 -16.8657 46.2065 -3.6169 -15.245 
-32.1591 3.50725 -15.2483 -25.035 3.50725 -16.5457 -17.9108 3.50725 -17.5801 
-10.7867 3.50725 -18.5576 -3.66251 3.50725 -16.1804 3.46164 3.50725 -17.6081 
10.5858 3.50725 -20.1224 17.7099 3.50725 -17.3225 24.8341 3.50725 -17.1364 
31.9582 3.50725 -17.8714 39.0824 3.50725 -17.1178 46.2065 3.50725 -15.8692 
-32.1591 10.6314 -15.0016 -25.035 10.6314 -16.3887 -17.9108 10.6314 -16.7144 
-10.7867 10.6314 -16.6756 -3.66251 10.6314 -17.3885 3.46164 10.6314 -19.0575 
10.5858 10.6314 -19.4777 17.7099 10.6314 -18.3066 24.8341 10.6314 -18.0845 
31.9582 10.6314 -18.3236 39.0824 10.6314 -17.1609 46.2065 10.6314 -15.1293 
-32.1591 17.7555 -14.664 -25.035 17.7555 -16.4374 -17.9108 17.7555 -16.5607 
-10.7867 17.7555 -16.4799 -3.66251 17.7555 -17.0762 3.46164 17.7555 -18.7231 
10.5858 17.7555 -19.5987 17.7099 17.7555 -19.2466 24.8341 17.7555 -18.4227 
31.9582 17.7555 -17.8289 39.0824 17.7555 -16.1232 -25.035 24.8797 -15.3282 
-17.9108 24.8797 -15.9186 -10.7867 24.8797 -15.9729 -3.66251 24.8797 -16.3501 
3.46164 24.8797 -17.0984 10.5858 24.8797 -17.9549 17.7099 24.8797 -18.3789 
24.8341 24.8797 -17.8375 31.9582 24.8797 -16.272 39.0824 24.8797 -14.5744 
10.5858 32.0038 -14.6225 -17.9108 -32.1135 -8.39472 -10.7867 -32.1135 -9.9186 
-3.66251 -32.1135 -10.8036 3.46164 -32.1135 -11.556 10.5858 -27.5021 -14.4956 
10.5858 -32.1135 -12.1705 17.7099 -27.1938 -14.4956 17.7099 -32.1135 -11.5779 
24.8341 -25.5384 -14.4956 24.8341 -32.1135 -9.12671 -32.1591 -24.9894 -7.92066 
-25.035 -24.9894 -9.82012 -17.9108 -24.9894 -11.6738 -10.7867 -24.9894 -12.7826 
-3.66251 -24.9894 -13.65 5.66759 -24.9894 -14.4956 3.46164 -22.0906 -14.4956 
3.46164 -24.9894 -14.0481 25.7528 -24.9894 -14.4956 31.9582 -20.47 -14.4956 
31.9582 -24.9894 -11.7004 -39.2833 -17.8652 -9.09444 -32.1591 -17.8652 -10.9813 
-25.035 -17.8652 -12.3988 -17.9108 -17.8652 -12.7928 -10.7867 -17.8652 -13.7366 
-2.66166 -17.8652 -14.4956 -3.66251 -17.5191 -14.4956 -3.66251 -17.8652 -14.3866 
35.0278 -17.8652 -14.4956 39.0824 -13.0565 -14.4956 39.0824 -17.8652 -12.5027 
-46.4074 -10.7411 -7.81929 -39.2833 -10.7411 -11.7491 -32.1591 -4.87331 -14.4956 
-32.1591 -10.7411 -13.494 -25.035 -7.9072 -14.4956 -25.035 -10.7411 -13.7413 
-17.9108 -8.37798 -14.4956 -17.9108 -10.7411 -13.7942 -9.49964 -10.7411 -14.4956 
-10.7867 -9.77642 -14.4956 -10.7867 -10.7411 -14.0195 41.242 -10.7411 -14.4956 
46.2065 -5.89666 -14.4956 46.2065 -10.7411 -12.2327 -46.4074 -3.6169 -9.25624 
-32.914 -3.6169 -14.4956 -39.2833 -3.6169 -12.7732 47.2961 -3.6169 -14.4956 
53.3307 -3.6169 -8.14002 -46.4074 3.50725 -8.80861 -34.5794 3.50725 -14.4956 
-39.2833 3.50725 -12.9889 48.282 3.50725 -14.4956 53.3307 3.50725 -8.67815 
-33.5858 10.6314 -14.4956 -39.2833 10.6314 -12.2884 47.1631 10.6314 -14.4956 
46.2065 13.8058 -14.4956 53.3307 10.6314 -7.67661 -32.6804 17.7555 -14.4956 
-39.2833 17.7555 -11.5169 -32.1591 18.4017 -14.4956 43.4838 17.7555 -14.4956 
46.2065 17.7555 -13.2258 -39.2833 24.8797 -7.45432 -27.4569 24.8797 -14.4956 
-32.1591 24.8797 -12.471 -25.035 26.6396 -14.4956 -17.9108 28.6514 -14.4956 
-10.7867 31.7938 -14.4956 -3.66251 30.791 -14.4956 3.46164 31.0599 -14.4956 
17.7099 31.6501 -14.4956 24.8341 30.5027 -14.4956 31.9582 28.1595 -14.4956 
39.2024 24.8797 -14.4956 39.0824 24.9861 -14.4956 -25.035 32.0038 -10.759 
-17.9108 32.0038 -12.8747 -10.7867 32.0038 -14.4386 -3.66251 32.0038 -14.0479 
9.00001 32.0038 -14.4956 3.46164 32.0038 -14.0395 13.1115 32.0038 -14.4956 
10.5858 32.1448 -14.4956 17.7099 32.0038 -14.0822 24.8341 32.0038 -12.3062 
31.9582 32.0038 -8.19029 -17.9108 -33.1319 -7.37149 -10.7867 -35.047 -7.37149 
-3.66251 -35.9486 -7.37149 3.46164 -36.5114 -7.37149 3.46164 -39.2377 -0.439596 
10.5858 -36.7492 -7.37149 10.5858 -39.2377 -0.32052 17.7099 -35.6849 -7.37149 
24.8341 -33.4915 -7.37149 -32.1591 -25.7104 -7.37149 -20.4091 -32.1135 -7.37149 
-25.035 -29.4133 -7.37149 -25.035 -32.1135 -4.6197 27.5196 -32.1135 -7.37149 
31.9582 -29.391 -7.37149 -33.2672 -24.9894 -7.37149 -39.2833 -20.423 -7.37149 
-39.2833 -24.9894 -2.84294 38.2585 -24.9894 -7.37149 39.0824 -24.3222 -7.37149 
39.0824 -24.9894 -5.86416 -41.9827 -17.8652 -7.37149 -46.4074 -11.7141 -7.37149 
-46.4074 -17.8652 -3.25818 45.7888 -17.8652 -7.37149 46.2065 -17.4151 -7.37149 
46.2065 -17.8652 -6.40626 -47.0666 -10.7411 -7.37149 50.7338 -10.7411 -7.37149 
53.3307 -5.06793 -7.37149 -49.078 -3.6169 -7.37149 53.9351 -3.6169 -7.37149 
-48.2234 3.50725 -7.37149 -46.4074 10.2334 -7.37149 54.2386 3.50725 -7.37149 
-46.2928 10.6314 -7.37149 -46.4074 10.6314 -7.22637 53.5511 10.6314 -7.37149 
53.3307 11.4901 -7.37149 -43.2842 17.7555 -7.37149 -46.4074 17.7555 -1.44035 
51.4183 17.7555 -7.37149 46.2065 23.7902 -7.37149 -39.3639 24.8797 -7.37149 
-39.2833 24.9786 -7.37149 -32.1591 31.8759 -7.37149 45.1125 24.8797 -7.37149 
39.0824 29.4967 -7.37149 -31.9357 32.0038 -7.37149 -32.1591 32.0038 -7.03574 
-25.035 34.7625 -7.37149 -17.9108 36.3908 -7.37149 -10.7867 37.9887 -7.37149 
-3.66251 38.8947 -7.37149 3.46164 38.3049 -7.37149 10.5858 36.5172 -7.37149 
17.7099 35.2495 -7.37149 24.8341 33.7864 -7.37149 32.7725 32.0038 -7.37149 
31.9582 32.2857 -7.37149 31.9582 32.0038 -5.98006 3.46164 -39.2984 -0.247344 
10.5858 -39.2584 -0.247344 -25.035 -34.65 -0.247344 -17.9108 -37.1856 -0.247344 
-10.7867 -38.6871 -0.247344 0.336379 -39.2377 -0.247344 -3.66251 -39.1589 -0.247344 
3.46164 -39.2377 0.453717 10.6937 -39.2377 -0.247344 10.5858 -39.2377 -0.0764369 
17.7099 -37.8619 -0.247344 24.8341 -35.5322 -0.247344 -39.2833 -26.7515 -0.247344 
-30.4016 -32.1135 -0.247344 -32.1591 -31.1871 -0.247344 31.6218 -32.1135 -0.247344 
31.9582 -31.9397 -0.247344 39.0824 -27.0674 -0.247344 -41.6864 -24.9894 -0.247344 
-46.4074 -20.5279 -0.247344 41.6291 -24.9894 -0.247344 39.0824 -24.9894 6.61106 
46.2065 -20.4642 -0.247344 -48.6071 -17.8652 -0.247344 48.4283 -17.8652 -0.247344 
46.2065 -17.8652 4.41422 -52.8988 -10.7411 -0.247344 52.3897 -10.7411 -0.247344 
53.3307 -7.11738 -0.247344 -53.08 -3.6169 -0.247344 54.2245 -3.6169 -0.247344 
53.3307 -3.6169 2.23273 -52.4508 3.50725 -0.247344 54.7014 3.50725 -0.247344 
53.3307 3.50725 3.55664 -50.5602 10.6314 -0.247344 53.8224 10.6314 -0.247344 
53.3307 12.0252 -0.247344 53.3307 10.6314 0.640103 -46.9617 17.7555 -0.247344 
-46.4074 18.7573 -0.247344 50.25 17.7555 -0.247344 46.2065 23.4746 -0.247344 
46.2065 17.7555 3.55784 -42.7387 24.8797 -0.247344 -39.2833 28.591 -0.247344 
31.9582 30.5335 -0.247344 31.9582 24.8797 6.09185 44.3574 24.8797 -0.247344 
39.0824 27.5698 -0.247344 39.0824 24.8797 3.81442 -34.9327 32.0038 -0.247344 
-32.1591 33.5947 -0.247344 -32.1591 32.0038 5.46651 -25.035 35.4009 -0.247344 
-17.9108 36.4477 -0.247344 -10.7867 37.7459 -0.247344 -3.66251 38.798 -0.247344 
3.46164 37.9485 -0.247344 3.46164 32.0038 6.86452 10.5858 35.0865 -0.247344 
10.5858 32.0038 3.46528 17.7099 33.0566 -0.247344 17.7099 32.0038 1.0436 
25.8962 32.0038 -0.247344 24.8341 32.208 -0.247344 24.8341 32.0038 0.0466455 
-25.035 -34.2148 6.87681 -17.9108 -36.4894 6.87681 -10.7867 -37.8357 6.87681 
-3.66251 -38.4499 6.87681 3.46164 -38.6601 6.87681 10.5858 -38.311 6.87681 
17.7099 -36.9332 6.87681 24.8341 -34.4496 6.87681 -39.2833 -26.7642 6.87681 
-29.8076 -32.1135 6.87681 -32.1591 -30.9943 6.87681 -25.035 -32.1135 10.4757 
-17.9108 -32.1135 13.972 17.7099 -32.1135 12.9474 29.2211 -32.1135 6.87681 
24.8341 -32.1135 10.2403 31.9582 -30.3451 6.87681 -41.5906 -24.9894 6.87681 
-46.4074 -20.6009 6.87681 -39.2833 -24.9894 9.98268 38.9735 -24.9894 6.87681 
31.9582 -24.9894 11.7817 39.0824 -24.8686 6.87681 -48.7435 -17.8652 6.87681 
-46.4074 -17.8652 10.5477 44.8152 -17.8652 6.87681 39.0824 -17.8652 11.4963 
46.2065 -15.2306 6.87681 -52.6305 -10.7411 6.87681 39.0824 -10.7411 12.6586 
48.4143 -10.7411 6.87681 46.2065 -10.7411 8.6484 -53.0651 -3.6169 6.87681 
39.0824 -3.6169 12.8884 50.5758 -3.6169 6.87681 46.2065 -3.6169 9.57831 
-52.028 3.50725 6.87681 24.8341 3.50725 13.8745 31.9582 3.50725 13.6383 
39.0824 3.50725 11.9727 51.1129 3.50725 6.87681 46.2065 3.50725 9.3409 
-50.0297 10.6314 6.87681 -46.4074 10.6314 12.6712 24.8341 10.6314 13.1549 
31.9582 10.6314 12.2888 39.0824 10.6314 10.4169 46.871 10.6314 6.87681 
46.2065 11.5799 6.87681 46.2065 10.6314 7.34343 -46.584 17.7555 6.87681 
-46.4074 18.0413 6.87681 -46.4074 17.7555 7.20155 10.5858 17.7555 12.5533 
17.7099 17.7555 11.7059 24.8341 17.7555 11.1642 31.9582 23.7742 6.87681 
31.9582 17.7555 9.99739 41.6878 17.7555 6.87681 39.0824 21.2295 6.87681 
39.0824 17.7555 8.23844 -41.4523 24.8797 6.87681 -39.2833 26.995 6.87681 
-39.2833 24.8797 9.99136 -32.1591 31.5016 6.87681 -3.66251 24.8797 13.1799 
3.46164 31.9855 6.87681 3.46164 24.8797 10.7543 10.5858 27.6854 6.87681 
10.5858 24.8797 8.61413 17.7099 25.3785 6.87681 17.7099 24.8797 7.25024 
27.9147 24.8797 6.87681 24.8341 25.4627 6.87681 24.8341 24.8797 7.32994 
-29.5421 32.0038 6.87681 -25.035 32.7581 6.87681 -25.035 32.0038 8.17532 
-17.9108 32.9615 6.87681 -17.9108 32.0038 8.35788 -10.7867 33.0646 6.87681 
-10.7867 32.0038 8.20533 3.38321 32.0038 6.87681 -3.66251 33.0743 6.87681 
-3.66251 32.0038 7.8748 -10.7867 -33.6102 14.001 -3.66251 -33.903 14.001 
3.46164 -33.8299 14.001 10.5858 -33.3643 14.001 -32.1591 -25.6427 14.001 
[...]
POINT_DATA 506
SCALARS ImageScalars float
LOOKUP_TABLE default
0 0 0 0 0 0 0 0 0 
0 0 0 0 0 0 0 0 0 
0 0 0 0 0 0 0 0 0 
0 0 0 0 0 0 0 0 0 
0 0 0 0 0 0 0 0 0 
0 0 0 0 0 0 0 0 0 
0 0 0 0 0 0 0 0 0 
0 0 0 0 0 0 0 0 0 
0 0 0 0 0 0 0 0 0 
0 0 0 0 0 0 0 0 0 
0 0 0 0 0 0 0 0 0 
0 0 0 0 0 0 0 0 0 
0 0 0 0 0 0 0 0 0 
0 0 0 0 0 0 0 0 0 
0 0 0 0 0 0 0 0 0 
0 0 0 0 0 0 0 0 0 
0 0 0 0 0 0 0 0 0 
0 0 0 0 0 0 0 0 0 
0 0 0 0 0 0 0 0 0 
0 0 0 0 0 0 0 0 0 
0 0 0 0 0 0 0 0 0 
0 0 0 0 0 0 0 0 0 
0 0 0 0 0 0 0 0 0 
0 0 0 0 0 0 0 0 0 
0 0 0 0 0 0 0 0 0 
0 0 0 0 0 0 0 0 0 
0 0 0 0 0 0 0 0 0 
0 0 0 0 0 0 0 0 0 
0 0 0 0 0 0 0 0 0 
0 0 0 0 0 0 0 0 0 
0 0 0 0 0 0 0 0 0 
0 0 0 0 0 0 0 0 0 
0 0 0 0 0 0 0 0 0 
0 0 0 0 0 0 0 0 0 
0 0 0 0 0 0 0 0 0 
0 0 0 0 0 0 0 0 0 
0 0 0 0 0 0 0 0 0 
0 0 0 0 0 0 0 0 0 
0 0 0 0 0 0 0 0 0 
0 0 0 0 0 0 0 0 0 
0 0 0 0 0 0 0 0 0 
0 0 0 0 0 0 0 0 0 
0 0 0 0 0 0 0 0 0 
0 0 0 0 0 0 0 0 0 
0 0 0 0 0 0 0 0 0 
0 0 0 0 0 0 0 0 0 
0 0 0 0 0 0 0 0 0 
0 0 0 0 0 0 0 0 0 
0 0 0 0 0 0 0 0 0 
0 0 0 0 0 0 0 0 0 
0 0 0 0 0 0 0 0 0 
0 0 0 0 0 0 0 0 0 
0 0 0 0 0 0 0 0 0 
0 0 0 0 0 0 0 0 0 
0 0 0 0 0 0 0 0 0 
0 0 0 0 0 0 0 0 0 
0 0 
NORMALS Normals float
0.102276 0.244225 0.96431 -0.0438647 0.31996 0.946415 -0.209792 0.403497 0.890605 
0.126852 0.224769 0.96612 0.136171 0.172458 0.975559 0.0251384 0.150241 0.98833 
-0.0979778 0.190105 0.976863 -0.248823 0.300437 0.920774 0.241114 0.197603 0.950167 
0.0866261 0.316036 0.944784 -0.00631277 0.361017 0.932538 -0.0327945 0.0787129 0.996358 
-0.0522508 0.066523 0.996416 -0.153861 0.167898 0.973723 -0.2818 0.270154 0.920655 
0.190329 0.112946 0.975202 0.0885964 0.187357 0.978288 0.14067 0.268581 0.95293 
0.0647962 0.295992 0.95299 0.100285 -0.0443277 0.993971 0.331927 -0.0107449 0.943244 
-0.120096 0.126467 0.984674 -0.259035 -0.0324193 0.965324 -0.0150023 -0.0332417 0.999335 
-0.053952 0.0555234 0.996999 -0.197013 0.114096 0.973739 -0.459315 0.21215 0.862567 
0.238999 0.0209448 0.970794 0.159092 0.0518366 0.985902 0.141771 0.0379735 0.989171 
-0.07691 -0.079442 0.993868 -0.0952594 0.0309758 0.99497 0.283368 -0.00912507 0.958968 
-0.0571017 -0.141067 0.988352 -0.191568 0.00603712 0.981461 0.0386842 0.0369904 0.998567 
-0.00403202 0.0199661 0.999793 -0.149387 0.0213199 0.988549 -0.415754 -0.00700691 0.90945 
0.262776 -0.0403563 0.964013 0.116805 -0.00764457 0.993125 0.0199511 -0.0707326 0.997296 
0.0461287 -0.145671 0.988257 0.164276 0.0518517 0.985051 0.146097 0.0612577 0.987372 
-0.0541095 -0.0324978 0.998006 -0.0952298 0.13579 0.98615 0.000782698 0.0897471 0.995964 
-0.0600166 0.00133701 0.998196 -0.234031 -0.0581176 0.970491 -0.460649 -0.159876 0.873065 
0.283104 -0.153834 0.946672 0.136967 -0.0803199 0.987314 0.00257539 -0.0533011 0.998575 
0.0358607 -0.0485598 0.998176 0.1536 -0.0730359 0.98543 0.177091 -0.134389 0.974976 
0.0347264 -0.0980913 0.994571 -0.081957 0.00505832 0.996623 -0.0945267 -0.0120485 0.995449 
-0.150226 -0.151989 0.976899 -0.29636 -0.179122 0.938129 0.202537 -0.300468 0.93204 
0.0486887 -0.226933 0.972693 0.0300874 -0.139827 0.989719 0.0758378 -0.188635 0.979115 
0.108142 -0.289259 0.951123 0.0894502 -0.324546 0.941631 -0.00563175 -0.302417 0.953159 
-0.151433 -0.296223 0.943038 -0.210616 -0.344736 0.914767 -0.444609 -0.456491 0.770674 
0.0138113 -0.636307 0.771312 0.268032 0.623827 0.734165 0.139333 0.564872 0.81333 
0.10118 0.545181 0.83219 0.083652 0.538138 0.838695 0.0713148 0.342006 0.936988 
0.00494209 0.582561 0.812772 -0.0754154 0.410571 0.908705 -0.158244 0.672386 0.723088 
-0.215875 0.424949 0.8791 -0.343597 0.756916 0.555894 0.338484 0.545501 0.766719 
0.233323 0.396095 0.88807 0.197743 0.247427 0.948513 0.129327 0.237416 0.962761 
0.085157 0.218078 0.972209 0.116843 0.224173 0.96752 0.125093 0.215402 0.96848 
0.123447 0.218239 0.968056 -0.229979 0.421076 0.877385 -0.298245 0.382181 0.874636 
-0.402199 0.564457 0.720849 0.391499 0.432713 0.812088 0.199558 0.343538 0.917692 
0.122138 0.255582 0.959041 0.0896562 0.141923 0.985809 0.109201 0.0836881 0.99049 
0.09934 0.202901 0.974147 0.101723 0.200042 0.974492 0.095242 0.199628 0.975232 
-0.329284 0.343794 0.879419 -0.326807 0.315995 0.890699 -0.44981 0.441014 0.776645 
0.540988 0.292423 0.788556 0.351134 0.230754 0.907445 0.177953 0.138638 0.974224 
0.121852 0.265241 0.956451 0.0441644 0.209971 0.97671 0.0203228 0.22345 0.974504 
0.0562084 0.232036 0.971082 0.0189818 0.212596 0.976956 0.212303 0.256653 0.942898 
0.188263 0.280903 0.94109 0.199684 0.264167 0.943579 -0.321758 0.313509 0.893411 
-0.45812 0.275037 0.84527 -0.512902 0.406161 0.756283 0.56347 0.0613478 0.823855 
0.2063 0.107899 0.972522 0.354655 0.0734027 0.932111 -0.515541 0.205718 0.831804 
-0.867508 0.216208 0.447977 0.6287 -0.115212 0.769066 0.290465 0.00700321 0.95686 
0.396847 -0.0285362 0.917441 -0.539375 -0.00314918 0.84206 -0.895271 -0.0192189 0.445107 
0.297051 -0.0415931 0.953955 0.460272 -0.0868756 0.883517 -0.506588 -0.162081 0.846817 
-0.474875 -0.244642 0.845366 -0.903444 -0.175429 0.391171 0.299752 -0.159521 0.940586 
0.56536 -0.254902 0.78447 0.295201 -0.172481 0.939737 -0.406433 -0.282723 0.868838 
-0.537831 -0.377515 0.753804 0.666061 -0.506837 0.547248 0.276196 -0.320962 0.905924 
0.442093 -0.381815 0.811647 0.219664 -0.375828 0.900278 0.121565 -0.377572 0.917966 
0.0573436 -0.402272 0.913723 -0.00722403 -0.408104 0.912907 0.0430139 -0.491834 0.869626 
-0.0648081 -0.692021 0.718962 -0.14972 -0.67753 0.720095 -0.258675 -0.559988 0.787084 
-0.449376 -0.458857 0.766493 -0.446981 -0.461375 0.766382 0.291555 -0.725532 0.623377 
0.206383 -0.584379 0.784797 0.0586095 -0.413771 0.908492 -0.0227012 -0.470914 0.881887 
0.0186309 -0.612955 0.789898 0.0270508 -0.540608 0.840839 -0.0145082 -0.664366 0.747266 
0.012275 -0.644125 0.764822 -0.0751264 -0.734184 0.674781 -0.171924 -0.864401 0.472497 
-0.278636 -0.952056 0.126295 0.273554 0.676972 0.683284 0.156295 0.723596 0.672295 
0.0837504 0.771309 0.630927 0.0469471 0.813567 0.579572 0.00771497 0.992197 0.124443 
-0.055776 0.844862 0.532068 -0.100266 0.991219 0.0862117 -0.200074 0.851871 0.484032 
-0.356638 0.812389 0.461338 0.355456 0.572615 0.738758 0.309955 0.648789 0.694983 
0.321739 0.564623 0.760056 0.389268 0.761142 0.51878 -0.40833 0.788357 0.460173 
-0.477465 0.731651 0.486533 0.36744 0.567688 0.736694 0.44577 0.51702 0.730739 
0.534094 0.731329 0.424147 -0.548672 0.688723 0.47394 -0.556606 0.68253 0.473648 
-0.585815 0.721408 0.369313 0.498605 0.460848 0.734175 0.554087 0.324469 0.76662 
0.699065 0.541676 0.466792 -0.652795 0.595519 0.468206 -0.664425 0.586502 0.463201 
-0.687796 0.607792 0.396895 0.566013 0.299388 0.768112 -0.813563 0.423273 0.398692 
-0.879262 0.270085 0.392367 0.685437 0.0435283 0.72683 -0.889841 0.223433 0.39782 
0.698102 -0.140034 0.702171 0.701046 -0.256605 0.665348 -0.93101 -0.0249158 0.364143 
0.701027 -0.262378 0.663113 0.709137 -0.266575 0.652735 -0.911759 -0.176565 0.370836 
-0.907049 -0.213415 0.362927 0.719813 -0.344551 0.602622 0.869366 -0.433159 0.237856 
-0.841425 -0.469997 0.266658 -0.70008 -0.666599 0.255995 0.668782 -0.507308 0.543478 
0.667261 -0.510035 0.542796 0.470253 -0.758358 0.451393 -0.672734 -0.701627 0.234838 
-0.495615 -0.85863 0.130843 0.464625 -0.764559 0.446735 0.467744 -0.773912 0.426938 
0.29963 -0.878584 0.371903 0.219612 -0.928727 0.298726 0.164853 -0.954834 0.247217 
0.022094 -0.95139 0.307196 -0.160654 -0.943932 0.288415 -0.216034 -0.961694 0.16874 
-0.186777 -0.980634 0.0589169 -0.199554 -0.978381 0.0543106 -0.29124 -0.953692 0.0751678 
-0.2704 -0.960429 0.0667876 -0.268453 -0.962996 -0.0239158 0.00687344 0.993442 0.114128 
-0.100463 0.991525 0.0823758 0.38689 0.89962 0.202483 0.264319 0.949449 0.169358 
0.130895 0.981943 0.13658 0.0220158 0.99264 0.119086 0.041286 0.991155 0.126122 
0.00554145 0.996943 0.077933 -0.102626 0.991306 0.0823484 -0.100788 0.992154 0.0739789 
-0.243341 0.966988 0.0756219 -0.374771 0.925317 0.0577538 0.549646 0.791658 0.26677 
0.455389 0.858654 0.235232 0.478322 0.842678 0.247189 -0.487468 0.871734 0.0495431 
-0.493049 0.868621 0.0489982 -0.625263 0.779928 0.0275448 0.591021 0.761334 0.26658 
0.715538 0.640216 0.279516 -0.662137 0.749231 0.0150656 -0.626831 0.638333 -0.44678 
-0.758221 0.651361 -0.0288088 0.782378 0.555011 0.282572 -0.806678 0.589967 -0.0347657 
-0.743382 0.534307 -0.402367 0.933626 0.270213 0.235217 -0.938634 0.332877 -0.0903302 
-0.964862 0.235574 -0.116385 0.982407 -0.0308873 0.184181 -0.975519 0.155491 -0.155518 
-0.931837 0.158554 -0.326406 0.971181 -0.159174 0.177403 -0.988702 -0.0309772 -0.146658 
-0.894546 -0.0860055 -0.438623 0.918838 -0.346749 0.188417 -0.934129 -0.240268 -0.263959 
-0.914962 -0.295079 -0.275267 -0.910284 -0.25345 -0.327331 0.880678 -0.441984 0.170461 
0.872973 -0.458885 0.165357 -0.766209 -0.516387 -0.38245 -0.633437 -0.684342 -0.361156 
-0.599548 -0.468363 -0.648983 0.77791 -0.619504 0.105215 0.678489 -0.731894 0.0631163 
-0.241099 -0.860838 -0.44814 -0.143478 -0.618426 -0.772634 -0.571163 -0.739332 -0.356596 
-0.422725 -0.806516 -0.413323 -0.368681 -0.696657 -0.615422 0.486539 -0.873631 -0.00693949 
0.378774 -0.925078 -0.0275924 0.338131 -0.880742 -0.331603 0.204367 -0.96956 -0.134858 
0.14954 -0.963597 -0.221628 0.150306 -0.944699 -0.291465 0.0151032 -0.953058 -0.302409 
-0.231231 -0.924087 -0.304294 -0.225961 -0.567796 -0.791549 -0.30722 -0.861612 -0.404031 
-0.298888 -0.686974 -0.662369 -0.185658 -0.841734 -0.506966 -0.174201 -0.799197 -0.575273 
-0.156072 -0.87946 -0.449658 -0.144562 -0.880217 -0.452017 -0.141566 -0.873602 -0.465594 
0.355337 0.893683 -0.273982 0.235937 0.929086 -0.284839 0.130877 0.948908 -0.287133 
0.0551211 0.96002 -0.274451 -0.00880332 0.961608 -0.274287 -0.112044 0.945981 -0.304248 
-0.255895 0.90215 -0.347337 -0.392356 0.845817 -0.361456 0.555896 0.799403 -0.227893 
0.424247 0.86868 -0.255753 0.456871 0.852964 -0.252432 0.337815 0.816872 -0.467549 
0.215457 0.681878 -0.699014 -0.237419 0.560656 -0.793283 -0.468545 0.798873 -0.377184 
-0.374773 0.719755 -0.584378 -0.51329 0.746822 -0.422836 0.590466 0.771056 -0.238376 
0.715484 0.65331 -0.247525 0.538313 0.727322 -0.425702 -0.621801 0.629476 -0.465965 
-0.426138 0.467499 -0.774501 -0.623077 0.62672 -0.467972 0.796485 0.562009 -0.223066 
0.657294 0.575384 -0.486721 -0.658997 0.45156 -0.601513 -0.496904 0.300904 -0.813967 
-0.665083 0.380891 -0.642329 0.91741 0.274657 -0.287961 -0.369842 0.0767519 -0.925919 
-0.690503 0.25284 -0.6777 -0.601529 0.216065 -0.769076 0.968338 -0.0441749 -0.245704 
-0.308605 -0.0497439 -0.949889 -0.688082 0.123863 -0.714984 -0.504249 0.038182 -0.862714 
0.945727 -0.190488 -0.263277 -0.0366664 -0.107868 -0.993489 -0.132345 -0.135763 -0.981862 
-0.283846 -0.15424 -0.946383 -0.658342 -0.137839 -0.73999 -0.422396 -0.117079 -0.898818 
0.888589 -0.362227 -0.281427 0.715612 -0.343724 -0.608074 -0.12885 -0.177538 -0.975642 
-0.1765 -0.237766 -0.955152 -0.284749 -0.255958 -0.923798 -0.504669 -0.340685 -0.793248 
-0.488793 -0.35208 -0.798198 -0.481657 -0.33461 -0.809965 0.843303 -0.470593 -0.25958 
0.839073 -0.476592 -0.262328 0.83672 -0.471551 -0.278458 -0.197977 -0.468815 -0.860824 
-0.0854625 -0.418015 -0.904411 -0.110948 -0.378632 -0.918873 -0.135752 -0.567457 -0.812136 
-0.189007 -0.37634 -0.906998 -0.423223 -0.358012 -0.832292 -0.356012 -0.472822 -0.806037 
-0.349961 -0.329886 -0.876757 0.673029 -0.665254 -0.323218 0.60915 -0.720035 -0.332395 
0.592367 -0.643932 -0.484203 0.324753 -0.852749 -0.409091 -0.27012 -0.55157 -0.78918 
-0.225933 -0.56701 -0.79212 -0.272976 -0.472518 -0.837981 -0.236631 -0.516229 -0.823112 
-0.199647 -0.491511 -0.847678 -0.0850417 -0.591469 -0.80183 -0.0799412 -0.582568 -0.808841 
-0.0870776 -0.593625 -0.800017 -0.0616568 -0.603211 -0.795195 -0.0603863 -0.584319 -0.809274 
0.237906 -0.877743 -0.415894 0.0915397 -0.89762 -0.431159 0.0843605 -0.880894 -0.465735 
0.0188401 -0.863376 -0.504209 -0.000239667 -0.848179 -0.52971 0.00699762 -0.788643 -0.614812 
-0.0242494 -0.773039 -0.633895 -0.224036 -0.568513 -0.791581 -0.0480246 -0.683633 -0.728244 
-0.0748091 -0.653629 -0.753109 0.100546 0.688754 -0.717989 0.0131774 0.664626 -0.74706 
-0.0275569 0.62312 -0.781641 -0.137939 0.551382 -0.82277 0.334031 0.594879 -0.731124 
0.28696 0.637985 -0.714583 0.213558 0.680304 -0.701127 0.214925 0.679796 -0.701202 
0.0899419 0.605102 -0.791051 0.000795264 0.556719 -0.8307 -0.0418094 0.512403 -0.857726 
-0.186596 0.503223 -0.84377 -0.144451 0.473833 -0.868686 -0.207052 0.434321 -0.876638 
-0.26873 0.337947 -0.901984 0.353238 0.587006 -0.728455 0.444865 0.526054 -0.724819 
0.325031 0.572898 -0.752425 0.226202 0.45702 -0.860213 0.0883808 0.356924 -0.929943 
-0.00526098 0.24489 -0.969536 -0.0559225 0.176144 -0.982775 -0.0952907 0.123 -0.987821 
-0.104831 0.107541 -0.988658 -0.152529 0.19155 -0.969558 -0.286344 0.3046 -0.90842 
-0.248815 0.260942 -0.932738 -0.292609 0.233667 -0.927243 0.468203 0.489486 -0.735656 
0.592655 0.341958 -0.729264 0.408666 0.431629 -0.804169 0.215466 0.335532 -0.917057 
0.101749 0.254936 -0.96159 -0.0224906 0.183023 -0.982851 -0.096559 0.0970172 -0.990588 
-0.127782 0.00439335 -0.991793 -0.137792 -0.00606863 -0.990443 -0.0980421 -0.0855603 -0.991497 
-0.0656467 -0.057163 -0.996204 -0.0981708 0.050635 -0.993881 -0.306169 0.193475 -0.932109 
-0.260338 0.171424 -0.950178 0.665521 0.209357 -0.716416 0.591963 0.221012 -0.77507 
0.307888 0.17848 -0.934532 0.177284 0.165038 -0.970223 0.0566955 0.136085 -0.989074 
-0.0786197 0.122114 -0.989397 -0.187832 0.140108 -0.972157 -0.152143 0.100836 -0.983201 
-0.194704 0.144556 -0.970151 -0.150641 -0.0456355 -0.987535 -0.012801 -0.104423 -0.994451 
-0.0457817 -0.0598875 -0.997155 -0.230249 0.00996483 -0.973081 -0.173424 -0.0177636 -0.984687 
0.662397 0.00464545 -0.749139 0.576033 0.00890222 -0.817378 0.335885 0.0291111 -0.941453 
0.167808 0.0438643 -0.984843 -0.130745 0.108472 -0.985464 -0.241088 -0.0438228 -0.969513 
-0.368062 0.0157722 -0.929667 -0.0701947 -0.0755166 -0.994671 -0.0337515 -0.107107 -0.993674 
-0.0184192 -0.103768 -0.994431 -0.165909 -0.0632572 -0.98411 -0.127904 -0.0983847 -0.986895 
-0.123728 -0.0660428 -0.990116 0.691762 -0.143955 -0.707631 0.66512 -0.263326 -0.698766 
0.601852 -0.132876 -0.787476 0.347911 -0.0988811 -0.932298 0.181994 -0.0764509 -0.980323 
-0.319259 -0.0610789 -0.945697 -0.254867 -0.156352 -0.954252 -0.192945 -0.0148564 -0.981097 
-0.0738611 -0.0737819 -0.994535 -0.12627 -0.0260923 -0.991653 0.640793 -0.313004 -0.701008 
0.412991 -0.18541 -0.891662 0.200475 -0.144318 -0.969011 0.0666325 -0.106997 -0.992024 
-0.0335523 -0.119035 -0.992323 -0.109541 -0.157219 -0.98147 -0.206606 -0.130559 -0.969674 
-0.231622 -0.106578 -0.96695 -0.213415 -0.356521 -0.909586 -0.211378 -0.186044 -0.959535 
-0.166469 -0.160989 -0.972816 -0.169091 -0.180404 -0.968949 -0.176377 -0.157295 -0.971673 
0.568379 -0.409973 -0.71335 0.530565 -0.458999 -0.712616 0.509176 -0.379499 -0.772477 
0.250057 -0.305123 -0.918897 0.0849485 -0.243503 -0.966173 -0.054394 -0.256737 -0.964949 
-0.14119 -0.28873 -0.946943 -0.282191 -0.525683 -0.802512 -0.25768 -0.356242 -0.898161 
-0.275383 -0.448561 -0.850269 -0.311897 -0.448507 -0.837593 -0.314821 -0.421034 -0.850657 
0.374294 -0.581073 -0.722675 0.318493 -0.607275 -0.727859 0.320535 -0.572784 -0.754438 
0.0950489 -0.709924 -0.697835 0.106171 -0.565013 -0.818222 -0.0689834 -0.711443 -0.69935 
-0.0785472 -0.575192 -0.814238 -0.256839 -0.571937 -0.779052 -0.184469 -0.645703 -0.740971 
-0.202069 -0.587867 -0.783314 0.0559425 0.110964 -0.992249 -0.0610256 0.0995411 -0.99316 
-0.128455 0.118838 -0.984569 0.132718 0.041967 -0.990265 0.053571 0.036037 -0.997914 
-0.0165303 0.0442502 -0.998884 -0.119391 0.114162 -0.986262 -0.115395 0.113306 -0.986836 
0.114018 -0.0705639 -0.99097 0.0613432 -0.0835832 -0.994611 0.0552181 -0.0631327 -0.996476 
-0.0200422 -0.093657 -0.995403 -0.00349291 -0.0645547 -0.997908 -0.156192 -0.0775681 -0.984676 
-0.115779 -0.100561 -0.988171 -0.11677 -0.0809187 -0.989857 
