# vtk DataFile Version 4.2
vtk output
ASCII
DATASET POLYDATA
POINTS 556 float
-8.33189 -37.4961 -11.2467 -0.708257 -37.4961 -12.7338 6.91537 -37.4961 -13.198 
14.539 -37.4961 -12.231 -38.8264 -29.8725 -11.2023 -31.2028 -29.8725 -13.2172 
-23.5791 -29.8725 -13.2653 -15.9555 -29.8725 -13.7168 -8.33189 -29.8725 -14.6135 
-0.708257 -29.8725 -16.1492 6.91537 -29.8725 -16.6588 14.539 -29.8725 -15.5955 
22.1626 -29.8725 -14.1969 29.7863 -29.8725 -12.7111 -46.45 -22.2488 -12.8195 
-38.8264 -22.2488 -14.6488 -31.2028 -22.2488 -16.0932 -23.5791 -22.2488 -15.4523 
-15.9555 -22.2488 -15.1192 -8.33189 -22.2488 -15.5159 -0.708257 -22.2488 -16.4218 
6.91537 -22.2488 -16.9741 14.539 -22.2488 -16.7178 22.1626 -22.2488 -16.0179 
29.7863 -22.2488 -15.2936 37.4099 -22.2488 -14.2504 45.0335 -22.2488 -11.99 
-54.0737 -14.6252 -12.4388 -46.45 -14.6252 -14.8541 -38.8264 -14.6252 -16.4933 
-31.2028 -14.6252 -16.4809 -23.5791 -14.6252 -15.7913 -15.9555 -14.6252 -14.9949 
-8.33189 -14.6252 -14.8127 -0.708257 -14.6252 -16.2781 6.91537 -14.6252 -17.2795 
14.539 -14.6252 -17.5753 22.1626 -14.6252 -17.1412 29.7863 -14.6252 -16.6899 
37.4099 -14.6252 -15.9675 45.0335 -14.6252 -14.7928 52.6571 -14.6252 -11.9393 
-54.0737 -7.00158 -12.4193 -46.45 -7.00158 -15.4895 -38.8264 -7.00158 -16.9713 
-31.2028 -7.00158 -17.0162 -23.5791 -7.00158 -15.7958 -15.9555 -7.00158 -14.2972 
-8.33189 -7.00158 -16.2061 -0.708257 -7.00158 -17.424 6.91537 -7.00158 -17.9636 
14.539 -7.00158 -18.0761 22.1626 -7.00158 -16.6666 29.7863 -7.00158 -16.5513 
37.4099 -7.00158 -16.4486 45.0335 -7.00158 -15.2881 52.6571 -7.00158 -12.2197 
-54.0737 0.622049 -13.4949 -46.45 0.622049 -16.1794 -38.8264 0.622049 -17.329 
-31.2028 0.622049 -17.0519 -23.5791 0.622049 -16.1564 -15.9555 0.622049 -14.3866 
-8.33189 0.622049 -18.1417 -0.708257 0.622049 -13.3689 6.91537 0.622049 -17.3356 
14.539 0.622049 -16.1531 22.1626 0.622049 -15.0606 29.7863 0.622049 -15.6497 
37.4099 0.622049 -15.9027 45.0335 0.622049 -14.4444 52.6571 0.622049 -11.9948 
-54.0737 8.24568 -12.4792 -46.45 8.24568 -16.0675 -38.8264 8.24568 -17.5418 
-31.2028 8.24568 -18.3169 -23.5791 8.24568 -16.9616 -15.9555 8.24568 -15.6303 
-8.33189 8.24568 -17.2581 -0.708257 8.24568 -16.3256 6.91537 8.24568 -17.9226 
14.539 8.24568 -16.605 22.1626 8.24568 -15.2773 29.7863 8.24568 -15.3074 
37.4099 8.24568 -15.3025 45.0335 8.24568 -14.5015 52.6571 8.24568 -11.1667 
-54.0737 15.8693 -11.9997 -46.45 15.8693 -15.7653 -38.8264 15.8693 -18.4277 
-31.2028 15.8693 -18.1813 -23.5791 15.8693 -17.5485 -15.9555 15.8693 -16.8183 
-8.33189 15.8693 -16.9816 -0.708257 15.8693 -16.7565 6.91537 15.8693 -16.9137 
14.539 15.8693 -17.4379 22.1626 15.8693 -16.7554 29.7863 15.8693 -15.8843 
37.4099 15.8693 -15.3243 45.0335 15.8693 -15.0363 -46.45 23.4929 -14.3591 
-38.8264 23.4929 -16.6413 -31.2028 23.4929 -17.3384 -23.5791 23.4929 -18.1249 
-15.9555 23.4929 -17.6666 -8.33189 23.4929 -17.8047 -0.708257 23.4929 -17.7098 
6.91537 23.4929 -17.6152 14.539 23.4929 -18.0806 22.1626 23.4929 -18.2101 
29.7863 23.4929 -16.7418 37.4099 23.4929 -15.0092 45.0335 23.4929 -11.6212 
-38.8264 31.1166 -14.6127 -31.2028 31.1166 -16.0936 -23.5791 31.1166 -16.7784 
-15.9555 31.1166 -17.5547 -8.33189 31.1166 -17.7625 -0.708257 31.1166 -17.7941 
6.91537 31.1166 -17.7346 14.539 31.1166 -18.0039 22.1626 31.1166 -17.2155 
29.7863 31.1166 -15.9133 37.4099 31.1166 -13.6243 -23.5791 38.7402 -13.4409 
-15.9555 38.7402 -14.9854 -8.33189 38.7402 -16.1985 -0.708257 38.7402 -16.008 
6.91537 38.7402 -16.6643 14.539 38.7402 -15.7691 22.1626 38.7402 -14.6052 
29.7863 38.7402 -12.2117 -8.33189 -37.7306 -11.053 -0.708257 -39.4578 -11.053 
6.91537 -39.9543 -11.053 14.539 -38.9704 -11.053 -38.8264 -30.0713 -11.053 
-31.2028 -33.0386 -11.053 -31.2028 -37.4961 -5.29897 -23.5791 -33.6014 -11.053 
-23.5791 -37.4961 -7.65873 -9.23591 -37.4961 -11.053 -15.9555 -35.0416 -11.053 
-15.9555 -37.4961 -9.15293 18.8987 -37.4961 -11.053 22.1626 -35.8662 -11.053 
22.1626 -37.4961 -10.0255 29.7863 -32.9133 -11.053 29.7863 -37.4961 -8.2246 
37.4099 -37.4961 -5.07973 -39.4481 -29.8725 -11.053 -46.45 -26.2453 -11.053 
-46.45 -29.8725 -8.72728 36.3289 -29.8725 -11.053 37.4099 -29.303 -11.053 
37.4099 -29.8725 -10.7429 45.0335 -24.1824 -11.053 45.0335 -29.8725 -7.8471 
-50.1738 -22.2488 -11.053 -54.0737 -18.2759 -11.053 -54.0737 -22.2488 -8.54897 
47.096 -22.2488 -11.053 52.6571 -16.9052 -11.053 52.6571 -22.2488 -7.86316 
-55.8426 -14.6252 -11.053 53.9151 -14.6252 -11.053 60.2808 -14.6252 -3.47254 
-55.8236 -7.00158 -11.053 54.7552 -7.00158 -11.053 60.2808 -7.00158 -6.61044 
-57.0241 0.622049 -11.053 -61.6973 0.622049 -4.18892 54.3182 0.622049 -11.053 
60.2808 0.622049 -6.25039 -55.6744 8.24568 -11.053 52.8642 8.24568 -11.053 
52.6571 12.2147 -11.053 60.2808 8.24568 -4.8226 -55.0207 15.8693 -11.053 
-54.0737 18.3669 -11.053 52.4361 15.8693 -11.053 52.6571 15.8693 -10.9038 
-50.9177 23.4929 -11.053 -54.0737 23.4929 -3.54549 -46.45 29.3191 -11.053 
46.1459 23.4929 -11.053 45.0335 26.1123 -11.053 52.6571 23.4929 -6.2219 
-44.6285 31.1166 -11.053 -46.45 31.1166 -7.31509 -38.8264 35.0052 -11.053 
-31.2028 38.4673 -11.053 42.7616 31.1166 -11.053 37.4099 35.3736 -11.053 
45.0335 31.1166 -9.04341 -30.6064 38.7402 -11.053 -31.2028 38.7402 -10.3915 
-23.5791 41.1458 -11.053 -15.9555 42.7679 -11.053 -8.33189 44.0635 -11.053 
-0.708257 44.8129 -11.053 6.91537 44.8801 -11.053 14.539 44.1754 -11.053 
22.1626 42.966 -11.053 32.2405 38.7402 -11.053 29.7863 39.7356 -11.053 
37.4099 38.7402 -5.27469 6.91537 46.3638 -5.27039 14.539 46.3638 -3.58158 
-31.2028 -38.5552 -3.42933 -23.5791 -40.211 -3.42933 -15.9555 -41.8109 -3.42933 
-8.33189 -43.0632 -3.42933 -0.708257 -44.0684 -3.42933 6.91537 -44.5163 -3.42933 
14.539 -44.4708 -3.42933 14.539 -45.1197 3.37957 22.1626 -43.8467 -3.42933 
22.1626 -45.1197 2.42977 29.7863 -41.9277 -3.42933 37.4099 -38.8597 -3.42933 
-46.45 -33.1021 -3.42933 -35.5819 -37.4961 -3.42933 -38.8264 -36.5731 -3.42933 
40.0557 -37.4961 -3.42933 45.0335 -34.4449 -3.42933 -50.7474 -29.8725 -3.42933 
-54.0737 -26.6118 -3.42933 50.0975 -29.8725 -3.42933 52.6571 -27.1772 -3.42933 
-57.4876 -22.2488 -3.42933 56.4203 -22.2488 -3.42933 60.2808 -14.6904 -3.42933 
-60.5922 -14.6252 -3.42933 60.3089 -14.6252 -3.42933 -61.6254 -7.00158 -3.42933 
-61.6973 -5.77992 -3.42933 62.2776 -7.00158 -3.42933 -62.0228 0.622049 -3.42933 
-61.6973 1.93498 -3.42933 -61.6973 0.622049 -1.53058 62.1726 0.622049 -3.42933 
-60.0576 8.24568 -3.42933 61.1525 8.24568 -3.42933 60.2808 10.7726 -3.42933 
-57.6501 15.8693 -3.42933 58.3035 15.8693 -3.42933 -54.1012 23.4929 -3.42933 
-54.0737 23.5309 -3.42933 -54.0737 23.4929 -3.3446 54.4202 23.4929 -3.42933 
52.6571 26.1975 -3.42933 -47.4256 31.1166 -3.42933 -46.45 32.0219 -3.42933 
-46.45 31.1166 -1.25242 -38.8264 37.3245 -3.42933 48.5745 31.1166 -3.42933 
45.0335 34.1537 -3.42933 -35.7583 38.7402 -3.42933 -31.2028 40.623 -3.42933 
-31.2028 38.7402 1.63768 -23.5791 42.7046 -3.42933 -15.9555 44.3981 -3.42933 
-8.33189 45.6912 -3.42933 -0.708257 46.3439 -3.42933 22.1626 44.9031 -3.42933 
29.7863 42.5838 -3.42933 38.3521 38.7402 -3.42933 37.4099 39.3144 -3.42933 
37.4099 38.7402 -1.48618 -0.289771 46.3638 -3.42933 6.91537 46.7064 -3.42933 
6.91537 46.3638 -2.00416 14.6944 46.3638 -3.42933 14.539 46.3956 -3.42933 
14.539 46.3638 -3.30552 14.539 -45.189 4.1943 22.1626 -45.3864 4.1943 
-31.2028 -39.3581 4.1943 -23.5791 -41.2602 4.1943 -15.9555 -42.8995 4.1943 
-8.33189 -44.2825 4.1943 -0.708257 -44.4811 4.1943 13.6809 -45.1197 4.1943 
6.91537 -44.529 4.1943 14.539 -45.1197 4.33286 23.5557 -45.1197 4.1943 
22.1626 -45.1197 4.86869 29.7863 -43.7627 4.1943 37.4099 -41.0452 4.1943 
-46.45 -33.5325 4.1943 -37.7829 -37.4961 4.1943 -38.8264 -37.161 4.1943 
-31.2028 -37.4961 8.22447 43.7366 -37.4961 4.1943 37.4099 -37.4961 10.4918 
45.0335 -36.6066 4.1943 -51.277 -29.8725 4.1943 -54.0737 -27.0848 4.1943 
-46.45 -29.8725 9.87906 52.3808 -29.8725 4.1943 45.0335 -29.8725 11.7841 
52.6571 -29.5249 4.1943 -57.7646 -22.2488 4.1943 -54.0737 -22.2488 10.9842 
57.4411 -22.2488 4.1943 52.6571 -22.2488 11.324 60.2808 -14.8194 4.1943 
-60.6135 -14.6252 4.1943 52.6571 -14.6252 11.5685 60.3448 -14.6252 4.1943 
60.2808 -14.6252 4.29555 -61.1783 -7.00158 4.1943 62.2056 -7.00158 4.1943 
60.2808 -7.00158 7.24989 -60.4625 0.622049 4.1943 -54.0737 0.622049 11.5379 
61.8487 0.622049 4.1943 60.2808 0.622049 6.44118 -58.265 8.24568 4.1943 
-54.0737 8.24568 10.3947 52.6571 8.24568 10.8762 60.5942 8.24568 4.1943 
60.2808 9.06789 4.1943 60.2808 8.24568 4.62944 -55.3492 15.8693 4.1943 
-54.0737 18.3666 4.1943 -54.0737 15.8693 5.78098 -46.45 15.8693 11.4199 
56.9379 15.8693 4.1943 52.6571 15.8693 9.05683 -50.7518 23.4929 4.1943 
-46.45 28.1496 4.1943 -46.45 23.4929 8.00464 -38.8264 23.4929 11.7541 
45.0335 23.4929 9.39632 52.8661 23.4929 4.1943 52.6571 23.7587 4.1943 
52.6571 23.4929 4.4325 -42.9676 31.1166 4.1943 -38.8264 33.9554 4.1943 
-38.8264 31.1166 7.19366 -31.2028 37.5237 4.1943 -31.2028 31.1166 10.3274 
37.4099 36.6777 4.1943 37.4099 31.1166 9.11789 45.7742 31.1166 4.1943 
45.0335 31.8302 4.1943 45.0335 31.1166 4.89384 -28.2525 38.7402 4.1943 
-23.5791 40.2721 4.1943 -23.5791 38.7402 6.30832 -15.9555 41.7416 4.1943 
-15.9555 38.7402 8.32297 -8.33189 43.1667 4.1943 -8.33189 38.7402 10.4602 
-0.708257 44.2831 4.1943 6.91537 44.6694 4.1943 14.539 44.1596 4.1943 
14.539 38.7402 11.4968 22.1626 42.9349 4.1943 22.1626 38.7402 9.2307 
33.839 38.7402 4.1943 29.7863 40.5531 4.1943 29.7863 38.7402 6.77456 
-23.5791 -37.6336 11.8179 -15.9555 -39.4348 11.8179 -8.33189 -39.6987 11.8179 
-0.708257 -39.1974 11.8179 6.91537 -38.6796 11.8179 14.539 -39.3229 11.8179 
22.1626 -41.0106 11.8179 29.7863 -40.0908 11.8179 -38.8264 -32.4144 11.8179 
-24.0385 -37.4961 11.8179 -31.2028 -35.0866 11.8179 -23.5791 -37.4961 11.945 
-15.9555 -37.4961 13.636 -8.33189 -37.4961 13.8204 -0.708257 -37.4961 13.2138 
6.91537 -37.4961 12.7304 14.539 -37.4961 13.2016 22.1626 -37.4961 14.4866 
35.4353 -37.4961 11.8179 29.7863 -37.4961 13.8596 37.4099 -36.3044 11.8179 
[...]
POINT_DATA 556
SCALARS ImageScalars float
LOOKUP_TABLE default
0 0 0 0 0 0 0 0 0 
0 0 0 0 0 0 0 0 0 
0 0 0 0 0 0 0 0 0 
0 0 0 0 0 0 0 0 0 
0 0 0 0 0 0 0 0 0 
0 0 0 0 0 0 0 0 0 
0 0 0 0 0 0 0 0 0 
0 0 0 0 0 0 0 0 0 
0 0 0 0 0 0 0 0 0 
0 0 0 0 0 0 0 0 0 
0 0 0 0 0 0 0 0 0 
0 0 0 0 0 0 0 0 0 
0 0 0 0 0 0 0 0 0 
0 0 0 0 0 0 0 0 0 
0 0 0 0 0 0 0 0 0 
0 0 0 0 0 0 0 0 0 
0 0 0 0 0 0 0 0 0 
0 0 0 0 0 0 0 0 0 
0 0 0 0 0 0 0 0 0 
0 0 0 0 0 0 0 0 0 
0 0 0 0 0 0 0 0 0 
0 0 0 0 0 0 0 0 0 
0 0 0 0 0 0 0 0 0 
0 0 0 0 0 0 0 0 0 
0 0 0 0 0 0 0 0 0 
0 0 0 0 0 0 0 0 0 
0 0 0 0 0 0 0 0 0 
0 0 0 0 0 0 0 0 0 
0 0 0 0 0 0 0 0 0 
0 0 0 0 0 0 0 0 0 
0 0 0 0 0 0 0 0 0 
0 0 0 0 0 0 0 0 0 
0 0 0 0 0 0 0 0 0 
0 0 0 0 0 0 0 0 0 
0 0 0 0 0 0 0 0 0 
0 0 0 0 0 0 0 0 0 
0 0 0 0 0 0 0 0 0 
0 0 0 0 0 0 0 0 0 
0 0 0 0 0 0 0 0 0 
0 0 0 0 0 0 0 0 0 
0 0 0 0 0 0 0 0 0 
0 0 0 0 0 0 0 0 0 
0 0 0 0 0 0 0 0 0 
0 0 0 0 0 0 0 0 0 
0 0 0 0 0 0 0 0 0 
0 0 0 0 0 0 0 0 0 
0 0 0 0 0 0 0 0 0 
0 0 0 0 0 0 0 0 0 
0 0 0 0 0 0 0 0 0 
0 0 0 0 0 0 0 0 0 
0 0 0 0 0 0 0 0 0 
0 0 0 0 0 0 0 0 0 
0 0 0 0 0 0 0 0 0 
0 0 0 0 0 0 0 0 0 
0 0 0 0 0 0 0 0 0 
0 0 0 0 0 0 0 0 0 
0 0 0 0 0 0 0 0 0 
0 0 0 0 0 0 0 0 0 
0 0 0 0 0 0 0 0 0 
0 0 0 0 0 0 0 0 0 
0 0 0 0 0 0 0 0 0 
0 0 0 0 0 0 0 
NORMALS Normals float
0.180666 0.589238 0.787502 0.115108 0.576256 0.809122 -0.0315782 0.573359 0.818695 
-0.167169 0.559235 0.811979 0.24566 0.553712 0.795647 0.105271 0.480744 0.870519 
0.0333067 0.399421 0.916162 0.0812996 0.316865 0.94498 0.152543 0.249378 0.956316 
0.126127 0.202446 0.971137 -0.0346174 0.208925 0.977319 -0.149484 0.269274 0.951392 
-0.180829 0.325806 0.927983 -0.191371 0.41072 0.891452 0.346146 0.357849 0.867253 
0.183299 0.289121 0.93958 0.0484282 0.211823 0.976107 -0.0604377 0.148953 0.986996 
0.00337932 0.0813099 0.996683 0.0870252 0.0104408 0.996151 0.0932128 0.00719525 0.99562 
0.0195098 0.0388142 0.999056 -0.0614199 0.125774 0.990156 -0.0936327 0.18315 0.978616 
-0.114327 0.251181 0.961164 -0.194769 0.295594 0.935248 -0.351426 0.370439 0.859811 
0.521345 0.183662 0.833347 0.259725 0.14774 0.954315 0.112801 0.152513 0.981843 
-0.0459193 0.0583613 0.997239 -0.0934407 0.0221562 0.995378 -0.0660163 -0.055546 0.996271 
0.0870914 0.0197231 0.996005 0.160294 0.0571959 0.985411 0.0847654 0.0629695 0.994409 
-0.00924379 0.0855315 0.996293 -0.0579728 0.0420008 0.997434 -0.0743367 0.0814967 0.993898 
-0.116532 0.150644 0.981696 -0.274602 0.198225 0.940904 -0.497758 0.207276 0.842184 
0.524382 0.0586445 0.849461 0.266355 0.0850401 0.960116 0.0917278 0.0511421 0.99447 
-0.0763057 0.0372369 0.996389 -0.175903 0.0214286 0.984174 -0.0116434 -0.0379741 0.999211 
0.233335 0.194411 0.952764 0.0981099 -0.117116 0.98826 0.0398614 0.0133315 0.999116 
-0.0829208 -0.077335 0.993551 -0.0947226 -0.13946 0.985687 -0.0136446 -0.0680994 0.997585 
-0.0903142 -0.00518275 0.9959 -0.234788 -0.0255466 0.971711 -0.45594 0.00599928 0.88999 
0.532175 0.00567427 0.846615 0.216818 0.0373359 0.975498 0.052327 0.0392994 0.997856 
-0.0733806 0.0789276 0.994176 -0.179949 0.0748344 0.980825 0.0370203 0.0914395 0.995122 
0.0418886 0.0481771 0.99796 0.0274182 -0.062995 0.997637 0.144582 -0.00345821 0.989487 
-0.15044 -0.105099 0.983017 -0.0225043 -0.0861029 0.996032 0.0546313 -0.0811599 0.995203 
-0.0783181 -0.0747373 0.994123 -0.232408 -0.0563685 0.970984 -0.402379 -0.0607049 0.913458 
0.61748 -0.0857257 0.781901 0.284522 -0.0277886 0.958267 0.134378 0.067013 0.988662 
-0.0329557 0.0777363 0.996429 -0.170506 0.0882396 0.981398 0.0137102 0.160083 0.987008 
0.0513192 -0.0560304 0.997109 0.0485208 0.170351 0.984188 0.0323672 -0.0390877 0.998711 
-0.188669 0.0890185 0.977998 -0.0706886 0.11133 0.991266 0.00164273 0.0152638 0.999882 
-0.0571971 -0.0376303 0.997653 -0.234846 0.0295921 0.971582 -0.47508 -0.0627093 0.877705 
0.71609 -0.199999 0.668742 0.366663 -0.0822507 0.926711 0.155833 -0.0470191 0.986664 
-0.0566854 -0.0624764 0.996435 -0.0884204 0.0721205 0.993469 -0.037088 0.133026 0.990418 
-0.00373641 0.03813 0.999266 -0.0044987 0.0908223 0.995857 0.0443055 -0.0166346 0.99888 
-0.0101218 0.0876798 0.996097 -0.0999804 0.186812 0.977295 -0.0939178 0.098677 0.990678 
-0.0527854 -0.0186357 0.998432 -0.304513 -0.139362 0.942258 0.47203 -0.343931 0.811726 
0.160733 -0.208485 0.964727 0.0924136 -0.12727 0.987554 0.0208901 -0.0545177 0.998294 
-0.0203878 0.0483921 0.99862 0.00284148 0.0510431 0.998692 -0.0124061 0.0663985 0.997716 
0.0242874 0.0542073 0.998234 0.0387586 0.0371197 0.998559 -0.0899913 0.0238989 0.995656 
-0.194478 0.00822537 0.980872 -0.290274 -0.0893533 0.952763 -0.435656 -0.273967 0.857407 
0.356851 -0.492184 0.793985 0.121922 -0.319952 0.939556 0.0874976 -0.263577 0.960662 
0.069958 -0.148831 0.986385 0.0147306 -0.0819238 0.99653 -0.0019964 -0.101693 0.994814 
0.0125721 -0.0463609 0.998846 -0.0381991 -0.128132 0.991021 -0.119416 -0.209909 0.970401 
-0.222084 -0.226963 0.948244 -0.369239 -0.345614 0.862678 0.208358 -0.671728 0.710892 
0.170391 -0.554251 0.814722 0.0569337 -0.475606 0.877814 0.0261308 -0.438353 0.898423 
-0.00838347 -0.420855 0.907089 -0.124828 -0.455204 0.881593 -0.175892 -0.53472 0.826521 
-0.350377 -0.676058 0.648214 0.179954 0.599661 0.779758 0.111206 0.676473 0.728023 
-0.0233501 0.698463 0.715265 -0.162654 0.621492 0.76635 0.248263 0.561061 0.789668 
0.135761 0.61287 0.778434 0.20763 0.886288 0.413984 0.0765938 0.559923 0.824997 
0.155031 0.798945 0.581078 0.177242 0.594715 0.784155 0.133528 0.527012 0.839303 
0.159795 0.681949 0.71373 -0.207295 0.572927 0.792958 -0.222524 0.527932 0.819616 
-0.224865 0.599141 0.768417 -0.206661 0.481492 0.851737 -0.234304 0.6304 0.740066 
-0.391932 0.734813 0.553569 0.260238 0.558008 0.787974 0.376803 0.484129 0.789708 
0.441132 0.646458 0.622491 -0.251134 0.479961 0.840577 -0.257107 0.476485 0.840749 
-0.262553 0.493139 0.829385 -0.359321 0.400881 0.842724 -0.44161 0.569639 0.693175 
0.458756 0.417707 0.78426 0.563272 0.315055 0.763849 0.624264 0.494142 0.605077 
-0.401116 0.385354 0.831028 -0.513037 0.275941 0.812803 -0.605157 0.475038 0.638846 
0.624928 0.197189 0.755368 -0.542798 0.22462 0.809269 -0.882981 0.339063 0.324623 
0.635426 0.0546087 0.770228 -0.527351 0.0272593 0.84921 -0.854458 0.131494 0.502605 
0.656893 -0.0124179 0.753881 0.979344 -0.0939839 0.179033 -0.474493 -0.0617489 0.878091 
-0.871513 -0.0772225 0.484254 0.685355 -0.101092 0.721158 -0.4827 -0.0652385 0.873353 
-0.527624 -0.119314 0.841057 -0.902669 -0.243031 0.35514 0.770595 -0.209895 0.60177 
0.744554 -0.294074 0.599299 -0.564162 -0.172895 0.807359 -0.575959 -0.175406 0.798438 
0.656909 -0.466802 0.592086 0.838534 -0.543906 -0.03204 0.594876 -0.583824 0.552514 
-0.45588 -0.287999 0.842158 -0.484306 -0.320292 0.814162 -0.767977 -0.486341 0.416755 
0.571819 -0.618594 0.538856 0.667549 -0.711268 0.220174 0.441305 -0.719181 0.536683 
0.316614 -0.804213 0.502988 -0.521562 -0.413647 0.746237 -0.428474 -0.580142 0.692708 
-0.63068 -0.526376 0.570238 0.311443 -0.809371 0.497918 0.322742 -0.837313 0.441299 
0.242641 -0.819062 0.519868 0.174448 -0.848598 0.499449 0.117051 -0.854781 0.505617 
0.0455786 -0.857757 0.51203 -0.0322914 -0.851961 0.522609 -0.108116 -0.83533 0.539013 
-0.230603 -0.810973 0.537722 -0.394976 -0.7063 0.587481 -0.366909 -0.733588 0.572038 
-0.484108 -0.864033 0.138152 -0.00347395 -0.996164 0.0874396 -0.122236 -0.992381 -0.0154395 
0.218766 0.923589 0.31484 0.195536 0.917642 0.345974 0.181543 0.916287 0.357016 
0.137224 0.932458 0.334202 0.0887618 0.966005 0.242809 0.0253771 0.975271 0.21955 
-0.0358861 0.951506 0.305529 0.047935 0.986053 -0.159378 -0.157182 0.892406 0.422973 
-0.105335 0.994305 -0.0161656 -0.271242 0.842926 0.464655 -0.407972 0.781249 0.472451 
0.486071 0.825914 0.285659 0.297723 0.905225 0.303197 0.351007 0.885772 0.303647 
-0.454706 0.762596 0.460097 -0.533888 0.718799 0.4453 0.618108 0.731692 0.287348 
0.714002 0.636958 0.290665 -0.635931 0.651371 0.413893 -0.694193 0.606049 0.388331 
0.815967 0.496983 0.295306 -0.773009 0.507772 0.380296 -0.88317 0.340393 0.322711 
0.930584 0.257953 0.259755 -0.884103 0.338739 0.321898 0.970939 0.0907705 0.221447 
0.976851 0.0589554 0.205638 -0.955487 0.125003 0.267244 0.986503 -0.0989314 0.130476 
0.984136 -0.1273 0.12358 0.99294 -0.11683 0.020512 -0.95663 -0.0729711 0.282019 
0.956968 -0.270432 0.10526 -0.935757 -0.240634 0.257786 -0.91951 -0.293623 0.26132 
0.926737 -0.375385 0.0156109 -0.885576 -0.398906 0.23797 0.838547 -0.543341 -0.0402396 
0.837947 -0.544252 -0.0404189 0.837908 -0.543937 -0.0451954 -0.841365 -0.509227 0.181089 
-0.809945 -0.565498 0.155569 0.680186 -0.729379 -0.0731702 0.658474 -0.748728 -0.0762747 
0.655484 -0.728657 -0.198494 0.488087 -0.868836 -0.0830325 -0.713821 -0.694122 0.0930287 
-0.641361 -0.764029 0.0701056 0.418254 -0.904855 -0.0793812 0.327663 -0.942967 -0.0587413 
0.343654 -0.87061 -0.35205 0.24415 -0.967717 -0.062575 0.185926 -0.980572 -0.0625345 
0.132419 -0.989235 -0.0622824 0.0657324 -0.996906 -0.0430952 -0.232992 -0.972467 -0.00473086 
-0.338692 -0.940739 0.0172665 -0.491132 -0.871017 0.0108952 -0.472301 -0.881418 0.0058184 
-0.475326 -0.872698 -0.111636 0.0623013 -0.997157 -0.0423781 0.00375919 -0.999603 -0.027935 
0.00190351 -0.995765 -0.0919118 -0.124445 -0.991949 -0.0234611 -0.122179 -0.99222 -0.0239046 
-0.121675 -0.992125 -0.0297076 0.0556981 0.976101 -0.21006 -0.0871696 0.988182 -0.12609 
0.254113 0.954618 -0.155343 0.229727 0.966828 -0.111667 0.190486 0.974854 -0.115653 
0.107069 0.983459 -0.146098 0.0157279 0.976064 -0.216912 0.0548758 0.97511 -0.214825 
0.0439898 0.964542 -0.260237 0.0568759 0.974228 -0.218277 -0.117822 0.986212 -0.116206 
-0.081175 0.982543 -0.167394 -0.267036 0.961242 -0.0685948 -0.425135 0.901912 -0.0762533 
0.500116 0.838837 -0.215025 0.361475 0.916833 -0.169569 0.377281 0.909769 -0.173145 
0.253413 0.884363 -0.392026 -0.577061 0.811736 -0.089917 -0.404651 0.715328 -0.569705 
-0.609122 0.786793 -0.099635 0.644854 0.733304 -0.215475 0.741292 0.6398 -0.202834 
0.480619 0.671622 -0.563852 -0.762347 0.637798 -0.109734 -0.49366 0.425836 -0.758263 
-0.769187 0.629283 -0.111147 0.858361 0.46477 -0.217268 0.66283 0.388113 -0.640332 
-0.861751 0.458073 -0.218071 -0.607901 0.224749 -0.761541 -0.904157 0.292137 -0.311698 
0.939018 0.222833 -0.261899 -0.549596 0.0819095 -0.831405 -0.905116 0.287037 -0.313648 
-0.90326 0.287129 -0.318871 0.955242 -0.00718471 -0.295738 -0.947114 0.100061 -0.304899 
-0.842052 0.0881617 -0.532143 0.907941 -0.170864 -0.382686 0.676587 -0.115116 -0.727309 
-0.9257 -0.103091 -0.363939 -0.869263 -0.120066 -0.479548 0.864552 -0.293829 -0.407694 
0.682074 -0.266547 -0.680976 -0.52054 -0.158744 -0.838951 -0.879443 -0.277889 -0.386468 
-0.870422 -0.295125 -0.394039 -0.864549 -0.280594 -0.41692 0.784098 -0.386404 -0.485677 
0.756667 -0.432339 -0.490446 0.730501 -0.392149 -0.559096 0.46889 -0.384167 -0.795335 
-0.811489 -0.409717 -0.416674 -0.619802 -0.332356 -0.710904 0.674297 -0.526134 -0.518177 
0.588099 -0.614361 -0.526023 0.525816 -0.478954 -0.702937 0.353126 -0.407247 -0.84229 
-0.454107 -0.426943 -0.781989 -0.708945 -0.536138 -0.458207 -0.703473 -0.539562 -0.4626 
-0.698504 -0.537098 -0.472883 0.524491 -0.669808 -0.525611 0.439395 -0.722092 -0.534336 
0.417661 -0.623899 -0.660537 0.33369 -0.784381 -0.522873 0.297138 -0.564729 -0.769929 
-0.437349 -0.743785 -0.50548 -0.384899 -0.532267 -0.754019 -0.60294 -0.626085 -0.494451 
-0.589571 -0.640142 -0.492569 -0.582422 -0.613304 -0.533519 0.297203 -0.814973 -0.497483 
0.232179 -0.845998 -0.47998 0.233166 -0.795006 -0.559998 0.172395 -0.861836 -0.476989 
0.177322 -0.759534 -0.625831 0.145827 -0.884108 -0.443946 0.152781 -0.720214 -0.67672 
0.0874097 -0.908933 -0.407677 -0.00663523 -0.914872 -0.403689 -0.0948424 -0.898733 -0.428117 
-0.141565 -0.676586 -0.722627 -0.219845 -0.86244 -0.455923 -0.206565 -0.699991 -0.683625 
-0.38317 -0.80164 -0.458862 -0.324102 -0.838026 -0.438941 -0.317682 -0.76219 -0.564043 
0.21654 0.710373 -0.669687 0.108323 0.729838 -0.674983 -0.00973042 0.689277 -0.724432 
-0.0495692 0.633505 -0.772149 0.00420642 0.585518 -0.810649 0.116698 0.59121 -0.798031 
0.0276009 0.690805 -0.722514 -0.209244 0.67865 -0.704025 0.32194 0.65138 -0.687065 
0.21735 0.711506 -0.668221 0.226282 0.716645 -0.65971 0.214759 0.704198 -0.676745 
0.104771 0.615336 -0.781271 -0.0246052 0.581436 -0.81322 -0.0619112 0.538935 -0.840069 
-9.7738e-05 0.525702 -0.850669 0.114244 0.506522 -0.854625 0.0333067 0.500349 -0.865183 
-0.340476 0.639541 -0.689249 -0.182446 0.546627 -0.817259 -0.371446 0.615304 -0.695291 
0.3935 0.608264 -0.689328 0.43871 0.560343 -0.70253 0.291224 0.56683 -0.770644 
0.166491 0.463605 -0.870259 0.0681135 0.382088 -0.921612 0.0330663 0.293491 -0.95539 
-0.0546453 0.195908 -0.979098 -0.0923756 0.182383 -0.978879 0.000583012 0.196022 -0.980599 
0.0935185 0.235273 -0.96742 0.0476214 0.204322 -0.977745 -0.112463 0.259678 -0.959124 
-0.491277 0.424008 -0.760831 -0.271339 0.315141 -0.909429 -0.491606 0.42291 -0.76123 
0.609642 0.374176 -0.698805 0.656309 0.24284 -0.714344 0.391753 0.351496 -0.850282 
0.210389 0.3056 -0.928625 0.0420146 0.248742 -0.967658 -0.00764039 0.201516 -0.979455 
-0.0806789 0.110269 -0.990622 -0.133016 0.0580274 -0.989414 -0.0934463 0.0573887 -0.993969 
0.042716 0.0490001 -0.997885 0.108546 0.0593047 -0.992321 0.0368367 0.0752916 -0.996481 
-0.0290567 0.0684357 -0.997232 -0.142752 0.139504 -0.979878 -0.567892 0.211788 -0.795389 
-0.372842 0.19097 -0.90803 0.676572 0.0949091 -0.730234 0.652188 0.0913557 -0.752533 
0.35652 0.137584 -0.924102 0.178868 0.0791881 -0.980681 -0.113958 0.0157745 -0.99336 
-0.112804 0.132337 -0.984765 -0.111187 0.220815 -0.968957 0.0100157 0.123355 -0.992312 
0.108761 0.0300258 -0.993614 0.0615444 -0.00217615 -0.998102 -0.0494371 -0.00421217 -0.998768 
-0.166055 -0.0117313 -0.986047 -0.530521 0.0755826 -0.844295 -0.339505 0.0292458 -0.94015 
-0.521333 0.0683635 -0.850611 0.667402 -0.0398066 -0.743633 0.665957 -0.0977895 -0.739553 
0.630184 -0.0410146 -0.775362 0.357355 -0.0395155 -0.933132 0.178914 -0.0544192 -0.982359 
-0.0139141 -0.0759025 -0.997018 -0.144325 0.0779934 -0.986452 -0.0180882 0.0427698 -0.998921 
0.00336926 -0.0350338 -0.99938 -0.0405073 -0.0634007 -0.997166 -0.125673 -0.0492522 -0.990848 
-0.242756 -0.0229174 -0.969817 -0.492811 0.043049 -0.869071 -0.442306 0.0341756 -0.896213 
0.661901 -0.112997 -0.741026 0.331228 -0.164498 -0.929101 0.177397 -0.153879 -0.972035 
0.0301841 -0.140746 -0.989586 -0.0944966 -0.0871109 -0.991707 0.0427303 -0.0071877 -0.999061 
-0.113011 -0.0121358 -0.99352 -0.00388357 0.0135845 -0.9999 -0.0449217 -0.0343875 -0.998398 
-0.0587919 -0.0516244 -0.996935 -0.134927 -0.0659399 -0.988659 -0.261954 -0.0805287 -0.961715 
-0.476255 -0.110211 -0.872373 -0.46464 -0.116942 -0.877744 -0.443105 -0.108496 -0.88988 
0.592069 -0.275568 -0.757309 0.454512 -0.377242 -0.806912 0.361878 -0.284239 -0.887836 
0.221256 -0.208927 -0.952573 0.0890882 -0.133924 -0.986979 0.0363432 -0.039745 -0.998549 
0.0807275 0.0948553 -0.992212 -0.086405 -0.00858449 -0.996223 -0.0406829 0.0132615 -0.999084 
-0.0613249 -0.0222742 -0.997869 -0.0719113 -0.0807035 -0.994141 -0.159445 -0.124634 -0.979308 
-0.45373 -0.144753 -0.879304 -0.296736 -0.140609 -0.944551 0.451441 -0.377688 -0.808426 
0.352432 -0.405123 -0.843603 0.307079 -0.310077 -0.899752 0.204928 -0.21554 -0.95475 
0.136586 -0.107393 -0.98479 0.00875975 -0.0459926 -0.998903 -0.155119 -0.128897 -0.979451 
-0.0639779 -0.12746 -0.989778 0.0929279 -0.0136776 -0.995579 -0.0168347 0.0040059 -0.99985 
-0.139323 -0.0264411 -0.989894 -0.161404 -0.12006 -0.979558 -0.198632 -0.193773 -0.960727 
-0.350868 -0.300766 -0.88681 -0.318649 -0.321073 -0.891838 -0.285682 -0.293745 -0.912195 
0.351646 -0.406367 -0.843333 0.297558 -0.49753 -0.814815 0.292058 -0.373373 -0.880508 
0.19578 -0.300037 -0.933621 0.0593152 -0.257137 -0.964553 -0.0622223 -0.14966 -0.986778 
-0.00908427 -0.0142048 -0.999858 0.0575385 -0.0464812 -0.997261 -0.0515602 -0.118899 -0.991567 
-0.181854 -0.140891 -0.97318 -0.239493 -0.22174 -0.945238 -0.354464 -0.332455 -0.873973 
-0.329552 -0.372243 -0.867658 -0.307355 -0.299261 -0.903314 0.273029 -0.540989 -0.795479 
0.249264 -0.577094 -0.777708 0.248399 -0.525161 -0.813944 0.180182 -0.627114 -0.757802 
0.158848 -0.490416 -0.85689 0.14206 -0.650245 -0.746325 0.0899107 -0.385109 -0.918481 
0.0448091 -0.274084 -0.960661 -0.0112464 -0.28991 -0.956988 -0.141127 -0.657893 -0.73977 
-0.108797 -0.354564 -0.928681 -0.224855 -0.563524 -0.794909 -0.24128 -0.393314 -0.88718 
-0.316018 -0.414776 -0.853284 -0.306362 -0.430703 -0.848904 -0.304983 -0.394993 -0.866583 
0.0930606 -0.668461 -0.737902 0.0872568 -0.668544 -0.738536 0.0869217 -0.664351 -0.74235 
-0.103972 -0.667496 -0.737319 -0.0192429 -0.675002 -0.737565 -0.0202069 -0.651251 -0.758593 
0.0357615 0.161119 -0.986287 -0.0528459 0.111439 -0.992365 0.14041 0.0838269 -0.986538 
0.0339233 0.0963949 -0.994765 -0.0888678 0.048578 -0.994858 -0.073977 0.0677256 -0.994958 
0.0471817 0.116022 -0.992125 -0.105221 0.184739 -0.977139 0.17113 -0.0545061 -0.98374 
0.0287422 -0.120225 -0.99233 0.0251455 -0.053976 -0.998226 -0.0633262 -0.0656372 -0.995832 
-0.0936555 -0.0700771 -0.993135 -0.0929012 -0.058982 -0.993927 0.0500546 0.0687492 -0.996377 
0.0690859 0.113772 -0.991102 -0.113504 0.156455 -0.981142 -0.104659 0.17647 -0.978726 
0.140244 0.00523417 -0.990103 0.154912 0.00726307 -0.987902 -0.147025 -0.0219195 -0.98889 
-0.154483 -0.0208109 -0.987776 0.0614039 -0.0344191 -0.997519 0.00709501 -0.0980034 -0.995161 
0.0545973 -0.0890857 -0.994526 -0.142885 -0.220833 -0.964788 -0.142186 -0.228146 -0.963189 
-0.144363 -0.229817 -0.962467 
