# vtk DataFile Version 4.2
vtk output
ASCII
DATASET POLYDATA
POINTS 554 float
45.7921 -15.6438 -21.6832 -24.1929 -41.8882 -15.4075 -15.4448 -41.8882 -17.0926 
-6.69668 -41.8882 -17.2308 2.05145 -41.8882 -16.8617 10.7996 -41.8882 -16.3394 
19.5477 -41.8882 -15.4817 28.2958 -41.8882 -14.0141 -41.6892 -33.1401 -15.5361 
-32.9411 -33.1401 -16.6869 -24.1929 -33.1401 -17.7042 -15.4448 -33.1401 -18.5726 
-6.69668 -33.1401 -19.2286 2.05145 -33.1401 -19.1267 10.7996 -33.1401 -17.9617 
19.5477 -33.1401 -17.2859 28.2958 -33.1401 -18.6301 37.044 -33.1401 -17.1178 
45.7921 -33.1401 -17.3264 54.5402 -33.1401 -14.8154 -50.4373 -24.3919 -16.8911 
-41.6892 -24.3919 -17.6161 -32.9411 -24.3919 -18.0345 -24.1929 -24.3919 -18.4641 
-15.4448 -24.3919 -18.2756 -6.69668 -24.3919 -19.1935 2.05145 -24.3919 -18.7002 
10.7996 -24.3919 -17.8503 19.5477 -24.3919 -17.9978 28.2958 -24.3919 -19.0385 
37.044 -24.3919 -19.3172 45.7921 -15.8914 -21.6164 45.7921 -24.3919 -19.3237 
54.5402 -24.3919 -18.484 63.2884 -24.3919 -14.7199 -59.1855 -15.6438 -15.6874 
-50.4373 -15.6438 -17.5082 -41.6892 -15.6438 -19.4313 -32.9411 -15.6438 -18.7038 
-24.1929 -15.6438 -17.7897 -15.4448 -15.6438 -17.1509 -6.69668 -15.6438 -18.1936 
2.05145 -15.6438 -17.3103 10.7996 -15.6438 -16.3829 19.5477 -15.6438 -17.8279 
28.2958 -15.6438 -19.3398 45.4131 -15.6438 -21.6164 37.044 -15.6438 -20.2476 
45.9806 -15.6438 -21.6164 45.7921 -15.3016 -21.6164 54.5402 -15.6438 -18.7294 
63.2884 -15.6438 -16.0185 -67.9336 -6.89567 -14.4191 -59.1855 -6.89567 -17.7139 
-50.4373 -6.89567 -18.4494 -41.6892 -6.89567 -18.72 -32.9411 -6.89567 -18.3399 
-24.1929 -6.89567 -16.7861 -15.4448 -6.89567 -17.6299 -6.69668 -6.89567 -20.3544 
2.05145 -6.89567 -16.4154 10.7996 -6.89567 -19.1024 19.5477 -6.89567 -17.6823 
28.2958 -6.89567 -18.8059 37.044 -6.89567 -20.0454 45.7921 -6.89567 -20.0952 
54.5402 -6.89567 -19.5903 63.2884 -6.89567 -19.0921 72.0365 -6.89567 -13.5099 
-67.9336 1.85246 -15.1941 -59.1855 1.85246 -18.1615 -50.4373 1.85246 -18.5167 
-41.6892 1.85246 -18.6065 -32.9411 1.85246 -18.1726 -24.1929 1.85246 -16.6238 
-15.4448 1.85246 -16.8212 -6.69668 1.85246 -19.0033 2.05145 1.85246 -13.904 
10.7996 1.85246 -20.4955 19.5477 1.85246 -16.3896 28.2958 1.85246 -17.855 
37.044 1.85246 -19.1907 45.7921 1.85246 -20.049 54.5402 1.85246 -18.544 
63.2884 1.85246 -16.7681 -67.9336 10.6006 -13.7607 -59.1855 10.6006 -16.741 
-50.4373 10.6006 -17.7321 -41.6892 10.6006 -18.7701 -32.9411 10.6006 -17.3854 
-24.1929 10.6006 -15.8013 -15.4448 10.6006 -14.521 -6.69668 10.6006 -17.1984 
2.05145 10.6006 -18.0301 10.7996 10.6006 -16.6282 19.5477 10.6006 -16.1731 
28.2958 10.6006 -17.3839 37.044 10.6006 -18.1743 45.7921 10.6006 -18.4162 
54.5402 10.6006 -17.5062 63.2884 10.6006 -14.5571 -59.1855 19.3487 -12.9632 
-50.4373 19.3487 -16.2431 -41.6892 19.3487 -16.1796 -32.9411 19.3487 -16.3937 
-24.1929 19.3487 -15.1346 -15.4448 19.3487 -14.6371 -6.69668 19.3487 -16.2326 
2.05145 19.3487 -15.7795 10.7996 19.3487 -15.5619 19.5477 19.3487 -16.8538 
28.2958 19.3487 -17.4717 37.044 19.3487 -17.9703 45.7921 19.3487 -16.3996 
54.5402 19.3487 -14.9396 63.2884 19.3487 -12.9967 -41.6892 28.0969 -14.0712 
-32.9411 28.0969 -14.3904 -24.1929 28.0969 -13.7554 -15.4448 28.0969 -14.1162 
-6.69668 28.0969 -14.8379 2.05145 28.0969 -14.4932 10.7996 28.0969 -15.1771 
19.5477 28.0969 -16.0534 28.2958 28.0969 -16.895 37.044 28.0969 -15.4264 
45.7921 28.0969 -13.9319 19.5477 36.845 -13.6732 28.2958 36.845 -13.7325 
-24.1929 -45.6997 -12.8683 -15.4448 -46.9825 -12.8683 -15.4448 -50.6363 -4.32654 
-6.69668 -47.8912 -12.8683 2.05145 -47.1907 -12.8683 10.7996 -45.8219 -12.8683 
19.5477 -45.9776 -12.8683 28.2958 -43.653 -12.8683 -41.6892 -37.6056 -12.8683 
-41.6892 -41.8882 -6.84848 -31.8922 -41.8882 -12.8683 -32.9411 -41.1347 -12.8683 
-32.9411 -41.8882 -12.2868 34.4866 -41.8882 -12.8683 37.044 -40.9216 -12.8683 
37.044 -41.8882 -11.6607 45.7921 -39.4088 -12.8683 54.5402 -35.2196 -12.8683 
-47.3377 -33.1401 -12.8683 -50.4373 -30.8351 -12.8683 -50.4373 -33.1401 -11.0365 
57.3138 -33.1401 -12.8683 63.2884 -27.0904 -12.8683 -57.9311 -24.3919 -12.8683 
-59.1855 -22.7839 -12.8683 -59.1855 -24.3919 -12.1031 65.7553 -24.3919 -12.8683 
-66.0351 -15.6438 -12.8683 -67.9336 -13.2358 -12.8683 -67.9336 -15.6438 -11.7732 
68.6901 -15.6438 -12.8683 72.0365 -9.16296 -12.8683 72.0365 -15.6438 -9.29633 
-70.0451 -6.89567 -12.8683 72.6961 -6.89567 -12.8683 72.0365 0.196034 -12.8683 
-71.3201 1.85246 -12.8683 -76.6817 1.85246 -6.17567 71.7156 1.85246 -12.8683 
72.0365 1.85246 -12.6729 -69.1775 10.6006 -12.8683 -67.9336 12.8825 -12.8683 
66.693 10.6006 -12.8683 72.0365 10.6006 -9.10139 -59.4335 19.3487 -12.8683 
-67.9336 19.3487 -8.77851 -59.1855 19.5767 -12.8683 -50.4373 25.9008 -12.8683 
54.5402 26.6916 -12.8683 63.4775 19.3487 -12.8683 63.2884 19.5535 -12.8683 
-59.1855 28.0969 -8.31608 -45.5951 28.0969 -12.8683 -50.4373 28.0969 -11.3656 
-41.6892 30.0972 -12.8683 -32.9411 32.5006 -12.8683 -24.1929 30.5799 -12.8683 
-15.4448 33.0739 -12.8683 -6.69668 34.0309 -12.8683 2.05145 33.8656 -12.8683 
10.7996 36.7311 -12.8683 37.044 34.1302 -12.8683 52.0772 28.0969 -12.8683 
45.7921 30.1785 -12.8683 54.5402 28.0969 -12.2361 -41.6892 36.845 -7.38934 
-32.9411 36.845 -10.301 -24.1929 36.845 -10.4994 -15.4448 36.845 -11.7399 
-6.69668 36.845 -11.858 2.05145 36.845 -11.9486 11.1345 36.845 -12.8683 
10.7996 36.845 -12.8337 19.5477 38.4363 -12.8683 32.1078 36.845 -12.8683 
28.2958 38.337 -12.8683 37.044 36.845 -11.3557 45.7921 36.845 -8.43884 
-15.4448 45.5931 -4.4885 -6.69668 45.5931 -5.26073 2.05145 45.5931 -5.76547 
10.7996 45.5931 -6.42319 19.5477 45.5931 -7.06575 28.2958 45.5931 -5.06384 
-15.4448 -50.6955 -4.12018 -41.6892 -42.8852 -4.12018 -32.9411 -46.9785 -4.12018 
-15.9694 -50.6363 -4.12018 -24.1929 -49.6869 -4.12018 -13.9205 -50.6363 -4.12018 
-15.4448 -50.6363 -3.94118 -6.69668 -50.3544 -4.12018 2.05145 -50.0296 -4.12018 
10.7996 -49.2492 -4.12018 19.5477 -48.615 -4.12018 28.2958 -47.3617 -4.12018 
37.044 -44.9326 -4.12018 -43.4433 -41.8882 -4.12018 -50.4373 -37.9037 -4.12018 
-41.6892 -41.8882 0.531538 45.542 -41.8882 -4.12018 37.044 -41.8882 1.85694 
45.7921 -41.7748 -4.12018 54.5402 -36.8633 -4.12018 -57.086 -33.1401 -4.12018 
-59.1855 -31.4228 -4.12018 59.9477 -33.1401 -4.12018 54.5402 -33.1401 2.70772 
63.2884 -30.3891 -4.12018 -66.79 -24.3919 -4.12018 -67.9336 -23.0423 -4.12018 
69.7314 -24.3919 -4.12018 72.0365 -20.7772 -4.12018 -73.535 -15.6438 -4.12018 
74.4932 -15.6438 -4.12018 72.0365 -15.6438 2.44689 -76.2628 -6.89567 -4.12018 
-76.6817 -5.05649 -4.12018 77.716 -6.89567 -4.12018 -77.989 1.85246 -4.12018 
-76.6817 7.68354 -4.12018 77.6353 1.85246 -4.12018 -75.882 10.6006 -4.12018 
75.4413 10.6006 -4.12018 72.0365 18.3531 -4.12018 -71.922 19.3487 -4.12018 
-67.9336 24.5405 -4.12018 71.4849 19.3487 -4.12018 63.2884 27.8609 -4.12018 
-64.1108 28.0969 -4.12018 -59.1855 31.6057 -4.12018 -50.4373 36.2351 -4.12018 
62.9705 28.0969 -4.12018 54.5402 34.1611 -4.12018 63.2884 28.0969 -2.4289 
-48.8448 36.845 -4.12018 -50.4373 36.845 -1.72498 -41.6892 39.5272 -4.12018 
-32.9411 42.0812 -4.12018 -24.1929 44.4234 -4.12018 37.044 43.347 -4.12018 
50.899 36.845 -4.12018 45.7921 39.8126 -4.12018 -17.3439 45.5931 -4.12018 
-24.1929 45.5931 -1.01875 -15.4448 45.8572 -4.12018 -6.69668 46.4411 -4.12018 
2.05145 46.8941 -4.12018 10.7996 47.2671 -4.12018 19.5477 47.3605 -4.12018 
30.1816 45.5931 -4.12018 28.2958 46.1262 -4.12018 -32.9411 -44.0637 4.62795 
-24.1929 -46.4989 4.62795 -15.4448 -46.9018 4.62795 -6.69668 -45.7368 4.62795 
2.05145 -44.9015 4.62795 10.7996 -43.8725 4.62795 19.5477 -43.0669 4.62795 
28.2958 -43.1812 4.62795 -50.4373 -35.4023 4.62795 -38.9842 -41.8882 4.62795 
-41.6892 -40.7446 4.62795 -32.9411 -41.8882 7.38023 -24.1929 -41.8882 9.31369 
-15.4448 -41.8882 9.55063 -6.69668 -41.8882 8.28278 2.05145 -41.8882 7.2386 
10.7996 -41.8882 6.40124 19.5477 -41.8882 5.7683 32.3453 -41.8882 4.62795 
28.2958 -41.8882 5.87671 37.044 -39.2883 4.62795 45.7921 -34.4926 4.62795 
-54.0118 -33.1401 4.62795 -59.1855 -29.831 4.62795 -50.4373 -33.1401 7.85212 
-41.6892 -33.1401 11.2925 -6.69668 -33.1401 13.1722 2.05145 -33.1401 11.7831 
10.7996 -33.1401 11.0114 19.5477 -33.1401 10.5288 28.2958 -33.1401 9.28142 
37.044 -33.1401 8.7939 49.7427 -33.1401 4.62795 45.7921 -33.1401 5.65392 
54.5402 -31.2035 4.62795 63.2884 -25.2081 4.62795 -65.5308 -24.3919 4.62795 
-67.9336 -21.6408 4.62795 -59.1855 -24.3919 12.1507 10.7996 -24.3919 13.1143 
19.5477 -24.3919 12.6722 28.2958 -24.3919 12.4909 37.044 -24.3919 12.1723 
45.7921 -24.3919 11.159 54.5402 -24.3919 8.99955 64.317 -24.3919 4.62795 
63.2884 -24.3919 5.28499 -72.5807 -15.6438 4.62795 -67.9336 -15.6438 10.1166 
54.5402 -15.6438 12.822 70.6142 -15.6438 4.62795 63.2884 -15.6438 9.88063 
72.0365 -13.7939 4.62795 -75.5538 -6.89567 4.62795 -76.6817 -2.27312 4.62795 
75.4778 -6.89567 4.62795 72.0365 -6.89567 8.11794 -77.4576 1.85246 4.62795 
-76.6817 5.7596 4.62795 -76.6817 1.85246 5.76043 76.0272 1.85246 4.62795 
72.0365 1.85246 9.2472 -75.4342 10.6006 4.62795 75.1848 10.6006 4.62795 
72.0365 17.845 4.62795 72.0365 10.6006 9.03094 -71.7529 19.3487 4.62795 
-67.9336 24.7999 4.62795 -67.9336 19.3487 9.49463 71.3724 19.3487 4.62795 
-64.9274 28.0969 4.62795 -59.1855 32.5601 4.62795 -59.1855 28.0969 11.0035 
54.5402 35.8073 4.62795 54.5402 28.0969 13.325 64.2626 28.0969 4.62795 
63.2884 29.0527 4.62795 63.2884 28.0969 5.98527 -52.6923 36.845 4.62795 
-50.4373 38.1635 4.62795 -50.4373 36.845 7.84709 -41.6892 42.1012 4.62795 
-32.9411 45.2194 4.62795 37.044 44.2424 4.62795 52.8524 36.845 4.62795 
45.7921 40.6863 4.62795 45.7921 36.845 10.819 -31.3616 45.5931 4.62795 
-24.1929 47.2401 4.62795 -24.1929 45.5931 9.53942 -15.4448 48.3198 4.62795 
-15.4448 45.5931 13.1373 -6.69668 48.9525 4.62795 2.05145 48.8784 4.62795 
10.7996 48.9649 4.62795 10.7996 45.5931 11.9878 19.5477 48.3329 4.62795 
19.5477 45.5931 9.74238 32.4472 45.5931 4.62795 28.2958 46.6802 4.62795 
28.2958 45.5931 6.59605 -32.9411 -34.8668 13.3761 -24.1929 -35.0893 13.3761 
[...]
POINT_DATA 554
SCALARS ImageScalars float
LOOKUP_TABLE default
0 0 0 0 0 0 0 0 0 
0 0 0 0 0 0 0 0 0 
0 0 0 0 0 0 0 0 0 
0 0 0 0 0 0 0 0 0 
0 0 0 0 0 0 0 0 0 
0 0 0 0 0 0 0 0 0 
0 0 0 0 0 0 0 0 0 
0 0 0 0 0 0 0 0 0 
0 0 0 0 0 0 0 0 0 
0 0 0 0 0 0 0 0 0 
0 0 0 0 0 0 0 0 0 
0 0 0 0 0 0 0 0 0 
0 0 0 0 0 0 0 0 0 
0 0 0 0 0 0 0 0 0 
0 0 0 0 0 0 0 0 0 
0 0 0 0 0 0 0 0 0 
0 0 0 0 0 0 0 0 0 
0 0 0 0 0 0 0 0 0 
0 0 0 0 0 0 0 0 0 
0 0 0 0 0 0 0 0 0 
0 0 0 0 0 0 0 0 0 
0 0 0 0 0 0 0 0 0 
0 0 0 0 0 0 0 0 0 
0 0 0 0 0 0 0 0 0 
0 0 0 0 0 0 0 0 0 
0 0 0 0 0 0 0 0 0 
0 0 0 0 0 0 0 0 0 
0 0 0 0 0 0 0 0 0 
0 0 0 0 0 0 0 0 0 
0 0 0 0 0 0 0 0 0 
0 0 0 0 0 0 0 0 0 
0 0 0 0 0 0 0 0 0 
0 0 0 0 0 0 0 0 0 
0 0 0 0 0 0 0 0 0 
0 0 0 0 0 0 0 0 0 
0 0 0 0 0 0 0 0 0 
0 0 0 0 0 0 0 0 0 
0 0 0 0 0 0 0 0 0 
0 0 0 0 0 0 0 0 0 
0 0 0 0 0 0 0 0 0 
0 0 0 0 0 0 0 0 0 
0 0 0 0 0 0 0 0 0 
0 0 0 0 0 0 0 0 0 
0 0 0 0 0 0 0 0 0 
0 0 0 0 0 0 0 0 0 
0 0 0 0 0 0 0 0 0 
0 0 0 0 0 0 0 0 0 
0 0 0 0 0 0 0 0 0 
0 0 0 0 0 0 0 0 0 
0 0 0 0 0 0 0 0 0 
0 0 0 0 0 0 0 0 0 
0 0 0 0 0 0 0 0 0 
0 0 0 0 0 0 0 0 0 
0 0 0 0 0 0 0 0 0 
0 0 0 0 0 0 0 0 0 
0 0 0 0 0 0 0 0 0 
0 0 0 0 0 0 0 0 0 
0 0 0 0 0 0 0 0 0 
0 0 0 0 0 0 0 0 0 
0 0 0 0 0 0 0 0 0 
0 0 0 0 0 0 0 0 0 
0 0 0 0 0 
NORMALS Normals float
-0.0885489 0.0367945 0.995392 0.210873 0.453238 0.866088 0.1112 0.397026 0.911046 
-0.0133767 0.433669 0.900973 -0.0483322 0.459639 0.88679 -0.0870627 0.449121 0.889219 
-0.136206 0.434722 0.890205 -0.16472 0.570102 0.804892 0.269407 0.395286 0.878162 
0.116287 0.259581 0.958694 0.0997251 0.165562 0.981144 0.0919731 0.0521896 0.994393 
0.0308554 0.103847 0.994115 -0.0722315 0.0921037 0.993126 -0.103448 0.0675763 0.992337 
0.0288315 0.142342 0.989398 0.000783448 0.278472 0.960444 -0.0757624 0.355319 0.93167 
-0.140921 0.456941 0.878263 -0.43981 0.614164 0.655264 0.270856 0.289567 0.918035 
0.0575775 0.196332 0.978846 0.0463409 0.107761 0.993096 0.0137338 0.00773539 0.999876 
0.04204 -0.0814523 0.99579 0.024588 -0.0594049 0.997931 -0.0776659 -0.102628 0.991683 
-0.0401365 -0.0873053 0.995373 0.0675681 0.0306038 0.997245 0.0768125 0.0381245 0.996316 
0.0159404 0.160732 0.986869 -0.0863879 0.0414033 0.995401 -0.0390217 0.21842 0.975074 
-0.261842 0.220667 0.939545 -0.517371 0.404311 0.754228 0.316104 0.281213 0.906089 
0.189828 0.0796013 0.978585 0.0665619 0.0594839 0.996008 -0.0920003 0.0193514 0.995571 
-0.0880107 -0.0893396 0.992105 0.0231622 -0.0444289 0.998744 0.010138 0.0475447 0.998818 
-0.10352 -0.130033 0.986091 0.0307046 0.029248 0.999101 0.1672 -0.0180117 0.985758 
0.137529 -0.0132689 0.990409 -0.0784688 0.0372744 0.99622 0.126354 0.0408361 0.991144 
-0.0925215 0.036831 0.995029 -0.0859206 0.0317197 0.995797 -0.269771 0.0568878 0.961243 
-0.430348 0.223291 0.87461 0.507527 0.169652 0.844769 0.274877 0.130802 0.952541 
0.0519045 0.0564324 0.997056 -0.00429111 -0.0455895 0.998951 -0.106479 -0.0317424 0.993808 
-0.0466337 -0.0698693 0.996466 0.210899 -0.00461687 0.977497 -0.112707 0.0815449 0.990277 
-0.0890961 -0.16025 0.983047 0.076745 0.23494 0.968975 0.00514835 -0.0824655 0.996581 
0.132357 -0.0836875 0.987663 0.0728124 -0.0599648 0.995541 -0.0251604 -0.086397 0.995943 
-0.0525911 -0.0109935 0.998556 -0.343564 0.0302853 0.938641 -0.663457 0.0785983 0.744075 
0.457972 -0.0394357 0.888091 0.235416 -0.0544367 0.970369 0.022946 -0.0409721 0.998897 
-0.0197058 0.00252759 0.999803 -0.114164 -0.0539185 0.991998 -0.0830553 -0.0555683 0.994994 
0.117682 -0.203916 0.97189 -0.127911 -0.204629 0.970446 0.0959315 0.147128 0.984454 
0.00602936 -0.171572 0.985153 -0.0808472 -0.0869178 0.99293 0.157615 -0.0802763 0.984232 
0.122945 -0.105833 0.986754 -0.0344019 -0.0904478 0.995307 -0.169833 -0.119895 0.978152 
-0.335367 -0.221685 0.915633 0.492702 -0.268325 0.827796 0.255943 -0.268619 0.928621 
0.103939 -0.134995 0.98538 -0.0204534 -0.135638 0.990547 -0.162286 -0.103849 0.981264 
-0.162979 -0.08465 0.982991 0.0679538 -0.0839866 0.994147 0.213036 -0.131685 0.968129 
-0.0295744 0.0325287 0.999033 -0.110872 -0.22509 0.968009 0.0462573 0.0267193 0.998572 
0.113721 -0.0216759 0.993276 0.0583832 -0.0692339 0.995891 -0.0408902 -0.203103 0.978303 
-0.193681 -0.178284 0.964729 -0.381158 -0.206059 0.901254 0.360337 -0.356566 0.861985 
0.148561 -0.307038 0.940031 0.00918068 -0.2484 0.968614 -0.0588889 -0.177115 0.982427 
-0.104831 -0.111332 0.988239 0.060523 -0.0223927 0.997916 0.0689399 -0.128716 0.989282 
-0.0391199 -0.20549 0.977877 0.0628111 -0.0757982 0.995143 0.108478 -0.00583579 0.994082 
0.0631853 -0.0254307 0.997678 -0.0569388 -0.147993 0.987348 -0.15675 -0.22348 0.962022 
-0.205925 -0.312831 0.927217 -0.426447 -0.384659 0.818646 0.156567 -0.394016 0.90567 
-0.0187219 -0.296554 0.954833 -0.0195681 -0.246975 0.968824 0.0589769 -0.152192 0.98659 
0.0212943 -0.233201 0.972195 0.0192701 -0.20132 0.979336 0.0880303 -0.146058 0.985352 
0.0935185 -0.172219 0.98061 -0.0330811 -0.212699 0.976558 -0.145124 -0.317137 0.93721 
-0.176313 -0.376852 0.909338 0.0488904 -0.379056 0.924081 -0.0980939 -0.44233 0.891472 
0.225649 0.665735 0.711252 0.0986387 0.75203 0.651706 0.0380982 0.999209 -0.0114272 
0.00934133 0.789206 0.614058 -0.0960245 0.766739 0.634737 -0.0576213 0.750402 0.658465 
-0.0916436 0.713126 0.69502 -0.19695 0.648256 0.73551 0.341043 0.576643 0.74241 
0.46268 0.850543 0.250005 0.279803 0.605989 0.744639 0.278446 0.593919 0.754803 
0.300149 0.649426 0.698682 -0.177763 0.686072 0.705482 -0.16562 0.70068 0.693986 
-0.204485 0.79521 0.570813 -0.290827 0.752304 0.59115 -0.457993 0.695359 0.553821 
0.377234 0.518796 0.767167 0.387468 0.510392 0.767703 0.453224 0.632863 0.627751 
-0.518502 0.647002 0.559056 -0.600607 0.497012 0.626299 0.456617 0.409813 0.789654 
0.449454 0.395092 0.801183 0.499782 0.446299 0.742317 -0.648346 0.447873 0.615676 
0.485288 0.358472 0.797492 0.530192 0.323989 0.783535 0.567996 0.394994 0.722053 
-0.579345 0.259537 0.772658 -0.669706 0.136065 0.730055 -0.809749 0.374143 0.452022 
0.586703 0.185455 0.788281 -0.686887 0.0809647 0.72224 -0.607174 -0.115611 0.786113 
0.578328 -0.0385375 0.814894 0.914452 -0.0222652 0.404081 -0.580605 -0.160689 0.798171 
-0.598827 -0.160081 0.784717 0.533756 -0.270501 0.801207 0.480444 -0.351537 0.803489 
-0.470811 -0.264297 0.841715 -0.720039 -0.402536 0.565251 0.363279 -0.360792 0.858986 
0.582506 -0.561762 0.587461 0.362215 -0.360742 0.859456 0.214951 -0.462286 0.860283 
-0.343534 -0.464073 0.816468 -0.432192 -0.387286 0.814383 -0.42994 -0.393274 0.812704 
0.437529 -0.664466 0.60585 0.200712 -0.448049 0.871187 0.251651 -0.536956 0.805202 
0.181432 -0.45399 0.872339 0.0324711 -0.440951 0.896944 -0.00630565 -0.309506 0.950877 
0.0666218 -0.290931 0.954422 0.0109591 -0.359873 0.932937 0.0402558 -0.329805 0.94319 
0.091984 -0.392749 0.915034 -0.202135 -0.476969 0.855361 -0.318636 -0.464126 0.826473 
-0.211899 -0.43485 0.875217 -0.381767 -0.508576 0.771754 0.243252 -0.739183 0.628043 
0.119177 -0.623152 0.772967 0.0694549 -0.494337 0.866491 0.071579 -0.422261 0.903644 
0.0103141 -0.434519 0.900603 0.049068 -0.412108 0.909813 0.0904648 -0.395358 0.914061 
0.0919689 -0.396617 0.913366 0.0465852 -0.441301 0.896149 -0.154052 -0.487782 0.859265 
-0.117522 -0.495304 0.860734 -0.242745 -0.591915 0.768578 -0.383726 -0.706926 0.594146 
0.10092 -0.850541 0.516135 0.053026 -0.829728 0.555644 0.0493621 -0.812601 0.580726 
0.0528706 -0.823776 0.564444 -0.0379264 -0.85508 0.517106 -0.208219 -0.911493 0.35472 
0.0369104 0.999073 -0.0221666 0.477205 0.876246 0.0668417 0.370922 0.925571 0.0757299 
0.0465594 0.998699 -0.0208101 0.204831 0.978788 0.00420044 0.024089 0.999097 -0.0350098 
0.0359495 0.998852 -0.0316701 -0.0376696 0.994612 -0.0965846 -0.0638866 0.992204 -0.107005 
-0.0807659 0.993274 -0.0829651 -0.108753 0.985786 -0.128061 -0.207419 0.974925 -0.0806128 
-0.319681 0.94385 -0.0833774 0.486933 0.870774 0.0681845 0.528086 0.841695 0.112581 
0.455926 0.866283 -0.204169 -0.433515 0.884935 -0.170162 -0.326927 0.795327 -0.510464 
-0.436124 0.883058 -0.17322 -0.503164 0.850962 -0.150631 0.611758 0.77912 0.136839 
0.636974 0.754856 0.156386 -0.604227 0.787127 -0.123858 -0.410923 0.716244 -0.564036 
-0.655753 0.749527 -0.0905342 0.736487 0.645254 0.203063 0.757465 0.62075 0.202278 
-0.77165 0.635857 -0.0155649 -0.848032 0.529532 0.0209008 0.86039 0.448909 0.241268 
-0.911149 0.41004 0.0409232 -0.781095 0.440254 -0.442794 0.934622 0.230478 0.270855 
0.943623 0.179163 0.278344 -0.978376 0.160829 0.130055 0.964264 -0.0196955 0.26421 
0.932679 -0.20692 0.295455 -0.974719 -0.121849 0.187286 0.908912 -0.298428 0.29124 
-0.907345 -0.350722 0.231773 -0.810262 -0.499728 0.306182 0.812183 -0.529004 0.245994 
0.700635 -0.634727 0.325933 -0.795653 -0.519001 0.312369 -0.607295 -0.706338 0.363703 
0.602167 -0.720473 0.343967 0.505756 -0.777085 0.374634 0.372052 -0.841237 0.392298 
-0.603169 -0.709685 0.364053 -0.523409 -0.769419 0.366112 -0.63671 -0.727158 0.256596 
0.354387 -0.843417 0.403805 0.416543 -0.873534 0.251853 0.288793 -0.827224 0.481975 
0.229349 -0.816621 0.52965 0.167871 -0.834631 0.524606 -0.336983 -0.87448 0.348896 
-0.485336 -0.797028 0.359437 -0.423961 -0.839955 0.338722 0.117029 -0.858298 0.499629 
0.178044 -0.933015 0.312704 0.10131 -0.860455 0.499354 0.0573596 -0.862114 0.503457 
0.0473501 -0.867105 0.49587 0.0266789 -0.891927 0.451392 -0.0647991 -0.932691 0.354808 
-0.238327 -0.920853 0.308593 -0.208958 -0.929337 0.304416 0.274188 0.829634 -0.486342 
0.135105 0.821868 -0.553425 -0.0319353 0.799543 -0.599759 -0.0921515 0.744619 -0.661098 
-0.080293 0.694168 -0.715321 -0.0787144 0.681826 -0.727267 -0.0292704 0.678898 -0.733649 
-0.144592 0.694396 -0.704916 0.470985 0.779919 -0.412188 0.362077 0.810474 -0.46047 
0.403378 0.793232 -0.456145 0.242109 0.76543 -0.596238 0.0852724 0.660779 -0.745721 
-0.0464702 0.610196 -0.790886 -0.110138 0.607918 -0.786324 -0.0854683 0.600688 -0.794902 
-0.0684179 0.620309 -0.781368 -0.0247323 0.639717 -0.768212 -0.213336 0.670522 -0.710555 
-0.142843 0.625869 -0.766736 -0.279431 0.635345 -0.719899 -0.275155 0.620291 -0.734527 
0.500469 0.7685 -0.39867 0.56373 0.742015 -0.362798 0.424523 0.716595 -0.553418 
0.275602 0.597057 -0.75337 -0.130363 0.328056 -0.93562 -0.113222 0.33888 -0.933992 
-0.0665096 0.325283 -0.943275 -0.0919524 0.317528 -0.94378 -0.0862208 0.364893 -0.927049 
-0.164852 0.477369 -0.863101 -0.305505 0.640619 -0.704468 -0.251813 0.611146 -0.750394 
-0.362181 0.637278 -0.680222 -0.461069 0.576796 -0.674331 0.680479 0.646698 -0.344573 
0.72371 0.589618 -0.3586 0.449342 0.522253 -0.724806 -0.0758806 0.20607 -0.975591 
-0.0346235 0.218306 -0.975266 -0.0261707 0.298264 -0.954125 -0.0737961 0.311045 -0.947526 
-0.142933 0.412155 -0.899832 -0.325585 0.505593 -0.798981 -0.492461 0.561523 -0.664962 
-0.443674 0.553396 -0.704916 0.807866 0.457832 -0.371138 0.616827 0.452049 -0.644342 
-0.215948 0.306423 -0.927077 -0.669002 0.417543 -0.614894 -0.464646 0.443341 -0.76652 
-0.700738 0.392929 -0.59546 0.900155 0.233498 -0.367694 0.918461 0.107813 -0.380533 
-0.824448 0.267718 -0.498611 -0.638006 0.282639 -0.716284 0.928973 -0.00637071 -0.370094 
0.916551 -0.134306 -0.376692 0.900672 -0.00669881 -0.434448 -0.91244 -0.0174624 -0.408839 
-0.682382 0.0498077 -0.729297 0.890587 -0.283883 -0.355339 -0.91352 -0.264971 -0.308662 
-0.843217 -0.427721 -0.325638 -0.778291 -0.248543 -0.576619 0.809406 -0.482087 -0.335342 
0.737719 -0.603734 -0.302119 0.697144 -0.493902 -0.519664 -0.830511 -0.456254 -0.319506 
0.679798 -0.683639 -0.265541 0.59149 -0.776042 -0.218857 0.526545 -0.548378 -0.64964 
-0.530999 -0.832409 -0.15854 -0.432239 -0.471307 -0.768791 -0.683677 -0.701711 -0.200468 
-0.672006 -0.714995 -0.192847 -0.67004 -0.687901 -0.278996 0.515564 -0.848671 -0.118113 
0.484332 -0.869899 -0.0932658 0.495191 -0.812038 -0.308836 0.375253 -0.923141 -0.0836433 
0.285427 -0.957825 -0.0332225 -0.330546 -0.92552 -0.184803 -0.504013 -0.84801 -0.163857 
-0.409228 -0.890927 -0.196933 -0.354298 -0.753291 -0.554099 0.264586 -0.963858 -0.0311906 
0.172619 -0.984894 -0.013632 0.191355 -0.928269 -0.318904 0.0963509 -0.995274 -0.012082 
0.0857365 -0.840195 -0.535465 0.0318063 -0.999145 -0.0264263 0.000710926 -0.998818 -0.048606 
-0.0318927 -0.995356 -0.090829 -0.119719 -0.785886 -0.606672 -0.128695 -0.974822 -0.182099 
-0.163857 -0.848934 -0.502455 -0.277902 -0.938166 -0.206436 -0.226773 -0.946498 -0.229598 
-0.216668 -0.920364 -0.325554 0.150647 0.4746 -0.867214 0.0048302 0.435164 -0.900338 
-0.0593287 0.405884 -0.911997 0.249461 0.482515 -0.839612 0.174746 0.478267 -0.860653 
0.216466 0.50985 -0.832584 0.131994 0.427603 -0.894278 -0.00341211 0.38639 -0.922329 
-0.118422 0.333138 -0.935412 -0.0665745 0.36065 -0.930322 -0.132727 0.316564 -0.93924 
-0.118213 0.273027 -0.954716 0.329912 0.474394 -0.816155 0.411902 0.415197 -0.81114 
0.22798 0.445375 -0.865832 0.151137 0.384912 -0.910495 0.0444601 0.309262 -0.949937 
-0.0495751 0.257772 -0.964933 -0.112508 0.195667 -0.974195 -0.144965 0.23756 -0.960495 
-0.0878445 0.218459 -0.971884 -0.118539 0.255273 -0.959575 -0.0790955 0.226005 -0.97091 
-0.017512 0.222594 -0.974754 -0.00898833 0.269225 -0.963035 -0.0483045 0.279597 -0.958902 
-0.119516 0.332009 -0.935674 0.443161 0.332572 -0.832469 0.557068 0.286757 -0.779388 
0.378073 0.284259 -0.881055 0.223944 0.243029 -0.943815 0.111961 0.19511 -0.97437 
-0.0121191 0.159974 -0.987047 -0.103805 0.11732 -0.987654 -0.0793282 0.133404 -0.987882 
-0.0604241 0.319916 -0.945517 -0.155906 0.257068 -0.953735 -0.108553 0.334057 -0.936281 
0.00805796 0.245155 -0.96945 0.0150915 0.222081 -0.974912 -0.0215123 0.247683 -0.968602 
-0.18182 0.299804 -0.936514 -0.113745 0.291164 -0.949887 -0.196593 0.291825 -0.93605 
-0.382654 0.250071 -0.889405 0.583027 0.229798 -0.779277 0.552332 0.221724 -0.803597 
0.312759 0.174523 -0.933661 0.128089 0.109103 -0.985743 0.0519927 0.0474308 -0.99752 
-0.0381728 0.00640145 -0.999251 -0.081011 0.0193813 -0.996525 0.0780903 0.114447 -0.990355 
-0.0191123 0.174164 -0.984531 -0.112646 0.0788667 -0.9905 -0.080955 0.200623 -0.976318 
-0.146858 0.0973149 -0.984359 -0.0110776 0.131407 -0.991267 0.00931768 0.173909 -0.984718 
-0.0623276 0.195591 -0.978703 -0.148654 0.247788 -0.957342 -0.384382 0.193742 -0.902615 
-0.353002 0.171237 -0.919819 0.593081 -0.00891686 -0.805093 0.503949 -0.00825495 -0.863694 
0.280862 -0.0119577 -0.959674 0.0879763 -0.0242666 -0.995827 0.0133638 -0.0177533 -0.999753 
-0.0404693 -0.00281806 -0.999177 0.0025607 0.0892139 -0.996009 0.0831001 0.194277 -0.97742 
-0.0868895 0.0458442 -0.995163 -0.132176 0.192645 -0.972326 -0.129498 0.0988725 -0.986638 
-0.054953 0.0699115 -0.996038 0.0933327 0.133448 -0.986651 0.0425885 0.125333 -0.9912 
-0.0359616 0.13421 -0.9903 -0.221376 0.106616 -0.969343 -0.409896 0.00748265 -0.912102 
-0.389754 0.00121346 -0.920918 0.573773 -0.253063 -0.778938 0.571808 -0.299251 -0.763862 
0.550856 -0.232766 -0.801485 0.295273 -0.201615 -0.933898 0.127206 -0.133567 -0.982842 
0.0732556 -0.0354974 -0.996681 0.0722628 0.0668922 -0.99514 0.112616 0.175193 -0.978072 
-0.0401696 0.0374836 -0.99849 -0.0502568 0.147417 -0.987797 -0.201853 0.123924 -0.971544 
-0.09813 0.217101 -0.971204 0.0436482 0.141178 -0.989022 0.0111969 0.084655 -0.996347 
-0.0911867 0.0407629 -0.994999 -0.237861 0.0323809 -0.970759 -0.461562 -0.0519323 -0.885586 
-0.405694 -0.0244689 -0.913681 0.431049 -0.338401 -0.83647 0.413762 -0.353616 -0.838902 
0.3629 -0.30412 -0.880803 0.274787 -0.182769 -0.943975 0.201665 -0.105323 -0.973775 
0.16757 -0.00154743 -0.985859 -0.0935769 -0.0234979 -0.995335 -0.0294975 -0.0423928 -0.998666 
-0.0699649 -0.0151584 -0.997434 -0.0749547 0.0862368 -0.993451 -0.033732 0.0289265 -0.999012 
-0.0564704 -0.00609963 -0.998386 -0.0752226 -0.108503 -0.991246 -0.42988 -0.467688 -0.772315 
-0.29586 -0.182569 -0.937622 -0.526563 -0.239792 -0.815617 -0.523983 -0.246839 -0.815176 
-0.520789 -0.235382 -0.820594 0.416902 -0.423239 -0.804401 0.393857 -0.486017 -0.780169 
0.349483 -0.364868 -0.862979 0.245635 -0.309293 -0.918695 0.226981 -0.187047 -0.955768 
0.122702 -0.170544 -0.97768 -0.0954273 -0.0925384 -0.991126 -0.0451673 -0.127764 -0.990776 
-0.0593004 -0.164383 -0.984612 -0.0701343 -0.157453 -0.985033 -0.0537395 -0.169425 -0.984077 
-0.121439 -0.260402 -0.957833 -0.429568 -0.468465 -0.772018 -0.311547 -0.599601 -0.737168 
-0.258247 -0.325132 -0.909724 0.334504 -0.596474 -0.729607 0.333597 -0.596927 -0.729652 
0.3334 -0.59554 -0.730874 0.291847 -0.734782 -0.612308 0.283974 -0.497823 -0.81947 
0.182051 -0.783233 -0.594478 0.122057 -0.478564 -0.869528 0.0843212 -0.829006 -0.552846 
0.0361331 -0.419947 -0.906829 -0.051889 -0.356193 -0.932971 -0.0936132 -0.349398 -0.932286 
-0.128842 -0.687962 -0.714218 -0.0980088 -0.394698 -0.913569 -0.137887 -0.638703 -0.756998 
-0.0713556 -0.438854 -0.895721 -0.158814 -0.667872 -0.727135 -0.139036 -0.482277 -0.864915 
-0.285565 -0.614908 -0.735079 -0.264516 -0.61097 -0.746155 -0.253681 -0.563554 -0.786163 
0.0597437 -0.824091 -0.563299 0.0155352 -0.81123 -0.584521 0.0146955 -0.804448 -0.593842 
-0.0664352 -0.771957 -0.632194 -0.0466671 -0.788826 -0.612842 -0.0490927 -0.778642 -0.625545 
0.0328507 0.160618 -0.98647 0.0408962 0.160613 -0.98617 0.103743 0.0752475 -0.991754 
0.0078671 0.121476 -0.992563 0.028769 0.157621 -0.987081 0.118421 0.0263136 -0.992615 
0.114735 -0.095406 -0.988804 0.100051 0.0358094 -0.994338 -0.0760542 -0.00943268 -0.997059 
-0.0461677 0.011067 -0.998872 0.072354 -0.165738 -0.983512 -0.0532834 -0.133397 -0.989629 
-0.0195914 -0.193975 -0.980811 -0.0307816 -0.156614 -0.98718 
