# vtk DataFile Version 4.2
vtk output
ASCII
DATASET POLYDATA
POINTS 566 float
48.6851 -1.21096 -17.4619 48.6851 6.26346 -17.8277 33.7362 13.7379 -16.8853 
-18.5847 -31.1087 -10.3526 -11.1103 -31.1087 -10.4414 -3.63588 -31.1087 -9.44408 
11.313 -31.1087 -9.52238 18.7874 -31.1087 -10.1125 26.2618 -31.1087 -9.81606 
33.7362 -31.1087 -10.2478 -33.5336 -23.6342 -9.72323 -26.0592 -23.6342 -11.2576 
-18.5847 -23.6342 -12.5444 -11.1103 -23.6342 -12.4525 -3.63588 -23.6342 -12.0723 
3.83854 -23.6342 -11.9257 11.313 -23.6342 -11.9878 18.7874 -23.6342 -12.4819 
26.2618 -23.6342 -12.5822 33.7362 -23.6342 -12.6457 41.2107 -23.6342 -11.3982 
48.6851 -23.6342 -9.93329 -41.008 -16.1598 -10.3821 -33.5336 -16.1598 -11.9164 
-26.0592 -16.1598 -12.5193 -18.5847 -16.1598 -13.0966 -11.1103 -16.1598 -12.8139 
-3.63588 -16.1598 -12.3685 3.83854 -16.1598 -13.1754 11.313 -16.1598 -12.7556 
18.7874 -16.1598 -13.5306 26.2618 -16.1598 -14.0111 33.7362 -16.1598 -14.5246 
41.2107 -16.1598 -14.0087 48.6851 -16.1598 -12.3549 56.1595 -16.1598 -9.97592 
-48.4824 -8.68539 -10.502 -41.008 -8.68539 -12.6394 -33.5336 -8.68539 -12.9865 
-26.0592 -8.68539 -13.1998 -18.5847 -8.68539 -13.4105 -11.1103 -8.68539 -12.9189 
-3.63588 -8.68539 -11.6544 3.83854 -8.68539 -12.6547 11.313 -8.68539 -12.4801 
18.7874 -8.68539 -13.8266 26.2618 -8.68539 -14.802 33.7362 -8.68539 -15.1405 
41.2107 -8.68539 -15.1076 48.6851 -4.78357 -16.7537 48.6851 -8.68539 -15.4824 
56.1595 -8.68539 -12.4862 -55.9568 -1.21096 -9.85419 -48.4824 -1.21096 -12.0694 
-41.008 -1.21096 -13.4943 -33.5336 -1.21096 -14.2879 -26.0592 -1.21096 -14.0727 
-18.5847 -1.21096 -13.7791 -11.1103 -1.21096 -14.838 -3.63588 -1.21096 -14.0063 
3.83854 -1.21096 -11.4671 11.313 -1.21096 -14.5284 18.7874 -1.21096 -12.9324 
26.2618 -1.21096 -14.1956 33.7362 -1.21096 -15.1845 45.3014 -1.21096 -16.7537 
41.2107 -1.21096 -15.581 50.3519 -1.21096 -16.7537 56.1595 -1.21096 -12.6186 
-55.9568 6.26346 -11.0483 -48.4824 6.26346 -12.836 -41.008 6.26346 -14.1285 
-33.5336 6.26346 -14.7178 -26.0592 6.26346 -14.7687 -18.5847 6.26346 -13.6704 
-11.1103 6.26346 -13.2977 -3.63588 6.26346 -14.2491 3.83854 6.26346 -15.5485 
11.313 6.26346 -15.8324 18.7874 6.26346 -12.824 26.2618 6.26346 -14.2503 
33.7362 13.2017 -16.7537 33.7362 6.26346 -15.0987 44.1522 6.26346 -16.7537 
41.2107 6.26346 -15.7281 51.541 6.26346 -16.7537 48.6851 13.0651 -16.7537 
56.1595 6.26346 -13.6082 63.6339 6.26346 -9.70784 -55.9568 13.7379 -9.59293 
-48.4824 13.7379 -12.387 -41.008 13.7379 -14.0703 -33.5336 13.7379 -15.5287 
-26.0592 13.7379 -15.1798 -18.5847 13.7379 -14.6139 -11.1103 13.7379 -14.2228 
-3.63588 13.7379 -14.9531 3.83854 13.7379 -13.8718 11.313 13.7379 -13.4996 
18.7874 13.7379 -13.7873 33.3128 13.7379 -16.7537 26.2618 13.7379 -14.6256 
34.3812 13.7379 -16.7537 33.7362 14.8365 -16.7537 41.2107 13.7379 -15.36 
48.6851 13.7379 -16.5613 56.1595 13.7379 -12.9286 -48.4824 21.2123 -11.5259 
-41.008 21.2123 -14.3425 -33.5336 21.2123 -14.6337 -26.0592 21.2123 -14.9325 
-18.5847 21.2123 -14.9941 -11.1103 21.2123 -14.4906 -3.63588 21.2123 -14.5488 
3.83854 21.2123 -14.5524 11.313 21.2123 -14.5248 18.7874 21.2123 -15.1144 
26.2618 21.2123 -15.0893 33.7362 21.2123 -15.9586 41.2107 21.2123 -14.0333 
48.6851 21.2123 -13.8207 56.1595 21.2123 -10.3941 -41.008 28.6867 -11.8326 
-33.5336 28.6867 -14.2536 -26.0592 28.6867 -13.7846 -18.5847 28.6867 -14.7174 
-11.1103 28.6867 -14.0876 -3.63588 28.6867 -14.4112 3.83854 28.6867 -14.7535 
11.313 28.6867 -14.8253 18.7874 28.6867 -14.7677 26.2618 28.6867 -15.349 
33.7362 28.6867 -14.2663 41.2107 28.6867 -13.6265 48.6851 28.6867 -10.4922 
-33.5336 36.1612 -10.11 -26.0592 36.1612 -11.1148 -18.5847 36.1612 -11.9683 
-11.1103 36.1612 -12.8901 -3.63588 36.1612 -13.075 3.83854 36.1612 -13.7325 
11.313 36.1612 -13.7125 18.7874 36.1612 -13.514 26.2618 36.1612 -13.6076 
33.7362 36.1612 -11.6694 3.83854 43.6356 -9.30402 -26.0592 -38.5831 -3.74227 
-18.5847 -33.232 -9.27926 -18.5847 -38.5831 -6.03104 -11.1103 -33.3411 -9.27926 
-11.1103 -38.5831 -6.1213 -3.63588 -31.4198 -9.27926 -3.63588 -38.5831 -4.7837 
3.83854 -38.5831 -3.28303 11.313 -31.5138 -9.27926 11.313 -38.5831 -2.97792 
18.7874 -32.3741 -9.27926 18.7874 -38.5831 -2.45531 26.2618 -31.8726 -9.27926 
26.2618 -38.5831 -2.45319 33.7362 -32.3129 -9.27926 -41.008 -31.1087 -2.02613 
-33.5336 -24.7848 -9.27926 -33.5336 -31.1087 -6.63258 -24.0873 -31.1087 -9.27926 
-26.0592 -29.9171 -9.27926 -26.0592 -31.1087 -8.85066 -0.594509 -31.1087 -9.27926 
7.53089 -31.1087 -9.27926 3.83854 -30.5117 -9.27926 3.83854 -31.1087 -9.02321 
36.7817 -31.1087 -9.27926 41.2107 -27.6607 -9.27926 41.2107 -31.1087 -7.00074 
48.6851 -24.5649 -9.27926 -48.4824 -23.6342 -3.31176 -35.4949 -23.6342 -9.27926 
-41.008 -19.6618 -9.27926 -41.008 -23.6342 -7.71945 49.7693 -23.6342 -9.27926 
56.1595 -17.3098 -9.27926 -55.9568 -16.1598 -4.30614 -45.8494 -16.1598 -9.27926 
-48.4824 -13.7053 -9.27926 -48.4824 -16.1598 -8.51355 57.1385 -16.1598 -9.27926 
-51.9332 -8.68539 -9.27926 -55.9568 -2.8761 -9.27926 -55.9568 -8.68539 -7.78328 
61.1602 -8.68539 -9.27926 63.6339 -8.68539 -3.08701 -57.131 -1.21096 -9.27926 
-63.4313 -1.21096 -3.03563 62.845 -1.21096 -9.27926 63.6339 3.21248 -9.27926 
63.6339 -1.21096 -8.00184 -57.352 6.26346 -9.27926 -63.4313 6.26346 -1.82072 
63.8932 6.26346 -9.27926 63.6339 7.27418 -9.27926 -56.4921 13.7379 -9.27926 
-55.9568 14.2191 -9.27926 61.7003 13.7379 -9.27926 -51.953 21.2123 -9.27926 
-55.9568 21.2123 -3.81298 -48.4824 25.4594 -9.27926 57.7211 21.2123 -9.27926 
56.1595 23.1038 -9.27926 -45.3838 28.6867 -9.27926 -48.4824 28.6867 -4.44231 
-41.008 32.1998 -9.27926 41.2107 34.0997 -9.27926 50.5528 28.6867 -9.27926 
48.6851 30.0078 -9.27926 -35.1062 36.1612 -9.27926 -33.5336 37.0497 -9.27926 
-26.0592 38.488 -9.27926 -18.5847 41.1301 -9.27926 -11.1103 43.1307 -9.27926 
-3.63588 42.7557 -9.27926 11.313 43.3018 -9.27926 18.7874 42.6614 -9.27926 
26.2618 39.9062 -9.27926 38.3427 36.1612 -9.27926 33.7362 38.373 -9.27926 
-18.5847 43.6356 -4.74375 -11.1103 43.6356 -8.32262 3.57622 43.6356 -9.27926 
-3.63588 43.6356 -8.04491 4.44287 43.6356 -9.27926 3.83854 43.6559 -9.27926 
11.313 43.6356 -8.31225 -26.0592 -40.6317 -1.80483 -18.5847 -42.4877 -1.80483 
-11.1103 -42.6617 -1.80483 -11.1103 -46.0575 5.15664 -3.63588 -41.9167 -1.80483 
3.83854 -40.0438 -1.80483 11.313 -39.3747 -1.80483 18.7874 -38.9364 -1.80483 
26.2618 -38.9728 -1.80483 -41.008 -31.3763 -1.80483 -29.7006 -38.5831 -1.80483 
-33.5336 -36.5825 -1.80483 -33.5336 -38.5831 3.3149 28.6428 -38.5831 -1.80483 
26.2618 -38.5831 2.19494 33.7362 -37.7184 -1.80483 41.2107 -34.9224 -1.80483 
-41.286 -31.1087 -1.80483 -48.4824 -25.2702 -1.80483 47.5242 -31.1087 -1.80483 
48.6851 -30.3052 -1.80483 -50.5499 -23.6342 -1.80483 -55.9568 -17.8978 -1.80483 
55.4632 -23.6342 -1.80483 56.1595 -22.771 -1.80483 -57.4549 -16.1598 -1.80483 
60.6093 -16.1598 -1.80483 56.1595 -16.1598 5.34772 63.6339 -9.59632 -1.80483 
-61.7158 -8.68539 -1.80483 -63.4313 -2.72816 -1.80483 64.0295 -8.68539 -1.80483 
63.6339 -8.68539 -1.14865 -63.8682 -1.21096 -1.80483 65.224 -1.21096 -1.80483 
63.6339 -1.21096 0.391487 -63.4418 6.26346 -1.80483 -63.4313 6.31974 -1.80483 
-63.4313 6.26346 -1.62336 65.3861 6.26346 -1.80483 63.6339 11.0433 -1.80483 
63.6339 6.26346 0.416519 -61.8381 13.7379 -1.80483 48.6851 13.7379 5.11105 
61.4009 13.7379 -1.80483 56.1595 13.7379 3.10744 -57.1411 21.2123 -1.80483 
-55.9568 22.6796 -1.80483 -55.9568 21.2123 3.34986 41.2107 21.2123 4.55738 
48.6851 21.2123 3.54519 57.9526 21.2123 -1.80483 56.1595 23.0567 -1.80483 
56.1595 21.2123 -0.445268 -49.9232 28.6867 -1.80483 -48.4824 30.0519 -1.80483 
-48.4824 28.6867 1.98768 -41.008 35.7492 -1.80483 26.2618 28.6867 4.61449 
33.7362 28.6867 4.55678 41.2107 31.8833 -1.80483 41.2107 28.6867 0.564471 
49.4931 28.6867 -1.80483 48.6851 29.2415 -1.80483 48.6851 28.6867 -1.22349 
-40.3176 36.1612 -1.80483 -33.5336 39.828 -1.80483 -26.0592 42.9023 -1.80483 
18.7874 42.0447 -1.80483 18.7874 36.1612 3.01564 26.2618 39.5881 -1.80483 
26.2618 36.1612 1.96179 35.1406 36.1612 -1.80483 33.7362 36.6959 -1.80483 
33.7362 36.1612 -1.25823 -22.9403 43.6356 -1.80483 -18.5847 44.5346 -1.80483 
-18.5847 43.6356 0.54188 -11.1103 45.5456 -1.80483 -11.1103 43.6356 2.75881 
-3.63588 45.8865 -1.80483 -3.63588 43.6356 3.26973 3.83854 45.5372 -1.80483 
3.83854 43.6356 1.94666 15.4247 43.6356 -1.80483 11.313 44.8872 -1.80483 
11.313 43.6356 0.450155 -11.1103 -46.2709 5.66959 -33.5336 -39.3873 5.66959 
-26.0592 -43.5225 5.66959 -16.7192 -46.0575 5.66959 -18.5847 -45.9829 5.66959 
-9.97917 -46.0575 5.66959 -11.1103 -46.0575 6.34445 -3.63588 -44.829 5.66959 
3.83854 -41.9735 5.66959 11.313 -39.8415 5.66959 18.7874 -39.0632 5.66959 
-34.7737 -38.5831 5.66959 -41.008 -34.2213 5.66959 -33.5336 -38.5831 7.40972 
3.83854 -38.5831 11.1748 11.313 -38.5831 7.5239 23.1071 -38.5831 5.66959 
18.7874 -38.5831 6.37474 26.2618 -38.1836 5.66959 33.7362 -36.9375 5.66959 
41.2107 -33.0644 5.66959 -45.1002 -31.1087 5.66959 -48.4824 -27.9607 5.66959 
-41.008 -31.1087 10.264 18.7874 -31.1087 12.3077 26.2618 -31.1087 13.0473 
33.7362 -31.1087 10.7831 44.6223 -31.1087 5.66959 41.2107 -31.1087 7.68249 
48.6851 -26.0786 5.66959 -53.2669 -23.6342 5.66959 -55.9568 -19.8587 5.66959 
-48.4824 -23.6342 10.0287 33.7362 -23.6342 12.8373 41.2107 -23.6342 11.3678 
50.0775 -23.6342 5.66959 48.6851 -23.6342 6.57084 -58.252 -16.1598 5.66959 
-55.9568 -16.1598 8.97993 33.7362 -16.1598 12.9937 41.2107 -16.1598 11.4759 
55.7981 -16.1598 5.66959 48.6851 -16.1598 10.5282 56.1595 -15.597 5.66959 
-62.1632 -8.68539 5.66959 -63.4313 -4.3972 5.66959 -55.9568 -8.68539 10.4965 
33.7362 -8.68539 11.7865 41.2107 -8.68539 10.6395 48.6851 -8.68539 9.79288 
58.8542 -8.68539 5.66959 56.1595 -8.68539 7.48159 -64.1254 -1.21096 5.66959 
-63.4313 3.44883 5.66959 -63.4313 -1.21096 6.59244 -55.9568 -1.21096 11.2947 
3.83854 -1.21096 12.2622 18.7874 -1.21096 12.4151 26.2618 -1.21096 10.5975 
33.7362 -1.21096 10.5529 41.2107 -1.21096 9.65132 48.6851 -1.21096 8.62719 
[...]
POINT_DATA 566
SCALARS ImageScalars float
LOOKUP_TABLE default
0 0 0 0 0 0 0 0 0 
0 0 0 0 0 0 0 0 0 
0 0 0 0 0 0 0 0 0 
0 0 0 0 0 0 0 0 0 
0 0 0 0 0 0 0 0 0 
0 0 0 0 0 0 0 0 0 
0 0 0 0 0 0 0 0 0 
0 0 0 0 0 0 0 0 0 
0 0 0 0 0 0 0 0 0 
0 0 0 0 0 0 0 0 0 
0 0 0 0 0 0 0 0 0 
0 0 0 0 0 0 0 0 0 
0 0 0 0 0 0 0 0 0 
0 0 0 0 0 0 0 0 0 
0 0 0 0 0 0 0 0 0 
0 0 0 0 0 0 0 0 0 
0 0 0 0 0 0 0 0 0 
0 0 0 0 0 0 0 0 0 
0 0 0 0 0 0 0 0 0 
0 0 0 0 0 0 0 0 0 
0 0 0 0 0 0 0 0 0 
0 0 0 0 0 0 0 0 0 
0 0 0 0 0 0 0 0 0 
0 0 0 0 0 0 0 0 0 
0 0 0 0 0 0 0 0 0 
0 0 0 0 0 0 0 0 0 
0 0 0 0 0 0 0 0 0 
0 0 0 0 0 0 0 0 0 
0 0 0 0 0 0 0 0 0 
0 0 0 0 0 0 0 0 0 
0 0 0 0 0 0 0 0 0 
0 0 0 0 0 0 0 0 0 
0 0 0 0 0 0 0 0 0 
0 0 0 0 0 0 0 0 0 
0 0 0 0 0 0 0 0 0 
0 0 0 0 0 0 0 0 0 
0 0 0 0 0 0 0 0 0 
0 0 0 0 0 0 0 0 0 
0 0 0 0 0 0 0 0 0 
0 0 0 0 0 0 0 0 0 
0 0 0 0 0 0 0 0 0 
0 0 0 0 0 0 0 0 0 
0 0 0 0 0 0 0 0 0 
0 0 0 0 0 0 0 0 0 
0 0 0 0 0 0 0 0 0 
0 0 0 0 0 0 0 0 0 
0 0 0 0 0 0 0 0 0 
0 0 0 0 0 0 0 0 0 
0 0 0 0 0 0 0 0 0 
0 0 0 0 0 0 0 0 0 
0 0 0 0 0 0 0 0 0 
0 0 0 0 0 0 0 0 0 
0 0 0 0 0 0 0 0 0 
0 0 0 0 0 0 0 0 0 
0 0 0 0 0 0 0 0 0 
0 0 0 0 0 0 0 0 0 
0 0 0 0 0 0 0 0 0 
0 0 0 0 0 0 0 0 0 
0 0 0 0 0 0 0 0 0 
0 0 0 0 0 0 0 0 0 
0 0 0 0 0 0 0 0 0 
0 0 0 0 0 0 0 0 0 
0 0 0 0 0 0 0 0 
NORMALS Normals float
-0.12405 0.130431 0.983666 -0.0766741 -0.0302942 0.996596 0.0534599 0.0632224 0.996567 
0.0917608 0.370067 0.924462 -0.0574684 0.38061 0.922948 -0.0874532 0.416418 0.904958 
0.0615922 0.440691 0.895543 0.0216608 0.453523 0.890981 0.0136513 0.493959 0.869378 
-0.128698 0.532913 0.836326 0.20411 0.328158 0.922308 0.17652 0.222872 0.958733 
0.0780202 0.176737 0.981161 -0.0302366 0.148658 0.988426 -0.0352478 0.185645 0.981985 
-0.00533795 0.260489 0.965462 0.0375504 0.205535 0.977929 0.0383566 0.195775 0.979898 
0.0113011 0.248783 0.968493 -0.060113 0.279535 0.958252 -0.196974 0.447095 0.872529 
-0.361933 0.473001 0.80329 0.197659 0.288678 0.936801 0.13152 0.20203 0.970508 
0.0807535 0.127557 0.988538 0.0189651 0.0565887 0.998217 -0.0485124 0.0302565 0.998364 
0.0242322 -0.0198812 0.999509 0.0260569 0.0486698 0.998475 0.0232566 0.0317609 0.999225 
0.0840512 0.0912365 0.992276 0.0651798 0.143374 0.98752 -0.00401888 0.175935 0.984394 
-0.122199 0.199438 0.972261 -0.297298 0.354477 0.886544 -0.478192 0.474761 0.738874 
0.277598 0.195709 0.940552 0.157671 0.199055 0.967221 0.0356382 0.161302 0.986261 
0.028082 0.102633 0.994323 -0.0160875 0.0455565 0.998832 -0.109097 0.136596 0.984601 
-0.0171693 0.0911609 0.995688 0.0454012 -0.100576 0.993893 0.0798573 0.0954075 0.99223 
0.153846 -0.0371362 0.987397 0.0875728 0.0149434 0.996046 0.020413 0.0427961 0.998875 
0.0190212 0.114885 0.993197 -0.173243 0.239132 0.955407 -0.219681 0.348822 0.911078 
-0.43733 0.184853 0.880098 0.352444 0.187032 0.916953 0.190816 0.142637 0.971207 
0.139072 0.0937727 0.985833 0.0382734 0.114583 0.992676 -0.033798 0.101053 0.994307 
0.0464749 0.0173123 0.998769 0.0266984 0.0159111 0.999517 -0.213251 0.169126 0.962248 
0.0378826 0.169613 0.984782 0.0618855 0.224711 0.972458 -0.0101095 -0.069717 0.997516 
0.150227 -0.0378302 0.987927 0.0891704 -0.0028228 0.996012 -0.0037733 0.108669 0.994071 
0.157549 0.0417585 0.986628 -0.180402 0.159177 0.970627 -0.509471 0.0752539 0.857191 
0.53894 -0.00594367 0.842323 0.174104 0.0241339 0.984431 0.117083 0.0381205 0.99239 
0.0419642 0.0812207 0.995812 -0.0724119 0.0762963 0.994452 -0.0938185 0.0565199 0.993984 
0.0335551 -0.0344347 0.998843 0.139875 0.0631379 0.988154 0.10819 0.110272 0.987995 
-0.233968 -0.106196 0.966427 -0.0288646 0.059707 0.997799 0.158689 0.0297211 0.986881 
0.0565331 0.0663249 0.996195 0.101504 0.113518 0.988337 0.086012 -0.0349645 0.99568 
0.205473 -0.0142336 0.978559 -0.190417 -0.0670932 0.979408 -0.209786 -0.266059 0.940852 
-0.512141 0.00424045 0.858891 -0.850224 -0.101099 0.516622 0.446553 -0.335269 0.82957 
0.243563 -0.0958939 0.965133 0.187652 0.0110139 0.982174 0.0735575 -0.00458608 0.99728 
-0.0606023 0.00889238 0.998122 -0.063669 0.0878466 0.994097 0.0207608 0.0790359 0.996656 
-0.0236302 0.0163393 0.999587 -0.0976207 -0.0416019 0.994354 -0.00585434 -0.027513 0.999604 
0.0800434 0.163171 0.983345 0.0620966 0.0621664 0.996132 0.213936 0.0593194 0.975045 
0.0469844 0.0476773 0.997757 0.0359001 0.0229499 0.999092 -0.0371473 -0.120734 0.99199 
-0.224361 -0.294318 0.928999 -0.520031 -0.235353 0.821083 0.435892 -0.257582 0.862351 
0.221222 -0.15149 0.963385 0.0370665 -0.0800464 0.996102 0.0233636 -0.0880747 0.99584 
-0.0297438 0.00871063 0.99952 -0.0295601 -0.00886234 0.999524 0.00413002 -0.0350838 0.999376 
-0.00161438 0.0589771 0.998258 0.0379296 0.0892785 0.995284 0.0400563 0.0692798 0.996793 
0.0564154 0.0499716 0.997156 -0.0730897 -0.211378 0.974668 -0.153303 -0.124991 0.980242 
-0.319842 -0.467499 0.824103 -0.57158 -0.512312 0.640962 0.356025 -0.432725 0.828248 
0.137316 -0.291896 0.946542 0.034719 -0.222903 0.974222 0.0164825 -0.202025 0.979242 
-0.0167301 -0.11204 0.993563 0.0443529 -0.0882229 0.995113 0.0280718 -0.0477206 0.998466 
0.000953674 -0.0484171 0.998827 0.0338799 -0.121508 0.992012 -0.0552916 -0.0735746 0.995756 
-0.1079 -0.279419 0.954087 -0.346701 -0.45781 0.818662 -0.508345 -0.642153 0.573781 
0.287944 -0.650596 0.702718 0.134692 -0.533421 0.835057 0.112212 -0.421788 0.899724 
0.0749348 -0.315569 0.945939 0.0582182 -0.329685 0.942294 0.0439157 -0.306087 0.95099 
-0.0183153 -0.338278 0.940868 -0.00929815 -0.404176 0.914634 -0.121863 -0.567709 0.814159 
-0.340521 -0.749748 0.567383 0.0219551 -0.823465 0.566942 0.310534 0.678927 0.665303 
0.0979148 0.416968 0.903632 0.120536 0.625776 0.770633 -0.0607552 0.43427 0.898732 
-0.0667306 0.617374 0.783835 -0.0889862 0.422438 0.902013 -0.152744 0.633729 0.758325 
-0.102205 0.771092 0.628468 0.060552 0.45407 0.888906 -0.0345842 0.897421 0.439818 
0.0136727 0.509829 0.860167 -0.0239388 0.950215 0.310674 0.00622049 0.517779 0.855492 
-0.0854705 0.948182 0.306016 -0.116588 0.595472 0.794872 0.573063 0.608441 0.548998 
0.22114 0.337044 0.915149 0.357513 0.466006 0.809335 0.188826 0.401101 0.896361 
0.216962 0.382267 0.89822 0.22643 0.41767 0.879932 -0.0496877 0.434935 0.89909 
0.0320381 0.451425 0.891734 0.00446289 0.445207 0.895417 0.0047286 0.466213 0.88466 
-0.22542 0.526827 0.819536 -0.300889 0.466914 0.831539 -0.440139 0.606962 0.661721 
-0.374737 0.513141 0.772178 0.504026 0.618854 0.602476 0.236132 0.352485 0.905536 
0.271238 0.342877 0.899369 0.357297 0.449067 0.818949 -0.400311 0.499523 0.768263 
-0.502065 0.507738 0.700094 0.659162 0.573678 0.486209 0.22424 0.386525 0.894603 
0.253492 0.366219 0.895335 0.263411 0.465612 0.844879 -0.522281 0.490621 0.697505 
0.34148 0.19379 0.919694 0.367655 0.183922 0.911593 0.488349 0.243565 0.837968 
-0.701797 0.287845 0.651634 -0.943984 0.32728 -0.0422116 0.420328 0.150688 0.894772 
0.956501 0.0879358 0.27816 -0.821556 0.15673 0.548162 -0.866127 0.01415 0.499624 
-0.907223 0.171579 0.384067 0.622231 -0.0170186 0.782649 0.950903 -0.114168 0.287662 
-0.873812 -0.095249 0.476844 -0.871903 -0.134984 0.470707 0.480496 -0.32525 0.814454 
0.466664 -0.35375 0.810608 -0.836069 -0.315485 0.448841 0.556551 -0.390265 0.733447 
0.765512 -0.584783 0.268366 0.573158 -0.501803 0.64783 -0.635376 -0.562543 0.529001 
-0.617202 -0.620769 0.483433 0.536376 -0.586586 0.60681 0.66913 -0.713253 0.208651 
0.46658 -0.634447 0.616263 -0.510001 -0.791964 0.335697 -0.574994 -0.706238 0.41305 
-0.546215 -0.730697 0.40955 0.354854 -0.693543 0.626959 0.312826 -0.701388 0.640465 
0.203479 -0.654787 0.727908 0.194904 -0.671858 0.714577 0.0645964 -0.764062 0.641901 
0.0215566 -0.74089 0.67128 -0.0511195 -0.852701 0.519892 -0.192667 -0.892229 0.408419 
-0.272298 -0.885266 0.377039 -0.441039 -0.832495 0.335316 -0.338972 -0.884412 0.320802 
0.197458 -0.953558 0.227459 0.0714173 -0.836616 0.543114 0.0219328 -0.822767 0.567955 
0.0198747 -0.849152 0.527775 0.0154837 -0.827871 0.560705 0.0217272 -0.824764 0.565059 
-0.0801104 -0.903037 0.422027 0.330187 0.757572 0.563082 0.101779 0.81766 0.566633 
-0.0260818 0.810706 0.584872 -0.0714942 0.99408 0.0818125 -0.145288 0.785854 0.601104 
-0.145373 0.832303 0.534919 -0.0631412 0.933329 0.353426 -0.0268644 0.96387 0.265016 
-0.0813328 0.963434 0.255302 0.577981 0.616015 0.535223 0.384191 0.759492 0.524946 
0.419187 0.76588 0.487556 0.511139 0.854521 0.092368 -0.132426 0.956287 0.260728 
-0.109791 0.993242 -0.0376346 -0.240119 0.934564 0.262551 -0.454042 0.876217 0.161524 
0.579975 0.614668 0.534613 0.547472 0.672664 0.497793 -0.576675 0.788666 0.213193 
-0.596661 0.777984 0.196815 0.584113 0.653316 0.481653 0.690881 0.664907 0.283871 
-0.74301 0.665917 0.067003 -0.765229 0.641102 0.058414 0.712066 0.64124 0.28596 
-0.889257 0.449296 -0.085765 -0.615978 0.319196 -0.720198 -0.934654 0.325387 -0.143334 
0.908595 0.323786 0.263851 0.969285 0.146963 0.197203 -0.938876 0.306888 -0.155988 
-0.935203 0.298637 -0.19029 0.975256 0.111027 0.191178 -0.97104 0.0969869 -0.218344 
-0.917313 0.0694301 -0.392066 0.951211 -0.114327 0.286579 0.951487 -0.116191 0.284909 
0.954956 -0.117667 0.27242 -0.941096 -0.188734 -0.280567 -0.82968 -0.366863 -0.420765 
-0.852605 -0.229594 -0.469417 0.918607 -0.394998 0.0117048 -0.187896 -0.187728 -0.964082 
-0.778329 -0.42724 -0.460076 -0.626155 -0.546642 -0.555979 0.796667 -0.591283 0.125324 
0.769457 -0.625372 0.129794 0.729661 -0.594378 -0.338096 -0.121806 -0.347275 -0.929819 
-0.43912 -0.513611 -0.737141 -0.667881 -0.527094 -0.525458 -0.645195 -0.601208 -0.471458 
-0.619191 -0.47986 -0.621561 0.67821 -0.732891 0.0538753 0.665841 -0.744284 0.0519398 
0.63136 -0.724687 -0.276067 0.531737 -0.846777 -0.0150083 -0.158497 -0.324811 -0.932404 
-0.184071 -0.429672 -0.884025 -0.383375 -0.751342 -0.537129 -0.345218 -0.683579 -0.643074 
-0.463198 -0.73848 -0.489995 -0.439986 -0.74425 -0.502498 -0.415859 -0.71881 -0.557112 
0.519483 -0.854414 -0.0106892 0.415613 -0.909183 -0.0255565 0.307165 -0.951245 -0.0279705 
-0.343339 -0.848824 -0.402016 -0.252913 -0.580588 -0.77392 -0.295926 -0.855437 -0.425035 
-0.258386 -0.645553 -0.718678 -0.38443 -0.737734 -0.554943 -0.371388 -0.750418 -0.546758 
-0.369964 -0.719556 -0.587678 0.251837 -0.967254 -0.0315837 0.175358 -0.983706 -0.0396586 
0.178536 -0.955087 -0.236501 0.0923196 -0.993522 -0.0662676 0.0769234 -0.888058 -0.45325 
-0.000457863 -0.997927 -0.0643578 -0.0328193 -0.862794 -0.50449 -0.0707842 -0.986399 -0.148344 
-0.103409 -0.891491 -0.441078 -0.299844 -0.906961 -0.295831 -0.213224 -0.955647 -0.203159 
-0.241668 -0.889115 -0.388679 -0.0772763 0.995755 0.0499948 0.52848 0.847613 -0.0475434 
0.402522 0.914116 -0.0486713 0.109802 0.993524 0.0292133 0.172304 0.984829 0.0205782 
-0.108374 0.993392 0.0377711 -0.075656 0.997129 -0.00310546 -0.280453 0.959099 -0.0384198 
-0.33099 0.936631 -0.114747 -0.208965 0.935047 -0.286394 -0.105094 0.939328 -0.326524 
0.539719 0.84006 -0.0548016 0.603617 0.791171 -0.0984654 0.529001 0.833251 -0.160779 
-0.380183 0.667524 -0.640213 -0.223742 0.870792 -0.43779 -0.118603 0.940606 -0.318109 
-0.0998191 0.919623 -0.379909 -0.12957 0.939186 -0.318029 -0.246765 0.876645 -0.413038 
-0.458178 0.760169 -0.460669 0.655076 0.752085 -0.0724139 0.675808 0.728017 -0.115217 
0.580381 0.665735 -0.468994 -0.0220352 0.419223 -0.907616 -0.0860026 0.349061 -0.933145 
-0.264544 0.471197 -0.841421 -0.532358 0.687566 -0.49381 -0.432213 0.659732 -0.614772 
-0.638803 0.436033 -0.633882 0.731014 0.658247 -0.179806 0.810933 0.554921 -0.185608 
0.620165 0.541137 -0.567949 -0.215884 0.127306 -0.968084 -0.342019 0.147735 -0.928007 
-0.642439 0.364867 -0.673902 -0.627074 0.344673 -0.698555 0.841688 0.478982 -0.249274 
0.776233 0.359429 -0.517951 -0.193209 -0.0679564 -0.978801 -0.155943 -0.0502697 -0.986486 
-0.593975 0.306348 -0.743871 -0.406247 0.145175 -0.902157 -0.592078 0.302655 -0.746889 
0.883793 0.303701 -0.355915 0.920712 0.154344 -0.358423 0.59144 0.107249 -0.799185 
-0.158783 -0.166181 -0.973228 -0.125077 -0.118586 -0.985035 -0.242994 -0.106987 -0.96411 
-0.612815 0.198483 -0.764894 -0.442757 0.16679 -0.880992 0.921942 0.0381597 -0.385443 
0.891572 -0.136154 -0.431927 0.898034 0.0309975 -0.438833 0.522157 0.113824 -0.84522 
-0.0663414 -0.293769 -0.953572 -0.332228 -0.195571 -0.922701 -0.0935804 -0.281795 -0.9549 
-0.0615042 -0.181213 -0.981519 -0.120798 -0.111577 -0.986386 -0.153403 -0.173872 -0.972747 
-0.58405 -0.0217776 -0.811426 -0.34478 -0.0418684 -0.937749 0.851647 -0.245082 -0.463283 
0.484965 -0.0817708 -0.870702 -0.0660385 0.184333 -0.980643 -0.512172 -0.228052 -0.828054 
-0.0378072 -0.175874 -0.983686 0.0356489 -0.220865 -0.974653 -0.108984 -0.15114 -0.982486 
-0.15742 -0.187594 -0.96955 -0.159959 -0.22991 -0.959976 -0.455257 -0.277855 -0.845895 
-0.472991 -0.478662 -0.739704 -0.312926 -0.195698 -0.929397 0.73095 -0.396468 -0.55545 
0.653397 -0.49914 -0.56915 0.610701 -0.391683 -0.688207 0.274504 -0.333647 -0.901847 
-0.432025 -0.140681 -0.890822 -0.0997353 -0.10874 -0.989054 -0.0544009 -0.195466 -0.9792 
-0.157319 -0.220166 -0.962693 -0.112356 -0.315638 -0.942204 -0.133373 -0.314423 -0.939867 
0.604178 -0.537122 -0.588616 0.489224 -0.589922 -0.64238 0.413041 -0.482333 -0.772497 
0.242769 -0.389097 -0.888632 0.128088 -0.355908 -0.925701 -0.0149704 -0.236294 -0.971566 
0.112338 -0.174831 -0.978169 -0.432972 -0.327316 -0.839881 -0.323952 -0.108548 -0.939826 
-0.134618 -0.263715 -0.955161 -0.131287 -0.208923 -0.969079 -0.177273 -0.164941 -0.970242 
-0.180222 -0.180499 -0.966923 -0.182621 -0.155396 -0.970825 0.413497 -0.616134 -0.670372 
0.358599 -0.624292 -0.694022 0.314556 -0.586725 -0.746196 0.214304 -0.396898 -0.892494 
0.0891126 -0.346742 -0.933718 0.0145007 -0.321945 -0.946647 0.0385869 -0.27417 -0.960907 
0.0471368 -0.2678 -0.962321 -0.0994029 -0.391851 -0.914643 -0.306056 -0.355564 -0.883122 
-0.217699 -0.291816 -0.93137 -0.289531 -0.361681 -0.886205 -0.321227 -0.270576 -0.907525 
0.293473 -0.702564 -0.648288 0.273716 -0.712835 -0.645713 0.269512 -0.688541 -0.673257 
0.171197 -0.651715 -0.73889 0.129471 -0.600515 -0.789062 0.153403 -0.649206 -0.744983 
0.0916171 -0.470315 -0.87773 0.0554575 -0.670376 -0.739946 0.0460102 -0.414374 -0.908943 
-0.0455134 -0.671883 -0.739258 -0.0281104 -0.434539 -0.900214 -0.147171 -0.630396 -0.762195 
-0.158173 -0.488974 -0.857838 -0.286553 -0.457784 -0.841618 -0.290681 -0.476477 -0.829743 
-0.292623 -0.452629 -0.842317 0.313981 0.648674 -0.693281 0.164085 0.670787 -0.723271 
-0.0466281 0.741037 -0.669843 -0.277147 0.663738 -0.694723 0.348028 0.637376 -0.687479 
0.427174 0.577675 -0.695567 0.298932 0.585737 -0.75336 0.172948 0.534243 -0.82745 
-0.0324585 0.507028 -0.861318 -0.33542 0.550107 -0.764772 -0.302776 0.550253 -0.77817 
-0.3309 0.432903 -0.838511 -0.184111 0.333958 -0.924432 0.458311 0.508342 -0.729068 
0.47438 0.428832 -0.768809 0.331265 0.37861 -0.864244 0.186158 0.27851 -0.942219 
0.0685898 0.186975 -0.979967 -0.0286691 0.0874744 -0.995754 -0.202457 0.12338 -0.971488 
-0.288446 0.262086 -0.920929 -0.152517 0.332782 -0.930588 -0.181334 0.316753 -0.931013 
-0.00957653 0.32656 -0.945128 -0.0875302 0.332918 -0.938884 0.475984 0.32355 -0.817774 
0.363019 0.303372 -0.881012 0.37213 0.232053 -0.898705 0.237947 0.140583 -0.96105 
0.122007 0.105053 -0.986954 -0.0178005 0.0534172 -0.998414 -0.0981013 0.0172872 -0.995026 
-0.139376 -0.0554446 -0.988686 -0.208634 0.0533026 -0.97654 -0.10466 0.107925 -0.988635 
0.0103305 0.175824 -0.984367 -0.201804 0.119418 -0.972119 -0.129973 0.107867 -0.985633 
0.376756 0.268653 -0.886499 0.329561 0.283684 -0.900507 0.230573 0.112491 -0.966531 
0.183557 0.00202945 -0.983007 0.105577 -0.0540427 -0.992941 -0.0182677 -0.02954 -0.999397 
-0.144906 -0.0335271 -0.988877 -0.157777 -0.054706 -0.985958 -0.140957 -0.0385626 -0.989264 
-0.0644819 0.00952282 -0.997873 -0.0310929 -0.0400696 -0.998713 -0.186848 -0.0698264 -0.979904 
-0.13658 -0.0966159 -0.985906 0.474375 0.0890676 -0.875806 0.417083 0.0820675 -0.905156 
0.106902 0.0300609 -0.993815 0.0731574 -0.060781 -0.995467 0.0816625 -0.113934 -0.990126 
0.00439856 -0.150172 -0.98865 -0.123565 -0.16508 -0.978509 -0.136321 -0.0516184 -0.989319 
-0.0898827 -0.281699 -0.955284 -0.15457 -0.185688 -0.970375 -0.102096 0.0135297 -0.994682 
-0.245432 -0.174321 -0.953612 -0.102884 -0.157079 -0.982212 -0.157478 -0.263261 -0.951785 
-0.15697 -0.265278 -0.951308 -0.157039 -0.264813 -0.951427 0.415315 0.0658558 -0.907291 
0.275883 -0.0540841 -0.959668 0.109221 -0.0906022 -0.98988 0.0432688 -0.0794804 -0.995897 
0.0214526 -0.0767253 -0.996821 -0.0671052 -0.116895 -0.990875 -0.068691 -0.152576 -0.985902 
-0.119127 -0.227972 -0.966353 -0.180924 -0.0432579 -0.982545 -0.0369141 -0.167019 -0.985262 
-0.25446 -0.108975 -0.960924 -0.0154274 0.12037 -0.992609 0.447115 -0.0988902 -0.888993 
0.207367 -0.308638 -0.9283 0.203549 -0.257813 -0.944511 0.100088 -0.163244 -0.981496 
0.0879134 -0.104418 -0.99064 0.0425478 -0.0888565 -0.995135 -0.0679989 -0.0936581 -0.99328 
-0.0376794 -0.0735036 -0.996583 -0.0915736 0.105081 -0.990238 -0.192539 -0.135 -0.971959 
-0.0297115 0.148343 -0.98849 0.0144723 0.16473 -0.986233 -0.516591 -0.149922 -0.843005 
0.0216002 -0.0107886 -0.999708 0.218759 -0.273422 -0.936688 0.2145 -0.279419 -0.935903 
0.204641 -0.243675 -0.948021 0.128139 -0.337153 -0.932689 0.115545 -0.213397 -0.970109 
0.0292639 -0.212747 -0.976669 -0.0546741 -0.232606 -0.971033 -0.0273711 -0.227272 -0.973446 
-0.0880681 -0.195038 -0.976834 0.0913772 -0.179918 -0.979428 -0.0116896 -0.208196 -0.978017 
0.0741325 0.126472 -0.989196 -0.443791 -0.27758 -0.852056 -0.414026 -0.327984 -0.849122 
-0.272338 -0.242029 -0.931265 0.0741354 -0.330306 -0.940958 0.0301642 -0.305568 -0.951692 
0.0231754 -0.306117 -0.951712 -0.0421045 -0.299683 -0.953109 -0.0426032 -0.301446 -0.952531 
-0.0428333 -0.301381 -0.952541 0.0915895 -0.173631 -0.980542 -0.303205 -0.294347 -0.906326 
-0.0623064 -0.283655 -0.9569 -0.0161541 -0.172567 -0.984865 
