# vtk DataFile Version 4.2
vtk output
ASCII
DATASET POLYDATA
POINTS 540 float
-13.7911 -43.4218 -11.438 -6.33261 -43.4218 -12.8678 1.12588 -43.4218 -12.0096 
-21.2496 -35.9633 -13.1664 -13.7911 -35.9633 -14.3401 -6.33261 -35.9633 -15.5246 
1.12588 -35.9633 -15.2998 8.58438 -35.9633 -13.7371 16.0429 -35.9633 -12.0559 
-36.1666 -28.5048 -11.0976 -28.7081 -28.5048 -13.5478 -21.2496 -28.5048 -15.5676 
-13.7911 -28.5048 -15.2656 -6.33261 -28.5048 -15.9797 1.12588 -28.5048 -15.7559 
8.58438 -28.5048 -15.0782 16.0429 -28.5048 -13.7945 23.5014 -28.5048 -11.9631 
-43.6251 -21.0463 -11.3194 -36.1666 -21.0463 -14.1373 -28.7081 -21.0463 -15.3066 
-21.2496 -21.0463 -15.7841 -13.7911 -21.0463 -15.2222 -6.33261 -21.0463 -15.2851 
1.12588 -21.0463 -15.7574 8.58438 -21.0463 -15.486 16.0429 -21.0463 -14.3719 
23.5014 -21.0463 -13.1627 30.9599 -21.0463 -11.8539 -51.0836 -13.5879 -10.9566 
-43.6251 -13.5879 -13.7386 -36.1666 -13.5879 -15.7279 -28.7081 -13.5879 -16.1372 
-21.2496 -13.5879 -15.7938 -13.7911 -13.5879 -15.045 -6.33261 -13.5879 -15.4486 
1.12588 -13.5879 -16.0885 8.58438 -13.5879 -15.4944 16.0429 -13.5879 -14.1936 
23.5014 -13.5879 -12.893 30.9599 -13.5879 -11.8225 38.4184 -13.5879 -10.8132 
-51.0836 -6.12936 -10.9412 -43.6251 -6.12936 -14.4744 -36.1666 -6.12936 -16.0622 
-28.7081 -6.12936 -15.656 -21.2496 -6.12936 -15.2043 -13.7911 -6.12936 -14.6352 
-6.33261 -6.12936 -17.2528 1.12588 -6.12936 -16.1161 8.58438 -6.12936 -16.4628 
16.0429 -6.12936 -14.4375 23.5014 -6.12936 -12.8069 30.9599 -6.12936 -12.3121 
38.4184 -6.12936 -11.6173 45.8768 -6.12936 -10.6474 -51.0836 1.32913 -11.207 
-43.6251 1.32913 -14.447 -36.1666 1.32913 -15.4828 -28.7081 1.32913 -14.9783 
-21.2496 1.32913 -14.1118 -13.7911 1.32913 -13.57 -6.33261 1.32913 -15.7167 
1.12588 1.32913 -14.2285 8.58438 1.32913 -16.1997 16.0429 1.32913 -14.8758 
23.5014 1.32913 -13.5157 30.9599 1.32913 -13.0503 38.4184 1.32913 -11.8337 
-51.0836 8.78763 -10.1817 -43.6251 8.78763 -13.8666 -36.1666 8.78763 -14.7395 
-28.7081 8.78763 -14.576 -21.2496 8.78763 -13.933 -13.7911 8.78763 -13.7062 
-6.33261 8.78763 -14.2478 1.12588 8.78763 -16.1856 8.58438 8.78763 -14.6071 
16.0429 8.78763 -14.4075 23.5014 8.78763 -14.4124 30.9599 8.78763 -13.5555 
38.4184 8.78763 -11.7634 -43.6251 16.2461 -12.6498 -36.1666 16.2461 -13.9072 
-28.7081 16.2461 -14.4828 -21.2496 16.2461 -14.7332 -13.7911 16.2461 -14.3577 
-6.33261 16.2461 -13.1145 1.12588 16.2461 -12.9774 8.58438 16.2461 -13.7242 
16.0429 16.2461 -14.431 23.5014 16.2461 -14.5276 30.9599 16.2461 -13.4719 
38.4184 16.2461 -11.0626 -43.6251 23.7046 -11.3847 -36.1666 23.7046 -12.9126 
-28.7081 23.7046 -14.1545 -21.2496 23.7046 -14.7019 -13.7911 23.7046 -15.1019 
-6.33261 23.7046 -14.2805 1.12588 23.7046 -14.267 8.58438 23.7046 -14.5092 
16.0429 23.7046 -14.7803 23.5014 23.7046 -14.2527 30.9599 23.7046 -12.7763 
-28.7081 31.1631 -12.7478 -21.2496 31.1631 -13.9665 -13.7911 31.1631 -14.7685 
-6.33261 31.1631 -14.721 1.12588 31.1631 -14.7722 8.58438 31.1631 -14.7196 
16.0429 31.1631 -14.735 23.5014 31.1631 -13.021 30.9599 31.1631 -10.5201 
-21.2496 38.6216 -11.7185 -13.7911 38.6216 -13.4766 -6.33261 38.6216 -13.6831 
1.12588 38.6216 -13.8936 8.58438 38.6216 -13.3907 16.0429 38.6216 -12.6808 
-13.7911 -44.8378 -10.1519 -6.33261 -46.5567 -10.1519 1.12588 -46.1879 -10.1519 
1.12588 -50.8803 -2.90769 -19.124 -43.4218 -10.1519 -21.2496 -42.6395 -10.1519 
-21.2496 -43.4218 -8.82264 7.55342 -43.4218 -10.1519 8.58438 -42.8346 -10.1519 
8.58438 -43.4218 -9.76566 16.0429 -39.9676 -10.1519 16.0429 -43.4218 -6.90411 
-36.1666 -29.7989 -10.1519 -28.0716 -35.9633 -10.1519 -28.7081 -35.3247 -10.1519 
-28.7081 -35.9633 -9.51146 20.9153 -35.9633 -10.1519 23.5014 -33.2506 -10.1519 
23.5014 -35.9633 -8.85776 30.9599 -35.9633 -5.91231 -37.8435 -28.5048 -10.1519 
-43.6251 -23.0118 -10.1519 -43.6251 -28.5048 -2.8148 29.5532 -28.5048 -10.1519 
30.9599 -27.1565 -10.1519 30.9599 -28.5048 -9.72202 38.4184 -28.5048 -6.99722 
-45.4657 -21.0463 -10.1519 -51.0836 -15.31 -10.1519 -51.0836 -21.0463 -3.68547 
36.044 -21.0463 -10.1519 38.4184 -16.709 -10.1519 38.4184 -21.0463 -9.34237 
45.8768 -21.0463 -7.09711 -52.0463 -13.5879 -10.1519 41.5761 -13.5879 -10.1519 
45.8768 -9.14743 -10.1519 45.8768 -13.5879 -9.10693 53.3353 -13.5879 -4.41552 
-52.1798 -6.12936 -10.1519 46.8491 -6.12936 -10.1519 45.8768 -3.22046 -10.1519 
53.3353 -6.12936 -6.08034 -52.7249 1.32913 -10.1519 -58.5421 1.32913 -4.33048 
43.3654 1.32913 -10.1519 45.8768 1.32913 -9.2238 53.3353 1.32913 -5.34713 
-51.1285 8.78763 -10.1519 -51.0836 9.22025 -10.1519 43.8413 8.78763 -10.1519 
45.8768 8.78763 -9.37778 53.3353 8.78763 -3.4275 -49.8568 16.2461 -10.1519 
-51.0836 16.2461 -9.45455 40.4046 16.2461 -10.1519 38.4184 19.7952 -10.1519 
45.8768 16.2461 -7.43805 -45.6118 23.7046 -10.1519 -51.0836 23.7046 -2.87079 
-43.6251 25.8878 -10.1519 -36.1666 29.9678 -10.1519 36.5787 23.7046 -10.1519 
38.4184 23.7046 -9.0217 -43.6251 31.1631 -3.11978 -34.8584 31.1631 -10.1519 
-36.1666 31.1631 -9.34155 -28.7081 37.2592 -10.1519 23.5014 38.595 -10.1519 
31.6241 31.1631 -10.1519 30.9599 31.9704 -10.1519 38.4184 31.1631 -4.98567 
-26.1572 38.6216 -10.1519 -28.7081 38.6216 -8.28252 -21.2496 40.4107 -10.1519 
-13.7911 44.4218 -10.1519 -6.33261 45.0703 -10.1519 1.12588 45.7463 -10.1519 
8.58438 44.4787 -10.1519 23.4731 38.6216 -10.1519 16.0429 43.5816 -10.1519 
23.5014 38.6216 -10.139 30.9599 38.6216 -5.48151 -13.7911 46.0801 -5.80141 
-6.33261 46.0801 -8.80617 1.12588 46.0801 -9.81308 8.58438 46.0801 -8.49504 
16.0429 46.0801 -6.62217 1.12588 -50.9674 -2.69344 -21.2496 -45.3714 -2.69344 
-13.7911 -49.2277 -2.69344 -2.64662 -50.8803 -2.69344 -6.33261 -50.7937 -2.69344 
1.42263 -50.8803 -2.69344 1.12588 -50.8803 -2.28192 8.58438 -48.7028 -2.69344 
16.0429 -45.6679 -2.69344 -24.0323 -43.4218 -2.69344 -28.7081 -39.8601 -2.69344 
-21.2496 -43.4218 1.68907 20.8018 -43.4218 -2.69344 23.5014 -41.9256 -2.69344 
30.9599 -38.4099 -2.69344 -43.6251 -28.5531 -2.69344 -33.6758 -35.9633 -2.69344 
-36.1666 -34.0537 -2.69344 35.0173 -35.9633 -2.69344 38.4184 -33.1444 -2.69344 
-43.6823 -28.5048 -2.69344 -51.0836 -21.5881 -2.69344 -43.6251 -28.5048 -2.51019 
44.8944 -28.5048 -2.69344 45.8768 -27.8075 -2.69344 45.8768 -28.5048 -0.201133 
-51.5454 -21.0463 -2.69344 -51.0836 -21.0463 0.0158684 51.5423 -21.0463 -2.69344 
53.3353 -17.5739 -2.69344 53.3353 -21.0463 2.3619 -56.0071 -13.5879 -2.69344 
55.174 -13.5879 -2.69344 -58.2477 -6.12936 -2.69344 -58.5421 -4.41517 -2.69344 
57.0529 -6.12936 -2.69344 -59.4313 1.32913 -2.69344 -58.5421 6.04083 -2.69344 
-58.5421 1.32913 2.08851 56.0022 1.32913 -2.69344 -57.974 8.78763 -2.69344 
54.0124 8.78763 -2.69344 53.3353 10.1744 -2.69344 -55.5213 16.2461 -2.69344 
50.4355 16.2461 -2.69344 45.8768 23.5078 -2.69344 53.3353 16.2461 4.58169 
-51.1858 23.7046 -2.69344 -51.0836 23.8308 -2.69344 -51.0836 23.7046 -2.29645 
45.7222 23.7046 -2.69344 45.8768 23.7046 -2.17546 -43.8951 31.1631 -2.69344 
-43.6251 31.3943 -2.69344 -43.6251 31.1631 -1.90368 -36.1666 36.8804 -2.69344 
40.3041 31.1631 -2.69344 38.4184 33.3581 -2.69344 -32.8624 38.6216 -2.69344 
-28.7081 40.5244 -2.69344 -28.7081 38.6216 3.3243 -21.2496 44.0694 -2.69344 
23.5014 44.9934 -2.69344 33.2814 38.6216 -2.69344 30.9599 40.494 -2.69344 
-15.8314 46.0801 -2.69344 -13.7911 46.8118 -2.69344 -13.7911 46.0801 -0.537875 
-6.33261 48.4241 -2.69344 1.12588 49.5208 -2.69344 8.58438 48.9743 -2.69344 
20.5176 46.0801 -2.69344 16.0429 47.5607 -2.69344 -13.7911 -45.1247 4.76505 
-6.33261 -48.3045 4.76505 1.12588 -48.7469 4.76505 8.58438 -46.7476 4.76505 
16.0429 -43.7097 4.76505 -28.7081 -36.0473 4.76505 -17.4437 -43.4218 4.76505 
-21.2496 -40.9439 4.76505 -13.7911 -43.4218 6.4499 -6.33261 -43.4218 8.61552 
1.12588 -43.4218 9.0668 8.58438 -43.4218 7.88919 17.0011 -43.4218 4.76505 
16.0429 -43.4218 5.18876 23.5014 -41.1494 4.76505 30.9599 -37.0063 4.76505 
-28.8234 -35.9633 4.76505 -36.1666 -29.6039 4.76505 -28.7081 -35.9633 4.8374 
-21.2496 -35.9633 7.36994 -13.7911 -35.9633 9.35371 -6.33261 -35.9633 12.1445 
1.12588 -35.9633 12.2225 8.58438 -35.9633 11.7355 16.0429 -35.9633 11.0791 
23.5014 -35.9633 8.81584 33.6656 -35.9633 4.76505 30.9599 -35.9633 6.50443 
38.4184 -34.0395 4.76505 45.8768 -29.5858 4.76505 -38.4536 -28.5048 4.76505 
-43.6251 -25.5642 4.76505 -36.1666 -28.5048 5.79252 -28.7081 -28.5048 8.87162 
-21.2496 -28.5048 10.1174 -13.7911 -28.5048 11.2684 23.5014 -28.5048 12.0613 
30.9599 -28.5048 11.6833 38.4184 -28.5048 9.41648 47.3073 -28.5048 4.76505 
45.8768 -28.5048 6.26798 53.3353 -22.1502 4.76505 -49.4019 -21.0463 4.76505 
-51.0836 -18.951 4.76505 -43.6251 -21.0463 9.21543 -36.1666 -21.0463 11.6985 
-28.7081 -21.0463 11.8495 -13.7911 -21.0463 12.0232 45.8768 -21.0463 11.0977 
54.1217 -21.0463 4.76505 53.3353 -21.0463 5.96733 -53.7091 -13.5879 4.76505 
-51.0836 -13.5879 8.03381 57.6143 -13.5879 4.76505 53.3353 -13.5879 9.82968 
-56.5578 -6.12936 4.76505 -51.0836 -6.12936 9.55393 60.0334 -6.12936 4.76505 
53.3353 -6.12936 12.1251 -57.7697 1.32913 4.76505 -51.0836 1.32913 11.5142 
-13.7911 1.32913 12.1131 58.6392 1.32913 4.76505 53.3353 1.32913 11.3867 
-55.8802 8.78763 4.76505 -51.0836 8.78763 9.77618 56.4642 8.78763 4.76505 
53.3353 8.78763 9.65123 -53.7671 16.2461 4.76505 -51.0836 20.7433 4.76505 
-51.0836 16.2461 7.48728 -43.6251 16.2461 10.5006 53.4016 16.2461 4.76505 
53.3353 16.3424 4.76505 53.3353 16.2461 4.91246 -47.7478 23.7046 4.76505 
-43.6251 27.7609 4.76505 -43.6251 23.7046 7.92907 -36.1666 23.7046 10.7836 
47.5821 23.7046 4.76505 45.8768 26.0506 4.76505 45.8768 23.7046 7.56864 
-39.1504 31.1631 4.76505 -36.1666 33.0521 4.76505 -36.1666 31.1631 6.59913 
-28.7081 37.9193 4.76505 -28.7081 31.1631 9.37669 -21.2496 31.1631 11.8334 
41.5788 31.1631 4.76505 38.4184 34.3556 4.76505 38.4184 31.1631 8.77305 
-26.7223 38.6216 4.76505 -21.2496 40.2228 4.76505 -21.2496 38.6216 6.27595 
-13.7911 43.5478 4.76505 -13.7911 38.6216 9.095 -6.33261 38.6216 11.0015 
16.0429 38.6216 12.1754 23.5014 44.2031 4.76505 23.5014 38.6216 10.3351 
[...]
POINT_DATA 540
SCALARS ImageScalars float
LOOKUP_TABLE default
0 0 0 0 0 0 0 0 0 
0 0 0 0 0 0 0 0 0 
0 0 0 0 0 0 0 0 0 
0 0 0 0 0 0 0 0 0 
0 0 0 0 0 0 0 0 0 
0 0 0 0 0 0 0 0 0 
0 0 0 0 0 0 0 0 0 
0 0 0 0 0 0 0 0 0 
0 0 0 0 0 0 0 0 0 
0 0 0 0 0 0 0 0 0 
0 0 0 0 0 0 0 0 0 
0 0 0 0 0 0 0 0 0 
0 0 0 0 0 0 0 0 0 
0 0 0 0 0 0 0 0 0 
0 0 0 0 0 0 0 0 0 
0 0 0 0 0 0 0 0 0 
0 0 0 0 0 0 0 0 0 
0 0 0 0 0 0 0 0 0 
0 0 0 0 0 0 0 0 0 
0 0 0 0 0 0 0 0 0 
0 0 0 0 0 0 0 0 0 
0 0 0 0 0 0 0 0 0 
0 0 0 0 0 0 0 0 0 
0 0 0 0 0 0 0 0 0 
0 0 0 0 0 0 0 0 0 
0 0 0 0 0 0 0 0 0 
0 0 0 0 0 0 0 0 0 
0 0 0 0 0 0 0 0 0 
0 0 0 0 0 0 0 0 0 
0 0 0 0 0 0 0 0 0 
0 0 0 0 0 0 0 0 0 
0 0 0 0 0 0 0 0 0 
0 0 0 0 0 0 0 0 0 
0 0 0 0 0 0 0 0 0 
0 0 0 0 0 0 0 0 0 
0 0 0 0 0 0 0 0 0 
0 0 0 0 0 0 0 0 0 
0 0 0 0 0 0 0 0 0 
0 0 0 0 0 0 0 0 0 
0 0 0 0 0 0 0 0 0 
0 0 0 0 0 0 0 0 0 
0 0 0 0 0 0 0 0 0 
0 0 0 0 0 0 0 0 0 
0 0 0 0 0 0 0 0 0 
0 0 0 0 0 0 0 0 0 
0 0 0 0 0 0 0 0 0 
0 0 0 0 0 0 0 0 0 
0 0 0 0 0 0 0 0 0 
0 0 0 0 0 0 0 0 0 
0 0 0 0 0 0 0 0 0 
0 0 0 0 0 0 0 0 0 
0 0 0 0 0 0 0 0 0 
0 0 0 0 0 0 0 0 0 
0 0 0 0 0 0 0 0 0 
0 0 0 0 0 0 0 0 0 
0 0 0 0 0 0 0 0 0 
0 0 0 0 0 0 0 0 0 
0 0 0 0 0 0 0 0 0 
0 0 0 0 0 0 0 0 0 
0 0 0 0 0 0 0 0 0 

NORMALS Normals float
0.189754 0.565745 0.80245 0.0148534 0.525112 0.850903 -0.149676 0.500581 0.852652 
0.241609 0.356282 0.902601 0.1653 0.215264 0.962464 0.0570283 0.158602 0.985694 
-0.107899 0.235687 0.965821 -0.213207 0.288046 0.93358 -0.267868 0.335776 0.903051 
0.408708 0.523216 0.747798 0.253829 0.323482 0.911554 0.102446 0.179 0.978501 
0.0297286 0.0524475 0.998181 0.032211 -0.0191221 0.999298 -0.0579821 0.0273813 0.997942 
-0.134442 0.110359 0.984757 -0.199141 0.150662 0.96832 -0.247059 0.241486 0.938428 
0.468443 0.432203 0.770559 0.226546 0.256517 0.939615 0.102586 0.15887 0.981955 
-0.00371926 0.0135773 0.999901 -0.0329506 -0.0147444 0.999348 0.0358263 -0.0356739 0.998721 
0.013581 0.0222098 0.999661 -0.0918035 0.0271854 0.995406 -0.158072 0.0272256 0.987052 
-0.172444 0.0583881 0.983287 -0.245135 0.114368 0.96272 0.592043 0.228661 0.772787 
0.304464 0.171389 0.936978 0.164821 0.124028 0.978494 0.00311326 0.0271579 0.999626 
-0.0727748 -0.0359783 0.996699 -0.0247898 -0.0385955 0.998947 0.0739871 0.130472 0.988687 
0.000754443 0.0244264 0.999701 -0.122231 0.0639932 0.990436 -0.175676 0.00303362 0.984443 
-0.155832 -0.0247291 0.987474 -0.13394 0.0303135 0.990526 -0.179187 0.156608 0.97127 
0.564405 0.0143137 0.825374 0.281879 0.0446718 0.958409 0.0948493 -0.017122 0.995344 
-0.0553752 -0.0787692 0.995354 -0.0693431 -0.115785 0.990851 0.129942 -0.0970443 0.986761 
0.11385 0.018644 0.993323 -0.0538523 -0.107248 0.992773 -0.103848 0.0473251 0.993467 
-0.25515 0.0462654 0.965794 -0.130326 0.0409357 0.990626 -0.0775915 0.0814135 0.993656 
-0.123764 0.0667414 0.990065 -0.330474 0.00116306 0.943814 0.51132 -0.0436113 0.858283 
0.233143 -0.042537 0.971512 0.0472193 -0.0877201 0.995025 -0.0904183 -0.0719393 0.993302 
-0.0934266 -0.0810362 0.992323 0.102576 -0.063395 0.992703 0.0614271 -0.175862 0.982496 
0.0478108 -0.0440381 0.997885 0.0163276 -0.113001 0.993461 -0.182412 -0.00400487 0.983214 
-0.118415 0.107396 0.987139 -0.116139 0.0825602 0.989796 -0.239918 0.00898697 0.970752 
0.550627 -0.0862402 0.830285 0.251482 -0.106841 0.961947 0.0549824 -0.104234 0.993032 
-0.0536812 -0.0331277 0.998008 -0.058553 0.0392824 0.997511 0.0124567 0.0532435 0.998504 
0.12284 -0.193433 0.973393 0.00536768 -0.14696 0.989128 -0.0767153 -0.181583 0.980379 
-0.0117614 -0.0290332 0.999509 -0.0555503 0.0668114 0.996218 -0.174377 0.027981 0.984281 
-0.267538 -0.0462427 0.962437 0.312915 -0.203623 0.927697 0.106345 -0.123046 0.986687 
0.0530743 -0.0273288 0.998217 -0.00857328 0.0527347 0.998572 -0.107163 0.0936628 0.98982 
-0.0928435 0.020639 0.995467 0.0435886 -0.0320243 0.998536 0.0957244 -8.38648e-05 0.995408 
0.053668 0.0247809 0.998251 -0.0612893 -0.0115857 0.998053 -0.215547 -0.0540049 0.974999 
-0.363527 -0.157255 0.918215 0.397119 -0.35591 0.845946 0.186502 -0.243789 0.951727 
0.126861 -0.119075 0.984747 0.061845 -0.0484794 0.996908 -0.0284702 0.0257799 0.999262 
-0.0555355 0.106762 0.992732 0.0153052 0.117713 0.99293 0.0341179 0.0665415 0.9972 
-0.0188396 0.0206539 0.999609 -0.133043 -0.0940228 0.98664 -0.305895 -0.166539 0.937386 
0.249352 -0.283823 0.925888 0.143825 -0.160323 0.97653 0.0458612 -0.10869 0.993017 
-6.1947e-05 -0.0349318 0.99939 -9.92727e-05 -0.0209631 0.99978 -0.00254199 -0.068912 0.99762 
-0.111834 -0.147777 0.982678 -0.246335 -0.237484 0.939638 -0.40552 -0.359296 0.840512 
0.295754 -0.529265 0.795241 0.100457 -0.351557 0.930761 0.0295163 -0.288005 0.957174 
-0.0193044 -0.256614 0.966321 -0.0812949 -0.308308 0.947807 -0.177538 -0.364498 0.914124 
0.200813 0.643365 0.738752 0.0647896 0.683016 0.727525 -0.158325 0.627111 0.76267 
-0.139783 0.983486 0.114961 0.343603 0.67014 0.657913 0.391338 0.662661 0.638541 
0.447263 0.740707 0.501308 -0.227081 0.586995 0.777092 -0.236482 0.578822 0.780411 
-0.24836 0.617855 0.746038 -0.303998 0.51873 0.799065 -0.385993 0.789846 0.476605 
0.448852 0.572867 0.685825 0.468853 0.57108 0.673829 0.467525 0.572964 0.673151 
0.504875 0.616574 0.6041 -0.316076 0.428004 0.846705 -0.308379 0.395222 0.865276 
-0.360303 0.532831 0.765684 -0.449229 0.713179 0.538116 0.459804 0.563309 0.686486 
0.501329 0.496363 0.708726 0.639157 0.766529 0.0625429 -0.267998 0.309952 0.912199 
-0.267166 0.284969 0.920552 -0.282314 0.334525 0.899106 -0.458436 0.508064 0.729183 
0.51734 0.472284 0.713657 0.627121 0.302774 0.717668 0.760602 0.619859 0.193025 
-0.289901 0.161649 0.943307 -0.232808 0.165553 0.958328 -0.313383 0.195074 0.929374 
-0.411972 0.390365 0.823344 0.647498 0.246819 0.72099 -0.264192 0.189755 0.945619 
-0.353114 0.0911342 0.931131 -0.389692 0.224725 0.893106 -0.664807 0.257359 0.701283 
0.610561 0.0282189 0.791467 -0.357946 0.0044604 0.933732 -0.358592 -0.0313238 0.932969 
-0.616424 0.0601357 0.785115 0.5705 -0.0396189 0.820341 0.955161 -0.0202849 0.295392 
-0.344443 -0.0462096 0.937669 -0.404329 -0.078976 0.911197 -0.659302 -0.153831 0.735973 
0.552298 -0.0866603 0.829131 0.551766 -0.0949112 0.82858 -0.40134 -0.0820365 0.912248 
-0.468555 -0.097867 0.877997 -0.737245 -0.327526 0.590929 0.516543 -0.240021 0.821933 
0.585818 -0.267144 0.765148 -0.40519 -0.19661 0.892841 -0.43884 -0.213721 0.872779 
-0.587034 -0.310702 0.747567 0.516452 -0.399971 0.757167 0.788948 -0.597338 0.144042 
0.454405 -0.439939 0.774577 0.36977 -0.464815 0.804498 -0.473355 -0.246551 0.845664 
-0.539535 -0.294967 0.788604 0.63308 -0.762533 0.133242 0.384396 -0.462637 0.798878 
0.438495 -0.537303 0.720436 0.366344 -0.602246 0.709289 -0.354915 -0.474924 0.805284 
-0.423822 -0.369404 0.826992 -0.417511 -0.384118 0.823492 -0.679803 -0.538212 0.498192 
0.36311 -0.635648 0.681251 0.412124 -0.761913 0.499643 0.34671 -0.634932 0.690401 
0.207907 -0.742494 0.636771 0.0573526 -0.716871 0.694843 -0.0243195 -0.711825 0.701936 
-0.0812327 -0.647518 0.757708 -0.354668 -0.475277 0.805185 -0.223229 -0.628325 0.745236 
-0.355567 -0.476266 0.804203 -0.584804 -0.677891 0.445497 0.266676 -0.943531 0.196555 
0.093701 -0.836676 0.539624 -0.0216023 -0.751048 0.659894 -0.101975 -0.818096 0.565968 
-0.254332 -0.877474 0.406639 -0.138239 0.985387 0.0995073 0.550493 0.83342 -0.0486685 
0.331787 0.943326 0.00731369 -0.0105789 0.996869 0.0783655 0.111772 0.992079 0.0573268 
-0.146164 0.984079 0.101117 -0.137049 0.988149 0.0691239 -0.334213 0.930377 0.150669 
-0.423878 0.896011 0.132257 0.587085 0.807601 -0.055783 0.61589 0.787611 -0.0186429 
0.526084 0.746646 -0.40713 -0.445965 0.873728 0.194202 -0.451027 0.855293 0.255045 
-0.477186 0.843232 0.247494 0.638711 0.767548 0.0540291 0.609308 0.792573 -0.0238949 
0.600758 0.798648 -0.0353865 -0.529089 0.790168 0.309354 -0.555403 0.735675 0.387697 
0.639338 0.767003 0.0543431 0.764684 0.632898 0.121238 0.638103 0.76877 0.0426306 
-0.552527 0.692137 0.464392 -0.562358 0.673084 0.480323 -0.589063 0.765348 0.259321 
0.775339 0.618893 0.125781 0.765791 0.639292 -0.0697919 -0.728202 0.505058 0.463291 
-0.735033 0.430241 0.524041 -0.821581 0.569614 0.0233375 0.904645 0.410298 0.115208 
-0.757781 0.282141 0.588358 0.963028 0.211781 0.166508 0.97238 0.160487 0.169474 
-0.815167 0.0476931 0.577259 0.987103 -0.0180368 0.159066 0.971809 -0.162358 0.170958 
0.961255 -0.0228759 -0.27471 -0.813755 -0.178593 0.553089 0.955649 -0.243109 0.166229 
-0.767764 -0.332085 0.547958 -0.7538 -0.360178 0.549598 0.888568 -0.428526 0.163745 
-0.750853 -0.41705 0.512141 -0.735602 -0.526713 0.425985 -0.85315 -0.520869 -0.0288219 
0.790658 -0.597341 0.13433 0.788668 -0.599994 0.134197 0.78981 -0.604535 0.103622 
-0.734129 -0.529286 0.425337 -0.74724 -0.540105 0.387193 0.640404 -0.761364 0.101033 
0.635687 -0.765439 0.10002 0.638577 -0.768327 0.04351 0.539004 -0.838749 0.0772979 
-0.723346 -0.584479 0.367634 -0.709121 -0.615062 0.344741 0.477516 -0.877667 0.0409723 
0.430827 -0.902417 0.00559534 0.345192 -0.82391 -0.449461 0.395442 -0.917958 -0.0312844 
-0.411674 -0.889496 0.198295 -0.643719 -0.717971 0.264846 -0.599601 -0.763124 0.241081 
0.306961 -0.950511 -0.0479925 0.276327 -0.959743 -0.0503623 0.292394 -0.938296 -0.184677 
0.180125 -0.983262 0.0274098 0.0373152 -0.999303 0.000523446 -0.129885 -0.990253 0.0502859 
-0.345263 -0.925707 0.154469 -0.254524 -0.961223 0.106151 0.354827 0.651276 -0.670774 
0.173391 0.789646 -0.588553 -0.0853904 0.825885 -0.557335 -0.272759 0.807057 -0.523699 
-0.317809 0.832762 -0.453327 0.433818 0.630575 -0.643565 0.40629 0.620903 -0.670378 
0.40796 0.57889 -0.706014 0.337288 0.563852 -0.753862 0.129435 0.533687 -0.835718 
-0.0380218 0.556421 -0.83003 -0.180308 0.648223 -0.739795 -0.323212 0.834349 -0.446538 
-0.309399 0.820268 -0.481074 -0.362686 0.817977 -0.446511 -0.407804 0.83342 -0.372971 
0.434096 0.630999 -0.642963 0.399764 0.688658 -0.604929 0.431439 0.629065 -0.646636 
0.279479 0.409347 -0.868519 0.293523 0.26363 -0.918882 0.173872 0.257798 -0.950426 
-0.0270911 0.271702 -0.962 -0.0676701 0.301581 -0.951036 -0.186751 0.348834 -0.918389 
-0.219325 0.571174 -0.790985 -0.412954 0.842543 -0.345818 -0.355111 0.786372 -0.505486 
-0.423969 0.844854 -0.326301 -0.564157 0.795386 -0.221559 0.419804 0.701426 -0.575991 
0.515829 0.694347 -0.5018 0.357794 0.676853 -0.643315 0.221196 0.443199 -0.868704 
0.150672 0.313678 -0.937499 0.17264 0.167549 -0.97063 -0.0710722 0.303335 -0.95023 
-0.168952 0.330903 -0.928417 -0.277387 0.618819 -0.734929 -0.600139 0.771751 -0.210316 
-0.538831 0.765357 -0.35198 -0.799388 0.582163 -0.148544 0.645354 0.608125 -0.46228 
0.703918 0.542764 -0.458156 0.42455 0.533131 -0.731798 0.101139 0.44048 -0.892047 
0.0567301 0.375954 -0.9249 0.0500197 0.108905 -0.992793 -0.385582 0.426085 -0.818399 
-0.81829 0.553222 -0.156032 -0.792063 0.5518 -0.261063 0.794314 0.381661 -0.472653 
0.677106 0.314857 -0.665126 -0.916998 0.3653 -0.160221 -0.679537 0.287616 -0.674913 
0.845208 0.196087 -0.497166 0.600669 0.145179 -0.786206 -0.992858 0.0740796 -0.0935206 
-0.563929 0.0848935 -0.821448 0.850811 -0.0274567 -0.524755 0.511137 0.0350318 -0.858785 
0.0221122 0.0532815 -0.998335 -0.966002 -0.24203 -0.0908931 -0.617695 -0.123796 -0.776613 
0.811745 -0.229532 -0.537015 0.559964 -0.217809 -0.799374 -0.932968 -0.340511 -0.116716 
-0.799447 -0.242918 -0.549432 0.774475 -0.35216 -0.525521 0.679199 -0.506938 -0.530756 
0.658551 -0.361384 -0.660085 0.374965 -0.229284 -0.898237 -0.852941 -0.520275 -0.0424949 
-0.851909 -0.522004 -0.0419871 -0.852476 -0.519966 -0.0540465 0.589984 -0.590268 -0.550911 
0.533439 -0.634091 -0.559796 0.470411 -0.472808 -0.745095 0.239202 -0.371278 -0.897182 
-0.796923 -0.590241 -0.128567 -0.786299 -0.60217 -0.138295 -0.75559 -0.559627 -0.340443 
0.484712 -0.665185 -0.567964 0.452444 -0.682599 -0.573893 0.404669 -0.612729 -0.678827 
0.313312 -0.754518 -0.576662 0.25825 -0.479562 -0.838646 0.213294 -0.415899 -0.884044 
-0.71964 -0.670556 -0.180201 -0.656006 -0.722352 -0.218778 -0.597133 -0.649203 -0.471135 
0.298405 -0.753072 -0.586376 0.281637 -0.722956 -0.630885 0.258795 -0.672409 -0.693464 
0.293334 -0.758038 -0.582524 0.251183 -0.565219 -0.78577 0.187023 -0.517609 -0.834927 
-0.131858 -0.519827 -0.844034 -0.355503 -0.859489 -0.367283 -0.274463 -0.633962 -0.723023 
-0.532825 -0.791153 -0.300292 -0.487815 -0.810435 -0.324395 -0.453603 -0.777615 -0.435384 
0.15924 -0.842865 -0.514024 0.133194 -0.85105 -0.50791 0.135066 -0.836857 -0.530497 
-0.00684099 -0.846856 -0.531778 -0.00596202 -0.843441 -0.537188 0.0163315 -0.873694 -0.486202 
0.0163822 -0.865841 -0.500051 -0.165781 -0.900943 -0.401021 -0.115459 -0.902165 -0.415652 
-0.112353 -0.88749 -0.446922 0.170971 0.236345 -0.956509 -0.0270595 0.271568 -0.962039 
-0.0564577 0.233047 -0.970825 -0.113983 0.229916 -0.966513 0.0329078 0.262225 -0.964446 
0.156596 0.106373 -0.981918 0.151889 0.0767728 -0.985411 0.0248401 0.107291 -0.993917 
-0.0483347 0.122964 -0.991233 -0.0697855 0.275764 -0.958689 -0.0720482 0.178007 -0.981388 
-0.0624192 0.292331 -0.954278 -0.124818 0.292843 -0.947979 -0.192869 0.421121 -0.886261 
0.325209 0.26095 -0.908925 0.0959496 0.391654 -0.915096 0.033329 0.312579 -0.949307 
0.0456577 0.354143 -0.934076 0.0353099 0.15853 -0.986723 0.00662387 0.250821 -0.968011 
0.0599621 0.102314 -0.992943 0.0343274 0.0995554 -0.99444 0.123557 0.0735379 -0.989609 
0.0236898 0.0402143 -0.99891 -0.000518598 0.101808 -0.994804 0.0151072 0.144455 -0.989396 
0.00754805 0.214126 -0.976777 -0.00361881 0.244298 -0.969693 -0.288449 0.376009 -0.880576 
-0.158693 0.321225 -0.933612 -0.33341 0.366001 -0.868839 0.338354 0.236941 -0.9107 
0.320124 0.23565 -0.9176 0.119354 0.217136 -0.968817 -0.0183256 0.217756 -0.975831 
-0.108284 0.139118 -0.984338 -0.0112885 0.0665172 -0.997721 0.0947138 0.0523809 -0.994125 
0.0546739 0.0182663 -0.998337 0.0599709 0.221071 -0.973412 0.035371 0.226129 -0.973455 
0.0142936 0.13949 -0.99012 -0.00989492 0.157197 -0.987518 -0.0822748 0.197014 -0.976942 
-0.442626 0.269209 -0.855341 -0.276555 0.269498 -0.922436 0.416125 0.0919263 -0.904649 
0.317102 0.047853 -0.947183 0.135317 0.0110257 -0.990741 -0.0354441 0.00389222 -0.999364 
-0.176263 -0.00869891 -0.984305 0.0129697 0.0392543 -0.999145 -0.0542403 -0.0533318 -0.997103 
0.0939888 0.087548 -0.991716 0.18663 0.0799982 -0.979168 0.219201 0.151666 -0.96382 
-0.075439 0.127816 -0.988925 -0.0571656 0.0726161 -0.99572 0.0380136 0.113767 -0.99278 
-0.0584355 0.0968525 -0.993582 -0.55366 0.0839114 -0.828504 -0.238762 0.0588116 -0.969296 
0.41716 0.0112888 -0.908763 0.191357 -0.0657547 -0.979315 0.0845805 -0.103025 -0.991076 
-0.0388607 -0.104185 -0.993798 0.0118615 0.0461739 -0.998863 -0.158942 -0.0475034 -0.986144 
0.0331965 0.0561943 -0.997868 0.0283832 0.0615236 -0.997702 0.342787 0.111389 -0.932786 
0.112672 0.293332 -0.949348 0.0574354 -0.0196989 -0.998155 -0.044675 -0.0339718 -0.998424 
0.00874356 0.084201 -0.99641 0.0146135 0.05967 -0.998111 -0.123656 0.0184849 -0.992153 
-0.522973 -0.100235 -0.846435 -0.297272 -0.0484848 -0.953561 0.27279 -0.22684 -0.934949 
0.239441 -0.217058 -0.946337 0.21558 -0.217384 -0.951982 0.0893242 -0.0680699 -0.993674 
0.0217813 -0.0459547 -0.998706 -0.0183311 0.0478925 -0.998684 0.096581 0.174582 -0.979895 
0.279031 0.010027 -0.96023 0.0712071 0.0295088 -0.997025 -0.058515 -0.0305454 -0.997819 
0.0367394 0.0016776 -0.999323 0.0315293 0.0719467 -0.99691 -0.0265934 0.00577402 -0.99963 
-0.162735 -0.0340837 -0.986081 -0.592152 -0.164139 -0.788933 -0.359424 -0.0835383 -0.929428 
0.285985 -0.176543 -0.941831 0.212378 -0.252905 -0.943893 0.211631 -0.151962 -0.965464 
0.0782224 -0.105673 -0.99132 0.061309 -0.00376111 -0.998112 0.0723793 0.0767576 -0.994419 
0.137154 0.0429934 -0.989616 0.0572268 -0.0590958 -0.996611 0.012021 0.00519498 -0.999914 
0.0573271 -0.0133455 -0.998266 0.0119371 -0.0412741 -0.999077 -0.0858664 -0.092023 -0.992048 
-0.219352 -0.195511 -0.955856 -0.533377 -0.395957 -0.747481 -0.526032 -0.418418 -0.740416 
-0.494159 -0.379211 -0.782308 0.190695 -0.282747 -0.940048 0.191209 -0.284586 -0.939388 
0.18904 -0.275974 -0.942392 0.206089 -0.373925 -0.904272 0.164776 -0.174969 -0.970688 
0.155309 -0.112282 -0.981464 0.131706 -0.0663009 -0.989069 0.0453294 -0.0653714 -0.996831 
-0.0129525 -0.0674232 -0.99764 -0.00975272 -0.105291 -0.994394 -0.048085 -0.169325 -0.984387 
-0.16611 -0.231333 -0.958589 -0.509117 -0.405695 -0.759086 -0.458126 -0.46509 -0.757504 
-0.375039 -0.3319 -0.865556 0.200215 -0.391094 -0.898309 0.189655 -0.385868 -0.902849 
0.176851 -0.340958 -0.923294 0.18505 -0.446294 -0.875544 0.175327 -0.307935 -0.935113 
0.0571287 -0.27725 -0.959098 -0.0204061 -0.2579 -0.965956 -0.130979 -0.516167 -0.846413 
-0.0463554 -0.274817 -0.960378 -0.208082 -0.50922 -0.835103 -0.132282 -0.35323 -0.926137 
-0.362601 -0.520512 -0.773038 -0.294084 -0.534194 -0.79256 -0.258686 -0.449486 -0.855011 
0.126448 -0.512148 -0.849538 0.107205 -0.529472 -0.841526 0.107876 -0.513464 -0.851304 
-0.125581 -0.517503 -0.846416 -0.0208514 -0.532892 -0.845927 -0.0219161 -0.490163 -0.871355 

