# vtk DataFile Version 4.2
vtk output
ASCII
DATASET POLYDATA
POINTS 530 float
-35.0841 -35.5793 -13.0067 -27.3192 -35.5793 -15.432 -19.5544 -35.5793 -16.7896 
-11.7895 -35.5793 -15.6993 -4.02461 -35.5793 -14.6733 3.74026 -35.5793 -14.2642 
11.5051 -35.5793 -13.9969 -42.849 -27.8145 -14.3683 -35.0841 -27.8145 -17.2103 
-27.3192 -27.8145 -18.0564 -19.5544 -27.8145 -19.0813 -11.7895 -27.8145 -18.0679 
-4.02461 -27.8145 -17.008 3.74026 -27.8145 -16.4275 11.5051 -27.8145 -16.6918 
19.27 -27.8145 -16.5043 27.0349 -27.8145 -16.0693 34.7998 -27.8145 -15.4416 
42.5646 -27.8145 -13.0508 -50.6139 -20.0496 -13.4187 -42.849 -20.0496 -17.0005 
-35.0841 -20.0496 -18.251 -27.3192 -20.0496 -18.8085 -19.5544 -20.0496 -18.7572 
-11.7895 -20.0496 -18.1707 -4.02461 -20.0496 -17.121 3.74026 -20.0496 -16.6703 
11.5051 -20.0496 -16.5168 19.27 -20.0496 -17.2938 27.0349 -20.0496 -18.7925 
34.7998 -20.0496 -18.9366 42.5646 -20.0496 -17.9356 50.3295 -20.0496 -15.4329 
-50.6139 -12.2847 -15.3017 -42.849 -12.2847 -18.7911 -35.0841 -12.2847 -19.168 
-27.3192 -12.2847 -18.6448 -19.5544 -12.2847 -17.6753 -11.7895 -12.2847 -17.2082 
-4.02461 -12.2847 -17.4961 3.74026 -12.2847 -18.1991 11.5051 -12.2847 -16.3103 
19.27 -12.2847 -17.4214 27.0349 -12.2847 -19.0117 34.7998 -12.2847 -19.9584 
42.5646 -12.2847 -19.6198 50.3295 -12.2847 -16.9298 -50.6139 -4.51984 -15.7715 
-42.849 -4.51984 -18.2964 -35.0841 -4.51984 -19.4214 -27.3192 -4.51984 -18.4888 
-19.5544 -4.51984 -16.8927 -11.7895 -4.51984 -17.9086 -4.02461 -4.51984 -18.5943 
3.74026 -4.51984 -18.8592 11.5051 -4.51984 -18.4761 19.27 -4.51984 -17.258 
27.0349 -4.51984 -18.5353 34.7998 -4.51984 -19.4475 42.5646 -4.51984 -18.5 
50.3295 -4.51984 -16.7104 -50.6139 3.24504 -14.7178 -42.849 3.24504 -18.5612 
-35.0841 3.24504 -19.0291 -27.3192 3.24504 -18.2743 -19.5544 3.24504 -16.9639 
-11.7895 3.24504 -19.4859 -4.02461 3.24504 -18.0134 3.74026 3.24504 -16.3989 
11.5051 3.24504 -19.2069 19.27 3.24504 -16.6324 27.0349 3.24504 -16.8839 
34.7998 3.24504 -17.3128 42.5646 3.24504 -16.8537 50.3295 3.24504 -14.6487 
-42.849 11.0099 -16.7829 -35.0841 11.0099 -18.1093 -27.3192 11.0099 -18.0843 
-19.5544 11.0099 -17.4177 -11.7895 11.0099 -17.3411 -4.02461 11.0099 -18.8367 
3.74026 11.0099 -18.5524 11.5051 11.0099 -19.1864 19.27 11.0099 -17.8962 
27.0349 11.0099 -16.7889 34.7998 11.0099 -16.2701 42.5646 11.0099 -14.0684 
-42.849 18.7748 -15.118 -35.0841 18.7748 -17.4098 -27.3192 18.7748 -18.6634 
-19.5544 18.7748 -18.1064 -11.7895 18.7748 -17.5386 -4.02461 18.7748 -17.1135 
3.74026 18.7748 -16.4896 11.5051 18.7748 -17.1254 19.27 18.7748 -17.8054 
27.0349 18.7748 -16.9571 34.7998 18.7748 -14.4936 -35.0841 26.5397 -15.9099 
-27.3192 26.5397 -17.4206 -19.5544 26.5397 -18.7449 -11.7895 26.5397 -18.0079 
-4.02461 26.5397 -17.7036 3.74026 26.5397 -16.5489 11.5051 26.5397 -15.9552 
19.27 26.5397 -15.6459 27.0349 26.5397 -14.8692 -27.3192 34.3045 -15.7951 
-19.5544 34.3045 -17.2497 -11.7895 34.3045 -17.5867 -4.02461 34.3045 -17.1811 
3.74026 34.3045 -15.6647 11.5051 34.3045 -14.4855 -19.5544 42.0694 -14.208 
-11.7895 42.0694 -14.846 -4.02461 42.0694 -14.7058 3.74026 42.0694 -13.8028 
-35.0841 -35.8211 -12.7983 -27.3192 -38.7087 -12.7983 -19.5544 -39.8659 -12.7983 
-19.5544 -43.3442 -6.09387 -11.7895 -39.3145 -12.7983 -4.02461 -38.0008 -12.7983 
3.74026 -37.4496 -12.7983 11.5051 -37.1156 -12.7983 -35.536 -35.5793 -12.7983 
-42.849 -30.4132 -12.7983 19.2338 -35.5793 -12.7983 19.27 -35.5678 -12.7983 
19.27 -35.5793 -12.789 27.0349 -33.7898 -12.7983 27.0349 -35.5793 -10.5126 
34.7998 -30.8644 -12.7983 42.5646 -28.1069 -12.7983 -45.7181 -27.8145 -12.7983 
-50.6139 -21.2084 -12.7983 -50.6139 -27.8145 -5.7299 43.2348 -27.8145 -12.7983 
50.3295 -23.6268 -12.7983 50.3295 -27.8145 -7.0808 -51.239 -20.0496 -12.7983 
54.3865 -20.0496 -12.7983 58.0944 -20.0496 -6.70464 -54.4867 -12.2847 -12.7983 
56.6253 -12.2847 -12.7983 58.0944 -12.2847 -11.1525 -54.9078 -4.51984 -12.7983 
57.5773 -4.51984 -12.7983 58.0944 -4.51984 -12.3703 -53.2325 3.24504 -12.7983 
-50.6139 9.36601 -12.7983 54.1065 3.24504 -12.7983 50.3295 7.20636 -12.7983 
58.0944 3.24504 -9.27628 -49.6734 11.0099 -12.7983 -50.6139 11.0099 -11.6939 
45.7458 11.0099 -12.7983 42.5646 15.2157 -12.7983 50.3295 11.0099 -10.5149 
-45.8766 18.7748 -12.7983 -42.849 23.4716 -12.7983 39.5033 18.7748 -12.7983 
34.7998 24.5521 -12.7983 42.5646 18.7748 -11.4588 50.3295 18.7748 -6.12877 
-40.101 26.5397 -12.7983 -42.849 26.5397 -8.80597 -35.0841 33.3884 -12.7983 
19.27 33.6132 -12.7983 33.1282 26.5397 -12.7983 27.0349 30.3315 -12.7983 
34.7998 26.5397 -11.9632 42.5646 26.5397 -5.56432 -34.1476 34.3045 -12.7983 
-35.0841 34.3045 -11.891 -27.3192 39.5563 -12.7983 18.0406 34.3045 -12.7983 
11.5051 37.3836 -12.7983 19.27 34.3045 -12.4052 27.0349 34.3045 -8.73034 
-23.5375 42.0694 -12.7983 -27.3192 42.0694 -9.71136 -19.5544 43.7892 -12.7983 
-11.7895 44.6714 -12.7983 -4.02461 44.5413 -12.7983 6.15058 42.0694 -12.7983 
3.74026 43.4919 -12.7983 11.5051 42.0694 -9.0456 -19.5544 -43.7266 -5.0334 
-35.0841 -39.761 -5.0334 -22.7976 -43.3442 -5.0334 -27.3192 -42.7554 -5.0334 
-13.2216 -43.3442 -5.0334 -19.5544 -43.3442 -2.06976 -11.7895 -43.2521 -5.0334 
-4.02461 -42.3247 -5.0334 3.74026 -41.6699 -5.0334 11.5051 -41.4062 -5.0334 
19.27 -40.0546 -5.0334 27.0349 -38.059 -5.0334 -50.6139 -28.2073 -5.0334 
-42.613 -35.5793 -5.0334 -42.849 -35.4202 -5.0334 33.18 -35.5793 -5.0334 
34.7998 -34.9302 -5.0334 42.5646 -32.23 -5.0334 50.3295 -28.5816 -5.0334 
-50.9113 -27.8145 -5.0334 -50.6139 -27.8145 -1.52221 51.3688 -27.8145 -5.0334 
50.3295 -27.8145 1.44231 58.0944 -20.7064 -5.0334 -55.7874 -20.0496 -5.0334 
58.6638 -20.0496 -5.0334 58.0944 -20.0496 -2.0607 -58.1801 -12.2847 -5.0334 
61.8861 -12.2847 -5.0334 -58.319 -4.51984 -5.0334 62.3908 -4.51984 -5.0334 
-56.7625 3.24504 -5.0334 60.7286 3.24504 -5.0334 58.0944 8.72119 -5.0334 
-53.8007 11.0099 -5.0334 -50.6139 16.9973 -5.0334 56.6392 11.0099 -5.0334 
58.0944 11.0099 0.82459 -49.5965 18.7748 -5.0334 51.1886 18.7748 -5.0334 
50.3295 19.6566 -5.0334 -44.4444 26.5397 -5.0334 -42.849 28.8644 -5.0334 
-42.849 26.5397 0.690898 34.7998 31.8467 -5.0334 43.0331 26.5397 -5.0334 
42.5646 26.9126 -5.0334 -38.617 34.3045 -5.0334 -35.0841 38.042 -5.0334 
19.27 40.5231 -5.0334 30.7196 34.3045 -5.0334 27.0349 36.3194 -5.0334 
-30.3757 42.0694 -5.0334 -27.3192 44.1844 -5.0334 -19.5544 47.7708 -5.0334 
-11.7895 49.6095 -5.0334 -4.02461 49.7863 -5.0334 3.74026 48.3043 -5.0334 
16.5502 42.0694 -5.0334 11.5051 44.9386 -5.0334 -35.0841 -39.2026 2.73147 
-27.3192 -42.0179 2.73147 -19.5544 -42.6719 2.73147 -11.7895 -42.4759 2.73147 
-4.02461 -41.5209 2.73147 3.74026 -40.3802 2.73147 11.5051 -39.4822 2.73147 
19.27 -38.5138 2.73147 27.0349 -36.7524 2.73147 -41.7109 -35.5793 2.73147 
-42.849 -34.883 2.73147 11.5051 -35.5793 9.28483 19.27 -35.5793 8.07611 
30.703 -35.5793 2.73147 27.0349 -35.5793 5.51486 34.7998 -34.2352 2.73147 
42.5646 -31.15 2.73147 -50.2494 -27.8145 2.73147 -50.6139 -27.2741 2.73147 
49.9353 -27.8145 2.73147 42.5646 -27.8145 9.04318 50.3295 -27.5833 2.73147 
-54.7534 -20.0496 2.73147 -50.6139 -20.0496 10.2956 57.09 -20.0496 2.73147 
58.0944 -18.5536 2.73147 -57.374 -12.2847 2.73147 61.3444 -12.2847 2.73147 
58.0944 -12.2847 8.28482 -56.943 -4.51984 2.73147 63.0462 -4.51984 2.73147 
-55.2668 3.24504 2.73147 -50.6139 3.24504 10.3427 61.786 3.24504 2.73147 
-52.0621 11.0099 2.73147 -50.6139 13.5893 2.73147 -50.6139 11.0099 5.1126 
58.4498 11.0099 2.73147 58.0944 11.6214 2.73147 58.0944 11.0099 3.66101 
-47.541 18.7748 2.73147 -42.849 25.6383 2.73147 -42.849 18.7748 8.96649 
52.912 18.7748 2.73147 50.3295 21.2671 2.73147 50.3295 18.7748 8.33033 
-42.155 26.5397 2.73147 -35.0841 26.5397 10.4538 34.7998 31.4502 2.73147 
43.2845 26.5397 2.73147 42.5646 27.0128 2.73147 42.5646 26.5397 3.81081 
-36.1036 34.3045 2.73147 -35.0841 35.4373 2.73147 -35.0841 34.3045 4.05079 
19.27 39.5614 2.73147 19.27 34.3045 9.74305 28.9246 34.3045 2.73147 
27.0349 35.3101 2.73147 27.0349 34.3045 4.38007 -27.8514 42.0694 2.73147 
-27.3192 42.4566 2.73147 -27.3192 42.0694 3.34899 -19.5544 46.4291 2.73147 
-19.5544 42.0694 9.50256 -11.7895 48.2958 2.73147 -4.02461 48.7388 2.73147 
3.74026 47.636 2.73147 15.3808 42.0694 2.73147 11.5051 44.2574 2.73147 
11.5051 42.0694 6.33423 -35.0841 -35.6381 10.4964 -27.3192 -37.7044 10.4964 
-19.5544 -38.7007 10.4964 -11.7895 -38.7981 10.4964 -4.02461 -37.9819 10.4964 
3.74026 -36.1661 10.4964 -35.1927 -35.5793 10.4964 -42.849 -30.0744 10.4964 
-35.0841 -35.5793 10.57 -27.3192 -35.5793 12.6017 -19.5544 -35.5793 13.6469 
-11.7895 -35.5793 13.911 -4.02461 -35.5793 12.8295 6.95452 -35.5793 10.4964 
3.74026 -35.5793 11.1297 11.5051 -34.4897 10.4964 19.27 -33.7523 10.4964 
27.0349 -32.8325 10.4964 34.7998 -30.2919 10.4964 -45.1232 -27.8145 10.4964 
-42.849 -27.8145 12.6033 -35.0841 -27.8145 16.3932 -27.3192 -27.8145 17.7729 
-19.5544 -27.8145 17.9226 -11.7895 -27.8145 17.0952 -4.02461 -27.8145 16.8718 
3.74026 -27.8145 15.7142 11.5051 -27.8145 15.1332 19.27 -27.8145 15.1315 
27.0349 -27.8145 15.1066 40.6391 -27.8145 10.4964 34.7998 -27.8145 13.0659 
42.5646 -26.731 10.4964 50.3295 -20.9868 10.4964 -50.458 -20.0496 10.4964 
-50.6139 -19.4625 10.4964 -42.849 -20.0496 16.3257 -4.02461 -20.0496 17.9086 
3.74026 -20.0496 17.3689 11.5051 -20.0496 17.1647 34.7998 -20.0496 17.5646 
42.5646 -20.0496 15.0854 51.257 -20.0496 10.4964 50.3295 -20.0496 11.2226 
-52.2882 -12.2847 10.4964 -50.6139 -12.2847 12.2558 -42.849 -12.2847 17.7836 
-11.7895 -12.2847 18.206 11.5051 -12.2847 18.0915 42.5646 -12.2847 17.675 
56.0117 -12.2847 10.4964 50.3295 -12.2847 14.7516 58.0944 -7.72965 10.4964 
-51.8232 -4.51984 10.4964 -50.6139 2.59626 10.4964 -50.6139 -4.51984 11.8118 
-42.849 -4.51984 17.5673 50.3295 -4.51984 16.0636 59.09 -4.51984 10.4964 
58.0944 -4.51984 11.531 -50.4777 3.24504 10.4964 -42.849 3.24504 16.222 
50.3295 3.24504 15.9805 58.3167 3.24504 10.4964 58.0944 3.8755 10.4964 
58.0944 3.24504 10.7466 -46.219 11.0099 10.4964 -42.849 16.4232 10.4964 
[...]
POINT_DATA 530
SCALARS ImageScalars float
LOOKUP_TABLE default
0 0 0 0 0 0 0 0 0 
0 0 0 0 0 0 0 0 0 
0 0 0 0 0 0 0 0 0 
0 0 0 0 0 0 0 0 0 
0 0 0 0 0 0 0 0 0 
0 0 0 0 0 0 0 0 0 
0 0 0 0 0 0 0 0 0 
0 0 0 0 0 0 0 0 0 
0 0 0 0 0 0 0 0 0 
0 0 0 0 0 0 0 0 0 
0 0 0 0 0 0 0 0 0 
0 0 0 0 0 0 0 0 0 
0 0 0 0 0 0 0 0 0 
0 0 0 0 0 0 0 0 0 
0 0 0 0 0 0 0 0 0 
0 0 0 0 0 0 0 0 0 
0 0 0 0 0 0 0 0 0 
0 0 0 0 0 0 0 0 0 
0 0 0 0 0 0 0 0 0 
0 0 0 0 0 0 0 0 0 
0 0 0 0 0 0 0 0 0 
0 0 0 0 0 0 0 0 0 
0 0 0 0 0 0 0 0 0 
0 0 0 0 0 0 0 0 0 
0 0 0 0 0 0 0 0 0 
0 0 0 0 0 0 0 0 0 
0 0 0 0 0 0 0 0 0 
0 0 0 0 0 0 0 0 0 
0 0 0 0 0 0 0 0 0 
0 0 0 0 0 0 0 0 0 
0 0 0 0 0 0 0 0 0 
0 0 0 0 0 0 0 0 0 
0 0 0 0 0 0 0 0 0 
0 0 0 0 0 0 0 0 0 
0 0 0 0 0 0 0 0 0 
0 0 0 0 0 0 0 0 0 
0 0 0 0 0 0 0 0 0 
0 0 0 0 0 0 0 0 0 
0 0 0 0 0 0 0 0 0 
0 0 0 0 0 0 0 0 0 
0 0 0 0 0 0 0 0 0 
0 0 0 0 0 0 0 0 0 
0 0 0 0 0 0 0 0 0 
0 0 0 0 0 0 0 0 0 
0 0 0 0 0 0 0 0 0 
0 0 0 0 0 0 0 0 0 
0 0 0 0 0 0 0 0 0 
0 0 0 0 0 0 0 0 0 
0 0 0 0 0 0 0 0 0 
0 0 0 0 0 0 0 0 0 
0 0 0 0 0 0 0 0 0 
0 0 0 0 0 0 0 0 0 
0 0 0 0 0 0 0 0 0 
0 0 0 0 0 0 0 0 0 
0 0 0 0 0 0 0 0 0 
0 0 0 0 0 0 0 0 0 
0 0 0 0 0 0 0 0 0 
0 0 0 0 0 0 0 0 0 
0 0 0 0 0 0 0 0 
NORMALS Normals float
0.338606 0.622804 0.705309 0.217537 0.522075 0.824691 0.0075571 0.511688 0.859138 
-0.121785 0.492945 0.861495 -0.092391 0.509263 0.855637 -0.0435389 0.518588 0.853915 
-0.0806506 0.55992 0.824612 0.408578 0.42115 0.809751 0.235075 0.31438 0.919731 
0.109987 0.18898 0.975802 -0.000308419 0.0913745 0.995817 -0.126653 0.147832 0.980869 
-0.105297 0.148064 0.983356 -0.0172612 0.144465 0.989359 0.00544534 0.144549 0.989483 
-0.04166 0.242405 0.96928 -0.0594578 0.404696 0.912516 -0.172287 0.57863 0.797185 
-0.29643 0.661749 0.688634 0.608979 0.335852 0.718573 0.24793 0.268248 0.9309 
0.107369 0.115955 0.987434 0.0314765 0.0360239 0.998855 -0.0409944 -0.0893355 0.995158 
-0.101198 -0.0527677 0.993466 -0.0982011 0.0303479 0.994704 -0.037117 0.0942122 0.99486 
0.0398728 -0.025239 0.998886 0.14089 0.0551826 0.988486 0.108661 0.191056 0.975546 
-0.0468989 0.247967 0.967633 -0.186624 0.371629 0.90943 -0.434449 0.401598 0.806209 
0.496091 0.11624 0.860454 0.232218 0.0672207 0.970338 -0.012226 0.0745509 0.997142 
-0.0949894 -0.0204906 0.995267 -0.0906583 -0.115054 0.989214 -0.0126488 -0.0270599 0.999554 
0.0569772 0.0886531 0.994432 -0.0880196 0.146862 0.985233 -0.0277673 0.102563 0.994339 
0.171812 -0.00169931 0.985128 0.15993 -0.0146063 0.98702 0.0412127 0.0378584 0.998433 
-0.192737 0.0270383 0.980878 -0.411012 0.0536858 0.910048 0.484876 -0.0339209 0.873925 
0.218746 -0.0128331 0.975697 0.0177653 -0.00872346 0.999804 -0.153423 -0.0238609 0.987872 
-0.053668 -0.0478472 0.997412 0.112678 0.134339 0.984508 0.0569176 0.0491299 0.997169 
-0.00631284 -0.114788 0.99337 -0.102663 0.198936 0.97462 0.0133002 -0.0526432 0.998525 
0.132598 -0.140183 0.981207 -0.00306817 -0.165607 0.986187 -0.150577 -0.17 0.973872 
-0.385294 -0.152476 0.91011 0.554775 -0.202114 0.807078 0.248979 -0.0774167 0.96541 
-0.0225074 -0.0840981 0.996203 -0.126648 -0.0261336 0.991603 0.035047 0.034569 0.998788 
0.102108 -0.0650156 0.992646 -0.200682 0.0228924 0.979389 0.100937 0.0169147 0.994749 
-0.0289934 0.0398108 0.998787 -0.127194 0.036206 0.991217 0.0419273 -0.104948 0.993594 
-0.000213509 -0.201669 0.979454 -0.164509 -0.268377 0.949163 -0.360325 -0.312811 0.878814 
0.34167 -0.220694 0.91354 0.0716622 -0.107942 0.991571 -0.0444337 0.0238941 0.998727 
-0.0475277 0.071331 0.99632 0.0905913 -0.0933616 0.991502 0.0790135 -0.0770886 0.993888 
0.0238817 -0.0248881 0.999405 -0.0364736 -0.134188 0.990284 -0.158395 0.0790044 0.98421 
-0.0998433 0.00412434 0.994995 -0.158213 -0.158083 0.974668 -0.326674 -0.290696 0.899322 
0.506549 -0.290619 0.811756 0.212666 -0.122069 0.96947 0.051602 -0.0412548 0.997815 
-0.0708933 0.0835168 0.993981 -0.0636774 0.0423998 0.997069 -0.0671078 -0.0664324 0.995532 
8.7442e-05 -0.123571 0.992336 0.0842275 -0.212139 0.973603 -0.00903159 -0.139589 0.990168 
-0.197097 -0.114236 0.973706 -0.291986 -0.250228 0.923109 0.33572 -0.325501 0.883935 
0.163682 -0.166233 0.972407 0.0342966 -0.0582656 0.997712 -0.0649573 0.00419933 0.997879 
-0.0940719 0.00585553 0.995548 -0.112897 -0.050344 0.99233 -0.0562852 -0.151082 0.986917 
-0.0677621 -0.310904 0.948023 -0.203817 -0.375951 0.903946 0.304658 -0.362674 0.88071 
0.0982172 -0.265371 0.959131 -0.00226994 -0.177308 0.984153 -0.120956 -0.170766 0.977859 
-0.158353 -0.173575 0.972006 -0.191691 -0.342126 0.919894 0.195147 -0.57853 0.791972 
0.032412 -0.507715 0.860915 -0.0684493 -0.481572 0.873729 -0.256381 -0.460574 0.849788 
0.341908 0.634249 0.693417 0.206672 0.70761 0.675703 0.0288425 0.749146 0.661777 
0.0289201 0.983411 0.179073 -0.0931076 0.703887 0.704183 -0.0949461 0.647599 0.756043 
-0.0450435 0.635932 0.770429 -0.0933221 0.64751 0.756321 0.34974 0.630951 0.692519 
0.450802 0.532724 0.716229 -0.148712 0.65078 0.744561 -0.148855 0.650553 0.74473 
-0.149109 0.651601 0.743763 -0.197935 0.653882 0.730247 -0.268271 0.806985 0.526123 
-0.237773 0.722784 0.648881 -0.301343 0.673597 0.674877 0.509517 0.473094 0.718731 
0.626709 0.372378 0.684522 0.777246 0.603019 0.179602 -0.315086 0.670374 0.671803 
-0.476581 0.594988 0.647194 -0.546012 0.803851 0.235998 0.638267 0.349056 0.68613 
-0.614556 0.448742 0.648808 -0.808431 0.562233 0.174164 0.682271 0.17295 0.710348 
-0.675859 0.0952881 0.730846 -0.778171 0.127616 0.61495 0.72726 -0.0583852 0.683875 
-0.63839 -0.0666778 0.766819 -0.669797 -0.0618736 0.739962 0.680514 -0.232916 0.694731 
0.635456 -0.340125 0.693189 -0.505811 -0.33143 0.796435 -0.413773 -0.342857 0.843351 
-0.73968 -0.345071 0.577754 0.620093 -0.351371 0.701443 0.702002 -0.390423 0.59562 
-0.390023 -0.329203 0.859946 -0.363103 -0.345554 0.865303 -0.50808 -0.406567 0.759314 
0.666277 -0.368709 0.648173 0.643742 -0.442225 0.624527 -0.3491 -0.33577 0.874864 
-0.383567 -0.408299 0.828353 -0.423513 -0.418328 0.803516 -0.665665 -0.601124 0.442199 
0.593016 -0.468762 0.654672 0.786963 -0.549372 0.280856 0.510623 -0.502286 0.697835 
-0.222206 -0.513031 0.82911 -0.368605 -0.446709 0.815219 -0.279618 -0.524152 0.804412 
-0.427384 -0.497336 0.754983 -0.612515 -0.718124 0.330337 0.502396 -0.505429 0.701526 
0.561967 -0.554131 0.614111 0.392932 -0.576777 0.716193 -0.231208 -0.506738 0.830518 
-0.290043 -0.447125 0.846141 -0.248325 -0.549324 0.797858 -0.419228 -0.794062 0.440129 
0.306286 -0.640896 0.703876 0.479571 -0.762722 0.433897 0.210657 -0.669923 0.711917 
0.0416458 -0.634431 0.771857 -0.0575149 -0.606014 0.793372 -0.306261 -0.50513 0.806875 
-0.256918 -0.543675 0.799006 -0.458967 -0.709419 0.534859 0.0300249 0.992699 0.116825 
0.403327 0.903083 0.147544 0.118804 0.985291 0.122831 0.240663 0.961097 0.135548 
-0.0659571 0.989338 0.129847 0.0282052 0.999269 -0.0258136 -0.0874636 0.987147 0.13376 
-0.103354 0.982193 0.15689 -0.0592666 0.990376 0.125069 -0.106657 0.990384 0.0881134 
-0.210134 0.970846 0.115331 -0.313846 0.942742 0.112864 0.777771 0.612895 0.139398 
0.553288 0.819531 0.149137 0.558947 0.815464 0.150321 -0.335267 0.931884 0.13852 
-0.340251 0.92861 0.148027 -0.396142 0.909895 0.123139 -0.547695 0.828225 0.118635 
0.784435 0.604605 0.138257 0.801013 0.597698 -0.0336757 -0.581743 0.804861 0.117363 
-0.550763 0.800476 -0.236429 -0.800839 0.595474 0.0637745 0.907203 0.398062 0.136123 
-0.812721 0.578522 0.0692578 -0.798858 0.595941 -0.0817261 0.982978 0.155075 0.0985215 
-0.956014 0.202821 0.211899 0.994286 -0.0885884 0.0595676 -0.948193 -0.0662306 0.310716 
0.960248 -0.272012 0.0627131 -0.875788 -0.326585 0.35544 -0.804756 -0.44187 0.396383 
0.902616 -0.423815 0.0752607 0.862177 -0.500925 0.0756673 -0.756415 -0.485343 0.438496 
-0.874165 -0.484648 0.0308676 0.849278 -0.523243 0.0703189 -0.689644 -0.615365 0.381729 
-0.678527 -0.631173 0.375795 0.83236 -0.552281 0.0465015 0.817881 -0.574031 0.0394748 
0.781796 -0.559563 -0.275109 -0.513837 -0.828866 0.221254 -0.616581 -0.726138 0.304221 
-0.610538 -0.733715 0.298169 0.749547 -0.661107 0.0334204 0.692473 -0.720029 0.0451595 
-0.486531 -0.844405 0.224203 -0.480396 -0.859409 0.175032 -0.463653 -0.870578 0.164683 
0.583576 -0.809246 0.0675278 0.514191 -0.853255 0.0869707 0.320521 -0.940071 0.116326 
0.126774 -0.982556 0.136058 -0.0764019 -0.984112 0.16027 -0.285733 -0.940599 0.183383 
-0.486726 -0.842764 0.229884 -0.47497 -0.851163 0.22344 0.39238 0.891446 -0.226631 
0.207495 0.944655 -0.25411 0.0268547 0.962598 -0.269601 -0.0721215 0.968402 -0.23874 
-0.130282 0.964642 -0.229111 -0.125817 0.945553 -0.300166 -0.115075 0.925314 -0.36132 
-0.167769 0.926371 -0.33718 -0.258191 0.926132 -0.274986 0.515207 0.827736 -0.222294 
0.54286 0.809311 -0.224318 -0.117484 0.763578 -0.634938 -0.111671 0.826014 -0.552476 
-0.284789 0.924058 -0.254976 -0.237254 0.896971 -0.373034 -0.319542 0.915419 -0.244748 
-0.408032 0.869642 -0.277908 0.7856 0.569705 -0.241391 0.795835 0.554214 -0.243912 
-0.534808 0.788289 -0.304273 -0.404826 0.742384 -0.533838 -0.544753 0.780718 -0.306143 
0.879361 0.380197 -0.286662 0.737348 0.301704 -0.604395 -0.74181 0.593135 -0.312904 
-0.779647 0.545341 -0.307821 0.947754 0.128786 -0.291849 -0.907305 0.311125 -0.282841 
-0.750212 0.33558 -0.569709 0.933245 -0.121966 -0.337901 -0.982006 0.0243795 -0.187272 
0.886693 -0.292905 -0.357747 0.721846 -0.238847 -0.649531 -0.955278 -0.26045 -0.140035 
0.823229 -0.440438 -0.358202 0.811086 -0.463132 -0.35728 0.786701 -0.433597 -0.439426 
-0.878784 -0.469635 -0.0847493 -0.87123 -0.483797 -0.0830599 -0.872993 -0.467797 -0.138018 
0.779671 -0.501786 -0.374599 0.742273 -0.542798 -0.392938 0.638383 -0.456107 -0.620028 
-0.732576 -0.676813 -0.0725001 -0.6772 -0.730995 -0.0839421 -0.639647 -0.651664 -0.407659 
0.73669 -0.545356 -0.399843 0.559213 -0.440891 -0.702066 -0.422466 -0.872569 -0.245245 
-0.545217 -0.822582 -0.161548 -0.535796 -0.82721 -0.169253 -0.525527 -0.822699 -0.216765 
0.687572 -0.60186 -0.406212 0.67589 -0.617518 -0.402299 0.670039 -0.590396 -0.449977 
-0.503207 -0.811678 -0.296584 -0.415503 -0.654954 -0.631184 -0.430338 -0.848084 -0.309131 
-0.43886 -0.839096 -0.321434 -0.417512 -0.819732 -0.392075 0.5439 -0.756882 -0.362357 
0.532161 -0.766619 -0.359304 0.534618 -0.753656 -0.382342 0.326437 -0.882972 -0.337341 
0.320689 -0.713922 -0.622474 0.137913 -0.933253 -0.331692 -0.0416343 -0.948567 -0.313826 
-0.256517 -0.924147 -0.283111 -0.490585 -0.825535 -0.278961 -0.455038 -0.843633 -0.284998 
-0.427476 -0.787198 -0.444505 0.336081 0.756346 -0.56124 0.167691 0.749538 -0.640369 
0.0559135 0.77559 -0.628756 -0.0388923 0.787337 -0.615296 -0.143202 0.76379 -0.629379 
-0.172408 0.735251 -0.655501 0.338568 0.755073 -0.56146 0.535831 0.597838 -0.596217 
0.335507 0.75432 -0.564302 0.145138 0.681248 -0.717521 0.0668524 0.640589 -0.764968 
-0.0461931 0.609697 -0.791287 -0.14133 0.650168 -0.74653 -0.149267 0.727105 -0.670103 
-0.169529 0.709454 -0.684057 -0.108967 0.700164 -0.705618 -0.0740152 0.730774 -0.678595 
-0.177448 0.77214 -0.610173 -0.290491 0.74393 -0.601816 0.590371 0.53571 -0.60372 
0.521252 0.520667 -0.676167 0.26158 0.445336 -0.856301 0.0847508 0.385428 -0.918838 
-0.0434432 0.310642 -0.949534 -0.0628318 0.229994 -0.971162 -0.0853394 0.277406 -0.956955 
-0.106724 0.331282 -0.937477 -0.0364671 0.399581 -0.915972 -0.00138043 0.499584 -0.866265 
-0.105733 0.567076 -0.816851 -0.37185 0.70862 -0.599655 -0.266364 0.652802 -0.709154 
-0.401442 0.680921 -0.612528 -0.535096 0.512348 -0.671693 0.730434 0.298441 -0.614328 
0.732948 0.282219 -0.618983 0.467852 0.249429 -0.84788 -0.0574372 0.144169 -0.987885 
-0.0466701 0.218441 -0.974733 0.057489 0.176153 -0.982683 -0.212314 0.327865 -0.920558 
-0.344699 0.404955 -0.846873 -0.546478 0.495327 -0.675287 -0.526779 0.484408 -0.698465 
0.729329 0.0763232 -0.679892 0.682786 0.0713023 -0.727131 0.424133 0.0690753 -0.902962 
-0.0356811 0.075554 -0.996503 -0.011474 0.112456 -0.99359 -0.248944 0.198643 -0.947928 
-0.64508 0.318942 -0.694369 -0.469468 0.259512 -0.843951 -0.71454 0.188486 -0.673725 
0.727765 -0.0903938 -0.679843 0.718829 -0.224339 -0.657994 0.697501 -0.0882397 -0.71113 
0.431141 -0.0856092 -0.898214 -0.399512 0.0607405 -0.914714 -0.750769 0.086814 -0.654835 
-0.703013 0.0918018 -0.705227 0.715991 -0.237352 -0.656522 0.479616 -0.225589 -0.847984 
-0.437451 -0.074131 -0.896182 -0.76272 -0.20033 -0.614919 -0.758947 -0.216521 -0.6141 
-0.752383 -0.19906 -0.627929 0.636647 -0.387555 -0.666694 0.601033 -0.421731 -0.678898 
0.546608 -0.357231 -0.757367 0.345203 -0.297732 -0.890051 -0.253369 -0.239689 -0.937205 
-0.697701 -0.39796 -0.595685 -0.600162 -0.570158 -0.561003 -0.535094 -0.321225 -0.781338 
0.580888 -0.434119 -0.688556 0.557824 -0.440115 -0.703655 0.432438 -0.36901 -0.822696 
0.266489 -0.266817 -0.926171 -0.228897 -0.444665 -0.865956 -0.555885 -0.609331 -0.565426 
-0.407823 -0.686965 -0.601464 -0.35502 -0.53239 -0.768454 0.557793 -0.439906 -0.703811 
0.415522 -0.330986 -0.847224 -0.182471 -0.348248 -0.919472 -0.398197 -0.63059 -0.666179 
-0.252703 -0.485324 -0.837019 -0.299593 -0.695434 -0.653158 -0.245183 -0.619836 -0.745445 
-0.314932 -0.709233 -0.630719 -0.303163 -0.70899 -0.63673 -0.297857 -0.695803 -0.653559 
0.524126 -0.494463 -0.693397 0.507348 -0.516868 -0.689525 0.506894 -0.480788 -0.715473 
0.321671 -0.671205 -0.667841 0.320027 -0.438417 -0.839865 0.100609 -0.420041 -0.901911 
-0.0502108 -0.384469 -0.921771 -0.198877 -0.425248 -0.882956 -0.40226 -0.629981 -0.664313 
-0.370842 -0.656082 -0.657292 -0.338029 -0.531507 -0.776683 0.256623 -0.705489 -0.660629 
0.134301 -0.745463 -0.652877 0.131031 -0.702437 -0.69958 -0.0464203 -0.746695 -0.663545 
-0.0514251 -0.688448 -0.723461 -0.257112 -0.692652 -0.673889 -0.238367 -0.694927 -0.678423 
-0.23535 -0.683192 -0.691274 0.210108 0.291149 -0.93332 0.0705924 0.338173 -0.938432 
-0.0546062 0.269079 -0.961569 -0.104107 0.0716941 -0.991979 0.103108 0.238301 -0.965703 
-0.0493987 0.284324 -0.957455 0.271758 0.237212 -0.932672 0.193291 0.228391 -0.954189 
0.0237203 0.202575 -0.978979 -0.0937982 0.120076 -0.988324 -0.103506 0.0722349 -0.992002 
-0.097425 0.0714296 -0.992676 -0.104283 0.0709364 -0.992015 -0.0230017 0.149419 -0.988506 
-0.0587855 0.220703 -0.973568 0.102711 0.232817 -0.967082 0.104114 0.234941 -0.966418 
-0.120248 0.274918 -0.953919 -0.0432747 0.2331 -0.971489 -0.17586 0.261523 -0.949041 
0.385557 0.0689847 -0.920101 0.198456 0.0607971 -0.978222 -0.0226898 0.07468 -0.996949 
-0.0412374 0.0753734 -0.996302 -0.19356 0.0725144 -0.978405 -0.0296596 0.0800645 -0.996348 
-0.0348587 0.0828488 -0.995952 0.0813011 0.158737 -0.983968 -0.0205801 0.126806 -0.991714 
-0.0798443 0.220219 -0.972177 0.00456644 0.097882 -0.995188 -0.0343614 0.128062 -0.991171 
0.0897011 0.0217888 -0.99573 0.0159354 0.035393 -0.999246 -0.200678 0.182789 -0.962453 
-0.117121 0.153824 -0.981132 -0.244095 0.0957709 -0.965011 0.369129 -0.0791944 -0.925998 
0.208808 -0.0517016 -0.976589 0.028356 -0.0252917 -0.999278 -0.0927982 0.0725084 -0.993041 
-0.0210041 0.240187 -0.970499 0.0653428 0.109977 -0.991784 -0.076539 0.0610623 -0.995195 
-0.124186 0.192896 -0.973329 0.0212934 0.0313685 -0.999281 0.0838272 0.0137716 -0.996385 
-0.0454987 0.0106614 -0.998908 -0.257655 0.0510361 -0.964888 -0.242116 0.0522436 -0.96884 
0.344565 -0.185915 -0.920169 0.310005 -0.245304 -0.918544 0.25436 -0.156203 -0.954412 
0.0952897 -0.0969479 -0.990717 0.0775597 -0.0265516 -0.996634 0.00590984 0.0891765 -0.995998 
-0.0918314 0.0632458 -0.993764 0.0072354 0.0530241 -0.998567 -0.0611967 0.189403 -0.979991 
-0.0893041 0.125936 -0.988011 -0.00318161 0.050365 -0.998726 -0.0725202 -0.0341096 -0.996783 
-0.235893 -0.0458278 -0.970698 -0.224728 -0.114889 -0.967625 -0.210716 -0.0472982 -0.976402 
0.276966 -0.254561 -0.926547 0.23578 -0.243371 -0.940839 0.160636 -0.183947 -0.969721 
0.0955771 -0.121641 -0.987962 0.067003 -0.106259 -0.992078 0.0206091 -0.0441573 -0.998812 
0.0480645 -0.011231 -0.998781 -0.0464391 -0.0481071 -0.997762 -0.118782 -0.0187307 -0.992744 
-0.0777849 -0.0882211 -0.993059 -0.216324 -0.210243 -0.953416 -0.187089 -0.295773 -0.936758 
-0.150212 -0.153193 -0.976713 0.221201 -0.206951 -0.953017 0.154598 -0.109474 -0.981893 
0.082755 -0.080174 -0.99334 0.00845905 -0.0881151 -0.996074 0.00035611 -0.140468 -0.990085 
-0.173318 -0.339568 -0.924475 -0.0679339 -0.240277 -0.968324 -0.163144 -0.337883 -0.926941 
-0.131198 -0.277107 -0.95184 -0.136046 -0.355053 -0.924894 -0.133037 -0.354501 -0.925543 
-0.131618 -0.351016 -0.927073 0.291994 -0.182303 -0.938885 0.287657 -0.193981 -0.937883 
0.284468 -0.174327 -0.942702 0.0921519 -0.338556 -0.936423 0.0847883 -0.15468 -0.98432 
-0.0491732 -0.325194 -0.944368 -0.0423959 -0.162412 -0.985812 -0.168722 -0.327821 -0.929552 
-0.134727 -0.289285 -0.947715 -0.102256 -0.222466 -0.969563 
