# vtk DataFile Version 4.2
vtk output
ASCII
DATASET POLYDATA
POINTS 546 float
28.8577 -2.96078 -20.0421 36.3942 -2.96078 -20.2872 36.3942 4.57567 -20.3554 
-23.8974 -33.1066 -12.8953 -16.361 -33.1066 -13.9269 -8.82454 -33.1066 -13.9503 
-1.28808 -33.1066 -13.6506 6.24836 -33.1066 -13.4451 13.7848 -33.1066 -13.3741 
21.3213 -33.1066 -13.0425 -31.4339 -25.5701 -13.3372 -23.8974 -25.5701 -15.3652 
-16.361 -25.5701 -15.5792 -8.82454 -25.5701 -15.2945 -1.28808 -25.5701 -14.7242 
6.24836 -25.5701 -14.8427 13.7848 -25.5701 -15.7976 21.3213 -25.5701 -16.8536 
28.8577 -25.5701 -16.5077 36.3942 -25.5701 -14.9574 -38.9703 -18.0337 -12.7123 
-31.4339 -18.0337 -14.8841 -23.8974 -18.0337 -15.856 -16.361 -18.0337 -15.708 
-8.82454 -18.0337 -15.2282 -1.28808 -18.0337 -15.2979 6.24836 -18.0337 -15.4975 
13.7848 -18.0337 -16.4956 21.3213 -18.0337 -18.1784 28.8577 -18.0337 -19.2394 
36.3942 -18.0337 -17.8493 43.9306 -18.0337 -15.3066 -38.9703 -10.4972 -13.4361 
-31.4339 -10.4972 -15.1717 -23.8974 -10.4972 -15.6342 -16.361 -10.4972 -15.4923 
-8.82454 -10.4972 -16.3306 -1.28808 -10.4972 -18.9508 6.24836 -10.4972 -17.8879 
13.7848 -10.4972 -16.9853 21.3213 -10.4972 -18.5787 28.8577 -4.09572 -19.9663 
28.8577 -10.4972 -19.5323 36.3942 -5.60266 -19.9663 36.3942 -10.4972 -19.3662 
43.9306 -10.4972 -17.7664 51.4671 -10.4972 -13.1458 -38.9703 -2.96078 -15.1102 
-31.4339 -2.96078 -16.4718 -23.8974 -2.96078 -16.6578 -16.361 -2.96078 -16.9016 
-8.82454 -2.96078 -19.2007 -1.28808 -2.96078 -16.7756 6.24836 -2.96078 -19.3549 
13.7848 -2.96078 -18.0611 28.4267 -2.96078 -19.9663 21.3213 -2.96078 -18.7 
28.8577 -1.24715 -19.9663 37.8944 -2.96078 -19.9663 43.9306 -2.96078 -18.6767 
51.4671 -2.96078 -15.249 -46.5068 4.57567 -13.1669 -38.9703 4.57567 -16.906 
-31.4339 4.57567 -18.0835 -23.8974 4.57567 -17.7684 -16.361 4.57567 -18.0395 
-8.82454 4.57567 -19.2726 -1.28808 4.57567 -17.3935 6.24836 4.57567 -19.1593 
13.7848 4.57567 -17.2257 21.3213 4.57567 -18.4126 31.9098 4.57567 -19.9663 
28.8577 4.57567 -19.7068 38.4221 4.57567 -19.9663 36.3942 8.01365 -19.9663 
43.9306 4.57567 -18.9543 51.4671 4.57567 -15.714 -46.5068 12.1121 -13.5767 
-38.9703 12.1121 -17.5855 -31.4339 12.1121 -18.9077 -23.8974 12.1121 -18.3989 
-16.361 12.1121 -17.8179 -8.82454 12.1121 -17.2241 -1.28808 12.1121 -18.9201 
6.24836 12.1121 -18.999 13.7848 12.1121 -17.0175 21.3213 12.1121 -17.8819 
28.8577 12.1121 -19.0421 36.3942 12.1121 -19.4988 43.9306 12.1121 -18.6842 
51.4671 12.1121 -14.3866 -38.9703 19.6486 -16.4276 -31.4339 19.6486 -18.2616 
-23.8974 19.6486 -18.5428 -16.361 19.6486 -17.9331 -8.82454 19.6486 -17.3111 
-1.28808 19.6486 -17.2005 6.24836 19.6486 -18.0277 13.7848 19.6486 -17.9995 
21.3213 19.6486 -18.2969 28.8577 19.6486 -19.0493 36.3942 19.6486 -18.3047 
43.9306 19.6486 -16.9208 -38.9703 27.185 -14.073 -31.4339 27.185 -17.0316 
-23.8974 27.185 -17.7701 -16.361 27.185 -17.8084 -8.82454 27.185 -17.2097 
-1.28808 27.185 -17.3487 6.24836 27.185 -17.8525 13.7848 27.185 -18.0204 
21.3213 27.185 -18.3034 28.8577 27.185 -17.6334 36.3942 27.185 -16.2689 
43.9306 27.185 -13.1587 -31.4339 34.7215 -13.1105 -23.8974 34.7215 -15.2768 
-16.361 34.7215 -16.027 -8.82454 34.7215 -16.0912 -1.28808 34.7215 -16.2808 
6.24836 34.7215 -16.6512 13.7848 34.7215 -16.9442 21.3213 34.7215 -16.803 
28.8577 34.7215 -15.2209 -8.82454 42.2579 -12.7797 -1.28808 42.2579 -13.4428 
6.24836 42.2579 -13.5915 13.7848 42.2579 -12.9199 -23.8974 -34.0168 -12.4298 
-23.8974 -40.643 -7.85824 -16.361 -36.2928 -12.4298 -16.361 -40.643 -9.97823 
-8.82454 -36.7043 -12.4298 -8.82454 -40.643 -10.2805 -1.28808 -35.9367 -12.4298 
-1.28808 -40.643 -9.80464 6.24836 -35.1665 -12.4298 6.24836 -40.643 -8.75288 
13.7848 -34.5263 -12.4298 13.7848 -40.643 -6.75274 21.3213 -33.8426 -12.4298 
-38.9703 -33.1066 -5.32147 -25.8197 -33.1066 -12.4298 -31.4339 -28.5913 -12.4298 
-31.4339 -33.1066 -10.831 24.8969 -33.1066 -12.4298 28.8577 -32.1584 -12.4298 
28.8577 -33.1066 -11.1614 36.3942 -28.5024 -12.4298 -33.4947 -25.5701 -12.4298 
-38.9703 -18.8784 -12.4298 -38.9703 -25.5701 -9.56247 40.6624 -25.5701 -12.4298 
43.9306 -22.5632 -12.4298 43.9306 -25.5701 -7.23903 -39.5269 -18.0337 -12.4298 
-46.5068 -18.0337 -5.99155 47.9634 -18.0337 -12.4298 51.4671 -11.8745 -12.4298 
51.4671 -18.0337 -6.31122 -41.0638 -10.4972 -12.4298 -46.5068 -10.4972 -9.0206 
52.1138 -10.4972 -12.4298 -44.7205 -2.96078 -12.4298 -46.5068 1.01868 -12.4298 
-46.5068 -2.96078 -11.3971 54.6231 -2.96078 -12.4298 -47.5334 4.57567 -12.4298 
55.3839 4.57567 -12.4298 -48.0783 12.1121 -12.4298 -46.5068 17.8885 -12.4298 
53.6603 12.1121 -12.4298 51.4671 17.6001 -12.4298 -45.8745 19.6486 -12.4298 
-46.5068 19.6486 -11.9012 50.5641 19.6486 -12.4298 51.4671 19.6486 -10.4212 
-41.5348 27.185 -12.4298 -46.5068 27.185 -5.77338 -38.9703 29.6009 -12.4298 
36.3942 33.328 -12.4298 44.6933 27.185 -12.4298 43.9306 27.9692 -12.4298 
-32.6473 34.7215 -12.4298 -38.9703 34.7215 -5.899 -31.4339 35.5565 -12.4298 
-23.8974 38.538 -12.4298 -16.361 41.0389 -12.4298 21.3213 40.4056 -12.4298 
34.7626 34.7215 -12.4298 28.8577 37.9663 -12.4298 36.3942 34.7215 -9.18562 
-23.8974 42.2579 -6.81884 -11.1329 42.2579 -12.4298 -16.361 42.2579 -11.0605 
-8.82454 42.6345 -12.4298 -1.28808 43.3577 -12.4298 6.24836 43.467 -12.4298 
15.7929 42.2579 -12.4298 13.7848 42.7402 -12.4298 21.3213 42.2579 -8.08451 
-23.8974 -43.0351 -4.89335 -16.361 -45.0943 -4.89335 -8.82454 -45.9846 -4.89335 
-8.82454 -48.1795 1.52703 -1.28808 -45.4321 -4.89335 -1.28808 -48.1795 2.63959 
6.24836 -44.0737 -4.89335 13.7848 -41.9827 -4.89335 -38.9703 -33.4889 -4.89335 
-29.7584 -40.643 -4.89335 -31.4339 -39.809 -4.89335 -31.4339 -40.643 -1.19016 
17.6623 -40.643 -4.89335 21.3213 -39.3709 -4.89335 28.8577 -35.9524 -4.89335 
-39.323 -33.1066 -4.89335 33.9431 -33.1066 -4.89335 36.3942 -31.6632 -4.89335 
43.9306 -26.5236 -4.89335 -43.9401 -25.5701 -4.89335 -46.5068 -19.8654 -4.89335 
45.0532 -25.5701 -4.89335 51.4671 -18.8259 -4.89335 -47.2219 -18.0337 -4.89335 
52.0973 -18.0337 -4.89335 51.4671 -18.0337 -0.251885 -50.1811 -10.4972 -4.89335 
56.0244 -10.4972 -4.89335 -52.1803 -2.96078 -4.89335 58.1045 -2.96078 -4.89335 
-53.3649 4.57567 -4.89335 -54.0432 4.57567 2.08338 58.2663 4.57567 -4.89335 
-53.3791 12.1121 -4.89335 56.5666 12.1121 -4.89335 -51.0592 19.6486 -4.89335 
53.5334 19.6486 -4.89335 51.4671 22.6107 -4.89335 51.4671 19.6486 -0.661447 
-46.9296 27.185 -4.89335 -46.5068 27.7346 -4.89335 47.6922 27.185 -4.89335 
43.9306 30.6656 -4.89335 43.9306 27.185 0.883753 -39.6564 34.7215 -4.89335 
-38.9703 35.3268 -4.89335 -31.4339 39.9114 -4.89335 28.8577 40.2672 -4.89335 
38.199 34.7215 -4.89335 36.3942 35.9466 -4.89335 36.3942 34.7215 -2.71334 
-26.0408 42.2579 -4.89335 -23.8974 43.0942 -4.89335 -16.361 45.2898 -4.89335 
-8.82454 46.4725 -4.89335 -1.28808 46.8448 -4.89335 6.24836 46.8031 -4.89335 
13.7848 45.4096 -4.89335 13.7848 42.2579 2.13195 23.775 42.2579 -4.89335 
21.3213 43.1797 -4.89335 21.3213 42.2579 -3.0573 -8.82454 -48.4841 2.6431 
-1.28808 -48.1805 2.6431 -31.4339 -41.3701 2.6431 -23.8974 -45.0586 2.6431 
-10.6325 -48.1795 2.6431 -16.361 -47.2555 2.6431 -8.82454 -48.1795 4.94744 
-1.28236 -48.1795 2.6431 -1.28808 -48.1795 2.65383 6.24836 -46.7921 2.6431 
13.7848 -44.0774 2.6431 -32.5208 -40.643 2.6431 -38.9703 -35.1042 2.6431 
-31.4339 -40.643 4.95199 20.1216 -40.643 2.6431 21.3213 -39.9715 2.6431 
28.8577 -35.6579 2.6431 -40.6133 -33.1066 2.6431 -38.9703 -33.1066 6.94122 
33.0689 -33.1066 2.6431 28.8577 -33.1066 9.09165 36.3942 -31.0861 2.6431 
43.9306 -25.7342 2.6431 -45.5997 -25.5701 2.6431 -46.5068 -23.8058 2.6431 
44.1243 -25.5701 2.6431 43.9306 -25.5701 2.94881 -49.1887 -18.0337 2.6431 
51.0655 -18.0337 2.6431 51.4671 -17.3029 2.6431 -51.8556 -10.4972 2.6431 
54.7034 -10.4972 2.6431 51.4671 -10.4972 7.44872 -53.3324 -2.96078 2.6431 
-54.0432 4.09277 2.6431 56.0865 -2.96078 2.6431 51.4671 -2.96078 8.67397 
-54.0913 4.57567 2.6431 -54.0432 6.54212 2.6431 -54.0432 4.57567 2.81091 
56.2029 4.57567 2.6431 51.4671 4.57567 8.43448 -53.9003 12.1121 2.6431 
43.9306 12.1121 10.1018 53.7011 12.1121 2.6431 51.4671 16.5918 2.6431 
51.4671 12.1121 5.21336 -51.4344 19.6486 2.6431 49.2132 19.6486 2.6431 
43.9306 25.6486 2.6431 43.9306 19.6486 6.96045 -47.3245 27.185 2.6431 
-46.5068 28.2567 2.6431 -46.5068 27.185 5.06074 28.8577 27.185 8.66175 
42.1608 27.185 2.6431 36.3942 31.1337 2.6431 36.3942 27.185 6.21323 
-40.1007 34.7215 2.6431 -38.9703 35.7047 2.6431 -38.9703 34.7215 5.23966 
-31.4339 39.9172 2.6431 13.7848 41.9652 2.6431 13.7848 34.7215 8.938 
21.3213 38.5079 2.6431 21.3213 34.7215 6.32597 30.8761 34.7215 2.6431 
28.8577 36.0879 2.6431 28.8577 34.7215 3.7544 -24.845 42.2579 2.6431 
-23.8974 42.5738 2.6431 -23.8974 42.2579 3.42984 -16.361 44.4655 2.6431 
-16.361 42.2579 6.98032 -8.82454 45.1401 2.6431 -8.82454 42.2579 7.27682 
-1.28808 45.1764 2.6431 -1.28808 42.2579 6.81198 13.0206 42.2579 2.6431 
6.24836 44.2026 2.6431 6.24836 42.2579 5.33244 -23.8974 -43.102 10.1795 
-16.361 -45.9279 10.1795 -8.82454 -47.3947 10.1795 -1.28808 -47.3863 10.1795 
6.24836 -46.1264 10.1795 13.7848 -42.8929 10.1795 -28.4249 -40.643 10.1795 
-31.4339 -38.3858 10.1795 -23.8974 -40.643 13.1883 -16.361 -40.643 16.3626 
6.24836 -40.643 17.174 17.5995 -40.643 10.1795 13.7848 -40.643 13.3596 
21.3213 -38.1016 10.1795 -37.2112 -33.1066 10.1795 -38.9703 -30.8972 10.1795 
-31.4339 -33.1066 14.4302 -23.8974 -33.1066 17.7011 28.1837 -33.1066 10.1795 
21.3213 -33.1066 15.394 28.8577 -32.5146 10.1795 36.3942 -26.7238 10.1795 
-42.3231 -25.5701 10.1795 -46.5068 -18.8111 10.1795 -38.9703 -25.5701 13.1508 
-31.4339 -25.5701 17.2567 28.8577 -25.5701 15.7089 37.9126 -25.5701 10.1795 
36.3942 -25.5701 11.1826 43.9306 -19.1755 10.1795 -46.879 -18.0337 10.1795 
-46.5068 -18.0337 10.6826 -38.9703 -18.0337 16.3838 28.8577 -18.0337 17.2558 
36.3942 -18.0337 15.0729 44.9089 -18.0337 10.1795 43.9306 -18.0337 10.9276 
-49.0984 -10.4972 10.1795 -46.5068 -10.4972 13.0986 21.3213 -10.4972 17.6364 
[...]
POINT_DATA 546
SCALARS ImageScalars float
LOOKUP_TABLE default
0 0 0 0 0 0 0 0 0 
0 0 0 0 0 0 0 0 0 
0 0 0 0 0 0 0 0 0 
0 0 0 0 0 0 0 0 0 
0 0 0 0 0 0 0 0 0 
0 0 0 0 0 0 0 0 0 
0 0 0 0 0 0 0 0 0 
0 0 0 0 0 0 0 0 0 
0 0 0 0 0 0 0 0 0 
0 0 0 0 0 0 0 0 0 
0 0 0 0 0 0 0 0 0 
0 0 0 0 0 0 0 0 0 
0 0 0 0 0 0 0 0 0 
0 0 0 0 0 0 0 0 0 
0 0 0 0 0 0 0 0 0 
0 0 0 0 0 0 0 0 0 
0 0 0 0 0 0 0 0 0 
0 0 0 0 0 0 0 0 0 
0 0 0 0 0 0 0 0 0 
0 0 0 0 0 0 0 0 0 
0 0 0 0 0 0 0 0 0 
0 0 0 0 0 0 0 0 0 
0 0 0 0 0 0 0 0 0 
0 0 0 0 0 0 0 0 0 
0 0 0 0 0 0 0 0 0 
0 0 0 0 0 0 0 0 0 
0 0 0 0 0 0 0 0 0 
0 0 0 0 0 0 0 0 0 
0 0 0 0 0 0 0 0 0 
0 0 0 0 0 0 0 0 0 
0 0 0 0 0 0 0 0 0 
0 0 0 0 0 0 0 0 0 
0 0 0 0 0 0 0 0 0 
0 0 0 0 0 0 0 0 0 
0 0 0 0 0 0 0 0 0 
0 0 0 0 0 0 0 0 0 
0 0 0 0 0 0 0 0 0 
0 0 0 0 0 0 0 0 0 
0 0 0 0 0 0 0 0 0 
0 0 0 0 0 0 0 0 0 
0 0 0 0 0 0 0 0 0 
0 0 0 0 0 0 0 0 0 
0 0 0 0 0 0 0 0 0 
0 0 0 0 0 0 0 0 0 
0 0 0 0 0 0 0 0 0 
0 0 0 0 0 0 0 0 0 
0 0 0 0 0 0 0 0 0 
0 0 0 0 0 0 0 0 0 
0 0 0 0 0 0 0 0 0 
0 0 0 0 0 0 0 0 0 
0 0 0 0 0 0 0 0 0 
0 0 0 0 0 0 0 0 0 
0 0 0 0 0 0 0 0 0 
0 0 0 0 0 0 0 0 0 
0 0 0 0 0 0 0 0 0 
0 0 0 0 0 0 0 0 0 
0 0 0 0 0 0 0 0 0 
0 0 0 0 0 0 0 0 0 
0 0 0 0 0 0 0 0 0 
0 0 0 0 0 0 0 0 0 
0 0 0 0 0 0 
NORMALS Normals float
0.105751 0.011487 0.994326 -0.0895264 0.0645604 0.99389 -0.0518589 -0.0517405 0.997313 
0.167383 0.402976 0.899774 0.0650043 0.315192 0.946799 -0.0183837 0.296138 0.954968 
-0.033378 0.27722 0.960227 -0.0175607 0.323236 0.946156 -0.0237409 0.462294 0.886409 
-0.0935195 0.604483 0.79111 0.336373 0.223186 0.9149 0.132338 0.175345 0.975572 
-0.004863 0.110101 0.993909 -0.0547114 0.0835204 0.995003 -0.0326158 0.110081 0.993387 
0.07073 0.132934 0.988598 0.125547 0.180732 0.975486 0.0501586 0.302549 0.951813 
-0.108761 0.424553 0.898847 -0.347975 0.557172 0.753971 0.377895 0.20271 0.903385 
0.20888 0.114406 0.971226 0.0509099 0.0204392 0.998494 -0.0413986 -0.00585877 0.999126 
-0.0271593 0.0601358 0.997821 0.0178175 0.218378 0.975702 0.0769631 0.165811 0.98315 
0.173779 0.0784923 0.981652 0.174262 0.108314 0.978724 -0.0252135 0.202118 0.979037 
-0.226404 0.255536 0.939916 -0.453826 0.41048 0.790916 0.330642 0.149707 0.931807 
0.135384 0.100181 0.985715 0.0205178 0.052376 0.998417 0.039758 0.069962 0.996757 
0.19341 0.263776 0.944995 0.113365 0.148345 0.982417 -0.124601 0.273112 0.953879 
0.0591229 0.102296 0.992995 0.164329 0.0332503 0.985845 0.097897 0.0173941 0.995045 
0.0523654 0.0508123 0.997334 -0.0934915 0.0990496 0.990681 -0.103855 0.160883 0.981494 
-0.314331 0.203006 0.927353 -0.684968 0.31111 0.658809 0.275243 0.21128 0.937871 
0.0943371 0.188816 0.977471 0.0267095 0.140848 0.989671 0.16889 0.177717 0.969481 
0.00975152 0.178273 0.983933 -0.00266011 -0.0871882 0.996188 0.0567043 0.0689103 0.99601 
-0.0333955 0.0160081 0.999314 0.107303 0.0105093 0.994171 0.128237 -0.0102177 0.991691 
0.109625 -0.00634147 0.993953 -0.128713 0.0633769 0.989655 -0.288636 0.0698392 0.954888 
-0.589332 0.124307 0.79827 0.545634 0.112246 0.830472 0.300445 0.14638 0.9425 
0.0484297 0.155515 0.986646 -0.00251527 0.11632 0.993209 0.0993359 0.0547228 0.993548 
-0.0211576 -0.135048 0.990613 -0.0149987 0.1385 0.990249 -0.0309935 -0.0221289 0.999275 
-0.046213 -0.070325 0.996453 0.164616 -0.0542563 0.984864 0.0525408 -0.0603584 0.996793 
0.122379 -0.0648815 0.99036 -0.111393 -0.0348643 0.993165 -0.0344507 -0.0971805 0.99467 
-0.269224 0.00240238 0.963075 -0.569725 -0.0503126 0.820294 0.566504 -0.0481979 0.822648 
0.322989 -0.0261569 0.946041 0.0442365 0.012083 0.998948 -0.0725665 0.0509789 0.99606 
-0.0790394 -0.00692009 0.996847 0.0535456 -0.127206 0.99043 0.128458 -0.0347422 0.991106 
-0.133098 -0.0796852 0.987894 -0.0642253 0.0523592 0.996561 0.133345 -0.00581391 0.991053 
0.104361 -0.0434635 0.993589 -0.0170245 -0.146564 0.989055 -0.290643 -0.135064 0.947251 
-0.638519 -0.207201 0.741189 0.338844 -0.214471 0.916072 0.125794 -0.113064 0.985592 
-0.0225822 -0.0392908 0.998973 -0.0843396 -0.00109661 0.996436 -0.0484316 -0.000950098 0.998826 
0.0475009 -0.0841499 0.99532 0.0525741 -0.070047 0.996157 0.0178108 0.0646926 0.997746 
0.0680097 0.0272757 0.997312 -0.00530463 -0.104097 0.994553 -0.133393 -0.179791 0.974619 
-0.341375 -0.259985 0.903256 0.450062 -0.425567 0.785071 0.217203 -0.300574 0.928697 
0.0454654 -0.195232 0.979703 -0.0361628 -0.122028 0.991868 -0.032727 -0.0780011 0.996416 
0.0425184 -0.0581151 0.997404 0.0444485 -0.0874386 0.995178 0.0295631 -0.0724993 0.99693 
-0.0302293 -0.0797286 0.996358 -0.117209 -0.237784 0.96422 -0.249196 -0.37918 0.891137 
-0.538053 -0.626774 0.563608 0.365463 -0.582359 0.726151 0.177386 -0.450177 0.875143 
0.045922 -0.36319 0.930583 0.0165002 -0.268661 0.963093 0.0359923 -0.243521 0.969228 
0.0445837 -0.263842 0.963535 0.0111988 -0.2991 0.954156 -0.115975 -0.426907 0.896828 
-0.250344 -0.555925 0.792638 0.111448 -0.651148 0.750723 0.051032 -0.621877 0.781451 
-0.0311934 -0.647752 0.761213 -0.151368 -0.751718 0.641879 0.175896 0.433271 0.883932 
0.275148 0.735889 0.618677 0.0848028 0.43424 0.896797 0.117434 0.64715 0.753264 
-0.0104199 0.413346 0.910514 -0.00960325 0.58054 0.814175 -0.0470805 0.380512 0.923577 
-0.07796 0.602445 0.794344 -0.0466192 0.398421 0.916017 -0.141462 0.681469 0.718045 
-0.0543028 0.513619 0.856298 -0.238297 0.812118 0.532616 -0.110453 0.639425 0.760878 
0.692791 0.589578 0.415257 0.210306 0.412091 0.88654 0.346469 0.300662 0.888573 
0.377079 0.462361 0.802517 -0.177448 0.678141 0.713188 -0.247679 0.705156 0.664388 
-0.296683 0.772079 0.562026 -0.405306 0.684567 0.605884 0.386989 0.252727 0.886774 
0.390664 0.217148 0.894555 0.570614 0.371273 0.7325 -0.493911 0.62863 0.60073 
-0.556892 0.563148 0.610521 -0.635878 0.731849 0.245063 0.399772 0.209192 0.892424 
0.824736 0.319795 0.466413 -0.634595 0.462149 0.619441 -0.704777 0.352043 0.615918 
-0.798649 0.568326 0.1979 0.404291 0.158245 0.900837 0.676802 0.245817 0.693912 
-0.709393 0.32341 0.626233 0.50638 0.216964 0.834569 0.560242 0.166197 0.811485 
0.604348 0.2226 0.764992 -0.729665 0.17141 0.661973 0.585799 0.118976 0.801676 
-0.761606 -0.0535484 0.645824 0.62799 -0.075714 0.77453 0.651576 -0.222705 0.725156 
-0.734091 -0.242523 0.634265 -0.743673 -0.360206 0.563208 0.64987 -0.267342 0.711476 
0.686599 -0.281237 0.670438 -0.736085 -0.398236 0.547345 -0.81631 -0.449559 0.362679 
0.543435 -0.458256 0.703335 0.775691 -0.570999 0.26882 0.489619 -0.513376 0.704782 
-0.484151 -0.705089 0.518119 -0.572478 -0.642079 0.509905 -0.5542 -0.660381 0.506714 
0.400286 -0.600391 0.692316 0.607113 -0.736945 0.297197 0.375768 -0.616031 0.692318 
0.249464 -0.665394 0.703576 0.167869 -0.655798 0.736036 -0.25694 -0.737226 0.624883 
-0.460857 -0.729712 0.505105 -0.323613 -0.763353 0.559077 -0.537375 -0.82224 0.187482 
0.326772 -0.906235 0.26825 0.135728 -0.671597 0.728378 0.198128 -0.763449 0.614728 
0.11184 -0.671864 0.732182 0.049068 -0.690273 0.721883 -0.0384046 -0.722352 0.690458 
-0.188072 -0.77174 0.607492 -0.153657 -0.777319 0.610052 -0.318199 -0.929936 0.184308 
0.297339 0.837088 0.459209 0.165034 0.86275 0.47794 0.0234006 0.854875 0.518306 
0.0600258 0.990195 0.12614 -0.106602 0.837581 0.535812 -0.107976 0.989413 0.0969714 
-0.197651 0.832902 0.516922 -0.275968 0.857204 0.434791 0.695905 0.60398 0.38849 
0.440115 0.796673 0.414259 0.481327 0.775218 0.409098 0.514644 0.839946 0.172138 
-0.327251 0.873233 0.361068 -0.367389 0.883331 0.291121 -0.429992 0.886189 0.17256 
0.704925 0.594358 0.387066 -0.479975 0.867968 0.127497 -0.509347 0.852768 0.115549 
-0.641295 0.759274 0.11065 0.789547 0.424989 0.442719 0.844461 0.347914 0.407236 
-0.658349 0.744402 0.111547 -0.795971 0.593214 0.120529 0.851294 0.33077 0.407296 
-0.80784 0.576578 0.122282 -0.819542 0.558648 -0.127531 0.850033 0.291778 0.438532 
-0.932218 0.34359 0.113649 0.905481 0.183906 0.382469 -0.988929 0.140795 0.0468611 
0.947667 0.0687224 0.311776 0.99664 0.0396491 -0.0716754 -0.995218 -0.0968234 0.0129301 
0.94886 -0.148111 0.278796 -0.959269 -0.281769 -0.0202118 0.89211 -0.366646 0.264026 
-0.862773 -0.50416 -0.038035 -0.824072 -0.560598 -0.0814557 -0.756608 -0.549318 -0.354675 
0.786601 -0.575562 0.223578 0.776406 -0.589361 0.223266 -0.728532 -0.676856 -0.105387 
-0.641614 -0.758013 -0.117252 -0.5914 -0.644324 -0.484863 0.622522 -0.742966 0.245902 
0.608381 -0.754481 0.246234 0.435126 -0.877679 0.200859 -0.413394 -0.908985 -0.0534021 
-0.543607 -0.83045 -0.121836 -0.521563 -0.846755 -0.104773 -0.52767 -0.817873 -0.229453 
0.355136 -0.919046 0.170977 0.328534 -0.929969 0.164991 0.216082 -0.966071 0.141473 
0.107945 -0.986522 0.122968 0.0225085 -0.995955 0.0869923 -0.0878291 -0.995665 0.0306043 
-0.240362 -0.970626 -0.0105233 -0.312042 -0.775923 -0.548245 -0.340133 -0.937199 -0.077253 
-0.316456 -0.944164 -0.0917021 -0.311327 -0.922504 -0.228171 0.0636135 0.995517 0.0700007 
-0.107971 0.98943 0.0968062 0.522163 0.851219 -0.0526534 0.350432 0.93657 0.00582961 
0.0994297 0.992849 0.0660694 0.210498 0.97628 0.0506789 0.0691828 0.995996 -0.0566211 
-0.108078 0.989417 0.0968128 -0.107938 0.989488 0.0962418 -0.254995 0.960901 0.107917 
-0.406362 0.912244 0.0517844 0.548982 0.834002 -0.0553173 0.744053 0.663457 -0.0788007 
0.539618 0.822991 -0.17748 -0.48061 0.876183 -0.0362836 -0.492483 0.868383 -0.0580645 
-0.508832 0.844916 -0.164946 0.78319 0.616494 -0.0809229 0.72419 0.605949 -0.329204 
-0.513902 0.835101 -0.196244 -0.535608 0.709238 -0.458373 -0.52568 0.820583 -0.224286 
-0.624862 0.74058 -0.247161 0.869482 0.488816 -0.0711396 0.888717 0.454932 -0.0567395 
-0.628229 0.73756 -0.247655 -0.625502 0.7355 -0.260361 0.931367 0.363061 -0.0272563 
-0.797757 0.53005 -0.287456 -0.809611 0.508047 -0.293969 0.96137 0.268846 -0.0590728 
-0.884285 0.287469 -0.367969 -0.751841 0.228117 -0.618626 0.987573 0.14107 -0.0692783 
0.994246 0.0437406 -0.0977805 -0.895312 0.0890784 -0.436442 -0.66877 0.0365778 -0.742569 
0.994329 0.0372633 -0.0996072 0.993986 -0.0160863 -0.108315 0.993557 0.0366174 -0.107257 
-0.875244 -0.138142 -0.463534 -0.626356 -0.171369 -0.760468 0.977058 -0.167538 -0.13149 
-0.418919 -0.287896 -0.861176 -0.789311 -0.331789 -0.516628 -0.672471 -0.468363 -0.573079 
-0.673916 -0.370641 -0.639111 0.916025 -0.380684 -0.126406 -0.596944 -0.522202 -0.609068 
-0.543168 -0.576401 -0.610517 -0.482946 -0.446288 -0.753386 0.808731 -0.576152 -0.118332 
0.787946 -0.60455 -0.11688 0.789976 -0.569933 -0.226086 -0.243818 -0.491596 -0.835994 
-0.509109 -0.599506 -0.617576 -0.440883 -0.65259 -0.616237 -0.367418 -0.534094 -0.761412 
0.623365 -0.772216 -0.122876 0.596771 -0.792407 -0.126315 0.58838 -0.771023 -0.243583 
0.382677 -0.90872 -0.166691 -0.312999 -0.747191 -0.586291 -0.274526 -0.523643 -0.806495 
-0.276163 -0.697051 -0.661706 -0.274611 -0.597731 -0.753198 -0.387955 -0.651481 -0.651969 
-0.343943 -0.666366 -0.661558 -0.334713 -0.616931 -0.712294 0.291898 -0.931942 -0.215125 
0.280515 -0.933974 -0.221367 0.27276 -0.928406 -0.252316 0.161252 -0.944289 -0.286907 
0.10375 -0.868867 -0.484051 0.0473422 -0.930606 -0.362947 -0.0109108 -0.822587 -0.568535 
-0.0579659 -0.906128 -0.419013 -0.0858091 -0.790861 -0.60595 -0.301281 -0.762031 -0.573182 
-0.168191 -0.857435 -0.486329 -0.202518 -0.780424 -0.591545 0.392347 0.801231 -0.451766 
0.252844 0.888516 -0.382896 0.0826397 0.926517 -0.367065 -0.0751307 0.936347 -0.342944 
-0.269899 0.903787 -0.33215 -0.437272 0.826937 -0.353509 0.48387 0.736255 -0.473074 
0.53679 0.671315 -0.51107 0.387626 0.687232 -0.614376 0.248639 0.572198 -0.781516 
-0.19428 0.531398 -0.824543 -0.490642 0.7871 -0.373822 -0.426972 0.714024 -0.554855 
-0.535496 0.732263 -0.420756 0.629933 0.557953 -0.540254 0.65223 0.524433 -0.547327 
0.474031 0.459442 -0.751137 0.31375 0.31681 -0.895094 -0.536047 0.678311 -0.502542 
-0.441761 0.488247 -0.752637 -0.531705 0.671064 -0.516685 -0.499179 0.604501 -0.620805 
0.701046 0.4387 -0.562207 0.796067 0.353003 -0.491596 0.580074 0.39278 -0.713609 
0.353298 0.244799 -0.902914 -0.384453 0.366566 -0.847246 -0.510725 0.58472 -0.630287 
-0.485448 0.559318 -0.67194 -0.566509 0.429892 -0.703037 0.80244 0.341958 -0.489034 
0.787394 0.338872 -0.514953 0.412723 0.263774 -0.871827 -0.209296 0.0796961 -0.974599 
-0.344972 0.276233 -0.897045 -0.574252 0.400821 -0.713847 -0.551399 0.381725 -0.741785 
0.817195 0.240213 -0.523918 0.707169 0.215246 -0.673485 -0.0632208 -0.0755228 -0.995138 
-0.0856669 -0.0328352 -0.995783 -0.261616 0.0267165 -0.964802 -0.604476 0.164862 -0.779378 
-0.45906 0.112629 -0.881237 0.854263 0.133638 -0.50237 0.662428 0.131921 -0.737419 
-0.110222 -0.0220242 -0.993663 -0.105863 -0.0770274 -0.991393 -0.216335 -0.0822984 -0.972844 
-0.574776 0.00367497 -0.818303 -0.408146 -0.0422813 -0.911937 0.863284 0.0011467 -0.504718 
0.640058 -0.000477229 -0.768326 -0.2175 -0.0199104 -0.975857 -0.152609 -0.108146 -0.982352 
-0.23704 -0.159302 -0.95835 -0.501563 -0.179126 -0.846374 -0.416815 -0.283983 -0.863492 
-0.373242 -0.180511 -0.910004 0.836655 -0.160956 -0.523546 0.642631 -0.145261 -0.752279 
-0.198831 -0.188187 -0.961796 -0.234457 -0.216854 -0.947631 -0.415126 -0.286702 -0.863407 
-0.28885 -0.268538 -0.918941 0.788642 -0.340741 -0.5118 0.748647 -0.439026 -0.496774 
0.712611 -0.320913 -0.62386 -0.169641 -0.169346 -0.970847 -0.190808 -0.326022 -0.925906 
-0.197207 -0.364436 -0.910108 -0.22991 -0.443693 -0.866186 -0.226194 -0.367526 -0.902087 
-0.312371 -0.369954 -0.874962 -0.299785 -0.372448 -0.8783 -0.29566 -0.363938 -0.883252 
0.690539 -0.530362 -0.491805 0.539949 -0.678748 -0.497751 0.48855 -0.485305 -0.725119 
-0.0742111 -0.25127 -0.965068 -0.144139 -0.31241 -0.938948 -0.249788 -0.33651 -0.907947 
-0.268372 -0.476497 -0.837214 -0.264255 -0.395297 -0.879722 -0.238751 -0.446673 -0.862254 
-0.245859 -0.452473 -0.857217 -0.238298 -0.430567 -0.870532 0.45035 -0.73609 -0.505328 
0.336769 -0.77949 -0.528187 0.318911 -0.710567 -0.627208 0.168165 -0.806044 -0.567463 
0.112952 -0.602505 -0.790082 0.0337089 -0.759863 -0.649209 -0.0371749 -0.539419 -0.841216 
-0.0560473 -0.70329 -0.708691 -0.0971762 -0.531845 -0.841248 -0.118553 -0.648464 -0.751957 
-0.145262 -0.528957 -0.836124 -0.254206 -0.513477 -0.819586 -0.226985 -0.568056 -0.791069 
-0.236459 -0.508796 -0.827776 0.0657894 0.539487 -0.839419 -0.0563637 0.504017 -0.861853 
0.123707 0.519704 -0.845343 0.223644 0.451543 -0.863766 0.0675067 0.50588 -0.859958 
-0.0664855 0.502747 -0.861873 -0.0563703 0.501565 -0.863281 -0.176457 0.451175 -0.874816 
-0.264507 0.357395 -0.895715 0.312827 0.316263 -0.89561 0.313024 0.315276 -0.895889 
0.170758 0.251763 -0.952605 0.0349372 0.196736 -0.979834 -0.0665658 0.191829 -0.979168 
-0.121915 0.174559 -0.97707 -0.281224 0.338059 -0.898125 -0.234636 0.300655 -0.92442 
-0.255098 0.203687 -0.945218 0.326047 0.222315 -0.918841 0.319046 0.221015 -0.921608 
0.22809 0.146306 -0.962585 0.120026 0.0483355 -0.991593 0.00627005 0.00258127 -0.999977 
-0.0799839 -0.0396882 -0.996006 -0.0928474 -0.0189449 -0.9955 -0.137384 0.0322024 -0.989994 
-0.248583 0.185695 -0.950644 -0.219797 0.14983 -0.963971 0.312116 0.211034 -0.926309 
0.364105 0.189724 -0.911829 0.232872 0.165177 -0.958377 0.108694 0.0395953 -0.993286 
0.0344322 -0.0905087 -0.9953 -0.0530366 -0.139509 -0.9888 -0.0896827 -0.128611 -0.987632 
-0.0537327 -0.0972029 -0.993813 -0.0572041 -0.0923702 -0.99408 -0.169899 0.0277652 -0.98507 
-0.0695585 -0.0707906 -0.995063 -0.115161 -0.0312694 -0.992855 0.374505 0.178319 -0.909917 
0.357512 0.178274 -0.916735 0.127516 0.128862 -0.98343 -0.0224302 0.0355723 -0.999115 
-0.0549702 -0.069367 -0.996076 -0.0345899 -0.0861276 -0.995683 -0.0371952 -0.0803718 -0.996071 
-0.0576357 0.037617 -0.997629 -0.0635339 -0.0698074 -0.995535 -0.0639145 -0.035554 -0.997322 
0.453269 0.119658 -0.883306 0.326088 0.115437 -0.938265 0.0752518 0.0933254 -0.992788 
-0.0916934 0.0425027 -0.99488 -0.0856767 -0.0147826 -0.996213 -0.0659709 0.0113271 -0.997757 
0.0333284 -0.0258221 -0.999111 0.00532059 -0.0125876 -0.999907 -0.140018 0.0236708 -0.989866 
-0.185324 0.089747 -0.978571 0.476499 -0.0062035 -0.879153 0.313129 -0.0142566 -0.949604 
0.0507051 -0.0248633 -0.998404 -0.133546 -0.0290373 -0.990617 -0.0833259 -0.0403169 -0.995706 
-0.0431151 -0.0540787 -0.997605 -0.0654463 0.0397878 -0.997063 0.0563102 -0.123306 -0.99077 
-0.190889 -0.0191524 -0.981425 -0.0736823 -0.0328356 -0.996741 0.423386 -0.107816 -0.899511 
0.30785 -0.0983374 -0.946339 0.062153 -0.0729051 -0.9954 -0.104441 -0.0456202 -0.993484 
-0.11331 -0.0134907 -0.993468 0.0131921 -0.0534414 -0.998484 -0.0327496 -0.00712511 -0.999438 
-0.118091 -0.114375 -0.986394 -0.0708978 -0.0659701 -0.9953 -0.113793 -0.214157 -0.970148 
-0.094541 -0.244268 -0.965088 -0.0733881 -0.22677 -0.971179 0.412119 -0.235357 -0.880207 
0.390892 -0.274124 -0.878669 0.368844 -0.223637 -0.902187 0.114134 -0.164332 -0.97978 
-0.0684497 -0.0999306 -0.992637 -0.093969 -0.0601966 -0.993754 -0.0706025 -0.232 -0.97015 
-0.0369058 -0.0549224 -0.997808 -0.141064 -0.162356 -0.976597 -0.109247 -0.228052 -0.967501 
-0.0760747 -0.146959 -0.986213 0.244904 -0.39575 -0.885101 0.199841 -0.416319 -0.886985 
0.187269 -0.374915 -0.907948 0.0122663 -0.3722 -0.928072 -0.0140267 -0.305933 -0.95195 
-0.0708049 -0.24669 -0.966504 -0.0580995 -0.264563 -0.962617 -0.0604338 -0.232861 -0.97063 

