# vtk DataFile Version 4.2
vtk output
ASCII
DATASET POLYDATA
POINTS 551 float
-27.9221 -43.1308 -12.6786 -19.4746 -43.1308 -14.1307 -11.027 -43.1308 -15.1675 
-2.57943 -43.1308 -14.9538 5.86815 -43.1308 -15.1657 14.3157 -43.1308 -15.375 
22.7633 -43.1308 -14.0513 31.2109 -43.1308 -12.0339 -44.8173 -34.6832 -12.9499 
-36.3697 -34.6832 -15.5361 -27.9221 -34.6832 -16.5221 -19.4746 -34.6832 -17.091 
-11.027 -34.6832 -17.2799 -2.57943 -34.6832 -17.6152 5.86815 -34.6832 -17.8301 
14.3157 -34.6832 -17.573 22.7633 -34.6832 -17.9208 31.2109 -34.6832 -15.9543 
39.6584 -34.6832 -15.5072 48.106 -34.6832 -13.256 -53.2649 -26.2357 -13.6171 
-44.8173 -26.2357 -16.7351 -36.3697 -26.2357 -18.0473 -27.9221 -26.2357 -17.8323 
-19.4746 -26.2357 -18.3173 -11.027 -26.2357 -17.7765 -2.57943 -26.2357 -18.0098 
5.86815 -26.2357 -18.1621 14.3157 -26.2357 -17.8487 22.7633 -26.2357 -17.6922 
31.2109 -26.2357 -17.8712 39.6584 -26.2357 -16.3357 48.106 -26.2357 -15.1581 
56.5536 -26.2357 -13.0502 -61.7124 -17.7881 -13.2 -53.2649 -17.7881 -17.4093 
-44.8173 -17.7881 -18.1695 -36.3697 -17.7881 -18.429 -27.9221 -17.7881 -18.4717 
-19.4746 -17.7881 -17.725 -11.027 -17.7881 -17.2746 -2.57943 -17.7881 -17.3866 
5.86815 -17.7881 -17.238 14.3157 -17.7881 -16.5305 22.7633 -17.7881 -16.5656 
31.2109 -17.7881 -17.0859 39.6584 -17.7881 -16.9997 48.106 -17.7881 -16.5261 
56.5536 -17.7881 -13.8742 -61.7124 -9.34051 -13.4542 -53.2649 -9.34051 -17.4443 
-44.8173 -9.34051 -19.4191 -36.3697 -9.34051 -18.8397 -27.9221 -9.34051 -18.0076 
-19.4746 -9.34051 -17.0656 -11.027 -9.34051 -18.4212 -2.57943 -9.34051 -18.868 
5.86815 -9.34051 -17.9912 14.3157 -9.34051 -14.4397 22.7633 -9.34051 -15.6166 
31.2109 -9.34051 -16.4854 39.6584 -9.34051 -16.747 48.106 -9.34051 -15.7239 
56.5536 -9.34051 -13.7711 -61.7124 -0.892934 -13.5295 -53.2649 -0.892934 -17.4904 
-44.8173 -0.892934 -19.475 -36.3697 -0.892934 -18.9023 -27.9221 -0.892934 -17.9395 
-19.4746 -0.892934 -16.4881 -11.027 -0.892934 -20.1499 -2.57943 -0.892934 -14.9286 
5.86815 -0.892934 -17.4077 14.3157 -0.892934 -16.036 22.7633 -0.892934 -15.4737 
31.2109 -0.892934 -16.143 39.6584 -0.892934 -16.1575 48.106 -0.892934 -15.2952 
56.5536 -0.892934 -12.7149 -61.7124 7.55464 -13.4306 -53.2649 7.55464 -16.6355 
-44.8173 7.55464 -18.8751 -36.3697 7.55464 -19.0113 -27.9221 7.55464 -18.2464 
-19.4746 7.55464 -16.9896 -11.027 7.55464 -16.2557 -2.57943 7.55464 -18.8961 
5.86815 7.55464 -14.8819 14.3157 7.55464 -15.2976 22.7633 7.55464 -16.3943 
31.2109 7.55464 -16.1985 39.6584 7.55464 -15.5178 48.106 7.55464 -14.3074 
56.5536 7.55464 -12.7575 -53.2649 16.0022 -15.1712 -44.8173 16.0022 -17.7261 
-36.3697 16.0022 -18.9862 -27.9221 16.0022 -18.8403 -19.4746 16.0022 -17.843 
-11.027 16.0022 -16.5454 -2.57943 16.0022 -15.6312 5.86815 16.0022 -14.2051 
14.3157 16.0022 -15.1878 22.7633 16.0022 -16.7232 31.2109 16.0022 -16.4915 
39.6584 16.0022 -15.0927 48.106 16.0022 -12.7789 -53.2649 24.4498 -12.2363 
-44.8173 24.4498 -16.0159 -36.3697 24.4498 -18.8655 -27.9221 24.4498 -19.295 
-19.4746 24.4498 -18.6133 -11.027 24.4498 -17.7793 -2.57943 24.4498 -16.7295 
5.86815 24.4498 -16.4519 14.3157 24.4498 -16.4589 22.7633 24.4498 -17.2048 
31.2109 24.4498 -16.9018 39.6584 24.4498 -14.9874 -36.3697 32.8974 -15.9101 
-27.9221 32.8974 -18.384 -19.4746 32.8974 -18.0351 -11.027 32.8974 -17.9167 
-2.57943 32.8974 -17.625 5.86815 32.8974 -17.238 14.3157 32.8974 -16.8627 
22.7633 32.8974 -17.6322 31.2109 32.8974 -15.3927 39.6584 32.8974 -12.1479 
-27.9221 41.3449 -13.5965 -19.4746 41.3449 -15.8602 -11.027 41.3449 -16.3471 
-2.57943 41.3449 -16.5537 5.86815 41.3449 -16.2764 14.3157 41.3449 -15.6061 
22.7633 41.3449 -14.9622 31.2109 41.3449 -12.6698 -27.9221 -43.8982 -11.975 
-19.4746 -46.2993 -11.975 -11.027 -47.7735 -11.975 -2.57943 -46.9695 -11.975 
-2.57943 -51.5784 -3.691 5.86815 -47.1601 -11.975 14.3157 -48.0025 -11.975 
22.7633 -45.9505 -11.975 31.2109 -43.1894 -11.975 -44.8173 -36.1586 -11.975 
-32.7218 -43.1308 -11.975 -36.3697 -42.3245 -11.975 -36.3697 -43.1308 -11.0691 
31.465 -43.1308 -11.975 39.6584 -40.2582 -11.975 39.6584 -43.1308 -7.8761 
48.106 -36.5333 -11.975 -47.7626 -34.6832 -11.975 -53.2649 -30.2594 -11.975 
-53.2649 -34.6832 -8.9837 50.5928 -34.6832 -11.975 56.5536 -28.5428 -11.975 
56.5536 -34.6832 -6.04826 -56.7384 -26.2357 -11.975 -61.7124 -21.167 -11.975 
-61.7124 -26.2357 -8.50452 58.4408 -26.2357 -11.975 65.0012 -26.2357 -5.47617 
-63.2626 -17.7881 -11.975 59.931 -17.7881 -11.975 65.0012 -17.7881 -9.2428 
-63.6329 -9.34051 -11.975 63.1484 -9.34051 -11.975 65.0012 -9.34051 -11.3034 
-63.8626 -0.892934 -11.975 -70.16 -0.892934 -4.06882 58.3898 -0.892934 -11.975 
65.0012 -0.892934 -9.35145 -63.3813 7.55464 -11.975 -61.7124 11.4353 -11.975 
58.1266 7.55464 -11.975 56.5536 9.67164 -11.975 65.0012 7.55464 -6.906 
-58.2973 16.0022 -11.975 -61.7124 16.0022 -8.09363 49.9238 16.0022 -11.975 
48.106 18.8905 -11.975 56.5536 16.0022 -8.401 -53.5709 24.4498 -11.975 
-53.2649 24.7924 -11.975 -44.8173 32.283 -11.975 45.5418 24.4498 -11.975 
48.106 24.4498 -10.2501 56.5536 24.4498 -4.3457 -44.1568 32.8974 -11.975 
-44.8173 32.8974 -11.1853 -36.3697 38.4543 -11.975 39.9852 32.8974 -11.975 
39.6584 33.3279 -11.975 48.106 32.8974 -6.35309 -31.4616 41.3449 -11.975 
-36.3697 41.3449 -5.06042 -27.9221 43.057 -11.975 -19.4746 46.2265 -11.975 
-11.027 47.9205 -11.975 -2.57943 49.2211 -11.975 5.86815 49.1967 -11.975 
14.3157 47.9881 -11.975 22.7633 46.5581 -11.975 32.6317 41.3449 -11.975 
31.2109 42.2046 -11.975 39.6584 41.3449 -6.52025 -11.027 49.7925 -9.15126 
-2.57943 49.7925 -11.2868 5.86815 49.7925 -11.3314 14.3157 49.7925 -10.0577 
22.7633 49.7925 -6.56644 -2.57943 -51.6372 -3.52742 -36.3697 -46.5649 -3.52742 
-27.9221 -49.1861 -3.52742 -19.4746 -50.8563 -3.52742 -5.61597 -51.5784 -3.52742 
-11.027 -51.4736 -3.52742 -0.253387 -51.5784 -3.52742 -2.57943 -51.5784 -3.3386 
5.86815 -51.4226 -3.52742 14.3157 -50.6857 -3.52742 22.7633 -49.2419 -3.52742 
31.2109 -47.266 -3.52742 39.6584 -44.6706 -3.52742 -53.2649 -37.7648 -3.52742 
-44.7571 -43.1308 -3.52742 -44.8173 -43.1042 -3.52742 43.7155 -43.1308 -3.52742 
39.6584 -43.1308 1.73486 48.106 -41.3729 -3.52742 56.5536 -36.2829 -3.52742 
-56.8687 -34.6832 -3.52742 -61.7124 -29.8886 -3.52742 58.8886 -34.6832 -3.52742 
56.5536 -34.6832 3.48126 65.0012 -28.434 -3.52742 -64.5088 -26.2357 -3.52742 
66.5421 -26.2357 -3.52742 -68.5177 -17.7881 -3.52742 70.5679 -17.7881 -3.52742 
-70.0676 -9.34051 -3.52742 -70.16 -7.25119 -3.52742 72.9136 -9.34051 -3.52742 
73.4487 -9.34051 4.58402 -70.4153 -0.892934 -3.52742 -70.16 0.0364354 -3.52742 
-70.16 -0.892934 -0.995273 71.0156 -0.892934 -3.52742 -67.9946 7.55464 -3.52742 
68.3505 7.55464 -3.52742 65.0012 13.2699 -3.52742 -63.993 16.0022 -3.52742 
-61.7124 20.058 -3.52742 62.8507 16.0022 -3.52742 65.0012 16.0022 1.04701 
-58.5553 24.4498 -3.52742 -53.2649 29.7706 -3.52742 57.3148 24.4498 -3.52742 
56.5536 25.4946 -3.52742 -49.7003 32.8974 -3.52742 -44.8173 36.499 -3.52742 
50.5806 32.8974 -3.52742 48.106 35.4751 -3.52742 -37.1671 41.3449 -3.52742 
-36.3697 41.8046 -3.52742 -36.3697 41.3449 1.07526 -27.9221 46.1916 -3.52742 
-19.4746 49.6626 -3.52742 31.2109 47.9478 -3.52742 41.8907 41.3449 -3.52742 
39.6584 43.0977 -3.52742 -19.0321 49.7925 -3.52742 -11.027 52.0454 -3.52742 
-2.57943 53.1958 -3.52742 5.86815 53.451 -3.52742 14.3157 52.7966 -3.52742 
26.0379 49.7925 -3.52742 22.7633 50.8717 -3.52742 -36.3697 -44.7997 4.92016 
-27.9221 -46.4369 4.92016 -19.4746 -47.8185 4.92016 -11.027 -48.1616 4.92016 
-2.57943 -47.8513 4.92016 5.86815 -47.124 4.92016 14.3157 -46.1693 4.92016 
22.7633 -44.9919 4.92016 31.2109 -44.2607 4.92016 -53.2649 -36.4029 4.92016 
-40.8367 -43.1308 4.92016 -44.8173 -41.0472 4.92016 -36.3697 -43.1308 7.09093 
-27.9221 -43.1308 8.17799 -19.4746 -43.1308 8.92367 -11.027 -43.1308 8.97717 
-2.57943 -43.1308 8.60292 5.86815 -43.1308 8.10202 14.3157 -43.1308 7.48711 
22.7633 -43.1308 6.90299 35.7592 -43.1308 4.92016 31.2109 -43.1308 6.18427 
39.6584 -41.6796 4.92016 48.106 -37.4114 4.92016 -55.3184 -34.6832 4.92016 
-61.7124 -28.3129 4.92016 -53.2649 -34.6832 6.96418 -44.8173 -34.6832 12.0984 
-36.3697 -34.6832 12.6292 -19.4746 -34.6832 12.9209 -11.027 -34.6832 12.6309 
-2.57943 -34.6832 12.2059 5.86815 -34.6832 11.9109 14.3157 -34.6832 11.7811 
22.7633 -34.6832 11.879 31.2109 -34.6832 10.9559 39.6584 -34.6832 9.8044 
55.4779 -34.6832 4.92016 48.106 -34.6832 7.91195 56.5536 -34.1759 4.92016 
65.0012 -27.4985 4.92016 -63.309 -26.2357 4.92016 -61.7124 -26.2357 6.95104 
48.106 -26.2357 12.7416 56.5536 -26.2357 12.097 66.1366 -26.2357 4.92016 
65.0012 -26.2357 5.96678 -66.5119 -17.7881 4.92016 -61.7124 -17.7881 10.8225 
70.4482 -17.7881 4.92016 65.0012 -17.7881 11.7921 73.4487 -9.40475 4.92016 
-68.8259 -9.34051 4.92016 73.4487 -9.12961 4.92016 73.4487 -9.34051 4.94389 
-69.3981 -0.892934 4.92016 -61.7124 -0.892934 12.8324 72.7387 -0.892934 4.92016 
-66.8893 7.55464 4.92016 71.1592 7.55464 4.92016 -63.9385 16.0022 4.92016 
-61.7124 19.6783 4.92016 -61.7124 16.0022 8.63874 66.1656 16.0022 4.92016 
65.0012 17.6889 4.92016 65.0012 16.0022 6.92572 -58.196 24.4498 4.92016 
-53.2649 29.5611 4.92016 -53.2649 24.4498 11.6187 59.8088 24.4498 4.92016 
56.5536 28.1196 4.92016 56.5536 24.4498 10.5093 -49.351 32.8974 4.92016 
-44.8173 36.1161 4.92016 -44.8173 32.8974 11.0345 -36.3697 40.9649 4.92016 
51.8813 32.8974 4.92016 48.106 36.7559 4.92016 48.106 32.8974 11.1507 
-35.5815 41.3449 4.92016 -27.9221 45.0225 4.92016 -27.9221 41.3449 11.8088 
-19.4746 48.0533 4.92016 31.2109 47.0643 4.92016 31.2109 41.3449 12.5013 
42.138 41.3449 4.92016 39.6584 43.0098 4.92016 39.6584 41.3449 7.69811 
-13.9775 49.7925 4.92016 -11.027 50.6415 4.92016 -11.027 49.7925 6.41506 
-2.57943 51.4295 4.92016 -2.57943 49.7925 7.74265 5.86815 51.6943 4.92016 
5.86815 49.7925 8.19906 14.3157 51.3928 4.92016 14.3157 49.7925 7.64864 
23.3219 49.7925 4.92016 22.7633 49.9591 4.92016 22.7633 49.7925 5.23172 
-27.9221 -35.4369 13.3677 -53.2649 -27.209 13.3677 -44.8173 -32.0146 13.3677 
[...]
POINT_DATA 551
SCALARS ImageScalars float
LOOKUP_TABLE default
0 0 0 0 0 0 0 0 0 
0 0 0 0 0 0 0 0 0 
0 0 0 0 0 0 0 0 0 
0 0 0 0 0 0 0 0 0 
0 0 0 0 0 0 0 0 0 
0 0 0 0 0 0 0 0 0 
0 0 0 0 0 0 0 0 0 
0 0 0 0 0 0 0 0 0 
0 0 0 0 0 0 0 0 0 
0 0 0 0 0 0 0 0 0 
0 0 0 0 0 0 0 0 0 
0 0 0 0 0 0 0 0 0 
0 0 0 0 0 0 0 0 0 
0 0 0 0 0 0 0 0 0 
0 0 0 0 0 0 0 0 0 
0 0 0 0 0 0 0 0 0 
0 0 0 0 0 0 0 0 0 
0 0 0 0 0 0 0 0 0 
0 0 0 0 0 0 0 0 0 
0 0 0 0 0 0 0 0 0 
0 0 0 0 0 0 0 0 0 
0 0 0 0 0 0 0 0 0 
0 0 0 0 0 0 0 0 0 
0 0 0 0 0 0 0 0 0 
0 0 0 0 0 0 0 0 0 
0 0 0 0 0 0 0 0 0 
0 0 0 0 0 0 0 0 0 
0 0 0 0 0 0 0 0 0 
0 0 0 0 0 0 0 0 0 
0 0 0 0 0 0 0 0 0 
0 0 0 0 0 0 0 0 0 
0 0 0 0 0 0 0 0 0 
0 0 0 0 0 0 0 0 0 
0 0 0 0 0 0 0 0 0 
0 0 0 0 0 0 0 0 0 
0 0 0 0 0 0 0 0 0 
0 0 0 0 0 0 0 0 0 
0 0 0 0 0 0 0 0 0 
0 0 0 0 0 0 0 0 0 
0 0 0 0 0 0 0 0 0 
0 0 0 0 0 0 0 0 0 
0 0 0 0 0 0 0 0 0 
0 0 0 0 0 0 0 0 0 
0 0 0 0 0 0 0 0 0 
0 0 0 0 0 0 0 0 0 
0 0 0 0 0 0 0 0 0 
0 0 0 0 0 0 0 0 0 
0 0 0 0 0 0 0 0 0 
0 0 0 0 0 0 0 0 0 
0 0 0 0 0 0 0 0 0 
0 0 0 0 0 0 0 0 0 
0 0 0 0 0 0 0 0 0 
0 0 0 0 0 0 0 0 0 
0 0 0 0 0 0 0 0 0 
0 0 0 0 0 0 0 0 0 
0 0 0 0 0 0 0 0 0 
0 0 0 0 0 0 0 0 0 
0 0 0 0 0 0 0 0 0 
0 0 0 0 0 0 0 0 0 
0 0 0 0 0 0 0 0 0 
0 0 0 0 0 0 0 0 0 
0 0 
NORMALS Normals float
0.156531 0.601823 0.78314 0.126161 0.501315 0.856018 0.0503569 0.440213 0.89648 
-0.00205036 0.482753 0.875754 0.0248381 0.49028 0.871211 -0.0678398 0.461786 0.884393 
-0.173065 0.5577 0.8118 -0.225669 0.678524 0.699055 0.303591 0.51972 0.798576 
0.169326 0.343017 0.923942 0.0995696 0.251562 0.962706 0.0405744 0.230169 0.972305 
0.031335 0.151974 0.987888 0.0320848 0.156624 0.987137 -0.00249681 0.154415 0.988003 
0.00377388 0.1414 0.989945 -0.0894177 0.195061 0.976707 -0.126092 0.280885 0.951422 
-0.175944 0.335903 0.925318 -0.335057 0.446927 0.829453 0.427417 0.378805 0.820866 
0.207315 0.244184 0.947309 0.0751304 0.183142 0.980211 0.0164648 0.105838 0.994247 
-0.00354221 0.0420592 0.999109 -0.0177294 -0.000561967 0.999843 0.0229604 -0.0138135 0.999641 
-0.00951465 -0.03549 0.999325 -0.0277623 -0.058423 0.997906 0.00100487 -0.0783642 0.996924 
-0.0758527 0.0587326 0.995388 -0.146131 0.0749865 0.986419 -0.215894 0.220659 0.951157 
-0.392334 0.263259 0.881345 0.560124 0.185845 0.807293 0.294263 0.178415 0.938924 
0.0522712 0.166972 0.984575 0.0170871 0.0453545 0.998825 -0.0432321 0.0105431 0.999009 
-0.0675559 -0.073965 0.99497 -0.0202707 0.0309598 0.999315 -0.00225283 0.0480836 0.998841 
-0.0489288 -0.0205067 0.998592 -0.0399503 -0.194472 0.980094 0.032878 -0.122962 0.991867 
0.0255693 -0.0804716 0.996429 -0.0379179 0.0233862 0.999007 -0.152523 0.020402 0.988089 
-0.399539 0.0477673 0.915471 0.574066 0.0190603 0.818587 0.287907 0.00443583 0.957648 
0.099574 0.0766599 0.992073 -0.0818054 0.0278581 0.996259 -0.104468 -0.0293573 0.994095 
0.0156984 -0.0728855 0.997217 0.115925 0.151706 0.981604 -0.0171253 -0.066247 0.997656 
-0.270356 0.019649 0.96256 -0.0982412 -0.0469299 0.994055 0.115386 -0.063679 0.991278 
0.0666402 -0.0557809 0.996217 -0.0448767 -0.0495401 0.997763 -0.162013 -0.0795571 0.983576 
-0.227631 -0.067325 0.971417 0.546525 -0.00214052 0.83744 0.287233 -0.0467908 0.956717 
0.100965 -0.0317768 0.994382 -0.0890901 0.0100924 0.995972 -0.141319 0.0139714 0.989865 
0.0687356 -0.00479367 0.997623 0.020384 -0.142556 0.989577 -0.158416 -0.0318249 0.98686 
0.0367385 -0.140641 0.989379 -0.107698 0.053606 0.992737 0.0138315 0.0454107 0.998873 
0.0391304 -0.0169572 0.99909 -0.0533774 -0.0725459 0.995936 -0.188533 -0.076938 0.979048 
-0.327891 -0.0529065 0.943233 0.587177 -0.178213 0.789597 0.307114 -0.121658 0.943865 
0.150229 -0.10107 0.983472 -0.0376206 0.00500052 0.99928 -0.118472 0.0528794 0.991548 
-0.11483 0.0802837 0.990136 0.0993888 -0.156298 0.982697 -0.00371798 -0.0469402 0.998891 
-0.226281 -0.186905 0.955962 0.0825286 -0.0426924 0.995674 0.0492621 0.0727637 0.996132 
-0.050988 0.0205601 0.998488 -0.106968 -0.0619525 0.99233 -0.177706 -0.146161 0.973169 
-0.3401 -0.19198 0.920584 0.430176 -0.250614 0.867261 0.194743 -0.163144 0.967191 
0.0619774 -0.0080443 0.998045 -0.0669562 0.0613162 0.99587 -0.132275 0.0979266 0.986364 
-0.134608 0.0913642 0.986678 -0.132383 -0.110963 0.984968 -0.0286052 0.114526 0.993008 
0.146447 0.0697726 0.986755 0.0760428 0.0472999 0.995982 -0.0929185 0.0403622 0.994855 
-0.202753 -0.0312581 0.978731 -0.326406 -0.205487 0.922623 0.592393 -0.472148 0.652799 
0.350196 -0.285264 0.892181 0.180284 -0.160309 0.970463 -0.0174984 -0.0207458 0.999632 
-0.0885548 0.011844 0.996001 -0.108222 0.0753594 0.991266 -0.0800111 0.119958 0.98955 
-0.0151883 0.170426 0.985253 0.044439 0.0980996 0.994184 0.0268671 0.0517561 0.998298 
-0.136168 -0.0596547 0.988888 -0.340119 -0.137827 0.930227 0.321543 -0.440953 0.837956 
0.111686 -0.286544 0.951535 -0.0253618 -0.15765 0.987169 -0.0242311 -0.0745203 0.996925 
-0.0401346 -0.00755883 0.999166 -0.0450561 -0.00585932 0.998967 0.0200067 -0.0448207 0.998795 
-0.0781642 -0.13223 0.988132 -0.277581 -0.207253 0.938081 -0.418694 -0.358091 0.834546 
0.317377 -0.654824 0.685914 0.146057 -0.464073 0.873672 0.0418805 -0.352069 0.935036 
-0.00461827 -0.277711 0.960653 -0.054016 -0.263473 0.963153 -0.0777337 -0.298199 0.951333 
-0.137813 -0.398079 0.90694 -0.357697 -0.501945 0.787467 0.171065 0.637906 0.750875 
0.160795 0.654899 0.738412 0.0275577 0.708835 0.704836 -0.0275364 0.687521 0.725643 
-0.00333567 0.999446 0.0330999 0.0461359 0.712886 0.699761 -0.0553623 0.757561 0.650413 
-0.219694 0.699178 0.680357 -0.226595 0.681728 0.695631 0.330613 0.554577 0.763635 
0.213536 0.662446 0.718031 0.246828 0.664644 0.705212 0.267491 0.729664 0.629317 
-0.228513 0.681138 0.695581 -0.263805 0.617137 0.741316 -0.335171 0.872796 0.354807 
-0.374924 0.526493 0.763045 0.364381 0.53459 0.762523 0.459314 0.45242 0.764426 
0.556171 0.632075 0.539588 -0.428152 0.509135 0.746637 -0.464813 0.382314 0.798615 
-0.60579 0.737348 0.298892 0.497028 0.413753 0.76274 0.577218 0.303272 0.758186 
0.670386 0.536041 0.513072 -0.443682 0.307849 0.84165 -0.740574 0.527532 0.416246 
0.613101 0.201198 0.763954 -0.442105 0.10419 0.890891 -0.609632 0.260795 0.748555 
0.645161 0.0264938 0.763587 -0.491839 -0.0184019 0.870492 -0.581398 -0.00263743 0.813615 
0.626431 -0.0166803 0.779299 0.970138 -0.119213 0.211236 -0.347737 -0.0780871 0.934335 
-0.510441 -0.212624 0.833211 0.673151 -0.193064 0.713859 0.634452 -0.293814 0.714943 
-0.378501 -0.216822 0.899848 -0.384282 -0.240485 0.891344 -0.626258 -0.395682 0.671742 
0.572433 -0.387485 0.722617 0.746792 -0.475017 0.465469 -0.360246 -0.243031 0.900644 
-0.389905 -0.219916 0.89421 -0.552125 -0.391424 0.736169 0.601081 -0.475354 0.642448 
0.59729 -0.48185 0.641144 0.533848 -0.608332 0.587315 -0.462659 -0.221543 0.858409 
-0.531129 -0.290258 0.796023 -0.693682 -0.481375 0.535801 0.531287 -0.617684 0.579827 
0.551767 -0.64534 0.52829 0.438679 -0.686951 0.579361 -0.424601 -0.36231 0.829726 
-0.425827 -0.369886 0.825745 -0.652069 -0.540522 0.531642 0.397593 -0.719783 0.569062 
0.486067 -0.860033 0.155183 0.354901 -0.724027 0.591464 0.224427 -0.746606 0.626269 
0.133613 -0.728343 0.67206 0.0517939 -0.738714 0.672027 -0.0425245 -0.715177 0.697649 
-0.0953655 -0.648255 0.755428 -0.21263 -0.652211 0.727605 -0.396814 -0.518311 0.757557 
-0.37357 -0.541406 0.75321 -0.598838 -0.68733 0.41106 0.183776 -0.885193 0.427388 
0.0588125 -0.795522 0.603064 -0.040148 -0.773304 0.632763 -0.120675 -0.813729 0.568579 
-0.270064 -0.917409 0.292277 -0.0029341 0.999717 0.023614 0.351141 0.930495 0.104303 
0.244557 0.966417 0.0789277 0.136461 0.989704 0.0431712 0.0141911 0.999736 0.0180518 
0.0450485 0.998955 0.00770458 -0.0174845 0.999744 0.0143325 -0.00380908 0.999921 0.0119408 
-0.0562031 0.998359 -0.0109513 -0.129284 0.98771 -0.0878381 -0.201161 0.97809 -0.0536084 
-0.263064 0.964684 0.0135189 -0.3293 0.943893 0.0250549 0.617007 0.771882 0.153301 
0.450003 0.883676 0.1289 0.450728 0.883253 0.129257 -0.376664 0.925652 0.0359552 
-0.332123 0.880278 -0.338829 -0.442917 0.895565 0.0422706 -0.588703 0.79094 0.166862 
0.674147 0.720497 0.162511 0.74725 0.640294 0.177882 -0.631138 0.752022 0.190075 
-0.474307 0.776624 -0.414594 -0.751413 0.593237 0.288876 0.822268 0.541546 0.174935 
-0.789817 0.543561 0.284133 0.929938 0.32495 0.172114 -0.914512 0.303057 0.268 
0.976407 0.105308 0.188517 0.980906 0.0493071 0.188128 -0.875672 0.0292147 0.482021 
-0.927147 0.105947 -0.359407 0.976385 -0.11745 0.181325 0.972152 -0.141642 0.186706 
0.992897 -0.116453 0.0243679 -0.908202 -0.20665 0.363958 0.921562 -0.342755 0.182327 
-0.768947 -0.418735 0.483095 -0.692004 -0.490638 0.529533 0.850617 -0.485063 0.202891 
0.808822 -0.55069 0.206272 -0.68466 -0.491486 0.538222 -0.801876 -0.571025 0.175858 
0.755067 -0.625511 0.196493 0.681198 -0.709656 0.17988 -0.716922 -0.496122 0.489781 
-0.714572 -0.503942 0.485211 0.629934 -0.757998 0.16918 0.580548 -0.800871 0.14687 
-0.704193 -0.603461 0.374094 -0.684113 -0.633468 0.361535 0.492497 -0.865764 0.0888828 
0.482953 -0.871507 0.0850408 0.465984 -0.881016 -0.0816673 0.416154 -0.905757 0.0801296 
0.325679 -0.942884 0.0700205 -0.412459 -0.895342 0.168051 -0.627661 -0.735162 0.256082 
-0.593936 -0.770323 0.23204 0.319026 -0.945054 0.0713814 0.203682 -0.974599 0.093114 
0.0811081 -0.993644 0.0780553 -0.0252066 -0.995401 0.0924155 -0.146634 -0.982488 0.114963 
-0.320622 -0.938711 0.126581 -0.270391 -0.956095 0.113012 0.264547 0.840348 -0.473107 
0.156779 0.809599 -0.565659 0.0850249 0.801531 -0.591878 0.00215365 0.785548 -0.618796 
-0.0452699 0.754356 -0.654902 -0.0732767 0.72915 -0.68042 -0.0936788 0.721353 -0.686202 
-0.0980936 0.754903 -0.648459 -0.154788 0.78934 -0.594124 0.541661 0.724692 -0.42594 
0.360557 0.811164 -0.460448 0.423754 0.780205 -0.460122 0.235224 0.773171 -0.588962 
0.0868458 0.682363 -0.725837 0.0407607 0.59358 -0.803742 -0.0177614 0.559231 -0.828821 
-0.0471045 0.547391 -0.83555 -0.0589617 0.561004 -0.82571 -0.0573242 0.59941 -0.798387 
-0.0695744 0.678506 -0.731292 -0.234988 0.774643 -0.587119 -0.150361 0.721639 -0.675743 
-0.294839 0.750178 -0.591864 -0.322089 0.766203 -0.55605 0.581534 0.695118 -0.422645 
0.721791 0.543275 -0.428801 0.524106 0.667325 -0.529141 0.250563 0.537639 -0.805085 
0.0877823 0.432035 -0.897575 -0.0627511 0.304323 -0.9505 -0.041973 0.275642 -0.960344 
-0.0425279 0.271993 -0.961359 -0.0249394 0.286342 -0.957803 -0.00257568 0.327282 -0.944923 
-0.0428606 0.327707 -0.943807 -0.11256 0.424648 -0.898334 -0.134849 0.51796 -0.844709 
-0.409083 0.742457 -0.53048 -0.280679 0.698994 -0.657743 -0.430105 0.738 -0.519967 
-0.65282 0.593976 -0.470126 0.762182 0.483611 -0.430347 0.717853 0.484933 -0.499528 
-0.0953468 0.350439 -0.931719 -0.337593 0.445085 -0.829415 -0.690745 0.577831 -0.434722 
-0.626906 0.575661 -0.52498 0.828166 0.316654 -0.462462 0.612502 0.310273 -0.72703 
-0.824603 0.397355 -0.402666 -0.614527 0.5087 -0.602977 -0.914511 0.109969 -0.389327 
0.906056 0.129124 -0.402975 -0.91762 0.101014 -0.384408 -0.914494 0.10775 -0.389988 
0.91519 -0.0984912 -0.390802 0.600483 -0.0350162 -0.79887 -0.970261 -0.127468 -0.205781 
0.895624 -0.286263 -0.340457 -0.904815 -0.38744 -0.176633 0.866745 -0.423941 -0.26273 
0.81998 -0.509043 -0.261742 0.780962 -0.412346 -0.469115 -0.824371 -0.553286 -0.119525 
-0.809942 -0.574265 -0.119224 -0.782034 -0.556504 -0.280584 0.744604 -0.617895 -0.252529 
0.674286 -0.703525 -0.224479 0.646745 -0.506241 -0.570475 -0.762078 -0.638475 -0.10764 
-0.733073 -0.671024 -0.11104 -0.647961 -0.496872 -0.57729 0.609993 -0.764189 -0.209578 
0.551563 -0.805844 -0.21539 0.521438 -0.708588 -0.4754 0.440728 -0.869038 -0.224792 
-0.698633 -0.701919 -0.138643 -0.655767 -0.736507 -0.165912 -0.525438 -0.573967 -0.628074 
0.433534 -0.871561 -0.228977 0.367881 -0.8859 -0.282568 0.295532 -0.768433 -0.567601 
0.297408 -0.89699 -0.327042 -0.361181 -0.877516 -0.315457 -0.306926 -0.596646 -0.741492 
-0.545954 -0.805116 -0.231783 -0.501918 -0.827193 -0.252646 -0.477658 -0.773275 -0.416999 
0.225721 -0.911868 -0.34285 0.182628 -0.917642 -0.352959 0.175859 -0.894154 -0.411778 
0.0603307 -0.92669 -0.370953 0.0587458 -0.877923 -0.475184 -0.00163035 -0.929005 -0.370063 
-0.00281288 -0.873757 -0.486355 -0.102799 -0.928614 -0.356523 -0.0955252 -0.882711 -0.460104 
-0.228425 -0.923182 -0.309124 -0.220373 -0.924788 -0.310166 -0.21939 -0.920878 -0.32226 
0.0114541 0.401129 -0.91595 0.384955 0.379594 -0.84126 0.19473 0.443269 -0.874982 
0.033549 0.394002 -0.918497 0.0678713 0.378138 -0.923258 -0.0273028 0.342912 -0.938971 
0.00623453 0.379259 -0.925269 -0.0742938 0.258627 -0.963116 -0.0527067 0.19583 -0.979221 
-0.0402041 0.160672 -0.986189 0.000778402 0.133978 -0.990984 0.0226958 0.168315 -0.985472 
-0.007597 0.187937 -0.982152 -0.0114005 0.258006 -0.966076 -0.0674284 0.347268 -0.935339 
0.410794 0.365694 -0.835174 0.361002 0.348413 -0.865035 0.115658 0.281471 -0.952574 
0.0341296 0.269556 -0.96238 -0.0431941 0.185045 -0.98178 -0.0998067 0.12794 -0.986747 
-0.0629512 0.114207 -0.99146 -0.0399175 0.134381 -0.990125 0.00235379 0.122989 -0.992405 
0.0261029 0.133648 -0.990685 0.00383492 0.141074 -0.989992 0.00826899 0.232447 -0.972574 
-0.0747771 0.327165 -0.942004 -0.0610063 0.312332 -0.948012 -0.0886648 0.314417 -0.945135 
-0.215704 0.226472 -0.949833 0.423264 0.246833 -0.871734 0.563532 0.143887 -0.813467 
0.300762 0.180491 -0.936464 0.155619 0.150141 -0.97634 0.00204426 0.151652 -0.988432 
-0.155358 0.0661026 -0.985644 -0.126202 0.0250294 -0.991689 -0.0348939 0.0364721 -0.998725 
-0.0358232 0.229167 -0.972728 -0.0227141 0.131913 -0.991001 0.0249781 0.0403844 -0.998872 
0.0784786 0.00159994 -0.996915 0.0535572 0.10216 -0.993325 0.0186757 0.140613 -0.989888 
-0.0915976 0.215566 -0.972184 -0.263825 0.244174 -0.933154 -0.179728 0.17408 -0.968191 
-0.529469 0.394259 -0.751147 0.588406 0.0662535 -0.805847 0.580789 0.00221014 -0.814051 
0.547554 0.0650852 -0.834235 0.247371 0.127042 -0.960556 0.099198 0.141969 -0.984888 
-0.063675 0.0629129 -0.995986 -0.159187 0.0644628 -0.985142 -0.127295 0.0397893 -0.991066 
0.1781 0.0699985 -0.98152 0.00114156 0.151538 -0.988451 -0.1676 0.175223 -0.970158 
-0.134891 0.0694041 -0.988427 0.0685227 -0.0020841 -0.997647 0.156618 0.0360722 -0.987 
0.0514991 0.116169 -0.991893 -0.0517769 0.0670331 -0.996406 -0.135392 0.190772 -0.972252 
-0.530491 0.163572 -0.831759 -0.402586 0.108956 -0.908875 0.566363 -0.0265997 -0.823727 
0.636568 -0.0963373 -0.76518 0.309729 0.031806 -0.950293 0.10634 0.0762879 -0.991399 
-0.0740816 0.0923503 -0.992967 -0.179578 0.120176 -0.976376 -0.113499 0.127101 -0.985375 
0.0324349 0.0369274 -0.998791 0.0667407 0.114017 -0.991235 0.0137722 0.125424 -0.992008 
-0.248704 -0.036603 -0.967888 0.0667235 0.0753836 -0.99492 0.167763 0.0644607 -0.983718 
0.057374 0.0750966 -0.995524 -0.0210314 0.0340614 -0.999198 -0.17283 0.0631561 -0.982925 
-0.59121 -0.076235 -0.802907 -0.43231 -0.054663 -0.900067 0.658674 -0.123997 -0.742141 
0.656111 -0.138616 -0.741825 0.649665 -0.121794 -0.750401 0.339271 -0.0886335 -0.936504 
0.161489 0.00469922 -0.986863 -0.0188731 0.102396 -0.994565 -0.134362 0.134445 -0.98177 
-0.189527 0.188887 -0.963536 0.0992788 0.110695 -0.988883 0.0951061 0.0497431 -0.994224 
-0.249157 0.0594147 -0.966639 -0.132982 0.152902 -0.979253 0.121569 0.149146 -0.981314 
0.143764 0.0641081 -0.987533 0.0231628 0.0236324 -0.999452 -0.0619947 -0.00496313 -0.998064 
-0.243036 -0.194116 -0.950396 -0.543902 -0.301326 -0.783181 -0.53695 -0.310031 -0.784579 
-0.532858 -0.298931 -0.791645 0.559958 -0.328147 -0.760767 0.578753 -0.409591 -0.705181 
0.458347 -0.237034 -0.856582 0.285451 -0.115578 -0.951399 0.0499269 -0.00188298 -0.998751 
-0.0959527 0.0988918 -0.990461 -0.141966 0.152216 -0.978098 -0.0560204 0.190011 -0.980182 
0.0363691 0.0343131 -0.998749 -0.0442993 0.156204 -0.986731 -0.0790477 0.278573 -0.957156 
-0.00716221 0.210179 -0.977637 0.0479769 0.0475597 -0.997716 -0.0236641 -0.0875198 -0.995882 
-0.191013 -0.0973882 -0.976744 -0.467719 -0.257977 -0.845391 -0.471184 -0.261343 -0.842428 
-0.461398 -0.25124 -0.850876 0.589136 -0.448944 -0.67184 0.493276 -0.610309 -0.61984 
0.372352 -0.320671 -0.870933 0.180165 -0.200631 -0.962958 0.0219562 -0.100476 -0.994697 
-0.0936994 -0.00228066 -0.995598 -0.0199977 0.0773565 -0.996803 0.0509912 0.0777958 -0.995664 
0.0035393 0.0945061 -0.995518 -0.068437 0.130923 -0.989028 -0.13422 0.0843307 -0.987357 
-0.144308 -0.0277114 -0.989145 -0.141528 -0.192713 -0.970995 -0.405353 -0.361044 -0.839843 
-0.367996 -0.430747 -0.824037 -0.274488 -0.321613 -0.906213 0.455196 -0.652366 -0.605983 
0.361011 -0.697951 -0.618494 0.294475 -0.541763 -0.787259 0.260263 -0.708348 -0.656129 
0.122324 -0.414147 -0.901953 0.0423606 -0.274145 -0.960755 0.0298325 -0.154413 -0.987556 
0.0532962 -0.163144 -0.985162 0.00745909 -0.164083 -0.986418 -0.0868169 -0.141289 -0.986154 
-0.168359 -0.184013 -0.968398 -0.285107 -0.523825 -0.802696 -0.231922 -0.247462 -0.940731 
-0.349187 -0.42525 -0.835004 -0.285883 -0.426878 -0.857931 -0.245232 -0.32985 -0.911625 
0.238487 -0.707992 -0.664734 0.187076 -0.68992 -0.699294 0.171338 -0.631608 -0.756118 
0.117521 -0.667739 -0.73506 0.0957425 -0.561023 -0.822245 0.0669015 -0.665495 -0.743398 
0.0541778 -0.497703 -0.865654 0.000664333 -0.688102 -0.725613 0.0130143 -0.501636 -0.864981 
-0.0833821 -0.68486 -0.723888 -0.0813986 -0.517479 -0.851815 -0.275004 -0.562569 -0.779672 
-0.201881 -0.635897 -0.744902 -0.206776 -0.506957 -0.836803 
