# vtk DataFile Version 4.2
vtk output
ASCII
DATASET POLYDATA
POINTS 566 float
36.1411 20.298 -19.1524 -27.1326 -35.0664 -10.9312 -19.2234 -35.0664 -10.7458 
-3.40496 -35.0664 -10.9472 4.50425 -35.0664 -11.4179 12.4135 -35.0664 -10.9776 
-42.951 -27.1572 -11.5918 -35.0418 -27.1572 -13.8472 -27.1326 -27.1572 -14.1706 
-19.2234 -27.1572 -13.9582 -11.3142 -27.1572 -12.3 -3.40496 -27.1572 -12.2076 
4.50425 -27.1572 -12.9632 12.4135 -27.1572 -13.0414 20.3227 -27.1572 -12.7692 
28.2319 -27.1572 -12.8953 36.1411 -27.1572 -13.8392 44.0503 -27.1572 -11.1355 
-50.8602 -19.248 -12.0416 -42.951 -19.248 -14.8494 -35.0418 -19.248 -15.6466 
-27.1326 -19.248 -15.5626 -19.2234 -19.248 -14.8069 -11.3142 -19.248 -13.2434 
-3.40496 -19.248 -13.1182 4.50425 -19.248 -14.8347 12.4135 -19.248 -13.7847 
20.3227 -19.248 -14.2488 28.2319 -19.248 -14.6331 36.1411 -19.248 -14.6479 
44.0503 -19.248 -14.5784 51.9595 -19.248 -13.0657 -58.7694 -11.3388 -12.2496 
-50.8602 -11.3388 -14.8639 -42.951 -11.3388 -15.985 -35.0418 -11.3388 -16.4193 
-27.1326 -11.3388 -16.3977 -19.2234 -11.3388 -15.0833 -11.3142 -11.3388 -14.3636 
-3.40496 -11.3388 -16.0005 4.50425 -11.3388 -16.9714 12.4135 -11.3388 -15.1063 
20.3227 -11.3388 -14.8252 28.2319 -11.3388 -15.4131 36.1411 -11.3388 -15.9545 
44.0503 -11.3388 -14.8441 51.9595 -11.3388 -13.0787 -58.7694 -3.42959 -13.3192 
-50.8602 -3.42959 -16.6452 -42.951 -3.42959 -17.0736 -35.0418 -3.42959 -16.9513 
-27.1326 -3.42959 -16.04 -19.2234 -3.42959 -14.6383 -11.3142 -3.42959 -16.7797 
-3.40496 -3.42959 -15.6997 4.50425 -3.42959 -14.6585 12.4135 -3.42959 -17.1923 
20.3227 -3.42959 -14.4977 28.2319 -3.42959 -15.6928 36.1411 -3.42959 -15.7554 
44.0503 -3.42959 -15.6025 51.9595 -3.42959 -14.7592 59.8687 -3.42959 -12.1892 
-58.7694 4.47962 -13.223 -50.8602 4.47962 -16.9182 -42.951 4.47962 -17.0432 
-35.0418 4.47962 -16.9353 -27.1326 4.47962 -16.0366 -19.2234 4.47962 -14.5296 
-11.3142 4.47962 -15.5708 -3.40496 4.47962 -16.5797 4.50425 4.47962 -17.4414 
12.4135 4.47962 -16.0578 20.3227 4.47962 -14.74 28.2319 4.47962 -15.8744 
36.1411 4.47962 -16.6884 44.0503 4.47962 -16.6592 51.9595 4.47962 -15.6446 
59.8687 4.47962 -12.7654 -58.7694 12.3888 -11.4707 -50.8602 12.3888 -14.6982 
-42.951 12.3888 -15.8635 -35.0418 12.3888 -16.3873 -27.1326 12.3888 -16.3504 
-19.2234 12.3888 -15.5592 -11.3142 12.3888 -15.7303 -3.40496 12.3888 -14.8017 
4.50425 12.3888 -15.0633 12.4135 12.3888 -15.8794 20.3227 12.3888 -16.2504 
28.2319 12.3888 -16.9494 36.1411 17.1645 -18.5638 36.1411 12.3888 -17.4824 
44.0503 12.3888 -16.8239 51.9595 12.3888 -15.9862 59.8687 12.3888 -12.5363 
-50.8602 20.298 -11.7682 -42.951 20.298 -15.6317 -35.0418 20.298 -15.8582 
-27.1326 20.298 -16.474 -19.2234 20.298 -17.2056 -11.3142 20.298 -17.3149 
-3.40496 20.298 -16.4621 4.50425 20.298 -15.7177 12.4135 20.298 -16.4739 
20.3227 20.298 -17.3429 32.0968 20.298 -18.5638 28.2319 20.298 -17.8844 
38.2561 20.298 -18.5638 36.1411 22.4965 -18.5638 44.0503 20.298 -16.5502 
51.9595 20.298 -15.1207 59.8687 20.298 -11.2419 -42.951 28.2072 -11.7906 
-35.0418 28.2072 -14.7302 -27.1326 28.2072 -16.3804 -19.2234 28.2072 -17.6705 
-11.3142 28.2072 -18.1262 -3.40496 28.2072 -17.2004 4.50425 28.2072 -16.4806 
12.4135 28.2072 -16.8143 20.3227 28.2072 -16.9109 28.2319 28.2072 -18.128 
36.1411 28.2072 -16.5502 44.0503 28.2072 -16.1914 51.9595 28.2072 -12.7076 
-35.0418 36.1164 -11.3245 -27.1326 36.1164 -14.8273 -19.2234 36.1164 -17.4106 
-11.3142 36.1164 -17.3621 -3.40496 36.1164 -16.7053 4.50425 36.1164 -15.8423 
12.4135 36.1164 -15.5496 20.3227 36.1164 -14.8616 28.2319 36.1164 -14.355 
36.1411 36.1164 -13.0648 44.0503 36.1164 -11.4373 -27.1326 44.0257 -11.5818 
-19.2234 44.0257 -12.9809 -11.3142 44.0257 -14.3857 -3.40496 44.0257 -13.9271 
4.50425 44.0257 -12.1927 -27.1326 -35.5407 -10.6546 -27.1326 -42.9756 -4.50254 
-19.2234 -35.2506 -10.6546 -19.2234 -42.9756 -6.33638 -11.3142 -42.9756 -6.25015 
-3.40496 -35.9504 -10.6546 -3.40496 -42.9756 -7.39297 4.50425 -37.3428 -10.6546 
4.50425 -42.9756 -7.92362 12.4135 -35.9137 -10.6546 12.4135 -42.9756 -6.82487 
20.3227 -42.9756 -6.03726 28.2319 -42.9756 -3.53361 -42.951 -28.9717 -10.6546 
-42.951 -35.0664 -6.46718 -28.9502 -35.0664 -10.6546 -35.0418 -33.5131 -10.6546 
-35.0418 -35.0664 -9.63779 -16.9595 -35.0664 -10.6546 -8.17495 -35.0664 -10.6546 
-11.3142 -34.2092 -10.6546 -11.3142 -35.0664 -10.4343 17.0195 -35.0664 -10.6546 
20.3227 -34.2598 -10.6546 20.3227 -35.0664 -10.3901 28.2319 -33.634 -10.6546 
28.2319 -35.0664 -10.0756 36.1411 -34.4113 -10.6546 36.1411 -35.0664 -10.2553 
44.0503 -28.2955 -10.6546 44.0503 -35.0664 -7.11556 -45.5085 -27.1572 -10.6546 
-50.8602 -22.5563 -10.6546 -50.8602 -27.1572 -8.14323 45.7775 -27.1572 -10.6546 
51.9595 -24.4964 -10.6546 51.9595 -27.1572 -8.72228 -53.5167 -19.248 -10.6546 
-58.7694 -14.6159 -10.6546 -58.7694 -19.248 -6.90618 56.5411 -19.248 -10.6546 
59.8687 -19.248 -7.35732 -60.7647 -11.3388 -10.6546 58.4183 -11.3388 -10.6546 
59.8687 -9.5025 -10.6546 59.8687 -11.3388 -9.98801 -62.2787 -3.42959 -10.6546 
-66.6786 -3.42959 -4.15051 61.8952 -3.42959 -10.6546 67.7779 -3.42959 -2.78879 
-62.1188 4.47962 -10.6546 -66.6786 4.47962 -3.52062 62.7019 4.47962 -10.6546 
67.7779 4.47962 -3.40783 -59.7993 12.3888 -10.6546 -58.7694 14.1511 -10.6546 
62.3122 12.3888 -10.6546 -52.8757 20.298 -10.6546 -58.7694 20.298 -5.7754 
-50.8602 22.9614 -10.6546 60.4966 20.298 -10.6546 59.8687 21.2887 -10.6546 
-45.6362 28.2072 -10.6546 -50.8602 28.2072 -7.58909 -42.951 30.7213 -10.6546 
54.7512 28.2072 -10.6546 51.9595 30.9087 -10.6546 -36.6658 36.1164 -10.6546 
-42.951 36.1164 -6.82656 -35.0418 37.1445 -10.6546 12.4135 43.3097 -10.6546 
20.3227 42.9227 -10.6546 28.2319 40.8126 -10.6546 36.1411 38.5071 -10.6546 
45.2382 36.1164 -10.6546 44.0503 36.8487 -10.6546 -28.4917 44.0257 -10.6546 
-27.1326 44.8148 -10.6546 -19.2234 46.5308 -10.6546 -11.3142 48.1871 -10.6546 
-3.40496 47.7697 -10.6546 10.495 44.0257 -10.6546 4.50425 45.7483 -10.6546 
12.4135 44.0257 -9.60492 20.3227 44.0257 -7.22449 -27.1326 -44.1313 -2.74542 
-19.2234 -46.0387 -2.74542 -11.3142 -46.2336 -2.74542 -3.40496 -47.6548 -2.74542 
-3.40496 -50.8848 4.52789 4.50425 -48.0315 -2.74542 4.50425 -50.8848 3.42389 
12.4135 -47.0983 -2.74542 20.3227 -45.8512 -2.74542 28.2319 -43.5846 -2.74542 
-42.951 -37.9443 -2.74542 -31.2457 -42.9756 -2.74542 -35.0418 -41.7582 -2.74542 
-35.0418 -42.9756 4.01957 30.7431 -42.9756 -2.74542 36.1411 -41.3365 -2.74542 
44.0503 -38.3078 -2.74542 -47.1989 -35.0664 -2.74542 -50.8602 -32.1881 -2.74542 
49.4102 -35.0664 -2.74542 51.9595 -33.1691 -2.74542 -55.839 -27.1572 -2.74542 
-58.7694 -23.6381 -2.74542 57.5502 -27.1572 -2.74542 59.8687 -24.0703 -2.74542 
-61.8255 -19.248 -2.74542 63.0431 -19.248 -2.74542 -65.8797 -11.3388 -2.74542 
-66.6786 -7.46216 -2.74542 65.7162 -11.3388 -2.74542 67.7779 -3.53739 -2.74542 
-67.4758 -3.42959 -2.74542 67.7779 -3.42959 -2.57932 -67.0987 4.47962 -2.74542 
-66.6786 6.20143 -2.74542 -66.6786 4.47962 1.33411 67.7779 7.20546 -2.74542 
67.7779 4.47962 0.17103 -65.085 12.3888 -2.74542 67.017 12.3888 -2.74542 
-60.7321 20.298 -2.74542 -58.7694 23.1416 -2.74542 64.4869 20.298 -2.74542 
59.8687 26.4047 -2.74542 -54.7382 28.2072 -2.74542 -50.8602 32.4068 -2.74542 
58.337 28.2072 -2.74542 51.9595 33.9641 -2.74542 -46.5677 36.1164 -2.74542 
-42.951 38.6781 -2.74542 -35.0418 43.4502 -2.74542 28.2319 43.5471 -2.74542 
36.1411 41.7649 -2.74542 48.6237 36.1164 -2.74542 44.0503 38.7308 -2.74542 
44.0503 36.1164 4.66679 -33.8095 44.0257 -2.74542 -27.1326 46.9003 -2.74542 
-19.2234 49.3998 -2.74542 -11.3142 50.1463 -2.74542 -3.40496 49.8048 -2.74542 
4.50425 48.3627 -2.74542 12.4135 46.8047 -2.74542 12.4135 44.0257 2.746 
25.2444 44.0257 -2.74542 20.3227 44.8175 -2.74542 20.3227 44.0257 -0.29074 
-3.40496 -51.0903 5.16379 4.50425 -51.4735 5.16379 -35.0418 -43.15 5.16379 
-27.1326 -45.8617 5.16379 -19.2234 -47.9709 5.16379 -4.58682 -50.8848 5.16379 
-11.3142 -49.6497 5.16379 -3.40496 -50.8848 5.59222 8.48896 -50.8848 5.16379 
4.50425 -50.8848 6.33422 12.4135 -50.2407 5.16379 20.3227 -47.7914 5.16379 
28.2319 -44.6981 5.16379 -35.3973 -42.9756 5.16379 -42.951 -38.5189 5.16379 
-35.0418 -42.9756 5.5539 -27.1326 -42.9756 9.62593 -19.2234 -42.9756 12.548 
20.3227 -42.9756 12.0232 34.4819 -42.9756 5.16379 28.2319 -42.9756 7.47247 
36.1411 -42.3841 5.16379 44.0503 -37.1499 5.16379 -48.2085 -35.0664 5.16379 
-50.8602 -32.6583 5.16379 -42.951 -35.0664 9.42382 36.1411 -35.0664 11.0469 
47.9519 -35.0664 5.16379 44.0503 -35.0664 8.02606 51.9595 -31.7187 5.16379 
-56.1821 -27.1572 5.16379 -58.7694 -24.4608 5.16379 -50.8602 -27.1572 10.0286 
44.0503 -27.1572 12.1932 55.7826 -27.1572 5.16379 51.9595 -27.1572 8.84235 
59.8687 -23.6799 5.16379 -62.1346 -19.248 5.16379 -58.7694 -19.248 10.0174 
51.9595 -19.248 11.6544 62.6525 -19.248 5.16379 59.8687 -19.248 8.80099 
-65.2726 -11.3388 5.16379 -66.6786 -5.04409 5.16379 -58.7694 -11.3388 11.6044 
64.3407 -11.3388 5.16379 59.8687 -11.3388 10.1596 -66.9646 -3.42959 5.16379 
-66.6786 -0.0737725 5.16379 -66.6786 -3.42959 5.57598 -58.7694 -3.42959 12.136 
66.0649 -3.42959 5.16379 59.8687 -3.42959 12.1837 -66.1187 4.47962 5.16379 
-58.7694 4.47962 11.2787 66.7215 4.47962 5.16379 59.8687 4.47962 11.9897 
-63.4699 12.3888 5.16379 -58.7694 12.3888 11.6141 51.9595 12.3888 12.551 
63.6906 12.3888 5.16379 59.8687 12.3888 8.76496 -60.2733 20.298 5.16379 
-58.7694 22.6044 5.16379 -58.7694 20.298 7.07875 -50.8602 20.298 11.9171 
44.0503 20.298 12.4856 51.9595 20.298 10.905 61.3591 20.298 5.16379 
59.8687 22.1654 5.16379 59.8687 20.298 6.50885 -53.3254 28.2072 5.16379 
-50.8602 31.0211 5.16379 -50.8602 28.2072 8.18956 -42.951 28.2072 12.6196 
4.50425 28.2072 13.0396 12.4135 28.2072 12.7436 20.3227 28.2072 12.397 
28.2319 28.2072 12.7731 36.1411 28.2072 11.1352 44.0503 35.7412 5.16379 
44.0503 28.2072 10.1502 52.5393 28.2072 5.16379 51.9595 28.6994 5.16379 
51.9595 28.2072 5.56992 -46.0849 36.1164 5.16379 -42.951 38.2468 5.16379 
-42.951 36.1164 8.00627 -35.0418 41.6363 5.16379 -35.0418 36.1164 10.4767 
[...]
POINT_DATA 566
SCALARS ImageScalars float
LOOKUP_TABLE default
0 0 0 0 0 0 0 0 0 
0 0 0 0 0 0 0 0 0 
0 0 0 0 0 0 0 0 0 
0 0 0 0 0 0 0 0 0 
0 0 0 0 0 0 0 0 0 
0 0 0 0 0 0 0 0 0 
0 0 0 0 0 0 0 0 0 
0 0 0 0 0 0 0 0 0 
0 0 0 0 0 0 0 0 0 
0 0 0 0 0 0 0 0 0 
0 0 0 0 0 0 0 0 0 
0 0 0 0 0 0 0 0 0 
0 0 0 0 0 0 0 0 0 
0 0 0 0 0 0 0 0 0 
0 0 0 0 0 0 0 0 0 
0 0 0 0 0 0 0 0 0 
0 0 0 0 0 0 0 0 0 
0 0 0 0 0 0 0 0 0 
0 0 0 0 0 0 0 0 0 
0 0 0 0 0 0 0 0 0 
0 0 0 0 0 0 0 0 0 
0 0 0 0 0 0 0 0 0 
0 0 0 0 0 0 0 0 0 
0 0 0 0 0 0 0 0 0 
0 0 0 0 0 0 0 0 0 
0 0 0 0 0 0 0 0 0 
0 0 0 0 0 0 0 0 0 
0 0 0 0 0 0 0 0 0 
0 0 0 0 0 0 0 0 0 
0 0 0 0 0 0 0 0 0 
0 0 0 0 0 0 0 0 0 
0 0 0 0 0 0 0 0 0 
0 0 0 0 0 0 0 0 0 
0 0 0 0 0 0 0 0 0 
0 0 0 0 0 0 0 0 0 
0 0 0 0 0 0 0 0 0 
0 0 0 0 0 0 0 0 0 
0 0 0 0 0 0 0 0 0 
0 0 0 0 0 0 0 0 0 
0 0 0 0 0 0 0 0 0 
0 0 0 0 0 0 0 0 0 
0 0 0 0 0 0 0 0 0 
0 0 0 0 0 0 0 0 0 
0 0 0 0 0 0 0 0 0 
0 0 0 0 0 0 0 0 0 
0 0 0 0 0 0 0 0 0 
0 0 0 0 0 0 0 0 0 
0 0 0 0 0 0 0 0 0 
0 0 0 0 0 0 0 0 0 
0 0 0 0 0 0 0 0 0 
0 0 0 0 0 0 0 0 0 
0 0 0 0 0 0 0 0 0 
0 0 0 0 0 0 0 0 0 
0 0 0 0 0 0 0 0 0 
0 0 0 0 0 0 0 0 0 
0 0 0 0 0 0 0 0 0 
0 0 0 0 0 0 0 0 0 
0 0 0 0 0 0 0 0 0 
0 0 0 0 0 0 0 0 0 
0 0 0 0 0 0 0 0 0 
0 0 0 0 0 0 0 0 0 
0 0 0 0 0 0 0 0 0 
0 0 0 0 0 0 0 0 
NORMALS Normals float
-0.0738356 -0.0421708 0.996378 0.0555391 0.456613 0.88793 -0.0276597 0.403984 0.914348 
0.060743 0.247924 0.966873 0.00287812 0.268066 0.963396 -0.060922 0.323238 0.944355 
0.304697 0.430149 0.849783 0.135626 0.325018 0.935932 0.00779771 0.261878 0.965069 
-0.118592 0.235741 0.964553 -0.104887 0.167709 0.980241 0.040444 0.131974 0.990428 
0.0512606 0.211552 0.976022 -0.0115623 0.174532 0.984584 -0.0101692 0.228631 0.97346 
0.0569782 0.256561 0.964847 -0.090271 0.290478 0.952614 -0.269281 0.364911 0.891251 
0.38211 0.339319 0.859567 0.19593 0.238438 0.951188 0.0462898 0.166667 0.984926 
-0.0532488 0.135054 0.989406 -0.137231 0.0659016 0.988344 -0.110893 0.13256 0.984952 
0.102939 0.207039 0.972902 0.0326603 0.254485 0.966525 -0.0354047 0.127385 0.991221 
0.0532042 0.126657 0.990519 0.0243865 0.151567 0.988146 -0.00288582 0.125217 0.992125 
-0.122582 0.208236 0.970367 -0.329389 0.238307 0.913626 0.489472 0.267626 0.829936 
0.240738 0.25038 0.937739 0.087297 0.14072 0.986193 0.025336 0.0803194 0.996447 
-0.0792184 0.0305457 0.996389 -0.131178 -0.0105762 0.991302 0.0388608 0.186027 0.981776 
0.181815 0.168158 0.968848 -0.0648637 0.0222098 0.997647 -0.140611 0.190503 0.971564 
0.0202975 0.0151739 0.999679 0.0709556 0.0663982 0.995267 -0.0351378 0.0682385 0.99705 
-0.167543 0.0609296 0.98398 -0.249358 0.0993123 0.963306 0.500639 0.0616079 0.863461 
0.246906 0.106499 0.96317 0.0159861 0.0665091 0.997658 -0.0647669 0.0324561 0.997372 
-0.144878 -0.0225391 0.989193 0.0108234 -0.0331065 0.999393 0.109764 0.112245 0.9876 
-0.136299 0.0461961 0.98959 0.105485 -0.0161764 0.994289 -0.0600452 0.0789358 0.99507 
-0.0556133 -0.00561225 0.998437 0.0804633 0.0293582 0.996325 -0.00560937 0.0463897 0.998908 
-0.0579706 0.110587 0.992174 -0.239208 0.154461 0.958604 -0.502243 0.134687 0.854173 
0.516625 -0.109427 0.84919 0.251667 -0.0981979 0.962819 -0.00025908 -0.0758792 0.997117 
-0.063072 -0.0355475 0.997376 -0.1505 0.0194556 0.988419 -0.0441732 0.0551949 0.997498 
0.142587 -0.054723 0.988268 0.114784 -0.0946965 0.988867 -0.0254021 -0.0214436 0.999447 
-0.171798 -0.0762711 0.982175 0.00584942 0.112633 0.993619 0.125514 0.0808249 0.988794 
0.0493145 0.108973 0.992821 -0.0602082 0.0788171 0.995069 -0.264678 0.0710948 0.961713 
-0.494447 0.0236757 0.868885 0.519149 -0.313522 0.795103 0.283433 -0.289658 0.914201 
0.0951339 -0.0864696 0.991702 0.0297772 -0.0666442 0.997332 -0.0503171 0.0277457 0.998348 
-0.0401466 0.164041 0.985636 -0.0489664 0.109351 0.992796 -0.0406902 0.00275176 0.999168 
0.0717851 -0.0769905 0.994444 0.074197 0.0285129 0.996836 0.0688988 0.167726 0.983423 
0.0797967 0.129796 0.988325 -0.0492843 0.03421 0.998199 -0.00754103 0.155566 0.987797 
-0.0874622 -0.00697038 0.996143 -0.308967 -0.0274224 0.950677 -0.527951 -0.0885542 0.844646 
0.417621 -0.340363 0.842464 0.217012 -0.214798 0.952244 0.0519226 -0.112534 0.99229 
0.0808252 0.00226644 0.996726 0.0541762 0.131153 0.989881 -0.0446471 0.14642 0.988214 
-0.102551 0.154121 0.982716 0.00291289 0.0892359 0.996006 0.103608 0.0593491 0.992846 
0.0885816 0.0419649 0.995185 0.0226041 0.0153466 0.999627 0.117479 0.0719524 0.990465 
-0.112255 -0.0340043 0.993097 -0.0789905 -0.109439 0.99085 -0.23371 -0.0336637 0.971723 
-0.353009 -0.224868 0.908196 -0.623677 -0.345328 0.701267 0.388386 -0.398615 0.83082 
0.244728 -0.229128 0.94213 0.194697 -0.103057 0.975434 0.106525 0.013169 0.994223 
-0.0300604 0.0040382 0.99954 -0.105651 0.0143431 0.9943 -0.0247157 0.00642237 0.999674 
0.0275601 -0.0481802 0.998458 0.0753488 -0.140122 0.987263 -0.0156393 -0.189936 0.981672 
-0.109574 -0.32269 0.940141 -0.252212 -0.30391 0.91871 -0.47697 -0.435119 0.763656 
0.386008 -0.487476 0.783176 0.319878 -0.255119 0.912465 0.15588 -0.242068 0.957656 
-0.0436869 -0.216141 0.975384 -0.0993102 -0.191785 0.9764 -0.0688802 -0.237323 0.968986 
-0.0600531 -0.299179 0.952305 -0.0739326 -0.400154 0.913461 -0.0879859 -0.546615 0.832749 
-0.185696 -0.625568 0.757748 -0.35482 -0.704509 0.61463 0.365017 -0.703488 0.60981 
0.159192 -0.6501 0.742986 0.051134 -0.574241 0.817088 -0.133282 -0.562644 0.815884 
-0.197669 -0.657608 0.726965 0.0618841 0.467396 0.88188 0.229094 0.83287 0.503829 
-0.0255892 0.408241 0.912515 0.0677818 0.720563 0.690068 0.0546609 0.606515 0.793191 
0.0636879 0.278368 0.95836 0.0783636 0.581715 0.809609 -0.00440487 0.344272 0.93886 
-0.0249765 0.582732 0.812281 -0.069361 0.346953 0.935314 -0.0967727 0.625318 0.774347 
-0.160001 0.668085 0.726679 -0.252753 0.843119 0.474623 0.319249 0.46831 0.823873 
0.43891 0.700203 0.563093 0.0852567 0.483236 0.871329 0.177198 0.523599 0.833333 
0.20076 0.591059 0.781245 -0.0154614 0.377639 0.925824 0.0335258 0.283988 0.958241 
0.00157294 0.292681 0.956209 0.013371 0.313096 0.949627 -0.0580751 0.357844 0.931974 
-0.0497786 0.36824 0.928397 -0.0549987 0.38844 0.919831 0.00705589 0.437083 0.899394 
-0.0112028 0.496767 0.867811 -0.121734 0.538749 0.833625 -0.12692 0.5712 0.810939 
-0.285507 0.389245 0.87577 -0.448437 0.695701 0.561163 0.342684 0.449455 0.824959 
0.415966 0.391134 0.820967 0.502086 0.553634 0.664378 -0.294234 0.404279 0.866017 
-0.379735 0.423744 0.822339 -0.464131 0.549012 0.695103 0.451381 0.394793 0.800246 
0.516787 0.399996 0.756925 0.654082 0.556633 0.512187 -0.50039 0.322649 0.803434 
-0.693844 0.435077 0.573836 0.584151 0.283771 0.760422 -0.519224 0.221316 0.825485 
-0.560264 0.23871 0.793172 -0.603638 0.2631 0.752595 0.661321 0.0733517 0.746508 
0.942409 0.0776794 0.325318 -0.610721 0.161409 0.77522 -0.94765 0.171458 0.269374 
0.6639 -0.124007 0.737468 0.954036 -0.14642 0.26149 -0.648045 0.0220654 0.761282 
-0.957077 -0.0467414 0.286041 0.563328 -0.323333 0.76034 0.533404 -0.384129 0.753608 
-0.654862 -0.119412 0.746255 0.464069 -0.388048 0.796278 0.719232 -0.572242 0.39401 
0.453609 -0.379234 0.806486 -0.64791 -0.362486 0.669938 -0.647052 -0.394957 0.652175 
0.429325 -0.419068 0.800039 0.587595 -0.56746 0.57682 0.416822 -0.444166 0.79308 
-0.599599 -0.529978 0.599671 -0.550929 -0.59882 0.581285 0.401396 -0.510107 0.760705 
0.536251 -0.675911 0.505549 0.409055 -0.522136 0.748363 -0.143708 -0.77172 0.619513 
-0.12531 -0.810459 0.572236 -0.186588 -0.775709 0.602876 -0.232794 -0.748565 0.620852 
-0.40602 -0.732122 0.546942 -0.371855 -0.742935 0.556571 0.401377 -0.719184 0.56716 
0.369609 -0.750526 0.547813 0.203611 -0.757762 0.619951 0.0677356 -0.813479 0.577636 
-0.139102 -0.789171 0.598214 -0.167424 -0.774668 0.609802 -0.230215 -0.74212 0.629491 
-0.161714 -0.849003 0.503034 -0.171982 -0.952873 0.249909 0.244575 0.883536 0.399433 
0.125416 0.857876 0.498317 0.0894206 0.817917 0.568344 0.0954745 0.773519 0.62654 
0.112913 0.993088 -0.03206 -0.0265278 0.778265 0.627375 -0.0461255 0.997468 0.0541334 
-0.131549 0.79247 0.595555 -0.20626 0.84775 0.488648 -0.258689 0.865496 0.428949 
0.48536 0.805103 0.340933 0.290982 0.870498 0.396941 0.334723 0.852548 0.4014 
0.396733 0.915382 -0.0683999 -0.280357 0.860729 0.424906 -0.312952 0.863127 0.396324 
-0.423831 0.879197 0.217669 0.564391 0.754809 0.334254 0.629176 0.709841 0.316644 
-0.546702 0.789951 0.27766 -0.617167 0.737887 0.273181 0.705124 0.648451 0.286898 
0.743888 0.599107 0.296144 -0.757123 0.600149 0.258043 -0.784792 0.550708 0.284294 
0.806143 0.531868 0.259325 -0.858045 0.459463 0.229463 0.9245 0.302779 0.231569 
0.949637 0.195376 0.244986 -0.932772 0.274662 0.233445 -0.948133 0.173509 0.266344 
0.967747 0.0773456 0.239757 -0.952189 0.172243 0.252327 0.965425 -0.148904 0.21397 
0.957359 -0.19332 0.21469 0.979001 -0.169991 -0.112515 -0.973172 -0.112027 0.200964 
-0.995475 -0.0842592 -0.0439354 0.919311 -0.349701 0.18049 -0.971663 -0.212086 0.104361 
0.812492 -0.545724 0.205044 0.775537 -0.582332 0.243784 -0.877061 -0.476177 0.063398 
-0.785404 -0.618934 0.0078474 0.726154 -0.65002 0.223997 0.670483 -0.704154 0.233709 
-0.746266 -0.665263 -0.0226194 -0.567215 -0.82171 -0.0553147 0.618233 -0.747529 0.242874 
0.570583 -0.78967 0.225514 0.460564 -0.879684 0.118477 -0.18635 -0.981467 -0.0446745 
-0.302461 -0.951536 -0.0556439 -0.512401 -0.857654 -0.0432987 -0.443056 -0.895024 -0.0513176 
-0.350837 -0.724664 -0.593107 0.440478 -0.893096 0.0914264 0.346172 -0.938111 -0.0106133 
0.20408 -0.977798 -0.047569 0.0239545 -0.994878 -0.098202 -0.112527 -0.988227 -0.103662 
-0.191136 -0.977672 -0.08732 -0.221285 -0.973566 -0.0565955 -0.160071 -0.874609 -0.457642 
-0.189365 -0.980426 -0.0539031 -0.199506 -0.977564 -0.0675769 -0.178654 -0.961861 -0.207139 
0.111692 0.990628 -0.0786163 -0.0503867 0.99509 -0.0851828 0.39857 0.906026 -0.14233 
0.302572 0.938818 -0.16453 0.234822 0.964451 -0.121214 0.122771 0.989297 -0.0788527 
0.194097 0.977726 -0.0798686 0.112294 0.987982 -0.106215 -0.14001 0.985683 -0.0939474 
-0.0510111 0.985338 -0.162811 -0.230869 0.967266 -0.10534 -0.328046 0.936815 -0.121501 
-0.3467 0.900681 -0.261864 0.405359 0.902723 -0.144139 0.53551 0.805943 -0.252358 
0.397703 0.90187 -0.168708 0.260819 0.816062 -0.515768 0.227032 0.594388 -0.771465 
-0.331351 0.537764 -0.775252 -0.374555 0.887297 -0.269097 -0.341335 0.82859 -0.443766 
-0.385527 0.88011 -0.277083 -0.477594 0.800848 -0.361312 0.618825 0.750325 -0.232527 
0.656771 0.712446 -0.24713 0.47028 0.692796 -0.546691 -0.280032 0.542021 -0.792336 
-0.534655 0.750852 -0.387769 -0.427983 0.697044 -0.575292 -0.627526 0.65087 -0.427293 
0.708663 0.656146 -0.259364 0.767478 0.594883 -0.238939 0.575657 0.52352 -0.628129 
-0.311347 0.321597 -0.894225 -0.67015 0.604238 -0.431039 -0.564148 0.472292 -0.677257 
-0.739223 0.540919 -0.401194 0.847533 0.449091 -0.282853 0.698203 0.33816 -0.630999 
-0.363271 0.22399 -0.904357 -0.845328 0.367302 -0.387955 -0.690103 0.380491 -0.615617 
0.887259 0.26574 -0.377033 0.915948 0.0967976 -0.389449 0.623432 0.0911424 -0.776548 
-0.844659 0.222103 -0.487054 -0.613552 0.160601 -0.77315 0.916571 0.0488844 -0.396872 
0.909474 -0.0450078 -0.413319 0.907905 0.0468961 -0.416543 0.565657 -0.018251 -0.824439 
-0.843384 0.128091 -0.52182 -0.545971 0.0794795 -0.834026 0.881252 -0.173973 -0.439464 
0.58603 -0.0371724 -0.809436 -0.78414 -0.125315 -0.6078 -0.533621 -0.15456 -0.83148 
0.840654 -0.325291 -0.432998 0.60376 -0.191903 -0.773723 -0.283591 -0.169343 -0.943874 
-0.742992 -0.258931 -0.617185 -0.640165 -0.270795 -0.718929 0.808846 -0.447481 -0.381482 
0.777886 -0.50845 -0.369286 0.740572 -0.441182 -0.506864 0.480728 -0.269513 -0.834424 
-0.151525 -0.241638 -0.958463 -0.337683 -0.364088 -0.867992 -0.669238 -0.43835 -0.599975 
-0.621854 -0.474459 -0.623046 -0.587973 -0.429836 -0.685221 0.704306 -0.620564 -0.34475 
0.68428 -0.642758 -0.344416 0.628075 -0.54928 -0.551193 0.317498 -0.40875 -0.855639 
-0.0702254 -0.174648 -0.982123 -0.0392768 -0.195909 -0.979835 -3.50949e-05 -0.265518 -0.964106 
-0.0688756 -0.319869 -0.944955 -0.136619 -0.369241 -0.919237 -0.341089 -0.698555 -0.629031 
-0.283483 -0.444926 -0.849516 -0.478678 -0.56955 -0.668192 -0.475741 -0.580236 -0.661057 
-0.470117 -0.555129 -0.686165 0.551652 -0.760385 -0.342774 0.467637 -0.814741 -0.342802 
0.426843 -0.72064 -0.546337 0.331582 -0.822753 -0.46166 0.190786 -0.636521 -0.74729 
0.11872 -0.433073 -0.893506 -0.00822217 -0.407162 -0.913319 -0.0574624 -0.376687 -0.924557 
-0.0587054 -0.388502 -0.919576 -0.0981341 -0.38294 -0.918546 -0.106832 -0.7305 -0.674504 
-0.0818779 -0.451074 -0.888723 -0.11376 -0.779859 -0.615532 -0.0937589 -0.489639 -0.86687 
-0.204476 -0.731492 -0.650469 -0.158359 -0.591596 -0.790529 -0.313539 -0.706853 -0.634076 
-0.204583 -0.720579 -0.662504 -0.189406 -0.67961 -0.7087 0.238746 -0.860196 -0.450624 
0.202385 -0.864344 -0.460381 0.185795 -0.836872 -0.514904 0.0836574 -0.757546 -0.647399 
0.0440775 -0.714382 -0.698367 0.00205698 -0.742716 -0.669603 -0.000467704 -0.672113 -0.740448 
-0.103812 -0.727753 -0.677937 -0.0877613 -0.676292 -0.731387 -0.159763 -0.749585 -0.642338 
-0.161508 -0.749246 -0.642297 -0.160647 -0.746965 -0.645164 0.103888 0.605107 -0.789337 
0.0220872 0.557844 -0.829652 -0.0106945 0.560171 -0.828308 -0.133512 0.588684 -0.797261 
0.281668 0.494326 -0.822378 0.173374 0.532317 -0.828602 0.197187 0.558299 -0.805866 
0.210758 0.542097 -0.813457 0.101954 0.499514 -0.860285 0.0109548 0.462177 -0.88672 
-0.0125753 0.44794 -0.893975 -0.247429 0.494717 -0.833087 -0.135278 0.491827 -0.86012 
-0.285948 0.408219 -0.866943 -0.232799 0.42203 -0.876182 0.304332 0.474035 -0.82624 
0.361886 0.475121 -0.802059 0.259352 0.419616 -0.869862 0.156469 0.368673 -0.916296 
0.0813608 0.31526 -0.945511 0.026014 0.189101 -0.981613 0.0347536 0.180304 -0.982997 
-0.0197866 0.172767 -0.984764 -0.115865 0.167418 -0.979054 -0.198559 0.236965 -0.951011 
-0.221419 0.406428 -0.886448 -0.209875 0.358289 -0.909715 -0.210801 0.378214 -0.901397 
0.419373 0.399149 -0.815357 0.416065 0.381169 -0.825591 0.311276 0.340599 -0.887186 
0.140672 0.239152 -0.960738 0.0602167 0.18952 -0.980029 0.00567073 0.0517058 -0.998646 
-0.009718 0.0300525 -0.999501 0.0153888 -0.00347472 -0.999876 -0.0340934 -0.0020257 -0.999417 
-0.0917074 -0.0134509 -0.995695 -0.102586 0.0531623 -0.993302 -0.0876507 0.130348 -0.987586 
-0.259891 0.283759 -0.923004 -0.169172 0.229181 -0.95857 -0.273697 0.266797 -0.924072 
0.456804 0.313287 -0.832575 0.371427 0.32511 -0.869682 0.173504 0.178807 -0.968465 
0.0940603 0.084311 -0.99199 -0.0166094 0.0273684 -0.999487 -0.0887509 -0.0713129 -0.993498 
-0.0353831 -0.101477 -0.994208 0.00269988 -0.00958772 -0.99995 -0.0307395 -0.0149121 -0.999416 
-0.0721781 -0.0681441 -0.995061 -0.0473284 -0.0155731 -0.998758 -0.0173402 0.061882 -0.997933 
-0.0613836 0.121203 -0.990728 -0.296175 0.192142 -0.935608 -0.221498 0.182257 -0.957978 
-0.305611 0.183189 -0.934368 0.533118 0.0853583 -0.841724 0.332941 0.0802022 -0.939531 
0.140151 0.0690187 -0.987722 -0.0162226 0.017937 -0.999708 -0.098084 -0.0560371 -0.993599 
-0.124147 -0.0852242 -0.988597 0.0498827 -0.103361 -0.993392 0.107759 0.00150009 -0.994176 
-0.0952275 0.00844421 -0.99542 -0.0931518 0.0799285 -0.992438 0.0275317 0.0359484 -0.998974 
0.045249 0.0530272 -0.997567 -0.0511432 0.0646757 -0.996595 -0.179561 0.0797698 -0.980507 
-0.342066 0.181529 -0.921975 -0.294807 0.181542 -0.938153 0.505354 -0.0238359 -0.862583 
0.306871 -0.0366656 -0.951044 0.127779 -0.0416463 -0.990928 -0.0282638 -0.0333759 -0.999043 
-0.116139 -0.0267241 -0.992873 -0.135278 -0.00232254 -0.990805 0.0503147 0.0320534 -0.998219 
0.109171 -0.0687388 -0.991643 0.0634516 -0.0220276 -0.997742 -0.053453 0.106166 -0.992911 
-0.0774189 0.00483433 -0.996987 0.0155654 -0.0200806 -0.999677 -0.0314144 -0.018476 -0.999336 
-0.129242 0.0136553 -0.991519 -0.44372 0.0690282 -0.893503 -0.247157 0.0361899 -0.968299 
0.475089 -0.0456512 -0.878753 0.320529 -0.0863071 -0.943298 0.139517 -0.103553 -0.98479 
-0.00127385 -0.060002 -0.998197 -0.067724 -0.0301372 -0.997249 -0.0656536 -0.00672898 -0.99782 
-0.0111378 -0.0688022 -0.997568 0.051042 -0.107354 -0.99291 0.0640167 -0.124281 -0.99018 
-0.0782236 -0.278136 -0.957351 -0.0730766 -0.122602 -0.989762 0.0200894 -0.0905434 -0.99569 
-0.0199205 -0.0913586 -0.995619 -0.123288 -0.097996 -0.987521 -0.407239 -0.146187 -0.901546 
-0.256827 -0.151436 -0.954519 -0.233446 -0.129941 -0.963648 0.474278 -0.205047 -0.856163 
0.38942 -0.250866 -0.886238 0.295575 -0.239237 -0.924879 0.13638 -0.0995304 -0.985644 
0.0448758 -0.0632915 -0.996986 -0.066391 -0.05785 -0.996115 -0.164916 -0.0613253 -0.984399 
-0.0550421 -0.0899271 -0.994426 0.0496731 -0.12808 -0.990519 -0.0894766 -0.197477 -0.976216 
-0.0327381 -0.224483 -0.973928 0.0779866 -0.136084 -0.987623 0.0464401 -0.1212 -0.991541 
-0.0397424 -0.170177 -0.984612 -0.244189 -0.172213 -0.954314 -0.148857 -0.221963 -0.963626 
-0.16488 -0.193621 -0.967122 0.413927 -0.233965 -0.87973 0.301567 -0.377242 -0.87564 
0.243587 -0.18573 -0.951929 0.0439776 -0.13759 -0.989513 -0.0638042 -0.12096 -0.990605 
-0.104312 -0.0950127 -0.989996 -0.0728511 -0.0174846 -0.99719 -0.0448368 -0.0842206 -0.995438 
-0.0701042 -0.172705 -0.982476 -0.0685973 -0.127528 -0.98946 -0.0264053 -0.134937 -0.990502 
-0.0136406 -0.0744799 -0.997129 0.0234276 -0.203168 -0.978864 0.0489062 -0.130443 -0.990249 
-0.0582951 -0.286114 -0.956421 -0.015517 -0.156107 -0.987618 -0.118689 -0.235917 -0.964498 
-0.10203 -0.260209 -0.960146 -0.0968444 -0.238652 -0.966264 0.279404 -0.389333 -0.877698 
0.144701 -0.471538 -0.869893 0.118622 -0.305157 -0.944885 0.0584033 -0.362874 -0.930006 
-0.0407009 -0.250379 -0.967292 -0.0180692 -0.360091 -0.932742 -0.0537585 -0.184374 -0.981385 
-0.054596 -0.270651 -0.961128 -0.0435126 -0.164413 -0.985431 -0.0701198 -0.174409 -0.982174 
-0.0626885 -0.250135 -0.966179 -0.0692204 -0.173134 -0.982463 
