# vtk DataFile Version 4.2
vtk output
ASCII
DATASET POLYDATA
POINTS 532 float
31.335 -10.8759 -23.7587 -31.1553 -26.4985 -16.7263 -23.344 -26.4985 -18.4022 
-15.5327 -26.4985 -18.5224 -7.72142 -26.4985 -18.2129 0.0898621 -26.4985 -17.6558 
7.90114 -26.4985 -16.9536 15.7124 -26.4985 -18.0186 23.5237 -26.4985 -19.5387 
31.335 -26.4985 -20.3394 39.1463 -26.4985 -18.5175 -31.1553 -18.6872 -18.8003 
-23.344 -18.6872 -20.3483 -15.5327 -18.6872 -20.6034 -7.72142 -18.6872 -20.1098 
0.0898621 -18.6872 -20.1559 7.90114 -18.6872 -20.2424 15.7124 -18.6872 -20.7794 
23.5237 -18.6872 -21.861 31.335 -12.2362 -23.5912 31.335 -18.6872 -22.7669 
39.1463 -18.6872 -22.059 46.9575 -18.6872 -19.3389 -38.9665 -10.8759 -17.2435 
-31.1553 -10.8759 -19.2832 -23.344 -10.8759 -20.9659 -15.5327 -10.8759 -21.6998 
-7.72142 -10.8759 -20.3435 0.0898621 -10.8759 -19.8779 7.90114 -10.8759 -21.298 
15.7124 -10.8759 -20.9527 30.4666 -10.8759 -23.5912 23.5237 -10.8759 -22.1762 
32.3029 -10.8759 -23.5912 31.335 -9.87298 -23.5912 39.1463 -10.8759 -22.4928 
46.9575 -10.8759 -20.6256 -38.9665 -3.06465 -17.3584 -31.1553 -3.06465 -19.4848 
-23.344 -3.06465 -20.8462 -15.5327 -3.06465 -23.0825 -7.72142 -3.06465 -22.0104 
0.0898621 -3.06465 -19.3313 7.90114 -3.06465 -21.8086 15.7124 -3.06465 -19.8261 
23.5237 -3.06465 -21.2117 31.335 -3.06465 -22.4696 39.1463 -3.06465 -22.711 
46.9575 -3.06465 -21.3393 54.7688 -3.06465 -16.1958 -38.9665 4.74663 -17.5621 
-31.1553 4.74663 -19.7324 -23.344 4.74663 -20.9596 -15.5327 4.74663 -22.5071 
-7.72142 4.74663 -22.39 0.0898621 4.74663 -21.0469 7.90114 4.74663 -22.0516 
15.7124 4.74663 -20.5056 23.5237 4.74663 -21.5297 31.335 4.74663 -22.6591 
39.1463 4.74663 -22.8081 46.9575 4.74663 -21.2071 -38.9665 12.5579 -17.9363 
-31.1553 12.5579 -20.1522 -23.344 12.5579 -21.5655 -15.5327 12.5579 -21.4694 
-7.72142 12.5579 -20.3879 0.0898621 12.5579 -20.0077 7.90114 12.5579 -21.4886 
15.7124 12.5579 -21.8074 23.5237 12.5579 -22.5874 31.335 12.5579 -23.4018 
39.1463 12.5579 -23.1312 46.9575 12.5579 -19.4489 -38.9665 20.3692 -16.8499 
-31.1553 20.3692 -20.1738 -23.344 20.3692 -21.6424 -15.5327 20.3692 -21.9991 
-7.72142 20.3692 -21.301 0.0898621 20.3692 -21.5537 7.90114 20.3692 -22.3976 
15.7124 20.3692 -22.4546 23.5237 20.3692 -22.4463 31.335 20.3692 -21.9925 
39.1463 20.3692 -20.3866 -31.1553 28.1805 -18.6309 -23.344 28.1805 -20.6468 
-15.5327 28.1805 -21.7742 -7.72142 28.1805 -21.6041 0.0898621 28.1805 -21.9723 
7.90114 28.1805 -22.0597 15.7124 28.1805 -22.0535 23.5237 28.1805 -20.5946 
31.335 28.1805 -18.6155 -23.344 35.9917 -17.4057 -15.5327 35.9917 -19.1869 
-7.72142 35.9917 -19.73 0.0898621 35.9917 -19.8653 7.90114 35.9917 -19.0266 
15.7124 35.9917 -17.3634 -31.1553 -28.6589 -15.7799 -31.1553 -34.3098 -12.2372 
-23.344 -31.4125 -15.7799 -23.344 -34.3098 -13.9475 -15.5327 -31.851 -15.7799 
-15.5327 -34.3098 -14.1342 -7.72142 -30.8955 -15.7799 -7.72142 -34.3098 -13.0031 
0.0898621 -29.4419 -15.7799 0.0898621 -34.3098 -11.0795 7.90114 -28.1902 -15.7799 
7.90114 -34.3098 -9.23219 15.7124 -29.5815 -15.7799 15.7124 -34.3098 -9.03836 
23.5237 -30.8806 -15.7799 23.5237 -34.3098 -9.26542 31.335 -31.418 -15.7799 
31.335 -34.3098 -8.92228 39.1463 -29.7713 -15.7799 -33.5849 -26.4985 -15.7799 
-38.9665 -26.4985 -13.1146 45.0042 -26.4985 -15.7799 46.9575 -24.7464 -15.7799 
46.9575 -26.4985 -13.1331 -46.7778 -18.6872 -9.43588 -38.9507 -18.6872 -15.7799 
-38.9665 -18.6569 -15.7799 -38.9665 -18.6872 -15.7732 50.929 -18.6872 -15.7799 
-41.9226 -10.8759 -15.7799 -46.7778 -10.8759 -12.4863 53.6585 -10.8759 -15.7799 
54.7688 -5.39214 -15.7799 54.7688 -10.8759 -13.8316 -42.6985 -3.06465 -15.7799 
-46.7778 -3.06465 -13.492 55.1516 -3.06465 -15.7799 54.7688 3.24078 -15.7799 
-42.972 4.74663 -15.7799 -46.7778 4.74663 -13.5796 54.6615 4.74663 -15.7799 
54.7688 4.74663 -15.5926 -42.8129 12.5579 -15.7799 -46.7778 12.5579 -12.3242 
51.4954 12.5579 -15.7799 46.9575 19.8855 -15.7799 54.7688 12.5579 -8.74264 
-40.6539 20.3692 -15.7799 -46.7778 20.3692 -9.03383 -38.9665 23.5956 -15.7799 
46.5885 20.3692 -15.7799 39.1463 26.6833 -15.7799 46.9575 20.3692 -15.0863 
-36.2697 28.1805 -15.7799 -38.9665 28.1805 -13.2927 -31.1553 32.9806 -15.7799 
23.5237 34.486 -15.7799 36.7172 28.1805 -15.7799 31.335 31.2426 -15.7799 
39.1463 28.1805 -12.4479 -26.9172 35.9917 -15.7799 -31.1553 35.9917 -12.3283 
-23.344 37.9068 -15.7799 -15.5327 40.1768 -15.7799 -7.72142 41.2946 -15.7799 
0.0898621 40.8386 -15.7799 7.90114 39.2857 -15.7799 19.7475 35.9917 -15.7799 
15.7124 37.3328 -15.7799 23.5237 35.9917 -12.4344 -15.5327 43.803 -9.0284 
-7.72142 43.803 -10.9433 -31.1553 -37.6373 -7.9686 -23.344 -39.367 -7.9686 
-15.5327 -39.3984 -7.9686 -15.5327 -42.121 -0.523396 -7.72142 -37.9216 -7.9686 
0.0898621 -36.3818 -7.9686 7.90114 -35.0937 -7.9686 15.7124 -34.8019 -7.9686 
23.5237 -34.8629 -7.9686 31.335 -34.6355 -7.9686 -36.6865 -34.3098 -7.9686 
-38.9665 -32.4897 -7.9686 -38.9665 -34.3098 -4.63724 33.2572 -34.3098 -7.9686 
39.1463 -33.1635 -7.9686 46.9575 -28.2247 -7.9686 -43.9276 -26.4985 -7.9686 
-46.7778 -21.1049 -7.9686 -46.7778 -26.4985 -1.41148 48.848 -26.4985 -7.9686 
-47.9704 -18.6872 -7.9686 54.6338 -18.6872 -7.9686 54.7688 -18.3274 -7.9686 
-50.7372 -10.8759 -7.9686 57.1363 -10.8759 -7.9686 -51.3621 -3.06465 -7.9686 
58.4481 -3.06465 -7.9686 -51.254 4.74663 -7.9686 57.9174 4.74663 -7.9686 
-49.9123 12.5579 -7.9686 55.042 12.5579 -7.9686 54.7688 13.0371 -7.9686 
54.7688 12.5579 -3.92553 -47.378 20.3692 -7.9686 -46.7778 21.4488 -7.9686 
49.7549 20.3692 -7.9686 46.9575 23.2791 -7.9686 -42.5586 28.1805 -7.9686 
-38.9665 32.253 -7.9686 31.335 34.3812 -7.9686 41.2638 28.1805 -7.9686 
39.1463 29.7417 -7.9686 -34.54 35.9917 -7.9686 -31.1553 38.3767 -7.9686 
-23.344 42.0912 -7.9686 0.0898621 43.7766 -7.9686 7.90114 41.7038 -7.9686 
15.7124 39.7017 -7.9686 27.4505 35.9917 -7.9686 23.5237 37.484 -7.9686 
-17.0386 43.803 -7.9686 -15.5327 44.1902 -7.9686 -15.5327 43.803 -1.61916 
-0.0975896 43.803 -7.9686 -7.72142 44.8792 -7.9686 -15.5327 -42.2345 -0.15732 
-38.9665 -36.5052 -0.15732 -31.1553 -40.6547 -0.15732 -18.1606 -42.121 -0.15732 
-23.344 -41.8921 -0.15732 -15.028 -42.121 -0.15732 -15.5327 -42.121 2.8871 
-7.72142 -40.414 -0.15732 0.0898621 -38.5638 -0.15732 7.90114 -37.0262 -0.15732 
15.7124 -35.9072 -0.15732 23.5237 -35.2221 -0.15732 31.335 -34.3957 -0.15732 
-41.268 -34.3098 -0.15732 -46.7778 -27.2875 -0.15732 23.5237 -34.3098 3.47232 
31.8163 -34.3098 -0.15732 31.335 -34.3098 0.124373 39.1463 -32.6235 -0.15732 
46.9575 -27.6626 -0.15732 -47.273 -26.4985 -0.15732 48.2613 -26.4985 -0.15732 
46.9575 -26.4985 3.21867 -51.2065 -18.6872 -0.15732 54.4572 -18.6872 -0.15732 
54.7688 -17.8935 -0.15732 -53.8909 -10.8759 -0.15732 56.9386 -10.8759 -0.15732 
54.7688 -10.8759 7.10409 -54.5214 -3.06465 -0.15732 58.2555 -3.06465 -0.15732 
-54.1065 4.74663 -0.15732 57.5172 4.74663 -0.15732 54.7688 11.9174 -0.15732 
54.7688 4.74663 6.91149 -52.3488 12.5579 -0.15732 54.4807 12.5579 -0.15732 
-49.1402 20.3692 -0.15732 -46.7778 24.3102 -0.15732 48.3715 20.3692 -0.15732 
46.9575 21.8666 -0.15732 46.9575 20.3692 2.25639 -43.9358 28.1805 -0.15732 
-38.9665 33.4053 -0.15732 31.335 33.9397 -0.15732 39.9454 28.1805 -0.15732 
39.1463 28.8036 -0.15732 39.1463 28.1805 1.04791 -35.4061 35.9917 -0.15732 
-31.1553 38.6275 -0.15732 -31.1553 35.9917 5.95091 -23.344 41.9218 -0.15732 
-15.5327 43.7087 -0.15732 0.0898621 42.7137 -0.15732 7.90114 40.757 -0.15732 
15.7124 39.185 -0.15732 26.8719 35.9917 -0.15732 23.5237 37.3619 -0.15732 
23.5237 35.9917 3.66106 -11.4859 43.803 -0.15732 -7.12239 43.803 -0.15732 
-7.72142 43.8905 -0.15732 -7.72142 43.803 0.0135277 -38.9665 -35.8451 7.65396 
-31.1553 -40.1636 7.65396 -23.344 -41.621 7.65396 -15.5327 -41.9211 7.65396 
-7.72142 -40.1971 7.65396 0.0898621 -38.3748 7.65396 7.90114 -36.4155 7.65396 
15.7124 -34.5613 7.65396 -40.6365 -34.3098 7.65396 -46.7778 -26.7263 7.65396 
-38.9665 -34.3098 10.6085 7.90114 -34.3098 14.6529 17.1856 -34.3098 7.65396 
15.7124 -34.3098 8.37888 23.5237 -33.1985 7.65396 31.335 -31.8777 7.65396 
39.1463 -29.3848 7.65396 -46.9283 -26.4985 7.65396 -46.7778 -26.4985 8.01453 
44.1935 -26.4985 7.65396 39.1463 -26.4985 13.1878 46.9575 -24.2745 7.65396 
-51.0336 -18.6872 7.65396 51.4736 -18.6872 7.65396 46.9575 -18.6872 14.3294 
-53.9675 -10.8759 7.65396 54.5928 -10.8759 7.65396 54.7688 -9.59933 7.65396 
-54.5573 -3.06465 7.65396 55.6381 -3.06465 7.65396 54.7688 2.75001 7.65396 
54.7688 -3.06465 9.10196 -53.8937 4.74663 7.65396 54.4032 4.74663 7.65396 
-51.7489 12.5579 7.65396 50.1773 12.5579 7.65396 46.9575 16.6434 7.65396 
46.9575 12.5579 11.3718 -47.9797 20.3692 7.65396 -46.7778 22.1094 7.65396 
-46.7778 20.3692 10.4163 31.335 20.3692 15.3209 43.1588 20.3692 7.65396 
39.1463 24.0623 7.65396 39.1463 20.3692 11.0297 -41.4589 28.1805 7.65396 
-38.9665 30.4404 7.65396 -38.9665 28.1805 10.7104 -31.1553 35.1762 7.65396 
-31.1553 28.1805 14.9174 -15.5327 28.1805 15.3344 -7.72142 28.1805 15.0331 
0.0898621 28.1805 14.9588 15.7124 28.1805 15.2976 23.5237 34.23 7.65396 
23.5237 28.1805 13.8576 34.4171 28.1805 7.65396 31.335 30.4411 7.65396 
31.335 28.1805 10.3765 -28.898 35.9917 7.65396 -23.344 37.8906 7.65396 
-23.344 35.9917 9.76619 -15.5327 39.0149 7.65396 -15.5327 35.9917 10.5187 
-7.72142 38.9341 7.65396 -7.72142 35.9917 10.4197 0.0898621 38.0142 7.65396 
0.0898621 35.9917 9.71194 7.90114 36.941 7.65396 7.90114 35.9917 8.78685 
16.3566 35.9917 7.65396 15.7124 36.1319 7.65396 15.7124 35.9917 7.84333 
-31.1553 -36.4122 15.4652 -23.344 -38.7849 15.4652 -15.5327 -39.0843 15.4652 
-7.72142 -37.9158 15.4652 0.0898621 -36.2365 15.4652 -34.8522 -34.3098 15.4652 
-38.9665 -31.0944 15.4652 -31.1553 -34.3098 17.7478 -23.344 -34.3098 20.1612 
-15.5327 -34.3098 20.4846 -7.72142 -34.3098 19.9946 6.97098 -34.3098 15.4652 
0.0898621 -34.3098 18.2156 7.90114 -33.9921 15.4652 15.7124 -31.3678 15.4652 
23.5237 -29.986 15.4652 31.335 -28.2636 15.4652 -42.9282 -26.4985 15.4652 
-46.7778 -21.0404 15.4652 -38.9665 -26.4985 18.9378 -31.1553 -26.4985 22.263 
[...]
POINT_DATA 532
SCALARS ImageScalars float
LOOKUP_TABLE default
0 0 0 0 0 0 0 0 0 
0 0 0 0 0 0 0 0 0 
0 0 0 0 0 0 0 0 0 
0 0 0 0 0 0 0 0 0 
0 0 0 0 0 0 0 0 0 
0 0 0 0 0 0 0 0 0 
0 0 0 0 0 0 0 0 0 
0 0 0 0 0 0 0 0 0 
0 0 0 0 0 0 0 0 0 
0 0 0 0 0 0 0 0 0 
0 0 0 0 0 0 0 0 0 
0 0 0 0 0 0 0 0 0 
0 0 0 0 0 0 0 0 0 
0 0 0 0 0 0 0 0 0 
0 0 0 0 0 0 0 0 0 
0 0 0 0 0 0 0 0 0 
0 0 0 0 0 0 0 0 0 
0 0 0 0 0 0 0 0 0 
0 0 0 0 0 0 0 0 0 
0 0 0 0 0 0 0 0 0 
0 0 0 0 0 0 0 0 0 
0 0 0 0 0 0 0 0 0 
0 0 0 0 0 0 0 0 0 
0 0 0 0 0 0 0 0 0 
0 0 0 0 0 0 0 0 0 
0 0 0 0 0 0 0 0 0 
0 0 0 0 0 0 0 0 0 
0 0 0 0 0 0 0 0 0 
0 0 0 0 0 0 0 0 0 
0 0 0 0 0 0 0 0 0 
0 0 0 0 0 0 0 0 0 
0 0 0 0 0 0 0 0 0 
0 0 0 0 0 0 0 0 0 
0 0 0 0 0 0 0 0 0 
0 0 0 0 0 0 0 0 0 
0 0 0 0 0 0 0 0 0 
0 0 0 0 0 0 0 0 0 
0 0 0 0 0 0 0 0 0 
0 0 0 0 0 0 0 0 0 
0 0 0 0 0 0 0 0 0 
0 0 0 0 0 0 0 0 0 
0 0 0 0 0 0 0 0 0 
0 0 0 0 0 0 0 0 0 
0 0 0 0 0 0 0 0 0 
0 0 0 0 0 0 0 0 0 
0 0 0 0 0 0 0 0 0 
0 0 0 0 0 0 0 0 0 
0 0 0 0 0 0 0 0 0 
0 0 0 0 0 0 0 0 0 
0 0 0 0 0 0 0 0 0 
0 0 0 0 0 0 0 0 0 
0 0 0 0 0 0 0 0 0 
0 0 0 0 0 0 0 0 0 
0 0 0 0 0 0 0 0 0 
0 0 0 0 0 0 0 0 0 
0 0 0 0 0 0 0 0 0 
0 0 0 0 0 0 0 0 0 
0 0 0 0 0 0 0 0 0 
0 0 0 0 0 0 0 0 0 
0 
NORMALS Normals float
0.0104889 -0.0236581 0.999665 0.276557 0.324723 0.904473 0.108897 0.355879 0.928166 
-0.0118245 0.356515 0.934215 -0.0513818 0.365646 0.929335 -0.0742922 0.443079 0.893399 
0.0195853 0.507338 0.861525 0.156494 0.496301 0.853929 0.133626 0.485545 0.863939 
-0.0496446 0.497424 0.866086 -0.30227 0.566858 0.766358 0.25385 0.154996 0.954744 
0.10669 0.150439 0.982846 -0.0153431 0.189438 0.981773 -0.0279276 0.12926 0.991217 
0.00821264 0.127702 0.991779 0.0396564 0.252769 0.966714 0.101622 0.166859 0.98073 
0.122406 0.15501 0.9803 0.0124584 0.0154387 0.999803 0.016858 0.194007 0.980855 
-0.17957 0.227672 0.957037 -0.509485 0.323793 0.797235 0.364115 0.0847773 0.927487 
0.233152 0.0406145 0.971592 0.15011 0.0303101 0.988205 -0.0376216 0.152204 0.987633 
-0.116739 0.106273 0.98746 0.063719 -0.0503681 0.996696 0.0650131 0.0964646 0.993211 
0.0515384 -0.0614121 0.996781 0.0305327 -0.0253481 0.999212 0.172269 -0.0419492 0.984156 
-0.0153365 -0.0157383 0.999759 0.0218972 -0.0295248 0.999324 -0.175899 0.0375047 0.983693 
-0.407347 0.106762 0.907012 0.332055 0.0195428 0.943058 0.214539 0.0280783 0.976312 
0.219354 -0.000370603 0.975645 0.0882275 0.053089 0.994685 -0.237981 0.136775 0.961591 
0.0158365 0.0798689 0.99668 0.0149275 0.0483172 0.99872 -0.037524 -0.0308287 0.99882 
0.172239 -0.0382077 0.984314 0.0946112 -0.0615392 0.99361 -0.0691593 0.0209174 0.997386 
-0.340911 0.0342101 0.939473 -0.770489 0.0448035 0.635877 0.343588 0.0361397 0.938425 
0.207102 0.0415882 0.977435 0.169766 0.0455042 0.984433 0.0929918 -0.103096 0.990315 
-0.097239 -0.112013 0.988938 -0.0169783 0.0335727 0.999292 -0.0332888 -0.0214556 0.999215 
-0.0289911 0.128645 0.991267 0.134411 0.0849065 0.987281 0.0806609 0.0582125 0.99504 
-0.0929091 0.0244886 0.995373 -0.361142 -0.104206 0.92667 0.395638 -0.0405335 0.917512 
0.230716 0.0278435 0.972623 0.0813971 0.0436701 0.995725 -0.0730968 -0.0311234 0.996839 
-0.0941852 -0.0570375 0.993919 0.0721294 0.0297757 0.996951 0.112619 0.0241488 0.993345 
0.0686729 0.121672 0.990192 0.101833 0.0588709 0.993058 0.0356631 -0.0453021 0.998337 
-0.21057 -0.133671 0.968397 -0.518336 -0.293317 0.803302 0.501606 -0.210584 0.839074 
0.287085 -0.0872149 0.953926 0.110699 -0.0576954 0.992178 -0.0212301 0.0209029 0.999556 
-0.0267789 0.0764039 0.996717 0.0714277 0.12543 0.989528 0.0549148 0.0370698 0.997803 
0.00312194 0.018457 0.999825 -0.0299717 -0.116042 0.992792 -0.120748 -0.253057 0.959886 
-0.339195 -0.422531 0.840485 0.366559 -0.342893 0.864904 0.183695 -0.239434 0.953377 
0.0643449 -0.156748 0.98554 0.0130186 -0.0923288 0.995643 0.0289925 -0.0964072 0.99492 
0.00529792 -0.18649 0.982443 -0.0877295 -0.244271 0.96573 -0.18967 -0.411291 0.891552 
-0.315414 -0.592719 0.741079 0.283853 -0.573411 0.768523 0.136116 -0.468942 0.872678 
0.0384741 -0.430355 0.901839 -0.0393481 -0.484233 0.874054 -0.136884 -0.605874 0.783696 
-0.245976 -0.734638 0.6323 0.285431 0.401652 0.870175 0.33506 0.663563 0.668894 
0.0873919 0.506195 0.85798 0.082343 0.632599 0.770089 -0.0189595 0.533027 0.845886 
-0.0389638 0.650144 0.758812 -0.0860017 0.54149 0.836297 -0.13073 0.726734 0.674365 
-0.100402 0.556503 0.824757 -0.152166 0.808584 0.568363 0.010919 0.56768 0.823177 
-0.0792166 0.878861 0.470455 0.126893 0.645616 0.753046 -0.00101308 0.937824 0.347109 
0.0846431 0.749064 0.657068 -0.000707121 0.959273 0.28248 -0.0482808 0.798879 0.599551 
-0.0900473 0.976557 0.195519 -0.320034 0.731646 0.60189 0.346356 0.345577 0.872132 
0.539867 0.420914 0.728955 -0.521087 0.632712 0.572839 -0.585804 0.581753 0.564268 
-0.618855 0.679348 0.394342 0.744383 0.339777 0.574844 0.46397 0.225835 0.856581 
0.463997 0.225457 0.856666 0.464473 0.226008 0.856262 -0.702814 0.393807 0.592426 
0.461833 0.124153 0.878235 0.666387 0.18126 0.723238 -0.756676 0.1926 0.624778 
-0.784474 0.0888086 0.613769 -0.847584 0.207757 0.488302 0.449754 0.0321202 0.892574 
0.631572 0.0522435 0.773555 -0.78621 0.0448696 0.616328 -0.79174 -0.130099 0.596844 
0.474762 0.00139326 0.880113 0.649407 -0.0480869 0.758919 -0.787577 -0.170423 0.592181 
-0.796983 -0.171994 0.578996 0.537564 -0.0847169 0.838956 0.746624 -0.172688 0.642442 
-0.698907 -0.375734 0.608566 -0.647161 -0.550938 0.526926 -0.887967 -0.429349 0.164846 
0.559783 -0.245943 0.791299 0.827759 -0.38572 0.407473 0.565035 -0.319431 0.760723 
-0.642335 -0.560421 0.522813 -0.500045 -0.685465 0.529238 -0.661604 -0.578801 0.476727 
0.555457 -0.428632 0.712561 0.665085 -0.497286 0.557107 0.45687 -0.559884 0.691231 
-0.292016 -0.764491 0.574701 -0.467151 -0.707158 0.530751 -0.371218 -0.737528 0.564136 
-0.545209 -0.775594 0.318122 0.379971 -0.632673 0.674794 0.512936 -0.731448 0.449311 
0.304595 -0.666821 0.680126 0.170157 -0.726621 0.665633 0.0282601 -0.746306 0.665003 
-0.110336 -0.784313 0.610474 -0.197367 -0.800911 0.56532 -0.284163 -0.792954 0.538958 
-0.265263 -0.803393 0.5331 -0.313212 -0.879043 0.359419 0.171662 -0.96524 0.19709 
-0.0119285 -0.957255 0.288999 0.323731 0.803661 0.499327 0.0971301 0.874705 0.474822 
-0.0854705 0.873878 0.478572 -0.0952812 0.98283 0.158009 -0.173007 0.877984 0.446333 
-0.167411 0.887924 0.428444 -0.0948782 0.906279 0.411894 -0.0135868 0.954346 0.298393 
-0.0102022 0.973719 0.227525 -0.0994498 0.983531 0.150922 0.518021 0.688992 0.506897 
0.58771 0.624217 0.514733 0.611367 0.70646 0.356573 -0.161101 0.976327 0.144335 
-0.357157 0.926049 0.121948 -0.63672 0.763782 0.105951 0.720545 0.46793 0.51172 
0.770833 0.379813 0.511427 0.845114 0.494793 0.20239 -0.699471 0.706148 0.109975 
0.786256 0.345032 0.512595 -0.878989 0.452432 0.150613 -0.884542 0.441224 0.151349 
0.821007 0.187249 0.539338 -0.96052 0.227593 0.160007 0.846771 0.0277181 0.531235 
-0.985415 0.0467571 0.16362 0.860504 -0.0830961 0.502621 -0.968198 -0.201745 0.147955 
0.865863 -0.231728 0.443378 -0.894413 -0.429287 0.125456 -0.888226 -0.442294 0.124221 
-0.889631 -0.45235 -0.0627412 0.845794 -0.39233 0.361538 0.836674 -0.415007 0.357414 
-0.743703 -0.664265 0.0752167 -0.69065 -0.719352 0.0744087 0.761484 -0.564348 0.31883 
0.683182 -0.668972 0.292812 -0.451082 -0.88404 0.122472 -0.59316 -0.800293 0.0877124 
-0.561986 -0.822557 0.0870127 0.583731 -0.772407 0.250291 0.513113 -0.826917 0.230052 
0.336368 -0.924012 0.181817 -0.195917 -0.977416 0.0792071 -0.254314 -0.964612 0.0696306 
-0.254985 -0.962429 0.0933393 -0.380706 -0.915509 0.130021 -0.307917 -0.94094 0.140781 
0.199203 -0.968112 0.151912 0.168712 -0.974692 0.146669 0.125485 -0.975758 -0.179301 
-0.191938 -0.978153 0.0798517 -0.0266314 -0.993185 0.113462 -0.0956338 0.985103 0.14292 
0.610874 0.778921 0.141832 0.278572 0.950175 0.139876 -0.0308207 0.990024 0.137488 
0.0909231 0.98787 0.125884 -0.104817 0.984362 0.14158 -0.0968337 0.995105 0.0197313 
-0.217731 0.967785 0.126435 -0.210448 0.971133 0.112302 -0.168601 0.982792 0.0754488 
-0.11695 0.993029 -0.014731 -0.0964023 0.990092 -0.102096 -0.145311 0.974845 -0.169003 
0.682676 0.716395 0.143987 0.844806 0.514545 0.146787 -0.126494 0.972514 -0.195489 
-0.159354 0.972243 -0.171319 -0.146858 0.973454 -0.175556 -0.380497 0.902202 -0.203109 
-0.62355 0.760927 -0.179376 0.854475 0.498033 0.147765 -0.663695 0.726592 -0.177688 
-0.625004 0.733512 -0.267078 0.914434 0.371617 0.160348 -0.868021 0.472155 -0.153653 
-0.882587 0.444723 -0.152518 0.965109 0.197052 0.17244 -0.961914 0.228649 -0.149802 
-0.905312 0.206513 -0.371165 0.984275 0.0118491 0.176248 -0.985411 0.0352424 -0.166503 
0.979718 -0.130904 0.151712 -0.951534 -0.229677 -0.204529 -0.865181 -0.440449 -0.239723 
-0.845903 -0.279836 -0.454026 0.946352 -0.306168 0.10334 -0.85378 -0.460075 -0.2437 
0.891981 -0.450254 0.0405208 0.842061 -0.539265 0.0112675 -0.706662 -0.654083 -0.269821 
-0.686785 -0.675727 -0.267805 -0.67402 -0.647783 -0.355069 0.770146 -0.636949 -0.0342236 
0.650457 -0.754436 -0.0879362 -0.467876 -0.86101 -0.199385 -0.597604 -0.760977 -0.252554 
-0.588116 -0.769448 -0.249137 -0.588917 -0.751594 -0.297125 0.551949 -0.823824 -0.129099 
0.460607 -0.873157 -0.159492 0.395287 -0.811945 -0.429526 0.289963 -0.931084 -0.221371 
0.113483 -0.960461 -0.254237 -0.186373 -0.934403 -0.303573 -0.212432 -0.94008 -0.266686 
-0.204773 -0.957449 -0.20337 -0.369819 -0.911175 -0.181641 -0.301411 -0.938267 -0.169723 
-0.302466 -0.896928 -0.322543 0.0250965 -0.958826 -0.282882 -0.0687327 -0.948978 -0.307761 
-0.0587101 -0.949436 -0.308421 -0.0589152 -0.947064 -0.315593 0.612632 0.758161 -0.223325 
0.299464 0.928116 -0.221182 0.102918 0.980405 -0.167972 -0.0954763 0.979943 -0.174916 
-0.20993 0.967399 -0.141661 -0.236424 0.96217 -0.135396 -0.24043 0.954333 -0.17732 
-0.196301 0.948003 -0.250512 0.66176 0.717719 -0.216686 0.828535 0.525879 -0.192305 
0.607683 0.714607 -0.346495 -0.27004 0.861457 -0.430082 -0.189114 0.946735 -0.260631 
-0.199853 0.941397 -0.271718 -0.158414 0.940304 -0.301219 -0.209196 0.916176 -0.341845 
-0.382231 0.847819 -0.367564 0.831445 0.521407 -0.191919 0.827528 0.522123 -0.206361 
-0.535861 0.758272 -0.371317 -0.408894 0.769264 -0.490956 -0.645077 0.661168 -0.383057 
0.906357 0.387348 -0.168757 -0.791503 0.482451 -0.375185 -0.666853 0.45839 -0.587525 
0.962758 0.21381 -0.165474 -0.898117 0.205291 -0.388898 -0.901571 0.169747 -0.39794 
0.989652 -0.00675142 -0.143333 -0.89857 -0.0067167 -0.438778 -0.855064 -0.213336 -0.472602 
-0.87431 -0.0153391 -0.485125 0.97107 -0.164302 -0.173284 -0.828144 -0.285565 -0.482317 
0.911646 -0.346065 -0.221674 -0.702672 -0.474205 -0.530454 -0.633133 -0.555273 -0.539272 
-0.587496 -0.491051 -0.643209 0.819203 -0.513249 -0.255892 0.789932 -0.547541 -0.276055 
0.760982 -0.530378 -0.373638 -0.33265 -0.381788 -0.862312 -0.577428 -0.597509 -0.55638 
-0.547975 -0.623738 -0.557382 -0.496631 -0.552584 -0.669334 0.627676 -0.678586 -0.381502 
0.559876 -0.720174 -0.409741 0.524306 -0.682974 -0.508575 0.365567 -0.780191 -0.507605 
0.208202 -0.585108 -0.783773 -0.0564558 -0.411741 -0.90955 -0.021411 -0.395309 -0.918298 
0.0247548 -0.443372 -0.895996 -0.0804683 -0.496697 -0.864186 -0.295526 -0.806137 -0.512647 
-0.22503 -0.547569 -0.805934 -0.515161 -0.676506 -0.526259 -0.466005 -0.72202 -0.511396 
-0.454907 -0.639564 -0.619692 0.31841 -0.782476 -0.535113 0.192414 -0.784775 -0.589156 
0.163711 -0.724304 -0.669763 0.0553895 -0.742385 -0.66768 0.0304633 -0.645069 -0.763517 
-0.0508568 -0.73024 -0.681295 -0.0404647 -0.635119 -0.771354 -0.10438 -0.750473 -0.652607 
-0.0796493 -0.684983 -0.724193 -0.101572 -0.804149 -0.585685 -0.0869452 -0.776812 -0.623701 
-0.15125 -0.845315 -0.512412 -0.139242 -0.846627 -0.513648 -0.137738 -0.842539 -0.520727 
0.348211 0.733959 -0.583141 0.140789 0.833747 -0.533895 -0.0533435 0.852987 -0.5192 
-0.164488 0.866557 -0.471192 -0.228797 0.866559 -0.44354 0.452795 0.675799 -0.581612 
0.551557 0.60057 -0.578879 0.347994 0.65017 -0.675411 0.132353 0.595209 -0.792596 
-0.00631275 0.623709 -0.781631 -0.103368 0.676208 -0.729423 -0.266797 0.847545 -0.458789 
-0.211521 0.780065 -0.588861 -0.27214 0.841082 -0.467463 -0.211908 0.811222 -0.544991 
-0.169154 0.826058 -0.537602 -0.252189 0.798026 -0.547316 0.648919 0.511892 -0.562913 
0.758262 0.41516 -0.502673 0.501602 0.483313 -0.717499 0.266405 0.372979 -0.888772 
-0.180532 0.404882 -0.89637 -0.153437 0.561406 -0.813191 -0.133537 0.660298 -0.739036 
-0.351787 0.753766 -0.555053 -0.244347 0.725134 -0.643798 -0.4245 0.690889 -0.585211 
0.785441 0.37454 -0.492749 0.735324 0.366467 -0.570087 0.358438 0.277056 -0.891494 
-0.181468 0.289979 -0.939671 -0.631002 0.447355 -0.633805 -0.401911 0.382886 -0.831785 
-0.660158 0.38155 -0.647001 0.825389 0.207885 -0.524897 0.654028 0.169192 -0.737307 
-0.306256 0.0667219 -0.949608 -0.714471 0.152338 -0.68288 -0.624987 0.137716 -0.768391 
0.855359 0.00540675 -0.518008 0.634128 -0.00280753 -0.773223 0.0401187 -0.0441462 -0.998219 
-0.110801 -0.158703 -0.981089 -0.301593 -0.171528 -0.93788 -0.662468 -0.0690687 -0.745899 
-0.572102 -0.0864406 -0.815615 0.819257 -0.193337 -0.539851 0.637921 -0.186816 -0.747099 
-0.00224691 -0.0835555 -0.996501 -0.174606 -0.251387 -0.952007 -0.102141 -0.258961 -0.960472 
-0.116624 -0.303093 -0.945798 -0.262956 -0.322752 -0.909222 -0.57909 -0.309063 -0.75441 
-0.54591 -0.348103 -0.762107 -0.53867 -0.310668 -0.783148 0.735632 -0.356069 -0.576247 
0.692027 -0.418628 -0.58809 0.67819 -0.352346 -0.644911 0.274434 -0.358024 -0.892471 
0.0469665 -0.342985 -0.938166 -0.090491 -0.331481 -0.939112 -0.0879802 -0.372761 -0.923747 
0.0234333 -0.398926 -0.916684 0.00204645 -0.288282 -0.957543 -0.0933117 -0.344963 -0.933966 
-0.116103 -0.267713 -0.956478 -0.116858 -0.242222 -0.963158 -0.326156 -0.377144 -0.866825 
-0.196118 -0.331322 -0.92291 -0.372611 -0.43185 -0.821381 -0.359953 -0.43287 -0.826473 
-0.344524 -0.421512 -0.838827 0.50966 -0.532933 -0.675448 0.392172 -0.573722 -0.719058 
0.340568 -0.5085 -0.790848 0.191344 -0.563622 -0.803565 0.102896 -0.442438 -0.890877 
-0.0752966 -0.395133 -0.915533 -0.0591766 -0.407865 -0.911123 -0.10383 -0.353572 -0.929627 
-0.0182309 -0.384032 -0.92314 -0.00260906 -0.357371 -0.933959 0.0310183 -0.431943 -0.901367 
0.0441693 -0.400341 -0.915301 0.00904758 -0.336826 -0.941523 -0.0787293 -0.483949 -0.871547 
-0.0641812 -0.285045 -0.956363 -0.32307 -0.376132 -0.868418 -0.197108 -0.439042 -0.876579 
-0.178571 -0.309501 -0.933981 0.118927 -0.544416 -0.830342 -0.0432245 -0.427971 -0.902758 
0.0260235 -0.514268 -0.857235 0.0153627 -0.496598 -0.867845 0.021031 -0.482831 -0.875461 
-0.00837933 -0.490073 -0.871641 0.0194776 -0.490479 -0.871235 0.0201016 -0.487574 -0.87285 
0.113042 0.339405 -0.933823 -0.00079164 0.331802 -0.943349 -0.0454339 0.301591 -0.952354 
-0.107393 0.308777 -0.945052 0.177047 0.320946 -0.930402 0.221249 0.311082 -0.924271 
0.110482 0.284904 -0.952168 -0.00176124 0.242914 -0.970046 -0.0390963 0.222413 -0.974168 
-0.116888 0.302182 -0.946057 -0.101344 0.278984 -0.954933 -0.10614 0.231135 -0.967115 
-0.0481667 0.234494 -0.970924 -0.0545964 0.259769 -0.964126 0.30771 0.260966 -0.914992 
0.34358 0.227405 -0.911175 0.153627 0.215874 -0.96426 0.0101717 0.125826 -0.992 
-0.0590662 0.0331371 -0.997704 -0.0378048 -0.0165894 -0.999147 -0.0287704 0.000915926 -0.999586 
-0.053936 0.115016 -0.991898 -0.0378547 0.206122 -0.977794 -0.0762049 0.252238 -0.96466 
-0.0516704 0.245272 -0.968076 -0.134048 0.111298 -0.984705 0.394968 0.134224 -0.908837 
0.324819 0.134739 -0.936129 0.093282 0.110064 -0.989537 -0.0762332 0.0429101 -0.996166 
-0.140375 0.0268188 -0.989735 -0.0725075 -0.023967 -0.99708 0.0366127 -0.0597993 -0.997539 
0.031309 -0.0843378 -0.995945 0.0387526 0.0440979 -0.998275 -0.00280861 0.0347412 -0.999392 
-0.0392984 0.0024582 -0.999224 -0.155772 0.0342438 -0.987199 -0.110741 -0.093271 -0.989463 
-0.111038 0.0223839 -0.993564 0.438653 -0.015157 -0.898529 0.303094 -0.0229848 -0.952683 
0.0608717 -0.0420096 -0.997261 -0.0705319 -0.0544266 -0.996024 -0.125417 -0.0223035 -0.991853 
0.00185093 -0.0307113 -0.999527 -0.149625 0.0246061 -0.988437 0.0429211 -0.0398647 -0.998283 
0.0652813 -0.0061271 -0.997848 -0.137815 -0.18918 -0.972223 -0.079362 -0.0901166 -0.992764 
-0.0888075 -0.166125 -0.982098 -0.0667029 -0.185818 -0.980317 -0.0627324 -0.176308 -0.982334 
0.340181 -0.181812 -0.922616 0.27877 -0.23462 -0.931258 0.28691 -0.186261 -0.939675 
0.0490931 -0.323374 -0.944997 0.0643997 -0.231216 -0.970769 -0.0820044 -0.301036 -0.95008 
-0.0570957 -0.212377 -0.975518 -0.0684058 -0.298579 -0.95193 -0.0591861 -0.249627 -0.966532 
-0.0297142 -0.110404 -0.993442 -0.0591766 -0.240408 -0.968866 -0.0944512 -0.169566 -0.980982 
-0.00432521 -0.124557 -0.992203 -0.108927 -0.237815 -0.965183 -0.0347563 -0.255461 -0.966195 
-0.0059378 -0.213792 -0.976861 
