# vtk DataFile Version 4.2
vtk output
ASCII
DATASET POLYDATA
POINTS 494 float
-8.34562 -43.2282 -16.9792 0.118751 -43.2282 -18.4269 8.58312 -43.2282 -17.6664 
-16.81 -34.7638 -17.7704 -8.34562 -34.7638 -20.2318 0.118751 -34.7638 -21.7738 
8.58312 -34.7638 -22.0893 17.0475 -34.7638 -20.9209 25.5119 -34.7638 -19.3523 
-25.2744 -26.2995 -18.4799 -16.81 -26.2995 -19.5298 -8.34562 -26.2995 -21.1811 
0.118751 -26.2995 -22.7097 8.58312 -26.2995 -23.1078 17.0475 -26.2995 -22.1884 
25.5119 -26.2995 -21.7596 33.9762 -26.2995 -21.3091 42.4406 -26.2995 -19.0863 
-33.7387 -17.8351 -17.6517 -25.2744 -17.8351 -19.7448 -16.81 -17.8351 -20.5424 
-8.34562 -17.8351 -21.3724 0.118751 -17.8351 -22.7338 8.58312 -17.8351 -22.5229 
17.0475 -17.8351 -22.0001 25.5119 -17.8351 -22.5603 33.9762 -17.8351 -22.9025 
42.4406 -17.8351 -22.2001 50.905 -17.8351 -18.8006 -33.7387 -9.37071 -18.1048 
-25.2744 -9.37071 -20.3035 -16.81 -9.37071 -21.8471 -8.34562 -9.37071 -22.4287 
0.118751 -9.37071 -22.8866 8.58312 -9.37071 -23.2881 17.0475 -9.37071 -22.1047 
25.5119 -9.37071 -23.1921 33.9762 -9.37071 -24.4539 42.4406 -9.37071 -24.8857 
50.905 -9.37071 -21.3793 -33.7387 -0.906333 -17.0002 -25.2744 -0.906333 -19.3916 
-16.81 -0.906333 -21.7749 -8.34562 -0.906333 -22.0578 0.118751 -0.906333 -21.7266 
8.58312 -0.906333 -25.0926 17.0475 -0.906333 -23.2867 25.5119 -0.906333 -23.8784 
33.9762 -0.906333 -24.8724 42.4406 -0.906333 -24.8062 50.905 -0.906333 -22.7784 
-25.2744 7.55804 -17.4161 -16.81 7.55804 -19.4715 -8.34562 7.55804 -21.5618 
0.118751 7.55804 -22.1143 8.58312 7.55804 -22.6309 17.0475 7.55804 -22.8768 
25.5119 7.55804 -24.2847 33.9762 7.55804 -25.2687 42.4406 7.55804 -25.1068 
50.905 7.55804 -22.7689 -16.81 16.0224 -17.1059 -8.34562 16.0224 -19.3773 
0.118751 16.0224 -22.2343 8.58312 16.0224 -22.2587 17.0475 16.0224 -22.9311 
25.5119 16.0224 -24.3404 33.9762 16.0224 -25.195 42.4406 16.0224 -24.6425 
50.905 16.0224 -20.1069 -8.34562 24.4868 -18.5761 0.118751 24.4868 -21.7995 
8.58312 24.4868 -22.8698 17.0475 24.4868 -23.0828 25.5119 24.4868 -23.3392 
33.9762 24.4868 -22.3407 42.4406 24.4868 -19.7628 0.118751 32.9512 -20.3009 
8.58312 32.9512 -22.1548 17.0475 32.9512 -21.3513 25.5119 32.9512 -19.8615 
8.58312 41.4155 -17.7349 -8.34562 -43.3507 -16.8944 0.118751 -45.1558 -16.8944 
8.58312 -44.0347 -16.8944 -25.2744 -43.2282 -9.74709 -8.61086 -43.2282 -16.8944 
-16.81 -36.9272 -16.8944 -16.81 -43.2282 -13.716 11.0621 -43.2282 -16.8944 
17.0475 -40.8317 -16.8944 17.0475 -43.2282 -12.7328 25.5119 -37.7698 -16.8944 
-33.7387 -34.7638 -11.2352 -19.9135 -34.7638 -16.8944 -25.2744 -30.6479 -16.8944 
-25.2744 -34.7638 -15.2237 32.1715 -34.7638 -16.8944 33.9762 -33.6145 -16.8944 
33.9762 -34.7638 -15.4032 42.4406 -28.8893 -16.8944 -42.2031 -26.2995 -10.1279 
-30.0224 -26.2995 -16.8944 -33.7387 -21.0351 -16.8944 -33.7387 -26.2995 -15.5546 
45.4725 -26.2995 -16.8944 50.905 -20.6177 -16.8944 -35.4899 -17.8351 -16.8944 
-42.2031 -17.8351 -13.5297 52.7701 -17.8351 -16.8944 -36.6987 -9.37071 -16.8944 
-42.2031 -9.37071 -14.4455 56.7604 -9.37071 -16.8944 -34.0039 -0.906333 -16.8944 
-42.2031 -0.906333 -13.4195 -33.7387 -0.45582 -16.8944 58.3415 -0.906333 -16.8944 
59.3694 -0.906333 -12.7236 -42.2031 7.55804 -11.4382 -27.099 7.55804 -16.8944 
-33.7387 7.55804 -14.9474 -25.2744 10.1526 -16.8944 57.6765 7.55804 -16.8944 
-42.2031 16.0224 -9.19627 -33.7387 16.0224 -13.1031 -18.0958 16.0224 -16.8944 
-25.2744 16.0224 -15.6758 -16.81 17.4638 -16.8944 54.1301 16.0224 -16.8944 
50.905 20.3136 -16.8944 -33.7387 24.4868 -10.2107 -25.2744 24.4868 -13.5208 
-13.5255 24.4868 -16.8944 -16.81 24.4868 -15.8139 -8.34562 31.401 -16.8944 
33.9762 31.8447 -16.8944 46.1966 24.4868 -16.8944 42.4406 27.2678 -16.8944 
-25.2744 32.9512 -9.39991 -16.81 32.9512 -12.7482 -7.48761 32.9512 -16.8944 
-8.34562 32.9512 -16.4774 0.118751 39.4323 -16.8944 17.0475 40.3244 -16.8944 
31.8497 32.9512 -16.8944 25.5119 36.212 -16.8944 33.9762 32.9512 -13.7378 
-8.34562 41.4155 -10.5815 5.01454 41.4155 -16.8944 0.118751 41.4155 -15.4439 
12.9791 41.4155 -16.8944 8.58312 42.3175 -16.8944 17.0475 41.4155 -15.6032 
-25.2744 -44.2882 -8.43006 -16.81 -48.3568 -8.43006 -8.34562 -51.0303 -8.43006 
-8.34562 -51.6926 -4.68568 0.118751 -50.6903 -8.43006 8.58312 -48.3239 -8.43006 
17.0475 -44.9509 -8.43006 -26.7799 -43.2282 -8.43006 -33.7387 -37.5205 -8.43006 
21.4154 -43.2282 -8.43006 25.5119 -41.6072 -8.43006 33.9762 -38.0174 -8.43006 
-36.775 -34.7638 -8.43006 -42.2031 -28.4441 -8.43006 39.6988 -34.7638 -8.43006 
42.4406 -33.036 -8.43006 -43.9107 -26.2995 -8.43006 50.0305 -26.2995 -8.43006 
50.905 -25.2944 -8.43006 -48.0316 -17.8351 -8.43006 -50.6675 -17.8351 -4.6942 
56.0792 -17.8351 -8.43006 -50.0805 -9.37071 -8.43006 -50.6675 -9.37071 -7.80377 
59.2832 -9.37071 -8.43006 59.3694 -8.58018 -8.43006 -50.6421 -0.906333 -8.43006 
-50.6675 -0.906333 -8.41078 60.162 -0.906333 -8.43006 59.3694 6.50515 -8.43006 
59.3694 -0.906333 -5.91665 -47.1597 7.55804 -8.43006 -50.6675 7.55804 -5.83209 
59.2482 7.55804 -8.43006 -43.3224 16.0224 -8.43006 -50.6675 16.0224 -1.79002 
-42.2031 17.6923 -8.43006 55.4583 16.0224 -8.43006 50.905 21.9426 -8.43006 
-36.6645 24.4868 -8.43006 -42.2031 24.4868 -4.44456 -33.7387 27.5559 -8.43006 
48.2658 24.4868 -8.43006 42.4406 29.1545 -8.43006 -27.2201 32.9512 -8.43006 
-33.7387 32.9512 -4.50107 -25.2744 34.1227 -8.43006 -16.81 38.7104 -8.43006 
25.5119 40.3938 -8.43006 36.5487 32.9512 -8.43006 33.9762 34.5665 -8.43006 
-25.2744 41.4155 -0.658219 -12.2933 41.4155 -8.43006 -16.81 41.4155 -5.2093 
-8.34562 43.3868 -8.43006 0.118751 46.7581 -8.43006 8.58312 47.7584 -8.43006 
23.8461 41.4155 -8.43006 17.0475 45.4676 -8.43006 25.5119 41.4155 -1.58353 
8.58312 49.8799 -1.46066 -8.34562 -52.3942 0.0343138 -25.2744 -46.7056 0.0343138 
-12.0174 -51.6926 0.0343138 -16.81 -50.7272 0.0343138 -3.05248 -51.6926 0.0343138 
-8.34562 -51.6926 2.0606 0.118751 -51.2703 0.0343138 8.58312 -48.3388 0.0343138 
17.0475 -44.3044 0.0343138 -30.448 -43.2282 0.0343138 -33.7387 -40.836 0.0343138 
19.4938 -43.2282 0.0343138 17.0475 -43.2282 2.68623 25.5119 -40.3004 0.0343138 
33.9762 -35.3347 0.0343138 -40.7386 -34.7638 0.0343138 -42.2031 -33.2735 0.0343138 
34.9665 -34.7638 0.0343138 33.9762 -34.7638 0.827493 42.4406 -29.1656 0.0343138 
-48.4912 -26.2995 0.0343138 -50.6675 -22.7617 0.0343138 45.4544 -26.2995 0.0343138 
42.4406 -26.2995 2.62497 50.905 -19.5964 0.0343138 -53.5331 -17.8351 0.0343138 
52.0096 -17.8351 0.0343138 50.905 -17.8351 1.49093 -56.8223 -9.37071 0.0343138 
55.8655 -9.37071 0.0343138 50.905 -9.37071 5.29163 -58.456 -0.906333 0.0343138 
-59.1319 -0.906333 4.79701 56.9637 -0.906333 0.0343138 50.905 -0.906333 6.85768 
-56.4315 7.55804 0.0343138 55.6883 7.55804 0.0343138 50.905 7.55804 5.51187 
-52.3446 16.0224 0.0343138 -50.6675 19.2262 0.0343138 52.3971 16.0224 0.0343138 
50.905 18.0298 0.0343138 50.905 16.0224 1.95755 -47.3411 24.4868 0.0343138 
-50.6675 24.4868 6.97263 -42.2031 30.4276 0.0343138 44.2543 24.4868 0.0343138 
42.4406 26.1579 0.0343138 42.4406 24.4868 2.43033 -39.5951 32.9512 0.0343138 
-42.2031 32.9512 4.96224 -33.7387 37.0415 0.0343138 35.0876 32.9512 0.0343138 
33.9762 33.8448 0.0343138 33.9762 32.9512 2.46911 -26.2754 41.4155 0.0343138 
-25.2744 41.8763 0.0343138 -16.81 44.6172 0.0343138 -8.34562 47.4044 0.0343138 
0.118751 49.8384 0.0343138 17.0475 47.5097 0.0343138 25.8044 41.4155 0.0343138 
25.5119 41.7182 0.0343138 25.5119 41.4155 1.53592 0.839558 49.8799 0.0343138 
0.118751 49.8799 5.17343 10.0045 49.8799 0.0343138 8.58312 50.3003 0.0343138 
8.58312 49.8799 6.04386 -25.2744 -43.7941 8.49869 -16.81 -47.1668 8.49869 
-8.34562 -48.8303 8.49869 0.118751 -47.6494 8.49869 8.58312 -44.8773 8.49869 
-26.1809 -43.2282 8.49869 -33.7387 -38.3119 8.49869 -25.2744 -43.2282 9.20558 
-16.81 -43.2282 12.6386 -8.34562 -43.2282 13.9431 0.118751 -43.2282 13.3653 
11.9478 -43.2282 8.49869 8.58312 -43.2282 10.6162 17.0475 -40.3204 8.49869 
25.5119 -35.2654 8.49869 -38.0867 -34.7638 8.49869 -42.2031 -31.2069 8.49869 
-33.7387 -34.7638 12.1649 -25.2744 -34.7638 15.8197 17.0475 -34.7638 14.4779 
26.2028 -34.7638 8.49869 25.5119 -34.7638 9.02692 33.9762 -26.9467 8.49869 
-47.0803 -26.2995 8.49869 -50.6675 -22.0928 8.49869 -42.2031 -26.2995 13.4093 
25.5119 -26.2995 14.1636 34.6851 -26.2995 8.49869 33.9762 -26.2995 8.94862 
42.4406 -18.2254 8.49869 -53.7376 -17.8351 8.49869 -50.6675 -17.8351 13.5138 
25.5119 -17.8351 16.8781 33.9762 -17.8351 13.2957 42.8278 -17.8351 8.49869 
42.4406 -17.8351 8.72054 -57.913 -9.37071 8.49869 -59.1319 -3.22955 8.49869 
33.9762 -9.37071 16.1826 47.1628 -9.37071 8.49869 42.4406 -9.37071 11.8325 
-59.5432 -0.906333 8.49869 -59.1319 6.41422 8.49869 -59.1319 -0.906333 9.65925 
49.0831 -0.906333 8.49869 42.4406 -0.906333 13.3301 -59.0682 7.55804 8.49869 
47.8098 7.55804 8.49869 42.4406 7.55804 12.5532 -56.1902 16.0224 8.49869 
33.9762 16.0224 15.3749 44.2046 16.0224 8.49869 42.4406 18.4539 8.49869 
42.4406 16.0224 9.97773 -51.2315 24.4868 8.49869 -50.6675 25.1988 8.49869 
-50.6675 24.4868 11.1145 38.1107 24.4868 8.49869 33.9762 29.6824 8.49869 
33.9762 24.4868 12.3417 -43.5939 32.9512 8.49869 -42.2031 34.176 8.49869 
-42.2031 32.9512 13.9807 -33.7387 40.0387 8.49869 31.6365 32.9512 8.49869 
25.5119 39.9067 8.49869 25.5119 32.9512 15.6782 -30.6736 41.4155 8.49869 
-25.2744 43.7218 8.49869 -25.2744 41.4155 16.8948 -16.81 46.3953 8.49869 
-8.34562 48.3927 8.49869 8.58312 49.7011 8.49869 24.0801 41.4155 8.49869 
17.0475 46.7709 8.49869 17.0475 41.4155 16.5318 -0.0262478 49.8799 8.49869 
1.20642 49.8799 8.49869 0.118751 49.9055 8.49869 0.118751 49.8799 8.56456 
-16.81 -36.0191 16.9631 -8.34562 -38.1083 16.9631 0.118751 -37.9289 16.9631 
8.58312 -35.7934 16.9631 -33.7387 -27.2622 16.9631 -20.0615 -34.7638 16.9631 
-25.2744 -32.2769 16.9631 -16.81 -34.7638 17.6086 -8.34562 -34.7638 18.5597 
0.118751 -34.7638 18.6337 10.7534 -34.7638 16.9631 8.58312 -34.7638 17.5951 
17.0475 -29.8681 16.9631 -35.0157 -26.2995 16.9631 -42.2031 -20.3886 16.9631 
[...]
POINT_DATA 494
SCALARS ImageScalars float
LOOKUP_TABLE default
0 0 0 0 0 0 0 0 0 
0 0 0 0 0 0 0 0 0 
0 0 0 0 0 0 0 0 0 
0 0 0 0 0 0 0 0 0 
0 0 0 0 0 0 0 0 0 
0 0 0 0 0 0 0 0 0 
0 0 0 0 0 0 0 0 0 
0 0 0 0 0 0 0 0 0 
0 0 0 0 0 0 0 0 0 
0 0 0 0 0 0 0 0 0 
0 0 0 0 0 0 0 0 0 
0 0 0 0 0 0 0 0 0 
0 0 0 0 0 0 0 0 0 
0 0 0 0 0 0 0 0 0 
0 0 0 0 0 0 0 0 0 
0 0 0 0 0 0 0 0 0 
0 0 0 0 0 0 0 0 0 
0 0 0 0 0 0 0 0 0 
0 0 0 0 0 0 0 0 0 
0 0 0 0 0 0 0 0 0 
0 0 0 0 0 0 0 0 0 
0 0 0 0 0 0 0 0 0 
0 0 0 0 0 0 0 0 0 
0 0 0 0 0 0 0 0 0 
0 0 0 0 0 0 0 0 0 
0 0 0 0 0 0 0 0 0 
0 0 0 0 0 0 0 0 0 
0 0 0 0 0 0 0 0 0 
0 0 0 0 0 0 0 0 0 
0 0 0 0 0 0 0 0 0 
0 0 0 0 0 0 0 0 0 
0 0 0 0 0 0 0 0 0 
0 0 0 0 0 0 0 0 0 
0 0 0 0 0 0 0 0 0 
0 0 0 0 0 0 0 0 0 
0 0 0 0 0 0 0 0 0 
0 0 0 0 0 0 0 0 0 
0 0 0 0 0 0 0 0 0 
0 0 0 0 0 0 0 0 0 
0 0 0 0 0 0 0 0 0 
0 0 0 0 0 0 0 0 0 
0 0 0 0 0 0 0 0 0 
0 0 0 0 0 0 0 0 0 
0 0 0 0 0 0 0 0 0 
0 0 0 0 0 0 0 0 0 
0 0 0 0 0 0 0 0 0 
0 0 0 0 0 0 0 0 0 
0 0 0 0 0 0 0 0 0 
0 0 0 0 0 0 0 0 0 
0 0 0 0 0 0 0 0 0 
0 0 0 0 0 0 0 0 0 
0 0 0 0 0 0 0 0 0 
0 0 0 0 0 0 0 0 0 
0 0 0 0 0 0 0 0 0 
0 0 0 0 0 0 0 0 
NORMALS Normals float
0.220603 0.507112 0.83317 0.0416816 0.549559 0.834415 -0.175416 0.672859 0.718672 
0.275843 0.277269 0.920344 0.216027 0.222999 0.950581 0.11076 0.236656 0.96526 
-0.0495495 0.28068 0.958522 -0.155587 0.358869 0.920329 -0.238143 0.518398 0.821311 
0.217679 0.243548 0.945146 0.152664 0.152742 0.976403 0.189594 0.0680206 0.979504 
0.109834 0.0526204 0.992556 -0.0300337 0.0233575 0.999276 -0.0777754 0.0594257 0.995198 
-0.0487358 0.176636 0.983069 -0.125487 0.325333 0.937236 -0.416894 0.524997 0.742009 
0.318302 0.136676 0.938085 0.161083 0.1021 0.981646 0.0950255 0.135585 0.986198 
0.127488 0.0734392 0.989118 0.0677078 0.0104736 0.99765 -0.0440939 0.00765328 0.998998 
0.00332061 -0.00496562 0.999982 0.05264 0.0803508 0.995376 -0.0168989 0.166325 0.985926 
-0.187042 0.285803 0.939857 -0.594005 0.425129 0.682952 0.317166 -0.038231 0.947599 
0.217298 -0.0196128 0.975908 0.122894 0.0705902 0.989906 0.0610173 0.0407212 0.997306 
0.0493724 -0.0518421 0.997434 -0.0478877 0.15716 0.986411 -0.00422223 0.0770689 0.997017 
0.135755 0.0791833 0.987573 0.0955371 0.11693 0.988534 -0.160614 0.133617 0.977931 
-0.49456 0.187923 0.848584 0.322463 -0.174219 0.930411 0.271311 -0.163675 0.948473 
0.153813 -0.12976 0.979543 -0.00124001 -0.0515846 0.998668 0.192351 -0.0493235 0.980086 
0.0689753 -0.0375585 0.996911 -0.0714472 0.0454194 0.99641 0.0935903 0.0620794 0.993674 
0.0544855 0.0465453 0.997429 -0.117244 0.0132847 0.993014 -0.420781 0.0794459 0.903677 
0.244945 -0.208367 0.946882 0.238078 -0.267217 0.933763 0.146015 -0.149248 0.977959 
0.0603386 0.0272915 0.997805 0.0463782 -0.17087 0.984201 0.0969457 -0.0211303 0.995065 
0.140097 0.0269799 0.98977 0.0483271 0.0191115 0.998649 -0.130607 -0.00550388 0.991419 
-0.46904 -0.139382 0.872109 0.200191 -0.194316 0.960294 0.299336 -0.171406 0.938625 
0.157267 -0.0175876 0.9874 0.0416734 0.0157503 0.999007 0.122235 0.0120249 0.992428 
0.131878 -0.0510601 0.98995 0.02297 -0.164595 0.986094 -0.249497 -0.230751 0.940482 
-0.621034 -0.42112 0.661041 0.344948 -0.155012 0.925733 0.242372 -0.106917 0.964274 
0.0728544 -0.00304803 0.997338 0.0267623 -0.0905893 0.995529 -0.0425486 -0.229789 0.97231 
-0.165223 -0.449011 0.878117 -0.434351 -0.646885 0.626801 0.303393 -0.285441 0.909107 
0.0537225 -0.257819 0.964699 -0.115324 -0.348713 0.930107 -0.275434 -0.563149 0.779102 
0.0164816 -0.645834 0.7633 0.220419 0.512016 0.830214 0.0151956 0.63427 0.772962 
-0.1873 0.706324 0.682661 0.476744 0.700247 0.531383 0.223905 0.508425 0.831487 
0.288445 0.342616 0.894099 0.333038 0.592655 0.73338 -0.214408 0.711468 0.669211 
-0.261747 0.684032 0.680874 -0.338937 0.863707 0.373005 -0.302572 0.674407 0.673518 
0.520747 0.574571 0.631419 0.280752 0.318798 0.905288 0.255214 0.31357 0.914625 
0.312191 0.405017 0.859359 -0.360155 0.681474 0.637088 -0.358077 0.674899 0.645207 
-0.404053 0.762349 0.505535 -0.46999 0.637485 0.61051 0.633235 0.445269 0.633047 
0.30462 0.264255 0.915082 0.340608 0.190829 0.920636 0.387979 0.296338 0.872729 
-0.532314 0.592015 0.605112 -0.641081 0.514297 0.569661 0.364484 0.142534 0.920237 
0.560793 0.194024 0.804901 -0.681248 0.457545 0.571449 0.376646 -0.0329042 0.925773 
0.494707 -0.0121568 0.868975 -0.782387 0.254138 0.568581 0.326434 -0.174041 0.929059 
0.44995 -0.158526 0.878871 0.32259 -0.176596 0.929919 -0.865636 0.0389784 0.499154 
-0.979719 0.0167191 0.199679 0.449513 -0.222104 0.865221 0.260249 -0.20879 0.942697 
0.321986 -0.212466 0.922596 0.236623 -0.206616 0.949378 -0.852783 -0.221801 0.472826 
0.502337 -0.312764 0.806124 0.344473 -0.241077 0.907315 0.202304 -0.194933 0.959726 
0.2237 -0.209111 0.951962 0.210484 -0.196954 0.957552 -0.758445 -0.475933 0.445251 
-0.671649 -0.606428 0.425596 0.420862 -0.392693 0.81772 0.284709 -0.31107 0.90674 
0.294281 -0.193475 0.935931 0.265761 -0.224795 0.937464 0.378214 -0.313595 0.870984 
-0.38207 -0.750888 0.538692 -0.56972 -0.704538 0.423137 -0.500327 -0.746546 0.438568 
0.36214 -0.536212 0.76245 0.341787 -0.446016 0.827195 0.377392 -0.345412 0.859224 
0.386166 -0.352253 0.852522 0.317469 -0.555271 0.768692 -0.255914 -0.676539 0.690509 
-0.384108 -0.740984 0.550821 -0.365536 -0.689843 0.6249 -0.462654 -0.816334 0.345759 
0.391463 -0.672977 0.627582 0.144922 -0.650905 0.745198 0.308122 -0.653062 0.691789 
-0.131433 -0.693948 0.707928 0.0147156 -0.682312 0.730913 -0.289985 -0.736582 0.611029 
0.48446 0.739124 0.467969 0.348887 0.814486 0.463563 0.105987 0.920079 0.377122 
0.0689051 0.984947 0.158529 -0.150447 0.951616 0.267942 -0.311623 0.929536 0.197113 
-0.368578 0.919362 0.137562 0.503677 0.724165 0.471057 0.563011 0.654183 0.505038 
-0.36675 0.922393 0.121181 -0.373378 0.921626 0.105802 -0.449007 0.892271 0.0473861 
0.598027 0.613287 0.515988 0.664861 0.497892 0.556833 -0.531526 0.846842 0.0183997 
-0.581722 0.813386 0.00133122 0.68547 0.458901 0.565279 -0.739044 0.673245 -0.0235741 
-0.759694 0.649682 -0.0279005 0.699925 0.262351 0.664287 0.810081 0.336473 0.480161 
-0.881142 0.470936 -0.0425306 0.688246 0.102984 0.718131 0.712923 0.117574 0.691315 
-0.97461 0.219426 -0.0445884 -0.978983 0.198473 -0.0469027 0.593061 -0.0900567 0.800106 
0.593887 -0.0897633 0.799525 -0.997637 8.37e-06 -0.0687016 -0.971521 -0.220496 -0.0867706 
-0.98139 -0.00429985 -0.191977 0.536717 -0.246451 0.806967 0.625367 -0.270585 0.731915 
-0.963466 -0.252444 -0.089475 0.526722 -0.317182 0.788644 0.7018 -0.36881 0.609471 
0.511919 -0.336262 0.790485 -0.849069 -0.520386 -0.0909954 -0.729887 -0.677881 -0.0879923 
0.459987 -0.411756 0.786682 0.563092 -0.457604 0.688132 0.429256 -0.45857 0.778108 
-0.676097 -0.732552 -0.0791238 -0.595846 -0.802256 -0.0367769 0.3793 -0.546347 0.74675 
0.457856 -0.609311 0.647386 0.363323 -0.567786 0.738658 0.368855 -0.641891 0.672251 
-0.52789 -0.818773 0.225705 -0.545454 -0.836579 0.0511483 -0.544362 -0.834576 0.0845795 
0.35199 -0.829495 0.433637 0.376559 -0.703485 0.602754 0.347573 -0.765884 0.540939 
0.372902 -0.741506 0.557775 0.20971 -0.864399 0.456985 -0.0685003 -0.916767 0.393504 
-0.502765 -0.827273 0.250692 -0.370081 -0.868546 0.329647 -0.657123 -0.752663 0.0410894 
-0.11332 -0.981561 0.15394 0.0299244 0.995292 -0.09219 0.502554 0.864239 -0.0230296 
0.148296 0.985197 -0.0859905 0.302842 0.950841 -0.0647222 -0.128054 0.983813 -0.125353 
0.0284265 0.978922 -0.202246 -0.220252 0.96498 -0.142488 -0.381634 0.908277 -0.171429 
-0.416543 0.884069 -0.211928 0.570629 0.821203 -0.00282337 0.610433 0.791768 0.0218235 
-0.416245 0.879116 -0.232155 -0.425149 0.854365 -0.298847 -0.441211 0.846105 -0.299065 
-0.474319 0.774751 -0.418069 0.6905 0.721512 0.051281 0.709149 0.701709 0.068645 
-0.484718 0.764799 -0.424418 -0.479147 0.755813 -0.446279 -0.579866 0.640759 -0.503173 
0.801446 0.583442 0.131455 0.84505 0.499485 0.190801 -0.621291 0.58916 -0.516612 
-0.565305 0.565278 -0.600742 -0.730533 0.455326 -0.508921 0.879473 0.406566 0.247448 
-0.751818 0.419421 -0.508779 -0.724122 0.411418 -0.553519 0.908308 0.238903 0.343369 
-0.810857 0.224269 -0.540568 -0.680862 0.193085 -0.706502 0.925432 -0.0104801 0.378768 
0.99575 0.0324095 0.0862109 -0.856413 -0.00855164 -0.51622 -0.693826 0.0126324 -0.720032 
0.82493 -0.274291 0.494222 -0.816196 -0.234324 -0.528126 -0.706122 -0.200038 -0.679246 
0.741741 -0.3839 0.549946 0.721093 -0.432421 0.541329 -0.755068 -0.453053 -0.473936 
-0.723078 -0.509558 -0.466379 -0.723801 -0.438263 -0.532951 0.678307 -0.510314 0.528659 
0.797971 -0.587363 0.135084 0.616235 -0.612251 0.495381 -0.650214 -0.653815 -0.386973 
-0.645558 -0.669667 -0.367153 -0.652113 -0.620808 -0.43514 0.576361 -0.663747 0.476705 
0.654375 -0.725674 0.21258 0.485317 -0.740649 0.464658 -0.643129 -0.741466 -0.191349 
-0.648029 -0.74265 -0.168906 -0.671246 -0.70133 -0.239929 0.366577 -0.835722 0.408888 
0.351277 -0.843424 0.406497 0.303723 -0.883395 0.356884 0.290667 -0.924421 0.246899 
0.156771 -0.974418 0.161037 -0.405685 -0.911314 0.0701946 -0.683551 -0.729855 -0.00835903 
-0.680219 -0.733006 -0.00211755 -0.692342 -0.719439 -0.0554023 0.133445 -0.978603 0.156615 
0.108459 -0.992737 -0.0520501 -0.162652 -0.981492 0.101085 -0.119845 -0.987153 0.105668 
-0.152011 -0.979423 -0.132755 0.424854 0.762043 -0.488661 0.248246 0.791456 -0.558544 
0.0242723 0.806207 -0.591136 -0.195951 0.809728 -0.553122 -0.337088 0.797035 -0.501106 
0.441907 0.755057 -0.484362 0.529968 0.70673 -0.468685 0.420838 0.745443 -0.516924 
0.202515 0.651175 -0.731409 0.0356113 0.621634 -0.782498 -0.135721 0.661596 -0.737476 
-0.378331 0.778117 -0.501397 -0.319647 0.750703 -0.578162 -0.435875 0.736405 -0.517417 
-0.490097 0.635389 -0.596729 0.571421 0.695951 -0.434892 0.616693 0.679421 -0.397589 
0.456879 0.620538 -0.637334 0.263464 0.459668 -0.848111 -0.395487 0.548972 -0.736355 
-0.493639 0.624953 -0.604776 -0.492227 0.618725 -0.612284 -0.483461 0.487917 -0.726776 
0.67769 0.635429 -0.370089 0.751449 0.595179 -0.284757 0.514834 0.561732 -0.647614 
-0.457795 0.357523 -0.814003 -0.483324 0.479847 -0.732219 -0.480224 0.474374 -0.737804 
-0.474958 0.396407 -0.78567 0.823468 0.513129 -0.242074 0.662233 0.513081 -0.546073 
-0.361645 0.245328 -0.899459 -0.406198 0.347014 -0.845331 -0.480366 0.390572 -0.785304 
-0.472173 0.390402 -0.790341 0.930396 0.322597 -0.174051 0.982892 0.128995 -0.131466 
-0.371015 0.22079 -0.901998 -0.597024 0.194712 -0.778235 -0.514818 0.22745 -0.826577 
0.991257 0.0596842 -0.117677 0.987639 -0.150112 -0.0451122 0.98088 0.0693291 -0.181846 
-0.647818 0.0202917 -0.761525 -0.521641 0.0363576 -0.85239 0.982704 -0.182109 -0.0336102 
-0.638623 -0.18729 -0.74638 -0.543256 -0.157847 -0.824595 0.914125 -0.404459 0.0280781 
-0.458055 -0.214998 -0.862532 -0.621202 -0.367923 -0.691911 -0.625436 -0.417317 -0.6593 
-0.597161 -0.35112 -0.721189 0.80585 -0.589104 0.0596903 0.796803 -0.601248 0.0600411 
0.807199 -0.582209 -0.0972729 -0.664409 -0.4869 -0.567 -0.706473 -0.531788 -0.467009 
-0.636307 -0.369987 -0.676922 0.673024 -0.738121 0.0470773 0.649382 -0.758992 0.0472768 
0.645661 -0.715053 -0.267995 0.472821 -0.88065 0.029933 -0.715133 -0.575875 -0.396174 
-0.708499 -0.635521 -0.306825 -0.59158 -0.408992 -0.694809 0.419841 -0.907542 0.0100108 
0.344142 -0.93878 -0.0160988 0.298474 -0.807133 -0.509362 0.262593 -0.96402 -0.0413505 
0.207822 -0.972023 -0.109463 -0.163201 -0.959147 -0.231091 -0.680324 -0.6725 -0.29138 
-0.4372 -0.857475 -0.271279 -0.385575 -0.574485 -0.72201 0.0772144 -0.979667 -0.185175 
0.0448121 -0.980285 -0.19244 0.0749505 -0.9796 -0.186457 0.0746642 -0.979063 -0.18937 
0.150913 0.412816 -0.898225 0.0521218 0.439065 -0.896942 -0.075423 0.471062 -0.87887 
-0.201694 0.482368 -0.852432 0.294375 0.407685 -0.86437 0.187795 0.405713 -0.8945 
0.221899 0.389225 -0.894016 0.145881 0.381839 -0.912643 0.0538053 0.346111 -0.93665 
-0.0511148 0.390337 -0.919252 -0.240996 0.47053 -0.848836 -0.189929 0.454745 -0.870134 
-0.362114 0.371238 -0.855018 0.307067 0.407473 -0.860044 0.338999 0.40984 -0.846824 
0.278919 0.388896 -0.878046 0.153487 0.267378 -0.951289 0.104465 0.232722 -0.966916 
0.0580284 0.268579 -0.961508 -0.00814353 0.309513 -0.950861 -0.158198 0.302514 -0.939925 
-0.379272 0.295169 -0.876943 -0.342347 0.270834 -0.899693 0.397631 0.408791 -0.82145 
0.543242 0.353953 -0.761319 0.292422 0.362084 -0.88509 0.147704 0.245794 -0.958003 
0.0850124 0.15175 -0.984756 0.14699 0.127149 -0.980932 0.143036 0.261981 -0.954414 
-0.0137013 0.221191 -0.975134 -0.222128 0.20767 -0.952645 -0.360934 0.243578 -0.90022 
-0.341817 0.189604 -0.920441 -0.359491 0.242205 -0.901168 0.57969 0.305967 -0.755211 
0.513881 0.301135 -0.803271 0.179554 0.276791 -0.944006 0.0540544 0.182754 -0.981672 
0.0437981 0.103027 -0.993714 0.21508 0.0799961 -0.973315 -0.0589585 -0.103825 -0.992847 
-0.177457 0.0806399 -0.980819 -0.318263 0.146314 -0.936643 -0.352405 0.206494 -0.912782 
-0.308962 0.170916 -0.935591 -0.360366 0.117394 -0.925394 0.68846 0.140808 -0.711474 
0.477124 0.106413 -0.87237 0.140012 0.186847 -0.97236 -0.0355228 0.131696 -0.990654 
-0.0210632 0.123321 -0.992143 0.131807 0.0817025 -0.987903 -0.03982 -0.0670711 -0.996953 
-0.00890208 -0.0305688 -0.999493 0.0263902 0.0687487 -0.997285 -0.27089 0.0278955 -0.962206 
-0.292007 0.0279309 -0.956008 -0.373097 0.0425513 -0.926816 -0.35029 0.0413396 -0.935728 
0.730433 -0.0945108 -0.676414 0.525707 -0.0433063 -0.849563 0.197188 0.0262578 -0.980014 
-0.0219552 0.0865367 -0.996007 -0.0109596 0.145221 -0.989339 0.0268079 0.0754327 -0.99679 
0.0392769 -0.0362799 -0.99857 0.0769291 0.092873 -0.992702 -0.366078 -0.0637949 -0.928395 
-0.28754 -0.0443659 -0.956741 -0.355268 -0.109789 -0.928295 -0.355939 -0.111406 -0.927845 
-0.353891 -0.109472 -0.928858 0.754495 -0.300948 -0.583238 0.736003 -0.4221 -0.529274 
0.658438 -0.242011 -0.712664 0.26391 -0.175924 -0.948368 0.0777854 -0.0181245 -0.996805 
-0.0329423 0.0455967 -0.998417 -0.055217 0.0667324 -0.996242 -0.0217745 -0.0201124 -0.999561 
0.00263975 -0.0678977 -0.997689 -0.135837 -0.169183 -0.976179 -0.274367 -0.0529637 -0.960166 
-0.40461 -0.135357 -0.904417 -0.340199 -0.0467093 -0.939193 0.700875 -0.485862 -0.522218 
0.602861 -0.639826 -0.476636 0.425968 -0.350065 -0.83427 0.191302 -0.210926 -0.9586 
0.0706844 -0.118556 -0.990428 -0.0394657 -0.0408029 -0.998388 -0.0944215 -0.0183715 -0.995363 
-0.070502 -0.0865518 -0.99375 -0.11592 -0.108085 -0.98736 -0.23684 -0.0781366 -0.968402 
-0.486651 -0.20031 -0.850321 -0.525651 -0.306081 -0.793729 -0.42621 -0.153855 -0.891445 
0.583342 -0.66131 -0.471574 0.412798 -0.751485 -0.514653 0.319961 -0.516072 -0.794541 
0.297351 -0.804458 -0.514227 0.143932 -0.372216 -0.916918 0.0539867 -0.287901 -0.956137 
-0.062285 -0.189385 -0.979926 -0.0841823 -0.173364 -0.981254 -0.127744 -0.189756 -0.973486 
-0.523776 -0.355947 -0.773925 -0.374581 -0.541003 -0.752998 -0.312166 -0.244376 -0.918059 
0.296575 -0.804793 -0.514152 0.176981 -0.806704 -0.563832 0.142766 -0.677341 -0.721684 
0.0702062 -0.768854 -0.635558 0.0221899 -0.581606 -0.813168 -0.0184297 -0.697785 -0.71607 
-0.0552217 -0.491802 -0.868954 -0.350141 -0.557783 -0.752515 -0.17285 -0.626745 -0.759812 
-0.172005 -0.491376 -0.853794 0.150849 0.0777786 -0.985492 0.152208 0.0725088 -0.985685 
0.114528 0.041319 -0.99256 0.136384 0.0616057 -0.988739 0.150502 0.0719524 -0.985988 
-0.0837806 -0.00559358 -0.996469 -0.0733917 -2.95581e-05 -0.997303 -0.127092 -0.0258238 -0.991555 
-0.112919 -0.0427545 -0.992684 -0.108482 -0.0225927 -0.993842 
