# vtk DataFile Version 4.2
vtk output
ASCII
DATASET POLYDATA
POINTS 530 float
31.4522 -7.94467 -20.6287 31.4522 -1.01993 -20.6693 3.75328 19.7543 -20.675 
-10.0962 -28.7189 -14.5575 -3.17146 -28.7189 -16.1476 3.75328 -28.7189 -16.536 
10.678 -28.7189 -16.1561 17.6028 -28.7189 -16.0483 24.5275 -28.7189 -15.5063 
-23.9457 -21.7941 -15.5035 -17.0209 -21.7941 -16.1914 -10.0962 -21.7941 -17.1814 
-3.17146 -21.7941 -18.4858 3.75328 -21.7941 -19.0109 10.678 -21.7941 -18.866 
17.6028 -21.7941 -18.9968 24.5275 -21.7941 -19.1631 31.4522 -21.7941 -18.4986 
38.377 -21.7941 -15.8029 -37.7952 -14.8694 -15.3698 -30.8704 -14.8694 -17.5683 
-23.9457 -14.8694 -18.0713 -17.0209 -14.8694 -17.8029 -10.0962 -14.8694 -17.7901 
-3.17146 -14.8694 -18.9554 3.75328 -14.8694 -19.7372 10.678 -14.8694 -19.4718 
17.6028 -14.8694 -19.8427 24.5275 -14.8694 -20.1987 31.4522 -8.23127 -20.6025 
31.4522 -14.8694 -19.9888 38.377 -14.8694 -18.6594 45.3017 -14.8694 -14.9191 
-44.7199 -7.94467 -14.7037 -37.7952 -7.94467 -18.3136 -30.8704 -7.94467 -19.1078 
-23.9457 -7.94467 -19.1341 -17.0209 -7.94467 -18.4561 -10.0962 -7.94467 -17.7999 
-3.17146 -7.94467 -17.7766 3.75328 -7.94467 -19.0074 10.678 -7.94467 -19.3224 
17.6028 -7.94467 -19.7003 29.1673 -7.94467 -20.6025 24.5275 -7.94467 -20.5499 
31.6891 -7.94467 -20.6025 38.377 -7.94467 -19.8179 45.3017 -7.94467 -17.0167 
-44.7199 -1.01993 -16.2455 -37.7952 -1.01993 -19.284 -30.8704 -1.01993 -20.2296 
-23.9457 -1.01993 -19.936 -17.0209 -1.01993 -19.1119 -10.0962 -1.01993 -18.7136 
-3.17146 -1.01993 -16.7826 3.75328 -1.01993 -18.77 10.678 -1.01993 -19.7376 
17.6028 -1.01993 -19.1602 30.3897 -1.01993 -20.6025 24.5275 -1.01993 -20.2354 
32.2535 -1.01993 -20.6025 31.4522 1.10103 -20.6025 38.377 -1.01993 -20.0674 
45.3017 -1.01993 -17.5835 -44.7199 5.90481 -15.8312 -37.7952 5.90481 -19.1756 
-30.8704 5.90481 -20.2504 -23.9457 5.90481 -20.1527 -17.0209 5.90481 -19.4099 
-10.0962 5.90481 -19.2034 -3.17146 5.90481 -18.6013 3.75328 5.90481 -19.3777 
10.678 5.90481 -19.5942 17.6028 5.90481 -19.468 24.5275 5.90481 -20.1766 
31.4522 5.90481 -20.4509 38.377 5.90481 -19.7848 45.3017 5.90481 -17.2557 
-37.7952 12.8295 -17.6105 -30.8704 12.8295 -19.2714 -23.9457 12.8295 -19.4192 
-17.0209 12.8295 -19.04 -10.0962 12.8295 -18.8791 -3.17146 12.8295 -19.4387 
3.75328 19.272 -20.6025 3.75328 12.8295 -19.6345 10.678 12.8295 -19.5287 
17.6028 12.8295 -19.866 24.5275 12.8295 -20.2104 31.4522 12.8295 -19.9432 
38.377 12.8295 -18.8909 45.3017 12.8295 -15.3566 -37.7952 19.7543 -13.8542 
-30.8704 19.7543 -17.134 -23.9457 19.7543 -18.3017 -17.0209 19.7543 -18.607 
-10.0962 19.7543 -19.1652 2.77755 19.7543 -20.6025 -3.17146 19.7543 -20.1585 
4.80761 19.7543 -20.6025 3.75328 20.365 -20.6025 10.678 19.7543 -20.2005 
17.6028 19.7543 -20.1993 24.5275 19.7543 -20.1249 31.4522 19.7543 -19.4925 
38.377 19.7543 -16.8615 -23.9457 26.679 -15.3202 -17.0209 26.679 -16.6513 
-10.0962 26.679 -18.076 -3.17146 26.679 -19.3907 3.75328 26.679 -19.8323 
10.678 26.679 -20.2741 17.6028 26.679 -19.3696 24.5275 26.679 -18.6963 
31.4522 26.679 -16.3583 -3.17146 33.6038 -14.0392 3.75328 33.6038 -14.943 
10.678 33.6038 -15.3166 17.6028 33.6038 -14.8592 -10.0962 -29.8068 -13.6778 
-3.17146 -31.6921 -13.6778 3.75328 -32.1073 -13.6778 10.678 -31.6366 -13.6778 
17.6028 -31.2345 -13.6778 24.5275 -30.5082 -13.6778 -23.9457 -24.3704 -13.6778 
-23.9457 -28.7189 -8.74075 -13.7089 -28.7189 -13.6778 -17.0209 -27.1321 -13.6778 
-17.0209 -28.7189 -12.472 30.9303 -28.7189 -13.6778 31.4522 -28.533 -13.6778 
31.4522 -28.7189 -13.305 38.377 -24.0059 -13.6778 -37.7952 -17.3758 -13.6778 
-37.7952 -21.7941 -8.10407 -30.8057 -21.7941 -13.6778 -30.8704 -21.7641 -13.6778 
-30.8704 -21.7941 -13.6532 40.8399 -21.7941 -13.6778 45.3017 -16.5641 -13.6778 
-40.5052 -14.8694 -13.6778 -44.7199 -9.72788 -13.6778 -44.7199 -14.8694 -8.81085 
46.5119 -14.8694 -13.6778 -45.7947 -7.94467 -13.6778 48.9657 -7.94467 -13.6778 
52.2264 -7.94467 -7.07987 -47.6841 -1.01993 -13.6778 -51.6446 -1.01993 -7.17243 
49.9043 -1.01993 -13.6778 52.2264 -1.01993 -9.69382 -46.9776 5.90481 -13.6778 
-44.7199 11.6989 -13.6778 49.5411 5.90481 -13.6778 52.2264 5.90481 -8.9095 
-44.1552 12.8295 -13.6778 -44.7199 12.8295 -12.9581 47.1242 12.8295 -13.6778 
45.3017 15.9241 -13.6778 -38.0501 19.7543 -13.6778 -37.7952 19.9627 -13.6778 
-30.8704 24.7932 -13.6778 42.3645 19.7543 -13.6778 38.377 24.2403 -13.6778 
45.3017 19.7543 -9.00685 -27.7501 26.679 -13.6778 -30.8704 26.679 -11.1656 
-23.9457 28.5691 -13.6778 -17.0209 30.6917 -13.6778 -10.0962 32.6314 -13.6778 
24.5275 32.8709 -13.6778 35.8944 26.679 -13.6778 31.4522 29.7366 -13.6778 
38.377 26.679 -9.71704 -17.0209 33.6038 -7.3875 -5.02108 33.6038 -13.6778 
-10.0962 33.6038 -10.9096 -3.17146 33.8591 -13.6778 3.75328 34.5082 -13.6778 
10.678 34.8327 -13.6778 21.9926 33.6038 -13.6778 17.6028 34.5146 -13.6778 
24.5275 33.6038 -11.4698 -23.9457 -29.9043 -6.75302 -17.0209 -32.2621 -6.75302 
-10.0962 -34.1321 -6.75302 -3.17146 -35.2509 -6.75302 3.75328 -35.4864 -6.75302 
10.678 -35.1972 -6.75302 17.6028 -34.7601 -6.75302 24.5275 -33.4208 -6.75302 
31.4522 -31.0717 -6.75302 -37.7952 -22.6146 -6.75302 -26.7506 -28.7189 -6.75302 
-30.8704 -26.8225 -6.75302 35.8684 -28.7189 -6.75302 38.377 -27.1594 -6.75302 
-38.8562 -21.7941 -6.75302 -44.7199 -16.3778 -6.75302 44.4903 -21.7941 -6.75302 
45.3017 -20.8517 -6.75302 -45.9309 -14.8694 -6.75302 49.6417 -14.8694 -6.75302 
52.2264 -8.31225 -6.75302 -50.2211 -7.94467 -6.75302 -51.6446 -1.81612 -6.75302 
52.3544 -7.94467 -6.75302 52.2264 -7.94467 -3.19389 -51.8296 -1.01993 -6.75302 
-51.6446 0.584291 -6.75302 53.4829 -1.01993 -6.75302 -51.0409 5.90481 -6.75302 
53.1331 5.90481 -6.75302 52.2264 8.51531 -6.75302 -48.1144 12.8295 -6.75302 
-44.7199 17.979 -6.75302 50.7367 12.8295 -6.75302 -43.2028 19.7543 -6.75302 
-37.7952 24.5833 -6.75302 46.3387 19.7543 -6.75302 45.3017 21.0703 -6.75302 
-34.8272 26.679 -6.75302 -30.8704 29.0298 -6.75302 -23.9457 32.1095 -6.75302 
31.4522 32.2131 -6.75302 39.843 26.679 -6.75302 38.377 27.9601 -6.75302 
-17.8923 33.6038 -6.75302 -17.0209 33.8064 -6.75302 -17.0209 33.6038 -3.50112 
-10.0962 34.5562 -6.75302 -3.17146 34.9604 -6.75302 3.75328 35.5376 -6.75302 
10.678 36.2036 -6.75302 17.6028 36.1165 -6.75302 27.6881 33.6038 -6.75302 
24.5275 34.6742 -6.75302 -23.9457 -31.2672 0.171717 -17.0209 -33.0769 0.171717 
-10.0962 -34.3545 0.171717 -3.17146 -35.1426 0.171717 3.75328 -35.5048 0.171717 
10.678 -35.4368 0.171717 17.6028 -35.0197 0.171717 24.5275 -33.5115 0.171717 
31.4522 -30.9106 0.171717 -37.7952 -24.2463 0.171717 -30.306 -28.7189 0.171717 
-30.8704 -28.4741 0.171717 35.5835 -28.7189 0.171717 31.4522 -28.7189 6.9403 
38.377 -26.9191 0.171717 -40.7386 -21.7941 0.171717 -44.7199 -17.7766 0.171717 
43.7798 -21.7941 0.171717 45.3017 -20.0298 0.171717 -47.0119 -14.8694 0.171717 
49.2107 -14.8694 0.171717 -50.7976 -7.94467 0.171717 -51.6446 -4.234 0.171717 
52.0988 -7.94467 0.171717 52.2264 -7.16773 0.171717 -52.4118 -1.01993 0.171717 
-51.6446 4.66484 0.171717 -51.6446 -1.01993 5.14291 53.1304 -1.01993 0.171717 
52.2264 -1.01993 2.27817 -51.4861 5.90481 0.171717 52.8565 5.90481 0.171717 
52.2264 7.813 0.171717 52.2264 5.90481 1.61271 -48.9868 12.8295 0.171717 
-44.7199 19.5648 0.171717 50.4421 12.8295 0.171717 -44.566 19.7543 0.171717 
-37.7952 26.0951 0.171717 45.8051 19.7543 0.171717 45.3017 20.3615 0.171717 
45.3017 19.7543 1.155 -36.8871 26.679 0.171717 -30.8704 29.8236 0.171717 
-23.9457 32.2182 0.171717 -17.0209 33.368 0.171717 31.4522 31.3802 0.171717 
38.8212 26.679 0.171717 38.377 27.0655 0.171717 38.377 26.679 0.876137 
-10.5748 33.6038 0.171717 -10.0962 33.6208 0.171717 -10.0962 33.6038 0.209289 
-3.17146 33.8606 0.171717 -3.17146 33.6038 0.762345 3.75328 34.5434 0.171717 
3.75328 33.6038 2.47513 10.678 35.1275 0.171717 10.678 33.6038 3.86383 
17.6028 35.0717 0.171717 17.6028 33.6038 3.64242 25.4462 33.6038 0.171717 
24.5275 33.8998 0.171717 24.5275 33.6038 0.922356 -23.9457 -30.8275 7.09646 
-17.0209 -32.2477 7.09646 -10.0962 -32.9766 7.09646 -3.17146 -33.5906 7.09646 
3.75328 -33.8985 7.09646 10.678 -33.7216 7.09646 17.6028 -33.0551 7.09646 
24.5275 -31.5484 7.09646 -37.7952 -23.9481 7.09646 -29.7799 -28.7189 7.09646 
-30.8704 -28.2904 7.09646 -23.9457 -28.7189 13.4142 17.6028 -28.7189 13.3163 
31.3333 -28.7189 7.09646 24.5275 -28.7189 11.3057 31.4522 -28.6581 7.09646 
38.377 -23.7547 7.09646 -40.2758 -21.7941 7.09646 -44.7199 -16.8621 7.09646 
40.4379 -21.7941 7.09646 38.377 -21.7941 9.72011 45.3017 -15.7798 7.09646 
-46.1664 -14.8694 7.09646 -44.7199 -14.8694 10.8884 45.9596 -14.8694 7.09646 
45.3017 -14.8694 7.95185 -49.7092 -7.94467 7.09646 48.6186 -7.94467 7.09646 
45.3017 -7.94467 10.9373 -51.3464 -1.01993 7.09646 49.7496 -1.01993 7.09646 
45.3017 -1.01993 11.8159 -50.5238 5.90481 7.09646 49.3597 5.90481 7.09646 
45.3017 5.90481 11.2683 -48.2273 12.8295 7.09646 -44.7199 18.7387 7.09646 
38.377 12.8295 13.7064 46.7477 12.8295 7.09646 45.3017 15.0013 7.09646 
45.3017 12.8295 8.59315 -43.937 19.7543 7.09646 -37.7952 25.2411 7.09646 
-10.0962 19.7543 13.5292 -3.17146 19.7543 11.975 31.4522 19.7543 13.9619 
41.7293 19.7543 7.09646 38.377 23.0352 7.09646 38.377 19.7543 10.1658 
-35.3124 26.679 7.09646 -30.8704 28.8169 7.09646 -30.8704 26.679 11.7399 
-23.9457 30.2925 7.09646 -23.9457 26.679 12.8374 -17.0209 30.149 7.09646 
-17.0209 26.679 11.549 -10.0962 29.5947 7.09646 -10.0962 26.679 9.81791 
-3.17146 29.8489 7.09646 -3.17146 26.679 9.93952 3.75328 31.2063 7.09646 
3.75328 26.679 11.2527 10.678 31.9956 7.09646 10.678 26.679 12.4246 
17.6028 31.8044 7.09646 17.6028 26.679 12.7699 24.5275 30.5948 7.09646 
24.5275 26.679 11.3658 33.4926 26.679 7.09646 31.4522 27.9368 7.09646 
31.4522 26.679 8.63311 -17.0209 -29.3303 14.0212 -10.0962 -29.419 14.0212 
-3.17146 -29.6734 14.0212 3.75328 -29.5488 14.0212 10.678 -28.764 14.0212 
-37.7952 -21.9111 14.0212 -30.8704 -26.293 14.0212 -22.0971 -28.7189 14.0212 
-23.9457 -28.4877 14.0212 -17.0209 -28.7189 14.7793 -10.0962 -28.7189 14.7585 
[...]
POINT_DATA 530
SCALARS ImageScalars float
LOOKUP_TABLE default
0 0 0 0 0 0 0 0 0 
0 0 0 0 0 0 0 0 0 
0 0 0 0 0 0 0 0 0 
0 0 0 0 0 0 0 0 0 
0 0 0 0 0 0 0 0 0 
0 0 0 0 0 0 0 0 0 
0 0 0 0 0 0 0 0 0 
0 0 0 0 0 0 0 0 0 
0 0 0 0 0 0 0 0 0 
0 0 0 0 0 0 0 0 0 
0 0 0 0 0 0 0 0 0 
0 0 0 0 0 0 0 0 0 
0 0 0 0 0 0 0 0 0 
0 0 0 0 0 0 0 0 0 
0 0 0 0 0 0 0 0 0 
0 0 0 0 0 0 0 0 0 
0 0 0 0 0 0 0 0 0 
0 0 0 0 0 0 0 0 0 
0 0 0 0 0 0 0 0 0 
0 0 0 0 0 0 0 0 0 
0 0 0 0 0 0 0 0 0 
0 0 0 0 0 0 0 0 0 
0 0 0 0 0 0 0 0 0 
0 0 0 0 0 0 0 0 0 
0 0 0 0 0 0 0 0 0 
0 0 0 0 0 0 0 0 0 
0 0 0 0 0 0 0 0 0 
0 0 0 0 0 0 0 0 0 
0 0 0 0 0 0 0 0 0 
0 0 0 0 0 0 0 0 0 
0 0 0 0 0 0 0 0 0 
0 0 0 0 0 0 0 0 0 
0 0 0 0 0 0 0 0 0 
0 0 0 0 0 0 0 0 0 
0 0 0 0 0 0 0 0 0 
0 0 0 0 0 0 0 0 0 
0 0 0 0 0 0 0 0 0 
0 0 0 0 0 0 0 0 0 
0 0 0 0 0 0 0 0 0 
0 0 0 0 0 0 0 0 0 
0 0 0 0 0 0 0 0 0 
0 0 0 0 0 0 0 0 0 
0 0 0 0 0 0 0 0 0 
0 0 0 0 0 0 0 0 0 
0 0 0 0 0 0 0 0 0 
0 0 0 0 0 0 0 0 0 
0 0 0 0 0 0 0 0 0 
0 0 0 0 0 0 0 0 0 
0 0 0 0 0 0 0 0 0 
0 0 0 0 0 0 0 0 0 
0 0 0 0 0 0 0 0 0 
0 0 0 0 0 0 0 0 0 
0 0 0 0 0 0 0 0 0 
0 0 0 0 0 0 0 0 0 
0 0 0 0 0 0 0 0 0 
0 0 0 0 0 0 0 0 0 
0 0 0 0 0 0 0 0 0 
0 0 0 0 0 0 0 0 0 
0 0 0 0 0 0 0 0 
NORMALS Normals float
-0.0492476 0.0484454 0.997611 -0.010012 -0.0128302 0.999868 0.00253658 0.0160806 0.999867 
0.214416 0.55301 0.805112 0.130015 0.516238 0.846519 0.000860924 0.528748 0.848778 
-0.0317012 0.555846 0.83068 -0.0416557 0.591814 0.804997 -0.136312 0.676662 0.723566 
0.159163 0.467969 0.869294 0.115384 0.322297 0.93958 0.156706 0.207099 0.965688 
0.132677 0.182962 0.974126 0.0259464 0.206535 0.978095 -0.00106736 0.214138 0.976803 
0.0210781 0.224063 0.974347 -0.031955 0.289996 0.956494 -0.199895 0.37927 0.903436 
-0.49928 0.548402 0.670802 0.394358 0.484646 0.780769 0.175171 0.345902 0.921774 
0.0125745 0.237957 0.971194 -0.0195399 0.156368 0.987505 0.0824593 0.0445155 0.9956 
0.141247 -0.0488431 0.988769 0.0370312 0.000820991 0.999314 0.00760221 0.0318981 0.999462 
0.0542267 0.0521686 0.997165 0.0106203 0.0994354 0.994987 -0.0516116 0.0523191 0.997296 
-0.105458 0.144414 0.983882 -0.300982 0.235765 0.924026 -0.657294 0.404658 0.63578 
0.612335 0.307333 0.728417 0.26095 0.252795 0.931665 0.0575318 0.176894 0.982547 
-0.0467352 0.130653 0.990326 -0.0959262 0.0932652 0.991009 -0.0486204 0.0646195 0.996725 
0.0869223 -0.155443 0.984013 0.109555 -0.0682515 0.991635 0.0482088 0.0188389 0.99866 
0.0900123 -0.0498701 0.994691 -0.0116153 0.0332179 0.999381 0.0644575 0.002406 0.997918 
-0.0549218 0.0501595 0.99723 -0.22729 0.0992192 0.96876 -0.547284 0.151369 0.823145 
0.560776 0.0664943 0.825293 0.2475 0.0633669 0.966813 0.0421365 0.0813841 0.995792 
-0.0797017 0.0729414 0.994146 -0.087277 0.0685717 0.993821 -0.160039 0.102113 0.981815 
-0.0121345 0.0645275 0.997842 0.224164 0.0286445 0.97413 0.0190175 0.0205253 0.999608 
0.0367588 -0.0161609 0.999193 0.00808841 -0.0149876 0.999855 0.108217 -0.0268277 0.993765 
-0.0307569 -0.011649 0.999459 -0.0145929 -0.0246806 0.999589 -0.197611 -0.00232263 0.980278 
-0.500153 0.0140273 0.865823 0.599545 -0.16831 0.782444 0.273412 -0.11668 0.954794 
0.064858 -0.0713322 0.995342 -0.060444 -0.0369298 0.997488 -0.0688527 -0.00535227 0.997612 
-0.0574757 0.0108663 0.998288 0.0109924 0.18293 0.983065 0.0715101 0.0576031 0.995775 
0.00650615 -0.0152968 0.999862 0.0431017 0.0516982 0.997732 0.0689709 -0.00179477 0.997617 
-0.0251528 -0.0517462 0.998343 -0.202651 -0.087274 0.975354 -0.504977 -0.140858 0.851562 
0.360056 -0.300579 0.883183 0.119797 -0.200942 0.972251 -0.0165034 -0.134729 0.990745 
-0.0390772 -0.059999 0.997433 0.0285232 -0.0018987 0.999591 0.0544482 0.110719 0.992359 
0.0029995 0.0210609 0.999774 0.00641284 0.0927693 0.995667 0.016734 0.044001 0.998891 
0.0491163 0.0515595 0.997461 0.00598013 -0.00352395 0.999976 -0.0960935 -0.0657019 0.993202 
-0.289051 -0.16981 0.942133 -0.615735 -0.323804 0.718347 0.485425 -0.591776 0.643555 
0.265971 -0.422116 0.866647 0.0962439 -0.259079 0.961049 0.0628989 -0.156254 0.985712 
0.111104 -0.047512 0.992672 0.0184356 0.0136699 0.999737 0.113888 -0.00104604 0.993493 
-0.00286016 0.022056 0.999753 0.00808236 -0.00930123 0.999924 -0.0341519 0.0529442 0.998013 
-0.00532134 -0.0345339 0.999389 -0.0464373 -0.0929191 0.99459 -0.200646 -0.244456 0.948674 
-0.471255 -0.410187 0.780811 0.262484 -0.59322 0.761047 0.178557 -0.456978 0.871372 
0.19774 -0.356243 0.91323 0.120091 -0.316209 0.941058 0.0597046 -0.295451 0.95349 
-0.0331605 -0.232111 0.972124 -0.100092 -0.301518 0.948192 -0.197876 -0.400253 0.894786 
-0.378162 -0.546457 0.747247 0.113366 -0.884336 0.452878 0.0654745 -0.856416 0.512119 
-0.00685993 -0.814887 0.579579 -0.123792 -0.810904 0.571935 0.218881 0.615705 0.756967 
0.126246 0.703185 0.699709 -0.00339612 0.737041 0.675839 -0.0492704 0.722605 0.689503 
-0.0705536 0.749326 0.658432 -0.163751 0.776524 0.608438 0.222552 0.588761 0.777066 
0.33639 0.832275 0.440636 0.237348 0.597218 0.766157 0.231332 0.559305 0.796029 
0.2691 0.673725 0.688244 -0.336419 0.775791 0.533826 -0.350595 0.771995 0.530196 
-0.356513 0.787458 0.5028 -0.537275 0.644774 0.543693 0.433092 0.565636 0.701775 
0.542999 0.742427 0.392371 0.309149 0.599821 0.737998 0.309973 0.599829 0.737646 
0.311021 0.601427 0.735902 -0.589018 0.596244 0.545483 -0.68453 0.462205 0.563725 
0.494528 0.519597 0.696751 0.636 0.364456 0.680202 0.704281 0.589338 0.395814 
-0.71401 0.41253 0.565694 0.668102 0.311723 0.675625 -0.748352 0.194015 0.634292 
-0.950957 0.246527 0.186831 0.704067 0.0679252 0.706877 0.959441 0.057217 0.276043 
-0.749812 0.033607 0.660797 -0.93255 0.0487126 0.357739 0.710317 -0.185175 0.679088 
0.680972 -0.344802 0.646056 -0.733294 -0.166643 0.659174 -0.931312 -0.193484 0.308582 
0.665472 -0.3758 0.64492 0.703519 -0.39143 0.593164 -0.700915 -0.339274 0.627384 
-0.66538 -0.411828 0.62263 0.493888 -0.595587 0.633523 0.489238 -0.598981 0.633931 
0.394238 -0.651167 0.648504 -0.611037 -0.506982 0.60795 -0.566352 -0.585384 0.580147 
-0.75633 -0.589743 0.28314 0.358577 -0.674044 0.645823 0.438201 -0.762344 0.476248 
0.29988 -0.689509 0.659279 0.218094 -0.718803 0.660119 0.185947 -0.820676 0.540292 
-0.284604 -0.807789 0.516214 -0.527518 -0.626774 0.57348 -0.41697 -0.714116 0.562293 
-0.624869 -0.723415 0.293614 0.173554 -0.971611 0.160781 0.129753 -0.885162 0.446826 
0.140805 -0.941285 0.306849 0.112556 -0.897228 0.426982 0.0683414 -0.905931 0.417873 
-0.0001282 -0.887291 0.46121 -0.224009 -0.838048 0.497489 -0.120869 -0.863097 0.490362 
-0.288373 -0.893201 0.345012 0.339261 0.874835 0.345783 0.286113 0.909232 0.302385 
0.209353 0.948364 0.238281 0.0944254 0.979235 0.179396 -0.00372153 0.983541 0.180648 
-0.0516194 0.977033 0.206739 -0.126642 0.971479 0.200476 -0.242549 0.953781 0.177405 
-0.391245 0.909021 0.143553 0.553009 0.765853 0.328101 0.37774 0.858176 0.347629 
0.435964 0.826662 0.355761 -0.517039 0.843618 0.144843 -0.590124 0.793726 0.14749 
0.573366 0.751866 0.325499 0.716811 0.631939 0.294678 -0.733898 0.667196 0.127449 
-0.756848 0.64083 0.128524 0.751317 0.593737 0.288095 -0.865016 0.480302 0.145116 
-0.951101 0.259388 0.167703 0.894241 0.352898 0.275312 0.96279 0.0907615 0.254554 
-0.954082 0.24775 0.16837 -0.967158 0.251862 -0.0342236 0.965845 0.0562089 0.252951 
0.967504 -0.0106964 0.252629 -0.98344 0.0528207 0.173366 0.940326 -0.229594 0.251144 
-0.965179 -0.193332 0.176215 -0.944413 -0.276023 0.178595 0.840138 -0.472299 0.26665 
0.750266 -0.61118 0.252112 -0.893581 -0.411075 0.180362 0.700858 -0.665699 0.256209 
0.59204 -0.755283 0.281134 -0.783045 -0.604013 0.148355 -0.764705 -0.628365 0.142773 
0.530307 -0.802814 0.272512 0.453088 -0.853354 0.257873 0.315479 -0.928122 0.197642 
-0.415027 -0.905884 0.0844223 -0.648128 -0.753096 0.113036 -0.615144 -0.780518 0.11131 
0.18307 -0.974363 0.130772 0.165707 -0.978399 0.123597 0.136841 -0.9899 -0.0370498 
0.0819585 -0.995809 0.0405775 0.0708571 -0.997472 -0.00540309 0.0892317 -0.996004 -0.0036516 
0.0412404 -0.999088 0.0110411 -0.101466 -0.994408 0.0292951 -0.327749 -0.942648 0.0632116 
-0.264881 -0.963004 0.0496064 0.309233 0.949226 0.0578339 0.217423 0.976069 -0.00408129 
0.148027 0.985642 -0.0812227 0.0828078 0.989872 -0.11531 0.0211804 0.993831 -0.108862 
-0.0339617 0.994562 -0.0984511 -0.13556 0.984831 -0.108312 -0.268259 0.955691 -0.121211 
-0.411218 0.899075 -0.150216 0.592149 0.802522 0.0729258 0.430644 0.898571 0.0843633 
0.442211 0.89271 0.0867022 -0.527314 0.832547 -0.169725 -0.446311 0.803338 -0.394278 
-0.605687 0.77403 -0.184445 0.653527 0.754681 0.0579649 0.755287 0.654938 0.0244473 
-0.722176 0.66166 -0.201665 -0.757836 0.618487 -0.207745 0.816784 0.576835 0.0112118 
-0.849241 0.485083 -0.208528 0.938986 0.342092 -0.0357578 0.981639 0.187338 -0.0358941 
-0.942161 0.247147 -0.226386 -0.947807 0.223951 -0.226955 0.998112 0.0501115 -0.0355066 
0.983935 -0.174687 -0.0368164 0.979159 0.0546646 -0.1956 -0.971572 0.0523251 -0.230889 
-0.944877 0.0507466 -0.323469 0.974232 -0.222508 -0.0368975 -0.95631 -0.18209 -0.228725 
-0.94405 -0.244917 -0.220875 -0.940033 -0.177887 -0.291024 0.886613 -0.462475 0.00588489 
0.760777 -0.648189 0.0326975 -0.884137 -0.414226 -0.216147 0.755379 -0.654434 0.0334436 
0.591034 -0.805967 0.0331153 -0.760898 -0.608467 -0.225394 -0.751268 -0.620884 -0.22383 
-0.75197 -0.601512 -0.269674 0.564146 -0.825229 0.0271277 0.405206 -0.914094 -0.0155035 
0.23688 -0.963861 -0.121901 0.0973943 -0.969406 -0.225313 -0.400173 -0.878531 -0.260854 
-0.603179 -0.758312 -0.247262 -0.593242 -0.76498 -0.250738 -0.59007 -0.757694 -0.278777 
0.0387784 -0.957483 -0.285873 0.0344026 -0.956314 -0.290311 0.0342986 -0.955804 -0.291996 
0.0655699 -0.954893 -0.289621 0.0680033 -0.946391 -0.315785 0.0886881 -0.960541 -0.26362 
0.0940514 -0.928234 -0.359912 0.0374966 -0.962391 -0.269068 0.0339769 -0.912444 -0.407788 
-0.0843696 -0.957512 -0.275775 -0.0818641 -0.909715 -0.407083 -0.257802 -0.934565 -0.245205 
-0.238864 -0.940127 -0.243116 -0.240171 -0.932044 -0.271316 0.259394 0.949096 -0.178692 
0.146698 0.960067 -0.238223 0.0934503 0.947825 -0.304787 0.0638238 0.940941 -0.332501 
0.00940824 0.935779 -0.352462 -0.0563718 0.922786 -0.381167 -0.146482 0.903216 -0.403415 
-0.274556 0.868838 -0.411993 0.609537 0.782408 -0.12768 0.399251 0.906937 -0.134402 
0.427953 0.894838 -0.126967 0.184276 0.874648 -0.448367 -0.131166 0.657632 -0.741833 
-0.443444 0.801782 -0.400628 -0.253144 0.738148 -0.625345 -0.446404 0.800061 -0.400781 
-0.600683 0.668449 -0.438585 0.666413 0.732748 -0.137747 0.785166 0.589494 -0.189768 
-0.647804 0.621337 -0.440784 -0.593202 0.597494 -0.539549 -0.738067 0.464439 -0.489442 
0.818549 0.536385 -0.205593 0.791988 0.510197 -0.335342 -0.749603 0.440766 -0.493782 
-0.730721 0.434956 -0.526176 0.915354 0.318467 -0.246386 -0.808322 0.219717 -0.546205 
-0.685072 0.180917 -0.705653 0.964218 0.0560887 -0.259109 -0.819077 0.0445515 -0.571951 
-0.63043 0.0142651 -0.776115 0.951444 -0.195629 -0.237661 -0.801832 -0.168602 -0.57327 
-0.618757 -0.17311 -0.766272 0.884411 -0.422432 -0.198414 0.776557 -0.604488 -0.177634 
-0.441526 -0.29866 -0.846083 -0.715953 -0.389406 -0.579461 -0.691199 -0.435323 -0.576835 
-0.665621 -0.382013 -0.641104 0.746484 -0.64231 -0.17378 0.565739 -0.803563 -0.185003 
-0.299146 -0.44278 -0.845256 0.0479606 -0.262546 -0.963727 -0.317835 -0.411601 -0.854146 
-0.625769 -0.543797 -0.559194 -0.539427 -0.633592 -0.554598 -0.520921 -0.515936 -0.680038 
0.468798 -0.856555 -0.215737 0.31495 -0.912459 -0.261201 0.218736 -0.86266 -0.45604 
0.0861821 -0.914506 -0.395286 -0.0287913 -0.812141 -0.582751 -0.0420855 -0.83078 -0.555007 
-0.162302 -0.716213 -0.678747 -0.0206039 -0.744638 -0.667151 -0.0756665 -0.617169 -0.783184 
0.0987142 -0.708052 -0.699226 0.094891 -0.509152 -0.855429 0.121762 -0.782937 -0.610068 
0.149699 -0.544343 -0.825397 0.033731 -0.827722 -0.560124 0.0928041 -0.569867 -0.81648 
-0.081464 -0.82974 -0.552173 -0.0543167 -0.595546 -0.801483 -0.229181 -0.803388 -0.549585 
-0.209502 -0.646787 -0.733332 -0.433877 -0.724013 -0.536242 -0.393159 -0.748223 -0.534404 
-0.387323 -0.704963 -0.594145 0.060185 0.821642 -0.566818 0.0209261 0.75286 -0.657848 
0.00871921 0.70338 -0.710761 -0.0501134 0.642229 -0.764873 -0.0816946 0.625864 -0.775642 
0.593748 0.681381 -0.427999 0.379647 0.81179 -0.443695 0.144201 0.853033 -0.501538 
0.174216 0.859891 -0.47983 0.0485431 0.796229 -0.603045 0.00939691 0.718782 -0.695172 
-0.00295315 0.647559 -0.76201 -0.0528571 0.595076 -0.801929 -0.0849111 0.624979 -0.77601 
-0.0816624 0.623344 -0.777672 -0.121316 0.600922 -0.790047 -0.209016 0.581256 -0.786418 
-0.344166 0.523115 -0.779679 0.597117 0.678214 -0.428343 0.593149 0.677181 -0.435431 
0.317482 0.595142 -0.738249 0.0237807 0.493512 -0.869414 -0.0914937 0.448395 -0.889141 
-0.128389 0.387855 -0.912735 -0.0991856 0.296445 -0.949885 -0.0746022 0.233677 -0.969448 
-0.0332894 0.250115 -0.967644 -0.0416435 0.364895 -0.930117 -0.166921 0.440182 -0.882257 
-0.370291 0.505066 -0.779611 -0.334529 0.494357 -0.80231 -0.513925 0.310474 -0.799679 
0.748756 0.47594 -0.461352 0.779335 0.41108 -0.472917 0.486385 0.424749 -0.763556 
-0.196942 0.240325 -0.950504 -0.0994902 0.195634 -0.975617 0.0525379 0.250349 -0.966729 
0.0524156 0.230245 -0.97172 -0.109775 0.215199 -0.970381 -0.297166 0.239476 -0.924307 
-0.516688 0.299834 -0.801956 -0.510097 0.296103 -0.807542 0.814561 0.287995 -0.503537 
0.742357 0.261624 -0.616814 -0.059357 0.197485 -0.978507 -0.00405999 0.299576 -0.954064 
-0.0716357 0.0893462 -0.993421 -0.160236 0.00840746 -0.987043 -0.270946 0.0357429 -0.961931 
-0.5237 0.129575 -0.841991 -0.438026 0.103399 -0.892996 0.844457 0.0582565 -0.532446 
0.680017 0.0528199 -0.731291 -0.231344 -0.0918673 -0.968525 -0.173668 -0.104706 -0.979222 
-0.221135 -0.0640277 -0.973139 -0.503031 -0.0108121 -0.864201 -0.396965 -0.0298266 -0.917349 
0.84694 -0.159838 -0.507095 0.712765 -0.130033 -0.689244 -0.140949 -0.443156 -0.885294 
0.066748 -0.313628 -0.947197 -0.0186431 -0.321892 -0.946593 -0.145853 -0.171486 -0.97433 
-0.130736 -0.115765 -0.984635 -0.202943 -0.127445 -0.970861 -0.446971 -0.153215 -0.88133 
-0.428401 -0.268554 -0.862758 -0.376698 -0.138606 -0.915908 0.805611 -0.383894 -0.451239 
0.778324 -0.436938 -0.450884 0.768912 -0.375837 -0.517224 -0.315097 -0.367039 -0.875212 
-0.323213 -0.449935 -0.832522 -0.386964 -0.475275 -0.790173 -0.0474582 -0.481966 -0.874904 
-0.0551402 -0.497551 -0.86568 0.23385 -0.368591 -0.899697 0.104473 -0.311001 -0.94465 
-0.0230945 -0.200422 -0.979438 -0.125454 -0.168479 -0.977689 -0.416796 -0.289546 -0.861652 
-0.315872 -0.406712 -0.857211 -0.246005 -0.231711 -0.941165 0.619179 -0.630519 -0.468042 
0.505409 -0.724601 -0.468524 0.481629 -0.61793 -0.621446 0.170211 -0.807661 -0.564546 
0.114822 -0.569488 -0.813941 -0.0647071 -0.77232 -0.63193 -0.143993 -0.5259 -0.838269 
-0.317582 -0.461822 -0.828168 -0.270493 -0.632542 -0.725758 -0.349702 -0.522981 -0.777303 
0.233055 -0.309546 -0.921882 0.244683 -0.330743 -0.911449 0.254023 -0.315702 -0.914223 
0.117469 -0.451077 -0.884721 0.131185 -0.342972 -0.93014 -0.0325197 -0.499744 -0.865562 
0.00458427 -0.338947 -0.940794 -0.312479 -0.409784 -0.856991 -0.173882 -0.480183 -0.859761 
-0.149849 -0.370031 -0.916854 0.268147 0.446018 -0.853912 0.0171393 0.462453 -0.886478 
-0.111197 0.382802 -0.917114 -0.196277 0.287656 -0.937406 0.380693 0.369989 -0.847456 
0.436433 0.327228 -0.838121 0.235765 0.285727 -0.928857 -0.00432771 0.259538 -0.965723 
-0.144983 0.269601 -0.951995 -0.206774 0.264393 -0.941988 -0.20845 0.270267 -0.939949 
-0.192792 0.169545 -0.966481 0.507403 0.186952 -0.841184 0.377441 0.169365 -0.910414 
0.130786 0.106366 -0.985688 0.0116394 0.087729 -0.996076 -0.0798041 0.0979935 -0.991982 
-0.168064 0.157581 -0.973099 -0.109981 0.170857 -0.979138 -0.187917 0.12938 -0.973626 
0.0232397 0.0163876 -0.999596 -0.0086593 0.26945 -0.962976 0.483488 0.00979557 -0.875296 
0.363348 -0.00772188 -0.931621 0.138274 0.0148169 -0.990283 -0.0159313 -0.00162268 -0.999872 
-0.0781678 -0.0573788 -0.995288 -0.176587 -0.0977868 -0.979415 -0.174417 -0.228038 -0.957903 
-0.179764 -0.141277 -0.973512 0.0642153 -0.106899 -0.992194 0.0638543 -0.0772977 -0.994961 
-0.190079 -0.0768675 -0.978755 -0.0266911 -0.246054 -0.968888 -0.0409045 -0.0277918 -0.998776 
0.473385 -0.0828999 -0.876946 0.357678 -0.0829425 -0.930154 0.124881 -0.0940428 -0.987705 
-0.0609794 -0.12339 -0.990483 -0.309777 -0.361091 -0.879575 -0.178864 -0.214598 -0.960185 
-0.222344 -0.391258 -0.893018 -0.277793 -0.397202 -0.874678 -0.251017 -0.370066 -0.89445 
0.416591 -0.292021 -0.860915 0.387369 -0.32456 -0.862906 0.376529 -0.283289 -0.882028 
0.0989372 -0.468186 -0.878074 0.100162 -0.268205 -0.958141 -0.308081 -0.364594 -0.878725 
-0.150424 -0.430553 -0.889942 -0.141799 -0.316654 -0.937882 
