# vtk DataFile Version 4.2
vtk output
ASCII
DATASET POLYDATA
POINTS 530 float
-13.6163 -45.9642 -13.5128 -5.44046 -45.9642 -14.3672 2.73537 -45.9642 -13.7119 
10.9112 -45.9642 -12.5261 -29.9679 -37.7884 -13.4506 -21.7921 -37.7884 -14.7627 
-13.6163 -37.7884 -16.7249 -5.44046 -37.7884 -16.8743 2.73537 -37.7884 -16.549 
10.9112 -37.7884 -16.2821 19.087 -37.7884 -15.8538 27.2628 -37.7884 -15.3009 
35.4387 -37.7884 -13.9825 -38.1438 -29.6126 -14.2254 -29.9679 -29.6126 -15.3418 
-21.7921 -29.6126 -16.0404 -13.6163 -29.6126 -16.6875 -5.44046 -29.6126 -17.0122 
2.73537 -29.6126 -17.2927 10.9112 -29.6126 -17.5387 19.087 -29.6126 -17.4579 
27.2628 -29.6126 -17.6021 35.4387 -29.6126 -16.5728 43.6145 -29.6126 -14.8929 
-46.3196 -21.4368 -12.9667 -38.1438 -21.4368 -15.0097 -29.9679 -21.4368 -16.1351 
-21.7921 -21.4368 -16.6248 -13.6163 -21.4368 -16.2507 -5.44046 -21.4368 -16.7209 
2.73537 -21.4368 -17.2972 10.9112 -21.4368 -17.334 19.087 -21.4368 -18.0338 
27.2628 -21.4368 -18.3168 35.4387 -21.4368 -17.9149 43.6145 -21.4368 -15.7715 
51.7903 -21.4368 -12.4854 -46.3196 -13.2609 -14.8196 -38.1438 -13.2609 -16.0189 
-29.9679 -13.2609 -16.4815 -21.7921 -13.2609 -16.3054 -13.6163 -13.2609 -16.2503 
-5.44046 -13.2609 -18.3109 2.73537 -13.2609 -17.8842 10.9112 -13.2609 -17.3748 
19.087 -13.2609 -17.5753 27.2628 -13.2609 -17.7627 35.4387 -13.2609 -17.849 
43.6145 -13.2609 -16.9419 51.7903 -13.2609 -14.9876 -46.3196 -5.08511 -15.0057 
-38.1438 -5.08511 -16.4703 -29.9679 -5.08511 -16.4662 -21.7921 -5.08511 -15.8809 
-13.6163 -5.08511 -18.7041 -5.44046 -5.08511 -19.3459 2.73537 -5.08511 -17.073 
10.9112 -5.08511 -18.8758 19.087 -5.08511 -16.7671 27.2628 -5.08511 -17.5448 
35.4387 -5.08511 -18.0185 43.6145 -5.08511 -17.8714 51.7903 -5.08511 -16.033 
59.9662 -5.08511 -13.0135 -46.3196 3.09072 -14.9016 -38.1438 3.09072 -16.2121 
-29.9679 3.09072 -16.1662 -21.7921 3.09072 -15.1182 -13.6163 3.09072 -15.8003 
-5.44046 3.09072 -16.8976 2.73537 3.09072 -17.4397 10.9112 3.09072 -19.0982 
19.087 3.09072 -16.7126 27.2628 3.09072 -17.8581 35.4387 3.09072 -18.3618 
43.6145 3.09072 -18.1037 51.7903 3.09072 -16.0809 59.9662 3.09072 -12.5924 
-46.3196 11.2665 -13.8948 -38.1438 11.2665 -15.1166 -29.9679 11.2665 -15.3788 
-21.7921 11.2665 -14.6912 -13.6163 11.2665 -14.6439 -5.44046 11.2665 -17.0718 
2.73537 11.2665 -15.6764 10.9112 11.2665 -16.636 19.087 11.2665 -17.6238 
27.2628 11.2665 -18.1488 35.4387 11.2665 -18.2628 43.6145 11.2665 -17.5394 
51.7903 11.2665 -15.4568 -38.1438 19.4424 -14.0001 -29.9679 19.4424 -14.5995 
-21.7921 19.4424 -14.3597 -13.6163 19.4424 -14.7988 -5.44046 19.4424 -15.2809 
2.73537 19.4424 -15.7112 10.9112 19.4424 -17.6019 19.087 19.4424 -18.6563 
27.2628 19.4424 -18.9122 35.4387 19.4424 -17.9013 43.6145 19.4424 -15.8239 
-29.9679 27.6182 -12.9681 -21.7921 27.6182 -13.5005 -13.6163 27.6182 -14.527 
-5.44046 27.6182 -15.4738 2.73537 27.6182 -16.163 10.9112 27.6182 -17.7147 
19.087 27.6182 -18.8191 27.2628 27.6182 -18.1674 35.4387 27.6182 -16.3485 
43.6145 27.6182 -12.9044 -13.6163 35.794 -12.949 -5.44046 35.794 -14.5657 
2.73537 35.794 -15.2861 10.9112 35.794 -16.7463 19.087 35.794 -17.3763 
27.2628 35.794 -16.6047 35.4387 35.794 -13.2232 2.73537 43.9699 -13.0686 
10.9112 43.9699 -13.5201 19.087 43.9699 -13.2528 -13.6163 -47.8885 -12.351 
-5.44046 -49.3359 -12.351 -5.44046 -54.1401 -4.43639 2.73537 -48.1874 -12.351 
10.9112 -46.2072 -12.351 -29.9679 -39.8857 -12.351 -29.9679 -45.9642 -5.89373 
-17.8349 -45.9642 -12.351 -21.7921 -43.3374 -12.351 -21.7921 -45.9642 -10.8031 
11.7204 -45.9642 -12.351 19.087 -43.4183 -12.351 19.087 -45.9642 -10.0348 
27.2628 -42.3348 -12.351 27.2628 -45.9642 -7.9647 35.4387 -40.2067 -12.351 
-32.152 -37.7884 -12.351 -38.1438 -32.786 -12.351 -38.1438 -37.7884 -8.75518 
42.0488 -37.7884 -12.351 43.6145 -36.7645 -12.351 43.6145 -37.7884 -11.7042 
-43.4734 -29.6126 -12.351 -46.3196 -24.6123 -12.351 -46.3196 -29.6126 -10.6985 
49.2596 -29.6126 -12.351 51.7903 -22.3296 -12.351 51.7903 -29.6126 -10.3024 
-47.5261 -21.4368 -12.351 -54.4954 -21.4368 -8.04711 51.9994 -21.4368 -12.351 
-54.1437 -13.2609 -12.351 -54.4954 -13.2609 -12.1802 56.2201 -13.2609 -12.351 
59.9662 -7.33477 -12.351 59.9662 -13.2609 -8.26139 -51.8841 -5.08511 -12.351 
-54.4954 -5.08511 -10.7477 60.677 -5.08511 -12.351 -51.801 3.09072 -12.351 
-54.4954 3.09072 -10.7133 60.2147 3.09072 -12.351 59.9662 3.92941 -12.351 
-51.3094 11.2665 -12.351 -54.4954 11.2665 -10.9115 -46.3196 16.4209 -12.351 
56.1412 11.2665 -12.351 51.7903 18.206 -12.351 59.9662 11.2665 -6.82112 
-54.4954 19.4424 -6.70171 -43.8423 19.4424 -12.351 -46.3196 19.4424 -11.444 
-38.1438 23.5023 -12.351 50.8513 19.4424 -12.351 51.7903 19.4424 -11.6244 
-46.3196 27.6182 -7.33058 -32.1372 27.6182 -12.351 -38.1438 27.6182 -10.3837 
-29.9679 29.0198 -12.351 -21.7921 32.7035 -12.351 44.4871 27.6182 -12.351 
43.6145 28.6857 -12.351 -38.1438 35.794 -6.22556 -29.9679 35.794 -8.54287 
-17.3203 35.794 -12.351 -21.7921 35.794 -11.5571 -13.6163 37.3074 -12.351 
-5.44046 41.8272 -12.351 27.2628 42.4224 -12.351 37.2693 35.794 -12.351 
35.4387 37.2813 -12.351 43.6145 35.794 -4.9478 -21.7921 43.9699 -6.81683 
-13.6163 43.9699 -9.32123 -1.28481 43.9699 -12.351 -5.44046 43.9699 -11.5207 
2.73537 45.2815 -12.351 10.9112 45.6717 -12.351 22.9101 43.9699 -12.351 
19.087 45.1236 -12.351 27.2628 43.9699 -10.8576 35.4387 43.9699 -4.34789 
-5.44046 52.1457 -4.81963 2.73537 52.1457 -6.5468 10.9112 52.1457 -5.59642 
-5.44046 -54.2343 -4.17521 -29.9679 -46.7302 -4.17521 -21.7921 -50.9535 -4.17521 
-6.61391 -54.1401 -4.17521 -13.6163 -53.5317 -4.17521 -3.7991 -54.1401 -4.17521 
-5.44046 -54.1401 -3.61693 2.73537 -53.7006 -4.17521 10.9112 -51.3332 -4.17521 
19.087 -49.6209 -4.17521 27.2628 -48.1436 -4.17521 -31.1386 -45.9642 -4.17521 
-38.1438 -41.311 -4.17521 -29.9679 -45.9642 -1.0158 34.9429 -45.9642 -4.17521 
35.4387 -45.8082 -4.17521 43.6145 -41.4539 -4.17521 -42.6979 -37.7884 -4.17521 
-46.3196 -34.2649 -4.17521 48.0214 -37.7884 -4.17521 51.7903 -33.5759 -4.17521 
-50.9799 -29.6126 -4.17521 -54.4954 -25.7346 -4.17521 54.6236 -29.6126 -4.17521 
-57.3556 -21.4368 -4.17521 59.1404 -21.4368 -4.17521 59.9662 -19.0812 -4.17521 
-60.6299 -13.2609 -4.17521 61.7806 -13.2609 -4.17521 59.9662 -13.2609 1.03233 
-61.8445 -5.08511 -4.17521 -62.6712 -5.08511 2.92491 63.6404 -5.08511 -4.17521 
-61.6944 3.09072 -4.17521 63.2247 3.09072 -4.17521 -59.6724 11.2665 -4.17521 
61.0119 11.2665 -4.17521 59.9662 13.6571 -4.17521 59.9662 11.2665 -1.30365 
-56.5403 19.4424 -4.17521 -54.4954 22.6368 -4.17521 57.0402 19.4424 -4.17521 
51.7903 26.7625 -4.17521 -49.8127 27.6182 -4.17521 -46.3196 30.9772 -4.17521 
51.1335 27.6182 -4.17521 -41.0253 35.794 -4.17521 -38.1438 37.7086 -4.17521 
-29.9679 41.3571 -4.17521 43.974 35.794 -4.17521 43.6145 36.1686 -4.17521 
43.6145 35.794 -1.97734 -26.0474 43.9699 -4.17521 -29.9679 43.9699 3.08249 
-21.7921 46.0901 -4.17521 -13.6163 49.5504 -4.17521 19.087 51.238 -4.17521 
27.2628 48.5489 -4.17521 35.5426 43.9699 -4.17521 35.4387 44.0505 -4.17521 
35.4387 43.9699 -3.47301 -6.91276 52.1457 -4.17521 -5.44046 52.5892 -4.17521 
2.73537 53.7058 -4.17521 15.0778 52.1457 -4.17521 10.9112 52.9851 -4.17521 
-21.7921 -49.2652 4.00061 -13.6163 -51.8167 4.00061 -5.44046 -52.5445 4.00061 
2.73537 -51.6356 4.00061 10.9112 -49.2549 4.00061 19.087 -47.9066 4.00061 
27.2628 -46.2935 4.00061 -38.1438 -39.3158 4.00061 -27.8199 -45.9642 4.00061 
-29.9679 -44.2586 4.00061 -21.7921 -45.9642 8.18684 -13.6163 -45.9642 10.3654 
-5.44046 -45.9642 11.0095 2.73537 -45.9642 9.38275 10.9112 -45.9642 7.65055 
19.087 -45.9642 6.54585 28.6278 -45.9642 4.00061 27.2628 -45.9642 4.42182 
35.4387 -43.4186 4.00061 43.6145 -38.8697 4.00061 -40.2067 -37.7884 4.00061 
-46.3196 -33.2113 4.00061 -38.1438 -37.7884 5.78387 -29.9679 -37.7884 9.0481 
27.2628 -37.7884 10.4985 35.4387 -37.7884 9.11874 44.8788 -37.7884 4.00061 
43.6145 -37.7884 5.09447 51.7903 -30.1556 4.00061 -50.4834 -29.6126 4.00061 
-54.4954 -25.5029 4.00061 -46.3196 -29.6126 8.69152 -38.1438 -29.6126 11.0191 
35.4387 -29.6126 11.9748 43.6145 -29.6126 9.78286 52.1785 -29.6126 4.00061 
51.7903 -29.6126 4.41817 -57.6532 -21.4368 4.00061 -54.4954 -21.4368 8.87215 
43.6145 -21.4368 10.9443 56.3466 -21.4368 4.00061 51.7903 -21.4368 8.01789 
-61.3704 -13.2609 4.00061 -62.6712 -5.77352 4.00061 -54.4954 -13.2609 11.5462 
43.6145 -13.2609 12.0183 58.3072 -13.2609 4.00061 51.7903 -13.2609 9.17087 
59.9662 -7.93935 4.00061 -62.7681 -5.08511 4.00061 -62.6712 -2.66706 4.00061 
-62.6712 -5.08511 4.18544 51.7903 -5.08511 10.8609 60.5587 -5.08511 4.00061 
59.9662 -5.08511 4.62836 -62.3967 3.09072 4.00061 51.7903 3.09072 10.4649 
60.0918 3.09072 4.00061 59.9662 3.57621 4.00061 59.9662 3.09072 4.13633 
-60.8808 11.2665 4.00061 -54.4954 11.2665 11.436 43.6145 11.2665 11.8036 
57.0398 11.2665 4.00061 51.7903 11.2665 8.40284 -57.7008 19.4424 4.00061 
-54.4954 25.1533 4.00061 -54.4954 19.4424 9.69493 43.6145 19.4424 10.7793 
54.2303 19.4424 4.00061 51.7903 23.201 4.00061 51.7903 19.4424 6.2928 
-52.8701 27.6182 4.00061 -46.3196 34.5582 4.00061 48.4597 27.6182 4.00061 
43.6145 34.2638 4.00061 43.6145 27.6182 9.38183 -44.7598 35.794 4.00061 
-38.1438 40.0611 4.00061 -38.1438 35.794 12.0959 42.4844 35.794 4.00061 
35.4387 42.7917 4.00061 35.4387 35.794 10.3178 -30.4377 43.9699 4.00061 
-29.9679 44.2079 4.00061 -29.9679 43.9699 4.51063 -21.7921 47.8319 4.00061 
-21.7921 43.9699 10.2882 -13.6163 51.5355 4.00061 19.087 51.7451 4.00061 
34.0502 43.9699 4.00061 27.2628 48.2395 4.00061 27.2628 43.9699 9.58922 
-11.8322 52.1457 4.00061 -5.44046 54.1237 4.00061 -5.44046 52.1457 8.18511 
2.73537 55.1667 4.00061 2.73537 52.1457 10.0225 17.7326 52.1457 4.00061 
10.9112 53.9714 4.00061 10.9112 52.1457 7.90412 -21.7921 -40.0885 12.1764 
-13.6163 -43.3585 12.1764 -5.44046 -44.2091 12.1764 2.73537 -41.8304 12.1764 
10.9112 -39.3758 12.1764 19.087 -38.115 12.1764 -24.311 -37.7884 12.1764 
-29.9679 -32.5276 12.1764 -21.7921 -37.7884 13.3286 -13.6163 -37.7884 15.383 
[...]
POINT_DATA 530
SCALARS ImageScalars float
LOOKUP_TABLE default
0 0 0 0 0 0 0 0 0 
0 0 0 0 0 0 0 0 0 
0 0 0 0 0 0 0 0 0 
0 0 0 0 0 0 0 0 0 
0 0 0 0 0 0 0 0 0 
0 0 0 0 0 0 0 0 0 
0 0 0 0 0 0 0 0 0 
0 0 0 0 0 0 0 0 0 
0 0 0 0 0 0 0 0 0 
0 0 0 0 0 0 0 0 0 
0 0 0 0 0 0 0 0 0 
0 0 0 0 0 0 0 0 0 
0 0 0 0 0 0 0 0 0 
0 0 0 0 0 0 0 0 0 
0 0 0 0 0 0 0 0 0 
0 0 0 0 0 0 0 0 0 
0 0 0 0 0 0 0 0 0 
0 0 0 0 0 0 0 0 0 
0 0 0 0 0 0 0 0 0 
0 0 0 0 0 0 0 0 0 
0 0 0 0 0 0 0 0 0 
0 0 0 0 0 0 0 0 0 
0 0 0 0 0 0 0 0 0 
0 0 0 0 0 0 0 0 0 
0 0 0 0 0 0 0 0 0 
0 0 0 0 0 0 0 0 0 
0 0 0 0 0 0 0 0 0 
0 0 0 0 0 0 0 0 0 
0 0 0 0 0 0 0 0 0 
0 0 0 0 0 0 0 0 0 
0 0 0 0 0 0 0 0 0 
0 0 0 0 0 0 0 0 0 
0 0 0 0 0 0 0 0 0 
0 0 0 0 0 0 0 0 0 
0 0 0 0 0 0 0 0 0 
0 0 0 0 0 0 0 0 0 
0 0 0 0 0 0 0 0 0 
0 0 0 0 0 0 0 0 0 
0 0 0 0 0 0 0 0 0 
0 0 0 0 0 0 0 0 0 
0 0 0 0 0 0 0 0 0 
0 0 0 0 0 0 0 0 0 
0 0 0 0 0 0 0 0 0 
0 0 0 0 0 0 0 0 0 
0 0 0 0 0 0 0 0 0 
0 0 0 0 0 0 0 0 0 
0 0 0 0 0 0 0 0 0 
0 0 0 0 0 0 0 0 0 
0 0 0 0 0 0 0 0 0 
0 0 0 0 0 0 0 0 0 
0 0 0 0 0 0 0 0 0 
0 0 0 0 0 0 0 0 0 
0 0 0 0 0 0 0 0 0 
0 0 0 0 0 0 0 0 0 
0 0 0 0 0 0 0 0 0 
0 0 0 0 0 0 0 0 0 
0 0 0 0 0 0 0 0 0 
0 0 0 0 0 0 0 0 0 
0 0 0 0 0 0 0 0 
NORMALS Normals float
0.170634 0.465551 0.868416 0.0152792 0.4516 0.89209 -0.11304 0.484284 0.867578 
-0.17199 0.563349 0.80812 0.301492 0.358088 0.883672 0.172508 0.254674 0.951516 
0.123002 0.191415 0.973771 -0.0120352 0.1566 0.987589 -0.0356741 0.199445 0.979259 
-0.0413498 0.286143 0.957294 -0.0617956 0.353093 0.933545 -0.0850595 0.421371 0.902891 
-0.220058 0.457393 0.861607 0.247382 0.299984 0.92131 0.099781 0.142397 0.984767 
0.078193 0.106299 0.991255 0.0594335 -0.0288667 0.997815 0.0371736 -0.00868835 0.999271 
0.031829 0.0473352 0.998372 0.0101827 0.0551072 0.998429 0.0047406 0.124494 0.992209 
-0.047998 0.18184 0.982156 -0.148748 0.205602 0.967265 -0.32531 0.235587 0.91579 
0.359061 0.197311 0.912219 0.169358 0.0969715 0.980772 0.0931296 0.0654 0.993504 
0.00701545 0.0161033 0.999846 0.00587617 -0.0266751 0.999627 0.0639301 0.0582402 0.996253 
0.0373442 0.034738 0.998698 0.0450788 -0.00976608 0.998936 0.0598758 0.00629204 0.998186 
-0.00920109 0.0132458 0.99987 -0.142891 0.0694721 0.987297 -0.297213 0.1091 0.948558 
-0.485845 0.19973 0.850919 0.25874 0.11158 0.959481 0.0925483 0.087906 0.99182 
0.0165233 0.0202312 0.999659 -0.0140382 -0.0452875 0.998875 0.101083 0.119615 0.987661 
0.112072 0.164532 0.979984 -0.0528323 -0.00621042 0.998584 -0.0176936 0.0815007 0.996516 
0.0236408 -0.0767471 0.99677 0.0166993 -0.0469219 0.998759 -0.0481923 0.00602242 0.99882 
-0.152741 0.124621 0.980377 -0.38725 0.191095 0.901954 0.296973 0.00261764 0.954882 
0.097627 0.0112646 0.995159 -0.0359133 -0.0192545 0.999169 0.0935749 -0.0719724 0.993007 
0.232343 0.00186978 0.972632 -0.103076 -0.101794 0.989451 -0.011213 -0.0353346 0.999313 
-0.0372409 0.111713 0.993042 -0.0634872 -0.052862 0.996582 0.0758683 0.00553856 0.997102 
0.0203073 0.0312959 0.999304 -0.123797 0.0703191 0.989813 -0.302042 0.0549237 0.951711 
-0.659443 0.125714 0.741169 0.285735 -0.0579444 0.956555 0.0853545 -0.0819613 0.992974 
-0.0662476 -0.0661425 0.995609 -0.030156 -0.0735198 0.996838 0.1132 -0.224645 0.967843 
0.0876013 -0.112037 0.989835 0.143428 -0.0912309 0.985447 -0.0750269 -0.144981 0.986586 
-0.0571506 0.0525188 0.996983 0.100964 0.0369949 0.994202 0.0152058 0.015029 0.999771 
-0.147207 -0.0195205 0.988913 -0.328401 -0.0259302 0.944182 -0.700206 -0.167771 0.693949 
0.239467 -0.209514 0.948029 0.0814161 -0.141429 0.986595 -0.0264497 -0.093873 0.995233 
-0.0447177 -0.0460657 0.997937 0.137116 -0.0493305 0.989326 0.0769958 -0.104727 0.991516 
-0.0251075 -0.0872946 0.995866 0.114344 -0.0732677 0.990736 0.0894319 0.115336 0.989292 
0.0387939 0.0632354 0.997244 -0.035216 -0.0301286 0.998925 -0.144276 -0.134586 0.980342 
-0.426417 -0.218394 0.877766 0.164309 -0.249716 0.954277 0.0260981 -0.159545 0.986846 
0.0126623 -0.0705783 0.997426 0.0562587 -0.00702836 0.998392 0.0552558 -0.0896587 0.994439 
0.144199 0.0298788 0.989097 0.175502 0.0630888 0.982456 0.0808537 0.0747774 0.993917 
-0.0509731 0.00240785 0.998697 -0.171642 -0.102175 0.979846 -0.324782 -0.227116 0.918115 
0.167307 -0.313237 0.934821 0.0991744 -0.166036 0.98112 0.11697 -0.105605 0.987505 
0.0987716 -0.0393524 0.994332 0.136363 -0.0248228 0.990348 0.163903 -0.0505092 0.985182 
0.0275361 -0.0779039 0.996581 -0.14134 -0.130149 0.981369 -0.266335 -0.27647 0.92338 
-0.470243 -0.399354 0.787012 0.16959 -0.277409 0.945666 0.136606 -0.232465 0.962964 
0.128155 -0.186655 0.974031 0.126527 -0.232077 0.964433 -0.0040995 -0.302038 0.953287 
-0.234688 -0.339454 0.910875 -0.412308 -0.445261 0.794824 0.110363 -0.395238 0.911925 
0.0134697 -0.503112 0.864116 -0.1075 -0.596604 0.795304 0.188046 0.549876 0.813803 
0.0141947 0.623004 0.78209 0.012229 0.993275 0.115128 -0.130798 0.594577 0.793329 
-0.177065 0.574278 0.799283 0.335373 0.446316 0.829655 0.517242 0.827678 0.217739 
0.218567 0.507192 0.833657 0.229739 0.456753 0.859416 0.292094 0.624589 0.724272 
-0.174503 0.577714 0.797368 -0.127752 0.604664 0.786169 -0.185326 0.786345 0.589335 
-0.101393 0.624185 0.774669 -0.17353 0.891093 0.419332 -0.254102 0.57773 0.775668 
0.349185 0.41442 0.840432 0.31993 0.412554 0.852903 0.518597 0.662281 0.540778 
-0.406668 0.543735 0.734148 -0.431829 0.523305 0.734626 -0.46225 0.581876 0.669138 
0.421417 0.376195 0.825157 0.419848 0.273505 0.865403 0.558839 0.459545 0.690302 
-0.541871 0.341459 0.767973 -0.502453 0.218808 0.836459 -0.69499 0.441304 0.567661 
0.394101 0.220313 0.89227 0.701964 0.41138 0.581388 -0.492771 0.203436 0.846044 
0.522718 0.0974161 0.846922 0.539182 0.097066 0.836577 -0.567714 0.267735 0.778473 
-0.683415 0.173081 0.709216 -0.870819 0.30073 0.388889 0.464844 -0.0389497 0.884536 
0.577271 -0.0515407 0.814925 -0.712824 0.125065 0.690102 0.45958 -0.0106781 0.888072 
0.582253 0.00562184 0.812988 -0.717251 -0.168828 0.676053 -0.709982 -0.184409 0.679646 
0.426352 -0.190025 0.884372 0.582039 -0.179472 0.793108 0.316692 -0.270383 0.909175 
-0.615193 -0.304405 0.727238 -0.532882 -0.371316 0.760369 -0.911186 -0.351569 0.214802 
0.693019 -0.440604 0.570607 0.302533 -0.282594 0.910283 0.375544 -0.305115 0.875141 
0.208743 -0.336518 0.918249 -0.52489 -0.372742 0.765215 -0.579976 -0.412825 0.702284 
0.493421 -0.556904 0.668127 0.191406 -0.341179 0.920305 0.273066 -0.425596 0.86273 
0.186384 -0.344874 0.919958 0.180285 -0.256957 0.949458 -0.497164 -0.421345 0.758483 
-0.495179 -0.42949 0.755206 0.397385 -0.660042 0.637518 0.278574 -0.547269 0.789235 
0.196023 -0.294751 0.935252 0.240825 -0.327215 0.913747 0.17413 -0.318985 0.931626 
0.177124 -0.373332 0.910632 -0.275284 -0.626205 0.729442 -0.461076 -0.4808 0.745815 
-0.430164 -0.498371 0.752719 -0.703924 -0.692121 0.159558 0.358892 -0.702886 0.614124 
0.245367 -0.565662 0.787288 0.146892 -0.408198 0.900998 0.191939 -0.436996 0.878746 
0.100506 -0.44787 0.888432 -0.00993233 -0.562237 0.826916 -0.188992 -0.641965 0.743077 
-0.123733 -0.636022 0.761687 -0.301801 -0.719958 0.624961 -0.5866 -0.792305 0.167788 
0.216041 -0.858602 0.464896 0.0376404 -0.844517 0.534205 -0.131395 -0.896263 0.423613 
0.0116484 0.995111 0.0980703 0.528306 0.844522 0.0876084 0.389353 0.90853 0.151586 
0.0370933 0.994216 0.10079 0.191599 0.973616 0.123938 -0.0254421 0.99485 0.0981122 
0.0112914 0.997774 0.0657258 -0.179466 0.978514 0.1015 -0.238848 0.965677 0.102072 
-0.195193 0.968982 0.151571 -0.231909 0.961559 0.147048 0.537948 0.838632 0.0854916 
0.580472 0.799198 0.155997 0.551394 0.824464 -0.127373 -0.362248 0.928376 0.0830293 
-0.371233 0.92521 0.0785635 -0.561089 0.824833 0.0694957 0.634092 0.755067 0.166737 
0.684267 0.708273 0.173575 -0.69812 0.712897 0.0663829 -0.788387 0.611422 0.0678852 
0.723137 0.650021 0.233551 0.779325 0.552674 0.295305 -0.836085 0.544409 0.067677 
0.836229 0.432829 0.336718 -0.905172 0.417302 0.080764 -0.925507 0.374142 0.0587676 
0.889668 0.266115 0.371044 -0.963104 0.264704 0.0485967 -0.889895 0.258833 -0.375621 
0.910848 0.0500509 0.409697 0.98722 0.0532773 -0.150196 -0.995921 0.0902266 -0.00069509 
0.909258 -0.112043 0.400869 -0.987241 -0.159229 -0.000866519 0.870674 -0.285366 0.400616 
-0.940512 -0.339443 0.0146873 -0.918658 -0.394754 0.015384 -0.9198 -0.341187 -0.193801 
0.7941 -0.435865 0.423587 0.735416 -0.511207 0.444783 -0.843067 -0.534218 0.0620454 
-0.787905 -0.61157 0.0720274 0.617786 -0.607867 0.498836 0.56767 -0.644342 0.51242 
-0.782602 -0.618247 0.0728281 0.481038 -0.704188 0.522228 0.430873 -0.738197 0.51905 
0.410929 -0.729461 0.54683 -0.708873 -0.696276 0.112688 -0.706262 -0.698687 0.114151 
-0.728457 -0.684977 -0.0125137 0.422408 -0.767218 0.482646 0.446281 -0.894244 -0.0340753 
0.394027 -0.795467 0.460407 0.348604 -0.808924 0.47341 -0.245108 -0.925654 0.288247 
-0.395664 -0.889426 0.228849 -0.589313 -0.792319 0.157928 -0.587101 -0.793904 0.158205 
-0.594748 -0.794981 0.119501 0.24294 -0.869215 0.430633 0.21453 -0.876913 0.430117 
0.0231288 -0.9114 0.410872 -0.196633 -0.928234 0.31578 -0.142763 -0.926024 0.349426 
0.364422 0.827784 -0.426579 0.184156 0.881286 -0.435227 -0.00447118 0.902564 -0.430533 
-0.17855 0.866669 -0.465837 -0.195036 0.851457 -0.486807 -0.162251 0.874145 -0.457761 
-0.218285 0.843202 -0.491286 0.49978 0.734337 -0.459313 0.4882 0.741175 -0.460783 
0.512174 0.704927 -0.490669 0.345224 0.690109 -0.636058 0.13049 0.647546 -0.750771 
-0.047776 0.61395 -0.787898 -0.168687 0.639239 -0.750279 -0.140422 0.726331 -0.672848 
-0.147121 0.788061 -0.597758 -0.24488 0.836172 -0.490765 -0.217371 0.829257 -0.514861 
-0.372757 0.770652 -0.516863 -0.524759 0.660567 -0.536916 0.513483 0.730982 -0.449446 
0.570493 0.739472 -0.357378 0.467875 0.688236 -0.554459 0.388566 0.548657 -0.740265 
-0.163863 0.466244 -0.869348 -0.293723 0.518299 -0.803177 -0.558224 0.636302 -0.532452 
-0.5056 0.613237 -0.606885 -0.665757 0.529649 -0.525586 0.642346 0.695335 -0.322336 
0.730651 0.615232 -0.296037 0.470807 0.632986 -0.614548 0.25011 0.514383 -0.820278 
-0.193936 0.200793 -0.960245 -0.407484 0.316642 -0.85656 -0.667094 0.521862 -0.531644 
-0.656936 0.509988 -0.55529 0.81462 0.517859 -0.261183 0.646368 0.485471 -0.588665 
-0.310017 0.113282 -0.943958 -0.812012 0.31481 -0.491458 -0.50836 0.258299 -0.821494 
0.923574 0.294866 -0.245084 0.970856 0.0735753 -0.228089 0.628968 0.178821 -0.756586 
-0.233002 0.10148 -0.967167 -0.747741 0.20244 -0.632377 -0.500571 0.149841 -0.852629 
-0.76796 0.125175 -0.628147 0.972453 0.0528366 -0.227033 0.972671 0.00622152 -0.232103 
0.969565 0.0525778 -0.239121 -0.439261 0.0626351 -0.896174 -0.776165 0.0695292 -0.626684 
-0.74828 0.0687004 -0.659816 0.963805 -0.105125 -0.245007 -0.449644 -0.113531 -0.885964 
-0.764683 -0.147446 -0.627312 -0.762359 -0.156083 -0.628049 -0.758991 -0.147014 -0.634286 
0.933757 -0.271118 -0.23365 0.626944 -0.111077 -0.771105 -0.279806 -0.0955898 -0.955286 
-0.720479 -0.257771 -0.643788 -0.53205 -0.206821 -0.821065 0.897255 -0.40264 -0.181147 
0.83269 -0.538802 -0.127749 0.757067 -0.301936 -0.579382 -0.413221 -0.113398 -0.903543 
-0.740016 -0.395467 -0.544042 -0.722844 -0.449258 -0.525037 -0.64661 -0.354793 -0.67529 
0.791213 -0.602468 -0.104952 0.644644 -0.762848 -0.0499601 -0.72057 -0.51619 -0.462955 
-0.72167 -0.570792 -0.391649 -0.602345 -0.33689 -0.723661 0.606662 -0.793442 -0.0491006 
0.488709 -0.87001 -0.0651667 0.395794 -0.687898 -0.608394 -0.7148 -0.587774 -0.378924 
-0.615681 -0.715664 -0.32979 -0.560715 -0.426207 -0.709892 0.439769 -0.893477 -0.0911211 
0.437219 -0.894382 -0.0944512 0.432312 -0.893339 -0.122682 0.417377 -0.899379 -0.130053 
0.365826 -0.736528 -0.568944 0.370317 -0.924276 -0.092626 -0.325517 -0.927743 -0.182567 
-0.588984 -0.743651 -0.316357 -0.457887 -0.840371 -0.290029 -0.432454 -0.670282 -0.60308 
0.333292 -0.93763 -0.0988293 0.209676 -0.970294 -0.120691 0.190409 -0.903333 -0.384361 
-0.00913258 -0.992026 -0.125704 -0.00800551 -0.854581 -0.519256 -0.300961 -0.937529 -0.174534 
-0.198017 -0.968921 -0.14826 -0.193459 -0.906337 -0.375668 0.319066 0.421651 -0.848768 
0.126329 0.54162 -0.831077 -0.0484718 0.541309 -0.839426 -0.154894 0.488928 -0.858462 
-0.118337 0.44428 -0.888038 -0.136921 0.407178 -0.903028 0.329727 0.398296 -0.855944 
0.283128 0.436296 -0.854098 0.311687 0.348173 -0.884097 0.139812 0.366312 -0.919928 
-0.0496191 0.364169 -0.93001 -0.150222 0.387205 -0.909674 -0.119844 0.393996 -0.911265 
-0.137014 0.400468 -0.906009 -0.136374 0.396654 -0.907782 -0.150894 0.319848 -0.935376 
0.341901 0.460384 -0.819238 0.23587 0.454157 -0.859131 0.226963 0.467019 -0.854624 
0.230572 0.392116 -0.890551 0.212133 0.232072 -0.949285 0.144508 0.150631 -0.977971 
-0.0314872 0.165166 -0.985763 -0.1298 0.190757 -0.973018 -0.130746 0.215297 -0.967757 
-0.12427 0.192784 -0.97334 -0.185472 0.200923 -0.961889 -0.154432 0.227467 -0.961462 
-0.19467 0.178327 -0.964522 0.381281 0.434529 -0.815972 0.331976 0.433202 -0.837931 
0.189191 0.356368 -0.914991 0.10225 0.295725 -0.949785 0.0736104 0.175397 -0.981742 
0.0778862 0.0514525 -0.995634 -0.00656213 0.0191012 -0.999796 -0.10434 0.0964005 -0.989859 
-0.13604 0.11361 -0.984168 -0.12444 0.0307369 -0.991751 -0.148326 0.0498368 -0.987682 
-0.253191 0.0925166 -0.962982 -0.217513 0.0885068 -0.972036 0.584409 0.173488 -0.792696 
0.583985 0.11782 -0.803169 0.294385 0.168254 -0.940759 0.140003 0.15783 -0.977491 
0.0346798 0.109758 -0.993353 -0.0219884 0.0931016 -0.995414 -0.0165401 0.0209947 -0.999643 
0.0132452 0.0177264 -0.999755 -0.0317823 -0.00195916 -0.999493 -0.204138 0.104269 -0.973373 
-0.186992 -0.065582 -0.98017 -0.0956571 -0.0327104 -0.994877 -0.221352 0.0952034 -0.970536 
-0.13562 0.0336696 -0.990189 -0.211339 0.0807641 -0.97407 0.577426 0.0408319 -0.815421 
0.542156 0.0412958 -0.839263 0.278561 -0.00209674 -0.960416 0.118102 0.0109698 -0.992941 
0.0275073 -0.00644013 -0.999601 -0.0216293 -0.00929693 -0.999723 0.00161426 0.0172718 -0.99985 
-0.0285715 0.056343 -0.998003 -0.0210337 -0.0571738 -0.998143 -0.211616 0.0910606 -0.973102 
-0.239517 0.00127734 -0.970891 -0.045932 0.00760756 -0.998916 -0.0941417 0.00910232 -0.995517 
-0.238958 0.0361731 -0.970356 -0.162843 0.0247215 -0.986342 0.554394 -0.0813816 -0.828266 
0.558262 -0.0844122 -0.82536 0.546271 -0.0805887 -0.833722 0.287728 -0.0462471 -0.956595 
0.125933 -0.0211155 -0.991814 0.015288 0.0146054 -0.999776 0.00160052 0.0590151 -0.998256 
0.0488944 0.103351 -0.993442 -0.0567915 0.0770303 -0.99541 -0.00375941 0.0618288 -0.99808 
-0.137799 -0.104351 -0.984948 -0.268279 0.0863688 -0.959462 -0.0880346 0.0593015 -0.994351 
-0.118414 0.00613891 -0.992945 -0.220585 -0.0578313 -0.973652 -0.217841 -0.0666204 -0.973708 
-0.181045 -0.0470766 -0.982347 0.565696 -0.092435 -0.819417 0.339979 -0.0613127 -0.938432 
0.178035 0.00545974 -0.984009 0.106216 0.0901768 -0.990246 0.0625878 0.123483 -0.990371 
0.0164425 0.0905917 -0.995752 -0.0663389 0.0207315 -0.997582 -0.19184 0.0737361 -0.978652 
-0.168716 -0.0779752 -0.982576 -0.106818 0.101337 -0.989101 -0.123361 0.0857728 -0.988648 
-0.260711 -0.0780644 -0.962255 -0.200587 0.00452418 -0.979665 0.595471 -0.225858 -0.770975 
0.431655 -0.164884 -0.886841 0.258269 -0.048321 -0.964864 0.139301 -0.0211212 -0.990025 
0.00428608 -0.0202226 -0.999786 -0.0510565 -0.0670954 -0.996439 -0.0770845 -0.0429466 -0.996099 
-0.111387 0.0363868 -0.993111 -0.109886 0.0932823 -0.989557 -0.105039 0.100349 -0.989392 
-0.17974 0.0688083 -0.981305 -0.347689 -0.0547193 -0.936012 -0.293969 -0.0284791 -0.955391 
0.593415 -0.401544 -0.697582 0.59182 -0.404906 -0.696994 0.590968 -0.399556 -0.700793 
0.39431 -0.682914 -0.614937 0.303409 -0.266926 -0.91471 0.124753 -0.266195 -0.955812 
0.0153667 -0.226926 -0.973791 -0.00130805 -0.173047 -0.984913 0.0355427 -0.0413859 -0.998511 
-0.0518102 0.0213123 -0.99843 -0.107162 0.0265751 -0.993886 -0.126896 0.0119453 -0.991844 
-0.264071 -0.0538146 -0.963001 -0.42812 -0.213736 -0.878083 -0.434347 -0.274499 -0.8579 
-0.344285 -0.166747 -0.923939 0.391351 -0.684302 -0.615284 0.252518 -0.695448 -0.672745 
0.184139 -0.546263 -0.817122 0.293896 -0.624556 -0.723571 0.138519 -0.433241 -0.89057 
0.128381 -0.266819 -0.955158 0.125676 -0.191459 -0.973421 -0.0423741 -0.14838 -0.988022 
-0.115011 -0.140641 -0.983358 -0.19595 -0.226518 -0.954093 -0.472237 -0.364708 -0.802484 
-0.382087 -0.50865 -0.771547 -0.318247 -0.290854 -0.902287 0.313162 -0.614778 -0.723863 
0.28252 -0.626831 -0.72613 0.250517 -0.505484 -0.825668 0.150752 -0.678942 -0.718548 
0.155893 -0.437566 -0.885569 -0.00611476 -0.717614 -0.696414 -0.00716046 -0.413541 -0.910457 
-0.166196 -0.674174 -0.719631 -0.167803 -0.415452 -0.894003 -0.351319 -0.552199 -0.756076 
-0.309104 -0.588807 -0.746834 -0.290771 -0.482348 -0.826313 
