# vtk DataFile Version 4.2
vtk output
ASCII
DATASET POLYDATA
POINTS 578 float
-10.7482 0.0622779 -19.4011 -25.5326 -36.8988 -14.3466 -18.1404 -36.8988 -14.9643 
-10.7482 -36.8988 -15.441 -3.35598 -36.8988 -15.3481 4.03624 -36.8988 -14.4754 
11.4285 -36.8988 -13.1036 -40.3171 -29.5066 -14.1839 -32.9249 -29.5066 -16.0585 
-25.5326 -29.5066 -17.3508 -18.1404 -29.5066 -17.5821 -10.7482 -29.5066 -17.4119 
-3.35598 -29.5066 -17.1351 4.03624 -29.5066 -16.6051 11.4285 -29.5066 -16.0273 
18.8207 -29.5066 -15.3537 26.2129 -29.5066 -13.6218 -47.7093 -22.1144 -12.3907 
-40.3171 -22.1144 -15.0559 -32.9249 -22.1144 -17.4304 -25.5326 -22.1144 -18.4861 
-18.1404 -22.1144 -18.049 -10.7482 -22.1144 -17.4137 -3.35598 -22.1144 -16.0389 
4.03624 -22.1144 -16.1278 11.4285 -22.1144 -16.9307 18.8207 -22.1144 -16.4899 
26.2129 -22.1144 -15.6402 33.6051 -22.1144 -14.1707 40.9974 -22.1144 -12.2092 
-47.7093 -14.7222 -13.7277 -40.3171 -14.7222 -15.3263 -32.9249 -14.7222 -16.9944 
-25.5326 -14.7222 -17.2191 -18.1404 -14.7222 -17.3099 -10.7482 -14.7222 -16.4145 
-3.35598 -14.7222 -15.4486 4.03624 -14.7222 -16.3779 11.4285 -14.7222 -16.8133 
18.8207 -14.7222 -16.6985 26.2129 -14.7222 -16.3074 33.6051 -14.7222 -15.5208 
40.9974 -14.7222 -13.8737 -55.1015 -7.32994 -12.1082 -47.7093 -7.32994 -14.7214 
-40.3171 -7.32994 -15.3707 -32.9249 -7.32994 -16.0523 -25.5326 -7.32994 -15.9157 
-18.1404 -7.32994 -15.7363 -10.7482 0.0118337 -19.3864 -10.7482 -7.32994 -17.114 
-3.35598 -7.32994 -17.3058 4.03624 -7.32994 -17.4428 11.4285 -7.32994 -17.0831 
18.8207 -7.32994 -16.7524 26.2129 -7.32994 -15.9965 33.6051 -7.32994 -14.9796 
40.9974 -7.32994 -13.557 -47.7093 0.0622779 -14.8143 -40.3171 0.0622779 -15.7512 
-32.9249 0.0622779 -16.0279 -25.5326 0.0622779 -15.7251 -10.7806 0.0622779 -19.3864 
-18.1404 0.0622779 -15.863 -10.6995 0.0622779 -19.3864 -10.7482 0.106833 -19.3864 
-3.35598 0.0622779 -16.5517 4.03624 0.0622779 -14.662 11.4285 0.0622779 -16.9353 
18.8207 0.0622779 -15.3481 26.2129 0.0622779 -14.4284 33.6051 0.0622779 -14.0134 
40.9974 0.0622779 -13.0958 -47.7093 7.4545 -15.0485 -40.3171 7.4545 -16.4631 
-32.9249 7.4545 -17.2395 -25.5326 7.4545 -17.2614 -18.1404 7.4545 -16.9799 
-10.7482 7.4545 -16.8183 -3.35598 7.4545 -15.1625 4.03624 7.4545 -15.6854 
11.4285 7.4545 -12.7541 26.2129 7.4545 -12.343 33.6051 7.4545 -12.3596 
-55.1015 14.8467 -13.2996 -47.7093 14.8467 -15.2538 -40.3171 14.8467 -17.1212 
-32.9249 14.8467 -18.2152 -25.5326 14.8467 -18.0644 -18.1404 14.8467 -17.584 
-10.7482 14.8467 -16.7363 -3.35598 14.8467 -16.2467 4.03624 14.8467 -15.2126 
11.4285 14.8467 -13.5774 18.8207 14.8467 -12.5092 26.2129 14.8467 -12.1646 
-47.7093 22.2389 -14.6108 -40.3171 22.2389 -16.3594 -32.9249 22.2389 -17.6551 
-25.5326 22.2389 -18.3221 -18.1404 22.2389 -18.0093 -10.7482 22.2389 -17.8402 
-3.35598 22.2389 -17.4829 4.03624 22.2389 -15.9363 11.4285 22.2389 -14.4699 
18.8207 22.2389 -13.2737 26.2129 22.2389 -12.173 -40.3171 29.6312 -14.3193 
-32.9249 29.6312 -15.3958 -25.5326 29.6312 -16.1499 -18.1404 29.6312 -17.2979 
-10.7482 29.6312 -17.0896 -3.35598 29.6312 -16.5174 4.03624 29.6312 -14.9706 
11.4285 29.6312 -13.6754 18.8207 29.6312 -12.5986 -25.5326 -39.3466 -11.9942 
-18.1404 -40.2146 -11.9942 -10.7482 -40.949 -11.9942 -3.35598 -41.0081 -11.9942 
-3.35598 -44.2911 -6.06389 4.03624 -39.9453 -11.9942 11.4285 -38.2377 -11.9942 
-40.3171 -32.1519 -11.9942 -31.3432 -36.8988 -11.9942 -32.9249 -35.8577 -11.9942 
-32.9249 -36.8988 -10.2904 16.5579 -36.8988 -11.9942 18.8207 -36.127 -11.9942 
18.8207 -36.8988 -11.2177 26.2129 -32.1719 -11.9942 26.2129 -36.8988 -6.96084 
-43.3766 -29.5066 -11.9942 -47.7093 -23.0685 -11.9942 -47.7093 -29.5066 -6.17436 
32.9322 -29.5066 -11.9942 33.6051 -29.0254 -11.9942 33.6051 -29.5066 -11.7927 
40.9974 -22.7545 -11.9942 40.9974 -29.5066 -8.20032 -48.2254 -22.1144 -11.9942 
41.587 -22.1144 -11.9942 48.3896 -22.1144 -8.73794 -51.3959 -14.7222 -11.9942 
-55.1015 -7.96634 -11.9942 -55.1015 -14.7222 -9.72169 45.5505 -14.7222 -11.9942 
48.3896 -14.7222 -10.6109 55.7818 -14.7222 -6.82081 -55.2561 -7.32994 -11.9942 
-55.1015 -6.25989 -11.9942 46.293 -7.32994 -11.9942 48.3896 -7.32994 -11.4267 
55.7818 -7.32994 -7.88133 -62.4938 0.0622779 -4.8262 -53.6583 0.0622779 -11.9942 
-55.1015 0.0622779 -11.1089 18.8207 7.00295 -11.9942 44.4808 0.0622779 -11.9942 
40.9974 5.91301 -11.9942 48.3896 0.0622779 -10.7456 55.7818 0.0622779 -6.79818 
-53.782 7.4545 -11.9942 -55.1015 9.95551 -11.9942 -55.1015 7.4545 -11.129 
16.8736 7.4545 -11.9942 21.525 7.4545 -11.9942 18.8207 9.50519 -11.9942 
18.8207 7.4545 -11.7958 37.6088 7.4545 -11.9942 33.6051 10.4374 -11.9942 
40.9974 7.4545 -11.6754 48.3896 7.4545 -10.944 55.7818 7.4545 -6.87307 
-56.8206 14.8467 -11.9942 -55.1015 18.9601 -11.9942 27.9059 14.8467 -11.9942 
33.6051 14.8467 -11.5082 40.9974 14.8467 -10.4778 48.3896 14.8467 -8.64727 
55.7818 14.8467 -4.66915 -52.4207 22.2389 -11.9942 -55.1015 22.2389 -9.80268 
-47.7093 26.7604 -11.9942 28.6163 22.2389 -11.9942 26.2129 26.444 -11.9942 
33.6051 22.2389 -11.6332 40.9974 22.2389 -9.23093 48.3896 22.2389 -5.95962 
-44.2676 29.6312 -11.9942 -47.7093 29.6312 -9.84822 -40.3171 32.0556 -11.9942 
-32.9249 33.9665 -11.9942 -25.5326 35.6848 -11.9942 -18.1404 36.2315 -11.9942 
-10.7482 36.3843 -11.9942 -3.35598 36.2369 -11.9942 4.03624 33.9725 -11.9942 
11.4285 32.7945 -11.9942 24.8966 29.6312 -11.9942 18.8207 31.0629 -11.9942 
26.2129 29.6312 -11.8563 33.6051 29.6312 -10.2134 40.9974 29.6312 -7.27545 
-32.9249 37.0234 -7.11496 -25.5326 37.0234 -10.0233 -18.1404 37.0234 -10.4234 
-10.7482 37.0234 -10.5888 -3.35598 37.0234 -10.4867 4.03624 37.0234 -8.57779 
11.4285 37.0234 -8.67761 18.8207 37.0234 -8.41003 26.2129 37.0234 -7.9579 
33.6051 37.0234 -5.42611 -3.35598 -44.8244 -4.60194 -32.9249 -38.9238 -4.60194 
-25.5326 -41.4623 -4.60194 -18.1404 -43.0554 -4.60194 -7.9831 -44.2911 -4.60194 
-10.7482 -43.9785 -4.60194 1.69809 -44.2911 -4.60194 -3.35598 -44.2911 -2.94866 
4.03624 -44.0414 -4.60194 11.4285 -42.7862 -4.60194 18.8207 -40.2662 -4.60194 
26.2129 -38.0824 -4.60194 -47.7093 -30.1852 -4.60194 -37.6418 -36.8988 -4.60194 
-40.3171 -35.6158 -4.60194 -32.9249 -36.8988 2.50419 30.0862 -36.8988 -4.60194 
33.6051 -35.6095 -4.60194 40.9974 -32.2186 -4.60194 -48.4128 -29.5066 -4.60194 
-47.7093 -29.5066 -2.67407 45.8973 -29.5066 -4.60194 48.3896 -27.6011 -4.60194 
48.3896 -29.5066 0.443385 -54.5088 -22.1144 -4.60194 -55.1015 -21.1214 -4.60194 
53.7386 -22.1144 -4.60194 55.7818 -19.5799 -4.60194 55.7818 -22.1144 -1.14022 
-58.5623 -14.7222 -4.60194 58.1293 -14.7222 -4.60194 -60.5189 -7.32994 -4.60194 
-62.4938 -0.559084 -4.60194 59.6782 -7.32994 -4.60194 63.174 -7.32994 1.4304 
-62.6317 0.0622779 -4.60194 -62.4938 4.74222 -4.60194 -62.4938 0.0622779 -2.88 
58.4665 0.0622779 -4.60194 63.174 0.0622779 2.45986 -62.3874 7.4545 -4.60194 
58.5475 7.4545 -4.60194 -61.4851 14.8467 -4.60194 55.8596 14.8467 -4.60194 
55.7818 15.0326 -4.60194 -58.0899 22.2389 -4.60194 -55.1015 26.4182 -4.60194 
50.6599 22.2389 -4.60194 48.3896 26.9177 -4.60194 55.7818 22.2389 0.913365 
-52.1389 29.6312 -4.60194 -47.7093 33.2468 -4.60194 -40.3171 36.7362 -4.60194 
46.6281 29.6312 -4.60194 40.9974 34.1496 -4.60194 48.3896 29.6312 -3.13942 
-38.936 37.0234 -4.60194 -32.9249 38.117 -4.60194 -25.5326 39.5081 -4.60194 
-18.1404 39.2111 -4.60194 -10.7482 39.0453 -4.60194 -3.35598 39.1013 -4.60194 
4.03624 39.4339 -4.60194 11.4285 40.1487 -4.60194 18.8207 39.9895 -4.60194 
26.2129 39.7175 -4.60194 35.8034 37.0234 -4.60194 33.6051 37.7959 -4.60194 
40.9974 37.0234 -0.170922 -25.5326 -39.7328 2.79028 -18.1404 -41.0924 2.79028 
-10.7482 -41.8988 2.79028 -3.35598 -42.1829 2.79028 4.03624 -41.728 2.79028 
11.4285 -40.4417 2.79028 18.8207 -39.2677 2.79028 26.2129 -37.2498 2.79028 
-40.3171 -32.9256 2.79028 -32.7171 -36.8988 2.79028 -32.9249 -36.7931 2.79028 
-25.5326 -36.8988 7.01138 -18.1404 -36.8988 9.10834 -10.7482 -36.8988 9.76063 
-3.35598 -36.8988 9.67096 4.03624 -36.8988 9.52603 11.4285 -36.8988 8.52802 
18.8207 -36.8988 6.90202 28.0607 -36.8988 2.79028 26.2129 -36.8988 3.56187 
33.6051 -35.8356 2.79028 40.9974 -33.988 2.79028 48.3896 -30.0142 2.79028 
-45.0881 -29.5066 2.79028 -47.7093 -27.1673 2.79028 -40.3171 -29.5066 6.4115 
-32.9249 -29.5066 9.44954 40.9974 -29.5066 10.0295 49.1894 -29.5066 2.79028 
48.3896 -29.5066 4.04209 55.7818 -23.9306 2.79028 -52.5273 -22.1144 2.79028 
-55.1015 -18.2907 2.79028 -47.7093 -22.1144 6.76627 -40.3171 -22.1144 9.65214 
57.37 -22.1144 2.79028 55.7818 -22.1144 6.53747 -57.0441 -14.7222 2.79028 
-55.1015 -14.7222 4.95609 61.5209 -14.7222 2.79028 63.174 -9.00357 2.79028 
-60.1475 -7.32994 2.79028 -55.1015 -7.32994 8.71539 63.6578 -7.32994 2.79028 
63.174 -7.32994 4.52037 -61.8852 0.0622779 2.79028 63.3143 0.0622779 2.79028 
63.174 1.45673 2.79028 63.174 0.0622779 3.29262 -61.5866 7.4545 2.79028 
62.5357 7.4545 2.79028 -60.4385 14.8467 2.79028 -55.1015 14.8467 8.67078 
59.9136 14.8467 2.79028 -57.0381 22.2389 2.79028 -55.1015 24.8212 2.79028 
-55.1015 22.2389 5.13753 56.7869 22.2389 2.79028 55.7818 23.7042 2.79028 
55.7818 22.2389 5.27491 -50.4315 29.6312 2.79028 -47.7093 31.8159 2.79028 
-47.7093 29.6312 5.42774 -40.3171 35.6511 2.79028 51.5749 29.6312 2.79028 
48.3896 32.8798 2.79028 48.3896 29.6312 9.36283 -34.9044 37.0234 2.79028 
-32.9249 37.474 2.79028 -32.9249 37.0234 3.64337 -25.5326 39.0869 2.79028 
-25.5326 37.0234 6.4661 -18.1404 38.9537 2.79028 -18.1404 37.0234 7.1678 
-10.7482 39.3783 2.79028 -10.7482 37.0234 9.67543 -3.35598 40.4709 2.79028 
4.03624 41.735 2.79028 11.4285 42.6881 2.79028 18.8207 42.3012 2.79028 
26.2129 42.1076 2.79028 33.6051 41.1689 2.79028 33.6051 37.0234 9.67022 
42.5354 37.0234 2.79028 40.9974 37.9485 2.79028 40.9974 37.0234 5.28204 
-25.5326 -33.4607 10.1825 -18.1404 -35.8534 10.1825 -10.7482 -36.4639 10.1825 
-3.35598 -36.2947 10.1825 4.03624 -36.2277 10.1825 11.4285 -35.5474 10.1825 
18.8207 -34.2193 10.1825 26.2129 -33.2272 10.1825 33.6051 -31.4058 10.1825 
[...]
POINT_DATA 578
SCALARS ImageScalars float
LOOKUP_TABLE default
0 0 0 0 0 0 0 0 0 
0 0 0 0 0 0 0 0 0 
0 0 0 0 0 0 0 0 0 
0 0 0 0 0 0 0 0 0 
0 0 0 0 0 0 0 0 0 
0 0 0 0 0 0 0 0 0 
0 0 0 0 0 0 0 0 0 
0 0 0 0 0 0 0 0 0 
0 0 0 0 0 0 0 0 0 
0 0 0 0 0 0 0 0 0 
0 0 0 0 0 0 0 0 0 
0 0 0 0 0 0 0 0 0 
0 0 0 0 0 0 0 0 0 
0 0 0 0 0 0 0 0 0 
0 0 0 0 0 0 0 0 0 
0 0 0 0 0 0 0 0 0 
0 0 0 0 0 0 0 0 0 
0 0 0 0 0 0 0 0 0 
0 0 0 0 0 0 0 0 0 
0 0 0 0 0 0 0 0 0 
0 0 0 0 0 0 0 0 0 
0 0 0 0 0 0 0 0 0 
0 0 0 0 0 0 0 0 0 
0 0 0 0 0 0 0 0 0 
0 0 0 0 0 0 0 0 0 
0 0 0 0 0 0 0 0 0 
0 0 0 0 0 0 0 0 0 
0 0 0 0 0 0 0 0 0 
0 0 0 0 0 0 0 0 0 
0 0 0 0 0 0 0 0 0 
0 0 0 0 0 0 0 0 0 
0 0 0 0 0 0 0 0 0 
0 0 0 0 0 0 0 0 0 
0 0 0 0 0 0 0 0 0 
0 0 0 0 0 0 0 0 0 
0 0 0 0 0 0 0 0 0 
0 0 0 0 0 0 0 0 0 
0 0 0 0 0 0 0 0 0 
0 0 0 0 0 0 0 0 0 
0 0 0 0 0 0 0 0 0 
0 0 0 0 0 0 0 0 0 
0 0 0 0 0 0 0 0 0 
0 0 0 0 0 0 0 0 0 
0 0 0 0 0 0 0 0 0 
0 0 0 0 0 0 0 0 0 
0 0 0 0 0 0 0 0 0 
0 0 0 0 0 0 0 0 0 
0 0 0 0 0 0 0 0 0 
0 0 0 0 0 0 0 0 0 
0 0 0 0 0 0 0 0 0 
0 0 0 0 0 0 0 0 0 
0 0 0 0 0 0 0 0 0 
0 0 0 0 0 0 0 0 0 
0 0 0 0 0 0 0 0 0 
0 0 0 0 0 0 0 0 0 
0 0 0 0 0 0 0 0 0 
0 0 0 0 0 0 0 0 0 
0 0 0 0 0 0 0 0 0 
0 0 0 0 0 0 0 0 0 
0 0 0 0 0 0 0 0 0 
0 0 0 0 0 0 0 0 0 
0 0 0 0 0 0 0 0 0 
0 0 0 0 0 0 0 0 0 
0 0 0 0 0 0 0 0 0 
0 0 
NORMALS Normals float
0.0812756 -0.0206835 0.996477 0.176843 0.631896 0.754608 0.0686203 0.553164 0.830242 
0.0227587 0.485859 0.873741 -0.0558202 0.460469 0.885919 -0.13014 0.48638 0.864001 
-0.182005 0.55771 0.809835 0.445327 0.402143 0.799978 0.190766 0.322278 0.927225 
0.0870428 0.249277 0.964513 0.00544677 0.179891 0.983671 -0.02849 0.105982 0.99396 
-0.0511661 0.0217363 0.998454 -0.0704067 0.0822836 0.994119 -0.0844474 0.223998 0.970924 
-0.143167 0.29102 0.945944 -0.238006 0.391859 0.888706 0.51536 0.258001 0.817214 
0.304222 0.0565674 0.95092 0.214232 0.0484496 0.97558 0.0432173 -0.00591979 0.999048 
-0.0678847 -0.0198951 0.997495 -0.13961 -0.0697704 0.987745 -0.0784563 -0.10956 0.990879 
0.0596664 -0.0146619 0.998111 0.024852 0.0500338 0.998438 -0.0851543 0.0905357 0.992246 
-0.147846 0.161974 0.975657 -0.215785 0.23214 0.948445 -0.284677 0.269066 0.920088 
0.346648 0.133013 0.928516 0.200934 0.0201243 0.979398 0.123685 -0.0941171 0.987848 
0.0209353 -0.169976 0.985226 -0.0539924 -0.15546 0.986365 -0.128529 -0.019236 0.991519 
-0.00639123 0.0827308 0.996551 0.0959974 0.0880617 0.991479 0.0198283 0.0103801 0.99975 
-0.0346193 0.0176023 0.999246 -0.0761467 0.0230992 0.996829 -0.175075 0.0488418 0.983343 
-0.297942 0.0754268 0.951599 0.550429 0.0419447 0.833828 0.261994 0.0644521 0.962915 
0.0833616 0.0285831 0.996109 0.0357628 -0.0653219 0.997223 -0.021268 -0.0997888 0.994781 
0.0728604 -0.0997267 0.992344 0.0816905 -0.0189836 0.996477 0.113547 0.187462 0.975687 
0.0211511 0.0905955 0.995663 -0.0164314 -0.107758 0.994041 -0.0450324 0.00887481 0.998946 
-0.0725824 -0.0821201 0.993976 -0.118275 -0.128599 0.984618 -0.159917 -0.0974731 0.982306 
-0.227908 -0.054342 0.972165 0.267316 0.021982 0.963358 0.0909336 0.0744628 0.993069 
-0.00133764 0.0741219 0.997248 -0.011242 0.0927642 0.995625 0.0821983 -0.0201606 0.996412 
0.220114 0.0899074 0.971322 0.0787795 -0.0215365 0.996659 0.0801754 -0.021747 0.996544 
-0.312251 -0.157478 0.936857 0.052681 -0.120819 0.991276 0.0445051 -0.234213 0.971166 
-0.171348 -0.333081 0.927198 -0.0848273 -0.246171 0.965507 -0.0931444 -0.1738 0.980366 
-0.212393 -0.1188 0.969936 0.301986 0.0307982 0.952815 0.154813 0.0905764 0.983783 
0.0543035 0.148503 0.98742 -0.0177052 0.15338 0.988009 -0.0290608 0.110166 0.993488 
-0.125256 -0.15994 0.979148 -0.0714073 -0.00209631 0.997445 -0.115398 0.0328164 0.992777 
-0.278331 -0.235376 0.931198 0.0365991 -0.155126 0.987217 -0.0431045 -0.16988 0.984522 
0.527382 -0.0407862 0.848649 0.264555 -0.0179094 0.964204 0.212058 -0.00488388 0.977245 
0.0612679 0.0180859 0.997957 -0.0423724 0.0707336 0.996595 -0.0888607 0.0688413 0.993662 
-0.0883156 0.0697549 0.993647 -0.10239 0.155393 0.982532 -0.175722 0.0179554 0.984276 
-0.182867 0.102197 0.977812 -0.091674 0.0966796 0.991085 -0.0734674 -0.011787 0.997228 
0.380954 -0.284447 0.879753 0.193927 -0.140356 0.970924 0.118741 -0.161504 0.979703 
0.0295521 -0.123867 0.991859 -0.0321717 -0.0164611 0.999347 -0.035149 0.0238458 0.999098 
-0.127085 0.0161709 0.99176 -0.199983 -0.0112888 0.979734 -0.17807 0.00576283 0.984001 
-0.146444 0.00906758 0.989177 -0.113208 -0.0212358 0.993344 0.307208 -0.507847 0.804807 
0.0992996 -0.483854 0.869497 0.118453 -0.414317 0.902392 0.0613352 -0.33689 0.939544 
-0.0517479 -0.302675 0.951688 -0.138694 -0.334938 0.931977 -0.194565 -0.356606 0.913771 
-0.146982 -0.298444 0.943042 -0.123717 -0.239874 0.962889 0.218886 0.789249 0.573738 
0.095005 0.762256 0.640266 0.0442911 0.739751 0.671422 -0.0496004 0.703786 0.708678 
-0.00395094 0.990418 0.138048 -0.13781 0.665763 0.733327 -0.193185 0.646636 0.73793 
0.475347 0.581825 0.659943 0.332506 0.752807 0.568085 0.359912 0.719548 0.593898 
0.37907 0.82906 0.411053 -0.223573 0.647426 0.728597 -0.234141 0.635367 0.735857 
-0.248966 0.708502 0.660334 -0.265159 0.531113 0.804742 -0.306645 0.890856 0.335177 
0.543223 0.480248 0.688673 0.533057 0.290278 0.794725 0.695808 0.700581 0.15823 
-0.245368 0.450056 0.858629 -0.244585 0.438589 0.864765 -0.251006 0.462946 0.850104 
-0.29175 0.293966 0.910201 -0.411806 0.671647 0.615879 0.529251 0.267087 0.805331 
-0.298585 0.272023 0.914795 -0.529804 0.362448 0.766772 0.462411 0.206964 0.862173 
0.555267 0.0604972 0.829469 0.690687 0.301872 0.657134 -0.391056 0.0980557 0.915129 
-0.443479 0.140833 0.885151 -0.60985 0.24171 0.754758 0.555938 0.0440323 0.830056 
0.547772 0.0264374 0.83621 -0.272845 -0.0178984 0.961891 -0.301199 0.00204742 0.953559 
-0.627666 0.00946608 0.778425 0.946401 0.105859 0.305154 0.47536 -0.0316252 0.879223 
0.548937 -0.042184 0.834799 -0.0229027 -0.185394 0.982397 -0.272845 -0.0702257 0.959491 
-0.111617 -0.167312 0.979565 -0.349949 -0.0369069 0.936042 -0.571367 -0.0488653 0.819239 
0.503368 0.124112 0.855112 0.554122 0.0892585 0.827636 0.572531 0.127326 0.809936 
-0.0805244 -0.190205 0.978436 0.00485308 -0.168137 0.985752 -0.037118 -0.097831 0.994511 
-0.0140986 -0.172132 0.984973 -0.0645458 -0.175095 0.982433 -0.0683936 -0.117935 0.990663 
-0.0868244 -0.179722 0.979878 -0.317177 -0.108573 0.942131 -0.558026 -0.137385 0.818372 
0.656332 -0.0654551 0.751627 0.597178 -0.259116 0.759103 -0.08068 -0.0205821 0.996528 
-0.104344 -0.0466212 0.993448 -0.176513 -0.167204 0.969993 -0.367245 -0.266131 0.891238 
-0.612614 -0.312359 0.726041 0.527577 -0.397713 0.750658 0.677889 -0.449889 0.581434 
0.43537 -0.483751 0.759235 -0.147015 -0.042126 0.988237 -0.140917 -0.117251 0.983054 
-0.213857 -0.090731 0.972642 -0.311906 -0.17077 0.93464 -0.461217 -0.280148 0.8419 
0.407614 -0.560659 0.720772 0.508755 -0.636971 0.579169 0.321188 -0.641524 0.696624 
0.163047 -0.719066 0.675544 0.114281 -0.725932 0.678205 0.0338306 -0.811545 0.58331 
0.00143628 -0.841274 0.540607 -0.108453 -0.79525 0.596502 -0.15116 -0.608302 0.779179 
-0.0983573 -0.460856 0.882008 -0.152865 -0.198107 0.968187 -0.105403 -0.315802 0.942953 
-0.159756 -0.191205 0.968462 -0.249855 -0.303829 0.91938 -0.43599 -0.396226 0.808033 
0.174577 -0.935255 0.307931 0.101656 -0.846641 0.522364 0.0165723 -0.88232 0.470358 
0.00203643 -0.895033 0.445995 -0.0767851 -0.863132 0.499107 -0.0408653 -0.815457 0.577373 
-0.00853521 -0.731755 0.681514 -0.0345625 -0.726357 0.686448 -0.145847 -0.6887 0.710226 
-0.25916 -0.732213 0.629841 0.00302525 0.999728 0.0231075 0.356072 0.934332 0.0153758 
0.256842 0.966372 0.0125191 0.175891 0.984224 0.0191123 0.0781976 0.996821 0.0152888 
0.120986 0.992525 0.0160004 -0.0870912 0.995573 0.0353502 0.00195645 0.996441 -0.0842677 
-0.13013 0.99045 0.0455428 -0.266681 0.961605 0.0647845 -0.294927 0.946358 0.131999 
-0.296016 0.938542 0.177519 0.679606 0.732719 0.0354746 0.4549 0.890357 -0.0181703 
0.523937 0.851422 -0.0239042 0.401462 0.818005 -0.411941 -0.308898 0.926919 0.213081 
-0.335765 0.902072 0.27116 -0.430969 0.809623 0.398468 0.695049 0.718216 0.0327571 
0.694027 0.712131 -0.105817 -0.514427 0.742542 0.428947 -0.570067 0.661728 0.486969 
-0.536495 0.841028 0.0696142 0.825707 0.544114 0.148825 0.840355 0.519833 0.153549 
-0.631387 0.519265 0.575947 -0.660604 0.437041 0.610408 -0.733824 0.611124 0.296698 
0.909651 0.360746 0.205906 -0.747166 0.252719 0.614716 0.917376 0.253332 0.306991 
0.948628 0.119272 0.293051 -0.732906 0.0411894 0.679082 -0.98245 0.120229 0.14261 
0.950406 0.105299 0.292642 0.955651 -0.00288763 0.294489 0.983899 0.110183 0.140718 
-0.722145 -0.0465922 0.690171 -0.99325 -0.0745096 0.0888946 0.953028 -0.0653648 0.295745 
-0.714056 -0.148637 0.684128 0.928038 -0.292035 0.231218 -0.615498 -0.314831 0.722526 
-0.616168 -0.31857 0.720313 0.862703 -0.468837 0.189568 0.773089 -0.61219 0.166005 
-0.575994 -0.334782 0.745756 -0.555307 -0.392709 0.733085 -0.84142 -0.514395 0.165558 
0.66508 -0.727172 0.169966 0.53031 -0.831749 0.164209 0.3115 -0.940605 0.13502 
-0.549516 -0.458523 0.698418 -0.44935 -0.608992 0.653616 -0.632227 -0.531996 0.563267 
0.284029 -0.948872 0.137728 0.176202 -0.971044 0.16133 0.0743227 -0.982269 0.172118 
-0.0305565 -0.98853 0.1479 -0.00769386 -0.984879 0.173072 0.0241862 -0.966226 0.256558 
0.0651143 -0.906497 0.417161 0.0361252 -0.868647 0.494113 -0.025984 -0.867168 0.497338 
-0.121276 -0.833374 0.53924 -0.310095 -0.744126 0.591708 -0.258694 -0.763471 0.591767 
-0.482618 -0.851321 0.20575 0.263224 0.873532 -0.409456 0.135646 0.905939 -0.401093 
0.0701819 0.894708 -0.441104 -0.0104526 0.877914 -0.478703 -0.111972 0.88602 -0.449924 
-0.159563 0.8988 -0.408286 -0.203614 0.921946 -0.329481 -0.225342 0.936054 -0.270229 
0.431796 0.743425 -0.510755 0.397109 0.810749 -0.430106 0.400541 0.807474 -0.433074 
0.261585 0.748369 -0.609522 0.118816 0.737929 -0.664337 0.0228963 0.704699 -0.709137 
-0.0102801 0.67674 -0.736151 -0.0456657 0.714674 -0.697966 -0.106886 0.789893 -0.603858 
-0.161581 0.839167 -0.519317 -0.22043 0.94151 -0.25489 -0.218593 0.928292 -0.300817 
-0.204396 0.956621 -0.207602 -0.354628 0.927089 -0.121426 -0.50646 0.858424 -0.0812786 
0.585349 0.625243 -0.516177 0.623696 0.579799 -0.524249 0.442945 0.571562 -0.690736 
0.352127 0.465851 -0.811782 -0.260913 0.728211 -0.633746 -0.527007 0.846716 -0.0730426 
-0.497779 0.854072 -0.150925 -0.748029 0.663652 -0.00425836 0.688826 0.538582 -0.48523 
0.734903 0.496737 -0.461704 0.502923 0.522019 -0.688887 0.341864 0.356303 -0.869584 
-0.787284 0.616557 -0.00646377 -0.715731 0.634363 -0.292084 0.781167 0.445679 -0.437205 
0.691033 0.444208 -0.570222 -0.935702 0.348167 0.0569349 -0.984781 0.168605 0.0421734 
0.890004 0.271673 -0.366177 0.657495 0.308499 -0.687407 -0.992117 0.119538 0.0376046 
-0.990584 0.124143 -0.0577158 0.916114 0.100122 -0.388216 -0.994791 -0.0722561 0.0719046 
-0.992392 -0.099772 0.0721382 -0.996158 -0.0736779 0.047344 0.915959 -0.0893506 -0.391197 
-0.971549 -0.225388 0.0727565 0.906741 -0.285852 -0.310015 0.552522 -0.307669 -0.774635 
-0.934524 -0.34756 0.0765963 0.764113 -0.517133 -0.385624 0.71063 -0.599888 -0.367612 
0.689136 -0.478599 -0.544091 -0.864635 -0.499272 0.0559775 -0.848849 -0.525722 0.0554235 
-0.834393 -0.524499 -0.169377 0.622875 -0.691712 -0.36546 0.553488 -0.739343 -0.383436 
0.529423 -0.646036 -0.549863 0.345514 -0.862476 -0.369804 -0.759656 -0.649394 0.0347848 
-0.667983 -0.744079 0.0120252 -0.561945 -0.564011 -0.60507 0.244279 -0.918404 -0.311228 
0.21043 -0.933241 -0.29117 0.217198 -0.915235 -0.339368 0.0988873 -0.954519 -0.281272 
0.123672 -0.857455 -0.499476 0.0200443 -0.975871 -0.217427 0.0880652 -0.870139 -0.484874 
0.101236 -0.986773 -0.126607 0.197512 -0.802932 -0.562395 0.157368 -0.987538 -0.00207516 
0.148895 -0.987223 0.0567482 0.0388143 -0.998025 0.049383 -0.0393352 -0.998927 0.024428 
-0.0725798 -0.996646 -0.037799 -0.278049 -0.959308 -0.0491701 -0.226583 -0.742094 -0.630839 
-0.501251 -0.865035 -0.0214852 -0.466314 -0.884204 -0.0271094 -0.459204 -0.861226 -0.217766 
0.282254 0.55769 -0.780586 0.120864 0.681476 -0.721791 0.0194465 0.683654 -0.729547 
-0.0101143 0.644637 -0.764422 -0.035208 0.680467 -0.731932 -0.0927762 0.719768 -0.687988 
-0.116657 0.699737 -0.704811 -0.138963 0.752315 -0.643981 -0.192146 0.711935 -0.675447 
0.342297 0.443496 -0.828338 0.341123 0.40993 -0.845927 0.302348 0.384835 -0.87206 
0.14591 0.398854 -0.905332 -0.0103606 0.421481 -0.906778 -0.0195461 0.35369 -0.935158 
0.0315013 0.391308 -0.91972 -0.04558 0.449867 -0.891932 -0.0904022 0.492464 -0.865625 
-0.114475 0.569633 -0.813888 -0.25431 0.719135 -0.646662 -0.177686 0.646936 -0.741553 
-0.256956 0.719028 -0.645734 -0.419873 0.677923 -0.60343 0.423748 0.353031 -0.83415 
0.331027 0.332251 -0.883193 0.310644 0.342578 -0.886646 0.284048 0.238214 -0.928747 
0.269718 0.111346 -0.95648 0.172737 0.0873919 -0.981083 -0.0236398 0.0971401 -0.99499 
-0.0279257 0.120011 -0.99238 0.0773153 0.180791 -0.980478 -0.00449205 0.152525 -0.988289 
-0.0281563 0.19401 -0.980595 0.0195913 0.268531 -0.963072 -0.0595578 0.331588 -0.941543 
-0.178521 0.401198 -0.898427 -0.553396 0.58115 -0.596672 -0.417809 0.494969 -0.761867 
-0.625662 0.512186 -0.588399 0.44786 0.318176 -0.835575 0.402072 0.283029 -0.870766 
0.187788 0.270716 -0.944166 0.109952 0.18604 -0.976371 0.161394 0.037103 -0.986192 
0.151856 -0.06888 -0.986 0.0176948 -0.0433641 -0.998903 0.0534109 0.106604 -0.992866 
-0.0320989 0.00559753 -0.999469 0.0296478 0.0407197 -0.998731 -0.297021 0.197568 -0.934208 
-0.776386 0.330594 -0.536594 -0.542226 0.316504 -0.778342 0.491889 0.235913 -0.838087 
0.563356 0.161204 -0.810335 0.290242 0.161034 -0.943307 0.184536 0.133308 -0.973743 
0.0583341 0.144534 -0.987779 0.0188963 0.104295 -0.994367 0.0974065 0.0251835 -0.994926 
0.149762 0.0467513 -0.987616 0.128413 -0.0229183 -0.991456 -0.0745613 0.00937732 -0.997172 
0.0714603 -0.00372703 -0.997436 -0.222086 0.0452187 -0.973978 -0.838852 0.0853663 -0.537624 
-0.477205 0.0558492 -0.877015 0.562269 0.0999338 -0.820894 0.537982 0.0876777 -0.838384 
0.308308 0.0914214 -0.946884 0.142862 0.0816076 -0.986372 0.0721183 0.0609258 -0.995534 
0.0390114 0.0888477 -0.995281 0.0927665 0.0789629 -0.992552 -0.181465 0.00255862 -0.983394 
0.143322 -0.154549 -0.977534 0.122388 -0.0139325 -0.992385 0.022501 -0.0166642 -0.999608 
-0.2336 -0.0762592 -0.969338 -0.827479 -0.055565 -0.558741 -0.478146 -0.0525372 -0.876707 
0.572718 -0.101876 -0.813398 0.54602 -0.148122 -0.824573 0.556858 -0.10294 -0.824204 
0.339147 -0.0934766 -0.936078 0.148463 -0.0576264 -0.987237 0.0659741 0.00554119 -0.997806 
0.0371836 -0.0226323 -0.999052 0.1106 -0.0406387 -0.993034 -0.0418081 0.000849669 -0.999125 
0.0603514 -0.093198 -0.993817 0.0228118 -0.0337043 -0.999171 0.0539194 -0.0561384 -0.996966 
-0.261256 -0.0480564 -0.964073 -0.814116 -0.167454 -0.556035 -0.513198 -0.156157 -0.843944 
0.413642 -0.238574 -0.878626 0.310654 -0.171292 -0.934961 0.234667 -0.138268 -0.962192 
0.105916 -0.119623 -0.987154 -0.00597604 -0.092454 -0.995699 -0.0157644 -0.0634606 -0.99786 
-0.0620297 -0.168783 -0.9837 -0.0334325 -0.135466 -0.990218 0.0855365 -0.0219085 -0.996094 
0.102549 -0.0273739 -0.994351 0.0581566 -0.0137743 -0.998212 0.0255486 -0.03837 -0.998937 
-0.0209849 -0.0498069 -0.998538 -0.0737337 -0.182801 -0.980381 -0.321079 -0.183687 -0.929068 
-0.714415 -0.34673 -0.607775 -0.663407 -0.401261 -0.631571 -0.634801 -0.3331 -0.697189 
0.439424 -0.337207 -0.832585 0.41095 -0.380154 -0.828615 0.397128 -0.329711 -0.856493 
0.219713 -0.257265 -0.941032 0.12597 -0.25931 -0.957544 0.0928129 -0.183462 -0.978636 
0.0249328 -0.122516 -0.992153 0.00176449 -0.0890517 -0.996025 0.0315447 0.0192486 -0.999317 
0.0727923 0.0649852 -0.995228 0.0677578 0.00341176 -0.997696 0.0114802 -0.0544882 -0.998448 
0.0164327 -0.082805 -0.99643 -0.115784 -0.171487 -0.978359 -0.229756 -0.204313 -0.951561 
-0.600532 -0.423822 -0.678038 -0.525589 -0.506569 -0.68348 -0.475146 -0.372898 -0.796984 
0.302369 -0.513493 -0.803055 0.290604 -0.524188 -0.800485 0.288704 -0.5036 -0.814271 
0.186082 -0.556277 -0.809895 0.168044 -0.471958 -0.865458 0.139967 -0.628424 -0.765175 
0.129688 -0.420074 -0.898175 0.129378 -0.6816 -0.720197 0.0952838 -0.401067 -0.91108 
0.200694 -0.769988 -0.605674 0.0831904 -0.291576 -0.952923 0.125996 -0.200899 -0.971476 
0.0697235 -0.124747 -0.989736 -0.0150077 -0.178737 -0.983782 -0.0306281 -0.219055 -0.975232 
-0.0886568 -0.24765 -0.964785 -0.217441 -0.700778 -0.679434 -0.152854 -0.360041 -0.920329 
-0.502001 -0.530888 -0.682754 -0.36783 -0.637356 -0.67711 -0.342924 -0.487263 -0.803105 
0.204025 -0.778795 -0.593171 0.222608 -0.800936 -0.55583 0.210901 -0.67931 -0.702893 
0.128726 -0.830837 -0.541423 0.0964629 -0.596534 -0.79677 0.00919078 -0.810583 -0.585551 
-0.0197464 -0.577339 -0.816266 -0.113418 -0.802324 -0.586013 -0.0820226 -0.596944 -0.798079 
-0.219382 -0.713802 -0.6651 -0.208849 -0.743187 -0.635654 -0.189361 -0.653517 -0.732842 
0.0771008 0.121722 -0.989565 0.0501026 0.145691 -0.988061 -0.0191123 0.211959 -0.977092 
-0.150081 0.213843 -0.96527 0.0753412 0.112783 -0.990759 0.0262005 0.0635234 -0.997636 
0.0776769 0.113558 -0.99049 0.0448925 0.0751596 -0.996161 0.058121 0.105438 -0.992726 
0.0130626 0.123385 -0.992273 -0.18201 0.173128 -0.967936 -0.1458 0.170737 -0.97447 
-0.0360022 0.106086 -0.993705 0.121879 -0.028867 -0.992125 -0.0580057 -0.053663 -0.996873 
0.00682041 -0.165015 -0.986268 -0.0241491 -0.158483 -0.987066 0.0854346 -0.00123012 -0.996343 
0.103803 0.00230403 -0.994595 0.00450848 0.0237418 -0.999708 -0.173395 0.0262484 -0.984502 
-0.096487 -0.0135817 -0.995242 -0.0362379 0.106235 -0.993681 -0.0375383 0.106054 -0.993652 
-0.0369985 0.106385 -0.993636 -0.139719 -0.0646357 -0.988079 0.0578364 -0.0414325 -0.997466 
0.0686275 -0.0594893 -0.995867 0.0872166 -0.0626482 -0.994218 -0.00244263 -0.0684941 -0.997649 
-0.137413 -0.044173 -0.989528 -0.113747 -0.0315424 -0.993009 0.0952099 -0.116645 -0.9886 
0.0660582 -0.145728 -0.987117 0.0888373 -0.139544 -0.986223 -0.127644 -0.0665434 -0.989585 
-0.129589 -0.0789328 -0.988421 -0.136522 -0.0730244 -0.987942 0.0386755 -0.0828315 -0.995813 
0.0232259 -0.0853721 -0.996078 0.032628 -0.0935397 -0.995081 -0.135542 -0.070676 -0.988248 
-0.106665 -0.100869 -0.989165 -0.117308 -0.0750644 -0.990255 
