# vtk DataFile Version 4.2
vtk output
ASCII
DATASET POLYDATA
POINTS 520 float
-31.0897 -31.3428 -14.4152 -23.7919 -31.3428 -16.0753 -16.4941 -31.3428 -16.6975 
-9.19637 -31.3428 -17.1345 -1.8986 -31.3428 -17.6168 5.39917 -31.3428 -17.3944 
12.6969 -31.3428 -17.1703 19.9947 -31.3428 -16.866 27.2925 -31.3428 -16.0311 
34.5903 -31.3428 -14.3759 -38.3875 -24.045 -16.3218 -31.0897 -24.045 -18.8198 
-23.7919 -24.045 -19.2236 -16.4941 -24.045 -19.3842 -9.19637 -24.045 -19.2338 
-1.8986 -24.045 -19.8384 5.39917 -24.045 -19.4186 12.6969 -24.045 -18.9429 
19.9947 -24.045 -19.3311 27.2925 -24.045 -19.5212 34.5903 -24.045 -18.0411 
41.888 -24.045 -15.6719 -45.6852 -16.7473 -14.6755 -38.3875 -16.7473 -18.8658 
-31.0897 -16.7473 -20.0489 -23.7919 -16.7473 -20.8167 -16.4941 -16.7473 -20.028 
-9.19637 -16.7473 -20.0494 -1.8986 -16.7473 -19.7548 5.39917 -16.7473 -18.8674 
12.6969 -16.7473 -19.334 19.9947 -16.7473 -20.0409 27.2925 -16.7473 -20.3481 
34.5903 -16.7473 -19.7413 41.888 -16.7473 -17.9468 -45.6852 -9.44949 -16.4958 
-38.3875 -9.44949 -19.6443 -31.0897 -9.44949 -20.4893 -23.7919 -9.44949 -20.2577 
-16.4941 -9.44949 -19.8718 -9.19637 -9.44949 -21.1089 -1.8986 -9.44949 -19.2757 
5.39917 -9.44949 -18.2053 12.6969 -9.44949 -19.4997 19.9947 -9.44949 -19.6603 
27.2925 -9.44949 -20.0186 34.5903 -9.44949 -19.9551 41.888 -9.44949 -18.6591 
49.1858 -9.44949 -14.8349 -45.6852 -2.15172 -16.3356 -38.3875 -2.15172 -19.4191 
-31.0897 -2.15172 -20.1941 -23.7919 -2.15172 -19.7386 -16.4941 -2.15172 -18.9635 
-9.19637 -2.15172 -21.2347 -1.8986 -2.15172 -17.5697 5.39917 -2.15172 -18.881 
12.6969 -2.15172 -20.5122 19.9947 -2.15172 -18.8601 27.2925 -2.15172 -19.3794 
34.5903 -2.15172 -19.7801 41.888 -2.15172 -18.9236 49.1858 -2.15172 -16.2023 
-45.6852 5.14605 -14.8589 -38.3875 5.14605 -18.2776 -31.0897 5.14605 -19.2747 
-23.7919 5.14605 -18.8511 -16.4941 5.14605 -18.0788 -9.19637 5.14605 -20.1911 
-1.8986 5.14605 -18.6108 5.39917 5.14605 -19.7367 12.6969 5.14605 -19.3911 
19.9947 5.14605 -18.4414 27.2925 5.14605 -19.2586 34.5903 5.14605 -19.8083 
41.888 5.14605 -19.3273 49.1858 5.14605 -16.318 -38.3875 12.4438 -16.5812 
-31.0897 12.4438 -18.1356 -23.7919 12.4438 -18.6502 -16.4941 12.4438 -18.0327 
-9.19637 12.4438 -19.2668 -1.8986 12.4438 -19.3989 5.39917 12.4438 -18.4174 
12.6969 12.4438 -18.1088 19.9947 12.4438 -18.6607 27.2925 12.4438 -19.4123 
34.5903 12.4438 -19.7295 41.888 12.4438 -18.0226 49.1858 12.4438 -14.1522 
-31.0897 19.7416 -16.0111 -23.7919 19.7416 -17.0456 -16.4941 19.7416 -17.0846 
-9.19637 19.7416 -16.7474 -1.8986 19.7416 -16.748 5.39917 19.7416 -16.8652 
12.6969 19.7416 -17.1017 19.9947 19.7416 -17.7925 27.2925 19.7416 -18.6069 
34.5903 19.7416 -17.6921 41.888 19.7416 -15.1561 -1.8986 27.0394 -14.5061 
5.39917 27.0394 -15.435 12.6969 27.0394 -15.7719 19.9947 27.0394 -15.6427 
27.2925 27.0394 -15.0322 -31.0897 -31.6426 -14.0719 -23.7919 -33.8014 -14.0719 
-16.4941 -34.4236 -14.0719 -9.19637 -35.2036 -14.0719 -1.8986 -35.6252 -14.0719 
5.39917 -35.4824 -14.0719 12.6969 -34.9197 -14.0719 19.9947 -34.9306 -14.0719 
19.9947 -38.6406 -7.52885 27.2925 -33.7248 -14.0719 34.5903 -31.6522 -14.0719 
-31.6951 -31.3428 -14.0719 -38.3875 -26.87 -14.0719 35.0819 -31.3428 -14.0719 
41.888 -26.1761 -14.0719 -41.2956 -24.045 -14.0719 -45.6852 -17.9007 -14.0719 
-45.6852 -24.045 -6.90376 43.7111 -24.045 -14.0719 -46.2807 -16.7473 -14.0719 
47.4006 -16.7473 -14.0719 49.1858 -12.2812 -14.0719 49.1858 -16.7473 -11.2624 
-48.1188 -9.44949 -14.0719 49.9792 -9.44949 -14.0719 -48.1415 -2.15172 -14.0719 
51.4042 -2.15172 -14.0719 -46.5625 5.14605 -14.0719 -45.6852 7.55136 -14.0719 
51.422 5.14605 -14.0719 -43.1443 12.4438 -14.0719 -45.6852 12.4438 -11.6953 
-38.3875 18.3943 -14.0719 49.2682 12.4438 -14.0719 49.1858 12.5921 -14.0719 
-36.6867 19.7416 -14.0719 -38.3875 19.7416 -13.2735 -31.0897 23.6146 -14.0719 
-23.7919 26.6367 -14.0719 -16.4941 26.5162 -14.0719 -9.19637 26.2837 -14.0719 
34.5903 25.8581 -14.0719 43.4179 19.7416 -14.0719 41.888 21.1297 -14.0719 
-31.0897 27.0394 -11.8635 -23.7919 27.0394 -13.8518 -16.4941 27.0394 -13.8201 
-6.20296 27.0394 -14.0719 -9.19637 27.0394 -13.7533 -1.8986 28.0142 -14.0719 
5.39917 30.3521 -14.0719 12.6969 31.0024 -14.0719 19.9947 29.8417 -14.0719 
31.4349 27.0394 -14.0719 27.2925 28.5256 -14.0719 34.5903 27.0394 -12.9433 
-23.7919 34.3371 -7.29419 -16.4941 34.3371 -8.90314 -9.19637 34.3371 -9.45102 
-1.8986 34.3371 -10.7591 5.39917 34.3371 -12.0837 12.6969 34.3371 -12.2386 
19.9947 34.3371 -11.0124 27.2925 34.3371 -7.82348 19.9947 -38.9541 -6.77416 
-31.0897 -34.6812 -6.77416 -23.7919 -37.0521 -6.77416 -16.4941 -37.9807 -6.77416 
-9.19637 -38.3644 -6.77416 -1.8986 -38.4823 -6.77416 5.39917 -38.4399 -6.77416 
13.2974 -38.6406 -6.77416 12.6969 -38.6133 -6.77416 21.8904 -38.6406 -6.77416 
19.9947 -38.6406 -2.60257 27.2925 -37.7471 -6.77416 34.5903 -35.5281 -6.77416 
-45.6852 -24.1185 -6.77416 -37.6828 -31.3428 -6.77416 -38.3875 -30.9229 -6.77416 
41.2223 -31.3428 -6.77416 41.888 -30.7859 -6.77416 -45.746 -24.045 -6.77416 
-45.6852 -24.045 -6.05811 47.3813 -24.045 -6.77416 49.1858 -20.5153 -6.77416 
-49.9019 -16.7473 -6.77416 50.9508 -16.7473 -6.77416 -52.1156 -9.44949 -6.77416 
53.0024 -9.44949 -6.77416 -52.6331 -2.15172 -6.77416 -52.983 -2.15172 -2.84998 
54.219 -2.15172 -6.77416 -51.4177 5.14605 -6.77416 54.2598 5.14605 -6.77416 
-48.8448 12.4438 -6.77416 -45.6852 18.6731 -6.77416 52.2954 12.4438 -6.77416 
49.1858 18.1391 -6.77416 -45.0041 19.7416 -6.77416 -45.6852 19.7416 -3.23198 
-38.3875 26.5161 -6.77416 48.1464 19.7416 -6.77416 41.888 26.0354 -6.77416 
-37.7619 27.0394 -6.77416 -38.3875 27.0394 -4.9132 -31.0897 31.4809 -6.77416 
40.5905 27.0394 -6.77416 34.5903 31.1292 -6.77416 -24.7205 34.3371 -6.77416 
-23.7919 34.7289 -6.77416 -16.4941 36.2021 -6.77416 -9.19637 37.1364 -6.77416 
-1.8986 38.7343 -6.77416 5.39917 40.021 -6.77416 12.6969 39.759 -6.77416 
19.9947 37.9892 -6.77416 28.5142 34.3371 -6.77416 27.2925 34.9893 -6.77416 
-9.19637 41.6349 0.507275 -1.8986 41.6349 -1.87316 5.39917 41.6349 -3.2728 
12.6969 41.6349 -0.882215 -31.0897 -33.4961 0.523615 -23.7919 -35.3268 0.523615 
-16.4941 -36.67 0.523615 -9.19637 -37.6702 0.523615 -1.8986 -38.0277 0.523615 
5.39917 -37.9177 0.523615 12.6969 -38.0824 0.523615 19.9947 -38.3968 0.523615 
27.2925 -37.6134 0.523615 34.5903 -35.2131 0.523615 -36.1609 -31.3428 0.523615 
-38.3875 -30.2633 0.523615 -31.0897 -31.3428 5.27961 39.8452 -31.3428 0.523615 
34.5903 -31.3428 6.69314 41.888 -29.5315 0.523615 -45.1079 -24.045 0.523615 
-45.6852 -23.3571 0.523615 46.5069 -24.045 0.523615 49.1858 -17.5968 0.523615 
-50.0638 -16.7473 0.523615 49.5037 -16.7473 0.523615 49.1858 -16.7473 1.16792 
-52.6289 -9.44949 0.523615 -52.983 -5.47568 0.523615 51.2216 -9.44949 0.523615 
49.1858 -9.44949 4.02228 -53.2729 -2.15172 0.523615 -52.983 -0.0525683 0.523615 
-52.983 -2.15172 1.79732 52.4059 -2.15172 0.523615 49.1858 -2.15172 5.7733 
-52.2541 5.14605 0.523615 52.5473 5.14605 0.523615 49.1858 5.14605 6.23696 
-50.1274 12.4438 0.523615 50.3323 12.4438 0.523615 49.1858 15.4417 0.523615 
49.1858 12.4438 2.59689 -46.2396 19.7416 0.523615 -45.6852 20.4819 0.523615 
-45.6852 19.7416 2.85785 47.209 19.7416 0.523615 41.888 25.3633 0.523615 
-39.7685 27.0394 0.523615 -38.3875 28.3351 0.523615 -38.3875 27.0394 6.99411 
-31.0897 33.6616 0.523615 40.212 27.0394 0.523615 34.5903 31.5324 0.523615 
-29.9041 34.3371 0.523615 -23.7919 37.4088 0.523615 -16.4941 39.9377 0.523615 
19.9947 39.5671 0.523615 30.2085 34.3371 0.523615 27.2925 36.0691 0.523615 
27.2925 34.3371 6.62509 -9.23326 41.6349 0.523615 -9.19637 41.6428 0.523615 
-9.19637 41.6349 0.960371 -1.8986 42.6903 0.523615 5.39917 42.9886 0.523615 
13.8626 41.6349 0.523615 12.6969 42.0079 0.523615 12.6969 41.6349 2.20386 
-23.7919 -31.8183 7.82139 -16.4941 -33.3575 7.82139 -9.19637 -35.199 7.82139 
-1.8986 -35.8795 7.82139 5.39917 -35.0571 7.82139 12.6969 -34.0877 7.82139 
19.9947 -33.8475 7.82139 27.2925 -32.9439 7.82139 -38.3875 -26.6538 7.82139 
-25.8834 -31.3428 7.82139 -31.0897 -30.0205 7.82139 -23.7919 -31.3428 8.51262 
-16.4941 -31.3428 10.8092 -9.19637 -31.3428 13.8439 -1.8986 -31.3428 14.3672 
5.39917 -31.3428 12.1445 12.6969 -31.3428 10.4647 19.9947 -31.3428 10.007 
32.3262 -31.3428 7.82139 27.2925 -31.3428 9.49087 34.5903 -30.3115 7.82139 
41.888 -24.0683 7.82139 -41.8666 -24.045 7.82139 -45.6852 -20.0542 7.82139 
-38.3875 -24.045 11.6233 -31.0897 -24.045 15.1085 12.6969 -24.045 14.0112 
19.9947 -24.045 14.0765 27.2925 -24.045 14.0289 34.5903 -24.045 12.0432 
41.9077 -24.045 7.82139 41.888 -24.045 7.84141 -47.9969 -16.7473 7.82139 
-45.6852 -16.7473 11.3111 12.6969 -16.7473 14.888 45.1944 -16.7473 7.82139 
41.888 -16.7473 11.0176 -50.7756 -9.44949 7.82139 -45.6852 -9.44949 14.7726 
46.7628 -9.44949 7.82139 41.888 -9.44949 13.0007 -51.4525 -2.15172 7.82139 
-45.6852 -2.15172 14.9353 47.8568 -2.15172 7.82139 41.888 -2.15172 14.2779 
-50.4943 5.14605 7.82139 -45.6852 5.14605 13.9286 48.1504 5.14605 7.82139 
41.888 5.14605 14.6268 -48.2514 12.4438 7.82139 -45.6852 17.3728 7.82139 
-45.6852 12.4438 11.6625 46.2228 12.4438 7.82139 41.888 12.4438 12.9877 
-44.2621 19.7416 7.82139 -38.3875 26.826 7.82139 -38.3875 19.7416 14.5008 
42.7201 19.7416 7.82139 41.888 20.8941 7.82139 41.888 19.7416 8.87097 
-38.1625 27.0394 7.82139 -31.0897 32.4065 7.82139 -31.0897 27.0394 14.5888 
27.2925 33.941 7.82139 36.6248 27.0394 7.82139 34.5903 28.8113 7.82139 
34.5903 27.0394 10.2179 -27.9326 34.3371 7.82139 -23.7919 36.5336 7.82139 
-23.7919 34.3371 11.4012 -16.4941 39.4698 7.82139 -9.19637 41.5053 7.82139 
12.6969 40.232 7.82139 26.5577 34.3371 7.82139 19.9947 37.704 7.82139 
19.9947 34.3371 12.4129 -8.15159 41.6349 7.82139 -1.8986 42.3654 7.82139 
-1.8986 41.6349 9.34777 6.86609 41.6349 7.82139 5.39917 41.9425 7.82139 
5.39917 41.6349 8.40627 -23.7919 -26.3318 15.1192 -16.4941 -27.5379 15.1192 
-9.19637 -29.9524 15.1192 -1.8986 -30.2881 15.1192 5.39917 -25.9188 15.1192 
-38.3875 -20.1847 15.1192 -31.0623 -24.045 15.1192 -31.0897 -24.0329 15.1192 
[...]
POINT_DATA 520
SCALARS ImageScalars float
LOOKUP_TABLE default
0 0 0 0 0 0 0 0 0 
0 0 0 0 0 0 0 0 0 
0 0 0 0 0 0 0 0 0 
0 0 0 0 0 0 0 0 0 
0 0 0 0 0 0 0 0 0 
0 0 0 0 0 0 0 0 0 
0 0 0 0 0 0 0 0 0 
0 0 0 0 0 0 0 0 0 
0 0 0 0 0 0 0 0 0 
0 0 0 0 0 0 0 0 0 
0 0 0 0 0 0 0 0 0 
0 0 0 0 0 0 0 0 0 
0 0 0 0 0 0 0 0 0 
0 0 0 0 0 0 0 0 0 
0 0 0 0 0 0 0 0 0 
0 0 0 0 0 0 0 0 0 
0 0 0 0 0 0 0 0 0 
0 0 0 0 0 0 0 0 0 
0 0 0 0 0 0 0 0 0 
0 0 0 0 0 0 0 0 0 
0 0 0 0 0 0 0 0 0 
0 0 0 0 0 0 0 0 0 
0 0 0 0 0 0 0 0 0 
0 0 0 0 0 0 0 0 0 
0 0 0 0 0 0 0 0 0 
0 0 0 0 0 0 0 0 0 
0 0 0 0 0 0 0 0 0 
0 0 0 0 0 0 0 0 0 
0 0 0 0 0 0 0 0 0 
0 0 0 0 0 0 0 0 0 
0 0 0 0 0 0 0 0 0 
0 0 0 0 0 0 0 0 0 
0 0 0 0 0 0 0 0 0 
0 0 0 0 0 0 0 0 0 
0 0 0 0 0 0 0 0 0 
0 0 0 0 0 0 0 0 0 
0 0 0 0 0 0 0 0 0 
0 0 0 0 0 0 0 0 0 
0 0 0 0 0 0 0 0 0 
0 0 0 0 0 0 0 0 0 
0 0 0 0 0 0 0 0 0 
0 0 0 0 0 0 0 0 0 
0 0 0 0 0 0 0 0 0 
0 0 0 0 0 0 0 0 0 
0 0 0 0 0 0 0 0 0 
0 0 0 0 0 0 0 0 0 
0 0 0 0 0 0 0 0 0 
0 0 0 0 0 0 0 0 0 
0 0 0 0 0 0 0 0 0 
0 0 0 0 0 0 0 0 0 
0 0 0 0 0 0 0 0 0 
0 0 0 0 0 0 0 0 0 
0 0 0 0 0 0 0 0 0 
0 0 0 0 0 0 0 0 0 
0 0 0 0 0 0 0 0 0 
0 0 0 0 0 0 0 0 0 
0 0 0 0 0 0 0 0 0 
0 0 0 0 0 0 0 
NORMALS Normals float
-0.313991 -0.740379 -0.594347 -0.123428 -0.596771 -0.792862 -0.0696308 -0.530763 -0.844655 
-0.0587808 -0.489407 -0.870072 -0.0171247 -0.499295 -0.866263 0.0280431 -0.484026 -0.874604 
0.0359611 -0.468854 -0.882543 0.0701654 -0.503688 -0.861032 0.146345 -0.565109 -0.811933 
0.35581 -0.651324 -0.670206 -0.471091 -0.478575 -0.740971 -0.160658 -0.311426 -0.936591 
-0.0369356 -0.28468 -0.957911 -0.00135219 -0.200439 -0.979705 -0.0302277 -0.184579 -0.982353 
-0.0125464 -0.134143 -0.990883 0.0609198 -0.0892686 -0.994143 0.00621156 -0.123103 -0.992374 
-0.0385148 -0.203405 -0.978337 0.0849302 -0.263561 -0.960897 0.233815 -0.31234 -0.920747 
0.52345 -0.451218 -0.722774 -0.695826 -0.305415 -0.650036 -0.31581 -0.179852 -0.931621 
-0.126418 -0.109691 -0.985894 -0.00278898 -0.0727255 -0.997348 0.0508748 -0.0313486 -0.998213 
0.0185271 -0.122935 -0.992242 0.081204 0.0353162 -0.996072 0.0293773 0.0826826 -0.996143 
-0.0801129 -0.0381486 -0.996056 -0.068594 -0.0212488 -0.997418 0.0187853 -0.0290709 -0.999401 
0.14347 -0.132297 -0.980772 0.410482 -0.193216 -0.891163 -0.581503 -0.0954439 -0.807926 
-0.232721 -0.0409377 -0.971681 -0.0375541 -0.0128318 -0.999212 0.0420246 0.0723854 -0.996491 
-0.0537457 0.0720405 -0.995953 0.0291546 -0.0826088 -0.996156 0.204668 0.131016 -0.970024 
-0.0230826 0.00807054 -0.999701 -0.0983423 -0.0751066 -0.992314 -0.0354324 0.0787631 -0.996264 
-0.0200219 0.0657608 -0.997635 0.0919671 -0.00181339 -0.99576 0.305018 -0.0558291 -0.950709 
0.695463 -0.206804 -0.68816 -0.570606 0.0929907 -0.815942 -0.227112 0.0897924 -0.96972 
-0.0185807 0.0826931 -0.996402 0.0838153 0.0964882 -0.991799 -0.0978607 0.124515 -0.98738 
0.0401938 0.0592592 -0.997433 0.199284 0.0502168 -0.978654 -0.200737 -0.114289 -0.972956 
0.020671 0.000952353 -0.999786 0.0698474 0.0842301 -0.993995 -0.0622053 0.0522008 -0.996697 
0.0295914 0.0103517 -0.999509 0.228525 -0.0477086 -0.972368 0.612087 -0.0925876 -0.785351 
-0.598089 0.222594 -0.769897 -0.259114 0.18739 -0.947494 -0.0347841 0.144865 -0.98884 
0.0810562 0.0741233 -0.99395 -0.0813791 0.0633755 -0.994666 -0.04891 0.132592 -0.989963 
0.0348568 -0.11965 -0.992204 -0.050923 0.0426164 -0.997793 0.0922029 0.16887 -0.981316 
0.00360726 0.012964 -0.999909 -0.0957861 -0.00221567 -0.995399 -0.0029148 0.00317006 -0.999991 
0.206879 0.060386 -0.976501 0.639398 0.124566 -0.758718 -0.335576 0.282496 -0.898657 
-0.131318 0.20409 -0.970105 0.00485763 0.127324 -0.991849 -0.0382582 0.0640197 -0.997215 
-0.0936116 0.225159 -0.969814 0.0574062 0.127685 -0.990152 0.086552 0.191296 -0.977709 
-0.0173634 0.148084 -0.988822 -0.0885033 0.0423563 -0.995175 -0.0721575 0.0397777 -0.9966 
0.0976446 0.144127 -0.98473 0.327325 0.245971 -0.912336 0.685315 0.361483 -0.632197 
-0.212918 0.365103 -0.906292 -0.0663536 0.291886 -0.954149 0.019337 0.254904 -0.966773 
0.0214914 0.344647 -0.938486 -0.00816995 0.323563 -0.946172 -0.0233435 0.197769 -0.979971 
-0.0621031 0.16062 -0.985061 -0.098333 0.192624 -0.976333 0.0058304 0.27608 -0.961117 
0.195089 0.368597 -0.908887 0.448435 0.520366 -0.726722 -0.109293 0.354215 -0.928755 
-0.0842883 0.293879 -0.952119 -0.0150125 0.281796 -0.959357 0.0483675 0.393338 -0.918121 
0.13463 0.516684 -0.845525 -0.319118 -0.754694 -0.573237 -0.158779 -0.735055 -0.659153 
-0.0768646 -0.730214 -0.67888 -0.0651349 -0.738927 -0.67063 -0.0147636 -0.77551 -0.631163 
0.0373355 -0.760129 -0.648698 0.0310493 -0.727493 -0.685412 0.0627429 -0.701221 -0.710177 
0.0602948 -0.975463 -0.211747 0.177865 -0.686639 -0.704905 0.358279 -0.667174 -0.653081 
-0.334104 -0.746852 -0.574967 -0.515314 -0.600535 -0.611399 0.369669 -0.660254 -0.653766 
0.556623 -0.520389 -0.647584 -0.577795 -0.528187 -0.62223 -0.705133 -0.339652 -0.622434 
-0.789026 -0.593437 -0.158965 0.62835 -0.457248 -0.629366 -0.7236 -0.303408 -0.619957 
0.677418 -0.327422 -0.65871 0.721926 -0.266023 -0.638791 0.833889 -0.366655 -0.412545 
-0.7327 -0.110306 -0.671553 0.736171 -0.211254 -0.642981 -0.692867 0.0813012 -0.716468 
0.76632 -0.0863304 -0.636632 -0.641949 0.220855 -0.734251 -0.621132 0.263411 -0.738112 
0.785356 0.126036 -0.606078 -0.546352 0.335201 -0.767554 -0.708316 0.373384 -0.59906 
-0.421192 0.437768 -0.794328 0.689431 0.36226 -0.627258 0.687613 0.366732 -0.626655 
-0.384292 0.45124 -0.80542 -0.455238 0.487326 -0.745166 -0.260764 0.475513 -0.840172 
-0.0931728 0.50721 -0.856771 0.0101136 0.454411 -0.890734 -0.0369824 0.415514 -0.908835 
0.302843 0.62227 -0.721849 0.520555 0.542315 -0.659482 0.474033 0.565054 -0.675282 
-0.32781 0.62052 -0.712387 -0.0970142 0.523512 -0.846477 0.00614163 0.470632 -0.882308 
-0.0718357 0.396232 -0.915336 -0.044393 0.42628 -0.903501 -0.116103 0.378449 -0.918312 
-0.0882542 0.394313 -0.914729 0.022059 0.435568 -0.899885 0.0901512 0.485188 -0.86975 
0.242523 0.604092 -0.759115 0.167723 0.559969 -0.811359 0.34641 0.689981 -0.635553 
-0.262529 0.803172 -0.534784 -0.106659 0.72074 -0.68495 -0.103399 0.638431 -0.762702 
-0.149425 0.577178 -0.802831 -0.0843921 0.547674 -0.832425 0.0562912 0.598165 -0.799393 
0.197678 0.698069 -0.688202 0.396336 0.828107 -0.39643 0.0584361 -0.984101 -0.167723 
-0.368148 -0.925094 -0.093106 -0.214374 -0.97543 -0.0507897 -0.0884396 -0.992039 -0.0896544 
-0.033831 -0.993424 -0.109377 -0.00511966 -0.993308 -0.115382 -0.00901445 -0.993467 -0.113761 
-0.0268871 -0.989488 -0.142092 -0.0342934 -0.989521 -0.140255 0.0990423 -0.980437 -0.170098 
0.045719 -0.995586 0.0819643 0.215105 -0.958009 -0.189602 0.401919 -0.894773 -0.194532 
-0.789072 -0.595304 -0.151588 -0.51912 -0.845584 -0.124507 -0.540308 -0.831199 -0.131055 
0.645305 -0.748144 -0.154475 0.670808 -0.7262 -0.150497 -0.790742 -0.593122 -0.151437 
-0.790943 -0.59996 -0.120239 0.840461 -0.522563 -0.143363 0.893419 -0.434233 -0.115084 
-0.903775 -0.37181 -0.212009 0.930618 -0.356872 -0.0811978 -0.956032 -0.168529 -0.240001 
0.975018 -0.213041 -0.0628752 -0.961452 0.042419 -0.27168 -0.995809 0.0329349 -0.0853203 
0.994302 -0.0844961 -0.0649979 -0.925549 0.23147 -0.299634 0.989705 0.125731 -0.0683779 
-0.857539 0.393063 -0.331855 -0.779543 0.529518 -0.334548 0.929868 0.363529 -0.0564938 
0.840311 0.529677 -0.115416 -0.758112 0.555582 -0.34146 -0.8093 0.567655 -0.151 
-0.614048 0.700691 -0.363286 0.799655 0.583797 -0.140472 0.614441 0.768453 -0.178725 
-0.597316 0.712099 -0.368956 -0.637854 0.72108 -0.27053 -0.422001 0.800477 -0.425619 
0.583943 0.787213 -0.19826 0.476429 0.836493 -0.27073 -0.290234 0.816048 -0.49983 
-0.270042 0.816607 -0.510128 -0.141934 0.788396 -0.59857 -0.137839 0.737662 -0.660951 
-0.156328 0.750483 -0.642135 -0.0543432 0.817147 -0.573862 0.126853 0.848131 -0.514375 
0.289408 0.851271 -0.4377 0.423735 0.844467 -0.327603 0.413045 0.845859 -0.337515 
-0.179755 0.956029 -0.231726 -0.11445 0.938756 -0.325021 -0.000888671 0.94431 -0.329055 
0.212105 0.971638 -0.10455 -0.306342 -0.909792 0.280059 -0.201636 -0.9239 0.325196 
-0.153538 -0.94475 0.289609 -0.0894991 -0.974867 0.20402 -0.0164394 -0.985696 0.167729 
-0.00333956 -0.978546 0.206003 -0.031451 -0.966737 0.253831 0.0333517 -0.961201 0.273826 
0.178744 -0.950007 0.256002 0.441197 -0.860941 0.25323 -0.419669 -0.867407 0.267363 
-0.485694 -0.836988 0.252094 -0.306776 -0.854093 0.420016 0.619522 -0.725055 0.30081 
0.433056 -0.674508 0.597914 0.681785 -0.664549 0.305848 -0.74821 -0.63794 0.182248 
-0.769955 -0.614518 0.171864 0.829846 -0.477468 0.288756 0.902051 -0.294935 0.315147 
-0.901494 -0.417706 0.113267 0.905642 -0.277439 0.320686 0.899125 -0.27333 0.341855 
-0.975608 -0.204545 0.0796876 -0.994058 -0.0795622 0.074286 0.911069 -0.179195 0.371272 
0.862474 -0.151777 0.482807 -0.997227 0.0250769 0.0700703 -0.995004 0.0739866 0.0670288 
-0.991948 0.0246469 0.124226 0.913945 -0.0828517 0.397292 0.836422 -0.0774523 0.542586 
-0.978413 0.198431 0.057729 0.91426 0.126332 0.384927 0.833208 0.101365 0.543589 
-0.922991 0.383327 0.0338946 0.886129 0.293133 0.358954 0.864789 0.369295 0.340238 
0.864242 0.288144 0.412381 -0.826294 0.561883 0.039065 -0.814837 0.578486 0.0373315 
-0.816774 0.558704 0.143978 0.798324 0.52313 0.298353 0.687094 0.695164 0.211305 
-0.694546 0.7194 -0.00832 -0.671585 0.74082 -0.0125881 -0.659135 0.694918 0.287454 
-0.51877 0.852984 -0.0573996 0.657224 0.7324 0.177895 0.565883 0.816966 0.111098 
-0.492947 0.867401 -0.0679679 -0.373629 0.921433 -0.106593 -0.277007 0.94285 -0.185206 
0.372861 0.92784 0.00934824 0.507757 0.85888 0.0671384 0.475469 0.87812 0.0532492 
0.470678 0.82144 0.322023 -0.180305 0.956186 -0.230649 -0.179758 0.956239 -0.230854 
-0.181162 0.961958 -0.204493 -0.0911035 0.978023 -0.187539 0.0440615 0.994439 -0.0956585 
0.247656 0.968689 -0.0175249 0.224135 0.974372 -0.0190346 0.231386 0.970697 0.0648671 
-0.189807 -0.83445 0.517365 -0.207034 -0.844449 0.494008 -0.154888 -0.892611 0.423386 
0.00617464 -0.911074 0.412196 0.11122 -0.83499 0.538908 0.0728099 -0.74327 0.665018 
0.0635828 -0.705076 0.706275 0.159902 -0.714308 0.681319 -0.459139 -0.758039 0.463215 
-0.221382 -0.830647 0.510897 -0.29487 -0.816469 0.496417 -0.188046 -0.825524 0.532118 
-0.216118 -0.790497 0.573069 -0.15132 -0.714795 0.682767 0.0969685 -0.652389 0.751655 
0.204228 -0.625789 0.75278 0.115543 -0.606392 0.786727 0.0531864 -0.608463 0.791798 
0.334137 -0.66144 0.671453 0.151766 -0.651026 0.743728 0.407808 -0.62775 0.66304 
0.615787 -0.482648 0.622781 -0.563418 -0.70175 0.436012 -0.716492 -0.562447 0.412665 
-0.444355 -0.687789 0.574016 -0.26382 -0.632781 0.728002 0.109377 -0.258545 0.959787 
-0.00132541 -0.373601 0.927589 0.11425 -0.419101 0.900723 0.332225 -0.464334 0.820987 
0.616342 -0.481925 0.622793 0.615624 -0.481926 0.623502 -0.803114 -0.440602 0.401094 
-0.70994 -0.440487 0.549506 0.00180576 -0.219433 0.975626 0.744211 -0.25505 0.617333 
0.620755 -0.262883 0.738618 -0.891452 -0.206533 0.403307 -0.648275 -0.149403 0.746604 
0.776332 -0.140438 0.61448 0.630086 -0.168571 0.758008 -0.910156 0.0188845 0.413836 
-0.613154 0.0449231 0.788685 0.796203 -0.0748328 0.600384 0.630949 -0.0818009 0.7715 
-0.890845 0.188785 0.413225 -0.652134 0.141318 0.744815 0.803818 0.0931415 0.587539 
0.6274 0.0602515 0.776362 -0.842641 0.37246 0.388882 -0.791707 0.479598 0.378399 
-0.743931 0.333616 0.579022 0.779245 0.277864 0.561755 0.673673 0.245154 0.697183 
-0.76169 0.526253 0.378003 -0.653326 0.68222 0.328239 -0.560131 0.413475 0.717838 
0.731627 0.459733 0.503355 0.721957 0.490268 0.488277 0.719855 0.45282 0.526082 
-0.648699 0.687027 0.327387 -0.532297 0.787184 0.31145 -0.448645 0.558042 0.698074 
0.465134 0.800327 0.378322 0.612477 0.6656 0.426437 0.579837 0.702307 0.412982 
0.568904 0.648404 0.505885 -0.482119 0.821936 0.303287 -0.416008 0.857708 0.302116 
-0.398696 0.769371 0.499109 -0.309513 0.917832 0.248567 -0.185419 0.956076 0.227023 
0.249596 0.892848 0.374866 0.45542 0.805495 0.379171 0.369032 0.842159 0.393171 
0.334537 0.721275 0.606504 -0.162968 0.959258 0.230795 -0.0287727 0.966895 0.253548 
-0.0206229 0.942291 0.334158 0.153225 0.930201 0.333538 0.130281 0.936449 0.325715 
0.132115 0.92656 0.352183 -0.164864 -0.678177 0.716167 -0.158089 -0.647233 0.745719 
-0.125832 -0.639737 0.758224 0.114854 -0.583219 0.804154 0.269093 -0.315056 0.910126 
-0.427992 -0.502986 0.750884 -0.263424 -0.632558 0.72834 -0.263751 -0.63212 0.728601 
-0.15342 -0.590293 0.792475 -0.0862843 -0.514345 0.853232 -0.0223871 -0.402973 0.914938 
0.174671 -0.306661 0.935654 0.207358 -0.235755 0.949433 0.281689 -0.227662 0.932106 
-0.0671782 -0.34183 0.937358 0.0857305 -0.372935 0.923889 0.317558 -0.320962 0.892267 
-0.535022 -0.379882 0.754613 -0.412607 -0.346237 0.842541 -0.201186 -0.299126 0.932764 
-0.0950568 -0.236058 0.967079 -0.0374415 -0.239563 0.970159 0.0691255 -0.239643 0.968397 
0.285063 -0.145994 0.947325 0.0610985 -0.204918 0.97687 0.316483 -0.13939 0.938301 
-0.0241939 -0.23874 0.970782 -0.0049689 -0.23496 0.971992 -0.129328 -0.312932 0.940929 
0.0547091 -0.310321 0.949056 0.339792 -0.304354 0.889893 0.317293 -0.307701 0.89702 
-0.621498 -0.143009 0.770253 -0.334131 -0.10175 0.937018 -0.151607 -0.056234 0.98684 
-0.0907321 0.000505679 0.995875 -0.0852457 -0.0691627 0.993957 0.0800458 -0.146098 0.986026 
0.266818 -0.0206828 0.963525 0.205156 -0.289378 0.934971 -0.0483029 -0.370232 0.927683 
-0.0911751 -0.248825 0.964247 0.0872488 -0.203869 0.975103 0.496786 -0.186868 0.847516 
0.334585 -0.199097 0.921094 -0.59723 0.0453558 0.800787 -0.308979 0.0412796 0.950173 
-0.108699 0.0338498 0.993498 -0.102846 0.0108327 0.994638 -0.191295 -0.0743747 0.978711 
0.167394 -0.0512015 0.98456 -0.03947 -0.266642 0.962987 0.0386938 -0.312596 0.949098 
0.0461247 -0.14734 0.98801 0.110266 -0.098707 0.988989 0.57947 -0.0860716 0.810436 
0.327165 -0.0866027 0.940991 -0.558513 0.117342 0.821154 -0.34641 0.091514 0.933609 
-0.183349 0.0358022 0.982396 -0.19306 -0.0939405 0.97668 0.0783924 -0.226277 0.970903 
0.103883 -0.185798 0.977081 0.124595 -0.0905967 0.988063 0.147494 -0.0507336 0.987761 
0.598532 0.0566934 0.79909 0.341795 0.0120506 0.939697 -0.553947 0.249764 0.794205 
-0.529861 0.371468 0.762403 -0.415779 0.201742 0.886808 -0.289503 0.0686091 0.954715 
-0.2338 -0.0183662 0.972111 0.176703 -0.00333995 0.984259 0.199002 0.0752875 0.977103 
0.586763 0.214811 0.780747 0.427031 0.156542 0.890583 -0.530937 0.391945 0.751322 
-0.437444 0.523837 0.730916 -0.383726 0.278617 0.880413 -0.21303 0.227998 0.950071 
-0.121588 0.188646 0.974489 0.231387 0.191637 0.9538 0.299239 0.282511 0.911396 
0.547613 0.367111 0.751897 0.522712 0.417498 0.743282 0.506998 0.357071 0.784508 
-0.425903 0.539307 0.726467 -0.347353 0.603404 0.717808 -0.308973 0.475044 0.823935 
-0.205564 0.3742 0.904277 -0.112324 0.327653 0.938098 -0.0298168 0.320991 0.946613 
0.102015 0.384555 0.917448 0.21026 0.410318 0.887373 0.294842 0.607743 0.737372 
0.261161 0.459074 0.849144 0.405737 0.548284 0.731274 0.383793 0.564296 0.73094 
0.373769 0.529697 0.761392 -0.302114 0.656204 0.691465 -0.284572 0.669053 0.686577 
-0.279193 0.63767 0.717933 -0.14262 0.712376 0.687153 -0.135954 0.597069 0.790585 
0.0119245 0.725297 0.688333 0.00557894 0.586772 0.809733 0.140787 0.704514 0.695586 
0.136998 0.619237 0.77316 0.258601 0.651277 0.713417 0.242204 0.661602 0.709662 
0.241188 0.638303 0.731025 0.085121 -0.137538 0.986832 -0.0505463 -0.0813891 0.9954 
-0.187122 -0.0866924 0.978504 0.127898 -0.0793012 0.988612 0.112097 -0.0846361 0.990086 
-0.0690946 -0.242754 0.967624 -0.184658 -0.095891 0.978114 -0.180683 -0.0934632 0.979091 
0.0890667 -0.133689 0.987013 0.100796 -0.0415314 0.99404 -0.0628635 -0.241096 0.968463 
0.012572 -0.183841 0.982876 -0.000968944 -0.220608 0.975362 -0.0701964 -0.241838 0.967774 
0.11164 -0.172625 0.97864 -0.187292 0.00682607 0.982281 -0.122763 0.157766 0.979816 
-0.129993 0.0417786 0.990634 -0.00689362 0.0364949 0.99931 -0.0370586 -0.15074 0.987879 
-0.00423277 -0.0958625 0.995386 0.181848 -0.0162852 0.983192 0.184627 -0.0294955 0.982366 
-0.113312 0.179376 0.977233 -0.0982915 0.214695 0.971723 -0.0912934 0.153507 0.983921 
-0.0391297 0.263141 0.963963 -0.0671536 0.0849674 0.994118 0.0880996 0.318616 0.943781 
0.0529007 0.158743 0.985902 0.204904 0.188534 0.960453 0.199946 0.220441 0.954687 
0.197872 0.188567 0.961919 
