# vtk DataFile Version 4.2
vtk output
ASCII
DATASET POLYDATA
POINTS 534 float
-6.64147 -5.8554 -19.3278 -30.7316 -46.0056 -11.3272 -22.7016 -46.0056 -13.292 
-14.6715 -46.0056 -14.0228 -6.64147 -46.0056 -14.0731 1.38857 -46.0056 -14.0302 
9.41861 -46.0056 -13.5213 17.4487 -46.0056 -12.4596 -38.7616 -37.9756 -11.5105 
-30.7316 -37.9756 -14.4068 -22.7016 -37.9756 -16.0805 -14.6715 -37.9756 -17.394 
-6.64147 -37.9756 -16.7258 1.38857 -37.9756 -16.8607 9.41861 -37.9756 -17.1662 
17.4487 -37.9756 -17.3348 25.4787 -37.9756 -15.0892 -38.7616 -29.9455 -14.5851 
-30.7316 -29.9455 -16.0796 -22.7016 -29.9455 -16.8259 -14.6715 -29.9455 -17.1194 
-6.64147 -29.9455 -17.3245 1.38857 -29.9455 -17.6686 9.41861 -29.9455 -18.4548 
17.4487 -29.9455 -18.0397 25.4787 -29.9455 -16.5177 33.5087 -29.9455 -14.9722 
-46.7917 -21.9155 -12.1159 -38.7616 -21.9155 -15.1055 -30.7316 -21.9155 -16.5147 
-22.7016 -21.9155 -16.8881 -14.6715 -21.9155 -16.3095 -6.64147 -21.9155 -15.9907 
1.38857 -21.9155 -16.8422 9.41861 -21.9155 -17.9417 17.4487 -21.9155 -17.3126 
25.4787 -21.9155 -16.9037 33.5087 -21.9155 -16.2681 41.5388 -21.9155 -14.9686 
49.5688 -21.9155 -11.6 -46.7917 -13.8854 -14.6586 -38.7616 -13.8854 -16.1837 
-30.7316 -13.8854 -16.4818 -22.7016 -13.8854 -15.9818 -14.6715 -13.8854 -15.1178 
-6.64147 -5.86653 -19.3225 -6.64147 -13.8854 -15.0911 1.38857 -13.8854 -15.3393 
9.41861 -13.8854 -16.4214 17.4487 -13.8854 -16.5722 25.4787 -13.8854 -17.3216 
33.5087 -13.8854 -17.6315 41.5388 -13.8854 -17.2355 49.5688 -13.8854 -15.7364 
57.5989 -13.8854 -11.9258 -54.8217 -5.8554 -12.1472 -46.7917 -5.8554 -14.916 
-38.7616 -5.8554 -16.44 -30.7316 -5.8554 -16.1907 -22.7016 -5.8554 -15.3732 
-6.65138 -5.8554 -19.3225 -14.6715 -5.8554 -14.4059 -6.62734 -5.8554 -19.3225 
-6.64147 -5.84278 -19.3225 1.38857 -5.8554 -16.1155 9.41861 -5.8554 -16.8271 
17.4487 -5.8554 -16.7568 25.4787 -5.8554 -18.1908 33.5087 -5.8554 -19.0238 
41.5388 -5.8554 -18.7687 49.5688 -5.8554 -17.6283 57.5989 -5.8554 -13.8378 
-54.8217 2.17464 -12.2737 -46.7917 2.17464 -15.2559 -38.7616 2.17464 -15.5754 
-30.7316 2.17464 -15.3471 -22.7016 2.17464 -14.342 -14.6715 2.17464 -13.399 
-6.64147 2.17464 -15.5976 1.38857 2.17464 -14.3489 9.41861 2.17464 -18.2777 
17.4487 2.17464 -15.9152 25.4787 2.17464 -17.5266 33.5087 2.17464 -18.6898 
41.5388 2.17464 -18.8915 49.5688 2.17464 -17.6578 57.5989 2.17464 -14.0563 
-54.8217 10.2047 -11.684 -46.7917 10.2047 -13.2522 -38.7616 10.2047 -14.2442 
-30.7316 10.2047 -14.3714 -22.7016 10.2047 -13.6527 -14.6715 10.2047 -13.963 
-6.64147 10.2047 -15.8928 1.38857 10.2047 -16.4637 9.41861 10.2047 -16.0125 
17.4487 10.2047 -15.2238 25.4787 10.2047 -16.9148 33.5087 10.2047 -18.1615 
41.5388 10.2047 -18.2982 49.5688 10.2047 -17.0895 57.5989 10.2047 -13.9272 
-38.7616 18.2347 -13.4481 -30.7316 18.2347 -13.8094 -22.7016 18.2347 -13.9882 
-14.6715 18.2347 -14.039 -6.64147 18.2347 -13.6065 1.38857 18.2347 -15.2992 
9.41861 18.2347 -16.528 17.4487 18.2347 -16.4568 25.4787 18.2347 -17.2714 
33.5087 18.2347 -17.3132 41.5388 18.2347 -17.125 49.5688 18.2347 -16.1619 
57.5989 18.2347 -11.4947 -30.7316 26.2648 -13.3842 -22.7016 26.2648 -13.8124 
-14.6715 26.2648 -13.5247 -6.64147 26.2648 -13.5775 1.38857 26.2648 -14.8101 
9.41861 26.2648 -16.2651 17.4487 26.2648 -16.6597 25.4787 26.2648 -16.2729 
33.5087 26.2648 -16.2414 41.5388 26.2648 -15.0182 49.5688 26.2648 -11.8606 
-22.7016 34.2948 -12.3834 -14.6715 34.2948 -12.2368 -6.64147 34.2948 -12.4184 
1.38857 34.2948 -13.2576 9.41861 34.2948 -14.4398 17.4487 34.2948 -14.8227 
25.4787 34.2948 -14.5907 33.5087 34.2948 -13.4138 -30.7316 -46.0437 -11.2925 
-22.7016 -48.4037 -11.2925 -14.6715 -50.2652 -11.2925 -6.64147 -50.2316 -11.2925 
1.38857 -49.6604 -11.2925 9.41861 -48.6225 -11.2925 17.4487 -47.3553 -11.2925 
-30.7827 -46.0056 -11.2925 -38.7616 -38.293 -11.2925 25.3118 -46.0056 -11.2925 
25.4787 -45.9621 -11.2925 25.4787 -46.0056 -11.2429 -39.0326 -37.9756 -11.2925 
32.7249 -37.9756 -11.2925 33.5087 -37.2222 -11.2925 33.5087 -37.9756 -10.7367 
41.5388 -37.9756 -6.07033 -44.0256 -29.9455 -11.2925 -46.7917 -24.5924 -11.2925 
-46.7917 -29.9455 -6.8057 41.1353 -29.9455 -11.2925 41.5388 -29.496 -11.2925 
41.5388 -29.9455 -11.0142 49.5688 -22.4913 -11.2925 49.5688 -29.9455 -5.34674 
-47.9007 -21.9155 -11.2925 50.0654 -21.9155 -11.2925 57.5989 -14.9948 -11.2925 
-52.9962 -13.8854 -11.2925 -54.8217 -10.0606 -11.2925 -54.8217 -13.8854 -9.49031 
58.2593 -13.8854 -11.2925 -55.8741 -5.8554 -11.2925 60.236 -5.8554 -11.2925 
-56.1692 2.17464 -11.2925 60.4673 2.17464 -11.2925 -55.3755 10.2047 -11.2925 
-54.8217 11.278 -11.2925 -46.7917 17.8883 -11.2925 60.2894 10.2047 -11.2925 
-54.8217 18.2347 -7.90421 -46.5252 18.2347 -11.2925 -46.7917 18.2347 -11.2144 
-38.7616 25.837 -11.2925 57.8052 18.2347 -11.2925 57.5989 18.5779 -11.2925 
-46.7917 26.2648 -8.79722 -38.3301 26.2648 -11.2925 -38.7616 26.2648 -11.1681 
-30.7316 32.8764 -11.2925 41.5388 33.5345 -11.2925 50.3533 26.2648 -11.2925 
49.5688 27.1562 -11.2925 -46.7917 34.2948 -3.49872 -38.7616 34.2948 -8.45717 
-28.2997 34.2948 -11.2925 -30.7316 34.2948 -10.7665 -22.7016 37.4697 -11.2925 
-14.6715 36.4914 -11.2925 -6.64147 37.3908 -11.2925 1.38857 39.0943 -11.2925 
9.41861 41.0086 -11.2925 17.4487 40.8678 -11.2925 25.4787 39.5645 -11.2925 
40.0012 34.2948 -11.2925 33.5087 37.8223 -11.2925 41.5388 34.2948 -10.6765 
-30.7316 42.3249 -6.21562 -22.7016 42.3249 -8.62634 -14.6715 42.3249 -8.41714 
-6.64147 42.3249 -9.19431 1.38857 42.3249 -9.79864 9.41861 42.3249 -10.5464 
17.4487 42.3249 -10.3129 25.4787 42.3249 -8.75858 33.5087 42.3249 -7.32441 
-30.7316 -48.3656 -3.26246 -22.7016 -52.509 -3.26246 -14.6715 -53.9463 -3.26246 
-6.64147 -53.7977 -3.26246 1.38857 -53.3403 -3.26246 9.41861 -52.1988 -3.26246 
17.4487 -51.2639 -3.26246 25.4787 -49.3684 -3.26246 -33.9941 -46.0056 -3.26246 
-38.7616 -41.6649 -3.26246 -30.7316 -46.0056 2.75622 32.6698 -46.0056 -3.26246 
33.5087 -45.4775 -3.26246 41.5388 -39.7967 -3.26246 -42.0656 -37.9756 -3.26246 
-46.7917 -31.742 -3.26246 43.5446 -37.9756 -3.26246 41.5388 -37.9756 4.67592 
49.5688 -31.464 -3.26246 -48.0526 -29.9455 -3.26246 -46.7917 -29.9455 1.47074 
50.9636 -29.9455 -3.26246 49.5688 -29.9455 3.04985 -53.4487 -21.9155 -3.26246 
-54.8217 -19.437 -3.26246 57.1564 -21.9155 -3.26246 57.5989 -21.163 -3.26246 
-57.9504 -13.8854 -3.26246 61.325 -13.8854 -3.26246 -60.7288 -5.8554 -3.26246 
63.7643 -5.8554 -3.26246 -62.464 2.17464 -3.26246 -62.8518 2.17464 3.95601 
63.8441 2.17464 -3.26246 -61.7416 10.2047 -3.26246 62.634 10.2047 -3.26246 
-59.2019 18.2347 -3.26246 -54.8217 25.4209 -3.26246 60.3565 18.2347 -3.26246 
57.5989 23.2989 -3.26246 57.5989 18.2347 3.61235 -53.9973 26.2648 -3.26246 
-54.8217 26.2648 -1.04307 55.7944 26.2648 -3.26246 49.5688 33.7746 -3.26246 
-47.0334 34.2948 -3.26246 -46.7917 34.5123 -3.26246 -38.7616 40.1635 -3.26246 
48.9819 34.2948 -3.26246 41.5388 39.8915 -3.26246 -35.7906 42.3249 -3.26246 
-30.7316 44.8606 -3.26246 -22.7016 46.7134 -3.26246 -14.6715 47.9001 -3.26246 
-6.64147 48.7126 -3.26246 1.38857 49.0062 -3.26246 9.41861 49.3202 -3.26246 
17.4487 48.553 -3.26246 25.4787 46.8709 -3.26246 37.6298 42.3249 -3.26246 
33.5087 44.5152 -3.26246 -6.64147 50.3549 3.48199 1.38857 50.3549 2.32461 
9.41861 50.3549 1.62733 -22.7016 -48.1496 4.76758 -14.6715 -50.6997 4.76758 
-6.64147 -50.9809 4.76758 1.38857 -50.3586 4.76758 9.41861 -48.9482 4.76758 
17.4487 -47.908 4.76758 25.4787 -47.6066 4.76758 -38.7616 -38.1829 4.76758 
-28.2602 -46.0056 4.76758 -30.7316 -44.7011 4.76758 -22.7016 -46.0056 7.036 
-14.6715 -46.0056 9.01778 -6.64147 -46.0056 9.3567 1.38857 -46.0056 8.85493 
9.41861 -46.0056 7.57218 17.4487 -46.0056 7.02814 29.0324 -46.0056 4.76758 
25.4787 -46.0056 6.54039 33.5087 -42.9588 4.76758 -38.9608 -37.9756 4.76758 
-38.7616 -37.9756 4.96338 -30.7316 -37.9756 8.96103 -22.7016 -37.9756 12.3278 
9.41861 -37.9756 12.0827 17.4487 -37.9756 11.7901 25.4787 -37.9756 10.7462 
41.4911 -37.9756 4.76758 33.5087 -37.9756 9.53106 41.5388 -37.9341 4.76758 
-45.4645 -29.9455 4.76758 -46.7917 -28.1627 4.76758 -38.7616 -29.9455 9.29403 
33.5087 -29.9455 11.9126 48.9346 -29.9455 4.76758 41.5388 -29.9455 10.046 
49.5688 -28.9911 4.76758 -50.8129 -21.9155 4.76758 -54.8217 -16.3159 4.76758 
-46.7917 -21.9155 8.90908 41.5388 -21.9155 11.2276 53.2947 -21.9155 4.76758 
49.5688 -21.9155 7.80831 57.5989 -14.8643 4.76758 -56.2043 -13.8854 4.76758 
-54.8217 -13.8854 6.3975 -46.7917 -13.8854 12.2436 49.5688 -13.8854 9.70475 
57.9972 -13.8854 4.76758 57.5989 -13.8854 5.16006 -59.4178 -5.8554 4.76758 
-62.8518 2.07069 4.76758 -54.8217 -5.8554 9.78347 49.5688 -5.8554 10.9999 
60.2877 -5.8554 4.76758 57.5989 -5.8554 7.55459 -62.8869 2.17464 4.76758 
-62.8518 3.09604 4.76758 -62.8518 2.17464 4.82919 49.5688 2.17464 10.707 
60.1782 2.17464 4.76758 57.5989 2.17464 7.19786 -62.5363 10.2047 4.76758 
49.5688 10.2047 10.2484 58.992 10.2047 4.76758 57.5989 16.0289 4.76758 
57.5989 10.2047 6.06289 -60.3209 18.2347 4.76758 -54.8217 18.2347 11.717 
56.767 18.2347 4.76758 49.5688 18.2347 10.2075 -56.3386 26.2648 4.76758 
-54.8217 28.0495 4.76758 -54.8217 26.2648 7.36633 41.5388 26.2648 11.8523 
51.366 26.2648 4.76758 49.5688 29.3025 4.76758 49.5688 26.2648 6.4113 
-49.027 34.2948 4.76758 -46.7917 36.2533 4.76758 -46.7917 34.2948 8.21608 
-38.7616 41.99 4.76758 -38.7616 34.2948 12.5075 46.1853 34.2948 4.76758 
41.5388 38.6411 4.76758 41.5388 34.2948 9.21808 -38.091 42.3249 4.76758 
-30.7316 45.5686 4.76758 -30.7316 42.3249 9.09361 -22.7016 48.3338 4.76758 
-14.6715 49.7151 4.76758 17.4487 50.1 4.76758 25.4787 47.9044 4.76758 
25.4787 42.3249 12.3663 37.2244 42.3249 4.76758 33.5087 44.5663 4.76758 
33.5087 42.3249 8.38171 -8.9444 50.3549 4.76758 -6.64147 50.592 4.76758 
-6.64147 50.3549 5.27076 1.38857 50.8287 4.76758 1.38857 50.3549 5.78402 
15.0113 50.3549 4.76758 9.41861 50.8949 4.76758 9.41861 50.3549 5.91322 
-14.6715 -38.9679 12.7976 -6.64147 -39.8772 12.7976 1.38857 -38.6012 12.7976 
-30.7316 -31.3412 12.7976 -18.8746 -37.9756 12.7976 -22.7016 -36.6687 12.7976 
[...]
POINT_DATA 534
SCALARS ImageScalars float
LOOKUP_TABLE default
0 0 0 0 0 0 0 0 0 
0 0 0 0 0 0 0 0 0 
0 0 0 0 0 0 0 0 0 
0 0 0 0 0 0 0 0 0 
0 0 0 0 0 0 0 0 0 
0 0 0 0 0 0 0 0 0 
0 0 0 0 0 0 0 0 0 
0 0 0 0 0 0 0 0 0 
0 0 0 0 0 0 0 0 0 
0 0 0 0 0 0 0 0 0 
0 0 0 0 0 0 0 0 0 
0 0 0 0 0 0 0 0 0 
0 0 0 0 0 0 0 0 0 
0 0 0 0 0 0 0 0 0 
0 0 0 0 0 0 0 0 0 
0 0 0 0 0 0 0 0 0 
0 0 0 0 0 0 0 0 0 
0 0 0 0 0 0 0 0 0 
0 0 0 0 0 0 0 0 0 
0 0 0 0 0 0 0 0 0 
0 0 0 0 0 0 0 0 0 
0 0 0 0 0 0 0 0 0 
0 0 0 0 0 0 0 0 0 
0 0 0 0 0 0 0 0 0 
0 0 0 0 0 0 0 0 0 
0 0 0 0 0 0 0 0 0 
0 0 0 0 0 0 0 0 0 
0 0 0 0 0 0 0 0 0 
0 0 0 0 0 0 0 0 0 
0 0 0 0 0 0 0 0 0 
0 0 0 0 0 0 0 0 0 
0 0 0 0 0 0 0 0 0 
0 0 0 0 0 0 0 0 0 
0 0 0 0 0 0 0 0 0 
0 0 0 0 0 0 0 0 0 
0 0 0 0 0 0 0 0 0 
0 0 0 0 0 0 0 0 0 
0 0 0 0 0 0 0 0 0 
0 0 0 0 0 0 0 0 0 
0 0 0 0 0 0 0 0 0 
0 0 0 0 0 0 0 0 0 
0 0 0 0 0 0 0 0 0 
0 0 0 0 0 0 0 0 0 
0 0 0 0 0 0 0 0 0 
0 0 0 0 0 0 0 0 0 
0 0 0 0 0 0 0 0 0 
0 0 0 0 0 0 0 0 0 
0 0 0 0 0 0 0 0 0 
0 0 0 0 0 0 0 0 0 
0 0 0 0 0 0 0 0 0 
0 0 0 0 0 0 0 0 0 
0 0 0 0 0 0 0 0 0 
0 0 0 0 0 0 0 0 0 
0 0 0 0 0 0 0 0 0 
0 0 0 0 0 0 0 0 0 
0 0 0 0 0 0 0 0 0 
0 0 0 0 0 0 0 0 0 
0 0 0 0 0 0 0 0 0 
0 0 0 0 0 0 0 0 0 
0 0 0 
NORMALS Normals float
0.0963187 0.0339751 0.994771 0.428084 0.655541 0.622102 0.177286 0.542154 0.821364 
0.0360481 0.482379 0.875221 0.000634723 0.485873 0.874029 -0.0312023 0.523457 0.85148 
-0.0897263 0.605883 0.790477 -0.129622 0.650253 0.748578 0.586711 0.486217 0.647583 
0.270481 0.278434 0.921583 0.184784 0.175397 0.967001 0.0320407 0.202483 0.978761 
-0.0282165 0.185077 0.982319 0.0280371 0.20895 0.977524 0.0291212 0.274463 0.961157 
-0.130119 0.299111 0.945305 -0.315894 0.287866 0.904071 0.383464 0.224354 0.895891 
0.118507 0.135362 0.983684 0.0617288 0.0467667 0.996997 0.0298523 -0.0660975 0.997366 
0.0347627 -0.0376295 0.998687 0.0700903 0.00569705 0.997524 0.0212573 0.0491049 0.998567 
-0.115159 -0.00797044 0.993315 -0.203448 0.115781 0.972216 -0.268305 0.262315 0.926932 
0.518289 0.281045 0.807707 0.236551 0.0908296 0.967364 0.104679 0.0230806 0.994238 
-0.0127133 -0.052359 0.998547 -0.0539558 -0.123499 0.990877 0.0304807 -0.129216 0.991148 
0.119771 -0.145304 0.982111 0.0245086 -0.12528 0.991819 -0.0648874 -0.0924774 0.993598 
-0.0640651 0.0479973 0.996791 -0.12005 0.177329 0.976802 -0.238019 0.323182 0.915915 
-0.438433 0.461077 0.771482 0.355981 0.147188 0.922829 0.0966762 0.0810192 0.992013 
-0.0131146 -0.020148 0.999711 -0.0843671 -0.0936416 0.992025 -0.0547992 -0.111372 0.992267 
0.0962036 0.0342839 0.994771 0.015301 0.126771 0.991814 0.0817721 -0.0434426 0.995704 
0.0774205 -0.0724575 0.994362 0.0535314 -0.0345933 0.997967 0.0671014 0.0786566 0.994641 
-0.00462171 0.163176 0.986586 -0.117882 0.242989 0.96284 -0.295013 0.31555 0.901884 
-0.66261 0.332769 0.670979 0.566796 0.106382 0.816961 0.264127 0.0307481 0.963998 
0.0866059 -0.038415 0.995502 -0.0655961 -0.0702704 0.995369 -0.104059 -0.103348 0.989187 
0.0965643 0.033862 0.994751 0.147166 -0.111263 0.982834 0.095845 0.0340351 0.994814 
0.0963908 0.033569 0.994777 -0.103117 -0.0298709 0.994221 0.0400579 0.0918681 0.994965 
0.0823395 -0.0364294 0.995938 0.140911 0.0104394 0.989967 0.0338541 0.0659556 0.997248 
-0.0880226 0.0940552 0.991668 -0.238184 0.11252 0.96468 -0.667949 0.128309 0.733063 
0.516999 -0.0317675 0.855396 0.223202 -0.0924128 0.970382 0.00310092 -0.134858 0.99086 
-0.0757906 -0.112339 0.990775 -0.113695 -0.106102 0.987834 0.0684019 -0.0240244 0.997369 
0.0807158 -0.148407 0.985627 0.116592 0.030871 0.9927 0.0351556 -0.0618401 0.997467 
0.00460998 -0.0997734 0.995 0.168025 -0.0795724 0.982566 0.0841142 -0.0526609 0.995064 
-0.0605844 -0.030218 0.997706 -0.246431 -0.0369705 0.968455 -0.651076 0.00294097 0.759007 
0.45701 -0.225542 0.860391 0.175511 -0.233672 0.956344 0.0634693 -0.135198 0.988784 
-0.0368865 -0.094814 0.994811 -0.0275187 -0.0220794 0.999377 0.137275 0.0379351 0.989806 
0.147665 -0.125999 0.980979 0.00712542 0.022281 0.999726 -0.0825261 -0.0645293 0.994498 
0.0589345 0.0376164 0.997553 0.180795 -0.0156162 0.983397 0.0863722 -0.0860039 0.992544 
-0.069658 -0.103449 0.992193 -0.252505 -0.076741 0.964548 -0.636619 -0.153982 0.755649 
0.144278 -0.174611 0.97401 0.0355485 -0.0645233 0.997283 0.0141565 0.010307 0.999847 
-0.0228434 -0.0276405 0.999357 0.0704396 -0.13459 0.988395 0.183819 -0.100526 0.977806 
0.0653564 0.0135033 0.997771 0.0456994 0.0884394 0.995033 0.0539864 -0.0399987 0.99774 
-0.00845627 -0.115077 0.993321 -0.0586465 -0.21371 0.975135 -0.324689 -0.275333 0.904858 
-0.668663 -0.408045 0.621602 0.147544 -0.166382 0.97496 0.0115422 -0.105388 0.994364 
-0.0141043 -0.108951 0.993947 0.0759008 -0.0708167 0.994597 0.168397 -0.119582 0.978439 
0.109679 -0.123836 0.986223 0.000431555 -0.0931634 0.995651 -0.0251789 -0.164571 0.986044 
-0.0804992 -0.209369 0.974517 -0.216973 -0.322859 0.921241 -0.497377 -0.469694 0.729386 
0.0813609 -0.261687 0.961717 0.00133127 -0.274057 0.961712 0.0602592 -0.241612 0.9685 
0.121422 -0.274961 0.953757 0.0897543 -0.30749 0.947309 0.00823296 -0.333354 0.942766 
-0.0707978 -0.373132 0.925073 -0.213701 -0.443468 0.870441 0.428296 0.65818 0.619162 
0.227039 0.665253 0.71126 0.0726706 0.69489 0.715435 -0.0280482 0.709237 0.704412 
-0.0747094 0.720303 0.689624 -0.109156 0.736549 0.667519 -0.139377 0.708318 0.691996 
0.42945 0.656995 0.619621 0.594047 0.49494 0.634148 -0.281454 0.683369 0.67364 
-0.28502 0.681682 0.67385 -0.285294 0.685822 0.669519 0.596977 0.489818 0.635372 
-0.421215 0.462901 0.779936 -0.417628 0.464283 0.781043 -0.444221 0.501546 0.742374 
-0.623567 0.677532 0.390019 0.60555 0.370058 0.704533 0.582702 0.326654 0.744148 
0.792625 0.533399 0.295348 -0.447109 0.408008 0.796005 -0.445061 0.410788 0.795723 
-0.463631 0.421628 0.779279 -0.451003 0.466536 0.760881 -0.668834 0.673632 0.314454 
0.560379 0.302934 0.770848 -0.459301 0.47173 0.752671 -0.678148 0.379495 0.629364 
0.595572 0.292366 0.748209 0.62253 0.214249 0.752697 0.72294 0.352423 0.594269 
-0.697585 0.342624 0.629272 0.619838 0.118709 0.775699 -0.74668 0.128434 0.652667 
0.567315 -0.0232905 0.823171 -0.742494 0.000273989 0.669853 0.482041 -0.223293 0.847217 
0.454488 -0.260761 0.85173 0.30137 -0.213261 0.929352 -0.815009 -0.153508 0.558745 
0.558084 -0.439769 0.703666 0.302015 -0.211518 0.929541 0.307975 -0.213727 0.927077 
0.237583 -0.24643 0.939588 -0.679503 -0.409139 0.609 -0.672778 -0.415965 0.611836 
0.450444 -0.409429 0.79339 0.237552 -0.246159 0.939667 0.244328 -0.252545 0.936229 
0.181948 -0.338924 0.923052 -0.322527 -0.581289 0.747047 -0.524377 -0.476884 0.705415 
-0.508772 -0.485159 0.711176 0.58183 -0.654735 0.482489 0.387751 -0.509174 0.768369 
0.157107 -0.339524 0.927384 0.197429 -0.384314 0.901845 0.085154 -0.379416 0.921299 
-0.00216825 -0.340712 0.940165 0.0654866 -0.342328 0.937296 0.0929169 -0.415435 0.904865 
0.0424897 -0.521107 0.852433 -0.0571098 -0.56134 0.825612 -0.0934424 -0.585907 0.804973 
-0.315136 -0.57884 0.752086 -0.248589 -0.564516 0.787099 -0.348382 -0.626146 0.697546 
0.32722 -0.722852 0.608615 0.106106 -0.644584 0.757135 0.033251 -0.597019 0.801537 
0.077567 -0.549261 0.832043 0.0713754 -0.544254 0.835878 0.0291061 -0.579315 0.814584 
-0.0818715 -0.630298 0.772025 -0.126023 -0.731883 0.669676 -0.316898 -0.800456 0.508769 
0.537655 0.84222 -0.0399056 0.318334 0.947327 -0.0351537 0.0724921 0.997367 -0.00214687 
-0.0378381 0.999231 0.010309 -0.10018 0.994792 0.0188052 -0.129099 0.991581 0.00998622 
-0.179428 0.983603 0.0181704 -0.328267 0.94118 0.0801275 0.608692 0.792207 -0.0436092 
0.713844 0.699964 -0.0218552 0.498478 0.740641 -0.450522 -0.521378 0.84705 0.103299 
-0.544054 0.831472 0.112517 -0.643399 0.745802 0.172675 0.760655 0.649144 -0.00396771 
0.810056 0.58577 0.0261253 -0.681843 0.71024 0.17507 -0.579358 0.646637 -0.49619 
-0.704176 0.68942 0.169811 0.815934 0.577062 0.0353727 0.776058 0.572304 -0.264959 
-0.713652 0.681904 0.160339 -0.713001 0.591464 -0.376563 0.858801 0.502978 0.0973326 
0.869532 0.483384 0.101264 -0.83027 0.552769 0.0713974 -0.84275 0.534919 0.0602869 
0.894102 0.427997 0.131909 -0.931111 0.36446 -0.0142108 0.949693 0.246832 0.192761 
-0.987395 0.150329 -0.0495235 0.936547 0.0722486 0.343015 0.963563 0.152743 -0.219581 
-0.99555 -0.0695577 -0.0635712 0.910047 -0.184573 0.371144 -0.973585 -0.218811 -0.0652234 
0.851815 -0.38029 0.360265 0.665856 -0.57541 0.474909 -0.9236 -0.379486 -0.0543406 
-0.871561 -0.489985 -0.0172403 -0.779959 -0.341317 -0.524563 0.649272 -0.588908 0.481283 
0.717553 -0.617379 0.32243 -0.826911 -0.562296 0.00648117 -0.693819 -0.714091 0.0932187 
0.591166 -0.659437 0.464399 0.586733 -0.662974 0.464984 0.523814 -0.730955 0.437407 
-0.679759 -0.726067 0.103702 -0.516535 -0.830835 0.207134 0.466504 -0.777031 0.422606 
0.332002 -0.852335 0.404103 0.173698 -0.87773 0.446563 0.103758 -0.869116 0.483603 
0.058651 -0.872188 0.485643 0.0317079 -0.889451 0.455929 -0.0248415 -0.90456 0.425622 
-0.131844 -0.903161 0.408556 -0.246106 -0.892828 0.377214 -0.446933 -0.862956 0.235707 
-0.371021 -0.891412 0.260247 0.0678362 -0.996025 -0.057726 0.0218631 -0.999401 0.0268182 
-0.0388437 -0.997302 0.0622836 0.281072 0.733336 -0.619045 0.128231 0.792566 -0.596151 
-0.017719 0.823601 -0.566893 -0.101503 0.807294 -0.581355 -0.123259 0.782865 -0.60986 
-0.0741243 0.803608 -0.590524 -0.227532 0.82153 -0.522798 0.596786 0.594354 -0.539063 
0.405043 0.688768 -0.601281 0.451318 0.65456 -0.606517 0.264194 0.663026 -0.700428 
0.101772 0.605791 -0.789088 -0.00877516 0.619134 -0.785236 -0.0940314 0.617782 -0.780707 
-0.0916066 0.656148 -0.749052 -0.0570695 0.711239 -0.70063 -0.342774 0.780439 -0.522896 
-0.225306 0.730982 -0.644129 -0.479193 0.717079 -0.506134 0.599715 0.592078 -0.538316 
0.593489 0.589226 -0.548255 0.37008 0.486089 -0.791681 0.226912 0.373055 -0.899634 
-0.0739593 0.334406 -0.939523 -0.0828307 0.31241 -0.946329 -0.107699 0.364344 -0.925016 
-0.576201 0.643883 -0.503395 -0.328635 0.511544 -0.793928 -0.576683 0.643356 -0.503518 
0.676774 0.524879 -0.516216 0.691415 0.52496 -0.496349 0.474164 0.42526 -0.770923 
-0.152253 0.184611 -0.970947 -0.66936 0.526518 -0.524154 -0.41916 0.347432 -0.838806 
-0.671273 0.508608 -0.539176 0.71128 0.505494 -0.488424 0.769867 0.450229 -0.452325 
0.586597 0.424025 -0.690004 -0.286638 0.160419 -0.944513 -0.671667 0.400251 -0.623428 
-0.543047 0.301014 -0.783894 -0.701973 0.330559 -0.630844 0.790984 0.417844 -0.446935 
0.73635 0.403363 -0.543219 0.446955 0.330097 -0.831425 -0.435394 0.164897 -0.885009 
-0.708182 0.311774 -0.633462 -0.68872 0.310829 -0.655019 0.843489 0.343935 -0.412595 
0.946706 0.160736 -0.279126 0.671864 0.304943 -0.674988 -0.335377 0.0532523 -0.940578 
-0.793231 0.116722 -0.597629 -0.633247 0.112254 -0.765766 0.947432 0.158238 -0.278088 
0.953917 0.124154 -0.273181 0.946195 0.158674 -0.282025 -0.365583 -0.0439119 -0.929743 
-0.768355 -0.0698416 -0.636202 -0.612325 -0.0864189 -0.785869 0.963563 -0.140649 -0.227516 
-0.40082 -0.0307101 -0.915642 -0.726667 -0.184967 -0.66162 -0.7268 -0.285456 -0.624721 
-0.653841 -0.167749 -0.737802 0.920737 -0.334087 -0.201568 0.683958 -0.220887 -0.695277 
-0.722249 -0.31942 -0.613455 -0.466995 -0.175352 -0.866699 0.805104 -0.578175 -0.132371 
0.777249 -0.615847 -0.128906 0.755719 -0.562769 -0.334933 -0.425375 -0.162678 -0.890277 
-0.698736 -0.386084 -0.602252 -0.692236 -0.44094 -0.571297 -0.656686 -0.359996 -0.662696 
0.661081 -0.737622 -0.137427 0.620052 -0.771294 -0.143674 0.580004 -0.713084 -0.393836 
0.497969 -0.852192 -0.160608 0.367885 -0.504213 -0.7813 -0.666436 -0.584136 -0.463302 
-0.614592 -0.695636 -0.371979 -0.57322 -0.477647 -0.665787 0.48836 -0.856273 -0.168231 
0.379116 -0.89268 -0.243706 0.323078 -0.780668 -0.534956 0.234722 -0.95924 -0.157369 
0.131236 -0.978854 -0.156917 -0.174073 -0.971543 -0.160632 -0.320491 -0.929626 -0.181883 
-0.288933 -0.549019 -0.784281 -0.532679 -0.792438 -0.297145 -0.463216 -0.848488 -0.255927 
-0.457054 -0.728531 -0.510239 0.0859004 -0.984878 -0.150454 0.0683223 -0.986863 -0.146401 
0.0691483 -0.982039 -0.175548 0.0190042 -0.991067 -0.132002 0.0194933 -0.980974 -0.193159 
-0.133129 -0.978671 -0.156459 -0.0437328 -0.988392 -0.145497 -0.0457457 -0.975607 -0.214707 
0.0762943 0.389463 -0.917877 -0.00989809 0.410983 -0.911589 -0.0969174 0.343163 -0.934262 
0.301774 0.378306 -0.87511 0.153604 0.367596 -0.917212 0.210162 0.351 -0.912486 
0.0791589 0.365398 -0.92748 -0.0104003 0.359814 -0.932966 -0.0898918 0.325519 -0.941253 
-0.0981712 0.325056 -0.940585 -0.0685427 0.250069 -0.965799 -0.0749544 0.219843 -0.972651 
-0.0999516 0.213649 -0.971784 0.320718 0.369524 -0.872119 0.342964 0.344123 -0.874045 
0.288168 0.353048 -0.890121 0.144196 0.275306 -0.950481 0.0591376 0.228897 -0.971653 
-0.048909 0.187041 -0.981134 -0.135667 0.154818 -0.978584 -0.0671091 0.136291 -0.988393 
-0.0635347 0.14748 -0.987022 -0.100882 0.210853 -0.972298 -0.100166 0.212315 -0.972054 
-0.168275 0.111715 -0.979389 0.365033 0.338899 -0.867121 0.317738 0.323735 -0.8912 
0.20561 0.219117 -0.953788 0.0984196 0.158192 -0.982491 -0.000217979 0.0989808 -0.995089 
-0.0883002 0.0923621 -0.991803 -0.154459 0.169119 -0.973417 -0.0852182 0.114404 -0.989773 
-0.000476933 0.0305223 -0.999534 -0.0757555 0.0763884 -0.994196 -0.186798 0.104559 -0.976818 
-0.178873 0.100238 -0.978753 -0.242681 0.140228 -0.959918 0.410433 0.306136 -0.858968 
0.427263 0.310952 -0.848973 0.258347 0.222231 -0.940144 0.128364 0.146656 -0.980823 
0.0180567 0.0440436 -0.998866 -0.00719544 -0.00580127 -0.999957 0.0246211 0.109733 -0.993656 
-0.0700644 0.153707 -0.985629 -0.235575 0.316244 -0.918963 -0.0986358 0.0277461 -0.994737 
-0.031471 -0.01366 -0.999411 -0.0623286 0.066044 -0.995868 -0.255201 0.139358 -0.956793 
-0.242579 0.140244 -0.959941 0.512516 0.264076 -0.817062 0.546473 0.184459 -0.81691 
0.35397 0.225227 -0.907732 0.161491 0.172783 -0.971631 0.0321712 0.100017 -0.994465 
-0.0536484 0.0275114 -0.998181 0.0643147 -0.0265801 -0.997576 0.0702185 0.119125 -0.990393 
0.038181 0.0269601 -0.998907 -0.179796 0.137664 -0.974024 -0.317684 0.0376611 -0.947448 
-0.035919 -0.00712221 -0.999329 -0.0455946 0.0285661 -0.998551 -0.229538 0.0321271 -0.972769 
-0.186128 0.0220478 -0.982278 0.548243 0.177309 -0.817307 0.540362 0.177655 -0.822465 
0.291955 0.128456 -0.947766 0.115542 0.1073 -0.98749 -0.0208621 0.0703641 -0.997303 
-0.110447 0.0400037 -0.993077 0.071262 0.0307176 -0.996985 0.0995671 0.031826 -0.994522 
-0.0399461 0.155257 -0.987066 -0.201085 -0.0320498 -0.979049 -0.298279 0.0849446 -0.950692 
-0.0329289 0.0518012 -0.998114 -0.036427 0.0159433 -0.999209 -0.248757 -0.03172 -0.968046 
-0.210072 -0.0292092 -0.977249 0.592238 -0.0592064 -0.803585 0.604468 -0.11698 -0.787994 
0.56658 -0.0579559 -0.821966 0.284988 0.00718693 -0.958504 0.0999276 0.0408149 -0.994157 
-0.0355025 0.0169897 -0.999225 -0.0921531 0.0336693 -0.995175 0.0497932 0.115574 -0.99205 
0.184244 0.0128187 -0.982797 -0.0183653 0.0265892 -0.999478 -0.263048 -0.0425206 -0.963845 
-0.227268 0.150888 -0.962072 -0.110676 0.157871 -0.981238 -0.124068 0.0384657 -0.991528 
-0.254446 -0.0284733 -0.966668 -0.240797 -0.0303601 -0.970101 0.611292 -0.197995 -0.766238 
0.334601 -0.160555 -0.928582 0.150745 -0.141282 -0.978425 -0.0296156 -0.0996542 -0.994581 
-0.0112215 0.0199543 -0.999738 0.0617468 0.103619 -0.992699 0.00913082 0.021276 -0.999732 
-0.0915246 -0.087666 -0.991936 -0.0994492 -0.0169032 -0.994899 -0.0989455 0.100504 -0.990004 
-0.152057 0.107941 -0.98246 -0.210445 0.0239494 -0.977312 -0.270988 -0.080154 -0.95924 
-0.277897 -0.0850626 -0.956837 -0.258824 -0.0738832 -0.963095 0.43941 -0.440282 -0.782988 
0.409439 -0.482259 -0.774458 0.390766 -0.430012 -0.813874 0.35447 -0.483503 -0.800359 
0.206977 -0.330251 -0.920921 0.11534 -0.195629 -0.973872 0.111335 -0.119243 -0.986603 
0.0590171 -0.0554021 -0.996718 -0.0174745 -0.0560044 -0.998278 -0.0649471 -0.0323389 -0.997365 
-0.0677256 -0.0118581 -0.997634 -0.105648 -0.00748349 -0.994375 -0.188593 -0.0202457 -0.981847 
-0.367604 -0.120021 -0.922205 -0.278539 -0.0751919 -0.957477 0.351503 -0.488559 -0.798596 
0.252651 -0.580094 -0.774376 0.192773 -0.384201 -0.9029 0.131368 -0.314164 -0.940236 
0.119887 -0.256291 -0.959136 0.0344514 -0.23119 -0.972298 -0.0458478 -0.199042 -0.978918 
-0.0723737 -0.19128 -0.978864 -0.103536 -0.184433 -0.977377 -0.277814 -0.504111 -0.817735 
-0.228543 -0.250835 -0.940665 -0.37091 -0.289763 -0.882306 -0.344108 -0.341215 -0.874735 
-0.322125 -0.258165 -0.910816 0.269325 -0.567659 -0.777964 0.267297 -0.568386 -0.778132 
0.267335 -0.5556 -0.7873 0.108147 -0.676409 -0.728543 0.125989 -0.545037 -0.828891 
0.0292758 -0.684567 -0.728362 0.0219152 -0.55874 -0.829053 0.00231394 -0.655947 -0.754803 
-0.0151525 -0.516572 -0.85611 -0.0202615 -0.629533 -0.776709 -0.0268765 -0.493081 -0.869568 
-0.263654 -0.527086 -0.807878 -0.13281 -0.631604 -0.763831 -0.140467 -0.484949 -0.863188 

