# vtk DataFile Version 4.2
vtk output
ASCII
DATASET POLYDATA
POINTS 522 float
-38.4379 -35.5706 -12.3282 -30.6163 -35.5706 -14.9333 -22.7947 -35.5706 -15.9715 
-14.9731 -35.5706 -16.5212 -7.15155 -35.5706 -16.7131 0.670047 -35.5706 -15.2113 
8.49164 -35.5706 -12.9049 -46.2595 -27.749 -14.4927 -38.4379 -27.749 -16.63 
-30.6163 -27.749 -17.6669 -22.7947 -27.749 -18.1162 -14.9731 -27.749 -18.3549 
-7.15155 -27.749 -18.8266 0.670047 -27.749 -17.9179 8.49164 -27.749 -17.0666 
16.3132 -27.749 -16.6447 24.1348 -27.749 -14.3406 -46.2595 -19.9274 -17.1702 
-38.4379 -19.9274 -18.4239 -30.6163 -19.9274 -19.1618 -22.7947 -19.9274 -18.2595 
-14.9731 -19.9274 -17.8698 -7.15155 -19.9274 -18.5836 0.670047 -19.9274 -17.898 
8.49164 -19.9274 -17.5399 16.3132 -19.9274 -17.8806 24.1348 -19.9274 -17.2411 
31.9564 -19.9274 -16.6701 39.778 -19.9274 -16.0726 47.5996 -19.9274 -15.5066 
55.4212 -19.9274 -13.0349 -54.0811 -12.1058 -14.9327 -46.2595 -12.1058 -18.1013 
-38.4379 -12.1058 -19.1092 -30.6163 -12.1058 -19.0056 -22.7947 -12.1058 -18.1728 
-14.9731 -12.1058 -16.7519 -7.15155 -12.1058 -17.758 0.670047 -12.1058 -17.0069 
8.49164 -12.1058 -17.1502 16.3132 -12.1058 -17.298 24.1348 -12.1058 -17.1018 
31.9564 -12.1058 -17.9116 39.778 -12.1058 -18.1694 47.5996 -12.1058 -17.3517 
55.4212 -12.1058 -17.0851 63.2428 -12.1058 -13.9146 -54.0811 -4.28424 -15.2912 
-46.2595 -4.28424 -18.5071 -38.4379 -4.28424 -19.2967 -30.6163 -4.28424 -18.8909 
-22.7947 -4.28424 -17.5096 -14.9731 -4.28424 -16.0448 -7.15155 -4.28424 -19.3383 
0.670047 -4.28424 -14.6441 8.49164 -4.28424 -18.8839 16.3132 -4.28424 -15.7098 
24.1348 -4.28424 -16.279 31.9564 -4.28424 -17.6484 39.778 -4.28424 -18.1118 
47.5996 -4.28424 -18.4112 55.4212 -4.28424 -19.385 63.2428 -4.28424 -13.7612 
-54.0811 3.53736 -15.291 -46.2595 3.53736 -18.4394 -38.4379 3.53736 -19.1955 
-30.6163 3.53736 -18.7956 -22.7947 3.53736 -17.4542 -14.9731 3.53736 -16.2117 
-7.15155 3.53736 -19.7303 0.670047 3.53736 -13.3438 8.49164 3.53736 -19.2985 
16.3132 3.53736 -14.3322 24.1348 3.53736 -15.2091 31.9564 3.53736 -16.9333 
39.778 3.53736 -17.4313 47.5996 3.53736 -17.7055 55.4212 3.53736 -18.8202 
63.2428 3.53736 -13.1963 -54.0811 11.359 -14.4086 -46.2595 11.359 -17.8092 
-38.4379 11.359 -18.7977 -30.6163 11.359 -18.7589 -22.7947 11.359 -17.6926 
-14.9731 11.359 -16.4728 -7.15155 11.359 -16.0966 0.670047 11.359 -16.5468 
8.49164 11.359 -14.6071 16.3132 11.359 -12.3703 24.1348 11.359 -14.2111 
31.9564 11.359 -15.2194 39.778 11.359 -16.0592 47.5996 11.359 -15.5524 
55.4212 11.359 -14.0296 -46.2595 19.1805 -16.2074 -38.4379 19.1805 -18.7079 
-30.6163 19.1805 -18.353 -22.7947 19.1805 -17.3578 -14.9731 19.1805 -15.6551 
0.670047 19.1805 -12.4296 8.49164 19.1805 -12.7618 31.9564 19.1805 -13.4121 
39.778 19.1805 -13.4458 -38.4379 27.0021 -15.0654 -30.6163 27.0021 -15.9936 
-22.7947 27.0021 -14.9615 -38.4379 -35.5901 -12.3075 -30.6163 -38.4834 -12.3075 
-22.7947 -39.9679 -12.3075 -14.9731 -41.3611 -12.3075 -14.9731 -43.3922 -6.68559 
-7.15155 -40.8944 -12.3075 0.670047 -38.7283 -12.3075 8.49164 -36.1701 -12.3075 
-38.481 -35.5706 -12.3075 -46.2595 -30.7863 -12.3075 11.1133 -35.5706 -12.3075 
16.3132 -33.9644 -12.3075 16.3132 -35.5706 -6.67773 24.1348 -30.1393 -12.3075 
-49.301 -27.749 -12.3075 31.58 -27.749 -12.3075 31.9564 -27.6015 -12.3075 
31.9564 -27.749 -11.9285 39.778 -24.6804 -12.3075 39.778 -27.749 -4.82189 
47.5996 -23.576 -12.3075 55.4212 -20.7122 -12.3075 -53.5177 -19.9274 -12.3075 
-54.0811 -18.5005 -12.3075 -54.0811 -19.9274 -11.5032 57.0169 -19.9274 -12.3075 
63.2428 -15.2072 -12.3075 63.2428 -19.9274 -7.13575 -56.4835 -12.1058 -12.3075 
65.5215 -12.1058 -12.3075 -57.2979 -4.28424 -12.3075 65.9986 -4.28424 -12.3075 
71.0644 -4.28424 -7.18173 -57.385 3.53736 -12.3075 -61.9027 3.53736 -4.56443 
64.6321 3.53736 -12.3075 63.2428 6.55873 -12.3075 71.0644 3.53736 -5.66026 
-56.2595 11.359 -12.3075 -54.0811 16.0915 -12.3075 -7.15155 18.8037 -12.3075 
16.3132 11.6699 -12.3075 24.1348 17.9557 -12.3075 47.5996 18.0875 -12.3075 
59.7613 11.359 -12.3075 55.4212 14.5671 -12.3075 63.2428 11.359 -10.3049 
-52.5189 19.1805 -12.3075 -54.0811 19.1805 -10.647 -46.2595 26.1294 -12.3075 
-7.52544 19.1805 -12.3075 -14.9731 26.9154 -12.3075 -2.29227 19.1805 -12.3075 
-7.15155 19.1805 -12.1447 0.670047 19.4093 -12.3075 10.2136 19.1805 -12.3075 
8.49164 20.31 -12.3075 16.3132 19.1805 -10.8373 26.0081 19.1805 -12.3075 
24.1348 19.1805 -11.9403 31.9564 20.9722 -12.3075 45.2259 19.1805 -12.3075 
39.778 21.3048 -12.3075 47.5996 19.1805 -11.6786 55.4212 19.1805 -8.95913 
-44.9412 27.0021 -12.3075 -46.2595 27.0021 -11.431 -38.4379 30.5051 -12.3075 
-30.6163 31.7742 -12.3075 -15.09 27.0021 -12.3075 -22.7947 30.9328 -12.3075 
-14.9731 27.0021 -12.2653 -7.15155 27.0021 -9.1751 0.670047 27.0021 -8.63761 
8.49164 27.0021 -9.37295 16.3132 27.0021 -7.99087 24.1348 27.0021 -7.63196 
31.9564 27.0021 -6.93882 39.778 27.0021 -6.26511 -38.4379 34.8237 -5.74739 
-30.6163 34.8237 -8.60261 -22.7947 34.8237 -8.36322 -14.9731 34.8237 -5.78715 
-14.9731 -43.9418 -4.48594 -38.4379 -39.1717 -4.48594 -30.6163 -41.6055 -4.48594 
-19.9711 -43.3922 -4.48594 -22.7947 -43.0789 -4.48594 -10.7545 -43.3922 -4.48594 
-14.9731 -43.3922 -3.1614 -7.15155 -42.8795 -4.48594 0.670047 -40.8605 -4.48594 
8.49164 -38.3846 -4.48594 16.3132 -35.9676 -4.48594 -45.4901 -35.5706 -4.48594 
-46.2595 -35.0902 -4.48594 8.49164 -35.5706 0.818939 17.1893 -35.5706 -4.48594 
16.3132 -35.5706 -3.64018 24.1348 -32.0163 -4.48594 31.9564 -29.5537 -4.48594 
39.778 -27.8487 -4.48594 -53.7109 -27.749 -4.48594 -54.0811 -27.1751 -4.48594 
31.9564 -27.749 0.821041 40.1778 -27.749 -4.48594 39.778 -27.749 -4.15204 
47.5996 -26.2322 -4.48594 55.4212 -23.7172 -4.48594 63.2428 -21.1179 -4.48594 
-57.847 -19.9274 -4.48594 64.7212 -19.9274 -4.48594 63.2428 -19.9274 -0.788863 
-60.5456 -12.1058 -4.48594 69.8868 -12.1058 -4.48594 71.0644 -8.48407 -4.48594 
-61.5285 -4.28424 -4.48594 -61.9027 2.93592 -4.48594 72.2086 -4.28424 -4.48594 
71.0644 -4.28424 -0.0254166 -61.9329 3.53736 -4.48594 -61.9027 3.99525 -4.48594 
-61.9027 3.53736 -3.83398 71.6609 3.53736 -4.48594 71.0644 4.80331 -4.48594 
71.0644 3.53736 -2.4234 -61.3738 11.359 -4.48594 67.3219 11.359 -4.48594 
63.2428 17.1131 -4.48594 -58.0445 19.1805 -4.48594 -54.0811 24.6581 -4.48594 
47.5996 26.3253 -4.48594 60.8684 19.1805 -4.48594 55.4212 22.4471 -4.48594 
-51.8537 27.0021 -4.48594 -46.2595 31.5331 -4.48594 -7.15155 33.0668 -4.48594 
0.670047 32.2547 -4.48594 8.49164 32.9724 -4.48594 16.3132 31.4203 -4.48594 
24.1348 30.3586 -4.48594 31.9564 29.1571 -4.48594 44.6734 27.0021 -4.48594 
39.778 28.1711 -4.48594 47.5996 27.0021 -0.571476 -39.759 34.8237 -4.48594 
-38.4379 35.4763 -4.48594 -30.6163 37.163 -4.48594 -22.7947 37.227 -4.48594 
-11.6365 34.8237 -4.48594 -14.9731 35.8705 -4.48594 -7.15155 34.8237 -2.10145 
0.670047 34.8237 -0.719356 8.49164 34.8237 -1.05372 16.3132 34.8237 1.64228 
-38.4379 -36.3424 3.33565 -30.6163 -38.6324 3.33565 -22.7947 -39.4814 3.33565 
-14.9731 -39.8668 3.33565 -7.15155 -38.7962 3.33565 0.670047 -36.3034 3.33565 
-39.8691 -35.5706 3.33565 -46.2595 -31.7372 3.33565 -38.4379 -35.5706 4.17313 
-30.6163 -35.5706 6.74966 -22.7947 -35.5706 7.0456 -14.9731 -35.5706 7.31363 
-7.15155 -35.5706 6.38252 3.15858 -35.5706 3.33565 0.670047 -35.5706 4.0718 
8.49164 -33.7679 3.33565 16.3132 -31.0412 3.33565 24.1348 -28.0111 3.33565 
-50.6094 -27.749 3.33565 -54.0811 -23.0711 3.33565 -46.2595 -27.749 7.10046 
-38.4379 -27.749 10.8969 -7.15155 -27.749 10.8515 0.670047 -27.749 9.0812 
8.49164 -27.749 7.99568 16.3132 -27.749 6.26521 25.7001 -27.749 3.33565 
24.1348 -27.749 3.61876 31.9564 -26.6921 3.33565 39.778 -25.3608 3.33565 
47.5996 -24.2968 3.33565 55.4212 -21.493 3.33565 -55.922 -19.9274 3.33565 
-54.0811 -19.9274 5.66112 -46.2595 -19.9274 10.8284 16.3132 -19.9274 10.8044 
24.1348 -19.9274 9.96851 31.9564 -19.9274 9.53483 39.778 -19.9274 9.51086 
47.5996 -19.9274 8.15287 59.3242 -19.9274 3.33565 55.4212 -19.9274 5.21364 
63.2428 -17.2745 3.33565 -59.1901 -12.1058 3.33565 -54.0811 -12.1058 9.89931 
66.9852 -12.1058 3.33565 63.2428 -12.1058 6.61725 -60.5224 -4.28424 3.33565 
69.7141 -4.28424 3.33565 63.2428 -4.28424 9.02179 -61.5279 3.53736 3.33565 
68.7532 3.53736 3.33565 63.2428 3.53736 8.75786 -60.7577 11.359 3.33565 
65.5059 11.359 3.33565 63.2428 14.6884 3.33565 63.2428 11.359 5.93219 
-57.7819 19.1805 3.33565 -54.0811 24.4753 3.33565 -54.0811 19.1805 10.6244 
59.414 19.1805 3.33565 55.4212 22.3356 3.33565 55.4212 19.1805 7.83481 
-51.854 27.0021 3.33565 -46.2595 31.7324 3.33565 24.1348 33.9821 3.33565 
31.9564 32.6187 3.33565 39.778 30.7267 3.33565 39.778 27.0021 10.8923 
48.5969 27.0021 3.33565 47.5996 27.588 3.33565 47.5996 27.0021 4.49355 
-40.874 34.8237 3.33565 -38.4379 36.1643 3.33565 -38.4379 34.8237 7.73291 
-30.6163 38.5202 3.33565 -22.7947 39.3949 3.33565 -14.9731 38.9724 3.33565 
-7.15155 37.6441 3.33565 0.670047 36.8412 3.33565 8.49164 36.517 3.33565 
19.6808 34.8237 3.33565 16.3132 35.4606 3.33565 16.3132 34.8237 9.24674 
-30.6163 -27.7522 11.1573 -22.7947 -28.9512 11.1573 -14.9731 -28.3043 11.1573 
-30.6792 -27.749 11.1573 -38.4379 -27.1822 11.1573 -30.6163 -27.749 11.1589 
-22.7947 -27.749 11.7665 -11.3751 -27.749 11.1573 -14.9731 -27.749 11.4208 
-7.15155 -26.7007 11.1573 0.670047 -21.7492 11.1573 8.49164 -21.1834 11.1573 
-45.4149 -19.9274 11.1573 -46.2595 -19.1126 11.1573 -38.4379 -19.9274 13.4612 
-30.6163 -19.9274 14.304 -22.7947 -19.9274 13.7163 -14.9731 -19.9274 13.373 
-7.15155 -19.9274 13.0603 0.670047 -19.9274 11.7289 13.264 -19.9274 11.1573 
8.49164 -19.9274 11.7337 16.3132 -18.7234 11.1573 24.1348 -17.1924 11.1573 
31.9564 -17.0635 11.1573 39.778 -17.3209 11.1573 47.5996 -15.2904 11.1573 
55.4212 -12.6395 11.1573 -51.9652 -12.1058 11.1573 -54.0811 -4.94951 11.1573 
-46.2595 -12.1058 14.019 -38.4379 -12.1058 15.8644 -30.6163 -12.1058 16.3873 
-22.7947 -12.1058 15.8855 -14.9731 -12.1058 15.4461 -7.15155 -12.1058 16.1504 
0.670047 -12.1058 14.9772 8.49164 -12.1058 15.9904 16.3132 -12.1058 13.0709 
[...]
POINT_DATA 522
SCALARS ImageScalars float
LOOKUP_TABLE default
0 0 0 0 0 0 0 0 0 
0 0 0 0 0 0 0 0 0 
0 0 0 0 0 0 0 0 0 
0 0 0 0 0 0 0 0 0 
0 0 0 0 0 0 0 0 0 
0 0 0 0 0 0 0 0 0 
0 0 0 0 0 0 0 0 0 
0 0 0 0 0 0 0 0 0 
0 0 0 0 0 0 0 0 0 
0 0 0 0 0 0 0 0 0 
0 0 0 0 0 0 0 0 0 
0 0 0 0 0 0 0 0 0 
0 0 0 0 0 0 0 0 0 
0 0 0 0 0 0 0 0 0 
0 0 0 0 0 0 0 0 0 
0 0 0 0 0 0 0 0 0 
0 0 0 0 0 0 0 0 0 
0 0 0 0 0 0 0 0 0 
0 0 0 0 0 0 0 0 0 
0 0 0 0 0 0 0 0 0 
0 0 0 0 0 0 0 0 0 
0 0 0 0 0 0 0 0 0 
0 0 0 0 0 0 0 0 0 
0 0 0 0 0 0 0 0 0 
0 0 0 0 0 0 0 0 0 
0 0 0 0 0 0 0 0 0 
0 0 0 0 0 0 0 0 0 
0 0 0 0 0 0 0 0 0 
0 0 0 0 0 0 0 0 0 
0 0 0 0 0 0 0 0 0 
0 0 0 0 0 0 0 0 0 
0 0 0 0 0 0 0 0 0 
0 0 0 0 0 0 0 0 0 
0 0 0 0 0 0 0 0 0 
0 0 0 0 0 0 0 0 0 
0 0 0 0 0 0 0 0 0 
0 0 0 0 0 0 0 0 0 
0 0 0 0 0 0 0 0 0 
0 0 0 0 0 0 0 0 0 
0 0 0 0 0 0 0 0 0 
0 0 0 0 0 0 0 0 0 
0 0 0 0 0 0 0 0 0 
0 0 0 0 0 0 0 0 0 
0 0 0 0 0 0 0 0 0 
0 0 0 0 0 0 0 0 0 
0 0 0 0 0 0 0 0 0 
0 0 0 0 0 0 0 0 0 
0 0 0 0 0 0 0 0 0 
0 0 0 0 0 0 0 0 0 
0 0 0 0 0 0 0 0 0 
0 0 0 0 0 0 0 0 0 
0 0 0 0 0 0 0 0 0 
0 0 0 0 0 0 0 0 0 
0 0 0 0 0 0 0 0 0 
0 0 0 0 0 0 0 0 0 
0 0 0 0 0 0 0 0 0 
0 0 0 0 0 0 0 0 0 
0 0 0 0 0 0 0 0 0 

NORMALS Normals float
0.366681 0.67966 0.635301 0.169253 0.575829 0.799859 0.10288 0.481919 0.870155 
0.0423045 0.430276 0.901705 -0.078236 0.488759 0.868904 -0.237126 0.580399 0.779043 
-0.237071 0.746627 0.621567 0.416842 0.488882 0.766314 0.178789 0.323607 0.929146 
0.0801014 0.245561 0.966066 0.0473457 0.122211 0.991374 0.0442554 0.0798965 0.99582 
-0.0240641 0.111131 0.993514 -0.120905 0.156099 0.980314 -0.0756926 0.254023 0.964232 
-0.172523 0.370742 0.912571 -0.274459 0.620061 0.734981 0.321343 0.166449 0.932219 
0.126082 0.133724 0.982965 -0.00661708 0.0938286 0.995566 -0.0812213 0.00373874 0.996689 
0.0190667 -0.0969758 0.995104 0.00378816 -0.0645044 0.99791 -0.0665656 -0.0563681 0.996189 
0.000271647 0.00650287 0.999979 -0.0225049 0.0308074 0.999272 -0.0796972 0.148147 0.985749 
-0.0776091 0.318901 0.944605 -0.0721301 0.455149 0.887489 -0.183656 0.46656 0.865212 
-0.336771 0.646075 0.684961 0.604885 0.169498 0.778064 0.217377 0.0930123 0.971646 
0.051836 0.0598207 0.996862 -0.0549906 -0.0171388 0.99834 -0.142789 -0.0493728 0.988521 
-0.0244328 -0.119795 0.992498 0.0151765 0.0278622 0.999497 -0.0353838 -0.174882 0.983953 
0.0181277 0.0706589 0.997336 -0.00314925 -0.125173 0.99213 0.0387584 -0.0616817 0.997343 
0.0708036 0.0675679 0.995199 -0.0322352 0.108955 0.993524 -0.0733726 0.152639 0.985555 
-0.246239 0.386564 0.888783 -0.491262 0.25453 0.832992 0.566289 0.0169486 0.824033 
0.211322 0.0209522 0.977192 0.019811 0.00551758 0.999789 -0.112853 -0.0133419 0.993522 
-0.179733 -0.0416586 0.982833 0.072689 -0.0335387 0.996791 -0.0288246 0.13602 0.990287 
0.00238482 -0.260486 0.965475 0.047922 0.15652 0.986512 -0.152132 -0.179133 0.971991 
0.110013 -0.121928 0.986423 0.122763 -0.0645664 0.990333 0.0446847 -0.0470331 0.997893 
0.0707077 0.0210558 0.997275 -0.21799 0.0806856 0.97261 -0.485325 -0.0395003 0.873441 
0.552564 -0.0430277 0.832359 0.207727 -0.0433933 0.977224 0.0182752 -0.0316833 0.999331 
-0.110055 -0.0083858 0.99389 -0.163489 0.0115223 0.986478 0.106676 0.0286217 0.993882 
-0.0822615 -0.194942 0.977359 -0.0460225 0.166086 0.985037 0.0621126 -0.234581 0.97011 
-0.217748 -0.230445 0.94841 0.147556 -0.12937 0.980556 0.138858 -0.144091 0.979774 
0.0476508 -0.122906 0.991274 0.0753476 -0.176088 0.981486 -0.204842 -0.26177 0.943142 
-0.537338 -0.151541 0.82964 0.577569 -0.211139 0.788565 0.230031 -0.147535 0.961935 
0.0557065 -0.0306702 0.997976 -0.0700367 -0.0273956 0.997168 -0.148385 -0.00558038 0.988914 
-0.0990862 -0.0327094 0.994541 0.00433525 -0.432979 0.901394 -0.0690191 -0.0607884 0.995762 
-0.288965 -0.375813 0.880491 0.0115205 -0.188481 0.982009 0.18091 -0.198969 0.963163 
0.112608 -0.221843 0.968558 0.0209699 -0.265498 0.963883 -0.110397 -0.333991 0.936089 
-0.259479 -0.469937 0.8437 0.374904 -0.294235 0.879132 0.139018 -0.211313 0.967482 
-0.0824599 -0.156195 0.984278 -0.164796 -0.156113 0.973895 -0.306333 -0.229408 0.923868 
0.0377269 -0.477684 0.877721 -0.114696 -0.289367 0.950322 0.0893054 -0.405074 0.909912 
-0.0880143 -0.408147 0.908664 0.211304 -0.533838 0.81876 -0.00544556 -0.458599 0.888627 
-0.19697 -0.434703 0.87877 0.366998 0.68077 0.633929 0.201144 0.756716 0.622031 
0.160366 0.742401 0.65048 0.0409887 0.792802 0.6081 -0.000223423 0.996467 0.0839869 
-0.14537 0.824017 0.547598 -0.269518 0.774609 0.572138 -0.248165 0.776654 0.578984 
0.367892 0.680371 0.633838 0.465067 0.619459 0.632442 -0.267479 0.788512 0.553809 
-0.30695 0.787615 0.534269 -0.367184 0.929872 0.0226697 -0.327546 0.761516 0.559292 
0.538962 0.531983 0.653081 -0.271419 0.785388 0.556325 -0.268976 0.78396 0.559517 
-0.271304 0.80524 0.527241 -0.175797 0.780104 0.600445 -0.223973 0.974456 0.0164569 
-0.224929 0.732816 0.642174 -0.343177 0.675227 0.652915 0.719817 0.271853 0.638717 
0.728069 0.258178 0.635027 0.766983 0.293101 0.570815 -0.370451 0.652821 0.66075 
-0.52225 0.425483 0.739066 -0.565701 0.776445 0.277698 0.729099 0.184349 0.659113 
-0.60991 0.299895 0.733534 0.719926 0.0472136 0.692443 -0.601502 -0.0263594 0.798436 
-0.965314 0.0873221 0.246057 0.705024 -0.0501452 0.707408 0.984532 -0.00840527 0.175002 
-0.588585 -0.168483 0.790684 -0.535283 -0.248229 0.807375 -0.943158 -0.279883 0.179215 
0.675041 -0.219134 0.704485 0.645178 -0.324995 0.691465 -0.183676 -0.372038 0.909863 
0.0100768 -0.188731 0.981977 0.166238 -0.347617 0.922782 -0.204754 -0.460945 0.863484 
-0.396138 -0.441377 0.805146 -0.289718 -0.519089 0.804121 -0.595475 -0.477939 0.645743 
0.613074 -0.381782 0.691652 0.6967 -0.421802 0.580252 0.451869 -0.593967 0.665596 
-0.198488 -0.365041 0.909586 -0.321957 -0.479066 0.816602 -0.0516525 -0.439858 0.896581 
-0.191457 -0.369608 0.909249 0.0375157 -0.479521 0.876728 -0.0945538 -0.270085 0.958182 
-0.0960357 -0.313003 0.944884 -0.0399839 -0.239394 0.970099 0.148128 -0.382788 0.911884 
0.158995 -0.373863 0.913754 0.0890137 -0.479175 0.873194 -0.180804 -0.458502 0.870107 
-0.0805334 -0.50339 0.860298 -0.228916 -0.503642 0.833032 -0.396126 -0.712631 0.579 
0.419829 -0.615994 0.666555 0.469513 -0.642281 0.605833 0.243813 -0.666328 0.704672 
0.0257659 -0.677994 0.734616 -0.320137 -0.481072 0.816139 -0.184581 -0.57457 0.79737 
-0.321819 -0.481922 0.814975 -0.198681 -0.486237 0.85094 0.0104446 -0.547359 0.836833 
-0.0324483 -0.506263 0.861769 -0.0998073 -0.5136 0.852205 -0.0508045 -0.630677 0.774381 
-0.0626594 -0.752011 0.656166 -0.123098 -0.847482 0.516354 0.323375 -0.88632 0.33146 
0.0769452 -0.850309 0.520628 -0.124599 -0.801406 0.584999 -0.23841 -0.777032 0.582565 
-0.0116504 0.996589 -0.0817038 0.376658 0.926351 0.00177319 0.243808 0.969816 -0.00382043 
0.092397 0.993734 -0.0628966 0.150391 0.987463 -0.0479484 -0.107869 0.989501 -0.0961924 
-0.0136637 0.985738 -0.16773 -0.193173 0.975444 -0.105798 -0.270178 0.955157 -0.121156 
-0.300786 0.94894 -0.0950866 -0.367679 0.919669 -0.137916 0.551465 0.833768 -0.0267688 
0.57486 0.817836 -0.0260801 -0.27275 0.829691 -0.487053 -0.372786 0.917243 -0.140342 
-0.366143 0.910631 -0.191547 -0.378505 0.918079 -0.117749 -0.249629 0.966925 -0.0523518 
-0.224807 0.974402 -0.0014617 0.788521 0.615006 0.00135126 0.803434 0.595358 0.0065207 
-0.186306 0.913268 -0.362258 -0.224361 0.974506 -0.00071537 -0.220591 0.975151 -0.0205084 
-0.230122 0.973077 0.0128881 -0.377488 0.925599 0.0277264 -0.541793 0.836385 0.0831875 
0.925104 0.368977 0.08966 -0.6316 0.772485 0.0659438 -0.597295 0.762292 -0.249298 
0.96845 0.220372 0.116366 -0.886842 0.457279 0.066387 -0.955547 0.285095 0.0751733 
0.988023 0.0886098 0.126331 0.985966 -0.000457073 0.166944 -0.992754 0.0911925 0.0782468 
-0.983317 0.10208 -0.150557 0.985321 -0.00795537 0.170525 0.985009 -0.0209951 0.17122 
0.990842 -0.00708826 0.134839 -0.959162 -0.261504 0.107815 -0.938719 -0.326069 0.111735 
-0.961417 -0.275085 -0.00238242 0.954678 -0.231169 0.187486 -0.792956 -0.589494 0.154002 
-0.699228 -0.688374 0.192929 0.860322 -0.459318 0.221075 0.726515 -0.651394 0.218773 
-0.319843 -0.893323 0.315714 -0.61637 -0.754221 0.226358 -0.471384 -0.834406 0.285592 
0.655927 -0.721748 0.220994 0.520066 -0.821998 0.232058 -0.177044 -0.718793 0.672303 
-0.00315555 -0.731149 0.682211 -0.0348405 -0.775865 0.629936 -0.133041 -0.721893 0.679095 
-0.107838 -0.776382 0.620968 -0.11651 -0.810867 0.573515 -0.258715 -0.896983 0.358451 
-0.164414 -0.879783 0.446037 -0.410085 -0.909754 0.064638 0.362462 -0.894368 0.262158 
0.333148 -0.902509 0.272929 0.0999595 -0.935344 0.339321 -0.0699744 -0.914253 0.399055 
-0.204382 -0.787064 0.582029 -0.219122 -0.816048 0.534838 -0.163963 -0.842369 0.513352 
-0.0382827 -0.901621 0.43083 -0.0547213 -0.920842 0.386076 -0.161924 -0.960103 0.227997 
0.360736 0.749359 -0.555275 0.172911 0.791221 -0.586576 0.0717691 0.771505 -0.632162 
-0.0339121 0.766765 -0.641032 -0.183593 0.747376 -0.638532 -0.239158 0.706543 -0.666034 
0.403807 0.737028 -0.541969 0.534957 0.690895 -0.486297 0.349525 0.719329 -0.600332 
0.144344 0.674574 -0.723958 0.029925 0.626901 -0.778524 -0.0343567 0.604617 -0.795775 
-0.167833 0.635938 -0.75327 -0.242296 0.705178 -0.666346 -0.23733 0.681009 -0.692749 
-0.230638 0.698396 -0.677532 -0.277631 0.708852 -0.648421 -0.207979 0.77524 -0.596447 
0.626816 0.588612 -0.510527 0.733175 0.498725 -0.462306 0.486945 0.488394 -0.724124 
0.210315 0.498719 -0.840861 -0.130465 0.357695 -0.92468 -0.16863 0.414007 -0.894518 
-0.146094 0.522297 -0.840156 -0.225312 0.62172 -0.750133 -0.195124 0.791399 -0.579322 
-0.201872 0.768413 -0.60728 -0.144081 0.84156 -0.520593 -0.115901 0.86052 -0.496056 
-0.232179 0.837873 -0.494026 -0.30935 0.815929 -0.488429 0.788166 0.440398 -0.429934 
0.683898 0.450185 -0.574123 0.396024 0.364245 -0.842906 -0.100297 0.359558 -0.927717 
-0.0746911 0.490224 -0.86839 -0.0258994 0.568103 -0.82255 -0.0588859 0.637855 -0.767902 
-0.225752 0.674258 -0.703144 -0.439742 0.701106 -0.561318 -0.334561 0.737675 -0.586433 
-0.579483 0.54447 -0.606425 0.883815 0.257605 -0.390526 0.619942 0.251515 -0.743245 
-0.702469 0.434932 -0.563357 -0.559919 0.397495 -0.726972 0.926013 0.139369 -0.350822 
-0.903356 0.0957215 -0.418074 -0.489311 0.13922 -0.860925 0.958366 0.00645565 -0.285469 
-0.87351 -0.225087 -0.431644 -0.558985 -0.163534 -0.812891 0.944377 -0.207301 -0.255301 
-0.774485 -0.466003 -0.427801 -0.72377 -0.530514 -0.441261 -0.685571 -0.435295 -0.583533 
0.860258 -0.45813 -0.223772 0.752058 -0.629256 -0.196076 0.726291 -0.376234 -0.575282 
-0.660142 -0.661028 -0.356727 -0.598739 -0.749923 -0.281296 -0.559188 -0.600726 -0.571347 
0.690096 -0.70037 -0.182345 0.561691 -0.814861 -0.143196 -0.181946 -0.976016 0.119533 
-0.197692 -0.978381 0.0607312 -0.308504 -0.949492 -0.0573508 -0.400927 -0.668901 -0.625963 
-0.488183 -0.854526 -0.17738 -0.470218 -0.867269 -0.163522 -0.483736 -0.841105 -0.241954 
0.447515 -0.888807 -0.0987549 0.403947 -0.90973 -0.0960084 0.414205 -0.861758 -0.292928 
0.187642 -0.982164 -0.0120379 0.0296225 -0.996514 0.0779862 -0.11477 -0.983598 0.13915 
-0.131014 -0.971397 0.198049 -0.072967 -0.978532 0.192744 -0.0847736 -0.987131 0.135596 
-0.168924 -0.977627 0.12534 -0.158194 -0.979071 0.128038 -0.181743 -0.949092 -0.25728 
0.0523795 0.428234 -0.902149 0.0165838 0.399303 -0.916669 -0.0554798 0.359615 -0.93145 
0.0536304 0.428773 -0.901819 0.208416 0.481407 -0.851358 0.052345 0.428158 -0.902186 
0.0134228 0.366527 -0.930311 -0.0907574 0.350048 -0.932325 -0.0567217 0.343953 -0.937272 
-0.125729 0.343572 -0.930672 -0.100746 0.336771 -0.936181 -0.0660652 0.430124 -0.900349 
0.372146 0.354365 -0.857865 0.386211 0.357444 -0.850338 0.190207 0.297081 -0.935716 
0.0173831 0.303223 -0.952761 -0.0571517 0.25894 -0.964201 -0.039777 0.232099 -0.971879 
-0.0996884 0.293257 -0.950822 -0.0811864 0.322797 -0.94298 -0.0814343 0.38122 -0.920891 
-0.0538665 0.42346 -0.904312 -0.103806 0.340836 -0.934374 -0.0312291 0.411377 -0.91093 
0.00532949 0.467722 -0.883859 -0.0477022 0.5258 -0.849269 -0.175621 0.478554 -0.860316 
-0.332308 0.369151 -0.867928 0.518792 0.268954 -0.811492 0.639724 0.149339 -0.753957 
0.327981 0.293665 -0.89788 0.133303 0.261912 -0.955841 0.000132232 0.239912 -0.970795 
-0.0554406 0.270704 -0.961065 0.0111886 0.369194 -0.929285 -0.0236358 0.437951 -0.898688 
-0.0100217 0.333127 -0.942829 -0.128965 0.482849 -0.866155 -0.153202 0.284359 -0.946398 
0.0360864 0.297548 -0.954025 0.0365054 0.339467 -0.939909 -0.058135 0.344973 -0.93681 
-0.150491 0.343437 -0.92704 -0.338481 0.358022 -0.870202 -0.324133 0.347964 -0.879692 
0.647026 0.140774 -0.74936 0.642956 0.141226 -0.75277 0.330364 0.173434 -0.927782 
0.147249 0.203444 -0.967951 0.040332 0.21854 -0.974994 0.0664739 0.243088 -0.967724 
-0.0175245 0.268562 -0.963103 -0.291109 0.384224 -0.876144 -0.00861875 0.277597 -0.960659 
0.0436942 0.214391 -0.97577 -0.0645869 0.195451 -0.978585 -0.193114 0.152153 -0.969307 
-0.345273 0.0994069 -0.933223 -0.306504 0.0744937 -0.94895 0.690208 0.0874248 -0.71831 
0.624554 0.107163 -0.773595 0.338743 0.12321 -0.932777 -0.118497 0.271468 -0.955125 
-0.0620401 0.190632 -0.979699 -0.117686 0.0457763 -0.991995 -0.24029 0.00577493 -0.970684 
-0.399398 -0.0714637 -0.913988 -0.346718 -0.0215911 -0.937721 0.716781 -0.11844 -0.687166 
0.715625 -0.331367 -0.61488 0.650526 -0.102442 -0.752543 0.370227 -0.0292367 -0.928481 
-0.175065 0.0524404 -0.983159 -0.242073 -0.0805535 -0.966908 -0.287758 -0.175773 -0.941435 
-0.467176 -0.252415 -0.847368 -0.47029 -0.321898 -0.821711 -0.431866 -0.2131 -0.876402 
0.709543 -0.362925 -0.604015 0.474833 -0.256843 -0.841763 -0.233241 -0.207352 -0.950055 
-0.401438 -0.645439 -0.649812 -0.333706 -0.287655 -0.897716 -0.425588 -0.458758 -0.78001 
-0.4128 -0.473395 -0.778135 -0.393357 -0.426214 -0.814624 0.598177 -0.59361 -0.538342 
0.584176 -0.616301 -0.528121 0.581081 -0.574529 -0.576421 0.417633 -0.780639 -0.464957 
0.358716 -0.43807 -0.824268 -0.183775 -0.903135 -0.388039 -0.160156 -0.428129 -0.889413 
-0.227608 -0.869571 -0.438224 -0.182807 -0.523721 -0.832045 -0.397963 -0.657238 -0.640049 
-0.303035 -0.801044 -0.516234 -0.302849 -0.60662 -0.735048 0.369569 -0.819971 -0.437111 
0.282718 -0.870486 -0.402895 0.280708 -0.773912 -0.567682 0.0910403 -0.925126 -0.368584 
0.0805171 -0.723677 -0.685426 -0.0865321 -0.936136 -0.340824 -0.0685534 -0.738652 -0.670592 
-0.140638 -0.933018 -0.331208 -0.121772 -0.815891 -0.565238 -0.0883695 -0.938583 -0.333547 
-0.0876536 -0.880056 -0.466709 -0.168598 -0.910484 -0.377616 -0.100243 -0.928366 -0.357894 
-0.104411 -0.886865 -0.450076 0.127473 0.380675 -0.915881 -0.114951 0.423443 -0.8986 
-0.0554786 0.31082 -0.948848 0.163079 0.169066 -0.972019 0.0384229 0.204521 -0.978108 
0.116144 0.335147 -0.93498 0.0774272 0.220395 -0.972333 0.138981 0.373282 -0.917248 
-0.11425 0.358226 -0.926618 -0.17262 0.389905 -0.904531 -0.0192666 0.25128 -0.967723 
-0.131029 0.3984 -0.907804 -0.100933 0.285821 -0.952953 -0.0126323 0.226192 -0.974001 
-0.154621 0.24481 -0.957163 0.183966 0.161058 -0.969648 0.163859 0.163879 -0.972776 
0.0352873 0.189252 -0.981294 0.0836603 0.199545 -0.976311 0.185808 0.154961 -0.97029 
-0.0510588 0.221347 -0.973858 -0.184308 0.442192 -0.877779 -0.0564985 0.0452892 -0.997375 
-0.141035 0.238517 -0.960843 -0.143019 0.231412 -0.962286 -0.0976369 0.146057 -0.984446 
0.284602 -0.000838839 -0.958645 0.201015 0.0278736 -0.979192 0.0775235 0.0811424 -0.993683 
0.0581403 0.13867 -0.988631 0.146728 0.0564094 -0.987567 0.0871085 -0.00668728 -0.996176 
-0.20416 0.140189 -0.968848 -0.202737 0.0745636 -0.97639 -0.073134 0.0513709 -0.995998 
-0.145878 0.0656336 -0.987123 -0.087033 0.0938495 -0.991775 0.310772 -0.155773 -0.937633 
0.297977 -0.240523 -0.923774 0.266143 -0.135027 -0.954429 0.142572 -0.0790308 -0.986624 
0.0608277 -0.0412647 -0.997295 0.0487456 -0.0782818 -0.995739 0.0380536 -0.208218 -0.977342 
-0.10251 -0.194683 -0.975495 -0.17513 -0.0725537 -0.981868 -0.138601 -0.266731 -0.953753 
-0.117768 -0.123438 -0.985339 -0.152792 -0.164734 -0.974432 -0.13132 -0.195488 -0.971874 
-0.124205 -0.150457 -0.980783 0.245856 -0.371713 -0.8952 0.190355 -0.405194 -0.894194 
0.175645 -0.338712 -0.92435 0.0699549 -0.461364 -0.884449 0.0621211 -0.298072 -0.95252 
-0.0393156 -0.470322 -0.881619 -0.0221908 -0.311073 -0.950127 -0.0674635 -0.489063 -0.869635 
-0.0487639 -0.400476 -0.915009 -0.0588255 -0.509063 -0.858717 -0.0556525 -0.443354 -0.894617 
-0.132698 -0.391707 -0.910471 -0.121728 -0.422503 -0.89815 -0.122436 -0.385572 -0.914518 

