# vtk DataFile Version 4.2
vtk output
ASCII
DATASET POLYDATA
POINTS 558 float
-37.4824 -16.3724 -23.243 -29.3542 -16.3724 -22.5775 -21.226 -40.757 -15.8788 
-13.0978 -40.757 -17.2015 -4.96957 -40.757 -18.4452 3.15863 -40.757 -18.9177 
11.2868 -40.757 -17.9898 19.415 -40.757 -16.3114 -45.6106 -32.6288 -15.2382 
-37.4824 -32.6288 -18.4106 -29.3542 -32.6288 -19.4693 -21.226 -32.6288 -20.3456 
-13.0978 -32.6288 -20.3921 -4.96957 -32.6288 -21.1978 3.15863 -32.6288 -21.0372 
11.2868 -32.6288 -20.0871 19.415 -32.6288 -18.5573 27.5432 -32.6288 -15.748 
-53.7388 -24.5006 -14.9713 -45.6106 -24.5006 -19.822 -37.4824 -19.7017 -22.5711 
-37.4824 -24.5006 -21.4331 -29.3542 -16.4146 -22.5711 -29.3542 -24.5006 -21.4444 
-21.226 -24.5006 -21.6144 -13.0978 -24.5006 -21.4003 -4.96957 -24.5006 -21.5662 
3.15863 -24.5006 -21.1743 11.2868 -24.5006 -20.6228 19.415 -24.5006 -19.3253 
27.5432 -24.5006 -17.3123 35.6714 -24.5006 -15.1112 -53.7388 -16.3724 -17.4175 
-39.967 -16.3724 -22.5711 -45.6106 -16.3724 -20.9085 -37.4824 -9.84695 -22.5711 
-29.3036 -16.3724 -22.5711 -29.3542 -16.2634 -22.5711 -21.226 -16.3724 -21.5556 
-13.0978 -16.3724 -21.1959 -4.96957 -16.3724 -21.7122 3.15863 -16.3724 -21.0289 
11.2868 -16.3724 -20.5419 19.415 -16.3724 -19.011 27.5432 -16.3724 -17.5407 
35.6714 -16.3724 -16.2918 43.7996 -16.3724 -14.6299 -53.7388 -8.24421 -17.6544 
-45.6106 -8.24421 -21.0605 -37.4824 -8.24421 -22.3877 -29.3542 -8.24421 -22.1023 
-21.226 -8.24421 -21.1849 -13.0978 -8.24421 -21.0506 -4.96957 -8.24421 -21.5166 
3.15863 -8.24421 -19.5783 11.2868 -8.24421 -21.1957 19.415 -8.24421 -18.7192 
27.5432 -8.24421 -16.5712 35.6714 -8.24421 -15.8195 -53.7388 -0.116007 -17.0517 
-45.6106 -0.116007 -20.4496 -37.4824 -0.116007 -21.6891 -29.3542 -0.116007 -21.5086 
-21.226 -0.116007 -20.6005 -13.0978 -0.116007 -20.5266 -4.96957 -0.116007 -20.6495 
3.15863 -0.116007 -17.3238 11.2868 -0.116007 -21.2234 19.415 -0.116007 -19.5156 
27.5432 -0.116007 -16.6119 35.6714 -0.116007 -15.1748 -53.7388 8.0122 -15.223 
-45.6106 8.0122 -18.9846 -37.4824 8.0122 -21.1618 -29.3542 8.0122 -21.1941 
-21.226 8.0122 -19.8423 -13.0978 8.0122 -19.4879 -4.96957 8.0122 -21.4915 
3.15863 8.0122 -18.9809 11.2868 8.0122 -19.2374 19.415 8.0122 -19.9094 
27.5432 8.0122 -18.4225 35.6714 8.0122 -16.1144 -45.6106 16.1404 -16.6709 
-37.4824 16.1404 -18.8545 -29.3542 16.1404 -18.9774 -21.226 16.1404 -18.3967 
-13.0978 16.1404 -17.5338 -4.96957 16.1404 -18.2593 3.15863 16.1404 -17.7086 
11.2868 16.1404 -18.9908 19.415 16.1404 -20.5995 27.5432 16.1404 -19.9444 
35.6714 16.1404 -17.6054 43.7996 16.1404 -14.5726 -37.4824 24.2686 -15.0189 
-29.3542 24.2686 -15.2111 -21.226 24.2686 -14.6451 -13.0978 24.2686 -15.1725 
-4.96957 24.2686 -16.8042 3.15863 24.2686 -18.2261 11.2868 24.2686 -19.587 
19.415 24.2686 -21.1018 27.5432 24.2686 -20.3621 35.6714 24.2686 -17.8487 
3.15863 32.3968 -16.9379 11.2868 32.3968 -18.8203 19.415 32.3968 -20.0928 
27.5432 32.3968 -19.0454 35.6714 32.3968 -16.0838 11.2868 40.525 -14.839 
19.415 40.525 -15.6193 -21.226 -41.9642 -14.4429 -13.0978 -43.5759 -14.4429 
-4.96957 -45.1045 -14.4429 3.15863 -46.2918 -14.4429 3.15863 -48.8852 -7.33972 
11.2868 -45.8065 -14.4429 11.2868 -48.8852 -6.75272 19.415 -42.7626 -14.4429 
-45.6106 -33.3959 -14.4429 -37.4824 -37.1218 -14.4429 -28.3587 -40.757 -14.4429 
-29.3542 -40.5319 -14.4429 -29.3542 -40.757 -13.9962 22.8423 -40.757 -14.4429 
27.5432 -35.7302 -14.4429 27.5432 -40.757 -11.0136 -46.5939 -32.6288 -14.4429 
-53.7388 -25.2285 -14.4429 31.5738 -32.6288 -14.4429 35.6714 -27.3052 -14.4429 
35.6714 -32.6288 -12.9219 43.7996 -32.6288 -8.18825 -54.2992 -24.5006 -14.4429 
38.3253 -24.5006 -14.4429 43.7996 -17.4851 -14.4429 43.7996 -24.5006 -13.0683 
51.9278 -24.5006 -8.08084 -57.0041 -16.3724 -14.4429 44.2272 -16.3724 -14.4429 
43.7996 -14.5031 -14.4429 51.9278 -16.3724 -10.1104 -57.3129 -8.24421 -14.4429 
41.2194 -8.24421 -14.4429 43.7996 -8.24421 -13.7538 51.9278 -8.24421 -10.443 
-56.8519 -0.116007 -14.4429 -61.867 -0.116007 -6.89251 40.0463 -0.116007 -14.4429 
43.7996 -0.116007 -13.755 51.9278 -0.116007 -9.4066 -54.8358 8.0122 -14.4429 
-53.7388 10.1855 -14.4429 42.1274 8.0122 -14.4429 43.7996 14.2439 -14.4429 
43.7996 8.0122 -13.9495 51.9278 8.0122 -8.69778 -49.7069 16.1404 -14.4429 
-53.7388 16.1404 -11.5177 -45.6106 20.3349 -14.4429 44.0038 16.1404 -14.4429 
43.7996 19.1689 -14.4429 51.9278 16.1404 -6.82063 -39.2476 24.2686 -14.4429 
-45.6106 24.2686 -11.9432 -37.4824 25.0075 -14.4429 -29.3542 25.6841 -14.4429 
-21.226 24.6422 -14.4429 -13.0978 25.994 -14.4429 -4.96957 32.3394 -14.4429 
43.2956 24.2686 -14.4429 43.7996 24.2686 -14.0934 -37.4824 32.3968 -7.49398 
-29.3542 32.3968 -9.73071 -21.226 32.3968 -10.2672 -13.0978 32.3968 -11.4929 
-4.91326 32.3968 -14.4429 -4.96957 32.3968 -14.422 3.15863 36.9713 -14.4429 
27.5432 40.2704 -14.4429 37.8189 32.3968 -14.4429 35.6714 34.7468 -14.4429 
43.7996 32.3968 -8.00237 -13.0978 40.525 -6.33224 -4.96957 40.525 -8.40783 
10.0435 40.525 -14.4429 3.15863 40.525 -11.7026 11.2868 40.9839 -14.4429 
26.3447 40.525 -14.4429 19.415 41.5954 -14.4429 27.5432 40.525 -14.1513 
35.6714 40.525 -7.22699 3.15863 -49.171 -6.31473 11.2868 -48.9999 -6.31473 
-29.3542 -43.3426 -6.31473 -21.226 -44.5712 -6.31473 -13.0978 -45.6274 -6.31473 
1.94644 -48.8852 -6.31473 -4.96957 -47.2554 -6.31473 3.15863 -48.8852 -5.48437 
11.9363 -48.8852 -6.31473 11.2868 -48.8852 -5.85009 19.415 -47.5103 -6.31473 
27.5432 -43.7187 -6.31473 -45.6106 -36.5267 -6.31473 -36.9056 -40.757 -6.31473 
-37.4824 -40.5537 -6.31473 -29.3542 -40.757 0.235531 33.1148 -40.757 -6.31473 
35.6714 -39.233 -6.31473 35.6714 -40.757 0.327359 43.7996 -34.6633 -6.31473 
-50.9723 -32.6288 -6.31473 -53.7388 -29.897 -6.31473 47.123 -32.6288 -6.31473 
51.9278 -27.3349 -6.31473 51.9278 -32.6288 1.45741 -57.4937 -24.5006 -6.31473 
53.8052 -24.5006 -6.31473 -60.6021 -16.3724 -6.31473 57.0128 -16.3724 -6.31473 
60.056 -16.3724 -0.98265 -61.6936 -8.24421 -6.31473 -61.867 -5.22986 -6.31473 
58.2962 -8.24421 -6.31473 60.056 -8.24421 -3.0615 -62.14 -0.116007 -6.31473 
-61.867 1.93657 -6.31473 -61.867 -0.116007 -3.63743 55.9799 -0.116007 -6.31473 
-60.9066 8.0122 -6.31473 54.8522 8.0122 -6.31473 -58.0781 16.1404 -6.31473 
-53.7388 24.1825 -6.31473 52.3733 16.1404 -6.31473 51.9278 18.9004 -6.31473 
-53.6673 24.2686 -6.31473 -53.7388 24.2686 -6.06797 -45.6106 30.5305 -6.31473 
50.9694 24.2686 -6.31473 51.9278 24.2686 -3.37915 -40.8336 32.3968 -6.31473 
-45.6106 32.3968 -2.03739 -37.4824 33.8014 -6.31473 -29.3542 36.6384 -6.31473 
-21.226 37.9675 -6.31473 45.1885 32.3968 -6.31473 43.7996 33.8542 -6.31473 
-29.3542 40.525 -2.29911 -13.1697 40.525 -6.31473 -21.226 40.525 -4.01991 
-13.0978 40.5457 -6.31473 -4.96957 42.6345 -6.31473 3.15863 44.8392 -6.31473 
11.2868 46.175 -6.31473 19.415 46.4937 -6.31473 27.5432 45.0634 -6.31473 
36.3634 40.525 -6.31473 35.6714 40.9937 -6.31473 3.15863 48.6532 0.141392 
11.2868 48.6532 -0.689674 19.415 48.6532 1.58717 -21.226 -41.5036 1.81347 
-13.0978 -42.4579 1.81347 -4.96957 -43.9145 1.81347 3.15863 -45.9445 1.81347 
11.2868 -46.8745 1.81347 19.415 -45.9059 1.81347 27.5432 -43.4786 1.81347 
35.6714 -41.047 1.81347 -45.6106 -33.0489 1.81347 -37.4824 -37.7793 1.81347 
-25.3823 -40.757 1.81347 -29.3542 -40.0121 1.81347 -21.226 -40.757 2.86714 
-13.0978 -40.757 4.29409 -4.96957 -40.757 7.07124 27.5432 -40.757 8.39673 
36.2773 -40.757 1.81347 35.6714 -40.757 2.81998 43.7996 -37.5776 1.81347 
51.9278 -32.7505 1.81347 -46.0728 -32.6288 1.81347 -53.7388 -25.1916 1.81347 
-45.6106 -32.6288 2.27289 -37.4824 -32.6288 7.46989 -29.3542 -32.6288 9.92547 
52.086 -32.6288 1.81347 51.9278 -32.6288 2.34205 -54.4146 -24.5006 1.81347 
-53.7388 -24.5006 2.50593 -45.6106 -24.5006 9.72176 58.9557 -24.5006 1.81347 
60.056 -20.5017 1.81347 -58.3937 -16.3724 1.81347 -53.7388 -16.3724 7.9566 
61.0523 -16.3724 1.81347 60.056 -16.3724 5.53025 -60.6068 -8.24421 1.81347 
61.6234 -8.24421 1.81347 60.056 -0.124537 1.81347 60.056 -8.24421 7.89662 
-61.2752 -0.116007 1.81347 60.0543 -0.116007 1.81347 -60.6587 8.0122 1.81347 
58.7193 8.0122 1.81347 -59.008 16.1404 1.81347 56.5797 16.1404 1.81347 
-55.1042 24.2686 1.81347 -53.7388 26.0261 1.81347 -53.7388 24.2686 4.98709 
53.1569 24.2686 1.81347 51.9278 26.0961 1.81347 51.9278 24.2686 5.33719 
-47.2942 32.3968 1.81347 -45.6106 33.708 1.81347 -45.6106 32.3968 7.72856 
-37.4824 38.967 1.81347 46.8348 32.3968 1.81347 43.7996 35.3333 1.81347 
43.7996 32.3968 8.24032 -34.4322 40.525 1.81347 -29.3542 42.9823 1.81347 
-21.226 45.6094 1.81347 -13.0978 47.527 1.81347 -4.96957 48.4676 1.81347 
27.5432 45.9973 1.81347 36.9 40.525 1.81347 35.6714 41.4144 1.81347 
35.6714 40.525 4.18256 -13.0978 48.6532 9.69614 -3.70444 48.6532 1.81347 
-4.96957 48.6532 3.09876 3.15863 49.4835 1.81347 11.2868 49.5721 1.81347 
19.6011 48.6532 1.81347 19.415 48.7104 1.81347 19.415 48.6532 3.09397 
3.15863 -41.0052 9.94168 11.2868 -41.9219 9.94168 19.415 -41.672 9.94168 
-21.226 -34.9836 9.94168 -13.0978 -36.5378 9.94168 2.23222 -40.757 9.94168 
-4.96957 -38.5826 9.94168 3.15863 -40.757 10.2268 11.2868 -40.757 11.232 
24.0302 -40.757 9.94168 19.415 -40.757 11.0238 27.5432 -40.0011 9.94168 
35.6714 -38.4329 9.94168 43.7996 -35.7706 9.94168 -37.4824 -29.3438 9.94168 
-29.2984 -32.6288 9.94168 -29.3542 -32.6061 9.94168 -21.226 -32.6288 11.9094 
-13.0978 -32.6288 13.5143 -4.96957 -32.6288 15.4543 3.15863 -32.6288 16.8747 
11.2868 -32.6288 17.241 19.415 -32.6288 17.4242 27.5432 -32.6288 17.7705 
35.6714 -32.6288 16.4419 49.3237 -32.6288 9.94168 43.7996 -32.6288 14.6487 
51.9278 -30.5884 9.94168 -45.1224 -24.5006 9.94168 -45.6106 -24.0713 9.94168 
-37.4824 -24.5006 12.8429 -29.3542 -24.5006 14.6203 -21.226 -24.5006 15.8941 
-13.0978 -24.5006 17.3467 56.8087 -24.5006 9.94168 51.9278 -24.5006 15.3592 
-51.27 -16.3724 9.94168 -53.7388 -12.4099 9.94168 -45.6106 -16.3724 13.3806 
-37.4824 -16.3724 16.2782 -29.3542 -16.3724 17.6994 58.4375 -16.3724 9.94168 
51.9278 -16.3724 16.6171 -55.4176 -8.24421 9.94168 -53.7388 -8.24421 11.547 
[...]
POINT_DATA 558
SCALARS ImageScalars float
LOOKUP_TABLE default
0 0 0 0 0 0 0 0 0 
0 0 0 0 0 0 0 0 0 
0 0 0 0 0 0 0 0 0 
0 0 0 0 0 0 0 0 0 
0 0 0 0 0 0 0 0 0 
0 0 0 0 0 0 0 0 0 
0 0 0 0 0 0 0 0 0 
0 0 0 0 0 0 0 0 0 
0 0 0 0 0 0 0 0 0 
0 0 0 0 0 0 0 0 0 
0 0 0 0 0 0 0 0 0 
0 0 0 0 0 0 0 0 0 
0 0 0 0 0 0 0 0 0 
0 0 0 0 0 0 0 0 0 
0 0 0 0 0 0 0 0 0 
0 0 0 0 0 0 0 0 0 
0 0 0 0 0 0 0 0 0 
0 0 0 0 0 0 0 0 0 
0 0 0 0 0 0 0 0 0 
0 0 0 0 0 0 0 0 0 
0 0 0 0 0 0 0 0 0 
0 0 0 0 0 0 0 0 0 
0 0 0 0 0 0 0 0 0 
0 0 0 0 0 0 0 0 0 
0 0 0 0 0 0 0 0 0 
0 0 0 0 0 0 0 0 0 
0 0 0 0 0 0 0 0 0 
0 0 0 0 0 0 0 0 0 
0 0 0 0 0 0 0 0 0 
0 0 0 0 0 0 0 0 0 
0 0 0 0 0 0 0 0 0 
0 0 0 0 0 0 0 0 0 
0 0 0 0 0 0 0 0 0 
0 0 0 0 0 0 0 0 0 
0 0 0 0 0 0 0 0 0 
0 0 0 0 0 0 0 0 0 
0 0 0 0 0 0 0 0 0 
0 0 0 0 0 0 0 0 0 
0 0 0 0 0 0 0 0 0 
0 0 0 0 0 0 0 0 0 
0 0 0 0 0 0 0 0 0 
0 0 0 0 0 0 0 0 0 
0 0 0 0 0 0 0 0 0 
0 0 0 0 0 0 0 0 0 
0 0 0 0 0 0 0 0 0 
0 0 0 0 0 0 0 0 0 
0 0 0 0 0 0 0 0 0 
0 0 0 0 0 0 0 0 0 
0 0 0 0 0 0 0 0 0 
0 0 0 0 0 0 0 0 0 
0 0 0 0 0 0 0 0 0 
0 0 0 0 0 0 0 0 0 
0 0 0 0 0 0 0 0 0 
0 0 0 0 0 0 0 0 0 
0 0 0 0 0 0 0 0 0 
0 0 0 0 0 0 0 0 0 
0 0 0 0 0 0 0 0 0 
0 0 0 0 0 0 0 0 0 
0 0 0 0 0 0 0 0 0 
0 0 0 0 0 0 0 0 0 
0 0 0 0 0 0 0 0 0 
0 0 0 0 0 0 0 0 0 

NORMALS Normals float
0.0991551 0.0508077 0.993774 -0.107882 0.0460562 0.993096 0.163945 0.739111 0.653327 
0.142405 0.636671 0.757872 0.101787 0.556077 0.824875 -0.0297257 0.470894 0.881689 
-0.138146 0.436272 0.889147 -0.332949 0.507681 0.79461 0.46904 0.643175 0.60525 
0.221285 0.524324 0.822263 0.101526 0.389659 0.915346 0.0574313 0.277625 0.958971 
0.0517039 0.232448 0.971234 0.0393162 0.175521 0.98369 -0.0676872 0.133324 0.988758 
-0.144817 0.152353 0.977659 -0.250484 0.148727 0.956628 -0.321481 0.283236 0.903563 
0.643946 0.433617 0.630325 0.372286 0.310895 0.874498 0.0860286 0.130522 0.987706 
0.0818184 0.259307 0.962323 -0.107302 0.0467808 0.993125 0.0103715 0.179801 0.983648 
-0.00183951 0.0667983 0.997765 -0.00266341 0.0475804 0.998864 -0.0138894 0.0307948 0.999429 
-0.0578141 -0.000778411 0.998327 -0.108534 0.0270158 0.993726 -0.200859 0.0261639 0.979271 
-0.239 0.0987082 0.965989 -0.238318 0.179189 0.954513 0.596338 0.139815 0.790464 
0.16626 0.0487651 0.984875 0.319968 0.0612809 0.945444 0.0737414 -0.0679165 0.994962 
-0.107782 0.0456035 0.993128 -0.107472 0.0445703 0.993209 -0.0844872 -0.0261593 0.996081 
0.00963866 -0.0214241 0.999724 -0.0101684 -0.00216822 0.999946 -0.071448 -0.0906257 0.993319 
-0.118748 0.0349815 0.992308 -0.190025 -0.0352231 0.981147 -0.156569 -0.0423913 0.986757 
-0.193531 0.0369618 0.980398 -0.321396 0.033526 0.946351 0.579853 -0.0198579 0.814479 
0.264189 -0.0274514 0.96408 0.0662926 -0.0979776 0.992978 -0.0735231 -0.0653684 0.995149 
-0.0645639 -0.0585984 0.996192 0.0185505 -0.0401274 0.999022 -0.0850633 -0.0601495 0.994558 
-0.0121218 -0.219937 0.975439 -0.050294 0.0418073 0.997859 -0.284516 0.0272871 0.958283 
-0.175279 -0.0608009 0.982639 -0.162643 -0.0645209 0.984573 0.553795 -0.139079 0.820956 
0.253485 -0.127708 0.958872 0.0654232 -0.0740063 0.995109 -0.0664583 -0.0552466 0.996259 
-0.0600236 -0.0819501 0.994827 0.00194002 -0.0964434 0.995337 -0.187568 -0.000383444 0.982252 
0.0592101 -0.0407654 0.997413 0.117308 -0.11465 0.986455 -0.289981 0.0737481 0.954187 
-0.244046 0.0997912 0.964615 -0.168385 0.0138093 0.985625 0.547688 -0.250407 0.798332 
0.318062 -0.204351 0.925785 0.131804 -0.163856 0.977639 -0.0814791 -0.151121 0.985152 
-0.101791 -0.130492 0.98621 0.0965599 -0.180586 0.978808 -0.0184202 -0.155059 0.987733 
-0.143374 0.0106994 0.989611 0.0579222 -0.137327 0.988831 -0.0423832 0.0645134 0.997016 
-0.232853 0.199486 0.951832 -0.25153 0.145491 0.956852 0.345567 -0.358786 0.867096 
0.122635 -0.338173 0.933059 -0.0266999 -0.342365 0.939188 -0.0861157 -0.284552 0.954785 
-0.00676051 -0.255542 0.966774 0.00972074 -0.278564 0.960368 0.0452073 -0.038872 0.998221 
0.180669 0.0220379 0.983297 0.0608378 0.072987 0.995476 -0.186157 0.110321 0.976307 
-0.313528 0.101939 0.944091 -0.491856 0.01327 0.870575 0.14966 -0.569591 0.808188 
-0.0194092 -0.467928 0.883553 -0.000589181 -0.455954 0.890003 0.125609 -0.337364 0.932957 
0.180301 -0.21421 0.960003 0.168004 -0.0433672 0.984832 0.174487 -0.0111114 0.984597 
0.0458298 -0.0258261 0.998615 -0.190219 -0.0549514 0.980203 -0.360854 -0.0717591 0.929857 
0.258122 -0.319875 0.911621 0.181087 -0.251343 0.950807 0.016683 -0.274112 0.961553 
-0.204353 -0.307841 0.929233 -0.487522 -0.3869 0.782707 0.177894 -0.645117 0.743087 
-0.0258159 -0.689493 0.723832 0.176281 0.805195 0.566203 0.180002 0.806449 0.563241 
0.146945 0.822072 0.550096 0.0440548 0.807555 0.588145 0.108506 0.993555 0.0327814 
-0.166046 0.732261 0.660471 -0.101344 0.99427 0.0339987 -0.354507 0.612788 0.706269 
0.477718 0.674355 0.563055 0.330254 0.73507 0.592118 0.220345 0.790054 0.572069 
0.224417 0.784897 0.577558 0.229919 0.808804 0.54127 -0.39917 0.548209 0.734936 
-0.378299 0.396419 0.836506 -0.488385 0.677839 0.549559 0.505823 0.654029 0.562484 
0.653063 0.462198 0.599901 -0.344785 0.344082 0.873345 -0.28872 0.253713 0.923185 
-0.382794 0.442534 0.810945 -0.439672 0.612452 0.656956 0.666322 0.440489 0.601652 
-0.263759 0.226337 0.937658 -0.321676 0.0736189 0.943983 -0.335539 0.336371 0.879925 
-0.625642 0.327898 0.707852 0.761898 0.149551 0.630196 -0.333239 0.0351872 0.942186 
-0.319251 0.0162599 0.947531 -0.561996 0.102086 0.820816 0.750622 -0.0055339 0.660709 
-0.261519 -0.0532799 0.963727 -0.310257 -0.0478835 0.949446 -0.482824 -0.0385954 0.874866 
0.694391 -0.107217 0.711565 0.97402 -0.0425802 0.222423 -0.242175 0.0129827 0.970146 
-0.314559 0.0101058 0.949184 -0.563003 -0.0975727 0.820675 0.590375 -0.250988 0.767113 
0.564135 -0.291707 0.772437 -0.35898 0.0663252 0.930986 -0.469715 0.0201699 0.882588 
-0.394451 0.0415604 0.917976 -0.621705 -0.11758 0.774376 0.475859 -0.388897 0.788871 
0.660795 -0.402509 0.633512 0.370326 -0.463072 0.805247 -0.49891 0.0104088 0.866591 
-0.529111 -0.0793507 0.844834 -0.772454 -0.162986 0.6138 0.200927 -0.570975 0.796 
0.383633 -0.578388 0.719926 0.159334 -0.583954 0.795996 -0.00137059 -0.49218 0.870492 
0.00207694 -0.457755 0.889076 0.150361 -0.36407 0.919154 0.310399 -0.421002 0.852297 
-0.566594 -0.229536 0.791381 -0.585995 -0.242777 0.773091 0.228736 -0.670124 0.706126 
0.132671 -0.62366 0.770355 0.0903565 -0.519299 0.849802 0.207056 -0.46039 0.863232 
0.311057 -0.421856 0.851634 0.311128 -0.422611 0.851234 0.28986 -0.512077 0.808553 
-0.262017 -0.690322 0.67439 -0.548347 -0.419162 0.723615 -0.501354 -0.488628 0.714063 
-0.703487 -0.558587 0.439417 0.192889 -0.623776 0.757428 0.242355 -0.660817 0.710341 
0.194965 -0.649634 0.734823 0.262567 -0.668448 0.695871 0.174434 -0.663809 0.727276 
-0.229883 -0.704003 0.671962 -0.0338875 -0.736896 0.675156 -0.264898 -0.707951 0.654701 
-0.510766 -0.810607 0.286417 0.112085 0.99316 -0.032726 -0.0980293 0.995155 0.00759858 
0.239668 0.970756 -0.0138247 0.13876 0.990106 -0.0208649 0.1654 0.984545 -0.0575615 
0.127791 0.990896 -0.0423669 0.20401 0.97587 -0.0778329 0.119046 0.990031 -0.0752735 
-0.113146 0.993488 0.0134153 -0.0943163 0.995454 -0.01329 -0.299877 0.947946 0.107109 
-0.468756 0.851405 0.235325 0.52569 0.850645 0.00722204 0.366488 0.930403 0.00599092 
0.3754 0.926811 0.00981857 0.208949 0.880285 -0.425956 -0.452508 0.819722 0.351131 
-0.435382 0.797364 0.417916 -0.383315 0.92294 0.0353824 -0.449311 0.703189 0.551039 
0.665246 0.746377 -0.0192358 0.759988 0.649814 -0.0126113 -0.498435 0.643598 0.580814 
-0.636773 0.447086 0.628199 -0.6222 0.780129 0.0653144 0.880806 0.47263 0.0283025 
-0.679433 0.347538 0.64621 0.967716 0.24442 0.0615194 -0.728191 0.172736 0.663249 
-0.955755 0.169907 0.240135 0.98355 0.0914466 0.155776 0.984645 0.0431683 0.169146 
-0.753287 -0.0467186 0.65603 -0.921576 -0.0574642 0.383922 0.980381 -0.0416011 0.192674 
0.976621 -0.0830442 0.198282 0.998528 -0.0281246 0.0463724 -0.720199 -0.138994 0.679702 
0.949621 -0.212983 0.229907 -0.726024 -0.168474 0.666713 0.84742 -0.392563 0.357455 
0.692199 -0.591333 0.413746 -0.781374 -0.17484 0.599071 -0.797734 -0.222366 0.560512 
0.689112 -0.593964 0.415127 0.698122 -0.594865 0.398449 0.416698 -0.755544 0.505486 
-0.818405 -0.32997 0.470461 -0.868043 -0.410265 0.279612 0.313618 -0.72581 0.612245 
0.53156 -0.807932 0.254342 0.259996 -0.695884 0.669438 0.161198 -0.678069 0.717104 
0.139808 -0.631323 0.762814 -0.72577 -0.583578 0.364273 -0.70751 -0.615695 0.346914 
0.259739 -0.818752 0.512036 0.192481 -0.6243 0.7571 0.170587 -0.720301 0.672359 
0.192846 -0.624126 0.75715 0.204523 -0.715434 0.668075 0.168146 -0.807241 0.565764 
0.0900485 -0.890039 0.446902 -0.0602746 -0.925098 0.374915 -0.308642 -0.908089 0.283045 
-0.526513 -0.81559 0.239991 -0.511918 -0.824393 0.241486 0.0820587 -0.925684 0.36929 
-0.00953778 -0.96176 0.273728 -0.198782 -0.97405 0.108221 0.125894 0.861345 -0.492175 
0.133105 0.8637 -0.486113 0.180063 0.868974 -0.460936 0.174356 0.878414 -0.444959 
-0.00814903 0.923527 -0.383447 -0.197593 0.92615 -0.321253 -0.28128 0.939042 -0.197691 
-0.364943 0.93 -0.0437813 0.530703 0.691772 -0.4897 0.308539 0.813491 -0.492988 
0.161056 0.845981 -0.508309 0.194313 0.829644 -0.523387 0.129437 0.841346 -0.52477 
0.147342 0.829953 -0.538023 0.200477 0.801556 -0.563309 -0.190935 0.870445 -0.453727 
-0.367426 0.929139 -0.0412265 -0.355538 0.930171 -0.0915122 -0.417146 0.908531 0.0236562 
-0.619413 0.783768 0.0451205 0.540301 0.683663 -0.490592 0.670491 0.550701 -0.497162 
0.527509 0.681845 -0.506776 0.300818 0.635356 -0.711218 0.218285 0.604161 -0.766382 
-0.62354 0.780455 0.0456891 -0.620667 0.783893 0.01688 0.688516 0.533433 -0.49132 
0.668048 0.535916 -0.516242 0.42905 0.454637 -0.780526 -0.910648 0.404727 0.0831635 
-0.960614 0.272278 0.0555399 0.862754 0.302447 -0.405194 0.626671 0.375655 -0.682764 
-0.987391 0.151705 0.0452265 -0.965361 0.157699 -0.20787 0.927887 0.162972 -0.335358 
-0.997583 -0.0613994 0.0325412 -0.983747 -0.17765 0.0261013 -0.917833 -0.0696178 -0.390814 
0.962657 0.00283876 -0.270709 -0.983726 -0.177771 0.0261016 0.963946 -0.130699 -0.231789 
-0.97787 -0.208235 0.0202211 0.935492 -0.312838 -0.164277 -0.94653 -0.319875 0.0419544 
0.826946 -0.550819 -0.112956 0.79888 -0.593371 -0.0984942 0.786454 -0.54067 -0.298608 
-0.866718 -0.496728 -0.045396 -0.836103 -0.545219 -0.0605653 -0.814928 -0.516599 -0.262713 
0.633403 -0.773267 0.0293024 0.593119 -0.803114 0.0567243 0.644069 -0.679638 -0.351095 
0.474749 -0.86312 0.172152 -0.715877 -0.691768 -0.0947466 -0.657935 -0.74551 -0.106471 
-0.620036 -0.638014 -0.456612 0.435538 -0.874399 0.213853 0.361171 -0.890621 0.276314 
0.265383 -0.88096 0.391768 0.146771 -0.920346 0.36252 0.112142 -0.936444 0.33241 
-0.403483 -0.912989 -0.0604379 -0.565286 -0.814077 -0.133159 -0.553754 -0.823147 -0.125642 
-0.569154 -0.787311 -0.237075 0.164672 -0.974207 -0.154282 0.104161 -0.938184 0.330093 
0.117097 -0.962029 0.246553 0.0653992 -0.946027 0.31742 -0.0468083 -0.977174 0.207219 
-0.206398 -0.973548 0.0980004 -0.202032 -0.974127 0.101293 -0.222927 -0.973616 0.0487463 
0.156585 0.770717 -0.617638 0.0327498 0.762274 -0.646426 -0.0991775 0.788822 -0.606567 
0.172437 0.642218 -0.746875 0.160826 0.715229 -0.680134 0.162467 0.769403 -0.617756 
0.205382 0.741876 -0.638309 0.155092 0.76467 -0.625481 0.0345438 0.728774 -0.683882 
-0.135502 0.818389 -0.558461 -0.0879177 0.763032 -0.640354 -0.161298 0.836195 -0.524176 
-0.23889 0.850455 -0.468676 -0.371179 0.85011 -0.373548 0.272421 0.540818 -0.795803 
0.218078 0.603799 -0.766726 0.218192 0.603424 -0.766989 0.177843 0.569063 -0.802832 
0.179785 0.574084 -0.798815 0.179861 0.52704 -0.83059 0.0892881 0.422433 -0.901986 
0.0291097 0.393686 -0.918784 0.0263389 0.47072 -0.881889 -0.0406797 0.568481 -0.82169 
-0.13818 0.641045 -0.754962 -0.509016 0.754789 -0.413759 -0.354014 0.657408 -0.665198 
-0.609114 0.662871 -0.43541 0.41676 0.451726 -0.788831 0.425737 0.446517 -0.787001 
0.259167 0.444236 -0.857605 0.169134 0.399161 -0.901146 0.153089 0.335956 -0.929353 
0.155863 0.270897 -0.949906 -0.809212 0.346919 -0.474155 -0.58217 0.335316 -0.740703 
0.525343 0.368824 -0.766801 0.61565 0.29658 -0.730079 0.4034 0.344781 -0.847582 
0.237644 0.3207 -0.916884 0.100998 0.278647 -0.955068 -0.842179 0.126971 -0.524035 
-0.619794 0.0109431 -0.784689 0.692596 0.209207 -0.690321 0.630774 0.223151 -0.743188 
0.373619 0.19457 -0.906946 -0.835011 -0.0703359 -0.545719 -0.525753 -0.0894746 -0.845919 
0.736424 0.0580416 -0.674026 0.58728 0.0589542 -0.807234 0.356845 0.0375003 -0.933411 
-0.248596 -0.13074 -0.959743 -0.789453 -0.174253 -0.588557 -0.559416 -0.110111 -0.821541 
0.743202 -0.105361 -0.660719 0.606332 -0.100631 -0.788819 0.330386 -0.106268 -0.937845 
-0.282271 -0.0904793 -0.955058 -0.779893 -0.172268 -0.60174 -0.610571 -0.145575 -0.778467 
0.708026 -0.261915 -0.65582 0.68841 -0.330353 -0.645723 0.659698 -0.256002 -0.706585 
0.369276 -0.15615 -0.916107 0.183245 -0.101513 -0.977812 -0.358273 -0.174865 -0.917095 
-0.792593 -0.270046 -0.546692 -0.733441 -0.379606 -0.563882 -0.690078 -0.258812 -0.675877 
0.630747 -0.43849 -0.640222 0.619677 -0.578399 -0.530523 0.480099 -0.324131 -0.815134 
0.260054 -0.238088 -0.935781 -0.296345 -0.230018 -0.926969 -0.656255 -0.479596 -0.582509 
-0.580555 -0.582212 -0.569197 -0.485822 -0.384999 -0.784699 0.617056 -0.593585 -0.516623 
0.567224 -0.710748 -0.416046 0.461115 -0.409092 -0.787411 0.268771 -0.160841 -0.94968 
-0.571661 -0.595566 -0.564362 -0.540646 -0.636663 -0.549875 -0.440748 -0.481718 -0.757423 
0.539434 -0.776964 -0.32456 0.460348 -0.839517 -0.288601 0.407165 -0.692402 -0.595647 
0.305387 -0.91997 -0.245753 0.231477 -0.497605 -0.835947 -0.32498 -0.913721 -0.243929 
-0.559028 -0.673577 -0.48351 -0.508368 -0.745589 -0.430882 -0.531547 -0.587522 -0.610144 
0.166913 -0.971107 -0.170559 0.164546 -0.971635 -0.169855 0.164395 -0.97076 -0.174929 
0.127634 -0.965818 -0.225624 0.122176 -0.937447 -0.325984 0.0326226 -0.981681 -0.187721 
0.0495825 -0.898543 -0.436076 -0.290419 -0.927417 -0.2357 -0.140124 -0.965712 -0.218552 
-0.130457 -0.918353 -0.373643 0.113346 0.305803 -0.945324 0.0564649 0.271145 -0.960881 
0.0507601 0.287391 -0.956467 0.0551038 0.42423 -0.903877 -0.0342954 0.546369 -0.836842 
-0.131852 0.510173 -0.849905 -0.310737 0.386407 -0.868408 0.0594566 0.233302 -0.970585 
0.12197 0.262487 -0.957196 0.143651 0.216392 -0.965681 0.0974828 0.260927 -0.960424 
0.0337357 0.156744 -0.987063 0.0871051 0.148974 -0.984997 0.146903 0.255177 -0.95567 
0.0173526 0.253633 -0.967145 -0.125817 0.276438 -0.95276 -0.384504 0.305629 -0.871061 
-0.304417 0.295149 -0.905658 0.216599 0.196583 -0.956264 0.061882 0.235951 -0.969793 
0.0975379 0.250274 -0.963249 0.0579953 0.23164 -0.971071 0.136243 0.176067 -0.974904 
0.0564475 0.210229 -0.976021 -0.0336699 0.118204 -0.992418 0.132791 0.0875472 -0.98727 
0.15511 0.0568683 -0.986259 0.0040581 -0.00325805 -0.999986 -0.109904 -0.0222895 -0.993692 
-0.514526 0.00781883 -0.857439 -0.275291 0.000319059 -0.961361 0.234935 0.174896 -0.956147 
0.212053 0.171673 -0.962061 0.0835422 0.132949 -0.987596 0.0415475 0.113775 -0.992637 
0.14034 0.131152 -0.981379 0.0387513 -0.050998 -0.997947 -0.0917345 -0.0248789 -0.995473 
0.040054 0.146236 -0.988438 0.0480765 -0.0647133 -0.996745 -0.0641445 -0.155196 -0.985799 
-0.114533 -0.152434 -0.981655 -0.364047 -0.132413 -0.92192 -0.248582 -0.130997 -0.959712 
-0.261336 -0.154785 -0.952756 0.27107 0.0219677 -0.962309 0.16381 -0.00163457 -0.986491 
0.0406594 -0.0358685 -0.998529 0.060475 -0.0387598 -0.997417 -0.0263214 0.023238 -0.999383 
-0.117439 -0.0308129 -0.992602 0.189535 0.00498004 -0.981861 0.0843436 0.091442 -0.992232 
-0.144734 -0.0569496 -0.98783 -0.0758192 -0.0975402 -0.992339 -0.247117 -0.130396 -0.960172 
-0.111591 -0.0919118 -0.989495 0.176468 -0.109209 -0.978229 0.159172 -0.104532 -0.981701 
0.14404 -0.108384 -0.983618 0.0492821 -0.0884046 -0.994865 0.0931474 -0.0602509 -0.993828 
0.15571 -0.0624153 -0.985829 0.0143482 0.0496801 -0.998662 0.0319716 0.108579 -0.993573 
-0.017486 -0.0451134 -0.998829 -0.150804 -0.00440764 -0.988554 -0.096174 -0.00420293 -0.995356 
-0.219657 -0.0791257 -0.972363 -0.138175 -0.054347 -0.988916 0.123977 -0.0686334 -0.989909 
0.0828239 -0.0463639 -0.995485 0.0885165 0.00190436 -0.996073 0.0826058 -0.0744059 -0.993801 
0.0690876 -0.11617 -0.990824 0.0677511 0.00316733 -0.997697 -0.0172017 -0.0112576 -0.999789 
-0.101881 0.0179853 -0.994634 -0.12385 -0.0108557 -0.992242 -0.238449 -0.1005 -0.965941 
-0.261804 -0.176021 -0.948934 -0.194442 -0.0771089 -0.977879 0.168736 -0.0457295 -0.9846 
0.249276 -0.135479 -0.958909 0.158993 -0.0251784 -0.986959 0.0694397 -0.0184127 -0.997416 
0.0325876 0.00791894 -0.999438 0.0952533 -0.0355468 -0.994818 0.136689 0.0230079 -0.990347 
-0.0054621 0.017843 -0.999826 -0.150502 -0.0021232 -0.988607 -0.277538 -0.207003 -0.938148 
-0.193006 -0.0994249 -0.976147 0.259277 -0.159441 -0.952551 0.150612 -0.230646 -0.961311 
0.132499 -0.153834 -0.979173 0.0606782 -0.066014 -0.995972 0.084314 -0.0903384 -0.992336 
0.124407 -0.06886 -0.989839 -0.0445 -0.111583 -0.992758 -0.214227 -0.097726 -0.971883 
-0.357437 -0.273523 -0.892986 -0.360225 -0.275745 -0.891181 -0.355592 -0.269378 -0.89498 
0.113412 -0.357676 -0.926933 0.0937512 -0.383626 -0.918717 0.0891892 -0.337444 -0.937111 
0.0716878 -0.35546 -0.931938 0.0736009 -0.344493 -0.935899 0.0921657 -0.499717 -0.861272 
0.103835 -0.341274 -0.934211 -0.0388834 -0.546422 -0.836607 -0.030096 -0.381998 -0.923673 
-0.358786 -0.432229 -0.827316 -0.298313 -0.500089 -0.81297 -0.276126 -0.380346 -0.882661 

