# vtk DataFile Version 4.2
vtk output
ASCII
DATASET POLYDATA
POINTS 562 float
38.2756 -6.307 -22.2581 38.2756 9.13406 -22.1148 -38.9297 -29.4686 -16.4704 
-31.2092 -29.4686 -17.1277 -23.4887 -29.4686 -17.4231 -15.7681 -29.4686 -17.2189 
-8.04759 -29.4686 -16.5595 -0.32706 -29.4686 -16.5804 7.39347 -29.4686 -16.2341 
15.114 -29.4686 -15.7658 22.8345 -29.4686 -16.2323 30.5551 -29.4686 -16.2656 
38.2756 -29.4686 -15.1299 -46.6503 -21.7481 -17.0373 -38.9297 -21.7481 -18.798 
-31.2092 -21.7481 -19.2268 -23.4887 -21.7481 -19.2283 -15.7681 -21.7481 -18.8809 
-8.04759 -21.7481 -18.5829 -0.32706 -21.7481 -18.463 7.39347 -21.7481 -18.0336 
15.114 -21.7481 -18.2796 22.8345 -21.7481 -18.3945 30.5551 -21.7481 -19.4302 
38.2756 -21.7481 -19.2222 45.9961 -21.7481 -17.8641 53.7167 -21.7481 -14.8128 
-54.3708 -14.0275 -15.7901 -46.6503 -14.0275 -18.0229 -38.9297 -14.0275 -19.0496 
-31.2092 -14.0275 -19.3703 -23.4887 -14.0275 -18.8665 -15.7681 -14.0275 -18.844 
-8.04759 -14.0275 -19.08 -0.32706 -14.0275 -18.9659 7.39347 -14.0275 -18.4923 
15.114 -14.0275 -18.1073 22.8345 -14.0275 -19.0553 30.5551 -14.0275 -20.2618 
38.2756 -8.33015 -21.9388 38.2756 -14.0275 -21.0274 45.9961 -14.0275 -20.2622 
53.7167 -14.0275 -18.4217 -54.3708 -6.307 -17.4073 -46.6503 -6.307 -19.7253 
-38.9297 -6.307 -19.8519 -31.2092 -6.307 -19.3733 -23.4887 -6.307 -18.245 
-15.7681 -6.307 -18.0232 -8.04759 -6.307 -19.7753 -0.32706 -6.307 -17.6907 
7.39347 -6.307 -21.0082 15.114 -6.307 -18.0456 22.8345 -6.307 -18.8725 
36.8214 -6.307 -21.9388 30.5551 -6.307 -20.5808 41.5289 -6.307 -21.9388 
38.2756 -3.21015 -21.9388 45.9961 -6.307 -21.5003 53.7167 -6.307 -20.7379 
61.4372 -6.307 -18.2702 -62.0913 1.41353 -14.3925 -54.3708 1.41353 -18.4174 
-46.6503 1.41353 -20.508 -38.9297 1.41353 -20.2234 -31.2092 1.41353 -19.3989 
-23.4887 1.41353 -18.0788 -15.7681 1.41353 -18.2588 -8.04759 1.41353 -19.8793 
7.39347 1.41353 -20.6565 15.114 1.41353 -16.8443 22.8345 1.41353 -18.3927 
30.5551 1.41353 -20.6368 38.2756 7.04664 -21.9388 38.2756 1.41353 -21.4687 
45.9961 1.41353 -21.8206 53.7167 1.41353 -21.2384 61.4372 1.41353 -19.3869 
-54.3708 9.13406 -17.4622 -46.6503 9.13406 -19.4794 -38.9297 9.13406 -19.2118 
-31.2092 9.13406 -18.4402 -23.4887 9.13406 -17.1432 -15.7681 9.13406 -16.9225 
-8.04759 9.13406 -18.9456 -0.32706 9.13406 -16.1752 7.39347 9.13406 -19.0182 
15.114 9.13406 -17.4647 22.8345 9.13406 -18.4692 37.5315 9.13406 -21.9388 
30.5551 9.13406 -20.3584 40.9523 9.13406 -21.9388 38.2756 9.97993 -21.9388 
45.9961 9.13406 -21.607 53.7167 9.13406 -21.2826 61.4372 9.13406 -19.1788 
-54.3708 16.8546 -14.2661 -46.6503 16.8546 -16.4487 -38.9297 16.8546 -17.0714 
-31.2092 16.8546 -16.6142 -23.4887 16.8546 -16.074 -15.7681 16.8546 -15.8974 
-8.04759 16.8546 -16.6285 -0.32706 16.8546 -16.9597 7.39347 16.8546 -18.3439 
15.114 16.8546 -17.8996 22.8345 16.8546 -18.6089 30.5551 16.8546 -19.6261 
38.2756 16.8546 -20.4522 45.9961 16.8546 -21.1103 53.7167 16.8546 -19.1949 
61.4372 16.8546 -15.4341 -8.04759 24.5751 -15.4109 -0.32706 24.5751 -16.3913 
7.39347 24.5751 -16.3604 15.114 24.5751 -15.1942 22.8345 24.5751 -15.27 
30.5551 24.5751 -16.4963 38.2756 24.5751 -16.9093 45.9961 24.5751 -17.1585 
-38.9297 -32.1362 -14.2182 -31.2092 -33.4686 -14.2182 -23.4887 -34.2666 -14.2182 
-23.4887 -37.1891 -8.71478 -15.7681 -33.2199 -14.2182 -8.04759 -32.7308 -14.2182 
-0.32706 -32.6551 -14.2182 7.39347 -32.1409 -14.2182 15.114 -31.3867 -14.2182 
22.8345 -32.0597 -14.2182 30.5551 -31.5985 -14.2182 38.2756 -30.4757 -14.2182 
-43.429 -29.4686 -14.2182 -46.6503 -26.8044 -14.2182 -46.6503 -29.4686 -11.7291 
41.5752 -29.4686 -14.2182 45.9961 -27.6356 -14.2182 45.9961 -29.4686 -11.9814 
53.7167 -22.3509 -14.2182 -51.6548 -21.7481 -14.2182 -54.3708 -17.4135 -14.2182 
-54.3708 -21.7481 -11.9467 54.5552 -21.7481 -14.2182 -58.1712 -14.0275 -14.2182 
-62.0913 -14.0275 -11.0136 60.8382 -14.0275 -14.2182 61.4372 -13.2167 -14.2182 
61.4372 -14.0275 -13.6216 -59.933 -6.307 -14.2182 -62.0913 0.665082 -14.2182 
-62.0913 -6.307 -12.422 -0.32706 -0.995788 -14.2182 66.158 -6.307 -14.2182 
69.1577 -6.307 -9.07499 -62.3219 1.41353 -14.2182 -62.0913 2.31811 -14.2182 
-2.11724 1.41353 -14.2182 1.41355 1.41353 -14.2182 -0.32706 4.72595 -14.2182 
-0.32706 1.41353 -12.7217 67.4075 1.41353 -14.2182 69.1577 1.41353 -11.0872 
-60.2775 9.13406 -14.2182 -62.0913 9.13406 -12.8127 66.9158 9.13406 -14.2182 
69.1577 9.13406 -10.1573 -54.4768 16.8546 -14.2182 -62.0913 16.8546 -8.67407 
-54.3708 16.9398 -14.2182 -46.6503 20.6303 -14.2182 -38.9297 23.7731 -14.2182 
-31.2092 22.3637 -14.2182 -23.4887 23.8537 -14.2182 -15.7681 23.6902 -14.2182 
53.7167 24.3027 -14.2182 62.7327 16.8546 -14.2182 61.4372 18.5009 -14.2182 
-54.3708 24.5751 -8.36305 -46.6503 24.5751 -11.2845 -38.9297 24.5751 -13.7891 
-31.2092 24.5751 -13.181 -23.4887 24.5751 -14.0051 -14.4938 24.5751 -14.2182 
-15.7681 24.5751 -13.9965 -8.04759 27.205 -14.2182 -0.32706 28.9421 -14.2182 
7.39347 28.1897 -14.2182 15.114 25.8165 -14.2182 22.8345 25.7789 -14.2182 
30.5551 26.8952 -14.2182 38.2756 27.3072 -14.2182 53.1974 24.5751 -14.2182 
45.9961 27.3342 -14.2182 53.7167 24.5751 -13.8486 -31.2092 32.2957 -7.42241 
-23.4887 32.2957 -8.32179 -15.7681 32.2957 -9.29119 -8.04759 32.2957 -10.6558 
-0.32706 32.2957 -11.056 7.39347 32.2957 -8.73089 -23.4887 -37.8972 -6.4977 
-46.6503 -33.2153 -6.4977 -38.9297 -36.3941 -6.4977 -30.2511 -37.1891 -6.4977 
-31.2092 -37.0888 -6.4977 -17.7757 -37.1891 -6.4977 -23.4887 -37.1891 -4.09897 
-15.7681 -36.9459 -6.4977 -8.04759 -36.8063 -6.4977 -0.32706 -36.573 -6.4977 
7.39347 -35.8437 -6.4977 15.114 -35.5678 -6.4977 22.8345 -36.081 -6.4977 
30.5551 -36.2869 -6.4977 38.2756 -34.9484 -6.4977 45.9961 -32.2213 -6.4977 
-53.0405 -29.4686 -6.4977 -54.3708 -28.3071 -6.4977 51.5989 -29.4686 -6.4977 
53.7167 -28.1768 -6.4977 -60.2199 -21.7481 -6.4977 -62.0913 -18.6342 -6.4977 
60.8075 -21.7481 -6.4977 61.4372 -21.0196 -6.4977 -64.6601 -14.0275 -6.4977 
65.966 -14.0275 -6.4977 69.1577 -8.18958 -6.4977 -67.5758 -6.307 -6.4977 
70.0384 -6.307 -6.4977 -69.5107 1.41353 -6.4977 -69.8119 1.41353 -5.38607 
70.7141 1.41353 -6.4977 -67.9828 9.13406 -6.4977 70.5603 9.13406 -6.4977 
69.1577 12.3408 -6.4977 -63.741 16.8546 -6.4977 -62.0913 19.0648 -6.4977 
67.2395 16.8546 -6.4977 61.4372 23.4959 -6.4977 -56.6003 24.5751 -6.4977 
-54.3708 25.8572 -6.4977 -46.6503 28.9122 -6.4977 -38.9297 30.9811 -6.4977 
15.114 30.5666 -6.4977 22.8345 29.5189 -6.4977 30.5551 30.612 -6.4977 
38.2756 31.8813 -6.4977 45.9961 30.3646 -6.4977 59.9285 24.5751 -6.4977 
53.7167 29.2827 -6.4977 -46.6503 32.2957 0.404629 -34.1826 32.2957 -6.4977 
-38.9297 32.2957 -3.70851 -31.2092 33.0443 -6.4977 -23.4887 33.7955 -6.4977 
-15.7681 34.4281 -6.4977 -8.04759 34.8697 -6.4977 -0.32706 34.5565 -6.4977 
10.3118 32.2957 -6.4977 7.39347 33.2594 -6.4977 15.114 32.2957 1.17328 
38.2756 32.2957 -3.61911 -46.6503 -33.5845 1.22283 -38.9297 -35.0379 1.22283 
-31.2092 -35.9239 1.22283 -23.4887 -35.4544 1.22283 -15.7681 -34.8477 1.22283 
-8.04759 -35.459 1.22283 -0.32706 -35.667 1.22283 7.39347 -34.7994 1.22283 
15.114 -34.5055 1.22283 22.8345 -35.1707 1.22283 30.5551 -35.377 1.22283 
38.2756 -34.6294 1.22283 45.9961 -31.3376 1.22283 -53.2647 -29.4686 1.22283 
-54.3708 -28.6877 1.22283 -46.6503 -29.4686 8.66568 49.8438 -29.4686 1.22283 
45.9961 -29.4686 4.76003 53.7167 -27.1983 1.22283 -61.5086 -21.7481 1.22283 
-62.0913 -20.964 1.22283 59.7916 -21.7481 1.22283 61.4372 -19.8723 1.22283 
-66.8059 -14.0275 1.22283 65.3157 -14.0275 1.22283 61.4372 -14.0275 7.76589 
69.1577 -6.51762 1.22283 -69.3257 -6.307 1.22283 -69.8119 -4.39228 1.22283 
69.2611 -6.307 1.22283 69.1577 -6.307 1.42798 -71.2552 1.41353 1.22283 
-69.8119 8.09084 1.22283 -69.8119 1.41353 5.65532 69.8674 1.41353 1.22283 
69.1577 1.41353 2.56595 -69.5864 9.13406 1.22283 69.645 9.13406 1.22283 
69.1577 10.1151 1.22283 69.1577 9.13406 2.07855 -66.6143 16.8546 1.22283 
-62.0913 22.6636 1.22283 66.3525 16.8546 1.22283 61.4372 22.801 1.22283 
-59.9585 24.5751 1.22283 -54.3708 28.1359 1.22283 22.8345 31.759 1.22283 
30.5551 32.2586 1.22283 45.9961 30.7986 1.22283 59.2491 24.5751 1.22283 
53.7167 28.775 1.22283 -47.2857 32.2957 1.22283 -46.6503 32.603 1.22283 
-46.6503 32.2957 3.45826 -38.9297 34.2757 1.22283 -31.2092 35.6574 1.22283 
-23.4887 36.8786 1.22283 -15.7681 36.4967 1.22283 -8.04759 35.6956 1.22283 
-0.32706 34.9594 1.22283 7.39347 33.901 1.22283 15.2531 32.2957 1.22283 
15.114 32.3056 1.22283 22.8345 32.2957 7.02489 30.9736 32.2957 1.22283 
40.6809 32.2957 1.22283 38.2756 32.8551 1.22283 38.2756 32.2957 4.21647 
-38.9297 -30.7388 8.94337 -31.2092 -31.3245 8.94337 -23.4887 -30.1693 8.94337 
-15.7681 -30.1243 8.94337 -8.04759 -31.7795 8.94337 -0.32706 -32.7432 8.94337 
7.39347 -32.0191 8.94337 15.114 -31.4631 8.94337 22.8345 -31.5272 8.94337 
30.5551 -31.175 8.94337 38.2756 -30.2657 8.94337 -54.3708 -25.0102 8.94337 
-45.7812 -29.4686 8.94337 -46.6503 -29.2359 8.94337 -38.9297 -29.4686 10.3926 
-31.2092 -29.4686 10.6444 -23.4887 -29.4686 9.66162 -15.7681 -29.4686 9.74442 
-8.04759 -29.4686 11.9746 -0.32706 -29.4686 13.0135 7.39347 -29.4686 12.1988 
15.114 -29.4686 11.7636 22.8345 -29.4686 11.5117 30.5551 -29.4686 10.8465 
40.3192 -29.4686 8.94337 38.2756 -29.4686 9.83073 45.9961 -26.6046 8.94337 
53.7167 -21.7705 8.94337 -58.0707 -21.7481 8.94337 -62.0913 -16.4904 8.94337 
-54.3708 -21.7481 12.1079 -46.6503 -21.7481 15.16 -38.9297 -21.7481 16.0047 
-31.2092 -21.7481 15.9391 -23.4887 -21.7481 15.6128 -15.7681 -21.7481 15.9753 
30.5551 -21.7481 15.9972 38.2756 -21.7481 15.2457 45.9961 -21.7481 13.2132 
53.7507 -21.7481 8.94337 53.7167 -21.7481 8.96409 -63.85 -14.0275 8.94337 
-62.0913 -14.0275 11.0941 60.4454 -14.0275 8.94337 53.7167 -14.0275 14.1124 
61.4372 -12.5939 8.94337 -66.9151 -6.307 8.94337 -62.0913 -6.307 14.5018 
64.809 -6.307 8.94337 61.4372 -6.307 12.3454 -68.6651 1.41353 8.94337 
65.6087 1.41353 8.94337 61.4372 1.41353 13.2039 -67.6245 9.13406 8.94337 
-62.0913 9.13406 15.9201 65.2394 9.13406 8.94337 61.4372 9.13406 12.6152 
[...]
POINT_DATA 562
SCALARS ImageScalars float
LOOKUP_TABLE default
0 0 0 0 0 0 0 0 0 
0 0 0 0 0 0 0 0 0 
0 0 0 0 0 0 0 0 0 
0 0 0 0 0 0 0 0 0 
0 0 0 0 0 0 0 0 0 
0 0 0 0 0 0 0 0 0 
0 0 0 0 0 0 0 0 0 
0 0 0 0 0 0 0 0 0 
0 0 0 0 0 0 0 0 0 
0 0 0 0 0 0 0 0 0 
0 0 0 0 0 0 0 0 0 
0 0 0 0 0 0 0 0 0 
0 0 0 0 0 0 0 0 0 
0 0 0 0 0 0 0 0 0 
0 0 0 0 0 0 0 0 0 
0 0 0 0 0 0 0 0 0 
0 0 0 0 0 0 0 0 0 
0 0 0 0 0 0 0 0 0 
0 0 0 0 0 0 0 0 0 
0 0 0 0 0 0 0 0 0 
0 0 0 0 0 0 0 0 0 
0 0 0 0 0 0 0 0 0 
0 0 0 0 0 0 0 0 0 
0 0 0 0 0 0 0 0 0 
0 0 0 0 0 0 0 0 0 
0 0 0 0 0 0 0 0 0 
0 0 0 0 0 0 0 0 0 
0 0 0 0 0 0 0 0 0 
0 0 0 0 0 0 0 0 0 
0 0 0 0 0 0 0 0 0 
0 0 0 0 0 0 0 0 0 
0 0 0 0 0 0 0 0 0 
0 0 0 0 0 0 0 0 0 
0 0 0 0 0 0 0 0 0 
0 0 0 0 0 0 0 0 0 
0 0 0 0 0 0 0 0 0 
0 0 0 0 0 0 0 0 0 
0 0 0 0 0 0 0 0 0 
0 0 0 0 0 0 0 0 0 
0 0 0 0 0 0 0 0 0 
0 0 0 0 0 0 0 0 0 
0 0 0 0 0 0 0 0 0 
0 0 0 0 0 0 0 0 0 
0 0 0 0 0 0 0 0 0 
0 0 0 0 0 0 0 0 0 
0 0 0 0 0 0 0 0 0 
0 0 0 0 0 0 0 0 0 
0 0 0 0 0 0 0 0 0 
0 0 0 0 0 0 0 0 0 
0 0 0 0 0 0 0 0 0 
0 0 0 0 0 0 0 0 0 
0 0 0 0 0 0 0 0 0 
0 0 0 0 0 0 0 0 0 
0 0 0 0 0 0 0 0 0 
0 0 0 0 0 0 0 0 0 
0 0 0 0 0 0 0 0 0 
0 0 0 0 0 0 0 0 0 
0 0 0 0 0 0 0 0 0 
0 0 0 0 0 0 0 0 0 
0 0 0 0 0 0 0 0 0 
0 0 0 0 0 0 0 0 0 
0 0 0 0 0 0 0 0 0 
0 0 0 0 
NORMALS Normals float
-0.0637391 -0.0280009 -0.997574 -0.0891624 0.0640026 -0.993959 -0.256326 -0.503289 -0.825225 
-0.0590234 -0.464195 -0.883764 -0.008249 -0.432242 -0.90172 0.0573067 -0.441897 -0.895233 
0.0359577 -0.459665 -0.887364 0.0209652 -0.466529 -0.884257 0.0511872 -0.47942 -0.876092 
0.000191206 -0.523122 -0.852258 -0.0291744 -0.503173 -0.863693 0.0624939 -0.584852 -0.808729 
0.153092 -0.652953 -0.741765 -0.343352 -0.286065 -0.894582 -0.147014 -0.159412 -0.976204 
-0.0243996 -0.136853 -0.990291 0.0224665 -0.0796091 -0.996573 0.0412235 -0.0862905 -0.995417 
0.0272172 -0.156074 -0.98737 0.0346801 -0.145067 -0.988814 0.0130526 -0.138841 -0.990229 
-0.0229036 -0.126177 -0.991743 -0.069592 -0.172968 -0.982466 -0.0536734 -0.209039 -0.976433 
0.0867263 -0.3192 -0.943711 0.225212 -0.36857 -0.901907 0.446197 -0.586268 -0.676164 
-0.332009 -0.309545 -0.89104 -0.180642 -0.171312 -0.968515 -0.0824372 -0.0663626 -0.994384 
0.0119984 -0.00988538 -0.999879 0.0346884 0.0644542 -0.997318 -0.0137842 0.0516713 -0.998569 
-0.00788275 -0.07547 -0.997117 0.037672 0.0409314 -0.998452 0.0557871 -0.179767 -0.982126 
-0.0365502 0.0146258 -0.999225 -0.137987 -0.0296438 -0.98999 -0.125354 -0.0703393 -0.989615 
-0.0446918 -0.0756633 -0.996131 0.0028717 -0.193261 -0.981143 0.151279 -0.205332 -0.96693 
0.335476 -0.284553 -0.898045 -0.373615 -0.14634 -0.915968 -0.172566 -0.155511 -0.972644 
0.0233143 -0.0754588 -0.996876 0.103749 -0.00184001 -0.994602 0.0860602 0.0507566 -0.994996 
-0.100899 0.0419106 -0.994014 0.0166425 -0.0537882 -0.998414 -0.0740391 0.343701 -0.936156 
-0.00482001 -0.152184 -0.98834 0.131575 0.0670601 -0.989035 -0.164276 0.0425606 -0.985496 
-0.093678 -0.0276853 -0.995218 -0.20522 -0.023881 -0.978424 0.00425777 -0.0631986 -0.997992 
-0.068951 -0.0129434 -0.997536 0.0915177 -0.105898 -0.990157 0.167065 -0.17833 -0.969684 
0.507333 -0.270364 -0.81824 -0.607789 -0.0164664 -0.793928 -0.321963 -0.00327791 -0.946746 
-0.128638 0.0119815 -0.991619 0.07072 0.0397269 -0.996705 0.137165 0.0591658 -0.98878 
0.0749498 0.0706476 -0.994682 -0.109076 0.071153 -0.991484 0.245445 0.0565125 -0.967762 
-0.181091 0.149342 -0.972061 0.102636 0.0419909 -0.993832 -0.225236 0.0262413 -0.973951 
-0.194116 0.0148393 -0.980866 -0.0856363 0.0490067 -0.99512 -0.0764392 0.00904176 -0.997033 
0.0128967 -0.00676734 -0.999894 0.127628 -0.0338752 -0.991243 0.473983 -0.0417723 -0.879542 
-0.337623 0.219884 -0.915239 -0.127217 0.254343 -0.95871 0.0652092 0.195093 -0.978615 
0.13027 0.172236 -0.976404 0.0962198 0.130649 -0.986748 -0.115191 0.151727 -0.981687 
0.057786 0.212318 -0.97549 -0.0118505 -0.22635 -0.973974 -0.0799948 0.128949 -0.988419 
0.0346601 -0.0603767 -0.997574 -0.189293 -0.013376 -0.98183 -0.103574 0.0654625 -0.992465 
-0.215793 0.0658265 -0.974218 -0.0398079 0.0557798 -0.997649 -0.0921374 0.0877501 -0.991872 
0.0495274 0.0422299 -0.99788 0.128695 0.148167 -0.980553 0.464549 0.191708 -0.864548 
-0.31788 0.454879 -0.831888 -0.149488 0.428417 -0.89113 -0.00901072 0.338974 -0.940753 
0.0627679 0.309254 -0.948906 0.0447909 0.202962 -0.978162 -0.0347359 0.17423 -0.984092 
-0.0684417 0.211071 -0.975072 -0.110438 -0.015523 -0.993762 -0.060794 0.162062 -0.984906 
-0.0157186 0.123284 -0.992247 -0.117265 0.169045 -0.978608 -0.109706 0.218397 -0.969674 
-0.0947668 0.2771 -0.956156 0.0935699 0.279457 -0.955588 0.280408 0.328064 -0.902079 
0.579928 0.430124 -0.691865 -0.145533 0.28618 -0.947059 -0.0596032 0.258348 -0.964211 
0.0718952 0.408499 -0.909923 0.0742608 0.560365 -0.82491 -0.0835618 0.623444 -0.77739 
-0.0893835 0.624246 -0.776097 -0.0395953 0.609271 -0.791973 0.120548 0.649615 -0.750646 
-0.269433 -0.660282 -0.701024 -0.106612 -0.707226 -0.698903 0.0104211 -0.716225 -0.697791 
0.00860436 -0.983482 -0.1808 0.0703948 -0.713052 -0.697568 0.0265738 -0.658706 -0.751931 
0.0292972 -0.667505 -0.744029 0.0634488 -0.659708 -0.748839 0.00323318 -0.657569 -0.753388 
-0.00996952 -0.664548 -0.747179 0.0828249 -0.689226 -0.719797 0.167344 -0.69483 -0.699433 
-0.367021 -0.573016 -0.732767 -0.404864 -0.499521 -0.765875 -0.444366 -0.6663 -0.598818 
0.25629 -0.703469 -0.662908 0.371106 -0.675463 -0.637205 0.402048 -0.802498 -0.440856 
0.458352 -0.607763 -0.648488 -0.487351 -0.344941 -0.802188 -0.43532 -0.350554 -0.829221 
-0.587736 -0.422016 -0.690267 0.473651 -0.597247 -0.647264 -0.490516 -0.317848 -0.811398 
-0.727503 -0.336896 -0.597696 0.623251 -0.397795 -0.673289 0.63585 -0.391442 -0.665183 
0.661072 -0.411903 -0.627152 -0.565405 -0.128089 -0.814807 -0.612135 -0.0238642 -0.790393 
-0.664764 -0.135583 -0.734647 -0.03077 0.224834 -0.973911 0.711044 -0.291178 -0.640025 
0.911482 -0.294947 -0.286717 -0.614849 -0.0169524 -0.788463 -0.609799 0.00748517 -0.792521 
0.0860005 0.100516 -0.991212 -0.0779231 0.113312 -0.990499 -0.0158018 -0.0820893 -0.9965 
-0.0115125 0.0732651 -0.997246 0.767498 -0.0290693 -0.640392 0.91135 -0.0249164 -0.410877 
-0.539452 0.211048 -0.815138 -0.626021 0.211387 -0.750608 0.743786 0.221624 -0.630607 
0.91093 0.233657 -0.340015 -0.32119 0.455015 -0.830541 -0.688015 0.49416 -0.531451 
-0.317956 0.45747 -0.830437 -0.189361 0.5122 -0.837731 -0.0738599 0.500563 -0.862544 
0.00929239 0.431711 -0.901964 -0.0360979 0.357599 -0.933177 -0.0773465 0.3051 -0.949174 
0.389385 0.705094 -0.592639 0.639191 0.428608 -0.638538 0.590321 0.49591 -0.636863 
-0.396747 0.764281 -0.508395 -0.236956 0.648313 -0.723562 -0.0851273 0.529863 -0.8438 
-0.0203916 0.489583 -0.871718 -0.0449616 0.377032 -0.925108 -0.0927319 0.317607 -0.943677 
-0.0837476 0.326785 -0.941381 -0.139957 0.412777 -0.900015 -0.023122 0.528509 -0.848613 
0.1402 0.60686 -0.782346 0.097223 0.62651 -0.773326 -0.0693221 0.694558 -0.716089 
-0.0745512 0.765648 -0.638925 -0.0261105 0.734244 -0.678383 0.375267 0.716133 -0.588497 
0.13783 0.801875 -0.581377 0.39397 0.722302 -0.56839 -0.148221 0.798282 -0.58376 
-0.0884008 0.767937 -0.634396 -0.105027 0.776074 -0.621835 -0.0795807 0.788704 -0.6096 
0.0515776 0.836009 -0.546287 0.241289 0.895878 -0.37307 0.0112067 -0.999835 -0.0143125 
-0.443249 -0.858238 -0.258761 -0.235439 -0.960796 -0.146421 -0.080433 -0.992678 -0.0901118 
-0.0923829 -0.990546 -0.101407 0.0549416 -0.998067 -0.029038 0.03006 -0.991737 0.124714 
0.0678001 -0.996968 -0.0381893 0.0244947 -0.99505 -0.0963049 0.0622575 -0.990898 -0.119353 
0.0672373 -0.992084 -0.106055 -0.015268 -0.992385 -0.122228 -0.0470513 -0.98963 -0.135717 
0.0727543 -0.984391 -0.160251 0.241774 -0.950492 -0.195217 0.396085 -0.906837 -0.144093 
-0.580306 -0.771426 -0.261052 -0.613249 -0.73878 -0.279516 0.524062 -0.833139 -0.176742 
0.578509 -0.793846 -0.187447 -0.766577 -0.518175 -0.379282 -0.811523 -0.460646 -0.359493 
0.723958 -0.675729 -0.138836 0.742093 -0.655378 -0.140633 -0.836601 -0.399943 -0.374359 
0.855578 -0.485946 -0.178447 0.932362 -0.337851 -0.128677 -0.869224 -0.238193 -0.433259 
0.951546 -0.280075 -0.126957 -0.910337 -0.0196293 -0.413403 -0.939523 -0.0189866 -0.34196 
0.992108 -0.0354157 -0.120285 -0.872549 0.263529 -0.411353 0.966002 0.222727 -0.131277 
0.941422 0.315932 -0.117945 -0.739544 0.516778 -0.431295 -0.703662 0.569071 -0.425463 
0.871961 0.469118 -0.140042 0.609367 0.781368 -0.134669 -0.484142 0.766287 -0.422387 
-0.414939 0.804958 -0.424108 -0.282376 0.807461 -0.517949 -0.21824 0.833513 -0.507571 
0.223074 0.919445 -0.323821 -0.00706859 0.947967 -0.318289 -0.143603 0.93892 -0.312742 
0.0146308 0.953475 -0.301116 0.148425 0.965809 -0.212562 0.560127 0.816128 -0.142098 
0.37406 0.906606 -0.195306 -0.342633 0.926432 -0.155967 -0.184503 0.830328 -0.525845 
-0.220635 0.906196 -0.360734 -0.156137 0.827037 -0.540029 -0.0839017 0.826957 -0.55597 
-0.0659921 0.877562 -0.4749 -0.0062619 0.94219 -0.335019 0.102578 0.96328 -0.24813 
0.246074 0.930158 -0.272493 0.24895 0.935451 -0.250908 0.140419 0.981649 -0.129023 
0.0427317 0.985141 -0.166349 -0.347836 -0.914845 0.205104 -0.141657 -0.929713 0.339951 
-0.0275023 -0.952669 0.302762 0.0632399 -0.903791 0.423276 -0.00299993 -0.918744 0.394842 
-0.0491206 -0.95385 0.296238 0.0419635 -0.973156 0.226287 0.0736723 -0.971205 0.226567 
-0.023329 -0.968305 0.248679 -0.0552323 -0.963038 0.263642 0.0343736 -0.956552 0.289529 
0.231925 -0.935887 0.26519 0.410308 -0.872875 0.264077 -0.543832 -0.817153 0.19107 
-0.579517 -0.796003 0.174752 -0.307723 -0.718131 0.624175 0.47029 -0.834531 0.287029 
0.415894 -0.808043 0.417251 0.55024 -0.780912 0.295655 -0.794731 -0.598197 0.10278 
-0.8094 -0.579096 0.0975677 0.713111 -0.662454 0.229408 0.760245 -0.607702 0.22962 
-0.894961 -0.443502 0.0484832 0.839582 -0.485899 0.24291 0.711124 -0.443264 0.545729 
0.919627 -0.269384 0.285865 -0.963901 -0.262436 0.0449665 -0.978529 -0.200183 0.0490753 
0.921051 -0.263292 0.286954 0.918891 -0.261757 0.295164 -0.999328 -0.0142646 0.0337605 
-0.975284 0.217943 0.0363619 -0.96845 -0.0267509 0.247769 0.955293 -0.0252643 0.294578 
0.938162 -0.0204241 0.345594 -0.966392 0.255067 0.0320348 0.925105 0.226135 0.30503 
0.922697 0.246503 0.296424 0.915526 0.218155 0.337964 -0.855473 0.517574 -0.0168355 
-0.718923 0.694916 -0.0155146 0.85759 0.44103 0.264637 0.614545 0.749745 0.245394 
-0.639651 0.768454 -0.0180429 -0.513764 0.856395 -0.0513242 0.00114162 0.983384 -0.181537 
-0.0760311 0.99468 -0.0695025 0.239652 0.967349 0.0824797 0.542197 0.810625 0.221154 
0.431384 0.875255 0.218715 -0.360596 0.925416 -0.116514 -0.344614 0.93108 -0.119709 
-0.359312 0.933218 0.000574225 -0.207084 0.969879 -0.128264 -0.161584 0.980263 -0.113912 
-0.0542047 0.992306 -0.111315 0.0760337 0.994177 -0.0763601 0.098849 0.994746 -0.0266283 
0.114837 0.993362 0.00672353 0.172278 0.984907 -0.01667 0.137267 0.982099 -0.128995 
0.139783 0.981879 -0.127964 0.047671 0.99571 0.0793018 -0.0670153 0.995742 -0.0632922 
0.126146 0.990669 0.0515887 0.0829225 0.995733 0.040496 0.115388 0.981799 0.150851 
-0.103334 -0.774866 0.623622 0.0259337 -0.748744 0.662352 0.0567718 -0.731289 0.679701 
-0.0920558 -0.782728 0.615518 -0.141927 -0.831545 0.537019 -0.0134429 -0.856044 0.516728 
0.0754848 -0.859949 0.504767 0.0283676 -0.868378 0.49509 0.0151012 -0.825348 0.564422 
0.0721834 -0.775915 0.626695 0.205338 -0.743097 0.636901 -0.478169 -0.677714 0.558621 
-0.280591 -0.716284 0.63891 -0.301864 -0.706378 0.640241 -0.0934016 -0.727952 0.679236 
0.0373668 -0.685535 0.72708 0.0468294 -0.715166 0.697384 -0.101255 -0.765087 0.635917 
-0.145469 -0.752644 0.642158 -0.00870397 -0.702683 0.71145 0.0576793 -0.749467 0.659524 
0.031626 -0.784454 0.61938 0.0429944 -0.744992 0.665687 0.082695 -0.717287 0.691853 
0.258502 -0.729784 0.632924 0.205759 -0.715263 0.667879 0.382598 -0.677818 0.627838 
0.448964 -0.621359 0.64214 -0.599007 -0.596304 0.534427 -0.706869 -0.511193 0.488894 
-0.441973 -0.57575 0.687875 -0.213303 -0.524005 0.824573 -0.0368555 -0.478236 0.877458 
0.0215287 -0.468347 0.883282 -0.00183451 -0.455148 0.890414 -0.137796 -0.41823 0.897828 
0.103869 -0.416565 0.903153 0.148994 -0.451685 0.879648 0.316982 -0.529077 0.787147 
0.449748 -0.620988 0.64195 0.448724 -0.62079 0.642858 -0.742425 -0.459287 0.48771 
-0.676498 -0.453129 0.580538 0.662164 -0.430052 0.613673 0.403348 -0.427186 0.809211 
0.685545 -0.397481 0.609949 -0.850377 -0.263646 0.455356 -0.622772 -0.278562 0.731135 
0.749408 -0.232943 0.619779 0.635345 -0.216244 0.741333 -0.904133 -0.0388405 0.425482 
0.783352 -0.0228261 0.621159 0.62226 -0.0134196 0.782695 -0.894073 0.223794 0.388007 
-0.636922 0.235721 0.734007 0.756855 0.177208 0.6291 0.639845 0.18583 0.745698 
-0.776368 0.487697 0.399256 -0.707375 0.584596 0.397327 -0.706746 0.475878 0.523498 
0.429762 0.369534 0.823863 0.680041 0.42595 0.59675 0.669601 0.445758 0.594082 
0.671229 0.423943 0.608049 -0.579356 0.736238 0.349716 -0.515009 0.790992 0.330299 
-0.488625 0.727118 0.482229 -0.37033 0.869595 0.326588 0.0795991 0.968539 0.235787 
0.169622 0.917911 0.358702 0.326318 0.857942 0.396802 0.35446 0.602094 0.71543 
0.507981 0.703413 0.497157 0.503584 0.706921 0.496654 0.503962 0.700923 0.504708 
-0.310538 0.901582 0.30119 -0.23246 0.931002 0.281421 -0.218389 0.892388 0.394904 
-0.15334 0.942868 0.295781 -0.113922 0.805718 0.581241 -0.0473479 0.944204 0.325941 
-0.0420276 0.748959 0.661282 0.0405205 0.953991 0.297084 -0.00429162 0.759644 0.650325 
0.0868514 0.964548 0.249205 0.0348399 0.781482 0.622954 0.108664 0.965261 0.237622 
0.103611 0.850958 0.514912 0.108609 0.963558 0.244458 0.109495 0.90708 0.406468 
0.0647612 0.98172 0.178976 0.0642525 0.96859 0.240219 0.0662697 0.980882 0.182971 
0.0626555 0.984032 0.166598 0.0619652 0.979268 0.192858 -0.104112 -0.517807 0.849139 
0.0204138 -0.376394 0.926235 0.00220391 -0.424805 0.905282 0.0248209 -0.445727 0.894825 
0.0969898 -0.38887 0.916173 -0.347205 -0.389883 0.852901 -0.180364 -0.444199 0.877586 
-0.0336652 -0.439827 0.897452 0.0285718 -0.426045 0.904251 0.0262754 -0.357017 0.933728 
-0.121457 -0.424899 0.897056 -0.149582 -0.335976 0.929917 -0.0846505 -0.453171 0.887395 
0.0290905 -0.298738 0.953892 -0.00775903 -0.371355 0.928459 0.0250301 -0.373984 0.927097 
0.100681 -0.379508 0.919694 0.0984048 -0.356984 0.928913 0.0925749 -0.364758 0.926489 
0.124551 -0.351077 0.928026 0.210493 -0.344426 0.914912 -0.361912 -0.380324 0.851101 
-0.341937 -0.376932 0.860814 -0.135677 -0.334454 0.932594 -0.0224018 -0.316748 0.948245 
0.0575873 -0.281071 0.957958 0.060798 -0.220512 0.973488 -0.175004 -0.174151 0.969043 
-0.0452662 -0.214599 0.975653 0.0825423 -0.0781958 0.993515 -0.0369936 -0.246854 0.968346 
0.0657488 -0.108471 0.991923 0.0498885 -0.100432 0.993692 0.0414266 -0.207456 0.977367 
0.10588 -0.275566 0.955433 0.220546 -0.342667 0.913203 0.201384 -0.331308 0.921781 
0.376956 -0.260454 0.888857 -0.465136 -0.248257 0.849716 -0.53577 -0.105916 0.837694 
-0.326918 -0.242113 0.913513 -0.149384 -0.239639 0.959301 -0.0138505 -0.245323 0.969342 
0.137579 -0.245194 0.959662 0.111958 -0.215319 0.970105 -0.154008 -0.185576 0.970486 
0.0291525 -0.00666484 0.999553 0.0154981 0.00927432 0.999837 -0.0482776 -0.207289 0.977088 
0.181774 -0.0261184 0.982993 -0.0179216 -0.0387878 0.999087 -0.0807059 -0.13125 0.988059 
0.0105651 -0.200259 0.979686 0.161938 -0.202706 0.965757 0.425728 -0.181973 0.886364 
0.379751 -0.186346 0.906126 -0.551559 -0.0707656 0.831129 -0.569502 0.0471261 0.820638 
-0.525769 -0.073042 0.847486 -0.351193 -0.106729 0.9302 -0.124057 -0.128583 0.983909 
0.00761613 -0.147979 0.988961 0.10251 -0.148454 0.983592 0.111643 -0.195897 0.974249 
0.0370664 -0.106904 0.993578 0.118346 0.134143 0.98387 -0.124857 -0.123316 0.984482 
-0.0808128 -0.0612516 0.994846 0.245817 -0.0817071 0.965866 -0.0546933 -0.133126 0.989589 
-0.110851 -0.0989497 0.988899 0.0356333 -0.0825357 0.995951 0.205631 -0.0343374 0.978027 
0.440418 -0.0228827 0.897501 0.396708 -0.0252157 0.917598 -0.58889 0.213325 0.779552 
-0.350431 0.128458 0.927737 -0.1819 0.0732566 0.980585 -0.0373513 0.00586679 0.999285 
0.0823881 -1.50119e-05 0.9966 0.15895 -0.0079841 0.987254 0.182839 0.050466 0.981847 
0.0274859 0.0806631 0.996362 -0.185659 -0.0926553 0.978236 0.00600489 0.167019 0.985935 
0.1055 0.00393658 0.994412 -0.0387457 -0.0715133 0.996687 -0.0386164 -0.00788597 0.999223 
0.0777598 0.0535499 0.995533 0.209012 0.0786585 0.974744 0.472928 0.105834 0.874722 
0.424908 0.294355 0.856042 0.405404 0.0870396 0.909985 -0.556875 0.383537 0.736742 
-0.474123 0.515113 0.71405 -0.446065 0.341325 0.827359 -0.231517 0.286524 0.92968 
-0.0690919 0.262119 0.962559 0.0816548 0.202029 0.97597 0.164831 0.174519 0.97076 
0.11797 0.099658 0.988004 -0.0257429 0.0065948 0.999647 -0.0376191 0.0630672 0.9973 
0.0260932 0.247304 0.968586 -0.0120982 0.124002 0.992208 -0.0465933 0.114243 0.99236 
0.0126876 0.149571 0.98867 0.120737 0.203562 0.971589 0.391286 0.353161 0.849807 
0.310708 0.455675 0.834159 0.262956 0.295309 0.918502 -0.341504 0.621731 0.704859 
-0.329264 0.623993 0.708673 -0.32216 0.610901 0.723197 -0.169695 0.675464 0.717601 
-0.137247 0.502901 0.853378 -0.0602136 0.623662 0.779372 -0.0115574 0.472872 0.881055 
-0.0276655 0.593802 0.804135 0.0302781 0.346202 0.937671 -0.00216568 0.564036 0.825747 
0.0261485 0.250472 0.967771 0.0112269 0.583813 0.81181 -0.00814943 0.226482 0.973981 
0.0890712 0.608492 0.788545 0.0681063 0.303513 0.95039 0.084645 0.524686 0.847077 
0.0648996 0.363023 0.929517 -0.00905801 0.552467 0.833486 -0.0377818 0.388503 0.920672 
0.0173891 0.619268 0.784987 -0.00543808 0.415628 0.909519 0.107923 0.628612 0.770195 
0.0784811 0.481529 0.872909 0.254377 0.561422 0.787463 0.206883 0.59739 0.774806 
0.205186 0.559734 0.802868 
