# vtk DataFile Version 4.2
vtk output
ASCII
DATASET POLYDATA
POINTS 496 float
-17.4205 -24.2405 -17.4731 -10.465 -24.2405 -18.0704 -3.50941 -24.2405 -17.9382 
3.44614 -24.2405 -18.2038 10.4017 -24.2405 -18.1685 17.3572 -24.2405 -16.7839 
-24.376 -17.2849 -18.9575 -17.4205 -17.2849 -20.606 -10.465 -17.2849 -21.0161 
-3.50941 -17.2849 -20.1801 3.44614 -17.2849 -19.7542 10.4017 -17.2849 -19.6334 
17.3572 -17.2849 -18.7811 24.3128 -17.2849 -17.4328 -31.3316 -10.3294 -17.8477 
-24.376 -10.3294 -20.5755 -17.4205 -10.3294 -22.121 -10.465 -10.3294 -22.8512 
-3.50941 -10.3294 -22.0617 3.44614 -10.3294 -21.4332 10.4017 -10.3294 -21.2066 
17.3572 -10.3294 -20.5425 24.3128 -10.3294 -19.6053 31.2683 -10.3294 -18.2509 
-31.3316 -3.37385 -19.6102 -24.376 -3.37385 -21.7864 -17.4205 -3.37385 -22.6119 
-10.465 -3.37385 -22.6737 -3.50941 -3.37385 -22.7402 3.44614 -3.37385 -22.8045 
10.4017 -3.37385 -22.8288 17.3572 -3.37385 -22.33 24.3128 -3.37385 -21.552 
31.2683 -3.37385 -20.3347 38.2239 -3.37385 -17.1767 -31.3316 3.58169 -21.139 
-24.376 3.58169 -22.7597 -17.4205 3.58169 -23.0346 -10.465 3.58169 -21.9935 
-3.50941 3.58169 -22.5635 3.44614 3.58169 -22.7611 10.4017 3.58169 -22.406 
17.3572 3.58169 -22.7844 24.3128 3.58169 -22.6552 31.2683 3.58169 -21.2327 
38.2239 3.58169 -17.8139 -31.3316 10.5372 -21.502 -24.376 10.5372 -23.2005 
-17.4205 10.5372 -23.0527 -10.465 10.5372 -22.2194 -3.50941 10.5372 -22.4678 
3.44614 10.5372 -22.3666 10.4017 10.5372 -22.1861 17.3572 10.5372 -22.7627 
24.3128 10.5372 -22.7154 31.2683 10.5372 -21.5728 38.2239 10.5372 -17.113 
-31.3316 17.4928 -19.9814 -24.376 17.4928 -22.5509 -17.4205 17.4928 -22.7593 
-10.465 17.4928 -22.1058 -3.50941 17.4928 -22.2222 3.44614 17.4928 -22.463 
10.4017 17.4928 -22.34 17.3572 17.4928 -22.5507 24.3128 17.4928 -22.1273 
31.2683 17.4928 -19.9794 -24.376 24.4483 -20.1653 -17.4205 24.4483 -20.9779 
-10.465 24.4483 -21.1825 -3.50941 24.4483 -21.2601 3.44614 24.4483 -21.5754 
10.4017 24.4483 -21.8648 17.3572 24.4483 -21.2569 24.3128 24.4483 -19.9149 
-10.465 31.4039 -17.4725 -3.50941 31.4039 -18.5656 3.44614 31.4039 -19.0809 
10.4017 31.4039 -18.7205 17.3572 31.4039 -17.3239 -17.4205 -25.8222 -16.39 
-17.4205 -31.196 -10.9881 -10.465 -26.9198 -16.39 -10.465 -31.196 -12.8778 
-3.50941 -27.4471 -16.39 -3.50941 -31.196 -14.0958 3.44614 -28.3763 -16.39 
3.44614 -31.196 -14.8101 10.4017 -27.8918 -16.39 10.4017 -31.196 -14.1743 
17.3572 -25.0052 -16.39 17.3572 -31.196 -11.9089 -31.3316 -24.2405 -10.6879 
-21.3032 -24.2405 -16.39 -24.376 -22.5197 -16.39 -24.376 -24.2405 -15.3779 
18.6082 -24.2405 -16.39 24.3128 -19.871 -16.39 24.3128 -24.2405 -14.3413 
31.2683 -24.2405 -10.2698 -38.2871 -17.2849 -9.44162 -29.4618 -17.2849 -16.39 
-31.3316 -14.6108 -16.39 -31.3316 -17.2849 -15.3136 27.8585 -17.2849 -16.39 
31.2683 -14.8856 -16.39 31.2683 -17.2849 -15.2248 38.2239 -17.2849 -9.99284 
-33.6997 -10.3294 -16.39 -38.2871 -10.3294 -12.6652 35.5597 -10.3294 -16.39 
38.2239 -6.0157 -16.39 38.2239 -10.3294 -14.847 -36.346 -3.37385 -16.39 
-38.2871 -3.37385 -14.7115 39.2077 -3.37385 -16.39 -37.7482 3.58169 -16.39 
-38.2871 3.58169 -15.7955 39.9466 3.58169 -16.39 45.1794 3.58169 -9.43511 
-37.5337 10.5372 -16.39 -38.2871 10.5372 -15.2864 39.0012 10.5372 -16.39 
38.2239 12.3813 -16.39 -35.5173 17.4928 -16.39 -38.2871 17.4928 -11.6807 
-31.3316 23.8313 -16.39 35.8628 17.4928 -16.39 31.2683 23.9176 -16.39 
38.2239 17.4928 -12.6766 -30.7592 24.4483 -16.39 -31.3316 24.4483 -15.6682 
-24.376 28.7364 -16.39 -17.4205 31.0685 -16.39 30.7227 24.4483 -16.39 
24.3128 29.2863 -16.39 31.2683 24.4483 -15.7582 -24.376 31.4039 -11.0345 
-16.0296 31.4039 -16.39 -17.4205 31.4039 -15.9051 -10.465 32.5675 -16.39 
-3.50941 33.9159 -16.39 3.44614 34.559 -16.39 10.4017 34.0175 -16.39 
19.83 31.4039 -16.39 17.3572 32.3396 -16.39 24.3128 31.4039 -12.7813 
3.44614 38.3594 -9.86178 -17.4205 -32.2293 -9.43443 -10.465 -33.9615 -9.43443 
-3.50941 -35.1979 -9.43443 3.44614 -35.7559 -9.43443 10.4017 -35.127 -9.43443 
17.3572 -33.1369 -9.43443 -31.3316 -25.3187 -9.43443 -20.3498 -31.196 -9.43443 
-24.376 -29.6366 -9.43443 -24.376 -31.196 -3.85259 21.7048 -31.196 -9.43443 
24.3128 -29.8249 -9.43443 24.3128 -31.196 -6.06278 31.2683 -25.0173 -9.43443 
-32.5691 -24.2405 -9.43443 -38.2871 -17.2939 -9.43443 32.174 -24.2405 -9.43443 
38.2239 -17.8927 -9.43443 -38.2928 -17.2849 -9.43443 38.6918 -17.2849 -9.43443 
-41.1344 -10.3294 -9.43443 42.8504 -10.3294 -9.43443 -42.3327 -3.37385 -9.43443 
44.9295 -3.37385 -9.43443 45.1794 3.57062 -9.43443 45.1794 -3.37385 -8.06305 
-42.3738 3.58169 -9.43443 45.1798 3.58169 -9.43443 45.1794 3.58294 -9.43443 
-41.4124 10.5372 -9.43443 43.0669 10.5372 -9.43443 -39.2609 17.4928 -9.43443 
-38.2871 19.3005 -9.43443 39.8218 17.4928 -9.43443 38.2239 20.0421 -9.43443 
-34.6933 24.4483 -9.43443 -31.3316 27.7995 -9.43443 34.8575 24.4483 -9.43443 
31.2683 27.9229 -9.43443 -25.6448 31.4039 -9.43443 -24.376 32.078 -9.43443 
-17.4205 34.6182 -9.43443 -10.465 36.544 -9.43443 -3.50941 38.0269 -9.43443 
10.4017 37.7793 -9.43443 17.3572 35.8515 -9.43443 26.5544 31.4039 -9.43443 
24.3128 32.8 -9.43443 0.883526 38.3594 -9.43443 -3.50941 38.3594 -6.2368 
5.20208 38.3594 -9.43443 3.44614 38.5505 -9.43443 -24.376 -31.5326 -2.47889 
-17.4205 -34.0301 -2.47889 -10.465 -36.1055 -2.47889 -3.50941 -37.5603 -2.47889 
3.44614 -37.9819 -2.47889 3.44614 -38.1516 0.287734 10.4017 -37.2702 -2.47889 
17.3572 -35.3534 -2.47889 24.3128 -32.3175 -2.47889 -25.1037 -31.196 -2.47889 
-31.3316 -27.961 -2.47889 -24.376 -31.196 2.19446 26.1859 -31.196 -2.47889 
31.2683 -27.7847 -2.47889 -35.9308 -24.2405 -2.47889 -38.2871 -21.7226 -2.47889 
35.205 -24.2405 -2.47889 38.2239 -20.7913 -2.47889 -41.3238 -17.2849 -2.47889 
40.8773 -17.2849 -2.47889 -44.2547 -10.3294 -2.47889 44.4628 -10.3294 -2.47889 
45.1794 -7.29556 -2.47889 -45.0198 -3.37385 -2.47889 46.0698 -3.37385 -2.47889 
45.1794 -3.37385 3.09954 -44.6033 3.58169 -2.47889 45.8766 3.58169 -2.47889 
45.1794 5.77934 -2.47889 45.1794 3.58169 1.18353 -43.2425 10.5372 -2.47889 
43.5886 10.5372 -2.47889 -40.4644 17.4928 -2.47889 -38.2871 20.9785 -2.47889 
39.8351 17.4928 -2.47889 38.2239 19.8085 -2.47889 38.2239 17.4928 2.32918 
-35.5221 24.4483 -2.47889 -31.3316 28.2739 -2.47889 34.5873 24.4483 -2.47889 
31.2683 27.7164 -2.47889 -25.9516 31.4039 -2.47889 -24.376 32.202 -2.47889 
-24.376 31.4039 0.891721 -17.4205 34.828 -2.47889 -10.465 37.0802 -2.47889 
10.4017 38.0744 -2.47889 17.3572 35.9358 -2.47889 26.3792 31.4039 -2.47889 
24.3128 32.7279 -2.47889 24.3128 31.4039 2.42151 -5.09483 38.3594 -2.47889 
-3.50941 38.7281 -2.47889 -3.50941 38.3594 -0.80121 8.50368 38.3594 -2.47889 
3.44614 39.0916 -2.47889 3.44614 38.3594 0.443712 3.44614 -38.4074 4.47666 
-17.4205 -33.7051 4.47666 -10.465 -36.1325 4.47666 0.157189 -38.1516 4.47666 
-3.50941 -37.8654 4.47666 6.17037 -38.1516 4.47666 3.44614 -38.1516 5.79759 
10.4017 -37.7404 4.47666 17.3572 -35.7805 4.47666 24.3128 -32.6508 4.47666 
-31.3316 -27.5931 4.47666 -23.9602 -31.196 4.47666 -24.376 -31.029 4.47666 
26.5299 -31.196 4.47666 24.3128 -31.196 9.31719 31.2683 -27.435 4.47666 
-35.7131 -24.2405 4.47666 -38.2871 -21.6504 4.47666 34.6018 -24.2405 4.47666 
38.2239 -19.732 4.47666 -41.2934 -17.2849 4.47666 39.9278 -17.2849 4.47666 
38.2239 -17.2849 8.43992 -44.357 -10.3294 4.47666 43.4324 -10.3294 4.47666 
-45.1985 -3.37385 4.47666 44.9399 -3.37385 4.47666 -44.796 3.58169 4.47666 
44.4375 3.58169 4.47666 -43.2911 10.5372 4.47666 41.6477 10.5372 4.47666 
38.2239 16.2858 4.47666 38.2239 10.5372 10.2394 -40.3324 17.4928 4.47666 
-38.2871 20.3893 4.47666 -38.2871 17.4928 9.07477 37.4315 17.4928 4.47666 
-34.4074 24.4483 4.47666 -31.3316 26.9566 4.47666 -31.3316 24.4483 8.7643 
-24.376 30.5037 4.47666 24.3128 30.7379 4.47666 31.8929 24.4483 4.47666 
31.2683 25.074 4.47666 31.2683 24.4483 5.36035 -21.9805 31.4039 4.47666 
-17.4205 33.0388 4.47666 -17.4205 31.4039 7.27764 -10.465 35.4188 4.47666 
-10.465 31.4039 10.4649 -3.50941 37.0776 4.47666 3.44614 37.2426 4.47666 
10.4017 36.1292 4.47666 10.4017 31.4039 11.1186 23.0193 31.4039 4.47666 
17.3572 33.9523 4.47666 17.3572 31.4039 8.75846 -17.4205 -31.9723 11.4322 
-10.465 -34.4573 11.4322 -3.50941 -36.3579 11.4322 3.44614 -36.9795 11.4322 
10.4017 -36.2155 11.4322 17.3572 -34.1171 11.4322 -31.3316 -24.6841 11.4322 
-19.2336 -31.196 11.4322 -24.376 -28.8648 11.4322 -17.4205 -31.196 12.8975 
-10.465 -31.196 17.1661 10.4017 -31.196 18.1155 23.0453 -31.196 11.4322 
17.3572 -31.196 15.6139 24.3128 -30.4051 11.4322 31.2683 -24.4234 11.4322 
-31.8829 -24.2405 11.4322 -38.2871 -17.2899 11.4322 -31.3316 -24.2405 12.0283 
-24.376 -24.2405 17.8905 24.3128 -24.2405 18.2083 31.4456 -24.2405 11.4322 
31.2683 -24.2405 11.6652 -38.2906 -17.2849 11.4322 -38.2871 -17.2849 11.4369 
-31.3316 -17.2849 17.8646 36.8739 -17.2849 11.4322 31.2683 -17.2849 18.279 
38.2239 -14.7856 11.4322 -41.2318 -10.3294 11.4322 -38.2871 -10.3294 14.7578 
40.3889 -10.3294 11.4322 38.2239 -10.3294 14.6845 -42.1862 -3.37385 11.4322 
-38.2871 -3.37385 15.7051 41.6208 -3.37385 11.4322 38.2239 -3.37385 16.107 
-42.1038 3.58169 11.4322 -38.2871 3.58169 15.5251 40.531 3.58169 11.4322 
38.2239 8.85366 11.4322 38.2239 3.58169 14.472 -40.6414 10.5372 11.4322 
-38.2871 15.2542 11.4322 -38.2871 10.5372 14.239 -31.3316 10.5372 18.3488 
37.2984 10.5372 11.4322 31.2683 10.5372 16.9231 -36.6702 17.4928 11.4322 
-31.3316 22.4316 11.4322 -31.3316 17.4928 15.2321 -24.376 17.4928 17.4432 
24.3128 17.4928 17.301 32.576 17.4928 11.4322 31.2683 19.1292 11.4322 
31.2683 17.4928 12.6948 -27.8785 24.4483 11.4322 -24.376 26.0895 11.4322 
-24.376 24.4483 13.0032 -17.4205 28.0542 11.4322 -17.4205 24.4483 14.3601 
-10.465 30.4054 11.4322 -10.465 24.4483 15.3332 -3.50941 24.4483 16.0351 
3.44614 24.4483 16.3267 10.4017 31.1052 11.4322 10.4017 24.4483 16.4755 
17.3572 29.3611 11.4322 17.3572 24.4483 15.5763 25.8647 24.4483 11.4322 
24.3128 25.7301 11.4322 24.3128 24.4483 12.6203 -6.65432 31.4039 11.4322 
[...]
POINT_DATA 496
SCALARS ImageScalars float
LOOKUP_TABLE default
0 0 0 0 0 0 0 0 0 
0 0 0 0 0 0 0 0 0 
0 0 0 0 0 0 0 0 0 
0 0 0 0 0 0 0 0 0 
0 0 0 0 0 0 0 0 0 
0 0 0 0 0 0 0 0 0 
0 0 0 0 0 0 0 0 0 
0 0 0 0 0 0 0 0 0 
0 0 0 0 0 0 0 0 0 
0 0 0 0 0 0 0 0 0 
0 0 0 0 0 0 0 0 0 
0 0 0 0 0 0 0 0 0 
0 0 0 0 0 0 0 0 0 
0 0 0 0 0 0 0 0 0 
0 0 0 0 0 0 0 0 0 
0 0 0 0 0 0 0 0 0 
0 0 0 0 0 0 0 0 0 
0 0 0 0 0 0 0 0 0 
0 0 0 0 0 0 0 0 0 
0 0 0 0 0 0 0 0 0 
0 0 0 0 0 0 0 0 0 
0 0 0 0 0 0 0 0 0 
0 0 0 0 0 0 0 0 0 
0 0 0 0 0 0 0 0 0 
0 0 0 0 0 0 0 0 0 
0 0 0 0 0 0 0 0 0 
0 0 0 0 0 0 0 0 0 
0 0 0 0 0 0 0 0 0 
0 0 0 0 0 0 0 0 0 
0 0 0 0 0 0 0 0 0 
0 0 0 0 0 0 0 0 0 
0 0 0 0 0 0 0 0 0 
0 0 0 0 0 0 0 0 0 
0 0 0 0 0 0 0 0 0 
0 0 0 0 0 0 0 0 0 
0 0 0 0 0 0 0 0 0 
0 0 0 0 0 0 0 0 0 
0 0 0 0 0 0 0 0 0 
0 0 0 0 0 0 0 0 0 
0 0 0 0 0 0 0 0 0 
0 0 0 0 0 0 0 0 0 
0 0 0 0 0 0 0 0 0 
0 0 0 0 0 0 0 0 0 
0 0 0 0 0 0 0 0 0 
0 0 0 0 0 0 0 0 0 
0 0 0 0 0 0 0 0 0 
0 0 0 0 0 0 0 0 0 
0 0 0 0 0 0 0 0 0 
0 0 0 0 0 0 0 0 0 
0 0 0 0 0 0 0 0 0 
0 0 0 0 0 0 0 0 0 
0 0 0 0 0 0 0 0 0 
0 0 0 0 0 0 0 0 0 
0 0 0 0 0 0 0 0 0 
0 0 0 0 0 0 0 0 0 
0 
NORMALS Normals float
0.159565 0.50536 0.848027 0.0274133 0.463224 0.885817 0.0091253 0.371154 0.928526 
0.0152076 0.308219 0.951194 -0.0903749 0.323193 0.942008 -0.237387 0.36569 0.899955 
0.322081 0.321111 0.89059 0.129818 0.299771 0.945137 -0.0298054 0.328467 0.944045 
-0.0847501 0.280539 0.956094 -0.0372658 0.218532 0.975118 -0.0663701 0.212972 0.974801 
-0.147052 0.246212 0.957996 -0.220723 0.324587 0.919742 0.448803 0.252634 0.857177 
0.282594 0.186126 0.941009 0.156033 0.138009 0.978063 -0.00361245 0.107345 0.994215 
-0.100651 0.179758 0.978548 -0.0599099 0.216803 0.974375 -0.061319 0.228378 0.971639 
-0.110957 0.248016 0.962381 -0.154061 0.279686 0.94765 -0.284762 0.308412 0.90763 
0.417375 0.207167 0.884805 0.194022 0.148865 0.969636 0.0636242 0.0632792 0.995966 
0.00924133 -0.061487 0.998065 0.00935334 0.0347828 0.999351 0.00635919 0.0919075 0.995747 
-0.0331931 0.0824816 0.99604 -0.0909068 0.154042 0.983873 -0.131506 0.210729 0.968659 
-0.281236 0.203325 0.937851 -0.539139 0.168919 0.825103 0.400575 0.120852 0.908259 
0.118753 0.103469 0.987518 -0.0563839 0.0322299 0.997889 -0.0305612 -0.0325832 0.999002 
0.0558296 -0.0196782 0.998246 -0.0115529 -0.0315766 0.999435 0.00180004 -0.0463662 0.998923 
0.018027 0.0306112 0.999369 -0.104207 0.0821268 0.991159 -0.310397 0.0786659 0.947347 
-0.578942 -0.00184551 0.815367 0.428666 -0.068403 0.90087 0.0899153 -0.0150872 0.995835 
-0.0706472 -0.0190101 0.99732 -0.0425823 0.00810785 0.99906 0.0106822 -0.0246043 0.99964 
-0.0202359 -0.0215603 0.999563 0.0284659 -0.00467485 0.999584 0.0379013 -0.0166116 0.999143 
-0.0735404 -0.037825 0.996575 -0.346191 -0.0777217 0.934939 -0.664693 -0.19957 0.719969 
0.521756 -0.302447 0.797682 0.166376 -0.194749 0.96664 -0.0323387 -0.144597 0.988962 
-0.0369122 -0.069768 0.99688 0.0255985 -0.0859808 0.995968 0.00839259 -0.0571199 0.998332 
0.00618287 -0.0207033 0.999767 -0.0156779 -0.105343 0.994312 -0.163475 -0.17938 0.970102 
-0.466525 -0.308787 0.828857 0.27111 -0.520629 0.809595 0.0632987 -0.396438 0.915877 
0.0195732 -0.284756 0.9584 0.0277673 -0.232275 0.972254 0.041493 -0.21511 0.975708 
-0.0213439 -0.22452 0.974236 -0.12531 -0.317782 0.939847 -0.309204 -0.457689 0.833615 
0.148841 -0.643773 0.750602 0.100208 -0.557173 0.824328 0.010128 -0.533819 0.845538 
-0.105742 -0.582028 0.806264 -0.236663 -0.68703 0.687008 0.171472 0.560817 0.809989 
0.253844 0.832021 0.493258 0.0630914 0.543848 0.836809 0.147047 0.742124 0.653934 
0.050043 0.471494 0.880448 0.103166 0.64767 0.754904 0.013474 0.465478 0.884957 
0.00500151 0.616793 0.78711 -0.111104 0.471173 0.875015 -0.142244 0.664145 0.733947 
-0.246431 0.393924 0.885491 -0.310587 0.732134 0.60623 0.572065 0.624078 0.53223 
0.253038 0.523931 0.813307 0.329405 0.481953 0.811919 0.33861 0.553959 0.760574 
-0.257506 0.38579 0.885921 -0.265788 0.381688 0.885252 -0.366587 0.511172 0.777378 
-0.54147 0.6441 0.540319 0.7398 0.421791 0.524203 0.453201 0.351202 0.819308 
0.47931 0.317088 0.818362 0.50722 0.37017 0.778269 -0.300105 0.381649 0.874232 
-0.34266 0.387012 0.856041 -0.39526 0.448013 0.801906 -0.68615 0.545334 0.481465 
0.514411 0.255412 0.818625 0.69335 0.252481 0.674922 -0.43489 0.332263 0.836942 
-0.540602 0.234884 0.807823 -0.569498 0.359732 0.739098 0.607391 0.172343 0.775483 
0.700136 0.148486 0.6984 -0.58475 0.163686 0.794528 0.718614 0.0476933 0.693772 
0.74848 0.034464 0.662261 -0.652943 -0.0153575 0.757251 -0.941648 -0.124884 0.312574 
0.767793 -0.116619 0.629995 0.809446 -0.133213 0.571885 -0.697039 -0.209466 0.685755 
-0.692149 -0.258449 0.673894 0.730979 -0.335403 0.594285 0.853946 -0.371442 0.364427 
0.609101 -0.563317 0.558275 -0.667745 -0.383038 0.638278 -0.574909 -0.572366 0.584702 
-0.800209 -0.457186 0.388133 0.587543 -0.586006 0.558023 0.618101 -0.593987 0.514908 
0.349529 -0.725613 0.592718 0.205497 -0.740394 0.639991 -0.560968 -0.586267 0.584471 
-0.404287 -0.68852 0.602073 -0.587825 -0.602744 0.539594 0.399377 -0.874879 0.274018 
0.199924 -0.736004 0.646783 0.218077 -0.767347 0.60301 0.162429 -0.699742 0.695685 
0.113407 -0.697228 0.707822 0.00516302 -0.71408 0.700045 -0.130881 -0.721859 0.679551 
-0.307744 -0.72456 0.61669 -0.251986 -0.72881 0.636662 -0.455955 -0.814921 0.357782 
-0.0155603 -0.960853 0.27662 0.268338 0.869483 0.414721 0.18845 0.858713 0.476549 
0.116468 0.858003 0.500265 -0.00505615 0.876854 0.48073 -0.160196 0.869081 0.468013 
-0.319673 0.825126 0.465807 0.575247 0.671222 0.467496 0.313726 0.85507 0.412833 
0.387793 0.81663 0.427471 0.386531 0.911304 0.14184 -0.395135 0.785469 0.476348 
-0.440498 0.750108 0.493255 -0.460843 0.829974 0.314273 -0.554925 0.670621 0.492266 
0.606243 0.638187 0.474538 0.739865 0.42209 0.52387 -0.571398 0.658093 0.490324 
-0.694009 0.559158 0.453535 0.739986 0.421839 0.523902 -0.703412 0.547335 0.453471 
0.804864 0.247225 0.539513 -0.835757 0.366824 0.408595 0.86959 0.0704086 0.488729 
-0.921733 0.139353 0.361924 -0.941684 -0.124481 0.312627 -0.948989 0.13134 0.286654 
0.906052 -0.0592651 0.418996 -0.941659 -0.124891 0.312538 -0.941658 -0.12493 0.312527 
0.913266 -0.211433 0.348198 -0.908526 -0.33439 0.250528 0.878221 -0.387224 0.280686 
0.855222 -0.444168 0.267042 -0.849522 -0.48858 0.199002 -0.819564 -0.541441 0.187498 
0.74098 -0.630785 0.230346 0.63356 -0.743941 0.212492 -0.731118 -0.660452 0.171085 
-0.647595 -0.741877 0.173893 0.440426 -0.87665 0.193676 0.407674 -0.892794 0.191626 
0.292087 -0.931034 0.218772 0.230511 -0.938072 0.258623 0.137069 -0.952674 0.271339 
-0.183408 -0.955625 0.230526 -0.327808 -0.921926 0.206384 -0.52711 -0.832221 0.171941 
-0.469113 -0.865734 0.174463 0.0400944 -0.964765 0.260042 0.140117 -0.9834 0.115291 
-0.0577935 -0.966967 0.248265 -0.0162816 -0.966868 0.254757 0.384874 0.919592 0.0788806 
0.306912 0.947369 0.0910874 0.242671 0.960555 0.135813 0.129908 0.97772 0.164887 
-0.0189918 0.985562 0.168248 -0.0145317 0.997078 0.0749964 -0.182604 0.96905 0.166127 
-0.323831 0.933107 0.156346 -0.465764 0.870983 0.156374 0.399002 0.913308 0.0816425 
0.548647 0.827918 0.116352 0.384242 0.918944 -0.0888842 -0.503703 0.850964 0.148805 
-0.615734 0.778157 0.123869 0.681624 0.717659 0.14267 0.76777 0.620064 0.161397 
-0.7057 0.700955 0.103198 -0.774748 0.62738 0.0784844 0.863106 0.473978 0.174338 
-0.827597 0.557639 0.0642041 0.953246 0.242678 0.180081 -0.945055 0.325756 0.0274719 
-0.974685 0.223201 0.0130907 0.984015 0.0207754 0.176872 -0.995312 0.0967037 -0.00125092 
-0.96996 0.0751548 -0.231364 0.980478 -0.120234 0.155588 -0.984164 -0.171587 -0.044486 
-0.96988 -0.237374 -0.0546414 -0.962057 -0.190695 -0.195145 0.951407 -0.282911 0.121595 
-0.92132 -0.380058 -0.0820126 0.8859 -0.458061 0.073221 0.828069 -0.559498 0.0355354 
-0.829774 -0.541972 -0.133193 -0.803629 -0.578135 -0.141211 -0.789926 -0.531723 -0.305429 
0.731216 -0.682094 -0.0083799 0.597415 -0.800325 -0.0507388 -0.729382 -0.668101 -0.147117 
-0.654166 -0.743008 -0.141443 0.443219 -0.891864 -0.090201 0.408116 -0.907671 -0.0978507 
0.389912 -0.894367 -0.219262 0.324448 -0.940637 -0.0996779 0.269341 -0.960512 -0.0698017 
-0.217505 -0.9707 -0.102145 -0.352797 -0.928452 -0.116236 -0.535497 -0.835274 -0.124741 
-0.489926 -0.863213 -0.121801 -0.482888 -0.826711 -0.288735 0.169068 -0.983685 -0.0614772 
0.139995 -0.988319 -0.060222 0.135766 -0.981692 -0.133598 -0.170039 -0.980667 -0.0968447 
-0.0444934 -0.995405 -0.084788 -0.0506816 -0.975585 -0.213694 -0.00786815 0.997818 -0.0655544 
0.335395 0.932334 -0.135139 0.285364 0.952339 -0.107782 0.0706069 0.994924 -0.071701 
0.157681 0.984359 -0.0785781 -0.0752156 0.994983 -0.0659646 -0.00756252 0.993132 -0.116755 
-0.18141 0.981132 -0.0668661 -0.337094 0.938463 -0.0751993 -0.496874 0.86139 -0.105471 
0.529833 0.828608 -0.180795 0.377313 0.910545 -0.168947 0.381125 0.908527 -0.171236 
-0.547525 0.828413 -0.1181 -0.512094 0.801224 -0.309515 -0.653667 0.738699 -0.164449 
0.654157 0.73479 -0.179341 0.75354 0.632295 -0.179948 -0.716668 0.671545 -0.188184 
-0.795499 0.565927 -0.216585 0.857194 0.484962 -0.17329 -0.825167 0.515566 -0.230849 
-0.796198 0.49477 -0.348241 0.951102 0.25084 -0.180236 -0.915696 0.305727 -0.260828 
0.985884 0.0261441 -0.165373 -0.954671 0.0676117 -0.289884 0.981202 -0.130416 -0.14225 
-0.919262 -0.206529 -0.335116 0.942223 -0.2969 -0.155131 -0.836128 -0.40635 -0.36847 
-0.775897 -0.501359 -0.382915 -0.731286 -0.418391 -0.538674 0.845023 -0.501756 -0.18487 
0.779624 -0.58998 -0.210023 0.738967 -0.521777 -0.426235 -0.76268 -0.520564 -0.383839 
0.630849 -0.729324 -0.264794 0.531887 -0.793331 -0.29618 0.495266 -0.722761 -0.482005 
0.363144 -0.861817 -0.354115 -0.478113 -0.798961 -0.364786 -0.658244 -0.647102 -0.384673 
-0.646261 -0.65951 -0.383918 -0.64307 -0.644766 -0.413204 0.343126 -0.867491 -0.360171 
0.310011 -0.875913 -0.369688 0.292332 -0.821761 -0.489133 0.262003 -0.887188 -0.379805 
0.205318 -0.710308 -0.673281 0.117448 -0.91431 -0.387611 -0.0589468 -0.911199 -0.407727 
-0.209759 -0.886605 -0.412229 -0.14007 -0.714438 -0.685535 -0.446314 -0.816591 -0.366037 
-0.331808 -0.864518 -0.377508 -0.290853 -0.786962 -0.544147 0.351786 0.868631 -0.348893 
0.289887 0.89242 -0.345763 0.165822 0.921176 -0.352048 -0.00793706 0.934377 -0.356196 
-0.187012 0.909812 -0.370498 -0.353081 0.853608 -0.382997 0.566748 0.693856 -0.444253 
0.365656 0.86078 -0.354052 0.414521 0.823322 -0.387703 0.349634 0.844217 -0.406269 
0.246168 0.751293 -0.61234 -0.178678 0.620364 -0.76369 -0.482405 0.779529 -0.399525 
-0.327535 0.713719 -0.619133 -0.511391 0.758431 -0.404057 -0.648321 0.636405 -0.417934 
0.579415 0.681231 -0.447439 0.73878 0.462802 -0.489917 0.570089 0.676934 -0.465574 
0.406783 0.596363 -0.692011 -0.407174 0.522583 -0.749077 -0.651329 0.632872 -0.418622 
-0.646838 0.632144 -0.426608 0.738883 0.462647 -0.489907 0.738772 0.462621 -0.490099 
0.522702 0.353118 -0.775945 -0.75882 0.476597 -0.4439 -0.55471 0.425914 -0.714768 
-0.795324 0.403082 -0.452752 0.80346 0.228997 -0.549557 0.697144 0.196507 -0.689475 
-0.838297 0.271917 -0.472567 -0.77842 0.260244 -0.571258 0.829148 0.0531828 -0.556493 
0.674959 0.0411877 -0.736705 -0.857392 0.012768 -0.514505 -0.760396 -0.0142269 -0.649304 
0.832237 -0.0945708 -0.546295 0.667475 -0.0762755 -0.740716 -0.799531 -0.24603 -0.547922 
-0.731223 -0.380602 -0.566087 -0.733637 -0.261572 -0.627182 0.795574 -0.293453 -0.530044 
0.705211 -0.446535 -0.550712 0.676914 -0.280787 -0.680402 0.360188 -0.283687 -0.888699 
-0.70192 -0.417176 -0.577298 -0.532577 -0.414626 -0.737867 0.631333 -0.518336 -0.576841 
0.450675 -0.641813 -0.620458 0.392778 -0.490255 -0.778059 0.187314 -0.46634 -0.864547 
-0.397855 -0.451496 -0.798663 -0.622575 -0.486405 -0.613034 -0.599866 -0.51207 -0.614772 
-0.588781 -0.481818 -0.64899 0.356834 -0.681509 -0.638916 0.269697 -0.699244 -0.662058 
0.24752 -0.652249 -0.716454 0.212285 -0.675282 -0.706349 0.142448 -0.56706 -0.811265 
0.185962 -0.660997 -0.726981 0.101846 -0.480813 -0.870889 0.0629879 -0.437574 -0.896973 
0.0281922 -0.463606 -0.885593 -0.133608 -0.702185 -0.699346 -0.0418277 -0.542446 -0.839049 
-0.258089 -0.707586 -0.657809 -0.209049 -0.582943 -0.78516 -0.486173 -0.605679 -0.629912 
-0.450705 -0.632166 -0.630262 -0.443166 -0.596846 -0.668864 0.131411 -0.666808 -0.733552 
0.0809156 -0.665898 -0.741642 0.0786828 -0.64056 -0.763866 -0.112271 -0.694122 -0.711049 
-0.0497025 -0.670419 -0.740316 -0.0463212 -0.645806 -0.762095 0.0975035 0.693636 -0.713696 
-0.0443029 0.652054 -0.756877 0.30716 0.64387 -0.700774 0.155031 0.698277 -0.698838 
0.227446 0.688521 -0.688627 0.0896585 0.667219 -0.739446 -0.1481 0.614359 -0.775003 
-0.0486285 0.612402 -0.78905 -0.176146 0.595875 -0.783521 -0.268758 0.531707 -0.803154 
0.388445 0.578727 -0.717067 0.401052 0.559309 -0.725486 0.268332 0.502605 -0.821819 
0.15388 0.426528 -0.891288 0.0236074 0.369237 -0.929035 -0.10007 0.332485 -0.937784 
-0.151451 0.306742 -0.939666 -0.394378 0.512958 -0.762457 -0.217747 0.386769 -0.8961 
-0.399069 0.513487 -0.759655 0.498431 0.339199 -0.797816 0.50897 0.29529 -0.80855 
0.342367 0.272207 -0.899271 0.205259 0.214471 -0.954919 0.108384 0.166848 -0.980008 
-0.0130284 0.175633 -0.98437 -0.123896 0.177505 -0.97629 -0.131427 0.176026 -0.975573 
-0.112058 0.241677 -0.963865 -0.546961 0.423657 -0.722044 -0.253671 0.345831 -0.903356 
-0.552156 0.418694 -0.720985 0.527681 0.149788 -0.836132 0.469892 0.140705 -0.871438 
0.287613 0.0825248 -0.954185 0.161708 0.0811448 -0.983497 0.111256 0.0451671 -0.992765 
-0.108622 0.0367856 -0.993402 -0.0910355 0.098579 -0.990956 -0.0465209 0.157071 -0.986491 
-0.186608 0.190885 -0.963712 -0.63687 0.22687 -0.736835 -0.484137 0.209782 -0.849472 
0.522979 0.0248424 -0.851983 0.425727 0.00731421 -0.904822 0.297818 -0.00800953 -0.954589 
0.166754 0.0198816 -0.985798 0.0531754 0.0336649 -0.998018 -0.0209944 -0.074904 -0.99697 
-0.0507745 -0.105892 -0.99308 -0.0120721 0.00352409 -0.999921 -0.0121534 0.0217626 -0.999689 
-0.182393 -0.0137751 -0.983129 -0.666352 -0.0340869 -0.744858 -0.478457 -0.0405251 -0.877175 
0.496777 -0.0993154 -0.862177 0.361482 -0.279377 -0.889539 0.417558 -0.116031 -0.901211 
0.30506 -0.140976 -0.941841 0.203618 -0.153531 -0.966937 -0.112327 -0.162906 -0.980227 
-0.027285 -0.163953 -0.986091 0.0362091 -0.100636 -0.994264 -0.0630253 -0.142124 -0.98784 
-0.246323 -0.243572 -0.938082 -0.585342 -0.28359 -0.759573 -0.517816 -0.366522 -0.772999 
-0.496479 -0.287102 -0.819195 0.357678 -0.28438 -0.889491 0.201861 -0.425384 -0.882214 
0.244645 -0.327638 -0.91258 0.16397 -0.398743 -0.902285 0.044872 -0.437871 -0.897917 
-0.0410111 -0.363377 -0.930739 0.0196347 -0.278094 -0.960353 0.00810622 -0.260966 -0.965314 
-0.157588 -0.304599 -0.939354 -0.46212 -0.406084 -0.788379 -0.379453 -0.427307 -0.820624 
-0.337576 -0.376548 -0.862702 0.0852027 -0.477864 -0.874292 0.0820987 -0.478806 -0.874074 
0.0818707 -0.478464 -0.874282 0.0533583 -0.486389 -0.872111 0.0509482 -0.492142 -0.869023 
0.0609449 -0.442021 -0.894932 0.0575887 -0.447821 -0.892267 0.0618094 -0.433896 -0.89884 
0.0742459 -0.417323 -0.90572 -0.0113038 -0.489772 -0.871777 0.0078624 -0.429728 -0.902924 
-0.307981 -0.446704 -0.840002 -0.186446 -0.485492 -0.854129 -0.182375 -0.437586 -0.880487 
0.00688725 0.0987213 -0.995091 0.0656914 0.0328264 -0.9973 -0.0944225 0.0353963 -0.994903 
-0.0165324 -0.0658553 -0.997692 0.027276 0.0229086 -0.999365 0.0273874 -0.0726326 -0.996983 
0.0245482 -0.125281 -0.991818 0.00631255 -0.126297 -0.991972 0.0155348 -0.131478 -0.991197 
0.0147486 -0.123691 -0.992211 
