# vtk DataFile Version 4.2
vtk output
ASCII
DATASET POLYDATA
POINTS 546 float
-44.9375 -33.0324 -15.3562 -36.7936 -33.0324 -16.0475 -28.6497 -33.0324 -16.307 
-20.5058 -33.0324 -15.1202 -53.0814 -24.8885 -16.124 -44.9375 -24.8885 -17.614 
-36.7936 -24.8885 -18.9507 -28.6497 -24.8885 -18.8026 -20.5058 -24.8885 -18.3098 
-12.362 -24.8885 -17.645 -4.21806 -24.8885 -16.9541 3.92584 -24.8885 -16.6767 
12.0697 -24.8885 -17.2305 20.2136 -24.8885 -17.6923 28.3575 -24.8885 -17.841 
36.5014 -24.8885 -18.6163 44.6453 -24.8885 -18.1584 52.7892 -24.8885 -16.597 
60.9331 -24.8885 -14.1212 -53.0814 -16.7446 -16.9545 -44.9375 -16.7446 -18.7916 
-36.7936 -16.7446 -19.3927 -28.6497 -16.7446 -18.7901 -20.5058 -16.7446 -18.3553 
-12.362 -16.7446 -17.9039 -4.21806 -16.7446 -18.7144 3.92584 -16.7446 -18.6018 
12.0697 -16.7446 -19.0652 20.2136 -16.7446 -18.7003 28.3575 -16.7446 -19.1245 
36.5014 -16.7446 -19.7378 44.6453 -16.7446 -20.5708 52.7892 -16.7446 -19.0811 
60.9331 -16.7446 -16.7428 -53.0814 -8.60071 -17.4448 -44.9375 -8.60071 -19.4947 
-36.7936 -8.60071 -19.3209 -28.6497 -8.60071 -18.4807 -20.5058 -8.60071 -17.2487 
-12.362 -8.60071 -17.6764 -4.21806 -8.60071 -18.7023 3.92584 -8.60071 -18.2536 
12.0697 -8.60071 -20.0932 20.2136 -8.60071 -18.0544 28.3575 -8.60071 -18.9402 
36.5014 -8.60071 -20.247 44.6453 -8.60071 -20.239 52.7892 -8.60071 -19.72 
60.9331 -8.60071 -18.448 -53.0814 -0.456815 -17.6582 -44.9375 -0.456815 -19.4055 
-36.7936 -0.456815 -19.1808 -28.6497 -0.456815 -18.3433 -20.5058 -0.456815 -17.0035 
-12.362 -0.456815 -19.5111 -4.21806 -0.456815 -19.9385 3.92584 -0.456815 -17.9149 
12.0697 -0.456815 -21.3404 20.2136 -0.456815 -16.7397 28.3575 -0.456815 -18.747 
36.5014 -0.456815 -20.2594 44.6453 -0.456815 -20.0626 52.7892 -0.456815 -19.2811 
60.9331 -0.456815 -16.9528 -53.0814 7.68708 -16.7218 -44.9375 7.68708 -18.9128 
-36.7936 7.68708 -19.3233 -28.6497 7.68708 -18.6207 -20.5058 7.68708 -17.4109 
-12.362 7.68708 -17.4512 -4.21806 7.68708 -18.6855 3.92584 7.68708 -18.5458 
12.0697 7.68708 -19.278 20.2136 7.68708 -17.8216 28.3575 7.68708 -18.9381 
36.5014 7.68708 -20.136 44.6453 7.68708 -19.7687 52.7892 7.68708 -18.7206 
60.9331 7.68708 -14.3577 -53.0814 15.831 -15.101 -44.9375 15.831 -17.7425 
-36.7936 15.831 -18.8393 -28.6497 15.831 -18.9128 -20.5058 15.831 -18.4387 
-12.362 15.831 -18.1108 -4.21806 15.831 -17.7017 3.92584 15.831 -17.7166 
12.0697 15.831 -18.7237 20.2136 15.831 -18.8974 28.3575 15.831 -19.3203 
36.5014 15.831 -19.4198 44.6453 15.831 -19.0148 52.7892 15.831 -15.7648 
-44.9375 23.9749 -15.955 -36.7936 23.9749 -18.3057 -28.6497 23.9749 -19.0306 
-20.5058 23.9749 -19.1611 -12.362 23.9749 -18.9044 -4.21806 23.9749 -18.7251 
3.92584 23.9749 -18.7966 12.0697 23.9749 -18.9331 20.2136 23.9749 -18.7685 
28.3575 23.9749 -18.5615 36.5014 23.9749 -18.2028 44.6453 23.9749 -15.5803 
-36.7936 32.1188 -14.751 -28.6497 32.1188 -16.9714 -20.5058 32.1188 -17.5277 
-12.362 32.1188 -17.7491 -4.21806 32.1188 -17.7965 3.92584 32.1188 -18.2552 
12.0697 32.1188 -18.3353 20.2136 32.1188 -16.8305 28.3575 32.1188 -14.9749 
3.92584 40.2627 -13.9759 -44.9375 -34.979 -13.7381 -36.7936 -36.7322 -13.7381 
-28.6497 -35.9643 -13.7381 -20.5058 -34.6211 -13.7381 -47.7424 -33.0324 -13.7381 
-53.0814 -28.6879 -13.7381 -53.0814 -33.0324 -10.6469 -12.8937 -33.0324 -13.7381 
-12.362 -32.8562 -13.7381 -12.362 -33.0324 -13.5887 -4.21806 -30.8787 -13.7381 
-4.21806 -33.0324 -11.8481 3.92584 -30.1069 -13.7381 3.92584 -33.0324 -10.9266 
12.0697 -30.5353 -13.7381 12.0697 -33.0324 -10.6487 20.2136 -31.283 -13.7381 
20.2136 -33.0324 -11.0235 28.3575 -31.6449 -13.7381 28.3575 -33.0324 -11.9044 
36.5014 -31.6595 -13.7381 36.5014 -33.0324 -11.7447 44.6453 -30.7655 -13.7381 
44.6453 -33.0324 -10.2361 52.7892 -28.8372 -13.7381 52.7892 -33.0324 -6.25114 
60.9331 -25.4162 -13.7381 -57.2551 -24.8885 -13.7381 -61.2253 -24.8885 -10.4361 
61.517 -24.8885 -13.7381 -58.988 -16.7446 -13.7381 -61.2253 -16.7446 -12.088 
65.176 -16.7446 -13.7381 69.077 -16.7446 -9.47123 -60.1371 -8.60071 -13.7381 
-61.2253 -8.60071 -12.9475 68.5186 -8.60071 -13.7381 69.077 -8.60071 -13.1729 
-60.4044 -0.456815 -13.7381 -61.2253 -0.456815 -13.0919 64.8835 -0.456815 -13.7381 
69.077 -0.456815 -6.31601 -58.0952 7.68708 -13.7381 -61.2253 7.68708 -11.0435 
61.6351 7.68708 -13.7381 60.9331 8.84154 -13.7381 -55.7098 15.831 -13.7381 
-61.2253 15.831 -9.35452 -53.0814 18.8551 -13.7381 56.1553 15.831 -13.7381 
52.7892 19.4442 -13.7381 -49.3686 23.9749 -13.7381 -53.0814 23.9749 -10.6988 
-44.9375 28.1774 -13.7381 36.5014 30.1313 -13.7381 47.9354 23.9749 -13.7381 
44.6453 26.3853 -13.7381 52.7892 23.9749 -6.90419 -39.2771 32.1188 -13.7381 
-44.9375 32.1188 -9.74181 -36.7936 33.4876 -13.7381 -28.6497 35.7565 -13.7381 
-20.5058 36.8169 -13.7381 -12.362 37.0272 -13.7381 -4.21806 38.7579 -13.7381 
12.0697 39.6189 -13.7381 20.2136 36.48 -13.7381 32.0198 32.1188 -13.7381 
28.3575 33.5199 -13.7381 36.5014 32.1188 -11.374 -28.6497 40.2627 -6.20931 
-20.5058 40.2627 -6.60099 -12.362 40.2627 -7.25669 2.49255 40.2627 -13.7381 
-4.21806 40.2627 -11.3845 6.84522 40.2627 -13.7381 3.92584 40.5081 -13.7381 
12.0697 40.2627 -13.0617 20.2136 40.2627 -8.57356 -53.0814 -37.2128 -5.59422 
-44.9375 -40.4544 -5.59422 -36.7936 -41.152 -5.59422 -28.6497 -41.0416 -5.59422 
-20.5058 -39.3508 -5.59422 -12.362 -37.6359 -5.59422 -4.21806 -36.7387 -5.59422 
3.92584 -36.072 -5.59422 12.0697 -35.3874 -5.59422 20.2136 -35.2244 -5.59422 
28.3575 -35.8601 -5.59422 36.5014 -35.7142 -5.59422 44.6453 -35.4565 -5.59422 
52.7892 -33.2467 -5.59422 -58.8711 -33.0324 -5.59422 -61.2253 -30.1602 -5.59422 
53.6605 -33.0324 -5.59422 52.7892 -33.0324 -3.42018 60.9331 -30.6042 -5.59422 
-64.3701 -24.8885 -5.59422 66.7244 -24.8885 -5.59422 69.077 -20.9707 -5.59422 
-68.4231 -16.7446 -5.59422 70.896 -16.7446 -5.59422 -68.84 -8.60071 -5.59422 
-69.3692 -8.60071 0.78173 72.4461 -8.60071 -5.59422 -69.0092 -0.456815 -5.59422 
-69.3692 -0.456815 -1.80275 69.3256 -0.456815 -5.59422 69.077 0.34052 -5.59422 
69.077 -0.456815 -4.4446 -66.3088 7.68708 -5.59422 66.1098 7.68708 -5.59422 
60.9331 14.7267 -5.59422 -63.4559 15.831 -5.59422 -61.2253 19.5832 -5.59422 
60.2235 15.831 -5.59422 -57.7593 23.9749 -5.59422 -53.0814 28.4451 -5.59422 
44.6453 31.4178 -5.59422 53.3775 23.9749 -5.59422 52.7892 24.5764 -5.59422 
52.7892 23.9749 -2.6149 -48.6593 32.1188 -5.59422 -44.9375 34.5447 -5.59422 
-36.7936 38.2103 -5.59422 28.3575 38.8666 -5.59422 43.3507 32.1188 -5.59422 
36.5014 35.3986 -5.59422 -29.608 40.2627 -5.59422 -28.6497 40.5213 -5.59422 
-28.6497 40.2627 0.243103 -20.5058 40.6475 -5.59422 -12.362 40.8509 -5.59422 
-4.21806 42.6348 -5.59422 3.92584 44.7153 -5.59422 12.0697 44.6316 -5.59422 
24.5958 40.2627 -5.59422 20.2136 41.8881 -5.59422 -53.0814 -36.97 2.54968 
-44.9375 -39.5455 2.54968 -36.7936 -40.327 2.54968 -28.6497 -39.9104 2.54968 
-20.5058 -38.291 2.54968 -12.362 -36.969 2.54968 -4.21806 -36.7112 2.54968 
3.92584 -36.0501 2.54968 12.0697 -34.5122 2.54968 20.2136 -33.697 2.54968 
28.3575 -34.4123 2.54968 36.5014 -34.2864 2.54968 44.6453 -34.6472 2.54968 
-58.3925 -33.0324 2.54968 -61.2253 -30.2187 2.54968 -53.0814 -33.0324 8.22275 
-20.5058 -33.0324 10.6932 -12.362 -33.0324 9.20603 -4.21806 -33.0324 9.48478 
3.92584 -33.0324 9.12248 12.0697 -33.0324 5.94143 20.2136 -33.0324 3.93017 
28.3575 -33.0324 5.23389 36.5014 -33.0324 6.30011 50.5734 -33.0324 2.54968 
44.6453 -33.0324 5.75759 52.7892 -32.4549 2.54968 60.9331 -29.1962 2.54968 
-65.1359 -24.8885 2.54968 -61.2253 -24.8885 8.31233 65.9863 -24.8885 2.54968 
60.9331 -24.8885 8.29629 69.077 -18.8431 2.54968 -68.5191 -16.7446 2.54968 
-69.3692 -9.6298 2.54968 69.7892 -16.7446 2.54968 69.077 -16.7446 3.74677 
-69.4815 -8.60071 2.54968 -69.3692 -8.60071 2.78965 71.3373 -8.60071 2.54968 
69.077 -3.77791 2.54968 69.077 -8.60071 6.08105 -69.6862 -0.456815 2.54968 
-69.3692 0.844337 2.54968 -69.3692 -0.456815 3.28157 67.506 -0.456815 2.54968 
-67.6408 7.68708 2.54968 63.7052 7.68708 2.54968 60.9331 11.3487 2.54968 
60.9331 7.68708 6.12899 -63.9492 15.831 2.54968 -61.2253 20.3739 2.54968 
-61.2253 15.831 8.23061 58.0709 15.831 2.54968 52.7892 22.7571 2.54968 
52.7892 15.831 9.80746 -58.4817 23.9749 2.54968 -53.0814 28.9235 2.54968 
51.7901 23.9749 2.54968 44.6453 31.2281 2.54968 -48.8549 32.1188 2.54968 
-44.9375 34.5886 2.54968 -44.9375 32.1188 8.08718 -36.7936 38.3151 2.54968 
-28.6497 40.1572 2.54968 28.3575 39.9 2.54968 43.3664 32.1188 2.54968 
36.5014 36.2964 2.54968 -25.1016 40.2627 2.54968 -20.5058 40.3959 2.54968 
-20.5058 40.2627 3.03191 -12.362 40.635 2.54968 -12.362 40.2627 3.95154 
-4.21806 42.5003 2.54968 -4.21806 40.2627 9.46979 3.92584 44.7207 2.54968 
12.0697 44.8516 2.54968 27.3524 40.2627 2.54968 20.2136 42.9044 2.54968 
-44.9375 -34.4007 10.6936 -36.7936 -35.1617 10.6936 -28.6497 -34.4964 10.6936 
-48.3884 -33.0324 10.6936 -53.0814 -30.5917 10.6936 -44.9375 -33.0324 12.0251 
-36.7936 -33.0324 12.4758 -20.5078 -33.0324 10.6936 -28.6497 -33.0324 12.0933 
-20.5058 -33.032 10.6936 -12.362 -31.5968 10.6936 -4.21806 -31.808 10.6936 
3.92584 -31.9617 10.6936 12.0697 -30.4841 10.6936 20.2136 -29.1031 10.6936 
28.3575 -29.3977 10.6936 36.5014 -30.941 10.6936 44.6453 -29.7494 10.6936 
52.7892 -27.6102 10.6936 -58.8563 -24.8885 10.6936 -61.2253 -20.9314 10.6936 
-53.0814 -24.8885 14.2484 -44.9375 -24.8885 15.5058 -36.7936 -24.8885 16.6004 
-28.6497 -24.8885 16.5887 -20.5058 -24.8885 16.1564 -12.362 -24.8885 14.9954 
-4.21806 -24.8885 14.4978 3.92584 -24.8885 15.9069 12.0697 -24.8885 15.7421 
20.2136 -24.8885 14.8877 28.3575 -24.8885 15.3366 36.5014 -24.8885 15.8795 
44.6453 -24.8885 15.4947 57.6199 -24.8885 10.6936 52.7892 -24.8885 13.2766 
60.9331 -22.2219 10.6936 -63.2304 -16.7446 10.6936 -61.2253 -16.7446 12.3241 
-53.0814 -16.7446 16.2394 -44.9375 -16.7446 17.5065 -36.7936 -16.7446 18.1829 
-28.6497 -16.7446 18.5267 -20.5058 -16.7446 18.2713 -12.362 -16.7446 18.0513 
-4.21806 -16.7446 17.3163 3.92584 -16.7446 18.5989 52.7892 -16.7446 17.437 
[...]
POINT_DATA 546
SCALARS ImageScalars float
LOOKUP_TABLE default
0 0 0 0 0 0 0 0 0 
0 0 0 0 0 0 0 0 0 
0 0 0 0 0 0 0 0 0 
0 0 0 0 0 0 0 0 0 
0 0 0 0 0 0 0 0 0 
0 0 0 0 0 0 0 0 0 
0 0 0 0 0 0 0 0 0 
0 0 0 0 0 0 0 0 0 
0 0 0 0 0 0 0 0 0 
0 0 0 0 0 0 0 0 0 
0 0 0 0 0 0 0 0 0 
0 0 0 0 0 0 0 0 0 
0 0 0 0 0 0 0 0 0 
0 0 0 0 0 0 0 0 0 
0 0 0 0 0 0 0 0 0 
0 0 0 0 0 0 0 0 0 
0 0 0 0 0 0 0 0 0 
0 0 0 0 0 0 0 0 0 
0 0 0 0 0 0 0 0 0 
0 0 0 0 0 0 0 0 0 
0 0 0 0 0 0 0 0 0 
0 0 0 0 0 0 0 0 0 
0 0 0 0 0 0 0 0 0 
0 0 0 0 0 0 0 0 0 
0 0 0 0 0 0 0 0 0 
0 0 0 0 0 0 0 0 0 
0 0 0 0 0 0 0 0 0 
0 0 0 0 0 0 0 0 0 
0 0 0 0 0 0 0 0 0 
0 0 0 0 0 0 0 0 0 
0 0 0 0 0 0 0 0 0 
0 0 0 0 0 0 0 0 0 
0 0 0 0 0 0 0 0 0 
0 0 0 0 0 0 0 0 0 
0 0 0 0 0 0 0 0 0 
0 0 0 0 0 0 0 0 0 
0 0 0 0 0 0 0 0 0 
0 0 0 0 0 0 0 0 0 
0 0 0 0 0 0 0 0 0 
0 0 0 0 0 0 0 0 0 
0 0 0 0 0 0 0 0 0 
0 0 0 0 0 0 0 0 0 
0 0 0 0 0 0 0 0 0 
0 0 0 0 0 0 0 0 0 
0 0 0 0 0 0 0 0 0 
0 0 0 0 0 0 0 0 0 
0 0 0 0 0 0 0 0 0 
0 0 0 0 0 0 0 0 0 
0 0 0 0 0 0 0 0 0 
0 0 0 0 0 0 0 0 0 
0 0 0 0 0 0 0 0 0 
0 0 0 0 0 0 0 0 0 
0 0 0 0 0 0 0 0 0 
0 0 0 0 0 0 0 0 0 
0 0 0 0 0 0 0 0 0 
0 0 0 0 0 0 0 0 0 
0 0 0 0 0 0 0 0 0 
0 0 0 0 0 0 0 0 0 
0 0 0 0 0 0 0 0 0 
0 0 0 0 0 0 0 0 0 
0 0 0 0 0 0 
NORMALS Normals float
-0.276469 -0.488781 -0.827441 -0.043314 -0.471534 -0.880783 0.0515712 -0.5166 -0.854672 
0.138132 -0.590356 -0.795235 -0.352735 -0.309306 -0.883124 -0.163092 -0.164991 -0.972717 
-0.0653386 -0.176088 -0.982203 0.0434965 -0.120246 -0.991791 0.0661613 -0.164497 -0.984156 
0.0853891 -0.221708 -0.971367 0.0569094 -0.337176 -0.93972 -0.0150628 -0.362291 -0.931943 
-0.0613079 -0.372338 -0.92607 -0.0348896 -0.322561 -0.945906 -0.0507801 -0.322647 -0.945156 
-0.0159544 -0.359058 -0.933179 0.0974458 -0.403615 -0.909725 0.249375 -0.459037 -0.8527 
0.442878 -0.483391 -0.755111 -0.336421 -0.0699124 -0.939113 -0.160442 -0.112321 -0.980634 
0.00180017 -0.0256913 -0.999668 0.061097 0.0196752 -0.997938 0.0566752 0.0665176 -0.996174 
-0.0245125 -0.00296079 -0.999695 -0.0426178 -0.100022 -0.994072 -0.021123 -0.0923129 -0.995506 
-0.00627348 -0.159902 -0.987113 -0.00376966 -0.0219047 -0.999753 -0.0635858 -0.0627412 -0.996002 
-0.0851709 -0.0896637 -0.992324 0.0598117 -0.14114 -0.988181 0.17641 -0.147026 -0.973274 
0.504412 -0.251627 -0.825986 -0.331076 -0.0450873 -0.942526 -0.130899 -0.03744 -0.990689 
0.0615562 0.0129677 -0.998019 0.12511 0.0272322 -0.991769 0.0529064 0.0773859 -0.995596 
-0.0937652 -0.0609366 -0.993728 -0.0331607 -0.0498908 -0.998204 -0.0875163 0.0390933 -0.995396 
0.0256864 -0.119378 -0.992517 0.0604469 0.113758 -0.991668 -0.133733 0.0228981 -0.990753 
-0.0797098 -0.0317647 -0.996312 0.0308295 0.0297255 -0.999083 0.091055 -0.0207109 -0.995631 
0.385355 -0.00791791 -0.922734 -0.312454 0.0431071 -0.948954 -0.109813 0.033601 -0.993384 
0.0643246 -0.000113529 -0.997929 0.132508 -0.00853642 -0.991145 -0.0117661 -0.0104599 -0.999876 
-0.217308 0.00825923 -0.976068 0.0848922 -0.00117831 -0.996389 -0.0815748 -0.0224898 -0.996413 
0.162312 0.057266 -0.985076 0.0621317 0.0207043 -0.997853 -0.207522 0.000117577 -0.97823 
-0.0808148 0.00677816 -0.996706 0.058189 0.0308755 -0.997828 0.155163 0.0626605 -0.9859 
0.484866 0.19262 -0.853113 -0.37768 0.140277 -0.915249 -0.171429 0.0992578 -0.980184 
0.0193571 0.021143 -0.999589 0.116176 -0.0347126 -0.992622 0.0739312 -0.0899933 -0.993195 
-0.0806169 0.0417273 -0.995871 -0.0607719 0.118442 -0.991099 -0.0366918 0.0281535 -0.99893 
0.046303 0.126082 -0.990939 0.0131138 -0.132831 -0.991052 -0.135085 -0.0348304 -0.990222 
-0.0485845 0.0507146 -0.997531 0.0849354 0.0561354 -0.994804 0.266719 0.204954 -0.94173 
0.666916 0.345867 -0.659999 -0.395594 0.297159 -0.869023 -0.199611 0.179316 -0.963328 
-0.0672457 0.0589714 -0.995992 0.0244697 -0.0248156 -0.999393 0.0489981 -0.106319 -0.993124 
0.0457086 -0.083311 -0.995475 0.0244102 -0.00881312 -0.999663 -0.0636992 -0.0210342 -0.997747 
-0.0717034 0.0179058 -0.997265 -0.0364618 -0.0530208 -0.997928 -0.0319859 0.0191794 -0.999304 
0.0161081 0.107427 -0.994082 0.22487 0.251943 -0.941253 0.437317 0.419875 -0.795273 
-0.342482 0.328074 -0.880383 -0.18123 0.221683 -0.95813 -0.0497341 0.0952989 -0.994206 
0.00819172 0.0497843 -0.998726 0.0265591 0.0101741 -0.999595 0.00661911 -0.00627705 -0.999958 
-0.012759 -0.0313688 -0.999426 0.00157164 0.0194921 -0.999809 0.0218685 0.119623 -0.992579 
0.0321822 0.229996 -0.972659 0.165215 0.355098 -0.920114 0.369838 0.513886 -0.774042 
-0.291357 0.536606 -0.791938 -0.163168 0.49077 -0.855875 -0.0409136 0.443856 -0.895164 
-0.0171753 0.403465 -0.914834 -0.0329635 0.318889 -0.947219 -0.0319392 0.246038 -0.968734 
0.0833414 0.269637 -0.959349 0.178178 0.422877 -0.888497 0.249924 0.576364 -0.778037 
-0.0374746 0.707466 -0.705753 -0.281372 -0.592792 -0.754604 -0.0312134 -0.679608 -0.732911 
0.0957409 -0.658787 -0.746213 0.142706 -0.678464 -0.72064 -0.3477 -0.513431 -0.784534 
-0.391106 -0.42874 -0.814382 -0.472965 -0.617584 -0.628406 0.148955 -0.655755 -0.740134 
0.14962 -0.649817 -0.74522 0.150625 -0.665007 -0.73149 0.0869552 -0.594986 -0.799019 
0.0981418 -0.752622 -0.651097 0.00949344 -0.594764 -0.803844 0.0434812 -0.809551 -0.585438 
-0.045442 -0.654446 -0.754742 0.000407992 -0.870635 -0.491929 -0.0416537 -0.706882 -0.706104 
-0.0366129 -0.885447 -0.463295 -0.0156307 -0.710492 -0.703532 -0.0191443 -0.843996 -0.536008 
0.0459934 -0.726989 -0.685107 0.055654 -0.850385 -0.523209 0.106466 -0.735469 -0.669141 
0.123696 -0.896356 -0.425728 0.253146 -0.674062 -0.693943 0.243055 -0.959828 -0.140195 
0.456039 -0.497422 -0.73797 -0.502956 -0.309403 -0.807035 -0.721392 -0.330842 -0.608389 
0.47676 -0.491197 -0.728989 -0.521794 -0.0888238 -0.848434 -0.617862 -0.101322 -0.779731 
0.621168 -0.238338 -0.746556 0.850553 -0.304015 -0.429108 -0.552811 -0.0513031 -0.831726 
-0.600073 -0.0494524 -0.798415 0.669367 0.0303867 -0.74231 0.71435 0.0383746 -0.698735 
-0.5722 0.0781325 -0.816384 -0.609526 0.0841882 -0.788284 0.661287 0.246113 -0.70861 
0.93751 0.331183 -0.106737 -0.548136 0.149928 -0.822842 -0.68944 0.161723 -0.706058 
0.690813 0.353245 -0.630868 0.687342 0.372272 -0.623678 -0.480416 0.312351 -0.819535 
-0.76641 0.359645 -0.532232 -0.461136 0.378139 -0.802724 0.563589 0.490037 -0.665005 
0.518196 0.542022 -0.661577 -0.468667 0.409848 -0.782544 -0.609404 0.534558 -0.585555 
-0.404775 0.507832 -0.760436 0.282641 0.64748 -0.707732 0.475342 0.584899 -0.657224 
0.406982 0.605657 -0.683773 0.68488 0.71081 -0.160278 -0.338596 0.581523 -0.739719 
-0.482581 0.742571 -0.46444 -0.298684 0.604367 -0.738599 -0.153064 0.692971 -0.70453 
-0.0595249 0.736691 -0.673605 -0.0847542 0.737826 -0.669649 -0.14665 0.719086 -0.679271 
0.177546 0.686722 -0.704905 0.245323 0.621054 -0.744385 0.287697 0.647418 -0.705748 
0.274378 0.63474 -0.722372 0.340107 0.764996 -0.546908 -0.142528 0.964736 -0.221292 
-0.0247224 0.97527 -0.219631 -0.118383 0.964225 -0.237184 -0.057877 0.725448 -0.685839 
-0.183175 0.844693 -0.502932 0.0402347 0.716381 -0.696548 -0.0383635 0.718225 -0.694753 
0.182965 0.734964 -0.652956 0.308379 0.848313 -0.430427 -0.476417 -0.844828 -0.2435 
-0.217547 -0.965171 -0.145323 -0.0310765 -0.994485 -0.100172 0.105752 -0.98328 -0.148246 
0.207809 -0.965171 -0.158935 0.159184 -0.969911 -0.184211 0.095839 -0.964759 -0.24506 
0.0830017 -0.965163 -0.248134 0.05152 -0.986345 -0.156429 -0.0280055 -0.995509 -0.0904324 
-0.0303102 -0.993678 -0.108098 0.0242266 -0.994313 -0.103702 0.150083 -0.972548 -0.177834 
0.242466 -0.964329 -0.106208 -0.642376 -0.713502 -0.279764 -0.748937 -0.59914 -0.283061 
0.266974 -0.957243 -0.111405 0.249441 -0.968288 -0.0140808 0.540059 -0.825766 -0.162623 
-0.852886 -0.411513 -0.321313 0.749715 -0.635767 -0.183649 0.866976 -0.466369 -0.17565 
-0.897128 -0.248529 -0.365232 0.946822 -0.28154 -0.155769 -0.926959 -0.0278866 -0.374124 
-0.994491 -0.059017 0.0866302 0.986059 0.0960116 -0.135906 -0.92016 0.127716 -0.370127 
-0.986731 0.12305 -0.105926 0.941591 0.330784 -0.0631604 0.936342 0.345897 -0.0601666 
0.93986 0.34154 -0.00355732 -0.864146 0.292993 -0.409155 0.858677 0.507759 -0.0696725 
0.820065 0.571695 -0.0256423 -0.856418 0.42272 -0.296405 -0.806301 0.514641 -0.291588 
0.813779 0.580536 -0.0272278 -0.719676 0.624077 -0.304294 -0.658919 0.698102 -0.280142 
0.553763 0.807308 -0.203961 0.697453 0.710904 -0.0904114 0.68849 0.718898 -0.0957426 
0.72203 0.690528 0.0429258 -0.575204 0.780982 -0.243328 -0.486046 0.84126 -0.236729 
-0.323442 0.926377 -0.192902 0.350955 0.891262 -0.287197 0.524491 0.823566 -0.215983 
0.377964 0.885766 -0.269373 -0.164756 0.968539 -0.186514 -0.144196 0.971266 -0.189338 
-0.131559 0.988217 0.0782321 -0.0203264 0.985224 -0.170059 -0.11834 0.980519 -0.156776 
-0.234303 0.955782 -0.177713 -0.1194 0.970211 -0.210793 0.166679 0.95237 -0.255361 
0.334633 0.898491 -0.284138 0.32399 0.900695 -0.289446 -0.456815 -0.855163 0.244984 
-0.194199 -0.928317 0.317041 -0.0224583 -0.965875 0.258034 0.12212 -0.941212 0.314971 
0.170469 -0.933865 0.314382 0.0946087 -0.954491 0.282835 0.0562076 -0.972722 0.225063 
0.131528 -0.970387 0.202606 0.141995 -0.955914 0.257031 0.00546293 -0.946273 0.323322 
-0.0348887 -0.944525 0.326581 -0.0132872 -0.967911 0.250943 0.112522 -0.94854 0.295992 
-0.620368 -0.721854 0.306708 -0.704296 -0.649721 0.286059 -0.466225 -0.62759 0.623511 
0.120758 -0.708307 0.695499 0.0499623 -0.765128 0.641937 0.000306173 -0.74934 0.662185 
0.0979751 -0.828763 0.550956 0.147663 -0.913904 0.37812 0.0119543 -0.930584 0.365883 
-0.0593771 -0.904045 0.423294 -0.0171953 -0.928329 0.371361 0.223203 -0.939989 0.258072 
0.130687 -0.896065 0.424251 0.2637 -0.930723 0.253412 0.548067 -0.764736 0.338824 
-0.854678 -0.485862 0.182931 -0.667403 -0.533586 0.51948 0.725431 -0.643977 0.242988 
0.485848 -0.679703 0.549504 0.89579 -0.325449 0.302726 -0.931541 -0.2572 0.257058 
-0.97469 -0.0881868 0.205435 0.915497 -0.236399 0.325545 0.899944 -0.222149 0.375167 
-0.978508 -0.0650796 0.195669 -0.975951 -0.0667935 0.207507 0.933515 0.103905 0.343151 
0.880273 0.284291 0.379866 0.849319 0.128633 0.511968 -0.978827 0.108043 0.173849 
-0.974376 0.139856 0.176159 -0.971871 0.107482 0.209556 0.841243 0.38336 0.381241 
-0.937703 0.313392 0.149997 0.760434 0.507177 0.4056 0.741878 0.547283 0.387425 
0.70928 0.508326 0.488392 -0.862368 0.479417 0.162732 -0.80644 0.565166 0.173904 
-0.741604 0.469583 0.479078 0.752014 0.53583 0.383877 0.741371 0.599181 0.302244 
0.679526 0.415565 0.604607 -0.733152 0.658106 0.171417 -0.644294 0.744674 0.174201 
0.73569 0.616438 0.280651 0.606008 0.776875 0.170938 -0.565673 0.804169 0.182555 
-0.475886 0.860546 0.181637 -0.473474 0.769118 0.429279 -0.309345 0.939061 0.149897 
-0.124272 0.975256 0.182843 0.362359 0.931888 0.0167806 0.576647 0.804751 0.140901 
0.456699 0.888413 0.0463375 -0.0823477 0.982228 0.168661 -0.0285787 0.988143 0.150852 
-0.0304773 0.985149 0.168978 -0.125671 0.981854 0.142019 -0.123095 0.973137 0.194555 
-0.249466 0.956033 0.154168 -0.214137 0.877207 0.429712 -0.140949 0.978701 0.149258 
0.104616 0.987779 0.115531 0.353978 0.935091 0.0174213 0.296509 0.9543 0.0373396 
-0.17284 -0.677909 0.714539 -0.00921751 -0.662932 0.748623 0.097773 -0.708847 0.698553 
-0.290873 -0.60993 0.737142 -0.423371 -0.509702 0.748973 -0.192662 -0.616224 0.763643 
-0.0057402 -0.584079 0.811676 0.120747 -0.708289 0.695519 0.084244 -0.658143 0.748165 
0.120756 -0.708283 0.695523 0.0492055 -0.672929 0.738069 -0.0146961 -0.65652 0.754165 
0.0692401 -0.752846 0.654544 0.131394 -0.788102 0.601358 0.0543445 -0.775985 0.628406 
-0.0805452 -0.765358 0.638545 -0.019678 -0.818837 0.573689 0.146857 -0.76108 0.631815 
0.298062 -0.685631 0.66413 -0.552084 -0.482161 0.680238 -0.590861 -0.397857 0.70185 
-0.294329 -0.406912 0.86475 -0.141725 -0.300364 0.943237 -0.0680491 -0.292837 0.953738 
0.0244883 -0.323621 0.94587 0.0927844 -0.377926 0.921175 0.0937629 -0.431296 0.897325 
-0.0491 -0.39193 0.918684 -0.0729478 -0.444793 0.892658 0.0525325 -0.530634 0.845972 
0.0262767 -0.603847 0.796667 -0.050274 -0.630653 0.774435 -0.00768902 -0.60333 0.797455 
0.125604 -0.619536 0.774854 0.37122 -0.63891 0.673788 0.283487 -0.582631 0.761693 
0.496591 -0.515036 0.698667 -0.624623 -0.251923 0.739176 -0.54238 -0.239787 0.805187 
-0.30354 -0.16936 0.937646 -0.107158 -0.237134 0.965549 -0.0596987 -0.141194 0.98818 
-0.00548133 -0.116702 0.993152 0.0275981 -0.0916592 0.995408 0.0566874 -0.280942 0.958049 
-0.0333556 -0.385215 0.922224 -0.10628 -0.297265 0.948861 0.349681 -0.272825 0.896264 
0.674977 -0.187314 0.713666 0.547335 -0.209813 0.810187 -0.719481 -0.118261 0.68437 
-0.534256 -0.123351 0.836274 -0.308979 -0.0607266 0.949128 0.071164 -0.0455318 0.996425 
-0.0744896 -0.000362668 0.997222 0.375302 -0.00767885 0.926871 0.694416 0.115437 0.710254 
0.589163 0.0961622 0.802272 -0.752256 0.0794623 0.654062 -0.528533 0.0506427 0.847401 
-0.315112 -0.00329797 0.949049 -0.0844436 -0.123943 0.98869 0.49996 0.206284 0.841123 
0.666199 0.315688 0.675662 0.659588 0.345494 0.667516 0.643351 0.302729 0.703174 
-0.729579 0.276958 0.625307 -0.671887 0.391416 0.628778 -0.617102 0.257454 0.743574 
-0.376033 0.0839004 0.9228 0.655469 0.421841 0.626427 0.664278 0.40048 0.63115 
0.581672 0.35892 0.729955 -0.639495 0.434613 0.634159 -0.466629 0.289932 0.835582 
-0.228119 0.254847 0.939689 0.666949 0.401907 0.627415 0.551688 0.307406 0.775333 
-0.575072 0.569197 0.587628 -0.570775 0.57228 0.588822 -0.564896 0.566975 0.599526 
-0.443176 0.678183 0.586227 -0.363938 0.439086 0.821433 -0.213311 0.338637 0.916419 
0.675201 0.485782 0.555085 0.66024 0.535563 0.52655 0.644861 0.468467 0.603898 
-0.400912 0.707181 0.582378 -0.311112 0.740143 0.596152 -0.293847 0.646107 0.704414 
-0.139913 0.822235 0.551683 -0.156848 0.581836 0.798038 -0.0599242 0.845831 0.530075 
-0.0525901 0.566251 0.822553 -0.108311 0.854628 0.507819 -0.0719858 0.522723 0.849458 
-0.204135 0.847756 0.489528 -0.106054 0.458133 0.882534 -0.109267 0.381922 0.917712 
0.354414 0.853516 0.381971 0.223332 0.541419 0.810548 0.569339 0.705273 0.422425 
0.502293 0.772919 0.387682 0.480496 0.675083 0.559809 -0.195928 0.851971 0.485548 
-0.155915 0.851534 0.500581 -0.148462 0.778291 0.610101 0.0435166 0.877698 0.477234 
0.0327992 0.768498 0.639011 0.279102 0.877228 0.390606 0.227781 0.882168 0.412185 
0.214624 0.842841 0.493514 -0.0117467 -0.280722 0.959717 -0.0300388 -0.32705 0.94453 
-0.0891264 -0.408542 0.908378 -0.0138702 -0.450458 0.89269 0.160927 -0.382549 0.909813 
-0.127432 -0.177087 0.97591 0.0306596 -0.108238 0.993652 -0.0566628 -0.241021 0.968864 
-0.0488978 -0.316071 0.947475 -0.0650118 -0.281124 0.957467 -0.0922212 -0.283201 0.954617 
-0.0156394 -0.261329 0.965123 -0.0304928 -0.324661 0.945339 -0.101547 -0.357772 0.928271 
-0.00493449 -0.352348 0.935856 0.258425 -0.280065 0.924543 0.176398 -0.29309 0.939671 
-0.18203 -0.120874 0.975835 -0.140547 -0.142355 0.979787 0.0620531 -0.0805022 0.994821 
0.0578066 -0.0990104 0.993406 0.0814453 -0.0809649 0.993384 -0.144644 -0.0846891 0.985853 
-0.216664 -0.179672 0.95957 -0.0511117 -0.186789 0.98107 0.0379975 -0.151031 0.987799 
-0.00483759 -0.157968 0.987432 -0.108877 -0.221726 0.969011 -0.0913635 -0.228392 0.969273 
0.0502528 -0.159906 0.985852 0.374666 -0.00796952 0.927126 0.21119 -0.0871545 0.973552 
-0.218972 -0.0197823 0.975531 -0.148656 -0.0190742 0.988705 0.0328534 -0.116174 0.992685 
0.0155067 -0.123873 0.992177 0.0918089 -0.122728 0.988185 -0.102958 -0.105865 0.989036 
-0.0540189 -0.125188 0.990661 -0.152682 -0.0164147 0.988139 -0.0244856 -0.045044 0.998685 
-0.0663709 -0.110734 0.991631 -0.0798674 -0.0327629 0.996267 -0.121173 -0.0784366 0.989528 
-0.0471172 -0.0767201 0.995939 0.139005 -0.0104512 0.990237 0.443384 0.156127 0.882629 
0.326687 0.0846627 0.941333 -0.280937 0.0685557 0.957275 -0.226113 0.20842 0.951543 
-0.22971 0.072357 0.970566 -0.0508717 -0.0151888 0.99859 0.0687089 -0.0713468 0.995082 
0.00673328 -0.123105 0.992371 -0.114596 0.0373947 0.992708 -0.148835 -0.0661027 0.98665 
0.0548472 -0.065917 0.996317 0.0254008 0.0705788 0.997183 -0.162626 0.0398927 0.985881 
-0.0202973 0.0608201 0.997942 0.212366 0.113257 0.970605 0.449125 0.232218 0.862764 
0.485896 0.251244 0.837127 0.418993 0.197886 0.886164 -0.19983 0.230278 0.952386 
-0.190567 0.293667 0.93672 -0.111014 0.151171 0.982254 -0.0183331 0.0647942 0.99773 
0.0122913 0.0166113 0.999786 -0.0823793 0.0594107 0.994829 -0.129848 0.0896394 0.987474 
0.076431 0.105743 0.991452 0.0260527 0.0212194 0.999435 -0.145253 0.0533972 0.987953 
0.0267584 0.149861 0.988345 0.481841 0.274759 0.832068 0.274972 0.198342 0.940771 
-0.15309 0.300363 0.941459 -0.0795559 0.29414 0.952446 -0.0666255 0.246816 0.966769 
-0.0136049 0.290014 0.956926 -0.000628888 0.213684 0.976903 -0.0481491 0.249679 0.967131 
-0.0443601 0.180306 0.98261 -0.101742 0.346312 0.932586 -0.106032 0.233627 0.966528 
-0.105942 0.372852 0.921823 -0.0178034 0.199908 0.979653 -0.0225285 0.0634982 0.997728 
-0.0210637 0.159373 0.986994 0.180285 0.436332 0.881539 0.128503 0.28736 0.949164 
0.382687 0.354242 0.853266 0.371294 0.366526 0.853112 0.365914 0.348624 0.862884 
-0.0983886 0.373857 0.922253 -0.00609666 0.378674 0.92551 -0.0154782 0.320769 0.947031 
0.118639 0.442738 0.888768 0.110615 0.442075 0.890132 0.108392 0.435622 0.89358 

