# vtk DataFile Version 4.2
vtk output
ASCII
DATASET POLYDATA
POINTS 510 float
15.9269 -32.8284 -16.3427 23.1596 -32.8284 -16.0885 -13.0036 -25.5958 -16.2543 
-5.77096 -25.5958 -17.0174 1.46167 -25.5958 -17.2272 8.6943 -25.5958 -18.6262 
15.9269 -25.5958 -20.0884 23.1596 -25.5958 -20.1851 30.3922 -25.5958 -19.3431 
-20.2362 -18.3631 -16.9343 -13.0036 -18.3631 -19.1809 -5.77096 -18.3631 -19.7295 
1.46167 -18.3631 -19.0615 8.6943 -18.3631 -20.0678 15.9269 -18.3631 -21.1455 
23.1596 -18.3631 -21.7786 30.3922 -18.3631 -21.7083 37.6248 -18.3631 -20.0095 
-34.7015 -11.1305 -16.2196 -27.4689 -11.1305 -16.562 -20.2362 -11.1305 -17.4845 
-13.0036 -11.1305 -19.8561 -5.77096 -11.1305 -20.3866 1.46167 -11.1305 -18.9542 
8.6943 -11.1305 -19.9268 15.9269 -11.1305 -21.1817 23.1596 -11.1305 -22.2885 
30.3922 -11.1305 -22.6641 37.6248 -11.1305 -21.7868 44.8575 -11.1305 -17.7067 
-27.4689 -3.89786 -16.8476 -20.2362 -3.89786 -17.2421 -13.0036 -3.89786 -19.2892 
-5.77096 -3.89786 -19.557 1.46167 -3.89786 -18.5081 8.6943 -3.89786 -20.6311 
15.9269 -3.89786 -21.2145 23.1596 -3.89786 -22.4911 30.3922 -3.89786 -23.2166 
37.6248 -3.89786 -22.7814 44.8575 -3.89786 -19.4914 -27.4689 3.33477 -16.9806 
-20.2362 3.33477 -17.6368 -13.0036 3.33477 -20.0606 -5.77096 3.33477 -19.879 
1.46167 3.33477 -19.8779 8.6943 3.33477 -21.1102 15.9269 3.33477 -21.0216 
23.1596 3.33477 -22.3305 30.3922 3.33477 -23.192 37.6248 3.33477 -22.6748 
44.8575 3.33477 -19.3151 -27.4689 10.5674 -17.2109 -20.2362 10.5674 -18.589 
-13.0036 10.5674 -19.6206 -5.77096 10.5674 -19.2957 1.46167 10.5674 -19.0907 
8.6943 10.5674 -19.5292 15.9269 10.5674 -20.4028 23.1596 10.5674 -22.0332 
30.3922 10.5674 -22.7696 37.6248 10.5674 -21.2686 44.8575 10.5674 -16.8398 
-27.4689 17.8 -17.3732 -20.2362 17.8 -18.8381 -13.0036 17.8 -19.2559 
-5.77096 17.8 -19.538 1.46167 17.8 -19.7388 8.6943 17.8 -20.0857 
15.9269 17.8 -20.4495 23.1596 17.8 -20.3969 30.3922 17.8 -20.3397 
37.6248 17.8 -18.4141 -27.4689 25.0327 -16.2744 -20.2362 25.0327 -17.6234 
-13.0036 25.0327 -18.3261 -5.77096 25.0327 -18.8123 1.46167 25.0327 -19.8205 
8.6943 25.0327 -19.8292 15.9269 25.0327 -19.5939 23.1596 25.0327 -18.5738 
30.3922 25.0327 -17.3031 -5.77096 32.2653 -16.2694 1.46167 32.2653 -17.4986 
8.6943 32.2653 -17.8033 15.9269 32.2653 -16.5364 15.9269 -33.1426 -16.0376 
23.1596 -32.8836 -16.0376 -13.0036 -25.9156 -16.0376 -13.0036 -32.8284 -9.91319 
-5.77096 -27.1835 -16.0376 -5.77096 -32.8284 -11.6551 1.46167 -27.8457 -16.0376 
1.46167 -32.8284 -12.7109 14.4555 -32.8284 -16.0376 8.6943 -30.8192 -16.0376 
8.6943 -32.8284 -14.613 23.3232 -32.8284 -16.0376 30.3922 -29.9579 -16.0376 
30.3922 -32.8284 -12.3551 -27.4689 -25.5958 -11.5558 -13.7361 -25.5958 -16.0376 
-20.2362 -20.7845 -16.0376 -20.2362 -25.5958 -13.9293 36.4148 -25.5958 -16.0376 
37.6248 -24.6359 -16.0376 37.6248 -25.5958 -14.6164 -41.9341 -18.3631 -9.83108 
-34.7015 -11.6992 -16.0376 -34.7015 -18.3631 -13.4075 -24.4466 -18.3631 -16.0376 
-27.4689 -14.4866 -16.0376 -27.4689 -18.3631 -15.3797 42.6814 -18.3631 -16.0376 
44.8575 -14.4691 -16.0376 44.8575 -18.3631 -9.73798 -35.119 -11.1305 -16.0376 
-41.9341 -11.1305 -12.2103 -34.7015 -6.87825 -16.0376 46.3669 -11.1305 -16.0376 
-41.9341 -3.89786 -13.1286 -33.6355 -3.89786 -16.0376 -34.7015 -3.89786 -15.9047 
48.1217 -3.89786 -16.0376 -41.9341 3.33477 -12.5807 -33.2377 3.33477 -16.0376 
-34.7015 3.33477 -15.8052 47.8317 3.33477 -16.0376 -41.9341 10.5674 -11.0673 
-32.1509 10.5674 -16.0376 -34.7015 10.5674 -15.3702 45.5558 10.5674 -16.0376 
44.8575 11.8873 -16.0376 -31.6893 17.8 -16.0376 -34.7015 17.8 -14.8883 
40.7072 17.8 -16.0376 37.6248 20.8347 -16.0376 -27.9721 25.0327 -16.0376 
-34.7015 25.0327 -11.544 -27.4689 25.4581 -16.0376 -20.2362 28.9261 -16.0376 
-13.0036 30.5184 -16.0376 23.1596 29.4988 -16.0376 32.4653 25.0327 -16.0376 
30.3922 26.5296 -16.0376 -27.4689 32.2653 -10.2746 -20.2362 32.2653 -13.9474 
-7.45935 32.2653 -16.0376 -13.0036 32.2653 -15.1713 -5.77096 32.6296 -16.0376 
1.46167 34.3953 -16.0376 8.6943 34.8851 -16.0376 17.4777 32.2653 -16.0376 
15.9269 32.9361 -16.0376 23.1596 32.2653 -13.4419 -5.77096 39.4979 -9.75878 
1.46167 39.4979 -11.4045 8.6943 39.4979 -11.3984 15.9269 39.4979 -8.80627 
-13.0036 -33.7522 -8.80501 -5.77096 -35.3344 -8.80501 1.46167 -36.4059 -8.80501 
8.6943 -37.4281 -8.80501 15.9269 -38.085 -8.80501 23.1596 -37.4904 -8.80501 
30.3922 -34.9766 -8.80501 -27.4689 -28.4962 -8.80501 -27.4689 -32.8284 -1.61134 
-15.9269 -32.8284 -8.80501 -20.2362 -31.303 -8.80501 -20.2362 -32.8284 -6.55489 
33.1366 -32.8284 -8.80501 37.6248 -28.792 -8.80501 -41.9341 -19.5125 -8.80501 
-34.057 -25.5958 -8.80501 -34.7015 -25.2413 -8.80501 -34.7015 -25.5958 -8.38234 
40.5288 -25.5958 -8.80501 44.8575 -18.8258 -8.80501 -42.8546 -18.3631 -8.80501 
45.1101 -18.3631 -8.80501 44.8575 -18.3631 -7.68527 -46.1808 -11.1305 -8.80501 
-49.1668 -11.1305 -2.24959 48.1145 -11.1305 -8.80501 -46.7759 -3.89786 -8.80501 
-49.1668 -3.89786 -2.21071 49.6813 -3.89786 -8.80501 -45.8574 3.33477 -8.80501 
49.3496 3.33477 -8.80501 -44.0783 10.5674 -8.80501 -41.9341 17.0122 -8.80501 
47.3197 10.5674 -8.80501 44.8575 15.3263 -8.80501 -41.6459 17.8 -8.80501 
-41.9341 17.8 -7.85176 43.3789 17.8 -8.80501 37.6248 24.5629 -8.80501 
-37.2561 25.0327 -8.80501 -34.7015 28.1084 -8.80501 37.1077 25.0327 -8.80501 
30.3922 30.7644 -8.80501 -29.4237 32.2653 -8.80501 -27.4689 33.4931 -8.80501 
-20.2362 36.4136 -8.80501 -13.0036 38.6311 -8.80501 28.2712 32.2653 -8.80501 
23.1596 35.7142 -8.80501 -9.13888 39.4979 -8.80501 -13.0036 39.4979 -6.91758 
-5.77096 40.2042 -8.80501 1.46167 41.4946 -8.80501 8.6943 41.3353 -8.80501 
15.9287 39.4979 -8.80501 15.9269 39.4987 -8.80501 -27.4689 -32.8486 -1.57238 
-20.2362 -35.4224 -1.57238 -13.0036 -37.4451 -1.57238 -5.77096 -38.6721 -1.57238 
1.46167 -39.5142 -1.57238 8.6943 -39.9112 -1.57238 15.9269 -39.8891 -1.57238 
23.1596 -38.5897 -1.57238 30.3922 -35.0889 -1.57238 -27.519 -32.8284 -1.57238 
-34.7015 -29.7642 -1.57238 33.2658 -32.8284 -1.57238 30.3922 -32.8284 4.2067 
37.6248 -28.152 -1.57238 -41.057 -25.5958 -1.57238 -41.9341 -24.8469 -1.57238 
-41.9341 -25.5958 1.79795 39.5157 -25.5958 -1.57238 37.6248 -25.5958 1.5213 
-46.7843 -18.3631 -1.57238 -49.1668 -11.821 -1.57238 43.3361 -18.3631 -1.57238 
44.8575 -14.7278 -1.57238 -49.393 -11.1305 -1.57238 -49.1668 -11.1305 2.02185 
46.1625 -11.1305 -1.57238 44.8575 -11.1305 0.641229 -49.3496 -3.89786 -1.57238 
-49.1668 -2.74306 -1.57238 -49.1668 -3.89786 -0.325047 47.6584 -3.89786 -1.57238 
44.8575 -3.89786 2.79493 -48.1813 3.33477 -1.57238 47.4786 3.33477 -1.57238 
44.8575 3.33477 2.6903 -46.3395 10.5674 -1.57238 45.6014 10.5674 -1.57238 
44.8575 12.253 -1.57238 44.8575 10.5674 -0.155377 -43.4281 17.8 -1.57238 
-41.9341 20.5839 -1.57238 -41.9341 17.8 3.95122 42.1508 17.8 -1.57238 
37.6248 24.1328 -1.57238 -39.1861 25.0327 -1.57238 -34.7015 30.2172 -1.57238 
36.9247 25.0327 -1.57238 30.3922 31.8533 -1.57238 -32.2345 32.2653 -1.57238 
-27.4689 35.5601 -1.57238 -20.2362 39.0226 -1.57238 29.9452 32.2653 -1.57238 
23.1596 37.8191 -1.57238 -18.9105 39.4979 -1.57238 -13.0036 41.5451 -1.57238 
-5.77096 43.5226 -1.57238 1.46167 44.5517 -1.57238 8.6943 44.1023 -1.57238 
20.4132 39.4979 -1.57238 15.9269 41.9257 -1.57238 -27.4689 -34.5968 5.66026 
-20.2362 -36.7294 5.66026 -13.0036 -38.2761 5.66026 -5.77096 -39.1306 5.66026 
1.46167 -39.7725 5.66026 8.6943 -39.8737 5.66026 15.9269 -39.4002 5.66026 
23.1596 -37.3617 5.66026 -41.9341 -26.2976 5.66026 -31.9641 -32.8284 5.66026 
-34.7015 -31.6265 5.66026 29.6436 -32.8284 5.66026 30.3922 -31.9807 5.66026 
-42.6058 -25.5958 5.66026 -41.9341 -25.5958 7.70965 34.9537 -25.5958 5.66026 
30.3922 -25.5958 11.0081 37.6248 -19.9828 5.66026 -46.8928 -18.3631 5.66026 
38.4078 -18.3631 5.66026 37.6248 -18.3631 6.4733 -48.9408 -11.1305 5.66026 
40.9968 -11.1305 5.66026 37.6248 -11.1305 8.66864 -48.2657 -3.89786 5.66026 
42.4738 -3.89786 5.66026 37.6248 -3.89786 10.0089 -46.9238 3.33477 5.66026 
42.4909 3.33477 5.66026 37.6248 3.33477 10.1685 -44.9081 10.5674 5.66026 
-41.9341 16.7536 5.66026 -41.9341 10.5674 11.2671 41.162 10.5674 5.66026 
37.6248 10.5674 9.3219 -41.3941 17.8 5.66026 38.2005 17.8 5.66026 
37.6248 18.8334 5.66026 37.6248 17.8 6.37598 -36.7988 25.0327 5.66026 
-34.7015 27.4718 5.66026 -34.7015 25.0327 8.22434 34.0945 25.0327 5.66026 
30.3922 30.0146 5.66026 30.3922 25.0327 10.7696 -29.3369 32.2653 5.66026 
-27.4689 33.5884 5.66026 -27.4689 32.2653 7.41608 -20.2362 38.1192 5.66026 
-20.2362 32.2653 12.5537 28.6957 32.2653 5.66026 23.1596 37.4535 5.66026 
-17.6646 39.4979 5.66026 -13.0036 41.6228 5.66026 -13.0036 39.4979 9.73166 
-5.77096 43.695 5.66026 -5.77096 39.4979 12.4928 1.46167 44.4889 5.66026 
8.6943 44.0158 5.66026 19.9735 39.4979 5.66026 15.9269 41.7865 5.66026 
15.9269 39.4979 10.0686 -27.4689 -33.193 12.8929 -20.2362 -35.0409 12.8929 
-13.0036 -36.1588 12.8929 -5.77096 -36.6814 12.8929 1.46167 -37.2289 12.8929 
8.6943 -37.3099 12.8929 15.9269 -36.4881 12.8929 23.1596 -33.3499 12.8929 
-28.3632 -32.8284 12.8929 -34.7015 -29.8813 12.8929 -27.4689 -32.8284 13.4963 
-20.2362 -32.8284 16.0174 -13.0036 -32.8284 17.0117 -5.77096 -32.8284 17.0862 
1.46167 -32.8284 17.63 8.6943 -32.8284 18.121 15.9269 -32.8284 17.0881 
23.7955 -32.8284 12.8929 23.1596 -32.8284 13.449 -39.8632 -25.5958 12.8929 
-41.9341 -23.0283 12.8929 -34.7015 -25.5958 17.5455 28.6243 -25.5958 12.8929 
23.1596 -25.5958 17.4738 30.3922 -20.1018 12.8929 -44.5794 -18.3631 12.8929 
-41.9341 -18.3631 16.9498 23.1596 -18.3631 18.3573 30.9502 -18.3631 12.8929 
30.3922 -18.3631 13.3572 -46.0566 -11.1305 12.8929 -41.9341 -11.1305 17.7859 
23.1596 -11.1305 17.9159 31.8039 -11.1305 12.8929 30.3922 -11.1305 13.8101 
-45.4035 -3.89786 12.8929 -41.9341 -3.89786 17.3157 23.1596 -3.89786 17.2046 
32.2046 -3.89786 12.8929 30.3922 -3.89786 13.7777 -43.866 3.33477 12.8929 
-41.9341 8.3435 12.8929 -41.9341 3.33477 15.3768 15.9269 3.33477 19.6573 
23.1596 3.33477 17.1496 33.2907 3.33477 12.8929 30.3922 3.33477 14.4851 
[...]
POINT_DATA 510
SCALARS ImageScalars float
LOOKUP_TABLE default
0 0 0 0 0 0 0 0 0 
0 0 0 0 0 0 0 0 0 
0 0 0 0 0 0 0 0 0 
0 0 0 0 0 0 0 0 0 
0 0 0 0 0 0 0 0 0 
0 0 0 0 0 0 0 0 0 
0 0 0 0 0 0 0 0 0 
0 0 0 0 0 0 0 0 0 
0 0 0 0 0 0 0 0 0 
0 0 0 0 0 0 0 0 0 
0 0 0 0 0 0 0 0 0 
0 0 0 0 0 0 0 0 0 
0 0 0 0 0 0 0 0 0 
0 0 0 0 0 0 0 0 0 
0 0 0 0 0 0 0 0 0 
0 0 0 0 0 0 0 0 0 
0 0 0 0 0 0 0 0 0 
0 0 0 0 0 0 0 0 0 
0 0 0 0 0 0 0 0 0 
0 0 0 0 0 0 0 0 0 
0 0 0 0 0 0 0 0 0 
0 0 0 0 0 0 0 0 0 
0 0 0 0 0 0 0 0 0 
0 0 0 0 0 0 0 0 0 
0 0 0 0 0 0 0 0 0 
0 0 0 0 0 0 0 0 0 
0 0 0 0 0 0 0 0 0 
0 0 0 0 0 0 0 0 0 
0 0 0 0 0 0 0 0 0 
0 0 0 0 0 0 0 0 0 
0 0 0 0 0 0 0 0 0 
0 0 0 0 0 0 0 0 0 
0 0 0 0 0 0 0 0 0 
0 0 0 0 0 0 0 0 0 
0 0 0 0 0 0 0 0 0 
0 0 0 0 0 0 0 0 0 
0 0 0 0 0 0 0 0 0 
0 0 0 0 0 0 0 0 0 
0 0 0 0 0 0 0 0 0 
0 0 0 0 0 0 0 0 0 
0 0 0 0 0 0 0 0 0 
0 0 0 0 0 0 0 0 0 
0 0 0 0 0 0 0 0 0 
0 0 0 0 0 0 0 0 0 
0 0 0 0 0 0 0 0 0 
0 0 0 0 0 0 0 0 0 
0 0 0 0 0 0 0 0 0 
0 0 0 0 0 0 0 0 0 
0 0 0 0 0 0 0 0 0 
0 0 0 0 0 0 0 0 0 
0 0 0 0 0 0 0 0 0 
0 0 0 0 0 0 0 0 0 
0 0 0 0 0 0 0 0 0 
0 0 0 0 0 0 0 0 0 
0 0 0 0 0 0 0 0 0 
0 0 0 0 0 0 0 0 0 
0 0 0 0 0 0 
NORMALS Normals float
0.0734973 0.653453 0.753391 -0.146503 0.670156 0.727618 0.17938 0.492695 0.851513 
0.059847 0.460213 0.885789 0.107196 0.369859 0.922883 0.185936 0.315798 0.93043 
0.105945 0.286581 0.95218 -0.0414974 0.341458 0.938981 -0.271304 0.464354 0.843072 
0.246883 0.206446 0.946799 0.185103 0.224083 0.95683 -0.0107075 0.215242 0.976502 
0.0218811 0.112518 0.993409 0.145476 0.0877611 0.985462 0.114416 0.0692449 0.991017 
0.0385913 0.136703 0.98986 -0.111227 0.208396 0.971699 -0.404349 0.391106 0.826763 
0.253368 0.147063 0.956126 0.0863402 0.0929443 0.991921 0.223318 0.0185067 0.97457 
0.20071 0.0089218 0.97961 -0.0648231 -0.00846695 0.997861 -0.0281615 -0.0354736 0.998974 
0.152685 0.0378849 0.987548 0.163844 0.00475156 0.986475 0.106851 0.0503475 0.992999 
-0.0319727 0.0970675 0.994764 -0.284648 0.175675 0.942398 -0.725677 0.289895 0.623982 
0.0914842 0.0286642 0.995394 0.152654 0.0100973 0.988228 0.169968 0.0130247 0.985363 
-0.0518294 -0.0352695 0.998033 0.0817802 0.0621501 0.994711 0.174012 0.0803755 0.981458 
0.127753 -0.0109075 0.991746 0.136004 0.00292448 0.990704 0.0209504 0.0390454 0.999018 
-0.216222 0.0601233 0.974491 -0.65365 0.0952197 0.750783 0.123719 0.0248802 0.992005 
0.202439 0.0924714 0.974919 0.157989 0.0184781 0.987268 -0.0124221 -0.0197558 0.999728 
0.084755 0.0327374 0.995864 0.0757626 -0.0791669 0.993978 0.0845553 -0.0542998 0.994938 
0.147851 -0.0297564 0.988562 0.0215513 -0.0291769 0.999342 -0.211617 -0.0962519 0.972602 
-0.679808 -0.14791 0.71832 0.208536 0.0263033 0.977661 0.16304 0.0812642 0.983267 
0.0485455 -0.0539218 0.997364 -0.037018 -0.0226988 0.999057 0.0164824 -0.00610109 0.999846 
0.0878392 -0.065764 0.993961 0.165129 -0.0393402 0.985487 0.16028 -0.135591 0.977714 
-0.0503894 -0.193055 0.979893 -0.326785 -0.268309 0.906213 -0.744654 -0.371032 0.55482 
0.260921 -0.0634885 0.96327 0.128351 -0.0651874 0.989584 0.0488248 -0.0845947 0.995219 
0.0336444 -0.032591 0.998902 0.0370763 0.0501874 0.998051 0.0498586 0.0215442 0.998524 
0.0210519 -0.0522493 0.998412 -0.00744056 -0.2222 0.974973 -0.115079 -0.343463 0.932089 
-0.444905 -0.516522 0.731618 0.320739 -0.346236 0.881616 0.137503 -0.279631 0.95021 
0.0812368 -0.248618 0.965189 0.0977138 -0.20825 0.973182 0.0698308 -0.138275 0.987929 
-0.0144757 -0.148333 0.988832 -0.0840166 -0.233723 0.968666 -0.142916 -0.372485 0.916968 
-0.347551 -0.592267 0.726931 0.138991 -0.465916 0.873844 0.0996985 -0.455312 0.884732 
-0.0549608 -0.440889 0.895877 -0.221812 -0.51876 0.825644 0.0712165 0.668787 0.740035 
-0.146241 0.6724 0.725598 0.180461 0.502511 0.845527 0.216873 0.7596 0.613168 
0.0751329 0.505791 0.859378 0.137734 0.71308 0.68742 0.125493 0.449307 0.884519 
0.145297 0.665163 0.732425 0.0979009 0.648052 0.755277 0.193265 0.527802 0.827087 
0.184525 0.637038 0.74842 -0.150448 0.671621 0.725459 -0.319517 0.62883 0.70886 
-0.422578 0.778663 0.463802 0.278887 0.587502 0.759647 0.188304 0.492682 0.849592 
0.253931 0.300162 0.919468 0.265264 0.516104 0.814415 -0.533532 0.562494 0.63162 
-0.564503 0.552287 0.613445 -0.617606 0.595224 0.514073 0.619336 0.460525 0.635877 
0.254661 0.166507 0.952588 0.29189 0.414642 0.8619 0.232444 0.252888 0.939158 
0.146602 0.180958 0.972503 0.224688 0.293424 0.929202 -0.716827 0.467511 0.517293 
-0.780494 0.383739 0.493532 -0.887181 0.455833 0.0715969 0.269455 0.146167 0.951856 
0.565648 0.169224 0.807097 0.237652 0.0436551 0.970369 -0.801845 0.310647 0.510433 
0.54997 0.0235097 0.834853 0.205628 -0.0208757 0.978408 0.22519 -0.0276906 0.973921 
-0.853665 0.0968232 0.511743 0.607269 -0.120721 0.785272 0.231653 -0.0217211 0.972556 
0.260366 -0.0347199 0.964886 -0.857453 -0.162934 0.488085 0.706617 -0.215221 0.674072 
0.294292 -0.0220313 0.955462 0.356258 -0.0587089 0.932541 -0.779551 -0.375051 0.501634 
-0.762517 -0.409925 0.50053 0.352898 -0.126428 0.927081 0.44804 -0.195243 0.872434 
-0.615168 -0.559714 0.555237 -0.534078 -0.609347 0.586052 0.339 -0.353185 0.871975 
0.629679 -0.495885 0.597998 0.326742 -0.365507 0.871576 0.179171 -0.449566 0.875093 
0.103125 -0.468197 0.877586 -0.264833 -0.549929 0.792112 -0.432428 -0.63649 0.63866 
-0.383333 -0.643149 0.662884 0.418765 -0.738229 0.528823 0.241625 -0.63542 0.733389 
0.132481 -0.482725 0.865693 0.120267 -0.548491 0.827462 0.140418 -0.480563 0.865645 
0.0951264 -0.542117 0.834901 -0.0641978 -0.560418 0.825718 -0.249816 -0.549611 0.797195 
-0.229458 -0.545646 0.80599 -0.388852 -0.688655 0.612004 0.168836 -0.799089 0.577019 
0.0731961 -0.777019 0.625207 -0.101857 -0.800939 0.590018 -0.318545 -0.841396 0.436556 
0.221444 0.788792 0.573385 0.150801 0.807609 0.570112 0.124514 0.818159 0.561349 
0.103313 0.876507 0.470172 0.00208166 0.916292 0.400504 -0.180621 0.93083 0.317698 
-0.479756 0.845418 0.234738 0.305508 0.702921 0.642314 0.33523 0.880817 0.334338 
0.244248 0.775027 0.582818 0.276848 0.743982 0.608149 0.284732 0.815457 0.503942 
-0.574912 0.794133 0.197052 -0.711198 0.692168 0.122886 0.629047 0.503996 0.591851 
0.391958 0.681167 0.618369 0.400663 0.674985 0.619568 0.407345 0.692445 0.595475 
-0.774372 0.623273 0.108986 -0.888362 0.458576 0.0228171 0.660213 0.470562 0.585397 
-0.893206 0.449237 0.0192443 -0.895091 0.444366 -0.0367584 0.751359 0.212838 0.624628 
0.971753 0.163026 0.170641 -0.957561 0.287469 -0.020916 0.824222 -0.0243141 0.565745 
0.991363 -0.0781985 0.105287 -0.99583 0.0823634 -0.0392188 0.824355 -0.158444 0.543446 
-0.987443 -0.154996 -0.0305362 0.806519 -0.260801 0.530575 0.82098 -0.356679 0.445838 
-0.931552 -0.363555 -0.00619677 -0.870488 -0.491774 0.020218 0.820263 -0.367593 0.438228 
0.845683 -0.381724 0.372971 -0.825033 -0.563073 0.0476454 -0.694213 -0.703217 0.153475 
0.716326 -0.541507 0.440054 0.647266 -0.629643 0.429647 -0.682612 -0.712116 0.164108 
-0.572379 -0.771602 0.277513 0.481075 -0.757575 0.441188 0.431 -0.77902 0.455376 
0.290098 -0.824908 0.48515 0.210346 -0.824785 0.524865 -0.54213 -0.7758 0.322846 
-0.469952 -0.793022 0.387635 0.189875 -0.826618 0.529763 0.236561 -0.876033 0.420245 
0.171478 -0.820811 0.544853 0.0675062 -0.843659 0.532618 -0.121747 -0.861497 0.492951 
-0.31859 -0.84141 0.436497 -0.318552 -0.841419 0.436507 0.335099 0.881338 0.333093 
0.283767 0.907412 0.309967 0.215177 0.940195 0.264069 0.135391 0.965614 0.221944 
0.0835612 0.977455 0.193906 0.0253168 0.98912 0.144913 -0.0861549 0.993055 0.0801181 
-0.286602 0.958038 -0.00474423 -0.562929 0.816386 -0.128934 0.335966 0.880945 0.333261 
0.460839 0.816238 0.348402 -0.649153 0.746215 -0.147527 -0.638823 0.666351 -0.384553 
-0.773109 0.586413 -0.241708 0.632205 0.715982 0.296119 0.666662 0.687638 0.287604 
0.696231 0.706713 0.125774 -0.803523 0.519721 -0.290243 -0.782754 0.465463 -0.413085 
0.863058 0.459957 0.208735 0.9732 0.185021 0.136559 -0.847497 0.38492 -0.365493 
-0.865361 0.324724 -0.381713 0.97883 0.156841 0.131502 0.991234 0.127541 -0.034482 
-0.88054 0.259369 -0.396708 -0.843466 0.24883 -0.476077 0.994293 -0.0811982 0.0691971 
0.992937 -0.0991349 0.0651795 0.995844 -0.0897184 0.0156416 -0.905003 0.08383 -0.417064 
-0.817447 0.0772479 -0.570801 0.97844 -0.200456 0.049723 -0.907624 -0.131122 -0.39878 
-0.828498 -0.10013 -0.550967 0.948824 -0.31306 0.0415526 -0.881877 -0.317754 -0.348317 
-0.871609 -0.35799 -0.334875 -0.866147 -0.306172 -0.395029 0.903909 -0.427653 -0.00786397 
0.876042 -0.482113 -0.0108464 0.854085 -0.437784 -0.280862 -0.827547 -0.486472 -0.280197 
-0.772341 -0.610042 -0.177026 0.809951 -0.58632 -0.0144439 0.687651 -0.725694 -0.022444 
-0.763036 -0.627683 -0.15424 -0.684804 -0.728592 -0.01407 0.613098 -0.789923 -0.0115362 
0.507419 -0.861655 0.00882545 0.369427 -0.924317 0.0957174 -0.677972 -0.735085 -0.00211172 
-0.569982 -0.815972 0.0964908 0.35208 -0.92925 0.111955 0.287784 -0.941666 0.174489 
0.198912 -0.958422 0.204603 0.0394662 -0.982654 0.181202 -0.168755 -0.972173 0.162487 
-0.498609 -0.85928 0.114131 -0.374883 -0.916743 0.138007 0.331522 0.943299 0.016748 
0.240447 0.9704 -0.0225538 0.163353 0.983641 -0.0759335 0.100903 0.988389 -0.113599 
0.052007 0.990553 -0.126884 -0.0246969 0.987759 -0.154021 -0.153767 0.966401 -0.205972 
-0.38162 0.873325 -0.302771 0.712487 0.699267 -0.0582064 0.41432 0.91 0.0154738 
0.477424 0.87862 0.00964807 -0.628497 0.646496 -0.432475 -0.654412 0.604319 -0.45447 
0.736544 0.673381 -0.0637265 0.726783 0.667029 -0.163885 -0.736035 0.394422 -0.550167 
-0.70105 0.34191 -0.625801 -0.727284 0.316801 -0.608847 0.9187 0.368471 -0.142199 
-0.726197 0.300555 -0.618308 -0.716793 0.289385 -0.634401 0.974973 0.0934757 -0.201716 
-0.710304 0.203957 -0.673698 -0.630069 0.180629 -0.755239 0.958909 -0.130558 -0.251888 
-0.725942 0.0735482 -0.683812 -0.5664 0.0831819 -0.819922 0.938981 -0.212418 -0.270543 
-0.741875 -0.0693739 -0.66694 -0.606667 -0.0347557 -0.794196 0.890108 -0.331989 -0.312235 
0.832721 -0.421448 -0.359105 0.775141 -0.373078 -0.509872 -0.764646 -0.221199 -0.605299 
-0.674036 -0.170315 -0.718796 0.818773 -0.437833 -0.371366 -0.768807 -0.36477 -0.525242 
-0.770627 -0.378717 -0.512551 -0.760893 -0.352105 -0.545036 0.699142 -0.574631 -0.42544 
0.650185 -0.624802 -0.432298 0.622076 -0.578094 -0.528043 -0.768321 -0.490482 -0.41123 
-0.749694 -0.571466 -0.333744 -0.700681 -0.422791 -0.574712 0.564055 -0.714049 -0.4147 
0.538155 -0.740867 -0.401877 0.530309 -0.692135 -0.489614 0.456045 -0.829882 -0.321433 
0.396174 -0.547567 -0.737033 -0.72588 -0.621746 -0.29416 -0.580265 -0.777481 -0.242521 
0.416114 -0.866588 -0.275453 0.34533 -0.910299 -0.228262 0.33461 -0.80546 -0.489152 
0.199203 -0.951368 -0.234982 0.148981 -0.716902 -0.68107 0.0190544 -0.968822 -0.247022 
-0.172032 -0.953483 -0.247538 -0.487052 -0.842216 -0.231197 -0.386083 -0.893905 -0.227759 
-0.355992 -0.803055 -0.477883 0.303931 0.878827 -0.367816 0.189288 0.885823 -0.42366 
0.107114 0.870043 -0.481198 0.0661339 0.847192 -0.527155 0.0396454 0.849 -0.526903 
-0.0450397 0.859544 -0.509074 -0.219465 0.816819 -0.533518 -0.496028 0.629766 -0.597788 
0.326405 0.869741 -0.370149 0.496707 0.762218 -0.415097 0.302445 0.865399 -0.399515 
0.151927 0.774486 -0.614076 0.052037 0.668244 -0.74212 0.0343849 0.620872 -0.783158 
0.0584878 0.612129 -0.788592 -0.0285192 0.63181 -0.774599 -0.239055 0.628997 -0.73974 
-0.516925 0.605344 -0.605266 -0.502193 0.605948 -0.616951 0.658457 0.616768 -0.431313 
0.74506 0.507768 -0.432501 0.471091 0.567776 -0.675058 -0.668367 0.308367 -0.676901 
-0.514559 0.252923 -0.819304 -0.642837 0.178707 -0.744865 0.839808 0.319917 -0.438607 
0.709017 0.298007 -0.63913 -0.532166 0.0235627 -0.846312 -0.627984 0.141733 -0.765211 
-0.620347 0.129813 -0.773511 0.84813 0.0581856 -0.526584 0.674731 0.0132964 -0.737944 
-0.523373 -0.0712925 -0.849116 -0.536586 0.0513967 -0.842279 -0.521074 0.0232463 -0.853195 
0.853776 -0.130079 -0.50413 0.702996 -0.116389 -0.701606 -0.450447 -0.0451834 -0.891659 
-0.455663 0.0533198 -0.888554 -0.432275 0.0420806 -0.900759 0.816537 -0.255202 -0.517821 
0.75931 -0.343076 -0.552944 0.735214 -0.262333 -0.625013 -0.235037 -0.105876 -0.966203 
-0.325293 0.0210709 -0.945379 -0.491498 0.0213469 -0.870617 -0.420262 0.0494702 -0.906053 
0.714447 -0.38404 -0.584875 0.423708 -0.367682 -0.827817 -0.044576 -0.169719 -0.984484 
0.116775 -0.104238 -0.987673 -0.179755 0.016539 -0.983572 -0.313349 0.0448197 -0.94858 
-0.536147 -0.0639004 -0.841703 -0.472923 -0.0219743 -0.88083 0.564214 -0.47045 -0.678484 
0.532688 -0.488131 -0.691355 0.509839 -0.466143 -0.723031 0.261612 -0.398296 -0.879159 
0.122264 -0.213724 -0.969213 0.123096 -0.101921 -0.987147 -0.162938 -0.0370095 -0.985942 
-0.360441 -0.043723 -0.931757 -0.621163 -0.194754 -0.759096 -0.639216 -0.276236 -0.717702 
-0.586051 -0.166304 -0.793024 0.422691 -0.500986 -0.755212 0.409125 -0.50321 -0.761181 
0.390211 -0.483928 -0.783293 0.385477 -0.526891 -0.757491 0.280217 -0.348696 -0.894365 
0.174302 -0.223217 -0.959059 0.0756105 -0.202036 -0.976455 0.0188814 -0.204645 -0.978654 
-0.0217445 -0.15528 -0.987631 -0.165327 -0.208632 -0.963919 -0.630012 -0.368773 -0.683441 
-0.421529 -0.269487 -0.865847 0.382538 -0.530963 -0.756137 0.301928 -0.615392 -0.728101 
0.266515 -0.425189 -0.864976 0.144406 -0.688041 -0.711158 0.114382 -0.376951 -0.919143 
0.035939 -0.334505 -0.941709 -0.0436057 -0.367559 -0.928977 -0.307115 -0.67554 -0.670319 
-0.256958 -0.437937 -0.861501 -0.545374 -0.527747 -0.651192 -0.538134 -0.535792 -0.650645 
-0.534908 -0.524953 -0.662041 0.0997286 -0.699944 -0.707201 0.018116 -0.705774 -0.708205 
0.0187501 -0.682532 -0.730615 -0.128071 -0.70736 -0.695155 -0.123286 -0.707088 -0.696296 
-0.123156 -0.705464 -0.697964 0.189998 0.480988 -0.855892 0.00820059 0.425199 -0.905063 
-0.0197156 0.313756 -0.949299 0.0386753 0.287402 -0.957029 0.068869 0.349732 -0.934315 
-0.0202778 0.415168 -0.909519 -0.239696 0.349463 -0.905771 0.24358 0.456828 -0.855556 
0.363679 0.337982 -0.868047 0.174266 0.425819 -0.887868 -0.0148899 0.360661 -0.932578 
-0.0276891 0.269159 -0.962698 0.0392551 0.24799 -0.967967 0.0683558 0.239279 -0.968542 
-0.0109382 0.261035 -0.965267 -0.303136 0.267835 -0.914534 -0.237456 0.274425 -0.931829 
0.431498 0.253 -0.86591 0.310494 0.2324 -0.921729 0.0981981 0.163334 -0.981672 
-0.0604411 0.115921 -0.991418 -0.0957445 0.0874696 -0.991555 5.853e-05 0.0880814 -0.996113 
0.091522 0.0686161 -0.993436 0.013337 0.0955824 -0.995332 -0.409539 0.0483992 -0.911008 
-0.253332 0.0868005 -0.963477 0.473135 0.0164296 -0.880837 0.310319 0.0413711 -0.949732 
0.055419 0.0294966 -0.998027 -0.0925257 -0.033494 -0.995147 -0.0679227 -0.0104258 -0.997636 
0.0133818 0.120758 -0.992592 0.0783261 0.0218193 -0.996689 0.0112209 -0.00589773 -0.99992 
-0.441655 -0.0689879 -0.894529 -0.310343 -0.0463733 -0.949493 0.468122 -0.105672 -0.877323 
0.321797 -0.0977241 -0.941752 0.0231124 -0.0943895 -0.995267 -0.0948687 -0.103744 -0.990069 
0.0578924 -0.0822481 -0.994929 0.033266 0.0458067 -0.998396 -0.0348393 -0.075911 -0.996506 
-0.0526599 -0.163509 -0.985135 -0.390746 -0.143676 -0.909216 -0.273013 -0.128805 -0.953349 
-0.352687 -0.172798 -0.919648 0.361342 -0.229105 -0.903849 0.347741 -0.24249 -0.90569 
0.33893 -0.22759 -0.912869 0.0514118 -0.188467 -0.980733 -0.058052 -0.168843 -0.983932 
-0.0831198 -0.170115 -0.981912 0.106514 -0.118268 -0.987252 0.0879946 -0.135798 -0.986821 
0.0221413 -0.110262 -0.993656 -0.134162 -0.0739957 -0.988193 -0.156375 -0.136241 -0.978256 
-0.0816855 -0.160969 -0.983573 0.13728 -0.31024 -0.940694 0.029501 -0.243871 -0.969359 
0.105237 -0.311543 -0.944387 0.0893718 -0.299259 -0.949977 0.114194 -0.112934 -0.987019 
0.0971119 -0.141366 -0.985183 -0.0879013 -0.0305368 -0.995661 -0.113977 -0.0114233 -0.993418 
-0.103238 -0.0163053 -0.994523 0.0995559 -0.145583 -0.984324 0.088606 -0.16808 -0.981783 
0.0932916 -0.159644 -0.982756 0.000316885 -0.146248 -0.989248 -0.00862379 -0.119838 -0.992756 
-0.0976977 -0.0470278 -0.994104 -0.0348581 -0.0758301 -0.996511 -0.0392236 -0.0563275 -0.997642 

