# vtk DataFile Version 4.2
vtk output
ASCII
DATASET POLYDATA
POINTS 520 float
-30.8531 -40.1262 -15.4354 -22.839 -40.1262 -17.1234 -14.825 -40.1262 -16.2109 
-38.8671 -32.1122 -16.4529 -30.8531 -32.1122 -19.445 -22.839 -32.1122 -21.4209 
-14.825 -32.1122 -20.6256 -6.81098 -32.1122 -18.0794 -38.8671 -24.0982 -18.4194 
-30.8531 -24.0982 -21.1922 -22.839 -24.0982 -21.8006 -14.825 -24.0982 -22.216 
-6.81098 -24.0982 -20.1402 1.20305 -24.0982 -15.4444 17.2311 -24.0982 -15.1111 
25.2451 -24.0982 -15.86 33.2592 -24.0982 -15.9996 -46.8811 -16.0841 -15.5456 
-38.8671 -16.0841 -18.8813 -30.8531 -16.0841 -20.029 -22.839 -16.0841 -21.0138 
-14.825 -16.0841 -21.6367 -6.81098 -16.0841 -20.8135 1.20305 -16.0841 -17.1957 
9.21707 -16.0841 -14.9355 17.2311 -16.0841 -16.4687 25.2451 -16.0841 -17.6145 
33.2592 -16.0841 -18.0581 41.2732 -16.0841 -17.0537 -46.8811 -8.07011 -15.6693 
-38.8671 -8.07011 -18.6078 -30.8531 -8.07011 -19.4672 -22.839 -8.07011 -19.6195 
-14.825 -8.07011 -20.5469 -6.81098 -8.07011 -20.2141 1.20305 -8.07011 -17.7185 
9.21707 -8.07011 -16.1344 17.2311 -8.07011 -16.7764 25.2451 -8.07011 -18.3883 
33.2592 -8.07011 -19.1129 41.2732 -8.07011 -18.4838 49.2872 -8.07011 -15.802 
-46.8811 -0.0560818 -16.5679 -38.8671 -0.0560818 -19.1617 -30.8531 -0.0560818 -19.6834 
-22.839 -0.0560818 -19.4491 -14.825 -0.0560818 -21.7196 -6.81098 -0.0560818 -21.0616 
1.20305 -0.0560818 -15.0495 9.21707 -0.0560818 -16.6804 17.2311 -0.0560818 -17.0635 
25.2451 -0.0560818 -18.7555 33.2592 -0.0560818 -19.5618 41.2732 -0.0560818 -18.8665 
49.2872 -0.0560818 -16.1151 -46.8811 7.95795 -16.9727 -38.8671 7.95795 -19.7862 
-30.8531 7.95795 -20.4216 -22.839 7.95795 -20.1335 -14.825 7.95795 -19.3291 
-6.81098 7.95795 -18.374 1.20305 7.95795 -18.5753 17.2311 7.95795 -15.6355 
25.2451 7.95795 -18.4206 33.2592 7.95795 -19.055 41.2732 7.95795 -18.6855 
49.2872 7.95795 -15.9835 -46.8811 15.972 -16.1486 -38.8671 15.972 -19.6016 
-30.8531 15.972 -20.6187 -22.839 15.972 -20.3423 -14.825 15.972 -18.999 
-6.81098 15.972 -17.651 1.20305 15.972 -16.9022 25.2451 15.972 -16.5489 
33.2592 15.972 -17.3195 41.2732 15.972 -16.4753 -38.8671 23.986 -18.434 
-30.8531 23.986 -20.8903 -22.839 23.986 -20.7335 -14.825 23.986 -19.9226 
-6.81098 23.986 -19.0805 1.20305 23.986 -17.3081 -38.8671 32 -15.559 
-30.8531 32 -18.7828 -22.839 32 -19.9987 -14.825 32 -19.7682 
-6.81098 32 -18.7002 1.20305 32 -16.8507 -22.839 40.0141 -16.468 
-14.825 40.0141 -16.817 -6.81098 40.0141 -16.2285 -30.8531 -40.8034 -14.7807 
-22.839 -42.4214 -14.7807 -14.825 -41.6045 -14.7807 -32.0091 -40.1262 -14.7807 
-38.8671 -34.6824 -14.7807 -38.8671 -40.1262 -6.8747 -10.109 -40.1262 -14.7807 
-6.81098 -38.5276 -14.7807 -6.81098 -40.1262 -13.5972 1.20305 -40.1262 -9.92387 
9.21707 -40.1262 -8.30212 -41.0119 -32.1122 -14.7807 -0.169022 -32.1122 -14.7807 
1.20305 -27.8427 -14.7807 1.20305 -32.1122 -14.0586 9.21707 -32.1122 -12.6402 
17.2311 -25.2466 -14.7807 17.2311 -32.1122 -12.7684 25.2451 -26.8108 -14.7807 
25.2451 -32.1122 -12.1461 33.2592 -26.2388 -14.7807 33.2592 -32.1122 -10.2254 
-44.5102 -24.0982 -14.7807 -46.8811 -19.0294 -14.7807 -46.8811 -24.0982 -12.2447 
6.14408 -24.0982 -14.7807 13.3705 -24.0982 -14.7807 9.21707 -18.5811 -14.7807 
9.21707 -24.0982 -14.4288 39.388 -24.0982 -14.7807 41.2732 -22.9927 -14.7807 
41.2732 -24.0982 -14.3036 49.2872 -24.0982 -7.35298 -47.7741 -16.0841 -14.7807 
47.2488 -16.0841 -14.7807 49.2872 -12.7616 -14.7807 49.2872 -16.0841 -13.7922 
-48.0391 -8.07011 -14.7807 50.8371 -8.07011 -14.7807 57.3012 -8.07011 -8.04004 
-49.3752 -0.0560818 -14.7807 -54.8951 -0.0560818 -6.91569 9.21707 4.47793 -14.7807 
51.3031 -0.0560818 -14.7807 57.3012 -0.0560818 -8.85183 -49.7724 7.95795 -14.7807 
-54.8951 7.95795 -7.20408 7.02736 7.95795 -14.7807 14.416 7.95795 -14.7807 
9.21707 7.95795 -13.2713 17.2311 11.7539 -14.7807 51.0458 7.95795 -14.7807 
49.2872 12.2044 -14.7807 57.3012 7.95795 -8.0105 -48.4934 15.972 -14.7807 
-46.8811 21.0809 -14.7807 5.71252 15.972 -14.7807 9.21707 15.972 -13.171 
19.896 15.972 -14.7807 17.2311 15.972 -13.9242 25.2451 20.2249 -14.7807 
33.2592 21.1523 -14.7807 46.0042 15.972 -14.7807 41.2732 19.0065 -14.7807 
49.2872 15.972 -13.215 -45.6811 23.986 -14.7807 -46.8811 23.986 -13.2166 
8.17089 23.986 -14.7807 9.21707 23.986 -14.4115 17.2311 23.986 -12.9736 
25.2451 23.986 -13.0764 33.2592 23.986 -13.1627 41.2732 23.986 -10.9829 
-39.9018 32 -14.7807 -38.8671 33.0472 -14.7807 -30.8531 39.0129 -14.7807 
7.42179 32 -14.7807 1.20305 38.1317 -14.7807 9.21707 32 -14.1459 
17.2311 32 -10.7094 25.2451 32 -8.35266 -28.366 40.0141 -14.7807 
-30.8531 40.0141 -13.3731 -22.839 41.7035 -14.7807 -14.825 42.4554 -14.7807 
-1.26802 40.0141 -14.7807 -6.81098 41.9894 -14.7807 1.20305 40.0141 -13.9843 
9.21707 40.0141 -10.9636 -38.8671 -40.1762 -6.76671 -30.8531 -44.9856 -6.76671 
-22.839 -46.9156 -6.76671 -14.825 -47.0401 -6.76671 -14.825 -48.1402 0.955317 
-6.81098 -46.2013 -6.76671 -6.81098 -48.1402 0.559381 1.20305 -43.4008 -6.76671 
9.21707 -41.9023 -6.76671 -38.9257 -40.1262 -6.76671 -38.8671 -40.1262 -6.46976 
15.8871 -40.1262 -6.76671 17.2311 -39.7822 -6.76671 17.2311 -40.1262 -5.97823 
25.2451 -37.4179 -6.76671 33.2592 -34.7026 -6.76671 -45.7455 -32.1122 -6.76671 
-46.8811 -30.1325 -6.76671 38.7209 -32.1122 -6.76671 41.2732 -30.7746 -6.76671 
49.2872 -24.6023 -6.76671 -49.9878 -24.0982 -6.76671 49.7826 -24.0982 -6.76671 
-52.3 -16.0841 -6.76671 55.2323 -16.0841 -6.76671 57.3012 -10.5564 -6.76671 
57.3012 -16.0841 -0.0451592 -54.1397 -8.07011 -6.76671 -54.8951 -0.635437 -6.76671 
58.2031 -8.07011 -6.76671 -54.9598 -0.0560818 -6.76671 -54.8951 -0.0560818 -6.37871 
58.7467 -0.0560818 -6.76671 -55.0856 7.95795 -6.76671 -54.8951 8.94693 -6.76671 
-54.8951 7.95795 -5.99652 58.1758 7.95795 -6.76671 57.3012 10.1794 -6.76671 
-53.4758 15.972 -6.76671 54.7525 15.972 -6.76671 49.2872 22.5021 -6.76671 
57.3012 15.972 0.882968 -50.0174 23.986 -6.76671 -46.8811 28.6787 -6.76671 
33.2592 30.109 -6.76671 47.1811 23.986 -6.76671 41.2732 27.3152 -6.76671 
49.2872 23.986 -2.2695 -44.2909 32 -6.76671 -38.8671 37.8267 -6.76671 
17.2311 39.0816 -6.76671 28.6366 32 -6.76671 25.2451 33.6216 -6.76671 
33.2592 32 0.0360874 -36.0744 40.0141 -6.76671 -30.8531 43.2659 -6.76671 
-22.839 46.0605 -6.76671 -14.825 46.9983 -6.76671 -6.81098 46.9785 -6.76671 
1.20305 46.0888 -6.76671 16.2677 40.0141 -6.76671 9.21707 43.9859 -6.76671 
17.2311 40.0141 -5.50542 -14.825 -48.179 1.24732 -6.81098 -48.2713 1.24732 
-30.8531 -43.7702 1.24732 -15.0499 -48.1402 1.24732 -22.839 -46.7209 1.24732 
-14.825 -48.1402 1.36614 -5.53207 -48.1402 1.24732 -6.81098 -48.1402 1.85134 
1.20305 -47.4333 1.24732 9.21707 -45.5838 1.24732 17.2311 -42.6428 1.24732 
-36.7369 -40.1262 1.24732 -38.8671 -38.4421 1.24732 -30.8531 -40.1262 7.29673 
22.6784 -40.1262 1.24732 17.2311 -40.1262 8.74573 25.2451 -38.9462 1.24732 
33.2592 -35.1034 1.24732 -44.3168 -32.1122 1.24732 -46.8811 -27.4621 1.24732 
-38.8671 -32.1122 8.7748 39.8074 -32.1122 1.24732 33.2592 -32.1122 8.32299 
41.2732 -31.375 1.24732 49.2872 -25.972 1.24732 -48.7126 -24.0982 1.24732 
-46.8811 -24.0982 3.86646 51.3707 -24.0982 1.24732 49.2872 -24.0982 6.36187 
57.3012 -16.6309 1.24732 -50.7729 -16.0841 1.24732 -46.8811 -16.0841 7.26486 
57.647 -16.0841 1.24732 57.3012 -16.0841 2.58903 -52.3492 -8.07011 1.24732 
-46.8811 -8.07011 9.05361 60.631 -8.07011 1.24732 -53.6338 -0.0560818 1.24732 
61.2382 -0.0560818 1.24732 -53.0026 7.95795 1.24732 60.5679 7.95795 1.24732 
-51.0984 15.972 1.24732 -46.8811 15.972 7.01186 57.3999 15.972 1.24732 
57.3012 16.12 1.24732 57.3012 15.972 1.78077 -47.3286 23.986 1.24732 
-46.8811 24.6166 1.24732 -46.8811 23.986 1.81959 41.2732 29.1716 1.24732 
50.3361 23.986 1.24732 49.2872 24.8045 1.24732 49.2872 23.986 5.10769 
-41.8524 32 1.24732 -38.8671 35.3382 1.24732 -38.8671 32 5.60143 
25.2451 36.9097 1.24732 34.102 32 1.24732 33.2592 32.326 1.24732 
33.2592 32 3.21809 -33.8104 40.0141 1.24732 -30.8531 42.1843 1.24732 
-30.8531 40.0141 5.56554 -22.839 45.5637 1.24732 -14.825 46.7682 1.24732 
-6.81098 47.201 1.24732 1.20305 46.9202 1.24732 9.21707 46.0959 1.24732 
21.1936 40.0141 1.24732 17.2311 42.7829 1.24732 -22.839 -42.4059 9.26134 
-14.825 -44.87 9.26134 -6.81098 -45.9904 9.26134 1.20305 -45.0276 9.26134 
9.21707 -43.3172 9.26134 -27.9987 -40.1262 9.26134 -30.8531 -38.4704 9.26134 
-22.839 -40.1262 11.5704 -14.825 -40.1262 13.8531 -6.81098 -40.1262 14.8045 
1.20305 -40.1262 14.6056 16.7702 -40.1262 9.26134 9.21707 -40.1262 12.8404 
17.2311 -39.8798 9.26134 25.2451 -35.357 9.26134 -38.3391 -32.1122 9.26134 
-38.8671 -31.3164 9.26134 -30.8531 -32.1122 13.7776 -22.839 -32.1122 16.7728 
17.2311 -32.1122 15.4776 32.2431 -32.1122 9.26134 25.2451 -32.1122 12.6289 
33.2592 -31.6409 9.26134 41.2732 -27.5665 9.26134 -42.5166 -24.0982 9.26134 
-38.8671 -24.0982 12.2076 -30.8531 -24.0982 16.7678 33.2592 -24.0982 16.504 
47.2262 -24.0982 9.26134 41.2732 -24.0982 13.2489 49.2872 -22.709 9.26134 
-45.0313 -16.0841 9.26134 -38.8671 -16.0841 13.7536 -30.8531 -16.0841 17.2726 
55.0802 -16.0841 9.26134 49.2872 -16.0841 15.4069 57.3012 -11.7185 9.26134 
-46.6566 -8.07011 9.26134 -46.8811 -5.86747 9.26134 -38.8671 -8.07011 14.4645 
58.8615 -8.07011 9.26134 57.3012 -8.07011 11.428 -47.3562 -0.0560818 9.26134 
-46.8811 -0.0560818 9.68753 -38.8671 -0.0560818 14.4274 -30.8531 -0.0560818 16.9731 
59.7965 -0.0560818 9.26134 57.3012 -0.0560818 12.9254 -47.0961 7.95795 9.26134 
-46.8811 8.78022 9.26134 -46.8811 7.95795 9.45575 -38.8671 7.95795 14.1481 
59.2911 7.95795 9.26134 57.3012 12.5359 9.26134 57.3012 7.95795 12.2582 
-44.5214 15.972 9.26134 -38.8671 15.972 13.2266 -30.8531 15.972 17.0173 
55.5687 15.972 9.26134 49.2872 22.8256 9.26134 49.2872 15.972 16.3231 
-40.7722 23.986 9.26134 -38.8671 27.2696 9.26134 -38.8671 23.986 10.9296 
-30.8531 23.986 16.2652 33.2592 30.9753 9.26134 47.5814 23.986 9.26134 
41.2732 27.4434 9.26134 41.2732 23.986 13.9302 -35.9264 32 9.26134 
-30.8531 37.4023 9.26134 -30.8531 32 13.8685 31.1918 32 9.26134 
[...]
POINT_DATA 520
SCALARS ImageScalars float
LOOKUP_TABLE default
0 0 0 0 0 0 0 0 0 
0 0 0 0 0 0 0 0 0 
0 0 0 0 0 0 0 0 0 
0 0 0 0 0 0 0 0 0 
0 0 0 0 0 0 0 0 0 
0 0 0 0 0 0 0 0 0 
0 0 0 0 0 0 0 0 0 
0 0 0 0 0 0 0 0 0 
0 0 0 0 0 0 0 0 0 
0 0 0 0 0 0 0 0 0 
0 0 0 0 0 0 0 0 0 
0 0 0 0 0 0 0 0 0 
0 0 0 0 0 0 0 0 0 
0 0 0 0 0 0 0 0 0 
0 0 0 0 0 0 0 0 0 
0 0 0 0 0 0 0 0 0 
0 0 0 0 0 0 0 0 0 
0 0 0 0 0 0 0 0 0 
0 0 0 0 0 0 0 0 0 
0 0 0 0 0 0 0 0 0 
0 0 0 0 0 0 0 0 0 
0 0 0 0 0 0 0 0 0 
0 0 0 0 0 0 0 0 0 
0 0 0 0 0 0 0 0 0 
0 0 0 0 0 0 0 0 0 
0 0 0 0 0 0 0 0 0 
0 0 0 0 0 0 0 0 0 
0 0 0 0 0 0 0 0 0 
0 0 0 0 0 0 0 0 0 
0 0 0 0 0 0 0 0 0 
0 0 0 0 0 0 0 0 0 
0 0 0 0 0 0 0 0 0 
0 0 0 0 0 0 0 0 0 
0 0 0 0 0 0 0 0 0 
0 0 0 0 0 0 0 0 0 
0 0 0 0 0 0 0 0 0 
0 0 0 0 0 0 0 0 0 
0 0 0 0 0 0 0 0 0 
0 0 0 0 0 0 0 0 0 
0 0 0 0 0 0 0 0 0 
0 0 0 0 0 0 0 0 0 
0 0 0 0 0 0 0 0 0 
0 0 0 0 0 0 0 0 0 
0 0 0 0 0 0 0 0 0 
0 0 0 0 0 0 0 0 0 
0 0 0 0 0 0 0 0 0 
0 0 0 0 0 0 0 0 0 
0 0 0 0 0 0 0 0 0 
0 0 0 0 0 0 0 0 0 
0 0 0 0 0 0 0 0 0 
0 0 0 0 0 0 0 0 0 
0 0 0 0 0 0 0 0 0 
0 0 0 0 0 0 0 0 0 
0 0 0 0 0 0 0 0 0 
0 0 0 0 0 0 0 0 0 
0 0 0 0 0 0 0 0 0 
0 0 0 0 0 0 0 0 0 
0 0 0 0 0 0 0 
NORMALS Normals float
0.322976 0.662051 0.676295 0.042603 0.650037 0.758707 -0.168837 0.634497 0.754259 
0.522941 0.392781 0.756476 0.278089 0.303765 0.911259 0.0726591 0.224436 0.971776 
-0.189928 0.303013 0.933869 -0.373282 0.33526 0.865021 0.436199 0.13853 0.889123 
0.177021 0.0340545 0.983618 0.0637148 -0.0253695 0.997646 -0.0939848 0.0602535 0.993749 
-0.368361 0.158939 0.915996 -0.352271 0.172718 0.919822 0.0884247 0.224934 0.970353 
0.051713 0.2876 0.956353 -0.0853288 0.378281 0.92175 0.616462 0.127033 0.777069 
0.269931 0.00715115 0.962853 0.13003 -0.10212 0.986237 0.0998251 -0.138463 0.985324 
-0.0142357 -0.105151 0.994354 -0.234957 0.00426056 0.971996 -0.381102 0.127298 0.915727 
-0.0185498 0.0992625 0.994888 0.167492 0.101196 0.980666 0.099352 0.151165 0.983503 
-0.0282246 0.178554 0.983525 -0.246506 0.257001 0.934444 0.50664 0.0536306 0.860488 
0.203701 0.0142586 0.978929 0.0610219 -0.0216819 0.997901 0.0668874 -0.0911139 0.993592 
0.0392963 -0.00110177 0.999227 -0.176259 0.00435835 0.984334 -0.247281 -0.117319 0.961815 
-0.0543125 0.112338 0.992185 0.136797 0.0376064 0.989885 0.146552 0.0712926 0.986631 
0.00378398 0.0911538 0.99583 -0.194875 0.100933 0.975621 -0.479228 0.12164 0.86922 
0.447632 0.0751811 0.891052 0.162904 0.0721763 0.983998 0.0154 0.0604566 0.998052 
0.10771 0.0319189 0.99367 0.12247 -0.0815936 0.989112 -0.394289 -0.0966816 0.913887 
-0.207554 0.070415 0.975686 0.110619 -0.137236 0.984342 0.130171 -0.0632669 0.989471 
0.153306 0.00225489 0.988176 0.00713093 -0.00337666 0.999969 -0.200128 0.0130245 0.979683 
-0.469101 0.0108094 0.883078 0.474117 -0.0235753 0.880146 0.193528 0.0259295 0.980752 
0.0182508 0.0566265 0.998229 -0.0677577 0.0563423 0.99611 -0.103236 -0.157747 0.982068 
-0.0529515 -0.195289 0.979315 -0.247894 0.0873569 0.964841 0.295636 -0.190654 0.936082 
0.199124 -0.1364 0.970435 0.0144428 -0.133615 0.990928 -0.180883 -0.12843 0.975083 
-0.483338 -0.138078 0.864476 0.573051 -0.164864 0.802766 0.238476 -0.081903 0.967689 
0.0432807 0.0280791 0.998668 -0.0999004 0.0371333 0.994304 -0.164696 0.0382073 0.985604 
-0.132986 0.0536647 0.989664 -0.26853 -0.0823365 0.959746 0.191866 -0.298283 0.934994 
0.00150714 -0.327221 0.944947 -0.216032 -0.393406 0.893623 0.37049 -0.219922 0.902425 
0.145357 -0.119635 0.98212 -0.0599218 -0.0180911 0.998039 -0.101897 0.0469325 0.993687 
-0.156149 0.0594484 0.985943 -0.282716 -0.002313 0.959201 0.533285 -0.508686 0.675904 
0.237388 -0.356379 0.903682 0.0623101 -0.218841 0.973769 -0.0762001 -0.167519 0.98292 
-0.178748 -0.165686 0.969844 -0.267498 -0.180363 0.946527 0.149851 -0.625417 0.765766 
-0.0186551 -0.564156 0.825457 -0.157 -0.494857 0.854674 0.319398 0.695128 0.644036 
0.0426232 0.740317 0.670905 -0.151676 0.698069 0.699781 0.353059 0.675338 0.647509 
0.554986 0.484966 0.675868 0.623756 0.770232 0.132935 -0.252425 0.616723 0.74561 
-0.332574 0.53697 0.775279 -0.310025 0.600303 0.737238 -0.240148 0.597495 0.765068 
-0.180551 0.625822 0.75878 0.618908 0.410919 0.669402 -0.332871 0.295436 0.895497 
-0.334062 0.222039 0.916025 -0.312316 0.288382 0.905149 -0.0719778 0.343772 0.936291 
0.0732635 0.25596 0.963907 -0.0232431 0.458085 0.888605 0.00974437 0.373929 0.927406 
-0.12169 0.61678 0.777672 -0.122924 0.454251 0.882352 -0.29503 0.774322 0.559807 
0.614928 0.270129 0.740874 0.649717 0.191282 0.735716 0.765085 0.34279 0.545106 
-0.138508 0.144725 0.97973 0.0371739 0.179018 0.983143 -0.0158516 0.106994 0.994133 
-0.0139028 0.129332 0.991504 -0.288931 0.451778 0.844047 -0.334725 0.440833 0.832842 
-0.360184 0.482411 0.798466 -0.657362 0.635141 0.405552 0.661911 0.134472 0.737422 
-0.423251 0.322894 0.846521 -0.488248 0.24996 0.836142 -0.511592 0.353188 0.783282 
0.566673 0.0639011 0.821461 -0.538457 0.123004 0.833627 -0.837624 0.186993 0.513244 
0.589485 0.0794147 0.803866 0.989121 0.0616529 0.133558 -0.0579479 -0.218462 0.974123 
-0.545503 0.00786055 0.838072 -0.83372 -0.00118652 0.552186 0.637212 -0.0453983 0.76935 
0.989291 -0.0881814 0.116311 -0.251007 -0.149789 0.956326 0.147696 -0.22075 0.964083 
-0.182228 -0.241933 0.953027 0.264707 -0.183526 0.946704 -0.552448 -0.143868 0.821038 
-0.493417 -0.287889 0.820767 -0.842261 -0.20227 0.499683 0.656695 -0.181093 0.732091 
0.655177 -0.292496 0.696555 -0.228451 -0.000860044 0.973555 -0.17441 0.0711232 0.982101 
0.207919 -0.217747 0.953602 0.207847 -0.164092 0.964299 0.115476 -0.365635 0.923567 
-0.041593 -0.463007 0.885378 -0.373995 -0.417777 0.828003 -0.239507 -0.487364 0.83971 
-0.517428 -0.442726 0.732299 0.640122 -0.348495 0.684686 0.733999 -0.405301 0.544956 
-0.268214 0.0550634 0.961784 -0.264573 0.0619918 0.962371 -0.0795366 -0.184148 0.979675 
0.0115264 -0.442252 0.896817 -0.0844605 -0.576529 0.8127 -0.338901 -0.705086 0.622896 
0.576261 -0.527449 0.624277 0.55316 -0.541877 0.632758 0.353117 -0.664183 0.658915 
-0.340914 -0.179451 0.922808 -0.283666 -0.417312 0.863356 -0.361031 -0.18328 0.914366 
-0.320514 -0.376436 0.869233 -0.314637 -0.669914 0.672472 0.303906 -0.690122 0.656789 
0.387065 -0.738844 0.551625 0.166366 -0.702632 0.691832 0.0162655 -0.67965 0.733356 
-0.245598 -0.495554 0.833131 -0.148632 -0.584388 0.797746 -0.280337 -0.515357 0.809826 
-0.373379 -0.562089 0.738 0.623688 0.771348 0.12663 0.377683 0.915104 0.141213 
0.1113 0.971305 0.210189 -0.031309 0.943529 0.329808 0.0876466 0.992796 -0.0816935 
-0.203826 0.855578 0.475859 -0.0562677 0.998198 0.0208435 -0.20446 0.736455 0.644849 
-0.187742 0.715048 0.673393 0.625213 0.770121 0.126579 0.625665 0.772126 0.111199 
-0.214813 0.773702 0.59602 -0.21483 0.78648 0.579048 -0.242954 0.818609 0.520435 
-0.273383 0.844008 0.461424 -0.354318 0.874958 0.33001 0.828182 0.543834 0.135496 
0.854768 0.499654 0.140418 -0.429699 0.843171 0.323143 -0.480965 0.81547 0.321995 
-0.659673 0.652533 0.372871 0.912969 0.370969 0.169907 -0.66933 0.639521 0.378168 
0.955545 0.252878 0.151611 -0.82156 0.398517 0.407704 -0.858403 0.257653 0.443576 
-0.883701 0.463554 0.064729 0.977483 0.159414 0.138252 0.989687 0.0683024 0.125911 
-0.865168 0.19598 0.461601 0.990174 0.0611666 0.125754 0.992898 0.0605264 0.102422 
-0.88203 -0.00176169 0.47119 0.991821 -0.0878412 0.0926051 0.98989 -0.109639 0.0899892 
0.994501 -0.0934798 0.047215 -0.867374 -0.209573 0.451377 -0.853619 -0.2756 0.442017 
0.9545 -0.286182 0.0838361 -0.778467 -0.467906 0.418392 -0.582842 -0.701989 0.409276 
-0.86663 -0.49581 0.0558971 0.868552 -0.490804 0.0687685 0.808605 -0.586283 0.049293 
-0.291554 -0.850775 0.437239 -0.521399 -0.750559 0.405961 -0.396403 -0.821687 0.409505 
-0.585784 -0.790668 0.178051 0.757946 -0.649578 0.0597234 0.661473 -0.745388 0.0827608 
-0.508283 -0.62446 0.593041 -0.341713 -0.7844 0.517638 -0.388728 -0.723087 0.570995 
-0.405943 -0.908498 0.0992037 0.584337 -0.804873 0.103587 0.455121 -0.878984 0.142309 
0.206477 -0.961791 0.179791 0.0552634 -0.97801 0.201101 -0.0527275 -0.97078 0.234106 
-0.181206 -0.915682 0.358734 -0.510441 -0.645959 0.567615 -0.348496 -0.792372 0.500696 
-0.53488 -0.68343 0.496817 0.090939 0.99124 -0.0957825 -0.0454753 0.99887 -0.0137943 
0.422652 0.855126 -0.300208 0.095087 0.990535 -0.0989929 0.249122 0.941626 -0.226446 
0.0925535 0.990509 -0.101615 -0.0645536 0.997914 -0.00118541 -0.0426597 0.998117 -0.0440689 
-0.166647 0.98381 0.0659327 -0.279973 0.958884 0.0464287 -0.399097 0.916901 -0.00372839 
0.567023 0.759299 -0.319297 0.63158 0.702275 -0.328506 0.430832 0.714884 -0.550749 
-0.414455 0.907956 -0.0619905 -0.405628 0.781043 -0.474803 -0.418008 0.903514 -0.0945102 
-0.414135 0.8966 -0.156845 0.787657 0.5238 -0.32439 0.836189 0.425054 -0.346578 
0.599514 0.465206 -0.65128 -0.49058 0.858078 -0.151768 -0.369925 0.806232 -0.461677 
-0.506414 0.848914 -0.151292 -0.633517 0.768944 -0.0859196 0.868366 0.353505 -0.347814 
0.807462 0.346914 -0.477133 -0.684096 0.725734 -0.0729572 -0.596276 0.732036 -0.329512 
-0.874122 0.485706 0.000376868 0.917988 0.199628 -0.342706 0.742311 0.195558 -0.640884 
-0.882971 0.469405 0.00458907 -0.875516 0.478704 -0.0656822 0.905788 0.166533 -0.389634 
0.6858 0.0972209 -0.721267 -0.974716 0.220951 0.0333043 0.915506 0.0406438 -0.400247 
-0.998395 -0.00354396 0.0565181 0.894209 -0.14435 -0.423738 -0.969923 -0.235879 0.0600899 
0.865961 -0.2854 -0.410681 0.690671 -0.289594 -0.662653 -0.867441 -0.495911 0.0402372 
-0.864507 -0.501057 0.0396221 -0.866471 -0.499022 0.0142949 0.777134 -0.46911 -0.419522 
0.771604 -0.47835 -0.419295 0.766212 -0.466666 -0.441749 -0.429656 -0.902992 0.000522376 
-0.606414 -0.795099 0.00894572 -0.5788 -0.815429 0.00813424 -0.582827 -0.794625 -0.169955 
0.72975 -0.586735 -0.351009 0.686868 -0.645347 -0.334275 0.687883 -0.538289 -0.48689 
-0.550121 -0.830735 0.08513 -0.420289 -0.906456 0.041173 -0.419027 -0.90679 0.0463356 
-0.418634 -0.907118 -0.0433852 0.573911 -0.768105 -0.283972 0.500579 -0.826028 -0.259034 
0.528849 -0.742844 -0.410489 0.24868 -0.946007 -0.207913 0.0976159 -0.979262 -0.17753 
0.00921025 -0.991384 -0.130662 -0.0682004 -0.993928 -0.0863493 -0.239105 -0.970892 0.0140294 
-0.553561 -0.826593 0.10156 -0.505944 -0.857504 0.0933182 0.289983 0.724092 -0.62578 
0.17685 0.799737 -0.573711 0.00491188 0.857634 -0.514238 -0.139948 0.857004 -0.495942 
-0.278684 0.823944 -0.493408 0.372459 0.675882 -0.63597 0.417328 0.632546 -0.652474 
0.282443 0.648733 -0.706663 0.159428 0.594162 -0.788387 0.0406099 0.558774 -0.828325 
-0.095665 0.603091 -0.791915 -0.395243 0.765229 -0.508142 -0.256429 0.674034 -0.692764 
-0.400045 0.761031 -0.510682 -0.378565 0.744645 -0.54972 0.578746 0.457864 -0.674843 
0.590713 0.438132 -0.677568 0.392143 0.426645 -0.814983 0.22552 0.349633 -0.909339 
-0.260419 0.487697 -0.833267 -0.357768 0.779278 -0.514518 -0.305461 0.646875 -0.698746 
-0.356969 0.783057 -0.509309 -0.428049 0.741777 -0.516276 0.639382 0.275484 -0.717844 
0.56116 0.243301 -0.791141 0.331765 0.184416 -0.925161 -0.204543 0.509569 -0.835764 
-0.518614 0.703885 -0.485371 -0.385698 0.651832 -0.652956 -0.561057 0.676453 -0.477103 
0.652132 0.170598 -0.738661 0.505157 0.120886 -0.854519 0.305736 0.0384021 -0.951341 
-0.749014 0.490556 -0.445346 -0.501784 0.430955 -0.749993 -0.825962 0.361152 -0.432847 
0.675524 0.0940445 -0.731316 0.668852 0.0744313 -0.73966 0.443712 0.0364696 -0.895427 
-0.870793 0.256489 -0.419443 -0.797049 0.258458 -0.545813 0.64562 0.0186136 -0.763432 
0.630791 0.0176176 -0.775753 0.40804 -0.0177531 -0.912791 0.229506 -0.00519685 -0.973293 
-0.918237 0.024363 -0.395282 -0.805926 0.0363857 -0.590897 0.644349 -0.109883 -0.756796 
0.639776 -0.127116 -0.757977 0.637062 -0.11076 -0.762813 0.433111 -0.0654547 -0.898961 
-0.896933 -0.235077 -0.374501 -0.842265 -0.389433 -0.372736 -0.814244 -0.223596 -0.535734 
0.606389 -0.245361 -0.756366 0.506145 -0.159056 -0.847655 0.373666 -0.0613159 -0.925534 
-0.776929 -0.506195 -0.374365 -0.573694 -0.730049 -0.371354 -0.534583 -0.42277 -0.731769 
0.631198 -0.337225 -0.698476 0.637674 -0.384748 -0.667339 0.60764 -0.306317 -0.732764 
0.457621 -0.147503 -0.876827 -0.397876 -0.856416 -0.329007 -0.532287 -0.762266 -0.368268 
-0.427041 -0.824096 -0.372158 -0.393204 -0.72171 -0.569671 0.626901 -0.475975 -0.616801 
0.540475 -0.618149 -0.57077 0.534499 -0.413314 -0.737213 -0.429388 -0.841635 -0.32753 
-0.543084 -0.778152 -0.315497 -0.472308 -0.685095 -0.55459 0.424416 -0.722773 -0.545409 
0.284092 -0.800531 -0.527676 0.30635 -0.721068 -0.621459 0.122625 -0.867201 -0.482624 
0.134554 -0.733042 -0.666742 0.0467845 -0.877245 -0.477758 0.047486 -0.706633 -0.705985 
-0.00957961 -0.902321 -0.430959 0.0357508 -0.717701 -0.695433 -0.162604 -0.915869 -0.367076 
-0.122105 -0.738288 -0.663341 -0.499712 -0.810445 -0.305724 -0.454266 -0.833562 -0.31435 
-0.438144 -0.782216 -0.442908 0.103631 0.368504 -0.923832 0.0284649 0.36939 -0.928838 
-0.0599406 0.357143 -0.932125 -0.155423 0.340599 -0.927274 0.169635 0.339413 -0.925215 
0.215258 0.285467 -0.933902 0.0934453 0.328426 -0.939896 0.020039 0.297399 -0.954543 
-0.0501823 0.278083 -0.959245 -0.164444 0.342778 -0.924912 -0.147268 0.318118 -0.936543 
-0.162689 0.365978 -0.916293 -0.146662 0.421563 -0.89486 0.289213 0.167998 -0.942408 
0.19369 0.132233 -0.97211 0.107129 0.139555 -0.984402 -0.00499407 0.173379 -0.984843 
-0.0643428 0.104617 -0.992429 -0.0575819 0.112423 -0.991991 -0.0818275 0.26376 -0.961111 
-0.159828 0.44279 -0.882265 -0.129725 0.394873 -0.909531 -0.176955 0.446909 -0.876903 
-0.273746 0.423098 -0.863743 0.305537 0.0383387 -0.951408 0.304586 0.0375258 -0.951745 
0.175757 0.00357176 -0.984427 0.14547 0.0284032 -0.988955 -0.0164315 0.169046 -0.985471 
-0.114138 0.0756899 -0.990577 0.0133161 0.108192 -0.994041 0.0547554 0.102391 -0.993236 
-0.0280117 0.18542 -0.98226 -0.110902 0.243818 -0.963459 -0.350199 0.371636 -0.859795 
-0.231103 0.331825 -0.914595 -0.438966 0.247676 -0.863693 0.241963 -0.0150896 -0.970168 
0.229077 -0.0134765 -0.973315 0.229395 -0.0187539 -0.973153 0.173681 -0.036704 -0.984118 
0.283818 0.0523768 -0.957447 0.0354672 0.159933 -0.98649 -0.120248 0.124636 -0.984889 
-0.0286482 0.318597 -0.947457 -0.0101595 0.126535 -0.99191 0.0216163 0.064153 -0.997706 
-0.0353659 0.136539 -0.990003 -0.171471 0.173612 -0.969771 -0.447749 0.194776 -0.872687 
-0.422055 0.190056 -0.886424 0.224237 0.0015359 -0.974533 0.261406 0.00154885 -0.965228 
0.222809 0.0274393 -0.974476 0.3747 0.119822 -0.919371 0.0114636 0.0678326 -0.997631 
0.0429705 0.095036 -0.994546 0.0299284 0.19288 -0.980766 -0.195081 0.161567 -0.967388 
-0.0233675 0.0832595 -0.996254 -0.00860469 0.0733876 -0.997266 -0.159733 0.0635276 -0.985114 
-0.517125 0.0531758 -0.854257 -0.409272 0.0566381 -0.910653 0.276315 0.00141211 -0.961066 
0.299491 -0.0138433 -0.953999 0.271522 0.00389804 -0.962424 0.285234 0.0872007 -0.954483 
0.32595 0.0702509 -0.942773 0.00954626 -0.00613888 -0.999936 0.017855 0.0925362 -0.995549 
0.0348418 -0.0581157 -0.997702 -0.139364 0.0530648 -0.988818 -0.0589646 0.0302066 -0.997803 
-0.0485404 -0.0437953 -0.997861 -0.185278 -0.0886478 -0.97868 -0.52128 -0.161173 -0.838028 
-0.498117 -0.325087 -0.803864 -0.436056 -0.144553 -0.888234 0.368761 -0.0510077 -0.928124 
0.323308 0.0559417 -0.944639 0.239751 -0.00894807 -0.970793 0.0505431 -0.0767388 -0.995769 
-0.00399829 0.0474708 -0.998865 -0.0146238 -0.0563633 -0.998303 -0.107563 -0.0380566 -0.99347 
-0.127339 -0.107369 -0.986031 -0.125432 -0.23376 -0.96417 -0.470575 -0.397605 -0.787699 
-0.325315 -0.536319 -0.778802 -0.251173 -0.321881 -0.912855 0.42319 -0.128792 -0.89684 
0.348895 -0.11456 -0.930133 0.16465 -0.15247 -0.974497 0.0734118 -0.184019 -0.980177 
0.0417962 -0.124478 -0.991342 -0.0520091 -0.106929 -0.992905 -0.187809 -0.208234 -0.959878 
-0.380394 -0.535459 -0.754045 -0.26528 -0.360411 -0.894277 -0.320966 -0.561025 -0.763041 
-0.317486 -0.556747 -0.767617 -0.304592 -0.533512 -0.789043 0.347745 -0.370931 -0.861095 
0.314934 -0.404995 -0.858368 0.311675 -0.368509 -0.87582 0.147581 -0.572032 -0.806845 
0.15079 -0.367919 -0.91755 0.0502285 -0.589071 -0.806519 0.0744516 -0.397985 -0.914366 
0.047066 -0.633664 -0.772175 0.0707559 -0.39708 -0.915053 -0.11274 -0.668883 -0.734769 
-0.0996013 -0.382697 -0.918489 -0.404532 -0.552505 -0.728761 -0.375672 -0.573407 -0.728062 
-0.353864 -0.459628 -0.814569 
