# vtk DataFile Version 4.2
vtk output
ASCII
DATASET POLYDATA
POINTS 514 float
0.0233339 -27.482 -16.0496 7.40475 -27.482 -17.6481 14.7862 -27.482 -17.8598 
22.1676 -27.482 -17.3613 29.549 -27.482 -16.3662 -22.1209 -20.1006 -16.9834 
-14.7395 -20.1006 -18.7642 -7.35808 -20.1006 -19.397 0.0233339 -20.1006 -18.967 
7.40475 -20.1006 -19.5086 14.7862 -20.1006 -20.3056 22.1676 -20.1006 -20.515 
29.549 -20.1006 -19.8353 36.9304 -20.1006 -19.129 44.3118 -20.1006 -15.9609 
-36.8838 -12.7192 -16.1899 -29.5023 -12.7192 -17.5582 -22.1209 -12.7192 -18.3348 
-14.7395 -12.7192 -20.4009 -7.35808 -12.7192 -20.905 0.0233339 -12.7192 -19.6395 
7.40475 -12.7192 -20.4939 14.7862 -12.7192 -20.9503 22.1676 -12.7192 -21.212 
29.549 -12.7192 -21.2765 36.9304 -12.7192 -21.1248 44.3118 -12.7192 -19.0596 
-36.8838 -5.33777 -17.3301 -29.5023 -5.33777 -18.25 -22.1209 -5.33777 -18.7561 
-14.7395 -5.33777 -20.9852 -7.35808 -5.33777 -21.6757 0.0233339 -5.33777 -20.0349 
7.40475 -5.33777 -22.5306 14.7862 -5.33777 -20.6319 22.1676 -5.33777 -20.1416 
29.549 -5.33777 -20.8185 36.9304 -5.33777 -21.0128 44.3118 -5.33777 -20.5624 
51.6933 -5.33777 -18.0199 -44.2652 2.04365 -16.0015 -36.8838 2.04365 -17.6541 
-29.5023 2.04365 -18.2773 -22.1209 2.04365 -18.657 -14.7395 2.04365 -21.2903 
-7.35808 2.04365 -21.9936 0.0233339 2.04365 -20.4188 7.40475 2.04365 -22.5134 
14.7862 2.04365 -18.7142 22.1676 2.04365 -18.9964 29.549 2.04365 -20.5188 
36.9304 2.04365 -20.61 44.3118 2.04365 -19.7123 51.6933 2.04365 -16.8992 
-36.8838 9.42507 -16.9265 -29.5023 9.42507 -17.7703 -22.1209 9.42507 -18.4598 
-14.7395 9.42507 -20.2403 -7.35808 9.42507 -20.8738 0.0233339 9.42507 -20.0235 
7.40475 9.42507 -21.4475 14.7862 9.42507 -19.7626 22.1676 9.42507 -19.8303 
29.549 9.42507 -20.5807 36.9304 9.42507 -20.2365 44.3118 9.42507 -18.8799 
51.6933 9.42507 -16.0075 -36.8838 16.8065 -16.4537 -29.5023 16.8065 -17.3125 
-22.1209 16.8065 -18.4215 -14.7395 16.8065 -19.3435 -7.35808 16.8065 -19.6215 
0.0233339 16.8065 -19.7572 7.40475 16.8065 -21.2269 14.7862 16.8065 -21.421 
22.1676 16.8065 -20.593 29.549 16.8065 -20.122 36.9304 16.8065 -18.853 
44.3118 16.8065 -16.7245 -29.5023 24.1879 -15.8358 -22.1209 24.1879 -16.9605 
-14.7395 24.1879 -17.917 -7.35808 24.1879 -18.3867 0.0233339 24.1879 -19.3153 
7.40475 24.1879 -20.6894 14.7862 24.1879 -20.8788 22.1676 24.1879 -20.0217 
29.549 24.1879 -18.303 36.9304 24.1879 -15.7968 0.0233339 31.5693 -16.4956 
7.40475 31.5693 -17.3201 14.7862 31.5693 -16.8734 0.0233339 -28.1545 -15.5308 
7.40475 -30.1971 -15.5308 14.7862 -30.631 -15.5308 22.1676 -29.7818 -15.5308 
29.549 -28.4619 -15.5308 -29.5023 -27.482 -9.12371 -22.1209 -22.7403 -15.5308 
-22.1209 -27.482 -11.5735 -14.7395 -25.3147 -15.5308 -14.7395 -27.482 -13.3922 
-3.998 -27.482 -15.5308 -7.35808 -26.7678 -15.5308 -7.35808 -27.482 -14.8778 
32.0772 -27.482 -15.5308 36.9304 -25.452 -15.5308 36.9304 -27.482 -12.8088 
44.3118 -20.6899 -15.5308 -44.2652 -20.1006 -8.19799 -36.8838 -14.2575 -15.5308 
-36.8838 -20.1006 -12.3273 -27.5985 -20.1006 -15.5308 -29.5023 -18.7474 -15.5308 
-29.5023 -20.1006 -14.9872 44.9826 -20.1006 -15.5308 -39.1338 -12.7192 -15.5308 
-44.2652 -12.7192 -13.4985 51.5829 -12.7192 -15.5308 51.6933 -12.5768 -15.5308 
51.6933 -12.7192 -15.4326 -51.6466 -5.33777 -11.4407 -43.674 -5.33777 -15.5308 
-44.2652 -3.40549 -15.5308 -44.2652 -5.33777 -15.374 54.7733 -5.33777 -15.5308 
59.0747 -5.33777 -8.2172 -45.4057 2.04365 -15.5308 -51.6466 2.04365 -12.8325 
-44.2652 6.89028 -15.5308 53.4763 2.04365 -15.5308 59.0747 2.04365 -8.4331 
-51.6466 9.42507 -12.0178 -43.2152 9.42507 -15.5308 -44.2652 9.42507 -15.3021 
52.3153 9.42507 -15.5308 51.6933 10.6923 -15.5308 -51.6466 16.8065 -8.30752 
-40.1696 16.8065 -15.5308 -44.2652 16.8065 -14.2057 -36.8838 18.7713 -15.5308 
46.5807 16.8065 -15.5308 44.3118 18.8504 -15.5308 51.6933 16.8065 -11.5211 
-44.2652 24.1879 -9.13103 -30.4084 24.1879 -15.5308 -36.8838 24.1879 -12.9933 
-29.5023 24.7571 -15.5308 -22.1209 27.077 -15.5308 -14.7395 29.2351 -15.5308 
-7.35808 30.996 -15.5308 22.1676 30.9168 -15.5308 29.549 27.768 -15.5308 
37.4578 24.1879 -15.5308 36.9304 24.4575 -15.5308 44.3118 24.1879 -9.94586 
-29.5023 31.5693 -9.8752 -22.1209 31.5693 -12.1953 -14.7395 31.5693 -13.8083 
-5.78146 31.5693 -15.5308 -7.35808 31.5693 -15.1433 0.0233339 32.7256 -15.5308 
7.40475 33.434 -15.5308 20.1227 31.5693 -15.5308 14.7862 32.7991 -15.5308 
22.1676 31.5693 -14.273 -29.5023 -28.2623 -8.14943 -22.1209 -29.8781 -8.14943 
-14.7395 -30.7529 -8.14943 -7.35808 -31.7546 -8.14943 0.0233339 -33.4173 -8.14943 
7.40475 -34.7253 -8.14943 14.7862 -34.8468 -8.14943 22.1676 -33.5864 -8.14943 
29.549 -32.1889 -8.14943 36.9304 -29.8658 -8.14943 -44.2652 -20.1464 -8.14943 
-31.608 -27.482 -8.14943 -36.8838 -25.0052 -8.14943 -36.8838 -27.482 -4.10981 
41.689 -27.482 -8.14943 44.3118 -25.9249 -8.14943 -44.3212 -20.1006 -8.14943 
51.019 -20.1006 -8.14943 51.6933 -19.285 -8.14943 -50.8262 -12.7192 -8.14943 
-51.6466 -11.5527 -8.14943 -51.6466 -12.7192 -7.00505 56.0415 -12.7192 -8.14943 
59.0747 -5.43055 -8.14943 -54.8665 -5.33777 -8.14943 59.111 -5.33777 -8.14943 
-56.4375 2.04365 -8.14943 -59.028 2.04365 -2.26409 59.2348 2.04365 -8.14943 
59.0747 2.85273 -8.14943 -55.5161 9.42507 -8.14943 57.6949 9.42507 -8.14943 
-51.8339 16.8065 -8.14943 -51.6466 17.039 -8.14943 53.9641 16.8065 -8.14943 
51.6933 19.2968 -8.14943 -45.4649 24.1879 -8.14943 -44.2652 25.1872 -8.14943 
-36.8838 29.7204 -8.14943 29.549 31.0304 -8.14943 36.9304 28.8859 -8.14943 
45.6711 24.1879 -8.14943 44.3118 25.0836 -8.14943 -32.7854 31.5693 -8.14943 
-29.5023 32.7424 -8.14943 -22.1209 34.224 -8.14943 -14.7395 35.0409 -8.14943 
-7.35808 35.9727 -8.14943 0.0233339 36.9882 -8.14943 7.40475 36.8874 -8.14943 
14.7862 35.5351 -8.14943 28.0204 31.5693 -8.14943 22.1676 33.4743 -8.14943 
-36.8838 -29.0598 -0.768009 -29.5023 -31.6408 -0.768009 -22.1209 -32.6381 -0.768009 
-14.7395 -32.7078 -0.768009 -7.35808 -33.3469 -0.768009 0.0233339 -34.6065 -0.768009 
7.40475 -34.7828 -0.768009 14.7862 -33.6287 -0.768009 22.1676 -32.3289 -0.768009 
29.549 -31.0997 -0.768009 36.9304 -28.9973 -0.768009 -39.7186 -27.482 -0.768009 
-44.2652 -24.5622 -0.768009 29.549 -27.482 5.81561 39.7722 -27.482 -0.768009 
36.9304 -27.482 1.68194 44.3118 -24.9252 -0.768009 -49.534 -20.1006 -0.768009 
-51.6466 -17.6495 -0.768009 50.232 -20.1006 -0.768009 44.3118 -20.1006 6.08199 
51.6933 -18.4017 -0.768009 -55.4413 -12.7192 -0.768009 55.4395 -12.7192 -0.768009 
51.6933 -12.7192 5.28246 59.0747 -5.78447 -0.768009 -58.1994 -5.33777 -0.768009 
-59.028 -1.02547 -0.768009 59.2568 -5.33777 -0.768009 59.0747 -5.33777 -0.252133 
-59.6014 2.04365 -0.768009 -59.028 7.01674 -0.768009 -59.028 2.04365 3.88279 
59.7825 2.04365 -0.768009 59.0747 6.36019 -0.768009 59.0747 2.04365 1.16136 
-58.7503 9.42507 -0.768009 58.5051 9.42507 -0.768009 -55.0615 16.8065 -0.768009 
-51.6466 21.4331 -0.768009 54.9073 16.8065 -0.768009 51.6933 20.2678 -0.768009 
51.6933 16.8065 6.28081 -48.8656 24.1879 -0.768009 -44.2652 27.7795 -0.768009 
-44.2652 24.1879 6.28058 -36.8838 31.2773 -0.768009 29.549 30.3707 -0.768009 
36.9304 28.8602 -0.768009 46.1562 24.1879 -0.768009 44.3118 25.2692 -0.768009 
44.3118 24.1879 3.09305 -35.939 31.5693 -0.768009 -29.5023 33.2934 -0.768009 
-29.5023 31.5693 3.31477 -22.1209 34.3556 -0.768009 -22.1209 31.5693 5.2784 
-14.7395 34.8743 -0.768009 -14.7395 31.5693 5.90865 -7.35808 35.0726 -0.768009 
-7.35808 31.5693 6.32198 0.0233339 35.6314 -0.768009 7.40475 35.4177 -0.768009 
14.7862 34.0539 -0.768009 14.7862 31.5693 4.47022 24.3704 31.5693 -0.768009 
22.1676 32.0599 -0.768009 22.1676 31.5693 0.41961 -36.8838 -30.1351 6.61341 
-29.5023 -32.063 6.61341 -22.1209 -32.899 6.61341 -14.7395 -32.4825 6.61341 
-7.35808 -33.0174 6.61341 0.0233339 -34.207 6.61341 7.40475 -33.2976 6.61341 
14.7862 -30.449 6.61341 22.1676 -28.6883 6.61341 -41.9365 -27.482 6.61341 
-44.2652 -25.9807 6.61341 14.7862 -27.482 11.9307 27.6225 -27.482 6.61341 
22.1676 -27.482 8.44549 29.549 -26.9905 6.61341 36.9304 -24.4201 6.61341 
-50.4072 -20.1006 6.61341 -51.6466 -18.3606 6.61341 43.7502 -20.1006 6.61341 
36.9304 -20.1006 11.3678 44.3118 -19.6689 6.61341 -55.1559 -12.7192 6.61341 
-51.6466 -12.7192 13.7914 50.7562 -12.7192 6.61341 44.3118 -12.7192 12.3626 
51.6933 -11.0931 6.61341 -57.5848 -5.33777 6.61341 55.2619 -5.33777 6.61341 
51.6933 -5.33777 10.1421 -58.6726 2.04365 6.61341 56.3665 2.04365 6.61341 
51.6933 2.04365 11.2709 -57.2745 9.42507 6.61341 55.4591 9.42507 6.61341 
51.6933 16.4862 6.61341 51.6933 9.42507 10.4232 -52.9163 16.8065 6.61341 
-51.6466 18.3116 6.61341 -51.6466 16.8065 8.07048 -44.2652 24.0116 6.61341 
51.4714 16.8065 6.61341 44.3118 22.8276 6.61341 44.3118 16.8065 12.2452 
-43.9304 24.1879 6.61341 -36.8838 28.1105 6.61341 -36.8838 24.1879 11.008 
-29.5023 29.6721 6.61341 -29.5023 24.1879 11.963 -22.1209 30.6967 6.61341 
-22.1209 24.1879 12.8502 -14.7395 31.1251 6.61341 -14.7395 24.1879 13.2079 
-7.35808 31.3926 6.61341 -7.35808 24.1879 13.9277 14.7862 30.382 6.61341 
22.1676 28.7414 6.61341 22.1676 24.1879 12.5306 29.549 27.3048 6.61341 
29.549 24.1879 10.8241 41.0168 24.1879 6.61341 36.9304 25.5128 6.61341 
36.9304 24.1879 8.44616 -2.40993 31.5693 6.61341 0.0233339 31.6483 6.61341 
0.0233339 31.5693 6.7195 7.99246 31.5693 6.61341 7.40475 31.6657 6.61341 
7.40475 31.5693 6.75136 -36.8838 -28.214 13.9948 -29.5023 -30.1508 13.9948 
-22.1209 -30.4114 13.9948 -14.7395 -29.4889 13.9948 -7.35808 -30.0069 13.9948 
0.0233339 -31.5115 13.9948 7.40475 -30.2243 13.9948 -38.1732 -27.482 13.9948 
-44.2652 -22.9327 13.9948 -36.8838 -27.482 15.0601 -29.5023 -27.482 17.3971 
-22.1209 -27.482 17.6866 -14.7395 -27.482 16.4361 -7.35808 -27.482 17.1307 
0.0233339 -27.482 18.7816 12.4927 -27.482 13.9948 7.40475 -27.482 17.4778 
14.7862 -26.1511 13.9948 22.1676 -22.839 13.9948 29.549 -20.3794 13.9948 
-46.9011 -20.1006 13.9948 -44.2652 -20.1006 16.7958 -36.8838 -20.1006 20.3174 
14.7862 -20.1006 19.6872 22.1676 -20.1006 16.6017 30.2205 -20.1006 13.9948 
[...]
POINT_DATA 514
SCALARS ImageScalars float
LOOKUP_TABLE default
0 0 0 0 0 0 0 0 0 
0 0 0 0 0 0 0 0 0 
0 0 0 0 0 0 0 0 0 
0 0 0 0 0 0 0 0 0 
0 0 0 0 0 0 0 0 0 
0 0 0 0 0 0 0 0 0 
0 0 0 0 0 0 0 0 0 
0 0 0 0 0 0 0 0 0 
0 0 0 0 0 0 0 0 0 
0 0 0 0 0 0 0 0 0 
0 0 0 0 0 0 0 0 0 
0 0 0 0 0 0 0 0 0 
0 0 0 0 0 0 0 0 0 
0 0 0 0 0 0 0 0 0 
0 0 0 0 0 0 0 0 0 
0 0 0 0 0 0 0 0 0 
0 0 0 0 0 0 0 0 0 
0 0 0 0 0 0 0 0 0 
0 0 0 0 0 0 0 0 0 
0 0 0 0 0 0 0 0 0 
0 0 0 0 0 0 0 0 0 
0 0 0 0 0 0 0 0 0 
0 0 0 0 0 0 0 0 0 
0 0 0 0 0 0 0 0 0 
0 0 0 0 0 0 0 0 0 
0 0 0 0 0 0 0 0 0 
0 0 0 0 0 0 0 0 0 
0 0 0 0 0 0 0 0 0 
0 0 0 0 0 0 0 0 0 
0 0 0 0 0 0 0 0 0 
0 0 0 0 0 0 0 0 0 
0 0 0 0 0 0 0 0 0 
0 0 0 0 0 0 0 0 0 
0 0 0 0 0 0 0 0 0 
0 0 0 0 0 0 0 0 0 
0 0 0 0 0 0 0 0 0 
0 0 0 0 0 0 0 0 0 
0 0 0 0 0 0 0 0 0 
0 0 0 0 0 0 0 0 0 
0 0 0 0 0 0 0 0 0 
0 0 0 0 0 0 0 0 0 
0 0 0 0 0 0 0 0 0 
0 0 0 0 0 0 0 0 0 
0 0 0 0 0 0 0 0 0 
0 0 0 0 0 0 0 0 0 
0 0 0 0 0 0 0 0 0 
0 0 0 0 0 0 0 0 0 
0 0 0 0 0 0 0 0 0 
0 0 0 0 0 0 0 0 0 
0 0 0 0 0 0 0 0 0 
0 0 0 0 0 0 0 0 0 
0 0 0 0 0 0 0 0 0 
0 0 0 0 0 0 0 0 0 
0 0 0 0 0 0 0 0 0 
0 0 0 0 0 0 0 0 0 
0 0 0 0 0 0 0 0 0 
0 0 0 0 0 0 0 0 0 
0 
NORMALS Normals float
0.15406 0.545396 0.823899 0.11564 0.463338 0.878604 -0.0184923 0.488747 0.872229 
-0.0904494 0.551952 0.828956 -0.204014 0.630764 0.748675 0.233634 0.333 0.913524 
0.154595 0.365555 0.917862 0.0113907 0.339559 0.940516 0.00919567 0.220482 0.975348 
0.0870257 0.17231 0.981191 0.066457 0.193709 0.978806 -0.032681 0.233802 0.971735 
-0.0888024 0.288586 0.953327 -0.214606 0.387352 0.896606 -0.477612 0.50332 0.720109 
0.237198 0.277524 0.930977 0.142 0.200496 0.969349 0.188567 0.114421 0.975372 
0.170475 0.138859 0.975529 -0.0533281 0.144721 0.988034 -0.0289265 0.0701313 0.997118 
0.0899872 0.200601 0.975531 0.0472272 0.0225297 0.99863 0.0221583 -0.0282043 0.999357 
-0.00531765 0.0683859 0.997645 -0.151481 0.130578 0.979797 -0.33438 0.263591 0.904826 
0.183601 0.100097 0.977891 0.0951482 0.0504959 0.994182 0.168735 0.0204734 0.985449 
0.209037 0.0592066 0.976114 -0.0681411 0.0740987 0.99492 0.0592977 0.0539723 0.99678 
0.0500667 0.13412 0.9897 -0.165122 -0.149595 0.974862 0.015988 -0.149466 0.988638 
0.0599233 -0.0502745 0.996936 -0.0194298 -0.0340523 0.999231 -0.207244 0.0404956 0.977451 
-0.531828 0.0837214 0.842704 0.306249 -0.00441425 0.951941 0.1452 -0.0266359 0.989044 
0.0675556 -0.0322976 0.997193 0.179489 -0.0195691 0.983565 0.243869 -0.0505144 0.968492 
-0.0657687 -0.0542375 0.99636 0.0289477 -0.0011268 0.99958 -0.104996 -0.0769174 0.991494 
-0.225899 -0.0565045 0.972511 0.114988 -0.0209049 0.993147 0.11267 -0.0167011 0.993492 
-0.0529923 -0.0511376 0.997285 -0.223957 -0.116466 0.967615 -0.513232 -0.1404 0.846688 
0.151806 -0.0741876 0.985622 0.100325 -0.0636008 0.99292 0.159173 -0.016249 0.987117 
0.164917 -0.129155 0.977814 -0.0179479 -0.163556 0.986371 0.0421734 -0.0448173 0.998105 
-0.00742329 -0.0799795 0.996769 -0.115457 0.188611 0.975241 0.0546905 0.108545 0.992586 
0.0286587 -0.0264642 0.999239 -0.115987 -0.114913 0.986581 -0.266807 -0.16918 0.948784 
-0.544776 -0.226461 0.807425 0.202061 -0.251049 0.94665 0.126549 -0.135392 0.982677 
0.13499 -0.100794 0.985707 0.0789669 -0.143542 0.986489 0.0275972 -0.157924 0.987066 
0.109058 -0.0466493 0.99294 0.112994 -0.0495741 0.992358 -0.0427966 0.0641917 0.997019 
-0.0867452 0.016266 0.996098 -0.113032 -0.137029 0.984097 -0.200425 -0.242351 0.949261 
-0.378362 -0.409991 0.82991 0.24061 -0.358796 0.901871 0.133692 -0.32302 0.936901 
0.0959085 -0.305832 0.947243 0.0888715 -0.269025 0.959024 0.147984 -0.197839 0.969 
0.101414 -0.223664 0.969376 -0.0419408 -0.252199 0.966766 -0.170816 -0.300422 0.938386 
-0.246806 -0.451339 0.857543 -0.365123 -0.607517 0.705413 0.126806 -0.574304 0.808761 
0.0281146 -0.639262 0.768475 -0.124561 -0.731325 0.670558 0.162575 0.580984 0.797513 
0.124859 0.641145 0.757195 -0.022452 0.670264 0.741783 -0.109509 0.678452 0.726437 
-0.215745 0.681615 0.699181 0.257627 0.762742 0.593172 0.232768 0.463991 0.854711 
0.191611 0.762385 0.618105 0.148747 0.62146 0.769195 0.140161 0.763496 0.630419 
0.137059 0.628247 0.765846 0.111123 0.658946 0.743937 0.125014 0.705749 0.697345 
-0.253465 0.675391 0.692534 -0.31345 0.649627 0.692628 -0.358597 0.810176 0.463706 
-0.483248 0.526882 0.69919 0.519981 0.63423 0.572164 0.253082 0.324809 0.91129 
0.342761 0.533999 0.772891 0.251041 0.408159 0.877716 0.236024 0.390113 0.890002 
0.26024 0.437147 0.860917 -0.495384 0.514517 0.699905 0.292931 0.293645 0.909925 
0.446377 0.361541 0.818557 -0.602257 0.395134 0.693654 -0.606334 0.390091 0.692956 
-0.609895 0.397729 0.685448 0.627922 0.271597 0.729348 0.329167 0.128476 0.935491 
0.334076 0.0968017 0.937562 0.342346 0.132923 0.930124 -0.706071 0.103525 0.700533 
-0.942368 0.195938 0.271201 0.338526 -0.000913881 0.940957 0.555809 0.0315375 0.830711 
0.304651 -0.0665218 0.950138 -0.608168 -0.136734 0.781943 -0.941182 -0.0881776 0.326192 
0.58415 -0.243702 0.774195 0.279582 -0.096028 0.955307 0.303461 -0.100529 0.947526 
-0.573968 -0.230459 0.785779 -0.559116 -0.271809 0.783268 0.642068 -0.487695 0.591525 
0.29867 -0.275193 0.913819 0.426149 -0.317112 0.847253 0.236442 -0.313285 0.919754 
-0.443384 -0.443659 0.778831 -0.412962 -0.483485 0.771819 -0.657366 -0.560995 0.503144 
0.530786 -0.633941 0.562481 0.253435 -0.370873 0.893434 0.357507 -0.505492 0.785281 
0.243963 -0.38455 0.890283 0.149382 -0.444141 0.883416 0.127819 -0.540757 0.831411 
0.131568 -0.586178 0.799428 -0.261418 -0.768441 0.584088 -0.319069 -0.683835 0.656175 
-0.37549 -0.615454 0.692982 -0.367815 -0.622802 0.690528 -0.519249 -0.785592 0.336489 
0.284624 -0.830919 0.478082 0.177373 -0.769938 0.612971 0.139463 -0.721789 0.677916 
0.131952 -0.606642 0.783948 0.135874 -0.63247 0.762575 0.121166 -0.633563 0.764145 
-0.00123123 -0.734927 0.678145 -0.227508 -0.788874 0.570893 -0.141781 -0.794079 0.591047 
-0.271697 -0.841132 0.467629 0.252453 0.792992 0.554464 0.151212 0.866035 0.476569 
0.115605 0.91332 0.39049 0.167798 0.918386 0.358344 0.188839 0.926953 0.324189 
0.0891518 0.973739 0.209484 -0.0781398 0.99048 0.113327 -0.172236 0.979302 0.106314 
-0.254708 0.959778 0.118111 -0.37488 0.913768 0.156499 0.520713 0.635347 0.570256 
0.294168 0.775777 0.558243 0.396224 0.705508 0.587593 0.411345 0.823441 0.39082 
-0.484756 0.862637 0.14446 -0.552756 0.819916 0.148989 0.521838 0.63456 0.570105 
-0.713935 0.67756 0.17666 -0.738075 0.651349 0.176043 0.649287 0.481553 0.588671 
0.671634 0.453323 0.586008 0.690974 0.494682 0.527111 -0.880197 0.4299 0.201095 
-0.942808 0.198908 0.267487 0.776607 0.273613 0.567466 -0.94324 0.196361 0.267846 
0.819845 0.0370995 0.571383 0.979321 0.0350711 0.199247 -0.945899 -0.0876915 0.312387 
-0.943085 -0.11081 0.313547 0.789625 -0.215581 0.574472 -0.897155 -0.30417 0.320302 
0.647872 -0.490255 0.58302 0.644775 -0.496725 0.580972 -0.757305 -0.574465 0.310612 
-0.691318 -0.655461 0.304057 0.57576 -0.642493 0.505672 0.547505 -0.664429 0.508696 
0.40138 -0.801624 0.44305 -0.29762 -0.948699 0.106734 -0.363945 -0.907885 0.208061 
-0.542677 -0.805414 0.238348 -0.511839 -0.82922 0.224531 0.337551 -0.859274 0.384326 
0.279059 -0.889656 0.36144 0.152541 -0.944038 0.292444 0.122603 -0.961165 0.247246 
0.135037 -0.972194 0.191321 0.0618323 -0.988954 0.134711 -0.0975131 -0.990676 0.0951431 
-0.235516 -0.969904 0.0618009 -0.291623 -0.952445 0.0883395 -0.280131 -0.958973 0.0435688 
0.400637 0.876589 0.266612 0.215965 0.950951 0.221474 0.0716458 0.980104 0.185103 
0.047368 0.993057 0.107675 0.12754 0.988816 0.0773117 0.0963767 0.9942 0.0477295 
-0.0588258 0.994902 -0.0819174 -0.157947 0.951976 -0.262287 -0.155747 0.93652 -0.314124 
-0.191366 0.933645 -0.302797 -0.360557 0.880364 -0.308151 0.471182 0.837777 0.275894 
0.579766 0.763938 0.283319 -0.237163 0.818005 -0.524043 -0.424865 0.854067 -0.300099 
-0.345875 0.83966 -0.418739 -0.535896 0.797189 -0.278037 0.700232 0.670067 0.246344 
0.756554 0.61161 0.231428 -0.676846 0.682554 -0.275679 -0.506783 0.634056 -0.584075 
-0.728329 0.629422 -0.270859 0.84249 0.500464 0.199368 -0.845312 0.462712 -0.267106 
-0.72347 0.440851 -0.531264 -0.947863 0.263944 -0.178576 0.960851 0.232297 0.151011 
0.984473 0.111064 0.135931 -0.951855 0.25121 -0.175683 -0.945728 0.254596 -0.20194 
0.991432 0.0337228 0.126194 0.980419 -0.167168 0.104081 0.98826 0.00140353 -0.152774 
-0.987121 -0.0447539 -0.153589 -0.974337 -0.189842 -0.120945 -0.965974 -0.0387537 -0.255719 
0.9603 -0.263153 0.0925948 -0.951069 -0.291172 -0.103378 0.836018 -0.547204 0.0405324 
0.739202 -0.672755 0.0313407 -0.806163 -0.579734 -0.118362 -0.697116 -0.706976 -0.119224 
-0.671236 -0.54604 -0.501281 0.650024 -0.759857 -0.00925969 0.526823 -0.849132 -0.0378537 
0.444714 -0.73342 -0.514125 0.339659 -0.937237 -0.0788546 -0.198004 -0.953538 -0.227067 
-0.312735 -0.930727 -0.189592 -0.51139 -0.852209 -0.110546 -0.463856 -0.878314 -0.115766 
-0.448831 -0.845018 -0.290682 0.319571 -0.943258 -0.0902127 0.198108 -0.967435 -0.157552 
0.170192 -0.904667 -0.390657 0.101718 -0.979297 -0.175018 0.079273 -0.834518 -0.545248 
0.0514417 -0.970609 -0.235102 0.0344211 -0.831297 -0.554761 0.0489746 -0.958942 -0.279341 
0.0278065 -0.831288 -0.555146 0.0228678 -0.945152 -0.32583 -0.104515 -0.939119 -0.32731 
-0.21447 -0.927387 -0.306524 -0.184101 -0.868299 -0.460612 -0.223528 -0.935337 -0.274188 
-0.234966 -0.927257 -0.291522 -0.227418 -0.918823 -0.322561 0.358006 0.932217 -0.0529392 
0.173693 0.980502 -0.0919042 0.0281421 0.991158 -0.129665 0.00747072 0.982047 -0.188488 
0.115125 0.973921 -0.195509 0.0258586 0.982879 -0.182428 -0.228346 0.935168 -0.270774 
-0.277626 0.864696 -0.418598 -0.189924 0.842544 -0.504033 0.522703 0.85058 -0.0573991 
0.608308 0.79068 -0.0691914 -0.344985 0.77811 -0.524911 -0.226997 0.813248 -0.535818 
-0.208273 0.816381 -0.538651 -0.238913 0.798925 -0.551942 -0.335581 0.732371 -0.592468 
0.772442 0.620188 -0.136745 0.806404 0.570247 -0.156622 -0.49131 0.628999 -0.602475 
-0.368404 0.613201 -0.698758 -0.503503 0.61749 -0.60431 0.881318 0.430638 -0.194497 
0.721032 0.371294 -0.585024 -0.683345 0.435448 -0.586025 -0.492503 0.435268 -0.753646 
-0.702021 0.401682 -0.588063 0.940867 0.208416 -0.267081 -0.759824 0.283704 -0.584961 
-0.662434 0.276538 -0.69621 0.946501 -0.0194651 -0.322114 -0.82 0.0040879 -0.572349 
-0.674422 0.00929018 -0.738288 0.89931 -0.295326 -0.322528 -0.796454 -0.254393 -0.548584 
-0.669093 -0.528833 -0.522159 -0.671888 -0.227463 -0.70486 0.695681 -0.580379 -0.423307 
0.656347 -0.626096 -0.420966 0.655525 -0.577592 -0.486492 0.438241 -0.723733 -0.533062 
-0.660827 -0.541697 -0.519492 -0.435016 -0.763564 -0.477212 -0.431642 -0.507207 -0.74594 
0.430891 -0.726871 -0.534782 0.26527 -0.80798 -0.526118 0.249227 -0.684007 -0.68558 
0.130133 -0.788928 -0.600548 0.088872 -0.681574 -0.726332 0.0749158 -0.778455 -0.623214 
0.0633525 -0.623535 -0.779225 0.0359218 -0.805746 -0.591171 0.0553789 -0.598531 -0.799183 
0.0276597 -0.822602 -0.567944 0.0659386 -0.574606 -0.81577 -0.167636 -0.833985 -0.525706 
-0.176701 -0.850184 -0.495948 -0.153763 -0.675621 -0.721036 -0.187036 -0.849563 -0.493215 
-0.179443 -0.74571 -0.641652 -0.339418 -0.812629 -0.473739 -0.249349 -0.833101 -0.493729 
-0.245382 -0.798362 -0.549915 0.0189677 -0.823158 -0.567496 0.0149559 -0.822724 -0.568245 
0.0153004 -0.821025 -0.570686 -0.0783589 -0.839263 -0.53805 -0.0704151 -0.839207 -0.539234 
-0.069756 -0.837402 -0.542118 0.380477 0.814878 -0.437278 0.136444 0.879189 -0.456519 
-0.0391748 0.857224 -0.513452 -0.0249746 0.836709 -0.547077 0.120111 0.839215 -0.53037 
0.0196401 0.859044 -0.511526 -0.293786 0.817184 -0.495884 0.427607 0.786898 -0.444909 
0.615949 0.607881 -0.501086 0.384029 0.778414 -0.496582 0.119166 0.733324 -0.669355 
-0.0487981 0.715584 -0.69682 -0.0269872 0.756721 -0.65318 0.11669 0.745726 -0.655954 
0.0233742 0.687153 -0.726136 -0.356645 0.758073 -0.546013 -0.293623 0.700672 -0.650265 
-0.37287 0.726197 -0.577586 -0.271405 0.690496 -0.670488 -0.258029 0.624397 -0.737258 
0.671908 0.532386 -0.514883 0.579401 0.484154 -0.65566 0.277077 0.346806 -0.896077 
-0.317681 0.483527 -0.815647 -0.283878 0.618594 -0.732635 -0.267685 0.616785 -0.740217 
-0.259065 0.617743 -0.742482 -0.375824 0.504668 -0.777217 0.712472 0.366717 -0.59825 
0.716479 0.356079 -0.599888 0.448634 0.200701 -0.870888 -0.200632 0.334199 -0.920901 
-0.293081 0.385612 -0.874875 -0.440057 0.423259 -0.79196 -0.381855 0.413851 -0.826386 
-0.479883 0.327021 -0.814107 0.760582 0.121024 -0.637862 0.68267 0.115038 -0.721615 
0.384549 0.0672 -0.920656 -0.238384 0.116564 -0.96415 -0.346895 0.19165 -0.918114 
-0.524666 0.239805 -0.816835 -0.470175 0.232079 -0.851513 0.722734 -0.0467052 -0.689546 
0.634732 -0.0785583 -0.768729 0.371728 -0.108781 -0.921946 -0.157918 -0.0985584 -0.982521 
-0.284553 -0.0404455 -0.957807 -0.56374 0.00329002 -0.825946 -0.464619 0.00507873 -0.885496 
0.582057 -0.352098 -0.732964 0.555891 -0.378938 -0.739859 0.547193 -0.354693 -0.758138 
0.372867 -0.34432 -0.861634 0.189919 -0.311592 -0.931043 -0.252601 -0.268365 -0.929609 
-0.102976 -0.297269 -0.949224 -0.100165 -0.278361 -0.955239 -0.237228 -0.252459 -0.938076 
-0.500979 -0.218846 -0.837333 -0.42856 -0.356425 -0.83024 -0.432632 -0.226331 -0.872699 
0.399948 -0.551751 -0.731855 0.371909 -0.568915 -0.733498 0.373833 -0.552067 -0.7453 
0.212934 -0.602264 -0.769374 0.19629 -0.55053 -0.811411 0.0739869 -0.652407 -0.754248 
0.0746575 -0.540425 -0.838073 0.0476277 -0.604405 -0.795253 0.0145308 -0.550083 -0.834984 
0.0491586 -0.58314 -0.810883 -0.0155983 -0.54241 -0.839969 0.0661405 -0.572184 -0.817454 
0.0614109 -0.496311 -0.86597 0.147182 -0.498151 -0.854508 -0.0445245 -0.489576 -0.870823 
-0.203235 -0.403311 -0.892208 -0.145593 -0.588944 -0.794951 -0.118203 -0.409046 -0.904826 
-0.147648 -0.588383 -0.794988 -0.114663 -0.45764 -0.881713 -0.306893 -0.491255 -0.81516 
-0.230528 -0.548127 -0.803998 -0.224364 -0.482895 -0.846447 0.0664781 -0.578482 -0.812982 
0.0670248 -0.623945 -0.778589 0.0725531 -0.611872 -0.787622 -0.0206604 -0.693209 -0.720441 
-0.0138862 -0.663757 -0.747819 -0.137827 -0.64123 -0.754869 -0.13614 -0.644902 -0.752042 
-0.136587 -0.639683 -0.756406 0.0962127 0.333685 -0.937762 -0.000540465 0.335153 -0.942164 
0.0512072 0.402251 -0.914096 0.10767 0.527529 -0.842687 0.000265872 0.496663 -0.867944 
-0.236507 0.367876 -0.899295 0.137228 0.308138 -0.941392 0.235969 0.191119 -0.952781 
0.0929352 0.299511 -0.949556 0.00719691 0.273051 -0.961973 0.0625453 0.364069 -0.929269 
0.105241 0.443417 -0.890116 -0.0469168 0.340269 -0.939157 -0.255895 0.347442 -0.902109 
-0.222114 0.275509 -0.935286 -0.196702 0.306918 -0.931187 0.258143 0.14292 -0.955477 
0.223473 0.13513 -0.965298 0.0636576 0.0969813 -0.993248 0.0252046 0.0697503 -0.997246 
0.15666 0.0729863 -0.984952 0.108165 0.124759 -0.986274 -0.1439 0.0249948 -0.989276 
-0.16573 0.0167624 -0.986029 -0.195333 0.32552 -0.925139 -0.119657 0.207034 -0.970989 
-0.197886 0.320944 -0.926194 0.298882 0.0555464 -0.952672 0.182957 0.0442796 -0.982123 
0.0239906 0.0242957 -0.999417 -0.0205516 0.0328269 -0.99925 0.135815 -0.000618078 -0.990734 
0.0548319 -0.0676944 -0.996198 -0.170949 -0.11303 -0.978775 -0.0383002 0.00205746 -0.999264 
0.0109 0.0306405 -0.999471 -0.221213 0.103199 -0.96975 -0.137772 0.0431108 -0.989525 
0.283792 -0.105679 -0.953045 0.187225 -0.248349 -0.950405 0.18573 -0.10997 -0.976428 
0.0557691 -0.101769 -0.993244 0.00139974 -0.0500131 -0.998748 0.0592772 -0.0430463 -0.997313 
-0.00467782 -0.16887 -0.985627 -0.0705892 -0.0658105 -0.995332 -0.0298337 0.0708062 -0.997044 
-0.232279 -0.252048 -0.939425 -0.0764769 -0.127395 -0.988899 -0.144379 -0.129289 -0.98104 
-0.113456 -0.221941 -0.968437 -0.118577 -0.189147 -0.974763 0.128761 -0.312955 -0.940999 
0.0828893 -0.337039 -0.937835 0.0837156 -0.316589 -0.944861 0.0353607 -0.356837 -0.933497 
0.0387911 -0.287273 -0.957063 -0.00803302 -0.373298 -0.927677 0.00560048 -0.30322 -0.952904 
0.0356863 -0.418646 -0.907448 0.030823 -0.38455 -0.922589 0.118732 -0.357595 -0.926298 
0.0851591 -0.237445 -0.967661 -0.241653 -0.259457 -0.935033 -0.060909 -0.411388 -0.909423 
-0.09936 -0.149361 -0.983778 
