# vtk DataFile Version 4.2
vtk output
ASCII
DATASET POLYDATA
POINTS 582 float
15.5667 -33.0777 -13.1107 23.1407 -33.0777 -13.9983 30.7147 -33.0777 -14.8779 
38.2887 -33.0777 -13.7572 -52.5991 -25.5038 -13.6254 -45.0251 -25.5038 -16.142 
-37.4511 -25.5038 -16.7463 -29.8771 -25.5038 -16.8025 -22.3032 -25.5038 -15.258 
-14.7292 -25.5038 -13.4855 0.418775 -25.5038 -13.6406 7.99275 -25.5038 -14.986 
15.5667 -25.5038 -16.4695 23.1407 -25.5038 -16.7792 30.7147 -25.5038 -17.2083 
38.2887 -25.5038 -16.9008 45.8626 -25.5038 -15.9876 -60.173 -17.9298 -13.5637 
-52.5991 -17.9298 -16.8423 -45.0251 -17.9298 -17.7044 -37.4511 -17.9298 -18.2622 
-29.8771 -17.9298 -18.2343 -22.3032 -17.9298 -17.1764 -14.7292 -17.9298 -16.3013 
-7.1552 -17.9298 -15.5854 0.418775 -17.9298 -15.3708 7.99275 -17.9298 -16.233 
15.5667 -17.9298 -16.4895 23.1407 -17.9298 -17.2843 30.7147 -17.9298 -18.348 
38.2887 -17.9298 -18.2146 45.8626 -17.9298 -17.2974 53.4366 -17.9298 -16.3639 
-60.173 -10.3558 -12.955 -52.5991 -10.3558 -16.9639 -45.0251 -10.3558 -18.9467 
-37.4511 -10.3558 -18.7143 -29.8771 -10.3558 -18.0856 -22.3032 -10.3558 -17.1259 
-14.7292 -10.3558 -16.836 -7.1552 -10.3558 -17.4007 0.418775 -10.3558 -15.5335 
7.99275 -10.3558 -17.3676 15.5667 -10.3558 -16.1546 23.1407 -10.3558 -17.0983 
30.7147 -10.3558 -17.9425 38.2887 -10.3558 -18.4895 45.8626 -10.3558 -18.1684 
53.4366 -10.3558 -17.3067 61.0106 -10.3558 -13.6721 -60.173 -2.78185 -12.8842 
-52.5991 -2.78185 -16.7524 -45.0251 -2.78185 -18.501 -37.4511 -2.78185 -18.4552 
-29.8771 -2.78185 -17.7302 -22.3032 -2.78185 -16.3386 -14.7292 -2.78185 -15.3157 
-7.1552 -2.78185 -18.1375 0.418775 -2.78185 -14.5102 7.99275 -2.78185 -20.0478 
15.5667 -2.78185 -16.9366 23.1407 -2.78185 -16.6554 30.7147 -2.78185 -17.8793 
38.2887 -2.78185 -18.433 45.8626 -2.78185 -18.2213 53.4366 -2.78185 -17.2299 
61.0106 -2.78185 -13.5462 -60.173 4.79213 -13.21 -52.5991 4.79213 -16.5695 
-45.0251 4.79213 -17.4138 -37.4511 4.79213 -17.6931 -29.8771 4.79213 -17.0591 
-22.3032 4.79213 -15.7217 -14.7292 4.79213 -14.1487 -7.1552 4.79213 -18.7511 
0.418775 4.79213 -16.9334 7.99275 4.79213 -18.5307 15.5667 4.79213 -16.6913 
23.1407 4.79213 -16.751 30.7147 4.79213 -17.5736 38.2887 4.79213 -17.9353 
45.8626 4.79213 -17.6019 53.4366 4.79213 -16.6208 61.0106 4.79213 -13.0897 
-52.5991 12.3661 -13.5109 -45.0251 12.3661 -15.5415 -37.4511 12.3661 -17.039 
-29.8771 12.3661 -16.1919 -22.3032 12.3661 -15.2734 -14.7292 12.3661 -14.9192 
-7.1552 12.3661 -17.3357 0.418775 12.3661 -17.1485 7.99275 12.3661 -17.6671 
15.5667 12.3661 -17.1102 23.1407 12.3661 -16.8982 30.7147 12.3661 -17.2 
38.2887 12.3661 -17.5827 45.8626 12.3661 -15.8644 53.4366 12.3661 -13.6157 
-45.0251 19.9401 -13.1742 -37.4511 19.9401 -14.2734 -29.8771 19.9401 -15.2718 
-22.3032 19.9401 -15.2646 -14.7292 19.9401 -16.1295 -7.1552 19.9401 -17.2179 
0.418775 19.9401 -17.1183 7.99275 19.9401 -17.9831 15.5667 19.9401 -17.5172 
23.1407 19.9401 -16.6293 30.7147 19.9401 -15.8983 38.2887 19.9401 -15.0599 
45.8626 19.9401 -13.7553 -29.8771 27.5141 -12.685 -22.3032 27.5141 -14.5606 
-14.7292 27.5141 -16.0943 -7.1552 27.5141 -16.4396 0.418775 27.5141 -16.4554 
7.99275 27.5141 -16.8024 15.5667 27.5141 -15.9437 23.1407 27.5141 -14.3429 
30.7147 27.5141 -13.6373 -14.7292 35.088 -12.6204 -7.1552 35.088 -13.4093 
0.418775 35.088 -13.1723 7.99275 35.088 -12.5769 15.5667 -33.7859 -12.5595 
23.1407 -34.886 -12.5595 30.7147 -36.1683 -12.5595 38.2887 -34.763 -12.5595 
-52.5991 -27.5085 -12.5595 -52.5991 -33.0777 -7.89118 -45.0251 -32.5927 -12.5595 
-45.0251 -33.0777 -12.0351 -37.4511 -32.1728 -12.5595 -37.4511 -33.0777 -11.745 
-29.8771 -31.1197 -12.5595 -29.8771 -33.0777 -10.2655 -22.3032 -29.6332 -12.5595 
-22.3032 -33.0777 -8.9221 -14.7292 -26.7543 -12.5595 -14.7292 -33.0777 -5.47329 
-7.1552 -33.0777 -5.60495 0.418775 -27.4955 -12.5595 0.418775 -33.0777 -8.4192 
12.8529 -33.0777 -12.5595 7.99275 -31.0108 -12.5595 7.99275 -33.0777 -11.2479 
41.7077 -33.0777 -12.5595 45.8626 -31.0253 -12.5595 45.8626 -33.0777 -10.4091 
-54.8771 -25.5038 -12.5595 -60.173 -20.6971 -12.5595 -60.173 -25.5038 -9.56383 
-7.84938 -25.5038 -12.5595 -6.59531 -25.5038 -12.5595 -7.1552 -25.2954 -12.5595 
-7.1552 -25.5038 -12.4638 52.5271 -25.5038 -12.5595 53.4366 -24.3876 -12.5595 
53.4366 -25.5038 -11.8713 -61.4623 -17.9298 -12.5595 58.8833 -17.9298 -12.5595 
61.0106 -14.1401 -12.5595 61.0106 -17.9298 -10.5645 -60.6922 -10.3558 -12.5595 
62.3666 -10.3558 -12.5595 -60.6251 -2.78185 -12.5595 62.2005 -2.78185 -12.5595 
-60.9837 4.79213 -12.5595 -60.173 7.36602 -12.5595 61.6425 4.79213 -12.5595 
61.0106 6.20657 -12.5595 -55.3744 12.3661 -12.5595 -60.173 12.3661 -10.3951 
-52.5991 14.3263 -12.5595 55.4984 12.3661 -12.5595 53.4366 17.9482 -12.5595 
61.0106 12.3661 -9.2786 -46.5703 19.9401 -12.5595 -52.5991 19.9401 -9.79724 
-45.0251 21.0368 -12.5595 -37.4511 24.6268 -12.5595 38.2887 25.6325 -12.5595 
51.5891 19.9401 -12.5595 45.8626 23.4847 -12.5595 53.4366 19.9401 -11.9742 
-45.0251 27.5141 -8.38748 -30.6647 27.5141 -12.5595 -37.4511 27.5141 -11.4072 
-29.8771 27.7826 -12.5595 -22.3032 32.1587 -12.5595 15.5667 33.5585 -12.5595 
23.1407 30.5846 -12.5595 35.0835 27.5141 -12.5595 30.7147 29.0933 -12.5595 
38.2887 27.5141 -11.6235 45.8626 27.5141 -10.3521 53.4366 27.5141 -5.33005 
-29.8771 35.088 -7.92743 -15.0101 35.088 -12.5595 -22.3032 35.088 -10.6499 
-14.7292 35.1578 -12.5595 -7.1552 36.0956 -12.5595 0.418775 35.7916 -12.5595 
8.13203 35.088 -12.5595 7.99275 35.1076 -12.5595 15.5667 35.088 -11.1766 
23.1407 35.088 -8.53269 30.7147 35.088 -6.4799 -52.5991 -34.7553 -4.98554 
-45.0251 -36.5359 -4.98554 -37.4511 -37.5715 -4.98554 -29.8771 -36.1766 -4.98554 
-22.3032 -35.4118 -4.98554 -14.7292 -33.3833 -4.98554 -7.1552 -33.5146 -4.98554 
0.418775 -35.7536 -4.98554 7.99275 -37.6421 -4.98554 15.5667 -39.2979 -4.98554 
23.1407 -40.4597 -4.98554 30.7147 -40.5844 -4.98554 38.2887 -39.3276 -4.98554 
45.8626 -36.9327 -4.98554 -54.7881 -33.0777 -4.98554 -60.173 -28.9509 -4.98554 
52.803 -33.0777 -4.98554 53.4366 -32.631 -4.98554 -63.1121 -25.5038 -4.98554 
60.0314 -25.5038 -4.98554 61.0106 -24.062 -4.98554 -66.3172 -17.9298 -4.98554 
64.2906 -17.9298 -4.98554 -67.5249 -10.3558 -4.98554 66.4046 -10.3558 -4.98554 
-67.7004 -2.78185 -4.98554 66.8273 -2.78185 -4.98554 -65.785 4.79213 -4.98554 
66.2668 4.79213 -4.98554 -63.8722 12.3661 -4.98554 -60.173 18.8914 -4.98554 
64.3178 12.3661 -4.98554 61.0106 19.4878 -4.98554 -59.2474 19.9401 -4.98554 
-60.173 19.9401 -1.42197 -52.5991 26.9717 -4.98554 60.6352 19.9401 -4.98554 
61.0106 19.9401 -4.07845 -51.8556 27.5141 -4.98554 -52.5991 27.5141 -3.67922 
-45.0251 31.4642 -4.98554 -37.4511 34.5963 -4.98554 38.2887 34.9486 -4.98554 
45.8626 31.5417 -4.98554 53.7754 27.5141 -4.98554 53.4366 27.8073 -4.98554 
-36.2258 35.088 -4.98554 -37.4511 35.088 -3.9028 -29.8771 37.4197 -4.98554 
-22.3032 39.1254 -4.98554 -14.7292 40.3991 -4.98554 -7.1552 40.7539 -4.98554 
0.418775 40.5171 -4.98554 7.99275 40.0337 -4.98554 15.5667 38.8525 -4.98554 
23.1407 37.4711 -4.98554 37.5715 35.088 -4.98554 30.7147 36.2824 -4.98554 
38.2887 35.088 -4.53773 -52.5991 -33.4808 2.58844 -45.0251 -35.587 2.58844 
-37.4511 -36.4229 2.58844 -29.8771 -35.9694 2.58844 -22.3032 -35.3238 2.58844 
-14.7292 -34.3102 2.58844 -7.1552 -35.3138 2.58844 0.418775 -37.1352 2.58844 
7.99275 -38.0709 2.58844 15.5667 -38.8248 2.58844 23.1407 -39.474 2.58844 
30.7147 -39.2437 2.58844 38.2887 -37.9998 2.58844 45.8626 -35.4377 2.58844 
-53.1428 -33.0777 2.58844 -60.173 -27.7489 2.58844 -52.5991 -33.0777 3.06348 
-45.0251 -33.0777 6.76218 -37.4511 -33.0777 8.09034 -29.8771 -33.0777 7.76903 
-22.3032 -33.0777 6.24028 -14.7292 -33.0777 5.16079 -7.1552 -33.0777 7.87579 
15.5667 -33.0777 10.1078 30.7147 -33.0777 9.6438 38.2887 -33.0777 9.33555 
49.7116 -33.0777 2.58844 45.8626 -33.0777 5.46351 53.4366 -30.5065 2.58844 
-62.0938 -25.5038 2.58844 -60.173 -25.5038 5.13254 58.3551 -25.5038 2.58844 
53.4366 -25.5038 7.69558 61.0106 -21.9994 2.58844 -65.5986 -17.9298 2.58844 
-60.173 -17.9298 9.25707 63.4616 -17.9298 2.58844 61.0106 -17.9298 6.06437 
-67.0632 -10.3558 2.58844 65.931 -10.3558 2.58844 61.0106 -10.3558 9.59798 
-67.5973 -2.78185 2.58844 67.0126 -2.78185 2.58844 -66.5043 4.79213 2.58844 
66.8992 4.79213 2.58844 -64.7355 12.3661 2.58844 65.1702 12.3661 2.58844 
-60.8706 19.9401 2.58844 -60.173 21.0364 2.58844 -60.173 19.9401 4.00692 
62.5302 19.9401 2.58844 61.0106 22.0699 2.58844 61.0106 19.9401 6.2136 
-54.7621 27.5141 2.58844 -52.5991 29.352 2.58844 -52.5991 27.5141 6.8202 
-45.0251 34.2179 2.58844 45.8626 34.4067 2.58844 56.0656 27.5141 2.58844 
53.4366 29.9356 2.58844 53.4366 27.5141 8.33327 -43.0369 35.088 2.58844 
-37.4511 37.6166 2.58844 -29.8771 38.9903 2.58844 -22.3032 39.695 2.58844 
-14.7292 40.2078 2.58844 -7.1552 40.5672 2.58844 0.418775 40.6315 2.58844 
7.99275 40.4612 2.58844 15.5667 39.708 2.58844 23.1407 39.1278 2.58844 
30.7147 38.77 2.58844 43.8134 35.088 2.58844 38.2887 36.7694 2.58844 
38.2887 35.088 9.24148 0.418775 -33.3302 10.1624 7.99275 -33.3011 10.1624 
23.1407 -33.1038 10.1624 -52.5991 -26.4097 10.1624 -45.0251 -29.0679 10.1624 
-37.4511 -30.99 10.1624 -29.8771 -30.5454 10.1624 -22.3032 -29.1238 10.1624 
-14.7292 -29.4807 10.1624 -0.850471 -33.0777 10.1624 -7.1552 -31.5384 10.1624 
0.418775 -33.0777 10.4079 14.1584 -33.0777 10.1624 7.99275 -33.0777 10.3549 
20.7552 -33.0777 10.1624 15.5667 -32.9915 10.1624 23.4639 -33.0777 10.1624 
23.1407 -33.0777 10.1827 30.7147 -32.351 10.1624 38.2887 -31.8489 10.1624 
45.8626 -28.8903 10.1624 -53.8004 -25.5038 10.1624 -52.5991 -25.5038 11.3034 
-45.0251 -25.5038 12.332 -37.4511 -25.5038 13.3967 -29.8771 -25.5038 13.1408 
-22.3032 -25.5038 12.7818 -14.7292 -25.5038 13.0783 -7.1552 -25.5038 14.3396 
0.418775 -25.5038 14.5918 7.99275 -25.5038 13.7392 15.5667 -25.5038 13.6837 
23.1407 -25.5038 14.0352 30.7147 -25.5038 14.1678 38.2887 -25.5038 13.8602 
50.3493 -25.5038 10.1624 45.8626 -25.5038 12.6527 53.4366 -22.4782 10.1624 
[...]
POINT_DATA 582
SCALARS ImageScalars float
LOOKUP_TABLE default
0 0 0 0 0 0 0 0 0 
0 0 0 0 0 0 0 0 0 
0 0 0 0 0 0 0 0 0 
0 0 0 0 0 0 0 0 0 
0 0 0 0 0 0 0 0 0 
0 0 0 0 0 0 0 0 0 
0 0 0 0 0 0 0 0 0 
0 0 0 0 0 0 0 0 0 
0 0 0 0 0 0 0 0 0 
0 0 0 0 0 0 0 0 0 
0 0 0 0 0 0 0 0 0 
0 0 0 0 0 0 0 0 0 
0 0 0 0 0 0 0 0 0 
0 0 0 0 0 0 0 0 0 
0 0 0 0 0 0 0 0 0 
0 0 0 0 0 0 0 0 0 
0 0 0 0 0 0 0 0 0 
0 0 0 0 0 0 0 0 0 
0 0 0 0 0 0 0 0 0 
0 0 0 0 0 0 0 0 0 
0 0 0 0 0 0 0 0 0 
0 0 0 0 0 0 0 0 0 
0 0 0 0 0 0 0 0 0 
0 0 0 0 0 0 0 0 0 
0 0 0 0 0 0 0 0 0 
0 0 0 0 0 0 0 0 0 
0 0 0 0 0 0 0 0 0 
0 0 0 0 0 0 0 0 0 
0 0 0 0 0 0 0 0 0 
0 0 0 0 0 0 0 0 0 
0 0 0 0 0 0 0 0 0 
0 0 0 0 0 0 0 0 0 
0 0 0 0 0 0 0 0 0 
0 0 0 0 0 0 0 0 0 
0 0 0 0 0 0 0 0 0 
0 0 0 0 0 0 0 0 0 
0 0 0 0 0 0 0 0 0 
0 0 0 0 0 0 0 0 0 
0 0 0 0 0 0 0 0 0 
0 0 0 0 0 0 0 0 0 
0 0 0 0 0 0 0 0 0 
0 0 0 0 0 0 0 0 0 
0 0 0 0 0 0 0 0 0 
0 0 0 0 0 0 0 0 0 
0 0 0 0 0 0 0 0 0 
0 0 0 0 0 0 0 0 0 
0 0 0 0 0 0 0 0 0 
0 0 0 0 0 0 0 0 0 
0 0 0 0 0 0 0 0 0 
0 0 0 0 0 0 0 0 0 
0 0 0 0 0 0 0 0 0 
0 0 0 0 0 0 0 0 0 
0 0 0 0 0 0 0 0 0 
0 0 0 0 0 0 0 0 0 
0 0 0 0 0 0 0 0 0 
0 0 0 0 0 0 0 0 0 
0 0 0 0 0 0 0 0 0 
0 0 0 0 0 0 0 0 0 
0 0 0 0 0 0 0 0 0 
0 0 0 0 0 0 0 0 0 
0 0 0 0 0 0 0 0 0 
0 0 0 0 0 0 0 0 0 
0 0 0 0 0 0 0 0 0 
0 0 0 0 0 0 0 0 0 
0 0 0 0 0 0 
NORMALS Normals float
-0.139601 -0.554522 -0.820376 -0.115055 -0.505916 -0.854875 0.0209996 -0.497422 -0.867254 
0.223253 -0.519996 -0.824477 -0.400017 -0.418135 -0.815567 -0.158505 -0.302092 -0.940009 
-0.0465436 -0.331513 -0.942302 0.0899812 -0.391032 -0.915968 0.192938 -0.414451 -0.889385 
0.168814 -0.507574 -0.844909 -0.156454 -0.362188 -0.918881 -0.171539 -0.272528 -0.946733 
-0.114449 -0.199031 -0.973287 -0.0506305 -0.184449 -0.981537 -0.00826547 -0.217698 -0.975981 
0.0878857 -0.293537 -0.951899 0.249607 -0.31541 -0.91554 -0.561427 -0.154693 -0.812939 
-0.290351 -0.169679 -0.941756 -0.0825299 -0.189449 -0.978416 -0.0336652 -0.122897 -0.991848 
0.0711434 -0.0720485 -0.994861 0.126735 -0.111018 -0.985704 0.101516 -0.194352 -0.975665 
0.0615677 -0.301428 -0.951499 -0.042392 -0.115654 -0.992385 -0.0749016 -0.146226 -0.986411 
-0.070075 0.0211153 -0.997318 -0.120686 -0.0206979 -0.992475 -0.0613028 -0.0570705 -0.996486 
0.0630871 -0.0929483 -0.99367 0.114545 -0.148585 -0.982243 0.406066 -0.306546 -0.860895 
-0.594282 0.0457184 -0.802956 -0.332466 0.00853994 -0.943076 -0.125788 -0.0520796 -0.990689 
0.0561386 -0.0120991 -0.99835 0.104281 0.0327977 -0.994007 0.0834914 0.0561262 -0.994927 
-0.0171787 0.0619267 -0.997933 0.0894313 -0.158735 -0.983263 0.0088077 0.0416859 -0.999092 
-0.0438638 -0.237754 -0.970335 0.0163897 -0.0206904 -0.999652 -0.122125 0.0429939 -0.991583 
-0.0902827 0.0316062 -0.995415 -0.015635 -0.0162 -0.999747 0.0700136 -0.060065 -0.995736 
0.302049 -0.0434798 -0.9523 0.587545 -0.13566 -0.797739 -0.575725 -0.0187534 -0.817429 
-0.307915 0.0230755 -0.951134 -0.125834 0.0993536 -0.987064 0.0503491 0.0669024 -0.996488 
0.137796 0.0669044 -0.988198 0.158046 0.0912749 -0.983204 -0.106291 0.17402 -0.978989 
0.00758387 -0.0764691 -0.997043 -0.106582 -0.0854761 -0.990623 -0.12172 -0.072389 -0.989921 
0.217066 -0.0407348 -0.975307 -0.0670191 0.0208322 -0.997534 -0.11648 0.0241797 -0.992899 
-0.0229749 0.0364363 -0.999072 0.0701329 0.0368264 -0.996858 0.317223 0.0383304 -0.947576 
0.594825 0.0392016 -0.802899 -0.58608 0.115514 -0.801977 -0.29901 0.183756 -0.93639 
-0.0637574 0.191291 -0.97946 0.0239295 0.0913664 -0.99553 0.123137 0.0976902 -0.98757 
0.192448 0.0723824 -0.978634 -0.0746322 0.0235911 -0.996932 -0.233244 0.0629722 -0.970377 
-0.0361516 -0.151483 -0.987799 0.0233429 0.147844 -0.988735 0.116594 -0.0153141 -0.993062 
-0.0587628 -0.0162279 -0.99814 -0.0778103 0.0443803 -0.99598 -0.00281057 0.0547671 -0.998495 
0.0769501 0.152297 -0.985335 0.306445 0.20314 -0.92996 0.597088 0.214698 -0.77291 
-0.286014 0.364156 -0.886333 -0.197763 0.255639 -0.946329 -0.0406772 0.212419 -0.976332 
0.115819 0.122797 -0.985651 0.0802638 0.0279713 -0.996381 -0.12263 -0.126963 -0.984298 
-0.160501 0.0646007 -0.984919 -0.0234296 -0.0107483 -0.999668 0.00293201 0.0327309 -0.99946 
0.0513463 -0.0526153 -0.997294 -0.00570717 0.00841728 -0.999948 -0.0436494 0.115457 -0.992353 
0.0836627 0.178333 -0.980407 0.225179 0.219128 -0.949356 0.371178 0.263547 -0.890376 
-0.235531 0.383318 -0.893081 -0.131344 0.315415 -0.93982 -0.0601776 0.209455 -0.975965 
-0.0566936 0.0478957 -0.997242 -0.127521 -0.07713 -0.988832 -0.0648449 0.0571028 -0.99626 
-0.0497916 0.0437577 -0.997801 -0.0278258 0.0566484 -0.998006 0.0919872 0.0688409 -0.993378 
0.105901 0.155597 -0.982128 0.0986987 0.22523 -0.969294 0.128394 0.333075 -0.934118 
0.200452 0.317483 -0.926835 -0.194315 0.387149 -0.901309 -0.205955 0.245315 -0.947313 
-0.125599 0.189119 -0.973889 -0.0223008 0.227085 -0.97362 -0.0240655 0.235423 -0.971595 
0.0295255 0.310292 -0.950183 0.157836 0.334063 -0.929242 0.141752 0.407095 -0.902319 
0.149794 0.475288 -0.866985 -0.143092 0.606433 -0.782153 -0.030525 0.591112 -0.806012 
0.0493576 0.61067 -0.790345 0.0884532 0.665127 -0.741473 -0.141868 -0.5885 -0.795953 
-0.121482 -0.604897 -0.786983 0.00592956 -0.679857 -0.733321 0.227022 -0.605902 -0.762459 
-0.413211 -0.455121 -0.788747 -0.495309 -0.761479 -0.418113 -0.118811 -0.721755 -0.681875 
-0.119688 -0.762968 -0.635259 0.0651357 -0.658013 -0.750184 0.0703346 -0.727617 -0.682368 
0.104865 -0.672995 -0.732176 0.121343 -0.811117 -0.572159 0.190414 -0.596258 -0.779884 
0.189471 -0.830942 -0.523103 0.167576 -0.556839 -0.813541 0.128116 -0.91267 -0.388097 
-0.139534 -0.864282 -0.483267 -0.1816 -0.440622 -0.879132 -0.257561 -0.744137 -0.616378 
-0.169421 -0.570992 -0.803284 -0.21189 -0.504464 -0.83703 -0.232672 -0.640227 -0.732102 
0.273824 -0.582618 -0.76523 0.301326 -0.567578 -0.766197 0.350996 -0.728076 -0.588818 
-0.449927 -0.427013 -0.784363 -0.570514 -0.274558 -0.774036 -0.637228 -0.519109 -0.569619 
0.0025673 -0.482506 -0.875889 -0.0248978 -0.470888 -0.881842 -0.0121253 -0.473363 -0.880784 
-0.0147278 -0.480526 -0.876857 0.491826 -0.402595 -0.772026 0.504274 -0.392907 -0.768982 
0.541311 -0.431368 -0.721737 -0.634379 -0.163692 -0.755492 0.585865 -0.32433 -0.742679 
0.630265 -0.238518 -0.738834 0.721637 -0.348315 -0.598262 -0.618507 0.0438888 -0.784553 
0.665253 -0.144471 -0.732507 -0.597453 -0.0172236 -0.801719 0.657236 0.0411422 -0.752561 
-0.623974 0.122814 -0.771734 -0.579368 0.208232 -0.788018 0.630819 0.215127 -0.745512 
0.596954 0.244385 -0.764148 -0.381797 0.375118 -0.844699 -0.611176 0.383861 -0.692181 
-0.317034 0.379663 -0.869106 0.426493 0.27966 -0.860171 0.4056 0.367716 -0.836823 
0.675931 0.349887 -0.648612 -0.272652 0.394474 -0.877526 -0.46587 0.463073 -0.754008 
-0.248051 0.406067 -0.879534 -0.203555 0.383428 -0.90086 0.156211 0.464149 -0.871874 
0.367375 0.391214 -0.843793 0.246069 0.439324 -0.86397 0.427382 0.422709 -0.799163 
-0.347392 0.605902 -0.715683 -0.200705 0.392121 -0.897752 -0.253132 0.458576 -0.851841 
-0.196938 0.396425 -0.896695 -0.215864 0.449718 -0.866693 0.172904 0.626762 -0.759785 
0.169576 0.530148 -0.830775 0.156106 0.500294 -0.851667 0.161207 0.540974 -0.825445 
0.167405 0.524877 -0.834553 0.322825 0.605604 -0.727343 0.546273 0.670595 -0.501885 
-0.270062 0.746236 -0.608439 -0.145921 0.606111 -0.78188 -0.220664 0.651936 -0.725456 
-0.142803 0.609508 -0.779812 -0.0307916 0.639969 -0.767784 0.0516678 0.643209 -0.763945 
0.0900081 0.66582 -0.740663 0.0885989 0.665859 -0.740798 0.173225 0.732693 -0.658145 
0.197723 0.789944 -0.580426 0.158911 0.804931 -0.571693 -0.47078 -0.864638 -0.175407 
-0.167018 -0.971762 -0.166683 0.0196322 -0.984079 -0.176644 0.142769 -0.962648 -0.230055 
0.177977 -0.947333 -0.266242 0.124238 -0.924646 -0.359994 -0.145009 -0.881609 -0.449152 
-0.25873 -0.872875 -0.413699 -0.219644 -0.925536 -0.308447 -0.179032 -0.956429 -0.23063 
-0.0812284 -0.97902 -0.186874 0.0706402 -0.987114 -0.143585 0.225375 -0.966889 -0.119712 
0.408859 -0.900764 -0.14649 -0.539803 -0.822664 -0.17843 -0.698371 -0.684028 -0.210675 
0.586137 -0.804531 -0.0957757 0.605137 -0.790346 -0.0957215 -0.825216 -0.518379 -0.22428 
0.78228 -0.601604 -0.161588 0.815299 -0.556371 -0.160433 -0.922396 -0.298893 -0.244641 
0.914117 -0.350257 -0.204228 -0.95982 -0.0746233 -0.270514 0.962835 -0.172233 -0.20805 
-0.954444 0.0933297 -0.283417 0.954217 0.00688744 -0.299034 -0.907989 0.239729 -0.343635 
0.924886 0.171447 -0.339398 -0.861266 0.353879 -0.364678 -0.751068 0.509318 -0.420109 
0.870605 0.315919 -0.37715 0.711593 0.547068 -0.440854 -0.719755 0.532855 -0.444992 
-0.821307 0.548939 -0.155307 -0.515791 0.693989 -0.502333 0.697667 0.560495 -0.446213 
0.734047 0.561803 -0.381512 -0.498305 0.703163 -0.507201 -0.550578 0.733087 -0.399309 
-0.38691 0.751557 -0.534286 -0.317175 0.815795 -0.48361 0.230438 0.865978 -0.443825 
0.403774 0.767489 -0.497923 0.554109 0.677691 -0.483423 0.545901 0.686672 -0.480076 
-0.314655 0.824031 -0.471132 -0.32187 0.85442 -0.407879 -0.266813 0.855165 -0.444415 
-0.186623 0.92947 -0.318209 -0.107261 0.963162 -0.246604 -0.00760602 0.973178 -0.229926 
0.0467417 0.965627 -0.255695 0.106734 0.953253 -0.282696 0.162136 0.934985 -0.31546 
0.156126 0.901793 -0.402983 0.223109 0.865703 -0.448086 0.162629 0.842311 -0.513871 
0.233666 0.879841 -0.413861 -0.437005 -0.805286 0.400677 -0.160501 -0.937907 0.307522 
-0.0251161 -0.935732 0.351817 0.0707361 -0.958247 0.277055 0.110732 -0.952767 0.282797 
0.000389097 -0.985314 0.170754 -0.183217 -0.979644 0.0820329 -0.180603 -0.976894 0.114281 
-0.110987 -0.969718 0.217553 -0.0886577 -0.947584 0.30696 -0.0268572 -0.933505 0.357556 
0.0927805 -0.918631 0.384068 0.21499 -0.894788 0.391322 0.430236 -0.791308 0.434428 
-0.45237 -0.799164 0.395851 -0.688854 -0.636939 0.346106 -0.436201 -0.792347 0.426515 
-0.224249 -0.767533 0.600505 -0.0408786 -0.767544 0.639691 0.0776536 -0.813704 0.576069 
0.0959185 -0.857952 0.504696 -0.0337946 -0.939636 0.340504 -0.185628 -0.866356 0.463649 
0.00970737 -0.585806 0.810393 0.0413389 -0.621394 0.782407 0.185435 -0.63865 0.74682 
0.510856 -0.779093 0.363373 0.374546 -0.766462 0.521777 0.586081 -0.734506 0.342068 
-0.768202 -0.538945 0.345548 -0.68465 -0.533331 0.496802 0.716429 -0.609357 0.339724 
0.520117 -0.513776 0.682284 0.782141 -0.529475 0.328499 -0.910563 -0.322349 0.258777 
-0.563525 -0.371174 0.738017 0.849484 -0.412702 0.328716 0.754056 -0.387732 0.530155 
-0.94789 -0.117346 0.296201 0.940437 -0.234482 0.246163 0.595735 -0.271996 0.755724 
-0.962552 0.0354184 0.268774 0.966709 -0.0589619 0.248993 -0.959775 0.187997 0.208542 
0.97076 0.114467 0.211004 -0.928557 0.328734 0.172381 0.943088 0.288075 0.166127 
-0.845857 0.519663 0.120321 -0.828642 0.543995 0.131991 -0.820669 0.537242 0.194611 
0.870994 0.481838 0.0959279 0.828178 0.555035 0.0778223 0.844137 0.461089 0.27355 
-0.679256 0.730249 0.0731281 -0.631951 0.773318 0.0511635 -0.628723 0.687823 0.362777 
-0.441331 0.897024 0.0239683 0.403541 0.914938 0.00656216 0.686993 0.724804 0.0519623 
0.619846 0.783801 0.0380311 0.619087 0.64992 0.440835 -0.40196 0.91563 0.0070359 
-0.307044 0.951652 -0.00911691 -0.131665 0.987528 0.0863334 -0.079022 0.986197 0.145502 
-0.0570249 0.982212 0.178904 -0.0278503 0.976707 0.212761 0.00705437 0.982169 0.187866 
0.0610317 0.984854 0.162292 0.0880909 0.988138 0.125787 0.0612769 0.995894 0.0666363 
0.154243 0.987743 0.0239381 0.361562 0.932277 0.0114797 0.265008 0.964228 0.00583229 
0.22798 0.881486 0.413531 -0.0829466 -0.713115 0.696123 0.0151132 -0.625663 0.779947 
0.0235759 -0.593681 0.804355 -0.382868 -0.561063 0.733908 -0.195932 -0.553016 0.809805 
-0.0480827 -0.638146 0.768412 0.0750598 -0.650941 0.755408 0.0347546 -0.626663 0.778515 
-0.10371 -0.657338 0.746425 -0.0980654 -0.718476 0.688604 -0.164905 -0.7239 0.669907 
-0.0790399 -0.699808 0.709945 0.0112698 -0.589617 0.807604 0.0175228 -0.613644 0.789388 
0.0194531 -0.590117 0.807083 0.0096248 -0.580949 0.813883 0.0243229 -0.593676 0.804337 
0.0235456 -0.592876 0.80495 0.0414199 -0.589217 0.806913 0.164053 -0.594218 0.787396 
0.288819 -0.622251 0.72759 -0.420206 -0.53073 0.736038 -0.36673 -0.517594 0.773049 
-0.104276 -0.492044 0.864303 -0.0419019 -0.450694 0.891695 0.0360052 -0.453223 0.89067 
0.00327795 -0.484987 0.874515 -0.0932213 -0.471724 0.876804 -0.0918574 -0.449279 0.888656 
0.0364849 -0.368089 0.929074 0.0569724 -0.330762 0.941993 -0.01938 -0.355464 0.934489 
-0.0288478 -0.364713 0.930673 0.00742111 -0.396166 0.918149 0.104632 -0.435875 0.893905 
0.405621 -0.476124 0.780242 0.315761 -0.451287 0.834647 0.470924 -0.418977 0.77633 
-0.494022 -0.339739 0.800324 -0.542602 -0.289368 0.788575 -0.344301 -0.204153 0.916394 
-0.184686 -0.25492 0.949161 -0.0566235 -0.270866 0.96095 0.0314308 -0.270204 0.96229 
0.0384581 -0.267611 0.962759 -0.0740257 -0.29358 0.953064 -0.0910993 -0.303046 0.948612 
0.0806577 -0.282963 0.955733 0.0652996 -0.33454 0.940116 -0.0330173 -0.250031 0.967675 
-0.0378114 -0.25273 0.966798 -0.0027831 -0.266133 0.963932 0.0701365 -0.2536 0.964763 
0.238299 -0.283851 0.928785 0.576706 -0.335847 0.744726 0.428108 -0.352737 0.832046 
-0.627324 -0.128114 0.768148 -0.561783 -0.131117 0.816828 -0.339327 -0.168172 0.925514 
-0.140076 -0.145524 0.979388 -0.0384325 -0.106319 0.993589 0.0273537 -0.113068 0.993211 
-0.013407 -0.105616 0.994317 0.0760234 -0.137142 0.98763 0.225057 -0.161949 0.960792 
0.557983 -0.260836 0.787794 0.426913 -0.203414 0.881118 0.595025 -0.230643 0.769902 
-0.661716 -0.0137552 0.749628 -0.567824 -0.020193 0.822902 -0.336397 -0.0523673 0.940263 
-0.11923 -0.0313921 0.99237 -0.0402814 0.0217031 0.998953 -0.0425909 0.044541 0.998099 
0.390689 -0.101194 0.914944 0.708796 -0.0815751 0.700681 0.643501 -0.103899 0.758361 
-0.683393 0.0836217 0.725246 -0.602373 0.0650039 0.795564 -0.353681 0.0354826 0.934693 
-0.101561 0.0417378 0.993953 0.0716304 0.0424515 0.996527 0.0608991 0.0313554 0.997651 
-0.213307 0.171416 0.96183 0.0950579 0.0520001 0.994113 0.425404 0.0192899 0.904798 
0.722509 0.0657777 0.688225 0.652066 0.0648247 0.755386 -0.689021 0.251203 0.679814 
-0.666802 0.342088 0.662081 -0.64693 0.233854 0.725806 -0.42338 0.232058 0.875727 
-0.125219 0.128117 0.983822 -0.0273608 0.0345041 0.99903 0.0322689 0.0276734 0.999096 
0.0730516 -0.00660183 0.997306 -0.0297814 -0.0293941 0.999124 -0.109634 0.221465 0.968986 
-0.00355209 -0.0015691 0.999992 0.189952 0.157753 0.969037 0.429264 0.119068 0.895296 
0.709356 0.19647 0.676915 0.715319 0.21245 0.66572 0.703089 0.191963 0.684702 
-0.601965 0.432216 0.671437 -0.566726 0.487996 0.663838 -0.489502 0.366258 0.791355 
-0.271524 0.214939 0.938124 -0.121446 0.179143 0.976298 0.0303416 0.0771689 0.996556 
0.00638824 0.0787905 0.996871 0.0135204 0.0123001 0.999833 0.0494959 0.136274 0.989434 
0.0212492 0.166629 0.985791 -0.0606214 0.182756 0.981287 -0.0860001 0.1024 0.991019 
0.259223 0.168711 0.950968 0.739567 0.389354 0.549039 0.589626 0.569909 0.572315 
0.433692 0.362073 0.825114 -0.498806 0.588543 0.636246 -0.415235 0.668718 0.616763 
-0.373466 0.553429 0.744473 -0.178831 0.405042 0.896638 -0.0711008 0.331855 0.940647 
0.00340529 0.290794 0.95678 0.0294402 0.30382 0.952274 0.0486658 0.27567 0.96002 
0.0305073 0.254643 0.966554 -0.0256423 0.269528 0.962651 -0.0656502 0.344196 0.9366 
-0.0525069 0.366089 0.929097 0.0402849 0.340145 0.93951 0.215171 0.848494 0.483486 
0.105345 0.443808 0.889909 0.567102 0.608006 0.55563 0.392214 0.748845 0.534228 
0.334873 0.505394 0.795259 -0.241756 0.782646 0.573602 -0.236372 0.784057 0.573919 
-0.236447 0.780866 0.578222 -0.0748626 0.801017 0.593942 -0.0729209 0.770458 0.633306 
-0.0656356 0.785589 0.615258 -0.0485503 0.729638 0.682108 -0.0263781 0.753349 0.657092 
-0.0181482 0.666477 0.745305 0.00276845 0.744177 0.667977 0.00140833 0.656023 0.75474 
-0.00177648 0.730918 0.682463 0.00475589 0.634715 0.772732 0.03239 0.722212 0.690913 
0.0304896 0.62641 0.778897 0.0432482 0.751195 0.658662 0.0353939 0.693246 0.719831 
0.031545 0.785881 0.617573 0.0155479 0.744366 0.667591 0.179585 0.849179 0.496633 
0.0830886 0.827187 0.555751 0.0673283 0.795464 0.602249 -0.12503 -0.202575 0.971252 
-0.0862904 -0.255634 0.962915 0.056158 -0.174791 0.983003 0.0780381 -0.290748 0.953612 
-0.0400089 -0.160225 0.986269 -0.00975944 -0.192151 0.981317 0.0835542 -0.183715 0.979422 
-0.0376262 -0.0992249 0.994353 0.0288242 -0.0900367 0.995521 -0.10103 -0.173917 0.979564 
-0.128692 -0.196798 0.971961 -0.0629131 -0.134187 0.988957 -0.0147869 0.0404522 0.999072 
0.000848523 0.039214 0.99923 0.0765017 -0.140444 0.987129 0.0811861 -0.240487 0.967251 
0.0582494 -0.138099 0.988704 0.0757419 -0.122186 0.989613 -0.0402557 -0.142777 0.988936 
-0.0112857 -0.154974 0.987854 0.132946 -0.162527 0.977707 0.0907588 -0.164033 0.982271 
0.19825 -0.136671 0.970576 -0.0953703 -0.0292067 0.995013 -0.0288302 -0.0225423 0.99933 
-0.0267265 0.0164743 0.999507 0.0714178 0.0421894 0.996554 0.0333799 -0.00531186 0.999429 
-0.0448535 0.0247327 0.998687 -0.169928 0.122936 0.977758 -0.113378 0.0596599 0.991759 
0.0561593 -0.0144908 0.998317 0.154016 -0.0669256 0.985799 -0.068764 0.00371545 0.997626 
0.00684585 -0.054724 0.998478 -0.0939657 -0.0311906 0.995087 0.0849131 0.0372735 0.995691 
0.069696 0.018922 0.997389 -0.06287 -0.0150564 0.997908 -0.0298671 -0.0456266 0.998512 
0.0607417 -0.0705965 0.995654 0.230062 -0.122049 0.965492 0.189259 -0.127891 0.973563 
-0.0640212 0.038251 0.997215 0.071162 0.0424023 0.996563 -0.0245122 0.0340118 0.999121 
-0.0121705 0.0333844 0.999368 -0.201968 0.158989 0.966401 -0.110252 0.21977 0.969302 
-0.0849047 0.103157 0.991035 0.0314809 -0.0986671 0.994622 0.0937903 0.0622403 0.993645 
0.0738813 0.111913 0.990968 0.0116333 0.0490932 0.998726 -0.106416 0.0421364 0.993428 
-0.0672868 0.0226547 0.997476 0.00934054 0.0126857 0.999876 0.296111 0.0214712 0.954912 
0.189608 0.153867 0.969729 0.189844 0.0285987 0.981398 -0.080597 0.196216 0.977243 
-0.0125278 0.142131 0.989769 -0.0165511 0.139089 0.990142 0.0230344 0.143641 0.989362 
0.0231917 0.208255 0.9778 0.0362356 0.211747 0.976653 -0.0597728 0.0146041 0.998105 
-0.0947067 0.0249665 0.995192 -0.0571376 0.044652 0.997367 0.185927 0.154705 0.970308 
0.0665949 0.0588516 0.996043 -0.0664494 0.11229 0.991451 -0.0595922 0.13126 0.989555 
-0.0598436 0.116511 0.991385 -0.0105693 0.200756 0.979584 -0.0374275 0.13558 0.990059 
0.163691 0.187267 0.968575 0.110808 0.249348 0.962054 0.113937 0.199696 0.973211 

