# vtk DataFile Version 4.2
vtk output
ASCII
DATASET POLYDATA
POINTS 528 float
-22.4987 -38.2815 -16.4274 -14.3364 -38.2815 -18.3708 -6.17405 -38.2815 -18.9997 
1.98829 -38.2815 -19.4725 10.1506 -38.2815 -18.7027 18.313 -38.2815 -17.5554 
26.4753 -38.2815 -15.3662 -38.8234 -30.1192 -16.779 -30.6611 -30.1192 -19.9535 
-22.4987 -30.1192 -20.8944 -14.3364 -30.1192 -21.3697 -6.17405 -30.1192 -21.2282 
1.98829 -30.1192 -21.2365 10.1506 -30.1192 -21.365 18.313 -30.1192 -20.6091 
26.4753 -30.1192 -20.2363 34.6377 -30.1192 -18.4896 -46.9858 -21.9568 -17.5155 
-38.8234 -21.9568 -20.5357 -30.6611 -21.9568 -21.839 -22.4987 -21.9568 -22.0447 
-14.3364 -21.9568 -22.2956 -6.17405 -21.9568 -21.5262 1.98829 -21.9568 -21.0776 
10.1506 -21.9568 -21.052 18.313 -21.9568 -21.3886 26.4753 -21.9568 -21.4066 
34.6377 -21.9568 -20.928 42.8 -21.9568 -18.8437 -46.9858 -13.7945 -20.5871 
-38.8234 -13.7945 -21.952 -30.6611 -13.7945 -22.2862 -22.4987 -13.7945 -21.5053 
-14.3364 -13.7945 -21.3973 -6.17405 -13.7945 -21.6352 1.98829 -13.7945 -20.5542 
10.1506 -13.7945 -20.6754 18.313 -13.7945 -20.5704 26.4753 -13.7945 -20.8836 
34.6377 -13.7945 -20.8766 42.8 -13.7945 -20.2187 50.9623 -13.7945 -16.9124 
-55.1481 -5.63213 -17.7632 -46.9858 -5.63213 -20.9672 -38.8234 -5.63213 -21.7974 
-30.6611 -5.63213 -21.6575 -22.4987 -5.63213 -19.8388 -14.3364 -5.63213 -20.5199 
-6.17405 -5.63213 -22.7627 1.98829 -5.63213 -20.0833 10.1506 -5.63213 -21.1831 
18.313 -5.63213 -18.9465 26.4753 -5.63213 -19.6354 34.6377 -5.63213 -20.3031 
42.8 -5.63213 -19.8786 50.9623 -5.63213 -17.9509 -55.1481 2.53021 -18.594 
-46.9858 2.53021 -21.0278 -38.8234 2.53021 -21.9511 -30.6611 2.53021 -21.1561 
-22.4987 2.53021 -19.8228 -14.3364 2.53021 -21.3841 -6.17405 2.53021 -21.9593 
1.98829 2.53021 -17.7329 10.1506 2.53021 -20.5735 18.313 2.53021 -17.7863 
26.4753 2.53021 -18.8166 34.6377 2.53021 -19.7589 42.8 2.53021 -19.5088 
50.9623 2.53021 -17.5372 -55.1481 10.6925 -17.7625 -46.9858 10.6925 -20.9035 
-38.8234 10.6925 -22.7556 -30.6611 10.6925 -22.0137 -22.4987 10.6925 -20.89 
-14.3364 10.6925 -20.056 -6.17405 10.6925 -19.7515 1.98829 10.6925 -19.2152 
10.1506 10.6925 -18.9703 18.313 10.6925 -18.022 26.4753 10.6925 -19.2509 
34.6377 10.6925 -20.2889 42.8 10.6925 -19.3101 50.9623 10.6925 -17.2894 
-46.9858 18.8549 -19.4054 -38.8234 18.8549 -21.2872 -30.6611 18.8549 -21.5189 
-22.4987 18.8549 -21.013 -14.3364 18.8549 -20.2208 -6.17405 18.8549 -19.4753 
1.98829 18.8549 -19.4031 10.1506 18.8549 -18.4003 18.313 18.8549 -18.1773 
26.4753 18.8549 -18.5754 34.6377 18.8549 -18.6647 42.8 18.8549 -17.6977 
-38.8234 27.0172 -18.8794 -30.6611 27.0172 -20.4184 -22.4987 27.0172 -20.3073 
-14.3364 27.0172 -20.0469 -6.17405 27.0172 -19.2777 1.98829 27.0172 -18.9076 
10.1506 27.0172 -18.2501 18.313 27.0172 -17.8097 26.4753 27.0172 -17.125 
34.6377 27.0172 -16.7619 -30.6611 35.1796 -16.1477 -22.4987 35.1796 -17.2462 
-14.3364 35.1796 -17.0548 -6.17405 35.1796 -16.5562 1.98829 35.1796 -16.2983 
10.1506 35.1796 -16.0246 18.313 35.1796 -15.6448 -22.4987 -39.4327 -15.2946 
-14.3364 -41.7279 -15.2946 -6.17405 -42.906 -15.2946 1.98829 -43.1677 -15.2946 
1.98829 -46.4438 -7.20361 10.1506 -42.3744 -15.2946 18.313 -40.7635 -15.2946 
26.4753 -38.3467 -15.2946 -38.8234 -31.7032 -15.2946 -26.0403 -38.2815 -15.2946 
-30.6611 -36.5381 -15.2946 -30.6611 -38.2815 -11.8818 26.6653 -38.2815 -15.2946 
34.6377 -34.7652 -15.2946 34.6377 -38.2815 -10.0151 -40.9461 -30.1192 -15.2946 
-46.9858 -25.0352 -15.2946 42.4055 -30.1192 -15.2946 42.8 -29.7446 -15.2946 
42.8 -30.1192 -14.9962 -49.7834 -21.9568 -15.2946 49.0094 -21.9568 -15.2946 
50.9623 -18.8336 -15.2946 50.9623 -21.9568 -13.4979 -54.8434 -13.7945 -15.2946 
-55.1481 -13.2305 -15.2946 -55.1481 -13.7945 -14.9191 53.2092 -13.7945 -15.2946 
59.1247 -13.7945 -7.83674 -57.9431 -5.63213 -15.2946 55.0929 -5.63213 -15.2946 
59.1247 -5.63213 -11.697 -59.0077 2.53021 -15.2946 -63.3104 2.53021 -7.27418 
54.9996 2.53021 -15.2946 59.1247 2.53021 -12.0648 -57.9389 10.6925 -15.2946 
-55.1481 16.3995 -15.2946 54.2083 10.6925 -15.2946 50.9623 17.6635 -15.2946 
59.1247 10.6925 -10.6156 -53.3489 18.8549 -15.2946 -55.1481 18.8549 -13.3105 
-46.9858 26.7032 -15.2946 49.8401 18.8549 -15.2946 42.8 26.2329 -15.2946 
50.9623 18.8549 -14.8356 59.1247 18.8549 -7.57043 -46.6619 27.0172 -15.2946 
-46.9858 27.0172 -14.9999 -38.8234 32.4287 -15.2946 26.4753 32.5182 -15.2946 
41.5524 27.0172 -15.2946 34.6377 30.0882 -15.2946 42.8 27.0172 -14.9855 
50.9623 27.0172 -9.19539 -32.781 35.1796 -15.2946 -38.8234 35.1796 -10.9594 
-30.6611 35.9311 -15.2946 -22.4987 37.2648 -15.2946 -14.3364 37.0505 -15.2946 
-6.17405 36.6545 -15.2946 1.98829 36.6256 -15.2946 10.1506 36.4706 -15.2946 
20.6709 35.1796 -15.2946 18.313 35.8496 -15.2946 26.4753 35.1796 -14.2827 
34.6377 35.1796 -12.2503 42.8 35.1796 -7.3855 10.1506 43.3419 -8.61824 
18.313 43.3419 -8.83245 1.98829 -46.4643 -7.13225 -30.6611 -40.1483 -7.13225 
-22.4987 -43.1745 -7.13225 -14.3364 -45.25 -7.13225 -2.12315 -46.4438 -7.13225 
-6.17405 -46.4237 -7.13225 2.23534 -46.4438 -7.13225 1.98829 -46.4438 -6.98045 
10.1506 -45.7867 -7.13225 18.313 -44.3315 -7.13225 26.4753 -42.3861 -7.13225 
34.6377 -39.6705 -7.13225 -34.4447 -38.2815 -7.13225 -38.8234 -35.8762 -7.13225 
37.1386 -38.2815 -7.13225 42.8 -34.9229 -7.13225 -46.7708 -30.1192 -7.13225 
-46.9858 -29.9288 -7.13225 48.6059 -30.1192 -7.13225 50.9623 -27.5412 -7.13225 
-54.5462 -21.9568 -7.13225 -55.1481 -21.0735 -7.13225 55.4208 -21.9568 -7.13225 
59.1247 -14.7738 -7.13225 -59.8406 -13.7945 -7.13225 59.5474 -13.7945 -7.13225 
-62.2998 -5.63213 -7.13225 -63.3104 2.02806 -7.13225 62.3651 -5.63213 -7.13225 
-63.3723 2.53021 -7.13225 -63.3104 3.19935 -7.13225 62.9085 2.53021 -7.13225 
-62.5218 10.6925 -7.13225 61.8543 10.6925 -7.13225 -58.7127 18.8549 -7.13225 
-55.1481 23.8108 -7.13225 59.4493 18.8549 -7.13225 59.1247 19.3775 -7.13225 
-52.3092 27.0172 -7.13225 -46.9858 32.0519 -7.13225 52.9519 27.0172 -7.13225 
50.9623 29.0135 -7.13225 -42.0532 35.1796 -7.13225 -38.8234 36.9546 -7.13225 
-30.6611 39.8175 -7.13225 -22.4987 40.949 -7.13225 -14.3364 40.9874 -7.13225 
-6.17405 41.4737 -7.13225 1.98829 42.5262 -7.13225 26.4753 42.7974 -7.13225 
34.6377 39.6367 -7.13225 43.1058 35.1796 -7.13225 42.8 35.3841 -7.13225 
5.95814 43.3419 -7.13225 1.98829 43.3419 -0.367822 10.1506 44.2017 -7.13225 
24.0507 43.3419 -7.13225 18.313 44.4319 -7.13225 26.4753 43.3419 -4.00353 
-30.6611 -39.9492 1.0301 -22.4987 -42.9736 1.0301 -14.3364 -44.7466 1.0301 
-6.17405 -45.4346 1.0301 1.98829 -45.3324 1.0301 10.1506 -44.7555 1.0301 
18.313 -43.9089 1.0301 26.4753 -42.4807 1.0301 34.6377 -39.7522 1.0301 
-33.86 -38.2815 1.0301 -38.8234 -35.442 1.0301 -30.6611 -38.2815 6.43468 
37.4773 -38.2815 1.0301 34.6377 -38.2815 4.86498 42.8 -35.108 1.0301 
-45.9261 -30.1192 1.0301 -46.9858 -29.1873 1.0301 48.5547 -30.1192 1.0301 
50.9623 -27.6487 1.0301 -53.8995 -21.9568 1.0301 -55.1481 -20.2221 1.0301 
55.5541 -21.9568 1.0301 59.1247 -16.0136 1.0301 -59.3768 -13.7945 1.0301 
60.2771 -13.7945 1.0301 59.1247 -13.7945 4.53649 -62.1008 -5.63213 1.0301 
-63.3104 0.854758 1.0301 63.7091 -5.63213 1.0301 -63.6158 2.53021 1.0301 
-63.3104 4.83457 1.0301 -63.3104 2.53021 2.33642 64.5418 2.53021 1.0301 
-62.5194 10.6925 1.0301 63.9755 10.6925 1.0301 -59.0031 18.8549 1.0301 
-55.1481 24.4414 1.0301 61.427 18.8549 1.0301 59.1247 22.3853 1.0301 
-52.8506 27.0172 1.0301 -46.9858 32.1189 1.0301 55.7106 27.0172 1.0301 
50.9623 31.568 1.0301 -42.0097 35.1796 1.0301 -38.8234 36.9647 1.0301 
-38.8234 35.1796 8.27728 -30.6611 39.7851 1.0301 -22.4987 41.1577 1.0301 
-14.3364 41.7203 1.0301 -6.17405 42.5311 1.0301 34.6377 41.3651 1.0301 
46.0305 35.1796 1.0301 42.8 37.3603 1.0301 42.8 35.1796 8.24119 
0.607254 43.3419 1.0301 1.98829 43.5198 1.0301 1.98829 43.3419 2.03558 
10.1506 45.1351 1.0301 10.1506 43.3419 6.76791 18.313 45.3857 1.0301 
18.313 43.3419 6.55793 28.7801 43.3419 1.0301 26.4753 44.0706 1.0301 
26.4753 43.3419 2.95401 -22.4987 -40.4895 9.19244 -14.3364 -41.9748 9.19244 
-6.17405 -42.3702 9.19244 1.98829 -42.0409 9.19244 10.1506 -41.5748 9.19244 
18.313 -41.044 9.19244 26.4753 -39.6334 9.19244 -38.8234 -32.7236 9.19244 
-28.4219 -38.2815 9.19244 -30.6611 -37.3718 9.19244 -22.4987 -38.2815 12.5111 
-14.3364 -38.2815 14.5806 -6.17405 -38.2815 14.7344 1.98829 -38.2815 14.0648 
10.1506 -38.2815 13.5138 18.313 -38.2815 12.8715 30.1574 -38.2815 9.19244 
26.4753 -38.2815 10.9247 34.6377 -36.3586 9.19244 42.8 -31.1581 9.19244 
-42.3183 -30.1192 9.19244 -46.9858 -26.039 9.19244 -38.8234 -30.1192 12.8782 
26.4753 -30.1192 16.9849 34.6377 -30.1192 14.9457 43.9887 -30.1192 9.19244 
42.8 -30.1192 10.2611 50.9623 -22.9352 9.19244 -50.853 -21.9568 9.19244 
-55.1481 -16.0755 9.19244 -46.9858 -21.9568 14.3339 42.8 -21.9568 15.7585 
51.7665 -21.9568 9.19244 50.9623 -21.9568 10.0566 -56.6929 -13.7945 9.19244 
-55.1481 -13.7945 11.4151 57.2554 -13.7945 9.19244 50.9623 -13.7945 15.3267 
59.1247 -10.6077 9.19244 -59.9227 -5.63213 9.19244 -55.1481 -5.63213 16.7478 
61.5734 -5.63213 9.19244 59.1247 -5.63213 12.4731 -61.6041 2.53021 9.19244 
62.4678 2.53021 9.19244 59.1247 2.53021 13.6594 -60.5618 10.6925 9.19244 
62.0624 10.6925 9.19244 59.1247 10.6925 13.1826 -57.0342 18.8549 9.19244 
-55.1481 21.6516 9.19244 -55.1481 18.8549 12.2907 59.5406 18.8549 9.19244 
59.1247 19.4844 9.19244 59.1247 18.8549 9.80946 -50.3533 27.0172 9.19244 
-46.9858 29.9313 9.19244 -46.9858 27.0172 13.4855 -38.8234 34.9454 9.19244 
42.8 34.7956 9.19244 42.8 27.0172 16.3947 53.2003 27.0172 9.19244 
50.9623 29.0951 9.19244 50.9623 27.0172 11.7565 -38.2571 35.1796 9.19244 
-30.6611 38.0637 9.19244 -30.6611 35.1796 14.3078 -22.4987 39.9611 9.19244 
-22.4987 35.1796 17.1663 -14.3364 40.6921 9.19244 -14.3364 35.1796 17.1101 
-6.17405 41.0558 9.19244 -6.17405 35.1796 16.9155 1.98829 41.9473 9.19244 
1.98829 35.1796 15.8198 10.1506 42.313 9.19244 10.1506 35.1796 15.3775 
18.313 42.051 9.19244 18.313 35.1796 15.4368 26.4753 40.397 9.19244 
[...]
POINT_DATA 528
SCALARS ImageScalars float
LOOKUP_TABLE default
0 0 0 0 0 0 0 0 0 
0 0 0 0 0 0 0 0 0 
0 0 0 0 0 0 0 0 0 
0 0 0 0 0 0 0 0 0 
0 0 0 0 0 0 0 0 0 
0 0 0 0 0 0 0 0 0 
0 0 0 0 0 0 0 0 0 
0 0 0 0 0 0 0 0 0 
0 0 0 0 0 0 0 0 0 
0 0 0 0 0 0 0 0 0 
0 0 0 0 0 0 0 0 0 
0 0 0 0 0 0 0 0 0 
0 0 0 0 0 0 0 0 0 
0 0 0 0 0 0 0 0 0 
0 0 0 0 0 0 0 0 0 
0 0 0 0 0 0 0 0 0 
0 0 0 0 0 0 0 0 0 
0 0 0 0 0 0 0 0 0 
0 0 0 0 0 0 0 0 0 
0 0 0 0 0 0 0 0 0 
0 0 0 0 0 0 0 0 0 
0 0 0 0 0 0 0 0 0 
0 0 0 0 0 0 0 0 0 
0 0 0 0 0 0 0 0 0 
0 0 0 0 0 0 0 0 0 
0 0 0 0 0 0 0 0 0 
0 0 0 0 0 0 0 0 0 
0 0 0 0 0 0 0 0 0 
0 0 0 0 0 0 0 0 0 
0 0 0 0 0 0 0 0 0 
0 0 0 0 0 0 0 0 0 
0 0 0 0 0 0 0 0 0 
0 0 0 0 0 0 0 0 0 
0 0 0 0 0 0 0 0 0 
0 0 0 0 0 0 0 0 0 
0 0 0 0 0 0 0 0 0 
0 0 0 0 0 0 0 0 0 
0 0 0 0 0 0 0 0 0 
0 0 0 0 0 0 0 0 0 
0 0 0 0 0 0 0 0 0 
0 0 0 0 0 0 0 0 0 
0 0 0 0 0 0 0 0 0 
0 0 0 0 0 0 0 0 0 
0 0 0 0 0 0 0 0 0 
0 0 0 0 0 0 0 0 0 
0 0 0 0 0 0 0 0 0 
0 0 0 0 0 0 0 0 0 
0 0 0 0 0 0 0 0 0 
0 0 0 0 0 0 0 0 0 
0 0 0 0 0 0 0 0 0 
0 0 0 0 0 0 0 0 0 
0 0 0 0 0 0 0 0 0 
0 0 0 0 0 0 0 0 0 
0 0 0 0 0 0 0 0 0 
0 0 0 0 0 0 0 0 0 
0 0 0 0 0 0 0 0 0 
0 0 0 0 0 0 0 0 0 
0 0 0 0 0 0 0 0 0 
0 0 0 0 0 0 
NORMALS Normals float
0.235459 0.686376 0.688075 0.138984 0.563106 0.814613 0.0622619 0.464222 0.883528 
-0.0173537 0.449397 0.893164 -0.107421 0.496752 0.861219 -0.169491 0.587853 0.791013 
-0.271384 0.718382 0.640529 0.456541 0.594107 0.662274 0.204657 0.412301 0.887763 
0.0820153 0.29065 0.953308 0.0202601 0.220417 0.975195 -0.00764058 0.129383 0.991565 
0.00782085 0.0769493 0.997004 -0.0378889 0.12361 0.991607 -0.0654695 0.21081 0.975332 
-0.124239 0.30193 0.9452 -0.275548 0.431628 0.858936 0.518868 0.462065 0.719216 
0.239462 0.248501 0.938566 0.0899963 0.131383 0.987238 0.0288207 0.0365896 0.998915 
-0.0318253 -0.000541802 0.999493 -0.0743003 0.0254295 0.996912 -0.0289788 -0.0423372 0.998683 
0.0190389 -0.0412706 0.998967 0.0216994 -0.00371916 0.999758 -0.0263853 0.0335424 0.999089 
-0.142659 0.13489 0.980537 -0.361106 0.281428 0.889045 0.349972 0.184644 0.918382 
0.0907196 0.0809322 0.992582 -0.0285822 -0.00546371 0.999577 -0.053829 -0.134658 0.989429 
0.00801557 -0.104606 0.994481 -0.0517895 0.0672644 0.99639 -0.05844 -0.0588567 0.996554 
0.00103022 0.00535477 0.999985 0.0122894 -0.143649 0.989552 0.0187652 -0.108279 0.993943 
-0.0439588 -0.0376402 0.998324 -0.223459 0.0490023 0.973481 -0.527468 0.193518 0.827242 
0.585113 0.180876 0.790523 0.221123 0.0216404 0.975006 0.0471869 0.000394859 0.998886 
-0.1243 -0.0714158 0.989671 -0.0644339 -0.105294 0.992351 0.176445 -0.0136963 0.984215 
-0.0326736 0.0343725 0.998875 -0.0877163 -0.156122 0.983835 -0.0718347 -0.00159335 0.997415 
-0.0846569 -0.172384 0.981385 0.0806067 -0.124365 0.988957 0.0149851 -0.0683443 0.997549 
-0.131822 -0.0448171 0.99026 -0.398461 0.0375559 0.916416 0.506622 -0.000500402 0.862168 
0.199163 -0.00393775 0.979958 0.00568286 0.0564803 0.998388 -0.134174 0.025447 0.990631 
-0.00770345 0.0613812 0.998085 0.142618 -0.0382644 0.989038 -0.208713 -0.191828 0.958979 
-0.055419 -0.0497098 0.997225 -0.0314601 -0.138578 0.989852 -0.0875545 -0.0544326 0.994671 
0.122273 -0.0234709 0.992219 0.0421576 -0.00170734 0.99911 -0.125393 -0.0346039 0.991504 
-0.361342 -0.0391025 0.931613 0.573235 -0.232072 0.78584 0.276454 -0.081281 0.957584 
0.0750009 -0.0369951 0.996497 -0.10771 0.0222773 0.993933 -0.122657 0.0746962 0.989634 
-0.0668784 -0.0549931 0.996244 -0.0541651 -0.128746 0.990197 -0.0448766 0.0860357 0.995281 
-0.0721764 -0.124862 0.989545 0.0214066 0.0240959 0.99948 0.133946 -0.0149905 0.990875 
0.000459373 -0.0643929 0.997925 -0.180084 -0.0991771 0.978639 -0.408832 -0.145917 0.900869 
0.375015 -0.311266 0.873199 0.111875 -0.22658 0.967546 -0.0175484 -0.0918757 0.995616 
-0.0762895 -0.0349608 0.996473 -0.0967513 -0.000172095 0.995309 -0.0472613 -0.028371 0.99848 
-0.0655838 -0.0191822 0.997663 -0.074421 -0.0417034 0.996355 0.0110331 -0.0151641 0.999824 
0.0281803 -0.125346 0.991713 -0.0475338 -0.195951 0.979461 -0.216864 -0.263086 0.940083 
0.276244 -0.415363 0.866696 0.0844746 -0.26124 0.96157 -0.0216453 -0.206137 0.978284 
-0.0663491 -0.1672 0.983688 -0.0669903 -0.149937 0.986423 -0.0623029 -0.168742 0.983689 
-0.0702414 -0.137481 0.988011 -0.0650176 -0.148435 0.986783 -0.0632842 -0.236979 0.969451 
-0.126383 -0.340482 0.931718 0.222934 -0.702419 0.675949 0.0402953 -0.613521 0.78865 
-0.0403144 -0.607198 0.793527 -0.0427524 -0.564117 0.824588 -0.0307386 -0.48817 0.872207 
-0.0381462 -0.39563 0.917618 -0.0901747 -0.384962 0.918517 0.249963 0.733408 0.632164 
0.172469 0.746862 0.642224 0.075792 0.761733 0.643443 -0.0268058 0.782531 0.622034 
-0.0387545 0.99612 0.0790082 -0.125413 0.755913 0.642548 -0.203003 0.722921 0.660435 
-0.271973 0.721187 0.637119 0.47913 0.656097 0.58307 0.287128 0.740698 0.607391 
0.330482 0.731005 0.597004 0.372882 0.843223 0.387213 -0.273683 0.72025 0.637446 
-0.327214 0.632317 0.702215 -0.395577 0.8452 0.359382 0.505927 0.634232 0.584626 
0.576914 0.54487 0.608512 -0.48271 0.531749 0.695869 -0.487323 0.525519 0.697385 
-0.497764 0.544611 0.675004 0.630954 0.487543 0.603489 -0.523812 0.394876 0.754781 
-0.566335 0.325519 0.757167 -0.625832 0.450717 0.636544 0.649728 0.375066 0.661195 
0.656942 0.365289 0.659539 0.668701 0.383507 0.636994 -0.613415 0.203246 0.76316 
-0.872623 0.347072 0.343613 0.725613 0.18347 0.663192 -0.562801 0.0780322 0.822901 
-0.781096 0.148977 0.606379 0.72985 -0.000809977 0.683607 0.971262 0.0150332 0.237537 
-0.522787 -0.0352792 0.851733 -0.747237 -0.047291 0.662873 0.709792 -0.240192 0.662196 
0.635208 -0.389793 0.666763 -0.538279 -0.160419 0.827358 -0.435033 -0.330102 0.837723 
-0.770585 -0.188349 0.608871 0.59232 -0.435414 0.677917 0.683628 -0.470057 0.5583 
0.52304 -0.542414 0.657431 -0.404787 -0.349576 0.844952 -0.306396 -0.418488 0.854979 
-0.443906 -0.365935 0.817948 -0.791916 -0.400946 0.460555 0.518529 -0.545943 0.658083 
0.532126 -0.55574 0.638745 0.358207 -0.646966 0.673144 -0.132035 -0.383632 0.913998 
-0.28845 -0.422237 0.859367 -0.177245 -0.428992 0.885748 -0.320879 -0.441595 0.837873 
-0.597752 -0.590575 0.542138 0.271534 -0.725056 0.6329 0.410001 -0.822071 0.395093 
0.228599 -0.739579 0.63306 0.0590217 -0.731654 0.679117 -0.0315403 -0.718354 0.694963 
-0.0221077 -0.654267 0.75594 -0.00678233 -0.560213 0.828321 -0.0260847 -0.452921 0.891169 
-0.109375 -0.406135 0.907244 -0.0932908 -0.40989 0.907352 -0.171448 -0.483004 0.858669 
-0.304601 -0.631395 0.713133 -0.479646 -0.756249 0.445001 0.0968305 -0.904749 0.414792 
-0.088576 -0.879466 0.467648 -0.0387548 0.996387 0.07557 0.39635 0.9046 0.156862 
0.288716 0.942186 0.170085 0.192528 0.97148 0.138415 0.0174621 0.996644 0.0799747 
0.0727021 0.993776 0.0844014 -0.0414271 0.996275 0.0756359 -0.0388314 0.996796 0.0699271 
-0.128494 0.987902 0.0868316 -0.20172 0.968151 0.148297 -0.260688 0.943741 0.203455 
-0.405082 0.890071 0.209003 0.453509 0.878524 0.150084 0.523727 0.838194 0.152123 
-0.450124 0.869077 0.205166 -0.557981 0.804754 0.202552 0.661904 0.734418 0.150041 
0.66625 0.730523 0.149825 -0.689537 0.693359 0.209266 -0.742145 0.631446 0.224717 
0.784582 0.597312 0.166281 0.796177 0.580402 0.170985 -0.812921 0.535895 0.227984 
-0.876503 0.377539 0.298676 0.883265 0.427846 0.191808 -0.881256 0.356665 0.310127 
0.963274 0.1747 0.203921 0.972905 0.024254 0.229928 -0.905577 0.188946 0.379775 
0.972649 0.0153509 0.231771 0.972714 -0.00587737 0.231932 -0.902425 -0.0256767 0.430081 
0.940171 -0.25107 0.23031 -0.864773 -0.196871 0.461962 0.843756 -0.483011 0.234042 
0.758813 -0.605951 0.238802 -0.801634 -0.403537 0.441069 -0.796163 -0.416026 0.439371 
0.696607 -0.679046 0.231592 0.596337 -0.774757 0.210083 -0.654535 -0.608175 0.449118 
-0.613366 -0.652173 0.44548 0.48191 -0.854012 0.196024 0.413635 -0.889354 0.194823 
0.218112 -0.957461 0.188934 0.0687231 -0.977268 0.200559 0.0319308 -0.970025 0.240896 
0.0910195 -0.955139 0.281824 0.166055 -0.939402 0.299915 -0.263375 -0.871737 0.413168 
-0.377883 -0.817334 0.434937 -0.485671 -0.759535 0.4327 -0.481747 -0.761989 0.432773 
0.142245 -0.940194 0.309517 0.166103 -0.985711 0.0280122 0.108347 -0.936776 0.332733 
-0.207926 -0.895568 0.39335 -0.0745543 -0.929825 0.36037 -0.259824 -0.944209 0.202386 
0.405621 0.902319 -0.145914 0.27225 0.950334 -0.150813 0.145001 0.971953 -0.185152 
0.0352952 0.972613 -0.229733 -0.0410008 0.968043 -0.24741 -0.0847771 0.967854 -0.236794 
-0.133197 0.973734 -0.184661 -0.235871 0.959913 -0.151435 -0.392234 0.90581 -0.160186 
0.459329 0.875651 -0.149173 0.54368 0.825344 -0.15238 0.397763 0.864688 -0.306755 
-0.456414 0.876019 -0.15581 -0.39614 0.8612 -0.318447 -0.579544 0.79947 -0.15804 
0.650613 0.742726 -0.158308 0.668393 0.726833 -0.158002 -0.679591 0.713625 -0.169986 
-0.724065 0.670161 -0.163138 0.776013 0.610605 -0.158005 0.801079 0.577918 -0.15583 
-0.803125 0.574536 -0.157795 -0.880439 0.45926 -0.117927 0.880456 0.450024 -0.149249 
-0.900724 0.423403 -0.0970873 -0.855677 0.448795 -0.257682 0.965657 0.223782 -0.132017 
0.992166 0.0630296 -0.107864 -0.96695 0.251481 -0.0420204 0.994657 0.0243246 -0.100331 
0.992959 -0.0540854 -0.105387 0.989167 0.0259836 -0.144474 -0.999523 0.0144504 -0.0273055 
0.960929 -0.254036 -0.109917 -0.983628 -0.180066 0.0072261 0.871083 -0.483356 -0.0870689 
0.766877 -0.637409 -0.074895 -0.895913 -0.444202 0.00488935 -0.851154 -0.52491 -0.00267802 
0.702945 -0.707167 -0.0760398 0.582921 -0.806855 -0.0958541 -0.760277 -0.649599 0.000550273 
-0.632601 -0.774334 -0.014931 0.479483 -0.871528 -0.10264 0.420007 -0.901382 -0.10538 
0.408119 -0.857112 -0.314321 0.236685 -0.966508 -0.0992079 0.114557 -0.991597 -0.0600984 
0.0811888 -0.996517 -0.0190074 0.110925 -0.993518 -0.0248523 -0.386045 -0.91942 -0.0750749 
-0.547247 -0.836361 -0.0319491 -0.507211 -0.86095 -0.0387603 -0.463142 -0.79214 -0.397509 
0.154856 -0.987661 -0.0233328 0.164169 -0.986135 -0.0242016 0.156497 -0.985333 -0.0680316 
0.102735 -0.990247 -0.0941099 0.0426367 -0.918286 -0.393614 -0.0612138 -0.991131 -0.117952 
-0.0863004 -0.911188 -0.402851 -0.27746 -0.955124 -0.103701 -0.233571 -0.9656 -0.114283 
-0.232305 -0.949867 -0.209253 0.245677 0.86907 -0.429372 0.106254 0.885898 -0.451547 
0.00457388 0.8805 -0.474024 -0.0444391 0.859847 -0.508614 -0.0559101 0.857991 -0.510612 
-0.107339 0.863948 -0.492009 -0.239616 0.828458 -0.506204 0.518471 0.758817 -0.39419 
0.349325 0.845491 -0.403878 0.386725 0.831833 -0.398119 0.231035 0.794056 -0.562226 
0.0868484 0.731552 -0.676232 -0.0227595 0.711451 -0.702367 -0.0526785 0.707349 -0.704898 
-0.0520621 0.706892 -0.705403 -0.112506 0.740486 -0.662588 -0.308128 0.805455 -0.50626 
-0.242435 0.777998 -0.579607 -0.384229 0.7603 -0.523748 -0.547479 0.653528 -0.522654 
0.571609 0.722203 -0.389469 0.646429 0.660199 -0.382447 0.494317 0.698692 -0.517185 
-0.164499 0.391011 -0.905566 -0.312345 0.515544 -0.797907 -0.56792 0.635931 -0.522549 
-0.540517 0.623896 -0.564443 -0.648615 0.559961 -0.515502 0.704808 0.597555 -0.382327 
0.773906 0.495408 -0.394513 0.603253 0.560319 -0.567564 -0.386822 0.426888 -0.817396 
-0.660039 0.549261 -0.512505 -0.635047 0.543428 -0.549001 0.797087 0.45286 -0.399463 
0.755693 0.450014 -0.475832 -0.738044 0.454948 -0.49831 -0.523939 0.363655 -0.770223 
-0.788484 0.394537 -0.471841 0.88771 0.248399 -0.387645 0.697178 0.227625 -0.679801 
-0.853873 0.261846 -0.44982 -0.743815 0.269835 -0.611497 0.918603 0.0344185 -0.39368 
-0.897268 0.028662 -0.440555 -0.744039 0.0314743 -0.667395 0.899277 -0.244209 -0.362854 
-0.890768 -0.166144 -0.422999 -0.758494 -0.150754 -0.634004 0.809542 -0.470555 -0.351026 
0.762977 -0.544997 -0.347626 0.747954 -0.468777 -0.469907 -0.806146 -0.430587 -0.405861 
-0.797088 -0.447024 -0.405982 -0.79395 -0.429395 -0.430423 0.636915 -0.690048 -0.343765 
0.572794 -0.747191 -0.337065 0.550749 -0.654123 -0.518457 0.406208 -0.847085 -0.342699 
-0.449672 -0.771916 -0.449379 -0.337598 -0.543006 -0.768877 -0.635412 -0.644098 -0.425898 
-0.58074 -0.69208 -0.428679 -0.553897 -0.633065 -0.540765 0.39666 -0.852283 -0.34099 
0.274521 -0.901371 -0.334915 0.268056 -0.77266 -0.575449 0.152117 -0.939275 -0.307609 
0.0934251 -0.611476 -0.785728 0.0675674 -0.948916 -0.30821 -0.0118191 -0.568148 -0.822842 
0.0682004 -0.93315 -0.352958 -0.0689421 -0.553868 -0.829745 0.0743732 -0.89799 -0.433685 
-0.0786468 -0.53507 -0.841139 0.00629199 -0.838107 -0.54547 -0.0198322 -0.523414 -0.851848 
-0.0915837 -0.820046 -0.564923 -0.0340973 -0.5328 -0.845554 -0.18981 -0.803694 -0.563958 
-0.112238 -0.632431 -0.766442 -0.435527 -0.778679 -0.451637 -0.290494 -0.811812 -0.506531 
-0.236144 -0.722971 -0.649268 0.270389 0.573813 -0.773064 0.140839 0.553729 -0.8207 
0.0617159 0.548223 -0.834052 -0.038446 0.535251 -0.843817 -0.0865949 0.462668 -0.882292 
-0.0542105 0.37652 -0.924821 -0.0751967 0.391762 -0.916989 0.297997 0.571293 -0.764737 
0.396028 0.541577 -0.741523 0.25562 0.543661 -0.799432 0.104065 0.435479 -0.894163 
0.0366981 0.373361 -0.92696 -0.0511725 0.355234 -0.933376 -0.103882 0.334737 -0.936568 
-0.0524826 0.307539 -0.950087 -0.129788 0.369499 -0.920123 -0.0659751 0.337802 -0.938902 
-0.15028 0.355431 -0.922543 -0.215847 0.357588 -0.908593 0.472721 0.491444 -0.731449 
0.525066 0.444336 -0.725859 0.318584 0.408233 -0.855482 0.119425 0.295466 -0.94786 
0.0340126 0.182809 -0.98256 0.0115503 0.14937 -0.988714 -0.0675289 0.19323 -0.978827 
-0.133325 0.212723 -0.967974 -0.0702298 0.170298 -0.982887 -0.0374334 0.107404 -0.99351 
-0.0805672 0.207263 -0.974962 -0.259028 0.351196 -0.899759 -0.179731 0.303019 -0.935882 
-0.327171 0.350351 -0.877618 0.551455 0.378196 -0.743549 0.455901 0.336849 -0.823825 
0.220881 0.19581 -0.955442 0.024081 0.121712 -0.992273 -0.0531974 0.0561728 -0.997003 
0.0378651 0.0470224 -0.998176 0.0126758 0.0892564 -0.995928 -0.116462 0.0840267 -0.989634 
-0.16321 0.191996 -0.967729 -0.0276179 0.0225694 -0.999364 0.0363529 0.0874463 -0.995506 
-0.0964189 0.166544 -0.981309 -0.395151 0.309554 -0.864889 -0.273519 0.254763 -0.927514 
-0.440734 0.259872 -0.859197 0.662877 0.218565 -0.716117 0.66935 0.153839 -0.726845 
0.324773 0.155126 -0.932984 0.104678 0.0942877 -0.990026 -0.0295869 0.00415992 -0.999554 
-0.0354683 -0.00788689 -0.99934 0.0462473 -0.0140546 -0.998831 -0.0299937 -0.0294177 -0.999117 
-0.0387178 -0.163722 -0.985747 -0.142721 0.00191057 -0.989761 -0.131001 -0.0226238 -0.991124 
0.0625204 0.0202351 -0.997839 0.000722307 0.0673689 -0.997728 -0.15297 0.142221 -0.977944 
-0.456424 0.218691 -0.862468 -0.403352 0.210632 -0.890473 0.659214 0.0511213 -0.750216 
0.633051 0.0505834 -0.772456 0.305671 0.0195631 -0.951936 0.0705552 -0.00195642 -0.997506 
-0.077724 -0.0184107 -0.996805 -0.0770379 -0.0611351 -0.995152 0.0126288 -0.185351 -0.982591 
-0.133458 -0.276476 -0.951709 -0.0744723 -0.0909471 -0.993067 -0.0260047 -0.083281 -0.996187 
-0.0140842 0.0463575 -0.998826 0.126144 0.0519149 -0.990653 0.0294848 0.0536922 -0.998122 
-0.140788 0.0441382 -0.989055 -0.49744 0.0420388 -0.866479 -0.387662 0.0448311 -0.920711 
0.685379 -0.190453 -0.702839 0.671974 -0.227941 -0.704623 0.659387 -0.189881 -0.72743 
0.282904 -0.135032 -0.949596 0.0672677 -0.0796734 -0.994549 -0.0870354 -0.0612135 -0.994323 
-0.189484 -0.0567241 -0.980244 -0.16756 -0.119883 -0.978546 0.0438165 -0.204955 -0.97779 
0.160255 -0.0245073 -0.986771 0.00910664 -0.0285125 -0.999552 -0.00311854 0.0929997 -0.995661 
0.0669058 0.0353089 -0.997134 -0.00596685 -0.0278806 -0.999593 -0.159452 -0.0680309 -0.984859 
-0.496768 -0.0980198 -0.86233 -0.401473 -0.0860815 -0.911816 0.541629 -0.417724 -0.729482 
0.469741 -0.502379 -0.725919 0.409045 -0.367245 -0.835352 0.159101 -0.24965 -0.955176 
-0.0512999 -0.143446 -0.988328 -0.137854 -0.0829308 -0.986974 -0.153614 0.011308 -0.988066 
-0.0147423 0.0419112 -0.999013 0.105874 -0.106256 -0.988686 0.089805 -0.160806 -0.982892 
0.0467065 -0.103111 -0.993573 0.0085512 -0.119689 -0.992775 -0.0709909 -0.170775 -0.982749 
-0.308565 -0.481534 -0.820312 -0.203508 -0.245306 -0.947845 -0.48922 -0.32397 -0.809758 
-0.467965 -0.348663 -0.812061 -0.457619 -0.317548 -0.830511 0.381867 -0.555728 -0.738474 
0.310083 -0.584989 -0.749424 0.283756 -0.508528 -0.812946 0.191625 -0.595029 -0.780526 
0.0807755 -0.393401 -0.915812 0.0875223 -0.590566 -0.802229 -0.021998 -0.239442 -0.970662 
-0.0151464 -0.534239 -0.845198 -0.0508627 -0.150924 -0.987236 -0.0716788 -0.485979 -0.871026 
-0.0698178 -0.0960171 -0.992928 -0.0740464 -0.368377 -0.926723 -0.0453243 -0.200155 -0.978715 
-0.00874088 -0.390398 -0.920605 0.00846826 -0.298614 -0.954336 -0.000519748 -0.414323 -0.91013 
0.0279314 -0.321608 -0.946461 -0.0419348 -0.477018 -0.877892 -0.00327673 -0.368726 -0.929532 
-0.274127 -0.500673 -0.821086 -0.169988 -0.512732 -0.841552 -0.142337 -0.416004 -0.898154 

