# vtk DataFile Version 4.2
vtk output
ASCII
DATASET POLYDATA
POINTS 552 float
-16.202 -38.9843 -14.4129 -7.73926 -38.9843 -16.9334 0.723499 -38.9843 -17.521 
9.18626 -38.9843 -16.4484 17.649 -38.9843 -14.5901 -41.5903 -30.5215 -13.9189 
-33.1275 -30.5215 -15.3382 -24.6648 -30.5215 -16.8161 -16.202 -30.5215 -18.5706 
-7.73926 -30.5215 -20.0461 0.723499 -30.5215 -20.5472 9.18626 -30.5215 -19.698 
17.649 -30.5215 -18.9033 26.1118 -30.5215 -16.9154 34.5745 -30.5215 -15.2855 
-58.5158 -22.0588 -13.9037 -50.0531 -22.0588 -17.039 -41.5903 -22.0588 -18.0883 
-33.1275 -22.0588 -18.0396 -24.6648 -22.0588 -18.3781 -16.202 -22.0588 -19.0628 
-7.73926 -22.0588 -20.1546 0.723499 -22.0588 -20.4007 9.18626 -22.0588 -20.3295 
17.649 -22.0588 -19.515 26.1118 -22.0588 -19.0219 34.5745 -22.0588 -18.4229 
43.0373 -22.0588 -17.1906 51.5001 -22.0588 -13.9997 -66.9786 -13.596 -14.6514 
-58.5158 -13.596 -17.9345 -50.0531 -13.596 -18.783 -41.5903 -13.596 -19.0853 
-33.1275 -13.596 -19.2347 -24.6648 -13.596 -18.0874 -16.202 -13.596 -17.9435 
-7.73926 -13.596 -19.5519 0.723499 -13.596 -19.3175 9.18626 -13.596 -19.3095 
17.649 -13.596 -18.7252 26.1118 -13.596 -19.4845 34.5745 -13.596 -20.4314 
43.0373 -13.596 -19.6843 51.5001 -13.596 -18.0225 59.9628 -13.596 -14.0451 
-66.9786 -5.13324 -13.6657 -58.5158 -5.13324 -19.757 -50.0531 -5.13324 -19.521 
-41.5903 -5.13324 -19.3505 -33.1275 -5.13324 -18.8579 -24.6648 -5.13324 -17.0642 
-16.202 -5.13324 -16.7685 -7.73926 -5.13324 -20.6886 0.723499 -5.13324 -17.2924 
9.18626 -5.13324 -21.1126 17.649 -5.13324 -17.5475 26.1118 -5.13324 -19.026 
34.5745 -5.13324 -20.3562 43.0373 -5.13324 -20.7481 51.5001 -5.13324 -19.71 
59.9628 -5.13324 -16.8919 -66.9786 3.32952 -13.8684 -58.5158 3.32952 -18.7375 
-50.0531 3.32952 -19.1399 -41.5903 3.32952 -19.1333 -33.1275 3.32952 -18.5608 
-24.6648 3.32952 -16.7739 -16.202 3.32952 -17.2909 -7.73926 3.32952 -19.7225 
0.723499 3.32952 -15.6561 9.18626 3.32952 -20.6874 17.649 3.32952 -16.1083 
26.1118 3.32952 -18.3358 34.5745 3.32952 -20.1302 43.0373 3.32952 -20.7171 
51.5001 3.32952 -20.0096 59.9628 3.32952 -17.3692 -66.9786 11.7923 -14.7428 
-58.5158 11.7923 -17.5103 -50.0531 11.7923 -18.3409 -41.5903 11.7923 -18.7508 
-33.1275 11.7923 -18.7341 -24.6648 11.7923 -18.173 -16.202 11.7923 -18.0068 
-7.73926 11.7923 -18.0053 0.723499 11.7923 -18.5934 9.18626 11.7923 -18.2443 
17.649 11.7923 -16.8222 26.1118 11.7923 -18.4445 34.5745 11.7923 -20.0503 
43.0373 11.7923 -19.932 51.5001 11.7923 -18.9387 59.9628 11.7923 -16.5161 
-58.5158 20.255 -14.5784 -50.0531 20.255 -16.8585 -41.5903 20.255 -18.705 
-33.1275 20.255 -18.3702 -24.6648 20.255 -18.124 -16.202 20.255 -17.6291 
-7.73926 20.255 -15.8681 0.723499 20.255 -16.5259 9.18626 20.255 -17.6629 
17.649 20.255 -17.6846 26.1118 20.255 -18.2365 34.5745 20.255 -19.1913 
43.0373 20.255 -19.2498 51.5001 20.255 -17.9604 59.9628 20.255 -14.6968 
-50.0531 28.7178 -14.9984 -41.5903 28.7178 -17.3021 -33.1275 28.7178 -17.4437 
-24.6648 28.7178 -17.0807 -16.202 28.7178 -15.3242 9.18626 28.7178 -14.057 
17.649 28.7178 -15.8094 26.1118 28.7178 -16.7261 34.5745 28.7178 -17.6284 
43.0373 28.7178 -17.2822 51.5001 28.7178 -15.5079 -33.1275 37.1806 -13.8813 
-16.202 -39.8237 -13.5803 -7.73926 -42.7544 -13.5803 0.723499 -43.5543 -13.5803 
0.723499 -47.4471 -5.72932 9.18626 -42.2423 -13.5803 17.649 -40.006 -13.5803 
-41.5903 -30.9352 -13.5803 -33.1275 -32.7412 -13.5803 -18.0388 -38.9843 -13.5803 
-24.6648 -35.4772 -13.5803 -24.6648 -38.9843 -8.43496 20.6208 -38.9843 -13.5803 
26.1118 -36.3696 -13.5803 26.1118 -38.9843 -10.7954 34.5745 -32.7198 -13.5803 
-58.5158 -22.565 -13.5803 -42.8627 -30.5215 -13.5803 -50.0531 -27.8599 -13.5803 
-50.0531 -30.5215 -11.0122 38.6412 -30.5215 -13.5803 43.0373 -27.646 -13.5803 
43.0373 -30.5215 -10.7779 51.5001 -22.5969 -13.5803 -59.1307 -22.0588 -13.5803 
-66.9786 -15.805 -13.5803 -66.9786 -22.0588 -6.91079 52.3021 -22.0588 -13.5803 
59.9628 -14.5811 -13.5803 59.9628 -22.0588 -7.91899 -68.33 -13.596 -13.5803 
60.6163 -13.596 -13.5803 68.4256 -13.596 -5.62448 -67.1092 -5.13324 -13.5803 
-75.4414 -5.13324 -5.54182 65.4387 -5.13324 -13.5803 68.4256 -5.13324 -10.7943 
-67.4153 3.32952 -13.5803 -75.4414 3.32952 -6.07484 67.2138 3.32952 -13.5803 
68.4256 3.32952 -12.6026 -68.5207 11.7923 -13.5803 -66.9786 15.0522 -13.5803 
65.2709 11.7923 -13.5803 68.4256 11.7923 -11.5502 -60.9889 20.255 -13.5803 
-66.9786 20.255 -10.6767 -58.5158 27.3882 -13.5803 -7.73926 27.3354 -13.5803 
0.723499 26.0777 -13.5803 61.6652 20.255 -13.5803 59.9628 23.4859 -13.5803 
68.4256 20.255 -8.6091 -57.5009 28.7178 -13.5803 -58.5158 28.7178 -13.2827 
-50.0531 32.7218 -13.5803 -41.5903 35.7528 -13.5803 -24.6648 36.1369 -13.5803 
-9.57824 28.7178 -13.5803 -16.202 32.5027 -13.5803 -7.73926 28.7178 -13.0868 
6.97823 28.7178 -13.5803 0.723499 28.7178 -12.0337 9.18626 29.3457 -13.5803 
17.649 32.0716 -13.5803 26.1118 34.1244 -13.5803 34.5745 35.4539 -13.5803 
43.0373 34.6281 -13.5803 56.0558 28.7178 -13.5803 51.5001 32.0828 -13.5803 
59.9628 28.7178 -10.8675 -50.0531 37.1806 -11.6325 -35.1841 37.1806 -13.5803 
-41.5903 37.1806 -12.4813 -30.0975 37.1806 -13.5803 -33.1275 37.611 -13.5803 
-24.6648 37.1806 -12.8265 -16.202 37.1806 -10.5887 -7.73926 37.1806 -5.72047 
17.649 37.1806 -5.94587 26.1118 37.1806 -10.0755 34.5745 37.1806 -11.822 
43.0373 37.1806 -10.9931 51.5001 37.1806 -8.45738 0.723499 -47.6727 -5.11751 
-24.6648 -40.4293 -5.11751 -16.202 -43.7141 -5.11751 -1.49638 -47.4471 -5.11751 
-7.73926 -46.7468 -5.11751 3.17865 -47.4471 -5.11751 0.723499 -47.4471 -0.379521 
9.18626 -46.8512 -5.11751 17.649 -44.8672 -5.11751 26.1118 -42.1047 -5.11751 
-50.0531 -34.16 -5.11751 -41.5903 -36.4347 -5.11751 -29.4194 -38.9843 -5.11751 
-33.1275 -37.8192 -5.11751 33.8348 -38.9843 -5.11751 34.5745 -38.6554 -5.11751 
34.5745 -38.9843 -2.25937 43.0373 -34.5347 -5.11751 -66.9786 -23.4658 -5.11751 
-58.0895 -30.5215 -5.11751 -58.5158 -30.2847 -5.11751 50.363 -30.5215 -5.11751 
51.5001 -29.828 -5.11751 51.5001 -30.5215 -0.981621 59.9628 -23.9706 -5.11751 
-68.1183 -22.0588 -5.11751 62.2077 -22.0588 -5.11751 68.4256 -14.1732 -5.11751 
-73.6669 -13.596 -5.11751 -75.4414 -6.18374 -5.11751 68.765 -13.596 -5.11751 
-75.6791 -5.13324 -5.11751 -75.4414 -5.13324 -1.73357 72.2564 -5.13324 -5.11751 
-76.037 3.32952 -5.11751 -75.4414 6.76671 -5.11751 73.4573 3.32952 -5.11751 
-74.3959 11.7923 -5.11751 73.3906 11.7923 -5.11751 -71.4225 20.255 -5.11751 
-66.9786 28.3317 -5.11751 71.0824 20.255 -5.11751 68.4256 24.8933 -5.11751 
-66.627 28.7178 -5.11751 -66.9786 28.7178 3.05225 -58.5158 36.504 -5.11751 
0.723499 34.8153 -5.11751 9.18626 35.4424 -5.11751 65.0301 28.7178 -5.11751 
59.9628 34.3432 -5.11751 -57.8368 37.1806 -5.11751 -58.5158 37.1806 -0.311945 
-50.0531 41.7394 -5.11751 -41.5903 44.4155 -5.11751 -33.1275 44.3728 -5.11751 
-24.6648 43.1138 -5.11751 -16.202 40.9326 -5.11751 -6.52851 37.1806 -5.11751 
-7.73926 37.5611 -5.11751 16.175 37.1806 -5.11751 17.649 37.5729 -5.11751 
17.649 37.1806 -2.56291 26.1118 39.6725 -5.11751 34.5745 41.1032 -5.11751 
43.0373 40.9431 -5.11751 55.8887 37.1806 -5.11751 51.5001 38.9659 -5.11751 
-24.6648 -39.263 3.34525 -16.202 -42.507 3.34525 -7.73926 -45.7538 3.34525 
0.723499 -47.2586 3.34525 9.18626 -46.6512 3.34525 17.649 -44.8599 3.34525 
26.1118 -42.5191 3.34525 34.5745 -39.5834 3.34525 -50.0531 -34.2785 3.34525 
-41.5903 -36.364 3.34525 -25.9464 -38.9843 3.34525 -33.1275 -37.4736 3.34525 
-24.6648 -38.9843 4.06332 -16.202 -38.9843 9.6054 26.1118 -38.9843 10.5886 
35.8301 -38.9843 3.34525 34.5745 -38.9843 4.89636 43.0373 -35.7058 3.34525 
51.5001 -31.1598 3.34525 -66.9786 -22.8348 3.34525 -57.4382 -30.5215 3.34525 
-58.5158 -29.8008 3.34525 -50.0531 -30.5215 11.267 52.5499 -30.5215 3.34525 
51.5001 -30.5215 5.21501 59.9628 -25.4884 3.34525 -67.5579 -22.0588 3.34525 
-66.9786 -22.0588 4.16251 64.1687 -22.0588 3.34525 68.4256 -16.8942 3.34525 
-72.7449 -13.596 3.34525 -66.9786 -13.596 11.1804 70.4055 -13.596 3.34525 
68.4256 -13.596 8.29716 -75.0698 -5.13324 3.34525 -75.4414 0.629192 3.34525 
74.5091 -5.13324 3.34525 -75.6107 3.32952 3.34525 -75.4414 4.40967 3.34525 
-75.4414 3.32952 3.6178 75.7669 3.32952 3.34525 -74.2841 11.7923 3.34525 
75.3342 11.7923 3.34525 -71.7061 20.255 3.34525 -66.9786 20.255 9.87037 
72.8662 20.255 3.34525 68.4256 27.4372 3.34525 -66.9863 28.7178 3.34525 
-66.9786 28.7284 3.34525 -66.9786 28.7178 3.35771 -7.73926 28.7178 10.8002 
0.723499 35.1367 3.34525 0.723499 28.7178 9.62585 9.18626 34.8262 3.34525 
9.18626 28.7178 9.07479 17.649 36.2748 3.34525 17.649 28.7178 10.5495 
67.3693 28.7178 3.34525 59.9628 35.5418 3.34525 -58.946 37.1806 3.34525 
-58.5158 37.5409 3.34525 -58.5158 37.1806 3.90072 -50.0531 42.0169 3.34525 
-50.0531 37.1806 11.2012 -41.5903 44.4055 3.34525 -33.1275 44.1805 3.34525 
-24.6648 42.775 3.34525 -24.6648 37.1806 11.266 -16.202 40.3169 3.34525 
-16.202 37.1806 7.39871 -6.71119 37.1806 3.34525 -7.73926 37.4265 3.34525 
-7.73926 37.1806 3.69189 20.2944 37.1806 3.34525 26.1118 38.9382 3.34525 
26.1118 37.1806 6.33592 34.5745 40.2946 3.34525 34.5745 37.1806 9.3218 
43.0373 40.5421 3.34525 43.0373 37.1806 9.15333 56.4805 37.1806 3.34525 
51.5001 39.1624 3.34525 51.5001 37.1806 7.15003 -7.73926 -41.2931 11.808 
0.723499 -42.6356 11.808 9.18626 -41.9814 11.808 17.649 -40.47 11.808 
-41.5903 -31.5493 11.808 -33.1275 -33.727 11.808 -24.6648 -35.0012 11.808 
-12.8393 -38.9843 11.808 -16.202 -37.4026 11.808 -7.73926 -38.9843 13.9117 
0.723499 -38.9843 14.8795 9.18626 -38.9843 14.5518 23.3328 -38.9843 11.808 
17.649 -38.9843 13.1815 26.1118 -38.0991 11.808 34.5745 -35.5877 11.808 
43.0373 -32.1521 11.808 -58.5158 -24.4573 11.808 -47.8533 -30.5215 11.808 
-50.0531 -29.9714 11.808 -41.5903 -30.5215 12.8754 -33.1275 -30.5215 15.0497 
-24.6648 -30.5215 15.3332 -16.202 -30.5215 16.8111 -7.73926 -30.5215 17.8367 
0.723499 -30.5215 18.2118 9.18626 -30.5215 17.5913 17.649 -30.5215 17.3016 
26.1118 -30.5215 16.7739 34.5745 -30.5215 15.8755 46.1946 -30.5215 11.808 
[...]
POINT_DATA 552
SCALARS ImageScalars float
LOOKUP_TABLE default
0 0 0 0 0 0 0 0 0 
0 0 0 0 0 0 0 0 0 
0 0 0 0 0 0 0 0 0 
0 0 0 0 0 0 0 0 0 
0 0 0 0 0 0 0 0 0 
0 0 0 0 0 0 0 0 0 
0 0 0 0 0 0 0 0 0 
0 0 0 0 0 0 0 0 0 
0 0 0 0 0 0 0 0 0 
0 0 0 0 0 0 0 0 0 
0 0 0 0 0 0 0 0 0 
0 0 0 0 0 0 0 0 0 
0 0 0 0 0 0 0 0 0 
0 0 0 0 0 0 0 0 0 
0 0 0 0 0 0 0 0 0 
0 0 0 0 0 0 0 0 0 
0 0 0 0 0 0 0 0 0 
0 0 0 0 0 0 0 0 0 
0 0 0 0 0 0 0 0 0 
0 0 0 0 0 0 0 0 0 
0 0 0 0 0 0 0 0 0 
0 0 0 0 0 0 0 0 0 
0 0 0 0 0 0 0 0 0 
0 0 0 0 0 0 0 0 0 
0 0 0 0 0 0 0 0 0 
0 0 0 0 0 0 0 0 0 
0 0 0 0 0 0 0 0 0 
0 0 0 0 0 0 0 0 0 
0 0 0 0 0 0 0 0 0 
0 0 0 0 0 0 0 0 0 
0 0 0 0 0 0 0 0 0 
0 0 0 0 0 0 0 0 0 
0 0 0 0 0 0 0 0 0 
0 0 0 0 0 0 0 0 0 
0 0 0 0 0 0 0 0 0 
0 0 0 0 0 0 0 0 0 
0 0 0 0 0 0 0 0 0 
0 0 0 0 0 0 0 0 0 
0 0 0 0 0 0 0 0 0 
0 0 0 0 0 0 0 0 0 
0 0 0 0 0 0 0 0 0 
0 0 0 0 0 0 0 0 0 
0 0 0 0 0 0 0 0 0 
0 0 0 0 0 0 0 0 0 
0 0 0 0 0 0 0 0 0 
0 0 0 0 0 0 0 0 0 
0 0 0 0 0 0 0 0 0 
0 0 0 0 0 0 0 0 0 
0 0 0 0 0 0 0 0 0 
0 0 0 0 0 0 0 0 0 
0 0 0 0 0 0 0 0 0 
0 0 0 0 0 0 0 0 0 
0 0 0 0 0 0 0 0 0 
0 0 0 0 0 0 0 0 0 
0 0 0 0 0 0 0 0 0 
0 0 0 0 0 0 0 0 0 
0 0 0 0 0 0 0 0 0 
0 0 0 0 0 0 0 0 0 
0 0 0 0 0 0 0 0 0 
0 0 0 0 0 0 0 0 0 
0 0 0 0 0 0 0 0 0 
0 0 0 
NORMALS Normals float
0.328017 0.668531 0.667436 0.152638 0.554932 0.817773 -0.0259824 0.533067 0.845674 
-0.147006 0.561487 0.814323 -0.240248 0.641174 0.728818 0.19208 0.601287 0.775603 
0.168421 0.51169 0.842501 0.182384 0.381109 0.906362 0.186497 0.2144 0.958776 
0.116525 0.168244 0.978834 -0.0209032 0.153316 0.987956 -0.0910116 0.203606 0.974814 
-0.158362 0.231145 0.959944 -0.19556 0.372855 0.907048 -0.26179 0.530504 0.806246 
0.403857 0.451533 0.795624 0.201237 0.337443 0.919585 0.0618324 0.275148 0.959411 
0.0183476 0.206559 0.978262 0.0596011 0.0702984 0.995744 0.106368 -0.0371891 0.993631 
0.0809205 -0.0294469 0.996285 0.0101627 -0.0716823 0.997376 -0.0520937 -0.0242198 0.998348 
-0.0786719 -0.0142105 0.996799 -0.0637588 0.140439 0.988034 -0.10077 0.277268 0.955494 
-0.215809 0.400392 0.890569 -0.38545 0.541371 0.747226 0.529938 0.195248 0.825254 
0.284962 0.305081 0.908693 0.0592443 0.149551 0.986978 0.0261813 0.0695152 0.997237 
-0.0579884 0.0488749 0.99712 -0.0781303 -0.0705444 0.994444 0.0879247 -0.122936 0.988512 
0.0809167 0.0236717 0.99644 -0.0141856 -0.16314 0.986501 -0.0351967 0.0266854 0.999024 
0.0104081 -0.115554 0.993247 0.0987716 0.00205835 0.995108 0.0109437 0.121618 0.992517 
-0.132914 0.189896 0.972766 -0.286124 0.264126 0.92107 -0.522034 0.3462 0.779504 
0.560204 -0.0531937 0.826645 0.271222 0.0325322 0.961967 -0.0219802 0.0203269 0.999552 
-0.0354992 0.00281372 0.999366 -0.127861 -0.0408224 0.990952 -0.114313 -0.0807517 0.990157 
0.21931 -0.0559505 0.97405 0.00886107 0.0251753 0.999644 0.00910293 -0.215283 0.976509 
-0.0222625 0.106685 0.994044 -0.0864776 -0.157818 0.983674 0.167964 -0.0674156 0.983485 
0.100327 -0.0175557 0.9948 -0.0381865 0.0633251 0.997262 -0.203372 0.11059 0.972836 
-0.426937 0.160928 0.889847 0.531708 0.0659759 0.844354 0.270983 -0.107281 0.956587 
0.0205087 -0.0687385 0.997424 -0.0308006 -0.0353959 0.998899 -0.133374 -0.00555404 0.99105 
-0.0780191 0.0713135 0.994398 0.169068 0.0801072 0.982343 -0.058825 -0.173152 0.983137 
-0.0578214 0.107298 0.992544 -0.122746 -0.203824 0.971282 -0.00370094 -0.0444796 0.999003 
0.239753 -0.0344674 0.970222 0.135917 -0.0179423 0.990558 -0.00557389 -0.0480847 0.998828 
-0.180766 -0.0443082 0.982528 -0.391017 -0.0176834 0.920214 0.508559 -0.142018 0.849234 
0.237556 -0.218538 0.946472 0.0656325 -0.133837 0.988828 0.0224314 -0.0251595 0.999432 
-0.0341141 -0.0121788 0.999344 -0.042797 0.0704504 0.996597 -0.0100153 0.00747942 0.999922 
0.0333554 -0.20335 0.978538 0.0165004 -4.55106e-05 0.999864 -0.116016 -0.114867 0.986583 
0.0246035 0.0956021 0.995116 0.187777 -0.00600922 0.982193 0.0874468 -0.0543783 0.994684 
-0.0631603 -0.0841131 0.994452 -0.177777 -0.122242 0.976449 -0.389733 -0.132317 0.911373 
0.321417 -0.221437 0.920683 0.210973 -0.168889 0.962791 0.0894495 -0.102733 0.990679 
-0.0333409 -0.071648 0.996873 -0.0429304 -0.0659132 0.996901 -0.129101 -0.142728 0.981306 
-0.0673997 -0.266172 0.961566 0.104082 -0.339206 0.934936 0.0611574 -0.217387 0.974168 
0.033837 -0.0476908 0.998289 0.0896376 -0.0987987 0.991062 0.05909 -0.135471 0.989018 
-0.0805101 -0.166291 0.982785 -0.222625 -0.179464 0.958244 -0.490234 -0.247453 0.835726 
0.270421 -0.280826 0.920874 0.110704 -0.283905 0.95244 -0.0128946 -0.26428 0.96436 
-0.108115 -0.269059 0.957036 -0.228862 -0.341808 0.911477 0.193701 -0.554238 0.809506 
0.152307 -0.415174 0.896902 0.10115 -0.340377 0.934833 0.0305155 -0.31697 0.947944 
-0.110407 -0.368019 0.92324 -0.308236 -0.413643 0.856674 0.0205301 -0.529435 0.848102 
0.333447 0.708736 0.621696 0.176357 0.744796 0.643566 -0.0237829 0.751603 0.659187 
0.00323978 0.981693 0.190445 -0.166499 0.709786 0.684457 -0.24656 0.684951 0.685602 
0.192907 0.619142 0.761216 0.19256 0.633217 0.749638 0.328085 0.700371 0.633909 
0.268084 0.625574 0.732658 0.314068 0.889069 0.333042 -0.272387 0.66767 0.692836 
-0.282542 0.607978 0.741979 -0.334072 0.764805 0.550881 -0.305149 0.6168 0.725564 
0.405246 0.464759 0.787258 0.206891 0.611558 0.76367 0.261321 0.55758 0.787918 
0.299781 0.731848 0.611988 -0.328319 0.607778 0.723058 -0.341856 0.591736 0.730057 
-0.398274 0.714402 0.575333 -0.392141 0.558848 0.730695 0.418326 0.456372 0.78532 
0.557151 0.278205 0.782422 0.715018 0.619019 0.324906 -0.40138 0.549725 0.732596 
-0.526999 0.371922 0.764164 -0.589971 0.66166 0.462753 0.583316 0.213012 0.783817 
-0.53793 0.351677 0.76613 -0.805454 0.437575 0.399715 0.564708 -0.0521511 0.823641 
0.951475 0.139606 0.274236 -0.60426 0.213467 0.76766 -0.737257 0.236606 0.632826 
0.541627 0.0638025 0.838194 0.933566 -0.0727813 0.350938 -0.620689 0.00212734 0.784054 
-0.682209 0.0160232 0.730982 0.571096 -0.154673 0.80618 0.523532 -0.232638 0.81963 
-0.532068 -0.162864 0.83089 -0.661582 -0.15885 0.732854 0.381183 -0.261467 0.886755 
0.6136 -0.394636 0.683927 0.399642 -0.364744 0.840981 -0.150117 -0.381002 0.912306 
0.0692158 -0.498398 0.864181 -0.525664 -0.253309 0.812103 -0.510353 -0.305142 0.804008 
-0.720262 -0.363855 0.59062 0.397541 -0.379616 0.835376 0.421939 -0.401933 0.812661 
0.274993 -0.406125 0.871459 0.103222 -0.534 0.83916 -0.129923 -0.558881 0.819007 
-0.181196 -0.391197 0.902293 -0.242467 -0.464579 0.85169 -0.171636 -0.4229 0.889774 
0.158172 -0.562653 0.81142 0.0349553 -0.622348 0.781959 0.197703 -0.580567 0.789845 
0.1913 -0.584084 0.788829 0.12698 -0.607843 0.783839 0.0129947 -0.670814 0.741511 
-0.107376 -0.616255 0.780192 -0.43278 -0.427066 0.793924 -0.298729 -0.54286 0.784897 
-0.568108 -0.477074 0.670562 0.303676 -0.61231 0.729971 0.0400133 -0.543536 0.838431 
0.101818 -0.609196 0.786456 -0.0322604 -0.556395 0.830292 0.0180179 -0.542882 0.839616 
-0.137201 -0.623308 0.769846 -0.274936 -0.719375 0.637895 -0.345165 -0.878159 0.331207 
0.252117 -0.948199 0.193277 0.170544 -0.852232 0.494586 0.0207066 -0.803278 0.595244 
-0.109661 -0.784199 0.610742 -0.312339 -0.829668 0.462705 0.00479556 0.986809 0.16182 
0.313646 0.940473 0.130909 0.362894 0.925416 0.109146 0.0577425 0.986481 0.153368 
0.212909 0.968452 0.129501 -0.0414007 0.984484 0.170518 0.0291547 0.998129 -0.0537489 
-0.156844 0.96813 0.195255 -0.264765 0.939524 0.217242 -0.338292 0.906858 0.251329 
0.319473 0.920465 0.225123 0.222481 0.948291 0.226378 0.259818 0.952988 0.155912 
0.224628 0.956649 0.185379 -0.389244 0.873334 0.292877 -0.394024 0.869279 0.298496 
-0.397706 0.904298 0.155162 -0.436866 0.840548 0.320356 0.724382 0.654057 0.217901 
0.474731 0.854006 0.212847 0.485102 0.84858 0.211159 -0.488039 0.815451 0.31122 
-0.497108 0.80952 0.31235 -0.511786 0.851956 0.110662 -0.612744 0.716112 0.334256 
0.748659 0.625371 0.220048 -0.647728 0.682071 0.339452 -0.807541 0.452635 0.378153 
0.910086 0.351752 0.219121 0.95351 0.16797 0.25021 -0.815048 0.438606 0.378579 
0.95672 0.140584 0.2548 0.98796 0.1545 0.00809893 -0.868349 0.244509 0.431491 
0.956032 -0.069563 0.284893 0.944905 -0.14468 0.293637 -0.895084 0.0595388 0.441905 
0.922643 -0.249067 0.294442 -0.89211 -0.13304 0.431787 0.846014 -0.40414 0.347752 
0.730234 -0.591684 0.341567 -0.825712 -0.364347 0.43064 -0.744821 -0.51604 0.423019 
0.722737 -0.600153 0.342735 0.802573 -0.549225 -0.232871 0.63528 -0.678992 0.367954 
-0.103233 -0.933055 0.344603 0.158336 -0.96118 0.225969 -0.681032 -0.609497 0.405845 
-0.597488 -0.725637 0.341261 0.618575 -0.696682 0.363316 0.637866 -0.769666 0.0272171 
0.360394 -0.877677 0.315912 0.170253 -0.936003 0.308078 -0.0744771 -0.957056 0.280175 
-0.203667 -0.939962 0.273844 -0.313079 -0.911476 0.26682 -0.314925 -0.90084 0.298847 
-0.346005 -0.891954 0.291031 0.233594 -0.959697 0.156257 0.251999 -0.95695 0.144027 
0.250125 -0.968127 -0.0129402 0.190053 -0.965736 0.17673 0.0754821 -0.977182 0.198539 
-0.122027 -0.964639 0.233626 -0.461583 -0.839638 0.286267 -0.325537 -0.907415 0.265753 
0.26344 0.933044 -0.245007 0.359372 0.890867 -0.277863 0.254343 0.936196 -0.242585 
0.0478515 0.972844 -0.22646 -0.135473 0.966876 -0.216328 -0.23378 0.951404 -0.200443 
-0.293316 0.939527 -0.176789 -0.380954 0.916122 -0.124881 0.332628 0.92732 -0.171571 
0.196105 0.955394 -0.220828 0.247114 0.938479 -0.241231 0.164635 0.96231 -0.21646 
0.259002 0.926713 -0.272253 0.299518 0.779903 -0.549581 -0.234861 0.777326 -0.583613 
-0.388567 0.913855 -0.11783 -0.366923 0.908039 -0.202072 -0.429068 0.898962 -0.0881394 
-0.506883 0.858265 -0.0803207 0.733294 0.60949 -0.301333 0.487618 0.83673 -0.249224 
0.514569 0.818033 -0.256985 0.325372 0.667048 -0.67021 -0.518 0.851506 -0.0813191 
-0.504555 0.846718 -0.168799 -0.615934 0.78389 -0.0783666 0.749452 0.591061 -0.298275 
0.736105 0.588458 -0.334465 -0.6968 0.713507 -0.0733354 -0.818635 0.568642 -0.0805173 
0.864247 0.362193 -0.349132 0.599612 0.322271 -0.732534 -0.863083 0.499126 -0.0772044 
-0.780424 0.504814 -0.36892 0.927419 0.155755 -0.340051 0.939093 0.02054 -0.343048 
-0.959081 0.278658 -0.0501259 0.939346 -0.0483002 -0.339554 0.93951 -0.0682689 -0.335648 
0.93386 -0.0470564 -0.354529 -0.997481 0.0497568 -0.0505626 0.937415 -0.194198 -0.289034 
-0.983857 -0.170235 -0.0551892 0.867566 -0.40984 -0.281711 0.711318 -0.382612 -0.589606 
-0.922509 -0.378353 -0.0763363 -0.766848 -0.631264 -0.115976 0.800565 -0.544249 -0.250775 
0.800384 -0.544535 -0.250733 0.800408 -0.544189 -0.251407 -0.186817 -0.459994 -0.868047 
-0.129415 -0.928589 -0.347814 -0.0947204 -0.551809 -0.828574 0.0645552 -0.905739 -0.41889 
0.0552959 -0.540653 -0.839427 0.226557 -0.888269 -0.399563 0.212564 -0.476833 -0.852905 
-0.728307 -0.675399 -0.115779 -0.514391 -0.834079 -0.199285 0.597388 -0.77279 -0.214299 
0.589335 -0.778777 -0.214921 0.588515 -0.770647 -0.244444 0.344324 -0.907267 -0.241469 
0.272286 -0.650307 -0.709198 0.127517 -0.962424 -0.239748 -0.0988723 -0.950344 -0.295077 
-0.212153 -0.941109 -0.263259 -0.194924 -0.582986 -0.788754 -0.318725 -0.877171 -0.359145 
-0.325399 -0.746319 -0.580624 -0.263578 -0.897184 -0.354383 -0.282053 -0.88993 -0.358428 
-0.280256 -0.881971 -0.378923 0.22146 -0.906563 -0.359302 0.213051 -0.922297 -0.322457 
0.241117 -0.854939 -0.459285 0.0999091 -0.946722 -0.306164 0.0987659 -0.798312 -0.59409 
-0.0639737 -0.958346 -0.278354 -0.0643594 -0.820599 -0.567869 -0.414075 -0.880593 -0.230427 
-0.279515 -0.932254 -0.229725 -0.268258 -0.84982 -0.4537 0.236925 0.712409 -0.660561 
0.0284439 0.71715 -0.696338 -0.104403 0.717647 -0.688537 -0.179372 0.704183 -0.686988 
0.185386 0.723621 -0.664834 0.154214 0.787279 -0.597001 0.17015 0.724637 -0.667795 
0.260138 0.703138 -0.661759 0.257489 0.690643 -0.675805 0.217276 0.609434 -0.762483 
0.0296158 0.548398 -0.835693 -0.0898197 0.555717 -0.826505 -0.205374 0.715582 -0.667656 
-0.170985 0.635462 -0.752962 -0.207773 0.714049 -0.668554 -0.255897 0.726622 -0.637602 
-0.367728 0.721933 -0.586164 0.489048 0.53858 -0.686122 0.287892 0.661115 -0.692853 
0.31738 0.633456 -0.705693 0.190891 0.684077 -0.703988 0.113425 0.620595 -0.775885 
0.0990781 0.523498 -0.846247 0.140056 0.383061 -0.913044 0.0776942 0.241186 -0.967364 
-0.0146991 0.216135 -0.976253 -0.0515123 0.196111 -0.979228 -0.0477757 0.27523 -0.96019 
-0.0766533 0.399943 -0.913329 -0.159063 0.486939 -0.85883 -0.39884 0.715599 -0.573449 
-0.332205 0.653027 -0.680585 -0.430126 0.698168 -0.572323 -0.536552 0.616795 -0.575912 
0.525507 0.465701 -0.712015 0.460099 0.414401 -0.785227 0.265343 0.341122 -0.901792 
0.0791344 0.299927 -0.950674 0.0217745 0.247688 -0.968595 -0.00249111 0.204343 -0.978896 
0.0278496 0.0757422 -0.996738 0.0194358 0.046938 -0.998709 -0.0273239 0.0592194 -0.997871 
-0.0264996 0.0431361 -0.998718 0.0450467 0.00151881 -0.998984 -0.00104493 0.0826093 -0.996581 
-0.0651038 0.214996 -0.974443 -0.0934654 0.311573 -0.945614 -0.314971 0.451928 -0.834598 
-0.539306 0.613873 -0.576463 -0.535552 0.61266 -0.581232 0.565861 0.298146 -0.768707 
0.577795 0.267509 -0.771098 0.403886 0.206323 -0.891239 0.177212 0.0687269 -0.98177 
0.099633 0.0646103 -0.992924 0.00767391 0.0163727 -0.999837 -0.0924957 -0.0180538 -0.995549 
-0.0385001 -0.0385348 -0.998515 0.0610798 0.0405725 -0.997308 -0.0164848 -0.0422871 -0.998969 
-0.114103 0.0641173 -0.991398 -0.00120133 -0.194446 -0.980913 0.142843 -0.081187 -0.98641 
0.0871487 0.0503155 -0.994924 -0.0534981 0.123165 -0.990943 -0.157654 0.217528 -0.963238 
-0.641617 0.468086 -0.607637 -0.454601 0.380062 -0.805537 -0.692801 0.416966 -0.588359 
0.595379 0.12561 -0.793566 0.532969 0.110633 -0.838871 0.345305 0.077691 -0.935269 
0.123424 0.0293827 -0.991919 0.0189889 -0.00527538 -0.999806 -0.0662854 -0.0777888 -0.994764 
-0.0560904 -0.12257 -0.990874 0.0905377 -0.0736618 -0.993165 0.0220514 -0.00438764 -0.999747 
-0.0191278 -0.236272 -0.971499 0.00410633 -0.163834 -0.986479 0.240502 -0.0286528 -0.970226 
0.159834 -0.0196898 -0.986948 -0.314252 0.114075 -0.942461 -0.782399 0.271833 -0.560321 
-0.622885 0.260956 -0.737507 0.614247 -0.0295369 -0.788561 0.541899 -0.0301331 -0.839903 
0.329623 -0.0174126 -0.943952 0.0977159 -0.00675165 -0.995191 -0.00428245 -0.0129618 -0.999907 
-0.110905 0.007421 -0.993803 -0.0901681 -0.00234104 -0.995924 0.0494973 -0.0865848 -0.995014 
-0.0499701 -0.258608 -0.964689 0.0135226 -0.0720146 -0.997312 -0.00294876 -0.0219035 -0.999756 
0.265393 -0.02836 -0.963723 0.170229 0.0236219 -0.985121 -0.297609 0.100767 -0.949355 
-0.823426 0.0349345 -0.566347 -0.577354 0.0155154 -0.816346 0.5842 -0.163114 -0.79505 
0.601299 -0.234429 -0.76386 0.549968 -0.140224 -0.82333 0.340855 -0.133557 -0.930581 
0.127257 -0.0856703 -0.988163 0.0333611 0.00124007 -0.999443 -0.0591037 -0.00664485 -0.99823 
-0.144051 0.0353648 -0.988938 -0.135489 -0.0837232 -0.987235 -0.00976358 -0.239641 -0.970812 
-0.0683415 -0.163813 -0.984121 -0.138175 -0.32943 -0.934015 0.222949 -0.070973 -0.972243 
0.271916 -0.0830841 -0.958728 0.169353 -0.0801316 -0.982293 0.0461092 -0.0667841 -0.996701 
-0.77545 -0.178551 -0.605638 -0.62575 -0.177583 -0.75954 0.577385 -0.298993 -0.759756 
0.328525 -0.207869 -0.921337 0.228546 -0.138739 -0.963597 0.0752363 -0.134064 -0.988113 
-0.0715477 -0.12031 -0.990155 -0.167088 -0.123465 -0.978181 -0.237606 -0.184249 -0.953727 
-0.167571 -0.373261 -0.912467 -0.142798 -0.260013 -0.954988 -0.0877308 -0.391682 -0.915908 
-0.0938626 -0.351322 -0.931538 0.0466652 -0.203249 -0.978014 0.04712 -0.183189 -0.981948 
0.221634 -0.357907 -0.907073 0.256079 -0.209981 -0.943574 0.261124 -0.224008 -0.938954 
0.168438 -0.227437 -0.959115 0.0334278 -0.141517 -0.989371 -0.109456 -0.212477 -0.971016 
-0.355408 -0.40426 -0.842769 -0.652184 -0.396519 -0.646087 -0.62784 -0.44271 -0.640176 
-0.617831 -0.391155 -0.682116 0.50501 -0.388786 -0.770591 0.465222 -0.438393 -0.769012 
0.438341 -0.35934 -0.823852 0.262122 -0.602192 -0.754094 0.252295 -0.325511 -0.911257 
0.0500783 -0.327071 -0.943672 -0.0702881 -0.331859 -0.940707 -0.192753 -0.541363 -0.818396 
-0.196403 -0.353187 -0.914705 -0.209944 -0.411495 -0.886902 -0.271036 -0.455204 -0.848133 
-0.256978 -0.37268 -0.891668 0.234863 -0.434899 -0.869311 0.269657 -0.508909 -0.817495 
0.262791 -0.415578 -0.870767 0.116065 -0.672591 -0.730856 0.206886 -0.436928 -0.875381 
-0.0626014 -0.706437 -0.705002 0.0528704 -0.461612 -0.885505 -0.210361 -0.663141 -0.718326 
-0.217741 -0.523168 -0.823944 -0.455469 -0.603334 -0.654627 -0.406897 -0.611015 -0.67904 
-0.380928 -0.561614 -0.734495 0.130938 -0.6227 -0.771427 0.0337721 -0.614663 -0.788067 
0.0301029 -0.608213 -0.793203 -0.0783984 -0.597996 -0.797656 -0.0397902 -0.614039 -0.788272 
-0.0399163 -0.606721 -0.793912 -0.228687 0.277123 -0.933223 0.0566793 0.0695279 -0.995969 
-0.116563 0.159872 -0.980232 -0.211968 0.246574 -0.945659 -0.247593 0.279629 -0.927634 
-0.23914 0.301614 -0.922952 0.100475 0.0432089 -0.994001 0.0897486 0.0535382 -0.994524 
-0.163843 0.127449 -0.978219 -0.110543 0.142679 -0.983577 -0.0145303 -0.308769 -0.951026 
-0.245694 -0.288799 -0.925327 -0.160928 -0.524102 -0.836313 -0.119569 -0.32435 -0.93835 
0.12343 -0.000408767 -0.992353 0.0506947 -0.062248 -0.996772 0.101441 -0.0115637 -0.994774 
-0.190703 0.0445379 -0.980637 -0.0924535 -0.0214168 -0.995487 -0.279911 -0.018072 -0.959856 
0.0438294 -0.0768661 -0.996078 0.0110301 -0.156674 -0.987589 0.0234915 -0.152472 -0.988029 
-0.295576 -0.0715908 -0.952633 -0.285824 -0.11428 -0.951444 -0.269024 -0.0602131 -0.961249 

