# vtk DataFile Version 4.2
vtk output
ASCII
DATASET POLYDATA
POINTS 536 float
12.9304 -30.8852 -18.8409 -17.9538 -46.3273 -11.1296 -10.2327 -46.3273 -13.1764 
-2.51166 -46.3273 -15.0106 5.20938 -46.3273 -16.102 12.9304 -46.3273 -15.8728 
20.6515 -46.3273 -16.5147 28.3725 -46.3273 -11.6975 -33.3958 -38.6063 -11.4879 
-25.6748 -38.6063 -14.1765 -17.9538 -38.6063 -15.9174 -10.2327 -38.6063 -17.8546 
-2.51166 -38.6063 -17.2735 5.20938 -38.6063 -17.7561 12.9304 -34.5909 -18.2547 
12.9304 -38.6063 -17.6928 20.6515 -38.6063 -17.7022 28.3725 -38.6063 -15.5004 
36.0936 -38.6063 -12.201 -41.1169 -30.8852 -10.5629 -33.3958 -30.8852 -14.2523 
-25.6748 -30.8852 -17.0823 -17.9538 -30.8852 -17.014 -10.2327 -30.8852 -17.841 
-2.51166 -30.8852 -17.7823 6.28575 -30.8852 -18.2547 5.20938 -30.8852 -18.161 
17.7976 -30.8852 -18.2547 12.9304 -26.7739 -18.2547 20.6515 -30.8852 -17.9117 
28.3725 -30.8852 -18.2294 36.0936 -30.8852 -15.2825 -41.1169 -23.1642 -12.0613 
-33.3958 -23.1642 -15.2621 -25.6748 -23.1642 -16.7565 -17.9538 -23.1642 -16.8538 
-10.2327 -23.1642 -16.8902 -2.51166 -23.1642 -17.1118 5.20938 -23.1642 -17.5851 
12.9304 -23.1642 -17.7469 20.6515 -23.1642 -17.7224 28.3725 -23.1642 -17.9047 
36.0936 -23.1642 -17.5207 43.8146 -23.1642 -13.4772 -41.1169 -15.4431 -12.8855 
-33.3958 -15.4431 -15.6048 -25.6748 -15.4431 -16.6104 -17.9538 -15.4431 -16.1133 
-10.2327 -15.4431 -15.252 -2.51166 -15.4431 -16.5936 5.20938 -15.4431 -17.321 
12.9304 -15.4431 -16.8037 20.6515 -15.4431 -17.6603 28.3725 -15.4431 -17.8464 
36.0936 -15.4431 -17.3597 43.8146 -15.4431 -15.9229 -48.8379 -7.72208 -10.5711 
-41.1169 -7.72208 -13.8702 -33.3958 -7.72208 -15.3006 -25.6748 -7.72208 -15.5974 
-17.9538 -7.72208 -15.0798 -10.2327 -7.72208 -15.3252 -2.51166 -7.72208 -17.0427 
5.20938 -7.72208 -17.6698 12.9304 -7.72208 -17.0256 20.6515 -7.72208 -17.1176 
28.3725 -7.72208 -17.7539 36.0936 -7.72208 -17.799 43.8146 -7.72208 -16.6923 
51.5357 -7.72208 -13.1073 -48.8379 -0.00103091 -10.8817 -41.1169 -0.00103091 -14.1912 
-33.3958 -0.00103091 -15.7631 -25.6748 -0.00103091 -15.7651 -17.9538 -0.00103091 -14.8485 
-10.2327 -0.00103091 -17.0246 -2.51166 -0.00103091 -14.103 5.20938 -0.00103091 -15.6818 
12.9304 -0.00103091 -17.7775 20.6515 -0.00103091 -16.857 28.3725 -0.00103091 -17.6655 
36.0936 -0.00103091 -17.9457 43.8146 -0.00103091 -17.1452 51.5357 -0.00103091 -14.48 
-48.8379 7.72001 -10.6623 -41.1169 7.72001 -14.5593 -33.3958 7.72001 -16.2696 
-25.6748 7.72001 -16.1495 -17.9538 7.72001 -15.1338 -10.2327 7.72001 -14.7118 
-2.51166 7.72001 -17.5257 5.20938 7.72001 -16.0054 12.9304 7.72001 -15.2686 
20.6515 7.72001 -16.2515 28.3725 7.72001 -17.4189 36.0936 7.72001 -17.7879 
43.8146 7.72001 -17.1485 51.5357 7.72001 -14.6708 -48.8379 15.4411 -10.5442 
-41.1169 15.4411 -14.34 -33.3958 15.4411 -15.984 -25.6748 15.4411 -16.7148 
-17.9538 15.4411 -15.8678 -10.2327 15.4411 -15.1537 -2.51166 15.4411 -15.2956 
5.20938 15.4411 -15.2122 12.9304 15.4411 -15.3482 20.6515 15.4411 -16.1793 
28.3725 15.4411 -16.972 36.0936 15.4411 -17.025 43.8146 15.4411 -16.0685 
51.5357 15.4411 -13.016 -41.1169 23.1621 -11.8303 -33.3958 23.1621 -14.721 
-25.6748 23.1621 -15.4862 -17.9538 23.1621 -15.7735 -10.2327 23.1621 -14.8214 
-2.51166 23.1621 -14.0893 5.20938 23.1621 -15.229 12.9304 23.1621 -15.9625 
20.6515 23.1621 -16.0509 28.3725 23.1621 -15.713 36.0936 23.1621 -14.765 
43.8146 23.1621 -13.8526 -33.3958 30.8832 -11.3931 -25.6748 30.8832 -13.7317 
-17.9538 30.8832 -13.9323 -10.2327 30.8832 -13.2628 -2.51166 30.8832 -12.8188 
5.20938 30.8832 -13.9951 12.9304 30.8832 -15.0586 20.6515 30.8832 -14.8165 
28.3725 30.8832 -13.0709 36.0936 30.8832 -11.2351 12.9304 38.6042 -11.2049 
-17.9538 -46.7605 -10.5336 -10.2327 -49.1542 -10.5336 -2.51166 -51.6642 -10.5336 
5.20938 -53.7313 -10.5336 12.9304 -53.5799 -10.5336 20.6515 -50.9418 -10.5336 
28.3725 -47.3592 -10.5336 -33.3958 -39.4967 -10.5336 -19.3382 -46.3273 -10.5336 
-25.6748 -43.7766 -10.5336 29.775 -46.3273 -10.5336 36.0936 -40.4681 -10.5336 
-34.4274 -38.6063 -10.5336 -41.1169 -30.9237 -10.5336 37.7253 -38.6063 -10.5336 
-41.1447 -30.8852 -10.5336 43.3657 -30.8852 -10.5336 43.8146 -30.1214 -10.5336 
-43.2414 -23.1642 -10.5336 -48.8379 -23.1642 -4.18297 47.4918 -23.1642 -10.5336 
-45.6858 -15.4431 -10.5336 -48.8379 -7.89623 -10.5336 -48.8379 -15.4431 -8.01787 
51.1614 -15.4431 -10.5336 51.5357 -14.4071 -10.5336 51.5357 -15.4431 -6.90059 
-48.882 -7.72208 -10.5336 53.7468 -7.72208 -10.5336 -49.2714 -0.00103091 -10.5336 
55.0863 -0.00103091 -10.5336 -48.9902 7.72001 -10.5336 56.1578 7.72001 -10.5336 
-48.8495 15.4411 -10.5336 -48.8379 15.4639 -10.5336 54.2754 15.4411 -10.5336 
51.5357 21.1909 -10.5336 -42.9957 23.1621 -10.5336 -48.8379 23.1621 -3.57751 
-41.1169 25.3564 -10.5336 50.0049 23.1621 -10.5336 43.8146 27.5281 -10.5336 
51.5357 23.1621 -9.06063 -35.0228 30.8832 -10.5336 -41.1169 30.8832 -5.14494 
-33.3958 32.1724 -10.5336 -25.6748 36.6295 -10.5336 -17.9538 38.4202 -10.5336 
-10.2327 37.6184 -10.5336 -2.51166 36.6899 -10.5336 5.20938 38.4844 -10.5336 
20.6515 37.7706 -10.5336 28.3725 34.9912 -10.5336 37.7172 30.8832 -10.5336 
36.0936 31.6207 -10.5336 43.8146 30.8832 -6.4986 -33.3958 38.6042 -4.21197 
-25.6748 38.6042 -9.01837 -17.9538 38.6042 -10.4422 -10.2327 38.6042 -10.1144 
-2.51166 38.6042 -9.65596 5.88155 38.6042 -10.5336 5.20938 38.6042 -10.4633 
17.2175 38.6042 -10.5336 12.9304 39.4296 -10.5336 20.6515 38.6042 -9.81161 
28.3725 38.6042 -6.13368 -17.9538 46.3252 -4.32686 -10.2327 46.3252 -4.32517 
-2.51166 46.3252 -3.26902 -17.9538 -47.626 -2.81258 -10.2327 -49.6104 -2.81258 
-2.51166 -51.4932 -2.81258 5.20938 -52.7993 -2.81258 12.9304 -52.8283 -2.81258 
20.6515 -51.117 -2.81258 28.3725 -46.6192 -2.81258 -33.3958 -40.7875 -2.81258 
-21.4215 -46.3273 -2.81258 -25.6748 -44.6876 -2.81258 -17.9538 -46.3273 -0.478325 
-10.2327 -46.3273 2.05733 -2.51166 -46.3273 4.05155 20.6515 -46.3273 3.23384 
28.7708 -46.3273 -2.81258 28.3725 -46.3273 -2.46632 36.0936 -39.3562 -2.81258 
-36.5164 -38.6063 -2.81258 -41.1169 -34.6027 -2.81258 -33.3958 -38.6063 1.97085 
36.7245 -38.6063 -2.81258 36.0936 -38.6063 -2.12576 -44.3352 -30.8852 -2.81258 
-48.8379 -24.357 -2.81258 42.633 -30.8852 -2.81258 36.0936 -30.8852 4.54637 
43.8146 -29.5568 -2.81258 -49.5423 -23.1642 -2.81258 47.9422 -23.1642 -2.81258 
43.8146 -23.1642 2.43144 51.5357 -16.1359 -2.81258 -52.42 -15.4431 -2.81258 
51.8691 -15.4431 -2.81258 51.5357 -15.4431 -2.2441 -54.2214 -7.72208 -2.81258 
55.1511 -7.72208 -2.81258 51.5357 -7.72208 3.24421 -56.0443 -0.00103091 -2.81258 
-56.559 -0.00103091 1.37306 57.4795 -0.00103091 -2.81258 -55.209 7.72001 -2.81258 
59.1398 7.72001 -2.81258 -53.5484 15.4411 -2.81258 58.2039 15.4411 -2.81258 
-49.274 23.1621 -2.81258 -48.8379 23.7578 -2.81258 54.6657 23.1621 -2.81258 
51.5357 26.7935 -2.81258 -42.7418 30.8832 -2.81258 -41.1169 32.4844 -2.81258 
36.0936 36.8162 -2.81258 46.6927 30.8832 -2.81258 43.8146 33.2355 -2.81258 
-34.5638 38.6042 -2.81258 -33.3958 39.5778 -2.81258 -25.6748 44.4234 -2.81258 
5.20938 45.9751 -2.81258 12.9304 45.2521 -2.81258 20.6515 43.3499 -2.81258 
32.3036 38.6042 -2.81258 28.3725 40.3585 -2.81258 -21.1755 46.3252 -2.81258 
-25.6748 46.3252 3.03672 -17.9538 47.582 -2.81258 -10.2327 47.549 -2.81258 
1.58443 46.3252 -2.81258 -2.51166 46.6786 -2.81258 5.20938 46.3252 -1.79074 
12.9304 46.3252 2.62551 5.20938 -47.0291 4.90847 12.9304 -47.1255 4.90847 
-25.6748 -39.5249 4.90847 -17.9538 -41.4899 4.90847 -10.2327 -42.8693 4.90847 
1.42862 -46.3273 4.90847 -2.51166 -44.8887 4.90847 5.20938 -46.3273 5.48023 
15.6711 -46.3273 4.90847 12.9304 -46.3273 5.55918 20.6515 -42.8222 4.90847 
28.3725 -39.2697 4.90847 -41.1169 -32.3741 4.90847 -28.547 -38.6063 4.90847 
-33.3958 -36.9762 4.90847 -25.6748 -38.6063 5.81952 -17.9538 -38.6063 7.01143 
-10.2327 -38.6063 7.37637 -2.51166 -38.6063 7.72128 5.20938 -38.6063 8.2606 
12.9304 -38.6063 8.1749 20.6515 -38.6063 6.69515 29.067 -38.6063 4.90847 
28.3725 -38.6063 5.35622 -42.8107 -30.8852 4.90847 -48.8379 -24.2529 4.90847 
-41.1169 -30.8852 6.63196 -33.3958 -30.8852 10.4663 -25.6748 -30.8852 11.7922 
-17.9538 -30.8852 11.7041 -10.2327 -30.8852 11.1072 -2.51166 -30.8852 10.6901 
5.20938 -30.8852 10.7629 12.9304 -30.8852 10.5514 20.6515 -30.8852 9.37978 
35.3279 -30.8852 4.90847 28.3725 -30.8852 7.1651 36.0936 -29.8536 4.90847 
-49.6349 -23.1642 4.90847 -48.8379 -23.1642 6.24572 20.6515 -23.1642 11.2804 
28.3725 -23.1642 9.32499 39.4693 -23.1642 4.90847 36.0936 -23.1642 6.5344 
43.8146 -16.7398 4.90847 -53.4682 -15.4431 4.90847 -48.8379 -15.4431 12.2688 
28.3725 -15.4431 11.6401 36.0936 -15.4431 9.40601 44.441 -15.4431 4.90847 
43.8146 -15.4431 5.343 -55.7814 -7.72208 4.90847 -56.559 -2.36038 4.90847 
36.0936 -7.72208 11.6173 49.7486 -7.72208 4.90847 43.8146 -7.72208 8.4518 
51.5357 -3.61444 4.90847 -56.9045 -0.00103091 4.90847 -56.559 3.55329 4.90847 
-56.559 -0.00103091 6.00373 43.8146 -0.00103091 11.029 52.6534 -0.00103091 4.90847 
51.5357 -0.00103091 6.0199 -56.1483 7.72001 4.90847 55.635 7.72001 4.90847 
51.5357 7.72001 9.41216 -53.7929 15.4411 4.90847 55.1635 15.4411 4.90847 
51.5357 15.4411 9.15225 -49.6702 23.1621 4.90847 -48.8379 24.2715 4.90847 
-48.8379 23.1621 6.33264 53.4286 23.1621 4.90847 51.5357 26.0152 4.90847 
51.5357 23.1621 7.47188 -43.4547 30.8832 4.90847 -41.1169 33.2946 4.90847 
-41.1169 30.8832 8.8188 36.0936 37.6199 4.90847 47.1335 30.8832 4.90847 
43.8146 33.4641 4.90847 43.8146 30.8832 8.33799 -36.064 38.6042 4.90847 
-33.3958 41.032 4.90847 -33.3958 38.6042 9.48436 20.6515 44.357 4.90847 
34.2604 38.6042 4.90847 28.3725 41.471 4.90847 28.3725 38.6042 11.3225 
-26.4457 46.3252 4.90847 -25.6748 46.8271 4.90847 -25.6748 46.3252 6.23176 
-17.9538 49.6786 4.90847 -10.2327 50.4318 4.90847 -2.51166 49.6861 4.90847 
5.20938 48.2544 4.90847 5.20938 46.3252 11.823 14.2829 46.3252 4.90847 
12.9304 46.7503 4.90847 12.9304 46.3252 6.17088 -41.1169 -24.0914 12.6295 
-33.3958 -27.4318 12.6295 -25.6748 -29.2936 12.6295 -17.9538 -28.8831 12.6295 
[...]
POINT_DATA 536
SCALARS ImageScalars float
LOOKUP_TABLE default
0 0 0 0 0 0 0 0 0 
0 0 0 0 0 0 0 0 0 
0 0 0 0 0 0 0 0 0 
0 0 0 0 0 0 0 0 0 
0 0 0 0 0 0 0 0 0 
0 0 0 0 0 0 0 0 0 
0 0 0 0 0 0 0 0 0 
0 0 0 0 0 0 0 0 0 
0 0 0 0 0 0 0 0 0 
0 0 0 0 0 0 0 0 0 
0 0 0 0 0 0 0 0 0 
0 0 0 0 0 0 0 0 0 
0 0 0 0 0 0 0 0 0 
0 0 0 0 0 0 0 0 0 
0 0 0 0 0 0 0 0 0 
0 0 0 0 0 0 0 0 0 
0 0 0 0 0 0 0 0 0 
0 0 0 0 0 0 0 0 0 
0 0 0 0 0 0 0 0 0 
0 0 0 0 0 0 0 0 0 
0 0 0 0 0 0 0 0 0 
0 0 0 0 0 0 0 0 0 
0 0 0 0 0 0 0 0 0 
0 0 0 0 0 0 0 0 0 
0 0 0 0 0 0 0 0 0 
0 0 0 0 0 0 0 0 0 
0 0 0 0 0 0 0 0 0 
0 0 0 0 0 0 0 0 0 
0 0 0 0 0 0 0 0 0 
0 0 0 0 0 0 0 0 0 
0 0 0 0 0 0 0 0 0 
0 0 0 0 0 0 0 0 0 
0 0 0 0 0 0 0 0 0 
0 0 0 0 0 0 0 0 0 
0 0 0 0 0 0 0 0 0 
0 0 0 0 0 0 0 0 0 
0 0 0 0 0 0 0 0 0 
0 0 0 0 0 0 0 0 0 
0 0 0 0 0 0 0 0 0 
0 0 0 0 0 0 0 0 0 
0 0 0 0 0 0 0 0 0 
0 0 0 0 0 0 0 0 0 
0 0 0 0 0 0 0 0 0 
0 0 0 0 0 0 0 0 0 
0 0 0 0 0 0 0 0 0 
0 0 0 0 0 0 0 0 0 
0 0 0 0 0 0 0 0 0 
0 0 0 0 0 0 0 0 0 
0 0 0 0 0 0 0 0 0 
0 0 0 0 0 0 0 0 0 
0 0 0 0 0 0 0 0 0 
0 0 0 0 0 0 0 0 0 
0 0 0 0 0 0 0 0 0 
0 0 0 0 0 0 0 0 0 
0 0 0 0 0 0 0 0 0 
0 0 0 0 0 0 0 0 0 
0 0 0 0 0 0 0 0 0 
0 0 0 0 0 0 0 0 0 
0 0 0 0 0 0 0 0 0 
0 0 0 0 0 
NORMALS Normals float
-0.0156655 0.00727941 0.999851 0.297511 0.82722 0.476649 0.21645 0.687772 0.692906 
0.199971 0.503937 0.840273 0.0584775 0.403859 0.91295 0.00990798 0.440261 0.897815 
-0.198713 0.499217 0.843383 -0.534482 0.732589 0.421476 0.549988 0.621618 0.557767 
0.25799 0.484012 0.836166 0.240418 0.295852 0.924484 0.071779 0.253411 0.964692 
-0.000834436 0.17703 0.984205 0.0268809 0.138459 0.990003 -0.00775813 0.0934679 0.995592 
-0.00335502 0.183056 0.983097 -0.164432 0.0666949 0.984131 -0.313345 0.371739 0.873857 
-0.649904 0.574661 0.497383 0.689413 0.401971 0.602602 0.377277 0.20767 0.902516 
0.170032 0.148175 0.974235 0.0498385 0.0531642 0.997341 0.0502624 -0.0638256 0.996695 
0.0210171 -0.0110766 0.999718 0.0563248 -0.00900658 0.998372 0.0678967 -0.0115828 0.997625 
-0.0307232 0.000601974 0.999528 -0.00273226 -0.0647571 0.997897 -0.0426319 -0.000553634 0.999091 
-0.15807 0.151167 0.975788 -0.438249 0.307739 0.844532 0.51783 0.142034 0.84361 
0.273034 0.0923689 0.95756 0.0954687 -0.0283142 0.99503 0.00859658 -0.0543005 0.998488 
0.0165631 -0.156814 0.987489 0.0450499 -0.0742004 0.996225 0.0409439 -0.0535999 0.997723 
0.00880821 -0.127621 0.991784 0.0101063 -0.0159763 0.999821 -0.00969087 -0.0223302 0.999704 
-0.288292 0.147014 0.94619 -0.597422 0.338277 0.727088 0.415083 0.103902 0.903831 
0.225788 0.000703506 0.974176 0.0396821 -0.0755375 0.996353 -0.0857147 -0.118308 0.989271 
0.0293035 -0.105953 0.993939 0.130722 -0.00840674 0.991383 0.0110286 0.00253161 0.999936 
0.0200303 -0.0475977 0.998666 0.0674855 -0.04037 0.996903 -0.0198066 -0.00976814 0.999756 
-0.12861 0.0202031 0.991489 -0.397415 0.201916 0.895149 0.626031 0.119308 0.770617 
0.297296 0.0793706 0.951481 0.112788 0.00769021 0.993589 -0.014237 -0.0542084 0.998428 
-0.0195854 -0.0755549 0.996949 0.123979 0.0945604 0.987769 0.145208 -0.092344 0.985082 
-0.00667788 -0.0689299 0.997599 -0.0313331 0.0601375 0.997698 0.0470748 -0.0495391 0.997662 
0.0440262 -0.0116967 0.998962 -0.0620394 0.037771 0.997359 -0.258822 0.0868599 0.962012 
-0.69055 0.229414 0.685937 0.559945 0.00863087 0.828485 0.283938 0.0458909 0.957744 
0.0908048 0.0636794 0.993831 -0.0565833 0.0361519 0.997743 0.048272 0.00352946 0.998828 
0.0272421 -0.0502118 0.998367 -0.110545 0.0545993 0.99237 0.233676 -0.117693 0.965165 
0.0318889 -0.111789 0.99322 -0.0016645 -0.055977 0.998431 0.0701715 -0.0215998 0.997301 
-0.0309134 -0.000727268 0.999522 -0.173869 0.0282399 0.984364 -0.599523 0.0786407 0.796485 
0.603281 -0.0190498 0.797301 0.317247 0.00674168 0.948319 0.0958485 0.0117119 0.995327 
-0.0727942 0.0601321 0.995533 -0.0908574 0.0647884 0.993754 0.150119 -0.0892583 0.984631 
0.0812867 -0.00722479 0.996665 -0.142634 -0.0395474 0.988985 0.0193235 -0.147901 0.988813 
0.136315 -0.0438733 0.989694 0.0986544 -0.0442944 0.994135 -0.0147637 -0.0618104 0.997979 
-0.168483 -0.0766045 0.982723 -0.516643 -0.0773618 0.852699 0.657449 -0.213408 0.722646 
0.331448 -0.140784 0.932911 0.148767 -0.089058 0.984854 -0.00466423 -0.0423005 0.999094 
-0.100907 0.0414732 0.994031 -0.0374754 0.00511969 0.999284 0.00392577 -0.216644 0.976243 
0.00371006 -0.0469635 0.99889 0.0624066 0.0445099 0.997058 0.10388 -0.0127076 0.994509 
0.0556203 -0.114402 0.991876 -0.0596102 -0.176164 0.982554 -0.210379 -0.174796 0.961866 
-0.586292 -0.277571 0.761062 0.454986 -0.410323 0.790331 0.203524 -0.268836 0.941438 
0.062187 -0.188749 0.980054 -0.043456 -0.117586 0.992111 -0.107368 -0.114908 0.987557 
0.0253181 -0.155495 0.987512 0.122798 -0.0800866 0.989195 0.0522148 -0.0186345 0.998462 
-0.0171841 -0.0804405 0.996611 -0.0752266 -0.233819 0.969366 -0.113233 -0.336715 0.934774 
-0.290414 -0.473356 0.831621 0.373744 -0.478571 0.794534 0.132919 -0.351928 0.926542 
-0.0273456 -0.302784 0.952667 -0.0702578 -0.280835 0.957181 0.0490346 -0.263398 0.96344 
0.143065 -0.277177 0.950108 0.0548017 -0.270406 0.961185 -0.123309 -0.335352 0.933988 
-0.194057 -0.441157 0.876198 -0.296171 -0.605345 0.73881 -0.022769 -0.605935 0.795188 
0.308761 0.851114 0.424585 0.292342 0.83828 0.460243 0.264357 0.884312 0.384847 
0.106552 0.944826 0.309759 -0.147087 0.928291 0.341528 -0.369574 0.853466 0.367439 
-0.525004 0.77633 0.348829 0.564143 0.670881 0.481312 0.327654 0.845302 0.422028 
0.388271 0.780048 0.490685 -0.559471 0.754246 0.343663 -0.691517 0.642157 0.330816 
0.585407 0.644493 0.491861 0.690174 0.403271 0.60086 -0.715615 0.615418 0.330386 
0.690472 0.402341 0.60114 -0.801157 0.495709 0.335291 -0.79813 0.492916 0.346443 
0.581435 0.213891 0.784974 0.840407 0.435436 0.322663 -0.770282 0.445651 0.456137 
0.561039 0.176812 0.808686 0.627306 0.120918 0.769328 0.725665 0.224153 0.650512 
-0.845766 0.312648 0.432356 -0.847361 0.304139 0.435291 -0.911694 0.395166 0.112509 
0.627972 0.119566 0.768996 -0.832402 0.250382 0.494385 0.580698 0.00903302 0.814069 
-0.797124 0.139943 0.587375 0.609633 -0.0200171 0.792431 -0.737591 -0.0387552 0.674135 
0.657948 -0.21348 0.722171 0.657723 -0.214215 0.722158 -0.679646 -0.277637 0.678969 
-0.597769 -0.447895 0.664878 0.515611 -0.446872 0.731061 0.784506 -0.549015 0.288327 
0.489167 -0.474446 0.731858 -0.536536 -0.518203 0.666029 -0.378554 -0.612168 0.694224 
-0.626148 -0.543441 0.559116 0.419449 -0.507176 0.752885 0.637786 -0.663311 0.391469 
0.394755 -0.513319 0.762018 0.20456 -0.551008 0.80904 0.0458432 -0.4949 0.86774 
-0.0462772 -0.445081 0.894294 0.030233 -0.426019 0.904209 0.0870193 -0.541663 0.836079 
-0.173657 -0.631902 0.755343 -0.267144 -0.619074 0.7385 -0.330624 -0.627138 0.705256 
-0.309937 -0.63412 0.7084 -0.496558 -0.732449 0.465778 0.549195 -0.727347 0.411523 
0.253121 -0.635406 0.729513 0.0490866 -0.500836 0.864149 -0.0441963 -0.470917 0.88107 
0.0143467 -0.48988 0.871672 0.0764907 -0.551837 0.830437 0.085328 -0.547079 0.832721 
-0.109937 -0.641385 0.759302 -0.0322756 -0.636729 0.770412 -0.187379 -0.681591 0.707335 
-0.359831 -0.816229 0.451987 0.162818 -0.789458 0.591816 -0.0495651 -0.780342 0.623386 
-0.0882587 -0.821389 0.563498 0.310667 0.92729 -0.208853 0.258267 0.922407 -0.287164 
0.183838 0.922595 -0.33915 0.0910458 0.91234 -0.399182 -0.111526 0.916639 -0.383842 
-0.322657 0.886104 -0.332736 -0.585839 0.716431 -0.378839 0.525913 0.84167 -0.122502 
0.34518 0.912286 -0.220422 0.37788 0.901789 -0.209722 0.297369 0.875436 -0.38103 
0.192237 0.771157 -0.606929 0.146525 0.627191 -0.764958 -0.341628 0.602924 -0.720953 
-0.594213 0.711114 -0.375802 -0.581358 0.708799 -0.399534 -0.693271 0.605784 -0.390386 
0.599952 0.796892 -0.0708564 0.730758 0.681493 0.0395015 0.432877 0.811066 -0.393433 
-0.699265 0.596017 -0.394705 -0.684216 0.583234 -0.43782 0.791386 0.601139 0.111083 
0.852762 0.468427 0.231025 -0.738933 0.574149 -0.352607 -0.497695 0.397762 -0.770769 
-0.750546 0.563531 -0.345127 0.864204 0.443096 0.238367 -0.829423 0.474181 -0.295314 
-0.633982 0.417065 -0.651248 -0.863636 0.439343 -0.247205 0.887887 0.284002 0.36194 
-0.867616 0.435034 -0.240806 -0.855185 0.437973 -0.277198 0.894318 0.204593 0.397917 
-0.916939 0.360995 -0.170017 -0.718153 0.33542 -0.609713 0.928495 0.0556378 0.367154 
0.99421 0.0384939 0.100319 -0.961739 0.249025 -0.114214 0.928576 -0.142121 0.342852 
-0.998367 0.0447821 -0.0354633 0.904171 -0.330203 0.270999 -0.966603 -0.255497 0.0200262 
0.797671 -0.549465 0.248615 0.790338 -0.560215 0.248043 -0.810124 -0.571795 0.129418 
-0.692877 -0.698808 0.177732 0.684802 -0.679083 0.264373 0.670804 -0.6904 0.270871 
-0.391976 -0.870362 0.298035 -0.582203 -0.773534 0.250371 -0.528462 -0.809045 0.257244 
0.588112 -0.735847 0.335641 0.57031 -0.744587 0.346896 0.402385 -0.801405 0.442534 
-0.0803682 -0.883732 0.46104 -0.155324 -0.920498 0.35855 -0.283091 -0.904804 0.318101 
-0.386215 -0.87351 0.296342 -0.379534 -0.876218 0.296977 0.279136 -0.825891 0.489884 
0.489689 -0.869475 0.0649507 0.176808 -0.839243 0.514208 -0.0542676 -0.837739 0.543368 
-0.0876121 -0.863075 0.497418 -0.0923864 -0.835966 0.540949 -0.0982114 -0.912832 0.396349 
-0.225477 -0.972874 0.0517393 0.0838912 0.618601 -0.781214 -0.116985 0.609671 -0.783974 
0.201477 0.69271 -0.692502 0.147634 0.627337 -0.764625 0.109491 0.589004 -0.800678 
0.115321 0.597681 -0.793397 0.133727 0.5628 -0.815704 0.0814581 0.586885 -0.805563 
-0.19787 0.571312 -0.796524 -0.115128 0.572272 -0.811942 -0.271264 0.464187 -0.843176 
-0.403482 0.458896 -0.791591 0.554071 0.714631 -0.426975 0.246118 0.720301 -0.648531 
0.335681 0.748174 -0.572324 0.179295 0.679232 -0.711686 0.0814112 0.580956 -0.809853 
0.0410846 0.484458 -0.873849 0.0553008 0.405838 -0.912271 0.0280469 0.349705 -0.93644 
-0.0857503 0.331741 -0.939465 -0.188606 0.362721 -0.912612 -0.418811 0.446093 -0.790947 
-0.395614 0.43579 -0.808441 0.597607 0.699606 -0.391685 0.779279 0.572746 -0.254336 
0.523059 0.699582 -0.486821 0.230642 0.587747 -0.775472 0.0624259 0.514306 -0.855332 
-0.0412707 0.466545 -0.883534 -0.0606145 0.411231 -0.909514 -0.0201284 0.354126 -0.934981 
-0.00875037 0.31468 -0.949157 -0.082335 0.28854 -0.953921 -0.195205 0.264673 -0.944374 
-0.468834 0.376156 -0.799188 -0.301876 0.255978 -0.918339 -0.472904 0.378828 -0.795519 
0.799842 0.550128 -0.240026 0.765271 0.55388 -0.327989 -0.209425 0.244585 -0.946742 
-0.266518 0.256095 -0.929184 -0.458771 0.337976 -0.821767 -0.380504 0.307662 -0.872101 
-0.544134 0.324221 -0.773821 0.920459 0.357494 -0.157968 0.652225 0.37861 -0.656701 
-0.246841 0.262483 -0.93283 -0.34104 0.279893 -0.897414 -0.554975 0.322644 -0.766748 
-0.539111 0.315031 -0.781098 0.974582 0.207527 -0.0843885 0.991917 0.0803848 -0.0981758 
-0.303961 0.271181 -0.913273 -0.605354 0.315478 -0.730767 -0.43595 0.305711 -0.846456 
-0.65696 0.281705 -0.699318 0.993923 0.0243724 -0.107345 0.991224 -0.071344 -0.11129 
0.984846 0.0231026 -0.171885 -0.40665 0.289195 -0.866604 -0.682376 0.260646 -0.682954 
-0.647914 0.266381 -0.713617 0.975753 -0.183324 -0.119575 -0.76786 0.128091 -0.627681 
-0.624763 0.152139 -0.765849 0.914083 -0.359919 -0.186845 -0.814571 -0.125917 -0.566233 
-0.728406 -0.0812213 -0.680314 0.808398 -0.550905 -0.207355 0.796011 -0.56951 -0.205001 
0.791718 -0.543661 -0.278597 -0.833542 -0.384291 -0.396898 -0.791059 -0.509647 -0.338358 
-0.766911 -0.344244 -0.541612 0.728036 -0.664325 -0.169222 0.717325 -0.678514 -0.158317 
0.677955 -0.624823 -0.387263 -0.460004 -0.874214 -0.155388 -0.642941 -0.721127 -0.258074 
-0.559906 -0.788395 -0.25483 -0.574101 -0.6604 -0.484025 0.684674 -0.71756 -0.127784 
0.65417 -0.747762 -0.113635 0.626291 -0.667779 -0.402281 -0.324916 -0.941518 -0.0892986 
-0.439616 -0.887097 -0.140701 -0.388759 -0.91487 -0.108991 -0.404607 -0.730256 -0.550473 
0.516842 -0.854414 -0.053393 0.493498 -0.868362 -0.0490588 0.501927 -0.856403 -0.12101 
0.215199 -0.976117 -0.029731 0.00424416 -0.999279 0.0377259 -0.140855 -0.988116 0.0615296 
-0.181048 -0.983406 0.011614 -0.218495 -0.861247 -0.458817 -0.260353 -0.962882 -0.07123 
-0.246817 -0.966832 -0.0657077 -0.252062 -0.956766 -0.145129 0.346329 0.503286 -0.791682 
0.177021 0.50925 -0.842216 0.0484442 0.476299 -0.877948 -0.0534211 0.423542 -0.9043 
-0.0801447 0.363376 -0.928189 -0.0472711 0.361489 -0.931177 -0.0386131 0.328987 -0.943545 
-0.125896 0.281556 -0.95125 0.377786 0.486497 -0.78778 0.337114 0.473323 -0.81383 
0.131602 0.421917 -0.897032 -0.00577695 0.346952 -0.937865 -0.0678789 0.289646 -0.954724 
-0.089523 0.297983 -0.950364 -0.0565057 0.360368 -0.931097 -0.0516058 0.329973 -0.942579 
-0.138875 0.276499 -0.950927 -0.130353 0.280509 -0.950959 -0.206626 0.249389 -0.946103 
0.620486 0.37353 -0.689545 0.63253 0.361 -0.685263 0.2496 0.292831 -0.923011 
0.0506953 0.255891 -0.965375 -0.0686818 0.208522 -0.975603 -0.10178 0.135223 -0.985574 
-0.017326 0.183927 -0.982787 -0.00435958 0.210032 -0.977685 -0.0875901 0.0641387 -0.99409 
-0.153843 0.179513 -0.971652 -0.225552 0.256114 -0.939964 -0.206247 0.251613 -0.945597 
-0.239016 0.249745 -0.938349 0.693864 0.227416 -0.683253 0.535774 0.179412 -0.82508 
0.271283 0.122252 -0.954704 0.0653156 0.11593 -0.991108 -0.14977 0.116944 -0.981781 
-0.0926081 0.112035 -0.98938 -0.00742648 0.147052 -0.989101 -0.194414 0.0766987 -0.977916 
-0.0837785 0.0401253 -0.995676 0.0530726 0.109046 -0.992619 -0.124478 0.165665 -0.978295 
-0.26634 0.257168 -0.928939 -0.225908 0.234632 -0.94547 -0.285602 0.267424 -0.92028 
0.75194 0.0149627 -0.659062 0.506243 0.0230956 -0.862082 0.220289 0.052801 -0.974005 
0.0449837 0.0330624 -0.99844 -0.0803458 0.0926799 -0.992449 -0.0762683 0.145969 -0.986345 
-0.0581678 0.0593276 -0.996542 -0.0765541 0.0219802 -0.996823 -0.0557969 0.281597 -0.957909 
-0.054998 0.0406526 -0.997659 -0.0805857 0.093691 -0.992335 -0.134703 0.178991 -0.974586 
-0.323091 0.274262 -0.905755 -0.259794 0.253869 -0.931696 -0.354335 0.25751 -0.898963 
0.72186 -0.192607 -0.664696 0.563096 -0.163267 -0.810103 0.282105 -0.0153693 -0.95926 
0.102804 0.0741476 -0.991934 -0.133085 0.152096 -0.979365 -0.132888 0.101511 -0.985919 
0.00862868 0.108443 -0.994065 -0.0819837 0.0857165 -0.992941 -0.0978689 0.0657573 -0.993025 
0.0144383 0.124444 -0.992122 -0.0703037 0.158229 -0.984896 -0.195351 0.177168 -0.964598 
-0.404141 0.21565 -0.888912 -0.332921 0.226488 -0.915351 0.655108 -0.349277 -0.669954 
0.652055 -0.360895 -0.666767 0.64158 -0.341665 -0.686761 0.416446 -0.177844 -0.891596 
-0.103183 0.166146 -0.980688 -0.0762037 0.177464 -0.981173 -0.0909409 0.0900117 -0.99178 
-0.0294376 0.171093 -0.984815 0.00657334 0.122722 -0.992419 -0.0865098 0.0918249 -0.99201 
-0.20205 0.0685016 -0.976977 -0.559194 -0.0438555 -0.827876 -0.384007 0.0148992 -0.92321 
0.639523 -0.44082 -0.629832 0.602459 -0.499541 -0.622497 0.520923 -0.402951 -0.752509 
0.288167 -0.259272 -0.921812 -0.0863993 0.0935979 -0.991854 -0.0833002 0.0851634 -0.992879 
-0.0599828 0.000947006 -0.998199 -0.111795 -0.03946 -0.992947 -0.266227 -0.158817 -0.950737 
-0.492062 -0.317331 -0.810664 -0.476892 -0.366952 -0.798699 -0.46342 -0.310433 -0.829984 
0.586306 -0.528614 -0.613851 0.562966 -0.562367 -0.605651 0.46182 -0.427293 -0.777266 
0.236535 -0.258337 -0.93665 0.1029 -0.172408 -0.979636 -0.111961 -0.106647 -0.987973 
-0.112592 -0.127761 -0.985393 -0.127002 -0.196649 -0.972214 -0.380323 -0.646165 -0.661683 
-0.240079 -0.333449 -0.911687 -0.454289 -0.498347 -0.738425 -0.423774 -0.568958 -0.704771 
-0.399034 -0.459137 -0.793703 0.53448 -0.592437 -0.602785 0.453977 -0.689412 -0.564461 
0.38555 -0.478156 -0.789125 0.186055 -0.39342 -0.900335 0.0551723 -0.331382 -0.941882 
-0.068843 -0.360713 -0.930133 -0.217791 -0.824642 -0.522047 -0.138749 -0.394014 -0.908571 
-0.244369 -0.744347 -0.621476 -0.179875 -0.490378 -0.852745 -0.375935 -0.669461 -0.640699 
-0.297 -0.728174 -0.6177 -0.268954 -0.575485 -0.772322 0.300017 -0.750422 -0.588945 
0.266658 -0.757189 -0.596287 0.260531 -0.732545 -0.62889 0.0393358 -0.848116 -0.528348 
0.0550903 -0.75208 -0.656766 -0.206977 -0.831514 -0.515504 -0.131325 -0.843465 -0.520885 
-0.12405 -0.767628 -0.628776 -0.0328574 0.105416 -0.993885 -0.0263094 0.104232 -0.994205 
0.114913 0.0353985 -0.992745 -0.0336743 0.106129 -0.993782 -0.0324472 0.105564 -0.993883 
-0.101531 0.112898 -0.988405 0.201931 -0.0854284 -0.975667 0.179787 -0.115831 -0.976862 
0.14433 -0.0632088 -0.987509 0.00125588 0.0130939 -0.999913 -0.0912425 0.120326 -0.988532 
-0.0828007 0.089921 -0.992501 -0.0710842 0.115121 -0.990805 -0.0604646 0.103485 -0.992791 
0.144599 -0.13552 -0.980166 0.137531 -0.135973 -0.98112 0.122069 -0.115396 -0.98579 
0.101109 -0.169172 -0.980387 0.0198312 -0.0276623 -0.999421 -0.0427667 0.0713758 -0.996532 
-0.0607213 0.103053 -0.992821 -0.0603922 0.103175 -0.992828 0.100732 -0.170469 -0.980201 
0.0370109 -0.174348 -0.983988 0.0272626 -0.102865 -0.994322 -0.0873139 -0.0927913 -0.99185 
-0.05871 -0.141823 -0.98815 -0.05675 -0.0756398 -0.995519 
