# vtk DataFile Version 4.2
vtk output
ASCII
DATASET POLYDATA
POINTS 538 float
-18.6216 -48.3895 -13.5846 -10.173 -48.3895 -13.4463 -1.72435 -48.3895 -13.0285 
-35.5188 -39.9409 -14.76 -27.0702 -39.9409 -17.623 -18.6216 -39.9409 -18.4731 
-10.173 -39.9409 -17.3461 -1.72435 -39.9409 -17.0172 6.72426 -39.9409 -16.4367 
15.1729 -39.9409 -15.0977 -43.9674 -31.4923 -14.2121 -35.5188 -31.4923 -18.7858 
-27.0702 -31.4923 -19.7864 -18.6216 -31.4923 -20.0295 -10.173 -31.4923 -18.6978 
-1.72435 -31.4923 -18.248 6.72426 -31.4923 -17.9003 15.1729 -31.4923 -17.2077 
23.6215 -31.4923 -15.4936 -43.9674 -23.0437 -17.3315 -35.5188 -23.0437 -19.6757 
-27.0702 -23.0437 -20.4242 -18.6216 -23.0437 -20.0568 -10.173 -23.0437 -18.6969 
-1.72435 -23.0437 -18.4904 6.72426 -23.0437 -18.0249 15.1729 -23.0437 -17.4244 
23.6215 -23.0437 -16.3634 32.0701 -23.0437 -14.0882 -52.416 -14.5951 -13.5162 
-43.9674 -14.5951 -19.3017 -35.5188 -14.5951 -21.0159 -27.0702 -14.5951 -20.6487 
-18.6216 -14.5951 -19.3073 -10.173 -14.5951 -17.851 -1.72435 -14.5951 -19.5931 
6.72426 -14.5951 -17.8656 15.1729 -14.5951 -16.8197 23.6215 -14.5951 -16.2636 
32.0701 -14.5951 -14.9634 -52.416 -6.14644 -16.2549 -43.9674 -6.14644 -19.8952 
-35.5188 -6.14644 -20.9476 -27.0702 -6.14644 -20.3403 -18.6216 -6.14644 -18.9332 
-10.173 -6.14644 -18.2129 -1.72435 -6.14644 -19.5991 6.72426 -6.14644 -18.9686 
15.1729 -6.14644 -16.7127 23.6215 -6.14644 -15.5611 32.0701 -6.14644 -14.6841 
-52.416 2.30217 -17.5251 -43.9674 2.30217 -20.0282 -35.5188 2.30217 -20.7547 
-27.0702 2.30217 -19.8581 -18.6216 2.30217 -18.3445 -10.173 2.30217 -20.1077 
-1.72435 2.30217 -17.8923 6.72426 2.30217 -18.6923 15.1729 2.30217 -18.4382 
23.6215 2.30217 -16.1174 32.0701 2.30217 -15.3428 40.5187 2.30217 -13.8157 
-52.416 10.7508 -17.0955 -43.9674 10.7508 -19.6059 -35.5188 10.7508 -20.9408 
-27.0702 10.7508 -19.5474 -18.6216 10.7508 -17.7111 -10.173 10.7508 -18.0325 
-1.72435 10.7508 -20.4306 6.72426 10.7508 -18.6981 15.1729 10.7508 -19.0005 
23.6215 10.7508 -18.2618 32.0701 10.7508 -17.5553 40.5187 10.7508 -15.4352 
-52.416 19.1994 -14.7743 -43.9674 19.1994 -19.0957 -35.5188 19.1994 -19.6334 
-27.0702 19.1994 -19.3598 -18.6216 19.1994 -18.4665 -10.173 19.1994 -18.3859 
-1.72435 19.1994 -17.5982 6.72426 19.1994 -17.496 15.1729 19.1994 -19.0765 
23.6215 19.1994 -19.6481 32.0701 19.1994 -19.1326 40.5187 19.1994 -16.7502 
-43.9674 27.648 -16.9043 -35.5188 27.648 -20.0426 -27.0702 27.648 -19.6946 
-18.6216 27.648 -19.5011 -10.173 27.648 -18.9913 -1.72435 27.648 -18.1622 
6.72426 27.648 -17.981 15.1729 27.648 -18.9538 23.6215 27.648 -19.8758 
32.0701 27.648 -19.0019 40.5187 27.648 -16.4229 -35.5188 36.0966 -17.3402 
-27.0702 36.0966 -19.4885 -18.6216 36.0966 -18.95 -10.173 36.0966 -18.5161 
-1.72435 36.0966 -17.7067 6.72426 36.0966 -17.4195 15.1729 36.0966 -17.678 
23.6215 36.0966 -18.6234 32.0701 36.0966 -17.055 40.5187 36.0966 -14.763 
-27.0702 44.5452 -15.3226 -18.6216 44.5452 -16.4271 -10.173 44.5452 -16.1066 
-1.72435 44.5452 -15.371 6.72426 44.5452 -14.9641 15.1729 44.5452 -15.6499 
23.6215 44.5452 -14.9452 -18.6216 -48.9989 -12.9964 -10.173 -49.0028 -12.9964 
-1.72435 -48.4325 -12.9964 -35.5188 -42.2605 -12.9964 -20.6026 -48.3895 -12.9964 
-27.0702 -45.8611 -12.9964 -27.0702 -48.3895 -8.9255 -1.35955 -48.3895 -12.9964 
6.72426 -47.0676 -12.9964 6.72426 -48.3895 -12.0935 15.1729 -43.8055 -12.9964 
15.1729 -48.3895 -9.61417 23.6215 -48.3895 -6.28572 -38.1905 -39.9409 -12.9964 
-43.9674 -33.4617 -12.9964 21.4715 -39.9409 -12.9964 23.6215 -38.0617 -12.9964 
23.6215 -39.9409 -12.1581 32.0701 -39.9409 -7.12974 -45.1983 -31.4923 -12.9964 
29.6387 -31.4923 -12.9964 32.0701 -27.5043 -12.9964 32.0701 -31.4923 -11.9058 
40.5187 -31.4923 -6.6732 -49.4419 -23.0437 -12.9964 -52.416 -15.9384 -12.9964 
-52.416 -23.0437 -6.57748 34.6851 -23.0437 -12.9964 40.5187 -23.0437 -10.3284 
48.9673 -23.0437 -5.07827 -52.9697 -14.5951 -12.9964 38.7895 -14.5951 -12.9964 
40.5187 -14.5951 -12.4078 48.9673 -14.5951 -7.62189 -56.3083 -6.14644 -12.9964 
40.1743 -6.14644 -12.9964 40.5187 -5.44536 -12.9964 40.5187 -6.14644 -12.9226 
48.9673 -6.14644 -9.49282 -58.4778 2.30217 -12.9964 -60.8646 2.30217 -5.69308 
42.8746 2.30217 -12.9964 48.9673 2.30217 -10.7219 57.4159 2.30217 -4.59671 
-57.918 10.7508 -12.9964 46.6319 10.7508 -12.9964 48.9673 10.7508 -12.014 
57.4159 10.7508 -5.84991 -54.6051 19.1994 -12.9964 -52.416 23.2648 -12.9964 
48.8575 19.1994 -12.9964 48.9673 19.1994 -12.9405 57.4159 19.1994 -5.57576 
-49.8494 27.648 -12.9964 -52.416 27.648 -7.48877 -43.9674 35.3175 -12.9964 
47.7955 27.648 -12.9964 48.9673 27.648 -12.2262 -43.2728 36.0966 -12.9964 
-43.9674 36.0966 -11.8958 -35.5188 43.0089 -12.9964 32.0701 43.392 -12.9964 
43.1572 36.0966 -12.9964 40.5187 38.7675 -12.9964 48.9673 36.0966 -7.02033 
-32.7493 44.5452 -12.9964 -35.5188 44.5452 -10.4431 -27.0702 47.6692 -12.9964 
-18.6216 49.844 -12.9964 -10.173 49.4215 -12.9964 -1.72435 48.4522 -12.9964 
6.72426 47.7029 -12.9964 15.1729 48.2588 -12.9964 30.0596 44.5452 -12.9964 
23.6215 47.2556 -12.9964 32.0701 44.5452 -12.1026 40.5187 44.5452 -6.39995 
-18.6216 52.9938 -9.16043 -10.173 52.9938 -9.75354 -1.72435 52.9938 -9.23333 
6.72426 52.9938 -8.87216 15.1729 52.9938 -7.6934 -27.0702 -50.4152 -4.54775 
-18.6216 -53.6957 -4.54775 -10.173 -55.3307 -4.54775 -1.72435 -55.4398 -4.54775 
-1.72435 -56.8381 3.53106 6.72426 -54.5454 -4.54775 15.1729 -52.4297 -4.54775 
23.6215 -49.6332 -4.54775 -30.6308 -48.3895 -4.54775 -35.5188 -45.3283 -4.54775 
25.5589 -48.3895 -4.54775 32.0701 -42.6615 -4.54775 -41.4028 -39.9409 -4.54775 
-43.9674 -36.9707 -4.54775 35.2236 -39.9409 -4.54775 40.5187 -34.3201 -4.54775 
40.5187 -39.9409 2.41825 -48.068 -31.4923 -4.54775 -52.416 -24.3315 -4.54775 
42.8848 -31.4923 -4.54775 48.9673 -23.8847 -4.54775 -53.1729 -23.0437 -4.54775 
-52.416 -23.0437 -1.03303 49.4917 -23.0437 -4.54775 -57.017 -14.5951 -4.54775 
52.3962 -14.5951 -4.54775 57.4159 -14.5951 3.59251 -59.8045 -6.14644 -4.54775 
-60.8646 0.596455 -4.54775 55.6963 -6.14644 -4.54775 57.4159 2.02026 -4.54775 
57.4159 -6.14644 -1.84399 -61.1261 2.30217 -4.54775 -60.8646 6.66559 -4.54775 
-60.8646 2.30217 -3.47067 57.4567 2.30217 -4.54775 -60.6134 10.7508 -4.54775 
58.4171 10.7508 -4.54775 -57.8721 19.1994 -4.54775 57.9964 19.1994 -4.54775 
57.4159 21.1073 -4.54775 -53.4684 27.648 -4.54775 -52.416 29.3622 -4.54775 
-52.416 27.648 -1.84573 54.9001 27.648 -4.54775 -47.563 36.0966 -4.54775 
-43.9674 39.868 -4.54775 -43.9674 36.0966 3.38994 50.3833 36.0966 -4.54775 
48.9673 37.7985 -4.54775 -38.9739 44.5452 -4.54775 -35.5188 47.2846 -4.54775 
-27.0702 52.2888 -4.54775 23.6215 52.7296 -4.54775 32.0701 49.8663 -4.54775 
41.735 44.5452 -4.54775 40.5187 45.4761 -4.54775 40.5187 44.5452 0.194677 
-25.1479 52.9938 -4.54775 -18.6216 55.2061 -4.54775 -10.173 56.5421 -4.54775 
-1.72435 56.3751 -4.54775 6.72426 56.1509 -4.54775 22.7168 52.9938 -4.54775 
15.1729 55.0149 -4.54775 -1.72435 -56.8932 3.90086 -27.0702 -48.8177 3.90086 
-18.6216 -52.8475 3.90086 -2.17277 -56.8381 3.90086 -10.173 -55.7781 3.90086 
0.213845 -56.8381 3.90086 -1.72435 -56.8381 4.13641 6.72426 -56.652 3.90086 
15.1729 -55.175 3.90086 23.6215 -52.4202 3.90086 -27.6875 -48.3895 3.90086 
-35.5188 -42.0092 3.90086 -27.0702 -48.3895 4.53493 -18.6216 -48.3895 9.98495 
30.7866 -48.3895 3.90086 32.0701 -47.5551 3.90086 40.5187 -40.7954 3.90086 
-37.7461 -39.9409 3.90086 -43.9674 -32.907 3.90086 -35.5188 -39.9409 6.092 
-27.0702 -39.9409 10.5046 41.4302 -39.9409 3.90086 -45.1523 -31.4923 3.90086 
-43.9674 -31.4923 5.23026 -35.5188 -31.4923 10.7904 48.7152 -31.4923 3.90086 
48.9673 -31.126 3.90086 -51.0838 -23.0437 3.90086 -52.416 -20.9787 3.90086 
-43.9674 -23.0437 10.8946 53.972 -23.0437 3.90086 57.4159 -14.9345 3.90086 
-55.7117 -14.5951 3.90086 -52.416 -14.5951 8.88498 57.5486 -14.5951 3.90086 
57.4159 -14.5951 4.53409 -58.0291 -6.14644 3.90086 -52.416 -6.14644 10.5284 
59.7502 -6.14644 3.90086 57.4159 -6.14644 11.2112 -58.621 2.30217 3.90086 
-52.416 2.30217 10.3731 60.4628 2.30217 3.90086 57.4159 2.30217 9.8636 
-57.4861 10.7508 3.90086 -52.416 10.7508 9.54605 60.0237 10.7508 3.90086 
57.4159 10.7508 9.92398 -54.8193 19.1994 3.90086 -52.416 23.6383 3.90086 
-52.416 19.1994 6.66478 -43.9674 19.1994 11.6523 58.2932 19.1994 3.90086 
57.4159 21.7396 3.90086 57.4159 19.1994 5.61279 -49.3937 27.648 3.90086 
-43.9674 35.7015 3.90086 -43.9674 27.648 9.12681 54.8393 27.648 3.90086 
48.9673 27.648 11.9124 -43.6669 36.0966 3.90086 -35.5188 36.0966 9.89903 
40.5187 43.6254 3.90086 40.5187 36.0966 12.0338 49.292 36.0966 3.90086 
48.9673 36.4621 3.90086 48.9673 36.0966 4.31227 -35.7226 44.5452 3.90086 
-35.5188 44.7236 3.90086 -35.5188 44.5452 4.11279 -27.0702 50.8117 3.90086 
-27.0702 44.5452 10.5267 23.6215 52.0239 3.90086 23.6215 44.5452 10.9296 
39.2651 44.5452 3.90086 32.0701 48.4186 3.90086 32.0701 44.5452 8.97173 
-23.3388 52.9938 3.90086 -18.6216 55.1731 3.90086 -18.6216 52.9938 7.9561 
-10.173 56.7533 3.90086 -10.173 52.9938 9.54626 -1.72435 57.1677 3.90086 
-1.72435 52.9938 10.0758 6.72426 56.1574 3.90086 6.72426 52.9938 9.78079 
20.5076 52.9938 3.90086 15.1729 54.3768 3.90086 15.1729 52.9938 6.20683 
-10.173 -51.2907 12.3495 -1.72435 -54.3401 12.3495 6.72426 -54.587 12.3495 
15.1729 -54.2106 12.3495 23.6215 -51.3857 12.3495 -15.1431 -48.3895 12.3495 
-18.6216 -45.2722 12.3495 -10.173 -48.3895 14.9227 -1.72435 -48.3895 17.8515 
6.72426 -48.3895 19.0197 15.1729 -48.3895 18.7289 30.206 -48.3895 12.3495 
23.6215 -48.3895 16.5812 32.0701 -47.4591 12.3495 40.5187 -40.9952 12.3495 
-23.9791 -39.9409 12.3495 -27.0702 -35.8218 12.3495 -18.6216 -39.9409 15.1494 
-10.173 -39.9409 18.7526 32.0701 -39.9409 20.3145 41.6034 -39.9409 12.3495 
40.5187 -39.9409 13.542 -31.7053 -31.4923 12.3495 -35.5188 -28.4295 12.3495 
-27.0702 -31.4923 13.987 -18.6216 -31.4923 17.0418 -10.173 -31.4923 19.7541 
48.2597 -31.4923 12.3495 40.5187 -31.4923 19.0873 48.9673 -30.0577 12.3495 
-41.2023 -23.0437 12.3495 -43.9674 -20.3548 12.3495 -35.5188 -23.0437 14.7046 
[...]
POINT_DATA 538
SCALARS ImageScalars float
LOOKUP_TABLE default
0 0 0 0 0 0 0 0 0 
0 0 0 0 0 0 0 0 0 
0 0 0 0 0 0 0 0 0 
0 0 0 0 0 0 0 0 0 
0 0 0 0 0 0 0 0 0 
0 0 0 0 0 0 0 0 0 
0 0 0 0 0 0 0 0 0 
0 0 0 0 0 0 0 0 0 
0 0 0 0 0 0 0 0 0 
0 0 0 0 0 0 0 0 0 
0 0 0 0 0 0 0 0 0 
0 0 0 0 0 0 0 0 0 
0 0 0 0 0 0 0 0 0 
0 0 0 0 0 0 0 0 0 
0 0 0 0 0 0 0 0 0 
0 0 0 0 0 0 0 0 0 
0 0 0 0 0 0 0 0 0 
0 0 0 0 0 0 0 0 0 
0 0 0 0 0 0 0 0 0 
0 0 0 0 0 0 0 0 0 
0 0 0 0 0 0 0 0 0 
0 0 0 0 0 0 0 0 0 
0 0 0 0 0 0 0 0 0 
0 0 0 0 0 0 0 0 0 
0 0 0 0 0 0 0 0 0 
0 0 0 0 0 0 0 0 0 
0 0 0 0 0 0 0 0 0 
0 0 0 0 0 0 0 0 0 
0 0 0 0 0 0 0 0 0 
0 0 0 0 0 0 0 0 0 
0 0 0 0 0 0 0 0 0 
0 0 0 0 0 0 0 0 0 
0 0 0 0 0 0 0 0 0 
0 0 0 0 0 0 0 0 0 
0 0 0 0 0 0 0 0 0 
0 0 0 0 0 0 0 0 0 
0 0 0 0 0 0 0 0 0 
0 0 0 0 0 0 0 0 0 
0 0 0 0 0 0 0 0 0 
0 0 0 0 0 0 0 0 0 
0 0 0 0 0 0 0 0 0 
0 0 0 0 0 0 0 0 0 
0 0 0 0 0 0 0 0 0 
0 0 0 0 0 0 0 0 0 
0 0 0 0 0 0 0 0 0 
0 0 0 0 0 0 0 0 0 
0 0 0 0 0 0 0 0 0 
0 0 0 0 0 0 0 0 0 
0 0 0 0 0 0 0 0 0 
0 0 0 0 0 0 0 0 0 
0 0 0 0 0 0 0 0 0 
0 0 0 0 0 0 0 0 0 
0 0 0 0 0 0 0 0 0 
0 0 0 0 0 0 0 0 0 
0 0 0 0 0 0 0 0 0 
0 0 0 0 0 0 0 0 0 
0 0 0 0 0 0 0 0 0 
0 0 0 0 0 0 0 0 0 
0 0 0 0 0 0 0 0 0 
0 0 0 0 0 0 0 
NORMALS Normals float
0.113055 0.657508 0.744918 -0.0301417 0.575829 0.817014 -0.0620299 0.576271 0.814901 
0.440362 0.551009 0.708851 0.197497 0.429581 0.881167 -0.0244048 0.343482 0.938842 
-0.075531 0.282979 0.956147 -0.0534424 0.281033 0.958209 -0.103924 0.295087 0.949802 
-0.232544 0.355456 0.905304 0.648506 0.429203 0.628669 0.281446 0.257096 0.924494 
0.0647051 0.149339 0.986667 -0.0668623 0.0825719 0.99434 -0.101931 0.0802511 0.991549 
-0.0470466 0.0873357 0.995067 -0.0588498 0.0923569 0.993985 -0.134458 0.126872 0.982764 
-0.287059 0.221504 0.931951 0.44171 0.264351 0.857328 0.173226 0.123381 0.977123 
0.0205186 0.0496949 0.998554 -0.102224 -0.0425606 0.993851 -0.0921959 -0.0497831 0.994496 
-0.0395174 0.0720866 0.996615 -0.063142 -0.00160894 0.998003 -0.0963074 -0.0235379 0.995073 
-0.189638 0.0408142 0.981005 -0.321042 0.165146 0.932555 0.684636 0.300096 0.664241 
0.366138 0.142998 0.919508 0.0655074 0.0741721 0.995092 -0.0994139 -0.00485671 0.995034 
-0.165326 -0.0662297 0.984013 0.00612935 -0.0302046 0.999525 0.00669352 0.0709986 0.997454 
-0.16349 0.05907 0.984775 -0.0911231 -0.0416304 0.994969 -0.110662 -0.0472114 0.992736 
-0.220029 0.0315792 0.974982 0.573645 0.205389 0.792936 0.243322 0.0363685 0.969264 
0.0284539 -0.0152794 0.999478 -0.118213 -0.0464136 0.991903 -0.123552 -0.0568323 0.990709 
0.0297874 0.119597 0.992376 0.0460094 -0.083006 0.995486 -0.164892 0.0492174 0.985083 
-0.20414 0.0799614 0.975671 -0.1173 -0.00943634 0.993052 -0.150168 0.0213354 0.98843 
0.4639 0.0444605 0.884771 0.183476 -0.019061 0.982839 -0.0109394 -0.00064451 0.99994 
-0.141377 -0.0459424 0.988889 -0.00279485 -0.0731041 0.99732 0.0102922 0.00232919 0.999944 
-0.084249 0.0531057 0.995029 0.0242704 -0.0177662 0.999548 -0.158708 0.143596 0.976827 
-0.158878 0.157394 0.974672 -0.131324 0.155547 0.97906 -0.248685 0.139461 0.958492 
0.487559 -0.154544 0.859304 0.206505 -0.0481079 0.977262 0.00605179 -0.0666905 0.997755 
-0.190823 -0.0296521 0.981176 -0.0903809 0.00608207 0.995889 0.16056 -0.0926785 0.982665 
0.0192295 -0.0644846 0.997733 -0.0728666 -0.0727995 0.994681 -0.0252247 0.032 0.99917 
-0.0816331 0.206452 0.975045 -0.164237 0.227086 0.959926 -0.282209 0.161419 0.945675 
0.589351 -0.313889 0.744405 0.284316 -0.178412 0.941984 0.0110346 -0.0550836 0.998421 
-0.0668271 0.00884532 0.997725 -0.0588915 0.108634 0.992336 -0.0526781 0.0549697 0.997097 
-0.0496694 -0.111746 0.992495 0.0850861 -0.0421017 0.995484 0.128249 -0.00278165 0.991738 
0.00280004 0.093577 0.995608 -0.163267 0.0754096 0.983696 -0.313815 0.0560329 0.947829 
0.424935 -0.291452 0.857021 0.159526 -0.134165 0.978034 -0.029919 0.00923766 0.99951 
-0.0413425 0.0272898 0.998772 -0.0798332 0.00622892 0.996789 -0.059653 0.00696244 0.998195 
0.0469823 -0.00384619 0.998888 0.110894 -0.0805162 0.990565 -0.000559494 -0.053663 0.998559 
-0.182043 -0.107188 0.977431 -0.349834 -0.089272 0.932549 0.305561 -0.373367 0.875916 
0.096184 -0.221632 0.970375 -0.053267 -0.164977 0.984858 -0.0727349 -0.156499 0.984996 
-0.0637533 -0.151746 0.986361 -0.00169271 -0.164606 0.986358 0.0647355 -0.196299 0.978405 
-0.0286054 -0.278435 0.960029 -0.183682 -0.335801 0.92385 -0.417007 -0.37213 0.829231 
0.215877 -0.548694 0.807671 0.0414051 -0.409464 0.911386 -0.058161 -0.401243 0.914123 
-0.0621834 -0.396017 0.916135 0.0203139 -0.412629 0.910673 -0.00313927 -0.426657 0.904408 
-0.156912 -0.517453 0.841202 0.126333 0.679467 0.722748 -0.0229699 0.599537 0.800017 
-0.0621329 0.5778 0.81381 0.475623 0.639327 0.604189 0.15755 0.692927 0.703583 
0.261757 0.714454 0.648875 0.388982 0.852891 0.348237 -0.0652928 0.577224 0.813971 
-0.135644 0.546976 0.826086 -0.140943 0.613849 0.776739 -0.238668 0.490148 0.838327 
-0.242387 0.696998 0.674865 -0.424421 0.719589 0.549598 0.549987 0.59858 0.582423 
0.676881 0.491976 0.547533 -0.328956 0.390748 0.859711 -0.345317 0.361415 0.866103 
-0.368358 0.410759 0.83402 -0.508805 0.551703 0.660864 0.693417 0.451693 0.561378 
-0.368929 0.281312 0.885864 -0.364747 0.238814 0.89996 -0.410092 0.314705 0.856029 
-0.572823 0.444219 0.688871 0.733172 0.349073 0.583615 0.711496 0.320728 0.625226 
0.87305 0.458606 0.165722 -0.363587 0.191853 0.91159 -0.466017 0.265462 0.844013 
-0.662104 0.36412 0.655007 0.701353 0.313029 0.640403 -0.329657 0.111189 0.937531 
-0.363611 0.133782 0.921895 -0.582795 0.217453 0.782984 0.748933 0.244043 0.616071 
-0.269669 0.0739496 0.960109 -0.272698 0.0814751 0.958644 -0.275431 0.0768908 0.958241 
-0.490431 0.152079 0.858108 0.803742 0.0761204 0.590089 0.996974 0.0515093 0.0582234 
-0.300612 0.13482 0.94417 -0.462962 0.132362 0.87644 -0.80593 0.124814 0.578703 
0.785267 -0.175486 0.593768 -0.40581 0.129579 0.904725 -0.475564 0.116335 0.871955 
-0.829161 0.0504357 0.55673 0.683749 -0.355442 0.637298 0.688957 -0.383361 0.61512 
-0.504441 0.0246125 0.863095 -0.508674 0.0234472 0.86064 -0.909785 -0.174147 0.376781 
0.686106 -0.401232 0.606854 0.851186 -0.498266 0.164965 0.607459 -0.538807 0.583678 
-0.597015 -0.169548 0.784108 -0.655545 -0.196576 0.729122 0.598845 -0.549424 0.582682 
0.646021 -0.585263 0.490025 0.420927 -0.662023 0.620117 -0.281727 -0.591669 0.755353 
-0.504609 -0.405114 0.762399 -0.437542 -0.483505 0.758142 -0.761574 -0.553207 0.33759 
0.37108 -0.667994 0.645046 0.499851 -0.757705 0.419562 0.266498 -0.663632 0.698979 
0.0739501 -0.678452 0.730913 -0.0489009 -0.598542 0.799598 -0.0602723 -0.543765 0.837071 
-0.000277425 -0.528915 0.848675 -0.0225357 -0.5952 0.803261 -0.266697 -0.599526 0.754613 
-0.182995 -0.621436 0.761794 -0.309744 -0.65632 0.68797 -0.558129 -0.79258 0.245578 
0.15894 -0.882363 0.442914 -0.0042051 -0.806248 0.591563 -0.0378326 -0.790621 0.611135 
-0.0650044 -0.804953 0.589767 -0.151975 -0.885201 0.439686 0.448239 0.887563 0.106367 
0.252333 0.949012 0.188958 0.115032 0.951209 0.286303 -0.0413183 0.92584 0.37565 
0.0436017 0.998707 -0.0261233 -0.153825 0.895254 0.41816 -0.266334 0.839714 0.47323 
-0.425426 0.768614 0.477749 0.509195 0.859397 0.046443 0.599879 0.799336 -0.0347446 
-0.462962 0.738521 0.490156 -0.536731 0.625166 0.566645 0.732001 0.679613 -0.0479762 
0.777919 0.626532 -0.0479549 -0.552966 0.5906 0.587725 -0.596135 0.512163 0.618315 
-0.663871 0.695559 0.274724 0.830728 0.556666 0.00382201 0.872805 0.484193 0.061387 
-0.614482 0.481729 0.62478 -0.673757 0.381255 0.633006 0.87888 0.471871 0.0700532 
0.860245 0.50005 -0.0996397 -0.681439 0.369333 0.631849 0.923621 0.368095 0.10691 
-0.684387 0.268029 0.678068 -0.942399 0.311783 0.12114 0.970889 0.231751 0.0605505 
0.996539 0.0829938 0.00480167 -0.737635 0.209042 0.642025 -0.806018 0.127577 0.577978 
-0.876094 0.2081 0.434919 0.998908 0.0462409 -0.00666867 0.997269 -0.0717621 -0.0174629 
0.997303 0.0407588 -0.0610414 -0.807712 0.124501 0.576283 0.982788 -0.18287 -0.0261986 
-0.88647 0.0272255 0.461985 0.923785 -0.382322 -0.021263 -0.931562 -0.184155 0.313496 
-0.923204 -0.228777 0.308797 0.859462 -0.510906 -0.0173408 0.844371 -0.535069 -0.0271692 
0.83409 -0.523193 -0.174822 -0.882841 -0.374 0.284106 0.759661 -0.649768 -0.0267738 
0.714367 -0.699541 -0.0179518 0.670078 -0.555299 -0.492583 -0.793935 -0.580059 0.182207 
-0.766829 -0.6195 0.167904 0.641192 -0.76722 0.0157068 0.582869 -0.811222 0.0467244 
0.411222 -0.905115 0.107998 -0.28919 -0.938231 0.189978 -0.376738 -0.911277 0.166259 
-0.592408 -0.795959 0.124508 -0.566056 -0.814753 0.125531 -0.580796 -0.794258 -0.17841 
0.367411 -0.920597 0.132328 0.227613 -0.948888 0.218642 0.0736795 -0.949239 0.305806 
-0.02377 -0.931965 0.361768 -0.0842844 -0.942172 0.324357 -0.28 -0.939369 0.197955 
-0.196543 -0.94624 0.256905 0.0468997 0.998003 -0.042309 0.520272 0.757699 -0.393967 
0.389182 0.867207 -0.310629 0.0553021 0.997297 -0.048375 0.21899 0.960518 -0.171603 
0.0141806 0.999373 -0.0324291 0.0492112 0.997376 -0.0531006 -0.0974658 0.995238 0.00138009 
-0.24651 0.965015 0.089328 -0.402352 0.910796 0.0925428 0.529293 0.747979 -0.40047 
0.574971 0.644008 -0.50464 0.523806 0.738625 -0.424336 0.424244 0.637692 -0.642936 
-0.529609 0.833058 0.159778 -0.550139 0.815576 0.179397 -0.666116 0.714527 0.21387 
0.602863 0.617043 -0.505781 0.65848 0.575876 -0.484532 0.543408 0.586661 -0.600448 
0.440425 0.417375 -0.794874 -0.678317 0.703123 0.213315 0.671042 0.568321 -0.476144 
0.632405 0.560573 -0.534623 0.401845 0.422459 -0.812434 -0.792954 0.576028 0.198534 
-0.796744 0.572363 0.193904 0.771894 0.511612 -0.377402 0.806748 0.472371 -0.354998 
0.47734 0.444955 -0.757734 -0.876625 0.457086 0.150337 -0.943291 0.314358 0.106684 
0.871738 0.341517 -0.351338 0.743434 0.277229 -0.608647 -0.945161 0.309627 0.103934 
-0.949588 0.306834 0.0643105 0.892514 0.156864 -0.422862 0.649529 0.0533303 -0.758464 
-0.984334 0.172177 0.0379734 -0.870861 0.0452378 -0.489444 0.867155 -0.0207455 -0.497606 
0.60186 -0.0411087 -0.797543 -0.998967 0.0157068 -0.042636 -0.865599 -0.0267967 -0.50002 
0.816297 -0.206504 -0.539458 0.617337 -0.177881 -0.766324 -0.986292 -0.122271 -0.110801 
-0.830332 -0.12643 -0.542737 0.777738 -0.359019 -0.515973 0.727609 -0.42475 -0.538677 
0.653459 -0.348038 -0.672206 0.407538 -0.224652 -0.885124 -0.932935 -0.280751 -0.225414 
-0.910841 -0.330606 -0.247119 -0.891644 -0.298885 -0.340058 0.68502 -0.476398 -0.551174 
0.658313 -0.537519 -0.526971 0.554088 -0.363001 -0.749144 -0.838177 -0.460111 -0.292844 
-0.530196 -0.368163 -0.763773 0.656298 -0.54054 -0.526393 0.494938 -0.405524 -0.768496 
-0.550697 -0.724203 -0.415045 -0.36563 -0.473652 -0.801229 -0.696031 -0.612948 -0.373947 
-0.689855 -0.619586 -0.37445 -0.686678 -0.61081 -0.394189 0.615063 -0.648955 -0.447833 
0.614212 -0.650824 -0.446286 0.613163 -0.645159 -0.455852 0.494231 -0.784297 -0.374987 
0.423601 -0.531574 -0.733479 -0.32 -0.876231 -0.360303 -0.210453 -0.532895 -0.819593 
-0.524696 -0.744342 -0.413096 -0.384472 -0.833267 -0.3973 -0.323067 -0.665256 -0.673099 
0.424077 -0.852311 -0.306145 0.318326 -0.911911 -0.259013 0.310949 -0.80524 -0.504876 
0.120926 -0.956082 -0.266991 0.0777608 -0.770311 -0.632909 -0.0361815 -0.970875 -0.236838 
0.0122167 -0.752621 -0.658341 -0.162705 -0.953136 -0.255068 -0.132938 -0.776613 -0.615792 
-0.292241 -0.895819 -0.334818 -0.241158 -0.91587 -0.320975 -0.252175 -0.851861 -0.459066 
0.340492 0.682742 -0.646474 0.14997 0.83825 -0.524258 -0.00742172 0.893183 -0.449632 
-0.180324 0.910677 -0.371685 -0.342436 0.871486 -0.351068 0.398588 0.585955 -0.705538 
0.43402 0.481168 -0.761646 0.349192 0.567166 -0.745914 0.201579 0.51226 -0.834839 
0.0465847 0.515548 -0.855594 -0.100704 0.561167 -0.821554 -0.447755 0.837754 -0.312544 
-0.309427 0.746221 -0.589414 -0.48333 0.820887 -0.304199 -0.669479 0.680376 -0.298137 
0.431697 0.363671 -0.825458 0.378763 0.331437 -0.864111 0.423295 0.308586 -0.851819 
0.310361 0.232517 -0.921744 -0.324019 0.403397 -0.855735 -0.68834 0.65912 -0.302901 
-0.666828 0.643161 -0.37641 0.355765 0.347789 -0.867453 0.334812 0.377135 -0.863522 
0.322454 0.268418 -0.907731 0.322066 0.0963042 -0.941806 0.281588 0.0197667 -0.959332 
-0.814741 0.486843 -0.314929 -0.445645 0.281062 -0.849944 -0.814645 0.465047 -0.346532 
0.379213 0.397003 -0.835815 0.419732 0.359123 -0.83358 0.240776 0.311648 -0.919186 
0.127715 0.172681 -0.976663 0.187194 -0.00863933 -0.982285 0.239255 -0.063548 -0.968875 
-0.385383 0.0219077 -0.922497 -0.795353 0.340099 -0.501744 -0.650491 0.230689 -0.723633 
0.523281 0.217134 -0.824033 0.359521 0.195444 -0.91244 0.141554 0.124227 -0.982105 
0.00944527 0.0882972 -0.996049 0.0869256 -0.02922 -0.995786 0.243316 0.0748557 -0.967054 
-0.0696616 -0.203246 -0.976647 -0.213306 -0.0504098 -0.975684 -0.792033 0.186777 -0.581204 
-0.488403 0.095372 -0.867391 0.512781 0.0171852 -0.858348 0.323893 -0.00585676 -0.946076 
0.125776 -0.0278275 -0.991668 -0.027891 -0.0419158 -0.998732 0.148237 -0.0598657 -0.987138 
-0.0194913 -0.163455 -0.986358 -0.119196 -0.0637343 -0.990823 -0.114106 -0.189892 -0.975152 
0.0570544 -0.195419 -0.979059 0.0297808 -0.133058 -0.990661 -0.109056 -0.0800241 -0.990809 
-0.802722 0.0172376 -0.596104 -0.355271 -0.0256865 -0.93441 0.453711 -0.0484197 -0.889833 
0.299863 -0.0777523 -0.950809 0.102975 -0.0754765 -0.991816 -0.0197832 -0.081208 -0.996501 
0.168333 -0.0267552 -0.985367 -0.00884617 -0.17415 -0.984679 -0.0369285 -0.0371479 -0.998627 
-0.148385 -0.0376594 -0.988212 0.0328348 -0.0428714 -0.998541 0.0475913 -0.0601175 -0.997056 
-0.100734 -0.0666509 -0.992678 -0.666926 -0.050286 -0.743426 -0.342894 -0.0847301 -0.935545 
0.425719 -0.166551 -0.889395 0.3728 -0.199191 -0.90628 0.306367 -0.151279 -0.939816 
0.131904 -0.0915742 -0.987024 0.0203663 -0.00560276 -0.999777 0.0173845 0.0421307 -0.998961 
0.0502873 -0.222258 -0.97369 0.191528 -0.151399 -0.96974 -0.0180806 -0.249348 -0.968245 
-0.0960893 -0.0525346 -0.993985 0.0333335 -0.012395 -0.999367 0.00667021 -0.0652893 -0.997844 
-0.148704 -0.115618 -0.9821 -0.646287 -0.131872 -0.751613 -0.352911 -0.144613 -0.924414 
0.36725 -0.200236 -0.908313 0.247414 -0.137415 -0.959116 0.114028 -0.0122784 -0.993402 
-0.0229632 0.0511129 -0.998429 -0.0563144 0.0394767 -0.997632 0.0277906 0.0121656 -0.99954 
0.0682219 -0.138821 -0.987965 0.0495376 -0.0482147 -0.997608 0.017551 -0.0725282 -0.997212 
-0.057541 -0.122709 -0.990773 -0.184222 -0.202313 -0.961838 -0.490584 -0.249007 -0.835058 
-0.501034 -0.332575 -0.798974 -0.422334 -0.218152 -0.879798 0.381874 -0.26663 -0.884919 
0.373436 -0.287076 -0.882119 0.320167 -0.234939 -0.917768 0.206257 -0.116542 -0.971533 
0.065691 -0.00818307 -0.997806 -0.00631439 0.0612378 -0.998103 -0.0151864 0.0711055 -0.997353 
-0.00246408 -0.00217561 -0.999995 -0.0117551 -0.0512822 -0.998615 -0.0455858 -0.145179 -0.988355 
-0.134587 -0.188786 -0.972752 -0.48731 -0.346999 -0.801324 -0.346614 -0.448098 -0.824055 
-0.218952 -0.235969 -0.946773 0.406084 -0.321172 -0.855537 0.375831 -0.403008 -0.834467 
0.326457 -0.251564 -0.911121 0.154444 -0.175557 -0.972279 0.0237454 -0.101417 -0.994561 
-0.0365096 -0.0844972 -0.995755 -0.055531 -0.0989726 -0.99354 -0.097914 -0.20564 -0.973717 
-0.170451 -0.423642 -0.889648 -0.119823 -0.284641 -0.951116 -0.328856 -0.452057 -0.829155 
-0.191253 -0.425666 -0.884438 -0.148803 -0.346972 -0.925996 0.318279 -0.436233 -0.841665 
0.248858 -0.487172 -0.837098 0.221518 -0.366284 -0.903751 0.0633142 -0.543724 -0.836872 
0.0831638 -0.347546 -0.933968 0.0255289 -0.549841 -0.834879 -0.00207571 -0.325456 -0.945555 
-0.111263 -0.580134 -0.806886 -0.118641 -0.3037 -0.945352 -0.21534 -0.429958 -0.876792 
-0.237799 -0.442967 -0.864426 -0.220103 -0.388967 -0.894572 0.20553 0.246096 -0.947203 
0.0637425 0.321397 -0.944797 -0.0587165 0.371226 -0.926684 -0.143961 0.358418 -0.922394 
0.220036 0.220796 -0.950175 0.204514 0.221073 -0.953573 0.0714715 0.182116 -0.980676 
-0.0306125 0.253741 -0.966788 -0.245542 0.356484 -0.901459 -0.117269 0.279936 -0.952829 
-0.290739 0.328675 -0.898579 0.226273 0.00878792 -0.974024 0.159602 -0.00871765 -0.987143 
0.0819367 -0.00747141 -0.99661 0.0287722 0.0133844 -0.999496 -0.0798394 0.0873686 -0.992971 
-0.290779 0.17943 -0.939815 -0.208047 0.129181 -0.969551 0.176495 -0.0649189 -0.982158 
0.166946 -0.0654859 -0.983789 0.100273 -0.073461 -0.992244 0.0691237 -0.14192 -0.987462 
-0.0202692 -0.130236 -0.991276 -0.308553 -0.0176129 -0.951044 -0.0860424 -0.187305 -0.978526 
-0.178303 -0.083441 -0.980431 0.149526 -0.0382094 -0.988019 0.248285 0.143766 -0.957959 
0.127574 -0.0553138 -0.990285 0.145926 -0.0425786 -0.988379 -0.0651718 -0.0736151 -0.995155 
0.00768408 -0.0912236 -0.995801 -0.0333165 -0.258871 -0.965337 -0.0265171 -0.26293 -0.96445 
-0.0304637 -0.272985 -0.961536 -0.0281559 -0.275766 -0.960812 -0.0286184 -0.276116 -0.960698 
0.248138 0.142183 -0.958233 0.22411 0.117579 -0.967445 0.248015 0.144627 -0.9579 
0.193488 -0.267509 -0.943929 0.176321 -0.267949 -0.947161 0.188414 -0.277198 -0.942158 
0.18905 -0.272281 -0.943463 
