# vtk DataFile Version 4.2
vtk output
ASCII
DATASET POLYDATA
POINTS 518 float
26.2157 17.4054 -24.3233 34.2399 17.4054 -24.4389 26.2157 25.4296 -24.3301 
-5.8811 -22.7157 -16.766 2.14311 -22.7157 -17.2832 -13.9053 -14.6914 -17.2485 
-5.8811 -14.6914 -17.7217 2.14311 -14.6914 -17.9951 10.1673 -14.6914 -17.1301 
-13.9053 -6.66723 -19.3823 -5.8811 -6.66723 -19.484 2.14311 -6.66723 -17.4348 
10.1673 -6.66723 -19.2052 18.1915 -6.66723 -17.7555 26.2157 -6.66723 -18.9443 
34.2399 -6.66723 -19.5353 42.2642 -6.66723 -19.3097 50.2884 -6.66723 -17.0917 
-29.9537 1.35698 -16.7896 -21.9295 1.35698 -17.3926 -13.9053 1.35698 -18.558 
-5.8811 1.35698 -18.7488 2.14311 1.35698 -18.5714 10.1673 1.35698 -19.9698 
18.1915 1.35698 -19.8054 26.2157 1.35698 -21.4557 34.2399 1.35698 -22.1694 
42.2642 1.35698 -21.5947 50.2884 1.35698 -18.9153 -37.9779 9.38119 -17.236 
-29.9537 9.38119 -19.2298 -21.9295 9.38119 -20.1127 -13.9053 9.38119 -20.3428 
-5.8811 9.38119 -19.9937 2.14311 9.38119 -21.6608 10.1673 9.38119 -21.5534 
18.1915 9.38119 -21.8983 26.2157 17.3916 -24.3219 26.2157 9.38119 -23.4672 
34.2399 15.5306 -24.3219 34.2399 9.38119 -23.9412 42.2642 9.38119 -23.3636 
50.2884 9.38119 -20.5353 -37.9779 17.4054 -18.5989 -29.9537 17.4054 -21.0898 
-21.9295 17.4054 -22.471 -13.9053 17.4054 -22.4316 -5.8811 17.4054 -21.9984 
2.14311 17.4054 -22.3087 10.1673 17.4054 -22.8148 26.2017 17.4054 -24.3219 
18.1915 17.4054 -23.5457 35.1401 17.4054 -24.3219 34.2399 22.4161 -24.3219 
42.2642 17.4054 -23.2791 50.2884 17.4054 -19.4735 -37.9779 25.4296 -17.8839 
-29.9537 25.4296 -21.2945 -21.9295 25.4296 -23.5372 -13.9053 25.4296 -23.5216 
-5.8811 25.4296 -23.0782 2.14311 25.4296 -22.8739 10.1673 25.4296 -23.5074 
26.1305 25.4296 -24.3219 18.1915 25.4296 -23.6082 27.0081 25.4296 -24.3219 
26.2157 25.4579 -24.3219 34.2399 25.4296 -24.2368 42.2642 25.4296 -20.3832 
-29.9537 33.4538 -18.9693 -21.9295 33.4538 -21.5749 -13.9053 33.4538 -22.7633 
-5.8811 33.4538 -23.321 2.14311 33.4538 -22.77 10.1673 33.4538 -22.1038 
18.1915 33.4538 -21.7089 26.2157 33.4538 -21.4899 34.2399 33.4538 -18.0115 
-13.9053 41.478 -18.8017 -5.8811 41.478 -19.6059 2.14311 41.478 -18.9598 
10.1673 41.478 -16.5436 -21.9295 -38.7641 -9.10727 -13.9053 -38.7641 -10.5595 
-5.8811 -38.7641 -11.0486 2.14311 -38.7641 -10.2555 10.1673 -38.7641 -8.3562 
-29.9537 -30.7399 -10.8869 -21.9295 -30.7399 -13.3663 -13.9053 -30.7399 -14.4225 
-5.8811 -25.3619 -16.2977 -5.8811 -30.7399 -15.2842 2.14311 -26.8192 -16.2977 
2.14311 -30.7399 -15.2878 10.1673 -30.7399 -13.4679 18.1915 -30.7399 -11.5603 
26.2157 -30.7399 -9.63335 -37.9779 -22.7157 -10.1402 -29.9537 -22.7157 -13.6803 
-21.9295 -22.7157 -15.2624 -11.5715 -22.7157 -16.2977 -13.9053 -21.2547 -16.2977 
-13.9053 -22.7157 -16.1035 8.27734 -22.7157 -16.2977 10.1673 -20.5025 -16.2977 
10.1673 -22.7157 -15.9659 18.1915 -22.7157 -13.9768 26.2157 -22.7157 -13.4822 
34.2399 -22.7157 -12.509 42.2642 -22.7157 -10.4797 -37.9779 -14.6914 -12.3451 
-29.9537 -14.6914 -14.8889 -19.7645 -14.6914 -16.2977 -21.9295 -14.6914 -15.9773 
15.0881 -14.6914 -16.2977 18.1915 -12.582 -16.2977 18.1915 -14.6914 -15.7764 
26.2157 -14.6393 -16.2977 26.2157 -14.6914 -16.28 34.2399 -14.6437 -16.2977 
34.2399 -14.6914 -16.2786 42.2642 -12.8567 -16.2977 42.2642 -14.6914 -15.2742 
50.2884 -8.20387 -16.2977 50.2884 -14.6914 -12.6844 -46.0022 -6.66723 -9.66861 
-37.9779 -6.66723 -13.7964 -29.9537 -2.28509 -16.2977 -29.9537 -6.66723 -15.708 
-21.3016 -6.66723 -16.2977 -21.9295 -5.22104 -16.2977 -21.9295 -6.66723 -16.0715 
51.458 -6.66723 -16.2977 -46.0022 1.35698 -11.4856 -34.5456 1.35698 -16.2977 
-37.9779 3.6942 -16.2977 -37.9779 1.35698 -15.8919 53.7807 1.35698 -16.2977 
58.3126 1.35698 -10.363 -40.016 9.38119 -16.2977 -46.0022 9.38119 -12.9089 
54.9284 9.38119 -16.2977 58.3126 9.38119 -8.88601 -42.0804 17.4054 -16.2977 
-46.0022 17.4054 -13.3942 52.7129 17.4054 -16.2977 50.2884 21.2549 -16.2977 
-40.2662 25.4296 -16.2977 -46.0022 25.4296 -10.1727 -37.9779 29.0213 -16.2977 
47.139 25.4296 -16.2977 42.2642 30.0141 -16.2977 -34.5816 33.4538 -16.2977 
-37.9779 33.4538 -12.2952 -29.9537 36.6735 -16.2977 -21.9295 41.0128 -16.2977 
18.1915 39.8289 -16.2977 26.2157 37.9502 -16.2977 36.8648 33.4538 -16.2977 
34.2399 34.8484 -16.2977 -20.8327 41.478 -16.2977 -21.9295 41.478 -15.1726 
-13.9053 43.6312 -16.2977 -5.8811 44.3124 -16.2977 2.14311 43.7309 -16.2977 
11.0716 41.478 -16.2977 10.1673 41.6605 -16.2977 -21.9295 -39.6309 -8.27349 
-13.9053 -41.2337 -8.27349 -5.8811 -41.6368 -8.27349 2.14311 -40.6707 -8.27349 
10.1673 -38.8432 -8.27349 -23.6544 -38.7641 -8.27349 -29.9537 -34.3777 -8.27349 
-29.9537 -38.7641 -3.28965 10.4474 -38.7641 -8.27349 18.1915 -35.861 -8.27349 
18.1915 -38.7641 -5.01974 26.2157 -32.4605 -8.27349 -34.2767 -30.7399 -8.27349 
-37.9779 -26.3699 -8.27349 -37.9779 -30.7399 -4.76903 30.8158 -30.7399 -8.27349 
34.2399 -29.3356 -8.27349 34.2399 -30.7399 -6.74526 42.2642 -25.1003 -8.27349 
-40.4134 -22.7157 -8.27349 -46.0022 -22.7157 -0.945321 45.483 -22.7157 -8.27349 
50.2884 -19.3499 -8.27349 50.2884 -22.7157 -0.921556 -44.5319 -14.6914 -8.27349 
-46.0022 -11.246 -8.27349 -46.0022 -14.6914 -6.62797 54.1951 -14.6914 -8.27349 
-47.4505 -6.66723 -8.27349 58.044 -6.66723 -8.27349 58.3126 -5.30722 -8.27349 
58.3126 -6.66723 -7.15475 -49.1258 1.35698 -8.27349 59.3285 1.35698 -8.27349 
-50.2428 9.38119 -8.27349 58.5191 9.38119 -8.27349 58.3126 10.0123 -8.27349 
58.3126 9.38119 -6.80255 -49.975 17.4054 -8.27349 55.4306 17.4054 -8.27349 
50.2884 23.9184 -8.27349 -47.3154 25.4296 -8.27349 -46.0022 27.3745 -8.27349 
48.8199 25.4296 -8.27349 42.2642 30.7631 -8.27349 -40.6894 33.4538 -8.27349 
-37.9779 35.5341 -8.27349 -29.9537 40.2379 -8.27349 18.1915 40.5831 -8.27349 
26.2157 38.3729 -8.27349 37.7245 33.4538 -8.27349 34.2399 35.2865 -8.27349 
34.2399 33.4538 -4.23133 -26.9618 41.478 -8.27349 -21.9295 43.3874 -8.27349 
-13.9053 45.2056 -8.27349 -5.8811 45.5113 -8.27349 2.14311 44.3287 -8.27349 
2.14311 41.478 -1.43884 14.5261 41.478 -8.27349 10.1673 42.7349 -8.27349 
10.1673 41.478 -5.67152 -29.9537 -40.6567 -0.249279 -21.9295 -44.3092 -0.249279 
-13.9053 -45.9946 -0.249279 -5.8811 -46.2449 -0.249279 -5.8811 -46.7883 7.15572 
2.14311 -45.4305 -0.249279 10.1673 -43.784 -0.249279 18.1915 -41.5998 -0.249279 
-32.7348 -38.7641 -0.249279 -37.9779 -34.297 -0.249279 25.9541 -38.7641 -0.249279 
26.2157 -38.6725 -0.249279 26.2157 -38.7641 1.9595 34.2399 -35.0333 -0.249279 
-41.1245 -30.7399 -0.249279 -46.0022 -23.3861 -0.249279 41.1672 -30.7399 -0.249279 
42.2642 -30.0309 -0.249279 50.2884 -23.0322 -0.249279 -46.3758 -22.7157 -0.249279 
50.5863 -22.7157 -0.249279 50.2884 -22.7157 0.621741 -49.7008 -14.6914 -0.249279 
56.2616 -14.6914 -0.249279 58.3126 -9.88861 -0.249279 -52.0317 -6.66723 -0.249279 
59.5388 -6.66723 -0.249279 58.3126 -6.66723 2.38176 -53.5822 1.35698 -0.249279 
59.5005 1.35698 -0.249279 58.3126 6.00547 -0.249279 58.3126 1.35698 1.76288 
-53.7193 9.38119 -0.249279 57.121 9.38119 -0.249279 50.2884 9.38119 7.31452 
-52.6873 17.4054 -0.249279 42.2642 17.4054 7.65132 52.5603 17.4054 -0.249279 
50.2884 19.9043 -0.249279 50.2884 17.4054 2.27748 -49.3564 25.4296 -0.249279 
-46.0022 29.503 -0.249279 34.2399 31.157 -0.249279 34.2399 25.4296 5.24073 
44.1044 25.4296 -0.249279 42.2642 26.796 -0.249279 42.2642 25.4296 1.31251 
-41.497 33.4538 -0.249279 -37.9779 36.2997 -0.249279 -37.9779 33.4538 6.24251 
-29.9537 39.6533 -0.249279 2.14311 40.8464 -0.249279 2.14311 33.4538 7.49455 
10.1673 38.5223 -0.249279 10.1673 33.4538 5.13933 18.1915 36.4866 -0.249279 
18.1915 33.4538 3.20346 28.6272 33.4538 -0.249279 26.2157 34.3004 -0.249279 
26.2157 33.4538 0.775747 -23.8307 41.478 -0.249279 -21.9295 41.9855 -0.249279 
-21.9295 41.478 0.745206 -13.9053 42.9293 -0.249279 -13.9053 41.478 2.23582 
-0.0976627 41.478 -0.249279 -5.8811 42.7985 -0.249279 -5.8811 41.478 1.75336 
-5.8811 -46.8297 7.77493 -29.9537 -41.1756 7.77493 -21.9295 -44.7974 7.77493 
-7.00762 -46.7883 7.77493 -13.9053 -46.5329 7.77493 -4.80469 -46.7883 7.77493 
-5.8811 -46.7883 7.96175 2.14311 -46.5123 7.77493 10.1673 -44.8479 7.77493 
18.1915 -42.4201 7.77493 26.2157 -39.0171 7.77493 -33.4021 -38.7641 7.77493 
-37.9779 -34.9224 7.77493 -29.9537 -38.7641 13.8829 18.1915 -38.7641 15.5197 
26.6974 -38.7641 7.77493 26.2157 -38.7641 8.33444 34.2399 -34.5472 7.77493 
-41.7796 -30.7399 7.77493 -46.0022 -24.5197 7.77493 39.5517 -30.7399 7.77493 
34.2399 -30.7399 12.5697 42.2642 -28.4928 7.77493 -47.0596 -22.7157 7.77493 
-46.0022 -22.7157 11.4393 47.822 -22.7157 7.77493 42.2642 -22.7157 13.3491 
50.2884 -18.6338 7.77493 -50.425 -14.6914 7.77493 42.2642 -14.6914 15.7539 
52.6548 -14.6914 7.77493 50.2884 -14.6914 10.1701 -52.5993 -6.66723 7.77493 
55.1195 -6.66723 7.77493 50.2884 -6.66723 12.298 -53.9889 1.35698 7.77493 
42.2642 1.35698 14.8731 53.738 1.35698 7.77493 50.2884 8.56979 7.77493 
50.2884 1.35698 10.8741 -53.8135 9.38119 7.77493 34.2399 9.38119 14.291 
49.6676 9.38119 7.77493 42.2642 17.2111 7.77493 42.2642 9.38119 12.1092 
-52.0609 17.4054 7.77493 10.1673 17.4054 15.7339 18.1915 17.4054 13.9069 
26.2157 17.4054 12.6339 41.9987 17.4054 7.77493 34.2399 22.1063 7.77493 
34.2399 17.4054 10.7413 -47.4939 25.4296 7.77493 -46.0022 27.2859 7.77493 
-46.0022 25.4296 9.97816 -37.9779 32.8142 7.77493 -5.8811 25.4296 15.4604 
2.14311 33.1389 7.77493 2.14311 25.4296 13.6663 10.1673 30.3954 7.77493 
10.1673 25.4296 11.4621 18.1915 28.2442 7.77493 18.1915 25.4296 9.83465 
26.8866 25.4296 7.77493 26.2157 25.7069 7.77493 26.2157 25.4296 7.9854 
-36.3219 33.4538 7.77493 -29.9537 35.7002 7.77493 -29.9537 33.4538 10.7365 
-21.9295 37.2428 7.77493 -21.9295 33.4538 11.8641 -13.9053 37.5229 7.77493 
-13.9053 33.4538 11.7059 1.47668 33.4538 7.77493 -5.8811 36.4719 7.77493 
-5.8811 33.4538 10.5998 -21.9295 -41.8239 15.7991 -13.9053 -44.0769 15.7991 
-5.8811 -44.6236 15.7991 2.14311 -43.7003 15.7991 10.1673 -41.6107 15.7991 
-37.9779 -31.3341 15.7991 -28.3644 -38.7641 15.7991 -29.9537 -37.8628 15.7991 
[...]
POINT_DATA 518
SCALARS ImageScalars float
LOOKUP_TABLE default
0 0 0 0 0 0 0 0 0 
0 0 0 0 0 0 0 0 0 
0 0 0 0 0 0 0 0 0 
0 0 0 0 0 0 0 0 0 
0 0 0 0 0 0 0 0 0 
0 0 0 0 0 0 0 0 0 
0 0 0 0 0 0 0 0 0 
0 0 0 0 0 0 0 0 0 
0 0 0 0 0 0 0 0 0 
0 0 0 0 0 0 0 0 0 
0 0 0 0 0 0 0 0 0 
0 0 0 0 0 0 0 0 0 
0 0 0 0 0 0 0 0 0 
0 0 0 0 0 0 0 0 0 
0 0 0 0 0 0 0 0 0 
0 0 0 0 0 0 0 0 0 
0 0 0 0 0 0 0 0 0 
0 0 0 0 0 0 0 0 0 
0 0 0 0 0 0 0 0 0 
0 0 0 0 0 0 0 0 0 
0 0 0 0 0 0 0 0 0 
0 0 0 0 0 0 0 0 0 
0 0 0 0 0 0 0 0 0 
0 0 0 0 0 0 0 0 0 
0 0 0 0 0 0 0 0 0 
0 0 0 0 0 0 0 0 0 
0 0 0 0 0 0 0 0 0 
0 0 0 0 0 0 0 0 0 
0 0 0 0 0 0 0 0 0 
0 0 0 0 0 0 0 0 0 
0 0 0 0 0 0 0 0 0 
0 0 0 0 0 0 0 0 0 
0 0 0 0 0 0 0 0 0 
0 0 0 0 0 0 0 0 0 
0 0 0 0 0 0 0 0 0 
0 0 0 0 0 0 0 0 0 
0 0 0 0 0 0 0 0 0 
0 0 0 0 0 0 0 0 0 
0 0 0 0 0 0 0 0 0 
0 0 0 0 0 0 0 0 0 
0 0 0 0 0 0 0 0 0 
0 0 0 0 0 0 0 0 0 
0 0 0 0 0 0 0 0 0 
0 0 0 0 0 0 0 0 0 
0 0 0 0 0 0 0 0 0 
0 0 0 0 0 0 0 0 0 
0 0 0 0 0 0 0 0 0 
0 0 0 0 0 0 0 0 0 
0 0 0 0 0 0 0 0 0 
0 0 0 0 0 0 0 0 0 
0 0 0 0 0 0 0 0 0 
0 0 0 0 0 0 0 0 0 
0 0 0 0 0 0 0 0 0 
0 0 0 0 0 0 0 0 0 
0 0 0 0 0 0 0 0 0 
0 0 0 0 0 0 0 0 0 
0 0 0 0 0 0 0 0 0 
0 0 0 0 0 
NORMALS Normals float
0.0551146 0.0493811 0.997258 -0.0567189 0.0186621 0.998216 0.0422151 -0.14213 0.988947 
0.070799 0.141995 0.987332 -0.0465096 0.159642 0.986079 0.111393 0.196392 0.974177 
0.0438273 0.151723 0.987451 -0.033836 0.0120701 0.999354 -0.144225 0.203179 0.968461 
0.227149 0.0775959 0.970764 -0.123252 0.0739885 0.989613 -0.0013369 0.0261018 0.999658 
0.0141603 0.173756 0.984687 -0.0155639 0.247323 0.968808 0.104665 0.308655 0.945398 
0.0213462 0.346428 0.937834 -0.128092 0.336286 0.933008 -0.453024 0.340392 0.823956 
0.089846 0.209637 0.973643 0.105578 0.244992 0.96376 0.0852827 0.0637213 0.994317 
0.00212085 0.0403723 0.999182 0.0844512 0.287506 0.954048 0.0638302 0.142545 0.987728 
0.090022 0.249242 0.964248 0.142363 0.265771 0.953467 0.00900584 0.263236 0.964689 
-0.175612 0.245472 0.953364 -0.473968 0.176902 0.862589 0.33349 0.162186 0.928698 
0.166298 0.257973 0.951733 0.0664499 0.311377 0.94796 -0.00753533 0.230821 0.972967 
0.0800769 0.197226 0.977082 0.0953172 0.203539 0.974416 0.0145515 0.175769 0.984324 
0.112716 0.231743 0.966225 0.0552309 0.0495872 0.997241 0.126082 0.177544 0.976003 
-0.0456174 0.0474311 0.997832 -0.00620005 0.137597 0.990469 -0.178342 0.104662 0.978387 
-0.529908 0.0477267 0.846711 0.408325 0.0416487 0.911886 0.225499 0.123473 0.966387 
0.0797739 0.200845 0.97637 -0.0294679 0.194586 0.980443 -0.00634923 0.18729 0.982284 
0.0505936 0.0742913 0.995952 0.0764499 0.117157 0.990166 0.0551798 0.0494666 0.99725 
0.0932743 0.10233 0.990368 -0.0734901 0.00183484 0.997294 -0.14251 -0.165374 0.97588 
-0.240627 -0.164774 0.956529 -0.674696 -0.327902 0.66126 0.51346 -0.223895 0.82839 
0.310251 -0.109247 0.944357 0.133097 -0.045918 0.990039 -0.0286439 0.0206708 0.999376 
-0.0401103 0.0801587 0.995975 0.0260417 0.0293087 0.999231 0.0464455 -0.0354826 0.99829 
0.0423729 -0.14167 0.989007 0.0486086 -0.106356 0.993139 0.0178099 -0.156207 0.987564 
0.0416868 -0.143425 0.988783 -0.19071 -0.272614 0.943033 -0.522428 -0.486439 0.700319 
0.405744 -0.487656 0.773022 0.2126 -0.378703 0.900769 0.105979 -0.247202 0.963151 
0.00170659 -0.162693 0.986675 -0.0718566 -0.1942 0.978327 -0.0676609 -0.358157 0.931207 
-0.0354829 -0.454934 0.889818 -0.174258 -0.591428 0.787304 -0.403791 -0.774779 0.486488 
0.1933 -0.723649 0.662546 0.00866575 -0.681907 0.731388 -0.154907 -0.722651 0.673632 
-0.231955 -0.858493 0.457369 0.27353 0.652312 0.706874 0.101742 0.614345 0.78245 
-0.0128971 0.634411 0.772888 -0.131997 0.683791 0.71764 -0.205982 0.699556 0.684246 
0.38754 0.438967 0.81063 0.187212 0.333709 0.9239 0.112462 0.297291 0.948141 
0.0665572 0.193363 0.978867 0.0534721 0.31164 0.948694 -0.0744734 0.255644 0.963898 
-0.102346 0.360439 0.927151 -0.21495 0.381402 0.899071 -0.208391 0.41303 0.886555 
-0.228184 0.534061 0.814071 0.510964 0.338076 0.790329 0.277661 0.221145 0.934879 
0.142167 0.158423 0.977083 0.0853903 0.15996 0.983423 0.0949627 0.171088 0.980669 
0.0921006 0.166932 0.981657 -0.165276 0.200173 0.96572 -0.186611 0.209175 0.959907 
-0.203206 0.211458 0.95603 -0.139278 0.243938 0.959737 -0.0843864 0.356055 0.930647 
-0.147768 0.479266 0.865141 -0.36997 0.604203 0.705735 0.414522 0.189643 0.89006 
0.209931 0.115121 0.970915 0.135628 0.0856756 0.987049 0.143095 0.0493081 0.98848 
-0.0849807 0.215852 0.972721 -0.0406917 0.228626 0.972664 -0.0483021 0.224294 0.973324 
0.0301243 0.316258 0.948195 0.0296547 0.316354 0.948178 -0.0520807 0.393522 0.917839 
-0.0526324 0.393788 0.917693 -0.173522 0.453379 0.874264 -0.193599 0.484949 0.852844 
-0.455642 0.371271 0.809041 -0.50768 0.514967 0.690703 0.632187 0.212691 0.745052 
0.331963 0.203297 0.921125 0.106041 0.170048 0.979714 0.132651 0.120239 0.983843 
0.200963 0.0836485 0.976021 0.184453 0.111315 0.976517 0.199173 0.0825931 0.976478 
-0.499699 0.340718 0.796374 0.621859 0.164097 0.765744 0.180465 0.201001 0.962824 
0.275123 0.182811 0.943869 0.255693 0.194044 0.947084 -0.613242 0.141353 0.777145 
-0.929255 0.0448699 0.366705 0.393899 0.141866 0.90814 0.632781 0.0910908 0.768955 
-0.764339 -0.0707801 0.640918 -0.970164 -0.204634 0.130023 0.531723 -0.0122496 0.84683 
0.702844 -0.0910663 0.705491 -0.788845 -0.376374 0.485866 -0.749033 -0.495383 0.439938 
0.574831 -0.251862 0.778547 0.784696 -0.403684 0.470416 0.558694 -0.379822 0.73729 
-0.680249 -0.597912 0.423985 -0.577528 -0.721155 0.38262 0.516756 -0.55103 0.655232 
0.597353 -0.67328 0.435734 0.437866 -0.658694 0.611878 0.341604 -0.775157 0.531449 
-0.197862 -0.873561 0.444681 -0.28056 -0.876725 0.390692 -0.469201 -0.805605 0.361732 
-0.420251 -0.829119 0.368714 0.326957 -0.790112 0.518481 0.342904 -0.824656 0.449843 
0.194159 -0.845937 0.496682 0.00590436 -0.883821 0.467788 -0.175672 -0.879908 0.441476 
-0.231558 -0.870751 0.433789 -0.233355 -0.867894 0.438526 0.272458 0.689813 0.670765 
0.101319 0.719227 0.687348 -0.0293084 0.74908 0.661831 -0.138957 0.748623 0.648271 
-0.205678 0.702466 0.68135 0.316194 0.663787 0.677796 0.438755 0.543718 0.715447 
0.488434 0.761108 0.426787 -0.208049 0.700716 0.682432 -0.255567 0.612067 0.748371 
-0.289281 0.788003 0.543477 -0.248307 0.587782 0.769972 0.493089 0.493729 0.716307 
0.546301 0.430715 0.718359 0.642938 0.571 0.51048 -0.291217 0.603295 0.742447 
-0.303944 0.622666 0.721045 -0.370052 0.692275 0.619529 -0.41926 0.664322 0.618787 
0.590177 0.363796 0.720655 0.848595 0.432438 0.304769 -0.468635 0.660357 0.586779 
-0.586254 0.625848 0.514413 -0.715233 0.694606 0.0772246 0.649256 0.277799 0.708022 
0.676528 0.255997 0.69049 0.735539 0.302656 0.60612 -0.735849 0.494626 0.462462 
0.700433 0.208831 0.682483 -0.884051 0.309359 0.350359 -0.907786 0.25861 0.33022 
-0.914469 0.296048 0.275866 0.743542 0.146536 0.652435 -0.971285 0.0211193 0.236982 
0.825985 0.0399805 0.562272 -0.97298 -0.210441 0.0949962 -0.968361 -0.232543 0.0905573 
-0.971101 -0.238129 0.0160584 0.860766 -0.151647 0.485885 -0.858862 -0.512103 0.0103172 
-0.733194 -0.675833 -0.0753491 0.817759 -0.426155 0.386862 0.790551 -0.495584 0.359758 
-0.697236 -0.710348 -0.0962683 -0.563945 -0.811068 -0.155352 0.635682 -0.733803 0.239671 
0.572493 -0.787685 0.227606 0.434498 -0.891516 0.128105 -0.253448 -0.95212 -0.17097 
-0.321873 -0.92723 -0.191421 -0.479086 -0.861077 -0.170361 -0.419981 -0.890341 -0.175811 
-0.39979 -0.843278 -0.359236 0.374461 -0.922825 0.0904036 0.284536 -0.957946 0.0371373 
0.127095 -0.990846 -0.045499 -0.0514328 -0.994616 -0.0899605 -0.163789 -0.973874 -0.157297 
-0.21679 -0.855336 -0.470535 -0.250383 -0.953578 -0.167325 -0.238266 -0.957464 -0.162761 
-0.240094 -0.926238 -0.290582 0.485743 0.833681 0.262734 0.28862 0.919998 0.265145 
0.107543 0.959569 0.26012 -0.0325055 0.964077 0.263625 -0.00322333 0.99863 -0.0522263 
-0.142683 0.943544 0.298942 -0.214933 0.926677 0.30834 -0.293536 0.909742 0.293608 
0.550031 0.791205 0.267322 0.691735 0.671144 0.266588 -0.346208 0.898772 0.268979 
-0.347911 0.898376 0.268102 -0.382718 0.912012 0.147513 -0.483471 0.852167 0.20017 
0.756269 0.601552 0.25728 0.852833 0.448233 0.267888 -0.553943 0.817512 0.157547 
-0.567035 0.811012 0.143981 -0.720933 0.691902 0.0390872 0.858952 0.435014 0.270119 
-0.726753 0.685928 0.03651 -0.732948 0.680142 -0.0139205 0.908307 0.317079 0.272837 
-0.89207 0.448387 -0.05621 -0.949171 0.295852 -0.107454 0.939052 0.224594 0.260268 
-0.970247 0.188739 -0.151655 -0.949179 0.148173 -0.277675 0.96644 0.0982887 0.237344 
-0.953151 -0.126401 -0.27482 -0.910397 -0.253867 -0.326694 -0.915576 -0.142399 -0.376088 
0.981455 -0.0533766 0.184113 -0.855034 -0.354317 -0.37865 -0.57271 -0.395484 -0.71805 
0.964871 -0.23677 0.11386 -0.382054 -0.498859 -0.777929 -0.693916 -0.552267 -0.462041 
-0.639849 -0.59984 -0.480402 -0.614793 -0.552544 -0.562784 0.844881 -0.534704 0.0163838 
0.739777 -0.672763 -0.0109324 -0.353276 -0.746536 -0.563808 -0.295569 -0.611806 -0.733711 
-0.513217 -0.683954 -0.518473 -0.483509 -0.693686 -0.533871 -0.463844 -0.673176 -0.575918 
0.600282 -0.794548 -0.0914006 0.506475 -0.850967 -0.139063 0.396771 -0.823622 -0.40524 
0.294203 -0.922668 -0.249258 -0.219143 -0.819568 -0.529419 -0.255705 -0.654826 -0.711209 
-0.211642 -0.794517 -0.569166 -0.190966 -0.675855 -0.711865 -0.210589 -0.769795 -0.602551 
-0.186725 -0.708335 -0.680731 -0.28533 -0.770239 -0.570367 -0.256487 -0.773521 -0.579552 
-0.249397 -0.755223 -0.606167 0.20607 -0.927242 -0.312663 0.182425 -0.926987 -0.327743 
0.175363 -0.916281 -0.360106 0.0488694 -0.912546 -0.406043 0.0272677 -0.876634 -0.480384 
-0.191026 -0.837631 -0.511745 -0.111908 -0.873397 -0.473977 -0.125977 -0.837543 -0.531649 
-0.000871165 0.997025 -0.0770712 0.505121 0.852738 -0.133005 0.297822 0.946015 -0.127896 
0.0158998 0.996694 -0.0796793 0.119269 0.988218 -0.0959213 -0.0173574 0.99687 -0.0771255 
-0.00112425 0.996359 -0.0852551 -0.124647 0.989107 -0.0782976 -0.239984 0.966169 -0.0944705 
-0.342846 0.928788 -0.140746 -0.445556 0.875941 -0.184953 0.582794 0.801853 -0.131842 
0.695856 0.707625 -0.122683 0.484979 0.775844 -0.403562 -0.346026 0.689235 -0.63657 
-0.45018 0.872526 -0.189831 -0.449956 0.866929 -0.214413 -0.520893 0.794399 -0.312411 
0.772807 0.624599 -0.112454 0.864624 0.493615 -0.0936478 -0.581648 0.735118 -0.348262 
-0.504367 0.637423 -0.5825 -0.615579 0.688536 -0.38338 0.883996 0.459091 -0.0882405 
0.852905 0.464149 -0.238997 -0.705833 0.538372 -0.460385 -0.551509 0.428818 -0.715509 
-0.721888 0.443791 -0.530968 0.945 0.316656 -0.0818772 -0.448569 0.147188 -0.881545 
-0.749569 0.345234 -0.564765 -0.672864 0.327643 -0.663252 0.972876 0.210812 -0.0952383 
-0.795151 0.0491905 -0.604414 -0.555866 0.0212755 -0.831 0.98996 0.0746797 -0.120009 
-0.347897 -0.22148 -0.910996 -0.694292 -0.213604 -0.687264 -0.569359 -0.378408 -0.72982 
-0.572151 -0.2363 -0.785369 0.983283 -0.113031 -0.142751 -0.202158 -0.365153 -0.908733 
-0.548871 -0.395982 -0.736165 -0.380683 -0.495446 -0.780778 -0.345376 -0.389128 -0.853988 
0.91446 -0.321053 -0.24635 -0.2056 -0.418362 -0.884704 -0.169943 -0.37779 -0.910161 
-0.1768 -0.417199 -0.891452 -0.376802 -0.496988 -0.781679 -0.272815 -0.543067 -0.794135 
-0.257082 -0.464028 -0.847695 0.721784 -0.59409 -0.355086 0.666606 -0.651912 -0.361451 
0.658955 -0.605401 -0.446395 0.366796 -0.806977 -0.46287 -0.161751 -0.415838 -0.894939 
-0.256336 -0.648777 -0.716505 -0.214474 -0.491785 -0.843889 -0.191261 -0.613775 -0.765964 
-0.198997 -0.531506 -0.823348 -0.178865 -0.592663 -0.785339 -0.177052 -0.533678 -0.826946 
-0.229839 -0.565924 -0.791773 -0.225443 -0.567973 -0.79157 -0.225019 -0.562689 -0.795455 
0.33217 -0.813686 -0.477051 0.222262 -0.821296 -0.525425 0.191171 -0.773216 -0.604641 
0.0949612 -0.787099 -0.609473 0.0375856 -0.680481 -0.731801 -0.033984 -0.742187 -0.66933 
-0.0613369 -0.625571 -0.777752 -0.253072 -0.653358 -0.713497 -0.186743 -0.701591 -0.687675 
-0.19197 -0.627226 -0.754808 0.313266 0.802739 -0.507419 0.14871 0.857796 -0.492008 
-0.0185172 0.865583 -0.500423 -0.157274 0.821864 -0.547544 -0.269645 0.766548 -0.582835 
0.635226 0.60919 -0.474737 0.437954 0.74847 -0.497985 0.467636 0.729824 -0.498671 
0.301842 0.675906 -0.672341 0.099977 0.58419 -0.805435 -0.0702111 0.565576 -0.821702 
-0.145089 0.562114 -0.814234 -0.339671 0.677839 -0.652042 -0.265896 0.594134 -0.759147 
-0.342712 0.669162 -0.659371 -0.406391 0.531233 -0.743396 0.646094 0.599352 -0.472589 
0.629797 0.594943 -0.499399 0.359607 0.466169 -0.808313 -0.181546 0.20259 -0.962288 
-0.217288 0.21732 -0.951608 -0.281087 0.324457 -0.903171 -0.413317 0.49089 -0.766939 
-0.367525 0.437423 -0.820723 -0.413722 0.407418 -0.814153 0.768172 0.456313 -0.449099 
0.804128 0.397694 -0.441834 0.478024 0.360717 -0.800859 -0.154117 0.0544174 -0.986553 
-0.186283 0.144386 -0.971829 -0.258652 0.209947 -0.942879 -0.432587 0.334926 -0.837074 
-0.366507 0.292467 -0.883253 0.837158 0.304134 -0.454609 0.756193 0.287784 -0.587667 
-0.0840836 -0.00225357 -0.996456 -0.126318 0.0271337 -0.991619 -0.207705 0.017846 -0.978029 
-0.446101 0.145938 -0.883004 -0.296262 0.0802174 -0.951732 -0.443647 0.132123 -0.886409 
0.867325 0.173288 -0.466604 0.657177 0.134764 -0.741591 -0.0659046 -0.0699973 -0.995368 
-0.0299589 -0.112195 -0.993234 -0.0359794 -0.0394526 -0.998573 -0.16514 -0.130428 -0.977608 
-0.21103 -0.156796 -0.964822 -0.229945 -0.09957 -0.968097 -0.393836 -0.0476769 -0.917943 
-0.368928 -0.115325 -0.922276 -0.378502 -0.056424 -0.923879 0.861687 0.0307639 -0.506507 
0.610797 -0.0276507 -0.791305 -0.0623888 -0.0466294 -0.996962 -0.104295 -0.0221021 -0.994301 
-0.0880136 -0.103459 -0.990732 -0.101977 -0.199342 -0.974609 -0.246836 -0.313409 -0.916977 
-0.164855 -0.271494 -0.948216 -0.288515 -0.237452 -0.927564 -0.199157 -0.312743 -0.928724 
-0.199828 -0.259996 -0.944707 0.810764 -0.182553 -0.55618 0.580073 -0.221446 -0.783886 
-0.0532463 -0.237762 -0.969863 -0.119711 -0.298016 -0.947025 -0.201027 -0.260781 -0.944236 
-0.206447 -0.417957 -0.884698 -0.239552 -0.387143 -0.890357 -0.186942 -0.353834 -0.916436 
-0.203602 -0.351545 -0.913763 -0.144566 -0.32233 -0.935524 -0.142567 -0.322253 -0.935857 
-0.142007 -0.320194 -0.936648 0.644553 -0.403631 -0.649333 0.586693 -0.459826 -0.666596 
0.573128 -0.409763 -0.709661 0.242179 -0.406559 -0.880942 -0.0100826 -0.391557 -0.920099 
-0.140474 -0.376008 -0.915906 -0.135264 -0.37111 -0.918684 -0.157328 -0.412027 -0.897486 
-0.121978 -0.42637 -0.896287 -0.204379 -0.417936 -0.885189 -0.186213 -0.437065 -0.879943 
-0.168365 -0.408957 -0.896888 0.340272 -0.601636 -0.722668 0.284689 -0.622369 -0.729115 
0.278004 -0.597687 -0.751987 0.0733473 -0.610285 -0.788779 0.0420695 -0.546834 -0.836183 
-0.0320836 -0.531003 -0.846762 -0.0555138 -0.481767 -0.874539 -0.147264 -0.416963 -0.896914 
-0.0997195 -0.460435 -0.882075 -0.111174 -0.425109 -0.898289 0.158799 0.371796 -0.914631 
0.0591993 0.371886 -0.926389 -0.080398 0.338311 -0.937594 0.20423 0.372016 -0.90548 
0.286481 0.331983 -0.89873 0.137677 0.332502 -0.932999 0.0397538 0.234097 -0.9714 
-0.175267 0.203659 -0.963226 -0.0748608 0.2206 -0.972487 -0.178653 0.174861 -0.968249 
0.331998 0.263847 -0.905628 0.37127 0.215028 -0.903284 0.220009 0.192355 -0.956345 
0.0717359 0.095226 -0.992868 -0.0347301 0.0219022 -0.999157 -0.117113 -0.00866152 -0.993081 
-0.155517 0.0247071 -0.987524 -0.156757 0.00329054 -0.987632 0.379567 0.186541 -0.906163 
0.345731 0.180768 -0.920757 0.0943791 0.090391 -0.991424 -0.0321216 -0.0683441 -0.997145 
-0.0638835 -0.147885 -0.986939 -0.071899 -0.0818626 -0.994047 -0.096016 -0.128589 -0.987039 
-0.117542 -0.0897339 -0.989005 -0.116858 -0.0915763 -0.988918 -0.118144 -0.091279 -0.988792 
0.42289 0.0883263 -0.901866 0.294065 0.0651752 -0.953561 -0.0318105 0.0156987 -0.999371 
-0.161645 -0.0708603 -0.984302 -0.0880581 -0.0964698 -0.991433 -0.0821879 -0.0821347 -0.993227 
-0.0941241 -0.10397 -0.990117 0.396561 -0.0678414 -0.915498 0.243279 -0.0966995 -0.965124 
-0.0422273 -0.119446 -0.991942 -0.072747 -0.0485519 -0.996168 -0.153109 -0.0643992 -0.986109 
0.212356 -0.228365 -0.950134 0.206411 -0.232279 -0.950495 0.20551 -0.228323 -0.951648 
-0.00136655 -0.28947 -0.957186 0.0053036 -0.240369 -0.970667 -0.0841321 -0.220465 -0.97176 
-0.0959773 -0.226354 -0.969305 -0.0928423 -0.21575 -0.972025 
