# vtk DataFile Version 4.2
vtk output
ASCII
DATASET POLYDATA
POINTS 534 float
-22.435 -39.6119 -15.71 -14.8396 -39.6119 -16.5508 -7.24415 -39.6119 -17.0005 
0.351285 -39.6119 -17.207 7.94672 -39.6119 -17.2106 15.5422 -39.6119 -17.0703 
23.1376 -39.6119 -14.9911 -37.6259 -32.0164 -14.6186 -30.0305 -32.0164 -18.6063 
-22.435 -32.0164 -18.9712 -14.8396 -32.0164 -19.8008 -7.24415 -32.0164 -18.8403 
0.351285 -32.0164 -18.9059 7.94672 -32.0164 -19.0791 15.5422 -32.0164 -19.8264 
23.1376 -32.0164 -18.1878 30.733 -32.0164 -16.506 -37.6259 -24.421 -18.0016 
-30.0305 -24.421 -19.5885 -22.435 -24.421 -19.9188 -14.8396 -24.421 -20.1884 
-7.24415 -24.421 -19.1127 0.351285 -24.421 -19.1034 7.94672 -24.421 -19.4185 
15.5422 -24.421 -19.8558 23.1376 -24.421 -19.1429 30.733 -24.421 -18.3183 
38.3285 -24.421 -15.9799 -45.2213 -16.8256 -16.1897 -37.6259 -16.8256 -18.865 
-30.0305 -16.8256 -19.7949 -22.435 -16.8256 -19.8266 -14.8396 -16.8256 -19.2568 
-7.24415 -16.8256 -18.9977 0.351285 -16.8256 -19.0529 7.94672 -16.8256 -19.1568 
15.5422 -16.8256 -19.0522 23.1376 -16.8256 -19.2009 30.733 -16.8256 -19.0072 
38.3285 -16.8256 -17.6514 45.9239 -16.8256 -13.6504 -45.2213 -9.23014 -17.7421 
-37.6259 -9.23014 -19.8391 -30.0305 -9.23014 -20.1352 -22.435 -9.23014 -19.4739 
-14.8396 -9.23014 -18.7193 -7.24415 -9.23014 -20.0224 0.351285 -9.23014 -20.6033 
7.94672 -9.23014 -20.4507 15.5422 -9.23014 -18.1597 23.1376 -9.23014 -18.1745 
30.733 -9.23014 -18.2433 38.3285 -9.23014 -17.209 45.9239 -9.23014 -14.0554 
-45.2213 -1.6347 -17.9999 -37.6259 -1.6347 -20.4192 -30.0305 -1.6347 -20.4008 
-22.435 -1.6347 -19.1724 -14.8396 -1.6347 -17.9822 -7.24415 -1.6347 -19.608 
0.351285 -1.6347 -16.8917 7.94672 -1.6347 -21.1708 15.5422 -1.6347 -19.6748 
23.1376 -1.6347 -18.2848 30.733 -1.6347 -17.9818 38.3285 -1.6347 -16.9483 
45.9239 -1.6347 -13.68 -45.2213 5.96073 -17.1833 -37.6259 5.96073 -20.1148 
-30.0305 5.96073 -20.2914 -22.435 5.96073 -19.166 -14.8396 5.96073 -17.2724 
-7.24415 5.96073 -18.0558 0.351285 5.96073 -18.1001 7.94672 5.96073 -19.6711 
15.5422 5.96073 -19.0981 23.1376 5.96073 -18.4081 30.733 5.96073 -17.8691 
38.3285 5.96073 -16.4473 -45.2213 13.5562 -14.8663 -37.6259 13.5562 -18.6603 
-30.0305 13.5562 -19.3477 -22.435 13.5562 -18.7517 -14.8396 13.5562 -17.4366 
-7.24415 13.5562 -17.0289 0.351285 13.5562 -18.4699 7.94672 13.5562 -17.8093 
15.5422 13.5562 -17.7817 23.1376 13.5562 -18.2431 30.733 13.5562 -17.5805 
38.3285 13.5562 -15.3513 -37.6259 21.1516 -16.4563 -30.0305 21.1516 -18.3081 
-22.435 21.1516 -18.3951 -14.8396 21.1516 -17.8845 -7.24415 21.1516 -18.2825 
0.351285 21.1516 -18.4178 7.94672 21.1516 -18.3137 15.5422 21.1516 -18.3426 
23.1376 21.1516 -17.6136 30.733 21.1516 -16.3503 -30.0305 28.747 -16.1006 
-22.435 28.747 -17.4651 -14.8396 28.747 -18.2536 -7.24415 28.747 -18.4669 
0.351285 28.747 -18.4968 7.94672 28.747 -17.8045 15.5422 28.747 -17.3943 
23.1376 28.747 -16.2045 -22.435 36.3425 -15.1472 -14.8396 36.3425 -16.7153 
-7.24415 36.3425 -17.0764 0.351285 36.3425 -16.7136 7.94672 36.3425 -15.6509 
15.5422 36.3425 -14.1607 -22.435 -41.7921 -13.619 -14.8396 -43.2839 -13.619 
-7.24415 -44.2091 -13.619 -7.24415 -47.2073 -6.46284 0.351285 -44.5087 -13.619 
0.351285 -47.2073 -6.38677 7.94672 -44.4544 -13.619 7.94672 -47.2073 -6.3041 
15.5422 -43.0609 -13.619 23.1376 -41.0181 -13.619 -37.6259 -33.4312 -13.619 
-29.1292 -39.6119 -13.619 -30.0305 -39.216 -13.619 -30.0305 -39.6119 -13.1066 
25.9133 -39.6119 -13.619 30.733 -36.0854 -13.619 30.733 -39.6119 -7.21028 
-39.0094 -32.0164 -13.619 36.1177 -32.0164 -13.619 38.3285 -29.5672 -13.619 
38.3285 -32.0164 -11.4766 -44.146 -24.421 -13.619 -45.2213 -22.8564 -13.619 
-45.2213 -24.421 -12.2613 41.7242 -24.421 -13.619 45.9239 -16.9158 -13.619 
45.9239 -24.421 -9.03165 -48.0026 -16.8256 -13.619 45.973 -16.8256 -13.619 
-49.5498 -9.23014 -13.619 -52.8168 -9.23014 -6.7201 46.5188 -9.23014 -13.619 
-50.0066 -1.6347 -13.619 -52.8168 -1.6347 -7.64202 46.011 -1.6347 -13.619 
45.9239 -1.01049 -13.619 -48.7995 5.96073 -13.619 44.5601 5.96073 -13.619 
45.9239 5.96073 -12.7472 -46.4285 13.5562 -13.619 -45.2213 15.7232 -13.619 
41.1694 13.5562 -13.619 38.3285 20.216 -13.619 45.9239 13.5562 -9.89845 
-41.2271 21.1516 -13.619 -45.2213 21.1516 -7.0458 -37.6259 25.573 -13.619 
37.7992 21.1516 -13.619 30.733 28.6721 -13.619 38.3285 21.1516 -13.3336 
-34.234 28.747 -13.619 -37.6259 28.747 -9.92662 -30.0305 32.4865 -13.619 
30.6537 28.747 -13.619 23.1376 34.2673 -13.619 30.733 28.747 -13.5842 
38.3285 28.747 -7.95817 -25.3532 36.3425 -13.619 -30.0305 36.3425 -9.28444 
-22.435 38.3392 -13.619 -14.8396 41.9781 -13.619 -7.24415 43.8197 -13.619 
0.351285 41.6717 -13.619 7.94672 39.3117 -13.619 17.8945 36.3425 -13.619 
15.5422 37.0302 -13.619 23.1376 36.3425 -12.077 30.733 36.3425 -7.31325 
-22.435 43.9379 -6.17125 -14.8396 43.9379 -11.6512 -7.24415 43.9379 -13.5204 
0.351285 43.9379 -11.6367 7.94672 43.9379 -8.52212 -7.24415 -47.3364 -6.02355 
0.351285 -47.3042 -6.02355 7.94672 -47.2826 -6.02355 -30.0305 -43.1725 -6.02355 
-22.435 -45.5608 -6.02355 -8.58732 -47.2073 -6.02355 -14.8396 -46.5982 -6.02355 
-7.24415 -47.2073 -5.57402 0.351285 -47.2073 -5.69599 8.53974 -47.2073 -6.02355 
7.94672 -47.2073 -5.75878 15.5422 -46.2781 -6.02355 23.1376 -43.9436 -6.02355 
30.733 -40.0173 -6.02355 -36.3562 -39.6119 -6.02355 -37.6259 -38.6838 -6.02355 
31.3967 -39.6119 -6.02355 30.733 -39.6119 -4.27407 38.3285 -34.9333 -6.02355 
-43.4517 -32.0164 -6.02355 -45.2213 -29.543 -6.02355 41.6699 -32.0164 -6.02355 
45.9239 -27.0385 -6.02355 -48.3973 -24.421 -6.02355 47.7679 -24.421 -6.02355 
-51.4851 -16.8256 -6.02355 -52.8168 -10.4642 -6.02355 52.1047 -16.8256 -6.02355 
-53.0644 -9.23014 -6.02355 -52.8168 -9.23014 -4.80445 52.9261 -9.23014 -6.02355 
53.5193 -9.23014 -3.3693 -53.3658 -1.6347 -6.02355 -52.8168 1.62931 -6.02355 
-52.8168 -1.6347 -3.09458 52.8952 -1.6347 -6.02355 53.5193 -1.6347 -3.61602 
-52.0792 5.96073 -6.02355 51.925 5.96073 -6.02355 -49.5464 13.5562 -6.02355 
49.0322 13.5562 -6.02355 45.9239 19.9507 -6.02355 -45.6912 21.1516 -6.02355 
-45.2213 21.845 -6.02355 45.2906 21.1516 -6.02355 45.9239 21.1516 -3.95049 
-39.9539 28.747 -6.02355 -37.6259 31.2099 -6.02355 40.0444 28.747 -6.02355 
38.3285 30.7224 -6.02355 -32.3381 36.3425 -6.02355 -30.0305 38.3861 -6.02355 
15.5422 43.5495 -6.02355 23.1376 41.238 -6.02355 32.1548 36.3425 -6.02355 
30.733 37.3315 -6.02355 -22.5618 43.9379 -6.02355 -22.435 44.016 -6.02355 
-14.8396 47.358 -6.02355 -7.24415 48.3413 -6.02355 0.351285 47.9026 -6.02355 
14.127 43.9379 -6.02355 7.94672 45.5792 -6.02355 15.5422 43.9379 -4.93716 
-30.0305 -41.6481 1.57189 -22.435 -43.999 1.57189 -14.8396 -44.7366 1.57189 
-7.24415 -45.0541 1.57189 0.351285 -44.9356 1.57189 7.94672 -45.0066 1.57189 
15.5422 -44.0478 1.57189 23.1376 -41.6105 1.57189 -33.4193 -39.6119 1.57189 
-37.6259 -36.4935 1.57189 -30.0305 -39.6119 5.3357 27.6742 -39.6119 1.57189 
23.1376 -39.6119 5.49921 30.733 -38.1693 1.57189 38.3285 -33.89 1.57189 
-41.9996 -32.0164 1.57189 -45.2213 -27.1587 1.57189 -37.6259 -32.0164 7.72528 
40.6949 -32.0164 1.57189 38.3285 -32.0164 6.26917 45.9239 -27.3076 1.57189 
-46.729 -24.421 1.57189 -45.2213 -24.421 4.16859 48.49 -24.421 1.57189 
-49.8112 -16.8256 1.57189 52.9234 -16.8256 1.57189 53.5193 -14.1729 1.57189 
-51.5151 -9.23014 1.57189 54.4779 -9.23014 1.57189 53.5193 -9.23014 5.98867 
-51.9376 -1.6347 1.57189 54.6404 -1.6347 1.57189 53.5193 5.71427 1.57189 
53.5193 -1.6347 6.60237 -51.0601 5.96073 1.57189 53.48 5.96073 1.57189 
-49.2603 13.5562 1.57189 51.0196 13.5562 1.57189 -46.0565 21.1516 1.57189 
-45.2213 22.4815 1.57189 -45.2213 21.1516 6.39502 47.3532 21.1516 1.57189 
45.9239 23.4988 1.57189 45.9239 21.1516 7.28022 -40.5962 28.747 1.57189 
-37.6259 31.872 1.57189 42.4211 28.747 1.57189 38.3285 33.503 1.57189 
-32.8186 36.3425 1.57189 -30.0305 38.7327 1.57189 23.1376 43.8058 1.57189 
35.3181 36.3425 1.57189 30.733 39.7104 1.57189 -23.3339 43.9379 1.57189 
-22.435 44.5577 1.57189 -22.435 43.9379 3.97822 -14.8396 48.4822 1.57189 
-7.24415 50.137 1.57189 0.351285 49.9401 1.57189 7.94672 48.0951 1.57189 
22.7143 43.9379 1.57189 15.5422 46.0193 1.57189 -22.435 -40.3006 9.16732 
-14.8396 -40.8702 9.16732 -7.24415 -41.0335 9.16732 0.351285 -40.6885 9.16732 
7.94672 -40.6753 9.16732 15.5422 -39.9489 9.16732 -24.3813 -39.6119 9.16732 
-30.0305 -37.1336 9.16732 -22.435 -39.6119 10.0671 -14.8396 -39.6119 11.0061 
-7.24415 -39.6119 11.067 0.351285 -39.6119 10.5735 7.94672 -39.6119 10.5055 
16.6652 -39.6119 9.16732 15.5422 -39.6119 9.59688 23.1376 -37.4474 9.16732 
30.733 -34.1878 9.16732 -36.3669 -32.0164 9.16732 -37.6259 -30.3336 9.16732 
-30.0305 -32.0164 13.6892 15.5422 -32.0164 16.3907 23.1376 -32.0164 14.8316 
35.4591 -32.0164 9.16732 30.733 -32.0164 11.7312 38.3285 -30.4257 9.16732 
45.9239 -24.4534 9.16732 -41.4802 -24.421 9.16732 -45.2213 -17.4599 9.16732 
-37.6259 -24.421 12.4383 -30.0305 -24.421 16.6009 38.3285 -24.421 14.7932 
45.955 -24.421 9.16732 45.9239 -24.421 9.20892 -45.4921 -16.8256 9.16732 
-45.2213 -16.8256 9.4622 -37.6259 -16.8256 15.1422 50.6949 -16.8256 9.16732 
45.9239 -16.8256 14.3587 -47.2721 -9.23014 9.16732 -45.2213 -9.23014 11.358 
-37.6259 -9.23014 16.7482 52.709 -9.23014 9.16732 45.9239 -9.23014 16.4731 
-48.2621 -1.6347 9.16732 -45.2213 -1.6347 12.6195 52.8346 -1.6347 9.16732 
45.9239 -1.6347 16.3115 -48.278 5.96073 9.16732 -45.2213 5.96073 13.2523 
51.5754 5.96073 9.16732 45.9239 5.96073 14.9987 -47.3325 13.5562 9.16732 
-45.2213 19.7497 9.16732 -45.2213 13.5562 12.4651 48.8597 13.5562 9.16732 
45.9239 20.0474 9.16732 45.9239 13.5562 12.6651 -44.6978 21.1516 9.16732 
45.3415 21.1516 9.16732 38.3285 21.1516 15.9726 -38.9703 28.747 9.16732 
-37.6259 30.1385 9.16732 -37.6259 28.747 11.1718 40.7932 28.747 9.16732 
38.3285 31.7703 9.16732 38.3285 28.747 12.0787 -30.3881 36.3425 9.16732 
-30.0305 36.6283 9.16732 -30.0305 36.3425 9.57998 -22.435 42.396 9.16732 
-22.435 36.3425 16.119 23.1376 42.8219 9.16732 33.7566 36.3425 9.16732 
[...]
POINT_DATA 534
SCALARS ImageScalars float
LOOKUP_TABLE default
0 0 0 0 0 0 0 0 0 
0 0 0 0 0 0 0 0 0 
0 0 0 0 0 0 0 0 0 
0 0 0 0 0 0 0 0 0 
0 0 0 0 0 0 0 0 0 
0 0 0 0 0 0 0 0 0 
0 0 0 0 0 0 0 0 0 
0 0 0 0 0 0 0 0 0 
0 0 0 0 0 0 0 0 0 
0 0 0 0 0 0 0 0 0 
0 0 0 0 0 0 0 0 0 
0 0 0 0 0 0 0 0 0 
0 0 0 0 0 0 0 0 0 
0 0 0 0 0 0 0 0 0 
0 0 0 0 0 0 0 0 0 
0 0 0 0 0 0 0 0 0 
0 0 0 0 0 0 0 0 0 
0 0 0 0 0 0 0 0 0 
0 0 0 0 0 0 0 0 0 
0 0 0 0 0 0 0 0 0 
0 0 0 0 0 0 0 0 0 
0 0 0 0 0 0 0 0 0 
0 0 0 0 0 0 0 0 0 
0 0 0 0 0 0 0 0 0 
0 0 0 0 0 0 0 0 0 
0 0 0 0 0 0 0 0 0 
0 0 0 0 0 0 0 0 0 
0 0 0 0 0 0 0 0 0 
0 0 0 0 0 0 0 0 0 
0 0 0 0 0 0 0 0 0 
0 0 0 0 0 0 0 0 0 
0 0 0 0 0 0 0 0 0 
0 0 0 0 0 0 0 0 0 
0 0 0 0 0 0 0 0 0 
0 0 0 0 0 0 0 0 0 
0 0 0 0 0 0 0 0 0 
0 0 0 0 0 0 0 0 0 
0 0 0 0 0 0 0 0 0 
0 0 0 0 0 0 0 0 0 
0 0 0 0 0 0 0 0 0 
0 0 0 0 0 0 0 0 0 
0 0 0 0 0 0 0 0 0 
0 0 0 0 0 0 0 0 0 
0 0 0 0 0 0 0 0 0 
0 0 0 0 0 0 0 0 0 
0 0 0 0 0 0 0 0 0 
0 0 0 0 0 0 0 0 0 
0 0 0 0 0 0 0 0 0 
0 0 0 0 0 0 0 0 0 
0 0 0 0 0 0 0 0 0 
0 0 0 0 0 0 0 0 0 
0 0 0 0 0 0 0 0 0 
0 0 0 0 0 0 0 0 0 
0 0 0 0 0 0 0 0 0 
0 0 0 0 0 0 0 0 0 
0 0 0 0 0 0 0 0 0 
0 0 0 0 0 0 0 0 0 
0 0 0 0 0 0 0 0 0 
0 0 0 0 0 0 0 0 0 
0 0 0 
NORMALS Normals float
0.188005 0.602733 0.775478 0.0735864 0.541821 0.837266 0.0423517 0.442994 0.895524 
0.0139901 0.429977 0.902732 -0.00677457 0.445297 0.895357 -0.130295 0.563764 0.815594 
-0.327355 0.642991 0.692388 0.516849 0.483382 0.706547 0.247244 0.343759 0.905925 
0.071343 0.232374 0.970006 -0.0109667 0.212055 0.977196 -0.0537262 0.13212 0.989777 
0.0154353 0.121032 0.992529 0.0561545 0.13956 0.98862 -0.0499771 0.129927 0.990263 
-0.193909 0.245172 0.949889 -0.346137 0.418758 0.839542 0.371702 0.245169 0.895394 
0.110571 0.0667374 0.991625 0.038246 0.0528269 0.997871 -0.0540895 -0.038459 0.997795 
-0.0702446 0.0101426 0.997478 0.0201324 0.00955536 0.999752 0.0492286 0.00497062 0.998775 
-0.0180212 -0.0514147 0.998515 -0.0974418 0.0607742 0.993384 -0.182387 0.138199 0.973466 
-0.438208 0.304434 0.84575 0.555136 0.268248 0.787317 0.22231 0.109758 0.968778 
0.0597247 0.0352325 0.997593 -0.0354093 -0.0291752 0.998947 -0.0552838 -0.0970484 0.993743 
-0.0134097 0.0561012 0.998335 0.0106102 0.0981844 0.995112 -6.70438e-05 0.0603 0.99818 
0.00298012 -0.111691 0.993739 -0.00253253 -0.063746 0.997963 -0.0883022 -0.00552985 0.996078 
-0.328485 0.0600263 0.9426 -0.543353 0.191782 0.817304 0.50121 0.108873 0.858449 
0.131149 0.100469 0.986259 -0.0252095 0.0398232 0.998889 -0.0932024 -0.0417679 0.994771 
0.0316443 -0.0840934 0.995955 0.12551 0.0425363 0.99118 0.0274449 -0.103981 0.994201 
-0.166658 0.128606 0.977592 -0.138559 0.0280855 0.989956 0.00536078 -0.0600895 0.998179 
-0.0645961 -0.0657401 0.995744 -0.253202 -0.0417898 0.96651 -0.546729 0.00182292 0.837308 
0.507294 -0.0294044 0.861271 0.128612 0.0185197 0.991522 -0.0765605 0.0103058 0.997012 
-0.162596 -0.0207264 0.986475 0.0291636 -0.0970159 0.994855 -0.0445355 -0.117505 0.992073 
0.0759307 -0.191516 0.978548 0.161572 -0.0535298 0.985408 -0.192096 0.0686444 0.978972 
-0.0987265 0.0153126 0.994997 -0.0891394 -0.0241084 0.995727 -0.25921 -0.0496883 0.964542 
-0.540855 -0.0673745 0.838413 0.564755 -0.167344 0.808114 0.167371 -0.113479 0.979341 
-0.0629383 -0.0689399 0.995633 -0.196719 -0.0273673 0.980078 -0.0816706 -0.0372758 0.995962 
0.0578358 -0.175742 0.982736 0.106982 0.0973674 0.989482 0.0607245 -0.213569 0.975039 
-0.0836592 -0.123009 0.988873 -0.0800594 -0.00261422 0.996787 -0.127449 -0.0251421 0.991526 
-0.298497 -0.0948811 0.949683 0.660994 -0.358203 0.659376 0.24518 -0.206984 0.947124 
0.00304366 -0.126395 0.991975 -0.11907 -0.050362 0.991608 -0.116267 0.0414812 0.992351 
0.0717778 0.0258926 0.997084 0.051093 0.0191269 0.998511 -0.045087 -0.08191 0.995619 
0.0283014 -0.0498109 0.998358 -0.0110579 -0.0555825 0.998393 -0.169019 -0.101446 0.980378 
-0.403769 -0.191005 0.8947 0.427341 -0.406981 0.807308 0.103982 -0.191292 0.97601 
-0.0283339 -0.0805483 0.996348 -0.00739954 0.0551792 0.998449 0.0354826 0.0951454 0.994831 
0.0020699 0.00167281 0.999996 -0.0050027 0.000442009 0.999987 -0.0485753 -0.0213161 0.998592 
-0.126973 -0.130136 0.983332 -0.260393 -0.226244 0.938621 0.333532 -0.422211 0.842908 
0.130285 -0.190147 0.973072 0.0601131 -0.0744391 0.995412 0.0173437 -0.0740117 0.997107 
-0.0430855 -0.104662 0.993574 -0.070042 -0.164214 0.983935 -0.105255 -0.233807 0.966569 
-0.214361 -0.305648 0.927701 0.332853 -0.476148 0.813936 0.104646 -0.348083 0.931605 
0.00177881 -0.296853 0.954922 -0.0885946 -0.366694 0.926114 -0.147892 -0.442135 0.884672 
-0.193528 -0.538225 0.820281 0.208777 0.717304 0.664746 0.124477 0.731866 0.669983 
0.0640162 0.736907 0.672956 0.0473065 0.998342 0.0327851 0.0124959 0.761627 0.647895 
-0.00295378 0.99995 0.00955109 -0.0751805 0.759374 0.646296 -0.0653863 0.997805 0.0104404 
-0.193356 0.75781 0.623168 -0.32937 0.712441 0.619632 0.536743 0.537378 0.650486 
0.348337 0.672982 0.652501 0.363832 0.663311 0.653946 0.37403 0.69465 0.614461 
-0.387178 0.686628 0.615333 -0.445657 0.61305 0.652349 -0.508557 0.85167 0.126604 
0.570009 0.507924 0.645835 -0.510382 0.52485 0.681207 -0.535875 0.466943 0.703422 
-0.594222 0.611304 0.522692 0.631115 0.398969 0.66522 0.651973 0.384214 0.653691 
0.710531 0.435198 0.552946 -0.5777 0.358103 0.733502 -0.545514 0.19513 0.81507 
-0.763952 0.483381 0.427458 0.726449 0.26111 0.635683 -0.545452 0.192526 0.81573 
0.757654 0.113965 0.642629 0.985581 0.121355 0.117912 -0.571538 -0.000347124 0.820576 
0.769762 -0.0421609 0.636937 0.982169 -0.0615548 0.177639 -0.544265 -0.0672464 0.836214 
-0.542858 -0.0758329 0.836394 0.769649 -0.193662 0.608387 -0.512459 -0.163095 0.843081 
-0.580134 -0.178128 0.794805 0.720528 -0.359947 0.592687 0.691291 -0.402925 0.599807 
-0.493026 -0.235974 0.837402 -0.490551 -0.312532 0.813439 -0.70258 -0.321288 0.634946 
0.592568 -0.480958 0.646176 0.812431 -0.521617 0.260523 0.534094 -0.527783 0.660446 
-0.485679 -0.321684 0.812795 -0.39995 -0.431138 0.808802 -0.506173 -0.332441 0.795784 
0.485563 -0.531889 0.693774 0.642334 -0.625684 0.442636 0.446912 -0.537795 0.714875 
-0.399216 -0.431991 0.808709 -0.273708 -0.524868 0.805976 -0.401542 -0.43355 0.806721 
-0.640027 -0.55652 0.529766 0.421508 -0.543455 0.725939 0.591439 -0.685569 0.424495 
0.373141 -0.557469 0.741616 0.205808 -0.608394 0.766485 -0.010049 -0.657109 0.753729 
-0.164056 -0.593192 0.788168 -0.185537 -0.571693 0.799214 -0.225332 -0.561274 0.796365 
-0.199379 -0.565718 0.800132 -0.304829 -0.628622 0.715482 -0.472808 -0.72377 0.502603 
0.472402 -0.838365 0.271993 0.240871 -0.739676 0.628379 -0.00947181 -0.665604 0.746245 
-0.187321 -0.719717 0.66852 -0.239679 -0.809938 0.535308 0.0458779 0.998942 0.00325477 
-0.00353189 0.999893 -0.0141617 -0.0645722 0.997882 -0.00781649 0.412451 0.904884 0.105209 
0.206043 0.974558 0.08822 0.057651 0.998302 0.00829227 0.114852 0.992532 0.0411098 
0.0442698 0.998854 -0.0181788 -0.00349057 0.999541 -0.0301044 -0.0750645 0.997153 -0.00719933 
-0.0645282 0.997704 -0.0205691 -0.20751 0.978105 0.0157879 -0.381022 0.924421 0.0163705 
-0.501409 0.86382 0.0490252 0.59028 0.799897 0.108325 0.631823 0.767433 0.10884 
-0.511239 0.858004 0.04964 -0.499748 0.865547 -0.0328845 -0.623815 0.771071 0.127692 
0.773923 0.622868 0.114365 0.815532 0.568097 0.110337 -0.686831 0.709007 0.15991 
-0.783122 0.569742 0.249227 0.884318 0.456227 0.0991931 -0.810344 0.513847 0.281609 
0.955124 0.283128 0.0870396 0.98676 0.143454 0.0756647 -0.910285 0.296123 0.289296 
0.990101 0.118304 0.0755265 0.992433 0.122042 0.0135278 -0.91602 0.0426346 0.398861 
-0.966508 0.0657511 0.248071 0.995112 -0.0635027 0.0756304 0.987243 -0.136461 0.0820354 
0.9963 -0.0517638 -0.0686136 -0.907968 -0.0541225 0.415529 -0.960425 -0.0564532 0.272758 
0.966988 -0.234288 0.100215 -0.886364 -0.221862 0.406369 0.913834 -0.377146 0.150563 
-0.828442 -0.35644 0.432011 -0.797705 -0.430509 0.42229 0.829321 -0.518604 0.208032 
0.820984 -0.530505 0.211066 -0.78924 -0.447272 0.420771 -0.830668 -0.468354 0.301057 
0.728438 -0.645293 0.230162 0.700689 -0.673901 0.234293 -0.696113 -0.574976 0.429918 
-0.664229 -0.611942 0.429334 0.651789 -0.720341 0.237232 0.628918 -0.740334 0.237417 
-0.237868 -0.869631 0.432621 -0.339374 -0.829875 0.442869 -0.511691 -0.739061 0.438134 
-0.479657 -0.758507 0.441131 0.475744 -0.839161 0.263583 0.47292 -0.840594 0.264098 
0.257965 -0.910334 0.323645 0.0353708 -0.925917 0.376068 -0.165487 -0.88641 0.432309 
-0.238688 -0.870116 0.431191 -0.252881 -0.861164 0.440963 -0.244234 -0.891432 0.381705 
0.392338 0.86692 -0.307443 0.180967 0.93069 -0.317911 0.0666826 0.935135 -0.347959 
0.012632 0.924765 -0.380329 -0.0030863 0.914975 -0.403499 -0.0549639 0.916643 -0.395909 
-0.205448 0.903248 -0.376742 -0.334071 0.873445 -0.354247 0.491012 0.810605 -0.319104 
0.630224 0.703445 -0.328607 0.405334 0.803195 -0.436557 -0.415894 0.847642 -0.329448 
-0.322742 0.832385 -0.450524 -0.458652 0.831804 -0.312635 -0.560559 0.796208 -0.227656 
0.745073 0.590556 -0.310015 0.815706 0.478442 -0.325142 0.625703 0.543891 -0.559177 
-0.605581 0.76843 -0.206851 -0.522188 0.764997 -0.376959 -0.728656 0.671884 -0.132791 
0.844098 0.425556 -0.326191 0.790185 0.426692 -0.439933 -0.790309 0.605661 -0.0926612 
0.896347 0.283332 -0.341006 -0.929822 0.361406 -0.069403 -0.961335 0.271089 -0.048441 
0.934611 0.134004 -0.329463 -0.994191 0.107167 -0.00995477 -0.964724 0.109535 -0.239396 
0.952056 -0.0298603 -0.304464 -0.998059 -0.0622792 -0.000452764 -0.973096 -0.229555 -0.019697 
-0.957792 -0.0631755 -0.280436 0.957421 -0.170036 -0.233309 -0.971742 -0.235177 -0.02021 
0.943109 -0.30542 -0.131394 -0.930054 -0.367203 -0.012672 0.876328 -0.478145 -0.0585383 
0.859912 -0.507669 -0.0531346 0.869447 -0.448635 -0.206856 -0.872005 -0.489491 0.00240831 
-0.851571 -0.524194 0.00694418 -0.83241 -0.458105 -0.311824 0.756072 -0.652772 -0.0473689 
0.711846 -0.700522 -0.0504396 -0.795162 -0.60574 0.0282324 -0.714168 -0.698794 0.0406279 
0.658942 -0.748498 -0.0744763 0.638046 -0.765139 -0.0863737 -0.37331 -0.92437 0.0786096 
-0.635179 -0.770642 0.0515627 -0.528984 -0.846358 0.0620766 0.558064 -0.825705 -0.0823163 
0.542315 -0.836516 -0.078326 0.550032 -0.818167 -0.167535 0.340293 -0.940184 -0.0159468 
0.0873737 -0.995502 0.0366356 -0.132546 -0.988731 0.0695884 -0.249042 -0.961887 0.112925 
-0.367983 -0.926383 0.0800188 -0.28532 -0.95287 0.103107 0.182555 0.809095 -0.558605 
0.0418061 0.843312 -0.535796 -0.0100654 0.824736 -0.565428 -0.0202001 0.812475 -0.582646 
-0.0412701 0.801495 -0.596576 -0.166851 0.797098 -0.580341 0.238626 0.789722 -0.565152 
0.410937 0.683743 -0.603015 0.18992 0.788063 -0.585566 0.043952 0.808847 -0.586374 
-0.0188925 0.787191 -0.61642 -0.0238456 0.785736 -0.618103 -0.0427143 0.773608 -0.632223 
-0.18641 0.795029 -0.577218 -0.165996 0.788473 -0.592246 -0.293541 0.769406 -0.567317 
-0.35917 0.762235 -0.538513 0.580267 0.524975 -0.622649 0.603631 0.490448 -0.628562 
0.426229 0.482308 -0.765316 -0.120707 0.492671 -0.861803 -0.220535 0.599209 -0.769618 
-0.434648 0.746021 -0.504512 -0.32508 0.713542 -0.620629 -0.486171 0.722064 -0.4922 
-0.649027 0.618305 -0.443242 0.639126 0.393315 -0.660925 0.724769 0.274356 -0.632011 
0.553981 0.35471 -0.753184 0.357362 0.24835 -0.900341 -0.410177 0.542979 -0.732754 
-0.649987 0.617382 -0.443121 -0.648837 0.617312 -0.444901 0.732321 0.261753 -0.628643 
0.722587 0.263058 -0.639272 0.456485 0.221523 -0.861713 -0.81339 0.375844 -0.444002 
-0.611017 0.332687 -0.718316 0.752639 0.154143 -0.640136 0.687969 0.157723 -0.708394 
0.391018 0.136302 -0.910234 -0.898827 0.112052 -0.423738 -0.531241 0.0927134 -0.842133 
0.807306 0.0543449 -0.587625 0.690922 0.0924036 -0.716999 -0.89571 -0.0625668 -0.440214 
-0.516198 -0.0788099 -0.852836 0.869051 -0.0556345 -0.491585 0.749366 0.00160918 -0.662154 
-0.861654 -0.23593 -0.449322 -0.563071 -0.192214 -0.803744 0.893507 -0.212979 -0.395328 
0.866091 -0.386515 -0.317005 0.822593 -0.165364 -0.544054 -0.81517 -0.341931 -0.467526 
-0.799102 -0.419336 -0.430805 -0.703295 -0.288935 -0.649532 0.851577 -0.428589 -0.301873 
-0.79616 -0.429268 -0.426449 -0.509733 -0.302232 -0.805499 0.701052 -0.642803 -0.308757 
0.678373 -0.666467 -0.309245 0.663782 -0.631517 -0.400724 -0.751427 -0.532943 -0.38901 
-0.709363 -0.598223 -0.372737 -0.682748 -0.48485 -0.546604 0.573917 -0.739357 -0.352093 
0.571371 -0.740197 -0.354463 0.565636 -0.736336 -0.371302 0.534058 -0.758044 -0.374367 
0.364778 -0.52404 -0.769623 -0.390055 -0.867297 -0.309278 -0.594058 -0.725963 -0.346515 
-0.524823 -0.778267 -0.344763 -0.499683 -0.69824 -0.512618 0.498576 -0.782599 -0.372775 
0.364491 -0.853365 -0.372712 0.344953 -0.705118 -0.619529 0.134534 -0.924223 -0.357369 
0.12866 -0.620236 -0.773792 -0.0922892 -0.945934 -0.310954 -0.0533765 -0.602628 -0.796235 
-0.242532 -0.925339 -0.291421 -0.208771 -0.707628 -0.675039 -0.346137 -0.889353 -0.298733 
-0.290515 -0.90817 -0.301377 -0.277301 -0.854296 -0.439638 0.218218 0.436046 -0.873066 
0.0573856 0.505416 -0.860965 -0.0198457 0.507639 -0.861341 -0.0410786 0.495605 -0.867576 
-0.0627934 0.459533 -0.885938 0.223694 0.432136 -0.873624 0.217478 0.430944 -0.87578 
0.0581438 0.436803 -0.897676 -0.0133581 0.439791 -0.898001 -0.0419657 0.450836 -0.89162 
-0.0919655 0.463926 -0.881088 -0.0620095 0.436487 -0.897571 -0.107044 0.456865 -0.883072 
-0.159336 0.466408 -0.870101 -0.242889 0.500347 -0.831058 0.347292 0.244015 -0.905453 
0.349496 0.235602 -0.906832 0.216236 0.186281 -0.958405 0.0617367 0.157766 -0.985545 
-0.0271172 0.154454 -0.987628 -0.0461973 0.164024 -0.985374 -0.0251749 0.167326 -0.98558 
-0.0223977 0.200336 -0.979471 -0.0885491 0.287967 -0.953538 -0.290171 0.479825 -0.827991 
-0.217718 0.446938 -0.867666 -0.370088 0.38983 -0.843248 0.364578 0.17046 -0.915438 
0.285683 0.125313 -0.950096 0.140884 0.054152 -0.988544 0.0319595 0.0347596 -0.998885 
-0.0141397 0.0556419 -0.998351 -0.0283346 0.0601395 -0.997788 -0.0195776 0.0974414 -0.995049 
0.0157194 0.0352698 -0.999254 0.0348506 0.0997009 -0.994407 -0.0923782 0.157392 -0.983206 
-0.446051 0.278413 -0.850603 -0.326789 0.242593 -0.913432 0.389525 0.135994 -0.91092 
0.390685 0.135694 -0.910468 0.195149 0.0968529 -0.97598 0.122925 0.012329 -0.992339 
0.0642155 0.047268 -0.996816 0.000141565 0.0716515 -0.99743 -0.00111734 -0.0374398 -0.999298 
-0.0519108 0.146429 -0.987858 -0.0212641 -0.0154646 -0.999654 0.0442968 -0.0213856 -0.998789 
-0.0551295 -0.0165692 -0.998342 -0.500201 0.0870682 -0.861521 -0.231956 0.0452693 -0.971672 
0.424452 0.107357 -0.899063 0.380314 0.109622 -0.918338 0.152232 0.117686 -0.981313 
0.0919453 0.0322227 -0.995243 0.0911869 -0.0214003 -0.995604 -0.100488 0.00110084 -0.994938 
0.0494787 -0.0353124 -0.998151 0.00016681 0.0496716 -0.998766 -0.149007 0.0148586 -0.988725 
0.0326162 -0.0532838 -0.998047 -0.0313832 -0.0635136 -0.997487 -0.467519 -0.0779339 -0.880541 
-0.217539 -0.0744798 -0.973206 0.507716 0.0655914 -0.859024 0.383181 0.0818577 -0.920039 
0.103594 0.0870877 -0.9908 -0.0159169 0.0656319 -0.997717 0.0337815 -0.0344224 -0.998836 
-0.00959716 -0.0499251 -0.998707 0.0508312 0.0560394 -0.997134 -0.00543699 -0.109749 -0.993944 
-0.12894 0.0772576 -0.988638 -0.0336951 0.0518156 -0.998088 -0.0794549 -0.0385127 -0.996094 
-0.391353 -0.123312 -0.911941 -0.254071 -0.0710293 -0.964574 0.562517 -0.0680648 -0.82398 
0.410555 -0.0530555 -0.910291 0.128467 -0.0254951 -0.991386 -0.0292676 0.0588793 -0.997836 
-0.0261844 0.0384943 -0.998916 -0.012434 0.00470091 -0.999912 -0.0163288 0.030039 -0.999415 
0.0278461 -0.092718 -0.995303 0.0126173 0.0422964 -0.999025 -0.0836383 0.0862805 -0.992754 
-0.15891 -0.00275123 -0.987289 -0.44992 -0.170086 -0.876723 -0.451953 -0.247253 -0.857091 
-0.350601 -0.132952 -0.92704 0.538955 -0.317324 -0.780278 0.510862 -0.37086 -0.775553 
0.466334 -0.298565 -0.832701 0.210323 -0.182794 -0.960391 0.0476324 -0.104113 -0.993424 
-0.020496 -0.000755172 -0.99979 -0.0187717 0.0175195 -0.99967 -0.0478148 0.0327465 -0.998319 
0.00898409 0.0253294 -0.999639 0.0502299 -0.0272878 -0.998365 -0.0717915 -0.0547866 -0.995914 
-0.453976 -0.254593 -0.853866 -0.298753 -0.0909944 -0.949983 0.414311 -0.497335 -0.762236 
0.37548 -0.513664 -0.771469 0.333998 -0.454005 -0.82603 0.324353 -0.47819 -0.816167 
0.158039 -0.29306 -0.942942 0.0948709 -0.144731 -0.984912 0.020681 -0.0738097 -0.997058 
-0.00745077 -0.0374847 -0.999269 -0.0327434 -0.0327175 -0.998928 -0.0659143 -0.157019 -0.985393 
-0.139221 -0.247595 -0.958809 -0.454253 -0.356991 -0.816217 -0.409959 -0.423474 -0.807839 
-0.372927 -0.327164 -0.868268 0.325331 -0.477255 -0.816325 0.270551 -0.484111 -0.832129 
0.226045 -0.357636 -0.906091 0.126876 -0.555277 -0.821931 0.0919435 -0.264997 -0.959856 
-0.0525725 -0.586631 -0.808146 -0.010915 -0.241091 -0.970441 -0.176665 -0.533129 -0.827383 
-0.122794 -0.328848 -0.936366 -0.181012 -0.500945 -0.846338 -0.165532 -0.399273 -0.901765 
-0.270501 -0.501873 -0.821555 -0.268812 -0.502531 -0.821707 -0.267835 -0.499711 -0.823743 

