# vtk DataFile Version 4.2
vtk output
ASCII
DATASET POLYDATA
POINTS 530 float
-35.7614 -23.702 -17.2164 -27.9828 -23.702 -17.8679 -20.2043 -23.702 -17.7275 
-12.4258 -23.702 -17.8768 -4.64726 -23.702 -17.7987 3.13127 -23.702 -17.77 
10.9098 -23.702 -18.1056 18.6883 -23.702 -17.9731 -43.5399 -15.9235 -17.0996 
-35.7614 -15.9235 -19.3723 -27.9828 -15.9235 -19.6525 -20.2043 -15.9235 -19.2149 
-12.4258 -15.9235 -19.5701 -4.64726 -15.9235 -20.6806 3.13127 -15.9235 -20.0013 
10.9098 -15.9235 -20.8897 18.6883 -15.9235 -21.1542 26.4669 -15.9235 -20.3617 
34.2454 -15.9235 -19.0039 42.0239 -15.9235 -17.0192 -43.5399 -8.14498 -19.0055 
-35.7614 -8.14498 -20.851 -27.9828 -8.14498 -20.5521 -20.2043 -8.14498 -19.8968 
-12.4258 -8.14498 -21.4987 -4.64726 -8.14498 -23.613 3.13127 -8.14498 -21.3614 
10.9098 -8.14498 -23.031 18.6883 -8.14498 -22.7739 26.4669 -8.14498 -21.3372 
34.2454 -8.14498 -20.2649 42.0239 -8.14498 -18.6604 -43.5399 -0.366452 -19.8285 
-35.7614 -0.366452 -21.4567 -27.9828 -0.366452 -21.6662 -20.2043 -0.366452 -21.0686 
-12.4258 -0.366452 -22.5412 -4.64726 -0.366452 -23.6975 3.13127 -0.366452 -21.9533 
10.9098 -0.366452 -24.5705 18.6883 -0.366452 -23.2561 26.4669 -0.366452 -21.3815 
34.2454 -0.366452 -20.3799 42.0239 -0.366452 -18.9742 -43.5399 7.41208 -19.5617 
-35.7614 7.41208 -22.0321 -27.9828 7.41208 -22.775 -20.2043 7.41208 -22.5369 
-12.4258 7.41208 -23.0039 -4.64726 7.41208 -23.0128 3.13127 7.41208 -22.3713 
10.9098 7.41208 -24.1073 18.6883 7.41208 -22.8855 26.4669 7.41208 -20.9599 
34.2454 7.41208 -19.6048 42.0239 7.41208 -18.332 -43.5399 15.1906 -18.2628 
-35.7614 15.1906 -21.9777 -27.9828 15.1906 -23.0862 -20.2043 15.1906 -23.4699 
-12.4258 15.1906 -23.4585 -4.64726 15.1906 -23.2244 3.13127 15.1906 -23.0923 
10.9098 15.1906 -23.5098 18.6883 15.1906 -22.5046 26.4669 15.1906 -20.7565 
34.2454 15.1906 -18.4894 -35.7614 22.9691 -20.4401 -27.9828 22.9691 -22.5233 
-20.2043 22.9691 -23.1413 -12.4258 22.9691 -23.2314 -4.64726 22.9691 -23.4108 
3.13127 22.9691 -23.6588 10.9098 22.9691 -23.3109 18.6883 22.9691 -22.0809 
26.4669 22.9691 -19.8336 -27.9828 30.7477 -19.387 -20.2043 30.7477 -20.5237 
-12.4258 30.7477 -21.1703 -4.64726 30.7477 -21.5973 3.13127 30.7477 -22.2244 
10.9098 30.7477 -21.6675 18.6883 30.7477 -19.7444 3.13127 38.5262 -17.0567 
-35.7614 -24.2576 -16.9474 -35.7614 -31.4806 -11.6188 -27.9828 -25.6943 -16.9474 
-27.9828 -31.4806 -13.6844 -20.2043 -25.759 -16.9474 -20.2043 -31.4806 -14.3993 
-12.4258 -25.9642 -16.9474 -12.4258 -31.4806 -14.2583 -4.64726 -25.5317 -16.9474 
-4.64726 -31.4806 -13.5427 3.13127 -25.2087 -16.9474 3.13127 -31.4806 -12.3269 
10.9098 -25.4402 -16.9474 10.9098 -31.4806 -10.9294 18.6883 -25.1068 -16.9474 
18.6883 -31.4806 -10.007 -36.6102 -23.702 -16.9474 -43.5399 -16.3474 -16.9474 
-43.5399 -23.702 -13.733 25.9156 -23.702 -16.9474 26.4669 -23.5363 -16.9474 
26.4669 -23.702 -16.8581 34.2454 -20.3579 -16.9474 34.2454 -23.702 -15.0726 
42.0239 -16.0753 -16.9474 42.0239 -23.702 -12.897 -43.7817 -15.9235 -16.9474 
-51.3184 -15.9235 -10.9554 42.2332 -15.9235 -16.9474 49.8024 -15.9235 -14.2174 
-47.1694 -8.14498 -16.9474 -51.3184 -8.14498 -13.4369 47.1233 -8.14498 -16.9474 
49.8024 -8.14498 -15.9944 57.581 -8.14498 -11.3055 -48.3119 -0.366452 -16.9474 
-51.3184 -0.366452 -14.2778 48.0963 -0.366452 -16.9474 49.8024 -0.366452 -16.3467 
57.581 -0.366452 -11.5567 -47.2507 7.41208 -16.9474 -51.3184 7.41208 -12.4129 
46.8521 7.41208 -16.9474 42.0239 11.9106 -16.9474 49.8024 7.41208 -15.7859 
57.581 7.41208 -9.61481 -45.2378 15.1906 -16.9474 -51.3184 15.1906 -9.19095 
-43.5399 19.2048 -16.9474 38.7469 15.1906 -16.9474 34.2454 20.2208 -16.9474 
42.0239 15.1906 -15.7398 49.8024 15.1906 -11.9193 -41.4788 22.9691 -16.9474 
-43.5399 22.9691 -15.054 -35.7614 28.954 -16.9474 32.5277 22.9691 -16.9474 
26.4669 28.3205 -16.9474 34.2454 22.9691 -15.8599 42.0239 22.9691 -11.1819 
-33.3044 30.7477 -16.9474 -35.7614 30.7477 -15.065 -27.9828 33.1556 -16.9474 
-20.2043 34.5573 -16.9474 -12.4258 35.4887 -16.9474 -4.64726 37.2639 -16.9474 
10.9098 37.8798 -16.9474 23.8287 30.7477 -16.9474 18.6883 34.4691 -16.9474 
26.4669 30.7477 -14.5292 -12.4258 38.5262 -9.47726 2.42841 38.5262 -16.9474 
-4.64726 38.5262 -14.4561 4.44573 38.5262 -16.9474 3.13127 38.6204 -16.9474 
10.9098 38.5262 -15.6859 -35.7614 -33.5282 -9.16885 -27.9828 -35.6937 -9.16885 
-20.2043 -36.7036 -9.16885 -20.2043 -39.2591 -1.70089 -12.4258 -36.6136 -9.16885 
-4.64726 -35.4026 -9.16885 3.13127 -33.895 -9.16885 10.9098 -32.648 -9.16885 
18.6883 -32.0331 -9.16885 -39.8315 -31.4806 -9.16885 -43.5399 -28.9941 -9.16885 
-43.5399 -31.4806 -4.29218 25.1746 -31.4806 -9.16885 26.4669 -31.3534 -9.16885 
26.4669 -31.4806 -8.91021 34.2454 -29.8212 -9.16885 34.2454 -31.4806 -5.93891 
42.0239 -27.1515 -9.16885 -48.5947 -23.702 -9.16885 -51.3184 -19.1263 -9.16885 
-51.3184 -23.702 -4.26741 48.0597 -23.702 -9.16885 49.8024 -22.4074 -9.16885 
49.8024 -23.702 -7.41397 -52.737 -15.9235 -9.16885 56.2491 -15.9235 -9.16885 
57.581 -13.2844 -9.16885 57.581 -15.9235 -7.42209 -54.5641 -8.14498 -9.16885 
59.714 -8.14498 -9.16885 -55.1569 -0.366452 -9.16885 59.9247 -0.366452 -9.16885 
-53.5113 7.41208 -9.16885 58.0378 7.41208 -9.16885 57.581 8.10061 -9.16885 
-51.3322 15.1906 -9.16885 -51.3184 15.2297 -9.16885 52.898 15.1906 -9.16885 
49.8024 18.3737 -9.16885 -48.1361 22.9691 -9.16885 -43.5399 28.9422 -9.16885 
34.2454 29.5656 -9.16885 44.458 22.9691 -9.16885 42.0239 24.7564 -9.16885 
-41.4775 30.7477 -9.16885 -35.7614 34.003 -9.16885 -27.9828 36.4312 -9.16885 
-20.2043 37.6957 -9.16885 18.6883 38.167 -9.16885 32.401 30.7477 -9.16885 
26.4669 34.0373 -9.16885 34.2454 30.7477 -3.22035 -13.2553 38.5262 -9.16885 
-12.4258 38.6249 -9.16885 -12.4258 38.5262 -7.81577 -4.64726 40.3275 -9.16885 
3.13127 41.5427 -9.16885 17.6953 38.5262 -9.16885 10.9098 40.719 -9.16885 
-20.2043 -39.3457 -1.39032 -43.5399 -32.4708 -1.39032 -35.7614 -36.4074 -1.39032 
-21.0797 -39.2591 -1.39032 -27.9828 -38.5555 -1.39032 -16.9246 -39.2591 -1.39032 
-20.2043 -39.2591 -0.812631 -12.4258 -39.1402 -1.39032 -4.64726 -37.938 -1.39032 
3.13127 -36.1606 -1.39032 10.9098 -35.0834 -1.39032 18.6883 -35.0117 -1.39032 
26.4669 -34.3929 -1.39032 34.2454 -33.3003 -1.39032 -44.8631 -31.4806 -1.39032 
-51.3184 -25.1662 -1.39032 40.5112 -31.4806 -1.39032 42.0239 -31.0022 -1.39032 
42.0239 -31.4806 5.17248 49.8024 -26.9954 -1.39032 -52.4787 -23.702 -1.39032 
53.9957 -23.702 -1.39032 57.581 -20.1943 -1.39032 -56.1905 -15.9235 -1.39032 
60.8155 -15.9235 -1.39032 -57.8978 -8.14498 -1.39032 -59.097 -8.14498 4.41871 
63.7679 -8.14498 -1.39032 -58.3083 -0.366452 -1.39032 -59.097 -0.366452 1.62244 
63.8391 -0.366452 -1.39032 -56.5205 7.41208 -1.39032 62.4303 7.41208 -1.39032 
57.581 15.1582 -1.39032 -53.9978 15.1906 -1.39032 -51.3184 21.0515 -1.39032 
57.5584 15.1906 -1.39032 49.8024 22.6511 -1.39032 -50.2719 22.9691 -1.39032 
-43.5399 30.135 -1.39032 49.375 22.9691 -1.39032 42.0239 27.6312 -1.39032 
-42.7022 30.7477 -1.39032 -35.7614 34.8231 -1.39032 -27.9828 36.3642 -1.39032 
-20.2043 36.9735 -1.39032 -12.4258 38.0651 -1.39032 18.6883 36.8151 -1.39032 
26.4669 34.0997 -1.39032 34.9376 30.7477 -1.39032 34.2454 31.0295 -1.39032 
34.2454 30.7477 0.991951 -10.5959 38.5262 -1.39032 -4.64726 40.0085 -1.39032 
-4.64726 38.5262 5.98707 3.13127 40.8925 -1.39032 13.6637 38.5262 -1.39032 
10.9098 39.456 -1.39032 10.9098 38.5262 1.25218 -43.5399 -31.9021 6.38821 
-35.7614 -35.7349 6.38821 -27.9828 -37.3001 6.38821 -20.2043 -38.0723 6.38821 
-12.4258 -38.0514 6.38821 -4.64726 -37.0455 6.38821 3.13127 -35.355 6.38821 
10.9098 -34.6013 6.38821 18.6883 -34.8992 6.38821 26.4669 -34.7207 6.38821 
34.2454 -33.7654 6.38821 42.0239 -31.5698 6.38821 -44.1684 -31.4806 6.38821 
-51.3184 -25.7643 6.38821 -43.5399 -31.4806 7.50784 -35.7614 -31.4806 13.3661 
-4.64726 -31.4806 13.9256 3.13127 -31.4806 12.3442 10.9098 -31.4806 11.2755 
18.6883 -31.4806 11.9039 26.4669 -31.4806 12.4871 34.2454 -31.4806 11.597 
42.2045 -31.4806 6.38821 42.0239 -31.4806 6.56598 49.8024 -27.4338 6.38821 
-53.2128 -23.702 6.38821 -51.3184 -23.702 10.4359 54.3011 -23.702 6.38821 
49.8024 -23.702 12.019 57.581 -20.0523 6.38821 -57.684 -15.9235 6.38821 
-59.097 -10.0124 6.38821 60.4864 -15.9235 6.38821 57.581 -15.9235 10.6805 
-59.4988 -8.14498 6.38821 -59.097 -8.14498 7.95424 63.6548 -8.14498 6.38821 
-60.3124 -0.366452 6.38821 -59.097 3.8257 6.38821 -59.097 -0.366452 10.3515 
63.5846 -0.366452 6.38821 -58.0309 7.41208 6.38821 62.135 7.41208 6.38821 
57.581 14.8402 6.38821 57.581 7.41208 12.6164 -54.6475 15.1906 6.38821 
-51.3184 20.722 6.38821 -51.3184 15.1906 13.3069 57.3502 15.1906 6.38821 
49.8024 22.6087 6.38821 -49.5727 22.9691 6.38821 -43.5399 28.8259 6.38821 
-43.5399 22.9691 13.9782 34.2454 30.1495 6.38821 49.2919 22.9691 6.38821 
42.0239 27.264 6.38821 -39.8296 30.7477 6.38821 -35.7614 32.4768 6.38821 
-35.7614 30.7477 9.05261 -27.9828 34.0079 6.38821 -27.9828 30.7477 11.7586 
-20.2043 34.6922 6.38821 -20.2043 30.7477 12.7569 -12.4258 36.1477 6.38821 
-4.64726 38.4348 6.38821 10.9098 36.615 6.38821 18.6883 34.0441 6.38821 
18.6883 30.7477 11.8975 32.1844 30.7477 6.38821 26.4669 32.3892 6.38821 
26.4669 30.7477 9.79704 -2.876 38.5262 6.38821 4.21141 38.5262 6.38821 
3.13127 38.8188 6.38821 3.13127 38.5262 6.98895 -27.9828 -31.8668 14.1667 
-20.2043 -32.2847 14.1667 -12.4258 -31.8801 14.1667 -43.5399 -28.2223 14.1667 
-31.1647 -31.4806 14.1667 -35.7614 -30.8223 14.1667 -27.9828 -31.4806 14.5339 
-20.2043 -31.4806 14.8177 -7.66013 -31.4806 14.1667 -12.4258 -31.4806 14.4673 
-4.64726 -31.1413 14.1667 3.13127 -29.2962 14.1667 10.9098 -27.6926 14.1667 
18.6883 -29.0383 14.1667 26.4669 -29.9221 14.1667 34.2454 -29.7049 14.1667 
42.0239 -27.2124 14.1667 -48.8731 -23.702 14.1667 -51.3184 -21.1137 14.1667 
-43.5399 -23.702 17.8234 -35.7614 -23.702 19.361 -27.9828 -23.702 19.548 
-20.2043 -23.702 18.3007 -12.4258 -23.702 18.0841 -4.64726 -23.702 17.9965 
3.13127 -23.702 17.2215 10.9098 -23.702 16.2342 18.6883 -23.702 17.2201 
[...]
POINT_DATA 530
SCALARS ImageScalars float
LOOKUP_TABLE default
0 0 0 0 0 0 0 0 0 
0 0 0 0 0 0 0 0 0 
0 0 0 0 0 0 0 0 0 
0 0 0 0 0 0 0 0 0 
0 0 0 0 0 0 0 0 0 
0 0 0 0 0 0 0 0 0 
0 0 0 0 0 0 0 0 0 
0 0 0 0 0 0 0 0 0 
0 0 0 0 0 0 0 0 0 
0 0 0 0 0 0 0 0 0 
0 0 0 0 0 0 0 0 0 
0 0 0 0 0 0 0 0 0 
0 0 0 0 0 0 0 0 0 
0 0 0 0 0 0 0 0 0 
0 0 0 0 0 0 0 0 0 
0 0 0 0 0 0 0 0 0 
0 0 0 0 0 0 0 0 0 
0 0 0 0 0 0 0 0 0 
0 0 0 0 0 0 0 0 0 
0 0 0 0 0 0 0 0 0 
0 0 0 0 0 0 0 0 0 
0 0 0 0 0 0 0 0 0 
0 0 0 0 0 0 0 0 0 
0 0 0 0 0 0 0 0 0 
0 0 0 0 0 0 0 0 0 
0 0 0 0 0 0 0 0 0 
0 0 0 0 0 0 0 0 0 
0 0 0 0 0 0 0 0 0 
0 0 0 0 0 0 0 0 0 
0 0 0 0 0 0 0 0 0 
0 0 0 0 0 0 0 0 0 
0 0 0 0 0 0 0 0 0 
0 0 0 0 0 0 0 0 0 
0 0 0 0 0 0 0 0 0 
0 0 0 0 0 0 0 0 0 
0 0 0 0 0 0 0 0 0 
0 0 0 0 0 0 0 0 0 
0 0 0 0 0 0 0 0 0 
0 0 0 0 0 0 0 0 0 
0 0 0 0 0 0 0 0 0 
0 0 0 0 0 0 0 0 0 
0 0 0 0 0 0 0 0 0 
0 0 0 0 0 0 0 0 0 
0 0 0 0 0 0 0 0 0 
0 0 0 0 0 0 0 0 0 
0 0 0 0 0 0 0 0 0 
0 0 0 0 0 0 0 0 0 
0 0 0 0 0 0 0 0 0 
0 0 0 0 0 0 0 0 0 
0 0 0 0 0 0 0 0 0 
0 0 0 0 0 0 0 0 0 
0 0 0 0 0 0 0 0 0 
0 0 0 0 0 0 0 0 0 
0 0 0 0 0 0 0 0 0 
0 0 0 0 0 0 0 0 0 
0 0 0 0 0 0 0 0 0 
0 0 0 0 0 0 0 0 0 
0 0 0 0 0 0 0 0 0 
0 0 0 0 0 0 0 0 
NORMALS Normals float
0.191352 0.361976 0.912337 0.0330362 0.323328 0.94571 0.00117789 0.271415 0.962462 
0.00440719 0.29861 0.954365 -0.00659708 0.382521 0.923923 0.017796 0.387921 0.921521 
0.0122953 0.47404 0.880418 -0.0706692 0.52141 0.850375 0.413221 0.282733 0.865627 
0.139809 0.241772 0.960208 -0.0111535 0.164787 0.986266 -0.00569961 0.134392 0.990912 
0.0907734 0.211799 0.973089 0.0252718 0.353626 0.935045 0.0156612 0.21578 0.976316 
0.0723939 0.288663 0.95469 -0.0300802 0.278453 0.959979 -0.131788 0.259292 0.956765 
-0.18952 0.286124 0.939263 -0.275525 0.314765 0.9083 0.385836 0.152805 0.909825 
0.0964988 0.123891 0.987593 -0.0619993 0.127104 0.98995 0.0406525 0.120151 0.991923 
0.25433 0.195307 0.947191 -0.0371687 0.187822 0.9815 -0.0349282 0.123368 0.991746 
0.0928127 0.235927 0.967329 -0.107999 0.132919 0.985225 -0.156817 0.0604189 0.985778 
-0.164433 0.0813407 0.983029 -0.253399 0.109501 0.961144 0.373163 0.0371255 0.927023 
0.11745 0.076706 0.990112 -0.0257258 0.14225 0.989496 0.0448758 0.166535 0.985014 
0.179267 0.0899259 0.979682 -0.0453443 -0.0395021 0.99819 0.061585 0.0673873 0.995824 
0.0813866 0.0644316 0.994598 -0.206344 0.0075028 0.978451 -0.178999 -0.0236762 0.983564 
-0.151123 -0.0411854 0.987657 -0.241008 -0.0221525 0.97027 0.459505 -0.0912176 0.883479 
0.200272 0.0336339 0.979163 0.0304001 0.0907525 0.995409 0.0143225 0.157798 0.987368 
0.0295417 0.0558903 0.998 -0.0408072 -0.0276059 0.998786 0.0722394 0.0731682 0.9947 
0.0353417 -0.067251 0.99711 -0.205725 -0.0482552 0.977419 -0.20168 -0.0395787 0.978651 
-0.167303 -0.113601 0.979339 -0.223135 -0.178791 0.958251 0.564591 -0.209229 0.798411 
0.276034 -0.0865641 0.957242 0.0938401 -0.013532 0.995495 0.0237256 0.036675 0.999046 
-0.0157604 0.0134663 0.999785 -0.0235319 0.0249629 0.999411 0.0183093 0.0815179 0.996504 
-0.0360488 -0.0508609 0.998055 -0.178937 -0.0508869 0.982544 -0.241973 -0.0683229 0.967874 
-0.292802 -0.207856 0.933307 0.358557 -0.333347 0.871961 0.158776 -0.203471 0.966121 
0.0434794 -0.171349 0.984251 0.0167062 -0.125333 0.991974 0.0279459 -0.0952823 0.995058 
-0.00652538 -0.0534752 0.998548 -0.099675 -0.111501 0.988753 -0.217755 -0.157707 0.963178 
-0.361831 -0.28164 0.888683 0.257642 -0.60111 0.756497 0.100093 -0.558586 0.823385 
0.0659243 -0.48799 0.870356 0.0668396 -0.407021 0.91097 0.00326382 -0.348109 0.937448 
-0.147441 -0.350282 0.924967 -0.359982 -0.467765 0.807223 0.0290951 -0.802343 0.596154 
0.196438 0.379936 0.903914 0.306863 0.720393 0.621989 0.0462648 0.383782 0.922264 
0.128997 0.640134 0.757356 0.0071848 0.3317 0.943358 0.0285201 0.568152 0.822429 
-0.00732099 0.366093 0.93055 -0.0439279 0.586199 0.808975 -0.0216373 0.42519 0.904845 
-0.0957455 0.655606 0.749008 -4.78998e-05 0.44224 0.896897 -0.118925 0.765329 0.632557 
-0.00649092 0.540037 0.841616 -0.0978972 0.842891 0.529104 -0.076717 0.574037 0.815228 
-0.0774294 0.854653 0.513394 0.217369 0.370636 0.902984 0.415696 0.291934 0.861378 
0.495184 0.477014 0.72612 -0.147067 0.534312 0.832395 -0.152593 0.529102 0.834725 
-0.15274 0.535972 0.830304 -0.199747 0.429286 0.880804 -0.19978 0.563173 0.801825 
-0.276394 0.319851 0.906257 -0.331145 0.61758 0.713399 0.42145 0.283379 0.861438 
0.746314 0.290326 0.598938 -0.279604 0.316095 0.90659 -0.453019 0.384051 0.804537 
0.53018 0.157641 0.833102 0.724983 0.142687 0.673825 -0.34862 0.114064 0.930297 
-0.408262 0.116642 0.905382 -0.668378 0.177892 0.722237 0.578472 -0.00375546 0.815694 
0.730891 -0.0356539 0.681562 -0.367942 -0.00311218 0.929843 -0.409512 -0.0061154 0.912284 
-0.677983 -0.0783896 0.730886 0.610523 -0.13121 0.781054 0.797131 -0.191561 0.572614 
-0.354745 -0.212258 0.910551 -0.301541 -0.29318 0.907258 -0.451389 -0.235074 0.860807 
-0.686113 -0.35417 0.635462 0.619864 -0.226315 0.751366 0.858503 -0.280542 0.429266 
0.601451 -0.320304 0.731889 -0.338498 -0.302107 0.891151 -0.397357 -0.336025 0.853929 
-0.370115 -0.380505 0.847485 -0.534545 -0.494449 0.685406 0.561963 -0.4049 0.721286 
0.652344 -0.436271 0.61977 0.443139 -0.574691 0.688011 -0.427459 -0.382773 0.819001 
-0.450305 -0.514138 0.729992 -0.450028 -0.433808 0.780568 -0.50076 -0.630883 0.592643 
0.398018 -0.639207 0.658025 0.453024 -0.687916 0.567045 0.260095 -0.737332 0.623452 
0.126546 -0.776431 0.617367 0.134934 -0.787203 0.601751 0.156226 -0.781113 0.60453 
-0.191463 -0.796873 0.573005 -0.449879 -0.575102 0.683276 -0.399954 -0.668654 0.626848 
-0.483312 -0.676491 0.555671 0.166429 -0.976695 0.135527 0.0408965 -0.806941 0.589215 
0.174486 -0.88593 0.429748 -0.00711505 -0.810183 0.586135 0.028909 -0.806568 0.590434 
-0.19741 -0.859387 0.471681 0.328971 0.796657 0.507066 0.167994 0.830962 0.530359 
0.0502729 0.848783 0.526345 0.0366459 0.996166 0.0794357 -0.0735335 0.844832 0.529954 
-0.157929 0.840886 0.517658 -0.160068 0.867134 0.471653 -0.107523 0.885119 0.452773 
-0.0736684 0.87178 0.484327 0.437462 0.74382 0.50533 0.54802 0.662965 0.510051 
0.562326 0.787533 0.252154 -0.107921 0.848038 0.51883 -0.115228 0.841877 0.527224 
-0.114623 0.8499 0.514326 -0.222144 0.805705 0.549083 -0.222511 0.893092 0.390992 
-0.32172 0.75589 0.570199 0.678993 0.520497 0.517737 0.761653 0.385659 0.520722 
0.778198 0.547504 0.307647 -0.487428 0.642124 0.591685 -0.525692 0.600994 0.602041 
-0.539994 0.667803 0.512295 0.795372 0.293079 0.530554 -0.635719 0.453822 0.624425 
-0.67986 0.366348 0.635279 -0.702204 0.475202 0.530182 0.84257 0.133283 0.521835 
-0.753809 0.168702 0.635068 0.864597 -0.0603298 0.49883 -0.768033 -0.076375 0.63584 
0.857259 -0.214099 0.468261 -0.698694 -0.35576 0.620694 -0.69282 -0.370592 0.618597 
0.858795 -0.280772 0.42853 0.858685 -0.281688 0.428149 -0.627122 -0.509214 0.589423 
-0.568574 -0.593417 0.569719 0.797875 -0.480985 0.363385 0.674225 -0.668913 0.313013 
-0.491045 -0.790912 0.365149 -0.522991 -0.677577 0.517079 -0.507506 -0.704582 0.495986 
0.597788 -0.748503 0.28704 0.408234 -0.875623 0.258126 0.211937 -0.963377 0.164281 
0.13636 -0.983452 0.119284 -0.388703 -0.918301 0.0750588 -0.484492 -0.814139 0.320071 
-0.472307 -0.853643 0.219588 -0.406621 -0.90943 0.0871531 0.162804 -0.979364 0.119757 
0.166511 -0.978668 0.120342 0.171352 -0.982339 0.0751601 0.186064 -0.972626 0.139211 
0.0260315 -0.991945 0.123963 -0.364192 -0.928665 0.0703204 -0.209495 -0.974914 0.0752001 
0.0359931 0.997285 0.0642432 0.554172 0.82425 0.116215 0.355639 0.928385 0.107805 
0.0518727 0.996529 0.0651135 0.180444 0.980629 0.076207 -0.0167904 0.997612 0.0669879 
0.0370897 0.998675 0.0356787 -0.0892283 0.993476 0.0710252 -0.193042 0.977383 0.086351 
-0.183046 0.979753 0.0810997 -0.0728718 0.990974 0.112518 -0.0442964 0.985028 0.166607 
-0.106737 0.976183 0.188877 -0.199767 0.955856 0.215483 0.593859 0.794727 0.125463 
0.783251 0.589407 0.197781 -0.33831 0.910502 0.237764 -0.371932 0.895847 0.243158 
-0.371108 0.919842 -0.127155 -0.539362 0.815126 0.211325 0.807697 0.551682 0.208022 
-0.617746 0.752428 0.228566 -0.736949 0.640303 0.216605 0.90588 0.319648 0.277859 
-0.867258 0.463685 0.181273 0.947799 0.125647 0.293069 0.987214 0.150258 0.053209 
-0.959409 0.18877 0.209522 0.94536 -0.0869718 0.314212 0.97797 -0.0915696 0.187589 
-0.978876 -0.0678228 0.19288 0.930931 -0.253409 0.262966 -0.892196 -0.401928 0.206009 
-0.779731 -0.593182 0.200385 0.906799 -0.377939 0.186755 0.857926 -0.50362 0.101635 
-0.779096 -0.594035 0.200327 -0.628956 -0.75351 0.191407 0.82747 -0.557075 0.0704259 
0.628572 -0.777615 -0.014565 -0.620686 -0.761168 0.188075 -0.462525 -0.876872 0.13102 
0.596979 -0.801806 -0.026869 0.356173 -0.930936 -0.0806112 0.125917 -0.982012 -0.140701 
0.106529 -0.97839 -0.177213 0.189675 -0.971546 -0.141853 -0.326716 -0.916887 -0.229293 
-0.332865 -0.937345 -0.102886 -0.380715 -0.924362 0.0247176 -0.375288 -0.926774 0.0157598 
-0.353799 -0.933704 -0.054977 0.188944 -0.972712 -0.134656 0.180106 -0.976829 -0.115616 
0.157818 -0.936934 -0.311845 -0.029697 -0.985828 -0.165111 -0.284928 -0.927714 -0.24117 
-0.253896 -0.937272 -0.238867 -0.265441 -0.916986 -0.297789 0.499482 0.843971 -0.195528 
0.308166 0.906588 -0.288324 0.135604 0.926404 -0.351265 0.0458954 0.933276 -0.356215 
-0.063038 0.938535 -0.339381 -0.167558 0.932452 -0.320089 -0.153456 0.933739 -0.323394 
-0.0281871 0.949649 -0.312045 0.00773211 0.962898 -0.269756 -0.0716387 0.976568 -0.202937 
-0.184981 0.967644 -0.171602 -0.365382 0.910356 -0.194286 0.518481 0.833216 -0.192169 
0.728743 0.667335 -0.153616 0.490984 0.836058 -0.244832 0.178754 0.751856 -0.634633 
-0.0940391 0.610824 -0.786162 -0.118741 0.726667 -0.676651 -0.0192285 0.770094 -0.63764 
0.04683 0.768608 -0.638003 -0.0016553 0.797844 -0.602861 -0.180171 0.855177 -0.486015 
-0.369399 0.909065 -0.192732 -0.364433 0.908495 -0.204513 -0.555484 0.810869 -0.184196 
0.775927 0.617469 -0.129109 0.694639 0.637695 -0.332899 -0.663407 0.718004 -0.210623 
-0.538213 0.621952 -0.568773 -0.765153 0.594778 -0.246538 0.939072 0.338884 -0.0574593 
0.97993 0.196951 -0.0307928 -0.842091 0.458325 -0.284291 -0.756093 0.412318 -0.508249 
0.986939 0.158768 -0.0272844 0.981128 0.157126 -0.112691 -0.944645 0.191704 -0.266263 
0.995159 -0.0938128 -0.0292993 0.974554 -0.220926 -0.0378993 0.955127 -0.10616 -0.276517 
-0.952564 -0.0803107 -0.293551 0.945078 -0.322189 -0.0549736 -0.872162 -0.390261 -0.295009 
-0.781222 -0.560382 -0.27507 -0.705451 -0.341518 -0.621051 0.869295 -0.473118 -0.143129 
0.791027 -0.581732 -0.18938 0.687202 -0.478035 -0.547026 -0.775428 -0.569149 -0.273459 
-0.611567 -0.753798 -0.240361 0.729644 -0.644697 -0.228003 0.539119 -0.784794 -0.305694 
0.424881 -0.600148 -0.677716 -0.294272 -0.92777 -0.22945 -0.599368 -0.764143 -0.238418 
-0.415007 -0.877673 -0.239707 0.412936 -0.837669 -0.357482 0.281814 -0.870393 -0.40373 
0.270132 -0.81968 -0.505126 0.122661 -0.905464 -0.406313 0.135588 -0.78616 -0.602966 
0.122136 -0.909434 -0.397509 0.097067 -0.736675 -0.669244 0.220623 -0.907594 -0.357209 
0.15666 -0.932955 -0.324118 -0.282417 -0.864305 -0.416194 -0.250439 -0.877135 -0.409774 
-0.187367 -0.786633 -0.588304 -0.273429 -0.928528 -0.251142 -0.221361 -0.920062 -0.323241 
-0.183832 -0.866713 -0.463696 0.0967361 -0.937908 -0.333124 -0.128105 -0.921627 -0.366324 
-0.101489 -0.927972 -0.358563 -0.104726 -0.918997 -0.380102 0.0668272 0.682547 -0.72778 
0.00332376 0.609502 -0.792778 -0.0478526 0.5729 -0.818227 0.393054 0.709833 -0.584505 
0.103513 0.69995 -0.706651 0.15663 0.718442 -0.677723 0.062124 0.670577 -0.739235 
-0.00523262 0.576704 -0.816936 -0.0750296 0.585339 -0.807309 -0.048118 0.556269 -0.829608 
-0.0898726 0.591804 -0.801056 -0.110086 0.589828 -0.79999 -0.00469339 0.519468 -0.854477 
0.0740931 0.588801 -0.804875 0.0249529 0.674419 -0.737927 -0.138375 0.712469 -0.687925 
-0.300578 0.67397 -0.674846 0.559037 0.621309 -0.549048 0.655398 0.543182 -0.524793 
0.318067 0.548141 -0.773547 0.0908714 0.503024 -0.859482 -0.065989 0.405122 -0.911878 
-0.0848551 0.313497 -0.94579 -0.0185852 0.256973 -0.96624 -0.0508175 0.366044 -0.929209 
-0.103843 0.405122 -0.908346 0.00226454 0.362897 -0.931827 0.104794 0.375232 -0.920988 
0.0466064 0.39657 -0.916821 -0.0574409 0.443934 -0.894217 -0.448815 0.562917 -0.694038 
-0.276424 0.511255 -0.813762 -0.498154 0.499024 -0.709096 0.776333 0.367297 -0.51225 
0.604464 0.368691 -0.70618 0.271242 0.27378 -0.922752 -0.181749 0.159652 -0.970298 
-0.187855 0.145213 -0.971403 0.0199844 0.0879494 -0.995924 0.100294 0.256938 -0.96121 
-0.130985 0.375203 -0.917641 -0.054397 0.338723 -0.939312 0.129261 0.253269 -0.958721 
0.0974897 0.203214 -0.974269 -0.0582151 0.219223 -0.973936 -0.216449 0.226242 -0.949718 
-0.609824 0.345234 -0.713392 -0.410112 0.32193 -0.853328 -0.649706 0.180779 -0.738378 
0.851093 0.14331 -0.505076 0.52245 0.149336 -0.839491 -0.17769 0.0290624 -0.983657 
0.0907732 0.106559 -0.990154 -0.0402013 0.206185 -0.977687 0.0270943 0.0990265 -0.994716 
-0.0440199 0.0549457 -0.997519 -0.162496 0.0959347 -0.982034 -0.336451 0.0992425 -0.936457 
-0.647466 0.162223 -0.744629 -0.638355 0.160364 -0.752852 0.838661 -0.108067 -0.533825 
0.505155 -0.119106 -0.85477 -0.0989516 -0.0417219 -0.994217 0.0719634 0.0658207 -0.995233 
0.0206664 -0.112267 -0.993463 0.15711 -0.24991 -0.955438 -0.064345 -0.0144734 -0.997823 
-0.176879 -0.0344528 -0.983629 -0.356861 -0.0534358 -0.932628 -0.66142 -0.073197 -0.746436 
-0.660945 -0.118429 -0.741031 -0.652685 -0.0722507 -0.754177 0.786038 -0.32797 -0.524004 
0.659439 -0.459435 -0.595029 0.558707 -0.346408 -0.753557 0.205375 -0.228757 -0.951573 
-0.0113001 -0.174875 -0.984526 -0.115964 -0.126409 -0.985177 -0.0421803 -0.0582942 -0.997408 
0.0288759 -0.0764187 -0.996658 -0.0713795 -0.149965 -0.986111 0.142184 -0.0861938 -0.98608 
-0.0761526 -0.0399063 -0.996297 -0.0975438 -0.0833382 -0.991736 -0.202439 -0.110504 -0.97304 
-0.617924 -0.303962 -0.725105 -0.383482 -0.229977 -0.894456 0.638871 -0.471545 -0.607856 
0.419461 -0.592563 -0.687693 0.327768 -0.384685 -0.862894 0.0503939 -0.294582 -0.954297 
-0.0479212 -0.199386 -0.978749 -0.0394609 -0.139672 -0.989411 -0.0104834 -0.147269 -0.989041 
-0.00180129 -0.09139 -0.995814 0.0784145 -0.005322 -0.996907 0.110148 -0.226989 -0.967648 
0.0458671 -0.227984 -0.972584 -0.0386106 -0.215305 -0.975783 -0.124697 -0.259032 -0.957786 
-0.31132 -0.333385 -0.889907 -0.549856 -0.451073 -0.702988 -0.526175 -0.485011 -0.698501 
-0.512595 -0.434057 -0.740839 0.41186 -0.594627 -0.6905 0.226107 -0.636272 -0.737586 
0.191006 -0.510439 -0.838432 0.116293 -0.65843 -0.743603 0.0589805 -0.419837 -0.905681 
0.0831941 -0.647077 -0.757872 0.0205696 -0.356773 -0.933964 0.0658818 -0.29001 -0.954753 
0.0754261 -0.184475 -0.979939 3.28366e-05 -0.171563 -0.985173 -0.0365605 -0.332237 -0.942487 
-0.152236 -0.703224 -0.694479 -0.0536941 -0.460783 -0.885887 -0.127748 -0.710429 -0.692077 
-0.110934 -0.526449 -0.842939 -0.232848 -0.695285 -0.679971 -0.205646 -0.562919 -0.80052 
-0.38709 -0.651553 -0.652411 -0.387053 -0.651577 -0.652409 -0.38704 -0.651538 -0.652456 
0.16223 -0.627943 -0.761163 0.170333 -0.623937 -0.762686 0.169046 -0.618493 -0.767392 
0.137389 -0.645955 -0.75091 0.129022 -0.519392 -0.84474 -0.0932225 -0.655217 -0.749667 
-0.0748165 -0.510134 -0.856834 -0.203931 -0.674081 -0.709949 -0.223226 -0.655583 -0.721374 
-0.211694 -0.632222 -0.745306 0.0497271 0.306787 -0.950478 0.180639 0.253677 -0.950272 
0.230986 0.213638 -0.949212 -0.175851 0.161447 -0.971088 0.0340776 0.219602 -0.974994 
-0.180989 0.148895 -0.972149 0.211198 0.110921 -0.971129 -0.0565454 0.18611 -0.9809 
-0.117477 0.358817 -0.925986 0.319064 0.135782 -0.937956 0.174242 0.11936 -0.977442 
-0.0461806 0.0236717 -0.998653 -0.170206 0.0211268 -0.985182 -0.168197 0.0169929 -0.985607 
0.216109 0.085084 -0.972655 0.113005 -0.0282196 -0.993194 0.228261 0.0810313 -0.970222 
0.0870202 -0.123349 -0.988541 0.00968659 0.0252483 -0.999634 -0.0955905 0.302013 -0.948499 
-0.121486 0.353571 -0.927485 -0.0830843 0.148143 -0.98547 -0.029377 0.0413095 -0.998714 
0.344947 -0.120667 -0.930834 0.180933 -0.185771 -0.965791 0.151067 -0.114878 -0.981826 
-0.013025 -0.172142 -0.984986 -0.0645898 -0.092614 -0.993605 -0.152287 -0.0721668 -0.985698 
-0.153116 -0.0886149 -0.984227 -0.163076 -0.0775164 -0.983564 0.139783 -0.164768 -0.976377 
0.0943576 0.0135346 -0.995446 -0.119348 0.0891566 -0.988841 -0.0610126 -0.00555718 -0.998122 
-0.0688183 -0.0218086 -0.997391 -0.0527993 0.0180624 -0.998442 0.18697 -0.189755 -0.963865 
0.169319 -0.216224 -0.96155 0.193832 -0.206691 -0.959014 -0.0732915 -0.0446426 -0.996311 
-0.000781984 -0.15576 -0.987795 -0.0465334 -0.0966712 -0.994228 
