# vtk DataFile Version 4.2
vtk output
ASCII
DATASET POLYDATA
POINTS 532 float
-17.1851 -47.1567 -12.0416 -9.26838 -47.1567 -12.8289 -1.35171 -47.1567 -12.3457 
-25.1017 -39.24 -13.7426 -17.1851 -39.24 -14.4918 -9.26838 -39.24 -15.3329 
-1.35171 -39.24 -15.4818 6.56496 -39.24 -15.0966 14.4816 -39.24 -13.5631 
-33.0184 -31.3233 -12.2606 -25.1017 -31.3233 -14.4471 -17.1851 -31.3233 -15.5707 
-9.26838 -31.3233 -15.8973 -1.35171 -31.3233 -16.1424 6.56496 -31.3233 -16.5773 
14.4816 -31.3233 -16.5661 22.3983 -31.3233 -15.0919 -33.0184 -23.4067 -13.3577 
-25.1017 -23.4067 -14.975 -17.1851 -23.4067 -15.61 -9.26838 -23.4067 -15.4621 
-1.35171 -23.4067 -15.4363 6.56496 -23.4067 -16.4294 14.4816 -23.4067 -17.1487 
22.3983 -23.4067 -17.1128 30.315 -23.4067 -15.718 38.2316 -23.4067 -12.9169 
-40.9351 -15.49 -13.1608 -33.0184 -15.49 -14.5594 -25.1017 -15.49 -15.0502 
-17.1851 -15.49 -14.992 -9.26838 -15.49 -15.2389 -1.35171 -15.49 -13.6128 
6.56496 -15.49 -14.5745 14.4816 -15.49 -15.8374 22.3983 -15.49 -16.2088 
30.315 -15.49 -16.0975 38.2316 -15.49 -15.5833 46.1483 -15.49 -13.6375 
-40.9351 -7.57331 -14.1137 -33.0184 -7.57331 -15.2844 -25.1017 -7.57331 -15.3999 
-17.1851 -7.57331 -15.4238 -9.26838 -7.57331 -19.5587 -1.35171 -7.57331 -16.609 
6.56496 -7.57331 -15.7731 14.4816 -7.57331 -13.9857 22.3983 -7.57331 -15.215 
30.315 -7.57331 -16.1905 38.2316 -7.57331 -16.8743 46.1483 -7.57331 -15.5661 
-40.9351 0.343362 -14.379 -33.0184 0.343362 -15.4131 -25.1017 0.343362 -15.2785 
-17.1851 0.343362 -15.0393 -1.35171 0.343362 -13.2735 6.56496 0.343362 -18.927 
14.4816 0.343362 -13.911 22.3983 0.343362 -14.7399 30.315 0.343362 -16.16 
38.2316 0.343362 -16.7033 46.1483 0.343362 -15.4387 54.065 0.343362 -12.6008 
-40.9351 8.26003 -14.424 -33.0184 8.26003 -14.9764 -25.1017 8.26003 -14.5049 
-17.1851 8.26003 -13.1083 -9.26838 8.26003 -16.4136 -1.35171 8.26003 -17.4651 
6.56496 8.26003 -16.436 14.4816 8.26003 -14.1844 22.3983 8.26003 -14.8353 
30.315 8.26003 -15.9639 38.2316 8.26003 -16.6407 46.1483 8.26003 -15.2765 
54.065 8.26003 -12.2237 -40.9351 16.1767 -14.661 -33.0184 16.1767 -15.5502 
-25.1017 16.1767 -14.9615 -17.1851 16.1767 -14.1958 -9.26838 16.1767 -14.2093 
-1.35171 16.1767 -15.0667 6.56496 16.1767 -14.7097 14.4816 16.1767 -14.896 
22.3983 16.1767 -15.187 30.315 16.1767 -15.6441 38.2316 16.1767 -15.633 
46.1483 16.1767 -15.2542 54.065 16.1767 -12.383 -48.8517 24.0934 -12.2501 
-40.9351 24.0934 -14.3246 -33.0184 24.0934 -15.482 -25.1017 24.0934 -15.4455 
-17.1851 24.0934 -15.4814 -9.26838 24.0934 -14.4943 -1.35171 24.0934 -14.1818 
6.56496 24.0934 -14.5968 14.4816 24.0934 -15.3601 22.3983 24.0934 -15.2619 
30.315 24.0934 -15.4215 38.2316 24.0934 -14.9034 46.1483 24.0934 -12.0944 
-40.9351 32.01 -12.5827 -33.0184 32.01 -15.2649 -25.1017 32.01 -15.682 
-17.1851 32.01 -16.6701 -9.26838 32.01 -14.8824 -1.35171 32.01 -14.5169 
6.56496 32.01 -14.4789 14.4816 32.01 -15.6845 22.3983 32.01 -14.5871 
30.315 32.01 -14.1933 -33.0184 39.9267 -12.5658 -25.1017 39.9267 -14.6286 
-17.1851 39.9267 -14.0234 -9.26838 39.9267 -13.8741 -1.35171 39.9267 -13.3921 
6.56496 39.9267 -12.8586 14.4816 39.9267 -13.4979 22.3983 39.9267 -12.1349 
-25.1017 47.8434 -11.9578 -17.1851 -47.3347 -11.9174 -9.26838 -48.5818 -11.9174 
-9.26838 -55.0733 -5.51666 -1.35171 -47.7139 -11.9174 -18.3165 -47.1567 -11.9174 
-25.1017 -44.883 -11.9174 -25.1017 -47.1567 -10.9098 0.354249 -47.1567 -11.9174 
6.56496 -44.8512 -11.9174 6.56496 -47.1567 -9.91299 14.4816 -41.2174 -11.9174 
-28.394 -39.24 -11.9174 -33.0184 -32.2246 -11.9174 -33.0184 -39.24 -9.10432 
17.3476 -39.24 -11.9174 22.3983 -35.5847 -11.9174 -33.8524 -31.3233 -11.9174 
-40.9351 -31.3233 -7.94197 28.6789 -31.3233 -11.9174 30.315 -29.8864 -11.9174 
30.315 -31.3233 -9.15558 38.2316 -24.9374 -11.9174 -36.8189 -23.4067 -11.9174 
-40.9351 -19.1054 -11.9174 -40.9351 -23.4067 -9.97708 40.4879 -23.4067 -11.9174 
46.1483 -18.4695 -11.9174 46.1483 -23.4067 -7.48155 -44.1871 -15.49 -11.9174 
-48.8517 -15.49 -8.29685 49.1633 -15.49 -11.9174 54.065 -15.49 -7.56868 
-46.107 -7.57331 -11.9174 -48.8517 -7.57331 -10.3562 -9.26838 -3.828 -11.9174 
-9.26838 -7.57331 -9.68281 53.6819 -7.57331 -11.9174 54.065 -5.4995 -11.9174 
54.065 -7.57331 -11.6083 -47.9095 0.343362 -11.9174 -48.8517 0.343362 -11.5356 
-14.4955 0.343362 -11.9174 -2.72657 0.343362 -11.9174 -9.26838 5.73269 -11.9174 
-1.35171 0.343362 -5.47017 55.0243 0.343362 -11.9174 -48.1548 8.26003 -11.9174 
-48.8517 8.26003 -11.6419 54.5228 8.26003 -11.9174 -46.9219 16.1767 -11.9174 
-48.8517 21.9534 -11.9174 -48.8517 16.1767 -10.7045 54.653 16.1767 -11.9174 
54.065 17.2673 -11.9174 -49.3268 24.0934 -11.9174 -48.8517 25.0695 -11.9174 
38.2316 31.6711 -11.9174 46.5154 24.0934 -11.9174 46.1483 24.6565 -11.9174 
54.065 24.0934 -6.16292 -42.2628 32.01 -11.9174 -48.8517 32.01 -7.22465 
-40.9351 34.6428 -11.9174 37.7794 32.01 -11.9174 30.315 36.6117 -11.9174 
38.2316 32.01 -11.7289 46.1483 32.01 -7.8575 -35.4223 39.9267 -11.9174 
-40.9351 39.9267 -9.70412 -33.0184 41.1323 -11.9174 -17.1851 44.557 -11.9174 
-9.26838 45.2204 -11.9174 -1.35171 43.789 -11.9174 6.56496 42.064 -11.9174 
14.4816 44.2522 -11.9174 23.0486 39.9267 -11.9174 22.3983 40.2602 -11.9174 
30.315 39.9267 -9.18862 -25.2242 47.8434 -11.9174 -24.8786 47.8434 -11.9174 
-25.1017 47.8882 -11.9174 -17.1851 47.8434 -9.77182 -9.26838 47.8434 -10.4085 
-1.35171 47.8434 -9.59226 6.56496 47.8434 -7.92672 14.4816 47.8434 -5.72958 
-9.26838 -55.8748 -4.00076 -25.1017 -51.7634 -4.00076 -13.4079 -55.0733 -4.00076 
-17.1851 -54.2632 -4.00076 -5.21136 -55.0733 -4.00076 -9.26838 -55.0733 2.56534 
-1.35171 -54.212 -4.00076 6.56496 -51.0167 -4.00076 -31.7665 -47.1567 -4.00076 
-33.0184 -45.8173 -4.00076 12.0647 -47.1567 -4.00076 14.4816 -45.3343 -4.00076 
-38.238 -39.24 -4.00076 -40.9351 -35.5644 -4.00076 21.1234 -39.24 -4.00076 
22.3983 -38.0059 -4.00076 30.315 -32.9225 -4.00076 -43.4586 -31.3233 -4.00076 
34.1394 -31.3233 -4.00076 38.2316 -29.6219 -4.00076 46.1483 -25.2611 -4.00076 
-46.9818 -23.4067 -4.00076 -48.8517 -20.2425 -4.00076 48.5501 -23.4067 -4.00076 
54.065 -17.9347 -4.00076 -51.2163 -15.49 -4.00076 -9.26838 -11.7518 -4.00076 
56.0298 -15.49 -4.00076 -54.0918 -7.57331 -4.00076 -13.4017 -7.57331 -4.00076 
-4.62486 -7.57331 -4.00076 -9.26838 -7.57331 -0.341666 -1.35171 0.114538 -4.00076 
59.609 -7.57331 -4.00076 -56.303 0.343362 -4.00076 -12.9928 0.343362 -4.00076 
-9.26838 4.2635 -4.00076 -9.26838 0.343362 -0.847256 -1.07944 0.343362 -4.00076 
-1.35171 0.585592 -4.00076 -1.35171 0.343362 -2.98458 61.0801 0.343362 -4.00076 
-56.7403 8.26003 -4.00076 61.2788 8.26003 -4.00076 -55.9099 16.1767 -4.00076 
59.314 16.1767 -4.00076 -54.0835 24.0934 -4.00076 55.4273 24.0934 -4.00076 
54.065 26.0036 -4.00076 54.065 24.0934 1.95083 -50.9044 32.01 -4.00076 
-48.8517 35.0815 -4.00076 38.2316 39.607 -4.00076 48.8241 32.01 -4.00076 
46.1483 34.495 -4.00076 -44.8161 39.9267 -4.00076 -40.9351 43.2538 -4.00076 
-33.0184 47.7832 -4.00076 22.3983 46.1387 -4.00076 37.6703 39.9267 -4.00076 
30.315 43.4993 -4.00076 -32.8327 47.8434 -4.00076 -25.1017 50.1226 -4.00076 
-25.1017 47.8434 0.623947 -17.1851 51.6507 -4.00076 -17.1851 47.8434 3.45025 
-9.26838 51.7118 -4.00076 -1.35171 51.3162 -4.00076 -1.35171 47.8434 3.25388 
6.56496 50.2401 -4.00076 6.56496 47.8434 0.845479 16.059 47.8434 -4.00076 
14.4816 48.258 -4.00076 14.4816 47.8434 -3.05053 -25.1017 -50.5037 3.91591 
-17.1851 -53.3757 3.91591 -9.26838 -54.8711 3.91591 -1.35171 -54.1068 3.91591 
6.56496 -51.318 3.91591 -30.427 -47.1567 3.91591 -33.0184 -44.5617 3.91591 
-25.1017 -47.1567 7.93137 -17.1851 -47.1567 9.82271 -9.26838 -47.1567 11.6333 
12.433 -47.1567 3.91591 14.4816 -45.4952 3.91591 -37.3171 -39.24 3.91591 
-40.9351 -34.9251 3.91591 -33.0184 -39.24 8.99909 21.2041 -39.24 3.91591 
22.3983 -38.1348 3.91591 30.315 -33.1315 3.91591 -43.1136 -31.3233 3.91591 
-40.9351 -31.3233 7.22385 34.8955 -31.3233 3.91591 38.2316 -29.9483 3.91591 
46.1483 -25.4508 3.91591 -46.7224 -23.4067 3.91591 -48.8517 -19.5009 3.91591 
-40.9351 -23.4067 9.81287 48.6901 -23.4067 3.91591 46.1483 -23.4067 8.79896 
54.065 -17.3031 3.91591 -50.5785 -15.49 3.91591 -48.8517 -15.49 6.51779 
55.4028 -15.49 3.91591 54.065 -15.49 6.23845 -53.3394 -7.57331 3.91591 
-48.8517 -7.57331 9.07868 58.7154 -7.57331 3.91591 54.065 -7.57331 11.2244 
-55.8973 0.343362 3.91591 -48.8517 0.343362 11.3716 59.4984 0.343362 3.91591 
54.065 0.343362 10.3837 -56.2579 8.26003 3.91591 -48.8517 8.26003 11.5374 
59.392 8.26003 3.91591 54.065 8.26003 10.5805 -55.5591 16.1767 3.91591 
-48.8517 16.1767 10.6356 57.8125 16.1767 3.91591 54.065 23.3253 3.91591 
54.065 16.1767 8.47858 -53.2425 24.0934 3.91591 -48.8517 24.0934 9.00621 
53.4366 24.0934 3.91591 46.1483 24.0934 9.43057 -49.3432 32.01 3.91591 
-48.8517 32.6449 3.91591 -48.8517 32.01 4.50834 -40.9351 32.01 9.50998 
-33.0184 32.01 11.1811 -25.1017 32.01 11.6624 -17.1851 32.01 11.6589 
-9.26838 32.01 11.0437 -1.35171 32.01 10.7988 6.56496 32.01 10.328 
14.4816 32.01 10.5332 22.3983 32.01 10.5746 30.315 32.01 10.2533 
38.2316 36.8855 3.91591 38.2316 32.01 8.25067 46.5529 32.01 3.91591 
46.1483 32.3764 3.91591 46.1483 32.01 4.28995 -40.9421 39.9267 3.91591 
-40.9351 39.9318 3.91591 -40.9351 39.9267 3.9212 -33.0184 43.7133 3.91591 
-33.0184 39.9267 7.24311 -25.1017 45.0383 3.91591 -25.1017 39.9267 7.31254 
-17.1851 47.3576 3.91591 -17.1851 39.9267 7.86204 -9.26838 39.9267 8.0234 
-1.35171 47.2152 3.91591 -1.35171 39.9267 7.75173 6.56496 45.1226 3.91591 
6.56496 39.9267 6.94008 14.4816 42.9626 3.91591 14.4816 39.9267 6.34153 
22.3983 41.1331 3.91591 22.3983 39.9267 5.1793 31.5739 39.9267 3.91591 
30.315 40.4018 3.91591 30.315 39.9267 4.4936 -10.921 47.8434 3.91591 
-7.95171 47.8434 3.91591 -9.26838 47.913 3.91591 -9.26838 47.8434 3.984 
-1.35171 -48.3693 11.8326 6.56496 -47.2743 11.8326 -25.1017 -40.2867 11.8326 
-17.1851 -44.1622 11.8326 -7.98875 -47.1567 11.8326 -9.26838 -46.792 11.8326 
-1.35171 -47.1567 12.7914 6.79363 -47.1567 11.8326 6.56496 -47.1567 11.9504 
[...]
POINT_DATA 532
SCALARS ImageScalars float
LOOKUP_TABLE default
0 0 0 0 0 0 0 0 0 
0 0 0 0 0 0 0 0 0 
0 0 0 0 0 0 0 0 0 
0 0 0 0 0 0 0 0 0 
0 0 0 0 0 0 0 0 0 
0 0 0 0 0 0 0 0 0 
0 0 0 0 0 0 0 0 0 
0 0 0 0 0 0 0 0 0 
0 0 0 0 0 0 0 0 0 
0 0 0 0 0 0 0 0 0 
0 0 0 0 0 0 0 0 0 
0 0 0 0 0 0 0 0 0 
0 0 0 0 0 0 0 0 0 
0 0 0 0 0 0 0 0 0 
0 0 0 0 0 0 0 0 0 
0 0 0 0 0 0 0 0 0 
0 0 0 0 0 0 0 0 0 
0 0 0 0 0 0 0 0 0 
0 0 0 0 0 0 0 0 0 
0 0 0 0 0 0 0 0 0 
0 0 0 0 0 0 0 0 0 
0 0 0 0 0 0 0 0 0 
0 0 0 0 0 0 0 0 0 
0 0 0 0 0 0 0 0 0 
0 0 0 0 0 0 0 0 0 
0 0 0 0 0 0 0 0 0 
0 0 0 0 0 0 0 0 0 
0 0 0 0 0 0 0 0 0 
0 0 0 0 0 0 0 0 0 
0 0 0 0 0 0 0 0 0 
0 0 0 0 0 0 0 0 0 
0 0 0 0 0 0 0 0 0 
0 0 0 0 0 0 0 0 0 
0 0 0 0 0 0 0 0 0 
0 0 0 0 0 0 0 0 0 
0 0 0 0 0 0 0 0 0 
0 0 0 0 0 0 0 0 0 
0 0 0 0 0 0 0 0 0 
0 0 0 0 0 0 0 0 0 
0 0 0 0 0 0 0 0 0 
0 0 0 0 0 0 0 0 0 
0 0 0 0 0 0 0 0 0 
0 0 0 0 0 0 0 0 0 
0 0 0 0 0 0 0 0 0 
0 0 0 0 0 0 0 0 0 
0 0 0 0 0 0 0 0 0 
0 0 0 0 0 0 0 0 0 
0 0 0 0 0 0 0 0 0 
0 0 0 0 0 0 0 0 0 
0 0 0 0 0 0 0 0 0 
0 0 0 0 0 0 0 0 0 
0 0 0 0 0 0 0 0 0 
0 0 0 0 0 0 0 0 0 
0 0 0 0 0 0 0 0 0 
0 0 0 0 0 0 0 0 0 
0 0 0 0 0 0 0 0 0 
0 0 0 0 0 0 0 0 0 
0 0 0 0 0 0 0 0 0 
0 0 0 0 0 0 0 0 0 
0 
NORMALS Normals float
0.0944755 0.472966 0.876001 0.0178045 0.445158 0.895275 -0.131617 0.531461 0.836795 
0.280997 0.205664 0.937413 0.0884421 0.190863 0.977624 0.0612935 0.166908 0.984066 
-0.0136643 0.200811 0.979535 -0.108877 0.328114 0.938343 -0.33629 0.557644 0.758909 
0.320958 0.233087 0.917963 0.182615 0.0734893 0.980434 0.0861491 0.0655385 0.994124 
0.0360547 0.00632809 0.99933 0.0425715 -0.0056268 0.999078 0.02706 0.0765921 0.996695 
-0.0881235 0.206142 0.974546 -0.322086 0.4571 0.829048 0.273754 0.124681 0.953684 
0.133897 0.035348 0.990365 0.0335653 -0.0365696 0.998767 -0.010922 -0.0402463 0.99913 
0.0577331 -0.152788 0.986571 0.111853 -0.118123 0.986679 0.0402773 -0.0462919 0.998116 
-0.0825606 0.0588676 0.994846 -0.255873 0.262882 0.930281 -0.370345 0.467252 0.80282 
0.280194 0.218966 0.934636 0.124382 0.122415 0.984654 0.025957 0.0272415 0.999292 
0.0105791 -0.0128228 0.999862 -0.0848341 0.167907 0.982146 -0.0420416 0.017696 0.998959 
0.141892 -0.0634626 0.987846 0.093667 -0.190514 0.977206 0.0161356 -0.11676 0.993029 
-0.0371416 0.0267265 0.998953 -0.130426 0.23173 0.963997 -0.374884 0.387008 0.842429 
0.259521 0.0784689 0.962544 0.0775333 0.0517989 0.995643 0.00871278 0.0146761 0.999854 
0.177053 0.00619741 0.984182 0.1552 0.228803 0.961021 -0.197212 0.000718678 0.980361 
-0.178462 0.222856 0.958377 0.00413265 -0.130556 0.991432 0.134695 -0.0923358 0.986576 
0.102154 0.00391421 0.994761 -0.0486911 0.0662948 0.996611 -0.267833 0.0842162 0.959778 
0.2167 0.0189556 0.976054 0.05486 -0.0196344 0.998301 -0.0223049 -0.053318 0.998328 
-0.257347 -0.141149 0.955955 0.771319 0.0643826 0.633184 0.127598 -0.0256228 0.991495 
-0.158311 0.0141543 0.987288 0.126643 -0.0245625 0.991644 0.125264 -0.0141841 0.992022 
-0.0419454 -0.0137125 0.999026 -0.232347 -0.0185128 0.972457 -0.49619 0.0299161 0.867698 
0.1776 0.0196406 0.983907 0.00631901 0.00795334 0.999948 -0.113975 -0.018531 0.993311 
0.0384334 -0.0414412 0.998401 0.302498 0.0795868 0.949822 -0.0310412 0.129668 0.991071 
-0.187447 -0.209428 0.959689 -0.102367 0.0612337 0.99286 0.107713 0.0265846 0.993827 
0.112357 -0.0323664 0.993141 -0.0424913 -0.0667893 0.996862 -0.23706 -0.011047 0.971432 
-0.491245 -0.0103085 0.870961 0.252634 -0.00363528 0.967555 0.0275112 0.032688 0.999087 
-0.0842877 0.0565315 0.994837 -0.0471693 0.141949 0.98875 0.048083 -0.066869 0.996603 
0.0280847 -0.188713 0.981631 -0.00593935 -0.1138 0.993486 0.0290832 0.0706402 0.997078 
0.0488298 0.0277894 0.99842 0.0262261 -0.0336685 0.999089 -0.0210395 -0.117905 0.992802 
-0.22295 -0.176321 0.958751 -0.544772 -0.208462 0.812261 0.515597 -0.111048 0.849605 
0.23353 -0.120783 0.964819 0.061857 -0.0211756 0.99786 2.76794e-05 0.0450627 0.998984 
-0.0592743 0.150138 0.986887 -0.0817468 0.0396993 0.995862 0.00645042 -0.0222846 0.999731 
0.074721 -0.0144958 0.997099 0.0420152 0.0480983 0.997959 0.00349371 -0.0356685 0.999358 
-0.0279708 -0.102746 0.994314 -0.171709 -0.199455 0.964746 -0.41323 -0.305395 0.85789 
0.428424 -0.213422 0.878011 0.153398 -0.129316 0.979666 0.0926117 -0.0590444 0.99395 
-0.0546942 -0.0874097 0.99467 -0.129005 -0.0350697 0.991024 -0.0254439 -0.0446506 0.998679 
0.066883 -0.100813 0.992655 0.0110262 -0.132515 0.99112 -0.0947315 -0.164219 0.981865 
-0.146203 -0.294603 0.944369 0.278812 -0.451055 0.847829 0.059206 -0.240977 0.968723 
-0.0487516 -0.321401 0.945687 -0.0368114 -0.205396 0.977986 -0.0590497 -0.228494 0.971753 
0.0129582 -0.293834 0.955769 -0.0264956 -0.313717 0.949147 -0.25366 -0.451577 0.855415 
0.0835065 -0.701246 0.708012 0.0956904 0.480864 0.871558 0.0128129 0.507428 0.861599 
-0.00162737 0.945639 0.325214 -0.140883 0.556323 0.818936 0.126334 0.481681 0.867193 
0.309133 0.433301 0.846574 0.335718 0.563534 0.7548 -0.172708 0.564328 0.807283 
-0.253751 0.572043 0.779986 -0.355316 0.707821 0.610525 -0.396601 0.634361 0.663547 
0.386434 0.258766 0.885273 0.342665 0.24954 0.90571 0.603352 0.428941 0.672291 
-0.42166 0.661435 0.620247 -0.464069 0.679492 0.568271 0.350039 0.243964 0.904408 
0.726769 0.380828 0.571644 -0.454432 0.656326 0.602269 -0.443609 0.629458 0.63796 
-0.465022 0.779019 0.420576 -0.400625 0.546456 0.735449 0.370609 0.187238 0.90972 
0.360617 0.238405 0.901731 0.549986 0.287466 0.784142 -0.412788 0.520355 0.747554 
-0.431546 0.501206 0.75004 -0.552533 0.711279 0.434499 0.427503 0.250755 0.868541 
0.762979 0.345051 0.546629 -0.47898 0.428569 0.766098 -0.726301 0.52195 0.447275 
0.459617 0.0920098 0.883338 0.631386 0.145396 0.761716 -0.0699495 -0.468685 -0.880591 
-0.0601082 -0.889455 -0.453053 -0.604533 0.180605 0.775836 -0.593942 0.14373 0.791565 
-0.631356 0.189452 0.751995 0.442729 0.054175 0.895018 0.487938 0.0631923 0.870588 
-0.648315 -0.238524 0.723045 0.933524 0.0188946 0.358017 0.2078 0.622939 0.754166 
0.995255 -0.0180744 0.0956034 -0.546969 0.0380918 0.836286 0.433404 -0.0377943 0.900407 
0.470541 -0.0472185 0.881114 -0.511101 -0.0132895 0.859418 0.470917 0.02378 0.881857 
0.528018 -0.0684034 0.846474 0.578364 0.0113704 0.8157 -0.578045 -0.213693 0.787527 
-0.555623 -0.242254 0.795359 0.543702 -0.118712 0.83084 0.53457 -0.148402 0.831993 
-0.288028 -0.438524 0.851315 -0.422601 -0.311352 0.851157 -0.418049 -0.316826 0.851385 
-0.760508 -0.556054 0.335309 0.463927 -0.24096 0.852473 0.766189 -0.461 0.447697 
0.440632 -0.288249 0.850151 -0.284595 -0.440724 0.851333 -0.209191 -0.484436 0.849448 
-0.298317 -0.456881 0.838014 -0.58994 -0.651308 0.477252 0.330537 -0.457059 0.825737 
0.532536 -0.57189 0.623977 0.303668 -0.487658 0.81852 -0.0707731 -0.486932 0.870568 
-0.0161666 -0.455661 0.890006 -0.0822628 -0.3956 0.914732 0.0175415 -0.384483 0.922966 
-0.0720949 -0.548104 0.833298 -0.258032 -0.46779 0.845335 -0.263812 -0.468983 0.842887 
-0.318839 -0.739072 0.593393 0.0881672 -0.70247 0.706231 0.0787686 -0.700846 0.70895 
0.083455 -0.705024 0.704256 -0.0195 -0.773761 0.633178 -0.00684492 -0.714473 0.699629 
-0.118013 -0.762532 0.636096 -0.122222 -0.886716 0.445867 -0.228727 -0.971389 0.0639351 
-0.00235334 0.977588 0.210515 0.43222 0.878583 0.203167 0.128837 0.970208 0.205174 
0.240772 0.947939 0.208426 -0.153316 0.963352 0.220106 0.0257459 0.960462 -0.277219 
-0.284354 0.928144 0.24019 -0.431755 0.864819 0.256273 0.661505 0.715508 0.224632 
0.699288 0.673176 0.240478 -0.576292 0.787238 0.219416 -0.627651 0.755434 0.188076 
0.783632 0.561012 0.266808 0.819772 0.510593 0.259363 -0.667181 0.735485 0.118033 
-0.652705 0.749866 0.108061 -0.450462 0.883775 0.126593 0.853942 0.449249 0.2626 
-0.427334 0.891706 0.149153 -0.433376 0.882434 0.183019 -0.560062 0.795536 0.231201 
0.845157 0.450802 0.287207 0.863092 0.443073 0.242401 -0.621181 0.749606 0.228528 
-0.761396 0.616479 0.200574 0.89003 0.401916 0.215198 -0.0823339 -0.900772 0.426417 
-0.810794 0.551298 0.196679 0.919204 0.304514 0.24967 -0.677617 -0.495973 0.542997 
0.567867 -0.676048 0.46956 -0.13529 -0.620394 0.772534 0.997583 -0.0450501 0.0529031 
-0.928912 0.31219 0.19915 0.951045 0.1502 0.270099 -0.635108 0.433729 0.639153 
-0.224782 0.780302 0.583611 -0.452539 0.515412 0.727708 0.99836 -0.0289572 0.0493896 
0.998583 -0.00947527 0.0523668 0.993856 -0.0424812 0.102204 -0.982413 0.101745 0.156567 
0.963838 -0.0194142 0.265782 -0.981567 -0.117179 0.150981 0.939574 -0.14792 0.308739 
-0.92968 -0.331879 0.159848 0.925682 -0.304222 0.22486 -0.817098 -0.552253 0.165432 
-0.790468 -0.590622 0.162255 -0.766524 -0.567303 -0.301012 0.866987 -0.457265 0.198096 
0.814817 -0.555968 0.164232 -0.485865 -0.869814 0.0857795 -0.692025 -0.708073 0.140476 
-0.635965 -0.759131 0.138812 0.695738 -0.713303 0.084542 0.599301 -0.79972 0.0358656 
0.397953 -0.916129 -0.0483808 -0.302466 -0.952033 -0.046337 -0.479708 -0.873425 0.0837225 
-0.386541 -0.918848 0.0794084 0.39435 -0.917524 -0.0513548 0.239949 -0.969026 -0.0584234 
0.253624 -0.827115 -0.501552 0.100997 -0.99015 0.0969694 0.12173 -0.602559 -0.788736 
-0.022023 -0.999613 -0.0170163 -0.0957391 -0.995394 0.00489725 -0.100536 -0.749173 -0.6547 
-0.202488 -0.97676 0.0702703 -0.219076 -0.847503 -0.483471 -0.255308 -0.962686 -0.0897408 
-0.247494 -0.965033 -0.0863573 -0.25141 -0.954097 -0.162765 0.403614 0.814502 -0.416753 
0.248843 0.882278 -0.399578 0.0321335 0.927706 -0.371927 -0.204923 0.944114 -0.258178 
-0.412437 0.894226 -0.173942 0.58072 0.708545 -0.400909 0.666827 0.646252 -0.37108 
0.356559 0.664152 -0.65709 0.190389 0.621034 -0.760308 0.164928 0.549707 -0.818914 
-0.597602 0.791819 -0.126072 -0.65669 0.746287 -0.108691 0.736107 0.587171 -0.336716 
0.795501 0.512372 -0.3235 0.554549 0.504362 -0.661887 -0.670711 0.737545 -0.0785772 
-0.64865 0.758182 -0.0664386 -0.453346 0.889241 -0.0610539 0.836241 0.446578 -0.31823 
0.746339 0.404662 -0.528419 -0.432105 0.899211 -0.0685876 -0.432282 0.897991 -0.082131 
-0.571218 0.805487 -0.1578 0.832349 0.439907 -0.33716 0.851806 0.406376 -0.330583 
0.642758 0.290296 -0.708936 -0.645906 0.742724 -0.176543 -0.606659 0.688364 -0.397644 
-0.794897 0.546935 -0.26268 0.871737 0.351441 -0.341414 0.804798 0.322986 -0.497976 
-0.818615 0.500473 -0.281773 -0.789026 0.477509 -0.386552 0.879551 0.301408 -0.368163 
0.701887 0.222293 -0.676713 -0.915337 0.241005 -0.322606 -0.706843 0.13075 -0.695182 
0.925473 0.163584 -0.341673 0.591996 0.12245 -0.796584 -0.893561 0.0438797 -0.446792 
-0.684542 -0.0234799 -0.728595 0.942999 -0.0187464 -0.332267 0.561114 -0.0405245 -0.826746 
-0.868564 -0.114337 -0.482208 -0.638243 -0.0973228 -0.763658 0.925088 -0.150812 -0.348523 
0.5814 -0.117937 -0.805025 -0.8485 -0.293301 -0.440479 -0.726605 -0.519405 -0.449737 
-0.662355 -0.297307 -0.687673 0.856032 -0.356053 -0.374747 0.63231 -0.309205 -0.710335 
-0.706066 -0.542134 -0.455589 -0.471902 -0.438986 -0.764591 0.704309 -0.539509 -0.461388 
0.689779 -0.555225 -0.464682 0.679991 -0.535158 -0.501216 0.326701 -0.497136 -0.803817 
0.103391 -0.422455 -0.900468 0.025662 -0.419521 -0.907383 -0.0375892 -0.366952 -0.92948 
-0.0500416 -0.354535 -0.933703 -0.0439535 -0.367146 -0.929124 -0.0181037 -0.397862 -0.917266 
0.0153241 -0.431938 -0.901773 -0.0162632 -0.503001 -0.864133 -0.123868 -0.521439 -0.84425 
-0.375159 -0.755994 -0.536403 -0.299981 -0.605934 -0.736787 -0.577282 -0.662803 -0.476904 
-0.570108 -0.66615 -0.480854 -0.564783 -0.660536 -0.494684 0.496971 -0.652434 -0.572145 
0.496808 -0.652446 -0.572273 0.496661 -0.652343 -0.572519 0.255943 -0.752574 -0.606734 
0.179977 -0.558847 -0.809505 0.153434 -0.613559 -0.774598 0.0370638 -0.537791 -0.842263 
0.114978 -0.551485 -0.826223 0.0387238 -0.456137 -0.889067 -0.00695114 -0.422383 -0.906391 
-0.0956973 -0.691931 -0.715593 -0.0641913 -0.431023 -0.900055 -0.162996 -0.578087 -0.799529 
-0.0786784 -0.470645 -0.878808 -0.168486 -0.615875 -0.769617 -0.0872917 -0.556079 -0.826532 
-0.119052 -0.711527 -0.692499 -0.0918164 -0.683784 -0.723884 -0.229712 -0.796591 -0.559174 
-0.206221 -0.798198 -0.565997 -0.201339 -0.778536 -0.594428 0.018391 -0.679219 -0.733705 
-0.0202477 -0.705439 -0.708482 -0.00677495 -0.706425 -0.707756 -0.00485474 -0.702444 -0.711723 
0.00218561 0.64638 -0.763013 -0.251603 0.728966 -0.636635 0.289137 0.39971 -0.869846 
0.177157 0.490089 -0.85348 0.141396 0.555795 -0.819206 0.16512 0.532996 -0.82985 
0.0154424 0.601797 -0.7985 -0.25763 0.72908 -0.634089 -0.249396 0.725208 -0.641776 
-0.479806 0.725758 -0.493012 0.32634 0.390224 -0.860946 0.386336 0.31218 -0.867922 
0.284037 0.373943 -0.882887 0.156983 0.315011 -0.936015 0.157177 0.291531 -0.94356 
0.112657 0.324477 -0.939161 -0.0501754 0.405549 -0.912695 -0.537768 0.718774 -0.440646 
-0.391102 0.596212 -0.701121 -0.547839 0.721396 -0.423628 -0.433987 0.819515 -0.374232 
0.399999 0.283011 -0.871726 0.363301 0.276451 -0.889712 0.210566 0.259464 -0.942518 
0.141748 0.218341 -0.965523 0.165504 0.140385 -0.976166 0.13983 0.12412 -0.982365 
0.0275049 0.136899 -0.990203 -0.140276 0.18964 -0.971781 -0.331162 0.51664 -0.789566 
-0.436147 0.816188 -0.378963 -0.425983 0.80845 -0.406137 -0.50857 0.730337 -0.456031 
0.522883 0.254604 -0.813493 0.517957 0.240691 -0.820846 0.37592 0.239249 -0.895234 
0.17684 0.222285 -0.95881 0.0380805 0.228885 -0.972708 0.0665144 0.067853 -0.995476 
0.122344 -0.038938 -0.991724 -0.0102958 -0.00946881 -0.999902 -0.0250695 0.165081 -0.985961 
-0.162079 0.338 -0.927085 -0.581199 0.620173 -0.526871 -0.456835 0.513775 -0.72618 
-0.614235 0.538769 -0.576579 0.518487 0.235532 -0.822007 0.470891 0.217782 -0.854887 
0.341299 0.125346 -0.93156 0.201841 0.0888661 -0.975378 -0.017372 0.112018 -0.993554 
-0.106141 0.0588354 -0.992609 -0.00686986 -0.0898133 -0.995935 0.0576913 -0.152266 -0.986654 
0.116327 -0.116672 -0.986334 -0.273623 0.124926 -0.95369 -0.676983 0.359812 -0.642051 
-0.588274 0.287782 -0.755722 0.528197 0.168812 -0.832172 0.405994 0.140605 -0.902994 
0.263028 0.0499104 -0.963496 0.163028 -0.0625942 -0.984634 0.00788559 -0.106006 -0.994334 
-0.138296 0.00552118 -0.990376 -0.0885625 0.06193 -0.994144 0.0208726 -0.00493146 -0.99977 
0.150161 -0.102838 -0.983298 -0.233748 -0.0571628 -0.970616 -0.672682 0.117521 -0.73054 
-0.434923 0.00342665 -0.900461 0.555327 0.113653 -0.82383 0.314059 0.0676154 -0.946993 
0.140199 -0.00313569 -0.990118 0.0469388 -0.0892366 -0.994904 0.0532521 -0.176632 -0.982835 
0.0653759 -0.073779 -0.995129 -0.00861779 -0.0677328 -0.997666 -0.12028 -0.0256096 -0.99241 
0.0311753 0.0113433 -0.99945 0.111925 -0.0861272 -0.989977 -0.0445851 -0.129744 -0.990545 
-0.214971 -0.132781 -0.967552 -0.60403 -0.041624 -0.795874 -0.406352 -0.100247 -0.908201 
0.534181 -0.041915 -0.844331 0.289329 -0.0484515 -0.956003 0.111373 -0.0609683 -0.991907 
-0.00376934 -0.0756352 -0.997128 0.0200257 -0.102955 -0.994484 -0.0214256 -0.105263 -0.994214 
-0.041939 -0.120784 -0.991792 0.0935331 -0.0457346 -0.994565 0.0908393 0.0398713 -0.995067 
0.0014535 -0.0654067 -0.997858 -0.0951763 -0.130936 -0.986812 -0.212917 -0.150156 -0.965464 
-0.55361 -0.117589 -0.824432 -0.361891 -0.146281 -0.920672 0.479927 -0.114263 -0.869836 
0.30844 -0.136013 -0.94147 0.113674 -0.157122 -0.981015 0.00215664 -0.158261 -0.987395 
0.0202331 -0.166015 -0.985916 0.0487385 -0.218924 -0.974524 0.0432777 -0.128495 -0.990765 
0.0566889 -0.177175 -0.982545 0.0111843 -0.203309 -0.979051 -0.0606071 -0.214258 -0.974895 
-0.130862 -0.208177 -0.969297 -0.223692 -0.232269 -0.94658 -0.430067 -0.288812 -0.855354 
-0.39814 -0.321474 -0.85915 -0.378594 -0.277924 -0.88285 0.339108 -0.270074 -0.901147 
0.262047 -0.333126 -0.905737 0.250077 -0.268943 -0.930124 0.102469 -0.396161 -0.912446 
0.107745 -0.30666 -0.945701 0.0246659 -0.412568 -0.910593 -0.00217227 -0.294398 -0.955681 
-0.039941 -0.361108 -0.931668 -0.0499797 -0.291819 -0.955167 -0.0438525 -0.349367 -0.935959 
-0.00620003 -0.348454 -0.937305 -0.0334814 -0.375158 -0.926356 -0.00929435 -0.395285 -0.918511 
0.0060272 -0.409912 -0.912105 0.0187244 -0.435282 -0.900099 0.0390265 -0.428846 -0.902534 
0.0597343 -0.442428 -0.894813 -0.00851427 -0.46119 -0.88726 0.00698697 -0.39904 -0.916907 
-0.111691 -0.458485 -0.881656 -0.103274 -0.378417 -0.919856 -0.338869 -0.396913 -0.853011 
-0.269072 -0.443564 -0.854898 -0.27076 -0.387857 -0.881054 0.0413432 -0.0649355 -0.997033 
0.0436609 -0.07992 -0.995845 0.0376201 -0.0741714 -0.996536 0.0424959 -0.0811874 -0.995793 
0.0423487 -0.0805579 -0.99585 0.011701 0.115973 -0.993183 -0.11199 0.192978 -0.974791 
0.0964449 -0.0213756 -0.995109 0.0871567 0.0130673 -0.996109 -0.150858 0.0782743 -0.985452 
-0.0677987 0.0512936 -0.99638 0.146153 -0.0844974 -0.985647 0.143542 -0.0842032 -0.986055 
0.145587 -0.0837409 -0.985795 -0.110985 -0.0724969 -0.991174 -0.0465678 -0.0969667 -0.994198 
-0.0466279 -0.0796181 -0.995734 
