# vtk DataFile Version 4.2
vtk output
ASCII
DATASET POLYDATA
POINTS 536 float
-32.4529 -37.6309 -14.4753 -24.1819 -37.6309 -15.2869 -15.9109 -37.6309 -15.3216 
-7.63983 -37.6309 -14.5636 0.631183 -37.6309 -13.8705 8.9022 -37.6309 -13.7524 
17.1732 -37.6309 -13.6115 -40.7239 -29.3599 -16.8565 -32.4529 -29.3599 -18.0961 
-24.1819 -29.3599 -17.4579 -15.9109 -29.3599 -16.9135 -7.63983 -29.3599 -15.7678 
0.631183 -29.3599 -14.9412 8.9022 -29.3599 -15.4865 17.1732 -29.3599 -15.5644 
25.4442 -29.3599 -15.8586 33.7153 -29.3599 -15.4118 -48.9949 -21.0888 -16.4277 
-40.7239 -21.0888 -19.2986 -32.4529 -21.0888 -19.0312 -24.1819 -21.0888 -18.118 
-15.9109 -21.0888 -17.3092 -7.63983 -21.0888 -15.5934 0.631183 -21.0888 -14.7032 
8.9022 -21.0888 -15.7407 17.1732 -21.0888 -15.9259 25.4442 -21.0888 -16.7674 
33.7153 -21.0888 -17.7364 41.9863 -21.0888 -16.0595 -48.9949 -12.8178 -17.4432 
-40.7239 -12.8178 -19.3493 -32.4529 -12.8178 -19.266 -24.1819 -12.8178 -18.2837 
-15.9109 -12.8178 -16.6 -7.63983 -12.8178 -17.3878 0.631183 -12.8178 -18.3478 
8.9022 -12.8178 -16.4534 17.1732 -12.8178 -15.06 25.4442 -12.8178 -16.616 
33.7153 -12.8178 -17.7853 41.9863 -12.8178 -18.1464 50.2573 -12.8178 -15.8381 
-48.9949 -4.54681 -18.0081 -40.7239 -4.54681 -19.8412 -32.4529 -4.54681 -19.577 
-24.1819 -4.54681 -17.9303 -15.9109 -4.54681 -16.0323 -7.63983 -4.54681 -19.3774 
0.631183 -4.54681 -15.8767 8.9022 -4.54681 -18.8048 17.1732 -4.54681 -14.8254 
25.4442 -4.54681 -16.7243 33.7153 -4.54681 -18.2548 41.9863 -4.54681 -18.5206 
50.2573 -4.54681 -16.5323 -48.9949 3.7242 -17.8825 -40.7239 3.7242 -20.014 
-32.4529 3.7242 -19.9622 -24.1819 3.7242 -18.7284 -15.9109 3.7242 -17.856 
-7.63983 3.7242 -20.4582 0.631183 3.7242 -15.8714 8.9022 3.7242 -21.7029 
17.1732 3.7242 -15.6034 25.4442 3.7242 -17.4274 33.7153 3.7242 -18.9785 
41.9863 3.7242 -18.4522 50.2573 3.7242 -16.7409 -48.9949 11.9952 -17.9371 
-40.7239 11.9952 -19.9402 -32.4529 11.9952 -20.3308 -24.1819 11.9952 -19.4543 
-15.9109 11.9952 -18.5259 -7.63983 11.9952 -18.6517 0.631183 11.9952 -18.1236 
8.9022 11.9952 -17.3614 17.1732 11.9952 -16.8734 25.4442 11.9952 -18.1421 
33.7153 11.9952 -19.3434 41.9863 11.9952 -18.7403 50.2573 11.9952 -16.5384 
-48.9949 20.2662 -16.4767 -40.7239 20.2662 -19.57 -32.4529 20.2662 -21.2744 
-24.1819 20.2662 -20.4277 -15.9109 20.2662 -19.585 -7.63983 20.2662 -18.634 
0.631183 20.2662 -17.9445 8.9022 20.2662 -17.68 17.1732 20.2662 -17.8181 
25.4442 20.2662 -18.2631 33.7153 20.2662 -18.3302 41.9863 20.2662 -17.8391 
50.2573 20.2662 -14.8153 -48.9949 28.5373 -13.5815 -40.7239 28.5373 -18.6763 
-32.4529 28.5373 -19.8633 -24.1819 28.5373 -21.2851 -15.9109 28.5373 -20.3865 
-7.63983 28.5373 -20.2634 0.631183 28.5373 -19.6802 8.9022 28.5373 -18.8502 
17.1732 28.5373 -18.8349 25.4442 28.5373 -17.6754 33.7153 28.5373 -17.0535 
41.9863 28.5373 -14.733 -40.7239 36.8083 -14.7931 -32.4529 36.8083 -18.3917 
-24.1819 36.8083 -19.4663 -15.9109 36.8083 -20.0046 -7.63983 36.8083 -20.3205 
0.631183 36.8083 -20.0055 8.9022 36.8083 -19.0855 17.1732 36.8083 -18.0831 
25.4442 36.8083 -16.0186 -24.1819 45.0793 -15.8263 -15.9109 45.0793 -17.6123 
-7.63983 45.0793 -17.9417 0.631183 45.0793 -17.6911 8.9022 45.0793 -16.7291 
17.1732 45.0793 -15.026 -32.4529 -39.4145 -13.4352 -24.1819 -40.7714 -13.4352 
-24.1819 -45.9019 -9.38222 -15.9109 -41.4419 -13.4352 -15.9109 -45.9019 -10.8857 
-7.63983 -40.6947 -13.4352 -7.63983 -45.9019 -11.2619 0.631183 -38.8362 -13.4352 
0.631183 -45.9019 -10.6658 8.9022 -38.438 -13.4352 8.9022 -45.9019 -10.0137 
17.1732 -37.9921 -13.4352 17.1732 -45.9019 -8.32688 -35.5248 -37.6309 -13.4352 
-40.7239 -34.8486 -13.4352 -40.7239 -37.6309 -10.3796 19.3523 -37.6309 -13.4352 
25.4442 -36.2171 -13.4352 25.4442 -37.6309 -12.8519 33.7153 -32.7857 -13.4352 
33.7153 -37.6309 -9.07719 -47.3746 -29.3599 -13.4352 -48.9949 -27.5574 -13.4352 
-48.9949 -29.3599 -11.8221 40.0169 -29.3599 -13.4352 41.9863 -27.68 -13.4352 
41.9863 -29.3599 -12.4996 50.2573 -29.3599 -5.46799 -53.3503 -21.0888 -13.4352 
49.6799 -21.0888 -13.4352 50.2573 -20.504 -13.4352 50.2573 -21.0888 -13.1495 
-55.0016 -12.8178 -13.4352 -57.2659 -12.8178 -8.51213 54.6792 -12.8178 -13.4352 
58.5283 -12.8178 -8.61072 -54.7301 -4.54681 -13.4352 55.6941 -4.54681 -13.4352 
58.5283 -4.54681 -10.68 -54.2194 3.7242 -13.4352 56.2157 3.7242 -13.4352 
58.5283 3.7242 -11.0685 -54.341 11.9952 -13.4352 55.6423 11.9952 -13.4352 
58.5283 11.9952 -9.07627 -52.5353 20.2662 -13.4352 51.9349 20.2662 -13.4352 
50.2573 22.5405 -13.4352 -49.1171 28.5373 -13.4352 -48.9949 28.7564 -13.4352 
33.7153 35.9787 -13.4352 44.6473 28.5373 -13.4352 41.9863 30.6461 -13.4352 
50.2573 28.5373 -6.54063 -42.8964 36.8083 -13.4352 -40.7239 38.7304 -13.4352 
-32.4529 43.8433 -13.4352 32.6343 36.8083 -13.4352 25.4442 41.0993 -13.4352 
33.7153 36.8083 -12.8079 -30.2675 45.0793 -13.4352 -32.4529 45.0793 -11.0483 
-24.1819 47.5017 -13.4352 -15.9109 49.4468 -13.4352 -7.63983 50.0118 -13.4352 
0.631183 49.8229 -13.4352 8.9022 48.8028 -13.4352 20.5389 45.0793 -13.4352 
17.1732 46.9286 -13.4352 25.4442 45.0793 -8.75609 -24.1819 -49.2923 -5.16421 
-15.9109 -51.4958 -5.16421 -7.63983 -52.4264 -5.16421 -7.63983 -54.1729 3.10183 
0.631183 -52.1596 -5.16421 8.9022 -50.8421 -5.16421 17.1732 -48.6768 -5.16421 
-40.7239 -40.8912 -5.16421 -32.3286 -45.9019 -5.16421 -32.4529 -45.8484 -5.16421 
24.7699 -45.9019 -5.16421 25.4442 -45.6403 -5.16421 25.4442 -45.9019 -2.4637 
33.7153 -40.8589 -5.16421 -44.986 -37.6309 -5.16421 -48.9949 -33.9313 -5.16421 
38.9246 -37.6309 -5.16421 41.9863 -35.6997 -5.16421 50.2573 -29.5123 -5.16421 
-52.7786 -29.3599 -5.16421 50.4174 -29.3599 -5.16421 -56.2642 -21.0888 -5.16421 
-57.2659 -16.7464 -5.16421 56.883 -21.0888 -5.16421 58.5283 -17.2906 -5.16421 
-58.1722 -12.8178 -5.16421 -57.2659 -4.62615 -5.16421 -57.2659 -12.8178 -1.01862 
60.1016 -12.8178 -5.16421 -57.2574 -4.54681 -5.16421 61.604 -4.54681 -5.16421 
-56.6686 3.7242 -5.16421 61.5736 3.7242 -5.16421 -56.9992 11.9952 -5.16421 
60.0933 11.9952 -5.16421 58.5283 16.7903 -5.16421 -55.2817 20.2662 -5.16421 
57.244 20.2662 -5.16421 -52.7448 28.5373 -5.16421 -48.9949 34.4852 -5.16421 
41.9863 35.9135 -5.16421 50.9301 28.5373 -5.16421 50.2573 29.2142 -5.16421 
50.2573 28.5373 0.860922 -47.1019 36.8083 -5.16421 -40.7239 42.3147 -5.16421 
40.7418 36.8083 -5.16421 33.7153 41.7794 -5.16421 -36.1095 45.0793 -5.16421 
-32.4529 47.0931 -5.16421 -32.4529 45.0793 1.27501 -24.1819 49.8783 -5.16421 
-15.9109 51.4773 -5.16421 -7.63983 52.3584 -5.16421 0.631183 52.5618 -5.16421 
8.9022 52.1128 -5.16421 17.1732 50.5939 -5.16421 28.4985 45.0793 -5.16421 
25.4442 46.9412 -5.16421 -7.63983 -54.1737 3.10681 -24.1819 -50.0509 3.10681 
-7.64577 -54.1729 3.10681 -15.9109 -53.0182 3.10681 -7.40461 -54.1729 3.10681 
-7.63983 -54.1729 3.10965 0.631183 -54.1453 3.10681 8.9022 -52.5195 3.10681 
17.1732 -50.1468 3.10681 25.4442 -46.3615 3.10681 -40.7239 -39.7133 3.10681 
-31.3607 -45.9019 3.10681 -32.4529 -45.1529 3.10681 -24.1819 -45.9019 10.5227 
17.1732 -45.9019 10.4673 26.2803 -45.9019 3.10681 25.4442 -45.9019 4.24032 
33.7153 -41.6371 3.10681 -43.1669 -37.6309 3.10681 -48.9949 -31.7967 3.10681 
-40.7239 -37.6309 6.01282 39.7783 -37.6309 3.10681 33.7153 -37.6309 10.8522 
41.9863 -36.1448 3.10681 50.2573 -29.5525 3.10681 -50.8962 -29.3599 3.10681 
-48.9949 -29.3599 5.9855 50.451 -29.3599 3.10681 50.2573 -29.3599 3.51968 
-54.489 -21.0888 3.10681 -48.9949 -21.0888 11.3301 56.6861 -21.0888 3.10681 
58.5283 -16.3224 3.10681 -56.2296 -12.8178 3.10681 59.7129 -12.8178 3.10681 
58.5283 -12.8178 5.88352 -55.2554 -4.54681 3.10681 61.1928 -4.54681 3.10681 
58.5283 -4.54681 9.3106 -54.812 3.7242 3.10681 61.0771 3.7242 3.10681 
58.5283 3.7242 8.9281 -55.2543 11.9952 3.10681 59.5745 11.9952 3.10681 
58.5283 14.9745 3.10681 58.5283 11.9952 5.42651 -53.5954 20.2662 3.10681 
-48.9949 20.2662 10.1997 56.3813 20.2662 3.10681 50.2573 28.2407 3.10681 
-50.8299 28.5373 3.10681 -48.9949 31.2835 3.10681 -48.9949 28.5373 5.8745 
49.9758 28.5373 3.10681 41.9863 35.0614 3.10681 -44.1654 36.8083 3.10681 
-40.7239 39.6537 3.10681 -40.7239 36.8083 6.70118 -32.4529 44.3968 3.10681 
-32.4529 36.8083 11.1529 39.5363 36.8083 3.10681 33.7153 40.9459 3.10681 
33.7153 36.8083 9.98972 -30.8935 45.0793 3.10681 -24.1819 47.4821 3.10681 
-24.1819 45.0793 6.72132 -15.9109 49.2951 3.10681 -15.9109 45.0793 9.11132 
-7.63983 50.0243 3.10681 -7.63983 45.0793 10.2118 0.631183 50.0538 3.10681 
0.631183 45.0793 10.2927 8.9022 49.939 3.10681 8.9022 45.0793 10.3162 
17.1732 48.9474 3.10681 17.1732 45.0793 9.32434 26.7672 45.0793 3.10681 
25.4442 45.8141 3.10681 25.4442 45.0793 4.56458 -15.9109 -49.3968 11.3778 
-7.63983 -51.0354 11.3778 0.631183 -50.6017 11.3778 8.9022 -48.304 11.3778 
-32.4529 -38.8492 11.3778 -22.9715 -45.9019 11.3778 -24.1819 -45.1103 11.3778 
-15.9109 -45.9019 14.5727 -7.63983 -45.9019 16.0115 0.631183 -45.9019 15.4958 
15.3783 -45.9019 11.3778 8.9022 -45.9019 13.5291 17.1732 -45.1404 11.3778 
25.4442 -41.9639 11.3778 -34.114 -37.6309 11.3778 -40.7239 -31.7286 11.3778 
-32.4529 -37.6309 12.279 -24.1819 -37.6309 16.081 -15.9109 -37.6309 18.4875 
0.631183 -37.6309 19.5547 8.9022 -37.6309 18.1997 17.1732 -37.6309 16.7429 
33.0897 -37.6309 11.3778 25.4442 -37.6309 14.8965 33.7153 -37.2861 11.3778 
41.9863 -31.7814 11.3778 -43.0742 -29.3599 11.3778 -40.7239 -29.3599 12.9558 
-32.4529 -29.3599 16.5106 -24.1819 -29.3599 18.4187 17.1732 -29.3599 19.5732 
25.4442 -29.3599 19.3062 33.7153 -29.3599 17.8369 45.0144 -29.3599 11.3778 
41.9863 -29.3599 13.58 50.2573 -23.5964 11.3778 -48.9431 -21.0888 11.3778 
-48.9949 -20.8703 11.3778 -40.7239 -21.0888 16.5047 -32.4529 -21.0888 18.6505 
-24.1819 -21.0888 19.191 41.9863 -21.0888 18.9441 51.9757 -21.0888 11.3778 
50.2573 -21.0888 13.2614 -50.4504 -12.8178 11.3778 -48.9949 -12.8178 12.7721 
-40.7239 -12.8178 18.356 -32.4529 -12.8178 19.5223 -24.1819 -12.8178 19.4242 
-15.9109 -12.8178 19.0657 55.5309 -12.8178 11.3778 50.2573 -12.8178 16.3969 
[...]
POINT_DATA 536
SCALARS ImageScalars float
LOOKUP_TABLE default
0 0 0 0 0 0 0 0 0 
0 0 0 0 0 0 0 0 0 
0 0 0 0 0 0 0 0 0 
0 0 0 0 0 0 0 0 0 
0 0 0 0 0 0 0 0 0 
0 0 0 0 0 0 0 0 0 
0 0 0 0 0 0 0 0 0 
0 0 0 0 0 0 0 0 0 
0 0 0 0 0 0 0 0 0 
0 0 0 0 0 0 0 0 0 
0 0 0 0 0 0 0 0 0 
0 0 0 0 0 0 0 0 0 
0 0 0 0 0 0 0 0 0 
0 0 0 0 0 0 0 0 0 
0 0 0 0 0 0 0 0 0 
0 0 0 0 0 0 0 0 0 
0 0 0 0 0 0 0 0 0 
0 0 0 0 0 0 0 0 0 
0 0 0 0 0 0 0 0 0 
0 0 0 0 0 0 0 0 0 
0 0 0 0 0 0 0 0 0 
0 0 0 0 0 0 0 0 0 
0 0 0 0 0 0 0 0 0 
0 0 0 0 0 0 0 0 0 
0 0 0 0 0 0 0 0 0 
0 0 0 0 0 0 0 0 0 
0 0 0 0 0 0 0 0 0 
0 0 0 0 0 0 0 0 0 
0 0 0 0 0 0 0 0 0 
0 0 0 0 0 0 0 0 0 
0 0 0 0 0 0 0 0 0 
0 0 0 0 0 0 0 0 0 
0 0 0 0 0 0 0 0 0 
0 0 0 0 0 0 0 0 0 
0 0 0 0 0 0 0 0 0 
0 0 0 0 0 0 0 0 0 
0 0 0 0 0 0 0 0 0 
0 0 0 0 0 0 0 0 0 
0 0 0 0 0 0 0 0 0 
0 0 0 0 0 0 0 0 0 
0 0 0 0 0 0 0 0 0 
0 0 0 0 0 0 0 0 0 
0 0 0 0 0 0 0 0 0 
0 0 0 0 0 0 0 0 0 
0 0 0 0 0 0 0 0 0 
0 0 0 0 0 0 0 0 0 
0 0 0 0 0 0 0 0 0 
0 0 0 0 0 0 0 0 0 
0 0 0 0 0 0 0 0 0 
0 0 0 0 0 0 0 0 0 
0 0 0 0 0 0 0 0 0 
0 0 0 0 0 0 0 0 0 
0 0 0 0 0 0 0 0 0 
0 0 0 0 0 0 0 0 0 
0 0 0 0 0 0 0 0 0 
0 0 0 0 0 0 0 0 0 
0 0 0 0 0 0 0 0 0 
0 0 0 0 0 0 0 0 0 
0 0 0 0 0 0 0 0 0 
0 0 0 0 0 
NORMALS Normals float
0.193352 0.480204 0.855581 0.0491981 0.390112 0.919452 -0.0421795 0.316411 0.947684 
-0.0845801 0.242148 0.966546 -0.0470903 0.237886 0.970151 -0.0143697 0.281982 0.959312 
-0.0464326 0.344896 0.937492 0.259647 0.383659 0.886222 0.034725 0.275751 0.960602 
-0.067184 0.158161 0.985125 -0.101632 0.112958 0.988388 -0.11792 0.0580206 0.991327 
-0.0167285 0.0470835 0.998751 0.0373913 0.114436 0.992727 0.021059 0.132101 0.991013 
-0.0101767 0.230788 0.972951 -0.153263 0.392738 0.90679 0.471107 0.234743 0.850267 
0.161738 0.155894 0.974442 -0.0699101 0.0657275 0.995386 -0.103084 0.0491219 0.993459 
-0.146288 -0.019179 0.989056 -0.158544 0.0803981 0.984073 0.011646 0.167432 0.985815 
0.07309 0.0492416 0.996109 0.0616163 -0.030645 0.997629 0.105585 0.0414907 0.993544 
-0.0372305 0.147398 0.988376 -0.227011 0.280285 0.932687 0.394958 0.0975467 0.913506 
0.0936916 0.0319299 0.995089 -0.0673543 0.0345122 0.997132 -0.162735 -0.011346 0.986605 
-0.0632541 -0.0786562 0.994893 0.103451 0.225853 0.968653 -0.0485841 0.135857 0.989536 
-0.202117 0.138548 0.969512 0.0269115 -0.0653226 0.997501 0.163418 -0.00261123 0.986553 
0.0910541 0.0310613 0.995361 -0.123215 0.148503 0.981206 -0.379262 0.160156 0.911324 
0.433732 0.026713 0.900646 0.077996 0.0399507 0.996153 -0.113831 0.041799 0.99262 
-0.211327 0.0263914 0.977059 0.0643962 0.0771956 0.994934 0.0694516 0.17146 0.98274 
-0.119547 -0.171606 0.977886 -0.126302 0.285862 0.949911 -0.0228824 0.0313142 0.999248 
0.191578 0.0481659 0.980295 0.108814 0.0699095 0.991601 -0.0925512 0.0166762 0.995568 
-0.366919 0.0546069 0.928649 0.470333 -0.00379983 0.882481 0.108923 0.00610583 0.994031 
-0.076779 0.0453603 0.996016 -0.125663 0.0911342 0.987878 0.0759516 0.159012 0.984351 
-0.0467219 -0.0521953 0.997543 -0.0240314 0.209422 0.97753 -0.0962988 -0.159094 0.982556 
-0.117682 0.133224 0.984074 0.189278 0.0860477 0.978146 0.0627283 0.067321 0.995758 
-0.127467 0.0135532 0.99175 -0.337219 -0.000325194 0.941426 0.459313 -0.0825946 0.884426 
0.139161 -0.0285579 0.989858 -0.0296974 0.0772039 0.996573 -0.108233 0.101632 0.988917 
-0.0486 0.102897 0.993504 -0.0234393 -0.0922164 0.995463 -0.072169 0.0883123 0.993475 
-0.0815879 -0.149655 0.985366 0.0521591 0.127022 0.990528 0.147254 0.0496566 0.987851 
0.0343208 -0.039281 0.998639 -0.165195 -0.0311621 0.985769 -0.396157 -0.0839944 0.914333 
0.575448 -0.200919 0.792774 0.254301 -0.0652856 0.964919 0.06066 -0.0260713 0.997818 
-0.0991664 0.107467 0.989251 -0.10749 0.111431 0.987942 -0.0998672 0.0984938 0.990114 
-0.0588071 0.0884835 0.99434 -0.0076032 0.0879413 0.996097 0.0354836 0.118173 0.992359 
0.0308922 -0.0276786 0.999139 -0.02301 -0.126182 0.99174 -0.162417 -0.240151 0.957052 
-0.514146 -0.355938 0.78036 0.710434 -0.405303 0.575337 0.276264 -0.278359 0.919888 
0.145189 -0.156621 0.976929 0.0295405 -0.0647965 0.997461 -0.0597718 0.026074 0.997871 
-0.039985 0.101875 0.993993 -0.0878565 0.126552 0.988062 -0.0470018 0.0837436 0.995378 
-0.071242 0.0126766 0.997379 -0.0994361 -0.12164 0.987581 -0.180161 -0.312508 0.932674 
-0.342081 -0.458605 0.82016 0.463715 -0.521865 0.715979 0.277536 -0.398452 0.874191 
0.0829556 -0.283921 0.955252 0.0534707 -0.154298 0.986576 0.000287618 -0.116258 0.993219 
-0.074798 -0.0976705 0.992404 -0.12147 -0.103513 0.987183 -0.163092 -0.205889 0.964889 
-0.309059 -0.338554 0.888743 0.27117 -0.65339 0.706787 0.122017 -0.544071 0.830119 
0.00586826 -0.503789 0.863807 -0.0640424 -0.501762 0.862632 -0.1624 -0.508706 0.845484 
-0.280918 -0.58279 0.762522 0.224214 0.541251 0.810417 0.0664403 0.501713 0.862479 
0.202495 0.760654 0.616767 0.00631209 0.435738 0.900052 0.0869732 0.623329 0.777108 
-0.0622945 0.343406 0.937119 -0.0147342 0.550064 0.834992 -0.0491339 0.273248 0.960688 
-0.0671926 0.527107 0.847138 -0.0201842 0.304261 0.952375 -0.116594 0.613572 0.780983 
-0.0493328 0.356527 0.932982 -0.221408 0.741006 0.633946 0.276155 0.557852 0.782649 
0.363431 0.587241 0.723233 0.467247 0.736234 0.48953 -0.0825913 0.367024 0.926538 
-0.155607 0.392742 0.906388 -0.197764 0.441975 0.874956 -0.225161 0.500868 0.835723 
-0.402131 0.715574 0.571178 0.545023 0.500181 0.672881 0.583793 0.465562 0.66516 
0.64916 0.541294 0.534408 -0.295146 0.487794 0.821551 -0.318043 0.467628 0.824726 
-0.361776 0.543532 0.757424 -0.673083 0.707802 0.21442 0.704519 0.293367 0.646211 
-0.441382 0.369947 0.817509 -0.453234 0.359998 0.815463 -0.469597 0.383608 0.795188 
0.76169 0.063823 0.644791 0.972722 0.0616472 0.223632 -0.584544 0.180041 0.791134 
-0.884498 0.233557 0.403875 0.821021 -0.0375244 0.569663 -0.617361 0.0535464 0.784855 
-0.820693 0.0736923 0.566597 0.827319 -0.0174694 0.561461 -0.628584 -0.00323992 0.777735 
-0.816245 -0.0362058 0.57657 0.827295 -0.083772 0.555487 -0.661224 -0.154086 0.734193 
-0.895007 -0.216754 0.389846 0.768344 -0.248698 0.589743 -0.588592 -0.397018 0.704227 
-0.561144 -0.448201 0.695869 0.715514 -0.407989 0.567084 0.71333 -0.412985 0.566219 
-0.362217 -0.493401 0.790794 -0.44052 -0.518358 0.732971 -0.395244 -0.544394 0.739877 
-0.697199 -0.685755 0.208931 0.544859 -0.558444 0.625514 0.49609 -0.604683 0.6231 
0.38167 -0.683295 0.622443 -0.374004 -0.493575 0.785178 -0.38914 -0.534819 0.750026 
-0.401521 -0.539728 0.739915 0.357963 -0.718779 0.596003 0.411896 -0.804153 0.428579 
0.268919 -0.786649 0.555758 0.140306 -0.828904 0.54151 0.0248191 -0.787738 0.615511 
-0.0629451 -0.765101 0.640826 -0.159963 -0.741866 0.651189 -0.349352 -0.643976 0.680623 
-0.292504 -0.683396 0.668888 -0.480945 -0.80276 0.352517 0.309577 0.878446 0.364 
0.165771 0.883646 0.437824 0.0361626 0.880103 0.473403 0.0660707 0.995967 -0.0606943 
-0.0820031 0.862349 0.499629 -0.179675 0.86401 0.470323 -0.284985 0.853159 0.436925 
0.549904 0.817286 0.172191 0.447062 0.874472 0.188239 0.448834 0.874145 0.185522 
-0.38971 0.85668 0.337973 -0.398686 0.855444 0.330553 -0.431002 0.886136 0.170296 
-0.488822 0.804125 0.338285 0.620172 0.773017 0.133533 0.723401 0.682181 0.106395 
-0.513495 0.804949 0.297288 -0.529279 0.801946 0.277032 -0.674901 0.711114 0.197044 
0.838489 0.536107 0.0975966 -0.678036 0.708239 0.196633 0.956071 0.292816 0.0136498 
0.985688 0.168173 0.0116731 -0.849664 0.485965 0.204716 -0.909683 0.373103 0.182402 
0.998049 0.0584964 0.0218022 0.996112 -0.0877251 -0.00813546 0.982381 0.0547376 -0.178693 
-0.948251 0.255604 0.188378 0.995987 -0.0891059 -0.00833099 -0.972718 0.0871936 0.214981 
0.999866 -0.0161412 0.00274542 -0.977066 -0.0884826 0.193682 0.996393 -0.078665 0.0318103 
-0.957535 -0.243578 0.154262 -0.92222 -0.360842 0.138935 0.97043 -0.239479 0.0302571 
-0.879063 -0.455209 0.141539 0.907503 -0.416302 0.0559449 0.795225 -0.605784 0.025361 
-0.583027 -0.800917 0.136421 -0.711463 -0.689159 0.137402 -0.700307 -0.700613 0.136789 
-0.708125 -0.694531 -0.127224 0.726711 -0.686768 0.0155012 0.57508 -0.818097 -0.000731153 
-0.580738 -0.802308 0.138003 -0.556976 -0.819321 0.13598 0.479802 -0.877336 -0.00849219 
0.416268 -0.909239 -0.00237771 0.413377 -0.84234 -0.345806 0.247894 -0.968709 -0.0122724 
0.148222 -0.988768 -0.0192014 0.0626298 -0.997809 -0.0213172 -0.0142578 -0.999775 -0.0157141 
-0.118584 -0.992634 0.0247993 -0.285465 -0.954986 0.0806887 -0.510882 -0.849451 0.132033 
-0.482462 -0.865224 0.136444 0.0660798 0.995951 -0.0609584 0.411775 0.893565 -0.17884 
0.0661986 0.995942 -0.0609744 0.237201 0.967535 -0.0872497 0.0614803 0.996239 -0.0610652 
0.0660802 0.995942 -0.0611029 -0.0961539 0.993308 -0.0639759 -0.232932 0.966834 -0.10476 
-0.351204 0.924534 -0.147962 -0.460689 0.875752 -0.144309 0.586104 0.74324 -0.322607 
0.526487 0.81107 -0.254906 0.534054 0.800225 -0.272812 0.431271 0.694816 -0.575531 
-0.285808 0.738396 -0.610807 -0.467113 0.872348 -0.144272 -0.453088 0.86843 -0.201348 
-0.516157 0.842939 -0.151776 0.617442 0.71215 -0.334076 0.726117 0.589868 -0.353284 
0.569947 0.678745 -0.463104 -0.551037 0.821649 -0.145777 -0.418622 0.722018 -0.550859 
-0.567478 0.809792 -0.149015 -0.702992 0.690263 -0.171287 0.772821 0.518775 -0.365543 
0.709947 0.517339 -0.477845 -0.706441 0.686596 -0.171835 -0.702935 0.686069 -0.187593 
0.894026 0.266145 -0.360395 0.680585 0.24571 -0.690239 -0.861968 0.46076 -0.211452 
-0.917247 0.333598 -0.217645 0.918273 0.0461532 -0.393249 -0.943418 0.246525 -0.221782 
-0.909548 0.246975 -0.334254 0.92562 -0.0755782 -0.370832 -0.971945 0.0787311 -0.221638 
-0.870427 0.0762089 -0.486362 0.933887 -0.000648288 -0.357567 -0.96839 -0.0927234 -0.231568 
-0.873988 -0.101875 -0.475148 0.926552 -0.0710163 -0.369403 -0.935884 -0.257547 -0.240396 
-0.912283 -0.328409 -0.24472 -0.904969 -0.259801 -0.336949 0.905144 -0.232316 -0.356012 
0.729492 -0.235518 -0.642162 -0.847065 -0.4632 -0.260626 -0.700157 -0.676516 -0.228269 
0.804901 -0.446861 -0.390448 0.756926 -0.523941 -0.390575 0.741421 -0.447708 -0.499853 
-0.693225 -0.683769 -0.227813 -0.576974 -0.780919 -0.239305 0.606027 -0.677708 -0.416465 
0.534401 -0.727568 -0.430186 0.496355 -0.653837 -0.571077 0.400539 -0.797565 -0.451064 
0.326671 -0.572006 -0.752393 -0.561581 -0.791907 -0.239811 -0.52543 -0.810572 -0.258644 
-0.445846 -0.701824 -0.555576 0.376474 -0.814011 -0.442327 0.256056 -0.867638 -0.426193 
0.256117 -0.790115 -0.556887 0.139197 -0.89618 -0.42129 0.13039 -0.753967 -0.643841 
0.043936 -0.898847 -0.436055 0.0474457 -0.734657 -0.676778 -0.00483348 -0.897853 -0.440269 
0.00396792 -0.737158 -0.675709 -0.063234 -0.909773 -0.410262 -0.0342492 -0.739289 -0.672516 
-0.221973 -0.906635 -0.358806 -0.166565 -0.779144 -0.60431 -0.443712 -0.853143 -0.274347 
-0.425587 -0.860274 -0.280722 -0.414398 -0.844918 -0.338214 0.270965 0.741749 -0.613504 
0.0573172 0.806816 -0.588016 -0.126464 0.777051 -0.616602 -0.242735 0.721445 -0.648534 
0.443058 0.550777 -0.70735 0.401812 0.667955 -0.626405 0.418971 0.650522 -0.633471 
0.242977 0.594464 -0.766535 0.0460914 0.565913 -0.823176 -0.125521 0.564745 -0.815664 
-0.26415 0.697079 -0.666562 -0.230595 0.632633 -0.739325 -0.266523 0.689988 -0.672965 
-0.341196 0.702004 -0.62512 0.448427 0.541596 -0.711047 0.474788 0.507857 -0.718789 
0.425879 0.522456 -0.738693 0.331624 0.361754 -0.871298 0.208367 0.292763 -0.933206 
-0.0961129 0.29349 -0.951118 -0.151942 0.341818 -0.927402 -0.175216 0.442512 -0.879479 
-0.402713 0.704776 -0.584049 -0.268976 0.566867 -0.778662 -0.407294 0.705381 -0.580129 
-0.50096 0.65242 -0.568672 0.509107 0.471907 -0.719801 0.450761 0.460151 -0.764903 
0.268883 0.332104 -0.904107 0.208394 0.176142 -0.962053 -0.0483543 0.224264 -0.973328 
-0.0920187 0.341767 -0.935269 -0.268605 0.458373 -0.847199 -0.547672 0.611946 -0.570594 
-0.468773 0.586296 -0.660688 -0.670249 0.480371 -0.565695 0.678041 0.245768 -0.692718 
0.679971 0.240786 -0.692576 0.364618 0.258312 -0.894611 0.155828 0.171863 -0.972718 
0.0737096 0.0581851 -0.995581 -0.328091 0.318787 -0.889231 -0.703456 0.418991 -0.574105 
-0.65271 0.401428 -0.642514 0.705946 0.05899 -0.705804 0.669466 0.0606389 -0.740363 
0.344451 0.0879941 -0.934671 0.0519862 0.0771272 -0.995665 -0.0277524 0.0576563 -0.997951 
0.0965221 -0.0265255 -0.994977 -0.771483 0.233392 -0.591897 -0.585241 0.187207 -0.788953 
0.747907 -0.0255601 -0.663311 0.711004 -0.0179755 -0.702958 0.368848 -0.0228293 -0.929209 
0.0635935 0.065859 -0.9958 -0.803239 0.0721464 -0.591271 -0.536502 0.0463505 -0.842625 
0.754214 -0.0161141 -0.656431 0.723983 -0.0185935 -0.689568 0.378135 -0.00928721 -0.925704 
0.205946 -0.119556 -0.971232 -0.794128 -0.103179 -0.598928 -0.521583 -0.101111 -0.847188 
0.717052 -0.0890141 -0.691313 0.703821 -0.160821 -0.691934 0.690324 -0.0902172 -0.717854 
0.359374 -0.104752 -0.927296 0.0777178 -0.102933 -0.991648 -0.00871744 -0.0986815 -0.995081 
-0.00316231 -0.0731241 -0.997318 0.00354929 -0.0897463 -0.995958 0.0789192 -0.0168787 -0.996738 
-0.246778 -0.179444 -0.952313 -0.735713 -0.257314 -0.626511 -0.561447 -0.237987 -0.792552 
0.666835 -0.238609 -0.705972 0.369366 -0.262718 -0.891374 0.145839 -0.210799 -0.966589 
0.0455934 -0.130892 -0.990348 0.0350506 -0.0527885 -0.99799 0.00797417 -0.028483 -0.999562 
0.0158731 -0.0197113 -0.99968 0.0572027 -0.0913048 -0.994179 -0.14414 -0.209889 -0.967042 
-0.329587 -0.351741 -0.876157 -0.649811 -0.423543 -0.631155 -0.631563 -0.452761 -0.629393 
-0.620029 -0.416716 -0.664765 0.479578 -0.437771 -0.760501 0.424291 -0.483925 -0.765371 
0.411969 -0.436397 -0.799899 0.323066 -0.561067 -0.762123 0.247535 -0.358804 -0.899993 
0.147813 -0.258613 -0.954605 0.0973788 -0.175359 -0.979677 0.0364036 -0.160951 -0.986291 
0.0142565 -0.150642 -0.988486 0.0139506 -0.168894 -0.985535 -0.0370679 -0.177548 -0.983414 
-0.131619 -0.282346 -0.950241 -0.420451 -0.657402 -0.625335 -0.304439 -0.419071 -0.855393 
-0.502081 -0.580858 -0.640718 -0.484379 -0.59423 -0.642081 -0.469179 -0.565351 -0.678416 
0.318358 -0.564553 -0.76153 0.23227 -0.602252 -0.763769 0.216877 -0.485343 -0.846999 
0.129384 -0.656098 -0.743502 0.130399 -0.446261 -0.885351 0.0510756 -0.684878 -0.726865 
0.0401931 -0.43011 -0.901881 0.00503407 -0.690207 -0.723594 0.00719391 -0.426789 -0.904323 
-0.0298548 -0.692127 -0.721158 0.0100097 -0.441759 -0.897078 -0.140869 -0.70397 -0.696119 
-0.0923737 -0.473951 -0.875693 -0.401953 -0.666136 -0.628249 -0.322073 -0.682462 -0.656136 
-0.28565 -0.559715 -0.777896 0.0593482 0.290735 -0.954961 0.0844772 0.277318 -0.957057 
0.177048 0.144515 -0.973535 -0.0515381 0.288651 -0.956046 0.0597985 0.275276 -0.959504 
-0.0944159 0.284317 -0.95407 -0.106386 0.197124 -0.974589 0.174146 0.107261 -0.978861 
0.161155 0.0791249 -0.983752 0.0527684 0.0933404 -0.994235 -0.0610788 0.14595 -0.987405 
-0.0535966 0.21413 -0.975334 -0.0897478 0.147289 -0.985013 -0.0431984 0.215253 -0.975603 
-0.0742516 0.307108 -0.948773 -0.186634 0.31656 -0.930031 0.110937 -0.0226434 -0.993569 
0.121731 -0.0538301 -0.991102 0.131825 -0.0656245 -0.989098 0.126771 -0.000617476 -0.991932 
-0.0454183 0.107993 -0.993114 -0.0683965 0.0682127 -0.995324 0.0347984 0.0765455 -0.996459 
0.00617609 0.13118 -0.991339 -0.258153 0.280641 -0.924444 -0.138461 0.220436 -0.965524 
-0.297351 0.226277 -0.927567 0.0690764 0.063501 -0.995588 -0.029003 0.0554026 -0.998043 
0.138114 -0.0227132 -0.990156 0.236588 -0.0160104 -0.971478 0.00338048 -0.0401307 -0.999189 
-0.118799 0.138796 -0.98317 0.0190227 -0.0169699 -0.999675 0.0518937 0.012404 -0.998576 
-0.0706659 0.0635161 -0.995476 -0.327049 0.133158 -0.935579 -0.269698 0.13042 -0.954072 
0.164853 0.0151853 -0.986201 0.11848 0.0262987 -0.992608 0.0362079 0.0614711 -0.997452 
-0.0320973 0.0500233 -0.998232 0.0673539 0.0556636 -0.996175 0.05301 0.0415597 -0.997729 
0.0975296 -0.0267751 -0.994872 0.189047 -0.140955 -0.971799 0.120008 -0.210864 -0.970121 
-0.0487135 0.158839 -0.986102 -0.0891197 -0.0235566 -0.995742 0.0893274 -0.0413899 -0.995142 
-0.00956535 -0.016392 -0.99982 -0.372983 0.0289982 -0.927385 -0.236986 0.0181675 -0.971343 
0.167143 -0.0362802 -0.985265 0.105272 -0.0706034 -0.991934 0.131017 -0.0427703 -0.990457 
-0.00313776 -0.0839516 -0.996465 0.0117611 -0.0433644 -0.99899 0.011894 -0.0455862 -0.99889 
0.0277647 -0.019614 -0.999422 0.145108 -0.119581 -0.982163 -0.00659278 -0.0953234 -0.995425 
-0.0391742 -0.112611 -0.992867 0.195144 -0.122816 -0.973055 0.0490144 -0.129663 -0.990346 
-0.179772 -0.0279917 -0.98331 0.0551003 -0.0671507 -0.99622 -0.0125513 -0.0936738 -0.995524 
-0.313379 -0.106747 -0.943609 -0.239524 -0.165092 -0.956751 -0.217535 -0.111194 -0.969698 
0.0731631 -0.0916211 -0.993103 0.0569716 -0.120161 -0.991118 0.0513441 -0.268603 -0.961882 
-0.0186828 -0.0267129 -0.999469 0.0209943 -0.0592403 -0.998023 -0.200152 -0.164563 -0.965846 
-0.118803 -0.18269 -0.975966 -0.055391 -0.11758 -0.991517 0.0471121 -0.079884 -0.99569 
0.00396699 -0.104178 -0.994551 0.0301415 -0.0597587 -0.997758 -0.0906951 -0.160824 -0.982807 
-0.0547182 -0.146076 -0.987759 -0.036375 -0.111888 -0.993055 
