# vtk DataFile Version 4.2
vtk output
ASCII
DATASET POLYDATA
POINTS 514 float
-23.519 -43.477 -14.5176 -15.515 -43.477 -17.0783 -7.51101 -43.477 -17.6574 
0.492972 -43.477 -17.7912 8.49696 -43.477 -16.4796 -31.523 -35.473 -16.3961 
-23.519 -35.473 -18.7142 -15.515 -35.473 -20.1123 -7.51101 -35.473 -20.2629 
0.492972 -35.473 -20.2643 8.49696 -35.473 -19.67 16.5009 -35.473 -17.9583 
-39.527 -27.469 -14.6446 -31.523 -27.469 -18.6862 -23.519 -27.469 -20.2032 
-15.515 -27.469 -20.7084 -7.51101 -27.469 -20.4182 0.492972 -27.469 -20.5982 
8.49696 -27.469 -20.3796 16.5009 -27.469 -19.8989 24.5049 -27.469 -18.289 
32.5089 -27.469 -14.7694 -39.527 -19.4651 -17.1105 -31.523 -19.4651 -20.4516 
-23.519 -19.4651 -21.1015 -15.515 -19.4651 -20.3748 -7.51101 -19.4651 -19.3827 
0.492972 -19.4651 -19.6008 8.49696 -19.4651 -20.0425 16.5009 -19.4651 -20.6361 
24.5049 -19.4651 -19.967 32.5089 -19.4651 -17.9438 -47.5309 -11.4611 -14.4943 
-39.527 -11.4611 -18.9108 -31.523 -11.4611 -20.6852 -23.519 -11.4611 -21.0094 
-15.515 -11.4611 -20.226 -7.51101 -11.4611 -19.4272 0.492972 -11.4611 -19.4071 
8.49696 -11.4611 -19.4691 16.5009 -11.4611 -20.5153 24.5049 -11.4611 -20.152 
32.5089 -11.4611 -19.0099 40.5129 -11.4611 -16.706 -47.5309 -3.45709 -16.2444 
-39.527 -3.45709 -19.549 -31.523 -3.45709 -20.9421 -23.519 -3.45709 -20.548 
-15.515 -3.45709 -20.3581 -7.51101 -3.45709 -22.0036 0.492972 -3.45709 -20.4865 
8.49696 -3.45709 -19.5991 16.5009 -3.45709 -20.3304 24.5049 -3.45709 -20.1095 
32.5089 -3.45709 -19.5008 40.5129 -3.45709 -18.5907 48.5169 -3.45709 -16.2615 
-47.5309 4.54689 -16.0998 -39.527 4.54689 -19.6224 -31.523 4.54689 -20.7132 
-23.519 4.54689 -20.1669 -15.515 4.54689 -19.0349 -7.51101 4.54689 -20.6005 
0.492972 4.54689 -18.789 8.49696 4.54689 -20.158 16.5009 4.54689 -20.54 
24.5049 4.54689 -19.9298 32.5089 4.54689 -19.7696 40.5129 4.54689 -19.2938 
48.5169 4.54689 -16.9595 -47.5309 12.5509 -16.2831 -39.527 12.5509 -19.3431 
-31.523 12.5509 -20.4936 -23.519 12.5509 -20.3698 -15.515 12.5509 -19.7798 
-7.51101 12.5509 -20.0799 0.492972 12.5509 -19.8641 8.49696 12.5509 -19.6533 
16.5009 12.5509 -18.6233 24.5049 12.5509 -18.3048 32.5089 12.5509 -18.8496 
40.5129 12.5509 -18.2141 48.5169 12.5509 -16.2018 -47.5309 20.5549 -15.2624 
-39.527 20.5549 -18.893 -31.523 20.5549 -21.2471 -23.519 20.5549 -21.0836 
-15.515 20.5549 -20.3313 -7.51101 20.5549 -19.5708 0.492972 20.5549 -18.8557 
8.49696 20.5549 -17.6758 16.5009 20.5549 -15.8101 24.5049 20.5549 -15.5011 
32.5089 20.5549 -16.0629 40.5129 20.5549 -15.5245 -39.527 28.5588 -17.2203 
-31.523 28.5588 -19.4875 -23.519 28.5588 -20.3417 -15.515 28.5588 -19.3216 
-7.51101 28.5588 -18.4514 0.492972 28.5588 -17.2573 8.49696 28.5588 -15.3487 
-31.523 36.5628 -15.6884 -23.519 36.5628 -16.7683 -15.515 36.5628 -16.2968 
-7.51101 36.5628 -15.1364 -23.519 -43.8987 -14.1057 -15.515 -46.4499 -14.1057 
-7.51101 -48.1123 -14.1057 -7.51101 -51.481 -6.67673 0.492972 -47.9808 -14.1057 
0.492972 -51.481 -6.66377 8.49696 -45.7271 -14.1057 -24.2457 -43.477 -14.1057 
-31.523 -38.4583 -14.1057 12.8515 -43.477 -14.1057 16.5009 -41.1448 -14.1057 
16.5009 -43.477 -10.6861 -34.4438 -35.473 -14.1057 -39.527 -28.3329 -14.1057 
24.0946 -35.473 -14.1057 24.5049 -35.0826 -14.1057 24.5049 -35.473 -13.7655 
32.5089 -28.4263 -14.1057 32.5089 -35.473 -6.14142 -40.0923 -27.469 -14.1057 
33.5607 -27.469 -14.1057 40.5129 -27.469 -7.66667 -43.7304 -19.4651 -14.1057 
-47.5309 -12.417 -14.1057 -47.5309 -19.4651 -9.1516 40.1638 -19.4651 -14.1057 
40.5129 -18.976 -14.1057 40.5129 -19.4651 -13.8941 48.5169 -19.4651 -6.22793 
-47.9482 -11.4611 -14.1057 46.3737 -11.4611 -14.1057 48.5169 -8.99437 -14.1057 
48.5169 -11.4611 -12.8361 -49.8891 -3.45709 -14.1057 51.8834 -3.45709 -14.1057 
56.5209 -3.45709 -10.062 -49.826 4.54689 -14.1057 54.2766 4.54689 -14.1057 
56.5209 4.54689 -12.5255 -50.0375 12.5509 -14.1057 52.577 12.5509 -14.1057 
48.5169 18.3489 -14.1057 56.5209 12.5509 -11.333 -48.7931 20.5549 -14.1057 
-47.5309 23.0071 -14.1057 16.5009 27.0045 -14.1057 24.5049 24.0967 -14.1057 
32.5089 24.2696 -14.1057 45.6166 20.5549 -14.1057 40.5129 22.8357 -14.1057 
48.5169 20.5549 -13.1363 56.5209 20.5549 -6.88624 -43.7306 28.5588 -14.1057 
-47.5309 28.5588 -9.20558 -39.527 33.3044 -14.1057 0.492972 35.5377 -14.1057 
14.4915 28.5588 -14.1057 8.49696 31.3572 -14.1057 16.5009 28.5588 -13.6653 
24.5049 28.5588 -12.5054 32.5089 28.5588 -11.8496 40.5129 28.5588 -9.92224 
-34.9971 36.5628 -14.1057 -39.527 36.5628 -10.3833 -31.523 38.2195 -14.1057 
-23.519 39.5419 -14.1057 -15.515 39.48 -14.1057 -2.0996 36.5628 -14.1057 
-7.51101 37.8982 -14.1057 0.492972 36.5628 -13.4994 8.49696 36.5628 -11.2182 
16.5009 36.5628 -9.57432 24.5049 36.5628 -7.71921 -7.51101 -51.6671 -6.10171 
0.492972 -51.6805 -6.10171 -23.519 -47.7684 -6.10171 -8.66749 -51.481 -6.10171 
-15.515 -50.3581 -6.10171 -7.51101 -51.481 -4.48552 1.29472 -51.481 -6.10171 
0.492972 -51.481 -4.82909 8.49696 -49.6239 -6.10171 16.5009 -45.6707 -6.10171 
-30.9256 -43.477 -6.10171 -31.523 -43.0782 -6.10171 20.2172 -43.477 -6.10171 
24.5049 -40.7303 -6.10171 32.5089 -35.4999 -6.10171 -39.0011 -35.473 -6.10171 
-39.527 -34.7126 -6.10171 32.5524 -35.473 -6.10171 40.5129 -29.0133 -6.10171 
-44.2968 -27.469 -6.10171 -47.5309 -22.3005 -6.10171 41.9959 -27.469 -6.10171 
48.5169 -19.6089 -6.10171 -49.1422 -19.4651 -6.10171 48.6132 -19.4651 -6.10171 
-52.7237 -11.4611 -6.10171 55.2212 -11.4611 -6.10171 56.5209 -9.43229 -6.10171 
-54.48 -3.45709 -6.10171 59.5619 -3.45709 -6.10171 -55.0756 4.54689 -6.10171 
61.1851 4.54689 -6.10171 -54.7832 12.5509 -6.10171 60.4475 12.5509 -6.10171 
-52.6763 20.5549 -6.10171 48.5169 28.1608 -6.10171 57.0113 20.5549 -6.10171 
56.5209 21.152 -6.10171 56.5209 20.5549 -4.28904 -49.1861 28.5588 -6.10171 
-47.5309 30.917 -6.10171 32.5089 35.732 -6.10171 47.828 28.5588 -6.10171 
40.5129 32.4839 -6.10171 -42.4524 36.5628 -6.10171 -39.527 38.7518 -6.10171 
-31.523 42.5075 -6.10171 -23.519 44.0223 -6.10171 -15.515 44.5089 -6.10171 
-7.51101 44.0703 -6.10171 0.492972 42.7049 -6.10171 8.49696 41.3411 -6.10171 
16.5009 40.3752 -6.10171 30.0103 36.5628 -6.10171 24.5049 38.5639 -6.10171 
32.5089 36.5628 -4.93248 -15.515 44.5668 -5.7317 -7.51101 44.5668 -4.19046 
0.492972 44.5668 -0.906419 8.49696 44.5668 0.612851 16.5009 44.5668 1.05196 
-23.519 -46.5522 1.90227 -15.515 -49.125 1.90227 -7.51101 -50.7221 1.90227 
0.492972 -50.4042 1.90227 8.49696 -48.9509 1.90227 16.5009 -46.0084 1.90227 
-28.9303 -43.477 1.90227 -31.523 -41.7666 1.90227 -23.519 -43.477 7.80929 
21.8656 -43.477 1.90227 16.5009 -43.477 8.75711 24.5049 -42.1775 1.90227 
32.5089 -37.5967 1.90227 -37.6916 -35.473 1.90227 -39.527 -33.0371 1.90227 
35.483 -35.473 1.90227 40.5129 -31.2522 1.90227 -43.3908 -27.469 1.90227 
-47.5309 -20.9886 1.90227 -39.527 -27.469 8.26354 44.2825 -27.469 1.90227 
48.5169 -22.0735 1.90227 -48.4473 -19.4651 1.90227 -47.5309 -19.4651 3.67656 
50.4212 -19.4651 1.90227 48.5169 -19.4651 5.92215 -52.2478 -11.4611 1.90227 
55.3325 -11.4611 1.90227 56.5209 -8.76769 1.90227 -54.4325 -3.45709 1.90227 
58.6472 -3.45709 1.90227 56.5209 -3.45709 5.05833 -55.1739 4.54689 1.90227 
60.2619 4.54689 1.90227 56.5209 4.54689 6.71798 -54.723 12.5509 1.90227 
59.3524 12.5509 1.90227 56.5209 17.2706 1.90227 56.5209 12.5509 4.3841 
-52.5896 20.5549 1.90227 54.6831 20.5549 1.90227 48.5169 27.8221 1.90227 
48.5169 20.5549 7.46954 -48.6981 28.5588 1.90227 -47.5309 30.2019 1.90227 
-47.5309 28.5588 4.632 47.8018 28.5588 1.90227 40.5129 34.841 1.90227 
40.5129 28.5588 9.56584 -41.5785 36.5628 1.90227 -39.527 38.2087 1.90227 
-39.527 36.5628 5.45234 -31.523 42.3061 1.90227 -23.519 44.5595 1.90227 
24.5049 43.9031 1.90227 38.3798 36.5628 1.90227 32.5089 40.4734 1.90227 
-23.4665 44.5668 1.90227 -15.515 45.6503 1.90227 -15.515 44.5668 9.63323 
-7.51101 45.9701 1.90227 0.492972 45.4321 1.90227 8.49696 45.0662 1.90227 
19.6431 44.5668 1.90227 16.5009 44.9318 1.90227 -15.515 -44.7178 9.90626 
-7.51101 -45.9576 9.90626 0.492972 -45.9279 9.90626 8.49696 -44.9481 9.90626 
-31.523 -36.1054 9.90626 -19.569 -43.477 9.90626 -23.519 -41.9646 9.90626 
-15.515 -43.477 11.2616 -7.51101 -43.477 12.2479 0.492972 -43.477 12.3222 
14.551 -43.477 9.90626 8.49696 -43.477 11.4787 16.5009 -42.9323 9.90626 
24.5049 -39.613 9.90626 32.5089 -35.5095 9.90626 -32.1316 -35.473 9.90626 
-31.523 -35.473 10.4833 -23.519 -35.473 14.9809 -15.515 -35.473 16.4791 
-7.51101 -35.473 16.7924 0.492972 -35.473 16.8355 8.49696 -35.473 16.7361 
16.5009 -35.473 16.5158 24.5049 -35.473 13.9547 32.5631 -35.473 9.90626 
32.5089 -35.473 9.95461 40.5129 -28.3211 9.90626 -38.0896 -27.469 9.90626 
-39.527 -25.1902 9.90626 -31.523 -27.469 14.7055 24.5049 -27.469 17.5953 
32.5089 -27.469 15.4775 41.2301 -27.469 9.90626 40.5129 -27.469 10.6534 
-42.9137 -19.4651 9.90626 -47.5309 -12.2106 9.90626 -39.527 -19.4651 12.647 
-31.523 -19.4651 17.2577 32.5089 -19.4651 17.027 45.9473 -19.4651 9.90626 
40.5129 -19.4651 13.7203 48.5169 -13.634 9.90626 -47.9245 -11.4611 9.90626 
-47.5309 -11.4611 10.3122 -39.527 -11.4611 16.0255 32.5089 -11.4611 17.6958 
40.5129 -11.4611 15.1451 49.3634 -11.4611 9.90626 48.5169 -11.4611 10.6035 
-50.3056 -3.45709 9.90626 -47.5309 -3.45709 12.7604 -39.527 -3.45709 17.7998 
32.5089 -3.45709 17.2143 40.5129 -3.45709 15.1254 51.3063 -3.45709 9.90626 
48.5169 -3.45709 11.7811 -51.5205 4.54689 9.90626 -47.5309 4.54689 14.1052 
32.5089 4.54689 15.6387 40.5129 4.54689 14.1581 51.5597 4.54689 9.90626 
48.5169 4.54689 11.5499 -51.1137 12.5509 9.90626 -47.5309 12.5509 13.7681 
24.5049 12.5509 16.7614 32.5089 12.5509 14.3894 40.5129 12.5509 12.7844 
50.2972 12.5509 9.90626 48.5169 15.6228 9.90626 48.5169 12.5509 11.0339 
-49.384 20.5549 9.90626 -47.5309 24.1952 9.90626 -47.5309 20.5549 12.3822 
24.5049 20.5549 17.3952 32.5089 20.5549 14.3969 43.1465 20.5549 9.90626 
40.5129 27.1487 9.90626 40.5129 20.5549 11.0116 -44.5355 28.5588 9.90626 
-39.527 33.8311 9.90626 -39.527 28.5588 14.4273 39.9532 28.5588 9.90626 
[...]
POINT_DATA 514
SCALARS ImageScalars float
LOOKUP_TABLE default
0 0 0 0 0 0 0 0 0 
0 0 0 0 0 0 0 0 0 
0 0 0 0 0 0 0 0 0 
0 0 0 0 0 0 0 0 0 
0 0 0 0 0 0 0 0 0 
0 0 0 0 0 0 0 0 0 
0 0 0 0 0 0 0 0 0 
0 0 0 0 0 0 0 0 0 
0 0 0 0 0 0 0 0 0 
0 0 0 0 0 0 0 0 0 
0 0 0 0 0 0 0 0 0 
0 0 0 0 0 0 0 0 0 
0 0 0 0 0 0 0 0 0 
0 0 0 0 0 0 0 0 0 
0 0 0 0 0 0 0 0 0 
0 0 0 0 0 0 0 0 0 
0 0 0 0 0 0 0 0 0 
0 0 0 0 0 0 0 0 0 
0 0 0 0 0 0 0 0 0 
0 0 0 0 0 0 0 0 0 
0 0 0 0 0 0 0 0 0 
0 0 0 0 0 0 0 0 0 
0 0 0 0 0 0 0 0 0 
0 0 0 0 0 0 0 0 0 
0 0 0 0 0 0 0 0 0 
0 0 0 0 0 0 0 0 0 
0 0 0 0 0 0 0 0 0 
0 0 0 0 0 0 0 0 0 
0 0 0 0 0 0 0 0 0 
0 0 0 0 0 0 0 0 0 
0 0 0 0 0 0 0 0 0 
0 0 0 0 0 0 0 0 0 
0 0 0 0 0 0 0 0 0 
0 0 0 0 0 0 0 0 0 
0 0 0 0 0 0 0 0 0 
0 0 0 0 0 0 0 0 0 
0 0 0 0 0 0 0 0 0 
0 0 0 0 0 0 0 0 0 
0 0 0 0 0 0 0 0 0 
0 0 0 0 0 0 0 0 0 
0 0 0 0 0 0 0 0 0 
0 0 0 0 0 0 0 0 0 
0 0 0 0 0 0 0 0 0 
0 0 0 0 0 0 0 0 0 
0 0 0 0 0 0 0 0 0 
0 0 0 0 0 0 0 0 0 
0 0 0 0 0 0 0 0 0 
0 0 0 0 0 0 0 0 0 
0 0 0 0 0 0 0 0 0 
0 0 0 0 0 0 0 0 0 
0 0 0 0 0 0 0 0 0 
0 0 0 0 0 0 0 0 0 
0 0 0 0 0 0 0 0 0 
0 0 0 0 0 0 0 0 0 
0 0 0 0 0 0 0 0 0 
0 0 0 0 0 0 0 0 0 
0 0 0 0 0 0 0 0 0 
0 
NORMALS Normals float
0.358901 0.666552 0.653375 0.174697 0.574683 0.799512 0.0367616 0.494131 0.86861 
-0.0539328 0.498275 0.86534 -0.289302 0.603043 0.7434 0.463983 0.453414 0.761009 
0.208304 0.314307 0.926186 0.10098 0.190326 0.976514 0.00848594 0.153297 0.988144 
-0.0357939 0.1602 0.986435 -0.135591 0.191094 0.972162 -0.308615 0.39767 0.864069 
0.640407 0.394536 0.658953 0.302202 0.229691 0.925157 0.119111 0.141581 0.982735 
0.0153962 0.0134751 0.999791 -0.00670744 -0.0542145 0.998507 -0.00239181 -0.0415869 0.999132 
-0.0425164 0.0217313 0.998859 -0.119889 0.157624 0.980195 -0.284887 0.312476 0.9062 
-0.451281 0.463065 0.762834 0.485699 0.234525 0.842077 0.221213 0.12033 0.967774 
-0.00838497 0.0543023 0.998489 -0.106596 -0.0296723 0.99386 -0.0483294 -0.061885 0.996912 
0.0414889 -0.0741985 0.99638 0.064223 -0.056714 0.996323 -0.0031098 0.0369041 0.999314 
-0.159069 0.104705 0.9817 -0.331491 0.231141 0.914706 0.670937 0.271973 0.689836 
0.342147 0.136928 0.929616 0.128828 0.0294122 0.991231 -0.0276583 -0.0343877 0.999026 
-0.0996511 -0.00132611 0.995022 -0.0519931 0.167697 0.984467 0.00281233 0.0489377 0.998798 
0.0692126 -0.0277793 0.997215 0.0428017 -0.0190839 0.998901 -0.0952159 0.00845208 0.995421 
-0.204097 0.0899552 0.974809 -0.336364 0.256261 0.906195 0.575453 0.0870314 0.813191 
0.280269 0.0447868 0.958876 0.056122 0.00157747 0.998423 -0.0362946 -0.0519829 0.997988 
0.0894531 -0.0753143 0.993139 0.0179419 0.0736563 0.997122 -0.161462 -0.0394483 0.98609 
-0.00220333 0.0413083 0.999144 0.0315601 0.00150989 0.999501 -0.0515058 -0.0138128 0.998577 
-0.093801 0.0479195 0.994437 -0.192034 0.153724 0.969274 -0.405651 0.211744 0.889164 
0.570005 0.00239948 0.821637 0.256354 -0.0126124 0.966501 0.0319069 -0.0279952 0.999099 
-0.107185 -0.0113856 0.994174 0.0262562 -0.0336154 0.99909 -0.00817666 -0.121802 0.992521 
-0.0291912 -0.0263216 0.999227 0.107923 0.00403345 0.994151 -0.015613 -0.0976635 0.995097 
-0.0478796 -0.106606 0.993148 -0.039247 -0.0383885 0.998492 -0.1654 -0.0258965 0.985886 
-0.339948 -0.00306733 0.940439 0.564273 -0.0476525 0.824212 0.249111 -0.045491 0.967406 
0.0602816 0.0307674 0.997707 -0.0444067 0.0560042 0.997443 -0.0183821 0.0811713 0.996531 
0.00533828 -0.0623436 0.99804 -0.0262822 0.000907901 0.999654 -0.0739734 -0.15003 0.98591 
-0.0838187 -0.293334 0.952329 0.0141882 -0.255505 0.966703 -0.00840144 -0.213327 0.976945 
-0.150573 -0.214627 0.96502 -0.342788 -0.186428 0.920728 0.63965 -0.254486 0.725317 
0.328851 -0.108418 0.938138 0.132273 -0.0646641 0.989102 -0.0568776 0.00194255 0.998379 
-0.0930457 -0.0259487 0.995324 -0.0910557 -0.0971064 0.9911 -0.113997 -0.155529 0.981232 
-0.180912 -0.253923 0.950155 -0.126195 -0.28567 0.949983 0.0131105 -0.340778 0.940053 
-0.000158813 -0.405219 0.91422 -0.144575 -0.45011 0.881192 0.437961 -0.387654 0.81112 
0.157499 -0.291113 0.943635 -0.00595133 -0.241684 0.970337 -0.110646 -0.232883 0.96619 
-0.123776 -0.254115 0.959221 -0.181821 -0.295176 0.937983 -0.210756 -0.339649 0.916635 
0.252624 -0.643686 0.722392 0.029963 -0.58292 0.811977 -0.0941233 -0.521117 0.848279 
-0.151099 -0.537878 0.829371 0.357337 0.686945 0.632785 0.216971 0.72892 0.649306 
0.0786567 0.75092 0.655692 0.0810758 0.987793 0.133013 -0.119976 0.742053 0.659517 
-0.123327 0.984012 0.128494 -0.323643 0.715084 0.619605 0.374086 0.676853 0.63398 
0.515474 0.566207 0.643192 -0.398863 0.682231 0.612755 -0.436072 0.636729 0.635938 
-0.482412 0.763878 0.428682 0.571822 0.508831 0.643514 0.656621 0.414138 0.630348 
-0.472185 0.580869 0.663048 -0.470902 0.577618 0.66679 -0.479668 0.594967 0.644929 
-0.462675 0.490968 0.738161 -0.51125 0.769718 0.382305 0.66454 0.401727 0.630081 
-0.468451 0.476892 0.743726 -0.631604 0.609869 0.478681 0.623331 0.330277 0.708784 
0.681439 0.287635 0.672984 0.828119 0.424252 0.366372 -0.484979 0.371866 0.791524 
-0.482519 0.370137 0.793835 -0.495027 0.380742 0.781015 -0.742591 0.548737 0.383987 
0.687149 0.273656 0.673007 -0.435653 0.371814 0.819732 -0.458583 0.348802 0.817337 
-0.502838 0.434441 0.747272 0.70352 0.0965827 0.704082 -0.531593 0.235838 0.813504 
-0.78543 0.309625 0.535941 0.675771 0.00761038 0.737072 -0.561008 0.0427533 0.826706 
-0.711018 0.0641334 0.700244 0.688935 -0.054822 0.722747 -0.485903 -0.195439 0.851881 
-0.350891 -0.386629 0.852873 -0.740732 -0.219249 0.635016 0.696457 -0.268187 0.6656 
0.674641 -0.330482 0.660031 -0.161897 -0.31707 0.934482 -0.0404832 -0.368166 0.928878 
-0.0476094 -0.433417 0.899935 -0.27027 -0.466671 0.842123 -0.165164 -0.498571 0.850969 
-0.366126 -0.495669 0.787568 -0.780968 -0.584304 0.220631 0.60844 -0.440524 0.660106 
0.792424 -0.500587 0.348537 0.481583 -0.549776 0.682513 -0.194427 -0.534519 0.822489 
-0.178393 -0.331412 0.926467 -0.206321 -0.417296 0.88504 -0.16725 -0.331956 0.928349 
-0.100014 -0.414882 0.904362 -0.134442 -0.497002 0.857271 -0.288742 -0.665662 0.68813 
0.348326 -0.663574 0.662072 0.515314 -0.737443 0.436612 0.253825 -0.718036 0.648073 
0.0650064 -0.717739 0.693271 -0.0741802 -0.660244 0.747379 -0.181454 -0.56008 0.808322 
-0.154961 -0.590919 0.791708 -0.194716 -0.580557 0.790594 -0.189862 -0.610746 0.768728 
-0.178323 -0.585528 0.790796 -0.196608 -0.625732 0.754854 0.0802883 0.991459 0.102778 
-0.121662 0.987831 0.096893 0.384539 0.914384 0.126614 0.100878 0.989582 0.102723 
0.228496 0.96692 0.11338 0.0807481 0.996356 0.0274606 -0.142996 0.984611 0.100465 
-0.120224 0.992071 0.0366232 -0.341563 0.92869 0.144464 -0.487211 0.84578 0.217442 
0.570343 0.810196 0.135245 0.587218 0.797887 0.136201 -0.504962 0.824185 0.256382 
-0.511994 0.797985 0.317935 -0.511298 0.77051 0.380642 0.798803 0.586349 0.134569 
0.807092 0.574561 0.135949 -0.511814 0.770147 0.380683 -0.642366 0.651862 0.403041 
0.844873 0.514289 0.147295 0.869958 0.460877 0.175398 -0.66393 0.629977 0.402898 
-0.744192 0.550754 0.377953 0.878981 0.440108 0.183567 -0.744766 0.550169 0.377675 
0.922072 0.320853 0.216416 -0.792923 0.543323 0.275814 -0.82871 0.493835 0.263374 
0.963174 0.128981 0.235923 -0.904452 0.341995 0.254962 0.968716 0.0181084 0.24751 
-0.973249 0.0546647 0.223154 0.960728 -0.143574 0.237461 -0.941456 -0.23475 0.241977 
0.931589 -0.311658 0.187113 -0.526352 -0.798678 0.291663 -0.79745 -0.581645 0.160509 
-0.78322 -0.601085 0.158946 -0.800866 -0.597068 0.0460895 0.842688 -0.503762 0.190003 
0.803963 -0.566736 0.18015 -0.277546 -0.749636 0.600845 -0.514742 -0.799516 0.30954 
-0.390342 -0.794265 0.465592 0.619189 -0.767615 0.165446 0.52465 -0.833359 0.173944 
0.309626 -0.928033 0.207091 0.112888 -0.95944 0.258322 0.00403117 -0.958387 0.285444 
-0.0997527 -0.917274 0.385562 -0.146544 -0.871291 0.468377 -0.120951 -0.811904 0.571124 
-0.128988 -0.741296 0.658667 -0.264652 -0.730221 0.62987 -0.219431 -0.682663 0.697009 
-0.320144 -0.795124 0.515058 0.00812989 -0.962469 0.27127 -0.0782128 -0.949961 0.302417 
-0.0842588 -0.967317 0.239162 -0.0415253 -0.966333 0.253921 -0.0700113 -0.959762 0.271946 
0.394486 0.871925 -0.290049 0.239681 0.924197 -0.297343 0.077764 0.953887 -0.289918 
-0.104054 0.948708 -0.298539 -0.253212 0.936671 -0.24193 -0.389458 0.910325 -0.14011 
0.51588 0.808646 -0.282771 0.586674 0.756346 -0.289403 0.37435 0.769177 -0.517909 
-0.445 0.892329 -0.0756627 -0.287268 0.829647 -0.47871 -0.468766 0.882096 -0.0465263 
-0.545783 0.837853 -0.0110859 0.745763 0.599587 -0.290401 0.771226 0.570799 -0.281777 
-0.591729 0.805932 -0.0181904 -0.681782 0.730715 -0.0350681 0.798182 0.533743 -0.279326 
0.83632 0.478122 -0.268271 0.698215 0.46291 -0.546086 -0.743145 0.66668 -0.0572109 
-0.80213 0.588835 -0.0992995 0.846147 0.46287 -0.264171 0.817777 0.464469 -0.339866 
-0.817135 0.567489 -0.101227 -0.789378 0.503382 -0.35141 0.904183 0.355732 -0.236447 
-0.863013 0.439229 -0.249573 -0.874748 0.390182 -0.287356 0.964944 0.163433 -0.205361 
-0.902341 0.27904 -0.328507 -0.816298 0.251929 -0.519798 0.984106 0.0175508 -0.17671 
-0.940686 0.0609079 -0.333766 -0.722047 -0.0549586 -0.689658 0.9698 -0.15869 -0.185218 
-0.805761 -0.290893 -0.515879 -0.752349 -0.485352 -0.445425 -0.713829 -0.28652 -0.639026 
0.925133 -0.334727 -0.179127 -0.732126 -0.556232 -0.393188 -0.667006 -0.678176 -0.308514 
-0.481915 -0.460002 -0.745759 0.824525 -0.527632 -0.20436 0.794285 -0.572289 -0.203952 
0.789791 -0.530796 -0.307386 -0.667396 -0.688765 -0.28317 -0.648012 -0.758021 -0.0740522 
-0.514796 -0.323062 -0.794113 0.608779 -0.762575 -0.218786 0.5571 -0.803268 -0.210714 
0.56265 -0.747589 -0.352896 0.354051 -0.918173 -0.177779 0.195946 -0.976744 -0.0870451 
-0.269121 -0.938999 0.214138 -0.59202 -0.80587 -0.00932069 -0.459301 -0.880651 0.116175 
0.1952 -0.976948 -0.0864319 0.0860388 -0.996291 0.00138212 0.158699 -0.927397 -0.338746 
-0.013569 -0.998027 0.0613083 -0.0557492 -0.989688 0.131948 -0.031381 -0.978922 0.201809 
-0.144985 -0.963274 0.226016 -0.0658967 -0.970108 0.233557 0.186264 0.748848 -0.636029 
0.0621427 0.730238 -0.680361 -0.051976 0.750648 -0.658655 -0.154184 0.77083 -0.618101 
0.563332 0.547284 -0.618981 0.270691 0.732996 -0.624054 0.355822 0.699394 -0.61987 
0.174573 0.709067 -0.683189 0.050003 0.645288 -0.762301 -0.0370133 0.657995 -0.752112 
-0.23704 0.793565 -0.560417 -0.138169 0.719457 -0.680655 -0.262893 0.796178 -0.544966 
-0.38126 0.78003 -0.496179 -0.489484 0.74963 -0.445488 0.575568 0.534571 -0.618835 
0.560054 0.529423 -0.637221 0.282235 0.480805 -0.830163 0.0961737 0.396798 -0.912854 
0.0204951 0.348435 -0.937109 -0.00320884 0.345088 -0.938565 -0.0169953 0.403492 -0.914825 
-0.139486 0.456244 -0.878854 -0.305862 0.588667 -0.748277 -0.490488 0.748892 -0.445626 
-0.48913 0.748123 -0.448402 -0.67604 0.530159 -0.511763 0.648304 0.429757 -0.628499 
0.647505 0.421679 -0.634763 0.474633 0.329619 -0.816134 -0.181388 0.224925 -0.957344 
-0.375774 0.342956 -0.860915 -0.6866 0.510361 -0.517794 -0.664575 0.494985 -0.559759 
0.641026 0.405572 -0.651611 0.709345 0.338843 -0.618074 0.560702 0.353769 -0.748639 
0.387623 0.233478 -0.89176 -0.256162 0.122731 -0.958811 -0.668368 0.364355 -0.648483 
-0.501621 0.230927 -0.833696 -0.647889 0.256646 -0.717198 0.714628 0.328074 -0.617798 
0.70349 0.325676 -0.631694 0.439575 0.264067 -0.858512 -0.226007 0.0134509 -0.974033 
-0.385788 0.074389 -0.919584 -0.636918 0.213122 -0.740888 -0.60757 0.197137 -0.769413 
0.757571 0.180954 -0.62717 0.665201 0.181403 -0.724293 0.38609 0.153608 -0.909582 
-0.21825 -0.122821 -0.968133 -0.309706 -0.0548147 -0.949251 -0.557593 0.0929874 -0.82489 
-0.48028 0.0479652 -0.875803 0.80868 0.0398621 -0.586896 0.658222 0.049494 -0.751195 
-0.225217 -0.176234 -0.958237 -0.239012 -0.144983 -0.960132 -0.450629 -0.0479778 -0.891421 
-0.369617 -0.0488587 -0.927899 0.807534 -0.120103 -0.577464 0.683596 -0.0765274 -0.725838 
-0.403046 -0.0408769 -0.914266 -0.236037 -0.0734129 -0.968967 -0.225791 -0.17611 -0.958125 
-0.478336 -0.195732 -0.856086 -0.418324 -0.287336 -0.861652 -0.415607 -0.195126 -0.888368 
0.797602 -0.306366 -0.519588 0.755078 -0.395581 -0.52285 0.732428 -0.288356 -0.616766 
-0.397594 0.0785425 -0.914194 -0.354573 -0.0262327 -0.93466 -0.379054 -0.264519 -0.886762 
-0.479327 -0.285196 -0.830006 -0.361122 -0.188333 -0.913303 0.667461 -0.511321 -0.541339 
0.55007 -0.633208 -0.544491 0.522716 -0.470862 -0.710674 -0.501598 -0.299582 -0.811572 
-0.508343 -0.170198 -0.844168 0.481479 -0.704638 -0.521214 0.396549 -0.767124 -0.504251 
0.394097 -0.681182 -0.616992 0.284888 -0.854922 -0.433528 0.24483 -0.566023 -0.787195 
0.161092 -0.922135 -0.351734 -0.342215 -0.88338 -0.320202 -0.388016 -0.356055 -0.850099 
-0.641483 -0.495114 -0.58597 -0.645153 -0.518328 -0.56135 -0.638944 -0.462149 -0.614954 
0.154028 -0.924498 -0.348682 0.0395272 -0.949073 -0.312567 0.0447236 -0.926263 -0.374214 
0.00258518 -0.965419 -0.26069 0.00571408 -0.9441 -0.32961 0.00364103 -0.972793 -0.231649 
-0.000109258 -0.94838 -0.317137 -0.186718 -0.944732 -0.269477 -0.0914164 -0.965558 -0.243599 
-0.098263 -0.943659 -0.315995 0.228712 0.293959 -0.928051 0.0545716 0.293568 -0.954379 
0.00105168 0.242297 -0.970201 0.0153503 0.23715 -0.971352 -0.00565384 0.307273 -0.951605 
-0.109419 0.259075 -0.959639 0.248675 0.276994 -0.928135 0.225738 0.274811 -0.934623 
0.0284855 0.230568 -0.972639 -0.0156349 0.162871 -0.986524 0.0258321 0.159768 -0.986817 
-0.00152475 0.205327 -0.978692 -0.15449 0.200474 -0.967442 -0.0961805 0.155475 -0.983146 
-0.165803 0.16745 -0.971838 0.339843 0.214287 -0.915744 0.344485 0.209039 -0.915223 
0.18493 0.156492 -0.970212 -0.0301626 0.15322 -0.987732 -0.0526878 0.146717 -0.987774 
0.0513234 0.253146 -0.966066 -0.0213772 0.16871 -0.985434 -0.115461 0.0340722 -0.992727 
-0.18288 0.0943078 -0.978601 -0.142987 0.0760144 -0.986801 0.332321 0.203818 -0.920881 
0.276697 0.170638 -0.945686 0.149574 0.0663482 -0.986522 0.0229298 0.0921093 -0.995485 
0.0841538 0.24926 -0.964773 0.0507613 0.207936 -0.976825 -0.239196 0.104637 -0.965317 
-0.182384 0.0724202 -0.980557 -0.201432 0.0152835 -0.979383 -0.0887046 0.0205901 -0.995845 
0.377264 0.151828 -0.913575 0.383194 0.143125 -0.912512 0.192821 0.121129 -0.973729 
0.103512 0.00897463 -0.994588 0.146995 -0.0173618 -0.988985 0.0616593 0.149983 -0.986764 
-0.0965469 0.0155557 -0.995207 -0.14301 0.0162167 -0.989588 -0.194599 0.169313 -0.96616 
-0.209063 -0.0904533 -0.97371 -0.200718 -0.0399048 -0.978836 0.418408 0.0572285 -0.906454 
0.362549 0.058068 -0.930154 0.127896 0.0473962 -0.990654 0.0127604 0.0230827 -0.999652 
0.165184 -0.058428 -0.984531 0.130905 -0.0471388 -0.990274 -0.100941 0.00975724 -0.994845 
-0.0693165 0.0275257 -0.997215 -0.243478 0.0353384 -0.969262 -0.374108 -0.128747 -0.918405 
-0.390038 -0.112204 -0.913937 -0.385655 -0.122075 -0.914532 0.429984 -0.0485707 -0.901529 
0.375156 -0.0507779 -0.92557 0.153884 -0.0312438 -0.987595 -0.00205398 0.0364116 -0.999335 
0.0652674 0.0319456 -0.997356 0.138244 -0.116476 -0.983525 -0.0185713 -0.0729996 -0.997159 
-0.118371 -0.0153501 -0.992851 -0.398441 -0.046128 -0.916033 -0.324678 -0.0555129 -0.944194 
0.401826 -0.20924 -0.89149 0.399636 -0.215418 -0.891003 0.395503 -0.207731 -0.894665 
0.210144 -0.141099 -0.967435 0.0789041 -0.0784555 -0.99379 0.0225273 0.0131333 -0.99966 
0.0197672 -0.0726477 -0.997162 0.00297598 -0.0937189 -0.995594 -0.0543932 -0.0435552 -0.997569 
-0.382679 0.0687391 -0.921321 -0.258799 -0.00384449 -0.965923 -0.375021 7.33046e-05 -0.927016 
0.338664 -0.386171 -0.858009 0.31062 -0.412174 -0.856521 0.293083 -0.365425 -0.883497 
0.209265 -0.458772 -0.86356 0.15174 -0.271139 -0.950504 0.0759416 -0.191444 -0.978561 
0.0235999 -0.158506 -0.987076 0.0157559 -0.144938 -0.989315 -0.0313715 -0.147778 -0.988523 
-0.211821 -0.11756 -0.970212 -0.374691 -0.0223766 -0.92688 -0.370193 -0.0580369 -0.92714 
-0.369304 -0.0198887 -0.929096 0.171628 -0.501542 -0.847938 0.153628 -0.510998 -0.845742 
0.15185 -0.487636 -0.85974 0.0803224 -0.53825 -0.838949 0.0739013 -0.431911 -0.898883 
0.0191102 -0.555749 -0.83113 0.0145756 -0.424452 -0.905333 -0.0373698 -0.545113 -0.837529 
-0.0372242 -0.419826 -0.906841 -0.264463 -0.36929 -0.89089 -0.144983 -0.48559 -0.86208 
-0.151773 -0.409439 -0.899624 
