# vtk DataFile Version 4.2
vtk output
ASCII
DATASET POLYDATA
POINTS 530 float
-33.7791 -37.6751 -15.0195 -25.8904 -37.6751 -14.1619 -18.0016 -37.6751 -13.4361 
-49.5565 -29.7864 -12.3671 -41.6678 -29.7864 -16.4582 -33.7791 -29.7864 -16.6972 
-25.8904 -29.7864 -18.1582 -18.0016 -29.7864 -16.3061 -10.1129 -29.7864 -14.0631 
-49.5565 -21.8977 -14.7633 -41.6678 -21.8977 -16.5062 -33.7791 -21.8977 -17.5422 
-25.8904 -21.8977 -17.9566 -18.0016 -21.8977 -16.8805 -10.1129 -21.8977 -15.2082 
-2.22421 -21.8977 -12.9902 -57.4452 -14.009 -13.3941 -49.5565 -14.009 -15.9026 
-41.6678 -14.009 -17.8234 -33.7791 -14.009 -17.9185 -25.8904 -14.009 -17.5081 
-18.0016 -14.009 -16.6745 -10.1129 -14.009 -15.481 -2.22421 -14.009 -14.1465 
5.66451 -14.009 -12.0723 29.3307 -14.009 -12.8093 37.2194 -14.009 -12.9815 
45.1081 -14.009 -12.9469 -57.4452 -6.12026 -13.2201 -49.5565 -6.12026 -16.3455 
-41.6678 -6.12026 -18.0559 -33.7791 -6.12026 -18.3593 -25.8904 -6.12026 -17.4045 
-18.0016 -6.12026 -16.2392 -10.1129 -6.12026 -18.0506 -2.22421 -6.12026 -17.0842 
5.66451 -6.12026 -14.5973 13.5532 -6.12026 -13.2623 21.4419 -6.12026 -13.0861 
29.3307 -6.12026 -13.8551 37.2194 -6.12026 -14.297 45.1081 -6.12026 -14.2843 
52.9968 -6.12026 -12.5065 -57.4452 1.76846 -13.5111 -49.5565 1.76846 -16.6182 
-41.6678 1.76846 -18.1436 -33.7791 1.76846 -18.5431 -25.8904 1.76846 -17.5403 
-18.0016 1.76846 -16.3474 -10.1129 1.76846 -17.493 -2.22421 1.76846 -16.0492 
5.66451 1.76846 -16.0248 13.5532 1.76846 -15.0378 21.4419 1.76846 -15.013 
29.3307 1.76846 -15.7051 37.2194 1.76846 -15.8732 45.1081 1.76846 -14.8236 
52.9968 1.76846 -12.8092 -49.5565 9.65718 -16.2051 -41.6678 9.65718 -18.4032 
-33.7791 9.65718 -18.3479 -25.8904 9.65718 -17.8955 -18.0016 9.65718 -17.3785 
-10.1129 9.65718 -17.5787 -2.22421 9.65718 -18.8372 5.66451 9.65718 -18.0986 
13.5532 9.65718 -16.1263 21.4419 9.65718 -16.7119 29.3307 9.65718 -17.2139 
37.2194 9.65718 -16.8024 45.1081 9.65718 -15.373 52.9968 9.65718 -12.8821 
-49.5565 17.5459 -14.1902 -41.6678 17.5459 -16.6148 -33.7791 17.5459 -17.4746 
-25.8904 17.5459 -18.0456 -18.0016 17.5459 -18.1847 -10.1129 17.5459 -18.0752 
-2.22421 17.5459 -16.1896 5.66451 17.5459 -14.754 13.5532 17.5459 -16.1897 
21.4419 17.5459 -17.5325 29.3307 17.5459 -18.107 37.2194 17.5459 -17.6082 
45.1081 17.5459 -15.1827 52.9968 17.5459 -12.7918 -41.6678 25.4346 -13.9932 
-33.7791 25.4346 -16.4488 -25.8904 25.4346 -17.5029 -18.0016 25.4346 -18.3325 
-10.1129 25.4346 -18.4657 -2.22421 25.4346 -16.3252 5.66451 25.4346 -14.7385 
13.5532 25.4346 -15.5347 21.4419 25.4346 -16.8004 29.3307 25.4346 -16.6528 
37.2194 25.4346 -15.4645 -33.7791 33.3233 -12.8324 -25.8904 33.3233 -15.6229 
-18.0016 33.3233 -17.3633 -10.1129 33.3233 -17.3439 -2.22421 33.3233 -15.6528 
5.66451 33.3233 -14.3029 13.5532 33.3233 -13.6557 21.4419 33.3233 -13.5348 
29.3307 33.3233 -12.9702 -18.0016 41.2121 -13.3483 -10.1129 41.2121 -14.5766 
-2.22421 41.2121 -13.2977 -33.7791 -41.394 -11.8748 -33.7791 -45.5639 -4.76146 
-25.8904 -41.541 -11.8748 -25.8904 -45.5639 -5.917 -18.0016 -39.6241 -11.8748 
-49.5565 -30.673 -11.8748 -39.7499 -37.6751 -11.8748 -41.6678 -36.3742 -11.8748 
-41.6678 -37.6751 -10.7562 -14.5236 -37.6751 -11.8748 -10.1129 -33.9321 -11.8748 
-10.1129 -37.6751 -8.14662 -50.2039 -29.7864 -11.8748 -4.99464 -29.7864 -11.8748 
-2.22421 -25.7508 -11.8748 -2.22421 -29.7864 -10.1352 21.4419 -29.7864 -4.19704 
29.3307 -29.7864 -6.59791 37.2194 -29.7864 -7.95699 45.1081 -29.7864 -7.8195 
52.9968 -29.7864 -5.5932 -54.5166 -21.8977 -11.8748 -57.4452 -18.3071 -11.8748 
-57.4452 -21.8977 -9.20307 1.80884 -21.8977 -11.8748 5.66451 -15.2282 -11.8748 
5.66451 -21.8977 -10.5989 13.5532 -21.8977 -8.4502 21.4419 -21.8977 -9.53608 
29.3307 -19.6801 -11.8748 29.3307 -21.8977 -11.4424 37.2194 -19.7933 -11.8748 
37.2194 -21.8977 -11.4351 45.1081 -17.2755 -11.8748 45.1081 -21.8977 -10.5227 
52.9968 -21.8977 -9.26466 60.8855 -21.8977 -6.18631 -59.3135 -14.009 -11.8748 
6.90724 -14.009 -11.8748 13.5532 -10.2095 -11.8748 13.5532 -14.009 -10.8394 
23.4241 -14.009 -11.8748 21.4419 -12.3928 -11.8748 21.4419 -14.009 -11.5585 
49.0886 -14.009 -11.8748 52.9968 -8.95988 -11.8748 52.9968 -14.009 -10.843 
60.8855 -14.009 -7.33688 -59.2573 -6.12026 -11.8748 -65.334 -6.12026 -4.11485 
55.1401 -6.12026 -11.8748 60.8855 -6.12026 -9.54695 -59.5934 1.76846 -11.8748 
-57.4452 9.55657 -11.8748 55.4529 1.76846 -11.8748 60.8855 1.76846 -9.12276 
-57.4166 9.65718 -11.8748 -57.4452 9.65718 -11.8502 55.2071 9.65718 -11.8748 
60.8855 9.65718 -8.00532 -53.1383 17.5459 -11.8748 -57.4452 17.5459 -6.16292 
-49.5565 22.8012 -11.8748 45.1081 24.8264 -11.8748 54.0111 17.5459 -11.8748 
52.9968 18.8754 -11.8748 -47.1545 25.4346 -11.8748 -49.5565 25.4346 -9.42011 
-41.6678 29.7496 -11.8748 44.5135 25.4346 -11.8748 37.2194 30.4711 -11.8748 
45.1081 25.4346 -11.1612 -36.4156 33.3233 -11.8748 -41.6678 33.3233 -6.70851 
-33.7791 34.6912 -11.8748 -25.8904 38.8273 -11.8748 5.66451 38.9863 -11.8748 
13.5532 36.1575 -11.8748 21.4419 35.454 -11.8748 31.9005 33.3233 -11.8748 
29.3307 34.5391 -11.8748 37.2194 33.3233 -5.01685 -21.7253 41.2121 -11.8748 
-25.8904 41.2121 -8.52136 -18.0016 42.9117 -11.8748 -10.1129 44.2126 -11.8748 
2.26038 41.2121 -11.8748 -2.22421 43.0421 -11.8748 5.66451 41.2121 -9.97569 
13.5532 41.2121 -6.0278 -33.7791 -45.8277 -3.98607 -25.8904 -46.2686 -3.98607 
-35.1618 -45.5639 -3.98607 -41.6678 -43.763 -3.98607 -33.7791 -45.5639 -2.73611 
-22.7002 -45.5639 -3.98607 -25.8904 -45.5639 -0.0595926 -18.0016 -44.4981 -3.98607 
-10.1129 -40.0511 -3.98607 -48.3517 -37.6751 -3.98607 -49.5565 -36.4509 -3.98607 
-6.55752 -37.6751 -3.98607 -2.22421 -34.5912 -3.98607 21.4419 -29.9464 -3.98607 
29.3307 -31.7811 -3.98607 37.2194 -33.0445 -3.98607 45.1081 -33.727 -3.98607 
52.9968 -31.4699 -3.98607 -54.6472 -29.7864 -3.98607 -57.4452 -26.061 -3.98607 
5.54631 -29.7864 -3.98607 5.66451 -29.6978 -3.98607 5.66451 -29.7864 -1.93452 
20.7493 -29.7864 -3.98607 13.5532 -27.6607 -3.98607 56.0322 -29.7864 -3.98607 
60.8855 -25.5705 -3.98607 60.8855 -29.7864 1.70591 -60.1787 -21.8977 -3.98607 
63.756 -21.8977 -3.98607 68.7743 -21.8977 3.80233 -63.7744 -14.009 -3.98607 
-65.334 -6.43388 -3.98607 65.5116 -14.009 -3.98607 68.7743 -14.009 1.02248 
-65.3928 -6.12026 -3.98607 -65.334 -4.62575 -3.98607 -65.334 -6.12026 -3.68045 
67.7586 -6.12026 -3.98607 68.7743 -6.12026 -0.78494 -65.0728 1.76846 -3.98607 
65.6441 1.76846 -3.98607 -62.9658 9.65718 -3.98607 63.6579 9.65718 -3.98607 
60.8855 13.9693 -3.98607 -58.4101 17.5459 -3.98607 -57.4452 18.9703 -3.98607 
-57.4452 17.5459 -0.86855 58.4046 17.5459 -3.98607 52.9968 23.0144 -3.98607 
-52.3006 25.4346 -3.98607 -49.5565 28.1173 -3.98607 -49.5565 25.4346 3.63621 
49.9386 25.4346 -3.98607 45.1081 28.8729 -3.98607 -43.1536 33.3233 -3.98607 
-41.6678 34.3913 -3.98607 -41.6678 33.3233 0.444039 -33.7791 39.1462 -3.98607 
21.4419 40.2784 -3.98607 29.3307 37.3681 -3.98607 37.8053 33.3233 -3.98607 
37.2194 33.6524 -3.98607 37.2194 33.3233 -2.94387 -29.7653 41.2121 -3.98607 
-25.8904 43.176 -3.98607 -18.0016 46.236 -3.98607 -10.1129 47.5845 -3.98607 
-2.22421 46.8192 -3.98607 5.66451 44.4671 -3.98607 17.6881 41.2121 -3.98607 
13.5532 42.2275 -3.98607 13.5532 41.2121 0.88919 -41.6678 -40.7383 3.90265 
-33.7791 -43.6864 3.90265 -25.8904 -44.6595 3.90265 -18.0016 -42.7918 3.90265 
-10.1129 -38.3527 3.90265 -45.221 -37.6751 3.90265 -49.5565 -33.524 3.90265 
-41.6678 -37.6751 6.68525 -33.7791 -37.6751 11.6585 -25.8904 -37.6751 10.6094 
-18.0016 -37.6751 9.37833 -8.99588 -37.6751 3.90265 -10.1129 -37.6751 4.77703 
-2.22421 -33.6104 3.90265 5.66451 -29.9689 3.90265 21.4419 -31.7643 3.90265 
29.3307 -34.5787 3.90265 37.2194 -35.8068 3.90265 45.1081 -36.7777 3.90265 
52.9968 -34.5934 3.90265 60.8855 -31.1857 3.90265 -52.5477 -29.7864 3.90265 
-57.4452 -23.6885 3.90265 -49.5565 -29.7864 7.05449 -41.6678 -29.7864 11.2391 
-10.1129 -29.7864 11.7897 -2.22421 -29.7864 8.58777 7.84989 -29.7864 3.90265 
5.66451 -29.7864 4.31902 15.0751 -29.7864 3.90265 13.5532 -29.3275 3.90265 
21.4419 -29.7864 8.51835 62.0832 -29.7864 3.90265 60.8855 -29.7864 6.33231 
68.7743 -21.9688 3.90265 -58.6719 -21.8977 3.90265 -57.4452 -21.8977 5.47265 
68.8186 -21.8977 3.90265 68.7743 -21.8977 4.01138 -62.2564 -14.009 3.90265 
-57.4452 -14.009 9.47486 69.8646 -14.009 3.90265 68.7743 -14.009 6.37022 
-63.3811 -6.12026 3.90265 -57.4452 -6.12026 11.2245 69.6407 -6.12026 3.90265 
68.7743 -2.64118 3.90265 68.7743 -6.12026 5.72665 -62.7301 1.76846 3.90265 
-57.4452 1.76846 9.77063 67.5006 1.76846 3.90265 -60.9374 9.65718 3.90265 
-57.4452 15.3668 3.90265 -57.4452 9.65718 7.94873 63.2714 9.65718 3.90265 
60.8855 13.1024 3.90265 60.8855 9.65718 6.98227 -55.4201 17.5459 3.90265 
-49.5565 25.2868 3.90265 -49.5565 17.5459 9.25018 45.1081 17.5459 10.544 
56.5159 17.5459 3.90265 52.9968 20.3948 3.90265 52.9968 17.5459 6.86525 
-49.4234 25.4346 3.90265 -41.6678 32.1618 3.90265 -41.6678 25.4346 8.92708 
37.2194 30.3483 3.90265 37.2194 25.4346 8.2764 45.8512 25.4346 3.90265 
45.1081 25.9074 3.90265 45.1081 25.4346 4.51212 -40.2052 33.3233 3.90265 
-33.7791 37.2048 3.90265 -33.7791 33.3233 8.16454 13.5532 40.4781 3.90265 
21.4419 37.706 3.90265 21.4419 33.3233 9.34083 31.4855 33.3233 3.90265 
29.3307 34.2844 3.90265 29.3307 33.3233 5.07797 -26.886 41.2121 3.90265 
-25.8904 41.7045 3.90265 -25.8904 41.2121 4.68453 -18.0016 44.5155 3.90265 
-18.0016 41.2121 8.52555 -10.1129 45.9517 3.90265 -10.1129 41.2121 10.834 
-2.22421 45.2767 3.90265 -2.22421 41.2121 10.1597 11.2759 41.2121 3.90265 
5.66451 42.899 3.90265 5.66451 41.2121 6.60281 -33.7791 -37.3846 11.7914 
-25.8904 -35.5181 11.7914 -18.0016 -33.9331 11.7914 29.3307 -30.8113 11.7914 
37.2194 -32.1294 11.7914 45.1081 -32.0644 11.7914 52.9968 -31.6458 11.7914 
-49.5565 -23.3745 11.7914 -40.179 -29.7864 11.7914 -41.6678 -28.5325 11.7914 
-33.7791 -29.7864 13.7906 -25.8904 -29.7864 14.5477 -10.1181 -29.7864 11.7914 
-18.0016 -29.7864 13.9496 -10.1129 -29.7828 11.7914 -2.22421 -25.9439 11.7914 
[...]
POINT_DATA 530
SCALARS ImageScalars float
LOOKUP_TABLE default
0 0 0 0 0 0 0 0 0 
0 0 0 0 0 0 0 0 0 
0 0 0 0 0 0 0 0 0 
0 0 0 0 0 0 0 0 0 
0 0 0 0 0 0 0 0 0 
0 0 0 0 0 0 0 0 0 
0 0 0 0 0 0 0 0 0 
0 0 0 0 0 0 0 0 0 
0 0 0 0 0 0 0 0 0 
0 0 0 0 0 0 0 0 0 
0 0 0 0 0 0 0 0 0 
0 0 0 0 0 0 0 0 0 
0 0 0 0 0 0 0 0 0 
0 0 0 0 0 0 0 0 0 
0 0 0 0 0 0 0 0 0 
0 0 0 0 0 0 0 0 0 
0 0 0 0 0 0 0 0 0 
0 0 0 0 0 0 0 0 0 
0 0 0 0 0 0 0 0 0 
0 0 0 0 0 0 0 0 0 
0 0 0 0 0 0 0 0 0 
0 0 0 0 0 0 0 0 0 
0 0 0 0 0 0 0 0 0 
0 0 0 0 0 0 0 0 0 
0 0 0 0 0 0 0 0 0 
0 0 0 0 0 0 0 0 0 
0 0 0 0 0 0 0 0 0 
0 0 0 0 0 0 0 0 0 
0 0 0 0 0 0 0 0 0 
0 0 0 0 0 0 0 0 0 
0 0 0 0 0 0 0 0 0 
0 0 0 0 0 0 0 0 0 
0 0 0 0 0 0 0 0 0 
0 0 0 0 0 0 0 0 0 
0 0 0 0 0 0 0 0 0 
0 0 0 0 0 0 0 0 0 
0 0 0 0 0 0 0 0 0 
0 0 0 0 0 0 0 0 0 
0 0 0 0 0 0 0 0 0 
0 0 0 0 0 0 0 0 0 
0 0 0 0 0 0 0 0 0 
0 0 0 0 0 0 0 0 0 
0 0 0 0 0 0 0 0 0 
0 0 0 0 0 0 0 0 0 
0 0 0 0 0 0 0 0 0 
0 0 0 0 0 0 0 0 0 
0 0 0 0 0 0 0 0 0 
0 0 0 0 0 0 0 0 0 
0 0 0 0 0 0 0 0 0 
0 0 0 0 0 0 0 0 0 
0 0 0 0 0 0 0 0 0 
0 0 0 0 0 0 0 0 0 
0 0 0 0 0 0 0 0 0 
0 0 0 0 0 0 0 0 0 
0 0 0 0 0 0 0 0 0 
0 0 0 0 0 0 0 0 0 
0 0 0 0 0 0 0 0 0 
0 0 0 0 0 0 0 0 0 
0 0 0 0 0 0 0 0 
NORMALS Normals float
0.160872 0.461659 0.872348 -0.0829189 0.479316 0.873716 -0.232694 0.535257 0.812006 
0.558359 0.384207 0.735269 0.275455 0.279668 0.919734 0.0971973 0.129393 0.986818 
-0.0327793 0.208113 0.977555 -0.233796 0.202631 0.950936 -0.344044 0.295226 0.891334 
0.38215 0.239825 0.892438 0.152795 0.0843075 0.984655 0.0873921 0.0735106 0.993458 
-0.041209 -0.0400662 0.998347 -0.170018 0.0244288 0.985138 -0.241948 0.0864456 0.966431 
-0.264847 0.196165 0.944127 0.541769 0.165121 0.824149 0.274113 0.0801155 0.958355 
0.13872 0.0986673 0.985404 -0.0202492 0.051685 0.998458 -0.0783797 -0.0346634 0.996321 
-0.1261 -0.0391798 0.991244 -0.154282 0.151197 0.97639 -0.217729 0.228091 0.948983 
-0.200516 0.241806 0.94938 0.0874688 0.151125 0.984637 0.00848252 0.170661 0.985293 
-0.132891 0.238679 0.961963 0.50268 0.00379945 0.864464 0.275423 0.0459648 0.960224 
0.115816 0.0191981 0.993085 -0.039303 0.0395163 0.998446 -0.1304 0.00150037 0.99146 
0.0185158 -0.0210322 0.999607 0.0692638 0.140045 0.98772 -0.235291 0.13262 0.962834 
-0.192064 0.22531 0.955168 -0.103012 0.288093 0.952046 0.0395934 0.211165 0.976648 
0.0751062 0.179955 0.980803 0.026777 0.179894 0.983321 -0.109153 0.121076 0.986624 
-0.227543 0.118818 0.966492 0.497213 -0.075519 0.864336 0.264872 -0.0113656 0.964216 
0.110754 0.0202259 0.993642 -0.0316294 -0.000596363 0.999499 -0.141984 0.0318035 0.989358 
-0.00208092 0.0698678 0.997554 0.0012004 -0.0240385 0.99971 -0.106725 0.108666 0.988333 
-0.0781761 0.231713 0.969638 -0.0508824 0.156449 0.986375 0.0420638 0.228285 0.972685 
0.0516934 0.209027 0.976543 -0.0550929 0.156953 0.986068 -0.182257 0.0652703 0.981082 
-0.295354 0.0224282 0.955125 0.331929 -0.116011 0.936144 0.152526 -0.0921366 0.983995 
-0.0321942 -0.0671843 0.997221 -0.0599775 0.0305514 0.997732 -0.020335 0.117456 0.99287 
0.0771172 0.0369795 0.996336 0.050568 -0.0132484 0.998633 -0.188886 -0.125723 0.973918 
-0.057726 0.0717423 0.995751 0.0695629 0.155669 0.985357 0.00555181 0.148949 0.988829 
-0.1123 0.103101 0.988311 -0.220568 0.0218028 0.975128 -0.357607 -0.00113651 0.933871 
0.423766 -0.337401 0.840585 0.173891 -0.268646 0.947413 0.0865848 -0.110879 0.990055 
0.0443113 -0.0239196 0.998731 0.00190798 0.0588258 0.998266 -0.113033 0.0549515 0.992071 
-0.217805 -0.130469 0.967233 0.00496987 -0.166404 0.986045 0.178587 -0.0360329 0.983264 
0.115224 0.00722557 0.993313 0.00784571 -0.0361108 0.999317 -0.187097 -0.0799029 0.979086 
-0.288831 -0.184135 0.939506 -0.590013 -0.334695 0.734754 0.31664 -0.380278 0.868981 
0.21593 -0.267722 0.938988 0.111166 -0.135215 0.98456 0.0591864 -0.0523457 0.996874 
-0.127074 -0.0434206 0.990942 -0.234816 -0.0334427 0.971464 -0.0510054 -0.0299431 0.998249 
0.128628 -0.144854 0.981057 0.0683747 -0.221615 0.972734 -0.081995 -0.293573 0.952414 
-0.275138 -0.403288 0.87273 0.32172 -0.524091 0.788559 0.275274 -0.394999 0.87647 
0.0912223 -0.271401 0.958134 -0.104916 -0.230102 0.967494 -0.192488 -0.181284 0.964409 
-0.11622 -0.227763 0.966756 -0.0518501 -0.370053 0.927563 -0.0416057 -0.543766 0.838205 
-0.213499 -0.662356 0.718125 0.244522 -0.64623 0.722908 -0.0120617 -0.566831 0.823746 
-0.235347 -0.517427 0.822728 0.168247 0.667527 0.725329 0.127431 0.984481 0.120657 
-0.0946372 0.661587 0.743873 -0.101621 0.971342 0.214866 -0.265267 0.627581 0.731967 
0.570288 0.412207 0.710533 0.363196 0.524154 0.770293 0.390397 0.497537 0.774627 
0.44386 0.570107 0.691351 -0.348247 0.587929 0.730112 -0.431389 0.478323 0.764925 
-0.540355 0.729191 0.419878 0.587096 0.398847 0.704443 -0.404534 0.407359 0.818786 
-0.346415 0.321678 0.881204 -0.468456 0.53335 0.704334 0.20852 0.842018 0.497519 
0.185585 0.724424 0.663904 0.0468462 0.635641 0.770562 -0.143398 0.632515 0.761158 
-0.335568 0.596333 0.729233 0.55046 0.374409 0.746199 0.60929 0.303081 0.73274 
0.710816 0.469444 0.523797 -0.275498 0.250052 0.928211 -0.212736 0.251892 0.944084 
-0.296527 0.344489 0.890729 -0.0445006 0.469125 0.88201 0.171079 0.377759 0.909962 
0.113614 0.227861 0.967043 0.121969 0.273245 0.954181 -0.0551244 0.23334 0.970831 
-0.0716045 0.264431 0.961743 -0.117879 0.256455 0.959341 -0.107168 0.285751 0.952293 
-0.303539 0.352665 0.885151 -0.480018 0.290669 0.827705 0.66221 0.183372 0.726535 
-0.172333 0.247477 0.953444 -0.0633458 0.279929 0.957928 -0.0249858 0.272637 0.961793 
0.112972 0.203177 0.972603 0.107955 0.219706 0.969575 0.122209 0.222175 0.967318 
-0.210682 0.199199 0.957044 -0.252514 0.132356 0.958498 -0.293091 0.178956 0.939187 
-0.487688 0.183139 0.853593 0.61609 0.0110521 0.787599 0.986481 0.0780237 0.144112 
-0.321864 0.119744 0.939183 -0.625092 0.106985 0.773185 0.639264 -0.0876401 0.763977 
0.628941 -0.216632 0.746662 -0.399367 -0.000411686 0.916791 -0.681788 -0.0679473 0.728387 
0.628997 -0.218187 0.746161 0.631009 -0.219114 0.744188 -0.465652 -0.0804091 0.881307 
-0.786479 -0.362682 0.499912 0.557592 -0.391711 0.731883 0.813103 -0.540879 0.215204 
0.514788 -0.485706 0.706458 -0.522672 -0.559179 0.643532 -0.632676 -0.356262 0.687603 
-0.61393 -0.397163 0.682167 0.478948 -0.49912 0.722141 0.621447 -0.619662 0.479398 
0.40879 -0.551614 0.727058 -0.524471 -0.575864 0.627145 -0.397129 -0.697165 0.596866 
-0.550545 -0.614561 0.564992 0.375977 -0.582768 0.720432 0.560635 -0.790236 0.247417 
0.346865 -0.584922 0.733179 0.345644 -0.637756 0.68833 -0.235094 -0.509788 0.827555 
-0.122489 -0.542294 0.831212 -0.0777975 -0.664422 0.743297 -0.293755 -0.73257 0.614044 
-0.24201 -0.733202 0.635489 -0.46853 -0.881582 0.0573868 0.303939 -0.693039 0.653696 
0.395759 -0.821745 0.410011 0.256547 -0.715144 0.650195 0.00598853 -0.742157 0.670199 
-0.257396 -0.581792 0.771534 -0.229062 -0.619749 0.750628 -0.293551 -0.713013 0.636742 
-0.252109 -0.933725 0.254163 0.125646 0.989883 0.0659224 -0.0838244 0.992155 0.09275 
0.189302 0.979818 0.0641999 0.508142 0.85724 0.0832528 0.134955 0.990746 -0.0144673 
-0.193076 0.974576 0.113678 -0.0736643 0.986477 -0.146411 -0.347812 0.926481 0.143739 
-0.538127 0.832554 0.131425 0.694987 0.7129 0.0936265 0.72302 0.685769 0.0834449 
-0.580117 0.799654 0.154976 -0.586995 0.782203 0.208797 0.207821 0.850011 0.484037 
0.197538 0.822054 0.534047 0.114041 0.819648 0.561402 -0.0908061 0.791279 0.604675 
-0.35391 0.692826 0.628283 0.793885 0.598757 0.106006 0.815379 0.565316 0.124803 
-0.382319 0.868979 0.314179 -0.37967 0.868569 0.318493 -0.347868 0.919929 0.180882 
0.191342 0.853084 0.485424 0.0150502 0.834508 0.55079 -0.489641 0.628742 0.604099 
-0.599417 0.476781 0.642946 -0.690114 0.708309 0.148459 0.858448 0.49333 0.140328 
-0.646726 0.369431 0.667283 -0.917363 0.397344 0.0237262 0.933497 0.322066 0.157658 
0.986506 0.0870271 0.13868 -0.757285 0.182732 0.626999 -0.982953 0.115101 0.143374 
0.987441 0.0771119 0.137893 0.990675 0.0333883 0.132091 0.99019 0.0772444 0.116438 
-0.814399 -0.0227233 0.57986 -0.953094 -0.0858114 0.290257 0.982814 -0.150965 0.106234 
-0.856535 -0.194611 0.47799 0.92415 -0.365316 0.11176 -0.882479 -0.389943 0.263012 
-0.819846 -0.515209 0.249824 0.826646 -0.560081 0.0544547 0.814142 -0.578147 0.0540283 
0.804357 -0.572934 -0.157342 -0.774768 -0.608447 0.171831 -0.670552 -0.739901 0.0539145 
0.72545 -0.686395 0.0508348 0.680806 -0.730512 0.0534354 0.629184 -0.604561 -0.488502 
-0.60942 -0.791702 0.0425951 -0.562074 -0.827087 -0.000402924 0.589429 -0.805538 0.0606813 
0.569533 -0.819674 0.0613734 0.57943 -0.786307 -0.214432 0.477116 -0.875487 0.0766964 
-0.28749 -0.955608 0.0645146 -0.381059 -0.924515 -0.00818345 -0.47554 -0.87969 -0.00257261 
-0.468093 -0.883679 -0.000379774 -0.471117 -0.880095 -0.059007 0.440107 -0.893944 0.0846741 
0.409163 -0.907659 0.0934928 0.274273 -0.959798 0.0596904 0.0320296 -0.996079 0.082463 
-0.196331 -0.976698 0.0866919 -0.293225 -0.947763 0.125555 -0.271981 -0.957728 0.0937168 
-0.262734 -0.956544 0.126466 -0.279025 -0.942122 -0.185878 0.469146 0.711977 -0.522485 
0.188909 0.855912 -0.481381 -0.0542397 0.907628 -0.416257 -0.321013 0.845239 -0.427225 
-0.476028 0.782054 -0.40223 0.564788 0.663031 -0.491329 0.657037 0.594469 -0.463582 
0.474164 0.600895 -0.643501 0.181557 0.545646 -0.818112 -0.105555 0.555213 -0.824983 
-0.254518 0.637087 -0.727558 -0.481604 0.78 -0.399571 -0.468556 0.762372 -0.446368 
-0.458497 0.81102 -0.363356 -0.227574 0.954147 -0.194457 0.313682 0.946505 -0.0757034 
0.252487 0.967074 -0.0319147 0.136065 0.990594 -0.0144856 -0.0750552 0.996884 -0.0242696 
-0.282213 0.959312 0.00872538 -0.64913 0.760499 0.0164792 0.689453 0.555661 -0.464646 
0.722643 0.536525 -0.435806 0.591268 0.515823 -0.619943 0.352223 0.40572 -0.843404 
-0.264608 0.464872 -0.844912 -0.29088 0.71796 -0.632394 -0.136712 0.975375 -0.173072 
-0.218818 0.951969 -0.214183 0.158248 0.981965 -0.103456 0.114554 0.987759 -0.105873 
0.303079 0.863765 -0.402558 -0.698223 0.715427 0.0254832 -0.669657 0.715063 -0.200609 
-0.916595 0.399393 0.0183971 0.757632 0.504484 -0.414114 0.70319 0.508216 -0.497233 
-0.918037 0.396078 0.0181819 -0.917975 0.396469 0.0116175 0.861753 0.269941 -0.42955 
0.607351 0.247017 -0.755054 -0.997786 0.0582262 -0.0321393 -0.981378 0.050902 -0.18522 
0.879309 0.0366716 -0.474837 0.607648 0.0262588 -0.793772 -0.980995 -0.141656 -0.1326 
-0.958268 -0.236126 -0.161142 -0.952645 -0.155289 -0.261445 0.838582 -0.14928 -0.523924 
0.619143 -0.154597 -0.769911 -0.914946 -0.3623 -0.1778 0.804516 -0.336684 -0.489283 
0.71695 -0.484516 -0.501226 0.638365 -0.325058 -0.69773 -0.777292 -0.542772 -0.318145 
-0.719764 -0.598972 -0.35096 -0.665477 -0.56648 -0.486045 0.687599 -0.519455 -0.50732 
0.623213 -0.594726 -0.507845 0.522542 -0.39981 -0.753062 -0.303118 -0.515268 -0.801635 
-0.604683 -0.672011 -0.427504 -0.546606 -0.69227 -0.471151 -0.483801 -0.629274 -0.608235 
0.620792 -0.597029 -0.508108 0.542696 -0.701246 -0.462315 0.454344 -0.474394 -0.754004 
-0.423211 -0.727615 -0.539878 -0.359547 -0.578481 -0.732178 -0.465522 -0.743171 -0.480609 
-0.453976 -0.748656 -0.483136 -0.447511 -0.735107 -0.509265 0.532053 -0.717316 -0.449863 
0.463196 -0.77203 -0.435222 0.417961 -0.619714 -0.664277 -0.27943 -0.876484 -0.392038 
-0.316458 -0.832429 -0.45488 -0.311822 -0.664858 -0.678772 -0.377852 -0.773721 -0.508511 
-0.360561 -0.784414 -0.504668 -0.356738 -0.754346 -0.55109 0.394525 -0.837405 -0.37829 
0.383765 -0.842702 -0.377594 0.381064 -0.825608 -0.416126 0.257942 -0.877609 -0.404065 
0.240486 -0.752698 -0.612872 0.0409958 -0.921463 -0.386297 0.0658901 -0.719396 -0.691468 
-0.176602 -0.912763 -0.368342 -0.155592 -0.743986 -0.649828 -0.276685 -0.882036 -0.38139 
-0.280864 -0.886272 -0.36829 -0.271949 -0.831822 -0.483856 0.181182 0.533096 -0.826427 
-0.0843026 0.470275 -0.878484 -0.191145 0.481389 -0.855411 0.206463 0.687868 -0.695853 
0.0613892 0.726682 -0.684225 -0.0295037 0.711852 -0.701709 -0.241985 0.746627 -0.619671 
0.464074 0.36288 -0.808056 0.318619 0.375966 -0.870133 0.324747 0.383545 -0.864542 
0.183324 0.279198 -0.942571 0.0120976 0.322747 -0.946408 -0.2645 0.46477 -0.845002 
-0.151935 0.355497 -0.922246 -0.264513 0.464765 -0.845001 -0.0969673 0.545228 -0.83266 
-0.0242292 0.779499 -0.625935 0.060461 0.725606 -0.685449 0.223052 0.690018 -0.688566 
0.235358 0.686114 -0.68837 0.190292 0.637575 -0.746517 0.0764808 0.610777 -0.788101 
0.000841501 0.647323 -0.762215 -0.395217 0.643733 -0.655295 -0.273762 0.626489 -0.729771 
-0.551807 0.470897 -0.688306 0.482151 0.348673 -0.803715 0.4393 0.33117 -0.83507 
0.214783 0.275825 -0.936904 0.144814 0.240416 -0.959807 0.00628591 0.204576 -0.978831 
-0.104978 0.232875 -0.966824 -0.119308 0.3022 -0.945749 0.0405878 0.441531 -0.896327 
0.0382686 0.617465 -0.785667 -0.00685879 0.580135 -0.814492 0.122203 0.417558 -0.900395 
0.158322 0.341342 -0.92651 0.0445531 0.3058 -0.951053 -0.0479166 0.254445 -0.965899 
-0.207978 0.220201 -0.953025 -0.699313 0.297144 -0.650129 -0.472219 0.271658 -0.838577 
0.450632 0.182796 -0.873795 0.378487 0.138349 -0.915209 0.229248 0.173449 -0.95779 
0.109096 0.137242 -0.984511 0.0106521 0.124848 -0.992119 -0.0600361 0.153931 -0.986256 
-0.039263 0.228621 -0.972723 0.165068 0.225916 -0.96006 0.0724994 0.150649 -0.985925 
-0.116504 0.289689 -0.950004 0.0115436 0.173939 -0.984689 0.0913245 0.125969 -0.987822 
0.0411376 0.0486498 -0.997968 -0.11921 0.116905 -0.985963 -0.271305 0.00102606 -0.962493 
-0.678316 0.0419132 -0.733574 -0.504508 0.0640619 -0.861027 0.570404 0.0296885 -0.820828 
0.366839 0.0192772 -0.930085 0.195372 0.0112649 -0.980665 0.0923671 0.00386276 -0.995718 
0.0198022 0.0245993 -0.999501 -0.00169823 0.0599521 -0.9982 -0.0471559 0.144227 -0.98842 
0.0183645 0.169641 -0.985335 0.129277 -0.0646729 -0.989497 -0.0579637 0.0309114 -0.99784 
0.041848 -0.0312334 -0.998636 0.0379297 -0.074983 -0.996463 -0.11611 -0.119626 -0.986006 
-0.219643 -0.0584576 -0.973827 -0.709143 -0.119234 -0.69491 -0.515579 -0.0989971 -0.851104 
0.495922 -0.168138 -0.851934 0.371891 -0.157017 -0.9149 0.218884 -0.167332 -0.961296 
0.123886 -0.138649 -0.982562 0.0667504 -0.0862789 -0.994032 0.0607491 -0.0712397 -0.995608 
0.0837836 -0.104494 -0.99099 -0.0511872 -0.101199 -0.993548 -0.0220177 -0.119588 -0.992579 
-0.0701318 -0.0886285 -0.993593 -0.0131266 -0.131971 -0.991167 -0.0444905 -0.207894 -0.977139 
-0.0903636 -0.2761 -0.956871 -0.282445 -0.306333 -0.909057 -0.574116 -0.382838 -0.723758 
-0.527264 -0.439465 -0.72723 -0.516186 -0.375015 -0.77001 0.388848 -0.245166 -0.888083 
0.386551 -0.259728 -0.884941 0.366193 -0.238197 -0.899536 0.229082 -0.224808 -0.947092 
0.172064 -0.168672 -0.970538 0.0890134 -0.130178 -0.987487 -0.0225196 -0.0980555 -0.994926 
-0.0411058 -0.153392 -0.98731 0.0294012 -0.220899 -0.974853 0.0639928 -0.0932977 -0.99358 
-0.00243189 -0.0892908 -0.996003 -0.0744454 -0.106404 -0.991532 -0.0809617 -0.192765 -0.977899 
-0.114521 -0.296876 -0.948024 -0.27701 -0.470747 -0.837653 -0.213578 -0.358556 -0.908747 
-0.396579 -0.451099 -0.799522 -0.393277 -0.449756 -0.801906 -0.390569 -0.448015 -0.8042 
0.336724 -0.310269 -0.889016 0.313833 -0.31532 -0.89559 0.277543 -0.27834 -0.919509 
0.226057 -0.192556 -0.954893 0.139554 -0.140805 -0.980152 0.0421311 -0.050357 -0.997842 
-0.0300978 0.0302695 -0.999089 0.011143 0.0532943 -0.998517 0.0648451 -0.0106945 -0.997838 
-0.0385989 -0.0998507 -0.994253 -0.172419 -0.161637 -0.971671 -0.209135 -0.275065 -0.938404 
-0.269952 -0.456803 -0.847619 -0.272045 -0.446119 -0.852625 -0.243354 -0.406566 -0.880615 
0.366333 -0.362351 -0.857031 0.350278 -0.402742 -0.845638 0.324471 -0.329495 -0.886652 
0.223438 -0.235655 -0.945802 0.146106 -0.132168 -0.9804 0.0635779 -0.054822 -0.99647 
-0.0131447 -0.0434761 -0.998968 -0.0869285 -0.151618 -0.984609 -0.150403 -0.295911 -0.9433 
-0.285978 -0.529881 -0.7984 -0.257291 -0.364459 -0.89497 -0.310806 -0.456298 -0.833781 
-0.312864 -0.46296 -0.829327 -0.307591 -0.442237 -0.842505 0.330901 -0.467171 -0.819912 
0.325997 -0.474468 -0.817683 0.324038 -0.453793 -0.830103 0.239204 -0.572667 -0.784113 
0.231701 -0.401953 -0.88586 0.0687046 -0.659889 -0.748215 0.0581082 -0.338037 -0.939337 
-0.142199 -0.651345 -0.745339 -0.0950943 -0.391189 -0.915384 -0.234745 -0.615638 -0.752253 
-0.197797 -0.478288 -0.855638 -0.261321 -0.601339 -0.755052 -0.252961 -0.610987 -0.750137 
-0.248891 -0.590801 -0.767469 -0.0376988 0.0774452 -0.996284 -0.0351011 0.00314622 -0.999379 
0.012637 0.0162206 -0.999789 -0.0285819 0.0393824 -0.998815 -0.0219433 -0.00736895 -0.999732 
-0.0228477 0.0395956 -0.998955 0.0227686 -0.0735192 -0.997034 -0.0523759 -0.0569286 -0.997003 
-0.0390524 -0.0685148 -0.996885 -0.0503664 -0.035047 -0.998116 
