# vtk DataFile Version 4.2
vtk output
ASCII
DATASET POLYDATA
POINTS 616 float
-46.3922 5.97839 -20.6843 -38.8031 5.97839 -20.4676 -46.3922 13.5675 -20.4947 
-31.2139 21.1567 -20.6189 -31.2139 -31.9674 -12.8354 -23.6248 -31.9674 -13.3827 
-16.0356 -31.9674 -13.2806 -46.3922 -24.3782 -12.9555 -38.8031 -24.3782 -15.4173 
-31.2139 -24.3782 -17.1855 -23.6248 -24.3782 -16.8716 -16.0356 -24.3782 -16.3678 
-8.44645 -24.3782 -15.3909 -0.857305 -24.3782 -15.0177 6.73184 -24.3782 -15.2173 
14.321 -24.3782 -14.8729 21.9101 -24.3782 -14.4014 29.4993 -24.3782 -14.2423 
37.0884 -24.3782 -13.4869 -53.9813 -16.7891 -13.4393 -46.3922 -16.7891 -16.65 
-38.8031 -16.7891 -18.2427 -31.2139 -16.7891 -18.745 -23.6248 -16.7891 -18.0755 
-16.0356 -16.7891 -16.8165 -8.44645 -16.7891 -15.8157 -0.857305 -16.7891 -16.4484 
6.73184 -16.7891 -17.5447 14.321 -16.7891 -16.8524 21.9101 -16.7891 -16.6573 
29.4993 -16.7891 -16.8317 37.0884 -16.7891 -16.8613 44.6776 -16.7891 -15.8908 
52.2667 -16.7891 -13.3607 -61.5705 -9.1999 -13.4522 -53.9813 -9.1999 -16.4917 
-46.3922 -9.1999 -18.976 -38.8031 -9.1999 -19.6095 -31.2139 -9.1999 -19.4255 
-23.6248 -9.1999 -18.4419 -16.0356 -9.1999 -16.6704 -8.44645 -9.1999 -14.8933 
-0.857305 -9.1999 -17.006 6.73184 -9.1999 -18.5532 14.321 -9.1999 -17.4038 
21.9101 -9.1999 -17.2707 29.4993 -9.1999 -17.7487 37.0884 -9.1999 -17.8892 
44.6776 -9.1999 -17.4075 52.2667 -9.1999 -16.3237 59.8559 -9.1999 -14.1076 
-61.5705 -1.61075 -13.6534 -53.9813 -1.61075 -17.8576 -46.3922 -1.3078 -20.331 
-46.3922 -1.61075 -20.3133 -38.8031 -0.027683 -20.331 -38.8031 -1.61075 -20.2949 
-31.2139 -1.61075 -19.781 -23.6248 -1.61075 -18.5454 -16.0356 -1.61075 -16.8161 
-8.44645 -1.61075 -17.3189 -0.857305 -1.61075 -16.7893 6.73184 -1.61075 -18.358 
14.321 -1.61075 -17.2031 21.9101 -1.61075 -16.9456 29.4993 -1.61075 -17.804 
37.0884 -1.61075 -18.3186 44.6776 -1.61075 -18.2534 52.2667 -1.61075 -16.8966 
59.8559 -1.61075 -13.99 -61.5705 5.97839 -14.0552 -47.4735 5.97839 -20.331 
-53.9813 5.97839 -18.1684 -37.2896 5.97839 -20.331 -38.8031 12.9165 -20.331 
-31.2139 5.97839 -19.7837 -23.6248 5.97839 -18.3741 -16.0356 5.97839 -16.7772 
-8.44645 5.97839 -17.1627 -0.857305 5.97839 -17.0114 6.73184 5.97839 -18.3004 
14.321 5.97839 -17.0997 21.9101 5.97839 -16.952 29.4993 5.97839 -17.8153 
37.0884 5.97839 -18.3095 44.6776 5.97839 -18.5282 52.2667 5.97839 -17.286 
59.8559 5.97839 -14.2692 -61.5705 13.5675 -14.3254 -46.8577 13.5675 -20.331 
-53.9813 13.5675 -18.1769 -39.3887 13.5675 -20.331 -46.3922 15.4407 -20.331 
-38.8031 13.5675 -20.3182 -31.2139 15.9333 -20.331 -31.2139 13.5675 -20.1925 
-23.6248 13.5675 -18.7573 -16.0356 13.5675 -17.792 -8.44645 13.5675 -16.6355 
-0.857305 13.5675 -16.4882 6.73184 13.5675 -16.875 14.321 13.5675 -17.1175 
21.9101 13.5675 -17.756 29.4993 13.5675 -17.8962 37.0884 13.5675 -18.1412 
44.6776 13.5675 -17.5023 52.2667 13.5675 -16.6418 -61.5705 21.1567 -13.2671 
-53.9813 21.1567 -17.9724 -46.3922 21.1567 -19.8001 -33.9041 21.1567 -20.331 
-38.8031 21.1567 -19.7652 -29.9596 21.1567 -20.331 -31.2139 21.9816 -20.331 
-23.6248 21.1567 -18.7525 -16.0356 21.1567 -17.1716 -8.44645 21.1567 -14.4367 
-0.857305 21.1567 -14.5632 6.73184 21.1567 -15.6889 14.321 21.1567 -16.8242 
21.9101 21.1567 -17.2572 29.4993 21.1567 -17.6237 37.0884 21.1567 -18.2958 
44.6776 21.1567 -16.0601 52.2667 21.1567 -14.0933 -53.9813 28.7458 -13.7721 
-46.3922 28.7458 -16.9993 -38.8031 28.7458 -18.5907 -31.2139 28.7458 -17.7718 
-23.6248 28.7458 -16.1101 6.73184 28.7458 -13.2167 14.321 28.7458 -14.9094 
21.9101 28.7458 -15.4444 29.4993 28.7458 -15.6808 37.0884 28.7458 -14.732 
44.6776 28.7458 -13.3337 -31.2139 -32.0873 -12.7419 -23.6248 -32.7452 -12.7419 
-16.0356 -32.675 -12.7419 -46.3922 -24.6944 -12.7419 -46.3922 -31.9674 -6.12856 
-31.5389 -31.9674 -12.7419 -38.8031 -28.6639 -12.7419 -38.8031 -31.9674 -9.73254 
-10.2415 -31.9674 -12.7419 -8.44645 -31.5456 -12.7419 -8.44645 -31.9674 -12.5451 
-0.857305 -30.1504 -12.7419 -0.857305 -31.9674 -11.8784 6.73184 -29.7814 -12.7419 
6.73184 -31.9674 -11.5742 14.321 -28.7274 -12.7419 14.321 -31.9674 -10.8041 
21.9101 -27.7179 -12.7419 21.9101 -31.9674 -9.97568 29.4993 -26.6542 -12.7419 
29.4993 -31.9674 -8.27095 37.0884 -25.501 -12.7419 37.0884 -31.9674 -6.75905 
-46.8613 -24.3782 -12.7419 -53.9813 -18.1883 -12.7419 -53.9813 -24.3782 -9.00393 
40.6408 -24.3782 -12.7419 44.6776 -22.9208 -12.7419 44.6776 -24.3782 -11.6404 
52.2667 -18.0955 -12.7419 52.2667 -24.3782 -8.1939 -55.1306 -16.7891 -12.7419 
-61.5705 -10.6813 -12.7419 -61.5705 -16.7891 -7.70716 53.9302 -16.7891 -12.7419 
59.8559 -12.426 -12.7419 59.8559 -16.7891 -9.69122 -62.3734 -9.1999 -12.7419 
61.9707 -9.1999 -12.7419 67.445 -9.1999 -7.27501 -62.7288 -1.61075 -12.7419 
62.1823 -1.61075 -12.7419 67.445 -1.61075 -9.64762 -63.1892 5.97839 -12.7419 
-69.1596 5.97839 -5.3753 62.9133 5.97839 -12.7419 59.8559 12.6582 -12.7419 
67.445 5.97839 -10.1438 -63.2512 13.5675 -12.7419 59.4519 13.5675 -12.7419 
59.8559 13.5675 -12.5185 67.445 13.5675 -6.92471 -62.14 21.1567 -12.7419 
-61.5705 22.439 -12.7419 -16.0356 28.4828 -12.7419 -8.44645 24.0722 -12.7419 
-0.857305 25.5172 -12.7419 56.279 21.1567 -12.7419 52.2667 23.5797 -12.7419 
59.8559 21.1567 -11.2487 -55.7034 28.7458 -12.7419 -61.5705 28.7458 -5.6568 
-53.9813 30.2218 -12.7419 -46.3922 36.0186 -12.7419 -38.8031 36.1655 -12.7419 
-31.2139 34.9939 -12.7419 -16.3979 28.7458 -12.7419 -23.6248 33.0112 -12.7419 
-16.0356 28.7458 -12.5103 -8.44645 28.7458 -9.40713 4.89145 28.7458 -12.7419 
-0.857305 28.7458 -11.0028 6.73184 29.5108 -12.7419 14.321 32.1016 -12.7419 
21.9101 32.8411 -12.7419 29.4993 32.9581 -12.7419 37.0884 32.4895 -12.7419 
45.8358 28.7458 -12.7419 44.6776 29.4767 -12.7419 52.2667 28.7458 -9.5989 
-46.3922 36.335 -11.8962 -38.8031 36.335 -12.4853 -31.2139 36.335 -9.9551 
-23.6248 36.335 -6.82061 6.73184 36.335 -5.34785 14.321 36.335 -7.29627 
21.9101 36.335 -8.32469 29.4993 36.335 -8.87846 37.0884 36.335 -7.32249 
-46.3922 -32.535 -5.15273 -38.8031 -35.3852 -5.15273 -31.2139 -37.4035 -5.15273 
-23.6248 -38.4197 -5.15273 -16.0356 -38.6178 -5.15273 -8.44645 -38.3021 -5.15273 
-0.857305 -38.3034 -5.15273 6.73184 -38.2004 -5.15273 14.321 -37.3051 -5.15273 
21.9101 -36.0553 -5.15273 29.4993 -34.6153 -5.15273 37.0884 -33.1222 -5.15273 
-47.3532 -31.9674 -5.15273 -53.9813 -27.4176 -5.15273 41.0139 -31.9674 -5.15273 
44.6776 -30.6212 -5.15273 44.6776 -31.9674 -0.537013 52.2667 -26.6274 -5.15273 
-57.5887 -24.3782 -5.15273 -61.5705 -19.5292 -5.15273 55.7729 -24.3782 -5.15273 
59.8559 -21.2359 -5.15273 -63.3283 -16.7891 -5.15273 64.1611 -16.7891 -5.15273 
67.445 -12.2028 -5.15273 -66.6394 -9.1999 -5.15273 69.1119 -9.1999 -5.15273 
-68.8187 -1.61075 -5.15273 -69.1596 3.82451 -5.15273 -69.1596 -1.61075 2.0962 
71.1932 -1.61075 -5.15273 -69.2709 5.97839 -5.15273 -69.1596 6.69605 -5.15273 
-69.1596 5.97839 -4.0041 71.42 5.97839 -5.15273 -68.1334 13.5675 -5.15273 
68.794 13.5675 -5.15273 67.445 16.6191 -5.15273 -65.4436 21.1567 -5.15273 
65.0554 21.1567 -5.15273 59.8559 26.3113 -5.15273 -61.7593 28.7458 -5.15273 
-61.5705 28.9568 -5.15273 -61.5705 28.7458 -4.58199 -53.9813 34.7183 -5.15273 
-16.0356 33.6985 -5.15273 -8.44645 31.9814 -5.15273 -0.857305 33.7977 -5.15273 
44.6776 35.3677 -5.15273 57.1008 28.7458 -5.15273 52.2667 32.2311 -5.15273 
-50.5032 36.335 -5.15273 -46.3922 37.8873 -5.15273 -46.3922 36.335 -0.10824 
-38.8031 39.3529 -5.15273 -31.2139 38.1586 -5.15273 -22.0641 36.335 -5.15273 
-23.6248 36.9993 -5.15273 -23.6248 36.335 -0.581215 6.40773 36.335 -5.15273 
6.73184 36.4379 -5.15273 6.73184 36.335 -3.05761 14.321 37.4206 -5.15273 
21.9101 37.9354 -5.15273 29.4993 38.1415 -5.15273 40.74 36.335 -5.15273 
37.0884 37.0794 -5.15273 37.0884 36.335 1.04556 -46.3922 -33.9438 2.43642 
-38.8031 -37.0776 2.43642 -31.2139 -38.3506 2.43642 -23.6248 -38.828 2.43642 
-16.0356 -39.1441 2.43642 -8.44645 -38.9924 2.43642 -0.857305 -39.4403 2.43642 
6.73184 -39.4804 2.43642 14.321 -38.8338 2.43642 21.9101 -37.962 2.43642 
29.4993 -36.9956 2.43642 37.0884 -34.9903 2.43642 44.6776 -32.674 2.43642 
-49.7582 -31.9674 2.43642 -53.9813 -29.0603 2.43642 46.2199 -31.9674 2.43642 
44.6776 -31.9674 5.25055 52.2667 -29.1307 2.43642 -59.2915 -24.3782 2.43642 
-61.5705 -21.3684 2.43642 59.1361 -24.3782 2.43642 59.8559 -23.8162 2.43642 
-64.4137 -16.7891 2.43642 -61.5705 -16.7891 8.77906 66.5661 -16.7891 2.43642 
67.445 -15.3289 2.43642 -67.3979 -9.1999 2.43642 -69.1596 -1.66896 2.43642 
70.9635 -9.1999 2.43642 -69.1733 -1.61075 2.43642 -69.1596 -1.45377 2.43642 
-69.1596 -1.61075 2.46297 72.5186 -1.61075 2.43642 -68.5054 5.97839 2.43642 
72.8529 5.97839 2.43642 -67.0435 13.5675 2.43642 -61.5705 13.5675 8.99566 
69.7469 13.5675 2.43642 67.445 18.9549 2.43642 67.445 13.5675 7.08781 
-63.4991 21.1567 2.43642 -61.5705 24.4328 2.43642 -61.5705 21.1567 4.67132 
66.0931 21.1567 2.43642 59.8559 26.5006 2.43642 59.8559 21.1567 9.93035 
-57.9601 28.7458 2.43642 -53.9813 31.8236 2.43642 -53.9813 28.7458 5.45742 
-46.3922 35.2875 2.43642 -46.3922 28.7458 9.5827 -23.6248 35.817 2.43642 
-23.6248 28.7458 9.9537 -16.0356 33.1089 2.43642 -16.0356 28.7458 8.48232 
-8.44645 32.3793 2.43642 -8.44645 28.7458 8.05385 -0.857305 34.2374 2.43642 
-0.857305 28.7458 9.38572 6.73184 36.0365 2.43642 37.0884 36.161 2.43642 
44.6776 34.792 2.43642 56.837 28.7458 2.43642 52.2667 31.5636 2.43642 
52.2667 28.7458 7.77075 -42.7943 36.335 2.43642 -38.8031 37.2663 2.43642 
-38.8031 36.335 3.67338 -30.3027 36.335 2.43642 -31.2139 36.4063 2.43642 
-31.2139 36.335 2.53491 10.9831 36.335 2.43642 14.321 36.5461 2.43642 
14.321 36.335 2.81836 21.9101 36.8825 2.43642 21.9101 36.335 3.42728 
36.0582 36.335 2.43642 29.4993 37.4426 2.43642 29.4993 36.335 4.33447 
-46.3922 -32.2738 10.0256 -38.8031 -34.2387 10.0256 -31.2139 -35.52 10.0256 
-23.6248 -36.4293 10.0256 -16.0356 -35.4182 10.0256 -8.44645 -34.6485 10.0256 
-0.857305 -34.327 10.0256 6.73184 -34.3912 10.0256 14.321 -35.3262 10.0256 
21.9101 -35.2224 10.0256 29.4993 -34.7588 10.0256 37.0884 -33.2991 10.0256 
[...]
POINT_DATA 616
SCALARS ImageScalars float
LOOKUP_TABLE default
0 0 0 0 0 0 0 0 0 
0 0 0 0 0 0 0 0 0 
0 0 0 0 0 0 0 0 0 
0 0 0 0 0 0 0 0 0 
0 0 0 0 0 0 0 0 0 
0 0 0 0 0 0 0 0 0 
0 0 0 0 0 0 0 0 0 
0 0 0 0 0 0 0 0 0 
0 0 0 0 0 0 0 0 0 
0 0 0 0 0 0 0 0 0 
0 0 0 0 0 0 0 0 0 
0 0 0 0 0 0 0 0 0 
0 0 0 0 0 0 0 0 0 
0 0 0 0 0 0 0 0 0 
0 0 0 0 0 0 0 0 0 
0 0 0 0 0 0 0 0 0 
0 0 0 0 0 0 0 0 0 
0 0 0 0 0 0 0 0 0 
0 0 0 0 0 0 0 0 0 
0 0 0 0 0 0 0 0 0 
0 0 0 0 0 0 0 0 0 
0 0 0 0 0 0 0 0 0 
0 0 0 0 0 0 0 0 0 
0 0 0 0 0 0 0 0 0 
0 0 0 0 0 0 0 0 0 
0 0 0 0 0 0 0 0 0 
0 0 0 0 0 0 0 0 0 
0 0 0 0 0 0 0 0 0 
0 0 0 0 0 0 0 0 0 
0 0 0 0 0 0 0 0 0 
0 0 0 0 0 0 0 0 0 
0 0 0 0 0 0 0 0 0 
0 0 0 0 0 0 0 0 0 
0 0 0 0 0 0 0 0 0 
0 0 0 0 0 0 0 0 0 
0 0 0 0 0 0 0 0 0 
0 0 0 0 0 0 0 0 0 
0 0 0 0 0 0 0 0 0 
0 0 0 0 0 0 0 0 0 
0 0 0 0 0 0 0 0 0 
0 0 0 0 0 0 0 0 0 
0 0 0 0 0 0 0 0 0 
0 0 0 0 0 0 0 0 0 
0 0 0 0 0 0 0 0 0 
0 0 0 0 0 0 0 0 0 
0 0 0 0 0 0 0 0 0 
0 0 0 0 0 0 0 0 0 
0 0 0 0 0 0 0 0 0 
0 0 0 0 0 0 0 0 0 
0 0 0 0 0 0 0 0 0 
0 0 0 0 0 0 0 0 0 
0 0 0 0 0 0 0 0 0 
0 0 0 0 0 0 0 0 0 
0 0 0 0 0 0 0 0 0 
0 0 0 0 0 0 0 0 0 
0 0 0 0 0 0 0 0 0 
0 0 0 0 0 0 0 0 0 
0 0 0 0 0 0 0 0 0 
0 0 0 0 0 0 0 0 0 
0 0 0 0 0 0 0 0 0 
0 0 0 0 0 0 0 0 0 
0 0 0 0 0 0 0 0 0 
0 0 0 0 0 0 0 0 0 
0 0 0 0 0 0 0 0 0 
0 0 0 0 0 0 0 0 0 
0 0 0 0 0 0 0 0 0 
0 0 0 0 0 0 0 0 0 
0 0 0 0 0 0 0 0 0 
0 0 0 0 
NORMALS Normals float
0.158286 0.0140124 0.987294 -0.0611513 0.00149666 0.998127 0.160536 -0.057108 0.985376 
-0.0640855 -0.152763 0.986183 0.159872 0.604913 0.780077 0.0266732 0.57448 0.818084 
-0.0480668 0.551276 0.832937 0.336545 0.509543 0.791898 0.210961 0.426134 0.879719 
0.0851293 0.356201 0.930523 -0.0522797 0.268036 0.961989 -0.0914853 0.206649 0.974129 
-0.0907991 0.196079 0.976375 -0.0110619 0.274213 0.961605 -0.00898087 0.35835 0.933544 
-0.050171 0.341907 0.938393 -0.0390691 0.373482 0.926814 -0.0574445 0.447782 0.892296 
-0.133075 0.506165 0.852108 0.447109 0.406615 0.796717 0.262581 0.314652 0.912165 
0.125884 0.248946 0.960302 -0.010426 0.135463 0.990728 -0.124714 0.0996933 0.987172 
-0.143786 0.0209135 0.989388 -0.0246992 -0.0349065 0.999085 0.111707 0.125773 0.98575 
0.0266318 0.211621 0.976989 -0.056852 0.159546 0.985552 -0.00178972 0.177879 0.984051 
0.0133858 0.215338 0.976448 -0.0652657 0.273626 0.959619 -0.200092 0.302846 0.931798 
-0.34379 0.381566 0.85803 0.623026 0.245596 0.742644 0.339614 0.234291 0.910917 
0.20547 0.226604 0.952068 0.0268806 0.136674 0.990251 -0.075804 0.0664745 0.994904 
-0.178529 0.0302763 0.983469 -0.234034 -0.000319941 0.972228 0.0130497 0.0866643 0.996152 
0.25303 0.0234702 0.967174 0.0182001 0.052187 0.998471 -0.0846504 0.0231525 0.996142 
0.02267 0.0181014 0.999579 0.040669 0.060413 0.997345 -0.0210882 0.0908054 0.995645 
-0.0960686 0.163725 0.981817 -0.225882 0.215274 0.950071 -0.436704 0.207627 0.875318 
0.610779 0.0353391 0.791012 0.35652 0.108186 0.928003 0.160417 0.102235 0.981741 
0.160402 0.106107 0.981332 -0.0408779 0.0443408 0.99818 -0.0350457 0.0556769 0.997834 
-0.113733 0.0234114 0.993236 -0.189899 -0.00442063 0.981794 -0.0849129 0.00705344 0.996363 
-0.00233542 0.163168 0.986596 0.0696509 0.00136963 0.997571 0.0292777 -0.0171129 0.999425 
-0.0938322 -0.0208973 0.995369 0.0405424 -0.0210336 0.998956 0.0899969 0.00436777 0.995932 
0.0296865 0.027537 0.99918 -0.100674 0.0718203 0.992324 -0.250646 0.0594812 0.96625 
-0.421414 0.00864518 0.906827 0.635573 0.0351244 0.771241 0.18273 0.0109127 0.983103 
0.342783 0.0204022 0.939193 -0.0770508 0.00662683 0.997005 -0.0228494 -0.0414211 0.99888 
-0.135763 0.0267013 0.990381 -0.194961 0.0136901 0.980715 -0.0818588 0.0599607 0.994839 
0.0161666 -0.0466692 0.99878 0.0749118 -0.0197469 0.996995 0.00526336 -0.098312 0.995142 
-0.0894284 -0.0053997 0.995979 0.0471372 0.0500021 0.997636 0.0890056 0.0060558 0.996013 
0.0464438 -0.0116305 0.998853 -0.0803409 -0.0490732 0.995559 -0.244208 -0.00855411 0.969685 
-0.412647 -0.0798867 0.907381 0.625005 -0.05347 0.778787 0.170159 -0.0532355 0.983978 
0.318057 -0.00897317 0.948029 -0.00586403 -0.0465691 0.998898 0.14392 -0.108281 0.983647 
-0.019095 -0.0454594 0.998784 -0.0905466 -0.00978337 0.995844 -0.101951 0.0553852 0.993246 
-0.15715 0.0254321 0.987247 -0.144524 0.0295203 0.989061 -0.0789945 -0.156212 0.98456 
0.0154783 -0.156514 0.987554 0.0407126 -0.167166 0.985088 0.0551676 -0.0174386 0.998325 
0.0528466 0.0212149 0.998377 0.0253499 -0.0123731 0.999602 -0.0246583 -0.00196186 0.999694 
-0.0912922 -0.156983 0.983373 -0.29065 -0.182121 0.939337 0.665962 -0.245958 0.704272 
0.392047 -0.202354 0.897414 0.0941966 -0.254389 0.962504 -0.0238317 -0.131879 0.990979 
0.0532868 -0.0976932 0.993789 -0.0886171 -0.151724 0.984442 -0.0736956 -0.180604 0.980791 
-0.212194 -0.151269 0.965449 -0.267058 -0.256105 0.929026 -0.161298 -0.391595 0.90589 
0.078939 -0.314582 0.945942 0.142721 -0.218435 0.965358 0.102891 -0.144152 0.984192 
0.0506616 -0.144313 0.988234 0.0648122 -0.126648 0.989828 -0.0957486 -0.198362 0.975441 
-0.233596 -0.21539 0.948177 -0.29186 -0.390721 0.873015 0.490329 -0.511001 0.706014 
0.225501 -0.377175 0.89827 0.0672782 -0.352056 0.933558 -0.136086 -0.449735 0.882734 
-0.289124 -0.513167 0.808126 0.225507 -0.434738 0.871865 0.133257 -0.413695 0.90061 
0.04775 -0.408809 0.91137 -0.0448575 -0.445682 0.894067 -0.11903 -0.444898 0.887636 
-0.302684 -0.523147 0.79668 0.160833 0.60964 0.776191 0.027697 0.609969 0.791941 
-0.0444107 0.583027 0.811238 0.340581 0.51845 0.784356 0.429215 0.806024 0.407555 
0.164474 0.608736 0.776137 0.243083 0.577965 0.779017 0.271588 0.748649 0.604784 
-0.070698 0.529004 0.845669 -0.0804066 0.502186 0.861013 -0.0784395 0.527362 0.846012 
-0.0434382 0.455586 0.889132 -0.0510067 0.540517 0.839786 -0.0415757 0.479387 0.876619 
-0.0569186 0.562045 0.825146 -0.0619588 0.482742 0.873568 -0.084461 0.628779 0.772983 
-0.0732115 0.468875 0.880225 -0.127529 0.665101 0.735783 -0.0825522 0.528874 0.844676 
-0.155393 0.752024 0.640556 -0.140533 0.541395 0.82894 -0.202356 0.823063 0.530679 
0.347471 0.51393 0.784308 0.455648 0.440207 0.773694 0.531005 0.616318 0.581538 
-0.177863 0.552456 0.814345 -0.223585 0.549627 0.804934 -0.240901 0.615413 0.750489 
-0.356674 0.411223 0.838856 -0.434871 0.676953 0.593819 0.471914 0.427886 0.770851 
0.63334 0.291295 0.716957 0.722159 0.480714 0.497394 -0.379141 0.40868 0.830201 
-0.47176 0.339192 0.813874 -0.532293 0.526647 0.662803 0.672496 0.247945 0.697332 
-0.53619 0.234868 0.810764 -0.760963 0.379936 0.525912 0.6715 0.0417031 0.73983 
-0.512456 0.0309901 0.858154 -0.731579 0.1361 0.668033 0.67734 0.021905 0.735344 
0.97236 -0.0534131 0.227293 -0.528832 -0.0880384 0.844148 -0.480934 -0.146208 0.86448 
-0.727331 -0.123948 0.675001 0.718845 -0.061872 0.692412 -0.477919 -0.16215 0.863308 
-0.489973 -0.161131 0.856717 -0.784095 -0.381885 0.489244 0.697242 -0.252206 0.671004 
0.676288 -0.299629 0.672947 -0.355104 -0.638209 0.683074 -0.128626 -0.506265 0.852732 
0.146466 -0.440631 0.885659 -0.403354 -0.375835 0.834298 -0.327546 -0.433684 0.839423 
-0.54139 -0.408273 0.73499 0.542964 -0.518374 0.660665 0.769132 -0.63658 0.0565929 
0.516123 -0.54509 0.660677 0.201328 -0.825503 0.527268 -0.0655406 -0.814649 0.576239 
-0.145726 -0.799073 0.583307 -0.356558 -0.644793 0.676098 -0.329572 -0.701995 0.631337 
-0.354148 -0.65735 0.665184 -0.0567539 -0.769844 0.635703 0.218252 -0.461688 0.859774 
0.209899 -0.599767 0.772154 0.230456 -0.466602 0.853916 0.12918 -0.587564 0.7988 
0.0368974 -0.613614 0.788744 -0.0106697 -0.616093 0.787601 -0.140658 -0.628651 0.764862 
-0.326625 -0.530574 0.782181 -0.312266 -0.557563 0.769164 -0.46076 -0.642708 0.612068 
0.210206 -0.867635 0.450581 -0.0648325 -0.831727 0.551387 -0.156466 -0.917353 0.366035 
-0.312774 -0.920041 0.236 0.222821 -0.942736 0.248193 0.105276 -0.935975 0.335958 
0.0554248 -0.913812 0.402337 -0.0178893 -0.888178 0.459152 -0.172981 -0.951997 0.252545 
0.430436 0.829025 0.35699 0.297724 0.870692 0.391478 0.179269 0.932457 0.313667 
0.0726393 0.956669 0.281971 -0.00605696 0.952237 0.305298 -0.0200883 0.937433 0.347586 
-0.00601474 0.913679 0.406392 -0.0587383 0.903645 0.424234 -0.125902 0.884959 0.448327 
-0.15349 0.877647 0.454066 -0.179459 0.849272 0.49652 -0.21969 0.863286 0.454394 
0.451654 0.816355 0.359963 0.576993 0.719524 0.386477 -0.285993 0.850517 0.441393 
-0.349778 0.825961 0.44209 -0.368298 0.916198 0.157919 -0.458757 0.776624 0.431738 
0.655047 0.653416 0.379422 0.767138 0.528634 0.36338 -0.507964 0.738269 0.44377 
-0.589547 0.664697 0.458926 0.805624 0.47054 0.359948 -0.702117 0.543931 0.459533 
-0.769905 0.457159 0.445255 0.896777 0.316065 0.309667 -0.803099 0.392933 0.447924 
0.946482 0.147678 0.286991 0.972644 0.0022904 0.232289 0.975028 0.0750126 -0.209028 
-0.885931 0.130172 0.445175 0.975678 -0.0547202 0.21227 0.976157 -0.0718189 0.204841 
0.98928 -0.0682425 0.129101 -0.894438 -0.137027 0.425681 0.963662 -0.21937 0.152419 
-0.832448 -0.385329 0.398187 -0.805118 -0.442819 0.394584 0.908848 -0.409077 0.0815569 
-0.764479 -0.53284 0.362841 -0.656427 -0.696959 0.288709 0.774279 -0.632508 0.0206281 
0.766641 -0.641663 0.0230362 0.774217 -0.632886 -0.00664592 0.543383 -0.839482 -0.00210866 
-0.29038 -0.932508 0.214728 -0.00370287 -0.93342 0.358767 0.285034 -0.894036 0.345624 
-0.323463 -0.925263 0.198143 -0.594036 -0.753021 0.282986 -0.474185 -0.845467 0.245632 
0.406261 -0.913075 -0.0352892 0.257474 -0.966151 -0.016091 0.311027 -0.915537 -0.255059 
0.0171546 -0.999344 0.0319014 -0.151603 -0.98581 0.0720818 -0.309676 -0.940078 0.142665 
-0.303084 -0.944391 0.127541 -0.249855 -0.950881 -0.182749 0.224356 -0.944893 0.238415 
0.221061 -0.946623 0.234598 0.205953 -0.973898 0.0954252 0.0992927 -0.97754 0.185892 
0.0479354 -0.985281 0.164085 -0.0557872 -0.982641 0.176932 -0.24526 -0.959196 0.140677 
-0.172994 -0.978652 0.110965 -0.165049 -0.959088 -0.230018 0.442168 0.896739 -0.01861 
0.28322 0.957323 -0.0576053 0.109605 0.989177 -0.0975509 0.051333 0.994265 -0.0938209 
0.0112339 0.98713 -0.159525 0.0180626 0.984131 -0.176522 0.0313828 0.983388 -0.178782 
-0.0392252 0.984876 -0.168762 -0.0987413 0.991111 -0.0891585 -0.11764 0.992259 -0.0397874 
-0.18874 0.982011 0.0055621 -0.261252 0.965207 0.011045 -0.364608 0.931146 -0.00523625 
0.518907 0.854343 -0.0288811 0.620687 0.782175 -0.0543166 -0.386683 0.922198 -0.00512811 
-0.373016 0.913471 -0.162572 -0.486593 0.873627 0.00154614 0.745415 0.660555 -0.0895692 
0.814466 0.56934 -0.111788 -0.607539 0.793744 -0.0294288 -0.624395 0.780466 -0.0316882 
0.877396 0.464628 -0.119571 0.742461 0.408368 -0.531024 -0.831779 0.552507 -0.0536672 
-0.857111 0.511 -0.065121 0.942129 0.278538 -0.186571 0.97062 0.0729504 -0.229291 
-0.927098 0.373755 -0.0282358 0.970731 0.0714542 -0.229292 0.970471 0.0672015 -0.231667 
0.970423 0.0712385 -0.230659 -0.986344 0.112704 -0.120096 0.934704 -0.133037 -0.329589 
-0.978497 -0.170136 -0.116605 0.883827 -0.281712 -0.373481 0.599056 -0.334579 -0.727453 
-0.91181 -0.393997 -0.115621 -0.831832 -0.528045 -0.170953 -0.806664 -0.428262 -0.407289 
0.754335 -0.482954 -0.444672 0.741977 -0.508536 -0.436877 0.696573 -0.434932 -0.570631 
-0.76735 -0.612057 -0.191207 -0.606307 -0.757768 -0.241203 -0.492546 -0.672879 -0.551935 
0.636919 -0.609317 -0.472299 0.458929 -0.727646 -0.509819 0.425535 -0.612626 -0.666041 
0.319537 -0.847544 -0.423752 0.32548 -0.42323 -0.845541 -0.203582 -0.903605 -0.376897 
-0.107124 -0.552121 -0.826854 -0.20187 -0.925065 -0.321718 -0.0991677 -0.693776 -0.713331 
0.0704863 -0.966194 -0.247995 0.0476411 -0.742885 -0.667722 0.231803 -0.941182 -0.245854 
0.116713 -0.621692 -0.774517 0.143389 -0.945205 -0.293303 -0.158681 -0.939138 -0.304696 
-0.284919 -0.909282 -0.303361 -0.559827 -0.788772 -0.253835 -0.452394 -0.859591 -0.237576 
-0.451157 -0.673886 -0.585095 0.193636 -0.870848 -0.451806 0.0527727 -0.872167 -0.486354 
0.0369534 -0.836383 -0.546899 -0.100083 -0.904714 -0.414096 -0.0865983 -0.903946 -0.418786 
-0.0857017 -0.901731 -0.423717 0.0934863 -0.945258 -0.312646 0.0537299 -0.94208 -0.331058 
0.0532094 -0.935119 -0.350316 0.057736 -0.938431 -0.340608 0.0560948 -0.919511 -0.38904 
-0.145325 -0.940177 -0.308135 -0.0471031 -0.940051 -0.337766 -0.042572 -0.897264 -0.439438 
0.411188 0.775376 -0.479288 0.206988 0.825898 -0.524451 0.11681 0.83415 -0.539026 
-0.00284525 0.842017 -0.539443 -0.0925119 0.776867 -0.622831 -0.0563027 0.726833 -0.684503 
-0.0132368 0.673801 -0.738794 0.0500972 0.683836 -0.727914 0.0404561 0.773403 -0.632623 
-0.031994 0.833622 -0.551408 -0.119346 0.856144 -0.502766 -0.238106 0.855148 -0.460465 
0.42428 0.766517 -0.482119 0.597774 0.610215 -0.519908 0.411686 0.76123 -0.501042 
0.188213 0.72533 -0.662172 0.0655064 0.670525 -0.738989 -0.0273943 0.596682 -0.80201 
-0.103657 0.611633 -0.784322 -0.0817868 0.612421 -0.78629 -0.0232073 0.581665 -0.813097 
0.0618913 0.581001 -0.811546 0.0848311 0.616697 -0.782617 0.00251417 0.68285 -0.730555 
-0.0851909 0.731117 -0.676913 -0.304408 0.837311 -0.454143 -0.21881 0.798912 -0.560234 
-0.35739 0.80605 -0.471759 -0.480851 0.71919 -0.501546 0.63183 0.573204 -0.521754 
0.566758 0.548574 -0.614696 0.310702 0.398113 -0.863117 -0.11192 0.268554 -0.95674 
-0.0790599 0.316792 -0.945194 -0.0192937 0.350748 -0.936271 0.0801052 0.359093 -0.929858 
0.120596 0.323431 -0.938536 -0.277426 0.505754 -0.816852 -0.519233 0.716827 -0.465356 
-0.411413 0.660518 -0.628056 -0.590212 0.640379 -0.491491 0.688657 0.376927 -0.619417 
0.699257 0.341111 -0.628238 0.470115 0.265482 -0.841731 -0.678535 0.471599 -0.563191 
-0.567029 0.396588 -0.721939 -0.732704 0.362416 -0.57602 0.721012 0.202598 -0.662643 
0.655674 0.185324 -0.731947 0.406876 0.121512 -0.905365 -0.432508 0.260061 -0.863311 
-0.732539 0.359002 -0.578363 -0.729962 0.356896 -0.582907 0.718223 -0.0142583 -0.695667 
0.58918 -0.035496 -0.807222 -0.0378298 -0.182166 -0.98254 -0.0183476 -0.111138 -0.993636 
-0.484375 0.050828 -0.873383 -0.773747 0.0720826 -0.629381 -0.704899 0.0633 -0.706477 
0.614692 -0.210194 -0.760244 0.574485 -0.28136 -0.768638 0.566708 -0.199607 -0.799374 
0.365813 -0.282011 -0.886933 0.154146 -0.234513 -0.959814 -0.0420127 -0.21302 -0.976144 
0.0215108 -0.258194 -0.965854 -0.0845388 -0.285805 -0.954552 0.0899668 0.00272081 -0.995941 
-0.0685349 -0.0633876 -0.995633 -0.468005 -0.197947 -0.861272 -0.750973 -0.141174 -0.645065 
-0.707523 -0.312747 -0.63372 -0.66243 -0.146094 -0.73474 0.528409 -0.304346 -0.792564 
0.345742 -0.259185 -0.901823 0.206163 -0.234441 -0.950018 0.0771235 -0.261318 -0.962167 
-0.0523108 -0.237933 -0.969872 -0.0794111 -0.23722 -0.968205 -0.0182948 -0.264318 -0.964262 
0.0778417 -0.284066 -0.95564 0.114311 -0.132612 -0.984554 0.0170338 -0.271254 -0.962357 
0.00551526 -0.126151 -0.991996 0.0877033 -0.150282 -0.984745 -0.235937 -0.29235 -0.92675 
-0.660975 -0.413735 -0.626047 -0.49162 -0.667868 -0.558804 -0.420413 -0.283842 -0.861792 
0.445622 -0.360458 -0.819445 0.391089 -0.407159 -0.825391 0.394428 -0.363908 -0.843799 
0.313693 -0.400784 -0.860795 0.195415 -0.35447 -0.91442 0.0685606 -0.313407 -0.947141 
-0.03036 -0.320774 -0.946669 -0.105202 -0.545829 -0.831266 -0.0718077 -0.321365 -0.944229 
-0.071537 -0.562883 -0.823435 -0.0412605 -0.352433 -0.934927 0.0418078 -0.575354 -0.816836 
0.050068 -0.393149 -0.918111 0.107004 -0.571559 -0.813554 0.100369 -0.39243 -0.914289 
0.0629313 -0.384208 -0.921099 0.0559685 -0.313526 -0.947929 0.0641858 -0.313303 -0.947482 
0.0373943 -0.339229 -0.93996 -0.0289189 -0.360305 -0.932386 -0.137775 -0.415049 -0.899307 
-0.488323 -0.669311 -0.559968 -0.401509 -0.573185 -0.714318 -0.257051 -0.526605 -0.810316 
0.27875 -0.436211 -0.855581 0.028382 -0.594088 -0.803899 0.0699327 -0.526613 -0.847224 
-0.104227 -0.547546 -0.830259 -0.0835582 -0.551512 -0.829971 -0.0829368 -0.524557 -0.847326 
0.100994 -0.566201 -0.818057 0.0962609 -0.56474 -0.819635 0.0950728 -0.541967 -0.835005 
0.0723654 -0.606604 -0.791704 0.0808968 -0.54692 -0.833267 0.0486311 -0.641012 -0.765988 
0.0502117 -0.550739 -0.833166 -0.0137118 -0.654753 -0.755719 0.00848824 -0.568501 -0.822639 
-0.0814974 -0.672914 -0.735218 -0.0565379 -0.599628 -0.798279 -0.280097 -0.639729 -0.715746 
-0.161204 -0.696634 -0.699081 -0.172364 -0.646699 -0.743015 0.0868642 0.331241 -0.939539 
0.0300818 0.354089 -0.934728 -0.0470167 0.324749 -0.944631 0.045257 0.347868 -0.93645 
-0.027014 0.381857 -0.923827 -0.145538 0.427342 -0.892299 0.105152 0.327757 -0.938892 
0.244752 0.191455 -0.950495 0.0843905 0.321559 -0.943121 0.027514 0.326147 -0.944919 
-0.0851375 0.272006 -0.958522 -0.0503167 0.280782 -0.958452 -0.105424 0.200057 -0.974096 
-0.0432036 0.189977 -0.980838 0.00426494 0.19728 -0.980338 0.0605188 0.201878 -0.977539 
0.0847955 0.319136 -0.943908 0.111295 0.259689 -0.959258 0.0484095 0.317019 -0.947183 
-0.0187333 0.350132 -0.936513 -0.148362 0.425684 -0.892626 -0.145333 0.424563 -0.893658 
-0.169688 0.3582 -0.918095 -0.323849 0.351213 -0.878505 0.257756 0.152219 -0.954144 
0.229836 0.137893 -0.963411 0.124681 0.120642 -0.984835 0.0050958 0.103559 -0.99461 
-0.100256 0.0699579 -0.992499 -0.0883918 0.0844892 -0.992496 -0.031468 0.151889 -0.987896 
0.00803595 0.166765 -0.985964 0.0513164 0.147009 -0.987803 0.0825853 0.0746376 -0.993785 
0.0639089 0.0761973 -0.995043 0.00914759 0.131371 -0.991291 -0.0441141 0.170826 -0.984313 
-0.108093 0.26991 -0.956799 -0.353236 0.311508 -0.882149 -0.326394 0.307572 -0.893793 
0.346193 0.10297 -0.932495 0.369502 -0.0493698 -0.927917 0.183497 0.0518322 -0.981653 
0.0593082 -0.00188472 -0.998238 -0.0406392 -0.0470427 -0.998066 -0.0815003 -0.0372621 -0.995977 
-0.0259725 0.0277581 -0.999277 0.00220462 0.0952438 -0.995452 -0.0291022 -0.13667 -0.990189 
-0.0198402 -0.100432 -0.994746 -0.00220819 0.0460251 -0.998938 -0.00639823 -0.106648 -0.994276 
0.0478022 -0.0853048 -0.995208 0.110021 -0.0557759 -0.992363 0.0860195 0.0109343 -0.996233 
-0.0124793 0.0812665 -0.996614 -0.120446 0.0739236 -0.989964 -0.291957 0.150074 -0.944584 
-0.214133 0.0740799 -0.973991 0.361129 -0.100741 -0.927058 0.357897 -0.113208 -0.926873 
0.35519 -0.100197 -0.929409 0.131262 -0.195129 -0.971954 0.113357 -0.119031 -0.986398 
0.0300826 -0.128172 -0.991296 -0.029299 -0.120466 -0.992285 -0.0365967 -0.192138 -0.980685 
-0.0226734 -0.123645 -0.992067 0.0276617 -0.217728 -0.975617 0.0433093 -0.0744828 -0.996281 
-0.101511 -0.139763 -0.984968 -0.0854868 -0.283966 -0.955016 -0.157343 -0.073495 -0.984805 
0.0191686 -0.0741721 -0.997061 -0.00578496 -0.0935455 -0.995598 0.0658017 0.0202367 -0.997627 
0.013261 -0.109075 -0.993945 0.162876 -0.0970611 -0.981861 0.145873 -0.0685759 -0.986924 
0.024049 -0.0377232 -0.998999 -0.10305 0.0163246 -0.994542 -0.437809 0.0447442 -0.897954 
-0.172634 0.0140017 -0.984887 0.0811692 -0.198453 -0.976744 0.0615425 -0.196085 -0.978654 
0.0569613 -0.183449 -0.981377 -0.0391001 -0.198047 -0.979412 -0.0405472 -0.194836 -0.979997 
-0.0372419 -0.187463 -0.981565 0.0651146 -0.0730873 -0.995198 -0.0194058 -0.0861843 -0.99609 
0.0288501 -0.218442 -0.975423 0.0484752 -0.11796 -0.991835 0.116662 -0.0902991 -0.989058 
0.135789 -0.106038 -0.985047 0.148359 -0.0946544 -0.984393 0.143521 -0.135106 -0.980382 
0.0730168 -0.160218 -0.984377 -0.0685736 -0.116315 -0.990842 -0.389497 -0.189791 -0.901261 
-0.229875 -0.233768 -0.944728 -0.194454 -0.148936 -0.969539 0.0791678 -0.195752 -0.977453 
0.0737523 -0.221064 -0.972467 0.0769087 -0.210596 -0.974543 0.0132488 -0.275043 -0.961341 
0.0318893 -0.242833 -0.969544 -0.161818 -0.307262 -0.937766 -0.0997017 -0.345183 -0.933224 
-0.0929687 -0.322148 -0.942113 
