# vtk DataFile Version 4.2
vtk output
ASCII
DATASET POLYDATA
POINTS 542 float
-43.6038 -29.7924 -14.6081 -35.2202 -29.7924 -15.171 -26.8365 -29.7924 -15.1737 
-18.4529 -29.7924 -14.6659 -10.0693 -29.7924 -14.1116 -1.68568 -29.7924 -14.3182 
6.69795 -29.7924 -13.8034 -51.9874 -21.4087 -16.1946 -43.6038 -21.4087 -17.0495 
-35.2202 -21.4087 -17.684 -26.8365 -21.4087 -16.7137 -18.4529 -21.4087 -16.033 
-10.0693 -21.4087 -15.053 -1.68568 -21.4087 -15.6685 6.69795 -21.4087 -15.037 
15.0816 -21.4087 -14.7042 23.4652 -21.4087 -14.5911 31.8488 -21.4087 -14.9921 
40.2324 -21.4087 -14.2636 -60.371 -13.0251 -13.4046 -51.9874 -13.0251 -17.3909 
-43.6038 -13.0251 -18.6372 -35.2202 -13.0251 -18.1551 -26.8365 -13.0251 -16.889 
-18.4529 -13.0251 -15.726 -10.0693 -13.0251 -14.5963 -1.68568 -13.0251 -18.3647 
6.69795 -13.0251 -15.5684 15.0816 -13.0251 -15.1821 23.4652 -13.0251 -16.053 
31.8488 -13.0251 -16.6835 40.2324 -13.0251 -16.9595 48.6161 -13.0251 -15.817 
56.9997 -13.0251 -13.7649 -60.371 -4.6415 -14.103 -51.9874 -4.6415 -17.1775 
-43.6038 -4.6415 -19.4768 -35.2202 -4.6415 -18.4338 -26.8365 -4.6415 -17.0027 
-18.4529 -4.6415 -14.9436 -10.0693 -4.6415 -16.3637 -1.68568 -4.6415 -16.9773 
6.69795 -4.6415 -18.2439 15.0816 -4.6415 -18.0224 23.4652 -4.6415 -16.723 
31.8488 -4.6415 -17.9274 40.2324 -4.6415 -18.0096 48.6161 -4.6415 -17.8828 
56.9997 -4.6415 -17.3532 65.3833 -4.6415 -14.5157 -60.371 3.74213 -13.8584 
-51.9874 3.74213 -17.0544 -43.6038 3.74213 -19.1416 -35.2202 3.74213 -18.202 
-26.8365 3.74213 -16.7331 -18.4529 3.74213 -14.5063 -10.0693 3.74213 -19.9604 
-1.68568 3.74213 -16.7129 6.69795 3.74213 -19.2834 15.0816 3.74213 -17.4296 
23.4652 3.74213 -16.3518 31.8488 3.74213 -17.678 40.2324 3.74213 -18.5972 
48.6161 3.74213 -18.5076 56.9997 3.74213 -18.1068 65.3833 3.74213 -15.0343 
-51.9874 12.1257 -16.9495 -43.6038 12.1257 -18.2494 -35.2202 12.1257 -17.8147 
-26.8365 12.1257 -16.4709 -18.4529 12.1257 -14.9581 -10.0693 12.1257 -15.4637 
-1.68568 12.1257 -16.0035 6.69795 12.1257 -17.2042 15.0816 12.1257 -16.5144 
23.4652 12.1257 -17.122 31.8488 12.1257 -18.4073 40.2324 12.1257 -18.5892 
48.6161 12.1257 -18.2507 56.9997 12.1257 -17.8061 65.3833 12.1257 -14.2288 
-51.9874 20.5094 -15.6363 -43.6038 20.5094 -17.0331 -35.2202 20.5094 -17.608 
-26.8365 20.5094 -17.7085 -18.4529 20.5094 -17.2213 -10.0693 20.5094 -16.79 
-1.68568 20.5094 -16.2327 6.69795 20.5094 -16.8211 15.0816 20.5094 -17.8787 
23.4652 20.5094 -17.9185 31.8488 20.5094 -17.9684 40.2324 20.5094 -18.7197 
48.6161 20.5094 -17.2668 56.9997 20.5094 -14.9711 -43.6038 28.893 -16.069 
-35.2202 28.893 -17.3833 -26.8365 28.893 -17.8053 -18.4529 28.893 -18.2493 
-10.0693 28.893 -17.834 -1.68568 28.893 -17.2502 6.69795 28.893 -17.2181 
15.0816 28.893 -18.1111 23.4652 28.893 -17.5388 31.8488 28.893 -17.7076 
40.2324 28.893 -16.0657 48.6161 28.893 -13.1484 -35.2202 37.2766 -15.7543 
-26.8365 37.2766 -16.8114 -18.4529 37.2766 -17.6321 -10.0693 37.2766 -17.184 
-1.68568 37.2766 -16.5581 6.69795 37.2766 -16.6559 15.0816 37.2766 -17.021 
23.4652 37.2766 -15.2872 31.8488 37.2766 -13.0502 -18.4529 45.6602 -14.1601 
-10.0693 45.6602 -13.8768 -43.6038 -33.413 -13.0488 -43.6038 -38.176 -9.80341 
-35.2202 -34.728 -13.0488 -35.2202 -38.176 -10.8992 -26.8365 -34.6908 -13.0488 
-26.8365 -38.176 -11.3498 -18.4529 -33.9743 -13.0488 -18.4529 -38.176 -11.0374 
-10.0693 -32.8349 -13.0488 -10.0693 -38.176 -10.7402 -1.68568 -33.0369 -13.0488 
-1.68568 -38.176 -10.4608 6.69795 -31.5671 -13.0488 6.69795 -38.176 -9.33294 
15.0816 -38.176 -7.3013 23.4652 -38.176 -5.4251 -47.9501 -29.7924 -13.0488 
-51.9874 -26.8361 -13.0488 -51.9874 -29.7924 -11.1511 12.7282 -29.7924 -13.0488 
15.0816 -28.6542 -13.0488 15.0816 -29.7924 -12.7562 23.4652 -26.6984 -13.0488 
23.4652 -29.7924 -12.0668 31.8488 -26.4433 -13.0488 31.8488 -29.7924 -11.6645 
40.2324 -24.1146 -13.0488 40.2324 -29.7924 -10.1097 48.6161 -29.7924 -8.81946 
-59.5213 -21.4087 -13.0488 -60.371 -17.2227 -13.0488 -60.371 -21.4087 -12.5449 
47.4212 -21.4087 -13.0488 48.6161 -20.8503 -13.0488 48.6161 -21.4087 -12.8469 
56.9997 -15.607 -13.0488 56.9997 -21.4087 -10.671 -60.8604 -13.0251 -13.0488 
58.8714 -13.0251 -13.0488 65.3833 -8.16258 -13.0488 65.3833 -13.0251 -10.2955 
-61.8626 -4.6415 -13.0488 -68.7547 -4.6415 -4.80024 67.4135 -4.6415 -13.0488 
73.7669 -4.6415 -5.2231 -61.5139 3.74213 -13.0488 -60.371 9.10608 -13.0488 
68.1882 3.74213 -13.0488 73.7669 3.74213 -5.08613 -59.6978 12.1257 -13.0488 
-60.371 12.1257 -12.5534 67.0146 12.1257 -13.0488 65.3833 15.3879 -13.0488 
-56.7928 20.5094 -13.0488 -60.371 20.5094 -9.79801 -51.9874 26.0681 -13.0488 
60.6948 20.5094 -13.0488 56.9997 24.0361 -13.0488 65.3833 20.5094 -9.09562 
-49.9687 28.893 -13.0488 -51.9874 28.893 -11.622 -43.6038 35.8578 -13.0488 
40.2324 33.2214 -13.0488 48.8803 28.893 -13.0488 48.6161 29.0029 -13.0488 
56.9997 28.893 -5.71948 -42.0484 37.2766 -13.0488 -43.6038 37.2766 -11.9602 
-35.2202 43.0042 -13.0488 -26.8365 44.7603 -13.0488 -1.68568 45.4387 -13.0488 
6.69795 43.9328 -13.0488 15.0816 42.3634 -13.0488 23.4652 39.9343 -13.0488 
31.8521 37.2766 -13.0488 31.8488 37.2781 -13.0488 -35.2202 45.6602 -7.87004 
-24.4092 45.6602 -13.0488 -26.8365 45.6602 -12.0065 -18.4529 46.9767 -13.0488 
-2.63989 45.6602 -13.0488 -10.0693 46.5045 -13.0488 -1.68568 45.6602 -12.6315 
6.69795 45.6602 -7.9536 -43.6038 -41.7878 -4.66518 -35.2202 -43.1247 -4.66518 
-26.8365 -44.3074 -4.66518 -18.4529 -44.6903 -4.66518 -18.4529 -46.5596 1.90513 
-10.0693 -44.038 -4.66518 -1.68568 -43.3049 -4.66518 6.69795 -42.0203 -4.66518 
15.0816 -40.2618 -4.66518 23.4652 -38.7796 -4.66518 -50.0908 -38.176 -4.66518 
-51.9874 -36.8268 -4.66518 27.6291 -38.176 -4.66518 31.8488 -37.5023 -4.66518 
31.8488 -38.176 -3.17039 40.2324 -35.7211 -4.66518 40.2324 -38.176 1.97547 
48.6161 -33.3834 -4.66518 -60.22 -29.7924 -4.66518 -60.371 -29.6332 -4.66518 
55.8813 -29.7924 -4.66518 56.9997 -28.841 -4.66518 56.9997 -29.7924 -2.82325 
-65.3052 -21.4087 -4.66518 65.1559 -21.4087 -4.66518 65.3833 -21.2263 -4.66518 
65.3833 -21.4087 -4.31213 -68.2853 -13.0251 -4.66518 -68.7547 -5.84661 -4.66518 
70.5187 -13.0251 -4.66518 73.7669 -5.5724 -4.66518 -68.8208 -4.6415 -4.66518 
-68.7547 -3.82543 -4.66518 -68.7547 -4.6415 -4.06811 74.1384 -4.6415 -4.66518 
73.7669 -4.6415 0.237261 -68.0603 3.74213 -4.66518 74.0088 3.74213 -4.66518 
73.7669 5.10084 -4.66518 73.7669 3.74213 0.878245 -66.4589 12.1257 -4.66518 
72.3842 12.1257 -4.66518 -62.9891 20.5094 -4.66518 -60.371 25.6296 -4.66518 
67.8027 20.5094 -4.66518 65.3833 23.0874 -4.66518 65.3833 20.5094 3.3279 
-58.4244 28.893 -4.66518 -51.9874 36.6211 -4.66518 40.2324 36.4335 -4.66518 
48.6161 33.1592 -4.66518 57.4881 28.893 -4.66518 56.9997 29.2151 -4.66518 
56.9997 28.893 -3.7697 -51.2524 37.2766 -4.66518 -43.6038 42.6563 -4.66518 
15.0816 44.9174 -4.66518 23.4652 42.6949 -4.66518 37.9821 37.2766 -4.66518 
31.8488 40.0341 -4.66518 31.8488 37.2766 0.693094 -37.3318 45.6602 -4.66518 
-35.2202 46.538 -4.66518 -35.2202 45.6602 -1.82359 -26.8365 48.5551 -4.66518 
-18.4529 49.5877 -4.66518 -10.0693 48.7378 -4.66518 -10.0693 45.6602 3.2485 
-1.68568 47.6498 -4.66518 -1.68568 45.6602 -0.263151 10.6691 45.6602 -4.66518 
6.69795 46.395 -4.66518 6.69795 45.6602 -3.08892 -18.4529 -46.9663 3.71844 
-43.6038 -42.4735 3.71844 -35.2202 -44.8432 3.71844 -22.7172 -46.5596 3.71844 
-26.8365 -46.1667 3.71844 -11.7476 -46.5596 3.71844 -18.4529 -46.5596 5.01015 
-10.0693 -46.4582 3.71844 -1.68568 -45.5407 3.71844 6.69795 -44.072 3.71844 
15.0816 -42.5604 3.71844 23.4652 -41.4219 3.71844 31.8488 -40.4468 3.71844 
40.2324 -38.6742 3.71844 -50.9021 -38.176 3.71844 -51.9874 -37.4593 3.71844 
-43.6038 -38.176 11.1315 23.4652 -38.176 11.6898 31.8488 -38.176 9.73449 
42.0167 -38.176 3.71844 40.2324 -38.176 5.73108 48.6161 -36.1915 3.71844 
56.9997 -31.751 3.71844 -59.92 -29.7924 3.71844 -60.371 -29.1256 3.71844 
59.4743 -29.7924 3.71844 56.9997 -29.7924 9.11113 65.3833 -24.5008 3.71844 
-64.6509 -21.4087 3.71844 -60.371 -21.4087 9.77865 68.0691 -21.4087 3.71844 
65.3833 -21.4087 8.43922 -67.3001 -13.0251 3.71844 71.6924 -13.0251 3.71844 
-67.7091 -4.6415 3.71844 73.4547 -4.6415 3.71844 -66.5956 3.74213 3.71844 
73.5915 3.74213 3.71844 -65.0426 12.1257 3.71844 -60.371 12.1257 9.98707 
70.1033 12.1257 3.71844 65.3833 20.2909 3.71844 65.3833 12.1257 8.27753 
-61.2042 20.5094 3.71844 -60.371 21.9708 3.71844 -60.371 20.5094 4.8132 
-51.9874 20.5094 11.4869 48.6161 20.5094 10.5052 65.1744 20.5094 3.71844 
56.9997 25.7184 3.71844 56.9997 20.5094 8.54436 -55.7253 28.893 3.71844 
-51.9874 33.3116 3.71844 -51.9874 28.893 7.54423 -43.6038 28.893 11.5471 
23.4652 28.893 11.6092 31.8488 35.3918 3.71844 31.8488 28.893 9.26471 
40.2324 32.1539 3.71844 40.2324 28.893 7.40221 50.2677 28.893 3.71844 
48.6161 29.6193 3.71844 48.6161 28.893 4.60099 -47.4 37.2766 3.71844 
-43.6038 39.9466 3.71844 -43.6038 37.2766 6.50122 -35.2202 43.4593 3.71844 
-35.2202 37.2766 9.50153 -26.8365 37.2766 11.3934 -18.4529 37.2766 12.0403 
-10.0693 45.4156 3.71844 -10.0693 37.2766 11.2802 -1.68568 43.5038 3.71844 
-1.68568 37.2766 9.61508 6.69795 41.9336 3.71844 6.69795 37.2766 8.21588 
15.0816 40.3145 3.71844 15.0816 37.2766 6.89532 27.1821 37.2766 3.71844 
23.4652 38.4879 3.71844 23.4652 37.2766 5.12794 -26.8903 45.6602 3.71844 
-26.8365 45.6717 3.71844 -26.8365 45.6602 3.73441 -11.3501 45.6602 3.71844 
-18.4529 46.7626 3.71844 -18.4529 45.6602 5.1405 -35.2202 -40.2386 12.1021 
-26.8365 -43.0101 12.1021 -18.4529 -43.4196 12.1021 -10.0693 -43.1366 12.1021 
-1.68568 -42.2138 12.1021 6.69795 -40.839 12.1021 15.0816 -39.4846 12.1021 
-51.9874 -31.1587 12.1021 -41.5001 -38.176 12.1021 -43.6038 -37.1154 12.1021 
-35.2202 -38.176 13.7466 -26.8365 -38.176 15.8838 -18.4529 -38.176 16.7663 
-10.0693 -38.176 16.3579 -1.68568 -38.176 15.7884 6.69795 -38.176 14.6947 
22.3866 -38.176 12.1021 15.0816 -38.176 13.5333 23.4652 -37.9004 12.1021 
31.8488 -36.5258 12.1021 40.2324 -35.8638 12.1021 48.6161 -31.9762 12.1021 
[...]
POINT_DATA 542
SCALARS ImageScalars float
LOOKUP_TABLE default
0 0 0 0 0 0 0 0 0 
0 0 0 0 0 0 0 0 0 
0 0 0 0 0 0 0 0 0 
0 0 0 0 0 0 0 0 0 
0 0 0 0 0 0 0 0 0 
0 0 0 0 0 0 0 0 0 
0 0 0 0 0 0 0 0 0 
0 0 0 0 0 0 0 0 0 
0 0 0 0 0 0 0 0 0 
0 0 0 0 0 0 0 0 0 
0 0 0 0 0 0 0 0 0 
0 0 0 0 0 0 0 0 0 
0 0 0 0 0 0 0 0 0 
0 0 0 0 0 0 0 0 0 
0 0 0 0 0 0 0 0 0 
0 0 0 0 0 0 0 0 0 
0 0 0 0 0 0 0 0 0 
0 0 0 0 0 0 0 0 0 
0 0 0 0 0 0 0 0 0 
0 0 0 0 0 0 0 0 0 
0 0 0 0 0 0 0 0 0 
0 0 0 0 0 0 0 0 0 
0 0 0 0 0 0 0 0 0 
0 0 0 0 0 0 0 0 0 
0 0 0 0 0 0 0 0 0 
0 0 0 0 0 0 0 0 0 
0 0 0 0 0 0 0 0 0 
0 0 0 0 0 0 0 0 0 
0 0 0 0 0 0 0 0 0 
0 0 0 0 0 0 0 0 0 
0 0 0 0 0 0 0 0 0 
0 0 0 0 0 0 0 0 0 
0 0 0 0 0 0 0 0 0 
0 0 0 0 0 0 0 0 0 
0 0 0 0 0 0 0 0 0 
0 0 0 0 0 0 0 0 0 
0 0 0 0 0 0 0 0 0 
0 0 0 0 0 0 0 0 0 
0 0 0 0 0 0 0 0 0 
0 0 0 0 0 0 0 0 0 
0 0 0 0 0 0 0 0 0 
0 0 0 0 0 0 0 0 0 
0 0 0 0 0 0 0 0 0 
0 0 0 0 0 0 0 0 0 
0 0 0 0 0 0 0 0 0 
0 0 0 0 0 0 0 0 0 
0 0 0 0 0 0 0 0 0 
0 0 0 0 0 0 0 0 0 
0 0 0 0 0 0 0 0 0 
0 0 0 0 0 0 0 0 0 
0 0 0 0 0 0 0 0 0 
0 0 0 0 0 0 0 0 0 
0 0 0 0 0 0 0 0 0 
0 0 0 0 0 0 0 0 0 
0 0 0 0 0 0 0 0 0 
0 0 0 0 0 0 0 0 0 
0 0 0 0 0 0 0 0 0 
0 0 0 0 0 0 0 0 0 
0 0 0 0 0 0 0 0 0 
0 0 0 0 0 0 0 0 0 
0 0 
NORMALS Normals float
0.188168 0.345403 0.919396 0.0319812 0.339511 0.940058 -0.0310722 0.285452 0.957889 
-0.0597956 0.266962 0.96185 -0.0213826 0.223225 0.974532 -0.0172597 0.264417 0.964254 
-0.0912602 0.273659 0.957487 0.258125 0.314407 0.91352 0.0802049 0.228886 0.970144 
-0.0207272 0.164353 0.986184 -0.10055 0.0954887 0.990339 -0.101493 0.0647079 0.99273 
-0.0214937 0.0324014 0.999244 -0.000387311 0.215609 0.97648 -0.0586805 0.0969 0.993563 
-0.0252422 0.137198 0.990222 0.0149656 0.219679 0.975457 -0.0189669 0.287098 0.957713 
-0.112426 0.353449 0.928673 0.571328 0.0760394 0.817192 0.256356 0.0439758 0.965581 
0.0537847 0.141749 0.98844 -0.102072 0.0457967 0.993722 -0.146993 0.0173992 0.988985 
-0.126163 -0.0665242 0.989776 0.150508 0.0225001 0.988353 0.0394274 0.107988 0.99337 
-0.182955 0.1832 0.965901 0.0320879 0.173589 0.984295 0.0872005 0.121292 0.988779 
0.0522474 0.167283 0.984524 -0.0507354 0.219348 0.974327 -0.171068 0.269187 0.947773 
-0.275045 0.310908 0.909773 0.485849 0.0232875 0.873733 0.278673 -0.0206473 0.960164 
0.0723866 0.0300047 0.996925 -0.143181 0.00274819 0.989693 -0.20401 -0.00909561 0.978927 
-0.0902693 -0.0765521 0.992971 0.159263 0.216088 0.963297 0.111114 -0.1134 0.987317 
0.0555528 0.223796 0.973051 -0.0954783 0.153802 0.983478 0.00815033 0.0194859 0.999777 
0.0745104 0.0591848 0.995462 -0.00256835 0.0941088 0.995559 -0.0357176 0.157471 0.986878 
-0.220079 0.233006 0.947245 -0.485675 0.215174 0.847243 0.503696 -0.0817324 0.860006 
0.273425 -0.0137682 0.961795 0.0662984 -0.0726597 0.995151 -0.13964 -0.0365364 0.989528 
-0.211831 -0.0310119 0.976814 -0.0312049 -0.00187571 0.999511 0.277834 -0.201173 0.939328 
0.0741919 -0.065286 0.995105 0.0306949 -0.0643974 0.997452 -0.169509 -0.0967379 0.980769 
0.0361106 0.0259952 0.99901 0.128908 0.0293485 0.991222 0.0494039 0.034499 0.998183 
-0.0262583 0.0220223 0.999413 -0.234032 0.0255591 0.971893 -0.482961 -0.0139332 0.875531 
0.28119 -0.0651487 0.957438 0.0608438 -0.124368 0.990369 -0.103938 -0.0352279 0.99396 
-0.162752 0.0590944 0.984896 -0.0665333 0.167315 0.983656 0.0615665 -0.00646594 0.998082 
0.10174 -0.0163784 0.994676 0.0211927 -0.126036 0.991799 0.000861384 0.041153 0.999152 
0.109329 0.0883363 0.990073 0.0870377 0.0172473 0.996056 -0.00886114 0.00669155 0.999938 
-0.0424883 -0.0836975 0.995585 -0.250129 -0.150322 0.956472 -0.514886 -0.233961 0.824715 
0.328781 -0.27806 0.902544 0.101312 -0.134511 0.985719 0.0389569 -0.0248622 0.998932 
-0.0228744 0.078694 0.996636 -0.0545989 0.18133 0.981905 -0.0584941 0.12919 0.989893 
0.00198361 0.0733282 0.997306 0.0950514 0.00408626 0.995464 0.0668933 0.092335 0.993478 
0.00521739 0.0254187 0.999663 0.0445471 -0.0396858 0.998219 -0.0584952 -0.166538 0.984298 
-0.178197 -0.212066 0.960871 -0.420411 -0.399834 0.814486 0.267417 -0.229713 0.935799 
0.114118 -0.122702 0.985861 0.0500687 -0.0476837 0.997607 0.00163089 0.0225732 0.999744 
-0.0594027 0.0243226 0.997938 -0.0366827 0.0205001 0.999117 0.0547956 -0.0119943 0.998426 
0.0194418 -0.0381895 0.999081 -0.0282716 -0.136361 0.990256 -0.0969921 -0.269438 0.958121 
-0.206278 -0.440422 0.873772 -0.353359 -0.672194 0.650609 0.221381 -0.308994 0.924939 
0.124694 -0.238347 0.963142 0.0178955 -0.219268 0.975501 -0.0668389 -0.218524 0.97354 
-0.0321649 -0.24223 0.969685 0.0243406 -0.284795 0.958279 -0.0697937 -0.420252 0.904719 
-0.242202 -0.533248 0.810546 -0.319819 -0.704076 0.634029 0.0591222 -0.659733 0.749171 
-0.0739559 -0.704541 0.705799 0.215017 0.459671 0.861667 0.271582 0.709896 0.64984 
0.033007 0.508832 0.860233 0.0683885 0.67992 0.73009 -0.0182924 0.421264 0.906753 
0.00259385 0.562569 0.826746 -0.0403876 0.384399 0.922283 -0.0301518 0.544549 0.838187 
-0.0221448 0.324618 0.945586 -0.0280199 0.561806 0.826794 -0.031899 0.371938 0.927709 
-0.0649078 0.612703 0.787643 -0.0988204 0.337235 0.93622 -0.145177 0.678064 0.720523 
-0.173733 0.764746 0.620468 -0.144515 0.817746 0.557142 0.288519 0.41959 0.86064 
0.328859 0.448881 0.830877 0.416607 0.53905 0.732027 -0.0903421 0.319598 0.943237 
-0.0825071 0.30869 0.947577 -0.092353 0.341053 0.935497 -0.034202 0.33987 0.93985 
-0.0612943 0.431255 0.900146 -0.0639634 0.377537 0.923783 -0.0982276 0.465807 0.879418 
-0.117083 0.407371 0.905726 -0.142902 0.57156 0.808021 -0.285503 0.648577 0.705575 
0.540255 0.287694 0.790795 0.577009 0.17741 0.797237 0.588957 0.287523 0.755288 
-0.152285 0.352971 0.923158 -0.159665 0.347407 0.924021 -0.16252 0.355196 0.920556 
-0.305353 0.353992 0.883996 -0.394975 0.504987 0.767452 0.594782 0.0791423 0.799982 
-0.338909 0.33901 0.877618 -0.511746 0.333615 0.791717 -0.591256 0.44755 0.670906 
0.570405 0.0250188 0.820982 0.979068 -0.0130416 0.203113 -0.560523 0.246696 0.790541 
-0.921001 0.201653 0.333307 0.576764 -0.0880044 0.812157 0.577621 -0.112621 0.808499 
-0.610311 -0.0145297 0.792029 -0.952527 -0.093798 0.289646 0.582379 -0.127753 0.802816 
0.623281 -0.138848 0.769573 -0.585391 -0.246791 0.772277 -0.5423 -0.344789 0.76618 
0.520357 -0.31124 0.795209 0.770059 -0.370331 0.519484 0.460399 -0.346968 0.817096 
-0.496916 -0.43812 0.749083 -0.460396 -0.504553 0.730385 -0.671816 -0.594849 0.441381 
0.46571 -0.329554 0.821284 0.568295 -0.405373 0.71604 0.39709 -0.475194 0.785182 
-0.300263 -0.685224 0.663559 -0.358536 -0.674386 0.645489 -0.354905 -0.677547 0.644184 
-0.52033 -0.852382 0.0519891 0.38474 -0.484384 0.785715 0.44881 -0.565588 0.691867 
0.277467 -0.633552 0.722235 0.170649 -0.696161 0.697308 -0.117229 -0.756673 0.643198 
-0.110095 -0.742654 0.660564 -0.183701 -0.747996 0.637774 -0.265623 -0.724001 0.636606 
-0.319852 -0.704161 0.633918 -0.319844 -0.704149 0.633936 0.320576 -0.921678 0.218497 
0.145327 -0.728249 0.669726 0.181571 -0.802136 0.568868 0.0663048 -0.732699 0.677316 
-0.114839 -0.762821 0.63633 -0.0844621 -0.758715 0.645924 -0.123389 -0.789854 0.600754 
-0.155586 -0.975527 0.15537 0.320542 0.88458 0.338778 0.14192 0.895086 0.422704 
0.0790607 0.90883 0.409607 -0.0113809 0.87044 0.492142 0.0139874 0.998298 0.0566215 
-0.0709143 0.865036 0.496673 -0.107528 0.874207 0.473497 -0.166459 0.873512 0.457459 
-0.175721 0.858423 0.481904 -0.146854 0.840336 0.521795 0.506461 0.805845 0.306776 
0.551952 0.77284 0.313158 -0.150258 0.842825 0.516788 -0.149351 0.839727 0.522066 
-0.155253 0.899943 0.407431 -0.211357 0.813993 0.541058 -0.24863 0.962182 0.111307 
-0.323579 0.792133 0.517515 0.712065 0.652319 0.2597 0.717525 0.647651 0.256332 
-0.511088 0.685338 0.51875 -0.535489 0.664906 0.520721 -0.56409 0.721215 0.402058 
0.888354 0.397858 0.229208 -0.602023 0.631443 0.488722 -0.607243 0.628531 0.486008 
-0.61673 0.635435 0.464615 0.954526 0.199592 0.221458 0.979639 0.0169273 0.200054 
-0.820278 0.406328 0.402544 -0.923371 0.222956 0.312534 0.980339 -0.0135406 0.196854 
0.980806 -0.0263977 0.193193 0.987043 -0.0153882 0.159718 -0.933894 0.197793 0.297858 
-0.984888 0.152515 -0.0820683 0.975874 -0.142808 0.165156 -0.958947 -0.0973427 0.266354 
-0.958608 -0.138513 0.248768 -0.970076 -0.156178 -0.185905 0.942343 -0.276256 0.188869 
-0.927407 -0.349084 0.134376 0.889476 -0.439137 0.126455 0.848899 -0.517156 0.109179 
-0.782226 -0.615716 0.0949534 -0.700635 -0.709486 0.0757582 -0.623596 -0.620224 -0.475868 
0.811165 -0.571002 0.126362 0.679654 -0.729692 0.0749713 -0.366333 -0.928737 -0.056981 
-0.408161 -0.91256 -0.0252737 -0.518321 -0.854883 -0.0227524 -0.511253 -0.859171 -0.0211156 
-0.516139 -0.852855 -0.0789869 0.668281 -0.740536 0.0707617 0.530339 -0.844465 0.0749662 
-0.217952 -0.968342 -0.121698 -0.277666 -0.955071 -0.103635 -0.363932 -0.929213 -0.0641592 
-0.359315 -0.930859 -0.0662959 -0.347252 -0.834798 -0.427233 0.364023 -0.931364 -0.00693206 
0.314675 -0.949068 -0.0157983 0.311502 -0.933682 -0.176647 0.171913 -0.985083 -0.00761596 
0.0109052 -0.999305 -0.0356544 -0.109224 -0.991989 -0.0634615 -0.156652 -0.846225 -0.509277 
-0.141099 -0.987175 -0.0746797 -0.167903 -0.917104 -0.361564 -0.183671 -0.975711 -0.119384 
-0.156481 -0.982061 -0.105218 -0.160163 -0.96619 -0.202051 0.017246 0.998916 -0.0432256 
0.401562 0.895047 -0.194008 0.206829 0.972 -0.111529 0.0708139 0.996804 -0.0369826 
0.123478 0.991778 -0.0336208 -0.0642173 0.997344 -0.0343766 0.0146491 0.992809 -0.118812 
-0.084507 0.995909 -0.0320119 -0.14107 0.989108 -0.042012 -0.175004 0.983366 -0.0486235 
-0.157518 0.986854 -0.0361577 -0.130011 0.991162 -0.0263798 -0.153873 0.987864 -0.02117 
-0.246699 0.968929 0.0177896 0.550183 0.809074 -0.206635 0.572738 0.793014 -0.207606 
0.371421 0.659689 -0.653343 -0.134527 0.773086 -0.619872 -0.115791 0.867389 -0.483972 
-0.27471 0.961394 0.0159809 -0.243126 0.964519 -0.102922 -0.381647 0.924108 -0.0192569 
-0.568691 0.822336 -0.018821 0.763158 0.583416 -0.277877 0.773939 0.56475 -0.286489 
-0.613697 0.788961 -0.0302661 -0.560335 0.70926 -0.427756 -0.751656 0.654717 -0.0797402 
0.870372 0.365349 -0.330112 0.670067 0.355817 -0.651464 -0.825385 0.552063 -0.118179 
-0.726607 0.510973 -0.459292 0.921298 0.170838 -0.34932 -0.933976 0.297408 -0.198084 
0.931209 -0.0368918 -0.362614 -0.933315 0.103238 -0.343897 0.912648 -0.145263 -0.382063 
-0.894667 -0.17388 -0.411505 0.871485 -0.28539 -0.39883 0.645165 -0.295006 -0.704794 
-0.795772 -0.410609 -0.445138 -0.615196 -0.608447 -0.501325 -0.52863 -0.420753 -0.737236 
0.783843 -0.45625 -0.42122 0.766112 -0.473586 -0.434499 0.750678 -0.46396 -0.470345 
0.486375 -0.332287 -0.8081 -0.224442 -0.468473 -0.854493 -0.608521 -0.614533 -0.502047 
-0.441559 -0.683308 -0.581478 -0.340042 -0.551673 -0.761596 0.694881 -0.540065 -0.474838 
0.623589 -0.618136 -0.478585 0.564974 -0.495311 -0.659902 0.329644 -0.432908 -0.839003 
-0.196923 -0.486863 -0.850991 -0.299099 -0.711929 -0.635371 -0.194167 -0.552431 -0.810629 
-0.267272 -0.754363 -0.599585 -0.204417 -0.664534 -0.718755 -0.342784 -0.753488 -0.56103 
-0.305078 -0.773058 -0.556155 -0.312605 -0.742617 -0.592282 0.523447 -0.694211 -0.494038 
0.452618 -0.728656 -0.514001 0.415119 -0.650093 -0.636439 0.275258 -0.795545 -0.53976 
0.232855 -0.586788 -0.775538 0.123573 -0.521852 -0.844038 -0.00365242 -0.476737 -0.879039 
-0.156837 -0.827947 -0.538429 -0.116801 -0.529677 -0.840119 -0.166586 -0.767334 -0.619232 
-0.146422 -0.581086 -0.800562 -0.150656 -0.750208 -0.643809 -0.124368 -0.623555 -0.771823 
-0.169587 -0.753104 -0.635669 -0.138186 -0.686959 -0.713437 -0.259783 -0.751592 -0.606319 
-0.214171 -0.77284 -0.597369 -0.214867 -0.741162 -0.636012 0.158427 -0.850376 -0.501758 
0.157693 -0.850589 -0.501629 0.157681 -0.850162 -0.502356 -0.135552 -0.833759 -0.535231 
-0.0109647 -0.849063 -0.528177 -0.0129016 -0.810523 -0.585565 0.253766 0.647067 -0.718963 
0.144922 0.767029 -0.625031 0.00513921 0.775849 -0.630898 -0.0590985 0.779684 -0.623377 
-0.116131 0.775506 -0.620568 -0.14457 0.771187 -0.619976 -0.152021 0.776554 -0.611435 
0.487857 0.446855 -0.749878 0.329368 0.615014 -0.716432 0.344602 0.59235 -0.728265 
0.238205 0.554579 -0.797308 0.165138 0.496086 -0.852425 0.0280914 0.509002 -0.860307 
-0.0510156 0.536463 -0.84238 -0.0890824 0.583557 -0.807171 -0.118696 0.642311 -0.757197 
-0.136835 0.751215 -0.645718 -0.150055 0.697706 -0.700493 -0.132611 0.742128 -0.657009 
-0.0832225 0.702691 -0.706611 -0.184821 0.775581 -0.603586 -0.344042 0.704798 -0.620399 
0.502728 0.425997 -0.752191 0.454006 0.406211 -0.793014 0.256624 0.311944 -0.914787 
0.197614 0.280303 -0.93935 0.101182 0.200671 -0.97442 0.0481412 0.157392 -0.986362 
0.0101619 0.232995 -0.972425 -0.048813 0.273104 -0.960745 -0.109941 0.294346 -0.949354 
-0.104126 0.257769 -0.960579 -0.0364618 0.305629 -0.951452 -0.0483427 0.424762 -0.904013 
-0.109038 0.452278 -0.885186 -0.438393 0.628039 -0.642946 -0.314233 0.608814 -0.728425 
-0.509145 0.517642 -0.687618 0.536105 0.299847 -0.789103 0.607831 0.243493 -0.755812 
0.393314 0.209542 -0.895208 0.183243 0.214255 -0.959436 0.11009 0.120771 -0.986557 
0.0733342 0.053259 -0.995884 0.0696709 0.0225639 -0.997315 -0.148266 0.190381 -0.97045 
-0.130375 0.0362557 -0.990802 0.00335854 0.0870975 -0.996194 0.0724142 0.0974295 -0.992604 
-0.0724432 0.183048 -0.980431 -0.211615 0.159403 -0.964266 -0.574211 0.368573 -0.731051 
-0.484366 0.318857 -0.81469 -0.590723 0.255965 -0.765198 0.643678 0.163729 -0.747577 
0.587724 0.161377 -0.792804 0.336339 0.0830216 -0.938074 0.196113 0.0871011 -0.976705 
0.0307052 0.0685953 -0.997172 -0.0030045 0.0224226 -0.999744 0.0913784 -0.0268151 -0.995455 
-0.210635 0.0162209 -0.97743 0.0355284 -0.0358478 -0.998726 0.0453432 -0.0236325 -0.998692 
-0.0298491 -0.031208 -0.999067 -0.136131 0.0289749 -0.990267 -0.354695 0.0544184 -0.933397 
-0.602247 0.194865 -0.774162 -0.562014 0.184149 -0.806368 0.659776 -0.0520547 -0.749657 
0.596294 -0.0523274 -0.801059 0.333951 -0.00697797 -0.942564 0.177327 -0.0268736 -0.983785 
0.0449592 -0.00268074 -0.998985 -0.0212263 -0.0111779 -0.999712 0.108606 -0.0330888 -0.993534 
-0.0248184 -0.255266 -0.966552 -0.249011 0.00260478 -0.968497 -0.0251564 -0.105653 -0.994085 
0.0761899 -0.084912 -0.993471 -0.0122721 -0.108113 -0.994063 -0.154848 -0.0956599 -0.983296 
-0.293789 -0.0699414 -0.953308 -0.577841 -0.0242226 -0.81579 -0.505951 -0.0235985 -0.862239 
0.63097 -0.160548 -0.759013 0.62108 -0.17771 -0.763334 0.622106 -0.160051 -0.766399 
0.363653 -0.120647 -0.923689 0.198166 -0.102117 -0.974834 0.0488341 -0.0842111 -0.995251 
-0.034573 -0.101073 -0.994278 0.0582841 -0.13656 -0.988916 -0.114777 -0.166023 -0.979419 
-0.0231975 -0.291259 -0.956363 -0.131715 -0.0849382 -0.987642 -0.0429558 -0.080327 -0.995843 
0.0509822 -0.162297 -0.985424 -0.037666 -0.187875 -0.98147 -0.115791 -0.185077 -0.975879 
-0.255952 -0.218089 -0.941767 -0.544523 -0.255873 -0.798764 -0.524436 -0.281613 -0.80353 
-0.531533 -0.258668 -0.806575 0.507079 -0.289271 -0.811907 0.458889 -0.315989 -0.830405 
0.376902 -0.255641 -0.890276 0.202482 -0.213619 -0.955703 0.0453307 -0.168906 -0.984589 
-0.0710025 -0.15803 -0.984878 -0.0775411 -0.144987 -0.98639 -0.0163024 -0.24827 -0.968554 
-0.0279868 -0.197564 -0.97989 0.0396601 -0.177519 -0.983318 -0.017635 -0.095303 -0.995292 
-0.116253 -0.0658554 -0.991034 -0.0401412 -0.214116 -0.975983 -0.0441876 -0.273085 -0.960975 
-0.207417 -0.411165 -0.88765 -0.179842 -0.332709 -0.925722 -0.324015 -0.3477 -0.87984 
-0.323734 -0.347936 -0.87985 -0.323667 -0.347352 -0.880106 0.450147 -0.323101 -0.83245 
0.317825 -0.410201 -0.854823 0.266094 -0.294975 -0.917706 0.101102 -0.25089 -0.962721 
-0.0108609 -0.164634 -0.986295 -0.0411614 -0.118415 -0.992111 -0.0734176 -0.098276 -0.992447 
-0.035716 -0.1589 -0.986648 0.0656881 -0.169532 -0.983333 -0.00281585 -0.232814 -0.972517 
-0.194191 -0.457225 -0.867891 -0.167131 -0.245932 -0.954769 -0.152678 -0.401653 -0.902975 
-0.147421 -0.325962 -0.933818 -0.176204 -0.393847 -0.902129 -0.159244 -0.405467 -0.900132 
-0.154908 -0.367822 -0.916903 0.299473 -0.416914 -0.858195 0.204501 -0.464709 -0.861525 
0.184236 -0.362788 -0.913478 0.109397 -0.475019 -0.873149 0.0563915 -0.281874 -0.957793 
-0.0034938 -0.472043 -0.881569 -0.00865295 -0.252076 -0.967669 -0.106368 -0.471799 -0.875267 
-0.0670224 -0.263469 -0.962337 -0.121604 -0.422189 -0.898314 -0.100398 -0.296722 -0.949672 
-0.061086 -0.433196 -0.899227 -0.0391915 -0.373114 -0.926958 -0.166848 -0.482199 -0.860026 
-0.0973146 -0.517393 -0.850196 -0.0874548 -0.475068 -0.875592 0.0552272 0.105463 -0.992889 
-0.0273333 0.208756 -0.977586 0.0614395 0.0802694 -0.994878 0.0600102 0.0913692 -0.994007 
-0.115343 0.188537 -0.975269 -0.0159221 0.179511 -0.983627 -0.1602 0.179734 -0.970583 
0.134495 0.0226702 -0.990655 0.170521 0.0653879 -0.983182 -0.00603598 -0.211538 -0.977351 
0.0513061 -0.0427628 -0.997767 -0.249241 0.060439 -0.966554 -0.248467 0.0707817 -0.966051 
0.076435 -0.0334078 -0.996515 -0.00522181 -0.187321 -0.982285 0.0403399 -0.0348931 -0.998577 
-0.0311028 -0.236555 -0.97112 -0.141628 -0.122607 -0.982298 -0.0433249 -0.244234 -0.968748 
-0.0511483 -0.205516 -0.977316 -0.00859286 -0.283769 -0.958854 -0.0233595 -0.289727 -0.956824 
-0.0153041 -0.297767 -0.954516 -0.0152435 -0.296767 -0.954828 
