# vtk DataFile Version 4.2
vtk output
ASCII
DATASET POLYDATA
POINTS 528 float
-18.1579 -33.9126 -16.5381 -9.93602 -33.9126 -18.5837 -1.71409 -33.9126 -18.0164 
6.50784 -33.9126 -18.9547 14.7298 -33.9126 -19.443 22.9517 -33.9126 -19.3747 
31.1736 -33.9126 -18.1548 39.3955 -33.9126 -15.9452 -42.8237 -25.6907 -15.1141 
-34.6018 -25.6907 -16.7248 -26.3799 -25.6907 -17.4884 -18.1579 -25.6907 -18.565 
-9.93602 -25.6907 -19.6446 -1.71409 -25.6907 -19.4968 6.50784 -25.6907 -19.1358 
14.7298 -25.6907 -20.2274 22.9517 -25.6907 -19.8233 31.1736 -25.6907 -19.4989 
39.3955 -25.6907 -19.2475 47.6175 -25.6907 -16.9573 -51.0457 -17.4688 -15.6275 
-42.8237 -17.4688 -18.0308 -34.6018 -17.4688 -18.605 -26.3799 -17.4688 -18.5821 
-18.1579 -17.4688 -18.2658 -9.93602 -17.4688 -19.0404 -1.71409 -17.4688 -19.0982 
6.50784 -17.4688 -18.544 14.7298 -17.4688 -18.9069 22.9517 -17.4688 -19.5518 
31.1736 -17.4688 -19.9183 39.3955 -17.4688 -19.853 47.6175 -17.4688 -19.301 
55.8394 -17.4688 -16.614 -51.0457 -9.24685 -16.4288 -42.8237 -9.24685 -19.0601 
-34.6018 -9.24685 -19.7332 -26.3799 -9.24685 -18.8071 -18.1579 -9.24685 -17.4444 
-9.93602 -9.24685 -19.0259 -1.71409 -9.24685 -19.5632 6.50784 -9.24685 -19.604 
14.7298 -9.24685 -17.4319 22.9517 -9.24685 -18.4725 31.1736 -9.24685 -20.0396 
39.3955 -9.24685 -20.9911 47.6175 -9.24685 -21.4028 55.8394 -9.24685 -18.9824 
-51.0457 -1.02493 -17.0296 -42.8237 -1.02493 -18.7584 -34.6018 -1.02493 -19.2319 
-26.3799 -1.02493 -18.4007 -18.1579 -1.02493 -18.4101 -9.93602 -1.02493 -21.8387 
-1.71409 -1.02493 -15.4647 6.50784 -1.02493 -21.5056 14.7298 -1.02493 -18.9025 
22.9517 -1.02493 -18.3456 31.1736 -1.02493 -20.1618 39.3955 -1.02493 -21.5209 
47.6175 -1.02493 -20.8709 55.8394 -1.02493 -19.3956 64.0613 -1.02493 -15.2461 
-51.0457 7.197 -16.4709 -42.8237 7.197 -18.9318 -34.6018 7.197 -19.5213 
-26.3799 7.197 -18.8907 -18.1579 7.197 -18.1265 -9.93602 7.197 -20.8518 
-1.71409 7.197 -18.3998 6.50784 7.197 -20.9316 14.7298 7.197 -17.5069 
22.9517 7.197 -18.2883 31.1736 7.197 -20.0317 39.3955 7.197 -21.1665 
47.6175 7.197 -20.9572 55.8394 7.197 -19.1678 64.0613 7.197 -15.4529 
-51.0457 15.4189 -16.4954 -42.8237 15.4189 -18.7163 -34.6018 15.4189 -19.623 
-26.3799 15.4189 -19.0442 -18.1579 15.4189 -18.5582 -9.93602 15.4189 -18.5106 
-1.71409 15.4189 -19.404 6.50784 15.4189 -19.0682 14.7298 15.4189 -18.2754 
22.9517 15.4189 -19.0785 31.1736 15.4189 -19.9244 39.3955 15.4189 -20.4425 
47.6175 15.4189 -20.7436 55.8394 15.4189 -17.8034 -42.8237 23.6409 -16.8691 
-34.6018 23.6409 -18.7341 -26.3799 23.6409 -19.2391 -18.1579 23.6409 -18.7334 
-9.93602 23.6409 -18.5562 -1.71409 23.6409 -18.7628 6.50784 23.6409 -19.0004 
14.7298 23.6409 -19.6847 22.9517 23.6409 -19.6917 31.1736 23.6409 -20.0944 
39.3955 23.6409 -21.1245 47.6175 23.6409 -17.7069 -34.6018 31.8628 -14.9424 
-26.3799 31.8628 -16.2966 -18.1579 31.8628 -16.8745 -9.93602 31.8628 -17.7689 
-1.71409 31.8628 -17.8375 6.50784 31.8628 -18.4093 14.7298 31.8628 -19.7884 
22.9517 31.8628 -19.3119 31.1736 31.8628 -18.6492 39.3955 31.8628 -16.8082 
14.7298 40.0847 -15.4109 22.9517 40.0847 -15.2798 -18.1579 -35.9249 -14.4928 
-9.93602 -37.9819 -14.4928 -1.71409 -38.4394 -14.4928 6.50784 -38.9862 -14.4928 
14.7298 -40.2846 -14.4928 22.9517 -40.9229 -14.4928 22.9517 -42.1346 -9.69274 
31.1736 -38.8743 -14.4928 39.3955 -35.6776 -14.4928 -42.8237 -26.4992 -14.4928 
-34.6018 -28.7299 -14.4928 -34.6018 -33.9126 -7.75532 -23.0909 -33.9126 -14.4928 
-26.3799 -31.5446 -14.4928 -26.3799 -33.9126 -11.4619 41.9462 -33.9126 -14.4928 
47.6175 -29.3402 -14.4928 47.6175 -33.9126 -7.7339 -44.3649 -25.6907 -14.4928 
-51.0457 -19.9737 -14.4928 -51.0457 -25.6907 -10.4336 52.0715 -25.6907 -14.4928 
55.8394 -21.4045 -14.4928 55.8394 -25.6907 -10.3839 -53.7293 -17.4688 -14.4928 
-59.2676 -17.4688 -10.3845 59.9644 -17.4688 -14.4928 64.0613 -17.4688 -9.95647 
-55.2691 -9.24685 -14.4928 -59.2676 -9.24685 -12.2614 63.6255 -9.24685 -14.4928 
64.0613 -6.59832 -14.4928 64.0613 -9.24685 -14.0275 -56.922 -1.02493 -14.4928 
-59.2676 -1.02493 -13.3194 64.8869 -1.02493 -14.4928 -55.3854 7.197 -14.4928 
-59.2676 7.197 -12.3585 65.1002 7.197 -14.4928 64.0613 9.49754 -14.4928 
-54.7771 15.4189 -14.4928 -59.2676 15.4189 -10.8469 -51.0457 22.4021 -14.4928 
61.1101 15.4189 -14.4928 55.8394 23.0487 -14.4928 64.0613 15.4189 -11.1148 
-59.2676 23.6409 -6.78425 -49.8529 23.6409 -14.4928 -51.0457 23.6409 -13.9545 
-42.8237 28.3855 -14.4928 55.177 23.6409 -14.4928 47.6175 30.2314 -14.4928 
55.8394 23.6409 -14.0156 -36.1677 31.8628 -14.4928 -42.8237 31.8628 -11.245 
-34.6018 32.3532 -14.4928 -26.3799 34.2126 -14.4928 -18.1579 35.3448 -14.4928 
-9.93602 36.5858 -14.4928 -1.71409 38.0676 -14.4928 6.50784 39.7921 -14.4928 
31.1736 39.4715 -14.4928 45.4396 31.8628 -14.4928 39.3955 35.068 -14.4928 
47.6175 31.8628 -12.8466 -9.93602 40.0847 -6.83665 -1.71409 40.0847 -10.9834 
8.14826 40.0847 -14.4928 6.50784 40.0847 -14.0336 14.7298 40.8337 -14.4928 
28.1361 40.0847 -14.4928 22.9517 40.7945 -14.4928 31.1736 40.0847 -13.0416 
22.9517 -42.753 -6.27087 -34.6018 -34.5852 -6.27087 -26.3799 -35.9845 -6.27087 
-18.1579 -37.9448 -6.27087 -9.93602 -39.4986 -6.27087 -1.71409 -39.8167 -6.27087 
6.50784 -40.2107 -6.27087 17.8451 -42.1346 -6.27087 14.7298 -41.7204 -6.27087 
27.5106 -42.1346 -6.27087 22.9517 -42.1346 -4.84155 31.1736 -41.6354 -6.27087 
39.3955 -39.0102 -6.27087 47.6175 -34.7166 -6.27087 -51.0457 -29.1708 -6.27087 
-37.2779 -33.9126 -6.27087 -42.8237 -32.4799 -6.27087 48.8065 -33.9126 -6.27087 
47.6175 -33.9126 -1.03496 55.8394 -28.5314 -6.27087 -57.1855 -25.6907 -6.27087 
-59.2676 -23.4091 -6.27087 -59.2676 -25.6907 1.57893 58.8087 -25.6907 -6.27087 
64.0613 -19.8943 -6.27087 -62.2921 -17.4688 -6.27087 65.7479 -17.4688 -6.27087 
-65.1588 -9.24685 -6.27087 68.9967 -9.24685 -6.27087 -66.3867 -1.02493 -6.27087 
-67.4895 -1.02493 -2.00226 70.1181 -1.02493 -6.27087 -65.2541 7.197 -6.27087 
70.0525 7.197 -6.27087 -63.3896 15.4189 -6.27087 66.8545 15.4189 -6.27087 
64.0613 20.2639 -6.27087 -59.5973 23.6409 -6.27087 -59.2676 24.0475 -6.27087 
-51.0457 30.7568 -6.27087 61.5319 23.6409 -6.27087 55.8394 29.4797 -6.27087 
-48.9806 31.8628 -6.27087 -42.8237 34.473 -6.27087 -34.6018 36.6393 -6.27087 
-26.3799 37.7955 -6.27087 -18.1579 38.7832 -6.27087 39.3955 39.1473 -6.27087 
52.7981 31.8628 -6.27087 47.6175 35.2306 -6.27087 -10.8099 40.0847 -6.27087 
-9.93602 40.2401 -6.27087 -9.93602 40.0847 -5.91551 -1.71409 41.584 -6.27087 
-1.71409 40.0847 -2.94641 6.50784 42.6532 -6.27087 6.50784 40.0847 -1.1823 
14.7298 43.2885 -6.27087 14.7298 40.0847 -0.624069 22.9517 43.2693 -6.27087 
22.9517 40.0847 -0.9663 36.6936 40.0847 -6.27087 31.1736 41.7153 -6.27087 
31.1736 40.0847 -2.9547 -34.6018 -35.5937 1.95106 -26.3799 -35.3305 1.95106 
-18.1579 -35.8111 1.95106 -9.93602 -36.5105 1.95106 -1.71409 -36.1421 1.95106 
6.50784 -36.311 1.95106 14.7298 -38.0872 1.95106 22.9517 -38.9753 1.95106 
31.1736 -39.3766 1.95106 39.3955 -36.7797 1.95106 -59.2676 -25.7404 1.95106 
-51.0457 -31.2592 1.95106 -40.7199 -33.9126 1.95106 -42.8237 -33.3346 1.95106 
-26.3799 -33.9126 8.85474 -18.1579 -33.9126 7.56706 -9.93602 -33.9126 7.04329 
-1.71409 -33.9126 5.73786 6.50784 -33.9126 5.60334 14.7298 -33.9126 7.79698 
22.9517 -33.9126 9.78273 31.1736 -33.9126 10.1233 46.5476 -33.9126 1.95106 
39.3955 -33.9126 7.97439 47.6175 -33.4426 1.95106 55.8394 -27.8225 1.95106 
-59.32 -25.6907 1.95106 -59.2676 -25.6907 2.288 58.1034 -25.6907 1.95106 
55.8394 -25.6907 5.07942 64.0613 -18.3458 1.95106 -64.8865 -17.4688 1.95106 
64.6347 -17.4688 1.95106 64.0613 -17.4688 2.85075 -67.3315 -9.24685 1.95106 
-67.4895 -7.92003 1.95106 67.9666 -9.24685 1.95106 64.0613 -9.24685 7.74058 
-68.3107 -1.02493 1.95106 -67.4895 5.93823 1.95106 -67.4895 -1.02493 5.47173 
68.8073 -1.02493 1.95106 64.0613 -1.02493 8.93639 -67.3406 7.197 1.95106 
68.5727 7.197 1.95106 64.0613 7.197 8.64525 -65.549 15.4189 1.95106 
65.3341 15.4189 1.95106 64.0613 17.5983 1.95106 64.0613 15.4189 3.84316 
-60.7861 23.6409 1.95106 -59.2676 25.298 1.95106 -59.2676 23.6409 7.26364 
-51.0457 31.2611 1.95106 59.4716 23.6409 1.95106 55.8394 27.2604 1.95106 
55.8394 23.6409 6.15253 -49.0612 31.8628 1.95106 -42.8237 33.4772 1.95106 
-42.8237 31.8628 7.39133 -34.6018 35.7011 1.95106 -26.3799 35.0454 1.95106 
-26.3799 31.8628 9.24438 -18.1579 35.5679 1.95106 -18.1579 31.8628 7.58524 
-9.93602 35.9825 1.95106 -9.93602 31.8628 7.72789 -1.71409 37.3243 1.95106 
-1.71409 31.8628 8.66786 6.50784 38.0238 1.95106 6.50784 31.8628 8.77077 
14.7298 38.133 1.95106 14.7298 31.8628 8.44539 22.9517 37.8511 1.95106 
22.9517 31.8628 8.38652 31.1736 37.1121 1.95106 31.1736 31.8628 8.73255 
39.3955 35.981 1.95106 39.3955 31.8628 7.40137 48.2025 31.8628 1.95106 
47.6175 32.1493 1.95106 47.6175 31.8628 2.3797 -34.6018 -34.0245 10.173 
-51.0457 -29.5258 10.173 -35.1032 -33.9126 10.173 -42.8237 -32.3477 10.173 
-32.2562 -33.9126 10.173 -34.6018 -33.9126 10.4001 -26.3799 -33.6216 10.173 
-18.1579 -32.935 10.173 -9.93602 -32.153 10.173 -1.71409 -31.1096 10.173 
6.50784 -30.8414 10.173 14.7298 -32.2201 10.173 22.9517 -33.5937 10.173 
31.1736 -33.8685 10.173 39.3955 -32.3904 10.173 47.6175 -27.9201 10.173 
-57.3161 -25.6907 10.173 -59.2676 -23.6056 10.173 -51.0457 -25.6907 15.8991 
-9.93602 -25.6907 16.7847 -1.71409 -25.6907 15.3326 6.50784 -25.6907 15.1693 
14.7298 -25.6907 16.0787 22.9517 -25.6907 16.7477 31.1736 -25.6907 16.3891 
39.3955 -25.6907 15.029 50.6559 -25.6907 10.173 47.6175 -25.6907 12.1247 
55.8394 -20.8763 10.173 -62.7292 -17.4688 10.173 -59.2676 -17.4688 14.8236 
39.3955 -17.4688 18.3632 47.6175 -17.4688 15.7713 58.3934 -17.4688 10.173 
55.8394 -17.4688 12.2141 -65.0571 -9.24685 10.173 -59.2676 -9.24685 18.0028 
47.6175 -9.24685 17.3084 61.6063 -9.24685 10.173 55.8394 -9.24685 14.1807 
-66.2203 -1.02493 10.173 47.6175 -1.02493 17.8926 62.6869 -1.02493 10.173 
55.8394 -1.02493 14.8214 -65.2959 7.197 10.173 -59.2676 7.197 18.2976 
47.6175 7.197 17.8089 62.4557 7.197 10.173 55.8394 7.197 14.712 
[...]
POINT_DATA 528
SCALARS ImageScalars float
LOOKUP_TABLE default
0 0 0 0 0 0 0 0 0 
0 0 0 0 0 0 0 0 0 
0 0 0 0 0 0 0 0 0 
0 0 0 0 0 0 0 0 0 
0 0 0 0 0 0 0 0 0 
0 0 0 0 0 0 0 0 0 
0 0 0 0 0 0 0 0 0 
0 0 0 0 0 0 0 0 0 
0 0 0 0 0 0 0 0 0 
0 0 0 0 0 0 0 0 0 
0 0 0 0 0 0 0 0 0 
0 0 0 0 0 0 0 0 0 
0 0 0 0 0 0 0 0 0 
0 0 0 0 0 0 0 0 0 
0 0 0 0 0 0 0 0 0 
0 0 0 0 0 0 0 0 0 
0 0 0 0 0 0 0 0 0 
0 0 0 0 0 0 0 0 0 
0 0 0 0 0 0 0 0 0 
0 0 0 0 0 0 0 0 0 
0 0 0 0 0 0 0 0 0 
0 0 0 0 0 0 0 0 0 
0 0 0 0 0 0 0 0 0 
0 0 0 0 0 0 0 0 0 
0 0 0 0 0 0 0 0 0 
0 0 0 0 0 0 0 0 0 
0 0 0 0 0 0 0 0 0 
0 0 0 0 0 0 0 0 0 
0 0 0 0 0 0 0 0 0 
0 0 0 0 0 0 0 0 0 
0 0 0 0 0 0 0 0 0 
0 0 0 0 0 0 0 0 0 
0 0 0 0 0 0 0 0 0 
0 0 0 0 0 0 0 0 0 
0 0 0 0 0 0 0 0 0 
0 0 0 0 0 0 0 0 0 
0 0 0 0 0 0 0 0 0 
0 0 0 0 0 0 0 0 0 
0 0 0 0 0 0 0 0 0 
0 0 0 0 0 0 0 0 0 
0 0 0 0 0 0 0 0 0 
0 0 0 0 0 0 0 0 0 
0 0 0 0 0 0 0 0 0 
0 0 0 0 0 0 0 0 0 
0 0 0 0 0 0 0 0 0 
0 0 0 0 0 0 0 0 0 
0 0 0 0 0 0 0 0 0 
0 0 0 0 0 0 0 0 0 
0 0 0 0 0 0 0 0 0 
0 0 0 0 0 0 0 0 0 
0 0 0 0 0 0 0 0 0 
0 0 0 0 0 0 0 0 0 
0 0 0 0 0 0 0 0 0 
0 0 0 0 0 0 0 0 0 
0 0 0 0 0 0 0 0 0 
0 0 0 0 0 0 0 0 0 
0 0 0 0 0 0 0 0 0 
0 0 0 0 0 0 0 0 0 
0 0 0 0 0 0 
NORMALS Normals float
0.298955 0.603963 0.73882 0.0834438 0.494289 0.865283 0.0224323 0.460578 0.887336 
0.0948154 0.397211 0.912816 0.0243682 0.364579 0.930854 -0.0685323 0.319528 0.945095 
-0.228699 0.41072 0.882613 -0.360276 0.551272 0.752529 0.254833 0.504211 0.825125 
0.144734 0.430045 0.89113 0.107116 0.277368 0.954774 0.129605 0.086191 0.987813 
0.0559689 0.0142313 0.998331 -0.0309387 0.0624023 0.997571 0.0438312 -0.0271531 0.99867 
0.0424655 -0.0404114 0.99828 -0.0435489 0.0110932 0.99899 -0.0332731 0.0911638 0.99528 
-0.161329 0.238621 0.957618 -0.353998 0.403351 0.843797 0.342357 0.253432 0.904745 
0.177564 0.237718 0.954967 0.0315962 0.161751 0.986326 -0.0205079 0.0756399 0.996924 
0.0255456 -0.068167 0.997347 0.0519719 -0.0383886 0.99791 -0.0303522 0.00406551 0.999531 
-0.0116892 0.0201743 0.999728 0.0616178 -0.170237 0.983475 0.061908 -0.0824144 0.994673 
0.0183885 0.0321998 0.999312 -0.0342045 0.10103 0.994295 -0.191065 0.275276 0.942188 
-0.381168 0.379141 0.843186 0.369075 0.0795384 0.92599 0.179889 0.0378371 0.982959 
-0.0110696 0.0391057 0.999174 -0.139617 -0.00907601 0.990164 -0.00102732 0.00375646 0.999992 
0.138576 0.164369 0.976616 0.0307732 -0.139681 0.989718 -0.144133 0.163063 0.976031 
-0.0544382 -0.0291379 0.998092 0.156716 -0.0725992 0.984972 0.151354 0.0146788 0.988371 
0.080508 0.0998463 0.99174 -0.126295 0.079583 0.988795 -0.346016 0.152683 0.925722 
0.288159 0.00243259 0.957579 0.12199 -0.00872161 0.992493 -0.0184293 -0.0137401 0.999736 
-0.0477573 0.00530419 0.998845 0.206433 0.0457123 0.977392 -0.0700531 0.0992552 0.992593 
-0.114005 -0.117733 0.98648 0.180753 0.0918145 0.979234 -0.182846 0.0217033 0.982902 
0.0888532 -0.0113799 0.99598 0.188995 -0.000464787 0.981978 0.042845 0.0105432 0.999026 
-0.122892 -0.0238772 0.992133 -0.279976 0.0136541 0.95991 -0.640955 0.0654504 0.764783 
0.355281 -0.0297713 0.934286 0.166509 -0.00163988 0.986039 0.000676752 0.0227397 0.999741 
-0.0838792 0.0372177 0.995781 0.105214 0.0110033 0.994389 0.0324322 -0.208245 0.977539 
0.0146038 0.199786 0.979731 -0.0421718 -0.148633 0.987993 -0.16742 -0.0167719 0.985743 
0.146082 0.0402275 0.988454 0.171343 -0.0142369 0.985109 0.0546986 -0.0646778 0.996406 
-0.109155 -0.00605749 0.994006 -0.29246 -0.0969452 0.951351 -0.630965 -0.164954 0.758072 
0.371859 -0.108846 0.921886 0.199658 -0.120056 0.972483 0.0165579 -0.0561464 0.998285 
-0.063753 0.0204883 0.997755 -0.0324019 0.0363878 0.998812 0.0498363 -0.123315 0.991115 
0.0344043 0.0161822 0.999277 -0.0655839 -0.112753 0.991456 -0.00385824 0.119911 0.992777 
0.100474 0.0878943 0.99105 0.0776718 0.00354625 0.996973 0.0484513 -0.0089228 0.998786 
-0.169833 -0.193801 0.966229 -0.40723 -0.225103 0.885151 0.259635 -0.321889 0.910482 
0.124741 -0.230147 0.965128 0.00449172 -0.162006 0.98678 -0.0403084 -0.0874006 0.995357 
0.00188549 -0.037943 0.999278 0.0270515 -0.0956311 0.995049 0.0515397 -0.0418207 0.997795 
0.0443141 0.0896264 0.994989 0.0241302 0.0126694 0.999629 0.0794427 -0.0812419 0.993523 
-0.121226 -0.177733 0.976584 -0.330033 -0.326193 0.88582 0.203371 -0.660115 0.72311 
0.106849 -0.546569 0.83057 0.0926545 -0.445589 0.89043 0.057978 -0.336569 0.939872 
0.0417384 -0.303875 0.951797 0.111014 -0.253559 0.960929 0.0646634 -0.179617 0.981609 
-0.074454 -0.229418 0.970476 -0.138728 -0.326555 0.934942 -0.267794 -0.524825 0.807988 
0.0614764 -0.765457 0.640544 -0.076777 -0.744732 0.662932 0.310476 0.75012 0.583888 
0.154169 0.828797 0.537892 0.053418 0.815544 0.576224 0.0958263 0.833046 0.544841 
0.101464 0.870483 0.481627 -0.0518249 0.845871 0.530864 -0.023467 0.992142 0.122899 
-0.279909 0.7145 0.641203 -0.391813 0.64757 0.653556 0.259999 0.541596 0.799421 
0.196047 0.581919 0.789263 0.213183 0.914205 0.344648 0.319514 0.710655 0.626802 
0.278143 0.630698 0.72447 0.286863 0.849034 0.443679 -0.41761 0.622021 0.662338 
-0.433076 0.570444 0.697882 -0.530963 0.814091 0.235232 0.283372 0.522955 0.803877 
0.367973 0.357941 0.858181 0.453965 0.650633 0.608763 -0.483362 0.4958 0.721487 
-0.478117 0.476112 0.738053 -0.637644 0.630955 0.441934 0.431675 0.264883 0.862261 
0.701423 0.314911 0.639404 -0.534757 0.408594 0.739653 -0.79265 0.46814 0.390578 
0.473199 0.0798353 0.877331 0.608071 0.122733 0.784338 -0.684057 0.1628 0.711029 
-0.683966 0.131757 0.717517 -0.715517 0.169747 0.677658 0.457747 0.00343988 0.889076 
0.553145 0.0044537 0.833073 -0.662296 0.0666249 0.746274 0.465921 -0.059056 0.882853 
0.603091 -0.116957 0.789051 -0.660323 -0.168669 0.731795 -0.659856 -0.206871 0.722354 
0.491977 -0.152042 0.857229 0.693968 -0.229811 0.682345 0.438237 -0.371741 0.818387 
-0.604507 -0.294838 0.740029 -0.481879 -0.513953 0.709679 -0.800424 -0.370585 0.471157 
0.75509 -0.534606 0.379521 0.423529 -0.403871 0.810871 0.458351 -0.433216 0.77604 
0.306663 -0.51236 0.80215 -0.473241 -0.52084 0.710471 -0.442766 -0.596908 0.669074 
-0.503981 -0.549843 0.666089 0.22211 -0.666603 0.711553 0.33296 -0.786775 0.519733 
0.206636 -0.684558 0.699058 0.140731 -0.680058 0.719525 0.11322 -0.681595 0.722918 
0.116562 -0.705788 0.698768 0.121999 -0.674753 0.727891 0.116502 -0.72502 0.678803 
-0.239427 -0.765086 0.597761 -0.426784 -0.63485 0.644066 -0.365993 -0.690306 0.62412 
-0.481747 -0.722189 0.496349 0.172503 -0.983929 -0.0461239 0.149453 -0.926183 0.346193 
0.105818 -0.749534 0.653453 0.118938 -0.766552 0.631072 0.0530579 -0.811324 0.582184 
-0.183094 -0.784487 0.5925 -0.0727755 -0.788237 0.611054 -0.253091 -0.851561 0.459118 
-0.0070183 0.991829 -0.127385 0.200691 0.940462 0.274326 0.206407 0.968895 0.136526 
0.208682 0.97775 -0.021371 0.112428 0.98965 -0.0891829 0.0414276 0.991128 -0.126288 
0.111021 0.982979 -0.14638 0.0906433 0.987439 -0.129417 0.148672 0.981032 -0.124389 
-0.12302 0.989348 -0.0778221 0.00226687 0.981001 -0.193991 -0.20979 0.977377 -0.0268699 
-0.391672 0.919192 0.0409794 -0.529884 0.832719 0.160632 0.468358 0.778841 0.41719 
0.214619 0.935947 0.27918 0.263949 0.915069 0.304925 -0.544634 0.823288 0.159907 
-0.490668 0.861586 -0.130059 -0.651905 0.735221 0.185662 0.624129 0.676979 0.39008 
0.703731 0.588024 0.398736 0.690416 0.723339 0.0102877 -0.687376 0.698877 0.197698 
-0.811539 0.564697 0.150074 0.808592 0.379178 0.449893 -0.863304 0.482509 0.147957 
0.858586 0.198487 0.472687 -0.944645 0.270432 0.185777 0.897304 0.0042683 0.441393 
0.981691 0.00213885 0.190469 -0.987361 0.0609105 0.146315 0.87162 -0.147175 0.467565 
-0.969728 -0.20308 0.135598 0.837595 -0.313161 0.447622 -0.897877 -0.4132 0.151928 
-0.822848 -0.556969 0.11272 0.764925 -0.539354 0.352119 0.754687 -0.55589 0.348475 
0.534082 -0.804795 0.258961 -0.749677 -0.654789 0.0961024 -0.664107 -0.739809 0.107911 
0.477297 -0.85054 0.220839 0.317882 -0.935634 0.153426 0.191549 -0.970997 0.143086 
0.137056 -0.990554 -0.00435794 0.144766 -0.988811 -0.0360067 -0.369774 -0.929057 0.0109937 
-0.589886 -0.8039 0.0760196 -0.479521 -0.877117 0.0269402 0.170651 -0.982161 -0.0789803 
0.173656 -0.981371 -0.0821844 0.170959 -0.980062 -0.101245 0.148077 -0.986606 -0.0684239 
0.139404 -0.95335 -0.267751 0.10591 -0.990289 -0.0900634 0.0720853 -0.907196 -0.414487 
0.0386644 -0.991754 -0.122183 0.00521813 -0.869878 -0.49324 -0.0987504 -0.986292 -0.132201 
-0.0753521 -0.873087 -0.481706 -0.326693 -0.944273 -0.0402634 -0.238338 -0.963691 -0.120394 
-0.184118 -0.93337 -0.308093 0.117968 0.992563 -0.0300508 0.012755 0.990259 -0.138655 
0.0658581 0.955827 -0.286458 0.0224249 0.910985 -0.41183 -0.0113715 0.876802 -0.480717 
0.0975061 0.859931 -0.50101 0.139294 0.855888 -0.498049 0.0655686 0.877736 -0.474637 
-0.119573 0.908358 -0.400734 -0.311574 0.889174 -0.335101 0.688617 0.725102 -0.00584491 
0.434349 0.900698 0.0091079 0.206374 0.97826 -0.0204041 0.238152 0.971147 -0.0125389 
-0.0465742 0.951048 -0.305514 -0.0302671 0.930378 -0.36535 -0.0503109 0.870679 -0.489272 
-0.0400435 0.848042 -0.528414 0.0734351 0.837392 -0.541647 0.142604 0.812086 -0.565845 
0.0811232 0.772139 -0.630254 -0.0444173 0.749861 -0.660103 -0.429407 0.850671 -0.303264 
-0.273602 0.802278 -0.530557 -0.450044 0.840658 -0.301256 -0.634596 0.725532 -0.266252 
0.690679 0.723137 -0.00587491 0.690317 0.723233 -0.0199095 -0.669252 0.692718 -0.268781 
-0.615881 0.660336 -0.429707 -0.812115 0.481622 -0.329408 0.899139 0.437521 0.0111148 
-0.826521 0.453186 -0.333895 -0.812412 0.449878 -0.370941 0.982626 0.185145 -0.0129304 
0.987807 0.155106 -0.0134123 -0.91526 0.245846 -0.319155 -0.762323 0.242594 -0.60001 
0.999934 0.000723662 -0.0114364 0.991552 -0.128689 -0.0162601 0.983985 0.000509324 -0.178251 
-0.950085 0.0329829 -0.310244 -0.686603 0.0346861 -0.726205 0.988144 -0.152738 -0.0155762 
-0.925888 -0.197467 -0.322084 -0.724142 -0.209127 -0.657179 0.928052 -0.372171 -0.0144393 
-0.83143 -0.418043 -0.366011 -0.799999 -0.478021 -0.362626 -0.797765 -0.411625 -0.440609 
0.771589 -0.633518 -0.0574973 0.715672 -0.695098 -0.0682115 0.71236 -0.641658 -0.284286 
0.451915 -0.883138 -0.125853 -0.681282 -0.638771 -0.357528 -0.586486 -0.714429 -0.381609 
-0.552684 -0.625245 -0.551007 0.397379 -0.905992 -0.145838 0.241538 -0.950198 -0.196936 
0.210223 -0.943193 -0.257282 0.0913198 -0.965325 -0.244558 -0.0126141 -0.929374 -0.368923 
-0.0987366 -0.900549 -0.423395 0.0525598 -0.87338 -0.484194 -0.0378904 -0.872631 -0.486909 
0.0868 -0.839041 -0.5371 0.0418071 -0.818156 -0.573475 0.101857 -0.81678 -0.567887 
0.0379783 -0.756635 -0.652733 0.0397009 -0.79166 -0.60967 -0.0103646 -0.704455 -0.709673 
-0.00817532 -0.762729 -0.646666 -0.0162591 -0.680016 -0.733017 -0.0492504 -0.762623 -0.644966 
0.0103983 -0.707322 -0.706815 -0.0869717 -0.818282 -0.5682 -0.0299322 -0.736121 -0.676188 
-0.260468 -0.8448 -0.467407 -0.228847 -0.739661 -0.632875 -0.382124 -0.819164 -0.427728 
-0.373251 -0.822157 -0.429815 -0.371551 -0.816275 -0.442317 0.0843937 0.940135 -0.330186 
0.459861 0.814538 -0.353632 0.0929565 0.941147 -0.324964 0.225332 0.938383 -0.262036 
0.0435281 0.94181 -0.333316 0.0831252 0.937149 -0.338884 -0.0583147 0.938083 -0.341466 
-0.0773269 0.902661 -0.423348 -0.0930759 0.820455 -0.564084 -0.0646307 0.779601 -0.622933 
0.0558652 0.76871 -0.637153 0.127741 0.771833 -0.622861 0.0782095 0.76073 -0.64434 
-0.0442053 0.748086 -0.662128 -0.254877 0.725866 -0.638871 -0.410587 0.623348 -0.665474 
0.635029 0.686752 -0.353708 0.709662 0.596704 -0.374599 0.460667 0.638514 -0.616512 
-0.174932 0.560436 -0.809512 -0.0781229 0.562511 -0.82309 0.0423313 0.554514 -0.831097 
0.0829093 0.474599 -0.876289 0.0172961 0.444165 -0.895778 -0.0900728 0.439944 -0.893497 
-0.218788 0.476206 -0.851681 -0.459944 0.571264 -0.679786 -0.403238 0.541276 -0.737848 
-0.54938 0.442007 -0.709091 0.828876 0.372112 -0.417729 0.696508 0.352855 -0.624796 
-0.200008 0.199421 -0.959285 -0.339419 0.26147 -0.903564 -0.60973 0.355758 -0.708284 
-0.521539 0.346922 -0.779514 0.879126 0.183164 -0.439987 0.632349 0.185116 -0.752241 
-0.258994 0.122923 -0.958025 -0.644353 0.200601 -0.737949 -0.446609 0.152129 -0.881701 
0.908421 0.00749367 -0.417989 -0.252468 0.0290378 -0.96717 -0.61567 0.0321232 -0.787349 
-0.456094 0.0274529 -0.889508 0.896394 -0.149671 -0.417224 0.61896 -0.155767 -0.769821 
-0.251592 -0.113694 -0.961132 -0.646499 -0.184284 -0.740323 -0.436283 -0.132388 -0.890017 
0.83398 -0.368019 -0.411144 0.700508 -0.583782 -0.410472 0.679368 -0.354137 -0.642687 
-0.0422099 -0.330841 -0.942742 -0.317538 -0.293101 -0.90181 -0.60949 -0.351321 -0.710701 
-0.50687 -0.471548 -0.721613 -0.498811 -0.352578 -0.791755 0.654814 -0.637209 -0.406427 
0.44034 -0.792897 -0.421207 0.45383 -0.616737 -0.643174 0.194485 -0.93098 -0.308953 
-0.106208 -0.896165 -0.430822 -0.0727374 -0.875337 -0.47801 0.0106675 -0.809014 -0.587692 
-0.160832 -0.646475 -0.74579 0.0149479 -0.741111 -0.671216 -0.122589 -0.605324 -0.786482 
-0.0256577 -0.678203 -0.734427 -0.101761 -0.533659 -0.839555 -0.0146499 -0.644693 -0.764301 
-0.0171792 -0.491315 -0.870812 0.0261444 -0.676076 -0.736368 0.0399866 -0.50847 -0.860151 
-0.0231939 -0.702017 -0.711782 -0.0454688 -0.511105 -0.858315 -0.211776 -0.654373 -0.725911 
-0.187496 -0.529955 -0.827039 -0.389528 -0.584768 -0.711558 -0.349992 -0.6162 -0.705551 
-0.340589 -0.555525 -0.758546 0.0818608 -0.915388 -0.394162 -0.0433535 -0.897768 -0.43833 
0.0246524 -0.89621 -0.442944 0.0165487 -0.887902 -0.459735 0.212702 0.616799 -0.757837 
0.0444676 0.676755 -0.734864 -0.0851179 0.680508 -0.72778 -0.20255 0.588795 -0.782492 
0.31272 0.561599 -0.766037 0.427885 0.466599 -0.77408 0.208062 0.52355 -0.826199 
0.0550958 0.561495 -0.825644 -0.0983899 0.541694 -0.834798 -0.20185 0.554461 -0.80736 
-0.209152 0.557137 -0.80365 -0.192202 0.506371 -0.840623 -0.115304 0.479866 -0.869732 
-0.0194971 0.422384 -0.906207 0.0319853 0.279102 -0.959729 0.0268083 0.24011 -0.970375 
-0.0595634 0.254799 -0.965158 0.503998 0.325949 -0.79984 0.410304 0.296807 -0.862297 
0.179519 0.266933 -0.946847 0.0368047 0.23099 -0.97226 -0.0721765 0.187308 -0.979646 
-0.138604 0.278427 -0.950404 -0.187341 0.458176 -0.868895 -0.130093 0.474912 -0.870364 
-0.0286382 0.416827 -0.908535 0.0217089 0.251846 -0.967524 0.0321167 0.152183 -0.98783 
-0.195524 0.198401 -0.96042 -0.0487794 0.167599 -0.984648 -0.195788 0.191533 -0.96176 
0.609469 0.182948 -0.771413 0.622347 0.146422 -0.768924 0.352645 0.110104 -0.929257 
0.18667 0.0580087 -0.980709 -0.0127872 0.0270065 -0.999553 -0.0620701 0.0171151 -0.997925 
0.0538139 0.0492209 -0.997337 -0.012565 0.179323 -0.98371 -0.105507 0.150658 -0.98294 
-0.167427 0.373423 -0.912427 -0.222879 0.277706 -0.934454 -0.0812102 0.0392751 -0.995923 
-0.0371783 0.0275846 -0.998928 -0.162881 0.0792767 -0.983456 -0.120784 0.0614876 -0.990773 
0.639657 0.0107508 -0.768585 0.616715 -0.143917 -0.773919 0.590943 0.0113995 -0.806632 
0.276265 0.0198155 -0.960877 0.110167 0.000705269 -0.993913 -0.00974065 -4.30851e-05 -0.999953 
-0.0516847 0.0455254 -0.997625 0.0377734 0.00189208 -0.999285 -0.0690178 -0.0456063 -0.996572 
0.0180761 -0.0596325 -0.998057 0.105286 -0.00318194 -0.994437 -0.379152 0.0437806 -0.924298 
-0.178172 0.030329 -0.983532 -0.0246041 0.0244135 -0.999399 -0.203724 0.0271376 -0.978652 
-0.111366 0.0234715 -0.993502 0.613023 -0.155111 -0.774689 0.343056 -0.0964846 -0.934346 
0.166009 -0.00023165 -0.986124 0.0347921 0.0628087 -0.997419 -0.0616871 0.0664678 -0.99588 
-0.0364197 0.0375663 -0.99863 -0.0790619 -0.0909515 -0.992712 -0.0583596 -0.0368224 -0.997616 
-0.0660309 -0.308595 -0.948899 -0.0608236 -0.325601 -0.943549 -0.212931 -0.335284 -0.917739 
-0.0850272 -0.0516534 -0.995039 -0.044306 -0.0424326 -0.998116 -0.196861 -0.0908769 -0.976211 
-0.11596 -0.057904 -0.991565 0.536853 -0.312265 -0.78376 0.4409 -0.511523 -0.737531 
0.415483 -0.252753 -0.873779 0.259191 -0.215403 -0.9415 0.0549323 -0.185067 -0.981189 
-0.0716708 -0.151933 -0.985789 -0.121842 -0.201834 -0.971812 -0.162068 -0.642125 -0.749273 
-0.147282 -0.312211 -0.938527 -0.153827 -0.529048 -0.834533 -0.190815 -0.318074 -0.928665 
-0.0829287 -0.350232 -0.932985 -0.179706 -0.441413 -0.879125 -0.210985 -0.406443 -0.888982 
0.00762126 -0.303577 -0.952777 0.065436 -0.296691 -0.952729 0.0663642 -0.267407 -0.961296 
-0.0270963 -0.290522 -0.956485 -0.0266989 -0.22418 -0.974182 -0.184862 -0.25472 -0.94918 
-0.182642 -0.257033 -0.948987 -0.182511 -0.254174 -0.949782 0.365921 -0.576327 -0.730718 
0.218234 -0.650704 -0.727295 0.214909 -0.526889 -0.822315 0.0241346 -0.731828 -0.681062 
0.0817982 -0.604419 -0.792456 -0.0701485 -0.770582 -0.633469 -0.0757109 -0.597947 -0.797952 
-0.162889 -0.64594 -0.745807 -0.173723 -0.716572 -0.675533 -0.18697 -0.636719 -0.748085 

