# vtk DataFile Version 4.2
vtk output
ASCII
DATASET POLYDATA
POINTS 500 float
-13.0246 11.4723 -25.7313 -20.9344 -35.9864 -19.3629 -13.0246 -35.9864 -21.1086 
-5.11487 -35.9864 -21.5413 2.7949 -35.9864 -20.2464 10.7047 -35.9864 -18.1291 
-28.8442 -28.0766 -20.6457 -20.9344 -28.0766 -22.4549 -13.0246 -28.0766 -23.3537 
-5.11487 -28.0766 -24.1344 2.7949 -28.0766 -23.4425 10.7047 -28.0766 -22.4131 
18.6144 -28.0766 -21.072 26.5242 -28.0766 -18.6267 -36.754 -20.1668 -19.4954 
-28.8442 -20.1668 -22.0535 -20.9344 -20.1668 -22.6922 -13.0246 -20.1668 -23.2306 
-5.11487 -20.1668 -23.8197 2.7949 -20.1668 -23.7678 10.7047 -20.1668 -23.8701 
18.6144 -20.1668 -23.2015 26.5242 -20.1668 -22.154 34.434 -20.1668 -19.5744 
-36.754 -12.257 -21.1861 -28.8442 -12.257 -22.1935 -20.9344 -12.257 -22.1846 
-13.0246 -12.257 -22.3228 -5.11487 -12.257 -23.5525 2.7949 -12.257 -23.827 
10.7047 -12.257 -23.9772 18.6144 -12.257 -23.6629 26.5242 -12.257 -22.9891 
34.434 -12.257 -21.3617 42.3438 -12.257 -18.3764 -44.6637 -4.34727 -18.9455 
-36.754 -4.34727 -22.0548 -28.8442 -4.34727 -23.0868 -20.9344 -4.34727 -22.5085 
-13.0246 -4.34727 -23.1094 -5.11487 -4.34727 -24.8736 2.7949 -4.34727 -24.1188 
10.7047 -4.34727 -24.0945 18.6144 -4.34727 -23.6526 26.5242 -4.34727 -23.2214 
34.434 -4.34727 -22.3362 42.3438 -4.34727 -19.4963 -44.6637 3.56251 -19.7066 
-36.754 3.56251 -22.7336 -28.8442 3.56251 -23.9699 -20.9344 3.56251 -24.0313 
-13.0246 11.275 -25.7138 -13.0246 3.56251 -25.0122 -5.11487 3.56251 -24.577 
2.7949 3.56251 -22.846 10.7047 3.56251 -23.9663 18.6144 3.56251 -24.1462 
26.5242 3.56251 -23.6667 34.434 3.56251 -22.7107 42.3438 3.56251 -19.478 
-44.6637 11.4723 -18.8107 -36.754 11.4723 -22.4662 -28.8442 11.4723 -24.0137 
-13.1927 11.4723 -25.7138 -20.9344 11.4723 -24.9178 -12.7155 11.4723 -25.7138 
-13.0246 11.6208 -25.7138 -5.11487 11.4723 -25.2597 2.7949 11.4723 -23.7994 
10.7047 11.4723 -24.0111 18.6144 11.4723 -24.2687 26.5242 11.4723 -23.9302 
34.434 11.4723 -22.2566 42.3438 11.4723 -18.3539 -36.754 19.382 -19.9468 
-28.8442 19.382 -22.4897 -20.9344 19.382 -23.7429 -13.0246 19.382 -24.7499 
-5.11487 19.382 -24.9178 2.7949 19.382 -23.7857 10.7047 19.382 -23.0835 
18.6144 19.382 -23.0944 26.5242 19.382 -22.5536 34.434 19.382 -20.4545 
-20.9344 27.2918 -19.0235 -13.0246 27.2918 -20.576 -5.11487 27.2918 -21.6065 
2.7949 27.2918 -21.0689 10.7047 27.2918 -20.4042 18.6144 27.2918 -19.9951 
26.5242 27.2918 -19.1058 -20.9344 -37.5448 -17.804 -13.0246 -39.7858 -17.804 
-5.11487 -40.3283 -17.804 -5.11487 -43.8961 -10.1752 2.7949 -38.8537 -17.804 
10.7047 -36.3491 -17.804 -24.2895 -35.9864 -17.804 -28.8442 -32.7629 -17.804 
-28.8442 -35.9864 -14.2805 11.7482 -35.9864 -17.804 18.6144 -32.9615 -17.804 
18.6144 -35.9864 -14.3346 26.5242 -29.1646 -17.804 -34.2665 -28.0766 -17.804 
-36.754 -24.6454 -17.804 -36.754 -28.0766 -15.69 28.3482 -28.0766 -17.804 
34.434 -23.176 -17.804 34.434 -28.0766 -13.6149 -39.265 -20.1668 -17.804 
-44.6637 -20.1668 -10.3859 37.3611 -20.1668 -17.804 42.3438 -13.6656 -17.804 
42.3438 -20.1668 -13.7582 -43.2795 -12.257 -17.804 -44.6637 -8.94614 -17.804 
-44.6637 -12.257 -16.373 43.1775 -12.257 -17.804 -46.0604 -4.34727 -17.804 
44.8908 -4.34727 -17.804 50.2535 -4.34727 -12.3477 -47.0516 3.56251 -17.804 
44.7561 3.56251 -17.804 50.2535 3.56251 -11.9598 -45.9514 11.4723 -17.804 
-44.6637 13.9898 -17.804 43.0554 11.4723 -17.804 42.3438 13.0569 -17.804 
-40.481 19.382 -17.804 -44.6637 19.382 -14.3037 -36.754 22.1919 -17.804 
-28.8442 26.2619 -17.804 38.8563 19.382 -17.804 34.434 24.8398 -17.804 
42.3438 19.382 -14.4678 -36.754 27.2918 -11.2159 -25.7246 27.2918 -17.804 
-28.8442 27.2918 -16.6525 -20.9344 28.4734 -17.804 -13.0246 30.2773 -17.804 
-5.11487 32.3367 -17.804 2.7949 32.493 -17.804 10.7047 31.5955 -17.804 
18.6144 30.829 -17.804 30.5848 27.2918 -17.804 26.5242 29.2423 -17.804 
34.434 27.2918 -15.9362 -13.0246 35.2016 -10.2007 -5.11487 35.2016 -14.7749 
2.7949 35.2016 -15.6948 10.7047 35.2016 -15.094 18.6144 35.2016 -14.0242 
26.5242 35.2016 -10.7539 -5.11487 -43.9946 -9.89426 -28.8442 -38.3113 -9.89426 
-20.9344 -41.6979 -9.89426 -6.64121 -43.8961 -9.89426 -13.0246 -43.4524 -9.89426 
-4.1657 -43.8961 -9.89426 -5.11487 -43.8961 -7.57833 2.7949 -43.1008 -9.89426 
10.7047 -41.246 -9.89426 18.6144 -38.4548 -9.89426 -32.2424 -35.9864 -9.89426 
-36.754 -32.2312 -9.89426 24.4597 -35.9864 -9.89426 26.5242 -35.0353 -9.89426 
26.5242 -35.9864 -3.43125 34.434 -30.5228 -9.89426 -40.2627 -28.0766 -9.89426 
-44.6637 -20.5726 -9.89426 37.6146 -28.0766 -9.89426 42.3438 -23.5719 -9.89426 
-44.8767 -20.1668 -9.89426 -44.6637 -20.1668 -7.07096 45.2866 -20.1668 -9.89426 
-48.1147 -12.257 -9.89426 49.8308 -12.257 -9.89426 50.2535 -10.6939 -9.89426 
50.2535 -12.257 -7.41849 -50.4534 -4.34727 -9.89426 51.7568 -4.34727 -9.89426 
-51.785 3.56251 -9.89426 -52.5735 3.56251 -2.40746 51.4985 3.56251 -9.89426 
50.2535 7.83267 -9.89426 -51.2908 11.4723 -9.89426 -52.5735 11.4723 -3.12414 
49.0783 11.4723 -9.89426 50.2535 11.4723 -3.20081 -47.6181 19.382 -9.89426 
-44.6637 22.6193 -9.89426 45.4579 19.382 -9.89426 42.3438 24.0441 -9.89426 
-37.9516 27.2918 -9.89426 -36.754 27.9632 -9.89426 -28.8442 30.931 -9.89426 
-20.9344 32.7922 -9.89426 39.644 27.2918 -9.89426 34.434 31.6934 -9.89426 
-13.5062 35.2016 -9.89426 -13.0246 35.3779 -9.89426 -5.11487 38.7814 -9.89426 
2.7949 40.1624 -9.89426 10.7047 39.9248 -9.89426 18.6144 38.109 -9.89426 
27.5704 35.2016 -9.89426 26.5242 35.6774 -9.89426 2.7949 43.1114 -2.59892 
-28.8442 -37.8476 -1.98449 -20.9344 -41.0524 -1.98449 -13.0246 -42.841 -1.98449 
-5.11487 -43.6513 -1.98449 2.7949 -43.4049 -1.98449 10.7047 -41.9201 -1.98449 
18.6144 -39.6161 -1.98449 26.5242 -36.179 -1.98449 -31.5775 -35.9864 -1.98449 
-36.754 -31.5749 -1.98449 -28.8442 -35.9864 2.43336 26.8791 -35.9864 -1.98449 
26.5242 -35.9864 -0.54145 34.434 -31.709 -1.98449 -39.5409 -28.0766 -1.98449 
-36.754 -28.0766 3.2348 39.029 -28.0766 -1.98449 42.3438 -24.9458 -1.98449 
-44.2156 -20.1668 -1.98449 -44.6637 -19.2109 -1.98449 46.5407 -20.1668 -1.98449 
50.2535 -13.8523 -1.98449 -47.4804 -12.257 -1.98449 -44.6637 -12.257 4.11226 
51.0663 -12.257 -1.98449 50.2535 -12.257 1.03544 -50.5621 -4.34727 -1.98449 
-52.5735 3.39462 -1.98449 53.0626 -4.34727 -1.98449 -52.6155 3.56251 -1.98449 
-52.5735 3.56251 -1.81165 52.8438 3.56251 -1.98449 -52.7498 11.4723 -1.98449 
-52.5735 11.9252 -1.98449 -52.5735 11.4723 -1.01458 50.4469 11.4723 -1.98449 
50.2535 11.9231 -1.98449 50.2535 11.4723 -0.8178 -48.926 19.382 -1.98449 
-44.6637 24.2597 -1.98449 46.6675 19.382 -1.98449 42.3438 25.6284 -1.98449 
-40.1622 27.2918 -1.98449 -36.754 29.1526 -1.98449 -28.8442 31.8599 -1.98449 
-20.9344 34.4359 -1.98449 40.9927 27.2918 -1.98449 34.434 33.0249 -1.98449 
-18.8313 35.2016 -1.98449 -20.9344 35.2016 5.72224 -13.0246 37.6489 -1.98449 
-5.11487 41.6518 -1.98449 10.7047 42.7485 -1.98449 18.6144 40.4347 -1.98449 
30.642 35.2016 -1.98449 26.5242 37.3336 -1.98449 1.67597 43.1114 -1.98449 
5.7917 43.1114 -1.98449 2.7949 43.3218 -1.98449 -20.9344 -38.515 5.92528 
-13.0246 -40.7469 5.92528 -5.11487 -41.7276 5.92528 2.7949 -41.7346 5.92528 
10.7047 -40.6274 5.92528 18.6144 -38.5812 5.92528 -25.963 -35.9864 5.92528 
-28.8442 -34.0333 5.92528 -20.9344 -35.9864 10.0901 24.5945 -35.9864 5.92528 
18.6144 -35.9864 12.6588 26.5242 -35.017 5.92528 34.434 -29.6645 5.92528 
-34.8312 -28.0766 5.92528 -36.754 -24.9565 5.92528 -28.8442 -28.0766 11.2079 
36.3784 -28.0766 5.92528 34.434 -28.0766 8.4193 42.3438 -21.8639 5.92528 
-39.5153 -20.1668 5.92528 -36.754 -20.1668 8.65516 43.7481 -20.1668 5.92528 
42.3438 -20.1668 7.80486 -43.587 -12.257 5.92528 -44.6637 -10.4158 5.92528 
-36.754 -12.257 12.5585 48.7015 -12.257 5.92528 50.2535 -7.71111 5.92528 
-47.7114 -4.34727 5.92528 -44.6637 -4.34727 10.2681 51.2573 -4.34727 5.92528 
50.2535 -4.34727 7.70874 -50.5226 3.56251 5.92528 51.2645 3.56251 5.92528 
50.2535 7.30321 5.92528 50.2535 3.56251 7.83022 -51.0684 11.4723 5.92528 
49.0301 11.4723 5.92528 -47.6894 19.382 5.92528 -44.6637 23.0961 5.92528 
-44.6637 19.382 12.1172 44.8325 19.382 5.92528 42.3438 22.842 5.92528 
42.3438 19.382 10.0794 -39.3058 27.2918 5.92528 -36.754 28.8339 5.92528 
-36.754 27.2918 11.452 -28.8442 32.4319 5.92528 38.5396 27.2918 5.92528 
34.434 30.9083 5.92528 34.434 27.2918 11.6185 -20.9893 35.2016 5.92528 
-20.9344 35.2224 5.92528 -20.9344 35.2016 7.57089 -13.0246 38.5056 5.92528 
-5.11487 41.9481 5.92528 10.7047 42.4656 5.92528 18.6144 39.6541 5.92528 
27.918 35.2016 5.92528 26.5242 36.019 5.92528 26.5242 35.2016 7.66019 
1.45476 43.1114 5.92528 4.89818 43.1114 5.92528 2.7949 43.3286 5.92528 
2.7949 43.1114 6.70242 -13.0246 -36.2297 13.8351 -5.11487 -37.8227 13.8351 
2.7949 -38.1635 13.8351 10.7047 -37.4064 13.8351 -13.7485 -35.9864 13.8351 
-20.9344 -32.2104 13.8351 -13.0246 -35.9864 14.1137 -5.11487 -35.9864 16.1148 
2.7949 -35.9864 16.8465 16.621 -35.9864 13.8351 10.7047 -35.9864 16.0028 
18.6144 -35.4205 13.8351 26.5242 -30.7359 13.8351 -25.1356 -28.0766 13.8351 
-28.8442 -21.7545 13.8351 -20.9344 -28.0766 16.335 -13.0246 -28.0766 19.6895 
18.6144 -28.0766 21.6217 29.7217 -28.0766 13.8351 26.5242 -28.0766 16.5142 
34.434 -23.0208 13.8351 -29.7758 -20.1668 13.8351 -28.8442 -20.1668 14.4008 
-20.9344 -20.1668 17.9599 26.5242 -20.1668 20.7438 36.9109 -20.1668 13.8351 
34.434 -20.1668 15.8095 42.3438 -12.5389 13.8351 -34.5103 -12.257 13.8351 
-36.754 -10.0985 13.8351 -28.8442 -12.257 16.4149 -20.9344 -12.257 19.0136 
34.434 -12.257 19.1095 42.5166 -12.257 13.8351 42.3438 -12.257 13.9997 
-41.0715 -4.34727 13.8351 -44.6637 2.40476 13.8351 -36.754 -4.34727 16.6706 
-28.8442 -4.34727 19.3897 -20.9344 -4.34727 21.0564 34.434 -4.34727 20.8454 
45.5671 -4.34727 13.8351 42.3438 -4.34727 16.6425 -45.1394 3.56251 13.8351 
-44.6637 3.56251 14.3208 -36.754 3.56251 19.515 -28.8442 3.56251 21.5135 
46.1376 3.56251 13.8351 42.3438 3.56251 17.2925 -46.4386 11.4723 13.8351 
-44.6637 16.8231 13.8351 -44.6637 11.4723 15.7082 -36.754 11.4723 20.7892 
[...]
POINT_DATA 500
SCALARS ImageScalars float
LOOKUP_TABLE default
0 0 0 0 0 0 0 0 0 
0 0 0 0 0 0 0 0 0 
0 0 0 0 0 0 0 0 0 
0 0 0 0 0 0 0 0 0 
0 0 0 0 0 0 0 0 0 
0 0 0 0 0 0 0 0 0 
0 0 0 0 0 0 0 0 0 
0 0 0 0 0 0 0 0 0 
0 0 0 0 0 0 0 0 0 
0 0 0 0 0 0 0 0 0 
0 0 0 0 0 0 0 0 0 
0 0 0 0 0 0 0 0 0 
0 0 0 0 0 0 0 0 0 
0 0 0 0 0 0 0 0 0 
0 0 0 0 0 0 0 0 0 
0 0 0 0 0 0 0 0 0 
0 0 0 0 0 0 0 0 0 
0 0 0 0 0 0 0 0 0 
0 0 0 0 0 0 0 0 0 
0 0 0 0 0 0 0 0 0 
0 0 0 0 0 0 0 0 0 
0 0 0 0 0 0 0 0 0 
0 0 0 0 0 0 0 0 0 
0 0 0 0 0 0 0 0 0 
0 0 0 0 0 0 0 0 0 
0 0 0 0 0 0 0 0 0 
0 0 0 0 0 0 0 0 0 
0 0 0 0 0 0 0 0 0 
0 0 0 0 0 0 0 0 0 
0 0 0 0 0 0 0 0 0 
0 0 0 0 0 0 0 0 0 
0 0 0 0 0 0 0 0 0 
0 0 0 0 0 0 0 0 0 
0 0 0 0 0 0 0 0 0 
0 0 0 0 0 0 0 0 0 
0 0 0 0 0 0 0 0 0 
0 0 0 0 0 0 0 0 0 
0 0 0 0 0 0 0 0 0 
0 0 0 0 0 0 0 0 0 
0 0 0 0 0 0 0 0 0 
0 0 0 0 0 0 0 0 0 
0 0 0 0 0 0 0 0 0 
0 0 0 0 0 0 0 0 0 
0 0 0 0 0 0 0 0 0 
0 0 0 0 0 0 0 0 0 
0 0 0 0 0 0 0 0 0 
0 0 0 0 0 0 0 0 0 
0 0 0 0 0 0 0 0 0 
0 0 0 0 0 0 0 0 0 
0 0 0 0 0 0 0 0 0 
0 0 0 0 0 0 0 0 0 
0 0 0 0 0 0 0 0 0 
0 0 0 0 0 0 0 0 0 
0 0 0 0 0 0 0 0 0 
0 0 0 0 0 0 0 0 0 
0 0 0 0 0 
NORMALS Normals float
0.023803 -0.0145495 0.999611 0.300314 0.596968 0.743936 0.117448 0.516784 0.848021 
-0.0495343 0.520738 0.852278 -0.192483 0.549334 0.813131 -0.249462 0.652074 0.715939 
0.332789 0.33738 0.880583 0.156559 0.170728 0.972801 0.10078 0.118152 0.987868 
0.00674289 0.125536 0.992066 -0.10542 0.192623 0.975594 -0.134493 0.31139 0.940717 
-0.220566 0.409532 0.885231 -0.330179 0.530707 0.780597 0.444271 0.286499 0.848847 
0.175523 0.0826249 0.981002 0.0727983 -0.0184635 0.997176 0.0718986 -0.0656308 0.99525 
0.0338256 -0.0358426 0.998785 0.00306699 0.0230844 0.999729 -0.0358573 0.0959598 0.994739 
-0.100779 0.14327 0.984539 -0.199454 0.241312 0.94973 -0.40834 0.352999 0.841813 
0.286891 0.139576 0.947741 0.0629457 0.0636183 0.995987 0.00815045 -0.0120296 0.999894 
0.0861336 -0.010988 0.996223 0.0955366 0.0659255 0.99324 0.0267119 0.0220504 0.9994 
-0.0103262 0.0140593 0.999848 -0.0610507 0.0286435 0.997724 -0.140289 0.0639342 0.988044 
-0.278124 0.15186 0.948465 -0.488888 0.247871 0.83639 0.572195 0.160251 0.804309 
0.242038 0.0976782 0.965337 0.0265682 0.111699 0.993387 -0.000798345 0.117306 0.993095 
0.152501 0.173486 0.972957 0.0566659 0.0653084 0.996255 -0.0487578 -0.0619612 0.996887 
-0.0293988 -0.000647497 0.999568 -0.0558921 0.0304934 0.997971 -0.079001 0.0417292 0.996001 
-0.222779 0.0799669 0.971584 -0.460208 0.0643981 0.885472 0.546153 -0.00723476 0.837654 
0.253733 0.0244412 0.966965 0.0781862 0.0583746 0.995228 0.0648998 0.151175 0.986374 
0.0241212 -0.010355 0.999655 0.0351246 0.158703 0.986701 -0.139677 0.0230159 0.98993 
-0.0346697 -0.02191 0.999159 0.0822309 -0.00530399 0.996599 -0.0188456 0.0388279 0.999068 
-0.0846433 0.0448673 0.995401 -0.242432 -0.00407552 0.97016 -0.485931 -0.0633646 0.871697 
0.579326 -0.226435 0.783013 0.295976 -0.139765 0.944915 0.155361 -0.0795935 0.984646 
0.0255521 -0.0145165 0.999568 0.106234 -0.0144555 0.994236 0.0182857 -0.0131939 0.999746 
0.0246744 -0.0191488 0.999512 -0.121376 0.0212605 0.992379 -0.0753007 0.0602017 0.995342 
0.0291155 -0.0545898 0.998084 -0.00450526 -0.0659824 0.997811 -0.118437 -0.0686471 0.990586 
-0.323026 -0.13228 0.9371 -0.568494 -0.214347 0.794273 0.374433 -0.461827 0.804062 
0.20679 -0.367061 0.90692 0.129877 -0.304392 0.943651 0.0706652 -0.272472 0.959565 
-0.0594681 -0.200752 0.977835 -0.112208 -0.153314 0.981786 -0.0421952 -0.21309 0.976121 
-0.0325956 -0.241919 0.969749 -0.152081 -0.271331 0.950395 -0.383356 -0.310052 0.870004 
0.181577 -0.689631 0.701027 0.134634 -0.616477 0.775777 0.0219234 -0.514552 0.857179 
-0.0684516 -0.434942 0.897853 -0.0598522 -0.428575 0.901522 -0.0742933 -0.462337 0.883587 
-0.187622 -0.510109 0.839397 0.304566 0.683322 0.663559 0.145729 0.732968 0.66447 
-0.0451587 0.758198 0.650458 -0.0206142 0.985189 0.170227 -0.202161 0.696499 0.688491 
-0.253167 0.666605 0.701103 0.369776 0.633498 0.679666 0.411528 0.533899 0.738645 
0.480526 0.747109 0.459263 -0.259013 0.665297 0.700209 -0.287917 0.624102 0.726361 
-0.327805 0.79327 0.513095 -0.342856 0.572466 0.744804 0.488591 0.434892 0.756405 
0.516692 0.391157 0.761594 0.623153 0.515021 0.588586 -0.363221 0.554375 0.748825 
-0.43938 0.459978 0.7716 -0.517101 0.687615 0.509697 0.568138 0.324271 0.756352 
0.882823 0.430924 0.18689 -0.478819 0.400384 0.781297 -0.508442 0.285344 0.812444 
-0.650764 0.526802 0.546797 0.605632 0.250924 0.755147 0.633966 0.224592 0.740031 
0.723652 0.286732 0.627783 -0.521477 0.253608 0.814705 0.646246 0.167221 0.744583 
-0.563619 0.0645411 0.82351 -0.866383 0.0917779 0.490875 0.663457 -0.00226254 0.748211 
-0.576665 -0.0792205 0.813131 -0.872519 -0.145412 0.466439 0.635738 -0.232693 0.735997 
0.596474 -0.316244 0.737705 -0.593524 -0.221388 0.773768 -0.586822 -0.249724 0.770246 
0.481502 -0.498768 0.720685 0.649702 -0.539378 0.535684 0.393358 -0.585808 0.708589 
0.25735 -0.687222 0.679335 -0.537296 -0.356994 0.764113 -0.420629 -0.49956 0.757305 
-0.709781 -0.429889 0.558038 0.429904 -0.834608 0.344401 0.227581 -0.717292 0.658558 
0.262157 -0.75175 0.6051 0.191346 -0.73721 0.648003 0.179523 -0.715044 0.675635 
0.10349 -0.660006 0.744098 -0.0254562 -0.579062 0.814886 -0.0580793 -0.549233 0.833649 
-0.0881729 -0.570288 0.816699 -0.310024 -0.554439 0.772323 -0.211309 -0.579623 0.78701 
-0.458834 -0.616466 0.639875 0.334191 -0.86514 0.373965 0.184504 -0.759696 0.623555 
0.00774691 -0.676824 0.736104 -0.0711877 -0.680719 0.729078 -0.159637 -0.764892 0.624065 
-0.336389 -0.860193 0.383289 -0.0192962 0.987482 0.156547 0.481725 0.858337 0.17663 
0.292821 0.942446 0.161407 0.00918729 0.988258 0.152517 0.132505 0.981574 0.13768 
-0.0361232 0.985857 0.163648 -0.00398326 0.997386 0.0721465 -0.164116 0.960665 0.224029 
-0.274652 0.922079 0.272646 -0.346394 0.887725 0.303241 0.565209 0.805269 0.179111 
0.702483 0.688407 0.180595 -0.407095 0.863456 0.297854 -0.430286 0.850752 0.301787 
-0.450558 0.891249 0.0517058 -0.541195 0.77998 0.314228 0.800264 0.578462 0.157988 
0.884464 0.438408 0.159752 -0.601001 0.7369 0.309477 -0.693804 0.643777 0.322781 
0.887187 0.432146 0.161703 0.895507 0.444443 0.0231857 -0.749158 0.569399 0.338449 
0.926683 0.335442 0.169519 -0.877603 0.339532 0.338424 -0.89295 0.292082 0.342532 
-0.911405 0.353154 0.211241 0.951411 0.224455 0.210803 -0.924367 0.0967181 0.369042 
0.961312 0.0549617 0.269923 0.990168 0.128978 -0.0541531 -0.91775 -0.154417 0.365911 
-0.903618 -0.25108 0.347036 0.91681 -0.22503 0.329881 0.979723 -0.197951 0.030957 
-0.881023 -0.330306 0.338669 -0.936081 -0.348865 0.0452295 0.772898 -0.547652 0.320476 
0.673896 -0.662305 0.327439 -0.818542 -0.475231 0.322713 -0.760319 -0.571931 0.307913 
0.458846 -0.838661 0.29344 0.425235 -0.857281 0.290249 0.277027 -0.919152 0.280028 
0.255118 -0.915182 0.312021 -0.680616 -0.663891 0.309856 -0.52558 -0.783919 0.330511 
0.334083 -0.871073 0.360028 0.339214 -0.867258 0.364413 0.257088 -0.852514 0.455111 
0.0621866 -0.85014 0.522871 -0.117847 -0.848455 0.515981 -0.234885 -0.86902 0.435469 
-0.3633 -0.866605 0.342067 -0.341924 -0.873672 0.346099 0.0588012 -0.979621 0.192056 
0.483384 0.852859 -0.19741 0.285209 0.942103 -0.176347 0.155917 0.975173 -0.157247 
0.0348508 0.990147 -0.135628 -0.106971 0.990786 -0.0830623 -0.232839 0.971663 -0.0407027 
-0.335856 0.941902 0.00451979 -0.450869 0.89259 -6.56085e-07 0.559169 0.803489 -0.204291 
0.725468 0.647379 -0.233658 0.513187 0.779227 -0.359783 -0.455242 0.890367 -0.000907639 
-0.456153 0.888874 -0.0427375 -0.564753 0.824465 -0.0362267 0.795438 0.552233 -0.249633 
0.729996 0.511909 -0.452829 -0.647322 0.760743 -0.0473746 -0.712382 0.699341 -0.0585978 
0.863813 0.442254 -0.241328 0.868018 0.43555 -0.238414 -0.806313 0.587699 -0.0668434 
-0.912823 0.404416 -0.0565926 0.895094 0.381576 -0.230665 0.796812 0.390603 -0.460999 
-0.93024 0.362801 -0.0550264 -0.909618 0.371102 -0.186759 0.941883 0.304816 -0.141218 
0.988092 0.135891 -0.0721602 -0.993934 0.106645 -0.0268635 0.988679 0.132239 -0.070902 
0.988055 0.133386 -0.077169 -0.987145 -0.159281 -0.0131797 0.981047 -0.193215 -0.0146292 
0.977152 -0.212112 -0.013483 0.980739 -0.188093 -0.0526575 -0.93737 -0.34832 -0.003291 
-0.933962 -0.357349 -0.00408689 -0.935948 -0.349036 -0.0466348 0.831934 -0.554871 0.00219671 
0.692564 -0.720805 0.0282004 -0.857547 -0.513597 -0.0288517 -0.77916 -0.625195 -0.0451755 
0.505379 -0.86176 0.0442971 0.390494 -0.91917 0.0513855 0.308052 -0.946875 0.0923715 
0.323132 -0.935517 0.142805 -0.743957 -0.666573 -0.0469913 -0.566203 -0.823517 -0.0351198 
0.345758 -0.926052 0.15126 0.354329 -0.93408 0.044113 0.41565 -0.893657 0.169154 
0.321659 -0.931069 0.172179 -0.179093 -0.975118 0.130655 -0.315136 -0.945223 0.0851041 
-0.484132 -0.874964 -0.00738784 -0.413474 -0.910242 0.0223355 0.0928463 -0.981208 0.169146 
-0.0308772 -0.987484 0.154664 0.0577469 -0.984131 0.167781 0.338379 0.847039 -0.409909 
0.180934 0.91408 -0.362934 0.0574912 0.942053 -0.330502 -0.0664535 0.95238 -0.297585 
-0.187769 0.947251 -0.259728 -0.318 0.918569 -0.234749 0.459671 0.759043 -0.461038 
0.533648 0.673575 -0.511386 0.374078 0.74025 -0.558655 -0.431881 0.869363 -0.24018 
-0.311219 0.84098 -0.442601 -0.47201 0.845054 -0.251176 -0.586052 0.732083 -0.347271 
0.671341 0.485469 -0.560019 0.688903 0.445427 -0.571846 0.55239 0.433632 -0.711919 
-0.613375 0.703042 -0.359865 -0.594648 0.67758 -0.432758 -0.698906 0.587175 -0.408357 
0.70988 0.40235 -0.578087 0.638957 0.37885 -0.669482 -0.717696 0.559323 -0.414812 
-0.688295 0.547081 -0.476395 0.748429 0.392442 -0.534643 0.767989 0.387455 -0.509971 
0.51798 0.388203 -0.76223 -0.831599 0.370632 -0.413612 -0.888019 0.237771 -0.393557 
0.818792 0.365141 -0.443004 0.712545 0.379713 -0.589998 -0.914593 0.140092 -0.379334 
-0.882703 0.147497 -0.446185 0.904769 0.177505 -0.387149 -0.929949 -0.126936 -0.345082 
-0.916696 -0.224639 -0.330462 -0.90148 -0.118379 -0.416317 0.928544 -0.145506 -0.341516 
-0.885571 -0.340199 -0.316272 0.818385 -0.509904 -0.265036 0.72648 -0.640964 -0.247774 
0.746362 -0.471827 -0.469386 -0.791355 -0.51689 -0.326467 -0.748927 -0.572078 -0.334417 
-0.723244 -0.503841 -0.472296 0.550839 -0.81844 -0.163502 0.48225 -0.865562 -0.135049 
0.558441 -0.764981 -0.320856 0.357048 -0.934032 -0.0100387 -0.665948 -0.662701 -0.34255 
-0.57919 -0.741807 -0.338026 -0.563626 -0.634515 -0.528882 0.354974 -0.933964 0.0412927 
0.355139 -0.933889 0.0415769 0.35774 -0.93379 -0.00768232 0.394327 -0.918855 0.014532 
0.281749 -0.955876 -0.0831752 -0.21667 -0.960967 -0.172039 -0.362426 -0.902367 -0.233199 
-0.476593 -0.830945 -0.287035 -0.457172 -0.844892 -0.27776 -0.462387 -0.82009 -0.337121 
0.070532 -0.989018 -0.12988 -0.0349977 -0.988644 -0.146143 0.0291326 -0.990088 -0.137394 
0.0243668 -0.986059 -0.164604 0.228613 0.737341 -0.63566 0.102198 0.812993 -0.573235 
-0.0245789 0.854231 -0.519313 -0.148491 0.865585 -0.47824 0.243517 0.726997 -0.642008 
0.414819 0.524826 -0.743292 0.231462 0.728306 -0.644977 0.121283 0.755177 -0.644203 
0.000545029 0.796377 -0.6048 -0.266672 0.835022 -0.481273 -0.142079 0.825015 -0.546959 
-0.312644 0.816096 -0.486046 -0.514017 0.659793 -0.548142 0.492476 0.377139 -0.784368 
0.479386 0.299234 -0.825014 0.430618 0.341473 -0.835443 0.332558 0.381227 -0.862596 
-0.34351 0.501613 -0.793968 -0.553883 0.595331 -0.582061 -0.520907 0.552823 -0.650417 
-0.577444 0.496341 -0.648231 0.477274 0.283258 -0.83185 0.461514 0.270093 -0.845018 
0.415298 0.149371 -0.897338 -0.462659 0.26713 -0.845333 -0.586234 0.454556 -0.670604 
-0.553253 0.41936 -0.719756 -0.624423 0.356558 -0.694955 0.453577 0.355292 -0.817334 
0.480256 0.377983 -0.791506 0.341417 0.275431 -0.89865 0.424009 0.183676 -0.886837 
-0.430498 0.263829 -0.863172 -0.627001 0.351195 -0.695364 -0.622486 0.350682 -0.699666 
0.560032 0.37199 -0.740261 0.673029 0.248709 -0.696546 0.41441 0.359816 -0.835941 
0.248364 0.305394 -0.919266 0.393624 0.25409 -0.883458 -0.365272 0.15107 -0.918561 
-0.690199 0.166803 -0.704132 -0.590108 0.161518 -0.791002 0.686027 0.224387 -0.692111 
0.668402 0.226542 -0.708461 0.369509 0.227515 -0.900944 0.211673 0.213922 -0.953641 
-0.729724 -0.0702806 -0.68012 -0.611798 -0.0478467 -0.789566 0.746949 -0.0739836 -0.660752 
0.741233 -0.331871 -0.583468 0.688151 -0.0518441 -0.723713 0.394097 -0.00328037 -0.919063 
-0.430451 -0.204681 -0.8791 -0.708401 -0.289383 -0.643759 -0.676524 -0.372076 -0.635512 
-0.652047 -0.27773 -0.705479 0.715247 -0.44412 -0.539611 0.584455 -0.688478 -0.429431 
0.503349 -0.314398 -0.804857 -0.627322 -0.466038 -0.62392 -0.546388 -0.566815 -0.616588 
-0.504815 -0.406832 -0.761347 0.56391 -0.723665 -0.397887 0.457878 -0.837418 -0.29846 
0.471179 -0.570081 -0.673051 0.360492 -0.909889 -0.205299 -0.349328 -0.457549 -0.817691 
-0.517576 -0.602731 -0.607314 -0.454966 -0.67007 -0.586526 -0.437828 -0.544617 -0.715332 
0.357845 -0.911126 -0.20444 0.292761 -0.927619 -0.231979 0.223649 -0.812121 -0.538925 
0.16431 -0.918502 -0.359661 0.0295066 -0.701182 -0.712372 -0.0374232 -0.893883 -0.446735 
-0.107728 -0.65111 -0.751299 -0.258364 -0.832329 -0.490384 -0.26685 -0.681923 -0.681008 
-0.390533 -0.747575 -0.53723 -0.376546 -0.760144 -0.529522 -0.375019 -0.736889 -0.562456 
0.233882 0.511545 -0.826814 0.0580019 0.614564 -0.786732 -0.138911 0.59971 -0.788068 
0.270255 0.45367 -0.849203 0.44374 0.248767 -0.860936 0.246691 0.481125 -0.841227 
0.0695929 0.499672 -0.863415 -0.333762 0.500391 -0.798882 -0.138148 0.491884 -0.859631 
-0.343337 0.489622 -0.801492 0.452622 0.231921 -0.861014 0.454451 0.239329 -0.858019 
0.274562 0.311126 -0.909844 0.0378377 0.160328 -0.986338 -0.149727 0.132978 -0.979744 
-0.428683 0.235753 -0.872154 -0.330053 0.164867 -0.929454 -0.370287 0.186947 -0.909911 
0.515387 0.22229 -0.827625 0.538042 0.276471 -0.796288 0.101458 0.195522 -0.975437 
-0.110357 -0.0340651 -0.993308 -0.145743 -0.0718697 -0.986708 -0.232452 0.00683619 -0.972584 
-0.335001 0.165686 -0.927536 -0.320726 0.147589 -0.935603 0.419807 0.246418 -0.873522 
0.374942 0.24955 -0.892829 0.494567 0.146486 -0.856706 -0.0767811 0.0622065 -0.995106 
-0.228981 0.0663248 -0.971169 -0.108495 0.0763901 -0.991158 -0.133234 0.0662441 -0.988868 
-0.314526 0.131289 -0.940126 -0.225931 0.0992463 -0.969074 -0.357673 0.0120835 -0.933769 
0.225261 0.217044 -0.949815 0.218219 0.197232 -0.955761 0.323068 0.22426 -0.919421 
0.35565 -0.0284416 -0.934186 0.0468966 -0.06649 -0.996684 -0.095643 0.150539 -0.983967 
-0.145272 0.199264 -0.969118 -0.215106 0.0994311 -0.971516 -0.240071 0.0239243 -0.970461 
-0.363476 -0.00788656 -0.93157 -0.364683 -0.0275554 -0.930724 -0.356397 -0.00658898 -0.934312 
0.334525 0.0437911 -0.941369 0.263108 0.110589 -0.958407 0.214735 0.12864 -0.968163 
0.188924 -0.00966768 -0.981944 0.12417 -0.0912345 -0.988058 0.0310569 -0.0180395 -0.999355 
-0.151885 -0.0103588 -0.988344 -0.301832 -0.0565603 -0.951682 -0.385216 -0.170557 -0.906928 
-0.315261 -0.118976 -0.941518 0.396032 -0.199322 -0.896342 0.421198 -0.357873 -0.833378 
0.348664 -0.14163 -0.926485 0.223927 -0.0527824 -0.973175 0.122008 -0.0672313 -0.990249 
0.0507793 -0.110537 -0.992574 -0.0123923 -0.179617 -0.983658 -0.183119 -0.245154 -0.952033 
-0.348769 -0.454637 -0.819552 -0.319886 -0.257368 -0.91183 -0.360498 -0.310909 -0.879418 
-0.359496 -0.313944 -0.87875 -0.357724 -0.308847 -0.881276 0.41709 -0.490106 -0.765397 
0.348055 -0.599902 -0.720399 0.309123 -0.413069 -0.856632 0.1865 -0.704229 -0.68504 
0.124236 -0.337565 -0.933068 0.0229066 -0.679423 -0.733389 0.00688909 -0.3241 -0.945998 
-0.110055 -0.611654 -0.783433 -0.102801 -0.372902 -0.922158 -0.347468 -0.456635 -0.818994 
-0.247071 -0.547894 -0.79923 -0.225766 -0.424332 -0.87691 
