# vtk DataFile Version 4.2
vtk output
ASCII
DATASET POLYDATA
POINTS 560 float
-10.1768 -36.2594 -14.3161 -2.7423 -36.2594 -14.964 4.69221 -36.2594 -14.7156 
12.1267 -36.2594 -13.9237 -25.0458 -28.8249 -14.004 -17.6113 -28.8249 -15.4725 
-10.1768 -28.8249 -16.6803 -2.7423 -28.8249 -16.9526 4.69221 -28.8249 -17.1087 
12.1267 -28.8249 -17.1438 19.5612 -28.8249 -16.4479 26.9957 -28.8249 -15.3742 
34.4302 -28.8249 -13.7085 -39.9148 -21.3904 -13.3774 -32.4803 -21.3904 -14.6001 
-25.0458 -21.3904 -15.0451 -17.6113 -21.3904 -15.7874 -10.1768 -21.3904 -16.569 
-2.7423 -21.3904 -17.2279 4.69221 -21.3904 -17.8468 12.1267 -21.3904 -18.1461 
19.5612 -21.3904 -17.5368 26.9957 -21.3904 -17.0507 34.4302 -21.3904 -16.9853 
41.8648 -21.3904 -14.9031 -47.3494 -13.9559 -13.5335 -39.9148 -13.9559 -15.2512 
-32.4803 -13.9559 -15.8843 -25.0458 -13.9559 -15.9404 -17.6113 -13.9559 -15.4434 
-10.1768 -13.9559 -15.8671 -2.7423 -13.9559 -16.7734 4.69221 -13.9559 -18.1464 
12.1267 -13.9559 -18.4213 19.5612 -13.9559 -17.5586 26.9957 -13.9559 -17.8337 
34.4302 -13.9559 -17.8172 41.8648 -13.9559 -17.5251 49.2993 -13.9559 -15.4029 
-47.3494 -6.52138 -15.3827 -39.9148 -6.52138 -16.7933 -32.4803 -6.52138 -16.6231 
-25.0458 -6.52138 -15.7656 -17.6113 -6.52138 -14.8427 -10.1768 -6.52138 -18.6092 
-2.7423 -6.52138 -18.1294 4.69221 -6.52138 -18.2171 12.1267 -6.52138 -18.7737 
19.5612 -6.52138 -17.2658 26.9957 -6.52138 -18.202 34.4302 -6.52138 -18.6453 
41.8648 -6.52138 -18.2952 49.2993 -6.52138 -17.1837 56.7338 -6.52138 -13.3894 
-47.3494 0.913132 -15.5068 -39.9148 0.913132 -16.87 -32.4803 0.913132 -16.529 
-25.0458 0.913132 -15.7709 -17.6113 0.913132 -14.8335 -10.1768 0.913132 -18.8723 
-2.7423 0.913132 -14.8937 4.69221 0.913132 -15.8894 12.1267 0.913132 -17.9815 
19.5612 0.913132 -16.7351 26.9957 0.913132 -17.7183 34.4302 0.913132 -18.1857 
41.8648 0.913132 -18.0053 49.2993 0.913132 -16.2533 -47.3494 8.34764 -14.6024 
-39.9148 8.34764 -15.5717 -32.4803 8.34764 -15.6186 -25.0458 8.34764 -15.2592 
-17.6113 8.34764 -15.189 -10.1768 8.34764 -17.8877 -2.7423 8.34764 -17.7649 
4.69221 8.34764 -18.9494 12.1267 8.34764 -18.7476 19.5612 8.34764 -16.1163 
26.9957 8.34764 -16.3609 34.4302 8.34764 -16.3042 41.8648 8.34764 -15.5542 
49.2993 8.34764 -13.5555 -39.9148 15.7822 -13.7172 -32.4803 15.7822 -15.218 
-25.0458 15.7822 -15.2325 -17.6113 15.7822 -16.0766 -10.1768 15.7822 -17.412 
-2.7423 15.7822 -16.5828 4.69221 15.7822 -16.0188 12.1267 15.7822 -16.0917 
19.5612 15.7822 -14.901 26.9957 15.7822 -14.4473 34.4302 15.7822 -13.9291 
-32.4803 23.2167 -13.2798 -25.0458 23.2167 -14.5929 -17.6113 23.2167 -15.2883 
-10.1768 23.2167 -14.9567 -2.7423 23.2167 -13.275 4.69221 23.2167 -12.878 
12.1267 23.2167 -13.2843 19.5612 23.2167 -12.8702 -10.1768 -38.4217 -12.7666 
-2.7423 -39.3695 -12.7666 -2.7423 -43.6939 -5.44833 4.69221 -38.8659 -12.7666 
12.1267 -37.6827 -12.7666 -25.0458 -31.3276 -12.7666 -25.0458 -36.2594 -9.25017 
-16.6782 -36.2594 -12.7666 -17.6113 -35.7103 -12.7666 -17.6113 -36.2594 -12.4576 
18.3868 -36.2594 -12.7666 19.5612 -35.8691 -12.7666 19.5612 -36.2594 -12.4438 
26.9957 -32.9886 -12.7666 26.9957 -36.2594 -8.91885 34.4302 -30.0815 -12.7666 
-39.9148 -22.7062 -12.7666 -39.9148 -28.8249 -8.33384 -30.6683 -28.8249 -12.7666 
-32.4803 -27.5568 -12.7666 -32.4803 -28.8249 -12.3259 36.4822 -28.8249 -12.7666 
41.8648 -24.7602 -12.7666 41.8648 -28.8249 -8.24348 -44.2092 -21.3904 -12.7666 
-47.3494 -18.1628 -12.7666 -47.3494 -21.3904 -11.6225 46.8151 -21.3904 -12.7666 
49.2993 -19.3468 -12.7666 49.2993 -21.3904 -10.9846 -49.2576 -13.9559 -12.7666 
-54.7839 -13.9559 -9.63628 55.2918 -13.9559 -12.7666 56.7338 -9.65999 -12.7666 
56.7338 -13.9559 -11.39 -52.2477 -6.52138 -12.7666 -54.7839 -6.52138 -10.9251 
57.3901 -6.52138 -12.7666 56.7338 -3.81568 -12.7666 -62.2184 0.913132 -5.39415 
-53.0845 0.913132 -12.7666 -54.7839 0.913132 -11.721 55.4239 0.913132 -12.7666 
56.7338 0.913132 -11.7184 -51.128 8.34764 -12.7666 -54.7839 8.34764 -10.4229 
-47.3494 12.9901 -12.7666 41.8648 15.4631 -12.7666 50.981 8.34764 -12.7666 
49.2993 9.9364 -12.7666 56.7338 8.34764 -8.96175 -54.7839 15.7822 -7.90905 
-43.1322 15.7822 -12.7666 -47.3494 15.7822 -11.4852 -39.9148 18.6881 -12.7666 
26.9957 21.1551 -12.7666 41.1333 15.7822 -12.7666 34.4302 18.657 -12.7666 
41.8648 15.7822 -12.6217 49.2993 15.7822 -9.45644 -47.3494 23.2167 -7.34034 
-34.435 23.2167 -12.7666 -39.9148 23.2167 -11.2125 -32.4803 24.5116 -12.7666 
-25.0458 29.1858 -12.7666 -17.6113 29.0836 -12.7666 -10.1768 27.5116 -12.7666 
-2.7423 24.5046 -12.7666 4.69221 23.5601 -12.7666 12.1267 24.5611 -12.7666 
20.5829 23.2167 -12.7666 19.5612 23.5169 -12.7666 26.9957 23.2167 -12.1253 
34.4302 23.2167 -10.758 41.8648 23.2167 -7.96354 -39.9148 30.6512 -6.17313 
-32.4803 30.6512 -9.84585 -25.0458 30.6512 -12.1642 -17.6113 30.6512 -11.9684 
-10.1768 30.6512 -11.0225 -2.7423 30.6512 -10.337 4.69221 30.6512 -10.3089 
12.1267 30.6512 -10.2407 19.5612 30.6512 -9.92876 26.9957 30.6512 -8.45542 
34.4302 30.6512 -5.83269 -17.6113 38.0857 -5.5136 -2.7423 -43.7408 -5.33208 
-25.0458 -38.9523 -5.33208 -17.6113 -41.4499 -5.33208 -3.33507 -43.6939 -5.33208 
-10.1768 -43.1436 -5.33208 -2.08409 -43.6939 -5.33208 -2.7423 -43.6939 -5.05256 
4.69221 -43.2064 -5.33208 12.1267 -42.0996 -5.33208 19.5612 -40.4193 -5.33208 
26.9957 -37.9359 -5.33208 -39.9148 -31.4637 -5.33208 -31.6335 -36.2594 -5.33208 
-32.4803 -35.8706 -5.33208 31.0571 -36.2594 -5.33208 26.9957 -36.2594 1.45142 
34.4302 -34.7952 -5.33208 41.8648 -30.5787 -5.33208 -43.8475 -28.8249 -5.33208 
-47.3494 -25.7701 -5.33208 44.5309 -28.8249 -5.33208 41.8648 -28.8249 0.0908822 
49.2993 -25.3611 -5.33208 -51.7939 -21.3904 -5.33208 -54.7839 -18.2968 -5.33208 
53.9684 -21.3904 -5.33208 56.7338 -18.401 -5.33208 -57.6217 -13.9559 -5.33208 
59.7561 -13.9559 -5.33208 -60.6351 -6.52138 -5.33208 -62.2184 0.674629 -5.33208 
62.9039 -6.52138 -5.33208 -62.2606 0.913132 -5.33208 -62.2184 1.13988 -5.33208 
62.7094 0.913132 -5.33208 -60.4602 8.34764 -5.33208 59.5223 8.34764 -5.33208 
56.7338 15.1095 -5.33208 -57.033 15.7822 -5.33208 -54.7839 19.2173 -5.33208 
56.2422 15.7822 -5.33208 49.2993 21.5466 -5.33208 56.7338 15.7822 -4.28598 
-49.7984 23.2167 -5.33208 -47.3494 25.1739 -5.33208 47.1498 23.2167 -5.33208 
41.8648 26.8868 -5.33208 49.2993 23.2167 -2.99537 -40.9517 30.6512 -5.33208 
-39.9148 31.3339 -5.33208 -32.4803 35.8853 -5.33208 -25.0458 37.9418 -5.33208 
-10.1768 37.6992 -5.33208 -2.7423 37.6235 -5.33208 4.69221 37.9029 -5.33208 
12.1267 37.4713 -5.33208 19.5612 36.2512 -5.33208 26.9957 34.6292 -5.33208 
35.5626 30.6512 -5.33208 34.4302 31.2022 -5.33208 41.8648 30.6512 0.0274899 
-21.7054 38.0857 -5.33208 -25.0458 38.0857 -5.04076 -15.2459 38.0857 -5.33208 
-17.6113 38.2376 -5.33208 -10.1768 38.0857 -4.73417 -2.7423 38.0857 -4.65325 
4.69221 38.0857 -5.06197 12.1267 38.0857 -4.40724 19.5612 38.0857 -2.62702 
26.9957 38.0857 1.10901 -25.0458 -38.82 2.10243 -17.6113 -40.6153 2.10243 
-10.1768 -41.795 2.10243 -2.7423 -42.3385 2.10243 4.69221 -41.7513 2.10243 
12.1267 -40.5804 2.10243 19.5612 -38.7671 2.10243 -39.9148 -32.2297 2.10243 
-31.9494 -36.2594 2.10243 -32.4803 -36.0371 2.10243 -25.0458 -36.2594 6.70579 
-17.6113 -36.2594 7.95617 -10.1768 -36.2594 8.85735 -2.7423 -36.2594 9.35869 
4.69221 -36.2594 8.84614 12.1267 -36.2594 7.52416 26.5559 -36.2594 2.10243 
19.5612 -36.2594 5.64292 26.9957 -36.05 2.10243 34.4302 -32.5596 2.10243 
-44.5758 -28.8249 2.10243 -47.3494 -26.4857 2.10243 -39.9148 -28.8249 7.96096 
26.9957 -28.8249 8.48548 40.7023 -28.8249 2.10243 34.4302 -28.8249 6.13425 
41.8648 -28.0052 2.10243 49.2993 -23.1273 2.10243 -52.4677 -21.3904 2.10243 
-54.7839 -18.4179 2.10243 -47.3494 -21.3904 9.39517 41.8648 -21.3904 8.71162 
51.18 -21.3904 2.10243 49.2993 -21.3904 3.82542 56.7338 -16.0966 2.10243 
-57.8442 -13.9559 2.10243 -54.7839 -13.9559 7.26412 58.3824 -13.9559 2.10243 
56.7338 -13.9559 4.21729 -61.3227 -6.52138 2.10243 -62.2184 -3.1435 2.10243 
62.8467 -6.52138 2.10243 56.7338 -6.52138 9.10727 -63.2601 0.913132 2.10243 
-62.2184 7.18133 2.10243 -62.2184 0.913132 4.62776 62.7127 0.913132 2.10243 
-62.0245 8.34764 2.10243 61.6688 8.34764 2.10243 -58.8729 15.7822 2.10243 
-54.7839 21.5498 2.10243 58.1439 15.7822 2.10243 56.7338 17.7061 2.10243 
56.7338 15.7822 5.88348 -53.3105 23.2167 2.10243 -47.3494 28.4321 2.10243 
51.8115 23.2167 2.10243 49.2993 25.7263 2.10243 -44.541 30.6512 2.10243 
-39.9148 33.893 2.10243 -39.9148 30.6512 9.03485 -32.4803 37.9614 2.10243 
34.4302 35.7859 2.10243 43.2454 30.6512 2.10243 41.8648 31.6847 2.10243 
-32.1537 38.0857 2.10243 -25.0458 40.4934 2.10243 -25.0458 38.0857 7.99369 
-17.6113 41.2534 2.10243 -10.1768 41.1479 2.10243 -2.7423 41.0768 2.10243 
4.69221 41.1787 2.10243 12.1267 40.9172 2.10243 19.5612 40.1878 2.10243 
28.0693 38.0857 2.10243 26.9957 38.4478 2.10243 26.9957 38.0857 4.81675 
-32.4803 -30.6941 9.53694 -25.0458 -33.6572 9.53694 -17.6113 -34.1794 9.53694 
-10.1768 -35.2408 9.53694 -2.7423 -35.9765 9.53694 4.69221 -35.2654 9.53694 
12.1267 -33.486 9.53694 19.5612 -31.3796 9.53694 -37.0115 -28.8249 9.53694 
-39.9148 -27.0918 9.53694 -32.4803 -28.8249 11.1425 -25.0458 -28.8249 12.5872 
-17.6113 -28.8249 12.6655 -10.1768 -28.8249 12.6529 -2.7423 -28.8249 12.7958 
4.69221 -28.8249 12.7763 12.1267 -28.8249 12.1801 24.1482 -28.8249 9.53694 
19.5612 -28.8249 10.9928 26.9957 -26.4955 9.53694 34.4302 -22.7271 9.53694 
-47.1435 -21.3904 9.53694 -47.3494 -21.1837 9.53694 -39.9148 -21.3904 12.9907 
-32.4803 -21.3904 14.4532 -25.0458 -21.3904 14.9612 -17.6113 -21.3904 15.1034 
-10.1768 -21.3904 14.054 -2.7423 -21.3904 13.9162 4.69221 -21.3904 14.4933 
12.1267 -21.3904 14.6375 19.5612 -21.3904 13.176 26.9957 -21.3904 11.5426 
38.1299 -21.3904 9.53694 34.4302 -21.3904 10.1901 41.8648 -19.8501 9.53694 
49.2993 -14.2663 9.53694 -52.5122 -13.9559 9.53694 -54.7839 -11.5794 9.53694 
-47.3494 -13.9559 12.8985 -39.9148 -13.9559 15.345 -32.4803 -13.9559 16.4116 
-25.0458 -13.9559 16.1642 -17.6113 -13.9559 15.7108 -10.1768 -13.9559 14.6216 
[...]
POINT_DATA 560
SCALARS ImageScalars float
LOOKUP_TABLE default
0 0 0 0 0 0 0 0 0 
0 0 0 0 0 0 0 0 0 
0 0 0 0 0 0 0 0 0 
0 0 0 0 0 0 0 0 0 
0 0 0 0 0 0 0 0 0 
0 0 0 0 0 0 0 0 0 
0 0 0 0 0 0 0 0 0 
0 0 0 0 0 0 0 0 0 
0 0 0 0 0 0 0 0 0 
0 0 0 0 0 0 0 0 0 
0 0 0 0 0 0 0 0 0 
0 0 0 0 0 0 0 0 0 
0 0 0 0 0 0 0 0 0 
0 0 0 0 0 0 0 0 0 
0 0 0 0 0 0 0 0 0 
0 0 0 0 0 0 0 0 0 
0 0 0 0 0 0 0 0 0 
0 0 0 0 0 0 0 0 0 
0 0 0 0 0 0 0 0 0 
0 0 0 0 0 0 0 0 0 
0 0 0 0 0 0 0 0 0 
0 0 0 0 0 0 0 0 0 
0 0 0 0 0 0 0 0 0 
0 0 0 0 0 0 0 0 0 
0 0 0 0 0 0 0 0 0 
0 0 0 0 0 0 0 0 0 
0 0 0 0 0 0 0 0 0 
0 0 0 0 0 0 0 0 0 
0 0 0 0 0 0 0 0 0 
0 0 0 0 0 0 0 0 0 
0 0 0 0 0 0 0 0 0 
0 0 0 0 0 0 0 0 0 
0 0 0 0 0 0 0 0 0 
0 0 0 0 0 0 0 0 0 
0 0 0 0 0 0 0 0 0 
0 0 0 0 0 0 0 0 0 
0 0 0 0 0 0 0 0 0 
0 0 0 0 0 0 0 0 0 
0 0 0 0 0 0 0 0 0 
0 0 0 0 0 0 0 0 0 
0 0 0 0 0 0 0 0 0 
0 0 0 0 0 0 0 0 0 
0 0 0 0 0 0 0 0 0 
0 0 0 0 0 0 0 0 0 
0 0 0 0 0 0 0 0 0 
0 0 0 0 0 0 0 0 0 
0 0 0 0 0 0 0 0 0 
0 0 0 0 0 0 0 0 0 
0 0 0 0 0 0 0 0 0 
0 0 0 0 0 0 0 0 0 
0 0 0 0 0 0 0 0 0 
0 0 0 0 0 0 0 0 0 
0 0 0 0 0 0 0 0 0 
0 0 0 0 0 0 0 0 0 
0 0 0 0 0 0 0 0 0 
0 0 0 0 0 0 0 0 0 
0 0 0 0 0 0 0 0 0 
0 0 0 0 0 0 0 0 0 
0 0 0 0 0 0 0 0 0 
0 0 0 0 0 0 0 0 0 
0 0 0 0 0 0 0 0 0 
0 0 0 0 0 0 0 0 0 
0 0 
NORMALS Normals float
0.144983 0.490812 0.859118 0.0259667 0.453279 0.89099 -0.0654769 0.498002 0.864701 
-0.127915 0.584313 0.801384 0.210063 0.298825 0.930901 0.17316 0.186818 0.967013 
0.0937815 0.137168 0.986098 0.0293632 0.144747 0.989033 0.0127244 0.197678 0.980184 
-0.0405348 0.252202 0.966825 -0.108751 0.28764 0.951544 -0.183544 0.388436 0.903011 
-0.289775 0.528445 0.797983 0.150963 0.353683 0.923103 0.113412 0.231984 0.966085 
0.077727 0.121537 0.989539 0.101407 -0.00295949 0.994841 0.0964112 -0.0543355 0.993857 
0.0852405 -0.012139 0.996286 0.0616758 0.0673779 0.995819 -0.0203985 0.0861297 0.996075 
-0.0728865 0.0700405 0.994878 -0.036908 0.146938 0.988457 -0.132953 0.26663 0.954585 
-0.290367 0.405609 0.8667 0.304979 0.241482 0.921235 0.133412 0.231032 0.963756 
0.0434235 0.125907 0.991091 -0.0298186 0.047825 0.998411 -0.00516935 -0.0648154 0.997884 
0.092884 0.0735054 0.99296 0.148543 0.0487162 0.987705 0.115941 0.0254165 0.992931 
-0.0411448 0.0401164 0.998348 -0.0393345 -0.017243 0.999077 0.0173449 0.0751901 0.997018 
-0.019244 0.104121 0.994378 -0.164453 0.223756 0.960671 -0.327082 0.322566 0.888239 
0.31993 0.101399 0.941999 0.0955641 0.10648 0.989712 -0.0694935 0.0436996 0.996625 
-0.117321 -0.0112353 0.99303 0.102372 -0.042282 0.993847 0.278706 0.23805 0.930406 
-0.0183611 -0.0513373 0.998513 0.044415 -0.119737 0.991812 -0.0678198 -0.0269508 0.997334 
-0.0277603 -0.0563948 0.998023 0.0891029 -0.00751665 0.995994 0.00481181 0.0237991 0.999705 
-0.104944 0.0274613 0.994099 -0.257348 0.049055 0.965073 -0.668209 -0.00697678 0.743941 
0.292278 -0.0542909 0.954791 0.0801776 -0.0746559 0.993981 -0.072677 -0.0668842 0.99511 
-0.113263 -0.0338489 0.992988 0.109486 0.0249574 0.993675 0.136545 -0.0584775 0.988906 
-0.173841 -0.0211089 0.984548 0.222029 0.0533948 0.973577 0.0141318 -0.0038205 0.999893 
-0.0114965 -0.0755374 0.997077 0.0969774 -0.122355 0.987737 0.0196812 -0.152988 0.988032 
-0.133982 -0.170043 0.976286 -0.335177 -0.207614 0.918995 0.277622 -0.233382 0.931911 
0.077645 -0.214751 0.973578 -0.0213994 -0.0862772 0.996041 -0.028724 -0.0361267 0.998934 
0.155604 0.0850051 0.984155 0.187725 -0.0772261 0.979181 0.067644 0.0582662 0.996007 
0.0668724 -0.00247517 0.997758 -0.199322 -0.116118 0.97303 -0.133714 -0.119784 0.983754 
0.0124998 -0.210785 0.977453 -0.0502927 -0.270357 0.961446 -0.158059 -0.332809 0.929654 
-0.31604 -0.399494 0.860537 0.223335 -0.252718 0.941411 0.0992271 -0.158036 0.982435 
0.0575649 -0.0457968 0.997291 0.142624 0.0071052 0.989752 0.0437551 -0.18652 0.981476 
-0.0894085 -0.298594 0.950183 -0.030333 -0.421506 0.906318 -0.0772263 -0.352882 0.932476 
-0.0977586 -0.206511 0.973548 -0.0606532 -0.268471 0.961376 -0.112432 -0.34054 0.933484 
0.205549 -0.300552 0.931353 0.132515 -0.1894 0.972917 0.0267489 -0.242676 0.969739 
-0.125614 -0.384725 0.914444 -0.133403 -0.36668 0.920733 0.00235542 -0.311041 0.950394 
0.00105069 -0.348506 0.937306 -0.0748037 -0.294698 0.952658 0.159298 0.606549 0.778924 
0.0205741 0.627671 0.778207 0.00404373 0.992218 0.12445 -0.0850805 0.643867 0.760392 
-0.145898 0.653449 0.742777 0.246463 0.387124 0.888477 0.356077 0.719232 0.596586 
0.243684 0.545662 0.801792 0.253234 0.524589 0.812822 0.260522 0.565593 0.782453 
-0.182997 0.647913 0.739406 -0.19014 0.639491 0.744915 -0.197048 0.672901 0.713005 
-0.258523 0.561984 0.78571 -0.364251 0.841105 0.399829 -0.317607 0.583512 0.747422 
0.186489 0.396978 0.898682 0.473962 0.670069 0.571286 0.248768 0.393929 0.884836 
0.236447 0.388933 0.890407 0.272302 0.438055 0.856714 -0.336554 0.578265 0.743196 
-0.359469 0.549781 0.754004 -0.51025 0.802023 0.31049 0.324868 0.415737 0.849484 
0.395241 0.365743 0.842625 0.490868 0.491793 0.719158 -0.405046 0.511596 0.757765 
-0.42014 0.499496 0.757619 -0.523958 0.61882 0.58526 0.372311 0.26035 0.890843 
0.680891 0.371855 0.630961 -0.584647 0.335372 0.738724 -0.673406 0.129492 0.727844 
-0.701627 0.3617 0.613915 0.504056 0.0925414 0.858699 0.629371 0.097936 0.770909 
-0.689138 -0.00258644 0.724625 -0.656599 -0.0742889 0.750572 0.905493 -0.00497288 0.424332 
0.48017 -0.0359241 0.87644 0.551192 -0.0287052 0.833885 -0.569152 -0.197583 0.79814 
-0.639745 -0.188874 0.745019 0.41518 -0.222465 0.88212 0.590594 -0.19944 0.781935 
0.295339 -0.309365 0.903918 -0.233648 -0.437457 0.868355 -0.365227 -0.404244 0.838568 
-0.336009 -0.424901 0.840569 -0.675122 -0.379715 0.632477 0.651117 -0.422491 0.630514 
0.262253 -0.291436 0.919939 0.328326 -0.368753 0.869611 0.235757 -0.287878 0.928195 
-0.104658 -0.329732 0.938256 -0.224263 -0.433033 0.873034 -0.157768 -0.386871 0.908537 
-0.237774 -0.44292 0.864457 -0.408971 -0.52848 0.743943 0.525394 -0.603373 0.599918 
0.220185 -0.312564 0.924025 0.292536 -0.383471 0.875998 0.216918 -0.332483 0.917824 
0.122302 -0.425704 0.896559 -0.0535977 -0.461838 0.885343 -0.118723 -0.473828 0.872578 
-0.117862 -0.375914 0.919128 0.00246515 -0.313587 0.949556 -0.00100851 -0.364179 0.931329 
-0.0813932 -0.302521 0.949661 -0.0759506 -0.299856 0.950956 -0.124812 -0.357182 0.925658 
-0.242963 -0.461314 0.853322 -0.353105 -0.538764 0.764886 0.473985 -0.716816 0.511383 
0.279001 -0.549489 0.78754 0.120005 -0.493756 0.86128 -0.0658446 -0.526608 0.847555 
-0.0960682 -0.537783 0.837592 -0.0417644 -0.45946 0.887216 -0.005913 -0.428646 0.903453 
-0.0215448 -0.466921 0.884036 -0.106165 -0.488972 0.865815 -0.22312 -0.552044 0.803408 
-0.324786 -0.6386 0.697642 -0.0123049 -0.813288 0.581731 0.00388037 0.993171 0.116606 
0.355159 0.899885 0.25312 0.278006 0.938681 0.203936 0.0150018 0.99294 0.117663 
0.148094 0.979671 0.135325 -0.00589423 0.993175 0.116488 0.0037177 0.994987 0.0999383 
-0.109209 0.986885 0.118878 -0.190547 0.974138 0.121436 -0.264645 0.957219 0.117026 
-0.364627 0.926187 0.0960493 0.528861 0.76699 0.363363 0.405585 0.858837 0.31289 
0.412511 0.853037 0.319628 -0.410197 0.9066 0.0990677 -0.395507 0.822147 -0.409448 
-0.446175 0.888552 0.106786 -0.528357 0.843228 0.0990199 0.589497 0.732202 0.341136 
0.63542 0.714981 0.291623 -0.555899 0.825832 0.0947551 -0.507258 0.79516 -0.332281 
-0.615869 0.782182 0.0943168 0.69207 0.660982 0.290072 0.765413 0.574787 0.289419 
-0.687343 0.721548 0.0832337 -0.774884 0.626544 0.0836442 0.839163 0.461843 0.28724 
-0.874034 0.467522 0.13224 0.881934 0.265762 0.389311 0.907603 0.00437493 0.419807 
-0.941569 0.195668 0.274156 0.906875 -0.00474171 0.421372 0.906426 -0.0139485 0.422133 
-0.91589 -0.199494 0.348349 0.835583 -0.288323 0.467623 -0.817437 -0.394725 0.419511 
-0.69193 -0.536924 0.482645 0.750752 -0.465155 0.469044 0.687406 -0.559831 0.462668 
-0.668078 -0.555489 0.495079 -0.521488 -0.621109 0.585041 -0.718486 -0.562203 0.409519 
0.588111 -0.654099 0.475688 0.571639 -0.662911 0.483506 -0.49802 -0.612042 0.614314 
-0.417352 -0.620758 0.663684 -0.609662 -0.673382 0.418173 0.500545 -0.73005 0.465276 
0.486214 -0.740681 0.463668 0.331924 -0.802034 0.496556 0.118216 -0.833482 0.539752 
-0.0320957 -0.781843 0.622649 0.00896494 -0.760715 0.649024 -0.00711211 -0.76612 0.642658 
-0.0776249 -0.759 0.646447 -0.134958 -0.751629 0.645631 -0.243805 -0.720371 0.649326 
-0.348652 -0.651709 0.673586 -0.332706 -0.65616 0.677319 -0.545848 -0.792011 0.273438 
0.0600226 -0.829274 0.555609 0.122778 -0.847758 0.515976 -0.0176033 -0.808479 0.588262 
-0.0109409 -0.818353 0.574612 -0.0287773 -0.817973 0.574536 0.0101104 -0.808887 0.587877 
-0.00735717 -0.786682 0.617314 -0.0786679 -0.82245 0.563371 -0.152653 -0.893727 0.421841 
-0.282939 -0.943933 0.170108 0.288366 0.923639 -0.25246 0.198139 0.913976 -0.354102 
0.11348 0.908458 -0.402277 -0.00243565 0.915737 -0.40177 -0.113093 0.9067 -0.406332 
-0.191709 0.886458 -0.421237 -0.256629 0.869362 -0.422316 0.529142 0.826624 -0.191577 
0.388774 0.894151 -0.222145 0.396542 0.890947 -0.221288 0.222561 0.809479 -0.543332 
0.0948739 0.705892 -0.701937 0.0704314 0.634721 -0.769525 -0.000170909 0.580845 -0.814014 
-0.0921418 0.623918 -0.776038 -0.15283 0.689462 -0.708015 -0.384628 0.802294 -0.456493 
-0.253218 0.749412 -0.61177 -0.390011 0.79678 -0.461555 -0.428634 0.77786 -0.459572 
0.614813 0.761384 -0.205667 0.661839 0.720875 -0.205692 0.46257 0.666694 -0.584421 
-0.281175 0.486399 -0.827258 -0.460965 0.73591 -0.495931 -0.365324 0.585606 -0.723605 
-0.466741 0.732298 -0.495876 -0.545334 0.710067 -0.445439 0.744757 0.632638 -0.212382 
0.771938 0.592233 -0.231024 0.529094 0.520103 -0.670486 -0.312172 0.535424 -0.784774 
-0.580832 0.681148 -0.445726 -0.52611 0.655949 -0.541238 -0.722226 0.568641 -0.393748 
0.823077 0.5269 -0.211945 0.659801 0.525823 -0.536818 -0.763776 0.527556 -0.371928 
-0.692919 0.521932 -0.497444 0.930072 0.316432 -0.186647 0.967409 0.189294 -0.168187 
-0.890795 0.292986 -0.347338 -0.589274 0.345813 -0.730185 0.991862 0.0427407 -0.119932 
0.971333 -0.203539 -0.12282 0.963112 0.0571325 -0.262967 -0.96955 -0.0697371 -0.234753 
0.96109 -0.249808 -0.117908 -0.951444 -0.300047 -0.0687426 0.843847 -0.529481 -0.0870143 
0.75297 -0.650175 -0.101533 -0.846384 -0.529057 -0.0610924 -0.813349 -0.580728 -0.0348948 
-0.812998 -0.494978 -0.306644 0.722091 -0.686705 -0.0837898 0.638528 -0.766663 -0.0671535 
-0.712977 -0.69691 0.0773352 -0.678419 -0.728114 0.0979614 0.613156 -0.786385 -0.0750874 
0.55207 -0.831252 -0.0651037 0.434484 -0.660493 -0.61235 0.400634 -0.914339 -0.0589585 
-0.396963 -0.903768 0.160073 -0.578454 -0.802856 0.144267 -0.555793 -0.81814 0.147449 
0.391682 -0.918352 -0.0566935 0.205666 -0.978332 -0.0238186 0.225085 -0.848621 -0.478726 
0.0467384 -0.998319 0.0342839 -0.0119699 -0.997521 0.0693485 0.00208242 -0.998533 0.0541002 
-0.0106905 -0.999468 0.0308109 -0.0682784 -0.996313 0.0519534 -0.162278 -0.982215 0.0944485 
-0.297111 -0.947645 0.117022 -0.281587 -0.953072 0.111189 -0.268538 -0.96169 -0.0551398 
0.282633 0.625483 -0.727248 0.151161 0.631666 -0.760361 0.0570048 0.590218 -0.805229 
0.0631293 0.573041 -0.817091 0.000204229 0.564544 -0.825403 -0.0864793 0.567936 -0.818517 
-0.135702 0.556603 -0.81962 -0.221774 0.488896 -0.843681 0.363332 0.602917 -0.710268 
0.406547 0.581125 -0.704991 0.246288 0.55182 -0.796767 0.0786214 0.430382 -0.899216 
0.00415712 0.39823 -0.917276 0.00884065 0.288364 -0.95748 0.00814883 0.273424 -0.961859 
-0.0380877 0.328307 -0.943803 -0.113393 0.401219 -0.908937 -0.252641 0.436024 -0.863745 
-0.214542 0.397594 -0.892127 -0.245388 0.417421 -0.874954 -0.195113 0.421722 -0.885484 
0.520094 0.514717 -0.681592 0.523082 0.513532 -0.680199 0.300573 0.41414 -0.859153 
0.108327 0.312573 -0.943697 0.0405617 0.231715 -0.971938 -0.0618349 0.189576 -0.979917 
-0.0768445 0.128783 -0.988691 0.0289413 0.10243 -0.994319 0.0477116 0.214418 -0.975576 
-0.0828257 0.272052 -0.958711 -0.198653 0.23546 -0.951365 -0.179955 0.328294 -0.927275 
-0.233678 0.467368 -0.852621 -0.166885 0.411716 -0.895902 -0.282313 0.49146 -0.823873 
-0.374205 0.46049 -0.804934 0.553754 0.477945 -0.681854 0.611996 0.425357 -0.666733 
0.427737 0.371995 -0.823809 0.201844 0.249488 -0.947109 0.0484526 0.196067 -0.979393 
-0.0455342 0.140382 -0.98905 -0.102207 0.0567116 -0.993145 -0.0904704 0.11798 -0.988886 
0.0959073 0.246486 -0.964389 0.155056 0.246755 -0.956593 -0.10049 0.237387 -0.966203 
-0.160253 0.200287 -0.966542 -0.0873677 0.298829 -0.950299 -0.119776 0.355757 -0.926872 
-0.210438 0.393032 -0.895121 -0.379122 0.458475 -0.803783 -0.369619 0.456923 -0.809076 
0.725177 0.283844 -0.627337 0.574229 0.28267 -0.768348 0.320332 0.195851 -0.926839 
-0.0833373 0.0467278 -0.995425 0.130402 0.247356 -0.96011 -0.120099 0.178747 -0.976538 
-0.0144256 0.25946 -0.965646 -0.0720384 0.302959 -0.950277 -0.169926 0.321425 -0.931564 
-0.559566 0.344452 -0.753816 -0.336163 0.350185 -0.87428 -0.591746 0.304971 -0.74621 
0.750319 0.078858 -0.656355 0.518123 0.0742341 -0.852078 0.273189 0.056231 -0.960315 
0.0453868 0.00202038 -0.998967 0.0345847 -0.0272899 -0.999029 -0.375054 0.121083 -0.919061 
-0.705683 0.0968744 -0.701874 -0.631429 0.108214 -0.767846 0.77442 -0.207004 -0.597849 
0.560362 -0.196432 -0.804617 0.305283 -0.0949876 -0.947513 0.00740428 -0.0202586 -0.999767 
-0.407046 -0.0378807 -0.912622 -0.770484 -0.190285 -0.608396 -0.746424 -0.318995 -0.584032 
-0.685315 -0.16907 -0.70835 0.634185 -0.477256 -0.608306 0.626397 -0.489132 -0.60694 
0.611966 -0.469505 -0.636446 0.369535 -0.352827 -0.859626 0.0761625 -0.250719 -0.965059 
-0.0105042 -0.217538 -0.975995 -0.00717801 -0.139266 -0.990229 0.040163 0.00811565 -0.99916 
0.1045 -0.0253061 -0.994203 -0.727401 -0.416248 -0.545551 -0.506572 -0.253791 -0.823999 
0.51899 -0.581044 -0.626927 0.504807 -0.607469 -0.613311 0.472712 -0.543693 -0.693499 
0.410916 -0.633924 -0.655201 0.251367 -0.432212 -0.86603 0.0784964 -0.257627 -0.963051 
0.0986497 -0.142915 -0.984806 0.124334 -0.0661007 -0.990036 -0.014083 -0.152482 -0.988206 
0.0751211 -0.158098 -0.984562 -0.422823 -0.384527 -0.820585 -0.677559 -0.585505 -0.445082 
-0.668081 -0.595561 -0.446066 -0.653988 -0.58085 -0.484678 0.40987 -0.629413 -0.660186 
0.359084 -0.625005 -0.693128 0.307479 -0.482733 -0.820016 0.225894 -0.745832 -0.626663 
0.182292 -0.341804 -0.921922 0.104381 -0.327153 -0.939189 0.0130958 -0.357903 -0.933667 
-0.0261242 -0.359655 -0.93272 0.0276759 -0.378384 -0.925235 0.0604893 -0.425469 -0.902949 
0.0301048 -0.440405 -0.897295 -0.220141 -0.895887 -0.385907 -0.11785 -0.470434 -0.87453 
-0.37438 -0.829342 -0.414768 -0.320156 -0.631346 -0.70633 -0.545475 -0.746325 -0.381388 
-0.543782 -0.747637 -0.381234 -0.54321 -0.745056 -0.387058 0.166343 -0.787643 -0.593252 
0.108822 -0.805817 -0.582079 0.10703 -0.766857 -0.632831 -0.00861792 -0.8398 -0.542827 
-0.00738125 -0.790568 -0.61233 -0.0339456 -0.819702 -0.571783 -0.035286 -0.790079 -0.611989 
-0.00959143 -0.807902 -0.589238 -0.00791742 -0.787791 -0.615891 -0.000151243 -0.836226 -0.548385 
0.00660749 -0.816023 -0.577981 -0.133842 -0.8922 -0.431352 -0.0760286 -0.880376 -0.468143 
-0.0657407 -0.859711 -0.506533 0.153019 0.187674 -0.970239 0.0181906 0.164382 -0.986229 
-0.0976966 0.0918377 -0.99097 0.133913 0.235558 -0.96259 0.10069 0.162037 -0.981634 
-0.108068 0.20543 -0.972687 0.18055 0.178424 -0.967247 0.148789 0.177015 -0.972897 
-0.0155433 0.128866 -0.99154 -0.103649 0.0790201 -0.99147 -0.107696 0.0846877 -0.99057 
0.14162 0.237543 -0.960998 0.114488 0.192595 -0.974577 0.131579 0.221551 -0.966231 
0.0297534 -0.0167642 -0.999417 0.0219889 0.0345398 -0.999161 -0.124097 0.149475 -0.980947 
-0.125192 0.0932604 -0.98774 -0.0447311 0.137801 -0.989449 0.00867225 0.22525 -0.974262 
-0.0590092 0.249438 -0.966591 -0.139925 0.222903 -0.964746 0.229082 0.0554032 -0.971829 
0.104538 0.0524654 -0.993136 -0.0401591 0.0162122 -0.999062 -0.0484539 0.00754692 -0.998797 
-0.12929 0.0140787 -0.991507 0.0605312 0.0337015 -0.997597 0.101693 0.103367 -0.989431 
-0.00578815 -0.00981788 -0.999935 -0.113571 0.042197 -0.992633 0.0344656 -0.0269277 -0.999043 
0.01397 -0.00547346 -0.999887 0.0375505 -0.0275975 -0.998914 0.00504573 0.113124 -0.993568 
0.0453085 0.171226 -0.98419 -0.0442003 0.185883 -0.981577 -0.205484 0.178204 -0.962299 
-0.138635 0.200483 -0.969839 0.233109 -0.0984251 -0.967457 0.0832387 -0.198895 -0.976479 
0.111719 -0.112401 -0.987363 -0.0333959 -0.180069 -0.983087 -0.054665 -0.12899 -0.990138 
-0.0924405 -0.0678592 -0.993403 -0.0932877 -0.100143 -0.99059 -0.127685 -0.0857852 -0.988098 
0.114039 -0.0722261 -0.990847 0.123096 -0.0467182 -0.991295 0.172603 -0.104551 -0.979427 
0.000444494 -0.0108121 -0.999941 -0.0417985 0.056589 -0.997522 0.023554 0.0289302 -0.999304 
0.0749743 0.090494 -0.993071 0.0570581 0.0661916 -0.996174 -0.050082 0.0359244 -0.998099 
-0.302221 -0.00727218 -0.95321 -0.217446 0.0142677 -0.975968 0.0942009 -0.0464572 -0.994469 
0.0704125 -0.0556566 -0.995964 0.00243201 -0.142534 -0.989787 0.0579432 -0.109748 -0.992269 
0.0732982 -0.14834 -0.986216 0.0515038 -0.050186 -0.997411 0.0711817 0.00891636 -0.997424 
0.0437528 0.0267616 -0.998684 -0.00622333 -0.00869461 -0.999943 -0.0944977 -0.0652056 -0.993387 
-0.286526 -0.206016 -0.93566 -0.257936 -0.238002 -0.936389 -0.213809 -0.195957 -0.95702 
0.0573288 -0.0747142 -0.995556 0.0189671 -0.110188 -0.99373 0.0421917 -0.102298 -0.993859 
0.0454309 -0.0764164 -0.99604 0.0771205 -0.15893 -0.984273 0.0856723 -0.274885 -0.957653 
0.102059 -0.167136 -0.980637 0.0439181 -0.332683 -0.942016 0.0557919 -0.159086 -0.985687 
-0.0863897 -0.376781 -0.922265 -0.0346158 -0.182508 -0.982595 -0.290278 -0.293715 -0.910753 
-0.235193 -0.350533 -0.906538 -0.209094 -0.249412 -0.945554 
