# vtk DataFile Version 4.2
vtk output
ASCII
DATASET POLYDATA
POINTS 512 float
-3.01877 -5.13168 -22.087 -10.6566 -43.321 -15.5237 -3.01877 -43.321 -16.511 
4.6191 -43.321 -16.1591 12.257 -43.321 -14.8055 -18.2945 -35.6832 -17.5786 
-10.6566 -35.6832 -19.1639 -3.01877 -35.6832 -19.8543 4.6191 -35.6832 -19.5909 
12.257 -35.6832 -18.6945 19.8948 -35.6832 -17.1492 -25.9324 -28.0453 -16.9959 
-18.2945 -28.0453 -19.0346 -10.6566 -28.0453 -20.0959 -3.01877 -28.0453 -19.7449 
4.6191 -28.0453 -19.7868 12.257 -28.0453 -20.0279 19.8948 -28.0453 -19.3872 
27.5327 -28.0453 -17.6173 -33.5703 -20.4074 -15.8454 -25.9324 -20.4074 -17.9989 
-18.2945 -20.4074 -18.7977 -10.6566 -20.4074 -19.3231 -3.01877 -20.4074 -19.238 
4.6191 -20.4074 -19.4462 12.257 -20.4074 -20.2137 19.8948 -20.4074 -20.0553 
27.5327 -20.4074 -19.5073 35.1706 -20.4074 -16.8128 -33.5703 -12.7696 -16.6102 
-25.9324 -12.7696 -17.7819 -18.2945 -12.7696 -18.0023 -10.6566 -12.7696 -18.5284 
-3.01877 -5.36223 -22.0214 -3.01877 -12.7696 -19.8036 4.6191 -12.7696 -19.7755 
12.257 -12.7696 -20.3841 19.8948 -12.7696 -20.7305 27.5327 -12.7696 -20.9714 
35.1706 -12.7696 -19.2441 42.8085 -12.7696 -14.5079 -41.2081 -5.13168 -14.6974 
-33.5703 -5.13168 -17.8073 -25.9324 -5.13168 -18.0232 -18.2945 -5.13168 -17.2534 
-3.23018 -5.13168 -22.0214 -10.6566 -5.13168 -19.2965 -2.2593 -5.13168 -22.0214 
-3.01877 -4.318 -22.0214 4.6191 -5.13168 -21.4371 12.257 -5.13168 -21.9237 
19.8948 -5.13168 -21.5211 27.5327 -5.13168 -21.1486 35.1706 -5.13168 -19.8966 
42.8085 -5.13168 -16.2257 -41.2081 2.50619 -15.8124 -33.5703 2.50619 -18.7925 
-25.9324 2.50619 -19.2384 -18.2945 2.50619 -18.767 -10.6566 2.50619 -19.4405 
-3.01877 2.50619 -21.4679 4.6191 2.50619 -20.6774 12.257 2.50619 -21.4224 
19.8948 2.50619 -21.3424 27.5327 2.50619 -21.2411 35.1706 2.50619 -19.9792 
42.8085 2.50619 -16.3438 -41.2081 10.1441 -16.3115 -33.5703 10.1441 -19.7597 
-25.9324 10.1441 -20.6483 -18.2945 10.1441 -20.5508 -10.6566 10.1441 -20.3301 
-3.01877 10.1441 -21.8281 4.6191 10.1441 -21.3479 12.257 10.1441 -20.8833 
19.8948 10.1441 -21.2792 27.5327 10.1441 -21.0402 35.1706 10.1441 -19.9335 
42.8085 10.1441 -15.442 -41.2081 17.7819 -15.6405 -33.5703 17.7819 -20.2528 
-25.9324 17.7819 -21.9473 -18.2945 17.7819 -21.8792 -10.6566 17.7819 -21.2132 
-3.01877 17.7819 -21.0004 4.6191 17.7819 -21.234 12.257 17.7819 -21.6301 
19.8948 17.7819 -21.9284 27.5327 17.7819 -21.1855 35.1706 17.7819 -18.8483 
-33.5703 25.4198 -18.9246 -25.9324 25.4198 -21.1682 -18.2945 25.4198 -21.7956 
-10.6566 25.4198 -21.6276 -3.01877 25.4198 -21.2877 4.6191 25.4198 -21.4761 
12.257 25.4198 -21.7337 19.8948 25.4198 -22.0156 27.5327 25.4198 -20.7873 
35.1706 25.4198 -16.037 -33.5703 33.0577 -15.7803 -25.9324 33.0577 -19.7273 
-18.2945 33.0577 -20.7171 -10.6566 33.0577 -20.7436 -3.01877 33.0577 -20.559 
4.6191 33.0577 -20.6408 12.257 33.0577 -20.7041 19.8948 33.0577 -20.283 
27.5327 33.0577 -16.8343 -25.9324 40.6955 -15.4625 -18.2945 40.6955 -17.3514 
-10.6566 40.6955 -17.875 -3.01877 40.6955 -17.6909 4.6191 40.6955 -17.5799 
12.257 40.6955 -17.0012 19.8948 40.6955 -15.2336 -10.6566 -44.5418 -14.3835 
-3.01877 -45.6621 -14.3835 4.6191 -45.2793 -14.3835 12.257 -43.7554 -14.3835 
-13.845 -43.321 -14.3835 -18.2945 -41.1846 -14.3835 -18.2945 -43.321 -11.2894 
13.4157 -43.321 -14.3835 19.8948 -40.2205 -14.3835 19.8948 -43.321 -10.4024 
-24.8324 -35.6832 -14.3835 -25.9324 -34.3166 -14.3835 -25.9324 -35.6832 -13.2645 
25.982 -35.6832 -14.3835 27.5327 -34.3125 -14.3835 27.5327 -35.6832 -12.6307 
-31.1534 -28.0453 -14.3835 -33.5703 -24.7143 -14.3835 -33.5703 -28.0453 -12.5116 
33.3418 -28.0453 -14.3835 35.1706 -25.6992 -14.3835 35.1706 -28.0453 -10.5 
-36.5931 -20.4074 -14.3835 -41.2081 -20.4074 -10.5466 38.4232 -20.4074 -14.3835 
42.8085 -13.0086 -14.3835 -38.9566 -12.7696 -14.3835 -41.2081 -6.82697 -14.3835 
-41.2081 -12.7696 -13.2063 42.9211 -12.7696 -14.3835 -41.5961 -5.13168 -14.3835 
44.7413 -5.13168 -14.3835 -43.0657 2.50619 -14.3835 44.9799 2.50619 -14.3835 
-43.4971 10.1441 -14.3835 43.8419 10.1441 -14.3835 42.8085 14.1488 -14.3835 
-42.3015 17.7819 -14.3835 -41.2081 20.8743 -14.3835 41.6707 17.7819 -14.3835 
42.8085 17.7819 -12.7123 -39.3395 25.4198 -14.3835 -41.2081 25.4198 -10.8101 
37.1803 25.4198 -14.3835 35.1706 28.0279 -14.3835 -34.9716 33.0577 -14.3835 
-33.5703 34.7395 -14.3835 30.843 33.0577 -14.3835 27.5327 35.9437 -14.3835 
-27.3081 40.6955 -14.3835 -25.9324 41.5985 -14.3835 -18.2945 43.923 -14.3835 
-10.6566 44.4729 -14.3835 -3.01877 44.255 -14.3835 4.6191 44.0732 -14.3835 
12.257 43.3783 -14.3835 21.0158 40.6955 -14.3835 19.8948 41.3254 -14.3835 
-18.2945 -45.5796 -6.74564 -10.6566 -49.0504 -6.74564 -3.01877 -50.4751 -6.74564 
4.6191 -50.2838 -6.74564 12.257 -48.7096 -6.74564 19.8948 -45.1577 -6.74564 
-21.5658 -43.321 -6.74564 -25.9324 -39.9821 -6.74564 22.4673 -43.321 -6.74564 
27.5327 -38.8072 -6.74564 -30.6834 -35.6832 -6.74564 -33.5703 -33.0018 -6.74564 
30.3915 -35.6832 -6.74564 35.1706 -29.5627 -6.74564 -38.548 -28.0453 -6.74564 
-41.2081 -24.5545 -6.74564 36.3072 -28.0453 -6.74564 35.1706 -28.0453 -2.92275 
-43.8999 -20.4074 -6.74564 41.7739 -20.4074 -6.74564 42.8085 -18.7541 -6.74564 
-46.6121 -12.7696 -6.74564 46.145 -12.7696 -6.74564 -47.8536 -5.13168 -6.74564 
-48.846 -5.13168 0.727105 48.6548 -5.13168 -6.74564 -48.3168 2.50619 -6.74564 
-48.846 2.50619 -0.315102 49.2349 2.50619 -6.74564 -47.9816 10.1441 -6.74564 
48.2892 10.1441 -6.74564 -45.9751 17.7819 -6.74564 45.8145 17.7819 -6.74564 
42.8085 22.8851 -6.74564 -42.9144 25.4198 -6.74564 -41.2081 28.6057 -6.74564 
41.1516 25.4198 -6.74564 35.1706 32.3731 -6.74564 -38.4576 33.0577 -6.74564 
-33.5703 38.6821 -6.74564 34.4873 33.0577 -6.74564 27.5327 39.0953 -6.74564 
-31.3219 40.6955 -6.74564 -25.9324 44.0247 -6.74564 -18.2945 46.4606 -6.74564 
-10.6566 46.6632 -6.74564 -3.01877 46.494 -6.74564 4.6191 46.498 -6.74564 
12.257 45.9275 -6.74564 25.29 40.6955 -6.74564 19.8948 43.7779 -6.74564 
-18.2945 -44.6361 0.892232 -10.6566 -48.8719 0.892232 -3.01877 -50.7072 0.892232 
4.6191 -50.6257 0.892232 12.257 -48.9413 0.892232 19.8948 -44.9003 0.892232 
-20.0492 -43.321 0.892232 -25.9324 -38.6251 0.892232 -18.2945 -43.321 4.00674 
21.8693 -43.321 0.892232 19.8948 -43.321 5.09221 27.5327 -37.0438 0.892232 
-29.2821 -35.6832 0.892232 -33.5703 -32.182 0.892232 -25.9324 -35.6832 7.31469 
28.7327 -35.6832 0.892232 27.5327 -35.6832 4.01902 -38.822 -28.0453 0.892232 
-41.2081 -25.5285 0.892232 34.0662 -28.0453 0.892232 35.1706 -26.4925 0.892232 
-44.7585 -20.4074 0.892232 39.7701 -20.4074 0.892232 42.8085 -16.4337 0.892232 
-47.8582 -12.7696 0.892232 -48.846 -5.29164 0.892232 45.1746 -12.7696 0.892232 
42.8085 -12.7696 8.05876 -48.8661 -5.13168 0.892232 -48.846 -5.13168 0.971419 
48.4962 -5.13168 0.892232 -48.9404 2.50619 0.892232 -48.846 3.69427 0.892232 
-48.846 2.50619 1.24948 49.6165 2.50619 0.892232 -48.3166 10.1441 0.892232 
48.9629 10.1441 0.892232 -46.4247 17.7819 0.892232 46.4781 17.7819 0.892232 
42.8085 23.4786 0.892232 -43.0582 25.4198 0.892232 -41.2081 28.4589 0.892232 
-41.2081 25.4198 5.87458 41.3652 25.4198 0.892232 35.1706 31.9071 0.892232 
-37.8829 33.0577 0.892232 -33.5703 37.309 0.892232 33.9001 33.0577 0.892232 
27.5327 38.357 0.892232 -28.6823 40.6955 0.892232 -25.9324 42.3271 0.892232 
-25.9324 40.6955 3.93067 -18.2945 44.3528 0.892232 -18.2945 40.6955 6.21409 
-10.6566 44.3803 0.892232 -10.6566 40.6955 6.47681 -3.01877 44.4698 0.892232 
-3.01877 40.6955 7.00936 4.6191 44.7991 0.892232 12.257 44.8281 0.892232 
24.0653 40.6955 0.892232 19.8948 43.0966 0.892232 19.8948 40.6955 7.71812 
-10.6566 -46.1558 8.5301 -3.01877 -48.1886 8.5301 4.6191 -48.2557 8.5301 
12.257 -46.1796 8.5301 -15.3916 -43.321 8.5301 -18.2945 -41.2896 8.5301 
-10.6566 -43.321 12.415 -3.01877 -43.321 14.8231 4.6191 -43.321 14.6064 
17.4689 -43.321 8.5301 12.257 -43.321 12.2794 19.8948 -41.4994 8.5301 
-33.5703 -29.3186 8.5301 -25.2433 -35.6832 8.5301 -25.9324 -35.1039 8.5301 
-18.2945 -35.6832 15.3405 25.5812 -35.6832 8.5301 19.8948 -35.6832 14.129 
27.5327 -33.0154 8.5301 -35.1615 -28.0453 8.5301 -41.2081 -21.9657 8.5301 
-33.5703 -28.0453 10.2557 30.4528 -28.0453 8.5301 27.5327 -28.0453 12.7027 
35.1706 -21.7264 8.5301 -42.3253 -20.4074 8.5301 -41.2081 -20.4074 10.1194 
36.2177 -20.4074 8.5301 35.1706 -20.4074 10.111 -45.6074 -12.7696 8.5301 
-41.2081 -12.7696 14.3493 42.6021 -12.7696 8.5301 42.8085 -12.4162 8.5301 
-46.6757 -5.13168 8.5301 -41.2081 -5.13168 15.4431 46.2957 -5.13168 8.5301 
42.8085 -5.13168 14.5019 -46.6401 2.50619 8.5301 -41.2081 2.50619 15.118 
47.8966 2.50619 8.5301 -45.8289 10.1441 8.5301 -41.2081 10.1441 14.0061 
47.5542 10.1441 8.5301 -43.9129 17.7819 8.5301 -41.2081 23.3722 8.5301 
-41.2081 17.7819 11.9363 44.9084 17.7819 8.5301 42.8085 21.0484 8.5301 
42.8085 17.7819 12.6177 -39.8934 25.4198 8.5301 -33.5703 25.4198 14.0166 
39.6737 25.4198 8.5301 35.1706 29.978 8.5301 35.1706 25.4198 15.2993 
-33.6581 33.0577 8.5301 -33.5703 33.1361 8.5301 -33.5703 33.0577 8.61781 
-25.9324 37.4664 8.5301 -25.9324 33.0577 12.4199 -18.2945 38.9565 8.5301 
-18.2945 33.0577 13.9134 -10.6566 39.1101 8.5301 -10.6566 33.0577 14.0008 
-3.01877 39.5844 8.5301 -3.01877 33.0577 14.2689 4.6191 33.0577 15.8976 
19.8948 40.3668 8.5301 31.5132 33.0577 8.5301 27.5327 36.1373 8.5301 
27.5327 33.0577 13.3114 2.2012 40.6955 8.5301 4.6191 41.1204 8.5301 
4.6191 40.6955 9.09634 18.2665 40.6955 8.5301 12.257 41.7843 8.5301 
12.257 40.6955 10.1004 -10.6566 -39.3623 16.168 -3.01877 -41.6588 16.168 
4.6191 -41.2796 16.168 12.257 -38.5142 16.168 -25.9324 -28.9716 16.168 
-16.8714 -35.6832 16.168 -18.2945 -34.7535 16.168 -10.6566 -35.6832 18.5647 
-3.01877 -35.6832 19.5724 4.6191 -35.6832 19.2544 16.3068 -35.6832 16.168 
12.257 -35.6832 17.9186 19.8948 -32.948 16.168 -27.1282 -28.0453 16.168 
-33.5703 -22.5602 16.168 -25.9324 -28.0453 16.904 -18.2945 -28.0453 20.1647 
-10.6566 -28.0453 21.523 -3.01877 -28.0453 21.7154 4.6191 -28.0453 21.4258 
[...]
POINT_DATA 512
SCALARS ImageScalars float
LOOKUP_TABLE default
0 0 0 0 0 0 0 0 0 
0 0 0 0 0 0 0 0 0 
0 0 0 0 0 0 0 0 0 
0 0 0 0 0 0 0 0 0 
0 0 0 0 0 0 0 0 0 
0 0 0 0 0 0 0 0 0 
0 0 0 0 0 0 0 0 0 
0 0 0 0 0 0 0 0 0 
0 0 0 0 0 0 0 0 0 
0 0 0 0 0 0 0 0 0 
0 0 0 0 0 0 0 0 0 
0 0 0 0 0 0 0 0 0 
0 0 0 0 0 0 0 0 0 
0 0 0 0 0 0 0 0 0 
0 0 0 0 0 0 0 0 0 
0 0 0 0 0 0 0 0 0 
0 0 0 0 0 0 0 0 0 
0 0 0 0 0 0 0 0 0 
0 0 0 0 0 0 0 0 0 
0 0 0 0 0 0 0 0 0 
0 0 0 0 0 0 0 0 0 
0 0 0 0 0 0 0 0 0 
0 0 0 0 0 0 0 0 0 
0 0 0 0 0 0 0 0 0 
0 0 0 0 0 0 0 0 0 
0 0 0 0 0 0 0 0 0 
0 0 0 0 0 0 0 0 0 
0 0 0 0 0 0 0 0 0 
0 0 0 0 0 0 0 0 0 
0 0 0 0 0 0 0 0 0 
0 0 0 0 0 0 0 0 0 
0 0 0 0 0 0 0 0 0 
0 0 0 0 0 0 0 0 0 
0 0 0 0 0 0 0 0 0 
0 0 0 0 0 0 0 0 0 
0 0 0 0 0 0 0 0 0 
0 0 0 0 0 0 0 0 0 
0 0 0 0 0 0 0 0 0 
0 0 0 0 0 0 0 0 0 
0 0 0 0 0 0 0 0 0 
0 0 0 0 0 0 0 0 0 
0 0 0 0 0 0 0 0 0 
0 0 0 0 0 0 0 0 0 
0 0 0 0 0 0 0 0 0 
0 0 0 0 0 0 0 0 0 
0 0 0 0 0 0 0 0 0 
0 0 0 0 0 0 0 0 0 
0 0 0 0 0 0 0 0 0 
0 0 0 0 0 0 0 0 0 
0 0 0 0 0 0 0 0 0 
0 0 0 0 0 0 0 0 0 
0 0 0 0 0 0 0 0 0 
0 0 0 0 0 0 0 0 0 
0 0 0 0 0 0 0 0 0 
0 0 0 0 0 0 0 0 0 
0 0 0 0 0 0 0 0 0 
0 0 0 0 0 0 0 0 
NORMALS Normals float
0.110773 0.101124 0.988688 0.201662 0.614974 0.762325 0.0325404 0.572297 0.819401 
-0.0886479 0.579897 0.809852 -0.222552 0.642074 0.733629 0.290767 0.347588 0.891424 
0.148288 0.251507 0.956428 0.0254035 0.16377 0.986171 -0.0686964 0.186147 0.980117 
-0.154163 0.288128 0.945101 -0.277092 0.423335 0.862559 0.351403 0.232939 0.906783 
0.184997 0.0744173 0.979917 0.0512506 0.00762547 0.998657 -0.0197222 -0.0395953 0.999021 
0.0182061 -0.0106781 0.999777 -0.0277702 0.0921426 0.995359 -0.14543 0.175932 0.973601 
-0.359698 0.350679 0.864663 0.372232 0.191998 0.908064 0.18559 0.044663 0.981612 
0.0865345 -0.0662381 0.994044 0.029437 -0.103513 0.994192 0.00838401 0.00134723 0.999964 
0.0636676 -0.000934788 0.997971 0.0401959 0.0231415 0.998924 -0.0467985 0.0886937 0.994959 
-0.187252 0.203418 0.961019 -0.515388 0.338665 0.787199 0.25684 0.121866 0.95874 
0.0868419 0.00150964 0.996221 0.0489116 -0.102162 0.993565 0.114621 -0.0072961 0.993383 
0.110598 0.104202 0.988388 0.0841051 0.190207 0.978135 0.0386728 0.133169 0.990339 
0.0621706 0.110261 0.991956 0.0374862 0.0956843 0.994706 -0.080048 0.108467 0.990872 
-0.350398 0.187639 0.917612 -0.725319 0.306323 0.616505 0.540519 0.147888 0.828232 
0.180156 0.142918 0.9732 -0.0374172 0.0945653 0.994815 0.0589426 0.0502119 0.996998 
0.117528 0.100953 0.987925 0.34166 0.0639298 0.937647 0.0991957 0.0971382 0.990315 
0.106686 0.0888931 0.990311 -0.0100637 0.0582655 0.99825 0.00543587 0.0678354 0.997682 
-0.0499312 0.0397118 0.997963 -0.105575 0.0171061 0.994264 -0.277293 0.0416805 0.959881 
-0.645826 0.0955015 0.757488 0.541541 0.0882391 0.836031 0.199352 0.121823 0.972326 
-0.000164959 0.173177 0.984891 0.00977644 0.217629 0.975982 0.184615 0.0699138 0.980321 
0.0698736 -0.0167859 0.997415 -0.00198638 -0.00675414 0.999975 0.0434839 -0.0676541 0.996761 
-0.0118864 -0.0159759 0.999802 -0.0879759 -0.00705029 0.996098 -0.279706 0.00269086 0.960082 
-0.6148 -0.0389317 0.787722 0.594536 -0.00212144 0.804066 0.245715 0.092346 0.964933 
0.0525826 0.173377 0.983451 -0.0204604 0.195031 0.980584 0.0808725 0.109286 0.990715 
0.0673672 -0.0316938 0.997225 -0.0612991 0.036685 0.997445 -0.00384521 0.0138375 0.999897 
0.0103909 0.0380726 0.999221 -0.0795815 -0.00405253 0.99682 -0.29587 -0.0689962 0.952733 
-0.670783 -0.155413 0.725187 0.712964 -0.190769 0.674751 0.326211 -0.0454147 0.944205 
0.090991 0.0300795 0.995397 -0.0475539 0.0824516 0.99546 -0.0555993 0.0854616 0.994789 
0.00176889 -0.0335511 0.999435 0.0413549 0.00848316 0.999108 0.0450582 0.0555281 0.99744 
-0.0267417 0.0480602 0.998486 -0.193143 -0.0125406 0.98109 -0.421615 -0.215998 0.880673 
0.455414 -0.230604 0.859895 0.170527 -0.13419 0.976173 0.0307165 -0.0737638 0.996803 
-0.0338318 -0.029368 0.998996 -0.0100258 -0.0273736 0.999575 0.029161 -0.0371043 0.998886 
0.0344474 -0.062419 0.997455 -0.0512401 -0.0929055 0.994356 -0.321068 -0.227968 0.919209 
-0.59507 -0.418762 0.685952 0.615369 -0.493307 0.614791 0.262778 -0.315001 0.911988 
0.0614362 -0.256176 0.964676 -0.0101144 -0.224525 0.974416 -0.00652228 -0.212685 0.977099 
0.0095138 -0.227128 0.973818 -0.0186149 -0.2599 0.965456 -0.213569 -0.331617 0.918922 
-0.478145 -0.548383 0.686041 0.393809 -0.708848 0.585192 0.128527 -0.61797 0.775625 
0.0202786 -0.581428 0.813345 -0.0185665 -0.588952 0.807954 -0.0407261 -0.604383 0.795652 
-0.116134 -0.662689 0.739835 -0.357966 -0.754045 0.550706 0.209156 0.673392 0.709082 
0.0366381 0.681637 0.730772 -0.0965646 0.668485 0.73743 -0.225654 0.661678 0.715026 
0.288125 0.668712 0.685426 0.380464 0.624077 0.682477 0.459005 0.77595 0.432685 
-0.252179 0.659254 0.708371 -0.367226 0.609505 0.702602 -0.47529 0.778067 0.410745 
0.517528 0.50414 0.691381 0.522501 0.474904 0.708138 0.574999 0.561635 0.594931 
-0.517319 0.576559 0.632424 -0.54394 0.567855 0.617795 -0.6168 0.627846 0.474729 
0.49946 0.374523 0.781199 0.481294 0.326566 0.813456 0.603914 0.485753 0.631927 
-0.63175 0.516163 0.578331 -0.656926 0.489408 0.573523 -0.768526 0.589182 0.249464 
0.479876 0.248252 0.841481 0.727188 0.392237 0.563336 -0.66551 0.416202 0.619575 
-0.729439 0.313359 0.608051 0.465457 0.150975 0.872099 0.544866 0.152946 0.824456 
0.589262 0.183515 0.786824 -0.730268 0.308027 0.609777 0.557459 0.148642 0.81679 
-0.732267 0.117135 0.670869 0.627187 0.0854402 0.774168 -0.709783 -0.0470254 0.702848 
0.70199 -0.0466929 0.710655 -0.7109 -0.166809 0.683224 -0.718858 -0.239252 0.652688 
0.761029 -0.213553 0.612561 0.758066 -0.270218 0.593565 -0.70643 -0.297776 0.642096 
-0.77585 -0.335909 0.534062 0.729777 -0.340151 0.593063 0.840376 -0.393104 0.373145 
-0.652066 -0.464688 0.599062 -0.638543 -0.509467 0.576807 0.662442 -0.516385 0.542695 
0.641469 -0.550067 0.534737 -0.586615 -0.603754 0.539782 -0.534017 -0.653058 0.536973 
0.450822 -0.722642 0.523973 0.404753 -0.751755 0.520614 0.177194 -0.784945 0.593686 
0.0186515 -0.806972 0.590295 -0.0241235 -0.802727 0.595859 -0.0513387 -0.797883 0.600622 
-0.168773 -0.790849 0.588281 -0.400485 -0.767863 0.499998 -0.369821 -0.781795 0.502025 
0.505046 0.85068 0.145848 0.276367 0.938959 0.204883 0.0756786 0.966829 0.243955 
-0.106539 0.959585 0.260474 -0.310194 0.915587 0.25589 -0.506461 0.839532 0.196678 
0.567074 0.814093 0.12522 0.636744 0.760449 0.127573 -0.572283 0.800626 0.177452 
-0.703672 0.702426 0.106968 0.665619 0.733243 0.138946 0.689662 0.701893 0.178082 
-0.756685 0.647719 0.0888114 -0.799426 0.600559 0.015747 0.735229 0.621936 0.269507 
0.778744 0.548608 0.304281 -0.800885 0.598775 0.00716192 -0.800892 0.57907 -0.15248 
0.836875 0.437411 0.329107 -0.835409 0.548045 0.0416984 -0.852945 0.518999 0.0558945 
0.896009 0.226183 0.382112 -0.911267 0.395346 0.115296 0.932782 0.10537 0.344696 
0.996004 0.0681684 -0.0576984 -0.960306 0.196474 0.198015 0.958775 0.00717734 0.284074 
0.998944 -0.0285563 -0.0360064 -0.970258 -0.023355 0.240943 0.960931 -0.145513 0.235451 
-0.942131 -0.200063 0.269004 0.927817 -0.297974 0.224427 -0.881025 -0.403861 0.246358 
-0.826549 -0.524972 0.203032 0.893914 -0.409058 0.183273 0.856389 -0.488613 0.1669 
-0.790865 -0.583735 0.183807 -0.701725 -0.701989 0.121625 0.781687 -0.608512 0.136672 
0.693822 -0.715233 0.0839818 -0.691211 -0.713463 0.114883 -0.600131 -0.793709 0.0993401 
0.613889 -0.787346 0.0567988 0.410782 -0.911008 0.0363555 0.172048 -0.984904 0.0190756 
0.00148612 -0.999931 -0.0116318 -0.0108194 -0.999933 0.00415415 -0.0366939 -0.999076 0.0223577 
-0.171002 -0.983261 0.0628914 -0.543749 -0.833991 0.0937889 -0.391414 -0.915003 0.097803 
0.549679 0.808213 -0.211294 0.343561 0.924201 -0.166786 0.103434 0.986054 -0.130379 
-0.10627 0.987851 -0.113387 -0.336798 0.931388 -0.138145 -0.571405 0.802637 -0.171086 
0.573352 0.789751 -0.218086 0.630015 0.743385 -0.224633 0.555011 0.776336 -0.298774 
-0.613929 0.766611 -0.188148 -0.580807 0.745092 -0.327873 -0.739145 0.634548 -0.225863 
0.632542 0.746836 -0.205248 0.614834 0.769587 -0.172379 0.583938 0.713223 -0.387724 
-0.760236 0.605437 -0.235557 -0.745316 0.59591 -0.29899 0.696262 0.706719 -0.125569 
0.775044 0.623818 -0.100788 -0.780839 0.543953 -0.307254 -0.776335 0.550513 -0.306986 
0.871169 0.484296 -0.0807583 -0.771353 0.570713 -0.281604 -0.816407 0.525958 -0.238426 
0.968826 0.241866 -0.0536444 0.995346 0.0707386 -0.0654389 -0.862339 0.4643 -0.20198 
-0.779502 0.504669 -0.371061 0.995567 0.0672892 -0.0657175 0.995337 0.0672807 -0.0691163 
-0.94793 0.286841 -0.138389 0.995122 -0.0345919 -0.0923896 0.993892 -0.0541096 -0.0961766 
0.993608 -0.0351604 -0.107274 -0.996247 0.0236345 -0.0832699 0.97976 -0.161219 -0.118653 
-0.981766 -0.184234 -0.0468318 0.942771 -0.31244 -0.116469 -0.899166 -0.434632 -0.0509442 
-0.812577 -0.578939 -0.0674403 0.869318 -0.471589 -0.147955 0.831394 -0.528401 -0.171976 
0.790212 -0.493479 -0.363377 -0.772902 -0.630267 -0.0733946 -0.675318 -0.728708 -0.113708 
0.738733 -0.637547 -0.21865 0.613905 -0.742097 -0.269095 -0.659758 -0.741301 -0.123256 
-0.586195 -0.795222 -0.15491 0.439851 -0.833097 -0.335382 0.359496 -0.867119 -0.344772 
0.336298 -0.826096 -0.452182 0.129504 -0.883768 -0.449648 0.0826197 -0.810536 -0.579833 
0.00684139 -0.894093 -0.44783 0.0283081 -0.805204 -0.592322 0.0268725 -0.908855 -0.416245 
0.0910909 -0.809848 -0.579525 0.0205102 -0.945263 -0.325664 -0.104609 -0.961682 -0.253425 
-0.493247 -0.849613 -0.186721 -0.365025 -0.908097 -0.205226 -0.314779 -0.856309 -0.40945 
0.350112 0.821906 -0.449325 0.118403 0.880397 -0.459219 -0.11378 0.879345 -0.462391 
-0.344232 0.814964 -0.466196 0.476426 0.760433 -0.441317 0.541311 0.71918 -0.435617 
0.331719 0.729884 -0.597689 0.0891071 0.67691 -0.730652 -0.109319 0.662852 -0.740727 
-0.501586 0.729114 -0.465623 -0.330795 0.715581 -0.615239 -0.571522 0.675159 -0.466393 
0.560778 0.720848 -0.407315 0.569 0.704137 -0.424772 0.568301 0.705865 -0.422834 
0.43434 0.596968 -0.674521 -0.699848 0.567085 -0.434314 -0.491004 0.542004 -0.682017 
-0.73333 0.530938 -0.424656 0.579348 0.705287 -0.408567 0.745308 0.52301 -0.413492 
0.546581 0.694024 -0.468594 -0.743273 0.504167 -0.439727 -0.670813 0.48009 -0.565264 
-0.71436 0.56467 -0.413324 0.776594 0.475256 -0.413561 0.747215 0.466918 -0.472924 
-0.709678 0.571645 -0.411801 -0.696184 0.562343 -0.446205 0.869446 0.237009 -0.433464 
0.695491 0.20718 -0.688018 -0.772736 0.506461 -0.382592 -0.778547 0.497932 -0.382005 
0.896865 0.0589998 -0.438351 0.651211 0.0313458 -0.758249 -0.87125 0.319463 -0.372648 
-0.766253 0.305249 -0.565402 0.887176 -0.0486515 -0.458859 0.6326 -0.0680647 -0.771482 
-0.938506 0.0670135 -0.338697 0.864489 -0.161608 -0.475963 0.651559 -0.151502 -0.743316 
-0.934841 -0.165676 -0.314045 0.817044 -0.312862 -0.48431 0.751806 -0.443925 -0.487564 
0.704851 -0.300269 -0.64267 -0.849612 -0.433493 -0.300405 -0.805932 -0.514881 -0.292184 
-0.782854 -0.416033 -0.462662 0.715909 -0.486921 -0.500382 0.463667 -0.407268 -0.786858 
-0.722935 -0.625771 -0.292875 -0.641854 -0.705595 -0.300265 -0.55787 -0.578181 -0.595389 
0.530941 -0.649517 -0.54427 0.528474 -0.651232 -0.544621 0.5278 -0.649166 -0.547732 
0.285872 -0.719697 -0.632703 0.250419 -0.605638 -0.75531 0.0737733 -0.757157 -0.649053 
0.0799068 -0.576027 -0.813516 0.0302052 -0.752889 -0.657454 0.0191745 -0.562692 -0.826444 
0.103028 -0.767263 -0.633003 0.10519 -0.528377 -0.842468 0.168439 -0.46081 -0.871368 
-0.305928 -0.846813 -0.435104 -0.583013 -0.74549 -0.323018 -0.518567 -0.779122 -0.352218 
-0.450247 -0.706458 -0.546072 0.111475 -0.80935 -0.57665 0.115291 -0.822955 -0.556285 
0.119336 -0.810243 -0.573817 -0.251562 -0.856834 -0.450058 -0.0434785 -0.86697 -0.49646 
-0.0295765 -0.832224 -0.55365 0.264937 0.572851 -0.775661 0.0758265 0.593214 -0.801466 
-0.108176 0.562069 -0.819986 -0.290664 0.528908 -0.797352 0.455299 0.571953 -0.682329 
0.38692 0.569879 -0.724935 0.407668 0.569139 -0.714064 0.216148 0.464225 -0.858938 
0.0390614 0.379293 -0.924452 -0.0919895 0.374717 -0.922564 -0.373468 0.496546 -0.783558 
-0.264659 0.436896 -0.859696 -0.438926 0.491846 -0.751952 0.457972 0.568426 -0.683486 
0.503539 0.475414 -0.721408 0.440008 0.550221 -0.709683 0.257571 0.389782 -0.884153 
0.0909337 0.272402 -0.957877 -0.00579712 0.218841 -0.975743 -0.0630792 0.241696 -0.968299 
-0.150637 0.285657 -0.946419 -0.528292 0.462547 -0.71201 -0.374222 0.414003 -0.829794 
-0.581904 0.477475 -0.658335 0.545895 0.414325 -0.72824 0.48118 0.398095 -0.781016 
0.28442 0.299723 -0.910643 0.130207 0.206153 -0.969818 0.0248246 0.158292 -0.98708 
-0.00117279 0.171233 -0.98523 -0.00460082 0.231667 -0.972784 -0.0725029 0.258899 -0.96318 
-0.229498 0.298438 -0.926426 -0.594946 0.501344 -0.628246 -0.501348 0.445763 -0.741583 
-0.6142 0.493015 -0.616193 0.601699 0.181349 -0.777863 0.431679 0.129142 -0.892735 
0.247498 0.0869236 -0.964981 0.10018 0.0897719 -0.990911 -0.330417 0.278827 -0.90171 
-0.626967 0.471731 -0.619985 -0.569753 0.448605 -0.688574 0.605877 0.0239777 -0.795197 
0.389981 -0.0179238 -0.920649 0.258529 -0.0509609 -0.964658 -0.197974 0.11536 -0.973395 
-0.70805 0.295326 -0.641441 -0.452257 0.235183 -0.860321 -0.742132 0.175905 -0.646759 
0.563002 -0.0748145 -0.823062 0.364962 -0.0996973 -0.925669 0.284274 -0.121782 -0.950977 
-0.370128 0.0420169 -0.92803 -0.750719 0.078522 -0.655938 -0.72075 0.0759153 -0.689026 
0.493097 -0.154163 -0.856206 0.34477 -0.148804 -0.926818 0.243884 -0.142907 -0.959218 
0.242563 -0.234205 -0.941441 -0.118589 -0.310615 -0.943109 0.0498259 -0.292965 -0.954824 
0.110701 -0.214315 -0.970471 -0.395818 -0.123043 -0.910048 -0.741748 -0.144344 -0.654962 
-0.734539 -0.191083 -0.651106 -0.725219 -0.143753 -0.673344 0.425094 -0.257022 -0.867891 
0.395524 -0.286855 -0.872511 0.38161 -0.25018 -0.889822 0.201102 -0.199385 -0.959064 
0.0742117 -0.266058 -0.961096 -0.0606481 -0.389746 -0.918923 -0.0475576 -0.335122 -0.940974 
0.153579 -0.249633 -0.956084 0.220054 -0.225145 -0.94915 0.0731888 -0.184411 -0.98012 
-0.179954 -0.255172 -0.950002 -0.657916 -0.379892 -0.650253 -0.538277 -0.543127 -0.644415 
-0.456908 -0.328572 -0.826605 0.277618 -0.377668 -0.883343 0.216122 -0.412981 -0.884725 
0.211414 -0.368874 -0.905116 0.0669284 -0.449792 -0.890622 0.050202 -0.364024 -0.930035 
0.000210186 -0.449197 -0.893432 -0.0228831 -0.366431 -0.930164 0.0595868 -0.38546 -0.920799 
0.0243429 -0.281379 -0.959288 0.16841 -0.431899 -0.88606 0.169123 -0.219262 -0.960896 
0.172012 -0.255651 -0.951343 -0.0274575 -0.353101 -0.935182 -0.515261 -0.55882 -0.649789 
-0.370977 -0.615592 -0.695286 -0.287922 -0.470932 -0.833861 0.147372 -0.467963 -0.871374 
0.0526139 -0.559611 -0.827083 0.0625288 -0.504353 -0.86123 -0.237896 -0.620359 -0.747369 
-0.171821 -0.61802 -0.767156 -0.158645 -0.581543 -0.797897 0.0467288 0.117574 -0.991964 
0.0416976 0.111603 -0.992878 0.00730132 0.197981 -0.980179 -0.0739659 0.211084 -0.974665 
-0.174572 0.164482 -0.970809 0.0722824 0.0999897 -0.992359 0.126596 0.0575032 -0.990286 
0.0524659 0.108064 -0.992759 0.0721046 0.070017 -0.994936 0.0265809 0.137547 -0.990138 
-0.0796484 0.15526 -0.984658 -0.178409 0.163536 -0.970271 -0.173055 0.159702 -0.971878 
0.166857 0.0164753 -0.985843 0.151932 0.0277864 -0.988 0.0035521 0.106038 -0.994356 
0.0283413 -0.0214716 -0.999368 0.0827612 -0.0655475 -0.994411 -0.0467209 0.0183376 -0.99874 
-0.181086 0.103447 -0.978012 -0.111002 0.0539031 -0.992357 -0.169027 0.0458154 -0.984546 
0.263645 -0.106924 -0.958675 0.260301 -0.120899 -0.957928 0.261041 -0.10464 -0.95964 
0.00239673 -0.0264045 -0.999648 -0.107359 -0.126843 -0.986096 -0.101751 -0.0591985 -0.993047 
0.0626105 -0.192336 -0.97933 0.0666088 -0.170372 -0.983126 0.109763 -0.212935 -0.970882 
0.0386842 -0.099629 -0.994272 -0.0778738 -0.014771 -0.996854 -0.164412 0.0197401 -0.986194 
-0.158067 0.0194709 -0.987236 0.100199 -0.3046 -0.947195 -0.0197418 -0.31929 -0.947452 
0.0361453 -0.33696 -0.940825 0.0495248 -0.321456 -0.945629 0.107176 -0.210306 -0.971743 
0.0375229 -0.131124 -0.990656 0.0115184 -0.0985336 -0.995067 -0.170336 -0.0631166 -0.983362 
-0.156906 -0.0899993 -0.983504 -0.152303 -0.0591295 -0.986564 
