# vtk DataFile Version 4.2
vtk output
ASCII
DATASET POLYDATA
POINTS 520 float
9.61803 0.12194 -19.4333 47.123 7.62294 -19.4136 54.624 7.62294 -20.0258 
-27.8869 -29.882 -14.291 -20.386 -29.882 -15.7453 -12.885 -29.882 -15.3011 
-5.38396 -29.882 -14.2174 2.11703 -29.882 -13.6732 9.61803 -29.882 -13.5784 
-35.3879 -22.381 -12.9829 -27.8869 -22.381 -15.9128 -20.386 -22.381 -17.0156 
-12.885 -22.381 -16.7596 -5.38396 -22.381 -15.6433 2.11703 -22.381 -14.8804 
9.61803 -22.381 -15.1986 17.119 -22.381 -14.9711 24.62 -22.381 -13.5545 
32.121 -22.381 -12.5522 -35.3879 -14.8801 -13.2591 -27.8869 -14.8801 -15.5055 
-20.386 -14.8801 -16.4405 -12.885 -14.8801 -16.7697 -5.38396 -14.8801 -16.6415 
2.11703 -14.8801 -14.9661 9.61803 -14.8801 -16.2891 17.119 -14.8801 -16.2417 
24.62 -14.8801 -16.074 32.121 -14.8801 -15.2994 39.622 -14.8801 -15.0665 
47.123 -14.8801 -13.7346 -35.3879 -7.37906 -13.3001 -27.8869 -7.37906 -14.8852 
-20.386 -7.37906 -15.0308 -12.885 -7.37906 -15.3627 -5.38396 -7.37906 -18.6298 
2.11703 -7.37906 -17.0788 9.61803 -0.282026 -19.3527 9.61803 -7.37906 -17.8037 
17.119 -7.37906 -15.3742 24.62 -7.37906 -16.043 32.121 -7.37906 -17.2243 
39.622 -7.37906 -17.3501 47.123 -7.37906 -16.9396 54.624 -7.37906 -15.4963 
-35.3879 0.12194 -12.943 -27.8869 0.12194 -14.0771 -20.386 0.12194 -14.3656 
-12.885 0.12194 -16.0137 -5.38396 0.12194 -16.1951 9.43244 0.12194 -19.3527 
2.11703 0.12194 -14.7083 9.75778 0.12194 -19.3527 9.61803 0.494698 -19.3527 
17.119 0.12194 -14.7446 24.62 0.12194 -16.6414 32.121 0.12194 -17.8337 
39.622 0.12194 -18.5281 47.123 7.08125 -19.3527 47.123 0.12194 -18.6272 
54.624 2.44623 -19.3527 54.624 0.12194 -18.7904 62.125 0.12194 -13.0377 
-35.3879 7.62294 -12.5629 -27.8869 7.62294 -13.2212 -20.386 7.62294 -13.1346 
-12.885 7.62294 -13.1524 -5.38396 7.62294 -16.3138 2.11703 7.62294 -16.7427 
9.61803 7.62294 -17.5671 17.119 7.62294 -15.9083 24.62 7.62294 -17.463 
32.121 7.62294 -18.265 46.3896 7.62294 -19.3527 39.622 7.62294 -18.8479 
47.123 7.80721 -19.3527 55.9759 7.62294 -19.3527 54.624 9.56686 -19.3527 
62.125 7.62294 -13.4247 -35.3879 15.1239 -12.3518 -27.8869 15.1239 -13.535 
-20.386 15.1239 -13.5911 -12.885 15.1239 -13.5743 -5.38396 15.1239 -14.2925 
2.11703 15.1239 -15.9915 9.61803 15.1239 -15.8736 17.119 15.1239 -15.984 
24.62 15.1239 -16.6141 32.121 15.1239 -17.8526 39.622 15.1239 -19.0023 
47.123 15.1239 -17.154 54.624 15.1239 -14.8687 -35.3879 22.6249 -12.2515 
-27.8869 22.6249 -13.3934 -20.386 22.6249 -13.9191 -12.885 22.6249 -14.5782 
-5.38396 22.6249 -14.2738 2.11703 22.6249 -15.4889 9.61803 22.6249 -15.764 
17.119 22.6249 -15.6117 24.62 22.6249 -15.1147 32.121 22.6249 -15.0874 
39.622 22.6249 -14.2465 47.123 22.6249 -12.5872 -27.8869 30.1259 -13.7574 
-20.386 30.1259 -13.4254 -12.885 30.1259 -13.8876 -5.38396 30.1259 -13.3848 
2.11703 30.1259 -13.9965 9.61803 30.1259 -14.0557 17.119 30.1259 -12.8071 
-27.8869 -33.8443 -11.8517 -27.8869 -37.383 -8.3384 -20.386 -36.5883 -11.8517 
-20.386 -37.383 -11.08 -12.885 -36.9711 -11.8517 -12.885 -37.383 -11.5753 
-5.38396 -36.709 -11.8517 -5.38396 -37.383 -11.551 2.11703 -35.6803 -11.8517 
2.11703 -37.383 -11.1494 9.61803 -33.221 -11.8517 9.61803 -37.383 -8.51456 
-32.9044 -29.882 -11.8517 -35.3879 -26.1838 -11.8517 -35.3879 -29.882 -10.1931 
15.8667 -29.882 -11.8517 17.119 -29.1192 -11.8517 17.119 -29.882 -11.3305 
24.62 -24.9681 -11.8517 24.62 -29.882 -6.2263 32.121 -23.2822 -11.8517 
-37.6077 -22.381 -11.8517 -42.8889 -22.381 -7.47266 35.6043 -22.381 -11.8517 
39.622 -20.8536 -11.8517 39.622 -22.381 -10.2924 47.123 -17.8506 -11.8517 
47.123 -22.381 -4.77499 -38.0109 -14.8801 -11.8517 -42.8889 -14.8801 -9.05623 
51.3244 -14.8801 -11.8517 54.624 -12.3885 -11.8517 54.624 -14.8801 -9.46548 
-50.3899 -7.37906 -5.60997 -39.0069 -7.37906 -11.8517 -42.8889 -7.37906 -10.2589 
60.2502 -7.37906 -11.8517 62.125 -3.9609 -11.8517 62.125 -7.37906 -8.40298 
-50.3899 0.12194 -6.5179 -39.1676 0.12194 -11.8517 -42.8889 0.12194 -10.8236 
63.2466 0.12194 -11.8517 -50.3899 7.62294 -6.85777 -38.332 7.62294 -11.8517 
-42.8889 7.62294 -10.663 63.4113 7.62294 -11.8517 62.125 10.0344 -11.8517 
-50.3899 15.1239 -6.51283 -37.2106 15.1239 -11.8517 -42.8889 15.1239 -10.4053 
57.8512 15.1239 -11.8517 54.624 18.2418 -11.8517 -50.3899 22.6249 -6.59839 
-36.3995 22.6249 -11.8517 -42.8889 22.6249 -9.42654 -35.3879 24.1574 -11.8517 
24.62 28.5516 -11.8517 32.121 26.1271 -11.8517 39.622 24.8454 -11.8517 
48.3665 22.6249 -11.8517 47.123 23.1915 -11.8517 -42.8889 30.1259 -8.83903 
-32.4765 30.1259 -11.8517 -35.3879 30.1259 -10.3425 -27.8869 33.739 -11.8517 
-20.386 34.6475 -11.8517 -12.885 35.3337 -11.8517 -5.38396 34.5074 -11.8517 
2.11703 35.5788 -11.8517 9.61803 34.4658 -11.8517 20.7332 30.1259 -11.8517 
17.119 31.6008 -11.8517 24.62 30.1259 -10.2925 32.121 30.1259 -4.99278 
-35.3879 37.6269 -5.47501 -27.8869 37.6269 -8.58447 -20.386 37.6269 -10.4025 
-12.885 37.6269 -10.4331 -5.38396 37.6269 -10.2546 2.11703 37.6269 -10.6026 
9.61803 37.6269 -9.03271 17.119 37.6269 -4.80968 -27.8869 -39.8767 -4.35069 
-20.386 -41.9778 -4.35069 -12.885 -43.1434 -4.35069 -5.38396 -43.6716 -4.35069 
-5.38396 -44.884 1.80046 2.11703 -43.1461 -4.35069 9.61803 -40.5585 -4.35069 
-32.3751 -37.383 -4.35069 -35.3879 -35.2774 -4.35069 15.2687 -37.383 -4.35069 
17.119 -36.1867 -4.35069 24.62 -31.0719 -4.35069 -40.5738 -29.882 -4.35069 
-42.8889 -26.3255 -4.35069 27.1511 -29.882 -4.35069 32.121 -27.8831 -4.35069 
39.622 -25.4201 -4.35069 47.123 -22.5597 -4.35069 -45.4246 -22.381 -4.35069 
47.3943 -22.381 -4.35069 47.123 -22.381 -3.56969 54.624 -17.9445 -4.35069 
-48.4728 -14.8801 -4.35069 -50.3899 -10.72 -4.35069 -50.3899 -14.8801 -0.479829 
58.0289 -14.8801 -4.35069 54.624 -14.8801 2.70817 62.125 -9.13348 -4.35069 
-51.558 -7.37906 -4.35069 63.3133 -7.37906 -4.35069 62.125 -7.37906 -1.74891 
-52.7534 0.12194 -4.35069 64.9526 0.12194 -4.35069 62.125 0.12194 0.645612 
-53.1925 7.62294 -4.35069 -57.8909 7.62294 2.86874 64.747 7.62294 -4.35069 
62.125 12.0853 -4.35069 62.125 7.62294 -0.0600298 -52.9922 15.1239 -4.35069 
60.4506 15.1239 -4.35069 54.624 20.693 -4.35069 -52.4714 22.6249 -4.35069 
-50.3899 25.9364 -4.35069 39.622 28.1532 -4.35069 51.4781 22.6249 -4.35069 
47.123 25.1224 -4.35069 47.123 22.6249 1.8263 -47.0112 30.1259 -4.35069 
-42.8889 33.8656 -4.35069 24.62 33.7369 -4.35069 33.0907 30.1259 -4.35069 
32.121 30.4168 -4.35069 32.121 30.1259 -2.4476 -36.6781 37.6269 -4.35069 
-35.3879 38.2976 -4.35069 -35.3879 37.6269 -0.957252 -27.8869 40.9166 -4.35069 
-20.386 41.712 -4.35069 -12.885 42.017 -4.35069 -5.38396 41.7984 -4.35069 
2.11703 41.4682 -4.35069 9.61803 40.3085 -4.35069 17.5457 37.6269 -4.35069 
17.119 37.8473 -4.35069 17.119 37.6269 -2.73752 -5.38396 -45.1079 3.15031 
-27.8869 -39.8656 3.15031 -20.386 -42.5155 3.15031 -7.52334 -44.884 3.15031 
-12.885 -44.3171 3.15031 -2.10319 -44.884 3.15031 -5.38396 -44.884 3.86539 
2.11703 -44.5626 3.15031 9.61803 -41.4157 3.15031 -32.8468 -37.383 3.15031 
-35.3879 -35.8881 3.15031 -27.8869 -37.383 7.51556 16.5685 -37.383 3.15031 
9.61803 -37.383 9.83986 17.119 -37.0131 3.15031 24.62 -31.4238 3.15031 
-42.0261 -29.882 3.15031 -42.8889 -28.9332 3.15031 27.6364 -29.882 3.15031 
24.62 -29.882 5.79893 32.121 -27.7782 3.15031 39.622 -24.7157 3.15031 
-47.8874 -22.381 3.15031 -50.3899 -17.7226 3.15031 32.121 -22.381 10.3847 
44.2384 -22.381 3.15031 39.622 -22.381 6.58622 47.123 -20.7106 3.15031 
-51.7515 -14.8801 3.15031 -50.3899 -14.8801 9.62033 54.3466 -14.8801 3.15031 
47.123 -14.8801 9.132 54.624 -14.5309 3.15031 -54.7709 -7.37906 3.15031 
47.123 -7.37906 10.5053 59.498 -7.37906 3.15031 54.624 -7.37906 7.3591 
-57.4481 0.12194 3.15031 -57.8909 5.92926 3.15031 59.9417 0.12194 3.15031 
54.624 0.12194 7.27618 -58.0105 7.62294 3.15031 -57.8909 11.4954 3.15031 
-57.8909 7.62294 3.78105 47.123 7.62294 10.0069 59.904 7.62294 3.15031 
54.624 7.62294 7.21318 -57.7729 15.1239 3.15031 39.622 15.1239 10.5903 
47.123 21.929 3.15031 47.123 15.1239 8.68816 55.2963 15.1239 3.15031 
54.624 15.8434 3.15031 54.624 15.1239 3.71557 -55.1096 22.6249 3.15031 
-50.3899 28.7469 3.15031 32.121 29.1125 3.15031 32.121 22.6249 9.914 
45.9531 22.6249 3.15031 39.622 25.908 3.15031 39.622 22.6249 7.24471 
-48.8135 30.1259 3.15031 -42.8889 34.0093 3.15031 -42.8889 30.1259 8.88436 
-35.3879 36.6231 3.15031 -35.3879 30.1259 9.69168 -27.8869 30.1259 9.71912 
-20.386 30.1259 9.99222 -12.885 30.1259 9.58238 17.119 36.6297 3.15031 
17.119 30.1259 10.3553 30.1663 30.1259 3.15031 24.62 32.7578 3.15031 
24.62 30.1259 6.79697 -31.9397 37.6269 3.15031 -27.8869 38.612 3.15031 
-27.8869 37.6269 4.33957 -20.386 39.4048 3.15031 -20.386 37.6269 5.17101 
-12.885 40.391 3.15031 -12.885 37.6269 6.57701 -5.38396 40.5476 3.15031 
-5.38396 37.6269 6.72267 2.11703 40.4351 3.15031 2.11703 37.6269 6.83635 
14.9262 37.6269 3.15031 9.61803 39.5334 3.15031 9.61803 37.6269 5.90676 
-20.386 -38.7548 10.6513 -12.885 -41.4491 10.6513 -5.38396 -42.0449 10.6513 
2.11703 -40.9949 10.6513 -35.3879 -30.7178 10.6513 -23.4082 -37.383 10.6513 
-27.8869 -35.0978 10.6513 -20.386 -37.383 11.9821 -12.885 -37.383 14.6336 
-5.38396 -37.383 15.1777 8.61057 -37.383 10.6513 2.11703 -37.383 14.1151 
9.61803 -36.6164 10.6513 17.119 -31.0057 10.6513 -36.644 -29.882 10.6513 
-42.8889 -24.5633 10.6513 -35.3879 -29.882 11.2856 -27.8869 -29.882 14.6804 
-20.386 -29.882 15.9726 -12.885 -29.882 17.1625 -5.38396 -29.882 17.3329 
2.11703 -29.882 16.578 9.61803 -29.882 14.5541 18.7363 -29.882 10.6513 
17.119 -29.882 11.4496 24.62 -25.741 10.6513 -44.3969 -22.381 10.6513 
-42.8889 -22.381 12.2299 -35.3879 -22.381 16.3755 -27.8869 -22.381 17.5278 
-20.386 -22.381 17.8102 -12.885 -22.381 17.8116 -5.38396 -22.381 18.0821 
2.11703 -22.381 17.7511 9.61803 -22.381 16.4402 17.119 -22.381 14.5523 
31.473 -22.381 10.6513 24.62 -22.381 12.7548 32.121 -21.9368 10.6513 
39.622 -16.5912 10.6513 -50.0844 -14.8801 10.6513 -50.3899 -14.1046 10.6513 
-42.8889 -14.8801 15.649 -35.3879 -14.8801 17.8543 -5.38396 -14.8801 18.0037 
[...]
POINT_DATA 520
SCALARS ImageScalars float
LOOKUP_TABLE default
0 0 0 0 0 0 0 0 0 
0 0 0 0 0 0 0 0 0 
0 0 0 0 0 0 0 0 0 
0 0 0 0 0 0 0 0 0 
0 0 0 0 0 0 0 0 0 
0 0 0 0 0 0 0 0 0 
0 0 0 0 0 0 0 0 0 
0 0 0 0 0 0 0 0 0 
0 0 0 0 0 0 0 0 0 
0 0 0 0 0 0 0 0 0 
0 0 0 0 0 0 0 0 0 
0 0 0 0 0 0 0 0 0 
0 0 0 0 0 0 0 0 0 
0 0 0 0 0 0 0 0 0 
0 0 0 0 0 0 0 0 0 
0 0 0 0 0 0 0 0 0 
0 0 0 0 0 0 0 0 0 
0 0 0 0 0 0 0 0 0 
0 0 0 0 0 0 0 0 0 
0 0 0 0 0 0 0 0 0 
0 0 0 0 0 0 0 0 0 
0 0 0 0 0 0 0 0 0 
0 0 0 0 0 0 0 0 0 
0 0 0 0 0 0 0 0 0 
0 0 0 0 0 0 0 0 0 
0 0 0 0 0 0 0 0 0 
0 0 0 0 0 0 0 0 0 
0 0 0 0 0 0 0 0 0 
0 0 0 0 0 0 0 0 0 
0 0 0 0 0 0 0 0 0 
0 0 0 0 0 0 0 0 0 
0 0 0 0 0 0 0 0 0 
0 0 0 0 0 0 0 0 0 
0 0 0 0 0 0 0 0 0 
0 0 0 0 0 0 0 0 0 
0 0 0 0 0 0 0 0 0 
0 0 0 0 0 0 0 0 0 
0 0 0 0 0 0 0 0 0 
0 0 0 0 0 0 0 0 0 
0 0 0 0 0 0 0 0 0 
0 0 0 0 0 0 0 0 0 
0 0 0 0 0 0 0 0 0 
0 0 0 0 0 0 0 0 0 
0 0 0 0 0 0 0 0 0 
0 0 0 0 0 0 0 0 0 
0 0 0 0 0 0 0 0 0 
0 0 0 0 0 0 0 0 0 
0 0 0 0 0 0 0 0 0 
0 0 0 0 0 0 0 0 0 
0 0 0 0 0 0 0 0 0 
0 0 0 0 0 0 0 0 0 
0 0 0 0 0 0 0 0 0 
0 0 0 0 0 0 0 0 0 
0 0 0 0 0 0 0 0 0 
0 0 0 0 0 0 0 0 0 
0 0 0 0 0 0 0 0 0 
0 0 0 0 0 0 0 0 0 
0 0 0 0 0 0 0 
NORMALS Normals float
-0.0873479 -0.00992145 0.996128 0.102324 -0.10749 0.988927 -0.258737 -0.138676 0.955941 
0.296023 0.365519 0.882477 0.0546153 0.334183 0.940925 -0.100524 0.301602 0.94812 
-0.104122 0.259174 0.960202 -0.0410518 0.235926 0.970903 -0.127489 0.349438 0.928245 
0.443815 0.138758 0.88531 0.254583 0.064654 0.964887 0.0596135 0.0486925 0.997033 
-0.0916702 0.093561 0.991384 -0.123887 0.151181 0.980712 -0.0292814 0.0827889 0.996137 
0.00629222 0.179092 0.983812 -0.101272 0.283203 0.953698 -0.155776 0.453384 0.877597 
-0.158603 0.549077 0.820585 0.387605 0.0207441 0.921592 0.188462 -0.0697086 0.979603 
0.0825729 -0.136023 0.987259 0.013483 -0.0947402 0.995411 -0.124799 0.191899 0.973447 
-0.01523 0.148746 0.988758 0.0854137 0.166318 0.982366 -0.0139375 0.024362 0.999606 
-0.0605233 0.150184 0.986804 -0.061811 0.285306 0.956441 -0.0956224 0.410284 0.906931 
-0.268185 0.488291 0.830451 0.292093 -0.0207056 0.956166 0.109414 -0.093344 0.989604 
0.0312163 -0.132551 0.990684 0.222209 -0.0498809 0.973722 0.118456 -0.0199753 0.992758 
-0.0493939 0.0316376 0.998278 -0.0898884 0.00373438 0.995945 -0.119357 0.176951 0.976956 
-0.106957 -0.0958381 0.989634 0.12037 0.0370889 0.992036 0.0888834 0.164881 0.9823 
-0.0163475 0.203794 0.978877 -0.10055 0.302492 0.947834 -0.35859 0.449695 0.818039 
0.210708 -0.0479088 0.976374 0.0916465 -0.11084 0.989604 0.118965 -0.12488 0.985014 
0.126654 -0.107122 0.986146 -0.0653976 -0.156561 0.985501 -0.0802451 -0.0105227 0.99672 
0.147085 -0.0355828 0.988484 -0.0902417 -0.00897644 0.995879 -0.0861404 -0.023891 0.995997 
-0.0785066 0.0333399 0.996356 0.197663 0.0950039 0.975656 0.128544 0.0703083 0.989208 
0.0518269 0.105639 0.993053 0.0982916 -0.0876018 0.991294 0.0148238 0.154278 0.987916 
-0.294301 0.117594 0.948451 -0.307286 0.227103 0.924121 -0.757663 0.147288 0.635809 
0.15959 -0.038024 0.986451 0.0374602 -0.0344787 0.998703 -0.0048842 -0.0504886 0.998713 
0.195009 -0.166247 0.966609 0.208827 -0.137303 0.968266 0.0770281 0.0486143 0.995843 
-0.0561417 -0.207522 0.976618 0.00631672 0.0800302 0.996772 0.150125 -0.00199471 0.988665 
0.0964924 0.00174472 0.995332 0.100973 -0.0926223 0.990568 0.0724021 0.0300892 0.996922 
0.0970681 -0.113223 0.988817 -0.347028 -0.148903 0.925959 -0.29498 -0.248951 0.922502 
-0.802952 -0.242012 0.5447 0.203692 -0.0192576 0.978846 0.0823705 0.0118158 0.996532 
0.00261046 0.0528651 0.998598 0.0452384 0.088668 0.995033 0.163043 -0.114108 0.979998 
0.101422 -0.0812647 0.991519 -6.81251e-05 -0.106312 0.994333 0.0480934 -0.0182042 0.998677 
0.124804 -0.153594 0.980221 0.148113 -0.169902 0.974267 -0.0529604 -0.255635 0.965322 
-0.201898 -0.351614 0.914114 -0.466137 -0.556921 0.687427 0.264912 -0.128409 0.955684 
0.106835 0.0195932 0.994084 0.0772806 -0.00943293 0.996965 0.0239719 0.0180488 0.99955 
0.0595461 -0.0591975 0.996469 0.0989715 -0.127042 0.986947 0.00858115 -0.115225 0.993302 
-0.0419945 -0.178105 0.983115 -0.0331586 -0.345811 0.937718 -0.0491139 -0.580386 0.812859 
-0.12654 -0.690941 0.71175 -0.304144 -0.78311 0.542434 0.172581 -0.225558 0.958822 
0.00706874 -0.178793 0.983861 -0.00334202 -0.223682 0.974656 0.00274636 -0.222999 0.974815 
0.0449506 -0.285141 0.957431 -0.0645082 -0.336877 0.939336 -0.202657 -0.470373 0.858883 
0.323889 0.554093 0.766862 0.353248 0.792381 0.497341 0.111333 0.636748 0.762992 
0.124516 0.692162 0.710921 0.00999354 0.58912 0.807984 0.0202328 0.612355 0.790324 
-0.0294986 0.477933 0.877901 -0.0213053 0.510226 0.859776 -0.108065 0.433276 0.894759 
-0.135705 0.518873 0.844011 -0.202197 0.47036 0.858998 -0.342603 0.709559 0.615751 
0.440938 0.423959 0.791096 0.481339 0.284398 0.829115 0.552868 0.476394 0.683656 
-0.292389 0.503574 0.812971 -0.302442 0.508802 0.806009 -0.336973 0.548959 0.764913 
-0.214132 0.549744 0.807421 -0.418499 0.819892 0.390687 -0.174352 0.599438 0.781201 
0.50735 0.152092 0.848212 0.730354 0.299922 0.613701 -0.190455 0.61768 0.763019 
-0.201535 0.633402 0.747118 -0.25819 0.747826 0.611632 -0.330293 0.602313 0.726722 
-0.473357 0.873367 0.114735 0.447176 0.0390936 0.893591 0.583581 0.140654 0.799781 
-0.403066 0.565611 0.71946 -0.464717 0.563834 0.682737 -0.558533 0.67417 0.483255 
0.709734 0.194564 0.677069 0.366181 0.03384 0.929928 0.449991 0.10257 0.887123 
-0.624587 0.477561 0.617921 -0.741254 0.322682 0.588574 -0.829468 0.481595 0.282929 
0.643839 0.0688339 0.762058 0.271724 -0.00929974 0.96233 0.345281 0.024494 0.938179 
-0.821283 0.134767 0.554375 0.556375 -0.00057806 0.830931 0.21717 -0.0362583 0.97546 
0.321884 -0.030047 0.946302 -0.850759 -0.250465 0.462035 -0.805871 -0.34418 0.48178 
0.586481 -0.0130058 0.809858 0.22551 -0.0359402 0.973578 0.316924 -0.0763926 0.94537 
-0.650197 -0.548231 0.526011 -0.528952 -0.669292 0.521784 0.641875 -0.300578 0.705443 
0.276951 -0.119642 0.953407 0.356967 -0.101812 0.928552 0.273936 -0.162717 0.947883 
-0.216343 -0.59533 0.773808 -0.169135 -0.716731 0.676527 -0.170322 -0.789516 0.589623 
-0.332298 -0.805593 0.490508 -0.306707 -0.818717 0.48542 0.516495 -0.440258 0.734442 
0.254076 -0.267017 0.929595 0.327511 -0.334301 0.88373 0.189634 -0.429501 0.882931 
0.0643179 -0.41586 0.907151 -0.00389944 -0.447809 0.894121 0.00375463 -0.396665 0.917956 
-0.0116907 -0.516616 0.856138 -0.136674 -0.530241 0.836758 -0.232577 -0.567427 0.789896 
-0.236303 -0.529885 0.814483 -0.295723 -0.714568 0.633987 -0.335609 -0.924847 0.178957 
0.440577 -0.844373 0.304838 0.227988 -0.773763 0.591026 0.112492 -0.666051 0.737375 
-0.0074608 -0.635875 0.771756 0.00702054 -0.629283 0.777145 -0.0451205 -0.66983 0.741142 
-0.213175 -0.79472 0.568311 -0.404039 -0.893648 0.195309 0.377324 0.892578 0.246841 
0.195705 0.935347 0.294661 0.104053 0.924832 0.365868 0.000543167 0.917772 0.397106 
0.0154352 0.999879 0.00214323 -0.181586 0.901897 0.391928 -0.396288 0.852122 0.341825 
0.506225 0.824085 0.254205 0.613345 0.739702 0.276856 -0.504348 0.802955 0.317641 
-0.528713 0.790257 0.309767 -0.45778 0.845815 0.273923 0.755422 0.580253 0.304375 
0.787975 0.493954 0.367567 -0.408696 0.877191 0.251999 -0.330425 0.919844 0.211437 
-0.329113 0.928385 0.172589 -0.473533 0.876638 0.0852748 0.797318 0.406167 0.446445 
-0.476916 0.874949 0.0837636 -0.482713 0.875152 0.0331103 -0.597497 0.799134 0.0661995 
0.756897 0.300498 0.580352 0.767318 0.249493 0.590742 0.873904 0.379536 0.303719 
-0.733247 0.679236 0.0314112 -0.642186 0.567487 -0.515322 -0.878775 0.473174 -0.0621303 
0.767479 0.213593 0.604446 -0.903266 0.423812 -0.0670405 -0.885037 0.408729 -0.222823 
0.726795 0.0931969 0.680502 -0.9889 0.0875224 -0.120068 -0.873829 0.0461793 -0.484035 
0.731358 0.0125066 0.681879 0.991567 0.0201531 0.128016 -0.943718 -0.297148 -0.145255 
-0.891799 -0.413754 -0.183035 -0.849185 -0.298178 -0.435861 0.740314 -0.0456603 0.670708 
-0.832606 -0.531691 -0.155152 -0.546433 -0.827845 -0.126819 0.752223 -0.321711 0.575033 
0.718473 -0.432889 0.544429 -0.343076 -0.937994 0.0496669 -0.474302 -0.873599 -0.108917 
-0.431653 -0.900755 -0.0481336 -0.471356 -0.754174 -0.457214 0.674444 -0.594293 0.438111 
0.582953 -0.734377 0.347644 -0.436732 -0.88281 0.172947 -0.342983 -0.930518 0.12845 
-0.341653 -0.929472 0.139125 -0.365275 -0.93069 0.0197657 0.459591 -0.861512 0.215805 
0.435276 -0.879083 0.194288 0.390733 -0.917795 -0.0705733 0.242951 -0.957153 0.157583 
0.074883 -0.991965 0.101973 0.00759708 -0.988467 0.151246 -0.0393975 -0.981324 0.188286 
-0.0997117 -0.976793 0.189558 -0.241312 -0.952029 0.188171 -0.408117 -0.898208 0.16329 
-0.404085 -0.900182 0.162445 -0.413769 -0.908451 0.0592556 0.0179974 0.997231 -0.0721615 
0.403913 0.885338 -0.230283 0.278835 0.946491 -0.162499 0.0595343 0.995203 -0.077629 
0.165615 0.982106 -0.0896665 -0.0818489 0.993265 -0.0820111 0.0166351 0.993778 -0.110128 
-0.217385 0.97143 -0.0952218 -0.453581 0.878171 -0.151921 0.506232 0.84117 -0.190161 
0.558456 0.812089 -0.169228 0.375507 0.802301 -0.464013 -0.55335 0.811227 -0.188983 
-0.454288 0.651606 -0.60748 -0.560017 0.806059 -0.191441 -0.492814 0.844997 -0.207641 
0.721225 0.68929 -0.0686534 0.744464 0.665761 -0.0503569 -0.443605 0.870677 -0.212454 
-0.458184 0.80281 -0.381528 -0.394551 0.884866 -0.247674 -0.406805 0.851573 -0.330656 
0.843194 0.536599 -0.0329511 0.889267 0.455803 0.0380463 -0.304548 0.541823 -0.783376 
-0.468074 0.795322 -0.385189 -0.416692 0.72793 -0.544505 -0.505825 0.746494 -0.432305 
0.907704 0.413278 0.0726203 0.826522 0.403086 -0.392916 -0.631698 0.552166 -0.544124 
-0.449195 0.405856 -0.79593 -0.635701 0.539724 -0.55189 0.934462 0.346041 0.0838775 
-0.366012 0.0898496 -0.926263 -0.749581 0.303937 -0.588005 -0.516363 0.249785 -0.819132 
0.970794 0.210801 0.114549 0.991273 0.0617921 0.116449 -0.727348 0.0224703 -0.685901 
-0.50697 -0.00928682 -0.861914 0.992976 0.0201242 0.116588 0.99273 -0.0789 0.0908904 
0.997459 0.0165379 0.069304 -0.344259 -0.134952 -0.929125 -0.690506 -0.252426 -0.677852 
-0.450354 -0.213528 -0.866941 0.982265 -0.175901 0.0649195 -0.258037 -0.298048 -0.919013 
-0.46683 -0.694672 -0.547266 -0.383534 -0.36735 -0.847322 -0.594353 -0.489877 -0.637781 
-0.588417 -0.506141 -0.630545 -0.581457 -0.477974 -0.658369 0.876927 -0.480596 0.00511425 
0.723415 -0.681714 -0.109255 -0.399722 -0.838848 -0.369536 -0.297117 -0.489455 -0.819851 
-0.456708 -0.716118 -0.527819 -0.377977 -0.800355 -0.465365 -0.377256 -0.618192 -0.689577 
0.650404 -0.744104 -0.152591 0.380818 -0.8799 -0.28417 0.279364 -0.743332 -0.607794 
0.274937 -0.874506 -0.399562 0.0358964 -0.66155 -0.749042 0.0184029 -0.584219 -0.811388 
-0.00885968 -0.456787 -0.889532 0.0709723 -0.370561 -0.926093 -0.39902 -0.846757 -0.351831 
-0.222275 -0.550427 -0.804751 -0.402228 -0.84486 -0.352739 -0.414867 -0.84247 -0.343701 
-0.36229 -0.747332 -0.556993 0.232832 -0.854532 -0.46429 0.166795 -0.836186 -0.522467 
0.148778 -0.790954 -0.593513 0.116769 -0.83606 -0.536067 0.119566 -0.728966 -0.674028 
0.075482 -0.864442 -0.497034 0.0903843 -0.683674 -0.724169 0.00339268 -0.89404 -0.447974 
0.0144375 -0.744537 -0.667425 -0.068674 -0.911843 -0.404755 -0.038107 -0.770286 -0.636559 
-0.358272 -0.864151 -0.353391 -0.232185 -0.898894 -0.371591 -0.204982 -0.8166 -0.53958 
0.327974 0.701868 -0.632308 0.179875 0.796027 -0.577915 -0.0201398 0.811935 -0.5834 
-0.250369 0.743807 -0.619731 0.423054 0.618611 -0.662077 0.336437 0.692576 -0.638082 
0.332133 0.679143 -0.654563 0.32141 0.639842 -0.698068 0.176488 0.524072 -0.833187 
-0.0250963 0.500271 -0.865505 -0.426729 0.622089 -0.656436 -0.264098 0.538567 -0.800124 
-0.437293 0.597785 -0.671883 -0.428045 0.54428 -0.721482 0.450116 0.614004 -0.648379 
0.627902 0.558048 -0.542514 0.408239 0.5958 -0.691638 0.257857 0.466784 -0.845945 
0.150731 0.332486 -0.930985 0.087648 0.188735 -0.978109 -0.0374751 0.158008 -0.986726 
-0.178904 0.204372 -0.962406 -0.301853 0.336775 -0.89189 -0.4122 0.551332 -0.725344 
-0.407481 0.505487 -0.760554 -0.322366 0.552411 -0.768715 0.662535 0.522847 -0.536356 
0.604687 0.486286 -0.630777 0.247333 0.366365 -0.896997 0.0844212 0.265091 -0.96052 
0.0179147 0.188444 -0.981921 0.0176262 0.0659687 -0.997666 -0.00255118 0.0465264 -0.998914 
-0.105807 0.118376 -0.987316 -0.205092 0.162517 -0.965156 -0.226448 0.271555 -0.935403 
-0.29714 0.523538 -0.798509 -0.251697 0.433984 -0.865047 -0.297853 0.515039 -0.803753 
-0.306596 0.413244 -0.857455 0.788538 0.391118 -0.474588 0.793777 0.381433 -0.473737 
0.422895 0.25341 -0.870025 0.197015 0.154471 -0.968155 0.0100318 0.151662 -0.988382 
-0.154506 0.0782156 -0.984891 -0.111999 0.0998114 -0.988683 -0.150373 0.168647 -0.974139 
-0.226443 0.244833 -0.942752 -0.339425 0.358364 -0.869693 -0.284369 0.342266 -0.895538 
0.801782 0.294743 -0.519877 0.68525 0.223127 -0.693287 0.315855 0.195553 -0.928437 
-0.298924 -0.0670748 -0.951917 -0.134799 -0.083028 -0.987388 -0.10379 -0.0309938 -0.994116 
-0.158723 0.0335542 -0.986753 -0.359778 0.0878874 -0.92889 -0.249486 0.0760431 -0.965388 
-0.345677 0.0294103 -0.937893 0.800478 0.180291 -0.571602 0.565596 0.142008 -0.812364 
-0.332491 -0.09922 -0.937873 -0.0635337 -0.0744619 -0.995198 -0.0361171 -0.0595507 -0.997572 
-0.127364 -0.0468111 -0.990751 -0.219988 -0.0438417 -0.974517 -0.327789 -0.0310244 -0.944241 
-0.328326 -0.0497505 -0.943253 -0.323237 -0.0310156 -0.94581 0.828191 -0.0305734 -0.559611 
0.504165 0.0173717 -0.863433 -0.254536 -0.0481117 -0.965866 -0.09576 0.0498343 -0.994156 
-0.078148 -0.0214257 -0.996711 -0.138456 -0.0995924 -0.985348 -0.322168 -0.136043 -0.936857 
-0.257771 -0.292825 -0.920765 -0.241672 -0.137607 -0.960551 0.730261 -0.224491 -0.64523 
0.514244 -0.229671 -0.82632 0.193971 -0.200247 -0.960352 0.0521167 -0.225014 -0.972961 
-0.0317588 -0.252357 -0.967113 -0.0701409 -0.302433 -0.950586 -0.0588264 -0.435672 -0.898181 
-0.0563945 -0.311506 -0.948569 -0.0604501 -0.282606 -0.957329 -0.010642 -0.13042 -0.991402 
-0.0469329 -0.0671117 -0.996641 -0.186325 -0.111779 -0.976109 -0.257707 -0.295609 -0.919893 
-0.28151 -0.413689 -0.865802 -0.243128 -0.233046 -0.941583 0.590711 -0.498556 -0.634431 
0.540513 -0.533923 -0.650209 0.540827 -0.506258 -0.671721 0.241164 -0.644376 -0.725686 
0.200078 -0.42374 -0.88341 0.0219754 -0.622214 -0.782539 -0.00700801 -0.45598 -0.889962 
-0.0153071 -0.557041 -0.830344 -0.101005 -0.470856 -0.876409 -0.0298951 -0.446818 -0.894125 
-0.12375 -0.459697 -0.879412 0.0548353 -0.368518 -0.928002 0.00980939 -0.41575 -0.909426 
0.0934634 -0.309706 -0.946228 0.0259694 -0.234496 -0.97177 -0.0256087 -0.234448 -0.971791 
-0.210516 -0.527269 -0.823207 -0.0879096 -0.315529 -0.944835 -0.278375 -0.453639 -0.846593 
-0.276412 -0.522947 -0.806302 -0.235477 -0.399486 -0.885981 0.132442 -0.379603 -0.91562 
0.143921 -0.419976 -0.896051 0.1573 -0.387381 -0.908401 0.00626331 -0.486796 -0.873493 
0.021287 -0.396848 -0.917637 -0.192514 -0.523741 -0.82984 -0.114044 -0.504193 -0.856028 
-0.101873 -0.449724 -0.887339 0.0734312 0.195726 -0.977906 -0.00444407 0.154268 -0.988019 
-0.043752 0.132184 -0.990259 -0.0724438 0.160177 -0.984426 0.1588 0.141252 -0.977154 
0.177699 0.136105 -0.974627 0.0668413 0.111086 -0.991561 -0.0435619 0.0819912 -0.995681 
-0.0339927 0.149132 -0.988233 -0.0573208 0.147107 -0.987458 -0.0148733 0.165323 -0.986127 
0.0117478 0.15214 -0.988289 -0.0738415 0.164421 -0.983622 -0.0535205 0.184269 -0.981418 
0.220443 0.150429 -0.96373 0.281837 0.106299 -0.953556 0.113389 0.0863566 -0.989791 
-0.00163949 0.0127667 -0.999917 0.0467075 -0.00650397 -0.998887 0.0932528 0.143856 -0.985195 
0.0369138 0.14591 -0.988609 -0.280803 -0.0410663 -0.958887 -0.168249 0.0731932 -0.983023 
0.297792 0.064985 -0.952416 0.269505 0.0558887 -0.961376 0.0453263 0.00833367 -0.998937 
-0.0233828 -0.016021 -0.999598 0.0844871 -0.019691 -0.99623 0.0918412 -0.0267066 -0.995415 
-0.0616125 -0.124827 -0.990264 -0.281628 -0.110404 -0.953151 -0.229722 -0.118967 -0.965958 
0.216648 -0.0896362 -0.972126 0.163633 -0.126355 -0.978396 0.166915 -0.110924 -0.979712 
0.0485634 -0.18943 -0.980693 0.037279 -0.0904156 -0.995206 -0.0288072 -0.202187 -0.978923 
-0.0289619 -0.0867614 -0.995808 -0.00482425 -0.179478 -0.98375 0.0368709 -0.0940315 -0.994886 
-0.0375807 -0.336118 -0.94107 -0.00825861 -0.224089 -0.974534 -0.0614972 -0.251901 -0.965797 
-0.0603094 -0.237075 -0.969618 -0.172991 -0.203318 -0.963709 -0.131946 -0.250746 -0.959019 
-0.142639 -0.239317 -0.960407 
