# vtk DataFile Version 4.2
vtk output
ASCII
DATASET POLYDATA
POINTS 524 float
-27.8445 -36.7195 -17.7894 -19.234 -36.7195 -19.3903 -10.6235 -36.7195 -18.6473 
-2.01302 -36.7195 -17.2282 6.59749 -36.7195 -16.6089 -45.0656 -28.109 -16.865 
-36.4551 -28.109 -19.2085 -27.8445 -28.109 -20.6379 -19.234 -28.109 -21.2222 
-10.6235 -28.109 -20.7533 -2.01302 -28.109 -19.4965 6.59749 -28.109 -18.5596 
15.208 -28.109 -17.875 23.8185 -28.109 -17.9192 32.429 -28.109 -17.9578 
41.0395 -28.109 -16.645 -53.6761 -19.4985 -16.9079 -45.0656 -19.4985 -19.6165 
-36.4551 -19.4985 -20.2539 -27.8445 -19.4985 -20.8285 -19.234 -19.4985 -20.8446 
-10.6235 -19.4985 -20.7339 -2.01302 -19.4985 -20.0822 6.59749 -19.4985 -19.2589 
15.208 -19.4985 -18.2801 23.8185 -19.4985 -18.8837 32.429 -19.4985 -20.0746 
41.0395 -19.4985 -19.41 49.65 -19.4985 -18.4765 58.2605 -19.4985 -15.9583 
-53.6761 -10.888 -18.355 -45.0656 -10.888 -20.3958 -36.4551 -10.888 -20.9537 
-27.8445 -10.888 -20.3425 -19.234 -10.888 -19.7452 -10.6235 -10.888 -20.9064 
-2.01302 -10.888 -20.4539 6.59749 -10.888 -21.5335 15.208 -10.888 -17.8608 
23.8185 -10.888 -18.2531 32.429 -10.888 -19.8484 41.0395 -10.888 -20.5322 
49.65 -10.888 -20.4439 58.2605 -10.888 -18.4436 -62.2866 -2.27746 -15.7355 
-53.6761 -2.27746 -19.0861 -45.0656 -2.27746 -20.4705 -36.4551 -2.27746 -20.4321 
-27.8445 -2.27746 -19.5503 -19.234 -2.27746 -19.6255 -10.6235 -2.27746 -23.3984 
-2.01302 -2.27746 -17.6286 6.59749 -2.27746 -22.5554 15.208 -2.27746 -20.0398 
23.8185 -2.27746 -18.0242 32.429 -2.27746 -19.5124 41.0395 -2.27746 -20.3573 
49.65 -2.27746 -20.2797 58.2605 -2.27746 -18.3941 -53.6761 6.33305 -18.7944 
-45.0656 6.33305 -20.456 -36.4551 6.33305 -20.619 -27.8445 6.33305 -19.8285 
-19.234 6.33305 -19.2296 -10.6235 6.33305 -21.9407 -2.01302 6.33305 -20.2985 
6.59749 6.33305 -22.2485 15.208 6.33305 -20.4474 23.8185 6.33305 -18.9906 
32.429 6.33305 -19.7538 41.0395 6.33305 -19.9286 49.65 6.33305 -19.2904 
58.2605 6.33305 -17.2683 -53.6761 14.9436 -18.4877 -45.0656 14.9436 -20.2771 
-36.4551 14.9436 -21.3396 -27.8445 14.9436 -21.0198 -19.234 14.9436 -20.3898 
-10.6235 14.9436 -19.8524 -2.01302 14.9436 -20.639 6.59749 14.9436 -19.5989 
15.208 14.9436 -20.471 23.8185 14.9436 -21.1506 32.429 14.9436 -20.7343 
41.0395 14.9436 -19.7779 49.65 14.9436 -17.3949 -53.6761 23.5541 -15.7738 
-45.0656 23.5541 -19.2392 -36.4551 23.5541 -20.5073 -27.8445 23.5541 -20.9702 
-19.234 23.5541 -21.5725 -10.6235 23.5541 -20.9635 -2.01302 23.5541 -20.9448 
6.59749 23.5541 -20.6727 15.208 23.5541 -21.0028 23.8185 23.5541 -22.1655 
32.429 23.5541 -21.8221 41.0395 23.5541 -19.4997 -45.0656 32.1646 -15.9262 
-36.4551 32.1646 -18.6944 -27.8445 32.1646 -20.0475 -19.234 32.1646 -20.8103 
-10.6235 32.1646 -20.6596 -2.01302 32.1646 -21.0994 6.59749 32.1646 -20.6038 
15.208 32.1646 -20.5767 23.8185 32.1646 -20.7996 32.429 32.1646 -19.3226 
-10.6235 40.7751 -17.2515 -2.01302 40.7751 -18.2843 6.59749 40.7751 -17.5804 
15.208 40.7751 -15.8915 -27.8445 -39.3117 -15.6649 -19.234 -41.4862 -15.6649 
-10.6235 -40.737 -15.6649 -10.6235 -45.33 -7.15383 -2.01302 -39.2286 -15.6649 
6.59749 -38.1559 -15.6649 -45.0656 -30.0146 -15.6649 -34.3411 -36.7195 -15.6649 
-36.4551 -35.4451 -15.6649 -36.4551 -36.7195 -14.368 13.0196 -36.7195 -15.6649 
15.208 -35.6385 -15.6649 15.208 -36.7195 -15.2234 23.8185 -33.1835 -15.6649 
23.8185 -36.7195 -13.3281 32.429 -32.4301 -15.6649 32.429 -36.7195 -11.0413 
41.0395 -29.5987 -15.6649 -47.4333 -28.109 -15.6649 -53.6761 -21.9749 -15.6649 
-53.6761 -28.109 -10.53 44.8505 -28.109 -15.6649 49.65 -25.572 -15.6649 
49.65 -28.109 -13.6489 58.2605 -19.9161 -15.6649 -55.7777 -19.4985 -15.6649 
-62.2866 -19.4985 -9.62595 58.726 -19.4985 -15.6649 66.8711 -19.4985 -7.98141 
-59.8799 -10.888 -15.6649 -62.2866 -2.72358 -15.6649 -62.2866 -10.888 -14.4445 
63.216 -10.888 -15.6649 66.8711 -10.888 -12.4104 -62.3899 -2.27746 -15.6649 
-70.8971 -2.27746 -7.38327 -62.2866 -1.5865 -15.6649 63.1181 -2.27746 -15.6649 
66.8711 -2.27746 -12.6245 -60.7943 6.33305 -15.6649 -62.2866 6.33305 -14.8649 
61.0257 6.33305 -15.6649 58.2605 9.98205 -15.6649 66.8711 6.33305 -11.276 
-58.5793 14.9436 -15.6649 -62.2866 14.9436 -12.1007 53.396 14.9436 -15.6649 
49.65 20.4512 -15.6649 58.2605 14.9436 -12.8481 -53.8671 23.5541 -15.6649 
-53.6761 23.7412 -15.6649 47.9655 23.5541 -15.6649 41.0395 31.2822 -15.6649 
49.65 23.5541 -14.099 -45.4905 32.1646 -15.6649 -45.0656 32.4852 -15.6649 
-36.4551 35.8814 -15.6649 -27.8445 39.3394 -15.6649 -19.234 40.6658 -15.6649 
23.8185 39.2893 -15.6649 40.0506 32.1646 -15.6649 32.429 36.8429 -15.6649 
41.0395 32.1646 -14.564 -27.8445 40.7751 -13.0769 -18.8814 40.7751 -15.6649 
-19.234 40.7751 -15.5182 -10.6235 42.5143 -15.6649 -2.01302 43.7897 -15.6649 
6.59749 42.9089 -15.6649 16.6746 40.7751 -15.6649 15.208 40.9977 -15.6649 
23.8185 40.7751 -11.2185 -10.6235 -45.3648 -7.05442 -36.4551 -40.4374 -7.05442 
-27.8445 -42.9737 -7.05442 -11.0138 -45.33 -7.05442 -19.234 -44.5912 -7.05442 
-7.53942 -45.33 -7.05442 -10.6235 -45.33 -6.86176 -2.01302 -45.2666 -7.05442 
6.59749 -44.3374 -7.05442 15.208 -42.9069 -7.05442 23.8185 -41.1308 -7.05442 
32.429 -38.9893 -7.05442 -53.6761 -31.218 -7.05442 -44.7146 -36.7195 -7.05442 
-45.0656 -36.5448 -7.05442 38.2946 -36.7195 -7.05442 41.0395 -35.7175 -7.05442 
49.65 -32.1395 -7.05442 -57.5714 -28.109 -7.05442 -62.2866 -22.8899 -7.05442 
56.5747 -28.109 -7.05442 58.2605 -27.0096 -7.05442 66.8711 -20.0877 -7.05442 
-64.6238 -19.4985 -7.05442 67.3698 -19.4985 -7.05442 -69.7912 -10.888 -7.05442 
-70.8971 -3.71333 -7.05442 71.0844 -10.888 -7.05442 -71.0721 -2.27746 -7.05442 
-70.8971 -1.0302 -7.05442 71.8202 -2.27746 -7.05442 -69.6307 6.33305 -7.05442 
71.0895 6.33305 -7.05442 66.8711 12.5099 -7.05442 -66.7187 14.9436 -7.05442 
-62.2866 21.6903 -7.05442 64.9536 14.9436 -7.05442 58.2605 21.7569 -7.05442 
66.8711 14.9436 0.260732 -61.0734 23.5541 -7.05442 -53.6761 31.4668 -7.05442 
56.3877 23.5541 -7.05442 49.65 29.5792 -7.05442 -52.8054 32.1646 -7.05442 
-45.0656 37.0338 -7.05442 -36.4551 40.3078 -7.05442 32.429 39.6578 -7.05442 
46.4115 32.1646 -7.05442 41.0395 35.5866 -7.05442 -34.8588 40.7751 -7.05442 
-27.8445 42.7701 -7.05442 -19.234 44.3013 -7.05442 -10.6235 46.2394 -7.05442 
-2.01302 47.3047 -7.05442 6.59749 46.1089 -7.05442 15.208 43.6167 -7.05442 
27.7521 40.7751 -7.05442 23.8185 41.6562 -7.05442 23.8185 40.7751 -3.235 
-36.4551 -39.2603 1.55608 -27.8445 -41.2982 1.55608 -19.234 -42.4281 1.55608 
-10.6235 -43.789 1.55608 -2.01302 -44.6304 1.55608 6.59749 -44.2629 1.55608 
15.208 -42.9495 1.55608 23.8185 -41.0477 1.55608 32.429 -38.3712 1.55608 
-53.6761 -32.4468 1.55608 -44.0484 -36.7195 1.55608 -45.0656 -36.3895 1.55608 
36.6102 -36.7195 1.55608 32.429 -36.7195 6.35002 41.0395 -34.9227 1.55608 
49.65 -30.7118 1.55608 -58.9429 -28.109 1.55608 -62.2866 -24.7863 1.55608 
54.4353 -28.109 1.55608 49.65 -28.109 6.92951 58.2605 -25.7373 1.55608 
66.8711 -19.5476 1.55608 -66.1968 -19.4985 1.55608 -62.2866 -19.4985 9.50279 
66.909 -19.4985 1.55608 66.8711 -19.4985 1.62843 -70.0577 -10.888 1.55608 
-70.8971 -6.11749 1.55608 71.222 -10.888 1.55608 66.8711 -10.888 9.97982 
-71.5727 -2.27746 1.55608 -70.8971 0.925757 1.55608 -70.8971 -2.27746 2.97976 
73.3323 -2.27746 1.55608 -69.7489 6.33305 1.55608 72.3543 6.33305 1.55608 
-67.0639 14.9436 1.55608 -62.2866 21.7406 1.55608 -62.2866 14.9436 9.20636 
58.2605 23.5226 1.55608 67.1307 14.9436 1.55608 66.8711 15.3632 1.55608 
66.8711 14.9436 2.49172 -60.9225 23.5541 1.55608 -53.6761 30.4527 1.55608 
58.2202 23.5541 1.55608 49.65 29.9865 1.55608 -51.1792 32.1646 1.55608 
-45.0656 35.7364 1.55608 -45.0656 32.1646 8.47255 -36.4551 39.0365 1.55608 
23.8185 39.6525 1.55608 32.429 37.8764 1.55608 45.8003 32.1646 1.55608 
41.0395 34.7621 1.55608 -29.8703 40.7751 1.55608 -27.8445 41.3361 1.55608 
-27.8445 40.7751 2.8513 -19.234 43.0421 1.55608 -19.234 40.7751 7.26867 
-10.6235 45.1902 1.55608 -2.01302 46.0823 1.55608 6.59749 44.4463 1.55608 
18.907 40.7751 1.55608 15.208 41.6733 1.55608 15.208 40.7751 4.17071 
-36.4551 -37.2512 10.1666 -27.8445 -38.0897 10.1666 -19.234 -39.2065 10.1666 
-10.6235 -41.0282 10.1666 -2.01302 -42.1725 10.1666 6.59749 -41.912 10.1666 
15.208 -40.5708 10.1666 23.8185 -38.6512 10.1666 -53.6761 -28.4355 10.1666 
-37.8749 -36.7195 10.1666 -45.0656 -33.3925 10.1666 -36.4551 -36.7195 11.0433 
-27.8445 -36.7195 12.2921 -19.234 -36.7195 14.3808 -10.6235 -36.7195 17.244 
-2.01302 -36.7195 18.6695 6.59749 -36.7195 17.8439 15.208 -36.7195 16.0768 
28.8959 -36.7195 10.1666 23.8185 -36.7195 13.3767 32.429 -35.1853 10.1666 
41.0395 -30.6936 10.1666 -54.0835 -28.109 10.1666 -53.6761 -28.109 10.5027 
-45.0656 -28.109 15.8667 46.1751 -28.109 10.1666 41.0395 -28.109 13.1403 
49.65 -26.0284 10.1666 58.2605 -20.4428 10.1666 -61.8163 -19.4985 10.1666 
-62.2866 -18.7211 10.1666 -53.6761 -19.4985 17.0066 49.65 -19.4985 15.632 
59.4894 -19.4985 10.1666 58.2605 -19.4985 11.2256 -65.6529 -10.888 10.1666 
-62.2866 -10.888 13.512 -53.6761 -10.888 18.0417 66.7302 -10.888 10.1666 
58.2605 -10.888 16.975 66.8711 -10.6341 10.1666 -66.9784 -2.27746 10.1666 
-62.2866 -2.27746 14.51 -53.6761 -2.27746 18.4169 69.9961 -2.27746 10.1666 
66.8711 -2.27746 13.79 -65.1111 6.33305 10.1666 -62.2866 13.5374 10.1666 
-62.2866 6.33305 12.8769 -53.6761 6.33305 17.4986 69.5006 6.33305 10.1666 
66.8711 11.2117 10.1666 66.8711 6.33305 13.4294 -61.48 14.9436 10.1666 
-53.6761 14.9436 15.9306 64.4434 14.9436 10.1666 58.2605 21.2172 10.1666 
58.2605 14.9436 16.8819 -55.084 23.5541 10.1666 -53.6761 24.9375 10.1666 
-53.6761 23.5541 11.4062 -45.0656 30.9308 10.1666 -45.0656 23.5541 15.6488 
-36.4551 23.5541 18.1999 55.4688 23.5541 10.1666 49.65 27.6967 10.1666 
49.65 23.5541 15.4122 -42.6304 32.1646 10.1666 -36.4551 34.7589 10.1666 
-36.4551 32.1646 12.7072 -27.8445 36.9422 10.1666 -27.8445 32.1646 15.1276 
-19.234 39.3723 10.1666 -19.234 32.1646 17.0016 15.208 38.6689 10.1666 
15.208 32.1646 18.2216 23.8185 36.8461 10.1666 23.8185 32.1646 16.8372 
[...]
POINT_DATA 524
SCALARS ImageScalars float
LOOKUP_TABLE default
0 0 0 0 0 0 0 0 0 
0 0 0 0 0 0 0 0 0 
0 0 0 0 0 0 0 0 0 
0 0 0 0 0 0 0 0 0 
0 0 0 0 0 0 0 0 0 
0 0 0 0 0 0 0 0 0 
0 0 0 0 0 0 0 0 0 
0 0 0 0 0 0 0 0 0 
0 0 0 0 0 0 0 0 0 
0 0 0 0 0 0 0 0 0 
0 0 0 0 0 0 0 0 0 
0 0 0 0 0 0 0 0 0 
0 0 0 0 0 0 0 0 0 
0 0 0 0 0 0 0 0 0 
0 0 0 0 0 0 0 0 0 
0 0 0 0 0 0 0 0 0 
0 0 0 0 0 0 0 0 0 
0 0 0 0 0 0 0 0 0 
0 0 0 0 0 0 0 0 0 
0 0 0 0 0 0 0 0 0 
0 0 0 0 0 0 0 0 0 
0 0 0 0 0 0 0 0 0 
0 0 0 0 0 0 0 0 0 
0 0 0 0 0 0 0 0 0 
0 0 0 0 0 0 0 0 0 
0 0 0 0 0 0 0 0 0 
0 0 0 0 0 0 0 0 0 
0 0 0 0 0 0 0 0 0 
0 0 0 0 0 0 0 0 0 
0 0 0 0 0 0 0 0 0 
0 0 0 0 0 0 0 0 0 
0 0 0 0 0 0 0 0 0 
0 0 0 0 0 0 0 0 0 
0 0 0 0 0 0 0 0 0 
0 0 0 0 0 0 0 0 0 
0 0 0 0 0 0 0 0 0 
0 0 0 0 0 0 0 0 0 
0 0 0 0 0 0 0 0 0 
0 0 0 0 0 0 0 0 0 
0 0 0 0 0 0 0 0 0 
0 0 0 0 0 0 0 0 0 
0 0 0 0 0 0 0 0 0 
0 0 0 0 0 0 0 0 0 
0 0 0 0 0 0 0 0 0 
0 0 0 0 0 0 0 0 0 
0 0 0 0 0 0 0 0 0 
0 0 0 0 0 0 0 0 0 
0 0 0 0 0 0 0 0 0 
0 0 0 0 0 0 0 0 0 
0 0 0 0 0 0 0 0 0 
0 0 0 0 0 0 0 0 0 
0 0 0 0 0 0 0 0 0 
0 0 0 0 0 0 0 0 0 
0 0 0 0 0 0 0 0 0 
0 0 0 0 0 0 0 0 0 
0 0 0 0 0 0 0 0 0 
0 0 0 0 0 0 0 0 0 
0 0 0 0 0 0 0 0 0 
0 0 
NORMALS Normals float
0.247063 0.540109 0.804513 0.0510901 0.462464 0.885165 -0.12141 0.440418 0.889546 
-0.11121 0.417319 0.90193 -0.105772 0.435578 0.893915 0.359261 0.415711 0.835534 
0.211915 0.265785 0.940452 0.120221 0.162981 0.979277 0.0044828 0.0782264 0.996926 
-0.100599 0.102853 0.989596 -0.124643 0.147118 0.981234 -0.0959643 0.151781 0.983745 
-0.0356949 0.161131 0.986287 0.00489187 0.2477 0.968825 -0.0620952 0.361651 0.930243 
-0.200672 0.468411 0.86042 0.405846 0.301662 0.862722 0.200372 0.213386 0.9562 
0.0654993 0.1034 0.992481 0.0340804 -0.018184 0.999254 -0.0055767 -0.0860927 0.996271 
-0.0440256 0.00869585 0.998993 -0.0848763 0.0563744 0.994795 -0.103145 0.161031 0.981545 
-0.0213151 0.00199277 0.999771 0.100659 0.0161788 0.994789 0.0322216 0.116252 0.992697 
-0.084101 0.198482 0.97649 -0.167126 0.31526 0.934173 -0.411982 0.463427 0.784542 
0.308368 0.124522 0.943082 0.135738 0.0417135 0.989866 0.000397145 0.00915655 0.999958 
-0.0705396 -0.073745 0.994779 0.0315199 -0.070238 0.997032 0.0423099 0.14669 0.988277 
0.0326465 -0.0992986 0.994522 -0.129033 0.183412 0.974531 -0.189073 0.0523103 0.980569 
0.113293 -0.0502754 0.992289 0.131337 -0.0318518 0.990826 0.034703 0.0537787 0.99795 
-0.133556 0.0972384 0.986259 -0.354276 0.103058 0.929445 0.485239 0.0233022 0.874071 
0.228457 0.024 0.973258 0.0724275 0.00398259 0.997366 -0.0533323 -0.0190973 0.998394 
-0.0480268 -0.0304311 0.998382 0.218391 -0.0318805 0.97534 -0.0404589 0.072822 0.996524 
-0.110974 -0.0283359 0.993419 0.162809 0.0511148 0.985333 -0.297936 0.172056 0.938952 
0.0196438 0.0426238 0.998898 0.134261 -0.00542117 0.990931 0.0445665 -0.034983 0.998394 
-0.124313 -0.0647597 0.990127 -0.353234 -0.0647297 0.933293 0.272685 -0.0347722 0.961475 
0.0985727 -0.0121342 0.995056 -0.0363933 0.0518129 0.997993 -0.081799 0.0866088 0.992879 
0.106123 0.047837 0.993202 0.0768264 -0.215944 0.973378 0.0196912 0.148604 0.988701 
0.0124298 -0.1855 0.982566 -0.201389 0.0169511 0.979365 -0.0299548 0.181684 0.982901 
0.0539455 0.0706517 0.996041 -0.0245935 -0.0333894 0.99914 -0.156318 -0.16452 0.973909 
-0.371583 -0.26114 0.890916 0.362959 -0.162842 0.917466 0.163317 -0.0603761 0.984724 
0.0492668 -0.0051154 0.998773 -0.0545541 0.0659936 0.996328 -0.0681707 0.135734 0.988397 
0.0145763 -0.0410356 0.999051 -0.0148685 0.0357626 0.99925 -0.00970739 -0.0735678 0.997243 
0.0896845 0.0319429 0.995458 0.0152532 0.18185 0.983208 -0.0773899 0.114497 0.990405 
-0.185628 -0.0246249 0.982311 -0.334927 -0.243478 0.910243 0.444899 -0.439299 0.780437 
0.277128 -0.256883 0.925857 0.0918011 -0.133603 0.986774 0.0605111 -0.056705 0.996556 
-0.000501297 0.0304895 0.999535 -0.0358624 0.0473254 0.998236 -0.016874 0.0262882 0.999512 
0.00338915 0.0590548 0.998249 0.0854735 0.00557215 0.996325 0.0496237 -0.0080826 0.998735 
-0.161036 -0.0722104 0.984303 -0.377354 -0.212824 0.901282 0.421184 -0.554145 0.718002 
0.241047 -0.437653 0.866231 0.107313 -0.314563 0.943151 0.0368025 -0.295821 0.954534 
0.0169881 -0.191256 0.981393 -0.00351668 -0.141428 0.989942 -0.0294088 -0.159088 0.986826 
0.00964344 -0.25427 0.967085 -0.0709473 -0.353296 0.932818 -0.284592 -0.472374 0.834188 
0.146058 -0.6214 0.769759 0.0176953 -0.563545 0.825896 -0.132672 -0.607929 0.782828 
-0.16198 -0.764073 0.624463 0.267581 0.685284 0.677338 0.0732839 0.756492 0.649885 
-0.0897441 0.678593 0.729011 0.0379938 0.995277 0.08933 -0.104148 0.553442 0.82635 
-0.113685 0.510459 0.852354 0.388522 0.495684 0.776755 0.341328 0.62925 0.69824 
0.344785 0.595428 0.725665 0.371189 0.695366 0.615373 -0.134223 0.482647 0.865469 
-0.131894 0.454478 0.880939 -0.149042 0.515433 0.843869 -0.0702949 0.475397 0.876958 
-0.163657 0.712714 0.682096 -0.115341 0.54262 0.832022 -0.242171 0.846648 0.473857 
-0.229922 0.531962 0.814955 0.396014 0.459732 0.794871 0.426998 0.380445 0.820326 
0.548015 0.645304 0.532224 -0.260029 0.540185 0.800366 -0.287023 0.531213 0.797139 
-0.368658 0.693262 0.619257 -0.417174 0.480835 0.771209 0.461617 0.316202 0.82881 
0.705877 0.460196 0.538477 -0.428011 0.465959 0.774396 -0.775466 0.565224 0.28138 
0.46482 0.204681 0.861422 0.487634 0.0351296 0.872341 0.544206 0.260663 0.79743 
-0.543109 0.124246 0.830419 -0.75035 0.153278 0.643025 0.489008 0.0232963 0.871968 
0.94551 -0.00855966 0.32548 0.489839 0.00971392 0.871759 -0.52351 -0.0724801 0.848931 
-0.699623 -0.0531905 0.71253 0.488933 -0.121668 0.863795 0.558795 -0.157999 0.814116 
-0.45394 -0.27308 0.848154 -0.424195 -0.33299 0.842126 -0.687362 -0.294971 0.663721 
0.544966 -0.208622 0.812089 0.720439 -0.333847 0.607877 -0.409047 -0.313513 0.856966 
-0.467862 -0.346789 0.812922 -0.524422 -0.454502 0.720006 0.45055 -0.441707 0.775821 
0.44841 -0.445238 0.775043 -0.505982 -0.375002 0.77676 -0.502096 -0.584448 0.637432 
-0.556772 -0.450627 0.697811 0.432088 -0.56096 0.706133 0.423453 -0.569439 0.704576 
0.297436 -0.650315 0.699015 0.187516 -0.734097 0.652641 0.141189 -0.73256 0.665899 
-0.187775 -0.813838 0.549916 -0.489428 -0.611465 0.621748 -0.328682 -0.745039 0.580418 
-0.515296 -0.652598 0.555506 0.20896 -0.872334 0.442005 0.142999 -0.733302 0.664695 
0.143834 -0.742754 0.653932 0.160024 -0.706823 0.689053 0.0206025 -0.72219 0.691388 
-0.152206 -0.722654 0.674244 -0.170843 -0.785621 0.594653 -0.166802 -0.774126 0.61066 
-0.217251 -0.951044 0.219813 0.0387087 0.9957 0.0841594 0.337099 0.930926 0.140501 
0.23639 0.969435 0.065697 0.0429355 0.995825 0.0805587 0.135475 0.990709 0.0119253 
0.00460712 0.993908 0.11012 0.040647 0.99617 0.0774208 -0.0569235 0.985803 0.157959 
-0.136353 0.962037 0.236417 -0.182414 0.943799 0.275623 -0.222346 0.934212 0.278944 
-0.297638 0.930509 0.213457 0.575879 0.74531 0.33597 0.428292 0.874762 0.226623 
0.433182 0.870871 0.232244 -0.335164 0.926697 0.169997 -0.353585 0.921334 0.161619 
-0.44582 0.879519 0.166407 0.645239 0.69204 0.323647 0.724121 0.585937 0.363767 
-0.561914 0.81187 0.158493 -0.592828 0.787867 0.166794 -0.77089 0.596899 0.222353 
0.760372 0.513571 0.397591 -0.788984 0.572108 0.224046 0.902023 0.286143 0.323229 
0.951064 0.0387933 0.30655 -0.908322 0.264287 0.324197 0.951842 -0.00946302 0.306441 
0.952739 -0.0362878 0.301616 -0.892818 0.00488664 0.450392 0.932929 -0.204272 0.296508 
-0.811956 -0.355479 0.462993 -0.765476 -0.482841 0.425337 0.845177 -0.431466 0.315456 
0.798463 -0.54973 0.245468 -0.726935 -0.536762 0.428312 -0.613054 -0.699942 0.366395 
-0.846165 -0.532093 0.0296825 0.784158 -0.57866 0.224164 0.638777 -0.741307 0.205982 
-0.61763 -0.713904 0.329962 -0.636879 -0.729022 0.250824 0.621186 -0.75918 0.194353 
0.464578 -0.87496 0.13643 0.303911 -0.948102 0.0934976 -0.316968 -0.948198 0.0212424 
-0.585647 -0.790641 0.17862 -0.484079 -0.867 0.118227 0.285008 -0.954895 0.083346 
0.215821 -0.973878 0.0705858 0.20507 -0.973199 0.104069 0.171918 -0.978523 0.113737 
-0.00728177 -0.995772 0.0915696 -0.211389 -0.975824 0.0555231 -0.2495 -0.968018 0.0262789 
-0.261191 -0.965286 -0.00152707 -0.223149 -0.974737 -0.00959319 -0.216079 -0.968577 -0.12316 
0.26345 0.946283 -0.187461 0.167362 0.950306 -0.262503 0.14119 0.943702 -0.299152 
0.126369 0.963142 -0.237463 0.0272233 0.9851 -0.169812 -0.0957809 0.987218 -0.127381 
-0.180466 0.975758 -0.12381 -0.25402 0.958166 -0.13188 -0.326409 0.926564 -0.186914 
0.540311 0.833717 -0.113931 0.323231 0.932397 -0.161735 0.335331 0.928363 -0.160294 
-0.363399 0.909517 -0.201792 -0.356911 0.878727 -0.316945 -0.400109 0.885851 -0.234905 
-0.446135 0.851576 -0.275284 0.649658 0.751595 -0.114234 0.743094 0.659398 -0.114043 
-0.487475 0.826452 -0.281685 -0.446047 0.78058 -0.437877 -0.52881 0.796703 -0.292617 
-0.75284 0.59938 -0.271984 0.85269 0.514385 -0.0912559 0.662724 0.46573 -0.586423 
-0.754352 0.597614 -0.27168 -0.752767 0.598254 -0.274652 0.941068 0.273117 -0.199496 
0.972301 0.112956 -0.204628 -0.917042 0.365308 -0.159949 -0.663132 0.427864 -0.614157 
0.980806 -0.0168986 -0.194254 0.974095 -0.0876935 -0.208443 0.965884 -0.0175751 -0.258378 
-0.992962 0.0598344 -0.102206 0.951626 -0.219857 -0.214642 -0.93478 -0.340305 -0.101878 
0.857627 -0.461103 -0.227729 0.793554 -0.564349 -0.227557 0.685838 -0.431018 -0.586387 
-0.591833 -0.805387 -0.0329291 -0.850071 -0.525712 -0.0317262 -0.843199 -0.536675 -0.0315436 
-0.847695 -0.525347 -0.0736451 0.769164 -0.594809 -0.233644 0.58815 -0.763599 -0.26645 
-0.591293 -0.805777 -0.0330966 -0.516317 -0.850877 -0.0970833 0.536039 -0.799246 -0.271787 
0.427736 -0.859359 -0.280256 0.416636 -0.751104 -0.512111 0.287766 -0.922893 -0.255849 
-0.206082 -0.941514 -0.266612 -0.270134 -0.934342 -0.232448 -0.463671 -0.87483 -0.140289 
-0.40741 -0.896493 -0.174117 0.236445 -0.931209 -0.277388 0.221105 -0.932209 -0.286529 
0.219881 -0.919163 -0.326791 0.215028 -0.943789 -0.25105 0.224479 -0.877415 -0.423972 
0.167808 -0.956977 -0.23672 -0.0401484 -0.966163 -0.254788 -0.234876 -0.932473 -0.274457 
-0.240111 -0.933157 -0.267514 -0.264191 -0.926393 -0.268327 -0.249768 -0.916175 -0.313433 
0.232243 0.88409 -0.405521 0.111577 0.878798 -0.463966 0.152096 0.891094 -0.427572 
0.156786 0.902723 -0.400637 0.045716 0.918452 -0.392881 -0.0861413 0.91172 -0.40168 
-0.173669 0.900188 -0.399376 -0.269612 0.881601 -0.387413 0.542485 0.648645 -0.533825 
0.254653 0.874548 -0.412696 0.37341 0.79074 -0.485073 0.23481 0.864502 -0.44441 
0.113693 0.837939 -0.53379 0.167163 0.801887 -0.573615 0.147243 0.721216 -0.676881 
0.0165282 0.666242 -0.745552 -0.0942481 0.665895 -0.740068 -0.154566 0.738242 -0.656588 
-0.331028 0.847995 -0.413914 -0.266136 0.812675 -0.518393 -0.380026 0.811736 -0.443469 
-0.407521 0.738309 -0.537426 0.551552 0.642434 -0.532042 0.540743 0.640485 -0.545322 
0.351288 0.581183 -0.734046 -0.420352 0.722756 -0.548569 -0.404914 0.667507 -0.624884 
-0.42614 0.701936 -0.570693 -0.501581 0.650661 -0.570138 0.636094 0.452347 -0.625113 
0.647306 0.431683 -0.628208 0.483724 0.308212 -0.819156 -0.350601 0.532302 -0.770541 
-0.518475 0.637061 -0.570383 -0.485999 0.632846 -0.602753 0.758668 0.202026 -0.619361 
0.627616 0.215206 -0.748187 0.373728 0.0636574 -0.925351 -0.654472 0.428143 -0.623185 
-0.459506 0.342118 -0.81964 -0.661317 0.419326 -0.621953 0.768998 -0.0247262 -0.638772 
0.572591 -0.0324824 -0.819198 0.336067 -0.0291908 -0.941386 -0.839921 0.0908464 -0.535052 
-0.701204 0.13981 -0.699118 0.727819 -0.240901 -0.642065 0.665595 -0.389623 -0.636536 
0.623113 -0.231874 -0.74697 0.378619 -0.121337 -0.917565 -0.838609 -0.257626 -0.479963 
-0.791391 -0.400763 -0.461615 -0.74339 -0.242522 -0.623342 0.651231 -0.413928 -0.636052 
0.458327 -0.290579 -0.83994 -0.735687 -0.511395 -0.444116 -0.58609 -0.699759 -0.408455 
-0.517417 -0.440687 -0.733536 0.572981 -0.544837 -0.612246 0.542076 -0.570474 -0.617019 
0.5271 -0.537196 -0.658472 0.397902 -0.697327 -0.596162 0.323803 -0.449264 -0.832655 
0.197941 -0.383861 -0.901926 -0.541091 -0.74052 -0.39856 -0.474095 -0.782269 -0.40409 
-0.442187 -0.627853 -0.640524 0.363261 -0.714035 -0.598494 0.269365 -0.736743 -0.620203 
0.252809 -0.650126 -0.716536 0.208867 -0.778484 -0.591892 0.199448 -0.604796 -0.771001 
0.228481 -0.810782 -0.538915 0.17745 -0.496302 -0.849821 -0.203102 -0.870618 -0.448077 
-0.0973961 -0.567126 -0.817852 -0.179106 -0.888377 -0.422738 -0.133687 -0.681002 -0.719975 
-0.249887 -0.874662 -0.41536 -0.228962 -0.754604 -0.614938 -0.380603 -0.832546 -0.402502 
-0.379581 -0.832907 -0.402721 -0.379405 -0.83152 -0.405743 0.185497 -0.838128 -0.512964 
0.153076 -0.847108 -0.508897 0.15302 -0.816062 -0.55734 -0.0448859 -0.854285 -0.517864 
-0.03903 -0.799574 -0.599298 -0.196102 -0.85089 -0.487372 -0.195554 -0.849285 -0.490381 
-0.194369 -0.846535 -0.49558 0.221057 0.463083 -0.858305 0.124267 0.516026 -0.847511 
0.14593 0.528142 -0.836523 0.138659 0.610594 -0.779711 0.0158705 0.658012 -0.75284 
-0.0902585 0.587618 -0.804089 -0.121549 0.550583 -0.825884 -0.207101 0.514841 -0.831894 
-0.333947 0.493936 -0.802811 0.23046 0.459427 -0.857797 0.273086 0.358427 -0.892723 
0.218481 0.450345 -0.865711 0.112892 0.412387 -0.903987 0.116559 0.329886 -0.936797 
0.11088 0.281278 -0.953199 -0.00601652 0.265614 -0.964061 -0.0755291 0.247377 -0.965971 
-0.07683 0.291985 -0.953332 -0.169362 0.359608 -0.917605 -0.33399 0.493861 -0.80284 
-0.333859 0.493685 -0.803002 -0.316165 0.416475 -0.852401 0.362982 0.259633 -0.894894 
0.235381 0.229712 -0.944366 0.135463 0.164989 -0.976949 0.0419893 0.109188 -0.993134 
0.0539269 0.0709176 -0.996023 0.0807689 0.0477349 -0.995589 -0.0202853 0.0333535 -0.999238 
-0.0650276 0.0670353 -0.995629 -0.0310866 0.0774216 -0.996514 -0.0650245 0.0984168 -0.993019 
-0.165713 0.224306 -0.960326 -0.304858 0.408889 -0.860158 -0.295714 0.383088 -0.875098 
-0.28353 0.390457 -0.875873 0.326328 0.0442409 -0.944221 0.211401 0.0347371 -0.976782 
0.0804322 0.0079094 -0.996729 0.0268406 -0.00961205 -0.999593 0.0595262 0.0321402 -0.997709 
0.0759229 0.0673261 -0.994838 0.0106579 -0.118279 -0.992923 -0.0363579 0.0836047 -0.995835 
-0.0485514 0.0349571 -0.998209 -0.0128011 -0.00797692 -0.999886 -0.0347054 0.0772855 -0.996405 
-0.134067 0.210265 -0.968408 -0.351782 0.323313 -0.878475 -0.260251 0.320147 -0.91092 
-0.417302 0.184998 -0.889738 0.313766 -0.0295574 -0.94904 0.189725 -0.0360474 -0.981175 
0.0811662 -0.0271863 -0.99633 0.0674783 -0.0121197 -0.997647 0.127662 0.012996 -0.991733 
-0.0683989 0.0118933 -0.997587 -0.00896026 -0.0699668 -0.997509 0.0980872 0.0593266 -0.993408 
-0.130235 -0.0694991 -0.989044 -0.0224755 -0.0570164 -0.99812 0.0522551 0.011328 -0.998569 
-0.0481954 0.0810084 -0.995548 -0.203002 0.130111 -0.970495 -0.427478 0.134349 -0.893987 
-0.401696 0.133011 -0.906062 0.297005 -0.0967083 -0.949966 0.215004 -0.0921181 -0.972259 
0.104848 -0.0586886 -0.992755 0.0665643 -0.0434226 -0.996837 0.0831993 -0.116624 -0.989685 
-0.000899452 -0.149573 -0.98875 0.0585702 0.133582 -0.989305 -0.03659 -0.0354095 -0.998703 
-0.169664 -0.0870529 -0.98165 0.0706974 -0.0199488 -0.997298 0.111614 -0.0307109 -0.993277 
-0.0213204 -0.041259 -0.998921 -0.19931 -0.0746483 -0.977089 -0.501326 -0.119711 -0.856937 
-0.480644 -0.237071 -0.844262 -0.451472 -0.105966 -0.885971 0.264908 -0.230381 -0.936348 
0.244753 -0.248744 -0.937135 0.237141 -0.224037 -0.945289 0.182241 -0.339101 -0.922929 
0.135246 -0.181896 -0.973972 0.01008 -0.145293 -0.989337 0.0252995 -0.146137 -0.988941 
0.170613 -0.12997 -0.976729 0.111392 0.0036553 -0.99377 -0.127622 -0.127081 -0.983648 
-0.106452 -0.0138962 -0.994221 0.0307113 -0.0134922 -0.999437 0.0257026 -0.103835 -0.994262 
-0.102791 -0.225647 -0.968771 -0.392925 -0.395264 -0.830287 -0.327526 -0.456979 -0.82698 
-0.264727 -0.351249 -0.898078 0.159382 -0.348729 -0.923572 0.122689 -0.356362 -0.926258 
0.100501 -0.300489 -0.948476 0.124832 -0.328688 -0.936152 0.0899675 -0.204209 -0.974784 
0.14799 -0.162711 -0.975512 0.063722 -0.242192 -0.968134 -0.0649549 -0.246177 -0.967046 
-0.0869692 -0.5056 -0.858374 -0.0470246 -0.184156 -0.981771 -0.093225 -0.501406 -0.860175 
-0.024121 -0.225341 -0.973981 -0.150742 -0.50471 -0.850026 -0.102638 -0.344126 -0.933297 
-0.295691 -0.494292 -0.817461 -0.266675 -0.508715 -0.818593 -0.24883 -0.457471 -0.8537 
0.132056 -0.413827 -0.900727 0.131612 -0.414566 -0.900452 0.131499 -0.412749 -0.901303 
0.00777657 -0.487403 -0.873143 0.0148221 -0.441541 -0.897119 -0.0788913 -0.52066 -0.850111 
-0.0741736 -0.51319 -0.855064 -0.0696379 -0.498962 -0.863821 
