# vtk DataFile Version 4.2
vtk output
ASCII
DATASET POLYDATA
POINTS 552 float
42.6192 -5.35488 -23.1139 51.2729 -5.35488 -23.6261 42.6192 3.29891 -23.1013 
33.9654 -31.3163 -15.4449 42.6192 -31.3163 -15.2897 16.6578 -22.6625 -14.2951 
25.3116 -22.6625 -17.5896 33.9654 -22.6625 -19.3778 42.6192 -22.6625 -19.5827 
51.2729 -22.6625 -18.0209 -43.9187 -14.0087 -15.2038 -35.265 -14.0087 -14.7799 
-9.30358 -14.0087 -14.0164 -0.649794 -14.0087 -15.7306 8.004 -14.0087 -14.4438 
16.6578 -14.0087 -16.8906 25.3116 -14.0087 -19.9183 33.9654 -14.0087 -21.134 
42.6192 -9.25232 -22.6324 42.6192 -14.0087 -22.0323 51.2729 -10.0027 -22.6324 
51.2729 -14.0087 -21.4391 59.9267 -14.0087 -17.0877 -52.5725 -5.35488 -16.4782 
-43.9187 -5.35488 -17.4485 -35.265 -5.35488 -17.0924 -26.6112 -5.35488 -16.0334 
-17.9574 -5.35488 -15.0939 -9.30358 -5.35488 -18.6978 -0.649794 -5.35488 -14.1365 
8.004 -5.35488 -19.4837 16.6578 -5.35488 -17.0233 25.3116 -5.35488 -19.4669 
39.7266 -5.35488 -22.6324 33.9654 -5.35488 -21.6783 53.697 -5.35488 -22.6324 
51.2729 0.187767 -22.6324 59.9267 -5.35488 -19.502 -61.2263 3.29891 -15.5218 
-52.5725 3.29891 -17.9758 -43.9187 3.29891 -19.132 -35.265 3.29891 -19.0749 
-26.6112 3.29891 -17.6955 -17.9574 3.29891 -15.7251 -9.30358 3.29891 -18.5635 
-0.649794 3.29891 -16.2459 8.004 3.29891 -20.6395 16.6578 3.29891 -17.9472 
25.3116 3.29891 -20.0277 39.3339 3.29891 -22.6324 33.9654 3.29891 -21.868 
46.1512 3.29891 -22.6324 42.6192 7.82764 -22.6324 51.2729 3.29891 -22.0021 
59.9267 3.29891 -19.4067 -61.2263 11.9527 -15.6748 -52.5725 11.9527 -19.0779 
-43.9187 11.9527 -19.8653 -35.265 11.9527 -20.0065 -26.6112 11.9527 -18.3616 
-17.9574 11.9527 -16.406 -9.30358 11.9527 -16.8396 -0.649794 11.9527 -17.6015 
8.004 11.9527 -17.9521 16.6578 11.9527 -20.0482 25.3116 11.9527 -21.1784 
33.9654 11.9527 -22.1447 42.6192 11.9527 -22.2007 51.2729 11.9527 -21.3667 
59.9267 11.9527 -16.8749 -52.5725 20.6065 -18.8038 -43.9187 20.6065 -21.1762 
-35.265 20.6065 -19.7207 -26.6112 20.6065 -19.3832 -17.9574 20.6065 -17.7251 
-9.30358 20.6065 -17.2992 -0.649794 20.6065 -17.9485 8.004 20.6065 -18.6907 
16.6578 20.6065 -20.6225 25.3116 20.6065 -21.9826 33.9654 20.6065 -22.6158 
42.6192 20.6065 -20.8166 51.2729 20.6065 -18.1863 -52.5725 29.2603 -15.9908 
-43.9187 29.2603 -18.0003 -35.265 29.2603 -20.0352 -26.6112 29.2603 -18.2334 
-17.9574 29.2603 -18.4913 -9.30358 29.2603 -18.4547 -0.649794 29.2603 -19.3053 
8.004 29.2603 -19.9828 16.6578 29.2603 -20.6159 25.3116 29.2603 -21.7848 
33.9654 29.2603 -20.5854 42.6192 29.2603 -18.3595 -35.265 37.9141 -16.117 
-26.6112 37.9141 -16.5342 -17.9574 37.9141 -18.2203 -9.30358 37.9141 -17.8637 
-0.649794 37.9141 -19.1354 8.004 37.9141 -19.5901 16.6578 37.9141 -19.3601 
25.3116 37.9141 -18.8147 33.9654 37.9141 -17.2922 -9.30358 46.5679 -15.675 
-0.649794 46.5679 -15.9053 8.004 46.5679 -16.7789 16.6578 46.5679 -15.3519 
33.9654 -32.9915 -13.9786 33.9654 -39.97 -6.22129 42.6192 -32.983 -13.9786 
-43.9187 -31.3163 -8.29088 -35.265 -31.3163 -8.44102 -26.6112 -31.3163 -8.93485 
-17.9574 -31.3163 -8.42456 -9.30358 -31.3163 -7.89852 -0.649794 -31.3163 -7.90537 
8.004 -31.3163 -7.82322 16.6578 -23.3657 -13.9786 16.6578 -31.3163 -10.1597 
26.8812 -31.3163 -13.9786 25.3116 -30.6919 -13.9786 25.3116 -31.3163 -13.621 
47.2692 -31.3163 -13.9786 51.2729 -29.4763 -13.9786 51.2729 -31.3163 -11.4043 
-52.5725 -22.6625 -9.27566 -43.9187 -16.7537 -13.9786 -43.9187 -22.6625 -11.1637 
-35.265 -17.0698 -13.9786 -35.265 -22.6625 -12.4199 -26.6112 -22.6625 -11.8141 
-17.9574 -22.6625 -11.4831 -9.30358 -14.1133 -13.9786 -9.30358 -22.6625 -11.3996 
-0.649794 -18.5333 -13.9786 -0.649794 -22.6625 -12.2647 15.7699 -22.6625 -13.9786 
8.004 -15.1965 -13.9786 8.004 -22.6625 -11.4111 58.3216 -22.6625 -13.9786 
59.9267 -20.579 -13.9786 59.9267 -22.6625 -10.8645 -61.2263 -14.0087 -8.69598 
-47.8269 -14.0087 -13.9786 -52.5725 -10.7641 -13.9786 -52.5725 -14.0087 -12.3332 
-29.2877 -14.0087 -13.9786 -26.6112 -12.7511 -13.9786 -26.6112 -14.0087 -13.6252 
-9.49315 -14.0087 -13.9786 -17.9574 -8.86382 -13.9786 -17.9574 -14.0087 -12.686 
63.6452 -14.0087 -13.9786 -57.9049 -5.35488 -13.9786 -61.2263 -0.317357 -13.9786 
-61.2263 -5.35488 -11.8701 67.544 -5.35488 -13.9786 68.5805 -5.35488 -11.036 
-63.4379 3.29891 -13.9786 -69.8801 3.29891 -6.00689 67.5737 3.29891 -13.9786 
68.5805 3.29891 -10.6554 -63.517 11.9527 -13.9786 -61.2263 19.2943 -13.9786 
63.4857 11.9527 -13.9786 59.9267 18.2695 -13.9786 -60.8822 20.6065 -13.9786 
-61.2263 20.6065 -13.4524 58.2412 20.6065 -13.9786 51.2729 27.2018 -13.9786 
59.9267 20.6065 -9.64512 -55.8834 29.2603 -13.9786 -52.5725 32.5197 -13.9786 
-43.9187 36.9026 -13.9786 49.2708 29.2603 -13.9786 42.6192 35.8498 -13.9786 
51.2729 29.2603 -9.77736 -42.269 37.9141 -13.9786 -43.9187 37.9141 -11.5214 
-35.265 40.4899 -13.9786 -26.6112 41.7785 -13.9786 -17.9574 45.3914 -13.9786 
25.3116 45.384 -13.9786 40.0645 37.9141 -13.9786 33.9654 41.8848 -13.9786 
42.6192 37.9141 -9.39951 -26.6112 46.5679 -6.49847 -15.8021 46.5679 -13.9786 
-17.9574 46.5679 -12.2188 -9.30358 48.4538 -13.9786 -0.649794 48.5976 -13.9786 
8.004 49.3119 -13.9786 21.9031 46.5679 -13.9786 16.6578 47.8533 -13.9786 
25.3116 46.5679 -11.3966 33.9654 -40.6656 -5.32486 -43.9187 -34.7942 -5.32486 
-43.9187 -39.97 2.1524 -35.265 -36.1805 -5.32486 -35.265 -39.97 -1.60586 
-26.6112 -36.9888 -5.32486 -26.6112 -39.97 -2.54695 -17.9574 -36.8413 -5.32486 
-17.9574 -39.97 -2.86356 -9.30358 -35.9214 -5.32486 -9.30358 -39.97 -2.75393 
-0.649794 -35.7856 -5.32486 -0.649794 -39.97 -2.50378 8.004 -35.3835 -5.32486 
8.004 -39.97 -1.49483 16.6578 -37.3477 -5.32486 16.6578 -39.97 -2.15102 
28.5365 -39.97 -5.32486 25.3116 -39.5139 -5.32486 25.3116 -39.97 -4.60177 
37.9781 -39.97 -5.32486 42.6192 -39.2277 -5.32486 42.6192 -39.97 -0.318028 
51.2729 -34.2659 -5.32486 -49.5707 -31.3163 -5.32486 -52.5725 -27.9021 -5.32486 
-52.5725 -31.3163 -2.33717 54.6419 -31.3163 -5.32486 59.9267 -25.1567 -5.32486 
-57.7197 -22.6625 -5.32486 -61.2263 -19.5015 -5.32486 -61.2263 -22.6625 -0.449785 
61.9285 -22.6625 -5.32486 59.9267 -22.6625 1.78213 -64.7377 -14.0087 -5.32486 
66.6722 -14.0087 -5.32486 68.5805 -9.22975 -5.32486 -67.8821 -5.35488 -5.32486 
-69.8801 1.90505 -5.32486 70.0197 -5.35488 -5.32486 68.5805 -5.35488 0.302317 
-70.1792 3.29891 -5.32486 -69.8801 5.44923 -5.32486 -69.8801 3.29891 -3.78887 
69.6605 3.29891 -5.32486 68.5805 6.84864 -5.32486 68.5805 3.29891 -1.08815 
-69.0112 11.9527 -5.32486 66.8302 11.9527 -5.32486 -65.3792 20.6065 -5.32486 
-61.2263 26.6524 -5.32486 -61.2263 20.6065 2.41171 61.1152 20.6065 -5.32486 
59.9267 21.917 -5.32486 59.9267 20.6065 -2.0177 -58.8102 29.2603 -5.32486 
-52.5725 34.5848 -5.32486 -52.5725 29.2603 1.50122 52.9747 29.2603 -5.32486 
51.2729 30.9489 -5.32486 51.2729 29.2603 -1.2567 -46.7319 37.9141 -5.32486 
-43.9187 39.5035 -5.32486 -43.9187 37.9141 -3.25386 -35.265 43.6537 -5.32486 
-35.265 37.9141 1.42612 33.9654 44.9162 -5.32486 44.132 37.9141 -5.32486 
42.6192 39.2256 -5.32486 42.6192 37.9141 -1.86015 -28.0208 46.5679 -5.32486 
-26.6112 46.9975 -5.32486 -26.6112 46.5679 -4.30662 -17.9574 49.0247 -5.32486 
-17.9574 46.5679 -1.75484 -9.30358 50.9651 -5.32486 -9.30358 46.5679 1.92209 
-0.649794 52.0894 -5.32486 8.004 51.3595 -5.32486 8.004 46.5679 2.99934 
16.6578 50.0806 -5.32486 16.6578 46.5679 1.86778 30.0207 46.5679 -5.32486 
25.3116 48.445 -5.32486 25.3116 46.5679 -0.609504 -43.9187 -40.7249 3.32893 
-35.265 -43.187 3.32893 -26.6112 -44.7289 3.32893 -17.9574 -44.9924 3.32893 
-9.30358 -45.3829 3.32893 -9.30358 -48.6238 10.8554 -0.649794 -45.8091 3.32893 
8.004 -43.9537 3.32893 16.6578 -42.9995 3.32893 25.3116 -43.5951 3.32893 
33.9654 -43.2686 3.32893 42.6192 -40.467 3.32893 -45.1984 -39.97 3.32893 
-52.5725 -35.015 3.32893 43.4266 -39.97 3.32893 42.6192 -39.97 4.79573 
51.2729 -33.6857 3.32893 -56.2549 -31.3163 3.32893 -61.2263 -24.7429 3.32893 
53.3974 -31.3163 3.32893 51.2729 -31.3163 7.24643 -62.5142 -22.6625 3.32893 
-61.2263 -22.6625 7.28034 59.4634 -22.6625 3.32893 59.9267 -21.9603 3.32893 
-66.4475 -14.0087 3.32893 64.1653 -14.0087 3.32893 59.9267 -14.0087 8.97445 
-68.439 -5.35488 3.32893 67.6455 -5.35488 3.32893 -68.1076 3.29891 3.32893 
-61.2263 3.29891 11.434 67.2238 3.29891 3.32893 -66.0846 11.9527 3.32893 
-61.2263 19.746 3.32893 -61.2263 11.9527 8.86719 64.2713 11.9527 3.32893 
59.9267 18.1489 3.32893 59.9267 11.9527 8.68408 -60.3069 20.6065 3.32893 
-52.5725 27.2686 3.32893 -52.5725 20.6065 8.45391 -43.9187 20.6065 10.5398 
-26.6112 20.6065 11.9118 -17.9574 20.6065 11.6294 57.7842 20.6065 3.32893 
51.2729 27.1888 3.32893 51.2729 20.6065 9.4024 -49.0028 29.2603 3.32893 
-43.9187 31.7256 3.32893 -43.9187 29.2603 5.3372 -35.265 35.6108 3.32893 
-35.265 29.2603 7.38181 -26.6112 29.2603 8.22477 -17.9574 29.2603 9.03079 
-9.30358 29.2603 10.5795 48.7325 29.2603 3.32893 42.6192 35.0976 3.32893 
42.6192 29.2603 8.18502 -30.8664 37.9141 3.32893 -26.6112 40.2421 3.32893 
-26.6112 37.9141 4.53564 -17.9574 41.2481 3.32893 -17.9574 37.9141 5.59246 
-9.30358 45.1157 3.32893 -9.30358 37.9141 7.62095 -0.649794 37.9141 9.14766 
8.004 46.3182 3.32893 8.004 37.9141 9.82264 16.6578 45.6914 3.32893 
16.6578 37.9141 10.1022 25.3116 44.5564 3.32893 25.3116 37.9141 9.43689 
39.4859 37.9141 3.32893 33.9654 41.4579 3.32893 33.9654 37.9141 7.10261 
-1.78568 46.5679 3.32893 3.00056 46.5679 3.32893 -0.649794 46.7445 3.32893 
-0.649794 46.5679 3.4786 -9.30358 -49.05 11.9827 -43.9187 -40.9916 11.9827 
-35.265 -44.0707 11.9827 -26.6112 -46.3261 11.9827 -14.2627 -48.6238 11.9827 
-17.9574 -48.2861 11.9827 -5.06801 -48.6238 11.9827 -9.30358 -48.6238 13.2007 
-0.649794 -48.1754 11.9827 8.004 -45.2779 11.9827 16.6578 -42.73 11.9827 
25.3116 -41.6412 11.9827 33.9654 -39.9784 11.9827 -45.5714 -39.97 11.9827 
-52.5725 -34.0531 11.9827 -43.9187 -39.97 13.5779 -35.265 -39.97 17.5948 
-26.6112 -39.97 19.7861 8.004 -39.97 19.0223 16.6578 -39.97 15.8258 
25.3116 -39.97 13.9391 33.9905 -39.97 11.9827 33.9654 -39.97 11.9919 
[...]
POINT_DATA 552
SCALARS ImageScalars float
LOOKUP_TABLE default
0 0 0 0 0 0 0 0 0 
0 0 0 0 0 0 0 0 0 
0 0 0 0 0 0 0 0 0 
0 0 0 0 0 0 0 0 0 
0 0 0 0 0 0 0 0 0 
0 0 0 0 0 0 0 0 0 
0 0 0 0 0 0 0 0 0 
0 0 0 0 0 0 0 0 0 
0 0 0 0 0 0 0 0 0 
0 0 0 0 0 0 0 0 0 
0 0 0 0 0 0 0 0 0 
0 0 0 0 0 0 0 0 0 
0 0 0 0 0 0 0 0 0 
0 0 0 0 0 0 0 0 0 
0 0 0 0 0 0 0 0 0 
0 0 0 0 0 0 0 0 0 
0 0 0 0 0 0 0 0 0 
0 0 0 0 0 0 0 0 0 
0 0 0 0 0 0 0 0 0 
0 0 0 0 0 0 0 0 0 
0 0 0 0 0 0 0 0 0 
0 0 0 0 0 0 0 0 0 
0 0 0 0 0 0 0 0 0 
0 0 0 0 0 0 0 0 0 
0 0 0 0 0 0 0 0 0 
0 0 0 0 0 0 0 0 0 
0 0 0 0 0 0 0 0 0 
0 0 0 0 0 0 0 0 0 
0 0 0 0 0 0 0 0 0 
0 0 0 0 0 0 0 0 0 
0 0 0 0 0 0 0 0 0 
0 0 0 0 0 0 0 0 0 
0 0 0 0 0 0 0 0 0 
0 0 0 0 0 0 0 0 0 
0 0 0 0 0 0 0 0 0 
0 0 0 0 0 0 0 0 0 
0 0 0 0 0 0 0 0 0 
0 0 0 0 0 0 0 0 0 
0 0 0 0 0 0 0 0 0 
0 0 0 0 0 0 0 0 0 
0 0 0 0 0 0 0 0 0 
0 0 0 0 0 0 0 0 0 
0 0 0 0 0 0 0 0 0 
0 0 0 0 0 0 0 0 0 
0 0 0 0 0 0 0 0 0 
0 0 0 0 0 0 0 0 0 
0 0 0 0 0 0 0 0 0 
0 0 0 0 0 0 0 0 0 
0 0 0 0 0 0 0 0 0 
0 0 0 0 0 0 0 0 0 
0 0 0 0 0 0 0 0 0 
0 0 0 0 0 0 0 0 0 
0 0 0 0 0 0 0 0 0 
0 0 0 0 0 0 0 0 0 
0 0 0 0 0 0 0 0 0 
0 0 0 0 0 0 0 0 0 
0 0 0 0 0 0 0 0 0 
0 0 0 0 0 0 0 0 0 
0 0 0 0 0 0 0 0 0 
0 0 0 0 0 0 0 0 0 
0 0 0 0 0 0 0 0 0 
0 0 0 
NORMALS Normals float
0.11866 0.0616872 0.991017 -0.188498 0.0129043 0.981989 0.0050431 -0.0521214 0.998628 
0.0813565 0.575642 0.813645 -0.122784 0.580061 0.805266 0.329568 0.334867 0.882751 
0.258855 0.317082 0.912389 0.108109 0.285721 0.952195 -0.0709545 0.353598 0.932702 
-0.312258 0.421757 0.851244 0.124359 0.335283 0.933874 -0.0899844 0.262774 0.960652 
0.183294 0.411663 0.892713 0.0204434 0.122904 0.992208 0.0627486 0.415092 0.907613 
0.28662 0.139 0.947907 0.233211 0.0975626 0.96752 0.117149 0.126462 0.98503 
0.0794011 0.121167 0.989451 0.0208296 0.194012 0.980778 -0.226324 0.179428 0.957383 
-0.259449 0.32484 0.909486 -0.564008 0.327578 0.758015 0.257315 0.28718 0.922668 
0.0399652 0.239491 0.970076 -0.0800921 0.242744 0.966778 -0.10554 0.22665 0.968241 
0.152172 0.187915 0.970326 -0.0227836 0.231734 0.972512 0.00311563 0.00908724 0.999954 
0.0920859 0.333545 0.938226 0.0256871 0.0613213 0.997787 0.266757 0.00630467 0.963743 
0.151423 0.0538697 0.987 0.203823 0.0412481 0.978139 -0.26372 0.0402785 0.963758 
-0.192763 -0.0731465 0.978515 -0.490982 0.113705 0.863718 0.456834 0.194762 0.867969 
0.178141 0.153337 0.971984 0.0596644 0.134267 0.989147 -0.0817968 0.165243 0.982855 
-0.183257 0.13472 0.97379 -0.00386683 0.0752673 0.997156 0.04908 -0.107531 0.99299 
0.161238 0.201378 0.966152 0.060263 -0.108512 0.992267 -0.0179494 0.182061 0.983123 
0.223487 0.0984598 0.969721 0.068344 -0.0222699 0.997413 0.170971 0.0265785 0.984917 
-0.0785442 -0.0834908 0.993408 -0.0159728 -0.0943061 0.995415 -0.193433 -0.125604 0.97304 
-0.448307 -0.13104 0.884223 0.523021 -0.0806508 0.848496 0.199184 0.0425209 0.979039 
0.0498846 0.108879 0.992803 -0.0857379 0.0366743 0.995642 -0.203687 0.0862997 0.975225 
-0.0915176 0.110695 0.989632 0.0735384 -0.0453313 0.996262 0.0599343 0.0884377 0.994277 
0.145638 -0.0976729 0.984505 0.175213 0.146348 0.973593 0.120048 0.109715 0.986687 
0.0582878 0.0417077 0.997428 -0.0385922 -0.13248 0.990434 -0.285591 -0.217304 0.93339 
-0.570473 -0.320127 0.756359 0.316899 -0.128018 0.93978 0.0836433 -0.0984003 0.991626 
-0.0915052 -0.000779203 0.995804 -0.124531 -0.00776265 0.992185 -0.104196 0.11793 0.98754 
0.0106516 0.0887638 0.995996 0.0792605 0.0987673 0.991949 0.150657 0.117004 0.981638 
0.183572 0.0327317 0.982461 0.109558 0.0350411 0.993363 -0.0653422 -0.0921867 0.993595 
-0.229488 -0.199925 0.952557 -0.391923 -0.430034 0.813306 0.410554 -0.517075 0.751052 
0.206204 -0.376924 0.903 0.00249265 -0.230216 0.973136 -0.077891 -0.143521 0.986577 
0.012778 0.0318297 0.999412 0.0469376 0.0336165 0.998332 0.0877548 0.0639281 0.994089 
0.0754282 0.0480072 0.995995 0.100205 -0.0683704 0.992615 -0.00468935 -0.171613 0.985153 
-0.173132 -0.268797 0.947509 -0.411284 -0.441394 0.797506 0.14391 -0.616589 0.774021 
0.128461 -0.40907 0.903416 0.0694895 -0.297121 0.952308 0.0557566 -0.165117 0.984697 
0.101372 -0.166852 0.980757 0.0134447 -0.179287 0.983705 -0.0456812 -0.281328 0.958524 
-0.108247 -0.428968 0.89681 -0.332813 -0.538604 0.774042 0.151945 -0.590653 0.792491 
0.0702135 -0.625456 0.777094 -0.0337637 -0.644001 0.764279 -0.202413 -0.727076 0.656041 
0.0782873 0.62357 0.777838 -0.0123075 0.846229 0.532678 -0.136108 0.646279 0.750865 
0.246989 0.502302 0.828667 0.0351883 0.475298 0.879121 -0.000916207 0.434627 0.90061 
-0.0553952 0.422746 0.904553 -0.028787 0.445085 0.895026 -0.00392773 0.478978 0.877818 
0.104612 0.458258 0.882641 0.327996 0.347059 0.878617 0.268365 0.512991 0.815365 
0.22306 0.547787 0.806334 0.254541 0.52138 0.814477 0.250902 0.541251 0.802555 
-0.296733 0.659439 0.690717 -0.42943 0.64639 0.63069 -0.503783 0.727789 0.465323 
0.396612 0.478615 0.783343 0.111678 0.349002 0.930444 0.126128 0.367798 0.921312 
-0.0468874 0.289536 0.956018 0.0381656 0.338516 0.940187 -0.049887 0.262529 0.963634 
-0.0233081 0.241969 0.970004 0.181712 0.41075 0.893457 0.0415011 0.323316 0.945381 
0.0132277 0.273164 0.961877 0.00234872 0.409555 0.912283 0.30769 0.338311 0.88931 
0.0680912 0.402986 0.912669 0.104369 0.346592 0.932192 -0.606473 0.542221 0.581538 
-0.644303 0.514419 0.565903 -0.729092 0.587172 0.351644 0.586667 0.418319 0.69342 
0.210601 0.323855 0.922369 0.296064 0.300566 0.906646 0.318208 0.327417 0.889686 
-0.115652 0.246986 0.962093 -0.124132 0.239951 0.962816 -0.121791 0.239751 0.963165 
0.179695 0.406937 0.895607 0.0930885 0.18446 0.978422 0.016804 0.188418 0.981945 
-0.721362 0.378024 0.580289 0.425836 0.305236 0.85176 0.486424 0.239891 0.840145 
0.570513 0.319808 0.756464 -0.832214 0.169549 0.527895 -0.927425 0.174646 0.330728 
0.540249 0.181758 0.821642 0.983867 0.0492666 0.171983 -0.829287 -0.167041 0.533274 
-0.939201 -0.171608 0.297409 0.60374 -0.0976688 0.791176 0.699874 -0.218868 0.679907 
-0.703258 -0.390529 0.594067 -0.673771 -0.516395 0.528553 0.714554 -0.240215 0.657046 
0.746704 -0.267473 0.609009 -0.655522 -0.551003 0.516416 -0.598249 -0.573759 0.559374 
-0.7467 -0.629832 0.213893 0.554792 -0.578581 0.597872 0.478957 -0.668983 0.568385 
0.338397 -0.718168 0.608048 -0.60036 -0.578634 0.552042 -0.538295 -0.616848 0.574227 
-0.688632 -0.677257 0.259054 0.313057 -0.738714 0.596907 0.402208 -0.854019 0.329971 
0.189202 -0.746005 0.638497 0.203003 -0.650611 0.731776 0.256738 -0.669752 0.696791 
-0.263233 -0.750801 0.605811 -0.495524 -0.648207 0.578173 -0.383113 -0.741101 0.551356 
-0.625839 -0.740435 0.245117 0.294351 -0.954829 0.0407355 0.241928 -0.692582 0.67956 
0.284791 -0.797158 0.532384 0.149981 -0.734609 0.661706 0.0546286 -0.756094 0.65218 
-0.0507401 -0.827715 0.558851 -0.254434 -0.775701 0.57754 -0.204797 -0.797745 0.567152 
-0.289562 -0.872376 0.393844 -0.0236763 0.866481 0.498649 0.287617 0.691249 0.662911 
0.40525 0.84857 0.34015 0.0957617 0.579154 0.809574 0.169516 0.782522 0.599102 
0.0243397 0.599467 0.80003 0.0486428 0.731768 0.679816 -0.0317158 0.570941 0.820379 
0.00733284 0.687851 0.725815 -0.0326975 0.510064 0.859515 -0.0156525 0.615779 0.787764 
-0.0169265 0.52939 0.84821 -0.0524693 0.62985 0.774943 0.0627955 0.551133 0.832051 
-0.0264602 0.748443 0.662671 0.158428 0.71056 0.685569 0.095398 0.854914 0.509922 
0.0789546 0.83521 0.544234 0.139773 0.81035 0.569031 0.127805 0.840513 0.526502 
-0.155028 0.893916 0.420572 -0.299468 0.900936 0.31406 -0.410177 0.908642 0.07826 
-0.593194 0.787127 0.168972 0.452957 0.569377 0.686032 0.511994 0.536831 0.670577 
0.588961 0.624973 0.51238 -0.678626 0.725254 0.116071 -0.789644 0.612539 0.035472 
0.572297 0.545532 0.612267 0.651276 0.512176 0.559925 0.801272 0.543474 0.250198 
-0.814891 0.579323 0.0183987 -0.774055 0.551677 -0.310629 0.767712 0.428104 0.476807 
-0.921221 0.389038 -0.00125952 -0.96523 0.261229 -0.00949155 0.886454 0.282595 0.366524 
0.9852 0.0735524 0.154828 -0.986795 0.161957 -0.00224868 -0.944704 0.165126 -0.283314 
0.991384 0.0379744 0.125365 0.9942 -0.033216 0.102293 0.999456 0.0151805 0.0292827 
-0.986225 -0.163548 -0.024735 -0.964929 -0.26182 -0.0190269 -0.960435 -0.170049 -0.220565 
0.970146 -0.238313 0.044976 -0.906783 -0.421528 0.00772537 0.864556 -0.501911 0.0250684 
0.760835 -0.647963 -0.0357 0.57781 -0.492096 -0.651135 -0.765561 -0.642706 -0.0290836 
-0.751264 -0.659281 -0.0308361 -0.741203 -0.649683 -0.168911 0.695724 -0.714343 -0.0753817 
0.570727 -0.788318 -0.229838 0.389737 -0.749338 -0.535349 -0.70836 -0.705688 -0.0151811 
-0.703587 -0.71028 -0.0216501 -0.668708 -0.708444 -0.22569 0.467361 -0.8525 -0.23413 
0.429912 -0.880828 -0.198286 0.426688 -0.844605 -0.323389 0.369899 -0.923361 -0.102852 
0.329332 -0.632976 -0.700629 -0.462773 -0.885866 -0.0329128 -0.656143 -0.754075 -0.0291123 
-0.634245 -0.772571 -0.0294514 -0.636229 -0.740153 -0.217683 0.299912 -0.953372 -0.0336795 
0.284766 -0.957857 -0.0376686 0.27519 -0.954722 -0.11303 0.254024 -0.958742 -0.127613 
0.2244 -0.886684 -0.404273 0.167931 -0.981915 -0.0874147 0.199441 -0.711448 -0.673843 
0.0274098 -0.99733 -0.067694 -0.11477 -0.987355 -0.109357 -0.0491638 -0.747299 -0.662667 
-0.167161 -0.982964 -0.0764119 -0.0951104 -0.83384 -0.543751 -0.372125 -0.92726 -0.0413807 
-0.272025 -0.96126 -0.0445053 -0.244705 -0.913868 -0.323982 0.412572 0.85927 0.302389 
0.204322 0.931521 0.300867 0.103834 0.907259 0.407553 0.0339139 0.854489 0.518361 
0.0392078 0.842217 0.537711 0.000299085 0.997478 0.0709797 -0.0692656 0.866099 0.495051 
-0.147029 0.902116 0.405672 -0.0103535 0.97013 0.242364 0.0135621 0.994948 0.099474 
-0.168806 0.985169 -0.0307659 -0.467715 0.878599 -0.0964654 0.446464 0.845024 0.294288 
0.61782 0.759475 0.203708 -0.493976 0.862638 -0.108822 -0.486379 0.856869 -0.170914 
-0.710711 0.657219 -0.250903 0.704788 0.691478 0.15853 0.849584 0.526461 0.0323479 
-0.745095 0.605964 -0.278644 -0.702992 0.56633 -0.430201 0.875604 0.483009 0.00460766 
0.861167 0.455378 -0.225881 -0.754377 0.530904 -0.386078 -0.759377 0.521936 -0.388496 
0.940612 0.317745 -0.119531 -0.813777 0.382979 -0.437143 -0.690829 0.345119 -0.635333 
0.966112 0.0962353 -0.239513 -0.885819 0.157156 -0.436608 0.881586 -0.120541 -0.456373 
0.608902 -0.22159 -0.761667 -0.882352 -0.164347 -0.440958 0.803668 -0.25405 -0.538123 
0.539083 -0.455705 -0.708323 0.560298 -0.371898 -0.740107 -0.787725 -0.417935 -0.452569 
-0.708182 -0.570543 -0.415883 -0.644794 -0.396742 -0.653328 0.507576 -0.472214 -0.72068 
0.33424 -0.66646 -0.66642 0.375011 -0.427296 -0.82267 0.174736 -0.482667 -0.858196 
-0.0387984 -0.466073 -0.883895 0.006769 -0.409854 -0.912126 -0.662929 -0.618432 -0.421979 
-0.588461 -0.655318 -0.473574 -0.448634 -0.53012 -0.719514 0.28343 -0.65599 -0.699532 
0.285031 -0.597584 -0.749433 0.220543 -0.564766 -0.795236 0.271356 -0.535097 -0.800023 
0.136587 -0.519502 -0.843482 0.083104 -0.408575 -0.908933 0.131704 -0.304904 -0.943233 
0.187351 -0.238153 -0.952986 -0.579987 -0.648504 -0.493008 -0.567053 -0.636098 -0.523288 
-0.464536 -0.541316 -0.700844 0.25107 -0.514483 -0.819921 0.184541 -0.563689 -0.805109 
0.193472 -0.47312 -0.859492 0.167818 -0.572086 -0.802842 0.174017 -0.452273 -0.874739 
0.196727 -0.606744 -0.770169 0.178043 -0.417388 -0.891116 0.114511 -0.44443 -0.888465 
-0.0445153 -0.729984 -0.682013 0.049111 -0.521176 -0.852035 -0.0771835 -0.770281 -0.633016 
-0.0163491 -0.57436 -0.818439 -0.198144 -0.788159 -0.582705 -0.137827 -0.574732 -0.806652 
-0.511088 -0.677151 -0.529392 -0.387672 -0.749165 -0.537087 -0.352709 -0.636292 -0.686096 
0.0599036 -0.681013 -0.729817 0.00326636 -0.707482 -0.706724 0.038574 -0.68862 -0.724096 
0.0398052 -0.684395 -0.728024 -0.00712446 0.999898 0.0124124 0.455402 0.846135 -0.276883 
0.303585 0.922637 -0.237858 0.229755 0.95411 -0.192061 0.0853536 0.99596 -0.0279121 
0.157183 0.98545 -0.0646661 -0.103046 0.994281 -0.0280333 -0.00102221 0.997434 -0.0715842 
-0.204932 0.975894 -0.0750558 -0.331904 0.918431 -0.215231 -0.208663 0.911915 -0.35337 
-0.146034 0.856368 -0.495286 -0.231872 0.760455 -0.606584 0.497205 0.820238 -0.282835 
0.689597 0.623027 -0.369179 0.453653 0.804371 -0.383649 0.274195 0.736667 -0.618174 
0.199839 0.546252 -0.813433 -0.342803 0.537867 -0.770185 -0.232381 0.749685 -0.619655 
-0.167124 0.773766 -0.611028 -0.232653 0.760185 -0.606623 -0.231826 0.760102 -0.607043 
-0.483123 0.567481 -0.666751 0.734282 0.54671 -0.402415 0.670274 0.502878 -0.545753 
0.371093 0.334427 -0.866284 -0.104777 0.26858 -0.957542 -0.0801568 0.361293 -0.929001 
-0.276927 0.377894 -0.883464 -0.552227 0.46362 -0.692894 -0.454824 0.408378 -0.791431 
-0.597989 0.326388 -0.732038 0.770718 0.367294 -0.520663 0.792539 0.294528 -0.53398 
0.551377 0.189341 -0.812486 -0.231631 0.103027 -0.967333 -0.395896 0.240274 -0.886304 
-0.592829 0.313091 -0.741975 -0.58756 0.304278 -0.749792 0.799085 0.177544 -0.574406 
0.726251 0.148237 -0.671256 0.398225 -0.00976142 -0.917236 -0.280608 0.120849 -0.952184 
-0.580922 0.299552 -0.756834 -0.467316 0.234066 -0.852543 -0.627641 0.197269 -0.753095 
0.693111 -0.0973901 -0.714222 0.608238 -0.203343 -0.767266 0.624322 -0.130312 -0.770221 
0.375449 -0.15453 -0.91387 -0.0554285 -0.195199 -0.979196 -0.193048 0.0168823 -0.981044 
-0.369287 0.073016 -0.926443 -0.638713 0.14931 -0.75482 -0.611346 0.146431 -0.777698 
0.578131 -0.23172 -0.78235 0.380866 -0.266285 -0.885457 0.220057 -0.293425 -0.93031 
0.0882811 -0.302601 -0.94902 0.0279683 -0.292877 -0.955741 0.00972008 -0.260815 -0.96534 
-0.0313529 -0.271283 -0.961989 -0.0332077 -0.197923 -0.979655 -0.050881 -0.173237 -0.983565 
0.0689068 -0.17232 -0.982628 -0.00874579 -0.17456 -0.984608 -0.1635 -0.138924 -0.976713 
-0.354397 -0.136831 -0.92503 -0.635785 -0.165604 -0.753891 -0.611617 -0.213318 -0.761853 
-0.607927 -0.166046 -0.776436 0.370764 -0.37758 -0.848509 0.340855 -0.374571 -0.862273 
0.336012 -0.376609 -0.863285 0.178518 -0.464731 -0.86727 0.185235 -0.41757 -0.889563 
0.0987471 -0.427401 -0.898653 -0.0385872 -0.466127 -0.883876 0.0310058 -0.445753 -0.894619 
0.00147038 -0.41971 -0.907657 -0.0360233 -0.491495 -0.870135 -0.0799881 -0.51329 -0.85448 
0.0944298 -0.295377 -0.950703 0.0809837 -0.242598 -0.966741 -0.0204407 -0.12771 -0.991601 
0.0123112 -0.196147 -0.980497 -0.0331324 -0.27205 -0.961713 -0.157551 -0.330617 -0.930521 
-0.481973 -0.37428 -0.792222 -0.395444 -0.435236 -0.808822 -0.384829 -0.366697 -0.847018 
0.0892719 -0.464915 -0.880843 -0.0213783 -0.465392 -0.884846 0.0710682 -0.465525 -0.882177 
0.0697031 -0.46031 -0.885018 0.125122 -0.293623 -0.947697 0.140886 -0.277198 -0.950428 
0.139344 -0.279141 -0.950086 0.223235 -0.175105 -0.958908 0.122603 -0.218999 -0.967992 
-0.00964719 -0.148628 -0.988846 -0.0750123 -0.210662 -0.974677 -0.144615 -0.295805 -0.944238 
-0.311299 -0.442449 -0.84103 -0.304647 -0.438937 -0.845295 -0.258539 -0.410173 -0.874595 
0.187642 -0.258984 -0.94748 0.178922 -0.294564 -0.938733 0.189473 -0.26759 -0.94472 
0.0940673 -0.420976 -0.902181 0.125497 -0.323063 -0.93802 -0.0113248 -0.474548 -0.880157 
-0.0130159 -0.314478 -0.949176 -0.133833 -0.421101 -0.897086 -0.139418 -0.319117 -0.937404 
-0.253533 -0.374408 -0.89193 -0.241834 -0.373733 -0.895455 -0.234985 -0.358367 -0.903524 
0.209693 0.550058 -0.808372 0.0503941 0.620232 -0.782798 -0.240244 0.573434 -0.783234 
0.195647 0.421778 -0.885339 0.195194 0.495926 -0.846142 0.177827 0.449539 -0.875381 
0.195492 0.472763 -0.859231 0.0267806 0.352507 -0.935426 -0.290796 0.440174 -0.84952 
-0.213072 0.373892 -0.902665 -0.276595 0.325494 -0.904184 0.305101 0.308841 -0.90085 
0.337998 0.233661 -0.91168 0.155236 0.264392 -0.95184 0.134886 0.228581 -0.964135 
0.0800394 0.116153 -0.990001 -0.0278789 0.0427771 -0.998696 -0.150761 0.0674723 -0.986265 
-0.136063 0.241829 -0.960732 -0.226828 0.190217 -0.955179 -0.0952746 0.221217 -0.97056 
-0.0785892 0.240732 -0.967405 0.360958 0.110429 -0.926021 0.29384 0.0866472 -0.951919 
0.15092 0.0832035 -0.985038 0.0420003 0.059269 -0.997358 -0.0195805 -0.0513632 -0.998488 
-0.0327224 -0.103581 -0.994083 -0.0716323 -0.0883468 -0.993511 -0.113317 0.0612083 -0.991672 
-0.0678886 0.100517 -0.992616 -0.20246 0.0984557 -0.974329 -0.0834538 0.0889332 -0.992535 
-0.16301 0.0313184 -0.986127 0.32104 -0.0339354 -0.946458 0.268769 -0.0423794 -0.962272 
0.130754 -0.0757363 -0.988518 0.000685633 -0.085043 -0.996377 -0.0879312 -0.109759 -0.990061 
-0.0629032 -0.116914 -0.991148 0.0105391 -0.172282 -0.984991 -0.0327656 -0.0652817 -0.997329 
-0.0598315 -0.179294 -0.981975 -0.0825385 -0.0848708 -0.992967 -0.0765173 -0.0567197 -0.995454 
-0.150252 0.0176156 -0.988491 -0.146217 0.0143914 -0.989148 0.257819 -0.159113 -0.953002 
0.24585 -0.174863 -0.953405 0.248993 -0.160652 -0.955088 0.0941033 -0.278275 -0.955881 
0.113364 -0.203417 -0.972507 0.0279333 -0.292669 -0.955806 0.00996437 -0.203983 -0.978924 
0.00791311 -0.257869 -0.966147 -0.0502604 -0.17796 -0.982753 -0.0988647 -0.111235 -0.988864 
-0.0233589 -0.203597 -0.978776 -0.0219648 -0.195476 -0.980462 -0.049777 -0.188209 -0.980867 
-0.0307623 -0.186187 -0.982033 -0.0248021 -0.15836 -0.98707 0.0115534 -0.127222 -0.991807 
0.0152544 -0.124343 -0.992122 0.0147733 -0.123926 -0.992182 -0.0646136 -0.0472081 -0.996793 
-0.0597565 -0.0527822 -0.996817 -0.0613832 -0.0487883 -0.996921 -0.0129906 -0.259414 -0.965679 
-0.0719593 -0.25731 -0.963646 -0.0782873 -0.269008 -0.959951 -0.0766632 -0.2553 -0.963818 

