# vtk DataFile Version 4.2
vtk output
ASCII
DATASET POLYDATA
POINTS 533 float
13.2969 -0.272146 -21.1339 -35.88 -33.0568 -15.1481 -27.6838 -33.0568 -16.5235 
-19.4877 -33.0568 -16.4002 -11.2915 -33.0568 -15.7531 -3.09539 -33.0568 -14.8453 
5.10076 -33.0568 -14.7505 13.2969 -33.0568 -14.5194 21.4931 -33.0568 -13.4787 
29.6892 -33.0568 -13.1065 -44.0761 -24.8606 -16.3331 -35.88 -24.8606 -18.2546 
-27.6838 -24.8606 -18.879 -19.4877 -24.8606 -18.1341 -11.2915 -24.8606 -17.058 
-3.09539 -24.8606 -16.3062 5.10076 -24.8606 -16.4113 13.2969 -24.8606 -15.9938 
21.4931 -24.8606 -15.358 29.6892 -24.8606 -15.2329 37.8854 -24.8606 -15.1803 
46.0815 -24.8606 -13.074 -52.2723 -16.6644 -15.6854 -44.0761 -16.6644 -18.9562 
-35.88 -16.6644 -19.7828 -27.6838 -16.6644 -19.5013 -19.4877 -16.6644 -18.3866 
-11.2915 -16.6644 -17.0567 -3.09539 -16.6644 -16.4227 5.10076 -16.6644 -17.613 
13.2969 -16.6644 -16.756 21.4931 -16.6644 -15.6949 29.6892 -16.6644 -15.7915 
37.8854 -16.6644 -15.9901 46.0815 -16.6644 -15.6945 -52.2723 -8.4683 -17.6768 
-44.0761 -8.4683 -19.5263 -35.88 -8.4683 -20.4998 -27.6838 -8.4683 -19.5521 
-19.4877 -8.4683 -18.0148 -11.2915 -8.4683 -16.5884 -3.09539 -8.4683 -18.0637 
5.10076 -8.4683 -18.3869 13.2969 -1.16355 -20.8735 13.2969 -8.4683 -18.5285 
21.4931 -8.4683 -15.8051 29.6892 -8.4683 -16.3973 37.8854 -8.4683 -16.292 
46.0815 -8.4683 -16.0716 54.2777 -8.4683 -14.932 -60.4685 -0.272146 -14.2462 
-52.2723 -0.272146 -17.5669 -44.0761 -0.272146 -19.3151 -35.88 -0.272146 -19.5539 
-27.6838 -0.272146 -18.6474 -19.4877 -0.272146 -16.9108 -11.2915 -0.272146 -17.7067 
-3.09539 -0.272146 -18.0481 12.6395 -0.272146 -20.8735 5.10076 -0.272146 -17.039 
13.7674 -0.272146 -20.8735 13.2969 2.10614 -20.8735 21.4931 -0.272146 -16.7423 
29.6892 -0.272146 -16.5817 37.8854 -0.272146 -16.99 46.0815 -0.272146 -16.6961 
54.2777 -0.272146 -15.8033 62.4738 -0.272146 -13.3744 -52.2723 7.92401 -16.8598 
-44.0761 7.92401 -18.6986 -35.88 7.92401 -18.24 -27.6838 7.92401 -17.6287 
-19.4877 7.92401 -16.5461 -11.2915 7.92401 -17.3571 -3.09539 7.92401 -19.3085 
5.10076 7.92401 -18.3798 13.2969 7.92401 -20.2519 21.4931 7.92401 -18.8159 
29.6892 7.92401 -17.9655 37.8854 7.92401 -17.7627 46.0815 7.92401 -17.0407 
54.2777 7.92401 -15.8739 62.4738 7.92401 -12.9877 -52.2723 16.1202 -14.6676 
-44.0761 16.1202 -16.4398 -35.88 16.1202 -17.5874 -27.6838 16.1202 -17.6656 
-19.4877 16.1202 -17.5393 -11.2915 16.1202 -17.9107 -3.09539 16.1202 -18.3287 
5.10076 16.1202 -17.9767 13.2969 16.1202 -18.9415 21.4931 16.1202 -19.2923 
29.6892 16.1202 -18.9969 37.8854 16.1202 -18.1829 46.0815 16.1202 -16.4106 
54.2777 16.1202 -13.6321 -52.2723 24.3163 -13.1937 -44.0761 24.3163 -15.0076 
-35.88 24.3163 -16.0699 -27.6838 24.3163 -17.0889 -19.4877 24.3163 -17.8512 
-11.2915 24.3163 -18.0101 -3.09539 24.3163 -16.9471 5.10076 24.3163 -16.9109 
13.2969 24.3163 -18.0907 21.4931 24.3163 -18.3696 29.6892 24.3163 -18.0522 
37.8854 24.3163 -16.9332 46.0815 24.3163 -14.7 -35.88 32.5125 -13.8815 
-27.6838 32.5125 -15.8432 -19.4877 32.5125 -16.5869 -11.2915 32.5125 -16.1017 
-3.09539 32.5125 -15.0937 5.10076 32.5125 -15.0622 13.2969 32.5125 -15.9281 
21.4931 32.5125 -15.9693 29.6892 32.5125 -15.1594 37.8854 32.5125 -13.2284 
-35.88 -36.7748 -12.6774 -35.88 -41.2529 -6.60448 -27.6838 -39.0209 -12.6774 
-27.6838 -41.2529 -10.6155 -19.4877 -39.9637 -12.6774 -19.4877 -41.2529 -11.6866 
-11.2915 -39.6558 -12.6774 -11.2915 -41.2529 -11.6786 -3.09539 -38.9808 -12.6774 
-3.09539 -41.2529 -11.6462 5.10076 -38.7053 -12.6774 5.10076 -41.2529 -11.5469 
13.2969 -37.4228 -12.6774 13.2969 -41.2529 -10.6402 21.4931 -34.7204 -12.6774 
21.4931 -41.2529 -8.88906 29.6892 -34.0383 -12.6774 29.6892 -41.2529 -7.64111 
-41.4918 -33.0568 -12.6774 -44.0761 -31.1567 -12.6774 -44.0761 -33.0568 -10.8566 
31.9007 -33.0568 -12.6774 37.8854 -30.67 -12.6774 37.8854 -33.0568 -11.1609 
46.0815 -26.0457 -12.6774 46.0815 -33.0568 -8.71559 -50.7306 -24.8606 -12.6774 
-52.2723 -23.0234 -12.6774 -52.2723 -24.8606 -11.3031 48.0483 -24.8606 -12.6774 
54.2777 -24.8606 -10.817 -57.6747 -16.6644 -12.6774 -60.4685 -16.6644 -9.66902 
54.207 -16.6644 -12.6774 54.2777 -16.5402 -12.6774 54.2777 -16.6644 -12.6471 
62.4738 -16.6644 -8.71633 -60.3922 -8.4683 -12.6774 -60.4685 -8.13821 -12.6774 
-60.4685 -8.4683 -12.6079 62.4613 -8.4683 -12.6774 62.4738 -8.43757 -12.6774 
62.4738 -8.4683 -12.6726 -62.4641 -0.272146 -12.6774 -68.6646 -0.272146 -6.14896 
-60.4685 7.21799 -12.6774 63.4282 -0.272146 -12.6774 -60.2725 7.92401 -12.6774 
-60.4685 7.92401 -12.5346 62.9203 7.92401 -12.6774 62.4738 8.84031 -12.6774 
-57.4523 16.1202 -12.6774 -60.4685 16.1202 -11.2586 56.2421 16.1202 -12.6774 
54.2777 21.2243 -12.6774 62.4738 16.1202 -8.87859 -53.1163 24.3163 -12.6774 
-60.4685 24.3163 -4.49552 -52.2723 25.1435 -12.6774 -44.0761 31.474 -12.6774 
52.5901 24.3163 -12.6774 46.0815 28.8016 -12.6774 54.2777 24.3163 -11.6097 
-42.5547 32.5125 -12.6774 -44.0761 32.5125 -12.2253 -35.88 35.3036 -12.6774 
-27.6838 38.4162 -12.6774 -19.4877 40.5294 -12.6774 -11.2915 40.0045 -12.6774 
-3.09539 38.4296 -12.6774 5.10076 38.4165 -12.6774 13.2969 39.1333 -12.6774 
21.4931 38.3303 -12.6774 29.6892 36.1474 -12.6774 39.7977 32.5125 -12.6774 
37.8854 33.2802 -12.6774 46.0815 32.5125 -9.64949 -35.88 40.7086 -7.66103 
-27.6838 40.7086 -10.8954 -19.4877 40.7086 -12.548 -11.2915 40.7086 -12.2827 
-3.09539 40.7086 -11.5381 5.10076 40.7086 -11.5492 13.2969 40.7086 -11.6269 
21.4931 40.7086 -10.7303 29.6892 40.7086 -8.14439 -35.88 -42.277 -4.48123 
-27.6838 -45.0437 -4.48123 -19.4877 -46.6648 -4.48123 -11.2915 -47.3889 -4.48123 
-3.09539 -48.0865 -4.48123 5.10076 -48.3534 -4.48123 5.10076 -49.4491 2.1058 
13.2969 -47.4928 -4.48123 21.4931 -45.3079 -4.48123 29.6892 -43.4377 -4.48123 
-37.8312 -41.2529 -4.48123 -44.0761 -37.5213 -4.48123 36.2116 -41.2529 -4.48123 
37.8854 -40.5126 -4.48123 46.0815 -35.9445 -4.48123 -49.7944 -33.0568 -4.48123 
-52.2723 -30.7228 -4.48123 51.3962 -33.0568 -4.48123 54.2777 -31.0801 -4.48123 
-57.9284 -24.8606 -4.48123 -60.4685 -21.4236 -4.48123 60.2669 -24.8606 -4.48123 
62.4738 -22.3567 -4.48123 -63.3148 -16.6644 -4.48123 65.7912 -16.6644 -4.48123 
-67.0615 -8.4683 -4.48123 -68.6646 -3.54446 -4.48123 68.7502 -8.4683 -4.48123 
-69.6173 -0.272146 -4.48123 -68.6646 5.86047 -4.48123 69.2341 -0.272146 -4.48123 
-68.2726 7.92401 -4.48123 68.7401 7.92401 -4.48123 -65.7516 16.1202 -4.48123 
65.7763 16.1202 -4.48123 62.4738 21.2076 -4.48123 -60.4785 24.3163 -4.48123 
-60.4685 24.328 -4.48123 -52.2723 32.0472 -4.48123 59.5494 24.3163 -4.48123 
54.2777 29.306 -4.48123 -51.8228 32.5125 -4.48123 -44.0761 37.8757 -4.48123 
37.8854 39.5668 -4.48123 50.6661 32.5125 -4.48123 46.0815 35.8184 -4.48123 
-38.938 40.7086 -4.48123 -35.88 42.2489 -4.48123 -27.6838 44.986 -4.48123 
-19.4877 46.9077 -4.48123 -11.2915 47.3628 -4.48123 -3.09539 47.5115 -4.48123 
5.10076 47.5848 -4.48123 13.2969 46.998 -4.48123 21.4931 45.3478 -4.48123 
35.4135 40.7086 -4.48123 29.6892 43.0453 -4.48123 5.10076 48.9048 3.46863 
5.10076 -49.6622 3.71492 -35.88 -42.3797 3.71492 -27.6838 -45.4771 3.71492 
-19.4877 -47.1667 3.71492 -11.2915 -48.3699 3.71492 -1.06253 -49.4491 3.71492 
-3.09539 -49.3752 3.71492 7.01133 -49.4491 3.71492 5.10076 -49.4491 4.17473 
13.2969 -48.6778 3.71492 21.4931 -46.7001 3.71492 29.6892 -44.183 3.71492 
-38.0037 -41.2529 3.71492 -44.0761 -37.5614 3.71492 -35.88 -41.2529 6.17103 
-27.6838 -41.2529 10.7637 21.4931 -41.2529 11.238 37.1174 -41.2529 3.71492 
29.6892 -41.2529 9.28299 37.8854 -40.8667 3.71492 46.0815 -36.6587 3.71492 
-49.7116 -33.0568 3.71492 -52.2723 -30.562 3.71492 37.8854 -33.0568 10.9156 
51.287 -33.0568 3.71492 46.0815 -33.0568 8.11673 54.2777 -30.4668 3.71492 
-57.6577 -24.8606 3.71492 -60.4685 -20.7713 3.71492 -52.2723 -24.8606 11.3644 
46.0815 -24.8606 11.4963 59.4205 -24.8606 3.71492 54.2777 -24.8606 8.4062 
62.4738 -20.5547 3.71492 -62.7555 -16.6644 3.71492 -60.4685 -16.6644 7.4447 
54.2777 -16.6644 10.8987 64.7416 -16.6644 3.71492 62.4738 -16.6644 6.18521 
-66.4401 -8.4683 3.71492 -68.6646 -1.4814 3.71492 67.9941 -8.4683 3.71492 
62.4738 -8.4683 9.50344 -69.018 -0.272146 3.71492 -68.6646 3.02038 3.71492 
-68.6646 -0.272146 4.29106 68.3019 -0.272146 3.71492 62.4738 -0.272146 10.4751 
-68.1011 7.92401 3.71492 68.5773 7.92401 3.71492 62.4738 7.92401 11.237 
-66.035 16.1202 3.71492 -60.4685 16.1202 11.3323 65.4994 16.1202 3.71492 
62.4738 20.928 3.71492 62.4738 16.1202 7.56535 -60.8751 24.3163 3.71492 
-60.4685 24.7868 3.71492 -60.4685 24.3163 4.33643 -52.2723 32.4264 3.71492 
59.9228 24.3163 3.71492 54.2777 29.7654 3.71492 54.2777 24.3163 11.0112 
-52.1545 32.5125 3.71492 -44.0761 37.5749 3.71492 -44.0761 32.5125 11.0749 
37.8854 39.7698 3.71492 50.6796 32.5125 3.71492 46.0815 35.8395 3.71492 
46.0815 32.5125 9.05729 -37.8578 40.7086 3.71492 -35.88 41.6314 3.71492 
-35.88 40.7086 5.28261 -27.6838 44.4734 3.71492 -27.6838 40.7086 8.82936 
-19.4877 46.7204 3.71492 -19.4877 40.7086 11.6366 -11.2915 48.0736 3.71492 
-3.09539 48.7804 3.71492 13.2969 48.0744 3.71492 21.4931 46.0708 3.71492 
21.4931 40.7086 11.6025 35.9103 40.7086 3.71492 29.6892 43.384 3.71492 
29.6892 40.7086 8.29509 3.31793 48.9048 3.71492 5.43948 48.9048 3.71492 
5.10076 48.9048 3.78256 -19.4877 -41.9075 11.9111 -11.2915 -43.5484 11.9111 
-3.09539 -44.1112 11.9111 5.10076 -44.1713 11.9111 13.2969 -43.5043 11.9111 
-44.0761 -33.1116 11.9111 -35.88 -37.2081 11.9111 -22.7782 -41.2529 11.9111 
-27.6838 -39.9864 11.9111 -19.4877 -41.2529 12.4412 -11.2915 -41.2529 13.6652 
-3.09539 -41.2529 14.2741 5.10076 -41.2529 14.3301 19.6433 -41.2529 11.9111 
13.2969 -41.2529 13.5737 21.4931 -40.3162 11.9111 29.6892 -38.0832 11.9111 
-44.1404 -33.0568 11.9111 -44.0761 -33.0568 11.9604 -35.88 -33.0568 14.6455 
-27.6838 -33.0568 16.1472 -19.4877 -33.0568 16.4412 -11.2915 -33.0568 16.8073 
-3.09539 -33.0568 17.678 5.10076 -33.0568 17.9112 13.2969 -33.0568 16.9137 
21.4931 -33.0568 15.6362 35.6022 -33.0568 11.9111 29.6892 -33.0568 13.9935 
[...]
POINT_DATA 533
SCALARS ImageScalars float
LOOKUP_TABLE default
0 0 0 0 0 0 0 0 0 
0 0 0 0 0 0 0 0 0 
0 0 0 0 0 0 0 0 0 
0 0 0 0 0 0 0 0 0 
0 0 0 0 0 0 0 0 0 
0 0 0 0 0 0 0 0 0 
0 0 0 0 0 0 0 0 0 
0 0 0 0 0 0 0 0 0 
0 0 0 0 0 0 0 0 0 
0 0 0 0 0 0 0 0 0 
0 0 0 0 0 0 0 0 0 
0 0 0 0 0 0 0 0 0 
0 0 0 0 0 0 0 0 0 
0 0 0 0 0 0 0 0 0 
0 0 0 0 0 0 0 0 0 
0 0 0 0 0 0 0 0 0 
0 0 0 0 0 0 0 0 0 
0 0 0 0 0 0 0 0 0 
0 0 0 0 0 0 0 0 0 
0 0 0 0 0 0 0 0 0 
0 0 0 0 0 0 0 0 0 
0 0 0 0 0 0 0 0 0 
0 0 0 0 0 0 0 0 0 
0 0 0 0 0 0 0 0 0 
0 0 0 0 0 0 0 0 0 
0 0 0 0 0 0 0 0 0 
0 0 0 0 0 0 0 0 0 
0 0 0 0 0 0 0 0 0 
0 0 0 0 0 0 0 0 0 
0 0 0 0 0 0 0 0 0 
0 0 0 0 0 0 0 0 0 
0 0 0 0 0 0 0 0 0 
0 0 0 0 0 0 0 0 0 
0 0 0 0 0 0 0 0 0 
0 0 0 0 0 0 0 0 0 
0 0 0 0 0 0 0 0 0 
0 0 0 0 0 0 0 0 0 
0 0 0 0 0 0 0 0 0 
0 0 0 0 0 0 0 0 0 
0 0 0 0 0 0 0 0 0 
0 0 0 0 0 0 0 0 0 
0 0 0 0 0 0 0 0 0 
0 0 0 0 0 0 0 0 0 
0 0 0 0 0 0 0 0 0 
0 0 0 0 0 0 0 0 0 
0 0 0 0 0 0 0 0 0 
0 0 0 0 0 0 0 0 0 
0 0 0 0 0 0 0 0 0 
0 0 0 0 0 0 0 0 0 
0 0 0 0 0 0 0 0 0 
0 0 0 0 0 0 0 0 0 
0 0 0 0 0 0 0 0 0 
0 0 0 0 0 0 0 0 0 
0 0 0 0 0 0 0 0 0 
0 0 0 0 0 0 0 0 0 
0 0 0 0 0 0 0 0 0 
0 0 0 0 0 0 0 0 0 
0 0 0 0 0 0 0 0 0 
0 0 0 0 0 0 0 0 0 
0 0 
NORMALS Normals float
-0.0849401 0.0982263 0.991533 0.24563 0.480011 0.842173 0.0727228 0.429378 0.900192 
-0.0451082 0.341747 0.938709 -0.0915048 0.296647 0.950593 -0.059739 0.259759 0.963824 
-0.0195372 0.272483 0.961962 -0.0721283 0.288987 0.954612 -0.0869793 0.331799 0.939332 
-0.116538 0.35028 0.929367 0.328106 0.366903 0.870476 0.143423 0.257338 0.955619 
-0.00725816 0.164332 0.986378 -0.108467 0.11458 0.987475 -0.110723 0.077843 0.990798 
-0.03927 0.0934968 0.994845 -0.0188795 0.169914 0.985278 -0.063195 0.134181 0.98894 
-0.045725 0.126335 0.990933 -0.0117086 0.173434 0.984776 -0.106494 0.23467 0.966224 
-0.244011 0.33626 0.909609 0.421444 0.307612 0.853088 0.23945 0.193085 0.951516 
0.0293479 0.138044 0.989991 -0.0838904 0.0397075 0.995684 -0.144125 -0.00562463 0.989544 
-0.122456 -0.0294391 0.992037 0.0350615 0.103712 0.993989 0.0213701 0.118113 0.99277 
-0.118027 0.141459 0.982883 -0.0578853 0.0274199 0.997947 0.0176473 0.0692378 0.997444 
-0.00878104 0.0772658 0.996972 -0.171405 0.149706 0.97376 0.342222 0.101307 0.934142 
0.171161 0.0177112 0.985084 0.00486721 -0.0148761 0.999878 -0.14266 -0.0514852 0.988432 
-0.184774 -0.0914354 0.978518 0.00689097 0.0332902 0.999422 0.112357 0.10272 0.988344 
0.0280227 -0.0148824 0.999497 -0.0995816 0.122153 0.987503 -0.181596 0.250636 0.950897 
-0.106894 0.0626442 0.992295 0.0314491 0.048026 0.998351 -0.0193032 0.0591755 0.998061 
-0.074231 0.0645302 0.995151 -0.237261 0.183699 0.953919 0.547049 -0.0109482 0.837029 
0.269139 -0.0549571 0.961532 0.111798 -0.0459185 0.992669 -0.0406262 -0.139433 0.989398 
-0.161458 -0.118046 0.979794 -0.0648926 -0.0863562 0.994149 0.0720702 0.0560384 0.995824 
-0.034624 0.090702 0.995276 -0.0669623 0.0929318 0.993418 0.181031 0.00112803 0.983477 
-0.0996672 0.108163 0.989124 -0.0502285 0.0266187 0.998383 -0.222222 0.185317 0.957223 
0.015286 0.095465 0.995315 0.00697983 0.0894051 0.995971 -0.0654593 0.0585092 0.996138 
-0.249113 0.0556992 0.966871 -0.51555 0.0209182 0.856604 0.301347 -0.139582 0.943243 
0.0948171 -0.17201 0.980522 -0.0630751 -0.124874 0.990166 -0.102456 -0.0593081 0.992968 
-0.0223585 0.0356064 0.999116 0.174635 0.0163739 0.984497 0.0527139 -0.00289587 0.998605 
0.0604556 0.0377085 0.997458 0.0279376 -0.123511 0.99195 -0.138967 0.155675 0.977984 
-0.061958 0.147643 0.987098 -0.0548461 0.0738475 0.99576 -0.106918 -0.0158933 0.994141 
-0.283156 -0.125847 0.950781 -0.50941 -0.2036 0.836091 0.305237 -0.26189 0.915557 
0.164032 -0.193976 0.967195 0.0684627 -0.121973 0.990169 -0.00217592 -0.0324737 0.99947 
0.0152107 0.0811312 0.996587 0.0469955 0.0358134 0.998253 0.00403225 -0.141089 0.989989 
0.0360527 -0.089481 0.995336 0.0804167 -0.128532 0.98844 0.00299657 -0.0278031 0.999609 
-0.0706545 0.00679822 0.997478 -0.147047 -0.0414466 0.988261 -0.258073 -0.134973 0.956651 
-0.381759 -0.208818 0.900364 0.412365 -0.415863 0.810563 0.20157 -0.264571 0.943065 
0.110601 -0.226295 0.967759 0.105582 -0.104144 0.988942 0.0548043 -0.058289 0.996794 
-0.0558522 -0.0976935 0.993648 -0.0658031 -0.18977 0.979621 0.0670456 -0.169928 0.983173 
0.0906092 -0.183725 0.978793 -0.00224183 -0.194356 0.980929 -0.0806592 -0.21132 0.974083 
-0.201785 -0.287483 0.936289 -0.282686 -0.311242 0.907313 0.201071 -0.337233 0.919698 
0.167714 -0.295853 0.940395 0.0147201 -0.292881 0.956036 -0.0905797 -0.331386 0.939137 
-0.056605 -0.304163 0.950937 0.0508187 -0.302447 0.951811 0.0520927 -0.349416 0.935518 
-0.0403583 -0.390443 0.919742 -0.154761 -0.457751 0.875507 -0.239037 -0.536836 0.809116 
0.294878 0.624594 0.723139 0.394801 0.856602 0.332214 0.115919 0.624548 0.772336 
0.159145 0.749439 0.642661 0.0241645 0.578374 0.815414 0.0409895 0.654842 0.754653 
-0.0245928 0.512867 0.858116 -0.00192966 0.593478 0.804848 -0.0252492 0.430837 0.902076 
-0.00656962 0.529229 0.848453 -0.0392519 0.416219 0.908417 -0.0503252 0.515852 0.855198 
-0.102177 0.410746 0.906006 -0.13353 0.571663 0.80955 -0.0895045 0.384772 0.918662 
-0.148741 0.68989 0.708469 -0.123726 0.387229 0.913644 -0.223701 0.784786 0.577987 
0.400122 0.587592 0.703305 0.442204 0.569928 0.692559 0.489166 0.65486 0.576086 
-0.129509 0.399712 0.907446 -0.146658 0.448945 0.881442 -0.191553 0.57137 0.798025 
-0.253254 0.365387 0.895742 -0.378695 0.69294 0.613534 0.522484 0.479173 0.705268 
0.527758 0.465701 0.710348 0.583736 0.525942 0.618577 -0.283545 0.345277 0.894643 
-0.47353 0.441189 0.762313 0.589756 0.345965 0.729723 0.753822 0.397703 0.523054 
-0.371953 0.179212 0.910787 -0.371533 0.179272 0.910947 -0.374275 0.18001 0.909678 
-0.719838 0.428676 0.545958 0.647117 0.160206 0.745368 0.64599 0.154624 0.747521 
0.65131 0.162119 0.741291 -0.475936 0.220805 0.851311 -0.476505 0.220103 0.851174 
-0.476475 0.220854 0.850997 0.604295 0.00185452 0.796758 0.929419 0.0622638 0.363737 
0.579222 -0.118894 0.806453 -0.569707 0.0190572 0.821627 0.575063 -0.130084 0.807701 
0.585538 -0.130195 0.800121 -0.530191 -0.206394 0.822374 -0.518414 -0.226168 0.824678 
0.442367 -0.274749 0.853712 0.571898 -0.30882 0.759975 -0.425499 -0.242592 0.871837 
-0.458914 -0.339931 0.820881 -0.685957 -0.416188 0.596867 0.455846 -0.430859 0.778823 
0.698797 -0.639058 0.321385 0.436359 -0.435973 0.787095 0.356298 -0.481748 0.800607 
-0.456641 -0.404756 0.792245 -0.344441 -0.483058 0.804994 -0.528756 -0.46225 0.711858 
0.34405 -0.477424 0.808515 0.386065 -0.519235 0.762462 0.248305 -0.461122 0.851887 
0.155003 -0.571805 0.805614 0.051101 -0.586716 0.808179 -0.0546345 -0.523611 0.850204 
-0.0399765 -0.454319 0.889942 0.0213956 -0.451288 0.892122 -0.0096442 -0.529871 0.848024 
-0.105031 -0.576089 0.810611 -0.188711 -0.594415 0.781703 -0.276588 -0.558 0.782391 
-0.247507 -0.564578 0.787396 -0.449516 -0.688051 0.569668 0.393087 -0.827906 0.400069 
0.175765 -0.730079 0.660372 0.052985 -0.597731 0.799944 -0.0481363 -0.555101 0.830389 
-0.0338067 -0.545368 0.837515 0.00417873 -0.541907 0.840428 -0.0334146 -0.602386 0.797505 
-0.141356 -0.704495 0.695489 -0.277395 -0.825678 0.491232 0.403899 0.886654 0.225191 
0.245011 0.927568 0.282113 0.142097 0.939696 0.311095 0.0786261 0.928046 0.364072 
0.0523724 0.914642 0.400859 -0.0293636 0.911804 0.409575 -0.0374341 0.997175 -0.0651204 
-0.164329 0.895175 0.414317 -0.226069 0.872582 0.433004 -0.269706 0.885229 0.378984 
0.445268 0.866779 0.224566 0.558618 0.792716 0.244022 -0.364498 0.864291 0.346616 
-0.386167 0.855194 0.345713 -0.452911 0.834603 0.313545 0.650375 0.724921 0.226939 
0.683934 0.694078 0.224699 -0.539128 0.787432 0.298818 -0.606699 0.740311 0.289577 
0.748529 0.623724 0.225108 0.80243 0.560351 0.205216 -0.709665 0.647819 0.276959 
-0.763678 0.583014 0.277291 0.856906 0.476055 0.197695 -0.873829 0.401451 0.274335 
0.912644 0.337258 0.230949 0.952127 0.185418 0.243051 -0.933926 0.224987 0.277783 
0.962969 0.0705629 0.260216 0.948575 -0.144785 0.2815 -0.950661 -0.00141099 0.31023 
0.932037 -0.214231 0.292255 -0.932327 -0.217405 0.288965 0.847944 -0.413926 0.331145 
-0.86028 -0.411846 0.300502 -0.748358 -0.593951 0.295267 0.698964 -0.639102 0.320934 
0.698747 -0.639352 0.320906 0.645327 -0.699877 0.306147 -0.682311 -0.675633 0.279234 
-0.635139 -0.727884 0.258425 0.643645 -0.702861 0.302832 0.521932 -0.814278 0.254045 
-0.392823 -0.881554 0.261826 -0.578313 -0.776242 0.251003 -0.497811 -0.829282 0.253921 
0.445909 -0.87067 0.207601 0.398364 -0.897282 0.190241 0.269392 -0.933903 0.235059 
0.148189 -0.95065 0.27259 0.0357977 -0.932894 0.358366 0.0129487 -0.900689 0.434272 
-0.0300351 -0.897012 0.440984 -0.132553 -0.910214 0.392351 -0.22999 -0.911342 0.34141 
-0.368593 -0.889813 0.26902 -0.313386 -0.901761 0.297686 -0.0410248 -0.984823 -0.168642 
-0.0389104 0.985371 -0.165924 0.424374 0.883304 -0.1992 0.270425 0.938893 -0.212954 
0.177927 0.962371 -0.205387 0.131115 0.978977 -0.156245 0.0471616 0.985524 -0.162845 
0.0753631 0.983965 -0.16166 -0.0685646 0.984057 -0.164104 -0.037841 0.98078 -0.191414 
-0.170806 0.972536 -0.158112 -0.270592 0.947403 -0.170904 -0.339171 0.91824 -0.204447 
0.465615 0.861826 -0.201144 0.57312 0.793122 -0.206131 0.414717 0.848971 -0.327503 
0.205048 0.7411 -0.639317 -0.193458 0.616465 -0.763246 -0.418603 0.867297 -0.269385 
-0.305277 0.746695 -0.590975 -0.424244 0.86076 -0.281265 -0.504172 0.809614 -0.300559 
0.661627 0.71657 -0.220856 0.697939 0.676417 -0.235246 -0.306115 0.515805 -0.800149 
-0.589078 0.736347 -0.332836 -0.446355 0.62973 -0.635773 -0.634544 0.679875 -0.367592 
0.75637 0.598514 -0.26398 0.806055 0.518863 -0.284705 0.588556 0.447182 -0.67352 
-0.349158 0.292579 -0.890217 -0.705696 0.577934 -0.409861 -0.582407 0.486231 -0.651446 
-0.737813 0.51203 -0.439836 0.844976 0.445617 -0.295703 0.752971 0.430491 -0.497707 
-0.420292 0.239079 -0.875326 -0.800901 0.430719 -0.415979 -0.677051 0.436703 -0.592362 
0.888238 0.331652 -0.317869 0.930178 0.131718 -0.342664 -0.922825 0.212461 -0.321332 
-0.550901 0.241317 -0.79892 0.936689 0.091657 -0.337953 0.942451 -0.0146328 -0.334024 
0.924077 0.0916973 -0.371043 -0.886412 0.0384386 -0.461299 -0.616919 0.0882749 -0.78206 
0.93673 -0.161021 -0.31082 -0.929257 -0.167322 -0.329369 -0.558284 -0.127095 -0.819857 
0.879867 -0.388471 -0.273722 0.553105 -0.345109 -0.758271 -0.852279 -0.419881 -0.311962 
-0.766657 -0.560867 -0.312513 -0.715047 -0.426458 -0.553932 0.7484 -0.61461 -0.249301 
0.739546 -0.625348 -0.249021 0.741156 -0.614068 -0.271309 0.594683 -0.766437 -0.242747 
-0.718194 -0.645584 -0.25965 -0.623047 -0.749196 -0.224763 -0.525468 -0.446476 -0.724253 
0.592526 -0.767702 -0.244021 0.476695 -0.831651 -0.284814 0.352347 -0.621055 -0.700102 
-0.409299 -0.884572 -0.22362 -0.569934 -0.787382 -0.234956 -0.509441 -0.826181 -0.240615 
-0.461756 -0.687195 -0.560843 0.401126 -0.865603 -0.299715 0.372468 -0.87674 -0.304292 
0.363914 -0.847997 -0.385316 0.295623 -0.898455 -0.324631 0.249917 -0.742413 -0.621582 
0.215563 -0.932119 -0.29101 0.213434 -0.612709 -0.760943 0.121052 -0.974018 -0.191405 
0.0508022 -0.98241 -0.179693 -0.173508 -0.97015 -0.16942 -0.280447 -0.938686 -0.200546 
-0.211995 -0.625258 -0.751073 -0.392658 -0.892549 -0.221759 -0.345402 -0.910774 -0.226247 
-0.313391 -0.811319 -0.493506 -0.0209825 -0.982881 -0.183042 -0.0463673 -0.981982 -0.183196 
-0.0408488 -0.981322 -0.187984 0.146248 0.641874 -0.752735 0.100839 0.652849 -0.750746 
0.0278334 0.674579 -0.737678 -0.0259878 0.671775 -0.740299 -0.148211 0.633411 -0.759489 
0.485033 0.578525 -0.655783 0.291628 0.632299 -0.71774 0.161032 0.655147 -0.73814 
0.181186 0.662709 -0.726628 0.13598 0.61527 -0.7765 0.102099 0.540656 -0.835025 
0.037683 0.535651 -0.843598 -0.0399554 0.537165 -0.84253 -0.177187 0.576133 -0.797919 
-0.156493 0.533383 -0.831271 -0.181726 0.555967 -0.811095 -0.27267 0.532207 -0.801503 
0.486236 0.577497 -0.655798 0.484305 0.576441 -0.658153 0.223881 0.477382 -0.849696 
0.107458 0.369076 -0.923166 0.0367509 0.29573 -0.954564 0.0736853 0.233365 -0.969593 
0.0638646 0.222096 -0.972931 -0.043783 0.239886 -0.969813 -0.128914 0.275045 -0.952749 
-0.174424 0.317922 -0.931934 -0.285685 0.440987 -0.850832 -0.248632 0.317365 -0.91513 
-0.28533 0.434202 -0.854433 0.560625 0.422801 -0.711997 0.562661 0.411199 -0.717167 
0.356705 0.2724 -0.893622 0.17257 0.214224 -0.96142 -0.0146624 0.139732 -0.990081 
-0.0322954 0.0851608 -0.995844 0.0348159 0.0257407 -0.999062 0.0710624 0.0528522 -0.996071 
-0.00374556 0.0822364 -0.996606 -0.0950252 0.12373 -0.987756 -0.141318 0.124259 -0.982135 
-0.173149 0.167999 -0.970462 -0.333506 0.279586 -0.900336 -0.242431 0.224209 -0.943905 
-0.333585 0.280443 -0.90004 0.5405 0.326907 -0.775236 0.608382 0.301194 -0.734271 
0.446479 0.264559 -0.854789 0.239378 0.159378 -0.957756 0.0989729 0.0317837 -0.994582 
-0.0419827 -0.00256016 -0.999115 -0.0865049 -0.03188 -0.995741 0.0456071 -0.0600889 -0.997151 
0.126058 0.110322 -0.985869 0.0248571 0.00805316 -0.999659 -0.089902 0.0578303 -0.99427 
-0.139216 0.0367207 -0.989581 -0.145615 0.0524364 -0.987951 -0.141068 0.121078 -0.982568 
-0.365782 0.233109 -0.901035 -0.260546 0.231149 -0.937382 -0.372438 0.193411 -0.907679 
0.617959 0.281045 -0.734262 0.595236 0.271901 -0.75615 0.335131 0.111647 -0.935533 
0.124508 0.0974769 -0.987419 0.0155416 -0.00198583 -0.999877 -0.0776539 -0.0447985 -0.995973 
-0.0911658 -0.0738704 -0.993092 0.167571 0.0244688 -0.985556 -0.0595149 -0.154407 -0.986213 
-0.0665426 -0.0399941 -0.996982 -0.153282 -0.00444686 -0.988172 -0.0862169 0.0448787 -0.995265 
-0.0918783 0.0969741 -0.991037 -0.199512 0.09462 -0.975316 -0.363431 0.193117 -0.911386 
-0.324596 0.169835 -0.93048 0.627818 0.0670837 -0.775464 0.49206 0.0534554 -0.868918 
0.277353 -0.0229991 -0.960493 0.145831 0.00586569 -0.989292 -0.0394116 -0.00730621 -0.999196 
-0.111466 0.00189978 -0.993766 -0.0213308 0.0396959 -0.998984 0.116629 0.114163 -0.986592 
-0.0587299 -0.103876 -0.992855 0.000124324 -0.0117676 -0.999931 0.0570005 -0.101632 -0.993188 
-0.0539059 0.0196782 -0.998352 -0.0426901 0.0862269 -0.99536 -0.0850577 0.0833015 -0.992888 
-0.175842 0.0817301 -0.98102 -0.489531 0.0966308 -0.866615 -0.314407 0.103071 -0.943676 
0.615992 -0.160146 -0.771302 0.539087 -0.304148 -0.785417 0.53552 -0.151955 -0.830739 
0.284419 -0.0677553 -0.956303 0.161129 -0.100546 -0.981798 0.0121575 -0.0323867 -0.999401 
-0.0301243 0.030557 -0.999079 0.0175907 0.133182 -0.990935 0.0360772 0.0843339 -0.995784 
0.0150331 0.0239567 -0.9996 -0.0596872 0.0948471 -0.993701 -0.032267 -0.0237177 -0.999198 
0.0356066 0.0548548 -0.997859 -0.0230189 0.0783455 -0.99666 -0.0911004 0.061556 -0.993937 
-0.179741 0.0488176 -0.982502 -0.495159 -0.114886 -0.861173 -0.32959 -0.0465777 -0.942974 
0.509009 -0.323822 -0.797527 0.329502 -0.19508 -0.923782 0.15905 -0.196493 -0.967519 
0.0911234 -0.110907 -0.989644 0.051373 -0.0517425 -0.997338 0.0416917 0.00486158 -0.999119 
0.00815699 -0.00665875 -0.999945 -0.0445365 -0.0269912 -0.998643 -0.0592014 -0.0653576 -0.996104 
0.0184407 0.012455 -0.999752 0.0480117 -0.014979 -0.998734 -0.0382322 -0.0308012 -0.998794 
-0.123433 -0.0643109 -0.990267 -0.265726 -0.0920338 -0.959646 -0.523502 -0.22122 -0.822804 
-0.503612 -0.334033 -0.796741 -0.479155 -0.183343 -0.858368 0.494801 -0.448894 -0.744088 
0.447545 -0.471074 -0.760127 0.39865 -0.420471 -0.815035 0.315944 -0.557428 -0.767759 
0.207937 -0.300367 -0.930882 0.157227 -0.28201 -0.946441 0.0923549 -0.208552 -0.973641 
0.0634674 -0.157509 -0.985476 0.00342935 -0.128241 -0.991737 -0.0448293 -0.107902 -0.99315 
-0.0188297 -0.0888083 -0.995871 0.0184823 -0.0908475 -0.995693 -0.00927771 -0.155022 -0.987867 
-0.0783958 -0.213298 -0.973837 -0.163919 -0.298752 -0.940148 -0.465652 -0.420861 -0.778488 
-0.372108 -0.548682 -0.748655 -0.315595 -0.396211 -0.862216 0.288429 -0.562591 -0.77479 
0.211521 -0.539051 -0.815281 0.183757 -0.478558 -0.858613 0.2044 -0.561365 -0.801929 
0.176129 -0.418147 -0.891141 0.208671 -0.593148 -0.777581 0.118071 -0.35193 -0.92855 
0.0603478 -0.291787 -0.954578 -0.00240393 -0.24046 -0.970656 -0.0412143 -0.226078 -0.973237 
-0.0503894 -0.26485 -0.962972 -0.203106 -0.601359 -0.772732 -0.0780983 -0.348105 -0.934197 
-0.23793 -0.609745 -0.756042 -0.175504 -0.430974 -0.885133 -0.317278 -0.571459 -0.756815 
-0.278727 -0.583626 -0.762688 -0.261089 -0.537674 -0.80171 0.200956 -0.597542 -0.776248 
0.114471 -0.612198 -0.782375 0.111088 -0.539705 -0.834493 0.00643543 -0.620948 -0.783825 
0.00994006 -0.525861 -0.850513 -0.0140275 -0.60392 -0.796922 -0.023687 -0.518923 -0.854492 
-0.195663 -0.601987 -0.774163 -0.111051 -0.587494 -0.801573 -0.106363 -0.516274 -0.849793 
0.137617 0.0311153 -0.989997 0.149236 0.00718194 -0.988775 0.0813664 -0.0411855 -0.995833 
0.0978 -0.0227557 -0.994946 0.137452 0.004861 -0.990496 
