# vtk DataFile Version 4.2
vtk output
ASCII
DATASET POLYDATA
POINTS 516 float
11.3713 2.27264 -23.2836 -28.7879 -29.8547 -16.0968 -20.7561 -29.8547 -17.1119 
-12.7242 -29.8547 -17.1092 -4.69241 -29.8547 -16.101 3.33943 -29.8547 -15.7155 
-36.8198 -21.8229 -17.1611 -28.7879 -21.8229 -18.7191 -20.7561 -21.8229 -18.6483 
-12.7242 -21.8229 -17.7613 -4.69241 -21.8229 -16.4632 3.33943 -21.8229 -16.1444 
11.3713 -21.8229 -15.9383 19.4031 -21.8229 -15.5886 27.4349 -21.8229 -15.7519 
35.4668 -21.8229 -15.605 43.4986 -21.8229 -15.0927 -44.8516 -13.791 -17.166 
-36.8198 -13.791 -18.9374 -28.7879 -13.791 -19.0599 -20.7561 -13.791 -18.371 
-12.7242 -13.791 -17.653 -4.69241 -13.791 -16.7385 3.33943 -13.791 -17.5844 
11.3713 -13.791 -17.6414 19.4031 -13.791 -17.3148 27.4349 -13.791 -18.5499 
35.4668 -13.791 -19.3914 43.4986 -13.791 -19.2092 51.5305 -13.791 -17.4932 
-52.8834 -5.7592 -15.395 -44.8516 -5.7592 -19.2818 -36.8198 -5.7592 -20.1239 
-28.7879 -5.7592 -19.3108 -20.7561 -5.7592 -17.7525 -12.7242 -5.7592 -16.505 
-4.69241 -5.7592 -18.7147 3.33943 -5.7592 -17.942 11.3713 1.2185 -23.0199 
11.3713 -5.7592 -21.172 19.4031 -5.7592 -18.9465 27.4349 -5.7592 -19.5042 
35.4668 -5.7592 -20.6388 43.4986 -5.7592 -21.1172 51.5305 -5.7592 -20.706 
59.5623 -5.7592 -17.3547 -52.8834 2.27264 -16.3999 -44.8516 2.27264 -19.2945 
-36.8198 2.27264 -20.4328 -28.7879 2.27264 -19.1983 -20.7561 2.27264 -17.2389 
-4.69241 2.27264 -20.2766 10.8426 2.27264 -23.0199 3.33943 2.27264 -18.0347 
11.9592 2.27264 -23.0199 11.3713 3.93018 -23.0199 19.4031 2.27264 -19.5459 
27.4349 2.27264 -19.8291 35.4668 2.27264 -20.9497 43.4986 2.27264 -21.4176 
51.5305 2.27264 -21.1833 59.5623 2.27264 -18.1645 -52.8834 10.3045 -15.8108 
-44.8516 10.3045 -19.4871 -36.8198 10.3045 -19.942 -28.7879 10.3045 -19.102 
-20.7561 10.3045 -17.4802 -12.7242 10.3045 -16.8642 -4.69241 10.3045 -19.7596 
3.33943 10.3045 -19.9126 11.3713 10.3045 -22.0279 19.4031 10.3045 -20.6024 
27.4349 10.3045 -20.128 35.4668 10.3045 -20.8702 43.4986 10.3045 -20.994 
51.5305 10.3045 -20.5554 59.5623 10.3045 -18.279 -44.8516 18.3363 -17.513 
-36.8198 18.3363 -18.8461 -28.7879 18.3363 -19.0155 -20.7561 18.3363 -19.2313 
-12.7242 18.3363 -18.9363 -4.69241 18.3363 -20.0119 3.33943 18.3363 -20.3398 
11.3713 18.3363 -21.7344 19.4031 18.3363 -22.0035 27.4349 18.3363 -21.5075 
35.4668 18.3363 -21.3769 43.4986 18.3363 -20.3572 51.5305 18.3363 -19.5749 
59.5623 18.3363 -15.0167 -36.8198 26.3682 -17.5585 -28.7879 26.3682 -18.2883 
-20.7561 26.3682 -19.2405 -12.7242 26.3682 -20.0368 -4.69241 26.3682 -20.0646 
3.33943 26.3682 -20.3042 11.3713 26.3682 -21.0344 19.4031 26.3682 -21.8219 
27.4349 26.3682 -21.8152 35.4668 26.3682 -19.8022 43.4986 26.3682 -19.136 
51.5305 26.3682 -15.1101 -20.7561 34.4 -16.1486 -12.7242 34.4 -17.108 
-4.69241 34.4 -16.871 3.33943 34.4 -16.7401 11.3713 34.4 -16.905 
19.4031 34.4 -16.5607 27.4349 34.4 -15.9095 -28.7879 -31.7186 -14.9881 
-28.7879 -37.8865 -8.75587 -20.7561 -34.063 -14.9881 -20.7561 -37.8865 -12.3319 
-12.7242 -34.682 -14.9881 -12.7242 -37.8865 -13.3315 -4.69241 -33.6244 -14.9881 
-4.69241 -37.8865 -13.4511 3.33943 -32.1571 -14.9881 3.33943 -37.8865 -12.9711 
11.3713 -37.8865 -10.958 -32.5111 -29.8547 -14.9881 -36.8198 -26.943 -14.9881 
-36.8198 -29.8547 -12.9813 8.92383 -29.8547 -14.9881 11.3713 -27.9259 -14.9881 
11.3713 -29.8547 -14.677 19.4031 -23.8666 -14.9881 19.4031 -29.8547 -12.9556 
27.4349 -23.4242 -14.9881 27.4349 -29.8547 -10.8836 35.4668 -22.7863 -14.9881 
35.4668 -29.8547 -7.10891 43.4986 -21.9378 -14.9881 -42.8997 -21.8229 -14.9881 
-44.8516 -19.7203 -14.9881 -44.8516 -21.8229 -13.9026 43.7932 -21.8229 -14.9881 
51.5305 -17.7212 -14.9881 51.5305 -21.8229 -10.4264 -48.8517 -13.791 -14.9881 
-52.8834 -7.04951 -14.9881 -52.8834 -13.791 -11.7257 56.5442 -13.791 -14.9881 
59.5623 -10.8366 -14.9881 59.5623 -13.791 -12.2486 -53.4631 -5.7592 -14.9881 
-12.7242 1.30491 -14.9881 63.2368 -5.7592 -14.9881 67.5941 -5.7592 -7.2835 
-54.7022 2.27264 -14.9881 -13.3513 2.27264 -14.9881 -12.3846 2.27264 -14.9881 
-12.7242 3.04727 -14.9881 -12.7242 2.27264 -14.7996 64.3173 2.27264 -14.9881 
67.5941 2.27264 -9.0115 -54.0575 10.3045 -14.9881 -52.8834 12.8109 -14.9881 
63.2012 10.3045 -14.9881 -49.4267 18.3363 -14.9881 -52.8834 18.3363 -12.1484 
-44.8516 24.8947 -14.9881 59.5904 18.3363 -14.9881 59.5623 18.3697 -14.9881 
-43.329 26.3682 -14.9881 -44.8516 26.3682 -14.1721 -36.8198 30.2755 -14.9881 
-28.7879 33.4653 -14.9881 35.4668 33.1858 -14.9881 43.4986 30.8138 -14.9881 
51.7136 26.3682 -14.9881 51.5305 26.5098 -14.9881 -36.8198 34.4 -10.7309 
-26.4635 34.4 -14.9881 -28.7879 34.4 -14.1785 -20.7561 35.6267 -14.9881 
-12.7242 36.5864 -14.9881 -4.69241 36.3831 -14.9881 3.33943 36.0669 -14.9881 
11.3713 35.9981 -14.9881 19.4031 35.5867 -14.9881 30.9536 34.4 -14.9881 
27.4349 35.0627 -14.9881 -28.7879 -39.0868 -6.95624 -20.7561 -42.0336 -6.95624 
-12.7242 -43.7122 -6.95624 -4.69241 -44.512 -6.95624 3.33943 -44.1967 -6.95624 
11.3713 -42.2419 -6.95624 -31.2037 -37.8865 -6.95624 -36.8198 -34.7542 -6.95624 
19.2087 -37.8865 -6.95624 19.4031 -37.7681 -6.95624 19.4031 -37.8865 -6.67321 
27.4349 -33.4371 -6.95624 35.4668 -29.9468 -6.95624 -43.6921 -29.8547 -6.95624 
-44.8516 -28.867 -6.95624 -44.8516 -29.8547 -2.77048 35.745 -29.8547 -6.95624 
43.4986 -27.4766 -6.95624 51.5305 -24.0702 -6.95624 -51.6266 -21.8229 -6.95624 
-52.8834 -20.0382 -6.95624 -52.8834 -21.8229 -0.80725 54.7912 -21.8229 -6.95624 
59.5623 -17.8092 -6.95624 -56.4787 -13.791 -6.95624 62.6645 -13.791 -6.95624 
67.5941 -5.97947 -6.95624 -59.1852 -5.7592 -6.95624 67.5941 -5.7592 -6.45128 
-60.2697 2.27264 -6.95624 -60.9153 2.27264 -2.69164 67.5941 10.136 -6.95624 
67.5941 2.27264 -3.74389 -59.648 10.3045 -6.95624 67.5737 10.3045 -6.95624 
-56.5456 18.3363 -6.95624 -52.8834 24.3963 -6.95624 64.2531 18.3363 -6.95624 
59.5623 23.6816 -6.95624 59.5623 18.3363 0.876363 -51.4015 26.3682 -6.95624 
-44.8516 32.0995 -6.95624 35.4668 34.1111 -6.95624 43.4986 32.808 -6.95624 
56.4151 26.3682 -6.95624 51.5305 29.6204 -6.95624 51.5305 26.3682 -0.637019 
-41.076 34.4 -6.95624 -36.8198 36.5775 -6.95624 -28.7879 38.4179 -6.95624 
-20.7561 38.9807 -6.95624 -12.7242 38.9839 -6.95624 -4.69241 38.6652 -6.95624 
3.33943 37.6888 -6.95624 11.3713 36.3136 -6.95624 11.3713 34.4 -1.46229 
19.4031 35.5294 -6.95624 19.4031 34.4 -4.39464 33.9781 34.4 -6.95624 
27.4349 35.7362 -6.95624 27.4349 34.4 -4.25932 -28.7879 -40.6625 1.0756 
-20.7561 -43.506 1.0756 -12.7242 -45.112 1.0756 -4.69241 -45.8422 1.0756 
3.33943 -45.6537 1.0756 11.3713 -43.7842 1.0756 19.4031 -40.3507 1.0756 
-44.8516 -30.5425 1.0756 -34.2445 -37.8865 1.0756 -36.8198 -36.4245 1.0756 
24.1162 -37.8865 1.0756 27.4349 -36.1497 1.0756 35.4668 -31.9793 1.0756 
-45.6025 -29.8547 1.0756 -52.8834 -22.1722 1.0756 -44.8516 -29.8547 3.06743 
39.8645 -29.8547 1.0756 35.4668 -29.8547 6.92178 43.4986 -28.0326 1.0756 
51.5305 -22.886 1.0756 -53.1654 -21.8229 1.0756 -52.8834 -21.8229 1.92417 
53.0828 -21.8229 1.0756 51.5305 -21.8229 2.548 59.5623 -14.1001 1.0756 
-57.665 -13.791 1.0756 59.7509 -13.791 1.0756 59.5623 -13.791 1.28386 
-60.3258 -5.7592 1.0756 -60.9153 -1.54672 1.0756 65.0778 -5.7592 1.0756 
59.5623 -5.7592 6.13442 -61.4383 2.27264 1.0756 -60.9153 7.36509 1.0756 
-60.9153 2.27264 3.56651 65.8441 2.27264 1.0756 59.5623 2.27264 6.45419 
-60.6134 10.3045 1.0756 64.1403 10.3045 1.0756 59.5623 18.0557 1.0756 
59.5623 10.3045 4.81763 -57.8247 18.3363 1.0756 -52.8834 26.2152 1.0756 
59.3946 18.3363 1.0756 51.5305 25.159 1.0756 51.5305 18.3363 7.21983 
-52.7668 26.3682 1.0756 -44.8516 33.4543 1.0756 11.3713 33.4368 1.0756 
19.4031 31.7819 1.0756 27.4349 31.6186 1.0756 27.4349 26.3682 9.09361 
35.4668 30.9444 1.0756 35.4668 26.3682 7.54138 49.154 26.3682 1.0756 
43.4986 29.2432 1.0756 43.4986 26.3682 4.33351 -43.1668 34.4 1.0756 
-36.8198 37.4433 1.0756 -28.7879 39.0733 1.0756 -20.7561 39.2801 1.0756 
-12.7242 38.8199 1.0756 -4.69241 37.8635 1.0756 8.44639 34.4 1.0756 
3.33943 36.0134 1.0756 3.33943 34.4 5.51182 -28.7879 -38.7809 9.10744 
-20.7561 -41.7722 9.10744 -12.7242 -43.1247 9.10744 -4.69241 -43.3924 9.10744 
3.33943 -42.9216 9.10744 11.3713 -41.1564 9.10744 19.4031 -38.1985 9.10744 
-30.3949 -37.8865 9.10744 -36.8198 -33.6653 9.10744 -28.7879 -37.8865 10.4142 
-20.7561 -37.8865 14.9422 -12.7242 -37.8865 16.7219 -4.69241 -37.8865 16.4595 
3.33943 -37.8865 15.6017 11.3713 -37.8865 13.6553 20.0374 -37.8865 9.10744 
19.4031 -37.8865 9.5705 27.4349 -33.6829 9.10744 -41.7825 -29.8547 9.10744 
-44.8516 -27.1823 9.10744 -36.8198 -29.8547 13.0298 33.865 -29.8547 9.10744 
27.4349 -29.8547 13.3153 35.4668 -28.7751 9.10744 43.4986 -23.0663 9.10744 
-49.829 -21.8229 9.10744 -52.8834 -17.4632 9.10744 -44.8516 -21.8229 13.9847 
35.4668 -21.8229 14.8795 45.0331 -21.8229 9.10744 43.4986 -21.8229 10.2157 
51.5305 -14.6728 9.10744 -55.0837 -13.791 9.10744 -52.8834 -13.791 11.8194 
43.4986 -13.791 14.4088 52.177 -13.791 9.10744 51.5305 -13.791 9.61576 
-58.2017 -5.7592 9.10744 -52.8834 -5.7592 16.2186 43.4986 -5.7592 16.4345 
56.3681 -5.7592 9.10744 51.5305 -5.7592 12.7966 -59.5896 2.27264 9.10744 
43.4986 2.27264 16.1429 55.8838 2.27264 9.10744 51.5305 2.27264 11.9592 
-58.9812 10.3045 9.10744 43.4986 10.3045 14.5565 54.3666 10.3045 9.10744 
51.5305 14.6851 9.10744 51.5305 10.3045 11.0206 -56.17 18.3363 9.10744 
-52.8834 23.9306 9.10744 -52.8834 18.3363 14.6076 27.4349 26.3578 9.10744 
35.4668 24.9449 9.10744 35.4668 18.3363 14.3874 47.633 18.3363 9.10744 
43.4986 21.1093 9.10744 43.4986 18.3363 11.0468 -51.046 26.3682 9.10744 
-44.8516 31.9832 9.10744 -44.8516 26.3682 16.8468 3.33943 32.8783 9.10744 
3.33943 26.3682 15.8102 11.3713 30.3281 9.10744 11.3713 26.3682 14.2819 
27.3893 26.3682 9.10744 19.4031 27.9172 9.10744 19.4031 26.3682 11.8995 
-40.7804 34.4 9.10744 -36.8198 36.319 9.10744 -36.8198 34.4 13.2352 
-28.7879 38.3369 9.10744 -20.7561 38.4934 9.10744 -12.7242 37.4624 9.10744 
-12.7242 34.4 16.6466 -1.08946 34.4 9.10744 -4.69241 35.554 9.10744 
[...]
POINT_DATA 516
SCALARS ImageScalars float
LOOKUP_TABLE default
0 0 0 0 0 0 0 0 0 
0 0 0 0 0 0 0 0 0 
0 0 0 0 0 0 0 0 0 
0 0 0 0 0 0 0 0 0 
0 0 0 0 0 0 0 0 0 
0 0 0 0 0 0 0 0 0 
0 0 0 0 0 0 0 0 0 
0 0 0 0 0 0 0 0 0 
0 0 0 0 0 0 0 0 0 
0 0 0 0 0 0 0 0 0 
0 0 0 0 0 0 0 0 0 
0 0 0 0 0 0 0 0 0 
0 0 0 0 0 0 0 0 0 
0 0 0 0 0 0 0 0 0 
0 0 0 0 0 0 0 0 0 
0 0 0 0 0 0 0 0 0 
0 0 0 0 0 0 0 0 0 
0 0 0 0 0 0 0 0 0 
0 0 0 0 0 0 0 0 0 
0 0 0 0 0 0 0 0 0 
0 0 0 0 0 0 0 0 0 
0 0 0 0 0 0 0 0 0 
0 0 0 0 0 0 0 0 0 
0 0 0 0 0 0 0 0 0 
0 0 0 0 0 0 0 0 0 
0 0 0 0 0 0 0 0 0 
0 0 0 0 0 0 0 0 0 
0 0 0 0 0 0 0 0 0 
0 0 0 0 0 0 0 0 0 
0 0 0 0 0 0 0 0 0 
0 0 0 0 0 0 0 0 0 
0 0 0 0 0 0 0 0 0 
0 0 0 0 0 0 0 0 0 
0 0 0 0 0 0 0 0 0 
0 0 0 0 0 0 0 0 0 
0 0 0 0 0 0 0 0 0 
0 0 0 0 0 0 0 0 0 
0 0 0 0 0 0 0 0 0 
0 0 0 0 0 0 0 0 0 
0 0 0 0 0 0 0 0 0 
0 0 0 0 0 0 0 0 0 
0 0 0 0 0 0 0 0 0 
0 0 0 0 0 0 0 0 0 
0 0 0 0 0 0 0 0 0 
0 0 0 0 0 0 0 0 0 
0 0 0 0 0 0 0 0 0 
0 0 0 0 0 0 0 0 0 
0 0 0 0 0 0 0 0 0 
0 0 0 0 0 0 0 0 0 
0 0 0 0 0 0 0 0 0 
0 0 0 0 0 0 0 0 0 
0 0 0 0 0 0 0 0 0 
0 0 0 0 0 0 0 0 0 
0 0 0 0 0 0 0 0 0 
0 0 0 0 0 0 0 0 0 
0 0 0 0 0 0 0 0 0 
0 0 0 0 0 0 0 0 0 
0 0 0 
NORMALS Normals float
0.0251246 0.0464296 0.998606 0.194234 0.426811 0.883236 0.0595117 0.321053 0.94519 
-0.066166 0.235857 0.969533 -0.0807274 0.160414 0.983743 -0.0889345 0.176484 0.980277 
0.249867 0.295538 0.922076 0.0923004 0.179039 0.979503 -0.0575601 0.0721527 0.995731 
-0.137147 0.0313819 0.990053 -0.0980075 0.0400684 0.994379 -0.0326613 0.107564 0.993662 
-0.0345656 0.171009 0.984663 -0.0124706 0.249198 0.968372 0.00271324 0.401604 0.91581 
-0.0365116 0.506031 0.861742 -0.17908 0.649431 0.739033 0.331654 0.289326 0.89794 
0.104477 0.180411 0.978027 -0.0352899 0.0357824 0.998736 -0.0873367 -0.0555027 0.994631 
-0.100067 -0.0707351 0.992463 -0.0084943 0.128246 0.991706 0.0581227 0.113715 0.991812 
-0.0167143 0.314188 0.949214 0.0564027 0.21092 0.975875 0.123401 0.219326 0.967816 
0.0406743 0.279674 0.959233 -0.104448 0.329134 0.938489 -0.29763 0.421683 0.856504 
0.547471 0.20247 0.811961 0.271124 0.116498 0.955468 -0.00438493 0.0920774 0.995742 
-0.143779 0.00849271 0.989573 -0.171072 -0.0712016 0.982682 0.0502935 -0.148197 0.987678 
0.0898594 0.213791 0.972738 0.162481 0.0281966 0.986309 0.0245417 0.086111 0.995983 
0.031997 0.329784 0.943514 -0.0960736 0.13753 0.985827 0.106777 0.0795922 0.991092 
0.099281 0.0923195 0.990768 0.00696971 0.137289 0.990507 -0.237131 0.213166 0.947802 
-0.484314 0.238802 0.841673 0.543484 0.0227722 0.839111 0.233146 0.0108664 0.972381 
-0.000910199 -0.0113153 0.999936 -0.196165 -0.0130466 0.980484 -0.221697 -0.0173155 0.974962 
0.117931 0.0646151 0.990917 0.035598 0.0505019 0.998089 0.227256 0.145309 0.962933 
0.0075342 0.0530006 0.998566 0.0307547 0.0163242 0.999394 -0.202356 0.102581 0.973925 
0.0859443 0.0385503 0.995554 0.0983346 0.0141425 0.995053 0.0158254 -0.00806689 0.999842 
-0.220986 -0.00858645 0.975239 -0.456228 0.054145 0.888214 0.529052 -0.177832 0.829747 
0.242939 -0.0965267 0.965227 -0.027719 -0.0977994 0.99482 -0.149951 -0.011266 0.988629 
-0.13568 0.122858 0.983106 0.150028 0.216285 0.964734 0.187306 -0.0111793 0.982238 
0.144355 0.114963 0.982825 0.0450467 -0.0909086 0.99484 -0.120989 0.152212 0.980914 
0.0195621 0.106308 0.994141 0.0536525 0.0255732 0.998232 -0.0162894 -0.071204 0.997329 
-0.137681 -0.110802 0.98426 -0.512224 -0.149158 0.845801 0.30576 -0.291145 0.906502 
0.0830989 -0.132987 0.987628 0.023632 -0.0481766 0.998559 -0.00402454 0.11042 0.993877 
0.0473373 0.189282 0.980781 0.0848501 0.0189998 0.996213 0.106875 0.0233903 0.993997 
0.102418 -0.0625657 0.992772 -0.013917 0.0706744 0.997402 -0.0387634 0.102148 0.994014 
-0.0816797 -0.0697087 0.994218 -0.107901 -0.104015 0.988705 -0.262159 -0.318372 0.910995 
-0.660725 -0.442033 0.60667 0.226858 -0.362886 0.903797 0.102839 -0.223999 0.969148 
0.100423 -0.162103 0.981651 0.0553606 -0.0887954 0.99451 0.0163793 -0.169817 0.985339 
0.0644266 -0.191297 0.979415 0.0911732 -0.253607 0.963001 0.057047 -0.264454 0.96271 
-0.132966 -0.262405 0.955753 -0.153405 -0.362993 0.919077 -0.300528 -0.506027 0.808468 
-0.491865 -0.631049 0.599871 0.140351 -0.652589 0.7446 0.0450156 -0.634341 0.771742 
-0.0218656 -0.657784 0.752889 0.00119356 -0.721987 0.691906 -0.00705735 -0.805664 0.592331 
-0.0556471 -0.855328 0.515089 -0.127109 -0.86507 0.48528 0.223915 0.493722 0.840298 
0.368565 0.810062 0.456025 0.100666 0.485535 0.868402 0.183536 0.696938 0.693248 
-0.00191146 0.428745 0.903424 0.0518725 0.591472 0.804656 -0.0561283 0.306367 0.950257 
-0.0211737 0.511661 0.858926 -0.102417 0.258837 0.960476 -0.135351 0.508313 0.85047 
-0.307556 0.591172 0.745604 0.287894 0.49109 0.82216 0.343754 0.464138 0.816339 
0.426216 0.600649 0.676432 -0.135058 0.235061 0.962552 -0.124316 0.235813 0.963814 
-0.154559 0.260691 0.95297 -0.0517964 0.285197 0.957068 -0.199151 0.428378 0.88138 
-0.030402 0.436752 0.899068 -0.242987 0.659847 0.711027 -0.0604211 0.534143 0.843232 
-0.308555 0.873475 0.376611 -0.182125 0.653488 0.7347 0.417845 0.41255 0.809449 
0.44257 0.403352 0.800899 0.494541 0.468225 0.732254 -0.187119 0.654162 0.732843 
-0.358865 0.586941 0.725752 -0.452336 0.806114 0.38154 0.493373 0.337237 0.801782 
0.562445 0.236578 0.792267 0.702373 0.406435 0.584365 -0.48755 0.501759 0.714516 
-0.556295 0.440036 0.704914 -0.679268 0.570798 0.461285 0.570741 0.206823 0.794657 
0.142347 -0.00010042 0.989817 -0.6081 0.291285 0.73849 -0.932937 0.347223 0.0952128 
0.631346 0.0232806 0.775152 0.118299 0.0259921 0.992638 0.159715 0.0334582 0.986596 
0.157523 0.0559547 0.985929 0.155066 0.0287954 0.987484 -0.677859 -0.000507446 0.735192 
-0.976903 -0.00624183 0.213591 0.578446 -0.187736 0.793824 0.564762 -0.252489 0.78568 
-0.658956 -0.248913 0.709802 0.508441 -0.347793 0.787736 0.694066 -0.417214 0.58669 
0.434717 -0.434663 0.788726 -0.661767 -0.442221 0.605397 -0.661325 -0.443201 0.605164 
0.415843 -0.456632 0.786487 0.470089 -0.491238 0.733281 0.280386 -0.533387 0.798049 
0.220913 -0.634061 0.741056 -0.23845 -0.863556 0.444311 -0.334316 -0.773771 0.538063 
-0.495417 -0.634709 0.593048 -0.492911 -0.638261 0.591322 0.336726 -0.789591 0.512993 
0.204644 -0.68294 0.701223 0.222455 -0.714397 0.663438 0.145141 -0.725554 0.672685 
0.0457243 -0.771266 0.634868 -0.0316625 -0.777484 0.628105 -0.0236089 -0.824621 0.565193 
-0.0300469 -0.902215 0.430239 -0.0681032 -0.923977 0.376335 -0.181476 -0.894071 0.409516 
-0.130763 -0.89859 0.418851 0.382353 0.84873 0.365326 0.25152 0.88483 0.392192 
0.141109 0.898614 0.41543 0.0297939 0.899926 0.435023 -0.115091 0.886184 0.448812 
-0.33122 0.812773 0.479264 0.41899 0.832048 0.363517 0.506579 0.782687 0.361632 
-0.432424 0.740436 0.514553 -0.432848 0.739063 0.516167 -0.436568 0.750307 0.496435 
-0.378703 0.775698 0.504853 -0.310459 0.875934 0.369262 0.599092 0.715551 0.35927 
0.616139 0.700639 0.35983 0.6545 0.744231 0.133228 -0.309942 0.876826 0.367576 
-0.322523 0.892469 0.315401 -0.476827 0.856035 0.1996 0.735234 0.57493 0.359008 
0.762411 0.538943 0.358148 0.79777 0.602694 0.0179602 -0.563132 0.807782 0.174271 
-0.725386 0.679247 0.111524 0.844469 0.408959 0.345868 -0.815626 0.573648 0.0753741 
-0.93277 0.353514 0.0704881 0.929262 0.202418 0.30903 -0.936566 0.348803 0.0343597 
0.940305 0.0257294 0.33936 0.990748 0.020934 0.134092 -0.964416 -0.260805 0.0433962 
-0.98477 -0.0173872 -0.17299 0.935703 -0.200457 0.290303 -0.962823 -0.26674 0.0426751 
0.846335 -0.41375 0.335453 0.748245 -0.571454 0.337001 -0.856152 -0.516393 0.0184847 
-0.701162 -0.712794 0.017232 -0.678969 -0.489038 -0.547579 0.706333 -0.623341 0.335469 
0.539933 -0.783079 0.308643 -0.168266 -0.977753 -0.12524 -0.280921 -0.958313 -0.0521482 
-0.600139 -0.799872 -0.0062083 -0.466496 -0.883006 -0.0517908 -0.428973 -0.769474 -0.473172 
0.437616 -0.848077 0.29876 0.341275 -0.893436 0.292068 0.144403 -0.952596 0.267783 
0.0329692 -0.980242 0.195036 -0.0195721 -0.993499 0.112144 -0.0797668 -0.994504 0.0678143 
-0.144545 -0.989429 -0.0117367 -0.135644 -0.979805 -0.146911 -0.211277 -0.935027 -0.284758 
-0.0369513 -0.975204 -0.218202 -0.0604099 -0.953997 -0.293666 -0.155421 -0.977637 -0.141668 
-0.0929244 -0.976682 -0.193537 -0.0733667 -0.947086 -0.312482 0.402041 0.915432 -0.0186221 
0.259526 0.965584 -0.0171181 0.140354 0.989447 -0.0359976 0.0337269 0.997369 -0.0641733 
-0.123569 0.989876 -0.0698257 -0.299387 0.951428 -0.0717752 -0.437998 0.898975 0.00149328 
0.660658 0.747871 -0.0649692 0.492319 0.869678 -0.0358041 0.534755 0.843693 -0.0471016 
-0.456679 0.889445 0.0182391 -0.463692 0.885885 0.0140432 -0.439199 0.897185 -0.0465034 
0.673052 0.736469 -0.0679304 0.792922 0.604087 -0.0797152 0.660566 0.733082 -0.162 
-0.442571 0.89063 -0.104442 -0.468747 0.80074 -0.372949 -0.468041 0.865703 -0.177469 
-0.559563 0.761186 -0.32785 0.797719 0.597735 -0.0797291 0.792546 0.598122 -0.118831 
-0.591048 0.73358 -0.335444 -0.561886 0.722053 -0.403637 -0.751317 0.46015 -0.473059 
0.90621 0.416635 -0.0720944 -0.752577 0.453856 -0.477119 -0.750874 0.448816 -0.484513 
0.975434 0.213031 -0.0560879 0.993018 0.108731 -0.0457526 -0.774972 0.295441 -0.558688 
-0.678989 0.208622 -0.703883 0.999219 0.0164096 -0.0359566 0.991285 -0.12587 -0.0388667 
0.989694 0.0244685 -0.141092 -0.795506 -0.0386768 -0.604711 -0.632584 -0.0651636 -0.771745 
0.977497 -0.207133 -0.0399424 -0.722179 -0.294666 -0.625803 -0.673759 -0.478159 -0.563394 
-0.649003 -0.218604 -0.728703 0.912195 -0.409071 -0.0236941 0.773903 -0.633093 -0.0163507 
-0.669921 -0.486006 -0.561252 -0.412824 -0.70012 -0.582587 -0.407621 -0.514228 -0.754596 
0.769945 -0.6379 -0.016371 0.531272 -0.847192 -0.0040064 -0.244243 -0.906499 -0.34439 
-0.102489 -0.893681 -0.436841 -0.0449664 -0.86315 -0.502941 -0.145959 -0.801782 -0.579519 
-0.11277 -0.871015 -0.478138 -0.181817 -0.742977 -0.644149 -0.368547 -0.73239 -0.572519 
-0.287498 -0.790693 -0.540508 -0.313304 -0.711042 -0.629491 0.480125 -0.877184 -0.00533253 
0.314128 -0.949262 -0.0150272 0.114715 -0.993359 -0.00887149 -0.0156172 -0.999375 -0.0317265 
-0.0863018 -0.991926 -0.0929211 -0.168306 -0.969949 -0.175705 -0.248605 -0.914814 -0.318294 
-0.253977 -0.930418 -0.26423 -0.277046 -0.885585 -0.372806 0.407651 0.82527 -0.390834 
0.240316 0.895227 -0.375254 0.0926813 0.917203 -0.387491 -0.0096608 0.898209 -0.439462 
-0.12445 0.874565 -0.468665 -0.254258 0.85728 -0.447687 -0.379985 0.827161 -0.414025 
0.434609 0.807684 -0.39845 0.539233 0.70674 -0.457982 0.411754 0.792948 -0.449101 
0.244447 0.70072 -0.670252 0.0598288 0.657539 -0.751042 -0.0469749 0.681435 -0.73037 
-0.115167 0.694762 -0.70996 -0.234621 0.739155 -0.631351 -0.387163 0.824693 -0.412295 
-0.3777 0.81807 -0.433709 -0.462199 0.765905 -0.446947 0.58876 0.659546 -0.467291 
0.608946 0.639756 -0.468932 0.499013 0.576933 -0.646633 -0.464295 0.734459 -0.494974 
-0.420104 0.610243 -0.671651 -0.465083 0.718211 -0.517563 -0.498052 0.595976 -0.629886 
0.683311 0.557448 -0.471527 0.73721 0.49241 -0.462659 0.515657 0.485485 -0.705976 
-0.38766 0.444081 -0.807782 -0.503715 0.566904 -0.651837 -0.495709 0.550168 -0.672003 
-0.55026 0.413053 -0.725672 0.77447 0.433147 -0.461064 0.689483 0.430514 -0.58247 
-0.441774 0.30435 -0.843923 -0.561896 0.390609 -0.729176 -0.549356 0.391884 -0.737994 
0.875434 0.234979 -0.422375 0.606008 0.245013 -0.756784 -0.393456 0.0941807 -0.914507 
-0.619163 0.153779 -0.770058 -0.520616 0.119899 -0.84533 0.915223 0.0436071 -0.40058 
-0.424387 -0.105921 -0.899265 -0.558206 -0.0810342 -0.825736 -0.496569 -0.100855 -0.862118 
0.91496 -0.186335 -0.357948 -0.389161 -0.262508 -0.882974 -0.545272 -0.205538 -0.81267 
-0.439937 -0.383972 -0.811801 -0.489643 -0.225935 -0.842142 0.853506 -0.395836 -0.338883 
0.761828 -0.559076 -0.327187 0.736013 -0.365112 -0.570068 -0.146241 -0.801541 -0.579781 
-0.205003 -0.695433 -0.688728 -0.304444 -0.49195 -0.815659 -0.366079 -0.494853 -0.788103 
-0.34838 -0.543985 -0.763356 -0.350161 -0.470635 -0.809871 0.704795 -0.629629 -0.32685 
0.555293 -0.776447 -0.297959 0.550443 -0.533728 -0.641988 -0.283958 -0.824264 -0.489853 
-0.211924 -0.566173 -0.796578 -0.266459 -0.842081 -0.468935 -0.155976 -0.71841 -0.677908 
-0.146496 -0.802108 -0.578932 -0.207831 -0.868922 -0.4492 -0.201225 -0.827163 -0.524699 
0.443469 -0.852572 -0.276506 0.345093 -0.900234 -0.265499 0.356159 -0.826787 -0.435401 
0.123483 -0.965398 -0.229694 -0.0512747 -0.975921 -0.212014 -0.169123 -0.952259 -0.254167 
-0.247834 -0.766106 -0.593009 -0.282194 -0.857618 -0.42995 -0.267236 -0.876443 -0.400539 
-0.296845 -0.829536 -0.473026 0.323592 0.40577 -0.854774 0.226662 0.517858 -0.824892 
0.0610223 0.622263 -0.780426 -0.0442173 0.635968 -0.770447 -0.112098 0.60527 -0.788087 
-0.214592 0.544366 -0.810935 -0.299917 0.457759 -0.836963 0.328015 0.399429 -0.856074 
0.317736 0.36624 -0.874593 0.316445 0.386978 -0.866089 0.206557 0.281628 -0.937027 
0.0935032 0.263699 -0.960063 -0.0136326 0.304121 -0.952536 -0.0880656 0.354753 -0.930803 
-0.198805 0.384933 -0.901279 -0.303287 0.453283 -0.838184 -0.298749 0.447956 -0.842665 
-0.301582 0.378799 -0.874963 0.326477 0.359002 -0.874374 0.40486 0.327978 -0.853533 
0.293959 0.340051 -0.893282 0.189991 0.199437 -0.961316 0.1356 0.106131 -0.985063 
0.100475 0.088261 -0.991017 0.0490218 0.109562 -0.99277 -0.0588052 0.135132 -0.989081 
-0.164177 0.148446 -0.975197 -0.214224 0.214542 -0.952932 -0.304476 0.359037 -0.882262 
-0.274656 0.334699 -0.90141 -0.344391 0.300183 -0.889542 0.411434 0.321071 -0.853016 
0.394457 0.313183 -0.863898 0.176062 0.259994 -0.949424 0.076397 0.17017 -0.982449 
0.0998995 0.127621 -0.986779 0.100997 0.191197 -0.976342 0.0350263 0.133913 -0.990374 
-0.0427091 0.0859127 -0.995387 -0.118351 0.143784 -0.982507 -0.125117 0.17399 -0.976767 
-0.179768 0.222102 -0.958308 -0.357475 0.262871 -0.896164 -0.330194 0.256764 -0.90832 
0.532798 0.242704 -0.810692 0.60919 0.135225 -0.78141 0.314235 0.230343 -0.920977 
0.141211 0.202826 -0.968979 0.0629453 0.189795 -0.979804 0.152703 0.139945 -0.978313 
0.106323 0.142639 -0.984048 -0.0651846 0.122549 -0.990319 -0.0485834 0.0898739 -0.994767 
-0.0715182 0.120666 -0.990113 -0.13032 0.140373 -0.981485 -0.191982 0.122746 -0.973692 
-0.376448 0.0950664 -0.921547 -0.310989 0.0956433 -0.945589 0.63781 0.0638596 -0.767541 
0.617639 0.0658315 -0.783702 0.315691 0.115111 -0.941854 0.121352 0.110255 -0.986467 
0.00202562 0.0925689 -0.995704 0.04752 0.0401308 -0.998064 0.0879655 -0.0873788 -0.992284 
-0.013642 0.0359198 -0.999262 -0.0437274 0.027422 -0.998667 -0.0665619 -0.0793731 -0.99462 
-0.12257 -0.0415918 -0.991588 -0.222679 -0.0642388 -0.972773 -0.402371 -0.104175 -0.90953 
-0.345967 -0.0934271 -0.933583 0.650125 -0.113377 -0.751321 0.65082 -0.158052 -0.742599 
0.629242 -0.110844 -0.769264 0.340119 -0.0578636 -0.9386 0.119523 -0.0277197 -0.992444 
-0.00763344 -0.0120183 -0.999899 -0.0233195 0.0178577 -0.999569 0.101103 -0.0484202 -0.993697 
-0.168994 -0.187278 -0.967661 -0.134642 -0.244435 -0.960272 -0.112245 -0.212451 -0.970704 
-0.2428 -0.267571 -0.932445 -0.357143 -0.27638 -0.892223 -0.337937 -0.328609 -0.881938 
-0.343134 -0.281601 -0.89608 0.628989 -0.317656 -0.709554 0.544638 -0.517297 -0.660131 
0.412274 -0.247099 -0.876911 0.164458 -0.132432 -0.977453 0.0467489 -0.0894559 -0.994893 
0.0115432 -0.0397742 -0.999142 -0.0248651 -0.0803721 -0.996455 -0.165945 -0.3435 -0.924375 
-0.195582 -0.526928 -0.8271 -0.185447 -0.485081 -0.854579 -0.0761627 -0.567452 -0.819876 
-0.0580794 -0.415305 -0.907826 -0.16639 -0.609081 -0.775458 -0.142107 -0.438523 -0.887414 
-0.292002 -0.498632 -0.81615 -0.290314 -0.506836 -0.811686 -0.290464 -0.499007 -0.816469 
0.540144 -0.526758 -0.656331 0.353522 -0.682415 -0.639791 0.291707 -0.403524 -0.867223 
0.0909111 -0.297623 -0.950345 -0.0190928 -0.279491 -0.959958 -0.252262 -0.740775 -0.622588 
-0.208653 -0.37001 -0.905293 -0.273012 -0.532741 -0.801032 -0.359709 -0.577468 -0.732898 
-0.353322 -0.510107 -0.78419 0.191864 -0.7708 -0.607499 0.157988 -0.779809 -0.605754 
0.158354 -0.763129 -0.626544 -0.209582 -0.759291 -0.616078 -0.0337626 -0.797172 -0.602808 
-0.0379999 -0.752081 -0.657975 0.0383511 -0.0575801 -0.997604 0.0527795 -0.077722 -0.995577 
0.030564 -0.0882388 -0.99563 0.0426269 -0.0887167 -0.995144 0.0506708 -0.0786248 -0.995616 

