# vtk DataFile Version 4.2
vtk output
ASCII
DATASET POLYDATA
POINTS 534 float
-28.2504 -45.7613 -15.9324 -18.9759 -45.7613 -16.7229 -9.70131 -45.7613 -18.0256 
-0.426742 -45.7613 -18.4131 8.84782 -45.7613 -17.759 18.1224 -45.7613 -16.7777 
27.397 -45.7613 -15.8253 -46.7996 -36.4867 -16.6022 -37.525 -36.4867 -17.5878 
-28.2504 -36.4867 -19.6831 -18.9759 -36.4867 -19.3013 -9.70131 -36.4867 -19.8926 
-0.426742 -36.4867 -19.9801 8.84782 -36.4867 -20.1404 18.1224 -36.4867 -20.2121 
27.397 -36.4867 -20.0536 36.6715 -36.4867 -19.1896 45.9461 -36.4867 -16.6505 
-65.3487 -27.2122 -15.2671 -56.0741 -27.2122 -18.6877 -46.7996 -27.2122 -19.6208 
-37.525 -27.2122 -20.5129 -28.2504 -27.2122 -20.2197 -18.9759 -27.2122 -19.6706 
-9.70131 -27.2122 -19.6252 -0.426742 -27.2122 -18.9208 8.84782 -27.2122 -19.9181 
18.1224 -27.2122 -20.5859 27.397 -27.2122 -21.5367 36.6715 -27.2122 -20.3887 
45.9461 -27.2122 -19.4686 55.2207 -27.2122 -16.1505 -65.3487 -17.9376 -16.0879 
-56.0741 -17.9376 -19.6349 -46.7996 -17.9376 -21.3946 -37.525 -17.9376 -21.2906 
-28.2504 -17.9376 -20.277 -18.9759 -17.9376 -19.3162 -9.70131 -17.9376 -19.0457 
-0.426742 -17.9376 -18.1281 8.84782 -17.9376 -18.784 18.1224 -17.9376 -19.3272 
27.397 -17.9376 -19.9174 36.6715 -17.9376 -20.0525 45.9461 -17.9376 -19.8472 
55.2207 -17.9376 -16.8629 -65.3487 -8.66304 -16.6172 -56.0741 -8.66304 -20.3601 
-46.7996 -8.66304 -21.5956 -37.525 -8.66304 -21.1617 -28.2504 -8.66304 -20.1465 
-18.9759 -8.66304 -18.8507 -9.70131 -8.66304 -23.2268 -0.426742 -8.66304 -19.9415 
8.84782 -8.66304 -19.6113 18.1224 -8.66304 -17.0505 27.397 -8.66304 -18.5 
36.6715 -8.66304 -19.0508 45.9461 -8.66304 -18.694 55.2207 -8.66304 -16.9589 
-65.3487 0.611523 -14.6073 -56.0741 0.611523 -19.7241 -46.7996 0.611523 -21.5038 
-37.525 0.611523 -21.4951 -28.2504 0.611523 -19.9029 -18.9759 0.611523 -18.2308 
-9.70131 0.611523 -23.2693 -0.426742 0.611523 -16.5213 8.84782 0.611523 -21.1572 
18.1224 0.611523 -18.5382 27.397 0.611523 -17.8471 36.6715 0.611523 -17.988 
45.9461 0.611523 -17.1452 55.2207 0.611523 -14.9156 -56.0741 9.88609 -18.5681 
-46.7996 9.88609 -21.639 -37.525 9.88609 -21.9716 -28.2504 9.88609 -20.7121 
-18.9759 9.88609 -19.0077 -9.70131 9.88609 -20.5729 -0.426742 9.88609 -21.4545 
8.84782 9.88609 -19.1743 18.1224 9.88609 -18.7919 27.397 9.88609 -18.0878 
36.6715 9.88609 -17.2373 45.9461 9.88609 -15.6617 -56.0741 19.1607 -15.7247 
-46.7996 19.1607 -20.8866 -37.525 19.1607 -22.4011 -28.2504 19.1607 -21.3192 
-18.9759 19.1607 -19.0448 -9.70131 19.1607 -16.7746 -0.426742 19.1607 -17.6612 
8.84782 19.1607 -17.7366 18.1224 19.1607 -18.1315 27.397 19.1607 -18.179 
36.6715 19.1607 -16.7912 45.9461 19.1607 -14.609 -46.7996 28.4352 -18.706 
-37.525 28.4352 -20.4534 -28.2504 28.4352 -20.1226 -18.9759 28.4352 -18.7189 
-9.70131 28.4352 -17.3348 -0.426742 28.4352 -18.1361 8.84782 28.4352 -18.2932 
18.1224 28.4352 -18.4376 27.397 28.4352 -17.5994 36.6715 28.4352 -15.7927 
-37.525 37.7098 -17.4658 -28.2504 37.7098 -17.0054 -18.9759 37.7098 -16.9214 
-9.70131 37.7098 -17.4079 -0.426742 37.7098 -17.7067 8.84782 37.7098 -17.8969 
18.1224 37.7098 -17.6363 27.397 37.7098 -16.2308 36.6715 37.7098 -14.3609 
-9.70131 46.9844 -14.6255 -0.426742 46.9844 -15.1029 8.84782 46.9844 -16.146 
18.1224 46.9844 -14.8516 -28.2504 -48.4361 -14.3086 -18.9759 -49.1913 -14.3086 
-9.70131 -50.8582 -14.3086 -0.426742 -51.0167 -14.3086 8.84782 -49.9468 -14.3086 
18.1224 -48.4551 -14.3086 27.397 -47.3113 -14.3086 -46.7996 -39.3093 -14.3086 
-32.8953 -45.7613 -14.3086 -37.525 -42.4469 -14.3086 -37.525 -45.7613 -10.3338 
33.4538 -45.7613 -14.3086 36.6715 -44.474 -14.3086 36.6715 -45.7613 -11.4696 
45.9461 -40.6212 -14.3086 -65.3487 -28.5218 -14.3086 -51.4659 -36.4867 -14.3086 
-56.0741 -33.4948 -14.3086 -56.0741 -36.4867 -11.3947 53.5979 -36.4867 -14.3086 
55.2207 -34.2497 -14.3086 55.2207 -36.4867 -13.1686 -66.4585 -27.2122 -14.3086 
58.9383 -27.2122 -14.3086 64.4952 -27.2122 -11.0429 -67.7158 -17.9376 -14.3086 
-74.6233 -17.9376 -6.10953 61.9464 -17.9376 -14.3086 64.4952 -17.9376 -12.9577 
-68.1303 -8.66304 -14.3086 61.2671 -8.66304 -14.3086 64.4952 -8.66304 -12.6587 
73.7698 -8.66304 -6.48264 -65.7047 0.611523 -14.3086 -65.3487 1.62182 -14.3086 
56.9329 0.611523 -14.3086 55.2207 3.08478 -14.3086 64.4952 0.611523 -10.8593 
-62.7736 9.88609 -14.3086 -65.3487 9.88609 -10.5729 50.2432 9.88609 -14.3086 
55.2207 9.88609 -12.6684 64.4952 9.88609 -8.28192 -57.6713 19.1607 -14.3086 
-56.0741 22.8595 -14.3086 47.0482 19.1607 -14.3086 45.9461 20.89 -14.3086 
55.2207 19.1607 -11.1412 -53.3566 28.4352 -14.3086 -56.0741 28.4352 -9.4656 
-46.7996 35.744 -14.3086 41.4908 28.4352 -14.3086 45.9461 28.4352 -12.9195 
55.2207 28.4352 -7.43891 -44.3508 37.7098 -14.3086 -46.7996 37.7098 -11.8453 
-37.525 41.8531 -14.3086 -28.2504 41.5202 -14.3086 -18.9759 43.344 -14.3086 
27.397 42.8796 -14.3086 36.8058 37.7098 -14.3086 36.6715 37.8694 -14.3086 
45.9461 37.7098 -9.81113 -28.2504 46.9844 -8.15943 -11.2993 46.9844 -14.3086 
-18.9759 46.9844 -11.8862 -9.70131 47.5892 -14.3086 -0.426742 48.1962 -14.3086 
8.84782 49.7085 -14.3086 20.6504 46.9844 -14.3086 18.1224 47.9615 -14.3086 
27.397 46.9844 -12.5381 36.6715 46.9844 -10.2126 -0.426742 56.2589 -5.48107 
8.84782 56.2589 -6.39196 18.1224 56.2589 -5.53955 -37.525 -48.076 -5.03405 
-28.2504 -51.1904 -5.03405 -18.9759 -53.3858 -5.03405 -9.70131 -54.7965 -5.03405 
-0.426742 -54.4794 -5.03405 8.84782 -53.477 -5.03405 18.1224 -51.5621 -5.03405 
27.397 -49.3491 -5.03405 36.6715 -47.5318 -5.03405 -56.0741 -40.0934 -5.03405 
-43.3694 -45.7613 -5.03405 -46.7996 -44.3536 -5.03405 -37.525 -45.7613 0.453012 
27.397 -45.7613 2.53445 41.4511 -45.7613 -5.03405 36.6715 -45.7613 -0.582114 
45.9461 -44.2209 -5.03405 55.2207 -40.3558 -5.03405 -61.4614 -36.4867 -5.03405 
-65.3487 -33.4174 -5.03405 61.6851 -36.4867 -5.03405 64.4952 -34.0392 -5.03405 
-70.8729 -27.2122 -5.03405 -74.6233 -19.16 -5.03405 69.5675 -27.2122 -5.03405 
-75.1759 -17.9376 -5.03405 -74.6233 -10.1628 -5.03405 -74.6233 -17.9376 -0.634035 
72.3931 -17.9376 -5.03405 73.7698 -13.7329 -5.03405 73.7698 -17.9376 -2.10052 
-74.5149 -8.66304 -5.03405 75.009 -8.66304 -5.03405 73.7698 -5.03819 -5.03405 
-73.4687 0.611523 -5.03405 71.0082 0.611523 -5.03405 73.7698 0.611523 -0.942838 
-67.8357 9.88609 -5.03405 -65.3487 14.2153 -5.03405 68.0967 9.88609 -5.03405 
64.4952 16.5939 -5.03405 -62.3911 19.1607 -5.03405 62.6428 19.1607 -5.03405 
64.4952 19.1607 -2.72122 -57.7863 28.4352 -5.03405 -56.0741 31.1243 -5.03405 
57.8152 28.4352 -5.03405 55.2207 33.0415 -5.03405 -50.9239 37.7098 -5.03405 
-46.7996 41.4582 -5.03405 -37.525 46.1427 -5.03405 51.6195 37.7098 -5.03405 
45.9461 44.6676 -5.03405 55.2207 37.7098 2.19452 -34.5808 46.9844 -5.03405 
-28.2504 48.7524 -5.03405 -18.9759 51.6307 -5.03405 -9.70131 54.1637 -5.03405 
27.397 55.1768 -5.03405 43.6262 46.9844 -5.03405 36.6715 51.0122 -5.03405 
45.9461 46.9844 1.22512 -1.44359 56.2589 -5.03405 -0.426742 56.5026 -5.03405 
-0.426742 56.2589 -3.61273 8.84782 57.0312 -5.03405 8.84782 56.2589 1.7625 
20.4112 56.2589 -5.03405 18.1224 56.525 -5.03405 18.1224 56.2589 1.75049 
-28.2504 -46.2966 4.24051 -18.9759 -46.8211 4.24051 -9.70131 -47.7159 4.24051 
-0.426742 -48.0678 4.24051 8.84782 -47.6404 4.24051 18.1224 -46.8381 4.24051 
-56.0741 -37.8407 4.24051 -46.7996 -41.1886 4.24051 -30.3851 -45.7613 4.24051 
-37.525 -43.7087 4.24051 -28.2504 -45.7613 4.83458 -18.9759 -45.7613 5.28899 
-9.70131 -45.7613 5.99527 -0.426742 -45.7613 6.39865 8.84782 -45.7613 6.15869 
23.1641 -45.7613 4.24051 18.1224 -45.7613 5.43831 27.397 -44.6488 4.24051 
36.6715 -43.4456 4.24051 45.9461 -41.472 4.24051 55.2207 -38.7275 4.24051 
-58.1895 -36.4867 4.24051 -65.3487 -30.7814 4.24051 -56.0741 -36.4867 6.06649 
-46.7996 -36.4867 9.61806 -37.525 -36.4867 10.8189 -28.2504 -36.4867 11.5716 
-18.9759 -36.4867 11.6759 -9.70131 -36.4867 11.2529 -0.426742 -36.4867 11.6514 
8.84782 -36.4867 12.3212 18.1224 -36.4867 11.8624 27.397 -36.4867 11.4295 
36.6715 -36.4867 11.2231 45.9461 -36.4867 11.1972 61.2318 -36.4867 4.24051 
55.2207 -36.4867 7.61451 64.4952 -34.8734 4.24051 -68.8706 -27.2122 4.24051 
-65.3487 -27.2122 9.484 70.9015 -27.2122 4.24051 73.7698 -22.3768 4.24051 
-73.8492 -17.9376 4.24051 75.8416 -17.9376 4.24051 73.7698 -17.9376 10.9701 
-74.3317 -8.66304 4.24051 78.0907 -8.66304 4.24051 -73.1644 0.611523 4.24051 
76.0611 0.611523 4.24051 73.7698 7.59394 4.24051 -68.0368 9.88609 4.24051 
-65.3487 14.334 4.24051 -65.3487 9.88609 11.1104 72.9461 9.88609 4.24051 
-62.2787 19.1607 4.24051 68.1327 19.1607 4.24051 64.4952 25.0244 4.24051 
-57.0675 28.4352 4.24051 -56.0741 29.8447 4.24051 -56.0741 28.4352 6.30752 
62.2621 28.4352 4.24051 -49.2915 37.7098 4.24051 -46.7996 39.8368 4.24051 
-46.7996 37.7098 7.66566 -37.525 44.2382 4.24051 -37.525 37.7098 13.4872 
55.9445 37.7098 4.24051 55.2207 38.6125 4.24051 55.2207 37.7098 5.97604 
-28.4226 46.9844 4.24051 -28.2504 47.0301 4.24051 -28.2504 46.9844 4.31544 
-18.9759 48.7846 4.24051 -18.9759 46.9844 6.47038 -9.70131 51.6654 4.24051 
-9.70131 46.9844 9.41806 -0.426742 54.5779 4.24051 -0.426742 46.9844 12.1978 
8.84782 55.9124 4.24051 18.1224 56.1427 4.24051 27.397 55.519 4.24051 
36.6715 52.5046 4.24051 36.6715 46.9844 12.0022 46.7606 46.9844 4.24051 
45.9461 47.6084 4.24051 45.9461 46.9844 5.45019 -56.0741 -28.7856 13.5151 
-46.7996 -31.4698 13.5151 -37.525 -32.2879 13.5151 -28.2504 -33.1806 13.5151 
-18.9759 -33.1292 13.5151 -9.70131 -31.4148 13.5151 -0.426742 -32.0002 13.5151 
8.84782 -34.0955 13.5151 18.1224 -33.5556 13.5151 27.397 -33.577 13.5151 
36.6715 -33.9463 13.5151 45.9461 -33.9879 13.5151 55.2207 -31.9795 13.5151 
64.4952 -28.3319 13.5151 -59.2148 -27.2122 13.5151 -65.3487 -21.9321 13.5151 
-56.0741 -27.2122 14.6194 -46.7996 -27.2122 16.1837 -37.525 -27.2122 16.744 
-28.2504 -27.2122 16.8367 -18.9759 -27.2122 16.5352 -9.70131 -27.2122 15.4545 
-0.426742 -27.2122 15.4045 8.84782 -27.2122 16.7343 18.1224 -27.2122 16.8493 
27.397 -27.2122 17.3343 36.6715 -27.2122 18.5499 45.9461 -27.2122 18.7883 
[...]
POINT_DATA 534
SCALARS ImageScalars float
LOOKUP_TABLE default
0 0 0 0 0 0 0 0 0 
0 0 0 0 0 0 0 0 0 
0 0 0 0 0 0 0 0 0 
0 0 0 0 0 0 0 0 0 
0 0 0 0 0 0 0 0 0 
0 0 0 0 0 0 0 0 0 
0 0 0 0 0 0 0 0 0 
0 0 0 0 0 0 0 0 0 
0 0 0 0 0 0 0 0 0 
0 0 0 0 0 0 0 0 0 
0 0 0 0 0 0 0 0 0 
0 0 0 0 0 0 0 0 0 
0 0 0 0 0 0 0 0 0 
0 0 0 0 0 0 0 0 0 
0 0 0 0 0 0 0 0 0 
0 0 0 0 0 0 0 0 0 
0 0 0 0 0 0 0 0 0 
0 0 0 0 0 0 0 0 0 
0 0 0 0 0 0 0 0 0 
0 0 0 0 0 0 0 0 0 
0 0 0 0 0 0 0 0 0 
0 0 0 0 0 0 0 0 0 
0 0 0 0 0 0 0 0 0 
0 0 0 0 0 0 0 0 0 
0 0 0 0 0 0 0 0 0 
0 0 0 0 0 0 0 0 0 
0 0 0 0 0 0 0 0 0 
0 0 0 0 0 0 0 0 0 
0 0 0 0 0 0 0 0 0 
0 0 0 0 0 0 0 0 0 
0 0 0 0 0 0 0 0 0 
0 0 0 0 0 0 0 0 0 
0 0 0 0 0 0 0 0 0 
0 0 0 0 0 0 0 0 0 
0 0 0 0 0 0 0 0 0 
0 0 0 0 0 0 0 0 0 
0 0 0 0 0 0 0 0 0 
0 0 0 0 0 0 0 0 0 
0 0 0 0 0 0 0 0 0 
0 0 0 0 0 0 0 0 0 
0 0 0 0 0 0 0 0 0 
0 0 0 0 0 0 0 0 0 
0 0 0 0 0 0 0 0 0 
0 0 0 0 0 0 0 0 0 
0 0 0 0 0 0 0 0 0 
0 0 0 0 0 0 0 0 0 
0 0 0 0 0 0 0 0 0 
0 0 0 0 0 0 0 0 0 
0 0 0 0 0 0 0 0 0 
0 0 0 0 0 0 0 0 0 
0 0 0 0 0 0 0 0 0 
0 0 0 0 0 0 0 0 0 
0 0 0 0 0 0 0 0 0 
0 0 0 0 0 0 0 0 0 
0 0 0 0 0 0 0 0 0 
0 0 0 0 0 0 0 0 0 
0 0 0 0 0 0 0 0 0 
0 0 0 0 0 0 0 0 0 
0 0 0 0 0 0 0 0 0 
0 0 0 
NORMALS Normals float
0.201697 0.518065 0.83122 0.118316 0.457173 0.881473 0.0858703 0.380013 0.920986 
-0.0125493 0.436778 0.899482 -0.082134 0.454179 0.887117 -0.104269 0.603044 0.790864 
-0.163713 0.719914 0.674479 0.255985 0.509523 0.821497 0.139309 0.381748 0.913707 
0.082329 0.236625 0.968107 0.0132403 0.14071 0.989962 0.0367162 0.0714124 0.996771 
0.0132125 0.00954229 0.999867 0.0124982 0.0960523 0.995298 -0.00560796 0.180701 0.983522 
-0.0494919 0.277213 0.959533 -0.196923 0.344908 0.917747 -0.278025 0.416367 0.865645 
0.547188 0.389662 0.740776 0.245451 0.331783 0.910864 0.0911241 0.222008 0.970778 
0.0281214 0.176269 0.98394 -0.0470955 0.0285475 0.998482 -0.031673 0.000325921 0.999498 
-0.0408193 -0.0454922 0.99813 0.013149 -0.0995352 0.994947 0.0915425 -0.0736851 0.993071 
0.0841087 -0.0481774 0.995291 -0.0106395 -0.00238588 0.999941 -0.105381 0.0376499 0.993719 
-0.194937 0.164171 0.966979 -0.409376 0.15978 0.898266 0.532179 0.0741151 0.843382 
0.251193 0.075443 0.964992 0.0796471 0.0947987 0.992305 -0.0609865 0.0382408 0.997406 
-0.105676 -0.00325033 0.994395 -0.0659909 -0.0439498 0.996852 -0.0659603 0.147047 0.986928 
-0.0143615 0.050679 0.998612 0.0645865 -0.0228026 0.997652 0.0605272 -0.181525 0.981522 
0.0385127 -0.158937 0.986537 -0.00326276 -0.0717951 0.997414 -0.168475 -0.0428784 0.984773 
-0.34391 0.0360813 0.938309 0.547552 -0.0512888 0.835198 0.228309 0.00626107 0.973569 
0.0387815 0.00710702 0.999222 -0.0754837 0.0114752 0.997081 -0.129958 -0.0209942 0.991297 
0.126788 -0.0620936 0.989984 0.0758312 0.252268 0.964682 -0.165009 -0.029259 0.985858 
-0.163519 0.132173 0.977646 -0.0344119 -0.057878 0.99773 0.102563 -0.111553 0.988452 
0.0103985 -0.110783 0.99379 -0.11906 -0.142147 0.982659 -0.28911 -0.0929157 0.952776 
0.624623 -0.21696 0.750183 0.286335 -0.096415 0.953266 0.085214 0.00281017 0.996359 
-0.0855433 0.043523 0.995383 -0.179551 0.0322231 0.983221 0.115218 0.00886179 0.993301 
0.0307503 -0.114686 0.992926 -0.0587482 0.092035 0.994021 0.0558428 -0.0423162 0.997542 
-0.180361 0.0983541 0.978671 -0.0236102 -0.0214655 0.999491 -0.0365494 -0.0972041 0.994593 
-0.155454 -0.159237 0.974924 -0.284827 -0.231085 0.930308 0.449289 -0.181711 0.874712 
0.16938 -0.0280202 0.985152 -0.0482589 0.0480399 0.997679 -0.161952 0.0760517 0.983864 
-0.034955 0.0449694 0.998377 0.149575 -0.36217 0.920033 -0.0953357 -0.0244539 0.995145 
-0.138071 -0.172364 0.975309 -0.0593608 -0.0231225 0.997969 -0.0823479 0.0178268 0.996444 
-0.127798 -0.062973 0.989799 -0.230491 -0.133269 0.963905 0.628313 -0.304615 0.715844 
0.300054 -0.15244 0.941663 0.0167115 -0.0865999 0.996103 -0.178269 -0.023824 0.983693 
-0.246587 -0.0139855 0.96902 -0.0750192 -0.111017 0.990983 0.0532348 -0.170538 0.983912 
0.0248716 -0.0465125 0.998608 0.023419 -0.0186317 0.999552 -0.0689687 -0.0260571 0.997278 
-0.194 -0.0761816 0.978039 -0.254041 -0.142393 0.956654 0.360241 -0.332313 0.871662 
0.0710571 -0.255919 0.964083 -0.0905352 -0.218847 0.97155 -0.148468 -0.11018 0.98276 
-0.0231596 0.03436 0.999141 0.0516696 0.00254247 0.998661 0.0161734 0.0077495 0.999839 
-0.0372888 -0.0300304 0.998853 -0.135087 -0.0978628 0.985989 -0.234653 -0.115343 0.965212 
0.150647 -0.518559 0.841666 -0.0295192 -0.426422 0.904042 0.025376 -0.307366 0.951253 
0.0386524 -0.142745 0.989005 0.0276605 -0.149867 0.988319 -0.00472068 -0.116665 0.99316 
-0.0826708 -0.186353 0.978999 -0.163555 -0.230881 0.959137 -0.285969 -0.234433 0.929119 
0.126594 -0.442721 0.887678 0.0842876 -0.430137 0.89882 -0.0180926 -0.40829 0.912673 
-0.169378 -0.424152 0.88961 0.244965 0.657581 0.712446 0.0988445 0.676389 0.729882 
0.0749766 0.733342 0.675713 -0.0406397 0.711324 0.701689 -0.120101 0.757829 0.641305 
-0.127659 0.769705 0.625506 -0.17317 0.802506 0.57096 0.313996 0.623533 0.71597 
0.285586 0.628245 0.723704 0.275181 0.613138 0.740498 0.362923 0.863171 0.35103 
-0.217687 0.772548 0.596475 -0.247507 0.733303 0.633251 -0.268692 0.877389 0.397483 
-0.342057 0.629778 0.697407 0.563458 0.435039 0.702322 0.358386 0.590457 0.723132 
0.369729 0.562039 0.739873 0.465337 0.714532 0.522404 -0.463846 0.505764 0.727358 
-0.481869 0.434618 0.760862 -0.51193 0.566797 0.645499 0.602069 0.397296 0.692581 
-0.461519 0.216205 0.860381 -0.63498 0.333168 0.696993 0.598502 0.0795195 0.797165 
0.947213 0.190615 0.257787 -0.490803 0.0468292 0.870011 -0.564222 0.0548446 0.8238 
0.653772 -0.062132 0.754136 -0.412653 -0.0873571 0.90669 -0.484534 -0.0792042 0.871179 
-0.777859 -0.0509619 0.626369 0.635877 -0.221295 0.739384 0.645168 -0.229444 0.728776 
-0.327766 -0.23056 0.916194 -0.304027 -0.213708 0.928384 -0.549144 -0.213628 0.807963 
0.685068 -0.282171 0.671611 0.808958 -0.370562 0.456367 -0.290982 -0.140552 0.946348 
-0.364338 -0.170279 0.915567 -0.568454 -0.307471 0.7631 0.67387 -0.353029 0.649053 
0.699458 -0.366346 0.613636 -0.279385 -0.154257 0.947707 -0.278214 -0.151012 0.948574 
-0.492838 -0.246907 0.834355 0.686994 -0.416305 0.595592 0.826005 -0.468366 0.313608 
0.523041 -0.588632 0.616393 -0.316867 -0.152254 0.93617 -0.401664 -0.196484 0.894461 
-0.641782 -0.340203 0.687297 0.452164 -0.627819 0.633554 0.574079 -0.67691 0.46068 
0.201908 -0.69964 0.685374 0.0306924 -0.594964 0.803166 0.150964 -0.455564 0.877309 
-0.18179 -0.363374 0.913735 -0.289036 -0.236027 0.927766 -0.286877 -0.239793 0.92747 
-0.523767 -0.409023 0.74724 0.240518 -0.913736 0.327473 0.140595 -0.464148 0.874528 
0.245843 -0.672431 0.698139 0.128027 -0.470712 0.872949 0.0753249 -0.481214 0.873361 
-0.00350742 -0.533015 0.846099 -0.176497 -0.437647 0.881654 -0.167414 -0.461694 0.871098 
-0.205578 -0.524656 0.826119 -0.378822 -0.616794 0.68997 0.143918 -0.966871 0.210827 
0.00277395 -0.953668 0.30085 -0.0899725 -0.955597 0.280606 0.342924 0.939232 -0.0156865 
0.284358 0.949189 -0.134836 0.197683 0.972249 -0.125116 0.0616391 0.989037 -0.13419 
-0.0728527 0.98829 -0.134068 -0.16136 0.980694 -0.110464 -0.226002 0.969269 -0.0971601 
-0.211387 0.96941 -0.124737 -0.276221 0.95946 -0.0560254 0.492675 0.865026 0.0948797 
0.383424 0.923515 -0.010276 0.408845 0.912599 0.00314357 0.295196 0.892625 -0.340705 
-0.160718 0.841266 -0.516179 -0.304393 0.950208 -0.0667087 -0.244162 0.924253 -0.293498 
-0.342388 0.938679 -0.0406493 -0.491368 0.86412 0.108875 0.579352 0.808079 0.106581 
0.673566 0.734474 0.0828083 -0.608389 0.757051 0.238196 -0.685622 0.655236 0.317156 
0.845858 0.519813 0.119664 0.954209 0.232993 0.187614 -0.812316 0.430172 0.39382 
0.962348 0.189754 0.194629 0.976371 -0.0326906 0.213613 0.970612 0.228117 -0.0766505 
-0.796475 0.234351 0.557412 -0.81912 0.115583 0.561856 -0.884146 0.282825 0.371881 
0.973276 -0.0737757 0.217464 -0.83115 -0.0451987 0.554208 -0.792014 -0.14908 0.592021 
0.904986 -0.359066 0.228193 -0.720111 -0.280298 0.634722 -0.866306 -0.295786 0.402522 
0.864833 -0.459924 0.201331 0.868608 -0.461298 0.180897 -0.719434 -0.322644 0.615074 
-0.664069 -0.386088 0.640272 0.865553 -0.471124 0.169883 -0.651048 -0.399083 0.645654 
-0.740688 -0.455059 0.49427 0.858674 -0.494115 0.136118 0.834582 -0.537185 0.122087 
-0.710177 -0.366887 0.600869 -0.685888 -0.441158 0.578738 0.706865 -0.696039 0.125981 
0.58836 -0.799544 0.120676 0.340547 -0.936238 0.0865216 -0.640355 -0.523915 0.561656 
-0.608844 -0.620258 0.494559 -0.787328 -0.609484 0.0929709 0.314794 -0.942291 0.113986 
0.276613 -0.947282 0.161688 0.297853 -0.947045 0.119957 0.263958 -0.960897 0.0836784 
-0.252924 -0.909209 0.330708 -0.576868 -0.678167 0.455316 -0.429558 -0.808372 0.40251 
-0.608532 -0.791676 0.0542011 0.161015 -0.971691 0.172887 0.148522 -0.97144 0.185054 
0.15919 -0.981897 0.102649 0.00136009 -0.97462 0.223861 0.0526078 -0.977469 -0.204417 
-0.128772 -0.955057 0.266991 -0.0900099 -0.963711 0.251316 -0.0387546 -0.985492 -0.165235 
0.128726 0.759879 -0.637192 0.0576848 0.680261 -0.730697 0.0502183 0.654459 -0.754428 
-0.00436392 0.674778 -0.738008 -0.0556308 0.718575 -0.69322 -0.128028 0.763621 -0.632844 
0.449817 0.774969 -0.443946 0.27254 0.81538 -0.510762 0.150635 0.765397 -0.625681 
0.214989 0.773709 -0.595949 0.123879 0.743307 -0.657381 0.0478808 0.657207 -0.752188 
0.0450353 0.588195 -0.807464 0.00712513 0.617551 -0.786498 -0.0408363 0.674012 -0.737591 
-0.132205 0.774455 -0.618661 -0.118939 0.72775 -0.675451 -0.135504 0.78181 -0.608615 
-0.156383 0.805151 -0.572081 -0.210624 0.858817 -0.466981 -0.338778 0.865049 -0.370027 
0.484389 0.755492 -0.441133 0.627459 0.670321 -0.396188 0.431959 0.736131 -0.521078 
0.188699 0.712896 -0.675405 0.085283 0.60984 -0.787923 0.0369636 0.527533 -0.84873 
-0.0159166 0.485739 -0.873959 0.000472792 0.420872 -0.90712 0.0514707 0.407225 -0.911877 
0.0118253 0.464226 -0.885638 -0.0402736 0.514779 -0.856377 -0.0283356 0.614591 -0.788337 
-0.0100763 0.690344 -0.723411 -0.10904 0.750926 -0.651322 -0.475691 0.839454 -0.262747 
-0.281748 0.823768 -0.49196 -0.56015 0.804202 -0.198722 0.724503 0.575043 -0.380028 
0.579251 0.583024 -0.569694 -0.765575 0.624958 -0.152719 -0.890439 0.451544 -0.0568053 
0.889306 0.256119 -0.378863 -0.949695 0.312985 0.0109806 -0.827043 0.386975 -0.407739 
0.968503 -0.0290146 -0.247305 -0.999613 0.0122671 0.0249822 0.91586 -0.333872 -0.223005 
-0.958248 -0.259282 0.120559 -0.919842 -0.371295 0.126615 0.865233 -0.475465 -0.159075 
0.860995 -0.481742 -0.163132 0.800556 -0.398928 -0.447176 -0.906649 -0.404328 0.120446 
0.852692 -0.490343 -0.18022 -0.866315 -0.492741 0.0818803 -0.849154 -0.52401 0.0659604 
0.805313 -0.545142 -0.233004 0.789986 -0.563562 -0.241494 0.775625 -0.548539 -0.312268 
-0.835094 -0.54853 0.0416385 0.615039 -0.725758 -0.308224 0.542037 -0.776109 -0.322258 
0.524842 -0.724266 -0.447191 0.325983 -0.868611 -0.373161 0.219801 -0.654526 -0.723383 
-0.794563 -0.606744 -0.0230461 -0.784169 -0.619948 -0.0272644 -0.775235 -0.617762 -0.131835 
0.205722 -0.901576 -0.380577 0.203896 -0.901818 -0.380987 0.203075 -0.900908 -0.38357 
0.226797 -0.84488 -0.484501 0.195006 -0.799061 -0.568748 0.264884 -0.83789 -0.477259 
0.22677 -0.684074 -0.693267 0.194265 -0.884059 -0.42509 0.175442 -0.585189 -0.79169 
0.0701345 -0.928861 -0.363729 -0.0184543 -0.94964 -0.312798 -0.185668 -0.951116 -0.24679 
-0.357256 -0.910571 -0.207918 -0.232723 -0.720889 -0.652808 -0.584582 -0.802416 -0.119967 
-0.566683 -0.814099 -0.126938 -0.56079 -0.80447 -0.195813 0.266115 0.562307 -0.782939 
0.118575 0.586834 -0.800978 0.0515255 0.541354 -0.839215 0.0232344 0.48526 -0.874061 
-0.0393129 0.456427 -0.888892 -0.0307209 0.404775 -0.9139 0.062347 0.353464 -0.933368 
0.0289431 0.434086 -0.900406 -0.0121202 0.469946 -0.882612 0.0136663 0.545833 -0.837782 
0.0131823 0.634959 -0.772433 -0.0780152 0.680279 -0.72879 -0.195852 0.671576 -0.714582 
-0.494863 0.555429 -0.668288 0.3519 0.555429 -0.753436 0.570324 0.383807 -0.726239 
0.248566 0.539047 -0.804763 0.103195 0.494643 -0.862948 0.0337291 0.462447 -0.886005 
-0.0105219 0.422492 -0.906305 -0.0671 0.418534 -0.905719 -0.0554017 0.404311 -0.912942 
0.064525 0.308962 -0.948883 0.0742988 0.36931 -0.926331 0.0307317 0.372719 -0.927435 
0.0817853 0.401965 -0.911995 0.0731042 0.438837 -0.895588 -0.0588693 0.488069 -0.870818 
-0.209386 0.530836 -0.821201 -0.526117 0.544834 -0.65296 -0.481563 0.53443 -0.694609 
0.635476 0.245914 -0.731913 0.554883 0.248926 -0.793814 0.292086 0.308169 -0.905383 
0.104786 0.305789 -0.946316 -0.0415652 0.265873 -0.963111 -0.0262282 0.220224 -0.975097 
-0.0471749 0.197416 -0.979184 -0.118149 0.295889 -0.947888 0.0285825 0.163319 -0.986159 
0.0892005 0.236791 -0.967457 0.0141067 0.0805288 -0.996652 0.10889 0.137182 -0.984543 
0.0935217 0.167648 -0.981401 -0.0192481 0.197127 -0.980189 -0.10354 0.312807 -0.944156 
-0.708385 0.388286 -0.589427 -0.38283 0.305703 -0.871772 -0.767747 0.291804 -0.570452 
0.703799 0.00962721 -0.710334 0.604739 0.0252806 -0.796022 0.274754 0.140394 -0.95121 
0.0711083 0.100037 -0.99244 -0.0643415 0.117631 -0.990971 -0.0894389 0.0571906 -0.994349 
0.0150742 -0.0425949 -0.998979 -0.110347 0.245283 -0.963151 -0.00394393 0.103983 -0.994571 
-0.00164383 0.0882924 -0.996093 -0.0673414 -0.0961803 -0.993083 0.187404 -0.0120754 -0.982209 
0.163488 0.018611 -0.98637 -0.369643 0.0225432 -0.9289 -0.835121 0.0729332 -0.545209 
-0.75118 0.0805122 -0.655169 0.720668 -0.19699 -0.664704 0.744354 -0.301927 -0.595633 
0.665578 -0.174704 -0.725592 0.341683 -0.0695386 -0.937239 -0.0886318 0.00760652 -0.996035 
-0.184699 0.00333921 -0.982789 0.109644 -0.0287098 -0.993556 -0.132978 0.138794 -0.981353 
-0.146702 0.0239377 -0.988891 -0.0565909 0.0984599 -0.993531 0.232926 0.0224181 -0.972236 
0.169097 -0.0155247 -0.985477 -0.415501 -0.064993 -0.907268 -0.843558 -0.20731 -0.495411 
-0.828602 -0.250501 -0.500667 -0.816852 -0.207188 -0.538355 0.742482 -0.362473 -0.563324 
0.444764 -0.263379 -0.856047 0.140099 -0.111488 -0.983841 -0.0501689 -0.0500187 -0.997487 
-0.134984 0.00375569 -0.990841 0.0753479 0.070196 -0.994684 -0.0590089 0.0161959 -0.998126 
-0.0142796 -0.0588136 -0.998167 -0.0749831 0.192099 -0.978507 0.064659 0.0766203 -0.994962 
0.0911696 -0.0194246 -0.995646 -0.00747394 -0.0525477 -0.99859 -0.132401 -0.2332 -0.963373 
-0.746636 -0.410063 -0.523816 -0.483013 -0.284058 -0.828257 0.666589 -0.460642 -0.586061 
0.648511 -0.473497 -0.596016 0.619568 -0.435543 -0.653023 0.283166 -0.285744 -0.915515 
0.0323295 -0.15451 -0.987462 -0.0700391 -0.0846169 -0.993949 -0.0381219 -0.061984 -0.997349 
-0.0103512 -0.203836 -0.97895 -0.00830123 -0.0799338 -0.996766 0.043197 -0.110925 -0.99289 
0.0416582 -0.0201578 -0.998929 0.0245323 0.0172854 -0.99955 0.0418312 -0.082323 -0.995727 
-0.136364 -0.167255 -0.976438 -0.347833 -0.263291 -0.899828 -0.69809 -0.455649 -0.552318 
-0.695461 -0.457349 -0.554226 -0.688985 -0.455014 -0.564147 0.53651 -0.519818 -0.66479 
0.438613 -0.573385 -0.691989 0.401837 -0.486135 -0.776015 0.219322 -0.653308 -0.724628 
0.155709 -0.396321 -0.904812 -0.0271193 -0.333934 -0.942206 -0.0311959 -0.292183 -0.955854 
0.0311764 -0.253512 -0.96683 0.0421457 -0.16703 -0.985051 0.046425 -0.136652 -0.989531 
0.0542791 -0.151019 -0.98704 0.00212364 -0.13631 -0.990664 -0.103489 -0.187087 -0.976877 
-0.224651 -0.298807 -0.927495 -0.579287 -0.50412 -0.640538 -0.545528 -0.519312 -0.65781 
-0.489028 -0.458385 -0.742115 0.216862 -0.653031 -0.725618 0.0671129 -0.61562 -0.785181 
0.0506378 -0.572582 -0.818282 0.0622951 -0.54754 -0.834458 0.0459992 -0.506361 -0.861094 
0.157905 -0.501232 -0.850784 0.123932 -0.423231 -0.897506 0.161503 -0.513511 -0.842747 
0.118593 -0.342906 -0.931854 0.059059 -0.299192 -0.952363 0.0310581 -0.30452 -0.952 
-0.0142112 -0.298163 -0.954409 -0.19617 -0.636728 -0.745718 -0.123168 -0.358957 -0.925192 
-0.482119 -0.505558 -0.715522 -0.42254 -0.528073 -0.736613 -0.390816 -0.453871 -0.800789 
0.0922133 -0.542361 -0.835069 0.0811316 -0.545725 -0.834027 0.0807872 -0.538948 -0.838456 
0.00641835 -0.557141 -0.830393 0.0106448 -0.532476 -0.846378 -0.113445 -0.604992 -0.788109 
-0.0936084 -0.594626 -0.798535 -0.0877687 -0.581846 -0.808549 0.0580983 0.0970869 -0.993579 
-0.120645 0.169129 -0.978182 0.0783125 0.0152729 -0.996812 -0.0405731 0.197763 -0.97941 
0.102653 0.055916 -0.993144 0.081153 0.0699752 -0.994242 -0.191364 0.0792703 -0.978313 
-0.136726 0.102861 -0.985254 0.0997351 -0.0162625 -0.994881 -0.0586366 0.00416894 -0.998271 
0.0912663 -0.0292185 -0.995398 0.0800884 -0.0116891 -0.996719 0.0982173 0.0596628 -0.993375 
-0.0244423 0.122443 -0.992175 0.0596115 0.104513 -0.992735 0.0880243 -0.0433855 -0.995173 
0.0453049 -0.0506415 -0.997689 0.0649633 -0.0514179 -0.996562 -0.176843 -0.0941719 -0.979724 
-0.14045 -0.131805 -0.981275 -0.147861 -0.103812 -0.983545 0.0634348 -0.180337 -0.981557 
0.0326365 -0.180195 -0.983089 0.0446428 -0.218132 -0.974898 0.059634 -0.216639 -0.974429 

