# vtk DataFile Version 4.2
vtk output
ASCII
DATASET POLYDATA
POINTS 556 float
-45.8255 -5.7092 -18.9689 29.9113 9.43817 -18.9734 29.9113 17.0119 -19.4022 
-23.1045 -36.0039 -13.1989 -15.5308 -36.0039 -14.4382 -7.95709 -36.0039 -14.3214 
-0.383405 -36.0039 -14.3501 7.19028 -36.0039 -14.2032 14.764 -36.0039 -13.7578 
-38.2518 -28.4303 -13.8651 -30.6781 -28.4303 -16.4367 -23.1045 -28.4303 -17.5075 
-15.5308 -28.4303 -18.0523 -7.95709 -28.4303 -16.9432 -0.383405 -28.4303 -16.3637 
7.19028 -28.4303 -17.2164 14.764 -28.4303 -17.6435 22.3377 -28.4303 -16.9392 
29.9113 -28.4303 -14.5329 -53.3992 -20.8566 -12.548 -45.8255 -20.8566 -15.5998 
-38.2518 -20.8566 -17.9168 -30.6781 -20.8566 -18.0895 -23.1045 -20.8566 -18.6096 
-15.5308 -20.8566 -18.6638 -7.95709 -20.8566 -17.6048 -0.383405 -20.8566 -16.4778 
7.19028 -20.8566 -17.7394 14.764 -20.8566 -18.7589 22.3377 -20.8566 -18.7306 
29.9113 -20.8566 -17.2606 37.485 -20.8566 -15.1127 -60.9729 -13.2829 -12.4387 
-53.3992 -13.2829 -16.8797 -45.8255 -6.25559 -18.8975 -45.8255 -13.2829 -17.9247 
-38.2518 -13.2829 -18.3825 -30.6781 -13.2829 -18.57 -23.1045 -13.2829 -18.5452 
-15.5308 -13.2829 -18.6228 -7.95709 -13.2829 -17.3162 -0.383405 -13.2829 -15.2883 
7.19028 -13.2829 -17.3142 14.764 -13.2829 -18.4248 22.3377 -13.2829 -18.5992 
29.9113 -13.2829 -18.4105 37.485 -13.2829 -17.068 45.0587 -13.2829 -13.8794 
-60.9729 -5.7092 -13.2599 -46.0545 -5.7092 -18.8975 -53.3992 -5.7092 -16.9858 
-43.1272 -5.7092 -18.8975 -45.8255 -5.10806 -18.8975 -38.2518 -5.7092 -18.7742 
-30.6781 -5.7092 -18.3676 -23.1045 -5.7092 -17.8746 -15.5308 -5.7092 -18.356 
-7.95709 -5.7092 -16.9889 -0.383405 -5.7092 -14.9764 7.19028 -5.7092 -16.8016 
14.764 -5.7092 -16.9493 22.3377 -5.7092 -18.1557 29.9113 -5.7092 -18.3475 
37.485 -5.7092 -17.3451 45.0587 -5.7092 -15.589 52.6324 -5.7092 -12.1989 
-60.9729 1.86449 -13.1492 -53.3992 1.86449 -18.4573 -45.8255 1.86449 -18.076 
-38.2518 1.86449 -17.9916 -30.6781 1.86449 -17.3156 -23.1045 1.86449 -16.5192 
-15.5308 1.86449 -16.8249 -7.95709 1.86449 -15.9867 -0.383405 1.86449 -15.0506 
7.19028 1.86449 -11.6822 14.764 1.86449 -15.3937 22.3377 1.86449 -18.0314 
29.9113 7.58715 -18.8975 29.9113 1.86449 -18.6558 37.485 1.86449 -17.7897 
45.0587 1.86449 -15.6207 52.6324 1.86449 -12.155 -60.9729 9.43817 -13.4685 
-53.3992 9.43817 -16.9578 -45.8255 9.43817 -16.449 -38.2518 9.43817 -17.1093 
-30.6781 9.43817 -16.1568 -23.1045 9.43817 -15.2121 -15.5308 9.43817 -14.8071 
-7.95709 9.43817 -15.3548 -0.383405 9.43817 -14.6767 14.764 9.43817 -15.2014 
29.3894 9.43817 -18.8975 22.3377 9.43817 -17.8148 30.4445 9.43817 -18.8975 
37.485 9.43817 -17.8463 45.0587 9.43817 -15.4073 52.6324 9.43817 -11.5689 
-53.3992 17.0119 -11.4039 -45.8255 17.0119 -14.9798 -38.2518 17.0119 -14.2541 
-30.6781 17.0119 -14.867 -23.1045 17.0119 -14.5395 -15.5308 17.0119 -15.4243 
-7.95709 17.0119 -15.9411 -0.383405 17.0119 -13.878 7.19028 17.0119 -12.2487 
14.764 17.0119 -15.3622 27.7179 17.0119 -18.8975 22.3377 17.0119 -17.7105 
31.6734 17.0119 -18.8975 29.9113 18.36 -18.8975 37.485 17.0119 -17.2626 
45.0587 17.0119 -14.6562 -45.8255 24.5855 -11.3262 -38.2518 24.5855 -11.38 
-30.6781 24.5855 -12.3459 -23.1045 24.5855 -13.1248 -15.5308 24.5855 -13.9745 
-7.95709 24.5855 -14.8496 -0.383405 24.5855 -12.2125 14.764 24.5855 -12.9375 
22.3377 24.5855 -15.9229 29.9113 24.5855 -16.6055 37.485 24.5855 -15.7361 
45.0587 24.5855 -11.3629 -23.1045 -37.633 -11.3239 -15.5308 -38.8689 -11.3239 
-7.95709 -39.7479 -11.3239 -0.383405 -40.1241 -11.3239 -0.383405 -43.5776 -4.32285 
7.19028 -39.4429 -11.3239 14.764 -38.0389 -11.3239 -38.2518 -31.4967 -11.3239 
-27.6567 -36.0039 -11.3239 -30.6781 -34.5837 -11.3239 -30.6781 -36.0039 -5.16031 
20.2566 -36.0039 -11.3239 22.3377 -35.1288 -11.3239 22.3377 -36.0039 -6.18129 
29.9113 -31.5773 -11.3239 -53.3992 -22.1341 -11.3239 -43.7102 -28.4303 -11.3239 
-45.8255 -27.09 -11.3239 -45.8255 -28.4303 -7.06972 34.9208 -28.4303 -11.3239 
37.485 -26.5861 -11.3239 37.485 -28.4303 -8.51673 -54.8903 -20.8566 -11.3239 
-60.9729 -14.8058 -11.3239 44.0436 -20.8566 -11.3239 45.0587 -19.3774 -11.3239 
45.0587 -20.8566 -10.3681 52.6324 -20.8566 -4.13954 -62.1373 -13.2829 -11.3239 
50.975 -13.2829 -11.3239 52.6324 -9.70715 -11.3239 52.6324 -13.2829 -10.2935 
-63.4479 -5.7092 -11.3239 53.9702 -5.7092 -11.3239 60.2061 -5.7092 -7.21352 
-63.8182 1.86449 -11.3239 -68.5466 1.86449 -5.51243 7.19028 6.57544 -11.3239 
54.0671 1.86449 -11.3239 60.2061 1.86449 -7.84624 -63.8109 9.43817 -11.3239 
-60.9729 13.2247 -11.3239 6.79774 9.43817 -11.3239 7.48394 9.43817 -11.3239 
7.19028 10.518 -11.3239 7.19028 9.43817 -11.1681 53.0266 9.43817 -11.3239 
52.6324 13.7615 -11.3239 60.2061 9.43817 -6.64173 -53.6082 17.0119 -11.3239 
-60.9729 17.0119 -7.72135 -53.3992 17.167 -11.3239 7.19028 20.4986 -11.3239 
52.2474 17.0119 -11.3239 52.6324 17.0119 -11.0748 -45.8314 24.5855 -11.3239 
-53.3992 24.5855 -6.77177 -45.8255 24.5889 -11.3239 -38.2518 24.6741 -11.3239 
-30.6781 26.4521 -11.3239 -23.1045 28.0885 -11.3239 -15.5308 30.6145 -11.3239 
-7.95709 30.8584 -11.3239 3.11488 24.5855 -11.3239 -0.383405 26.0487 -11.3239 
10.3365 24.5855 -11.3239 7.19028 24.5855 -8.90163 14.764 26.5455 -11.3239 
22.3377 29.783 -11.3239 29.9113 31.5939 -11.3239 37.485 30.7091 -11.3239 
45.1175 24.5855 -11.3239 45.0587 24.6466 -11.3239 52.6324 24.5855 -5.30883 
-38.2518 32.1592 -5.59927 -30.6781 32.1592 -7.20691 -23.1045 32.1592 -8.40193 
-15.5308 32.1592 -10.2903 -7.95709 32.1592 -10.0382 29.9113 32.1592 -9.78281 
37.485 32.1592 -8.60058 -0.383405 -43.7709 -3.75017 -30.6781 -36.2382 -3.75017 
-23.1045 -38.6513 -3.75017 -15.5308 -41.093 -3.75017 -1.96372 -43.5776 -3.75017 
-7.95709 -42.8243 -3.75017 0.965965 -43.5776 -3.75017 -0.383405 -43.5776 -3.04256 
7.19028 -42.6737 -3.75017 14.764 -39.6735 -3.75017 22.3377 -36.341 -3.75017 
-45.8255 -29.1442 -3.75017 -31.2692 -36.0039 -3.75017 -38.2518 -33.1059 -3.75017 
-30.6781 -36.0039 -3.19092 -23.1045 -36.0039 2.85738 23.2651 -36.0039 -3.75017 
22.3377 -36.0039 -2.61404 29.9113 -33.5674 -3.75017 37.485 -30.5271 -3.75017 
-46.9258 -28.4303 -3.75017 -53.3992 -24.2283 -3.75017 -45.8255 -28.4303 -2.29186 
41.6639 -28.4303 -3.75017 45.0587 -26.2117 -3.75017 52.6324 -21.1162 -3.75017 
-57.4117 -20.8566 -3.75017 -60.9729 -16.8977 -3.75017 -53.3992 -20.8566 2.13397 
52.9734 -20.8566 -3.75017 -64.092 -13.2829 -3.75017 -60.9729 -13.2829 1.27949 
59.2533 -13.2829 -3.75017 60.2061 -11.9782 -3.75017 60.2061 -13.2829 -1.67043 
-67.6502 -5.7092 -3.75017 -68.5466 -1.69205 -3.75017 63.3568 -5.7092 -3.75017 
-69.3091 1.86449 -3.75017 -68.5466 6.70459 -3.75017 -68.5466 1.86449 -1.4478 
64.1759 1.86449 -3.75017 -68.1159 9.43817 -3.75017 63.0711 9.43817 -3.75017 
60.2061 16.5249 -3.75017 -64.2463 17.0119 -3.75017 -60.9729 21.4405 -3.75017 
59.9504 17.0119 -3.75017 60.2061 17.0119 -3.42013 -57.4508 24.5855 -3.75017 
-53.3992 27.1977 -3.75017 -45.8255 31.9769 -3.75017 -0.383405 31.83 -3.75017 
7.19028 26.798 -3.75017 14.764 29.008 -3.75017 22.3377 32.1362 -3.75017 
45.0587 31.2988 -3.75017 54.1177 24.5855 -3.75017 52.6324 26.1931 -3.75017 
-45.2545 32.1592 -3.75017 -45.8255 32.1592 -2.97596 -38.2518 33.6397 -3.75017 
-30.6781 35.0188 -3.75017 -23.1045 36.0291 -3.75017 -15.5308 36.6361 -3.75017 
-0.848169 32.1592 -3.75017 -7.95709 35.8283 -3.75017 -0.383405 32.1592 -1.6625 
22.4361 32.1592 -3.75017 29.9113 33.7513 -3.75017 42.6029 32.1592 -3.75017 
37.485 33.7669 -3.75017 -15.5308 -37.1446 3.82351 -7.95709 -39.4251 3.82351 
-0.383405 -41.185 3.82351 7.19028 -40.1499 3.82351 14.764 -37.0716 3.82351 
-38.2518 -29.2863 3.82351 -30.6781 -32.1992 3.82351 -20.7697 -36.0039 3.82351 
-23.1045 -35.4441 3.82351 -15.5308 -36.0039 4.93914 -7.95709 -36.0039 7.16055 
-0.383405 -36.0039 8.86026 7.19028 -36.0039 8.25507 17.3292 -36.0039 3.82351 
14.764 -36.0039 5.19541 22.3377 -33.8844 3.82351 29.9113 -31.7954 3.82351 
37.485 -29.9326 3.82351 -39.785 -28.4303 3.82351 -45.8255 -24.9027 3.82351 
-38.2518 -28.4303 4.70801 -30.6781 -28.4303 7.26505 -23.1045 -28.4303 9.27577 
-15.5308 -28.4303 10.2041 22.3377 -28.4303 10.9486 29.9113 -28.4303 9.05886 
40.9356 -28.4303 3.82351 37.485 -28.4303 6.68085 45.0587 -26.5019 3.82351 
52.6324 -22.2265 3.82351 -51.7341 -20.8566 3.82351 -53.3992 -19.5136 3.82351 
-45.8255 -20.8566 7.20516 -38.2518 -20.8566 9.29119 54.4011 -20.8566 3.82351 
52.6324 -20.8566 6.85924 60.2061 -15.6444 3.82351 -59.1908 -13.2829 3.82351 
-60.9729 -10.7299 3.82351 -53.3992 -13.2829 7.8303 -45.8255 -13.2829 10.0134 
62.1184 -13.2829 3.82351 60.2061 -13.2829 9.30244 -63.7684 -5.7092 3.82351 
-60.9729 -5.7092 6.36558 66.606 -5.7092 3.82351 -65.8512 1.86449 3.82351 
-60.9729 1.86449 8.3156 67.6501 1.86449 3.82351 -66.1075 9.43817 3.82351 
-60.9729 9.43817 9.10672 66.9557 9.43817 3.82351 -63.77 17.0119 3.82351 
-60.9729 21.7144 3.82351 -60.9729 17.0119 7.32324 64.029 17.0119 3.82351 
60.2061 22.0594 3.82351 -58.7567 24.5855 3.82351 -53.3992 28.9305 3.82351 
-53.3992 24.5855 11.0154 7.19028 25.6376 3.82351 7.19028 24.5855 6.94647 
14.764 27.9704 3.82351 14.764 24.5855 10.3166 22.3377 30.2742 3.82351 
45.0587 32.0306 3.82351 57.6342 24.5855 3.82351 52.6324 28.7404 3.82351 
-47.8326 32.1592 3.82351 -45.8255 33.1496 3.82351 -45.8255 32.1592 6.88124 
-38.2518 36.0313 3.82351 -30.6781 37.1782 3.82351 -23.1045 38.0239 3.82351 
-15.5308 38.4565 3.82351 -7.95709 37.0764 3.82351 0.422526 32.1592 3.82351 
-0.383405 32.8716 3.82351 -0.383405 32.1592 6.53386 27.2527 32.1592 3.82351 
29.9113 33.0334 3.82351 29.9113 32.1592 5.75738 44.3464 32.1592 3.82351 
37.485 33.3227 3.82351 37.485 32.1592 7.00394 -7.95709 -28.5218 11.3972 
-0.383405 -31.1288 11.3972 7.19028 -30.7929 11.3972 14.764 -28.5502 11.3972 
-30.6781 -20.9585 11.3972 -23.1045 -24.4504 11.3972 -8.24259 -28.4303 11.3972 
-15.5308 -25.7979 11.3972 -7.95709 -28.4303 11.4395 -0.383405 -28.4303 12.5133 
7.19028 -28.4303 12.4294 16.1805 -28.4303 11.3972 14.764 -28.4303 11.4704 
22.3377 -27.9225 11.3972 29.9113 -26.5376 11.3972 37.485 -24.9592 11.3972 
[...]
POINT_DATA 556
SCALARS ImageScalars float
LOOKUP_TABLE default
0 0 0 0 0 0 0 0 0 
0 0 0 0 0 0 0 0 0 
0 0 0 0 0 0 0 0 0 
0 0 0 0 0 0 0 0 0 
0 0 0 0 0 0 0 0 0 
0 0 0 0 0 0 0 0 0 
0 0 0 0 0 0 0 0 0 
0 0 0 0 0 0 0 0 0 
0 0 0 0 0 0 0 0 0 
0 0 0 0 0 0 0 0 0 
0 0 0 0 0 0 0 0 0 
0 0 0 0 0 0 0 0 0 
0 0 0 0 0 0 0 0 0 
0 0 0 0 0 0 0 0 0 
0 0 0 0 0 0 0 0 0 
0 0 0 0 0 0 0 0 0 
0 0 0 0 0 0 0 0 0 
0 0 0 0 0 0 0 0 0 
0 0 0 0 0 0 0 0 0 
0 0 0 0 0 0 0 0 0 
0 0 0 0 0 0 0 0 0 
0 0 0 0 0 0 0 0 0 
0 0 0 0 0 0 0 0 0 
0 0 0 0 0 0 0 0 0 
0 0 0 0 0 0 0 0 0 
0 0 0 0 0 0 0 0 0 
0 0 0 0 0 0 0 0 0 
0 0 0 0 0 0 0 0 0 
0 0 0 0 0 0 0 0 0 
0 0 0 0 0 0 0 0 0 
0 0 0 0 0 0 0 0 0 
0 0 0 0 0 0 0 0 0 
0 0 0 0 0 0 0 0 0 
0 0 0 0 0 0 0 0 0 
0 0 0 0 0 0 0 0 0 
0 0 0 0 0 0 0 0 0 
0 0 0 0 0 0 0 0 0 
0 0 0 0 0 0 0 0 0 
0 0 0 0 0 0 0 0 0 
0 0 0 0 0 0 0 0 0 
0 0 0 0 0 0 0 0 0 
0 0 0 0 0 0 0 0 0 
0 0 0 0 0 0 0 0 0 
0 0 0 0 0 0 0 0 0 
0 0 0 0 0 0 0 0 0 
0 0 0 0 0 0 0 0 0 
0 0 0 0 0 0 0 0 0 
0 0 0 0 0 0 0 0 0 
0 0 0 0 0 0 0 0 0 
0 0 0 0 0 0 0 0 0 
0 0 0 0 0 0 0 0 0 
0 0 0 0 0 0 0 0 0 
0 0 0 0 0 0 0 0 0 
0 0 0 0 0 0 0 0 0 
0 0 0 0 0 0 0 0 0 
0 0 0 0 0 0 0 0 0 
0 0 0 0 0 0 0 0 0 
0 0 0 0 0 0 0 0 0 
0 0 0 0 0 0 0 0 0 
0 0 0 0 0 0 0 0 0 
0 0 0 0 0 0 0 0 0 
0 0 0 0 0 0 0 
NORMALS Normals float
0.140894 0.00558538 0.990009 0.00152043 0.0467749 0.998904 -0.027241 -0.152805 0.987881 
0.228269 0.760265 0.608186 0.0619167 0.661 0.747827 -0.00413759 0.537269 0.843401 
-0.00711955 0.455735 0.890087 -0.0319511 0.560773 0.827353 -0.189459 0.725661 0.661454 
0.336426 0.600206 0.725652 0.224103 0.423631 0.877676 0.0932931 0.300831 0.949103 
-0.0421197 0.217005 0.975261 -0.101209 0.189774 0.976597 0.015834 0.130799 0.991282 
0.0818457 0.207178 0.974874 -0.0142533 0.268323 0.963224 -0.173592 0.422186 0.889733 
-0.408553 0.566082 0.715986 0.522753 0.609867 0.595644 0.302165 0.409085 0.861015 
0.166561 0.286193 0.943584 0.0449556 0.122665 0.991429 0.0370279 0.0675841 0.997026 
-0.0621733 0.0340561 0.997484 -0.147533 0.0287799 0.988638 0.0126485 -0.0702921 0.997446 
0.150487 0.0077794 0.988581 0.0649863 0.0476659 0.996747 -0.0986893 0.0988276 0.990199 
-0.236491 0.205788 0.949591 -0.357146 0.370977 0.857218 0.665027 0.38507 0.639891 
0.321804 0.229619 0.918541 0.136249 0.0201284 0.99047 0.0874204 0.218806 0.971845 
0.0398797 0.0518619 0.997858 0.0106073 0.0174319 0.999792 0.00351468 -0.0488497 0.9988 
-0.0750621 -0.0201788 0.996975 -0.225198 -0.0379023 0.973575 0.00201708 -0.0973613 0.995247 
0.207439 -0.0609743 0.976346 0.0816434 -0.117171 0.98975 -0.000695767 -0.0376332 0.999291 
-0.0902788 0.0701012 0.993446 -0.277446 0.143388 0.949981 -0.370846 0.264576 0.890209 
0.594101 0.0443022 0.803169 0.144959 0.00796631 0.989406 0.285073 0.0783707 0.955297 
0.0756538 -0.005527 0.997119 0.127148 -0.00644918 0.991863 -0.038993 -0.0254013 0.998917 
-0.0589686 -0.0814346 0.994933 -0.000739512 -0.131578 0.991306 -0.0475497 -0.107249 0.993094 
-0.225085 -0.0840609 0.970706 -0.00270799 -0.0184497 0.999826 0.119587 -0.247231 0.961549 
0.0898643 -0.187548 0.978136 0.0896436 -0.0374087 0.995271 -0.0520273 0.0163717 0.998511 
-0.183286 0.0451943 0.98202 -0.303545 0.106768 0.946816 -0.500158 0.0947745 0.860732 
0.527896 0.0180012 0.849118 0.248848 0.0297157 0.968086 -0.0265658 -0.153119 0.987851 
-0.0496218 -0.107119 0.993007 -0.0962773 -0.144815 0.984764 -0.0342102 -0.173858 0.984176 
-0.0292444 -0.243624 0.969429 -0.106772 -0.110493 0.988125 -0.235062 -0.0169222 0.971833 
0.0562945 -0.432031 0.9001 0.337258 -0.115018 0.93436 0.193115 -0.0219367 0.980931 
-0.00245582 0.0452465 0.998973 -0.015203 0.0413953 0.999027 -0.191977 0.0323371 0.980867 
-0.33988 -0.0113989 0.9404 -0.459766 -0.0355455 0.887328 0.499867 -0.201579 0.842317 
0.205818 -0.357013 0.911142 0.0147372 -0.193488 0.980992 -0.0237304 -0.218645 0.975516 
-0.119674 -0.154869 0.98066 -0.0886373 -0.129105 0.987662 0.01044 -0.078496 0.99686 
0.00338375 0.00237325 0.999991 -0.301426 -0.0817753 0.949976 0.420343 -0.0022205 0.907363 
0.0159755 0.0420361 0.998988 0.223647 -0.0209339 0.974445 -0.0142441 0.0411354 0.999052 
-0.227301 -0.0328991 0.973269 -0.374943 -0.0570842 0.925288 -0.512334 -0.0588198 0.856769 
0.333877 -0.485607 0.807906 0.153304 -0.336479 0.929129 -0.00173776 -0.343077 0.939306 
0.0141736 -0.252663 0.96745 0.037732 -0.136399 0.989935 0.0929581 -0.0517941 0.994322 
-0.0944425 -0.0309434 0.995049 -0.241989 -0.146479 0.959159 0.0804434 -0.0596237 0.994974 
0.343975 -0.127527 0.930278 0.0499543 -0.141898 0.98862 0.23512 -0.110249 0.965693 
-0.0888829 -0.146944 0.985143 -0.0238016 -0.203283 0.978831 -0.283337 -0.124327 0.950927 
-0.376896 -0.223215 0.898958 0.210972 -0.556325 0.803737 0.0713237 -0.455521 0.887363 
0.103122 -0.411332 0.905634 0.104436 -0.324007 0.940272 0.111762 -0.279325 0.95367 
-0.105872 -0.314348 0.943386 -0.324154 -0.417009 0.849133 0.395356 -0.531608 0.749058 
0.228053 -0.433011 0.872063 -0.00971995 -0.445414 0.895272 -0.301404 -0.388895 0.870584 
-0.491173 -0.426585 0.759457 0.236761 0.858204 0.455445 0.128674 0.827415 0.546651 
0.07 0.745977 0.662283 -0.0165829 0.696747 0.717125 -0.0112267 0.997394 0.0712712 
-0.120311 0.741983 0.659536 -0.249625 0.834236 0.491668 0.389721 0.752755 0.530545 
0.293127 0.828674 0.47684 0.330838 0.792122 0.512922 0.342085 0.939471 -0.0192808 
-0.326287 0.838587 0.436244 -0.35055 0.829185 0.435393 -0.377125 0.923245 0.0734514 
-0.439327 0.746205 0.500169 0.539945 0.653043 0.531032 0.452905 0.729949 0.51191 
0.462428 0.71982 0.517706 0.521981 0.843927 0.123788 -0.448099 0.678925 0.581608 
-0.444008 0.624376 0.64266 -0.443672 0.779851 0.441574 0.578059 0.620449 0.529991 
0.703233 0.441542 0.557229 -0.505964 0.464037 0.727098 -0.487971 0.438628 0.754646 
-0.526832 0.510976 0.679228 -0.599598 0.711614 0.366181 0.735555 0.402691 0.544793 
-0.497679 0.295444 0.815493 -0.527341 0.197176 0.826458 -0.560205 0.319457 0.764276 
0.75885 0.0927321 0.64463 -0.515381 0.10562 0.850427 -0.658473 0.23474 0.715059 
0.644907 0.0148098 0.764117 0.985937 0.00726353 0.166959 0.0649009 -0.131171 0.989233 
-0.472833 -0.0332075 0.880526 -0.609442 -0.0311501 0.792219 0.640996 -0.229507 0.732428 
0.480971 -0.438316 0.759306 0.0458799 0.0400345 0.998144 0.0813519 0.0416229 0.995816 
0.0665349 0.0286849 0.997372 0.0659149 0.0452053 0.996801 -0.517095 -0.065219 0.85344 
-0.559169 -0.182798 0.80865 -0.642397 -0.232049 0.730397 0.336725 -0.48931 0.804483 
0.561909 -0.651716 0.509436 0.336683 -0.486616 0.806132 0.0626205 -0.318616 0.945813 
-0.576125 -0.274087 0.770037 -0.58759 -0.278091 0.759871 0.211139 -0.556376 0.803658 
0.43056 -0.681749 0.59147 0.211022 -0.556444 0.803642 0.072205 -0.458146 0.88594 
0.116688 -0.469385 0.87525 0.131194 -0.466176 0.87491 0.100489 -0.556141 0.824991 
-0.177644 -0.634201 0.752484 -0.165405 -0.532543 0.830084 -0.357347 -0.494243 0.792482 
0.192816 -0.618189 0.762013 -0.00301255 -0.793535 0.608517 0.403838 -0.666596 0.62655 
0.259065 -0.822607 0.506165 0.0610476 -0.843823 0.533138 -0.26827 -0.735076 0.622652 
-0.491364 -0.427144 0.759018 -0.490869 -0.429342 0.758098 -0.643476 -0.538669 0.543852 
0.182016 -0.778167 0.601104 0.134897 -0.725935 0.674404 0.144481 -0.693755 0.70557 
0.0862861 -0.663418 0.743257 -0.207719 -0.723828 0.657971 0.0765184 -0.903167 0.422415 
-0.217073 -0.881616 0.419086 -0.0112852 0.999459 0.030896 0.334145 0.935465 -0.11512 
0.304499 0.945181 -0.117952 0.269778 0.96016 -0.0728828 0.0267855 0.999449 0.0196193 
0.177247 0.983777 -0.0276737 -0.0537556 0.998116 0.0295927 -0.00692856 0.999893 -0.012921 
-0.254613 0.966799 0.0217283 -0.396063 0.916699 -0.0528969 -0.37245 0.925063 -0.0744332 
0.512439 0.851267 -0.112917 0.341145 0.932413 -0.119277 0.437428 0.889995 -0.128705 
0.337831 0.929338 -0.149001 0.253849 0.817418 -0.517096 -0.375297 0.924461 -0.0672604 
-0.365529 0.922598 -0.123296 -0.377945 0.925822 -0.00343003 -0.409049 0.902646 0.133822 
0.518555 0.845988 -0.124116 0.585806 0.80024 -0.128243 0.518688 0.828325 -0.211753 
-0.471384 0.864763 0.173151 -0.529119 0.814303 0.238629 -0.600145 0.722483 0.343284 
0.685173 0.71524 -0.137735 0.758558 0.633843 -0.151107 0.558842 0.661502 -0.500111 
-0.606326 0.715842 0.346323 0.817655 0.561385 -0.127621 0.697761 0.553195 -0.455087 
-0.724665 0.47923 0.495175 -0.735268 0.444418 0.511737 -0.765764 0.530862 0.363031 
0.953735 0.29407 -0.0625509 0.988615 0.150093 -0.0105894 -0.818521 0.251682 0.51641 
0.998659 0.0268358 0.0442621 0.982708 -0.165084 0.0838589 0.996126 0.0597781 -0.0644908 
-0.836346 -0.0100854 0.548109 0.956156 -0.273469 0.104783 -0.763587 -0.24102 0.599036 
-0.697284 -0.399919 0.594861 0.773655 -0.590432 0.229886 0.673919 -0.661565 0.328885 
-0.695718 -0.408544 0.59082 -0.705136 -0.416092 0.574152 0.560135 -0.727391 0.396422 
0.459961 -0.770141 0.441948 0.360154 -0.823309 0.438693 -0.560548 -0.782751 0.270346 
-0.119855 -0.982654 0.141515 0.344543 -0.937365 0.0513618 0.290301 -0.956777 0.0173946 
-0.375862 -0.886779 0.268982 -0.668092 -0.575333 0.471853 -0.656293 -0.610802 0.442945 
0.348863 -0.825804 0.443106 0.370267 -0.845523 0.384698 0.199551 -0.835598 0.511816 
0.141708 -0.856119 0.49697 0.105404 -0.873471 0.47533 -0.0168623 -0.920103 0.391314 
-0.54428 -0.792787 0.274313 -0.272681 -0.908883 0.315559 -0.595629 -0.782689 0.180624 
0.287575 -0.957586 0.0181796 0.100985 -0.99213 0.0740246 -0.294537 -0.932381 0.209555 
-0.147978 -0.981876 0.118412 0.218335 0.732831 -0.644429 0.210531 0.765821 -0.607614 
0.0362931 0.839294 -0.542464 -0.236213 0.823216 -0.516254 -0.353528 0.793241 -0.495769 
0.361095 0.701057 -0.614922 0.305406 0.700836 -0.644637 0.232843 0.765507 -0.59982 
0.239734 0.774373 -0.585554 0.203824 0.693617 -0.690906 0.205287 0.633329 -0.746158 
0.0601735 0.575541 -0.815556 -0.171903 0.6312 -0.756331 -0.332576 0.814462 -0.475442 
-0.327721 0.763991 -0.555803 -0.278218 0.855694 -0.436327 -0.248802 0.893726 -0.373298 
-0.310522 0.909915 -0.27501 0.389675 0.682122 -0.618759 0.438568 0.625521 -0.645276 
0.361391 0.663636 -0.654968 0.245007 0.593248 -0.76683 0.158608 0.519261 -0.839769 
0.127695 0.459057 -0.879182 -0.100763 0.677852 -0.728261 -0.171268 0.795342 -0.581462 
-0.35777 0.899598 -0.250448 -0.284417 0.862863 -0.417821 -0.418553 0.886595 -0.196881 
-0.585191 0.801688 -0.121853 0.50119 0.610208 -0.613559 0.521279 0.588627 -0.617888 
0.357427 0.504788 -0.78577 0.256834 0.438742 -0.861128 -0.612675 0.783757 -0.101754 
-0.534133 0.794256 -0.289586 -0.751619 0.659476 -0.0126607 0.6044 0.493924 -0.625092 
0.638775 0.441213 -0.630315 0.413773 0.437213 -0.798522 0.300596 0.339655 -0.891222 
-0.803599 0.595167 0.00230232 -0.700945 0.593312 -0.395799 0.697206 0.312981 -0.64494 
0.579056 0.300011 -0.758082 -0.935919 0.333123 0.114391 0.851424 0.154796 -0.501115 
0.524824 0.206986 -0.825661 -0.992465 0.019187 0.121019 0.91197 -0.12298 -0.391392 
0.539151 -0.048516 -0.840811 -0.960506 -0.234576 0.149677 0.846715 -0.435674 -0.305389 
0.766174 -0.56802 -0.300552 0.712717 -0.404528 -0.573055 -0.869618 -0.468678 0.15526 
-0.74292 -0.660152 0.110766 0.726005 -0.648165 -0.229782 0.610181 -0.783562 -0.117086 
0.583949 -0.422891 -0.692941 -0.181158 -0.959809 -0.214357 -0.20501 -0.920045 -0.333899 
0.263699 -0.918317 -0.295224 0.232432 -0.795162 -0.560082 0.314716 -0.909141 -0.272793 
-0.272914 -0.956332 -0.104631 -0.662732 -0.746461 0.0598598 -0.527036 -0.849682 -0.0165488 
0.442229 -0.893132 -0.082155 0.394854 -0.916091 -0.0697725 0.427094 -0.863315 -0.268845 
0.260251 -0.965536 0.00299288 0.128004 -0.991343 0.0292143 0.082933 -0.996547 0.00395606 
-0.0606948 -0.998034 -0.015603 -0.321435 -0.945892 -0.0443605 -0.645083 -0.761602 -0.0618934 
-0.651788 -0.756474 -0.0540279 -0.644901 -0.737906 -0.198992 0.228432 -0.936382 -0.266473 
0.178696 -0.948067 -0.263128 0.17401 -0.931056 -0.320709 -0.250855 -0.961305 -0.113862 
-0.058481 -0.981215 -0.183837 -0.0325599 -0.939162 -0.341927 0.141319 0.338331 -0.930355 
0.0669456 0.366971 -0.92782 -0.0906748 0.374428 -0.922812 -0.0938354 0.502447 -0.859501 
0.22405 0.387048 -0.894425 0.134356 0.42359 -0.895835 0.140052 0.339886 -0.92998 
0.0839074 0.399891 -0.912714 0.140508 0.335493 -0.931505 0.0624779 0.27885 -0.9583 
-0.0617107 0.28788 -0.955676 -0.0922529 0.53251 -0.841381 -0.0903854 0.499285 -0.86171 
-0.0845207 0.655806 -0.750183 -0.132692 0.706049 -0.695621 -0.220115 0.713153 -0.665554 
-0.312159 0.740251 -0.595471 0.22473 0.385929 -0.894738 0.256478 0.352484 -0.899986 
0.223817 0.384764 -0.895468 0.118115 0.355634 -0.927132 0.0141171 0.308778 -0.951029 
0.0203126 0.236359 -0.971454 0.0168921 0.166298 -0.985931 0.0793588 0.112947 -0.990427 
0.143015 0.35078 -0.925473 0.0516975 0.435376 -0.898763 -0.040151 0.490409 -0.870567 
-0.139526 0.562624 -0.814854 -0.339477 0.73257 -0.589997 -0.296345 0.696336 -0.653678 
-0.431141 0.692558 -0.578342 0.39581 0.266806 -0.87872 0.281321 0.322568 -0.903775 
0.256544 0.319497 -0.912199 0.248516 0.303327 -0.919909 0.169614 0.262143 -0.950006 
0.0812194 0.237846 -0.967901 -0.00249431 0.226668 -0.973969 -0.00835791 0.211105 -0.977428 
-0.072185 0.226084 -0.97143 0.136868 0.185269 -0.97311 0.279477 0.275281 -0.919844 
0.0890903 0.246906 -0.964935 -0.00993187 0.275069 -0.961373 -0.0658661 0.31618 -0.94641 
-0.127214 0.38272 -0.915064 -0.613626 0.565593 -0.55097 -0.389854 0.501977 -0.772032 
-0.647648 0.532102 -0.545361 0.398555 0.262138 -0.878884 0.395175 0.259445 -0.881207 
0.210619 0.286109 -0.934763 0.169408 0.248029 -0.953825 0.146888 0.215098 -0.965483 
0.0746908 0.184846 -0.979925 -0.0189264 0.189986 -0.981604 0.0110755 0.189327 -0.981852 
0.0124168 0.17767 -0.984012 0.159576 0.351015 -0.922672 -0.77088 0.350177 -0.53209 
-0.574503 0.337749 -0.745568 0.351474 0.0919228 -0.931674 0.336278 0.0756602 -0.938718 
0.266903 0.183054 -0.946179 0.175822 0.189386 -0.966033 0.117702 0.176942 -0.977158 
0.0553908 0.13525 -0.989262 0.000590695 0.0977711 -0.995209 -0.0165914 0.0759922 -0.99697 
0.0910417 0.137069 -0.986369 -0.829029 0.0471037 -0.557218 -0.527803 0.0661544 -0.846786 
0.417767 -0.0119131 -0.908476 0.403659 0.00919241 -0.914863 0.298447 0.0854477 -0.950594 
0.157067 0.115166 -0.98085 0.0877683 0.128627 -0.987802 -0.00365545 0.0850527 -0.99637 
-0.0776926 0.0118599 -0.996907 0.0511706 -0.0386625 -0.997941 -0.855003 -0.191788 -0.481858 
-0.520787 -0.166444 -0.837304 0.5162 -0.118136 -0.848281 0.56415 -0.328482 -0.757519 
0.493841 -0.0874822 -0.86514 0.338113 -0.0560703 -0.939434 0.224907 -0.0378958 -0.973643 
-0.123964 -0.0356719 -0.991645 -0.0544172 0.000193905 -0.998518 -0.0546743 -0.215395 -0.974995 
-0.242683 -0.798673 -0.550659 -0.0667656 -0.516625 -0.853605 0.211987 -0.759271 -0.615279 
0.10529 -0.456809 -0.883312 0.210598 -0.319858 -0.923764 -0.31997 -0.320559 -0.89155 
-0.770344 -0.455702 -0.445988 -0.655819 -0.604692 -0.451939 -0.634762 -0.466435 -0.616049 
0.561068 -0.408349 -0.720037 0.419918 -0.634953 -0.648462 0.351846 -0.354545 -0.866315 
0.185929 -0.282296 -0.941137 0.123892 -0.253225 -0.959441 -0.00314009 -0.192119 -0.981367 
-0.0725376 -0.188582 -0.979375 -0.1246 -0.172597 -0.97708 -0.35842 -0.766559 -0.532843 
-0.569233 -0.66176 -0.487901 -0.414353 -0.428086 -0.803152 0.24193 -0.760937 -0.602033 
0.314941 -0.757535 -0.571798 0.287503 -0.645712 -0.707388 0.150113 -0.81823 -0.554946 
0.142402 -0.557515 -0.817862 0.00364196 -0.790988 -0.611821 0.00643298 -0.557493 -0.830157 
-0.201946 -0.82134 -0.533497 -0.162588 -0.598363 -0.784555 -0.505963 -0.720506 -0.474208 
-0.454426 -0.748965 -0.482233 -0.441292 -0.667082 -0.60022 0.352919 -0.734936 -0.579066 
0.295715 -0.765275 -0.571759 0.286693 -0.705189 -0.648472 0.156148 -0.83419 -0.528909 
0.149401 -0.663985 -0.732669 0.0507853 -0.84512 -0.532158 0.0230387 -0.608249 -0.793411 
-0.0737558 -0.805826 -0.587541 -0.0796736 -0.576518 -0.81319 -0.495211 -0.705698 -0.506711 
-0.302575 -0.78104 -0.546282 -0.264613 -0.643043 -0.718663 0.218173 0.227419 -0.949042 
0.0811055 0.210121 -0.974305 -0.00288945 0.25469 -0.967018 -0.0491485 0.282612 -0.957974 
-0.0991985 0.294605 -0.950457 -0.279841 0.203597 -0.93821 0.189138 0.242186 -0.951616 
0.171533 0.256213 -0.951279 0.191756 0.207967 -0.959156 0.0551797 0.0919908 -0.99423 
0.0519056 0.118298 -0.991621 0.0123203 0.159667 -0.987094 -0.0948878 0.189917 -0.977204 
-0.296998 0.190301 -0.935723 -0.271068 0.176021 -0.946329 0.147823 0.189106 -0.970766 
0.149721 0.0102565 -0.988675 0.174048 0.217791 -0.960351 0.0296793 -0.0218083 -0.999322 
0.0031516 -0.022562 -0.99974 0.0595888 0.0268435 -0.997862 0.0126474 0.0504389 -0.998647 
-0.0875641 0.0102526 -0.996106 -0.303318 0.0441376 -0.951867 -0.197895 0.0292606 -0.979786 
0.0938084 0.0414559 -0.994727 -0.0116874 0.0742252 -0.997173 0.143237 -0.0311383 -0.989198 
0.126493 -0.0604502 -0.990124 0.165067 -0.0300581 -0.985824 -0.0214402 -0.281739 -0.959251 
-0.00562187 -0.176382 -0.984306 -0.0246153 -0.258709 -0.965642 -0.0386452 -0.241142 -0.96972 
0.157822 -0.212316 -0.964372 0.104534 -0.112281 -0.988163 0.124065 -0.0516854 -0.990927 
-0.00236631 -0.0674858 -0.997717 -0.116192 -0.0426429 -0.992311 -0.298756 -0.126466 -0.945913 
-0.253746 -0.187844 -0.948856 -0.211455 -0.0979761 -0.972465 0.13603 -0.0349818 -0.990087 
0.10621 -0.0952549 -0.989771 0.0984405 -0.0344892 -0.994545 -0.089712 -0.012862 -0.995885 
-0.00499286 -0.185816 -0.982572 -0.0638552 0.000933634 -0.997959 0.164299 -0.297621 -0.94044 
0.107358 -0.332717 -0.936896 0.0936334 -0.269485 -0.958442 0.00619225 -0.358183 -0.933631 
0.0113499 -0.280474 -0.959795 -0.226899 -0.292279 -0.929026 -0.126597 -0.364299 -0.922637 
-0.120347 -0.274031 -0.954161 
