# vtk DataFile Version 4.2
vtk output
ASCII
DATASET POLYDATA
POINTS 540 float
10.2833 -37.8958 -14.9739 18.227 -37.8958 -17.8009 26.1707 -37.8958 -17.7956 
34.1144 -37.8958 -14.8394 2.33966 -29.9522 -15.4874 10.2833 -29.9522 -19.6066 
18.227 -29.9522 -21.0657 26.1707 -29.9522 -20.693 34.1144 -29.9522 -19.2795 
42.0581 -29.9522 -16.2508 -29.4351 -22.0085 -14.0306 2.33966 -22.0085 -16.5622 
10.2833 -22.0085 -21.2822 18.227 -22.0085 -21.671 26.1707 -22.0085 -21.1972 
34.1144 -22.0085 -20.7524 42.0581 -22.0085 -19.5877 50.0017 -22.0085 -15.609 
-45.3224 -14.0648 -14.9867 -37.3787 -14.0648 -16.7641 -29.4351 -14.0648 -16.6272 
-21.4914 -14.0648 -16.1856 -13.5477 -14.0648 -14.8493 -5.60402 -14.0648 -18.0091 
2.33966 -14.0648 -21.2806 10.2833 -14.0648 -21.741 18.227 -14.0648 -20.7855 
26.1707 -14.0648 -20.8369 34.1144 -14.0648 -20.8196 42.0581 -14.0648 -19.9784 
50.0017 -14.0648 -17.7028 -45.3224 -6.12113 -16.6746 -37.3787 -6.12113 -18.6355 
-29.4351 -6.12113 -19.0187 -21.4914 -6.12113 -18.6949 -13.5477 -6.12113 -20.0008 
-5.60402 -6.12113 -21.2813 2.33966 -6.12113 -20.1745 10.2833 -6.12113 -20.9009 
18.227 -6.12113 -19.628 26.1707 -6.12113 -20.2187 34.1144 -6.12113 -20.7712 
42.0581 -6.12113 -20.5767 50.0017 -6.12113 -19.0791 57.9454 -6.12113 -14.6777 
-45.3224 1.82255 -16.4589 -37.3787 1.82255 -18.7886 -29.4351 1.82255 -19.6629 
-21.4914 1.82255 -19.6532 -13.5477 1.82255 -20.1636 -5.60402 1.82255 -19.1777 
2.33966 1.82255 -19.8924 10.2833 1.82255 -21.6491 18.227 1.82255 -18.8854 
26.1707 1.82255 -19.7047 34.1144 1.82255 -20.3643 42.0581 1.82255 -20.0551 
50.0017 1.82255 -18.2126 -45.3224 9.76623 -14.702 -37.3787 9.76623 -17.1868 
-29.4351 9.76623 -18.4306 -21.4914 9.76623 -19.1434 -13.5477 9.76623 -20.2639 
-5.60402 9.76623 -20.8306 2.33966 9.76623 -20.149 10.2833 9.76623 -19.4102 
18.227 9.76623 -18.9908 26.1707 9.76623 -19.5876 34.1144 9.76623 -19.8979 
42.0581 9.76623 -19.2126 50.0017 9.76623 -17.0512 -37.3787 17.7099 -14.3935 
-29.4351 17.7099 -16.4974 -21.4914 17.7099 -17.6951 -13.5477 17.7099 -18.3715 
-5.60402 17.7099 -18.1161 2.33966 17.7099 -17.8486 10.2833 17.7099 -18.4886 
18.227 17.7099 -19.4671 26.1707 17.7099 -19.8313 34.1144 17.7099 -19.3809 
42.0581 17.7099 -18.002 50.0017 17.7099 -14.2046 -29.4351 25.6536 -14.4158 
-21.4914 25.6536 -16.3337 -13.5477 25.6536 -17.3628 -5.60402 25.6536 -18.2954 
2.33966 25.6536 -18.1729 10.2833 25.6536 -19.0662 18.227 25.6536 -19.1284 
26.1707 25.6536 -19.3354 34.1144 25.6536 -17.8044 42.0581 25.6536 -15.4582 
-21.4914 33.5973 -14.0267 -13.5477 33.5973 -16.2154 -5.60402 33.5973 -17.2833 
2.33966 33.5973 -18.1962 10.2833 33.5973 -18.0502 18.227 33.5973 -17.5178 
26.1707 33.5973 -16.5361 34.1144 33.5973 -14.5779 -5.60402 41.541 -14.0209 
2.33966 41.541 -14.8419 10.2833 41.541 -14.5059 10.2833 -39.3723 -13.9577 
18.227 -42.0239 -13.9577 18.227 -45.8395 -6.21274 26.1707 -41.6874 -13.9577 
34.1144 -38.839 -13.9577 -29.4351 -37.8958 -6.85923 -21.4914 -37.8958 -8.46149 
-13.5477 -37.8958 -9.10865 -5.60402 -37.8958 -9.22094 7.92338 -37.8958 -13.9577 
2.33966 -33.4956 -13.9577 2.33966 -37.8958 -11.3751 35.6704 -37.8958 -13.9577 
42.0581 -33.2359 -13.9577 -37.3787 -29.9522 -9.28682 -29.4351 -22.2682 -13.9577 
-29.4351 -29.9522 -11.4769 -21.4914 -29.9522 -11.6835 -13.5477 -29.9522 -11.387 
-0.752719 -29.9522 -13.9577 -5.60402 -29.9522 -11.672 45.5666 -29.9522 -13.9577 
50.0017 -24.8739 -13.9577 50.0017 -29.9522 -6.70723 -45.3224 -16.2168 -13.9577 
-45.3224 -22.0085 -10.6232 -30.1623 -22.0085 -13.9577 -37.3787 -20.4698 -13.9577 
-37.3787 -22.0085 -13.2008 -28.0973 -22.0085 -13.9577 -21.4914 -20.8959 -13.9577 
-21.4914 -22.0085 -13.6191 -13.5477 -16.2889 -13.9577 -13.5477 -22.0085 -12.4008 
-2.17602 -22.0085 -13.9577 -5.60402 -18.5085 -13.9577 -5.60402 -22.0085 -12.601 
52.5088 -22.0085 -13.9577 -47.3501 -14.0648 -13.9577 -53.2661 -14.0648 -9.84734 
55.487 -14.0648 -13.9577 57.9454 -7.99243 -13.9577 57.9454 -14.0648 -10.681 
-50.6537 -6.12113 -13.9577 -53.2661 -6.12113 -12.3844 58.5017 -6.12113 -13.9577 
57.9454 -3.15387 -13.9577 -49.9124 1.82255 -13.9577 -53.2661 1.82255 -11.7809 
56.6236 1.82255 -13.9577 57.9454 1.82255 -12.5759 -46.6359 9.76623 -13.9577 
-53.2661 9.76623 -9.32044 -45.3224 11.4602 -13.9577 54.4015 9.76623 -13.9577 
57.9454 9.76623 -8.87361 -38.528 17.7099 -13.9577 -45.3224 17.7099 -10.9823 
-37.3787 18.9242 -13.9577 50.3946 17.7099 -13.9577 50.0017 18.1618 -13.9577 
-30.713 25.6536 -13.9577 -37.3787 25.6536 -11.4963 -29.4351 27.011 -13.9577 
44.2282 25.6536 -13.9577 42.0581 27.9577 -13.9577 50.0017 25.6536 -7.21433 
-21.7281 33.5973 -13.9577 -29.4351 33.5973 -11.4686 -21.4914 33.7296 -13.9577 
-13.5477 39.0791 -13.9577 18.227 40.7946 -13.9577 26.1707 37.4987 -13.9577 
35.2337 33.5973 -13.9577 34.1144 34.3618 -13.9577 42.0581 33.5973 -7.50912 
-21.4914 41.541 -8.43212 -5.9843 41.541 -13.9577 -13.5477 41.541 -12.3656 
-5.60402 41.6161 -13.9577 2.33966 42.5483 -13.9577 14.7051 41.541 -13.9577 
10.2833 42.1368 -13.9577 18.227 41.541 -13.2725 26.1707 41.541 -8.8889 
18.227 -45.9144 -6.01406 -29.4351 -38.7379 -6.01406 -21.4914 -41.5791 -6.01406 
-13.5477 -42.463 -6.01406 -5.60402 -41.4609 -6.01406 2.33966 -42.9583 -6.01406 
17.4318 -45.8395 -6.01406 10.2833 -45.0903 -6.01406 18.961 -45.8395 -6.01406 
18.227 -45.8395 -5.562 26.1707 -45.0782 -6.01406 34.1144 -42.3558 -6.01406 
-31.605 -37.8958 -6.01406 -37.3787 -35.1633 -6.01406 -37.3787 -37.8958 -2.01972 
41.2362 -37.8958 -6.01406 42.0581 -37.3328 -6.01406 50.0017 -30.3057 -6.01406 
-43.845 -29.9522 -6.01406 -45.3224 -28.7908 -6.01406 -45.3224 -29.9522 -4.65192 
50.3338 -29.9522 -6.01406 50.0017 -29.9522 -5.13646 -52.3456 -22.0085 -6.01406 
-53.2661 -20.8013 -6.01406 -53.2661 -22.0085 -4.81468 56.3942 -22.0085 -6.01406 
57.9454 -18.9186 -6.01406 -57.1265 -14.0648 -6.01406 60.1293 -14.0648 -6.01406 
57.9454 -14.0648 0.653448 -59.4466 -6.12113 -6.01406 -61.2098 -6.12113 1.28331 
62.2156 -6.12113 -6.01406 -58.8246 1.82255 -6.01406 61.503 1.82255 -6.01406 
-56.1341 9.76623 -6.01406 -53.2661 15.1532 -6.01406 59.4218 9.76623 -6.01406 
57.9454 14.0538 -6.01406 -51.5417 17.7099 -6.01406 -53.2661 17.7099 -2.1486 
-45.3224 24.8412 -6.01406 56.3814 17.7099 -6.01406 -44.6591 25.6536 -6.01406 
-45.3224 25.6536 -5.06125 -37.3787 33.5907 -6.01406 50.7675 25.6536 -6.01406 
50.0017 26.5845 -6.01406 50.0017 25.6536 0.661585 -37.3716 33.5973 -6.01406 
-37.3787 33.5973 -6.00527 -29.4351 39.5927 -6.01406 34.1144 39.7689 -6.01406 
43.1484 33.5973 -6.01406 42.0581 34.5012 -6.01406 -25.6772 41.541 -6.01406 
-29.4351 41.541 -1.65976 -21.4914 43.4609 -6.01406 -13.5477 46.0393 -6.01406 
-5.60402 47.6732 -6.01406 2.33966 47.9595 -6.01406 10.2833 47.1657 -6.01406 
18.227 45.529 -6.01406 30.1114 41.541 -6.01406 26.1707 43.088 -6.01406 
-37.3787 -39.5824 1.92962 -29.4351 -43.1168 1.92962 -21.4914 -44.9531 1.92962 
-13.5477 -45.2446 1.92962 -5.60402 -45.0599 1.92962 2.33966 -44.6784 1.92962 
10.2833 -45.1164 1.92962 18.227 -44.5553 1.92962 26.1707 -42.8852 1.92962 
34.1144 -39.7643 1.92962 -39.8969 -37.8958 1.92962 -45.3224 -33.9006 1.92962 
26.1707 -37.8958 8.88305 37.0358 -37.8958 1.92962 34.1144 -37.8958 4.21284 
42.0581 -34.352 1.92962 -49.5044 -29.9522 1.92962 -53.2661 -25.9611 1.92962 
46.9112 -29.9522 1.92962 42.0581 -29.9522 6.30426 50.0017 -26.4581 1.92962 
-56.3121 -22.0085 1.92962 53.3783 -22.0085 1.92962 50.0017 -22.0085 5.4224 
-59.8981 -14.0648 1.92962 -61.2098 -6.86172 1.92962 57.4001 -14.0648 1.92962 
50.0017 -14.0648 9.67897 57.9454 -12.6382 1.92962 -61.3332 -6.12113 1.92962 
-61.2098 -4.2459 1.92962 -61.2098 -6.12113 2.39781 60.2578 -6.12113 1.92962 
57.9454 -6.12113 4.71519 -60.8 1.82255 1.92962 60.0026 1.82255 1.92962 
57.9454 1.82255 4.43837 -58.8416 9.76623 1.92962 58.1806 9.76623 1.92962 
57.9454 10.3571 1.92962 57.9454 9.76623 2.28089 -54.524 17.7099 1.92962 
-53.2661 19.8101 1.92962 -53.2661 17.7099 8.18133 54.9882 17.7099 1.92962 
50.0017 25.4271 1.92962 50.0017 17.7099 9.44482 -49.3471 25.6536 1.92962 
-45.3224 30.6328 1.92962 49.8392 25.6536 1.92962 -42.5529 33.5973 1.92962 
-37.3787 37.9628 1.92962 34.1144 39.398 1.92962 42.452 33.5973 1.92962 
42.0581 33.947 1.92962 42.0581 33.5973 2.53378 -31.7139 41.541 1.92962 
-29.4351 42.7575 1.92962 -29.4351 41.541 7.44567 -21.4914 45.4959 1.92962 
-13.5477 47.0346 1.92962 -5.60402 47.8337 1.92962 2.33966 48.0024 1.92962 
10.2833 46.9389 1.92962 18.227 45.2527 1.92962 18.227 41.541 9.49782 
29.405 41.541 1.92962 26.1707 42.8694 1.92962 26.1707 41.541 4.82517 
-37.3787 -38.125 9.8733 -29.4351 -40.3949 9.8733 -21.4914 -41.714 9.8733 
-13.5477 -41.7345 9.8733 -5.60402 -40.9364 9.8733 2.33966 -40.346 9.8733 
10.2833 -39.9995 9.8733 18.227 -38.953 9.8733 -37.7471 -37.8958 9.8733 
-45.3224 -32.5433 9.8733 -37.3787 -37.8958 10.224 -29.4351 -37.8958 12.597 
-21.4914 -37.8958 13.5226 -13.5477 -37.8958 13.4872 -5.60402 -37.8958 12.6974 
2.33966 -37.8958 12.2801 10.2833 -37.8958 11.7739 22.624 -37.8958 9.8733 
18.227 -37.8958 10.8477 26.1707 -36.6194 9.8733 34.1144 -31.277 9.8733 
-48.0699 -29.9522 9.8733 -53.2661 -23.5448 9.8733 -45.3224 -29.9522 13.2009 
-37.3787 -29.9522 17.2969 -5.60402 -29.9522 16.7599 2.33966 -29.9522 16.7909 
10.2833 -29.9522 16.6973 18.227 -29.9522 15.3846 26.1707 -29.9522 13.4956 
35.8761 -29.9522 9.8733 34.1144 -29.9522 10.7632 42.0581 -23.3292 9.8733 
-54.3377 -22.0085 9.8733 -53.2661 -22.0085 11.3614 -45.3224 -22.0085 17.7891 
18.227 -22.0085 17.6307 26.1707 -22.0085 15.748 34.1144 -22.0085 13.8521 
43.1385 -22.0085 9.8733 42.0581 -22.0085 10.4661 -57.9783 -14.0648 9.8733 
-53.2661 -14.0648 15.7079 26.1707 -14.0648 16.8962 34.1144 -14.0648 15.3333 
49.6593 -14.0648 9.8733 42.0581 -14.0648 13.0612 50.0017 -13.1817 9.8733 
-58.757 -6.12113 9.8733 -53.2661 -6.12113 16.7908 34.1144 -6.12113 16.7514 
42.0581 -6.12113 14.6206 51.9346 -6.12113 9.8733 50.0017 -6.12113 11.167 
-58.3642 1.82255 9.8733 -53.2661 1.82255 16.4859 42.0581 1.82255 15.6696 
52.6063 1.82255 9.8733 50.0017 1.82255 11.8324 -56.3213 9.76623 9.8733 
[...]
POINT_DATA 540
SCALARS ImageScalars float
LOOKUP_TABLE default
0 0 0 0 0 0 0 0 0 
0 0 0 0 0 0 0 0 0 
0 0 0 0 0 0 0 0 0 
0 0 0 0 0 0 0 0 0 
0 0 0 0 0 0 0 0 0 
0 0 0 0 0 0 0 0 0 
0 0 0 0 0 0 0 0 0 
0 0 0 0 0 0 0 0 0 
0 0 0 0 0 0 0 0 0 
0 0 0 0 0 0 0 0 0 
0 0 0 0 0 0 0 0 0 
0 0 0 0 0 0 0 0 0 
0 0 0 0 0 0 0 0 0 
0 0 0 0 0 0 0 0 0 
0 0 0 0 0 0 0 0 0 
0 0 0 0 0 0 0 0 0 
0 0 0 0 0 0 0 0 0 
0 0 0 0 0 0 0 0 0 
0 0 0 0 0 0 0 0 0 
0 0 0 0 0 0 0 0 0 
0 0 0 0 0 0 0 0 0 
0 0 0 0 0 0 0 0 0 
0 0 0 0 0 0 0 0 0 
0 0 0 0 0 0 0 0 0 
0 0 0 0 0 0 0 0 0 
0 0 0 0 0 0 0 0 0 
0 0 0 0 0 0 0 0 0 
0 0 0 0 0 0 0 0 0 
0 0 0 0 0 0 0 0 0 
0 0 0 0 0 0 0 0 0 
0 0 0 0 0 0 0 0 0 
0 0 0 0 0 0 0 0 0 
0 0 0 0 0 0 0 0 0 
0 0 0 0 0 0 0 0 0 
0 0 0 0 0 0 0 0 0 
0 0 0 0 0 0 0 0 0 
0 0 0 0 0 0 0 0 0 
0 0 0 0 0 0 0 0 0 
0 0 0 0 0 0 0 0 0 
0 0 0 0 0 0 0 0 0 
0 0 0 0 0 0 0 0 0 
0 0 0 0 0 0 0 0 0 
0 0 0 0 0 0 0 0 0 
0 0 0 0 0 0 0 0 0 
0 0 0 0 0 0 0 0 0 
0 0 0 0 0 0 0 0 0 
0 0 0 0 0 0 0 0 0 
0 0 0 0 0 0 0 0 0 
0 0 0 0 0 0 0 0 0 
0 0 0 0 0 0 0 0 0 
0 0 0 0 0 0 0 0 0 
0 0 0 0 0 0 0 0 0 
0 0 0 0 0 0 0 0 0 
0 0 0 0 0 0 0 0 0 
0 0 0 0 0 0 0 0 0 
0 0 0 0 0 0 0 0 0 
0 0 0 0 0 0 0 0 0 
0 0 0 0 0 0 0 0 0 
0 0 0 0 0 0 0 0 0 
0 0 0 0 0 0 0 0 0 

NORMALS Normals float
0.322249 0.55182 0.769188 0.134121 0.56519 0.813985 -0.161192 0.572821 0.803675 
-0.371299 0.65631 0.656806 0.478262 0.233149 0.846703 0.323445 0.311886 0.89337 
0.0637657 0.206564 0.976353 -0.1109 0.176564 0.978022 -0.256571 0.316471 0.913246 
-0.442774 0.460578 0.769298 0.0220106 0.292091 0.956137 0.519883 0.291303 0.803034 
0.220611 0.123712 0.967485 -0.00572706 -0.0187632 0.999808 -0.059014 0.00726284 0.998231 
-0.0950518 0.0946834 0.990959 -0.28837 0.208988 0.934434 -0.516589 0.356726 0.778384 
0.346675 0.314827 0.883572 0.100846 0.31708 0.943022 -0.0356299 0.300302 0.953179 
-0.0838862 0.314612 0.945507 0.00185052 0.482147 0.876089 0.352657 0.560926 0.748996 
0.131047 0.156862 0.978888 -0.0396344 -0.0230986 0.998947 -0.0552322 -0.129994 0.989975 
0.00213338 -0.0614665 0.998107 -0.052037 0.000948098 0.998645 -0.180892 0.0588413 0.981741 
-0.395521 0.198728 0.8967 0.332464 0.0944994 0.93837 0.135271 0.131995 0.981977 
0.00373348 0.186548 0.982439 0.0553678 0.212809 0.975524 0.156172 0.237751 0.958689 
0.0105541 -0.0377881 0.99923 -0.0171442 -0.0710824 0.997323 -0.0380576 -0.01006 0.999225 
-0.0399596 -0.119949 0.991976 0.0710207 -0.0707235 0.994964 0.0226533 -0.0286228 0.999334 
-0.0962178 0.00399891 0.995352 -0.292062 0.0296509 0.95594 -0.740316 0.0510121 0.670321 
0.372232 -0.107486 0.921895 0.188426 -0.0917839 0.977789 0.0525021 -0.0375199 0.997916 
0.0314646 0.0272593 0.999133 -0.0241514 0.0156204 0.999586 -0.0278727 -0.0182678 0.999445 
0.160521 -0.00307173 0.987028 -0.0913829 -0.0935259 0.991414 -0.0980569 -0.0391255 0.994411 
0.0930365 -0.0395363 0.994877 0.0222188 -0.0548902 0.998245 -0.123747 -0.0873759 0.988459 
-0.348856 -0.124819 0.928827 0.41193 -0.300908 0.860098 0.205545 -0.251983 0.945651 
0.120658 -0.190526 0.974239 0.113275 -0.121166 0.986148 0.104179 -0.112908 0.988129 
-0.000830264 -0.0799849 0.996796 -0.0920324 -0.145338 0.985092 -0.068571 -0.18855 0.979667 
0.0128066 0.0365714 0.999249 0.0570094 0.00787756 0.998343 -0.0250174 -0.0604208 0.997859 
-0.171822 -0.11613 0.978259 -0.428382 -0.222985 0.875652 0.293936 -0.335685 0.89494 
0.189986 -0.234929 0.953265 0.112954 -0.170946 0.978784 0.0253301 -0.178824 0.983555 
-0.0331578 -0.149915 0.988143 0.0233584 -0.0994797 0.994765 0.101549 -0.0183941 0.99466 
0.0839657 0.0089019 0.996429 -0.00427161 -0.014065 0.999892 -0.105569 -0.133199 0.985451 
-0.29571 -0.225374 0.928311 -0.499459 -0.425301 0.754758 0.27814 -0.277638 0.919541 
0.171841 -0.212174 0.962005 0.118147 -0.133839 0.983935 0.049235 -0.0481436 0.997626 
0.047925 0.0217352 0.998614 0.0606704 -0.0227527 0.997899 0.0161794 -0.116205 0.993093 
-0.0845024 -0.197907 0.976572 -0.220328 -0.268475 0.937751 -0.44612 -0.419614 0.790507 
0.271162 -0.372776 0.887417 0.186451 -0.263258 0.946537 0.120517 -0.229265 0.965874 
0.046407 -0.167987 0.984696 -0.0413298 -0.248891 0.967649 -0.0892467 -0.316199 0.944486 
-0.166061 -0.451161 0.876857 -0.356411 -0.562264 0.746211 0.115073 -0.566562 0.815945 
0.0270419 -0.572853 0.819212 -0.0733681 -0.618865 0.782063 0.312317 0.603527 0.73363 
0.0713963 0.757303 0.649149 -0.00373917 0.993252 0.115916 -0.165759 0.769872 0.616296 
-0.3794 0.698434 0.606832 0.258617 0.653752 0.711144 0.110271 0.522015 0.845778 
0.0480303 0.462784 0.885169 0.107916 0.501797 0.858227 0.318823 0.555279 0.768126 
0.408486 0.36151 0.838123 0.303079 0.593795 0.745353 -0.410564 0.687506 0.598977 
-0.51152 0.59979 0.615304 0.300967 0.494759 0.81525 0.0249572 0.292255 0.956015 
0.135929 0.350943 0.926478 -0.0069617 0.306938 0.951704 -0.00219807 0.199907 0.979812 
0.385351 0.19625 0.90166 0.214097 0.178899 0.96029 -0.562957 0.539535 0.626084 
-0.583684 0.463976 0.666363 -0.727565 0.681894 0.0752983 0.340603 0.352455 0.871645 
0.359636 0.481128 0.799486 0.0363203 0.304755 0.951738 0.156682 0.405973 0.900354 
0.176586 0.422458 0.889014 0.00133944 0.288767 0.957398 -0.101119 0.278822 0.955004 
-0.0966494 0.269865 0.958035 -0.040757 0.39942 0.915861 -0.0681696 0.198621 0.977703 
0.374099 0.264064 0.889 0.292446 0.410583 0.863653 0.213392 0.238996 0.947283 
-0.616803 0.401237 0.677173 0.410267 0.303546 0.859965 0.634858 0.310003 0.70771 
-0.675564 0.236342 0.698395 -0.763241 0.0996909 0.638377 -0.873385 0.307463 0.377711 
0.505523 0.0855149 0.858565 0.617517 0.0930336 0.781036 -0.769664 0.0525158 0.636286 
-0.754051 -0.044609 0.655299 0.502669 -0.12526 0.855356 0.634803 -0.14522 0.758905 
-0.685295 -0.183818 0.704686 -0.791281 -0.204344 0.576297 0.453358 -0.303953 0.837902 
0.674035 -0.341889 0.654819 0.4244 -0.317738 0.847896 -0.651345 -0.230355 0.72297 
-0.89697 -0.289069 0.334491 0.315168 -0.343055 0.884863 0.47687 -0.409364 0.777828 
0.303501 -0.342789 0.889035 -0.513143 -0.429842 0.742913 -0.50982 -0.43534 0.741999 
0.2907 -0.294004 0.910525 0.398865 -0.403077 0.823672 0.293485 -0.297186 0.908596 
-0.525371 -0.457575 0.717363 -0.493496 -0.496919 0.713815 -0.751668 -0.597875 0.278459 
0.274188 -0.373634 0.886126 0.390274 -0.452986 0.801555 0.272226 -0.376714 0.885426 
0.224674 -0.496441 0.838492 -0.183714 -0.648598 0.738627 -0.245308 -0.590944 0.768511 
-0.389192 -0.583808 0.712529 -0.368376 -0.594363 0.714865 -0.604645 -0.739765 0.295214 
0.350517 -0.733796 0.581963 0.120671 -0.568873 0.813525 0.248232 -0.642401 0.725053 
0.115002 -0.569643 0.813807 0.0231835 -0.615281 0.787967 -0.140275 -0.658184 0.739673 
-0.0769953 -0.645904 0.759526 -0.200239 -0.705398 0.67994 -0.329996 -0.856162 0.397604 
-0.00378643 0.994487 0.104796 0.278608 0.686822 0.671307 0.16548 0.703116 0.691552 
-0.0116499 0.743341 0.668811 0.0307572 0.751393 0.659138 0.219839 0.852007 0.475137 
0.0100557 0.993766 0.111027 0.155583 0.969075 0.19154 -0.0218549 0.99487 0.0987681 
-0.0107349 0.996678 0.0807358 -0.207197 0.977466 0.0403759 -0.433157 0.900497 0.0384851 
0.31407 0.67694 0.665667 0.391186 0.638595 0.662699 0.484086 0.79722 0.360696 
-0.566501 0.823631 0.0266142 -0.582231 0.812568 0.0272188 -0.725697 0.687012 0.0371355 
0.493026 0.605756 0.624488 0.515754 0.60538 0.606228 0.557393 0.646239 0.521237 
-0.730658 0.681678 0.0381141 -0.728619 0.684884 -0.00686391 0.651291 0.528779 0.544254 
0.678957 0.503566 0.534265 0.704972 0.540967 0.45866 -0.856934 0.515427 -0.000181849 
-0.898858 0.437937 0.0162978 0.773479 0.352966 0.526446 -0.941912 0.3285 0.0699287 
-0.834071 0.359295 -0.418608 0.886577 0.0777073 0.456008 0.998633 0.0522485 -0.00138613 
-0.992431 0.0804153 0.0928114 0.870692 -0.174274 0.459917 -0.975848 -0.166885 0.140959 
0.77891 -0.368213 0.50766 0.735484 -0.45038 0.506183 -0.938223 -0.305575 0.162364 
-0.905606 -0.401006 0.138101 0.702719 -0.486091 0.51952 0.81561 -0.51434 0.265018 
0.652382 -0.511917 0.558873 -0.861951 -0.487306 0.139903 0.651214 -0.513242 0.55902 
0.681012 -0.53538 0.49959 0.546702 -0.593753 0.590401 -0.768443 -0.60431 0.210488 
-0.75558 -0.620482 0.210002 -0.773591 -0.596111 -0.21496 0.546642 -0.593855 0.590355 
0.546906 -0.594133 0.58983 0.420884 -0.747783 0.513496 -0.467366 -0.856044 0.220812 
-0.627421 -0.748859 0.213431 -0.608815 -0.763495 0.21545 0.386297 -0.791324 0.473899 
0.420321 -0.875725 0.237562 0.348886 -0.819387 0.454845 0.246345 -0.90071 0.357822 
0.115937 -0.952102 0.282948 -0.0303321 -0.969567 0.242939 -0.151229 -0.962002 0.227336 
-0.245427 -0.94474 0.217327 -0.393094 -0.892749 0.220172 -0.332999 -0.91763 0.216947 
0.503711 0.858832 0.0931773 0.320206 0.94586 0.053082 0.128243 0.991534 -0.020339 
0.00674519 0.998804 -0.0484261 -0.0354554 0.998808 -0.0335564 0.00312863 0.990241 -0.139331 
-0.00694585 0.973665 -0.227878 -0.131253 0.925951 -0.354102 -0.263498 0.863778 -0.429484 
-0.43129 0.780847 -0.45196 0.545848 0.831634 0.102149 0.634603 0.761942 0.129319 
-0.281888 0.654437 -0.701607 -0.482577 0.75492 -0.444089 -0.424529 0.707857 -0.564547 
-0.554519 0.699689 -0.450493 0.704654 0.699003 0.121893 0.775775 0.625256 0.0850213 
-0.630877 0.623322 -0.462021 -0.490398 0.515764 -0.702494 -0.675144 0.560476 -0.479633 
0.846135 0.529051 0.0645037 -0.732984 0.462457 -0.498867 -0.609836 0.437315 -0.660951 
0.948732 0.315321 0.021929 0.996786 0.073269 -0.0323789 -0.781698 0.348172 -0.51742 
-0.534094 0.268059 -0.801803 -0.797251 0.314078 -0.515505 0.998125 0.0495226 -0.0359786 
0.999397 0.00239986 -0.0346379 0.996955 0.0494942 -0.0602512 -0.860666 0.136222 -0.49061 
-0.772378 0.139415 -0.619674 0.987401 -0.15576 -0.0278767 -0.881971 -0.121643 -0.455335 
-0.820274 -0.0952282 -0.563987 0.933814 -0.357744 0.00328023 -0.886018 -0.273414 -0.374455 
-0.882408 -0.284857 -0.37445 -0.880654 -0.269472 -0.389658 0.85986 -0.508516 0.0453086 
0.844696 -0.532592 0.053238 0.832079 -0.462751 -0.305787 -0.833217 -0.440847 -0.333771 
-0.761775 -0.57863 -0.291352 -0.662827 -0.335694 -0.669306 0.788457 -0.604897 0.111515 
0.739442 -0.665991 0.0984001 -0.758945 -0.582528 -0.290971 0.695705 -0.714374 0.0752583 
0.592543 -0.804273 0.0451463 -0.472768 -0.847733 -0.240498 -0.632829 -0.730932 -0.255471 
-0.627429 -0.736184 -0.253705 -0.626488 -0.726502 -0.282325 0.457345 -0.888221 0.0435747 
0.407995 -0.91164 0.0495294 0.397807 -0.870284 -0.29044 0.267336 -0.963267 -0.0254422 
0.141538 -0.986698 -0.0799598 0.0593934 -0.987483 -0.146113 -0.0566538 -0.981801 -0.181264 
-0.165612 -0.963494 -0.210363 -0.241817 -0.944213 -0.223576 -0.226183 -0.770892 -0.595455 
-0.386504 -0.894899 -0.223092 -0.33505 -0.916756 -0.217485 -0.33133 -0.876657 -0.348845 
0.406986 0.825671 -0.390678 0.204053 0.822702 -0.530588 0.0678293 0.803664 -0.591205 
-0.0391136 0.781891 -0.622187 -0.0683808 0.743977 -0.664698 -0.0452725 0.746417 -0.663937 
-0.0674815 0.699971 -0.710976 -0.138568 0.66257 -0.73607 0.41533 0.822442 -0.388703 
0.59805 0.713253 -0.365521 0.403043 0.819114 -0.408177 0.142175 0.750877 -0.644957 
0.0408126 0.671867 -0.739547 -0.0437723 0.620927 -0.782646 -0.0612537 0.607232 -0.79216 
-0.0477024 0.650333 -0.75815 -0.0733232 0.628485 -0.774358 -0.212852 0.6368 -0.741066 
-0.136283 0.628611 -0.765686 -0.276771 0.595925 -0.753837 -0.367226 0.492528 -0.789026 
0.662877 0.654078 -0.364384 0.7518 0.520142 -0.405277 0.563318 0.619169 -0.547086 
0.294348 0.503781 -0.812135 -0.0698202 0.358042 -0.931091 -0.00345419 0.37944 -0.92521 
-0.0811429 0.38751 -0.918287 -0.183877 0.37017 -0.910584 -0.24977 0.364089 -0.897248 
-0.380361 0.462677 -0.800784 -0.367226 0.463789 -0.806254 -0.435647 0.358276 -0.825743 
0.767085 0.489505 -0.414689 0.731072 0.481094 -0.483821 0.453786 0.324891 -0.829774 
-0.199403 0.175389 -0.964094 -0.229655 0.201729 -0.952137 -0.295788 0.249961 -0.92197 
-0.44909 0.35026 -0.82197 -0.431091 0.343791 -0.834247 0.860721 0.25009 -0.443412 
0.633096 0.219115 -0.742413 -0.185021 0.132607 -0.973747 -0.233234 0.174864 -0.956569 
-0.521852 0.265669 -0.810611 -0.328485 0.225131 -0.917286 -0.528241 0.251046 -0.811133 
0.866788 0.023563 -0.49812 0.620298 0.0360222 -0.783538 -0.199655 0.159733 -0.966759 
-0.316707 0.156481 -0.935527 -0.544982 0.123215 -0.829345 -0.491618 0.123791 -0.861967 
0.867163 -0.134285 -0.479578 0.620335 -0.118466 -0.775339 -0.346913 0.0618785 -0.935854 
-0.611753 -0.0159317 -0.790888 -0.532767 0.00591558 -0.846241 0.832998 -0.294688 -0.468266 
0.807252 -0.420949 -0.413699 0.709316 -0.278595 -0.647499 -0.39308 -0.0758451 -0.916371 
-0.643915 -0.140046 -0.752171 -0.647787 -0.294319 -0.702672 -0.589721 -0.12077 -0.798526 
0.799351 -0.436848 -0.412556 0.483139 -0.306549 -0.820125 -0.278407 -0.16512 -0.946163 
-0.643533 -0.325589 -0.692717 -0.448947 -0.225522 -0.864631 0.739173 -0.552123 -0.385725 
0.690001 -0.61078 -0.388389 0.646634 -0.506918 -0.569999 0.280212 -0.312207 -0.907749 
-0.179451 -0.284013 -0.941878 -0.322654 -0.343678 -0.881918 -0.586225 -0.473597 -0.657302 
-0.571585 -0.496665 -0.653157 -0.558883 -0.450864 -0.695968 0.570535 -0.709753 -0.413207 
0.530512 -0.735616 -0.42122 0.491879 -0.672898 -0.552506 0.374284 -0.803678 -0.462616 
0.241253 -0.512514 -0.824091 0.139184 -0.386334 -0.911797 -0.13898 -0.398664 -0.906505 
-0.222772 -0.754021 -0.61792 -0.154612 -0.460594 -0.874041 -0.304636 -0.717266 -0.626678 
-0.248085 -0.531454 -0.809945 -0.45219 -0.634654 -0.626688 -0.43741 -0.647303 -0.624236 
-0.432968 -0.626879 -0.647735 0.325733 -0.821688 -0.467683 0.205254 -0.841491 -0.499764 
0.199248 -0.783825 -0.588149 0.111118 -0.857643 -0.502097 0.106377 -0.720385 -0.685368 
-0.00638495 -0.851809 -0.523814 -0.0238353 -0.699794 -0.713947 -0.103321 -0.799722 -0.591413 
-0.115548 -0.695446 -0.709227 -0.215863 -0.75918 -0.614043 -0.159563 -0.778461 -0.607073 
-0.159108 -0.713329 -0.68253 0.0922947 0.542991 -0.834651 -0.0491486 0.493217 -0.868517 
-0.130092 0.370589 -0.919641 0.244503 0.49169 -0.835739 0.282807 0.462991 -0.840036 
0.0844208 0.47496 -0.875949 -0.077041 0.436591 -0.896356 -0.124383 0.358068 -0.925374 
-0.13459 0.359826 -0.923261 -0.0663079 0.280884 -0.957448 -0.00431546 0.308915 -0.95108 
-0.0905549 0.296477 -0.950737 0.451423 0.324148 -0.831351 0.452082 0.322681 -0.831564 
0.221896 0.24595 -0.943542 0.05502 0.209022 -0.976362 -0.0890797 0.178214 -0.979951 
-0.16498 0.182988 -0.969173 -0.063889 0.184326 -0.980787 -0.00596698 0.210399 -0.977597 
-0.186356 0.178609 -0.966111 -0.0997227 0.202315 -0.97423 -0.199478 0.147121 -0.968795 
0.485952 0.193026 -0.852403 0.343066 0.136051 -0.929406 0.187282 0.0456526 -0.981245 
0.0150794 0.0116794 -0.999818 -0.119793 -0.0128801 -0.992715 -0.138104 -0.013774 -0.990322 
-0.0369513 0.0201305 -0.999114 0.0151472 0.0649706 -0.997772 -0.122187 0.0664701 -0.990279 
-0.194538 0.0881315 -0.976928 -0.199661 0.0613107 -0.977945 -0.124422 0.122283 -0.984665 
0.539679 0.037606 -0.841031 0.269544 0.0178253 -0.962823 0.111519 -0.0368682 -0.993078 
-0.00552645 -0.0730307 -0.997314 -0.118063 -0.0520666 -0.99164 -0.126646 -0.0154124 -0.991828 
0.00614934 0.0588568 -0.998248 0.042073 -0.0315418 -0.998617 -0.104825 -0.0128515 -0.994408 
-0.136255 0.0592861 -0.988898 -0.124811 0.125937 -0.984155 -0.114411 0.120936 -0.986045 
-0.191912 0.102736 -0.97602 0.510145 -0.111 -0.852895 0.264584 -0.0871347 -0.960418 
0.104987 -0.014686 -0.994365 -0.00311463 -0.0273902 -0.99962 -0.0649851 -0.0132498 -0.997798 
-0.0252275 0.0322726 -0.999161 -0.0538457 0.040561 -0.997725 -0.0572832 -0.0219844 -0.998116 
-0.0321006 0.0157488 -0.999361 -0.0642482 0.0922553 -0.99366 -0.0867746 0.102044 -0.990988 
-0.19903 0.0946406 -0.975413 -0.191081 0.0962426 -0.976845 0.432811 -0.221547 -0.873837 
0.403499 -0.243974 -0.881853 0.345354 -0.182722 -0.920512 0.177951 -0.0984483 -0.979102 
-0.00505801 -0.0573573 -0.998341 -0.0599447 -0.0304979 -0.997736 -0.0750256 -0.0331995 -0.996629 
-0.0481844 -0.0696832 -0.996405 0.0191031 -0.0123427 -0.999741 0.00974872 0.0022039 -0.99995 
-0.0517394 0.0349977 -0.998047 -0.108968 0.0209334 -0.993825 -0.261 -0.0326081 -0.964788 
-0.262229 -0.115379 -0.958083 -0.230331 -0.022929 -0.972842 0.376487 -0.259521 -0.889329 
0.27334 -0.300692 -0.913712 0.224205 -0.221472 -0.949043 0.06326 -0.150781 -0.986541 
-0.037824 -0.0964275 -0.994621 -0.063629 -0.0305148 -0.997507 -0.0330164 -0.00731496 -0.999428 
0.0140815 -0.025514 -0.999575 0.0151646 -0.0733997 -0.997187 -0.0445531 -0.0978577 -0.994203 
-0.256346 -0.157888 -0.953603 -0.173507 -0.25837 -0.950337 -0.142919 -0.118285 -0.982641 
0.261628 -0.304234 -0.915966 0.158197 -0.3602 -0.919364 0.125287 -0.256933 -0.958274 
0.129796 -0.355991 -0.925432 0.0629346 -0.18733 -0.980279 0.0144478 -0.0831268 -0.996434 
-0.0436599 -0.0460458 -0.997985 -0.0464883 -0.0922278 -0.994652 -0.111542 -0.312713 -0.943276 
-0.0620678 -0.173487 -0.982878 -0.158492 -0.271524 -0.949292 -0.11548 -0.291744 -0.9495 
-0.101017 -0.240704 -0.965327 0.126781 -0.372969 -0.919141 0.0967588 -0.407122 -0.908234 
0.091673 -0.347649 -0.933133 -0.0254319 -0.400999 -0.915725 -0.0318216 -0.293224 -0.955514 
-0.133389 -0.335165 -0.932669 -0.131472 -0.340139 -0.931139 -0.129099 -0.314045 -0.94059 

