# vtk DataFile Version 4.2
vtk output
ASCII
DATASET POLYDATA
POINTS 540 float
-10.3397 -48.3495 -11.5317 -2.52723 -48.3495 -13.97 5.2852 -48.3495 -14.4118 
13.0976 -48.3495 -11.6608 -18.1521 -40.537 -13.1549 -10.3397 -40.537 -14.9992 
-2.52723 -40.537 -17.4816 5.2852 -40.537 -17.263 13.0976 -40.537 -16.6971 
20.9101 -40.537 -12.734 -33.777 -32.7246 -11.8704 -25.9645 -32.7246 -13.9506 
-18.1521 -32.7246 -15.5058 -10.3397 -32.7246 -16.0001 -2.52723 -32.7246 -17.5189 
5.2852 -32.7246 -18.6295 13.0976 -32.7246 -17.9382 20.9101 -32.7246 -15.9336 
28.7225 -32.7246 -12.3915 -33.777 -24.9122 -13.9172 -25.9645 -24.9122 -15.8094 
-18.1521 -24.9122 -15.9467 -10.3397 -24.9122 -15.5862 -2.52723 -24.9122 -16.2479 
5.2852 -24.9122 -17.4047 13.0976 -24.9122 -17.4927 20.9101 -24.9122 -16.9348 
28.7225 -24.9122 -15.7291 36.5349 -24.9122 -12.0734 -41.5894 -17.0997 -11.8376 
-33.777 -17.0997 -14.5523 -25.9645 -17.0997 -15.049 -18.1521 -17.0997 -15.1158 
-10.3397 -17.0997 -14.1333 -2.52723 -17.0997 -14.4666 5.2852 -17.0997 -15.8085 
13.0976 -17.0997 -16.478 20.9101 -17.0997 -16.3371 28.7225 -17.0997 -16.0582 
36.5349 -17.0997 -14.7907 -41.5894 -9.28728 -12.973 -33.777 -9.28728 -14.4929 
-25.9645 -9.28728 -14.3039 -18.1521 -9.28728 -13.6584 -10.3397 -9.28728 -12.6588 
-2.52723 -9.28728 -14.7999 5.2852 -9.28728 -17.5737 13.0976 -9.28728 -15.9483 
20.9101 -9.28728 -15.8577 28.7225 -9.28728 -17.016 36.5349 -9.28728 -16.1188 
44.3474 -9.28728 -14.0373 -41.5894 -1.47485 -13.7172 -33.777 -1.47485 -14.9535 
-25.9645 -1.47485 -14.4705 -18.1521 -1.47485 -12.7851 -10.3397 -1.47485 -12.9617 
-2.52723 -1.47485 -13.1482 5.2852 -1.47485 -15.8471 13.0976 -1.47485 -17.8513 
20.9101 -1.47485 -16.3801 28.7225 -1.47485 -16.8081 36.5349 -1.47485 -16.6679 
44.3474 -1.47485 -15.1044 -41.5894 6.33759 -13.6404 -33.777 6.33759 -15.0196 
-25.9645 6.33759 -14.9513 -18.1521 6.33759 -14.3636 -10.3397 6.33759 -15.5494 
-2.52723 6.33759 -15.9385 5.2852 6.33759 -17.5873 13.0976 6.33759 -16.7216 
20.9101 6.33759 -16.1194 28.7225 6.33759 -16.7758 36.5349 6.33759 -16.8559 
44.3474 6.33759 -15.5279 52.1598 6.33759 -12.0986 -41.5894 14.15 -14.054 
-33.777 14.15 -15.5061 -25.9645 14.15 -15.1952 -18.1521 14.15 -14.7011 
-10.3397 14.15 -14.3919 -2.52723 14.15 -16.6575 5.2852 14.15 -17.3576 
13.0976 14.15 -15.5725 20.9101 14.15 -16.0512 28.7225 14.15 -16.7874 
36.5349 14.15 -17.2911 44.3474 14.15 -15.5729 -41.5894 21.9625 -12.7584 
-33.777 21.9625 -14.3264 -25.9645 21.9625 -15.0515 -18.1521 21.9625 -15.6635 
-10.3397 21.9625 -15.3775 -2.52723 21.9625 -15.1694 5.2852 21.9625 -15.3084 
13.0976 21.9625 -15.7083 20.9101 21.9625 -16.3383 28.7225 21.9625 -16.1526 
36.5349 21.9625 -15.6693 44.3474 21.9625 -14.1958 -33.777 29.7749 -13.5744 
-25.9645 29.7749 -15.0947 -18.1521 29.7749 -15.6277 -10.3397 29.7749 -15.6999 
-2.52723 29.7749 -15.4479 5.2852 29.7749 -15.3982 13.0976 29.7749 -15.5744 
20.9101 29.7749 -15.9774 28.7225 29.7749 -15.25 36.5349 29.7749 -14.052 
44.3474 29.7749 -12.3913 -25.9645 37.5873 -13.3409 -18.1521 37.5873 -14.4025 
-10.3397 37.5873 -14.9759 -2.52723 37.5873 -14.8966 5.2852 37.5873 -14.6915 
13.0976 37.5873 -14.4894 20.9101 37.5873 -13.7619 28.7225 37.5873 -13.4063 
36.5349 37.5873 -11.6454 -10.3397 45.3998 -11.5745 -2.52723 45.3998 -11.5405 
-10.3397 -48.5238 -11.3927 -2.52723 -52.073 -11.3927 5.2852 -52.3345 -11.3927 
13.0976 -48.6405 -11.3927 -10.7597 -48.3495 -11.3927 -18.1521 -44.3248 -11.3927 
-18.1521 -48.3495 -6.54988 13.5086 -48.3495 -11.3927 20.9101 -42.207 -11.3927 
-33.777 -33.4158 -11.3927 -23.2755 -40.537 -11.3927 -25.9645 -38.4158 -11.3927 
-25.9645 -40.537 -9.92225 22.5444 -40.537 -11.3927 28.7225 -34.1869 -11.3927 
-34.6169 -32.7246 -11.3927 -41.5894 -32.7246 -3.85371 30.0527 -32.7246 -11.3927 
36.5349 -25.9142 -11.3927 -39.2689 -24.9122 -11.3927 -41.5894 -19.2376 -11.3927 
-41.5894 -24.9122 -10.0082 37.6809 -24.9122 -11.3927 -42.3792 -17.0997 -11.3927 
-49.4018 -17.0997 -4.96961 43.9216 -17.0997 -11.3927 44.3474 -16.5908 -11.3927 
44.3474 -17.0997 -11.0477 -45.7348 -9.28728 -11.3927 -49.4018 -9.28728 -8.64774 
48.9828 -9.28728 -11.3927 52.1598 -9.28728 -7.34682 -46.3461 -1.47485 -11.3927 
-49.4018 -1.47485 -9.28493 51.2393 -1.47485 -11.3927 52.1598 2.07979 -11.3927 
52.1598 -1.47485 -10.6588 -47.1939 6.33759 -11.3927 -49.4018 6.33759 -10.3411 
53.0611 6.33759 -11.3927 52.1598 12.0542 -11.3927 -47.211 14.15 -11.3927 
-49.4018 14.15 -10.0648 51.8277 14.15 -11.3927 52.1598 14.15 -11.0968 
-45.714 21.9625 -11.3927 -49.4018 21.9625 -9.73609 -41.5894 26.0535 -11.3927 
49.7743 21.9625 -11.3927 52.1598 21.9625 -9.38807 -49.4018 29.7749 -5.31002 
-39.1164 29.7749 -11.3927 -41.5894 29.7749 -10.1861 -33.777 36.301 -11.3927 
45.8857 29.7749 -11.3927 44.3474 31.3157 -11.3927 -41.5894 37.5873 -5.9527 
-32.3089 37.5873 -11.3927 -33.777 37.5873 -10.8411 -25.9645 42.8278 -11.3927 
-18.1521 44.1167 -11.3927 5.2852 45.2521 -11.3927 13.0976 44.3675 -11.3927 
20.9101 41.8799 -11.3927 28.7225 40.2682 -11.3927 36.9751 37.5873 -11.3927 
36.5349 37.8867 -11.3927 -25.9645 45.3998 -8.33383 -11.8109 45.3998 -11.3927 
-18.1521 45.3998 -10.2271 -10.3397 45.5842 -11.3927 2.43194 45.3998 -11.3927 
-2.52723 45.5496 -11.3927 5.2852 45.3998 -11.2866 13.0976 45.3998 -10.4819 
20.9101 45.3998 -7.35306 -18.1521 -49.701 -3.58022 -10.3397 -54.12 -3.58022 
-2.52723 -56.128 -3.58022 5.2852 -55.4529 -3.58022 13.0976 -51.837 -3.58022 
-20.2587 -48.3495 -3.58022 -25.9645 -44.927 -3.58022 17.4645 -48.3495 -3.58022 
20.9101 -45.2523 -3.58022 -41.5894 -32.8718 -3.58022 -32.1975 -40.537 -3.58022 
-33.777 -39.3636 -3.58022 25.2397 -40.537 -3.58022 28.7225 -37.1102 -3.58022 
-41.7225 -32.7246 -3.58022 -41.5894 -32.7246 -2.9401 33.2932 -32.7246 -3.58022 
36.5349 -29.875 -3.58022 -47.0315 -24.9122 -3.58022 -49.4018 -19.1605 -3.58022 
42.6193 -24.9122 -3.58022 44.3474 -23.1309 -3.58022 -50.1896 -17.0997 -3.58022 
49.2047 -17.0997 -3.58022 52.1598 -12.4914 -3.58022 -52.5602 -9.28728 -3.58022 
53.9574 -9.28728 -3.58022 -54.7397 -1.47485 -3.58022 56.8798 -1.47485 -3.58022 
-56.3209 6.33759 -3.58022 58.6446 6.33759 -3.58022 -56.534 14.15 -3.58022 
-57.2143 14.15 0.977837 57.6056 14.15 -3.58022 -54.5689 21.9625 -3.58022 
55.3138 21.9625 -3.58022 52.1598 27.9202 -3.58022 -50.8529 29.7749 -3.58022 
-49.4018 31.8115 -3.58022 50.8898 29.7749 -3.58022 44.3474 36.0725 -3.58022 
-43.9244 37.5873 -3.58022 -41.5894 39.5195 -3.58022 -33.777 44.1027 -3.58022 
28.7225 44.3598 -3.58022 42.1842 37.5873 -3.58022 36.5349 40.8598 -3.58022 
-30.3167 45.3998 -3.58022 -25.9645 46.9244 -3.58022 -25.9645 45.3998 0.725389 
-18.1521 48.6226 -3.58022 -10.3397 49.2879 -3.58022 -2.52723 49.6775 -3.58022 
5.2852 49.6313 -3.58022 13.0976 48.7283 -3.58022 13.0976 45.3998 3.92145 
25.8249 45.3998 -3.58022 20.9101 47.1022 -3.58022 20.9101 45.3998 0.399935 
-18.1521 -48.7154 4.23222 -10.3397 -52.6885 4.23222 -2.52723 -54.8836 4.23222 
5.2852 -53.9583 4.23222 13.0976 -50.36 4.23222 -18.6987 -48.3495 4.23222 
-25.9645 -43.0069 4.23222 -18.1521 -48.3495 4.81781 -10.3397 -48.3495 9.33483 
15.5225 -48.3495 4.23222 13.0976 -48.3495 7.85588 20.9101 -43.2038 4.23222 
-29.6595 -40.537 4.23222 -33.777 -37.5151 4.23222 -25.9645 -40.537 6.84947 
-18.1521 -40.537 11.5342 23.3845 -40.537 4.23222 20.9101 -40.537 8.46474 
28.7225 -34.8815 4.23222 -39.4527 -32.7246 4.23222 -41.5894 -30.3573 4.23222 
-33.777 -32.7246 8.65428 30.8966 -32.7246 4.23222 28.7225 -32.7246 7.73272 
36.5349 -27.749 4.23222 -45.4353 -24.9122 4.23222 -49.4018 -18.3403 4.23222 
-41.5894 -24.9122 8.14103 40.4004 -24.9122 4.23222 36.5349 -24.9122 8.8146 
44.3474 -21.271 4.23222 -49.9795 -17.0997 4.23222 -49.4018 -17.0997 5.18838 
48.0963 -17.0997 4.23222 44.3474 -17.0997 9.18243 52.1598 -11.1784 4.23222 
-52.7871 -9.28728 4.23222 -49.4018 -9.28728 8.82283 53.1286 -9.28728 4.23222 
52.1598 -9.28728 6.02776 -55.2672 -1.47485 4.23222 -49.4018 -1.47485 11.6122 
55.9225 -1.47485 4.23222 52.1598 -1.47485 9.93999 -57.1815 6.33759 4.23222 
-57.2143 6.89525 4.23222 57.5985 6.33759 4.23222 52.1598 6.33759 11.1477 
-57.5884 14.15 4.23222 -57.2143 16.481 4.23222 -57.2143 14.15 5.02945 
56.4564 14.15 4.23222 52.1598 14.15 9.70929 -56.1296 21.9625 4.23222 
-49.4018 21.9625 11.8619 54.2929 21.9625 4.23222 52.1598 25.6014 4.23222 
52.1598 21.9625 7.27514 -51.8541 29.7749 4.23222 -49.4018 32.7046 4.23222 
-49.4018 29.7749 8.04381 -41.5894 29.7749 11.747 49.0391 29.7749 4.23222 
44.3474 34.3988 4.23222 44.3474 29.7749 9.09404 -43.629 37.5873 4.23222 
-41.5894 39.1288 4.23222 -41.5894 37.5873 6.23196 -33.777 41.5449 4.23222 
-33.777 37.5873 8.97537 -25.9645 43.8195 4.23222 -25.9645 37.5873 9.77362 
-18.1521 37.5873 9.70951 -10.3397 37.5873 9.76791 -2.52723 37.5873 9.91887 
5.2852 37.5873 9.74726 13.0976 45.1681 4.23222 13.0976 37.5873 9.28601 
20.9101 43.0178 4.23222 20.9101 37.5873 8.79975 28.7225 40.5412 4.23222 
28.7225 37.5873 7.56957 38.806 37.5873 4.23222 36.5349 38.6536 4.23222 
36.5349 37.5873 5.57328 -19.3471 45.3998 4.23222 -18.1521 45.6416 4.23222 
-18.1521 45.3998 4.5012 -10.3397 45.859 4.23222 -10.3397 45.3998 4.72755 
-2.52723 46.2853 4.23222 -2.52723 45.3998 5.18161 11.5185 45.3998 4.23222 
5.2852 46.0034 4.23222 5.2852 45.3998 4.86697 -2.52723 -48.5061 12.0447 
5.2852 -48.4321 12.0447 -2.95182 -48.3495 12.0447 -10.3397 -44.687 12.0447 
-2.52723 -48.3495 12.17 5.53654 -48.3495 12.0447 5.2852 -48.3495 12.1163 
13.0976 -45.3727 12.0447 -25.9645 -33.8994 12.0447 -16.9387 -40.537 12.0447 
-18.1521 -39.4882 12.0447 -10.3397 -40.537 14.4163 -2.52723 -40.537 16.8323 
5.2852 -40.537 17.0634 18.242 -40.537 12.0447 13.0976 -40.537 15.7822 
20.9101 -38.1883 12.0447 -27.5737 -32.7246 12.0447 -33.777 -27.5241 12.0447 
-25.9645 -32.7246 12.7112 -18.1521 -32.7246 14.8159 -10.3397 -32.7246 16.6358 
-2.52723 -32.7246 18.2508 5.2852 -32.7246 19.2775 13.0976 -32.7246 19.7555 
26.0665 -32.7246 12.0447 20.9101 -32.7246 16.5188 28.7225 -29.9364 12.0447 
-36.184 -24.9122 12.0447 -41.5894 -18.0363 12.0447 -33.777 -24.9122 13.3347 
[...]
POINT_DATA 540
SCALARS ImageScalars float
LOOKUP_TABLE default
0 0 0 0 0 0 0 0 0 
0 0 0 0 0 0 0 0 0 
0 0 0 0 0 0 0 0 0 
0 0 0 0 0 0 0 0 0 
0 0 0 0 0 0 0 0 0 
0 0 0 0 0 0 0 0 0 
0 0 0 0 0 0 0 0 0 
0 0 0 0 0 0 0 0 0 
0 0 0 0 0 0 0 0 0 
0 0 0 0 0 0 0 0 0 
0 0 0 0 0 0 0 0 0 
0 0 0 0 0 0 0 0 0 
0 0 0 0 0 0 0 0 0 
0 0 0 0 0 0 0 0 0 
0 0 0 0 0 0 0 0 0 
0 0 0 0 0 0 0 0 0 
0 0 0 0 0 0 0 0 0 
0 0 0 0 0 0 0 0 0 
0 0 0 0 0 0 0 0 0 
0 0 0 0 0 0 0 0 0 
0 0 0 0 0 0 0 0 0 
0 0 0 0 0 0 0 0 0 
0 0 0 0 0 0 0 0 0 
0 0 0 0 0 0 0 0 0 
0 0 0 0 0 0 0 0 0 
0 0 0 0 0 0 0 0 0 
0 0 0 0 0 0 0 0 0 
0 0 0 0 0 0 0 0 0 
0 0 0 0 0 0 0 0 0 
0 0 0 0 0 0 0 0 0 
0 0 0 0 0 0 0 0 0 
0 0 0 0 0 0 0 0 0 
0 0 0 0 0 0 0 0 0 
0 0 0 0 0 0 0 0 0 
0 0 0 0 0 0 0 0 0 
0 0 0 0 0 0 0 0 0 
0 0 0 0 0 0 0 0 0 
0 0 0 0 0 0 0 0 0 
0 0 0 0 0 0 0 0 0 
0 0 0 0 0 0 0 0 0 
0 0 0 0 0 0 0 0 0 
0 0 0 0 0 0 0 0 0 
0 0 0 0 0 0 0 0 0 
0 0 0 0 0 0 0 0 0 
0 0 0 0 0 0 0 0 0 
0 0 0 0 0 0 0 0 0 
0 0 0 0 0 0 0 0 0 
0 0 0 0 0 0 0 0 0 
0 0 0 0 0 0 0 0 0 
0 0 0 0 0 0 0 0 0 
0 0 0 0 0 0 0 0 0 
0 0 0 0 0 0 0 0 0 
0 0 0 0 0 0 0 0 0 
0 0 0 0 0 0 0 0 0 
0 0 0 0 0 0 0 0 0 
0 0 0 0 0 0 0 0 0 
0 0 0 0 0 0 0 0 0 
0 0 0 0 0 0 0 0 0 
0 0 0 0 0 0 0 0 0 
0 0 0 0 0 0 0 0 0 

NORMALS Normals float
0.302199 0.553683 0.775958 0.141767 0.504087 0.851938 -0.109033 0.536192 0.837024 
-0.439677 0.680855 0.585765 0.25744 0.360591 0.896492 0.26083 0.231017 0.937336 
0.127736 0.210734 0.969162 -0.0420195 0.241719 0.969436 -0.244216 0.347678 0.905251 
-0.568204 0.53957 0.621296 0.385891 0.433293 0.81446 0.195444 0.31094 0.930117 
0.125038 0.173751 0.976819 0.125132 0.0320695 0.991622 0.165514 -0.0742445 0.983409 
0.0276574 0.0204671 0.999408 -0.169089 0.0401798 0.984782 -0.329502 0.217487 0.918764 
-0.563427 0.493498 0.662578 0.325682 0.13714 0.93548 0.117439 0.0600749 0.991261 
-0.013605 -0.0267715 0.999549 0.0169173 -0.117836 0.992889 0.111831 -0.189476 0.975496 
0.0769667 -0.182233 0.980238 -0.0288215 -0.0902719 0.9955 -0.105245 0.0244592 0.994145 
-0.294995 0.20991 0.932157 -0.492563 0.475281 0.729033 0.425412 0.170631 0.888769 
0.181903 0.034863 0.982698 0.0348718 -0.100632 0.994312 -0.0576678 -0.144524 0.987819 
-0.0425488 -0.177301 0.983236 0.111956 -0.0997846 0.98869 0.125421 -0.0109332 0.992043 
0.0340579 -0.0985166 0.994552 -0.0262419 -0.067493 0.997375 -0.0913797 0.0792839 0.992655 
-0.260106 0.250062 0.932638 0.28587 0.11255 0.951636 0.0916379 0.0257035 0.995461 
-0.0524249 -0.0368505 0.997945 -0.100462 -0.147868 0.983892 0.0191399 -0.0895473 0.995799 
0.309511 -0.058439 0.949098 0.00537582 0.046977 0.998882 -0.0875438 0.0805089 0.992902 
0.0682637 0.00280935 0.997663 0.0167871 0.0457846 0.99881 -0.180965 0.109807 0.97734 
-0.387182 0.203242 0.899324 0.296618 0.0434681 0.954006 0.0557239 0.0330675 0.997898 
-0.131592 0.0418781 0.990419 -0.10426 0.0472529 0.993427 0.0232859 0.212097 0.976971 
0.18262 0.115924 0.976326 0.310981 0.00277469 0.950412 -0.0105613 0.0549711 0.998432 
-0.0569547 0.0172496 0.998228 0.0184671 -0.0151036 0.999715 -0.104028 0.0468745 0.993469 
-0.314312 0.0912255 0.944926 0.262345 0.0227902 0.964705 0.0793718 0.033763 0.996273 
-0.0418603 0.0463305 0.998049 0.0302087 0.114779 0.992932 0.103463 0.0363912 0.993967 
0.136296 0.19877 0.970523 0.0410078 0.0790141 0.99603 -0.0847932 -0.147937 0.985355 
0.0069677 -0.0213898 0.999747 0.0457278 -0.00132778 0.998953 -0.0755003 0.038172 0.996415 
-0.263575 0.0293489 0.964192 -0.559081 0.0163295 0.828952 0.297823 -0.0440027 0.953607 
0.0818384 -0.043183 0.99571 -0.0508283 0.00639109 0.998687 -0.0511556 0.0827037 0.99526 
0.0889292 -0.00325123 0.996033 0.210384 -0.0685093 0.975215 -0.0924908 -0.16275 0.982323 
-0.0684547 -0.0619164 0.995731 0.0773833 0.0140465 0.996902 0.0773504 -0.039719 0.996212 
-0.0895508 -0.0694255 0.99356 -0.314848 -0.063607 0.947008 0.276128 -0.247645 0.928669 
0.13406 -0.125491 0.982995 0.0838052 -0.00653599 0.996461 0.021144 0.0601452 0.997966 
-0.0314747 0.0832061 0.996035 -0.00452533 -0.0539213 0.998535 0.034496 -0.103705 0.99401 
0.0656453 0.000182484 0.997843 0.0285211 -0.00708321 0.999568 -0.0409305 -0.094593 0.994674 
-0.108424 -0.209435 0.971793 -0.332974 -0.22628 0.915383 0.271777 -0.183237 0.944755 
0.140502 -0.113099 0.983599 0.0370438 -0.0750781 0.996489 -0.0114534 -0.0221206 0.99969 
-0.0193316 -0.0137824 0.999718 0.00808769 -0.0357514 0.999328 0.0398053 -0.0724452 0.996578 
-0.0174729 -0.146863 0.989003 -0.132326 -0.145088 0.98053 -0.180344 -0.248357 0.951733 
-0.445659 -0.425638 0.78754 0.189075 -0.27832 0.941695 0.104047 -0.264216 0.958835 
0.0310335 -0.208429 0.977545 -0.0182433 -0.198777 0.979875 -0.0252846 -0.207042 0.978005 
-0.0574809 -0.246601 0.967411 -0.0614631 -0.392524 0.917686 -0.151312 -0.461684 0.874044 
-0.380609 -0.600946 0.702852 0.0523518 -0.673368 0.737451 -0.0144552 -0.652419 0.757721 
0.305184 0.562 0.768778 0.152002 0.68049 0.716818 -0.161556 0.745683 0.646419 
-0.44627 0.690486 0.569273 0.309586 0.562567 0.7666 0.348281 0.520748 0.779437 
0.508318 0.79324 0.335235 -0.456047 0.687084 0.565629 -0.600778 0.60407 0.523607 
0.401452 0.464986 0.789065 0.344598 0.507774 0.789568 0.333967 0.516885 0.788223 
0.422209 0.639324 0.642654 -0.613558 0.596011 0.517994 -0.611038 0.544432 0.574652 
0.420268 0.445843 0.790316 0.748568 0.650025 0.130817 -0.604518 0.540278 0.585369 
-0.523303 0.519791 0.675256 0.478427 0.210614 0.852496 0.456365 0.192236 0.868779 
0.600745 0.28263 0.747814 -0.52394 0.506022 0.685149 0.454268 0.186695 0.871083 
0.880981 0.314052 0.353898 -0.558593 0.426862 0.71117 -0.563073 0.422709 0.710117 
-0.586938 0.446855 0.675147 0.474422 0.126455 0.871168 0.740581 0.169165 0.650326 
-0.597661 0.280317 0.751148 -0.82632 0.389381 0.406911 0.472274 0.0369903 0.880675 
0.645817 0.0824987 0.759022 -0.615336 0.148141 0.77422 -0.612293 0.0933081 0.785105 
-0.680783 0.17314 0.711728 0.438519 0.0303344 0.89821 0.543147 0.0400072 0.838684 
-0.585966 0.0191431 0.81011 -0.634315 -0.0688183 0.770006 0.473767 -0.0267051 0.880245 
0.569627 -0.0285775 0.821406 -0.643963 -0.0988999 0.758637 -0.668216 -0.103976 0.736666 
0.404174 -0.233875 0.884277 0.567889 -0.227486 0.791045 0.352577 -0.28261 0.892088 
-0.54964 -0.26332 0.792817 -0.716991 -0.313526 0.622595 0.701792 -0.502959 0.5045 
0.381995 -0.266089 0.885029 0.450298 -0.323801 0.832097 0.339762 -0.407495 0.847649 
-0.513019 -0.443853 0.734715 -0.486986 -0.480024 0.729673 0.606372 -0.639601 0.472466 
0.321738 -0.416504 0.850299 0.365572 -0.471102 0.802758 0.258989 -0.569789 0.779914 
0.0846879 -0.617357 0.782111 -0.0415802 -0.643545 0.764278 -0.12482 -0.635391 0.762036 
-0.137117 -0.600609 0.787698 -0.212566 -0.620763 0.754632 -0.391627 -0.610725 0.688218 
-0.382959 -0.615766 0.688604 0.296399 -0.862843 0.409451 0.0576276 -0.679476 0.731431 
0.0995845 -0.760031 0.642211 0.0521457 -0.683946 0.727667 -0.0320689 -0.65302 0.756661 
-0.0143859 -0.660584 0.750614 -0.0426357 -0.658692 0.751203 -0.145247 -0.749971 0.645327 
-0.250007 -0.910285 0.329966 0.533321 0.835095 0.13485 0.379779 0.913555 0.145553 
0.0746887 0.991788 0.103819 -0.219781 0.973791 0.0585471 -0.549012 0.832951 0.0691236 
0.533935 0.83501 0.132935 0.532902 0.833681 0.144881 -0.638959 0.767955 0.044453 
-0.699273 0.714349 0.0268899 0.747016 0.655333 0.111831 0.585587 0.80186 0.118779 
0.599646 0.791649 0.117118 -0.714734 0.69916 0.0181862 -0.697294 0.716673 0.0126619 
0.750213 0.651558 0.112483 0.750529 0.656817 0.072788 -0.672147 0.739827 0.0295539 
-0.649377 0.758814 0.0501137 0.863117 0.465839 0.194996 0.903052 0.358088 0.237212 
-0.693999 0.71466 0.0873351 -0.727544 0.678102 0.104199 0.912461 0.318877 0.256384 
-0.801128 0.579208 0.150701 -0.854503 0.495609 0.155549 0.911826 0.279604 0.300659 
-0.888237 0.432233 0.155597 0.90242 0.221982 0.369271 -0.940414 0.281124 0.19129 
0.918876 0.100416 0.381555 -0.984096 0.0462937 0.171499 0.903341 -0.0908266 0.419196 
0.99563 -0.0727 0.0586136 -0.959297 -0.202573 0.196757 0.84633 -0.319917 0.425886 
-0.90414 -0.391581 0.170866 -0.811471 -0.566785 0.142368 0.778925 -0.497239 0.382138 
0.739787 -0.550161 0.387347 -0.773378 -0.620304 0.130802 -0.618947 -0.775319 0.12564 
0.654463 -0.694586 0.298711 0.61458 -0.737479 0.280028 0.408501 -0.903547 0.129344 
-0.361117 -0.931831 -0.0358654 -0.572792 -0.813722 0.0988234 -0.475375 -0.87908 0.0351712 
0.336028 -0.940384 0.0525619 0.272301 -0.962054 -0.0174401 0.238661 -0.919388 -0.312676 
0.153616 -0.988086 0.00939884 0.0681358 -0.997134 -0.032883 0.0232809 -0.999438 -0.0241345 
-0.0633487 -0.997711 -0.0236635 -0.165421 -0.985976 -0.0220523 -0.142596 -0.769432 -0.622608 
-0.329055 -0.943951 -0.0260627 -0.275325 -0.961323 -0.00730881 -0.261846 -0.916456 -0.302565 
0.509415 0.797045 -0.324368 0.350261 0.845594 -0.402851 0.0650372 0.927642 -0.367765 
-0.231702 0.906675 -0.352498 -0.532068 0.793721 -0.294807 0.51391 0.79342 -0.326161 
0.515152 0.738799 -0.434505 0.505745 0.785401 -0.356885 0.298284 0.679051 -0.670759 
-0.592953 0.752161 -0.287507 -0.498951 0.75398 -0.427274 -0.686184 0.66893 -0.285805 
0.519787 0.736412 -0.433034 0.551917 0.710394 -0.436723 0.469708 0.669744 -0.575167 
0.380331 0.418343 -0.824826 -0.696417 0.663428 -0.273618 -0.639793 0.651942 -0.406985 
-0.680466 0.671835 -0.292582 0.645831 0.624189 -0.439648 0.681215 0.590707 -0.432448 
0.48323 0.563598 -0.66996 -0.66265 0.685282 -0.302132 -0.656248 0.638467 -0.402118 
-0.595618 0.737014 -0.319453 0.753443 0.504433 -0.421747 0.860898 0.403411 -0.310022 
0.622342 0.465992 -0.628921 -0.614549 0.719736 -0.322971 -0.57396 0.669973 -0.470856 
-0.679606 0.659537 -0.321163 0.873239 0.384501 -0.299355 0.852537 0.382024 -0.356705 
-0.741998 0.597178 -0.30466 -0.655453 0.545975 -0.521816 -0.845492 0.449404 -0.28841 
0.901508 0.324336 -0.286514 0.765026 0.281348 -0.579291 -0.868231 0.401824 -0.291055 
-0.840195 0.39043 -0.376346 0.929701 0.267334 -0.253356 0.646726 0.224763 -0.728853 
-0.905374 0.260359 -0.335428 -0.765272 0.179307 -0.61823 0.970663 0.135543 -0.198599 
0.972707 0.121989 -0.197383 -0.927004 0.0353981 -0.373377 -0.674756 -0.0177506 -0.737827 
0.981599 -0.0564613 -0.182416 0.973232 -0.138136 -0.183678 0.969629 -0.0582992 -0.237532 
-0.897294 -0.199475 -0.393794 -0.737631 -0.164316 -0.654905 0.922356 -0.334059 -0.194073 
0.575165 -0.236383 -0.78314 -0.845241 -0.388375 -0.367059 -0.781989 -0.499365 -0.372998 
-0.753929 -0.371308 -0.541962 0.77942 -0.588127 -0.215896 0.699647 -0.672578 -0.241106 
0.64387 -0.565913 -0.514951 0.312759 -0.515206 -0.797963 -0.678539 -0.621993 -0.390781 
-0.547856 -0.736768 -0.396267 -0.498999 -0.561759 -0.659869 0.516155 -0.789251 -0.332665 
0.456523 -0.815896 -0.354824 0.438392 -0.755384 -0.48704 0.255726 -0.823995 -0.505605 
0.16253 -0.715584 -0.679355 0.180902 -0.802532 -0.568521 0.0279757 -0.579619 -0.814407 
-0.000177756 -0.512351 -0.858776 0.0119847 -0.489013 -0.872194 -0.0012771 -0.491165 -0.871066 
-0.0359768 -0.490932 -0.870455 -0.138646 -0.748745 -0.648197 -0.0516723 -0.530316 -0.846224 
-0.199753 -0.756693 -0.622507 -0.0794072 -0.614309 -0.78506 -0.218418 -0.786405 -0.577807 
-0.156915 -0.733623 -0.661192 -0.374627 -0.806264 -0.457814 -0.316829 -0.809993 -0.493488 
-0.291944 -0.787024 -0.543472 0.121294 -0.787907 -0.603731 0.108232 -0.785167 -0.609753 
0.106238 -0.771717 -0.62703 0.0387422 -0.768633 -0.638516 0.0377321 -0.744035 -0.667075 
0.00858558 -0.774542 -0.632464 0.00728317 -0.722052 -0.6918 -0.124286 -0.751589 -0.647817 
-0.0609666 -0.756899 -0.650681 -0.0605288 -0.724882 -0.686208 0.123256 0.611164 -0.781848 
-0.123297 0.67214 -0.730086 0.130988 0.607648 -0.78333 0.2762 0.509043 -0.815223 
0.123294 0.606279 -0.785636 -0.132736 0.673146 -0.7275 -0.121912 0.66959 -0.732657 
-0.424531 0.66533 -0.614092 0.32075 0.442471 -0.83746 0.359011 0.399902 -0.84332 
0.354311 0.386667 -0.851441 0.297091 0.367188 -0.881425 0.150201 0.347077 -0.925731 
-0.0494983 0.398337 -0.915902 -0.533197 0.627933 -0.566923 -0.322188 0.527707 -0.785952 
-0.579989 0.614678 -0.534587 0.329395 0.439893 -0.83546 0.394252 0.41529 -0.819817 
0.30092 0.412432 -0.859853 0.238072 0.281543 -0.929546 0.214934 0.161789 -0.963134 
0.159385 0.0947373 -0.98266 0.0952574 0.166015 -0.981512 -0.127514 0.218009 -0.967581 
-0.608333 0.580338 -0.541423 -0.487965 0.445056 -0.750877 -0.603188 0.581474 -0.545942 
0.431174 0.381631 -0.817586 0.471352 0.329994 -0.817882 0.358608 0.353473 -0.863978 
0.18781 0.275021 -0.942916 0.118518 0.165566 -0.979051 0.133485 0.0413376 -0.990188 
0.167424 -0.0198775 -0.985685 0.102815 -0.0290952 -0.994275 -0.207008 0.195722 -0.958562 
-0.564291 0.595039 -0.572279 -0.478754 0.468076 -0.742765 -0.556792 0.576 -0.598504 
0.480236 0.319811 -0.816758 0.457198 0.314994 -0.831714 0.278934 0.238576 -0.930203 
0.121373 0.217195 -0.968553 0.00637501 0.153842 -0.988075 0.0229914 0.0806512 -0.996477 
0.0981585 -0.00743979 -0.995143 0.124601 -0.090622 -0.98806 0.0853761 -0.0695966 -0.993915 
-0.22625 0.232338 -0.945955 -0.589206 0.497358 -0.636767 -0.461303 0.41227 -0.785642 
-0.607375 0.430113 -0.667905 0.566185 0.23442 -0.790242 0.420097 0.222981 -0.879658 
0.247529 0.188206 -0.950425 0.0983411 0.141621 -0.985024 -0.0216223 0.152378 -0.988086 
-0.0333249 0.122986 -0.991849 -0.00155722 -0.0195332 -0.999808 0.0420592 0.0881209 -0.995221 
0.106892 -0.0656294 -0.992102 -0.340505 0.15217 -0.927847 -0.643237 0.327515 -0.692084 
-0.550411 0.2947 -0.781153 0.614727 0.216143 -0.758547 0.62342 0.198084 -0.756379 
0.354506 0.156201 -0.921915 0.182553 0.104899 -0.977584 0.078453 0.0108972 -0.996858 
-0.146529 0.123335 -0.981488 0.06596 0.0205626 -0.99761 -0.0494456 -0.0148338 -0.998667 
0.0804332 -0.0576226 -0.995093 -0.239347 0.00589063 -0.970916 -0.658963 0.136949 -0.739603 
-0.456388 0.0882946 -0.885389 0.641417 0.116387 -0.758313 0.57296 0.103802 -0.812984 
0.272988 0.0318037 -0.961492 0.0926266 -0.0327676 -0.995162 0.02236 -0.0860524 -0.99604 
0.0886226 -0.118931 -0.98894 -0.139149 0.174107 -0.974846 0.00364116 -0.0842355 -0.996439 
0.0594611 0.0610071 -0.996365 0.0491753 0.0372769 -0.998094 -0.0360925 -0.0533979 -0.997921 
-0.204044 -0.0578344 -0.977252 -0.618962 -0.0195564 -0.785177 -0.407979 -0.0205486 -0.91276 
0.609915 -0.0817213 -0.788242 0.566283 -0.219414 -0.794469 0.520525 -0.0956534 -0.848472 
0.23094 -0.116199 -0.966004 0.0717653 -0.159152 -0.984642 -0.00527127 -0.15269 -0.98826 
0.124061 -0.194739 -0.972978 -0.0295129 -0.0284622 -0.999159 0.0730029 -0.0306381 -0.996861 
-0.125812 -0.0916171 -0.987815 -0.21618 -0.11982 -0.968973 -0.622428 -0.155672 -0.767039 
-0.429909 -0.170482 -0.886631 0.559032 -0.234604 -0.795264 0.306276 -0.493958 -0.813757 
0.251069 -0.239812 -0.937792 0.0631223 -0.248933 -0.966462 -0.0178145 -0.261957 -0.964915 
0.0456184 -0.270047 -0.961766 0.124602 -0.384772 -0.914563 0.0217455 -0.373059 -0.927553 
-0.00391031 -0.302505 -0.95314 0.0590781 -0.344934 -0.936766 -0.0104822 -0.292279 -0.956276 
-0.129356 -0.294656 -0.946808 -0.290832 -0.315148 -0.903382 -0.482058 -0.340873 -0.807109 
-0.440127 -0.398291 -0.804769 -0.433393 -0.340933 -0.834227 0.285643 -0.4998 -0.817685 
0.107279 -0.558198 -0.822743 0.0781693 -0.392975 -0.916221 -0.0361721 -0.45839 -0.888015 
-0.0416312 -0.386476 -0.921359 0.000873104 -0.433797 -0.90101 0.00488749 -0.386188 -0.922407 
0.0160238 -0.453978 -0.890869 0.0285528 -0.438916 -0.898074 -0.00148245 -0.47905 -0.877786 
0.00138881 -0.485798 -0.87407 -0.0182491 -0.471722 -0.881558 -0.0107363 -0.468844 -0.883216 
-0.000879585 -0.511715 -0.859155 0.0336534 -0.510428 -0.859262 -0.00425696 -0.581812 -0.813312 
0.0169505 -0.565 -0.824916 -0.0964921 -0.610377 -0.786212 -0.0972655 -0.527654 -0.843872 
-0.292042 -0.536509 -0.791751 -0.245121 -0.561311 -0.790472 -0.24345 -0.540671 -0.805237 
-0.104006 0.168203 -0.98025 0.0898709 -0.0257451 -0.995621 -0.0930046 0.0739664 -0.992914 
0.0832644 -0.0682161 -0.99419 -0.0279758 0.00625963 -0.999589 -0.104731 0.101363 -0.989321 
0.0830691 -0.0675416 -0.994252 -0.0973001 0.0999611 -0.990222 -0.0444565 0.0457459 -0.997963 
-0.157091 0.140589 -0.977526 -0.0100234 0.036055 -0.9993 0.0677083 0.0130574 -0.99762 
0.0971467 -0.0520262 -0.993909 0.0893335 -0.0513528 -0.994677 0.0947299 -0.0474509 -0.994371 
-0.181692 0.089232 -0.979299 -0.0959864 0.0589115 -0.993638 0.0007683 0.0265975 -0.999646 
-0.0212357 0.0371028 -0.999086 0.00155803 0.0125392 -0.99992 -0.00918218 0.0287611 -0.999544 
-0.0839468 0.0877263 -0.992601 0.0732817 -0.00183157 -0.99731 0.0399808 -0.00984765 -0.999152 
0.0586656 -0.0237867 -0.997994 0.0712598 -0.0084117 -0.997422 0.00768624 -0.0599756 -0.99817 
-0.0680128 -0.0485353 -0.996503 -0.0312372 -0.0575043 -0.997856 -0.0275078 -0.0614013 -0.997734 
0.0320412 -0.0353564 -0.998861 -0.0672956 0.0971199 -0.992995 -0.0299196 0.0571865 -0.997915 
-0.101376 0.0371454 -0.994155 -0.0210106 -0.0152942 -0.999662 0.144297 -0.18162 -0.972724 
0.146533 -0.20472 -0.96779 0.145774 -0.176976 -0.97336 -0.0676183 -0.0249908 -0.997398 
-0.0602381 -0.108421 -0.992278 -0.0851444 -0.0236755 -0.996087 0.0460955 -0.0296223 -0.998498 
-0.0538757 -0.0389328 -0.997788 -0.0336731 -0.0563597 -0.997843 -0.0365798 -0.0267565 -0.998972 

