# vtk DataFile Version 4.2
vtk output
ASCII
DATASET POLYDATA
POINTS 568 float
43.499 -13.9393 -20.7171 -45.5001 -5.84852 -20.2097 -37.4092 2.2423 -20.3474 
-45.5001 10.3331 -20.9384 -37.4092 10.3331 -20.4497 -21.2276 -38.2118 -12.2787 
-13.1368 -38.2118 -14.0031 -5.04596 -38.2118 -14.9518 3.04486 -38.2118 -15.1918 
11.1357 -38.2118 -14.7643 19.2265 -38.2118 -13.7583 -37.4092 -30.121 -13.7439 
-29.3184 -30.121 -15.2674 -21.2276 -30.121 -15.876 -13.1368 -30.121 -16.3531 
-5.04596 -30.121 -17.1076 3.04486 -30.121 -17.1567 11.1357 -30.121 -17.5876 
19.2265 -30.121 -16.8636 27.3173 -30.121 -17.4206 35.4081 -30.121 -16.4169 
43.499 -30.121 -14.7116 -53.5909 -22.0302 -12.663 -45.5001 -22.0302 -16.1426 
-37.4092 -22.0302 -18.0037 -29.3184 -22.0302 -17.3777 -21.2276 -22.0302 -17.0732 
-13.1368 -22.0302 -16.495 -5.04596 -22.0302 -16.6684 3.04486 -22.0302 -16.9887 
11.1357 -22.0302 -17.1614 19.2265 -22.0302 -17.7191 27.3173 -22.0302 -18.7774 
35.4081 -22.0302 -18.5885 43.499 -15.5294 -20.1958 43.499 -22.0302 -18.0642 
51.5898 -22.0302 -16.9706 59.6806 -22.0302 -13.2223 -61.6817 -13.9393 -12.5225 
-53.5909 -13.9393 -17.2241 -45.5001 -5.93615 -20.1958 -45.5001 -13.9393 -18.6827 
-37.4092 -13.9393 -19.0343 -29.3184 -13.9393 -18.3185 -21.2276 -13.9393 -17.2015 
-13.1368 -13.9393 -15.2936 -5.04596 -13.9393 -15.309 3.04486 -13.9393 -15.7395 
11.1357 -13.9393 -15.7145 19.2265 -13.9393 -17.0841 27.3173 -13.9393 -18.2491 
41.0505 -13.9393 -20.1958 35.4081 -13.9393 -19.0941 44.8055 -13.9393 -20.1958 
43.499 -12.0109 -20.1958 51.5898 -13.9393 -17.6573 59.6806 -13.9393 -15.5123 
-61.6817 -5.84852 -13.2798 -45.5488 -5.84852 -20.1958 -53.5909 -5.84852 -17.7913 
-45.132 -5.84852 -20.1958 -45.5001 -5.51576 -20.1958 -37.4092 -0.357241 -20.1958 
-37.4092 -5.84852 -19.8748 -29.3184 -5.84852 -18.8292 -21.2276 -5.84852 -16.9078 
-13.1368 -5.84852 -14.6604 -5.04596 -5.84852 -17.227 3.04486 -5.84852 -15.944 
11.1357 -5.84852 -16.4633 19.2265 -5.84852 -15.7423 27.3173 -5.84852 -17.0729 
35.4081 -5.84852 -18.4674 43.499 -5.84852 -18.6683 51.5898 -5.84852 -18.5442 
59.6806 -5.84852 -17.1103 67.7714 -5.84852 -13.2906 -61.6817 2.2423 -14.6062 
-53.5909 2.2423 -18.1044 -39.8263 2.2423 -20.1958 -45.5001 4.70209 -20.1958 
-45.5001 2.2423 -19.8692 -36.3611 2.2423 -20.1958 -29.3184 2.2423 -19.172 
-21.2276 2.2423 -17.326 -13.1368 2.2423 -16.186 -5.04596 2.2423 -17.3477 
3.04486 2.2423 -13.7882 11.1357 2.2423 -16.8769 19.2265 2.2423 -13.7657 
27.3173 2.2423 -15.7758 35.4081 2.2423 -17.369 43.499 2.2423 -18.7777 
51.5898 2.2423 -17.5788 59.6806 2.2423 -17.0394 67.7714 2.2423 -13.5587 
-61.6817 10.3331 -13.6402 -47.6992 10.3331 -20.1958 -53.5909 10.3331 -18.0968 
-45.5001 14.6253 -20.1958 -35.5864 10.3331 -20.1958 -37.4092 13.2618 -20.1958 
-29.3184 10.3331 -19.3195 -21.2276 10.3331 -17.3041 -13.1368 10.3331 -14.323 
-5.04596 10.3331 -13.7789 3.04486 10.3331 -14.9158 11.1357 10.3331 -13.2549 
19.2265 10.3331 -14.689 27.3173 10.3331 -16.0345 35.4081 10.3331 -16.9698 
43.499 10.3331 -17.6477 51.5898 10.3331 -17.0131 59.6806 10.3331 -15.4294 
67.7714 10.3331 -12.7277 -61.6817 18.4239 -12.7516 -53.5909 18.4239 -16.7766 
-45.5001 18.4239 -19.4254 -37.4092 18.4239 -19.7377 -29.3184 18.4239 -18.8914 
-21.2276 18.4239 -16.8896 -13.1368 18.4239 -14.2749 -5.04596 18.4239 -12.7074 
3.04486 18.4239 -12.441 11.1357 18.4239 -12.4003 19.2265 18.4239 -14.8758 
27.3173 18.4239 -16.0375 35.4081 18.4239 -17.7211 43.499 18.4239 -16.7507 
51.5898 18.4239 -17.551 59.6806 18.4239 -13.136 -53.5909 26.5148 -14.6698 
-45.5001 26.5148 -16.8022 -37.4092 26.5148 -18.0614 -29.3184 26.5148 -16.7762 
-21.2276 26.5148 -14.784 -13.1368 26.5148 -12.912 19.2265 26.5148 -12.8678 
27.3173 26.5148 -14.7735 35.4081 26.5148 -15.2953 43.499 26.5148 -17.0191 
51.5898 26.5148 -13.7002 -37.4092 34.6056 -12.7069 -21.2276 -38.4172 -12.1049 
-13.1368 -40.4666 -12.1049 -5.04596 -42.0457 -12.1049 3.04486 -42.4467 -12.1049 
3.04486 -46.3026 -4.64465 11.1357 -41.3803 -12.1049 19.2265 -40.0239 -12.1049 
-37.4092 -32.3154 -12.1049 -21.7828 -38.2118 -12.1049 -29.3184 -34.7923 -12.1049 
-29.3184 -38.2118 -7.58411 24.9263 -38.2118 -12.1049 27.3173 -37.2512 -12.1049 
27.3173 -38.2118 -10.3933 35.4081 -34.9761 -12.1049 43.499 -32.6262 -12.1049 
-53.5909 -22.7224 -12.1049 -42.2311 -30.121 -12.1049 -45.5001 -28.4924 -12.1049 
-45.5001 -30.121 -9.73543 50.5835 -30.121 -12.1049 51.5898 -29.6437 -12.1049 
51.5898 -30.121 -10.7216 59.6806 -23.4511 -12.1049 -54.3337 -22.0302 -12.1049 
-61.6817 -14.5992 -12.1049 61.0966 -22.0302 -12.1049 -62.1042 -13.9393 -12.1049 
65.6762 -13.9393 -12.1049 67.7714 -10.4388 -12.1049 67.7714 -13.9393 -9.6088 
-63.0553 -5.84852 -12.1049 69.2443 -5.84852 -12.1049 -64.5958 2.2423 -12.1049 
-69.7725 2.2423 -5.20471 69.6601 2.2423 -12.1049 -63.4711 10.3331 -12.1049 
68.2957 10.3331 -12.1049 67.7714 11.4649 -12.1049 -62.3916 18.4239 -12.1049 
-61.6817 19.6241 -12.1049 -5.04596 21.3057 -12.1049 3.04486 19.6086 -12.1049 
11.1357 19.9515 -12.1049 61.878 18.4239 -12.1049 59.6806 23.6876 -12.1049 
67.7714 18.4239 -8.20073 -56.8627 26.5148 -12.1049 -61.6817 26.5148 -5.38138 
-53.5909 29.5717 -12.1049 -45.5001 33.561 -12.1049 -29.3184 34.2132 -12.1049 
-21.2276 32.0218 -12.1049 -9.63183 26.5148 -12.1049 -13.1368 28.0683 -12.1049 
-5.04596 26.5148 -10.8674 3.04486 26.5148 -9.98676 16.3023 26.5148 -12.1049 
11.1357 26.5148 -10.7692 19.2265 28.1815 -12.1049 27.3173 33.2427 -12.1049 
35.4081 33.2538 -12.1049 43.499 32.8077 -12.1049 57.5879 26.5148 -12.1049 
51.5898 30.0349 -12.1049 59.6806 26.5148 -11.3001 -40.4157 34.6056 -12.1049 
-45.5001 34.6056 -10.2868 -32.259 34.6056 -12.1049 -37.4092 35.1392 -12.1049 
-29.3184 34.6056 -11.7059 -21.2276 34.6056 -9.83129 -13.1368 34.6056 -6.20868 
-5.04596 34.6056 -4.2028 3.04486 34.6056 -4.10167 11.1357 34.6056 -5.7166 
19.2265 34.6056 -8.60884 27.3173 34.6056 -11.2933 35.4081 34.6056 -11.3158 
43.499 34.6056 -10.6917 51.5898 34.6056 -8.78882 3.04486 -46.528 -4.01413 
-29.3184 -39.957 -4.01413 -21.2276 -42.7029 -4.01413 -13.1368 -44.7676 -4.01413 
-0.973412 -46.3026 -4.01413 -5.04596 -46.0793 -4.01413 4.57565 -46.3026 -4.01413 
3.04486 -46.3026 -2.37793 11.1357 -45.3554 -4.01413 19.2265 -43.2411 -4.01413 
27.3173 -40.6059 -4.01413 -45.5001 -32.7609 -4.01413 -34.0967 -38.2118 -4.01413 
-37.4092 -36.9774 -4.01413 34.7554 -38.2118 -4.01413 35.4081 -38.0006 -4.01413 
43.499 -35.3821 -4.01413 51.5898 -31.4156 -4.01413 -50.0494 -30.121 -4.01413 
-53.5909 -27.8241 -4.01413 53.9166 -30.121 -4.01413 51.5898 -30.121 -0.0815444 
59.6806 -26.38 -4.01413 -60.3087 -22.0302 -4.01413 -61.6817 -20.4464 -4.01413 
65.3295 -22.0302 -4.01413 67.7714 -18.7369 -4.01413 -66.4168 -13.9393 -4.01413 
70.1205 -13.9393 -4.01413 67.7714 -13.9393 1.55039 -68.9623 -5.84852 -4.01413 
-69.7725 -1.26779 -4.01413 73.4747 -5.84852 -4.01413 -70.3847 2.2423 -4.01413 
-69.7725 6.48402 -4.01413 73.996 2.2423 -4.01413 -69.1712 10.3331 -4.01413 
73.2565 10.3331 -4.01413 -66.4854 18.4239 -4.01413 70.4378 18.4239 -4.01413 
67.7714 23.4403 -4.01413 -62.4191 26.5148 -4.01413 -61.6817 27.3281 -4.01413 
-53.5909 33.5213 -4.01413 65.6187 26.5148 -4.01413 59.6806 33.247 -4.01413 
-51.4105 34.6056 -4.01413 -45.5001 37.018 -4.01413 -37.4092 39.1441 -4.01413 
-29.3184 38.9817 -4.01413 -21.2276 37.7195 -4.01413 -13.1368 36.0595 -4.01413 
-5.04596 34.7446 -4.01413 3.04486 34.6824 -4.01413 11.1357 36.225 -4.01413 
19.2265 39.0259 -4.01413 27.3173 39.8505 -4.01413 35.4081 41.0794 -4.01413 
43.499 39.9045 -4.01413 57.6235 34.6056 -4.01413 51.5898 37.3865 -4.01413 
-29.3184 -39.1363 4.07669 -21.2276 -41.8011 4.07669 -13.1368 -43.9192 4.07669 
-5.04596 -45.1021 4.07669 3.04486 -45.3382 4.07669 11.1357 -44.3674 4.07669 
19.2265 -41.9516 4.07669 27.3173 -39.1475 4.07669 -45.5001 -32.5319 4.07669 
-31.9465 -38.2118 4.07669 -37.4092 -36.0439 4.07669 -29.3184 -38.2118 5.81597 
-21.2276 -38.2118 10.3833 19.2265 -38.2118 9.22709 29.6426 -38.2118 4.07669 
27.3173 -38.2118 5.46206 35.4081 -35.4675 4.07669 43.499 -32.7329 4.07669 
-49.4359 -30.121 4.07669 -53.5909 -27.014 4.07669 -45.5001 -30.121 8.1476 
35.4081 -30.121 9.51793 48.7178 -30.121 4.07669 43.499 -30.121 7.12062 
51.5898 -28.0313 4.07669 59.6806 -22.5988 4.07669 -59.5262 -22.0302 4.07669 
-61.6817 -19.5985 4.07669 -53.5909 -22.0302 11.0452 43.499 -22.0302 11.6971 
51.5898 -22.0302 9.05044 60.3688 -22.0302 4.07669 59.6806 -22.0302 4.61021 
-65.8761 -13.9393 4.07669 -61.6817 -13.9393 10.7043 51.5898 -13.9393 11.9767 
66.0177 -13.9393 4.07669 59.6806 -13.9393 8.71117 67.7714 -11.7127 4.07669 
-68.6871 -5.84852 4.07669 -69.7725 -0.935862 4.07669 70.4872 -5.84852 4.07669 
67.7714 -5.84852 6.86928 -70.3768 2.2423 4.07669 -69.7725 6.42923 4.07669 
-69.7725 2.2423 5.26229 71.3641 2.2423 4.07669 67.7714 2.2423 7.59861 
-69.1634 10.3331 4.07669 71.041 10.3331 4.07669 67.7714 10.3331 7.38642 
-66.2672 18.4239 4.07669 59.6806 18.4239 10.4598 68.0347 18.4239 4.07669 
67.7714 18.9151 4.07669 67.7714 18.4239 4.3523 -62.1514 26.5148 4.07669 
-61.6817 27.0146 4.07669 -61.6817 26.5148 4.90817 -53.5909 32.9329 4.07669 
51.5898 26.5148 11.324 63.2109 26.5148 4.07669 59.6806 31.0991 4.07669 
59.6806 26.5148 7.39549 -50.2924 34.6056 4.07669 -45.5001 36.594 4.07669 
-45.5001 34.6056 9.26184 -37.4092 38.5976 4.07669 -29.3184 39.0811 4.07669 
-21.2276 38.6198 4.07669 -13.1368 37.8622 4.07669 -13.1368 34.6056 11.3062 
-5.04596 37.7574 4.07669 -5.04596 34.6056 10.7048 3.04486 38.5901 4.07669 
11.1357 39.6845 4.07669 19.2265 40.8839 4.07669 27.3173 41.4775 4.07669 
35.4081 41.3219 4.07669 43.499 39.4024 4.07669 43.499 34.6056 9.3629 
55.043 34.6056 4.07669 51.5898 36.4089 4.07669 51.5898 34.6056 6.44169 
-13.1368 -39.149 12.1675 -5.04596 -40.0067 12.1675 3.04486 -39.899 12.1675 
11.1357 -38.6286 12.1675 -37.4092 -30.6018 12.1675 -29.3184 -33.9474 12.1675 
-16.6999 -38.2118 12.1675 -21.2276 -36.7746 12.1675 -13.1368 -38.2118 13.0904 
-5.04596 -38.2118 13.7483 3.04486 -38.2118 13.6495 12.2318 -38.2118 12.1675 
11.1357 -38.2118 12.507 19.2265 -34.4568 12.1675 27.3173 -30.9216 12.1675 
[...]
POINT_DATA 568
SCALARS ImageScalars float
LOOKUP_TABLE default
0 0 0 0 0 0 0 0 0 
0 0 0 0 0 0 0 0 0 
0 0 0 0 0 0 0 0 0 
0 0 0 0 0 0 0 0 0 
0 0 0 0 0 0 0 0 0 
0 0 0 0 0 0 0 0 0 
0 0 0 0 0 0 0 0 0 
0 0 0 0 0 0 0 0 0 
0 0 0 0 0 0 0 0 0 
0 0 0 0 0 0 0 0 0 
0 0 0 0 0 0 0 0 0 
0 0 0 0 0 0 0 0 0 
0 0 0 0 0 0 0 0 0 
0 0 0 0 0 0 0 0 0 
0 0 0 0 0 0 0 0 0 
0 0 0 0 0 0 0 0 0 
0 0 0 0 0 0 0 0 0 
0 0 0 0 0 0 0 0 0 
0 0 0 0 0 0 0 0 0 
0 0 0 0 0 0 0 0 0 
0 0 0 0 0 0 0 0 0 
0 0 0 0 0 0 0 0 0 
0 0 0 0 0 0 0 0 0 
0 0 0 0 0 0 0 0 0 
0 0 0 0 0 0 0 0 0 
0 0 0 0 0 0 0 0 0 
0 0 0 0 0 0 0 0 0 
0 0 0 0 0 0 0 0 0 
0 0 0 0 0 0 0 0 0 
0 0 0 0 0 0 0 0 0 
0 0 0 0 0 0 0 0 0 
0 0 0 0 0 0 0 0 0 
0 0 0 0 0 0 0 0 0 
0 0 0 0 0 0 0 0 0 
0 0 0 0 0 0 0 0 0 
0 0 0 0 0 0 0 0 0 
0 0 0 0 0 0 0 0 0 
0 0 0 0 0 0 0 0 0 
0 0 0 0 0 0 0 0 0 
0 0 0 0 0 0 0 0 0 
0 0 0 0 0 0 0 0 0 
0 0 0 0 0 0 0 0 0 
0 0 0 0 0 0 0 0 0 
0 0 0 0 0 0 0 0 0 
0 0 0 0 0 0 0 0 0 
0 0 0 0 0 0 0 0 0 
0 0 0 0 0 0 0 0 0 
0 0 0 0 0 0 0 0 0 
0 0 0 0 0 0 0 0 0 
0 0 0 0 0 0 0 0 0 
0 0 0 0 0 0 0 0 0 
0 0 0 0 0 0 0 0 0 
0 0 0 0 0 0 0 0 0 
0 0 0 0 0 0 0 0 0 
0 0 0 0 0 0 0 0 0 
0 0 0 0 0 0 0 0 0 
0 0 0 0 0 0 0 0 0 
0 0 0 0 0 0 0 0 0 
0 0 0 0 0 0 0 0 0 
0 0 0 0 0 0 0 0 0 
0 0 0 0 0 0 0 0 0 
0 0 0 0 0 0 0 0 0 
0 0 0 0 0 0 0 0 0 
0 
NORMALS Normals float
0.0918614 -0.0257301 -0.995439 -0.132035 -0.0622495 -0.989289 0.0408664 -0.0353967 -0.998537 
-0.143522 0.0190594 -0.989464 0.102239 0.0364371 -0.994092 -0.237602 -0.634974 -0.735088 
-0.160179 -0.508964 -0.845753 -0.0656949 -0.464275 -0.883252 0.00785751 -0.441856 -0.897052 
0.0848937 -0.521831 -0.848814 0.1868 -0.616037 -0.765247 -0.221346 -0.565619 -0.794406 
-0.130148 -0.409403 -0.903023 -0.0608196 -0.266311 -0.961967 -0.0800542 -0.132128 -0.987995 
-0.0477339 -0.0963342 -0.994204 -0.0280778 -0.102953 -0.99429 0.0168895 -0.122088 -0.992376 
0.0138089 -0.223951 -0.974503 0.0230627 -0.381452 -0.924101 0.132588 -0.500342 -0.855616 
0.270769 -0.621116 -0.735458 -0.508212 -0.530509 -0.678441 -0.266416 -0.384657 -0.883777 
-0.0767189 -0.313897 -0.946352 0.0550852 -0.174593 -0.983099 0.0525516 -0.0818913 -0.995255 
0.0273113 0.0650446 -0.997509 -0.03041 0.107733 -0.993715 -0.0297381 0.0872455 -0.995743 
-0.0460152 0.116249 -0.992154 -0.0964129 -0.0113166 -0.995277 -0.0533007 -0.0383878 -0.99784 
0.0392085 -0.143688 -0.988846 0.0839605 -0.0760309 -0.993564 0.0941561 -0.2994 -0.94947 
0.276228 -0.304974 -0.911421 0.552132 -0.483166 -0.679486 -0.655107 -0.318438 -0.685151 
-0.355031 -0.259343 -0.898162 -0.131448 -0.0642184 -0.989241 -0.0916229 -0.249202 -0.964108 
0.0238529 -0.107971 -0.993868 0.111223 -0.0882591 -0.989869 0.188879 0.00953318 -0.981954 
0.115782 0.114534 -0.986649 -0.0283829 0.00169991 -0.999596 -0.0240765 0.0659111 -0.997535 
-0.083719 0.0464737 -0.995405 -0.157273 0.11715 -0.980582 -0.122937 0.102845 -0.987071 
0.0152968 -0.0209864 -0.999663 -0.142355 0.00365852 -0.989809 0.121254 -0.0335296 -0.992055 
0.0674372 0.00809637 -0.997691 0.269937 -0.0844027 -0.959172 0.412343 -0.221409 -0.883715 
-0.611488 -0.107618 -0.783901 -0.133196 -0.0620191 -0.989147 -0.342113 -0.0424543 -0.938699 
-0.122598 -0.0631833 -0.990443 -0.131743 -0.061668 -0.989364 0.0548676 -0.0498957 -0.997246 
0.0832493 -0.0804918 -0.993273 0.179348 -0.0518682 -0.982417 0.252903 -0.00789621 -0.967459 
0.0290849 -0.0426398 -0.998667 -0.104434 -0.157904 -0.981916 0.0321966 0.0751715 -0.996651 
0.0124919 -0.0649356 -0.997811 -0.0444525 0.205263 -0.977697 -0.161143 0.149916 -0.975478 
-0.0961248 0.104988 -0.989817 -0.00489048 0.108751 -0.994057 0.0816751 0.00549085 -0.996644 
0.358174 -0.0802544 -0.930199 0.571534 -0.138769 -0.80876 -0.549411 -0.0176122 -0.835367 
-0.292497 -0.0201432 -0.956054 -0.0101575 -0.0390556 -0.999185 -0.13073 -0.0263257 -0.991068 
-0.125241 -0.046788 -0.991023 0.0594235 -0.0346529 -0.997631 0.183517 -0.029776 -0.982565 
0.173809 -0.0243684 -0.984478 0.0196968 0.00977349 -0.999758 0.0966742 0.220607 -0.97056 
0.120357 0.0947295 -0.988201 0.109816 0.237942 -0.965051 -0.0486817 0.0564428 -0.997218 
-0.216275 0.0639028 -0.974239 -0.180585 0.0911813 -0.979324 -0.013243 0.0630492 -0.997923 
0.100781 0.0931689 -0.990537 0.308156 0.100658 -0.945996 0.54001 0.0137743 -0.841546 
-0.621015 0.0986579 -0.777565 -0.202833 0.035605 -0.978566 -0.369659 0.0727645 -0.926314 
-0.160423 0.143511 -0.97656 0.122773 0.0331633 -0.991881 0.0810896 0.0708133 -0.994188 
0.18832 0.0181997 -0.981939 0.279932 0.0255922 -0.959679 0.217438 0.104654 -0.970447 
-0.0363897 0.259935 -0.96494 0.0356354 0.119697 -0.992171 -0.00333486 0.155197 -0.987878 
-0.150068 -0.0677907 -0.986349 -0.150048 -0.0166782 -0.988538 -0.093511 -0.0231544 -0.995349 
-0.00272434 0.122692 -0.992441 0.119458 0.00664799 -0.992817 0.211063 0.213585 -0.953852 
0.603568 0.268577 -0.750714 -0.641395 0.286086 -0.711876 -0.376294 0.199715 -0.904719 
-0.172984 0.252618 -0.951977 0.0368658 0.135399 -0.990105 0.17153 0.150637 -0.973594 
0.282691 0.14331 -0.948445 0.257611 0.089821 -0.962065 0.109987 0.152693 -0.982134 
0.0183745 0.268539 -0.963094 -0.144447 0.136936 -0.979992 -0.227372 0.106052 -0.968016 
-0.17577 0.0711183 -0.981859 -0.0444159 0.0952979 -0.994457 0.0207516 0.0436846 -0.99883 
0.20834 0.190523 -0.95932 0.414549 0.213123 -0.884719 -0.473491 0.487851 -0.733354 
-0.182399 0.403508 -0.896611 0.000597589 0.32545 -0.945559 0.180261 0.356736 -0.916649 
0.238165 0.342892 -0.908682 0.219831 0.333012 -0.916939 -0.229868 0.327224 -0.916562 
-0.145307 0.274279 -0.950609 -0.109638 0.33743 -0.934944 0.072849 0.289428 -0.954424 
0.286879 0.400838 -0.870074 -0.0293952 0.723339 -0.689867 -0.240419 -0.645214 -0.725188 
-0.179319 -0.658502 -0.730904 -0.0927475 -0.686892 -0.720818 0.0301521 -0.689983 -0.723198 
0.0441704 -0.988563 -0.144195 0.124315 -0.70252 -0.700722 0.206546 -0.721153 -0.661269 
-0.268907 -0.651005 -0.709846 -0.241921 -0.646875 -0.723206 -0.229187 -0.639389 -0.733932 
-0.317099 -0.872822 -0.370985 0.243008 -0.734281 -0.63386 0.239985 -0.736491 -0.632446 
0.278886 -0.822888 -0.495054 0.204027 -0.799183 -0.565402 0.310505 -0.768347 -0.55967 
-0.518938 -0.550014 -0.65436 -0.328337 -0.673931 -0.661825 -0.370744 -0.674061 -0.638898 
-0.421429 -0.775179 -0.470633 0.402204 -0.751236 -0.523332 0.411395 -0.742296 -0.528915 
0.433349 -0.801285 -0.412494 0.586709 -0.535146 -0.607776 -0.531693 -0.537697 -0.654358 
-0.663438 -0.340832 -0.666096 0.60873 -0.509813 -0.607897 -0.671876 -0.323159 -0.666446 
0.598726 -0.336066 -0.72704 0.627194 -0.276757 -0.728034 0.770652 -0.419782 -0.479456 
-0.680335 -0.117183 -0.723472 0.648798 -0.150882 -0.745853 -0.70176 -0.0169566 -0.712211 
-0.952286 -0.0148119 -0.304846 0.646046 0.0400776 -0.762246 -0.702431 0.103528 -0.704183 
0.63547 0.288419 -0.716235 0.621257 0.312227 -0.718717 -0.674795 0.295114 -0.676431 
-0.663637 0.323504 -0.674486 0.131306 0.223862 -0.965735 0.0171685 0.283443 -0.958835 
-0.147971 0.169999 -0.974271 0.480155 0.257882 -0.83842 0.442459 0.301416 -0.844617 
0.781096 0.443545 -0.439496 -0.584417 0.518553 -0.624147 -0.737148 0.611326 -0.287912 
-0.499677 0.607246 -0.617718 -0.252401 0.75527 -0.604865 0.105394 0.707858 -0.698448 
0.216068 0.587764 -0.779646 0.195869 0.349409 -0.916269 0.227396 0.398629 -0.888474 
0.166013 0.39403 -0.90398 0.00120832 0.420204 -0.907429 -0.205181 0.330085 -0.921382 
-0.16201 0.339931 -0.926391 -0.24005 0.376346 -0.894841 -0.138198 0.538099 -0.831475 
0.0172482 0.535353 -0.844452 0.0806668 0.59582 -0.799057 0.402606 0.367369 -0.83842 
0.253248 0.490737 -0.833692 0.484765 0.391285 -0.78224 -0.119421 0.762031 -0.636433 
-0.284667 0.834956 -0.470971 0.0551079 0.727394 -0.684004 -0.0338015 0.745044 -0.666159 
0.103638 0.735448 -0.669609 0.20805 0.763442 -0.61145 0.209664 0.821224 -0.53069 
0.0792456 0.835421 -0.543867 -0.0749297 0.777435 -0.624485 -0.22338 0.708671 -0.669244 
-0.2553 0.627189 -0.735837 -0.136295 0.613616 -0.777753 0.0312371 0.601212 -0.798479 
0.095103 0.691801 -0.715798 0.313564 0.761349 -0.567473 0.0451731 -0.993169 -0.107582 
-0.337012 -0.927429 -0.162169 -0.293425 -0.944705 -0.146402 -0.20431 -0.968771 -0.140501 
-0.0313285 -0.993345 -0.110831 -0.107419 -0.987473 -0.115575 0.0733435 -0.991517 -0.107308 
0.0442167 -0.998629 -0.0280343 0.194642 -0.974469 -0.111912 0.28624 -0.95404 -0.088741 
0.304345 -0.949591 -0.0751762 -0.473126 -0.864568 -0.169333 -0.366755 -0.918617 -0.147082 
-0.393409 -0.908868 -0.138521 0.303461 -0.952198 -0.0350647 0.304542 -0.952032 -0.02982 
0.367587 -0.92965 0.0250912 0.453131 -0.88948 0.0591406 -0.534462 -0.83047 -0.157066 
-0.594224 -0.789938 -0.151312 0.498316 -0.864685 0.0632482 0.483651 -0.832649 0.269774 
0.613376 -0.787968 0.053622 -0.727785 -0.663801 -0.172326 -0.757994 -0.630101 -0.168576 
0.728959 -0.684436 0.012862 0.824337 -0.566093 0.00286922 -0.863111 -0.460588 -0.207118 
0.901885 -0.43195 0.00472254 0.78175 -0.462494 0.418289 -0.951882 -0.208741 -0.224382 
-0.965108 -0.100472 -0.241811 0.97476 -0.218125 -0.0475758 -0.96578 -0.0148777 -0.258935 
-0.962674 0.110954 -0.246875 0.996922 0.011283 -0.07758 -0.94574 0.219808 -0.239291 
0.968504 0.223236 -0.110297 -0.898881 0.39128 -0.197265 0.908291 0.393747 -0.14132 
0.809949 0.566598 -0.15149 -0.756284 0.615712 -0.221208 -0.732216 0.646057 -0.215569 
-0.535088 0.830898 -0.152609 0.74832 0.643314 -0.161757 0.628484 0.758623 -0.171749 
-0.472186 0.86878 -0.149206 -0.31715 0.937519 -0.143086 -0.109348 0.983806 -0.142016 
0.0855732 0.968792 -0.232636 0.173335 0.936547 -0.304688 0.182586 0.890251 -0.417272 
0.0769614 0.841096 -0.535382 -0.0759773 0.780119 -0.621001 -0.231751 0.767257 -0.598003 
-0.203957 0.840428 -0.502078 -0.118103 0.899681 -0.420268 0.00639381 0.943661 -0.330852 
0.210992 0.938499 -0.273318 0.561654 0.808324 -0.176513 0.378507 0.903333 -0.201798 
-0.318255 -0.903049 0.288471 -0.276644 -0.917031 0.287267 -0.191391 -0.938349 0.287872 
-0.0814809 -0.952208 0.294384 0.040224 -0.947693 0.316637 0.190492 -0.928489 0.318781 
0.301021 -0.883903 0.357913 0.341015 -0.854474 0.391896 -0.448333 -0.852902 0.267501 
-0.342358 -0.895247 0.285173 -0.382639 -0.876318 0.292666 -0.310529 -0.879396 0.360879 
-0.253212 -0.774118 0.580194 0.293259 -0.699857 0.651305 0.345246 -0.846127 0.406047 
0.337581 -0.822328 0.458057 0.338813 -0.808757 0.480746 0.355884 -0.786915 0.504094 
-0.521215 -0.809683 0.26972 -0.59021 -0.756738 0.281068 -0.429446 -0.773237 0.466563 
0.276363 -0.603149 0.748221 0.438414 -0.739569 0.510716 0.326366 -0.67333 0.66341 
0.4664 -0.7 0.540807 0.526192 -0.607692 0.594839 -0.692273 -0.664639 0.281092 
-0.744783 -0.60749 0.276141 -0.519016 -0.585114 0.623109 0.269113 -0.38696 0.881952 
0.369056 -0.476254 0.79811 0.548843 -0.584377 0.597725 0.521786 -0.580243 0.625345 
-0.839535 -0.464037 0.282579 -0.646542 -0.475065 0.596906 0.29917 -0.241941 0.923018 
0.656543 -0.428739 0.620592 0.50078 -0.392722 0.771355 0.690937 -0.395005 0.605457 
-0.93235 -0.246157 0.264819 -0.959334 -0.108825 0.260453 0.794266 -0.24625 0.55543 
0.648618 -0.23875 0.722698 -0.966065 -0.0222927 0.257336 -0.962803 0.111035 0.246337 
-0.94605 -0.0248509 0.323065 0.8451 -0.0349791 0.533462 0.640926 -0.030848 0.766982 
-0.94335 0.23022 0.238932 0.836432 0.198308 0.510936 0.674399 0.182575 0.715438 
-0.882939 0.402005 0.24251 0.517119 0.306161 0.799283 0.722951 0.402673 0.561423 
0.723431 0.412459 0.553648 0.713329 0.395457 0.578598 -0.730243 0.631394 0.260934 
-0.71471 0.649084 0.260538 -0.71488 0.631521 0.300214 -0.527392 0.810845 0.253748 
0.382043 0.353142 0.85401 0.73594 0.504986 0.450978 0.610234 0.614886 0.49953 
0.547125 0.485464 0.681894 -0.435304 0.871083 0.22743 -0.306171 0.930525 0.200954 
-0.31799 0.836924 0.445466 -0.14729 0.963553 0.223318 -0.000171223 0.983694 0.179851 
0.0754853 0.988848 0.128383 0.0532434 0.994998 0.0845276 0.0760431 0.775955 0.626188 
-0.0437189 0.998673 0.0272341 -0.0515584 0.782924 0.619977 -0.122801 0.991636 -0.0397228 
-0.142292 0.989284 -0.0327263 -0.10936 0.991889 0.0647838 -0.0289416 0.99514 0.094126 
0.115978 0.95916 0.257994 0.306741 0.87607 0.372037 0.278006 0.641703 0.714793 
0.491515 0.74943 0.443585 0.415261 0.810934 0.412244 0.425407 0.747165 0.510659 
-0.148 -0.709445 0.689046 -0.0382518 -0.690115 0.722688 0.063181 -0.665181 0.744005 
0.19845 -0.590967 0.781905 -0.32396 -0.676908 0.660943 -0.263662 -0.703288 0.660204 
-0.189077 -0.707638 0.680807 -0.226017 -0.700298 0.677126 -0.139799 -0.669978 0.729099 
-0.0284415 -0.614117 0.788703 0.069155 -0.586815 0.806763 0.210855 -0.580413 0.78655 
0.199691 -0.570514 0.796641 0.238889 -0.478159 0.845161 0.260917 -0.448155 0.855032 
-0.331478 -0.672205 0.662015 -0.381838 -0.617161 0.687977 -0.31988 -0.663981 0.675874 
-0.221607 -0.582749 0.781853 -0.0993873 -0.485188 0.868743 -0.0293008 -0.367671 0.929494 
0.0305196 -0.292308 0.955837 0.103571 -0.218498 0.970326 0.17002 -0.21771 0.961091 
0.187525 -0.310381 0.931932 0.257059 -0.445691 0.857485 0.251101 -0.415183 0.874398 
0.229858 -0.429631 0.873259 -0.47686 -0.554376 0.682108 -0.494039 -0.538924 0.682266 
-0.340964 -0.489033 0.802864 -0.24294 -0.39734 0.88493 -0.136688 -0.327502 0.934911 
0.0777592 -0.246932 0.965908 0.125834 -0.128735 0.983663 0.16851 -0.0580623 0.983988 
0.127118 0.0115378 0.99182 0.100331 -0.0797031 0.991757 0.10497 -0.16794 0.980193 
0.253126 -0.368964 0.894311 0.176587 -0.28748 0.941367 0.255798 -0.356738 0.898502 
-0.580136 -0.460123 0.672108 -0.630077 -0.392814 0.669851 -0.414835 -0.347629 0.840872 
-0.217743 -0.250004 0.943444 0.218849 -0.0131687 0.97567 0.247218 -0.048717 0.967734 
0.140511 -0.0675914 0.987769 0.0135193 0.0331719 0.999358 0.0214031 -0.0396069 0.998986 
0.0637243 -0.103493 0.992587 0.290378 -0.237155 0.927059 0.189687 -0.191345 0.963019 
0.286639 -0.232737 0.929339 0.402974 -0.240593 0.883021 -0.730015 -0.184442 0.658072 
-0.60498 -0.170507 0.77777 -0.325722 -0.10892 0.939171 -0.187576 -0.0843064 0.978625 
0.251387 0.000572494 0.967886 0.0724246 -0.0184485 0.997203 0.238107 -0.209521 0.94837 
0.119611 -0.0068013 0.992798 -0.0256247 -0.0278089 0.999285 0.0189823 -0.0500383 0.998567 
0.0900356 -0.0782069 0.992863 0.184801 -0.159051 0.96982 0.403578 -0.21914 0.888315 
0.392887 -0.215145 0.894065 -0.675483 0.0315823 0.736699 -0.599672 0.0354422 0.799461 
-0.310149 -0.0346208 0.950057 0.00381789 0.134229 0.990943 0.138756 -0.0396422 0.989533 
0.0488907 -0.0375368 0.998099 0.173382 0.0455913 0.983799 0.155805 -0.10446 0.982249 
-0.0218459 -0.0787194 0.996657 0.0115723 -0.053638 0.998493 0.0902014 -0.044416 0.994933 
0.176379 -0.0292562 0.983887 0.425655 -0.050389 0.903481 0.387981 -0.0487133 0.920379 
-0.719078 0.13049 0.682568 -0.64266 0.126901 0.755569 -0.321491 0.112368 0.940222 
-0.188137 0.0435816 0.981175 0.129354 0.0276344 0.991213 -0.00284528 0.135269 0.990805 
-0.046995 0.245222 0.968327 0.151618 0.124569 0.980558 0.137707 0.0629771 0.988469 
0.0522719 -0.133137 0.989718 0.0262035 -0.0978158 0.99486 0.0529992 -0.0543093 0.997117 
0.112324 0.0237629 0.993387 0.187944 0.0544366 0.98067 0.425318 0.141339 0.89394 
0.433403 0.225188 0.872612 0.372797 0.131878 0.918494 -0.652996 0.308371 0.69174 
-0.652903 0.308565 0.691741 -0.652818 0.308333 0.691924 -0.402207 0.281087 0.871332 
-0.238761 0.228531 0.943804 0.0619345 0.126571 0.990022 0.122009 0.0913088 0.98832 
0.194499 0.139641 0.970912 0.0987707 0.240093 0.965712 -0.0820806 0.199754 0.976402 
-0.0880948 0.0412617 0.995257 0.0105288 -0.0502766 0.99868 0.0555905 -0.00725272 0.998427 
0.131658 0.0564508 0.989687 0.190436 0.0638067 0.979624 0.373778 0.247707 0.89383 
0.336317 0.274504 0.900854 0.2589 0.175478 0.949831 -0.507865 0.55864 0.65574 
-0.480758 0.58308 0.654896 -0.468751 0.550811 0.690565 -0.307038 0.712282 0.631175 
-0.267645 0.453783 0.849969 -0.124325 0.396498 0.909578 0.0205199 0.354107 0.93498 
0.130214 0.320881 0.938126 0.0817637 0.702839 0.706635 0.164345 0.33602 0.927406 
-0.0365319 0.632516 0.773685 0.040757 0.270556 0.961841 -0.0934652 0.215081 0.972113 
-0.117789 0.20963 0.97066 0.00422229 0.175775 0.984421 0.12934 0.192509 0.972734 
0.129472 0.227344 0.965169 0.351568 0.331874 0.875363 0.262034 0.460208 0.848261 
0.248852 0.311082 0.917225 -0.141453 0.764708 0.628659 -0.114295 0.765916 0.6327 
-0.113262 0.758476 0.641783 -0.0162066 0.78889 0.614321 -0.0205001 0.756557 0.653606 
0.0736313 0.754008 0.652725 0.0693411 0.790174 0.608948 0.0736975 0.764038 0.640948 
-0.119767 0.673368 0.729541 -0.161983 0.674283 0.720488 -0.159208 0.645018 0.747398 
-0.117311 0.717553 0.686553 -0.110477 0.600215 0.792172 -0.042109 0.706729 0.70623 
-0.017434 0.576668 0.816792 0.099069 0.658815 0.745753 0.096343 0.511913 0.853618 
0.277685 0.547284 0.789539 0.277097 0.552907 0.785819 0.276172 0.542362 0.793456 
-0.0078732 -0.309577 0.950842 -0.179374 -0.195875 0.964084 -0.0597972 -0.310024 0.948847 
-0.132303 -0.289293 0.948054 0.0350971 -0.274682 0.960895 -0.00304449 -0.29745 0.954733 
0.0911133 -0.233245 0.96814 -0.176172 -0.181943 0.967399 -0.171701 -0.168582 0.970618 
-0.108373 -0.101411 0.988924 0.00523116 -0.0910662 0.995831 0.203536 -0.0528908 0.977638 
0.156983 -0.155572 0.975271 -0.159585 -0.0637728 0.985122 -0.15838 -0.0413194 0.986513 
-0.101532 -0.0229237 0.994568 -0.0642909 0.076453 0.994998 -0.00798007 0.137542 0.990464 
-0.0606578 0.152545 0.986433 0.221084 0.0121934 0.975178 0.140871 0.0709975 0.987479 
-0.157135 -0.0202218 0.98737 -0.179195 0.030766 0.983332 -0.141769 -0.0189895 0.989718 
-0.00676727 -0.0337982 0.999406 0.0415302 0.0876496 0.995285 0.0686359 0.0549326 0.996128 
-0.000979008 0.203904 0.97899 0.0489469 0.139977 0.988944 -0.00457952 0.230571 0.973045 
-0.0036741 0.243814 0.969815 -0.18295 0.0429399 0.982184 -0.0323833 0.0280328 0.999082 
0.117186 0.0243858 0.992811 0.0679997 0.11137 0.99145 0.103826 0.0225371 0.99434 
-0.0853119 0.183629 0.979287 0.0364913 0.138283 0.98972 -0.0411635 0.195214 0.979896 
-0.0282852 0.169441 0.985134 
