# vtk DataFile Version 4.2
vtk output
ASCII
DATASET POLYDATA
POINTS 482 float
-17.9249 -29.3383 -19.5506 -9.69456 -29.3383 -21.1187 -1.46419 -29.3383 -21.4443 
6.76618 -29.3383 -20.9447 14.9965 -29.3383 -20.0384 -26.1553 -21.108 -19.6421 
-17.9249 -21.108 -21.5452 -9.69456 -21.108 -22.8934 -1.46419 -21.108 -23.4754 
6.76618 -21.108 -23.5942 14.9965 -21.108 -23.1599 23.2269 -21.108 -22.2323 
31.4573 -21.108 -20.6767 -34.3857 -12.8776 -19.9759 -26.1553 -12.8776 -21.6145 
-17.9249 -12.8776 -22.6066 -9.69456 -12.8776 -23.1856 -1.46419 -12.8776 -23.2695 
6.76618 -12.8776 -23.697 14.9965 -12.8776 -23.592 23.2269 -12.8776 -23.4185 
31.4573 -12.8776 -23.1818 39.6876 -12.8776 -21.4512 -34.3857 -4.64724 -21.4011 
-26.1553 -4.64724 -23.2761 -17.9249 -4.64724 -23.9606 -9.69456 -4.64724 -23.7682 
-1.46419 -4.64724 -22.3109 6.76618 -4.64724 -22.9989 14.9965 -4.64724 -22.9717 
23.2269 -4.64724 -23.8998 31.4573 -4.64724 -24.2668 39.6876 -4.64724 -23.4535 
47.918 -4.64724 -19.1163 -34.3857 3.58313 -22.368 -26.1553 3.58313 -24.1513 
-17.9249 3.58313 -24.8935 -9.69456 3.58313 -25.2511 -1.46419 3.58313 -26.1086 
6.76618 3.58313 -25.9363 14.9965 3.58313 -23.6879 23.2269 3.58313 -24.1959 
31.4573 3.58313 -24.6568 39.6876 3.58313 -23.7348 47.918 3.58313 -19.4829 
-34.3857 11.8135 -22.386 -26.1553 11.8135 -24.4946 -17.9249 11.8135 -24.825 
-9.69456 11.8135 -24.3236 -1.46419 11.8135 -25.2793 6.76618 11.8135 -25.7695 
14.9965 11.8135 -24.8524 23.2269 11.8135 -24.9924 31.4573 11.8135 -24.9195 
39.6876 11.8135 -23.4252 -34.3857 20.0439 -21.2326 -26.1553 20.0439 -23.9519 
-17.9249 20.0439 -24.2094 -9.69456 20.0439 -23.5741 -1.46419 20.0439 -23.7792 
6.76618 20.0439 -24.7751 14.9965 20.0439 -25.5502 23.2269 20.0439 -26.099 
31.4573 20.0439 -25.5706 39.6876 20.0439 -22.7336 -26.1553 28.2742 -22.1291 
-17.9249 28.2742 -23.6751 -9.69456 28.2742 -24.1408 -1.46419 28.2742 -24.1193 
6.76618 28.2742 -25.3428 14.9965 28.2742 -25.2127 23.2269 28.2742 -25.4562 
31.4573 28.2742 -23.1268 39.6876 28.2742 -19.0362 -17.9249 36.5046 -21.181 
-9.69456 36.5046 -22.908 -1.46419 36.5046 -24.0101 6.76618 36.5046 -23.9187 
14.9965 36.5046 -22.871 23.2269 36.5046 -20.4233 -9.69456 44.735 -18.6772 
-1.46419 44.735 -19.9658 -17.9249 -31.0801 -18.6509 -17.9249 -37.5687 -14.1841 
-9.69456 -33.8875 -18.6509 -9.69456 -37.5687 -15.9626 -1.46419 -34.0216 -18.6509 
-1.46419 -37.5687 -15.7199 6.76618 -32.8377 -18.6509 6.76618 -37.5687 -14.1411 
14.9965 -31.3088 -18.6509 14.9965 -37.5687 -11.4887 -34.3857 -29.3383 -11.8223 
-20.6268 -29.3383 -18.6509 -26.1553 -24.0342 -18.6509 -26.1553 -29.3383 -16.6158 
21.3001 -29.3383 -18.6509 23.2269 -28.5419 -18.6509 23.2269 -29.3383 -18.0696 
31.4573 -24.3912 -18.6509 31.4573 -29.3383 -13.241 -42.616 -21.108 -10.5132 
-29.3073 -21.108 -18.6509 -34.3857 -16.7097 -18.6509 -34.3857 -21.108 -16.8547 
37.2799 -21.108 -18.6509 39.6876 -19.2145 -18.6509 39.6876 -21.108 -17.1878 
-36.9715 -12.8776 -18.6509 -42.616 -12.8776 -14.5822 44.6768 -12.8776 -18.6509 
47.918 -6.19444 -18.6509 47.918 -12.8776 -15.3563 -40.0291 -4.64724 -18.6509 
-42.616 -4.64724 -16.9696 48.4115 -4.64724 -18.6509 -41.5041 3.58313 -18.6509 
-42.616 3.58313 -17.8667 48.782 3.58313 -18.6509 47.918 10.2154 -18.6509 
-40.9084 11.8135 -18.6509 -42.616 11.8135 -17.2531 47.6404 11.8135 -18.6509 
47.918 11.8135 -18.3104 -38.4055 20.0439 -18.6509 -42.616 20.0439 -14.2432 
-34.3857 26.7944 -18.6509 44.8746 20.0439 -18.6509 47.918 20.0439 -12.7594 
-33.2849 28.2742 -18.6509 -34.3857 28.2742 -17.7125 -26.1553 35.2038 -18.6509 
31.4573 34.4309 -18.6509 40.1414 28.2742 -18.6509 39.6876 28.7051 -18.6509 
-24.4431 36.5046 -18.6509 -26.1553 36.5046 -17.4084 -17.9249 40.345 -18.6509 
6.76618 44.3758 -18.6509 14.9965 41.2559 -18.6509 27.3631 36.5046 -18.6509 
23.2269 38.1676 -18.6509 -9.75772 44.735 -18.6509 -17.9249 44.735 -12.4979 
-9.69456 44.7597 -18.6509 5.34996 44.735 -18.6509 -1.46419 45.8719 -18.6509 
6.76618 44.735 -17.5223 -17.9249 -40.6661 -10.4205 -9.69456 -42.1508 -10.4205 
-1.46419 -41.7024 -10.4205 6.76618 -40.2561 -10.4205 14.9965 -38.2342 -10.4205 
-34.3857 -30.8915 -10.4205 -25.0713 -37.5687 -10.4205 -26.1553 -36.9843 -10.4205 
-26.1553 -37.5687 -9.40321 16.9074 -37.5687 -10.4205 23.2269 -35.2615 -10.4205 
31.4573 -31.1006 -10.4205 -36.1581 -29.3383 -10.4205 -42.616 -21.2474 -10.4205 
34.5468 -29.3383 -10.4205 39.6876 -25.9971 -10.4205 -42.6934 -21.108 -10.4205 
44.8457 -21.108 -10.4205 47.918 -17.3367 -10.4205 -46.0764 -12.8776 -10.4205 
50.5396 -12.8776 -10.4205 -47.7905 -4.64724 -10.4205 52.7399 -4.64724 -10.4205 
-48.3349 3.58313 -10.4205 52.8883 3.58313 -10.4205 -47.735 11.8135 -10.4205 
51.6646 11.8135 -10.4205 -45.0185 20.0439 -10.4205 -42.616 24.3907 -10.4205 
48.7795 20.0439 -10.4205 47.918 21.8339 -10.4205 47.918 20.0439 -4.07602 
-39.9604 28.2742 -10.4205 -34.3857 34.795 -10.4205 31.4573 36.3942 -10.4205 
43.4203 28.2742 -10.4205 39.6876 31.2867 -10.4205 -32.4963 36.5046 -10.4205 
-26.1553 41.1004 -10.4205 14.9965 42.3162 -10.4205 31.1937 36.5046 -10.4205 
23.2269 39.349 -10.4205 23.2269 36.5046 -5.41751 -19.9686 44.735 -10.4205 
-17.9249 45.7584 -10.4205 -9.69456 48.5691 -10.4205 -1.46419 48.396 -10.4205 
10.0366 44.735 -10.4205 6.76618 46.1311 -10.4205 6.76618 44.735 -7.40128 
-26.1553 -40.6446 -2.19012 -17.9249 -43.9011 -2.19012 -9.69456 -45.098 -2.19012 
-9.69456 -45.7991 4.82495 -1.46419 -44.749 -2.19012 -1.46419 -45.7991 5.80795 
6.76618 -43.2921 -2.19012 14.9965 -40.9248 -2.19012 -31.243 -37.5687 -2.19012 
-34.3857 -35.2967 -2.19012 22.9775 -37.5687 -2.19012 23.2269 -37.4592 -2.19012 
23.2269 -37.5687 -0.161167 31.4573 -32.9411 -2.19012 -40.6661 -29.3383 -2.19012 
-42.616 -26.6948 -2.19012 36.9029 -29.3383 -2.19012 39.6876 -27.275 -2.19012 
-45.8583 -21.108 -2.19012 45.8066 -21.108 -2.19012 47.918 -17.9796 -2.19012 
-48.9013 -12.8776 -2.19012 50.6274 -12.8776 -2.19012 -50.3394 -4.64724 -2.19012 
52.5445 -4.64724 -2.19012 -50.845 3.58313 -2.19012 52.6003 3.58313 -2.19012 
-50.0106 11.8135 -2.19012 50.9986 11.8135 -2.19012 47.918 19.4621 -2.19012 
-47.1071 20.0439 -2.19012 -42.616 27.4868 -2.19012 47.6215 20.0439 -2.19012 
-42.0341 28.2742 -2.19012 -34.3857 36.005 -2.19012 23.2269 34.2569 -2.19012 
31.4573 32.1637 -2.19012 31.4573 28.2742 3.68278 39.9176 28.2742 -2.19012 
39.6876 28.464 -2.19012 39.6876 28.2742 -1.88518 -33.7804 36.5046 -2.19012 
-26.1553 41.7891 -2.19012 6.76618 41.7345 -2.19012 6.76618 36.5046 4.62175 
17.7862 36.5046 -2.19012 14.9965 37.7443 -2.19012 14.9965 36.5046 -0.732517 
-19.8882 44.735 -2.19012 -17.9249 45.5524 -2.19012 -17.9249 44.735 0.0667945 
-9.69456 46.6617 -2.19012 -9.69456 44.735 1.59474 0.323097 44.735 -2.19012 
-1.46419 45.4135 -2.19012 -1.46419 44.735 -0.978246 -9.69456 -45.9189 6.04025 
-1.46419 -45.8289 6.04025 -26.1553 -40.9404 6.04025 -10.4063 -45.7991 6.04025 
-17.9249 -44.4445 6.04025 -9.69456 -45.7991 6.66128 -1.2889 -45.7991 6.04025 
-1.46419 -45.7991 6.2182 6.76618 -44.3929 6.04025 14.9965 -41.7601 6.04025 
23.2269 -37.9072 6.04025 -31.469 -37.5687 6.04025 -34.3857 -35.2899 6.04025 
23.8199 -37.5687 6.04025 23.2269 -37.5687 7.6508 31.4573 -32.8003 6.04025 
-40.3381 -29.3383 6.04025 -42.616 -25.9867 6.04025 35.9673 -29.3383 6.04025 
39.6876 -26.0334 6.04025 -45.325 -21.108 6.04025 -42.616 -21.108 11.9525 
43.9793 -21.108 6.04025 39.6876 -21.108 13.8649 47.918 -13.6022 6.04025 
-48.3946 -12.8776 6.04025 48.2562 -12.8776 6.04025 47.918 -12.8776 6.71852 
-50.0753 -4.64724 6.04025 50.2631 -4.64724 6.04025 47.918 -4.64724 10.7597 
-50.6559 3.58313 6.04025 50.1866 3.58313 6.04025 47.918 3.58313 10.5297 
-49.5124 11.8135 6.04025 48.2208 11.8135 6.04025 47.918 12.4612 6.04025 
47.918 11.8135 6.61767 -46.1797 20.0439 6.04025 -42.616 25.7259 6.04025 
-42.616 20.0439 11.8302 31.4573 26.7006 6.04025 43.2455 20.0439 6.04025 
39.6876 23.2979 6.04025 39.6876 20.0439 10.4439 -40.6541 28.2742 6.04025 
-34.3857 34.3505 6.04025 -34.3857 28.2742 13.6152 6.76618 35.2608 6.04025 
14.9965 31.03 6.04025 14.9965 28.2742 10.4805 25.8316 28.2742 6.04025 
23.2269 28.9921 6.04025 23.2269 28.2742 7.20875 -31.4359 36.5046 6.04025 
-26.1553 39.6065 6.04025 -26.1553 36.5046 10.6758 -17.9249 42.3034 6.04025 
-17.9249 36.5046 12.9133 -9.69456 41.9727 6.04025 -9.69456 36.5046 12.0317 
4.63966 36.5046 6.04025 -1.46419 39.7423 6.04025 -1.46419 36.5046 9.36686 
-26.1553 -38.2411 14.2706 -17.9249 -42.1782 14.2706 -9.69456 -44.184 14.2706 
-1.46419 -44.3119 14.2706 6.76618 -42.7994 14.2706 14.9965 -39.9879 14.2706 
-27.1338 -37.5687 14.2706 -34.3857 -30.9109 14.2706 -26.1553 -37.5687 15.16 
-17.9249 -37.5687 20.3573 -9.69456 -37.5687 22.4755 6.76618 -37.5687 20.9365 
20.2088 -37.5687 14.2706 14.9965 -37.5687 17.9304 23.2269 -35.9635 14.2706 
31.4573 -30.0955 14.2706 -35.8046 -29.3383 14.2706 -34.3857 -29.3383 15.6992 
-26.1553 -29.3383 21.947 23.2269 -29.3383 21.7447 32.3221 -29.3383 14.2706 
31.4573 -29.3383 15.2695 -41.268 -21.108 14.2706 -42.616 -17.8995 14.2706 
-34.3857 -21.108 20.4916 39.4231 -21.108 14.2706 31.4573 -21.108 21.3404 
39.6876 -20.664 14.2706 -44.4082 -12.8776 14.2706 -42.616 -12.8776 16.274 
-34.3857 -12.8776 22.2892 43.6353 -12.8776 14.2706 39.6876 -12.8776 18.4959 
-46.1519 -4.64724 14.2706 -42.616 -4.64724 17.9356 45.773 -4.64724 14.2706 
39.6876 -4.64724 20.3351 -46.3436 3.58313 14.2706 -42.616 3.58313 17.7932 
-34.3857 3.58313 22.097 45.668 3.58313 14.2706 39.6876 3.58313 20.313 
-44.4218 11.8135 14.2706 -42.616 16.0872 14.2706 -42.616 11.8135 15.8902 
-34.3857 11.8135 20.1892 -26.1553 11.8135 22.289 31.4573 11.8135 22.2982 
43.1332 11.8135 14.2706 39.6876 16.3567 14.2706 39.6876 11.8135 17.743 
-40.3344 20.0439 14.2706 -34.3857 27.4398 14.2706 -34.3857 20.0439 17.7833 
-26.1553 20.0439 20.3731 -17.9249 20.0439 21.81 14.9965 26.1453 14.2706 
14.9965 20.0439 21.8725 23.2269 23.681 14.2706 23.2269 20.0439 18.9385 
34.029 20.0439 14.2706 31.4573 21.3439 14.2706 31.4573 20.0439 15.7587 
-33.4481 28.2742 14.2706 -26.1553 33.0283 14.2706 -26.1553 28.2742 17.3849 
[...]
POINT_DATA 482
SCALARS ImageScalars float
LOOKUP_TABLE default
0 0 0 0 0 0 0 0 0 
0 0 0 0 0 0 0 0 0 
0 0 0 0 0 0 0 0 0 
0 0 0 0 0 0 0 0 0 
0 0 0 0 0 0 0 0 0 
0 0 0 0 0 0 0 0 0 
0 0 0 0 0 0 0 0 0 
0 0 0 0 0 0 0 0 0 
0 0 0 0 0 0 0 0 0 
0 0 0 0 0 0 0 0 0 
0 0 0 0 0 0 0 0 0 
0 0 0 0 0 0 0 0 0 
0 0 0 0 0 0 0 0 0 
0 0 0 0 0 0 0 0 0 
0 0 0 0 0 0 0 0 0 
0 0 0 0 0 0 0 0 0 
0 0 0 0 0 0 0 0 0 
0 0 0 0 0 0 0 0 0 
0 0 0 0 0 0 0 0 0 
0 0 0 0 0 0 0 0 0 
0 0 0 0 0 0 0 0 0 
0 0 0 0 0 0 0 0 0 
0 0 0 0 0 0 0 0 0 
0 0 0 0 0 0 0 0 0 
0 0 0 0 0 0 0 0 0 
0 0 0 0 0 0 0 0 0 
0 0 0 0 0 0 0 0 0 
0 0 0 0 0 0 0 0 0 
0 0 0 0 0 0 0 0 0 
0 0 0 0 0 0 0 0 0 
0 0 0 0 0 0 0 0 0 
0 0 0 0 0 0 0 0 0 
0 0 0 0 0 0 0 0 0 
0 0 0 0 0 0 0 0 0 
0 0 0 0 0 0 0 0 0 
0 0 0 0 0 0 0 0 0 
0 0 0 0 0 0 0 0 0 
0 0 0 0 0 0 0 0 0 
0 0 0 0 0 0 0 0 0 
0 0 0 0 0 0 0 0 0 
0 0 0 0 0 0 0 0 0 
0 0 0 0 0 0 0 0 0 
0 0 0 0 0 0 0 0 0 
0 0 0 0 0 0 0 0 0 
0 0 0 0 0 0 0 0 0 
0 0 0 0 0 0 0 0 0 
0 0 0 0 0 0 0 0 0 
0 0 0 0 0 0 0 0 0 
0 0 0 0 0 0 0 0 0 
0 0 0 0 0 0 0 0 0 
0 0 0 0 0 0 0 0 0 
0 0 0 0 0 0 0 0 0 
0 0 0 0 0 0 0 0 0 
0 0 0 0 0 
NORMALS Normals float
0.237481 0.344328 0.908318 0.104307 0.348237 0.931585 -0.00879934 0.385239 0.922775 
-0.0781387 0.448544 0.890339 -0.148132 0.500926 0.852719 0.251575 0.266092 0.93054 
0.18563 0.171544 0.96753 0.113162 0.120858 0.986199 0.0419281 0.103983 0.993695 
-0.0191568 0.152146 0.988172 -0.0816116 0.193329 0.977734 -0.143671 0.279179 0.94943 
-0.245189 0.430253 0.868772 0.330498 0.234847 0.914121 0.155414 0.210395 0.965184 
0.0929738 0.142877 0.985364 0.0397089 0.0518559 0.997865 0.0306395 -0.0704408 0.997045 
0.0198373 -0.0359024 0.999158 -0.016749 -0.0115773 0.999793 -0.0249671 0.0991068 0.994764 
-0.10874 0.201285 0.973478 -0.349525 0.312227 0.883372 0.32964 0.138275 0.933926 
0.143811 0.148517 0.978397 0.0300034 0.138053 0.98997 -0.099772 0.126435 0.986945 
-0.0464798 0.152499 0.98721 0.040265 0.124972 0.991343 0.0548029 0.00640826 0.998477 
0.0786451 0.0460375 0.995839 -0.027369 0.0919176 0.99539 -0.265551 0.127089 0.955684 
-0.673728 0.147012 0.724209 0.333791 0.0552394 0.941027 0.142707 0.0742677 0.986975 
0.0659503 0.0518501 0.996475 0.0683445 0.0328321 0.997121 0.0445877 0.191639 0.980452 
-0.151133 0.172499 0.973346 -0.0970181 0.115004 0.988616 0.0596203 0.0675416 0.995934 
-0.0271751 0.0393024 0.998858 -0.268986 -0.00128929 0.963143 -0.675539 -0.0330949 0.736581 
0.372941 -0.0625211 0.925746 0.133862 -0.0132679 0.990911 -0.00921759 -0.0414976 0.999096 
0.0221942 -0.103337 0.994399 0.0925803 -0.14569 0.984989 -0.0292985 -0.0713657 0.99702 
-0.0470256 0.112853 0.992498 0.00404892 0.111528 0.993753 -0.0934199 0.0521614 0.994259 
-0.329258 -0.0520039 0.942807 0.450116 -0.223429 0.864567 0.162429 -0.137398 0.977107 
-0.0226636 -0.0718395 0.997159 -0.026454 -0.0108775 0.999591 0.0727226 -0.0613493 0.995464 
0.10718 -0.0264329 0.993888 0.0794359 0.0222456 0.996592 0.00408273 0.0334014 0.999434 
-0.166508 -0.0948245 0.98147 -0.473192 -0.218969 0.853312 0.302032 -0.326241 0.895736 
0.114979 -0.17068 0.978595 0.028621 -0.0341487 0.999007 0.0741025 0.0152861 0.997133 
0.0651982 -0.0406598 0.997044 0.00567294 -0.15535 0.987843 -0.117092 -0.283593 0.951769 
-0.340674 -0.430707 0.835723 -0.599531 -0.5682 0.563659 0.260461 -0.441167 0.858797 
0.164378 -0.288534 0.943254 0.0623486 -0.218896 0.973754 -0.071652 -0.359482 0.930397 
-0.203464 -0.532226 0.82179 -0.315927 -0.731614 0.604096 0.244208 -0.70923 0.661328 
-0.00458959 -0.730685 0.682699 0.244502 0.401158 0.882775 0.259796 0.700532 0.664651 
0.085149 0.509896 0.856012 0.0646274 0.683461 0.727121 -0.0395861 0.555824 0.830357 
-0.0722903 0.716949 0.693367 -0.100561 0.571228 0.814608 -0.156937 0.775398 0.61166 
-0.165326 0.575283 0.801073 -0.255014 0.84884 0.463075 0.528514 0.578403 0.621388 
0.278326 0.371576 0.885701 0.290264 0.323579 0.90058 0.376117 0.450532 0.809664 
-0.228695 0.576545 0.784407 -0.243781 0.566839 0.786933 -0.26095 0.608283 0.749598 
-0.308449 0.548204 0.777387 -0.42911 0.774482 0.464803 0.743991 0.407706 0.52939 
0.308131 0.312212 0.898654 0.362642 0.300845 0.882033 0.420159 0.393445 0.817721 
-0.401253 0.532537 0.745252 -0.442959 0.510523 0.73699 -0.492171 0.589861 0.64018 
0.417783 0.247823 0.874094 0.687885 0.273055 0.672499 -0.559685 0.357128 0.747805 
-0.681341 0.187915 0.707433 -0.760223 0.396684 0.514492 0.519442 0.139392 0.84306 
0.639344 0.142813 0.755542 -0.694662 0.147723 0.704004 0.590405 0.0218231 0.806812 
0.643638 0.0141564 0.765199 -0.713537 -0.0368829 0.699646 -0.724118 -0.140733 0.675165 
0.602958 -0.109411 0.790235 0.684752 -0.132341 0.71666 -0.720264 -0.163597 0.674134 
-0.743803 -0.170301 0.64634 0.590052 -0.268974 0.761243 0.773298 -0.34626 0.531144 
0.552462 -0.418991 0.720577 -0.694435 -0.309304 0.649686 -0.893048 -0.384992 0.232906 
0.536404 -0.446745 0.716024 0.583046 -0.474409 0.65954 0.448839 -0.541194 0.711092 
-0.426164 -0.758627 0.492819 -0.619272 -0.570438 0.53954 -0.607396 -0.582689 0.539948 
0.426992 -0.556398 0.712811 0.48486 -0.605911 0.6307 0.322903 -0.593061 0.737572 
-0.254031 -0.828664 0.498783 -0.309124 -0.827741 0.468281 -0.386759 -0.793902 0.469187 
-0.352679 -0.805307 0.476549 0.245249 -0.709761 0.660373 0.393868 -0.861596 0.320188 
0.243952 -0.710446 0.660116 -0.219614 -0.831882 0.509649 -0.0197822 -0.808091 0.588726 
-0.280556 -0.872007 0.401113 0.256605 0.824388 0.504518 0.0512696 0.866456 0.496614 
-0.101144 0.865278 0.490983 -0.186502 0.859266 0.476319 -0.262463 0.865974 0.425678 
0.547925 0.62505 0.555959 0.401972 0.746387 0.530401 0.42406 0.727912 0.538811 
0.428657 0.759911 0.48866 -0.286133 0.86342 0.415493 -0.366974 0.843081 0.393121 
-0.453774 0.821938 0.344249 0.580219 0.597264 0.553734 0.744889 0.411068 0.525512 
-0.492344 0.805508 0.32978 -0.584658 0.752004 0.30441 0.746652 0.407914 0.525469 
-0.706201 0.654905 0.269033 -0.805662 0.539428 0.244798 0.830368 0.265011 0.490162 
-0.890304 0.393528 0.229115 0.880981 0.119256 0.457876 -0.971717 0.135926 0.193106 
0.894564 -0.00230628 0.446934 -0.982022 -0.0654571 0.177057 0.885232 -0.184184 0.42713 
-0.962874 -0.224593 0.149772 0.846765 -0.377911 0.374395 0.801258 -0.482076 0.354385 
-0.912407 -0.39661 0.101059 -0.893756 -0.441011 0.0819124 -0.860379 -0.481366 -0.167436 
0.74839 -0.572295 0.335247 0.662714 -0.687068 0.297907 -0.408266 -0.901397 -0.144232 
-0.702316 -0.711847 -0.00515534 -0.57201 -0.819875 -0.0246849 0.630492 -0.721371 0.286538 
0.543916 -0.801833 0.247426 -0.390418 -0.907988 -0.152091 -0.404982 -0.902399 -0.147195 
-0.335201 -0.924767 -0.180129 -0.303805 -0.847868 -0.434537 0.427428 -0.879255 0.210277 
0.391876 -0.898062 0.199793 0.150098 -0.984824 0.0871337 -0.14405 -0.988999 -0.0336326 
-0.369854 -0.919533 -0.132916 -0.345841 -0.930669 -0.11937 -0.357849 -0.892971 -0.273034 
0.44096 0.877932 0.18652 0.24937 0.948825 0.19377 0.0465258 0.977763 0.204487 
0.0736252 0.99723 -0.0105741 -0.10455 0.968534 0.225854 -0.0906125 0.995804 -0.012822 
-0.219346 0.949395 0.224804 -0.323489 0.927037 0.189622 0.547011 0.81828 0.176628 
0.618648 0.766978 0.170352 -0.424948 0.894695 0.137621 -0.428286 0.893369 0.135877 
-0.440232 0.893806 0.0854752 -0.517567 0.851327 0.0858345 0.75803 0.63711 0.139574 
0.81717 0.562101 0.127577 -0.585653 0.809899 0.0327777 -0.639804 0.768526 0.00421112 
0.895405 0.427038 0.126049 -0.779852 0.624047 -0.048947 -0.852752 0.514385 -0.0906761 
0.959556 0.256543 0.115922 -0.930462 0.345091 -0.123097 0.986521 0.112777 0.118566 
-0.983263 0.114714 -0.141542 0.992333 -0.0179788 0.122275 -0.984044 -0.0898761 -0.153557 
0.974084 -0.207477 0.0900805 -0.945435 -0.264885 -0.189709 -0.839855 -0.484221 -0.245305 
0.901331 -0.427989 0.066542 0.797232 -0.602509 0.0374647 -0.825229 -0.505171 -0.252586 
0.782216 -0.622049 0.0345435 0.650713 -0.758963 -0.0233972 -0.265426 -0.786313 -0.557908 
-0.269564 -0.833023 -0.483123 -0.262085 -0.826769 -0.497759 -0.530222 -0.760003 -0.375847 
-0.521362 -0.765365 -0.377357 -0.519676 -0.763951 -0.382511 0.638713 -0.768951 -0.0275507 
0.494264 -0.865636 -0.0798563 -0.365989 -0.768041 -0.525514 -0.393265 -0.700469 -0.595555 
-0.335295 -0.753762 -0.565172 -0.361472 -0.749572 -0.554508 -0.358423 -0.739363 -0.569978 
0.318925 -0.933782 -0.162291 0.265187 -0.947121 -0.180658 0.233745 -0.935893 -0.263567 
-0.0065033 -0.939953 -0.341242 -0.050529 -0.892181 -0.448842 -0.271456 -0.84927 -0.452827 
-0.241966 -0.868893 -0.431831 -0.253684 -0.851093 -0.459657 0.0781628 0.995843 -0.0467702 
-0.0901436 0.995737 -0.0195173 0.466644 0.876781 -0.116186 0.0950224 0.99422 -0.0499698 
0.279652 0.956118 -0.08737 0.0806861 0.994293 -0.0697919 -0.0931825 0.995458 -0.019493 
-0.0899351 0.995597 -0.02642 -0.2364 0.971398 -0.0223987 -0.362852 0.930657 -0.0470757 
-0.469332 0.880416 -0.06779 0.575747 0.80564 -0.139499 0.643199 0.748302 -0.162293 
-0.476296 0.876406 -0.0710901 -0.473825 0.871709 -0.124954 -0.577892 0.805389 -0.131871 
0.76616 0.610582 -0.200468 0.825676 0.522677 -0.212292 -0.630772 0.755208 -0.17829 
-0.691912 0.681201 -0.239212 0.884022 0.413401 -0.218186 0.801349 0.393502 -0.450551 
-0.779814 0.552712 -0.293939 -0.704755 0.483679 -0.519014 -0.87229 0.337387 -0.353949 
0.93653 0.265046 -0.229483 -0.87813 0.318662 -0.356849 -0.87141 0.318332 -0.37324 
0.969614 0.127103 -0.209031 -0.926774 0.10551 -0.360497 -0.867907 0.105017 -0.485498 
0.976283 -0.0289988 -0.214547 -0.92341 -0.110308 -0.367623 -0.869161 -0.118145 -0.480209 
0.936607 -0.235009 -0.259882 -0.861969 -0.317263 -0.395416 -0.852444 -0.335482 -0.400989 
-0.854925 -0.320569 -0.407845 0.846061 -0.451389 -0.283601 0.766672 -0.567118 -0.300984 
0.703256 -0.433904 -0.563168 -0.26523 -0.815341 -0.514657 -0.635564 -0.606512 -0.477705 
-0.489962 -0.708325 -0.508147 -0.512055 -0.655782 -0.554752 0.721135 -0.620498 -0.308133 
0.601602 -0.730529 -0.323115 0.509056 -0.547607 -0.66407 -0.386966 -0.700613 -0.599499 
-0.287516 -0.776506 -0.56069 -0.241035 -0.820411 -0.518486 -0.223457 -0.833011 -0.506122 
-0.208805 -0.83544 -0.50837 -0.205504 -0.835756 -0.509196 0.524251 -0.779312 -0.343269 
0.390039 -0.839882 -0.377448 0.335487 -0.747469 -0.573356 0.125567 -0.853629 -0.50552 
0.0379098 -0.667995 -0.7432 -0.11781 -0.798544 -0.590295 -0.154735 -0.654901 -0.739704 
-0.37214 -0.694532 -0.615741 -0.295779 -0.72436 -0.622749 -0.289195 -0.670045 -0.683671 
0.48327 0.752697 -0.4471 0.309753 0.857434 -0.410926 0.112645 0.916711 -0.383344 
-0.0766333 0.924037 -0.374544 -0.237915 0.891735 -0.384974 -0.358589 0.855427 -0.37371 
0.502351 0.737489 -0.45139 0.643288 0.567108 -0.514362 0.482731 0.729111 -0.485148 
0.297562 0.653824 -0.69568 0.0880048 0.598835 -0.796022 -0.186234 0.666878 -0.72152 
-0.432119 0.821094 -0.372931 -0.331634 0.768352 -0.547406 -0.476432 0.790959 -0.383923 
-0.602664 0.681897 -0.414504 0.662207 0.534093 -0.525572 0.63303 0.51813 -0.575165 
0.438189 0.396088 -0.80691 -0.380307 0.537793 -0.752427 -0.613931 0.667113 -0.421959 
-0.600223 0.656502 -0.456878 0.7425 0.375773 -0.554516 0.762388 0.320725 -0.56205 
0.522518 0.293589 -0.800488 -0.699356 0.476957 -0.532365 -0.520797 0.349028 -0.77907 
-0.702704 0.467826 -0.536047 0.777849 0.233885 -0.583308 0.725747 0.217361 -0.652721 
0.464417 0.118059 -0.877712 -0.754982 0.291505 -0.58739 -0.645983 0.260945 -0.717366 
0.795994 0.0975037 -0.5974 0.662195 0.0675253 -0.746283 -0.793266 0.100272 -0.600562 
-0.58653 0.0836261 -0.805599 0.760244 -0.0786989 -0.644853 0.612272 -0.104806 -0.78367 
0.330064 -0.152466 -0.931564 -0.790074 -0.122169 -0.600715 -0.583197 -0.118166 -0.803691 
0.679861 -0.250189 -0.689343 0.644079 -0.335679 -0.687373 0.612445 -0.250201 -0.749873 
0.32782 -0.234463 -0.915184 0.255472 -0.220328 -0.941377 -0.350244 -0.388676 -0.852209 
-0.694977 -0.379263 -0.610874 -0.549225 -0.550094 -0.629085 -0.577504 -0.390869 -0.716736 
0.588638 -0.398927 -0.703109 0.490209 -0.51829 -0.700765 0.387909 -0.329283 -0.860871 
0.217331 -0.265888 -0.939186 0.127949 -0.353691 -0.92657 -0.227969 -0.824181 -0.518417 
-0.187736 -0.647591 -0.738499 -0.227084 -0.795691 -0.561524 -0.244531 -0.701067 -0.669858 
-0.368886 -0.697434 -0.614417 -0.306569 -0.73405 -0.605959 -0.316752 -0.70174 -0.638145 
0.469465 -0.531687 -0.704919 0.269068 -0.599395 -0.753875 0.22957 -0.448198 -0.863954 
0.0229681 -0.607791 -0.793765 0.0340592 -0.454877 -0.889903 -0.146508 -0.59408 -0.790952 
-0.111879 -0.524481 -0.844039 -0.204408 -0.610389 -0.765273 -0.157277 -0.606983 -0.778996 
-0.206956 -0.774536 -0.597715 -0.207326 -0.771808 -0.601106 -0.204702 -0.772103 -0.601627 
-0.0656381 0.578466 -0.813062 0.274658 0.505515 -0.817935 -0.0120338 0.58666 -0.809744 
0.0878512 0.596838 -0.797538 -0.0665474 0.578499 -0.812964 -0.0656031 0.577921 -0.813451 
-0.158388 0.569531 -0.806566 -0.247602 0.553958 -0.794873 0.404228 0.380483 -0.831765 
0.417045 0.351935 -0.837983 0.236158 0.328934 -0.914348 0.0731072 0.304454 -0.949717 
-0.0375403 0.340613 -0.939454 -0.104186 0.393529 -0.913389 -0.335882 0.512074 -0.790546 
-0.210119 0.462204 -0.86152 -0.367827 0.488862 -0.791023 0.429099 0.240505 -0.87065 
0.353271 0.190335 -0.915954 0.219967 0.13376 -0.966293 0.094553 0.16099 -0.982416 
0.0306898 0.224002 -0.974105 -0.0408481 0.325684 -0.944596 -0.178875 0.326253 -0.928204 
-0.471493 0.323903 -0.820233 -0.349728 0.298103 -0.888158 -0.485091 0.265029 -0.833334 
0.453263 0.112164 -0.884292 0.430602 0.0719407 -0.89967 0.293718 0.0442526 -0.954867 
0.217453 0.0213594 -0.975837 0.158262 0.0331007 -0.986842 0.133376 0.0400811 -0.990255 
-0.211954 0.161145 -0.963902 -0.382079 0.12972 -0.91498 -0.495915 0.189446 -0.847454 
-0.450238 0.165416 -0.877453 0.386309 -0.00624345 -0.922348 0.348599 -0.080696 -0.933792 
0.36733 -0.0131832 -0.929997 0.270196 -0.0803341 -0.959448 0.217797 -0.0412747 -0.975121 
0.112351 -0.0173373 -0.993517 0.127194 -0.129915 -0.983333 -0.35858 -0.0210646 -0.933261 
-0.485317 0.0607653 -0.872224 -0.405195 0.0343986 -0.913583 0.314114 -0.156065 -0.93647 
0.256835 -0.214389 -0.942376 0.269805 -0.169687 -0.947846 0.283352 -0.147274 -0.94764 
0.0682426 -0.0544482 -0.996182 0.00290887 -0.0723012 -0.997379 0.0638932 -0.207937 -0.976053 
-0.0969778 -0.236975 -0.966663 -0.274269 -0.179089 -0.94483 -0.462985 -0.121115 -0.878052 
-0.351528 -0.365751 -0.861774 -0.363248 -0.121658 -0.923716 0.260832 -0.226211 -0.938507 
0.175274 -0.339358 -0.924184 0.319633 -0.28743 -0.902895 0.183773 -0.312064 -0.932118 
-0.0250809 -0.238152 -0.970904 -0.0819486 -0.287092 -0.954391 -0.183389 -0.616035 -0.766074 
-0.153752 -0.37877 -0.91263 -0.342192 -0.387079 -0.856198 -0.248926 -0.523874 -0.814612 
-0.243766 -0.389726 -0.888083 0.0792219 -0.516159 -0.852821 0.067844 -0.536943 -0.840886 
0.0726156 -0.53761 -0.840061 0.0279823 -0.6556 -0.75459 0.0366782 -0.648598 -0.760247 
-0.13853 -0.629863 -0.764252 -0.0597125 -0.63447 -0.770638 -0.0609422 -0.604163 -0.794527 
0.00445985 0.181595 -0.983363 0.0879918 0.0755892 -0.993249 -0.175125 0.155982 -0.972112 
0.0206652 0.125466 -0.991883 -0.194872 0.0308214 -0.980344 0.0959841 -0.143021 -0.985054 
0.0825417 -0.15789 -0.984001 0.0853773 -0.145539 -0.985662 -0.185061 -0.0794235 -0.979512 
-0.172504 -0.0919109 -0.980711 -0.177572 -0.0815265 -0.980725 
