# vtk DataFile Version 4.2
vtk output
ASCII
DATASET POLYDATA
POINTS 534 float
-33.8897 -39.7742 -13.7596 -25.4338 -39.7742 -15.4018 -16.9779 -39.7742 -15.1629 
-8.52203 -39.7742 -15.134 -0.0661195 -39.7742 -14.8446 8.38979 -39.7742 -13.7086 
-42.3456 -31.3183 -13.9598 -33.8897 -31.3183 -16.1959 -25.4338 -31.3183 -17.5689 
-16.9779 -31.3183 -16.4874 -8.52203 -31.3183 -16.2277 -0.0661195 -31.3183 -16.2275 
8.38979 -31.3183 -15.517 16.8457 -31.3183 -12.8766 -42.3456 -22.8624 -15.9307 
-33.8897 -22.8624 -17.9969 -25.4338 -22.8624 -18.0945 -16.9779 -22.8624 -16.8139 
-8.52203 -22.8624 -15.9273 -0.0661195 -22.8624 -15.7667 8.38979 -22.8624 -16.1782 
16.8457 -22.8624 -14.539 25.3016 -22.8624 -13.4464 33.7575 -22.8624 -13.6431 
42.2134 -22.8624 -13.3036 -42.3456 -14.4065 -16.6287 -33.8897 -14.4065 -18.5698 
-25.4338 -14.4065 -18.4677 -16.9779 -14.4065 -17.1795 -8.52203 -14.4065 -15.447 
-0.0661195 -14.4065 -15.1242 8.38979 -14.4065 -16.6945 16.8457 -14.4065 -14.7686 
25.3016 -14.4065 -15.2272 33.7575 -14.4065 -15.9542 42.2134 -14.4065 -16.1985 
50.6693 -14.4065 -16.2179 59.1252 -14.4065 -13.3922 -42.3456 -5.95062 -16.8071 
-33.8897 -5.95062 -18.1324 -25.4338 -5.95062 -18.0696 -16.9779 -5.95062 -17.1002 
-8.52203 -5.95062 -19.7585 -0.0661195 -5.95062 -15.3868 8.38979 -5.95062 -19.1246 
16.8457 -5.95062 -15.2759 25.3016 -5.95062 -15.9002 33.7575 -5.95062 -17.2616 
42.2134 -5.95062 -17.9191 50.6693 -5.95062 -17.0262 59.1252 -5.95062 -13.3922 
-50.8016 2.50528 -13.372 -42.3456 2.50528 -16.9121 -33.8897 2.50528 -17.5724 
-25.4338 2.50528 -16.7187 -16.9779 2.50528 -14.6882 -8.52203 2.50528 -18.2297 
-0.0661195 2.50528 -12.8338 8.38979 2.50528 -20.058 16.8457 2.50528 -16.6711 
25.3016 2.50528 -16.9264 33.7575 2.50528 -18.2241 42.2134 2.50528 -18.4075 
50.6693 2.50528 -17.0311 59.1252 2.50528 -13.3764 -50.8016 10.9612 -14.5497 
-42.3456 10.9612 -17.2465 -33.8897 10.9612 -17.7331 -25.4338 10.9612 -17.2435 
-16.9779 10.9612 -16.1698 -8.52203 10.9612 -16.0443 -0.0661195 10.9612 -14.7423 
8.38979 10.9612 -19.2952 16.8457 10.9612 -16.9809 25.3016 10.9612 -17.9448 
33.7575 10.9612 -18.9202 42.2134 10.9612 -19.3768 50.6693 10.9612 -17.3417 
59.1252 10.9612 -12.5763 -50.8016 19.4171 -13.9826 -42.3456 19.4171 -17.6134 
-33.8897 19.4171 -18.4016 -25.4338 19.4171 -18.5782 -16.9779 19.4171 -17.8501 
-8.52203 19.4171 -16.0209 -0.0661195 19.4171 -15.7935 8.38979 19.4171 -17.6253 
16.8457 19.4171 -17.6916 25.3016 19.4171 -17.9296 33.7575 19.4171 -18.2514 
42.2134 19.4171 -18.4299 50.6693 19.4171 -17.2456 -42.3456 27.873 -17.0497 
-33.8897 27.873 -18.6994 -25.4338 27.873 -19.2628 -16.9779 27.873 -18.5107 
-8.52203 27.873 -17.3108 -0.0661195 27.873 -17.4935 8.38979 27.873 -18.6236 
16.8457 27.873 -18.3146 25.3016 27.873 -17.7568 33.7575 27.873 -18.2211 
42.2134 27.873 -16.3244 50.6693 27.873 -12.6714 -42.3456 36.3289 -14.8246 
-33.8897 36.3289 -17.3406 -25.4338 36.3289 -19.436 -16.9779 36.3289 -18.1021 
-8.52203 36.3289 -17.738 -0.0661195 36.3289 -18.0688 8.38979 36.3289 -18.7317 
16.8457 36.3289 -18.306 25.3016 36.3289 -17.2713 33.7575 36.3289 -15.2795 
-33.8897 44.7848 -13.4998 -25.4338 44.7848 -15.6658 -16.9779 44.7848 -16.2863 
-8.52203 44.7848 -16.4429 -0.0661195 44.7848 -16.8087 8.38979 44.7848 -17.072 
16.8457 44.7848 -16.5022 25.3016 44.7848 -13.6225 -33.8897 -42.4735 -12.3916 
-33.8897 -48.2301 -8.42288 -25.4338 -45.4261 -12.3916 -25.4338 -48.2301 -10.1583 
-16.9779 -46.5044 -12.3916 -16.9779 -48.2301 -11.4978 -8.52203 -46.5576 -12.3916 
-8.52203 -48.2301 -11.596 -0.0661195 -45.3815 -12.3916 -0.0661195 -48.2301 -10.9042 
8.38979 -42.5209 -12.3916 8.38979 -48.2301 -8.89365 16.8457 -48.2301 -4.81659 
-38.0933 -39.7742 -12.3916 -42.3456 -35.8011 -12.3916 -42.3456 -39.7742 -10.5187 
12.5379 -39.7742 -12.3916 16.8457 -33.5722 -12.3916 16.8457 -39.7742 -10.9005 
25.3016 -39.7742 -6.30316 -44.5338 -31.3183 -12.3916 -50.8016 -31.3183 -5.17751 
19.0975 -31.3183 -12.3916 25.3016 -26.5913 -12.3916 25.3016 -31.3183 -10.9756 
33.7575 -25.3343 -12.3916 33.7575 -31.3183 -9.08228 42.2134 -25.5755 -12.3916 
42.2134 -31.3183 -9.45547 50.6693 -31.3183 -6.13965 -47.9492 -22.8624 -12.3916 
-50.8016 -22.8624 -9.68238 47.5126 -22.8624 -12.3916 50.6693 -21.7489 -12.3916 
50.6693 -22.8624 -11.8554 59.1252 -16.6208 -12.3916 59.1252 -22.8624 -8.29039 
-49.4155 -14.4065 -12.3916 -50.8016 -14.4065 -11.1283 60.4866 -14.4065 -12.3916 
-50.5239 -5.95062 -12.3916 -50.8016 -4.64482 -12.3916 -50.8016 -5.95062 -12.1734 
60.7118 -5.95062 -12.3916 -51.9381 2.50528 -12.3916 60.2906 2.50528 -12.3916 
-53.1795 10.9612 -12.3916 59.3156 10.9612 -12.3916 59.1252 12.3946 -12.3916 
-52.8137 19.4171 -12.3916 -50.8016 26.8565 -12.3916 57.7918 19.4171 -12.3916 
59.1252 19.4171 -9.2465 -50.528 27.873 -12.3916 -50.8016 27.873 -12.1263 
42.2134 36.1679 -12.3916 51.0145 27.873 -12.3916 50.6693 28.313 -12.3916 
-46.1355 36.3289 -12.3916 -50.8016 36.3289 -5.66142 -42.3456 40.4167 -12.3916 
41.986 36.3289 -12.3916 33.7575 43.624 -12.3916 42.2134 36.3289 -12.208 
-36.3728 44.7848 -12.3916 -42.3456 44.7848 -4.55514 -33.8897 45.9572 -12.3916 
-25.4338 49.8962 -12.3916 -16.9779 52.116 -12.3916 -8.52203 51.4303 -12.3916 
-0.0661195 51.6223 -12.3916 8.38979 51.5322 -12.3916 16.8457 50.3272 -12.3916 
31.2365 44.7848 -12.3916 25.3016 46.7431 -12.3916 33.7575 44.7848 -10.3937 
-16.9779 53.2407 -9.46685 -8.52203 53.2407 -9.67058 -0.0661195 53.2407 -9.35727 
8.38979 53.2407 -8.4004 16.8457 53.2407 -4.70873 -33.8897 -51.1541 -3.93567 
-25.4338 -53.6509 -3.93567 -16.9779 -55 -3.93567 -8.52203 -55.5611 -3.93567 
-8.52203 -56.6861 3.25799 -0.0661195 -54.8642 -3.93567 8.38979 -52.6666 -3.93567 
16.8457 -48.9658 -3.93567 -38.6953 -48.2301 -3.93567 -42.3456 -45.3553 -3.93567 
17.9223 -48.2301 -3.93567 25.3016 -42.2363 -3.93567 -47.3096 -39.7742 -3.93567 
-50.8016 -32.8714 -3.93567 31.9645 -39.7742 -3.93567 33.7575 -39.0023 -3.93567 
33.7575 -39.7742 -2.89653 42.2134 -35.6705 -3.93567 50.6693 -33.2815 -3.93567 
-51.4896 -31.3183 -3.93567 55.0805 -31.3183 -3.93567 59.1252 -28.6243 -3.93567 
-54.2863 -22.8624 -3.93567 63.1257 -22.8624 -3.93567 -55.2994 -14.4065 -3.93567 
66.1972 -14.4065 -3.93567 -56.2833 -5.95062 -3.93567 66.6154 -5.95062 -3.93567 
-58.2729 2.50528 -3.93567 65.6773 2.50528 -3.93567 -58.7557 10.9612 -3.93567 
63.2929 10.9612 -3.93567 -58.9109 19.4171 -3.93567 60.2938 19.4171 -3.93567 
59.1252 21.5514 -3.93567 59.1252 19.4171 -1.23213 -56.9732 27.873 -3.93567 
55.2637 27.873 -3.93567 50.6693 33.4534 -3.93567 -51.4626 36.3289 -3.93567 
-50.8016 37.0764 -3.93567 -50.8016 36.3289 -1.4236 47.6666 36.3289 -3.93567 
42.2134 40.8965 -3.93567 -42.5595 44.7848 -3.93567 -42.3456 44.9495 -3.93567 
-42.3456 44.7848 -3.36013 -33.8897 49.6307 -3.93567 -25.4338 52.7797 -3.93567 
25.3016 50.7545 -3.93567 36.5201 44.7848 -3.93567 33.7575 46.5149 -3.93567 
33.7575 44.7848 1.02669 -22.8363 53.2407 -3.93567 -16.9779 54.2488 -3.93567 
-16.9779 53.2407 -0.799375 -8.52203 55.1928 -3.93567 -8.52203 53.2407 2.11465 
-0.0661195 54.8957 -3.93567 -0.0661195 53.2407 0.83056 8.38979 54.4134 -3.93567 
8.38979 53.2407 -0.589841 17.5537 53.2407 -3.93567 16.8457 53.4656 -3.93567 
16.8457 53.2407 -3.30648 -8.52203 -56.8516 4.52024 -33.8897 -51.5227 4.52024 
-25.4338 -54.3823 4.52024 -10.2674 -56.6861 4.52024 -16.9779 -56.0054 4.52024 
-4.25049 -56.6861 4.52024 -8.52203 -56.6861 4.98974 -0.0661195 -56.5153 4.52024 
8.38979 -54.9055 4.52024 16.8457 -51.7679 4.52024 -39.467 -48.2301 4.52024 
-42.3456 -46.077 4.52024 -33.8897 -48.2301 10.6868 23.0865 -48.2301 4.52024 
16.8457 -48.2301 11.659 25.3016 -46.9728 4.52024 33.7575 -43.1755 4.52024 
-48.1224 -39.7742 4.52024 -50.8016 -34.8263 4.52024 -42.3456 -39.7742 11.98 
41.7668 -39.7742 4.52024 42.2134 -39.6011 4.52024 50.6693 -36.0645 4.52024 
-52.4352 -31.3183 4.52024 -50.8016 -31.3183 8.69549 58.282 -31.3183 4.52024 
50.6693 -31.3183 11.7517 59.1252 -30.5115 4.52024 -55.1739 -22.8624 4.52024 
64.3201 -22.8624 4.52024 59.1252 -22.8624 11.6708 -56.5461 -14.4065 4.52024 
65.0772 -14.4065 4.52024 59.1252 -14.4065 12.2098 -57.3648 -5.95062 4.52024 
64.0247 -5.95062 4.52024 59.1252 -5.95062 10.2358 -59.1119 2.50528 4.52024 
62.026 2.50528 4.52024 59.1252 2.50528 7.76908 -59.193 10.9612 4.52024 
50.6693 10.9612 10.692 59.6472 10.9612 4.52024 59.1252 12.2707 4.52024 
59.1252 10.9612 5.07982 -58.8472 19.4171 4.52024 42.2134 19.4171 12.4249 
55.0762 19.4171 4.52024 50.6693 19.4171 8.16121 -55.2418 27.873 4.52024 
-50.8016 33.9415 4.52024 -50.8016 27.873 10.7491 33.7575 27.873 12.7728 
42.2134 27.873 9.00981 50.9578 27.873 4.52024 50.6693 28.2376 4.52024 
50.6693 27.873 4.79022 -48.2444 36.3289 4.52024 -42.3456 41.3887 4.52024 
-42.3456 36.3289 9.54978 -33.8897 36.3289 12.5866 25.3016 36.3289 12.2073 
33.7575 42.719 4.52024 33.7575 36.3289 8.506 43.0869 36.3289 4.52024 
42.2134 37.1056 4.52024 42.2134 36.3289 5.22944 -37.3622 44.7848 4.52024 
-33.8897 46.4543 4.52024 -33.8897 44.7848 6.41151 -25.4338 49.0444 4.52024 
-25.4338 44.7848 8.77791 -16.9779 50.9819 4.52024 -16.9779 44.7848 10.4996 
-8.52203 52.0978 4.52024 -8.52203 44.7848 11.2515 -0.0661195 51.5219 4.52024 
-0.0661195 44.7848 11.1312 8.38979 50.8709 4.52024 8.38979 44.7848 10.5726 
16.8457 49.5955 4.52024 16.8457 44.7848 9.15868 29.9604 44.7848 4.52024 
25.3016 46.6213 4.52024 25.3016 44.7848 6.50233 -25.4338 -48.4002 12.9761 
-16.9779 -51.3033 12.9761 -8.52203 -52.4771 12.9761 -0.0661195 -52.2921 12.9761 
8.38979 -50.6236 12.9761 -26.2104 -48.2301 12.9761 -33.8897 -45.9341 12.9761 
-25.4338 -48.2301 13.1491 -16.9779 -48.2301 15.4111 -8.52203 -48.2301 16.1502 
-0.0661195 -48.2301 16.0211 14.6215 -48.2301 12.9761 8.38979 -48.2301 14.8018 
16.8457 -47.0985 12.9761 25.3016 -43.7498 12.9761 33.7575 -40.2854 12.9761 
-40.9213 -39.7742 12.9761 -42.3456 -38.6059 12.9761 -33.8897 -39.7742 16.297 
-25.4338 -39.7742 18.3198 -16.9779 -39.7742 19.0079 -8.52203 -39.7742 19.4655 
-0.0661195 -39.7742 19.0296 8.38979 -39.7742 18.2151 16.8457 -39.7742 17.472 
25.3016 -39.7742 16.0568 35.6167 -39.7742 12.9761 33.7575 -39.7742 13.4028 
[...]
POINT_DATA 534
SCALARS ImageScalars float
LOOKUP_TABLE default
0 0 0 0 0 0 0 0 0 
0 0 0 0 0 0 0 0 0 
0 0 0 0 0 0 0 0 0 
0 0 0 0 0 0 0 0 0 
0 0 0 0 0 0 0 0 0 
0 0 0 0 0 0 0 0 0 
0 0 0 0 0 0 0 0 0 
0 0 0 0 0 0 0 0 0 
0 0 0 0 0 0 0 0 0 
0 0 0 0 0 0 0 0 0 
0 0 0 0 0 0 0 0 0 
0 0 0 0 0 0 0 0 0 
0 0 0 0 0 0 0 0 0 
0 0 0 0 0 0 0 0 0 
0 0 0 0 0 0 0 0 0 
0 0 0 0 0 0 0 0 0 
0 0 0 0 0 0 0 0 0 
0 0 0 0 0 0 0 0 0 
0 0 0 0 0 0 0 0 0 
0 0 0 0 0 0 0 0 0 
0 0 0 0 0 0 0 0 0 
0 0 0 0 0 0 0 0 0 
0 0 0 0 0 0 0 0 0 
0 0 0 0 0 0 0 0 0 
0 0 0 0 0 0 0 0 0 
0 0 0 0 0 0 0 0 0 
0 0 0 0 0 0 0 0 0 
0 0 0 0 0 0 0 0 0 
0 0 0 0 0 0 0 0 0 
0 0 0 0 0 0 0 0 0 
0 0 0 0 0 0 0 0 0 
0 0 0 0 0 0 0 0 0 
0 0 0 0 0 0 0 0 0 
0 0 0 0 0 0 0 0 0 
0 0 0 0 0 0 0 0 0 
0 0 0 0 0 0 0 0 0 
0 0 0 0 0 0 0 0 0 
0 0 0 0 0 0 0 0 0 
0 0 0 0 0 0 0 0 0 
0 0 0 0 0 0 0 0 0 
0 0 0 0 0 0 0 0 0 
0 0 0 0 0 0 0 0 0 
0 0 0 0 0 0 0 0 0 
0 0 0 0 0 0 0 0 0 
0 0 0 0 0 0 0 0 0 
0 0 0 0 0 0 0 0 0 
0 0 0 0 0 0 0 0 0 
0 0 0 0 0 0 0 0 0 
0 0 0 0 0 0 0 0 0 
0 0 0 0 0 0 0 0 0 
0 0 0 0 0 0 0 0 0 
0 0 0 0 0 0 0 0 0 
0 0 0 0 0 0 0 0 0 
0 0 0 0 0 0 0 0 0 
0 0 0 0 0 0 0 0 0 
0 0 0 0 0 0 0 0 0 
0 0 0 0 0 0 0 0 0 
0 0 0 0 0 0 0 0 0 
0 0 0 0 0 0 0 0 0 
0 0 0 
NORMALS Normals float
0.258141 0.368988 0.892867 0.0630369 0.350394 0.934479 -0.0164553 0.250711 0.967922 
-0.0180349 0.241331 0.970275 -0.0802929 0.274929 0.958106 -0.209291 0.317229 0.924967 
0.428512 0.280103 0.859023 0.184578 0.232482 0.954926 0.0118332 0.165311 0.986171 
-0.0755248 0.0933 0.992769 -0.0153207 0.0433637 0.998942 -0.0406099 0.0507965 0.997883 
-0.189119 0.137258 0.972314 -0.252883 0.197132 0.947201 0.390602 0.129987 0.911336 
0.122496 0.12821 0.984153 -0.0693083 0.051486 0.996266 -0.127402 0.0404862 0.991025 
-0.0609371 -0.0435479 0.997191 0.0147893 -0.0650427 0.997773 -0.071763 0.0672835 0.99515 
-0.16023 0.108695 0.981077 -0.0527101 0.243623 0.968437 -0.00699781 0.346943 0.93786 
-0.093294 0.317624 0.943616 0.362603 0.0526226 0.930457 0.0989337 0.01086 0.995035 
-0.0812208 -7.98585e-05 0.996696 -0.170523 0.0168913 0.985209 -0.127178 0.206158 0.970219 
0.0734809 -0.0242107 0.997003 -0.0233698 0.165483 0.985936 -0.0837259 0.0385619 0.995742 
0.0695496 0.139593 0.987763 0.0557155 0.20601 0.976962 0.0153181 0.256431 0.966441 
-0.182939 0.284999 0.940909 -0.504656 0.212767 0.836692 0.297826 0.0159362 0.954487 
0.0688254 -0.0587092 0.9959 -0.0627187 -0.106935 0.992286 0.0877954 -0.140628 0.986162 
-0.0565542 0.191935 0.979777 -0.034093 -0.11352 0.992951 -0.0114043 0.200881 0.979549 
-0.186465 0.103731 0.97697 0.110013 0.099193 0.988968 0.117061 0.132279 0.984276 
-0.0203352 0.13025 0.991273 -0.220414 0.0393853 0.974611 -0.508285 -0.000788477 0.861189 
0.564658 0.114841 0.817296 0.209793 0.0255083 0.977413 -0.0141995 -0.023367 0.999626 
-0.161219 -0.0456395 0.985863 0.011019 -0.0591561 0.998188 -0.0355214 -0.238677 0.970449 
0.168139 -0.0497671 0.984506 0.176896 0.0146768 0.98412 -0.158804 0.101826 0.982045 
0.090569 0.123361 0.98822 0.0870932 0.0969149 0.991475 -0.0661507 0.0801058 0.994589 
-0.256673 0.0201733 0.966288 -0.577693 -0.0387105 0.815336 0.534578 0.0296994 0.844597 
0.160358 0.0402847 0.986237 -0.000564348 0.0489498 0.998801 -0.0932591 0.111388 0.989392 
-0.0684512 0.176282 0.981957 -0.0734325 -0.090929 0.993146 0.186723 0.15902 0.969457 
0.077176 -0.142245 0.986818 -0.0629467 0.057067 0.996384 0.113149 0.0583176 0.991865 
0.083132 0.00164163 0.996537 -0.101587 0.00908326 0.994785 -0.315559 0.0135953 0.948808 
-0.740047 -0.0960016 0.665668 0.545141 -0.11387 0.830575 0.222936 -0.0164936 0.974694 
0.0532356 0.0583173 0.996878 -0.029527 0.115001 0.992926 -0.152256 0.138358 0.978609 
-0.115833 0.0760048 0.990357 0.0934867 0.152498 0.983872 0.112429 -0.0257166 0.993327 
0.0182141 0.0800521 0.996624 0.0322871 -0.0110001 0.999418 0.0293356 -0.0418961 0.998691 
-0.0424214 -0.196527 0.97958 -0.364562 -0.220554 0.904683 0.312429 -0.120553 0.942261 
0.133899 -0.0530822 0.989572 -0.00698313 0.0497902 0.998735 -0.116555 0.012483 0.993106 
-0.0573917 0.100239 0.993307 0.0770053 0.131621 0.988305 0.0480864 0.0625264 0.996884 
-0.0508052 0.0344464 0.998114 -0.00788332 -0.0360812 0.999318 -0.0994094 -0.192789 0.976192 
-0.262602 -0.286011 0.921541 -0.585184 -0.477416 0.655464 0.423377 -0.41454 0.805548 
0.227912 -0.25472 0.939773 0.0327594 -0.204334 0.978353 -0.0921524 -0.117634 0.988772 
-0.00202909 -0.0436719 0.999044 0.0583657 -0.0322751 0.997773 0.014371 -0.0807648 0.99663 
-0.0795601 -0.106273 0.991149 -0.190325 -0.234321 0.953347 -0.234365 -0.338452 0.91133 
0.338293 -0.62718 0.701572 0.125415 -0.492249 0.861372 0.0494528 -0.359125 0.931978 
0.0296651 -0.318005 0.947625 0.0367467 -0.327618 0.944095 -0.0218991 -0.371362 0.92823 
-0.193971 -0.411285 0.890629 -0.282236 -0.505088 0.815616 0.277705 0.443418 0.852209 
0.35167 0.721339 0.596656 0.0982397 0.535903 0.838544 0.129577 0.681847 0.719926 
0.0391717 0.485135 0.873561 0.0656553 0.574978 0.815531 -0.0287359 0.459951 0.887479 
-0.0297061 0.533987 0.844971 -0.106155 0.45821 0.882482 -0.127038 0.580811 0.804065 
-0.22342 0.403844 0.887126 -0.272851 0.65045 0.708849 -0.453281 0.715056 0.532195 
0.375504 0.414901 0.828767 0.460832 0.376938 0.803462 0.525103 0.494658 0.692518 
-0.27052 0.332001 0.903656 -0.274068 0.23569 0.932382 -0.352369 0.361811 0.863092 
-0.378295 0.58457 0.717754 0.521896 0.295765 0.800092 0.856979 0.375133 0.353359 
-0.238446 0.230442 0.943419 -0.11904 0.277987 0.95318 -0.205115 0.33658 0.919044 
-0.0152887 0.403809 0.914716 -0.0908756 0.549757 0.830367 -0.101086 0.383057 0.918177 
-0.130922 0.617678 0.775457 -0.315877 0.718637 0.619502 0.629432 0.16166 0.760054 
0.780662 0.182283 0.59778 -0.176171 0.402665 0.898234 -0.214336 0.442288 0.870886 
-0.231963 0.460398 0.85687 -0.508799 0.306561 0.804453 -0.587295 0.524544 0.616392 
0.649964 0.0918749 0.754391 0.732002 0.101339 0.673723 -0.571372 0.230606 0.787626 
0.650946 0.0925534 0.753461 0.648643 0.098209 0.75473 0.667786 0.0965711 0.738062 
-0.581359 -0.0069625 0.813617 0.612318 0.118898 0.78162 -0.638259 -0.0599225 0.767486 
0.657591 0.038977 0.752366 -0.748381 -0.0990232 0.655835 -0.753012 -0.13445 0.644125 
0.62515 -0.106227 0.773242 0.641443 -0.199139 0.740874 -0.734725 -0.328476 0.593534 
-0.870563 -0.38008 0.312506 0.642698 -0.208675 0.737152 0.660331 -0.217406 0.718817 
-0.440806 -0.619789 0.64927 -0.598094 -0.479641 0.64205 -0.592712 -0.483857 0.643876 
0.564074 -0.479409 0.6723 0.763008 -0.626976 0.157226 0.498438 -0.57883 0.64538 
-0.438788 -0.6182 0.652145 -0.39682 -0.652153 0.645934 -0.449916 -0.630755 0.632237 
0.41462 -0.660535 0.625926 0.586433 -0.809467 0.0293147 0.369761 -0.681754 0.63126 
0.233018 -0.729966 0.642536 0.0708082 -0.780826 0.620723 -0.0147698 -0.726503 0.687005 
0.00353395 -0.769487 0.638652 -0.0657162 -0.795746 0.602054 -0.183873 -0.755332 0.629018 
-0.380754 -0.647535 0.660094 -0.315936 -0.603822 0.731836 -0.456993 -0.766322 0.451561 
0.109366 -0.933329 0.341959 -0.00398636 -0.915292 0.402772 -0.0248849 -0.939852 0.340673 
-0.0882343 -0.966576 0.240719 -0.211403 -0.977305 0.0135847 0.396253 0.868791 0.296963 
0.221525 0.904209 0.365149 0.0982885 0.925874 0.364824 -0.00623168 0.924708 0.380625 
0.0240662 0.998641 -0.0462344 -0.147177 0.893143 0.425012 -0.29996 0.832224 0.466291 
-0.458088 0.742449 0.4888 0.526637 0.79325 0.305626 0.633891 0.711166 0.304016 
-0.46686 0.73201 0.496188 -0.424463 0.669467 0.609627 0.770361 0.554294 0.315123 
0.8647 0.40501 0.297088 -0.314297 0.710292 0.629844 -0.28339 0.717894 0.63586 
-0.313631 0.766505 0.560452 -0.25129 0.779491 0.5738 -0.319046 0.812408 0.48806 
0.879177 0.373356 0.296063 -0.450999 0.760092 0.467824 -0.619948 0.659752 0.424724 
0.926261 0.198397 0.320435 -0.787013 0.472428 0.396765 0.936839 0.122743 0.327518 
-0.947498 0.198263 0.250878 0.934172 0.164058 0.31687 -0.99732 -0.0352146 0.0641366 
0.942395 0.141236 0.303223 -0.980164 -0.191246 0.0519953 0.963347 0.0350319 0.265961 
-0.947578 -0.319241 -0.0134443 0.969016 -0.0927309 0.228931 -0.903492 -0.417565 -0.0966543 
-0.885892 -0.453122 -0.0993764 -0.864457 -0.42814 -0.263457 0.908171 -0.384803 0.164778 
-0.813105 -0.579735 -0.0525995 -0.726633 -0.685029 -0.0523463 0.767412 -0.638999 0.0525294 
0.755604 -0.653405 0.0460872 0.743676 -0.66507 -0.0680358 -0.68504 -0.727544 -0.0374141 
-0.609791 -0.792562 0.000402893 0.587132 -0.809446 -0.00848155 0.582761 -0.812587 -0.00955226 
0.583603 -0.81111 -0.0388303 0.429239 -0.903074 -0.0145432 0.251792 -0.966046 -0.057926 
-0.372768 -0.927039 -0.0405209 -0.532533 -0.845708 -0.0344497 -0.501963 -0.864232 -0.0337097 
-0.489343 -0.803281 -0.339532 0.216959 -0.974126 -0.0633029 0.142438 -0.987548 -0.0667937 
0.148584 -0.961784 -0.229989 0.0364271 -0.999335 -0.00186834 0.0299697 -0.924334 -0.380407 
-0.0469936 -0.998444 -0.0300056 -0.0578609 -0.949724 -0.307694 -0.0822686 -0.995393 -0.0492315 
-0.0872821 -0.968407 -0.233602 -0.225057 -0.973716 -0.0350236 -0.212032 -0.976684 -0.0336269 
-0.211871 -0.974897 -0.0684636 0.0284736 0.993268 -0.112286 0.415623 0.885172 -0.209112 
0.261855 0.940909 -0.214762 0.0496851 0.991713 -0.118476 0.135313 0.97982 -0.147118 
-0.0431563 0.993933 -0.101165 0.0297423 0.989924 -0.13844 -0.11308 0.989416 -0.0909354 
-0.263146 0.962292 -0.0689124 -0.417219 0.907542 -0.0479198 0.552857 0.807399 -0.20605 
0.627689 0.748944 -0.212342 0.362142 0.730973 -0.578387 -0.470551 0.882228 0.0160093 
-0.347256 0.721579 -0.598947 -0.479786 0.875869 0.051562 -0.400246 0.91368 0.0706471 
0.800383 0.56891 -0.189019 0.879125 0.456964 -0.135367 0.532788 0.574562 -0.621302 
-0.362642 0.926619 0.099339 -0.361582 0.926963 0.0999907 -0.503131 0.862227 -0.0585151 
0.912733 0.391067 -0.118254 0.851985 0.420304 -0.312196 -0.677185 0.718609 -0.158185 
-0.522962 0.588549 -0.616539 -0.71024 0.682942 -0.170733 0.972288 0.218455 -0.0832621 
-0.899556 0.355168 -0.254273 -0.633202 0.244109 -0.734483 0.989212 0.13902 -0.0461773 
-0.89901 -0.0142897 -0.437694 -0.619084 -0.0612892 -0.782929 0.987956 0.145112 -0.0537185 
-0.867802 -0.158521 -0.470946 -0.601618 -0.188933 -0.776119 0.987772 0.108812 -0.111653 
-0.774007 -0.22745 -0.590915 -0.677485 -0.231959 -0.698004 0.993345 -0.0132793 -0.114405 
-0.475317 -0.235342 -0.847755 -0.740298 -0.286114 -0.608356 -0.727989 -0.300896 -0.616031 
-0.71831 -0.286395 -0.634042 0.953918 -0.18311 -0.237719 -0.328811 -0.291805 -0.898183 
-0.655723 -0.362648 -0.662204 -0.543561 -0.305955 -0.781622 0.790925 -0.486578 -0.371053 
0.674136 -0.636628 -0.374494 0.623788 -0.442624 -0.644184 -0.290219 -0.333123 -0.897107 
-0.414097 -0.367375 -0.832802 -0.616476 -0.455206 -0.642452 -0.610955 -0.466533 -0.639594 
-0.606233 -0.452781 -0.653812 0.611713 -0.673289 -0.415318 0.515166 -0.708524 -0.482283 
0.380698 -0.624301 -0.682142 0.190855 -0.499116 -0.845256 -0.287828 -0.350654 -0.891177 
-0.432949 -0.665887 -0.607577 -0.367207 -0.46335 -0.806515 -0.523823 -0.601974 -0.602691 
-0.523052 -0.60792 -0.597369 -0.501909 -0.573786 -0.647192 0.408527 -0.752317 -0.516841 
0.337468 -0.765437 -0.547925 0.305745 -0.725414 -0.61668 0.221751 -0.781505 -0.58316 
0.189034 -0.648145 -0.737682 0.137716 -0.821937 -0.552679 0.11551 -0.609421 -0.784388 
0.0250954 -0.83046 -0.556513 0.0296687 -0.581672 -0.812882 -0.0549627 -0.829541 -0.555735 
-0.0309328 -0.618715 -0.785006 -0.0861922 -0.821287 -0.563967 -0.090121 -0.630815 -0.770682 
-0.189135 -0.784659 -0.590371 -0.17326 -0.63298 -0.754531 -0.372708 -0.722722 -0.582033 
-0.302154 -0.74421 -0.595697 -0.28199 -0.690817 -0.665773 0.215959 0.670316 -0.709957 
0.16916 0.691861 -0.701935 0.0438294 0.70915 -0.703694 -0.081214 0.709514 -0.699995 
-0.214095 0.677458 -0.703714 0.226056 0.667103 -0.709839 0.322891 0.610501 -0.723208 
0.214277 0.664672 -0.715749 0.133676 0.562227 -0.816108 0.0333031 0.521095 -0.852848 
-0.0770881 0.511531 -0.8558 -0.287238 0.645587 -0.70761 -0.198963 0.562356 -0.802602 
-0.297474 0.629033 -0.718211 -0.286756 0.708118 -0.645244 -0.292414 0.684873 -0.667415 
0.47571 0.544385 -0.690901 0.504301 0.539856 -0.673971 0.273332 0.440259 -0.855255 
0.152136 0.341446 -0.927507 0.0603843 0.293582 -0.954025 0.00236571 0.265382 -0.964141 
-0.0770776 0.22862 -0.97046 -0.0815302 0.218118 -0.972511 -0.129415 0.34342 -0.930223 
-0.226215 0.479229 -0.848037 -0.307144 0.698621 -0.646213 -0.281157 0.662027 -0.694745 
-0.361809 0.680263 -0.637445 0.689257 0.425872 -0.586138 0.765679 0.341146 -0.545303 
0.396534 0.377735 -0.836706 0.172517 0.346096 -0.922202 0.0657509 0.207219 -0.976083 
0.0123244 0.134826 -0.990793 -0.043414 0.0724059 -0.99643 -0.118735 0.0227163 -0.992666 
-0.0713955 0.00989486 -0.997399 -0.0321948 0.0662088 -0.997286 -0.0464421 0.173052 -0.983817 
-0.15295 0.327701 -0.932319 -0.465494 0.502196 -0.728777 -0.261939 0.338441 -0.903795 
-0.472594 0.463695 -0.749428 0.799885 0.270048 -0.535965 0.72697 0.264664 -0.633614 
0.372144 0.254287 -0.892663 -0.0778791 0.00982778 -0.996914 -0.108483 -0.0525528 -0.992708 
-0.145068 -0.0740501 -0.986647 -0.038885 -0.0666452 -0.997019 0.041595 -0.0465886 -0.998048 
0.00673439 0.0213913 -0.999749 -0.0611824 0.0446666 -0.997127 -0.144271 0.172566 -0.974375 
-0.528943 0.222601 -0.818943 -0.343506 0.167711 -0.924054 0.87239 0.146305 -0.466402 
0.719791 0.14477 -0.678927 -0.14895 -0.0576123 -0.987165 -0.124432 -0.101488 -0.987024 
-0.135413 -0.00767175 -0.990759 -0.0419649 0.0622675 -0.997177 0.056149 -0.0993173 -0.99347 
0.05047 -0.0674201 -0.996447 0.0155048 -0.0365102 -0.999213 -0.146314 -0.0242161 -0.988942 
-0.568336 -0.061949 -0.820461 -0.388507 -0.0782733 -0.918115 0.874305 0.0776886 -0.479119 
0.657718 0.0288272 -0.752713 -0.18716 -0.0494077 -0.981086 -0.058458 0.102552 -0.993008 
0.028855 0.0547888 -0.998081 -0.136981 0.0935847 -0.986143 -0.089532 0.0768129 -0.993017 
0.0697002 0.0055263 -0.997553 -0.0171289 -0.0748964 -0.997044 -0.194125 -0.163403 -0.967272 
-0.434585 -0.178423 -0.88278 -0.362119 -0.161543 -0.918027 0.821127 0.0371 -0.569538 
0.606386 -0.0534756 -0.79337 0.0128097 -0.0227078 -0.99966 -0.170892 0.0291419 -0.984859 
-0.0159514 -0.0255978 -0.999545 -0.0223069 0.161508 -0.986619 -0.109392 0.067775 -0.991685 
-0.156672 -0.0670041 -0.985375 -0.248548 -0.170199 -0.953549 -0.394131 -0.213809 -0.893838 
-0.391961 -0.212394 -0.895129 -0.387886 -0.212053 -0.896983 0.774136 -0.112117 -0.623011 
0.548275 -0.170285 -0.818778 0.216902 -0.172512 -0.960829 0.0276837 -0.165151 -0.98588 
-0.0747005 -0.139093 -0.987458 -0.0102988 -0.0873862 -0.996121 -0.00868991 -0.231549 -0.972784 
-0.0935426 -0.0520278 -0.994255 0.000104674 -0.022484 -0.999747 -0.00226032 -0.0931045 -0.995654 
-0.150407 -0.108389 -0.982665 -0.253841 -0.137593 -0.957409 -0.393989 -0.205048 -0.895951 
-0.327965 -0.268093 -0.905851 -0.338476 -0.19769 -0.919974 0.613266 -0.285036 -0.736654 
0.565941 -0.350781 -0.746099 0.525346 -0.280311 -0.803391 0.26305 -0.286609 -0.921228 
0.0481975 -0.24916 -0.967262 -0.0567235 -0.203162 -0.977501 -0.0587889 -0.139284 -0.988506 
0.0171521 -0.14536 -0.98923 0.029589 -0.0658335 -0.997392 -0.0611388 -0.0499672 -0.996878 
-0.110968 -0.181494 -0.977111 -0.153776 -0.253054 -0.955153 -0.309847 -0.282362 -0.907891 
-0.286345 -0.324883 -0.901364 -0.254558 -0.250548 -0.934037 0.485479 -0.414045 -0.769985 
0.28906 -0.511822 -0.809001 0.270357 -0.413111 -0.869624 0.177655 -0.486173 -0.855614 
0.105327 -0.374254 -0.921325 0.047003 -0.292535 -0.955099 0.0397224 -0.186366 -0.981677 
0.0597621 -0.143098 -0.987903 0.014168 -0.155902 -0.987671 -0.115034 -0.16935 -0.97882 
-0.205404 -0.194458 -0.959164 -0.281287 -0.324932 -0.902938 -0.262461 -0.31594 -0.911754 
-0.213455 -0.263829 -0.940655 0.17404 -0.479844 -0.859918 0.149036 -0.470219 -0.869875 
0.138443 -0.422178 -0.895879 0.106414 -0.484844 -0.868103 0.0953239 -0.366629 -0.925471 
0.0408315 -0.497727 -0.866372 0.0513135 -0.352429 -0.934431 -0.0209324 -0.537187 -0.843203 
-0.000420974 -0.384919 -0.92295 -0.0976751 -0.523067 -0.846676 -0.0990966 -0.38866 -0.916037 
-0.254329 -0.352989 -0.900397 -0.187291 -0.440068 -0.878215 -0.202333 -0.368521 -0.907333 
0.13066 0.279857 -0.951109 -0.0184791 0.152899 -0.988069 0.254922 0.235223 -0.937915 
0.321468 0.168449 -0.931817 0.0927402 0.208408 -0.973635 -0.0806057 0.0257328 -0.996414 
-0.0907876 0.105572 -0.990259 0.346519 0.123802 -0.929837 0.288497 0.120336 -0.949889 
0.0196889 0.0496938 -0.99857 -0.146742 -0.0408355 -0.988331 -0.141265 0.00722355 -0.989945 
0.361552 -0.0145229 -0.932239 0.278248 -0.0249125 -0.960186 -0.0182613 -0.0523846 -0.99846 
-0.190524 -0.0472558 -0.980544 -0.189932 -0.0454702 -0.980744 -0.0244744 0.117926 -0.992721 
0.264123 -0.122784 -0.956642 0.235012 -0.134088 -0.962699 0.238287 -0.126334 -0.962943 
0.0246482 -0.160093 -0.986794 0.00299444 -0.136701 -0.990608 -0.104772 -0.0669128 -0.992243 
-0.116929 -0.10301 -0.987784 -0.142418 -0.0811762 -0.986472 0.00106414 0.0601225 -0.99819 
-0.0728813 0.0873215 -0.993511 -0.00991005 -0.0736288 -0.997236 -0.00553401 0.117625 -0.993043 

