# vtk DataFile Version 4.2
vtk output
ASCII
DATASET POLYDATA
POINTS 525 float
-21.184 -40.715 -13.4014 -13.0925 -40.715 -14.7736 -5.00096 -40.715 -14.9854 
3.09056 -40.715 -13.636 -29.2755 -32.6235 -14.5766 -21.184 -32.6235 -16.3268 
-13.0925 -32.6235 -16.4417 -5.00096 -32.6235 -16.5841 3.09056 -32.6235 -15.1994 
11.1821 -32.6235 -13.8838 19.2736 -32.6235 -12.0722 -37.367 -24.5319 -13.6373 
-29.2755 -24.5319 -16.3066 -21.184 -24.5319 -16.7519 -13.0925 -24.5319 -16.7979 
-5.00096 -24.5319 -16.8846 3.09056 -24.5319 -15.8321 11.1821 -24.5319 -14.7387 
19.2736 -24.5319 -13.8723 27.3651 -24.5319 -12.9734 35.4566 -24.5319 -12.3213 
-37.367 -16.4404 -15.2081 -29.2755 -16.4404 -16.489 -21.184 -16.4404 -16.6523 
-13.0925 -16.4404 -16.3865 -5.00096 -16.4404 -16.7339 3.09056 -16.4404 -16.6137 
11.1821 -16.4404 -15.7371 19.2736 -16.4404 -14.9048 27.3651 -16.4404 -14.6682 
35.4566 -16.4404 -14.6018 43.5482 -16.4404 -14.0908 -45.4586 -8.3489 -14.1422 
-37.367 -8.3489 -16.2337 -29.2755 -8.3489 -17.0672 -21.184 -8.3489 -16.9185 
-13.0925 -8.3489 -17.3847 -5.00096 -8.3489 -19.2008 3.09056 -8.3489 -17.3518 
11.1821 -8.3489 -16.5415 19.2736 -8.3489 -15.2334 27.3651 -8.3489 -15.9643 
35.4566 -8.3489 -16.1938 43.5482 -8.3489 -15.5433 51.6397 -8.3489 -13.7222 
-45.4586 -0.257382 -15.5837 -37.367 -0.257382 -16.7752 -29.2755 -0.257382 -17.2822 
-21.184 -0.257382 -16.9746 -13.0925 -0.257382 -17.8045 -5.00096 -0.257382 -17.8371 
3.09056 -0.257382 -16.5888 11.1821 -0.257382 -17.1969 19.2736 -0.257382 -15.8701 
27.3651 -0.257382 -16.7851 35.4566 -0.257382 -17.2401 43.5482 -0.257382 -16.7712 
51.6397 -0.257382 -15.4734 -45.4586 7.83414 -15.5027 -37.367 7.83414 -16.9512 
-29.2755 7.83414 -17.0144 -21.184 7.83414 -16.1858 -13.0925 7.83414 -15.2413 
-5.00096 7.83414 -16.675 3.09056 7.83414 -19.1042 11.1821 7.83414 -17.1576 
19.2736 7.83414 -16.7363 27.3651 7.83414 -17.4629 35.4566 7.83414 -17.6951 
43.5482 7.83414 -16.9841 51.6397 7.83414 -15.2796 -45.4586 15.9257 -15.5914 
-37.367 15.9257 -17.5085 -29.2755 15.9257 -17.3291 -21.184 15.9257 -17.0759 
-13.0925 15.9257 -16.7343 -5.00096 15.9257 -15.864 3.09056 15.9257 -14.3882 
11.1821 15.9257 -15.6208 19.2736 15.9257 -17.2696 27.3651 15.9257 -17.8737 
35.4566 15.9257 -17.7033 43.5482 15.9257 -16.4577 51.6397 15.9257 -13.2521 
-45.4586 24.0172 -14.474 -37.367 24.0172 -16.0758 -29.2755 24.0172 -17.1335 
-21.184 24.0172 -17.7084 -13.0925 24.0172 -17.826 -5.00096 24.0172 -17.2011 
3.09056 24.0172 -16.2894 11.1821 24.0172 -16.3752 19.2736 24.0172 -17.3134 
27.3651 24.0172 -17.8475 35.4566 24.0172 -17.8074 43.5482 24.0172 -15.3818 
51.6397 24.0172 -12.2564 -45.4586 32.1087 -13.2476 -37.367 32.1087 -14.4784 
-29.2755 32.1087 -16.4642 -21.184 32.1087 -16.9246 -13.0925 32.1087 -17.5464 
-5.00096 32.1087 -17.4846 3.09056 32.1087 -16.8447 11.1821 32.1087 -16.6339 
19.2736 32.1087 -16.7407 27.3651 32.1087 -17.243 35.4566 32.1087 -16.1892 
43.5482 32.1087 -12.6473 -29.2755 40.2002 -12.382 -21.184 40.2002 -14.0771 
-13.0925 40.2002 -14.8189 -5.00096 40.2002 -15.4289 3.09056 40.2002 -15.4664 
11.1821 40.2002 -15.1569 19.2736 40.2002 -15.3823 27.3651 40.2002 -14.0031 
-21.184 -43.5955 -11.9649 -21.184 -48.8065 -5.67899 -13.0925 -46.0884 -11.9649 
-13.0925 -48.8065 -10.0736 -5.00096 -47.3829 -11.9649 -5.00096 -48.8065 -11.1988 
3.09056 -45.4978 -11.9649 3.09056 -48.8065 -10.5653 11.1821 -48.8065 -8.49866 
-24.6884 -40.715 -11.9649 -29.2755 -37.4867 -11.9649 -29.2755 -40.715 -8.90649 
10.3543 -40.715 -11.9649 11.1821 -40.0343 -11.9649 11.1821 -40.715 -11.7669 
19.2736 -32.9476 -11.9649 19.2736 -40.715 -9.15435 27.3651 -40.715 -6.28553 
-34.5635 -32.6235 -11.9649 -37.367 -28.8325 -11.9649 -37.367 -32.6235 -9.74836 
19.8499 -32.6235 -11.9649 27.3651 -27.9185 -11.9649 27.3651 -32.6235 -10.5185 
35.4566 -25.4176 -11.9649 35.4566 -32.6235 -7.86988 -41.2124 -24.5319 -11.9649 
-45.4586 -24.5319 -8.26789 36.4264 -24.5319 -11.9649 43.5482 -20.108 -11.9649 
43.5482 -24.5319 -9.16916 51.6397 -24.5319 -4.77705 -44.4629 -16.4404 -11.9649 
-45.4586 -15.1226 -11.9649 -45.4586 -16.4404 -11.3871 48.5401 -16.4404 -11.9649 
51.6397 -13.043 -11.9649 51.6397 -16.4404 -10.5491 59.7312 -16.4404 -4.59133 
-49.7815 -8.3489 -11.9649 -53.5501 -8.3489 -8.93066 55.6266 -8.3489 -11.9649 
59.7312 -8.3489 -9.51402 -52.4764 -0.257382 -11.9649 -53.5501 -0.257382 -11.1144 
58.6175 -0.257382 -11.9649 59.7312 -0.257382 -11.1906 -53.2563 7.83414 -11.9649 
-53.5501 7.83414 -11.8024 57.841 7.83414 -11.9649 59.7312 7.83414 -10.2034 
-52.6108 15.9257 -11.9649 -53.5501 15.9257 -11.3043 53.5102 15.9257 -11.9649 
59.7312 15.9257 -4.84145 -51.6767 24.0172 -11.9649 -53.5501 24.0172 -11.0343 
51.9896 24.0172 -11.9649 51.6397 24.6768 -11.9649 -47.2727 32.1087 -11.9649 
-45.4586 33.9267 -11.9649 -37.367 38.3145 -11.9649 35.4566 39.9323 -11.9649 
44.6833 32.1087 -11.9649 43.5482 33.4129 -11.9649 51.6397 32.1087 -4.03789 
-31.4947 40.2002 -11.9649 -37.367 40.2002 -9.8816 -29.2755 40.6186 -11.9649 
-21.184 42.7401 -11.9649 -13.0925 43.5648 -11.9649 -5.00096 44.7985 -11.9649 
3.09056 45.4867 -11.9649 11.1821 45.2662 -11.9649 19.2736 46.0124 -11.9649 
34.8725 40.2002 -11.9649 27.3651 43.42 -11.9649 35.4566 40.2002 -11.7147 
43.5482 40.2002 -5.16183 -5.00096 48.2917 -5.12028 3.09056 48.2917 -7.97679 
11.1821 48.2917 -7.80277 19.2736 48.2917 -7.02771 -21.184 -49.6981 -3.87342 
-13.0925 -53.7502 -3.87342 -5.00096 -55.7643 -3.87342 3.09056 -55.3607 -3.87342 
3.09056 -56.898 2.10039 11.1821 -52.4746 -3.87342 -22.6384 -48.8065 -3.87342 
-29.2755 -44.5665 -3.87342 18.6286 -48.8065 -3.87342 19.2736 -48.4087 -3.87342 
19.2736 -48.8065 -2.82756 27.3651 -43.0033 -3.87342 -34.3195 -40.715 -3.87342 
-37.367 -38.1291 -3.87342 30.5825 -40.715 -3.87342 35.4566 -36.2971 -3.87342 
-42.7298 -32.6235 -3.87342 -45.4586 -28.7778 -3.87342 41.2043 -32.6235 -3.87342 
43.5482 -31.0955 -3.87342 51.6397 -25.2433 -3.87342 -48.0357 -24.5319 -3.87342 
52.4489 -24.5319 -3.87342 59.7312 -17.1283 -3.87342 -52.3936 -16.4404 -3.87342 
-53.5501 -14.6197 -3.87342 60.229 -16.4404 -3.87342 59.7312 -16.4404 1.48835 
-56.8969 -8.3489 -3.87342 63.4817 -8.3489 -3.87342 -60.2585 -0.257382 -3.87342 
64.1231 -0.257382 -3.87342 -61.0675 7.83414 -3.87342 -61.6416 7.83414 3.0922 
62.8592 7.83414 -3.87342 -60.6993 15.9257 -3.87342 60.2324 15.9257 -3.87342 
59.7312 17.0458 -3.87342 59.7312 15.9257 -1.46379 -58.4653 24.0172 -3.87342 
-53.5501 31.1151 -3.87342 56.3255 24.0172 -3.87342 -52.6954 32.1087 -3.87342 
-45.4586 38.4916 -3.87342 51.7127 32.1087 -3.87342 51.6397 32.2114 -3.87342 
51.6397 32.1087 -3.53533 -42.2258 40.2002 -3.87342 -37.367 42.486 -3.87342 
-29.2755 45.2372 -3.87342 -21.184 46.0446 -3.87342 -13.0925 47.0004 -3.87342 
27.3651 47.7758 -3.87342 35.4566 45.3827 -3.87342 44.2814 40.2002 -3.87342 
43.5482 40.7849 -3.87342 43.5482 40.2002 -1.46714 -6.99006 48.2917 -3.87342 
-5.00096 48.707 -3.87342 -5.00096 48.2917 -2.14734 3.09056 49.955 -3.87342 
3.09056 48.2917 2.80023 11.1821 49.889 -3.87342 11.1821 48.2917 2.32787 
24.4257 48.2917 -3.87342 19.2736 49.1686 -3.87342 19.2736 48.2917 -0.421662 
3.09056 -57.2781 4.21811 -21.184 -48.9625 4.21811 -13.0925 -53.2949 4.21811 
-2.88309 -56.898 4.21811 -5.00096 -56.7338 4.21811 4.45112 -56.898 4.21811 
3.09056 -56.898 5.15534 11.1821 -54.6558 4.21811 19.2736 -50.666 4.21811 
-21.4092 -48.8065 4.21811 -29.2755 -43.6331 4.21811 -21.184 -48.8065 4.43382 
-13.0925 -48.8065 10.0057 11.1821 -48.8065 11.8262 22.0384 -48.8065 4.21811 
19.2736 -48.8065 7.77039 27.3651 -44.6108 4.21811 -32.9618 -40.715 4.21811 
-37.367 -36.7044 4.21811 -29.2755 -40.715 7.56225 32.3279 -40.715 4.21811 
27.3651 -40.715 8.3228 35.4566 -37.9145 4.21811 -41.7089 -32.6235 4.21811 
-45.4586 -28.5953 4.21811 -37.367 -32.6235 8.99916 42.6277 -32.6235 4.21811 
35.4566 -32.6235 8.69695 43.5482 -31.89 4.21811 51.6397 -25.3612 4.21811 
-48.3409 -24.5319 4.21811 -45.4586 -24.5319 8.59177 43.5482 -24.5319 9.95683 
52.5212 -24.5319 4.21811 51.6397 -24.5319 5.20336 -53.2432 -16.4404 4.21811 
-53.5501 -15.9475 4.21811 59.3405 -16.4404 4.21811 59.7312 -15.7966 4.21811 
-57.6577 -8.3489 4.21811 -53.5501 -8.3489 11.1563 51.6397 -8.3489 12.1105 
62.7771 -8.3489 4.21811 59.7312 -8.3489 7.87585 -60.3358 -0.257382 4.21811 
-61.6416 7.3696 4.21811 51.6397 -0.257382 12.261 63.0788 -0.257382 4.21811 
59.7312 -0.257382 8.21949 -61.7177 7.83414 4.21811 -61.6416 8.65086 4.21811 
-61.6416 7.83414 4.37574 51.6397 7.83414 11.4064 61.3143 7.83414 4.21811 
59.7312 12.3279 4.21811 59.7312 7.83414 6.11199 -60.7973 15.9257 4.21811 
-53.5501 15.9257 12.0107 58.0989 15.9257 4.21811 51.6397 15.9257 10.4703 
-58.1315 24.0172 4.21811 -53.5501 30.2515 4.21811 -53.5501 24.0172 10.5131 
43.5482 24.0172 11.4616 54.4023 24.0172 4.21811 51.6397 28.9327 4.21811 
51.6397 24.0172 7.17985 -51.7858 32.1087 4.21811 -45.4586 37.1805 4.21811 
-45.4586 32.1087 10.6209 -37.367 32.1087 11.9674 35.4566 32.1087 12.139 
49.062 32.1087 4.21811 43.5482 38.0005 4.21811 43.5482 32.1087 9.17204 
-39.0276 40.2002 4.21811 -37.367 40.89 4.21811 -37.367 40.2002 5.43339 
-29.2755 42.7557 4.21811 -29.2755 40.2002 7.88272 -21.184 43.571 4.21811 
-21.184 40.2002 8.231 -13.0925 44.6001 4.21811 -13.0925 40.2002 9.37398 
-5.00096 46.3834 4.21811 -5.00096 40.2002 10.9427 3.09056 47.8252 4.21811 
3.09056 40.2002 11.4518 11.1821 47.6658 4.21811 11.1821 40.2002 11.0632 
19.2736 46.7449 4.21811 19.2736 40.2002 10.26 27.3651 45.2426 4.21811 
27.3651 40.2002 9.02479 40.5019 40.2002 4.21811 35.4566 42.6705 4.21811 
35.4566 40.2002 7.35011 -5.00096 -50.3138 12.3096 3.09056 -51.2311 12.3096 
-21.184 -40.9032 12.3096 -8.13527 -48.8065 12.3096 -13.0925 -46.0055 12.3096 
-5.00096 -48.8065 13.3207 9.558 -48.8065 12.3096 3.09056 -48.8065 13.6834 
11.1821 -47.9164 12.3096 19.2736 -43.8934 12.3096 -21.4279 -40.715 12.3096 
-29.2755 -35.2565 12.3096 -21.184 -40.715 12.4295 -13.0925 -40.715 15.4257 
-5.00096 -40.715 17.2277 3.09056 -40.715 17.0033 11.1821 -40.715 15.193 
21.8822 -40.715 12.3096 19.2736 -40.715 13.6143 27.3651 -34.667 12.3096 
[...]
POINT_DATA 525
SCALARS ImageScalars float
LOOKUP_TABLE default
0 0 0 0 0 0 0 0 0 
0 0 0 0 0 0 0 0 0 
0 0 0 0 0 0 0 0 0 
0 0 0 0 0 0 0 0 0 
0 0 0 0 0 0 0 0 0 
0 0 0 0 0 0 0 0 0 
0 0 0 0 0 0 0 0 0 
0 0 0 0 0 0 0 0 0 
0 0 0 0 0 0 0 0 0 
0 0 0 0 0 0 0 0 0 
0 0 0 0 0 0 0 0 0 
0 0 0 0 0 0 0 0 0 
0 0 0 0 0 0 0 0 0 
0 0 0 0 0 0 0 0 0 
0 0 0 0 0 0 0 0 0 
0 0 0 0 0 0 0 0 0 
0 0 0 0 0 0 0 0 0 
0 0 0 0 0 0 0 0 0 
0 0 0 0 0 0 0 0 0 
0 0 0 0 0 0 0 0 0 
0 0 0 0 0 0 0 0 0 
0 0 0 0 0 0 0 0 0 
0 0 0 0 0 0 0 0 0 
0 0 0 0 0 0 0 0 0 
0 0 0 0 0 0 0 0 0 
0 0 0 0 0 0 0 0 0 
0 0 0 0 0 0 0 0 0 
0 0 0 0 0 0 0 0 0 
0 0 0 0 0 0 0 0 0 
0 0 0 0 0 0 0 0 0 
0 0 0 0 0 0 0 0 0 
0 0 0 0 0 0 0 0 0 
0 0 0 0 0 0 0 0 0 
0 0 0 0 0 0 0 0 0 
0 0 0 0 0 0 0 0 0 
0 0 0 0 0 0 0 0 0 
0 0 0 0 0 0 0 0 0 
0 0 0 0 0 0 0 0 0 
0 0 0 0 0 0 0 0 0 
0 0 0 0 0 0 0 0 0 
0 0 0 0 0 0 0 0 0 
0 0 0 0 0 0 0 0 0 
0 0 0 0 0 0 0 0 0 
0 0 0 0 0 0 0 0 0 
0 0 0 0 0 0 0 0 0 
0 0 0 0 0 0 0 0 0 
0 0 0 0 0 0 0 0 0 
0 0 0 0 0 0 0 0 0 
0 0 0 0 0 0 0 0 0 
0 0 0 0 0 0 0 0 0 
0 0 0 0 0 0 0 0 0 
0 0 0 0 0 0 0 0 0 
0 0 0 0 0 0 0 0 0 
0 0 0 0 0 0 0 0 0 
0 0 0 0 0 0 0 0 0 
0 0 0 0 0 0 0 0 0 
0 0 0 0 0 0 0 0 0 
0 0 0 0 0 0 0 0 0 
0 0 0 
NORMALS Normals float
0.260203 0.403533 0.877186 0.0959488 0.323093 0.941491 -0.0607966 0.287561 0.955831 
-0.191955 0.251198 0.948711 0.300345 0.317167 0.899554 0.120876 0.201574 0.971986 
0.0150779 0.117689 0.992936 -0.0762649 0.112056 0.990771 -0.158265 0.121634 0.979876 
-0.189608 0.176698 0.96583 -0.191269 0.264357 0.945268 0.357692 0.257609 0.897605 
0.189808 0.123281 0.974051 0.0283539 0.0178384 0.999439 0.00814454 -0.00374261 0.99996 
-0.0589769 0.00874759 0.998221 -0.132751 0.0845624 0.987536 -0.118412 0.10927 0.986934 
-0.105917 0.168088 0.980065 -0.0857103 0.235415 0.968108 -0.211134 0.340836 0.916108 
0.263521 0.164894 0.950456 0.0832744 0.0481929 0.995361 -0.00651143 0.0103904 0.999925 
0.00495948 0.032404 0.999463 0.0145953 0.137002 0.990463 -0.0620473 0.0931127 0.99372 
-0.104029 0.111833 0.988267 -0.0652056 0.0830349 0.994411 -0.0184029 0.181195 0.983275 
-0.0303161 0.215217 0.976095 -0.220841 0.343986 0.912635 0.365766 0.219674 0.904411 
0.179497 0.0903167 0.979604 0.0430853 0.0474127 0.997946 0.0175081 0.019901 0.999649 
0.145531 0.0911597 0.985145 -0.00382001 0.084575 0.99641 -0.161959 0.00697178 0.986773 
-0.130705 0.0849871 0.987772 -0.0329578 0.0592137 0.997701 0.0581255 0.127191 0.990174 
-0.0238445 0.156467 0.987395 -0.136159 0.148848 0.979441 -0.317492 0.255888 0.913083 
0.2896 0.0831506 0.953529 0.107486 0.0453149 0.993173 0.0124446 -0.00268707 0.999919 
0.0261835 -0.0458037 0.998607 0.0564037 -0.147008 0.987526 -0.066864 -0.161904 0.984539 
-0.041227 0.0687344 0.996783 -0.0587603 0.0425027 0.997367 -0.0138291 0.0935796 0.995516 
0.0839553 0.0935627 0.992067 -0.000213789 0.0922069 0.99574 -0.0957532 0.0870386 0.991592 
-0.340183 0.084952 0.936514 0.275827 0.000682216 0.961207 0.0864848 0.0428716 0.99533 
-0.0471129 0.00284274 0.998886 -0.109155 0.00773382 0.993995 0.0199049 -0.0477208 0.998662 
0.199386 -0.118857 0.972686 0.0321849 -0.214906 0.976104 -0.116945 -0.107651 0.987287 
0.021767 0.083717 0.996252 0.0590122 0.0668989 0.996013 -0.0282853 0.0284827 0.999194 
-0.132059 -0.0182895 0.991073 -0.358327 -0.116238 0.926332 0.319813 -0.0471232 0.946308 
0.114322 -0.0487749 0.992246 -0.0262872 0.00744868 0.999627 -0.0366381 0.0940766 0.994891 
-0.0744663 0.159626 0.984365 -0.146418 0.0343256 0.988627 -0.0154659 -0.0760665 0.996983 
0.174585 -0.0382134 0.9839 0.142407 0.0365959 0.989131 0.0242058 0.0237316 0.999425 
-0.0830943 0.00646997 0.996521 -0.24045 -0.0983656 0.965665 -0.495611 -0.169825 0.85178 
0.302772 -0.16619 0.938461 0.146082 -0.186521 0.97153 0.0973079 -0.0489835 0.994048 
0.0421885 -0.00824312 0.999076 -0.0290592 0.0502341 0.998315 -0.0975032 0.101207 0.990076 
-0.0479885 0.151868 0.987235 0.063256 0.0622189 0.996056 0.0907391 -0.0325659 0.995342 
0.0308537 -0.0366679 0.998851 -0.15891 -0.103877 0.981813 -0.314744 -0.184098 0.931152 
-0.605592 -0.269997 0.748572 0.411236 -0.417636 0.810225 0.19751 -0.286068 0.937633 
0.15943 -0.228463 0.96041 0.0628232 -0.205038 0.976736 0.0346039 -0.163555 0.985927 
-0.0444179 -0.0967908 0.994313 -0.0506733 -0.0403651 0.997899 -0.00636477 -0.0656493 0.997822 
0.0350963 -0.119525 0.992211 -0.038938 -0.237641 0.970572 -0.216255 -0.28854 0.932726 
-0.480338 -0.382934 0.789073 0.188004 -0.655269 0.731626 0.122855 -0.568342 0.813569 
0.0824865 -0.534911 0.840872 0.036677 -0.41485 0.90915 -0.0166185 -0.35482 0.934787 
-0.00267473 -0.342182 0.93963 -0.0720318 -0.352735 0.932947 -0.194292 -0.477073 0.857119 
0.304209 0.508211 0.805716 0.473817 0.832105 0.288268 0.11471 0.524968 0.843357 
0.181605 0.686548 0.704039 0.00337839 0.499524 0.866293 0.0215198 0.569142 0.821958 
-0.141527 0.393956 0.908168 -0.123227 0.535649 0.835401 -0.340101 0.607032 0.718223 
0.340082 0.495765 0.7991 0.380458 0.499153 0.778523 0.487613 0.68397 0.542603 
-0.248219 0.253815 0.934861 -0.249761 0.246704 0.936353 -0.257071 0.257734 0.93139 
-0.194494 0.270041 0.943001 -0.290092 0.456694 0.840998 -0.447644 0.660499 0.60279 
0.453525 0.40227 0.795295 0.449643 0.35897 0.817901 0.590578 0.500288 0.63319 
-0.189652 0.270062 0.94398 -0.121139 0.281279 0.951949 -0.203828 0.380995 0.90183 
-0.226858 0.365827 0.902611 -0.421489 0.631472 0.650838 0.484439 0.298518 0.822317 
0.734081 0.407798 0.54298 -0.228655 0.364032 0.902883 -0.273123 0.434943 0.858037 
-0.364114 0.574383 0.733148 -0.591009 0.715142 0.373202 0.504725 0.253496 0.825223 
0.507967 0.263527 0.820075 0.553745 0.278421 0.78476 -0.354163 0.379436 0.85475 
-0.375796 0.325726 0.867571 -0.451829 0.427184 0.783176 -0.771929 0.546188 0.325276 
0.521217 0.264413 0.81143 0.72173 0.312672 0.617529 -0.438691 0.262172 0.859544 
-0.680782 0.279958 0.676875 0.575673 0.109264 0.810347 0.633135 0.124826 0.76391 
-0.59536 0.0473918 0.80206 -0.660696 0.0357726 0.749801 0.536924 0.0043782 0.84362 
0.551751 0.00528259 0.833992 -0.596839 -0.180816 0.781721 -0.744897 -0.216517 0.63107 
0.55059 -0.0358693 0.834005 0.599486 -0.0357592 0.799586 -0.554839 -0.200752 0.807374 
-0.903728 -0.371419 0.212894 0.503362 -0.241424 0.829664 0.589558 -0.280804 0.757344 
-0.625518 -0.275693 0.729877 -0.617282 -0.289922 0.731375 0.51552 -0.445365 0.732045 
0.460952 -0.488788 0.740682 0.299363 -0.601974 0.740277 -0.298887 -0.621288 0.72434 
-0.513089 -0.409789 0.754197 -0.495388 -0.428566 0.755594 -0.824336 -0.555288 0.110116 
0.231002 -0.670554 0.704979 0.360741 -0.767703 0.529621 0.192513 -0.677969 0.709434 
0.141046 -0.719137 0.680403 0.0999482 -0.744549 0.660043 0.091991 -0.721244 0.686546 
0.0233945 -0.684227 0.728894 0.0228335 -0.659133 0.751679 -0.07788 -0.721714 0.687796 
-0.294778 -0.621743 0.725632 -0.243029 -0.623429 0.743151 -0.305862 -0.642633 0.702475 
-0.600558 -0.78017 0.175113 0.174144 -0.978303 0.11224 0.0614396 -0.937898 0.341427 
-0.0197195 -0.945475 0.325097 -0.116369 -0.965546 0.232762 0.493732 0.852424 0.172052 
0.323892 0.906624 0.270421 0.0953382 0.924982 0.367858 -0.174215 0.879492 0.442881 
-0.131486 0.991288 0.00767234 -0.371435 0.799165 0.472621 0.508418 0.844853 0.166536 
0.566782 0.797729 0.20588 -0.460377 0.739674 0.490853 -0.462201 0.733864 0.497809 
-0.485949 0.767281 0.418489 -0.507328 0.73246 0.454005 0.623781 0.76005 0.182268 
0.671934 0.718463 0.179765 -0.535445 0.720475 0.440697 -0.564889 0.715382 0.411253 
0.760536 0.614235 0.210476 0.80411 0.550264 0.224982 -0.535604 0.750884 0.386394 
-0.524996 0.755761 0.391413 -0.599371 0.729129 0.330341 0.833723 0.488876 0.256724 
-0.607132 0.723089 0.329442 -0.773991 0.563082 0.289613 0.82181 0.473652 0.316673 
0.83279 0.457259 0.312051 -0.79283 0.537836 0.286624 -0.819352 0.543843 -0.181374 
0.861995 0.388828 0.325234 -0.938771 0.245406 0.241835 0.910878 0.256359 0.32339 
-0.976241 -0.0401465 0.212934 0.940214 0.019277 0.340037 0.989117 0.0345021 -0.143031 
-0.961418 -0.242445 0.129981 0.933333 -0.159358 0.321707 -0.918355 -0.367718 0.146313 
-0.91177 -0.385073 0.142812 -0.921836 -0.386122 -0.0335944 0.880505 -0.390513 0.26872 
0.757717 -0.610753 0.229882 -0.87377 -0.472481 0.115274 0.73724 -0.639865 0.216909 
0.529553 -0.834405 0.152778 -0.826306 -0.554366 0.0994879 -0.825034 -0.556256 0.099489 
-0.826302 -0.557729 0.0785047 0.458535 -0.880278 0.121883 0.37757 -0.922384 0.0815417 
0.211329 -0.974707 0.0727027 0.108847 -0.993795 0.0228809 0.165693 -0.985743 0.0292769 
-0.22551 -0.973102 0.0470984 -0.38973 -0.917578 0.0784899 -0.616436 -0.782227 0.0901481 
-0.596358 -0.797841 0.0883607 -0.605333 -0.792954 -0.0692582 0.174895 -0.983809 0.0391444 
0.178495 -0.983006 0.0428713 0.181094 -0.981999 -0.053683 0.0739256 -0.995257 0.0632263 
0.0695433 -0.924918 -0.373751 -0.0481098 -0.997099 0.0589818 -0.052695 -0.940744 -0.334999 
-0.187511 -0.981771 0.0310836 -0.127262 -0.991797 0.0119435 -0.126744 -0.973037 -0.192705 
-0.115157 0.985719 -0.122872 0.521829 0.785751 -0.332099 0.398789 0.864695 -0.305402 
0.128497 0.975234 -0.180018 0.214459 0.955891 -0.200698 -0.158665 0.979653 -0.122907 
-0.114073 0.975444 -0.188406 -0.373848 0.915569 -0.148228 -0.524964 0.843678 -0.112337 
0.523013 0.784731 -0.332648 0.548382 0.755149 -0.359203 0.520454 0.781296 -0.344534 
0.370327 0.680381 -0.632408 -0.24845 0.582834 -0.773678 -0.561372 0.818348 -0.123162 
-0.499004 0.771298 -0.395088 -0.621838 0.750288 -0.224465 0.586334 0.727729 -0.355842 
0.621077 0.709279 -0.333445 0.502186 0.683078 -0.530295 -0.627778 0.738956 -0.244617 
-0.558366 0.609025 -0.563308 -0.610146 0.748428 -0.259955 0.675399 0.67114 -0.305627 
0.755251 0.602421 -0.258234 0.546219 0.638868 -0.541749 -0.60672 0.738654 -0.293737 
-0.484817 0.574919 -0.659106 -0.606217 0.737497 -0.297657 -0.642514 0.691855 -0.329412 
0.806484 0.546008 -0.226845 0.707477 0.531433 -0.465893 -0.421196 0.484662 -0.766614 
-0.650584 0.681677 -0.334748 -0.6274 0.682572 -0.374787 0.849257 0.505756 -0.15157 
0.851789 0.500951 -0.153308 -0.766949 0.500159 -0.402032 -0.776869 0.478978 -0.408723 
0.898335 0.398632 -0.184627 0.731314 0.307252 -0.608915 -0.351166 -0.0321312 -0.935762 
-0.9023 0.225299 -0.367553 -0.718389 0.227087 -0.657532 0.948971 0.237813 -0.207122 
0.975409 0.0488886 -0.214911 -0.33885 -0.0379626 -0.940074 -0.924848 -0.0846473 -0.370799 
-0.697704 -0.0946151 -0.71011 0.975884 0.0366431 -0.215191 0.974981 0.0134184 -0.221884 
0.973743 0.0352206 -0.224911 -0.430252 -0.095456 -0.897648 -0.843021 -0.283634 -0.457021 
-0.80979 -0.336705 -0.48049 -0.76552 -0.285703 -0.5765 0.93515 -0.205272 -0.288719 
0.553906 -0.160623 -0.816938 -0.788531 -0.360142 -0.498514 -0.52665 -0.216318 -0.822099 
0.842936 -0.436488 -0.314543 0.71147 -0.617906 -0.334667 0.585176 -0.391039 -0.710393 
-0.35647 -0.201635 -0.91229 -0.782762 -0.402331 -0.474778 -0.736795 -0.487841 -0.468129 
-0.670912 -0.367363 -0.644144 0.661491 -0.666573 -0.343672 0.486673 -0.783581 -0.386201 
0.382329 -0.552439 -0.740699 0.169042 -0.442366 -0.880759 -0.203975 -0.313429 -0.927446 
-0.681528 -0.557274 -0.474305 -0.557644 -0.672041 -0.487231 -0.491415 -0.445322 -0.748465 
0.331378 -0.866323 -0.37373 0.293084 -0.880337 -0.372972 0.296188 -0.849247 -0.437095 
0.16113 -0.871831 -0.462546 0.103137 -0.764765 -0.636001 0.0983193 -0.862764 -0.495956 
0.0664918 -0.732181 -0.677857 0.147713 -0.864703 -0.480072 0.127253 -0.679229 -0.72281 
0.16615 -0.864121 -0.475068 0.0991384 -0.590016 -0.801282 0.066296 -0.87768 -0.474639 
0.0028108 -0.518062 -0.855339 -0.0525919 -0.878518 -0.474806 -0.0606889 -0.499314 -0.864293 
-0.119469 -0.849652 -0.513633 -0.108381 -0.563744 -0.818808 -0.207956 -0.825086 -0.525345 
-0.134175 -0.6255 -0.768601 -0.466906 -0.739882 -0.484328 -0.335579 -0.813497 -0.474983 
-0.305119 -0.696373 -0.64959 0.182843 0.57297 -0.79892 -0.0807183 0.560199 -0.824416 
0.377657 0.505037 -0.776088 0.235345 0.562243 -0.792777 0.313156 0.54574 -0.777239 
0.158556 0.519908 -0.839378 -0.201914 0.538956 -0.817776 -0.0629711 0.45815 -0.886642 
-0.229831 0.524926 -0.819531 -0.367978 0.420109 -0.829518 0.378112 0.505381 -0.775643 
0.374848 0.542884 -0.751509 0.375174 0.501457 -0.779606 0.259813 0.380975 -0.88733 
0.0913267 0.307244 -0.947238 -0.121269 0.267635 -0.955858 -0.206565 0.227998 -0.951498 
-0.379159 0.352081 -0.855732 -0.32168 0.280626 -0.904307 -0.358569 0.343841 -0.867872 
0.411903 0.548612 -0.727571 0.46909 0.524439 -0.710577 0.326123 0.490507 -0.808113 
0.212076 0.359746 -0.908629 0.111967 0.23462 -0.965617 0.00534326 0.0989279 -0.99508 
-0.11923 0.0250118 -0.992552 -0.175873 0.0706688 -0.981873 -0.20814 0.11404 -0.971428 
-0.34265 0.332754 -0.878559 -0.313053 0.281159 -0.907165 -0.279816 0.349942 -0.894004 
0.536003 0.473223 -0.699114 0.580487 0.439644 -0.685381 0.402125 0.41094 -0.818184 
0.203053 0.310149 -0.92875 0.100331 0.210216 -0.972493 0.00807685 0.134146 -0.990929 
-0.116937 0.0806463 -0.98986 -0.158724 -0.0347627 -0.986711 -0.128332 -0.0179159 -0.991569 
-0.122961 0.0224072 -0.992159 -0.131253 0.120402 -0.98401 -0.283848 0.346934 -0.893905 
-0.224547 0.293793 -0.92912 -0.225942 0.340102 -0.912842 -0.451958 0.312865 -0.835374 
0.615713 0.404033 -0.676502 0.524282 0.370299 -0.766816 0.289571 0.244332 -0.925446 
0.117306 0.162437 -0.979721 0.0375204 0.0723936 -0.99667 -0.029421 0.02333 -0.999295 
-0.163266 0.0586652 -0.984836 -0.21652 0.0767941 -0.973253 -0.119543 0.081663 -0.989465 
-0.0647576 0.0168868 -0.997758 -0.0439527 0.0849103 -0.995419 -0.0697675 0.151891 -0.985932 
-0.14519 0.270325 -0.951758 -0.46101 0.278427 -0.842584 -0.373806 0.0403324 -0.92663 
-0.432018 0.253335 -0.865553 0.671439 0.276109 -0.687702 0.676758 0.228018 -0.700005 
0.419408 0.215308 -0.881895 0.196393 0.131347 -0.971688 -0.0475788 -0.0402584 -0.998056 
-0.00582184 -0.0692061 -0.997585 -0.0678429 -0.00969057 -0.997649 -0.109039 0.0250762 -0.993721 
-0.212175 0.148638 -0.965862 -0.114346 -0.021311 -0.993212 -0.00139138 0.015043 -0.999886 
-0.0756481 0.0396875 -0.996344 -0.335049 -0.0300347 -0.941722 -0.199479 0.0386886 -0.979138 
0.674166 0.141868 -0.724826 0.627233 0.130679 -0.76779 0.332075 0.0336264 -0.942654 
0.10589 -0.055751 -0.992814 -0.0471287 -0.105493 -0.993303 -0.0678047 -0.127043 -0.989577 
-0.00119168 -0.175481 -0.984482 -0.0732608 -0.121649 -0.989866 -0.0699811 -0.0462996 -0.996473 
-0.201863 -0.154127 -0.967211 -0.149036 -0.0589297 -0.987074 0.0197351 -0.0293596 -0.999374 
-0.0442547 -0.0228805 -0.998758 -0.334322 -0.0370301 -0.941731 -0.176013 -0.0135047 -0.984295 
0.646394 -0.0767769 -0.759131 0.549888 -0.147041 -0.822193 0.591096 -0.0986344 -0.800548 
0.234053 -0.14545 -0.961282 0.0618976 -0.158576 -0.985405 -0.0484821 -0.148489 -0.987725 
-0.121927 -0.16103 -0.979389 -0.0125747 -0.18818 -0.982054 0.0756859 -0.231819 -0.96981 
-0.137233 -0.155402 -0.978273 -0.193512 -0.176434 -0.965103 -0.0157303 0.0255305 -0.99955 
0.0365947 0.0241333 -0.999039 -0.0651299 -0.03242 -0.99735 -0.361692 -0.0750681 -0.929271 
-0.217744 -0.0559025 -0.974404 0.527218 -0.162785 -0.833992 0.290889 -0.21883 -0.931395 
0.106466 -0.199771 -0.974041 -0.0441875 -0.17319 -0.983897 -0.102628 -0.11562 -0.987978 
-0.0522208 -0.0636185 -0.996607 -0.0211024 -0.0795405 -0.996608 -0.0529532 -0.103787 -0.993189 
-0.0115865 -0.0242538 -0.999639 0.0341716 0.0544959 -0.997929 -0.0369646 0.0355849 -0.998683 
-0.125145 -0.075859 -0.989234 -0.361381 -0.195205 -0.911756 -0.301443 -0.1902 -0.934321 
-0.25371 -0.183852 -0.949647 0.396576 -0.327939 -0.857429 0.30443 -0.401986 -0.863556 
0.259767 -0.295475 -0.919356 0.166056 -0.420446 -0.891993 0.136277 -0.301924 -0.943541 
0.0383043 -0.233132 -0.97169 -0.0167564 -0.173389 -0.984711 0.016871 -0.106147 -0.994207 
0.00947891 -0.0724021 -0.99733 -0.0618122 -0.0552645 -0.996557 -0.0253243 -0.0453264 -0.998651 
0.0414681 -0.0839036 -0.995611 -0.0944022 -0.134354 -0.986427 -0.311162 -0.175994 -0.933919 
-0.205352 -0.294696 -0.933266 -0.252315 -0.144754 -0.956757 0.154902 -0.425762 -0.891477 
0.0865267 -0.50099 -0.861117 0.0960771 -0.39224 -0.914832 0.0289566 -0.485106 -0.873976 
0.0324874 -0.391063 -0.91979 0.0854489 -0.468431 -0.879358 0.0495557 -0.325286 -0.944316 
0.0718272 -0.481482 -0.873508 0.0299063 -0.289278 -0.956778 -0.00552817 -0.443823 -0.896097 
-0.0212463 -0.255981 -0.966448 -0.0558332 -0.396804 -0.916204 -0.0403342 -0.23651 -0.970792 
-0.0811838 -0.411935 -0.907589 -0.0580315 -0.289512 -0.955414 -0.186765 -0.315609 -0.930328 
-0.100697 -0.410837 -0.906131 -0.0988824 -0.352286 -0.930654 0.039395 0.0567946 -0.997608 
0.0540578 0.0534621 -0.997106 0.00107317 0.0116227 -0.999932 -0.00189989 -0.0156522 -0.999876 

