# vtk DataFile Version 4.2
vtk output
ASCII
DATASET POLYDATA
POINTS 552 float
-14.0095 -43.3399 -15.252 -6.38877 -43.3399 -16.561 1.23193 -43.3399 -17.3273 
8.85263 -43.3399 -17.4161 16.4733 -43.3399 -16.2757 -29.2509 -35.7192 -14.6694 
-21.6302 -35.7192 -17.1168 -14.0095 -35.7192 -17.7501 -6.38877 -35.7192 -19.0294 
1.23193 -35.7192 -20.0457 8.85263 -35.7192 -20.1878 16.4733 -35.7192 -19.0782 
24.094 -35.7192 -18.2463 31.7147 -35.7192 -14.4662 -36.8715 -28.0985 -13.7 
-29.2509 -28.0985 -16.7154 -21.6302 -28.0985 -18.2434 -14.0095 -28.0985 -18.6286 
-6.38877 -28.0985 -19.5729 1.23193 -28.0985 -19.8847 8.85263 -28.0985 -20.3408 
16.4733 -28.0985 -19.7985 24.094 -28.0985 -19.8472 31.7147 -28.0985 -17.7216 
39.3354 -28.0985 -14.2712 -36.8715 -20.4778 -15.7819 -29.2509 -20.4778 -18.0141 
-21.6302 -20.4778 -18.5446 -14.0095 -20.4778 -18.4577 -6.38877 -20.4778 -18.9464 
1.23193 -20.4778 -19.2804 8.85263 -20.4778 -19.1945 16.4733 -20.4778 -19.657 
24.094 -20.4778 -19.9437 31.7147 -20.4778 -19.5765 39.3354 -20.4778 -17.4605 
-36.8715 -12.8571 -16.9582 -29.2509 -12.8571 -18.3356 -21.6302 -12.8571 -18.4055 
-14.0095 -12.8571 -18.0374 -6.38877 -12.8571 -18.9034 1.23193 -12.8571 -18.8607 
8.85263 -12.8571 -18.6832 16.4733 -12.8571 -19.2682 24.094 -12.8571 -19.5212 
31.7147 -12.8571 -19.3676 39.3354 -12.8571 -18.4962 46.9561 -12.8571 -14.9622 
-44.4922 -5.23645 -14.3186 -36.8715 -5.23645 -17.4762 -29.2509 -5.23645 -18.4487 
-21.6302 -5.23645 -18.1075 -14.0095 -5.23645 -17.3461 -6.38877 -5.23645 -19.4477 
1.23193 -5.23645 -17.9386 8.85263 -5.23645 -20.2615 16.4733 -5.23645 -19.2919 
24.094 -5.23645 -19.118 31.7147 -5.23645 -19.3161 39.3354 -5.23645 -18.7138 
46.9561 -5.23645 -16.8081 -44.4922 2.38424 -15.1772 -36.8715 2.38424 -18.0006 
-29.2509 2.38424 -18.7108 -21.6302 2.38424 -17.903 -14.0095 2.38424 -16.2569 
-6.38877 2.38424 -17.7687 1.23193 2.38424 -16.1244 8.85263 2.38424 -19.8013 
16.4733 2.38424 -18.8156 24.094 2.38424 -18.8462 31.7147 2.38424 -19.166 
39.3354 2.38424 -18.5867 46.9561 2.38424 -16.2816 -44.4922 10.0049 -15.136 
-36.8715 10.0049 -18.2606 -29.2509 10.0049 -19.1036 -21.6302 10.0049 -18.6224 
-14.0095 10.0049 -17.2662 -6.38877 10.0049 -17.2861 1.23193 10.0049 -18.0568 
8.85263 10.0049 -18.1671 16.4733 10.0049 -18.2796 24.094 10.0049 -18.7189 
31.7147 10.0049 -19.0301 39.3354 10.0049 -18.1102 46.9561 10.0049 -15.4517 
-44.4922 17.6256 -13.3454 -36.8715 17.6256 -17.7435 -29.2509 17.6256 -19.2285 
-21.6302 17.6256 -19.6173 -14.0095 17.6256 -18.6969 -6.38877 17.6256 -18.2816 
1.23193 17.6256 -18.346 8.85263 17.6256 -17.9654 16.4733 17.6256 -18.0298 
24.094 17.6256 -18.1473 31.7147 17.6256 -17.8323 39.3354 17.6256 -16.2508 
-36.8715 25.2463 -15.8286 -29.2509 25.2463 -18.0701 -21.6302 25.2463 -18.8704 
-14.0095 25.2463 -19.0461 -6.38877 25.2463 -18.6784 1.23193 25.2463 -18.4605 
8.85263 25.2463 -18.2175 16.4733 25.2463 -17.4762 24.094 25.2463 -16.7086 
31.7147 25.2463 -15.428 -29.2509 32.867 -15.1605 -21.6302 32.867 -17.0712 
-14.0095 32.867 -17.8526 -6.38877 32.867 -18.2115 1.23193 32.867 -17.5479 
8.85263 32.867 -16.9043 16.4733 32.867 -15.9304 24.094 32.867 -14.1228 
-14.0095 40.4877 -14.5009 -6.38877 40.4877 -15.1351 1.23193 40.4877 -14.6618 
8.85263 40.4877 -13.5096 -14.0095 -45.8838 -13.0196 -6.38877 -47.1929 -13.0196 
-6.38877 -50.9606 -5.75713 1.23193 -48.127 -13.0196 1.23193 -50.9606 -6.93341 
8.85263 -47.9897 -13.0196 8.85263 -50.9606 -6.67343 16.4733 -46.7598 -13.0196 
-29.2509 -38.2903 -13.0196 -29.2509 -43.3399 -7.09246 -21.1063 -43.3399 -13.0196 
-21.6302 -43.0202 -13.0196 -21.6302 -43.3399 -12.7586 23.5962 -43.3399 -13.0196 
24.094 -42.9924 -13.0196 24.094 -43.3399 -12.4481 31.7147 -37.4609 -13.0196 
-31.9485 -35.7192 -13.0196 -36.8715 -29.4284 -13.0196 -36.8715 -35.7192 -7.45485 
33.6225 -35.7192 -13.0196 39.3354 -29.8229 -13.0196 -37.7503 -28.0985 -13.0196 
40.7636 -28.0985 -13.0196 -40.9754 -20.4778 -13.0196 -44.4922 -20.4778 -9.26902 
45.5291 -20.4778 -13.0196 46.9561 -18.0142 -13.0196 46.9561 -20.4778 -10.6609 
-44.0974 -12.8571 -13.0196 -44.4922 -11.6606 -13.0196 -44.4922 -12.8571 -12.6504 
49.2203 -12.8571 -13.0196 -45.9727 -5.23645 -13.0196 51.4956 -5.23645 -13.0196 
54.5768 -5.23645 -6.13928 -46.9509 2.38424 -13.0196 51.1718 2.38424 -13.0196 
54.5768 2.38424 -6.79368 -46.7402 10.0049 -13.0196 50.0088 10.0049 -13.0196 
46.9561 15.5911 -13.0196 -44.8294 17.6256 -13.0196 -44.4922 18.3165 -13.0196 
45.2119 17.6256 -13.0196 39.3354 23.5728 -13.0196 46.9561 17.6256 -11.5114 
-40.4319 25.2463 -13.0196 -44.4922 25.2463 -7.04437 -36.8715 29.2928 -13.0196 
37.2609 25.2463 -13.0196 31.7147 29.4823 -13.0196 39.3354 25.2463 -11.7533 
-32.869 32.867 -13.0196 -36.8715 32.867 -8.76558 -29.2509 35.6206 -13.0196 
-21.6302 40.0266 -13.0196 16.4733 39.1497 -13.0196 26.877 32.867 -13.0196 
24.094 34.7041 -13.0196 31.7147 32.867 -10.5419 -29.2509 40.4877 -6.60932 
-20.3278 40.4877 -13.0196 -21.6302 40.4877 -12.5944 -14.0095 42.3133 -13.0196 
-6.38877 43.1815 -13.0196 1.23193 42.6238 -13.0196 11.9191 40.4877 -13.0196 
8.85263 41.1358 -13.0196 16.4733 40.4877 -12.1781 24.094 40.4877 -8.45577 
-14.0095 48.1084 -5.73313 -6.38877 48.1084 -7.30912 1.23193 48.1084 -7.17091 
8.85263 48.1084 -5.44087 -6.38877 -51.0905 -5.39888 1.23193 -51.4392 -5.39888 
8.85263 -51.409 -5.39888 -29.2509 -44.3842 -5.39888 -21.6302 -48.0299 -5.39888 
-7.30111 -50.9606 -5.39888 -14.0095 -49.9212 -5.39888 -6.38877 -50.9606 -4.82394 
1.23193 -50.9606 -3.00495 11.1178 -50.9606 -5.39888 8.85263 -50.9606 -3.72933 
16.4733 -49.8489 -5.39888 24.094 -46.4529 -5.39888 -30.8129 -43.3399 -5.39888 
-36.8715 -37.5215 -5.39888 28.5056 -43.3399 -5.39888 31.7147 -40.9235 -5.39888 
-38.2875 -35.7192 -5.39888 37.0642 -35.7192 -5.39888 39.3354 -33.0829 -5.39888 
-43.1514 -28.0985 -5.39888 -44.4922 -25.3909 -5.39888 43.7327 -28.0985 -5.39888 
46.9561 -23.9382 -5.39888 -46.8236 -20.4778 -5.39888 49.1326 -20.4778 -5.39888 
46.9561 -20.4778 0.528683 -49.2438 -12.8571 -5.39888 52.3793 -12.8571 -5.39888 
54.5768 -6.02988 -5.39888 -50.9414 -5.23645 -5.39888 54.8351 -5.23645 -5.39888 
54.5768 -5.23645 -4.24937 -51.6967 2.38424 -5.39888 -52.1129 2.38424 -0.416996 
55.0902 2.38424 -5.39888 54.5768 6.83645 -5.39888 54.5768 2.38424 -2.44377 
-51.0311 10.0049 -5.39888 54.1855 10.0049 -5.39888 -48.9246 17.6256 -5.39888 
50.91 17.6256 -5.39888 46.9561 24.3705 -5.39888 -45.306 25.2463 -5.39888 
-44.4922 26.4641 -5.39888 46.197 25.2463 -5.39888 39.3354 31.5529 -5.39888 
-39.1382 32.867 -5.39888 -36.8715 35.2251 -5.39888 37.8813 32.867 -5.39888 
31.7147 38.4966 -5.39888 39.3354 32.867 -1.63619 -30.3627 40.4877 -5.39888 
-29.2509 41.3177 -5.39888 -21.6302 45.8764 -5.39888 16.4733 46.7829 -5.39888 
28.8416 40.4877 -5.39888 24.094 43.2678 -5.39888 31.7147 40.4877 0.391805 
-14.7071 48.1084 -5.39888 -14.0095 48.3062 -5.39888 -6.38877 49.2909 -5.39888 
1.23193 49.2872 -5.39888 9.02877 48.1084 -5.39888 8.85263 48.1357 -5.39888 
16.4733 48.1084 0.652747 -29.2509 -44.294 2.22182 -21.6302 -47.3752 2.22182 
-14.0095 -48.5716 2.22182 -6.38877 -49.1437 2.22182 1.23193 -49.7309 2.22182 
8.85263 -49.3426 2.22182 16.4733 -47.6833 2.22182 24.094 -43.7929 2.22182 
-30.6639 -43.3399 2.22182 -36.8715 -37.8583 2.22182 -29.2509 -43.3399 4.1298 
-21.6302 -43.3399 9.17185 16.4733 -43.3399 8.92014 24.7333 -43.3399 2.22182 
24.094 -43.3399 2.93234 31.7147 -37.5742 2.22182 -38.7123 -35.7192 2.22182 
-36.8715 -35.7192 6.28042 33.6585 -35.7192 2.22182 31.7147 -35.7192 4.6756 
39.3354 -29.8013 2.22182 -43.9019 -28.0985 2.22182 -44.4922 -26.9733 2.22182 
40.7824 -28.0985 2.22182 39.3354 -28.0985 4.28857 -47.7595 -20.4778 2.22182 
46.2636 -20.4778 2.22182 46.9561 -19.3185 2.22182 -50.4136 -12.8571 2.22182 
50.221 -12.8571 2.22182 46.9561 -12.8571 7.43226 -51.94 -5.23645 2.22182 
-52.1129 -1.70543 2.22182 52.9431 -5.23645 2.22182 -52.3126 2.38424 2.22182 
-52.1129 5.83831 2.22182 -52.1129 2.38424 3.20491 53.7234 2.38424 2.22182 
-51.8605 10.0049 2.22182 53.2285 10.0049 2.22182 -49.6682 17.6256 2.22182 
51.0956 17.6256 2.22182 46.9561 24.6794 2.22182 -46.0773 25.2463 2.22182 
-44.4922 27.7511 2.22182 -44.4922 25.2463 9.58588 46.5861 25.2463 2.22182 
-40.6336 32.867 2.22182 -36.8715 36.73 2.22182 40.3961 32.867 2.22182 
39.3354 33.9884 2.22182 39.3354 32.867 5.74382 -32.5524 40.4877 2.22182 
-29.2509 43.0119 2.22182 -21.6302 47.2818 2.22182 24.094 45.7081 2.22182 
32.2777 40.4877 2.22182 31.7147 40.9432 2.22182 31.7147 40.4877 4.06208 
-19.2009 48.1084 2.22182 -14.0095 49.7392 2.22182 -14.0095 48.1084 7.91595 
-6.38877 50.6625 2.22182 1.23193 50.8715 2.22182 8.85263 49.8135 2.22182 
8.85263 48.1084 7.81602 17.3464 48.1084 2.22182 16.4733 48.3895 2.22182 
16.4733 48.1084 3.22134 -14.0095 -43.5 9.84252 -6.38877 -44.2106 9.84252 
1.23193 -44.6006 9.84252 8.85263 -44.4156 9.84252 -29.2509 -39.0178 9.84252 
-15.9649 -43.3399 9.84252 -21.6302 -42.7529 9.84252 -14.0095 -43.3399 10.0075 
-6.38877 -43.3399 10.7291 1.23193 -43.3399 11.0917 13.5204 -43.3399 9.84252 
8.85263 -43.3399 10.9662 16.4733 -42.5246 9.84252 24.094 -37.8844 9.84252 
-33.8459 -35.7192 9.84252 -36.8715 -33.1438 9.84252 -29.2509 -35.7192 12.2953 
-21.6302 -35.7192 14.6103 -14.0095 -35.7192 15.5197 -6.38877 -35.7192 15.6042 
1.23193 -35.7192 16.2043 8.85263 -35.7192 16.3979 16.4733 -35.7192 15.3696 
26.7068 -35.7192 9.84252 24.094 -35.7192 11.6879 31.7147 -31.1281 9.84252 
-40.7641 -28.0985 9.84252 -44.4922 -22.7551 9.84252 -36.8715 -28.0985 13.2941 
-29.2509 -28.0985 17.0964 24.094 -28.0985 16.2977 34.6176 -28.0985 9.84252 
31.7147 -28.0985 12.2291 39.3354 -22.3298 9.84252 -45.7455 -20.4778 9.84252 
-44.4922 -20.4778 11.4843 31.7147 -20.4778 16.5748 40.6477 -20.4778 9.84252 
39.3354 -20.4778 11.1454 -48.6423 -12.8571 9.84252 -44.4922 -12.8571 15.0584 
44.9747 -12.8571 9.84252 39.3354 -12.8571 14.9429 46.9561 -7.24552 9.84252 
-50.2269 -5.23645 9.84252 -44.4922 -5.23645 16.5452 39.3354 -5.23645 16.9363 
47.6048 -5.23645 9.84252 46.9561 -5.23645 10.554 -50.5132 2.38424 9.84252 
[...]
POINT_DATA 552
SCALARS ImageScalars float
LOOKUP_TABLE default
0 0 0 0 0 0 0 0 0 
0 0 0 0 0 0 0 0 0 
0 0 0 0 0 0 0 0 0 
0 0 0 0 0 0 0 0 0 
0 0 0 0 0 0 0 0 0 
0 0 0 0 0 0 0 0 0 
0 0 0 0 0 0 0 0 0 
0 0 0 0 0 0 0 0 0 
0 0 0 0 0 0 0 0 0 
0 0 0 0 0 0 0 0 0 
0 0 0 0 0 0 0 0 0 
0 0 0 0 0 0 0 0 0 
0 0 0 0 0 0 0 0 0 
0 0 0 0 0 0 0 0 0 
0 0 0 0 0 0 0 0 0 
0 0 0 0 0 0 0 0 0 
0 0 0 0 0 0 0 0 0 
0 0 0 0 0 0 0 0 0 
0 0 0 0 0 0 0 0 0 
0 0 0 0 0 0 0 0 0 
0 0 0 0 0 0 0 0 0 
0 0 0 0 0 0 0 0 0 
0 0 0 0 0 0 0 0 0 
0 0 0 0 0 0 0 0 0 
0 0 0 0 0 0 0 0 0 
0 0 0 0 0 0 0 0 0 
0 0 0 0 0 0 0 0 0 
0 0 0 0 0 0 0 0 0 
0 0 0 0 0 0 0 0 0 
0 0 0 0 0 0 0 0 0 
0 0 0 0 0 0 0 0 0 
0 0 0 0 0 0 0 0 0 
0 0 0 0 0 0 0 0 0 
0 0 0 0 0 0 0 0 0 
0 0 0 0 0 0 0 0 0 
0 0 0 0 0 0 0 0 0 
0 0 0 0 0 0 0 0 0 
0 0 0 0 0 0 0 0 0 
0 0 0 0 0 0 0 0 0 
0 0 0 0 0 0 0 0 0 
0 0 0 0 0 0 0 0 0 
0 0 0 0 0 0 0 0 0 
0 0 0 0 0 0 0 0 0 
0 0 0 0 0 0 0 0 0 
0 0 0 0 0 0 0 0 0 
0 0 0 0 0 0 0 0 0 
0 0 0 0 0 0 0 0 0 
0 0 0 0 0 0 0 0 0 
0 0 0 0 0 0 0 0 0 
0 0 0 0 0 0 0 0 0 
0 0 0 0 0 0 0 0 0 
0 0 0 0 0 0 0 0 0 
0 0 0 0 0 0 0 0 0 
0 0 0 0 0 0 0 0 0 
0 0 0 0 0 0 0 0 0 
0 0 0 0 0 0 0 0 0 
0 0 0 0 0 0 0 0 0 
0 0 0 0 0 0 0 0 0 
0 0 0 0 0 0 0 0 0 
0 0 0 0 0 0 0 0 0 
0 0 0 0 0 0 0 0 0 
0 0 0 
NORMALS Normals float
-0.216451 -0.53742 -0.815064 -0.123781 -0.516368 -0.847374 -0.0461432 -0.518228 -0.853997 
0.061786 -0.529765 -0.845891 0.253754 -0.560195 -0.788537 -0.393342 -0.404651 -0.825554 
-0.193813 -0.316357 -0.928631 -0.115119 -0.209488 -0.971011 -0.147112 -0.168856 -0.9746 
-0.0700787 -0.128221 -0.989267 0.0575862 -0.147205 -0.987428 0.11504 -0.21425 -0.969981 
0.254907 -0.381353 -0.88859 0.505952 -0.552253 -0.662592 -0.534994 -0.336553 -0.774928 
-0.268295 -0.206042 -0.941044 -0.128834 -0.0837538 -0.988123 -0.0857332 -0.0436449 -0.995362 
-0.0823995 0.00787004 -0.996568 -0.0498213 0.0492757 -0.997542 0.00548283 0.0663457 -0.997782 
0.0324776 -0.0343408 -0.998882 0.138651 -0.093081 -0.985957 0.318663 -0.28877 -0.90281 
0.6049 -0.480167 -0.635244 -0.422156 -0.203165 -0.883464 -0.162773 -0.107655 -0.980773 
-0.0274415 -0.00974721 -0.999576 -0.0263084 0.0386652 -0.998906 -0.0540834 0.0435334 -0.997587 
-0.0162254 0.0670723 -0.997616 -0.0251067 0.109776 -0.993639 -0.0488845 0.0346688 -0.998203 
0.00346904 0.0219918 -0.999752 0.143046 -0.109007 -0.983695 0.422969 -0.249978 -0.870981 
-0.317181 -0.0985115 -0.943235 -0.0926655 -0.0272437 -0.995324 0.0195695 0.0285972 -0.999399 
-0.029997 0.0723987 -0.996925 -0.0553034 -0.0327945 -0.997931 0.0143945 0.0828856 -0.996455 
-0.0271028 -0.068666 -0.997271 -0.0548596 0.0239259 -0.998207 -0.00662208 0.0543007 -0.998503 
0.0705155 0.0160141 -0.997382 0.256428 -0.0670876 -0.964232 0.604394 -0.26871 -0.750002 
-0.586779 -0.140583 -0.79745 -0.249894 -0.0674392 -0.965922 -0.0381021 -0.0245909 -0.998971 
0.0725367 0.0332148 -0.996813 -0.0855949 0.118039 -0.989313 -0.0480229 0.074543 -0.996061 
-0.056221 0.180919 -0.98189 -0.077639 -0.0772912 -0.993981 0.0762525 0.0305367 -0.996621 
-0.00171303 0.0442521 -0.999019 0.025803 0.0132118 -0.99958 0.156742 -0.00700533 -0.987615 
0.47157 -0.0836634 -0.877851 -0.560975 -0.0497103 -0.826339 -0.217371 -0.0498647 -0.974815 
0.00868677 -0.042923 -0.999041 0.16096 -0.0336132 -0.986388 0.0113767 0.0090851 -0.999894 
-0.000778797 0.144206 -0.989547 -0.131035 -0.0199591 -0.991177 -0.160905 0.141089 -0.976833 
0.0599596 0.0676055 -0.995909 -0.0228893 0.0260983 -0.999397 0.0162469 0.0194356 -0.999679 
0.169266 0.0406371 -0.984732 0.462058 0.0880814 -0.882465 -0.599602 0.10197 -0.793775 
-0.236088 0.0175634 -0.971573 -0.0206253 -0.0346258 -0.999187 0.115019 -0.107723 -0.987505 
0.0892785 -0.163661 -0.982469 -0.0525198 -0.0339402 -0.998043 -0.0558807 -0.133099 -0.989526 
-0.014581 0.113453 -0.993436 -0.0361355 0.0512623 -0.998031 -0.050654 0.0451165 -0.997697 
0.0408328 0.0772999 -0.996171 0.219934 0.13101 -0.966677 0.516747 0.23252 -0.823958 
-0.681575 0.292346 -0.670812 -0.336953 0.134613 -0.931849 -0.114089 0.0600816 -0.991652 
0.0341293 -0.0137643 -0.999323 0.0825598 -0.110314 -0.990462 0.023253 -0.0901662 -0.995655 
0.0209808 -0.0266038 -0.999426 0.0204334 -0.00309554 -0.999786 -0.0118134 0.0522234 -0.998566 
0.0111267 0.127352 -0.991795 0.112651 0.22847 -0.967011 0.317913 0.356313 -0.87862 
-0.454769 0.404375 -0.793515 -0.180029 0.251824 -0.950881 -0.0584796 0.154572 -0.986249 
0.012106 0.050659 -0.998643 0.0379936 0.00290846 -0.999274 0.0300338 0.051686 -0.998212 
0.0645939 0.0656825 -0.995748 0.0948818 0.134879 -0.986309 0.124228 0.243643 -0.961876 
0.265472 0.390332 -0.88157 -0.36231 0.501424 -0.785688 -0.154807 0.361045 -0.919609 
-0.0734634 0.266308 -0.961084 0.0211087 0.198608 -0.979852 0.0803429 0.21585 -0.973115 
0.105175 0.273019 -0.956242 0.16261 0.307947 -0.937404 0.28823 0.414386 -0.863254 
-0.134092 0.539427 -0.831287 -0.00896284 0.509207 -0.860597 0.0919421 0.506401 -0.857383 
0.134328 0.536307 -0.833265 -0.193465 -0.691016 -0.696468 -0.122087 -0.72696 -0.67574 
-0.0992619 -0.99081 -0.091879 -0.0413019 -0.772158 -0.634087 -0.0235523 -0.987906 -0.153257 
0.0781436 -0.775385 -0.626635 0.104045 -0.986625 -0.125484 0.250581 -0.766293 -0.591612 
-0.420446 -0.515983 -0.746315 -0.502953 -0.792668 -0.344551 -0.335279 -0.578803 -0.743354 
-0.339371 -0.569367 -0.748764 -0.347212 -0.590599 -0.728448 0.45016 -0.672426 -0.587536 
0.457996 -0.666491 -0.588242 0.473701 -0.692404 -0.544227 0.537257 -0.627328 -0.563751 
-0.488908 -0.457338 -0.74284 -0.563609 -0.367585 -0.739747 -0.728982 -0.568616 -0.38113 
0.567501 -0.608511 -0.554668 0.648214 -0.538397 -0.538467 -0.572322 -0.348286 -0.742391 
0.662433 -0.50826 -0.550322 -0.590479 -0.267727 -0.761352 -0.791896 -0.333162 -0.511765 
0.658256 -0.41324 -0.629231 0.678751 -0.379294 -0.628834 0.771503 -0.472586 -0.425965 
-0.642998 -0.210932 -0.736248 -0.650052 -0.204583 -0.731832 -0.669297 -0.217642 -0.710404 
0.722484 -0.283345 -0.630661 -0.659564 -0.141268 -0.738254 0.765141 -0.107649 -0.6348 
0.978817 -0.176013 -0.10458 -0.689563 -0.0403445 -0.723101 0.718144 0.0799875 -0.691282 
0.983747 0.0457582 -0.173632 -0.712649 0.112705 -0.692408 0.687494 0.218836 -0.692433 
0.545633 0.406191 -0.733003 -0.695403 0.294589 -0.655463 -0.690136 0.310189 -0.653831 
0.487859 0.453486 -0.745885 0.415833 0.497244 -0.761467 0.597939 0.480407 -0.641621 
-0.607441 0.461341 -0.646668 -0.79778 0.505583 -0.328531 -0.536399 0.536484 -0.651506 
0.396456 0.493202 -0.774322 0.352659 0.463102 -0.813123 0.464336 0.549059 -0.694929 
-0.478202 0.567712 -0.670094 -0.624785 0.641576 -0.444999 -0.41543 0.587842 -0.694161 
-0.292212 0.60779 -0.738379 0.219262 0.502227 -0.836476 0.336603 0.456956 -0.823341 
0.308165 0.468564 -0.827938 0.453369 0.554173 -0.698104 -0.521829 0.752647 -0.401518 
-0.271618 0.611201 -0.743409 -0.307253 0.630015 -0.713216 -0.137269 0.618966 -0.773329 
-0.015768 0.630256 -0.776227 0.0896975 0.599856 -0.795064 0.170923 0.542164 -0.822705 
0.13179 0.562097 -0.816504 0.236329 0.561219 -0.79321 0.391135 0.687351 -0.612015 
-0.187944 0.906471 -0.378138 -0.0524756 0.885883 -0.460932 0.0751237 0.868537 -0.489897 
0.142877 0.897098 -0.418094 -0.0964393 -0.99288 -0.0699133 -0.0213529 -0.998059 -0.0584929 
0.0988559 -0.994208 -0.0421629 -0.506637 -0.826633 -0.244942 -0.334072 -0.925327 -0.17935 
-0.106748 -0.991438 -0.0752062 -0.188543 -0.973755 -0.127486 -0.0963763 -0.994603 -0.0384198 
-0.0159493 -0.997343 0.0710778 0.151886 -0.987615 -0.0393467 0.108861 -0.992782 0.0503346 
0.282199 -0.958523 -0.0399674 0.517993 -0.855141 -0.0204103 -0.552102 -0.796701 -0.245868 
-0.7385 -0.621288 -0.261953 0.590752 -0.806738 -0.0136478 0.642181 -0.766553 1.57992e-05 
-0.760608 -0.588358 -0.274429 0.720935 -0.692934 0.00970216 0.739484 -0.673102 0.00985472 
-0.847627 -0.446803 -0.286174 -0.865054 -0.4088 -0.2908 0.774421 -0.632649 0.00513231 
0.828064 -0.560604 -0.00583712 -0.884444 -0.352122 -0.306217 0.872028 -0.489019 -0.0206612 
0.792087 -0.515253 0.32728 -0.912518 -0.249283 -0.324297 0.944256 -0.32782 -0.030237 
0.979383 -0.193861 -0.0568009 -0.936033 -0.144703 -0.320786 0.981825 -0.179084 -0.0628379 
0.982377 -0.186906 0.00121929 -0.957066 -0.00321556 -0.289854 -0.99843 0.00233302 -0.0559559 
0.994428 0.0396139 -0.0976905 0.980653 0.15458 -0.120098 0.997333 0.0214324 0.0697702 
-0.94718 0.164987 -0.275008 0.959707 0.242007 -0.142813 -0.906929 0.337489 -0.252153 
0.855275 0.474657 -0.20786 0.739135 0.613961 -0.277003 -0.822141 0.508487 -0.255978 
-0.80397 0.535106 -0.259412 0.71744 0.633138 -0.290546 0.627838 0.669477 -0.397014 
-0.691076 0.658874 -0.297153 -0.657106 0.690658 -0.301998 0.619218 0.666894 -0.414515 
0.555596 0.713049 -0.427638 0.696666 0.690802 -0.193518 -0.550116 0.760764 -0.344399 
-0.534302 0.770289 -0.348104 -0.375826 0.859684 -0.345974 0.252944 0.876148 -0.410346 
0.508406 0.739722 -0.440835 0.425404 0.777747 -0.462753 0.606884 0.789304 -0.0932203 
-0.204408 0.909678 -0.361528 -0.189768 0.911826 -0.364088 -0.0606559 0.924201 -0.37706 
0.0712513 0.908798 -0.411109 0.145242 0.89785 -0.415657 0.143073 0.897944 -0.416206 
0.252203 0.966984 -0.0365466 -0.483781 -0.845719 0.2252 -0.264505 -0.920383 0.28798 
-0.111058 -0.92764 0.356581 -0.0741957 -0.912914 0.401353 -0.0111891 -0.921905 0.387256 
0.122158 -0.91198 0.391626 0.311381 -0.864975 0.393523 0.509653 -0.768017 0.387819 
-0.522826 -0.822997 0.222103 -0.723655 -0.66959 0.167247 -0.475768 -0.819556 0.319333 
-0.188557 -0.742747 0.642475 0.292357 -0.729222 0.618678 0.520645 -0.760088 0.388839 
0.509823 -0.757154 0.408409 0.615213 -0.672592 0.411257 -0.762398 -0.629445 0.150163 
-0.678293 -0.640421 0.36025 0.633091 -0.655618 0.411535 0.604355 -0.640296 0.474106 
0.697596 -0.60246 0.387817 -0.865168 -0.493391 0.0897196 -0.875248 -0.477045 0.0798074 
0.714597 -0.580996 0.389609 0.688807 -0.575239 0.441185 -0.917371 -0.394426 0.0534619 
0.75263 -0.502645 0.425319 0.765745 -0.483447 0.424162 -0.965243 -0.259191 0.0335471 
0.843826 -0.348353 0.408177 0.755923 -0.333426 0.56339 -0.992069 -0.119664 0.0384673 
-0.996818 -0.0620741 0.0500096 0.891189 -0.217754 0.397951 -0.998003 0.00452825 0.0630006 
-0.994691 0.0789494 0.066009 -0.994443 0.00756932 0.105 0.93245 -0.0157676 0.360956 
-0.983047 0.1696 0.0696713 0.946769 0.152191 0.283666 -0.939646 0.334735 0.0708359 
0.905061 0.394571 0.158679 0.817846 0.556858 0.14504 -0.865285 0.499271 0.0448502 
-0.83533 0.548428 0.0380911 -0.823488 0.451715 0.343249 0.810543 0.569048 0.138582 
-0.749519 0.661914 0.00952953 -0.690073 0.723698 0.00774873 0.737579 0.675127 0.0134093 
0.722735 0.69108 0.00792426 0.719349 0.66599 0.19747 -0.619942 0.784635 0.00447234 
-0.564693 0.825244 0.00970216 -0.389682 0.919766 0.0466677 0.432331 0.901534 0.0180759 
0.616031 0.787721 -0.000950986 0.60716 0.794579 -0.000325158 0.60183 0.792236 0.100811 
-0.328273 0.943467 0.0459114 -0.206028 0.977318 0.0490035 -0.193447 0.903798 0.381742 
-0.0725984 0.995583 0.0595274 0.0548516 0.996911 0.0562105 0.157492 0.986519 0.044464 
0.149429 0.907081 0.393541 0.2698 0.961837 0.0455709 0.250178 0.966986 0.0484596 
0.248893 0.962668 0.106408 -0.0697812 -0.711718 0.698991 -0.0565672 -0.723746 0.687745 
-0.0108944 -0.721825 0.69199 0.0985502 -0.72815 0.678296 -0.388749 -0.632695 0.669755 
-0.0974635 -0.713643 0.693697 -0.180453 -0.708102 0.682663 -0.0695247 -0.706854 0.703935 
-0.0547926 -0.695009 0.71691 -0.0124676 -0.68536 0.728098 0.211631 -0.71595 0.665303 
0.0930789 -0.698357 0.709672 0.284921 -0.697757 0.657233 0.460617 -0.609068 0.645654 
-0.50649 -0.600257 0.618998 -0.583757 -0.582697 0.565413 -0.335156 -0.550735 0.764436 
-0.171914 -0.447124 0.877796 -0.0591705 -0.404824 0.912478 -0.0404443 -0.398572 0.916245 
-0.0478912 -0.426199 0.903361 0.0433829 -0.439996 0.896951 0.241018 -0.484383 0.841001 
0.496352 -0.586517 0.640025 0.44866 -0.562668 0.69434 0.546536 -0.554539 0.627523 
-0.672781 -0.526543 0.51973 -0.779418 -0.443019 0.442991 -0.50926 -0.49083 0.706923 
-0.208683 -0.382572 0.90005 0.333417 -0.403021 0.852295 0.574596 -0.527583 0.625696 
0.512426 -0.508336 0.692108 0.638109 -0.458416 0.618604 -0.80508 -0.404945 0.433434 
-0.756549 -0.39766 0.519135 0.410342 -0.361944 0.837028 0.649097 -0.437114 0.622579 
0.626382 -0.428578 0.651127 -0.871766 -0.255833 0.417819 -0.672535 -0.236017 0.701422 
0.703269 -0.311911 0.638845 0.570022 -0.279032 0.772797 0.722674 -0.222181 0.654505 
-0.901597 -0.110624 0.418192 -0.57139 -0.0706072 0.817635 0.486058 -0.143731 0.862026 
0.72623 -0.190224 0.66061 0.712431 -0.187836 0.676135 -0.899236 0.0285362 0.436532 
-0.559035 0.0252512 0.82876 0.748135 -0.0709962 0.659737 0.700088 -0.0749644 0.71011 
-0.883295 0.16906 0.437274 -0.587283 0.123709 0.799872 0.784384 0.0504738 0.618219 
0.723517 0.037478 0.689288 -0.852 0.29776 0.430622 -0.821039 0.446613 0.355572 
-0.727154 0.252796 0.638234 0.442744 0.182898 0.877796 0.795732 0.296342 0.528197 
0.78561 0.343613 0.514535 0.765301 0.284722 0.577277 -0.819905 0.449353 0.354736 
0.731202 0.48181 0.48291 0.676203 0.585435 0.44723 0.581076 0.416353 0.699286 
-0.688511 0.626715 0.364939 -0.647857 0.668608 0.365027 -0.613973 0.608879 0.502299 
-0.266816 0.398514 0.877494 0.167114 0.389107 0.905908 0.64216 0.616711 0.4553 
0.526038 0.707679 0.471672 0.430611 0.505463 0.747717 -0.509068 0.772515 0.379567 
-0.486732 0.783829 0.385623 -0.469435 0.761709 0.446576 -0.324034 0.804339 0.498037 
-0.215247 0.626641 0.748992 -0.175027 0.83786 0.517066 -0.0880276 0.492905 0.865619 
0.00118347 0.425762 0.904835 0.0398598 0.415755 0.908603 0.133788 0.825303 0.548612 
0.0780037 0.474884 0.876585 0.218798 0.796089 0.564242 0.175185 0.556143 0.812413 
0.45969 0.730554 0.504951 0.360965 0.750663 0.553362 0.310486 0.667592 0.676697 
-0.0950947 0.843048 0.529364 -0.0581 0.839416 0.540375 -0.0570875 0.828411 0.557204 
0.0852775 0.831873 0.548375 0.0586093 0.827805 0.557946 0.0584303 0.812975 0.57936 
-0.0263556 -0.304021 0.952301 -0.0250676 -0.183082 0.982778 -0.074305 -0.228211 0.970772 
-0.0599233 -0.320218 0.945447 0.0295637 -0.346243 0.937679 0.186355 -0.331313 0.924934 
-0.359442 -0.318382 0.877174 -0.0625554 -0.318712 0.945785 -0.19014 -0.356271 0.914832 
-0.0220205 -0.300037 0.953673 -0.024554 -0.18039 0.983289 -0.0842529 -0.18551 0.979024 
-0.070824 -0.206855 0.975805 0.0206238 -0.202898 0.978983 0.245506 -0.324137 0.913598 
0.158067 -0.246633 0.956131 0.272379 -0.34194 0.899381 -0.368011 -0.311977 0.875922 
-0.351726 -0.30868 0.883745 -0.110154 -0.226417 0.967782 0.0401456 -0.178871 0.983053 
0.0518284 -0.11538 0.991968 -0.0666479 -0.0637066 0.995741 -0.0724017 -0.0670078 0.995122 
-0.00263826 -0.0457095 0.998951 0.0345355 -0.129034 0.991039 0.334864 -0.326391 0.883932 
0.17877 -0.251056 0.951321 0.373159 -0.305364 0.876074 -0.460234 -0.186099 0.868074 
-0.296497 -0.146104 0.943792 -0.0601813 -0.104218 0.992732 0.0892723 -0.0803432 0.992761 
0.0954541 -0.0990704 0.990492 -0.0353253 -0.0548431 0.99787 -0.0546767 0.0562113 0.996921 
-0.0407546 -9.8364e-05 0.999169 -0.0450216 -0.0644726 0.996903 0.0882121 -0.126219 0.988073 
0.419507 -0.230783 0.877925 0.306089 -0.194724 0.931876 -0.481442 -0.0615252 0.874316 
-0.242102 -0.0251222 0.969925 -0.052884 0.00446548 0.998591 0.0447677 0.0078639 0.998966 
0.0802027 -0.0310641 0.996294 0.0896004 0.00263407 0.995974 -0.0186501 0.131896 0.991088 
-0.124211 0.0175512 0.992101 -0.0943929 0.0138009 0.995439 0.0411655 -0.0234619 0.998877 
0.446441 -0.132364 0.884969 0.255467 -0.0837292 0.963185 0.460207 -0.0745915 0.884673 
-0.470515 0.0252887 0.882029 -0.232948 0.00607056 0.97247 -0.0317704 -0.00816918 0.999462 
0.0537428 0.0160093 0.998426 0.0891178 0.0637114 0.993981 0.122525 0.0590081 0.99071 
-0.0498355 -0.15687 0.986361 -0.14149 -0.0173761 0.989787 -0.0862577 0.0486448 0.995085 
-0.00856666 0.0318263 0.999457 0.193147 -0.0253883 0.980841 0.460676 -0.0467545 0.886336 
0.450598 -0.0456879 0.891557 -0.46314 0.0974235 0.880914 -0.29275 0.0449115 0.955134 
-0.0373592 0.00232245 0.999299 0.118562 -0.0108204 0.992888 0.117866 0.0364011 0.992362 
-0.116476 0.0317787 0.992685 -0.092028 -0.0801119 0.992529 0.0656428 0.0202481 0.997638 
-0.0451032 0.0393058 0.998209 -0.0308129 0.0260259 0.999186 0.174247 0.0353225 0.984068 
0.446862 0.0241158 0.894278 0.436842 0.11616 0.892007 0.430386 0.0255214 0.902284 
-0.466488 0.156229 0.870621 -0.338864 0.133553 0.931308 -0.0800632 0.0598654 0.99499 
0.0816957 0.0371484 0.995965 0.137153 -0.0213575 0.99032 -0.0188457 0.0072286 0.999796 
-0.0539435 0.155716 0.986328 -0.0113033 0.0835864 0.996436 -0.0783333 0.0566635 0.995316 
-0.011106 0.0990075 0.995025 0.420824 0.179284 0.889249 0.192999 0.152801 0.969228 
-0.420175 0.308766 0.853298 -0.413383 0.317719 0.853328 -0.407034 0.305182 0.860923 
-0.258754 0.38736 0.884872 -0.143476 0.210769 0.966949 0.0329812 0.130842 0.990855 
0.0938536 0.0426513 0.994672 0.0608903 0.012669 0.998064 -0.0165247 0.0992502 0.994925 
-0.0344357 0.0854192 0.99575 -0.0391948 0.128042 0.990994 0.165605 0.386327 0.907373 
0.0701942 0.191801 0.978921 0.304145 0.321552 0.896716 0.291631 0.328241 0.898448 
0.278208 0.313206 0.908021 -0.242214 0.386728 0.889817 -0.0884862 0.371705 0.924124 
-0.0731343 0.310676 0.947698 -0.030556 0.32268 0.946015 0.00935728 0.232249 0.972611 
0.017802 0.241105 0.970336 0.035371 0.145396 0.988741 0.0289197 0.220103 0.975048 
0.0208781 0.167515 0.985648 0.0351416 0.252426 0.966978 0.0224781 0.207528 0.977971 
0.146593 0.372638 0.916325 0.0365569 0.28612 0.957496 0.0318128 0.276274 0.960552 

