# vtk DataFile Version 4.2
vtk output
ASCII
DATASET POLYDATA
POINTS 558 float
-32.2662 -42.017 -12.3214 -24.2793 -42.017 -12.9271 -16.2923 -42.017 -12.8142 
-40.2531 -34.03 -14.6475 -32.2662 -34.03 -16.2512 -24.2793 -34.03 -16.4932 
-16.2923 -34.03 -15.7341 -8.30537 -34.03 -14.7539 -0.318428 -34.03 -14.0119 
7.66852 -34.03 -13.3207 15.6555 -34.03 -13.1447 23.6424 -34.03 -14.3445 
31.6293 -34.03 -14.145 39.6163 -34.03 -13.0828 -40.2531 -26.0431 -16.29 
-32.2662 -26.0431 -17.7792 -24.2793 -26.0431 -17.5567 -16.2923 -26.0431 -16.5539 
-8.30537 -26.0431 -15.5183 -0.318428 -26.0431 -14.6748 7.66852 -26.0431 -14.9335 
15.6555 -26.0431 -15.4712 23.6424 -26.0431 -16.1341 31.6293 -26.0431 -17.0906 
39.6163 -26.0431 -15.7892 47.6032 -26.0431 -13.5058 -48.2401 -18.0561 -12.4844 
-40.2531 -18.0561 -16.7553 -32.2662 -18.0561 -17.9058 -24.2793 -18.0561 -18.0683 
-16.2923 -18.0561 -16.7801 -8.30537 -18.0561 -14.7961 -0.318428 -18.0561 -14.9225 
7.66852 -18.0561 -14.9077 15.6555 -18.0561 -15.4984 23.6424 -18.0561 -16.4815 
31.6293 -18.0561 -17.4728 39.6163 -18.0561 -17.3367 47.6032 -18.0561 -15.3488 
55.5902 -18.0561 -12.2548 -48.2401 -10.0692 -13.2666 -40.2531 -10.0692 -16.6186 
-32.2662 -10.0692 -17.6516 -24.2793 -10.0692 -17.7317 -16.2923 -10.0692 -17.5686 
-8.30537 -10.0692 -16.7852 -0.318428 -10.0692 -16.7504 7.66852 -10.0692 -14.2089 
15.6555 -10.0692 -14.8123 23.6424 -10.0692 -16.7964 31.6293 -10.0692 -17.9153 
39.6163 -10.0692 -17.8128 47.6032 -10.0692 -15.4152 -48.2401 -2.08226 -13.5662 
-40.2531 -2.08226 -17.137 -32.2662 -2.08226 -17.7641 -24.2793 -2.08226 -17.1074 
-16.2923 -2.08226 -18.1321 -8.30537 -2.08226 -18.7954 7.66852 -2.08226 -18.5544 
15.6555 -2.08226 -17.4579 23.6424 -2.08226 -17.3231 31.6293 -2.08226 -17.6618 
39.6163 -2.08226 -17.0243 47.6032 -2.08226 -14.736 -48.2401 5.90469 -14.7785 
-40.2531 5.90469 -17.5747 -32.2662 5.90469 -18.5711 -24.2793 5.90469 -17.6684 
-16.2923 5.90469 -16.8019 -8.30537 5.90469 -18.7864 -0.318428 5.90469 -17.3066 
7.66852 5.90469 -15.8591 15.6555 5.90469 -16.9587 23.6424 5.90469 -17.9674 
31.6293 5.90469 -18.059 39.6163 5.90469 -16.9058 47.6032 5.90469 -13.9411 
-48.2401 13.8916 -15.5166 -40.2531 13.8916 -18.3633 -32.2662 13.8916 -19.8433 
-24.2793 13.8916 -18.6144 -16.2923 13.8916 -16.4421 -8.30537 13.8916 -13.7114 
-0.318428 13.8916 -14.8352 7.66852 13.8916 -14.4453 15.6555 13.8916 -16.4321 
23.6424 13.8916 -18.0748 31.6293 13.8916 -18.4253 39.6163 13.8916 -17.0048 
-48.2401 21.8786 -14.8216 -40.2531 21.8786 -19.0404 -32.2662 21.8786 -19.4652 
-24.2793 21.8786 -18.3008 -16.2923 21.8786 -16.6277 -8.30537 21.8786 -14.9718 
-0.318428 21.8786 -15.1172 7.66852 21.8786 -16.3677 15.6555 21.8786 -17.2211 
23.6424 21.8786 -18.5304 31.6293 21.8786 -17.5081 39.6163 21.8786 -15.5599 
-40.2531 29.8655 -17.0393 -32.2662 29.8655 -19.6133 -24.2793 29.8655 -17.6726 
-16.2923 29.8655 -16.5372 -8.30537 29.8655 -15.8487 -0.318428 29.8655 -16.2653 
7.66852 29.8655 -17.2233 15.6555 29.8655 -17.5749 23.6424 29.8655 -17.1257 
31.6293 29.8655 -16.1195 39.6163 29.8655 -12.1769 -40.2531 37.8525 -13.7146 
-32.2662 37.8525 -16.002 -24.2793 37.8525 -16.6799 -16.2923 37.8525 -16.0932 
-8.30537 37.8525 -15.8605 -0.318428 37.8525 -16.2735 7.66852 37.8525 -16.9228 
15.6555 37.8525 -16.3868 23.6424 37.8525 -15.2277 -24.2793 45.8394 -12.783 
-16.2923 45.8394 -13.8192 -8.30537 45.8394 -13.896 -0.318428 45.8394 -14.1914 
7.66852 45.8394 -13.9225 15.6555 45.8394 -12.4988 -32.2662 -42.3044 -12.116 
-24.2793 -43.1181 -12.116 -16.2923 -43.1617 -12.116 -35.3696 -42.017 -12.116 
-40.2531 -41.1202 -12.116 -40.2531 -42.017 -11.669 -11.3266 -42.017 -12.116 
-8.30537 -40.8595 -12.116 -8.30537 -42.017 -11.5675 -0.318428 -38.2633 -12.116 
-0.318428 -42.017 -9.96909 7.66852 -36.3542 -12.116 7.66852 -42.017 -8.18846 
15.6555 -35.794 -12.116 15.6555 -42.017 -7.10262 23.6424 -37.3902 -12.116 
23.6424 -42.017 -6.726 31.6293 -37.228 -12.116 31.6293 -42.017 -5.65201 
39.6163 -35.2156 -12.116 -47.1536 -34.03 -12.116 -48.2401 -34.03 -11.5333 
42.4344 -34.03 -12.116 47.6032 -29.6551 -12.116 47.6032 -34.03 -9.4517 
-47.9211 -26.0431 -12.116 -48.2401 -22.8704 -12.116 -48.2401 -26.0431 -11.8631 
49.9988 -26.0431 -12.116 55.5902 -18.4313 -12.116 55.5902 -26.0431 -7.59788 
-48.7064 -18.0561 -12.116 55.7303 -18.0561 -12.116 55.5902 -14.4889 -12.116 
-50.1099 -10.0692 -12.116 -0.318428 -3.22608 -12.116 55.2215 -10.0692 -12.116 
55.5902 -10.0692 -11.8419 -50.3281 -2.08226 -12.116 -1.37412 -2.08226 -12.116 
0.725715 -2.08226 -12.116 -0.318428 -0.636751 -12.116 -0.318428 -2.08226 -10.9853 
52.4802 -2.08226 -12.116 55.5902 -2.08226 -9.72059 -51.8687 5.90469 -12.116 
50.5303 5.90469 -12.116 47.6032 12.7758 -12.116 55.5902 5.90469 -7.00358 
-52.3181 13.8916 -12.116 47.1378 13.8916 -12.116 47.6032 13.8916 -11.7171 
-50.9758 21.8786 -12.116 -48.2401 29.2576 -12.116 44.3294 21.8786 -12.116 
47.6032 21.8786 -8.09578 -47.9484 29.8655 -12.116 -48.2401 29.8655 -10.6594 
31.6293 37.7602 -12.116 39.6961 29.8655 -12.116 39.6163 29.9612 -12.116 
-42.0767 37.8525 -12.116 -40.2531 39.78 -12.116 -32.2662 44.4213 -12.116 
31.5209 37.8525 -12.116 23.6424 42.6054 -12.116 31.6293 37.8525 -12.0364 
-27.2212 45.8394 -12.116 -32.2662 45.8394 -10.4663 -24.2793 46.7754 -12.116 
-16.2923 48.4737 -12.116 -8.30537 50.1587 -12.116 -0.318428 50.4292 -12.116 
7.66852 48.984 -12.116 16.7794 45.8394 -12.116 15.6555 46.4001 -12.116 
23.6424 45.8394 -8.21912 -16.2923 53.8264 -6.24058 -8.30537 53.8264 -9.01868 
-0.318428 53.8264 -8.83238 7.66852 53.8264 -6.52549 -40.2531 -46.7083 -4.12907 
-32.2662 -49.5097 -4.12907 -24.2793 -49.7594 -4.12907 -16.2923 -49.411 -4.12907 
-8.30537 -48.5373 -4.12907 -0.318428 -46.8303 -4.12907 7.66852 -45.1064 -4.12907 
15.6555 -44.1018 -4.12907 23.6424 -43.6623 -4.12907 31.6293 -42.7438 -4.12907 
-47.0594 -42.017 -4.12907 -48.2401 -40.7701 -4.12907 35.2173 -42.017 -4.12907 
39.6163 -40.9982 -4.12907 47.6032 -37.7366 -4.12907 -52.6656 -34.03 -4.12907 
51.8236 -34.03 -4.12907 55.5902 -29.6651 -4.12907 -55.4375 -26.0431 -4.12907 
57.8539 -26.0431 -4.12907 -55.6414 -18.0561 -4.12907 60.3492 -18.0561 -4.12907 
-56.1247 -10.0692 -4.12907 60.8734 -10.0692 -4.12907 -55.4497 -2.08226 -4.12907 
59.5014 -2.08226 -4.12907 -55.3011 5.90469 -4.12907 57.3548 5.90469 -4.12907 
55.5902 9.95695 -4.12907 -54.1406 13.8916 -4.12907 53.7209 13.8916 -4.12907 
-52.5437 21.8786 -4.12907 50.0556 21.8786 -4.12907 47.6032 25.882 -4.12907 
-49.1849 29.8655 -4.12907 -48.2401 31.8408 -4.12907 -48.2401 29.8655 -1.9461 
45.0368 29.8655 -4.12907 39.6163 36.0531 -4.12907 -44.9276 37.8525 -4.12907 
-40.2531 43.4898 -4.12907 37.7426 37.8525 -4.12907 31.6293 42.8942 -4.12907 
-37.758 45.8394 -4.12907 -32.2662 49.6511 -4.12907 -24.2793 52.9239 -4.12907 
15.6555 52.3835 -4.12907 27.4133 45.8394 -4.12907 23.6424 48.3386 -4.12907 
-20.6867 53.8264 -4.12907 -16.2923 54.7889 -4.12907 -8.30537 56.3117 -4.12907 
-0.318428 56.1019 -4.12907 11.602 53.8264 -4.12907 7.66852 55.0348 -4.12907 
-40.2531 -47.0733 3.85787 -32.2662 -49.9168 3.85787 -24.2793 -49.8288 3.85787 
-16.2923 -49.3741 3.85787 -8.30537 -48.644 3.85787 -0.318428 -47.2345 3.85787 
7.66852 -45.8462 3.85787 15.6555 -45.0006 3.85787 23.6424 -44.5043 3.85787 
31.6293 -43.2031 3.85787 -47.9432 -42.017 3.85787 -48.2401 -41.7347 3.85787 
-0.318428 -42.017 11.6933 7.66852 -42.017 10.32 15.6555 -42.017 9.43058 
23.6424 -42.017 8.69366 36.6975 -42.017 3.85787 31.6293 -42.017 6.69599 
39.6163 -41.2989 3.85787 47.6032 -37.9595 3.85787 -53.531 -34.03 3.85787 
52.1525 -34.03 3.85787 47.6032 -34.03 10.5394 55.5902 -30.3436 3.85787 
-56.1607 -26.0431 3.85787 58.4614 -26.0431 3.85787 55.5902 -26.0431 9.31587 
-56.0934 -18.0561 3.85787 61.5202 -18.0561 3.85787 -55.3794 -10.0692 3.85787 
62.1417 -10.0692 3.85787 -54.6411 -2.08226 3.85787 -48.2401 -2.08226 11.6561 
60.8095 -2.08226 3.85787 -52.7168 5.90469 3.85787 -48.2401 5.90469 9.05354 
58.5473 5.90469 3.85787 55.5902 12.4283 3.85787 -51.0653 13.8916 3.85787 
-48.2401 13.8916 7.26515 54.9196 13.8916 3.85787 -48.9365 21.8786 3.85787 
-48.2401 23.5513 3.85787 -48.2401 21.8786 4.69628 -40.2531 21.8786 10.982 
50.5251 21.8786 3.85787 47.6032 26.2535 3.85787 47.6032 21.8786 9.17936 
-45.1968 29.8655 3.85787 -40.2531 29.8655 8.89971 44.9461 29.8655 3.85787 
39.6163 35.6652 3.85787 39.6163 29.8655 11.2879 -41.1597 37.8525 3.85787 
-40.2531 39.1466 3.85787 -40.2531 37.8525 4.83555 -32.2662 37.8525 10.7847 
37.2512 37.8525 3.85787 31.6293 42.5265 3.85787 31.6293 37.8525 10.4168 
-33.9324 45.8394 3.85787 -32.2662 47.0283 3.85787 -32.2662 45.8394 5.25532 
-24.2793 50.961 3.85787 -24.2793 45.8394 10.3404 -16.2923 45.8394 11.5774 
15.6555 52.2074 3.85787 26.932 45.8394 3.85787 23.6424 48.0555 3.85787 
23.6424 45.8394 7.34733 -16.5668 53.8264 3.85787 -16.2923 53.9054 3.85787 
-16.2923 53.8264 3.9855 -8.30537 55.5853 3.85787 -8.30537 53.8264 6.58097 
-0.318428 55.7089 3.85787 -0.318428 53.8264 7.13335 10.8869 53.8264 3.85787 
7.66852 54.7701 3.85787 7.66852 53.8264 5.6468 -40.2531 -42.2072 11.8448 
-32.2662 -44.3239 11.8448 -24.2793 -44.7149 11.8448 -16.2923 -44.2043 11.8448 
-8.30537 -43.141 11.8448 -40.5654 -42.017 11.8448 -48.2401 -36.2854 11.8448 
-40.2531 -42.017 12.0478 -32.2662 -42.017 14.0285 -24.2793 -42.017 14.2589 
-16.2923 -42.017 13.6377 -1.15825 -42.017 11.8448 -8.30537 -42.017 12.7549 
-0.318428 -41.8423 11.8448 7.66852 -40.5804 11.8448 15.6555 -39.9641 11.8448 
23.6424 -39.5782 11.8448 31.6293 -39.0815 11.8448 39.6163 -36.3736 11.8448 
-49.8749 -34.03 11.8448 -48.2401 -34.03 13.4861 -40.2531 -34.03 16.2792 
-32.2662 -34.03 18.1518 -24.2793 -34.03 18.1599 -16.2923 -34.03 17.5286 
-8.30537 -34.03 16.8337 -0.318428 -34.03 16.2241 7.66852 -34.03 15.8989 
15.6555 -34.03 15.8386 23.6424 -34.03 16.3158 31.6293 -34.03 15.8569 
45.5003 -34.03 11.8448 39.6163 -34.03 13.8431 47.6032 -32.7165 11.8448 
-51.2015 -26.0431 11.8448 -48.2401 -26.0431 14.5616 -40.2531 -26.0431 18.2543 
-32.2662 -26.0431 19.4764 -16.2923 -26.0431 19.1908 -8.30537 -26.0431 18.9723 
[...]
POINT_DATA 558
SCALARS ImageScalars float
LOOKUP_TABLE default
0 0 0 0 0 0 0 0 0 
0 0 0 0 0 0 0 0 0 
0 0 0 0 0 0 0 0 0 
0 0 0 0 0 0 0 0 0 
0 0 0 0 0 0 0 0 0 
0 0 0 0 0 0 0 0 0 
0 0 0 0 0 0 0 0 0 
0 0 0 0 0 0 0 0 0 
0 0 0 0 0 0 0 0 0 
0 0 0 0 0 0 0 0 0 
0 0 0 0 0 0 0 0 0 
0 0 0 0 0 0 0 0 0 
0 0 0 0 0 0 0 0 0 
0 0 0 0 0 0 0 0 0 
0 0 0 0 0 0 0 0 0 
0 0 0 0 0 0 0 0 0 
0 0 0 0 0 0 0 0 0 
0 0 0 0 0 0 0 0 0 
0 0 0 0 0 0 0 0 0 
0 0 0 0 0 0 0 0 0 
0 0 0 0 0 0 0 0 0 
0 0 0 0 0 0 0 0 0 
0 0 0 0 0 0 0 0 0 
0 0 0 0 0 0 0 0 0 
0 0 0 0 0 0 0 0 0 
0 0 0 0 0 0 0 0 0 
0 0 0 0 0 0 0 0 0 
0 0 0 0 0 0 0 0 0 
0 0 0 0 0 0 0 0 0 
0 0 0 0 0 0 0 0 0 
0 0 0 0 0 0 0 0 0 
0 0 0 0 0 0 0 0 0 
0 0 0 0 0 0 0 0 0 
0 0 0 0 0 0 0 0 0 
0 0 0 0 0 0 0 0 0 
0 0 0 0 0 0 0 0 0 
0 0 0 0 0 0 0 0 0 
0 0 0 0 0 0 0 0 0 
0 0 0 0 0 0 0 0 0 
0 0 0 0 0 0 0 0 0 
0 0 0 0 0 0 0 0 0 
0 0 0 0 0 0 0 0 0 
0 0 0 0 0 0 0 0 0 
0 0 0 0 0 0 0 0 0 
0 0 0 0 0 0 0 0 0 
0 0 0 0 0 0 0 0 0 
0 0 0 0 0 0 0 0 0 
0 0 0 0 0 0 0 0 0 
0 0 0 0 0 0 0 0 0 
0 0 0 0 0 0 0 0 0 
0 0 0 0 0 0 0 0 0 
0 0 0 0 0 0 0 0 0 
0 0 0 0 0 0 0 0 0 
0 0 0 0 0 0 0 0 0 
0 0 0 0 0 0 0 0 0 
0 0 0 0 0 0 0 0 0 
0 0 0 0 0 0 0 0 0 
0 0 0 0 0 0 0 0 0 
0 0 0 0 0 0 0 0 0 
0 0 0 0 0 0 0 0 0 
0 0 0 0 0 0 0 0 0 
0 0 0 0 0 0 0 0 0 

NORMALS Normals float
-0.0623179 -0.55912 -0.826741 -0.0252973 -0.538652 -0.842148 0.0747155 -0.470907 -0.879013 
-0.277097 -0.292407 -0.915268 -0.0966125 -0.301855 -0.948446 0.0308449 -0.245459 -0.968916 
0.101777 -0.229233 -0.968036 0.100908 -0.234182 -0.966942 0.0849462 -0.255016 -0.963198 
0.0500092 -0.333058 -0.941579 -0.0681653 -0.403144 -0.912594 -0.0565449 -0.415374 -0.907891 
0.0638963 -0.45524 -0.888073 0.228861 -0.530935 -0.815923 -0.308426 -0.107397 -0.945166 
-0.0838419 -0.0953235 -0.991909 0.0776057 -0.0959043 -0.992361 0.128935 -0.062007 -0.989712 
0.115462 0.000704045 -0.993312 0.0353742 -0.0530672 -0.997964 -0.0484697 -0.0888725 -0.994863 
-0.0766696 -0.135269 -0.987838 -0.09626 -0.135114 -0.986143 0.0185243 -0.212144 -0.977063 
0.195242 -0.225558 -0.954465 0.399841 -0.300254 -0.866011 -0.5804 -0.078536 -0.810535 
-0.284858 -0.0239707 -0.95827 -0.0778236 0.00739684 -0.99694 0.0639922 -0.010563 -0.997895 
0.20668 -0.0640048 -0.976313 0.107243 -0.0614281 -0.992333 -0.00696849 -0.130884 -0.991373 
-0.0358134 0.0365201 -0.998691 -0.10058 0.0418444 -0.994049 -0.126392 -0.0422804 -0.991079 
-0.0533607 -0.0500168 -0.997322 0.139887 -0.124135 -0.982355 0.301117 -0.0984698 -0.948489 
0.653521 -0.153125 -0.741258 -0.486201 -0.0563851 -0.872026 -0.268112 -0.0223834 -0.963128 
-0.0654064 0.00895748 -0.997819 0.00527129 0.0609439 -0.998127 0.0528819 -0.0792071 -0.995455 
0.056414 -0.242528 -0.968503 0.135632 0.136984 -0.981244 0.134809 -0.192527 -0.971988 
-0.163036 -0.102172 -0.981316 -0.193992 -0.0515008 -0.97965 -0.063512 -0.0116939 -0.997913 
0.155283 0.0222754 -0.987619 0.345886 0.0362902 -0.937575 -0.526365 -0.091999 -0.845267 
-0.244513 -0.058977 -0.967851 0.00559415 -0.0592293 -0.998229 -0.0177968 0.00398788 -0.999834 
-0.104323 0.0523242 -0.993166 0.35366 -0.127928 -0.926585 -0.303334 -0.111738 -0.94631 
0.0714471 -0.150957 -0.985955 -0.0144054 -0.0746209 -0.997108 0.0208194 -0.00903222 -0.999742 
0.174431 0.0531649 -0.983233 0.391198 0.0877861 -0.91611 -0.519701 -0.117913 -0.846172 
-0.221629 -0.0750879 -0.972236 -0.00961605 -0.125757 -0.992014 0.114015 -0.0960925 -0.988821 
-0.0231597 0.103023 -0.994409 -0.0756038 0.327459 -0.941836 0.175204 -0.202509 -0.96348 
-0.00859259 0.271045 -0.962528 -0.119913 0.0620872 -0.990841 -0.0679147 -0.0452036 -0.996667 
0.0642262 -0.0469077 -0.996832 0.238454 0.00222766 -0.971151 0.46781 0.157671 -0.869651 
-0.568185 -0.00723454 -0.822869 -0.24492 -0.0864111 -0.965685 -0.0228397 -0.0592816 -0.99798 
0.206482 -0.0392883 -0.977661 0.279508 0.0110482 -0.96008 0.121699 0.129877 -0.984033 
-0.0405836 0.102622 -0.993892 -0.101646 -0.0495487 -0.993586 -0.22989 -0.0169766 -0.973069 
-0.120814 -0.0320838 -0.992157 0.0574331 0.0335817 -0.997784 0.343521 0.0734244 -0.93627 
-0.669488 0.172132 -0.722604 -0.280797 0.0919748 -0.95535 0.0495411 0.0152064 -0.998656 
0.173625 0.0581151 -0.983096 0.207237 -0.00579393 -0.978274 0.0932544 -0.120584 -0.988313 
-0.0840131 -0.0887031 -0.992509 -0.128465 -0.174994 -0.976152 -0.121538 -0.0690238 -0.990184 
-0.0211357 0.0612562 -0.997898 0.164115 0.133301 -0.977393 0.419026 0.260218 -0.869887 
-0.356512 0.254115 -0.899069 -0.0418399 0.215461 -0.975616 0.175978 0.0946392 -0.979834 
0.113375 0.0317866 -0.993044 0.0167936 -0.0547941 -0.998356 -0.0851781 -0.0674624 -0.994079 
-0.0808291 -0.0321152 -0.99621 0.00572 0.0460629 -0.998922 0.0831902 0.192475 -0.977769 
0.275313 0.308715 -0.910438 0.547049 0.459144 -0.699946 -0.501485 0.5692 -0.651556 
-0.128798 0.41278 -0.901678 -0.0101118 0.261318 -0.9652 0.04969 0.141531 -0.988686 
-0.0112982 0.130974 -0.991321 -0.06258 0.133798 -0.989031 -0.00831312 0.200615 -0.979635 
0.105323 0.2981 -0.948706 0.234493 0.390948 -0.890041 -0.148333 0.557194 -0.817026 
-0.0596822 0.432821 -0.899502 -0.0232364 0.333862 -0.942336 -0.00283713 0.354335 -0.935114 
0.0953067 0.438292 -0.893766 0.243158 0.544759 -0.802566 -0.0646791 -0.56772 -0.820677 
-0.0332581 -0.580939 -0.813268 0.0673395 -0.524493 -0.848748 -0.170401 -0.563639 -0.808254 
-0.324653 -0.53253 -0.781672 -0.336859 -0.572062 -0.747844 0.113361 -0.474475 -0.872939 
0.136802 -0.441081 -0.88698 0.144535 -0.497536 -0.855317 0.119856 -0.411938 -0.903295 
0.164249 -0.623367 -0.764484 0.0700374 -0.428918 -0.900624 0.138579 -0.767066 -0.626423 
-0.0528688 -0.473384 -0.879268 0.0651975 -0.834369 -0.547336 -0.0480647 -0.580265 -0.813008 
0.0492811 -0.876664 -0.478573 0.0890349 -0.603239 -0.792575 0.137533 -0.931824 -0.335841 
0.238686 -0.587242 -0.773418 -0.551322 -0.312137 -0.773702 -0.606488 -0.319463 -0.728091 
0.316254 -0.538787 -0.780828 0.425808 -0.404051 -0.809587 0.501989 -0.606062 -0.617005 
-0.60303 -0.0435354 -0.79653 -0.601725 -0.0560365 -0.796735 -0.619248 -0.0429382 -0.784021 
0.470767 -0.333492 -0.8168 0.654808 -0.164703 -0.737631 0.741787 -0.429051 -0.51543 
-0.595881 -0.0828805 -0.798784 0.660899 -0.153265 -0.734658 0.648495 -0.037506 -0.760294 
-0.564033 -0.0645954 -0.823222 0.0238044 0.129895 -0.991242 0.614255 0.106655 -0.781866 
0.634477 0.107801 -0.765387 -0.621151 -0.0787213 -0.779727 0.0708243 0.0881514 -0.993586 
-0.0688041 0.0785125 -0.994536 0.020321 0.0373548 -0.999095 0.00308704 0.15764 -0.987492 
0.559644 0.143246 -0.816259 0.714926 0.175922 -0.676707 -0.724323 -0.0897816 -0.68359 
0.562482 0.205261 -0.800926 0.610285 0.231424 -0.757625 0.811604 0.31304 -0.49326 
-0.826224 0.0582594 -0.560321 0.617772 0.231963 -0.751366 0.640597 0.245907 -0.727437 
-0.815702 0.236293 -0.528011 -0.809598 0.395409 -0.433824 0.620169 0.293657 -0.727431 
0.794634 0.383735 -0.47043 -0.80371 0.407097 -0.433962 -0.852163 0.418882 -0.313618 
0.451906 0.567482 -0.688292 0.550074 0.460101 -0.696941 0.548741 0.462003 -0.696733 
-0.598441 0.596042 -0.535352 -0.538623 0.631863 -0.557346 -0.247894 0.658008 -0.711037 
0.450719 0.56838 -0.688329 0.326978 0.601959 -0.728513 0.455196 0.572283 -0.682121 
-0.192559 0.615788 -0.764019 -0.318767 0.758959 -0.567775 -0.161676 0.585668 -0.794263 
-0.113309 0.547716 -0.828956 -0.0618228 0.529703 -0.845927 0.0451227 0.566841 -0.82259 
0.142196 0.564452 -0.813127 0.268298 0.570808 -0.776012 0.255778 0.563849 -0.785272 
0.442507 0.774334 -0.452321 -0.200306 0.923762 -0.326408 -0.0789358 0.805027 -0.587963 
0.0824094 0.827952 -0.554711 0.217395 0.899677 -0.378577 -0.393484 -0.873908 -0.285404 
-0.192359 -0.932794 -0.304783 0.00699045 -0.967618 -0.252323 0.0695362 -0.967552 -0.242915 
0.150997 -0.947136 -0.283077 0.20468 -0.920687 -0.332328 0.163059 -0.917509 -0.362751 
0.0857092 -0.922907 -0.375362 0.0853683 -0.93514 -0.34384 0.150022 -0.95499 -0.255906 
-0.664786 -0.676246 -0.317412 -0.715678 -0.620763 -0.320091 0.196397 -0.94752 -0.252257 
0.271258 -0.925941 -0.262779 0.526265 -0.80719 -0.267375 -0.864327 -0.39101 -0.316306 
0.65235 -0.707186 -0.272632 0.777433 -0.553088 -0.299487 -0.917899 -0.186467 -0.350272 
0.851123 -0.418269 -0.317239 -0.952491 -0.038772 -0.302089 0.920205 -0.172766 -0.351248 
-0.983727 0.0137161 -0.179143 0.917249 0.0564321 -0.394296 -0.984417 0.0487834 -0.168945 
0.903622 0.19866 -0.379476 -0.996493 0.0817326 -0.0179586 0.876388 0.335513 -0.345507 
0.866623 0.370929 -0.333731 -0.981017 0.173161 0.0872982 0.857215 0.386991 -0.339737 
-0.950188 0.290463 0.11302 0.85025 0.453226 -0.267697 0.834093 0.501172 -0.230469 
-0.907292 0.405075 0.112852 -0.886426 0.446282 0.122809 -0.875284 0.418664 0.24207 
0.792392 0.576734 -0.198728 0.692994 0.699156 -0.1759 -0.803466 0.590574 0.0752659 
-0.713611 0.700366 0.0157346 0.6627 0.728836 -0.172124 0.583999 0.789304 -0.18959 
-0.632341 0.774217 -0.0270789 -0.464541 0.881219 -0.0874928 -0.309463 0.942339 -0.127394 
0.38721 0.893838 -0.226102 0.536241 0.81822 -0.207272 0.494178 0.840401 -0.222519 
-0.264101 0.953927 -0.142388 -0.206614 0.963206 -0.171889 -0.0881484 0.972803 -0.214207 
0.0832019 0.971741 -0.220902 0.30401 0.927019 -0.219575 0.216891 0.949626 -0.226204 
-0.382694 -0.899496 0.210836 -0.173955 -0.959517 0.221511 0.03132 -0.974294 0.223094 
0.0685632 -0.970303 0.23197 0.127061 -0.961448 0.243871 0.167616 -0.959283 0.227336 
0.137352 -0.970367 0.1988 0.0819823 -0.980496 0.178623 0.113296 -0.976959 0.180871 
0.189018 -0.967671 0.166985 -0.690465 -0.699378 0.184741 -0.704573 -0.686119 0.181157 
0.107833 -0.655079 0.747826 0.0876803 -0.764294 0.63888 0.0580941 -0.830982 0.553258 
0.0810888 -0.870298 0.485805 0.239422 -0.953037 0.185465 0.180889 -0.933993 0.308116 
0.279334 -0.938998 0.200639 0.540507 -0.81392 0.213043 -0.904444 -0.400722 0.146298 
0.662106 -0.723143 0.196672 0.479716 -0.644673 0.595206 0.760902 -0.619722 0.192284 
-0.970169 -0.161414 0.180882 0.862877 -0.470533 0.184505 0.728591 -0.447283 0.518742 
-0.980111 0.0448431 0.193316 0.966294 -0.212324 0.145586 -0.952361 0.0831519 0.293419 
0.991237 0.0430693 0.124877 -0.928759 0.147141 0.340229 -0.613015 0.197888 0.764887 
0.971346 0.212732 0.105985 -0.849013 0.20167 0.488371 -0.685531 0.205026 0.698579 
0.93024 0.356453 0.0871448 0.899899 0.424708 0.0990202 -0.80647 0.20706 0.553835 
-0.716807 0.194664 0.669547 0.891292 0.440498 0.107517 -0.762387 0.291802 0.577597 
-0.743631 0.32132 0.586316 -0.733163 0.299479 0.61056 -0.526156 0.201891 0.826075 
0.833344 0.521919 0.182038 0.798553 0.569729 0.194224 0.740112 0.488638 0.462025 
-0.696747 0.365919 0.616966 -0.615247 0.279308 0.737196 0.758839 0.613078 0.219771 
0.674424 0.700266 0.234049 0.527325 0.543498 0.653099 -0.695917 0.460199 0.551285 
-0.676574 0.502097 0.538652 -0.67762 0.456815 0.576326 -0.468775 0.4026 0.786234 
0.644095 0.72591 0.241241 0.582428 0.773148 0.251036 0.505086 0.624397 0.595832 
-0.504475 0.703482 0.500617 -0.48273 0.727059 0.488218 -0.483197 0.678175 0.553714 
-0.359986 0.826773 0.432269 -0.283494 0.624971 0.727353 -0.135677 0.549143 0.824642 
0.37956 0.886901 0.263327 0.53698 0.803691 0.256386 0.502862 0.822712 0.265092 
0.463064 0.76633 0.44532 -0.254648 0.895026 0.366172 -0.25055 0.897036 0.364076 
-0.250932 0.894038 0.37112 -0.113734 0.925549 0.361143 -0.123468 0.847183 0.516756 
0.0510273 0.950407 0.306795 0.0267242 0.865361 0.500437 0.276789 0.923724 0.264804 
0.201593 0.940523 0.273454 0.195698 0.906057 0.375183 -0.329622 -0.666919 0.668258 
-0.128591 -0.689993 0.712302 0.00626368 -0.718103 0.695908 0.072016 -0.680935 0.728794 
0.106216 -0.645068 0.756707 -0.339048 -0.660735 0.669683 -0.612754 -0.43906 0.657084 
-0.331379 -0.657491 0.676678 -0.107712 -0.607864 0.786702 0.0238294 -0.619187 0.784882 
0.0814499 -0.586293 0.805994 0.106382 -0.644617 0.757068 0.104131 -0.60144 0.792103 
0.105371 -0.643402 0.758242 0.0686741 -0.654889 0.752599 0.0402075 -0.675033 0.736691 
0.0393652 -0.706444 0.706673 0.142806 -0.747572 0.648647 0.275769 -0.658433 0.700298 
-0.677451 -0.354075 0.644741 -0.602817 -0.363283 0.710378 -0.258268 -0.306692 0.916099 
-0.122255 -0.28203 0.951585 0.0357114 -0.306279 0.951272 0.0814619 -0.308411 0.947759 
0.0778831 -0.353125 0.932329 0.0546809 -0.367891 0.92826 0.0226702 -0.393246 0.919154 
-0.0210916 -0.432111 0.901574 -0.00161958 -0.49782 0.867279 0.128683 -0.506624 0.85251 
0.401527 -0.610016 0.683122 0.259001 -0.570584 0.779328 0.445389 -0.582917 0.679585 
-0.709868 -0.078527 0.699943 -0.585387 -0.0742872 0.807344 -0.257541 -0.125959 0.958022 
-0.118348 -0.119364 0.985772 0.0796722 -0.0931301 0.992461 0.0507839 -0.127399 0.990551 
0.0533619 -0.207592 0.976759 0.00397017 -0.168764 0.985648 -0.0724436 -0.194989 0.978126 
-0.036167 -0.193402 0.980453 0.0723277 -0.27897 0.957572 0.217442 -0.32176 0.921515 
0.597207 -0.407756 0.690709 0.403045 -0.37498 0.834832 0.687842 -0.283785 0.668087 
-0.726396 0.0635381 0.684334 -0.600113 0.0672286 0.797085 -0.270191 0.0394939 0.961996 
0.054201 0.0308381 0.998054 -0.0397811 -0.0373032 0.998512 0.0201175 -0.131635 0.991094 
0.0379795 -0.0843686 0.995711 -0.0816107 -0.0511468 0.995351 0.185749 -0.106491 0.97681 
0.307699 -0.161435 0.937689 0.722927 -0.192671 0.663517 0.674711 -0.192669 0.712492 
-0.684752 0.140919 0.715022 -0.612172 0.191959 0.76707 -0.62372 0.153782 0.766371 
-0.300693 0.122684 0.945797 -0.099933 0.123292 0.987326 0.0251027 0.0570129 0.998058 
-0.0189559 -0.0443219 0.998837 -0.115877 -0.150653 0.981772 0.0822198 -0.130626 0.988017 
-0.0182841 -0.0047736 0.999821 -0.073236 0.0485401 0.996133 0.29864 -0.0158855 0.954234 
0.726763 -0.0027908 0.686883 0.635606 -0.00258097 0.77201 -0.601612 0.198159 0.773819 
-0.362278 0.181891 0.91415 -0.166246 0.106526 0.980314 -0.100736 0.0686652 0.992541 
-0.151023 0.00165029 0.988529 0.038369 0.0511788 0.997952 0.0970523 0.038365 0.99454 
-0.0389006 0.0601714 0.99743 -0.0196606 0.066917 0.997565 0.112074 0.06713 0.99143 
0.32143 0.0816413 0.943407 0.752996 0.122335 0.646554 0.694542 0.113099 0.710507 
-0.548071 0.20707 0.810395 -0.417335 0.192904 0.888042 -0.206824 0.131214 0.96954 
-0.0779681 0.0855539 0.993278 -0.0718861 0.125767 0.989452 -0.0844678 0.206452 0.974804 
0.149129 0.0788566 0.985668 -0.0441613 0.0252633 0.998705 -0.00296365 0.036301 0.999336 
0.139473 0.0725823 0.987562 0.369591 0.212882 0.90448 0.765469 0.283021 0.577889 
0.763998 0.287091 0.577828 0.761449 0.28233 0.583511 -0.497812 0.190676 0.846065 
-0.492414 0.19257 0.84879 -0.456911 0.187353 0.869558 -0.28059 0.129042 0.951114 
-0.109786 0.035827 0.993309 -0.0288697 0.0326721 0.999049 -0.136044 0.0679237 0.988372 
0.13592 0.192558 0.971827 -0.0390725 0.0142524 0.999135 -0.0745343 0.0378433 0.9965 
0.0235166 0.0979582 0.994913 0.274791 0.174342 0.945566 0.641046 0.409464 0.649153 
0.638028 0.426719 0.640961 0.534197 0.342225 0.772991 -0.491628 0.185073 0.850911 
-0.366389 0.135955 0.920476 -0.169044 0.0808771 0.982285 -0.0345635 0.0329406 0.998859 
-0.029988 0.028723 0.999137 0.00280756 0.132954 0.991118 0.0139167 0.0172535 0.999754 
-0.00567487 -0.006074 0.999965 0.0436897 0.10909 0.993071 0.140349 0.214061 0.966685 
0.627854 0.438073 0.643344 0.50637 0.522091 0.686302 0.356793 0.360098 0.861991 
-0.498958 0.248696 0.830175 -0.44816 0.343391 0.82537 -0.397566 0.225238 0.889499 
-0.207262 0.190762 0.959506 -0.0852424 0.148267 0.985267 -0.0323899 0.122962 0.991883 
-0.0200708 0.119416 0.992641 -0.0107304 0.0822882 0.996551 0.0576981 0.1073 0.992551 
0.146884 0.213201 0.965904 0.498019 0.523359 0.691427 0.454404 0.557327 0.694912 
0.311712 0.351133 0.882916 -0.412875 0.380115 0.827676 -0.265764 0.525711 0.808083 
-0.251084 0.330728 0.909712 -0.130182 0.529513 0.838253 -0.107354 0.300316 0.947779 
-0.0648227 0.274808 0.959311 -0.0423515 0.24558 0.968451 0.0092095 0.254062 0.967144 
0.129552 0.337985 0.932192 0.440611 0.566119 0.696686 0.353901 0.588501 0.726925 
0.278234 0.431383 0.858193 -0.130515 0.529875 0.837973 -0.127323 0.531054 0.837718 
-0.113097 0.464401 0.878374 -0.0259129 0.577515 0.815968 -0.0337772 0.45673 0.888964 
0.117999 0.60032 0.791007 0.0955811 0.498074 0.861851 0.267217 0.582236 0.767852 
0.262345 0.581129 0.770366 0.2587 0.575166 0.776053 0.0220607 -0.145596 0.989098 
-0.0565367 -0.114171 0.991851 -0.110033 -0.050072 0.992666 0.0422284 -0.101956 0.993892 
0.0174395 -0.108264 0.993969 -0.0838122 -0.0730808 0.993798 0.0542447 -0.183146 0.981588 
-0.130784 0.0295126 0.990972 -0.101004 0.0598214 0.993086 -0.100903 0.0250512 0.994581 
0.0673781 0.0602839 0.995905 0.0633554 0.0627625 0.996016 0.0691036 0.0632423 0.995603 
0.0191578 -0.103536 0.994441 -0.0986403 -0.031766 0.994616 -0.0824939 0.0259616 0.996253 
-0.102546 -0.0272548 0.994355 0.140842 -0.0983751 0.985132 0.0381407 -0.0838416 0.995749 
0.130581 -0.0257264 0.991104 -0.0853431 -0.0798193 0.993149 -0.0856712 -0.132851 0.987427 
0.0571193 -0.0339041 0.997792 0.0158742 0.11821 0.992862 0.0122094 0.133461 0.990979 
0.0343331 -0.130169 0.990897 -0.0637735 0.0504061 0.996691 -0.0195053 0.0668115 0.997575 
-0.0108033 0.0581198 0.998251 0.127756 -0.0120493 0.991732 0.118035 0.00656528 0.992988 
0.1197 -0.0113337 0.992745 -0.1491 0.00175048 0.988821 0.105478 0.0253742 0.994098 
-0.0289106 0.163766 0.986076 0.137236 0.0191213 0.990354 -0.0657404 -0.0730762 0.995157 
-0.123895 -0.168428 0.977897 0.0248567 -0.0197274 0.999496 -0.101554 -0.115339 0.988121 
-0.125308 -0.077488 0.989087 -0.135432 -0.182487 0.973836 0.131065 0.120218 0.984058 
0.115696 0.188837 0.975169 0.0953746 0.153097 0.983598 -0.030001 0.0936869 0.99515 
0.016798 0.11642 0.993058 -0.00540359 0.105589 0.994395 -0.0105012 0.100545 0.994877 

