# vtk DataFile Version 4.2
vtk output
ASCII
DATASET POLYDATA
POINTS 522 float
-35.9817 -27.5256 -15.9589 -28.093 -27.5256 -17.402 -20.2043 -27.5256 -18.2907 
-12.3156 -27.5256 -17.5222 -4.42684 -27.5256 -17.5206 3.46188 -27.5256 -18.0211 
11.3506 -27.5256 -17.6546 19.2393 -27.5256 -17.2565 27.128 -27.5256 -16.7949 
-43.8704 -19.6369 -15.8142 -35.9817 -19.6369 -18.3361 -28.093 -19.6369 -19.3307 
-20.2043 -19.6369 -19.3692 -12.3156 -19.6369 -18.2526 -4.42684 -19.6369 -17.5432 
3.46188 -19.6369 -18.7302 11.3506 -19.6369 -19.0996 19.2393 -19.6369 -19.0083 
27.128 -19.6369 -18.6013 35.0168 -19.6369 -18.5147 42.9055 -19.6369 -15.5436 
-43.8704 -11.7482 -17.2522 -35.9817 -11.7482 -18.9057 -28.093 -11.7482 -19.3452 
-20.2043 -11.7482 -19.1983 -12.3156 -11.7482 -18.7213 -4.42684 -11.7482 -18.8648 
3.46188 -11.7482 -20.3121 11.3506 -11.7482 -19.8136 19.2393 -11.7482 -19.1387 
27.128 -11.7482 -19.6713 35.0168 -11.7482 -19.6694 42.9055 -11.7482 -17.8656 
-43.8704 -3.85945 -18.0537 -35.9817 -3.85945 -19.334 -28.093 -3.85945 -19.3502 
-20.2043 -3.85945 -18.6554 -12.3156 -3.85945 -21.5461 -4.42684 -3.85945 -21.5429 
3.46188 -3.85945 -18.4423 11.3506 -3.85945 -19.1832 19.2393 -3.85945 -18.9974 
27.128 -3.85945 -19.5627 35.0168 -3.85945 -19.7236 42.9055 -3.85945 -18.9898 
50.7942 -3.85945 -16.3783 -43.8704 4.02927 -17.3073 -35.9817 4.02927 -18.7922 
-28.093 4.02927 -18.8516 -20.2043 4.02927 -17.983 -12.3156 4.02927 -21.2985 
-4.42684 4.02927 -21.779 3.46188 4.02927 -18.269 11.3506 4.02927 -19.9923 
19.2393 4.02927 -19.6325 27.128 4.02927 -20.0517 35.0168 4.02927 -20.1252 
42.9055 4.02927 -19.1915 50.7942 4.02927 -16.5147 -35.9817 11.918 -17.2463 
-28.093 11.918 -18.0459 -20.2043 11.918 -18.151 -12.3156 11.918 -19.2406 
-4.42684 11.918 -19.0106 3.46188 11.918 -17.9742 11.3506 11.918 -19.5855 
19.2393 11.918 -19.8631 27.128 11.918 -20.4136 35.0168 11.918 -20.4262 
42.9055 11.918 -18.5421 50.7942 11.918 -15.5205 -35.9817 19.8067 -15.7352 
-28.093 19.8067 -17.9509 -20.2043 19.8067 -18.7885 -12.3156 19.8067 -19.3557 
-4.42684 19.8067 -17.8913 3.46188 19.8067 -17.3358 11.3506 19.8067 -18.4186 
19.2393 19.8067 -19.0138 27.128 19.8067 -18.9192 35.0168 19.8067 -18.3964 
42.9055 19.8067 -16.4541 -28.093 27.6954 -16.557 -20.2043 27.6954 -18.5465 
-12.3156 27.6954 -18.9203 -4.42684 27.6954 -18.2146 3.46188 27.6954 -17.7801 
11.3506 27.6954 -17.6616 19.2393 27.6954 -17.5991 27.128 27.6954 -16.9844 
-20.2043 35.5842 -16.2119 -12.3156 35.5842 -16.6781 -4.42684 35.5842 -16.6159 
3.46188 35.5842 -16.3653 11.3506 35.5842 -16.3386 -35.9817 -28.4062 -15.441 
-35.9817 -35.4143 -9.95379 -28.093 -31.4136 -15.441 -28.093 -35.4143 -12.4178 
-20.2043 -33.2827 -15.441 -20.2043 -35.4143 -13.9607 -12.3156 -35.3578 -15.441 
-12.3156 -35.4143 -15.4199 -4.42684 -35.0296 -15.441 -4.42684 -35.4143 -15.3172 
3.46188 -35.0332 -15.441 3.46188 -35.4143 -15.2883 11.3506 -33.4055 -15.441 
11.3506 -35.4143 -14.4149 19.2393 -30.9349 -15.441 19.2393 -35.4143 -12.3869 
27.128 -29.8089 -15.441 27.128 -35.4143 -10.1462 -37.3127 -27.5256 -15.441 
-43.8704 -20.6962 -15.441 -43.8704 -27.5256 -12.5641 32.5586 -27.5256 -15.441 
35.0168 -26.3182 -15.441 35.0168 -27.5256 -14.6831 42.9055 -19.8625 -15.441 
42.9055 -27.5256 -10.504 -44.569 -19.6369 -15.441 -51.7592 -19.6369 -10.7852 
43.1037 -19.6369 -15.441 50.7942 -19.6369 -9.94607 -47.9574 -11.7482 -15.441 
-51.7592 -11.7482 -13.5815 48.3774 -11.7482 -15.441 50.7942 -7.72277 -15.441 
50.7942 -11.7482 -14.161 -49.5986 -3.85945 -15.441 -51.7592 -3.85945 -14.3293 
52.1514 -3.85945 -15.441 58.6829 -3.85945 -8.16629 -47.7891 4.02927 -15.441 
-51.7592 4.02927 -13.1808 -43.8704 10.3317 -15.441 52.3312 4.02927 -15.441 
58.6829 4.02927 -8.23245 -51.7592 11.918 -9.48959 -42.3513 11.918 -15.441 
-43.8704 11.918 -14.9628 50.9007 11.918 -15.441 50.7942 12.1399 -15.441 
-36.7226 19.8067 -15.441 -43.8704 19.8067 -12.1155 -35.9817 21.1726 -15.441 
35.0168 26.6674 -15.441 44.8932 19.8067 -15.441 42.9055 21.7382 -15.441 
50.7942 19.8067 -11.0719 -31.8135 27.6954 -15.441 -35.9817 27.6954 -13.6597 
-28.093 30.7544 -15.441 19.2393 32.9386 -15.441 33.372 27.6954 -15.441 
27.128 30.3859 -15.441 35.0168 27.6954 -14.9198 42.9055 27.6954 -10.7446 
-22.5377 35.5842 -15.441 -28.093 35.5842 -13.1743 -20.2043 36.8302 -15.441 
-12.3156 37.9562 -15.441 -4.42684 37.8128 -15.441 3.46188 37.4311 -15.441 
15.0961 35.5842 -15.441 11.3506 37.335 -15.441 19.2393 35.5842 -14.097 
27.128 35.5842 -10.8926 -20.2043 43.4729 -8.42124 -12.3156 43.4729 -10.6936 
-4.42684 43.4729 -11.2462 3.46188 43.4729 -11.1818 11.3506 43.4729 -9.5039 
-35.9817 -37.024 -7.55225 -28.093 -38.8033 -7.55225 -20.2043 -39.9243 -7.55225 
-12.3156 -41.2719 -7.55225 -4.42684 -42.4696 -7.55225 3.46188 -42.3487 -7.55225 
11.3506 -40.9111 -7.55225 19.2393 -39.2547 -7.55225 27.128 -37.2196 -7.55225 
-39.2685 -35.4143 -7.55225 -43.8704 -32.5561 -7.55225 32.3478 -35.4143 -7.55225 
35.0168 -34.4189 -7.55225 35.0168 -35.4143 -4.18031 42.9055 -30.0684 -7.55225 
-49.548 -27.5256 -7.55225 -51.7592 -24.5306 -7.55225 -51.7592 -27.5256 -3.22549 
46.1204 -27.5256 -7.55225 50.7942 -22.5093 -7.55225 -55.0741 -19.6369 -7.55225 
52.9063 -19.6369 -7.55225 -57.6531 -11.7482 -7.55225 -59.6479 -11.7482 -1.00671 
56.7242 -11.7482 -7.55225 58.6829 -5.32725 -7.55225 58.6829 -11.7482 -0.424245 
-57.746 -3.85945 -7.55225 -59.6479 -3.85945 -1.28208 59.0954 -3.85945 -7.55225 
-56.5997 4.02927 -7.55225 59.1275 4.02927 -7.55225 58.6829 6.14294 -7.55225 
-53.4604 11.918 -7.55225 -51.7592 15.0112 -7.55225 57.3863 11.918 -7.55225 
-48.8217 19.8067 -7.55225 -51.7592 19.8067 -0.285359 -43.8704 26.3345 -7.55225 
53.6585 19.8067 -7.55225 50.7942 23.4088 -7.55225 -42.7324 27.6954 -7.55225 
-43.8704 27.6954 -5.66441 -35.9817 35.0834 -7.55225 35.0168 34.4387 -7.55225 
46.2517 27.6954 -7.55225 42.9055 30.0905 -7.55225 -35.4899 35.5842 -7.55225 
-35.9817 35.5842 -6.77396 -28.093 40.9527 -7.55225 19.2393 41.5807 -7.55225 
32.5844 35.5842 -7.55225 27.128 38.0966 -7.55225 -21.7212 43.4729 -7.55225 
-20.2043 44.0125 -7.55225 -12.3156 45.3415 -7.55225 -4.42684 46.0181 -7.55225 
3.46188 45.9991 -7.55225 14.5379 43.4729 -7.55225 11.3506 44.6011 -7.55225 
-35.9817 -38.5368 0.336469 -28.093 -39.7786 0.336469 -20.2043 -40.6623 0.336469 
-12.3156 -41.6965 0.336469 -4.42684 -42.9669 0.336469 3.46188 -43.2059 0.336469 
11.3506 -42.3426 0.336469 19.2393 -41.1241 0.336469 27.128 -39.3211 0.336469 
35.0168 -36.6445 0.336469 -51.7592 -29.345 0.336469 -43.1566 -35.4143 0.336469 
-43.8704 -35.0667 0.336469 37.5563 -35.4143 0.336469 35.0168 -35.4143 7.9766 
42.9055 -32.3915 0.336469 -53.3451 -27.5256 0.336469 -51.7592 -27.5256 5.12883 
48.924 -27.5256 0.336469 50.7942 -25.5291 0.336469 -57.8866 -19.6369 0.336469 
-59.6479 -13.1135 0.336469 54.9831 -19.6369 0.336469 58.6829 -12.1795 0.336469 
-59.9897 -11.7482 0.336469 -59.6479 -11.7482 1.61448 58.8677 -11.7482 0.336469 
58.6829 -11.7482 1.03834 -60.0876 -3.85945 0.336469 -59.6479 -1.73638 0.336469 
-59.6479 -3.85945 1.81741 60.8853 -3.85945 0.336469 58.6829 -3.85945 7.48325 
-58.4229 4.02927 0.336469 60.4348 4.02927 0.336469 58.6829 10.065 0.336469 
58.6829 4.02927 5.80995 -55.994 11.918 0.336469 58.1051 11.918 0.336469 
-51.95 19.8067 0.336469 -51.7592 20.1099 0.336469 -51.7592 19.8067 1.10743 
54.3223 19.8067 0.336469 50.7942 23.8707 0.336469 50.7942 19.8067 6.32391 
-46.5752 27.6954 0.336469 -43.8704 31.0343 0.336469 35.0168 35.2017 0.336469 
46.8459 27.6954 0.336469 42.9055 30.8422 0.336469 42.9055 27.6954 6.28619 
-39.6017 35.5842 0.336469 -35.9817 38.6327 0.336469 -28.093 43.4348 0.336469 
19.2393 42.0359 0.336469 34.2239 35.5842 0.336469 27.128 39.0034 0.336469 
27.128 35.5842 7.9934 -27.9566 43.4729 0.336469 -20.2043 45.4032 0.336469 
-20.2043 43.4729 7.43185 -12.3156 46.4023 0.336469 -4.42684 46.8918 0.336469 
3.46188 46.3829 0.336469 3.46188 43.4729 7.51563 14.8765 43.4729 0.336469 
11.3506 44.6587 0.336469 11.3506 43.4729 2.92212 -35.9817 -36.3454 8.22519 
-28.093 -37.1619 8.22519 -20.2043 -37.931 8.22519 -12.3156 -39.2887 8.22519 
-4.42684 -40.6683 8.22519 3.46188 -41.0852 8.22519 11.3506 -40.8743 8.22519 
19.2393 -40.0493 8.22519 27.128 -38.3241 8.22519 -38.1855 -35.4143 8.22519 
-43.8704 -32.4446 8.22519 -35.9817 -35.4143 9.58631 -28.093 -35.4143 10.6494 
-20.2043 -35.4143 11.6197 -12.3156 -35.4143 13.4312 -4.42684 -35.4143 14.697 
3.46188 -35.4143 15.3135 11.3506 -35.4143 15.9618 34.9145 -35.4143 8.22519 
27.128 -35.4143 14.0391 35.0168 -35.3712 8.22519 42.9055 -30.3704 8.22519 
-50.4662 -27.5256 8.22519 -51.7592 -25.9806 8.22519 -43.8704 -27.5256 13.8471 
-35.9817 -27.5256 15.6672 46.3183 -27.5256 8.22519 42.9055 -27.5256 12.4108 
50.7942 -22.4615 8.22519 -55.4896 -19.6369 8.22519 -51.7592 -19.6369 12.6104 
52.8486 -19.6369 8.22519 50.7942 -19.6369 11.1036 -57.8033 -11.7482 8.22519 
-51.7592 -11.7482 15.3899 56.6235 -11.7482 8.22519 50.7942 -11.7482 15.8013 
-57.3792 -3.85945 8.22519 -51.7592 -3.85945 14.9488 58.414 -3.85945 8.22519 
-56.0404 4.02927 8.22519 -51.7592 4.02927 13.4972 57.7598 4.02927 8.22519 
50.7942 4.02927 15.8485 -53.6463 11.918 8.22519 -51.7592 15.8297 8.22519 
-51.7592 11.918 10.772 54.739 11.918 8.22519 50.7942 18.2306 8.22519 
50.7942 11.918 12.5677 -49.843 19.8067 8.22519 -43.8704 19.8067 14.779 
49.4239 19.8067 8.22519 42.9055 26.3662 8.22519 42.9055 19.8067 13.3169 
-44.7971 27.6954 8.22519 -43.8704 28.8453 8.22519 -43.8704 27.6954 9.45105 
-35.9817 27.6954 15.6043 27.128 35.4588 8.22519 27.128 27.6954 15.3947 
41.225 27.6954 8.22519 35.0168 31.5276 8.22519 35.0168 27.6954 12.1024 
-37.4252 35.5842 8.22519 -35.9817 36.7395 8.22519 -35.9817 35.5842 9.77079 
-28.093 40.9352 8.22519 -28.093 35.5842 13.6957 -20.2043 43.2107 8.22519 
-20.2043 35.5842 15.8294 3.46188 43.1129 8.22519 3.46188 35.5842 14.8951 
11.3506 40.6436 8.22519 11.3506 35.5842 13.1995 26.7865 35.5842 8.22519 
19.2393 38.1225 8.22519 19.2393 35.5842 11.0299 -18.1779 43.4729 8.22519 
-12.3156 44.1277 8.22519 -12.3156 43.4729 9.22843 1.13133 43.4729 8.22519 
[...]
POINT_DATA 522
SCALARS ImageScalars float
LOOKUP_TABLE default
0 0 0 0 0 0 0 0 0 
0 0 0 0 0 0 0 0 0 
0 0 0 0 0 0 0 0 0 
0 0 0 0 0 0 0 0 0 
0 0 0 0 0 0 0 0 0 
0 0 0 0 0 0 0 0 0 
0 0 0 0 0 0 0 0 0 
0 0 0 0 0 0 0 0 0 
0 0 0 0 0 0 0 0 0 
0 0 0 0 0 0 0 0 0 
0 0 0 0 0 0 0 0 0 
0 0 0 0 0 0 0 0 0 
0 0 0 0 0 0 0 0 0 
0 0 0 0 0 0 0 0 0 
0 0 0 0 0 0 0 0 0 
0 0 0 0 0 0 0 0 0 
0 0 0 0 0 0 0 0 0 
0 0 0 0 0 0 0 0 0 
0 0 0 0 0 0 0 0 0 
0 0 0 0 0 0 0 0 0 
0 0 0 0 0 0 0 0 0 
0 0 0 0 0 0 0 0 0 
0 0 0 0 0 0 0 0 0 
0 0 0 0 0 0 0 0 0 
0 0 0 0 0 0 0 0 0 
0 0 0 0 0 0 0 0 0 
0 0 0 0 0 0 0 0 0 
0 0 0 0 0 0 0 0 0 
0 0 0 0 0 0 0 0 0 
0 0 0 0 0 0 0 0 0 
0 0 0 0 0 0 0 0 0 
0 0 0 0 0 0 0 0 0 
0 0 0 0 0 0 0 0 0 
0 0 0 0 0 0 0 0 0 
0 0 0 0 0 0 0 0 0 
0 0 0 0 0 0 0 0 0 
0 0 0 0 0 0 0 0 0 
0 0 0 0 0 0 0 0 0 
0 0 0 0 0 0 0 0 0 
0 0 0 0 0 0 0 0 0 
0 0 0 0 0 0 0 0 0 
0 0 0 0 0 0 0 0 0 
0 0 0 0 0 0 0 0 0 
0 0 0 0 0 0 0 0 0 
0 0 0 0 0 0 0 0 0 
0 0 0 0 0 0 0 0 0 
0 0 0 0 0 0 0 0 0 
0 0 0 0 0 0 0 0 0 
0 0 0 0 0 0 0 0 0 
0 0 0 0 0 0 0 0 0 
0 0 0 0 0 0 0 0 0 
0 0 0 0 0 0 0 0 0 
0 0 0 0 0 0 0 0 0 
0 0 0 0 0 0 0 0 0 
0 0 0 0 0 0 0 0 0 
0 0 0 0 0 0 0 0 0 
0 0 0 0 0 0 0 0 0 
0 0 0 0 0 0 0 0 0 

NORMALS Normals float
0.262246 0.423108 0.867299 0.125904 0.345766 0.929836 0.00560863 0.286926 0.957936 
-0.0443266 0.170083 0.984432 0.0305838 0.125082 0.991675 0.00895126 0.197551 0.980252 
-0.0451958 0.266538 0.962764 -0.0536706 0.353568 0.933868 -0.136344 0.392783 0.909468 
0.405877 0.239867 0.881889 0.206129 0.157959 0.965691 0.0664568 0.112088 0.991474 
-0.066576 0.0523078 0.996409 -0.115555 0.0750503 0.990462 0.0309222 0.0774296 0.996518 
0.0988071 0.140045 0.985203 0.0171473 0.132487 0.991036 -0.0306628 0.106739 0.993814 
-0.0323584 0.17858 0.983393 -0.163397 0.259692 0.951768 -0.428553 0.329078 0.841457 
0.308897 0.128068 0.942434 0.123467 0.0657022 0.990171 0.0177765 0.00131089 0.999841 
-0.0389501 -0.0440232 0.998271 -0.0228152 0.188564 0.981796 0.102377 0.239142 0.965573 
0.0531533 -0.00672117 0.998564 -0.0737021 0.00654007 0.997259 -0.00915008 -0.000425896 0.999958 
0.033739 0.0597076 0.997646 -0.106265 0.0860053 0.990611 -0.311429 0.203132 0.928305 
0.302308 0.003704 0.953203 0.0743929 -0.00700735 0.997204 -0.0417799 -0.0311975 0.99864 
0.115616 -0.0784487 0.990191 0.196603 0.182344 0.963378 -0.19349 0.183145 0.963857 
-0.130847 -0.134481 0.982239 0.0306592 0.0104782 0.999475 0.0244413 0.0312365 0.999213 
0.0458474 0.0241257 0.998657 -0.037687 0.0284901 0.998883 -0.204839 0.0756624 0.975867 
-0.491465 0.121292 0.862409 0.313573 -0.175871 0.933135 0.0884726 -0.130273 0.987523 
-0.0506447 -0.0822917 0.995321 0.0976107 -0.0320398 0.994709 0.271982 -0.165802 0.947911 
-0.205415 -0.155613 0.966224 -0.0812589 -0.0286054 0.996282 0.0790796 0.02434 0.996571 
0.00430441 0.054799 0.998488 0.0311102 0.0535731 0.998079 -0.0565382 0.0432713 0.997462 
-0.220013 -0.0277862 0.975101 -0.498478 -0.0504089 0.865435 0.173467 -0.175462 0.969083 
0.056016 -0.057349 0.996781 0.074537 0.0503858 0.995945 0.0583607 -0.0883793 0.994376 
-0.0813328 -0.236443 0.968235 0.0468765 -0.059224 0.997143 0.111765 -0.100234 0.988667 
0.0519819 -0.040272 0.997836 0.0357774 -0.0698499 0.996916 -0.118657 -0.0978994 0.988097 
-0.287235 -0.152694 0.945611 -0.536186 -0.225136 0.813522 0.317066 -0.193609 0.928431 
0.179046 -0.0946863 0.979274 0.0866839 0.0249054 0.995925 -0.0568498 -0.0199752 0.998183 
-0.127254 -0.0428841 0.990943 0.0340174 -0.00898433 0.999381 0.102855 -0.119955 0.987437 
0.0312539 -0.135577 0.990274 -0.0360763 -0.214034 0.97616 -0.139858 -0.302573 0.942809 
-0.330483 -0.36961 0.868429 0.273868 -0.252266 0.928094 0.145442 -0.152909 0.977479 
-0.0185845 -0.158014 0.987262 -0.0729695 -0.0744684 0.99455 -0.0339217 -0.0571043 0.997792 
-0.0111421 -0.133409 0.990998 -0.0433295 -0.283762 0.957915 -0.140766 -0.387632 0.911003 
0.178534 -0.43961 0.880266 0.0248465 -0.382476 0.923631 -0.0187612 -0.335508 0.941851 
-0.0165822 -0.318096 0.947914 -0.118336 -0.337533 0.933846 0.266779 0.452051 0.851164 
0.327395 0.77884 0.534996 0.151512 0.500331 0.852475 0.176428 0.749803 0.637706 
0.0954269 0.531165 0.841878 0.135005 0.667563 0.732212 0.0568388 0.48992 0.869912 
0.0578319 0.493284 0.867944 -0.00561096 0.410141 0.912005 -0.00637513 0.42964 0.902978 
-0.0387992 0.448459 0.892961 -0.0425931 0.466528 0.883481 -0.112555 0.47345 0.8736 
-0.14269 0.577482 0.803837 -0.101212 0.468274 0.877768 -0.187316 0.682934 0.706056 
-0.160809 0.492114 0.855549 -0.25172 0.796037 0.55042 0.278373 0.43067 0.858505 
0.405208 0.266001 0.874671 0.426304 0.501236 0.753012 -0.234612 0.499799 0.833761 
-0.261515 0.500885 0.82506 -0.28416 0.553578 0.782818 -0.430892 0.334812 0.837993 
-0.515831 0.638162 0.571548 0.425429 0.239559 0.872709 0.64255 0.349492 0.681898 
-0.433886 0.331595 0.837728 -0.678081 0.492827 0.545278 0.38268 0.145816 0.912301 
0.520117 0.173365 0.836315 -0.433162 0.266083 0.861145 -0.495536 0.200334 0.845169 
-0.522639 0.293437 0.800464 0.445465 -0.00725165 0.89527 0.52899 -0.0158154 0.848481 
-0.548424 0.115663 0.828162 -0.881098 0.12914 0.454961 0.417593 -0.192389 0.888033 
0.587071 -0.225972 0.777357 0.363204 -0.250637 0.897365 -0.562894 -0.0560426 0.824627 
-0.898493 -0.0960897 0.428341 0.710392 -0.407802 0.573621 0.335676 -0.251723 0.907721 
0.383904 -0.272734 0.882176 -0.54055 -0.225887 0.81042 -0.538182 -0.23259 0.8101 
0.333065 -0.209906 0.919243 0.537036 -0.408188 0.738224 0.343024 -0.223617 0.912321 
-0.261491 -0.489277 0.832004 -0.39457 -0.401153 0.826675 -0.358819 -0.42819 0.829399 
-0.675751 -0.528227 0.514137 0.360231 -0.307954 0.880567 0.478392 -0.395274 0.784156 
0.32354 -0.343488 0.881667 -0.183065 -0.417609 0.889994 -0.250708 -0.49121 0.834181 
-0.193756 -0.487194 0.851529 -0.285866 -0.530865 0.797786 -0.498713 -0.703869 0.505819 
0.244768 -0.45718 0.855029 0.418119 -0.525252 0.741139 0.191775 -0.491123 0.849718 
0.0387908 -0.482228 0.875187 -0.016246 -0.433291 0.901108 -0.0154467 -0.400236 0.916282 
-0.182682 -0.40632 0.895283 -0.130286 -0.425049 0.895745 -0.275062 -0.527246 0.803961 
-0.345728 -0.757057 0.554379 0.248379 -0.874576 0.416443 0.110576 -0.842534 0.527171 
0.0183276 -0.807817 0.589148 -0.0671987 -0.810743 0.581532 -0.244183 -0.881566 0.404 
0.321466 0.858174 0.400245 0.18076 0.919971 0.347821 0.152534 0.934075 0.322859 
0.158074 0.942906 0.293157 0.0665989 0.955465 0.287491 -0.0914578 0.943607 0.318184 
-0.188507 0.897752 0.39813 -0.215363 0.875436 0.432702 -0.26811 0.86145 0.431302 
0.386091 0.819367 0.423759 0.490995 0.728261 0.47808 -0.323944 0.845489 0.42451 
-0.35356 0.831014 0.429431 -0.374612 0.890326 0.258817 -0.535558 0.731121 0.422658 
0.662993 0.566231 0.489716 0.703231 0.498518 0.506899 0.760849 0.609959 0.221492 
-0.607994 0.670914 0.424521 -0.7038 0.561624 0.435022 0.765098 0.372027 0.525567 
-0.751263 0.502076 0.428397 0.883518 0.129946 0.45001 0.990119 0.128049 0.0571661 
-0.854397 0.310995 0.416278 -0.892167 0.164343 0.420748 -0.944706 0.326963 0.0250302 
0.89234 -0.0614676 0.44716 0.993525 -0.0916037 0.0672069 -0.894133 0.13323 0.427523 
0.876923 -0.232783 0.420498 -0.913289 -0.098319 0.395269 -0.912907 -0.144276 0.381817 
0.77981 -0.407073 0.475592 0.75349 -0.437434 0.49082 -0.895222 -0.278748 0.347674 
0.714248 -0.473564 0.515351 0.860945 -0.505035 0.0609335 0.645656 -0.541105 0.538826 
-0.791156 -0.527032 0.310337 -0.710542 -0.631134 0.311127 0.637601 -0.550364 0.539041 
0.693033 -0.579197 0.429227 0.599094 -0.618618 0.508329 -0.410012 -0.849439 0.332178 
-0.597198 -0.741457 0.305935 -0.531778 -0.785729 0.315978 0.593499 -0.626619 0.505082 
0.608014 -0.644369 0.463797 0.422428 -0.788048 0.447811 -0.377284 -0.871564 0.313101 
-0.404695 -0.850913 0.334917 -0.393513 -0.846755 0.357986 0.27747 -0.881592 0.381846 
0.246757 -0.894696 0.372331 0.121395 -0.930302 0.346123 0.0409008 -0.931357 0.361802 
-0.0897169 -0.937921 0.335045 -0.310428 -0.909848 0.275339 -0.259859 -0.92483 0.277781 
0.267561 0.962412 -0.046626 0.13829 0.985814 -0.0951119 0.120935 0.985845 -0.116124 
0.143736 0.98295 -0.114667 0.0947942 0.990267 -0.101906 -0.039763 0.996582 -0.0724053 
-0.136961 0.990556 -0.00634548 -0.182992 0.982446 0.0362442 -0.265682 0.962287 0.0584456 
-0.39263 0.918448 0.0479019 0.739969 0.671964 0.030159 0.435875 0.899824 -0.0181368 
0.456333 0.889683 -0.0149688 -0.444455 0.89515 0.0341414 -0.417433 0.863402 -0.283349 
-0.566229 0.82421 0.00790911 0.785583 0.61722 0.0435766 0.724202 0.633246 -0.273002 
-0.6974 0.71667 -0.0041625 -0.750453 0.660876 -0.00803411 0.935119 0.35433 -0.00159002 
0.986266 0.164958 -0.00825519 -0.843738 0.536662 -0.00999986 -0.941005 0.338236 -0.0103322 
0.991513 0.129887 -0.00556157 0.989186 0.127858 -0.0718634 -0.945072 0.326723 -0.00956538 
-0.944665 0.325201 -0.0430412 0.995291 -0.0961948 -0.0119175 0.99116 -0.131354 -0.0186409 
0.990594 -0.0979728 -0.0955243 -0.994923 0.0937058 -0.0367137 -0.905307 0.0701885 -0.41892 
0.971296 -0.235503 -0.0335108 -0.985731 -0.155639 -0.0641203 -0.951084 -0.284156 -0.121223 
-0.917139 -0.1889 -0.350961 0.919652 -0.392733 -0.000789444 -0.933188 -0.331666 -0.138412 
0.863562 -0.50356 0.0262254 0.861843 -0.506448 0.0271251 0.865412 -0.500855 -0.0143688 
-0.808185 -0.566591 -0.160661 -0.725147 -0.662236 -0.188694 -0.660112 -0.583558 -0.472982 
0.799648 -0.596417 0.0696469 0.758388 -0.646928 0.0795733 -0.436912 -0.889217 -0.13565 
-0.633846 -0.752657 -0.178179 -0.559929 -0.812719 -0.161145 -0.548986 -0.704164 -0.450298 
0.671855 -0.737183 0.071912 0.592697 -0.803724 0.0523198 0.378582 -0.925539 0.00726859 
-0.331897 -0.926131 -0.179235 -0.429225 -0.893159 -0.134286 -0.38037 -0.914105 -0.14047 
-0.324717 -0.801476 -0.50219 0.375171 -0.926933 0.0065182 0.191121 -0.980483 -0.0461157 
0.16821 -0.896236 -0.410446 0.0905282 -0.993471 -0.0694248 0.000929957 -0.994312 -0.106502 
-0.131512 -0.978212 -0.160641 -0.177875 -0.845744 -0.503068 -0.29217 -0.936185 -0.195433 
-0.262091 -0.943027 -0.20496 -0.264407 -0.911256 -0.315756 0.242469 0.851586 -0.46477 
0.0990661 0.869707 -0.483525 0.124007 0.868808 -0.47937 0.160867 0.87729 -0.452199 
0.105324 0.891437 -0.440734 0.0114775 0.906036 -0.423046 -0.0659746 0.932725 -0.354501 
-0.149411 0.94367 -0.295234 -0.273768 0.921692 -0.274837 0.299236 0.829849 -0.470966 
0.441585 0.758631 -0.479042 0.246536 0.804184 -0.54084 0.0909872 0.800336 -0.592607 
0.121437 0.76088 -0.637428 0.143913 0.683123 -0.715983 0.0867516 0.626105 -0.774898 
0.0585504 0.611172 -0.789329 0.0504138 0.63278 -0.772689 -0.415776 0.860747 -0.293675 
-0.260087 0.785548 -0.561488 -0.417763 0.859541 -0.294386 -0.581155 0.736477 -0.346209 
0.622384 0.612299 -0.487573 0.670844 0.562591 -0.483177 0.374637 0.534971 -0.757267 
0.14573 0.449109 -0.881512 -0.646304 0.673987 -0.357817 -0.56713 0.640227 -0.518143 
-0.734826 0.559552 -0.383318 0.819772 0.350831 -0.45265 0.632524 0.391599 -0.668254 
-0.776085 0.504248 -0.378717 -0.708878 0.488012 -0.50925 0.886752 0.104842 -0.450199 
0.531685 0.105865 -0.8403 -0.862138 0.282762 -0.420433 -0.633921 0.210626 -0.744164 
0.854058 -0.106354 -0.50919 0.602568 -0.0890362 -0.793085 -0.884823 0.065842 -0.461252 
0.850702 -0.207122 -0.483122 0.663883 -0.174252 -0.727252 -0.847977 -0.195918 -0.492495 
-0.571935 -0.196574 -0.796398 0.830321 -0.352003 -0.432042 0.8164 -0.395887 -0.420434 
0.756032 -0.33529 -0.562135 -0.770061 -0.369659 -0.51996 -0.63019 -0.53511 -0.5626 
-0.600344 -0.385145 -0.700893 0.798844 -0.435347 -0.415117 0.555414 -0.326281 -0.76489 
-0.597609 -0.560032 -0.573783 -0.528493 -0.641954 -0.555509 -0.471622 -0.478436 -0.740724 
0.718149 -0.580356 -0.383991 0.704577 -0.597638 -0.382624 0.690272 -0.570139 -0.445495 
0.381231 -0.405449 -0.830827 -0.32159 -0.794534 -0.515068 -0.223594 -0.505735 -0.833209 
-0.501916 -0.668392 -0.548938 -0.41475 -0.726212 -0.548269 -0.37412 -0.622786 -0.687148 
0.564119 -0.719865 -0.40443 0.530477 -0.742181 -0.409586 0.513882 -0.705128 -0.48859 
0.341772 -0.81755 -0.46347 0.276237 -0.599046 -0.751556 0.165848 -0.874393 -0.455994 
0.158824 -0.493177 -0.855308 -0.180622 -0.820481 -0.542389 -0.153047 -0.516438 -0.842537 
-0.249545 -0.7748 -0.580872 -0.193462 -0.583436 -0.788781 -0.319102 -0.794704 -0.516351 
-0.267947 -0.772803 -0.575309 -0.225944 -0.700215 -0.677236 0.136076 -0.881986 -0.451204 
0.0547354 -0.891907 -0.448893 0.0540247 -0.869 -0.491855 -0.144197 -0.840953 -0.521541 
-0.0548001 -0.87329 -0.484109 -0.0614422 -0.848008 -0.52641 -0.0594937 0.694246 -0.717275 
0.0798555 0.44162 -0.893642 0.0749283 0.420262 -0.904304 0.116929 0.43105 -0.89472 
0.0833397 0.49563 -0.864526 0.0638902 0.533386 -0.843456 0.0144187 0.649039 -0.760618 
0.052873 0.619122 -0.783512 -0.088946 0.696006 -0.712506 -0.0573937 0.683106 -0.728061 
-0.232519 0.68102 -0.694368 -0.373043 0.591537 -0.714789 0.314369 0.322248 -0.892932 
0.112029 0.426088 -0.897719 0.14068 0.406517 -0.902748 0.0754593 0.405341 -0.911046 
0.063854 0.351242 -0.934105 0.0939834 0.278555 -0.955811 0.0746162 0.270546 -0.959811 
0.0824032 0.239144 -0.967481 0.106069 0.281866 -0.953573 0.032695 0.342458 -0.938964 
-0.165715 0.440852 -0.88215 -0.426985 0.551978 -0.716243 -0.348433 0.515369 -0.782936 
-0.502339 0.467725 -0.727248 0.351346 0.274369 -0.895141 0.289569 0.256088 -0.922263 
0.122021 0.229221 -0.965696 0.0251241 0.178935 -0.98354 -0.00813196 0.112434 -0.993626 
0.0734216 0.0994914 -0.992326 0.0625251 0.201572 -0.977476 0.0752896 0.124818 -0.989319 
0.157333 0.086203 -0.983776 0.0929998 0.125362 -0.987743 -0.0447884 0.142824 -0.988734 
-0.275511 0.272702 -0.921807 -0.527725 0.397364 -0.750739 -0.470555 0.355479 -0.807597 
0.46818 0.109919 -0.87677 0.287698 0.100152 -0.95247 0.0570041 0.118511 -0.991315 
-0.0558747 0.0660451 -0.996251 -0.0241479 0.0471157 -0.998598 0.183289 0.115239 -0.976281 
0.0894987 0.160419 -0.982983 -0.0267229 0.0538151 -0.998193 0.115215 0.0366344 -0.992665 
0.103212 0.00456784 -0.994649 -0.0160042 0.035657 -0.999236 -0.173077 0.0679548 -0.982561 
-0.616261 0.20477 -0.760455 -0.361904 0.147073 -0.920541 -0.617783 0.149839 -0.771941 
0.516195 -0.0666949 -0.85387 0.29797 -0.0353061 -0.953922 0.0900063 0.0191471 -0.995757 
-0.041054 0.0577669 -0.997486 0.0431793 0.112915 -0.992666 0.186126 0.143315 -0.972017 
-0.0110208 -0.0267215 -0.999582 -0.0385678 -0.0153389 -0.999138 0.108398 0.0332828 -0.99355 
0.0933732 -0.0309401 -0.99515 0.0199957 -0.0427148 -0.998887 -0.156 -0.050871 -0.986446 
-0.344264 -0.0203851 -0.938652 -0.603314 0.00334477 -0.797497 -0.573864 -0.143487 -0.806283 
-0.577576 -2.95805e-05 -0.816337 0.495514 -0.136465 -0.857813 0.364075 -0.0889891 -0.927109 
0.153046 -0.0210866 -0.987994 0.0363125 0.0537781 -0.997892 0.059872 0.0584242 -0.996495 
0.0503712 -0.0229598 -0.998467 -0.0595189 -0.0293638 -0.997795 0.03241 0.0682699 -0.99714 
0.0953308 -0.0122707 -0.99537 0.0267813 -0.0679231 -0.997331 -0.0358751 -0.140973 -0.989363 
-0.148009 -0.182669 -0.97197 -0.55672 -0.196309 -0.807171 -0.326922 -0.192586 -0.92522 
0.479948 -0.212676 -0.851128 0.47955 -0.242479 -0.843348 0.445725 -0.188671 -0.875061 
0.219665 -0.120069 -0.968158 0.0385793 -0.0605703 -0.997418 -0.0207574 -0.0571714 -0.998149 
0.0874136 -0.0996501 -0.991175 0.0814737 -0.0601749 -0.994857 -0.0250292 -0.0203504 -0.99948 
-0.0240119 -0.131994 -0.99096 -0.0334388 -0.15346 -0.987589 -0.0961244 -0.205084 -0.974013 
-0.213505 -0.259723 -0.941785 -0.420399 -0.352248 -0.836173 -0.398567 -0.385003 -0.832417 
-0.367331 -0.341953 -0.864949 0.438577 -0.283973 -0.852649 0.352607 -0.368295 -0.860248 
0.263226 -0.231356 -0.936582 0.0943297 -0.186036 -0.978004 0.0226154 -0.110832 -0.993582 
0.0464189 -0.0948542 -0.994408 0.0236516 -0.168916 -0.985347 -0.0453937 -0.214786 -0.975606 
-0.0331281 -0.246944 -0.968463 -0.052652 -0.280237 -0.958486 -0.207205 -0.466512 -0.859903 
-0.150534 -0.32188 -0.934737 -0.346694 -0.414365 -0.84149 -0.309017 -0.44062 -0.84283 
-0.288325 -0.385657 -0.876435 0.331087 -0.379244 -0.864034 0.217408 -0.420171 -0.881017 
0.173487 -0.312367 -0.933986 0.150841 -0.467545 -0.871004 0.0673889 -0.229921 -0.970873 
0.0310021 -0.196225 -0.980069 -0.035466 -0.246288 -0.968548 -0.139297 -0.436277 -0.888965 
-0.110871 -0.302396 -0.946712 -0.129505 -0.424193 -0.896264 -0.105302 -0.367785 -0.923929 
-0.156636 -0.473363 -0.866829 -0.1141 -0.474756 -0.87269 -0.105285 -0.452494 -0.885531 
0.124401 -0.476686 -0.870227 0.0228762 -0.488338 -0.872355 0.0214214 -0.436579 -0.899411 
-0.113698 -0.476457 -0.871815 -0.111466 -0.478625 -0.870915 -0.111435 -0.474813 -0.873003 

