# vtk DataFile Version 4.2
vtk output
ASCII
DATASET POLYDATA
POINTS 542 float
-43.2667 -20.4681 -21.6069 -17.2692 -46.4656 -13.0923 -8.60334 -46.4656 -15.0053 
0.0624996 -46.4656 -15.8173 8.72833 -46.4656 -15.6036 17.3942 -46.4656 -14.6233 
-43.2667 -37.7998 -13.094 -34.6008 -37.7998 -15.1787 -25.935 -37.7998 -15.8884 
-17.2692 -37.7998 -17.4396 -8.60334 -37.7998 -17.7239 0.0624996 -37.7998 -18.5128 
8.72833 -37.7998 -18.6921 17.3942 -37.7998 -18.4753 26.06 -37.7998 -17.6136 
34.7258 -37.7998 -14.9682 -51.9325 -29.134 -16.6418 -43.2667 -21.9816 -21.1521 
-43.2667 -29.134 -18.5646 -34.6008 -29.134 -19.3267 -25.935 -29.134 -17.9403 
-17.2692 -29.134 -18.4469 -8.60334 -29.134 -18.5196 0.0624996 -29.134 -19.2643 
8.72833 -29.134 -19.6905 17.3942 -29.134 -19.6217 26.06 -29.134 -19.2076 
34.7258 -29.134 -18.4458 43.3917 -29.134 -15.6614 52.0575 -29.134 -12.5607 
-60.5983 -20.4681 -14.5779 -44.8434 -20.4681 -21.1521 -51.9325 -20.4681 -18.9643 
-39.0309 -20.4681 -21.1521 -43.2667 -15.3935 -21.1521 -34.6008 -20.4681 -20.5845 
-25.935 -20.4681 -19.2869 -17.2692 -20.4681 -18.2048 -8.60334 -20.4681 -17.6071 
0.0624996 -20.4681 -18.473 8.72833 -20.4681 -19.1557 17.3942 -20.4681 -19.4026 
26.06 -20.4681 -19.6921 34.7258 -20.4681 -19.4182 43.3917 -20.4681 -18.4554 
52.0575 -20.4681 -15.9169 -60.5983 -11.8023 -15.7946 -51.9325 -11.8023 -19.5949 
-43.2667 -11.8023 -20.7714 -34.6008 -11.8023 -20.8653 -25.935 -11.8023 -20.0931 
-17.2692 -11.8023 -18.5484 -8.60334 -11.8023 -16.9162 0.0624996 -11.8023 -18.4729 
8.72833 -11.8023 -19.1717 17.3942 -11.8023 -18.8532 26.06 -11.8023 -19.9771 
34.7258 -11.8023 -20.6423 43.3917 -11.8023 -19.7392 52.0575 -11.8023 -17.7353 
60.7233 -11.8023 -13.046 -60.5983 -3.13647 -15.0904 -51.9325 -3.13647 -18.3963 
-43.2667 -3.13647 -19.967 -34.6008 -3.13647 -20.3752 -25.935 -3.13647 -20.2911 
-17.2692 -3.13647 -20.2759 -8.60334 -3.13647 -19.2237 0.0624996 -3.13647 -17.6456 
8.72833 -3.13647 -18.5338 17.3942 -3.13647 -18.1616 26.06 -3.13647 -19.3172 
34.7258 -3.13647 -20.0199 43.3917 -3.13647 -19.6954 52.0575 -3.13647 -17.9964 
60.7233 -3.13647 -14.3382 -60.5983 5.52937 -14.1754 -51.9325 5.52937 -16.6955 
-43.2667 5.52937 -18.3897 -34.6008 5.52937 -19.3096 -25.935 5.52937 -20.1664 
-17.2692 5.52937 -21.1003 -8.60334 5.52937 -19.8214 0.0624996 5.52937 -18.6049 
8.72833 5.52937 -16.2451 17.3942 5.52937 -15.8832 26.06 5.52937 -17.9034 
34.7258 5.52937 -18.7437 43.3917 5.52937 -18.9486 52.0575 5.52937 -17.4629 
60.7233 5.52937 -13.8885 -51.9325 14.1952 -13.4463 -43.2667 14.1952 -16.1444 
-34.6008 14.1952 -17.8594 -25.935 14.1952 -19.6547 -17.2692 14.1952 -20.6974 
-8.60334 14.1952 -19.1493 0.0624996 14.1952 -17.9916 8.72833 14.1952 -17.2815 
17.3942 14.1952 -15.5597 26.06 14.1952 -16.1675 34.7258 14.1952 -16.5349 
43.3917 14.1952 -16.2511 52.0575 14.1952 -15.3486 -43.2667 22.861 -13.196 
-34.6008 22.861 -15.7001 -25.935 22.861 -17.8466 -17.2692 22.861 -18.7887 
-8.60334 22.861 -17.1718 0.0624996 22.861 -15.5637 8.72833 22.861 -15.9869 
17.3942 22.861 -15.8333 26.06 22.861 -15.2699 34.7258 22.861 -14.2328 
43.3917 22.861 -13.6497 52.0575 22.861 -12.6906 -25.935 31.5269 -14.9155 
-17.2692 31.5269 -16.2104 -8.60334 31.5269 -15.3256 0.0624996 31.5269 -14.1417 
8.72833 31.5269 -14.1846 17.3942 31.5269 -14.0907 26.06 31.5269 -12.8362 
-17.2692 40.1927 -12.8129 -8.60334 40.1927 -13.0582 -17.2692 -47.2849 -12.4863 
-8.60334 -50.0012 -12.4863 0.0624996 -51.0601 -12.4863 0.0624996 -55.1315 -3.95229 
8.72833 -50.6263 -12.4863 17.3942 -49.1697 -12.4863 -43.2667 -38.5044 -12.4863 
-34.6008 -42.0193 -12.4863 -34.6008 -46.4656 -4.02155 -19.5176 -46.4656 -12.4863 
-25.935 -43.6264 -12.4863 -25.935 -46.4656 -9.68006 25.4675 -46.4656 -12.4863 
26.06 -46.2036 -12.4863 26.06 -46.4656 -12.1984 34.7258 -42.1223 -12.4863 
34.7258 -46.4656 -4.53235 -45.0707 -37.7998 -12.4863 -51.9325 -34.7079 -12.4863 
-51.9325 -37.7998 -6.05413 43.1343 -37.7998 -12.4863 43.3917 -37.6052 -12.4863 
43.3917 -37.7998 -12.2657 52.0575 -29.2275 -12.4863 -59.1858 -29.134 -12.4863 
-60.5983 -26.8005 -12.4863 -60.5983 -29.134 -10.1224 52.1455 -29.134 -12.4863 
-62.9361 -20.4681 -12.4863 57.6901 -20.4681 -12.4863 60.7233 -13.9644 -12.4863 
60.7233 -20.4681 -9.33617 -64.5842 -11.8023 -12.4863 61.4175 -11.8023 -12.4863 
-63.8847 -3.13647 -12.4863 -69.2642 -3.13647 -4.00569 63.2721 -3.13647 -12.4863 
69.3892 -3.13647 -5.44077 -62.659 5.52937 -12.4863 -60.5983 9.22268 -12.4863 
62.7637 5.52937 -12.4863 60.7233 12.5044 -12.4863 69.3892 5.52937 -5.95609 
-54.0536 14.1952 -12.4863 -60.5983 14.1952 -8.89661 -51.9325 16.7476 -12.4863 
59.8362 14.1952 -12.4863 60.7233 14.1952 -12.029 -45.3551 22.861 -12.4863 
-51.9325 22.861 -9.57599 -43.2667 24.3812 -12.4863 -34.6008 30.59 -12.4863 
34.7258 28.4125 -12.4863 43.3917 26.3399 -12.4863 52.4495 22.861 -12.4863 
52.0575 23.1872 -12.4863 60.7233 22.861 -5.74938 -43.2667 31.5269 -8.46989 
-33.39 31.5269 -12.4863 -34.6008 31.5269 -12.0769 -25.935 36.4087 -12.4863 
0.0624996 38.0707 -12.4863 8.72833 36.2288 -12.4863 17.3942 35.3617 -12.4863 
28.3364 31.5269 -12.4863 26.06 32.3857 -12.4863 34.7258 31.5269 -11.475 
43.3917 31.5269 -9.71934 52.0575 31.5269 -4.63023 -34.6008 40.1927 -7.54753 
-18.5993 40.1927 -12.4863 -25.935 40.1927 -10.4262 -17.2692 40.8224 -12.4863 
-4.0865 40.1927 -12.4863 -8.60334 41.4147 -12.4863 0.0624996 40.1927 -11.8875 
8.72833 40.1927 -10.9818 17.3942 40.1927 -10.2981 26.06 40.1927 -8.73089 
34.7258 40.1927 -6.62049 -25.935 48.8585 -4.14839 -17.2692 48.8585 -7.30269 
-8.60334 48.8585 -7.39955 0.0624996 48.8585 -6.0357 8.72833 48.8585 -5.25849 
0.0624996 -55.1745 -3.82047 -34.6008 -46.5307 -3.82047 -25.935 -49.7507 -3.82047 
-17.2692 -52.7541 -3.82047 -0.558164 -55.1315 -3.82047 -8.60334 -54.5479 -3.82047 
0.916394 -55.1315 -3.82047 0.0624996 -55.1315 -3.56678 8.72833 -54.7276 -3.82047 
17.3942 -53.4002 -3.82047 26.06 -50.729 -3.82047 34.7258 -46.6891 -3.82047 
-51.9325 -38.4367 -3.82047 -34.7887 -46.4656 -3.82047 -43.2667 -43.3242 -3.82047 
-34.6008 -46.4656 -3.59766 35.0947 -46.4656 -3.82047 34.7258 -46.4656 -2.95834 
43.3917 -40.9778 -3.82047 -52.8265 -37.7998 -3.82047 -60.5983 -31.1847 -3.82047 
-51.9325 -37.7998 -2.40736 47.4172 -37.7998 -3.82047 52.0575 -33.6501 -3.82047 
-62.4126 -29.134 -3.82047 -60.5983 -29.134 -0.596076 56.5553 -29.134 -3.82047 
60.7233 -24.2162 -3.82047 -66.8701 -20.4681 -3.82047 63.5409 -20.4681 -3.82047 
-69.1751 -11.8023 -3.82047 -69.2642 -6.89938 -3.82047 67.8284 -11.8023 -3.82047 
69.3892 -6.42335 -3.82047 -69.3326 -3.13647 -3.82047 -69.2642 -2.75714 -3.82047 
-69.2642 -3.13647 -3.599 70.2934 -3.13647 -3.82047 -67.4064 5.52937 -3.82047 
70.6314 5.52937 -3.82047 69.3892 9.64087 -3.82047 -64.865 14.1952 -3.82047 
-60.5983 21.6595 -3.82047 67.545 14.1952 -3.82047 -59.4793 22.861 -3.82047 
-60.5983 22.861 -0.144658 -51.9325 31.119 -3.82047 62.7683 22.861 -3.82047 
60.7233 24.9021 -3.82047 -51.4688 31.5269 -3.82047 -51.9325 31.5269 -3.23663 
-43.2667 37.3164 -3.82047 43.3917 37.3151 -3.82047 53.0837 31.5269 -3.82047 
52.0575 32.2739 -3.82047 -40.1962 40.1927 -3.82047 -43.2667 40.1927 0.194379 
-34.6008 44.0723 -3.82047 17.3942 48.6987 -3.82047 26.06 45.8098 -3.82047 
39.4014 40.1927 -3.82047 34.7258 42.7469 -3.82047 43.3917 40.1927 3.30822 
-26.4616 48.8585 -3.82047 -25.935 49.1339 -3.82047 -17.2692 51.794 -3.82047 
-8.60334 51.9017 -3.82047 0.0624996 50.7572 -3.82047 16.6452 48.8585 -3.82047 
8.72833 50.0865 -3.82047 17.3942 48.8585 -3.5172 26.06 48.8585 3.28977 
-25.935 -47.5568 4.84537 -17.2692 -49.78 4.84537 -8.60334 -52.2544 4.84537 
0.0624996 -53.3383 4.84537 8.72833 -52.7413 4.84537 17.3942 -50.6063 4.84537 
26.06 -47.5047 4.84537 -43.2667 -39.6553 4.84537 -28.5269 -46.4656 4.84537 
-34.6008 -42.7716 4.84537 -25.935 -46.4656 6.14825 -17.2692 -46.4656 8.16655 
-8.60334 -46.4656 10.3419 0.0624996 -46.4656 11.5176 8.72833 -46.4656 11.0141 
17.3942 -46.4656 9.00621 28.5989 -46.4656 4.84537 26.06 -46.4656 6.11626 
34.7258 -43.7 4.84537 43.3917 -38.7657 4.84537 -46.1311 -37.7998 4.84537 
-51.9325 -31.6109 4.84537 -43.2667 -37.7998 6.50979 -34.6008 -37.7998 9.69731 
-25.935 -37.7998 11.3443 -17.2692 -37.7998 12.7496 26.06 -37.7998 12.6587 
34.7258 -37.7998 9.80815 44.6858 -37.7998 4.84537 43.3917 -37.7998 6.13462 
52.0575 -31.5846 4.84537 -54.6287 -29.134 4.84537 -60.5983 -23.6224 4.84537 
-51.9325 -29.134 6.38533 -43.2667 -29.134 10.4054 -34.6008 -29.134 12.9804 
43.3917 -29.134 11.9219 54.5683 -29.134 4.84537 52.0575 -29.134 7.71996 
60.7233 -22.0777 4.84537 -62.2871 -20.4681 4.84537 -60.5983 -20.4681 6.33149 
-51.9325 -20.4681 11.0456 -43.2667 -20.4681 13.1498 52.0575 -20.4681 12.2857 
61.9575 -20.4681 4.84537 60.7233 -20.4681 6.44615 -63.4269 -11.8023 4.84537 
-60.5983 -11.8023 7.33229 -51.9325 -11.8023 11.8323 66.2511 -11.8023 4.84537 
60.7233 -11.8023 11.7157 69.3892 -4.77977 4.84537 -64.9781 -3.13647 4.84537 
-60.5983 -3.13647 8.79653 -51.9325 -3.13647 12.7561 60.7233 -3.13647 13.2834 
69.9457 -3.13647 4.84537 69.3892 -3.13647 5.67737 -65.5149 5.52937 4.84537 
-60.5983 5.52937 10.6831 70.2344 5.52937 4.84537 69.3892 9.74527 4.84537 
69.3892 5.52937 6.27805 -65.3003 14.1952 4.84537 -60.5983 14.1952 12.2373 
68.2887 14.1952 4.84537 60.7233 14.1952 12.8152 -61.4259 22.861 4.84537 
-60.5983 24.1292 4.84537 -60.5983 22.861 6.32562 64.3804 22.861 4.84537 
60.7233 27.2593 4.84537 60.7233 22.861 10.3187 -55.1217 31.5269 4.84537 
-51.9325 34.8968 4.84537 -51.9325 31.5269 10.2065 56.354 31.5269 4.84537 
52.0575 34.7652 4.84537 52.0575 31.5269 11.0534 -46.0289 40.1927 4.84537 
-43.2667 42.43 4.84537 -43.2667 40.1927 10.6701 -34.6008 48.5111 4.84537 
34.7258 45.2592 4.84537 34.7258 40.1927 12.3024 44.084 40.1927 4.84537 
43.3917 40.6348 4.84537 43.3917 40.1927 5.96887 -33.9593 48.8585 4.84537 
-25.935 52.6811 4.84537 -17.2692 54.8186 4.84537 -8.60334 55.6613 4.84537 
0.0624996 54.6487 4.84537 8.72833 53.3236 4.84537 17.3942 51.9002 4.84537 
17.3942 48.8585 12.2357 27.1846 48.8585 4.84537 26.06 49.3473 4.84537 
[...]
POINT_DATA 542
SCALARS ImageScalars float
LOOKUP_TABLE default
0 0 0 0 0 0 0 0 0 
0 0 0 0 0 0 0 0 0 
0 0 0 0 0 0 0 0 0 
0 0 0 0 0 0 0 0 0 
0 0 0 0 0 0 0 0 0 
0 0 0 0 0 0 0 0 0 
0 0 0 0 0 0 0 0 0 
0 0 0 0 0 0 0 0 0 
0 0 0 0 0 0 0 0 0 
0 0 0 0 0 0 0 0 0 
0 0 0 0 0 0 0 0 0 
0 0 0 0 0 0 0 0 0 
0 0 0 0 0 0 0 0 0 
0 0 0 0 0 0 0 0 0 
0 0 0 0 0 0 0 0 0 
0 0 0 0 0 0 0 0 0 
0 0 0 0 0 0 0 0 0 
0 0 0 0 0 0 0 0 0 
0 0 0 0 0 0 0 0 0 
0 0 0 0 0 0 0 0 0 
0 0 0 0 0 0 0 0 0 
0 0 0 0 0 0 0 0 0 
0 0 0 0 0 0 0 0 0 
0 0 0 0 0 0 0 0 0 
0 0 0 0 0 0 0 0 0 
0 0 0 0 0 0 0 0 0 
0 0 0 0 0 0 0 0 0 
0 0 0 0 0 0 0 0 0 
0 0 0 0 0 0 0 0 0 
0 0 0 0 0 0 0 0 0 
0 0 0 0 0 0 0 0 0 
0 0 0 0 0 0 0 0 0 
0 0 0 0 0 0 0 0 0 
0 0 0 0 0 0 0 0 0 
0 0 0 0 0 0 0 0 0 
0 0 0 0 0 0 0 0 0 
0 0 0 0 0 0 0 0 0 
0 0 0 0 0 0 0 0 0 
0 0 0 0 0 0 0 0 0 
0 0 0 0 0 0 0 0 0 
0 0 0 0 0 0 0 0 0 
0 0 0 0 0 0 0 0 0 
0 0 0 0 0 0 0 0 0 
0 0 0 0 0 0 0 0 0 
0 0 0 0 0 0 0 0 0 
0 0 0 0 0 0 0 0 0 
0 0 0 0 0 0 0 0 0 
0 0 0 0 0 0 0 0 0 
0 0 0 0 0 0 0 0 0 
0 0 0 0 0 0 0 0 0 
0 0 0 0 0 0 0 0 0 
0 0 0 0 0 0 0 0 0 
0 0 0 0 0 0 0 0 0 
0 0 0 0 0 0 0 0 0 
0 0 0 0 0 0 0 0 0 
0 0 0 0 0 0 0 0 0 
0 0 0 0 0 0 0 0 0 
0 0 0 0 0 0 0 0 0 
0 0 0 0 0 0 0 0 0 
0 0 0 0 0 0 0 0 0 
0 0 
NORMALS Normals float
-0.100384 -0.11608 -0.988154 -0.2237 -0.557761 -0.799288 -0.146592 -0.483002 -0.863261 
-0.0349396 -0.478847 -0.877203 0.0654226 -0.512478 -0.856205 0.147014 -0.58451 -0.797957 
-0.250758 -0.679061 -0.689925 -0.12535 -0.505424 -0.853718 -0.122106 -0.354812 -0.92693 
-0.0973923 -0.276028 -0.956203 -0.0585463 -0.194884 -0.979078 -0.0550267 -0.192716 -0.97971 
0.00286388 -0.224454 -0.974481 0.0539139 -0.257176 -0.96486 0.194331 -0.294819 -0.935584 
0.278698 -0.443183 -0.852007 -0.362871 -0.440359 -0.821224 -0.100351 -0.159396 -0.982101 
-0.117998 -0.387728 -0.91419 0.0347055 -0.281834 -0.958835 0.0423243 -0.184005 -0.982014 
-0.033445 -0.037398 -0.998741 -0.0469952 0.00799153 -0.998863 -0.0674694 0.00366933 -0.997715 
-0.0205793 -0.0241866 -0.999496 0.0270006 -0.054692 -0.998138 0.0644961 -0.109777 -0.991861 
0.193129 -0.235575 -0.952473 0.31333 -0.328749 -0.890926 0.56135 -0.508198 -0.653163 
-0.673479 -0.202028 -0.711063 -0.137421 -0.114728 -0.983846 -0.317849 -0.123031 -0.940125 
0.0126456 -0.0995328 -0.994954 -0.0816027 0.00613902 -0.996646 0.134092 -0.0803612 -0.987705 
0.137315 -0.122828 -0.982882 0.0968696 -0.00511527 -0.995284 -0.0152932 0.0928323 -0.995564 
-0.0896413 0.0457381 -0.994923 -0.0539324 0.0302528 -0.998086 -0.030894 0.0442273 -0.998544 
-0.0012531 -0.0427992 -0.999083 0.067775 -0.120678 -0.990375 0.165784 -0.234757 -0.957812 
0.412045 -0.297485 -0.861233 -0.552948 -0.0226256 -0.832909 -0.244373 0.0255907 -0.969344 
-0.0673179 0.0957715 -0.993124 0.0383212 0.0121975 -0.999191 0.129068 -0.0576118 -0.989961 
0.183388 -0.118464 -0.975877 0.00528144 -0.0859456 -0.996286 -0.132914 0.0453864 -0.990088 
-0.0196806 0.0328488 -0.999267 -0.0447309 0.0702114 -0.996529 -0.103749 0.0212047 -0.994377 
0.0155984 -0.0341331 -0.999296 0.165306 -0.0648184 -0.98411 0.327593 -0.0893039 -0.940589 
0.606025 -0.174048 -0.77617 -0.536323 0.0948549 -0.838666 -0.237994 0.171845 -0.955944 
-0.106945 0.138997 -0.984501 -0.0183835 0.0909052 -0.99569 0.00569451 -0.0040967 -0.999975 
0.0578066 -0.142475 -0.988109 0.146951 -0.169649 -0.974487 0.0418678 -0.00728205 -0.999097 
-0.0281028 0.159606 -0.986781 -0.0466939 0.164233 -0.985316 -0.10476 0.116814 -0.987613 
-0.0212831 0.107552 -0.993972 0.112694 0.0432191 -0.992689 0.276066 0.0149667 -0.961022 
0.505225 -0.0395791 -0.862079 -0.539683 0.266742 -0.798493 -0.250632 0.23973 -0.93793 
-0.152351 0.203429 -0.967164 -0.101564 0.139623 -0.984982 -0.104636 0.035851 -0.993864 
0.0159943 -0.0235307 -0.999595 0.144174 0.00380968 -0.989545 0.192654 -0.019466 -0.981074 
0.158877 0.0671098 -0.985015 -0.0994568 0.150301 -0.983625 -0.156039 0.181401 -0.970951 
-0.0586383 0.197289 -0.97859 0.0726539 0.182767 -0.980468 0.252947 0.135256 -0.957979 
0.488868 0.124763 -0.86339 -0.335489 0.360368 -0.870392 -0.221078 0.273983 -0.935979 
-0.190225 0.197621 -0.961645 -0.160732 0.127723 -0.978699 0.0246404 0.129565 -0.991265 
0.154925 0.149698 -0.976519 0.107832 0.186405 -0.976538 0.139853 0.0228227 -0.989909 
0.0608944 0.00122549 -0.998143 -0.0542221 0.151458 -0.986975 -0.00674188 0.24787 -0.96877 
0.0612199 0.298537 -0.952433 0.228839 0.286124 -0.930466 -0.27909 0.357719 -0.891149 
-0.236534 0.30475 -0.922594 -0.167193 0.256505 -0.951972 0.0373381 0.255176 -0.966173 
0.184668 0.208518 -0.960426 0.0624016 0.203266 -0.977133 -0.0157069 0.172648 -0.984858 
0.0430226 0.0785707 -0.99598 0.0872129 0.179355 -0.979911 0.0951791 0.265338 -0.959446 
0.0890787 0.297012 -0.95071 0.323916 0.458391 -0.82762 -0.218137 0.373786 -0.901499 
-0.0180359 0.323668 -0.945999 0.115576 0.228545 -0.966649 0.0626043 0.205623 -0.976627 
0.00272576 0.277477 -0.960728 0.0742453 0.293951 -0.952932 0.13716 0.336278 -0.931721 
-0.127338 0.435979 -0.890903 0.0496684 0.359526 -0.931812 -0.235977 -0.590048 -0.772112 
-0.152653 -0.662588 -0.733263 -0.0257918 -0.716158 -0.697462 -0.0097605 -0.99622 -0.0863176 
0.0815563 -0.713627 -0.695762 0.188784 -0.701243 -0.687472 -0.270465 -0.702978 -0.657777 
-0.184202 -0.661561 -0.726916 -0.337065 -0.94108 -0.0274915 -0.226867 -0.597535 -0.76908 
-0.175135 -0.606989 -0.775173 -0.270988 -0.80711 -0.524537 0.267935 -0.708275 -0.653114 
0.273809 -0.705405 -0.653783 0.280435 -0.727275 -0.62644 0.358041 -0.618531 -0.699447 
0.490353 -0.869084 -0.0651678 -0.296472 -0.706437 -0.642691 -0.429123 -0.689434 -0.583553 
-0.541725 -0.83753 -0.0712575 0.49138 -0.600108 -0.631202 0.493917 -0.5983 -0.630938 
0.502484 -0.610557 -0.612152 0.563312 -0.510209 -0.649897 -0.608609 -0.515672 -0.603058 
-0.667878 -0.421753 -0.61324 -0.717805 -0.56886 -0.40144 0.564008 -0.508966 -0.650268 
-0.748106 -0.210439 -0.629327 0.582967 -0.386597 -0.714628 0.627203 -0.231279 -0.743725 
0.728654 -0.482182 -0.486379 -0.704332 -0.0419966 -0.708627 0.630475 -0.182827 -0.754371 
-0.643902 0.0926665 -0.759476 -0.995655 0.0828964 -0.0424225 0.612341 -0.0557107 -0.788629 
0.932576 -0.149847 -0.328402 -0.650911 0.272081 -0.708722 -0.559849 0.346546 -0.752645 
0.561566 0.127727 -0.817514 0.513731 0.288642 -0.80794 0.913961 0.150559 -0.376839 
-0.382978 0.394484 -0.83529 -0.621208 0.444487 -0.645393 -0.364204 0.391575 -0.845 
0.484222 0.325353 -0.812204 0.52566 0.335861 -0.781588 -0.315349 0.381382 -0.868966 
-0.474175 0.478656 -0.73895 -0.296492 0.38475 -0.874105 -0.283321 0.38425 -0.878682 
0.11489 0.332298 -0.936151 0.157022 0.377942 -0.912417 0.339997 0.463663 -0.81818 
0.333387 0.461233 -0.822263 0.614671 0.591476 -0.521858 -0.400735 0.546103 -0.735651 
-0.279047 0.391307 -0.876933 -0.291351 0.39526 -0.87114 -0.240004 0.438186 -0.866251 
0.100728 0.318456 -0.942571 0.045337 0.352258 -0.934804 0.085114 0.381419 -0.920476 
0.134558 0.346553 -0.928329 0.140058 0.354812 -0.924387 0.144376 0.388346 -0.910133 
0.313608 0.571051 -0.75865 0.486559 0.690548 -0.535167 -0.38763 0.584185 -0.713071 
-0.147813 0.444249 -0.883626 -0.253878 0.500718 -0.827543 -0.130991 0.450139 -0.883299 
0.0825375 0.357529 -0.930248 0.0464815 0.397305 -0.916509 0.11096 0.365311 -0.924249 
0.0785934 0.427022 -0.900819 0.111926 0.499753 -0.858906 0.181958 0.57066 -0.800774 
0.326369 0.68345 -0.652977 -0.367431 0.735426 -0.569335 -0.137094 0.70907 -0.691683 
0.0539355 0.710707 -0.701417 0.093018 0.725371 -0.682045 0.102259 0.757962 -0.644234 
-0.00951622 -0.996816 -0.0791727 -0.33876 -0.940754 -0.0149223 -0.352974 -0.929616 -0.105942 
-0.268491 -0.960364 -0.0749231 -0.0188289 -0.996719 -0.078717 -0.141405 -0.987057 -0.0756527 
0.00119347 -0.996929 -0.0783076 -0.00991637 -0.997788 -0.0657314 0.100264 -0.992328 -0.0723409 
0.225072 -0.973308 -0.0448852 0.359117 -0.932045 -0.0482441 0.489606 -0.871598 -0.0245494 
-0.549217 -0.832808 0.0692271 -0.340127 -0.940275 -0.0139896 -0.425434 -0.904973 -0.005481 
-0.340747 -0.940153 -0.00177803 0.493745 -0.869234 -0.0254455 0.488759 -0.872163 0.021115 
0.596283 -0.801367 -0.0475215 -0.565648 -0.821192 0.0754063 -0.747917 -0.653964 0.113802 
-0.564658 -0.810572 0.155349 0.645388 -0.76086 -0.0675757 0.690624 -0.717122 -0.0936736 
-0.793582 -0.597196 0.116555 -0.740457 -0.627311 0.241257 0.733758 -0.670646 -0.108782 
0.784987 -0.605988 -0.128742 -0.929562 -0.359518 0.0816124 0.82772 -0.543864 -0.138173 
-0.990872 -0.130209 0.0348968 -0.999939 -0.010888 -0.00187818 0.922395 -0.344513 -0.174637 
0.947251 -0.229065 -0.224154 -0.996288 0.0806455 -0.0300939 -0.995582 0.0865215 -0.0364703 
-0.996829 0.078073 -0.0153824 0.956355 -0.155919 -0.247134 -0.951253 0.253585 -0.175537 
0.95896 0.133074 -0.250372 0.921779 0.231696 -0.310872 -0.850679 0.387917 -0.354774 
-0.705046 0.561697 -0.432905 0.862561 0.358552 -0.356971 -0.678044 0.580462 -0.45091 
-0.796269 0.579821 -0.17252 -0.570921 0.616173 -0.542568 0.675589 0.585601 -0.447941 
0.624611 0.63034 -0.461012 -0.564194 0.619158 -0.546195 -0.589545 0.632153 -0.502811 
-0.515212 0.625652 -0.585761 0.460498 0.732764 -0.500998 0.504683 0.707137 -0.49523 
0.495631 0.71777 -0.489036 -0.506664 0.638448 -0.579375 -0.60264 0.729061 -0.324494 
-0.451163 0.666233 -0.593789 0.192918 0.804169 -0.562223 0.282125 0.752215 -0.595464 
0.4274 0.749182 -0.50602 0.373639 0.771972 -0.51425 0.525528 0.849638 -0.0439961 
-0.376147 0.738898 -0.559055 -0.364504 0.747176 -0.555757 -0.140295 0.824384 -0.548368 
0.0527687 0.814332 -0.577996 0.0940057 0.793233 -0.601618 0.185193 0.806823 -0.561017 
0.105327 0.818934 -0.56414 0.195847 0.818402 -0.540242 0.354435 0.934223 -0.0400354 
-0.296646 -0.806592 0.511284 -0.247954 -0.789875 0.560907 -0.168479 -0.853631 0.492878 
-0.0228624 -0.888468 0.458369 0.132018 -0.870944 0.473316 0.241662 -0.81409 0.528069 
0.318444 -0.800308 0.508037 -0.377111 -0.687291 0.620821 -0.316479 -0.789087 0.526481 
-0.35031 -0.723368 0.594997 -0.287932 -0.760737 0.581699 -0.210418 -0.651692 0.728712 
-0.159775 -0.57602 0.801669 -0.0333871 -0.540671 0.840571 0.122906 -0.582816 0.803255 
0.206076 -0.646161 0.734853 0.345178 -0.792034 0.503522 0.303406 -0.764774 0.568389 
0.411356 -0.75022 0.517644 0.511365 -0.745472 0.427524 -0.433435 -0.639023 0.635439 
-0.495352 -0.500087 0.710309 -0.376312 -0.614707 0.693199 -0.264416 -0.539318 0.799512 
-0.144518 -0.396323 0.906666 -0.164473 -0.322764 0.93208 0.185707 -0.36914 0.910631 
0.29626 -0.561411 0.772689 0.530859 -0.733962 0.42366 0.494549 -0.716824 0.491513 
0.626861 -0.665596 0.405004 -0.530913 -0.503064 0.681952 -0.64637 -0.378749 0.662386 
-0.424078 -0.458282 0.781111 -0.302318 -0.331346 0.893764 -0.202228 -0.215641 0.955303 
0.302557 -0.419228 0.855983 0.653569 -0.642499 0.400053 0.576078 -0.599355 0.555795 
0.735462 -0.546267 0.400859 -0.654271 -0.272064 0.705628 -0.593223 -0.221268 0.774033 
-0.374208 -0.246538 0.893973 -0.180776 -0.251688 0.950775 0.398429 -0.347875 0.848668 
0.755298 -0.518138 0.40132 0.707216 -0.515159 0.484207 -0.727027 -0.120999 0.675863 
-0.583214 -0.12637 0.802429 -0.326275 -0.079955 0.941887 0.826846 -0.389858 0.405384 
0.588229 -0.276519 0.75995 0.90159 -0.231112 0.365681 -0.729354 -0.082554 0.679137 
-0.612683 -0.139965 0.777837 -0.294711 -0.152104 0.943403 0.502097 -0.0823913 0.860878 
0.916316 -0.190086 0.352466 0.894418 -0.196595 0.401704 -0.87476 -0.00770701 0.484494 
-0.624796 -0.142103 0.767748 0.948243 0.0831884 0.306456 0.937993 0.185436 0.292888 
0.916206 0.0781275 0.393017 -0.935807 0.225513 0.27094 -0.615098 0.118814 0.779447 
0.917127 0.297359 0.265435 0.590588 0.129782 0.796468 -0.848352 0.500671 0.172125 
-0.837049 0.525582 0.152029 -0.831302 0.489189 0.263877 0.818119 0.536638 0.206641 
0.749407 0.644328 0.152416 0.690767 0.446142 0.569033 -0.751688 0.656807 0.0597513 
-0.705488 0.708585 0.013939 -0.720262 0.541698 0.433342 0.654049 0.748558 0.109001 
0.588042 0.80377 0.0903382 0.52107 0.645555 0.558341 -0.63294 0.772223 -0.0553104 
-0.607765 0.79171 -0.0617795 -0.618157 0.711562 0.334008 -0.520473 0.849981 -0.081485 
0.466201 0.881723 0.0722537 0.415725 0.610115 0.674487 0.525068 0.849598 0.0498788 
0.520068 0.852816 0.0472807 0.518871 0.846114 0.121917 -0.508322 0.857452 -0.0798997 
-0.338415 0.93878 -0.0645577 -0.158661 0.985661 -0.0574453 0.0108044 0.999471 -0.030662 
0.129207 0.991031 -0.0340933 0.157496 0.986593 -0.042767 0.225349 0.974253 -0.0069446 
0.276963 0.769774 0.5751 0.364539 0.929705 0.0525361 0.350125 0.934906 0.0579866 
0.350291 0.928664 0.121977 -0.139624 -0.325202 0.93528 -0.0371526 -0.383243 0.9229 
0.100753 -0.376158 0.921061 0.126885 -0.323193 0.937788 -0.106672 -0.270019 0.956928 
-0.149865 -0.294491 0.94383 -0.141424 -0.260976 0.95493 -0.140904 -0.276382 0.950663 
-0.0423104 -0.259087 0.964927 0.0938594 -0.255727 0.962182 0.136646 -0.318676 0.937962 
0.12652 -0.308198 0.942872 0.143967 -0.316493 0.937606 0.185966 -0.385912 0.903598 
-0.155103 -0.226625 0.961553 -0.185007 -0.188404 0.964508 -0.10786 -0.245578 0.963358 
-0.102336 -0.170068 0.980104 -0.0797729 -0.0625629 0.994848 -0.00780981 -0.0570422 0.998341 
0.0483962 -0.0345906 0.998229 0.0355097 -0.11784 0.992397 0.0607758 -0.236035 0.969842 
0.209809 -0.365636 0.906802 0.171181 -0.353252 0.919734 0.257633 -0.332677 0.907167 
-0.169724 -0.228643 0.958601 -0.186534 -0.218325 0.957883 -0.143641 -0.15129 0.977997 
-0.0722893 -0.170511 0.982701 0.0166311 -0.167251 0.985774 -0.033457 -0.0175521 0.999286 
-0.0137017 -0.105992 0.994273 0.0337435 0.0191001 0.999248 -0.0593316 -0.0166496 0.998099 
-0.0655173 -0.0998522 0.992843 0.0849913 -0.199755 0.976153 0.319091 -0.30636 0.896842 
0.234556 -0.26779 0.93449 0.339194 -0.29987 0.891642 -0.25313 -0.0847315 0.963715 
-0.21148 -0.092942 0.972953 -0.140741 -0.0847677 0.986411 -0.13641 -0.0986775 0.985726 
0.0432961 -0.267492 0.962587 -0.013453 -0.167902 0.985712 -0.00539267 -0.125277 0.992107 
0.153403 -0.121097 0.980716 -0.0872574 -0.0208399 0.995968 -0.121921 -0.0671147 0.990268 
-0.00540005 -0.0996987 0.995003 0.122535 -0.189868 0.974133 0.447982 -0.251981 0.857798 
0.292541 -0.241998 0.925125 -0.249707 -0.138219 0.958406 -0.284939 -0.16727 0.943838 
-0.182163 -0.101964 0.977967 -0.141716 -0.105724 0.984245 -0.243325 -0.0514663 0.968578 
-0.0761701 -0.0829492 0.993639 0.136028 -0.295612 0.945574 0.0317198 -0.074071 0.996748 
0.128426 -0.21352 0.968461 -0.0179165 -0.137089 0.990397 -0.143199 -0.0837122 0.986147 
-0.0339187 -0.0955177 0.99485 0.10893 -0.092874 0.989701 0.48425 -0.0816751 0.871109 
0.273577 -0.117899 0.954597 0.491869 -0.0353063 0.869953 -0.388222 -0.162445 0.907136 
-0.299924 -0.18424 0.936003 -0.14941 -0.164116 0.97506 -0.0868001 -0.157646 0.983673 
-0.109662 -0.111773 0.987664 -0.196864 0.0471941 0.979294 -0.0157694 -0.174772 0.984483 
0.117896 -0.186267 0.9754 0.090915 -0.0527904 0.994458 0.0398144 -0.146227 0.98845 
-0.0805193 -0.0813237 0.99343 -0.0203379 -0.046985 0.998689 0.093566 -0.062125 0.993673 
0.272414 -0.0306733 0.961691 0.495329 0.0200511 0.868474 0.511895 0.0487637 0.857663 
0.481841 0.0194743 0.876042 -0.510699 0.0698055 0.856921 -0.362964 -0.0631555 0.92966 
-0.142858 -0.0996463 0.984714 -0.0920377 -0.129908 0.987245 -0.0437446 -0.152686 0.987306 
-0.124665 -0.0957169 0.987571 -0.109627 -0.020683 0.993758 0.147735 -0.0881566 0.98509 
0.146445 -0.0567333 0.987591 -0.00341974 -0.0864244 0.996253 -0.0431086 -0.0241568 0.998778 
-0.0172806 0.0621657 0.997916 0.142511 0.0679492 0.987458 0.541368 0.116754 0.83264 
0.319854 0.0952092 0.942671 -0.569777 0.26855 0.776682 -0.593925 0.327434 0.734875 
-0.511179 0.228937 0.828422 -0.205588 0.0271926 0.978261 -0.132227 -0.0902072 0.987106 
-0.0823879 -0.104827 0.991072 -0.0667213 -0.115653 0.991046 -0.0124159 -0.012536 0.999844 
0.0809582 -0.00746436 0.99669 0.100659 -0.0712775 0.992364 0.0754414 -0.055106 0.995626 
0.0631197 0.0672352 0.995739 0.0758727 0.153663 0.985206 0.133533 0.275444 0.951998 
0.477154 0.343956 0.808714 0.422224 0.465312 0.777953 0.366741 0.319257 0.873828 
-0.614414 0.38731 0.687376 -0.569625 0.578399 0.583936 -0.414927 0.22973 0.880374 
-0.254872 0.118371 0.959702 -0.060499 0.000938884 0.998168 -0.0362249 0.0330931 0.998796 
0.00592817 0.0546108 0.99849 0.0871363 0.0651851 0.994061 0.102999 0.0654113 0.992528 
0.141077 0.0981272 0.985124 0.165131 0.148019 0.975101 0.34987 0.502798 0.790433 
0.202724 0.276964 0.939252 0.350361 0.483366 0.80225 0.29181 0.491445 0.820566 
0.2344 0.394867 0.888334 -0.555612 0.615242 0.55926 -0.438869 0.71438 0.545027 
-0.355229 0.43839 0.825607 -0.173226 0.359229 0.917032 -0.0173984 0.261348 0.965088 
0.0206903 0.252821 0.967292 0.0907536 0.278453 0.956153 0.128414 0.289647 0.94848 
0.26154 0.674915 0.68999 0.139624 0.338942 0.930389 0.371363 0.529747 0.762534 
0.305874 0.621432 0.721293 0.239664 0.389809 0.889162 -0.355552 0.749702 0.558149 
-0.319807 0.747546 0.58215 -0.29514 0.703707 0.646289 -0.133836 0.788686 0.600052 
-0.136803 0.604126 0.785058 0.0509951 0.818478 0.57227 0.0218473 0.59766 0.801452 
0.118887 0.792511 0.598157 0.125728 0.636099 0.761295 0.252366 0.704042 0.663805 
0.181994 0.744071 0.642834 0.188324 0.666102 0.721694 
