# vtk DataFile Version 4.2
vtk output
ASCII
DATASET POLYDATA
POINTS 498 float
-24.9236 19.0677 -25.8786 -17.2854 19.0677 -25.81 -24.9236 -26.7611 -18.5863 
-17.2854 -26.7611 -19.8171 -9.64729 -26.7611 -20.426 -2.00915 -26.7611 -20.6695 
5.62898 -26.7611 -21.1396 13.2671 -26.7611 -21.2362 20.9052 -26.7611 -20.0825 
-32.5617 -19.123 -20.0325 -24.9236 -19.123 -21.4428 -17.2854 -19.123 -21.8593 
-9.64729 -19.123 -21.6746 -2.00915 -19.123 -21.9569 5.62898 -19.123 -22.6335 
13.2671 -19.123 -22.9239 20.9052 -19.123 -22.4104 28.5434 -19.123 -20.7281 
-40.1998 -11.4848 -19.0771 -32.5617 -11.4848 -22.3896 -24.9236 -11.4848 -23.0809 
-17.2854 -11.4848 -22.4323 -9.64729 -11.4848 -22.5789 -2.00915 -11.4848 -22.8278 
5.62898 -11.4848 -22.8249 13.2671 -11.4848 -23.192 20.9052 -11.4848 -23.2495 
28.5434 -11.4848 -22.414 36.1815 -11.4848 -19.8407 -40.1998 -3.8467 -20.6294 
-32.5617 -3.8467 -23.1961 -24.9236 -3.8467 -23.2381 -17.2854 -3.8467 -22.5044 
-9.64729 -3.8467 -22.823 -2.00915 -3.8467 -23.3498 5.62898 -3.8467 -22.1906 
13.2671 -3.8467 -22.7484 20.9052 -3.8467 -23.1815 28.5434 -3.8467 -22.9671 
36.1815 -3.8467 -21.231 -40.1998 3.79144 -21.4678 -32.5617 3.79144 -23.762 
-24.9236 3.79144 -23.9134 -17.2854 3.79144 -22.7557 -9.64729 3.79144 -22.9265 
-2.00915 3.79144 -24.1751 5.62898 3.79144 -23.4404 13.2671 3.79144 -22.9018 
20.9052 3.79144 -22.8952 28.5434 3.79144 -22.6544 36.1815 3.79144 -21.2163 
-40.1998 11.4296 -21.5275 -32.5617 11.4296 -24.3704 -24.9236 16.6367 -25.5829 
-24.9236 11.4296 -24.9544 -17.2854 17.8026 -25.5829 -17.2854 11.4296 -24.4308 
-9.64729 11.4296 -24.0849 -2.00915 11.4296 -24.755 5.62898 11.4296 -24.7811 
13.2671 11.4296 -23.7007 20.9052 11.4296 -22.935 28.5434 11.4296 -22.0919 
36.1815 11.4296 -20.4296 -40.1998 19.0677 -20.9744 -26.7443 19.0677 -25.5829 
-32.5617 19.0677 -24.5564 -24.9236 22.6582 -25.5829 -14.6513 19.0677 -25.5829 
-17.2854 22.2806 -25.5829 -9.64729 19.0677 -25.1538 -2.00915 19.0677 -24.9063 
5.62898 19.0677 -24.8337 13.2671 19.0677 -24.2019 20.9052 19.0677 -23.1375 
28.5434 19.0677 -21.4782 36.1815 19.0677 -18.7048 -32.5617 26.7058 -22.2665 
-24.9236 26.7058 -25.2051 -17.2854 26.7058 -25.2514 -9.64729 26.7058 -24.6768 
-2.00915 26.7058 -24.0633 5.62898 26.7058 -23.5956 13.2671 26.7058 -23.058 
20.9052 26.7058 -21.8152 28.5434 26.7058 -19.5398 -24.9236 34.344 -20.9001 
-17.2854 34.344 -21.85 -9.64729 34.344 -21.7103 -2.00915 34.344 -20.9003 
5.62898 34.344 -20.2652 13.2671 34.344 -19.6055 20.9052 34.344 -18.0095 
-24.9236 -27.7781 -17.9448 -24.9236 -34.3992 -11.2876 -17.2854 -30.252 -17.9448 
-17.2854 -34.3992 -15.0561 -9.64729 -32.4913 -17.9448 -9.64729 -34.3992 -16.8253 
-2.00915 -33.7754 -17.9448 -2.00915 -34.3992 -17.6362 5.62898 -34.0646 -17.9448 
5.62898 -34.3992 -17.7519 13.2671 -32.9841 -17.9448 13.2671 -34.3992 -16.8608 
20.9052 -30.5047 -17.9448 20.9052 -34.3992 -14.3924 -26.8402 -26.7611 -17.9448 
-32.5617 -23.1906 -17.9448 -32.5617 -26.7611 -14.8991 26.9557 -26.7611 -17.9448 
28.5434 -25.4886 -17.9448 28.5434 -26.7611 -17.1918 -36.6179 -19.123 -17.9448 
-40.1998 -14.0946 -17.9448 -40.1998 -19.123 -14.5278 34.6252 -19.123 -17.9448 
36.1815 -17.0785 -17.9448 36.1815 -19.123 -16.8812 -41.4499 -11.4848 -17.9448 
38.9121 -11.4848 -17.9448 43.8196 -11.4848 -11.8215 -43.4962 -3.8467 -17.9448 
41.2922 -3.8467 -17.9448 43.8196 -3.8467 -15.1868 -44.457 3.79144 -17.9448 
-47.8379 3.79144 -10.8652 41.9163 3.79144 -17.9448 43.8196 3.79144 -16.1393 
-44.369 11.4296 -17.9448 -47.8379 11.4296 -10.3586 40.5425 11.4296 -17.9448 
43.8196 11.4296 -14.9982 -43.0538 19.0677 -17.9448 -40.1998 24.8402 -17.9448 
37.3292 19.0677 -17.9448 36.1815 21.0689 -17.9448 43.8196 19.0677 -11.9045 
-38.8847 26.7058 -17.9448 -40.1998 26.7058 -16.0558 -32.5617 33.4034 -17.9448 
31.974 26.7058 -17.9448 28.5434 29.7453 -17.9448 36.1815 26.7058 -15.1266 
-31.0382 34.344 -17.9448 -32.5617 34.344 -16.5245 -24.9236 37.06 -17.9448 
-17.2854 38.4394 -17.9448 -9.64729 38.2794 -17.9448 -2.00915 37.4321 -17.9448 
5.62898 36.8549 -17.9448 13.2671 36.2713 -17.9448 21.0731 34.344 -17.9448 
20.9052 34.4181 -17.9448 28.5434 34.344 -14.1852 -24.9236 -35.0651 -10.3066 
-17.2854 -38.3102 -10.3066 -9.64729 -39.9902 -10.3066 -2.00915 -40.5256 -10.3066 
5.62898 -40.2964 -10.3066 13.2671 -39.3505 -10.3066 20.9052 -37.1287 -10.3066 
-26.18 -34.3992 -10.3066 -32.5617 -30.429 -10.3066 26.1949 -34.3992 -10.3066 
28.5434 -33.0147 -10.3066 -36.9633 -26.7611 -10.3066 -40.1998 -23.1598 -10.3066 
35.5879 -26.7611 -10.3066 36.1815 -26.0834 -10.3066 36.1815 -26.7611 -6.10843 
-42.7556 -19.123 -10.3066 41.1589 -19.123 -10.3066 43.8196 -13.54 -10.3066 
-46.0878 -11.4848 -10.3066 44.636 -11.4848 -10.3066 -47.5658 -3.8467 -10.3066 
-47.8379 0.446016 -10.3066 46.7192 -3.8467 -10.3066 -48.0257 3.79144 -10.3066 
-47.8379 3.79144 -7.7581 47.5428 3.79144 -10.3066 -47.8555 11.4296 -10.3066 
-47.8379 11.4992 -10.3066 -47.8379 11.4296 -10.0548 47.0205 11.4296 -10.3066 
-45.8923 19.0677 -10.3066 44.9539 19.0677 -10.3066 43.8196 21.4448 -10.3066 
-42.7498 26.7058 -10.3066 -40.1998 30.1503 -10.3066 40.7083 26.7058 -10.3066 
36.1815 31.5385 -10.3066 -35.9509 34.344 -10.3066 -32.5617 36.9203 -10.3066 
-24.9236 40.5297 -10.3066 -17.2854 41.9084 -10.3066 -9.64729 41.8255 -10.3066 
-2.00915 41.2971 -10.3066 5.62898 41.1433 -10.3066 13.2671 41.1218 -10.3066 
20.9052 40.1461 -10.3066 32.834 34.344 -10.3066 28.5434 37.0335 -10.3066 
-24.9236 -36.7733 -2.66849 -17.2854 -39.9893 -2.66849 -9.64729 -41.6078 -2.66849 
-2.00915 -41.9862 -2.66849 5.62898 -41.6585 -2.66849 13.2671 -40.6828 -2.66849 
20.9052 -38.4543 -2.66849 -29.1348 -34.3992 -2.66849 -32.5617 -32.1294 -2.66849 
28.3346 -34.3992 -2.66849 28.5434 -34.2679 -2.66849 36.1815 -27.2151 -2.66849 
-38.5123 -26.7611 -2.66849 -40.1998 -24.7087 -2.66849 36.584 -26.7611 -2.66849 
36.1815 -26.7611 -0.450058 -43.6314 -19.123 -2.66849 41.8271 -19.123 -2.66849 
43.8196 -15.0006 -2.66849 -46.3478 -11.4848 -2.66849 45.3807 -11.4848 -2.66849 
-47.1939 -3.8467 -2.66849 47.8207 -3.8467 -2.66849 -47.4412 3.79144 -2.66849 
48.7964 3.79144 -2.66849 -47.3072 11.4296 -2.66849 48.5463 11.4296 -2.66849 
-45.7143 19.0677 -2.66849 46.7002 19.0677 -2.66849 43.8196 24.4618 -2.66849 
-42.3628 26.7058 -2.66849 -40.1998 29.5952 -2.66849 -40.1998 26.7058 3.17307 
42.3886 26.7058 -2.66849 36.1815 32.9405 -2.66849 -35.3665 34.344 -2.66849 
-32.5617 36.444 -2.66849 -32.5617 34.344 2.65955 -24.9236 40.0917 -2.66849 
-17.2854 41.7313 -2.66849 -9.64729 41.9658 -2.66849 -2.00915 41.7288 -2.66849 
5.62898 41.7234 -2.66849 13.2671 41.6699 -2.66849 20.9052 40.8309 -2.66849 
34.327 34.344 -2.66849 28.5434 37.8901 -2.66849 -24.9236 -36.3691 4.96964 
-17.2854 -39.6984 4.96964 -9.64729 -41.4121 4.96964 -2.00915 -41.8747 4.96964 
5.62898 -41.5124 4.96964 13.2671 -40.3117 4.96964 20.9052 -37.679 4.96964 
-28.4408 -34.3992 4.96964 -32.5617 -31.6248 4.96964 -24.9236 -34.3992 12.1134 
26.4266 -34.3992 4.96964 28.5434 -32.954 4.96964 -37.6896 -26.7611 4.96964 
-40.1998 -23.5934 4.96964 35.0985 -26.7611 4.96964 36.1815 -25.5011 4.96964 
-42.8238 -19.123 4.96964 40.7612 -19.123 4.96964 43.8196 -13.199 4.96964 
-45.3189 -11.4848 4.96964 44.6162 -11.4848 4.96964 43.8196 -11.4848 8.09559 
-45.809 -3.8467 4.96964 47.263 -3.8467 4.96964 -45.6625 3.79144 4.96964 
48.2538 3.79144 4.96964 -45.1035 11.4296 4.96964 -40.1998 11.4296 12.3493 
47.9581 11.4296 4.96964 -43.0064 19.0677 4.96964 -40.1998 25.2021 4.96964 
-40.1998 19.0677 8.79806 45.6473 19.0677 4.96964 43.8196 22.1946 4.96964 
43.8196 19.0677 8.84949 -39.1571 26.7058 4.96964 -32.5617 33.0049 4.96964 
-32.5617 26.7058 10.0951 40.1857 26.7058 4.96964 36.1815 30.3043 4.96964 
36.1815 26.7058 9.7399 -30.031 34.344 4.96964 -24.9236 36.4596 4.96964 
-24.9236 34.344 7.26113 -17.2854 38.5088 4.96964 -17.2854 34.344 9.66302 
-9.64729 39.327 4.96964 -9.64729 34.344 10.541 -2.00915 39.3883 4.96964 
-2.00915 34.344 10.8289 5.62898 39.3041 4.96964 5.62898 34.344 10.5313 
13.2671 38.9002 4.96964 13.2671 34.344 10.2554 20.9052 37.4722 4.96964 
20.9052 34.344 8.63881 29.1775 34.344 4.96964 28.5434 34.6715 4.96964 
28.5434 34.344 5.40365 -17.2854 -37.9257 12.6078 -9.64729 -39.928 12.6078 
-2.00915 -40.6083 12.6078 5.62898 -40.2116 12.6078 13.2671 -38.7012 12.6078 
20.9052 -35.6836 12.6078 -32.5617 -28.8285 12.6078 -24.6502 -34.3992 12.6078 
-24.9236 -34.2507 12.6078 -17.2854 -34.3992 18.9035 22.9443 -34.3992 12.6078 
20.9052 -34.3992 14.9865 28.5434 -30.3047 12.6078 -34.7335 -26.7611 12.6078 
-40.1998 -19.3164 12.6078 -32.5617 -26.7611 15.3484 32.2624 -26.7611 12.6078 
28.5434 -26.7611 17.9124 36.1815 -22.1092 12.6078 -40.3099 -19.123 12.6078 
-40.1998 -19.123 12.7838 38.3645 -19.123 12.6078 36.1815 -19.123 16.339 
-42.6234 -11.4848 12.6078 -40.1998 -11.4848 16.1148 42.5658 -11.4848 12.6078 
43.8196 -8.12922 12.6078 -42.7999 -3.8467 12.6078 -40.1998 -3.8467 16.0639 
45.3124 -3.8467 12.6078 43.8196 -3.8467 15.5193 -41.7897 3.79144 12.6078 
-40.1998 10.6402 12.6078 -40.1998 3.79144 14.4239 -32.5617 3.79144 19.8888 
46.2138 3.79144 12.6078 43.8196 3.79144 16.8113 -39.9105 11.4296 12.6078 
-32.5617 11.4296 17.2554 -24.9236 11.4296 19.1965 45.3505 11.4296 12.6078 
43.8196 15.0342 12.6078 43.8196 11.4296 15.1034 -35.335 19.0677 12.6078 
-32.5617 22.332 12.6078 -32.5617 19.0677 14.1325 -24.9236 19.0677 16.3713 
-17.2854 19.0677 17.404 -9.64729 19.0677 19.259 5.62898 19.0677 19.6905 
13.2671 19.0677 20.2164 28.5434 19.0677 20.2251 41.4805 19.0677 12.6078 
36.1815 24.3884 12.6078 36.1815 19.0677 17.7083 -26.0167 26.7058 12.6078 
-24.9236 27.2834 12.6078 -24.9236 26.7058 12.9467 -17.2854 29.7348 12.6078 
-17.2854 26.7058 14.196 -9.64729 31.4478 12.6078 -9.64729 26.7058 15.434 
-2.00915 31.9335 12.6078 -2.00915 26.7058 15.7952 5.62898 31.4304 12.6078 
5.62898 26.7058 15.4359 13.2671 31.0028 12.6078 13.2671 26.7058 15.0916 
20.9052 30.0387 12.6078 20.9052 26.7058 15.2501 31.3806 26.7058 12.6078 
28.5434 28.0346 12.6078 28.5434 26.7058 13.9372 -9.64729 -35.8435 20.2459 
[...]
POINT_DATA 498
SCALARS ImageScalars float
LOOKUP_TABLE default
0 0 0 0 0 0 0 0 0 
0 0 0 0 0 0 0 0 0 
0 0 0 0 0 0 0 0 0 
0 0 0 0 0 0 0 0 0 
0 0 0 0 0 0 0 0 0 
0 0 0 0 0 0 0 0 0 
0 0 0 0 0 0 0 0 0 
0 0 0 0 0 0 0 0 0 
0 0 0 0 0 0 0 0 0 
0 0 0 0 0 0 0 0 0 
0 0 0 0 0 0 0 0 0 
0 0 0 0 0 0 0 0 0 
0 0 0 0 0 0 0 0 0 
0 0 0 0 0 0 0 0 0 
0 0 0 0 0 0 0 0 0 
0 0 0 0 0 0 0 0 0 
0 0 0 0 0 0 0 0 0 
0 0 0 0 0 0 0 0 0 
0 0 0 0 0 0 0 0 0 
0 0 0 0 0 0 0 0 0 
0 0 0 0 0 0 0 0 0 
0 0 0 0 0 0 0 0 0 
0 0 0 0 0 0 0 0 0 
0 0 0 0 0 0 0 0 0 
0 0 0 0 0 0 0 0 0 
0 0 0 0 0 0 0 0 0 
0 0 0 0 0 0 0 0 0 
0 0 0 0 0 0 0 0 0 
0 0 0 0 0 0 0 0 0 
0 0 0 0 0 0 0 0 0 
0 0 0 0 0 0 0 0 0 
0 0 0 0 0 0 0 0 0 
0 0 0 0 0 0 0 0 0 
0 0 0 0 0 0 0 0 0 
0 0 0 0 0 0 0 0 0 
0 0 0 0 0 0 0 0 0 
0 0 0 0 0 0 0 0 0 
0 0 0 0 0 0 0 0 0 
0 0 0 0 0 0 0 0 0 
0 0 0 0 0 0 0 0 0 
0 0 0 0 0 0 0 0 0 
0 0 0 0 0 0 0 0 0 
0 0 0 0 0 0 0 0 0 
0 0 0 0 0 0 0 0 0 
0 0 0 0 0 0 0 0 0 
0 0 0 0 0 0 0 0 0 
0 0 0 0 0 0 0 0 0 
0 0 0 0 0 0 0 0 0 
0 0 0 0 0 0 0 0 0 
0 0 0 0 0 0 0 0 0 
0 0 0 0 0 0 0 0 0 
0 0 0 0 0 0 0 0 0 
0 0 0 0 0 0 0 0 0 
0 0 0 0 0 0 0 0 0 
0 0 0 0 0 0 0 0 0 
0 0 0 
NORMALS Normals float
0.0748458 0.0183551 0.997026 -0.0474465 0.0544898 0.997386 0.223707 0.474376 0.851424 
0.113808 0.361404 0.925438 0.0506812 0.279408 0.958834 0.0451862 0.2605 0.964416 
0.0353988 0.292924 0.95548 -0.0609135 0.338273 0.939075 -0.216118 0.390874 0.894712 
0.313278 0.366675 0.876017 0.111264 0.26868 0.956782 0.0154075 0.159419 0.987091 
0.00663969 0.141821 0.98987 0.0621451 0.13612 0.988741 0.0623519 0.104245 0.992595 
-0.0131788 0.126368 0.991896 -0.133968 0.193536 0.971904 -0.293382 0.287465 0.911751 
0.582794 0.280399 0.76271 0.225024 0.209543 0.951554 -0.00157329 0.119437 0.992841 
-0.0317509 0.0406548 0.998669 0.0259393 0.0739504 0.996925 0.01602 0.0897555 0.995835 
0.0238094 -0.0290397 0.999295 0.0278184 -0.0118241 0.999543 -0.0521795 0.0478368 0.997491 
-0.207105 0.132632 0.969287 -0.468205 0.226814 0.854014 0.52901 0.13609 0.837632 
0.14933 0.0819362 0.985387 -0.0438844 0.0540351 0.997574 -0.0282134 0.0210435 0.99938 
0.0553865 0.0231638 0.998196 -0.0432875 0.0885379 0.995132 -0.037577 0.0372595 0.998599 
0.0651248 -0.0191207 0.997694 0.014622 -0.023153 0.999625 -0.125663 0.0170032 0.991927 
-0.389564 0.0838546 0.917174 0.499109 0.0561994 0.864715 0.145009 0.0813303 0.986082 
-0.0640821 0.110321 0.991828 -0.0656971 0.126821 0.989748 0.0935934 0.0822749 0.992205 
0.0344638 0.09099 0.995255 -0.0839942 0.170847 0.981711 -0.0345096 0.061208 0.997528 
-0.0159459 -0.0161394 0.999743 -0.109757 -0.0563754 0.992358 -0.339003 -0.0512174 0.93939 
0.55217 -0.0264695 0.833311 0.192733 0.0486368 0.980045 0.0548 0.0547646 0.996994 
0.00604229 0.127116 0.991869 -0.0485091 0.0778287 0.995786 -0.0557276 0.19711 0.978796 
0.021593 0.146455 0.988982 0.0448018 0.0478698 0.997848 -0.0676149 0.0884038 0.993787 
-0.120163 0.0847388 0.989131 -0.103202 0.0153753 0.994542 -0.160951 -0.0737013 0.984207 
-0.35839 -0.145061 0.922233 0.620904 -0.226291 0.750514 0.122785 -0.0103308 0.992379 
0.286568 -0.12335 0.950086 0.11996 -0.102476 0.987476 -0.0514143 0.0485118 0.997498 
-0.0437079 -0.0609197 0.997185 -0.0590766 0.0377051 0.997541 -0.0207044 -0.0442242 0.998807 
-0.0456521 -0.0761711 0.996049 -0.107582 -0.0387132 0.993442 -0.169009 -0.0653591 0.983445 
-0.260994 -0.158363 0.952262 -0.451121 -0.27653 0.84854 0.421287 -0.372229 0.82702 
0.167876 -0.242254 0.955579 -0.0352702 -0.225927 0.973506 -0.0749469 -0.190612 0.9788 
-0.0693756 -0.223631 0.972202 -0.0636201 -0.259167 0.963735 -0.109445 -0.267449 0.957336 
-0.215993 -0.277433 0.936151 -0.342309 -0.34777 0.872858 0.229772 -0.645779 0.728131 
0.0387721 -0.588776 0.807366 -0.0530902 -0.563987 0.824075 -0.0820572 -0.590079 0.803165 
-0.073723 -0.595264 0.800141 -0.120691 -0.585739 0.801464 -0.252817 -0.599863 0.75911 
0.238918 0.506073 0.828739 0.40258 0.804685 0.436361 0.161591 0.486215 0.858769 
0.239996 0.689795 0.683071 0.102958 0.488965 0.866206 0.123002 0.587991 0.799461 
0.0460376 0.510663 0.858548 0.0467171 0.542821 0.838548 -0.030298 0.556478 0.83031 
-0.0346326 0.574414 0.817832 -0.113735 0.576963 0.808813 -0.135778 0.659247 0.739566 
-0.267039 0.535296 0.801342 -0.32979 0.756175 0.565188 0.274737 0.508747 0.815902 
0.382998 0.486185 0.785453 0.481239 0.643679 0.595052 -0.384782 0.490532 0.78187 
-0.404928 0.480192 0.778106 -0.440205 0.529973 0.724809 0.48451 0.416998 0.769001 
0.608133 0.345151 0.714874 0.709603 0.469362 0.525512 -0.506877 0.394398 0.766502 
-0.539308 0.363941 0.759403 -0.586884 0.429469 0.686385 0.647478 0.286668 0.706112 
-0.584032 0.256004 0.770304 -0.876826 0.30875 0.368578 0.715426 0.150359 0.682318 
-0.625913 0.126418 0.769579 -0.796159 0.154873 0.584932 0.753677 0.0448065 0.655716 
0.986058 0.0192816 0.16528 -0.610255 -0.0256811 0.791789 -0.74531 -0.0113197 0.666622 
0.772997 -0.0808243 0.62924 0.980396 -0.139829 0.138821 -0.54296 -0.171511 0.822057 
-0.752768 -0.172905 0.635172 0.775037 -0.271815 0.570469 0.689616 -0.443801 0.57225 
-0.496641 -0.283666 0.820293 -0.471508 -0.321043 0.821347 -0.808372 -0.332313 0.485905 
0.653003 -0.487895 0.579264 0.724443 -0.514795 0.458441 0.487156 -0.667501 0.563135 
-0.412896 -0.391735 0.822229 -0.367567 -0.451268 0.813174 -0.563 -0.492354 0.663791 
0.44443 -0.700346 0.558567 0.505677 -0.723986 0.469184 0.262614 -0.770637 0.580648 
0.0651413 -0.786707 0.61388 -0.054464 -0.780487 0.622796 -0.0768488 -0.753727 0.652679 
-0.0604711 -0.721462 0.689808 -0.115786 -0.669553 0.733684 -0.256186 -0.60071 0.757308 
-0.252638 -0.60311 0.756592 -0.433746 -0.702624 0.564079 0.413105 0.826023 0.383446 
0.282489 0.861901 0.421101 0.129284 0.900611 0.414952 0.017693 0.920594 0.39012 
-0.0703127 0.924606 0.374379 -0.18253 0.909996 0.372276 -0.35653 0.866606 0.349114 
0.435388 0.815828 0.380608 0.555093 0.752686 0.354027 -0.478008 0.811546 0.336009 
-0.534589 0.775741 0.335322 0.654122 0.680466 0.330289 0.760008 0.573796 0.305197 
-0.70421 0.639491 0.308446 -0.717145 0.626456 0.305377 -0.746198 0.654534 0.121545 
0.837524 0.468672 0.280891 -0.822502 0.486326 0.294919 -0.890371 0.354013 0.286205 
0.93135 0.276371 0.23708 -0.904952 0.312058 0.289277 0.978999 0.114692 0.168542 
0.987115 0.0595343 0.148522 -0.928569 0.181256 0.323891 0.990574 0.0182108 0.135761 
0.99895 0.0145578 0.0434432 -0.937889 0.0213279 0.346281 0.980762 -0.139928 0.136112 
0.980537 -0.141536 0.136066 0.98214 -0.139231 0.126555 -0.909797 -0.152006 0.386218 
0.942789 -0.302367 0.140438 -0.844499 -0.341356 0.412672 -0.824723 -0.406606 0.393069 
0.8461 -0.509973 0.155054 0.768707 -0.620737 0.154191 -0.743214 -0.558396 0.368547 
-0.639771 -0.68026 0.357687 0.630464 -0.762945 0.142931 0.527549 -0.837772 0.140816 
0.292704 -0.9449 0.146592 0.0802443 -0.981695 0.172732 -0.0390865 -0.980147 0.194382 
-0.0437809 -0.972854 0.22724 -0.0112343 -0.966829 0.255176 -0.0586254 -0.959284 0.276292 
-0.238965 -0.923212 0.300958 -0.55479 -0.761137 0.335974 -0.447193 -0.835823 0.318464 
0.449603 0.890448 0.0704301 0.291348 0.953579 0.0761797 0.124467 0.988944 0.0806055 
0.0030063 0.996988 0.0775012 -0.0829956 0.994024 0.0709071 -0.196424 0.978959 0.0552944 
-0.379901 0.924583 0.0286657 0.529306 0.846057 0.0634265 0.603833 0.795204 0.0551026 
-0.562437 0.826831 -0.00391557 -0.568215 0.822866 -0.00486477 -0.751088 0.659747 -0.0244913 
0.738463 0.673902 0.0229879 0.796438 0.604555 0.0141361 -0.759005 0.650599 -0.0251206 
-0.753281 0.653158 -0.0771552 0.900602 0.434643 -0.00101216 -0.8714 0.48995 -0.0246998 
-0.909649 0.415088 -0.0155226 0.974316 0.219867 -0.0486439 -0.933943 0.357422 -0.000887023 
0.991644 0.0686864 -0.1092 -0.976015 0.215225 0.0327476 0.989347 0.00752516 -0.145382 
-0.997992 0.0474368 0.0419669 0.980499 -0.111033 -0.162155 -0.990457 -0.12711 0.0532809 
0.942697 -0.292082 -0.161278 -0.934775 -0.353359 0.0364991 -0.852118 -0.523338 0.00348963 
0.835468 -0.519684 -0.178668 0.768668 -0.612029 -0.185932 0.733004 -0.533163 -0.422425 
-0.795895 -0.60519 -0.0172177 -0.628684 -0.775066 -0.0634707 0.606566 -0.771589 -0.191647 
0.526662 -0.827967 -0.192607 0.5049 -0.759127 -0.410855 0.310343 -0.928099 -0.205716 
0.117067 -0.975669 -0.185378 -0.000642046 -0.990556 -0.137109 -0.015692 -0.99434 -0.105081 
-0.00379988 -0.995149 -0.098307 -0.0549244 -0.991733 -0.115969 -0.2362 -0.96241 -0.134078 
-0.576353 -0.812754 -0.0851385 -0.432274 -0.894154 -0.116742 0.452717 0.880736 -0.139109 
0.30165 0.945324 -0.123973 0.133961 0.985334 -0.105699 0.00612915 0.996076 -0.0882919 
-0.0983507 0.990847 -0.092458 -0.229333 0.965516 -0.123229 -0.414752 0.895876 -0.159335 
0.519698 0.842205 -0.143541 0.614686 0.774037 -0.151747 0.462304 0.820041 -0.337353 
-0.539719 0.820737 -0.187336 -0.592994 0.780622 -0.197451 0.731252 0.662028 -0.164286 
0.814734 0.552406 -0.176228 -0.730049 0.652101 -0.204432 -0.751846 0.626807 -0.204551 
0.89341 0.408875 -0.186117 -0.841216 0.506469 -0.189328 -0.897217 0.408114 -0.168657 
0.956494 0.185472 -0.225211 -0.909677 0.381815 -0.163418 -0.893517 0.383847 -0.232999 
0.964199 0.0208828 -0.264356 -0.961618 0.226807 -0.154432 0.94415 -0.0416176 -0.326876 
-0.986046 0.0457289 -0.160069 0.904685 -0.157042 -0.396084 0.667283 -0.254224 -0.700074 
-0.969113 -0.152413 -0.193884 0.826025 -0.317122 -0.465957 0.719242 -0.484906 -0.497552 
0.699021 -0.346228 -0.625697 -0.873807 -0.405927 -0.26774 -0.814063 -0.504196 -0.288248 
-0.802309 -0.442861 -0.400218 0.676759 -0.528841 -0.512177 0.480507 -0.701825 -0.525884 
0.424686 -0.500776 -0.754232 -0.66338 -0.658014 -0.356293 -0.54522 -0.739154 -0.395458 
-0.481417 -0.686794 -0.544565 0.413672 -0.73269 -0.540408 0.284369 -0.768045 -0.573795 
0.268501 -0.694657 -0.667352 0.152647 -0.82548 -0.543398 0.159526 -0.647354 -0.745309 
0.0482804 -0.861647 -0.505206 0.0571807 -0.663475 -0.74601 -0.0013409 -0.879047 -0.476733 
-0.000574078 -0.660896 -0.750477 -0.027165 -0.869787 -0.49268 -0.0276307 -0.655647 -0.754562 
-0.100293 -0.853247 -0.511772 -0.0884961 -0.661424 -0.744773 -0.226228 -0.816298 -0.531487 
-0.20499 -0.723406 -0.659289 -0.363523 -0.790793 -0.492439 -0.350542 -0.793376 -0.497669 
-0.344937 -0.786148 -0.512825 0.323931 0.886492 -0.330454 0.16144 0.939087 -0.303402 
0.0171504 0.959859 -0.279957 -0.116734 0.95227 -0.282056 -0.265326 0.914738 -0.304723 
-0.444425 0.831475 -0.333371 0.619187 0.684048 -0.385598 0.457922 0.817031 -0.350383 
0.463192 0.813351 -0.352014 0.327623 0.738337 -0.589509 -0.48838 0.805445 -0.335772 
-0.446669 0.792676 -0.414912 -0.612778 0.709122 -0.348782 0.665834 0.635688 -0.390597 
0.819472 0.386985 -0.42274 0.611816 0.619234 -0.49217 -0.679777 0.644873 -0.349344 
-0.583661 0.606272 -0.540161 -0.742769 0.569258 -0.352476 0.822363 0.38076 -0.422777 
0.819337 0.38007 -0.429225 -0.776069 0.520245 -0.356456 -0.716701 0.502156 -0.48392 
0.877191 0.139943 -0.459294 0.79658 0.115532 -0.593391 -0.858928 0.380861 -0.342326 
-0.885337 0.308014 -0.34829 0.861856 -0.0451407 -0.505141 0.764784 -0.0816149 -0.639096 
-0.908194 0.214937 -0.359147 -0.861861 0.201194 -0.465528 0.786467 -0.148246 -0.599576 
0.670684 -0.247052 -0.699391 0.72585 -0.176825 -0.664737 0.422929 -0.270204 -0.86494 
-0.923498 0.00367814 -0.383586 -0.832738 -0.0224644 -0.553212 0.650787 -0.2595 -0.713538 
0.359945 -0.335052 -0.870735 0.215854 -0.371865 -0.902842 -0.865833 -0.236275 -0.44103 
-0.803036 -0.348401 -0.483477 -0.807403 -0.261466 -0.5289 0.459946 -0.368431 -0.807904 
0.379574 -0.410613 -0.829048 0.363528 -0.372434 -0.853897 0.194297 -0.374585 -0.906606 
0.162567 -0.395007 -0.90418 0.171891 -0.486902 -0.856376 -0.00662783 -0.573322 -0.819303 
0.0583222 -0.613634 -0.787434 -0.146387 -0.554787 -0.819013 -0.672479 -0.497841 -0.547656 
-0.447985 -0.646526 -0.617506 -0.429768 -0.548378 -0.717343 0.235231 -0.461302 -0.855492 
0.211803 -0.470129 -0.856807 0.209283 -0.458524 -0.863688 0.147989 -0.488592 -0.85987 
0.147942 -0.422416 -0.894247 0.069972 -0.561534 -0.82449 0.0917109 -0.456881 -0.884788 
-0.000691203 -0.577345 -0.8165 0.000103475 -0.49685 -0.867837 -0.031779 -0.556963 -0.829929 
-0.0398832 -0.481892 -0.875322 -0.055054 -0.566332 -0.822337 -0.0122537 -0.519601 -0.854321 
-0.121606 -0.63173 -0.765591 -0.0497644 -0.605333 -0.794415 -0.305568 -0.679536 -0.666978 
-0.239962 -0.68303 -0.689846 -0.226191 -0.672961 -0.704245 0.169985 0.734885 -0.656544 
0.0283142 0.757683 -0.652008 -0.106303 0.762924 -0.637688 -0.267486 0.726191 -0.633323 
0.430521 0.568915 -0.700704 0.264588 0.706427 -0.656471 0.31772 0.675567 -0.665329 
0.164211 0.675618 -0.718732 0.0304794 0.649703 -0.759577 -0.100347 0.6828 -0.723681 
-0.285997 0.718611 -0.63388 -0.265219 0.711235 -0.651002 -0.412559 0.639021 -0.64919 
0.467916 0.532222 -0.705546 0.559186 0.389163 -0.732026 0.414685 0.505877 -0.756389 
0.256446 0.40654 -0.876904 0.121226 0.356454 -0.926415 0.040211 0.356236 -0.933531 
-0.0634032 0.380645 -0.922545 -0.195362 0.429242 -0.881808 -0.505876 0.569592 -0.647808 
-0.364968 0.504469 -0.782502 -0.544592 0.524949 -0.654101 0.592238 0.320907 -0.739103 
0.539526 0.308711 -0.783332 0.319007 0.244577 -0.915651 0.181396 0.180728 -0.966661 
-0.288879 0.257206 -0.922168 -0.607455 0.44062 -0.660948 -0.476891 0.360447 -0.801657 
-0.644977 0.376029 -0.665287 0.615358 0.0592313 -0.786019 0.502394 0.0316109 -0.864061 
0.304628 0.00259812 -0.952468 0.171924 0.00843287 -0.985074 -0.354264 0.190819 -0.91547 
-0.667122 0.323687 -0.67095 -0.59868 0.299858 -0.742743 0.553172 -0.145825 -0.820205 
0.42858 -0.254006 -0.867064 0.464931 -0.166206 -0.869606 0.300855 -0.199667 -0.932534 
0.147547 -0.182895 -0.971997 0.051005 -0.208506 -0.97669 -0.289243 0.0632438 -0.955164 
-0.697817 0.151716 -0.700024 -0.519511 0.101869 -0.84837 0.404109 -0.281039 -0.870467 
0.236968 -0.371199 -0.897807 0.287016 -0.352673 -0.890642 0.176862 -0.353573 -0.918535 
0.0111092 -0.249142 -0.968403 0.0982983 -0.229306 -0.968378 0.237058 -0.287732 -0.927908 
-0.263161 -0.115241 -0.957844 -0.67392 -0.0595918 -0.736397 -0.480195 -0.0767561 -0.873797 
0.241935 -0.410677 -0.879097 0.242487 -0.430364 -0.869475 0.260549 -0.437282 -0.860755 
0.184967 -0.475679 -0.859952 0.178483 -0.371994 -0.910914 0.0838718 -0.266373 -0.960214 
0.000612053 -0.567797 -0.823169 0.109871 -0.412863 -0.904142 0.0583022 -0.613569 -0.787486 
0.0513104 -0.462851 -0.88495 -0.0772136 -0.398817 -0.913774 -0.146598 -0.553967 -0.81953 
-0.207407 -0.359863 -0.90966 -0.550401 -0.3151 -0.773157 -0.432933 -0.424305 -0.79532 
-0.444536 -0.317685 -0.837534 0.0379083 -0.525869 -0.84972 0.0210644 -0.535257 -0.844427 
0.0250138 -0.527702 -0.849061 0.0258308 -0.5275 -0.849162 0.0553264 -0.612722 -0.788359 
-0.14084 -0.556162 -0.819053 0.00142751 -0.59193 -0.805988 -0.00156377 -0.588997 -0.808133 
0.1213 0.187859 -0.974677 0.0527188 0.267425 -0.962135 -0.0478223 0.309802 -0.949598 
-0.16044 0.285047 -0.944991 0.133597 0.1663 -0.976983 0.121737 0.163916 -0.978934 
0.0673327 0.177822 -0.981756 -0.0274832 0.230575 -0.972666 -0.197544 0.247331 -0.94858 
-0.154645 0.245135 -0.957076 -0.266881 0.118813 -0.956378 0.169057 0.00630291 -0.985586 
0.0663857 -0.172283 -0.982808 0.12246 -0.0313385 -0.991979 0.108766 -0.0561011 -0.992483 
0.00775897 0.0314118 -0.999476 -0.15895 0.0898038 -0.983194 -0.268784 0.107776 -0.957152 
-0.264783 0.104134 -0.958669 0.117833 -0.295712 -0.947982 0.127665 -0.308079 -0.942756 
0.128004 -0.30875 -0.94249 0.211845 -0.269902 -0.939295 0.123233 -0.202371 -0.971524 
-0.0826764 -0.0758899 -0.993683 -0.228946 0.0147017 -0.973328 -0.206165 -0.00381583 -0.97851 
0.154597 -0.265653 -0.951593 0.0444647 -0.296738 -0.953923 0.0362151 -0.22977 -0.972571 
-0.138711 -0.149714 -0.978951 -0.129701 -0.160717 -0.978441 -0.131325 -0.151995 -0.979618 

