# vtk DataFile Version 4.2
vtk output
ASCII
DATASET POLYDATA
POINTS 518 float
-23.48 -40.5079 -18.4308 -15.1724 -40.5079 -19.6192 -6.86474 -40.5079 -19.6378 
1.4429 -40.5079 -19.3038 9.75054 -40.5079 -18.3396 -31.7877 -32.2002 -18.38 
-23.48 -32.2002 -20.0804 -15.1724 -32.2002 -20.6711 -6.86474 -32.2002 -21.4967 
1.4429 -32.2002 -21.8406 9.75054 -32.2002 -20.9659 18.0582 -32.2002 -19.9448 
26.3658 -32.2002 -18.2371 -40.0953 -23.8926 -18.0585 -31.7877 -23.8926 -20.2327 
-23.48 -23.8926 -20.5446 -15.1724 -23.8926 -20.5158 -6.86474 -23.8926 -21.0354 
1.4429 -23.8926 -21.3146 9.75054 -23.8926 -21.3475 18.0582 -23.8926 -20.7071 
26.3658 -23.8926 -20.1947 34.6735 -23.8926 -19.0691 -48.403 -15.5849 -16.4534 
-40.0953 -15.5849 -21.0869 -31.7877 -15.5849 -21.8128 -23.48 -15.5849 -21.6404 
-15.1724 -15.5849 -20.7236 -6.86474 -15.5849 -20.2421 1.4429 -15.5849 -20.453 
9.75054 -15.5849 -20.1057 18.0582 -15.5849 -20.2077 26.3658 -15.5849 -21.3251 
34.6735 -15.5849 -21.0105 42.9811 -15.5849 -19.2745 -48.403 -7.27728 -19.0981 
-40.0953 -7.27728 -22.561 -31.7877 -7.27728 -23.3737 -23.48 -7.27728 -23.4372 
-15.1724 -7.27728 -23.8078 -6.86474 -7.27728 -22.8322 1.4429 -7.27728 -20.1088 
9.75054 -7.27728 -19.5007 18.0582 -7.27728 -19.5035 26.3658 -7.27728 -20.949 
34.6735 -7.27728 -21.7032 42.9811 -7.27728 -20.8037 51.2888 -7.27728 -16.9693 
-48.403 1.03036 -19.7539 -40.0953 1.03036 -22.6775 -31.7877 1.03036 -23.3159 
-23.48 1.03036 -23.1768 -15.1724 1.03036 -23.7389 -6.86474 1.03036 -22.6062 
1.4429 1.03036 -19.6707 9.75054 1.03036 -21.1342 18.0582 1.03036 -19.5063 
26.3658 1.03036 -21.1958 34.6735 1.03036 -22.0975 42.9811 1.03036 -21.5197 
51.2888 1.03036 -18.1575 -48.403 9.338 -19.524 -40.0953 9.338 -22.8323 
-31.7877 9.338 -23.2038 -23.48 9.338 -22.2042 -15.1724 9.338 -22.2279 
-6.86474 9.338 -22.4841 1.4429 9.338 -21.5192 9.75054 9.338 -21.476 
18.0582 9.338 -20.396 26.3658 9.338 -21.2881 34.6735 9.338 -21.9682 
42.9811 9.338 -21.1118 51.2888 9.338 -17.8287 -48.403 17.6456 -18.0863 
-40.0953 17.6456 -21.6165 -31.7877 17.6456 -22.5105 -23.48 17.6456 -22.8893 
-15.1724 17.6456 -23.0177 -6.86474 17.6456 -22.6158 1.4429 17.6456 -21.8269 
9.75054 17.6456 -21.6192 18.0582 17.6456 -21.4986 26.3658 17.6456 -21.8714 
34.6735 17.6456 -21.3894 42.9811 17.6456 -19.9731 51.2888 17.6456 -16.4435 
-40.0953 25.9533 -20.0307 -31.7877 25.9533 -22.6636 -23.48 25.9533 -23.3438 
-15.1724 25.9533 -23.211 -6.86474 25.9533 -23.1519 1.4429 25.9533 -22.2703 
9.75054 25.9533 -22.3673 18.0582 25.9533 -21.8986 26.3658 25.9533 -21.2474 
34.6735 25.9533 -19.6708 42.9811 25.9533 -17.1513 -40.0953 34.2609 -17.4587 
-31.7877 34.2609 -20.0986 -23.48 34.2609 -21.7652 -15.1724 34.2609 -21.9507 
-6.86474 34.2609 -22.0061 1.4429 34.2609 -21.7064 9.75054 34.2609 -21.2637 
18.0582 34.2609 -20.3713 26.3658 34.2609 -19.2344 -23.48 42.5686 -16.821 
-15.1724 42.5686 -18.1667 -6.86474 42.5686 -18.3877 1.4429 42.5686 -17.7357 
9.75054 42.5686 -16.5997 -23.48 -43.0528 -16.401 -15.1724 -45.4448 -16.401 
-15.1724 -48.8155 -8.28349 -6.86474 -44.7033 -16.401 1.4429 -43.8745 -16.401 
9.75054 -42.6546 -16.401 -29.4072 -40.5079 -16.401 -31.7877 -38.529 -16.401 
-31.7877 -40.5079 -15.3029 16.9987 -40.5079 -16.401 18.0582 -39.9675 -16.401 
18.0582 -40.5079 -15.8794 26.3658 -35.293 -16.401 26.3658 -40.5079 -10.6049 
-37.5735 -32.2002 -16.401 -40.0953 -29.2021 -16.401 -40.0953 -32.2002 -14.846 
31.9139 -32.2002 -16.401 34.6735 -30.0931 -16.401 34.6735 -32.2002 -14.983 
-42.9323 -23.8926 -16.401 -48.403 -15.6898 -16.401 -48.403 -23.8926 -9.81057 
41.5424 -23.8926 -16.401 42.9811 -22.6004 -16.401 42.9811 -23.8926 -15.4363 
-48.4529 -15.5849 -16.401 47.777 -15.5849 -16.401 51.2888 -8.77278 -16.401 
51.2888 -15.5849 -11.7486 -51.4245 -7.27728 -16.401 51.8911 -7.27728 -16.401 
-52.5326 1.03036 -16.401 53.3105 1.03036 -16.401 -52.4073 9.338 -16.401 
53.0013 9.338 -16.401 -50.2719 17.6456 -16.401 -48.403 24.7981 -16.401 
51.3405 17.6456 -16.401 51.2888 17.7329 -16.401 -47.9571 25.9533 -16.401 
-48.403 25.9533 -16.0119 34.6735 33.7513 -16.401 44.1803 25.9533 -16.401 
42.9811 27.2462 -16.401 51.2888 25.9533 -9.68159 -41.7616 34.2609 -16.401 
-40.0953 35.6494 -16.401 -31.7877 40.0972 -16.401 18.0582 40.6928 -16.401 
34.1173 34.2609 -16.401 26.3658 38.46 -16.401 34.6735 34.2609 -16.1029 
42.9811 34.2609 -10.3697 -24.8522 42.5686 -16.401 -31.7877 42.5686 -12.9438 
-23.48 42.9391 -16.401 -15.1724 44.4467 -16.401 -6.86474 44.729 -16.401 
1.4429 43.848 -16.401 10.7643 42.5686 -16.401 9.75054 42.7496 -16.401 
18.0582 42.5686 -13.2359 26.3658 42.5686 -9.4323 -15.1724 -48.8692 -8.09335 
-31.7877 -45.5224 -8.09335 -16.4228 -48.8155 -8.09335 -23.48 -48.5044 -8.09335 
-14.7502 -48.8155 -8.09335 -15.1724 -48.8155 -7.57013 -6.86474 -47.8134 -8.09335 
1.4429 -46.7528 -8.09335 9.75054 -45.6759 -8.09335 18.0582 -44.3536 -8.09335 
26.3658 -41.8707 -8.09335 -38.3427 -40.5079 -8.09335 -40.0953 -38.6402 -8.09335 
29.2045 -40.5079 -8.09335 34.6735 -37.45 -8.09335 -44.7423 -32.2002 -8.09335 
-48.403 -25.6075 -8.09335 40.902 -32.2002 -8.09335 42.9811 -30.0659 -8.09335 
-49.297 -23.8926 -8.09335 47.8359 -23.8926 -8.09335 51.2888 -18.6244 -8.09335 
-52.6604 -15.5849 -8.09335 53.074 -15.5849 -8.09335 -55.1073 -7.27728 -8.09335 
56.404 -7.27728 -8.09335 -56.5398 1.03036 -8.09335 58.3069 1.03036 -8.09335 
-56.6929 9.338 -8.09335 58.6259 9.338 -8.09335 -55.7805 17.6456 -8.09335 
56.7681 17.6456 -8.09335 -53.4243 25.9533 -8.09335 -48.403 33.8231 -8.09335 
52.3169 25.9533 -8.09335 51.2888 27.2867 -8.09335 -48.0416 34.2609 -8.09335 
-48.403 34.2609 -2.14293 -40.0953 41.3032 -8.09335 34.6735 40.6182 -8.09335 
44.7955 34.2609 -8.09335 42.9811 35.7636 -8.09335 -37.5258 42.5686 -8.09335 
-31.7877 44.8844 -8.09335 -23.48 47.2283 -8.09335 -15.1724 48.3368 -8.09335 
-6.86474 47.9808 -8.09335 1.4429 47.0636 -8.09335 9.75054 45.4937 -8.09335 
18.0582 44.4125 -8.09335 28.3695 42.5686 -8.09335 26.3658 43.1159 -8.09335 
-31.7877 -45.7784 0.214295 -23.48 -48.2474 0.214295 -15.1724 -47.934 0.214295 
-6.86474 -46.5089 0.214295 1.4429 -45.5996 0.214295 9.75054 -44.9745 0.214295 
18.0582 -44.5009 0.214295 26.3658 -42.5393 0.214295 -38.3314 -40.5079 0.214295 
-40.0953 -38.859 0.214295 30.3507 -40.5079 0.214295 34.6735 -38.0821 0.214295 
-45.2474 -32.2002 0.214295 -48.403 -26.2468 0.214295 41.2379 -32.2002 0.214295 
42.9811 -30.3057 0.214295 -49.5113 -23.8926 0.214295 -48.403 -23.8926 3.81689 
48.326 -23.8926 0.214295 51.2888 -19.1398 0.214295 -52.5997 -15.5849 0.214295 
53.3184 -15.5849 0.214295 -54.8652 -7.27728 0.214295 57.0075 -7.27728 0.214295 
-56.2048 1.03036 0.214295 59.0363 1.03036 0.214295 -56.4305 9.338 0.214295 
59.5445 9.338 0.214295 -55.8309 17.6456 0.214295 57.7233 17.6456 0.214295 
-53.9082 25.9533 0.214295 53.3596 25.9533 0.214295 51.2888 28.7114 0.214295 
51.2888 25.9533 6.36273 -48.5205 34.2609 0.214295 -48.403 34.3813 0.214295 
-48.403 34.2609 0.462816 -40.0953 40.5189 0.214295 34.6735 41.1466 0.214295 
45.9232 34.2609 0.214295 42.9811 36.5481 0.214295 42.9811 34.2609 5.94727 
-35.6237 42.5686 0.214295 -31.7877 44.2063 0.214295 -31.7877 42.5686 3.22573 
-23.48 46.7427 0.214295 -23.48 42.5686 8.26606 -15.1724 47.8153 0.214295 
-6.86474 47.0895 0.214295 1.4429 45.7059 0.214295 1.4429 42.5686 6.40896 
9.75054 43.9195 0.214295 9.75054 42.5686 3.09244 18.0582 43.4056 0.214295 
18.0582 42.5686 2.26918 28.367 42.5686 0.214295 26.3658 42.9861 0.214295 
26.3658 42.5686 1.30416 -31.7877 -41.2793 8.52194 -23.48 -44.264 8.52194 
-15.1724 -44.8603 8.52194 -6.86474 -44.6448 8.52194 1.4429 -43.9724 8.52194 
9.75054 -43.5319 8.52194 18.0582 -43.2321 8.52194 26.3658 -41.2125 8.52194 
-32.9529 -40.5079 8.52194 -40.0953 -34.2608 8.52194 -31.7877 -40.5079 9.5599 
-23.48 -40.5079 14.399 -15.1724 -40.5079 16.7627 27.7577 -40.5079 8.52194 
26.3658 -40.5079 10.5815 34.6735 -36.4196 8.52194 -41.7333 -32.2002 8.52194 
-40.0953 -32.2002 10.6714 39.2694 -32.2002 8.52194 42.9811 -28.112 8.52194 
-46.7852 -23.8926 8.52194 -48.403 -20.0351 8.52194 46.29 -23.8926 8.52194 
42.9811 -23.8926 15.6664 51.2888 -16.6625 8.52194 -50.1218 -15.5849 8.52194 
-48.403 -15.5849 12.0542 51.9775 -15.5849 8.52194 51.2888 -15.5849 10.4231 
-52.3742 -7.27728 8.52194 -48.403 -7.27728 16.4736 55.6008 -7.27728 8.52194 
-54.0186 1.03036 8.52194 57.827 1.03036 8.52194 -54.1934 9.338 8.52194 
58.0169 9.338 8.52194 -53.2134 17.6456 8.52194 -48.403 17.6456 14.9681 
55.6423 17.6456 8.52194 51.2888 24.7892 8.52194 51.2888 17.6456 15.0201 
-49.8823 25.9533 8.52194 -48.403 28.2067 8.52194 -48.403 25.9533 10.2821 
-40.0953 25.9533 16.611 50.3911 25.9533 8.52194 42.9811 33.0484 8.52194 
42.9811 25.9533 15.9377 -42.1427 34.2609 8.52194 -40.0953 35.6483 8.52194 
-40.0953 34.2609 9.94658 -31.7877 39.3874 8.52194 -31.7877 34.2609 13.7644 
-23.48 42.3974 8.52194 -23.48 34.2609 15.4612 -15.1724 34.2609 16.0294 
-6.86474 34.2609 15.975 1.4429 41.1891 8.52194 1.4429 34.2609 14.9564 
9.75054 39.6526 8.52194 9.75054 34.2609 14.7152 18.0582 39.718 8.52194 
18.0582 34.2609 15.277 26.3658 39.4888 8.52194 26.3658 34.2609 14.8211 
41.022 34.2609 8.52194 34.6735 37.5828 8.52194 34.6735 34.2609 12.7165 
-22.6086 42.5686 8.52194 -15.1724 43.7778 8.52194 -15.1724 42.5686 9.8977 
-3.7415 42.5686 8.52194 -6.86474 43.2775 8.52194 -6.86474 42.5686 9.35588 
-6.86474 -41.1255 16.8296 1.4429 -41.311 16.8296 9.75054 -41.5905 16.8296 
18.0582 -40.8401 16.8296 -31.7877 -33.2978 16.8296 -23.48 -37.9978 16.8296 
-14.639 -40.5079 16.8296 -15.1724 -40.4505 16.8296 -6.86474 -40.5079 17.5777 
1.4429 -40.5079 17.8386 9.75054 -40.5079 18.3341 19.1221 -40.5079 16.8296 
18.0582 -40.5079 17.2736 26.3658 -37.765 16.8296 34.6735 -32.3471 16.8296 
-33.079 -32.2002 16.8296 -40.0953 -24.5751 16.8296 -31.7877 -32.2002 17.5976 
-23.48 -32.2002 20.392 -15.1724 -32.2002 22.2725 -6.86474 -32.2002 22.9301 
1.4429 -32.2002 23.3772 9.75054 -32.2002 23.6932 18.0582 -32.2002 23.9506 
26.3658 -32.2002 21.6411 34.8327 -32.2002 16.8296 34.6735 -32.2002 16.9879 
-40.5635 -23.8926 16.8296 -40.0953 -23.8926 17.2214 -31.7877 -23.8926 21.11 
[...]
POINT_DATA 518
SCALARS ImageScalars float
LOOKUP_TABLE default
0 0 0 0 0 0 0 0 0 
0 0 0 0 0 0 0 0 0 
0 0 0 0 0 0 0 0 0 
0 0 0 0 0 0 0 0 0 
0 0 0 0 0 0 0 0 0 
0 0 0 0 0 0 0 0 0 
0 0 0 0 0 0 0 0 0 
0 0 0 0 0 0 0 0 0 
0 0 0 0 0 0 0 0 0 
0 0 0 0 0 0 0 0 0 
0 0 0 0 0 0 0 0 0 
0 0 0 0 0 0 0 0 0 
0 0 0 0 0 0 0 0 0 
0 0 0 0 0 0 0 0 0 
0 0 0 0 0 0 0 0 0 
0 0 0 0 0 0 0 0 0 
0 0 0 0 0 0 0 0 0 
0 0 0 0 0 0 0 0 0 
0 0 0 0 0 0 0 0 0 
0 0 0 0 0 0 0 0 0 
0 0 0 0 0 0 0 0 0 
0 0 0 0 0 0 0 0 0 
0 0 0 0 0 0 0 0 0 
0 0 0 0 0 0 0 0 0 
0 0 0 0 0 0 0 0 0 
0 0 0 0 0 0 0 0 0 
0 0 0 0 0 0 0 0 0 
0 0 0 0 0 0 0 0 0 
0 0 0 0 0 0 0 0 0 
0 0 0 0 0 0 0 0 0 
0 0 0 0 0 0 0 0 0 
0 0 0 0 0 0 0 0 0 
0 0 0 0 0 0 0 0 0 
0 0 0 0 0 0 0 0 0 
0 0 0 0 0 0 0 0 0 
0 0 0 0 0 0 0 0 0 
0 0 0 0 0 0 0 0 0 
0 0 0 0 0 0 0 0 0 
0 0 0 0 0 0 0 0 0 
0 0 0 0 0 0 0 0 0 
0 0 0 0 0 0 0 0 0 
0 0 0 0 0 0 0 0 0 
0 0 0 0 0 0 0 0 0 
0 0 0 0 0 0 0 0 0 
0 0 0 0 0 0 0 0 0 
0 0 0 0 0 0 0 0 0 
0 0 0 0 0 0 0 0 0 
0 0 0 0 0 0 0 0 0 
0 0 0 0 0 0 0 0 0 
0 0 0 0 0 0 0 0 0 
0 0 0 0 0 0 0 0 0 
0 0 0 0 0 0 0 0 0 
0 0 0 0 0 0 0 0 0 
0 0 0 0 0 0 0 0 0 
0 0 0 0 0 0 0 0 0 
0 0 0 0 0 0 0 0 0 
0 0 0 0 0 0 0 0 0 
0 0 0 0 0 
NORMALS Normals float
0.240142 0.43412 0.868258 0.059282 0.364462 0.929329 -0.0180592 0.4597 0.88789 
-0.0773526 0.530663 0.844046 -0.184704 0.587767 0.787664 0.254302 0.247356 0.934958 
0.143721 0.107447 0.983768 0.0827006 0.0565726 0.994967 0.0702964 0.0740107 0.994777 
-0.0317335 0.100165 0.994465 -0.113412 0.162399 0.980186 -0.151102 0.23852 0.95931 
-0.239444 0.370462 0.897454 0.386418 0.311438 0.868152 0.141917 0.207777 0.967827 
0.016158 0.0891381 0.995888 0.02853 0.00291107 0.999589 0.0477257 -0.0763677 0.995937 
0.0178894 -0.0817931 0.996489 -0.0365396 -0.0521906 0.997968 -0.0680164 0.0173327 0.997534 
-0.0912049 0.171394 0.980972 -0.224808 0.29981 0.927133 0.680162 0.34404 0.647315 
0.255769 0.272761 0.927461 0.0294848 0.183721 0.982536 -0.0649365 0.176025 0.982242 
-0.0810312 0.183021 0.979764 -0.015824 0.0979754 0.995063 -0.00821145 -0.0723444 0.997346 
-0.0149167 -0.109305 0.993896 0.0744404 -0.0739757 0.994478 0.0437565 0.0448871 0.998033 
-0.115368 0.143346 0.982925 -0.377272 0.256006 0.890015 0.596007 0.160143 0.786848 
0.223297 0.0849736 0.97104 0.0544247 0.088418 0.994596 0.0243244 0.0858704 0.996009 
-0.03245 0.183766 0.982434 -0.224698 0.150164 0.962788 -0.183656 -0.0447863 0.98197 
-0.0369495 0.0559521 0.99775 0.0878489 -0.0403812 0.995315 0.131442 -0.00757199 0.991295 
-0.00578665 0.067906 0.997675 -0.240991 0.133311 0.961328 -0.649233 0.231938 0.724363 
0.533122 0.0221506 0.845749 0.191331 0.0152658 0.981407 0.0325026 -0.0101051 0.999421 
0.025131 -0.0739165 0.996948 -0.0263761 -0.0984999 0.994787 -0.252763 -0.0215843 0.967288 
-0.0777954 0.0916195 0.992751 -0.0154094 0.120295 0.992619 0.0114508 0.0544513 0.998451 
0.153369 0.020396 0.987958 0.020898 0.0159041 0.999655 -0.207221 0.0176695 0.978135 
-0.576589 0.0420778 0.81595 0.516439 -0.0801816 0.852562 0.202594 -0.0570245 0.977601 
-0.040113 -0.0484498 0.99802 -0.0579315 -0.0171668 0.998173 0.0168019 -0.0429265 0.998937 
-0.0428891 0.0014018 0.999079 -0.0597164 0.11997 0.99098 -0.0691871 0.0282639 0.997203 
-0.00809039 0.116063 0.993209 0.0940141 0.0400734 0.994764 -0.00784665 -0.0447985 0.998965 
-0.220519 -0.0939681 0.970846 -0.556007 -0.0966824 0.825536 0.565982 -0.190277 0.802159 
0.219315 -0.166644 0.961317 0.0732738 -0.0331179 0.996762 0.0301298 0.0674272 0.997269 
-0.0159809 0.0591471 0.998121 -0.072177 0.0399982 0.996589 -0.058972 0.0453895 0.997227 
-0.019524 0.053282 0.998389 0.0152307 0.0935467 0.995498 -0.00957308 -0.00531911 0.99994 
-0.110414 -0.126521 0.9858 -0.275793 -0.198144 0.940573 -0.592864 -0.293015 0.750103 
0.339886 -0.220182 0.914329 0.194488 -0.132706 0.971887 0.0302754 -0.0587531 0.997813 
-0.0112852 -0.0610809 0.998069 -0.0576845 -0.033971 0.997757 -0.0463327 -0.00491971 0.998914 
-0.0242656 -0.0171498 0.999558 -0.0681494 -0.0639909 0.995621 -0.126057 -0.150832 0.980489 
-0.225802 -0.272199 0.935372 -0.40364 -0.417381 0.814167 0.441776 -0.501754 0.743692 
0.234647 -0.41002 0.881377 0.105344 -0.300066 0.948084 0.0132246 -0.267743 0.9634 
-0.0139373 -0.25688 0.966343 -0.0442531 -0.239879 0.969794 -0.0806116 -0.300287 0.950437 
-0.119535 -0.353734 0.927676 -0.208947 -0.423628 0.881408 0.192106 -0.718984 0.66795 
0.0723026 -0.636298 0.768048 -0.0232036 -0.637468 0.770127 -0.0964289 -0.695769 0.711763 
-0.146479 -0.766307 0.625554 0.263035 0.571732 0.777132 0.0641224 0.704213 0.707087 
-0.0400791 0.994233 0.0994715 -0.078404 0.74051 0.667456 -0.107561 0.762582 0.637886 
-0.190205 0.724944 0.662026 0.38067 0.49737 0.77956 0.387068 0.448611 0.80556 
0.448294 0.547317 0.706737 -0.276109 0.651192 0.706904 -0.281493 0.629954 0.723823 
-0.287367 0.676442 0.678119 -0.304269 0.512375 0.803052 -0.36808 0.846053 0.385632 
0.44571 0.373199 0.813674 0.481111 0.382837 0.788649 0.575741 0.452696 0.680873 
-0.370496 0.496833 0.784786 -0.381269 0.495374 0.780537 -0.462103 0.587857 0.663991 
0.496625 0.350682 0.793968 0.68099 0.345324 0.645759 0.839134 0.431403 0.331278 
-0.486534 0.465178 0.739522 -0.518937 0.457061 0.722357 -0.566774 0.504294 0.651502 
0.682388 0.344221 0.644871 -0.588804 0.351314 0.727935 -0.667356 0.263765 0.696466 
-0.804443 0.429821 0.410031 0.740504 0.197081 0.642505 -0.673916 0.235578 0.700243 
0.737052 0.0487779 0.674073 -0.665829 0.0548033 0.744089 0.704572 -0.0989005 0.702707 
-0.627776 -0.093582 0.772748 0.643247 -0.200423 0.738962 0.614334 -0.296137 0.731366 
-0.595 -0.293103 0.748376 -0.593731 -0.295308 0.748516 0.603414 -0.307448 0.735776 
0.62996 -0.319483 0.70787 -0.379585 -0.520968 0.764531 -0.438421 -0.438755 0.784398 
-0.423058 -0.452874 0.78481 -0.741943 -0.548851 0.385075 0.484667 -0.526307 0.698641 
0.453579 -0.555746 0.696716 0.29465 -0.648229 0.702126 -0.17132 -0.715201 0.677596 
-0.376721 -0.530459 0.759404 -0.25803 -0.644397 0.719842 -0.390129 -0.544369 0.742605 
-0.565978 -0.711925 0.41573 0.214774 -0.727492 0.651634 0.333511 -0.827291 0.452062 
0.194324 -0.734294 0.650424 0.0918369 -0.72216 0.685603 -0.0359221 -0.740651 0.670929 
-0.108708 -0.759862 0.640931 -0.151915 -0.772714 0.616307 -0.147247 -0.77524 0.614265 
-0.174004 -0.89146 0.418356 -0.221124 -0.941972 0.252572 -0.0417002 0.995147 0.0891269 
0.476311 0.838367 0.265081 -0.0105729 0.994528 0.103939 0.17097 0.966789 0.189971 
-0.0462901 0.995108 0.0872753 -0.0454971 0.996567 0.0691716 -0.133117 0.989256 0.0604401 
-0.129586 0.989579 0.0627776 -0.142341 0.984256 0.104777 -0.215372 0.95502 0.20384 
-0.356048 0.895297 0.267716 0.680288 0.682335 0.267632 0.720571 0.636693 0.274589 
-0.418747 0.868943 0.263797 -0.551308 0.788495 0.272644 0.810126 0.519366 0.271946 
0.863416 0.441458 0.244189 -0.677199 0.694784 0.242233 -0.71761 0.657156 0.230612 
0.874811 0.423931 0.234496 -0.791722 0.5623 0.238737 -0.846668 0.483921 0.221302 
0.927594 0.32083 0.19141 -0.871452 0.439474 0.217793 0.962421 0.221201 0.157533 
-0.923165 0.298287 0.24247 0.98288 0.0934052 0.158814 -0.954888 0.123649 0.269999 
0.984246 -0.0430878 0.171472 -0.94978 -0.0831375 0.301672 0.955926 -0.176406 0.234704 
-0.890312 -0.337835 0.305307 0.87598 -0.404182 0.263242 0.73942 -0.631143 0.234341 
-0.780251 -0.545041 0.306819 -0.757803 -0.573593 0.311007 0.729084 -0.643895 0.232027 
0.732489 -0.678305 -0.0579834 0.519935 -0.831885 0.193998 -0.391577 -0.876186 0.281007 
-0.610985 -0.731256 0.303251 -0.573952 -0.763349 0.296441 0.455995 -0.871006 0.182801 
0.341577 -0.924188 0.170888 0.19467 -0.964589 0.177966 0.0429765 -0.986901 0.155499 
-0.0768323 -0.991728 0.102823 -0.149829 -0.984666 0.0893499 -0.156895 -0.986139 0.053973 
-0.138361 -0.984848 0.104547 -0.249814 -0.946731 0.203205 -0.209104 -0.960057 0.185922 
0.433705 0.876234 -0.210031 0.0955375 0.965416 -0.24258 -0.0955209 0.965936 -0.240505 
-0.136521 0.970684 -0.197823 -0.0869267 0.980716 -0.175043 -0.0630519 0.989633 -0.129037 
-0.134444 0.98866 -0.0669085 -0.341902 0.938962 -0.0381298 0.65271 0.735627 -0.181169 
0.713944 0.680244 -0.165992 -0.43712 0.898319 -0.0441396 -0.563894 0.824291 -0.0506814 
0.844141 0.518495 -0.13634 0.90087 0.414858 -0.127774 -0.717542 0.692551 -0.074212 
-0.747216 0.659808 -0.079514 0.914079 0.384527 -0.128835 0.888264 0.391321 -0.240531 
-0.821211 0.565007 -0.0798746 -0.864494 0.49752 -0.071582 0.941879 0.305157 -0.140507 
-0.886922 0.457804 -0.0615189 0.966866 0.202576 -0.155349 -0.941976 0.332503 -0.0460713 
0.985297 0.0893236 -0.145644 -0.990049 0.137832 -0.0283796 0.989514 -0.0218715 -0.142769 
-0.996715 -0.0732183 -0.0346246 0.981233 -0.13154 -0.140994 -0.942732 -0.328866 -0.0557039 
0.907547 -0.385621 -0.166296 -0.824645 -0.559182 -0.0852965 -0.775949 -0.624132 -0.0914484 
-0.745075 -0.577973 -0.332882 0.715743 -0.676028 -0.175207 0.712634 -0.679141 -0.175844 
0.711953 -0.676965 -0.186658 0.482829 -0.840299 -0.246523 -0.333431 -0.930738 -0.15017 
-0.628364 -0.768968 -0.117669 -0.561301 -0.819288 -0.117081 -0.546564 -0.751587 -0.369303 
0.401252 -0.877382 -0.263054 0.345603 -0.899467 -0.267427 0.32978 -0.859664 -0.390156 
0.193492 -0.949605 -0.246598 0.210358 -0.782238 -0.58639 0.0188572 -0.968933 -0.246603 
-0.122169 -0.959358 -0.254375 -0.184398 -0.931834 -0.312542 -0.184447 -0.835591 -0.517463 
-0.129693 -0.942192 -0.308956 -0.114359 -0.914631 -0.387778 -0.0531211 -0.965526 -0.254829 
-0.0431924 -0.947974 -0.315405 -0.175022 -0.967427 -0.182897 -0.127811 -0.973078 -0.191792 
-0.123806 -0.964919 -0.231523 0.422 0.761588 -0.491833 0.176659 0.862527 -0.474171 
0.0195359 0.924546 -0.38057 -0.0555995 0.959376 -0.276597 -0.0630604 0.972757 -0.223084 
-0.0446328 0.982296 -0.18194 -0.12713 0.972632 -0.194486 -0.344162 0.911582 -0.224881 
0.458489 0.743837 -0.486307 0.673496 0.579721 -0.458614 0.4292 0.743065 -0.51346 
0.247446 0.738018 -0.627774 0.118693 0.751023 -0.64952 -0.381107 0.895907 -0.228272 
-0.35852 0.888124 -0.287576 -0.591062 0.76398 -0.258806 0.712978 0.539973 -0.447316 
0.6624 0.543954 -0.515112 -0.687142 0.677764 -0.261672 -0.744273 0.613137 -0.264802 
0.822696 0.406219 -0.39769 0.863251 0.35029 -0.363449 -0.78006 0.564824 -0.269224 
-0.688661 0.548357 -0.474395 -0.836736 0.494066 -0.23616 0.89159 0.296288 -0.342463 
0.840096 0.309508 -0.445471 -0.8458 0.480759 -0.231286 -0.827469 0.483765 -0.285074 
0.914408 0.210464 -0.34578 0.771492 0.174838 -0.611745 -0.914497 0.328779 -0.235796 
0.925892 0.101684 -0.363847 -0.957183 0.131174 -0.258059 0.923473 -0.0426667 -0.381284 
-0.941386 -0.111878 -0.318239 0.867585 -0.212551 -0.449576 0.675757 -0.278394 -0.682531 
-0.837554 -0.39138 -0.381215 -0.724441 -0.550299 -0.415157 -0.649058 -0.418163 -0.635502 
0.73925 -0.436704 -0.51264 0.688432 -0.499231 -0.526146 0.683235 -0.449241 -0.575649 
0.354869 -0.481763 -0.801232 -0.698284 -0.576303 -0.424587 -0.524157 -0.705293 -0.477306 
-0.426873 -0.539872 -0.725477 0.466823 -0.676531 -0.569545 0.415317 -0.706113 -0.573513 
0.40838 -0.674441 -0.615106 0.296608 -0.737752 -0.60642 0.248158 -0.618853 -0.745278 
0.208719 -0.773247 -0.59877 0.103267 -0.520688 -0.847479 0.0257071 -0.484363 -0.874489 
-0.0511107 -0.480271 -0.87563 -0.174739 -0.782626 -0.597463 -0.0654848 -0.561072 -0.825173 
-0.064254 -0.825559 -0.560645 0.0124639 -0.649929 -0.759893 -0.00853426 -0.853901 -0.520365 
0.00494079 -0.661975 -0.74951 -0.108757 -0.847782 -0.519073 -0.103195 -0.657823 -0.746069 
-0.478701 -0.730719 -0.486719 -0.310565 -0.795553 -0.520235 -0.301472 -0.701187 -0.646105 
0.192453 -0.777026 -0.599326 0.0415042 -0.791187 -0.610164 0.0417705 -0.752005 -0.657832 
-0.147148 -0.797858 -0.584611 -0.125357 -0.802758 -0.58298 -0.120414 -0.782468 -0.610937 
0.0463289 0.813709 -0.579423 0.0252475 0.846361 -0.53201 -0.0267482 0.886085 -0.46275 
-0.18524 0.852831 -0.488227 0.404675 0.51608 -0.754917 0.259971 0.621494 -0.739027 
0.114979 0.75291 -0.648001 0.119808 0.747464 -0.653409 0.0500399 0.784906 -0.617591 
0.0314828 0.807646 -0.588826 -0.023106 0.831583 -0.55492 -0.21165 0.844131 -0.492592 
-0.185675 0.838669 -0.512015 -0.382877 0.74411 -0.547453 -0.566288 0.633276 -0.527522 
0.430679 0.497644 -0.752905 0.561732 0.423883 -0.710479 0.397655 0.486472 -0.777956 
0.24556 0.399389 -0.883283 0.146931 0.348206 -0.925832 0.0640907 0.284419 -0.956555 
0.0460546 0.294355 -0.954586 0.0335894 0.296408 -0.95447 -0.0982828 0.390814 -0.915208 
-0.322817 0.514858 -0.794173 -0.56919 0.630819 -0.527343 -0.564797 0.629141 -0.534029 
0.570473 0.416285 -0.708003 0.554839 0.414481 -0.72136 0.29247 0.309593 -0.904773 
0.152912 0.191247 -0.969558 0.0679654 0.0905639 -0.993569 0.0311466 0.0693454 -0.997106 
0.0701335 0.05391 -0.99608 -0.198222 0.257925 -0.945612 -0.661614 0.5384 -0.521912 
-0.408349 0.413362 -0.813869 -0.670091 0.533525 -0.516071 0.680947 0.316948 -0.660194 
0.451453 0.265506 -0.851878 0.149842 0.165635 -0.974737 0.0270818 0.0856111 -0.99596 
0.0160172 0.0460374 -0.998811 0.0197653 0.142544 -0.989591 0.0978198 0.124337 -0.987406 
-0.721971 0.46687 -0.510676 -0.536812 0.375833 -0.755369 -0.790406 0.351723 -0.501548 
0.756218 0.17196 -0.631319 0.758496 0.148141 -0.634617 0.367029 0.0875155 -0.926084 
0.115657 0.030388 -0.992824 0.0349451 0.0130695 -0.999304 0.12784 0.0493514 -0.990566 
-0.384048 0.148074 -0.911362 -0.814806 0.285461 -0.504582 -0.769081 0.272419 -0.578189 
0.741858 0.0417695 -0.669255 0.708368 0.0341543 -0.705016 0.313361 -0.000183201 -0.949634 
0.0864041 -0.0505032 -0.994979 0.0433778 -0.0624923 -0.997102 0.184143 -0.0601141 -0.981059 
-0.32152 -0.0342405 -0.946284 -0.813578 0.0419888 -0.579938 -0.694604 0.0138767 -0.719258 
0.68342 -0.118486 -0.720346 0.662831 -0.165253 -0.730306 0.662827 -0.120989 -0.738933 
0.308606 -0.125279 -0.942904 0.0507108 -0.134246 -0.98965 0.022716 -0.12919 -0.99136 
0.124243 -0.169808 -0.977614 -0.0432801 -0.251702 -0.966837 -0.0684477 -0.254767 -0.964577 
-0.280418 -0.260234 -0.923928 -0.72361 -0.207279 -0.65835 -0.643039 -0.337258 -0.687574 
-0.654135 -0.222875 -0.722796 0.563278 -0.290153 -0.773646 0.352301 -0.471652 -0.808349 
0.320161 -0.292831 -0.90097 0.0819631 -0.265525 -0.960614 0.0131693 -0.216466 -0.976201 
0.0223901 -0.239793 -0.970566 0.0695117 -0.349084 -0.93451 0.0918778 -0.384454 -0.918561 
0.0107849 -0.392261 -0.919791 -0.0600431 -0.298964 -0.952374 -0.0642906 -0.300047 -0.951755 
-0.14441 -0.350607 -0.925322 -0.549289 -0.411737 -0.727155 -0.40604 -0.507187 -0.760193 
-0.337324 -0.395622 -0.854223 0.334748 -0.474586 -0.814071 0.189698 -0.483884 -0.854325 
0.151368 -0.399893 -0.903977 0.0817266 -0.459432 -0.884445 0.04864 -0.351455 -0.934941 
0.0152712 -0.44311 -0.896337 -0.015528 -0.315881 -0.948672 -0.0419651 -0.435867 -0.899032 
-0.0217962 -0.336848 -0.941307 -0.0134073 -0.481536 -0.876324 0.0371614 -0.419159 -0.907152 
0.0353967 -0.556877 -0.829841 0.0637891 -0.453219 -0.889114 0.00390345 -0.581707 -0.813389 
-0.00566826 -0.415042 -0.909785 -0.0937462 -0.553716 -0.827412 -0.0915558 -0.412869 -0.906177 
-0.360707 -0.51614 -0.776847 -0.232714 -0.536772 -0.811 -0.196264 -0.459278 -0.86634 
0.110974 0.12124 -0.9864 -0.044848 0.263222 -0.963692 0.110929 0.119669 -0.986597 
0.11135 0.120384 -0.986463 -0.194551 0.255912 -0.946921 0.000656203 0.155557 -0.987827 
-0.196127 0.255964 -0.946582 -0.259037 0.254825 -0.931646 0.0620236 0.161286 -0.984957 
0.125925 0.121848 -0.984528 0.0773167 0.124068 -0.989257 0.14417 0.118288 -0.982458 
0.0507449 0.0670333 -0.996459 -0.059512 0.128476 -0.989925 -0.278667 0.241836 -0.929441 
-0.231226 0.219072 -0.947914 0.126136 0.087027 -0.988188 0.111815 0.175848 -0.978046 
0.0406101 0.118185 -0.992161 0.0466391 0.092823 -0.99459 0.012843 0.0195998 -0.999725 
-0.0347155 0.0242215 -0.999104 -0.315904 0.116276 -0.941639 -0.159561 0.0565534 -0.985567 
0.168635 -0.0604395 -0.983824 0.080714 -0.0653188 -0.994595 0.0197692 -0.0439368 -0.998839 
0.0472502 -0.0235982 -0.998604 -0.0176068 -0.0930096 -0.99551 -0.0432698 -0.251641 -0.966853 
-0.0235808 -0.126847 -0.991642 -0.294135 -0.0427377 -0.954808 -0.0741072 -0.235881 -0.968952 
-0.120189 -0.101961 -0.987501 0.123705 -0.2598 -0.957706 0.120362 -0.276951 -0.953316 
0.122538 -0.270551 -0.954875 0.0868232 -0.22357 -0.970813 0.0822029 -0.168889 -0.982201 
0.000308858 -0.308976 -0.95107 -0.00354051 -0.190073 -0.981764 -0.0433813 -0.251635 -0.966849 
-0.090101 -0.233107 -0.968268 -0.0948352 -0.214443 -0.972122 
