# vtk DataFile Version 4.2
vtk output
ASCII
DATASET POLYDATA
POINTS 484 float
-17.36 -29.1759 -16.5681 -10.5821 -29.1759 -16.1796 -30.9157 -22.3981 -17.0536 
-24.1379 -22.3981 -20.0899 -17.36 -22.3981 -20.8484 -10.5821 -22.3981 -20.3121 
-3.80423 -22.3981 -17.9152 -30.9157 -15.6202 -19.779 -24.1379 -15.6202 -21.9189 
-17.36 -15.6202 -22.4223 -10.5821 -15.6202 -21.6728 -3.80423 -15.6202 -20.0035 
2.97364 -15.6202 -17.6656 9.75151 -15.6202 -16.9237 16.5294 -15.6202 -16.2811 
-37.6936 -8.84233 -16.9795 -30.9157 -8.84233 -21.0516 -24.1379 -8.84233 -22.331 
-17.36 -8.84233 -22.5999 -10.5821 -8.84233 -21.9603 -3.80423 -8.84233 -20.7645 
2.97364 -8.84233 -19.6314 9.75151 -8.84233 -19.2035 16.5294 -8.84233 -18.5407 
23.3073 -8.84233 -16.7708 -37.6936 -2.06445 -17.5594 -30.9157 -2.06445 -21.0225 
-24.1379 -2.06445 -22.3085 -17.36 -2.06445 -22.3497 -10.5821 -2.06445 -21.8898 
-3.80423 -2.06445 -22.1592 2.97364 -2.06445 -21.6063 9.75151 -2.06445 -20.1099 
16.5294 -2.06445 -19.8678 23.3073 -2.06445 -19.1941 30.0851 -2.06445 -17.641 
-37.6936 4.71342 -17.58 -30.9157 4.71342 -21.4565 -24.1379 4.71342 -22.2256 
-17.36 4.71342 -22.2512 -10.5821 4.71342 -21.8189 -3.80423 4.71342 -22.5918 
2.97364 4.71342 -22.3297 9.75151 4.71342 -20.1957 16.5294 4.71342 -20.1287 
23.3073 4.71342 -20.3719 30.0851 4.71342 -19.074 -37.6936 11.4913 -16.9077 
-30.9157 11.4913 -20.814 -24.1379 11.4913 -22.5951 -17.36 11.4913 -22.2807 
-10.5821 11.4913 -21.9426 -3.80423 11.4913 -22.1608 2.97364 11.4913 -22.1534 
9.75151 11.4913 -21.0038 16.5294 11.4913 -20.7014 23.3073 11.4913 -20.2277 
30.0851 11.4913 -18.9808 -30.9157 18.2692 -19.1527 -24.1379 18.2692 -21.3831 
-17.36 18.2692 -22.1837 -10.5821 18.2692 -22.2273 -3.80423 18.2692 -22.4566 
2.97364 18.2692 -22.2134 9.75151 18.2692 -21.458 16.5294 18.2692 -20.6543 
23.3073 18.2692 -19.543 30.0851 18.2692 -16.9822 -24.1379 25.047 -18.8748 
-17.36 25.047 -20.6495 -10.5821 25.047 -21.8844 -3.80423 25.047 -21.8622 
2.97364 25.047 -21.1623 9.75151 25.047 -19.897 16.5294 25.047 -18.3718 
23.3073 25.047 -16.2911 -17.36 31.8249 -16.1918 -10.5821 31.8249 -18.6014 
-3.80423 31.8249 -19.1313 2.97364 31.8249 -17.5249 -17.36 -29.6204 -16.0972 
-10.5821 -29.2618 -16.0972 -30.9157 -23.4649 -16.0972 -19.3235 -29.1759 -16.0972 
-24.1379 -27.8502 -16.0972 -24.1379 -29.1759 -14.1806 -10.3317 -29.1759 -16.0972 
-3.80423 -25.6946 -16.0972 -3.80423 -29.1759 -13.7264 2.97364 -29.1759 -10.7231 
-31.9363 -22.3981 -16.0972 1.04453 -22.3981 -16.0972 2.97364 -20.3776 -16.0972 
2.97364 -22.3981 -15.3808 9.75151 -17.4974 -16.0972 9.75151 -22.3981 -13.7925 
16.5294 -16.0604 -16.0972 16.5294 -22.3981 -13.2744 23.3073 -22.3981 -11.2397 
-35.9197 -15.6202 -16.0972 -37.6936 -11.3632 -16.0972 -37.6936 -15.6202 -13.6404 
17.1482 -15.6202 -16.0972 23.3073 -10.6396 -16.0972 23.3073 -15.6202 -14.1674 
30.0851 -15.6202 -10.3747 -38.5488 -8.84233 -16.0972 25.164 -8.84233 -16.0972 
30.0851 -5.25257 -16.0972 30.0851 -8.84233 -13.9379 -39.1874 -2.06445 -16.0972 
33.1695 -2.06445 -16.0972 36.863 -2.06445 -13.8385 -39.2235 4.71342 -16.0972 
36.3494 4.71342 -16.0972 36.863 4.71342 -15.8004 -38.535 11.4913 -16.0972 
-37.6936 13.7067 -16.0972 35.7243 11.4913 -16.0972 36.863 11.4913 -15.213 
-35.4547 18.2692 -16.0972 -37.6936 18.2692 -13.2525 -30.9157 23.5191 -16.0972 
31.3559 18.2692 -16.0972 30.0851 19.7363 -16.0972 36.863 18.2692 -10.5077 
-29.1789 25.047 -16.0972 -30.9157 25.047 -14.2047 -24.1379 28.1348 -16.0972 
9.75151 30.5914 -16.0972 16.5294 28.1542 -16.0972 23.7208 25.047 -16.0972 
23.3073 25.2881 -16.0972 30.0851 25.047 -11.1989 -17.526 31.8249 -16.0972 
-17.36 31.9043 -16.0972 -10.5821 34.1217 -16.0972 -3.80423 34.7577 -16.0972 
6.94264 31.8249 -16.0972 2.97364 33.2169 -16.0972 9.75151 31.8249 -14.5766 
16.5294 31.8249 -11.4948 -24.1379 -31.6957 -9.31929 -17.36 -33.597 -9.31929 
-10.5821 -34.0805 -9.31929 -3.80423 -32.9592 -9.31929 2.97364 -30.511 -9.31929 
-28.7716 -29.1759 -9.31929 -30.9157 -27.7669 -9.31929 8.01467 -29.1759 -9.31929 
9.75151 -28.613 -9.31929 9.75151 -29.1759 -8.65742 16.5294 -27.5062 -9.31929 
16.5294 -29.1759 -7.31663 23.3073 -24.9716 -9.31929 23.3073 -29.1759 -5.28615 
-36.0134 -22.3981 -9.31929 -37.6936 -19.774 -9.31929 26.357 -22.3981 -9.31929 
30.0851 -17.7545 -9.31929 30.0851 -22.3981 -6.57477 -39.8713 -15.6202 -9.31929 
31.6759 -15.6202 -9.31929 36.863 -15.6202 -4.97024 -42.2945 -8.84233 -9.31929 
36.841 -8.84233 -9.31929 36.863 -8.82021 -9.31929 36.863 -8.84233 -9.30126 
-43.5211 -2.06445 -9.31929 41.422 -2.06445 -9.31929 43.6409 -2.06445 -5.48129 
-43.6667 4.71342 -9.31929 42.9959 4.71342 -9.31929 43.6409 4.71342 -7.73685 
-42.5242 11.4913 -9.31929 41.3869 11.4913 -9.31929 -39.7997 18.2692 -9.31929 
-37.6936 21.3547 -9.31929 37.639 18.2692 -9.31929 36.863 19.2522 -9.31929 
-34.1645 25.047 -9.31929 -30.9157 27.6581 -9.31929 -24.1379 31.2264 -9.31929 
23.3073 30.2228 -9.31929 31.4653 25.047 -9.31929 30.0851 26.3012 -9.31929 
-22.8238 31.8249 -9.31929 -17.36 34.1995 -9.31929 -10.5821 36.7056 -9.31929 
-3.80423 37.7027 -9.31929 2.97364 36.7532 -9.31929 9.75151 34.9224 -9.31929 
19.4876 31.8249 -9.31929 16.5294 32.9524 -9.31929 -24.1379 -32.3838 -2.54141 
-17.36 -34.5067 -2.54141 -10.5821 -35.5697 -2.54141 -3.80423 -35.551 -2.54141 
-3.80423 -35.9538 2.69967 2.97364 -34.1749 -2.54141 9.75151 -32.6988 -2.54141 
16.5294 -32.07 -2.54141 23.3073 -30.8947 -2.54141 -29.6651 -29.1759 -2.54141 
-30.9157 -28.2821 -2.54141 26.9927 -29.1759 -2.54141 30.0851 -26.8593 -2.54141 
30.0851 -29.1759 2.89471 -36.2436 -22.3981 -2.54141 -37.6936 -20.2146 -2.54141 
34.5803 -22.3981 -2.54141 36.863 -19.2033 -2.54141 36.863 -22.3981 1.87299 
-40.3077 -15.6202 -2.54141 38.8835 -15.6202 -2.54141 -43.1188 -8.84233 -2.54141 
42.2519 -8.84233 -2.54141 43.6409 -5.72989 -2.54141 43.6409 -8.84233 1.73172 
-44.1927 -2.06445 -2.54141 44.9605 -2.06445 -2.54141 -44.4634 4.71342 -2.54141 
45.4397 4.71342 -2.54141 43.6409 10.79 -2.54141 -43.3362 11.4913 -2.54141 
43.4068 11.4913 -2.54141 -40.5112 18.2692 -2.54141 -37.6936 22.2846 -2.54141 
38.8365 18.2692 -2.54141 36.863 20.6155 -2.54141 -34.9616 25.047 -2.54141 
-30.9157 27.9841 -2.54141 -24.1379 31.2528 -2.54141 23.3073 31.7869 -2.54141 
32.6289 25.047 -2.54141 30.0851 27.3406 -2.54141 -22.759 31.8249 -2.54141 
-17.36 33.9814 -2.54141 -10.5821 36.6253 -2.54141 -3.80423 38.1951 -2.54141 
2.97364 37.9634 -2.54141 9.75151 36.629 -2.54141 23.2274 31.8249 -2.54141 
16.5294 34.6541 -2.54141 -3.80423 -36.0694 4.23646 -24.1379 -31.3656 4.23646 
-17.36 -33.9354 4.23646 -5.04051 -35.9538 4.23646 -10.5821 -35.4264 4.23646 
-2.38095 -35.9538 4.23646 -3.80423 -35.9538 5.35701 2.97364 -35.5125 4.23646 
9.75151 -34.4024 4.23646 16.5294 -33.3943 4.23646 23.3073 -32.0222 4.23646 
30.0851 -29.5849 4.23646 -27.5785 -29.1759 4.23646 -30.9157 -26.4048 4.23646 
-24.1379 -29.1759 9.82322 30.7391 -29.1759 4.23646 30.0851 -29.1759 6.4623 
36.863 -23.6499 4.23646 -34.3018 -22.3981 4.23646 -37.6936 -16.8993 4.23646 
-30.9157 -22.3981 10.116 37.8406 -22.3981 4.23646 36.863 -22.3981 9.70321 
-38.3969 -15.6202 4.23646 -37.6936 -15.6202 5.37779 41.5822 -15.6202 4.23646 
43.6409 -10.6162 4.23646 -41.1797 -8.84233 4.23646 -37.6936 -8.84233 9.3755 
44.3096 -8.84233 4.23646 43.6409 -8.84233 7.2226 -42.8568 -2.06445 4.23646 
45.921 -2.06445 4.23646 -43.162 4.71342 4.23646 45.7022 4.71342 4.23646 
43.6409 10.3917 4.23646 43.6409 4.71342 9.4221 -41.9534 11.4913 4.23646 
-37.6936 11.4913 10.6973 43.16 11.4913 4.23646 -38.9339 18.2692 4.23646 
-37.6936 19.9943 4.23646 -37.6936 18.2692 6.26289 37.8812 18.2692 4.23646 
36.863 19.4367 4.23646 36.863 18.2692 6.36506 -32.7078 25.047 4.23646 
-30.9157 26.4049 4.23646 -30.9157 25.047 6.42766 -24.1379 29.8411 4.23646 
23.3073 31.4896 4.23646 31.2324 25.047 4.23646 30.0851 26.1068 4.23646 
30.0851 25.047 6.25475 -19.3685 31.8249 4.23646 -17.36 32.6198 4.23646 
-17.36 31.8249 5.82238 -10.5821 35.1428 4.23646 -10.5821 31.8249 9.87582 
-3.80423 37.0819 4.23646 2.97364 37.4438 4.23646 9.75151 36.2709 4.23646 
22.6609 31.8249 4.23646 16.5294 34.3557 4.23646 16.5294 31.8249 10.0492 
-17.36 -32.1004 11.0143 -10.5821 -34.1115 11.0143 -3.80423 -35.3514 11.0143 
2.97364 -35.3008 11.0143 9.75151 -34.2896 11.0143 16.5294 -33.066 11.0143 
23.3073 -31.3528 11.0143 -23.2484 -29.1759 11.0143 -24.1379 -28.525 11.0143 
-17.36 -29.1759 16.1533 28.3443 -29.1759 11.0143 23.3073 -29.1759 14.8614 
30.0851 -28.1656 11.0143 -30.2618 -22.3981 11.0143 -30.9157 -21.0801 11.0143 
-24.1379 -22.3981 16.4044 36.58 -22.3981 11.0143 30.0851 -22.3981 16.5781 
36.863 -22.0035 11.0143 -33.3209 -15.6202 11.0143 -30.9157 -15.6202 13.1921 
-24.1379 -15.6202 17.7333 40.3852 -15.6202 11.0143 36.863 -15.6202 15.1829 
-36.229 -8.84233 11.0143 -37.6936 -4.76631 11.0143 -30.9157 -8.84233 14.8244 
42.606 -8.84233 11.0143 36.863 -8.84233 16.4698 43.6409 -2.84027 11.0143 
-38.5011 -2.06445 11.0143 -37.6936 -2.06445 11.7666 -30.9157 -2.06445 15.849 
-24.1379 -2.06445 17.6952 36.863 -2.06445 17.3977 43.7585 -2.06445 11.0143 
43.6409 -1.02797 11.0143 43.6409 -2.06445 11.1749 -38.9446 4.71342 11.0143 
-37.6936 10.4124 11.0143 -37.6936 4.71342 12.2062 -30.9157 4.71342 16.123 
-24.1379 4.71342 17.6204 42.8798 4.71342 11.0143 36.863 4.71342 16.9623 
-37.3865 11.4913 11.0143 -30.9157 11.4913 15.1714 -24.1379 11.4913 17.0672 
-17.36 11.4913 17.6895 39.6627 11.4913 11.0143 36.863 15.087 11.0143 
36.863 11.4913 14.0742 -33.3066 18.2692 11.0143 -30.9157 20.757 11.0143 
-30.9157 18.2692 12.7079 -24.1379 18.2692 15.4631 -17.36 18.2692 16.6076 
-10.5821 18.2692 17.0952 -3.80423 18.2692 17.4534 2.97364 18.2692 17.7853 
34.0631 18.2692 11.0143 30.0851 22.1555 11.0143 30.0851 18.2692 14.6984 
-25.5755 25.047 11.0143 -24.1379 25.8663 11.0143 -24.1379 25.047 11.7688 
-17.36 28.448 11.0143 -17.36 25.047 13.8352 -10.5821 30.8053 11.0143 
-10.5821 25.047 14.7877 -3.80423 25.047 15.7363 2.97364 25.047 16.1745 
9.75151 25.047 16.3358 16.5294 31.2063 11.0143 16.5294 25.047 15.7502 
26.5865 25.047 11.0143 23.3073 27.6465 11.0143 23.3073 25.047 13.4536 
[...]
POINT_DATA 484
SCALARS ImageScalars float
LOOKUP_TABLE default
0 0 0 0 0 0 0 0 0 
0 0 0 0 0 0 0 0 0 
0 0 0 0 0 0 0 0 0 
0 0 0 0 0 0 0 0 0 
0 0 0 0 0 0 0 0 0 
0 0 0 0 0 0 0 0 0 
0 0 0 0 0 0 0 0 0 
0 0 0 0 0 0 0 0 0 
0 0 0 0 0 0 0 0 0 
0 0 0 0 0 0 0 0 0 
0 0 0 0 0 0 0 0 0 
0 0 0 0 0 0 0 0 0 
0 0 0 0 0 0 0 0 0 
0 0 0 0 0 0 0 0 0 
0 0 0 0 0 0 0 0 0 
0 0 0 0 0 0 0 0 0 
0 0 0 0 0 0 0 0 0 
0 0 0 0 0 0 0 0 0 
0 0 0 0 0 0 0 0 0 
0 0 0 0 0 0 0 0 0 
0 0 0 0 0 0 0 0 0 
0 0 0 0 0 0 0 0 0 
0 0 0 0 0 0 0 0 0 
0 0 0 0 0 0 0 0 0 
0 0 0 0 0 0 0 0 0 
0 0 0 0 0 0 0 0 0 
0 0 0 0 0 0 0 0 0 
0 0 0 0 0 0 0 0 0 
0 0 0 0 0 0 0 0 0 
0 0 0 0 0 0 0 0 0 
0 0 0 0 0 0 0 0 0 
0 0 0 0 0 0 0 0 0 
0 0 0 0 0 0 0 0 0 
0 0 0 0 0 0 0 0 0 
0 0 0 0 0 0 0 0 0 
0 0 0 0 0 0 0 0 0 
0 0 0 0 0 0 0 0 0 
0 0 0 0 0 0 0 0 0 
0 0 0 0 0 0 0 0 0 
0 0 0 0 0 0 0 0 0 
0 0 0 0 0 0 0 0 0 
0 0 0 0 0 0 0 0 0 
0 0 0 0 0 0 0 0 0 
0 0 0 0 0 0 0 0 0 
0 0 0 0 0 0 0 0 0 
0 0 0 0 0 0 0 0 0 
0 0 0 0 0 0 0 0 0 
0 0 0 0 0 0 0 0 0 
0 0 0 0 0 0 0 0 0 
0 0 0 0 0 0 0 0 0 
0 0 0 0 0 0 0 0 0 
0 0 0 0 0 0 0 0 0 
0 0 0 0 0 0 0 0 0 
0 0 0 0 0 0 0 
NORMALS Normals float
0.0684132 0.723657 0.686761 -0.152826 0.664327 0.731651 0.554138 0.515696 0.653444 
0.221462 0.406197 0.886543 0.0141804 0.353539 0.935312 -0.192246 0.336098 0.921998 
-0.324727 0.369219 0.870764 0.449911 0.239187 0.860448 0.178737 0.154622 0.971671 
-0.0187185 0.125314 0.99194 -0.170442 0.111079 0.979087 -0.28044 0.186689 0.941542 
-0.213586 0.286189 0.934065 -0.0934407 0.362076 0.927453 -0.180285 0.351169 0.918791 
0.685428 0.172884 0.707319 0.335952 0.0819995 0.938303 0.100088 0.0267211 0.99462 
-0.0252543 -0.00516463 0.999668 -0.134025 0.0155479 0.990856 -0.165395 0.153691 0.974178 
-0.111818 0.275021 0.954914 -0.0772406 0.224639 0.971376 -0.164438 0.249426 0.954331 
-0.288965 0.346243 0.892533 0.643332 0.0359221 0.764744 0.290087 0.0265591 0.956632 
0.0944842 -0.0078152 0.995496 -0.0313019 -0.0259989 0.999172 -0.0136629 -0.0102641 0.999854 
-0.019135 0.132929 0.990941 -0.151938 0.19246 0.969471 -0.122534 0.0702782 0.989973 
-0.0658896 0.11268 0.991444 -0.153858 0.244683 0.957318 -0.342832 0.321079 0.882822 
0.6381 -0.0397062 0.768929 0.279926 -0.011055 0.959958 0.0520221 0.0200731 0.998444 
-0.0300446 -0.00492373 0.999536 0.0246762 0.0038828 0.999688 0.0390298 -0.00054055 0.999238 
-0.178439 0.0386435 0.983192 -0.156312 0.0657414 0.985517 0.0126784 0.060846 0.998067 
-0.0704675 0.0734326 0.994808 -0.304519 0.0933165 0.947924 0.659838 -0.188315 0.727428 
0.35375 -0.149041 0.923389 0.095966 -0.0638211 0.993336 -0.0470527 -0.00534085 0.998878 
-0.00884803 0.0301138 0.999507 0.0155599 -0.00976454 0.999831 -0.0847068 -0.00804821 0.996373 
-0.107111 0.0923678 0.989947 -0.0563466 0.0390521 0.997647 -0.128263 -0.0560709 0.990154 
-0.310655 -0.12275 0.942563 0.438124 -0.331239 0.83566 0.203773 -0.233397 0.95079 
0.0600277 -0.109375 0.992186 0.0202828 -0.00215392 0.999792 -0.000877431 -0.0220996 0.999755 
-0.0722623 -0.0695567 0.994957 -0.112016 -0.0718902 0.991103 -0.130095 -0.142861 0.981155 
-0.22806 -0.253264 0.940131 -0.461407 -0.400728 0.79153 0.341869 -0.540887 0.768484 
0.196477 -0.366719 0.909348 0.0887353 -0.225899 0.970101 -0.050341 -0.202136 0.978063 
-0.138138 -0.284256 0.948745 -0.185916 -0.38282 0.904922 -0.242219 -0.465542 0.851235 
-0.332092 -0.563245 0.756617 0.355177 -0.764263 0.538285 0.170412 -0.652446 0.738426 
-0.0645028 -0.605438 0.793274 -0.241874 -0.656932 0.714099 0.072802 0.742406 0.665983 
-0.151657 0.668371 0.728203 0.562634 0.560635 0.607562 0.141488 0.742371 0.654879 
0.310558 0.703293 0.639479 0.334837 0.79345 0.508253 -0.158694 0.663014 0.731593 
-0.321402 0.478866 0.816938 -0.295846 0.636693 0.712107 -0.266481 0.684241 0.678824 
0.59752 0.525188 0.605927 -0.283129 0.39912 0.87209 -0.250492 0.369774 0.894718 
-0.264651 0.411856 0.871971 -0.104684 0.389206 0.915183 -0.133672 0.488044 0.862522 
-0.177933 0.359303 0.916101 -0.153512 0.504155 0.84986 -0.378204 0.477687 0.792954 
0.675941 0.332362 0.657753 0.715645 0.242461 0.65503 0.790174 0.373008 0.486303 
-0.196745 0.350203 0.915778 -0.309783 0.343659 0.886529 -0.367507 0.336398 0.867049 
-0.502959 0.389506 0.771568 0.727748 0.177976 0.66235 -0.32587 0.37788 0.866612 
-0.382888 0.389313 0.837754 -0.431011 0.442543 0.786375 0.715016 0.0415155 0.697875 
-0.442958 0.334832 0.831671 -0.567249 0.350449 0.745261 0.713864 -0.0385148 0.699224 
-0.540575 0.087348 0.836749 -0.564798 0.0833634 0.821007 0.701542 -0.193736 0.685787 
0.688649 -0.261625 0.676251 -0.578271 -0.201229 0.790639 -0.649806 -0.226611 0.725534 
0.635313 -0.391838 0.665463 0.761895 -0.441894 0.473546 0.527623 -0.575322 0.624994 
-0.50452 -0.423151 0.752598 -0.478976 -0.459007 0.748261 -0.738497 -0.54425 0.398014 
0.495731 -0.627357 0.600561 0.550919 -0.678109 0.486473 0.407361 -0.701337 0.584964 
-0.251784 -0.677298 0.691282 -0.269225 -0.628772 0.729495 -0.343273 -0.568867 0.747365 
-0.334892 -0.574343 0.746979 -0.588235 -0.690857 0.420353 0.357692 -0.767073 0.532593 
0.35581 -0.768012 0.5325 0.193288 -0.793038 0.577694 -0.0537351 -0.791174 0.609226 
-0.251221 -0.710944 0.656846 -0.24185 -0.733731 0.634939 -0.259456 -0.760215 0.595614 
-0.291792 -0.843932 0.450152 0.368357 0.892106 0.261648 0.154863 0.941473 0.299408 
-0.0349984 0.92407 0.380618 -0.223498 0.837466 0.498698 -0.260665 0.741127 0.618696 
0.51777 0.819542 0.245489 0.604205 0.760588 0.237578 -0.18634 0.731008 0.656433 
-0.159675 0.722195 0.673007 -0.160854 0.755156 0.635504 -0.164771 0.702074 0.692779 
-0.148538 0.793874 0.589661 -0.352952 0.573083 0.739595 -0.301473 0.803076 0.513988 
0.783511 0.581195 0.219824 0.835528 0.499972 0.227861 -0.447156 0.472561 0.759432 
-0.513647 0.403678 0.757107 -0.55123 0.484025 0.679606 0.887873 0.393875 0.237788 
-0.535144 0.389377 0.749671 -0.687221 0.41837 0.593881 0.92844 0.249324 0.275386 
-0.585987 0.457004 0.669154 -0.586463 0.456862 0.668834 -0.586702 0.456968 0.668552 
0.951308 0.0940613 0.293541 -0.755851 0.320329 0.571032 -0.879341 0.249362 0.405682 
0.949519 -0.0660629 0.306675 -0.868749 -0.0152254 0.495019 -0.910473 -0.0420603 0.411425 
0.922086 -0.257372 0.288994 -0.852252 -0.326652 0.408612 0.84376 -0.468638 0.261624 
0.774362 -0.581201 0.250136 -0.761866 -0.55541 0.333287 -0.747619 -0.578673 0.325888 
0.642543 -0.730733 0.230581 0.554674 -0.803941 0.214511 0.413561 -0.893894 0.172978 
-0.399855 -0.84761 0.348817 -0.634338 -0.70864 0.308942 -0.59917 -0.736419 0.314138 
0.402756 -0.900981 0.161308 0.370174 -0.919771 0.130352 0.242601 -0.957393 0.156665 
0.0047195 -0.976091 0.21731 -0.187236 -0.936172 0.29753 -0.271694 -0.891841 0.361666 
-0.337303 -0.87409 0.349563 -0.296821 -0.885798 0.356735 0.406352 0.913481 -0.0207614 
0.217377 0.975832 0.0223527 0.0748416 0.993275 0.0883411 -0.0962488 0.976327 0.193707 
-0.0166774 0.999353 0.0318681 -0.204169 0.928243 0.310936 -0.145555 0.920543 0.362512 
-0.129102 0.923866 0.360284 -0.288621 0.88544 0.364273 0.580848 0.812245 -0.0535987 
0.631661 0.772556 -0.0645133 -0.443344 0.800817 0.402665 -0.572366 0.672119 0.469737 
-0.490589 0.862157 0.12652 0.803818 0.586759 -0.097929 0.842298 0.529454 -0.101056 
-0.657868 0.552866 0.511418 -0.708794 0.497168 0.500435 -0.780253 0.581282 0.230903 
0.897819 0.4306 -0.0922198 -0.75381 0.421342 0.504223 0.958385 0.278437 -0.0630108 
-0.825111 0.378582 0.419366 -0.887007 0.300812 0.35033 -0.929682 0.333103 0.157271 
0.994927 0.0908926 -0.0431085 -0.935177 0.204914 0.288883 0.997632 -0.0590382 -0.0352843 
-0.977547 -0.109406 0.180089 -0.91286 -0.389231 0.123228 0.965341 -0.25847 -0.0361892 
-0.899678 -0.421303 0.114386 0.866462 -0.496565 -0.0516344 0.768735 -0.636643 -0.0610914 
-0.789005 -0.614151 0.0170222 -0.755299 -0.655358 0.00540883 0.647381 -0.759384 -0.0650702 
0.518384 -0.851861 -0.0749033 0.388984 -0.916709 -0.0913069 -0.4647 -0.881819 0.0803104 
-0.683049 -0.730291 -0.0109098 -0.634243 -0.773083 -0.00885274 0.3825 -0.919112 -0.0944848 
0.365456 -0.924749 -0.106215 0.296457 -0.949285 -0.104748 0.0941422 -0.994729 -0.0406356 
-0.110362 -0.99276 0.0474047 -0.247616 -0.965091 0.0853578 -0.46283 -0.882758 0.080782 
-0.32171 -0.942158 0.094024 0.00603698 0.999882 -0.0140945 0.453228 0.861129 -0.230305 
0.271364 0.948397 -0.164024 0.0321445 0.999037 -0.0298558 0.151105 0.983164 -0.102745 
-0.0202856 0.999784 0.00461943 0.0185589 0.998663 -0.048254 -0.120772 0.989717 0.0766399 
-0.161703 0.980776 0.109231 -0.162864 0.984681 0.0622859 -0.259241 0.965206 0.0342293 
-0.463735 0.884302 0.054399 0.553858 0.789915 -0.263204 0.674296 0.67109 -0.308161 
0.523744 0.745346 -0.412495 -0.488795 0.870498 0.0575559 -0.488772 0.868978 -0.0773248 
-0.785778 0.611463 0.0930849 0.766649 0.54597 -0.337884 0.816764 0.42621 -0.388898 
0.711828 0.469696 -0.522194 -0.817393 0.56959 0.0862322 -0.767662 0.575218 -0.282523 
0.826135 0.403856 -0.392939 0.807081 0.395974 -0.437979 -0.90806 0.410563 0.082863 
-0.945619 0.323418 0.034722 0.871978 0.298915 -0.387691 0.725143 0.285955 -0.626416 
-0.954291 0.298178 0.0204541 -0.94507 0.272183 -0.180994 0.929214 0.125465 -0.347591 
-0.992671 0.0970647 -0.0719886 0.938297 -0.0585681 -0.340835 -0.96745 -0.199722 -0.15541 
-0.877812 -0.43812 -0.19364 -0.871087 -0.227805 -0.4351 0.894876 -0.27537 -0.351237 
0.685194 -0.256461 -0.681716 -0.85245 -0.482857 -0.200445 0.796868 -0.495193 -0.3461 
0.758255 -0.552444 -0.346202 0.751255 -0.488764 -0.443538 -0.734553 -0.634184 -0.241337 
-0.724766 -0.644952 -0.242386 -0.714431 -0.622013 -0.320449 0.581894 -0.738988 -0.339553 
0.528925 -0.780073 -0.334252 0.531903 -0.72338 -0.440229 0.389683 -0.866214 -0.312763 
-0.497586 -0.841625 -0.209943 -0.655772 -0.707866 -0.262466 -0.642559 -0.720126 -0.261796 
-0.629298 -0.699809 -0.338011 0.350484 -0.884406 -0.308201 0.339946 -0.888465 -0.308328 
0.331053 -0.864051 -0.379237 0.304199 -0.889022 -0.342204 0.245991 -0.739096 -0.627077 
0.158993 -0.929565 -0.332611 -0.0603108 -0.960301 -0.272367 -0.217144 -0.949746 -0.225457 
-0.479063 -0.852831 -0.207794 -0.324471 -0.924161 -0.201608 -0.291603 -0.799639 -0.524924 
0.343743 0.866861 -0.3611 0.221292 0.930416 -0.292156 0.0826567 0.970181 -0.227854 
-0.0776114 0.983318 -0.164503 -0.164924 0.974936 -0.149334 -0.206944 0.957299 -0.201875 
-0.312997 0.905679 -0.285969 0.512331 0.737235 -0.440455 0.541953 0.699865 -0.46527 
0.395198 0.704627 -0.589338 -0.463838 0.819765 -0.335916 -0.360221 0.77371 -0.521166 
-0.52217 0.768103 -0.370616 0.697246 0.454019 -0.554721 0.698788 0.419602 -0.579335 
0.562122 0.335342 -0.756019 -0.737184 0.564052 -0.372029 -0.490673 0.443824 -0.74984 
-0.745243 0.55341 -0.371955 0.681302 0.302651 -0.666506 0.632155 0.2401 -0.736704 
0.499333 0.0859814 -0.862134 -0.832603 0.374814 -0.407782 -0.650953 0.28417 -0.703923 
0.654749 0.258885 -0.710129 0.675807 0.197952 -0.71 0.492929 0.15847 -0.855516 
-0.85533 0.212899 -0.472319 -0.551357 0.12825 -0.824353 -0.865653 0.0399167 -0.499051 
0.690206 0.140331 -0.709875 0.653167 0.14119 -0.743935 0.38284 0.0840961 -0.919979 
0.209575 -0.0235929 -0.977508 -0.507362 0.0322769 -0.861128 -0.863867 0.0182886 -0.503388 
-0.861172 -0.019685 -0.507933 -0.858923 0.0179352 -0.511791 0.707807 -0.0584312 -0.703985 
0.67705 -0.22377 -0.701093 0.648964 -0.0579898 -0.758606 0.3507 -0.0477256 -0.935271 
0.163313 -0.043358 -0.985621 -0.817326 -0.234203 -0.526429 -0.55361 -0.175192 -0.81414 
0.666079 -0.253361 -0.701532 0.391085 -0.205527 -0.897113 0.180441 -0.148377 -0.97233 
0.100447 -0.1356 -0.985659 -0.722052 -0.463586 -0.513546 -0.674317 -0.536803 -0.507089 
-0.631844 -0.435985 -0.640851 0.542634 -0.454729 -0.706236 0.484303 -0.525429 -0.699553 
0.457839 -0.436342 -0.77459 0.238036 -0.335929 -0.911313 0.107553 -0.256406 -0.960567 
0.0590038 -0.255119 -0.965108 0.0481843 -0.247032 -0.967808 0.0698842 -0.20775 -0.975682 
-0.627153 -0.590035 -0.508467 -0.572368 -0.63487 -0.518975 -0.507655 -0.544433 -0.667742 
0.384925 -0.628834 -0.675574 0.35417 -0.651238 -0.671157 0.34685 -0.615712 -0.707527 
0.254362 -0.678299 -0.689355 0.190616 -0.518845 -0.833346 0.221245 -0.676343 -0.702574 
0.128608 -0.430653 -0.893307 0.0920094 -0.355695 -0.930062 0.0417061 -0.339551 -0.939662 
-0.026123 -0.400919 -0.915741 -0.278743 -0.758 -0.589693 -0.165601 -0.497483 -0.85152 
-0.50905 -0.661168 -0.551112 -0.44664 -0.69275 -0.566224 -0.396488 -0.619195 -0.677786 
0.186511 -0.689152 -0.700202 0.139387 -0.686641 -0.713509 0.134267 -0.652998 -0.745363 
0.00637019 -0.703579 -0.710589 0.0149879 -0.637853 -0.770012 -0.229744 -0.76126 -0.606383 
-0.12889 -0.750124 -0.648615 -0.111441 -0.707427 -0.697945 0.264463 0.731287 -0.628711 
0.135785 0.798914 -0.585917 -0.0297967 0.838316 -0.54437 -0.182632 0.824344 -0.535819 
-0.301877 0.728341 -0.615133 0.345735 0.67039 -0.65654 0.412546 0.57464 -0.70682 
0.266845 0.648479 -0.71293 0.149795 0.588183 -0.794734 -0.0169569 0.589459 -0.807621 
-0.186048 0.653379 -0.733813 -0.322323 0.692307 -0.645615 -0.304803 0.683362 -0.663409 
-0.382411 0.530163 -0.756762 0.515592 0.298572 -0.803131 0.407589 0.254531 -0.876975 
0.225444 0.218883 -0.94935 0.116581 0.141513 -0.983048 0.0347894 0.141297 -0.989356 
-0.100762 0.202582 -0.974067 -0.272874 0.263452 -0.925275 -0.441188 0.390551 -0.807975 
-0.37986 0.314667 -0.86988 -0.423248 0.317522 -0.848552 0.496722 0.0833735 -0.863896 
0.464665 0.0632996 -0.883221 0.351821 -0.0341376 -0.935445 0.184845 -0.076679 -0.979772 
0.0909688 -0.146035 -0.985088 0.0475871 -0.137624 -0.989341 -0.0692422 -0.0865822 -0.993836 
-0.227801 -0.0339445 -0.973116 -0.308381 0.0603388 -0.949347 -0.444581 0.203902 -0.872222 
-0.36003 0.176067 -0.916176 0.361685 0.00443407 -0.93229 0.265843 -0.0164742 -0.963875 
0.355353 -0.00506984 -0.934719 0.268655 -0.149718 -0.95153 0.117582 -0.198736 -0.972974 
0.0493687 -0.257695 -0.964964 0.098132 -0.292864 -0.951105 0.00169048 -0.185404 -0.982661 
-0.150705 -0.105533 -0.98293 -0.195666 0.0206897 -0.980452 -0.436743 0.0987341 -0.894151 
-0.304044 0.0781612 -0.949446 0.207473 -0.0313122 -0.977739 0.190323 -0.115608 -0.974891 
0.0892236 -0.124039 -0.988258 -0.00485379 -0.0781962 -0.996926 0.117775 -0.170406 -0.97831 
0.113886 -0.143471 -0.98308 -0.0314264 -0.0328929 -0.998965 -0.130243 0.0277778 -0.991093 
-0.471332 0.0346044 -0.881276 -0.263528 0.0346849 -0.964028 0.162602 -0.0519143 -0.985325 
0.108008 -0.130035 -0.985609 0.165328 -0.0929015 -0.981853 0.158657 -0.131531 -0.978533 
0.00140158 -0.0623314 -0.998055 0.0323376 -0.0816679 -0.996135 0.147008 -0.130343 -0.98051 
0.0247083 -0.0684225 -0.99735 -0.134075 -0.0475672 -0.989829 -0.483308 -0.152724 -0.862026 
-0.285879 -0.0991032 -0.953127 0.102185 -0.144075 -0.984277 0.0846522 -0.228883 -0.969766 
0.117236 -0.205817 -0.971543 0.0478216 -0.245129 -0.96831 0.0446409 -0.237346 -0.970399 
0.0698076 -0.207486 -0.975744 0.050271 -0.158948 -0.986006 0.134509 -0.194459 -0.971644 
0.0496109 -0.210019 -0.976438 -0.158123 -0.233961 -0.959301 -0.429835 -0.338915 -0.836886 
-0.40536 -0.369828 -0.836009 -0.380362 -0.315079 -0.869511 0.070003 -0.208273 -0.975562 
0.0493393 -0.295925 -0.953936 0.081917 -0.255104 -0.963437 -0.0643585 -0.395248 -0.916317 
-0.01966 -0.351117 -0.936125 -0.260466 -0.440103 -0.859341 -0.240757 -0.441129 -0.864547 
-0.231633 -0.429244 -0.872981 
