# vtk DataFile Version 4.2
vtk output
ASCII
DATASET POLYDATA
POINTS 530 float
-38.2332 -32.5597 -11.7147 -30.7109 -32.5597 -13.8318 -23.1887 -32.5597 -14.4432 
-15.6664 -32.5597 -14.2553 -8.14416 -32.5597 -14.2008 -0.621899 -32.5597 -14.3482 
6.90036 -32.5597 -13.9884 14.4226 -32.5597 -12.6788 21.9449 -32.5597 -11.9984 
29.4671 -32.5597 -11.5307 36.9894 -32.5597 -11.8416 -45.7554 -25.0374 -12.8339 
-38.2332 -25.0374 -15.3228 -30.7109 -25.0374 -17.1986 -23.1887 -25.0374 -17.1144 
-15.6664 -25.0374 -16.9167 -8.14416 -25.0374 -17.1096 -0.621899 -25.0374 -17.3352 
6.90036 -25.0374 -17.1664 14.4226 -25.0374 -16.1901 21.9449 -25.0374 -15.8714 
29.4671 -25.0374 -16.5829 36.9894 -25.0374 -15.1946 44.5117 -25.0374 -13.564 
52.0339 -25.0374 -10.9987 -53.2777 -17.5152 -11.6702 -45.7554 -17.5152 -15.1165 
-38.2332 -17.5152 -16.9271 -30.7109 -17.5152 -17.5388 -23.1887 -17.5152 -17.7693 
-15.6664 -17.5152 -17.3527 -8.14416 -17.5152 -17.0296 -0.621899 -17.5152 -17.6337 
6.90036 -17.5152 -17.4386 14.4226 -17.5152 -17.071 21.9449 -17.5152 -17.0414 
29.4671 -17.5152 -16.9278 36.9894 -17.5152 -16.2641 44.5117 -17.5152 -15.0921 
52.0339 -17.5152 -12.7004 -53.2777 -9.9929 -11.6458 -45.7554 -9.9929 -14.2039 
-38.2332 -9.9929 -16.7616 -30.7109 -9.9929 -17.35 -23.1887 -9.9929 -17.4843 
-15.6664 -9.9929 -17.3433 -8.14416 -9.9929 -17.0611 -0.621899 -9.9929 -17.3493 
6.90036 -9.9929 -17.4456 14.4226 -9.9929 -17.5607 21.9449 -9.9929 -16.6763 
29.4671 -9.9929 -16.4818 36.9894 -9.9929 -15.8074 44.5117 -9.9929 -14.6291 
52.0339 -9.9929 -12.7056 -45.7554 -2.47064 -13.363 -38.2332 -2.47064 -15.2386 
-30.7109 -2.47064 -16.1815 -23.1887 -2.47064 -16.4946 -15.6664 -2.47064 -16.6884 
-8.14416 -2.47064 -16.5755 -0.621899 -2.47064 -16.4554 6.90036 -2.47064 -17.4818 
14.4226 -2.47064 -17.0336 21.9449 -2.47064 -15.0055 29.4671 -2.47064 -14.9406 
36.9894 -2.47064 -15.0168 44.5117 -2.47064 -14.327 52.0339 -2.47064 -12.2137 
-38.2332 5.05161 -13.4043 -30.7109 5.05161 -15.0557 -23.1887 5.05161 -16.095 
-15.6664 5.05161 -15.6494 -8.14416 5.05161 -13.6816 -0.621899 5.05161 -17.0063 
6.90036 5.05161 -14.6216 14.4226 5.05161 -14.9047 21.9449 5.05161 -14.4766 
29.4671 5.05161 -14.4345 36.9894 5.05161 -14.2837 44.5117 5.05161 -13.7884 
52.0339 5.05161 -11.1915 -38.2332 12.5739 -12.5594 -30.7109 12.5739 -14.7718 
-23.1887 12.5739 -16.1067 -15.6664 12.5739 -15.3975 -8.14416 12.5739 -13.7783 
-0.621899 12.5739 -14.9197 6.90036 12.5739 -13.0767 14.4226 12.5739 -14.6588 
21.9449 12.5739 -15.2409 29.4671 12.5739 -14.194 36.9894 12.5739 -13.0506 
44.5117 12.5739 -11.391 -38.2332 20.0961 -11.5609 -30.7109 20.0961 -14.9177 
-23.1887 20.0961 -16.0574 -15.6664 20.0961 -15.3823 -8.14416 20.0961 -14.4859 
-0.621899 20.0961 -13.1093 6.90036 20.0961 -11.9764 14.4226 20.0961 -13.3254 
21.9449 20.0961 -13.7875 29.4671 20.0961 -12.7179 -30.7109 27.6184 -13.6784 
-23.1887 27.6184 -15.3384 -15.6664 27.6184 -14.9078 -8.14416 27.6184 -14.2167 
-0.621899 27.6184 -12.7698 6.90036 27.6184 -11.5488 14.4226 27.6184 -11.2203 
-23.1887 35.1406 -13.1456 -15.6664 35.1406 -13.3468 -8.14416 35.1406 -12.935 
-0.621899 35.1406 -11.3556 -38.2332 -33.5972 -10.8308 -30.7109 -36.4159 -10.8308 
-23.1887 -37.4147 -10.8308 -23.1887 -40.0819 -4.02735 -15.6664 -36.8075 -10.8308 
-8.14416 -36.0699 -10.8308 -0.621899 -35.6819 -10.8308 6.90036 -35.2711 -10.8308 
14.4226 -34.2366 -10.8308 21.9449 -33.6649 -10.8308 29.4671 -33.3343 -10.8308 
36.9894 -33.4369 -10.8308 -41.8673 -32.5597 -10.8308 -45.7554 -30.2724 -10.8308 
-45.7554 -32.5597 -9.40102 39.7415 -32.5597 -10.8308 44.5117 -29.7214 -10.8308 
44.5117 -32.5597 -6.82116 52.0339 -25.3244 -10.8308 -50.2979 -25.0374 -10.8308 
-53.2777 -20.965 -10.8308 -53.2777 -25.0374 -9.19685 52.3038 -25.0374 -10.8308 
-54.3514 -17.5152 -10.8308 54.8312 -17.5152 -10.8308 59.5562 -17.5152 -7.67428 
-54.2189 -9.9929 -10.8308 -53.2777 -6.20111 -10.8308 58.4226 -9.9929 -10.8308 
59.5562 -9.9929 -10.447 -51.2844 -2.47064 -10.8308 -53.2777 -2.47064 -9.47943 
-45.7554 3.62261 -10.8308 55.7721 -2.47064 -10.8308 59.5562 -2.47064 -8.9224 
-53.2777 5.05161 -4.41893 -44.4938 5.05161 -10.8308 -45.7554 5.05161 -10.239 
53.1032 5.05161 -10.8308 52.0339 6.64943 -10.8308 59.5562 5.05161 -8.36021 
-42.2655 12.5739 -10.8308 -45.7554 12.5739 -8.67848 36.9894 19.8432 -10.8308 
46.6961 12.5739 -10.8308 44.5117 14.3174 -10.8308 52.0339 12.5739 -8.98682 
59.5562 12.5739 -3.32113 -39.4396 20.0961 -10.8308 -45.7554 20.0961 -4.56575 
-38.2332 22.9997 -10.8308 21.9449 27.1556 -10.8308 36.6845 20.0961 -10.8308 
29.4671 23.4398 -10.8308 36.9894 20.0961 -10.731 44.5117 20.0961 -7.69275 
-36.2004 27.6184 -10.8308 -38.2332 27.6184 -9.32777 -30.7109 34.3169 -10.8308 
6.90036 31.1305 -10.8308 19.3879 27.6184 -10.8308 14.4226 28.4907 -10.8308 
21.9449 27.6184 -10.6021 29.4671 27.6184 -7.56889 -29.7388 35.1406 -10.8308 
-30.7109 35.1406 -10.3315 -23.1887 40.8889 -10.8308 -15.6664 41.5139 -10.8308 
-8.14416 40.6508 -10.8308 2.16927 35.1406 -10.8308 -0.621899 36.4477 -10.8308 
6.90036 35.1406 -9.84903 14.4226 35.1406 -7.59779 21.9449 35.1406 -5.00305 
-23.1887 42.6629 -9.65224 -15.6664 42.6629 -10.283 -8.14416 42.6629 -9.97192 
-0.621899 42.6629 -7.92734 6.90036 42.6629 -5.97533 -23.1887 -40.2585 -3.30852 
-45.7554 -35.7218 -3.30852 -38.2332 -39.0855 -3.30852 -29.657 -40.0819 -3.30852 
-30.7109 -40.0528 -3.30852 -19.6106 -40.0819 -3.30852 -23.1887 -40.0819 -2.42819 
-15.6664 -39.868 -3.30852 -8.14416 -38.3384 -3.30852 -0.621899 -36.9815 -3.30852 
6.90036 -36.3556 -3.30852 14.4226 -35.8157 -3.30852 21.9449 -35.7285 -3.30852 
29.4671 -36.2428 -3.30852 36.9894 -35.3648 -3.30852 44.5117 -33.9066 -3.30852 
-50.8851 -32.5597 -3.30852 -53.2777 -30.5388 -3.30852 6.90036 -32.5597 4.11009 
14.4226 -32.5597 3.61926 48.0247 -32.5597 -3.30852 44.5117 -32.5597 1.2591 
52.0339 -30.8841 -3.30852 -57.8306 -25.0374 -3.30852 58.4821 -25.0374 -3.30852 
59.5562 -23.5951 -3.30852 -60.2815 -17.5152 -3.30852 -60.8 -17.5152 0.449202 
63.5149 -17.5152 -3.30852 -59.8291 -9.9929 -3.30852 -60.8 -9.9929 1.15363 
65.8634 -9.9929 -3.30852 -57.9459 -2.47064 -3.30852 65.3195 -2.47064 -3.30852 
-54.1177 5.05161 -3.30852 -53.2777 6.58363 -3.30852 64.3592 5.05161 -3.30852 
-49.9648 12.5739 -3.30852 52.0339 19.0974 -3.30852 59.5682 12.5739 -3.30852 
59.5562 12.59 -3.30852 -46.4992 20.0961 -3.30852 -45.7554 21.5761 -3.30852 
36.9894 27.4928 -3.30852 50.5354 20.0961 -3.30852 44.5117 23.1152 -3.30852 
52.0339 20.0961 -0.194162 -42.7287 27.6184 -3.30852 -38.2332 34.5576 -3.30852 
36.7513 27.6184 -3.30852 29.4671 31.2131 -3.30852 36.9894 27.6184 -2.76105 
-37.7277 35.1406 -3.30852 -38.2332 35.1406 3.61958 -30.7109 42.4909 -3.30852 
14.4226 40.8539 -3.30852 24.0039 35.1406 -3.30852 21.9449 36.5887 -3.30852 
-30.496 42.6629 -3.30852 -30.7109 42.6629 -0.642589 -23.1887 47.1159 -3.30852 
-15.6664 49.352 -3.30852 -8.14416 50.032 -3.30852 -0.621899 47.5793 -3.30852 
11.6064 42.6629 -3.30852 6.90036 44.9071 -3.30852 14.4226 42.6629 1.69363 
-15.6664 50.1852 2.22373 -8.14416 50.1852 -2.26444 -45.7554 -35.241 4.21374 
-38.2332 -38.3219 4.21374 -30.7109 -38.7882 4.21374 -23.1887 -38.4747 4.21374 
-15.6664 -37.8251 4.21374 -8.14416 -35.6357 4.21374 -0.621899 -33.8228 4.21374 
21.9449 -32.5842 4.21374 29.4671 -32.5779 4.21374 36.9894 -33.0848 4.21374 
-50.5326 -32.5597 4.21374 -53.2777 -30.6048 4.21374 -45.7554 -32.5597 8.66304 
-38.2332 -32.5597 10.2168 -30.7109 -32.5597 11.1146 -23.1887 -32.5597 11.1207 
-15.6664 -32.5597 9.57707 -8.14416 -32.5597 7.6434 6.5726 -32.5597 4.21374 
-0.621899 -32.5597 5.71408 6.90036 -32.4825 4.21374 21.3495 -32.5597 4.21374 
14.4226 -32.141 4.21374 21.9449 -32.5597 4.24267 29.4671 -32.5597 4.23641 
39.8447 -32.5597 4.21374 36.9894 -32.5597 4.9534 44.5117 -31.2246 4.21374 
52.0339 -26.7301 4.21374 -58.5664 -25.0374 4.21374 -60.8 -18.9422 4.21374 
-53.2777 -25.0374 11.1255 -0.621899 -25.0374 10.9538 6.90036 -25.0374 9.50449 
14.4226 -25.0374 9.03084 21.9449 -25.0374 9.80559 29.4671 -25.0374 10.3646 
36.9894 -25.0374 10.1906 44.5117 -25.0374 10.2632 54.2193 -25.0374 4.21374 
52.0339 -25.0374 5.67169 59.5562 -21.8583 4.21374 -61.2052 -17.5152 4.21374 
-60.8 -17.5152 4.96102 62.9684 -17.5152 4.21374 59.5562 -17.5152 7.62221 
-61.3194 -9.9929 4.21374 -60.8 -7.91181 4.21374 -60.8 -9.9929 5.2394 
64.5417 -9.9929 4.21374 59.5562 -9.9929 9.4506 -59.4053 -2.47064 4.21374 
66.1769 -2.47064 4.21374 -55.4857 5.05161 4.21374 -53.2777 8.65887 4.21374 
-53.2777 5.05161 9.34315 65.0583 5.05161 4.21374 59.5562 5.05161 11.5526 
-50.8428 12.5739 4.21374 61.219 12.5739 4.21374 59.5562 14.967 4.21374 
59.5562 12.5739 6.60666 -47.3252 20.0961 4.21374 -45.7554 22.8693 4.21374 
-45.7554 20.0961 7.11862 44.5117 24.9223 4.21374 44.5117 20.0961 11.459 
53.7291 20.0961 4.21374 52.0339 21.0995 4.21374 52.0339 20.0961 6.50468 
-42.901 27.6184 4.21374 -38.2332 27.6184 11.5481 29.4671 33.2829 4.21374 
39.3738 27.6184 4.21374 36.9894 28.8706 4.21374 36.9894 27.6184 6.80154 
-38.2701 35.1406 4.21374 -38.2332 35.1876 4.21374 -38.2332 35.1406 4.28757 
26.9075 35.1406 4.21374 21.9449 38.83 4.21374 21.9449 35.1406 10.3022 
-31.0232 42.6629 4.21374 -30.7109 42.9457 4.21374 -30.7109 42.6629 4.69196 
-23.1887 47.5473 4.21374 -23.1887 42.6629 10.7302 -0.621899 49.005 4.21374 
6.90036 46.4161 4.21374 6.90036 42.6629 9.4571 15.5799 42.6629 4.21374 
14.4226 43.3104 4.21374 14.4226 42.6629 5.33444 -16.4122 50.1852 4.21374 
-15.6664 50.4283 4.21374 -15.6664 50.1852 4.74115 -5.10385 50.1852 4.21374 
-8.14416 50.9099 4.21374 -8.14416 50.1852 5.73782 -45.7554 -28.5867 11.736 
-38.2332 -30.6157 11.736 -30.7109 -31.6164 11.736 -23.1887 -31.5332 11.736 
-15.6664 -28.7411 11.736 -8.14416 -25.1308 11.736 -51.8499 -25.0374 11.736 
-53.2777 -22.1915 11.736 -45.7554 -25.0374 13.6689 -38.2332 -25.0374 15.0758 
-30.7109 -25.0374 15.3494 -23.1887 -25.0374 14.6052 -15.6664 -25.0374 13.408 
-7.7609 -25.0374 11.736 -8.14416 -25.0374 11.7766 -0.621899 -22.4198 11.736 
6.90036 -19.125 11.736 14.4226 -19.1384 11.736 21.9449 -20.2699 11.736 
[...]
POINT_DATA 530
SCALARS ImageScalars float
LOOKUP_TABLE default
0 0 0 0 0 0 0 0 0 
0 0 0 0 0 0 0 0 0 
0 0 0 0 0 0 0 0 0 
0 0 0 0 0 0 0 0 0 
0 0 0 0 0 0 0 0 0 
0 0 0 0 0 0 0 0 0 
0 0 0 0 0 0 0 0 0 
0 0 0 0 0 0 0 0 0 
0 0 0 0 0 0 0 0 0 
0 0 0 0 0 0 0 0 0 
0 0 0 0 0 0 0 0 0 
0 0 0 0 0 0 0 0 0 
0 0 0 0 0 0 0 0 0 
0 0 0 0 0 0 0 0 0 
0 0 0 0 0 0 0 0 0 
0 0 0 0 0 0 0 0 0 
0 0 0 0 0 0 0 0 0 
0 0 0 0 0 0 0 0 0 
0 0 0 0 0 0 0 0 0 
0 0 0 0 0 0 0 0 0 
0 0 0 0 0 0 0 0 0 
0 0 0 0 0 0 0 0 0 
0 0 0 0 0 0 0 0 0 
0 0 0 0 0 0 0 0 0 
0 0 0 0 0 0 0 0 0 
0 0 0 0 0 0 0 0 0 
0 0 0 0 0 0 0 0 0 
0 0 0 0 0 0 0 0 0 
0 0 0 0 0 0 0 0 0 
0 0 0 0 0 0 0 0 0 
0 0 0 0 0 0 0 0 0 
0 0 0 0 0 0 0 0 0 
0 0 0 0 0 0 0 0 0 
0 0 0 0 0 0 0 0 0 
0 0 0 0 0 0 0 0 0 
0 0 0 0 0 0 0 0 0 
0 0 0 0 0 0 0 0 0 
0 0 0 0 0 0 0 0 0 
0 0 0 0 0 0 0 0 0 
0 0 0 0 0 0 0 0 0 
0 0 0 0 0 0 0 0 0 
0 0 0 0 0 0 0 0 0 
0 0 0 0 0 0 0 0 0 
0 0 0 0 0 0 0 0 0 
0 0 0 0 0 0 0 0 0 
0 0 0 0 0 0 0 0 0 
0 0 0 0 0 0 0 0 0 
0 0 0 0 0 0 0 0 0 
0 0 0 0 0 0 0 0 0 
0 0 0 0 0 0 0 0 0 
0 0 0 0 0 0 0 0 0 
0 0 0 0 0 0 0 0 0 
0 0 0 0 0 0 0 0 0 
0 0 0 0 0 0 0 0 0 
0 0 0 0 0 0 0 0 0 
0 0 0 0 0 0 0 0 0 
0 0 0 0 0 0 0 0 0 
0 0 0 0 0 0 0 0 0 
0 0 0 0 0 0 0 0 
NORMALS Normals float
0.248703 0.587062 0.770393 0.138205 0.524879 0.839882 0.027358 0.475735 0.879163 
-0.0146352 0.538509 0.842492 0.00493836 0.599124 0.800641 -0.0112909 0.655208 0.755365 
-0.10373 0.704635 0.701947 -0.118631 0.736336 0.666135 -0.0719407 0.741959 0.666575 
-0.00827189 0.703714 0.710435 -0.144163 0.756931 0.637395 0.378843 0.322613 0.867409 
0.240334 0.272634 0.931617 0.111078 0.222016 0.968695 -0.01919 0.196999 0.980216 
-0.00013026 0.181855 0.983325 0.0293225 0.162321 0.986302 0.00365901 0.176987 0.984206 
-0.0781777 0.186582 0.979324 -0.0858492 0.251567 0.964025 0.0176536 0.293584 0.95577 
-0.0566109 0.315338 0.947289 -0.167394 0.251077 0.953383 -0.307501 0.382022 0.871494 
-0.448588 0.373447 0.811977 0.565827 0.1161 0.816309 0.35437 0.0592525 0.933226 
0.14758 0.094122 0.984562 0.0539825 0.00792051 0.99851 -0.0125414 0.0221835 0.999675 
-0.0490573 0.0297162 0.998354 0.018671 -0.00306371 0.999821 0.0272265 0.000993177 0.999629 
-0.0373208 0.0179012 0.999143 -0.026343 0.0898665 0.995605 -0.00936743 0.0495919 0.998726 
-0.0511112 -0.00918998 0.998651 -0.135437 0.0486773 0.98959 -0.195095 0.0552286 0.979228 
-0.449657 0.121243 0.884934 0.581564 -0.111829 0.805778 0.325984 -0.0986292 0.940216 
0.200196 -0.103588 0.974264 0.0463463 -0.0894689 0.994911 -0.000557895 -0.0836492 0.996495 
-0.0279206 -0.0441377 0.998635 0.000428499 -0.0279801 0.999608 0.0251319 -0.0750723 0.996861 
0.0142403 0.00272312 0.999895 -0.0522266 0.00312457 0.99863 -0.0704583 -0.130087 0.988996 
-0.0591594 -0.135125 0.989061 -0.11883 -0.0811151 0.989596 -0.188632 -0.0554997 0.980478 
-0.226198 -0.0304236 0.973606 0.348688 -0.234285 0.907484 0.168625 -0.216211 0.961675 
0.0795195 -0.150765 0.985366 0.0333344 -0.0931547 0.995093 0.00590435 -0.112487 0.993636 
-0.0157457 -0.216149 0.976234 0.0583626 -0.0300032 0.997844 0.0420622 -0.181899 0.982417 
-0.16968 -0.191029 0.966807 -0.118927 -0.148717 0.981702 0.000872248 -0.129252 0.991611 
-0.044803 -0.100275 0.993951 -0.172707 -0.0514255 0.98363 -0.290776 -0.0898869 0.95256 
0.280438 -0.167413 0.94516 0.171304 -0.0916672 0.980944 0.0387368 -0.0257328 0.998918 
-0.149251 -0.0859467 0.985057 0.0594703 -0.181102 0.981665 0.0624405 -0.0806521 0.994785 
-0.120036 -0.283234 0.951509 -0.0112825 -0.135883 0.990661 -0.0311197 0.0168093 0.999374 
-0.0125537 -0.0492741 0.998706 -0.040987 -0.127351 0.991011 -0.194974 -0.185639 0.96308 
-0.305864 -0.167704 0.937189 0.356683 -0.115486 0.92706 0.23352 -0.010013 0.9723 
0.0401445 -0.00244572 0.999191 -0.153718 -0.0175433 0.987959 -0.0486805 0.053074 0.997403 
-0.0438706 -0.273595 0.960844 0.00704976 -0.181363 0.983391 0.136996 -0.0997462 0.985537 
-0.0314052 -0.0417899 0.998633 -0.139417 -0.104374 0.984718 -0.175658 -0.202526 0.963394 
-0.221342 -0.29339 0.930016 0.483587 -0.175633 0.857495 0.278269 -0.0729033 0.957732 
0.0240139 -0.0481753 0.99855 -0.102914 -0.0321062 0.994172 -0.149319 0.0291963 0.988358 
-0.167914 -0.116921 0.978843 0.00920561 -0.0971082 0.995231 0.120815 -0.218664 0.968292 
-0.0364199 -0.286217 0.957473 -0.179469 -0.348417 0.919998 0.314731 -0.246252 0.916681 
0.0818101 -0.196103 0.977165 -0.0716648 -0.128929 0.989061 -0.140097 -0.0981449 0.985261 
-0.176516 -0.110019 0.97813 -0.100248 -0.132219 0.986138 -0.0574223 -0.33401 0.940819 
0.159082 -0.332505 0.929588 -0.0123351 -0.268803 0.963116 -0.126471 -0.251939 0.959443 
-0.186217 -0.27218 0.944056 0.257539 0.631476 0.731376 0.164428 0.71956 0.674683 
0.0196606 0.779714 0.625828 -0.00876895 0.997811 0.0655485 -0.0711767 0.773979 0.629198 
-0.0644507 0.817116 0.572859 -0.0510361 0.877218 0.477372 -0.0958831 0.883927 0.457689 
-0.106177 0.842275 0.528487 -0.0573041 0.807877 0.586559 -0.0130535 0.742023 0.670247 
-0.147261 0.812431 0.564155 0.329697 0.592945 0.734654 0.402541 0.503531 0.764472 
0.430815 0.639304 0.636937 -0.228005 0.76235 0.60567 -0.346738 0.59958 0.721302 
-0.339081 0.881175 0.329476 -0.454734 0.391667 0.799884 0.469889 0.370957 0.800996 
0.558502 0.252765 0.790054 0.576771 0.430766 0.694101 -0.456946 0.379609 0.804424 
0.604133 0.112539 0.788896 -0.513386 0.176861 0.839735 -0.672427 0.380902 0.634631 
0.627189 -0.114306 0.770434 0.592658 -0.221412 0.774424 -0.516236 0.0760924 0.85306 
-0.587357 0.0921134 0.804069 0.525161 -0.308016 0.793305 0.615075 -0.320762 0.720274 
0.436632 -0.248537 0.864628 -0.360519 -0.112744 0.925913 -0.551441 -0.146418 0.821264 
0.768056 -0.440994 0.464343 0.429726 -0.229456 0.873318 0.472042 -0.251796 0.844852 
-0.320392 -0.184503 0.929144 -0.330034 -0.209789 0.920362 -0.531947 -0.316755 0.785302 
0.482398 -0.162738 0.860703 0.646437 -0.247497 0.721709 -0.248461 -0.467062 0.848599 
-0.271939 -0.315441 0.909146 -0.250778 -0.345413 0.904323 -0.441451 -0.429083 0.788041 
-0.663006 -0.58388 0.468516 0.526062 -0.209311 0.824286 0.824581 -0.414373 0.385175 
0.539694 -0.234674 0.808492 -0.162633 -0.453557 0.876263 -0.248415 -0.471458 0.846178 
-0.242708 -0.479627 0.843238 -0.253033 -0.479216 0.840432 -0.387322 -0.648553 0.655256 
0.542439 -0.299292 0.784974 0.660501 -0.342617 0.668096 0.424022 -0.448966 0.786533 
-0.156883 -0.203727 0.966376 -0.133052 -0.420569 0.897451 -0.0782441 -0.350692 0.933216 
-0.17598 -0.468606 0.865702 -0.350188 -0.682507 0.641524 0.402654 -0.455313 0.794078 
0.447816 -0.485536 0.75081 0.226405 -0.533396 0.815003 -0.00397284 -0.486258 0.873806 
-0.131751 -0.41797 0.898856 -0.195654 -0.279254 0.940073 -0.185728 -0.312786 0.931488 
-0.232279 -0.306905 0.92296 -0.260056 -0.534548 0.804132 -0.423848 -0.71348 0.557942 
0.265999 -0.631193 0.728588 0.00892261 -0.544659 0.83861 -0.13446 -0.500633 0.855153 
-0.227166 -0.590798 0.774179 -0.331976 -0.684449 0.649093 -0.0111775 0.99968 0.0226797 
0.437428 0.876861 0.199429 0.277138 0.941709 0.190732 0.0561709 0.994462 0.088826 
0.0675105 0.992701 0.099937 -0.0671551 0.997287 0.0301597 -0.0154826 0.999586 -0.024272 
-0.131497 0.990511 0.0399496 -0.180776 0.983205 -0.0250413 -0.131445 0.985919 -0.103371 
-0.0772664 0.984488 -0.157523 -0.0408837 0.991463 -0.123815 0.029354 0.996887 -0.0731761 
-0.0246724 0.99862 -0.0463592 -0.149124 0.988557 -0.0227281 -0.282796 0.958574 0.0340877 
0.621381 0.740281 0.256652 0.702325 0.646308 0.298371 -0.092527 0.776129 -0.623748 
0.0027939 0.800553 -0.599255 -0.36241 0.930223 0.0578336 -0.283947 0.902321 -0.32433 
-0.493892 0.866587 0.0713993 0.825763 0.455254 0.332956 -0.772609 0.618223 0.144483 
-0.792986 0.574631 0.202417 0.908481 0.117516 0.401063 0.985205 0.14522 0.0910063 
-0.868962 0.416437 0.267368 0.896463 -0.124681 0.425216 0.989528 -0.126955 0.0686806 
-0.94861 0.125874 0.290334 0.840907 -0.336821 0.423589 -0.934425 -0.121014 0.33497 
0.803832 -0.436059 0.404607 0.800838 -0.440489 0.405744 -0.892423 -0.314773 0.323263 
0.819098 -0.4323 0.377089 -0.493934 -0.738883 0.458345 -0.663489 -0.583945 0.467751 
-0.663104 -0.584254 0.46791 0.845265 -0.427154 0.321039 0.847176 -0.43157 0.309904 
-0.431605 -0.817287 0.381785 -0.469568 -0.766109 0.438843 -0.428275 -0.816693 0.386773 
-0.516772 -0.827092 0.221056 0.845561 -0.449351 0.28829 0.74757 -0.605384 0.273219 
-0.431224 -0.817288 0.382212 -0.470728 -0.77235 0.426486 -0.439397 -0.830248 0.342954 
0.734729 -0.619741 0.275851 0.781576 -0.605516 -0.149965 0.612327 -0.73405 0.293643 
-0.434532 -0.728079 0.530172 -0.480846 -0.751096 0.452374 -0.467735 -0.751035 0.466015 
0.607162 -0.738473 0.293278 0.63725 -0.761096 0.121019 0.376115 -0.868105 0.323932 
0.172932 -0.908185 0.381176 -0.0930884 -0.913649 0.395702 -0.298006 -0.837739 0.457587 
-0.43216 -0.75657 0.490754 -0.366175 -0.800685 0.474152 -0.470962 -0.879933 0.0625479 
0.199812 -0.979214 -0.0348517 -0.0940519 -0.944261 0.315475 0.386943 0.872682 -0.297829 
0.223093 0.905338 -0.361377 0.00619025 0.91775 -0.39711 -0.0545564 0.899457 -0.433591 
-0.16526 0.862713 -0.477928 -0.227311 0.814258 -0.534147 -0.179076 0.803219 -0.568129 
0.0184492 0.800372 -0.599219 0.032648 0.810972 -0.584173 -0.0615541 0.864484 -0.498877 
0.546152 0.786979 -0.287025 0.649265 0.708501 -0.276552 0.338194 0.747435 -0.571809 
0.111331 0.664389 -0.739049 0.0445169 0.598102 -0.800183 -0.081522 0.573373 -0.815228 
-0.174253 0.588055 -0.789828 -0.201693 0.660595 -0.723142 -0.0960928 0.772643 -0.627527 
-0.177159 0.7488 -0.638681 -0.0926315 0.769825 -0.631497 0.0172614 0.798091 -0.60229 
0.00617108 0.763509 -0.645768 0.018593 0.799283 -0.600667 0.0328499 0.810259 -0.585151 
-0.134629 0.839464 -0.526475 -0.0639038 0.832851 -0.549797 -0.278315 0.771105 -0.572658 
-0.448964 0.649567 -0.613591 0.83246 0.503865 -0.2305 0.948591 0.222216 -0.225379 
0.497714 0.41605 -0.76104 -0.137406 0.389714 -0.910627 -0.118004 0.447814 -0.886306 
0.0191555 0.479416 -0.877379 0.08087 0.468312 -0.879854 0.0224189 0.439675 -0.897877 
-0.00810357 0.416209 -0.909233 -0.198776 0.49404 -0.846411 -0.503757 0.66095 -0.556214 
-0.417367 0.612475 -0.671326 -0.658437 0.631948 -0.408781 0.961236 0.157309 -0.226448 
0.95168 0.159772 -0.262256 -0.818959 0.418136 -0.393025 -0.60139 0.351995 -0.717237 
0.977588 -0.121352 -0.172032 0.967792 -0.188765 -0.16657 0.961407 -0.113952 -0.250422 
-0.820987 0.223907 -0.52521 -0.673106 0.272965 -0.687327 0.924954 -0.346325 -0.156585 
-0.929423 0.00765806 -0.368937 0.863474 -0.493002 -0.106588 0.854684 -0.507936 -0.107316 
0.784016 -0.403427 -0.471769 -0.914524 -0.291114 -0.280888 -0.515969 -0.202972 -0.832213 
0.858654 -0.491687 -0.144763 -0.824243 -0.532201 -0.193352 -0.76996 -0.609544 -0.188725 
-0.765039 -0.532601 -0.36201 0.868221 -0.464212 -0.175211 0.857842 -0.482216 -0.177695 
0.827925 -0.440222 -0.347485 -0.451039 -0.884542 -0.118952 -0.314889 -0.617401 -0.720875 
-0.554181 -0.82565 -0.10576 -0.515734 -0.851659 -0.0932428 -0.521973 -0.801778 -0.291027 
0.840065 -0.503944 -0.200826 0.600057 -0.415678 -0.683479 -0.570655 -0.815754 -0.0943259 
-0.465645 -0.876504 -0.122128 -0.481478 -0.867873 -0.122378 -0.467674 -0.831424 -0.300027 
0.778885 -0.599119 -0.185455 0.778146 -0.600074 -0.185472 0.777849 -0.599128 -0.189727 
-0.581516 -0.807807 -0.0963725 -0.561058 -0.824393 -0.0747596 -0.416753 -0.636145 -0.649335 
0.635472 -0.743553 -0.208097 0.628868 -0.749278 -0.207625 0.626732 -0.741854 -0.238453 
0.417287 -0.878176 -0.233835 0.35287 -0.654046 -0.669109 -0.27964 -0.945285 -0.168039 
-0.364557 -0.915022 -0.172723 -0.32552 -0.723361 -0.608921 -0.458341 -0.879589 -0.127463 
-0.439467 -0.88748 -0.138734 -0.430454 -0.874932 -0.221817 0.218759 -0.959876 -0.175448 
0.198526 -0.964723 -0.172906 0.199658 -0.957411 -0.208568 -0.167067 -0.970229 -0.175343 
-0.0893568 -0.978292 -0.186975 -0.0882072 -0.952369 -0.291911 0.262714 0.556759 -0.788036 
0.0948311 0.572037 -0.814728 0.0357955 0.555859 -0.830505 -0.0857291 0.527863 -0.844992 
-0.177541 0.419664 -0.890147 -0.156822 0.311253 -0.937298 0.432243 0.412742 -0.801754 
0.524228 0.289633 -0.800811 0.251111 0.445638 -0.859273 0.0890263 0.399632 -0.912342 
-0.0316052 0.366816 -0.929757 -0.122207 0.334782 -0.934337 -0.178275 0.308853 -0.934252 
-0.155418 0.311711 -0.93738 -0.1564 0.308151 -0.938393 -0.111972 0.330488 -0.937144 
-0.0582639 0.337915 -0.939372 0.0280054 0.394779 -0.918349 0.0602807 0.327233 -0.943019 
0.00753849 0.337661 -0.941238 -0.0328456 0.299995 -0.953375 -0.08453 0.316724 -0.944744 
-0.283859 0.308143 -0.908005 0.62357 0.114738 -0.773302 0.5677 0.119616 -0.814499 
0.269274 0.155488 -0.950429 0.0817797 0.188695 -0.978625 -0.0754301 0.163611 -0.983637 
-0.140395 0.185358 -0.97259 -0.208865 0.158953 -0.96494 -0.113247 0.256701 -0.959833 
-0.070152 0.255096 -0.964368 -0.0423245 0.318252 -0.947061 0.0317677 0.377033 -0.925655 
0.05213 0.255283 -0.96546 -0.0052667 0.244103 -0.969735 -0.0665226 0.249017 -0.966212 
-0.0551094 0.254154 -0.965592 -0.292721 0.288563 -0.911617 -0.277912 0.286071 -0.917022 
0.628227 -0.0239164 -0.777663 0.570643 -0.00493084 -0.821183 0.24857 0.000596424 -0.968614 
0.0768171 0.0162802 -0.996912 -0.0267991 0.0795419 -0.996471 -0.142964 0.104516 -0.984194 
-0.0967237 0.138965 -0.985562 -0.0304261 0.258475 -0.965539 -0.0725166 0.0945119 -0.992879 
0.00226877 0.212588 -0.977139 -0.0809529 0.162127 -0.983444 -0.0677929 0.0669779 -0.995449 
0.0254128 0.0921666 -0.995419 0.0265786 0.18315 -0.982726 -0.132495 0.159353 -0.97829 
-0.316899 0.132089 -0.939216 -0.245159 0.0957126 -0.964747 -0.492068 0.110858 -0.86347 
0.620044 -0.166417 -0.766714 0.641855 -0.210607 -0.737338 0.593993 -0.157621 -0.788878 
0.307787 -0.117877 -0.944125 0.144378 -0.0314327 -0.989023 0.00908613 0.0497714 -0.998719 
-0.0890566 0.109317 -0.990009 -0.0623953 0.153016 -0.986252 -0.146816 0.0120652 -0.98909 
-0.139833 0.198828 -0.970007 0.0297857 0.111223 -0.993349 -0.11273 -0.116016 -0.986829 
0.000260887 0.0410366 -0.999158 0.111828 0.0873226 -0.989883 0.00136085 0.150483 -0.988612 
-0.122207 0.0430975 -0.991569 -0.218776 0.11307 -0.969202 -0.488193 0.0811985 -0.86895 
-0.500152 -0.107489 -0.85924 -0.471615 0.0752028 -0.878592 0.660079 -0.311935 -0.683368 
0.423137 -0.226025 -0.877421 0.239984 -0.0839122 -0.967144 0.118026 0.0182538 -0.992843 
-0.187562 0.0974082 -0.977411 -0.00493036 -0.00740353 -0.99996 0.0515588 0.124944 -0.990823 
-0.328202 -0.00716891 -0.94458 -0.115076 0.0390041 -0.992591 0.118152 0.116629 -0.986123 
0.133523 0.0658493 -0.988856 -0.0134965 0.0371198 -0.99922 -0.161764 0.0108423 -0.98677 
-0.491121 -0.195593 -0.848849 -0.255496 -0.100243 -0.961599 0.61312 -0.373533 -0.696102 
0.620879 -0.366311 -0.693055 0.596412 -0.355922 -0.719452 0.383195 -0.159171 -0.90985 
0.180458 -0.0543619 -0.982079 -0.160961 0.0233182 -0.986685 -0.117356 0.0651098 -0.990953 
-0.109507 -0.166255 -0.979983 -0.0941309 -0.101788 -0.990343 0.0109397 0.139366 -0.990181 
0.0273657 0.103916 -0.99421 0.0279346 -0.0258937 -0.999274 -0.0653058 -0.170736 -0.98315 
-0.305522 -0.588512 -0.748538 -0.234773 -0.184569 -0.954367 -0.439675 -0.25345 -0.861655 
-0.438966 -0.255175 -0.861507 -0.438037 -0.252248 -0.862841 0.658166 -0.346426 -0.668436 
0.591455 -0.408854 -0.694996 0.472909 -0.276842 -0.83649 0.245063 -0.166334 -0.955132 
0.0385786 -0.114841 -0.992635 -0.0976882 -0.0403333 -0.994399 -0.181097 0.00405115 -0.983457 
-0.149863 -0.0615936 -0.986786 0.000994071 -0.0135396 -0.999908 0.0657262 -0.00496512 -0.997825 
-0.0485826 -0.0807133 -0.995553 -0.127342 -0.188354 -0.97381 -0.303268 -0.592888 -0.745997 
-0.336293 -0.571125 -0.748814 -0.204467 -0.385271 -0.899867 0.587754 -0.410843 -0.69696 
0.3415 -0.313325 -0.886118 0.116221 -0.220551 -0.968427 -0.039524 -0.14634 -0.988444 
-0.148519 -0.0916356 -0.984655 -0.119465 -0.0576267 -0.991165 -0.0359745 -0.0666644 -0.997127 
-0.0552114 -0.190113 -0.980209 -0.317616 -0.517626 -0.79447 -0.161405 -0.316225 -0.934853 
-0.358347 -0.587479 -0.725573 -0.362886 -0.578097 -0.730833 -0.322424 -0.522179 -0.789539 
0.473278 -0.477171 -0.740483 0.446768 -0.492649 -0.74679 0.428545 -0.46171 -0.776642 
0.319264 -0.587574 -0.743523 0.225312 -0.360393 -0.90518 0.0391311 -0.298578 -0.953583 
-0.0891597 -0.227833 -0.969609 -0.132747 -0.227044 -0.964795 -0.243193 -0.490371 -0.836895 
-0.154908 -0.284148 -0.946184 -0.261005 -0.510322 -0.819419 -0.198344 -0.495235 -0.845814 
-0.183767 -0.449734 -0.874053 0.274566 -0.59129 -0.75828 0.164019 -0.6023 -0.781238 
0.128014 -0.504233 -0.854027 -0.0691308 -0.605418 -0.7929 -0.0716328 -0.465382 -0.882207 
-0.226605 -0.52522 -0.82024 -0.213886 -0.527975 -0.821885 -0.20425 -0.498624 -0.842411 
-0.0389723 0.0940911 -0.994801 -0.0376143 0.0934782 -0.994911 -0.0393492 0.0940474 -0.99479 
-0.0387969 0.0940292 -0.994813 0.039244 -0.0304192 -0.998767 -0.0435774 -0.0126834 -0.99897 
0.00616242 -0.0554418 -0.998443 -0.0112709 -0.022289 -0.999688 
