# vtk DataFile Version 4.2
vtk output
ASCII
DATASET POLYDATA
POINTS 538 float
-29.0729 -41.5557 -11.686 -21.4086 -41.5557 -13.895 -13.7443 -41.5557 -14.7752 
-6.07995 -41.5557 -14.4464 1.58435 -41.5557 -13.5464 9.24865 -41.5557 -11.9817 
-36.7372 -33.8914 -13.8354 -29.0729 -33.8914 -15.5953 -21.4086 -33.8914 -17.3187 
-13.7443 -33.8914 -16.8605 -6.07995 -33.8914 -16.4264 1.58435 -33.8914 -15.2936 
9.24865 -33.8914 -14.9135 16.913 -33.8914 -14.1812 24.5773 -33.8914 -13.0919 
-44.4015 -26.2271 -13.6749 -36.7372 -26.2271 -15.8888 -29.0729 -26.2271 -16.9288 
-21.4086 -26.2271 -17.6222 -13.7443 -26.2271 -17.3705 -6.07995 -26.2271 -16.6294 
1.58435 -26.2271 -15.5109 9.24865 -26.2271 -15.4988 16.913 -26.2271 -15.7515 
24.5773 -26.2271 -15.2338 32.2416 -26.2271 -14.2873 39.9059 -26.2271 -13.3151 
-52.0658 -18.5628 -11.8248 -44.4015 -18.5628 -15.7291 -36.7372 -18.5628 -17.8921 
-29.0729 -18.5628 -17.52 -21.4086 -18.5628 -16.9617 -13.7443 -18.5628 -16.4716 
-6.07995 -18.5628 -15.8817 1.58435 -18.5628 -14.6708 9.24865 -18.5628 -15.5587 
16.913 -18.5628 -16.0732 24.5773 -18.5628 -16.2208 32.2416 -18.5628 -16.3318 
39.9059 -18.5628 -15.4352 47.5702 -18.5628 -14.2998 55.2345 -18.5628 -11.0786 
-52.0658 -10.8985 -13.1604 -44.4015 -10.8985 -16.53 -36.7372 -10.8985 -17.6553 
-29.0729 -10.8985 -17.5875 -21.4086 -10.8985 -16.5239 -13.7443 -10.8985 -15.1639 
-6.07995 -10.8985 -16.6186 1.58435 -10.8985 -16.4084 9.24865 -10.8985 -17.0129 
16.913 -10.8985 -15.78 24.5773 -10.8985 -16.0731 32.2416 -10.8985 -16.6599 
39.9059 -10.8985 -16.7277 47.5702 -10.8985 -15.4315 55.2345 -10.8985 -11.8082 
-52.0658 -3.23422 -13.8387 -44.4015 -3.23422 -17.0621 -36.7372 -3.23422 -17.9747 
-29.0729 -3.23422 -17.6166 -21.4086 -3.23422 -16.196 -13.7443 -3.23422 -14.22 
-6.07995 -3.23422 -17.5214 1.58435 -3.23422 -14.6845 9.24865 -3.23422 -18.6006 
16.913 -3.23422 -15.287 24.5773 -3.23422 -15.9902 32.2416 -3.23422 -16.6013 
39.9059 -3.23422 -16.7261 47.5702 -3.23422 -15.4854 55.2345 -3.23422 -12.1116 
-52.0658 4.43009 -13.5241 -44.4015 4.43009 -16.6863 -36.7372 4.43009 -17.6459 
-29.0729 4.43009 -17.2668 -21.4086 4.43009 -15.6295 -13.7443 4.43009 -13.5615 
-6.07995 4.43009 -16.9567 1.58435 4.43009 -15.0911 9.24865 4.43009 -18.6795 
16.913 4.43009 -16.2122 24.5773 4.43009 -15.6502 32.2416 4.43009 -15.9247 
39.9059 4.43009 -15.7294 47.5702 4.43009 -14.688 55.2345 4.43009 -11.5564 
-52.0658 12.0944 -12.637 -44.4015 12.0944 -15.7852 -36.7372 12.0944 -16.9161 
-29.0729 12.0944 -16.774 -21.4086 12.0944 -15.4319 -13.7443 12.0944 -13.6867 
-6.07995 12.0944 -14.2222 1.58435 12.0944 -14.8244 9.24865 12.0944 -16.6215 
16.913 12.0944 -16.3411 24.5773 12.0944 -15.5366 32.2416 12.0944 -15.2445 
39.9059 12.0944 -14.7173 47.5702 12.0944 -13.1907 -52.0658 19.7587 -12.1744 
-44.4015 19.7587 -15.7689 -36.7372 19.7587 -16.0683 -29.0729 19.7587 -15.9974 
-21.4086 19.7587 -15.6808 -13.7443 19.7587 -14.7052 -6.07995 19.7587 -14.5 
1.58435 19.7587 -14.468 9.24865 19.7587 -15.4605 16.913 19.7587 -16.1062 
24.5773 19.7587 -15.5354 32.2416 19.7587 -14.9627 39.9059 19.7587 -13.5721 
-44.4015 27.423 -11.9066 -36.7372 27.423 -14.5218 -29.0729 27.423 -15.103 
-21.4086 27.423 -15.0255 -13.7443 27.423 -15.0338 -6.07995 27.423 -15.1606 
1.58435 27.423 -15.3415 9.24865 27.423 -15.6528 16.913 27.423 -15.5035 
24.5773 27.423 -15.0426 32.2416 27.423 -14.0581 -29.0729 35.0873 -13.0715 
-21.4086 35.0873 -13.9617 -13.7443 35.0873 -13.8682 -6.07995 35.0873 -14.0977 
1.58435 35.0873 -14.143 9.24865 35.0873 -14.1311 16.913 35.0873 -13.5909 
24.5773 35.0873 -12.7452 -29.0729 -42.2145 -11.0489 -21.4086 -45.119 -11.0489 
-13.7443 -46.2823 -11.0489 -6.07995 -45.98 -11.0489 1.58435 -45.0381 -11.0489 
9.24865 -42.8111 -11.0489 -30.6381 -41.5557 -11.0489 -36.7372 -38.0275 -11.0489 
-36.7372 -41.5557 -5.68089 13.1477 -41.5557 -11.0489 16.913 -39.8059 -11.0489 
16.913 -41.5557 -9.68648 24.5773 -37.5006 -11.0489 24.5773 -41.5557 -6.15735 
-42.5195 -33.8914 -11.0489 -44.4015 -31.9209 -11.0489 -44.4015 -33.8914 -9.25029 
30.8677 -33.8914 -11.0489 32.2416 -32.9285 -11.0489 32.2416 -33.8914 -10.4045 
39.9059 -30.551 -11.0489 39.9059 -33.8914 -7.34275 -48.2888 -26.2271 -11.0489 
-52.0658 -20.5288 -11.0489 -52.0658 -26.2271 -5.21843 45.0498 -26.2271 -11.0489 
47.5702 -24.347 -11.0489 47.5702 -26.2271 -9.79372 55.2345 -18.6119 -11.0489 
-52.8231 -18.5628 -11.0489 55.2704 -18.5628 -11.0489 -54.0315 -10.8985 -11.0489 
56.371 -10.8985 -11.0489 -55.0024 -3.23422 -11.0489 56.9016 -3.23422 -11.0489 
62.8988 -3.23422 -4.81457 -54.9528 4.43009 -11.0489 55.9977 4.43009 -11.0489 
55.2345 7.85783 -11.0489 62.8988 4.43009 -4.05948 -54.1281 12.0944 -11.0489 
53.5361 12.0944 -11.0489 47.5702 18.3906 -11.0489 55.2345 12.0944 -10.1711 
-53.3741 19.7587 -11.0489 -52.0658 22.2913 -11.0489 46.5419 19.7587 -11.0489 
39.9059 27.0351 -11.0489 47.5702 19.7587 -10.5737 55.2345 19.7587 -6.56242 
-46.1984 27.423 -11.0489 -52.0658 27.423 -6.82023 -44.4015 29.2958 -11.0489 
-36.7372 34.465 -11.0489 39.5956 27.423 -11.0489 32.2416 33.5657 -11.0489 
39.9059 27.423 -10.8903 47.5702 27.423 -8.53936 -44.4015 35.0873 -6.91391 
-35.4634 35.0873 -11.0489 -36.7372 35.0873 -10.6029 -29.0729 38.5873 -11.0489 
-21.4086 40.1258 -11.0489 -13.7443 40.677 -11.0489 -6.07995 41.4652 -11.0489 
1.58435 41.5597 -11.0489 9.24865 40.829 -11.0489 16.913 39.4565 -11.0489 
29.6373 35.0873 -11.0489 24.5773 38.232 -11.0489 32.2416 35.0873 -9.96046 
39.9059 35.0873 -7.55526 -29.0729 42.7516 -7.32542 -21.4086 42.7516 -8.78773 
-13.7443 42.7516 -9.68421 -6.07995 42.7516 -10.2625 1.58435 42.7516 -10.3274 
9.24865 42.7516 -9.75031 16.913 42.7516 -8.65528 24.5773 42.7516 -6.93129 
-36.7372 -42.4014 -3.3846 -29.0729 -46.0239 -3.3846 -21.4086 -48.2798 -3.3846 
-13.7443 -49.1088 -3.3846 -6.07995 -49.1222 -3.3846 1.58435 -48.8617 -3.3846 
9.24865 -47.5108 -3.3846 16.913 -45.6102 -3.3846 24.5773 -42.9547 -3.3846 
-38.0889 -41.5557 -3.3846 -44.4015 -36.8332 -3.3846 -36.7372 -41.5557 0.668959 
28.1046 -41.5557 -3.3846 32.2416 -39.7244 -3.3846 39.9059 -35.51 -3.3846 
-47.4003 -33.8914 -3.3846 -52.0658 -27.3633 -3.3846 42.9606 -33.8914 -3.3846 
47.5702 -31.3447 -3.3846 -52.7583 -26.2271 -3.3846 -52.0658 -26.2271 -0.0791406 
54.0106 -26.2271 -3.3846 55.2345 -24.9845 -3.3846 -55.8598 -18.5628 -3.3846 
60.1923 -18.5628 -3.3846 -57.7585 -10.8985 -3.3846 62.8281 -10.8985 -3.3846 
62.8988 -10.3117 -3.3846 -59.1719 -3.23422 -3.3846 63.6815 -3.23422 -3.3846 
62.8988 -3.23422 2.96646 -59.6887 4.43009 -3.3846 63.2981 4.43009 -3.3846 
62.8988 5.83327 -3.3846 62.8988 4.43009 0.492223 -59.6529 12.0944 -3.3846 
60.6791 12.0944 -3.3846 -57.9121 19.7587 -3.3846 57.9039 19.7587 -3.3846 
55.2345 23.7832 -3.3846 -54.3938 27.423 -3.3846 -52.0658 30.4474 -3.3846 
52.5382 27.423 -3.3846 47.5702 32.5329 -3.3846 -47.4166 35.0873 -3.3846 
-44.4015 37.3229 -3.3846 -36.7372 41.4717 -3.3846 32.2416 41.7204 -3.3846 
44.337 35.0873 -3.3846 39.9059 38.0781 -3.3846 -34.1366 42.7516 -3.3846 
-29.0729 44.8043 -3.3846 -21.4086 46.7948 -3.3846 -13.7443 47.7488 -3.3846 
-6.07995 48.3183 -3.3846 1.58435 48.5684 -3.3846 9.24865 47.758 -3.3846 
16.913 46.7673 -3.3846 30.0892 42.7516 -3.3846 24.5773 44.9568 -3.3846 
-29.0729 -43.9491 4.2797 -21.4086 -46.2839 4.2797 -13.7443 -47.5359 4.2797 
-6.07995 -48.0821 4.2797 1.58435 -47.7203 4.2797 9.24865 -46.795 4.2797 
16.913 -45.0717 4.2797 24.5773 -42.7335 4.2797 -44.4015 -35.0041 4.2797 
-34.8156 -41.5557 4.2797 -36.7372 -40.5703 4.2797 -29.0729 -41.5557 7.98296 
-21.4086 -41.5557 10.0252 -13.7443 -41.5557 11.9339 16.913 -41.5557 9.63532 
27.3673 -41.5557 4.2797 24.5773 -41.5557 6.08656 32.2416 -39.1735 4.2797 
39.9059 -35.2987 4.2797 -45.5222 -33.8914 4.2797 -44.4015 -33.8914 5.57621 
-36.7372 -33.8914 10.4535 32.2416 -33.8914 10.3212 42.2741 -33.8914 4.2797 
39.9059 -33.8914 6.62109 47.5702 -30.4141 4.2797 -50.8863 -26.2271 4.2797 
-52.0658 -24.2264 4.2797 -44.4015 -26.2271 10.0546 52.3839 -26.2271 4.2797 
47.5702 -26.2271 9.18724 55.2345 -23.123 4.2797 -54.4361 -18.5628 4.2797 
-52.0658 -18.5628 7.66846 47.5702 -18.5628 11.631 58.604 -18.5628 4.2797 
55.2345 -18.5628 8.33321 -56.4484 -10.8985 4.2797 -52.0658 -10.8985 9.64549 
60.8928 -10.8985 4.2797 55.2345 -10.8985 10.3548 -57.78 -3.23422 4.2797 
-52.0658 -3.23422 11.1628 62.6763 -3.23422 4.2797 -59.1775 4.43009 4.2797 
62.3966 4.43009 4.2797 -58.7657 12.0944 4.2797 60.7253 12.0944 4.2797 
55.2345 12.0944 11.3888 -57.2985 19.7587 4.2797 58.7181 19.7587 4.2797 
55.2345 25.2973 4.2797 55.2345 19.7587 9.2524 -53.9697 27.423 4.2797 
-52.0658 29.8863 4.2797 -52.0658 27.423 6.84615 -44.4015 27.423 11.6622 
53.6302 27.423 4.2797 47.5702 33.5069 4.2797 -46.7446 35.0873 4.2797 
-44.4015 36.7961 4.2797 -44.4015 35.0873 6.6289 -36.7372 40.8596 4.2797 
-36.7372 35.0873 10.0504 32.2416 42.0309 4.2797 32.2416 35.0873 11.4726 
45.4079 35.0873 4.2797 39.9059 38.5843 4.2797 39.9059 35.0873 10.1781 
-33.2961 42.7516 4.2797 -29.0729 44.5442 4.2797 -29.0729 42.7516 7.17547 
-21.4086 46.4071 4.2797 -21.4086 42.7516 9.07324 -13.7443 48.2096 4.2797 
-13.7443 42.7516 11.7789 -6.07995 49.3248 4.2797 1.58435 49.3852 4.2797 
9.24865 48.6226 4.2797 16.913 47.0628 4.2797 16.913 42.7516 10.5957 
30.7429 42.7516 4.2797 24.5773 45.3136 4.2797 24.5773 42.7516 7.78656 
-6.07995 -42.642 11.944 1.58435 -42.4259 11.944 9.24865 -41.5766 11.944 
-29.0729 -37.1174 11.944 -21.4086 -39.0423 11.944 -13.6772 -41.5557 11.944 
-13.7443 -41.5417 11.944 -6.07995 -41.5557 12.8372 1.58435 -41.5557 12.7008 
9.33237 -41.5557 11.944 9.24865 -41.5557 11.9619 16.913 -38.9663 11.944 
24.5773 -36.3369 11.944 -33.5701 -33.8914 11.944 -36.7372 -31.5848 11.944 
-29.0729 -33.8914 13.5946 -21.4086 -33.8914 14.9363 -13.7443 -33.8914 15.6583 
-6.07995 -33.8914 15.994 1.58435 -33.8914 16.1994 9.24865 -33.8914 15.905 
16.913 -33.8914 14.9834 29.126 -33.8914 11.944 24.5773 -33.8914 13.6397 
32.2416 -31.274 11.944 39.9059 -26.41 11.944 -41.6758 -26.2271 11.944 
-44.4015 -22.1195 11.944 -36.7372 -26.2271 14.5689 -29.0729 -26.2271 16.4488 
[...]
POINT_DATA 538
SCALARS ImageScalars float
LOOKUP_TABLE default
0 0 0 0 0 0 0 0 0 
0 0 0 0 0 0 0 0 0 
0 0 0 0 0 0 0 0 0 
0 0 0 0 0 0 0 0 0 
0 0 0 0 0 0 0 0 0 
0 0 0 0 0 0 0 0 0 
0 0 0 0 0 0 0 0 0 
0 0 0 0 0 0 0 0 0 
0 0 0 0 0 0 0 0 0 
0 0 0 0 0 0 0 0 0 
0 0 0 0 0 0 0 0 0 
0 0 0 0 0 0 0 0 0 
0 0 0 0 0 0 0 0 0 
0 0 0 0 0 0 0 0 0 
0 0 0 0 0 0 0 0 0 
0 0 0 0 0 0 0 0 0 
0 0 0 0 0 0 0 0 0 
0 0 0 0 0 0 0 0 0 
0 0 0 0 0 0 0 0 0 
0 0 0 0 0 0 0 0 0 
0 0 0 0 0 0 0 0 0 
0 0 0 0 0 0 0 0 0 
0 0 0 0 0 0 0 0 0 
0 0 0 0 0 0 0 0 0 
0 0 0 0 0 0 0 0 0 
0 0 0 0 0 0 0 0 0 
0 0 0 0 0 0 0 0 0 
0 0 0 0 0 0 0 0 0 
0 0 0 0 0 0 0 0 0 
0 0 0 0 0 0 0 0 0 
0 0 0 0 0 0 0 0 0 
0 0 0 0 0 0 0 0 0 
0 0 0 0 0 0 0 0 0 
0 0 0 0 0 0 0 0 0 
0 0 0 0 0 0 0 0 0 
0 0 0 0 0 0 0 0 0 
0 0 0 0 0 0 0 0 0 
0 0 0 0 0 0 0 0 0 
0 0 0 0 0 0 0 0 0 
0 0 0 0 0 0 0 0 0 
0 0 0 0 0 0 0 0 0 
0 0 0 0 0 0 0 0 0 
0 0 0 0 0 0 0 0 0 
0 0 0 0 0 0 0 0 0 
0 0 0 0 0 0 0 0 0 
0 0 0 0 0 0 0 0 0 
0 0 0 0 0 0 0 0 0 
0 0 0 0 0 0 0 0 0 
0 0 0 0 0 0 0 0 0 
0 0 0 0 0 0 0 0 0 
0 0 0 0 0 0 0 0 0 
0 0 0 0 0 0 0 0 0 
0 0 0 0 0 0 0 0 0 
0 0 0 0 0 0 0 0 0 
0 0 0 0 0 0 0 0 0 
0 0 0 0 0 0 0 0 0 
0 0 0 0 0 0 0 0 0 
0 0 0 0 0 0 0 0 0 
0 0 0 0 0 0 0 0 0 
0 0 0 0 0 0 0 
NORMALS Normals float
0.307025 0.641425 0.703071 0.164389 0.558157 0.813288 0.033361 0.471701 0.881127 
-0.0838556 0.465327 0.881158 -0.157329 0.444685 0.881761 -0.20216 0.540423 0.816746 
0.325816 0.408013 0.85286 0.199534 0.28599 0.937228 0.0702934 0.20886 0.975416 
-0.0563416 0.160767 0.985383 -0.100565 0.132566 0.986059 -0.0986063 0.126372 0.98707 
-0.0659691 0.211086 0.975239 -0.123769 0.314629 0.941111 -0.196222 0.407274 0.891978 
0.424791 0.349358 0.835165 0.187209 0.227957 0.955504 0.102333 0.112285 0.988393 
0.0333677 -0.0244292 0.999145 -0.0643114 -0.0258938 0.997594 -0.119306 -0.0353424 0.992228 
-0.0740345 -0.0412906 0.996401 0.0154 0.0432904 0.998944 -0.0186121 0.113805 0.993329 
-0.0889234 0.195701 0.976624 -0.113201 0.333704 0.935856 -0.250323 0.387567 0.887204 
0.707732 0.238902 0.664862 0.340093 0.145274 0.929103 0.118145 0.102773 0.987664 
-0.0588383 0.0465247 0.997183 -0.0679599 -0.0685975 0.995327 -0.0709806 -0.145379 0.986827 
-0.120312 -0.00576257 0.992719 -0.0231762 0.0327765 0.999194 0.092943 0.0911456 0.991491 
0.0416095 0.0014904 0.999133 0.0173283 0.05719 0.998213 -0.0475196 0.1411 0.988854 
-0.121428 0.18809 0.974617 -0.293174 0.334619 0.895589 -0.563968 0.328171 0.757789 
0.630903 0.114404 0.767381 0.241385 0.0899227 0.966254 0.063222 0.00646307 0.997979 
-0.0682991 0.00628508 0.997645 -0.162164 -0.0510487 0.985442 0.00331217 -0.144866 0.989446 
0.0923214 0.100722 0.990622 0.0274194 0.0414467 0.998764 -0.0544353 0.198302 0.978628 
-0.0535193 -0.0507097 0.997278 0.0571997 -0.0149345 0.998251 0.0426153 0.0186652 0.998917 
-0.0888676 0.0820297 0.99266 -0.267161 0.0590815 0.961839 -0.537412 0.0624523 0.841004 
0.577042 0.016882 0.81654 0.225212 0.00946412 0.974264 0.0315197 -0.000682112 0.999503 
-0.114328 -0.0207375 0.993227 -0.211767 -0.0541747 0.975817 0.0359046 -0.10898 0.993395 
0.0900228 0.0327145 0.995402 0.120883 -0.0871581 0.988833 -0.0379353 0.104146 0.993838 
-0.154889 0.0279623 0.987536 0.0846866 -0.0274876 0.996028 0.048191 -0.0481945 0.997675 
-0.0805141 -0.0649911 0.994632 -0.258466 -0.0452703 0.964959 -0.500045 -0.0151611 0.865867 
0.558065 -0.0659473 0.827173 0.228013 -0.0809264 0.970289 0.0339015 -0.0687491 0.997058 
-0.125639 -0.0545474 0.990575 -0.240485 -0.0493933 0.969395 0.0259536 -0.0340024 0.999085 
0.15042 -0.221431 0.963505 0.156014 0.00324212 0.98775 0.0308226 -0.122488 0.991991 
-0.190533 0.071765 0.979054 -0.017808 -0.0295565 0.999404 0.00539639 -0.0881088 0.996096 
-0.0815277 -0.132212 0.987863 -0.243895 -0.1434 0.959141 -0.490695 -0.1017 0.865376 
0.540853 -0.0801915 0.837285 0.242793 -0.0569231 0.968407 0.0603217 -0.0992937 0.993228 
-0.0968667 -0.0831727 0.991816 -0.19831 0.00389924 0.980132 -0.0840812 0.0754909 0.993595 
0.0797448 -0.120074 0.989557 0.150453 -0.0399287 0.987811 0.0939932 -0.20555 0.974122 
-0.0698852 -0.00718826 0.997529 -0.0710432 -0.0074864 0.997445 -0.0520664 -0.0609557 0.996782 
-0.120338 -0.141137 0.982649 -0.281707 -0.253648 0.925367 0.565848 -0.232301 0.791108 
0.255947 -0.208188 0.944007 0.011333 -0.166997 0.985892 -0.0249788 -0.106091 0.994043 
-0.0840521 -0.0264858 0.996109 -0.0756401 0.0869833 0.993334 -0.0158871 0.059763 0.998086 
0.0609506 0.0339507 0.997563 0.107586 -0.0566352 0.992581 0.0039935 -0.0538255 0.998542 
-0.073131 -0.0302858 0.996862 -0.137234 -0.0870981 0.986702 -0.247892 -0.208604 0.946062 
0.392115 -0.407569 0.824702 0.169638 -0.290663 0.941668 0.0359429 -0.169408 0.98489 
-0.00423786 -0.114337 0.993433 0.00874632 -0.0498312 0.998719 0.0198689 -0.0238984 0.999517 
0.0314328 -0.0147372 0.999397 0.0102802 -0.0768092 0.996993 -0.0379688 -0.15321 0.987464 
-0.103137 -0.178214 0.978572 -0.218507 -0.251697 0.942817 0.196962 -0.393675 0.897901 
0.0406464 -0.320951 0.946223 0.00760914 -0.28284 0.959137 0.0169621 -0.263597 0.964484 
0.00208848 -0.270848 0.96262 -0.0331644 -0.31108 0.949805 -0.0866775 -0.36828 0.925666 
-0.190654 -0.388719 0.901415 0.318512 0.676102 0.664406 0.200656 0.740852 0.640996 
0.0434715 0.778387 0.626278 -0.0637127 0.745544 0.663404 -0.155318 0.675424 0.720887 
-0.219571 0.605089 0.765282 0.342286 0.666777 0.662003 0.408719 0.598173 0.689302 
0.499731 0.837584 0.220729 -0.220465 0.602311 0.767213 -0.203434 0.583718 0.786058 
-0.244215 0.709466 0.661072 -0.250509 0.572755 0.78051 -0.342066 0.854414 0.391111 
0.506859 0.525869 0.683049 0.529164 0.508416 0.679336 0.605619 0.598949 0.523914 
-0.232247 0.551456 0.801223 -0.227338 0.552488 0.801919 -0.256539 0.604682 0.754021 
-0.318942 0.569258 0.757774 -0.413176 0.795292 0.443616 0.578723 0.428038 0.694163 
0.720231 0.287579 0.63132 0.854196 0.478941 0.202396 -0.36551 0.497775 0.786525 
-0.374144 0.500345 0.780815 -0.435454 0.582786 0.686106 -0.56485 0.330608 0.756071 
0.751393 0.233449 0.617179 -0.565438 0.329119 0.756281 0.737908 0.122822 0.663632 
-0.584948 0.0765502 0.807451 0.724434 0.0506525 0.687481 -0.571185 -0.0154081 0.820677 
-0.953785 0.0211403 0.299745 0.694007 -0.0384761 0.718939 -0.523457 -0.107649 0.845225 
-0.516073 -0.161366 0.841207 -0.941875 -0.176154 0.286081 0.629319 -0.0824649 0.77276 
-0.479069 -0.247514 0.842158 -0.370665 -0.252434 0.893803 -0.567424 -0.254295 0.783175 
0.63042 -0.239211 0.738477 0.575785 -0.316803 0.753729 -0.372304 -0.247305 0.894556 
-0.345348 -0.319811 0.882301 -0.400601 -0.25758 0.879302 -0.687296 -0.457185 0.564452 
0.435747 -0.424647 0.793599 0.674888 -0.560582 0.479868 0.405888 -0.443057 0.799347 
0.252146 -0.538065 0.804306 -0.345526 -0.322986 0.881074 -0.255973 -0.492365 0.831898 
-0.351987 -0.328547 0.876449 -0.500761 -0.455966 0.735753 0.513499 -0.703976 0.49065 
0.253546 -0.533215 0.807091 0.268406 -0.573447 0.774026 0.218705 -0.539904 0.812817 
0.0649262 -0.56354 0.823533 0.0479182 -0.535839 0.842959 0.0289758 -0.546403 0.837021 
-0.0214141 -0.549426 0.835268 -0.0731323 -0.557553 0.826914 -0.0878231 -0.542123 0.835697 
-0.239702 -0.493932 0.835808 -0.202101 -0.514905 0.833083 -0.278076 -0.576445 0.768365 
-0.439474 -0.638469 0.631838 0.266671 -0.816391 0.512243 0.0976138 -0.745442 0.659384 
0.0759032 -0.670285 0.738212 0.0327949 -0.623235 0.781347 -0.0255029 -0.618318 0.785514 
-0.0867015 -0.671897 0.735552 -0.124263 -0.731629 0.670282 -0.265556 -0.806948 0.527556 
0.495703 0.865869 0.0674485 0.349421 0.935257 0.0565643 0.200465 0.978958 0.0381399 
0.0529754 0.997474 0.0473121 -0.0150937 0.996348 0.084036 -0.105633 0.98798 0.112855 
-0.204164 0.963936 0.170718 -0.285267 0.934591 0.212513 -0.36048 0.907753 0.214566 
0.524309 0.848508 0.071651 0.674774 0.732478 0.0903121 0.492109 0.852924 -0.174211 
-0.390274 0.895027 0.215899 -0.428323 0.872709 0.234348 -0.463081 0.869351 0.172583 
0.741941 0.664359 0.0902809 0.86715 0.492392 0.0748327 -0.486029 0.856839 0.172055 
-0.536733 0.817664 0.208191 0.881869 0.465964 0.072007 0.863416 0.486183 -0.134681 
-0.691072 0.703052 0.167744 -0.727334 0.66849 0.155262 0.949207 0.303254 0.0839182 
-0.867745 0.470822 0.159202 0.971922 0.206187 0.11338 -0.966016 0.208621 0.152612 
-0.968194 0.194851 0.156951 0.985225 0.127818 0.113994 -0.978527 0.0294791 0.203999 
-0.939213 0.0670644 -0.336723 0.982962 0.0318413 0.181028 -0.955326 -0.170122 0.241682 
-0.944979 -0.198823 0.259777 -0.985201 -0.148819 -0.085044 0.978198 -0.113846 0.17369 
-0.885567 -0.329653 0.327262 0.930999 -0.289334 0.222544 -0.803869 -0.437104 0.403404 
-0.75105 -0.520183 0.406612 0.795439 -0.553929 0.245844 0.733479 -0.633767 0.245658 
-0.711 -0.580082 0.397473 -0.618444 -0.685006 0.385088 0.62103 -0.746968 0.237402 
0.555372 -0.798045 0.233852 0.433887 -0.872177 0.225941 -0.409551 -0.861523 0.300078 
-0.564606 -0.743787 0.357772 -0.475634 -0.81272 0.33654 0.395489 -0.89209 0.218549 
0.316245 -0.92107 0.227201 0.197006 -0.939458 0.28037 0.0996406 -0.938509 0.330564 
0.0515285 -0.929525 0.365141 -0.0362031 -0.928469 0.369641 -0.115312 -0.926696 0.357685 
-0.173532 -0.929495 0.325462 -0.38431 -0.877159 0.287921 -0.309483 -0.901635 0.302117 
0.317542 0.857756 -0.404255 0.206411 0.874756 -0.438402 0.102638 0.915316 -0.389438 
0.0103874 0.943686 -0.33068 -0.0779693 0.938246 -0.337067 -0.15876 0.940952 -0.299005 
-0.249634 0.920569 -0.300393 -0.340066 0.890093 -0.303464 0.638825 0.646714 -0.416729 
0.421641 0.81044 -0.4067 0.461 0.782041 -0.419393 0.290068 0.753449 -0.590063 
0.167731 0.690396 -0.703718 0.138771 0.607958 -0.781748 -0.245605 0.738959 -0.627389 
-0.372732 0.878315 -0.299388 -0.328439 0.85357 -0.404408 -0.430267 0.847217 -0.311599 
-0.475084 0.833743 -0.281369 0.6633 0.621925 -0.416225 0.626115 0.609567 -0.486218 
0.393543 0.537836 -0.745558 -0.344638 0.607899 -0.71532 -0.503172 0.811338 -0.297572 
-0.461253 0.769987 -0.440871 -0.571545 0.735267 -0.364307 0.765363 0.472929 -0.436529 
0.801882 0.429252 -0.415605 0.563021 0.378496 -0.734676 -0.654342 0.643171 -0.397702 
-0.503762 0.511816 -0.695894 -0.710577 0.563138 -0.421848 0.866689 0.29574 -0.401731 
0.763903 0.278792 -0.582004 -0.328446 0.229154 -0.916303 -0.792867 0.41389 -0.447276 
-0.674766 0.43005 -0.59979 0.889317 0.206578 -0.407971 0.715849 0.1619 -0.679227 
-0.8385 0.231992 -0.493049 -0.563254 0.211252 -0.798822 0.909323 0.155166 -0.386077 
0.652533 0.133999 -0.745818 -0.8934 0.073178 -0.443262 0.945339 0.0546343 -0.32148 
-0.906437 -0.108368 -0.408201 0.954169 -0.103077 -0.280958 -0.917865 -0.228859 -0.324264 
-0.564124 -0.168701 -0.808272 0.903167 -0.281838 -0.323814 -0.877688 -0.393853 -0.273026 
-0.799825 -0.553724 -0.231668 -0.678341 -0.357061 -0.642154 0.785567 -0.524521 -0.328272 
0.73327 -0.595949 -0.327351 0.685288 -0.531848 -0.497511 0.390123 -0.420582 -0.819094 
-0.761107 -0.610775 -0.218334 -0.623554 -0.751493 -0.215498 0.580587 -0.743773 -0.331241 
0.528714 -0.779133 -0.336769 0.494378 -0.715452 -0.493679 0.438371 -0.829559 -0.345923 
0.309344 -0.606977 -0.732042 -0.405347 -0.882157 -0.239776 -0.223281 -0.509878 -0.830765 
-0.574465 -0.78895 -0.218053 -0.455075 -0.860711 -0.228217 -0.359636 -0.642818 -0.676348 
0.384725 -0.866831 -0.31716 0.313963 -0.89902 -0.305272 0.293167 -0.80953 -0.50864 
0.245507 -0.909873 -0.334451 0.212785 -0.74109 -0.636795 0.188019 -0.955605 -0.226865 
0.206234 -0.562592 -0.800598 0.0736701 -0.984143 -0.161354 -0.0463948 -0.982435 -0.180745 
-0.147775 -0.976178 -0.158867 -0.217681 -0.946251 -0.239215 -0.254154 -0.694188 -0.673431 
-0.386515 -0.889362 -0.244215 -0.30651 -0.907411 -0.2875 -0.27149 -0.80527 -0.527099 
0.0421705 0.625075 -0.779425 -0.0522997 0.648801 -0.759158 -0.135737 0.642383 -0.754267 
0.252248 0.508088 -0.82354 0.148563 0.565972 -0.810928 0.137985 0.607512 -0.782234 
0.13867 0.607163 -0.782383 0.0451596 0.574568 -0.81721 -0.050468 0.609747 -0.790988 
-0.136847 0.641965 -0.754422 -0.135704 0.641493 -0.755031 -0.211847 0.572709 -0.791913 
-0.256991 0.562329 -0.785966 0.319321 0.469016 -0.823443 0.367033 0.458472 -0.809376 
0.232481 0.3991 -0.886945 0.134538 0.359811 -0.923274 0.0624139 0.283488 -0.956942 
0.0352264 0.245792 -0.968682 -0.00665762 0.258786 -0.965912 -0.0697356 0.267743 -0.960963 
-0.150931 0.374394 -0.914904 -0.284964 0.521314 -0.80438 -0.230534 0.449535 -0.863002 
-0.293969 0.477153 -0.828195 -0.296696 0.364232 -0.882783 0.470631 0.344864 -0.812142 
0.482625 0.314775 -0.817307 0.326869 0.308367 -0.893345 0.150204 0.263186 -0.952981 
0.0259321 0.164908 -0.985968 0.0086651 0.0759523 -0.997074 0.0139182 0.0125305 -0.999825 
-0.0125043 0.000548494 -0.999922 -0.0241018 0.0346542 -0.999109 -0.0657701 0.105565 -0.992235 
-0.147747 0.186388 -0.971303 -0.216714 0.309939 -0.925728 -0.300228 0.360441 -0.883145 
-0.294479 0.357604 -0.886229 0.504119 0.273574 -0.819159 0.434855 0.267551 -0.859836 
0.270254 0.183532 -0.945134 0.0730616 0.114739 -0.990705 -0.0519157 0.0802285 -0.995424 
-0.0902868 0.0150038 -0.995803 -0.0433219 -0.0680179 -0.996743 0.0174373 -0.0432614 -0.998912 
0.03695 -0.0330529 -0.99877 0.0181099 -0.0146644 -0.999728 -0.0500012 0.0469521 -0.997645 
-0.155001 0.120102 -0.980587 -0.316722 0.220106 -0.922627 -0.269191 0.172921 -0.947436 
-0.315962 0.215775 -0.92391 0.598284 0.150566 -0.787011 0.403626 0.146422 -0.903131 
0.196426 0.0825728 -0.977036 0.0511257 0.0509852 -0.99739 -0.0760305 0.0399651 -0.996304 
-0.133932 0.0961023 -0.98632 -0.0453278 0.178506 -0.982894 0.0193956 0.0936787 -0.995414 
0.00215177 0.137349 -0.99052 0.0156227 -0.038313 -0.999144 -0.012931 -0.0296621 -0.999476 
-0.0807755 0.0150094 -0.996619 -0.170694 0.102516 -0.979977 -0.425918 0.201806 -0.881969 
-0.297703 0.166255 -0.94007 -0.513085 0.158123 -0.843647 0.601626 0.12023 -0.789678 
0.608687 0.0805121 -0.789315 0.361883 0.0715208 -0.929476 0.163085 0.0303473 -0.986145 
0.0264043 -0.0168431 -0.999509 -0.00634316 -0.0453674 -0.99895 0.0453381 -0.0108412 -0.998913 
-0.0326493 0.148933 -0.988308 -0.0174507 -0.0237793 -0.999565 -0.114099 0.16344 -0.979933 
-0.147336 -0.0460677 -0.988013 0.00526408 -0.0274465 -0.999609 -0.0314876 0.00916991 -0.999462 
-0.128762 0.0619521 -0.989739 -0.220418 0.0658142 -0.973183 -0.536269 0.115084 -0.836164 
-0.488728 0.11373 -0.864992 0.607009 0.055621 -0.792746 0.592955 0.0511768 -0.803608 
0.298887 -0.00392667 -0.95428 0.110638 -0.0390581 -0.993093 -0.0259232 -0.0702163 -0.997195 
-0.0722024 -0.0946301 -0.992891 0.0555758 -0.129001 -0.990086 -0.0419924 -0.14431 -0.988641 
0.00885734 -0.109395 -0.993959 -0.0441313 -0.138025 -0.989445 -0.138142 -0.0252081 -0.990092 
0.0424734 -0.011571 -0.999031 0.00856 0.00449762 -0.999953 -0.118407 0.00212941 -0.992963 
-0.250681 0.0139166 -0.96797 -0.54805 -0.0655441 -0.833873 -0.533026 -0.137263 -0.83489 
-0.494464 -0.063902 -0.866846 0.541284 -0.00445419 -0.840828 0.528475 -0.00381865 -0.84894 
0.2778 -0.0874474 -0.956651 0.101804 -0.0860277 -0.991078 -0.0247605 -0.083295 -0.996217 
-0.0750644 -0.0588633 -0.99544 0.000407976 -0.0173266 -0.99985 -0.0247721 -0.129039 -0.99133 
0.000512803 0.00582153 -0.999983 -0.0100789 -0.128892 -0.991607 -0.0430604 0.0252263 -0.998754 
0.0350512 0.00969227 -0.999339 -0.0177028 0.0144078 -0.999739 -0.108488 -0.0843772 -0.99051 
-0.510708 -0.161361 -0.844476 -0.304819 -0.0937399 -0.947786 0.612379 -0.215883 -0.760517 
0.594916 -0.239405 -0.767307 0.590641 -0.214037 -0.778031 0.375355 -0.402965 -0.834702 
0.258323 -0.214831 -0.941869 0.124131 -0.189567 -0.97399 0.00482255 -0.122898 -0.992408 
-0.000748148 -0.0572926 -0.998357 -0.0127303 0.0230693 -0.999653 -0.029877 -0.0153336 -0.999436 
0.0105981 0.0459652 -0.998887 -0.00322963 -0.0133813 -0.999905 -0.0138849 0.0221847 -0.999657 
0.0315582 -0.0366212 -0.998831 -0.087067 -0.111749 -0.989915 -0.208361 -0.121586 -0.970465 
-0.41269 -0.198311 -0.889022 -0.32626 -0.150932 -0.933153 0.371102 -0.409997 -0.833178 
0.25498 -0.488939 -0.83422 0.196163 -0.325875 -0.924838 0.0947749 -0.252988 -0.962816 
0.0753781 -0.142874 -0.986866 0.0421265 -0.0774497 -0.996106 -0.00244238 -0.0278699 -0.999609 
0.00302651 -0.0226001 -0.99974 -0.031121 -0.0467273 -0.998423 -0.0691186 -0.0586946 -0.99588 
-0.0947298 -0.154 -0.983519 -0.203151 -0.462576 -0.862991 -0.114373 -0.279821 -0.953215 
-0.256312 -0.456865 -0.851809 -0.182219 -0.28407 -0.941329 -0.445573 -0.386748 -0.807398 
-0.438329 -0.40027 -0.804768 -0.420801 -0.369007 -0.82871 0.238365 -0.457806 -0.856502 
0.225492 -0.455592 -0.861156 0.211675 -0.394978 -0.893972 0.175792 -0.512903 -0.840255 
0.161533 -0.346474 -0.924047 0.203235 -0.546537 -0.8124 0.113824 -0.300378 -0.947004 
0.0265175 -0.204809 -0.978443 -0.00928767 -0.202663 -0.979204 -0.0394099 -0.228929 -0.972645 
-0.228718 -0.568759 -0.790064 -0.134468 -0.28219 -0.949888 -0.20881 -0.472952 -0.855988 
-0.210419 -0.515315 -0.830767 -0.184047 -0.374334 -0.908846 0.195464 -0.553234 -0.809769 
0.0930539 -0.590451 -0.801691 0.0928172 -0.518684 -0.849913 -0.0244459 -0.607202 -0.794171 
-0.0233279 -0.513556 -0.857739 -0.19812 -0.593384 -0.780156 -0.148949 -0.587291 -0.795553 
-0.136211 -0.542377 -0.82902 
