# vtk DataFile Version 4.2
vtk output
ASCII
DATASET POLYDATA
POINTS 558 float
-40.6953 -0.720689 -18.0533 -40.6953 6.98005 -17.6417 -25.2938 -39.2244 -10.7335 
-17.5931 -39.2244 -11.3772 -9.89236 -39.2244 -10.7846 -40.6953 -31.5236 -11.7745 
-32.9946 -31.5236 -13.7893 -25.2938 -31.5236 -14.1799 -17.5931 -31.5236 -14.3363 
-9.89236 -31.5236 -13.3734 -2.19162 -31.5236 -12.0935 5.50912 -31.5236 -11.1741 
13.2099 -31.5236 -11.3604 20.9106 -31.5236 -10.8413 28.6113 -31.5236 -10.075 
36.3121 -31.5236 -10.6133 -48.396 -23.8229 -12.364 -40.6953 -23.8229 -15.2078 
-32.9946 -23.8229 -15.3234 -25.2938 -23.8229 -15.3685 -17.5931 -23.8229 -15.3181 
-9.89236 -23.8229 -14.0204 -2.19162 -23.8229 -12.5035 5.50912 -23.8229 -11.9059 
13.2099 -23.8229 -11.9709 20.9106 -23.8229 -12.284 28.6113 -23.8229 -12.345 
36.3121 -23.8229 -12.5053 44.0128 -23.8229 -11.0273 -56.0968 -16.1222 -10.9673 
-48.396 -16.1222 -14.854 -40.6953 -16.1222 -15.6235 -32.9946 -16.1222 -16.0339 
-25.2938 -16.1222 -15.4303 -17.5931 -16.1222 -14.6975 -9.89236 -16.1222 -13.6314 
-2.19162 -16.1222 -11.3093 5.50912 -16.1222 -11.9929 13.2099 -16.1222 -12.6446 
20.9106 -16.1222 -12.8624 28.6113 -16.1222 -13.5976 36.3121 -16.1222 -13.438 
44.0128 -16.1222 -13.2537 51.7135 -16.1222 -12.5001 -56.0968 -8.42143 -13.5894 
-48.396 -8.42143 -15.8179 -40.6953 -5.63896 -17.3597 -40.6953 -8.42143 -16.9672 
-32.9946 -8.42143 -16.31 -25.2938 -8.42143 -15.0632 -17.5931 -8.42143 -13.3999 
-9.89236 -8.42143 -12.237 -2.19162 -8.42143 -12.7538 5.50912 -8.42143 -15.4199 
13.2099 -8.42143 -14.6126 20.9106 -8.42143 -12.6764 28.6113 -8.42143 -13.7232 
36.3121 -8.42143 -14.2426 44.0128 -8.42143 -14.7385 51.7135 -8.42143 -12.2837 
59.4143 -8.42143 -10.0682 -56.0968 -0.720689 -13.3351 -43.4599 -0.720689 -17.3597 
-48.396 -0.720689 -16.1213 -36.1925 -0.720689 -17.3597 -32.9946 -0.720689 -16.8826 
-25.2938 -0.720689 -15.4794 -17.5931 -0.720689 -13.4301 -9.89236 -0.720689 -12.4188 
-2.19162 -0.720689 -13.7419 5.50912 -0.720689 -13.9091 13.2099 -0.720689 -16.0459 
20.9106 -0.720689 -13.2485 28.6113 -0.720689 -14.0597 36.3121 -0.720689 -14.5679 
44.0128 -0.720689 -14.0647 51.7135 -0.720689 -12.5111 59.4143 -0.720689 -9.78162 
-56.0968 6.98005 -13.4238 -41.8185 6.98005 -17.3597 -48.396 6.98005 -15.9168 
-38.4755 6.98005 -17.3597 -40.6953 8.15766 -17.3597 -32.9946 6.98005 -16.6842 
-25.2938 6.98005 -15.5327 -17.5931 6.98005 -13.9115 -9.89236 6.98005 -14.4603 
-2.19162 6.98005 -15.3523 5.50912 6.98005 -16.193 13.2099 6.98005 -14.9705 
20.9106 6.98005 -12.9703 28.6113 6.98005 -13.9083 36.3121 6.98005 -14.2547 
44.0128 6.98005 -14.7153 51.7135 6.98005 -11.8847 -56.0968 14.6808 -10.7058 
-48.396 14.6808 -15.107 -40.6953 14.6808 -15.7941 -32.9946 14.6808 -16.0049 
-25.2938 14.6808 -15.0557 -17.5931 14.6808 -13.7763 -9.89236 14.6808 -13.458 
-2.19162 14.6808 -13.9318 5.50912 14.6808 -14.1373 13.2099 14.6808 -13.6514 
20.9106 14.6808 -13.5534 28.6113 14.6808 -13.559 36.3121 14.6808 -13.5385 
44.0128 14.6808 -13.1212 51.7135 14.6808 -11.5042 -48.396 22.3815 -12.3819 
-40.6953 22.3815 -15.2576 -32.9946 22.3815 -14.614 -25.2938 22.3815 -14.5015 
-17.5931 22.3815 -14.6439 -9.89236 22.3815 -14.7119 -2.19162 22.3815 -14.834 
5.50912 22.3815 -14.7868 13.2099 22.3815 -14.4094 20.9106 22.3815 -14.0512 
28.6113 22.3815 -13.6154 36.3121 22.3815 -14.5086 44.0128 22.3815 -10.7949 
-40.6953 30.0823 -12.3247 -32.9946 30.0823 -14.0802 -25.2938 30.0823 -14.0649 
-17.5931 30.0823 -15.0766 -9.89236 30.0823 -15.1618 -2.19162 30.0823 -15.1232 
5.50912 30.0823 -14.9842 13.2099 30.0823 -14.8319 20.9106 30.0823 -14.7262 
28.6113 30.0823 -13.6576 36.3121 30.0823 -11.1107 -32.9946 37.783 -11.463 
-25.2938 37.783 -12.6366 -17.5931 37.783 -13.8883 -9.89236 37.783 -14.1141 
-2.19162 37.783 -14.0802 5.50912 37.783 -13.8075 13.2099 37.783 -13.5002 
20.9106 37.783 -13.0589 28.6113 37.783 -11.6874 -17.5931 45.4837 -10.9912 
-9.89236 45.4837 -10.428 -2.19162 45.4837 -10.1108 5.50912 45.4837 -9.7474 
-25.2938 -40.4114 -9.65898 -17.5931 -41.4753 -9.65898 -17.5931 -46.9251 -2.07738 
-9.89236 -40.7941 -9.65898 -9.89236 -46.9251 -2.1341 -40.6953 -34.2023 -9.65898 
-30.5772 -39.2244 -9.65898 -32.9946 -38.4102 -9.65898 -32.9946 -39.2244 -8.67286 
-2.63531 -39.2244 -9.65898 -2.19162 -39.0454 -9.65898 -2.19162 -39.2244 -9.59032 
5.50912 -35.9158 -9.65898 5.50912 -39.2244 -8.30718 13.2099 -37.2536 -9.65898 
13.2099 -39.2244 -8.65294 20.9106 -34.4133 -9.65898 20.9106 -39.2244 -7.00527 
28.6113 -32.4114 -9.65898 28.6113 -39.2244 -5.63061 36.3121 -32.9925 -9.65898 
36.3121 -39.2244 -3.09052 -44.3533 -31.5236 -9.65898 -48.396 -28.0524 -9.65898 
-48.396 -31.5236 -4.19546 39.7699 -31.5236 -9.65898 44.0128 -27.6716 -9.65898 
44.0128 -31.5236 -8.02395 51.7135 -31.5236 -5.02016 -52.7123 -23.8229 -9.65898 
-56.0968 -18.9245 -9.65898 -56.0968 -23.8229 -4.52129 50.448 -23.8229 -9.65898 
51.7135 -23.3086 -9.65898 51.7135 -23.8229 -9.36477 59.4143 -23.8229 -2.64727 
-57.6376 -16.1222 -9.65898 56.6539 -16.1222 -9.65898 59.4143 -9.33536 -9.65898 
59.4143 -16.1222 -7.30859 -60.6347 -8.42143 -9.65898 60.0222 -8.42143 -9.65898 
-60.9155 -0.720689 -9.65898 -63.7975 -0.720689 -4.24173 59.6196 -0.720689 -9.65898 
59.4143 1.06021 -9.65898 -60.3391 6.98005 -9.65898 58.4725 6.98005 -9.65898 
59.4143 6.98005 -9.24883 -57.2704 14.6808 -9.65898 -56.0968 16.9485 -9.65898 
54.643 14.6808 -9.65898 51.7135 19.6373 -9.65898 59.4143 14.6808 -4.80739 
-52.6819 22.3815 -9.65898 -56.0968 22.3815 -3.18125 -48.396 27.1213 -9.65898 
47.6184 22.3815 -9.65898 44.0128 28.8519 -9.65898 51.7135 22.3815 -7.96973 
-45.4807 30.0823 -9.65898 -48.396 30.0823 -5.5328 -40.6953 34.235 -9.65898 
42.9731 30.0823 -9.65898 36.3121 36.2489 -9.65898 44.0128 30.0823 -9.35552 
-36.2745 37.783 -9.65898 -40.6953 37.783 -3.57078 -32.9946 40.0505 -9.65898 
-25.2938 42.992 -9.65898 13.2099 45.2585 -9.65898 20.9106 44.877 -9.65898 
35.0288 37.783 -9.65898 28.6113 40.637 -9.65898 36.3121 37.783 -9.04988 
-21.6646 45.4837 -9.65898 -25.2938 45.4837 -5.01621 -17.5931 46.7712 -9.65898 
-9.89236 46.2247 -9.65898 -2.19162 45.9047 -9.65898 8.37785 45.4837 -9.65898 
5.50912 45.5662 -9.65898 13.2099 45.4837 -9.36359 20.9106 45.4837 -8.49552 
-17.5931 -46.9766 -1.95824 -9.89236 -47.0092 -1.95824 -32.9946 -42.1729 -1.95824 
-17.8134 -46.9251 -1.95824 -25.2938 -45.1037 -1.95824 -17.5931 -46.9251 -1.67807 
-8.82549 -46.9251 -1.95824 -9.89236 -46.9251 -1.46231 -2.19162 -46.3316 -1.95824 
5.50912 -45.1958 -1.95824 13.2099 -44.2385 -1.95824 20.9106 -43.0628 -1.95824 
28.6113 -41.9806 -1.95824 36.3121 -40.0638 -1.95824 -48.396 -32.684 -1.95824 
-38.5892 -39.2244 -1.95824 -40.6953 -38.0129 -1.95824 38.4071 -39.2244 -1.95824 
44.0128 -36.9092 -1.95824 51.7135 -32.4163 -1.95824 -49.6947 -31.5236 -1.95824 
-56.0968 -25.2939 -1.95824 -48.396 -31.5236 2.72751 52.8714 -31.5236 -1.95824 
59.4143 -24.5843 -1.95824 -57.3099 -23.8229 -1.95824 -56.0968 -23.8229 3.09511 
60.0099 -23.8229 -1.95824 59.4143 -23.8229 5.65116 -61.448 -16.1222 -1.95824 
64.3188 -16.1222 -1.95824 -63.5025 -8.42143 -1.95824 -63.7975 -6.2273 -1.95824 
66.4935 -8.42143 -1.95824 -64.5379 -0.720689 -1.95824 -63.7975 2.63192 -1.95824 
-63.7975 -0.720689 0.389721 66.1964 -0.720689 -1.95824 -62.8143 6.98005 -1.95824 
64.9555 6.98005 -1.95824 -60.4573 14.6808 -1.95824 61.6969 14.6808 -1.95824 
59.4143 18.5515 -1.95824 -56.5665 22.3815 -1.95824 -56.0968 23.0586 -1.95824 
-56.0968 22.3815 -0.814303 56.9155 22.3815 -1.95824 51.7135 29.33 -1.95824 
-50.3791 30.0823 -1.95824 -48.396 32.1506 -1.95824 -48.396 30.0823 2.31117 
51.0493 30.0823 -1.95824 44.0128 36.2709 -1.95824 -41.7429 37.783 -1.95824 
-40.6953 38.5895 -1.95824 -40.6953 37.783 -0.290862 -32.9946 42.9188 -1.95824 
28.6113 45.2174 -1.95824 42.1416 37.783 -1.95824 36.3121 41.9563 -1.95824 
-27.1239 45.4837 -1.95824 -25.2938 46.2361 -1.95824 -25.2938 45.4837 -0.471802 
-17.5931 48.2776 -1.95824 -17.5931 45.4837 3.43225 -9.89236 48.8721 -1.95824 
-9.89236 45.4837 4.7705 -2.19162 48.9229 -1.95824 -2.19162 45.4837 3.33957 
5.50912 48.5366 -1.95824 5.50912 45.4837 2.92857 13.2099 48.2123 -1.95824 
13.2099 45.4837 4.02066 27.6879 45.4837 -1.95824 20.9106 47.1719 -1.95824 
20.9106 45.4837 1.67284 -32.9946 -39.4146 5.7425 -25.2938 -43.4914 5.7425 
-17.5931 -45.3139 5.7425 -9.89236 -45.4457 5.7425 -2.19162 -44.619 5.7425 
5.50912 -44.1258 5.7425 13.2099 -43.792 5.7425 20.9106 -43.8394 5.7425 
28.6113 -41.8223 5.7425 36.3121 -39.3105 5.7425 -33.4012 -39.2244 5.7425 
-40.6953 -34.9994 5.7425 -32.9946 -39.2244 6.01499 -25.2938 -39.2244 9.86252 
-17.5931 -39.2244 12.6663 -9.89236 -39.2244 12.3304 -2.19162 -39.2244 11.363 
5.50912 -39.2244 11.3629 13.2099 -39.2244 11.1695 20.9106 -39.2244 10.5117 
28.6113 -39.2244 8.52504 36.5952 -39.2244 5.7425 36.3121 -39.2244 5.86764 
44.0128 -36.3981 5.7425 51.7135 -31.8574 5.7425 -46.6598 -31.5236 5.7425 
-48.396 -30.1152 5.7425 -40.6953 -31.5236 8.34623 -32.9946 -31.5236 12.2061 
28.6113 -31.5236 13.0879 36.3121 -31.5236 12.3122 44.0128 -31.5236 10.8808 
52.1501 -31.5236 5.7425 51.7135 -31.5236 6.1073 -54.749 -23.8229 5.7425 
-56.0968 -21.305 5.7425 -48.396 -23.8229 10.9397 44.0128 -23.8229 13.3013 
59.4028 -23.8229 5.7425 51.7135 -23.8229 12.2489 59.4143 -23.8023 5.7425 
-57.896 -16.1222 5.7425 -56.0968 -16.1222 7.68719 -48.396 -16.1222 12.8729 
51.7135 -16.1222 12.8584 62.3484 -16.1222 5.7425 59.4143 -16.1222 8.89912 
-60.3506 -8.42143 5.7425 -56.0968 -8.42143 10.3224 65.1395 -8.42143 5.7425 
59.4143 -8.42143 11.9849 -61.2601 -0.720689 5.7425 -56.0968 -0.720689 11.2307 
64.6321 -0.720689 5.7425 59.4143 -0.720689 12.1888 -58.4776 6.98005 5.7425 
-56.0968 6.98005 8.13311 -48.396 6.98005 12.5524 51.7135 6.98005 13.2981 
63.4754 6.98005 5.7425 59.4143 6.98005 10.0561 -57.3075 14.6808 5.7425 
-56.0968 16.9682 5.7425 -56.0968 14.6808 6.93636 -48.396 14.6808 10.4472 
51.7135 14.6808 10.9911 60.577 14.6808 5.7425 59.4143 16.7858 5.7425 
59.4143 14.6808 7.01447 -51.1768 22.3815 5.7425 -48.396 26.4506 5.7425 
-48.396 22.3815 7.89828 -40.6953 22.3815 11.2356 -32.9946 22.3815 12.5446 
[...]
POINT_DATA 558
SCALARS ImageScalars float
LOOKUP_TABLE default
0 0 0 0 0 0 0 0 0 
0 0 0 0 0 0 0 0 0 
0 0 0 0 0 0 0 0 0 
0 0 0 0 0 0 0 0 0 
0 0 0 0 0 0 0 0 0 
0 0 0 0 0 0 0 0 0 
0 0 0 0 0 0 0 0 0 
0 0 0 0 0 0 0 0 0 
0 0 0 0 0 0 0 0 0 
0 0 0 0 0 0 0 0 0 
0 0 0 0 0 0 0 0 0 
0 0 0 0 0 0 0 0 0 
0 0 0 0 0 0 0 0 0 
0 0 0 0 0 0 0 0 0 
0 0 0 0 0 0 0 0 0 
0 0 0 0 0 0 0 0 0 
0 0 0 0 0 0 0 0 0 
0 0 0 0 0 0 0 0 0 
0 0 0 0 0 0 0 0 0 
0 0 0 0 0 0 0 0 0 
0 0 0 0 0 0 0 0 0 
0 0 0 0 0 0 0 0 0 
0 0 0 0 0 0 0 0 0 
0 0 0 0 0 0 0 0 0 
0 0 0 0 0 0 0 0 0 
0 0 0 0 0 0 0 0 0 
0 0 0 0 0 0 0 0 0 
0 0 0 0 0 0 0 0 0 
0 0 0 0 0 0 0 0 0 
0 0 0 0 0 0 0 0 0 
0 0 0 0 0 0 0 0 0 
0 0 0 0 0 0 0 0 0 
0 0 0 0 0 0 0 0 0 
0 0 0 0 0 0 0 0 0 
0 0 0 0 0 0 0 0 0 
0 0 0 0 0 0 0 0 0 
0 0 0 0 0 0 0 0 0 
0 0 0 0 0 0 0 0 0 
0 0 0 0 0 0 0 0 0 
0 0 0 0 0 0 0 0 0 
0 0 0 0 0 0 0 0 0 
0 0 0 0 0 0 0 0 0 
0 0 0 0 0 0 0 0 0 
0 0 0 0 0 0 0 0 0 
0 0 0 0 0 0 0 0 0 
0 0 0 0 0 0 0 0 0 
0 0 0 0 0 0 0 0 0 
0 0 0 0 0 0 0 0 0 
0 0 0 0 0 0 0 0 0 
0 0 0 0 0 0 0 0 0 
0 0 0 0 0 0 0 0 0 
0 0 0 0 0 0 0 0 0 
0 0 0 0 0 0 0 0 0 
0 0 0 0 0 0 0 0 0 
0 0 0 0 0 0 0 0 0 
0 0 0 0 0 0 0 0 0 
0 0 0 0 0 0 0 0 0 
0 0 0 0 0 0 0 0 0 
0 0 0 0 0 0 0 0 0 
0 0 0 0 0 0 0 0 0 
0 0 0 0 0 0 0 0 0 
0 0 0 0 0 0 0 0 0 

NORMALS Normals float
0.0468751 0.0407969 0.998067 0.0612637 -0.144634 0.987587 0.127418 0.591609 0.796093 
0.0024965 0.522773 0.852469 -0.101637 0.48171 0.870417 0.377566 0.501227 0.778598 
0.156155 0.363856 0.918272 0.0305562 0.261271 0.964782 -0.0512915 0.22325 0.973411 
-0.140704 0.179237 0.973692 -0.13961 0.164927 0.976375 -0.0429898 0.198276 0.979203 
-0.0176125 0.194034 0.980837 -0.0864438 0.298899 0.950361 -0.00523606 0.35328 0.935503 
-0.0912148 0.440293 0.893209 0.372131 0.433807 0.820567 0.197278 0.244551 0.949356 
0.00907964 0.133324 0.991031 -0.000476463 0.0768257 0.997044 -0.0851013 0.0197591 0.996176 
-0.184541 0.0154845 0.982703 -0.133799 -0.047175 0.989885 -0.0343379 0.051533 0.998081 
0.0242832 0.0866246 0.995945 0.024311 0.120274 0.992443 0.0130388 0.206858 0.978284 
-0.0849417 0.208093 0.974414 -0.164425 0.277419 0.946574 0.571898 0.353067 0.740456 
0.317512 0.261923 0.911363 0.070208 0.107198 0.991756 -0.0128622 0.0594396 0.998149 
-0.0892238 -0.0194215 0.995822 -0.113644 -0.114164 0.986941 -0.211683 -0.114914 0.970559 
-0.106018 -0.0148287 0.994254 0.0868314 0.190139 0.97791 0.0569537 0.143948 0.987945 
0.061263 0.0249032 0.997811 0.0375174 0.0890584 0.99532 -0.0214215 0.107227 0.994004 
-0.0750989 0.234327 0.969253 -0.278129 0.119584 0.953071 0.495386 0.153997 0.854914 
0.203375 0.0656853 0.976895 0.0487224 0.11808 0.991808 0.0448697 0.160558 0.986006 
-0.120361 0.0561443 0.991141 -0.180724 0.00289745 0.98353 -0.188959 -0.0854105 0.978264 
-0.0483839 -0.0877624 0.994966 0.213469 0.156568 0.964322 0.0891337 0.173126 0.980858 
-0.191301 0.224305 0.955558 -0.0272535 0.0251364 0.999312 0.101435 0.0298818 0.994393 
0.0639161 0.0728909 0.99529 -0.116401 0.0457147 0.99215 -0.23993 -0.00327336 0.970785 
-0.433802 0.15843 0.88697 0.466609 -0.0124694 0.884376 0.122956 0.0317538 0.991904 
0.263819 0.00778251 0.964541 -0.0771325 0.03209 0.996504 -0.161247 0.0239094 0.986624 
-0.216339 0.0301537 0.975852 -0.176717 0.034523 0.983656 -0.0157335 0.15393 0.987957 
0.0830295 0.20426 0.975389 0.149715 0.0694913 0.986284 -0.100251 0.0251232 0.994645 
-0.0826535 0.0189699 0.996398 0.085297 0.0119525 0.996284 0.000381598 0.000790366 1 
-0.126542 -0.00221266 0.991959 -0.2218 -0.0232527 0.974815 -0.443906 -0.0411714 0.895127 
0.529294 -0.162735 0.832686 0.0906214 -0.127555 0.987683 0.252335 -0.0512392 0.966282 
0.0037275 -0.120573 0.992698 0.0555371 -0.141803 0.988336 -0.135208 -0.0585481 0.989086 
-0.17725 -0.0272024 0.98379 -0.0815312 0.0212512 0.996444 0.10556 0.00967482 0.994366 
0.10201 -0.0352417 0.994159 -0.00914416 -0.0309519 0.999479 -0.237992 -0.164514 0.957233 
-0.031615 0.0199079 0.999302 0.0830226 -0.0323949 0.996021 0.0500493 -0.0665864 0.996525 
-0.138779 -0.0489166 0.989115 -0.277022 -0.0671039 0.958518 0.619054 -0.364245 0.695771 
0.303811 -0.245651 0.920519 0.0497938 -0.146083 0.988018 -0.0472996 -0.128886 0.990531 
-0.144989 -0.0661156 0.987222 -0.102807 0.0474367 0.99357 0.0102714 0.0346233 0.999348 
0.044467 -0.0231803 0.998742 -0.0186222 -0.0761231 0.996925 -0.0390706 -0.0121459 0.999163 
-0.00597115 0.0699479 0.997533 -0.000964394 -0.0190369 0.999818 -0.0253677 0.00669996 0.999656 
-0.155977 -0.24774 0.956188 -0.386906 -0.170047 0.906304 0.384802 -0.426023 0.818799 
0.153372 -0.242358 0.957987 -0.0404365 -0.123802 0.991483 0.00216605 -0.062294 0.998056 
0.0135871 0.0871187 0.996105 0.0122889 0.109927 0.993864 0.00487446 0.0775883 0.996974 
-0.0274633 0.0547057 0.998125 -0.048647 0.0779617 0.995769 -0.0511641 0.0742748 0.995924 
0.0207323 0.00689457 0.999761 -0.155719 -0.123265 0.98008 -0.325554 -0.226875 0.917901 
0.362672 -0.394754 0.844179 0.12866 -0.216791 0.967703 0.0752049 -0.104353 0.991693 
0.0674021 -0.0556896 0.99617 0.00372003 -0.0330033 0.999448 -0.0115458 -0.0423631 0.999036 
-0.0189077 -0.0562734 0.998236 -0.0163724 -0.0530207 0.998459 -0.0901763 -0.0693315 0.99351 
-0.195376 -0.0883943 0.976737 -0.304097 -0.299357 0.904384 0.302285 -0.510883 0.80475 
0.190176 -0.370675 0.909083 0.0821157 -0.280498 0.956336 0.0161165 -0.275243 0.96124 
-0.0201371 -0.281592 0.959323 -0.038504 -0.297751 0.953867 -0.0521185 -0.308033 0.949947 
-0.0968737 -0.32895 0.939365 -0.2808 -0.495597 0.821909 0.132886 -0.712621 0.688848 
-0.0587456 -0.711669 0.700055 -0.0380163 -0.726964 0.685622 -0.0335087 -0.744602 0.666668 
0.145226 0.66693 0.730831 0.0265283 0.625729 0.779589 0.124043 0.982589 0.13832 
-0.0948072 0.557142 0.824988 -0.0397302 0.984172 0.172708 0.426136 0.648095 0.631174 
0.258058 0.675283 0.690941 0.303211 0.668438 0.679157 0.341069 0.735362 0.585589 
-0.137446 0.466833 0.873599 -0.139702 0.458665 0.877559 -0.139953 0.468673 0.872215 
-0.035777 0.360976 0.931889 -0.058841 0.552972 0.83112 -0.0375511 0.461933 0.88612 
-0.0535011 0.59287 0.803519 -0.123103 0.363421 0.923456 -0.15267 0.618225 0.771031 
-0.0196713 0.368819 0.929293 -0.194672 0.746402 0.636386 -0.131579 0.492123 0.860524 
-0.323607 0.862801 0.388397 0.470345 0.594923 0.651799 0.511269 0.551786 0.65889 
0.633555 0.730364 0.255296 -0.130088 0.500352 0.855994 -0.175069 0.424115 0.888525 
-0.221893 0.633737 0.74104 -0.545397 0.752622 0.368919 0.616914 0.517359 0.593091 
0.648619 0.458047 0.607854 0.775226 0.594189 0.214393 -0.383592 0.328607 0.863061 
-0.418732 0.321091 0.849449 -0.436113 0.345988 0.830721 -0.760684 0.550858 0.343387 
0.637486 0.400461 0.658212 -0.488971 0.271346 0.829023 -0.459303 0.185256 0.868747 
-0.664739 0.370686 0.648625 0.78331 0.18333 0.593983 -0.449454 0.16229 0.878438 
0.73673 -0.0204736 0.675877 0.989499 -0.0387384 0.139255 -0.44731 -0.0421828 0.893384 
-0.455918 -0.0949934 0.884938 0.796041 -0.20168 0.570652 -0.462073 -0.250691 0.850672 
-0.515921 -0.294209 0.804529 0.664499 -0.398244 0.632332 0.674111 -0.436603 0.595779 
-0.518888 -0.201598 0.830731 -0.356253 -0.412212 0.83855 -0.783099 -0.397248 0.478486 
0.633417 -0.485923 0.602214 0.838993 -0.541284 0.0556991 0.533154 -0.507646 0.676788 
-0.32888 -0.352003 0.876317 -0.373953 -0.338722 0.863381 -0.438843 -0.576929 0.68889 
0.502605 -0.525241 0.686666 0.680999 -0.65472 0.327997 0.475981 -0.602287 0.640853 
-0.370079 -0.351361 0.859993 -0.392607 -0.43016 0.81291 -0.396018 -0.379264 0.836259 
0.442373 -0.631627 0.636674 0.588172 -0.802048 0.103791 0.379451 -0.65804 0.650385 
0.350311 -0.649589 0.674771 -0.0277312 -0.741487 0.670394 -0.173459 -0.745098 0.644003 
-0.392463 -0.478489 0.785507 -0.317182 -0.612724 0.723854 -0.431126 -0.506938 0.746421 
0.26593 -0.752699 0.602266 0.386618 -0.908891 0.156345 0.131617 -0.822006 0.55406 
-0.0613791 -0.756681 0.650897 -0.0391354 -0.751241 0.658866 -0.0313079 -0.748521 0.662372 
-0.0334402 -0.74944 0.661227 -0.0312012 -0.768336 0.639286 -0.184686 -0.83319 0.521234 
0.124388 0.983675 0.130041 -0.0385896 0.986324 0.160239 0.418825 0.906213 0.0579964 
0.129177 0.982996 0.130503 0.282474 0.948117 0.145887 0.12373 0.986103 0.110864 
-0.0486214 0.985525 0.162408 -0.0388142 0.991393 0.125031 -0.112579 0.975548 0.188764 
-0.127871 0.959014 0.252867 -0.135955 0.943421 0.302444 -0.151121 0.93479 0.32145 
-0.189886 0.937824 0.290568 -0.328923 0.894983 0.301355 0.638761 0.762891 0.0999076 
0.498143 0.863945 0.0738433 0.528892 0.845345 0.0752631 -0.353326 0.882559 0.310242 
-0.408729 0.863141 0.296528 -0.585819 0.804986 0.0938792 0.657721 0.746317 0.102046 
0.77349 0.626224 0.0977568 0.62992 0.735476 -0.249553 -0.615964 0.781948 0.0956346 
-0.766412 0.575759 0.284806 0.802134 0.589138 0.0974606 0.7649 0.569837 -0.300355 
-0.775286 0.562251 0.28776 -0.740542 0.490583 -0.459267 0.9183 0.392444 0.0520857 
-0.91153 0.369555 0.180394 0.982872 0.182799 0.0233841 0.992841 0.117632 0.020709 
-0.983751 0.120985 0.132652 0.999061 -0.0420222 -0.010508 0.991427 -0.130136 -0.0117214 
0.98454 -0.0552547 -0.166215 -0.988484 -0.0971758 0.115997 0.967072 -0.250297 -0.0460708 
-0.950744 -0.282492 0.127612 0.921962 -0.387189 -0.00837815 -0.844965 -0.474322 0.247089 
-0.81706 -0.555856 0.153093 0.846158 -0.532765 -0.0133821 0.837451 -0.546419 -0.0100789 
0.833978 -0.542658 -0.100012 -0.809538 -0.585602 0.0414498 -0.737784 -0.653161 0.170458 
0.734293 -0.678257 0.0279586 0.703128 -0.710605 0.0255079 0.668603 -0.655639 -0.350868 
-0.729305 -0.664139 0.164418 -0.64928 -0.753908 0.100291 0.593139 -0.805078 0.00594078 
0.576178 -0.81732 0.00263532 0.587101 -0.797998 -0.136059 0.424885 -0.902679 -0.0681475 
-0.319673 -0.946209 -0.0499865 -0.614513 -0.782256 0.102222 -0.488861 -0.871484 0.039126 
0.35804 -0.926257 -0.117709 0.337436 -0.93207 -0.131839 0.337959 -0.906813 -0.251941 
0.188472 -0.968306 -0.163893 0.183326 -0.765339 -0.616966 0.0439428 -0.992891 -0.110622 
-0.0177984 -0.745842 -0.665886 -0.0231155 -0.992313 -0.121577 -0.0710691 -0.819531 -0.568611 
-0.0486502 -0.991625 -0.119634 0.0165662 -0.854169 -0.519732 -0.0950569 -0.992899 -0.0715273 
-0.0282155 -0.816504 -0.57665 -0.302913 -0.951312 -0.0570052 -0.191349 -0.976094 -0.103077 
-0.190846 -0.905862 -0.378142 0.413054 0.776684 -0.475551 0.318268 0.827827 -0.461961 
0.0979201 0.891218 -0.442879 -0.0387302 0.894338 -0.445713 -0.0806607 0.875335 -0.476742 
-0.0510394 0.918848 -0.391297 -0.0194834 0.934349 -0.355827 -0.112867 0.938996 -0.324881 
-0.264982 0.880295 -0.39353 -0.280597 0.89262 -0.352837 0.416506 0.773981 -0.476945 
0.442752 0.687049 -0.576137 0.409993 0.769638 -0.489451 0.283249 0.61831 -0.733119 
0.118651 0.589289 -0.799162 -0.0671329 0.601635 -0.795945 -0.0512718 0.621229 -0.78195 
-0.0103314 0.574515 -0.818429 -0.0474804 0.625535 -0.77875 -0.140788 0.659027 -0.738825 
-0.228095 0.754244 -0.615702 -0.285603 0.891072 -0.352734 -0.279027 0.889294 -0.362354 
-0.4531 0.800887 -0.39151 -0.54729 0.709932 -0.44325 0.536023 0.661132 -0.524961 
0.564724 0.656288 -0.500373 0.377126 0.581046 -0.721223 0.334477 0.390836 -0.857539 
-0.136295 0.371628 -0.918323 -0.113964 0.375125 -0.919942 -0.351115 0.508107 -0.786477 
-0.556758 0.702057 -0.444001 -0.545574 0.700289 -0.460373 0.672158 0.523275 -0.523819 
0.725543 0.429272 -0.537879 0.458364 0.434334 -0.775407 -0.092634 0.291345 -0.952122 
-0.736862 0.487739 -0.468128 -0.391285 0.348402 -0.85177 -0.737294 0.487043 -0.468174 
0.778733 0.2714 -0.565611 0.715228 0.256682 -0.650048 0.375263 0.15455 -0.913943 
-0.352622 0.102585 -0.930126 -0.800767 0.317978 -0.507604 -0.673867 0.303658 -0.673569 
0.79094 0.152848 -0.592496 0.620929 0.14437 -0.770457 -0.846567 0.129981 -0.516167 
-0.517782 0.144047 -0.843298 0.791544 -0.0836464 -0.60536 0.572647 -0.0963016 -0.814126 
-0.838421 -0.0927179 -0.537079 -0.555511 -0.0819319 -0.827463 0.718534 -0.19932 -0.666319 
0.626915 -0.204458 -0.751781 0.354061 -0.251082 -0.900888 -0.251792 -0.203037 -0.946244 
-0.809623 -0.260438 -0.526006 -0.639689 -0.254161 -0.725397 0.720357 -0.288637 -0.630693 
0.686068 -0.347101 -0.6394 0.671586 -0.291163 -0.68132 0.400351 -0.224412 -0.888458 
-0.407248 -0.315587 -0.857061 -0.78094 -0.393216 -0.485297 -0.743717 -0.450347 -0.494037 
-0.732176 -0.396084 -0.554108 0.607518 -0.438994 -0.661972 0.560092 -0.482119 -0.67369 
0.531566 -0.380621 -0.756681 0.218694 -0.323009 -0.920781 0.129227 -0.319955 -0.938578 
0.0105276 -0.322273 -0.946588 -0.0130158 -0.303351 -0.95279 0.139808 -0.298643 -0.944069 
-0.0261086 -0.247956 -0.968419 -0.151248 -0.302131 -0.941191 -0.266956 -0.359161 -0.894281 
-0.639754 -0.539852 -0.54706 -0.621364 -0.543305 -0.564558 -0.595095 -0.501249 -0.628182 
0.461111 -0.553277 -0.69373 0.419958 -0.575074 -0.702086 0.353531 -0.527632 -0.772412 
0.129315 -0.369428 -0.920218 0.0616595 -0.33805 -0.939106 0.055447 -0.317031 -0.946793 
0.101598 -0.264999 -0.958881 0.102016 -0.333387 -0.937254 -0.025227 -0.380597 -0.924397 
-0.0937584 -0.336438 -0.937027 -0.0637426 -0.324092 -0.943876 -0.104705 -0.336064 -0.936001 
-0.201842 -0.392389 -0.89738 -0.475482 -0.61632 -0.627747 -0.458407 -0.626443 -0.630422 
-0.415763 -0.596904 -0.686183 0.300379 -0.63584 -0.710972 0.231162 -0.68272 -0.693151 
0.218693 -0.594208 -0.77401 0.120699 -0.5678 -0.81427 0.0708385 -0.513667 -0.855061 
0.166079 -0.572593 -0.802842 0.116665 -0.402662 -0.907884 -0.0146265 -0.660935 -0.750301 
0.0913375 -0.373627 -0.923071 -0.0607337 -0.636702 -0.768714 0.0231194 -0.469405 -0.88268 
0.0382873 -0.65738 -0.752586 -0.00836837 -0.496702 -0.867881 -0.0123295 -0.684637 -0.72878 
-0.0525658 -0.441584 -0.895679 -0.159363 -0.647338 -0.745357 -0.0952346 -0.456134 -0.8848 
-0.159517 -0.636745 -0.754394 -0.123719 -0.576045 -0.808001 -0.340791 -0.67191 -0.65757 
-0.282841 -0.690288 -0.66596 -0.276203 -0.653967 -0.704301 0.239362 0.399973 -0.884719 
0.116474 0.526226 -0.84233 -0.0676254 0.517999 -0.852704 -0.0737926 0.450437 -0.889753 
-0.00833468 0.389581 -0.920955 -0.026468 0.434895 -0.900092 -0.125386 0.388136 -0.913033 
0.183088 0.38986 -0.90249 0.282068 0.355701 -0.891019 0.266577 0.316032 -0.910528 
0.24547 0.355929 -0.901698 0.109649 0.303075 -0.946638 -0.0627815 0.343777 -0.93695 
-0.0979914 0.325178 -0.940562 -0.0122994 0.329936 -0.943923 -0.00500485 0.350402 -0.936586 
-0.131818 0.352918 -0.926322 -0.122584 0.326789 -0.937114 -0.134599 0.3365 -0.932014 
-0.117056 0.250503 -0.961013 0.191395 0.387464 -0.901798 0.181437 0.387128 -0.903998 
0.184198 0.262961 -0.94706 0.16661 0.184978 -0.968516 0.121985 0.115579 -0.985779 
-0.0429088 0.161205 -0.985988 -0.0801951 0.150811 -0.985304 0.0135048 0.230919 -0.972879 
-0.049243 0.233092 -0.971207 -0.126185 0.138282 -0.982321 -0.134892 0.181505 -0.974094 
-0.096787 0.273389 -0.957022 -0.127211 0.217519 -0.967731 -0.0928449 0.279992 -0.955502 
0.331432 0.154283 -0.930779 0.349162 0.122792 -0.928982 0.216365 0.205666 -0.954405 
0.125683 0.156339 -0.979674 0.0966442 0.0999551 -0.990287 0.0932089 -0.00281955 -0.995643 
-0.0216618 0.0116805 -0.999697 -0.0404321 0.0734194 -0.996481 0.0632343 0.0842301 -0.994438 
-0.0954452 0.120398 -0.988127 -0.160802 0.0668681 -0.984719 -0.053282 0.103216 -0.993231 
-0.0490336 0.161489 -0.985656 -0.308959 0.101191 -0.945677 -0.177154 0.127422 -0.9759 
-0.292447 0.0952795 -0.951523 0.405594 0.107585 -0.9077 0.33658 0.0850961 -0.937802 
0.225813 0.0642436 -0.97205 0.0746656 0.0572616 -0.995563 0.00536325 0.00174161 -0.999984 
0.0333761 -0.0516736 -0.998106 0.0342883 -0.0727812 -0.996758 -0.00498264 0.16207 -0.986767 
0.0588885 -0.0536737 -0.996821 -0.0703688 -0.0530799 -0.996108 -0.142305 0.0402148 -0.989006 
-0.0509461 0.063388 -0.996688 -0.0747753 0.0495932 -0.995966 -0.134899 0.0313177 -0.990364 
-0.344052 0.123949 -0.930733 -0.236645 0.103643 -0.966052 0.388449 -0.10134 -0.915881 
0.312646 -0.187557 -0.931168 0.286783 -0.0945792 -0.953315 0.214688 -0.113077 -0.970115 
0.0651135 -0.0867407 -0.994101 -0.0110401 -0.0598118 -0.998149 0.0154693 -0.00292213 -0.999876 
0.189615 0.0147682 -0.981747 -0.0237846 -0.0153087 -0.9996 -0.143669 -0.00162799 -0.989625 
0.000488753 -0.0711347 -0.997467 -0.0516247 -0.0350882 -0.99805 -0.0432682 -0.0316879 -0.998561 
-0.0765418 -0.0286707 -0.996654 -0.147528 -0.035942 -0.988405 -0.395892 -0.0721181 -0.915461 
-0.244224 -0.183301 -0.952237 -0.237972 -0.0625618 -0.969255 0.299766 -0.22209 -0.927802 
0.218048 -0.165073 -0.961876 0.128093 -0.17252 -0.976642 0.0898643 -0.126227 -0.987923 
0.107057 -0.0732579 -0.99155 0.0254376 -0.0632396 -0.997674 -0.0205704 -0.208524 -0.977801 
-0.000336399 0.0552369 -0.998473 -0.10418 -0.0457861 -0.993504 -0.103452 -0.137763 -0.985048 
-0.0434935 -0.13199 -0.990296 -0.0777635 -0.134533 -0.987853 -0.240714 -0.195548 -0.950693 
-0.161347 -0.120672 -0.979492 0.287365 -0.228473 -0.930173 0.249087 -0.247621 -0.93629 
0.262198 -0.234355 -0.936125 0.120251 -0.287328 -0.950254 0.10598 -0.229836 -0.967442 
0.0149908 -0.313413 -0.949499 0.0747392 -0.235141 -0.969083 -0.00352147 -0.305067 -0.952324 
0.0572643 -0.318694 -0.946126 0.132819 -0.310274 -0.941323 0.0601171 -0.385868 -0.920593 
0.11369 -0.187831 -0.975599 0.0188651 -0.153768 -0.987927 -0.197798 -0.225413 -0.953973 
-0.123759 -0.199193 -0.972114 -0.0261505 -0.245358 -0.96908 -0.0428043 -0.192087 -0.980444 
-0.137613 -0.282099 -0.949464 -0.068708 -0.192923 -0.978805 -0.260436 -0.25814 -0.930342 
-0.223582 -0.278641 -0.934008 -0.224046 -0.263797 -0.938197 0.150511 -0.294715 -0.943658 
0.129374 -0.314557 -0.940381 0.180771 -0.279964 -0.942837 -0.0260096 -0.371317 -0.928142 
-0.0289906 -0.340709 -0.939722 -0.120506 -0.316659 -0.940853 -0.140419 -0.302581 -0.942723 
-0.0384595 -0.24725 -0.968188 -0.0683068 -0.251824 -0.96536 -0.0692264 -0.247 -0.96654 

