# vtk DataFile Version 4.2
vtk output
ASCII
DATASET POLYDATA
POINTS 496 float
24.6819 -14.3214 -25.0297 32.9906 -14.3214 -25.5312 -33.4791 -30.9389 -18.3985 
-25.1704 -30.9389 -20.5703 -16.8617 -30.9389 -21.8975 -8.55299 -30.9389 -21.3984 
-0.24427 -30.9389 -20.3279 8.06444 -30.9389 -19.7754 16.3732 -30.9389 -19.8344 
24.6819 -30.9389 -19.419 32.9906 -30.9389 -18.0385 -41.7878 -22.6301 -19.5856 
-33.4791 -22.6301 -22.1481 -25.1704 -22.6301 -23.2486 -16.8617 -22.6301 -24.3664 
-8.55299 -22.6301 -24.3865 -0.24427 -22.6301 -24.0615 8.06444 -22.6301 -23.7189 
16.3732 -22.6301 -23.8575 24.6819 -14.4712 -25.0028 24.6819 -22.6301 -23.5792 
32.9906 -16.6458 -25.0028 32.9906 -22.6301 -23.6559 41.2993 -22.6301 -22.4867 
49.608 -22.6301 -18.3022 -50.0966 -14.3214 -17.1092 -41.7878 -14.3214 -21.0154 
-33.4791 -14.3214 -23.0982 -25.1704 -14.3214 -23.7307 -16.8617 -14.3214 -23.9442 
-8.55299 -14.3214 -24.0043 -0.24427 -14.3214 -24.0776 8.06444 -14.3214 -23.9858 
24.5374 -14.3214 -25.0028 16.3732 -14.3214 -23.4972 24.6819 -14.191 -25.0028 
36.4089 -14.3214 -25.0028 32.9906 -10.7147 -25.0028 41.2993 -14.3214 -24.295 
49.608 -14.3214 -21.4369 -41.7878 -6.01271 -20.3336 -33.4791 -6.01271 -22.0859 
-25.1704 -6.01271 -22.8036 -16.8617 -6.01271 -23.7858 -8.55299 -6.01271 -23.5906 
-0.24427 -6.01271 -23.4019 8.06444 -6.01271 -24.6785 16.3732 -6.01271 -22.4832 
24.6819 -6.01271 -23.3227 32.9906 -6.01271 -24.3279 41.2993 -6.01271 -24.1988 
49.608 -6.01271 -22.4942 -41.7878 2.296 -18.3162 -33.4791 2.296 -20.0432 
-25.1704 2.296 -21.3494 -16.8617 2.296 -23.4945 -8.55299 2.296 -23.9313 
-0.24427 2.296 -22.2255 8.06444 2.296 -23.6651 16.3732 2.296 -21.5554 
24.6819 2.296 -22.5137 32.9906 2.296 -23.5237 41.2993 2.296 -23.363 
49.608 2.296 -20.8296 -33.4791 10.6047 -17.9419 -25.1704 10.6047 -19.8885 
-16.8617 10.6047 -22.1193 -8.55299 10.6047 -22.6572 -0.24427 10.6047 -21.1192 
8.06444 10.6047 -21.4058 16.3732 10.6047 -22.3942 24.6819 10.6047 -23.0358 
32.9906 10.6047 -24.0761 41.2993 10.6047 -22.306 49.608 10.6047 -18.1744 
-25.1704 18.9134 -18.4728 -16.8617 18.9134 -20.3608 -8.55299 18.9134 -21.2174 
-0.24427 18.9134 -21.5093 8.06444 18.9134 -22.162 16.3732 18.9134 -23.3325 
24.6819 18.9134 -23.694 32.9906 18.9134 -23.1323 41.2993 18.9134 -20.236 
-16.8617 27.2221 -18.2028 -8.55299 27.2221 -19.9036 -0.24427 27.2221 -21.3835 
8.06444 27.2221 -22.4877 16.3732 27.2221 -22.9032 24.6819 27.2221 -22.8691 
32.9906 27.2221 -20.872 -8.55299 35.5309 -17.3405 -0.24427 35.5309 -19.6262 
8.06444 35.5309 -20.7172 16.3732 35.5309 -20.47 24.6819 35.5309 -18.7808 
-33.4791 -32.8356 -16.6941 -25.1704 -35.4993 -16.6941 -16.8617 -36.4203 -16.6941 
-16.8617 -39.2476 -8.48456 -8.55299 -35.5089 -16.6941 -0.24427 -33.9888 -16.6941 
8.06444 -33.5118 -16.6941 16.3732 -33.5929 -16.6941 24.6819 -33.2648 -16.6941 
32.9906 -31.9992 -16.6941 -37.5618 -30.9389 -16.6941 -41.7878 -28.033 -16.6941 
-41.7878 -30.9389 -12.5408 37.1314 -30.9389 -16.6941 41.2993 -29.6335 -16.6941 
41.2993 -30.9389 -11.9957 49.608 -24.1557 -16.6941 -48.3092 -22.6301 -16.6941 
-50.0966 -16.8588 -16.6941 -50.0966 -22.6301 -15.0343 51.118 -22.6301 -16.6941 
-50.6313 -14.3214 -16.6941 -50.0966 -9.24328 -16.6941 55.4236 -14.3214 -16.6941 
57.9167 -14.3214 -10.4375 -49.6123 -6.01271 -16.6941 -50.0966 -6.01271 -16.4229 
57.1307 -6.01271 -16.6941 57.9167 -6.01271 -14.6169 -45.2498 2.296 -16.6941 
-50.0966 2.296 -13.2006 -41.7878 6.03234 -16.6941 54.7411 2.296 -16.6941 
57.9167 2.296 -9.43914 -36.6676 10.6047 -16.6941 -41.7878 10.6047 -14.0507 
-33.4791 14.747 -16.6941 51.0247 10.6047 -16.6941 49.608 13.5371 -16.6941 
-29.9412 18.9134 -16.6941 -33.4791 18.9134 -15.076 -25.1704 23.3833 -16.6941 
46.4924 18.9134 -16.6941 41.2993 25.1545 -16.6941 49.608 18.9134 -9.73294 
-33.4791 27.2221 -9.20588 -21.1428 27.2221 -16.6941 -25.1704 27.2221 -14.9477 
-16.8617 30.6973 -16.6941 39.3403 27.2221 -16.6941 32.9906 32.4584 -16.6941 
41.2993 27.2221 -12.6773 -25.1704 35.5309 -8.84053 -10.3488 35.5309 -16.6941 
-16.8617 35.5309 -14.0014 -8.55299 36.6621 -16.6941 -0.24427 40.871 -16.6941 
8.06444 42.0838 -16.6941 16.3732 40.519 -16.6941 28.442 35.5309 -16.6941 
24.6819 37.6465 -16.6941 -8.55299 43.8396 -11.5865 -0.24427 43.8396 -14.2687 
8.06444 43.8396 -14.7299 16.3732 43.8396 -10.0442 -16.8617 -39.2751 -8.3854 
-41.7878 -32.579 -8.3854 -33.4791 -36.2475 -8.3854 -17.2422 -39.2476 -8.3854 
-25.1704 -38.6506 -8.3854 -16.5822 -39.2476 -8.3854 -16.8617 -39.2476 -7.6641 
-8.55299 -38.4367 -8.3854 -0.24427 -36.6252 -8.3854 8.06444 -35.824 -8.3854 
16.3732 -35.781 -8.3854 24.6819 -34.8584 -8.3854 32.9906 -33.6772 -8.3854 
41.2993 -31.7538 -8.3854 -44.6311 -30.9389 -8.3854 -50.0966 -26.9082 -8.3854 
42.7209 -30.9389 -8.3854 41.2993 -30.9389 -1.11379 49.608 -26.7965 -8.3854 
-54.041 -22.6301 -8.3854 54.0034 -22.6301 -8.3854 57.9167 -15.6652 -8.3854 
-57.9009 -14.3214 -8.3854 -58.4053 -14.3214 -3.19215 58.5184 -14.3214 -8.3854 
57.9167 -14.3214 -4.13707 -57.2057 -6.01271 -8.3854 -58.4053 -6.01271 -1.40248 
59.7594 -6.01271 -8.3854 -53.7346 2.296 -8.3854 -50.0966 9.33826 -8.3854 
58.2594 2.296 -8.3854 57.9167 3.24238 -8.3854 57.9167 2.296 -5.44621 
-49.1257 10.6047 -8.3854 -50.0966 10.6047 -4.36687 -41.7878 18.2735 -8.3854 
55.0029 10.6047 -8.3854 -41.2512 18.9134 -8.3854 -41.7878 18.9134 -7.45777 
50.0556 18.9134 -8.3854 49.608 19.5139 -8.3854 49.608 18.9134 -5.86866 
-34.2686 27.2221 -8.3854 -33.4791 28.1036 -8.3854 32.9906 35.1617 -8.3854 
42.8936 27.2221 -8.3854 41.2993 28.7356 -8.3854 41.2993 27.2221 -2.46081 
-25.709 35.5309 -8.3854 -25.1704 35.9974 -8.3854 -16.8617 41.9546 -8.3854 
32.4264 35.5309 -8.3854 24.6819 40.2695 -8.3854 -13.8853 43.8396 -8.3854 
-16.8617 43.8396 -5.06586 -8.55299 46.3781 -8.3854 -0.24427 47.9538 -8.3854 
8.06444 47.3004 -8.3854 17.6534 43.8396 -8.3854 16.3732 44.4439 -8.3854 
16.3732 43.8396 -4.43399 -41.7878 -32.2376 -0.0766809 -33.4791 -35.6555 -0.0766809 
-25.1704 -38.1087 -0.0766809 -16.8617 -38.9543 -0.0766809 -8.55299 -38.6751 -0.0766809 
-0.24427 -37.578 -0.0766809 8.06444 -36.348 -0.0766809 16.3732 -35.3654 -0.0766809 
24.6819 -34.409 -0.0766809 32.9906 -33.1009 -0.0766809 -44.3481 -30.9389 -0.0766809 
-50.0966 -26.9388 -0.0766809 -41.7878 -30.9389 3.33599 40.9144 -30.9389 -0.0766809 
41.2993 -30.8196 -0.0766809 49.608 -25.4221 -0.0766809 -54.1693 -22.6301 -0.0766809 
-58.4053 -15.0237 -0.0766809 -50.0966 -22.6301 7.79888 52.4086 -22.6301 -0.0766809 
49.608 -22.6301 5.08151 -58.6959 -14.3214 -0.0766809 -58.4053 -14.3214 0.566167 
57.2619 -14.3214 -0.0766809 57.9167 -9.75477 -0.0766809 -58.6027 -6.01271 -0.0766809 
-58.4053 -5.38271 -0.0766809 -58.4053 -6.01271 0.446372 58.4316 -6.01271 -0.0766809 
57.9167 -2.44101 -0.0766809 57.9167 -6.01271 0.862385 -55.7693 2.296 -0.0766809 
57.1758 2.296 -0.0766809 -50.856 10.6047 -0.0766809 -50.0966 11.7505 -0.0766809 
53.3543 10.6047 -0.0766809 49.608 17.1119 -0.0766809 49.608 10.6047 5.2705 
-45.3538 18.9134 -0.0766809 -41.7878 23.8594 -0.0766809 48.371 18.9134 -0.0766809 
41.2993 26.5136 -0.0766809 41.2993 18.9134 7.97442 -39.1639 27.2221 -0.0766809 
-33.4791 34.1729 -0.0766809 40.4833 27.2221 -0.0766809 32.9906 32.6909 -0.0766809 
32.9906 27.2221 6.96263 -32.0895 35.5309 -0.0766809 -33.4791 35.5309 7.47942 
-25.1704 41.1733 -0.0766809 16.3732 43.0202 -0.0766809 28.4397 35.5309 -0.0766809 
24.6819 37.7407 -0.0766809 24.6819 35.5309 3.00341 -21.0651 43.8396 -0.0766809 
-16.8617 46.113 -0.0766809 -8.55299 48.7174 -0.0766809 -0.24427 49.0253 -0.0766809 
14.5826 43.8396 -0.0766809 8.06444 46.4521 -0.0766809 8.06444 43.8396 4.8325 
-33.4791 -32.8988 8.23203 -25.1704 -35.3903 8.23203 -16.8617 -37.0201 8.23203 
-8.55299 -37.6949 8.23203 -0.24427 -37.5076 8.23203 8.06444 -36.3852 8.23203 
16.3732 -34.6857 8.23203 24.6819 -33.3124 8.23203 32.9906 -31.3528 8.23203 
-37.776 -30.9389 8.23203 -41.7878 -28.7992 8.23203 -33.4791 -30.9389 12.3268 
24.6819 -30.9389 14.1761 34.1418 -30.9389 8.23203 32.9906 -30.9389 9.17755 
41.2993 -27.9198 8.23203 -49.8377 -22.6301 8.23203 -50.0966 -22.2939 8.23203 
47.6842 -22.6301 8.23203 41.2993 -22.6301 15.0731 49.608 -19.4803 8.23203 
-54.5209 -14.3214 8.23203 -50.0966 -14.3214 13.9067 52.1583 -14.3214 8.23203 
49.608 -14.3214 11.1519 -55.2065 -6.01271 8.23203 -50.0966 -6.01271 14.7049 
53.4493 -6.01271 8.23203 49.608 -6.01271 12.2905 -53.4834 2.296 8.23203 
-50.0966 2.296 13.5263 41.2993 2.296 15.3595 51.2334 2.296 8.23203 
49.608 5.75397 8.23203 49.608 2.296 9.75735 -50.1922 10.6047 8.23203 
-50.0966 10.7843 8.23203 -50.0966 10.6047 8.47272 32.9906 10.6047 15.748 
46.8387 10.6047 8.23203 41.2993 18.5502 8.23203 41.2993 10.6047 12.1911 
-45.8449 18.9134 8.23203 -41.7878 25.3473 8.23203 24.6819 18.9134 15.508 
40.9729 18.9134 8.23203 32.9906 25.8532 8.23203 32.9906 18.9134 12.5865 
-40.4708 27.2221 8.23203 16.3732 27.2221 14.7889 31.0296 27.2221 8.23203 
24.6819 30.9198 8.23203 24.6819 27.2221 11.2142 -33.582 35.5309 8.23203 
-33.4791 35.6293 8.23203 -33.4791 35.5309 8.58501 -25.1704 41.892 8.23203 
8.06444 41.4684 8.23203 8.06444 35.5309 14.1679 17.1795 35.5309 8.23203 
16.3732 36.0055 8.23203 16.3732 35.5309 8.68837 -21.4534 43.8396 8.23203 
-16.8617 45.8574 8.23203 -16.8617 43.8396 12.8815 -8.55299 47.4229 8.23203 
-8.55299 43.8396 13.9167 4.30614 43.8396 8.23203 -0.24427 45.872 8.23203 
-0.24427 43.8396 11.1222 -25.1704 -31.5279 16.5408 -16.8617 -33.1964 16.5408 
-8.55299 -34.2009 16.5408 -0.24427 -34.3829 16.5408 8.06444 -33.3345 16.5408 
16.3732 -31.2396 16.5408 -41.7878 -22.6411 16.5408 -26.9321 -30.9389 16.5408 
-33.4791 -28.4219 16.5408 -25.1704 -30.9389 17.317 -16.8617 -30.9389 19.358 
-8.55299 -30.9389 20.2585 -0.24427 -30.9389 20.4813 8.06444 -30.9389 19.2794 
18.1208 -30.9389 16.5408 16.3732 -30.9389 16.8814 24.6819 -29.3409 16.5408 
32.9906 -26.1763 16.5408 -41.7998 -22.6301 16.5408 -41.7878 -22.6301 16.5497 
-33.4791 -22.6301 22.0528 8.06444 -22.6301 24.1379 16.3732 -22.6301 22.3012 
24.6819 -22.6301 21.1111 38.9125 -22.6301 16.5408 32.9906 -22.6301 19.2175 
[...]
POINT_DATA 496
SCALARS ImageScalars float
LOOKUP_TABLE default
0 0 0 0 0 0 0 0 0 
0 0 0 0 0 0 0 0 0 
0 0 0 0 0 0 0 0 0 
0 0 0 0 0 0 0 0 0 
0 0 0 0 0 0 0 0 0 
0 0 0 0 0 0 0 0 0 
0 0 0 0 0 0 0 0 0 
0 0 0 0 0 0 0 0 0 
0 0 0 0 0 0 0 0 0 
0 0 0 0 0 0 0 0 0 
0 0 0 0 0 0 0 0 0 
0 0 0 0 0 0 0 0 0 
0 0 0 0 0 0 0 0 0 
0 0 0 0 0 0 0 0 0 
0 0 0 0 0 0 0 0 0 
0 0 0 0 0 0 0 0 0 
0 0 0 0 0 0 0 0 0 
0 0 0 0 0 0 0 0 0 
0 0 0 0 0 0 0 0 0 
0 0 0 0 0 0 0 0 0 
0 0 0 0 0 0 0 0 0 
0 0 0 0 0 0 0 0 0 
0 0 0 0 0 0 0 0 0 
0 0 0 0 0 0 0 0 0 
0 0 0 0 0 0 0 0 0 
0 0 0 0 0 0 0 0 0 
0 0 0 0 0 0 0 0 0 
0 0 0 0 0 0 0 0 0 
0 0 0 0 0 0 0 0 0 
0 0 0 0 0 0 0 0 0 
0 0 0 0 0 0 0 0 0 
0 0 0 0 0 0 0 0 0 
0 0 0 0 0 0 0 0 0 
0 0 0 0 0 0 0 0 0 
0 0 0 0 0 0 0 0 0 
0 0 0 0 0 0 0 0 0 
0 0 0 0 0 0 0 0 0 
0 0 0 0 0 0 0 0 0 
0 0 0 0 0 0 0 0 0 
0 0 0 0 0 0 0 0 0 
0 0 0 0 0 0 0 0 0 
0 0 0 0 0 0 0 0 0 
0 0 0 0 0 0 0 0 0 
0 0 0 0 0 0 0 0 0 
0 0 0 0 0 0 0 0 0 
0 0 0 0 0 0 0 0 0 
0 0 0 0 0 0 0 0 0 
0 0 0 0 0 0 0 0 0 
0 0 0 0 0 0 0 0 0 
0 0 0 0 0 0 0 0 0 
0 0 0 0 0 0 0 0 0 
0 0 0 0 0 0 0 0 0 
0 0 0 0 0 0 0 0 0 
0 0 0 0 0 0 0 0 0 
0 0 0 0 0 0 0 0 0 
0 
NORMALS Normals float
0.128879 -0.0139793 0.991562 -0.0467185 0.0380282 0.998184 0.295395 0.618835 0.727863 
0.189255 0.52211 0.831615 0.0469285 0.500301 0.864579 -0.0794617 0.57402 0.814976 
-0.0877815 0.684465 0.723742 -0.0243689 0.706747 0.707046 -0.0184268 0.69514 0.718638 
-0.0837456 0.740185 0.667168 -0.185861 0.818306 0.543904 0.361231 0.300774 0.882637 
0.207784 0.235856 0.949314 0.129507 0.165098 0.977738 0.0687671 0.0982416 0.992784 
-0.0186657 0.126972 0.991731 -0.0393308 0.168048 0.984994 -0.0133856 0.204045 0.97887 
-0.00905079 0.1678 0.98578 0.12615 -0.00865884 0.991973 -0.0110288 0.270788 0.962576 
-0.0456036 0.118721 0.99188 -0.0559227 0.345185 0.936867 -0.264411 0.428784 0.863847 
-0.607803 0.536076 0.585831 0.546288 0.0349045 0.83687 0.310713 0.0435927 0.949504 
0.157471 -0.000491246 0.987523 0.0493715 -0.0259135 0.998444 0.0163535 -0.033869 0.999292 
0.0080219 -0.0471818 0.998854 -0.00111748 -0.0388843 0.999243 -0.0348081 0.0542483 0.997921 
0.127647 -0.01526 0.991702 0.0519064 -0.080193 0.995427 0.128538 -0.0162146 0.991572 
-0.117727 0.056389 0.991444 -0.00330427 -0.0300879 0.999542 -0.217025 0.0835972 0.97258 
-0.495978 0.191692 0.846912 0.294713 -0.157309 0.942549 0.143099 -0.178611 0.973458 
0.0985517 -0.140751 0.985128 0.0476612 -0.0262591 0.998518 -0.0229314 -0.00546806 0.999722 
0.0620747 -0.11156 0.991817 -0.0577218 -0.0153497 0.998215 -0.0732935 -0.117393 0.990377 
0.109481 -0.138071 0.984353 0.0519625 -0.118341 0.991612 -0.105737 -0.0583648 0.99268 
-0.387496 -0.0357846 0.921177 0.307358 -0.312216 0.898917 0.178734 -0.239997 0.954178 
0.193199 -0.168914 0.96651 0.156392 -0.0989099 0.98273 -0.0761106 -0.0569668 0.995471 
-0.0182667 -0.141553 0.989762 -0.0461496 -0.201556 0.978389 -0.0602923 -0.00491449 0.998169 
0.11826 -0.0169339 0.992838 0.0504033 -0.016322 0.998596 -0.143782 -0.103806 0.98415 
-0.480037 -0.210121 0.851712 0.288413 -0.257218 0.92231 0.23715 -0.161959 0.957878 
0.162419 -0.180432 0.970085 -0.0621852 -0.160239 0.985117 -0.0744517 -0.0407251 0.996393 
0.0766628 -0.0805653 0.993797 0.0974602 0.106802 0.989492 0.100751 0.0721753 0.99229 
-0.0333645 -0.0210114 0.999222 -0.276639 -0.177003 0.944532 -0.635335 -0.348092 0.689334 
0.278395 -0.259938 0.924623 0.154745 -0.228844 0.961085 0.066087 -0.162535 0.984487 
0.0563127 0.0160668 0.998284 0.111162 0.0653348 0.991652 0.0914341 0.0306482 0.995339 
-0.0101153 -0.00634618 0.999929 -0.192661 -0.168921 0.966616 -0.449201 -0.349847 0.822086 
0.256368 -0.318879 0.912465 0.185558 -0.211981 0.959496 0.154432 -0.110413 0.981815 
0.090236 -0.0839604 0.992375 0.0226962 -0.157061 0.987328 -0.104385 -0.256551 0.960877 
-0.380045 -0.446974 0.809802 0.29171 -0.399738 0.868973 0.181925 -0.339744 0.922755 
0.0505803 -0.364492 0.929832 -0.0989114 -0.473133 0.875421 -0.32454 -0.647193 0.689793 
0.318591 0.71482 0.622521 0.178321 0.773917 0.607663 -0.00653225 0.822999 0.568006 
-0.013023 0.992465 0.121835 -0.133075 0.828343 0.544186 -0.111972 0.850165 0.514472 
-0.0227497 0.855307 0.517622 -0.0148107 0.856243 0.51636 -0.0910488 0.867519 0.489001 
-0.192689 0.868306 0.457073 0.389982 0.678034 0.623043 0.452557 0.579415 0.677842 
0.483275 0.797767 0.360572 -0.28222 0.842808 0.458287 -0.371033 0.798466 0.474117 
-0.384893 0.895766 0.222398 -0.61799 0.626192 0.475364 0.569243 0.389213 0.724207 
0.580645 0.147199 0.800739 0.654631 0.453467 0.604835 -0.656498 0.56723 0.497253 
0.565954 0.0377113 0.823574 0.555779 -0.0840688 0.827068 -0.765776 0.273206 0.582191 
-0.942561 0.283098 0.177298 0.540969 -0.157279 0.826205 0.563092 -0.161223 0.810515 
-0.837131 -0.0333612 0.545984 -0.913747 -0.0293889 0.405219 0.416798 -0.336883 0.844268 
0.655171 -0.393569 0.644867 0.369156 -0.366667 0.853979 -0.733895 -0.277882 0.619823 
-0.953375 -0.260567 0.152255 0.345942 -0.324214 0.88046 0.47528 -0.464901 0.746978 
0.359952 -0.315135 0.878137 -0.695442 -0.37798 0.611139 -0.694201 -0.41613 0.5873 
0.365174 -0.328201 0.871167 0.455662 -0.395774 0.79733 0.337712 -0.352207 0.872869 
-0.665281 -0.457237 0.5902 -0.604999 -0.556764 0.569202 -0.812095 -0.568859 0.130003 
0.611217 -0.564634 0.554619 0.325697 -0.373625 0.86852 0.404311 -0.442231 0.800603 
0.306206 -0.36828 0.877843 -0.591187 -0.593325 0.546318 -0.498591 -0.680292 0.537225 
-0.669867 -0.686569 0.282668 0.527292 -0.628657 0.571624 0.308797 -0.412655 0.856948 
0.387937 -0.488279 0.781721 0.290319 -0.430623 0.854563 0.173548 -0.545767 0.819768 
-0.0268064 -0.657062 0.75336 -0.206107 -0.706878 0.676642 -0.432018 -0.724643 0.536892 
-0.367456 -0.750605 0.549153 0.296393 -0.718677 0.62901 0.135637 -0.7298 0.670071 
-0.0839941 -0.797031 0.59807 -0.362975 -0.912605 0.188152 -0.0128573 0.992972 0.117648 
0.453952 0.878439 0.149238 0.330844 0.93635 0.117437 -0.00431021 0.99309 0.117272 
0.177424 0.977902 0.110585 -0.01757 0.992727 0.1191 -0.00946082 0.995244 0.0969571 
-0.154371 0.974514 0.162764 -0.150799 0.969484 0.193287 -0.0489297 0.986309 0.157482 
-0.0583968 0.993519 0.0975191 -0.121738 0.990731 0.0602601 -0.173216 0.983384 0.0543271 
-0.3799 0.923582 0.0516894 0.53212 0.828087 0.176411 0.695125 0.684332 0.220207 
-0.4153 0.908284 0.0504643 -0.39282 0.904364 -0.16679 -0.601972 0.79687 0.0512588 
0.793629 0.560982 0.235482 -0.757067 0.651005 0.0551633 -0.943291 0.324626 0.0694281 
0.934057 0.146573 0.325659 0.982403 0.186525 0.00967809 -0.958705 0.276034 0.0684767 
-0.951353 0.281125 -0.126078 0.901151 -0.217453 0.375021 0.983916 -0.173512 -0.0424537 
-0.998053 -0.0158093 0.0603304 0.814065 -0.428295 0.392252 0.733831 -0.548989 0.400129 
-0.961842 -0.255593 0.0976325 -0.95699 -0.273076 0.0979784 -0.964866 -0.258949 -0.0444774 
0.711377 -0.568401 0.413356 0.791379 -0.569526 0.22217 0.666524 -0.556358 0.496197 
-0.896576 -0.433167 0.0922894 0.66781 -0.553857 0.497265 0.687047 -0.561189 0.461555 
-0.816714 -0.573636 0.0626091 -0.809932 -0.583395 0.0605067 -0.811444 -0.582185 -0.0511898 
0.628466 -0.571053 0.528137 0.620227 -0.576496 0.531951 -0.550744 -0.834646 -0.00685009 
-0.691558 -0.721462 0.0352005 -0.668293 -0.743378 0.0278134 -0.646687 -0.717967 -0.257525 
0.536914 -0.632995 0.55771 0.531282 -0.637711 0.557731 0.465198 -0.718613 0.516901 
-0.545151 -0.838299 -0.00806636 -0.49481 -0.869001 0.000728429 0.415248 -0.766503 0.489942 
0.455654 -0.810918 0.367139 0.291441 -0.83769 0.461884 0.0483837 -0.935003 0.351323 
-0.200157 -0.962943 0.180773 -0.398269 -0.913599 0.0819706 -0.379573 -0.920493 0.0928327 
-0.413311 -0.903207 -0.115716 0.41119 0.892081 -0.187389 0.317299 0.93002 -0.185427 
0.191886 0.963849 -0.184866 0.0292319 0.990948 -0.131022 -0.0790315 0.995938 -0.0431489 
-0.140359 0.988737 0.0519492 -0.130211 0.990932 0.0331457 -0.112983 0.991482 -0.0647973 
-0.132952 0.986747 -0.0930279 -0.19761 0.971142 -0.133542 0.492036 0.849123 -0.192071 
0.687862 0.697818 -0.19974 0.439908 0.859023 -0.261841 -0.383639 0.902757 -0.194554 
-0.393498 0.897803 -0.197759 -0.642811 0.722866 -0.253492 0.787529 0.595995 -0.156805 
0.95545 0.236683 -0.176342 0.644711 0.612769 -0.457014 -0.728248 0.626137 -0.278582 
-0.695247 0.577123 -0.42844 0.962407 0.203486 -0.179906 0.957124 0.2001 -0.20946 
-0.905141 0.277713 -0.321862 -0.935716 0.125032 -0.329851 0.980101 -0.161878 -0.114878 
0.97751 -0.179818 -0.11018 0.97762 -0.158177 -0.138707 -0.942511 -0.00332298 -0.334159 
-0.937343 -0.111632 -0.330041 -0.931895 -0.00382207 -0.362707 0.914675 -0.403584 -0.0221296 
-0.90964 -0.254989 -0.327927 0.836131 -0.547266 0.0372216 0.832318 -0.551744 0.053147 
-0.83248 -0.427652 -0.352264 -0.770392 -0.538752 -0.340942 -0.715744 -0.397057 -0.574506 
0.797247 -0.570737 0.196613 0.770473 -0.590845 0.239317 -0.745392 -0.571984 -0.342381 
-0.621092 -0.686542 -0.378027 -0.522895 -0.508104 -0.684405 0.754839 -0.602045 0.260307 
0.685335 -0.672649 0.279033 -0.60875 -0.6972 -0.378597 -0.506067 -0.765704 -0.396979 
-0.451562 -0.629641 -0.632174 0.664035 -0.694112 0.277968 0.687851 -0.725272 -0.0289871 
0.573866 -0.781401 0.245134 -0.427524 -0.827853 -0.363157 -0.483718 -0.777303 -0.402266 
-0.47932 -0.779642 -0.403002 -0.450326 -0.73563 -0.506019 0.495126 -0.842581 0.211913 
0.413682 -0.893361 0.175425 0.1486 -0.987613 0.0503776 -0.12457 -0.984171 -0.126058 
-0.408536 -0.846421 -0.34157 -0.343442 -0.897308 -0.277284 -0.403711 -0.791554 -0.458759 
0.335349 0.870722 -0.3597 0.229336 0.911007 -0.342741 0.128974 0.94257 -0.308104 
0.0273229 0.971162 -0.236848 -0.0758849 0.983502 -0.16421 -0.166013 0.973998 -0.154168 
-0.177941 0.961497 -0.209428 -0.186608 0.953081 -0.238357 -0.278571 0.912691 -0.298989 
0.401015 0.83875 -0.368354 0.476718 0.782754 -0.400044 0.336109 0.826844 -0.450955 
-0.207822 0.843286 -0.49566 -0.301012 0.901124 -0.312038 -0.288961 0.898924 -0.329297 
-0.477451 0.770995 -0.421434 0.635131 0.6122 -0.470976 0.646106 0.598027 -0.474247 
-0.667608 0.549448 -0.502401 -0.526335 0.504548 -0.6844 -0.722001 0.417643 -0.551624 
0.820745 0.211349 -0.530763 0.713605 0.223741 -0.663859 -0.773938 0.239051 -0.586408 
-0.716797 0.22566 -0.659757 0.861797 -0.0589463 -0.503817 0.721268 -0.00952697 -0.692591 
-0.777471 -0.0342239 -0.627987 -0.649925 -0.0698821 -0.756779 0.872592 -0.277278 -0.40212 
0.807798 -0.163661 -0.566284 -0.410664 -0.278327 -0.868268 -0.692727 -0.272048 -0.667922 
-0.663998 -0.318219 -0.676641 -0.647894 -0.280663 -0.708139 0.885996 -0.41499 -0.206867 
0.885788 -0.416561 -0.204588 0.885875 -0.411079 -0.215035 -0.304881 -0.300052 -0.90389 
-0.609974 -0.374297 -0.698451 -0.518062 -0.499279 -0.694501 -0.467537 -0.359773 -0.807448 
0.864248 -0.491892 -0.105438 0.821409 -0.569551 -0.0299704 -0.278274 -0.337919 -0.899097 
-0.514104 -0.502955 -0.694791 -0.434012 -0.587154 -0.683289 -0.369075 -0.413771 -0.832212 
0.803953 -0.594398 -0.0187188 -0.388158 -0.430017 -0.815119 -0.419528 -0.602573 -0.678897 
-0.381713 -0.616848 -0.688327 -0.350203 -0.537315 -0.767236 0.686552 -0.724767 -0.0579669 
0.684747 -0.726434 -0.0584379 0.683489 -0.726359 -0.0724316 0.521419 -0.845128 -0.117814 
-0.436486 -0.69189 -0.575124 -0.446209 -0.564997 -0.694029 -0.409554 -0.628964 -0.66081 
-0.41063 -0.629648 -0.659489 -0.411088 -0.620831 -0.667515 0.41938 -0.892857 -0.164097 
0.293034 -0.932368 -0.211708 0.22097 -0.881005 -0.418333 0.00450805 -0.936892 -0.349591 
-0.0859467 -0.804585 -0.587586 -0.376921 -0.759613 -0.530017 -0.274675 -0.831756 -0.482427 
-0.302304 -0.770014 -0.561863 0.224939 0.818815 -0.528152 0.137079 0.826431 -0.546096 
0.0624188 0.826938 -0.558818 -0.0467746 0.839519 -0.541314 -0.168221 0.815091 -0.554373 
-0.193412 0.767402 -0.611299 0.541442 0.509107 -0.669067 0.247101 0.808639 -0.533895 
0.3636 0.730397 -0.5782 0.223742 0.803439 -0.551747 0.121583 0.756388 -0.642724 
0.048388 0.704827 -0.707727 -0.0463718 0.697013 -0.715557 -0.170595 0.706159 -0.687194 
-0.196608 0.765218 -0.613015 -0.192346 0.753481 -0.628705 -0.207599 0.726347 -0.655228 
-0.327375 0.612911 -0.719142 0.541608 0.508776 -0.669185 0.541464 0.508682 -0.669373 
0.391313 0.484908 -0.782137 -0.182752 0.309159 -0.933286 -0.167111 0.322196 -0.931807 
-0.164265 0.365683 -0.916129 -0.459585 0.470978 -0.752968 -0.298443 0.409313 -0.862203 
-0.510416 0.340155 -0.789791 0.637211 0.206128 -0.742612 0.524308 0.211189 -0.824925 
-0.157667 0.117261 -0.980505 -0.150306 0.0585991 -0.986901 -0.270235 0.0582759 -0.961029 
-0.533748 0.134395 -0.834896 -0.472903 0.106752 -0.874624 0.662575 0.00753033 -0.748958 
0.512575 0.0470888 -0.85735 -0.272947 0.073343 -0.959229 -0.226457 -0.127968 -0.965578 
-0.269031 -0.154509 -0.950657 -0.461741 -0.134657 -0.876734 -0.410135 -0.217296 -0.885761 
-0.414929 -0.150751 -0.897278 0.720981 -0.0724229 -0.689159 0.540204 -0.00950875 -0.84148 
-0.392091 -0.173681 -0.903382 -0.335499 -0.245852 -0.909394 -0.352916 -0.273448 -0.894805 
-0.294932 -0.287358 -0.911285 -0.281996 -0.261657 -0.923046 0.790912 -0.213494 -0.573479 
0.626233 -0.109389 -0.771923 -0.270957 -0.283205 -0.919988 -0.376257 -0.356118 -0.855342 
-0.291335 -0.28894 -0.911941 -0.273345 -0.307307 -0.911507 -0.278677 -0.277598 -0.91939 
0.821609 -0.35508 -0.445956 0.801627 -0.428815 -0.416548 0.769207 -0.32147 -0.552247 
-0.230618 -0.172512 -0.95763 -0.376637 -0.264218 -0.887882 -0.302917 -0.322329 -0.896853 
-0.36596 -0.358641 -0.858749 -0.350993 -0.313658 -0.882283 0.727124 -0.555828 -0.402921 
0.610963 -0.669482 -0.422513 0.510217 -0.472917 -0.718351 -0.129306 -0.268386 -0.954594 
-0.275194 -0.30458 -0.911866 -0.411512 -0.402543 -0.81769 -0.450212 -0.481255 -0.752132 
-0.436501 -0.372423 -0.819004 0.518665 -0.722752 -0.456744 0.387924 -0.771884 -0.503697 
0.315656 -0.658707 -0.682983 0.13724 -0.766726 -0.627133 0.0629876 -0.545231 -0.835916 
-0.126644 -0.700869 -0.701957 -0.12608 -0.504269 -0.854293 -0.406914 -0.554442 -0.725958 
-0.332563 -0.61914 -0.711385 -0.33517 -0.541652 -0.770892 0.176162 0.446762 -0.877138 
0.0539627 0.485799 -0.872403 0.00470643 0.459492 -0.888169 -0.0800868 0.416345 -0.905672 
0.176388 0.446616 -0.877167 0.378427 0.17088 -0.909721 0.176141 0.44659 -0.877229 
0.0457823 0.445194 -0.894263 -0.00294278 0.420456 -0.907308 -0.136661 0.336518 -0.931708 
-0.0884274 0.371436 -0.924238 -0.220326 0.233436 -0.947082 0.383595 0.151843 -0.910933 
0.377946 0.149777 -0.913632 0.207493 0.193451 -0.958918 0.0685443 0.273218 -0.959507 
-0.0477875 0.29592 -0.954017 -0.172563 0.179346 -0.968533 -0.226224 0.141316 -0.96377 
-0.263577 0.156049 -0.951933 0.387391 0.0245841 -0.921588 0.378802 0.0212506 -0.925234 
0.303706 0.0488945 -0.95151 0.151825 0.14023 -0.978409 -0.108037 0.146485 -0.983296 
-0.242388 0.0299907 -0.969716 -0.270378 0.0802136 -0.959407 -0.247556 0.0857684 -0.96507 
0.385351 0.0169865 -0.922614 0.366744 0.0195211 -0.930117 0.318779 -0.0189386 -0.94764 
0.165808 -0.0846044 -0.982522 -0.155022 -0.13097 -0.979191 -0.241074 -0.145705 -0.959507 
-0.38394 -0.17121 -0.907346 -0.26262 -0.266722 -0.927302 -0.195749 -0.122753 -0.972941 
0.39916 -0.0326104 -0.916301 0.36298 -0.0255513 -0.931446 0.207103 -0.0748164 -0.975454 
0.0360528 -0.231994 -0.972049 -0.171411 -0.291098 -0.941212 -0.262228 -0.269157 -0.92671 
-0.230204 -0.173138 -0.957616 -0.225535 -0.205159 -0.952388 0.386198 -0.16786 -0.907014 
0.381078 -0.178821 -0.907085 0.376021 -0.165073 -0.911789 0.120259 -0.177595 -0.976728 
-0.0454151 -0.216562 -0.975212 -0.228032 -0.173249 -0.958116 -0.129082 -0.264066 -0.955828 
-0.128925 -0.21254 -0.96861 0.179006 -0.354823 -0.917637 0.163797 -0.358765 -0.918944 
0.161307 -0.350005 -0.922755 -0.112784 -0.272858 -0.95542 -0.00668129 -0.335052 -0.942176 
-0.0147812 -0.298494 -0.954297 
