# vtk DataFile Version 4.2
vtk output
ASCII
DATASET POLYDATA
POINTS 542 float
9.99319 2.09974 -18.451 -20.3893 -43.4739 -12.062 -12.7936 -43.4739 -13.9308 
-5.19804 -43.4739 -14.5469 2.39758 -43.4739 -13.8473 9.99319 -43.4739 -11.8769 
-27.9849 -35.8783 -13.4233 -20.3893 -35.8783 -15.0724 -12.7936 -35.8783 -16.8399 
-5.19804 -35.8783 -15.8421 2.39758 -35.8783 -15.8144 9.99319 -35.8783 -15.8274 
17.5888 -35.8783 -14.3213 25.1844 -35.8783 -12.4794 -35.5805 -28.2827 -13.4695 
-27.9849 -28.2827 -15.5129 -20.3893 -28.2827 -15.7995 -12.7936 -28.2827 -16.3381 
-5.19804 -28.2827 -15.9891 2.39758 -28.2827 -15.8696 9.99319 -28.2827 -16.3652 
17.5888 -28.2827 -16.1319 25.1844 -28.2827 -16.4362 32.78 -28.2827 -14.2841 
-43.1761 -20.6871 -12.2376 -35.5805 -20.6871 -14.9612 -27.9849 -20.6871 -15.8103 
-20.3893 -20.6871 -16.1469 -12.7936 -20.6871 -15.574 -5.19804 -20.6871 -15.071 
2.39758 -20.6871 -15.0358 9.99319 -20.6871 -15.6091 17.5888 -20.6871 -16.2948 
25.1844 -20.6871 -16.5097 32.78 -20.6871 -16.7509 40.3756 -20.6871 -14.4736 
-43.1761 -13.0915 -14.4944 -35.5805 -13.0915 -16.2113 -27.9849 -13.0915 -16.5005 
-20.3893 -13.0915 -15.5618 -12.7936 -13.0915 -14.5303 -5.19804 -13.0915 -15.1724 
2.39758 -13.0915 -15.0982 9.99319 -13.0915 -14.602 17.5888 -13.0915 -15.1481 
25.1844 -13.0915 -15.9711 32.78 -13.0915 -16.3704 40.3756 -13.0915 -16.0226 
47.9713 -13.0915 -14.4895 -50.7717 -5.49587 -12.5597 -43.1761 -5.49587 -16.3161 
-35.5805 -5.49587 -17.338 -27.9849 -5.49587 -16.9186 -20.3893 -5.49587 -15.4214 
-12.7936 -5.49587 -14.8212 -5.19804 -5.49587 -17.3519 2.39758 -5.49587 -15.9559 
9.99319 2.06498 -18.4423 9.99319 -5.49587 -16.0555 17.5888 -5.49587 -14.2035 
25.1844 -5.49587 -15.4781 32.78 -5.49587 -16.3787 40.3756 -5.49587 -16.8721 
47.9713 -5.49587 -15.6232 55.5669 -5.49587 -13.2898 -50.7717 2.09974 -15.1682 
-43.1761 2.09974 -17.8254 -35.5805 2.09974 -18.1698 -27.9849 2.09974 -17.464 
-20.3893 2.09974 -15.9174 -12.7936 2.09974 -14.4933 -5.19804 2.09974 -16.2945 
9.97549 2.09974 -18.4423 2.39758 2.09974 -13.3311 10.0076 2.09974 -18.4423 
9.99319 2.11908 -18.4423 17.5888 2.09974 -14.1526 25.1844 2.09974 -15.1123 
32.78 2.09974 -16.0733 40.3756 2.09974 -16.4639 47.9713 2.09974 -15.4184 
55.5669 2.09974 -11.9511 -50.7717 9.69536 -15.3531 -43.1761 9.69536 -17.5707 
-35.5805 9.69536 -18.0256 -27.9849 9.69536 -17.4765 -20.3893 9.69536 -15.8746 
-12.7936 9.69536 -14.675 -5.19804 9.69536 -16.8855 2.39758 9.69536 -15.7328 
9.99319 9.69536 -14.9746 17.5888 9.69536 -14.3297 25.1844 9.69536 -14.9455 
32.78 9.69536 -15.5902 40.3756 9.69536 -15.4776 47.9713 9.69536 -14.9293 
55.5669 9.69536 -12.1442 -50.7717 17.291 -12.6317 -43.1761 17.291 -16.2337 
-35.5805 17.291 -17.2266 -27.9849 17.291 -17.5546 -20.3893 17.291 -16.4266 
-12.7936 17.291 -15.3266 -5.19804 17.291 -15.0199 2.39758 17.291 -14.5648 
9.99319 17.291 -13.7813 17.5888 17.291 -14.1851 25.1844 17.291 -14.8148 
32.78 17.291 -15.311 40.3756 17.291 -14.1032 47.9713 17.291 -12.4899 
-43.1761 24.8866 -13.8425 -35.5805 24.8866 -15.6287 -27.9849 24.8866 -16.0149 
-20.3893 24.8866 -15.6885 -12.7936 24.8866 -15.0253 -5.19804 24.8866 -14.2341 
2.39758 24.8866 -14.0787 9.99319 24.8866 -13.8314 17.5888 24.8866 -13.421 
25.1844 24.8866 -13.7697 32.78 24.8866 -13.2199 40.3756 24.8866 -12.3921 
47.9713 24.8866 -10.9802 -35.5805 32.4822 -11.5315 -27.9849 32.4822 -12.7894 
-20.3893 32.4822 -12.9067 -12.7936 32.4822 -12.038 -5.19804 32.4822 -11.7872 
2.39758 32.4822 -12.3082 9.99319 32.4822 -11.7193 17.5888 32.4822 -11.2605 
25.1844 32.4822 -11.1141 -20.3893 -44.7708 -10.8467 -12.7936 -48.3758 -10.8467 
-5.19804 -49.7532 -10.8467 -5.19804 -51.0695 -5.79016 2.39758 -48.0993 -10.8467 
9.99319 -44.7324 -10.8467 -23.9711 -43.4739 -10.8467 -27.9849 -41.4599 -10.8467 
-27.9849 -43.4739 -6.92489 12.5406 -43.4739 -10.8467 17.5888 -40.6097 -10.8467 
25.1844 -37.8366 -10.8467 -33.5577 -35.8783 -10.8467 -35.5805 -33.8899 -10.8467 
-35.5805 -35.8783 -8.69551 28.7533 -35.8783 -10.8467 32.78 -33.4705 -10.8467 
32.78 -35.8783 -4.10762 -41.0822 -28.2827 -10.8467 -43.1761 -24.4414 -10.8467 
-43.1761 -28.2827 -7.30895 39.56 -28.2827 -10.8467 40.3756 -27.5053 -10.8467 
40.3756 -28.2827 -9.64008 -44.7329 -20.6871 -10.8467 47.5772 -20.6871 -10.8467 
47.9713 -20.1812 -10.8467 47.9713 -20.6871 -10.4185 -49.6457 -13.0915 -10.8467 
-50.7717 -10.4615 -10.8467 -50.7717 -13.0915 -8.58268 54.4532 -13.0915 -10.8467 
55.5669 -11.9326 -10.8467 55.5669 -13.0915 -9.81067 -52.3709 -5.49587 -10.8467 
58.66 -5.49587 -10.8467 -54.9189 2.09974 -10.8467 57.2305 2.09974 -10.8467 
63.1625 2.09974 -4.219 -55.271 9.69536 -10.8467 -58.3673 9.69536 -4.01682 
57.3871 9.69536 -10.8467 55.5669 14.0302 -10.8467 -52.6505 17.291 -10.8467 
-50.7717 21.2731 -10.8467 52.3708 17.291 -10.8467 55.5669 17.291 -9.36853 
-48.181 24.8866 -10.8467 -50.7717 24.8866 -8.0867 -43.1761 29.3077 -10.8467 
32.78 30.3678 -10.8467 40.3756 29.306 -10.8467 48.1867 24.8866 -10.8467 
47.9713 25.1095 -10.8467 -37.4017 32.4822 -10.8467 -43.1761 32.4822 -7.4091 
-35.5805 33.2271 -10.8467 -27.9849 34.9442 -10.8467 -20.3893 34.9598 -10.8467 
-12.7936 33.8938 -10.8467 -5.19804 33.8052 -10.8467 2.39758 34.6593 -10.8467 
9.99319 33.9168 -10.8467 17.5888 33.4635 -10.8467 26.8722 32.4822 -10.8467 
25.1844 32.9847 -10.8467 32.78 32.4822 -9.80108 40.3756 32.4822 -9.19227 
47.9713 32.4822 -3.28645 2.39758 40.0778 -4.24675 9.99319 40.0778 -5.0762 
17.5888 40.0778 -5.61437 25.1844 40.0778 -4.63393 32.78 40.0778 -3.38464 
-5.19804 -51.4808 -3.25109 -27.9849 -44.4241 -3.25109 -20.3893 -48.3569 -3.25109 
-10.119 -51.0695 -3.25109 -12.7936 -50.8429 -3.25109 -2.25679 -51.0695 -3.25109 
-5.19804 -51.0695 -2.27308 2.39758 -50.3171 -3.25109 9.99319 -46.9042 -3.25109 
-29.3742 -43.4739 -3.25109 -35.5805 -38.7515 -3.25109 -27.9849 -43.4739 -1.02754 
17.0198 -43.4739 -3.25109 9.99319 -43.4739 3.87339 17.5888 -43.1901 -3.25109 
25.1844 -39.9827 -3.25109 32.78 -36.1174 -3.25109 -38.6574 -35.8783 -3.25109 
-43.1761 -30.1725 -3.25109 -35.5805 -35.8783 3.24593 33.1452 -35.8783 -3.25109 
32.78 -35.8783 -2.48299 40.3756 -30.9633 -3.25109 -44.5003 -28.2827 -3.25109 
-43.1761 -28.2827 0.534152 43.7746 -28.2827 -3.25109 47.9713 -24.8747 -3.25109 
-48.7611 -20.6871 -3.25109 -50.7717 -16.4924 -3.25109 52.5846 -20.6871 -3.25109 
55.5669 -17.5339 -3.25109 -52.4023 -13.0915 -3.25109 -50.7717 -13.0915 2.44528 
58.9929 -13.0915 -3.25109 -55.631 -5.49587 -3.25109 62.9802 -5.49587 -3.25109 
63.1625 -3.58464 -3.25109 -58.0677 2.09974 -3.25109 -58.3673 6.29221 -3.25109 
63.6566 2.09974 -3.25109 63.1625 5.87021 -3.25109 63.1625 2.09974 -0.434445 
-58.6106 9.69536 -3.25109 -58.3673 10.868 -3.25109 -58.3673 9.69536 -1.63548 
62.5858 9.69536 -3.25109 -56.9814 17.291 -3.25109 60.1171 17.291 -3.25109 
55.5669 24.2208 -3.25109 -53.6349 24.8866 -3.25109 -50.7717 28.2697 -3.25109 
54.9036 24.8866 -3.25109 -46.4781 32.4822 -3.25109 -43.1761 34.7854 -3.25109 
-35.5805 38.2921 -3.25109 -27.9849 39.7141 -3.25109 -20.3893 39.4503 -3.25109 
-12.7936 38.9803 -3.25109 -5.19804 39.5374 -3.25109 40.3756 36.7199 -3.25109 
48.0085 32.4822 -3.25109 47.9713 32.5093 -3.25109 -27.9849 40.0778 1.48506 
-1.24762 40.0778 -3.25109 2.39758 40.5543 -3.25109 2.39758 40.0778 -1.40052 
9.99319 41.1386 -3.25109 17.5888 41.2669 -3.25109 25.1844 40.8908 -3.25109 
33.0162 40.0778 -3.25109 32.78 40.1691 -3.25109 -20.3893 -44.692 4.34452 
-12.7936 -46.5262 4.34452 -5.19804 -47.1057 4.34452 2.39758 -44.9202 4.34452 
-22.8366 -43.4739 4.34452 -27.9849 -39.7205 4.34452 -20.3893 -43.4739 5.57159 
-12.7936 -43.4739 7.07943 -5.19804 -43.4739 7.50215 8.48575 -43.4739 4.34452 
2.39758 -43.4739 5.60235 9.99319 -43.1088 4.34452 17.5888 -39.1293 4.34452 
25.1844 -36.8633 4.34452 -34.3902 -35.8783 4.34452 -35.5805 -34.9764 4.34452 
-27.9849 -35.8783 7.10299 -20.3893 -35.8783 10.3201 2.39758 -35.8783 11.061 
9.99319 -35.8783 9.60269 17.5888 -35.8783 8.25138 27.5498 -35.8783 4.34452 
25.1844 -35.8783 5.66682 32.78 -33.4259 4.34452 40.3756 -28.5198 4.34452 
-41.0443 -28.2827 4.34452 -43.1761 -25.2815 4.34452 -35.5805 -28.2827 8.15722 
32.78 -28.2827 9.79801 40.6645 -28.2827 4.34452 40.3756 -28.2827 4.63229 
47.9713 -22.3895 4.34452 -45.5745 -20.6871 4.34452 -43.1761 -20.6871 7.13979 
40.3756 -20.6871 10.64 49.824 -20.6871 4.34452 47.9713 -20.6871 6.2686 
55.5669 -14.8833 4.34452 -50.0347 -13.0915 4.34452 -50.7717 -11.5706 4.34452 
-43.1761 -13.0915 10.4284 47.9713 -13.0915 10.9139 57.0443 -13.0915 4.34452 
55.5669 -13.0915 6.03625 -53.2117 -5.49587 4.34452 -50.7717 -5.49587 7.93026 
61.5767 -5.49587 4.34452 55.5669 -5.49587 10.8626 -56.48 2.09974 4.34452 
-50.7717 2.09974 11.4391 62.0464 2.09974 4.34452 55.5669 2.09974 11.6914 
-57.3078 9.69536 4.34452 61.1585 9.69536 4.34452 55.5669 9.69536 10.6779 
-56.238 17.291 4.34452 59.4238 17.291 4.34452 55.5669 23.6682 4.34452 
55.5669 17.291 8.74747 -53.3651 24.8866 4.34452 -50.7717 28.3753 4.34452 
-50.7717 24.8866 9.95022 54.3164 24.8866 4.34452 47.9713 24.8866 11.259 
-47.0121 32.4822 4.34452 -43.1761 35.3266 4.34452 -43.1761 32.4822 10.3985 
-35.5805 38.8721 4.34452 -20.3893 39.647 4.34452 -12.7936 38.3334 4.34452 
-5.19804 37.7773 4.34452 -5.19804 32.4822 10.6965 2.39758 38.202 4.34452 
2.39758 32.4822 10.4804 40.3756 37.4573 4.34452 40.3756 32.4822 9.18835 
48.5474 32.4822 4.34452 47.9713 32.9024 4.34452 47.9713 32.4822 4.92433 
-29.1016 40.0778 4.34452 -25.4643 40.0778 4.34452 -27.9849 40.282 4.34452 
-27.9849 40.0778 4.88864 9.29322 40.0778 4.34452 9.99319 40.2441 4.34452 
9.99319 40.0778 4.5871 17.5888 41.1122 4.34452 17.5888 40.0778 5.94429 
25.1844 41.4645 4.34452 25.1844 40.0778 6.52685 35.1356 40.0778 4.34452 
32.78 40.8919 4.34452 32.78 40.0778 6.0314 -12.7936 -36.2767 11.9401 
-5.19804 -36.3689 11.9401 -27.9849 -28.3068 11.9401 -13.8008 -35.8783 11.9401 
-20.3893 -32.3307 11.9401 -12.7936 -35.8783 12.1788 -3.25978 -35.8783 11.9401 
-5.19804 -35.8783 12.2306 2.39758 -34.1516 11.9401 9.99319 -32.2461 11.9401 
17.5888 -32.0913 11.9401 25.1844 -30.0836 11.9401 -28.0157 -28.2827 11.9401 
[...]
POINT_DATA 542
SCALARS ImageScalars float
LOOKUP_TABLE default
0 0 0 0 0 0 0 0 0 
0 0 0 0 0 0 0 0 0 
0 0 0 0 0 0 0 0 0 
0 0 0 0 0 0 0 0 0 
0 0 0 0 0 0 0 0 0 
0 0 0 0 0 0 0 0 0 
0 0 0 0 0 0 0 0 0 
0 0 0 0 0 0 0 0 0 
0 0 0 0 0 0 0 0 0 
0 0 0 0 0 0 0 0 0 
0 0 0 0 0 0 0 0 0 
0 0 0 0 0 0 0 0 0 
0 0 0 0 0 0 0 0 0 
0 0 0 0 0 0 0 0 0 
0 0 0 0 0 0 0 0 0 
0 0 0 0 0 0 0 0 0 
0 0 0 0 0 0 0 0 0 
0 0 0 0 0 0 0 0 0 
0 0 0 0 0 0 0 0 0 
0 0 0 0 0 0 0 0 0 
0 0 0 0 0 0 0 0 0 
0 0 0 0 0 0 0 0 0 
0 0 0 0 0 0 0 0 0 
0 0 0 0 0 0 0 0 0 
0 0 0 0 0 0 0 0 0 
0 0 0 0 0 0 0 0 0 
0 0 0 0 0 0 0 0 0 
0 0 0 0 0 0 0 0 0 
0 0 0 0 0 0 0 0 0 
0 0 0 0 0 0 0 0 0 
0 0 0 0 0 0 0 0 0 
0 0 0 0 0 0 0 0 0 
0 0 0 0 0 0 0 0 0 
0 0 0 0 0 0 0 0 0 
0 0 0 0 0 0 0 0 0 
0 0 0 0 0 0 0 0 0 
0 0 0 0 0 0 0 0 0 
0 0 0 0 0 0 0 0 0 
0 0 0 0 0 0 0 0 0 
0 0 0 0 0 0 0 0 0 
0 0 0 0 0 0 0 0 0 
0 0 0 0 0 0 0 0 0 
0 0 0 0 0 0 0 0 0 
0 0 0 0 0 0 0 0 0 
0 0 0 0 0 0 0 0 0 
0 0 0 0 0 0 0 0 0 
0 0 0 0 0 0 0 0 0 
0 0 0 0 0 0 0 0 0 
0 0 0 0 0 0 0 0 0 
0 0 0 0 0 0 0 0 0 
0 0 0 0 0 0 0 0 0 
0 0 0 0 0 0 0 0 0 
0 0 0 0 0 0 0 0 0 
0 0 0 0 0 0 0 0 0 
0 0 0 0 0 0 0 0 0 
0 0 0 0 0 0 0 0 0 
0 0 0 0 0 0 0 0 0 
0 0 0 0 0 0 0 0 0 
0 0 0 0 0 0 0 0 0 
0 0 0 0 0 0 0 0 0 
0 0 
NORMALS Normals float
-0.0627727 -0.110813 0.991857 0.299121 0.59988 0.742072 0.129886 0.458714 0.87904 
-0.00236203 0.352652 0.935751 -0.180986 0.45981 0.869379 -0.312781 0.63739 0.704203 
0.299051 0.345489 0.889497 0.225966 0.191989 0.955029 0.040696 0.155804 0.986949 
-0.0614293 0.097963 0.993292 -0.00105677 0.122828 0.992427 -0.0867781 0.274241 0.957738 
-0.221354 0.427412 0.876539 -0.304973 0.625514 0.718139 0.34436 0.285875 0.894255 
0.161903 0.165063 0.972904 0.0525705 0.0647734 0.996514 0.0123604 -0.0800005 0.996718 
-0.0306795 -0.0507305 0.998241 0.0242544 -0.0507659 0.998416 0.0178556 -0.016408 0.999706 
0.00243642 0.111908 0.993716 -0.121765 0.23034 0.965462 -0.321147 0.410494 0.85344 
0.548864 0.330346 0.767868 0.18862 0.192838 0.962931 0.0713506 0.0630004 0.99546 
-0.0159734 -0.0164083 0.999738 -0.0671917 -0.118283 0.990704 -0.0357474 -0.0557534 0.997804 
0.0330355 -0.0510519 0.998149 0.0852035 -0.118734 0.989264 0.0561988 -0.0645102 0.996333 
0.0285487 -0.0312828 0.999103 -0.131488 0.134511 0.98215 -0.332359 0.293593 0.896293 
0.361367 0.220997 0.905856 0.126152 0.144429 0.981441 -0.04169 0.0718298 0.996545 
-0.1283 -0.0439525 0.990761 -0.0312549 -0.0510158 0.998209 0.0413606 0.141596 0.98906 
-0.0395356 0.0521492 0.997856 0.00579682 0.00899326 0.999943 0.091102 -0.138012 0.986232 
0.0805096 -0.0676733 0.994454 0.00467443 -0.0219125 0.999749 -0.101838 0.159246 0.981972 
-0.35459 0.287285 0.889794 0.655101 0.276371 0.70318 0.246666 0.217169 0.944454 
0.0349059 0.132645 0.990549 -0.127135 0.0639943 0.989819 -0.129823 0.0232631 0.991264 
0.112925 -0.000653131 0.993603 0.0818311 0.0764295 0.993711 -0.0875463 -0.0782999 0.993078 
-0.0632587 -0.109 0.992027 -0.134462 0.249613 0.958965 -0.00726917 -0.0669101 0.997733 
0.140687 -0.0560222 0.988468 0.0898719 -0.0194532 0.995763 -0.0629016 0.0269845 0.997655 
-0.234292 0.0395135 0.971363 -0.514271 0.0999577 0.851783 0.549725 0.133781 0.824564 
0.155589 0.0810396 0.984492 -0.0257171 0.0450753 0.998653 -0.145934 0.0348877 0.988679 
-0.188415 0.0298514 0.981636 -0.000118994 -0.00768931 0.99997 -0.0307752 -0.0346932 0.998924 
-0.0623156 -0.110745 0.991893 0.132122 0.0196671 0.991038 -0.0631087 -0.110618 0.991857 
-0.0628756 -0.111465 0.991777 -0.151649 0.00875579 0.988396 0.125882 -0.034743 0.991437 
0.0878172 -0.0516131 0.994799 -0.0517383 -0.0909496 0.994511 -0.245321 -0.0408279 0.968582 
-0.521582 -0.0830088 0.849154 0.517288 -0.126893 0.846352 0.139426 -0.102673 0.984895 
-0.00829706 -0.0658254 0.997797 -0.139879 0.00585229 0.990151 -0.187809 0.0340599 0.981615 
0.041291 0.0555134 0.997604 0.0811915 -0.101217 0.991546 -0.112461 0.0327732 0.993116 
-0.0946176 -0.259344 0.961139 0.00145088 0.00219672 0.999997 0.0844255 -0.0198459 0.996232 
0.0350917 -0.0496624 0.998149 -0.0385763 -0.15197 0.987632 -0.232021 -0.177012 0.956469 
-0.498018 -0.139655 0.855847 0.587107 -0.308392 0.748465 0.246621 -0.204767 0.947232 
0.0788414 -0.142567 0.98664 -0.0511993 -0.100964 0.993572 -0.144606 -0.01046 0.989434 
-0.0918063 0.0241015 0.995485 -0.049567 -0.151407 0.987228 -0.0804372 -0.104152 0.991303 
-0.0248116 -0.0691304 0.997299 0.0676316 -0.0590087 0.995964 0.0730845 -0.0735513 0.99461 
-0.0453571 -0.152946 0.987193 -0.165005 -0.178371 0.97003 -0.287718 -0.255 0.923143 
0.357895 -0.420988 0.833475 0.119148 -0.325493 0.938008 0.00237227 -0.275392 0.961329 
-0.0646488 -0.209854 0.975593 -0.0953008 -0.184305 0.978238 -0.058754 -0.186637 0.980671 
-0.0261377 -0.131832 0.990927 -0.0435459 -0.122697 0.991488 -0.00459164 -0.180771 0.983515 
-0.0123168 -0.238415 0.971085 -0.0766241 -0.306793 0.948687 -0.161702 -0.29596 0.941414 
-0.407551 -0.405269 0.818327 0.224438 -0.618928 0.752699 0.071009 -0.567844 0.820068 
-0.0439526 -0.549568 0.834292 -0.066609 -0.545892 0.835204 0.0167995 -0.480071 0.877069 
-0.00564425 -0.411825 0.911246 -0.0635181 -0.410108 0.909823 -0.0372821 -0.347646 0.936884 
-0.0809966 -0.416596 0.905476 0.339099 0.667837 0.662575 0.225206 0.735138 0.639417 
-0.0096492 0.802167 0.597021 -0.0223149 0.996499 0.0805757 -0.254354 0.754235 0.605338 
-0.357117 0.698512 0.62012 0.382216 0.668631 0.637843 0.420176 0.622467 0.660294 
0.51818 0.821815 0.236872 -0.35667 0.716064 0.600032 -0.329207 0.733077 0.595165 
-0.352448 0.724101 0.592839 0.501822 0.519333 0.691714 0.508819 0.508045 0.694977 
0.612495 0.639804 0.464221 -0.401739 0.716189 0.570683 -0.448589 0.687162 0.571469 
-0.5172 0.855032 0.0377586 0.609229 0.410545 0.678449 0.63894 0.396039 0.659476 
0.795518 0.517377 0.315393 -0.531635 0.61498 0.582378 -0.534226 0.604202 0.591221 
-0.569371 0.668443 0.47854 0.62845 0.377637 0.68003 -0.551352 0.498601 0.668886 
-0.548662 0.498909 0.670865 -0.572316 0.525124 0.629841 0.697668 0.347834 0.626315 
0.727099 0.328248 0.602976 0.821383 0.392323 0.41402 -0.560988 0.442894 0.699384 
-0.595013 0.395897 0.699446 -0.631844 0.475436 0.612155 0.742403 0.276606 0.610186 
-0.698946 0.133964 0.702516 0.779828 0.153595 0.606858 -0.595264 -0.0754977 0.799975 
-0.973321 -0.0244209 0.228144 0.768617 -0.11098 0.630009 0.98913 -0.0711185 0.128703 
-0.587945 -0.156413 0.793635 -0.514199 -0.280587 0.810475 0.676661 -0.298889 0.672901 
0.613342 -0.403619 0.678898 -0.420399 -0.326234 0.846662 -0.565942 -0.403788 0.718794 
0.531371 -0.488456 0.692138 0.671651 -0.543546 0.50343 0.416365 -0.588326 0.69319 
-0.0858839 -0.44009 0.893837 -0.21219 -0.44593 0.869553 -0.414741 -0.412937 0.810847 
-0.414355 -0.41611 0.809421 0.28022 -0.641021 0.714541 0.484369 -0.73607 0.472851 
0.235179 -0.650579 0.722106 0.0814305 -0.678624 0.729958 -0.0522481 -0.678111 0.7331 
-0.0576601 -0.627209 0.776714 0.0307733 -0.560689 0.827454 0.00831005 -0.547516 0.836754 
-0.0419884 -0.474623 0.879187 -0.0334588 -0.395545 0.917837 -0.0832198 -0.432304 0.89788 
-0.0871005 -0.436325 0.895563 -0.107078 -0.525886 0.843788 -0.290418 -0.619973 0.728897 
-0.55694 -0.747164 0.362716 0.0996298 -0.978249 0.181944 0.047841 -0.929735 0.365108 
-0.0182216 -0.904222 0.426674 -0.0884578 -0.900607 0.425539 -0.242325 -0.883137 0.401681 
-0.0282843 0.992386 -0.119879 0.526742 0.846586 -0.0763927 0.410127 0.910743 -0.048411 
0.110236 0.98789 -0.109182 0.186813 0.977562 -0.0973324 -0.12913 0.983362 -0.127769 
-0.0290123 0.981273 -0.190426 -0.297183 0.94639 -0.1266 -0.423328 0.899564 -0.107602 
0.546639 0.834044 -0.0745439 0.651217 0.75888 -0.00425787 0.530524 0.818058 -0.222092 
-0.416102 0.904916 -0.0893691 -0.282138 0.751706 -0.596101 -0.413658 0.906114 -0.0885694 
-0.406771 0.911054 -0.0672173 -0.515237 0.856917 -0.0149328 0.717584 0.696444 0.00618775 
0.8171 0.576258 -0.0165635 0.565228 0.658473 -0.496921 -0.519572 0.85431 -0.014139 
-0.512015 0.857225 -0.0548258 -0.596925 0.802111 0.0172886 0.838031 0.54552 -0.0105669 
0.791314 0.549881 -0.267306 -0.61962 0.784771 0.0143349 -0.647953 0.760871 0.0351018 
0.888517 0.458692 0.0118075 0.900857 0.4341 0.00372999 -0.692007 0.720496 0.0448622 
-0.754932 0.653632 0.0533167 0.907812 0.419344 0.00529198 0.837316 0.416244 -0.354462 
-0.843927 0.528399 0.092634 0.936559 0.349204 0.0302259 -0.945425 0.276925 0.171709 
-0.963399 0.204457 0.17338 0.980727 0.18521 0.0622151 0.996252 0.0461441 0.0731582 
-0.986382 -0.0207667 0.163153 -0.974355 -0.126543 0.186062 -0.998006 -0.0208299 -0.0595774 
0.994382 -0.0669752 0.0819647 0.991369 -0.0941528 0.0912278 0.998272 -0.0585217 -0.00535362 
-0.951114 -0.234827 0.200595 0.951467 -0.26669 0.15358 -0.875391 -0.412743 0.251662 
-0.751672 -0.591731 0.291279 0.804622 -0.559167 0.199789 0.734855 -0.640046 0.224343 
-0.741306 -0.607648 0.285006 0.609478 -0.751902 0.251356 0.50725 -0.822324 0.257838 
0.282919 -0.921435 0.2663 0.0732754 -0.962564 0.260961 -0.0475458 -0.972072 0.229817 
0.00585005 -0.979541 0.201161 0.102661 -0.985034 0.138449 -0.412148 -0.846461 0.337104 
-0.557929 -0.747095 0.361336 -0.55694 -0.74788 0.361237 0.0604553 -0.998171 -0.000473841 
0.105335 -0.987029 0.121151 0.106834 -0.987964 0.111867 0.118718 -0.992629 -0.0243802 
0.0489383 -0.972423 0.228031 -0.0168148 -0.96834 0.249068 -0.0712005 -0.939642 0.334668 
-0.24809 -0.885724 0.392357 -0.241898 -0.887415 0.392404 0.302115 0.712677 -0.633102 
0.127652 0.731814 -0.669443 -0.0623915 0.701263 -0.710168 -0.211637 0.680121 -0.701887 
0.353117 0.70128 -0.619286 0.430584 0.634768 -0.641613 0.282255 0.680728 -0.675975 
0.103883 0.635027 -0.765473 -0.0640992 0.613577 -0.787029 -0.25642 0.720506 -0.644298 
-0.192784 0.642031 -0.742045 -0.267572 0.729603 -0.629353 -0.277518 0.779004 -0.56226 
-0.281967 0.823098 -0.492955 0.506614 0.619132 -0.600015 0.529206 0.607085 -0.59278 
0.354645 0.548916 -0.756913 0.269834 0.454644 -0.848816 -0.152567 0.483009 -0.862222 
-0.136214 0.565323 -0.813545 -0.179043 0.732031 -0.657324 -0.323879 0.815151 -0.48024 
-0.272737 0.802872 -0.530105 -0.441102 0.766353 -0.467046 -0.557407 0.698335 -0.449027 
0.651383 0.493177 -0.576607 0.698039 0.468877 -0.541199 0.476077 0.432912 -0.765466 
-0.405483 0.568537 -0.715786 -0.559136 0.697126 -0.448757 -0.55497 0.691507 -0.462414 
-0.583247 0.677378 -0.448311 0.735411 0.42343 -0.529034 0.650996 0.391208 -0.650508 
-0.402283 0.490067 -0.773306 -0.598687 0.6627 -0.44989 -0.55424 0.623275 -0.551676 
-0.673311 0.586994 -0.449543 0.774421 0.4005 -0.489768 0.789631 0.393499 -0.470788 
0.539614 0.346395 -0.767351 -0.438792 0.36136 -0.822728 -0.707444 0.545801 -0.449026 
-0.6572 0.546629 -0.518927 0.824744 0.358955 -0.436978 0.736417 0.349771 -0.579094 
-0.846609 0.276035 -0.455037 -0.543009 0.259727 -0.798551 0.890237 0.22545 -0.395791 
0.662212 0.204668 -0.720824 -0.884528 -0.0198794 -0.466063 -0.534525 -0.00348829 -0.845146 
0.930977 -0.0167737 -0.364691 -0.873106 -0.173987 -0.455427 -0.565735 -0.158605 -0.80919 
0.929497 -0.216501 -0.298603 -0.846164 -0.338898 -0.411284 -0.752637 -0.528969 -0.392083 
-0.628749 -0.318203 -0.709522 0.846196 -0.488523 -0.212831 0.785272 -0.589932 -0.187958 
0.759319 -0.426173 -0.491743 -0.734235 -0.567337 -0.372863 -0.511815 -0.312463 -0.800258 
0.659189 -0.731234 -0.175401 0.536184 -0.830118 -0.153005 0.545751 -0.693648 -0.470115 
0.286219 -0.950446 -0.12137 -0.118803 -0.974027 -0.192764 -0.116126 -0.960978 -0.251068 
-0.0114751 -0.895461 -0.444992 -0.14795 -0.697514 -0.701131 0.130102 -0.85785 -0.497158 
0.0779626 -0.64168 -0.762999 -0.477388 -0.836323 -0.269565 -0.406367 -0.592538 -0.695532 
-0.615253 -0.722341 -0.315733 -0.598744 -0.73633 -0.315157 -0.592274 -0.72886 -0.343475 
0.0858256 -0.985524 -0.146204 -0.00517433 -0.98626 -0.165122 0.0509535 -0.987154 -0.151432 
0.047174 -0.982791 -0.178598 0.177721 -0.893942 -0.411441 0.180153 -0.897371 -0.402828 
0.181097 -0.890603 -0.41717 0.0759287 -0.943811 -0.321646 0.0821713 -0.906095 -0.415018 
-0.016909 -0.964103 -0.26499 0.00860095 -0.913857 -0.405945 -0.29917 -0.93121 -0.208197 
-0.218959 -0.953942 -0.205064 -0.211427 -0.918695 -0.333614 0.108328 0.462984 -0.879722 
-0.059767 0.485745 -0.872055 0.293131 0.400261 -0.868254 0.128809 0.454528 -0.88137 
0.230452 0.395998 -0.888863 0.109038 0.454507 -0.884044 -0.0827146 0.478362 -0.874259 
-0.0603847 0.477783 -0.8764 -0.138672 0.44711 -0.883665 -0.0590482 0.491981 -0.868601 
-0.0958766 0.590971 -0.800975 -0.25444 0.560118 -0.788371 0.293617 0.39999 -0.868215 
0.366132 0.342288 -0.865324 0.292976 0.399816 -0.868512 0.198189 0.334192 -0.921432 
0.134867 0.297109 -0.945271 -0.0390305 0.324903 -0.944942 -0.102691 0.342893 -0.933745 
-0.00961454 0.414101 -0.91018 -0.0475339 0.440821 -0.896335 -0.310548 0.511863 -0.800972 
-0.24452 0.476089 -0.844719 -0.34914 0.442309 -0.826113 0.370198 0.340538 -0.864285 
0.363183 0.339302 -0.86774 0.238017 0.273289 -0.93202 0.163124 0.202878 -0.965521 
0.122421 0.106035 -0.986798 -0.0134678 0.113469 -0.99345 -0.0683032 0.203889 -0.976608 
-0.00379177 0.148615 -0.988888 -0.0647814 0.108935 -0.991936 -0.17743 0.15365 -0.972065 
-0.3569 0.427661 -0.830499 -0.281334 0.315825 -0.906149 -0.360489 0.41606 -0.83483 
0.457006 0.318804 -0.830367 0.485327 0.334743 -0.807716 0.324356 0.285226 -0.901909 
0.152301 0.219836 -0.963575 0.0319963 0.134982 -0.990331 0.0497899 0.000584214 -0.99876 
0.0600392 -0.0577772 -0.996522 -0.0627028 0.110603 -0.991885 -0.101588 -0.0601445 -0.993007 
-0.0436316 -0.101644 -0.993864 -0.0587292 0.0109533 -0.998214 -0.119071 0.118544 -0.985784 
-0.396872 0.321693 -0.859655 -0.272047 0.245398 -0.930468 -0.372774 0.286007 -0.882745 
0.544494 0.334186 -0.769316 0.425697 0.322454 -0.845462 0.241399 0.282569 -0.928376 
0.0815989 0.203528 -0.975663 -0.0581688 0.172559 -0.98328 -0.073989 0.152533 -0.985525 
0.0981193 0.0314649 -0.994677 -0.0567973 -0.0969212 -0.99367 -0.23119 0.00787842 -0.972877 
0.0161105 -0.0863351 -0.996136 0.0440595 -0.0105355 -0.998973 -0.0361871 0.0505294 -0.998067 
-0.146077 0.102986 -0.983898 -0.431446 0.237233 -0.870388 -0.272771 0.189455 -0.943241 
0.639084 0.203158 -0.741821 0.665035 0.15244 -0.731089 0.399981 0.256294 -0.879959 
0.169234 0.233499 -0.957516 0.0297174 0.183587 -0.982554 -0.0129436 0.190135 -0.981673 
-0.0766909 0.243994 -0.96674 -0.202505 0.2124 -0.95597 -0.0868231 -0.00487339 -0.996212 
-0.0855938 0.0962355 -0.991672 -0.0566948 0.0272444 -0.99802 0.0763544 -0.010815 -0.997022 
-0.00827326 -0.00288681 -0.999962 -0.123704 -0.00393652 -0.992311 -0.509635 -0.00152679 -0.860389 
-0.271921 0.00428092 -0.96231 0.704882 0.0441331 -0.70795 0.677934 0.0495891 -0.733448 
0.403858 0.0777608 -0.911511 -0.18084 0.165503 -0.969487 -0.190212 0.0437463 -0.980768 
-0.0963216 0.116174 -0.988547 0.0135882 0.029991 -0.999458 -0.0296258 -0.0304369 -0.999098 
-0.136443 -0.0929435 -0.986278 -0.442933 -0.158425 -0.882446 -0.283238 -0.125254 -0.950835 
0.729032 -0.104982 -0.676381 0.728019 -0.195972 -0.65695 0.71381 -0.101499 -0.692945 
0.425908 -0.14303 -0.893389 -0.145859 -0.185168 -0.971822 -0.132778 -0.0883454 -0.987201 
-0.0795077 0.044525 -0.995839 -0.070813 -0.00115316 -0.997489 -0.127901 -0.0700006 -0.989314 
-0.219436 -0.0743339 -0.972791 -0.340653 -0.132111 -0.930861 -0.365258 -0.156633 -0.917634 
-0.334858 -0.127957 -0.93354 0.685406 -0.389317 -0.615346 0.530602 -0.620777 -0.577146 
0.463478 -0.334982 -0.820351 0.266799 -0.298378 -0.9164 -0.212467 -0.382167 -0.899337 
-0.168657 -0.649903 -0.741067 -0.185187 -0.493658 -0.84971 0.0533774 -0.579126 -0.813489 
-0.0280523 -0.476606 -0.87867 0.0570517 -0.317415 -0.946569 -0.0115383 -0.190193 -0.981679 
-0.100775 -0.147389 -0.983931 -0.0992799 -0.155885 -0.982773 -0.451135 -0.294429 -0.842489 
-0.283614 -0.408158 -0.867738 -0.238154 -0.28458 -0.928599 0.484768 -0.665753 -0.56725 
0.280832 -0.776075 -0.564661 0.272207 -0.611029 -0.743335 0.00149784 -0.819779 -0.572678 
0.0362144 -0.623317 -0.78113 -0.1443 -0.812218 -0.565226 -0.162088 -0.641305 -0.74997 
-0.192543 -0.682812 -0.704766 -0.23432 -0.736013 -0.635121 -0.247963 -0.664292 -0.705146 
0.146257 -0.567291 -0.810425 0.164042 -0.565206 -0.808475 0.163748 -0.55233 -0.817385 
0.111996 -0.588936 -0.800382 0.110543 -0.50328 -0.857023 -0.00281136 -0.582965 -0.812493 
-0.0194058 -0.424532 -0.905205 -0.319347 -0.43978 -0.839411 -0.27604 -0.483021 -0.830959 
-0.288437 -0.407259 -0.86657 0.155471 0.190051 -0.969386 0.0297082 0.183498 -0.982571 
-0.0128553 0.189556 -0.981786 -0.07313 0.221168 -0.97249 -0.159605 0.127594 -0.9789 
0.276093 0.0882761 -0.957069 0.13824 0.104034 -0.98492 0.0319086 0.121216 -0.992113 
-0.00600309 0.116387 -0.993186 -0.0565229 0.0792392 -0.995252 -0.156018 0.117174 -0.98078 
-0.140986 0.0893627 -0.98597 0.299551 -0.117854 -0.946773 0.253771 -0.242085 -0.93648 
0.21783 -0.083329 -0.972423 0.0400277 -0.0228681 -0.998937 -0.0534559 -0.0561509 -0.99699 
-0.16097 -0.264866 -0.950755 -0.101752 -0.130161 -0.986258 -0.121592 -0.204427 -0.971301 
-0.118494 -0.230079 -0.965931 -0.113005 -0.21053 -0.971034 0.20764 -0.286627 -0.93527 
0.051145 -0.361814 -0.930846 0.0519016 -0.254652 -0.965639 -0.152646 -0.321663 -0.934469 
-0.131316 -0.32722 -0.935779 -0.123431 -0.2963 -0.947086 
