# vtk DataFile Version 4.2
vtk output
ASCII
DATASET POLYDATA
POINTS 500 float
-14.047 -33.6606 -20.3644 -6.5793 -33.6606 -20.8759 0.888351 -33.6606 -20.4404 
-21.5146 -26.193 -23.2177 -14.047 -26.193 -24.5735 -6.5793 -26.193 -24.7097 
0.888351 -26.193 -24.3411 8.356 -26.193 -23.3246 15.8237 -26.193 -21.1483 
-28.9823 -18.7253 -23.0241 -21.5146 -18.7253 -25.2191 -14.047 -18.7253 -25.8076 
-6.5793 -18.7253 -25.7178 0.888351 -18.7253 -25.3181 8.356 -18.7253 -25.0137 
15.8237 -18.7253 -23.8598 23.2913 -18.7253 -21.2762 -28.9823 -11.2577 -24.1832 
-21.5146 -11.2577 -25.6907 -14.047 -11.2577 -26.0469 -6.5793 -11.2577 -25.8495 
0.888351 -11.2577 -25.3327 8.356 -11.2577 -25.1931 15.8237 -11.2577 -24.7306 
23.2913 -11.2577 -22.9478 -36.4499 -3.79 -20.6102 -28.9823 -3.79 -24.3086 
-21.5146 -3.79 -25.6029 -14.047 -3.79 -25.9736 -6.5793 -3.79 -26.5723 
0.888351 -3.79 -26.5932 8.356 -3.79 -26.1117 15.8237 -3.79 -25.2601 
23.2913 -3.79 -23.2972 -36.4499 3.67765 -20.4746 -28.9823 3.67765 -24.1475 
-21.5146 3.67765 -25.6389 -14.047 3.67765 -26.3847 -6.5793 3.67765 -27.5048 
0.888351 3.67765 -27.646 8.356 3.67765 -26.7191 15.8237 3.67765 -25.2923 
23.2913 3.67765 -22.903 -28.9823 11.1453 -23.5484 -21.5146 11.1453 -25.6282 
-14.047 11.1453 -26.6784 -6.5793 11.1453 -27.0935 0.888351 11.1453 -26.6631 
8.356 11.1453 -25.8912 15.8237 11.1453 -24.64 23.2913 11.1453 -22.1676 
-28.9823 18.613 -21.5621 -21.5146 18.613 -24.7577 -14.047 18.613 -26.0678 
-6.5793 18.613 -26.2506 0.888351 18.613 -25.8713 8.356 18.613 -25.5195 
15.8237 18.613 -24.142 23.2913 18.613 -21.1385 -21.5146 26.0806 -21.9871 
-14.047 26.0806 -23.9726 -6.5793 26.0806 -24.7807 0.888351 26.0806 -24.7925 
8.356 26.0806 -24.4707 15.8237 26.0806 -22.7105 -6.5793 33.5483 -20.5685 
0.888351 33.5483 -21.1878 8.356 33.5483 -20.9702 -14.047 -33.7493 -20.2833 
-6.5793 -34.3433 -20.2833 0.888351 -33.8327 -20.2833 -14.404 -33.6606 -20.2833 
-21.5146 -31.2639 -20.2833 -21.5146 -33.6606 -18.2006 1.58568 -33.6606 -20.2833 
8.356 -31.3721 -20.2833 8.356 -33.6606 -17.9743 15.8237 -27.4142 -20.2833 
-28.8815 -26.193 -20.2833 -28.9823 -26.0848 -20.2833 -28.9823 -26.193 -20.2258 
17.6209 -26.193 -20.2833 23.2913 -20.764 -20.2833 23.2913 -26.193 -16.4871 
-33.352 -18.7253 -20.2833 -36.4499 -18.7253 -17.2094 25.2783 -18.7253 -20.2833 
30.759 -18.7253 -16.8572 -36.0117 -11.2577 -20.2833 -36.4499 -7.82528 -20.2833 
-36.4499 -11.2577 -19.9195 29.085 -11.2577 -20.2833 30.759 -11.2577 -19.394 
38.2266 -11.2577 -13.5186 -36.8153 -3.79 -20.2833 30.7495 -3.79 -20.2833 
30.759 -3.79 -20.2791 38.2266 -3.79 -14.8604 -36.6598 3.67765 -20.2833 
-36.4499 4.50006 -20.2833 29.4591 3.67765 -20.2833 30.759 3.67765 -19.677 
38.2266 3.67765 -14.2643 -34.1989 11.1453 -20.2833 -36.4499 11.1453 -18.0801 
27.0809 11.1453 -20.2833 30.759 11.1453 -18.1546 -30.7241 18.613 -20.2833 
-36.4499 18.613 -13.0988 -28.9823 21.1573 -20.2833 24.7313 18.613 -20.2833 
23.2913 21.4437 -20.2833 30.759 18.613 -15.6971 -24.5592 26.0806 -20.2833 
-28.9823 26.0806 -16.3758 -21.5146 28.5361 -20.2833 -14.047 32.1513 -20.2833 
20.5443 26.0806 -20.2833 15.8237 31.3545 -20.2833 23.2913 26.0806 -18.4546 
-21.5146 33.5483 -14.5611 -8.29111 33.5483 -20.2833 -14.047 33.5483 -18.8598 
-6.5793 33.8581 -20.2833 0.888351 34.5943 -20.2833 11.3065 33.5483 -20.2833 
8.356 34.368 -20.2833 15.8237 33.5483 -18.799 -21.5146 -37.2441 -12.8157 
-14.047 -39.0369 -12.8157 -6.5793 -39.6328 -12.8157 -6.5793 -41.1283 -6.67798 
0.888351 -38.8384 -12.8157 8.356 -36.7618 -12.8157 -28.4017 -33.6606 -12.8157 
-28.9823 -33.2477 -12.8157 -28.9823 -33.6606 -11.5387 15.5949 -33.6606 -12.8157 
15.8237 -33.5472 -12.8157 15.8237 -33.6606 -12.4348 23.2913 -29.1167 -12.8157 
-35.69 -26.193 -12.8157 -36.4499 -24.8897 -12.8157 -36.4499 -26.193 -10.4166 
27.8262 -26.193 -12.8157 30.759 -23.6646 -12.8157 30.759 -26.193 -8.94971 
-39.3952 -18.7253 -12.8157 35.089 -18.7253 -12.8157 38.2266 -12.7473 -12.8157 
38.2266 -18.7253 -8.64505 -41.2401 -11.2577 -12.8157 38.8842 -11.2577 -12.8157 
-42.0572 -3.79 -12.8157 40.2125 -3.79 -12.8157 -41.6144 3.67765 -12.8157 
39.6297 3.67765 -12.8157 38.2266 8.31109 -12.8157 -39.8472 11.1453 -12.8157 
37.2174 11.1453 -12.8157 38.2266 11.1453 -11.5526 -36.6212 18.613 -12.8157 
-36.4499 18.9096 -12.8157 33.5322 18.613 -12.8157 30.759 23.1543 -12.8157 
-31.6721 26.0806 -12.8157 -28.9823 28.8937 -12.8157 28.8829 26.0806 -12.8157 
23.2913 32.7539 -12.8157 30.759 26.0806 -9.42248 -23.1676 33.5483 -12.8157 
-21.5146 34.5564 -12.8157 -14.047 37.2033 -12.8157 -6.5793 38.8056 -12.8157 
0.888351 39.6807 -12.8157 8.356 39.5769 -12.8157 22.4475 33.5483 -12.8157 
15.8237 37.6876 -12.8157 23.2913 33.5483 -11.2865 0.888351 41.0159 -7.94082 
8.356 41.0159 -7.30273 -6.5793 -41.4249 -5.34803 -28.9823 -35.2564 -5.34803 
-21.5146 -38.9408 -5.34803 -9.97106 -41.1283 -5.34803 -14.047 -40.7806 -5.34803 
-4.02565 -41.1283 -5.34803 0.888351 -40.538 -5.34803 8.356 -38.4264 -5.34803 
15.8237 -35.4594 -5.34803 -30.9609 -33.6606 -5.34803 -36.4499 -27.9343 -5.34803 
19.6995 -33.6606 -5.34803 23.2913 -31.9362 -5.34803 30.759 -27.8276 -5.34803 
-37.6813 -26.193 -5.34803 -36.4499 -26.193 0.742348 33.07 -26.193 -5.34803 
38.2266 -21.3385 -5.34803 -41.0735 -18.7253 -5.34803 40.2792 -18.7253 -5.34803 
-43.0058 -11.2577 -5.34803 43.7427 -11.2577 -5.34803 45.6943 -11.2577 1.38092 
-43.8823 -3.79 -5.34803 45.0651 -3.79 -5.34803 45.6943 -3.79 -2.95249 
-43.6106 3.67765 -5.34803 44.3785 3.67765 -5.34803 45.6943 3.67765 0.29453 
-42.006 11.1453 -5.34803 41.945 11.1453 -5.34803 38.2266 18.1852 -5.34803 
-38.9468 18.613 -5.34803 -36.4499 22.8633 -5.34803 37.9766 18.613 -5.34803 
38.2266 18.613 -4.05627 -34.2621 26.0806 -5.34803 -28.9823 31.5436 -5.34803 
32.7621 26.0806 -5.34803 30.759 28.4773 -5.34803 -26.4667 33.5483 -5.34803 
-21.5146 36.584 -5.34803 -14.047 39.3027 -5.34803 -6.5793 40.8714 -5.34803 
15.8237 39.8115 -5.34803 25.9171 33.5483 -5.34803 23.2913 35.7525 -5.34803 
-5.25803 41.0159 -5.34803 -6.5793 41.0159 -3.49233 0.888351 41.6775 -5.34803 
10.5481 41.0159 -5.34803 8.356 41.4911 -5.34803 -6.5793 -41.2821 2.11962 
-28.9823 -33.9569 2.11962 -21.5146 -38.1816 2.11962 -7.7823 -41.1283 2.11962 
-14.047 -40.336 2.11962 -5.00479 -41.1283 2.11962 -6.5793 -41.1283 2.72185 
0.888351 -40.5444 2.11962 8.356 -38.6465 2.11962 15.8237 -35.8995 2.11962 
-29.3423 -33.6606 2.11962 -28.9823 -33.6606 2.72302 21.2711 -33.6606 2.11962 
23.2913 -32.8474 2.11962 30.759 -29.2732 2.11962 -36.1073 -26.193 2.11962 
-36.4499 -25.6001 2.11962 35.3568 -26.193 2.11962 38.2266 -23.8678 2.11962 
-39.9025 -18.7253 2.11962 -36.4499 -18.7253 8.28286 42.5558 -18.7253 2.11962 
45.6943 -11.7575 2.11962 -42.2501 -11.2577 2.11962 45.8893 -11.2577 2.11962 
45.6943 -11.2577 5.76991 -43.6606 -3.79 2.11962 46.9062 -3.79 2.11962 
-43.8506 3.67765 2.11962 46.071 3.67765 2.11962 45.6943 4.78412 2.11962 
45.6943 3.67765 5.7082 -42.5563 11.1453 2.11962 43.4112 11.1453 2.11962 
-39.5909 18.613 2.11962 -36.4499 23.7011 2.11962 39.3296 18.613 2.11962 
38.2266 20.2561 2.11962 38.2266 18.613 8.23263 -34.7417 26.0806 2.11962 
-28.9823 31.8453 2.11962 34.012 26.0806 2.11962 30.759 29.721 2.11962 
-26.7965 33.5483 2.11962 -21.5146 36.8381 2.11962 -14.047 39.7852 2.11962 
15.8237 39.8543 2.11962 26.5042 33.5483 2.11962 23.2913 36.0241 2.11962 
-8.5554 41.0159 2.11962 -6.5793 41.4449 2.11962 -6.5793 41.0159 4.38479 
0.888351 42.1221 2.11962 0.888351 41.0159 7.42544 11.1356 41.0159 2.11962 
8.356 41.6742 2.11962 8.356 41.0159 4.87676 -21.5146 -34.7671 9.58727 
-14.047 -37.8488 9.58727 -6.5793 -39.2173 9.58727 0.888351 -39.0006 9.58727 
8.356 -37.5051 9.58727 15.8237 -35.1014 9.58727 -23.337 -33.6606 9.58727 
-28.9823 -28.6836 9.58727 -21.5146 -33.6606 10.9977 -14.047 -33.6606 15.1769 
19.7243 -33.6606 9.58727 15.8237 -33.6606 13.5999 23.2913 -32.3582 9.58727 
30.759 -28.9043 9.58727 -31.1094 -26.193 9.58727 -28.9823 -26.193 11.5612 
-21.5146 -26.193 16.9879 34.9406 -26.193 9.58727 30.759 -26.193 16.6591 
38.2266 -23.5715 9.58727 -35.5101 -18.7253 9.58727 -36.4499 -16.8919 9.58727 
-28.9823 -18.7253 15.3667 42.1616 -18.7253 9.58727 38.2266 -18.7253 16.7759 
-38.8723 -11.2577 9.58727 -36.4499 -11.2577 12.4902 45.4795 -11.2577 9.58727 
45.6943 -9.49813 9.58727 -41.2196 -3.79 9.58727 -36.4499 -3.79 15.3533 
46.3542 -3.79 9.58727 45.6943 0.812248 9.58727 45.6943 -3.79 10.9623 
-42.103 3.67765 9.58727 45.2144 3.67765 9.58727 -41.3239 11.1453 9.58727 
-36.4499 11.1453 16.906 42.1862 11.1453 9.58727 38.2266 18.1773 9.58727 
38.2266 11.1453 15.5634 -38.3108 18.613 9.58727 -36.4499 21.6674 9.58727 
-36.4499 18.613 12.8819 37.9456 18.613 9.58727 -33.0269 26.0806 9.58727 
-28.9823 29.9039 9.58727 -28.9823 26.0806 15.0004 32.2974 26.0806 9.58727 
30.759 27.7391 9.58727 30.759 26.0806 11.7192 -23.9879 33.5483 9.58727 
-21.5146 35.029 9.58727 -21.5146 33.5483 12.0968 -14.047 38.2554 9.58727 
-14.047 33.5483 16.2722 -6.5793 39.9164 9.58727 0.888351 40.5023 9.58727 
8.356 39.7171 9.58727 8.356 33.5483 16.9048 15.8237 37.674 9.58727 
15.8237 33.5483 14.6612 23.6185 33.5483 9.58727 23.2913 33.7814 9.58727 
23.2913 33.5483 9.91964 -6.5793 -34.4151 17.0549 0.888351 -35.0857 17.0549 
8.356 -34.1803 17.0549 -9.04881 -33.6606 17.0549 -14.047 -31.5493 17.0549 
-6.5793 -33.6606 17.8504 0.888351 -33.6606 18.7665 10.4555 -33.6606 17.0549 
8.356 -33.6606 17.7732 15.8237 -32.2215 17.0549 23.2913 -29.3339 17.0549 
-21.3942 -26.193 17.0549 -21.5146 -26.0472 17.0549 -14.047 -26.193 20.6604 
-6.5793 -26.193 23.1764 15.8237 -26.193 23.6683 30.3983 -26.193 17.0549 
23.2913 -26.193 20.781 30.759 -25.9654 17.0549 -26.4439 -18.7253 17.0549 
-28.9823 -14.317 17.0549 -21.5146 -18.7253 19.9828 -14.047 -18.7253 23.6912 
37.9975 -18.7253 17.0549 30.759 -18.7253 22.1755 38.2266 -18.2892 17.0549 
-30.6673 -11.2577 17.0549 -28.9823 -11.2577 18.1154 -21.5146 -11.2577 22.1831 
30.759 -11.2577 23.5402 41.1337 -11.2577 17.0549 38.2266 -11.2577 19.8138 
-34.3354 -3.79 17.0549 -36.4499 3.03249 17.0549 -28.9823 -3.79 20.5737 
[...]
POINT_DATA 500
SCALARS ImageScalars float
LOOKUP_TABLE default
0 0 0 0 0 0 0 0 0 
0 0 0 0 0 0 0 0 0 
0 0 0 0 0 0 0 0 0 
0 0 0 0 0 0 0 0 0 
0 0 0 0 0 0 0 0 0 
0 0 0 0 0 0 0 0 0 
0 0 0 0 0 0 0 0 0 
0 0 0 0 0 0 0 0 0 
0 0 0 0 0 0 0 0 0 
0 0 0 0 0 0 0 0 0 
0 0 0 0 0 0 0 0 0 
0 0 0 0 0 0 0 0 0 
0 0 0 0 0 0 0 0 0 
0 0 0 0 0 0 0 0 0 
0 0 0 0 0 0 0 0 0 
0 0 0 0 0 0 0 0 0 
0 0 0 0 0 0 0 0 0 
0 0 0 0 0 0 0 0 0 
0 0 0 0 0 0 0 0 0 
0 0 0 0 0 0 0 0 0 
0 0 0 0 0 0 0 0 0 
0 0 0 0 0 0 0 0 0 
0 0 0 0 0 0 0 0 0 
0 0 0 0 0 0 0 0 0 
0 0 0 0 0 0 0 0 0 
0 0 0 0 0 0 0 0 0 
0 0 0 0 0 0 0 0 0 
0 0 0 0 0 0 0 0 0 
0 0 0 0 0 0 0 0 0 
0 0 0 0 0 0 0 0 0 
0 0 0 0 0 0 0 0 0 
0 0 0 0 0 0 0 0 0 
0 0 0 0 0 0 0 0 0 
0 0 0 0 0 0 0 0 0 
0 0 0 0 0 0 0 0 0 
0 0 0 0 0 0 0 0 0 
0 0 0 0 0 0 0 0 0 
0 0 0 0 0 0 0 0 0 
0 0 0 0 0 0 0 0 0 
0 0 0 0 0 0 0 0 0 
0 0 0 0 0 0 0 0 0 
0 0 0 0 0 0 0 0 0 
0 0 0 0 0 0 0 0 0 
0 0 0 0 0 0 0 0 0 
0 0 0 0 0 0 0 0 0 
0 0 0 0 0 0 0 0 0 
0 0 0 0 0 0 0 0 0 
0 0 0 0 0 0 0 0 0 
0 0 0 0 0 0 0 0 0 
0 0 0 0 0 0 0 0 0 
0 0 0 0 0 0 0 0 0 
0 0 0 0 0 0 0 0 0 
0 0 0 0 0 0 0 0 0 
0 0 0 0 0 0 0 0 0 
0 0 0 0 0 0 0 0 0 
0 0 0 0 0 
NORMALS Normals float
-0.123878 -0.642816 -0.755938 -0.00310055 -0.628369 -0.777909 0.121567 -0.644405 -0.75496 
-0.248866 -0.381563 -0.890211 -0.0941609 -0.310419 -0.945925 0.0149475 -0.28482 -0.958465 
0.0901336 -0.287437 -0.953549 0.19207 -0.362714 -0.911893 0.348224 -0.477982 -0.806395 
-0.414213 -0.22603 -0.881668 -0.172126 -0.154307 -0.972914 -0.033723 -0.0901643 -0.995356 
0.0322443 -0.0743339 -0.996712 0.0473048 -0.0620507 -0.996951 0.0934023 -0.11938 -0.988445 
0.228539 -0.214098 -0.949701 0.383141 -0.318172 -0.867162 -0.333037 -0.0799013 -0.939522 
-0.113858 -0.0257635 -0.993163 -0.011418 -0.0110194 -0.999874 0.0477191 -0.0570376 -0.997231 
0.043825 -0.0822835 -0.995645 0.0402617 -0.0726868 -0.996542 0.143964 -0.0885781 -0.985611 
0.326204 -0.120477 -0.937591 -0.633137 -0.0266612 -0.773581 -0.282637 0.00287932 -0.959222 
-0.110543 0.00370852 -0.993864 -0.0642985 -0.022408 -0.997679 -0.041723 -0.111313 -0.992909 
0.0311627 -0.157358 -0.98705 0.0876845 -0.102109 -0.990901 0.181009 -0.0374958 -0.982766 
0.314358 0.00240314 -0.949301 -0.643995 0.107061 -0.757502 -0.299216 0.0464988 -0.953052 
-0.147256 -0.00166809 -0.989097 -0.123664 -0.046947 -0.991213 -0.0841811 -0.0345441 -0.995852 
0.0520315 -0.00298767 -0.998641 0.153835 0.0143864 -0.987992 0.244469 0.0403741 -0.968816 
0.347968 0.0710051 -0.934814 -0.398985 0.154025 -0.903929 -0.191944 0.056005 -0.979807 
-0.0988176 0.0204932 -0.994895 0.000893193 0.0844276 -0.996429 0.0804956 0.11924 -0.989597 
0.13254 0.0793624 -0.987995 0.236415 0.0730162 -0.968905 0.384916 0.107733 -0.916643 
-0.517056 0.329574 -0.789959 -0.268474 0.21698 -0.938532 -0.096728 0.170001 -0.980685 
0.0131151 0.150465 -0.988528 0.0488821 0.120139 -0.991553 0.10833 0.0937922 -0.989681 
0.271926 0.118063 -0.955048 0.455271 0.196374 -0.868427 -0.357684 0.471516 -0.806061 
-0.168112 0.381796 -0.908829 -0.0509616 0.332312 -0.941792 0.0206948 0.274612 -0.961332 
0.123636 0.266266 -0.955937 0.335181 0.281799 -0.899024 -0.10498 0.666889 -0.737725 
-0.0223407 0.607999 -0.793624 0.111955 0.601745 -0.790803 -0.12431 -0.646746 -0.752507 
-0.00308702 -0.657049 -0.753841 0.122595 -0.651901 -0.748328 -0.131419 -0.644973 -0.75282 
-0.270404 -0.581843 -0.767034 -0.297344 -0.707525 -0.641088 0.136071 -0.650967 -0.746811 
0.2544 -0.601386 -0.757375 0.29185 -0.745294 -0.599467 0.36674 -0.528706 -0.765488 
-0.473371 -0.445397 -0.759962 -0.476025 -0.442627 -0.759922 -0.477589 -0.446915 -0.756423 
0.384027 -0.505493 -0.772658 0.411628 -0.390921 -0.823251 0.479148 -0.631758 -0.609343 
-0.585793 -0.260838 -0.76734 -0.75223 -0.30168 -0.585781 0.428091 -0.33757 -0.838322 
0.569906 -0.40822 -0.713136 -0.638022 -0.141016 -0.756996 -0.64797 -0.0901613 -0.756311 
-0.6651 -0.145532 -0.732436 0.466678 -0.154779 -0.870779 0.510289 -0.170117 -0.84301 
0.707015 -0.234236 -0.667281 -0.650634 -0.0266483 -0.758923 0.462967 -0.0145376 -0.886256 
0.463192 -0.0145713 -0.886138 0.689983 -0.0356886 -0.722945 -0.654162 0.107795 -0.748634 
-0.651932 0.124521 -0.747983 0.448831 0.106911 -0.887198 0.475091 0.116249 -0.872224 
0.69741 0.145221 -0.701805 -0.610444 0.23767 -0.75556 -0.731987 0.27624 -0.622805 
0.459109 0.147542 -0.876042 0.546607 0.203883 -0.81219 -0.578006 0.348544 -0.737852 
-0.810203 0.432679 -0.395424 -0.545217 0.402088 -0.735571 0.48864 0.214884 -0.84561 
0.489893 0.265073 -0.830507 0.658135 0.333637 -0.674941 -0.450844 0.50702 -0.734622 
-0.620256 0.576998 -0.531372 -0.379418 0.565527 -0.732271 -0.220017 0.655491 -0.722443 
0.472304 0.343437 -0.811776 0.36296 0.504658 -0.783314 0.566522 0.398158 -0.721473 
-0.422491 0.79126 -0.442051 -0.133278 0.679775 -0.721209 -0.231674 0.737508 -0.634357 
-0.107836 0.679513 -0.725695 -0.0274048 0.653837 -0.756139 0.209728 0.607093 -0.766454 
0.113091 0.638625 -0.761162 0.369897 0.628313 -0.684397 -0.32487 -0.86859 -0.374181 
-0.148186 -0.913825 -0.378107 0.0126225 -0.924194 -0.381715 0.0141167 -0.989101 -0.146562 
0.174749 -0.915512 -0.362355 0.318886 -0.881967 -0.347052 -0.545861 -0.755988 -0.361272 
-0.565377 -0.741319 -0.361655 -0.571281 -0.762797 -0.302951 0.418256 -0.832827 -0.362577 
0.421554 -0.830383 -0.364358 0.420314 -0.836539 -0.351481 0.484935 -0.749818 -0.450123 
-0.772077 -0.517786 -0.368502 -0.797417 -0.479454 -0.366401 -0.814652 -0.522663 -0.251327 
0.534117 -0.685765 -0.494415 0.582614 -0.608665 -0.538598 0.558887 -0.735841 -0.382339 
-0.870725 -0.322303 -0.371428 0.662094 -0.455176 -0.595353 0.713595 -0.280001 -0.642169 
0.728318 -0.497893 -0.470803 -0.913405 -0.160782 -0.373952 0.723341 -0.23729 -0.648437 
-0.925184 -0.0228346 -0.378831 0.746755 -0.0393663 -0.663933 -0.913999 0.13384 -0.383005 
0.7393 0.150628 -0.656313 0.725028 0.245631 -0.643428 -0.874094 0.288886 -0.390517 
0.711752 0.297485 -0.636327 0.748705 0.317407 -0.581974 -0.814558 0.434124 -0.384749 
-0.811888 0.439848 -0.38389 0.715044 0.393466 -0.577838 0.714126 0.458221 -0.529204 
-0.70611 0.598648 -0.378192 -0.645167 0.664991 -0.376225 0.708009 0.502527 -0.496175 
0.621055 0.649881 -0.438116 0.740724 0.55456 -0.379198 -0.472408 0.798939 -0.372193 
-0.424716 0.824665 -0.373556 -0.255025 0.889967 -0.37805 -0.152525 0.909795 -0.386018 
-0.0467406 0.922761 -0.382527 0.11774 0.918185 -0.37825 0.593846 0.681122 -0.428274 
0.359889 0.844941 -0.39567 0.619493 0.690549 -0.373322 -0.0425174 0.972855 -0.227477 
0.117799 0.974755 -0.189675 0.0142467 -0.994806 -0.100787 -0.57322 -0.8186 -0.036235 
-0.334015 -0.940806 -0.0576082 -0.0642311 -0.993937 -0.0892408 -0.156991 -0.984663 -0.0761115 
0.0735898 -0.992006 -0.102511 0.189765 -0.976125 -0.105681 0.320554 -0.940069 -0.116258 
0.393388 -0.908541 -0.14071 -0.635301 -0.77162 -0.0315258 -0.821104 -0.570447 -0.0194793 
0.416375 -0.89407 -0.16514 0.439153 -0.875108 -0.2033 0.533072 -0.802381 -0.268362 
-0.854155 -0.519688 -0.0185373 -0.817403 -0.520849 0.246108 0.581378 -0.760869 -0.288233 
0.717773 -0.594972 -0.361678 -0.941121 -0.336766 -0.0296802 0.773782 -0.510652 -0.374827 
-0.982008 -0.178775 -0.0608278 0.881701 -0.262073 -0.392329 0.958773 -0.254042 -0.127343 
-0.994448 -0.0386784 -0.0978674 0.925562 -0.0392148 -0.37656 0.960344 -0.0311825 -0.277069 
-0.983345 0.117827 -0.138379 0.914178 0.187432 -0.359372 0.968242 0.21765 -0.123027 
-0.945256 0.281971 -0.164264 0.869193 0.365701 -0.332816 0.816195 0.496077 -0.296199 
-0.878061 0.448191 -0.167733 -0.830754 0.533852 -0.157639 0.813117 0.503015 -0.292944 
0.823007 0.513931 -0.241939 -0.776542 0.612193 -0.149002 -0.654113 0.743831 -0.1373 
0.762866 0.594339 -0.254552 0.738285 0.630916 -0.238497 -0.577734 0.805096 -0.134328 
-0.43548 0.889726 -0.136914 -0.267865 0.95045 -0.157778 -0.154259 0.974532 -0.162762 
0.334375 0.933687 -0.128146 0.65174 0.737319 -0.177751 0.588549 0.792676 -0.15898 
-0.134203 0.977759 -0.161176 -0.154549 0.98201 -0.108492 -0.0406061 0.987184 -0.154332 
0.17816 0.975438 -0.129536 0.11737 0.984459 -0.130635 -0.014817 -0.990638 0.135708 
-0.596602 -0.754887 0.272419 -0.371831 -0.899423 0.22974 -0.0437844 -0.989143 0.14028 
-0.19271 -0.966683 0.168483 0.0247014 -0.991466 0.128002 -0.018015 -0.987772 0.154863 
0.171865 -0.980367 0.096661 0.294222 -0.953997 0.0576411 0.36469 -0.93087 0.0219794 
-0.606248 -0.746809 0.273388 -0.599082 -0.744515 0.294615 0.383993 -0.923288 -0.00940346 
0.392294 -0.919549 -0.0231413 0.498781 -0.864688 -0.059431 -0.799058 -0.517451 0.306186 
-0.808285 -0.503553 0.30514 0.603103 -0.794043 -0.0759114 0.690027 -0.71758 -0.0945627 
-0.884746 -0.367706 0.286388 -0.75223 -0.373537 0.542789 0.839468 -0.534065 -0.100344 
0.958168 -0.26796 -0.100556 -0.94467 -0.231467 0.232425 0.962402 -0.252321 -0.100584 
0.965911 -0.251625 0.0608337 -0.982761 -0.101314 0.154647 0.996889 -0.0113716 -0.0779974 
-0.993469 0.0696166 0.0904023 0.973147 0.224645 -0.0501869 0.966998 0.250604 -0.0459605 
0.963439 0.240943 0.11718 -0.964527 0.261192 0.0382989 0.91658 0.399541 -0.0157583 
-0.889746 0.455022 0.0361506 -0.822107 0.567742 0.0425194 0.841716 0.53992 0.000232864 
0.828353 0.5602 0.00255486 0.803105 0.529841 0.272562 -0.774994 0.629742 0.0529984 
-0.643652 0.76143 0.0770504 0.773072 0.634007 0.0198479 0.717071 0.696009 0.0371456 
-0.585026 0.806659 0.0839414 -0.450475 0.888495 0.087453 -0.289287 0.955606 0.055946 
0.33382 0.934888 0.120619 0.62605 0.775487 0.0817357 0.554768 0.825449 0.104246 
-0.188552 0.980599 0.0536126 -0.152706 0.986739 0.0550126 -0.14746 0.978378 0.145023 
-0.0149674 0.997368 0.0709419 0.00242701 0.957448 0.288595 0.212383 0.971113 0.108777 
0.144314 0.984133 0.103227 0.153394 0.965 0.212711 -0.421066 -0.74006 0.524419 
-0.250483 -0.85664 0.451028 -0.0648976 -0.917525 0.392346 0.106789 -0.94174 0.31894 
0.241665 -0.933468 0.26502 0.318881 -0.923836 0.211759 -0.463168 -0.703203 0.539427 
-0.595697 -0.542802 0.592039 -0.430521 -0.697603 0.572714 -0.294736 -0.685982 0.665251 
0.341639 -0.918497 0.199113 0.295758 -0.889748 0.347673 0.365582 -0.910053 0.195326 
0.484169 -0.85543 0.1839 -0.642245 -0.482134 0.595876 -0.588009 -0.469313 0.65878 
-0.458723 -0.42208 0.781935 0.576227 -0.794003 0.193704 0.482601 -0.720907 0.497383 
0.679373 -0.700057 0.219939 -0.710024 -0.36958 0.599397 -0.731024 -0.355466 0.58245 
-0.552606 -0.327147 0.766552 0.829117 -0.512419 0.223588 0.661892 -0.458348 0.593142 
-0.789646 -0.301565 0.534339 -0.700695 -0.310932 0.642143 0.941263 -0.243088 0.234376 
0.952432 -0.184149 0.242823 -0.863296 -0.182303 0.470622 -0.668568 -0.213862 0.712236 
0.962396 0.0137763 0.2713 0.943005 0.160194 0.291683 0.940812 0.0204434 0.338311 
-0.91931 -0.00540153 0.393497 0.91809 0.251941 0.306002 -0.913997 0.223426 0.33866 
-0.70959 0.146701 0.689174 0.851639 0.408332 0.328598 0.789515 0.514755 0.334206 
0.66579 0.376432 0.644223 -0.845871 0.438732 0.303343 -0.801074 0.514155 0.306471 
-0.786488 0.420479 0.452364 0.784983 0.520958 0.335267 -0.696325 0.642737 0.319407 
-0.604892 0.722203 0.335453 -0.552593 0.615445 0.562022 0.695122 0.627822 0.350208 
0.665221 0.655773 0.356993 0.645279 0.614568 0.453784 -0.491817 0.795404 0.354187 
-0.439081 0.82419 0.357658 -0.423179 0.782836 0.456167 -0.28788 0.886457 0.362379 
-0.230043 0.702887 0.673075 -0.131896 0.920263 0.368401 0.0107148 0.922223 0.38651 
0.165017 0.890201 0.42463 0.165563 0.593026 0.787978 0.325255 0.835059 0.443718 
0.291461 0.681639 0.671133 0.511036 0.760286 0.401009 0.504451 0.763898 0.402479 
0.501764 0.757913 0.416895 -0.156445 -0.727121 0.668446 0.0175866 -0.803122 0.595555 
0.16015 -0.836922 0.523368 -0.207885 -0.693288 0.690026 -0.313831 -0.599458 0.736315 
-0.165954 -0.701457 0.693121 -0.00402068 -0.756952 0.653458 0.189779 -0.838991 0.509978 
0.15287 -0.82293 0.54719 0.267962 -0.830644 0.488085 0.345808 -0.786891 0.511096 
-0.456593 -0.42201 0.783218 -0.458672 -0.418721 0.783769 -0.343205 -0.43957 0.830054 
-0.231192 -0.460517 0.857015 0.216114 -0.571878 0.791359 0.473008 -0.713903 0.516339 
0.331074 -0.651772 0.682337 0.48131 -0.705622 0.520037 -0.51421 -0.306356 0.801083 
-0.509808 -0.296049 0.807744 -0.46323 -0.288253 0.83805 -0.370253 -0.278021 0.88635 
0.652228 -0.452241 0.608339 0.443192 -0.338524 0.83005 0.658111 -0.436966 0.613148 
-0.519122 -0.287949 0.804734 -0.488639 -0.283157 0.82526 -0.43214 -0.241145 0.868967 
0.336959 -0.055977 0.939854 0.726819 -0.171236 0.665141 0.613657 -0.147474 0.775678 
-0.59275 -0.221372 0.774365 -0.668954 -0.0871967 0.738172 -0.473047 -0.232767 0.849733 
-0.35746 -0.189143 0.914575 0.282622 0.111201 0.952764 0.703351 0.0549926 0.708712 
0.558435 0.0755646 0.826099 -0.674945 -0.0747492 0.734072 -0.695218 0.04897 0.717129 
-0.670284 -0.0755359 0.738251 -0.459333 -0.0957058 0.883093 0.199028 0.142386 0.969595 
0.294279 0.178557 0.938891 0.649135 0.221619 0.727673 0.61477 0.304697 0.727473 
0.570823 0.214444 0.792575 -0.702285 0.144313 0.697115 -0.472846 0.0989691 0.875569 
0.281943 0.132204 0.950279 0.249679 0.161364 0.954789 0.57797 0.34512 0.739488 
0.37851 0.254605 0.889891 -0.63579 0.381894 0.670766 -0.524952 0.531176 0.665039 
-0.491486 0.352141 0.796516 -0.284654 0.319537 0.903808 0.182689 0.352448 0.917826 
0.213108 0.285074 0.934515 0.309802 0.289241 0.905738 0.534817 0.393113 0.747953 
0.523644 0.408072 0.747846 0.511266 0.381142 0.770284 -0.468056 0.580489 0.666301 
-0.365099 0.63657 0.679324 -0.334942 0.53406 0.77627 -0.217067 0.670819 0.709143 
-0.151595 0.49494 0.855601 -0.013815 0.469463 0.882844 0.0861655 0.451802 0.887947 
0.164518 0.584488 0.794548 0.1441 0.435511 0.888575 0.238996 0.569546 0.786446 
0.20111 0.446764 0.871755 0.383315 0.517908 0.764749 0.362086 0.526778 0.769024 
0.352447 0.506242 0.787083 -0.168193 0.673691 0.719619 -0.0884287 0.673862 0.733546 
-0.0812435 0.641055 0.763183 0.152144 0.591474 0.79184 0.053301 0.635884 0.769942 
0.058648 0.598295 0.799127 -0.107343 -0.492046 0.863926 0.0598675 -0.55602 0.82901 
-0.128511 -0.478551 0.868604 -0.242899 -0.367939 0.897564 -0.110086 -0.481811 0.869333 
0.122185 -0.54378 0.830286 0.0548311 -0.530095 0.846164 0.21122 -0.493605 0.843647 
0.303174 -0.310661 0.900875 -0.334593 -0.266286 0.903957 -0.341578 -0.227705 0.911852 
-0.252463 -0.233892 0.938913 -0.138403 -0.229261 0.963475 0.0395237 -0.23919 0.970168 
0.20788 -0.229777 0.950783 0.323732 -0.261632 0.909256 0.296298 -0.247618 0.922439 
-0.343139 -0.191403 0.919576 -0.302294 -0.167153 0.938445 -0.192549 -0.0381966 0.980544 
-0.126329 0.016334 0.991854 0.0493392 0.0245499 0.99848 0.210735 0.0554887 0.975967 
0.301966 -0.0124121 0.953238 0.268561 0.0329232 0.9627 -0.327977 -0.174499 0.928429 
-0.339557 -0.154434 0.927821 -0.17109 -0.097837 0.980386 -0.0797468 -0.00861597 0.996778 
-0.0757738 0.0559166 0.995556 0.0792654 0.110707 0.990687 0.221893 0.180061 0.958301 
0.199372 0.143581 0.969348 0.192939 0.146236 0.970252 0.192324 0.147102 0.970243 
-0.340385 -0.0845738 0.936475 -0.300919 -0.078522 0.950411 -0.122179 -0.0417879 0.991628 
-0.0443698 -0.0552438 0.997487 -0.00767609 -0.0254136 0.999648 0.171784 0.0752653 0.982255 
0.2365 0.124984 0.963559 0.277871 0.129957 0.951787 0.253462 0.118011 0.96012 
-0.343523 0.0942818 0.9344 -0.288117 0.21466 0.933225 -0.292998 0.0976452 0.951114 
-0.151161 0.103877 0.983036 -0.0632994 0.0721186 0.995385 0.0539828 0.116545 0.991717 
0.280729 0.13411 0.950371 0.185525 0.345415 0.919929 0.230775 0.183097 0.955625 
-0.214241 0.313362 0.925151 -0.144383 0.353309 0.924298 -0.146943 0.310264 0.939225 
-0.0178846 0.389912 0.920678 -0.0271037 0.320682 0.946799 0.177031 0.35388 0.918384 
0.098714 0.398672 0.911766 0.10297 0.366761 0.924599 
