# vtk DataFile Version 4.2
vtk output
ASCII
DATASET POLYDATA
POINTS 578 float
0.21215 -49.469 -14.67 8.91674 -49.469 -15.6898 17.6213 -49.469 -15.1757 
-17.197 -40.7644 -15.3426 -8.49244 -40.7644 -17.2919 0.21215 -40.7644 -18.7045 
8.91674 -40.7644 -19.185 17.6213 -40.7644 -19.6217 26.3259 -40.7644 -18.9049 
35.0305 -40.7644 -15.8409 -25.9016 -32.0598 -15.7721 -17.197 -32.0598 -17.9466 
-8.49244 -32.0598 -18.9577 0.21215 -32.0598 -19.582 8.91674 -32.0598 -20.3735 
17.6213 -32.0598 -20.8775 26.3259 -32.0598 -20.9796 35.0305 -32.0598 -20.244 
43.7351 -32.0598 -16.1285 -34.6062 -23.3552 -15.1545 -25.9016 -23.3552 -17.4797 
-17.197 -23.3552 -19.0687 -8.49244 -23.3552 -19.3767 0.21215 -23.3552 -19.2865 
8.91674 -23.3552 -19.7057 17.6213 -23.3552 -20.4839 26.3259 -23.3552 -21.183 
35.0305 -23.3552 -20.7819 43.7351 -23.3552 -19.0537 -34.6062 -14.6506 -16.412 
-25.9016 -14.6506 -18.3199 -17.197 -14.6506 -19.3131 -8.49244 -14.6506 -19.7019 
0.21215 -14.6506 -19.0774 8.91674 -14.6506 -18.46 17.6213 -14.6506 -19.7658 
26.3259 -14.6506 -20.8221 35.0305 -14.6506 -21.5948 43.7351 -14.6506 -20.0254 
52.4397 -14.6506 -16.7387 -43.3108 -5.94603 -14.6557 -34.6062 -5.94603 -17.3397 
-25.9016 -5.94603 -18.661 -17.197 -5.94603 -19.4201 -8.49244 -5.94603 -20.5364 
0.21215 -5.94603 -20.7154 8.91674 -5.94603 -21.9632 17.6213 -5.94603 -19.1547 
26.3259 -5.94603 -19.9489 35.0305 -5.94603 -20.6885 43.7351 -5.94603 -20.3737 
52.4397 -5.94603 -18.6397 -43.3108 2.75856 -16.1281 -34.6062 2.75856 -18.6542 
-25.9016 2.75856 -19.0462 -17.197 2.75856 -19.7769 -8.49244 2.75856 -21.7514 
0.21215 2.75856 -19.0582 8.91674 2.75856 -22.8769 17.6213 2.75856 -18.6964 
26.3259 2.75856 -19.4382 35.0305 2.75856 -20.4216 43.7351 2.75856 -20.2892 
52.4397 2.75856 -18.3305 -43.3108 11.4631 -17.6609 -34.6062 11.4631 -19.8126 
-25.9016 11.4631 -19.4854 -17.197 11.4631 -18.5471 -8.49244 11.4631 -19.479 
0.21215 11.4631 -20.8163 8.91674 11.4631 -19.2651 17.6213 11.4631 -18.1401 
26.3259 11.4631 -19.6751 35.0305 11.4631 -20.3877 43.7351 11.4631 -20.0851 
52.4397 11.4631 -18.4319 -43.3108 20.1677 -17.975 -34.6062 20.1677 -19.9797 
-25.9016 20.1677 -19.9247 -17.197 20.1677 -18.9319 -8.49244 20.1677 -18.591 
0.21215 20.1677 -18.7428 8.91674 20.1677 -18.5832 17.6213 20.1677 -19.2457 
26.3259 20.1677 -20.2174 35.0305 20.1677 -20.8232 43.7351 20.1677 -20.3188 
52.4397 20.1677 -17.0081 -43.3108 28.8723 -17.4026 -34.6062 28.8723 -19.5439 
-25.9016 28.8723 -20.5351 -17.197 28.8723 -20.3298 -8.49244 28.8723 -20.4731 
0.21215 28.8723 -20.0283 8.91674 28.8723 -20.2234 17.6213 28.8723 -20.3575 
26.3259 28.8723 -21.1018 35.0305 28.8723 -19.7242 43.7351 28.8723 -18.0248 
-34.6062 37.5769 -18.1352 -25.9016 37.5769 -19.9667 -17.197 37.5769 -20.786 
-8.49244 37.5769 -21.7678 0.21215 37.5769 -20.862 8.91674 37.5769 -20.9878 
17.6213 37.5769 -20.2883 26.3259 37.5769 -19.8822 35.0305 37.5769 -18.2629 
43.7351 37.5769 -14.6116 -34.6062 46.2815 -15.0739 -25.9016 46.2815 -17.9857 
-17.197 46.2815 -20.1709 -8.49244 46.2815 -20.1836 0.21215 46.2815 -19.9754 
8.91674 46.2815 -19.9872 17.6213 46.2815 -18.444 26.3259 46.2815 -17.0772 
-17.197 54.9861 -15.7053 -8.49244 54.9861 -16.6025 0.21215 54.9861 -16.0255 
0.21215 -49.9445 -14.292 8.91674 -51.1823 -14.292 17.6213 -50.4855 -14.292 
-25.9016 -49.469 -6.79746 -17.197 -42.8123 -14.292 -17.197 -49.469 -10.1809 
-1.76038 -49.469 -14.292 -8.49244 -47.0436 -14.292 -8.49244 -49.469 -12.6967 
20.8355 -49.469 -14.292 26.3259 -47.3351 -14.292 26.3259 -49.469 -11.4533 
35.0305 -42.7046 -14.292 -43.3108 -40.7644 -5.59413 -34.6062 -40.7644 -8.95895 
-20.7924 -40.7644 -14.292 -25.9016 -36.4115 -14.292 -25.9016 -40.7644 -12.6829 
37.5673 -40.7644 -14.292 43.7351 -34.9787 -14.292 43.7351 -40.7644 -6.32974 
-43.3108 -32.0598 -9.22213 -30.4812 -32.0598 -14.292 -34.6062 -26.7955 -14.292 
-34.6062 -32.0598 -12.8807 46.2953 -32.0598 -14.292 -52.0154 -23.3552 -6.19973 
-36.8524 -23.3552 -14.292 -43.3108 -23.3552 -11.8163 51.8337 -23.3552 -14.292 
52.4397 -22.2901 -14.292 52.4397 -23.3552 -13.709 -52.0154 -14.6506 -8.6612 
-41.8598 -14.6506 -14.292 -43.3108 -9.85444 -14.292 -43.3108 -14.6506 -13.8103 
55.8445 -14.6506 -14.292 -44.0202 -5.94603 -14.292 -52.0154 -5.94603 -9.67443 
58.4686 -5.94603 -14.292 61.1443 -5.94603 -9.94623 -46.7438 2.75856 -14.292 
-52.0154 2.75856 -10.9812 58.7412 2.75856 -14.292 61.1443 2.75856 -11.1197 
-49.4244 11.4631 -14.292 -52.0154 11.4631 -12.4546 58.6827 11.4631 -14.292 
61.1443 11.4631 -10.7905 -48.7411 20.1677 -14.292 -52.0154 20.1677 -11.1445 
57.3863 20.1677 -14.292 52.4397 27.1938 -14.292 61.1443 20.1677 -7.21279 
-47.6039 28.8723 -14.292 -52.0154 28.8723 -8.47026 -43.3108 37.3189 -14.292 
51.0295 28.8723 -14.292 52.4397 28.8723 -12.9189 -43.0824 37.5769 -14.292 
-43.3108 37.5769 -14.1377 35.0305 44.4489 -14.292 44.2532 37.5769 -14.292 
43.7351 38.0282 -14.292 -36.0961 46.2815 -14.292 -43.3108 46.2815 -7.71373 
-34.6062 47.4819 -14.292 -25.9016 52.6344 -14.292 8.91674 54.9103 -14.292 
17.6213 52.0555 -14.292 32.7427 46.2815 -14.292 26.3259 49.5151 -14.292 
35.0305 46.2815 -10.1059 -21.5949 54.9861 -14.292 -25.9016 54.9861 -11.8802 
-17.197 56.6956 -14.292 -8.49244 57.6126 -14.292 8.67521 54.9861 -14.292 
0.21215 56.9121 -14.292 8.91674 54.9861 -14.1619 17.6213 54.9861 -7.44447 
-25.9016 -50.5643 -5.5874 -17.197 -53.9449 -5.5874 -8.49244 -56.1298 -5.5874 
-8.49244 -58.1736 2.76489 0.21215 -56.6012 -5.5874 8.91674 -56.574 -5.5874 
17.6213 -55.2046 -5.5874 26.3259 -52.2253 -5.5874 -43.3108 -40.7734 -5.5874 
-29.0186 -49.469 -5.5874 -34.6062 -46.5244 -5.5874 -34.6062 -49.469 -2.84427 
31.5683 -49.469 -5.5874 35.0305 -47.4441 -5.5874 43.7351 -41.1492 -5.5874 
-43.3196 -40.7644 -5.5874 44.1859 -40.7644 -5.5874 43.7351 -40.7644 0.524709 
-49.104 -32.0598 -5.5874 -52.0154 -25.535 -5.5874 -52.0154 -32.0598 -3.2371 
52.3327 -32.0598 -5.5874 52.4397 -31.904 -5.5874 -52.6991 -23.3552 -5.5874 
57.2588 -23.3552 -5.5874 -55.1614 -14.6506 -5.5874 60.4894 -14.6506 -5.5874 
61.1443 -12.5358 -5.5874 -56.6094 -5.94603 -5.5874 63.0945 -5.94603 -5.5874 
-57.4175 2.75856 -5.5874 63.6014 2.75856 -5.5874 -57.0007 11.4631 -5.5874 
63.6907 11.4631 -5.5874 -55.784 20.1677 -5.5874 61.6447 20.1677 -5.5874 
61.1443 21.1226 -5.5874 61.1443 20.1677 -2.73837 -53.6765 28.8723 -5.5874 
-52.0154 33.041 -5.5874 56.5654 28.8723 -5.5874 52.4397 33.6315 -5.5874 
-49.87 37.5769 -5.5874 48.177 37.5769 -5.5874 43.7351 41.2067 -5.5874 
43.7351 37.5769 2.50499 -44.2788 46.2815 -5.5874 -43.3108 47.3532 -5.5874 
-43.3108 46.2815 0.0401972 -34.6062 54.2265 -5.5874 26.3259 52.2594 -5.5874 
36.7185 46.2815 -5.5874 35.0305 47.5951 -5.5874 35.0305 46.2815 -2.80544 
-33.2932 54.9861 -5.5874 -25.9016 58.4276 -5.5874 -17.197 60.31 -5.5874 
-8.49244 60.6071 -5.5874 0.21215 59.7187 -5.5874 8.91674 57.8666 -5.5874 
19.0901 54.9861 -5.5874 17.6213 55.6045 -5.5874 17.6213 54.9861 -4.08068 
-8.49244 -58.2384 3.11719 -34.6062 -52.9838 3.11719 -25.9016 -55.8586 3.11719 
-9.13229 -58.1736 3.11719 -17.197 -57.3535 3.11719 -3.96015 -58.1736 3.11719 
-8.49244 -58.1736 3.38104 0.21215 -58.1139 3.11719 8.91674 -57.1875 3.11719 
17.6213 -54.8935 3.11719 26.3259 -51.5852 3.11719 -41.0663 -49.469 3.11719 
-43.3108 -47.972 3.11719 30.162 -49.469 3.11719 26.3259 -49.469 7.66686 
35.0305 -46.7772 3.11719 -50.5475 -40.7644 3.11719 -52.0154 -38.7971 3.11719 
43.5314 -40.7644 3.11719 43.7351 -40.5957 3.11719 -55.9512 -32.0598 3.11719 
51.8894 -32.0598 3.11719 52.4397 -31.1389 3.11719 -59.0874 -23.3552 3.11719 
56.5591 -23.3552 3.11719 52.4397 -23.3552 10.5072 -60.5845 -14.6506 3.11719 
59.0604 -14.6506 3.11719 61.1443 -6.85542 3.11719 -60.7053 -5.94603 3.11719 
61.3743 -5.94603 3.11719 61.1443 -5.94603 3.51706 -59.7727 2.75856 3.11719 
62.0917 2.75856 3.11719 61.1443 2.75856 4.71545 -58.6025 11.4631 3.11719 
62.0546 11.4631 3.11719 61.1443 15.5629 3.11719 61.1443 11.4631 4.64559 
-56.2542 20.1677 3.11719 59.9738 20.1677 3.11719 -53.0416 28.8723 3.11719 
-52.0154 31.2658 3.11719 -52.0154 28.8723 5.03178 43.7351 37.2534 3.11719 
43.7351 28.8723 11.7888 53.7584 28.8723 3.11719 52.4397 30.2479 3.11719 
52.4397 28.8723 5.04323 -48.9263 37.5769 3.11719 -43.3108 45.4658 3.11719 
-43.3108 37.5769 11.3261 43.2398 37.5769 3.11719 35.0305 43.1174 3.11719 
35.0305 37.5769 8.7134 -42.5888 46.2815 3.11719 -34.6062 53.1959 3.11719 
-34.6062 46.2815 11.7134 17.6213 52.0578 3.11719 17.6213 46.2815 10.1501 
30.1145 46.2815 3.11719 26.3259 48.3713 3.11719 26.3259 46.2815 5.58558 
-30.6321 54.9861 3.11719 -25.9016 56.7492 3.11719 -25.9016 54.9861 5.78819 
-17.197 58.0792 3.11719 -17.197 54.9861 7.60759 -8.49244 57.8969 3.11719 
-8.49244 54.9861 7.70426 0.21215 57.0445 3.11719 0.21215 54.9861 6.03792 
8.98228 54.9861 3.11719 8.91674 55.0055 3.11719 8.91674 54.9861 3.1466 
-34.6062 -52.3096 11.8218 -25.9016 -54.559 11.8218 -17.197 -55.4751 11.8218 
-8.49244 -55.7124 11.8218 0.21215 -55.6373 11.8218 8.91674 -53.8679 11.8218 
17.6213 -50.8389 11.8218 -41.0286 -49.469 11.8218 -43.3108 -48.046 11.8218 
-34.6062 -49.469 16.0876 -25.9016 -49.469 16.5767 -17.197 -49.469 17.256 
-8.49244 -49.469 17.6695 0.21215 -49.469 17.3411 8.91674 -49.469 16.1618 
21.0213 -49.469 11.8218 17.6213 -49.469 13.2948 26.3259 -46.8608 11.8218 
35.0305 -41.8152 11.8218 -50.8377 -40.7644 11.8218 -52.0154 -38.8039 11.8218 
-43.3108 -40.7644 19.2479 -34.6062 -40.7644 20.2188 -25.9016 -40.7644 20.4181 
-17.197 -40.7644 20.389 -8.49244 -40.7644 20.4307 8.91674 -40.7644 20.2702 
17.6213 -40.7644 18.6101 26.3259 -40.7644 16.4164 36.5677 -40.7644 11.8218 
35.0305 -40.7644 12.9307 43.7351 -34.655 11.8218 -55.1064 -32.0598 11.8218 
-52.0154 -32.0598 15.8408 -43.3108 -32.0598 20.3746 17.6213 -32.0598 20.2356 
26.3259 -32.0598 19.5064 35.0305 -32.0598 17.874 46.1412 -32.0598 11.8218 
43.7351 -32.0598 13.672 -58.2719 -23.3552 11.8218 -52.0154 -23.3552 17.2752 
-17.197 -23.3552 20.2923 -8.49244 -23.3552 20.2469 17.6213 -23.3552 20.1888 
26.3259 -23.3552 20.3135 35.0305 -23.3552 19.7507 51.3894 -23.3552 11.8218 
[...]
POINT_DATA 578
SCALARS ImageScalars float
LOOKUP_TABLE default
0 0 0 0 0 0 0 0 0 
0 0 0 0 0 0 0 0 0 
0 0 0 0 0 0 0 0 0 
0 0 0 0 0 0 0 0 0 
0 0 0 0 0 0 0 0 0 
0 0 0 0 0 0 0 0 0 
0 0 0 0 0 0 0 0 0 
0 0 0 0 0 0 0 0 0 
0 0 0 0 0 0 0 0 0 
0 0 0 0 0 0 0 0 0 
0 0 0 0 0 0 0 0 0 
0 0 0 0 0 0 0 0 0 
0 0 0 0 0 0 0 0 0 
0 0 0 0 0 0 0 0 0 
0 0 0 0 0 0 0 0 0 
0 0 0 0 0 0 0 0 0 
0 0 0 0 0 0 0 0 0 
0 0 0 0 0 0 0 0 0 
0 0 0 0 0 0 0 0 0 
0 0 0 0 0 0 0 0 0 
0 0 0 0 0 0 0 0 0 
0 0 0 0 0 0 0 0 0 
0 0 0 0 0 0 0 0 0 
0 0 0 0 0 0 0 0 0 
0 0 0 0 0 0 0 0 0 
0 0 0 0 0 0 0 0 0 
0 0 0 0 0 0 0 0 0 
0 0 0 0 0 0 0 0 0 
0 0 0 0 0 0 0 0 0 
0 0 0 0 0 0 0 0 0 
0 0 0 0 0 0 0 0 0 
0 0 0 0 0 0 0 0 0 
0 0 0 0 0 0 0 0 0 
0 0 0 0 0 0 0 0 0 
0 0 0 0 0 0 0 0 0 
0 0 0 0 0 0 0 0 0 
0 0 0 0 0 0 0 0 0 
0 0 0 0 0 0 0 0 0 
0 0 0 0 0 0 0 0 0 
0 0 0 0 0 0 0 0 0 
0 0 0 0 0 0 0 0 0 
0 0 0 0 0 0 0 0 0 
0 0 0 0 0 0 0 0 0 
0 0 0 0 0 0 0 0 0 
0 0 0 0 0 0 0 0 0 
0 0 0 0 0 0 0 0 0 
0 0 0 0 0 0 0 0 0 
0 0 0 0 0 0 0 0 0 
0 0 0 0 0 0 0 0 0 
0 0 0 0 0 0 0 0 0 
0 0 0 0 0 0 0 0 0 
0 0 0 0 0 0 0 0 0 
0 0 0 0 0 0 0 0 0 
0 0 0 0 0 0 0 0 0 
0 0 0 0 0 0 0 0 0 
0 0 0 0 0 0 0 0 0 
0 0 0 0 0 0 0 0 0 
0 0 0 0 0 0 0 0 0 
0 0 0 0 0 0 0 0 0 
0 0 0 0 0 0 0 0 0 
0 0 0 0 0 0 0 0 0 
0 0 0 0 0 0 0 0 0 
0 0 0 0 0 0 0 0 0 
0 0 0 0 0 0 0 0 0 
0 0 
NORMALS Normals float
-0.137552 -0.593598 -0.792919 -0.0280835 -0.57463 -0.817932 0.145821 -0.654314 -0.74203 
-0.240449 -0.369162 -0.897722 -0.183158 -0.301296 -0.935774 -0.104371 -0.250338 -0.962516 
-0.0545269 -0.249388 -0.966867 0.0107994 -0.285046 -0.958453 0.198592 -0.401741 -0.89396 
0.399637 -0.549326 -0.733847 -0.268054 -0.246663 -0.931292 -0.172408 -0.199734 -0.964563 
-0.09057 -0.116065 -0.989104 -0.081227 -0.0349452 -0.996083 -0.0741348 -0.0268429 -0.996887 
-0.0344536 -0.0503267 -0.998138 0.0310155 -0.116487 -0.992708 0.249322 -0.245545 -0.936774 
0.500761 -0.403746 -0.765655 -0.301014 -0.184631 -0.935576 -0.212191 -0.13662 -0.967631 
-0.106475 -0.0766798 -0.991354 -0.0122478 -0.0427051 -0.999013 -0.0190674 0.028139 -0.999422 
-0.0682746 0.108978 -0.991697 -0.0870056 0.0624155 -0.994251 -0.017885 0.00844888 -0.999804 
0.113444 -0.0740946 -0.990778 0.351797 -0.216688 -0.910651 -0.248661 -0.117771 -0.961404 
-0.164048 -0.0665544 -0.984205 -0.077526 -0.019681 -0.996796 0.0100106 -0.0669215 -0.997708 
0.0758241 -0.0756818 -0.994245 -0.0381483 -0.0957486 -0.994674 -0.135602 0.0781884 -0.987673 
-0.102153 0.0726054 -0.992115 0.0508093 0.00711285 -0.998683 0.253243 -0.0667345 -0.965098 
0.509196 -0.245802 -0.824803 -0.380322 -0.119761 -0.917067 -0.220212 -0.12427 -0.967504 
-0.114785 -0.0407281 -0.992555 -0.108695 -0.0266013 -0.993719 -0.0723528 -0.112597 -0.991003 
-0.0748969 -0.00474016 -0.99718 0.106116 -0.264852 -0.958432 0.089626 0.0598337 -0.994177 
-0.0877876 0.0762092 -0.99322 -0.024347 0.0660009 -0.997522 0.11793 -0.0160269 -0.992893 
0.397066 -0.0863486 -0.913719 -0.364336 -0.154424 -0.918375 -0.153151 -0.13676 -0.978694 
-0.0632265 -0.0479786 -0.996845 -0.15018 0.0475743 -0.987513 0.0208263 0.0331132 -0.999235 
-0.0485913 -0.0043046 -0.998809 0.0455355 0.133321 -0.990026 0.172673 0.0622803 -0.983008 
-0.0974971 0.0166733 -0.995096 -0.0482429 0.0172622 -0.998686 0.1102 0.0165269 -0.993772 
0.369641 0.012349 -0.929093 -0.360972 -0.0955052 -0.927674 -0.0926722 -0.0750907 -0.992861 
0.0703479 -0.050993 -0.996218 0.0126696 0.0490619 -0.998715 -0.132314 0.190528 -0.972724 
0.012797 0.0361175 -0.999266 0.156002 0.233444 -0.959775 -0.0305596 -0.0332279 -0.99898 
-0.132772 -0.0458493 -0.990086 -0.0215335 -0.0235584 -0.99949 0.114993 -0.000424138 -0.993366 
0.362081 0.0746311 -0.929154 -0.393771 0.016928 -0.919053 -0.100999 0.0179621 -0.994724 
0.0597393 -0.059634 -0.996431 0.0763278 -0.103014 -0.991747 0.0112716 -0.0632241 -0.997936 
0.000487532 0.029671 -0.99956 -0.0298185 -0.0652162 -0.997426 -0.0924346 -0.129283 -0.98729 
-0.0892089 -0.0781043 -0.992946 -0.00894317 0.0376316 -0.999252 0.213018 0.101734 -0.971737 
0.423109 0.232805 -0.87566 -0.439203 0.160494 -0.883936 -0.170231 0.0933856 -0.980969 
-0.0496995 0.000727366 -0.998764 0.00400771 -0.105867 -0.994372 0.0176164 -0.175891 -0.984252 
0.0127276 -0.123997 -0.992201 -0.0189036 -0.130604 -0.991254 -0.0494265 -0.0596398 -0.996996 
0.0356376 0.0248223 -0.999056 0.161225 0.132544 -0.977977 0.298109 0.306002 -0.904154 
-0.284998 0.217251 -0.933584 -0.133961 0.127382 -0.982766 -0.107716 0.00507961 -0.994169 
-0.00360858 0.0284118 -0.99959 0.043785 0.00579538 -0.999024 0.0325627 0.00492656 -0.999458 
0.0656356 0.0956345 -0.99325 0.100867 0.212523 -0.971936 0.320075 0.297858 -0.899351 
0.505713 0.538682 -0.673852 -0.397073 0.453196 -0.798089 -0.233715 0.342416 -0.910016 
-0.111983 0.259435 -0.959246 0.0114799 0.257131 -0.966308 0.0118827 0.240228 -0.970644 
0.0764275 0.331858 -0.940228 0.170977 0.385255 -0.906833 0.229561 0.570212 -0.788771 
-0.180475 0.620588 -0.763085 -0.0183749 0.63065 -0.77585 0.123914 0.666926 -0.734748 
-0.134629 -0.611536 -0.779678 -0.021487 -0.65302 -0.757035 0.157388 -0.696347 -0.700235 
-0.294215 -0.670635 -0.680945 -0.242351 -0.424125 -0.872573 -0.240697 -0.636884 -0.732423 
-0.153576 -0.588817 -0.793542 -0.206722 -0.485994 -0.849162 -0.201272 -0.591024 -0.781141 
0.215363 -0.693345 -0.687671 0.305443 -0.668998 -0.677603 0.35503 -0.798438 -0.486261 
0.432414 -0.620281 -0.654423 -0.491664 -0.473571 -0.730751 -0.359942 -0.444167 -0.820462 
-0.273834 -0.375024 -0.885648 -0.29286 -0.31091 -0.904195 -0.316055 -0.391983 -0.863979 
0.47012 -0.593731 -0.653048 0.547632 -0.504015 -0.667883 0.643747 -0.736854 -0.206486 
-0.45546 -0.336125 -0.824364 -0.283051 -0.27993 -0.917345 -0.301681 -0.232566 -0.924609 
-0.311338 -0.313622 -0.897056 0.577656 -0.449016 -0.681688 -0.659088 -0.216143 -0.720337 
-0.32693 -0.18767 -0.926227 -0.42108 -0.20824 -0.882795 0.601493 -0.359185 -0.713578 
0.60823 -0.35421 -0.710346 0.637884 -0.374746 -0.672807 -0.631694 -0.160011 -0.758525 
-0.332646 -0.148242 -0.931327 -0.368119 -0.133873 -0.920091 -0.356726 -0.153355 -0.921536 
0.659148 -0.267898 -0.702677 -0.396804 -0.1155 -0.910608 -0.614172 -0.101178 -0.78266 
0.716866 -0.114446 -0.687754 0.916485 -0.156223 -0.368307 -0.461456 -0.15129 -0.874168 
-0.652238 -0.126997 -0.7473 0.688952 -0.0100283 -0.724738 0.89013 -0.0232454 -0.455114 
-0.534238 -0.0524245 -0.843707 -0.667583 -0.0190679 -0.744291 0.688079 0.044676 -0.724259 
0.889908 0.0722943 -0.450374 -0.618553 0.069705 -0.782645 -0.794003 0.144392 -0.590517 
0.653342 0.285554 -0.701144 0.584864 0.423603 -0.691733 0.920214 0.358452 -0.15722 
-0.634635 0.188364 -0.749505 -0.886685 0.268952 -0.376104 -0.552063 0.36846 -0.747974 
0.579289 0.43441 -0.689719 0.659741 0.497591 -0.563156 -0.547848 0.372049 -0.749295 
-0.559609 0.377927 -0.73757 0.49445 0.68299 -0.537628 0.521599 0.549488 -0.652684 
0.515353 0.558151 -0.650291 -0.444054 0.480178 -0.756469 -0.726149 0.638557 -0.254858 
-0.418749 0.504995 -0.754738 -0.296014 0.614383 -0.731374 0.2095 0.742929 -0.635741 
0.253587 0.745431 -0.616463 0.45359 0.724473 -0.519033 0.307928 0.752517 -0.582149 
0.557658 0.808616 -0.187503 -0.25313 0.667521 -0.700244 -0.327601 0.783282 -0.528343 
-0.196827 0.688176 -0.698336 -0.00792902 0.761365 -0.648275 0.207625 0.744487 -0.634532 
0.134448 0.760024 -0.635836 0.211097 0.751664 -0.624852 0.327528 0.942342 -0.0686757 
-0.290824 -0.705839 -0.64592 -0.243967 -0.797315 -0.552059 -0.129422 -0.889547 -0.438127 
-0.0463887 -0.998809 0.0151414 -0.019664 -0.9307 -0.365253 0.0761917 -0.960329 -0.268261 
0.243438 -0.951549 -0.187864 0.393364 -0.904516 -0.164665 -0.49177 -0.473836 -0.730507 
-0.323836 -0.669882 -0.668123 -0.374191 -0.582223 -0.721802 -0.412407 -0.719376 -0.558944 
0.469556 -0.870598 -0.146891 0.520862 -0.840592 -0.148686 0.644468 -0.744426 -0.174616 
-0.491875 -0.473675 -0.730542 0.650199 -0.739198 -0.175578 0.640257 -0.761759 0.0989664 
-0.582428 -0.357269 -0.730162 -0.659374 -0.249896 -0.709068 -0.703656 -0.385184 -0.597077 
0.788907 -0.579872 -0.203406 0.791213 -0.576875 -0.202972 -0.67099 -0.218205 -0.708632 
0.897546 -0.40736 -0.168726 -0.727926 -0.162944 -0.666013 0.944725 -0.311918 -0.101001 
0.955351 -0.278169 -0.0996322 -0.77059 -0.0953745 -0.630154 0.978266 -0.175032 -0.11117 
-0.861381 -0.0117631 -0.507823 0.992949 -0.0342658 -0.113481 -0.930308 0.0850719 -0.356777 
0.98652 0.105434 -0.125147 -0.932788 0.185362 -0.309107 0.928142 0.366767 -0.0635124 
0.918973 0.389598 -0.0608484 0.925647 0.371376 0.0725038 -0.925981 0.305949 -0.221257 
-0.899748 0.391567 -0.19269 0.80587 0.588056 -0.0690137 0.729821 0.683446 -0.0162029 
-0.854974 0.488214 -0.175117 0.658793 0.7514 0.0372877 0.620655 0.781465 0.0640306 
0.519573 0.74159 0.424368 -0.754737 0.643993 -0.125081 -0.729689 0.67237 -0.12439 
-0.734668 0.659897 0.157477 -0.545516 0.827356 -0.133767 0.401761 0.914313 0.0511906 
0.574244 0.814724 0.0804316 0.550315 0.83233 0.0661764 0.559306 0.800389 0.215764 
-0.510625 0.850363 -0.127062 -0.327043 0.937164 -0.121519 -0.11717 0.992652 -0.0302255 
0.0341475 0.999328 0.013357 0.152954 0.988077 0.0175885 0.208659 0.977828 0.0177248 
0.335627 0.941307 0.0359867 0.323456 0.945701 0.0320321 0.330089 0.937261 0.112171 
-0.043455 -0.998583 0.0307204 -0.417598 -0.883467 -0.212362 -0.23545 -0.957678 -0.165577 
-0.0499768 -0.998467 0.0237909 -0.133691 -0.988836 -0.0657963 0.0102929 -0.999444 0.0317152 
-0.042625 -0.998206 0.0420459 0.0597604 -0.997672 0.0328367 0.176498 -0.977271 0.117433 
0.296078 -0.933974 0.200075 0.42487 -0.875849 0.228852 -0.539655 -0.799368 -0.264166 
-0.580689 -0.766599 -0.274092 0.460174 -0.857635 0.229569 0.414102 -0.809233 0.416728 
0.501489 -0.83441 0.228624 -0.728059 -0.618059 -0.296535 -0.76748 -0.574017 -0.285445 
0.621306 -0.753893 0.213598 0.625111 -0.750799 0.213393 -0.886514 -0.398259 -0.235546 
0.810691 -0.542873 0.219245 0.823862 -0.520998 0.223185 -0.941998 -0.257456 -0.215307 
0.890675 -0.367532 0.267616 0.755169 -0.271739 0.596554 -0.982058 -0.0817762 -0.169928 
0.907375 -0.24458 0.341836 0.913035 -0.170219 0.370665 -0.996267 0.0470777 -0.0723585 
0.913461 -0.161046 0.373703 0.906672 -0.159877 0.390366 -0.991914 0.116051 0.0513632 
0.930181 -0.0382866 0.365099 0.897656 -0.0369528 0.439146 -0.972016 0.206029 0.112859 
0.921679 0.108868 0.372364 0.901192 0.22851 0.368288 0.890868 0.107416 0.44138 
-0.937401 0.294117 0.186477 0.85849 0.364156 0.36109 -0.883376 0.379798 0.274593 
-0.868343 0.409485 0.279825 -0.849335 0.385417 0.360671 0.507111 0.731474 0.455834 
0.39132 0.563571 0.7275 0.664553 0.638508 0.38817 0.63937 0.657518 0.398593 
0.627872 0.635977 0.448676 -0.823111 0.488288 0.289937 -0.714071 0.630683 0.303877 
-0.617374 0.395228 0.680179 0.504576 0.730379 0.46038 0.484831 0.687944 0.540067 
0.373133 0.638326 0.673284 -0.695224 0.649826 0.30723 -0.495537 0.808008 0.318695 
-0.366609 0.576894 0.729925 0.313318 0.803644 0.505952 0.281766 0.674285 0.682603 
0.444184 0.719755 0.533529 0.382689 0.756577 0.530227 0.386403 0.70382 0.596096 
-0.385217 0.852687 0.352893 -0.252361 0.88551 0.390111 -0.236406 0.831381 0.502909 
-0.0594034 0.900058 0.431703 -0.066227 0.787436 0.612828 0.056769 0.898029 0.436258 
0.0612622 0.785996 0.615189 0.153513 0.869499 0.469472 0.15797 0.804323 0.572808 
0.244949 0.852297 0.462158 0.244253 0.852698 0.461787 0.244329 0.852091 0.462865 
-0.33763 -0.87741 0.34082 -0.171746 -0.868907 0.464225 -0.0582123 -0.867763 0.493558 
-0.00801628 -0.865697 0.500505 0.0905008 -0.841677 0.532344 0.225581 -0.793736 0.564886 
0.3066 -0.741912 0.596291 -0.496641 -0.801314 0.333532 -0.550637 -0.765449 0.332995 
-0.263763 -0.696099 0.66774 -0.0564088 -0.608156 0.791811 -0.0607798 -0.542365 0.837941 
-0.00518818 -0.498889 0.86665 0.0777307 -0.542079 0.836725 0.190936 -0.604995 0.772997 
0.335858 -0.728803 0.596696 0.296808 -0.693933 0.656019 0.373213 -0.686425 0.624126 
0.449759 -0.653983 0.608295 -0.748937 -0.572532 0.333618 -0.776157 -0.528996 0.343138 
-0.373267 -0.394151 0.839831 -0.0529451 -0.231824 0.971316 -0.00774492 -0.275463 0.96128 
-0.000622231 -0.195452 0.980713 -0.0164176 -0.183343 0.982912 0.115049 -0.256409 0.959697 
0.199581 -0.323885 0.924806 0.266297 -0.472781 0.839979 0.466911 -0.641348 0.608824 
0.433434 -0.621385 0.652699 0.538539 -0.535316 0.650702 -0.842002 -0.377691 0.385203 
-0.690748 -0.296095 0.659693 -0.232986 -0.138113 0.962623 0.101565 -0.083419 0.991325 
0.124368 -0.201149 0.971633 0.302813 -0.314377 0.899706 0.585197 -0.479679 0.653798 
0.509002 -0.455421 0.730417 -0.877484 -0.201259 0.435336 -0.592599 -0.0578127 0.80342 
0.0668013 0.10665 0.99205 -0.0560475 0.0803364 0.995191 0.0465718 0.0349682 0.998303 
0.0235018 -0.0789011 0.996605 0.176467 -0.155782 0.971901 0.700052 -0.253804 0.667466 
0.42078 -0.246944 0.872905 0.710283 -0.175903 0.681584 -0.885169 -0.00980044 0.465166 
-0.482503 0.0391531 0.875019 -0.1912 0.128623 0.973087 0.103636 0.0820105 0.991228 
0.0328464 0.00837101 0.999425 -0.166799 -0.0567796 0.984355 0.144647 -0.0298269 0.989034 
-0.0423082 0.026238 0.99876 0.392512 -0.0752509 0.916663 0.704613 -0.136518 0.696336 
0.69346 -0.131818 0.708334 -0.816527 0.148963 0.557757 -0.492869 0.127906 0.860651 
-0.192231 0.0799326 0.978089 -0.0328395 0.0601071 0.997652 0.0050633 0.000667104 0.999987 
-0.0750602 -0.109563 0.991142 0.0628262 -0.00404147 0.998016 -0.0344451 0.006239 0.999387 
0.104675 0.0168659 0.994363 0.329967 0.00265614 0.943989 0.66399 -0.101062 0.74088 
0.601269 -0.0844266 0.794574 -0.73413 0.203548 0.647782 -0.553541 0.172159 0.814833 
-0.252664 0.0807815 0.964176 -0.0907133 0.0160352 0.995748 -0.0637248 -0.0173581 0.997817 
-0.0410948 -0.136651 0.989766 0.0281858 0.000561794 0.999603 0.319722 -0.0313346 0.946993 
0.654179 -0.0208829 0.756052 0.58372 -0.0140705 0.811833 -0.687546 0.194993 0.69947 
-0.636033 0.17679 0.751138 -0.317312 0.108269 0.94212 -0.114762 0.0400421 0.992586 
0.00355323 -0.000956086 0.999993 0.0728935 0.0920449 0.993083 -0.129366 0.125743 0.983592 
0.014874 -0.0283454 0.999488 0.321517 0.085627 0.943024 0.651327 0.104997 0.751498 
0.586558 0.103129 0.803314 -0.706482 0.246747 0.663325 -0.706315 0.247065 0.663384 
-0.706033 0.246646 0.663839 -0.381099 0.194137 0.903922 -0.194365 0.0736546 0.97816 
-0.0126698 0.0297915 0.999476 0.093216 0.0448922 0.994633 -0.0329853 0.017546 0.999302 
-0.175953 0.163296 0.97076 0.0976775 0.0123307 0.995142 0.0673572 0.168348 0.983424 
0.1538 0.259807 0.953334 0.390992 0.562208 0.72873 0.337369 0.335593 0.879522 
0.596909 0.305936 0.741689 0.595754 0.30873 0.74146 0.595449 0.305593 0.743003 
-0.611251 0.319598 0.724037 -0.598 0.374827 0.70845 -0.520384 0.265543 0.811595 
-0.279882 0.167528 0.945304 -0.0215895 0.108797 0.99383 0.0618115 0.0832774 0.994608 
-0.0202463 0.0561471 0.998217 -0.130672 0.136456 0.98199 0.186957 0.180856 0.965577 
0.201707 0.342661 0.91755 0.390367 0.562869 0.728555 0.322999 0.585455 0.743582 
0.267579 0.479393 0.835813 -0.589556 0.385259 0.709929 -0.364076 0.571009 0.735797 
-0.329389 0.341075 0.880438 -0.10532 0.274418 0.955825 0.035986 0.224552 0.973797 
0.0282404 0.225951 0.973729 -0.0192554 0.302861 0.95284 0.0448719 0.414575 0.908908 
0.273955 0.62119 0.734215 0.234378 0.439834 0.866957 0.348402 0.562199 0.750032 
0.357045 0.551339 0.754019 0.349667 0.522638 0.777549 -0.357056 0.574392 0.736604 
-0.166061 0.612308 0.772983 -0.149478 0.539613 0.828538 -0.0561188 0.610356 0.790137 
-0.0230196 0.497195 0.867333 0.0563036 0.587485 0.807274 0.0494107 0.445298 0.894018 
0.124026 0.590882 0.797167 0.0949159 0.521098 0.848203 0.204575 0.63468 0.745205 
0.1643 0.63152 0.757752 0.153922 0.613479 0.774565 0.0111542 -0.241121 0.970431 
-0.05984 -0.18468 0.980975 -0.00556963 -0.260978 0.965329 0.0121443 -0.151617 0.988365 
-0.0069098 -0.20042 0.979686 -0.0198853 -0.154703 0.987761 0.0494414 -0.238546 0.969872 
0.00852743 -0.227158 0.973821 0.108389 -0.207195 0.972277 -0.207322 -0.128175 0.96984 
-0.229906 -0.11906 0.965903 -0.0940225 -0.0854891 0.991893 0.0165122 -0.0536149 0.998425 
0.0645531 0.0733649 0.995214 0.0602335 0.00399808 0.998176 -0.0501622 0.0563256 0.997152 
-0.0390442 0.0109587 0.999177 -0.0163547 -0.0300382 0.999415 0.0967289 -0.0736918 0.992579 
0.0847187 -0.0462791 0.99533 -0.324152 0.0201048 0.945791 -0.20487 0.102108 0.973449 
-0.231074 0.0295028 0.972489 0.0160874 0.0182733 0.999704 0.071931 0.106966 0.991657 
0.100163 0.0891606 0.990968 0.0857505 0.104492 0.990822 -0.0547334 0.0520728 0.997142 
-0.0498726 -0.021147 0.998532 0.0526831 0.0465283 0.997527 0.114004 0.00688927 0.993456 
0.0623228 0.065729 0.995889 -0.00933375 -0.0561083 0.998381 0.132096 -0.0695217 0.988796 
-0.096865 0.112121 0.988962 0.0561526 0.0864016 0.994677 -0.0268256 0.0717892 0.997059 
-0.015605 0.0925259 0.995588 -0.117875 -0.0229765 0.992763 -0.0888258 -0.0662504 0.993841 
0.111302 -0.0164643 0.99365 -0.0291559 0.0298341 0.99913 0.121614 -0.0408577 0.991736 
-0.0639038 0.00067963 0.997956 -0.0369639 0.00515883 0.999303 -0.0717345 -0.0107421 0.997366 
0.161474 -0.0404562 0.986047 0.107412 -0.000319637 0.994215 0.114432 -0.0321684 0.99291 
-0.0586047 -0.0980577 0.993454 -0.0621843 -0.0610804 0.996194 -0.0223344 -0.069919 0.997303 
-0.028252 0.189563 0.981462 -0.0282298 0.190235 0.981333 0.059399 -0.0310981 0.99775 
0.0557673 -0.0654188 0.996298 -0.0357481 0.0049731 0.999348 0.112563 -0.00820027 0.993611 
-0.05487 -0.00514666 0.99848 0.0128599 0.0518125 0.998574 -0.0413436 0.0176075 0.99899 
0.0819109 0.0832444 0.993157 0.0584908 0.13514 0.989099 0.105977 0.134408 0.985243 
-0.0283834 -0.0169836 0.999453 -0.0711006 -0.0947216 0.992961 0.00275902 0.0219493 0.999755 
-0.0161453 0.0391784 0.999102 -0.0281376 -0.00588013 0.999587 -0.0489437 -0.00818882 0.998768 
0.11517 -0.0107575 0.993288 0.113317 -0.0105261 0.993503 -0.131974 0.0538938 0.989787 
-0.164744 0.124574 0.978438 -0.122835 -0.039234 0.991651 0.109587 -0.0202533 0.993771 
0.160004 -0.0156163 0.986993 -0.0379484 0.0426781 0.998368 -0.028795 0.0695212 0.997165 
-0.0455791 0.0524821 0.997581 0.0764971 0.0839554 0.993529 0.0763461 0.0840729 0.993531 
0.0762939 0.0839478 0.993545 -0.124613 0.115416 0.98547 0.0735896 0.0083696 0.997253 
-0.00213848 0.00643828 0.999977 -0.0399036 0.179229 0.982998 0.0549904 0.190315 0.980182 
0.00403345 0.227344 0.973806 -0.000309864 0.195142 0.980775 
