# vtk DataFile Version 4.2
vtk output
ASCII
DATASET POLYDATA
POINTS 544 float
-8.87425 -42.7832 -11.9104 -41.7873 -34.5549 -13.1509 -33.5591 -34.5549 -15.2572 
-25.3308 -34.5549 -16.162 -17.1025 -34.5549 -16.5297 -8.87425 -34.5549 -16.4698 
-0.64598 -34.5549 -15.689 7.58229 -34.5549 -14.0398 15.8106 -34.5549 -12.6862 
24.0388 -34.5549 -12.0604 -50.0156 -26.3267 -14.7709 -41.7873 -26.3267 -16.638 
-33.5591 -26.3267 -18.4151 -25.3308 -26.3267 -17.9271 -17.1025 -26.3267 -17.796 
-8.87425 -26.3267 -17.7669 -0.64598 -26.3267 -16.7849 7.58229 -26.3267 -15.1938 
15.8106 -26.3267 -14.5518 24.0388 -26.3267 -14.2653 32.2671 -26.3267 -12.6237 
-58.2439 -18.0984 -14.4163 -50.0156 -18.0984 -16.7307 -41.7873 -18.0984 -18.7219 
-33.5591 -18.0984 -18.3793 -25.3308 -18.0984 -17.9546 -17.1025 -18.0984 -17.251 
-8.87425 -18.0984 -16.9272 -0.64598 -18.0984 -16.3164 7.58229 -18.0984 -15.0295 
15.8106 -18.0984 -15.6598 24.0388 -18.0984 -15.7322 32.2671 -18.0984 -14.5597 
40.4954 -18.0984 -12.2584 -58.2439 -9.8701 -14.3857 -50.0156 -9.8701 -17.2029 
-41.7873 -9.8701 -18.5344 -33.5591 -9.8701 -18.5015 -25.3308 -9.8701 -17.5029 
-17.1025 -9.8701 -16.3736 -8.87425 -9.8701 -16.7937 -0.64598 -9.8701 -18.2775 
7.58229 -9.8701 -17.1746 15.8106 -9.8701 -16.5634 24.0388 -9.8701 -16.6014 
32.2671 -9.8701 -15.7015 40.4954 -9.8701 -14.1484 -58.2439 -1.64183 -14.4933 
-50.0156 -1.64183 -17.1719 -41.7873 -1.64183 -18.2597 -33.5591 -1.64183 -18.3723 
-25.3308 -1.64183 -17.174 -17.1025 -1.64183 -16.3031 -8.87425 -1.64183 -19.7371 
-0.64598 -1.64183 -14.5401 7.58229 -1.64183 -18.1106 15.8106 -1.64183 -16.9645 
24.0388 -1.64183 -16.8029 32.2671 -1.64183 -16.7209 40.4954 -1.64183 -15.6434 
48.7237 -1.64183 -13.6318 -58.2439 6.58644 -12.9956 -50.0156 6.58644 -16.5869 
-41.7873 6.58644 -18.2791 -33.5591 6.58644 -18.3501 -25.3308 6.58644 -17.3971 
-17.1025 6.58644 -15.8366 -8.87425 6.58644 -18.3932 -0.64598 6.58644 -18.5468 
7.58229 6.58644 -18.8517 15.8106 6.58644 -16.7814 24.0388 6.58644 -17.3319 
32.2671 6.58644 -17.4336 40.4954 6.58644 -16.6403 48.7237 6.58644 -14.7554 
56.9519 6.58644 -12.5511 -58.2439 14.8147 -11.7651 -50.0156 14.8147 -15.8745 
-41.7873 14.8147 -18.5816 -33.5591 14.8147 -18.6524 -25.3308 14.8147 -17.9131 
-17.1025 14.8147 -16.8539 -8.87425 14.8147 -16.0558 -0.64598 14.8147 -16.5533 
7.58229 14.8147 -16.5929 15.8106 14.8147 -16.9125 24.0388 14.8147 -17.5286 
32.2671 14.8147 -17.513 40.4954 14.8147 -16.6212 48.7237 14.8147 -14.0234 
-50.0156 23.043 -14.2014 -41.7873 23.043 -17.1208 -33.5591 23.043 -18.1633 
-25.3308 23.043 -18.9859 -17.1025 23.043 -18.0183 -8.87425 23.043 -17.2099 
-0.64598 23.043 -17.3701 7.58229 23.043 -17.2575 15.8106 23.043 -17.4339 
24.0388 23.043 -17.6193 32.2671 23.043 -16.8505 40.4954 23.043 -15.7804 
-41.7873 31.2713 -15.1137 -33.5591 31.2713 -17.7121 -25.3308 31.2713 -18.0678 
-17.1025 31.2713 -18.5936 -8.87425 31.2713 -18.2352 -0.64598 31.2713 -18.1741 
7.58229 31.2713 -17.949 15.8106 31.2713 -17.2184 24.0388 31.2713 -16.2807 
32.2671 31.2713 -15.0068 -33.5591 39.4995 -14.5386 -25.3308 39.4995 -16.6667 
-17.1025 39.4995 -17.9953 -8.87425 39.4995 -17.6099 -0.64598 39.4995 -17.5973 
7.58229 39.4995 -16.8347 15.8106 39.4995 -15.4136 24.0388 39.4995 -12.8984 
-17.1025 47.7278 -13.6606 -8.87425 47.7278 -14.4755 -0.64598 47.7278 -14.1639 
7.58229 47.7278 -12.4116 -8.87425 -43.0038 -11.6983 -41.7873 -36.3364 -11.6983 
-33.5591 -39.9353 -11.6983 -33.5591 -42.7832 -6.70202 -25.3308 -41.2493 -11.6983 
-25.3308 -42.7832 -9.68146 -14.7574 -42.7832 -11.6983 -17.1025 -42.6671 -11.6983 
-17.1025 -42.7832 -11.5763 -6.04811 -42.7832 -11.6983 -0.64598 -42.1627 -11.6983 
-0.64598 -42.7832 -11.1894 7.58229 -39.7352 -11.6983 7.58229 -42.7832 -9.89795 
15.8106 -36.8534 -11.6983 15.8106 -42.7832 -8.78079 24.0388 -35.5359 -11.6983 
24.0388 -42.7832 -7.84821 32.2671 -42.7832 -5.38167 -49.6465 -34.5549 -11.6983 
-50.0156 -34.39 -11.6983 -50.0156 -34.5549 -11.5231 25.3314 -34.5549 -11.6983 
32.2671 -28.9279 -11.6983 32.2671 -34.5549 -9.44851 40.4954 -34.5549 -6.36719 
-56.1115 -26.3267 -11.6983 -58.2439 -24.4221 -11.6983 -58.2439 -26.3267 -9.78801 
34.8709 -26.3267 -11.6983 40.4954 -19.8845 -11.6983 40.4954 -26.3267 -9.43516 
48.7237 -26.3267 -5.56418 -61.5678 -18.0984 -11.6983 42.4744 -18.0984 -11.6983 
48.7237 -18.0984 -9.41121 56.9519 -18.0984 -4.19407 -61.6847 -9.8701 -11.6983 
48.4726 -9.8701 -11.6983 48.7237 -9.53912 -11.6983 48.7237 -9.8701 -11.6209 
56.9519 -9.8701 -8.39191 -61.8635 -1.64183 -11.6983 -66.4722 -1.64183 -3.82631 
54.7226 -1.64183 -11.6983 56.9519 1.83025 -11.6983 56.9519 -1.64183 -10.8022 
65.1802 -1.64183 -3.81402 -59.6944 6.58644 -11.6983 58.289 6.58644 -11.6983 
56.9519 10.0801 -11.6983 65.1802 6.58644 -4.67567 -58.3096 14.8147 -11.6983 
-58.2439 14.9561 -11.6983 53.92 14.8147 -11.6983 48.7237 22.8659 -11.6983 
56.9519 14.8147 -9.94372 -52.924 23.043 -11.6983 -50.0156 28.4422 -11.6983 
48.638 23.043 -11.6983 40.4954 31.2083 -11.6983 48.7237 23.043 -11.6357 
56.9519 23.043 -5.80579 -48.1576 31.2713 -11.6983 -50.0156 31.2713 -7.17277 
-41.7873 38.8547 -11.6983 40.4112 31.2713 -11.6983 32.2671 36.674 -11.6983 
40.4954 31.2713 -11.648 48.7237 31.2713 -5.59696 -41.0012 39.4995 -11.6983 
-41.7873 39.4995 -10.497 -33.5591 43.9933 -11.6983 -25.3308 47.4805 -11.6983 
15.8106 44.6941 -11.6983 27.1333 39.4995 -11.6983 24.0388 40.9902 -11.6983 
32.2671 39.4995 -8.21766 -24.7091 47.7278 -11.6983 -25.3308 47.7278 -11.3571 
-17.1025 50.0085 -11.6983 -8.87425 51.1406 -11.6983 -0.64598 50.5034 -11.6983 
9.46871 47.7278 -11.6983 7.58229 48.4491 -11.6983 15.8106 47.7278 -6.33589 
-33.5591 -44.0178 -3.47007 -25.3308 -45.6159 -3.47007 -17.1025 -47.0575 -3.47007 
-8.87425 -47.7871 -3.47007 -0.64598 -48.1742 -3.47007 7.58229 -48.5181 -3.47007 
15.8106 -48.5298 -3.47007 15.8106 -51.0115 3.52619 24.0388 -47.0137 -3.47007 
32.2671 -44.5975 -3.47007 -50.0156 -37.1552 -3.47007 -38.4225 -42.7832 -3.47007 
-41.7873 -41.8623 -3.47007 34.8852 -42.7832 -3.47007 40.4954 -38.187 -3.47007 
-53.6349 -34.5549 -3.47007 -58.2439 -30.3706 -3.47007 44.0846 -34.5549 -3.47007 
48.7237 -29.1789 -3.47007 -61.5478 -26.3267 -3.47007 51.2905 -26.3267 -3.47007 
56.9519 -19.1461 -3.47007 -65.3131 -18.0984 -3.47007 57.7724 -18.0984 -3.47007 
-66.3926 -9.8701 -3.47007 -66.4722 -6.65195 -3.47007 62.8258 -9.8701 -3.47007 
65.1802 -2.71954 -3.47007 65.1802 -9.8701 0.825271 -66.596 -1.64183 -3.47007 
-66.4722 -1.26625 -3.47007 -66.4722 -1.64183 -3.10533 65.4749 -1.64183 -3.47007 
-63.7565 6.58644 -3.47007 66.0588 6.58644 -3.47007 65.1802 9.46945 -3.47007 
-60.4864 14.8147 -3.47007 -58.2439 19.2907 -3.47007 -58.2439 14.8147 1.91805 
63.1474 14.8147 -3.47007 65.1802 14.8147 3.71947 -56.3347 23.043 -3.47007 
58.8162 23.043 -3.47007 56.9519 25.0803 -3.47007 -50.9534 31.2713 -3.47007 
-50.0156 32.5641 -3.47007 -50.0156 31.2713 -1.12036 40.4954 37.6224 -3.47007 
50.3358 31.2713 -3.47007 48.7237 32.5224 -3.47007 -44.0899 39.4995 -3.47007 
-41.7873 41.6051 -3.47007 -41.7873 39.4995 2.07581 -33.5591 47.6278 -3.47007 
24.0388 45.6447 -3.47007 37.1195 39.4995 -3.47007 32.2671 41.9223 -3.47007 
-33.35 47.7278 -3.47007 -25.3308 51.1382 -3.47007 -17.1025 53.2959 -3.47007 
-8.87425 54.4616 -3.47007 -0.64598 53.7278 -3.47007 7.58229 51.749 -3.47007 
18.7154 47.7278 -3.47007 15.8106 48.8117 -3.47007 15.8106 47.7278 2.88159 
15.8106 -51.3411 4.7582 -33.5591 -43.1926 4.7582 -25.3308 -45.2082 4.7582 
-17.1025 -46.8536 4.7582 -8.87425 -48.037 4.7582 -0.64598 -48.9641 4.7582 
12.8786 -51.0115 4.7582 7.58229 -50.3967 4.7582 20.0882 -51.0115 4.7582 
15.8106 -51.0115 5.52331 24.0388 -50.7029 4.7582 32.2671 -47.8314 4.7582 
-50.0156 -35.4297 4.7582 -34.8558 -42.7832 4.7582 -41.7873 -39.768 4.7582 
-33.5591 -42.7832 5.47029 -25.3308 -42.7832 8.67134 -17.1025 -42.7832 11.4394 
39.8986 -42.7832 4.7582 40.4954 -42.3121 4.7582 -51.1446 -34.5549 4.7582 
-58.2439 -27.2095 4.7582 -50.0156 -34.5549 5.82756 -41.7873 -34.5549 10.826 
48.5187 -34.5549 4.7582 48.7237 -34.334 4.7582 -58.943 -26.3267 4.7582 
-58.2439 -26.3267 5.48016 -50.0156 -26.3267 11.597 56.1104 -26.3267 4.7582 
56.9519 -25.3498 4.7582 -61.3319 -18.0984 4.7582 -58.2439 -18.0984 7.85685 
-50.0156 -18.0984 12.4945 62.9848 -18.0984 4.7582 65.1802 -13.9047 4.7582 
-62.6574 -9.8701 4.7582 -58.2439 -9.8701 9.19436 67.0017 -9.8701 4.7582 
65.1802 -9.8701 10.8969 -62.474 -1.64183 4.7582 -58.2439 -1.64183 8.9212 
-0.64598 -1.64183 12.731 68.9265 -1.64183 4.7582 -60.5427 6.58644 4.7582 
-58.2439 12.0009 4.7582 -58.2439 6.58644 7.16392 -50.0156 6.58644 11.6158 
68.8229 6.58644 4.7582 65.1802 6.58644 12.5113 -56.481 14.8147 4.7582 
-50.0156 14.8147 9.5164 65.4129 14.8147 4.7582 65.1802 15.2093 4.7582 
65.1802 14.8147 5.21234 -52.9657 23.043 4.7582 -50.0156 27.6752 4.7582 
-50.0156 23.043 7.89506 -41.7873 23.043 12.3345 48.7237 23.043 12.3522 
59.3291 23.043 4.7582 56.9519 25.5731 4.7582 56.9519 23.043 8.02523 
-47.0674 31.2713 4.7582 -41.7873 37.9882 4.7582 -41.7873 31.2713 9.26485 
40.4954 36.2075 4.7582 40.4954 31.2713 9.9389 49.6366 31.2713 4.7582 
48.7237 31.8759 4.7582 48.7237 31.2713 5.64855 -40.1916 39.4995 4.7582 
-33.5591 44.4339 4.7582 -33.5591 39.4995 9.09255 -25.3308 39.4995 12.8863 
15.8106 47.3493 4.7582 24.0388 43.8774 4.7582 24.0388 39.4995 9.85921 
34.0821 39.4995 4.7582 32.2671 40.3095 4.7582 32.2671 39.4995 5.8848 
-28.2247 47.7278 4.7582 -25.3308 49.024 4.7582 -25.3308 47.7278 6.51033 
-17.1025 50.9485 4.7582 -17.1025 47.7278 8.70026 -8.87425 52.2052 4.7582 
-8.87425 47.7278 9.83529 -0.64598 51.6559 4.7582 -0.64598 47.7278 9.7465 
14.6804 47.7278 4.7582 7.58229 49.8651 4.7582 7.58229 47.7278 7.78807 
-8.87425 -42.9962 12.9865 -0.64598 -44.0173 12.9865 7.58229 -44.0372 12.9865 
15.8106 -45.5781 12.9865 24.0388 -47.0398 12.9865 32.2671 -43.4076 12.9865 
-33.5591 -34.6456 12.9865 -25.3308 -37.6488 12.9865 -10.0671 -42.7832 12.9865 
-17.1025 -40.8709 12.9865 -8.87425 -42.7832 13.1567 -0.64598 -42.7832 13.9645 
7.58229 -42.7832 13.889 15.8106 -42.7832 14.8723 24.0388 -42.7832 15.5053 
[...]
POINT_DATA 544
SCALARS ImageScalars float
LOOKUP_TABLE default
0 0 0 0 0 0 0 0 0 
0 0 0 0 0 0 0 0 0 
0 0 0 0 0 0 0 0 0 
0 0 0 0 0 0 0 0 0 
0 0 0 0 0 0 0 0 0 
0 0 0 0 0 0 0 0 0 
0 0 0 0 0 0 0 0 0 
0 0 0 0 0 0 0 0 0 
0 0 0 0 0 0 0 0 0 
0 0 0 0 0 0 0 0 0 
0 0 0 0 0 0 0 0 0 
0 0 0 0 0 0 0 0 0 
0 0 0 0 0 0 0 0 0 
0 0 0 0 0 0 0 0 0 
0 0 0 0 0 0 0 0 0 
0 0 0 0 0 0 0 0 0 
0 0 0 0 0 0 0 0 0 
0 0 0 0 0 0 0 0 0 
0 0 0 0 0 0 0 0 0 
0 0 0 0 0 0 0 0 0 
0 0 0 0 0 0 0 0 0 
0 0 0 0 0 0 0 0 0 
0 0 0 0 0 0 0 0 0 
0 0 0 0 0 0 0 0 0 
0 0 0 0 0 0 0 0 0 
0 0 0 0 0 0 0 0 0 
0 0 0 0 0 0 0 0 0 
0 0 0 0 0 0 0 0 0 
0 0 0 0 0 0 0 0 0 
0 0 0 0 0 0 0 0 0 
0 0 0 0 0 0 0 0 0 
0 0 0 0 0 0 0 0 0 
0 0 0 0 0 0 0 0 0 
0 0 0 0 0 0 0 0 0 
0 0 0 0 0 0 0 0 0 
0 0 0 0 0 0 0 0 0 
0 0 0 0 0 0 0 0 0 
0 0 0 0 0 0 0 0 0 
0 0 0 0 0 0 0 0 0 
0 0 0 0 0 0 0 0 0 
0 0 0 0 0 0 0 0 0 
0 0 0 0 0 0 0 0 0 
0 0 0 0 0 0 0 0 0 
0 0 0 0 0 0 0 0 0 
0 0 0 0 0 0 0 0 0 
0 0 0 0 0 0 0 0 0 
0 0 0 0 0 0 0 0 0 
0 0 0 0 0 0 0 0 0 
0 0 0 0 0 0 0 0 0 
0 0 0 0 0 0 0 0 0 
0 0 0 0 0 0 0 0 0 
0 0 0 0 0 0 0 0 0 
0 0 0 0 0 0 0 0 0 
0 0 0 0 0 0 0 0 0 
0 0 0 0 0 0 0 0 0 
0 0 0 0 0 0 0 0 0 
0 0 0 0 0 0 0 0 0 
0 0 0 0 0 0 0 0 0 
0 0 0 0 0 0 0 0 0 
0 0 0 0 0 0 0 0 0 
0 0 0 0 
NORMALS Normals float
-0.0172115 0.686907 0.726541 0.230385 0.554904 0.799378 0.143877 0.459169 0.87662 
0.0796497 0.369567 0.925784 0.0161538 0.316519 0.948449 -0.0517726 0.305235 0.950869 
-0.141664 0.285465 0.947861 -0.172657 0.268514 0.947676 -0.117739 0.304204 0.945303 
-0.17308 0.311734 0.934273 0.355885 0.349107 0.866874 0.185769 0.270022 0.944763 
0.0716439 0.176771 0.981641 -0.0352569 0.0955722 0.994798 -0.00968506 0.0422789 0.999059 
-0.0609693 0.0269429 0.997776 -0.157378 0.0386404 0.986782 -0.133509 0.0586703 0.989309 
-0.0552249 0.171807 0.983581 -0.114372 0.222163 0.968278 -0.261224 0.278232 0.92431 
0.504849 0.197383 0.840338 0.250546 0.116625 0.961054 0.117291 0.111726 0.986793 
-0.0456054 0.00544447 0.998945 -0.0682655 -0.0256761 0.997337 -0.0624843 -0.085181 0.994404 
-0.0580296 -0.0595791 0.996535 -0.113457 0.0819101 0.990161 -0.0400531 0.105505 0.993612 
0.0429245 0.122249 0.991571 -0.0632217 0.137238 0.988518 -0.204055 0.18275 0.96175 
-0.270306 0.259356 0.927184 0.47498 0.00361391 0.879989 0.223126 0.0300102 0.974328 
0.0715107 -0.0260112 0.997101 -0.0626614 -0.000447241 0.998035 -0.124619 -0.0470408 0.991089 
-0.0462614 -0.0586396 0.997207 0.114336 0.158526 0.980712 0.0253023 -0.0552073 0.998154 
-0.107349 0.201491 0.97359 -0.0306442 0.0789703 0.996406 -0.0518982 0.0641998 0.996587 
-0.143889 0.126075 0.98153 -0.228855 0.195618 0.953603 0.51529 -0.0730272 0.853899 
0.193044 -0.0357928 0.980537 0.0700343 -0.0172897 0.997395 -0.0661668 -0.00925222 0.997766 
-0.122572 -0.00648659 0.992438 0.142127 -0.0356528 0.989206 -0.0483331 0.109689 0.99279 
-0.0858456 -0.0222586 0.99606 0.0982245 0.0945148 0.990666 -0.0776092 0.0130978 0.996898 
-0.0145315 0.0427637 0.99898 -0.0686356 0.104323 0.992172 -0.177253 0.146602 0.973185 
-0.281556 0.182558 0.942019 0.60834 -0.156302 0.778134 0.284285 -0.0786182 0.955511 
0.0969895 0.0174279 0.995133 -0.0529625 0.0168887 0.998454 -0.152955 0.0449247 0.987211 
0.0228724 0.036825 0.99906 0.185315 -0.243193 0.952111 0.0273206 0.071003 0.997102 
-0.117633 -0.0992234 0.988088 -0.0820121 -0.00292162 0.996627 0.0404506 0.0450615 0.998165 
-0.0410285 0.0478747 0.99801 -0.166473 0.0584984 0.984309 -0.251907 0.0223941 0.967492 
-0.455643 -0.0300281 0.889656 0.749018 -0.283349 0.598903 0.375389 -0.11625 0.919548 
0.179959 -0.064814 0.981537 -0.0410187 -0.0112315 0.999095 -0.107897 0.0952061 0.989593 
-0.111466 0.130889 0.985111 -0.0185939 -0.0376321 0.999119 0.0341007 -0.0477079 0.998279 
0.0222255 -0.0858434 0.996061 0.0567216 0.0395482 0.997606 0.0364638 0.01679 0.999194 
-0.0523735 -0.0371251 0.997937 -0.202514 -0.0577069 0.977578 -0.339401 -0.153223 0.928079 
0.540695 -0.317873 0.778849 0.200282 -0.208322 0.957334 0.107629 -0.0543668 0.992704 
-0.00909904 0.00994304 0.999909 -0.106267 0.103976 0.988886 -0.0399888 0.134625 0.990089 
0.00285037 0.0980289 0.995179 0.00388418 0.0821666 0.996611 0.0217459 0.0189059 0.999585 
-0.0377764 -0.076679 0.99634 -0.113384 -0.147803 0.982496 -0.263094 -0.226136 0.937893 
0.385807 -0.313058 0.867841 0.178489 -0.213116 0.960585 0.0508539 -0.131111 0.990063 
0.00998099 0.00269495 0.999947 -0.0251987 0.0215885 0.999449 -0.0173769 0.0116331 0.999781 
-0.0567884 -0.0252054 0.998068 -0.102426 -0.110433 0.988592 -0.130702 -0.253439 0.958481 
-0.228747 -0.370374 0.900277 0.290233 -0.465458 0.83613 0.199906 -0.313091 0.928446 
0.0472723 -0.261215 0.964122 -0.0209824 -0.202578 0.979041 -0.0457328 -0.210482 0.976527 
-0.124516 -0.280234 0.951822 -0.235808 -0.392251 0.88912 -0.306007 -0.564324 0.766746 
0.142987 -0.625568 0.766954 0.0283397 -0.570406 0.820874 -0.108876 -0.614031 0.781736 
-0.252594 -0.701005 0.666925 -0.0152957 0.696298 0.71759 0.264708 0.630833 0.729369 
0.186898 0.707176 0.681888 0.215134 0.922484 0.320533 0.111297 0.727012 0.677545 
0.141318 0.846111 0.513931 0.0432837 0.711271 0.701584 0.0659819 0.714283 0.69674 
0.0672779 0.72327 0.68728 -0.0442012 0.674736 0.736734 -0.0987265 0.62023 0.778182 
-0.0897897 0.661915 0.744182 -0.148991 0.458728 0.875997 -0.11004 0.617281 0.779009 
-0.107819 0.367899 0.923594 -0.0952507 0.58243 0.807281 -0.173981 0.337832 0.924987 
-0.175983 0.600146 0.780291 -0.405465 0.626015 0.666111 0.425699 0.632837 0.646759 
0.432811 0.629973 0.644833 0.438415 0.641052 0.629956 -0.196995 0.320875 0.926408 
-0.2817 0.309108 0.908349 -0.317066 0.383877 0.867241 -0.446671 0.486718 0.750727 
0.525443 0.490658 0.6951 0.583028 0.448476 0.677457 0.638541 0.555247 0.532885 
-0.300332 0.296475 0.906589 -0.292672 0.276663 0.915315 -0.385492 0.330271 0.861578 
-0.522932 0.450475 0.723612 0.734204 0.215624 0.643778 -0.300629 0.275705 0.913022 
-0.417711 0.336856 0.843828 -0.570023 0.492533 0.657635 0.708396 0.0145928 0.705664 
-0.322378 0.208467 0.923371 -0.323183 0.208391 0.923107 -0.325382 0.209762 0.922023 
-0.465877 0.322193 0.824106 0.658055 -0.0926688 0.747246 0.988183 -0.150505 0.0290303 
-0.425828 0.224807 0.876432 -0.478276 0.123031 0.869549 -0.48862 0.224528 0.843112 
-0.770766 0.156006 0.617724 0.708178 -0.17635 0.683655 -0.511836 -0.0345141 0.85839 
-0.50325 -0.13176 0.854037 -0.829112 -0.100503 0.549975 0.752908 -0.284047 0.593673 
0.75168 -0.286645 0.59398 -0.46301 -0.231389 0.855617 -0.495563 -0.315181 0.809369 
-0.594324 -0.279684 0.754027 0.668429 -0.413797 0.618041 0.666605 -0.459296 0.587099 
-0.497358 -0.317989 0.807167 -0.388854 -0.564405 0.728176 -0.500446 -0.321126 0.80401 
-0.675848 -0.587209 0.445439 0.645389 -0.471729 0.600786 0.796286 -0.570146 0.202143 
0.546356 -0.607152 0.576942 -0.38813 -0.565123 0.728004 -0.334558 -0.609941 0.718361 
-0.390373 -0.568234 0.724375 -0.609133 -0.713692 0.345832 0.533385 -0.61713 0.57849 
0.584117 -0.659014 0.473823 0.370937 -0.656406 0.656914 0.262654 -0.737501 0.622178 
-0.323208 -0.68474 0.653198 -0.333448 -0.631688 0.699845 -0.328968 -0.631231 0.702372 
-0.402695 -0.805588 0.434586 0.257378 -0.740404 0.620933 0.269637 -0.760495 0.590715 
0.181842 -0.719317 0.67046 0.0240177 -0.733854 0.678883 -0.138532 -0.748332 0.648698 
-0.28255 -0.73386 0.61775 -0.266697 -0.731659 0.627334 -0.354792 -0.902841 0.242901 
0.229833 0.963913 0.134346 0.183239 0.967483 0.174359 0.125363 0.971544 0.200964 
0.0700473 0.967015 0.244897 0.0415901 0.947976 0.315613 0.0206456 0.897122 0.441301 
-0.0691588 0.833086 0.548803 0.00836684 0.999965 -0.000977013 -0.216098 0.755614 0.618344 
-0.384953 0.716881 0.581286 0.540771 0.839145 0.0583262 0.306645 0.944481 0.118002 
0.364478 0.924606 0.110727 -0.434506 0.667847 0.604305 -0.519589 0.579398 0.627953 
0.628883 0.77539 0.0572435 0.75002 0.656698 0.0788465 -0.589148 0.542281 0.599029 
-0.599376 0.511655 0.615595 0.833115 0.548066 0.0744506 -0.595699 0.496503 0.631369 
-0.58692 0.509992 0.628834 0.961421 0.273547 0.029004 -0.591769 0.499326 0.632837 
0.997188 0.0729869 0.0169913 0.999814 -0.0153562 0.0116997 -0.724023 0.351661 0.593402 
-0.778165 0.184788 0.600261 -0.885622 0.365648 0.286313 0.988619 -0.150395 0.00372778 
0.987274 -0.159011 0.00227658 0.988119 -0.152365 -0.0201305 -0.783506 0.153965 0.602008 
0.936916 -0.349546 -0.00221305 -0.857563 -0.107873 0.50294 -0.846236 -0.194063 0.496209 
0.906591 -0.418147 -0.056967 0.888766 -0.453216 -0.0684808 0.805911 -0.424852 -0.412321 
-0.819411 -0.34219 0.45986 -0.879834 -0.470885 -0.0644906 0.870308 -0.490566 -0.0436826 
-0.754691 -0.583135 0.300657 -0.710602 -0.623147 0.3267 0.813188 -0.579119 -0.0578477 
0.802625 -0.594041 -0.0539278 0.795699 -0.576692 -0.185172 -0.493499 -0.856371 0.151949 
-0.630612 -0.742393 0.226232 -0.608859 -0.765718 0.207287 0.6909 -0.722341 -0.0296827 
0.650913 -0.758698 -0.0262649 0.639059 -0.686651 -0.346576 0.485061 -0.87448 0.000748749 
-0.402617 -0.908526 0.111713 -0.460409 -0.87761 0.133504 -0.427452 -0.895656 0.122819 
0.480306 -0.877098 0.00231259 0.320723 -0.945818 0.0506428 0.193247 -0.980778 0.0270088 
0.026197 -0.999039 0.0351302 -0.160779 -0.986115 0.0415531 -0.284124 -0.957176 0.0555611 
-0.366015 -0.925549 0.0969094 -0.346876 -0.933536 0.0904829 -0.324992 -0.910369 -0.25614 
0.0177824 0.996733 -0.078779 0.276717 0.903606 -0.326992 0.219466 0.929528 -0.296332 
0.165852 0.953354 -0.252209 0.130531 0.966963 -0.218961 0.14205 0.97068 -0.193914 
0.0615915 0.993053 -0.100262 0.142775 0.97932 -0.143342 -0.0952571 0.995151 -0.0245212 
0.0274989 0.991458 -0.127498 -0.19938 0.979577 0.0260237 -0.437186 0.899371 0.000842978 
0.526649 0.715813 -0.458533 0.297878 0.892426 -0.338887 0.417061 0.797982 -0.435069 
0.278188 0.887667 -0.366958 0.224563 0.821233 -0.524545 0.173773 0.698065 -0.694628 
-0.616684 0.785604 0.0502656 -0.628453 0.776133 0.0516121 0.555954 0.689277 -0.464557 
0.692052 0.46676 -0.550635 0.531083 0.684334 -0.499637 0.345856 0.543172 -0.76508 
-0.730025 0.674905 0.107546 -0.730802 0.67386 0.108815 0.710808 0.446308 -0.543655 
0.67765 0.443421 -0.586659 0.424463 0.310691 -0.850472 -0.750582 0.652428 0.104713 
-0.754031 0.64815 0.106487 0.775642 0.181234 -0.604593 0.693022 0.182463 -0.697444 
0.328494 0.0763725 -0.941413 -0.831777 0.550686 0.0699414 -0.897426 0.433127 0.0838298 
0.777008 0.0508205 -0.627437 0.603094 0.0458074 -0.796354 -0.94115 0.333669 0.0538564 
-0.837286 0.32948 -0.436342 0.753391 -0.118782 -0.646756 0.596615 -0.106091 -0.795484 
0.10157 -0.0843587 -0.991245 -0.994122 0.103253 0.0325736 0.785327 -0.260119 -0.561782 
0.72111 -0.348878 -0.598569 0.665108 -0.25966 -0.700148 0.397963 -0.180265 -0.899517 
-0.977313 -0.2083 -0.0383497 -0.666568 -0.286691 -0.68811 0.688594 -0.37332 -0.621668 
0.537432 -0.202464 -0.818642 -0.869456 -0.475793 -0.132919 -0.863522 -0.485796 -0.135399 
-0.861847 -0.47974 -0.164527 0.738082 -0.385026 -0.554066 0.703927 -0.45958 -0.541546 
0.641358 -0.329092 -0.693079 0.394704 -0.246063 -0.885247 -0.318383 -0.498322 -0.806416 
-0.701176 -0.675299 -0.228742 -0.653302 -0.713634 -0.252831 -0.589744 -0.6501 -0.479136 
0.665107 -0.506449 -0.548765 0.601468 -0.602691 -0.524404 0.544279 -0.400717 -0.737012 
-0.433722 -0.806868 -0.40106 -0.332146 -0.634678 -0.697756 -0.518321 -0.793608 -0.318639 
-0.503482 -0.800649 -0.324756 -0.492691 -0.782917 -0.379864 0.580945 -0.628349 -0.517378 
0.48633 -0.70632 -0.514389 0.432709 -0.552384 -0.712485 0.216111 -0.395787 -0.892552 
-0.310995 -0.876226 -0.368117 -0.373469 -0.834542 -0.405043 -0.324843 -0.643831 -0.69279 
-0.381489 -0.833665 -0.399336 -0.370978 -0.835589 -0.405176 -0.359607 -0.810755 -0.461907 
0.368467 -0.806404 -0.462541 0.303433 -0.837994 -0.453536 0.296981 -0.789197 -0.53756 
0.179482 -0.852415 -0.491095 0.148853 -0.720023 -0.677797 0.0395944 -0.865514 -0.499318 
0.0477325 -0.678924 -0.732655 -0.130966 -0.881897 -0.452885 -0.0836914 -0.721017 -0.687845 
-0.299671 -0.87892 -0.371076 -0.240212 -0.876454 -0.417284 -0.21016 -0.804135 -0.556058 
0.121294 0.588865 -0.799078 0.0491042 0.593006 -0.803699 0.0602176 0.540992 -0.838869 
0.120599 0.575001 -0.809215 -0.0911725 0.680648 -0.726915 -0.365638 0.597361 -0.71377 
0.172964 0.384605 -0.906732 0.195406 0.47711 -0.856844 0.129098 0.588183 -0.798357 
0.153109 0.558296 -0.815391 0.120512 0.577102 -0.807732 0.0429286 0.515248 -0.855965 
0.0505864 0.475332 -0.878351 0.0944711 0.430868 -0.897456 -0.0473783 0.434444 -0.899452 
-0.381288 0.592252 -0.709829 -0.353702 0.571726 -0.740287 -0.413442 0.527396 -0.742239 
0.176631 0.384811 -0.905937 0.248822 0.313775 -0.916315 0.171955 0.380786 -0.908534 
0.179484 0.331982 -0.926053 0.0817263 0.285702 -0.954827 0.0049377 0.216705 -0.976225 
0.0224519 0.157804 -0.987215 0.0702311 0.174891 -0.98208 0.111897 0.152646 -0.981926 
-0.0477625 0.17996 -0.982514 -0.194407 0.235936 -0.952124 -0.477169 0.501566 -0.721624 
-0.352666 0.412087 -0.840126 -0.496465 0.543359 -0.676966 0.299048 0.235845 -0.924634 
0.209874 0.202336 -0.956563 0.138144 0.195026 -0.971021 0.121812 0.125713 -0.98456 
0.036298 0.0562803 -0.997755 -0.0432769 0.049874 -0.997817 0.0130908 0.00237357 -0.999911 
0.0672964 0.00320697 -0.997728 0.0597539 -0.02416 -0.997921 0.0165695 -0.0616643 -0.997959 
-0.0860508 0.0958725 -0.991667 -0.175901 0.237873 -0.955236 -0.512254 0.533635 -0.672926 
-0.381851 0.474687 -0.793009 -0.632859 0.44025 -0.636922 0.296938 0.0743465 -0.951998 
0.318326 0.0468435 -0.946823 0.219273 0.0818207 -0.972227 0.117148 0.0446708 -0.992109 
0.0367669 -0.0281496 -0.998927 0.00642887 -0.10963 -0.993952 -0.046465 0.0343136 -0.99833 
-0.02477 0.136074 -0.990389 0.0462928 0.118959 -0.991819 0.0543369 -0.10094 -0.993408 
0.0824893 -0.0510561 -0.995283 0.0979628 0.0384277 -0.994448 -0.0552854 0.148348 -0.987389 
-0.21963 0.168967 -0.96084 -0.642852 0.411542 -0.646045 -0.599225 0.409302 -0.688042 
0.340306 0.0362071 -0.939617 0.320498 0.0355937 -0.94658 0.156995 0.0199001 -0.987399 
0.0321208 -0.0227405 -0.999225 -0.0301295 -0.0726624 -0.996901 0.0889289 -0.134643 -0.986896 
0.219776 0.00877726 -0.975511 0.10502 -0.0881205 -0.990558 0.120928 -0.0852608 -0.988993 
-0.206654 0.165901 -0.964246 -0.105196 -0.0101139 -0.9944 0.154585 -0.0306217 -0.987505 
0.111149 0.00719128 -0.993778 0.00508872 -0.000410748 -0.999987 -0.0287086 0.106694 -0.993877 
-0.716669 0.302373 -0.628456 -0.416991 0.256378 -0.872003 -0.741651 0.181102 -0.645876 
0.320168 -0.100269 -0.94204 0.318718 -0.10218 -0.942326 0.316409 -0.0994972 -0.94339 
0.162719 -0.055251 -0.985124 0.0305062 -0.0140031 -0.999436 -0.082595 0.00822387 -0.996549 
0.059138 -0.0295553 -0.997812 0.09118 -0.0897153 -0.991785 -0.0344725 -0.129425 -0.99099 
0.111859 -0.0783799 -0.990628 0.115288 -0.0708229 -0.990804 0.199418 -0.028257 -0.979507 
-0.104319 0.0172839 -0.994394 0.0905082 -0.0331601 -0.995344 0.126805 -0.0289736 -0.991504 
0.0481381 -0.0436287 -0.997887 -0.0172651 -0.0408231 -0.999017 -0.37129 -0.0961306 -0.923527 
-0.747603 0.0238879 -0.663716 -0.662498 -0.218593 -0.716459 -0.695768 0.0175877 -0.718051 
0.317521 -0.121335 -0.940456 0.237756 -0.0667867 -0.969026 0.0946588 0.0046969 -0.995499 
-0.0448953 0.0531242 -0.997578 -0.0605708 0.0736833 -0.995441 0.23755 -0.172302 -0.955972 
0.212498 0.155105 -0.964773 -0.179791 -0.192212 -0.964743 -0.136378 -0.0496699 -0.989411 
0.115546 -0.0400312 -0.992495 0.0926677 -0.0907436 -0.991553 -0.00443898 -0.117648 -0.993046 
-0.0745317 -0.172234 -0.982232 -0.621576 -0.286379 -0.72913 -0.323347 -0.293694 -0.89955 
0.394473 -0.131441 -0.909458 0.375181 -0.196215 -0.905946 0.344642 -0.111375 -0.932104 
0.154403 -0.0311605 -0.987516 -0.0110737 0.0264324 -0.999589 -0.131654 0.0737438 -0.988549 
0.000568207 0.0660034 -0.997819 0.10497 -0.183509 -0.977397 -0.0065492 -0.139551 -0.990193 
0.0224078 0.00875702 -0.999711 0.0529175 -0.0447555 -0.997595 0.0496237 -0.141882 -0.988639 
-0.0303298 -0.209082 -0.977428 -0.293278 -0.461844 -0.837071 -0.191299 -0.283534 -0.939688 
-0.458488 -0.36328 -0.811058 -0.446065 -0.371251 -0.81437 -0.445094 -0.361478 -0.819283 
0.358191 -0.219555 -0.907466 0.229493 -0.136014 -0.96376 0.055611 -0.0616882 -0.996545 
-0.037336 -0.0054415 -0.999288 -0.0187312 0.102427 -0.994564 0.0471211 0.0313116 -0.998398 
0.0220245 0.0361021 -0.999105 -0.0328087 -0.0210046 -0.999241 -0.0371144 -0.0953889 -0.994748 
-0.0641006 -0.224317 -0.972406 -0.28022 -0.460099 -0.842488 -0.227855 -0.467277 -0.854245 
-0.164671 -0.348002 -0.922918 0.353395 -0.316703 -0.880234 0.326024 -0.34837 -0.878833 
0.304773 -0.300243 -0.903862 0.2117 -0.388011 -0.897012 0.120776 -0.219742 -0.968053 
0.0407606 -0.141721 -0.989067 0.0523396 -0.0717672 -0.996047 0.0213017 -0.0549397 -0.998262 
-0.0596326 -0.125037 -0.990358 -0.108172 -0.179883 -0.977722 -0.208933 -0.416527 -0.884789 
-0.14472 -0.30696 -0.940655 -0.22639 -0.433322 -0.872341 -0.225526 -0.431294 -0.873569 
-0.219215 -0.415713 -0.882682 0.202208 -0.389337 -0.898626 0.101643 -0.399513 -0.911075 
0.0966999 -0.3428 -0.934418 0.0597303 -0.433942 -0.898959 0.0683612 -0.316904 -0.945991 
-0.0351965 -0.480646 -0.876208 -0.0111955 -0.3373 -0.94133 -0.11422 -0.491158 -0.863549 
-0.0992277 -0.398885 -0.911616 -0.219945 -0.467306 -0.856299 -0.213219 -0.472115 -0.855363 
-0.210278 -0.454458 -0.865593 
