# vtk DataFile Version 4.2
vtk output
ASCII
DATASET POLYDATA
POINTS 506 float
-9.01043 -28.234 -16.601 -0.786425 -28.234 -17.5419 7.43758 -28.234 -17.06 
15.6616 -28.234 -17.4959 23.8856 -28.234 -17.0214 -17.2344 -20.01 -16.4475 
-9.01043 -20.01 -18.9572 -0.786425 -20.01 -20.1965 7.43758 -20.01 -19.8586 
15.6616 -20.01 -20.1238 23.8856 -20.01 -20.4147 32.1096 -20.01 -19.8125 
40.3336 -20.01 -17.2803 -25.4584 -11.786 -16.7647 -17.2344 -11.786 -18.8929 
-9.01043 -11.786 -20.9976 -0.786425 -11.786 -21.293 7.43758 -11.786 -22.1335 
15.6616 -11.786 -21.3135 23.8856 -11.786 -21.7473 32.1096 -11.786 -21.9991 
40.3336 -11.786 -21.1357 48.5576 -11.786 -18.4451 -33.6824 -3.56203 -17.8775 
-25.4584 -3.56203 -18.6861 -17.2344 -3.56203 -20.6676 -9.01043 -3.56203 -21.7335 
-0.786425 -3.56203 -20.6395 7.43758 -3.56203 -23.5953 15.6616 -3.56203 -22.1074 
23.8856 -3.56203 -22.5478 32.1096 -3.56203 -23.5335 40.3336 -3.56203 -23.4034 
48.5576 -3.56203 -21.5364 56.7816 -3.56203 -16.7577 -41.9064 4.66197 -18.0759 
-33.6824 4.66197 -19.5097 -25.4584 4.66197 -20.2523 -17.2344 4.66197 -20.2987 
-9.01043 4.66197 -22.7102 -0.786425 4.66197 -24.0736 7.43758 4.66197 -23.5504 
15.6616 4.66197 -22.5187 23.8856 4.66197 -23.7136 32.1096 4.66197 -24.5309 
40.3336 4.66197 -24.356 48.5576 4.66197 -22.098 56.7816 4.66197 -17.0156 
-41.9064 12.886 -19.2767 -33.6824 12.886 -20.8298 -25.4584 12.886 -21.3071 
-17.2344 12.886 -20.9869 -9.01043 12.886 -21.7551 -0.786425 12.886 -23.094 
7.43758 12.886 -21.5162 15.6616 12.886 -22.3802 23.8856 12.886 -23.9249 
32.1096 12.886 -24.3567 40.3336 12.886 -23.6864 48.5576 12.886 -20.5325 
-41.9064 21.11 -18.5061 -33.6824 21.11 -21.6726 -25.4584 21.11 -22.16 
-17.2344 21.11 -21.6858 -9.01043 21.11 -21.5326 -0.786425 21.11 -21.9904 
7.43758 21.11 -21.9315 15.6616 21.11 -22.8455 23.8856 21.11 -23.1986 
32.1096 21.11 -23.2131 40.3336 21.11 -21.318 -33.6824 29.334 -19.5532 
-25.4584 29.334 -21.7908 -17.2344 29.334 -21.4903 -9.01043 29.334 -21.5994 
-0.786425 29.334 -21.7512 7.43758 29.334 -21.9103 15.6616 29.334 -22.4829 
23.8856 29.334 -21.8661 32.1096 29.334 -20.412 -25.4584 37.558 -17.5679 
-17.2344 37.558 -18.9851 -9.01043 37.558 -20.1699 -0.786425 37.558 -20.1609 
7.43758 37.558 -20.0775 15.6616 37.558 -19.7537 23.8856 37.558 -17.9345 
-17.2344 -36.458 -8.87949 -9.01043 -28.7879 -16.3456 -9.01043 -36.458 -12.1224 
-0.786425 -30.8877 -16.3456 -0.786425 -36.458 -13.2782 7.43758 -29.7168 -16.3456 
7.43758 -36.458 -12.4055 15.6616 -30.0756 -16.3456 15.6616 -36.458 -11.0523 
23.8856 -29.1407 -16.3456 23.8856 -36.458 -8.87624 -25.4584 -28.234 -11.0758 
-9.86627 -28.234 -16.3456 -17.2344 -20.3822 -16.3456 -17.2344 -28.234 -14.0845 
26.8661 -28.234 -16.3456 32.1096 -26.1729 -16.3456 32.1096 -28.234 -14.7674 
40.3336 -21.3879 -16.3456 -41.9064 -20.01 -8.43792 -33.6824 -20.01 -12.1658 
-17.6395 -20.01 -16.3456 -25.4584 -13.2367 -16.3456 -25.4584 -20.01 -14.4088 
42.2649 -20.01 -16.3456 48.5576 -14.9248 -16.3456 48.5576 -20.01 -11.1295 
-41.9064 -11.786 -12.5403 -27.5459 -11.786 -16.3456 -33.6824 -8.10009 -16.3456 
-33.6824 -11.786 -15.1154 51.4191 -11.786 -16.3456 56.7816 -4.39159 -16.3456 
56.7816 -11.786 -10.0939 -50.1304 -3.56203 -10.7148 -38.9911 -3.56203 -16.3456 
-41.9064 -1.0037 -16.3456 -41.9064 -3.56203 -15.4859 57.1929 -3.56203 -16.3456 
-45.6292 4.66197 -16.3456 -50.1304 4.66197 -13.57 57.3999 4.66197 -16.3456 
56.7816 6.36862 -16.3456 -47.9613 12.886 -16.3456 -50.1304 12.886 -14.5775 
53.7786 12.886 -16.3456 48.5576 20.3389 -16.3456 56.7816 12.886 -10.6155 
-45.1597 21.11 -16.3456 -50.1304 21.11 -9.8828 -41.9064 29.2693 -16.3456 
47.8982 21.11 -16.3456 40.3336 28.0112 -16.3456 48.5576 21.11 -15.1026 
-41.8633 29.334 -16.3456 -41.9064 29.334 -16.2795 -33.6824 35.1805 -16.3456 
38.808 29.334 -16.3456 32.1096 34.5003 -16.3456 40.3336 29.334 -13.7587 
-29.2312 37.558 -16.3456 -33.6824 37.558 -8.99337 -25.4584 39.0278 -16.3456 
-17.2344 40.8976 -16.3456 -9.01043 42.3736 -16.3456 -0.786425 43.1875 -16.3456 
7.43758 42.9644 -16.3456 15.6616 41.6069 -16.3456 27.083 37.558 -16.3456 
23.8856 39.4795 -16.3456 32.1096 37.558 -10.1748 -9.01043 45.782 -8.65779 
-0.786425 45.782 -10.4083 7.43758 45.782 -10.0205 -17.2344 -37.2055 -8.12164 
-9.01043 -40.327 -8.12164 -0.786425 -41.3838 -8.12164 -0.786425 -44.682 -0.23741 
7.43758 -40.4878 -8.12164 15.6616 -38.9689 -8.12164 23.8856 -36.9974 -8.12164 
-18.7751 -36.458 -8.12164 -25.4584 -32.371 -8.12164 -25.4584 -36.458 -3.15342 
25.1577 -36.458 -8.12164 32.1096 -33.3692 -8.12164 -41.9064 -20.4731 -8.12164 
-41.9064 -28.234 -0.255928 -32.8039 -28.234 -8.12164 -33.6824 -27.5989 -8.12164 
-33.6824 -28.234 -7.61635 40.3151 -28.234 -8.12164 40.3336 -28.2215 -8.12164 
40.3336 -28.234 -8.07923 48.5576 -22.26 -8.12164 -42.3354 -20.01 -8.12164 
50.8537 -20.01 -8.12164 56.7816 -13.405 -8.12164 -48.4712 -11.786 -8.12164 
-50.1304 -9.28841 -8.12164 -50.1304 -11.786 -6.55942 57.9029 -11.786 -8.12164 
-52.996 -3.56203 -8.12164 61.4561 -3.56203 -8.12164 -54.8514 4.66197 -8.12164 
-58.3544 4.66197 -0.515643 61.4871 4.66197 -8.12164 -54.7203 12.886 -8.12164 
57.7704 12.886 -8.12164 56.7816 14.3386 -8.12164 56.7816 12.886 -2.06033 
-51.1241 21.11 -8.12164 -50.1304 22.5554 -8.12164 51.2914 21.11 -8.12164 
48.5576 23.9497 -8.12164 -44.6489 29.334 -8.12164 -41.9064 31.8334 -8.12164 
42.8857 29.334 -8.12164 40.3336 31.6714 -8.12164 -33.9404 37.558 -8.12164 
-33.6824 37.7236 -8.12164 -33.6824 37.558 -7.64206 -25.4584 41.6767 -8.12164 
-25.4584 37.558 -0.462358 -17.2344 44.468 -8.12164 15.6616 45.3179 -8.12164 
23.8856 42.9146 -8.12164 33.229 37.558 -8.12164 32.1096 38.3754 -8.12164 
32.1096 37.558 -4.34001 -9.91578 45.782 -8.12164 -9.01043 45.9394 -8.12164 
-9.01043 45.782 -7.65497 -0.786425 46.4288 -8.12164 -0.786425 45.782 -6.00671 
11.9902 45.782 -8.12164 7.43758 46.341 -8.12164 7.43758 45.782 -6.13915 
-0.786425 -44.797 0.102363 -25.4584 -38.2476 0.102363 -17.2344 -41.306 0.102363 
-1.65232 -44.682 0.102363 -9.01043 -43.6736 0.102363 0.572742 -44.682 0.102363 
-0.786425 -44.682 1.30217 7.43758 -44.0829 0.102363 15.6616 -42.4134 0.102363 
23.8856 -39.8177 0.102363 -41.9064 -28.4903 0.102363 -29.4278 -36.458 0.102363 
-33.6824 -34.1943 0.102363 31.1223 -36.458 0.102363 32.1096 -35.9567 0.102363 
40.3336 -30.5488 0.102363 -42.2054 -28.234 0.102363 43.3502 -28.234 0.102363 
48.5576 -24.1164 0.102363 -49.7571 -20.01 0.102363 -50.1304 -19.4833 0.102363 
-50.1304 -20.01 1.03507 52.9691 -20.01 0.102363 56.7816 -15.1526 0.102363 
-55.4058 -11.786 0.102363 58.863 -11.786 0.102363 56.7816 -11.786 5.07483 
-57.8898 -3.56203 0.102363 -58.3544 1.51101 0.102363 -58.3544 -3.56203 4.87364 
61.4439 -3.56203 0.102363 -58.6054 4.66197 0.102363 -58.3544 5.7307 0.102363 
-58.3544 4.66197 6.94597 61.0827 4.66197 0.102363 56.7816 12.2616 0.102363 
56.7816 4.66197 7.24434 -56.4108 12.886 0.102363 56.398 12.886 0.102363 
-51.7019 21.11 0.102363 -50.1304 22.8184 0.102363 -50.1304 21.11 4.70731 
49.4196 21.11 0.102363 48.5576 21.9925 0.102363 48.5576 21.11 1.23906 
-42.326 29.334 0.102363 -41.9064 29.6418 0.102363 -41.9064 29.334 0.617463 
-33.6824 34.1111 0.102363 -33.6824 29.334 5.78447 -25.4584 37.1993 0.102363 
32.1096 36.3543 0.102363 32.1096 29.334 7.02606 40.405 29.334 0.102363 
40.3336 29.3978 0.102363 40.3336 29.334 0.180599 -24.437 37.558 0.102363 
-17.2344 40.3003 0.102363 -17.2344 37.558 2.85725 -9.01043 42.3285 0.102363 
-9.01043 37.558 4.87114 -0.786425 43.3556 0.102363 -0.786425 37.558 6.12532 
7.43758 43.533 0.102363 7.43758 37.558 6.47009 15.6616 42.6571 0.102363 
15.6616 37.558 5.62295 29.8014 37.558 0.102363 23.8856 40.2569 0.102363 
23.8856 37.558 3.18265 -25.4584 -38.8346 8.32637 -17.2344 -41.2784 8.32637 
-9.01043 -43.1072 8.32637 -0.786425 -43.9603 8.32637 7.43758 -43.4951 8.32637 
15.6616 -41.8814 8.32637 23.8856 -39.2321 8.32637 -41.9064 -30.7954 8.32637 
-31.2525 -36.458 8.32637 -33.6824 -35.3779 8.32637 -25.4584 -36.458 14.8968 
29.5217 -36.458 8.32637 23.8856 -36.458 13.3871 32.1096 -35.0876 8.32637 
40.3336 -29.2966 8.32637 -44.9492 -28.234 8.32637 -50.1304 -22.8272 8.32637 
41.7388 -28.234 8.32637 40.3336 -28.234 10.0292 48.5576 -21.7768 8.32637 
-52.3792 -20.01 8.32637 50.0844 -20.01 8.32637 48.5576 -20.01 10.1509 
-57.1775 -11.786 8.32637 -58.3544 -5.45848 8.32637 55.1052 -11.786 8.32637 
48.5576 -11.786 14.7617 56.7816 -4.31404 8.32637 -58.648 -3.56203 8.32637 
-58.3544 3.4483 8.32637 -58.3544 -3.56203 9.50572 48.5576 -3.56203 15.2621 
56.9417 -3.56203 8.32637 56.7816 -2.09932 8.32637 56.7816 -3.56203 8.50311 
-58.3024 4.66197 8.32637 55.7681 4.66197 8.32637 48.5576 4.66197 13.7019 
-54.8382 12.886 8.32637 -50.1304 19.3876 8.32637 -50.1304 12.886 16.1807 
15.6616 12.886 15.8867 23.8856 12.886 15.8375 32.1096 12.886 15.0439 
40.3336 12.886 13.2191 50.3731 12.886 8.32637 48.5576 14.9399 8.32637 
48.5576 12.886 9.79065 -47.7546 21.11 8.32637 -41.9064 24.2899 8.32637 
-41.9064 21.11 12.5808 -33.6824 27.2894 8.32637 -33.6824 21.11 15.9766 
-25.4584 21.11 16.0741 -17.2344 21.11 15.4207 -9.01043 21.11 16.4043 
7.43758 21.11 14.3657 15.6616 21.11 13.0737 23.8856 21.11 12.8303 
32.1096 27.4485 8.32637 32.1096 21.11 11.6509 41.2781 21.11 8.32637 
40.3336 21.9023 8.32637 40.3336 21.11 8.90891 -26.4389 29.334 8.32637 
-25.4584 29.6171 8.32637 -25.4584 29.334 8.60393 -17.2344 30.9913 8.32637 
-17.2344 29.334 9.56929 -9.01043 33.0405 8.32637 -9.01043 29.334 10.9341 
-0.786425 34.7309 8.32637 -0.786425 29.334 12.0949 7.43758 34.9051 8.32637 
7.43758 29.334 11.5153 15.6616 33.7929 8.32637 15.6616 29.334 10.7314 
28.1888 29.334 8.32637 23.8856 31.1375 8.32637 23.8856 29.334 9.48402 
-17.2344 -37.5577 16.5504 -9.01043 -38.6749 16.5504 -0.786425 -39.0872 16.5504 
7.43758 -38.3473 16.5504 15.6616 -37.0435 16.5504 -41.9064 -28.6296 16.5504 
-33.6824 -33.1464 16.5504 -22.2319 -36.458 16.5504 -25.4584 -35.6702 16.5504 
-17.2344 -36.458 17.864 -9.01043 -36.458 18.7966 -0.786425 -36.458 18.9795 
7.43758 -36.458 18.2212 17.4718 -36.458 16.5504 15.6616 -36.458 17.105 
[...]
POINT_DATA 506
SCALARS ImageScalars float
LOOKUP_TABLE default
0 0 0 0 0 0 0 0 0 
0 0 0 0 0 0 0 0 0 
0 0 0 0 0 0 0 0 0 
0 0 0 0 0 0 0 0 0 
0 0 0 0 0 0 0 0 0 
0 0 0 0 0 0 0 0 0 
0 0 0 0 0 0 0 0 0 
0 0 0 0 0 0 0 0 0 
0 0 0 0 0 0 0 0 0 
0 0 0 0 0 0 0 0 0 
0 0 0 0 0 0 0 0 0 
0 0 0 0 0 0 0 0 0 
0 0 0 0 0 0 0 0 0 
0 0 0 0 0 0 0 0 0 
0 0 0 0 0 0 0 0 0 
0 0 0 0 0 0 0 0 0 
0 0 0 0 0 0 0 0 0 
0 0 0 0 0 0 0 0 0 
0 0 0 0 0 0 0 0 0 
0 0 0 0 0 0 0 0 0 
0 0 0 0 0 0 0 0 0 
0 0 0 0 0 0 0 0 0 
0 0 0 0 0 0 0 0 0 
0 0 0 0 0 0 0 0 0 
0 0 0 0 0 0 0 0 0 
0 0 0 0 0 0 0 0 0 
0 0 0 0 0 0 0 0 0 
0 0 0 0 0 0 0 0 0 
0 0 0 0 0 0 0 0 0 
0 0 0 0 0 0 0 0 0 
0 0 0 0 0 0 0 0 0 
0 0 0 0 0 0 0 0 0 
0 0 0 0 0 0 0 0 0 
0 0 0 0 0 0 0 0 0 
0 0 0 0 0 0 0 0 0 
0 0 0 0 0 0 0 0 0 
0 0 0 0 0 0 0 0 0 
0 0 0 0 0 0 0 0 0 
0 0 0 0 0 0 0 0 0 
0 0 0 0 0 0 0 0 0 
0 0 0 0 0 0 0 0 0 
0 0 0 0 0 0 0 0 0 
0 0 0 0 0 0 0 0 0 
0 0 0 0 0 0 0 0 0 
0 0 0 0 0 0 0 0 0 
0 0 0 0 0 0 0 0 0 
0 0 0 0 0 0 0 0 0 
0 0 0 0 0 0 0 0 0 
0 0 0 0 0 0 0 0 0 
0 0 0 0 0 0 0 0 0 
0 0 0 0 0 0 0 0 0 
0 0 0 0 0 0 0 0 0 
0 0 0 0 0 0 0 0 0 
0 0 0 0 0 0 0 0 0 
0 0 0 0 0 0 0 0 0 
0 0 0 0 0 0 0 0 0 
0 0 
NORMALS Normals float
0.190628 0.346227 0.918579 0.0251567 0.363581 0.931223 -0.00244588 0.384039 0.923314 
-1.66233e-05 0.440264 0.897869 -0.126595 0.521759 0.843648 0.257444 0.253894 0.932341 
0.215448 0.252527 0.943298 0.0512068 0.220026 0.974149 -0.00462802 0.289429 0.957188 
0.0324438 0.224411 0.973954 -0.0148702 0.25189 0.967642 -0.171138 0.371857 0.912378 
-0.341758 0.505446 0.792291 0.204686 0.246206 0.947357 0.255479 0.245964 0.935004 
0.13037 0.161833 0.978169 0.0676957 0.0277658 0.99732 0.0014742 0.220887 0.975298 
-0.0223094 0.115742 0.993029 0.0410555 0.126615 0.991102 -0.0329032 0.210144 0.977117 
-0.177195 0.343201 0.922396 -0.427996 0.440788 0.789003 0.179252 0.256549 0.949764 
0.154642 0.199967 0.967522 0.18814 0.0744408 0.979317 -0.00251718 0.101083 0.994875 
0.117346 0.159336 0.980225 0.0777273 0.0842491 0.993409 -0.0633374 0.0736579 0.99527 
0.0844502 0.11918 0.989275 0.0520987 0.151135 0.987139 -0.116484 0.177487 0.977205 
-0.355595 0.178627 0.917412 -0.699788 0.217534 0.680424 0.306793 0.213837 0.927444 
0.130928 0.171153 0.976506 0.0467733 0.157697 0.986379 0.140578 0.0213385 0.98984 
0.228959 0.00123556 0.973435 0.0494961 0.144368 0.988285 -0.0941945 -0.129262 0.987126 
0.012639 0.0167131 0.99978 0.121896 0.0823799 0.989118 0.0389223 0.0470913 0.998132 
-0.144301 0.0191882 0.989348 -0.378241 -0.0463325 0.924547 -0.73135 -0.14016 0.667445 
0.321756 0.0288114 0.946384 0.125477 0.123897 0.98433 0.00902233 0.112517 0.993609 
0.0265268 0.0837541 0.996133 0.126919 -0.0704 0.989412 -0.016376 -0.128568 0.991565 
-0.0394285 -0.0948842 0.994707 0.144993 0.0178745 0.989271 0.118243 -0.0312564 0.992493 
-0.0136227 -0.0808493 0.996633 -0.201743 -0.160909 0.96613 -0.505212 -0.299296 0.809434 
0.476236 -0.167566 0.863204 0.211915 -0.0733655 0.97453 -0.00180735 0.032951 0.999455 
-0.0375346 0.0309486 0.998816 0.018519 -0.00904965 0.999788 0.024159 -0.076741 0.996758 
0.0477578 0.0238659 0.998574 0.0780308 0.00672122 0.996928 0.0210021 -0.126052 0.991801 
-0.0959647 -0.217122 0.971416 -0.371862 -0.404666 0.835442 0.3128 -0.363448 0.877532 
0.116503 -0.252708 0.960503 -0.0089955 -0.143311 0.989637 0.0152341 -0.0655089 0.997736 
0.0193595 -0.106853 0.994086 0.0421825 -0.106709 0.993395 -0.0033334 -0.162522 0.986699 
-0.111723 -0.279023 0.953763 -0.304796 -0.470508 0.828084 0.228093 -0.643143 0.730987 
0.154392 -0.506654 0.848213 0.0665916 -0.395579 0.916015 -0.00559038 -0.393485 0.919314 
-0.0220741 -0.412617 0.910637 -0.120702 -0.491298 0.862587 -0.298648 -0.619282 0.726153 
0.344733 0.674503 0.652844 0.192633 0.359552 0.913025 0.212328 0.627622 0.749004 
0.0223089 0.425345 0.904756 0.014045 0.615961 0.787651 -0.0174838 0.419235 0.907709 
-0.10394 0.646894 0.755463 -0.0265707 0.498664 0.866388 -0.148304 0.740396 0.655606 
-0.136071 0.551996 0.822669 -0.275256 0.824722 0.494033 0.328032 0.475859 0.81606 
0.202084 0.348008 0.915452 0.259078 0.258275 0.930684 0.299109 0.380746 0.874967 
-0.187963 0.555717 0.809845 -0.264196 0.548857 0.793068 -0.316411 0.632504 0.706982 
-0.363879 0.542498 0.757158 0.500021 0.472286 0.725896 0.31445 0.38676 0.866913 
0.256302 0.255909 0.932105 0.208306 0.256393 0.94386 0.238227 0.309813 0.92047 
-0.377894 0.538034 0.753469 -0.457402 0.523236 0.719032 -0.571501 0.677425 0.463122 
0.401803 0.372602 0.836494 0.203765 0.263975 0.94276 0.198145 0.289389 0.936479 
0.218637 0.313967 0.923917 -0.519575 0.461984 0.718757 -0.703639 0.239901 0.668834 
-0.785444 0.491261 0.376484 0.615378 0.306588 0.726163 0.296495 0.279241 0.913299 
0.340861 0.270164 0.900458 0.360768 0.290203 0.886357 -0.716961 0.214478 0.663299 
0.437037 0.215431 0.873263 0.632875 0.172324 0.754833 -0.756557 -0.144092 0.637855 
-0.750317 -0.201384 0.629658 0.569943 -0.0428169 0.820568 0.696068 -0.0971431 0.711373 
-0.695228 -0.404315 0.594296 -0.642408 -0.563716 0.519169 -0.831639 -0.503271 0.234723 
0.606011 -0.256981 0.752803 0.816344 -0.464388 0.343403 0.620091 -0.5229 0.584861 
-0.634386 -0.576494 0.514984 -0.572195 -0.637337 0.516133 -0.666391 -0.604895 0.435918 
0.619343 -0.524901 0.58386 0.621923 -0.527697 0.578574 0.444143 -0.67847 0.585163 
-0.55637 -0.645841 0.522821 -0.456477 -0.683445 0.569678 -0.626628 -0.697247 0.348115 
0.355965 -0.718277 0.597802 0.513106 -0.858164 -0.0166394 0.261065 -0.718014 0.645214 
0.165112 -0.717622 0.676578 0.109803 -0.748374 0.654126 0.0261882 -0.729913 0.683038 
-0.0731707 -0.727426 0.682274 -0.164573 -0.740652 0.651421 -0.386267 -0.691442 0.610496 
-0.323766 -0.704612 0.631425 -0.551124 -0.81496 0.179174 0.117294 -0.993066 0.00783109 
0.025244 -0.989215 0.144282 -0.0713762 -0.988941 0.130001 0.344548 0.704513 0.620442 
0.208723 0.795396 0.569017 0.00724877 0.825815 0.563895 0.0235647 0.990224 0.137484 
-0.126944 0.805818 0.578396 -0.183083 0.815421 0.549153 -0.284353 0.837468 0.466681 
0.354094 0.688156 0.633292 0.366277 0.602805 0.708849 0.39218 0.812871 0.430622 
-0.305447 0.83478 0.458088 -0.42265 0.808594 0.40932 0.506175 0.482057 0.715128 
0.593219 0.694207 0.407637 0.410816 0.562751 0.717315 0.414056 0.557317 0.719691 
0.426177 0.580331 0.693967 -0.511962 0.778431 0.363235 -0.51215 0.778343 0.36316 
-0.512709 0.778766 0.361459 -0.609782 0.718962 0.333556 0.512218 0.475806 0.715012 
-0.644714 0.694002 0.320478 -0.797327 0.532612 0.283891 0.571541 0.425018 0.701926 
0.615738 0.393317 0.682765 0.633587 0.437595 0.638027 -0.825994 0.488868 0.28061 
0.718725 0.263689 0.643352 -0.955475 0.193806 0.222502 0.82374 0.0746256 0.562035 
0.974656 -0.0699037 0.212506 -0.960528 -0.200873 0.192448 0.898976 -0.205666 0.386709 
-0.851848 -0.513727 0.102174 -0.829502 -0.550043 0.0968433 -0.819787 -0.534558 -0.20542 
0.834707 -0.481815 0.26668 0.819643 -0.519024 0.242487 -0.73324 -0.677345 0.0596978 
-0.709827 -0.702316 0.0538257 0.706911 -0.705585 0.0492664 0.653157 -0.75721 0.00433515 
-0.675865 -0.735362 0.0494952 -0.663607 -0.746605 0.0469784 0.512691 -0.855879 -0.0679659 
0.508795 -0.858076 -0.0695256 0.505193 -0.857902 -0.0937238 0.381665 -0.920119 -0.0878199 
0.280104 -0.785752 -0.551484 0.248206 -0.967866 -0.0403636 -0.196435 -0.98009 0.0289207 
-0.377275 -0.925903 0.0191447 -0.573913 -0.815759 0.0718376 -0.556643 -0.827682 0.071357 
-0.541512 -0.829354 -0.137611 0.130596 -0.991138 -0.0242996 0.116694 -0.992909 -0.0226822 
0.118336 -0.991772 -0.0488444 0.0238355 -0.9996 -0.0152033 0.0317854 -0.990736 -0.132033 
-0.136158 -0.990539 0.0171444 -0.0656253 -0.99784 0.00302343 -0.0607388 -0.992481 -0.106266 
0.0242276 0.992272 0.121694 0.38025 0.885696 0.266369 0.314163 0.929561 0.192919 
0.0428448 0.991564 0.122335 0.200598 0.971169 0.128806 -0.00267245 0.992131 0.125178 
0.0241226 0.997513 0.0662301 -0.138705 0.979994 0.142732 -0.245139 0.958468 0.145764 
-0.356034 0.927195 0.116398 0.594409 0.700844 0.394328 0.425596 0.857365 0.289469 
0.482531 0.81451 0.322082 -0.468748 0.878671 0.0906241 -0.485168 0.870148 0.0863375 
-0.585333 0.809101 0.0523576 0.599372 0.696236 0.394979 -0.610515 0.791202 0.0356484 
-0.650816 0.759195 -0.00780592 0.73171 0.545799 0.408294 0.737616 0.538647 0.407163 
0.74877 0.552799 0.365727 -0.717322 0.69586 -0.0350258 -0.845977 0.524414 -0.0965037 
0.83907 0.416265 0.350264 -0.901847 0.412865 -0.127338 -0.854405 0.357902 -0.376693 
0.95161 0.154732 0.265512 0.97657 0.00757985 0.215067 0.993666 0.0956393 0.0590087 
-0.966546 0.128203 -0.222156 0.979528 -0.0780059 0.18558 0.97931 -0.113334 0.167649 
0.977924 -0.167752 -0.124599 -0.923352 -0.270616 -0.272375 -0.801347 -0.510997 -0.311006 
-0.716069 -0.287695 -0.635985 0.931373 -0.363736 0.0155071 -0.789152 -0.528825 -0.312384 
0.758099 -0.642867 -0.109579 0.721793 -0.677269 -0.142551 0.666812 -0.692777 -0.274631 
-0.651721 -0.679317 -0.337324 -0.644766 -0.685339 -0.338506 -0.633197 -0.674146 -0.380249 
0.515446 -0.778801 -0.357469 0.505221 -0.782455 -0.364027 0.497892 -0.781817 -0.375319 
0.37879 -0.775101 -0.505704 0.28282 -0.750008 -0.597914 0.268054 -0.767734 -0.582007 
-0.486646 -0.770737 -0.411266 -0.36825 -0.553399 -0.747089 -0.6032 -0.696914 -0.387894 
-0.602886 -0.697083 -0.388077 -0.601808 -0.696234 -0.391262 0.264953 -0.763411 -0.58907 
0.238304 -0.761006 -0.603391 0.221429 -0.686879 -0.692218 0.142668 -0.803469 -0.577999 
0.147857 -0.65806 -0.738306 0.0568536 -0.842421 -0.535813 0.0735327 -0.654001 -0.752912 
-0.0348197 -0.856522 -0.514935 -0.0224962 -0.637191 -0.770378 -0.162387 -0.848451 -0.503748 
-0.142832 -0.650852 -0.745648 -0.436585 -0.78846 -0.433271 -0.314937 -0.815004 -0.486398 
-0.281671 -0.733278 -0.618841 0.325668 0.936826 -0.127661 0.25136 0.948968 -0.19047 
0.154893 0.955211 -0.252151 0.021869 0.960867 -0.276147 -0.119632 0.955666 -0.269055 
-0.241856 0.935456 -0.257737 -0.362407 0.895881 -0.257017 0.593947 0.804502 -0.00167796 
0.407026 0.910779 -0.0693641 0.442143 0.895834 -0.0446133 0.238292 0.866008 -0.4396 
-0.447482 0.857445 -0.254063 -0.336871 0.785983 -0.518411 -0.491255 0.831989 -0.257805 
-0.594613 0.749132 -0.291953 0.667915 0.744219 0.0051516 0.781538 0.623441 0.0227935 
-0.606977 0.736142 -0.299456 -0.595705 0.711702 -0.372312 -0.699355 0.589642 -0.404011 
0.82028 0.571422 0.0248442 -0.720777 0.547804 -0.424724 -0.687608 0.523362 -0.503277 
0.93081 0.362095 -0.0497878 0.989278 0.124553 -0.0762554 -0.775155 0.295317 -0.5585 
-0.559035 0.187554 -0.807653 -0.769043 0.0659657 -0.635784 0.995136 0.0566046 -0.0806232 
0.974105 -0.148762 -0.170263 0.990001 0.0504958 -0.131712 -0.459274 -0.0504629 -0.88686 
-0.765115 0.0430328 -0.642455 -0.755389 -0.0157164 -0.655088 -0.760904 0.0410353 -0.647566 
0.965304 -0.18404 -0.185251 -0.665314 -0.283457 -0.690659 -0.450063 -0.283026 -0.846959 
0.818947 -0.507748 -0.267428 0.637392 -0.671808 -0.377366 0.574813 -0.552424 -0.60367 
-0.0873699 -0.418132 -0.904175 -0.0486518 -0.329735 -0.942819 -0.14059 -0.35311 -0.924958 
-0.285108 -0.404731 -0.868854 -0.553562 -0.469591 -0.687789 -0.520899 -0.499822 -0.691984 
-0.492414 -0.458418 -0.739852 0.530341 -0.736043 -0.420689 0.348281 -0.788925 -0.506259 
0.308973 -0.776797 -0.548746 0.233709 -0.751624 -0.616799 0.120037 -0.73053 -0.672248 
-0.0295386 -0.653833 -0.756062 0.0180678 -0.578877 -0.815215 0.125247 -0.555827 -0.821808 
-0.260519 -0.329254 -0.907591 -0.0848928 -0.289518 -0.9534 -0.0778725 -0.342601 -0.936248 
-0.315915 -0.509155 -0.800599 -0.207549 -0.425621 -0.880778 -0.427322 -0.546518 -0.720218 
-0.418111 -0.54595 -0.726031 -0.402957 -0.53205 -0.74468 0.159228 -0.692515 -0.703611 
0.151091 -0.685362 -0.712356 0.145954 -0.684122 -0.714615 0.130163 -0.598551 -0.790439 
0.109511 -0.590372 -0.799667 0.135192 -0.577924 -0.804815 0.126065 -0.554409 -0.822641 
0.064201 -0.604923 -0.793692 0.02553 -0.572994 -0.819162 -0.0298454 -0.548688 -0.835494 
-0.0769462 -0.412634 -0.907641 -0.123601 -0.50324 -0.855262 -0.106867 -0.379491 -0.919003 
-0.272856 -0.505623 -0.818471 -0.204771 -0.513331 -0.833403 -0.189593 -0.464069 -0.865272 
0.156393 0.799683 -0.579696 0.0785363 0.757555 -0.64803 -0.0137481 0.723543 -0.690142 
-0.0985639 0.682571 -0.724142 -0.19186 0.678473 -0.70913 0.538273 0.717993 -0.441303 
0.356284 0.808837 -0.467809 0.187957 0.816206 -0.546332 0.207848 0.819609 -0.533892 
0.139445 0.759678 -0.635173 0.050802 0.676148 -0.735012 -0.0307211 0.618908 -0.784862 
-0.0961177 0.606451 -0.78929 -0.215821 0.672932 -0.707519 -0.188386 0.653001 -0.733553 
-0.277571 0.623947 -0.73051 -0.40963 0.558812 -0.721063 0.549153 0.710531 -0.439973 
0.736183 0.548727 -0.396148 0.534305 0.706591 -0.463948 0.278214 0.608664 -0.743051 
0.0944847 0.495508 -0.863449 0.0195399 0.384064 -0.9231 -0.016172 0.325151 -0.945524 
-0.0803605 0.308285 -0.947894 -0.0988168 0.29934 -0.949016 -0.121973 0.290988 -0.94892 
-0.209339 0.383936 -0.899317 -0.440737 0.528128 -0.725832 -0.390231 0.493952 -0.777001 
-0.477881 0.354236 -0.803832 0.743707 0.538265 -0.396448 0.731929 0.534327 -0.422817 
0.381535 0.402236 -0.832248 -0.128735 0.126297 -0.983604 -0.111917 0.0645822 -0.991617 
-0.140943 0.0937733 -0.985567 -0.273115 0.157632 -0.948978 -0.476966 0.327482 -0.815634 
-0.455312 0.307297 -0.835619 0.829 0.30674 -0.467621 0.653272 0.236951 -0.719089 
-0.164218 -0.019532 -0.986231 -0.158407 -0.0301212 -0.986914 -0.12222 -0.0932989 -0.988108 
-0.186838 -0.0423996 -0.981475 -0.449595 0.11824 -0.885372 -0.32173 0.0513918 -0.945436 
0.868198 0.00955874 -0.496126 0.577632 -0.0257336 -0.815892 -0.180255 -0.201992 -0.962656 
-0.118923 -0.187657 -0.975009 -0.184528 -0.124373 -0.974926 -0.146734 -0.189353 -0.970883 
-0.135863 -0.162713 -0.977275 -0.358228 -0.0842061 -0.929829 -0.248289 -0.126743 -0.960359 
0.778113 -0.252267 -0.57524 0.570534 -0.54041 -0.618424 0.576328 -0.28743 -0.765004 
-0.251128 -0.159335 -0.95475 -0.0825197 -0.32358 -0.942596 -0.102182 -0.416724 -0.903272 
-0.161691 -0.351835 -0.921991 -0.0707893 -0.314622 -0.946574 -0.139383 -0.267752 -0.953353 
-0.122073 -0.306522 -0.944003 -0.112631 -0.259804 -0.95907 -0.224427 -0.264372 -0.937945 
-0.221007 -0.265856 -0.938337 -0.220326 -0.263862 -0.93906 0.553515 -0.554555 -0.621361 
0.293265 -0.700847 -0.650237 0.275847 -0.529199 -0.802407 0.109652 -0.719271 -0.686021 
0.0462529 -0.510595 -0.858576 -0.0389585 -0.644805 -0.763353 -0.078188 -0.479316 -0.874152 
0.00735739 -0.570985 -0.820927 -0.0175763 -0.502955 -0.864134 0.123349 -0.554841 -0.822761 
0.0247386 -0.475708 -0.879255 -0.22081 -0.223807 -0.949291 -0.195061 -0.416047 -0.888176 
-0.316449 -0.384267 -0.867294 -0.324975 -0.390369 -0.861396 0.101869 -0.553639 -0.826503 
-0.17495 -0.46189 -0.869512 -0.0899722 -0.53205 -0.841919 -0.115196 -0.509584 -0.852675 
0.176062 0.373232 -0.910879 0.0389797 0.363939 -0.930607 -0.0300128 0.267593 -0.963065 
-0.0467203 0.174266 -0.98359 -0.081354 0.132525 -0.987835 0.263743 0.340633 -0.902446 
0.333151 0.265142 -0.904826 0.143306 0.28439 -0.947938 -0.00564957 0.2334 -0.972364 
-0.0746764 0.169423 -0.98271 -0.057591 0.124102 -0.990597 -0.0853712 0.121684 -0.988891 
-0.0811776 0.121492 -0.989267 0.37581 0.15573 -0.913518 0.298544 0.145841 -0.943187 
0.0920194 0.101332 -0.990588 -0.0479565 0.0440946 -0.997876 -0.0998083 0.0486898 -0.993815 
-0.0675138 0.0704257 -0.99523 -0.136133 -0.0230747 -0.990422 -0.14196 -0.133119 -0.980881 
-0.0819865 -0.029424 -0.996199 0.393205 -0.045471 -0.918326 0.25931 -0.056742 -0.964126 
0.0449546 -0.0836284 -0.995483 -0.0587055 -0.0999337 -0.993261 -0.0495551 -0.0885528 -0.994838 
-0.17115 -0.161393 -0.971936 -0.135192 -0.0273381 -0.990442 0.248663 -0.272167 -0.929565 
0.24561 -0.274562 -0.929673 0.245231 -0.271988 -0.930529 0.0506294 -0.354548 -0.933666 
0.0528047 -0.270105 -0.961382 -0.0620442 -0.335502 -0.939994 -0.0536893 -0.285158 -0.956976 
-0.0268151 -0.322078 -0.946333 -0.0279297 -0.307608 -0.951103 -0.1773 -0.237837 -0.954986 
-0.136231 -0.283305 -0.949305 -0.160364 -0.247506 -0.955523 
