# vtk DataFile Version 4.2
vtk output
ASCII
DATASET POLYDATA
POINTS 520 float
-17.4414 -43.9781 -17.6465 -8.95048 -43.9781 -19.0902 -0.459586 -43.9781 -20.2325 
8.0313 -43.9781 -20.0709 16.5222 -43.9781 -19.2928 25.0131 -43.9781 -16.8496 
-34.4231 -35.4872 -18.7077 -25.9323 -35.4872 -19.8125 -17.4414 -35.4872 -21.2496 
-8.95048 -35.4872 -21.196 -0.459586 -35.4872 -21.6504 8.0313 -35.4872 -21.3903 
16.5222 -35.4872 -21.5449 25.0131 -35.4872 -18.9762 33.504 -35.4872 -17.691 
41.9949 -35.4872 -15.805 -42.914 -26.9963 -19.4464 -34.4231 -26.9963 -21.3408 
-25.9323 -26.9963 -21.7047 -17.4414 -26.9963 -21.9167 -8.95048 -26.9963 -21.5329 
-0.459586 -26.9963 -21.6367 8.0313 -26.9963 -21.0449 16.5222 -26.9963 -20.6558 
25.0131 -26.9963 -21.013 33.504 -26.9963 -19.6431 41.9949 -26.9963 -18.8793 
50.4858 -26.9963 -15.9857 -51.4049 -18.5054 -16.6624 -42.914 -18.5054 -21.4876 
-34.4231 -18.5054 -22.2187 -25.9323 -18.5054 -22.4608 -17.4414 -18.5054 -21.2379 
-8.95048 -18.5054 -20.9611 -0.459586 -18.5054 -20.8826 8.0313 -18.5054 -20.3472 
16.5222 -18.5054 -19.5386 25.0131 -18.5054 -20.01 33.504 -18.5054 -21.0519 
41.9949 -18.5054 -20.2637 50.4858 -18.5054 -17.8327 -51.4049 -10.0145 -18.7465 
-42.914 -10.0145 -22.3212 -34.4231 -10.0145 -22.5383 -25.9323 -10.0145 -21.4752 
-17.4414 -10.0145 -20.2253 -8.95048 -10.0145 -21.4294 -0.459586 -10.0145 -21.5729 
8.0313 -10.0145 -22.6582 16.5222 -10.0145 -19.2511 25.0131 -10.0145 -19.0364 
33.504 -10.0145 -20.1492 41.9949 -10.0145 -20.2086 50.4858 -10.0145 -18.416 
-51.4049 -1.52365 -19.8469 -42.914 -1.52365 -22.5118 -34.4231 -1.52365 -22.3482 
-25.9323 -1.52365 -20.9156 -17.4414 -1.52365 -18.7932 -8.95048 -1.52365 -22.1883 
-0.459586 -1.52365 -18.2125 8.0313 -1.52365 -23.3642 16.5222 -1.52365 -19.7217 
25.0131 -1.52365 -19.254 33.504 -1.52365 -20.3024 41.9949 -1.52365 -20.252 
50.4858 -1.52365 -18.1585 -51.4049 6.96724 -18.9438 -42.914 6.96724 -21.7707 
-34.4231 6.96724 -21.9381 -25.9323 6.96724 -20.8512 -17.4414 6.96724 -19.6869 
-8.95048 6.96724 -21.1476 -0.459586 6.96724 -18.3818 8.0313 6.96724 -20.8621 
16.5222 6.96724 -18.9907 25.0131 6.96724 -19.8293 33.504 6.96724 -20.6693 
41.9949 6.96724 -20.3184 50.4858 6.96724 -17.5829 -51.4049 15.4581 -17.8603 
-42.914 15.4581 -20.631 -34.4231 15.4581 -21.7501 -25.9323 15.4581 -21.1071 
-17.4414 15.4581 -19.9372 -8.95048 15.4581 -16.9435 8.0313 15.4581 -18.8754 
16.5222 15.4581 -19.2672 25.0131 15.4581 -20.4517 33.504 15.4581 -20.5825 
41.9949 15.4581 -19.9928 50.4858 15.4581 -15.9337 -42.914 23.949 -19.5525 
-34.4231 23.949 -21.0894 -25.9323 23.949 -20.716 -17.4414 23.949 -19.2329 
-8.95048 23.949 -15.9108 8.0313 23.949 -17.6326 16.5222 23.949 -19.1802 
25.0131 23.949 -19.6091 33.504 23.949 -19.3464 41.9949 23.949 -18.0512 
-42.914 32.4399 -16.2964 -34.4231 32.4399 -18.7234 -25.9323 32.4399 -18.7861 
-17.4414 32.4399 -16.9959 16.5222 32.4399 -17.1985 25.0131 32.4399 -17.7967 
33.504 32.4399 -16.4338 -17.4414 -45.8789 -15.7985 -8.95048 -48.5681 -15.7985 
-0.459586 -50.4673 -15.7985 -0.459586 -52.469 -7.80866 8.0313 -50.5593 -15.7985 
16.5222 -47.8438 -15.7985 25.0131 -45.2024 -15.7985 -34.4231 -38.8372 -15.7985 
-25.8785 -43.9781 -15.7985 -25.9323 -43.9592 -15.7985 -25.9323 -43.9781 -15.7719 
27.3002 -43.9781 -15.7985 33.504 -38.6391 -15.7985 41.9949 -35.4951 -15.7985 
-39.5863 -35.4872 -15.7985 -42.914 -32.5925 -15.7985 -42.914 -35.4872 -11.472 
42.0059 -35.4872 -15.7985 50.4858 -27.2958 -15.7985 -47.3299 -26.9963 -15.7985 
-51.4049 -20.2664 -15.7985 -51.4049 -26.9963 -7.74443 50.7455 -26.9963 -15.7985 
-52.2069 -18.5054 -15.7985 54.5601 -18.5054 -15.7985 58.9766 -18.5054 -11.2865 
-54.3637 -10.0145 -15.7985 55.1105 -10.0145 -15.7985 58.9766 -10.0145 -12.4541 
-55.4872 -1.52365 -15.7985 54.039 -1.52365 -15.7985 58.9766 -1.52365 -10.3701 
-54.9454 6.96724 -15.7985 -0.459586 13.5776 -15.7985 52.8795 6.96724 -15.7985 
-53.816 15.4581 -15.7985 -51.4049 21.6159 -15.7985 -3.92129 15.4581 -15.7985 
1.08464 15.4581 -15.7985 -0.459586 15.4581 -15.1068 50.6588 15.4581 -15.7985 
50.4858 15.8972 -15.7985 -49.8506 23.949 -15.7985 -51.4049 23.949 -14.4442 
-8.35427 23.949 -15.7985 -8.95048 24.4363 -15.7985 3.28779 23.949 -15.7985 
-0.459586 23.949 -14.3879 8.0313 31.0223 -15.7985 46.0142 23.949 -15.7985 
41.9949 29.3697 -15.7985 50.4858 23.949 -11.8116 -43.6201 32.4399 -15.7985 
-42.914 33.0965 -15.7985 -34.4231 36.7377 -15.7985 -25.9323 37.7064 -15.7985 
-14.2453 32.4399 -15.7985 -17.4414 34.7991 -15.7985 -8.95048 32.4399 -13.8523 
-0.459586 32.4399 -13.5232 9.83574 32.4399 -15.7985 8.0313 32.4399 -15.425 
16.5222 35.4786 -15.7985 25.0131 36.6173 -15.7985 36.3257 32.4399 -15.7985 
33.504 33.5235 -15.7985 41.9949 32.4399 -14.0932 -34.4231 40.9308 -11.4661 
-25.9323 40.9308 -12.7887 -17.4414 40.9308 -11.7062 -8.95048 40.9308 -9.44714 
-0.459586 40.9308 -9.37601 8.0313 40.9308 -11.5156 16.5222 40.9308 -12.7398 
25.0131 40.9308 -12.7918 33.504 40.9308 -10.1388 -0.459586 -52.5563 -7.30764 
-25.9323 -46.7424 -7.30764 -17.4414 -49.5083 -7.30764 -1.18641 -52.469 -7.30764 
-8.95048 -51.4263 -7.30764 5.77284 -52.469 -7.30764 -0.459586 -52.469 -7.09949 
8.0313 -52.4324 -7.30764 16.5222 -50.8189 -7.30764 25.0131 -47.8384 -7.30764 
-42.914 -37.2778 -7.30764 -32.3909 -43.9781 -7.30764 -34.4231 -43.043 -7.30764 
-25.9323 -43.9781 -0.516499 33.4429 -43.9781 -7.30764 25.0131 -43.9781 -1.33528 
33.504 -43.9455 -7.30764 41.9949 -39.1463 -7.30764 -44.8949 -35.4872 -7.30764 
-51.4049 -27.2483 -7.30764 -42.914 -35.4872 -1.03271 47.7273 -35.4872 -7.30764 
41.9949 -35.4872 0.288677 50.4858 -33.4127 -7.30764 -51.5718 -26.9963 -7.30764 
-51.4049 -26.9963 -6.02574 56.6674 -26.9963 -7.30764 58.9766 -22.7099 -7.30764 
-55.4571 -18.5054 -7.30764 60.8008 -18.5054 -7.30764 -58.0867 -10.0145 -7.30764 
62.1645 -10.0145 -7.30764 -59.5053 -1.52365 -7.30764 60.6679 -1.52365 -7.30764 
58.9766 6.61021 -7.30764 -59.6519 6.96724 -7.30764 -59.8958 6.96724 -0.3662 
58.8944 6.96724 -7.30764 58.9766 6.96724 -6.39648 -58.6128 15.4581 -7.30764 
56.2939 15.4581 -7.30764 -55.7018 23.949 -7.30764 -51.4049 30.9701 -7.30764 
53.4101 23.949 -7.30764 50.4858 29.2562 -7.30764 -50.3107 32.4399 -7.30764 
-42.914 39.4856 -7.30764 48.3573 32.4399 -7.30764 41.9949 38.3502 -7.30764 
-40.204 40.9308 -7.30764 -34.4231 43.4757 -7.30764 -25.9323 44.606 -7.30764 
-17.4414 44.3514 -7.30764 -8.95048 42.8926 -7.30764 -0.459586 42.9635 -7.30764 
8.0313 44.5745 -7.30764 16.5222 45.8277 -7.30764 25.0131 45.3785 -7.30764 
37.7057 40.9308 -7.30764 33.504 43.1735 -7.30764 -17.4414 -45.3071 1.18325 
-8.95048 -46.5777 1.18325 -0.459586 -47.0569 1.18325 8.0313 -46.768 1.18325 
16.5222 -45.1661 1.18325 -34.4231 -40.6917 1.18325 -22.6469 -43.9781 1.18325 
-25.9323 -43.139 1.18325 -17.4414 -43.9781 2.65488 -8.95048 -43.9781 3.46866 
-0.459586 -43.9781 3.55895 8.0313 -43.9781 3.32749 19.4119 -43.9781 1.18325 
16.5222 -43.9781 2.14943 25.0131 -42.025 1.18325 33.504 -38.9633 1.18325 
-41.9598 -35.4872 1.18325 -42.914 -34.8476 1.18325 -34.4231 -35.4872 9.17856 
-0.459586 -35.4872 8.95981 8.0313 -35.4872 8.73735 16.5222 -35.4872 8.34933 
25.0131 -35.4872 7.13513 40.7517 -35.4872 1.18325 33.504 -35.4872 4.12642 
41.9949 -34.9903 1.18325 50.4858 -30.8195 1.18325 -50.4254 -26.9963 1.18325 
-51.4049 -25.4281 1.18325 41.9949 -26.9963 9.44007 54.0903 -26.9963 1.18325 
50.4858 -26.9963 5.55439 58.9766 -21.0018 1.18325 -55.0968 -18.5054 1.18325 
60.4892 -18.5054 1.18325 58.9766 -18.5054 4.68622 -58.1415 -10.0145 1.18325 
62.2261 -10.0145 1.18325 -59.6742 -1.52365 1.18325 -59.8958 5.35342 1.18325 
61.3737 -1.52365 1.18325 -59.947 6.96724 1.18325 -59.8958 7.46517 1.18325 
-59.8958 6.96724 1.59802 59.6525 6.96724 1.18325 58.9766 9.08048 1.18325 
58.9766 6.96724 6.62871 -59.0307 15.4581 1.18325 57.096 15.4581 1.18325 
-56.0195 23.949 1.18325 -51.4049 31.3072 1.18325 54.299 23.949 1.18325 
50.4858 31.7591 1.18325 -50.4983 32.4399 1.18325 -42.914 39.1963 1.18325 
50.1025 32.4399 1.18325 41.9949 40.5197 1.18325 -39.8649 40.9308 1.18325 
-34.4231 43.5686 1.18325 -34.4231 40.9308 7.53903 -25.9323 45.5667 1.18325 
-17.4414 46.3976 1.18325 -8.95048 45.9086 1.18325 -0.459586 46.1679 1.18325 
8.0313 47.2358 1.18325 16.5222 47.7414 1.18325 25.0131 47.2721 1.18325 
41.3866 40.9308 1.18325 33.504 45.0826 1.18325 -25.9323 -35.9461 9.67414 
-17.4414 -36.29 9.67414 -8.95048 -35.5144 9.67414 -42.914 -30.7523 9.67414 
-30.8336 -35.4872 9.67414 -34.4231 -35.1436 9.67414 -25.9323 -35.4872 10.1132 
-17.4414 -35.4872 10.3262 -8.74568 -35.4872 9.67414 -8.95048 -35.4872 9.6928 
-0.459586 -34.2507 9.67414 8.0313 -34.0783 9.67414 16.5222 -33.4949 9.67414 
25.0131 -31.5944 9.67414 33.504 -29.1435 9.67414 -47.3869 -26.9963 9.67414 
-51.4049 -22.1594 9.67414 -42.914 -26.9963 14.9677 -34.4231 -26.9963 17.5046 
-17.4414 -26.9963 16.9258 -8.95048 -26.9963 15.5847 -0.459586 -26.9963 14.3817 
8.0313 -26.9963 15.0515 16.5222 -26.9963 14.3334 25.0131 -26.9963 12.7155 
41.0675 -26.9963 9.67414 33.504 -26.9963 11.4437 41.9949 -26.7461 9.67414 
50.4858 -22.765 9.67414 -53.8484 -18.5054 9.67414 -51.4049 -18.5054 15.697 
41.9949 -18.5054 16.7094 55.0823 -18.5054 9.67414 50.4858 -18.5054 13.1394 
58.9766 -10.97 9.67414 -57.4232 -10.0145 9.67414 59.2864 -10.0145 9.67414 
58.9766 -10.0145 10.1403 -58.9618 -1.52365 9.67414 59.8271 -1.52365 9.67414 
58.9766 4.46044 9.67414 58.9766 -1.52365 11.4091 -58.8565 6.96724 9.67414 
58.6163 6.96724 9.67414 -57.278 15.4581 9.67414 56.139 15.4581 9.67414 
-53.4598 23.949 9.67414 -51.4049 26.8454 9.67414 -51.4049 23.949 12.5745 
52.903 23.949 9.67414 50.4858 28.5151 9.67414 50.4858 23.949 14.3572 
-46.2279 32.4399 9.67414 -42.914 35.144 9.67414 -42.914 32.4399 12.801 
-34.4231 39.7906 9.67414 -34.4231 32.4399 16.7194 47.8516 32.4399 9.67414 
41.9949 37.9663 9.67414 41.9949 32.4399 15.8378 -30.5092 40.9308 9.67414 
-25.9323 42.0646 9.67414 -25.9323 40.9308 11.104 -17.4414 42.7566 9.67414 
-17.4414 40.9308 12.0111 -8.95048 42.9524 9.67414 -8.95048 40.9308 12.3628 
-0.459586 43.4381 9.67414 -0.459586 40.9308 12.851 8.0313 44.1339 9.67414 
[...]
POINT_DATA 520
SCALARS ImageScalars float
LOOKUP_TABLE default
0 0 0 0 0 0 0 0 0 
0 0 0 0 0 0 0 0 0 
0 0 0 0 0 0 0 0 0 
0 0 0 0 0 0 0 0 0 
0 0 0 0 0 0 0 0 0 
0 0 0 0 0 0 0 0 0 
0 0 0 0 0 0 0 0 0 
0 0 0 0 0 0 0 0 0 
0 0 0 0 0 0 0 0 0 
0 0 0 0 0 0 0 0 0 
0 0 0 0 0 0 0 0 0 
0 0 0 0 0 0 0 0 0 
0 0 0 0 0 0 0 0 0 
0 0 0 0 0 0 0 0 0 
0 0 0 0 0 0 0 0 0 
0 0 0 0 0 0 0 0 0 
0 0 0 0 0 0 0 0 0 
0 0 0 0 0 0 0 0 0 
0 0 0 0 0 0 0 0 0 
0 0 0 0 0 0 0 0 0 
0 0 0 0 0 0 0 0 0 
0 0 0 0 0 0 0 0 0 
0 0 0 0 0 0 0 0 0 
0 0 0 0 0 0 0 0 0 
0 0 0 0 0 0 0 0 0 
0 0 0 0 0 0 0 0 0 
0 0 0 0 0 0 0 0 0 
0 0 0 0 0 0 0 0 0 
0 0 0 0 0 0 0 0 0 
0 0 0 0 0 0 0 0 0 
0 0 0 0 0 0 0 0 0 
0 0 0 0 0 0 0 0 0 
0 0 0 0 0 0 0 0 0 
0 0 0 0 0 0 0 0 0 
0 0 0 0 0 0 0 0 0 
0 0 0 0 0 0 0 0 0 
0 0 0 0 0 0 0 0 0 
0 0 0 0 0 0 0 0 0 
0 0 0 0 0 0 0 0 0 
0 0 0 0 0 0 0 0 0 
0 0 0 0 0 0 0 0 0 
0 0 0 0 0 0 0 0 0 
0 0 0 0 0 0 0 0 0 
0 0 0 0 0 0 0 0 0 
0 0 0 0 0 0 0 0 0 
0 0 0 0 0 0 0 0 0 
0 0 0 0 0 0 0 0 0 
0 0 0 0 0 0 0 0 0 
0 0 0 0 0 0 0 0 0 
0 0 0 0 0 0 0 0 0 
0 0 0 0 0 0 0 0 0 
0 0 0 0 0 0 0 0 0 
0 0 0 0 0 0 0 0 0 
0 0 0 0 0 0 0 0 0 
0 0 0 0 0 0 0 0 0 
0 0 0 0 0 0 0 0 0 
0 0 0 0 0 0 0 0 0 
0 0 0 0 0 0 0 
NORMALS Normals float
0.196553 0.613639 0.764731 0.142711 0.467251 0.872531 0.0617957 0.395386 0.916434 
-0.0470987 0.380053 0.923765 -0.20711 0.524535 0.825814 -0.357334 0.573802 0.736929 
0.2983 0.511093 0.806103 0.13188 0.317032 0.939201 0.0753988 0.189348 0.979011 
0.0235857 0.139765 0.989904 0.0115035 0.0850132 0.996313 -0.00695019 0.0606048 0.998138 
-0.134091 0.0417313 0.99009 -0.205062 0.236797 0.949672 -0.214706 0.433502 0.875201 
-0.395073 0.585115 0.708208 0.432727 0.397035 0.809389 0.109503 0.176093 0.978264 
0.0318934 0.140782 0.989527 -0.0103481 -0.00281601 0.999942 -0.0161728 -0.0140666 0.99977 
-0.028584 -0.0451243 0.998572 -0.0580685 -0.061468 0.996418 -0.0026798 -0.112718 0.993623 
-0.0602034 0.0552077 0.996658 -0.115462 0.172862 0.978155 -0.221138 0.289165 0.931387 
-0.496203 0.400604 0.770259 0.734353 0.294913 0.611353 0.262469 0.13737 0.955112 
0.0565633 0.066111 0.996208 -0.0571527 -0.0141937 0.998265 -0.082469 -0.100567 0.991507 
-0.0201063 -0.00811017 0.999765 -0.0360359 -0.00382192 0.999343 -0.0795186 0.0572489 0.995188 
-0.0196871 -0.0796105 0.996632 0.0867409 -0.112712 0.989834 0.00854832 0.0284373 0.999559 
-0.163991 0.062141 0.984503 -0.361936 0.134901 0.92239 0.60837 0.155618 0.778247 
0.181674 0.0640336 0.981272 -0.0503293 0.0075766 0.998704 -0.134852 -0.0843162 0.987272 
-0.00746223 -0.14183 0.989863 0.0818054 0.0636077 0.994616 0.0540282 -0.124678 0.990725 
-0.1223 0.197078 0.97273 -0.176432 0.00616801 0.984293 0.0557537 -0.0453529 0.997414 
0.0688059 -0.0428282 0.99671 -0.0908466 -0.00118815 0.995864 -0.339742 0.0181942 0.940343 
0.538747 0.00723627 0.842436 0.11624 -0.0327843 0.99268 -0.092428 -0.035106 0.9951 
-0.209854 -0.0366856 0.977044 0.0281554 -0.036679 0.99893 0.00514034 -0.0148944 0.999876 
0.0811853 -0.222027 0.971655 0.0936215 -0.131954 0.986825 -0.235647 -0.0224806 0.971579 
0.0395625 0.0466792 0.998126 0.0584275 0.0305604 0.997824 -0.112899 0.00640057 0.993586 
-0.407815 -0.0451476 0.911948 0.528121 -0.105001 0.842653 0.148336 -0.108903 0.982922 
-0.0544218 -0.0351259 0.9979 -0.126136 0.0111886 0.99195 0.0081683 0.07031 0.997492 
-0.074908 -0.27655 0.958076 -0.0037816 -0.167013 0.985947 0.0253951 -0.245354 0.969101 
-0.0592603 -0.0199737 0.998043 0.0979165 0.0699231 0.992735 0.029142 0.0164782 0.999439 
-0.159355 -0.0162623 0.987087 -0.500491 -0.12395 0.856823 0.542334 -0.204797 0.81482 
0.215491 -0.118522 0.969286 0.0254805 -0.0499447 0.998427 -0.108017 -0.00772036 0.994119 
-0.222188 -0.026308 0.974649 -0.28771 -0.297751 0.910257 0.209814 -0.184675 0.960142 
0.0938205 0.0113471 0.995524 0.075789 -0.0163844 0.996989 -0.0282238 -0.07362 0.996887 
-0.23846 -0.115034 0.964315 -0.6118 -0.225105 0.758306 0.32288 -0.234 0.917056 
0.0542646 -0.15584 0.986291 -0.104901 -0.136655 0.985049 -0.277501 -0.160446 0.947233 
-0.28648 -0.166784 0.943458 0.268835 -0.184784 0.945295 0.116463 -0.116146 0.98638 
0.00953596 -0.155021 0.987865 -0.0818226 -0.219874 0.972091 -0.317201 -0.315836 0.894221 
0.432291 -0.498404 0.751477 0.127864 -0.425266 0.895991 -0.0888171 -0.36363 0.9273 
-0.280174 -0.363215 0.888582 0.126295 -0.318888 0.93934 -0.0355901 -0.341653 0.939152 
-0.186974 -0.43005 0.883232 0.241993 0.715234 0.655652 0.213005 0.73292 0.646109 
0.0918222 0.817551 0.568488 0.0590207 0.99367 -0.0955801 -0.111679 0.816427 0.566546 
-0.275514 0.739722 0.613924 -0.36166 0.648161 0.670141 0.388467 0.65328 0.649861 
0.305698 0.721616 0.621144 0.305919 0.721277 0.621428 0.306624 0.723273 0.618755 
-0.388014 0.624372 0.677942 -0.326379 0.557885 0.763047 -0.395241 0.58552 0.707779 
0.48098 0.607444 0.632195 0.541475 0.575946 0.612447 0.638398 0.702883 0.313693 
-0.395403 0.585367 0.707815 -0.502317 0.412988 0.759683 0.622951 0.477446 0.619659 
0.74834 0.331419 0.574585 0.855785 0.500575 0.130602 -0.505622 0.405726 0.761402 
0.769853 0.293733 0.566611 -0.578118 0.183515 0.795048 -0.879195 0.272437 0.390888 
0.76339 0.168878 0.62347 -0.551962 -0.0251199 0.833491 -0.817987 -0.0408898 0.573782 
0.761035 0.0309051 0.647974 -0.584745 -0.0817925 0.807083 -0.883615 -0.165863 0.437852 
0.71294 -0.0823898 0.696368 0.102948 -0.223189 0.969324 -0.607392 -0.140235 0.781926 
0.670362 -0.21132 0.711308 0.614745 -0.34611 0.708728 -0.0467701 -0.267496 0.962423 
0.151201 -0.229341 0.961531 0.131548 -0.235849 0.962845 -0.618767 -0.226273 0.752282 
-0.614946 -0.233222 0.753292 0.581718 -0.375622 0.721465 0.66232 -0.408387 0.628134 
-0.260929 -0.161659 0.951726 -0.281526 -0.175249 0.943414 0.182044 -0.137452 0.973636 
0.105519 -0.0903119 0.990308 0.218322 -0.274289 0.936537 -0.479707 -0.359474 0.800412 
-0.370921 -0.445971 0.814572 -0.736331 -0.398111 0.547105 0.45874 -0.50671 0.729934 
0.438139 -0.521074 0.732473 0.180381 -0.574882 0.798106 -0.0449876 -0.569581 0.820703 
-0.252126 -0.347619 0.903102 -0.261245 -0.432985 0.862714 -0.181757 -0.324696 0.92819 
0.0932964 -0.267289 0.959089 0.191403 -0.298313 0.93508 0.207069 -0.294496 0.932949 
0.110037 -0.411336 0.904817 -0.0629927 -0.486741 0.871272 -0.258463 -0.460189 0.849366 
-0.201926 -0.456607 0.86645 -0.424945 -0.540123 0.726422 0.244023 -0.822584 0.513623 
0.000681392 -0.76881 0.639477 -0.154724 -0.708793 0.688239 -0.100377 -0.684749 0.721833 
0.0918816 -0.666615 0.739717 0.178851 -0.662753 0.727167 0.055748 -0.652583 0.755664 
-0.105062 -0.687004 0.719018 -0.330294 -0.736333 0.590525 0.0563978 0.989861 -0.130363 
0.349361 0.936543 -0.0288679 0.256296 0.965406 -0.0480005 0.0675478 0.989674 -0.126423 
0.176923 0.980541 -0.0850761 -0.0515293 0.988456 -0.142478 0.0558508 0.988135 -0.143071 
-0.0904254 0.985058 -0.146572 -0.263682 0.958297 -0.110173 -0.36731 0.922184 -0.12108 
0.655216 0.753058 0.0599686 0.43427 0.900133 0.0342184 0.466044 0.882632 0.0613465 
0.249936 0.872578 -0.41969 -0.473369 0.880042 -0.0380551 -0.285883 0.818618 -0.498132 
-0.474228 0.879626 -0.0369575 -0.482182 0.876005 -0.0107103 0.69725 0.714722 0.0549137 
0.856799 0.504534 0.106493 0.627713 0.744653 -0.226865 -0.585022 0.809087 0.0559209 
-0.349982 0.784764 -0.511525 -0.649172 0.752889 0.10832 0.859862 0.49897 0.108013 
0.85501 0.514545 0.0648177 -0.80184 0.583367 0.129366 -0.895912 0.412111 0.165853 
0.929235 0.341542 0.140967 -0.945092 0.266497 0.189155 0.959774 0.220685 0.173583 
-0.964197 -0.00926676 0.265023 0.976274 0.0903196 0.196803 -0.938038 -0.18241 0.294637 
-0.931525 -0.239056 0.274067 0.975729 -0.0464137 0.214005 0.999294 -0.0375474 0.00162048 
-0.930862 -0.241666 0.274031 -0.938857 -0.244225 0.242696 0.94449 -0.213127 0.250032 
-0.918979 -0.281325 0.276287 0.875458 -0.411473 0.253502 0.787954 -0.561498 0.252682 
-0.864698 -0.395908 0.309119 -0.799078 -0.493508 0.343402 0.761084 -0.598104 0.251044 
0.539604 -0.806127 0.24287 -0.728692 -0.575117 0.371818 -0.527176 -0.748804 0.401719 
0.439483 -0.86203 0.252505 0.2579 -0.929997 0.261902 0.0507274 -0.93766 0.343832 
-0.0982042 -0.872249 0.4791 -0.077343 -0.797477 0.598371 0.0875231 -0.773283 0.627991 
0.161855 -0.823406 0.543881 0.0394704 -0.877919 0.47718 -0.141712 -0.877415 0.458324 
-0.433667 -0.790411 0.432646 -0.348987 -0.824857 0.444768 0.156488 0.781343 -0.604164 
0.0800509 0.742058 -0.665539 0.00905499 0.703174 -0.71096 -0.0736943 0.691525 -0.718583 
-0.202887 0.685072 -0.699653 0.365301 0.842173 -0.39661 0.187862 0.808519 -0.557678 
0.211041 0.827298 -0.520614 0.129601 0.750663 -0.647849 0.0397244 0.669152 -0.742063 
-0.00730976 0.612924 -0.790108 -0.0681346 0.61559 -0.785116 -0.21684 0.694018 -0.686527 
-0.187416 0.658796 -0.728603 -0.241482 0.71918 -0.651511 -0.324547 0.716957 -0.616961 
0.578797 0.742734 -0.33666 0.604587 0.730604 -0.317321 0.266627 0.754271 -0.599988 
-0.0469043 0.507145 -0.860584 -0.0304049 0.543557 -0.838821 -0.0785192 0.558787 -0.825586 
-0.193936 0.559521 -0.805807 -0.327922 0.749407 -0.575201 -0.296071 0.64667 -0.702965 
-0.326146 0.758892 -0.563659 -0.542806 0.721239 -0.43032 0.784678 0.590893 -0.187419 
0.81969 0.549219 -0.162684 -0.221106 0.660406 -0.717619 -0.656487 0.651226 -0.380697 
-0.479765 0.664053 -0.573462 -0.847537 0.46803 -0.250256 0.918642 0.386312 -0.0828216 
-0.902811 0.375429 -0.209726 -0.823885 0.423824 -0.37628 0.967675 0.249551 -0.036469 
-0.987219 0.0523725 -0.150517 0.993894 0.105916 -0.0309413 0.999054 -0.0089067 -0.0425638 
-0.989434 -0.137797 -0.0450887 0.998363 -0.0354015 -0.0449198 0.997858 -0.0458009 -0.0467155 
0.997777 -0.03799 -0.0547436 -0.966162 -0.257602 -0.0131556 -0.964381 -0.264009 -0.0163858 
-0.958815 -0.231073 -0.165163 0.972962 -0.219477 -0.0719322 -0.957947 -0.286737 -0.0109328 
0.897625 -0.428446 -0.103457 0.783021 -0.606338 -0.138681 -0.92338 -0.382844 -0.0282994 
-0.850694 -0.525257 -0.0205867 0.755885 -0.638188 -0.146129 0.576229 -0.792252 -0.200739 
-0.837816 -0.54556 -0.0207041 -0.585494 -0.810533 -0.0152504 0.479326 -0.855402 -0.1963 
0.308858 -0.934148 -0.178814 0.324086 -0.839866 -0.435423 0.159166 -0.979266 -0.125315 
0.0198655 -0.996412 -0.0822761 -0.0131436 -0.99991 0.00277204 0.0782989 -0.996639 0.0240837 
0.0928727 -0.995344 -0.0257694 0.00310819 -0.997886 -0.0649071 -0.16047 -0.985194 -0.0603465 
-0.566176 -0.82416 -0.014327 -0.342887 -0.938831 -0.0320138 0.0483615 0.706857 -0.705702 
-0.012251 0.631964 -0.774901 -0.0666083 0.555849 -0.828611 0.482599 0.742492 -0.464547 
0.168026 0.735797 -0.656026 0.255128 0.748975 -0.611511 0.0425951 0.704177 -0.708746 
-0.0221328 0.626721 -0.778929 -0.066357 0.554548 -0.829502 -0.0668863 0.555783 -0.828632 
-0.0461296 0.515311 -0.855761 -0.0241944 0.558691 -0.829023 -0.0798332 0.563102 -0.822522 
-0.158303 0.550133 -0.819935 -0.176548 0.621151 -0.763546 0.617356 0.67845 -0.398217 
0.778073 0.557216 -0.290023 0.400124 0.696653 -0.595462 0.127196 0.673907 -0.727785 
-0.120128 0.567635 -0.814469 -0.118227 0.597319 -0.793242 -0.0258534 0.601871 -0.798175 
-0.00187942 0.618784 -0.785559 -0.111657 0.601249 -0.791222 -0.135719 0.577347 -0.80514 
-0.212445 0.655888 -0.724347 -0.151275 0.628331 -0.763097 -0.219417 0.658264 -0.720101 
-0.417947 0.598398 -0.68355 0.844535 0.479224 -0.238966 0.714053 0.535743 -0.450676 
-0.229154 0.592573 -0.772234 -0.591799 0.494397 -0.636667 -0.435497 0.560384 -0.704495 
-0.842905 0.209236 -0.495714 0.943805 0.26823 -0.193091 -0.859958 0.177242 -0.4786 
-0.84886 0.186458 -0.494642 0.976094 0.0815042 -0.20149 -0.94754 -0.0354107 -0.31767 
-0.948782 -0.159926 -0.272464 -0.923968 -0.0133342 -0.382236 0.962252 -0.0900756 -0.256821 
-0.943903 -0.213542 -0.251885 0.894375 -0.275864 -0.352126 -0.920635 -0.302844 -0.246408 
0.767349 -0.490715 -0.412765 0.723131 -0.53259 -0.439807 0.689805 -0.503485 -0.520261 
-0.864844 -0.409854 -0.289939 -0.807905 -0.494621 -0.320376 -0.763302 -0.43147 -0.480837 
0.585128 -0.642919 -0.494247 0.489503 -0.700569 -0.51922 0.469325 -0.649596 -0.598129 
0.31081 -0.782831 -0.539048 0.23553 -0.567762 -0.788779 -0.711498 -0.593218 -0.376648 
-0.539681 -0.739606 -0.402152 -0.462344 -0.601193 -0.651771 0.23703 -0.806806 -0.541184 
0.146478 -0.820943 -0.551903 0.142852 -0.789084 -0.597445 0.0460491 -0.836009 -0.54678 
0.0508504 -0.782576 -0.620474 0.0356638 -0.862948 -0.504033 0.0344277 -0.798185 -0.601428 
0.0621256 -0.861667 -0.503657 0.0448059 -0.775946 -0.629206 0.0532245 -0.840514 -0.539169 
0.0374608 -0.727631 -0.684945 -0.00297493 -0.83491 -0.550379 -0.000147751 -0.714843 -0.699285 
-0.0936884 -0.840272 -0.534009 -0.0503356 -0.746907 -0.663021 -0.397851 -0.814307 -0.422633 
-0.283223 -0.853384 -0.437631 -0.256737 -0.788639 -0.55869 -0.0300427 0.595972 -0.802443 
0.343103 0.625358 -0.700862 -0.00731915 0.607182 -0.794529 0.116941 0.651077 -0.749949 
-0.0383822 0.591887 -0.805106 -0.0314532 0.593037 -0.804561 -0.110571 0.531168 -0.84002 
-0.0915386 0.587921 -0.803722 -0.0273333 0.564822 -0.82476 -0.015091 0.551421 -0.834091 
-0.123801 0.528751 -0.8397 -0.0989098 0.528457 -0.843179 -0.108672 0.57128 -0.813529 
0.600458 0.54744 -0.582889 0.676975 0.47658 -0.560871 0.270351 0.477673 -0.835906 
0.019259 0.363842 -0.931261 -0.0737695 0.352859 -0.932764 -0.0439709 0.392624 -0.918647 
-0.0413452 0.522469 -0.851655 -0.0391834 0.470724 -0.88141 -0.0319243 0.432666 -0.900989 
-0.122836 0.443521 -0.887806 -0.0934185 0.514416 -0.852437 -0.137882 0.572078 -0.808526 
-0.105065 0.563225 -0.819597 -0.227408 0.555275 -0.799972 -0.483347 0.421571 -0.767237 
0.7722 0.276067 -0.572271 0.635516 0.249066 -0.730812 0.206475 0.153028 -0.966411 
-0.0100542 0.158999 -0.987228 -0.0494771 0.147438 -0.987833 0.0671415 0.202378 -0.977003 
-0.0414067 0.256388 -0.965687 -0.131974 0.14541 -0.98053 -0.027184 0.221849 -0.974702 
-0.0455411 0.21844 -0.974787 -0.0163678 0.301975 -0.953175 -0.0291223 0.35424 -0.934701 
-0.198078 0.401935 -0.893987 -0.511005 0.393317 -0.764314 -0.488404 0.396263 -0.777455 
0.813475 0.0251193 -0.581057 0.566701 -0.00221933 -0.823921 0.185904 -0.0223614 -0.982313 
-0.00446241 -0.00298414 -0.999986 -0.0338796 0.0113388 -0.999362 0.0847392 0.0552877 -0.994868 
-0.0939083 0.0129119 -0.995497 0.0409461 0.115593 -0.992452 -0.0445682 0.089586 -0.994981 
0.0370587 0.116787 -0.992465 0.00170656 0.135112 -0.990829 -0.180973 0.143823 -0.972915 
-0.693799 0.120391 -0.710035 -0.501107 0.144514 -0.853233 0.738402 -0.198102 -0.644607 
0.58257 -0.200513 -0.787659 0.204868 -0.138541 -0.968935 0.0226889 -0.108131 -0.993878 
0.0082157 -0.0559354 -0.998401 0.0642493 -0.0279211 -0.997543 -0.0902167 -0.0923092 -0.991635 
-0.0203176 0.0551924 -0.998269 0.050708 -0.0465363 -0.997629 -0.0410144 -0.0203669 -0.998951 
0.043542 0.016248 -0.998919 0.00224591 0.0123757 -0.999921 -0.18543 -0.0134993 -0.982565 
-0.74956 -0.135157 -0.647991 -0.566038 -0.0950068 -0.818886 0.615254 -0.353021 -0.704868 
0.614679 -0.353759 -0.704999 0.614479 -0.352925 -0.705592 0.270902 -0.305717 -0.91277 
0.0894598 -0.217039 -0.972055 0.0486292 -0.132221 -0.990027 0.0491443 -0.119822 -0.991578 
-0.0185385 -0.136653 -0.990445 -0.0489785 -0.0336122 -0.998234 -0.0325546 -0.171395 -0.984664 
0.016947 -0.120529 -0.992565 0.0692925 -0.0957911 -0.992987 -0.027576 -0.153091 -0.987827 
-0.270828 -0.196193 -0.942423 -0.707159 -0.299256 -0.640603 -0.673665 -0.354187 -0.648634 
-0.641833 -0.286766 -0.711207 0.407293 -0.454381 -0.792244 0.371655 -0.471785 -0.799557 
0.354251 -0.440471 -0.824919 0.216261 -0.507329 -0.834175 0.186534 -0.37487 -0.908118 
0.101685 -0.311516 -0.944785 0.0574261 -0.298032 -0.952827 0.00117018 -0.294045 -0.955791 
-0.0547883 -0.268102 -0.961831 -0.0352124 -0.273638 -0.961188 0.0323788 -0.241676 -0.969817 
0.0183898 -0.250359 -0.967978 -0.0945042 -0.31335 -0.944924 -0.575588 -0.425857 -0.6981 
-0.410575 -0.515471 -0.752142 -0.344737 -0.38416 -0.856492 0.149086 -0.534271 -0.832062 
0.129467 -0.53914 -0.832206 0.128838 -0.526856 -0.840133 0.0625033 -0.559385 -0.826548 
0.0624983 -0.515592 -0.854552 0.0195878 -0.575143 -0.817818 0.0138373 -0.518549 -0.854936 
-0.00133818 -0.541441 -0.840738 -0.0150077 -0.483591 -0.875165 0.0123029 -0.496292 -0.868069 
0.00568457 -0.442044 -0.896975 0.0138798 -0.498152 -0.866979 0.0247376 -0.427298 -0.903772 
-0.0239795 -0.542664 -0.839607 -0.0210755 -0.467666 -0.883654 -0.278767 -0.533522 -0.798526 
-0.181993 -0.54254 -0.820079 -0.171639 -0.488718 -0.855392 -0.0861399 0.0591535 -0.994525 
-0.0746058 0.00969249 -0.997166 -0.0988746 0.00283354 -0.995096 -0.09711 -0.0201385 -0.99507 
-0.0983957 0.00262137 -0.995144 
