# vtk DataFile Version 4.2
vtk output
ASCII
DATASET POLYDATA
POINTS 506 float
-25.4851 3.15986 -24.5598 -3.48781 -33.5023 -18.4026 3.84463 -33.5023 -19.1056 
11.1771 -33.5023 -18.404 -25.4851 -26.1699 -19.5583 -18.1527 -26.1699 -20.869 
-10.8202 -26.1699 -20.8328 -3.48781 -26.1699 -21.1209 3.84463 -26.1699 -21.8857 
11.1771 -26.1699 -21.9999 18.5095 -26.1699 -21.0205 25.8419 -26.1699 -18.7677 
-32.8176 -18.8375 -20.1068 -25.4851 -18.8375 -22.9057 -18.1527 -18.8375 -23.2999 
-10.8202 -18.8375 -22.4877 -3.48781 -18.8375 -21.6667 3.84463 -18.8375 -22.3951 
11.1771 -18.8375 -23.1871 18.5095 -18.8375 -22.5558 25.8419 -18.8375 -21.8739 
33.1744 -18.8375 -19.0023 -40.15 -11.505 -18.1619 -32.8176 -11.505 -22.916 
-25.4851 -11.505 -24.14 -18.1527 -11.505 -24.0898 -10.8202 -11.505 -23.3328 
-3.48781 -11.505 -22.6324 3.84463 -11.505 -22.7 11.1771 -11.505 -22.2367 
18.5095 -11.505 -22.3446 25.8419 -11.505 -21.8226 33.1744 -11.505 -20.7684 
-40.15 -4.17258 -20.1057 -32.8176 -4.17258 -23.4812 -25.4851 2.47174 -24.5499 
-25.4851 -4.17258 -24.455 -18.1527 -4.17258 -24.0643 -10.8202 -4.17258 -23.7292 
-3.48781 -4.17258 -24.2567 3.84463 -4.17258 -23.4878 11.1771 -4.17258 -21.2408 
18.5095 -4.17258 -21.1576 25.8419 -4.17258 -21.7136 33.1744 -4.17258 -20.8331 
40.5068 -4.17258 -17.8083 -40.15 3.15986 -20.4631 -25.5641 3.15986 -24.5499 
-32.8176 3.15986 -23.6638 -25.3387 3.15986 -24.5499 -25.4851 3.35183 -24.5499 
-18.1527 3.15986 -24.0685 -10.8202 3.15986 -23.6912 -3.48781 3.15986 -23.9796 
3.84463 3.15986 -23.899 11.1771 3.15986 -22.3536 18.5095 3.15986 -21.6306 
25.8419 3.15986 -21.97 33.1744 3.15986 -20.7099 40.5068 3.15986 -17.7102 
-40.15 10.4923 -19.2285 -32.8176 10.4923 -23.4277 -25.4851 10.4923 -24.2055 
-18.1527 10.4923 -24.398 -10.8202 10.4923 -24.0519 -3.48781 10.4923 -23.7501 
3.84463 10.4923 -23.8805 11.1771 10.4923 -23.2998 18.5095 10.4923 -22.2911 
25.8419 10.4923 -21.637 33.1744 10.4923 -20.3832 -32.8176 17.8247 -20.3493 
-25.4851 17.8247 -23.0601 -18.1527 17.8247 -23.7763 -10.8202 17.8247 -23.7295 
-3.48781 17.8247 -23.6708 3.84463 17.8247 -23.6902 11.1771 17.8247 -23.0857 
18.5095 17.8247 -21.8233 25.8419 17.8247 -20.5862 33.1744 17.8247 -18.3489 
-25.4851 25.1572 -19.224 -18.1527 25.1572 -21.2045 -10.8202 25.1572 -22.1637 
-3.48781 25.1572 -22.5036 3.84463 25.1572 -22.5689 11.1771 25.1572 -21.916 
18.5095 25.1572 -19.9263 25.8419 25.1572 -17.3758 -10.8202 32.4896 -17.4043 
-3.48781 32.4896 -18.8932 3.84463 32.4896 -19.3756 11.1771 32.4896 -18.1907 
-3.48781 -34.9847 -17.2175 3.84463 -35.8238 -17.2175 11.1771 -34.8136 -17.2175 
-25.4851 -28.7062 -17.2175 -18.1527 -31.3319 -17.2175 -18.1527 -33.5023 -13.823 
-9.88946 -33.5023 -17.2175 -10.8202 -33.1841 -17.2175 -10.8202 -33.5023 -16.9394 
15.2189 -33.5023 -17.2175 18.5095 -32.1434 -17.2175 18.5095 -33.5023 -15.4542 
25.8419 -28.1901 -17.2175 -29.393 -26.1699 -17.2175 -32.8176 -23.1189 -17.2175 
-32.8176 -26.1699 -12.4987 28.9116 -26.1699 -17.2175 33.1744 -22.2908 -17.2175 
33.1744 -26.1699 -13.6105 -36.5104 -18.8375 -17.2175 -40.15 -13.1491 -17.2175 
-40.15 -18.8375 -10.8867 35.9356 -18.8375 -17.2175 40.5068 -18.8375 -12.2417 
-41.0227 -11.505 -17.2175 39.5972 -11.505 -17.2175 40.5068 -7.81126 -17.2175 
40.5068 -11.505 -16.4108 -43.3131 -4.17258 -17.2175 41.2414 -4.17258 -17.2175 
-43.7052 3.15986 -17.2175 -47.4824 3.15986 -10.0692 41.1443 3.15986 -17.2175 
40.5068 6.57348 -17.2175 -42.0897 10.4923 -17.2175 -40.15 13.7917 -17.2175 
39.5302 10.4923 -17.2175 40.5068 10.4923 -16.4542 -37.1257 17.8247 -17.2175 
-40.15 17.8247 -12.2265 -32.8176 22.0707 -17.2175 34.9755 17.8247 -17.2175 
33.1744 19.7754 -17.2175 40.5068 17.8247 -12.163 -28.8607 25.1572 -17.2175 
-32.8176 25.1572 -12.1077 -25.4851 27.3013 -17.2175 -18.1527 30.4094 -17.2175 
18.5095 29.9294 -17.2175 26.2082 25.1572 -17.2175 25.8419 25.398 -17.2175 
33.1744 25.1572 -12.8131 -11.5046 32.4896 -17.2175 -18.1527 32.4896 -14.05 
-10.8202 32.6718 -17.2175 -3.48781 34.2249 -17.2175 3.84463 34.8619 -17.2175 
13.9412 32.4896 -17.2175 11.1771 33.6079 -17.2175 18.5095 32.4896 -14.9986 
25.8419 32.4896 -9.9249 -18.1527 -35.297 -9.88506 -10.8202 -37.7119 -9.88506 
-3.48781 -39.7133 -9.88506 3.84463 -40.4045 -9.88506 3.84463 -40.8348 -4.63688 
11.1771 -39.2118 -9.88506 18.5095 -36.5537 -9.88506 -32.8176 -27.378 -9.88506 
-22.5235 -33.5023 -9.88506 -25.4851 -32.2132 -9.88506 24.6699 -33.5023 -9.88506 
25.8419 -32.9083 -9.88506 25.8419 -33.5023 -6.14588 33.1744 -28.5077 -9.88506 
-34.1736 -26.1699 -9.88506 -40.15 -19.4406 -9.88506 35.8828 -26.1699 -9.88506 
40.5068 -20.9169 -9.88506 -40.5733 -18.8375 -9.88506 41.9827 -18.8375 -9.88506 
-44.4719 -11.505 -9.88506 45.0713 -11.505 -9.88506 -47.133 -4.17258 -9.88506 
-47.4824 1.7565 -9.88506 -47.4824 -4.17258 -2.67155 46.6766 -4.17258 -9.88506 
47.8393 -4.17258 -2.72261 -47.5557 3.15986 -9.88506 -47.4824 3.50959 -9.88506 
46.6573 3.15986 -9.88506 -45.6815 10.4923 -9.88506 45.2914 10.4923 -9.88506 
-41.1363 17.8247 -9.88506 -40.15 19.1011 -9.88506 42.1022 17.8247 -9.88506 
40.5068 20.0477 -9.88506 -34.0516 25.1572 -9.88506 -32.8176 26.1926 -9.88506 
-25.4851 31.162 -9.88506 35.8559 25.1572 -9.88506 33.1744 27.4521 -9.88506 
-22.7004 32.4896 -9.88506 -18.1527 34.5062 -9.88506 -10.8202 36.7139 -9.88506 
-3.48781 38.3574 -9.88506 3.84463 39.2214 -9.88506 11.1771 38.6301 -9.88506 
18.5095 36.2385 -9.88506 25.8842 32.4896 -9.88506 25.8419 32.5159 -9.88506 
3.84463 39.8221 -5.24083 11.1771 39.8221 -2.81785 3.84463 -40.9964 -2.55262 
-18.1527 -35.1339 -2.55262 -10.8202 -37.6819 -2.55262 2.69733 -40.8348 -2.55262 
-3.48781 -39.9508 -2.55262 5.29985 -40.8348 -2.55262 3.84463 -40.8348 -1.43387 
11.1771 -40.1518 -2.55262 18.5095 -37.6556 -2.55262 25.8419 -34.0165 -2.55262 
-32.8176 -27.6284 -2.55262 -22.2753 -33.5023 -2.55262 -25.4851 -32.1641 -2.55262 
26.7325 -33.5023 -2.55262 33.1744 -29.6689 -2.55262 -34.5208 -26.1699 -2.55262 
-40.15 -20.1188 -2.55262 37.4088 -26.1699 -2.55262 40.5068 -22.6277 -2.55262 
-41.1338 -18.8375 -2.55262 43.2481 -18.8375 -2.55262 -45.2442 -11.505 -2.55262 
-47.4824 -4.19146 -2.55262 46.3625 -11.505 -2.55262 47.8393 -4.29591 -2.55262 
-47.4877 -4.17258 -2.55262 -47.4824 -4.17258 -2.49671 47.8639 -4.17258 -2.55262 
47.8393 0.552573 -2.55262 47.8393 -4.17258 -2.35677 -47.7901 3.15986 -2.55262 
-47.4824 4.43097 -2.55262 -47.4824 3.15986 0.284983 47.8257 3.15986 -2.55262 
-45.8527 10.4923 -2.55262 46.5071 10.4923 -2.55262 -41.4326 17.8247 -2.55262 
-40.15 19.3741 -2.55262 43.5529 17.8247 -2.55262 40.5068 22.1858 -2.55262 
-34.4533 25.1572 -2.55262 -32.8176 26.5611 -2.55262 -25.4851 31.6623 -2.55262 
38.0331 25.1572 -2.55262 33.1744 29.4949 -2.55262 -23.83 32.4896 -2.55262 
-18.1527 35.125 -2.55262 -10.8202 37.4632 -2.55262 -3.48781 39.156 -2.55262 
18.5095 37.8325 -2.55262 28.9724 32.4896 -2.55262 25.8419 34.4738 -2.55262 
1.41132 39.8221 -2.55262 3.84463 40.1498 -2.55262 3.84463 39.8221 0.847637 
11.3327 39.8221 -2.55262 11.1771 39.8618 -2.55262 11.1771 39.8221 -2.10078 
-18.1527 -33.7225 4.77982 -10.8202 -36.0241 4.77982 -3.48781 -38.4198 4.77982 
3.84463 -39.9052 4.77982 11.1771 -39.6305 4.77982 18.5095 -37.4508 4.77982 
25.8419 -33.9063 4.77982 -32.8176 -26.984 4.77982 -18.8109 -33.5023 4.77982 
-25.4851 -31.1643 4.77982 -18.1527 -33.5023 5.43243 -10.8202 -33.5023 11.5379 
26.5021 -33.5023 4.77982 25.8419 -33.5023 6.00697 33.1744 -28.9977 4.77982 
-33.7992 -26.1699 4.77982 -40.15 -19.714 4.77982 -32.8176 -26.1699 7.12335 
36.5021 -26.1699 4.77982 33.1744 -26.1699 10.448 40.5068 -21.457 4.77982 
-40.832 -18.8375 4.77982 -40.15 -18.8375 6.87365 42.3348 -18.8375 4.77982 
40.5068 -18.8375 8.32979 -44.6883 -11.505 4.77982 45.4064 -11.505 4.77982 
-46.7815 -4.17258 4.77982 46.8944 -4.17258 4.77982 -46.9855 3.15986 4.77982 
46.8351 3.15986 4.77982 -45.0563 10.4923 4.77982 45.415 10.4923 4.77982 
-40.8509 17.8247 4.77982 -40.15 18.6739 4.77982 -40.15 17.8247 6.95708 
42.4345 17.8247 4.77982 40.5068 20.7955 4.77982 40.5068 17.8247 8.94444 
-33.5924 25.1572 4.77982 -32.8176 25.8192 4.77982 -32.8176 25.1572 6.75933 
-25.4851 30.8008 4.77982 37.1567 25.1572 4.77982 33.1744 28.8843 4.77982 
-21.9986 32.4896 4.77982 -18.1527 34.2511 4.77982 -18.1527 32.4896 11.0483 
-10.8202 36.7158 4.77982 -3.48781 38.4771 4.77982 3.84463 39.4324 4.77982 
11.1771 39.1803 4.77982 18.5095 37.3561 4.77982 28.3686 32.4896 4.77982 
25.8419 34.0924 4.77982 25.8419 32.4896 9.2848 -3.48781 -35.5557 12.1123 
3.84463 -37.1833 12.1123 11.1771 -37.0584 12.1123 18.5095 -34.9003 12.1123 
-25.4851 -28.622 12.1123 -18.1527 -31.154 12.1123 -10.1066 -33.5023 12.1123 
-10.8202 -33.2691 12.1123 -3.48781 -33.5023 15.219 3.84463 -33.5023 17.2451 
11.1771 -33.5023 16.908 21.3599 -33.5023 12.1123 18.5095 -33.5023 13.9752 
25.8419 -30.7546 12.1123 -29.8566 -26.1699 12.1123 -32.8176 -24.0458 12.1123 
-25.4851 -26.1699 15.5777 -18.1527 -26.1699 18.3979 31.8305 -26.1699 12.1123 
25.8419 -26.1699 16.2542 33.1744 -24.858 12.1123 -37.9776 -18.8375 12.1123 
-40.15 -15.4847 12.1123 -32.8176 -18.8375 17.3527 25.8419 -18.8375 19.1956 
37.9701 -18.8375 12.1123 33.1744 -18.8375 16.0102 40.5068 -14.2685 12.1123 
-42.2682 -11.505 12.1123 -40.15 -11.505 14.8831 33.1744 -11.505 18.554 
41.7632 -11.505 12.1123 40.5068 -11.505 13.5102 -44.2425 -4.17258 12.1123 
-40.15 -4.17258 17.271 33.1744 -4.17258 19.349 43.3255 -4.17258 12.1123 
40.5068 -4.17258 15.1699 -44.4387 3.15986 12.1123 -40.15 3.15986 17.4349 
43.3874 3.15986 12.1123 40.5068 3.15986 15.3616 -42.621 10.4923 12.1123 
-40.15 14.8066 12.1123 -40.15 10.4923 15.2161 41.9605 10.4923 12.1123 
40.5068 14.1168 12.1123 40.5068 10.4923 13.9537 -38.0775 17.8247 12.1123 
-32.8176 23.0401 12.1123 -32.8176 17.8247 17.4803 38.832 17.8247 12.1123 
33.1744 17.8247 18.0236 -30.2362 25.1572 12.1123 -25.4851 28.3606 12.1123 
-25.4851 25.1572 16.4664 -18.1527 32.1536 12.1123 25.8419 31.2224 12.1123 
25.8419 25.1572 18.5384 33.5063 25.1572 12.1123 33.1744 25.4841 12.1123 
33.1744 25.1572 12.4991 -17.2844 32.4896 12.1123 -10.8202 34.7129 12.1123 
[...]
POINT_DATA 506
SCALARS ImageScalars float
LOOKUP_TABLE default
0 0 0 0 0 0 0 0 0 
0 0 0 0 0 0 0 0 0 
0 0 0 0 0 0 0 0 0 
0 0 0 0 0 0 0 0 0 
0 0 0 0 0 0 0 0 0 
0 0 0 0 0 0 0 0 0 
0 0 0 0 0 0 0 0 0 
0 0 0 0 0 0 0 0 0 
0 0 0 0 0 0 0 0 0 
0 0 0 0 0 0 0 0 0 
0 0 0 0 0 0 0 0 0 
0 0 0 0 0 0 0 0 0 
0 0 0 0 0 0 0 0 0 
0 0 0 0 0 0 0 0 0 
0 0 0 0 0 0 0 0 0 
0 0 0 0 0 0 0 0 0 
0 0 0 0 0 0 0 0 0 
0 0 0 0 0 0 0 0 0 
0 0 0 0 0 0 0 0 0 
0 0 0 0 0 0 0 0 0 
0 0 0 0 0 0 0 0 0 
0 0 0 0 0 0 0 0 0 
0 0 0 0 0 0 0 0 0 
0 0 0 0 0 0 0 0 0 
0 0 0 0 0 0 0 0 0 
0 0 0 0 0 0 0 0 0 
0 0 0 0 0 0 0 0 0 
0 0 0 0 0 0 0 0 0 
0 0 0 0 0 0 0 0 0 
0 0 0 0 0 0 0 0 0 
0 0 0 0 0 0 0 0 0 
0 0 0 0 0 0 0 0 0 
0 0 0 0 0 0 0 0 0 
0 0 0 0 0 0 0 0 0 
0 0 0 0 0 0 0 0 0 
0 0 0 0 0 0 0 0 0 
0 0 0 0 0 0 0 0 0 
0 0 0 0 0 0 0 0 0 
0 0 0 0 0 0 0 0 0 
0 0 0 0 0 0 0 0 0 
0 0 0 0 0 0 0 0 0 
0 0 0 0 0 0 0 0 0 
0 0 0 0 0 0 0 0 0 
0 0 0 0 0 0 0 0 0 
0 0 0 0 0 0 0 0 0 
0 0 0 0 0 0 0 0 0 
0 0 0 0 0 0 0 0 0 
0 0 0 0 0 0 0 0 0 
0 0 0 0 0 0 0 0 0 
0 0 0 0 0 0 0 0 0 
0 0 0 0 0 0 0 0 0 
0 0 0 0 0 0 0 0 0 
0 0 0 0 0 0 0 0 0 
0 0 0 0 0 0 0 0 0 
0 0 0 0 0 0 0 0 0 
0 0 0 0 0 0 0 0 0 
0 0 
NORMALS Normals float
0.0286756 -0.0184546 0.999418 0.128031 0.542543 0.830214 0.00326066 0.541524 0.840679 
-0.167042 0.625784 0.7619 0.315843 0.598891 0.735916 0.0712282 0.444179 0.893102 
0.0164191 0.333298 0.942679 0.0674061 0.201441 0.977179 0.0563792 0.202323 0.977695 
-0.0554261 0.288656 0.955827 -0.198182 0.369673 0.907781 -0.362035 0.51844 0.774694 
0.490656 0.428137 0.758917 0.183011 0.275194 0.943809 -0.0279052 0.205568 0.978245 
-0.110919 0.161466 0.980625 -0.00510586 0.100449 0.994929 0.102454 0.0533752 0.993305 
0.00915711 0.0117836 0.999889 -0.0824668 0.0806414 0.993326 -0.225925 0.175157 0.958268 
-0.452909 0.338385 0.824845 0.694218 0.32762 0.640879 0.319763 0.196719 0.926851 
0.0666442 0.100574 0.992695 -0.053893 0.0521523 0.997184 -0.0994451 0.0837227 0.991515 
-0.042403 0.176561 0.983376 -0.0268699 0.071693 0.997065 -0.0242231 -0.13137 0.991037 
-0.0278186 -0.0968207 0.994913 -0.10973 -0.0106558 0.993904 -0.309331 0.112116 0.944322 
0.604524 0.118701 0.787694 0.255613 0.0450694 0.965728 0.0297718 -0.0139532 0.999459 
0.0401845 0.029321 0.998762 -0.049954 -0.00146773 0.99875 0.0128238 0.0238062 0.999634 
-0.0138491 0.0909211 0.995762 -0.207572 0.0829475 0.974697 -0.152081 0.00487281 0.988356 
0.0319894 -0.0484836 0.998312 -0.0189818 0.010017 0.99977 -0.239538 -0.00364311 0.97088 
-0.565268 0.067019 0.82218 0.590434 -0.0420221 0.805991 0.0309235 -0.0181748 0.999357 
0.241909 -0.00120295 0.970298 0.0269334 -0.0176398 0.999482 0.0293531 -0.0204446 0.99936 
-0.0598087 0.0230092 0.997945 -0.00606188 0.0215835 0.999749 0.0142522 -0.0344391 0.999305 
-0.106143 0.0253845 0.994027 -0.156672 0.14138 0.977479 -0.0243583 0.0782335 0.996637 
-0.0598071 -0.00475278 0.998199 -0.265158 -0.0307824 0.963713 -0.553837 -0.0715171 0.829548 
0.649714 -0.300592 0.698224 0.267654 -0.18899 0.944799 0.0567042 -0.0936029 0.993994 
-0.00933565 -0.0187526 0.999781 -0.0444987 0.00289725 0.999005 -0.0113426 -0.0210878 0.999713 
-0.0299663 -0.0144365 0.999447 -0.109885 0.0471856 0.992824 -0.110033 0.0131504 0.993841 
-0.134147 -0.0883627 0.987014 -0.297635 -0.134307 0.945185 0.4516 -0.464371 0.761851 
0.201421 -0.294078 0.934317 0.0423629 -0.197872 0.979312 -0.00721408 -0.117681 0.993025 
-0.00258731 -0.0817527 0.996649 -0.0396286 -0.0868479 0.995433 -0.126612 -0.0865292 0.988171 
-0.162733 -0.150174 0.975175 -0.213164 -0.261608 0.941341 -0.405878 -0.38944 0.826801 
0.342717 -0.609303 0.715049 0.168321 -0.47678 0.862756 0.0814515 -0.360479 0.929204 
0.0252949 -0.279364 0.959852 -0.0364069 -0.258492 0.965327 -0.167877 -0.290436 0.942053 
-0.273841 -0.365672 0.889548 -0.34923 -0.486923 0.80059 0.193263 -0.711711 0.675365 
0.110047 -0.635596 0.764138 -0.0422057 -0.590813 0.805704 -0.216205 -0.59777 0.771962 
0.134629 0.619372 0.773468 -0.0114969 0.659016 0.752041 -0.181525 0.681812 0.708647 
0.368265 0.703622 0.607699 0.206411 0.712985 0.67011 0.296283 0.863557 0.408027 
0.173028 0.638016 0.750331 0.172173 0.637026 0.751368 0.184337 0.66193 0.726545 
-0.25625 0.682891 0.684102 -0.303701 0.663312 0.683946 -0.340081 0.752055 0.564587 
-0.39642 0.603502 0.691836 0.481877 0.650844 0.586682 0.574362 0.575857 0.581805 
0.632946 0.708943 0.311093 -0.437552 0.564937 0.699567 -0.491835 0.476052 0.729022 
-0.559011 0.666213 0.493627 0.640669 0.486261 0.594216 0.715154 0.37944 0.58701 
0.801053 0.541943 0.254188 -0.543529 0.376658 0.750137 -0.760353 0.467647 0.450743 
0.730605 0.341107 0.591491 -0.603206 0.206218 0.770465 -0.608013 0.144359 0.780693 
-0.663325 0.226425 0.713255 0.756282 0.144178 0.638161 -0.599677 0.0698017 0.797192 
0.766032 -0.0641828 0.63959 0.970312 -0.08034 0.228123 -0.584707 -0.0715582 0.808083 
-0.58462 -0.146481 0.797974 0.740378 -0.324125 0.588883 0.691817 -0.433747 0.57728 
-0.570002 -0.221139 0.791325 -0.633359 -0.237844 0.736401 0.6156 -0.53302 0.580454 
0.758342 -0.580988 0.295583 0.536569 -0.612879 0.580063 -0.466288 -0.409093 0.784359 
-0.425397 -0.453439 0.783218 -0.729568 -0.480293 0.486877 0.457579 -0.666924 0.588077 
0.606516 -0.737275 0.297597 0.385625 -0.692393 0.609824 0.255794 -0.706544 0.659822 
-0.321724 -0.538015 0.779124 -0.355272 -0.492873 0.794266 -0.352764 -0.494116 0.794611 
-0.529342 -0.655097 0.539115 0.201888 -0.720106 0.663844 0.309326 -0.833757 0.457348 
0.194845 -0.719383 0.666727 0.121755 -0.721459 0.681669 -0.0294189 -0.710398 0.703185 
-0.265099 -0.614313 0.743197 -0.212782 -0.646031 0.733054 -0.357642 -0.677268 0.642962 
-0.469793 -0.786268 0.401345 0.333962 0.924182 0.185357 0.286783 0.930688 0.227101 
0.176296 0.951159 0.253409 -0.0293914 0.96156 0.273017 0.00294905 0.998746 0.0499827 
-0.234616 0.926087 0.295497 -0.387941 0.877615 0.281591 0.641002 0.744032 0.188502 
0.396395 0.900494 0.178833 0.451131 0.87473 0.177 -0.437934 0.85617 0.274203 
-0.449275 0.849686 0.276017 -0.46465 0.870955 0.159806 -0.574262 0.761183 0.30137 
0.6681 0.719244 0.190605 0.804179 0.556123 0.209819 -0.641617 0.703449 0.305758 
-0.773936 0.545959 0.320863 0.812819 0.543 0.210893 -0.809297 0.485527 0.330609 
0.890609 0.39412 0.226904 -0.89706 0.279134 0.342589 0.956802 0.187973 0.221803 
0.974942 -0.0293633 0.220514 0.987028 0.159192 -0.0208433 -0.934227 0.100061 0.342356 
-0.995133 0.0971549 0.0164671 0.972273 -0.0806185 0.219511 0.971255 -0.0947448 0.218373 
-0.935499 -0.0862554 0.342638 0.903326 -0.382094 0.194951 -0.89952 -0.266675 0.346047 
0.790108 -0.583982 0.186263 0.770063 -0.61005 0.186658 -0.791285 -0.491692 0.363465 
-0.751817 -0.551318 0.36169 0.639053 -0.743913 0.195459 0.617766 -0.760988 0.198145 
0.472591 -0.852257 0.224311 -0.624268 -0.682467 0.38017 -0.568274 -0.723856 0.391275 
0.417729 -0.878486 0.231872 0.336069 -0.908608 0.247969 0.24632 -0.930935 0.269603 
0.161918 -0.947972 0.2741 0.0206149 -0.955893 0.292991 -0.175162 -0.925771 0.335062 
-0.366403 -0.854495 0.368222 -0.470484 -0.786812 0.399463 -0.469971 -0.78711 0.399481 
0.0390905 -0.993064 0.110888 -0.148863 -0.988 0.0411848 0.0152323 0.999312 -0.0338163 
0.344163 0.933765 -0.0981593 0.313539 0.943891 -0.103746 0.0465864 0.998063 -0.0412286 
0.217916 0.97249 -0.0823139 -0.0290858 0.999322 -0.0225658 0.024598 0.99765 -0.0639483 
-0.214935 0.976315 0.0247354 -0.387952 0.920323 0.0499847 -0.475006 0.878163 0.056564 
0.618014 0.785825 -0.023186 0.39159 0.916703 -0.0794527 0.438052 0.896697 -0.063598 
-0.483745 0.873636 0.0524545 -0.578218 0.815499 0.0250003 0.658526 0.752355 -0.0175107 
0.799199 0.600992 0.00943357 -0.690504 0.72278 0.0281591 -0.788818 0.614196 0.0229916 
0.819366 0.573069 0.015176 -0.861357 0.507592 0.0203605 0.920574 0.390362 0.0126576 
0.986941 0.159183 -0.0246714 -0.958853 0.283303 0.0184756 -0.994943 0.0999733 0.00964495 
0.98703 0.158617 -0.0247392 0.98701 0.158533 -0.0260344 -0.995242 0.0969723 0.00952271 
-0.99969 -0.0233814 0.00859157 -0.995291 0.0969002 0.00241249 0.994437 -0.0985746 -0.0371297 
0.988591 -0.145278 -0.0397718 0.989693 -0.100687 -0.101831 -0.995944 -0.0896105 0.00805357 
0.923724 -0.381019 -0.0394763 -0.965068 -0.261939 0.00555563 0.797995 -0.602444 -0.0163048 
0.772583 -0.634565 -0.0210365 -0.871792 -0.489594 0.0166493 -0.795584 -0.604894 0.0339066 
0.6624 -0.748819 -0.0222987 0.635321 -0.771962 -0.0210098 0.49511 -0.868545 -0.0222685 
-0.722794 -0.688997 0.0533959 -0.614842 -0.785287 0.0727571 0.46242 -0.886398 -0.0215704 
0.360915 -0.932454 -0.0164489 0.261749 -0.965136 -0.0008253 0.178841 -0.983854 0.00687756 
-0.342547 -0.937636 0.0591695 -0.538177 -0.838483 0.0855125 -0.485129 -0.870052 0.0875152 
0.0910633 -0.995789 0.0105402 0.047389 -0.998807 0.0118011 0.0479019 -0.995374 -0.0832811 
-0.152116 -0.987862 0.0314534 -0.148011 -0.988497 0.0310987 -0.147212 -0.988959 0.0169635 
0.297819 0.922147 -0.246878 0.296873 0.915329 -0.2721 0.24531 0.930022 -0.273644 
0.0778753 0.967719 -0.239699 -0.15278 0.970211 -0.188012 -0.363574 0.917777 -0.159686 
-0.488409 0.859039 -0.153325 0.590459 0.787963 -0.174564 0.305215 0.920539 -0.243827 
0.395692 0.893957 -0.210401 0.295282 0.918616 -0.262591 0.267559 0.862812 -0.428915 
-0.496876 0.853677 -0.156041 -0.491728 0.84633 -0.204766 -0.599254 0.770441 -0.217521 
0.615593 0.769145 -0.171641 0.791498 0.591633 -0.1533 0.589382 0.768838 -0.248025 
-0.673869 0.700972 -0.233535 -0.592093 0.647519 -0.479735 -0.788254 0.560393 -0.254195 
0.807523 0.569573 -0.153275 0.791373 0.568115 -0.225773 -0.832086 0.4875 -0.264533 
-0.773489 0.476635 -0.417773 0.913587 0.368654 -0.171619 -0.92428 0.276136 -0.263545 
0.969753 0.143283 -0.197608 -0.958979 0.0905033 -0.26864 0.973147 -0.103941 -0.205379 
-0.959766 -0.0927656 -0.265036 0.909697 -0.372254 -0.184063 -0.926674 -0.262933 -0.268593 
0.786243 -0.59581 -0.163805 0.771232 -0.615394 -0.162762 0.77122 -0.591787 -0.234538 
-0.851125 -0.459121 -0.254546 -0.810078 -0.535254 -0.239325 -0.805107 -0.440028 -0.397716 
0.639776 -0.749942 -0.168147 0.626555 -0.760764 -0.169315 0.623396 -0.747391 -0.229748 
0.484046 -0.854846 -0.186915 -0.717477 -0.663727 -0.211409 -0.63152 -0.751398 -0.191267 
0.424176 -0.886769 -0.183617 0.3631 -0.913836 -0.181832 0.369478 -0.862476 -0.345863 
0.269645 -0.947047 -0.174335 0.176541 -0.96828 -0.176826 0.0469865 -0.979378 -0.196495 
-0.1323 -0.969141 -0.207999 -0.319536 -0.928395 -0.189682 -0.528812 -0.830241 -0.176231 
-0.478417 -0.860276 -0.176187 -0.468218 -0.815164 -0.340998 0.23798 0.854681 -0.461396 
0.0915167 0.880124 -0.465839 -0.136293 0.874241 -0.465968 -0.341915 0.813777 -0.469958 
0.383487 0.813283 -0.437618 0.267636 0.852198 -0.449589 0.262183 0.856039 -0.445484 
0.263415 0.85515 -0.446465 0.221877 0.786084 -0.576926 0.068349 0.739904 -0.669232 
-0.148115 0.719979 -0.678006 -0.399869 0.782863 -0.476687 -0.341936 0.755242 -0.559186 
-0.488937 0.702924 -0.516564 0.496862 0.755169 -0.427608 0.573935 0.693679 -0.435211 
0.360501 0.720416 -0.592486 0.202271 0.635908 -0.744787 -0.56297 0.610563 -0.557025 
-0.44772 0.49268 -0.746199 -0.578291 0.581853 -0.571863 0.708863 0.552726 -0.438187 
0.772906 0.452775 -0.444535 0.513881 0.487939 -0.705579 -0.336112 0.221922 -0.915303 
-0.666771 0.431372 -0.60773 -0.507115 0.37874 -0.774203 -0.721341 0.342438 -0.602 
0.821539 0.34111 -0.456857 0.745863 0.322539 -0.582801 -0.369792 0.19493 -0.908436 
-0.749026 0.275989 -0.602321 -0.698078 0.272708 -0.662055 0.869953 0.124183 -0.477243 
0.691405 0.112334 -0.71368 -0.35527 0.0908715 -0.930336 -0.79481 0.0922063 -0.599812 
-0.670266 0.0955338 -0.735946 0.873194 -0.0899402 -0.479001 0.677191 -0.0913954 -0.730109 
-0.813678 -0.0794956 -0.575855 -0.694416 -0.0549041 -0.717476 0.818351 -0.344707 -0.459868 
0.759856 -0.477402 -0.441256 0.726893 -0.326462 -0.604193 -0.804772 -0.2452 -0.540573 
-0.781305 -0.330233 -0.52963 -0.758806 -0.232285 -0.608488 0.704422 -0.567159 -0.426756 
0.598489 -0.682184 -0.420042 0.51995 -0.485369 -0.7029 -0.74774 -0.414816 -0.518472 
-0.568082 -0.34187 -0.748604 0.55415 -0.7232 -0.412189 0.473128 -0.778418 -0.412572 
0.445176 -0.651798 -0.613985 0.369645 -0.848124 -0.379537 -0.456656 -0.763455 -0.45673 
-0.394417 -0.527869 -0.75219 -0.630739 -0.616903 -0.470743 -0.623511 -0.625123 -0.469526 
-0.622106 -0.615004 -0.484514 0.356222 -0.856555 -0.37339 0.26079 -0.895735 -0.360065 
0.253277 -0.808882 -0.530622 0.143852 -0.912611 -0.382684 0.0769533 -0.753137 -0.653348 
0.00799474 -0.899462 -0.436925 -0.0489377 -0.703514 -0.708994 -0.14732 -0.869043 -0.472293 
-0.160061 -0.69983 -0.696146 -0.399846 -0.793152 -0.459382 -0.29683 -0.830092 -0.472058 
-0.284519 -0.755 -0.590782 0.19807 0.580597 -0.789731 0.182053 0.598711 -0.780001 
0.043331 0.616666 -0.786031 -0.161169 0.545717 -0.822324 -0.314947 0.396273 -0.862424 
0.302976 0.508115 -0.806241 0.191955 0.579805 -0.791821 0.185837 0.572273 -0.798729 
0.191042 0.55526 -0.809437 0.152357 0.474512 -0.866964 0.0123572 0.417164 -0.908747 
-0.175089 0.371 -0.911978 -0.324049 0.380498 -0.866149 -0.314078 0.373038 -0.873039 
0.387066 0.434933 -0.813027 0.469632 0.345336 -0.81252 0.291713 0.412881 -0.862805 
0.157716 0.401466 -0.902192 0.107051 0.369593 -0.923007 0.0808275 0.290337 -0.953505 
-0.0467176 0.221728 -0.973989 -0.22238 0.144115 -0.96425 -0.328996 0.209709 -0.920752 
-0.281787 0.133621 -0.950127 -0.306598 0.199893 -0.930613 0.519049 0.267625 -0.811767 
0.448501 0.256076 -0.856313 0.269889 0.212681 -0.93911 0.173921 0.233612 -0.956649 
0.0695902 0.26689 -0.961211 -0.0160537 0.199905 -0.979684 -0.133021 0.124661 -0.983242 
-0.276228 0.0813776 -0.957641 -0.259056 0.0634958 -0.963773 -0.284867 0.16419 -0.944401 
-0.216165 0.136818 -0.966723 0.556757 0.0955912 -0.825157 0.405638 0.0677549 -0.911519 
0.281704 0.0359477 -0.958828 0.210871 0.0248347 -0.977198 -0.159343 0.0777396 -0.984158 
-0.286428 0.111439 -0.951599 -0.228719 0.135848 -0.963967 -0.347455 0.0928465 -0.933089 
-0.20138 0.140685 -0.969358 -0.362155 0.0854071 -0.928197 0.540236 -0.0872559 -0.836977 
0.377985 -0.0777338 -0.922542 0.238418 -0.0953104 -0.966474 0.197356 -0.137359 -0.970661 
-0.214974 0.0588698 -0.974844 -0.230885 0.144638 -0.962171 -0.238839 0.101483 -0.965742 
-0.445978 0.0400765 -0.894146 -0.409148 0.054167 -0.910859 0.494732 -0.263208 -0.828228 
0.457972 -0.341533 -0.820742 0.416498 -0.248382 -0.874549 0.215982 -0.181363 -0.959406 
0.186594 -0.165415 -0.968411 0.178899 -0.12508 -0.975884 -0.141864 -0.0842574 -0.986294 
-0.200208 -0.0195122 -0.979559 -0.275284 -0.0271628 -0.960979 -0.521213 -0.120491 -0.844878 
-0.515655 -0.194244 -0.834488 -0.48392 -0.110169 -0.86815 0.409718 -0.409509 -0.815128 
0.365324 -0.474858 -0.800655 0.309416 -0.347389 -0.885202 0.247208 -0.243279 -0.937925 
0.199433 -0.196467 -0.960014 0.0296056 -0.194792 -0.980398 -0.0954174 -0.216323 -0.971648 
-0.132526 -0.233373 -0.963314 -0.176375 -0.232393 -0.956496 -0.483785 -0.307037 -0.819561 
-0.373266 -0.460797 -0.805195 -0.325191 -0.250922 -0.911751 0.353703 -0.531966 -0.769354 
0.33661 -0.548579 -0.765346 0.325049 -0.496284 -0.805013 0.242545 -0.653498 -0.717016 
0.223274 -0.436692 -0.871463 0.0669579 -0.707058 -0.703979 0.0426416 -0.415812 -0.90845 
-0.0614149 -0.650499 -0.75702 -0.107137 -0.407414 -0.906937 -0.157264 -0.577987 -0.800749 
-0.150842 -0.399989 -0.904022 -0.331749 -0.49626 -0.802289 -0.231678 -0.533473 -0.813469 
-0.211024 -0.451628 -0.866892 0.0697424 0.188212 -0.979649 -0.0374814 0.150622 -0.987881 
0.167937 0.0339003 -0.985215 0.0695655 0.0539471 -0.996118 -0.149825 0.0782163 -0.985614 
-0.0646453 0.0816156 -0.994565 -0.150503 0.0663324 -0.986382 0.140667 -0.124482 -0.9822 
0.138672 -0.121155 -0.9829 0.125527 -0.120863 -0.984701 0.00471021 -0.0296842 -0.999548 
-0.139473 0.0216918 -0.989988 -0.104693 0.00628576 -0.994485 0.0846184 -0.100444 -0.991338 
0.0533403 -0.119004 -0.99146 0.061916 -0.095075 -0.993543 -0.0771539 -0.0996944 -0.992022 
-0.075945 -0.102291 -0.991851 -0.0755526 -0.100026 -0.992112 
