# vtk DataFile Version 4.2
vtk output
ASCII
DATASET POLYDATA
POINTS 496 float
-23.5923 -35.2867 -16.475 -15.5765 -35.2867 -16.8504 -7.56063 -35.2867 -17.7524 
0.4552 -35.2867 -18.4111 8.47103 -35.2867 -17.705 16.4869 -35.2867 -16.356 
-39.6239 -27.2709 -18.358 -31.6081 -27.2709 -19.0115 -23.5923 -27.2709 -19.9192 
-15.5765 -27.2709 -19.8896 -7.56063 -27.2709 -20.7017 0.4552 -27.2709 -21.1767 
8.47103 -27.2709 -20.0869 16.4869 -27.2709 -19.2434 24.5027 -27.2709 -19.0458 
32.5185 -27.2709 -17.3869 -47.6398 -19.255 -17.7617 -39.6239 -19.255 -20.4383 
-31.6081 -19.255 -20.8932 -23.5923 -19.255 -20.9455 -15.5765 -19.255 -20.2722 
-7.56063 -19.255 -21.4306 0.4552 -19.255 -21.7818 8.47103 -19.255 -20.7931 
16.4869 -19.255 -21.1236 24.5027 -19.255 -21.3249 32.5185 -19.255 -21.1656 
40.5343 -19.255 -19.4922 -47.6398 -11.2392 -19.7733 -39.6239 -11.2392 -22.9165 
-31.6081 -11.2392 -22.5529 -23.5923 -11.2392 -21.043 -15.5765 -11.2392 -19.9117 
-7.56063 -11.2392 -22.0664 0.4552 -11.2392 -22.7689 8.47103 -11.2392 -22.2826 
16.4869 -11.2392 -22.1672 24.5027 -11.2392 -22.6108 32.5185 -11.2392 -22.8267 
40.5343 -11.2392 -21.482 48.5502 -11.2392 -18.1323 -47.6398 -3.22337 -21.0704 
-39.6239 -3.22337 -23.1252 -31.6081 -3.22337 -23.0917 -23.5923 -3.22337 -21.7963 
-15.5765 -3.22337 -20.5306 -7.56063 -3.22337 -22.9678 0.4552 -3.22337 -22.0693 
8.47103 -3.22337 -23.3631 16.4869 -3.22337 -22.478 24.5027 -3.22337 -22.2586 
32.5185 -3.22337 -22.9066 40.5343 -3.22337 -22.1947 48.5502 -3.22337 -19.3222 
-47.6398 4.79245 -21.0225 -39.6239 4.79245 -23.6439 -31.6081 4.79245 -23.9128 
-23.5923 4.79245 -22.9825 -15.5765 4.79245 -21.3452 -7.56063 4.79245 -21.6333 
0.4552 4.79245 -20.3301 8.47103 4.79245 -21.3851 16.4869 4.79245 -21.2845 
24.5027 4.79245 -21.6617 32.5185 4.79245 -22.5986 40.5343 4.79245 -21.8861 
48.5502 4.79245 -18.7625 -47.6398 12.8083 -19.0353 -39.6239 12.8083 -23.0667 
-31.6081 12.8083 -23.7844 -23.5923 12.8083 -23.2301 -15.5765 12.8083 -20.8501 
-7.56063 12.8083 -19.2418 0.4552 12.8083 -20.2065 8.47103 12.8083 -19.6733 
16.4869 12.8083 -19.9768 24.5027 12.8083 -20.7708 32.5185 12.8083 -20.9341 
40.5343 12.8083 -19.836 -39.6239 20.8241 -20.8283 -31.6081 20.8241 -22.4987 
-23.5923 20.8241 -21.7404 -15.5765 20.8241 -20.0194 -7.56063 20.8241 -18.6586 
0.4552 20.8241 -17.9562 8.47103 20.8241 -16.6267 16.4869 20.8241 -16.7386 
24.5027 20.8241 -16.9848 32.5185 20.8241 -17.1968 -31.6081 28.8399 -19.4537 
-23.5923 28.8399 -19.8243 -15.5765 28.8399 -18.7268 -7.56063 28.8399 -16.9347 
-23.5923 -35.9886 -15.9473 -15.5765 -36.5005 -15.9473 -7.56063 -37.5705 -15.9473 
0.4552 -38.3743 -15.9473 8.47103 -37.6129 -15.9473 16.4869 -35.7941 -15.9473 
-39.6239 -30.5807 -15.9473 -39.6239 -35.2867 -10.9201 -26.4293 -35.2867 -15.9473 
-31.6081 -33.3711 -15.9473 -31.6081 -35.2867 -14.7051 17.7135 -35.2867 -15.9473 
24.5027 -31.8098 -15.9473 24.5027 -35.2867 -12.2801 32.5185 -29.0405 -15.9473 
-43.5376 -27.2709 -15.9473 -47.6398 -22.4889 -15.9473 -47.6398 -27.2709 -11.4862 
36.4909 -27.2709 -15.9473 40.5343 -25.0965 -15.9473 40.5343 -27.2709 -12.9613 
-49.4681 -19.255 -15.9473 46.9532 -19.255 -15.9473 48.5502 -16.6982 -15.9473 
48.5502 -19.255 -14.0786 -52.9126 -11.2392 -15.9473 51.0752 -11.2392 -15.9473 
-53.6908 -3.22337 -15.9473 -55.6556 -3.22337 -8.81919 52.6532 -3.22337 -15.9473 
56.566 -3.22337 -9.94818 -52.8973 4.79245 -15.9473 51.9461 4.79245 -15.9473 
48.5502 11.5809 -15.9473 56.566 4.79245 -8.64028 -50.2798 12.8083 -15.9473 
-47.6398 17.5408 -15.9473 47.7215 12.8083 -15.9473 40.5343 19.3865 -15.9473 
48.5502 12.8083 -15.1879 -45.4045 20.8241 -15.9473 -39.6239 28.0495 -15.9473 
0.4552 27.0039 -15.9473 8.47103 22.0816 -15.9473 16.4869 21.9405 -15.9473 
24.5027 22.0808 -15.9473 36.9684 20.8241 -15.9473 32.5185 22.2185 -15.9473 
40.5343 20.8241 -14.1519 -38.6545 28.8399 -15.9473 -39.6239 28.8399 -14.1463 
-31.6081 33.8957 -15.9473 -23.5923 36.4563 -15.9473 -15.5765 35.7036 -15.9473 
-2.6084 28.8399 -15.9473 -7.56063 31.4355 -15.9473 0.4552 28.8399 -15.2421 
8.47103 28.8399 -11.8425 16.4869 28.8399 -9.84671 24.5027 28.8399 -8.63397 
-31.6081 36.8558 -11.828 -23.5923 36.8558 -15.6792 -15.5765 36.8558 -15.3317 
-7.56063 36.8558 -13.553 0.4552 36.8558 -10.315 -39.6239 -37.3294 -7.93147 
-31.6081 -40.643 -7.93147 -23.5923 -41.9774 -7.93147 -15.5765 -42.341 -7.93147 
-7.56063 -42.5088 -7.93147 0.4552 -42.6756 -7.93147 8.47103 -42.5535 -7.93147 
16.4869 -40.9135 -7.93147 24.5027 -37.9084 -7.93147 -42.1393 -35.2867 -7.93147 
-47.6398 -29.7656 -7.93147 30.1861 -35.2867 -7.93147 32.5185 -34.1892 -7.93147 
40.5343 -29.8608 -7.93147 -49.4706 -27.2709 -7.93147 44.5157 -27.2709 -7.93147 
48.5502 -23.7677 -7.93147 -53.5072 -19.255 -7.93147 52.0399 -19.255 -7.93147 
-55.4 -11.2392 -7.93147 -55.6556 -6.64923 -7.93147 55.9862 -11.2392 -7.93147 
56.566 -8.26732 -7.93147 -55.8452 -3.22337 -7.93147 -55.6556 -2.23351 -7.93147 
-55.6556 -3.22337 -7.07775 57.515 -3.22337 -7.93147 -54.2803 4.79245 -7.93147 
56.895 4.79245 -7.93147 56.566 5.59384 -7.93147 -51.2406 12.8083 -7.93147 
-47.6398 19.745 -7.93147 53.2997 12.8083 -7.93147 48.5502 18.6298 -7.93147 
-47.0258 20.8241 -7.93147 32.5185 27.076 -7.93147 45.711 20.8241 -7.93147 
40.5343 24.1693 -7.93147 -41.5235 28.8399 -7.93147 -39.6239 31.2611 -7.93147 
8.47103 34.8298 -7.93147 16.4869 30.8542 -7.93147 26.1404 28.8399 -7.93147 
24.5027 29.3361 -7.93147 32.5185 28.8399 -3.22202 -34.2971 36.8558 -7.93147 
-31.6081 39.1228 -7.93147 -23.5923 42.955 -7.93147 -15.5765 43.7875 -7.93147 
-7.56063 43.1893 -7.93147 5.51721 36.8558 -7.93147 0.4552 39.3862 -7.93147 
8.47103 36.8558 -6.24225 16.4869 36.8558 -1.06011 -23.5923 44.8716 -0.805273 
-15.5765 44.8716 -5.48321 -7.56063 44.8716 -5.07251 0.4552 44.8716 -0.0136074 
-39.6239 -37.6225 0.0843545 -31.6081 -41.6938 0.0843545 -23.5923 -43.1294 0.0843545 
-15.5765 -43.1083 0.0843545 -7.56063 -43.1251 0.0843545 0.4552 -42.6503 0.0843545 
8.47103 -42.6504 0.0843545 16.4869 -41.4159 0.0843545 24.5027 -38.6543 0.0843545 
-42.3485 -35.2867 0.0843545 -47.6398 -28.3851 0.0843545 -39.6239 -35.2867 4.11522 
31.8005 -35.2867 0.0843545 32.5185 -34.9442 0.0843545 40.5343 -30.5448 0.0843545 
-48.316 -27.2709 0.0843545 -47.6398 -27.2709 1.24433 44.8877 -27.2709 0.0843545 
48.5502 -23.8929 0.0843545 -51.8519 -19.255 0.0843545 -47.6398 -19.255 7.00071 
52.4613 -19.255 0.0843545 -53.7088 -11.2392 0.0843545 56.0195 -11.2392 0.0843545 
56.566 -8.63761 0.0843545 -53.7411 -3.22337 0.0843545 57.6808 -3.22337 0.0843545 
56.566 -3.22337 4.16177 -51.7914 4.79245 0.0843545 -47.6398 4.79245 6.30926 
57.2167 4.79245 0.0843545 56.566 6.58749 0.0843545 56.566 4.79245 2.63009 
-48.6515 12.8083 0.0843545 -47.6398 15.1615 0.0843545 -47.6398 12.8083 1.84029 
54.0276 12.8083 0.0843545 48.5502 19.8025 0.0843545 -45.0155 20.8241 0.0843545 
47.5112 20.8241 0.0843545 40.5343 26.149 0.0843545 -40.3937 28.8399 0.0843545 
-39.6239 29.9878 0.0843545 -39.6239 28.8399 2.12659 24.5027 33.8811 0.0843545 
35.208 28.8399 0.0843545 32.5185 30.1784 0.0843545 -34.5984 36.8558 0.0843545 
-31.6081 39.9567 0.0843545 8.47103 42.1545 0.0843545 18.2869 36.8558 0.0843545 
16.4869 37.7672 0.0843545 -24.0037 44.8716 0.0843545 -23.5923 45.091 0.0843545 
-23.5923 44.8716 1.33098 -15.5765 46.9263 0.0843545 -7.56063 47.2361 0.0843545 
0.642554 44.8716 0.0843545 0.4552 44.9262 0.0843545 8.47103 44.8716 7.6499 
-31.6081 -38.3571 8.10018 -23.5923 -40.4498 8.10018 -15.5765 -41.1404 8.10018 
-7.56063 -40.4466 8.10018 0.4552 -39.9761 8.10018 8.47103 -39.5811 8.10018 
16.4869 -38.3431 8.10018 24.5027 -36.1119 8.10018 -36.5093 -35.2867 8.10018 
-39.6239 -32.4235 8.10018 -31.6081 -35.2867 11.7608 -23.5923 -35.2867 14.053 
-15.5765 -35.2867 14.7503 -7.56063 -35.2867 14.4788 0.4552 -35.2867 14.2208 
8.47103 -35.2867 13.7265 16.4869 -35.2867 12.1476 26.5175 -35.2867 8.10018 
24.5027 -35.2867 9.35138 32.5185 -32.777 8.10018 40.5343 -28.1518 8.10018 
-43.5503 -27.2709 8.10018 -39.6239 -27.2709 11.9585 41.7347 -27.2709 8.10018 
40.5343 -27.2709 9.59478 48.5502 -20.7762 8.10018 -46.8568 -19.255 8.10018 
-47.6398 -14.9547 8.10018 -39.6239 -19.255 14.3202 49.808 -19.255 8.10018 
48.5502 -19.255 10.0512 -48.3513 -11.2392 8.10018 -47.6398 -11.2392 8.74402 
-39.6239 -11.2392 14.6203 53.7554 -11.2392 8.10018 -47.9142 -3.22337 8.10018 
-47.6398 -1.89569 8.10018 -47.6398 -3.22337 8.36069 -39.6239 -3.22337 13.9646 
55.4563 -3.22337 8.10018 -46.1427 4.79245 8.10018 -39.6239 4.79245 13.0063 
-31.6081 4.79245 15.681 55.0979 4.79245 8.10018 -43.6512 12.8083 8.10018 
-39.6239 12.8083 11.8258 -31.6081 12.8083 15.9185 52.0079 12.8083 8.10018 
48.5502 18.0111 8.10018 48.5502 12.8083 15.0072 -40.5678 20.8241 8.10018 
-39.6239 23.0136 8.10018 -39.6239 20.8241 9.28745 46.2606 20.8241 8.10018 
40.5343 25.9144 8.10018 -37.0958 28.8399 8.10018 -31.6081 28.8399 14.5218 
24.5027 36.4746 8.10018 36.2505 28.8399 8.10018 32.5185 31.2655 8.10018 
-31.9117 36.8558 8.10018 -31.6081 37.1907 8.10018 -31.6081 36.8558 8.55895 
-23.5923 43.444 8.10018 -23.5923 36.8558 16.0731 23.9356 36.8558 8.10018 
16.4869 41.4567 8.10018 -20.251 44.8716 8.10018 -15.5765 46.4649 8.10018 
-15.5765 44.8716 11.3804 -7.56063 47.6441 8.10018 -7.56063 44.8716 13.8487 
0.4552 46.8872 8.10018 0.4552 44.8716 14.414 8.77401 44.8716 8.10018 
8.47103 44.9973 8.10018 8.47103 44.8716 8.79268 -31.6081 -27.6552 16.116 
-23.5923 -31.5184 16.116 -15.5765 -32.7616 16.116 -7.56063 -32.8923 16.116 
0.4552 -32.8853 16.116 8.47103 -32.0288 16.116 16.4869 -30.8851 16.116 
24.5027 -29.4124 16.116 32.5185 -27.6356 16.116 -31.9798 -27.2709 16.116 
-31.6081 -27.2709 16.2773 -23.5923 -27.2709 18.0691 -15.5765 -27.2709 18.4746 
-7.56063 -27.2709 18.9176 0.4552 -27.2709 19.3175 8.47103 -27.2709 18.6167 
16.4869 -27.2709 18.4104 24.5027 -27.2709 17.7468 33.2044 -27.2709 16.116 
32.5185 -27.2709 16.4644 40.5343 -22.3048 16.116 -35.8193 -19.255 16.116 
-31.6081 -19.255 17.8869 -23.5923 -19.255 19.6645 -15.5765 -19.255 20.1173 
-7.56063 -19.255 20.653 0.4552 -19.255 21.8607 8.47103 -19.255 21.5409 
[...]
POINT_DATA 496
SCALARS ImageScalars float
LOOKUP_TABLE default
0 0 0 0 0 0 0 0 0 
0 0 0 0 0 0 0 0 0 
0 0 0 0 0 0 0 0 0 
0 0 0 0 0 0 0 0 0 
0 0 0 0 0 0 0 0 0 
0 0 0 0 0 0 0 0 0 
0 0 0 0 0 0 0 0 0 
0 0 0 0 0 0 0 0 0 
0 0 0 0 0 0 0 0 0 
0 0 0 0 0 0 0 0 0 
0 0 0 0 0 0 0 0 0 
0 0 0 0 0 0 0 0 0 
0 0 0 0 0 0 0 0 0 
0 0 0 0 0 0 0 0 0 
0 0 0 0 0 0 0 0 0 
0 0 0 0 0 0 0 0 0 
0 0 0 0 0 0 0 0 0 
0 0 0 0 0 0 0 0 0 
0 0 0 0 0 0 0 0 0 
0 0 0 0 0 0 0 0 0 
0 0 0 0 0 0 0 0 0 
0 0 0 0 0 0 0 0 0 
0 0 0 0 0 0 0 0 0 
0 0 0 0 0 0 0 0 0 
0 0 0 0 0 0 0 0 0 
0 0 0 0 0 0 0 0 0 
0 0 0 0 0 0 0 0 0 
0 0 0 0 0 0 0 0 0 
0 0 0 0 0 0 0 0 0 
0 0 0 0 0 0 0 0 0 
0 0 0 0 0 0 0 0 0 
0 0 0 0 0 0 0 0 0 
0 0 0 0 0 0 0 0 0 
0 0 0 0 0 0 0 0 0 
0 0 0 0 0 0 0 0 0 
0 0 0 0 0 0 0 0 0 
0 0 0 0 0 0 0 0 0 
0 0 0 0 0 0 0 0 0 
0 0 0 0 0 0 0 0 0 
0 0 0 0 0 0 0 0 0 
0 0 0 0 0 0 0 0 0 
0 0 0 0 0 0 0 0 0 
0 0 0 0 0 0 0 0 0 
0 0 0 0 0 0 0 0 0 
0 0 0 0 0 0 0 0 0 
0 0 0 0 0 0 0 0 0 
0 0 0 0 0 0 0 0 0 
0 0 0 0 0 0 0 0 0 
0 0 0 0 0 0 0 0 0 
0 0 0 0 0 0 0 0 0 
0 0 0 0 0 0 0 0 0 
0 0 0 0 0 0 0 0 0 
0 0 0 0 0 0 0 0 0 
0 0 0 0 0 0 0 0 0 
0 0 0 0 0 0 0 0 0 
0 
NORMALS Normals float
-0.103024 -0.548056 -0.830073 -0.0739818 -0.517603 -0.852417 -0.0901693 -0.532095 -0.84187 
0.0040088 -0.520891 -0.853614 0.119079 -0.496481 -0.859841 0.235513 -0.552027 -0.799875 
-0.297716 -0.437673 -0.848414 -0.0843727 -0.32371 -0.942387 -0.0506001 -0.261549 -0.963863 
-0.048498 -0.192578 -0.980083 -0.0772217 -0.205431 -0.97562 0.0414265 -0.192152 -0.98049 
0.113429 -0.175536 -0.977917 0.0659235 -0.279524 -0.957873 0.10049 -0.43568 -0.894475 
0.237823 -0.584732 -0.775583 -0.552826 -0.353581 -0.754562 -0.152201 -0.247593 -0.956835 
-0.0290838 -0.20683 -0.977945 0.0392964 -0.0656545 -0.997068 -0.0277285 -0.000228464 -0.999615 
-0.0949953 -0.0819476 -0.992099 0.0408624 -0.0977464 -0.994372 0.0392077 -0.131539 -0.990535 
-0.0326697 -0.173443 -0.984302 -0.00232894 -0.199779 -0.979838 0.105064 -0.293544 -0.950154 
0.326764 -0.359491 -0.874066 -0.478662 -0.17424 -0.860537 -0.164285 -0.167522 -0.972084 
0.114267 -0.13544 -0.984174 0.163607 -0.0523436 -0.985136 -0.0521624 -0.0144297 -0.998534 
-0.186395 -0.0932663 -0.978038 -0.0120134 -0.0186093 -0.999755 0.0377369 -0.162109 -0.986051 
-0.0210513 -0.0826698 -0.996355 -0.0404985 -0.0572419 -0.997539 0.0656658 -0.110751 -0.991677 
0.253735 -0.160351 -0.95389 0.550804 -0.225165 -0.803689 -0.45753 -0.0755433 -0.885979 
-0.115178 -0.04358 -0.992388 0.0817154 -0.0842782 -0.993086 0.1557 -0.118245 -0.980702 
-0.0610014 -0.0920276 -0.993886 -0.0980879 0.0306865 -0.994705 -0.0280929 0.15572 -0.987402 
-0.0226866 0.0582913 -0.998042 0.0679452 0.0561303 -0.996109 -0.0267507 0.0588589 -0.997908 
0.0013915 0.013598 -0.999907 0.192178 -0.0234601 -0.98108 0.501121 -0.0306317 -0.864835 
-0.539625 0.105017 -0.83533 -0.158324 0.00338543 -0.987381 0.0397665 -0.0423034 -0.998313 
0.161137 -0.0877143 -0.983027 0.082008 -0.0199967 -0.996431 0.0638739 0.224141 -0.972461 
0.0146365 0.109834 -0.993842 -0.0596017 0.222462 -0.973118 -0.0172366 0.149984 -0.988538 
-0.081773 0.0919789 -0.992398 -0.0177897 0.119369 -0.992691 0.205335 0.139016 -0.968768 
0.522289 0.194703 -0.830244 -0.69885 0.331266 -0.633934 -0.235622 0.153594 -0.959631 
-0.0117765 0.0842754 -0.996373 0.180187 0.0845343 -0.979993 0.239781 0.0831286 -0.967261 
0.0346619 0.180996 -0.982873 -0.0273686 0.144142 -0.989178 0.0143752 0.275564 -0.961175 
-0.0659936 0.266278 -0.961634 -0.0575534 0.246502 -0.967432 0.0563367 0.29383 -0.954196 
0.27734 0.367853 -0.887562 -0.394044 0.413815 -0.820662 -0.0374481 0.262316 -0.964255 
0.146716 0.184684 -0.971785 0.197729 0.131465 -0.971401 0.125099 0.137099 -0.982626 
0.11792 0.289224 -0.949971 0.0743124 0.428096 -0.900673 -0.0190253 0.521093 -0.853288 
-0.0256798 0.578287 -0.815429 0.108914 0.608408 -0.786115 -0.200694 0.494673 -0.845589 
0.0491401 0.359988 -0.931662 0.163265 0.265705 -0.950129 0.205976 0.281079 -0.93732 
-0.108184 -0.577567 -0.809143 -0.0719383 -0.574907 -0.81505 -0.084332 -0.648851 -0.756228 
-0.00249393 -0.687779 -0.725916 0.121999 -0.623728 -0.772062 0.240034 -0.577033 -0.780652 
-0.344868 -0.550208 -0.760485 -0.486865 -0.75059 -0.44674 -0.140037 -0.570443 -0.809311 
-0.181326 -0.541595 -0.82085 -0.219174 -0.641271 -0.735347 0.246694 -0.576854 -0.778705 
0.22221 -0.593802 -0.773319 0.34314 -0.776227 -0.528892 0.265362 -0.648311 -0.713635 
-0.472751 -0.494438 -0.729409 -0.599431 -0.429005 -0.675749 -0.734566 -0.562947 -0.378819 
0.33287 -0.649757 -0.683384 0.413762 -0.611881 -0.674094 0.464401 -0.750194 -0.470681 
-0.654493 -0.374238 -0.656951 0.582466 -0.449433 -0.677307 0.621817 -0.39044 -0.678897 
0.677625 -0.491961 -0.546625 -0.778694 -0.212448 -0.590339 0.663202 -0.238638 -0.709377 
-0.846559 0.00995047 -0.532202 -0.996933 0.0647519 -0.0439498 0.688073 -0.0397514 -0.724551 
0.941072 -0.0502981 -0.334446 -0.866011 0.196622 -0.459744 0.668853 0.214395 -0.711808 
0.601242 0.414633 -0.683072 0.931087 0.236057 -0.278126 -0.828515 0.387905 -0.403847 
-0.787562 0.48427 -0.381089 0.57807 0.444584 -0.684237 0.360383 0.641102 -0.677579 
0.620686 0.460717 -0.63442 -0.736546 0.541768 -0.404953 -0.599749 0.633835 -0.48842 
0.234899 0.371003 -0.898431 0.103344 0.444644 -0.889726 -0.00157391 0.548708 -0.836013 
-0.0123421 0.614317 -0.788963 0.256017 0.669853 -0.69696 0.120958 0.67626 -0.726664 
0.389995 0.720802 -0.573017 -0.566905 0.640937 -0.517511 -0.657238 0.647068 -0.386448 
-0.320372 0.657739 -0.68172 -0.0839154 0.584887 -0.806762 0.118266 0.456272 -0.881946 
0.245092 0.35184 -0.903404 0.220278 0.347878 -0.911295 0.27273 0.400648 -0.8747 
0.268046 0.521263 -0.810207 0.146658 0.675568 -0.722564 0.176934 0.819286 -0.545403 
-0.468078 0.760924 -0.44933 -0.0952123 0.602839 -0.792162 0.106912 0.505218 -0.856344 
0.244263 0.524414 -0.815675 0.343636 0.595112 -0.726468 -0.518518 -0.809125 -0.276507 
-0.240666 -0.904387 -0.35237 -0.101025 -0.93405 -0.342557 -0.0307626 -0.957587 -0.286496 
-0.0206859 -0.966642 -0.255294 -0.00256838 -0.981645 -0.190702 0.104119 -0.970218 -0.218717 
0.276451 -0.924227 -0.2634 0.376623 -0.880589 -0.287608 -0.596427 -0.75991 -0.258478 
-0.76824 -0.616422 -0.172719 0.408626 -0.873149 -0.265772 0.420638 -0.869237 -0.259791 
0.508059 -0.830881 -0.226966 -0.817573 -0.556441 -0.148148 0.588121 -0.780163 -0.213211 
0.717655 -0.663415 -0.211783 -0.939334 -0.330291 -0.0925136 0.809937 -0.542687 -0.222471 
-0.989959 -0.14108 -0.00885174 -0.999774 -0.0212467 0.000163866 0.932822 -0.286816 -0.218127 
0.955387 -0.196323 -0.220666 -0.997695 0.067677 0.00492807 -0.995683 0.0921357 0.0112605 
-0.996518 0.0715729 0.0427608 0.972184 -0.0516085 -0.228462 -0.961574 0.268141 0.05896 
0.941247 0.235396 -0.242162 0.934382 0.25867 -0.244991 -0.908286 0.410274 0.0817971 
-0.860584 0.508061 0.0356174 0.825582 0.49534 -0.270283 0.665388 0.690802 -0.282935 
-0.851639 0.52354 0.0248419 0.263349 0.882611 -0.389416 0.57052 0.767226 -0.293039 
0.423773 0.843683 -0.32957 -0.79806 0.600688 -0.0476929 -0.773771 0.628159 -0.0818176 
0.354949 0.591699 -0.723812 0.213297 0.684436 -0.697174 0.207377 0.841751 -0.498447 
0.195674 0.826033 -0.528565 0.344219 0.89311 -0.2896 -0.622591 0.750924 -0.220212 
-0.538722 0.797202 -0.272485 -0.238839 0.876751 -0.417448 -0.0183321 0.876099 -0.481783 
0.205434 0.779359 -0.591942 0.368971 0.612945 -0.698684 0.346919 0.667317 -0.659041 
0.381426 0.633945 -0.672776 0.386965 0.750937 -0.535119 -0.357579 0.930934 -0.0741536 
-0.0584461 0.931534 -0.358926 0.173799 0.869241 -0.462832 0.270285 0.883346 -0.382943 
-0.579073 -0.793752 0.186099 -0.279022 -0.953004 0.118023 -0.0793725 -0.99343 0.0824409 
0.000266659 -0.998321 0.0579161 0.0282878 -0.993563 0.109688 0.0291833 -0.988186 0.150455 
0.0724103 -0.983969 0.16298 0.233652 -0.962288 0.139317 0.367517 -0.924822 0.0981582 
-0.665062 -0.721717 0.191876 -0.833008 -0.476243 0.281585 -0.58873 -0.701699 0.401267 
0.426085 -0.901304 0.0781143 0.433154 -0.898104 0.0760646 0.548578 -0.831997 0.0827208 
-0.843965 -0.446637 0.29705 -0.834157 -0.431703 0.343242 0.628598 -0.771013 0.101993 
0.725451 -0.678621 0.114865 -0.897598 -0.273694 0.345556 -0.775728 -0.233788 0.586166 
0.82969 -0.548502 0.103732 -0.934215 -0.101541 0.341952 0.95316 -0.274303 0.127452 
0.970827 -0.203999 0.126016 -0.908396 0.103093 0.405203 0.990281 -0.0690577 0.120723 
0.966366 -0.0729765 0.2466 -0.872024 0.263381 0.412559 -0.756518 0.216677 0.617034 
0.972705 0.206438 0.105963 0.960119 0.260941 0.100406 0.961841 0.202275 0.184247 
-0.849576 0.35393 0.391093 -0.845482 0.380291 0.374886 -0.833591 0.336918 0.437735 
0.877401 0.474133 0.0732467 0.720194 0.693622 0.014468 -0.832684 0.447142 0.326652 
0.687009 0.726631 -0.00513285 0.509522 0.855353 -0.0935884 -0.831308 0.509471 0.222186 
-0.825711 0.52333 0.21054 -0.829229 0.487759 0.272893 0.394093 0.834679 -0.38471 
0.422507 0.886517 -0.188615 0.398622 0.887399 -0.231567 -0.749759 0.650705 0.120184 
-0.669802 0.737905 0.0828326 0.360144 0.809122 -0.464347 0.398711 0.776551 -0.487851 
0.402328 0.762839 -0.50617 -0.381386 0.923958 -0.0290884 -0.368009 0.929213 -0.0336425 
-0.384386 0.922926 0.0213527 -0.123949 0.982294 -0.140483 0.117685 0.961292 -0.249135 
0.271225 0.88379 -0.381251 0.26949 0.884983 -0.379711 0.320182 0.944936 -0.0676703 
-0.341525 -0.775463 0.531053 -0.147934 -0.856011 0.495339 -9.29241e-05 -0.891017 0.45397 
0.064414 -0.879576 0.471378 0.0482727 -0.886467 0.460268 0.0914131 -0.868476 0.48723 
0.192981 -0.851747 0.487119 0.298151 -0.854042 0.426284 -0.487778 -0.662772 0.568161 
-0.58116 -0.552252 0.597721 -0.365356 -0.644033 0.672113 -0.137088 -0.624235 0.769115 
-0.0221429 -0.590951 0.806404 0.0246321 -0.655621 0.754688 0.0333435 -0.693177 0.719996 
0.0900326 -0.692112 0.716153 0.170392 -0.750003 0.639111 0.321385 -0.852947 0.411331 
0.285274 -0.835291 0.470008 0.398726 -0.84193 0.363554 0.534476 -0.772335 0.343271 
-0.695973 -0.381817 0.608143 -0.579341 -0.382311 0.719862 0.558204 -0.7555 0.342968 
0.531124 -0.7532 0.388068 0.731812 -0.576806 0.362968 -0.745676 -0.21791 0.629669 
-0.731748 -0.131347 0.6688 -0.524882 -0.129036 0.841337 0.760497 -0.536443 0.365886 
0.729644 -0.536787 0.423649 -0.714465 -0.0517455 0.697755 -0.693184 -0.0467853 0.719241 
-0.46486 0.0222868 0.885104 0.882605 -0.2796 0.377932 -0.707523 0.096553 0.700063 
-0.708324 0.113074 0.696772 -0.699684 0.0948828 0.708124 -0.423592 0.0910702 0.901263 
0.924439 -0.0744358 0.373995 -0.695063 0.193309 0.692473 -0.459416 0.117706 0.880388 
-0.192098 0.0320442 0.980852 0.916202 0.190369 0.352611 -0.72799 0.259097 0.634743 
-0.607124 0.169803 0.776252 -0.364127 -0.05385 0.929791 0.844658 0.43413 0.313184 
0.771265 0.579392 0.263542 0.767695 0.383684 0.513255 -0.784958 0.323697 0.528262 
-0.792303 0.344941 0.503261 -0.76861 0.297631 0.566264 0.710802 0.664455 0.23078 
0.595629 0.786745 0.162045 -0.792125 0.414269 0.448241 -0.615432 0.308277 0.725403 
0.549316 0.833884 -0.0537549 0.552374 0.829047 0.0869666 0.539831 0.840915 0.0380068 
-0.697976 0.600698 0.38986 -0.690846 0.609181 0.389398 -0.690161 0.598519 0.40676 
-0.455657 0.820981 0.344044 -0.405999 0.492361 0.769899 0.545819 0.835588 -0.0622438 
0.467004 0.877747 -0.107084 -0.358356 0.884554 0.298573 -0.232491 0.939226 0.25259 
-0.249648 0.876229 0.412187 -0.0248763 0.982224 0.186056 -0.0905157 0.846978 0.523866 
0.157544 0.986948 0.0333807 0.0483215 0.895811 0.4418 0.322663 0.945252 -0.0488661 
0.316806 0.947316 -0.0471799 0.312355 0.949938 -0.00726405 -0.308049 -0.305664 0.90093 
-0.13058 -0.454504 0.881121 -0.0372141 -0.474699 0.879361 -0.00315076 -0.533912 0.845534 
0.0272166 -0.580249 0.813984 0.073186 -0.547034 0.833905 0.0974542 -0.562657 0.820926 
0.13982 -0.616625 0.774741 0.281225 -0.671602 0.685466 -0.316865 -0.294924 0.901452 
-0.306043 -0.292252 0.90605 -0.130459 -0.299288 0.945202 -0.0503307 -0.299949 0.952626 
-0.0492821 -0.322259 0.945368 0.0165453 -0.392729 0.919505 0.0532983 -0.401968 0.914101 
0.0480411 -0.44903 0.892224 0.102382 -0.553203 0.826731 0.297681 -0.668116 0.681914 
0.275369 -0.661398 0.697656 0.478155 -0.576776 0.662343 -0.409291 -0.0994408 0.906969 
-0.300264 -0.0825888 0.950274 -0.133132 -0.0481765 0.989927 -0.0608732 -0.0773835 0.995141 
-0.10672 -0.153124 0.982428 -0.0553245 -0.217175 0.974564 0.0313786 -0.302703 0.952568 
-0.015578 -0.329774 0.943931 0.00294129 -0.381831 0.924227 0.176374 -0.436137 0.882427 
0.548451 -0.504599 0.666769 0.438945 -0.490307 0.752945 0.706448 -0.303099 0.63958 
-0.360462 0.0561812 0.93108 -0.251564 0.0868198 0.963939 -0.128949 0.183108 0.974599 
-0.150425 0.179906 0.972114 -0.195071 -0.0289949 0.98036 -0.140653 -0.000245026 0.990059 
-0.0674043 -0.210931 0.975174 -0.0428934 -0.306632 0.950861 0.391582 -0.2579 0.883262 
0.712427 -0.28848 0.639708 0.704688 -0.288114 0.648386 -0.184779 0.117537 0.975726 
-0.166934 0.0829381 0.982474 -0.148706 0.121229 0.981422 -0.0179205 0.169087 0.985438 
-0.271927 0.225196 0.935597 -0.293735 -0.00456219 0.955876 -0.235057 -0.00813051 0.971948 
0.378184 -0.0750103 0.922686 0.75748 -0.0883755 0.646849 0.684367 -0.0880876 0.723797 
-0.0807527 -0.0721842 0.994117 -0.0340741 -0.11682 0.992568 -0.288231 -0.191152 0.938288 
-0.406385 -0.0692405 0.911075 -0.25335 -0.131223 0.958433 0.402817 0.0273587 0.914871 
0.769314 0.142658 0.62274 0.756439 0.319853 0.570521 0.701193 0.127089 0.701553 
-0.352885 -0.0678606 0.933203 -0.403423 -0.0233915 0.914715 -0.213006 -0.198407 0.956694 
-0.226602 -0.291166 0.929448 -0.262789 -0.0644143 0.962701 -0.205255 -0.0379974 0.977971 
0.744124 0.370634 0.555797 0.433019 0.280575 0.856605 -0.514983 0.0685043 0.854458 
-0.524936 0.12588 0.841781 -0.489801 0.0565582 0.869998 -0.269826 -0.0580734 0.961156 
-0.187788 -0.0940805 0.977694 -0.143669 -0.0103377 0.989572 -0.120251 0.0218722 0.992503 
0.342963 0.4236 0.838415 0.604833 0.593585 0.530881 0.588302 0.620914 0.518041 
0.565647 0.580919 0.5853 -0.526426 0.262881 0.80856 -0.405144 0.488622 0.772727 
-0.354972 0.19159 0.915035 -0.175155 0.139748 0.974572 -0.139316 0.131536 0.981473 
-0.0990468 0.132311 0.986247 0.0464733 0.186421 0.98137 0.183313 0.267079 0.946079 
0.52212 0.712721 0.468423 0.333421 0.524132 0.783655 0.525455 0.710861 0.467519 
0.523108 0.713169 0.466635 0.514882 0.704113 0.489001 -0.403698 0.490837 0.772079 
-0.264281 0.623063 0.736171 -0.251111 0.41003 0.876823 -0.127066 0.709826 0.692822 
-0.149593 0.386913 0.909901 0.00916643 0.816508 0.577262 -0.0599918 0.413042 0.908734 
0.213068 0.838112 0.502166 0.0892776 0.488832 0.867798 0.515336 0.734704 0.441179 
0.426289 0.788897 0.442628 0.362701 0.612691 0.702181 -0.0288036 -0.278672 0.959954 
0.119972 -0.279295 0.952681 -0.129212 -0.192059 0.97284 -0.0407492 -0.297988 0.953699 
-0.0440704 -0.303307 0.951873 -0.030798 -0.264071 0.964011 0.170897 -0.254025 0.95198 
0.114665 -0.253066 0.96063 -0.270621 -0.101994 0.957268 -0.280818 -0.140394 0.949437 
-0.0691692 -0.204341 0.976453 0.042924 -0.156911 0.986679 0.311774 -0.0786287 0.946897 
0.171645 -0.099928 0.980078 -0.257464 -0.0975686 0.961349 -0.265592 -0.0295175 0.963634 
-0.0568962 -0.00461043 0.998369 0.0793372 0.000785161 0.996848 0.36637 0.0282714 0.93004 
0.195783 0.0487545 0.979435 -0.200718 -0.0266285 0.979287 -0.157152 0.0842319 0.983976 
-0.0407849 0.163276 0.985737 0.0967479 0.163781 0.981741 0.284069 0.240058 0.928266 
0.231528 0.272443 0.9339 0.199452 0.219792 0.95494 -0.097389 0.0518646 0.993894 
0.0227892 0.166814 0.985725 -0.0620676 0.0990284 0.993147 0.0729766 0.228991 0.970689 
0.0208795 0.220636 0.975133 0.15993 0.316436 0.935035 0.152111 0.316731 0.936239 
0.145092 0.308893 0.939965 
