# vtk DataFile Version 4.2
vtk output
ASCII
DATASET POLYDATA
POINTS 552 float
-41.6117 -35.739 -15.4445 -33.0134 -35.739 -17.7688 -24.4152 -35.739 -17.0929 
-15.817 -35.739 -15.6849 -58.8081 -27.1408 -15.7052 -50.2099 -27.1408 -16.97 
-41.6117 -27.1408 -18.4135 -33.0134 -27.1408 -18.7824 -24.4152 -27.1408 -19.4757 
-15.817 -27.1408 -18.1417 -7.21876 -27.1408 -17.0101 1.37946 -27.1408 -15.6681 
9.97768 -27.1408 -15.1124 27.1741 -27.1408 -15.9947 35.7724 -27.1408 -16.2866 
44.3706 -27.1408 -17.0766 52.9688 -27.1408 -15.8024 -58.8081 -18.5425 -16.9085 
-50.2099 -18.5425 -18.9234 -41.6117 -18.5425 -20.1905 -33.0134 -18.5425 -19.7124 
-24.4152 -18.5425 -18.796 -15.817 -18.5425 -18.1362 -7.21876 -18.5425 -18.0319 
1.37946 -18.5425 -16.8728 9.97768 -18.5425 -17.2325 18.5759 -18.5425 -17.6167 
27.1741 -18.5425 -18.2654 35.7724 -18.5425 -18.1011 44.3706 -18.5425 -18.9678 
52.9688 -18.5425 -19.2761 61.567 -18.5425 -17.3939 -58.8081 -9.94431 -18.2069 
-50.2099 -9.94431 -20.2865 -41.6117 -9.94431 -20.0973 -33.0134 -9.94431 -19.2629 
-24.4152 -9.94431 -17.5867 -15.817 -9.94431 -15.9608 -7.21876 -9.94431 -20.2621 
1.37946 -9.94431 -17.067 9.97768 -9.94431 -20.0093 18.5759 -9.94431 -16.1219 
27.1741 -9.94431 -16.7852 35.7724 -9.94431 -17.9725 44.3706 -9.94431 -19.8886 
52.9688 -9.94431 -19.0608 61.567 -9.94431 -20.5412 70.1652 -9.94431 -16.0718 
-58.8081 -1.34609 -18.1375 -50.2099 -1.34609 -20.073 -41.6117 -1.34609 -19.9521 
-33.0134 -1.34609 -19.0237 -24.4152 -1.34609 -17.1325 -15.817 -1.34609 -15.7414 
-7.21876 -1.34609 -21.9458 9.97768 -1.34609 -21.9435 27.1741 -1.34609 -15.6637 
35.7724 -1.34609 -17.9065 44.3706 -1.34609 -19.5815 52.9688 -1.34609 -19.3444 
61.567 -1.34609 -21.1712 70.1652 -1.34609 -15.8848 -58.8081 7.25214 -15.8255 
-50.2099 7.25214 -17.9024 -41.6117 7.25214 -18.7913 -33.0134 7.25214 -18.5053 
-24.4152 7.25214 -17.5228 -15.817 7.25214 -17.5136 -7.21876 7.25214 -20.5327 
1.37946 7.25214 -17.158 9.97768 7.25214 -20.9963 18.5759 7.25214 -16.3903 
27.1741 7.25214 -16.6452 35.7724 7.25214 -18.3185 44.3706 7.25214 -20.371 
52.9688 7.25214 -19.4687 61.567 7.25214 -20.2062 70.1652 7.25214 -15.3501 
-50.2099 15.8504 -15.4908 -41.6117 15.8504 -16.9669 -33.0134 15.8504 -17.3167 
-24.4152 15.8504 -17.2736 -15.817 15.8504 -17.4101 -7.21876 15.8504 -17.6899 
1.37946 15.8504 -18.6772 9.97768 15.8504 -18.2856 18.5759 15.8504 -16.868 
27.1741 15.8504 -18.2482 35.7724 15.8504 -18.0363 44.3706 15.8504 -18.9397 
52.9688 15.8504 -18.5774 61.567 15.8504 -16.1455 -41.6117 24.4486 -15.331 
-33.0134 24.4486 -17.4183 -24.4152 24.4486 -17.4211 -15.817 24.4486 -17.3869 
-7.21876 24.4486 -16.7612 1.37946 24.4486 -17.3989 9.97768 24.4486 -17.4166 
18.5759 24.4486 -15.9381 27.1741 24.4486 -15.5786 35.7724 24.4486 -15.4896 
44.3706 24.4486 -15.4451 -24.4152 33.0468 -16.5965 -15.817 33.0468 -15.5427 
-41.6117 -36.3073 -15.0209 -33.0134 -39.4125 -15.0209 -33.0134 -44.3372 -6.63654 
-24.4152 -38.3507 -15.0209 -15.817 -36.6422 -15.0209 -58.8081 -28.1442 -15.0209 
-42.8393 -35.739 -15.0209 -50.2099 -31.0077 -15.0209 -50.2099 -35.739 -11.0631 
-13.646 -35.739 -15.0209 -7.21876 -31.4924 -15.0209 -7.21876 -35.739 -11.2885 
1.37946 -28.2339 -15.0209 9.97768 -27.2753 -15.0209 27.1741 -28.6636 -15.0209 
35.7724 -28.8928 -15.0209 44.3706 -29.9914 -15.0209 44.3706 -35.739 -7.08581 
52.9688 -28.1542 -15.0209 -59.8251 -27.1408 -15.0209 12.7063 -27.1408 -15.0209 
19.9839 -27.1408 -15.0209 18.5759 -26.5503 -15.0209 18.5759 -27.1408 -14.7725 
55.1812 -27.1408 -15.0209 61.567 -23.0477 -15.0209 61.567 -27.1408 -12.5152 
70.1652 -27.1408 -6.69736 -62.9812 -18.5425 -15.0209 -67.4063 -18.5425 -11.9249 
66.1322 -18.5425 -15.0209 70.1652 -12.8153 -15.0209 70.1652 -18.5425 -13.0297 
78.7635 -18.5425 -7.1988 -65.1926 -9.94431 -15.0209 -67.4063 -9.94431 -13.4953 
1.37946 -4.48719 -15.0209 18.5759 -7.11343 -15.0209 74.6933 -9.94431 -15.0209 
78.7635 -9.94431 -13.7006 -65.1942 -1.34609 -15.0209 -67.4063 -1.34609 -13.5956 
0.0217349 -1.34609 -15.0209 4.54711 -1.34609 -15.0209 1.37946 1.60951 -15.0209 
1.37946 -1.34609 -13.8952 14.0178 -1.34609 -15.0209 25.0214 -1.34609 -15.0209 
18.5759 4.3402 -15.0209 18.5759 -1.34609 -13.0899 73.2956 -1.34609 -15.0209 
78.7635 -1.34609 -13.1144 -60.8158 7.25214 -15.0209 -67.4063 7.25214 -11.0181 
-58.8081 10.6155 -15.0209 71.0107 7.25214 -15.0209 70.1652 8.61867 -15.0209 
78.7635 7.25214 -11.3594 -52.8902 15.8504 -15.0209 -58.8081 15.8504 -13.2057 
-50.2099 17.0136 -15.0209 52.9688 22.7867 -15.0209 64.8835 15.8504 -15.0209 
61.567 18.5003 -15.0209 70.1652 15.8504 -12.6796 -42.4445 24.4486 -15.0209 
-50.2099 24.4486 -11.4857 -41.6117 25.4908 -15.0209 -33.0134 31.6489 -15.0209 
-7.21876 30.998 -15.0209 1.37946 30.8763 -15.0209 9.97768 31.6778 -15.0209 
18.5759 26.4927 -15.0209 27.1741 25.3822 -15.0209 35.7724 25.1866 -15.0209 
46.7452 24.4486 -15.0209 44.3706 24.961 -15.0209 52.9688 24.4486 -13.549 
61.567 24.4486 -10.2339 -41.6117 33.0468 -12.1987 -31.0009 33.0468 -15.0209 
-33.0134 33.0468 -14.5516 -24.4152 36.4492 -15.0209 -11.654 33.0468 -15.0209 
-15.817 34.5595 -15.0209 -7.21876 33.0468 -14.4185 1.37946 33.0468 -14.0425 
9.97768 33.0468 -14.3902 18.5759 33.0468 -10.8732 27.1741 33.0468 -8.14383 
-33.0134 41.645 -9.92642 -24.4152 41.645 -11.5707 -15.817 41.645 -10.0083 
-33.0134 -44.4403 -6.42267 -50.2099 -38.9638 -6.42267 -33.69 -44.3372 -6.42267 
-41.6117 -42.9186 -6.42267 -31.3029 -44.3372 -6.42267 -33.0134 -44.3372 -5.63017 
-24.4152 -43.9013 -6.42267 -15.817 -41.9292 -6.42267 -7.21876 -38.3097 -6.42267 
44.3706 -36.0951 -6.42267 -55.9974 -35.739 -6.42267 -58.8081 -33.5636 -6.42267 
-0.876437 -35.739 -6.42267 1.37946 -34.8792 -6.42267 9.97768 -33.6484 -6.42267 
18.5759 -33.6136 -6.42267 27.1741 -34.9361 -6.42267 41.3818 -35.739 -6.42267 
35.7724 -35.0119 -6.42267 46.2184 -35.739 -6.42267 44.3706 -35.739 -5.02254 
52.9688 -34.2418 -6.42267 61.567 -32.4208 -6.42267 70.1652 -27.2918 -6.42267 
-66.1644 -27.1408 -6.42267 -67.4063 -25.4702 -6.42267 70.4696 -27.1408 -6.42267 
70.1652 -27.1408 -5.68029 78.7635 -19.5273 -6.42267 -71.3813 -18.5425 -6.42267 
79.2805 -18.5425 -6.42267 78.7635 -18.5425 -3.59426 -74.4438 -9.94431 -6.42267 
-76.0045 -9.94431 1.73527 83.7949 -9.94431 -6.42267 -75.7778 -1.34609 -6.42267 
-76.0045 -1.34609 -4.91187 83.3899 -1.34609 -6.42267 -71.0492 7.25214 -6.42267 
-67.4063 14.4141 -6.42267 82.3813 7.25214 -6.42267 78.7635 12.4908 -6.42267 
-66.4176 15.8504 -6.42267 -67.4063 15.8504 -4.92632 -58.8081 23.6124 -6.42267 
75.6747 15.8504 -6.42267 70.1652 21.2347 -6.42267 -58.0471 24.4486 -6.42267 
-58.8081 24.4486 -5.51011 -50.2099 32.1484 -6.42267 35.7724 32.332 -6.42267 
44.3706 31.4239 -6.42267 52.9688 29.2072 -6.42267 65.1177 24.4486 -6.42267 
61.567 26.3519 -6.42267 -49.3927 33.0468 -6.42267 -50.2099 33.0468 -5.27587 
-41.6117 39.7246 -6.42267 -7.21876 41.4312 -6.42267 1.37946 39.568 -6.42267 
9.97768 39.4683 -6.42267 18.5759 37.0707 -6.42267 32.437 33.0468 -6.42267 
27.1741 34.3282 -6.42267 35.7724 33.0468 -3.50826 -38.4683 41.645 -6.42267 
-41.6117 41.645 -0.587008 -33.0134 44.4589 -6.42267 -24.4152 45.123 -6.42267 
-8.0542 41.645 -6.42267 -15.817 43.8216 -6.42267 -50.2099 -38.8753 2.17555 
-41.6117 -42.4658 2.17555 -33.0134 -43.2661 2.17555 -24.4152 -42.7163 2.17555 
-15.817 -40.6199 2.17555 -7.21876 -36.9205 2.17555 -55.8924 -35.739 2.17555 
-58.8081 -33.8924 2.17555 -50.2099 -35.739 8.39865 -15.817 -35.739 8.7579 
-4.50669 -35.739 2.17555 -7.21876 -35.739 3.94014 1.37946 -33.1038 2.17555 
9.97768 -31.9682 2.17555 18.5759 -31.9873 2.17555 27.1741 -32.9617 2.17555 
35.7724 -33.4119 2.17555 44.3706 -33.3197 2.17555 52.9688 -33.9445 2.17555 
61.567 -30.9579 2.17555 -67.3688 -27.1408 2.17555 -67.4063 -27.0981 2.17555 
1.37946 -27.1408 8.80912 9.97768 -27.1408 7.70409 18.5759 -27.1408 7.64897 
27.1741 -27.1408 8.30341 35.7724 -27.1408 9.40321 44.3706 -27.1408 10.5741 
52.9688 -27.1408 9.56451 67.4434 -27.1408 2.17555 61.567 -27.1408 6.10261 
70.1652 -25.5209 2.17555 -73.0477 -18.5425 2.17555 -76.0045 -10.1688 2.17555 
77.5921 -18.5425 2.17555 70.1652 -18.5425 8.82271 78.7635 -16.6261 2.17555 
-76.0702 -9.94431 2.17555 -76.0045 -9.94431 2.3336 82.8476 -9.94431 2.17555 
78.7635 -9.94431 10.4523 -76.761 -1.34609 2.17555 -76.0045 1.72214 2.17555 
-76.0045 -1.34609 4.24697 82.2748 -1.34609 2.17555 78.7635 -1.34609 6.39625 
-74.5649 7.25214 2.17555 80.7124 7.25214 2.17555 78.7635 10.3184 2.17555 
78.7635 7.25214 5.25177 -70.5696 15.8504 2.17555 -67.4063 19.8214 2.17555 
74.3461 15.8504 2.17555 70.1652 20.0713 2.17555 70.1652 15.8504 6.97134 
-63.606 24.4486 2.17555 -58.8081 29.3499 2.17555 44.3706 32.179 2.17555 
52.9688 29.3925 2.17555 63.3649 24.4486 2.17555 61.567 25.4652 2.17555 
61.567 24.4486 4.03711 -54.9509 33.0468 2.17555 -50.2099 37.0025 2.17555 
-7.21876 40.933 2.17555 1.37946 39.043 2.17555 9.97768 39.501 2.17555 
18.5759 39.1325 2.17555 27.1741 36.9681 2.17555 41.1289 33.0468 2.17555 
35.7724 34.4377 2.17555 35.7724 33.0468 9.72541 -42.861 41.645 2.17555 
-41.6117 42.3552 2.17555 -41.6117 41.645 3.91034 -33.0134 44.8031 2.17555 
-33.0134 41.645 8.31374 -24.4152 44.8739 2.17555 -24.4152 41.645 8.78695 
-9.91963 41.645 2.17555 -15.817 43.229 2.17555 -15.817 41.645 4.91314 
-41.6117 -37.1486 10.7738 -33.0134 -37.3178 10.7738 -24.4152 -36.7745 10.7738 
-58.8081 -28.7283 10.7738 -46.101 -35.739 10.7738 -50.2099 -33.8378 10.7738 
-41.6117 -35.739 12.1698 -33.0134 -35.739 12.2391 -21.4892 -35.739 10.7738 
-24.4152 -35.739 11.575 -15.817 -33.2425 10.7738 -7.21876 -28.3918 10.7738 
-60.8797 -27.1408 10.7738 -67.4063 -19.3822 10.7738 -58.8081 -27.1408 12.2759 
-50.2099 -27.1408 15.826 -41.6117 -27.1408 17.1558 -33.0134 -27.1408 17.5195 
-24.4152 -27.1408 16.3988 -15.817 -27.1408 14.3363 -4.53658 -27.1408 10.7738 
-7.21876 -27.1408 11.524 1.37946 -22.6448 10.7738 9.97768 -20.4109 10.7738 
18.5759 -20.7448 10.7738 27.1741 -23.2034 10.7738 35.7724 -25.0569 10.7738 
44.3706 -26.8863 10.7738 52.9688 -25.1205 10.7738 61.567 -21.7787 10.7738 
[...]
POINT_DATA 552
SCALARS ImageScalars float
LOOKUP_TABLE default
0 0 0 0 0 0 0 0 0 
0 0 0 0 0 0 0 0 0 
0 0 0 0 0 0 0 0 0 
0 0 0 0 0 0 0 0 0 
0 0 0 0 0 0 0 0 0 
0 0 0 0 0 0 0 0 0 
0 0 0 0 0 0 0 0 0 
0 0 0 0 0 0 0 0 0 
0 0 0 0 0 0 0 0 0 
0 0 0 0 0 0 0 0 0 
0 0 0 0 0 0 0 0 0 
0 0 0 0 0 0 0 0 0 
0 0 0 0 0 0 0 0 0 
0 0 0 0 0 0 0 0 0 
0 0 0 0 0 0 0 0 0 
0 0 0 0 0 0 0 0 0 
0 0 0 0 0 0 0 0 0 
0 0 0 0 0 0 0 0 0 
0 0 0 0 0 0 0 0 0 
0 0 0 0 0 0 0 0 0 
0 0 0 0 0 0 0 0 0 
0 0 0 0 0 0 0 0 0 
0 0 0 0 0 0 0 0 0 
0 0 0 0 0 0 0 0 0 
0 0 0 0 0 0 0 0 0 
0 0 0 0 0 0 0 0 0 
0 0 0 0 0 0 0 0 0 
0 0 0 0 0 0 0 0 0 
0 0 0 0 0 0 0 0 0 
0 0 0 0 0 0 0 0 0 
0 0 0 0 0 0 0 0 0 
0 0 0 0 0 0 0 0 0 
0 0 0 0 0 0 0 0 0 
0 0 0 0 0 0 0 0 0 
0 0 0 0 0 0 0 0 0 
0 0 0 0 0 0 0 0 0 
0 0 0 0 0 0 0 0 0 
0 0 0 0 0 0 0 0 0 
0 0 0 0 0 0 0 0 0 
0 0 0 0 0 0 0 0 0 
0 0 0 0 0 0 0 0 0 
0 0 0 0 0 0 0 0 0 
0 0 0 0 0 0 0 0 0 
0 0 0 0 0 0 0 0 0 
0 0 0 0 0 0 0 0 0 
0 0 0 0 0 0 0 0 0 
0 0 0 0 0 0 0 0 0 
0 0 0 0 0 0 0 0 0 
0 0 0 0 0 0 0 0 0 
0 0 0 0 0 0 0 0 0 
0 0 0 0 0 0 0 0 0 
0 0 0 0 0 0 0 0 0 
0 0 0 0 0 0 0 0 0 
0 0 0 0 0 0 0 0 0 
0 0 0 0 0 0 0 0 0 
0 0 0 0 0 0 0 0 0 
0 0 0 0 0 0 0 0 0 
0 0 0 0 0 0 0 0 0 
0 0 0 0 0 0 0 0 0 
0 0 0 0 0 0 0 0 0 
0 0 0 0 0 0 0 0 0 
0 0 0 
NORMALS Normals float
-0.306297 -0.503508 -0.807875 -0.0955642 -0.391156 -0.91535 0.127516 -0.478755 -0.868639 
0.227453 -0.521065 -0.822652 -0.44788 -0.432456 -0.78255 -0.159824 -0.343818 -0.925335 
-0.103901 -0.273549 -0.95623 -0.0580962 -0.118269 -0.991281 0.0375046 -0.0786806 -0.996194 
0.13488 -0.131759 -0.982063 0.139382 -0.26635 -0.953745 0.109668 -0.356902 -0.927682 
0.0484324 -0.468861 -0.881943 -0.0768796 -0.445729 -0.891861 -0.0723236 -0.444861 -0.892674 
0.0203097 -0.44292 -0.896331 0.232996 -0.574151 -0.784897 -0.332273 -0.163567 -0.928892 
-0.17433 -0.189856 -0.966211 -0.0412404 -0.0873027 -0.995328 0.0838694 -0.0269547 -0.996112 
0.0907571 0.0987063 -0.990969 0.0446334 0.109734 -0.992958 0.0720684 -0.141296 -0.987341 
0.0471251 -0.0759904 -0.995994 -0.0417742 -0.242814 -0.969173 -0.0595442 -0.0683085 -0.995886 
-0.0281447 -0.0450143 -0.99859 -0.0383264 -0.0835971 -0.995762 -0.0743983 -0.178054 -0.981204 
0.0699054 -0.139646 -0.987731 0.337236 -0.357909 -0.870731 -0.33012 -0.0531182 -0.942443 
-0.121183 -0.0665877 -0.990394 0.058605 0.0143923 -0.998177 0.137523 0.0408123 -0.989657 
0.185901 0.10067 -0.977398 -0.0870194 0.145331 -0.985549 -0.0731279 -0.248435 -0.965884 
-0.0161468 0.129351 -0.991467 0.0581646 -0.220698 -0.973606 0.15066 0.230639 -0.961305 
-0.100204 0.146033 -0.984192 -0.175991 0.0111374 -0.984329 -0.0648508 -0.0359081 -0.997249 
-0.0259454 -0.00147763 -0.999662 0.154268 -0.212288 -0.964953 0.298268 -0.148866 -0.942802 
-0.324325 0.114543 -0.938985 -0.119286 0.137081 -0.983351 0.0601534 0.0752609 -0.995348 
0.161709 0.0433555 -0.985886 0.160928 0.0006137 -0.986966 -0.233949 -0.0917193 -0.967913 
0.0957369 0.0170619 -0.99526 -0.0853684 -0.0761027 -0.993439 -0.24798 0.0115896 -0.968696 
-0.209235 -0.0197604 -0.977666 -0.0892158 -0.0289493 -0.995592 -0.0788087 -0.0232124 -0.996619 
0.150482 0.01531 -0.988494 0.348282 0.0342774 -0.936763 -0.311869 0.275348 -0.909352 
-0.152539 0.26256 -0.952782 -0.0326395 0.167813 -0.985278 0.0744963 0.0999619 -0.992199 
0.0584642 -0.00820495 -0.998256 -0.181314 -0.0647591 -0.981291 0.0270548 0.240153 -0.970358 
0.00321131 -0.253901 -0.967225 -0.00716976 0.215071 -0.976572 0.242291 -0.197848 -0.949816 
-0.109832 -0.148908 -0.982733 -0.202575 -0.00745862 -0.979238 -0.0719738 0.0396894 -0.996617 
0.0154818 0.0562267 -0.998298 0.224933 0.274357 -0.934951 0.399323 0.132226 -0.907225 
-0.17169 0.332979 -0.927172 -0.109429 0.210269 -0.9715 -0.0167988 0.063241 -0.997857 
-0.00543964 0.0059767 -0.999967 -0.0234988 0.00641263 -0.999703 -0.0745455 0.208925 -0.975086 
-0.0330363 -0.00786905 -0.999423 0.106147 0.178138 -0.978264 0.00323451 0.0331687 -0.999445 
-0.069662 0.0606218 -0.995727 -0.0368824 0.143357 -0.988984 -0.0277657 0.276188 -0.960703 
0.13046 0.248211 -0.959881 0.327962 0.392017 -0.859514 -0.299522 0.237671 -0.924013 
-0.130509 0.152966 -0.979576 0.00184746 0.0348369 -0.999391 0.0376504 0.104295 -0.993834 
0.00141099 0.177708 -0.984082 -0.0376764 0.230046 -0.97245 0.0832589 0.200386 -0.976173 
0.105198 0.268341 -0.957563 0.0253303 0.430902 -0.902043 0.00769718 0.442659 -0.896657 
0.0817188 0.574912 -0.814124 -0.0548111 0.269143 -0.961539 0.114754 0.272358 -0.955328 
-0.309055 -0.526901 -0.791745 -0.0911222 -0.644064 -0.759525 -0.0482369 -0.980945 -0.1882 
0.131544 -0.607121 -0.783645 0.233366 -0.56729 -0.789761 -0.458915 -0.467481 -0.755552 
-0.320476 -0.520845 -0.791211 -0.246276 -0.476507 -0.843972 -0.42124 -0.715776 -0.556976 
0.247823 -0.561982 -0.789151 0.225602 -0.466955 -0.855018 0.343022 -0.798748 -0.494306 
0.126229 -0.417813 -0.899722 0.0496306 -0.476134 -0.877971 -0.0795078 -0.523606 -0.848243 
-0.0642015 -0.535376 -0.84217 0.0279474 -0.601085 -0.798696 0.040032 -0.980249 -0.193676 
0.22941 -0.616915 -0.752852 -0.486525 -0.440381 -0.754558 0.0164471 -0.482902 -0.87552 
-0.0578037 -0.499946 -0.864125 -0.0545165 -0.479657 -0.875761 -0.0544121 -0.521735 -0.851371 
0.25229 -0.570882 -0.781309 0.326357 -0.432324 -0.840587 0.328153 -0.638499 -0.696157 
0.513003 -0.839908 -0.177151 -0.464156 -0.213113 -0.859734 -0.67945 -0.310974 -0.664563 
0.378658 -0.315105 -0.870246 0.342652 -0.191911 -0.919652 0.456066 -0.361096 -0.813396 
0.819155 -0.509118 -0.264165 -0.522244 -0.0460083 -0.851554 -0.6126 -0.0526803 -0.788635 
0.148944 0.0658477 -0.986651 0.124152 0.201492 -0.97159 0.492909 -0.20201 -0.846305 
0.726632 -0.26755 -0.63279 -0.499377 0.085653 -0.862141 -0.568096 0.0801995 -0.819045 
0.254374 -0.032137 -0.966572 0.22199 -0.0353893 -0.974406 0.182243 -0.126655 -0.975062 
0.243367 0.00624089 -0.969914 0.0951947 -0.0445185 -0.994463 -0.208121 0.0108635 -0.978043 
0.188676 -0.186575 -0.964153 0.0632484 0.0124564 -0.99792 0.45182 0.0627843 -0.889897 
0.739623 0.114908 -0.663139 -0.375149 0.290371 -0.880311 -0.631119 0.358551 -0.687845 
-0.357171 0.312333 -0.880271 0.427131 0.148908 -0.891844 0.411233 0.16865 -0.895793 
0.751543 0.38514 -0.535585 -0.248219 0.346321 -0.904682 -0.444651 0.396343 -0.803242 
-0.192064 0.342978 -0.919499 0.154573 0.580018 -0.799804 0.382213 0.382028 -0.841408 
0.335347 0.461848 -0.821121 0.519079 0.476392 -0.709653 -0.305526 0.253603 -0.917791 
-0.393195 0.422031 -0.816876 -0.305777 0.255493 -0.917182 -0.203617 0.30541 -0.930196 
0.0585808 0.330199 -0.942092 -0.0147146 0.456976 -0.889357 0.12297 0.460734 -0.878978 
0.138482 0.337484 -0.931089 0.0354269 0.461136 -0.886622 0.0173964 0.476598 -0.878949 
0.103355 0.600012 -0.793287 0.0870938 0.596626 -0.79778 0.17488 0.696044 -0.696376 
0.408387 0.798301 -0.442646 -0.396781 0.435961 -0.807777 -0.182368 0.320023 -0.929692 
-0.221837 0.340838 -0.913574 -0.0641308 0.406261 -0.911504 0.095089 0.322975 -0.941619 
0.122015 0.333669 -0.934761 0.0829015 0.401544 -0.91208 0.00524609 0.569562 -0.821932 
0.136249 0.535858 -0.833242 0.265607 0.657479 -0.705105 0.202586 0.811549 -0.548039 
-0.284107 0.738494 -0.611482 -0.0268287 0.745819 -0.665608 0.211094 0.837982 -0.503215 
-0.0468493 -0.982917 -0.177988 -0.444147 -0.857046 -0.261162 -0.0653598 -0.980802 -0.183725 
-0.294007 -0.921263 -0.254627 -0.0126601 -0.98491 -0.172601 -0.0437595 -0.989903 -0.134825 
0.130679 -0.979582 -0.152783 0.326797 -0.932519 -0.15366 0.370797 -0.916949 -0.147358 
0.041124 -0.98759 -0.151575 -0.564282 -0.778645 -0.274405 -0.611181 -0.746455 -0.263176 
0.281484 -0.951285 -0.125795 0.25721 -0.957712 -0.128958 0.0782255 -0.982907 -0.166658 
-0.0726519 -0.980998 -0.179904 -0.0847397 -0.985856 -0.144594 0.00301445 -0.989241 -0.146263 
-0.0632207 -0.987783 -0.142438 0.0729894 -0.983411 -0.166057 0.0268662 -0.997921 -0.0585798 
0.189207 -0.958069 -0.215186 0.369561 -0.904395 -0.213294 0.511894 -0.843052 -0.165011 
-0.717916 -0.615493 -0.325216 -0.751012 -0.563966 -0.343398 0.518391 -0.839119 -0.16477 
0.518621 -0.846102 -0.123059 0.813542 -0.534371 -0.229341 -0.830331 -0.407164 -0.380483 
0.831076 -0.502037 -0.239313 0.839548 -0.539987 -0.0597726 -0.880027 -0.188691 -0.435831 
-0.97748 -0.183137 0.104848 0.933564 -0.235352 -0.270311 -0.891763 0.141062 -0.429954 
-0.935386 0.131992 -0.328072 0.965168 0.0817463 -0.248531 -0.765847 0.384164 -0.51565 
-0.65444 0.489153 -0.576575 0.896855 0.369073 -0.243794 0.7909 0.571502 -0.218777 
-0.62934 0.509848 -0.586503 -0.686715 0.533028 -0.49427 -0.600743 0.562808 -0.567763 
0.717561 0.661349 -0.218458 0.590102 0.78012 -0.207826 -0.595378 0.558495 -0.577588 
-0.626185 0.582888 -0.517817 -0.58866 0.569157 -0.574056 0.143103 0.925898 -0.349621 
0.193566 0.919437 -0.342299 0.260818 0.934626 -0.241761 0.496295 0.850623 -0.173582 
0.435504 0.881945 -0.180305 -0.593616 0.576227 -0.561767 -0.613714 0.615037 -0.49506 
-0.496154 0.735213 -0.461836 0.21922 0.941669 -0.255346 0.104673 0.957375 -0.269216 
0.122922 0.949466 -0.288797 0.27888 0.845732 -0.454932 0.178497 0.902646 -0.391624 
0.239057 0.850418 -0.46866 0.189043 0.954851 -0.229178 -0.426413 0.803125 -0.416128 
-0.445464 0.892205 -0.0743752 -0.265922 0.889094 -0.372555 0.0276251 0.959419 -0.280628 
0.220509 0.943045 -0.249082 0.239017 0.938447 -0.249374 -0.421914 -0.884135 0.200732 
-0.244401 -0.92368 0.295099 -0.0116905 -0.945758 0.324663 0.14522 -0.940152 0.308264 
0.319142 -0.879149 0.353901 0.389477 -0.844244 0.368185 -0.522509 -0.822927 0.223105 
-0.571268 -0.793216 0.210859 -0.407116 -0.742814 0.531493 0.296129 -0.679147 0.671615 
0.351023 -0.85818 0.37458 0.380159 -0.807051 0.451827 0.248493 -0.869989 0.425875 
0.0609716 -0.891836 0.448232 -0.0518567 -0.890787 0.451452 -0.0785192 -0.884576 0.459738 
-0.0183955 -0.91727 0.397841 -0.0236375 -0.889605 0.456119 0.117363 -0.94222 0.313764 
0.352351 -0.847746 0.396455 -0.727446 -0.664288 0.171884 -0.728432 -0.663241 0.171754 
0.189564 -0.552643 0.811573 0.0574129 -0.625987 0.777717 -0.029478 -0.63327 0.77337 
-0.0847296 -0.636536 0.766578 -0.0924507 -0.610287 0.786767 -0.0140933 -0.658484 0.752463 
0.198372 -0.548171 0.812501 0.484515 -0.787688 0.380516 0.333459 -0.70983 0.62044 
0.557977 -0.747358 0.360717 -0.868317 -0.487533 0.0913097 -0.973672 -0.188408 0.128317 
0.755262 -0.560609 0.339554 0.451766 -0.447743 0.771643 0.797053 -0.510242 0.323048 
-0.974997 -0.180998 0.128921 -0.974043 -0.180853 0.136131 0.930643 -0.195056 0.309608 
0.581382 -0.0620189 0.811263 -0.989667 0.0799384 0.119035 -0.982971 0.156346 0.0965569 
-0.975568 0.0730674 0.207189 0.917983 0.120963 0.377725 0.740384 0.143389 0.656712 
-0.951004 0.308363 0.0224313 0.868978 0.344758 0.354991 0.810708 0.479054 0.336541 
0.802811 0.308363 0.510301 -0.831605 0.554692 -0.0273708 -0.787378 0.614399 -0.0504867 
0.690416 0.658228 0.300102 0.614865 0.716116 0.330331 0.566234 0.613865 0.550044 
-0.747331 0.657266 -0.0974568 -0.705312 0.703124 -0.0902908 0.29666 0.947439 0.119797 
0.343469 0.919959 0.188955 0.49213 0.825248 0.277081 0.462932 0.846975 0.261395 
0.481581 0.813934 0.32495 -0.660199 0.748461 -0.0627934 -0.590007 0.807251 -0.0153755 
0.224271 0.931926 0.284984 0.072104 0.956859 0.281462 -0.00305134 0.983632 0.180164 
0.141716 0.989697 0.0203927 0.268182 0.962385 -0.0435152 0.287061 0.95613 0.0584099 
0.265045 0.963855 -0.0270996 0.323103 0.870055 0.372302 -0.432209 0.898981 0.0709089 
-0.405475 0.911157 0.0733672 -0.402493 0.898213 0.17667 -0.141736 0.964424 0.223152 
-0.115017 0.840525 0.529423 0.0778849 0.966215 0.245689 0.0984186 0.816637 0.568698 
0.230308 0.931631 0.281108 0.23663 0.92721 0.290324 0.239708 0.882409 0.404839 
-0.128685 -0.715724 0.686425 0.0128108 -0.68148 0.731725 0.14654 -0.626299 0.765687 
-0.454917 -0.633051 0.626336 -0.260907 -0.690469 0.674671 -0.365689 -0.647813 0.668289 
-0.127915 -0.679858 0.722102 0.0295736 -0.63613 0.771015 0.193552 -0.609106 0.769109 
0.148587 -0.594356 0.790356 0.275012 -0.557759 0.783118 0.286373 -0.450888 0.845394 
-0.50357 -0.597772 0.623767 -0.566903 -0.480889 0.668856 -0.432225 -0.577737 0.692388 
-0.241119 -0.473536 0.847128 -0.0756837 -0.440066 0.89477 0.0400268 -0.381274 0.923595 
0.167015 -0.356266 0.919337 0.261645 -0.368988 0.891846 0.248872 -0.435896 0.864903 
0.279271 -0.405535 0.870373 0.153924 -0.392243 0.906892 0.0370583 -0.338916 0.940087 
-0.0775513 -0.380686 0.921447 -0.111207 -0.493974 0.862335 -0.102521 -0.530996 0.84115 
-0.0136475 -0.646414 0.762865 0.17935 -0.478021 0.859843 0.247911 -0.475163 0.844252 
-0.572875 -0.464102 0.675592 -0.554499 -0.45668 0.695683 -0.399879 -0.32709 0.856218 
-0.209959 -0.260274 0.94243 0.185586 -0.130382 0.97394 0.260199 -0.156246 0.952829 
0.243316 -0.240581 0.939637 0.13155 -0.314977 0.939938 0.0299365 -0.287931 0.957183 
-0.0990444 -0.328112 0.939432 -0.147048 -0.389558 0.909187 -0.0974751 -0.38633 0.917196 
0.0255524 -0.366501 0.930067 0.122121 -0.415317 0.901442 0.318681 -0.406872 0.856094 
0.230269 -0.393479 0.890028 0.346231 -0.358387 0.866997 -0.765461 -0.191003 0.614481 
-0.540974 -0.225493 0.810247 -0.31904 -0.116114 0.940601 0.176369 -0.0346215 0.983715 
0.147337 -0.0500651 0.987818 0.108194 -0.250754 0.961986 0.140032 -0.171974 0.975098 
0.0617689 -0.269847 0.96092 -0.136996 -0.251624 0.95808 -0.158855 -0.251097 0.954838 
-0.0707347 -0.249241 0.965855 -0.0273899 -0.226493 0.973628 0.121271 -0.203792 0.971474 
0.214361 -0.191139 0.95787 0.553264 -0.0691592 0.83013 0.309155 -0.255338 0.916093 
-0.820679 0.035959 0.570257 -0.505123 0.0118096 0.862967 -0.326437 -0.0222808 0.944956 
0.183649 -0.0818623 0.979577 0.0572207 -0.09253 0.994064 0.145586 -0.10137 0.984139 
0.11358 -0.15673 0.981089 -0.0751644 -0.209247 0.97497 -0.109424 -0.233019 0.966296 
-0.149127 -0.169795 0.974131 -0.0755934 -0.145132 0.98652 0.0587507 -0.123845 0.990561 
0.170201 -0.0212705 0.98518 0.260755 -0.0455744 0.964329 0.54835 0.0720179 0.833142 
0.463675 -0.0322581 0.885418 -0.797546 0.266122 0.541386 -0.611419 0.230865 0.75688 
-0.364096 0.03785 0.930592 0.129747 -0.121244 0.984107 0.0414487 -0.0401032 0.998335 
0.0342751 -0.17059 0.984746 -0.00707563 -0.090297 0.99589 -0.100615 -0.169686 0.980348 
-0.0768992 -0.123391 0.989374 0.193427 0.104666 0.975516 0.214358 0.187368 0.958615 
0.588945 0.264413 0.763695 0.500995 0.446264 0.741521 0.465321 0.258261 0.846627 
-0.715828 0.48398 0.503343 -0.714595 0.490864 0.498405 -0.708663 0.478665 0.518341 
-0.423791 0.239711 0.873464 0.0931435 0.0287209 0.995238 0.0705557 0.0982368 0.992659 
-0.0809489 0.0370754 0.996028 -0.143782 -0.0177654 0.98945 0.109633 0.100168 0.988912 
0.194817 0.265457 0.944235 0.275775 0.348144 0.89596 0.431016 0.49449 0.754788 
0.441641 0.542683 0.714457 0.37129 0.393124 0.841188 -0.678144 0.596866 0.428803 
-0.617566 0.642543 0.453598 -0.550174 0.585448 0.595449 -0.321945 0.40871 0.853995 
0.10977 0.26991 0.956608 0.109367 0.30758 0.945216 0.037379 0.321356 0.946221 
-0.127547 0.243551 0.961465 -0.127537 0.249122 0.960038 0.0450379 0.296874 0.953854 
0.326824 0.838359 0.436279 0.233129 0.37792 0.896006 0.349037 0.732229 0.58482 
0.315978 0.547489 0.774864 0.375307 0.643151 0.667459 0.355991 0.651368 0.670067 
0.350009 0.628061 0.695006 -0.476688 0.725799 0.495967 -0.448537 0.740118 0.501039 
-0.44063 0.693941 0.569466 -0.277465 0.721415 0.634487 -0.186746 0.618139 0.763564 
-0.0915365 0.73934 0.667082 -0.0100726 0.537087 0.843467 0.0945748 0.724205 0.683069 
0.0951203 0.498513 0.861648 0.195925 0.683927 0.70275 0.151997 0.553785 0.818669 
0.154762 0.697411 0.699762 0.137064 0.635966 0.759448 -0.0210847 0.704542 0.709349 
-0.0207623 0.675225 0.73732 -0.143082 0.723403 0.675437 -0.140739 0.612419 0.777905 
0.0202204 0.831656 0.554923 -0.0443754 0.650572 0.758147 0.316484 0.844634 0.431777 
0.211843 0.870524 0.444197 0.159506 0.761715 0.627972 -0.0567723 -0.301979 0.951622 
0.113969 -0.204337 0.972243 -0.168755 -0.244371 0.954885 -0.197697 -0.239414 0.950577 
-0.0531307 -0.20283 0.977772 0.155154 -0.142956 0.977492 0.133382 -0.152547 0.979254 
-0.262934 -0.131114 0.955863 -0.159317 -0.182362 0.970238 0.0500565 -0.054929 0.997235 
0.159539 -0.038097 0.986456 0.13039 -0.0435053 0.990508 -0.313123 -0.0242943 0.949402 
-0.139059 -0.041877 0.989398 0.0805462 -0.0409022 0.995911 0.176159 -0.0802178 0.981088 
0.142838 -0.0730678 0.987045 0.176296 -0.0842383 0.980726 -0.0456869 -0.061882 0.997037 
0.0662338 -0.0932054 0.993441 -0.327044 0.0384673 0.944226 -0.175915 0.0845631 0.980767 
0.0186087 0.0143343 0.999724 0.0911388 -0.0478773 0.994687 0.138628 -0.111021 0.984102 
0.153201 -0.0914089 0.983958 0.114972 -0.00999963 0.993318 -0.0583014 -0.0817929 0.994943 
-0.063975 -0.102275 0.992697 0.0727926 0.0680592 0.995022 -0.0300683 -0.0214453 0.999318 
0.118969 0.0664218 0.990674 0.124054 0.1072 0.986468 0.101421 0.0558089 0.993277 
-0.311943 0.233869 0.920868 -0.215857 0.302306 0.928449 -0.166192 0.248121 0.954367 
-0.0500602 0.105623 0.993145 0.0372634 0.0890411 0.995331 0.11233 0.0437961 0.992705 
0.105814 0.0288348 0.993968 0.109901 0.0634705 0.991914 0.109516 0.0292454 0.993555 
-0.133209 -0.0162358 0.990955 0.0992944 0.0905447 0.99093 0.0332164 0.226134 0.97353 
8.67485e-06 -0.00125819 0.999999 -0.178072 0.298656 0.937601 -0.13584 0.327321 0.935098 
-0.127665 0.265197 0.955705 0.0334972 0.320287 0.946728 0.0336384 0.279942 0.959427 
0.0892639 0.255495 0.962681 0.0877813 0.260739 0.96141 0.0876381 0.254673 0.963048 

