# vtk DataFile Version 4.2
vtk output
ASCII
DATASET POLYDATA
POINTS 566 float
-35.8973 -27.8737 -15.5793 -27.5006 -27.8737 -16.4682 -19.104 -27.8737 -15.5411 
-2.31063 -27.8737 -15.7409 22.8794 -27.8737 -15.7457 31.276 -27.8737 -16.4548 
39.6727 -27.8737 -16.1458 48.0693 -27.8737 -16.3811 -44.2939 -19.4771 -18.1343 
-35.8973 -19.4771 -19.5464 -27.5006 -19.4771 -19.4789 -19.104 -19.4771 -18.7551 
-10.7073 -19.4771 -18.7918 -2.31063 -19.4771 -19.8279 6.08603 -19.4771 -18.0416 
14.4827 -19.4771 -18.1649 22.8794 -19.4771 -18.7526 31.276 -19.4771 -19.5947 
39.6727 -19.4771 -19.1414 48.0693 -19.4771 -19.6029 56.466 -19.4771 -21.0336 
64.8627 -19.4771 -17.2939 -52.6906 -11.0804 -17.2021 -44.2939 -11.0804 -19.5134 
-35.8973 -11.0804 -20.8224 -27.5006 -11.0804 -20.2677 -19.104 -11.0804 -19.1682 
-10.7073 -11.0804 -18.9731 -2.31063 -11.0804 -20.9731 6.08603 -11.0804 -18.6952 
14.4827 -11.0804 -18.8856 22.8794 -11.0804 -18.2144 31.276 -11.0804 -18.8517 
39.6727 -11.0804 -19.7758 48.0693 -11.0804 -21.4032 56.466 -11.0804 -20.076 
64.8627 -11.0804 -21.9965 73.2593 -11.0804 -16.0438 -52.6906 -2.68375 -17.7764 
-44.2939 -2.68375 -19.5868 -35.8973 -2.68375 -20.2579 -27.5006 -2.68375 -19.7623 
-19.104 -2.68375 -19.18 -10.7073 -2.68375 -22.4155 -2.31063 -2.68375 -20.9273 
6.08603 -2.68375 -19.132 14.4827 -2.68375 -19.7959 22.8794 -2.68375 -16.723 
31.276 -2.68375 -18.1495 39.6727 -2.68375 -19.7713 48.0693 -2.68375 -21.526 
56.466 -2.68375 -20.4962 64.8627 -2.68375 -22.8522 73.2593 -2.68375 -16.6645 
-61.0873 5.71291 -15.9405 -52.6906 5.71291 -18.4382 -44.2939 5.71291 -19.8716 
-35.8973 5.71291 -20.1316 -27.5006 5.71291 -19.5232 -19.104 5.71291 -19.0617 
-10.7073 5.71291 -21.7832 -2.31063 5.71291 -20.5306 6.08603 5.71291 -19.7421 
14.4827 5.71291 -20.5088 22.8794 5.71291 -16.7625 31.276 5.71291 -17.6672 
39.6727 5.71291 -19.1998 48.0693 5.71291 -20.7906 56.466 5.71291 -19.8818 
64.8627 5.71291 -22.4568 73.2593 5.71291 -16.4679 -61.0873 14.1096 -15.8046 
-52.6906 14.1096 -18.1779 -44.2939 14.1096 -19.8295 -35.8973 14.1096 -20.351 
-27.5006 14.1096 -19.9087 -19.104 14.1096 -19.4058 -10.7073 14.1096 -19.5622 
-2.31063 14.1096 -19.4844 6.08603 14.1096 -18.728 14.4827 14.1096 -18.8378 
22.8794 14.1096 -17.2396 31.276 14.1096 -17.4249 39.6727 14.1096 -18.8897 
48.0693 14.1096 -18.2493 56.466 14.1096 -17.7683 64.8627 14.1096 -16.4411 
73.2593 14.1096 -15.5635 -52.6906 22.5062 -16.4275 -44.2939 22.5062 -17.7696 
-35.8973 22.5062 -18.3785 -27.5006 22.5062 -19.303 -19.104 22.5062 -19.1358 
-10.7073 22.5062 -18.8793 -2.31063 22.5062 -18.0709 6.08603 22.5062 -17.1865 
14.4827 22.5062 -16.4079 48.0693 22.5062 -15.5776 -19.104 30.9029 -15.8675 
-35.8973 -28.0991 -15.3711 -27.5006 -29.1227 -15.3711 -19.104 -28.0611 -15.3711 
-2.31063 -28.2707 -15.3711 22.8794 -28.3099 -15.3711 31.276 -29.2935 -15.3711 
39.6727 -28.8648 -15.3711 48.0693 -29.1092 -15.3711 -36.5937 -27.8737 -15.3711 
-44.2939 -24.2655 -15.3711 -44.2939 -27.8737 -12.5824 -12.4054 -27.8737 -15.3711 
-9.85239 -27.8737 -15.3711 -10.7073 -27.7884 -15.3711 -10.7073 -27.8737 -15.3165 
-0.534064 -27.8737 -15.3711 6.08603 -25.3033 -15.3711 6.08603 -27.8737 -13.3024 
20.5022 -27.8737 -15.3711 14.4827 -25.8979 -15.3711 14.4827 -27.8737 -13.8107 
53.3912 -27.8737 -15.3711 56.466 -26.9121 -15.3711 56.466 -27.8737 -14.5987 
64.8627 -22.8838 -15.3711 64.8627 -27.8737 -10.0133 -49.3105 -19.4771 -15.3711 
-52.6906 -15.6829 -15.3711 -52.6906 -19.4771 -13.2367 71.4232 -19.4771 -15.3711 
73.2593 -15.7452 -15.3711 73.2593 -19.4771 -14.5724 -56.0968 -11.0804 -15.3711 
-61.0873 -11.0804 -11.9485 75.7983 -11.0804 -15.3711 81.656 -11.0804 -12.7791 
-69.4839 -2.68375 -9.26191 -58.667 -2.68375 -15.3711 -61.0873 2.78663 -15.3711 
-61.0873 -2.68375 -14.3565 79.669 -2.68375 -15.3711 81.656 -2.68375 -14.855 
-62.4061 5.71291 -15.3711 -69.4839 5.71291 -11.1883 77.3749 5.71291 -15.3711 
81.656 5.71291 -14.0617 -61.9034 14.1096 -15.3711 -69.4839 14.1096 -10.2954 
-61.0873 15.0317 -15.3711 22.8794 21.026 -15.3711 31.276 20.7148 -15.3711 
39.6727 22.0117 -15.3711 56.466 19.0911 -15.3711 64.8627 16.8183 -15.3711 
73.6108 14.1096 -15.3711 73.2593 14.492 -15.3711 81.656 14.1096 -7.17859 
-55.0057 22.5062 -15.3711 -61.0873 22.5062 -11.8169 -52.6906 24.0229 -15.3711 
-44.2939 26.807 -15.3711 -35.8973 28.9442 -15.3711 -27.5006 30.2411 -15.3711 
-10.7073 29.9145 -15.3711 -2.31063 27.6289 -15.3711 6.08603 26.2899 -15.3711 
20.5125 22.5062 -15.3711 14.4827 24.9493 -15.3711 22.8794 22.5062 -14.9181 
31.276 22.5062 -14.7326 44.4386 22.5062 -15.3711 39.6727 22.5062 -15.1058 
48.8144 22.5062 -15.3711 48.0693 22.7552 -15.3711 56.466 22.5062 -13.4865 
64.8627 22.5062 -12.9129 73.2593 22.5062 -6.98226 -44.2939 30.9029 -10.4256 
-35.8973 30.9029 -13.2809 -24.0217 30.9029 -15.3711 -27.5006 30.9029 -14.6808 
-15.0002 30.9029 -15.3711 -19.104 31.434 -15.3711 -10.7073 30.9029 -14.4655 
-2.31063 30.9029 -12.2767 6.08603 30.9029 -11.8596 14.4827 30.9029 -11.1936 
22.8794 30.9029 -8.01733 39.6727 30.9029 -7.02949 48.0693 30.9029 -7.08737 
-44.2939 -31.9723 -6.97447 -35.8973 -34.5042 -6.97447 -35.8973 -36.2704 -0.155313 
-27.5006 -34.2738 -6.97447 -19.104 -33.6253 -6.97447 -10.7073 -33.3899 -6.97447 
-2.31063 -32.9228 -6.97447 6.08603 -31.5574 -6.97447 14.4827 -31.5512 -6.97447 
22.8794 -32.9569 -6.97447 31.276 -34.1512 -6.97447 39.6727 -34.4446 -6.97447 
48.0693 -33.6959 -6.97447 56.466 -32.81 -6.97447 64.8627 -29.1808 -6.97447 
-51.4351 -27.8737 -6.97447 -52.6906 -26.8765 -6.97447 -52.6906 -27.8737 -4.91127 
68.0591 -27.8737 -6.97447 64.8627 -27.8737 -1.06768 73.2593 -25.0466 -6.97447 
-60.1123 -19.4771 -6.97447 -61.0873 -18.3867 -6.97447 -61.0873 -19.4771 -5.56099 
78.282 -19.4771 -6.97447 73.2593 -19.4771 -0.0164796 81.656 -15.3008 -6.97447 
-67.6936 -11.0804 -6.97447 -69.4839 -7.85814 -6.97447 -69.4839 -11.0804 -4.67543 
84.9202 -11.0804 -6.97447 -71.5301 -2.68375 -6.97447 86.6327 -2.68375 -6.97447 
-73.5177 5.71291 -6.97447 -77.8806 5.71291 1.09941 86.6757 5.71291 -6.97447 
-72.471 14.1096 -6.97447 -69.4839 19.5079 -6.97447 81.8144 14.1096 -6.97447 
81.656 14.3087 -6.97447 81.656 14.1096 -6.5727 -67.5184 22.5062 -6.97447 
-69.4839 22.5062 -0.850411 -61.0873 27.0623 -6.97447 -52.6906 30.6731 -6.97447 
31.276 30.5203 -6.97447 56.466 29.3495 -6.97447 64.8627 26.9467 -6.97447 
73.2663 22.5062 -6.97447 73.2593 22.5115 -6.97447 73.2593 22.5062 -6.93707 
-51.6602 30.9029 -6.97447 -44.2939 32.3257 -6.97447 -35.8973 33.623 -6.97447 
-27.5006 34.3633 -6.97447 -19.104 34.9071 -6.97447 -10.7073 34.5378 -6.97447 
-2.31063 33.6192 -6.97447 6.08603 33.8451 -6.97447 14.4827 33.4221 -6.97447 
28.681 30.9029 -6.97447 22.8794 31.6613 -6.97447 38.7849 30.9029 -6.97447 
31.276 30.9029 -5.96094 39.6727 30.9456 -6.97447 48.5098 30.9029 -6.97447 
48.0693 30.9727 -6.97447 56.466 30.9029 -1.73216 -35.8973 -36.628 1.4222 
-52.6906 -30.1673 1.4222 -37.1821 -36.2704 1.4222 -44.2939 -34.2911 1.4222 
-28.1448 -36.2704 1.4222 -35.8973 -36.2704 9.40646 -27.5006 -36.2418 1.4222 
-19.104 -35.1828 1.4222 -10.7073 -33.9344 1.4222 -2.31063 -32.821 1.4222 
6.08603 -31.8486 1.4222 14.4827 -31.5449 1.4222 22.8794 -31.9466 1.4222 
31.276 -32.2106 1.4222 39.6727 -32.3341 1.4222 48.0693 -31.4303 1.4222 
56.466 -29.5825 1.4222 -56.0337 -27.8737 1.4222 -61.0873 -23.7533 1.4222 
6.08603 -27.8737 8.87263 14.4827 -27.8737 7.97261 22.8794 -27.8737 6.92156 
31.276 -27.8737 7.03752 39.6727 -27.8737 6.18446 48.0693 -27.8737 4.90766 
62.444 -27.8737 1.4222 56.466 -27.8737 3.89647 64.8627 -26.948 1.4222 
-64.9563 -19.4771 1.4222 -69.4839 -14.8965 1.4222 56.466 -19.4771 8.86531 
71.8904 -19.4771 1.4222 64.8627 -19.4771 5.73674 73.2593 -18.1715 1.4222 
81.656 -14.6057 1.4222 -72.5925 -11.0804 1.4222 64.8627 -11.0804 9.46523 
84.3826 -11.0804 1.4222 81.656 -11.0804 4.28677 -75.695 -2.68375 1.4222 
-77.8806 5.21131 1.4222 73.2593 -2.68375 8.20357 82.0422 -2.68375 1.4222 
81.656 -2.68375 2.18821 -77.9952 5.71291 1.4222 -77.8806 6.65664 1.4222 
-77.8806 5.71291 2.95016 73.2593 5.71291 8.20847 82.2536 5.71291 1.4222 
81.656 6.74704 1.4222 81.656 5.71291 2.6282 -76.888 14.1096 1.4222 
78.505 14.1096 1.4222 73.2593 20.9335 1.4222 73.2593 14.1096 6.17625 
-70.1334 22.5062 1.4222 -69.4839 23.0781 1.4222 -69.4839 22.5062 2.82058 
-61.0873 27.9761 1.4222 -52.6906 30.2545 1.4222 71.5044 22.5062 1.4222 
64.8627 26.8729 1.4222 -49.5909 30.9029 1.4222 -44.2939 31.9549 1.4222 
-44.2939 30.9029 4.27904 -35.8973 31.9442 1.4222 -35.8973 30.9029 3.57239 
-27.5006 32.4898 1.4222 -27.5006 30.9029 4.40391 -19.104 33.6671 1.4222 
-19.104 30.9029 6.35927 -10.7073 33.6267 1.4222 -2.31063 32.9407 1.4222 
-2.31063 30.9029 7.70522 6.08603 33.5914 1.4222 14.4827 34.067 1.4222 
22.8794 33.4504 1.4222 31.276 33.2123 1.4222 31.276 30.9029 9.34928 
39.6727 33.7768 1.4222 39.6727 30.9029 8.38931 48.0693 31.9869 1.4222 
48.0693 30.9029 3.98348 58.0041 30.9029 1.4222 56.466 31.5626 1.4222 
56.466 30.9029 2.84023 -52.6906 -30.298 9.81886 -44.2939 -34.1457 9.81886 
-35.8973 -36.2514 9.81886 -27.5006 -35.7528 9.81886 -19.104 -33.6784 9.81886 
-10.7073 -30.57 9.81886 -2.31063 -28.1382 9.81886 -56.4491 -27.8737 9.81886 
-61.0873 -24.3466 9.81886 -52.6906 -27.8737 15.8351 -19.104 -27.8737 17.3123 
-10.7073 -27.8737 13.1043 0.188616 -27.8737 9.81886 -2.31063 -27.8737 10.1063 
6.08603 -27.0754 9.81886 14.4827 -26.1072 9.81886 22.8794 -23.8369 9.81886 
31.276 -23.0622 9.81886 39.6727 -20.9433 9.81886 48.0693 -21.3127 9.81886 
-65.6977 -19.4771 9.81886 -69.4839 -15.4351 9.81886 -10.7073 -19.4771 17.8485 
-2.31063 -19.4771 17.1133 6.08603 -19.4771 14.8169 14.4827 -19.4771 13.8384 
22.8794 -19.4771 12.0178 31.276 -19.4771 11.4772 39.6727 -19.4771 10.4831 
52.3768 -19.4771 9.81886 48.0693 -19.4771 11.1058 56.466 -17.5246 9.81886 
73.2593 -14.7893 9.81886 -72.8092 -11.0804 9.81886 -69.4839 -11.0804 17.5569 
-10.7073 -11.0804 18.0339 6.08603 -11.0804 16.309 14.4827 -11.0804 16.9884 
22.8794 -11.0804 12.6847 31.276 -11.0804 12.5164 39.6727 -11.0804 12.9481 
48.0693 -11.0804 12.1604 64.177 -11.0804 9.81886 56.466 -11.0804 13.7958 
[...]
POINT_DATA 566
SCALARS ImageScalars float
LOOKUP_TABLE default
0 0 0 0 0 0 0 0 0 
0 0 0 0 0 0 0 0 0 
0 0 0 0 0 0 0 0 0 
0 0 0 0 0 0 0 0 0 
0 0 0 0 0 0 0 0 0 
0 0 0 0 0 0 0 0 0 
0 0 0 0 0 0 0 0 0 
0 0 0 0 0 0 0 0 0 
0 0 0 0 0 0 0 0 0 
0 0 0 0 0 0 0 0 0 
0 0 0 0 0 0 0 0 0 
0 0 0 0 0 0 0 0 0 
0 0 0 0 0 0 0 0 0 
0 0 0 0 0 0 0 0 0 
0 0 0 0 0 0 0 0 0 
0 0 0 0 0 0 0 0 0 
0 0 0 0 0 0 0 0 0 
0 0 0 0 0 0 0 0 0 
0 0 0 0 0 0 0 0 0 
0 0 0 0 0 0 0 0 0 
0 0 0 0 0 0 0 0 0 
0 0 0 0 0 0 0 0 0 
0 0 0 0 0 0 0 0 0 
0 0 0 0 0 0 0 0 0 
0 0 0 0 0 0 0 0 0 
0 0 0 0 0 0 0 0 0 
0 0 0 0 0 0 0 0 0 
0 0 0 0 0 0 0 0 0 
0 0 0 0 0 0 0 0 0 
0 0 0 0 0 0 0 0 0 
0 0 0 0 0 0 0 0 0 
0 0 0 0 0 0 0 0 0 
0 0 0 0 0 0 0 0 0 
0 0 0 0 0 0 0 0 0 
0 0 0 0 0 0 0 0 0 
0 0 0 0 0 0 0 0 0 
0 0 0 0 0 0 0 0 0 
0 0 0 0 0 0 0 0 0 
0 0 0 0 0 0 0 0 0 
0 0 0 0 0 0 0 0 0 
0 0 0 0 0 0 0 0 0 
0 0 0 0 0 0 0 0 0 
0 0 0 0 0 0 0 0 0 
0 0 0 0 0 0 0 0 0 
0 0 0 0 0 0 0 0 0 
0 0 0 0 0 0 0 0 0 
0 0 0 0 0 0 0 0 0 
0 0 0 0 0 0 0 0 0 
0 0 0 0 0 0 0 0 0 
0 0 0 0 0 0 0 0 0 
0 0 0 0 0 0 0 0 0 
0 0 0 0 0 0 0 0 0 
0 0 0 0 0 0 0 0 0 
0 0 0 0 0 0 0 0 0 
0 0 0 0 0 0 0 0 0 
0 0 0 0 0 0 0 0 0 
0 0 0 0 0 0 0 0 0 
0 0 0 0 0 0 0 0 0 
0 0 0 0 0 0 0 0 0 
0 0 0 0 0 0 0 0 0 
0 0 0 0 0 0 0 0 0 
0 0 0 0 0 0 0 0 0 
0 0 0 0 0 0 0 0 
NORMALS Normals float
0.173866 0.619212 0.765733 -0.00525409 0.583486 0.812106 -0.0645976 0.614404 0.786342 
-0.0698489 0.662579 0.745728 0.117576 0.602314 0.789553 0.0234499 0.543698 0.838953 
-0.00404446 0.523486 0.852025 -0.0717721 0.573716 0.815903 0.316888 0.327549 0.890109 
0.0677381 0.257234 0.963972 -0.0489688 0.204617 0.977617 -0.0378524 0.175816 0.983695 
0.0614276 0.186766 0.980482 -0.0428616 0.271657 0.961439 -0.096747 0.238812 0.966235 
0.0436361 0.235972 0.97078 0.0796684 0.123939 0.989086 0.0261413 0.135799 0.990391 
-0.000407552 0.172145 0.985072 0.0959241 0.299285 0.94933 -0.0888621 0.23656 0.967545 
-0.3413 0.471593 0.81309 0.385881 0.211462 0.897986 0.216572 0.0725632 0.973566 
0.0497992 0.0388596 0.998003 -0.0938723 0.0143736 0.99548 -0.0756409 0.0273767 0.996759 
0.111214 0.17153 0.978882 -0.0289544 0.0658965 0.997406 -0.118413 0.0595817 0.991175 
-0.0250323 0.0847591 0.996087 -0.0015078 -0.126533 0.991961 0.0887363 -0.0822488 0.992654 
0.147501 0.0367968 0.988377 0.0205996 0.107443 0.993998 0.0085869 -0.0190667 0.999781 
-0.190973 0.312059 0.930671 -0.383334 0.104235 0.917709 0.278736 0.0729818 0.957591 
0.139439 0.021172 0.990004 0.00980937 -0.0401362 0.999146 -0.0640341 -0.0425784 0.997039 
0.106969 -0.00648219 0.994241 0.148359 0.180035 0.972408 -0.185155 -0.0267259 0.982346 
-0.0551478 0.0657268 0.996313 -0.174865 0.0964337 0.979859 -0.0645078 -0.0796227 0.994736 
0.179422 -0.0699391 0.981283 0.195738 -0.0334224 0.980087 0.044019 -0.0355393 0.998398 
0.0525364 -0.012082 0.998546 -0.191995 0.0264864 0.981039 -0.342044 0.0176253 0.939519 
0.358917 0.0819278 0.929767 0.219397 0.0231485 0.975361 0.0959343 0.0139492 0.99529 
-0.0208427 0.00534335 0.999768 -0.0647976 0.00867211 0.997861 0.11437 0.013663 0.993344 
0.111426 -0.177009 0.977881 -0.122646 -0.0905696 0.988309 -0.00911151 -0.0329919 0.999414 
-0.217449 -0.0735376 0.973298 -0.100055 0.0303683 0.994518 0.145334 -0.0426831 0.988462 
0.180532 -0.0503606 0.982279 0.0410356 -0.192879 0.980364 0.0528322 -0.156083 0.98633 
-0.167642 -0.36008 0.917736 -0.339092 -0.0729185 0.937923 0.365642 -0.203314 0.908278 
0.221327 -0.119685 0.967827 0.117291 -0.104154 0.987621 0.007986 -0.0995915 0.994996 
-0.0562299 -0.00973712 0.99837 -0.0204831 0.00524898 0.999776 0.00479327 -0.152818 0.988243 
-0.049228 -0.131485 0.990095 -0.0380742 -0.142716 0.989031 -0.0884099 -0.211977 0.973267 
-0.0825307 -0.0959733 0.991957 0.0914256 -0.152227 0.984108 0.0489048 -0.224341 0.973283 
-0.0603513 -0.254899 0.965083 -0.0871774 -0.323532 0.942193 -0.154645 -0.466358 0.870974 
-0.355993 -0.333835 0.872825 0.283941 -0.422715 0.860633 0.120953 -0.39529 0.910558 
0.0816047 -0.315379 0.945451 0.0436627 -0.260139 0.964584 -0.0245827 -0.191654 0.981155 
-0.0598122 -0.240394 0.968831 -0.0970463 -0.312338 0.945001 -0.0923598 -0.304348 0.948073 
-0.123241 -0.337966 0.933055 -0.0903294 -0.522237 0.848003 -0.00826301 -0.659927 0.751284 
0.17408 0.627426 0.758968 -0.0044169 0.643939 0.765064 -0.0640224 0.624643 0.778282 
-0.073092 0.681284 0.728361 0.12 0.62961 0.767588 0.0300303 0.619151 0.784698 
-0.00738183 0.562033 0.827082 -0.0756885 0.63983 0.76478 0.187752 0.622338 0.759898 
0.330526 0.511934 0.792891 0.34182 0.672805 0.656119 -0.00424519 0.600932 0.799289 
0.00253404 0.604081 0.796919 0.0112693 0.592287 0.805648 0.0105867 0.598657 0.800935 
-0.0716473 0.670157 0.738753 -0.0830942 0.551958 0.829721 -0.0770636 0.754472 0.651792 
0.1131 0.618836 0.777335 0.0875906 0.548272 0.831701 0.0996961 0.717066 0.689839 
-0.146429 0.613382 0.776094 -0.18652 0.597985 0.779502 -0.200104 0.663652 0.72078 
-0.33568 0.538672 0.772756 -0.448657 0.834141 0.320805 0.424199 0.397221 0.8138 
0.448345 0.327498 0.831704 0.503753 0.443793 0.741135 -0.419674 0.424149 0.802478 
-0.428413 0.278766 0.859507 -0.48465 0.453857 0.747749 0.462976 0.247296 0.851174 
0.559856 0.349856 0.751107 -0.451222 0.189929 0.871967 -0.702191 0.489998 0.516555 
0.682661 0.249882 0.686683 0.390142 0.159179 0.906891 0.38262 0.124318 0.915504 
0.439654 0.20329 0.874859 -0.611468 0.0198225 0.791021 -0.739259 0.0293174 0.672783 
0.395164 0.0828442 0.914867 0.643474 0.0584576 0.763232 -0.505136 -0.181611 0.843715 
-0.721538 -0.341155 0.602492 0.387888 -0.206176 0.898351 0.686965 -0.229552 0.689482 
0.373652 -0.230086 0.898579 -0.0926278 -0.364715 0.9265 0.0276994 -0.40848 0.912347 
0.042295 -0.518158 0.854239 -0.118138 -0.439017 0.890678 -0.15602 -0.487057 0.859321 
-0.37151 -0.346712 0.861262 -0.366406 -0.355598 0.859823 -0.733095 -0.657094 0.175496 
0.332643 -0.438303 0.835009 0.469529 -0.545747 0.694048 0.293086 -0.498119 0.816075 
0.183783 -0.585172 0.789808 0.107314 -0.635202 0.764854 0.0824804 -0.664318 0.742885 
-0.125568 -0.636413 0.761059 -0.105333 -0.554167 0.825714 -0.0742203 -0.464328 0.882548 
-0.103579 -0.396645 0.91211 -0.143705 -0.428479 0.892051 -0.0959543 -0.427942 0.898698 
0.00775685 -0.486941 0.8734 -0.0308449 -0.530764 0.846958 0.0402717 -0.538128 0.8419 
-0.0956042 -0.524367 0.846108 -0.0895943 -0.534618 0.840331 -0.129452 -0.565247 0.814701 
-0.242175 -0.632678 0.735574 -0.608184 -0.757128 0.238474 0.208231 -0.898069 0.387443 
0.119153 -0.820645 0.558877 0.046752 -0.68572 0.726362 0.086718 -0.730596 0.677281 
-0.0713964 -0.679216 0.730458 -0.00944441 -0.692688 0.721176 -0.12865 -0.728846 0.672482 
-0.0877752 -0.828048 0.553744 -0.0394589 -0.801671 0.596461 -0.168585 -0.795103 0.582572 
-0.17561 -0.843335 0.507885 0.0242343 -0.847347 0.530486 -0.0792269 -0.91836 0.387733 
0.358513 0.837112 0.413172 0.119982 0.908783 0.399647 0.115765 0.982695 0.144597 
-0.0489008 0.930723 0.36244 -0.050984 0.936512 0.346909 -0.0411999 0.960975 0.273551 
-0.107506 0.970594 0.215382 -0.0820217 0.960214 0.266948 0.0852133 0.97301 0.214451 
0.156643 0.975495 0.15451 0.0933073 0.990176 0.104139 -0.0251568 0.995525 0.0910905 
-0.115575 0.985717 0.122489 -0.246866 0.965831 0.0789143 -0.444485 0.891497 0.0875512 
0.529117 0.729048 0.434194 0.558806 0.697269 0.448945 0.554578 0.750227 0.360004 
-0.494683 0.860165 0.124115 -0.379596 0.862607 -0.334389 -0.599309 0.793607 0.104962 
0.632915 0.566265 0.527979 0.634432 0.556686 0.536281 0.658516 0.586032 0.472148 
-0.7508 0.652814 0.100665 -0.603405 0.663461 -0.442405 -0.805662 0.558957 0.196152 
0.671138 0.447509 0.591023 0.717621 0.371858 0.588848 0.727184 0.473606 0.496891 
-0.866685 0.459945 0.193152 0.768946 0.265855 0.581415 -0.986684 0.0879122 0.136842 
0.772782 0.0629748 0.631539 0.984923 0.0578079 0.163046 -0.954509 -0.237444 0.180369 
0.774292 -0.246528 0.582834 0.73951 -0.43919 0.510135 -0.736115 -0.656312 0.1655 
-0.733805 -0.658468 0.167181 -0.742601 -0.653622 0.146021 0.665486 -0.585683 0.462714 
0.693536 -0.71711 0.0690058 0.434845 -0.822796 0.365946 0.282384 -0.923259 0.260485 
-0.0410944 -0.866417 0.497627 -0.215225 -0.884418 0.414105 -0.355835 -0.871477 0.337505 
-0.608382 -0.757057 0.238191 -0.608144 -0.757242 0.238214 -0.60864 -0.757343 0.236618 
0.266395 -0.931675 0.247012 0.170047 -0.970195 0.172641 0.121688 -0.988027 0.0948445 
0.0769994 -0.993188 0.0874534 0.0095219 -0.994691 0.102463 -0.0768093 -0.986767 0.142798 
-0.043228 -0.982056 0.183571 -0.0110538 -0.968248 0.249748 -0.130682 -0.939185 0.317575 
-0.0810941 -0.872652 0.481562 -0.16656 -0.875552 0.453504 0.017118 -0.851141 0.524659 
-0.0348094 -0.900591 0.433271 0.0238425 -0.848654 0.528411 -0.0885184 -0.919623 0.382699 
-0.0809258 -0.920442 0.38241 -0.254671 -0.965753 0.0496363 0.114859 0.989247 0.090542 
0.524857 0.837583 0.15159 0.148037 0.984707 0.0918517 0.330472 0.937569 0.108407 
-0.0693779 0.99421 0.0820532 0.0957941 0.970247 -0.222362 -0.0839508 0.993154 0.0812292 
-0.135723 0.99068 0.0115166 -0.139459 0.981378 -0.13209 -0.124262 0.964924 -0.231258 
-0.0747777 0.976555 -0.201864 0.00430467 0.971875 -0.235458 0.0394183 0.927585 -0.371527 
0.0225233 0.90288 -0.429302 -0.0337812 0.861658 -0.506364 -0.140362 0.83562 -0.531073 
-0.220811 0.831903 -0.509096 0.578318 0.798417 0.167568 0.681528 0.70074 0.210911 
-0.0766305 0.772719 -0.630105 -0.075677 0.783134 -0.61723 -0.0310843 0.72391 -0.689193 
-0.0391204 0.640127 -0.767272 -0.0981003 0.663266 -0.741926 -0.100591 0.698827 -0.708183 
-0.285865 0.804556 -0.520549 -0.197679 0.733208 -0.650638 -0.347264 0.767762 -0.538469 
0.702988 0.674975 0.22409 0.747792 0.620887 0.235172 -0.279405 0.38332 -0.88034 
-0.559189 0.598081 -0.574114 -0.323285 0.424722 -0.845634 -0.535366 0.654608 -0.533734 
-0.694006 0.487185 -0.5301 0.848713 0.470723 0.241052 -0.0787533 0.425481 -0.901534 
-0.801794 0.298081 -0.517952 -0.761318 0.340689 -0.551658 0.917138 0.312096 0.247899 
0.98584 0.0713774 0.151736 -0.321663 -0.148843 -0.935082 -0.86617 -0.117964 -0.485627 
-0.869162 -0.101667 -0.483965 0.987739 0.0552734 0.145999 0.989731 0.0128984 0.142362 
0.995884 0.042461 0.0800742 -0.316594 -0.101057 -0.943163 -0.861014 -0.178349 -0.476284 
-0.865333 -0.207354 -0.456292 -0.862238 -0.178614 -0.473965 0.938495 -0.327307 0.109989 
-0.761273 -0.509439 -0.401166 -0.651855 -0.717693 -0.244953 -0.514658 -0.304581 -0.801472 
0.66487 -0.74536 -0.0488466 0.652917 -0.754762 -0.0635012 0.645826 -0.756531 -0.10281 
0.345535 -0.935571 -0.0728853 0.246302 -0.945093 -0.214791 -0.637349 -0.748583 -0.182785 
-0.504443 -0.844059 -0.18194 0.196996 -0.956754 -0.214043 0.0964693 -0.974511 -0.202539 
0.0853256 -0.943854 -0.319154 0.0284807 -0.94214 -0.334007 0.00799043 -0.92407 -0.382139 
0.101357 -0.92597 -0.36374 0.086545 -0.891075 -0.445528 0.0620304 -0.944074 -0.323846 
0.125965 -0.870491 -0.475793 -0.0425027 -0.978436 -0.202129 -0.00173992 -0.981285 -0.192554 
-0.00143793 -0.918941 -0.394391 0.0667409 -0.984591 -0.161637 -0.00857645 -0.997363 -0.0720627 
-0.0509506 -0.998701 -0.00022316 0.0182275 -0.999806 0.00747117 -0.0796632 -0.844093 -0.530246 
-0.0716075 -0.996982 -0.0299741 -0.135401 -0.824208 -0.549861 -0.133828 -0.981823 -0.134585 
-0.152945 -0.951887 -0.265555 -0.287618 -0.946784 -0.144487 -0.250881 -0.958391 -0.136183 
-0.258079 -0.937568 -0.233154 0.500052 0.851735 -0.156508 0.303977 0.934987 -0.18275 
0.0944963 0.966659 -0.237994 -0.132976 0.952428 -0.274223 -0.281563 0.892822 -0.351557 
-0.288351 0.798137 -0.52899 -0.16362 0.742559 -0.649488 0.562264 0.816353 -0.132013 
0.660565 0.741438 -0.117997 0.435536 0.792611 -0.426704 -0.321601 0.497836 -0.805439 
-0.312767 0.663294 -0.679866 -0.138166 0.738547 -0.659893 -0.165391 0.734304 -0.658364 
-0.0800956 0.710868 -0.69875 -0.107377 0.652384 -0.750243 -0.0988881 0.46876 -0.877773 
-0.0808756 0.404552 -0.910932 -0.0383274 0.407321 -0.91248 -0.083723 0.451221 -0.888476 
0.705064 0.698714 -0.121177 0.762702 0.630554 -0.14383 -0.166326 0.20811 -0.96386 
-0.173529 0.581943 -0.7945 -0.165446 0.351739 -0.921362 -0.157496 0.391229 -0.906716 
-0.131884 0.272511 -0.953071 -0.0912734 0.286026 -0.953865 -0.0217338 0.360151 -0.932641 
-0.205101 0.379757 -0.902063 -0.0937173 0.376194 -0.921789 -0.261008 0.34573 -0.901302 
-0.375738 0.408097 -0.832032 0.866933 0.471196 -0.162486 0.725492 0.422141 -0.543561 
0.0740818 0.0765814 -0.994307 -0.278701 0.137507 -0.950483 -0.240073 0.366496 -0.898914 
-0.224118 0.0758015 -0.97161 0.0191886 0.121937 -0.992352 -0.0184638 0.164511 -0.986202 
0.0268803 0.15699 -0.987234 -0.0737452 0.415101 -0.906781 -0.119858 0.207821 -0.970796 
-0.0875063 0.38616 -0.918272 -0.09316 0.403225 -0.910347 -0.472265 0.205167 -0.857247 
-0.258472 -0.109693 -0.959771 -0.191246 -0.00164467 -0.981541 0.94799 0.257647 -0.186901 
-0.110525 0.162941 -0.980426 -0.254992 0.0562402 -0.965306 0.00813629 0.0740089 -0.997224 
0.0135033 0.10043 -0.994853 -0.0321401 0.208389 -0.977518 -0.0584775 0.0249555 -0.997977 
-0.294694 -0.0702256 -0.953008 -0.309144 0.177858 -0.934236 0.972058 -0.0270668 -0.233177 
-0.355839 -0.11834 -0.927024 -0.17144 0.174096 -0.96969 0.0598833 0.0784372 -0.995119 
0.120117 0.0849376 -0.98912 -0.0247754 0.0293635 -0.999262 -0.171574 -0.026665 -0.98481 
-0.311244 -0.0751477 -0.947354 -0.375568 -0.0716994 -0.924017 0.817256 -0.470754 -0.332392 
0.583209 -0.726117 -0.364171 -0.193321 0.172095 -0.965925 -0.0654642 0.078811 -0.994738 
-0.0391694 0.0464135 -0.998154 -0.142984 -0.188802 -0.97155 -0.145473 -0.137835 -0.979714 
-0.396004 -0.0848704 -0.914318 -0.392581 -0.138825 -0.90918 0.475601 -0.76759 -0.429662 
0.330042 -0.821161 -0.465582 0.312243 -0.713967 -0.626701 0.118585 -0.884125 -0.451952 
0.0908317 -0.719029 -0.689019 0.031189 -0.82933 -0.557888 -0.0293646 -0.758157 -0.651411 
-0.024959 -0.84174 -0.539307 -0.0304454 -0.722682 -0.69051 0.0787186 -0.79212 -0.605268 
0.0583042 -0.710166 -0.701616 0.171707 -0.800337 -0.574436 0.154627 -0.597232 -0.787023 
-0.0035946 -0.876008 -0.482283 -0.006249 -0.442072 -0.896958 -0.186693 -0.207276 -0.960303 
-0.0866152 -0.815869 -0.571713 -0.0835206 -0.249373 -0.964799 -0.147923 -0.725196 -0.672466 
-0.145704 -0.280358 -0.948773 -0.216718 -0.610219 -0.762015 -0.198285 -0.351834 -0.91482 
-0.126589 -0.526077 -0.840962 -0.110318 -0.410278 -0.905263 -0.363364 -0.474551 -0.801728 
-0.263307 -0.555585 -0.788667 -0.264811 -0.488651 -0.831322 0.0683523 -0.897112 -0.436485 
0.0636454 -0.897998 -0.435372 0.0664766 -0.898444 -0.434027 0.0667112 -0.897346 -0.436257 
0.104303 -0.882571 -0.458464 0.105056 -0.882515 -0.458399 0.105065 -0.882359 -0.458697 
0.0426685 -0.909698 -0.413072 0.0347791 -0.863176 -0.503704 -0.0837088 -0.832441 -0.547755 
-0.0760269 -0.88111 -0.46676 -0.0882336 -0.841913 -0.532351 0.225275 0.746955 -0.625547 
-0.00761625 0.710573 -0.703582 -0.182063 0.619668 -0.763456 0.603477 0.593379 -0.53265 
0.347299 0.739347 -0.576844 0.393579 0.731578 -0.556676 0.190031 0.633943 -0.74967 
-0.0406345 0.542901 -0.838813 -0.284712 0.485449 -0.826606 -0.202109 0.515962 -0.832428 
-0.314052 0.393981 -0.8638 0.611425 0.583827 -0.53414 0.594232 0.573797 -0.5636 
0.299707 0.444574 -0.844115 0.0386433 0.347749 -0.936791 -0.1157 0.271081 -0.955577 
-0.25134 0.257126 -0.933121 -0.185293 0.198161 -0.962496 -0.301265 0.181812 -0.936047 
-0.166413 0.539746 -0.825216 0.706638 0.410779 -0.576129 0.717538 0.377174 -0.585558 
0.422046 0.343734 -0.838883 -0.165527 0.155048 -0.973941 -0.309174 0.0841035 -0.947279 
0.0444155 0.0786598 -0.995912 -0.324257 0.0968639 -0.940997 0.0686823 0.0870691 -0.993832 
0.0626963 0.112234 -0.991702 -0.243954 0.193435 -0.9503 -0.116368 0.259151 -0.958801 
-0.248156 0.316775 -0.915463 0.756686 0.145973 -0.637275 0.686183 0.0927852 -0.721488 
-0.307329 0.0226569 -0.951334 -0.307555 0.124036 -0.943411 0.00594291 0.244679 -0.969586 
-0.102725 0.111428 -0.988449 -0.122596 -0.0863534 -0.988693 -0.13946 0.134716 -0.981021 
-0.139925 0.155383 -0.977894 -0.338654 0.0703032 -0.938281 -0.343534 -0.113329 -0.932277 
-0.210923 0.0483035 -0.976309 0.643323 -0.0725198 -0.762153 0.54838 -0.114101 -0.828409 
0.354987 -0.191025 -0.915147 0.100732 -0.268504 -0.957997 -0.12406 -0.202492 -0.971394 
-0.195023 -0.158617 -0.967888 -0.166419 -0.0209135 -0.985833 -0.118886 0.0852796 -0.989239 
-0.192307 -0.15629 -0.968809 -0.282383 -0.0220704 -0.959048 -0.15913 0.14354 -0.976767 
-0.27231 -0.0334083 -0.96163 0.491073 -0.426562 -0.759534 0.47377 -0.441553 -0.761953 
0.475946 -0.425038 -0.769947 0.252349 -0.640186 -0.725591 0.276624 -0.55615 -0.783695 
0.102806 -0.65548 -0.748182 0.0719189 -0.511346 -0.85636 -0.0252798 -0.70794 -0.70582 
0.002976 -0.496089 -0.868266 -0.0469067 -0.652938 -0.755957 -0.0872714 -0.512967 -0.853961 
0.0063452 -0.628135 -0.778078 -0.0760585 -0.46334 -0.882911 0.113371 -0.534597 -0.837468 
-0.0435633 -0.310611 -0.949538 -0.114376 -0.189481 -0.9752 -0.0351286 -0.324505 -0.945231 
-0.0815299 -0.193488 -0.977709 -0.0599889 -0.0252315 -0.99788 -0.217682 0.0444482 -0.975007 
-0.21894 0.0271912 -0.975359 0.0303626 -0.486474 -0.873168 -0.00620776 -0.445908 -0.895057 
-0.00382151 -0.468979 -0.883201 -0.00733938 -0.452045 -0.891965 0.0511761 -0.397207 -0.916301 
0.0634537 -0.4052 -0.912023 0.0610818 -0.391489 -0.918153 -0.0997438 -0.230241 -0.968008 
-0.0851127 -0.258389 -0.962284 -0.0890303 -0.236337 -0.967584 0.145329 0.266097 -0.952928 
-0.00957319 0.216539 -0.976227 0.166331 0.26434 -0.949978 0.362746 0.0299455 -0.931407 
0.135878 0.255173 -0.9573 -0.109794 0.151456 -0.982347 -0.0343911 0.148153 -0.988366 
-0.177028 0.0773499 -0.981162 0.364327 0.017326 -0.93111 0.360725 0.00756148 -0.932641 
0.360191 0.0169102 -0.932725 0.100149 -0.262532 -0.959712 0.0977937 -0.0197365 -0.995011 
-0.0631662 -0.0112641 -0.997939 -0.20928 0.00590952 -0.977838 -0.153914 -0.10655 -0.982323 
-0.184889 -0.000149018 -0.982759 0.0898033 -0.266409 -0.959667 -0.0720959 -0.222371 -0.972293 
-0.0153433 -0.26793 -0.963316 -0.0187245 -0.244087 -0.969573 
