# vtk DataFile Version 4.2
vtk output
ASCII
DATASET POLYDATA
POINTS 540 float
-38.7973 -25.9407 -16.7315 -30.9019 -25.9407 -16.5458 -23.0065 -25.9407 -15.5569 
16.4704 -25.9407 -14.9736 24.3658 -25.9407 -16.1723 32.2612 -25.9407 -16.9222 
40.1566 -25.9407 -15.5459 -46.6927 -18.0454 -18.2424 -38.7973 -18.0454 -19.8352 
-30.9019 -18.0454 -19.5295 -23.0065 -18.0454 -18.8302 -15.1112 -18.0454 -17.0929 
-7.21575 -18.0454 -16.753 0.679641 -18.0454 -18.3492 8.57504 -18.0454 -17.7911 
16.4704 -18.0454 -17.555 24.3658 -18.0454 -18.6295 32.2612 -18.0454 -19.5441 
40.1566 -18.0454 -18.9936 48.052 -18.0454 -17.976 -54.5881 -10.15 -16.5855 
-46.6927 -10.15 -20.977 -38.7973 -10.15 -21.2745 -30.9019 -10.15 -20.6552 
-23.0065 -10.15 -19.861 -15.1112 -10.15 -18.9813 -7.21575 -10.15 -19.71 
0.679641 -10.15 -19.4601 8.57504 -10.15 -21.3346 16.4704 -10.15 -19.5534 
24.3658 -10.15 -19.4715 32.2612 -10.15 -20.3838 40.1566 -10.15 -20.6174 
48.052 -10.15 -20.0282 55.9474 -10.15 -17.1506 -54.5881 -2.25456 -17.3416 
-46.6927 -2.25456 -20.0888 -38.7973 -2.25456 -21.5668 -30.9019 -2.25456 -20.6357 
-23.0065 -2.25456 -19.0899 -15.1112 -2.25456 -19.5949 -7.21575 -2.25456 -22.0052 
0.679641 -2.25456 -17.4108 8.57504 -2.25456 -22.1863 16.4704 -2.25456 -19.5818 
24.3658 -2.25456 -19.7802 32.2612 -2.25456 -21.0863 40.1566 -2.25456 -21.9444 
48.052 -2.25456 -21.1045 55.9474 -2.25456 -18.9662 -54.5881 5.64084 -16.7075 
-46.6927 5.64084 -19.8349 -38.7973 5.64084 -21.4717 -30.9019 5.64084 -20.6906 
-23.0065 5.64084 -19.6841 -15.1112 5.64084 -18.6645 -7.21575 5.64084 -21.3913 
0.679641 5.64084 -19.965 8.57504 5.64084 -20.7303 16.4704 5.64084 -18.9665 
24.3658 5.64084 -20.0604 32.2612 5.64084 -21.3378 40.1566 5.64084 -22.4444 
48.052 5.64084 -21.4098 55.9474 5.64084 -19.8173 -54.5881 13.5362 -15.2503 
-46.6927 13.5362 -20.1353 -38.7973 13.5362 -21.2741 -30.9019 13.5362 -21.3403 
-23.0065 13.5362 -20.3662 -15.1112 13.5362 -19.4832 -7.21575 13.5362 -19.6983 
0.679641 13.5362 -19.8398 8.57504 13.5362 -19.8367 16.4704 13.5362 -19.9792 
24.3658 13.5362 -20.6228 32.2612 13.5362 -21.0792 40.1566 13.5362 -21.357 
48.052 13.5362 -20.7734 55.9474 13.5362 -17.7837 -46.6927 21.4316 -18.2025 
-38.7973 21.4316 -20.3282 -30.9019 21.4316 -20.9996 -23.0065 21.4316 -21.1378 
-15.1112 21.4316 -20.477 -7.21575 21.4316 -20.3123 0.679641 21.4316 -19.8878 
8.57504 21.4316 -19.6603 16.4704 21.4316 -20.042 24.3658 21.4316 -20.3499 
32.2612 21.4316 -20.1313 40.1566 21.4316 -18.7523 48.052 21.4316 -17.1075 
-38.7973 29.327 -17.3597 -30.9019 29.327 -19.1637 -23.0065 29.327 -20.1719 
-15.1112 29.327 -20.0108 -7.21575 29.327 -20.1409 0.679641 29.327 -19.3017 
8.57504 29.327 -18.0024 16.4704 29.327 -17.615 24.3658 29.327 -16.7078 
-23.0065 37.2224 -15.236 -15.1112 37.2224 -16.3052 -7.21575 37.2224 -16.3589 
-38.7973 -27.9426 -14.887 -30.9019 -28.2183 -14.887 -23.0065 -26.7859 -14.887 
-23.0065 -33.8361 -7.44545 8.57504 -33.8361 -7.6274 16.4704 -26.0954 -14.887 
16.4704 -33.8361 -9.36869 24.3658 -28.3842 -14.887 24.3658 -33.8361 -11.1395 
32.2612 -29.509 -14.887 32.2612 -33.8361 -11.3141 40.1566 -26.9399 -14.887 
40.1566 -33.8361 -8.90179 -44.3096 -25.9407 -14.887 -46.6927 -24.4657 -14.887 
-46.6927 -25.9407 -13.7206 -20.2271 -25.9407 -14.887 -15.1112 -23.2805 -14.887 
-15.1112 -25.9407 -13.6412 -7.21575 -22.9707 -14.887 -7.21575 -25.9407 -13.5772 
0.679641 -24.6275 -14.887 0.679641 -25.9407 -14.0747 15.835 -25.9407 -14.887 
8.57504 -23.9396 -14.887 8.57504 -25.9407 -13.8595 42.0785 -25.9407 -14.887 
48.052 -23.1713 -14.887 48.052 -25.9407 -11.9934 -53.0871 -18.0454 -14.887 
-54.5881 -15.6883 -14.887 -54.5881 -18.0454 -13.6921 53.5355 -18.0454 -14.887 
55.9474 -14.8671 -14.887 55.9474 -18.0454 -12.2614 -56.6856 -10.15 -14.887 
59.8859 -10.15 -14.887 63.8428 -10.15 -8.35275 -57.636 -2.25456 -14.887 
-62.4835 -2.25456 -7.0019 62.2138 -2.25456 -14.887 63.8428 -2.25456 -13.2325 
-56.7396 5.64084 -14.887 63.6658 5.64084 -14.887 63.8428 5.64084 -14.6547 
-55.0279 13.5362 -14.887 -54.5881 14.3995 -14.887 60.1769 13.5362 -14.887 
55.9474 18.1985 -14.887 63.8428 13.5362 -10.3436 -50.9975 21.4316 -14.887 
-54.5881 21.4316 -8.95864 -46.6927 26.3522 -14.887 32.2612 29.1751 -14.887 
40.1566 26.4877 -14.887 52.0817 21.4316 -14.887 48.052 23.9135 -14.887 
55.9474 21.4316 -11.0551 -43.042 29.327 -14.887 -46.6927 29.327 -10.0061 
-38.7973 32.0008 -14.887 -30.9019 35.0264 -14.887 0.679641 37.0852 -14.887 
8.57504 34.0163 -14.887 16.4704 32.737 -14.887 31.8042 29.327 -14.887 
24.3658 31.1168 -14.887 32.2612 29.327 -14.6627 40.1566 29.327 -10.3277 
-24.1851 37.2224 -14.887 -30.9019 37.2224 -10.3891 -23.0065 37.5564 -14.887 
-15.1112 38.6749 -14.887 0.236089 37.2224 -14.887 -7.21575 38.6982 -14.887 
0.679641 37.2224 -14.7479 8.57504 37.2224 -11.0141 16.4704 37.2224 -7.13538 
-23.0065 -34.1577 -6.99158 8.57504 -34.4235 -6.99158 16.4704 -35.8875 -6.99158 
24.3658 -37.1463 -6.99158 32.2612 -37.2453 -6.99158 40.1566 -35.1421 -6.99158 
-46.6927 -31.4461 -6.99158 -38.7973 -32.9859 -6.99158 -38.7973 -33.8361 -4.20507 
-27.0433 -33.8361 -6.99158 -30.9019 -33.5577 -6.99158 -30.9019 -33.8361 -6.29657 
-19.6276 -33.8361 -6.99158 -15.1112 -33.325 -6.99158 -15.1112 -33.8361 -6.27873 
-7.21575 -33.4766 -6.99158 -7.21575 -33.8361 -6.55875 1.0822 -33.8361 -6.99158 
0.679641 -33.8017 -6.99158 0.679641 -33.8361 -6.95142 42.3632 -33.8361 -6.99158 
48.052 -29.7789 -6.99158 -53.1897 -25.9407 -6.99158 -54.5881 -24.5344 -6.99158 
52.4217 -25.9407 -6.99158 55.9474 -22.305 -6.99158 -59.0261 -18.0454 -6.99158 
59.5617 -18.0454 -6.99158 63.8428 -11.0624 -6.99158 -61.5684 -10.15 -6.99158 
-62.4835 -2.299 -6.99158 64.3369 -10.15 -6.99158 63.8428 -10.15 -4.22229 
-62.4883 -2.25456 -6.99158 -62.4835 -2.21637 -6.99158 67.7449 -2.25456 -6.99158 
-61.3961 5.64084 -6.99158 68.4992 5.64084 -6.99158 -59.4008 13.5362 -6.99158 
65.8945 13.5362 -6.99158 63.8428 18.0937 -6.99158 -55.5281 21.4316 -6.99158 
-54.5881 22.6415 -6.99158 -54.5881 21.4316 -0.840961 48.052 27.9451 -6.99158 
60.7708 21.4316 -6.99158 55.9474 24.0458 -6.99158 -48.2422 29.327 -6.99158 
-46.6927 30.6092 -6.99158 -46.6927 29.327 -0.22755 -38.7973 35.3555 -6.99158 
24.3658 34.9124 -6.99158 32.2612 32.6989 -6.99158 44.1546 29.327 -6.99158 
40.1566 30.8897 -6.99158 -34.3472 37.2224 -6.99158 -30.9019 38.5488 -6.99158 
-23.0065 40.9939 -6.99158 -15.1112 42.4828 -6.99158 -7.21575 42.7862 -6.99158 
0.679641 41.411 -6.99158 8.57504 39.3688 -6.99158 16.691 37.2224 -6.99158 
16.4704 37.2879 -6.99158 -38.7973 -35.3134 0.903821 -30.9019 -36.7056 0.903821 
-23.0065 -37.6514 0.903821 -15.1112 -38.1057 0.903821 -7.21575 -38.8773 0.903821 
-7.21575 -41.7315 8.39141 0.679641 -39.4063 0.903821 0.679641 -41.7315 7.24916 
8.57504 -39.6391 0.903821 8.57504 -41.7315 7.79488 16.4704 -40.0203 0.903821 
24.3658 -40.2872 0.903821 32.2612 -39.4211 0.903821 40.1566 -35.8335 0.903821 
-42.1666 -33.8361 0.903821 -46.6927 -31.7653 0.903821 43.051 -33.8361 0.903821 
40.1566 -33.8361 4.75988 48.052 -29.291 0.903821 -54.1908 -25.9407 0.903821 
-54.5881 -25.4643 0.903821 51.2789 -25.9407 0.903821 48.052 -25.9407 5.15899 
55.9474 -20.5599 0.903821 -59.2672 -18.0454 0.903821 58.3091 -18.0454 0.903821 
55.9474 -18.0454 3.76598 -61.7406 -10.15 0.903821 -62.4835 -2.3232 0.903821 
62.8525 -10.15 0.903821 63.8428 -8.06328 0.903821 -62.49 -2.25456 0.903821 
-62.4835 -2.21546 0.903821 -62.4835 -2.25456 0.925136 66.4861 -2.25456 0.903821 
63.8428 -2.25456 4.69335 -61.1427 5.64084 0.903821 67.6858 5.64084 0.903821 
63.8428 5.64084 6.02468 -58.9053 13.5362 0.903821 -54.5881 20.9517 0.903821 
65.2899 13.5362 0.903821 63.8428 16.9495 0.903821 63.8428 13.5362 3.04136 
-54.2684 21.4316 0.903821 -46.6927 29.0706 0.903821 48.052 28.2524 0.903821 
60.3588 21.4316 0.903821 55.9474 24.0633 0.903821 55.9474 21.4316 4.99372 
-46.3591 29.327 0.903821 -38.7973 34.2766 0.903821 24.3658 36.8637 0.903821 
32.2612 33.9722 0.903821 45.4019 29.327 0.903821 40.1566 31.6343 0.903821 
40.1566 29.327 7.21653 -33.1407 37.2224 0.903821 -30.9019 38.3169 0.903821 
-30.9019 37.2224 4.12153 -23.0065 41.4782 0.903821 -15.1112 43.4303 0.903821 
-7.21575 44.0822 0.903821 0.679641 43.1476 0.903821 8.57504 41.6085 0.903821 
23.4052 37.2224 0.903821 16.4704 39.6529 0.903821 -7.21575 -41.8708 8.79922 
0.679641 -42.2356 8.79922 8.57504 -42.0071 8.79922 -38.7973 -34.9943 8.79922 
-30.9019 -37.4808 8.79922 -23.0065 -39.1059 8.79922 -8.33544 -41.7315 8.79922 
-15.1112 -40.8412 8.79922 -7.21575 -41.7315 9.20362 0.679641 -41.7315 10.3109 
10.2143 -41.7315 8.79922 8.57504 -41.7315 9.50572 16.4704 -40.697 8.79922 
24.3658 -39.1528 8.79922 32.2612 -36.3364 8.79922 -41.4648 -33.8361 8.79922 
-46.6927 -30.8769 8.79922 -38.7973 -33.8361 11.7884 24.3658 -33.8361 15.2176 
36.2259 -33.8361 8.79922 32.2612 -33.8361 11.765 40.1566 -30.5426 8.79922 
-52.1185 -25.9407 8.79922 -54.5881 -22.3293 8.79922 -46.6927 -25.9407 15.6252 
32.2612 -25.9407 15.9436 44.6828 -25.9407 8.79922 40.1566 -25.9407 12.4277 
48.052 -22.2776 8.79922 -56.7875 -18.0454 8.79922 -54.5881 -18.0454 11.9849 
40.1566 -18.0454 14.875 51.6361 -18.0454 8.79922 48.052 -18.0454 11.3914 
55.9474 -10.9536 8.79922 -59.2061 -10.15 8.79922 -54.5881 -10.15 15.3413 
40.1566 -10.15 16.3385 48.052 -10.15 13.739 56.5411 -10.15 8.79922 
55.9474 -10.15 9.18762 -59.856 -2.25456 8.79922 -54.5881 -2.25456 15.7098 
48.052 -2.25456 15.224 60.3761 -2.25456 8.79922 55.9474 -2.25456 12.0998 
-58.2955 5.64084 8.79922 -54.5881 5.64084 13.7382 16.4704 5.64084 15.7229 
48.052 5.64084 15.7278 61.4707 5.64084 8.79922 55.9474 5.64084 13.2592 
-55.3073 13.5362 8.79922 -54.5881 14.7029 8.79922 -54.5881 13.5362 9.70571 
40.1566 13.5362 16.6647 48.052 13.5362 15.0395 59.1791 13.5362 8.79922 
55.9474 17.8535 8.79922 55.9474 13.5362 11.2676 -49.8836 21.4316 8.79922 
-46.6927 24.5727 8.79922 -46.6927 21.4316 12.0345 32.2612 21.4316 16.5443 
40.1566 28.5471 8.79922 40.1566 21.4316 14.256 52.6039 21.4316 8.79922 
48.052 24.6712 8.79922 48.052 21.4316 11.7338 -40.682 29.327 8.79922 
[...]
POINT_DATA 540
SCALARS ImageScalars float
LOOKUP_TABLE default
0 0 0 0 0 0 0 0 0 
0 0 0 0 0 0 0 0 0 
0 0 0 0 0 0 0 0 0 
0 0 0 0 0 0 0 0 0 
0 0 0 0 0 0 0 0 0 
0 0 0 0 0 0 0 0 0 
0 0 0 0 0 0 0 0 0 
0 0 0 0 0 0 0 0 0 
0 0 0 0 0 0 0 0 0 
0 0 0 0 0 0 0 0 0 
0 0 0 0 0 0 0 0 0 
0 0 0 0 0 0 0 0 0 
0 0 0 0 0 0 0 0 0 
0 0 0 0 0 0 0 0 0 
0 0 0 0 0 0 0 0 0 
0 0 0 0 0 0 0 0 0 
0 0 0 0 0 0 0 0 0 
0 0 0 0 0 0 0 0 0 
0 0 0 0 0 0 0 0 0 
0 0 0 0 0 0 0 0 0 
0 0 0 0 0 0 0 0 0 
0 0 0 0 0 0 0 0 0 
0 0 0 0 0 0 0 0 0 
0 0 0 0 0 0 0 0 0 
0 0 0 0 0 0 0 0 0 
0 0 0 0 0 0 0 0 0 
0 0 0 0 0 0 0 0 0 
0 0 0 0 0 0 0 0 0 
0 0 0 0 0 0 0 0 0 
0 0 0 0 0 0 0 0 0 
0 0 0 0 0 0 0 0 0 
0 0 0 0 0 0 0 0 0 
0 0 0 0 0 0 0 0 0 
0 0 0 0 0 0 0 0 0 
0 0 0 0 0 0 0 0 0 
0 0 0 0 0 0 0 0 0 
0 0 0 0 0 0 0 0 0 
0 0 0 0 0 0 0 0 0 
0 0 0 0 0 0 0 0 0 
0 0 0 0 0 0 0 0 0 
0 0 0 0 0 0 0 0 0 
0 0 0 0 0 0 0 0 0 
0 0 0 0 0 0 0 0 0 
0 0 0 0 0 0 0 0 0 
0 0 0 0 0 0 0 0 0 
0 0 0 0 0 0 0 0 0 
0 0 0 0 0 0 0 0 0 
0 0 0 0 0 0 0 0 0 
0 0 0 0 0 0 0 0 0 
0 0 0 0 0 0 0 0 0 
0 0 0 0 0 0 0 0 0 
0 0 0 0 0 0 0 0 0 
0 0 0 0 0 0 0 0 0 
0 0 0 0 0 0 0 0 0 
0 0 0 0 0 0 0 0 0 
0 0 0 0 0 0 0 0 0 
0 0 0 0 0 0 0 0 0 
0 0 0 0 0 0 0 0 0 
0 0 0 0 0 0 0 0 0 
0 0 0 0 0 0 0 0 0 

NORMALS Normals float
0.133491 0.57772 0.805245 -0.0636202 0.510486 0.857529 -0.163191 0.539418 0.826073 
0.131082 0.407803 0.903612 0.113461 0.380488 0.917799 -0.0279409 0.412596 0.910485 
-0.239128 0.511715 0.825206 0.281409 0.375754 0.88296 0.0693002 0.255953 0.964202 
-0.0595935 0.239478 0.969071 -0.147405 0.242736 0.958828 -0.124366 0.303971 0.944529 
0.0744054 0.346012 0.935275 0.0659572 0.302969 0.950715 -0.0477904 0.428182 0.902428 
0.0530629 0.265172 0.96274 0.118507 0.193606 0.973896 0.0205383 0.224498 0.974258 
-0.0961697 0.275518 0.956473 -0.285069 0.391808 0.87477 0.581823 0.154527 0.798501 
0.278021 0.0887452 0.956467 -0.0233401 0.105558 0.994139 -0.0874943 0.0681384 0.993832 
-0.103772 0.0171288 0.994454 -0.0125765 0.148498 0.988833 0.0312873 0.306062 0.951497 
0.0967903 -0.0505222 0.994022 0.00574094 0.254816 0.966972 -0.112216 0.128693 0.985315 
0.0527535 0.0714292 0.99605 0.0717795 0.0940587 0.992976 -0.0188473 0.191247 0.981361 
-0.212466 0.217459 0.952665 -0.427341 0.304674 0.851207 0.53145 0.00833327 0.847049 
0.246503 -0.0631847 0.96708 0.0424585 0.0123719 0.999022 -0.146079 0.00225149 0.98927 
-0.0735177 -0.011252 0.99723 0.173162 -0.0181178 0.984727 -0.1428 0.116752 0.982841 
0.0261012 0.035367 0.999034 0.126003 -0.0427389 0.991109 -0.142669 -0.0405389 0.98894 
0.0943066 0.0372858 0.994845 0.136219 0.0597063 0.988878 -0.00326776 0.113109 0.993577 
-0.170134 0.0783206 0.982304 -0.38715 0.165938 0.906961 0.580818 -0.117192 0.805553 
0.274503 -0.00151709 0.961585 0.0616611 -0.0183515 0.997928 -0.110762 0.0442094 0.992863 
-0.124676 0.0779952 0.989127 0.10025 0.000632241 0.994962 0.0787819 -0.15093 0.9854 
-0.0372173 0.138534 0.989658 -0.0666888 -0.140044 0.987897 -0.0390196 0.0299961 0.998788 
0.150567 0.0527753 0.98719 0.147536 -0.000347418 0.989057 -0.0011179 -0.0347782 0.999394 
-0.171007 -0.0149594 0.985156 -0.316283 -0.0681765 0.946212 0.640848 -0.274011 0.717099 
0.329287 -0.0889864 0.940027 0.0659081 -0.0775397 0.994808 -0.05763 0.0179651 0.998176 
-0.11643 0.0905325 0.989064 -0.0419491 0.110274 0.993016 0.0225792 -0.0590945 0.997997 
0.00881791 -0.0045836 0.999951 0.00880116 -0.0656828 0.997802 0.0489652 0.0683484 0.996459 
0.0702445 0.0194793 0.99734 0.044991 -0.0685491 0.996633 -0.0164196 -0.217119 0.976007 
-0.20968 -0.245514 0.946445 -0.426498 -0.358297 0.830495 0.454263 -0.395703 0.798163 
0.162311 -0.2109 0.963938 0.0511695 -0.129012 0.990322 -0.0328714 -0.00460182 0.999449 
-0.0515822 0.0344377 0.998075 -0.0372154 0.0286958 0.998895 -0.0420486 -0.0307277 0.998643 
0.00909446 -0.103147 0.994624 0.0434929 -0.135003 0.98989 0.0072346 -0.204687 0.978801 
-0.0985053 -0.348569 0.932092 -0.174871 -0.465647 0.867521 -0.297177 -0.568157 0.767387 
0.354459 -0.581194 0.732511 0.156224 -0.428742 0.889817 0.0527845 -0.315505 0.947455 
-0.00122841 -0.227578 0.973759 -0.0405049 -0.205523 0.977814 -0.126525 -0.266776 0.955417 
-0.102685 -0.399095 0.911142 -0.0724166 -0.502887 0.861313 -0.157207 -0.649269 0.744134 
0.183118 -0.731014 0.657333 0.062161 -0.660934 0.747866 -0.0797364 -0.650474 0.755331 
0.142927 0.680188 0.718968 -0.0478567 0.619463 0.783566 -0.160809 0.567445 0.807556 
-0.0139595 0.839315 0.543466 0.108084 0.73366 0.670866 0.132013 0.412469 0.901355 
0.163283 0.723192 0.671068 0.11333 0.456873 0.882283 0.0896427 0.714708 0.693654 
-0.0541315 0.528237 0.84737 -0.091682 0.743948 0.661918 -0.245171 0.549536 0.798687 
-0.373672 0.813346 0.445912 0.307594 0.591821 0.745073 0.368534 0.537988 0.758124 
0.393266 0.606967 0.690603 -0.143317 0.530374 0.835562 -0.111543 0.437927 0.892064 
-0.100353 0.523255 0.846246 0.0445847 0.439611 0.897081 0.0222798 0.515032 0.856881 
0.0188081 0.524866 0.850977 0.014074 0.571286 0.82063 0.124212 0.415661 0.900998 
0.0232508 0.475965 0.879157 0.0527357 0.505297 0.861333 -0.276419 0.543307 0.792723 
-0.371997 0.526582 0.764414 -0.466663 0.668283 0.57933 0.572885 0.397355 0.716877 
0.62292 0.330509 0.709038 0.663184 0.415085 0.622809 -0.532795 0.472384 0.702127 
-0.546942 0.44075 0.711754 -0.670771 0.55161 0.495774 0.665386 0.17871 0.724793 
-0.604193 0.346543 0.717537 -0.877168 0.44895 0.170351 0.686797 0.00176671 0.726847 
0.971785 -0.00894172 0.235699 -0.665713 0.152582 0.730442 -0.780633 0.162245 0.603564 
0.688698 -0.121108 0.714862 -0.750495 -0.0913281 0.654536 -0.764709 -0.0933449 0.637579 
0.658824 -0.281545 0.697627 0.658562 -0.302703 0.688961 -0.593722 -0.359753 0.719773 
-0.445031 -0.568407 0.691998 -0.84433 -0.334917 0.418256 0.662512 -0.438146 0.607541 
0.805595 -0.541805 0.239715 0.550636 -0.575656 0.6045 -0.22391 -0.753009 0.618742 
-0.24559 -0.698007 0.672661 -0.380902 -0.638031 0.669201 -0.328493 -0.681981 0.653448 
-0.477129 -0.761415 0.438857 0.47796 -0.656481 0.583598 0.600083 -0.750205 0.277654 
0.396379 -0.703578 0.589798 0.253997 -0.744443 0.617486 -0.206336 -0.697203 0.686537 
-0.169601 -0.635886 0.752917 -0.141325 -0.687699 0.712107 -0.22283 -0.754722 0.617043 
-0.190051 -0.741523 0.643447 -0.226185 -0.764301 0.603891 -0.289209 -0.869181 0.401101 
0.201013 -0.749361 0.630913 0.31357 -0.890153 0.330608 0.187085 -0.745505 0.639704 
0.0661532 -0.73076 0.679421 -0.200464 -0.701846 0.68354 -0.085882 -0.723983 0.684451 
-0.207461 -0.706703 0.67641 -0.229161 -0.822035 0.521291 -0.253731 -0.900544 0.353045 
-0.00501114 0.848556 0.529081 0.106334 0.750169 0.65264 0.145426 0.799195 0.583214 
0.0714477 0.856708 0.510829 -0.125021 0.874732 0.468202 -0.393485 0.849223 0.352123 
0.412129 0.865007 0.286202 0.108873 0.909312 0.40162 0.170481 0.938928 0.298915 
0.0297514 0.8842 0.46616 0.0621947 0.911468 0.406642 0.0707898 0.918975 0.38791 
-0.0187932 0.82247 0.568498 -0.0374995 0.780899 0.623531 -0.0275282 0.799959 0.599423 
0.0221353 0.748785 0.662443 0.0250107 0.76082 0.648481 0.0486138 0.747504 0.662476 
0.0454103 0.747308 0.662924 0.0454502 0.748254 0.661854 -0.459585 0.827895 0.321515 
-0.590051 0.774216 0.228975 0.638649 0.71852 0.275422 0.69638 0.667958 0.262465 
-0.670293 0.717655 0.188885 -0.738719 0.655533 0.156753 0.87553 0.410665 0.254562 
-0.790991 0.588797 0.16629 -0.876948 0.472239 0.0891781 0.947581 0.196932 0.25161 
0.971896 -0.00783362 0.235279 -0.884046 0.459388 0.0861688 -0.890156 0.453334 -0.0459477 
0.971908 -0.00896258 0.235191 0.971921 -0.00971654 0.235108 -0.954505 0.238898 0.178461 
0.959603 -0.176566 0.219056 -0.976142 -0.10291 0.191196 0.925257 -0.339762 0.168703 
-0.904293 -0.365184 0.221121 -0.793502 -0.573523 0.203532 0.825551 -0.545922 0.142954 
0.797669 -0.586615 0.140025 0.802633 -0.571645 -0.170299 -0.352288 -0.909775 0.21955 
-0.618947 -0.758063 0.205535 -0.504309 -0.831681 0.232333 0.631045 -0.768662 0.1046 
0.600965 -0.7929 0.100754 0.600172 -0.76783 -0.224121 0.449908 -0.88647 0.108417 
-0.26516 -0.913444 0.308725 -0.234402 -0.935173 0.265534 -0.314804 -0.920861 0.230029 
-0.283726 -0.926802 0.246046 0.379877 -0.914705 0.137871 0.327149 -0.93109 0.161386 
0.232252 -0.949086 0.212827 0.10787 -0.960489 0.256563 -0.0643695 -0.953902 0.293134 
-0.203294 -0.92148 0.330977 -0.240813 -0.898137 0.367911 -0.254963 -0.902212 0.347862 
-0.254584 -0.901924 0.348885 0.297721 0.947811 0.114088 0.139545 0.963366 0.229025 
0.0838847 0.954821 0.285098 0.0733915 0.905132 0.418747 0.0731346 0.892558 0.444962 
0.0868999 0.995993 0.0211224 0.0423596 0.892932 0.448194 0.0156949 0.996448 0.0827323 
0.0359065 0.911743 0.409189 -0.0831867 0.996534 -0.000258584 0.0378103 0.965741 0.256737 
-0.0345219 0.992922 0.113643 -0.258594 0.965543 -0.0292583 -0.496761 0.851352 -0.168607 
0.374259 0.925643 0.055815 0.489325 0.871753 -0.024649 -0.557313 0.804756 -0.204379 
-0.533099 0.753095 -0.385557 -0.665754 0.694776 -0.272135 0.732833 0.678825 -0.0463931 
0.750438 0.65887 -0.0522823 -0.717709 0.634058 -0.28786 -0.630495 0.604438 -0.486962 
-0.732376 0.594749 -0.331511 0.904094 0.409252 -0.122991 -0.747064 0.569925 -0.342171 
-0.703484 0.533766 -0.469259 0.971108 0.194139 -0.138776 0.987994 -0.0335199 -0.150812 
-0.847531 0.423541 -0.319851 -0.866552 0.373602 -0.330922 0.987925 -0.035419 -0.150828 
0.987869 -0.0361766 -0.151018 0.987796 -0.0354507 -0.151663 -0.893864 0.25322 -0.369983 
-0.812464 0.205503 -0.545592 0.961909 -0.207159 -0.17837 -0.929575 -0.070023 -0.361922 
-0.79551 -0.060801 -0.602882 0.89828 -0.386825 -0.208472 0.790509 -0.555826 -0.257203 
-0.890212 -0.324667 -0.319554 -0.82934 -0.473414 -0.296774 -0.858243 -0.290383 -0.423199 
0.78081 -0.568392 -0.259359 0.594577 -0.754731 -0.277236 -0.387451 -0.908792 -0.15485 
-0.643729 -0.724305 -0.246971 -0.538993 -0.810857 -0.22803 -0.54217 -0.718951 -0.434928 
0.58811 -0.760162 -0.27619 0.481455 -0.844499 -0.234569 -0.342788 -0.936935 0.0681778 
-0.308257 -0.95099 -0.0243817 -0.366739 -0.92047 -0.135045 -0.340209 -0.93422 -0.107194 
-0.395767 -0.804082 -0.443645 0.427638 -0.885368 -0.182343 0.40918 -0.897969 -0.161938 
0.435289 -0.858273 -0.27183 0.304277 -0.949308 -0.0789266 0.157343 -0.987123 -0.02882 
-0.017864 -0.999839 -0.00140713 -0.154487 -0.986806 0.0484561 -0.21738 -0.970613 0.103233 
-0.338348 -0.937755 0.0783319 -0.289484 -0.948855 0.125994 0.0870024 0.996208 -0.000731128 
0.00898604 0.999958 -0.00190952 -0.0988187 0.99353 -0.0559785 0.352724 0.916828 -0.187114 
0.238936 0.967439 -0.0834912 0.198072 0.979617 -0.0334353 0.100394 0.994948 -0.000308982 
0.178081 0.984011 -0.0030379 0.0869385 0.995753 -0.0302901 0.00479466 0.993275 -0.115683 
-0.111619 0.990414 -0.081367 -0.104014 0.988824 -0.106812 -0.169042 0.966141 -0.194928 
-0.247027 0.896084 -0.368796 -0.40991 0.754859 -0.512018 0.41781 0.884915 -0.205815 
0.578346 0.766006 -0.280627 0.385105 0.862821 -0.327466 -0.260649 0.531514 -0.80595 
-0.485891 0.669034 -0.562408 -0.426152 0.628318 -0.650855 -0.52656 0.578603 -0.622859 
0.713996 0.611213 -0.34151 0.782241 0.49008 -0.384604 0.56965 0.509137 -0.645197 
-0.292852 0.276025 -0.915449 -0.545065 0.520882 -0.656952 -0.48708 0.420827 -0.765283 
-0.546731 0.477475 -0.687825 0.833693 0.361216 -0.417707 0.75729 0.341206 -0.556857 
-0.367052 0.202254 -0.907946 -0.584843 0.407431 -0.701397 -0.493502 0.371969 -0.78619 
-0.543845 0.385033 -0.745642 0.880623 0.167956 -0.443051 0.693183 0.139403 -0.707152 
-0.232475 0.155178 -0.960143 -0.389136 0.22656 -0.892885 -0.54454 0.3787 -0.748373 
-0.528937 0.373875 -0.761868 0.876182 -0.0509699 -0.479278 0.663984 -0.0669196 -0.744746 
-0.307848 0.111042 -0.944933 -0.646349 0.179998 -0.741508 -0.492028 0.20919 -0.845073 
0.848566 -0.233087 -0.47498 0.706141 -0.238576 -0.666669 -0.0882769 -0.0096361 -0.996049 
-0.257007 -0.00608249 -0.96639 -0.685326 -0.0542627 -0.726212 -0.484129 -0.0471925 -0.873723 
0.763651 -0.411996 -0.497087 0.748008 -0.434813 -0.50142 0.739229 -0.413913 -0.531241 
-0.11594 -0.209336 -0.970946 -0.308139 -0.22245 -0.924968 -0.611763 -0.298333 -0.732628 
-0.527341 -0.492704 -0.69221 -0.499873 -0.309026 -0.809092 0.641112 -0.56854 -0.515498 
0.578492 -0.629869 -0.518279 0.553836 -0.557066 -0.618824 -0.186514 -0.233896 -0.954204 
-0.391883 -0.741852 -0.544136 -0.269974 -0.415405 -0.86865 -0.474596 -0.602545 -0.641637 
-0.411193 -0.682463 -0.604289 -0.372736 -0.531532 -0.760619 0.501089 -0.704834 -0.502114 
0.479841 -0.723275 -0.496615 0.470408 -0.690308 -0.549719 0.447137 -0.765607 -0.462509 
0.32775 -0.546891 -0.770383 -0.415227 -0.843745 -0.34012 -0.273325 -0.418058 -0.866326 
-0.400162 -0.756351 -0.517497 -0.39179 -0.800677 -0.45323 -0.369858 -0.662196 -0.651691 
0.418944 -0.793677 -0.441093 0.347771 -0.834385 -0.427618 0.333442 -0.729563 -0.597122 
0.194165 -0.898761 -0.3931 0.174923 -0.627534 -0.758685 0.0177172 -0.925888 -0.377382 
0.00402808 -0.587238 -0.809404 -0.102067 -0.928182 -0.357856 -0.0480479 -0.598257 -0.799863 
-0.179167 -0.937254 -0.299088 -0.127517 -0.640306 -0.757461 -0.382731 -0.870087 -0.310589 
-0.301894 -0.907514 -0.292023 -0.292649 -0.77895 -0.554611 0.274141 0.768279 -0.57844 
0.144136 0.798711 -0.584197 0.0743839 0.727584 -0.681974 0.055899 0.69862 -0.713306 
-0.0226142 0.690936 -0.722562 -0.165242 0.602653 -0.780708 -0.234957 0.4861 -0.841725 
0.327066 0.741353 -0.586024 0.404783 0.641307 -0.651826 0.263965 0.713299 -0.649251 
0.0958595 0.611485 -0.785428 0.014442 0.502705 -0.864338 0.0172843 0.434358 -0.900575 
-0.0449123 0.378454 -0.92453 -0.143557 0.350449 -0.925514 -0.235496 0.453845 -0.859399 
-0.231656 0.434876 -0.870183 -0.221371 0.350342 -0.910085 0.526171 0.476242 -0.704513 
0.546211 0.437235 -0.714478 0.345287 0.377976 -0.859018 0.153212 0.257347 -0.954096 
-0.0554831 0.146479 -0.987657 -0.0546348 0.118776 -0.991417 -0.0369372 0.0955285 -0.994741 
-0.0967978 0.0520012 -0.993945 -0.124003 0.0066058 -0.99226 -0.113305 0.0823984 -0.990138 
-0.254188 0.237876 -0.937445 -0.193481 0.191377 -0.962258 -0.257802 0.189805 -0.947371 
0.569454 0.278 -0.773588 0.492117 0.237178 -0.837596 0.188731 0.170797 -0.967062 
0.00797745 -0.0035869 -0.999962 -0.0601507 -0.0697494 -0.995749 -0.0627906 -0.132468 -0.989196 
-0.0603934 -0.0672087 -0.995909 -0.134765 -0.0840613 -0.987305 -0.107064 -0.164397 -0.980567 
-0.0301732 -0.0708677 -0.997029 -0.0796752 0.0117771 -0.996751 -0.266044 0.12782 -0.955449 
-0.2205 0.105381 -0.969678 0.610186 0.122908 -0.782666 0.381011 0.0498834 -0.923224 
0.152205 -0.0325133 -0.987814 -0.0950742 -0.0320863 -0.994953 -0.198708 -0.133339 -0.970946 
-0.0427583 -0.228583 -0.972585 0.017423 -0.161581 -0.986706 -0.196241 -0.204796 -0.958931 
-0.101992 -0.0729574 -0.992106 0.0624369 -0.122413 -0.990513 -0.00825547 -0.0837526 -0.996452 
-0.204253 0.120639 -0.971456 -0.1228 0.0131151 -0.992345 -0.206287 0.132254 -0.969513 
0.602803 -0.0687164 -0.794926 0.335413 -0.0618028 -0.940042 0.108631 -0.0562617 -0.992489 
-0.0946282 -0.0452216 -0.994485 -0.248202 -0.0241309 -0.968408 -0.0791088 0.0487719 -0.995672 
-0.0413673 0.0616828 -0.997238 -0.0586201 -0.0524444 -0.996902 -0.0233671 0.0748263 -0.996923 
-0.0488133 -0.116905 -0.991943 -0.0374562 -0.142152 -0.989136 0.0545314 -0.0895103 -0.994492 
0.00248574 -0.0113692 -0.999932 -0.206363 0.0892956 -0.974392 -0.156201 0.0799809 -0.984482 
0.54016 -0.215698 -0.81345 0.39862 -0.179596 -0.89936 0.166547 -0.111634 -0.979694 
-0.0723833 -0.061995 -0.995448 -0.0896473 0.0562055 -0.994386 0.0377667 0.220225 -0.974718 
-0.0906758 0.153142 -0.984035 -0.180272 0.100505 -0.978468 -0.134842 -0.0194317 -0.990677 
-0.212511 -0.0346395 -0.976544 0.0855987 -0.0221794 -0.996083 -0.0327969 0.12307 -0.991856 
0.12167 -0.0241784 -0.992276 0.0498547 -0.0487151 -0.997568 -0.186861 -0.0214789 -0.982152 
-0.11582 -0.204753 -0.971937 -0.11405 -0.0380236 -0.992747 0.469522 -0.350412 -0.810408 
0.466551 -0.355977 -0.809698 0.464008 -0.348155 -0.814546 0.226289 -0.284358 -0.93163 
0.0714182 -0.152634 -0.985699 0.0188929 -0.031326 -0.999331 0.00613589 0.0107683 -0.999923 
-0.146248 -0.0750285 -0.986399 -0.242204 -0.0116293 -0.970156 -0.13176 -0.0178469 -0.991121 
-0.0300418 0.129086 -0.991178 0.0164383 0.0443182 -0.998882 -0.107451 -0.197194 -0.974458 
-0.137164 -0.183963 -0.973316 -0.0160009 -0.0679126 -0.997563 0.336674 -0.441566 -0.831667 
0.332602 -0.444228 -0.831888 0.32891 -0.437422 -0.836947 0.267954 -0.45071 -0.851505 
0.197621 -0.34006 -0.919405 0.0819337 -0.205016 -0.975323 -0.00574298 -0.152483 -0.988289 
-0.11796 -0.137712 -0.983423 -0.117643 -0.0355501 -0.992419 -0.0537401 0.0215257 -0.998323 
-0.0341208 0.0356419 -0.998782 -0.172547 -0.212807 -0.961738 -0.165041 -0.227286 -0.959741 
-0.0868916 -0.0791929 -0.993065 0.2473 -0.461093 -0.852195 0.226164 -0.466428 -0.855158 
0.206957 -0.423678 -0.881854 0.13544 -0.469553 -0.872454 0.0774245 -0.303499 -0.949681 
-0.00954945 -0.462219 -0.886714 -0.0290247 -0.243093 -0.969569 -0.0533439 -0.388085 -0.920079 
-0.0785015 -0.1913 -0.978387 -0.0816951 -0.325171 -0.94212 -0.0616682 -0.173435 -0.982913 
-0.1741 -0.294532 -0.939649 -0.149073 -0.304572 -0.940751 -0.131169 -0.247249 -0.960033 

