# vtk DataFile Version 4.2
vtk output
ASCII
DATASET POLYDATA
POINTS 555 float
-7.51232 -1.32961 -19.7587 -15.7372 -42.4539 -14.5077 -7.51232 -42.4539 -16.7981 
0.712552 -42.4539 -18.129 8.93742 -42.4539 -17.2183 17.1623 -42.4539 -15.221 
25.3872 -42.4539 -12.393 -32.1869 -34.2291 -14.3441 -23.9621 -34.2291 -16.8089 
-15.7372 -34.2291 -17.6636 -7.51232 -34.2291 -19.4742 0.712552 -34.2291 -19.4699 
8.93742 -34.2291 -18.9331 17.1623 -34.2291 -17.6132 25.3872 -34.2291 -17.0695 
33.612 -34.2291 -14.4292 -48.6367 -26.0042 -12.9763 -40.4118 -26.0042 -15.6579 
-32.1869 -26.0042 -18.4245 -23.9621 -26.0042 -18.1584 -15.7372 -26.0042 -18.31 
-7.51232 -26.0042 -19.0117 0.712552 -26.0042 -19.4658 8.93742 -26.0042 -18.9086 
17.1623 -26.0042 -18.1189 25.3872 -26.0042 -17.9977 33.612 -26.0042 -17.5085 
41.8369 -26.0042 -14.8651 -56.8615 -17.7793 -12.5475 -48.6367 -17.7793 -16.1815 
-40.4118 -17.7793 -18.4724 -32.1869 -17.7793 -18.0118 -23.9621 -17.7793 -17.8927 
-15.7372 -17.7793 -17.378 -7.51232 -17.7793 -17.3759 0.712552 -17.7793 -18.229 
8.93742 -17.7793 -17.2579 17.1623 -17.7793 -17.4751 25.3872 -17.7793 -18.1197 
33.612 -17.7793 -17.9205 41.8369 -17.7793 -17.3364 50.0618 -17.7793 -16.0472 
-65.0864 -9.55448 -12.0944 -56.8615 -9.55448 -15.6589 -48.6367 -9.55448 -16.9176 
-40.4118 -9.55448 -17.8679 -32.1869 -9.55448 -17.6909 -23.9621 -9.55448 -16.5774 
-15.7372 -9.55448 -15.7389 -7.51232 -1.54055 -19.6935 -7.51232 -9.55448 -16.8619 
0.712552 -9.55448 -17.7073 8.93742 -9.55448 -16.6466 17.1623 -9.55448 -16.8363 
25.3872 -9.55448 -17.757 33.612 -9.55448 -18.2586 41.8369 -9.55448 -18.9613 
50.0618 -9.55448 -17.2554 58.2866 -9.55448 -15.5406 -65.0864 -1.32961 -13.7896 
-56.8615 -1.32961 -17.4942 -48.6367 -1.32961 -17.3137 -40.4118 -1.32961 -17.2961 
-32.1869 -1.32961 -16.9734 -23.9621 -1.32961 -15.3436 -7.62743 -1.32961 -19.6935 
-15.7372 -1.32961 -13.7934 -7.35507 -1.32961 -19.6935 -7.51232 -1.03041 -19.6935 
0.712552 -1.32961 -14.4618 8.93742 -1.32961 -19.6612 17.1623 -1.32961 -15.7015 
25.3872 -1.32961 -16.8421 33.612 -1.32961 -18.2787 41.8369 -1.32961 -18.6463 
50.0618 -1.32961 -18.3836 58.2866 -1.32961 -18.2909 66.5115 -1.32961 -14.2285 
-65.0864 6.89526 -13.2755 -56.8615 6.89526 -16.1998 -48.6367 6.89526 -16.847 
-40.4118 6.89526 -17.8133 -32.1869 6.89526 -16.6535 -23.9621 6.89526 -15.1018 
-15.7372 6.89526 -14.6593 -7.51232 6.89526 -17.6912 0.712552 6.89526 -13.8452 
8.93742 6.89526 -17.641 17.1623 6.89526 -14.7319 25.3872 6.89526 -16.2379 
33.612 6.89526 -17.9325 41.8369 6.89526 -18.4817 50.0618 6.89526 -18.7692 
58.2866 6.89526 -19.32 66.5115 6.89526 -16.0048 -56.8615 15.1201 -13.9208 
-48.6367 15.1201 -16.2267 -40.4118 15.1201 -16.4187 -32.1869 15.1201 -15.9404 
-23.9621 15.1201 -15.3591 -15.7372 15.1201 -14.0479 -7.51232 15.1201 -13.3328 
0.712552 15.1201 -15.302 8.93742 15.1201 -14.4363 17.1623 15.1201 -13.0918 
25.3872 15.1201 -15.356 33.612 15.1201 -16.7417 41.8369 15.1201 -17.9134 
50.0618 15.1201 -17.1307 58.2866 15.1201 -16.6571 66.5115 15.1201 -13.8337 
-56.8615 23.345 -12.8638 -48.6367 23.345 -13.4064 -40.4118 23.345 -14.7008 
-32.1869 23.345 -14.3385 -23.9621 23.345 -13.2276 -15.7372 23.345 -11.7688 
25.3872 23.345 -12.8557 33.612 23.345 -14.4491 41.8369 23.345 -15.4941 
50.0618 23.345 -15.5423 58.2866 23.345 -14.2192 -15.7372 -45.5618 -11.4686 
-7.51232 -48.1572 -11.4686 0.712552 -49.3302 -11.4686 0.712552 -50.6788 -3.83343 
8.93742 -48.488 -11.4686 17.1623 -47.3054 -11.4686 25.3872 -43.5957 -11.4686 
-32.1869 -37.7107 -11.4686 -22.1048 -42.4539 -11.4686 -23.9621 -41.3747 -11.4686 
-23.9621 -42.4539 -6.97082 28.2577 -42.4539 -11.4686 33.612 -39.6195 -11.4686 
33.612 -42.4539 -4.04938 -48.6367 -27.8748 -11.4686 -38.6685 -34.2291 -11.4686 
-40.4118 -33.0292 -11.4686 -40.4118 -34.2291 -8.33103 39.171 -34.2291 -11.4686 
41.8369 -31.8345 -11.4686 41.8369 -34.2291 -6.99497 -51.2692 -26.0042 -11.4686 
-56.8615 -19.9535 -11.4686 48.5967 -26.0042 -11.4686 50.0618 -24.5955 -11.4686 
50.0618 -26.0042 -9.49773 -58.6014 -17.7793 -11.4686 -65.0864 -10.9707 -11.4686 
-65.0864 -17.7793 -3.34118 57.938 -17.7793 -11.4686 58.2866 -17.4211 -11.4686 
58.2866 -17.7793 -11.1186 -65.8976 -9.55448 -11.4686 65.7533 -9.55448 -11.4686 
66.5115 -8.70857 -11.4686 66.5115 -9.55448 -10.6331 -68.2128 -1.32961 -11.4686 
-73.3113 -1.32961 -3.69424 70.0556 -1.32961 -11.4686 -67.6268 6.89526 -11.4686 
-73.3113 6.89526 -3.44508 -65.0864 13.6795 -11.4686 72.8102 6.89526 -11.4686 
74.7364 6.89526 -7.09892 -63.7419 15.1201 -11.4686 -65.0864 15.1201 -10.8684 
-7.51232 19.8534 -11.4686 0.712552 22.5302 -11.4686 8.93742 21.1574 -11.4686 
17.1623 22.2063 -11.4686 69.5994 15.1201 -11.4686 66.5115 19.95 -11.4686 
-59.1773 23.345 -11.4686 -65.0864 23.345 -5.28607 -56.8615 25.2846 -11.4686 
-48.6367 28.0251 -11.4686 -40.4118 31.5587 -11.4686 -32.1869 30.0912 -11.4686 
-23.9621 27.9949 -11.4686 -14.0013 23.345 -11.4686 -15.7372 24.2163 -11.4686 
-7.51232 23.345 -10.4096 0.712552 23.345 -11.1129 8.93742 23.345 -10.6854 
18.4257 23.345 -11.4686 17.1623 23.345 -11.2189 25.3872 26.9884 -11.4686 
33.612 29.0182 -11.4686 41.8369 30.0366 -11.4686 50.0618 30.0392 -11.4686 
63.3528 23.345 -11.4686 58.2866 27.961 -11.4686 66.5115 23.345 -8.16477 
-48.6367 31.5699 -9.34805 -40.4118 31.5699 -11.4612 -32.1869 31.5699 -10.7232 
-23.9621 31.5699 -9.95162 -15.7372 31.5699 -8.68553 -7.51232 31.5699 -8.01591 
0.712552 31.5699 -8.27859 8.93742 31.5699 -7.96592 17.1623 31.5699 -8.24351 
25.3872 31.5699 -9.48221 33.612 31.5699 -9.98735 41.8369 31.5699 -10.3709 
50.0618 31.5699 -10.2016 58.2866 31.5699 -6.05935 0.712552 -50.7566 -3.24373 
-23.9621 -43.0778 -3.24373 -15.7372 -47.0172 -3.24373 -0.397025 -50.6788 -3.24373 
-7.51232 -50.1289 -3.24373 5.07388 -50.6788 -3.24373 0.712552 -50.6788 -3.05212 
8.93742 -50.6048 -3.24373 17.1623 -49.422 -3.24373 25.3872 -47.1001 -3.24373 
33.612 -42.6343 -3.24373 -40.4118 -35.4215 -3.24373 -25.2746 -42.4539 -3.24373 
-32.1869 -39.1358 -3.24373 -23.9621 -42.4539 -1.90812 -15.7372 -42.4539 4.64382 
33.8651 -42.4539 -3.24373 33.612 -42.4539 -2.84625 41.8369 -35.7319 -3.24373 
-43.0707 -34.2291 -3.24373 -48.6367 -31.5096 -3.24373 -40.4118 -34.2291 -0.651777 
43.5611 -34.2291 -3.24373 41.8369 -34.2291 -0.286266 50.0618 -28.8522 -3.24373 
-65.0864 -17.8364 -3.24373 -56.2817 -26.0042 -3.24373 -56.8615 -25.5754 -3.24373 
53.5298 -26.0042 -3.24373 50.0618 -26.0042 4.2451 58.2866 -22.1012 -3.24373 
-65.1361 -17.7793 -3.24373 -65.0864 -17.7793 -3.10647 63.3675 -17.7793 -3.24373 
58.2866 -17.7793 4.80853 66.5115 -14.3753 -3.24373 -70.6956 -9.55448 -3.24373 
-73.3113 -2.0449 -3.24373 70.2117 -9.55448 -3.24373 -73.5604 -1.32961 -3.24373 
-73.3113 -1.32961 -2.03531 74.3072 -1.32961 -3.24373 74.7364 0.565127 -3.24373 
-73.4227 6.89526 -3.24373 -73.3113 7.87473 -3.24373 -73.3113 6.89526 -2.16526 
74.7364 12.6506 -3.24373 74.7364 6.89526 2.69758 -72.2137 15.1201 -3.24373 
74.1071 15.1201 -3.24373 -66.6195 23.345 -3.24373 -65.0864 25.1817 -3.24373 
-56.8615 31.4957 -3.24373 70.3171 23.345 -3.24373 66.5115 26.799 -3.24373 
66.5115 23.345 4.62974 -56.7255 31.5699 -3.24373 -56.8615 31.5699 -2.56788 
-48.6367 35.6873 -3.24373 -40.4118 38.3435 -3.24373 -32.1869 39.504 -3.24373 
-23.9621 39.5458 -3.24373 -15.7372 39.7092 -3.24373 -7.51232 38.6523 -3.24373 
0.712552 38.8426 -3.24373 8.93742 39.1762 -3.24373 17.1623 39.2836 -3.24373 
25.3872 39.6044 -3.24373 33.612 39.5587 -3.24373 41.8369 38.2297 -3.24373 
50.0618 36.1726 -3.24373 60.2675 31.5699 -3.24373 58.2866 32.9546 -3.24373 
-40.4118 39.7947 2.87224 -32.1869 39.7947 -2.41544 -23.9621 39.7947 -2.69936 
-15.7372 39.7947 -3.06911 -7.51232 39.7947 -1.51268 0.712552 39.7947 -1.63804 
8.93742 39.7947 -2.28931 17.1623 39.7947 -2.51351 25.3872 39.7947 -2.89183 
33.612 39.7947 -2.25526 -7.51232 -44.6897 4.98113 0.712552 -45.9854 4.98113 
8.93742 -45.7645 4.98113 17.1623 -44.5903 4.98113 25.3872 -43.4893 4.98113 
-32.1869 -34.9651 4.98113 -23.9621 -37.8617 4.98113 -14.8776 -42.4539 4.98113 
-15.7372 -42.1452 4.98113 -7.51232 -42.4539 6.88836 0.712552 -42.4539 7.85285 
8.93742 -42.4539 7.65062 17.1623 -42.4539 7.09832 27.2004 -42.4539 4.98113 
25.3872 -42.4539 6.03018 33.612 -36.9441 4.98113 -48.6367 -27.6522 4.98113 
-33.8926 -34.2291 4.98113 -40.4118 -30.9626 4.98113 -32.1869 -34.2291 5.72852 
-23.9621 -34.2291 7.89001 -15.7372 -34.2291 10.6178 -7.51232 -34.2291 11.8941 
0.712552 -34.2291 12.1465 8.93742 -34.2291 12.1001 17.1623 -34.2291 11.6985 
25.3872 -34.2291 10.5395 37.1995 -34.2291 4.98113 33.612 -34.2291 7.16141 
41.8369 -30.2542 4.98113 -51.1524 -26.0042 4.98113 -56.8615 -20.8438 4.98113 
-48.6367 -26.0042 6.64737 -40.4118 -26.0042 9.26626 -32.1869 -26.0042 11.349 
25.3872 -26.0042 12.9521 33.612 -26.0042 10.7177 49.2933 -26.0042 4.98113 
41.8369 -26.0042 7.96197 50.0618 -25.501 4.98113 -60.4993 -17.7793 4.98113 
-65.0864 -14.5012 4.98113 -56.8615 -17.7793 7.88053 -48.6367 -17.7793 11.9578 
41.8369 -17.7793 11.8855 58.1128 -17.7793 4.98113 50.0618 -17.7793 10.0448 
58.2866 -17.6406 4.98113 66.5115 -10.1621 4.98113 -68.7549 -9.55448 4.98113 
-65.0864 -9.55448 8.97338 -56.8615 -9.55448 12.651 50.0618 -9.55448 13.1405 
58.2866 -9.55448 11.1204 67.0056 -9.55448 4.98113 66.5115 -9.55448 5.4575 
-71.2167 -1.32961 4.98113 -65.0864 -1.32961 11.7295 58.2866 -1.32961 12.627 
70.0264 -1.32961 4.98113 66.5115 -1.32961 8.12069 -72.2828 6.89526 4.98113 
73.7718 6.89526 4.98113 66.5115 6.89526 10.4933 -71.3471 15.1201 4.98113 
-65.0864 15.1201 12.8176 58.2866 15.1201 11.9977 70.9387 15.1201 4.98113 
66.5115 23.0917 4.98113 66.5115 15.1201 8.82535 -66.497 23.345 4.98113 
-65.0864 25.1538 4.98113 -65.0864 23.345 6.97011 50.0618 23.345 12.3003 
66.2054 23.345 4.98113 58.2866 23.345 9.79513 -57.9798 31.5699 4.98113 
-56.8615 32.416 4.98113 -56.8615 31.5699 6.35173 -48.6367 37.1673 4.98113 
-48.6367 31.5699 12.7423 41.8369 39.1185 4.98113 41.8369 31.5699 11.3647 
50.0618 35.63 4.98113 50.0618 31.5699 10.1131 58.7721 31.5699 4.98113 
58.2866 31.9585 4.98113 58.2866 31.5699 5.37216 -41.5204 39.7947 4.98113 
[...]
POINT_DATA 555
SCALARS ImageScalars float
LOOKUP_TABLE default
0 0 0 0 0 0 0 0 0 
0 0 0 0 0 0 0 0 0 
0 0 0 0 0 0 0 0 0 
0 0 0 0 0 0 0 0 0 
0 0 0 0 0 0 0 0 0 
0 0 0 0 0 0 0 0 0 
0 0 0 0 0 0 0 0 0 
0 0 0 0 0 0 0 0 0 
0 0 0 0 0 0 0 0 0 
0 0 0 0 0 0 0 0 0 
0 0 0 0 0 0 0 0 0 
0 0 0 0 0 0 0 0 0 
0 0 0 0 0 0 0 0 0 
0 0 0 0 0 0 0 0 0 
0 0 0 0 0 0 0 0 0 
0 0 0 0 0 0 0 0 0 
0 0 0 0 0 0 0 0 0 
0 0 0 0 0 0 0 0 0 
0 0 0 0 0 0 0 0 0 
0 0 0 0 0 0 0 0 0 
0 0 0 0 0 0 0 0 0 
0 0 0 0 0 0 0 0 0 
0 0 0 0 0 0 0 0 0 
0 0 0 0 0 0 0 0 0 
0 0 0 0 0 0 0 0 0 
0 0 0 0 0 0 0 0 0 
0 0 0 0 0 0 0 0 0 
0 0 0 0 0 0 0 0 0 
0 0 0 0 0 0 0 0 0 
0 0 0 0 0 0 0 0 0 
0 0 0 0 0 0 0 0 0 
0 0 0 0 0 0 0 0 0 
0 0 0 0 0 0 0 0 0 
0 0 0 0 0 0 0 0 0 
0 0 0 0 0 0 0 0 0 
0 0 0 0 0 0 0 0 0 
0 0 0 0 0 0 0 0 0 
0 0 0 0 0 0 0 0 0 
0 0 0 0 0 0 0 0 0 
0 0 0 0 0 0 0 0 0 
0 0 0 0 0 0 0 0 0 
0 0 0 0 0 0 0 0 0 
0 0 0 0 0 0 0 0 0 
0 0 0 0 0 0 0 0 0 
0 0 0 0 0 0 0 0 0 
0 0 0 0 0 0 0 0 0 
0 0 0 0 0 0 0 0 0 
0 0 0 0 0 0 0 0 0 
0 0 0 0 0 0 0 0 0 
0 0 0 0 0 0 0 0 0 
0 0 0 0 0 0 0 0 0 
0 0 0 0 0 0 0 0 0 
0 0 0 0 0 0 0 0 0 
0 0 0 0 0 0 0 0 0 
0 0 0 0 0 0 0 0 0 
0 0 0 0 0 0 0 0 0 
0 0 0 0 0 0 0 0 0 
0 0 0 0 0 0 0 0 0 
0 0 0 0 0 0 0 0 0 
0 0 0 0 0 0 0 0 0 
0 0 0 0 0 0 0 0 0 
0 0 0 0 0 0 
NORMALS Normals float
0.0961537 0.0583784 0.993653 0.338502 0.614833 0.712317 0.186478 0.470351 0.862552 
0.0223125 0.443629 0.895933 -0.167544 0.421236 0.891341 -0.263071 0.484895 0.834069 
-0.314661 0.625977 0.713541 0.313684 0.592364 0.742097 0.192777 0.390543 0.900174 
0.156286 0.197414 0.967782 0.103933 0.097295 0.989814 -0.0309329 0.0606397 0.99768 
-0.114379 0.0781401 0.990359 -0.108387 0.167311 0.979928 -0.185893 0.301266 0.935245 
-0.365953 0.421008 0.829958 0.420828 0.581618 0.69615 0.282705 0.380538 0.880493 
0.137809 0.184555 0.973113 -0.00506898 0.054282 0.998513 0.0515226 -0.0189185 0.998493 
0.0697038 -0.124063 0.989823 -0.00632521 -0.0712383 0.997439 -0.0815032 -0.0967289 0.991968 
-0.0550646 -0.00909529 0.998441 -0.0344247 0.0558029 0.997848 -0.185433 0.203492 0.961356 
-0.356571 0.379335 0.853793 0.497554 0.37706 0.781195 0.287288 0.178622 0.941042 
0.131434 0.122069 0.983781 -0.0327568 -0.0414257 0.998604 -0.0382124 -0.0946563 0.994776 
-0.031236 -0.148371 0.988438 0.0496873 -0.128191 0.990504 -0.00509686 -0.109446 0.99398 
-0.0440687 -0.140019 0.989168 0.052908 -0.0781738 0.995535 0.0270427 -0.0147294 0.999526 
-0.0446642 0.0430832 0.998073 -0.0985794 0.251523 0.962818 -0.327107 0.341606 0.881082 
0.541231 0.307204 0.782748 0.316847 0.251976 0.914394 0.127443 0.0706424 0.989327 
0.0426415 -0.0632653 0.997085 -0.0789156 -0.0626114 0.994913 -0.115876 -0.155275 0.981052 
0.00950651 -0.200089 0.979732 0.0977937 0.0614433 0.993308 0.125616 0.0737962 0.98933 
-0.0172448 -0.162915 0.986489 -0.0563408 0.126165 0.990408 0.0679398 -0.10668 0.99197 
0.0844931 -0.0771408 0.993434 0.071314 0.0215683 0.997221 -0.0558787 0.0693989 0.996023 
-0.185985 0.123131 0.974807 -0.286063 0.384117 0.877851 0.497058 0.069918 0.864896 
0.269757 0.0262763 0.96257 -0.0102406 -0.00460558 0.999937 -0.0206633 -0.00850543 0.99975 
-0.119023 -0.0635909 0.990853 -0.175303 -0.0905565 0.980341 0.100754 0.0572108 0.993265 
0.126477 -0.079424 0.988785 0.0953686 0.0533224 0.994013 0.0916867 0.0419539 0.994904 
0.12527 -0.322435 0.938266 -0.0324153 0.0874095 0.995645 -0.143739 -0.133663 0.980548 
0.154715 -0.0923257 0.983636 0.108696 -0.0196532 0.993881 0.00663383 -0.0283298 0.999577 
-0.0208565 0.08991 0.995731 -0.298503 0.210828 0.930832 -0.509132 0.229533 0.829517 
0.48264 -0.122173 0.867256 0.250982 -0.199904 0.947125 0.0937338 -0.069449 0.993172 
-0.011852 -0.0518 0.998587 -0.161996 -0.0609555 0.984907 -0.115226 0.000914657 0.993339 
0.14937 0.00529234 0.988767 -0.0428781 -0.311123 0.949402 -0.0350079 0.067244 0.997122 
0.0117784 -0.280578 0.959759 -0.0459418 -0.152782 0.987191 0.191156 -0.0870724 0.97769 
0.134165 -0.0913245 0.986742 0.0504714 -0.0432089 0.99779 0.0464237 -0.0756836 0.996051 
-0.225441 -0.0975083 0.969365 -0.405929 -0.0314145 0.913365 0.27959 -0.201078 0.938828 
0.128035 -0.175575 0.976105 -0.0157604 -0.195425 0.980592 -0.0634598 -0.133422 0.989025 
-0.11291 -0.108192 0.987697 -0.116696 -0.16758 0.978927 0.0595565 -0.427952 0.901837 
0.0632096 -0.171075 0.983228 -0.131826 -0.4112 0.901962 0.0770568 -0.215124 0.973542 
0.207126 -0.195665 0.958548 0.146708 -0.197462 0.969271 0.0238833 -0.185462 0.982361 
-0.0692028 -0.176344 0.981893 -0.235744 -0.320194 0.917551 -0.453119 -0.321061 0.831627 
0.311047 -0.400571 0.861854 0.12546 -0.397706 0.908895 0.0456032 -0.290881 0.955672 
-0.0879347 -0.279549 0.956096 -0.147132 -0.29739 0.943351 -0.166828 -0.298205 0.93981 
0.182436 -0.314561 0.931541 0.154508 -0.361732 0.919389 0.0603492 -0.38541 0.92077 
-0.0917063 -0.378724 0.920955 -0.273504 -0.362517 0.890942 0.355923 0.797516 0.487121 
0.199212 0.862483 0.465228 0.0167691 0.87854 0.477374 0.0262151 0.9945 -0.101407 
-0.104251 0.865229 0.490418 -0.232368 0.788641 0.569255 -0.335293 0.674053 0.658203 
0.386915 0.767109 0.511704 0.373872 0.774978 0.509538 0.369189 0.769389 0.521287 
0.437781 0.888188 0.139534 -0.376971 0.676532 0.632611 -0.451832 0.646804 0.614405 
-0.551814 0.832753 -0.0449889 0.448866 0.653584 0.609382 0.423885 0.738933 0.523736 
0.426967 0.719873 0.54725 0.44603 0.85726 0.257221 -0.520473 0.58308 0.6238 
-0.523652 0.582085 0.622066 -0.644708 0.731908 0.220596 0.478572 0.617994 0.623741 
0.546376 0.440547 0.712314 -0.523936 0.573287 0.629947 -0.524142 0.576266 0.627051 
-0.588152 0.664007 0.461705 0.55444 0.420155 0.718377 0.563611 0.368965 0.739058 
0.75551 0.65233 0.060588 -0.520722 0.538726 0.662286 -0.520314 0.535772 0.664997 
-0.536667 0.557696 0.633217 0.572311 0.322319 0.754036 -0.629667 0.519895 0.577259 
-0.641728 0.507785 0.574752 -0.677197 0.545235 0.494087 0.619205 0.0879435 0.780289 
0.968203 0.159673 0.19258 -0.682426 0.308913 0.662471 0.581154 -0.152079 0.799457 
0.967052 -0.0680574 0.245314 0.525276 -0.369319 0.766608 -0.81472 -0.0298343 0.579087 
-0.966518 -0.0212917 0.255716 0.497586 -0.372305 0.783453 0.547955 -0.418914 0.724056 
-0.00600871 -0.32927 0.944217 0.0210863 -0.350353 0.93638 -0.0227712 -0.329396 0.943917 
0.123866 -0.258107 0.958143 -0.633692 -0.375545 0.676314 -0.55811 -0.514375 0.651101 
0.402522 -0.420172 0.813284 0.723474 -0.558144 0.406276 0.334771 -0.48004 0.810858 
0.234193 -0.446464 0.863611 0.0405039 -0.586291 0.809088 -0.085706 -0.490776 0.86706 
-0.129206 -0.387708 0.912682 -0.139491 -0.293153 0.945835 -0.160907 -0.311981 0.936364 
-0.0348637 -0.270229 0.962165 0.0178694 -0.367094 0.930012 0.00537815 -0.311497 0.950232 
0.135535 -0.273553 0.95226 0.126744 -0.265827 0.955652 0.146342 -0.398815 0.905279 
0.0825353 -0.486225 0.869927 0.0306974 -0.53488 0.84437 -0.0840649 -0.634261 0.768535 
-0.505036 -0.53924 0.673913 -0.39151 -0.605305 0.693056 -0.651824 -0.6541 0.383769 
0.336837 -0.578141 0.743165 0.0405679 -0.586859 0.808672 -0.0709695 -0.55035 0.831913 
-0.109155 -0.479314 0.870829 -0.105399 -0.45151 0.886019 -0.0217036 -0.417477 0.908428 
-0.00274418 -0.440911 0.897546 -0.00200269 -0.415965 0.909379 0.0793848 -0.440262 0.894353 
0.0968929 -0.522538 0.847093 0.047355 -0.568244 0.821496 0.0139454 -0.602269 0.798171 
-0.122256 -0.722055 0.680948 -0.485624 -0.825541 0.287491 0.0265927 0.989896 -0.13928 
0.442457 0.886119 -0.137933 0.388891 0.907537 -0.158555 0.0519558 0.988793 -0.139958 
0.215829 0.965755 -0.144 -0.0302368 0.991606 -0.125709 0.0271044 0.988312 -0.150016 
-0.0809487 0.99025 -0.11337 -0.196978 0.973135 -0.1192 -0.380889 0.923679 -0.0417326 
-0.549626 0.829492 -0.0992681 0.410853 0.905374 -0.107231 0.439839 0.886557 -0.143382 
0.411613 0.898845 -0.150505 0.438628 0.873592 -0.210812 0.29039 0.721408 -0.628685 
-0.55392 0.826632 -0.0992537 -0.551707 0.824924 -0.122961 -0.654684 0.754497 -0.0460895 
0.433605 0.895866 -0.0970111 0.503798 0.862095 -0.0545811 0.398854 0.880976 -0.254551 
-0.652076 0.756775 -0.0456984 -0.637467 0.731015 -0.243418 -0.635596 0.772006 -0.00492015 
0.755518 0.652769 0.0555467 0.591814 0.805373 -0.0336287 0.600039 0.79932 -0.0322521 
-0.634617 0.772792 0.0072468 -0.506251 0.67338 -0.538767 -0.641297 0.767232 -0.00967341 
0.756386 0.651728 0.0559536 0.754579 0.654517 0.0470848 -0.699875 0.714129 0.0139384 
-0.51081 0.635302 -0.579193 -0.761678 0.647309 0.0289403 0.902773 0.411829 0.124085 
0.969718 0.181625 0.163279 -0.823323 0.566156 0.0400694 0.973128 0.160871 0.16475 
0.980289 0.176278 0.0892212 -0.951321 0.305018 0.0441831 -0.971568 0.230872 0.0524842 
0.970432 -0.0676353 0.231707 0.965995 -0.104312 0.236585 0.98615 -0.0621801 0.153757 
-0.977404 -0.20118 0.064864 -0.96559 -0.0206188 -0.259251 0.889354 -0.376745 0.259063 
-0.953689 -0.293484 0.065909 0.765537 -0.584225 0.269507 0.718765 -0.639898 0.271859 
0.489756 -0.801409 0.343341 -0.756232 -0.647572 0.0936164 -0.659075 -0.744913 0.103564 
-0.573167 -0.602026 -0.555917 0.487052 -0.802427 0.344805 0.504469 -0.808017 0.304335 
0.350331 -0.882204 0.314616 0.207051 -0.873475 0.440649 0.0581608 -0.866509 0.495761 
0.00848679 -0.842202 0.539095 -0.0338394 -0.811467 0.583418 -0.0326972 -0.750014 0.660613 
0.0198672 -0.757063 0.65304 0.0183151 -0.745664 0.66607 0.0179944 -0.733241 0.679731 
0.00944972 -0.810764 0.585296 -0.0790726 -0.885888 0.457111 -0.181168 -0.933391 0.309774 
-0.293483 -0.921713 0.253598 -0.527995 -0.836253 0.147993 -0.489291 -0.859712 0.146591 
0.2695 -0.963 -0.000533239 0.0675172 -0.897105 0.436628 0.0121148 -0.868125 0.496198 
-0.0324549 -0.821785 0.568872 -0.0265866 -0.862802 0.504842 0.0191489 -0.861541 0.507327 
0.0228125 -0.818268 0.574385 0.0145403 -0.790321 0.612521 0.0027439 -0.829824 0.558018 
-0.100539 -0.918626 0.382123 0.173193 0.689788 -0.702991 0.0464766 0.716805 -0.695723 
-0.0615299 0.71283 -0.698633 -0.11316 0.72295 -0.68157 -0.294566 0.723291 -0.624565 
0.296202 0.708852 -0.64015 0.307227 0.681587 -0.664117 0.271073 0.703602 -0.656859 
0.282477 0.704243 -0.651343 0.144391 0.62266 -0.769055 0.0377548 0.591385 -0.805505 
-0.0352298 0.595473 -0.802603 -0.0882499 0.643263 -0.760542 -0.341828 0.7013 -0.625565 
-0.289841 0.684526 -0.668892 -0.479347 0.57825 -0.660192 0.403337 0.712617 -0.574017 
0.299997 0.716079 -0.630264 0.309051 0.713999 -0.628246 0.282103 0.693475 -0.662956 
0.248945 0.593961 -0.765008 0.205037 0.488675 -0.848031 0.0780618 0.43842 -0.895374 
0.0111948 0.365792 -0.930629 -0.0246777 0.379891 -0.924702 -0.0895576 0.35758 -0.929578 
-0.215324 0.387278 -0.896466 -0.493584 0.566472 -0.659912 -0.434252 0.502874 -0.747357 
-0.452592 0.583072 -0.674676 0.442609 0.705047 -0.554081 0.546557 0.632309 -0.549054 
0.371373 0.678883 -0.633403 0.228377 0.588971 -0.775214 0.202509 0.508827 -0.836711 
-0.196543 0.210131 -0.957714 -0.26387 0.321768 -0.909306 -0.472857 0.642178 -0.603336 
-0.335664 0.508915 -0.792676 -0.480229 0.643443 -0.596122 0.542272 0.63452 -0.550749 
0.609675 0.58414 -0.535795 0.501632 0.552447 -0.665708 0.266117 0.455947 -0.84929 
-0.168679 0.344943 -0.923343 -0.503987 0.627775 -0.593208 -0.337942 0.471311 -0.814654 
-0.504771 0.628016 -0.592285 -0.662808 0.467367 -0.585024 0.780692 0.367428 -0.505487 
0.632634 0.41933 -0.651104 0.37572 0.327063 -0.867101 -0.176353 0.267308 -0.947336 
-0.384402 0.372357 -0.84474 -0.673825 0.461007 -0.577436 -0.652403 0.455474 -0.605734 
0.841012 0.212331 -0.497608 0.569282 0.228837 -0.789653 -0.342171 0.107776 -0.933436 
-0.74669 0.292461 -0.597428 -0.585828 0.249352 -0.771122 0.899522 -0.00462492 -0.436852 
-0.865704 -0.00405856 -0.50054 -0.417288 0.00352471 -0.908768 0.88008 -0.303577 -0.365104 
0.561249 -0.242591 -0.791296 -0.339468 -0.178902 -0.923447 -0.780998 -0.29854 -0.548559 
-0.564942 -0.58192 -0.584987 -0.508732 -0.273239 -0.816414 0.758916 -0.572867 -0.309628 
0.719126 -0.62654 -0.300508 0.707844 -0.564232 -0.424969 -0.313277 -0.229544 -0.921503 
-0.560889 -0.587024 -0.583786 -0.465044 -0.444745 -0.765465 0.61627 -0.757582 -0.21513 
0.603414 -0.770508 -0.205446 0.603311 -0.740367 -0.296433 0.399049 -0.903428 -0.156775 
0.379813 -0.621759 -0.684951 -0.330839 -0.917428 -0.221068 -0.285374 -0.512737 -0.80973 
-0.376699 -0.84498 -0.379613 -0.338936 -0.573896 -0.745497 -0.586207 -0.640138 -0.496573 
-0.571769 -0.652446 -0.497387 -0.568923 -0.630522 -0.527985 0.29079 -0.946451 -0.140254 
0.275419 -0.951144 -0.139532 0.276972 -0.942188 -0.188597 0.126124 -0.989532 -0.0701339 
0.168601 -0.907957 -0.38365 0.020818 -0.999414 -0.027175 0.0783707 -0.869607 -0.487484 
0.000224093 -0.999981 -0.00608487 0.00683646 -0.876847 -0.480722 0.00630908 -0.999872 0.0146917 
-0.0165745 -0.88058 -0.473607 0.00203217 -0.999927 -0.0119061 -0.0106877 -0.894993 -0.445952 
0.0372233 -0.999084 -0.0211286 0.0268906 -0.862042 -0.506123 0.00929872 -0.999831 -0.0158318 
-0.0516871 -0.799483 -0.598461 -0.102563 -0.993662 -0.0460011 -0.19455 -0.830395 -0.522106 
-0.298185 -0.93285 -0.202181 -0.210921 -0.956236 -0.202793 -0.211945 -0.912396 -0.350162 
0.180553 0.459466 -0.86965 0.145807 0.425266 -0.893247 0.0390365 0.392996 -0.918711 
-0.00814409 0.329721 -0.944043 -0.020979 0.336397 -0.941486 -0.0963863 0.273627 -0.956994 
0.203754 0.450933 -0.86899 0.180452 0.459681 -0.869558 0.176392 0.442985 -0.879005 
0.180081 0.458719 -0.870142 0.11051 0.396327 -0.911434 -0.0125681 0.322213 -0.946584 
-0.032175 0.29018 -0.956431 -0.021371 0.284382 -0.958473 -0.176547 0.212913 -0.960989 
-0.0999376 0.228297 -0.968449 -0.183437 0.19186 -0.964127 -0.134434 0.249259 -0.959061 
0.22164 0.43292 -0.87376 0.248991 0.407205 -0.878742 0.192647 0.41491 -0.889234 
0.144924 0.35705 -0.922774 0.140734 0.289893 -0.946655 0.0441372 0.238061 -0.970247 
-0.0308118 0.177224 -0.983688 -0.0237315 0.251783 -0.967493 -0.0976755 0.196043 -0.975718 
-0.172005 0.0771559 -0.98207 -0.13851 0.123846 -0.982587 -0.130664 0.254857 -0.95811 
-0.128685 0.246613 -0.960532 -0.131219 0.28673 -0.948982 0.354608 0.313308 -0.88096 
0.359269 0.290928 -0.886728 0.239423 0.30381 -0.922158 0.138385 0.27313 -0.951971 
0.0680528 0.24148 -0.968017 0.0608098 0.173414 -0.98297 -0.0131527 0.105132 -0.994371 
-0.0114563 0.122563 -0.992395 -0.0142536 0.0975855 -0.995125 -0.198769 -0.00464439 -0.980035 
-0.162175 0.05416 -0.985275 -0.0247485 0.132591 -0.990862 -0.0296528 0.184323 -0.982418 
-0.172626 0.265225 -0.948607 -0.112835 0.238717 -0.964512 -0.176372 0.263507 -0.948397 
0.444449 0.237803 -0.863663 0.563389 0.083462 -0.821965 0.300663 0.213574 -0.929509 
0.199305 0.196521 -0.96003 0.114558 0.180429 -0.976894 0.0526229 0.191828 -0.980017 
0.00282409 0.166792 -0.985988 -0.00745562 0.0886959 -0.996031 -0.0331471 0.10305 -0.994124 
-0.160484 -0.025862 -0.9867 -0.130302 0.0676251 -0.989165 -0.0422619 0.229207 -0.97246 
-0.0118717 0.14497 -0.989365 -0.0170924 0.106841 -0.994129 -0.0592384 0.111447 -0.992003 
-0.308596 0.110099 -0.9448 -0.209652 0.145936 -0.966824 -0.286589 -0.00181288 -0.958052 
0.578752 0.0347613 -0.814762 0.564999 -0.106408 -0.818201 0.568996 0.0362687 -0.82154 
0.349276 0.0679621 -0.934552 0.199693 0.0749294 -0.97699 0.132531 0.100526 -0.986068 
0.0540713 0.118447 -0.991487 -0.0476366 0.114759 -0.992251 -0.0813192 0.0949494 -0.992155 
-0.118412 0.074678 -0.990152 -0.0564078 0.0722168 -0.995793 0.06199 0.174492 -0.982705 
-0.0943152 0.197828 -0.975689 -0.146604 0.115651 -0.982411 -0.0620607 0.0193308 -0.997885 
-0.0775509 -0.0257239 -0.996656 -0.169507 -0.0434351 -0.984571 -0.270794 -0.0342989 -0.962026 
-0.280917 -0.0482579 -0.958518 -0.267668 -0.0328042 -0.962953 0.532657 -0.236209 -0.812701 
0.364835 -0.168696 -0.915662 0.216049 -0.0967094 -0.971581 0.154525 -0.0110807 -0.987927 
-0.044201 0.041496 -0.99816 -0.0626243 0.104466 -0.992555 -0.0576234 0.162608 -0.985007 
-0.00550807 0.0805365 -0.996736 -0.0964828 0.0218532 -0.995095 -0.195766 0.0616676 -0.97871 
-0.156756 -0.0239743 -0.987346 -0.127515 -0.0545753 -0.990334 -0.289258 -0.181711 -0.939846 
-0.271304 -0.219759 -0.93707 -0.224455 -0.208958 -0.951817 0.510842 -0.382657 -0.769814 
0.508453 -0.386772 -0.769339 0.50741 -0.380561 -0.773116 0.372175 -0.585871 -0.71989 
0.325271 -0.277722 -0.903919 0.204591 -0.244562 -0.947804 0.0585794 -0.17414 -0.982977 
0.018388 -0.167088 -0.985771 0.0272822 -0.10627 -0.993963 -0.0736957 -0.0366384 -0.996608 
-0.0769655 -0.0905676 -0.992912 -0.106179 -0.127194 -0.986178 -0.193441 -0.12297 -0.973375 
-0.183809 -0.0962919 -0.978234 -0.283854 -0.219971 -0.933295 -0.26203 -0.371103 -0.890855 
-0.224671 -0.206437 -0.952316 0.361803 -0.601455 -0.712286 0.264243 -0.669898 -0.693839 
0.251934 -0.536777 -0.805233 0.184138 -0.71997 -0.669131 0.149582 -0.481734 -0.863457 
0.087383 -0.804266 -0.58781 0.0521402 -0.419874 -0.906083 0.00858737 -0.836882 -0.547315 
0.0503452 -0.391677 -0.918724 -0.0182469 -0.835622 -0.549001 0.00772142 -0.424975 -0.905172 
-0.0173668 -0.820351 -0.571597 -0.0732889 -0.408783 -0.909684 0.0131463 -0.773681 -0.633438 
-0.0896014 -0.394832 -0.914374 -0.0590428 -0.758727 -0.648727 -0.125182 -0.351923 -0.92762 
-0.190431 -0.585997 -0.787619 -0.145102 -0.364941 -0.919654 -0.273419 -0.433761 -0.858542 
-0.244351 -0.537918 -0.806807 -0.250981 -0.379939 -0.890312 0.0614386 0.0245593 -0.997809 
-0.0352589 0.0590301 -0.997633 0.0732112 -0.0215259 -0.997084 0.0636356 -0.0422217 -0.99708 
0.0648645 -0.0229487 -0.99763 -0.0316954 0.0172715 -0.999348 -0.0038845 -0.0753478 -0.99715 
-0.0199925 -0.00627947 -0.99978 -0.0123661 -0.0291645 -0.999498 0.00956765 -0.078293 -0.996884 
-0.024435 -0.0551129 -0.998181 0.0016129 -0.089725 -0.995965 0.00097197 -0.0645714 -0.997913 

