# vtk DataFile Version 4.2
vtk output
ASCII
DATASET POLYDATA
POINTS 514 float
-22.2721 -44.9699 -14.2219 -14.4382 -44.9699 -15.246 -6.6042 -44.9699 -15.5331 
1.22978 -44.9699 -14.9554 9.06375 -44.9699 -14.0512 16.8977 -44.9699 -12.488 
-37.9401 -37.1359 -12.0761 -30.1061 -37.1359 -15.9642 -22.2721 -37.1359 -17.6892 
-14.4382 -37.1359 -17.3708 -6.6042 -37.1359 -17.3021 1.22978 -37.1359 -17.2646 
9.06375 -37.1359 -17.0818 16.8977 -37.1359 -17.6015 24.7317 -37.1359 -15.9166 
32.5657 -37.1359 -12.4974 -37.9401 -29.3019 -15.4089 -30.1061 -29.3019 -17.9985 
-22.2721 -29.3019 -17.9641 -14.4382 -29.3019 -18.5174 -6.6042 -29.3019 -17.6863 
1.22978 -29.3019 -17.6803 9.06375 -29.3019 -17.9252 16.8977 -29.3019 -18.3068 
24.7317 -29.3019 -17.1736 32.5657 -29.3019 -16.0688 40.3997 -29.3019 -12.6707 
-45.7741 -21.468 -13.5716 -37.9401 -21.468 -16.9987 -30.1061 -21.468 -17.8259 
-22.2721 -21.468 -17.8258 -14.4382 -21.468 -17.4819 -6.6042 -21.468 -16.8453 
1.22978 -21.468 -17.0251 9.06375 -21.468 -17.2171 16.8977 -21.468 -17.5833 
24.7317 -21.468 -18.353 32.5657 -21.468 -17.3718 40.3997 -21.468 -15.7528 
-45.7741 -13.634 -14.9438 -37.9401 -13.634 -17.4514 -30.1061 -13.634 -18.4984 
-22.2721 -13.634 -17.735 -14.4382 -13.634 -16.6444 -6.6042 -13.634 -16.3589 
1.22978 -13.634 -17.2658 9.06375 -13.634 -16.2234 16.8977 -13.634 -16.8063 
24.7317 -13.634 -17.886 32.5657 -13.634 -18.11 40.3997 -13.634 -17.1712 
48.2336 -13.634 -13.0038 -45.7741 -5.80002 -15.1685 -37.9401 -5.80002 -17.1293 
-30.1061 -5.80002 -17.6048 -22.2721 -5.80002 -16.9644 -14.4382 -5.80002 -16.3923 
-6.6042 -5.80002 -18.39 1.22978 -5.80002 -18.1004 9.06375 -5.80002 -17.8321 
16.8977 -5.80002 -16.533 24.7317 -5.80002 -17.5615 32.5657 -5.80002 -18.3276 
40.3997 -5.80002 -17.6371 48.2336 -5.80002 -14.3302 -45.7741 2.03395 -13.6997 
-37.9401 2.03395 -16.325 -30.1061 2.03395 -16.7896 -22.2721 2.03395 -16.3911 
-14.4382 2.03395 -16.7611 -6.6042 2.03395 -18.3748 1.22978 2.03395 -15.0074 
9.06375 2.03395 -18.7424 16.8977 2.03395 -16.7392 24.7317 2.03395 -17.167 
32.5657 2.03395 -17.7046 40.3997 2.03395 -16.7608 48.2336 2.03395 -13.6801 
-37.9401 9.86793 -14.6873 -30.1061 9.86793 -16.0399 -22.2721 9.86793 -16.2908 
-14.4382 9.86793 -16.8666 -6.6042 9.86793 -18.7187 1.22978 9.86793 -16.5434 
9.06375 9.86793 -17.3451 16.8977 9.86793 -16.7029 24.7317 9.86793 -16.6073 
32.5657 9.86793 -16.4318 40.3997 9.86793 -15.1715 48.2336 9.86793 -12.1001 
-37.9401 17.7019 -12.9472 -30.1061 17.7019 -14.9499 -22.2721 17.7019 -15.7699 
-14.4382 17.7019 -15.8842 -6.6042 17.7019 -15.7383 1.22978 17.7019 -15.0112 
9.06375 17.7019 -15.5392 16.8977 17.7019 -16.0616 24.7317 17.7019 -15.9451 
32.5657 17.7019 -15.1312 40.3997 17.7019 -13.6286 -30.1061 25.5359 -13.5927 
-22.2721 25.5359 -15.1932 -14.4382 25.5359 -16.1281 -6.6042 25.5359 -15.9249 
1.22978 25.5359 -15.516 9.06375 25.5359 -15.0996 16.8977 25.5359 -14.6103 
24.7317 25.5359 -14.1021 32.5657 25.5359 -13.0466 -30.1061 33.3699 -12.4258 
-22.2721 33.3699 -14.0918 -14.4382 33.3699 -15.3499 -6.6042 33.3699 -15.434 
1.22978 33.3699 -14.9374 9.06375 33.3699 -13.6056 16.8977 33.3699 -12.2071 
-22.2721 41.2038 -12.105 -14.4382 41.2038 -13.7094 -6.6042 41.2038 -13.7627 
1.22978 41.2038 -12.8544 -22.2721 -48.605 -11.7276 -14.4382 -50.1146 -11.7276 
-6.6042 -49.9014 -11.7276 1.22978 -48.9657 -11.7276 9.06375 -47.4916 -11.7276 
16.8977 -45.7241 -11.7276 -37.9401 -37.6932 -11.7276 -29.4828 -44.9699 -11.7276 
-30.1061 -44.6319 -11.7276 -30.1061 -44.9699 -11.3487 19.0301 -44.9699 -11.7276 
24.7317 -42.7538 -11.7276 24.7317 -44.9699 -4.08906 32.5657 -37.9591 -11.7276 
-38.3661 -37.1359 -11.7276 33.7754 -37.1359 -11.7276 40.3997 -30.8076 -11.7276 
-45.2399 -29.3019 -11.7276 -45.7741 -27.9067 -11.7276 -45.7741 -29.3019 -10.5784 
41.5922 -29.3019 -11.7276 -47.6803 -21.468 -11.7276 46.562 -21.468 -11.7276 
48.2336 -17.3056 -11.7276 48.2336 -21.468 -9.62951 -50.3839 -13.634 -11.7276 
49.615 -13.634 -11.7276 -51.028 -5.80002 -11.7276 -53.608 -5.80002 -4.27174 
52.0051 -5.80002 -11.7276 56.0676 -5.80002 -5.29511 -48.6169 2.03395 -11.7276 
-45.7741 7.29335 -11.7276 51.3069 2.03395 -11.7276 56.0676 2.03395 -5.93928 
-43.788 9.86793 -11.7276 -45.7741 9.86793 -10.3473 48.7625 9.86793 -11.7276 
48.2336 14.0342 -11.7276 56.0676 9.86793 -4.43377 -39.9705 17.7019 -11.7276 
-45.7741 17.7019 -6.45985 -37.9401 21.4359 -11.7276 47.3089 17.7019 -11.7276 
40.3997 21.7674 -11.7276 48.2336 17.7019 -11.1913 -34.6043 25.5359 -11.7276 
-37.9401 25.5359 -10.032 24.7317 30.6213 -11.7276 35.8936 25.5359 -11.7276 
32.5657 27.741 -11.7276 40.3997 25.5359 -9.31825 48.2336 25.5359 -4.11599 
-31.6358 33.3699 -11.7276 -37.9401 33.3699 -7.92995 -30.1061 36.01 -11.7276 
9.06375 38.3662 -11.7276 19.0441 33.3699 -11.7276 16.8977 34.3003 -11.7276 
24.7317 33.3699 -10.272 32.5657 33.3699 -6.97961 -23.979 41.2038 -11.7276 
-30.1061 41.2038 -9.80579 -22.2721 41.9844 -11.7276 -14.4382 45.7177 -11.7276 
-6.6042 45.4262 -11.7276 5.28143 41.2038 -11.7276 1.22978 43.3201 -11.7276 
9.06375 41.2038 -10.4398 16.8977 41.2038 -7.26203 24.7317 41.2038 -3.96679 
-22.2721 49.0378 -7.95918 -14.4382 49.0378 -9.34675 -6.6042 49.0378 -8.96264 
1.22978 49.0378 -7.01828 -30.1061 -49.3079 -3.89358 -22.2721 -52.1255 -3.89358 
-14.4382 -52.7678 -3.89358 -6.6042 -52.3504 -3.89358 1.22978 -51.3972 -3.89358 
9.06375 -49.6463 -3.89358 16.8977 -47.597 -3.89358 24.7317 -45.0145 -3.89358 
-36.2063 -44.9699 -3.89358 -37.9401 -43.3025 -3.89358 16.8977 -44.9699 2.82317 
24.8286 -44.9699 -3.89358 24.7317 -44.9699 -3.77558 32.5657 -41.2331 -3.89358 
-43.0207 -37.1359 -3.89358 -45.7741 -32.5162 -3.89358 38.7143 -37.1359 -3.89358 
40.3997 -35.7738 -3.89358 -47.4744 -29.3019 -3.89358 -45.7741 -29.3019 1.37407 
46.6622 -29.3019 -3.89358 48.2336 -27.0652 -3.89358 -50.8159 -21.468 -3.89358 
51.5365 -21.468 -3.89358 -52.8504 -13.634 -3.89358 -53.608 -6.60531 -3.89358 
54.6398 -13.634 -3.89358 56.0676 -8.11296 -3.89358 -53.6926 -5.80002 -3.89358 
-53.608 -4.98437 -3.89358 -53.608 -5.80002 -3.61346 56.6623 -5.80002 -3.89358 
-52.858 2.03395 -3.89358 57.0676 2.03395 -3.89358 -50.7091 9.86793 -3.89358 
56.3841 9.86793 -3.89358 56.0676 10.958 -3.89358 -47.5485 17.7019 -3.89358 
-45.7741 21.8808 -3.89358 53.3597 17.7019 -3.89358 -43.9368 25.5359 -3.89358 
40.3997 32.1638 -3.89358 48.3976 25.5359 -3.89358 48.2336 25.7081 -3.89358 
-40.8969 33.3699 -3.89358 -37.9401 39.4088 -3.89358 38.4365 33.3699 -3.89358 
32.5657 36.4509 -3.89358 40.3997 33.3699 3.85559 -36.5531 41.2038 -3.89358 
-37.9401 41.2038 0.523445 -30.1061 48.6929 -3.89358 9.06375 48.5746 -3.89358 
16.8977 44.5521 -3.89358 24.8429 41.2038 -3.89358 24.7317 41.2632 -3.89358 
-29.7177 49.0378 -3.89358 -30.1061 49.0378 -3.22647 -22.2721 52.6014 -3.89358 
-14.4382 53.2059 -3.89358 -6.6042 52.8073 -3.89358 7.94648 49.0378 -3.89358 
1.22978 51.3377 -3.89358 9.06375 49.0378 -2.71937 -30.1061 -47.1454 3.9404 
-22.2721 -49.4525 3.9404 -14.4382 -50.3518 3.9404 -6.6042 -49.9045 3.9404 
1.22978 -48.8183 3.9404 9.06375 -46.6491 3.9404 -33.2435 -44.9699 3.9404 
-37.9401 -40.4467 3.9404 -30.1061 -44.9699 6.67174 -22.2721 -44.9699 8.71617 
-14.4382 -44.9699 9.93871 -6.6042 -44.9699 9.89577 1.22978 -44.9699 8.6549 
15.1314 -44.9699 3.9404 9.06375 -44.9699 6.12807 16.8977 -44.3684 3.9404 
24.7317 -41.2079 3.9404 32.5657 -38.5648 3.9404 -40.6085 -37.1359 3.9404 
-37.9401 -37.1359 7.11424 16.8977 -37.1359 10.4706 24.7317 -37.1359 7.95384 
35.0046 -37.1359 3.9404 32.5657 -37.1359 5.86565 40.3997 -33.1701 3.9404 
-44.7447 -29.3019 3.9404 -45.7741 -27.251 3.9404 -37.9401 -29.3019 10.8206 
44.693 -29.3019 3.9404 40.3997 -29.3019 8.26709 48.2336 -25.1685 3.9404 
-48.1388 -21.468 3.9404 -45.7741 -21.468 6.87341 50.597 -21.468 3.9404 
48.2336 -21.468 7.63291 -49.3331 -13.634 3.9404 -45.7741 -13.634 7.66238 
53.8122 -13.634 3.9404 48.2336 -13.634 11.0843 56.0676 -6.77319 3.9404 
-50.6512 -5.80002 3.9404 -45.7741 -5.80002 8.87877 56.3616 -5.80002 3.9404 
56.0676 -5.80002 4.47517 -50.8348 2.03395 3.9404 -45.7741 2.03395 9.18092 
56.9723 2.03395 3.9404 56.0676 2.03395 5.66887 -48.8914 9.86793 3.9404 
-45.7741 9.86793 7.88571 56.5997 9.86793 3.9404 56.0676 11.8476 3.9404 
56.0676 9.86793 4.9359 -46.8646 17.7019 3.9404 -45.7741 21.0512 3.9404 
-45.7741 17.7019 5.84235 54.0687 17.7019 3.9404 48.2336 17.7019 10.2071 
-44.1738 25.5359 3.9404 -37.9401 25.5359 11.1537 40.3997 25.5359 10.8395 
49.1202 25.5359 3.9404 48.2336 26.4899 3.9404 48.2336 25.5359 5.36936 
-41.7855 33.3699 3.9404 -37.9401 33.3699 8.90936 32.5657 38.1881 3.9404 
32.5657 33.3699 9.59494 40.4116 33.3699 3.9404 40.3997 33.3789 3.9404 
40.3997 33.3699 3.95659 -38.5462 41.2038 3.9404 -37.9401 42.1012 3.9404 
-37.9401 41.2038 5.2656 16.8977 47.5723 3.9404 28.259 41.2038 3.9404 
24.7317 43.3156 3.9404 24.7317 41.2038 7.59879 -32.2821 49.0378 3.9404 
-30.1061 50.9389 3.9404 -30.1061 49.0378 8.1748 -22.2721 54.5564 3.9404 
-14.4382 55.5342 3.9404 -6.6042 55.1722 3.9404 1.22978 53.7204 3.9404 
13.6274 49.0378 3.9404 9.06375 51.0021 3.9404 9.06375 49.0378 9.08794 
-30.1061 -37.1758 11.7744 -22.2721 -41.2251 11.7744 -14.4382 -42.3222 11.7744 
-6.6042 -42.3273 11.7744 1.22978 -41.0473 11.7744 9.06375 -38.6659 11.7744 
-30.1523 -37.1359 11.7744 -30.1061 -37.1359 11.7973 -22.2721 -37.1359 14.2274 
-14.4382 -37.1359 14.6864 -6.6042 -37.1359 14.6526 1.22978 -37.1359 14.1931 
12.7666 -37.1359 11.7744 9.06375 -37.1359 12.7999 16.8977 -34.9281 11.7744 
24.7317 -32.4362 11.7744 32.5657 -29.881 11.7744 -36.3475 -29.3019 11.7744 
-37.9401 -25.3698 11.7744 -30.1061 -29.3019 14.8474 -22.2721 -29.3019 16.6649 
-14.4382 -29.3019 16.7303 -6.6042 -29.3019 16.7362 1.22978 -29.3019 16.3571 
9.06375 -29.3019 15.5305 16.8977 -29.3019 14.4622 24.7317 -29.3019 13.8937 
33.5281 -29.3019 11.7744 32.5657 -29.3019 12.1692 40.3997 -24.9192 11.7744 
-39.2075 -21.468 11.7744 -37.9401 -21.468 12.5573 -30.1061 -21.468 16.3304 
-22.2721 -21.468 17.8291 -14.4382 -21.468 17.6842 -6.6042 -21.468 16.3881 
1.22978 -21.468 16.8607 9.06375 -21.468 16.7925 16.8977 -21.468 16.8315 
[...]
POINT_DATA 514
SCALARS ImageScalars float
LOOKUP_TABLE default
0 0 0 0 0 0 0 0 0 
0 0 0 0 0 0 0 0 0 
0 0 0 0 0 0 0 0 0 
0 0 0 0 0 0 0 0 0 
0 0 0 0 0 0 0 0 0 
0 0 0 0 0 0 0 0 0 
0 0 0 0 0 0 0 0 0 
0 0 0 0 0 0 0 0 0 
0 0 0 0 0 0 0 0 0 
0 0 0 0 0 0 0 0 0 
0 0 0 0 0 0 0 0 0 
0 0 0 0 0 0 0 0 0 
0 0 0 0 0 0 0 0 0 
0 0 0 0 0 0 0 0 0 
0 0 0 0 0 0 0 0 0 
0 0 0 0 0 0 0 0 0 
0 0 0 0 0 0 0 0 0 
0 0 0 0 0 0 0 0 0 
0 0 0 0 0 0 0 0 0 
0 0 0 0 0 0 0 0 0 
0 0 0 0 0 0 0 0 0 
0 0 0 0 0 0 0 0 0 
0 0 0 0 0 0 0 0 0 
0 0 0 0 0 0 0 0 0 
0 0 0 0 0 0 0 0 0 
0 0 0 0 0 0 0 0 0 
0 0 0 0 0 0 0 0 0 
0 0 0 0 0 0 0 0 0 
0 0 0 0 0 0 0 0 0 
0 0 0 0 0 0 0 0 0 
0 0 0 0 0 0 0 0 0 
0 0 0 0 0 0 0 0 0 
0 0 0 0 0 0 0 0 0 
0 0 0 0 0 0 0 0 0 
0 0 0 0 0 0 0 0 0 
0 0 0 0 0 0 0 0 0 
0 0 0 0 0 0 0 0 0 
0 0 0 0 0 0 0 0 0 
0 0 0 0 0 0 0 0 0 
0 0 0 0 0 0 0 0 0 
0 0 0 0 0 0 0 0 0 
0 0 0 0 0 0 0 0 0 
0 0 0 0 0 0 0 0 0 
0 0 0 0 0 0 0 0 0 
0 0 0 0 0 0 0 0 0 
0 0 0 0 0 0 0 0 0 
0 0 0 0 0 0 0 0 0 
0 0 0 0 0 0 0 0 0 
0 0 0 0 0 0 0 0 0 
0 0 0 0 0 0 0 0 0 
0 0 0 0 0 0 0 0 0 
0 0 0 0 0 0 0 0 0 
0 0 0 0 0 0 0 0 0 
0 0 0 0 0 0 0 0 0 
0 0 0 0 0 0 0 0 0 
0 0 0 0 0 0 0 0 0 
0 0 0 0 0 0 0 0 0 
0 
NORMALS Normals float
0.191834 0.509691 0.838698 0.0826231 0.441567 0.893416 -0.0176887 0.450632 0.892535 
-0.0943448 0.513897 0.852648 -0.150909 0.620979 0.769163 -0.244426 0.74873 0.616165 
0.589953 0.466365 0.659135 0.267348 0.305916 0.913751 0.100914 0.236233 0.966442 
-0.0223707 0.197427 0.980062 -0.00672475 0.131706 0.991266 -0.0137312 0.162901 0.986547 
0.0171612 0.226447 0.973872 -0.0742246 0.309239 0.948083 -0.253098 0.372224 0.892967 
-0.493539 0.581511 0.646733 0.360317 0.243484 0.900493 0.160393 0.123496 0.979297 
0.0303203 0.00699507 0.999516 -0.0191875 0.0114016 0.999751 -0.0482637 -0.0295489 0.998397 
0.0153233 -0.0152156 0.999767 0.0392762 0.00704296 0.999204 -0.0477903 -0.00818545 0.998824 
-0.130889 0.151482 0.979756 -0.23608 0.257827 0.936905 -0.520377 0.464983 0.716239 
0.616812 0.230037 0.752746 0.21526 0.142715 0.966072 0.0473551 0.0327901 0.99834 
-0.0204117 -0.0145067 0.999686 -0.0642715 -0.113651 0.99144 -0.0264224 -0.0836859 0.996142 
0.0238981 -0.0280451 0.999321 0.0352424 -0.108061 0.993519 0.0714811 -0.0943679 0.992968 
-0.0193498 0.0455997 0.998772 -0.156911 0.113433 0.981077 -0.364078 0.215566 0.906079 
0.493356 0.0784762 0.86628 0.210633 0.00533848 0.977551 0.0230326 -0.0147628 0.999626 
-0.114126 -0.0548721 0.99195 -0.0890398 -0.0669838 0.993773 0.0374584 0.101002 0.994181 
-0.0109964 0.0622412 0.998001 -0.0243487 0.029201 0.999277 0.103759 -0.0666585 0.992366 
0.0834783 -0.0503011 0.995239 -0.0398248 0.0659449 0.997028 -0.274419 0.124607 0.953503 
-0.60959 0.213405 0.763452 0.42284 -0.0776764 0.902869 0.153806 -0.0759945 0.985174 
-0.0111308 -0.107998 0.994089 -0.0767502 -0.085296 0.993395 0.0898481 0.00801403 0.995923 
0.114071 0.12753 0.985253 -0.0398265 -0.121815 0.991753 -0.102471 0.168416 0.980375 
-0.00853039 -0.00427303 0.999954 0.115746 -0.0460382 0.992211 0.00836967 -0.0258041 0.999632 
-0.235301 -0.025667 0.971584 -0.497319 0.0258075 0.867184 0.485868 -0.254213 0.836246 
0.180744 -0.140185 0.973488 0.0056617 -0.0984828 0.995123 -0.00211402 -0.0428972 0.999077 
0.113475 0.032114 0.993022 -0.0716413 0.0191593 0.997246 0.0702173 -0.082866 0.994084 
0.0559127 -0.0301392 0.997981 -0.0961932 0.0108922 0.995303 0.0622162 -0.0617399 0.996151 
-0.0221495 -0.120403 0.992478 -0.237554 -0.145249 0.960453 -0.467252 -0.117736 0.87625 
0.30065 -0.226803 0.926374 0.0936375 -0.120192 0.988325 0.0519077 -0.0406816 0.997823 
0.139823 -0.059038 0.988415 -0.0125214 -0.196853 0.980353 -0.0699579 -0.0182877 0.997382 
0.00602432 -0.207971 0.978116 -0.0431968 -0.0425716 0.998159 -0.0172216 -0.0767672 0.9969 
-0.0861949 -0.163016 0.982851 -0.232793 -0.194315 0.952916 -0.496537 -0.142888 0.856174 
0.397688 -0.237313 0.886299 0.176145 -0.147768 0.97321 0.0598096 -0.0684936 0.995857 
-0.00203467 -0.0460846 0.998935 -0.0533754 -0.142843 0.988305 -0.0154263 -0.0603455 0.998058 
0.0650463 -0.134854 0.988728 0.0252215 -0.131457 0.991001 -0.060476 -0.151596 0.986591 
-0.145856 -0.212454 0.966224 -0.237368 -0.30534 0.922184 0.272883 -0.151229 0.950087 
0.152808 -0.10183 0.982996 0.0463517 -0.0359799 0.998277 -0.0383183 -0.0187776 0.999089 
-0.0543456 -0.00595208 0.998504 -0.0551108 -0.116295 0.991685 -0.0618385 -0.231646 0.970833 
-0.0982143 -0.319389 0.94252 -0.236357 -0.406101 0.882733 0.314854 -0.201157 0.927579 
0.1719 -0.176994 0.969084 0.0791123 -0.152402 0.985147 -0.0253145 -0.136472 0.99032 
-0.113891 -0.166785 0.979393 -0.163713 -0.269632 0.948945 -0.187249 -0.383226 0.904475 
0.207905 -0.336121 0.918585 0.0902847 -0.32585 0.941101 -0.0539183 -0.334796 0.940747 
-0.188226 -0.382768 0.904467 0.240601 0.684234 0.688429 0.0564784 0.766246 0.64006 
-0.0600107 0.793224 0.605965 -0.133171 0.777647 0.614436 -0.182501 0.783633 0.593812 
-0.261533 0.785188 0.56132 0.597304 0.484413 0.639197 0.369481 0.65055 0.663527 
0.377994 0.646809 0.662389 0.38931 0.673308 0.628565 -0.280596 0.791402 0.543091 
-0.337141 0.772008 0.538831 -0.374644 0.925313 -0.0586337 -0.511524 0.624334 0.590382 
0.603892 0.477455 0.638241 -0.52793 0.60686 0.594146 -0.551258 0.521843 0.650995 
0.722132 0.373796 0.582067 0.731735 0.359234 0.579237 0.785934 0.396379 0.474543 
-0.565621 0.489333 0.663797 0.723923 0.283915 0.62875 -0.658821 0.298326 0.69062 
-0.668398 0.267591 0.694002 -0.769802 0.355925 0.529832 0.765382 0.153495 0.625003 
-0.661832 0.239369 0.710409 0.755825 -0.0786652 0.650032 0.999906 -0.00263829 -0.0134383 
-0.674079 0.0832957 0.733947 -0.952974 0.147239 0.26488 0.633881 -0.267737 0.725611 
0.530986 -0.33168 0.779771 -0.593472 -0.121128 0.795688 -0.931096 -0.0386593 0.362719 
0.484359 -0.328598 0.810815 0.608643 -0.371846 0.700917 -0.515838 -0.147154 0.843953 
-0.525632 -0.239856 0.816199 -0.919532 -0.196362 0.340445 0.484503 -0.264583 0.833818 
0.822958 -0.363101 0.436918 0.460619 -0.250184 0.851609 -0.508395 -0.325024 0.79743 
-0.318438 -0.412079 0.853691 -0.559326 -0.335618 0.757968 0.416148 -0.217326 0.882944 
0.574968 -0.278588 0.769286 -0.193271 -0.426528 0.883584 -0.305412 -0.451083 0.838598 
-0.256043 -0.474562 0.842159 -0.436785 -0.538093 0.720885 -0.683232 -0.632293 0.365238 
0.370667 -0.218143 0.902784 0.699445 -0.337079 0.630202 0.347436 -0.272427 0.897258 
-0.240027 -0.396946 0.885901 -0.205191 -0.410994 0.888246 -0.19942 -0.40772 0.891065 
-0.26698 -0.509211 0.818184 -0.362684 -0.703877 0.610752 0.251132 -0.35314 0.901235 
0.453443 -0.447069 0.77105 0.213421 -0.358917 0.908642 0.089571 -0.505637 0.858084 
-0.0809304 -0.515236 0.853218 -0.23871 -0.426584 0.872378 -0.206793 -0.46184 0.86252 
-0.288359 -0.488811 0.823355 -0.314513 -0.649485 0.69228 -0.397794 -0.781988 0.479848 
0.253684 -0.658819 0.708238 0.0542114 -0.679107 0.732035 -0.0986299 -0.710739 0.696507 
-0.236587 -0.75406 0.612715 0.455479 0.887906 0.064515 0.211468 0.977294 0.0133105 
0.0123729 0.999845 -0.0125059 -0.0878761 0.99597 -0.0179066 -0.17007 0.985176 -0.0224616 
-0.236634 0.970102 -0.0539152 -0.280441 0.956549 -0.079798 -0.37446 0.924582 -0.0701951 
0.655366 0.753895 0.0462371 0.709645 0.703344 0.0413706 -0.275188 0.837853 -0.47146 
-0.375824 0.924009 -0.0704477 -0.374674 0.923986 -0.0766146 -0.493274 0.869376 -0.0294306 
0.814214 0.578422 0.0498441 0.875009 0.483918 -0.0135518 -0.612952 0.790118 0.00197989 
-0.653671 0.756644 0.0142913 0.903754 0.426916 -0.0311694 0.849253 0.4153 -0.326028 
-0.781378 0.617288 0.091676 -0.817528 0.564301 0.114944 0.946342 0.322204 -0.0249183 
-0.88397 0.438079 0.163351 0.981559 0.179387 -0.0660505 0.998935 0.0184764 -0.0422827 
-0.937426 0.29999 0.176744 -0.964074 0.195821 0.179485 0.999241 0.000638374 -0.0389597 
0.999475 -0.0163022 -0.0279942 0.998498 0.00316605 -0.0546902 -0.970414 0.152153 0.187474 
0.981846 -0.173671 0.0762678 -0.971947 -0.0172583 0.234566 0.927568 -0.346121 0.140772 
-0.93227 -0.192215 0.306472 -0.922727 -0.227712 0.311001 0.886013 -0.382951 0.261401 
0.880643 -0.381316 0.281187 -0.828551 -0.45446 0.327061 0.869298 -0.379905 0.316216 
-0.534042 -0.756151 0.378199 -0.690674 -0.631656 0.352108 -0.686676 -0.636008 0.352094 
0.845516 -0.389286 0.365457 0.754727 -0.508755 0.414193 -0.504686 -0.770652 0.389085 
-0.448867 -0.779532 0.436861 -0.582119 -0.788183 -0.19976 0.716306 -0.547008 0.433229 
0.828267 -0.550094 0.106636 0.572242 -0.669916 0.473024 -0.343581 -0.80409 0.485172 
-0.367473 -0.760522 0.535322 -0.400131 -0.783698 0.475092 -0.399263 -0.783495 0.476156 
0.557028 -0.680848 0.475569 0.582868 -0.689615 0.429763 0.253876 -0.836428 0.485731 
0.0133383 -0.86297 0.50508 -0.109329 -0.869053 0.482488 -0.328789 -0.814702 0.477659 
-0.242446 -0.84548 0.475798 -0.354284 -0.845384 0.399762 0.40904 0.785321 -0.464711 
0.186595 0.832982 -0.520886 0.0203983 0.871588 -0.489815 -0.0841939 0.876573 -0.473848 
-0.182497 0.852443 -0.489934 -0.248681 0.814202 -0.524627 0.516803 0.723078 -0.458337 
0.671077 0.594275 -0.443276 0.390269 0.69638 -0.602282 0.153835 0.683571 -0.713489 
0.0561894 0.654299 -0.754146 -0.0592771 0.673747 -0.736581 -0.16783 0.710099 -0.683807 
-0.262228 0.802469 -0.535985 -0.239203 0.763368 -0.600043 -0.267259 0.79316 -0.547238 
-0.299419 0.760244 -0.576522 -0.385295 0.789011 -0.478549 0.725574 0.516232 -0.455025 
0.632284 0.488706 -0.601151 -0.238578 0.54907 -0.801001 -0.21821 0.660852 -0.718094 
-0.434234 0.773515 -0.461644 -0.35504 0.748484 -0.560105 -0.55699 0.714271 -0.423769 
0.785854 0.384873 -0.484051 0.800437 0.350763 -0.486072 0.578431 0.260095 -0.773154 
-0.65484 0.648547 -0.388035 -0.4905 0.63069 -0.601365 -0.768841 0.542607 -0.338322 
0.812403 0.248622 -0.527436 0.73966 0.207914 -0.640058 -0.829847 0.456234 -0.321255 
-0.737344 0.431476 -0.519762 0.799162 0.139407 -0.584727 0.686767 0.0992756 -0.720067 
-0.888521 0.320618 -0.328231 -0.644041 0.229816 -0.729654 -0.933467 0.208506 -0.291829 
0.828253 0.0752966 -0.555273 0.648954 0.073031 -0.757315 -0.937762 0.190638 -0.290274 
-0.927971 0.191336 -0.319781 0.865272 -0.102649 -0.490681 0.663461 -0.0431836 -0.746963 
-0.962873 0.0146909 -0.269556 -0.926885 0.0166163 -0.374977 0.876541 -0.227101 -0.424383 
0.758899 -0.142778 -0.635363 -0.953765 -0.161521 -0.253462 -0.939962 -0.228627 -0.253378 
-0.933498 -0.163238 -0.319272 0.910082 -0.271517 -0.313097 0.914686 -0.285211 -0.286363 
0.871424 -0.244095 -0.425485 -0.865737 -0.426892 -0.26127 -0.630626 -0.3203 -0.706907 
0.91441 -0.304403 -0.26682 0.566171 -0.215255 -0.795686 -0.379923 -0.514648 -0.768632 
-0.737181 -0.637782 -0.223153 -0.715649 -0.662598 -0.22093 -0.70515 -0.63027 -0.324843 
0.912488 -0.333654 -0.236729 0.75679 -0.227237 -0.612888 -0.574894 -0.799338 -0.174802 
-0.458478 -0.609402 -0.646859 -0.58179 -0.786978 -0.205391 -0.581661 -0.787087 -0.20534 
-0.581614 -0.786818 -0.206502 0.848627 -0.511189 -0.13608 0.835543 -0.533315 -0.132073 
0.834859 -0.500651 -0.22882 -0.449069 -0.893433 0.0107096 -0.537444 -0.832538 -0.134292 
-0.505446 -0.856598 -0.103745 -0.535668 -0.756989 -0.374203 0.676985 -0.730475 -0.0899862 
0.595125 -0.799479 -0.08161 0.584624 -0.692915 -0.422 0.294927 -0.950289 -0.0998388 
0.0345881 -0.997843 -0.0557977 -0.116629 -0.992751 -0.0290512 -0.252906 -0.967115 -0.0269601 
-0.408641 -0.912685 -0.00423456 -0.364588 -0.930782 -0.0268472 -0.334418 -0.864763 -0.374633 
0.364673 0.421418 -0.830313 0.153753 0.546968 -0.822913 0.0424647 0.541789 -0.839441 
-0.0463236 0.550251 -0.833713 -0.134627 0.553723 -0.821746 -0.213928 0.519341 -0.827357 
0.365957 0.420558 -0.830185 0.364629 0.4204 -0.830848 0.148499 0.424556 -0.893141 
0.0267761 0.36269 -0.931525 -0.0280143 0.360038 -0.932517 -0.106973 0.410799 -0.905429 
-0.222036 0.504047 -0.834648 -0.206323 0.466815 -0.859951 -0.199867 0.4855 -0.851084 
-0.164839 0.547469 -0.82043 -0.271696 0.539053 -0.797247 0.524239 0.254688 -0.812593 
0.532733 0.186979 -0.82537 0.329779 0.250115 -0.910323 0.10495 0.221114 -0.969584 
0.00475941 0.17898 -0.983841 -0.0247649 0.0963743 -0.995037 -0.0708435 0.149643 -0.986199 
-0.121176 0.234699 -0.964486 -0.0952542 0.352853 -0.930818 -0.124759 0.473549 -0.871887 
-0.290687 0.538736 -0.790737 -0.267656 0.528629 -0.805551 -0.421538 0.472611 -0.773915 
0.524345 0.134257 -0.840855 0.497398 0.121495 -0.858973 0.312013 0.112589 -0.943383 
0.0797605 0.106863 -0.991069 -0.0942774 0.0631341 -0.993542 -0.0484785 -0.034776 -0.998219 
0.0261746 0.113456 -0.993198 -0.00189669 0.165396 -0.986225 0.00398186 0.232796 -0.972517 
-0.0446226 0.268147 -0.962344 -0.179037 0.303773 -0.935771 -0.513943 0.380774 -0.768683 
-0.396131 0.363443 -0.843202 0.530675 0.0765984 -0.844107 0.480594 0.0688934 -0.874233 
0.298915 0.00473201 -0.954268 0.0555187 -0.0250127 -0.998144 -0.134227 -0.013035 -0.990865 
0.017325 0.136999 -0.99042 0.148806 0.274424 -0.950026 -0.00820677 0.209517 -0.977771 
0.0101757 0.0748884 -0.99714 -0.0236305 0.0662692 -0.997522 -0.152977 0.119658 -0.980959 
-0.599401 0.215724 -0.770832 -0.365761 0.173988 -0.914301 -0.60652 0.191321 -0.771706 
0.503887 0.0563077 -0.861932 0.406914 0.0430954 -0.91245 0.218692 -0.0294805 -0.975348 
0.0649554 -0.104888 -0.99236 0.0686388 -0.0496286 -0.996406 0.215384 0.166174 -0.962287 
-0.120001 -0.0271481 -0.992402 -0.00269882 -0.0648743 -0.99789 -0.0755716 -0.00756949 -0.997112 
-0.264636 0.0353586 -0.9637 -0.610336 0.134658 -0.780613 -0.547457 0.117457 -0.82855 
0.503933 -0.0256124 -0.863363 0.377964 -0.0258941 -0.925458 0.159637 -0.0481187 -0.986002 
0.0410382 -0.0876344 -0.995307 0.132764 -0.0874967 -0.987278 -0.0201177 0.00340854 -0.999792 
0.0355622 -0.15044 -0.987979 0.0724396 -0.099802 -0.992367 -0.1166 -0.0743977 -0.990389 
-0.00418918 -0.0642436 -0.997925 -0.054123 -0.069749 -0.996095 -0.241075 -0.0577522 -0.968787 
-0.587256 -0.00490388 -0.809387 -0.494094 -0.0148964 -0.869281 0.492447 -0.0652222 -0.867895 
0.394008 -0.0642291 -0.91686 0.163229 -0.061386 -0.984677 0.0301675 -0.0381985 -0.998815 
0.139163 -0.034408 -0.989671 0.145606 -0.13164 -0.980546 -0.0123413 0.0228841 -0.999662 
-0.0870971 -0.157564 -0.98366 -0.0824914 -0.0864381 -0.992836 0.000856408 -0.0653372 -0.997863 
-0.0764086 -0.122843 -0.98948 -0.225226 -0.117943 -0.967141 -0.544472 -0.164294 -0.822531 
-0.534266 -0.216355 -0.81716 -0.484961 -0.159925 -0.859789 0.512704 -0.130273 -0.848624 
0.509488 -0.182195 -0.840968 0.42549 -0.114696 -0.897665 0.196609 -0.0312619 -0.979983 
0.0716025 0.0553934 -0.995894 0.0496552 0.0922574 -0.994496 0.0364214 -0.0255125 -0.999011 
0.000505261 -0.0343576 -0.999409 -0.0367992 -0.0491425 -0.998114 -0.0300446 -0.00736791 -0.999521 
-0.041554 -0.107436 -0.993343 -0.109136 -0.19684 -0.974343 -0.512857 -0.280257 -0.811439 
-0.341915 -0.446407 -0.826931 -0.275656 -0.242432 -0.930183 0.515112 -0.191419 -0.835475 
0.332517 -0.0503242 -0.941754 0.148927 0.0879328 -0.984931 0.0638396 0.098489 -0.993088 
0.00330501 0.115922 -0.993253 -0.031038 0.100893 -0.994413 -0.0516383 0.0412808 -0.997812 
-0.1373 -0.0282936 -0.990125 -0.186353 -0.163685 -0.968752 -0.326269 -0.441388 -0.835898 
-0.33725 -0.431853 -0.83652 -0.250999 -0.312937 -0.916008 0.554926 -0.160413 -0.816287 
0.421538 -0.125031 -0.89815 0.205025 -0.0790979 -0.975555 0.0722231 -0.00517625 -0.997375 
0.0376055 0.0118441 -0.999222 -0.0710573 0.00574546 -0.997456 -0.167237 -0.083473 -0.982377 
-0.234412 -0.182947 -0.954768 -0.365257 -0.441288 -0.819666 -0.415828 -0.454359 -0.787811 
-0.326422 -0.338094 -0.88269 0.512408 -0.307958 -0.801624 0.480032 -0.385572 -0.787974 
0.458002 -0.290052 -0.8403 0.252015 -0.284457 -0.924972 0.159452 -0.181427 -0.970391 
0.009452 -0.269589 -0.962929 -0.116558 -0.301791 -0.946222 -0.282477 -0.718286 -0.635824 
-0.24248 -0.352012 -0.904042 -0.452672 -0.528842 -0.717923 -0.397956 -0.617666 -0.678321 
-0.362307 -0.445469 -0.818713 0.245116 -0.586334 -0.772095 0.234639 -0.587885 -0.774168 
0.234519 -0.585052 -0.776348 0.112568 -0.700147 -0.70507 0.0966684 -0.588134 -0.802965 
-0.0597692 -0.703621 -0.708057 -0.0683259 -0.595552 -0.800406 -0.245391 -0.73448 -0.632711 
-0.20562 -0.713633 -0.669663 -0.171443 -0.660464 -0.731023 0.131711 0.109489 -0.985223 
-0.155958 0.096625 -0.983026 0.18003 0.051104 -0.982333 0.0754983 -0.149818 -0.985827 
0.0967363 -0.128009 -0.987044 -0.181978 0.0400641 -0.982486 -0.0595233 -0.0229536 -0.997963 
-0.196851 0.0554298 -0.978865 
