# vtk DataFile Version 4.2
vtk output
ASCII
DATASET POLYDATA
POINTS 571 float
70.0467 9.35267 -20.048 -35.8863 -43.6138 -14.436 -27.0586 -43.6138 -15.8971 
-18.2308 -43.6138 -15.9525 -9.40305 -43.6138 -13.8091 -53.5418 -34.7861 -11.3078 
-44.7141 -34.7861 -16.2829 -35.8863 -34.7861 -17.9633 -27.0586 -34.7861 -18.7213 
-18.2308 -34.7861 -19.0214 -9.40305 -34.7861 -18.6435 -0.575302 -34.7861 -17.1136 
8.25245 -34.7861 -15.2889 17.0802 -34.7861 -14.55 -53.5418 -25.9583 -14.3939 
-44.7141 -25.9583 -17.3503 -35.8863 -25.9583 -19.2261 -27.0586 -25.9583 -19.686 
-18.2308 -25.9583 -19.1243 -9.40305 -25.9583 -19.6701 -0.575302 -25.9583 -18.5154 
8.25245 -25.9583 -17.9594 17.0802 -25.9583 -16.9091 25.9079 -25.9583 -13.2901 
-62.3696 -17.1306 -11.228 -53.5418 -17.1306 -15.9008 -44.7141 -17.1306 -17.9292 
-35.8863 -17.1306 -19.1097 -27.0586 -17.1306 -18.8368 -18.2308 -17.1306 -17.7335 
-9.40305 -17.1306 -17.221 -0.575302 -17.1306 -18.028 8.25245 -17.1306 -16.927 
17.0802 -17.1306 -17.1179 25.9079 -17.1306 -13.7024 34.7357 -17.1306 -12.3202 
43.5634 -17.1306 -11.6298 52.3912 -17.1306 -12.2511 -62.3696 -8.30283 -12.2197 
-53.5418 -8.30283 -16.5687 -44.7141 -8.30283 -17.8922 -35.8863 -8.30283 -18.5464 
-27.0586 -8.30283 -17.996 -18.2308 -8.30283 -16.6975 -9.40305 -8.30283 -16.0772 
-0.575302 -8.30283 -19.1178 8.25245 -8.30283 -15.9843 17.0802 -8.30283 -17.0098 
25.9079 -8.30283 -14.3143 34.7357 -8.30283 -14.8846 43.5634 -8.30283 -14.676 
52.3912 -8.30283 -14.6459 61.2189 -8.30283 -15.0243 70.0467 -8.30283 -11.8548 
-62.3696 0.524916 -12.3402 -53.5418 0.524916 -16.8703 -44.7141 0.524916 -18.1559 
-35.8863 0.524916 -18.215 -27.0586 0.524916 -17.5257 -18.2308 0.524916 -16.4356 
-9.40305 0.524916 -19.5492 -0.575302 0.524916 -15.6055 8.25245 0.524916 -16.7206 
17.0802 0.524916 -17.681 25.9079 0.524916 -15.487 34.7357 0.524916 -16.0118 
43.5634 0.524916 -16.595 52.3912 0.524916 -17.1413 61.2189 0.524916 -15.1758 
70.0467 8.74173 -19.9506 70.0467 0.524916 -16.5923 -62.3696 9.35267 -11.4734 
-53.5418 9.35267 -16.4037 -44.7141 9.35267 -18.0858 -35.8863 9.35267 -18.8307 
-27.0586 9.35267 -18.0612 -18.2308 9.35267 -16.5201 -9.40305 9.35267 -16.7557 
-0.575302 9.35267 -19.317 8.25245 9.35267 -16.6762 17.0802 9.35267 -17.0943 
25.9079 9.35267 -16.8976 34.7357 9.35267 -17.0872 43.5634 9.35267 -17.4455 
52.3912 9.35267 -16.8329 69.6698 9.35267 -19.9506 61.2189 9.35267 -15.9969 
70.2705 9.35267 -19.9506 70.0467 9.74934 -19.9506 -53.5418 18.1804 -16.0384 
-44.7141 18.1804 -18.4808 -35.8863 18.1804 -19.3162 -27.0586 18.1804 -18.6589 
-18.2308 18.1804 -17.4508 -9.40305 18.1804 -16.5444 -0.575302 18.1804 -17.7873 
8.25245 18.1804 -17.0116 17.0802 18.1804 -17.6441 25.9079 18.1804 -17.8829 
34.7357 18.1804 -17.6946 43.5634 18.1804 -17.4915 52.3912 18.1804 -18.9202 
61.2189 18.1804 -14.5132 70.0467 18.1804 -13.4111 -53.5418 27.0082 -15.0771 
-44.7141 27.0082 -18.0221 -35.8863 27.0082 -19.362 -27.0586 27.0082 -19.3091 
-18.2308 27.0082 -18.1189 -9.40305 27.0082 -18.0958 -0.575302 27.0082 -18.4543 
8.25245 27.0082 -17.7869 17.0802 27.0082 -17.9226 25.9079 27.0082 -17.9926 
34.7357 27.0082 -17.8689 43.5634 27.0082 -16.8953 52.3912 27.0082 -14.8558 
61.2189 27.0082 -12.9026 -53.5418 35.8359 -12.6811 -44.7141 35.8359 -18.0423 
-35.8863 35.8359 -18.4778 -27.0586 35.8359 -19.3765 -18.2308 35.8359 -17.9381 
-9.40305 35.8359 -17.8282 -0.575302 35.8359 -17.3967 8.25245 35.8359 -16.3304 
17.0802 35.8359 -15.9967 25.9079 35.8359 -15.6294 34.7357 35.8359 -14.4385 
43.5634 35.8359 -12.6927 -44.7141 44.6637 -13.7636 -35.8863 44.6637 -16.1013 
-27.0586 44.6637 -16.1875 -18.2308 44.6637 -15.8587 -9.40305 44.6637 -14.704 
-0.575302 44.6637 -11.8493 -35.8863 -46.9748 -11.1229 -27.0586 -48.9665 -11.1229 
-27.0586 -52.4416 -2.36029 -18.2308 -49.369 -11.1229 -9.40305 -46.0307 -11.1229 
-53.5418 -35.0553 -11.1229 -44.3174 -43.6138 -11.1229 -44.7141 -43.3746 -11.1229 
-44.7141 -43.6138 -10.8534 -3.49181 -43.6138 -11.1229 -0.575302 -42.2109 -11.1229 
-0.575302 -43.6138 -8.19889 8.25245 -39.8065 -11.1229 8.25245 -43.6138 -4.29827 
17.0802 -39.0548 -11.1229 17.0802 -43.6138 -4.48039 -53.767 -34.7861 -11.1229 
25.5464 -34.7861 -11.1229 25.9079 -34.2539 -11.1229 25.9079 -34.7861 -10.9513 
34.7357 -34.7861 -5.8678 -58.3903 -25.9583 -11.1229 -62.3696 -17.5072 -11.1229 
-62.3696 -25.9583 -7.41949 30.7423 -25.9583 -11.1229 34.7357 -20.8224 -11.1229 
34.7357 -25.9583 -9.38972 43.5634 -18.3859 -11.1229 43.5634 -25.9583 -7.36624 
52.3912 -19.0375 -11.1229 52.3912 -25.9583 -5.35798 61.2189 -25.9583 -3.08993 
-62.4972 -17.1306 -11.1229 59.2896 -17.1306 -11.1229 61.2189 -16.5536 -11.1229 
61.2189 -17.1306 -10.7473 70.0467 -9.20498 -11.1229 70.0467 -17.1306 -6.48626 
-63.7364 -8.30283 -11.1229 8.25245 -8.30283 -6.95132 71.114 -8.30283 -11.1229 
78.8745 -8.30283 -6.754 -63.8278 0.524916 -11.1229 8.25245 0.524916 -7.56153 
74.8634 0.524916 -11.1229 78.8745 0.524916 -8.15553 -62.7671 9.35267 -11.1229 
-62.3696 11.5695 -11.1229 76.693 9.35267 -11.1229 78.8745 9.35267 -9.21929 
-60.7123 18.1804 -11.1229 -62.3696 18.1804 -9.18191 71.7114 18.1804 -11.1229 
70.0467 20.8904 -11.1229 78.8745 18.1804 -4.44466 -58.8476 27.0082 -11.1229 
-62.3696 27.0082 -6.14694 52.3912 35.2876 -11.1229 64.7996 27.0082 -11.1229 
61.2189 30.4151 -11.1229 70.0467 27.0082 -6.01404 -55.2525 35.8359 -11.1229 
-53.5418 38.5686 -11.1229 8.25245 41.9024 -11.1229 17.0802 40.1278 -11.1229 
25.9079 40.2176 -11.1229 34.7357 39.629 -11.1229 51.0469 35.8359 -11.1229 
43.5634 37.4084 -11.1229 52.3912 35.8359 -10.4246 61.2189 35.8359 -2.92022 
-48.6585 44.6637 -11.1229 -53.5418 44.6637 -2.96259 -44.7141 47.715 -11.1229 
-35.8863 50.5206 -11.1229 -27.0586 51.2516 -11.1229 -18.2308 50.8198 -11.1229 
-9.40305 48.1509 -11.1229 1.05427 44.6637 -11.1229 -0.575302 45.2217 -11.1229 
-0.575302 44.6637 -5.74476 -35.8863 53.4914 -3.38509 -27.0586 -52.4615 -2.29515 
-44.7141 -47.6092 -2.29515 -27.2187 -52.4416 -2.29515 -35.8863 -51.287 -2.29515 
-26.8996 -52.4416 -2.29515 -27.0586 -52.4416 -2.13083 -18.2308 -51.329 -2.29515 
-9.40305 -49.3963 -2.29515 -0.575302 -45.7362 -2.29515 8.25245 -44.4441 -2.29515 
17.0802 -44.6969 -2.29515 -50.3389 -43.6138 -2.29515 -53.5418 -40.8736 -2.29515 
23.4052 -43.6138 -2.29515 25.9079 -43.0787 -2.29515 25.9079 -43.6138 -0.418591 
34.7357 -38.3508 -2.29515 -59.3897 -34.7861 -2.29515 -62.3696 -30.976 -2.29515 
41.5018 -34.7861 -2.29515 43.5634 -33.1348 -2.29515 43.5634 -34.7861 -0.537465 
52.3912 -31.7182 -2.29515 61.2189 -26.3784 -2.29515 -65.662 -25.9583 -2.29515 
62.5491 -25.9583 -2.29515 70.0467 -23.1608 -2.29515 -68.8565 -17.1306 -2.29515 
8.25245 -10.6023 -2.29515 76.3574 -17.1306 -2.29515 78.8745 -14.4899 -2.29515 
-70.0916 -8.30283 -2.29515 2.77898 -8.30283 -2.29515 10.7062 -8.30283 -2.29515 
8.25245 -8.30283 1.41174 84.0089 -8.30283 -2.29515 -70.1694 0.524916 -2.29515 
1.01963 0.524916 -2.29515 11.3253 0.524916 -2.29515 8.25245 3.69864 -2.29515 
8.25245 0.524916 2.85871 85.5034 0.524916 -2.29515 -68.2495 9.35267 -2.29515 
86.1469 9.35267 -2.29515 -65.9915 18.1804 -2.29515 81.0311 18.1804 -2.29515 
78.8745 21.02 -2.29515 78.8745 18.1804 3.66623 -63.9234 27.0082 -2.29515 
-62.3696 30.4119 -2.29515 73.2252 27.0082 -2.29515 70.0467 29.6951 -2.29515 
70.0467 27.0082 3.82288 -59.3684 35.8359 -2.29515 -0.575302 44.2296 -2.29515 
-0.575302 35.8359 5.66137 8.25245 40.4642 -2.29515 8.25245 35.8359 2.86953 
17.0802 39.4915 -2.29515 17.0802 35.8359 2.45297 25.9079 40.1624 -2.29515 
25.9079 35.8359 4.37605 34.7357 40.7755 -2.29515 34.7357 35.8359 4.27148 
43.5634 40.4207 -2.29515 43.5634 35.8359 4.24265 52.3912 38.3731 -2.29515 
52.3912 35.8359 3.58432 61.6372 35.8359 -2.29515 61.2189 36.0735 -2.29515 
61.2189 35.8359 -1.55759 -53.9076 44.6637 -2.29515 -53.5418 44.9896 -2.29515 
-53.5418 44.6637 -0.835522 -44.7141 51.4374 -2.29515 -27.0586 53.2462 -2.29515 
-18.2308 51.2464 -2.29515 -1.54894 44.6637 -2.29515 -9.40305 47.77 -2.29515 
-9.40305 44.6637 1.81329 -36.9738 53.4914 -2.29515 -31.0765 53.4914 -2.29515 
-35.8863 53.4914 -1.43214 -44.7141 -45.0376 6.5326 -35.8863 -49.346 6.5326 
-27.0586 -51.1482 6.5326 -18.2308 -50.0367 6.5326 -9.40305 -48.2184 6.5326 
-0.575302 -45.1562 6.5326 8.25245 -44.6913 6.5326 17.0802 -45.7283 6.5326 
25.9079 -45.2275 6.5326 -47.0403 -43.6138 6.5326 -53.5418 -39.2554 6.5326 
-44.7141 -43.6138 8.07673 -35.8863 -43.6138 12.2421 -27.0586 -43.6138 14.3365 
-18.2308 -43.6138 14.0481 -9.40305 -43.6138 12.0577 -0.575302 -43.6138 8.75432 
8.25245 -43.6138 8.33052 17.0802 -43.6138 10.165 30.7406 -43.6138 6.5326 
25.9079 -43.6138 9.38729 34.7357 -42.2282 6.5326 43.5634 -38.6974 6.5326 
-58.205 -34.7861 6.5326 -62.3696 -30.2823 6.5326 -53.5418 -34.7861 11.023 
-0.575302 -34.7861 15.2553 51.0747 -34.7861 6.5326 43.5634 -34.7861 11.8725 
52.3912 -34.0573 6.5326 61.2189 -30.8558 6.5326 -65.5057 -25.9583 6.5326 
-62.3696 -25.9583 10.9062 -0.575302 -25.9583 15.1285 52.3912 -25.9583 14.9427 
69.9557 -25.9583 6.5326 61.2189 -25.9583 13.0069 70.0467 -25.8773 6.5326 
-69.39 -17.1306 6.5326 -9.40305 -17.1306 15.1308 -0.575302 -17.1306 13.8174 
8.25245 -17.1306 14.8451 61.2189 -17.1306 14.5542 77.845 -17.1306 6.5326 
78.8745 -16.0899 6.5326 -70.7883 -8.30283 6.5326 -9.40305 -8.30283 15.2762 
-0.575302 -8.30283 14.6131 8.25245 -8.30283 14.0075 17.0802 -8.30283 13.5358 
25.9079 -8.30283 14.6711 34.7357 -8.30283 15.2936 84.0272 -8.30283 6.5326 
78.8745 -8.30283 12.3826 -70.2579 0.524916 6.5326 -9.40305 0.524916 13.9505 
-0.575302 0.524916 8.81959 17.0802 0.524916 13.327 25.9079 0.524916 13.1888 
34.7357 0.524916 13.7848 82.5222 0.524916 6.5326 78.8745 0.524916 9.48526 
-68.481 9.35267 6.5326 -62.3696 9.35267 15.2159 -9.40305 9.35267 12.7519 
8.25245 9.35267 12.7424 17.0802 9.35267 11.7241 25.9079 9.35267 12.2601 
34.7357 9.35267 13.9903 43.5634 9.35267 14.742 61.2189 9.35267 14.1986 
70.0467 9.35267 15.236 84.3813 9.35267 6.5326 78.8745 16.5975 6.5326 
78.8745 9.35267 10.4264 -65.1854 18.1804 6.5326 -62.3696 18.1804 10.8537 
-9.40305 18.1804 12.0749 -0.575302 18.1804 11.5265 8.25245 18.1804 10.3606 
[...]
POINT_DATA 571
SCALARS ImageScalars float
LOOKUP_TABLE default
0 0 0 0 0 0 0 0 0 
0 0 0 0 0 0 0 0 0 
0 0 0 0 0 0 0 0 0 
0 0 0 0 0 0 0 0 0 
0 0 0 0 0 0 0 0 0 
0 0 0 0 0 0 0 0 0 
0 0 0 0 0 0 0 0 0 
0 0 0 0 0 0 0 0 0 
0 0 0 0 0 0 0 0 0 
0 0 0 0 0 0 0 0 0 
0 0 0 0 0 0 0 0 0 
0 0 0 0 0 0 0 0 0 
0 0 0 0 0 0 0 0 0 
0 0 0 0 0 0 0 0 0 
0 0 0 0 0 0 0 0 0 
0 0 0 0 0 0 0 0 0 
0 0 0 0 0 0 0 0 0 
0 0 0 0 0 0 0 0 0 
0 0 0 0 0 0 0 0 0 
0 0 0 0 0 0 0 0 0 
0 0 0 0 0 0 0 0 0 
0 0 0 0 0 0 0 0 0 
0 0 0 0 0 0 0 0 0 
0 0 0 0 0 0 0 0 0 
0 0 0 0 0 0 0 0 0 
0 0 0 0 0 0 0 0 0 
0 0 0 0 0 0 0 0 0 
0 0 0 0 0 0 0 0 0 
0 0 0 0 0 0 0 0 0 
0 0 0 0 0 0 0 0 0 
0 0 0 0 0 0 0 0 0 
0 0 0 0 0 0 0 0 0 
0 0 0 0 0 0 0 0 0 
0 0 0 0 0 0 0 0 0 
0 0 0 0 0 0 0 0 0 
0 0 0 0 0 0 0 0 0 
0 0 0 0 0 0 0 0 0 
0 0 0 0 0 0 0 0 0 
0 0 0 0 0 0 0 0 0 
0 0 0 0 0 0 0 0 0 
0 0 0 0 0 0 0 0 0 
0 0 0 0 0 0 0 0 0 
0 0 0 0 0 0 0 0 0 
0 0 0 0 0 0 0 0 0 
0 0 0 0 0 0 0 0 0 
0 0 0 0 0 0 0 0 0 
0 0 0 0 0 0 0 0 0 
0 0 0 0 0 0 0 0 0 
0 0 0 0 0 0 0 0 0 
0 0 0 0 0 0 0 0 0 
0 0 0 0 0 0 0 0 0 
0 0 0 0 0 0 0 0 0 
0 0 0 0 0 0 0 0 0 
0 0 0 0 0 0 0 0 0 
0 0 0 0 0 0 0 0 0 
0 0 0 0 0 0 0 0 0 
0 0 0 0 0 0 0 0 0 
0 0 0 0 0 0 0 0 0 
0 0 0 0 0 0 0 0 0 
0 0 0 0 0 0 0 0 0 
0 0 0 0 0 0 0 0 0 
0 0 0 0 0 0 0 0 0 
0 0 0 0 0 0 0 0 0 
0 0 0 0 
NORMALS Normals float
-0.130498 -0.064429 0.989353 0.24823 0.576918 0.778169 0.0653405 0.520862 0.851137 
-0.0988337 0.529079 0.842797 -0.27745 0.670277 0.688295 0.576909 0.439016 0.688797 
0.345512 0.310408 0.885589 0.122798 0.227981 0.965891 0.0547372 0.187022 0.98083 
-0.00207649 0.164757 0.986332 -0.103063 0.274338 0.956095 -0.178783 0.377596 0.908547 
-0.136078 0.490242 0.860898 -0.214872 0.46467 0.859018 0.425048 0.239289 0.872969 
0.254045 0.0795633 0.963914 0.121335 0.0574052 0.99095 -0.00360357 0.00911211 0.999952 
-0.00419209 -0.0722695 0.997376 -0.0364728 -0.0884801 0.99541 -0.0886576 0.0426674 0.995148 
-0.0926537 0.0751804 0.992856 -0.244626 0.127587 0.961187 -0.411364 0.132972 0.90172 
0.595708 0.179664 0.782849 0.356297 0.101763 0.928815 0.167626 0.0298174 0.9854 
0.0489428 -0.0389767 0.998041 -0.0769516 -0.0950595 0.992493 -0.0933543 -0.137054 0.986155 
0.0173568 -0.184153 0.982744 -0.0178117 0.0231711 0.999573 -0.0519994 -0.109178 0.992661 
-0.174045 0.00620528 0.984718 -0.280759 0.0563658 0.958122 -0.110013 0.29612 0.948794 
-0.00231263 0.360303 0.932832 -0.0307429 0.419363 0.907298 0.559277 0.056017 0.827086 
0.316419 0.0471165 0.947449 0.103643 0.0127739 0.994533 0.00474088 -0.050767 0.998699 
-0.0994332 -0.0736871 0.992312 -0.106813 -0.0749274 0.991452 0.119252 0.125317 0.984924 
-0.0227441 -0.100834 0.994643 -0.183462 -0.0358201 0.982374 -0.0983389 0.0264289 0.994802 
-0.112513 0.100943 0.98851 0.0204011 0.21114 0.977243 -0.0129738 0.261473 0.965123 
0.0242926 0.283033 0.958803 -0.102085 0.176113 0.979062 -0.419684 0.427418 0.800737 
0.577259 -0.0367454 0.815734 0.317652 -0.00802831 0.948174 0.0673956 0.010946 0.997666 
-0.0357294 0.016096 0.999232 -0.101023 0.0036844 0.994877 0.0990717 -0.00925723 0.995037 
0.0141373 0.0554872 0.998359 -0.271703 0.0466394 0.96125 0.197762 0.0808284 0.976912 
-0.0855607 0.00308929 0.996328 -0.0722819 0.143317 0.987034 0.0621849 0.123247 0.990426 
0.0625659 0.154193 0.986058 -0.0759221 0.112386 0.99076 -0.0565135 0.0551273 0.996879 
-0.138654 -0.0403774 0.989517 -0.297133 0.296077 0.907772 0.637741 -0.117792 0.761191 
0.344817 -0.0397476 0.937828 0.130801 0.0186254 0.991234 -0.00267198 0.0622581 0.998057 
-0.12926 0.0635246 0.989574 -0.0783519 0.052857 0.995524 0.168099 -0.181933 0.968836 
-0.0456853 0.0768749 0.995993 -0.114937 0.0174418 0.99322 0.0130839 0.00395284 0.999907 
-0.000204068 0.135188 0.99082 0.0309224 0.0945608 0.995039 -0.0144217 0.0501729 0.998636 
-0.0767872 0.0812617 0.99373 -0.120995 -0.0633999 0.990626 0.0873665 -0.035643 0.995538 
-0.147497 -0.0652199 0.98691 -0.138259 -0.0814893 0.987038 0.423023 -0.0632208 0.903911 
0.167268 -0.00317526 0.985906 0.0081491 0.0303389 0.999506 -0.0980599 0.070354 0.992691 
-0.124762 0.0942213 0.987703 0.0250936 0.0807653 0.996417 0.0272365 -0.0416162 0.998762 
-0.00866957 0.0666435 0.997739 0.0525074 0.0503243 0.997352 0.00291486 0.0629836 0.99801 
-0.0224211 0.0443764 0.998763 0.0581961 -0.0362063 0.997648 -0.14402 -0.0725389 0.986913 
-0.241278 -0.172345 0.95503 -0.474428 -0.49847 0.725565 0.490951 -0.177271 0.852961 
0.222675 -0.0245215 0.974584 0.0657589 -0.0428197 0.996916 -0.070225 0.0401266 0.996724 
-0.072256 0.0249738 0.997073 0.0195363 0.075581 0.996948 -0.0183097 -0.0186368 0.999659 
-0.0322606 -0.0364681 0.998814 0.012132 -0.0676697 0.997634 -0.00253144 -0.118037 0.993006 
-0.0769404 -0.182436 0.980203 -0.151408 -0.213299 0.965183 -0.260555 -0.410537 0.873825 
-0.320976 -0.325801 0.889285 0.624229 -0.3334 0.706528 0.285288 -0.220772 0.932669 
0.0688404 -0.157713 0.985083 -0.0335342 -0.178533 0.983362 -0.0869419 -0.129692 0.987735 
-0.0321669 -0.183555 0.982483 -0.0941944 -0.325808 0.940732 -0.0860068 -0.471141 0.877855 
-0.0430573 -0.594932 0.802622 -0.0936161 -0.5796 0.809506 -0.154362 -0.609335 0.777742 
-0.200919 -0.712566 0.672221 0.356001 -0.532079 0.768216 0.13435 -0.485033 0.864114 
-0.0152968 -0.488447 0.87246 -0.0849415 -0.472607 0.87717 -0.218729 -0.667462 0.711795 
-0.33655 -0.856138 0.392125 0.259345 0.72736 0.635364 0.102374 0.794791 0.598186 
0.000176956 0.995508 0.0946803 -0.159613 0.82674 0.539467 -0.326703 0.767532 0.551507 
0.580262 0.451149 0.678056 0.433625 0.635365 0.638969 0.43989 0.628573 0.641399 
0.445859 0.64444 0.621214 -0.290313 0.786063 0.545732 -0.27152 0.779151 0.564979 
-0.282451 0.874874 0.393469 -0.135423 0.734249 0.665235 -0.0733886 0.952625 0.295162 
-0.194299 0.67239 0.714241 -0.0933731 0.920683 0.378979 0.582305 0.4436 0.681278 
-0.40652 0.43367 0.804159 -0.415064 0.41273 0.810787 -0.41363 0.433497 0.800619 
-0.434206 0.532882 0.726294 0.56744 0.318058 0.759507 0.598996 0.189891 0.777911 
0.748795 0.433929 0.501011 -0.338951 0.232982 0.9115 -0.178393 0.302443 0.936325 
-0.291501 0.324773 0.89975 -0.0219425 0.381709 0.924022 -0.202493 0.533164 0.821421 
-0.0433481 0.471123 0.881002 -0.16309 0.606591 0.778106 -0.247213 0.833051 0.494886 
0.599645 0.180742 0.779589 -0.271312 0.469107 0.840433 -0.322599 0.460089 0.827192 
-0.331784 0.485648 0.808743 -0.427658 0.429406 0.795437 -0.434082 0.574939 0.693555 
0.605444 0.0561584 0.793904 0.366493 -0.929613 0.0387588 -0.441906 0.403049 0.801418 
-0.620027 0.337037 0.708501 0.623877 -0.0435156 0.78031 0.593804 0.766144 -0.245804 
-0.518281 0.194384 0.832826 -0.655394 0.134342 0.743243 0.651926 -0.122028 0.748399 
0.664886 -0.1263 0.736189 -0.611475 -0.154892 0.775955 -0.678841 -0.179165 0.712092 
0.689584 -0.132248 0.712028 0.79428 -0.166254 0.584362 -0.586904 -0.46418 0.663386 
-0.545085 -0.515916 0.660843 -0.732174 -0.538394 0.417197 0.675778 -0.23443 0.698833 
0.883276 -0.313218 0.348882 -0.273387 -0.672425 0.687826 -0.398612 -0.416319 0.817182 
-0.364289 -0.522744 0.770735 -0.660757 -0.645966 0.382267 0.679547 -0.370935 0.632948 
0.657342 -0.447474 0.606357 -0.249372 -0.906069 0.341837 -0.0944838 -0.926424 0.364432 
-0.026353 -0.919328 0.392608 -0.146694 -0.835537 0.529489 -0.261004 -0.699281 0.665495 
-0.203268 -0.782896 0.588011 -0.277248 -0.730193 0.624462 -0.406689 -0.911356 0.0635187 
0.5182 -0.614536 0.594823 0.711063 -0.690703 0.131601 0.412952 -0.692419 0.59163 
0.189412 -0.708361 0.679961 0.00917456 -0.823313 0.567513 -0.188817 -0.841312 0.506499 
-0.311698 -0.861893 0.399981 -0.328985 -0.885614 0.327808 -0.343526 -0.875529 0.339762 
-0.401207 -0.908583 -0.11623 0.107935 -0.993461 0.037216 -0.000383055 0.995785 0.0917165 
0.486639 0.870845 0.0693637 0.00392628 0.995767 0.0918284 0.259889 0.961094 0.0935745 
-0.00350386 0.995883 0.0905802 -0.000167549 0.996452 0.0841622 -0.182392 0.982955 0.0230879 
-0.305277 0.946525 0.104388 -0.274418 0.952277 0.133655 -0.0574265 0.974689 0.216063 
-0.0578519 0.953179 0.296823 0.60305 0.79104 0.102894 0.66588 0.733811 0.13463 
-0.253474 0.881362 0.398689 -0.331303 0.832068 0.444861 -0.30943 0.89752 0.314183 
-0.391669 0.710728 0.584346 0.751765 0.633499 0.183109 0.804827 0.548485 0.226754 
-0.307981 0.610824 0.729412 -0.268127 0.595648 0.757174 -0.331003 0.706494 0.625542 
-0.333516 0.721566 0.60672 -0.263306 0.849762 0.456701 0.870839 0.436369 0.226322 
-0.279631 0.845028 0.455779 -0.460824 0.753094 0.469564 0.919516 0.24178 0.30989 
0.310135 -0.944451 0.108762 -0.556668 0.716707 0.420062 -0.630991 0.655854 0.414373 
0.944945 0.0682599 0.32003 -0.403098 -0.913709 0.0514593 0.606476 -0.788273 0.103986 
0.381228 -0.902763 0.199209 -0.873197 0.311601 0.374743 0.948083 -0.101638 0.301343 
-0.981525 0.0663489 -0.179463 0.787011 0.616914 -0.0055603 0.552119 0.833632 -0.0149198 
0.70136 0.551828 0.451199 -0.96661 0.10544 0.233553 0.937744 -0.22536 0.264291 
-0.943419 -0.239359 0.229493 0.947502 -0.254614 0.193422 -0.769989 -0.591331 0.239678 
-0.72686 -0.658906 0.193696 -0.662898 -0.622112 -0.416586 0.937099 -0.322733 0.133003 
0.921414 -0.364058 0.13586 -0.712343 -0.697875 0.0744154 -0.692548 -0.718866 0.0600739 
-0.596417 -0.751474 -0.282088 0.881685 -0.457155 0.116794 -0.391122 -0.829177 -0.39936 
-0.255243 -0.510316 -0.821236 -0.23794 -0.86435 -0.443039 -0.155629 -0.695197 -0.701769 
-0.0094534 -0.922153 -0.38671 0.0554063 -0.776477 -0.627705 0.075044 -0.942909 -0.324487 
0.0815806 -0.757642 -0.647552 0.0149515 -0.970639 -0.240077 -0.00538807 -0.747732 -0.663978 
-0.138169 -0.976331 -0.166396 -0.0176927 -0.816853 -0.576575 -0.248795 -0.966388 -0.0647746 
-0.127085 -0.864311 -0.486637 -0.415816 -0.909134 0.0239212 -0.402325 -0.915114 0.0264653 
-0.409239 -0.91202 -0.0272635 0.718636 -0.687335 0.105511 0.709241 -0.697244 0.10406 
0.706742 -0.707043 0.0246049 0.415069 -0.90935 0.0282793 -0.148854 -0.980592 -0.1276 
-0.278878 -0.940828 -0.192535 -0.392908 -0.83136 -0.393018 -0.35772 -0.871436 -0.335612 
-0.386306 -0.747125 -0.540899 0.130356 -0.991165 -0.0244751 -0.0329996 -0.996077 -0.0821051 
0.089349 -0.992795 -0.0798487 0.425018 0.774446 -0.468608 0.282066 0.849908 -0.445078 
0.0244987 0.921112 -0.388527 -0.155072 0.895802 -0.416524 -0.253337 0.877076 -0.408115 
-0.191146 0.914155 -0.357468 0.0369056 0.959206 -0.280288 0.0294244 0.974231 -0.223625 
-0.19005 0.969276 -0.156156 0.457353 0.763418 -0.456094 0.579127 0.717886 -0.38633 
0.405335 0.737025 -0.54083 0.275599 0.6241 -0.731125 0.0786738 0.48791 -0.869341 
-0.0956859 0.547594 -0.831255 -0.205391 0.637605 -0.742478 -0.165822 0.845464 -0.507635 
0.0491094 0.912223 -0.406741 0.0376549 0.869453 -0.492579 -0.284893 0.952733 -0.105526 
-0.191059 0.90192 -0.387347 -0.362588 0.929519 -0.0672593 -0.434019 0.897674 -0.0762148 
0.674309 0.650017 -0.350408 0.758285 0.575646 -0.306 0.526341 0.613674 -0.588532 
-0.0476416 0.213229 -0.97584 -0.419781 0.902718 -0.0942552 -0.343945 0.762008 -0.548676 
-0.412362 0.905309 -0.101847 -0.448573 0.892232 -0.0520078 0.820277 0.494994 -0.286577 
0.707654 0.477202 -0.521061 0.00508608 -0.0768247 -0.997032 -0.282765 0.421324 -0.861702 
-0.608056 0.750653 -0.258434 -0.410579 0.482522 -0.773691 -0.60876 0.749673 -0.259618 
0.936788 0.271941 -0.220172 -0.227634 -0.0370136 -0.973043 -0.015754 -0.0388651 -0.99912 
0.113934 -0.111533 -0.987208 -0.228906 0.216712 -0.949019 -0.712953 0.639106 -0.288515 
-0.74345 0.594343 -0.306656 0.983878 0.0414175 -0.173977 -0.17467 -0.0579903 -0.982918 
-0.0931216 -0.0530944 -0.994238 -0.0844265 0.048034 -0.995271 0.0420797 -0.170981 -0.984375 
0.0996209 -0.199983 -0.974722 0.118085 -0.171459 -0.978089 -0.917067 0.237069 -0.320603 
-0.713289 0.155466 -0.68341 0.963073 -0.126903 -0.237459 -0.294797 -0.193089 -0.935848 
-0.0297553 -0.0105603 -0.999501 -0.178145 -0.15048 -0.97243 0.0290515 -0.134477 -0.990491 
0.158227 -0.0796298 -0.984187 -0.812922 -0.0053744 -0.582347 -0.709304 -0.0910377 -0.699 
0.935126 -0.262379 -0.238112 0.667496 -0.231107 -0.707841 -0.108554 -0.115449 -0.987364 
-0.261656 -0.318537 -0.911082 -0.0115212 -0.148818 -0.988797 0.12522 -0.0664022 -0.989904 
0.138619 -0.0587263 -0.988603 0.0867634 -0.0988639 -0.991311 -0.0359573 -0.223247 -0.974098 
-0.268138 -0.495005 -0.826482 -0.796775 -0.305202 -0.521537 -0.544539 -0.487592 -0.682445 
-0.470677 -0.27872 -0.837125 0.903355 -0.293685 -0.312568 0.830649 -0.248006 -0.498514 
-0.285391 -0.0835002 -0.954767 -0.0930354 -0.301104 -0.949042 -0.0420715 -0.221645 -0.97422 
0.0881527 -0.184391 -0.978892 0.107088 -0.142183 -0.984031 0.104829 -0.186807 -0.976788 
0.0227068 -0.223767 -0.974378 -0.118473 -0.177803 -0.976909 -0.155757 -0.302553 -0.94032 
-0.518694 -0.517224 -0.680761 -0.487622 -0.649294 -0.583645 -0.472682 -0.425914 -0.771472 
0.890088 -0.342833 -0.300349 0.884024 -0.353652 -0.305666 0.874543 -0.34026 -0.345539 
-0.301963 -0.187978 -0.934603 -0.228376 -0.448496 -0.864116 -0.165723 -0.300327 -0.939329 
-0.0968698 -0.439027 -0.893237 -0.0758799 -0.351764 -0.933008 0.0723605 -0.481381 -0.87352 
0.0722001 -0.38695 -0.91927 0.101298 -0.602519 -0.791649 0.132895 -0.36226 -0.922554 
0.0298419 -0.595002 -0.80317 0.0914285 -0.389369 -0.916533 0.0200311 -0.68381 -0.729385 
0.0737556 -0.403231 -0.912121 -0.10299 -0.702829 -0.703864 -0.138094 -0.398191 -0.906848 
-0.376177 -0.592345 -0.712473 -0.317742 -0.538681 -0.780296 -0.286204 -0.492716 -0.821777 
0.797645 -0.469002 -0.379208 0.640407 -0.643745 -0.418893 0.636057 -0.470746 -0.611415 
-0.242133 -0.399511 -0.884174 -0.356667 -0.413572 -0.837703 -0.266477 -0.461189 -0.846342 
-0.333436 -0.487271 -0.807086 -0.32508 -0.400349 -0.856763 0.504548 -0.727928 -0.464276 
0.310752 -0.786912 -0.533107 0.236765 -0.716669 -0.655993 -0.000115909 -0.766279 -0.642509 
-0.0129684 -0.634245 -0.773024 -0.188377 -0.723441 -0.664189 -0.205537 -0.669259 -0.714036 
-0.310288 -0.57965 -0.753477 -0.306123 -0.585359 -0.750762 -0.30398 -0.569303 -0.763866 
0.277192 0.532698 -0.799623 0.156503 0.462107 -0.872906 0.0619742 0.411155 -0.909456 
-0.0809445 0.402994 -0.911616 -0.131946 0.27421 -0.952575 0.0738602 0.272425 -0.959338 
0.0388707 0.394955 -0.917878 -0.0493569 0.353143 -0.934267 -0.183701 0.441808 -0.8781 
0.296748 0.529229 -0.794895 0.393792 0.454158 -0.799167 0.267454 0.522383 -0.809682 
0.0743493 0.382317 -0.921035 -0.00510624 0.287701 -0.957707 -0.0830675 0.179841 -0.980182 
-0.053311 0.205756 -0.97715 -0.112329 0.159166 -0.980841 0.00173392 0.230113 -0.973162 
0.0740692 0.257665 -0.963391 0.0459098 0.275097 -0.96032 -0.0282417 0.283111 -0.958671 
-0.189529 0.442727 -0.876397 -0.171993 0.38306 -0.90757 -0.174302 0.422808 -0.889299 
0.459038 0.411141 -0.787558 0.588474 0.271422 -0.761596 0.348649 0.383274 -0.855304 
0.172595 0.271496 -0.946837 -0.00520181 0.246612 -0.9691 -0.148909 0.147019 -0.977861 
-0.199168 0.0448188 -0.97894 -0.0383237 -0.0749187 -0.996453 -0.203026 -0.0457795 -0.978103 
-0.143671 -0.0627805 -0.987632 0.0384799 -0.0667754 -0.997026 0.120651 -0.0772555 -0.989684 
0.13214 -0.0356012 -0.990591 0.0575491 -0.0324518 -0.997815 -0.0167 0.00990153 -0.999812 
0.0502268 0.0496669 -0.997502 -0.256324 0.377864 -0.889672 -0.0910724 0.173999 -0.980525 
-0.266119 0.377889 -0.886781 -0.287142 0.522371 -0.802919 0.58969 0.268609 -0.761653 
0.587567 0.268594 -0.763297 0.286343 0.234304 -0.929037 0.100167 0.161921 -0.981707 
-0.0713166 0.108302 -0.991557 -0.218113 0.0468605 -0.974798 -0.232918 -0.0345276 -0.971883 
-0.289731 0.00313107 -0.957103 0.10258 -0.159951 -0.981781 0.0841335 -0.194775 -0.977233 
0.0931626 -0.200562 -0.975241 0.0786555 -0.171272 -0.982079 0.0507937 -0.124355 -0.990937 
0.113477 -0.167999 -0.979234 0.0283033 -0.101694 -0.994413 0.148658 -0.0635872 -0.986842 
-0.198761 0.185662 -0.962301 -0.135485 0.0633562 -0.988752 -0.259587 0.430557 -0.864428 
-0.0962621 0.160659 -0.982305 -0.293287 0.516464 -0.804517 -0.270825 0.50357 -0.820409 
0.675751 0.0602193 -0.734666 0.600401 0.0589205 -0.797525 0.226892 0.079322 -0.970684 
0.0312061 0.0541136 -0.998047 -0.124902 0.00291168 -0.992165 -0.237233 -0.0248109 -0.971136 
-0.178302 -0.0581972 -0.982253 -0.264395 -0.083975 -0.960751 -0.0168005 0.00866489 -0.999821 
0.116109 -0.166443 -0.979191 0.0805351 -0.070834 -0.994232 0.027845 -0.0903937 -0.995517 
0.114283 0.0543239 -0.991962 -0.496981 0.139491 -0.856477 -0.169698 0.0976824 -0.980643 
0.651847 -0.114025 -0.749729 0.659305 -0.221313 -0.718567 0.59355 -0.106718 -0.79769 
0.288828 -0.0608785 -0.955444 0.0241033 -0.0234823 -0.999434 -0.145369 -0.0161127 -0.989246 
-0.299017 -0.00585299 -0.95423 -0.280261 -0.0805618 -0.956537 -0.29145 -0.0190016 -0.956397 
0.0761023 0.018736 -0.996924 0.113488 -0.0572442 -0.991889 -0.075813 -0.0778266 -0.99408 
-0.0905777 -0.164985 -0.982128 0.0394949 -0.0400166 -0.998418 0.205384 -0.105734 -0.972953 
0.166944 -0.105493 -0.980306 0.213847 -0.11113 -0.970525 -0.00343533 -0.0685804 -0.99764 
0.0152306 -0.176041 -0.984265 0.013946 -0.164697 -0.986246 -0.355847 -0.20552 -0.911666 
-0.265997 -0.484124 -0.833588 -0.170128 -0.130269 -0.976774 0.658017 -0.227784 -0.717724 
0.319335 -0.13274 -0.938299 0.0739953 -0.0783423 -0.994177 -0.0991318 0.0140693 -0.994975 
-0.268136 0.00689454 -0.963356 -0.268477 -0.0519347 -0.961885 -0.357191 0.019451 -0.933829 
0.0121294 -0.170718 -0.985245 -0.111062 -0.282947 -0.952684 0.00854875 -0.245037 -0.969476 
0.0516048 -0.217953 -0.974594 -0.00399604 -0.225351 -0.974269 -0.0265764 -0.254023 -0.966833 
-0.0355034 -0.251098 -0.96731 -0.0280355 -0.258437 -0.965621 0.638865 -0.20476 -0.741569 
0.405638 -0.180175 -0.8961 0.173666 -0.12453 -0.976899 -0.0621989 -0.0872016 -0.994247 
-0.281285 -0.0650811 -0.957415 -0.402231 -0.0978546 -0.910294 -0.428564 -0.0986821 -0.898106 
0.533399 -0.348354 -0.770802 0.489443 -0.383597 -0.783134 0.453779 -0.343655 -0.822183 
0.179981 -0.236311 -0.954863 -0.0445633 -0.25433 -0.96609 -0.2424 -0.397436 -0.885035 
-0.253711 -0.241728 -0.936589 -0.414617 -0.197936 -0.888208 -0.414812 -0.206987 -0.886051 
-0.416715 -0.198416 -0.887119 0.351237 -0.438071 -0.827482 0.220741 -0.492186 -0.842037 
0.229412 -0.422446 -0.876875 -0.239216 -0.40035 -0.884588 -0.0502115 -0.517102 -0.85445 
-0.0802713 -0.449089 -0.889874 
