# vtk DataFile Version 4.2
vtk output
ASCII
DATASET POLYDATA
POINTS 544 float
-26.0353 -36.9388 -12.516 -18.5541 -36.9388 -14.0797 -11.073 -36.9388 -15.0217 
-3.59191 -36.9388 -15.7596 3.88921 -36.9388 -15.5146 11.3703 -36.9388 -14.2996 
18.8514 -36.9388 -12.0646 -33.5164 -29.4577 -15.1332 -26.0353 -29.4577 -15.819 
-18.5541 -29.4577 -15.5792 -11.073 -29.4577 -16.2539 -3.59191 -29.4577 -17.3802 
3.88921 -29.4577 -17.4105 11.3703 -29.4577 -17.3003 18.8514 -29.4577 -15.7724 
26.3326 -29.4577 -13.3035 -40.9975 -21.9766 -15.4933 -33.5164 -21.9766 -17.0096 
-26.0353 -21.9766 -16.9689 -18.5541 -21.9766 -16.1826 -11.073 -21.9766 -16.4258 
-3.59191 -21.9766 -17.2128 3.88921 -21.9766 -17.2795 11.3703 -21.9766 -17.0805 
18.8514 -21.9766 -16.2582 26.3326 -21.9766 -14.8702 33.8137 -21.9766 -13.1249 
-48.4786 -14.4955 -13.6722 -40.9975 -14.4955 -17.195 -33.5164 -14.4955 -17.8828 
-26.0353 -14.4955 -17.4979 -18.5541 -14.4955 -16.5116 -11.073 -14.4955 -15.6043 
-3.59191 -14.4955 -16.9565 3.88921 -14.4955 -16.1683 11.3703 -14.4955 -15.7292 
18.8514 -14.4955 -14.7966 26.3326 -14.4955 -14.6342 33.8137 -14.4955 -14.7909 
41.2948 -14.4955 -14.0456 -48.4786 -7.01434 -14.6228 -40.9975 -7.01434 -18.3533 
-33.5164 -7.01434 -18.5105 -26.0353 -7.01434 -17.7092 -18.5541 -7.01434 -16.5005 
-11.073 -7.01434 -16.8086 -3.59191 -7.01434 -19.2774 3.88921 -7.01434 -17.8109 
11.3703 -7.01434 -14.6575 18.8514 -7.01434 -13.5586 26.3326 -7.01434 -14.725 
33.8137 -7.01434 -14.9386 41.2948 -7.01434 -14.434 48.7759 -7.01434 -12.8851 
-48.4786 0.466778 -14.6967 -40.9975 0.466778 -17.6805 -33.5164 0.466778 -17.8104 
-26.0353 0.466778 -17.2231 -18.5541 0.466778 -15.8146 -11.073 0.466778 -18.1065 
-3.59191 0.466778 -15.5873 3.88921 0.466778 -15.4888 11.3703 0.466778 -13.3322 
18.8514 0.466778 -12.4208 26.3326 0.466778 -14.5134 33.8137 0.466778 -14.9501 
41.2948 0.466778 -14.2765 -48.4786 7.94789 -13.6346 -40.9975 7.94789 -16.4096 
-33.5164 7.94789 -16.7515 -26.0353 7.94789 -16.5885 -18.5541 7.94789 -16.2508 
-11.073 7.94789 -18.3442 -3.59191 7.94789 -17.2324 3.88921 7.94789 -14.8547 
11.3703 7.94789 -12.8621 18.8514 7.94789 -13.6577 26.3326 7.94789 -14.4451 
33.8137 7.94789 -14.7421 41.2948 7.94789 -12.5227 -40.9975 15.429 -14.288 
-33.5164 15.429 -15.9686 -26.0353 15.429 -16.4075 -18.5541 15.429 -16.043 
-11.073 15.429 -15.3488 -3.59191 15.429 -13.6813 3.88921 15.429 -12.6921 
11.3703 15.429 -13.1495 18.8514 15.429 -14.2724 26.3326 15.429 -14.4018 
33.8137 15.429 -12.7059 -40.9975 22.9101 -12.2389 -33.5164 22.9101 -14.2437 
-26.0353 22.9101 -15.0685 -18.5541 22.9101 -15.4833 -11.073 22.9101 -14.7514 
-3.59191 22.9101 -14.2774 3.88921 22.9101 -13.9535 11.3703 22.9101 -14.2847 
18.8514 22.9101 -15.1943 26.3326 22.9101 -14.8999 33.8137 22.9101 -12.3525 
-26.0353 30.3912 -13.0477 -18.5541 30.3912 -14.294 -11.073 30.3912 -14.1234 
-3.59191 30.3912 -14.2362 3.88921 30.3912 -14.3008 11.3703 30.3912 -14.5278 
18.8514 30.3912 -15.8308 26.3326 30.3912 -14.1772 -11.073 37.8724 -12.4109 
-3.59191 37.8724 -12.5109 3.88921 37.8724 -12.8837 11.3703 37.8724 -13.3211 
18.8514 37.8724 -14.2046 26.3326 37.8724 -12.9953 -26.0353 -37.7204 -12.0337 
-18.5541 -39.6027 -12.0337 -11.073 -40.6453 -12.0337 -11.073 -44.4199 -4.70895 
-3.59191 -41.8146 -12.0337 -3.59191 -44.4199 -5.16532 3.88921 -41.0033 -12.0337 
11.3703 -39.1571 -12.0337 18.8514 -36.97 -12.0337 -27.5058 -36.9388 -12.0337 
-33.5164 -34.1875 -12.0337 -33.5164 -36.9388 -8.62379 18.9214 -36.9388 -12.0337 
26.3326 -31.6718 -12.0337 26.3326 -36.9388 -4.92137 -40.3968 -29.4577 -12.0337 
-40.9975 -28.8912 -12.0337 -40.9975 -29.4577 -11.4755 30.011 -29.4577 -12.0337 
33.8137 -25.5044 -12.0337 33.8137 -29.4577 -10.2537 -46.439 -21.9766 -12.0337 
-48.4786 -17.8253 -12.0337 -48.4786 -21.9766 -8.179 38.4699 -21.9766 -12.0337 
41.2948 -20.3655 -12.0337 41.2948 -21.9766 -11.2062 48.7759 -21.9766 -7.17456 
-50.0069 -14.4955 -12.0337 47.4454 -14.4955 -12.0337 48.7759 -11.4294 -12.0337 
48.7759 -14.4955 -11.4024 56.257 -14.4955 -5.56259 -52.22 -7.01434 -12.0337 
50.4468 -7.01434 -12.0337 48.7759 -1.69343 -12.0337 56.257 -7.01434 -7.94361 
-52.9358 0.466778 -12.0337 -55.9597 0.466778 -6.79871 47.8892 0.466778 -12.0337 
48.7759 0.466778 -11.6388 -51.0568 7.94789 -12.0337 -48.4786 12.5648 -12.0337 
42.3823 7.94789 -12.0337 41.2948 8.84474 -12.0337 -46.091 15.429 -12.0337 
-48.4786 15.429 -10.6166 34.9563 15.429 -12.0337 41.2948 15.429 -4.8049 
-41.4342 22.9101 -12.0337 -48.4786 22.9101 -6.95312 -40.9975 23.4253 -12.0337 
-33.5164 29.2901 -12.0337 34.2599 22.9101 -12.0337 33.8137 27.0745 -12.0337 
-40.9975 30.3912 -7.93977 -31.4358 30.3912 -12.0337 -33.5164 30.3912 -11.5655 
-26.0353 32.3137 -12.0337 -18.5541 35.2793 -12.0337 32.9777 30.3912 -12.0337 
33.8137 30.3912 -11.4112 -26.0353 37.8724 -7.79546 -13.0125 37.8724 -12.0337 
-18.5541 37.8724 -10.3674 -11.073 38.4002 -12.0337 -3.59191 38.6484 -12.0337 
3.88921 39.4808 -12.0337 11.3703 40.6356 -12.0337 18.8514 41.5098 -12.0337 
29.077 37.8724 -12.0337 26.3326 39.6893 -12.0337 33.8137 37.8724 -8.42869 
3.88921 45.3535 -6.5353 11.3703 45.3535 -8.01668 18.8514 45.3535 -8.07205 
26.3326 45.3535 -7.01786 -11.073 -44.4724 -4.55255 -3.59191 -44.5929 -4.55255 
-33.5164 -39.4239 -4.55255 -26.0353 -42.0968 -4.55255 -12.049 -44.4199 -4.55255 
-18.5541 -44.0482 -4.55255 -11.073 -44.4199 -4.30655 -2.64498 -44.4199 -4.55255 
-3.59191 -44.4199 -3.95381 3.88921 -43.1151 -4.55255 11.3703 -41.4626 -4.55255 
18.8514 -39.9714 -4.55255 26.3326 -37.0852 -4.55255 -37.3717 -36.9388 -4.55255 
-40.9975 -34.1243 -4.55255 26.6996 -36.9388 -4.55255 26.3326 -36.9388 -2.67673 
33.8137 -33.8018 -4.55255 -45.1574 -29.4577 -4.55255 -48.4786 -24.2431 -4.55255 
41.194 -29.4577 -4.55255 41.2948 -29.3832 -4.55255 41.2948 -29.4577 -1.60664 
48.7759 -23.8429 -4.55255 -49.8113 -21.9766 -4.55255 -48.4786 -21.9766 -0.963744 
50.8314 -21.9766 -4.55255 56.257 -15.5036 -4.55255 -52.7363 -14.4955 -4.55255 
56.8872 -14.4955 -4.55255 -55.0806 -7.01434 -4.55255 -55.9597 -2.93855 -4.55255 
58.3821 -7.01434 -4.55255 56.257 -1.53815 -4.55255 -56.6989 0.466778 -4.55255 
-55.9597 4.92568 -4.55255 -55.9597 0.466778 -1.98042 55.3103 0.466778 -4.55255 
48.7759 7.19246 -4.55255 -55.4458 7.94789 -4.55255 48.0215 7.94789 -4.55255 
-53.4486 15.429 -4.55255 41.4468 15.429 -4.55255 41.2948 15.7169 -4.55255 
41.2948 15.429 -4.18958 -49.9001 22.9101 -4.55255 -48.4786 24.7497 -4.55255 
-48.4786 22.9101 2.79587 38.3091 22.9101 -4.55255 -43.419 30.3912 -4.55255 
-40.9975 32.48 -4.55255 -33.5164 36.9597 -4.55255 36.5827 30.3912 -4.55255 
-31.5265 37.8724 -4.55255 -26.0353 39.9542 -4.55255 -18.5541 42.0118 -4.55255 
-11.073 43.759 -4.55255 -3.59191 45.3378 -4.55255 35.3539 37.8724 -4.55255 
33.8137 40.4448 -4.55255 -3.49131 45.3535 -4.55255 3.88921 46.4159 -4.55255 
11.3703 47.1449 -4.55255 18.8514 47.5213 -4.55255 28.5921 45.3535 -4.55255 
26.3326 46.6722 -4.55255 -33.5164 -37.0145 2.92856 -26.0353 -40.2398 2.92856 
-18.5541 -41.6644 2.92856 -11.073 -42.5808 2.92856 -3.59191 -42.2817 2.92856 
3.88921 -41.0084 2.92856 11.3703 -39.6993 2.92856 18.8514 -38.7139 2.92856 
-33.6259 -36.9388 2.92856 -40.9975 -30.7629 2.92856 -33.5164 -36.9388 3.01511 
-26.0353 -36.9388 6.60747 -18.5541 -36.9388 7.62986 -11.073 -36.9388 9.60763 
24.9799 -36.9388 2.92856 18.8514 -36.9388 8.73497 26.3326 -36.508 2.92856 
33.8137 -33.5993 2.92856 41.2948 -29.5549 2.92856 -42.0997 -29.4577 2.92856 
-40.9975 -29.4577 4.12343 -33.5164 -29.4577 8.60854 -26.0353 -29.4577 10.3426 
41.4266 -29.4577 2.92856 41.2948 -29.4577 3.13565 48.7759 -24.1979 2.92856 
-46.2789 -21.9766 2.92856 -48.4786 -17.8638 2.92856 -40.9975 -21.9766 7.61421 
51.2395 -21.9766 2.92856 48.7759 -21.9766 6.98287 56.257 -15.5522 2.92856 
-49.7826 -14.4955 2.92856 -48.4786 -14.4955 4.43487 -40.9975 -14.4955 9.95861 
56.8925 -14.4955 2.92856 56.257 -14.4955 4.15473 -52.5705 -7.01434 2.92856 
-48.4786 -7.01434 7.65232 58.1982 -7.01434 2.92856 56.257 -2.76802 2.92856 
56.257 -7.01434 6.70065 -54.1057 0.466778 2.92856 -48.4786 0.466778 9.61128 
54.4473 0.466778 2.92856 48.7759 6.1265 2.92856 -53.355 7.94789 2.92856 
-48.4786 7.94789 8.86107 46.7271 7.94789 2.92856 41.2948 12.5774 2.92856 
-52.0641 15.429 2.92856 -48.4786 22.861 2.92856 -48.4786 15.429 7.20661 
38.4318 15.429 2.92856 -48.444 22.9101 2.92856 -40.9975 22.9101 10.2007 
37.1282 22.9101 2.92856 -41.7165 30.3912 2.92856 -40.9975 31.0262 2.92856 
-40.9975 30.3912 3.71707 -33.5164 35.5316 2.92856 -33.5164 30.3912 8.3248 
35.7115 30.3912 2.92856 33.8137 30.3912 9.65026 -29.239 37.8724 2.92856 
-26.0353 39.256 2.92856 -26.0353 37.8724 5.1556 -18.5541 41.2215 2.92856 
-18.5541 37.8724 7.72505 -11.073 42.8169 2.92856 -3.59191 44.2577 2.92856 
34.4914 37.8724 2.92856 33.8137 38.9892 2.92856 33.8137 37.8724 4.25494 
2.81965 45.3535 2.92856 3.88921 45.5204 2.92856 3.88921 45.3535 3.25997 
11.3703 46.1743 2.92856 11.3703 45.3535 4.49887 18.8514 46.5548 2.92856 
18.8514 45.3535 5.19789 26.7641 45.3535 2.92856 26.3326 45.5941 2.92856 
26.3326 45.3535 3.32448 -3.59191 -37.9716 10.4097 3.88921 -38.0872 10.4097 
11.3703 -37.3383 10.4097 -18.5541 -31.8315 10.4097 -8.05057 -36.9388 10.4097 
-11.073 -35.5774 10.4097 -3.59191 -36.9388 11.6023 3.88921 -36.9388 12.1107 
14.3262 -36.9388 10.4097 11.3703 -36.9388 11.1354 18.8514 -36.3146 10.4097 
26.3326 -33.8881 10.4097 33.8137 -30.1887 10.4097 -33.5164 -24.6928 10.4097 
-25.5909 -29.4577 10.4097 -26.0353 -29.2595 10.4097 -18.5541 -29.4577 11.5005 
-11.073 -29.4577 13.42 -3.59191 -29.4577 16.2874 26.3326 -29.4577 15.9335 
35.0948 -29.4577 10.4097 33.8137 -29.4577 11.2656 41.2948 -25.3889 10.4097 
-35.5518 -21.9766 10.4097 -33.5164 -21.9766 11.1814 -26.0353 -21.9766 12.9461 
-18.5541 -21.9766 13.5503 -11.073 -21.9766 15.0174 -3.59191 -21.9766 17.6688 
33.8137 -21.9766 17.091 45.7597 -21.9766 10.4097 41.2948 -21.9766 13.496 
48.7759 -18.7325 10.4097 -40.0837 -14.4955 10.4097 -40.9975 -12.8873 10.4097 
-33.5164 -14.4955 13.389 -26.0353 -14.4955 15.2971 -18.5541 -14.4955 16.1949 
[...]
POINT_DATA 544
SCALARS ImageScalars float
LOOKUP_TABLE default
0 0 0 0 0 0 0 0 0 
0 0 0 0 0 0 0 0 0 
0 0 0 0 0 0 0 0 0 
0 0 0 0 0 0 0 0 0 
0 0 0 0 0 0 0 0 0 
0 0 0 0 0 0 0 0 0 
0 0 0 0 0 0 0 0 0 
0 0 0 0 0 0 0 0 0 
0 0 0 0 0 0 0 0 0 
0 0 0 0 0 0 0 0 0 
0 0 0 0 0 0 0 0 0 
0 0 0 0 0 0 0 0 0 
0 0 0 0 0 0 0 0 0 
0 0 0 0 0 0 0 0 0 
0 0 0 0 0 0 0 0 0 
0 0 0 0 0 0 0 0 0 
0 0 0 0 0 0 0 0 0 
0 0 0 0 0 0 0 0 0 
0 0 0 0 0 0 0 0 0 
0 0 0 0 0 0 0 0 0 
0 0 0 0 0 0 0 0 0 
0 0 0 0 0 0 0 0 0 
0 0 0 0 0 0 0 0 0 
0 0 0 0 0 0 0 0 0 
0 0 0 0 0 0 0 0 0 
0 0 0 0 0 0 0 0 0 
0 0 0 0 0 0 0 0 0 
0 0 0 0 0 0 0 0 0 
0 0 0 0 0 0 0 0 0 
0 0 0 0 0 0 0 0 0 
0 0 0 0 0 0 0 0 0 
0 0 0 0 0 0 0 0 0 
0 0 0 0 0 0 0 0 0 
0 0 0 0 0 0 0 0 0 
0 0 0 0 0 0 0 0 0 
0 0 0 0 0 0 0 0 0 
0 0 0 0 0 0 0 0 0 
0 0 0 0 0 0 0 0 0 
0 0 0 0 0 0 0 0 0 
0 0 0 0 0 0 0 0 0 
0 0 0 0 0 0 0 0 0 
0 0 0 0 0 0 0 0 0 
0 0 0 0 0 0 0 0 0 
0 0 0 0 0 0 0 0 0 
0 0 0 0 0 0 0 0 0 
0 0 0 0 0 0 0 0 0 
0 0 0 0 0 0 0 0 0 
0 0 0 0 0 0 0 0 0 
0 0 0 0 0 0 0 0 0 
0 0 0 0 0 0 0 0 0 
0 0 0 0 0 0 0 0 0 
0 0 0 0 0 0 0 0 0 
0 0 0 0 0 0 0 0 0 
0 0 0 0 0 0 0 0 0 
0 0 0 0 0 0 0 0 0 
0 0 0 0 0 0 0 0 0 
0 0 0 0 0 0 0 0 0 
0 0 0 0 0 0 0 0 0 
0 0 0 0 0 0 0 0 0 
0 0 0 0 0 0 0 0 0 
0 0 0 0 
NORMALS Normals float
-0.261155 -0.49638 -0.827892 -0.158159 -0.448661 -0.879596 -0.119611 -0.424551 -0.897469 
-0.0271744 -0.441007 -0.897092 0.0851839 -0.511383 -0.855121 0.231634 -0.635964 -0.736135 
0.306069 -0.701 -0.644143 -0.190962 -0.392256 -0.899816 -0.0330989 -0.292811 -0.955597 
-0.0303163 -0.141988 -0.989404 -0.120312 -0.0790034 -0.989588 -0.0756886 -0.0930351 -0.992782 
0.00482414 -0.106439 -0.994308 0.115179 -0.133565 -0.984324 0.238479 -0.231719 -0.943098 
0.328851 -0.360165 -0.873005 -0.358704 -0.28331 -0.889419 -0.0965043 -0.184377 -0.978106 
0.0560254 -0.102526 -0.993151 0.035369 -0.0593152 -0.997613 -0.0670512 0.0432643 -0.996811 
-0.0578104 0.0284802 -0.997921 0.00884041 0.0818876 -0.996602 0.0678284 0.10592 -0.992059 
0.147193 0.062892 -0.987106 0.200019 -0.0764391 -0.976806 0.220565 -0.243149 -0.944579 
-0.661226 -0.257008 -0.704788 -0.213274 -0.198798 -0.956553 -0.0154689 -0.105301 -0.99432 
0.0850834 -0.0487457 -0.995181 0.130878 -0.0220632 -0.991153 -0.0358296 -0.0149688 -0.999246 
-0.039997 -0.118325 -0.992169 0.0822749 -0.0331383 -0.996059 0.0928441 0.138145 -0.986051 
0.0737409 0.178416 -0.981188 0.000753181 0.00987148 -0.999951 0.0479658 -0.119635 -0.991659 
0.188172 -0.174171 -0.966569 -0.537077 -0.0473674 -0.842202 -0.239818 -0.0275996 -0.970425 
0.0451358 0.00499802 -0.998968 0.132975 0.0183857 -0.990949 0.0642345 0.0473654 -0.99681 
-0.175762 -0.161699 -0.971062 -0.0516229 0.00964061 -0.99862 0.2231 -0.00234764 -0.974793 
0.342708 0.135369 -0.929638 -0.0327515 0.156959 -0.987062 -0.093415 0.00734761 -0.9956 
0.0183675 -0.0102052 -0.999779 0.123256 -0.019873 -0.992176 0.339482 -0.0211096 -0.940376 
-0.457292 0.0662754 -0.886844 -0.195668 0.111481 -0.974313 0.0315212 0.115797 -0.992773 
0.132535 0.0746431 -0.988364 -0.019718 0.0161538 -0.999675 -0.0492114 -0.104158 -0.993343 
0.17747 0.152824 -0.972188 0.0939566 0.247384 -0.964351 0.223554 0.114609 -0.96793 
-0.110391 -0.00701702 -0.993864 -0.157301 0.0191734 -0.987365 0.0158716 0.0119236 -0.999803 
0.176825 0.125013 -0.976271 -0.449011 0.212962 -0.867776 -0.219191 0.222993 -0.949858 
-0.00859389 0.127121 -0.99185 0.0338367 0.0542335 -0.997955 -0.1009 -0.0151582 -0.994781 
-0.0865218 0.198813 -0.976211 0.173715 0.159405 -0.971809 0.286315 0.215614 -0.93356 
0.0224479 -0.00461845 -0.999737 -0.0917109 -0.11695 -0.988894 -0.070577 0.0071344 -0.997481 
0.131633 0.149962 -0.97989 0.364568 0.383265 -0.848645 -0.297345 0.222834 -0.928402 
-0.127252 0.152657 -0.980052 -0.0074292 0.101062 -0.994852 0.0698184 0.0509345 -0.996259 
0.148973 0.222826 -0.963408 0.186004 0.169597 -0.967801 0.0319129 -0.00644722 -0.99947 
-0.109128 -0.0926469 -0.989701 -0.07601 -0.101981 -0.991878 0.0963161 -0.0315468 -0.994851 
0.403548 0.159634 -0.900925 -0.346988 0.318353 -0.882185 -0.15465 0.260719 -0.952948 
-0.0766833 0.205975 -0.975548 0.0218245 0.109893 -0.993704 0.0796124 0.0812098 -0.993512 
0.0529665 -0.032712 -0.99806 -0.000300165 -0.105265 -0.994444 -0.0843936 -0.0863689 -0.992682 
-0.0400011 -0.101124 -0.994069 0.183186 0.0107818 -0.983019 0.553943 0.0588474 -0.830472 
-0.152534 0.36724 -0.917534 -0.0637009 0.289424 -0.955079 0.00270565 0.153997 -0.988068 
-0.0118739 0.109129 -0.993957 -0.0194329 0.064333 -0.997739 -0.0969104 0.0594061 -0.993519 
0.0141582 0.076329 -0.996982 0.23543 0.11262 -0.965344 -0.104395 0.477792 -0.872248 
-0.0307317 0.403804 -0.914329 -0.0513672 0.334996 -0.940818 -0.0915947 0.292583 -0.951843 
0.00661617 0.372199 -0.928129 0.259792 0.318262 -0.911711 -0.268719 -0.538614 -0.798552 
-0.129341 -0.630275 -0.765522 -0.125902 -0.668079 -0.733362 -0.0363601 -0.996835 -0.0706957 
-0.00976423 -0.777828 -0.628401 0.081101 -0.995957 -0.0386391 0.151568 -0.798807 -0.582181 
0.25639 -0.782286 -0.567708 0.306029 -0.702964 -0.642018 -0.28233 -0.541899 -0.791603 
-0.283869 -0.620439 -0.731077 -0.411204 -0.809668 -0.418747 0.306745 -0.701948 -0.642788 
0.365772 -0.47742 -0.798925 0.377648 -0.910204 -0.170031 -0.525098 -0.538177 -0.659271 
-0.545308 -0.52654 -0.652223 -0.574248 -0.557175 -0.599829 0.346394 -0.426784 -0.835384 
0.285086 -0.356485 -0.889744 0.397704 -0.568728 -0.719986 -0.681317 -0.382837 -0.623894 
-0.730792 -0.347003 -0.58782 -0.85836 -0.444541 -0.256128 0.258917 -0.356123 -0.897852 
0.259738 -0.37013 -0.89193 0.302735 -0.452464 -0.838826 0.594857 -0.628344 -0.501327 
-0.746874 -0.30716 -0.589773 0.397611 -0.237223 -0.886358 0.402324 -0.15209 -0.902776 
0.458299 -0.267533 -0.847578 0.824884 -0.413974 -0.384956 -0.729498 -0.139693 -0.669566 
0.408656 -0.0103043 -0.91263 0.435033 0.182925 -0.881637 0.826886 0.0567347 -0.5595 
-0.671762 0.0480106 -0.739209 -0.978646 -0.00801279 -0.205399 0.439082 0.249811 -0.863019 
0.490053 0.289221 -0.822313 -0.581983 0.242334 -0.776254 -0.506584 0.275143 -0.81711 
0.400492 0.418889 -0.814947 0.40099 0.3995 -0.824383 -0.471767 0.278146 -0.836702 
-0.611094 0.330457 -0.719279 0.45765 0.196592 -0.867126 0.817493 0.568315 -0.0933973 
-0.364175 0.326608 -0.872183 -0.756172 0.536208 -0.375079 -0.357614 0.336909 -0.870979 
-0.221021 0.431456 -0.87464 0.58522 0.0701264 -0.807837 0.620244 0.0993214 -0.778096 
-0.578115 0.677019 -0.455443 -0.207911 0.434575 -0.876309 -0.24526 0.484001 -0.839994 
-0.175037 0.444261 -0.878632 -0.166211 0.457219 -0.873685 0.620808 0.136596 -0.77197 
0.713843 0.143967 -0.685348 -0.28366 0.819215 -0.498421 -0.132059 0.499641 -0.856107 
-0.228248 0.63726 -0.736072 -0.106743 0.50989 -0.853591 -0.0408821 0.447395 -0.893402 
-0.0685776 0.419899 -0.904976 -0.0807462 0.446312 -0.891227 0.0248111 0.549136 -0.835365 
0.398456 0.356345 -0.845134 0.266052 0.406992 -0.873827 0.780207 0.417408 -0.465883 
-0.13042 0.92819 -0.348503 -0.0621142 0.884095 -0.463161 0.0335794 0.865974 -0.498961 
0.332214 0.856472 -0.395081 -0.0343293 -0.997604 -0.0600574 0.0856616 -0.996315 0.0043275 
-0.451699 -0.887146 -0.09455 -0.289248 -0.955089 -0.0643482 -0.0506503 -0.99648 -0.0668004 
-0.164914 -0.98003 -0.11111 -0.0337792 -0.998352 -0.0463877 0.0990229 -0.995049 0.00845923 
0.0888885 -0.995478 0.0335011 0.193576 -0.980727 0.0265106 0.212342 -0.977195 -0.00115 
0.268188 -0.960531 -0.0738633 0.373897 -0.915767 -0.146876 -0.566403 -0.822613 -0.0499469 
-0.681938 -0.731302 -0.0125926 0.376882 -0.914125 -0.149448 0.363189 -0.929133 -0.0693186 
0.459945 -0.853922 -0.243449 -0.803413 -0.595414 0.00318213 -0.873569 -0.486187 0.0223455 
0.575253 -0.777368 -0.254524 0.575701 -0.776612 -0.255816 0.576374 -0.813297 -0.0796292 
0.624778 -0.724995 -0.289886 -0.893679 -0.448688 -0.00418852 -0.832851 -0.483194 0.26997 
0.650516 -0.692647 -0.31156 0.831125 -0.458199 -0.315096 -0.939271 -0.340746 0.0407713 
0.860758 -0.402614 -0.311444 -0.96792 -0.249473 0.0299093 -0.991635 -0.128691 0.00989179 
0.95421 0.0883448 -0.285795 0.916347 0.336962 -0.216252 -0.99946 -0.0261794 -0.01984 
-0.993449 0.103981 -0.0474024 -0.98655 -0.0452923 0.157059 0.875605 0.44027 -0.198689 
0.645515 0.754698 -0.117222 -0.977807 0.197027 -0.0712293 0.642506 0.758794 -0.106854 
-0.91758 0.352326 -0.184156 0.817635 0.570778 -0.0753995 0.824586 0.560759 -0.0748805 
0.818367 0.571938 -0.0562347 -0.817244 0.551551 -0.167047 -0.786324 0.593057 -0.173141 
-0.745959 0.53035 0.402833 0.949292 0.292037 -0.116441 -0.673042 0.718808 -0.174154 
-0.612354 0.770875 -0.175428 -0.444215 0.880277 -0.166689 0.975509 0.192933 -0.105637 
-0.409475 0.894113 -0.181361 -0.313903 0.921165 -0.230042 -0.25863 0.944397 -0.203039 
-0.21198 0.954552 -0.209511 -0.171558 0.966246 -0.19219 0.91804 0.37365 -0.132621 
0.837924 0.524627 -0.150497 -0.170893 0.966404 -0.191986 -0.12453 0.97349 -0.191858 
-0.0760637 0.981965 -0.173088 0.0251976 0.976789 -0.212718 0.466171 0.865505 -0.183264 
0.345196 0.921119 -0.179944 -0.491311 -0.695457 0.524359 -0.273665 -0.818171 0.505672 
-0.146411 -0.839181 0.523773 -0.0305068 -0.89697 0.441037 0.0983677 -0.9215 0.375716 
0.165314 -0.939097 0.301276 0.156202 -0.957116 0.243986 0.195633 -0.953571 0.228976 
-0.493736 -0.693773 0.524312 -0.629165 -0.549591 0.549638 -0.490799 -0.692501 0.528732 
-0.238073 -0.644902 0.726239 -0.158306 -0.614173 0.77313 -0.196748 -0.591384 0.782019 
0.293629 -0.938687 0.180689 0.185124 -0.912675 0.364352 0.315831 -0.932944 0.172817 
0.416499 -0.888124 0.194328 0.542383 -0.819889 0.18331 -0.65947 -0.510639 0.551676 
-0.615738 -0.499785 0.609165 -0.351985 -0.444059 0.823965 -0.155077 -0.367376 0.917053 
0.543817 -0.819191 0.182178 0.54146 -0.818332 0.192753 0.6297 -0.75752 0.172165 
-0.669024 -0.436648 0.601453 -0.722795 -0.399492 0.563891 -0.537787 -0.325346 0.777776 
0.66828 -0.716999 0.198278 0.63687 -0.647438 0.418594 0.87529 -0.417377 0.244262 
-0.771988 -0.330793 0.54278 -0.713935 -0.338604 0.612898 -0.484337 -0.228178 0.844602 
0.900718 -0.358006 0.246048 0.877345 -0.366413 0.309851 -0.808429 -0.243202 0.536 
-0.634908 -0.233945 0.736316 0.957508 0.130404 0.25724 0.904504 0.328262 0.272244 
0.870436 0.125264 0.476078 -0.849991 -0.0598506 0.523387 -0.600095 -0.0743162 0.796469 
0.813744 0.508751 0.281057 0.617879 0.737645 0.272223 -0.86412 0.122325 0.488193 
-0.641156 0.116461 0.758522 0.592871 0.755995 0.277446 0.687478 0.640213 0.342786 
-0.855259 0.282936 0.434141 -0.743511 0.52676 0.411964 -0.681675 0.263371 0.682609 
0.81308 0.461299 0.355112 -0.742565 0.528314 0.411681 -0.476414 0.34829 0.807294 
0.946952 0.16809 0.273912 -0.611491 0.681945 0.401286 -0.595465 0.695492 0.402136 
-0.585714 0.677157 0.445419 -0.442324 0.811124 0.382659 -0.372608 0.602264 0.706004 
0.967594 0.158519 0.196554 0.879799 0.196917 0.43264 -0.38561 0.853837 0.349667 
-0.331533 0.880593 0.338587 -0.322956 0.822359 0.468428 -0.227557 0.913539 0.337141 
-0.229759 0.767145 0.598916 -0.19261 0.932552 0.305365 -0.163277 0.940656 0.297501 
0.874485 0.379255 0.302392 0.841725 0.444155 0.306962 0.840864 0.405649 0.358324 
-0.128521 0.942267 0.309217 -0.122033 0.942393 0.311454 -0.120696 0.93801 0.324915 
-0.0691269 0.945723 0.317537 -0.067068 0.920378 0.385236 0.030729 0.945806 0.323274 
0.0425143 0.90375 0.425944 0.355165 0.866195 0.351516 0.331517 0.874963 0.352897 
0.33185 0.867218 0.371225 -0.0978913 -0.751427 0.652514 0.038961 -0.874447 0.483555 
0.107874 -0.909845 0.40068 -0.174233 -0.403246 0.898352 -0.171522 -0.63439 0.753744 
-0.219589 -0.526449 0.82136 -0.133346 -0.705488 0.696064 0.00820388 -0.830781 0.556539 
0.13556 -0.904655 0.404008 0.101652 -0.896726 0.430755 0.186082 -0.890724 0.41471 
0.338027 -0.827524 0.448266 0.429014 -0.727306 0.535698 -0.303712 -0.326993 0.894894 
-0.155102 -0.364644 0.918139 -0.153686 -0.36454 0.918418 -0.174883 -0.333043 0.926552 
-0.283986 -0.313742 0.906045 -0.299364 -0.320673 0.898638 0.361859 -0.603645 0.710402 
0.43472 -0.719888 0.541092 0.429746 -0.701443 0.568591 0.46185 -0.66797 0.583532 
-0.348208 -0.281853 0.894041 -0.291272 -0.275301 0.916171 -0.145676 -0.294334 0.944535 
-0.128482 -0.288882 0.948704 -0.258914 -0.224898 0.939353 -0.285887 -0.119678 0.950761 
0.355409 -0.415094 0.837485 0.547272 -0.569867 0.61298 0.450888 -0.53468 0.714715 
0.621744 -0.447475 0.642806 -0.460506 -0.224514 0.858794 -0.46685 -0.214844 0.857842 
-0.313578 -0.227369 0.92194 -0.171635 -0.23751 0.956102 -0.125469 -0.306198 0.943663 
-0.14001 -0.274249 0.951412 0.32668 -0.253567 0.910485 0.688037 -0.307141 0.657472 
0.591264 -0.278998 0.756682 -0.482807 -0.207318 0.850833 -0.420179 -0.170329 0.891312 
-0.30683 -0.099785 0.946519 -0.220214 -0.05812 0.973719 0.697274 0.105129 0.709053 
0.569583 0.0920929 0.816758 -0.54429 -0.0783361 0.835231 -0.344574 -0.0470237 0.937581 
-0.221396 0.00964431 0.975136 -0.13578 0.0649261 0.988609 -0.0429435 0.109232 0.993088 
0.0130807 0.113199 0.993486 -0.294167 0.0584201 0.953967 0.154718 0.136309 0.97851 
0.413045 0.335046 0.84684 0.652854 0.473287 0.591423 0.646422 0.496602 0.579245 
0.645265 0.458356 0.611181 -0.530221 0.116783 0.839778 -0.347595 0.0735609 0.934755 
-0.203618 0.060497 0.97718 -0.126869 0.0471126 0.9908 -0.109337 0.00664695 0.993983 
-0.0771758 -0.0957967 0.992405 -0.0928015 -0.134921 0.986501 -0.0283404 -0.117192 0.992705 
0.41418 0.290484 0.862597 0.593269 0.626217 0.50585 0.601672 0.617204 0.507001 
0.587699 0.616262 0.524242 -0.449624 0.188026 0.873204 -0.462384 0.321445 0.826362 
-0.392871 0.159709 0.905619 -0.230988 0.14115 0.962663 -0.182658 0.0978923 0.978291 
-0.181875 0.0282129 0.982917 0.824085 0.362738 0.435091 0.805974 0.309773 0.504427 
-0.457187 0.340966 0.821415 -0.303182 0.443135 0.84363 -0.251741 0.298893 0.920483 
-0.23054 0.248693 0.940746 -0.25361 0.188979 0.948667 0.883063 0.081296 0.462159 
0.875229 0.138568 0.463436 0.875365 0.0821088 0.476439 -0.309519 0.489592 0.815167 
-0.286025 0.512968 0.809354 -0.286647 0.451986 0.844714 -0.244931 0.606422 0.756479 
-0.288007 0.433998 0.853638 -0.254483 0.39447 0.882968 0.856521 0.208106 0.472296 
0.377307 0.392097 0.838987 -0.237726 0.711439 0.661317 -0.237171 0.721997 0.649978 
-0.238558 0.711011 0.661478 -0.131726 0.781027 0.610446 -0.123796 0.709379 0.693871 
-0.079527 0.759675 0.645422 -0.0585094 0.664134 0.74532 -0.0409901 0.749295 0.660967 
-0.0338308 0.617054 0.786193 0.0847407 0.740434 0.666766 0.109477 0.628028 0.770452 
0.458145 0.566139 0.685266 0.348673 0.622994 0.700218 0.354988 0.585879 0.728512 
-0.157675 -0.37746 0.912503 0.0013141 -0.530357 0.847774 0.166763 -0.559317 0.812007 
-0.198547 -0.326316 0.924174 -0.167153 -0.330279 0.928965 -0.0189598 -0.435752 0.899867 
0.234422 -0.531881 0.813725 0.157911 -0.50584 0.84805 0.313715 -0.436025 0.843484 
-0.277413 -0.10779 0.954685 -0.223156 -0.0948247 0.97016 -0.216313 -0.035 0.975697 
-0.114516 -0.0918963 0.989162 0.090099 -0.158548 0.983232 0.319308 -0.369434 0.872675 
0.236414 -0.26266 0.935478 0.321929 -0.331009 0.887014 -0.152105 -0.0843686 0.984757 
-0.122182 -0.142391 0.98224 -0.101326 -0.177965 0.978806 -0.108886 -0.0514128 0.992724 
-0.157784 0.016721 0.987332 -0.151425 0.0891603 0.984439 -0.0165894 0.0516728 0.998526 
0.129172 -0.0417468 0.990743 0.292372 -0.214961 0.931832 0.256954 -0.156855 0.953609 
0.343683 -0.0816204 0.935532 -0.167801 -0.0473397 0.984684 -0.128939 -0.00837676 0.991617 
-0.154412 -0.0442125 0.987017 -0.00496182 0.0748969 0.997179 -0.0198834 0.0326842 0.999268 
-0.108914 0.0828049 0.990596 -8.14433e-06 0.085463 0.996341 -0.091738 -0.149836 0.984446 
0.128135 0.145551 0.981018 -0.0744895 0.185219 0.97987 -0.0414704 0.16158 0.985988 
0.0308394 0.0770272 0.996552 0.140089 0.00968319 0.990092 0.379387 0.00946007 0.92519 
0.368912 0.102129 0.923836 0.351547 0.000204085 0.93617 -0.260075 0.0487853 0.964355 
0.144313 0.129138 0.981069 -0.0266101 0.0135654 0.999554 0.0934981 0.123807 0.987892 
-0.13761 0.0709611 0.987941 -0.0194713 0.0783164 0.996738 0.300965 0.245767 0.921422 
0.338108 0.237001 0.910777 0.181313 0.150389 0.971859 -0.105358 -0.0712195 0.991881 
-0.080479 -0.0862111 0.993021 -0.0819041 -0.132709 0.987765 -0.0272973 -0.103455 0.994259 
-0.0124965 0.17708 0.984117 -0.030365 -0.117079 0.992658 -0.0314854 -0.116866 0.992649 
-0.0864785 -0.110904 0.990061 0.323803 0.199283 0.924899 0.112117 -0.000237276 0.993695 
-0.145104 -0.0271808 0.989043 -0.130018 -0.0494135 0.99028 -0.02345 -0.125524 0.991813 
-0.0325303 -0.0393953 0.998694 -0.129355 -0.100364 0.986506 -0.0356237 -0.0984994 0.994499 
0.533561 0.116736 0.837666 0.345683 0.0168634 0.9382 -0.23128 0.106056 0.967089 
-0.23377 0.155753 0.959736 -0.226828 0.0936475 0.969422 -0.0851017 0.0559923 0.994798 
0.0135095 0.0443626 0.998924 -0.0785427 0.0807313 0.993636 0.0297002 0.150438 0.988173 
0.509876 0.172959 0.842681 0.392443 0.305903 0.867417 0.423905 0.167514 0.890081 
-0.0710985 0.366578 0.927667 -0.0700538 0.366949 0.927599 -0.0699924 0.366459 0.927798 
-0.0156972 0.342602 0.93935 -0.0155272 0.340913 0.939967 -0.0177268 0.336463 0.94153 
-0.0167106 0.319876 0.947312 0.144333 0.382152 0.912758 0.0646419 0.390511 0.918326 
0.0608295 0.374082 0.925398 
