# vtk DataFile Version 4.2
vtk output
ASCII
DATASET POLYDATA
POINTS 527 float
-33.9366 -44.4253 -16.3356 -25.0602 -44.4253 -17.6918 -16.1839 -44.4253 -16.5941 
-42.8129 -35.549 -19.3637 -33.9366 -35.549 -21.2164 -25.0602 -35.549 -21.4461 
-16.1839 -35.549 -20.0209 -7.30763 -35.549 -17.4568 1.56868 -35.549 -16.0934 
10.445 -35.549 -18.8909 19.3213 -35.549 -20.4859 28.1976 -35.549 -17.6169 
-51.6892 -26.6727 -17.9342 -42.8129 -26.6727 -21.5885 -33.9366 -26.6727 -23.5389 
-25.0602 -26.6727 -22.3509 -16.1839 -26.6727 -21.2888 -7.30763 -26.6727 -18.7101 
1.56868 -26.6727 -17.7829 10.445 -26.6727 -21.0272 19.3213 -26.6727 -23.1426 
28.1976 -26.6727 -21.3484 37.0739 -26.6727 -17.7209 -51.6892 -17.7964 -20.8625 
-42.8129 -17.7964 -22.6903 -33.9366 -17.7964 -22.7596 -25.0602 -17.7964 -21.8014 
-16.1839 -17.7964 -20.6758 -7.30763 -17.7964 -19.5962 1.56868 -17.7964 -19.0247 
10.445 -17.7964 -21.8488 19.3213 -17.7964 -22.577 28.1976 -17.7964 -21.6608 
37.0739 -17.7964 -20.3261 45.9502 -17.7964 -18.2676 -60.5655 -8.92006 -16.9103 
-51.6892 -8.92006 -22.9986 -42.8129 -8.92006 -23.8868 -33.9366 -8.92006 -22.7223 
-25.0602 -8.92006 -21.2169 -16.1839 -8.92006 -19.8693 -7.30763 -8.92006 -22.783 
1.56868 -8.92006 -19.9305 10.445 -8.92006 -21.1701 19.3213 -8.92006 -20.7485 
28.1976 -8.92006 -20.9516 37.0739 -8.92006 -21.345 45.9502 -8.92006 -20.6036 
54.8265 -8.92006 -18.5411 -60.5655 -0.0437538 -19.0692 -51.6892 -0.0437538 -22.4612 
-42.8129 -0.0437538 -24.1348 -33.9366 -0.0437538 -22.7872 -25.0602 -0.0437538 -21.1474 
-16.1839 -0.0437538 -22.1572 -7.30763 -0.0437538 -22.0771 1.56868 -0.0437538 -16.3039 
10.445 -0.0437538 -23.2528 19.3213 -0.0437538 -19.8928 28.1976 -0.0437538 -20.7044 
37.0739 -0.0437538 -21.5655 45.9502 -0.0437538 -21.353 54.8265 -0.0437538 -19.5016 
-60.5655 8.83255 -19.4196 -51.6892 8.83255 -22.2166 -42.8129 8.83255 -23.4415 
-33.9366 8.83255 -22.4863 -25.0602 8.83255 -21.2306 -16.1839 8.83255 -21.6178 
-7.30763 8.83255 -23.2541 1.56868 8.83255 -20.2536 10.445 8.83255 -20.9028 
19.3213 8.83255 -19.0777 28.1976 8.83255 -20.3582 37.0739 8.83255 -21.3715 
45.9502 8.83255 -21.209 54.8265 8.83255 -19.4405 -60.5655 17.7089 -18.1749 
-51.6892 17.7089 -21.581 -42.8129 17.7089 -21.979 -33.9366 17.7089 -21.0239 
-25.0602 17.7089 -20.408 -16.1839 17.7089 -20.33 -7.30763 17.7089 -21.9431 
1.56868 17.7089 -19.964 10.445 17.7089 -19.0614 19.3213 17.7089 -20.2853 
28.1976 17.7089 -21.2934 37.0739 17.7089 -21.7535 45.9502 17.7089 -21.6809 
54.8265 17.7089 -19.2541 -51.6892 26.5852 -18.7722 -42.8129 26.5852 -19.9176 
-33.9366 26.5852 -19.2873 -25.0602 26.5852 -18.3765 -16.1839 26.5852 -18.3216 
-7.30763 26.5852 -18.7917 1.56868 26.5852 -17.2716 10.445 26.5852 -17.7873 
19.3213 26.5852 -19.6282 28.1976 26.5852 -21.5362 37.0739 26.5852 -20.4625 
45.9502 26.5852 -19.9599 54.8265 26.5852 -15.9004 19.3213 35.4615 -15.5761 
28.1976 35.4615 -17.5125 37.0739 35.4615 -17.7036 -33.9366 -45.4167 -15.3228 
-25.0602 -46.949 -15.3228 -16.1839 -45.7145 -15.3228 -35.9541 -44.4253 -15.3228 
-42.8129 -40.4461 -15.3228 -12.0979 -44.4253 -15.3228 -7.30763 -41.1633 -15.3228 
-7.30763 -44.4253 -13.7713 1.56868 -38.0942 -15.3228 1.56868 -44.4253 -12.8978 
10.445 -40.7599 -15.3228 10.445 -44.4253 -11.9418 19.3213 -41.4152 -15.3228 
19.3213 -44.4253 -10.0661 28.1976 -38.1601 -15.3228 -47.7282 -35.549 -15.3228 
-51.6892 -30.5183 -15.3228 32.2052 -35.549 -15.3228 37.0739 -30.9826 -15.3228 
37.0739 -35.549 -8.71686 -54.3687 -26.6727 -15.3228 42.5895 -26.6727 -15.3228 
45.9502 -23.584 -15.3228 45.9502 -26.6727 -12.8085 -58.1539 -17.7964 -15.3228 
-60.5655 -12.8152 -15.3228 53.1397 -17.7964 -15.3228 54.8265 -16.4117 -15.3228 
54.8265 -17.7964 -14.4061 -62.1605 -8.92006 -15.3228 60.3733 -8.92006 -15.3228 
63.7028 -8.92006 -12.2073 -65.2979 -0.0437538 -15.3228 62.8427 -0.0437538 -15.3228 
63.7028 -0.0437538 -14.7228 -66.6571 8.83255 -15.3228 63.6235 8.83255 -15.3228 
63.7028 8.83255 -15.2746 -65.2393 17.7089 -15.3228 -69.4418 17.7089 -8.57017 
-60.5655 25.2025 -15.3228 61.1973 17.7089 -15.3228 63.7028 17.7089 -12.9509 
-59.4541 26.5852 -15.3228 -60.5655 26.5852 -14.6177 -51.6892 33.2398 -15.3228 
-42.8129 34.4338 -15.3228 -33.9366 34.7682 -15.3228 -25.0602 32.7416 -15.3228 
-16.1839 32.37 -15.3228 -7.30763 32.0639 -15.3228 1.56868 29.8112 -15.3228 
10.445 30.9482 -15.3228 45.9502 34.7869 -15.3228 55.792 26.5852 -15.3228 
54.8265 27.6911 -15.3228 63.7028 26.5852 -8.32507 -60.5655 35.4615 -7.17792 
-51.6892 35.4615 -13.2827 -42.8129 35.4615 -14.6097 -33.9366 35.4615 -14.8591 
-25.0602 35.4615 -13.7845 -16.1839 35.4615 -12.9853 -7.30763 35.4615 -12.0361 
1.56868 35.4615 -8.6178 18.5883 35.4615 -15.3228 10.445 35.4615 -9.5743 
19.3213 35.7234 -15.3228 28.1976 37.6687 -15.3228 44.7253 35.4615 -15.3228 
37.0739 37.8518 -15.3228 45.9502 35.4615 -14.7675 54.8265 35.4615 -8.44133 
-33.9366 -47.1263 -6.44653 -25.0602 -50.9737 -6.44653 -16.1839 -51.9581 -6.44653 
-7.30763 -51.3121 -6.44653 -7.30763 -53.3016 1.76682 1.56868 -50.3377 -6.44653 
10.445 -49.0579 -6.44653 19.3213 -46.1456 -6.44653 -39.0825 -44.4253 -6.44653 
-42.8129 -41.6762 -6.44653 -33.9366 -44.4253 -1.33145 23.0465 -44.4253 -6.44653 
28.1976 -41.9306 -6.44653 37.0739 -36.495 -6.44653 -48.8198 -35.549 -6.44653 
-51.6892 -31.2011 -6.44653 -42.8129 -35.549 0.157861 38.6563 -35.549 -6.44653 
45.9502 -30.9224 -6.44653 -54.2398 -26.6727 -6.44653 -51.6892 -26.6727 -3.12765 
52.6683 -26.6727 -6.44653 54.8265 -25.1143 -6.44653 -60.4443 -17.7964 -6.44653 
-60.5655 -17.5242 -6.44653 63.1743 -17.7964 -6.44653 63.7028 -17.052 -6.44653 
63.7028 -17.7964 -3.03663 -63.8226 -8.92006 -6.44653 -60.5655 -8.92006 0.565093 
68.1552 -8.92006 -6.44653 -67.5415 -0.0437538 -6.44653 70.4228 -0.0437538 -6.44653 
-69.3762 8.83255 -6.44653 -69.4418 9.52909 -6.44653 71.4543 8.83255 -6.44653 
72.5791 8.83255 0.807241 -70.2179 17.7089 -6.44653 -69.4418 21.3794 -6.44653 
-69.4418 17.7089 -0.147219 68.9141 17.7089 -6.44653 -68.0398 26.5852 -6.44653 
64.9024 26.5852 -6.44653 63.7028 28.2414 -6.44653 -61.0704 35.4615 -6.44653 
-60.5655 35.9676 -6.44653 -51.6892 40.162 -6.44653 -42.8129 42.8679 -6.44653 
-33.9366 42.506 -6.44653 -25.0602 42.3815 -6.44653 -16.1839 40.8076 -6.44653 
-7.30763 39.1403 -6.44653 1.56868 36.5308 -6.44653 10.445 36.794 -6.44653 
19.3213 39.0127 -6.44653 28.1976 41.0134 -6.44653 37.0739 41.7445 -6.44653 
45.9502 40.3497 -6.44653 56.3816 35.4615 -6.44653 54.8265 36.4769 -6.44653 
-42.8129 44.3378 -1.86757 -33.9366 44.3378 -1.59978 -25.0602 44.3378 -0.390645 
-7.30763 -53.4307 2.42978 -25.0602 -48.2646 2.42978 -8.07898 -53.3016 2.42978 
-16.1839 -51.908 2.42978 -1.21169 -53.3016 2.42978 -7.30763 -53.3016 2.88569 
1.56868 -53.2391 2.42978 10.445 -50.7733 2.42978 19.3213 -46.1892 2.42978 
-31.2545 -44.4253 2.42978 -33.9366 -42.2222 2.42978 -25.0602 -44.4253 8.1594 
22.1712 -44.4253 2.42978 19.3213 -44.4253 6.59735 28.1976 -40.5065 2.42978 
37.0739 -35.5546 2.42978 -41.0402 -35.549 2.42978 -42.8129 -33.4169 2.42978 
-33.9366 -35.549 9.45878 37.0862 -35.549 2.42978 37.0739 -35.549 2.44471 
45.9502 -31.3773 2.42978 -47.8403 -26.6727 2.42978 -51.6892 -21.0213 2.42978 
-42.8129 -26.6727 7.49074 54.404 -26.6727 2.42978 54.8265 -26.4112 2.42978 
63.7028 -18.4852 2.42978 -54.4788 -17.7964 2.42978 -51.6892 -17.7964 4.86033 
64.2975 -17.7964 2.42978 63.7028 -17.7964 4.12665 -59.6054 -8.92006 2.42978 
-60.5655 -7.24439 2.42978 69.7469 -8.92006 2.42978 -64.6052 -0.0437538 2.42978 
-60.5655 -0.0437538 9.78744 71.9709 -0.0437538 2.42978 72.5791 6.55837 2.42978 
-67.3435 8.83255 2.42978 72.5791 9.81311 2.42978 72.5791 8.83255 3.24937 
-69.1118 17.7089 2.42978 70.8816 17.7089 2.42978 -66.9493 26.5852 2.42978 
66.4115 26.5852 2.42978 63.7028 30.2152 2.42978 63.7028 26.5852 10.3707 
-61.1198 35.4615 2.42978 -60.5655 36.0868 2.42978 -60.5655 35.4615 3.37087 
-51.6892 41.8796 2.42978 -16.1839 43.5739 2.42978 -7.30763 40.8154 2.42978 
1.56868 36.9196 2.42978 1.56868 35.4615 7.33307 10.445 36.3938 2.42978 
10.445 35.4615 5.24358 19.3213 38.26 2.42978 28.1976 40.2222 2.42978 
37.0739 41.3836 2.42978 45.9502 40.6048 2.42978 57.4354 35.4615 2.42978 
54.8265 36.9462 2.42978 54.8265 35.4615 7.14399 -45.8054 44.3378 2.42978 
-42.8129 45.4003 2.42978 -42.8129 44.3378 6.72168 -33.9366 45.7157 2.42978 
-33.9366 44.3378 11.2266 -20.5429 44.3378 2.42978 -25.0602 45.1043 2.42978 
-25.0602 44.3378 10.2203 -16.1839 -47.1651 11.3061 -7.30763 -49.7914 11.3061 
1.56868 -49.8614 11.3061 10.445 -47.1714 11.3061 -20.8844 -44.4253 11.3061 
-25.0602 -41.2481 11.3061 -16.1839 -44.4253 14.1699 -7.30763 -44.4253 16.2181 
1.56868 -44.4253 16.5842 15.2156 -44.4253 11.3061 10.445 -44.4253 14.1785 
19.3213 -41.5931 11.3061 28.1976 -35.9734 11.3061 -31.6358 -35.549 11.3061 
-33.9366 -32.8543 11.3061 -25.0602 -35.549 16.4992 10.445 -35.549 19.5071 
19.3213 -35.549 16.2881 29.0797 -35.549 11.3061 28.1976 -35.549 11.7942 
37.0739 -32.0718 11.3061 45.9502 -27.9127 11.3061 -38.4036 -26.6727 11.3061 
-42.8129 -20.655 11.3061 -33.9366 -26.6727 15.4359 28.1976 -26.6727 19.298 
37.0739 -26.6727 17.299 48.2883 -26.6727 11.3061 45.9502 -26.6727 12.853 
54.8265 -22.8531 11.3061 -44.9087 -17.7964 11.3061 -51.6892 -10.1837 11.3061 
-42.8129 -17.7964 13.1324 -33.9366 -17.7964 19.3267 45.9502 -17.7964 20.1379 
60.383 -17.7964 11.3061 54.8265 -17.7964 15.8836 63.7028 -13.2684 11.3061 
-52.6639 -8.92006 11.3061 -51.6892 -8.92006 12.3183 -42.8129 -8.92006 19.1168 
54.8265 -8.92006 20 66.296 -8.92006 11.3061 63.7028 -8.92006 14.3455 
-59.3647 -0.0437538 11.3061 -60.5655 3.21156 11.3061 -51.6892 -0.0437538 17.4498 
68.7929 -0.0437538 11.3061 63.7028 -0.0437538 17.1995 -61.893 8.83255 11.3061 
-60.5655 8.83255 12.7749 -51.6892 8.83255 19.6487 70.0819 8.83255 11.3061 
63.7028 8.83255 18.8783 -63.7095 17.7089 11.3061 -60.5655 17.7089 14.4053 
-51.6892 17.7089 19.5774 -7.30763 17.7089 19.8281 68.0957 17.7089 11.3061 
63.7028 26.033 11.3061 63.7028 17.7089 16.6436 -62.2276 26.5852 11.3061 
-60.5655 29.2514 11.3061 -60.5655 26.5852 13.1113 -51.6892 26.5852 17.5008 
[...]
POINT_DATA 527
SCALARS ImageScalars float
LOOKUP_TABLE default
0 0 0 0 0 0 0 0 0 
0 0 0 0 0 0 0 0 0 
0 0 0 0 0 0 0 0 0 
0 0 0 0 0 0 0 0 0 
0 0 0 0 0 0 0 0 0 
0 0 0 0 0 0 0 0 0 
0 0 0 0 0 0 0 0 0 
0 0 0 0 0 0 0 0 0 
0 0 0 0 0 0 0 0 0 
0 0 0 0 0 0 0 0 0 
0 0 0 0 0 0 0 0 0 
0 0 0 0 0 0 0 0 0 
0 0 0 0 0 0 0 0 0 
0 0 0 0 0 0 0 0 0 
0 0 0 0 0 0 0 0 0 
0 0 0 0 0 0 0 0 0 
0 0 0 0 0 0 0 0 0 
0 0 0 0 0 0 0 0 0 
0 0 0 0 0 0 0 0 0 
0 0 0 0 0 0 0 0 0 
0 0 0 0 0 0 0 0 0 
0 0 0 0 0 0 0 0 0 
0 0 0 0 0 0 0 0 0 
0 0 0 0 0 0 0 0 0 
0 0 0 0 0 0 0 0 0 
0 0 0 0 0 0 0 0 0 
0 0 0 0 0 0 0 0 0 
0 0 0 0 0 0 0 0 0 
0 0 0 0 0 0 0 0 0 
0 0 0 0 0 0 0 0 0 
0 0 0 0 0 0 0 0 0 
0 0 0 0 0 0 0 0 0 
0 0 0 0 0 0 0 0 0 
0 0 0 0 0 0 0 0 0 
0 0 0 0 0 0 0 0 0 
0 0 0 0 0 0 0 0 0 
0 0 0 0 0 0 0 0 0 
0 0 0 0 0 0 0 0 0 
0 0 0 0 0 0 0 0 0 
0 0 0 0 0 0 0 0 0 
0 0 0 0 0 0 0 0 0 
0 0 0 0 0 0 0 0 0 
0 0 0 0 0 0 0 0 0 
0 0 0 0 0 0 0 0 0 
0 0 0 0 0 0 0 0 0 
0 0 0 0 0 0 0 0 0 
0 0 0 0 0 0 0 0 0 
0 0 0 0 0 0 0 0 0 
0 0 0 0 0 0 0 0 0 
0 0 0 0 0 0 0 0 0 
0 0 0 0 0 0 0 0 0 
0 0 0 0 0 0 0 0 0 
0 0 0 0 0 0 0 0 0 
0 0 0 0 0 0 0 0 0 
0 0 0 0 0 0 0 0 0 
0 0 0 0 0 0 0 0 0 
0 0 0 0 0 0 0 0 0 
0 0 0 0 0 0 0 0 0 
0 0 0 0 0 
NORMALS Normals float
0.297369 0.761837 0.575479 0.0130364 0.611851 0.790866 -0.188852 0.581799 0.791103 
0.480393 0.523825 0.703441 0.103452 0.357836 0.928036 -0.0642042 0.247101 0.96686 
-0.218108 0.22713 0.949126 -0.209 0.241486 0.94763 0.0778669 0.232844 0.969392 
0.220367 0.384298 0.896523 -0.047882 0.492565 0.868957 -0.378526 0.57715 0.723613 
0.655515 0.458744 0.599878 0.280935 0.172296 0.944134 0.0505561 0.0933096 0.994353 
-0.120173 0.0168896 0.992609 -0.205993 0.0330245 0.977996 -0.188949 0.112261 0.975549 
0.130861 0.155028 0.979205 0.288985 0.160096 0.943852 0.0153583 0.0978556 0.995082 
-0.278213 0.18779 0.941983 -0.399848 0.371067 0.838111 0.484059 0.27789 0.829737 
0.0910367 0.137493 0.98631 -0.0498993 -0.0436333 0.997801 -0.121242 -0.0663445 0.990403 
-0.121123 -0.0795843 0.989442 -0.0934584 0.221266 0.970725 0.126622 0.119371 0.984742 
0.185632 0.0066228 0.982597 -0.0122679 -0.138111 0.990341 -0.11971 -0.0235697 0.992529 
-0.173054 0.191738 0.966069 -0.286885 0.353723 0.890268 0.739254 0.29207 0.606794 
0.330645 0.0635495 0.941613 -0.0259077 0.0812992 0.996353 -0.146057 0.00153633 0.989275 
-0.161014 -0.036724 0.986269 0.0784073 0.0661958 0.994721 0.00717306 0.141628 0.989894 
-0.0823429 -0.0941605 0.992146 0.0441368 0.0723334 0.996403 -0.0120907 -0.141871 0.989811 
0.0332494 -0.0525292 0.998066 -0.0203164 0.0665281 0.997578 -0.151593 0.148889 0.977165 
-0.365262 0.236325 0.900408 0.579589 0.133136 0.80396 0.250528 -0.037971 0.967364 
0.0282342 -0.0254847 0.999276 -0.157989 -0.013106 0.987354 -0.0471847 0.000802214 0.998886 
0.0556601 0.112641 0.992076 -0.268083 0.0278978 0.962992 0.157807 0.022684 0.987209 
0.0755286 0.0155825 0.997022 -0.13405 -0.0982954 0.986088 0.0933286 -0.0335193 0.995071 
0.0364338 0.00148878 0.999335 -0.110492 0.0353964 0.993247 -0.318154 0.0493863 0.946752 
0.481386 -0.0516363 0.874986 0.207143 -0.0450362 0.977274 0.0230938 -0.122112 0.992248 
-0.122485 -0.0975428 0.987665 -0.0504889 -0.0407621 0.997892 0.112056 -0.10341 0.988306 
-0.085761 -0.0230323 0.996049 -0.13135 0.141593 0.981172 -0.0763077 -0.253338 0.964364 
-0.00791117 0.0232834 0.999698 0.131677 0.0337398 0.990718 0.0476608 0.0101514 0.998812 
-0.100646 0.0162188 0.99479 -0.294836 -0.0143421 0.95544 0.447279 -0.189647 0.874057 
0.214624 -0.20991 0.953873 -0.0326564 -0.183751 0.98243 -0.0869396 -0.184745 0.978934 
-0.0391612 -0.151839 0.987629 0.0843486 -0.187817 0.978576 -0.0143204 -0.231729 0.972675 
-0.162422 -0.153782 0.974664 0.0219264 -0.145323 0.989141 0.124859 0.0333898 0.991612 
0.0816596 0.0647793 0.994553 0.0225036 -0.0491854 0.998536 -0.142847 -0.0560319 0.988157 
-0.387011 -0.149047 0.909949 0.198841 -0.355087 0.913442 0.0293767 -0.344987 0.938148 
-0.0772072 -0.306126 0.948855 -0.0578282 -0.327627 0.943036 0.0212582 -0.33972 0.940286 
-0.0478508 -0.432802 0.900218 -0.0550009 -0.413549 0.908819 0.128381 -0.327152 0.93621 
0.200237 -0.234496 0.951271 0.045108 -0.202211 0.978303 -0.0806033 -0.206612 0.975097 
-0.213498 -0.351625 0.91147 -0.451411 -0.415165 0.789852 0.27405 -0.697102 0.66253 
0.107328 -0.648187 0.753879 -0.137255 -0.597966 0.789682 0.304323 0.806657 0.506648 
0.0176914 0.746032 0.665675 -0.174733 0.642162 0.746389 0.362948 0.785522 0.501222 
0.549583 0.707188 0.444796 -0.180478 0.560686 0.80812 -0.184227 0.412258 0.892247 
-0.164257 0.546024 0.82151 0.0361231 0.312134 0.949351 -0.0797815 0.573549 0.815277 
0.073644 0.596538 0.799199 -0.0917953 0.746302 0.659248 -0.11255 0.74325 0.659478 
-0.25644 0.890474 0.375891 -0.401567 0.690544 0.601575 0.674926 0.6038 0.424148 
0.745177 0.526595 0.409156 -0.468298 0.643006 0.606003 -0.49009 0.535314 0.687932 
-0.541644 0.806384 0.237416 0.801221 0.471752 0.368096 -0.448578 0.507266 0.735839 
-0.412222 0.509349 0.755405 -0.489048 0.637592 0.595238 0.786553 0.359724 0.50193 
0.793559 0.341791 0.503432 -0.409485 0.491053 0.768888 -0.430774 0.473751 0.76811 
-0.451063 0.528548 0.719152 0.797066 0.324868 0.509065 -0.558369 0.271902 0.783768 
-0.708341 0.317476 0.630446 0.811545 0.213823 0.54376 -0.584762 0.101458 0.804835 
-0.62521 0.112609 0.77229 0.784829 0.0088517 0.619649 -0.572502 -0.0694023 0.816961 
-0.57607 -0.0702357 0.814377 0.633588 -0.221389 0.741318 0.964879 -0.0909445 0.246448 
0.525905 -0.400307 0.750452 -0.592289 -0.196691 0.781349 -0.698613 -0.228965 0.677875 
0.501273 -0.425726 0.753315 0.552571 -0.440852 0.70733 0.224395 -0.617167 0.754156 
0.0484711 -0.577144 0.815203 -0.0420904 -0.541079 0.839918 -0.0706677 -0.495374 0.8658 
-0.0196407 -0.536952 0.843384 -0.0785853 -0.614222 0.78521 -0.0445496 -0.557195 0.829185 
0.171429 -0.560084 0.810505 -0.300823 -0.566086 0.767497 -0.470894 -0.425186 0.772966 
-0.459794 -0.452992 0.763798 -0.751434 -0.500146 0.43035 0.610598 -0.726046 0.31627 
0.24341 -0.725632 0.643592 0.0580445 -0.616341 0.785337 -0.0382118 -0.571179 0.819935 
-0.0802086 -0.594147 0.800347 -0.0697823 -0.680064 0.729825 -0.129805 -0.786093 0.604325 
-0.103113 -0.927187 0.360127 0.269519 -0.706436 0.654452 0.150549 -0.922218 0.35616 
0.274751 -0.7095 0.648938 0.105081 -0.770837 0.628306 -0.282585 -0.592828 0.754123 
-0.102755 -0.743061 0.661288 -0.304995 -0.605645 0.734964 -0.532816 -0.773186 0.343933 
0.457633 0.882216 -0.110759 0.222275 0.973461 0.0544689 0.0243669 0.959762 0.279755 
-0.0839013 0.892897 0.442374 0.0657664 0.99773 -0.0144962 -0.1135 0.839668 0.531108 
-0.217198 0.884504 0.412889 -0.342574 0.915521 0.210866 0.560449 0.815872 -0.142301 
0.649274 0.737196 -0.187045 0.502746 0.783341 -0.365545 -0.393375 0.906319 0.15441 
-0.479875 0.873285 0.0842218 -0.52722 0.840629 0.124027 0.755715 0.620475 -0.209537 
0.802154 0.547149 -0.239117 0.634454 0.558086 -0.534797 -0.530104 0.835354 0.145513 
-0.534829 0.803801 0.260504 0.823799 0.500736 -0.265743 0.774661 0.466814 -0.426597 
-0.55906 0.769599 0.308495 -0.576055 0.748311 0.328924 0.895252 0.431008 -0.112946 
0.897007 0.427508 -0.11232 -0.736015 0.59567 0.321652 -0.749717 0.576568 0.324798 
-0.768767 0.620288 0.155691 0.921881 0.375307 -0.0963385 0.81156 0.394904 -0.430605 
-0.843054 0.38376 0.376814 0.95774 0.285456 -0.0353276 -0.908908 0.156272 0.386608 
0.990935 0.134039 -0.00904122 0.992873 0.119173 1.91883e-05 -0.913035 -0.0779649 0.40036 
-0.997878 -0.0642405 0.0106372 0.99104 -0.0589311 0.119861 0.971017 -0.198733 0.132779 
0.980565 -0.0363335 -0.192802 -0.852485 -0.312126 0.41934 0.889285 -0.417924 0.185773 
-0.788232 -0.513038 0.339826 -0.762177 -0.551125 0.339627 0.625942 -0.731237 0.271089 
0.609932 -0.743035 0.275467 0.313034 -0.870564 0.379643 0.109019 -0.90306 0.415449 
-0.0237595 -0.893154 0.449123 -0.0843269 -0.873647 0.479198 -0.165226 -0.867446 0.469295 
-0.2173 -0.906792 0.361259 -0.127837 -0.959156 0.252342 0.123799 -0.976116 0.178527 
0.242056 -0.962847 0.119724 0.138814 -0.982128 0.127101 -0.0398806 -0.984546 0.170523 
-0.267117 -0.941651 0.204797 -0.56373 -0.781888 0.266195 -0.522614 -0.814631 0.251497 
0.155889 -0.970147 0.185779 -0.0230949 -0.972046 0.23365 -0.107064 -0.974405 0.197665 
0.0749304 0.996139 -0.0457432 0.423339 0.804128 -0.417328 0.0918111 0.994022 -0.0590885 
0.262933 0.941976 -0.208682 -0.0797959 0.996428 -0.027644 0.0782329 0.994635 -0.0676769 
-0.149004 0.988646 -0.0194136 -0.359117 0.930353 -0.0740148 -0.520704 0.835494 -0.175549 
0.50072 0.710667 -0.494198 0.521734 0.662656 -0.53729 0.479736 0.68576 -0.547345 
-0.523897 0.827789 -0.200743 -0.51481 0.785391 -0.343703 -0.486425 0.835808 -0.254588 
-0.421494 0.884854 -0.198433 0.593355 0.529227 -0.606505 0.608925 0.500893 -0.615075 
0.568346 0.529833 -0.629491 -0.421558 0.884844 -0.198344 -0.421389 0.884814 -0.198836 
-0.482811 0.865665 -0.132354 0.65459 0.436004 -0.617586 0.639898 0.476226 -0.603109 
0.614718 0.444866 -0.651319 -0.553413 0.827631 -0.0936034 -0.560371 0.823168 -0.0915389 
-0.760088 0.641937 -0.100909 0.659428 0.473723 -0.58373 0.608533 0.502471 -0.614174 
-0.774136 0.624864 -0.101284 -0.762429 0.622982 -0.174915 0.760824 0.401889 -0.509541 
0.776934 0.401969 -0.484557 -0.907625 0.409951 -0.0903221 0.835205 0.378049 -0.399389 
0.719939 0.402725 -0.565244 -0.985568 0.152255 -0.0739857 -0.99779 -0.00680819 -0.0660947 
0.900681 0.217626 -0.376049 -0.994306 -0.0867824 -0.0618489 -0.99333 -0.0601842 -0.0983573 
0.948571 -0.0255825 -0.315528 -0.951932 -0.303034 -0.0446778 0.894665 -0.349541 -0.278201 
-0.8259 -0.56092 -0.057079 -0.757287 -0.649336 -0.0698559 -0.719274 -0.550146 -0.424245 
0.708416 -0.672141 -0.215345 0.692455 -0.68818 -0.216597 0.693866 -0.670534 -0.262552 
0.415597 -0.905807 -0.0824208 -0.22892 -0.968465 0.0983469 -0.345177 -0.938531 -0.00361177 
-0.23534 -0.965617 -0.110452 -0.270047 -0.898101 -0.347116 0.0665039 -0.981378 -0.180205 
0.0693318 -0.957752 -0.279114 0.220317 -0.961057 -0.16682 0.159702 -0.969876 -0.183945 
0.0169647 -0.984652 -0.173701 -0.215644 -0.96875 -0.122561 -0.534658 -0.839033 -0.100821 
-0.465052 -0.878359 -0.110508 -0.461532 -0.842261 -0.278539 0.25806 -0.965767 -0.0264425 
0.194204 -0.980951 0.00454104 0.246907 -0.939842 -0.236079 -0.0150888 -0.99625 0.0851906 
0.0650368 -0.92746 -0.368222 -0.171813 -0.980747 0.0928184 -0.115355 -0.989658 0.0852683 
-0.0825001 -0.951455 -0.296524 0.32059 0.725906 -0.608509 0.128172 0.808146 -0.574867 
-0.120395 0.818951 -0.561093 -0.351114 0.749394 -0.561362 0.399782 0.66709 -0.628622 
0.480951 0.622791 -0.617104 0.2939 0.653602 -0.697444 0.109522 0.598857 -0.793332 
-0.089052 0.580295 -0.809523 -0.420349 0.711162 -0.56352 -0.322271 0.647211 -0.690839 
-0.456257 0.690022 -0.561871 -0.388689 0.739353 -0.549798 0.551524 0.532312 -0.642235 
0.580748 0.492593 -0.648139 0.449485 0.535406 -0.715055 -0.190214 0.349462 -0.917439 
-0.340186 0.546239 -0.765439 -0.381278 0.746659 -0.545093 -0.379664 0.73108 -0.566901 
-0.340074 0.78769 -0.513706 -0.412878 0.768698 -0.488503 0.60405 0.434981 -0.667769 
0.595589 0.440585 -0.671683 0.584979 0.393667 -0.709102 -0.173072 0.472005 -0.86444 
-0.25147 0.600249 -0.759252 -0.448001 0.749737 -0.487021 -0.4082 0.73458 -0.542001 
-0.531952 0.675745 -0.510289 0.589551 0.454091 -0.668005 0.608698 0.470337 -0.63896 
0.57715 0.43964 -0.688196 0.429431 0.28317 -0.857557 -0.278561 0.384027 -0.880299 
-0.645456 0.572394 -0.505719 -0.486707 0.514823 -0.705743 -0.723546 0.472914 -0.502825 
0.620288 0.466949 -0.630239 0.606121 0.463489 -0.64637 0.431008 0.400707 -0.808496 
-0.362948 0.298024 -0.882865 -0.772318 0.376843 -0.511385 -0.683975 0.37053 -0.6284 
0.688064 0.394327 -0.609159 0.716164 0.314728 -0.622941 0.542623 0.322802 -0.775474 
-0.832753 0.179778 -0.523644 -0.633013 0.177489 -0.75352 0.74608 0.180323 -0.640975 
0.713821 0.171451 -0.679017 0.498635 0.078283 -0.86327 -0.862943 -0.0415605 -0.503589 
-0.601693 -0.0235888 -0.798379 0.739449 0.00813978 -0.673163 0.630236 0.00697497 -0.776372 
0.418337 -0.107064 -0.90196 0.0121007 -0.12936 -0.991524 -0.829958 -0.284672 -0.47972 
-0.707561 -0.528017 -0.469632 -0.658175 -0.284548 -0.69702 0.698353 -0.309728 -0.645269 
0.641611 -0.408266 -0.64935 0.636312 -0.329336 -0.6976 0.404266 -0.257522 -0.87764 
-0.243802 -0.220672 -0.944386 -0.264714 -0.767006 -0.58449 -0.0784676 -0.510343 -0.856384 
0.0993219 -0.840434 -0.532734 0.187018 -0.597941 -0.779417 -0.69336 -0.545785 -0.4705 
-0.449994 -0.766996 -0.457409 -0.430212 -0.472234 -0.769359 0.525189 -0.593348 -0.610012 
0.46074 -0.683078 -0.566677 0.454519 -0.546404 -0.703459 0.287334 -0.792029 -0.538636 
0.276771 -0.519206 -0.808593 0.0659443 -0.925611 -0.372688 0.106906 -0.375947 -0.920454 
-0.076338 -0.932225 -0.353735 -0.0843405 -0.420389 -0.903415 -0.260695 -0.890097 -0.373851 
-0.213715 -0.48607 -0.847386 -0.333764 -0.778148 -0.532059 -0.422594 -0.779159 -0.462952 
-0.401511 -0.631264 -0.663547 0.20428 -0.873084 -0.442711 0.218528 -0.873192 -0.435639 
0.220543 -0.865683 -0.449393 0.130034 -0.900938 -0.414007 0.131229 -0.823479 -0.551961 
0.0231349 -0.88489 -0.465224 -0.00062695 -0.787628 -0.616151 -0.360132 -0.81155 -0.460099 
-0.202038 -0.860425 -0.467814 -0.200891 -0.766005 -0.610638 0.189415 0.460115 -0.867419 
0.0162396 0.394964 -0.918553 -0.0785428 0.309 -0.947813 0.210971 0.45866 -0.863205 
0.399757 0.367885 -0.839557 0.182462 0.447369 -0.875539 -0.00587213 0.357284 -0.933977 
-0.106213 0.306639 -0.945881 -0.0787752 0.293939 -0.952573 -0.157805 0.319637 -0.934307 
-0.160582 0.37838 -0.911615 0.441516 0.30743 -0.842941 0.373203 0.271987 -0.886985 
0.0994169 0.19606 -0.975539 -0.0584395 0.210263 -0.975897 -0.0914505 0.215317 -0.972253 
-0.0880873 0.273693 -0.957775 -0.147501 0.404328 -0.902642 -0.129679 0.348226 -0.928398 
-0.149391 0.408087 -0.900637 -0.173689 0.395825 -0.901751 0.385905 0.22562 -0.894524 
0.348052 0.268397 -0.898233 0.256523 0.0502657 -0.96523 0.136529 -0.0187098 -0.990459 
0.0152321 0.152836 -0.988134 -0.0205454 0.254454 -0.966866 -0.0524836 0.271073 -0.961127 
-0.11169 0.184277 -0.976508 -0.10249 0.221319 -0.969801 -0.275043 0.381123 -0.882665 
-0.136547 0.283218 -0.949285 -0.276749 0.380568 -0.882371 0.342952 0.352224 -0.870817 
0.389099 0.338911 -0.856587 0.16728 0.248508 -0.954076 0.0776848 0.0500236 -0.995722 
0.199312 -0.0380483 -0.979197 0.21277 0.0792387 -0.973884 0.0250651 0.0368511 -0.999006 
-0.1518 0.0103875 -0.988357 -0.17642 -0.0468332 -0.9832 -0.0506524 0.0591285 -0.996964 
-0.0617841 0.150476 -0.986681 -0.348504 0.291384 -0.890865 -0.171055 0.21586 -0.961325 
-0.358496 0.285492 -0.888805 0.415551 0.256192 -0.872745 0.311173 0.21254 -0.926282 
0.082685 0.120311 -0.989287 -0.0203764 0.0304113 -0.99933 0.151926 -0.0898599 -0.984299 
0.102464 -0.212223 -0.971835 -0.0805143 -0.137492 -0.987225 -0.146014 -0.156919 -0.976758 
-0.058342 -0.0913508 -0.994108 0.0904669 0.021528 -0.995667 0.0182142 0.0816821 -0.996492 
-0.121273 0.124811 -0.984741 -0.443917 0.168605 -0.880063 -0.337203 0.147558 -0.929796 
0.463637 0.0674817 -0.883452 0.225042 0.0422458 -0.973433 -0.0129884 -0.0484703 -0.99874 
-0.139068 -0.0659439 -0.988085 -0.0713815 -0.157676 -0.984908 0.0452653 -0.175508 -0.983437 
0.173877 -0.379473 -0.908717 0.094424 -0.212367 -0.972617 -0.107682 -0.118155 -0.987139 
0.00236925 0.00955283 -0.999952 0.122012 0.000659596 -0.992528 0.0437722 -0.00348439 -0.999035 
-0.116467 0.00132051 -0.993194 -0.505927 -0.0187097 -0.862373 -0.293479 0.00197828 -0.955964 
0.375161 -0.110973 -0.920293 0.177063 -0.129382 -0.975658 -0.0202083 -0.115207 -0.993136 
-0.124456 -0.0708017 -0.989696 -0.0415198 -0.0890848 -0.995158 -0.140974 -0.0176401 -0.989856 
0.057126 -0.21651 -0.974608 0.117581 -0.44099 -0.889777 0.166825 -0.427813 -0.888339 
0.159399 -0.460707 -0.873122 0.0898416 -0.292338 -0.952086 0.0539115 -0.112465 -0.992192 
0.0755664 -0.100391 -0.992074 0.0181515 -0.124697 -0.992029 -0.113491 -0.166492 -0.97949 
-0.450571 -0.244615 -0.858574 -0.391577 -0.348149 -0.851739 -0.360145 -0.214924 -0.907801 
0.275334 -0.264665 -0.924199 0.237951 -0.329187 -0.913791 0.221641 -0.26835 -0.937477 
0.105848 -0.372245 -0.922079 0.0435655 -0.173002 -0.983957 -0.0721869 -0.327657 -0.942035 
-0.0432024 -0.151516 -0.98751 -0.198189 -0.169939 -0.96532 -0.168516 -0.252251 -0.952876 
-0.146471 -0.113404 -0.982693 0.207869 -0.457127 -0.864769 0.211538 -0.455395 -0.864793 
0.208006 -0.440697 -0.873224 0.111942 -0.497519 -0.8602 0.103352 -0.360296 -0.927095 
-0.0281284 -0.528261 -0.848616 -0.0224899 -0.389093 -0.920924 -0.3103 -0.431879 -0.846874 
-0.186762 -0.489284 -0.851892 -0.182613 -0.403803 -0.896435 
