# vtk DataFile Version 4.2
vtk output
ASCII
DATASET POLYDATA
POINTS 492 float
-26.8041 -19.6954 -19.6083 -19.2048 -19.6954 -20.1196 -34.4035 -12.0961 -20.4898 
-26.8041 -12.0961 -22.1708 -19.2048 -12.0961 -22.4657 -11.6054 -12.0961 -21.8177 
-4.00604 -12.0961 -20.8376 3.59333 -12.0961 -20.4039 11.1927 -12.0961 -20.0363 
-34.4035 -4.49671 -21.1151 -26.8041 -4.49671 -23.5174 -19.2048 -4.49671 -24.2051 
-11.6054 -4.49671 -23.4993 -4.00604 -4.49671 -21.21 3.59333 -4.49671 -21.6488 
11.1927 -4.49671 -21.2481 -34.4035 3.10265 -21.1717 -26.8041 3.10265 -24.4446 
-19.2048 3.10265 -26.2744 -11.6054 3.10265 -25.8535 -4.00604 3.10265 -23.6293 
3.59333 3.10265 -23.5171 11.1927 3.10265 -22.2692 18.7921 3.10265 -20.1746 
26.3914 3.10265 -20.1913 -34.4035 10.702 -20.3744 -26.8041 10.702 -24.4071 
-19.2048 10.702 -26.8627 -11.6054 10.702 -26.4995 -4.00604 10.702 -24.3466 
3.59333 10.702 -22.9839 11.1927 10.702 -22.4391 18.7921 10.702 -22.2211 
26.3914 10.702 -21.7522 33.9908 10.702 -20.4655 -26.8041 18.3014 -22.2303 
-19.2048 18.3014 -24.4965 -11.6054 18.3014 -24.5065 -4.00604 18.3014 -23.7979 
3.59333 18.3014 -23.5793 11.1927 18.3014 -23.3905 18.7921 18.3014 -22.9849 
26.3914 18.3014 -22.4281 33.9908 18.3014 -20.2332 -19.2048 25.9008 -19.8317 
-11.6054 25.9008 -21.3347 -4.00604 25.9008 -23.0014 3.59333 25.9008 -23.9639 
11.1927 25.9008 -24.0621 18.7921 25.9008 -23.123 26.3914 25.9008 -21.0227 
-4.00604 33.5001 -20.8176 3.59333 33.5001 -22.632 11.1927 33.5001 -22.5631 
18.7921 33.5001 -19.9791 3.59333 -34.8942 -12.3252 11.1927 -34.8942 -12.0932 
-26.8041 -19.8238 -19.5381 -26.8041 -27.2948 -14.8443 -19.2048 -20.9774 -19.5381 
-19.2048 -27.2948 -16.3256 -11.6054 -27.2948 -15.7763 -4.00604 -27.2948 -16.0029 
3.59333 -27.2948 -16.7783 11.1927 -27.2948 -16.6714 18.7921 -27.2948 -15.4341 
26.3914 -27.2948 -12.4567 -27.0307 -19.6954 -19.5381 -34.4035 -14.5508 -19.5381 
-34.4035 -19.6954 -16.8128 -12.8342 -19.6954 -19.5381 -11.6054 -19.3565 -19.5381 
-11.6054 -19.6954 -19.4239 -4.00604 -17.5836 -19.5381 -4.00604 -19.6954 -19.0109 
3.59333 -17.287 -19.5381 3.59333 -19.6954 -19.1308 11.1927 -16.2475 -19.5381 
11.1927 -19.6954 -19.1123 18.7921 -19.6954 -18.0921 26.3914 -19.6954 -16.3349 
33.9908 -19.6954 -13.6771 -36.1463 -12.0961 -19.5381 -42.0029 -12.0961 -14.2123 
14.6764 -12.0961 -19.5381 18.7921 -12.0961 -18.9462 26.3914 -12.0961 -17.7092 
33.9908 -12.0961 -16.375 41.5902 -12.0961 -13.1424 -37.0804 -4.49671 -19.5381 
-42.0029 -4.49671 -16.0219 16.3101 -4.49671 -19.5381 18.7921 -0.29738 -19.5381 
18.7921 -4.49671 -18.7667 26.3914 -0.726198 -19.5381 26.3914 -4.49671 -18.8881 
33.9908 -4.49671 -17.8474 41.5902 -4.49671 -15.1132 -36.9084 3.10265 -19.5381 
-42.0029 3.10265 -15.7606 31.7972 3.10265 -19.5381 33.9908 4.84369 -19.5381 
33.9908 3.10265 -19.2611 41.5902 3.10265 -16.2019 -35.6424 10.702 -19.5381 
-42.0029 10.702 -14.1763 -34.4035 13.2041 -19.5381 36.0996 10.702 -19.5381 
41.5902 10.702 -16.6179 -31.4505 18.3014 -19.5381 -34.4035 18.3014 -17.5123 
-26.8041 22.8337 -19.5381 35.2905 18.3014 -19.5381 33.9908 20.064 -19.5381 
41.5902 18.3014 -14.2595 -34.4035 25.9008 -12.6005 -20.245 25.9008 -19.5381 
-26.8041 25.9008 -17.4004 -19.2048 26.3091 -19.5381 -11.6054 29.6286 -19.5381 
29.3314 25.9008 -19.5381 26.3914 28.4404 -19.5381 33.9908 25.9008 -15.6148 
-19.2048 33.5001 -13.1454 -7.13848 33.5001 -19.5381 -11.6054 33.5001 -17.1132 
-4.00604 35.348 -19.5381 3.59333 38.2489 -19.5381 11.1927 37.5791 -19.5381 
19.6888 33.5001 -19.5381 18.7921 34.0874 -19.5381 26.3914 33.5001 -12.6133 
3.59333 41.0995 -15.3362 11.1927 41.0995 -13.7011 3.59333 -35.3403 -11.9387 
11.1927 -35.0656 -11.9387 -26.8041 -29.8563 -11.9387 -19.2048 -31.9225 -11.9387 
-19.2048 -34.8942 -7.27126 -11.6054 -32.6518 -11.9387 -11.6054 -34.8942 -9.62637 
0.958984 -34.8942 -11.9387 -4.00604 -33.8284 -11.9387 -4.00604 -34.8942 -11.0572 
11.7278 -34.8942 -11.9387 18.7921 -32.2171 -11.9387 18.7921 -34.8942 -8.83491 
26.3914 -27.9369 -11.9387 -31.0439 -27.2948 -11.9387 -34.4035 -24.7934 -11.9387 
27.3878 -27.2948 -11.9387 33.9908 -22.3342 -11.9387 33.9908 -27.2948 -7.28886 
-39.3792 -19.6954 -11.9387 -42.0029 -15.2921 -11.9387 36.9164 -19.6954 -11.9387 
41.5902 -14.5542 -11.9387 41.5902 -19.6954 -8.19607 -43.6367 -12.0961 -11.9387 
43.2476 -12.0961 -11.9387 -45.4666 -4.49671 -11.9387 45.6876 -4.49671 -11.9387 
49.1895 -4.49671 -7.72068 -45.4342 3.10265 -11.9387 46.7595 3.10265 -11.9387 
49.1895 3.10265 -8.18918 -43.9376 10.702 -11.9387 -42.0029 15.7591 -11.9387 
46.1582 10.702 -11.9387 49.1895 10.702 -4.39164 -40.7779 18.3014 -11.9387 
-42.0029 18.3014 -10.184 43.4423 18.3014 -11.9387 41.5902 20.8641 -11.9387 
-35.05 25.9008 -11.9387 -34.4035 26.5357 -11.9387 -26.8041 31.5034 -11.9387 
37.2248 25.9008 -11.9387 33.9908 28.5341 -11.9387 -21.991 33.5001 -11.9387 
-26.8041 33.5001 -8.63163 -19.2048 34.5279 -11.9387 -11.6054 37.7858 -11.9387 
-4.00604 40.9995 -11.9387 18.7921 38.4464 -11.9387 26.884 33.5001 -11.9387 
26.3914 33.8247 -11.9387 -3.62181 41.0995 -11.9387 -4.00604 41.0995 -11.1692 
3.59333 42.6053 -11.9387 12.9461 41.0995 -11.9387 11.1927 41.7932 -11.9387 
-19.2048 -36.5224 -4.33934 -11.6054 -38.5517 -4.33934 -4.00604 -40.2066 -4.33934 
3.59333 -41.1325 -4.33934 3.59333 -42.4936 1.45759 11.1927 -40.4088 -4.33934 
18.7921 -37.7207 -4.33934 -22.7047 -34.8942 -4.33934 -26.8041 -32.8912 -4.33934 
24.4292 -34.8942 -4.33934 26.3914 -33.8173 -4.33934 26.3914 -34.8942 0.986095 
33.9908 -29.2576 -4.33934 -33.8228 -27.2948 -4.33934 -34.4035 -26.7161 -4.33934 
36.6991 -27.2948 -4.33934 41.5902 -22.9877 -4.33934 -40.6041 -19.6954 -4.33934 
-42.0029 -17.7059 -4.33934 44.5594 -19.6954 -4.33934 -45.4746 -12.0961 -4.33934 
49.009 -12.0961 -4.33934 49.1895 -11.5101 -4.33934 49.1895 -12.0961 -3.07318 
-48.3637 -4.49671 -4.33934 50.9907 -4.49671 -4.33934 -49.2262 3.10265 -4.33934 
-49.6022 3.10265 0.881784 50.9527 3.10265 -4.33934 -48.0597 10.702 -4.33934 
49.2071 10.702 -4.33934 49.1895 10.7436 -4.33934 49.1895 10.702 -2.64067 
-44.8666 18.3014 -4.33934 -42.0029 22.838 -4.33934 45.5311 18.3014 -4.33934 
41.5902 23.1425 -4.33934 -39.6275 25.9008 -4.33934 -34.4035 31.193 -4.33934 
38.7511 25.9008 -4.33934 33.9908 29.6605 -4.33934 -30.7917 33.5001 -4.33934 
-26.8041 35.6656 -4.33934 -19.2048 38.3443 -4.33934 -11.6054 40.2084 -4.33934 
18.7921 38.712 -4.33934 27.861 33.5001 -4.33934 26.3914 34.3881 -4.33934 
26.3914 33.5001 0.104593 -7.40233 41.0995 -4.33934 -4.00604 41.8152 -4.33934 
-4.00604 41.0995 -1.23535 3.59333 42.5374 -4.33934 3.59333 41.0995 0.946097 
12.5231 41.0995 -4.33934 11.1927 41.5659 -4.33934 11.1927 41.0995 -2.50681 
3.59333 -42.8756 3.26003 -19.2048 -38.1911 3.26003 -11.6054 -40.8088 3.26003 
-1.40163 -42.4936 3.26003 -4.00604 -42.2952 3.26003 6.55609 -42.4936 3.26003 
3.59333 -42.4936 5.87986 11.1927 -41.87 3.26003 18.7921 -39.1679 3.26003 
26.3914 -35.2945 3.26003 -24.8531 -34.8942 3.26003 -26.8041 -33.5118 3.26003 
27.0774 -34.8942 3.26003 26.3914 -34.8942 5.82987 33.9908 -30.9543 3.26003 
-33.6644 -27.2948 3.26003 -34.4035 -26.5249 3.26003 38.807 -27.2948 3.26003 
41.5902 -24.7266 3.26003 -40.1799 -19.6954 3.26003 -42.0029 -17.2675 3.26003 
46.0754 -19.6954 3.26003 49.1895 -13.7755 3.26003 -45.4345 -12.0961 3.26003 
49.9577 -12.0961 3.26003 49.1895 -12.0961 5.8459 -48.7454 -4.49671 3.26003 
-49.6022 1.89404 3.26003 51.6144 -4.49671 3.26003 -49.7615 3.10265 3.26003 
-49.6022 4.19365 3.26003 -49.6022 3.10265 3.91044 51.3288 3.10265 3.26003 
49.1895 10.4997 3.26003 49.1895 3.10265 9.49417 -48.5757 10.702 3.26003 
49.1267 10.702 3.26003 -45.1119 18.3014 3.26003 -42.0029 23.0445 3.26003 
-42.0029 18.3014 9.99584 44.7972 18.3014 3.26003 41.5902 21.9222 3.26003 
41.5902 18.3014 9.34922 -39.7758 25.9008 3.26003 -34.4035 31.1083 3.26003 
26.3914 32.8318 3.26003 37.0716 25.9008 3.26003 33.9908 28.1758 3.26003 
33.9908 25.9008 7.59464 -30.758 33.5001 3.26003 -26.8041 35.696 3.26003 
-26.8041 33.5001 7.15958 -19.2048 38.006 3.26003 -19.2048 33.5001 10.7366 
-11.6054 39.1287 3.26003 -4.00604 39.9841 3.26003 3.59333 40.4387 3.26003 
11.1927 39.5983 3.26003 25.1379 33.5001 3.26003 18.7921 36.7444 3.26003 
18.7921 33.5001 9.28341 -19.2048 -37.9144 10.8594 -11.6054 -40.622 10.8594 
-4.00604 -41.7631 10.8594 3.59333 -41.7297 10.8594 11.1927 -40.5216 10.8594 
18.7921 -37.8165 10.8594 -24.0379 -34.8942 10.8594 -26.8041 -32.7478 10.8594 
-19.2048 -34.8942 17.5056 24.7536 -34.8942 10.8594 18.7921 -34.8942 15.8859 
26.3914 -34.021 10.8594 33.9908 -29.2929 10.8594 -32.4982 -27.2948 10.8594 
-34.4035 -25.1936 10.8594 36.5332 -27.2948 10.8594 33.9908 -27.2948 13.5764 
41.5902 -22.0628 10.8594 -38.9459 -19.6954 10.8594 -42.0029 -15.3853 10.8594 
43.496 -19.6954 10.8594 41.5902 -19.6954 13.0145 -44.1506 -12.0961 10.8594 
-42.0029 -12.0961 14.7122 47.3809 -12.0961 10.8594 41.5902 -12.0961 16.8384 
49.1895 -4.71543 10.8594 -47.2151 -4.49671 10.8594 -42.0029 -4.49671 17.7695 
41.5902 -4.49671 17.796 49.236 -4.49671 10.8594 49.1895 -3.86083 10.8594 
49.1895 -4.49671 10.9257 -47.6283 3.10265 10.8594 -42.0029 3.10265 17.7371 
48.5745 3.10265 10.8594 41.5902 3.10265 17.2634 -45.5867 10.702 10.8594 
-42.0029 17.4401 10.8594 -42.0029 10.702 14.7375 45.8428 10.702 10.8594 
41.5902 17.0321 10.8594 41.5902 10.702 15.0437 -41.3838 18.3014 10.8594 
-34.4035 18.3014 15.7736 -4.00604 18.3014 18.4302 26.3914 18.3014 17.6469 
40.4624 18.3014 10.8594 33.9908 23.7432 10.8594 33.9908 18.3014 15.3014 
-34.4102 25.9008 10.8594 -34.4035 25.9069 10.8594 -34.4035 25.9008 10.8646 
-26.8041 30.6029 10.8594 -26.8041 25.9008 14.5381 -19.2048 33.3866 10.8594 
-19.2048 25.9008 16.1809 -11.6054 25.9008 16.0637 -4.00604 25.9008 16.2576 
3.59333 25.9008 17.3329 11.1927 25.9008 17.3466 18.7921 32.4013 10.8594 
18.7921 25.9008 15.9518 30.6204 25.9008 10.8594 26.3914 28.4441 10.8594 
26.3914 25.9008 13.2738 -18.3848 33.5001 10.8594 -11.6054 34.2728 10.8594 
-11.6054 33.5001 11.5553 -4.00604 34.6614 10.8594 -4.00604 33.5001 11.8857 
3.59333 35.5366 10.8594 3.59333 33.5001 12.762 15.948 33.5001 10.8594 
[...]
POINT_DATA 492
SCALARS ImageScalars float
LOOKUP_TABLE default
0 0 0 0 0 0 0 0 0 
0 0 0 0 0 0 0 0 0 
0 0 0 0 0 0 0 0 0 
0 0 0 0 0 0 0 0 0 
0 0 0 0 0 0 0 0 0 
0 0 0 0 0 0 0 0 0 
0 0 0 0 0 0 0 0 0 
0 0 0 0 0 0 0 0 0 
0 0 0 0 0 0 0 0 0 
0 0 0 0 0 0 0 0 0 
0 0 0 0 0 0 0 0 0 
0 0 0 0 0 0 0 0 0 
0 0 0 0 0 0 0 0 0 
0 0 0 0 0 0 0 0 0 
0 0 0 0 0 0 0 0 0 
0 0 0 0 0 0 0 0 0 
0 0 0 0 0 0 0 0 0 
0 0 0 0 0 0 0 0 0 
0 0 0 0 0 0 0 0 0 
0 0 0 0 0 0 0 0 0 
0 0 0 0 0 0 0 0 0 
0 0 0 0 0 0 0 0 0 
0 0 0 0 0 0 0 0 0 
0 0 0 0 0 0 0 0 0 
0 0 0 0 0 0 0 0 0 
0 0 0 0 0 0 0 0 0 
0 0 0 0 0 0 0 0 0 
0 0 0 0 0 0 0 0 0 
0 0 0 0 0 0 0 0 0 
0 0 0 0 0 0 0 0 0 
0 0 0 0 0 0 0 0 0 
0 0 0 0 0 0 0 0 0 
0 0 0 0 0 0 0 0 0 
0 0 0 0 0 0 0 0 0 
0 0 0 0 0 0 0 0 0 
0 0 0 0 0 0 0 0 0 
0 0 0 0 0 0 0 0 0 
0 0 0 0 0 0 0 0 0 
0 0 0 0 0 0 0 0 0 
0 0 0 0 0 0 0 0 0 
0 0 0 0 0 0 0 0 0 
0 0 0 0 0 0 0 0 0 
0 0 0 0 0 0 0 0 0 
0 0 0 0 0 0 0 0 0 
0 0 0 0 0 0 0 0 0 
0 0 0 0 0 0 0 0 0 
0 0 0 0 0 0 0 0 0 
0 0 0 0 0 0 0 0 0 
0 0 0 0 0 0 0 0 0 
0 0 0 0 0 0 0 0 0 
0 0 0 0 0 0 0 0 0 
0 0 0 0 0 0 0 0 0 
0 0 0 0 0 0 0 0 0 
0 0 0 0 0 0 0 0 0 
0 0 0 0 0 0 
NORMALS Normals float
0.169075 0.407191 0.897557 -0.0143618 0.36551 0.930697 0.366496 0.216512 0.904877 
0.126738 0.233491 0.964064 -0.0237763 0.256899 0.966146 -0.103715 0.248028 0.963185 
-0.0911898 0.135612 0.986557 -0.0514133 0.157139 0.986237 -0.0956431 0.133364 0.986441 
0.416314 0.0436564 0.908172 0.182272 0.141251 0.973049 0.00181441 0.244857 0.969557 
-0.188544 0.256684 0.947926 -0.117965 0.172809 0.977866 0.00300917 0.21055 0.977578 
-0.197 0.147501 0.969244 0.483963 -0.0421513 0.874072 0.305193 0.0595262 0.950428 
0.0900478 0.171575 0.981047 -0.164816 0.192681 0.967321 -0.152125 0.204515 0.96697 
-0.0824592 0.0810683 0.993292 -0.226871 0.0767764 0.970894 -0.124918 0.221873 0.967041 
-0.05886 0.192194 0.97959 0.525771 -0.185998 0.830042 0.38793 -0.125931 0.913045 
0.124054 -0.105042 0.9867 -0.160907 -0.0795346 0.98376 -0.228672 0.00720006 0.973477 
-0.121312 0.00249023 0.992611 -0.0493707 0.0727886 0.996125 -0.0447952 0.181953 0.982286 
-0.109791 0.147963 0.98288 -0.297035 0.0630956 0.95278 0.377467 -0.377473 0.845596 
0.128912 -0.411834 0.902095 -0.046682 -0.318868 0.946649 -0.0558255 -0.0850059 0.994815 
-0.0271087 0.0649921 0.997517 -0.0383077 0.109084 0.993294 -0.0654723 0.0581943 0.996156 
-0.172561 -0.0425505 0.984079 -0.402539 -0.192725 0.894885 0.202263 -0.569904 0.796429 
0.19137 -0.399795 0.896405 0.161579 -0.183822 0.969589 0.0682739 -0.0615943 0.995763 
-0.0567841 -0.0369626 0.997702 -0.194519 -0.164201 0.967058 -0.377009 -0.364388 0.85152 
0.311222 -0.45678 0.833362 0.106237 -0.36662 0.924285 -0.159578 -0.40789 0.898978 
-0.373441 -0.570382 0.731577 0.0484735 0.63568 0.770429 -0.132307 0.660196 0.739349 
0.170577 0.411353 0.895373 0.308299 0.691139 0.653665 -0.0072973 0.396353 0.918069 
0.0398846 0.582069 0.81216 -0.0167394 0.51193 0.858864 0.0607488 0.44216 0.894877 
0.0394902 0.390157 0.919901 -0.0780372 0.401374 0.912584 -0.229683 0.451251 0.862333 
-0.385973 0.561055 0.732286 0.176531 0.410182 0.894756 0.383202 0.302114 0.872859 
0.478912 0.532161 0.698175 -0.0593435 0.366136 0.928667 -0.0700271 0.36065 0.930069 
-0.0682597 0.366397 0.927951 -0.0396968 0.254259 0.966321 -0.0174181 0.302985 0.952836 
-0.0125579 0.202927 0.979113 0.0061887 0.227131 0.973845 -0.0771379 0.172214 0.982035 
-0.063691 0.207963 0.976061 -0.168541 0.207691 0.963565 -0.250803 0.284326 0.925341 
-0.401219 0.439508 0.803652 0.439484 0.221236 0.870579 0.788261 0.302954 0.535597 
-0.118695 0.0881448 0.989011 -0.147419 0.0404015 0.988249 -0.166778 0.157692 0.973303 
-0.271706 0.231562 0.934106 -0.5203 0.316437 0.793193 0.506047 0.0267798 0.86209 
0.709262 0.058548 0.702509 -0.158895 0.0976739 0.982452 -0.132433 0.157226 0.978643 
-0.141497 0.077741 0.986881 -0.055129 0.170616 0.983794 -0.0541268 0.152561 0.986811 
-0.212906 0.18149 0.960069 -0.471374 0.181429 0.86307 0.545601 -0.0548053 0.836251 
0.696417 -0.0856681 0.712506 -0.181362 0.170173 0.968581 -0.245844 0.13968 0.959192 
-0.230945 0.161528 0.959465 -0.515314 0.0839229 0.852883 0.549317 -0.191015 0.813489 
0.723447 -0.23384 0.649572 0.535892 -0.243581 0.808386 -0.365877 0.0375009 0.929907 
-0.600847 -0.0749697 0.795841 0.48603 -0.369551 0.791964 0.558112 -0.371195 0.742109 
0.351287 -0.497499 0.793154 -0.445928 -0.213178 0.869312 -0.442504 -0.272348 0.85441 
-0.738256 -0.393459 0.547876 0.57335 -0.583033 0.575623 0.2193 -0.571088 0.791054 
0.33581 -0.584887 0.738335 0.208903 -0.575308 0.79081 0.287092 -0.477758 0.830256 
-0.454001 -0.440874 0.774282 -0.436723 -0.492252 0.752968 -0.578201 -0.629365 0.519215 
0.321978 -0.731651 0.600846 0.343551 -0.509231 0.789086 0.363389 -0.610509 0.703724 
0.329042 -0.556766 0.762721 0.09923 -0.65495 0.749128 -0.195539 -0.681822 0.7049 
-0.390179 -0.593845 0.703639 -0.381599 -0.60025 0.70291 -0.524294 -0.80942 0.264489 
0.0726766 -0.912771 0.401955 -0.236434 -0.935419 0.26285 0.0479728 0.650547 0.757949 
-0.133158 0.666306 0.733693 0.351998 0.770776 0.531038 0.14452 0.738658 0.658406 
0.267465 0.854414 0.445465 0.0841398 0.657962 0.748336 0.147449 0.751353 0.643216 
0.0712612 0.643132 0.762432 0.109645 0.624285 0.773464 0.120243 0.667613 0.734734 
-0.145105 0.665308 0.732332 -0.293154 0.627963 0.720918 -0.341062 0.762991 0.549109 
-0.39356 0.581782 0.711786 0.48933 0.741594 0.458905 0.591706 0.696183 0.406464 
-0.398949 0.575069 0.714238 -0.428926 0.521563 0.73756 -0.500925 0.708158 0.49758 
0.732096 0.569313 0.374057 0.81873 0.424802 0.386295 -0.468583 0.477124 0.743494 
-0.543296 0.374232 0.751518 -0.62428 0.55147 0.553314 0.849294 0.328664 0.413135 
-0.586277 0.318387 0.744922 0.845704 0.0983301 0.524515 -0.666473 0.161144 0.727906 
-0.878493 0.13688 0.457726 0.808701 -0.0812891 0.582575 -0.749276 0.0137014 0.662116 
-0.901913 -0.0666309 0.426748 0.780443 -0.240603 0.577078 0.734193 -0.360731 0.575182 
-0.812881 -0.17333 0.55604 -0.938256 -0.309241 0.155068 0.70295 -0.416632 0.576436 
0.757718 -0.431888 0.48922 -0.79509 -0.433568 0.424087 -0.763364 -0.509164 0.397525 
0.590595 -0.584954 0.555902 0.573358 -0.600407 0.557469 0.381371 -0.720247 0.579483 
-0.652255 -0.682927 0.3289 -0.58594 -0.748111 0.311454 0.345525 -0.748612 0.565856 
0.400067 -0.817277 0.414735 0.321526 -0.761858 0.562311 0.345948 -0.819838 0.456273 
0.292126 -0.907771 0.301021 -0.465951 -0.862086 0.199242 -0.526712 -0.817402 0.233299 
-0.524567 -0.819586 0.230452 0.27841 -0.91434 0.294058 0.277803 -0.924125 0.262333 
0.0484832 -0.978951 0.198254 -0.293165 -0.940449 0.172078 -0.241666 -0.955212 0.170783 
0.313854 0.888966 0.333519 0.218624 0.881379 0.418777 0.153016 0.887473 0.434716 
0.0108277 0.919369 0.393247 -0.0180028 0.993413 0.113168 -0.196814 0.913497 0.356073 
-0.380369 0.863087 0.332265 0.398678 0.872219 0.283356 0.513607 0.835327 0.196052 
-0.451887 0.831367 0.32346 -0.472479 0.818826 0.326018 -0.487608 0.867531 0.0981234 
-0.521313 0.774056 0.359263 0.688768 0.72005 0.084416 0.701481 0.70856 0.0765922 
-0.562206 0.746762 0.355346 -0.663471 0.659525 0.353318 0.791225 0.610562 0.0343065 
0.825368 0.56246 0.0490502 -0.738781 0.571407 0.357346 0.893388 0.438959 0.0957737 
-0.883607 0.355262 0.305005 -0.891749 0.336883 0.302147 -0.904924 0.352698 0.238153 
0.957679 0.219345 0.186382 -0.949855 0.119942 0.288773 0.968131 -0.0117256 0.250169 
0.999856 -0.00781289 0.0150727 -0.965098 -0.112307 0.236586 0.930927 -0.264875 0.251428 
-0.938439 -0.309798 0.152832 -0.938121 -0.310957 0.152431 -0.942007 -0.325136 0.0831244 
0.866074 -0.450997 0.215678 0.802526 -0.556531 0.214998 -0.830925 -0.552126 0.068706 
-0.729885 -0.683048 0.0267213 0.743957 -0.633479 0.21268 0.607416 -0.765827 0.211081 
-0.657243 -0.753664 -0.00462712 -0.574925 -0.817842 -0.0243913 0.497984 -0.840401 0.213864 
0.400244 -0.893224 0.204831 0.275506 -0.943392 0.184685 0.218036 -0.973605 0.0674759 
-0.430812 -0.897062 -0.0983909 -0.514887 -0.85571 -0.0514876 -0.503879 -0.861955 -0.056037 
-0.490262 -0.850108 -0.192249 0.177422 -0.984114 -0.00641496 0.148647 -0.986976 -0.0615087 
0.121518 -0.975391 -0.183974 -0.0125351 -0.990624 -0.136043 -0.0210015 -0.953561 -0.300467 
-0.266388 -0.954861 -0.131449 -0.231933 -0.963133 -0.136313 -0.227464 -0.955644 -0.187093 
-0.0262306 0.999105 0.0331943 0.418043 0.904572 0.0836004 0.25416 0.959933 0.118031 
0.0782383 0.994717 0.0664525 0.131801 0.987656 0.0846442 -0.103648 0.99437 0.0220249 
-0.0421026 0.996219 -0.0760002 -0.22664 0.973964 0.00525144 -0.397628 0.91754 0.0035406 
-0.485437 0.874218 0.00966346 0.563273 0.825725 0.0300312 0.612194 0.790707 -0.000759481 
-0.488703 0.872388 0.0103663 -0.484393 0.869802 -0.0938477 -0.545103 0.838325 0.00864245 
0.711751 0.699879 -0.0598225 0.720297 0.6908 -0.062988 -0.637379 0.770517 -0.00716356 
-0.700542 0.713178 -0.0248546 0.775729 0.625538 -0.0833452 0.809147 0.581847 -0.0820703 
-0.821349 0.568285 -0.0493698 -0.927476 0.36624 -0.0752026 0.872415 0.48344 -0.0719591 
-0.944187 0.319137 -0.0816208 -0.926401 0.316423 -0.204101 0.964525 0.256553 -0.0622319 
0.995891 0.0343016 -0.0838088 -0.991037 0.0859237 -0.102291 0.996085 -0.00678585 -0.0881364 
0.99473 -0.0444287 -0.0924053 0.993165 -0.0118698 -0.116117 -0.979326 -0.152808 -0.132555 
-0.918923 -0.359628 -0.162012 -0.881444 -0.170163 -0.440569 0.952278 -0.280303 -0.120815 
-0.916295 -0.365686 -0.163333 0.856886 -0.490395 -0.158929 0.794354 -0.582506 -0.172304 
0.700117 -0.482873 -0.525994 -0.769462 -0.596516 -0.228246 -0.687834 -0.683749 -0.243663 
-0.648974 -0.581819 -0.490223 0.742859 -0.642806 -0.186979 0.605139 -0.767604 -0.211167 
-0.474358 -0.830693 -0.291434 -0.58984 -0.760933 -0.270315 -0.540127 -0.792892 -0.282109 
-0.506904 -0.737261 -0.446648 0.495697 -0.840623 -0.218261 0.387013 -0.893153 -0.229126 
0.362653 -0.814759 -0.452383 0.207685 -0.943631 -0.257734 0.164667 -0.709811 -0.684875 
0.123701 -0.941069 -0.31478 0.079756 -0.922518 -0.377623 -0.0225543 -0.925221 -0.378757 
-0.214438 -0.910672 -0.353119 -0.461874 -0.836598 -0.294578 -0.389274 -0.863189 -0.321513 
-0.3441 -0.764506 -0.545093 0.42924 0.880563 -0.200901 0.233131 0.950489 -0.205476 
0.0698211 0.968471 -0.239144 -0.0747529 0.952835 -0.294139 -0.234058 0.91681 -0.323538 
-0.373367 0.872367 -0.315552 0.559971 0.801914 -0.208245 0.630931 0.746172 -0.212492 
0.393427 0.735241 -0.551938 -0.44745 0.839696 -0.307734 -0.350569 0.753529 -0.556143 
-0.468029 0.825766 -0.314735 -0.556874 0.742027 -0.373213 0.701828 0.675231 -0.226938 
0.723894 0.649228 -0.233412 -0.60034 0.700275 -0.386273 -0.548403 0.657445 -0.51674 
-0.692834 0.567891 -0.444388 0.773251 0.584567 -0.245693 0.818342 0.502854 -0.278307 
-0.726515 0.507203 -0.463597 -0.66802 0.481582 -0.567299 0.8457 0.444864 -0.294767 
0.791379 0.384702 -0.475103 -0.825413 0.289726 -0.484513 -0.565369 0.218374 -0.795406 
-0.867011 0.0725565 -0.492979 0.903927 0.19271 -0.381809 0.661599 0.0957625 -0.743718 
-0.483686 0.0201608 -0.875009 -0.867176 0.0660983 -0.493596 -0.867046 0.0461921 -0.496082 
-0.865428 0.0658438 -0.496688 0.886796 -0.0801009 -0.455166 0.587064 -0.142892 -0.79683 
-0.835884 -0.171495 -0.521429 -0.491896 -0.143312 -0.858778 0.7964 -0.331219 -0.506005 
0.681143 -0.461007 -0.568785 0.609989 -0.352309 -0.709783 -0.749345 -0.377785 -0.543838 
-0.630156 -0.535917 -0.561869 -0.557624 -0.352118 -0.75171 0.661816 -0.476729 -0.578558 
0.414001 -0.44093 -0.796357 0.0465838 -0.241496 -0.969283 -0.184098 -0.376484 -0.907947 
-0.598807 -0.566294 -0.56634 -0.458833 -0.663914 -0.590501 -0.372201 -0.503815 -0.779511 
0.49498 -0.583789 -0.643572 0.49482 -0.583887 -0.643606 0.494747 -0.583721 -0.643813 
0.305507 -0.663881 -0.682589 0.266539 -0.53552 -0.801358 0.16292 -0.702947 -0.692331 
0.0807763 -0.484013 -0.871325 0.00500198 -0.431422 -0.902136 0.0744985 -0.37318 -0.924763 
0.0651128 -0.403006 -0.912878 -0.0765607 -0.418296 -0.905078 -0.321461 -0.711995 -0.624281 
-0.221775 -0.456002 -0.861904 -0.435008 -0.67342 -0.597724 -0.400314 -0.683088 -0.610851 
-0.360638 -0.602776 -0.711759 0.152754 -0.702131 -0.69547 0.0641744 -0.689865 -0.721088 
0.0601197 -0.659753 -0.749074 0.0639831 -0.673292 -0.736603 0.0659487 -0.631649 -0.772444 
0.0196878 -0.715746 -0.698083 0.0305103 -0.640817 -0.767087 -0.263196 -0.728009 -0.633033 
-0.154898 -0.735735 -0.659319 -0.142161 -0.682084 -0.717323 0.188296 0.736294 -0.649935 
0.0282745 0.74516 -0.666286 -0.106535 0.719475 -0.686299 -0.220811 0.677243 -0.701844 
0.544302 0.598203 -0.588123 0.344419 0.707074 -0.617593 0.375861 0.68915 -0.619516 
0.177051 0.642675 -0.745401 0.0194971 0.596969 -0.802027 -0.109362 0.599549 -0.792831 
-0.256204 0.66712 -0.699507 -0.217558 0.641946 -0.735237 -0.3135 0.610795 -0.727082 
-0.399365 0.506992 -0.76385 0.566159 0.579518 -0.586194 0.629524 0.483233 -0.608429 
0.521036 0.552209 -0.650836 0.253545 0.346904 -0.90298 0.0935361 0.24303 -0.965499 
-0.0131974 0.21568 -0.976375 -0.0518763 0.238055 -0.969865 -0.147883 0.281191 -0.948189 
-0.261677 0.35976 -0.895599 -0.409069 0.4911 -0.76908 -0.389471 0.474921 -0.789153 
-0.437303 0.358843 -0.82462 0.632471 0.474347 -0.612352 0.618397 0.464982 -0.633543 
0.304209 0.246341 -0.920203 0.114898 0.0835547 -0.989857 0.0527692 0.00995134 -0.998557 
0.0202157 0.0531586 -0.998381 -0.0569317 0.0477747 -0.997234 -0.117819 0.00501453 -0.993022 
-0.152237 0.0708594 -0.985801 -0.281375 0.169154 -0.944571 -0.441191 0.339672 -0.830646 
-0.426144 0.329076 -0.84268 0.649099 0.274524 -0.709441 0.432972 0.175171 -0.884223 
0.144957 0.0274094 -0.989058 0.0168423 -0.0550664 -0.998341 0.0582113 -0.0785353 -0.99521 
0.0224191 -0.0336537 -0.999182 -0.0983588 -0.0651262 -0.993018 -0.11857 -0.129133 -0.984513 
-0.105812 -0.105433 -0.988781 -0.148412 -0.00544833 -0.988911 -0.453437 0.167122 -0.87548 
-0.288997 0.10164 -0.951919 0.610205 0.0677043 -0.789345 0.321874 -0.0486271 -0.945533 
0.0768649 -0.0870331 -0.993236 0.00856106 -0.0951516 -0.995426 0.0730674 -0.110209 -0.991219 
0.0329668 -0.180514 -0.98302 -0.152485 -0.122802 -0.980647 -0.151809 -0.0564502 -0.986796 
-0.0385139 -0.100161 -0.994226 -0.0670843 -0.0420334 -0.996862 -0.41847 0.0024741 -0.908227 
-0.23019 -0.0421706 -0.972232 0.521277 -0.149467 -0.840196 0.29303 -0.178339 -0.939324 
0.0996255 -0.158527 -0.982316 0.000509332 -0.105637 -0.994405 -0.0350022 -0.138323 -0.989768 
0.0105778 -0.290183 -0.956913 0.0324348 -0.128907 -0.991126 -0.0995286 0.00224277 -0.995032 
-0.0893192 -0.0717425 -0.993416 -0.0854684 -0.107443 -0.990531 -0.374902 -0.128333 -0.918139 
-0.233698 -0.11689 -0.965258 0.363589 -0.305468 -0.880052 0.338408 -0.324201 -0.883388 
0.320727 -0.291723 -0.901128 0.159621 -0.252802 -0.95426 0.0240972 -0.197654 -0.979976 
-0.1057 -0.223247 -0.969014 0.0462774 -0.241087 -0.9694 0.0351335 -0.229436 -0.972689 
0.141634 -0.18559 -0.972366 -0.0956237 -0.164227 -0.981777 -0.142751 -0.176607 -0.973875 
-0.157921 -0.322959 -0.933144 -0.112199 -0.219388 -0.969165 -0.292174 -0.271201 -0.917106 
-0.27835 -0.283653 -0.91764 -0.270823 -0.265047 -0.925421 0.215445 -0.371009 -0.903292 
0.209029 -0.3726 -0.904144 0.207857 -0.368468 -0.906105 0.0477463 -0.386073 -0.921232 
0.0364435 -0.341322 -0.93924 0.0420192 -0.245035 -0.968603 -0.0552788 -0.353867 -0.933661 
-0.0728785 -0.331314 -0.940702 0.0475656 -0.242281 -0.969039 0.080412 -0.350258 -0.933195 
0.105131 -0.291493 -0.950778 -0.0784032 -0.367952 -0.926533 -0.0880677 -0.308697 -0.947075 
-0.148339 -0.28424 -0.947208 -0.146647 -0.279244 -0.948956 -0.144897 -0.273633 -0.950858 

