# vtk DataFile Version 4.2
vtk output
ASCII
DATASET POLYDATA
POINTS 544 float
-13.9436 -41.9046 -12.5952 -5.61164 -41.9046 -13.8611 2.7203 -41.9046 -14.6475 
11.0522 -41.9046 -13.7201 -30.6075 -33.5727 -14.0874 -22.2755 -33.5727 -14.0617 
-13.9436 -33.5727 -15.1722 -5.61164 -33.5727 -16.6106 2.7203 -33.5727 -18.2324 
11.0522 -33.5727 -17.8294 19.3842 -33.5727 -16.3707 27.7161 -33.5727 -13.3486 
-55.6033 -25.2407 -13.3621 -47.2713 -25.2407 -15.0796 -38.9394 -25.2407 -15.4088 
-30.6075 -25.2407 -15.9964 -22.2755 -25.2407 -15.3966 -13.9436 -25.2407 -15.9734 
-5.61164 -25.2407 -17.6093 2.7203 -25.2407 -18.2747 11.0522 -25.2407 -18.9736 
19.3842 -25.2407 -18.3836 27.7161 -25.2407 -17.4781 36.0481 -25.2407 -14.606 
-55.6033 -16.9088 -15.423 -47.2713 -16.9088 -16.6691 -38.9394 -16.9088 -17.7126 
-30.6075 -16.9088 -16.7898 -22.2755 -16.9088 -15.7216 -13.9436 -16.9088 -15.9203 
-5.61164 -16.9088 -17.5859 2.7203 -16.9088 -17.4114 11.0522 -16.9088 -18.034 
19.3842 -16.9088 -19.0904 27.7161 -16.9088 -19.0215 36.0481 -16.9088 -17.9359 
44.38 -16.9088 -15.6241 -63.9352 -8.57686 -13.2361 -55.6033 -8.57686 -17.3301 
-47.2713 -8.57686 -18.5385 -38.9394 -8.57686 -18.2265 -30.6075 -8.57686 -17.4664 
-22.2755 -8.57686 -16.0786 -13.9436 -8.57686 -16.988 -5.61164 -8.57686 -18.8778 
2.7203 -8.57686 -17.8424 11.0522 -8.57686 -19.2037 19.3842 -8.57686 -19.6943 
27.7161 -8.57686 -20.2938 36.0481 -8.57686 -20.4261 44.38 -8.57686 -19.1754 
52.7119 -8.57686 -16.3904 -63.9352 -0.244918 -15.3695 -55.6033 -0.244918 -18.3645 
-47.2713 -0.244918 -19.6931 -38.9394 -0.244918 -18.8965 -30.6075 -0.244918 -17.6539 
-22.2755 -0.244918 -16.094 -13.9436 -0.244918 -17.6726 -5.61164 -0.244918 -18.2543 
2.7203 -0.244918 -17.4749 11.0522 -0.244918 -20.0814 19.3842 -0.244918 -19.4409 
27.7161 -0.244918 -20.3138 36.0481 -0.244918 -20.7725 44.38 -0.244918 -20.2327 
52.7119 -0.244918 -18.4358 61.0439 -0.244918 -14.8226 -63.9352 8.08702 -14.8788 
-55.6033 8.08702 -18.4416 -47.2713 8.08702 -20.1337 -38.9394 8.08702 -19.3885 
-30.6075 8.08702 -18.2185 -22.2755 8.08702 -16.5959 -13.9436 8.08702 -16.7587 
-5.61164 8.08702 -18.066 2.7203 8.08702 -17.4251 11.0522 8.08702 -18.4635 
19.3842 8.08702 -18.0601 27.7161 8.08702 -19.261 36.0481 8.08702 -20.2374 
44.38 8.08702 -19.44 52.7119 8.08702 -18.3858 61.0439 8.08702 -14.8824 
-63.9352 16.419 -15.4672 -55.6033 16.419 -20.6958 -47.2713 16.419 -19.4415 
-38.9394 16.419 -19.3942 -30.6075 16.419 -19.2846 -22.2755 16.419 -18.1337 
-13.9436 16.419 -16.8888 -5.61164 16.419 -15.116 2.7203 16.419 -15.9572 
11.0522 16.419 -17.3098 19.3842 16.419 -15.8333 27.7161 16.419 -16.1594 
36.0481 16.419 -17.0709 44.38 16.419 -16.4713 52.7119 16.419 -15.2465 
61.0439 16.419 -13.5864 -55.6033 24.7509 -16.1022 -47.2713 24.7509 -18.1159 
-38.9394 24.7509 -19.6112 -30.6075 24.7509 -18.6412 -22.2755 24.7509 -18.6485 
-13.9436 24.7509 -17.0161 -5.61164 24.7509 -15.7239 2.7203 24.7509 -14.8424 
11.0522 24.7509 -14.0439 44.38 24.7509 -12.586 -47.2713 33.0828 -14.7438 
-38.9394 33.0828 -16.3699 -30.6075 33.0828 -17.0627 -22.2755 33.0828 -16.7196 
-13.9436 33.0828 -15.7902 -5.61164 33.0828 -14.8227 2.7203 33.0828 -12.7792 
-13.9436 -42.1095 -12.4639 -5.61164 -43.6969 -12.4639 2.7203 -44.4146 -12.4639 
11.0522 -43.2444 -12.4639 -38.9394 -41.9046 -4.542 -30.6075 -38.5301 -12.4639 
-30.6075 -41.9046 -10.1349 -14.4677 -41.9046 -12.4639 -22.2755 -37.3287 -12.4639 
-22.2755 -41.9046 -9.96483 14.7702 -41.9046 -12.4639 19.3842 -39.7551 -12.4639 
19.3842 -41.9046 -9.76078 27.7161 -34.7311 -12.4639 -55.6033 -26.5492 -12.4639 
-47.2713 -31.3103 -12.4639 -47.2713 -33.5727 -11.0816 -37.9509 -33.5727 -12.4639 
-38.9394 -32.9478 -12.4639 -38.9394 -33.5727 -12.1927 29.5625 -33.5727 -12.4639 
36.0481 -28.7764 -12.4639 36.0481 -33.5727 -8.34877 -57.0085 -25.2407 -12.4639 
40.5637 -25.2407 -12.4639 44.38 -22.2705 -12.4639 44.38 -25.2407 -10.0105 
-62.8127 -16.9088 -12.4639 -63.9352 -13.8919 -12.4639 -63.9352 -16.9088 -11.6713 
52.2012 -16.9088 -12.4639 52.7119 -16.4868 -12.4639 52.7119 -16.9088 -12.1907 
61.0439 -16.9088 -4.95557 -65.0188 -8.57686 -12.4639 60.7964 -8.57686 -12.4639 
61.0439 -8.16612 -12.4639 61.0439 -8.57686 -12.293 -67.8645 -0.244918 -12.4639 
-72.2672 -0.244918 -6.07713 64.3122 -0.244918 -12.4639 69.3758 -0.244918 -7.19594 
-67.2647 8.08702 -12.4639 65.2011 8.08702 -12.4639 69.3758 8.08702 -9.15146 
-67.5587 16.419 -12.4639 -63.9352 23.2679 -12.4639 19.3842 24.1524 -12.4639 
27.7161 23.7767 -12.4639 36.0481 24.2836 -12.4639 52.7119 22.166 -12.4639 
62.5931 16.419 -12.4639 61.0439 17.9949 -12.4639 69.3758 16.419 -4.90671 
-62.3508 24.7509 -12.4639 -63.9352 24.7509 -10.0659 -55.6033 31.6121 -12.4639 
18.1774 24.7509 -12.4639 11.0522 28.1923 -12.4639 19.3842 24.7509 -12.1845 
27.7161 24.7509 -11.9361 42.1235 24.7509 -12.4639 36.0481 24.7509 -12.127 
45.0989 24.7509 -12.4639 44.38 24.887 -12.4639 52.7119 24.7509 -10.7801 
61.0439 24.7509 -5.28311 -53.2967 33.0828 -12.4639 -55.6033 33.0828 -9.95681 
-47.2713 35.397 -12.4639 -38.9394 38.7098 -12.4639 -30.6075 39.6314 -12.4639 
-22.2755 40.4751 -12.4639 -13.9436 40.0484 -12.4639 -5.61164 37.8715 -12.4639 
3.74889 33.0828 -12.4639 2.7203 33.7063 -12.4639 11.0522 33.0828 -9.90856 
19.3842 33.0828 -7.10267 27.7161 33.0828 -5.74494 36.0481 33.0828 -5.60833 
-38.9394 41.4148 -5.71527 -30.6075 41.4148 -10.0646 -22.2755 41.4148 -11.3721 
-13.9436 41.4148 -11.3521 -5.61164 41.4148 -9.52851 2.7203 41.4148 -6.08183 
-38.9394 -42.0955 -4.13193 -30.6075 -45.0752 -4.13193 -22.2755 -46.8629 -4.13193 
-13.9436 -48.8943 -4.13193 -5.61164 -50.0969 -4.13193 2.7203 -49.7224 -4.13193 
11.0522 -47.7316 -4.13193 19.3842 -44.6628 -4.13193 -39.3386 -41.9046 -4.13193 
-47.2713 -37.7659 -4.13193 -38.9394 -41.9046 -3.1428 25.5605 -41.9046 -4.13193 
27.7161 -40.7772 -4.13193 36.0481 -36.5921 -4.13193 -53.5115 -33.5727 -4.13193 
-55.6033 -31.9374 -4.13193 40.8992 -33.5727 -4.13193 44.38 -30.8231 -4.13193 
44.38 -33.5727 2.76569 -62.4384 -25.2407 -4.13193 -63.9352 -23.1754 -4.13193 
51.8713 -25.2407 -4.13193 52.7119 -24.6427 -4.13193 52.7119 -25.2407 -2.47433 
61.0439 -17.5465 -4.13193 -67.8078 -16.9088 -4.13193 -63.9352 -16.9088 3.94385 
61.6474 -16.9088 -4.13193 -70.9583 -8.57686 -4.13193 -72.2672 -3.18692 -4.13193 
67.2933 -8.57686 -4.13193 69.3758 -4.59385 -4.13193 -73.0109 -0.244918 -4.13193 
-72.2672 6.96102 -4.13193 -72.2672 -0.244918 -2.53353 71.2803 -0.244918 -4.13193 
-72.1575 8.08702 -4.13193 72.7775 8.08702 -4.13193 -70.5654 16.419 -4.13193 
69.9248 16.419 -4.13193 69.3758 17.3738 -4.13193 -65.7618 24.7509 -4.13193 
-63.9352 27.099 -4.13193 -63.9352 24.7509 -0.140598 44.38 33.0429 -4.13193 
52.7119 29.8458 -4.13193 62.422 24.7509 -4.13193 61.0439 25.7806 -4.13193 
-57.7002 33.0828 -4.13193 -55.6033 34.8559 -4.13193 -55.6033 33.0828 -0.311208 
-47.2713 39.1791 -4.13193 11.0522 39.303 -4.13193 19.3842 36.6546 -4.13193 
27.7161 34.7913 -4.13193 44.1906 33.0828 -4.13193 36.0481 34.3531 -4.13193 
44.38 33.0828 -4.0656 52.7119 33.0828 3.85477 -40.4232 41.4148 -4.13193 
-38.9394 41.8661 -4.13193 -38.9394 41.4148 -2.10481 -30.6075 44.1838 -4.13193 
-22.2755 45.0281 -4.13193 -13.9436 45.4962 -4.13193 -5.61164 44.7816 -4.13193 
6.13152 41.4148 -4.13193 2.7203 42.7265 -4.13193 11.0522 41.4148 1.26059 
-30.6075 -43.7998 4.20001 -22.2755 -45.6593 4.20001 -13.9436 -48.2545 4.20001 
-5.61164 -49.6534 4.20001 2.7203 -49.4156 4.20001 11.0522 -47.5667 4.20001 
19.3842 -44.7706 4.20001 -47.2713 -35.4724 4.20001 -35.2697 -41.9046 4.20001 
-38.9394 -39.5806 4.20001 -30.6075 -41.9046 6.48511 -22.2755 -41.9046 8.03202 
-13.9436 -41.9046 10.9048 27.6682 -41.9046 4.20001 19.3842 -41.9046 10.2994 
27.7161 -41.8883 4.20001 36.0481 -38.6919 4.20001 44.38 -34.004 4.20001 
-49.7973 -33.5727 4.20001 -55.6033 -28.3667 4.20001 -47.2713 -33.5727 6.00905 
-38.9394 -33.5727 9.45633 -30.6075 -33.5727 11.0335 -22.2755 -33.5727 12.4625 
44.9955 -33.5727 4.20001 44.38 -33.5727 5.6404 52.7119 -27.4095 4.20001 
-58.5926 -25.2407 4.20001 -55.6033 -25.2407 6.56381 -47.2713 -25.2407 10.9768 
-38.9394 -25.2407 11.9674 55.0911 -25.2407 4.20001 52.7119 -25.2407 9.66423 
61.0439 -19.4022 4.20001 -63.6982 -16.9088 4.20001 -63.9352 -16.6138 4.20001 
-55.6033 -16.9088 9.35503 -47.2713 -16.9088 11.8812 63.2151 -16.9088 4.20001 
61.0439 -16.9088 9.18115 -67.1986 -8.57686 4.20001 -63.9352 -8.57686 7.12263 
-55.6033 -8.57686 12.4377 68.8257 -8.57686 4.20001 69.3758 -7.34203 4.20001 
-68.9166 -0.244918 4.20001 -63.9352 -0.244918 8.51838 -55.6033 -0.244918 11.6043 
72.0926 -0.244918 4.20001 69.3758 -0.244918 9.95113 -68.2222 8.08702 4.20001 
-63.9352 8.08702 8.01853 -55.6033 8.08702 11.3169 74.0446 8.08702 4.20001 
-65.9213 16.419 4.20001 -63.9352 20.4454 4.20001 -63.9352 16.419 5.97702 
-55.6033 16.419 11.3901 71.1905 16.419 4.20001 69.3758 19.9767 4.20001 
69.3758 16.419 8.09935 -61.3878 24.7509 4.20001 -55.6033 30.6609 4.20001 
-55.6033 24.7509 8.54474 -47.2713 24.7509 11.256 65.7691 24.7509 4.20001 
61.0439 28.6224 4.20001 -52.4488 33.0828 4.20001 -47.2713 36.2908 4.20001 
-47.2713 33.0828 7.73624 -38.9394 39.6271 4.20001 -38.9394 33.0828 10.4955 
19.3842 40.7786 4.20001 27.7161 39.5787 4.20001 36.0481 38.2453 4.20001 
44.38 36.6137 4.20001 52.9802 33.0828 4.20001 52.7119 33.207 4.20001 
52.7119 33.0828 5.10467 -34.3621 41.4148 4.20001 -30.6075 42.6292 4.20001 
-30.6075 41.4148 6.21116 -22.2755 44.1761 4.20001 -22.2755 41.4148 8.81513 
-13.9436 45.0999 4.20001 -13.9436 41.4148 10.712 -5.61164 45.0808 4.20001 
-5.61164 41.4148 10.9196 2.7203 44.0323 4.20001 2.7203 41.4148 9.19065 
15.9068 41.4148 4.20001 11.0522 42.2943 4.20001 11.0522 41.4148 6.37242 
-5.61164 -42.9247 12.5319 2.7203 -43.411 12.5319 11.0522 -42.475 12.5319 
-8.40729 -41.9046 12.5319 -13.9436 -38.1678 12.5319 -5.61164 -41.9046 13.1953 
2.7203 -41.9046 13.724 13.5255 -41.9046 12.5319 11.0522 -41.9046 13.0101 
19.3842 -40.337 12.5319 27.7161 -38.3209 12.5319 36.0481 -35.8248 12.5319 
-30.6075 -27.7198 12.5319 -21.9419 -33.5727 12.5319 -22.2755 -33.3433 12.5319 
[...]
POINT_DATA 544
SCALARS ImageScalars float
LOOKUP_TABLE default
0 0 0 0 0 0 0 0 0 
0 0 0 0 0 0 0 0 0 
0 0 0 0 0 0 0 0 0 
0 0 0 0 0 0 0 0 0 
0 0 0 0 0 0 0 0 0 
0 0 0 0 0 0 0 0 0 
0 0 0 0 0 0 0 0 0 
0 0 0 0 0 0 0 0 0 
0 0 0 0 0 0 0 0 0 
0 0 0 0 0 0 0 0 0 
0 0 0 0 0 0 0 0 0 
0 0 0 0 0 0 0 0 0 
0 0 0 0 0 0 0 0 0 
0 0 0 0 0 0 0 0 0 
0 0 0 0 0 0 0 0 0 
0 0 0 0 0 0 0 0 0 
0 0 0 0 0 0 0 0 0 
0 0 0 0 0 0 0 0 0 
0 0 0 0 0 0 0 0 0 
0 0 0 0 0 0 0 0 0 
0 0 0 0 0 0 0 0 0 
0 0 0 0 0 0 0 0 0 
0 0 0 0 0 0 0 0 0 
0 0 0 0 0 0 0 0 0 
0 0 0 0 0 0 0 0 0 
0 0 0 0 0 0 0 0 0 
0 0 0 0 0 0 0 0 0 
0 0 0 0 0 0 0 0 0 
0 0 0 0 0 0 0 0 0 
0 0 0 0 0 0 0 0 0 
0 0 0 0 0 0 0 0 0 
0 0 0 0 0 0 0 0 0 
0 0 0 0 0 0 0 0 0 
0 0 0 0 0 0 0 0 0 
0 0 0 0 0 0 0 0 0 
0 0 0 0 0 0 0 0 0 
0 0 0 0 0 0 0 0 0 
0 0 0 0 0 0 0 0 0 
0 0 0 0 0 0 0 0 0 
0 0 0 0 0 0 0 0 0 
0 0 0 0 0 0 0 0 0 
0 0 0 0 0 0 0 0 0 
0 0 0 0 0 0 0 0 0 
0 0 0 0 0 0 0 0 0 
0 0 0 0 0 0 0 0 0 
0 0 0 0 0 0 0 0 0 
0 0 0 0 0 0 0 0 0 
0 0 0 0 0 0 0 0 0 
0 0 0 0 0 0 0 0 0 
0 0 0 0 0 0 0 0 0 
0 0 0 0 0 0 0 0 0 
0 0 0 0 0 0 0 0 0 
0 0 0 0 0 0 0 0 0 
0 0 0 0 0 0 0 0 0 
0 0 0 0 0 0 0 0 0 
0 0 0 0 0 0 0 0 0 
0 0 0 0 0 0 0 0 0 
0 0 0 0 0 0 0 0 0 
0 0 0 0 0 0 0 0 0 
0 0 0 0 0 0 0 0 0 
0 0 0 0 
NORMALS Normals float
0.186419 0.470483 0.862493 0.114769 0.495542 0.860968 -0.0049873 0.559211 0.82901 
-0.190936 0.638309 0.745725 0.090369 0.291182 0.95239 0.0656622 0.262316 0.962745 
0.146397 0.193641 0.970088 0.180801 0.203167 0.962307 0.0713951 0.175699 0.981852 
-0.108502 0.279878 0.953884 -0.235895 0.385035 0.892245 -0.367353 0.553586 0.747392 
0.390932 0.434287 0.811521 0.141157 0.333917 0.931973 0.0477638 0.279024 0.959096 
-0.00203067 0.173208 0.984883 3.46842e-05 0.095368 0.995442 0.12984 0.0447623 0.990524 
0.137497 0.0563131 0.9889 0.080487 -0.0469352 0.99565 0.00652836 0.00645861 0.999958 
-0.0865266 0.152347 0.984532 -0.205885 0.294477 0.933217 -0.358927 0.438763 0.823807 
0.302812 0.286807 0.908871 0.116055 0.178789 0.977019 0.00564069 0.168731 0.985646 
-0.116563 0.0817519 0.989813 -0.0520448 0.0392152 0.997874 0.112999 0.0530499 0.992178 
0.0893534 0.0721454 0.993384 0.0273298 -0.0281323 0.999231 0.0990074 0.00849563 0.99505 
0.0590235 0.0787378 0.995147 -0.0667458 0.167607 0.983592 -0.186079 0.314215 0.930937 
-0.293354 0.433228 0.852207 0.568668 0.162769 0.806302 0.249432 0.150034 0.956699 
0.0647184 0.178115 0.981879 -0.0598101 0.0699477 0.995756 -0.126744 0.0536539 0.990483 
-0.0295127 0.0232452 0.999294 0.173779 0.100669 0.979626 0.0422764 0.0499612 0.997856 
0.0170612 0.00825605 0.99982 0.113678 0.127003 0.985367 0.0635321 0.0209191 0.997761 
0.043043 0.0749441 0.996258 -0.0595155 0.16183 0.985022 -0.217315 0.250666 0.943367 
-0.356723 0.318235 0.878336 0.552824 0.0883895 0.828597 0.190329 0.0713039 0.979128 
0.0473644 0.0950305 0.994347 -0.119623 0.0685013 0.990453 -0.166364 0.0435304 0.985103 
-0.029561 0.0315545 0.999065 0.151607 -0.0142381 0.988338 -0.0151073 -0.0539078 0.998432 
0.131488 -0.0288983 0.990896 0.0872407 -0.0500601 0.994929 0.016679 -0.0938915 0.995443 
0.0794446 -0.0575335 0.995178 -0.00466438 -0.0110442 0.999928 -0.134988 0.00874146 0.990809 
-0.293757 0.104562 0.950144 -0.496316 0.130047 0.858346 0.54976 0.0156681 0.835176 
0.233434 0.0911032 0.968095 0.0831906 -0.0147762 0.996424 -0.112615 0.0296918 0.993195 
-0.164524 0.0905781 0.982205 -0.089998 0.124194 0.988168 0.0831805 -0.032604 0.996001 
0.0346732 -0.201632 0.978847 0.0311509 -0.0871183 0.995711 0.0360204 -0.154907 0.987272 
0.0434278 -0.209784 0.976783 0.126552 -0.22892 0.965184 0.005315 -0.221439 0.97516 
-0.107803 -0.203881 0.973042 -0.240765 -0.161496 0.957053 -0.449147 -0.0784393 0.890008 
0.572499 -0.193164 0.796827 0.224294 -0.0379287 0.973783 -0.0572221 -0.133418 0.989407 
-0.00869184 0.0123291 0.999886 -0.0788974 0.0270233 0.996516 -0.136561 0.121625 0.983137 
-0.175712 0.0141358 0.98434 -0.061097 -0.113172 0.991695 0.13217 -0.156473 0.978799 
-0.010247 -0.255896 0.96665 -0.0664832 -0.327066 0.94266 0.0727803 -0.389674 0.918073 
0.0146365 -0.433514 0.901028 -0.100861 -0.386903 0.916588 -0.170271 -0.421277 0.890805 
-0.418729 -0.395066 0.817673 0.414135 -0.460601 0.785073 0.167573 -0.204953 0.96432 
0.0469688 -0.19089 0.980487 -0.0539131 -0.118245 0.99152 -0.0985216 -0.0859684 0.991415 
-0.171238 -0.0626852 0.983234 -0.128293 -0.0189269 0.991556 -0.0964639 -0.175288 0.97978 
-0.147525 -0.389177 0.909273 -0.0509316 -0.618256 0.784325 0.275507 -0.623592 0.731593 
0.102582 -0.455177 0.884472 0.0225408 -0.358048 0.933431 -0.0702652 -0.345823 0.935665 
-0.113535 -0.279119 0.953521 -0.167969 -0.275707 0.946452 -0.266505 -0.356366 0.895532 
0.186605 0.480164 0.8571 0.0934104 0.586222 0.804748 -0.0265974 0.684934 0.728119 
-0.206264 0.702118 0.681532 0.409844 0.897363 0.163609 0.106002 0.496521 0.861528 
0.155887 0.726236 0.669537 0.181419 0.477232 0.859847 0.0723948 0.40175 0.912883 
0.132629 0.681703 0.719507 -0.262745 0.692283 0.672093 -0.321279 0.656301 0.682678 
-0.354606 0.786926 0.504978 -0.38554 0.594507 0.705635 0.436783 0.498429 0.748859 
0.247865 0.512769 0.821968 0.333889 0.636759 0.695023 0.155387 0.40411 0.901416 
0.154951 0.410612 0.898548 0.167614 0.435593 0.8844 -0.38897 0.57867 0.716829 
-0.404862 0.528228 0.746366 -0.455751 0.692528 0.559192 0.467319 0.479974 0.742454 
-0.411262 0.519237 0.749171 -0.395363 0.527346 0.75206 -0.458265 0.599661 0.656048 
0.536331 0.320402 0.780828 0.580886 0.256976 0.772357 0.615981 0.348453 0.706504 
-0.430736 0.521309 0.736684 -0.435057 0.51732 0.736957 -0.441621 0.529975 0.723946 
-0.669898 0.630378 0.392251 0.629499 0.16726 0.758785 -0.518054 0.406274 0.752703 
-0.524361 0.39448 0.754606 -0.527574 0.410003 0.744019 0.665123 0.0834069 0.742062 
0.989011 0.0811789 0.123557 -0.609433 0.15723 0.777091 -0.840735 0.266544 0.471295 
0.727223 -0.00481522 0.686385 -0.569454 -0.0892316 0.817166 -0.770269 -0.113146 0.627601 
0.774114 -0.233461 0.588425 0.621081 -0.482391 0.617704 -0.109899 -0.435708 0.893353 
0.00843652 -0.509587 0.860378 0.0302725 -0.560821 0.827383 -0.255465 -0.506491 0.823531 
-0.478188 -0.402265 0.780717 -0.429907 -0.46133 0.776115 -0.800551 -0.420579 0.426887 
0.587556 -0.521242 0.618938 0.698071 -0.580094 0.419747 0.503631 -0.582635 0.637881 
-0.117935 -0.436325 0.892027 -0.203628 -0.425448 0.881776 -0.113516 -0.444939 0.888337 
-0.00411762 -0.527646 0.849454 -0.0270741 -0.605779 0.795172 0.0273984 -0.569229 0.821722 
-0.0732876 -0.61476 0.785302 -0.051103 -0.623301 0.780311 -0.299808 -0.584833 0.753714 
-0.484853 -0.713647 0.505594 0.452659 -0.639344 0.621562 0.566266 -0.70979 0.418976 
0.299265 -0.736999 0.60603 0.177977 -0.754523 0.63168 0.0764078 -0.728456 0.680818 
0.020209 -0.688711 0.724754 -0.0845471 -0.599275 0.796066 -0.183705 -0.499714 0.846486 
-0.27027 -0.372471 0.887817 -0.271134 -0.378561 0.884973 -0.286887 -0.52496 0.801319 
-0.207498 -0.595125 0.776383 -0.0728683 -0.675843 0.733435 -0.0738111 -0.747338 0.660332 
0.25912 -0.9591 0.113943 0.124978 -0.87257 0.472231 0.0374192 -0.770075 0.636855 
-0.0716353 -0.709312 0.701245 -0.192148 -0.759161 0.621895 -0.311305 -0.814913 0.488883 
0.407525 0.903399 0.133394 0.293568 0.937423 0.187233 0.230091 0.940146 0.251362 
0.183134 0.956255 0.228118 0.0440414 0.970974 0.235095 -0.130301 0.968198 0.213573 
-0.291789 0.93565 0.198539 -0.371599 0.902953 0.215845 0.412411 0.901297 0.132595 
0.497058 0.857747 0.131165 0.420311 0.905186 0.0630625 -0.415717 0.87162 0.259728 
-0.429088 0.855267 0.290521 -0.461639 0.796394 0.390698 0.6069 0.789471 0.0916997 
0.64507 0.760366 0.0756886 -0.522577 0.743137 0.417924 -0.542258 0.71115 0.447461 
-0.559219 0.825937 0.0714267 0.777291 0.627694 0.0426421 0.81007 0.58555 0.0303072 
-0.562789 0.710874 0.421814 -0.567169 0.710587 0.416396 -0.597347 0.731153 0.329532 
-0.675163 0.643198 0.36118 0.883021 0.469289 0.00639753 0.646415 0.416686 -0.639156 
-0.688859 0.630145 0.358318 0.959104 0.283027 0.00397101 0.988926 0.14464 -0.0332373 
-0.799608 0.510779 0.315804 -0.854626 0.409849 0.318808 0.997077 0.0722043 -0.0249815 
0.99298 -0.103944 -0.056452 0.989223 0.0713143 -0.127874 -0.91051 0.272915 0.310628 
0.989763 -0.131112 -0.056379 -0.93668 -0.0765043 0.341727 0.930707 -0.356555 -0.0815707 
-0.820241 -0.418892 0.389531 -0.797606 -0.453986 0.397141 0.819277 -0.569744 -0.0646291 
0.773304 -0.631166 -0.0602602 0.772615 -0.546285 -0.323479 -0.233977 -0.783295 0.575938 
-0.336874 -0.804957 0.488426 -0.527049 -0.714021 0.460863 -0.49513 -0.72784 0.474443 
0.619093 -0.783058 -0.0595366 0.576145 -0.815188 -0.0593716 0.593521 -0.749211 -0.293965 
0.37812 -0.925723 0.00781641 -0.285275 -0.803204 0.522954 -0.215623 -0.730312 0.64819 
-0.101549 -0.718794 0.687767 -0.230891 -0.783577 0.576798 -0.0896854 -0.794107 0.601125 
-0.235243 -0.785727 0.572096 -0.397138 -0.910657 0.113958 0.281304 -0.959374 0.0216514 
0.268043 -0.962991 0.0282953 0.28747 -0.955319 -0.0687466 0.187184 -0.975953 0.111702 
0.0783573 -0.984775 0.15517 -0.0135257 -0.978383 0.206358 -0.153195 -0.94643 0.284255 
-0.297402 -0.855256 0.424369 -0.303661 -0.873991 0.37938 -0.224845 -0.966597 0.123023 
0.290877 0.840787 -0.456584 0.254601 0.855744 -0.450422 0.212296 0.90772 -0.361905 
0.0588889 0.955025 -0.29062 -0.11825 0.948455 -0.294025 -0.263094 0.935121 -0.237338 
-0.307528 0.933106 -0.186385 0.474732 0.698874 -0.534982 0.37141 0.79245 -0.483816 
0.423339 0.739759 -0.523011 0.272728 0.747449 -0.605755 0.230746 0.677297 -0.698588 
0.256716 0.528378 -0.809268 -0.328707 0.93871 -0.103808 -0.229381 0.818878 -0.52614 
-0.328973 0.938678 -0.103254 -0.443014 0.896307 -0.0192739 -0.549141 0.835729 0.00120275 
0.528262 0.669262 -0.522521 0.602561 0.573598 -0.554892 0.430195 0.611407 -0.664164 
0.295483 0.491894 -0.818981 0.156003 0.363974 -0.918252 0.177614 0.343441 -0.922226 
-0.557242 0.830341 0.00383776 -0.547268 0.834122 -0.0688405 -0.658601 0.752439 -0.00896684 
0.640142 0.504951 -0.579001 0.516553 0.419618 -0.746387 0.307778 0.320044 -0.896016 
0.120341 0.221229 -0.967769 -0.675942 0.736649 -0.0212019 -0.658507 0.668597 -0.345465 
-0.742658 0.66569 -0.0729124 0.631786 0.40799 -0.659083 0.635378 0.405598 -0.657104 
0.477249 0.338472 -0.810969 0.227979 0.148266 -0.962311 -0.779518 0.619198 -0.0945848 
-0.729264 0.559005 -0.394572 0.716054 0.267456 -0.644775 0.58732 0.24024 -0.772878 
0.372679 0.0747858 -0.924942 -0.863939 0.490016 -0.116165 -0.879292 0.460443 -0.121809 
0.755088 0.0591314 -0.652952 0.504842 0.0533856 -0.861559 0.349247 -0.0541113 -0.935467 
-0.946582 0.274871 -0.168609 -0.816382 0.252414 -0.519431 0.755007 -0.160805 -0.635693 
0.525362 -0.144636 -0.838496 0.369966 -0.0140066 -0.92894 -0.985254 -0.0516669 -0.163108 
0.664486 -0.339601 -0.66568 0.659372 -0.404382 -0.633801 0.598985 -0.318996 -0.734478 
0.409804 -0.150913 -0.899603 -0.913746 -0.382123 -0.138022 -0.850693 -0.513144 -0.114038 
-0.845389 -0.372021 -0.3833 0.646253 -0.460689 -0.608377 0.549942 -0.59405 -0.587085 
0.479715 -0.422491 -0.769009 0.326032 -0.279957 -0.902955 -0.69778 -0.714513 -0.0507291 
-0.58871 -0.808195 -0.0155453 0.507207 -0.663768 -0.549685 0.396247 -0.751529 -0.527439 
0.397313 -0.598539 -0.695624 0.328615 -0.827106 -0.45597 0.304227 -0.523307 -0.795987 
-0.162204 -0.986566 0.0194346 -0.157149 -0.981201 0.112021 -0.17454 -0.976083 0.129603 
-0.298637 -0.9515 0.0739198 -0.402291 -0.91021 0.0983871 -0.397348 -0.912249 0.0995841 
-0.404266 -0.913324 0.0490636 0.287799 -0.875265 -0.388693 0.24854 -0.893171 -0.374798 
0.24944 -0.849497 -0.464903 0.139158 -0.93981 -0.312077 0.154974 -0.822706 -0.546935 
0.0545431 -0.963193 -0.26322 0.0776186 -0.779761 -0.621247 -0.0644649 -0.976255 -0.20681 
-0.0504971 -0.779509 -0.624352 -0.169431 -0.971153 -0.167797 -0.135379 -0.849942 -0.509187 
-0.172688 -0.984899 -0.0123822 -0.189565 -0.98041 -0.0534934 -0.165785 -0.966292 -0.196963 
0.138664 0.50332 -0.852902 -0.0236867 0.601033 -0.798873 -0.136868 0.637002 -0.758614 
0.182239 0.463932 -0.866923 0.219596 0.383202 -0.897181 0.146215 0.455098 -0.878354 
-0.0069471 0.531771 -0.84686 -0.15287 0.661629 -0.734083 -0.129573 0.611742 -0.780373 
-0.163932 0.698549 -0.696531 -0.208149 0.764217 -0.610448 -0.353583 0.738106 -0.574611 
0.151935 0.246267 -0.957219 0.177441 0.339339 -0.923777 0.176766 0.337562 -0.924557 
0.18006 0.26417 -0.947519 0.135473 0.217124 -0.966698 0.0660137 0.229796 -0.970998 
0.0172321 0.295514 -0.955183 0.00489833 0.367796 -0.929894 -0.118948 0.487135 -0.865189 
-0.419431 0.735009 -0.532766 -0.316235 0.640536 -0.699792 -0.480246 0.706172 -0.520274 
0.133415 0.211251 -0.968284 0.12611 0.190653 -0.973523 0.159233 0.21056 -0.964525 
0.146982 0.169891 -0.97444 0.125866 0.129954 -0.983499 0.116554 0.104914 -0.987628 
0.0867589 0.112089 -0.989904 0.0661642 0.092914 -0.993473 0.0601646 0.123304 -0.990544 
-0.0108754 0.160351 -0.987 -0.154788 0.283261 -0.946469 -0.595429 0.589299 -0.546069 
-0.34799 0.428211 -0.83399 -0.598649 0.576366 -0.556257 0.197784 0.14423 -0.969577 
0.189171 0.14684 -0.970903 0.161882 0.153758 -0.974758 0.101446 0.133298 -0.98587 
0.105318 0.0956234 -0.98983 0.117979 0.120333 -0.985698 0.121786 0.0711944 -0.99 
0.059126 0.230123 -0.971364 0.0227602 0.0779572 -0.996697 0.0891039 -0.00294581 -0.996018 
0.0700048 0.0200579 -0.997345 -0.00322117 0.124581 -0.992204 -0.224205 0.220174 -0.949345 
-0.625741 0.4757 -0.618189 -0.4374 0.365186 -0.821779 -0.663824 0.416039 -0.621489 
0.359989 0.0781175 -0.92968 0.15366 0.154222 -0.976014 0.10147 0.104664 -0.989318 
0.09293 0.0845176 -0.992079 0.132997 0.0728041 -0.988439 0.0998534 0.0518216 -0.993652 
0.208352 -0.0998197 -0.972947 -0.18106 0.0670643 -0.981183 0.00735649 0.0217472 -0.999736 
0.117476 0.030963 -0.992593 0.0252199 0.0625042 -0.997726 -0.100431 0.0766499 -0.991987 
-0.240318 0.194456 -0.951017 -0.684273 0.342448 -0.643817 -0.601696 0.318993 -0.732261 
0.312105 -0.032338 -0.949497 0.220924 0.0413409 -0.974415 0.104848 0.0569852 -0.992854 
0.0699666 0.051732 -0.996207 0.0724366 0.00792827 -0.997342 -0.0528797 -0.0771327 -0.995618 
-0.0134941 -0.0220313 -0.999666 0.250464 -0.163882 -0.954154 0.0911786 -0.0409547 -0.994992 
0.0586615 0.0897754 -0.994233 0.111255 0.0784779 -0.990688 -0.197622 0.104543 -0.974688 
-0.688479 0.215033 -0.692645 -0.470887 0.165569 -0.866517 -0.724459 -0.000626267 -0.689318 
0.331947 -0.0248352 -0.942971 0.258201 -0.0574784 -0.96438 0.109036 -0.0194124 -0.993848 
0.0441695 0.0204721 -0.998814 0.00581222 0.0460334 -0.998923 0.0709271 0.0361892 -0.996825 
0.136659 0.154959 -0.978423 0.0787328 0.0658757 -0.994717 0.0844914 -0.0329105 -0.995881 
0.121415 0.0515529 -0.991262 -0.150487 -0.0359577 -0.987958 -0.412362 -0.0518774 -0.909542 
-0.72529 -0.0472449 -0.686821 -0.720447 -0.0781725 -0.689091 -0.71375 -0.0474429 -0.698792 
0.311674 -0.166746 -0.935444 0.261906 -0.222321 -0.939137 0.221322 -0.187548 -0.956997 
0.174736 -0.0869426 -0.980769 0.134091 0.00206876 -0.990967 0.0873808 0.0906052 -0.992046 
0.0527271 0.127124 -0.990484 0.0475084 0.0334539 -0.99831 0.0321494 -0.0602737 -0.997664 
0.0855322 -0.0575338 -0.994673 0.147166 -0.0616799 -0.987187 -0.225459 -0.199615 -0.953584 
-0.665644 -0.294788 -0.685579 -0.520361 -0.271351 -0.809687 0.30722 -0.257444 -0.916154 
0.291678 -0.367434 -0.883128 0.273751 -0.228486 -0.934267 0.224908 -0.142299 -0.963933 
0.122761 -0.0898172 -0.988364 0.0166467 -0.064577 -0.997774 -0.0522086 -0.081502 -0.995305 
-0.016318 -0.177571 -0.983973 0.0752508 -0.183872 -0.980065 0.131637 -0.232931 -0.963543 
0.041515 -0.207329 -0.97739 -0.0341187 -0.322492 -0.945957 -0.166454 -0.26488 -0.949806 
-0.419524 -0.755086 -0.503829 -0.379753 -0.435882 -0.815962 -0.576106 -0.545329 -0.608866 
-0.56689 -0.552281 -0.611246 -0.55633 -0.541923 -0.629933 0.281657 -0.453853 -0.845391 
0.25921 -0.511493 -0.819259 0.261941 -0.424436 -0.866742 0.160287 -0.601265 -0.782808 
0.157591 -0.410089 -0.898327 0.0810934 -0.663398 -0.743859 0.0634297 -0.375981 -0.924454 
-0.0522807 -0.665347 -0.744702 -0.0683993 -0.345671 -0.93586 -0.0835537 -0.605107 -0.791747 
-0.0608531 -0.389538 -0.918998 -0.024291 -0.670951 -0.741104 0.0335943 -0.437907 -0.898392 
-0.019793 -0.755182 -0.655216 0.0669092 -0.515017 -0.854565 -0.0522259 -0.837755 -0.543542 
0.00518266 -0.595016 -0.803697 -0.166528 -0.844075 -0.509712 -0.125701 -0.650809 -0.748764 
-0.326716 -0.829571 -0.452846 -0.257988 -0.855405 -0.449138 -0.240297 -0.808273 -0.537543 
0.100074 0.0376586 -0.994267 0.138745 -0.0498476 -0.989073 -0.0132142 0.00531447 -0.999899 
0.138226 -0.0682966 -0.988043 0.114175 -0.0362117 -0.992801 0.033834 0.0636897 -0.997396 
-0.0804462 0.0790893 -0.993616 0.0704995 0.0708043 -0.994996 0.0973759 0.0631588 -0.993242 
0.0427779 0.0654477 -0.996939 -0.0968338 0.0879964 -0.991403 -0.0720237 0.0817092 -0.99405 
0.0979594 0.0551276 -0.993662 0.090924 0.0561673 -0.994273 0.0284631 0.0502713 -0.99833 
-0.127907 -0.0331963 -0.99123 -0.0563162 -0.0139197 -0.998316 0.125228 -0.0476466 -0.990983 
0.074182 -0.122425 -0.989702 0.109946 -0.0410426 -0.99309 -0.0347036 -0.215421 -0.975904 
-0.0278101 -0.106806 -0.993891 -0.152002 -0.103044 -0.982994 -0.151848 -0.103293 -0.982992 
-0.151802 -0.102668 -0.983064 
