# vtk DataFile Version 4.2
vtk output
ASCII
DATASET POLYDATA
POINTS 490 float
-18.2686 -37.1039 -20.8288 -10.3204 -37.1039 -22.1357 -2.37224 -37.1039 -21.7337 
5.57593 -37.1039 -19.6655 -34.1649 -29.1558 -19.4362 -26.2167 -29.1558 -24.0661 
-18.2686 -29.1558 -25.402 -10.3204 -29.1558 -25.7462 -2.37224 -29.1558 -24.7325 
5.57593 -29.1558 -23.1575 13.5241 -29.1558 -21.0886 -34.1649 -21.2076 -24.0073 
-26.2167 -21.2076 -26.5886 -18.2686 -21.2076 -26.971 -10.3204 -21.2076 -26.5459 
-2.37224 -21.2076 -25.8504 5.57593 -21.2076 -23.9615 13.5241 -21.2076 -22.2015 
21.4723 -21.2076 -21.7667 29.4204 -21.2076 -20.2617 -42.1131 -13.2594 -19.9343 
-34.1649 -13.2594 -25.3304 -26.2167 -13.2594 -27.1978 -18.2686 -13.2594 -27.2202 
-10.3204 -13.2594 -26.5769 -2.37224 -13.2594 -26.0359 5.57593 -13.2594 -24.0594 
13.5241 -13.2594 -22.5121 21.4723 -13.2594 -22.4473 29.4204 -13.2594 -22.1654 
37.3686 -13.2594 -19.7577 -42.1131 -5.31128 -21.258 -34.1649 -5.31128 -25.6899 
-26.2167 -5.31128 -27.2219 -18.2686 -5.31128 -26.7867 -10.3204 -5.31128 -26.1637 
-2.37224 -5.31128 -25.8677 5.57593 -5.31128 -23.8469 13.5241 -5.31128 -21.7908 
21.4723 -5.31128 -22.067 29.4204 -5.31128 -22.0024 37.3686 -5.31128 -20.7645 
-42.1131 2.63688 -21.3968 -34.1649 2.63688 -25.1167 -26.2167 2.63688 -26.3319 
-18.2686 2.63688 -26.2687 -10.3204 2.63688 -26.4308 -2.37224 2.63688 -25.5354 
5.57593 2.63688 -21.413 21.4723 2.63688 -20.2464 29.4204 2.63688 -20.8095 
37.3686 2.63688 -19.782 -42.1131 10.585 -20.0042 -34.1649 10.585 -23.8198 
-26.2167 10.585 -24.6982 -18.2686 10.585 -24.8643 -10.3204 10.585 -25.2674 
-2.37224 10.585 -24.0115 5.57593 10.585 -19.5121 21.4723 10.585 -20.231 
29.4204 10.585 -20.4476 -34.1649 18.5332 -20.7331 -26.2167 18.5332 -22.2176 
-18.2686 18.5332 -22.5456 -10.3204 18.5332 -22.371 -2.37224 18.5332 -20.7728 
21.4723 18.5332 -19.9495 29.4204 18.5332 -19.4183 -18.2686 26.4814 -19.911 
-10.3204 26.4814 -20.0725 -18.2686 -38.6339 -19.3764 -10.3204 -40.2324 -19.3764 
-2.37224 -39.8582 -19.3764 5.57593 -37.4487 -19.3764 -34.1649 -29.2169 -19.3764 
-22.3678 -37.1039 -19.3764 -26.2167 -35.396 -19.3764 -26.2167 -37.1039 -16.3711 
6.36601 -37.1039 -19.3764 13.5241 -32.5759 -19.3764 13.5241 -37.1039 -15.6393 
-34.2212 -29.1558 -19.3764 20.1987 -29.1558 -19.3764 21.4723 -28.2527 -19.3764 
21.4723 -29.1558 -18.9439 29.4204 -22.8126 -19.3764 29.4204 -29.1558 -13.8325 
-39.5691 -21.2076 -19.3764 -42.1131 -14.7379 -19.3764 -42.1131 -21.2076 -13.9858 
31.633 -21.2076 -19.3764 37.3686 -14.3688 -19.3764 37.3686 -21.2076 -15.5104 
-42.6101 -13.2594 -19.3764 38.0264 -13.2594 -19.3764 45.3167 -13.2594 -13.4325 
-44.0066 -5.31128 -19.3764 13.5241 1.73694 -19.3764 40.361 -5.31128 -19.3764 
45.3167 -5.31128 -15.9947 -44.4382 2.63688 -19.3764 12.2974 2.63688 -19.3764 
15.6329 2.63688 -19.3764 13.5241 2.63688 -19.0703 38.2642 2.63688 -19.3764 
37.3686 4.87393 -19.3764 45.3167 2.63688 -15.136 -42.8456 10.585 -19.3764 
-42.1131 12.1146 -19.3764 7.24904 10.585 -19.3764 5.57593 11.6607 -19.3764 
16.1263 10.585 -19.3764 13.5241 10.585 -18.9604 33.416 10.585 -19.3764 
37.3686 10.585 -18.2477 45.3167 10.585 -12.7395 -37.15 18.5332 -19.3764 
-42.1131 18.5332 -15.5284 -34.1649 21.0344 -19.3764 -26.2167 25.391 -19.3764 
2.694 18.5332 -19.3764 -2.37224 25.472 -19.3764 5.57593 18.5332 -18.6617 
14.011 18.5332 -19.3764 13.5241 18.5332 -19.3384 21.4723 22.5243 -19.3764 
29.5929 18.5332 -19.3764 29.4204 18.6691 -19.3764 37.3686 18.5332 -16.8454 
-34.1649 26.4814 -14.9985 -22.4793 26.4814 -19.3764 -26.2167 26.4814 -18.8353 
-18.2686 27.5861 -19.3764 -4.0863 26.4814 -19.3764 -10.3204 28.6262 -19.3764 
-2.37224 26.4814 -19.1969 5.57593 26.4814 -18.2109 13.5241 26.4814 -17.891 
21.4723 26.4814 -18.6352 29.4204 26.4814 -16.4608 -26.2167 34.4295 -11.6303 
-18.2686 34.4295 -15.4194 -10.3204 34.4295 -17.2037 -2.37224 34.4295 -17.1291 
5.57593 34.4295 -15.7576 13.5241 34.4295 -14.0901 21.4723 34.4295 -12.5131 
-26.2167 -39.2202 -11.4282 -18.2686 -42.7298 -11.4282 -10.3204 -44.5325 -11.4282 
-2.37224 -44.4478 -11.4282 5.57593 -42.7601 -11.4282 13.5241 -39.9539 -11.4282 
-29.4122 -37.1039 -11.4282 -34.1649 -33.3495 -11.4282 19.6713 -37.1039 -11.4282 
21.4723 -36.1783 -11.4282 21.4723 -37.1039 -6.90822 29.4204 -31.0884 -11.4282 
-38.1638 -29.1558 -11.4282 -42.1131 -23.0027 -11.4282 31.9728 -29.1558 -11.4282 
37.3686 -24.628 -11.4282 -43.065 -21.2076 -11.4282 40.8948 -21.2076 -11.4282 
45.3167 -15.7557 -11.4282 -46.0165 -13.2594 -11.4282 46.8286 -13.2594 -11.4282 
-48.179 -5.31128 -11.4282 49.0414 -5.31128 -11.4282 -49.4666 2.63688 -11.4282 
-50.0612 2.63688 -5.6498 48.6601 2.63688 -11.4282 -48.8233 10.585 -11.4282 
46.4507 10.585 -11.4282 45.3167 13.6564 -11.4282 -44.9483 18.5332 -11.4282 
-42.1131 22.3071 -11.4282 43.1336 18.5332 -11.4282 37.3686 26.4263 -11.4282 
45.3167 18.5332 -5.82534 -37.9438 26.4814 -11.4282 -34.1649 29.5818 -11.4282 
37.315 26.4814 -11.4282 29.4204 32.0999 -11.4282 37.3686 26.4814 -11.3187 
-26.4971 34.4295 -11.4282 -26.2167 34.5884 -11.4282 -18.2686 38.0135 -11.4282 
-10.3204 40.1693 -11.4282 -2.37224 40.9705 -11.4282 5.57593 39.9965 -11.4282 
13.5241 37.6695 -11.4282 24.0498 34.4295 -11.4282 21.4723 35.4563 -11.4282 
29.4204 34.4295 -5.09286 -2.37224 42.3777 -6.24349 5.57593 42.3777 -6.51829 
-26.2167 -38.6373 -3.48003 -18.2686 -42.4934 -3.48003 -10.3204 -44.6789 -3.48003 
-2.37224 -44.9323 -3.48003 5.57593 -43.4901 -3.48003 13.5241 -41.09 -3.48003 
21.4723 -37.723 -3.48003 -28.577 -37.1039 -3.48003 -34.1649 -32.8066 -3.48003 
-26.2167 -37.1039 0.668016 22.5884 -37.1039 -3.48003 21.4723 -37.1039 3.40894 
29.4204 -32.9444 -3.48003 -37.748 -29.1558 -3.48003 -42.1131 -22.713 -3.48003 
34.469 -29.1558 -3.48003 37.3686 -26.7546 -3.48003 -42.9591 -21.2076 -3.48003 
-42.1131 -21.2076 -0.3466 43.215 -21.2076 -3.48003 45.3167 -18.9859 -3.48003 
-46.3144 -13.2594 -3.48003 49.3353 -13.2594 -3.48003 -48.8518 -5.31128 -3.48003 
-50.0612 1.46223 -3.48003 51.9724 -5.31128 -3.48003 -50.2667 2.63688 -3.48003 
-50.0612 5.49424 -3.48003 -50.0612 2.63688 -2.22015 51.851 2.63688 -3.48003 
-49.669 10.585 -3.48003 49.7555 10.585 -3.48003 -46.2077 18.5332 -3.48003 
-42.1131 24.499 -3.48003 46.0523 18.5332 -3.48003 45.3167 19.6625 -3.48003 
-40.4509 26.4814 -3.48003 -34.1649 32.5665 -3.48003 40.0934 26.4814 -3.48003 
37.3686 29.0802 -3.48003 -31.5378 34.4295 -3.48003 -26.2167 37.599 -3.48003 
-18.2686 40.3049 -3.48003 -10.3204 41.7712 -3.48003 13.5241 42.1453 -3.48003 
21.4723 39.0982 -3.48003 30.1797 34.4295 -3.48003 29.4204 34.9255 -3.48003 
-6.27296 42.3777 -3.48003 -2.37224 42.9571 -3.48003 -2.37224 42.3777 0.353858 
12.1569 42.3777 -3.48003 5.57593 43.4268 -3.48003 -18.2686 -39.5427 4.46813 
-10.3204 -42.2593 4.46813 -2.37224 -43.0407 4.46813 5.57593 -42.059 4.46813 
13.5241 -39.9949 4.46813 -34.1649 -29.5947 4.46813 -23.2936 -37.1039 4.46813 
-26.2167 -35.5205 4.46813 -18.2686 -37.1039 8.15005 -10.3204 -37.1039 12.1568 
21.225 -37.1039 4.46813 13.5241 -37.1039 11.4271 21.4723 -37.0064 4.46813 
29.4204 -32.5163 4.46813 -34.6135 -29.1558 4.46813 -34.1649 -29.1558 5.03213 
-26.2167 -29.1558 12.0971 34.0646 -29.1558 4.46813 37.3686 -26.5486 4.46813 
-40.6206 -21.2076 4.46813 -42.1131 -18.517 4.46813 43.0881 -21.2076 4.46813 
45.3167 -18.8804 4.46813 -44.6168 -13.2594 4.46813 -42.1131 -13.2594 8.80032 
49.3699 -13.2594 4.46813 -47.4247 -5.31128 4.46813 52.1637 -5.31128 4.46813 
-48.8991 2.63688 4.46813 52.1533 2.63688 4.46813 -48.342 10.585 4.46813 
50.0943 10.585 4.46813 -44.8868 18.5332 4.46813 -42.1131 22.9658 4.46813 
-42.1131 18.5332 11.5042 46.303 18.5332 4.46813 45.3167 19.9629 4.46813 
45.3167 18.5332 8.20608 -39.7191 26.4814 4.46813 -34.1649 32.5853 4.46813 
39.9417 26.4814 4.46813 37.3686 28.9032 4.46813 37.3686 26.4814 11.1651 
-31.8375 34.4295 4.46813 -26.2167 38.1242 4.46813 -18.2686 40.4957 4.46813 
-10.3204 41.1774 4.46813 -2.37224 41.7383 4.46813 13.5241 42.1053 4.46813 
21.4723 39.1661 4.46813 29.942 34.4295 4.46813 29.4204 34.7749 4.46813 
29.4204 34.4295 5.44119 3.5503 42.3777 4.46813 9.22591 42.3777 4.46813 
5.57593 42.6009 4.46813 5.57593 42.3777 5.06698 -2.37224 -38.3168 12.4163 
5.57593 -38.0733 12.4163 -18.2686 -33.4931 12.4163 -9.24825 -37.1039 12.4163 
-10.3204 -36.8697 12.4163 -2.37224 -37.1039 13.7536 11.0015 -37.1039 12.4163 
5.57593 -37.1039 13.5804 13.5241 -36.6131 12.4163 21.4723 -33.8554 12.4163 
29.4204 -29.7728 12.4163 -34.1649 -21.5488 12.4163 -25.6948 -29.1558 12.4163 
-26.2167 -28.7317 12.4163 -18.2686 -29.1558 15.8994 -10.3204 -29.1558 18.4072 
-2.37224 -29.1558 19.9297 5.57593 -29.1558 20.2568 13.5241 -29.1558 19.7431 
21.4723 -29.1558 18.2334 30.3346 -29.1558 12.4163 29.4204 -29.1558 13.3162 
37.3686 -23.9158 12.4163 -34.4445 -21.2076 12.4163 -34.1649 -21.2076 12.643 
-26.2167 -21.2076 16.6062 -18.2686 -21.2076 19.2062 40.274 -21.2076 12.4163 
37.3686 -21.2076 16.0214 45.3167 -15.5232 12.4163 -39.142 -13.2594 12.4163 
-42.1131 -7.86441 12.4163 -34.1649 -13.2594 16.0455 -26.2167 -13.2594 18.874 
46.8747 -13.2594 12.4163 45.3167 -13.2594 14.8463 -43.2356 -5.31128 12.4163 
-42.1131 -5.31128 13.6885 -34.1649 -5.31128 19.0762 49.811 -5.31128 12.4163 
45.3167 -5.31128 18.9057 -45.0629 2.63688 12.4163 -42.1131 2.63688 15.9209 
50.0915 2.63688 12.4163 45.3167 2.63688 19.5566 -44.5904 10.585 12.4163 
-42.1131 17.5014 12.4163 -42.1131 10.585 15.585 48.176 10.585 12.4163 
45.3167 16.3808 12.4163 45.3167 10.585 17.1358 -41.7039 18.5332 12.4163 
44.0795 18.5332 12.4163 37.3686 25.984 12.4163 37.3686 18.5332 20.3405 
-36.9532 26.4814 12.4163 -34.1649 30.0651 12.4163 -34.1649 26.4814 16.3406 
36.7471 26.4814 12.4163 29.4204 31.705 12.4163 29.4204 26.4814 18.2806 
-29.5559 34.4295 12.4163 -26.2167 36.8298 12.4163 -26.2167 34.4295 16.319 
-18.2686 39.3654 12.4163 -10.3204 39.4645 12.4163 -2.37224 39.2506 12.4163 
-2.37224 34.4295 20.3278 5.57593 39.3458 12.4163 5.57593 34.4295 18.6353 
13.5241 38.4734 12.4163 13.5241 34.4295 17.0546 24.3317 34.4295 12.4163 
21.4723 35.8803 12.4163 21.4723 34.4295 14.1572 -10.3204 -24.6774 20.3645 
[...]
POINT_DATA 490
SCALARS ImageScalars float
LOOKUP_TABLE default
0 0 0 0 0 0 0 0 0 
0 0 0 0 0 0 0 0 0 
0 0 0 0 0 0 0 0 0 
0 0 0 0 0 0 0 0 0 
0 0 0 0 0 0 0 0 0 
0 0 0 0 0 0 0 0 0 
0 0 0 0 0 0 0 0 0 
0 0 0 0 0 0 0 0 0 
0 0 0 0 0 0 0 0 0 
0 0 0 0 0 0 0 0 0 
0 0 0 0 0 0 0 0 0 
0 0 0 0 0 0 0 0 0 
0 0 0 0 0 0 0 0 0 
0 0 0 0 0 0 0 0 0 
0 0 0 0 0 0 0 0 0 
0 0 0 0 0 0 0 0 0 
0 0 0 0 0 0 0 0 0 
0 0 0 0 0 0 0 0 0 
0 0 0 0 0 0 0 0 0 
0 0 0 0 0 0 0 0 0 
0 0 0 0 0 0 0 0 0 
0 0 0 0 0 0 0 0 0 
0 0 0 0 0 0 0 0 0 
0 0 0 0 0 0 0 0 0 
0 0 0 0 0 0 0 0 0 
0 0 0 0 0 0 0 0 0 
0 0 0 0 0 0 0 0 0 
0 0 0 0 0 0 0 0 0 
0 0 0 0 0 0 0 0 0 
0 0 0 0 0 0 0 0 0 
0 0 0 0 0 0 0 0 0 
0 0 0 0 0 0 0 0 0 
0 0 0 0 0 0 0 0 0 
0 0 0 0 0 0 0 0 0 
0 0 0 0 0 0 0 0 0 
0 0 0 0 0 0 0 0 0 
0 0 0 0 0 0 0 0 0 
0 0 0 0 0 0 0 0 0 
0 0 0 0 0 0 0 0 0 
0 0 0 0 0 0 0 0 0 
0 0 0 0 0 0 0 0 0 
0 0 0 0 0 0 0 0 0 
0 0 0 0 0 0 0 0 0 
0 0 0 0 0 0 0 0 0 
0 0 0 0 0 0 0 0 0 
0 0 0 0 0 0 0 0 0 
0 0 0 0 0 0 0 0 0 
0 0 0 0 0 0 0 0 0 
0 0 0 0 0 0 0 0 0 
0 0 0 0 0 0 0 0 0 
0 0 0 0 0 0 0 0 0 
0 0 0 0 0 0 0 0 0 
0 0 0 0 0 0 0 0 0 
0 0 0 0 0 0 0 0 0 
0 0 0 0 
NORMALS Normals float
-0.209592 -0.669964 -0.712193 -0.0455141 -0.576278 -0.815985 0.136949 -0.54758 -0.82547 
0.277104 -0.575909 -0.769117 -0.616588 -0.579909 -0.53247 -0.276188 -0.433388 -0.857843 
-0.0925056 -0.330907 -0.939118 0.041743 -0.242934 -0.969144 0.14936 -0.229983 -0.961665 
0.225263 -0.234539 -0.945647 0.239367 -0.296373 -0.92459 -0.46734 -0.273888 -0.840582 
-0.164514 -0.179344 -0.969933 0.00429074 -0.111014 -0.99381 0.069228 -0.0485093 -0.996421 
0.156102 -0.0805611 -0.98445 0.227602 -0.0527628 -0.972324 0.132375 -0.087288 -0.987349 
0.116745 -0.201838 -0.972436 0.285514 -0.380891 -0.879434 -0.761034 -0.212002 -0.613093 
-0.377236 -0.0935741 -0.921378 -0.110811 -0.0374137 -0.993137 0.0384864 0.0118398 -0.999189 
0.0747138 0.0241425 -0.996913 0.148417 -0.000911765 -0.988925 0.226816 0.00669785 -0.973915 
0.0945894 0.0251775 -0.995198 0.0222395 -0.0207611 -0.999537 0.156824 -0.102606 -0.982282 
0.426483 -0.222843 -0.876615 -0.6787 -0.0719427 -0.730883 -0.318596 0.0151099 -0.94777 
-0.0680941 0.0543842 -0.996196 0.0658928 0.0595919 -0.996046 0.057618 0.00884588 -0.9983 
0.135342 0.030252 -0.990337 0.262493 0.141676 -0.954476 0.102385 0.208183 -0.972716 
-0.0129886 0.134154 -0.990875 0.0817016 0.0848 -0.993043 0.301354 0.00264858 -0.953509 
-0.59978 0.0631607 -0.797668 -0.270799 0.106767 -0.956697 -0.0726729 0.156937 -0.984931 
-0.00626841 0.117828 -0.993014 0.0431852 0.0517585 -0.997725 0.270881 0.103761 -0.957004 
0.411423 0.254682 -0.875139 -0.107088 0.115842 -0.987478 0.0298657 0.0962761 -0.994906 
0.284702 0.148767 -0.947002 -0.577621 0.247966 -0.777732 -0.243084 0.26002 -0.934505 
-0.0588775 0.245852 -0.967518 -0.034223 0.231 -0.972352 0.0432124 0.251081 -0.967001 
0.32087 0.286482 -0.902757 0.292318 0.159854 -0.942866 -0.0919598 0.0189898 -0.995582 
0.113885 0.0866698 -0.989706 -0.285439 0.418292 -0.862297 -0.104577 0.344847 -0.932815 
-0.00888874 0.289133 -0.957248 0.100163 0.307255 -0.946341 0.230909 0.273087 -0.933865 
-0.00429137 0.088796 -0.996041 0.149819 0.210078 -0.966137 -0.0683467 0.380256 -0.922352 
0.043908 0.287885 -0.956658 -0.229884 -0.725982 -0.648154 -0.0622847 -0.723552 -0.687454 
0.132383 -0.68869 -0.712868 0.277085 -0.590885 -0.75768 -0.617295 -0.58179 -0.529592 
-0.316536 -0.725488 -0.611124 -0.399133 -0.703303 -0.588267 -0.447506 -0.799176 -0.401319 
0.282649 -0.583082 -0.761659 0.280248 -0.443576 -0.851294 0.361494 -0.730223 -0.579738 
-0.618617 -0.580383 -0.529593 0.303086 -0.435613 -0.847573 0.29451 -0.432728 -0.852063 
0.32405 -0.471375 -0.820242 0.324901 -0.435237 -0.839648 0.517044 -0.693281 -0.502023 
-0.726343 -0.382843 -0.570839 -0.776052 -0.249188 -0.579351 -0.869931 -0.411391 -0.27199 
0.359284 -0.419827 -0.833463 0.445261 -0.262688 -0.856001 0.587546 -0.565704 -0.578592 
-0.779341 -0.217697 -0.587568 0.448596 -0.233567 -0.862675 0.748042 -0.362231 -0.556077 
-0.754957 -0.0963928 -0.648651 0.0569357 0.182407 -0.981573 0.425728 -0.0201366 -0.904627 
0.69338 -0.0694702 -0.717216 -0.698311 0.0467392 -0.714267 0.106845 0.193433 -0.975278 
0.00914936 0.161697 -0.986798 0.04882 0.176932 -0.983012 0.319078 0.152119 -0.935441 
0.309905 0.14894 -0.939029 0.666438 0.149092 -0.730501 -0.607568 0.249379 -0.754103 
-0.587339 0.294095 -0.754017 0.220632 0.121762 -0.967727 0.262188 0.147067 -0.953745 
-0.063022 -0.00591909 -0.997995 -0.0477268 -0.017012 -0.998716 0.246801 0.116646 -0.96202 
0.388019 0.156609 -0.908248 0.741453 0.269525 -0.614494 -0.406174 0.442999 -0.799234 
-0.6706 0.509445 -0.539222 -0.329056 0.472863 -0.817388 -0.188531 0.456258 -0.869646 
0.134388 0.144714 -0.980305 0.12457 0.209002 -0.969949 0.0799141 0.0771567 -0.993811 
-0.0780446 0.0661597 -0.994752 -0.0831546 0.064783 -0.994429 0.0265502 0.225544 -0.973871 
0.155843 0.211616 -0.964848 0.152319 0.214209 -0.964839 0.499294 0.315405 -0.806985 
-0.473612 0.652158 -0.59193 -0.139181 0.4332 -0.890487 -0.211562 0.485168 -0.848442 
-0.0868127 0.410056 -0.907919 0.0951489 0.220133 -0.970818 0.0138124 0.332655 -0.942948 
0.110375 0.202054 -0.973135 0.0812583 0.167532 -0.982512 -0.0167992 0.298032 -0.954408 
0.0669453 0.382844 -0.921384 0.330201 0.519865 -0.78785 -0.411065 0.767469 -0.491952 
-0.255267 0.665081 -0.701787 -0.0844056 0.532292 -0.842342 0.0858789 0.449074 -0.889358 
0.173867 0.461566 -0.8699 0.1732 0.566308 -0.805789 0.247326 0.717253 -0.651443 
-0.487733 -0.860917 -0.144699 -0.306453 -0.933064 -0.188358 -0.09981 -0.9713 -0.215903 
0.104974 -0.963149 -0.247638 0.264676 -0.919279 -0.29133 0.368424 -0.865659 -0.338967 
-0.555123 -0.82004 -0.139187 -0.673808 -0.725488 -0.14018 0.434285 -0.828969 -0.35243 
0.453005 -0.813089 -0.365612 0.453717 -0.874519 -0.171339 0.542389 -0.745348 -0.387647 
-0.770691 -0.618973 -0.151356 -0.87778 -0.452414 -0.157552 0.574953 -0.722369 -0.384203 
0.638873 -0.670653 -0.376916 -0.897656 -0.412208 -0.155876 0.680168 -0.625391 -0.382436 
0.769008 -0.456153 -0.447829 -0.933086 -0.299634 -0.198923 0.800271 -0.37666 -0.466576 
-0.947288 -0.199002 -0.251086 0.846431 -0.109017 -0.52122 -0.95747 -0.0413373 -0.285555 
-0.997491 -0.049871 -0.0502526 0.810655 0.141737 -0.568111 -0.922227 0.231809 -0.309454 
0.781662 0.276154 -0.559235 0.774302 0.32912 -0.540496 -0.790294 0.516636 -0.329428 
-0.716523 0.601164 -0.353832 0.746477 0.41854 -0.517297 0.620102 0.631705 -0.465212 
0.84019 0.484358 -0.24388 -0.60695 0.684943 -0.403069 -0.532305 0.72379 -0.439067 
0.618464 0.63324 -0.465306 0.407247 0.760078 -0.50639 0.621301 0.634744 -0.459439 
-0.417568 0.770027 -0.482385 -0.412958 0.771961 -0.483261 -0.293903 0.823305 -0.485582 
-0.165433 0.871379 -0.461878 0.0019159 0.857996 -0.513653 0.16149 0.75361 -0.637175 
0.220543 0.696201 -0.683129 0.317921 0.759405 -0.567653 0.275292 0.749592 -0.601935 
0.502343 0.843382 -0.190677 -0.0735866 0.981827 -0.174928 0.0886403 0.954632 -0.284289 
-0.495299 -0.848861 0.184699 -0.344321 -0.923094 0.171288 -0.14181 -0.981892 0.125608 
0.072899 -0.994118 0.0800945 0.231034 -0.97208 0.0410329 0.339188 -0.940718 0.000704744 
0.445236 -0.89464 -0.0371998 -0.543532 -0.819428 0.181963 -0.671414 -0.72177 0.16808 
-0.487013 -0.816519 0.310024 0.461857 -0.886015 -0.0408124 0.41319 -0.894751 0.169396 
0.566894 -0.821255 -0.0645806 -0.750671 -0.641991 0.156016 -0.867705 -0.479991 0.129214 
0.623644 -0.778275 -0.0731883 0.656942 -0.749675 -0.0800923 -0.884726 -0.449348 0.123877 
-0.85933 -0.461544 0.220292 0.720434 -0.687859 -0.0884558 0.769179 -0.630721 -0.102732 
-0.937108 -0.340342 0.0774309 0.885005 -0.444499 -0.138515 -0.970657 -0.236562 0.0431648 
-0.99629 -0.0784131 0.0354505 0.973339 -0.153634 -0.170319 -0.998121 -0.0510396 0.0338902 
-0.998399 0.0465278 0.0321552 -0.995926 -0.0528338 0.0730726 0.974295 0.130649 -0.183521 
-0.973998 0.224884 0.0274693 0.928037 0.321608 -0.187925 -0.871742 0.489858 0.0102325 
-0.782727 0.62172 -0.0283137 0.852942 0.501193 -0.145926 0.840515 0.52341 -0.139919 
-0.744098 0.665772 -0.0553669 -0.622888 0.770727 -0.134129 0.716192 0.689093 -0.110548 
0.659829 0.743375 -0.109634 -0.552758 0.819012 -0.153879 -0.417462 0.890949 -0.178705 
-0.239955 0.961627 -0.13302 -0.161484 0.985764 -0.0468178 0.253437 0.946694 -0.198845 
0.405025 0.895876 -0.182651 0.527827 0.840707 -0.120872 0.516344 0.847414 -0.123606 
-0.13084 0.99078 -0.0351576 -0.102772 0.994347 -0.0266772 -0.0961554 0.991144 0.0915872 
0.217263 0.958845 -0.182793 0.0468519 0.992439 -0.113447 -0.35049 -0.829408 0.435016 
-0.18923 -0.891155 0.412352 0.0142932 -0.933008 0.359572 0.176756 -0.937687 0.299166 
0.293901 -0.923656 0.245929 -0.628863 -0.654956 0.419004 -0.425571 -0.794619 0.432979 
-0.471477 -0.766692 0.435766 -0.345781 -0.766091 0.541794 -0.211456 -0.72192 0.658876 
0.402861 -0.892506 0.202821 0.23159 -0.841736 0.487695 0.40664 -0.891108 0.201421 
0.537634 -0.828409 0.157122 -0.638772 -0.645881 0.4181 -0.626098 -0.645046 0.438083 
-0.437249 -0.564187 0.700362 0.597281 -0.789861 0.139198 0.642918 -0.755404 0.126577 
-0.791071 -0.478289 0.381375 -0.823442 -0.437244 0.36161 0.712092 -0.691647 0.120617 
0.762684 -0.634107 0.127366 -0.864881 -0.371368 0.337738 -0.773162 -0.379241 0.508328 
0.879227 -0.458082 0.130845 -0.923364 -0.245097 0.295511 0.977396 -0.173254 0.121163 
-0.955294 -0.0553908 0.290422 0.987617 0.122679 0.097785 -0.932953 0.224498 0.281422 
0.940855 0.327949 0.0851016 -0.858158 0.454919 0.237938 -0.819839 0.5329 0.209481 
-0.812438 0.402625 0.421709 0.847026 0.523384 0.0928231 0.82814 0.551964 0.0975662 
0.822367 0.524504 0.220475 -0.782719 0.598901 0.169316 -0.667826 0.737887 0.0976288 
0.698082 0.704495 0.127937 0.650192 0.747363 0.136744 0.605508 0.712174 0.3552 
-0.593022 0.801663 0.0752418 -0.421987 0.905796 0.0382212 -0.172246 0.983327 0.0583083 
-0.0767943 0.98662 0.143818 -0.0867947 0.970757 0.223823 0.19851 0.961177 0.191658 
0.405375 0.899372 0.163713 0.533868 0.831095 0.155774 0.526823 0.835439 0.156523 
0.521558 0.831501 0.191269 -0.0400234 0.972267 0.230422 0.077807 0.973585 0.21466 
-0.0236528 0.972342 0.232362 -0.020772 0.968028 0.24998 -0.0565205 -0.768622 0.637202 
0.0903415 -0.805447 0.585742 -0.331036 -0.638296 0.694977 -0.191268 -0.722798 0.664063 
-0.2117 -0.71255 0.668921 -0.0644182 -0.732726 0.677468 0.179219 -0.818967 0.545136 
0.0801939 -0.776419 0.625094 0.218716 -0.820515 0.528127 0.341019 -0.814982 0.468519 
0.476645 -0.775885 0.413293 -0.541438 -0.460354 0.703505 -0.427672 -0.557696 0.711387 
-0.4321 -0.549421 0.715141 -0.32065 -0.500953 0.803884 -0.210609 -0.480159 0.851523 
-0.0970499 -0.478488 0.872714 0.00776578 -0.495237 0.868723 0.0911001 -0.563606 0.821005 
0.251917 -0.671409 0.696957 0.490573 -0.769113 0.409637 0.469554 -0.762275 0.445484 
0.606579 -0.695415 0.385306 -0.547471 -0.454632 0.702556 -0.538706 -0.452753 0.7105 
-0.351266 -0.349144 0.868741 -0.286562 -0.275744 0.917522 0.654169 -0.651737 0.3838 
0.575848 -0.629591 0.52155 0.759675 -0.504967 0.409759 -0.624283 -0.369549 0.688262 
-0.718234 -0.312112 0.621873 -0.440543 -0.337678 0.831803 -0.27611 -0.265541 0.923716 
0.792602 -0.445488 0.41632 0.747026 -0.436921 0.501051 -0.747094 -0.276328 0.604561 
-0.70545 -0.283432 0.64962 -0.374176 -0.312966 0.872952 0.886811 -0.183616 0.424088 
0.725548 -0.175772 0.665345 -0.822853 -0.0659662 0.564413 -0.727038 -0.0853128 0.681277 
0.910861 0.0926304 0.402183 0.723954 0.0585873 0.687356 -0.829286 0.179135 0.529334 
-0.809045 0.366941 0.45913 -0.764846 0.14677 0.627271 0.877607 0.306927 0.368242 
0.806615 0.460582 0.370454 0.775114 0.298645 0.556785 -0.802248 0.392485 0.449837 
0.762847 0.524575 0.378003 0.594102 0.698739 0.398506 0.476032 0.468014 0.744551 
-0.755919 0.516153 0.402707 -0.705256 0.600746 0.376455 -0.688142 0.482227 0.542142 
0.580292 0.707087 0.404089 0.454466 0.763432 0.458946 0.348164 0.627594 0.696353 
-0.56695 0.75263 0.334836 -0.452113 0.834582 0.314749 -0.477504 0.712941 0.513522 
-0.138366 0.947172 0.289344 0.00645157 0.951891 0.306368 0.00811049 0.920549 0.390543 
0.122048 0.702544 0.701097 0.0396175 0.865485 0.499366 0.133614 0.677655 0.72314 
0.185744 0.814286 0.549944 0.197366 0.659552 0.725285 0.385072 0.776734 0.498401 
0.341285 0.784031 0.518478 0.325293 0.741539 0.586774 -0.224452 -0.374338 0.899718 
-0.0993364 -0.455662 0.884593 0.00627113 -0.488781 0.872384 0.0757107 -0.530501 0.844296 
0.192748 -0.57113 0.797909 0.342588 -0.565202 0.750453 -0.262056 -0.285802 0.921761 
-0.284314 -0.25164 0.925118 -0.23405 -0.305064 0.923123 -0.108064 -0.312016 0.943911 
-0.0363799 -0.310483 0.949883 0.00324844 -0.371665 0.928361 0.118837 -0.427592 0.896126 
0.385883 -0.549833 0.740795 0.320902 -0.523551 0.789251 0.499365 -0.464461 0.731376 
-0.280088 -0.247679 0.927473 -0.258451 -0.297024 0.919228 -0.286846 -0.244743 0.926186 
-0.254754 -0.244812 0.935504 -0.102988 -0.193191 0.975741 -0.0650048 -0.209415 0.975664 
-0.0500152 -0.248049 0.967456 0.0611537 -0.259697 0.963752 0.232946 -0.294188 0.926925 
0.554491 -0.388776 0.735794 0.46254 -0.371359 0.805077 -0.297249 -0.319295 0.89983 
-0.394063 -0.239273 0.887391 -0.250457 -0.326308 0.911479 -0.260933 -0.306363 0.915454 
-0.167775 -0.211179 0.962941 -0.0676294 -0.186546 0.980116 -0.0973185 -0.207567 0.973368 
-0.0601247 -0.142459 0.987973 0.0645688 -0.102842 0.9926 0.188566 -0.116956 0.975071 
0.65285 -0.170582 0.73803 0.409771 -0.148191 0.900071 -0.491893 -0.146638 0.858218 
-0.42086 -0.165249 0.891947 -0.261642 -0.209047 0.942254 -0.17865 -0.136618 0.974382 
-0.139578 -0.0410608 0.989359 -0.103904 -0.136951 0.985113 0.0849583 0.0703508 0.993898 
0.189973 0.0317965 0.981274 0.680461 0.0539191 0.730797 0.399209 0.0459143 0.91571 
-0.566867 0.0722229 0.820637 -0.479571 0.053938 0.875844 -0.213342 0.0114177 0.976911 
-0.095923 0.0297056 0.994945 -0.163803 0.0558471 0.984911 0.136413 0.229923 0.963601 
0.0700415 0.227386 0.971283 0.168326 0.233716 0.957624 0.621619 0.272787 0.734287 
0.475451 0.466559 0.745834 0.423737 0.244533 0.872153 -0.543545 0.251547 0.800802 
-0.544613 0.264795 0.795789 -0.532414 0.246196 0.809891 -0.280206 0.159771 0.94655 
-0.135047 0.0866244 0.987045 -0.110391 0.0804995 0.990623 -0.0171337 0.202099 0.979215 
0.150068 0.312931 0.937845 0.134186 0.326536 0.935611 0.091812 0.354685 0.930467 
0.474141 0.467441 0.746116 0.281655 0.536907 0.795237 0.211728 0.413699 0.885451 
-0.503113 0.395143 0.768595 -0.42676 0.477563 0.767991 -0.373899 0.345146 0.860857 
-0.175114 0.25107 0.951997 -0.0427695 0.272222 0.961284 0.122408 0.700417 0.703159 
0.0873096 0.371675 0.924248 0.16489 0.584907 0.794163 0.19294 0.409026 0.891892 
0.181404 0.478601 0.859089 0.173659 0.407403 0.896585 0.203753 0.514733 0.832787 
0.180754 0.504902 0.844039 0.170332 0.488559 0.855744 -0.237485 0.648306 0.723395 
-0.181355 0.674491 0.715662 -0.183444 0.640733 0.745526 0.119921 0.701577 0.702431 
0.032656 0.725121 0.687846 0.0323814 0.681145 0.731432 -0.0471069 -0.153264 0.987062 
-0.0059066 -0.0626614 0.998017 -0.103862 -0.136945 0.985119 -0.103958 -0.13675 0.985136 
-0.0212209 -0.125224 0.991901 0.072634 0.052708 0.995965 0.0808994 0.0914865 0.992515 
0.052548 0.0232358 0.998348 -0.156082 0.0582852 0.986023 -0.120624 0.0953084 0.988112 
-0.153728 0.058922 0.986355 0.102501 0.185676 0.97725 0.0921076 0.195691 0.97633 
0.0648386 0.137278 0.988408 
