# vtk DataFile Version 4.2
vtk output
ASCII
DATASET POLYDATA
POINTS 538 float
-25.7879 -29.0282 -12.789 -18.274 -29.0282 -13.7252 4.26766 -29.0282 -12.8351 
11.7815 -29.0282 -15.5257 19.2954 -29.0282 -16.598 26.8093 -29.0282 -15.9505 
34.3232 -29.0282 -14.7987 -25.7879 -21.5143 -14.5265 -18.274 -21.5143 -15.5196 
-10.7601 -21.5143 -14.6049 -3.24622 -21.5143 -12.9237 4.26766 -21.5143 -15.0393 
11.7815 -21.5143 -17.4127 19.2954 -21.5143 -17.9292 26.8093 -21.5143 -17.9495 
34.3232 -21.5143 -17.1425 41.8371 -21.5143 -15.4217 -33.3017 -14.0004 -13.9356 
-25.7879 -14.0004 -14.8792 -18.274 -14.0004 -15.5874 -10.7601 -14.0004 -15.3754 
-3.24622 -14.0004 -14.5738 4.26766 -14.0004 -16.6058 11.7815 -14.0004 -17.6667 
19.2954 -14.0004 -17.7336 26.8093 -14.0004 -18.2627 34.3232 -14.0004 -18.4386 
41.8371 -14.0004 -17.8738 49.3509 -14.0004 -14.996 -40.8156 -6.48651 -13.4586 
-33.3017 -6.48651 -14.3931 -25.7879 -6.48651 -14.8754 -18.274 -6.48651 -14.8657 
-10.7601 -6.48651 -16.4117 -3.24622 -6.48651 -16.6211 4.26766 -6.48651 -17.9776 
11.7815 -6.48651 -17.6743 19.2954 -6.48651 -17.3761 26.8093 -6.48651 -18.644 
34.3232 -6.48651 -19.2693 41.8371 -6.48651 -18.5658 49.3509 -6.48651 -16.4645 
-40.8156 1.02737 -13.1602 -33.3017 1.02737 -14.9151 -25.7879 1.02737 -15.4295 
-18.274 1.02737 -15.5173 -10.7601 1.02737 -18.7519 -3.24622 1.02737 -16.6798 
4.26766 1.02737 -18.1637 11.7815 1.02737 -18.5674 19.2954 1.02737 -17.2402 
26.8093 1.02737 -18.7685 34.3232 1.02737 -19.052 41.8371 1.02737 -18.6571 
49.3509 1.02737 -16.4049 -40.8156 8.54125 -13.6704 -33.3017 8.54125 -15.8295 
-25.7879 8.54125 -16.7271 -18.274 8.54125 -17.2175 -10.7601 8.54125 -18.5509 
-3.24622 8.54125 -18.3778 4.26766 8.54125 -19.6538 11.7815 8.54125 -17.8092 
19.2954 8.54125 -17.4951 26.8093 8.54125 -18.5347 34.3232 8.54125 -19.1932 
41.8371 8.54125 -18.1382 49.3509 8.54125 -15.3969 -40.8156 16.0551 -14.0867 
-33.3017 16.0551 -16.5848 -25.7879 16.0551 -17.9306 -18.274 16.0551 -18.3856 
-10.7601 16.0551 -17.8474 -3.24622 16.0551 -16.985 4.26766 16.0551 -17.4703 
11.7815 16.0551 -17.4754 19.2954 16.0551 -17.6232 26.8093 16.0551 -18.2873 
34.3232 16.0551 -18.2718 41.8371 16.0551 -17.2096 49.3509 16.0551 -13.1292 
-40.8156 23.569 -12.9451 -33.3017 23.569 -16.5164 -25.7879 23.569 -18.585 
-18.274 23.569 -18.7991 -10.7601 23.569 -18.2834 -3.24622 23.569 -18.1108 
4.26766 23.569 -18.3069 11.7815 23.569 -18.3085 19.2954 23.569 -18.3068 
26.8093 23.569 -18.3902 34.3232 23.569 -18.2852 41.8371 23.569 -15.0846 
-33.3017 31.0829 -15.0557 -25.7879 31.0829 -17.1676 -18.274 31.0829 -18.3909 
-10.7601 31.0829 -18.4667 -3.24622 31.0829 -18.4994 4.26766 31.0829 -18.6312 
11.7815 31.0829 -18.6259 19.2954 31.0829 -18.2189 26.8093 31.0829 -17.0513 
34.3232 31.0829 -15.5304 -25.7879 38.5968 -13.9419 -18.274 38.5968 -16.0487 
-10.7601 38.5968 -16.9062 -3.24622 38.5968 -17.5845 4.26766 38.5968 -17.6893 
11.7815 38.5968 -17.1071 19.2954 38.5968 -16.2434 26.8093 38.5968 -14.0839 
-3.24622 46.1107 -13.0607 4.26766 46.1107 -13.1537 -33.3017 -36.542 -6.07696 
-25.7879 -29.1055 -12.7523 -25.7879 -36.542 -8.58868 -18.274 -31.344 -12.7523 
-18.274 -36.542 -10.1239 -10.7601 -36.542 -9.14366 -3.24622 -36.542 -7.71627 
4.26766 -29.2089 -12.7523 4.26766 -36.542 -8.44138 11.7815 -33.8524 -12.7523 
11.7815 -36.542 -10.5841 19.2954 -35.6569 -12.7523 19.2954 -36.542 -11.9224 
26.8093 -34.2744 -12.7523 26.8093 -36.542 -9.89857 34.3232 -31.7736 -12.7523 
-40.8156 -29.0282 -6.50275 -25.8865 -29.0282 -12.7523 -33.3017 -29.0282 -9.74622 
-10.9598 -29.0282 -12.7523 -10.7601 -28.9213 -12.7523 -10.7601 -29.0282 -12.7237 
3.73455 -29.0282 -12.7523 -3.24622 -22.558 -12.7523 -3.24622 -29.0282 -11.6599 
38.8344 -29.0282 -12.7523 41.8371 -26.3815 -12.7523 41.8371 -29.0282 -10.4475 
-40.8156 -21.5143 -9.01172 -31.7997 -21.5143 -12.7523 -33.3017 -19.3329 -12.7523 
-33.3017 -21.5143 -12.2559 47.0943 -21.5143 -12.7523 49.3509 -19.0397 -12.7523 
49.3509 -21.5143 -11.0529 -48.3295 -14.0004 -6.98526 -37.3967 -14.0004 -12.7523 
-40.8156 -9.84441 -12.7523 -40.8156 -14.0004 -11.6471 52.9999 -14.0004 -12.7523 
56.8648 -14.0004 -7.19089 -42.1644 -6.48651 -12.7523 -48.3295 -6.48651 -8.62119 
54.6059 -6.48651 -12.7523 56.8648 -6.48651 -9.57558 -41.6875 1.02737 -12.7523 
-48.3295 1.02737 -9.25678 54.0381 1.02737 -12.7523 56.8648 1.02737 -7.3775 
-42.4898 8.54125 -12.7523 -48.3295 8.54125 -8.80036 52.9205 8.54125 -12.7523 
-42.7735 16.0551 -12.7523 -48.3295 16.0551 -7.17056 49.7702 16.0551 -12.7523 
49.3509 16.7328 -12.7523 -41.1244 23.569 -12.7523 -40.8156 24.0694 -12.7523 
44.9236 23.569 -12.7523 41.8371 27.3709 -12.7523 -36.832 31.0829 -12.7523 
-40.8156 31.0829 -7.91517 -33.3017 34.6565 -12.7523 38.43 31.0829 -12.7523 
34.3232 34.7772 -12.7523 -28.0387 38.5968 -12.7523 -33.3017 38.5968 -6.82657 
-25.7879 39.9331 -12.7523 -18.274 42.5552 -12.7523 -10.7601 44.9796 -12.7523 
11.7815 45.4796 -12.7523 19.2954 42.7052 -12.7523 29.0321 38.5968 -12.7523 
26.8093 39.9923 -12.7523 -18.274 46.1107 -6.28965 -5.12828 46.1107 -12.7523 
-10.7601 46.1107 -10.5993 -3.24622 46.3803 -12.7523 7.53466 46.1107 -12.7523 
4.26766 46.4519 -12.7523 11.7815 46.1107 -11.3036 -33.3017 -37.2649 -5.23846 
-25.7879 -40.1826 -5.23846 -18.274 -41.9933 -5.23846 -18.274 -44.0559 0.496036 
-10.7601 -40.8054 -5.23846 -3.24622 -39.1373 -5.23846 4.26766 -39.2417 -5.23846 
11.7815 -40.2835 -5.23846 19.2954 -40.0772 -5.23846 26.8093 -38.6779 -5.23846 
-34.2338 -36.542 -5.23846 -40.8156 -30.4708 -5.23846 33.7006 -36.542 -5.23846 
34.3232 -36.3209 -5.23846 41.8371 -32.9253 -5.23846 -42.1725 -29.0282 -5.23846 
47.2878 -29.0282 -5.23846 49.3509 -27.2207 -5.23846 -47.2578 -21.5143 -5.23846 
-48.3295 -19.1659 -5.23846 -48.3295 -21.5143 -4.05245 54.0515 -21.5143 -5.23846 
56.8648 -16.0288 -5.23846 -50.049 -14.0004 -5.23846 57.6576 -14.0004 -5.23846 
56.8648 -14.0004 0.15465 -52.3092 -6.48651 -5.23846 59.0394 -6.48651 -5.23846 
-52.9431 1.02737 -5.23846 57.7375 1.02737 -5.23846 56.8648 4.86496 -5.23846 
56.8648 1.02737 -0.907288 -51.514 8.54125 -5.23846 55.9633 8.54125 -5.23846 
-49.8296 16.0551 -5.23846 -48.3295 21.1529 -5.23846 52.6678 16.0551 -5.23846 
49.3509 21.5122 -5.23846 -47.5302 23.569 -5.23846 47.9134 23.569 -5.23846 
41.8371 30.8672 -5.23846 -42.4773 31.0829 -5.23846 -40.8156 32.9336 -5.23846 
41.6219 31.0829 -5.23846 34.3232 37.9159 -5.23846 -34.3081 38.5968 -5.23846 
-33.3017 39.297 -5.23846 -33.3017 38.5968 -2.51265 -25.7879 43.4164 -5.23846 
19.2954 45.5938 -5.23846 33.2263 38.5968 -5.23846 26.8093 42.0561 -5.23846 
26.8093 38.5968 0.985083 -19.2871 46.1107 -5.23846 -18.274 46.4911 -5.23846 
-18.274 46.1107 -4.03106 -10.7601 47.972 -5.23846 -10.7601 46.1107 -0.21091 
-3.24622 48.6213 -5.23846 -3.24622 46.1107 0.567131 4.26766 47.9745 -5.23846 
4.26766 46.1107 -1.01129 17.7234 46.1107 -5.23846 11.7815 47.8102 -5.23846 
11.7815 46.1107 -2.03357 -18.274 -44.5289 2.27542 -33.3017 -40.2547 2.27542 
-21.5906 -44.0559 2.27542 -25.7879 -43.4381 2.27542 -13.6899 -44.0559 2.27542 
-18.274 -44.0559 4.97877 -10.7601 -43.7557 2.27542 -3.24622 -42.3792 2.27542 
4.26766 -41.6079 2.27542 11.7815 -40.9944 2.27542 19.2954 -39.9515 2.27542 
26.8093 -37.9369 2.27542 -38.6907 -36.542 2.27542 -40.8156 -34.7648 2.27542 
19.2954 -36.542 9.62099 31.1193 -36.542 2.27542 26.8093 -36.542 5.56746 
34.3232 -35.4486 2.27542 41.8371 -32.4425 2.27542 -46.5849 -29.0282 2.27542 
-48.3295 -26.6903 2.27542 46.423 -29.0282 2.27542 41.8371 -29.0282 7.57353 
49.3509 -26.4954 2.27542 -51.7677 -21.5143 2.27542 53.555 -21.5143 2.27542 
49.3509 -21.5143 8.38907 -54.6798 -14.0004 2.27542 56.5088 -14.0004 2.27542 
56.8648 -12.3813 2.27542 -55.8292 -6.48651 2.27542 58.0619 -6.48651 2.27542 
56.8648 -1.68951 2.27542 56.8648 -6.48651 4.26255 -55.3502 1.02737 2.27542 
56.1119 1.02737 2.27542 -53.9482 8.54125 2.27542 53.5376 8.54125 2.27542 
49.3509 8.54125 7.26396 -51.1534 16.0551 2.27542 -48.3295 21.6758 2.27542 
-48.3295 16.0551 9.37455 41.8371 16.0551 9.23105 49.8185 16.0551 2.27542 
49.3509 16.7813 2.27542 49.3509 16.0551 2.85562 -47.2688 23.569 2.27542 
34.3232 23.569 8.531 44.1273 23.569 2.27542 41.8371 26.1488 2.27542 
41.8371 23.569 4.44036 -41.2297 31.0829 2.27542 -40.8156 31.4836 2.27542 
-40.8156 31.0829 2.85867 -33.3017 37.2955 2.27542 -33.3017 31.0829 9.78904 
26.8093 37.6577 2.27542 26.8093 31.0829 7.38604 36.662 31.0829 2.27542 
34.3232 32.9925 2.27542 34.3232 31.0829 4.05499 -31.0009 38.5968 2.27542 
-25.7879 41.35 2.27542 -25.7879 38.5968 6.39542 -18.274 43.7165 2.27542 
-18.274 38.5968 8.68325 -10.7601 45.0377 2.27542 -3.24622 45.193 2.27542 
-3.24622 38.5968 9.51031 4.26766 44.4552 2.27542 4.26766 38.5968 8.35469 
11.7815 43.1547 2.27542 11.7815 38.5968 6.90166 25.3245 38.5968 2.27542 
19.2954 41.3697 2.27542 19.2954 38.5968 5.29984 -33.3017 -39.2939 9.7893 
-25.7879 -41.7842 9.7893 -18.274 -42.9591 9.7893 -10.7601 -42.2803 9.7893 
-3.24622 -41.2148 9.7893 4.26766 -40.3097 9.7893 11.7815 -38.6929 9.7893 
-37.9532 -36.542 9.7893 -40.8156 -34.4192 9.7893 -33.3017 -36.542 13.7626 
-25.7879 -36.542 15.2153 -18.274 -36.542 15.7801 -10.7601 -36.542 15.7755 
-3.24622 -36.542 15.0831 4.26766 -36.542 14.6567 19.007 -36.542 9.7893 
11.7815 -36.542 12.723 19.2954 -36.4314 9.7893 26.8093 -34.0408 9.7893 
34.3232 -31.1694 9.7893 -46.4676 -29.0282 9.7893 -48.3295 -26.7914 9.7893 
-40.8156 -29.0282 15.3457 19.2954 -29.0282 15.6276 26.8093 -29.0282 13.7204 
38.8083 -29.0282 9.7893 34.3232 -29.0282 11.7706 41.8371 -26.9567 9.7893 
-51.654 -21.5143 9.7893 -48.3295 -21.5143 15.45 19.2954 -21.5143 17.2377 
26.8093 -21.5143 16.5814 34.3232 -21.5143 15.5334 47.7923 -21.5143 9.7893 
41.8371 -21.5143 13.5898 49.3509 -19.1438 9.7893 -54.2772 -14.0004 9.7893 
-48.3295 -14.0004 16.1697 19.2954 -14.0004 17.2305 34.3232 -14.0004 16.6774 
41.8371 -14.0004 15.3038 51.467 -14.0004 9.7893 49.3509 -14.0004 11.64 
-54.6031 -6.48651 9.7893 -48.3295 -6.48651 16.0987 11.7815 -6.48651 16.3486 
19.2954 -6.48651 16.8168 26.8093 -6.48651 17.2824 34.3232 -6.48651 16.8919 
[...]
POINT_DATA 538
SCALARS ImageScalars float
LOOKUP_TABLE default
0 0 0 0 0 0 0 0 0 
0 0 0 0 0 0 0 0 0 
0 0 0 0 0 0 0 0 0 
0 0 0 0 0 0 0 0 0 
0 0 0 0 0 0 0 0 0 
0 0 0 0 0 0 0 0 0 
0 0 0 0 0 0 0 0 0 
0 0 0 0 0 0 0 0 0 
0 0 0 0 0 0 0 0 0 
0 0 0 0 0 0 0 0 0 
0 0 0 0 0 0 0 0 0 
0 0 0 0 0 0 0 0 0 
0 0 0 0 0 0 0 0 0 
0 0 0 0 0 0 0 0 0 
0 0 0 0 0 0 0 0 0 
0 0 0 0 0 0 0 0 0 
0 0 0 0 0 0 0 0 0 
0 0 0 0 0 0 0 0 0 
0 0 0 0 0 0 0 0 0 
0 0 0 0 0 0 0 0 0 
0 0 0 0 0 0 0 0 0 
0 0 0 0 0 0 0 0 0 
0 0 0 0 0 0 0 0 0 
0 0 0 0 0 0 0 0 0 
0 0 0 0 0 0 0 0 0 
0 0 0 0 0 0 0 0 0 
0 0 0 0 0 0 0 0 0 
0 0 0 0 0 0 0 0 0 
0 0 0 0 0 0 0 0 0 
0 0 0 0 0 0 0 0 0 
0 0 0 0 0 0 0 0 0 
0 0 0 0 0 0 0 0 0 
0 0 0 0 0 0 0 0 0 
0 0 0 0 0 0 0 0 0 
0 0 0 0 0 0 0 0 0 
0 0 0 0 0 0 0 0 0 
0 0 0 0 0 0 0 0 0 
0 0 0 0 0 0 0 0 0 
0 0 0 0 0 0 0 0 0 
0 0 0 0 0 0 0 0 0 
0 0 0 0 0 0 0 0 0 
0 0 0 0 0 0 0 0 0 
0 0 0 0 0 0 0 0 0 
0 0 0 0 0 0 0 0 0 
0 0 0 0 0 0 0 0 0 
0 0 0 0 0 0 0 0 0 
0 0 0 0 0 0 0 0 0 
0 0 0 0 0 0 0 0 0 
0 0 0 0 0 0 0 0 0 
0 0 0 0 0 0 0 0 0 
0 0 0 0 0 0 0 0 0 
0 0 0 0 0 0 0 0 0 
0 0 0 0 0 0 0 0 0 
0 0 0 0 0 0 0 0 0 
0 0 0 0 0 0 0 0 0 
0 0 0 0 0 0 0 0 0 
0 0 0 0 0 0 0 0 0 
0 0 0 0 0 0 0 0 0 
0 0 0 0 0 0 0 0 0 
0 0 0 0 0 0 0 
NORMALS Normals float
-0.232758 -0.337765 -0.911997 0.00334139 -0.316825 -0.948478 -0.233243 -0.337459 -0.911986 
-0.228334 -0.361217 -0.904094 -0.0256562 -0.33569 -0.941623 0.11443 -0.390905 -0.91329 
0.254896 -0.491298 -0.832859 -0.202735 -0.127776 -0.970861 -0.00856949 -0.123025 -0.992367 
0.162583 -0.163583 -0.97304 -0.0143479 -0.179253 -0.983698 -0.294328 -0.229511 -0.927737 
-0.171633 -0.130221 -0.976516 -0.0358671 -0.0679209 -0.997046 0.0554624 -0.148135 -0.987411 
0.152542 -0.229946 -0.961174 0.310587 -0.352684 -0.882694 -0.208059 -0.139028 -0.968185 
-0.106655 -0.0240114 -0.994006 -0.0327018 0.0435719 -0.998515 0.0611012 -0.11257 -0.991763 
-0.0679604 -0.246805 -0.966679 -0.207367 -0.190483 -0.959539 -0.0655846 -0.0171985 -0.997699 
-0.0395549 0.0351309 -0.9986 -0.046534 -0.0453883 -0.997885 0.0224909 -0.146499 -0.988955 
0.225903 -0.203746 -0.952605 0.445042 -0.267391 -0.854658 -0.325974 -0.0885045 -0.941227 
-0.0975467 -0.0621697 -0.993287 -0.0311024 -0.0362121 -0.99886 -0.0925191 0.00431561 -0.995702 
-0.123108 -0.193846 -0.973277 -0.0980509 -0.127142 -0.987026 -0.0744641 -0.095117 -0.992677 
0.0391952 -0.050205 -0.99797 -0.0679107 0.033741 -0.997121 -0.120504 -0.0330025 -0.992164 
0.00700321 -0.0395411 -0.999193 0.179766 -0.0469235 -0.98259 0.423313 -0.0881991 -0.90168 
-0.327339 -0.00962506 -0.944858 -0.143667 -0.0940562 -0.985146 -0.0394419 -0.122397 -0.991697 
-0.167061 -0.155982 -0.97353 -0.134587 -0.150612 -0.979389 0.0358394 -0.136616 -0.989976 
-0.11426 -0.118186 -0.986396 0.0782003 -0.0109392 -0.996878 -0.0249275 -0.00856607 -0.999653 
-0.123851 0.00748494 -0.992273 0.0108829 0.00509665 -0.999928 0.167157 0.027578 -0.985545 
0.46859 0.065565 -0.88098 -0.387342 -0.0593375 -0.920025 -0.190564 -0.108396 -0.975672 
-0.0892187 -0.163918 -0.982431 -0.115435 -0.190612 -0.974855 -0.0798466 0.0600999 -0.994994 
-0.0649621 0.00621234 -0.997868 0.0308978 0.0750232 -0.996703 0.138938 0.067948 -0.987967 
-0.0510747 -0.025748 -0.998363 -0.111845 0.0308122 -0.993248 0.0275887 0.0509403 -0.998321 
0.230685 0.0885412 -0.968992 0.518343 0.208516 -0.829362 -0.478978 0.0431009 -0.876768 
-0.2521 -0.0448057 -0.966663 -0.115597 -0.120289 -0.985986 0.00583233 -0.102704 -0.994695 
0.0909248 0.0151258 -0.995743 0.0263596 0.0139519 -0.999555 -0.0316469 0.0706466 -0.996999 
-0.0103867 -0.0353221 -0.999322 -0.0552348 -0.0552029 -0.996946 -0.0431068 0.00979654 -0.999022 
0.0625584 0.0610701 -0.996171 0.32996 0.219614 -0.918094 0.646479 0.389076 -0.656266 
-0.527941 0.252986 -0.810725 -0.34179 0.0936641 -0.935097 -0.149861 0.0535543 -0.987256 
0.0207019 -0.00211468 -0.999783 0.0456169 -0.0422535 -0.998065 -0.00155949 -0.097365 -0.995248 
-0.0131077 -0.075713 -0.997043 3.97879e-06 -0.0803292 -0.996768 -0.00526865 -0.0398807 -0.999191 
0.000175831 0.0840655 -0.99646 0.21281 0.174223 -0.961436 0.507184 0.369027 -0.778835 
-0.419182 0.358286 -0.834217 -0.203319 0.268181 -0.941669 -0.0914621 0.155382 -0.983611 
-0.00660458 0.085857 -0.996286 -0.0111344 0.0368852 -0.999258 -0.00838155 0.0439287 -0.999 
0.0249905 0.076912 -0.996725 0.111998 0.115124 -0.987017 0.173767 0.26205 -0.949281 
0.380875 0.466581 -0.798271 -0.333775 0.608492 -0.719953 -0.186458 0.488816 -0.852228 
-0.094184 0.382429 -0.919172 -0.0532092 0.305852 -0.950591 0.0327864 0.304978 -0.951795 
0.0911654 0.375739 -0.922231 0.200978 0.49164 -0.847289 0.38013 0.64102 -0.666779 
-0.0731168 0.804216 -0.589823 0.0463883 0.840049 -0.540523 -0.47256 -0.646162 -0.599301 
-0.232653 -0.33995 -0.911211 -0.216164 -0.605159 -0.766196 -0.00292509 -0.37748 -0.926013 
-0.0268885 -0.561377 -0.827124 0.139938 -0.586605 -0.797692 0.0462358 -0.632384 -0.773274 
-0.231971 -0.342549 -0.910412 -0.142167 -0.699441 -0.700408 -0.198831 -0.564489 -0.801136 
-0.161722 -0.734265 -0.659319 -0.0111096 -0.652615 -0.757608 0.00355076 -0.729308 -0.684176 
0.178117 -0.644494 -0.743574 0.236433 -0.841668 -0.485484 0.298593 -0.635458 -0.712064 
-0.556993 -0.491448 -0.669506 -0.23461 -0.337824 -0.9115 -0.380847 -0.353093 -0.854565 
0.129866 -0.326538 -0.93622 0.133892 -0.324412 -0.936392 0.133376 -0.3269 -0.9356 
-0.217692 -0.334893 -0.916764 -0.0122996 -0.194583 -0.980809 -0.00691914 -0.304819 -0.952385 
0.386811 -0.572245 -0.723128 0.422766 -0.517408 -0.744015 0.485432 -0.669857 -0.561825 
-0.451653 -0.295768 -0.841742 -0.304685 -0.21917 -0.926894 -0.295478 -0.21275 -0.931359 
-0.330766 -0.242022 -0.912151 0.489276 -0.437939 -0.7542 0.517654 -0.410372 -0.750752 
0.602229 -0.49872 -0.623376 -0.64004 -0.228977 -0.733429 -0.277886 -0.209324 -0.93753 
-0.334319 -0.164967 -0.92791 -0.351621 -0.260441 -0.899185 0.613763 -0.281081 -0.737759 
0.922306 -0.282324 -0.263902 -0.37735 -0.0831512 -0.92233 -0.609533 -0.109787 -0.785122 
0.704942 -0.034489 -0.708426 0.892039 -0.00491721 -0.451932 -0.353616 -0.00888682 -0.935348 
-0.610717 -0.0137983 -0.791729 0.745434 0.0801487 -0.661744 0.959492 0.16618 -0.227508 
-0.443644 -0.0365428 -0.895458 -0.707148 0.10231 -0.699624 0.724083 0.238977 -0.646988 
-0.549882 0.0526151 -0.833584 -0.825634 0.192376 -0.530397 0.66483 0.399192 -0.631384 
0.664571 0.40668 -0.626863 -0.538017 0.258606 -0.802285 -0.541749 0.271529 -0.795475 
0.651839 0.455417 -0.606384 0.620579 0.527568 -0.580132 -0.57604 0.434591 -0.692321 
-0.74614 0.57778 -0.330825 -0.502732 0.550705 -0.666322 0.588186 0.584248 -0.559188 
0.513195 0.640517 -0.571287 -0.399492 0.659344 -0.636924 -0.557145 0.812371 -0.17217 
-0.352861 0.681216 -0.641431 -0.258827 0.688596 -0.677381 -0.180965 0.758382 -0.626186 
0.185443 0.797963 -0.573468 0.299691 0.734564 -0.60877 0.445816 0.7036 -0.553348 
0.398037 0.728926 -0.556986 -0.288539 0.952377 -0.0986073 -0.100169 0.809785 -0.578113 
-0.178365 0.887285 -0.425336 -0.072332 0.818962 -0.569272 0.10825 0.838776 -0.533608 
0.0470813 0.857723 -0.511952 0.185177 0.881732 -0.433887 -0.47719 -0.679732 -0.557005 
-0.263463 -0.767801 -0.584011 -0.02875 -0.828241 -0.559634 -0.0208403 -0.988465 -0.150006 
0.153353 -0.790989 -0.5923 0.083323 -0.769624 -0.633037 -0.0746919 -0.854234 -0.514495 
-0.0464211 -0.939313 -0.339907 0.103337 -0.975168 -0.195881 0.242433 -0.957915 -0.153702 
-0.496241 -0.663046 -0.56046 -0.579822 -0.543503 -0.606969 0.329005 -0.929069 -0.169078 
0.338753 -0.92504 -0.171892 0.493451 -0.842609 -0.215676 -0.599422 -0.513543 -0.613976 
0.614707 -0.762648 -0.201255 0.671717 -0.712198 -0.20389 -0.64267 -0.38604 -0.661777 
-0.666546 -0.349115 -0.658662 -0.695609 -0.419978 -0.582878 0.811126 -0.540743 -0.222871 
0.926929 -0.347557 -0.141444 -0.699688 -0.246528 -0.670568 0.95139 -0.279932 -0.12843 
0.939647 -0.26878 0.211708 -0.759679 -0.13747 -0.635602 0.987049 -0.00518306 -0.160336 
-0.821844 0.0522885 -0.567307 0.977064 0.19106 -0.0940322 0.964826 0.258916 -0.0455328 
0.954261 0.239527 0.178921 -0.839656 0.170926 -0.515521 0.944529 0.328427 -0.000389182 
-0.872874 0.242852 -0.423219 -0.885715 0.359829 -0.293311 0.895801 0.444364 0.00904041 
0.830415 0.556874 0.0173938 -0.87962 0.414191 -0.233911 0.803872 0.594062 0.0296667 
0.7149 0.696904 0.0569489 -0.767535 0.615034 -0.180617 -0.734391 0.660366 -0.156804 
0.711477 0.700295 0.0582038 0.58559 0.805483 0.0910061 -0.570685 0.81713 -0.0813484 
-0.552149 0.83029 -0.0758264 -0.541314 0.836999 0.0800754 -0.437244 0.89798 -0.0494926 
0.344771 0.931665 0.114603 0.558631 0.82387 0.0957606 0.432466 0.898611 0.0739741 
0.454375 0.710883 0.536832 -0.304467 0.952242 -0.0231319 -0.281781 0.959207 -0.022848 
-0.281185 0.958287 0.0512007 -0.146674 0.989183 0.00200738 -0.111016 0.931477 0.346447 
-0.00368329 0.998867 0.0474418 0.0243064 0.892701 0.449993 0.0577769 0.993655 0.0964996 
0.0887055 0.926099 0.366704 0.304364 0.944547 0.123266 0.154618 0.981421 0.113606 
0.172659 0.922009 0.346536 -0.0194718 -0.998835 -0.0441514 -0.486285 -0.86677 -0.11062 
-0.125901 -0.990649 -0.0525695 -0.261263 -0.96307 -0.0651001 0.0791442 -0.99511 -0.0590992 
-0.0239565 -0.992549 0.119467 0.14114 -0.987612 -0.0685678 0.142659 -0.984622 -0.100839 
0.0914712 -0.994176 -0.0569799 0.108418 -0.989852 0.091867 0.196547 -0.961312 0.192998 
0.279141 -0.928986 0.243032 -0.619199 -0.767237 -0.16715 -0.657525 -0.729995 -0.186462 
0.249075 -0.773526 0.582769 0.298814 -0.917379 0.26292 0.286263 -0.87788 0.383901 
0.318765 -0.906031 0.278381 0.481097 -0.835915 0.264181 -0.756368 -0.618301 -0.213566 
-0.785098 -0.576624 -0.226111 0.589114 -0.76546 0.258872 0.464775 -0.693341 0.550693 
0.678469 -0.68571 0.263593 -0.853161 -0.475301 -0.214954 0.81722 -0.498413 0.289373 
0.636269 -0.454602 0.623297 -0.950689 -0.242653 -0.193156 0.90491 -0.254129 0.341404 
0.917196 -0.196423 0.346654 -0.99432 -0.0406982 -0.0983428 0.938808 0.0228084 0.343685 
0.908591 0.178643 0.377558 0.89397 0.0281236 0.447244 -0.992119 0.124972 -0.00901803 
0.880883 0.261848 0.39431 -0.964778 0.262927 0.00857292 0.817032 0.371011 0.441372 
0.604536 0.367997 0.70648 -0.912471 0.398506 0.0926803 -0.855039 0.483458 0.187555 
-0.742279 0.412777 0.527862 0.455664 0.387545 0.80136 0.725311 0.472513 0.500656 
0.717626 0.481315 0.503338 0.707704 0.469742 0.527728 -0.823068 0.518809 0.231076 
0.363738 0.43701 0.822628 0.634187 0.541285 0.552103 0.598405 0.573499 0.559473 
0.548682 0.515749 0.65799 -0.671021 0.676532 0.303374 -0.660137 0.685145 0.307888 
-0.655983 0.678131 0.331397 -0.488353 0.792941 0.364357 -0.375623 0.591213 0.713704 
0.432105 0.644416 0.630883 0.312093 0.509418 0.80193 0.519304 0.623312 0.584641 
0.478294 0.642252 0.598955 0.450055 0.584166 0.675426 -0.448485 0.810992 0.375702 
-0.361046 0.83851 0.408102 -0.31667 0.747257 0.584232 -0.225648 0.84713 0.481097 
-0.150113 0.691566 0.706543 -0.0856769 0.852903 0.514991 0.0310906 0.825713 0.563232 
0.072053 0.62077 0.780675 0.111924 0.806096 0.581104 0.130595 0.61969 0.773905 
0.17368 0.753189 0.634461 0.158945 0.628454 0.761434 0.410108 0.670334 0.618436 
0.2505 0.763902 0.594729 0.265005 0.644682 0.717048 -0.390501 -0.846227 0.362504 
-0.217794 -0.878246 0.425734 -0.0295666 -0.887954 0.458981 0.10345 -0.891037 0.441985 
0.116283 -0.901405 0.41707 0.154504 -0.904301 0.397956 0.220666 -0.856505 0.466589 
-0.537741 -0.780626 0.318526 -0.605509 -0.734586 0.306172 -0.328924 -0.733481 0.594824 
-0.100191 -0.603117 0.791335 -0.0303174 -0.516586 0.855698 0.0379965 -0.520243 0.853173 
0.0584459 -0.636498 0.769061 0.113896 -0.702846 0.702164 0.249079 -0.770704 0.586494 
0.236829 -0.747727 0.620336 0.250146 -0.76529 0.593092 0.268706 -0.7293 0.629221 
0.310811 -0.680204 0.663867 -0.71507 -0.641439 0.277904 -0.779355 -0.574494 0.250124 
-0.48717 -0.550377 0.678049 0.248869 -0.386108 0.888248 0.225311 -0.481784 0.846829 
0.382599 -0.633453 0.672574 0.29193 -0.595142 0.748721 0.426028 -0.593022 0.683246 
-0.870284 -0.418653 0.25949 -0.680971 -0.32249 0.657479 0.131335 -0.0934605 0.986923 
0.105073 -0.221026 0.969591 0.179497 -0.305368 0.935164 0.561271 -0.436068 0.703434 
0.377842 -0.392245 0.838677 0.618934 -0.343269 0.706461 -0.918245 -0.191336 0.346722 
-0.583398 -0.0236776 0.811841 0.0120338 0.026538 0.999575 0.143141 -0.0811833 0.986367 
0.308033 -0.0862836 0.947455 0.689744 -0.172797 0.703132 0.605994 -0.16084 0.779039 
-0.909841 0.0525035 0.411621 -0.556093 0.079219 0.827336 0.0362332 0.0298266 0.998898 
-0.0635845 0.0589588 0.996233 -0.00365677 0.0551017 0.998474 0.126514 0.0462228 0.990887 
0.302391 0.0761066 0.950141 0.632628 0.0594362 0.772172 0.523346 0.0662626 0.84954 
-0.853915 0.201112 0.479982 -0.578405 0.199485 0.790982 0.0781233 0.0481882 0.995778 
0.0684641 0.0186998 0.997478 0.0375098 0.0878106 0.995431 0.02496 0.127012 0.991587 
0.157082 0.152596 0.975725 0.328769 0.202735 0.922393 0.61438 0.222939 0.756859 
0.574348 0.265182 0.774469 0.579893 0.227129 0.782392 -0.772665 0.296572 0.561278 
-0.727153 0.40228 0.556254 -0.646092 0.271463 0.713353 0.0854387 0.116142 0.989551 
0.0874728 0.139532 0.986346 0.0453484 0.131771 0.990242 0.0618844 0.199743 0.977892 
0.210464 0.251177 0.944783 0.461617 0.334542 0.821579 0.439178 0.367956 0.819592 
0.387526 0.296906 0.872737 -0.72107 0.409356 0.559003 -0.40061 0.338473 0.851439 
-0.195462 0.265898 0.943977 0.126064 0.0849666 0.988377 0.0900379 0.109451 0.989906 
0.0822121 0.130537 0.988029 0.101728 0.175996 0.97912 0.147688 0.258544 0.954643 
0.419209 0.37786 0.825521 0.3252 0.404736 0.854654 0.256475 0.343644 0.903399 
-0.553967 0.520687 0.649619 -0.532868 0.533187 0.657087 -0.520577 0.508633 0.685779 
-0.375617 0.591202 0.713717 -0.274555 0.396143 0.876179 -0.122049 0.322412 0.938698 
-0.0334934 0.242318 0.969618 0.0314876 0.200617 0.979164 0.093305 0.160088 0.982683 
0.128919 0.171735 0.976671 0.148337 0.216493 0.964949 0.171513 0.273698 0.9464 
0.312584 0.404361 0.859525 0.273613 0.420019 0.865286 0.245711 0.356423 0.901437 
-0.375608 0.591204 0.71372 -0.262828 0.611829 0.746048 -0.224759 0.50944 0.830635 
-0.13994 0.641489 0.75426 -0.107764 0.431049 0.895871 0.0100852 0.387808 0.921685 
0.0738324 0.605827 0.792163 0.0921442 0.376699 0.921741 0.137754 0.546916 0.825776 
0.142585 0.383328 0.91254 0.175628 0.488619 0.854638 0.179899 0.404172 0.896817 
0.233896 0.42406 0.874909 0.231352 0.423716 0.875752 0.230594 0.420198 0.877644 
-0.0364796 0.637974 0.769193 -0.0310236 0.636851 0.770362 -0.0353115 0.637754 0.76943 
-0.0352439 0.637444 0.76969 -0.215138 -0.474825 0.85338 -0.0403743 -0.419632 0.906796 
-0.00137378 -0.380224 0.924893 0.0199925 -0.329966 0.943781 -0.00359673 -0.400466 0.916305 
0.0766125 -0.443717 0.892886 0.20975 -0.32923 0.920659 -0.314897 -0.433092 0.844554 
-0.370975 -0.377525 0.848441 -0.175925 -0.355579 0.91794 -0.0171858 -0.305386 0.952074 
0.0416467 -0.253321 0.966485 0.00591661 -0.22092 0.975274 -0.0458054 -0.259042 0.964779 
0.0664645 -0.279382 0.957877 0.213516 -0.300867 0.929457 0.203862 -0.281242 0.937733 
-0.491496 -0.262028 0.830526 -0.277613 -0.204596 0.938654 -0.111316 -0.154519 0.981699 
0.0538713 -0.113196 0.992111 0.0723382 -0.0724592 0.994745 0.0188543 -0.073601 0.99711 
-0.0266649 -0.0506093 0.998362 0.0710309 -0.00674867 0.997451 0.13337 -0.0878228 0.987168 
0.17288 0.0108988 0.984883 0.044019 -0.0662483 0.996832 -0.460947 -0.00334114 0.887421 
-0.264242 -0.021127 0.964225 -0.0784853 0.0244381 0.996616 0.058252 0.0288106 0.997886 
0.0880997 0.0507998 0.994815 0.0233106 0.0644638 0.997648 0.0188475 0.0985852 0.99495 
0.129427 0.166064 0.977585 0.0347634 0.0513493 0.998076 0.104349 0.122119 0.987015 
0.125954 0.150734 0.980518 0.0218831 -0.0029209 0.999756 0.0512498 -0.0490335 0.997481 
0.0029975 0.0384306 0.999257 0.0355583 -0.0441274 0.998393 -0.42302 0.0804396 0.902543 
-0.239 0.0783281 0.967855 -0.0547601 0.0993631 0.993543 0.078683 0.0949227 0.99237 
0.110603 0.0943371 0.989377 0.0697162 0.0763695 0.994639 0.0740714 0.148291 0.986166 
0.0765508 0.219991 0.972494 0.112476 0.112218 0.987297 0.117007 0.116998 0.986215 
-0.335757 0.145284 0.930677 -0.256082 0.129684 0.957916 -0.0666761 0.093421 0.993392 
0.0540426 0.0850072 0.994914 0.0685954 0.0312718 0.997154 0.105835 0.0234451 0.994107 
0.136482 -0.0065549 0.990621 -0.0517577 0.0401315 0.997853 0.119625 -0.00198293 0.992817 
-0.0223019 0.0337108 0.999183 -0.0457384 0.0460599 0.997891 -0.0572165 0.0394265 0.997583 
-0.3343 0.21568 0.917456 -0.334243 0.215716 0.917468 -0.334222 0.215662 0.917489 
-0.180987 0.249257 0.951375 -0.108329 0.156932 0.98165 0.0137003 0.0926854 0.995601 
0.0190128 0.0370698 0.999132 0.0869854 0.0516662 0.994869 0.119279 0.00241417 0.992858 
0.121086 -0.000881078 0.992642 0.120829 -0.00329105 0.992668 -0.152585 0.240525 0.958575 
-0.0805628 0.228114 0.970296 -0.063287 0.185889 0.98053 -0.00183511 0.187981 0.982171 
0.0260568 0.143955 0.989241 0.107066 0.125719 0.986272 0.0872016 0.14886 0.985006 
0.102186 0.135148 0.985542 
