# vtk DataFile Version 4.2
vtk output
ASCII
DATASET POLYDATA
POINTS 504 float
16.2016 -38.2721 -16.2717 0.243829 -30.2932 -16.4174 8.22272 -30.2932 -18.4518 
16.2016 -30.2932 -19.1774 24.1805 -30.2932 -19.127 32.1594 -30.2932 -17.6383 
-7.73506 -22.3143 -16.1803 0.243829 -22.3143 -17.8915 8.22272 -22.3143 -19.512 
16.2016 -22.3143 -20.2618 24.1805 -22.3143 -20.628 32.1594 -22.3143 -19.9999 
40.1383 -22.3143 -17.1386 -31.6717 -14.3354 -17.3695 -23.6928 -14.3354 -18.7731 
-15.714 -14.3354 -18.5616 -7.73506 -14.3354 -17.6709 0.243829 -14.3354 -17.9262 
8.22272 -14.3354 -18.8837 16.2016 -14.3354 -20.2416 24.1805 -14.3354 -21.236 
32.1594 -14.3354 -21.4273 40.1383 -14.3354 -20.002 -39.6506 -6.35653 -17.2619 
-31.6717 -6.35653 -19.3787 -23.6928 -6.35653 -20.4769 -15.714 -6.35653 -20.5691 
-7.73506 -6.35653 -18.8739 0.243829 -6.35653 -16.0599 8.22272 -6.35653 -18.9048 
16.2016 -6.35653 -20.6433 24.1805 -6.35653 -21.9996 32.1594 -6.35653 -23.1854 
40.1383 -6.35653 -22.8707 48.1172 -6.35653 -19.2173 -39.6506 1.62236 -18.2607 
-31.6717 1.62236 -20.1254 -23.6928 1.62236 -20.4585 -15.714 1.62236 -20.7335 
-7.73506 1.62236 -19.7637 0.243829 1.62236 -17.887 8.22272 1.62236 -20.8008 
16.2016 1.62236 -21.1269 24.1805 1.62236 -22.5244 32.1594 1.62236 -23.5501 
40.1383 1.62236 -23.3889 48.1172 1.62236 -21.2252 -39.6506 9.60125 -18.8967 
-31.6717 9.60125 -20.6521 -23.6928 9.60125 -21.0291 -15.714 9.60125 -20.7506 
-7.73506 9.60125 -20.5605 0.243829 9.60125 -20.4861 8.22272 9.60125 -21.1268 
16.2016 9.60125 -21.5241 24.1805 9.60125 -22.7894 32.1594 9.60125 -23.8751 
40.1383 9.60125 -23.6502 48.1172 9.60125 -21.6941 -39.6506 17.5801 -19.2571 
-31.6717 17.5801 -20.7737 -23.6928 17.5801 -21.7564 -15.714 17.5801 -21.7634 
-7.73506 17.5801 -21.0791 0.243829 17.5801 -20.6149 8.22272 17.5801 -21.3745 
16.2016 17.5801 -22.3149 24.1805 17.5801 -23.2 32.1594 17.5801 -23.9532 
40.1383 17.5801 -23.6829 48.1172 17.5801 -21.5446 -39.6506 25.559 -16.532 
-31.6717 25.559 -20.1636 -23.6928 25.559 -21.6412 -15.714 25.559 -21.6941 
-7.73506 25.559 -21.3635 0.243829 25.559 -21.1314 8.22272 25.559 -21.7233 
16.2016 25.559 -22.1235 24.1805 25.559 -22.6086 32.1594 25.559 -22.0826 
40.1383 25.559 -20.4969 48.1172 25.559 -17.297 -31.6717 33.5379 -16.2306 
-23.6928 33.5379 -19.169 -15.714 33.5379 -19.7499 -7.73506 33.5379 -19.8824 
0.243829 33.5379 -19.8743 8.22272 33.5379 -20.0813 16.2016 33.5379 -19.9966 
24.1805 33.5379 -19.6752 32.1594 33.5379 -17.6851 16.2016 -38.5772 -16.0523 
-7.73506 -38.2721 -9.06837 0.243829 -31.1032 -16.0523 0.243829 -38.2721 -12.1483 
14.6984 -38.2721 -16.0523 8.22272 -36.1105 -16.0523 8.22272 -38.2721 -14.9041 
18.5444 -38.2721 -16.0523 24.1805 -37.1168 -16.0523 24.1805 -38.2721 -15.3728 
32.1594 -33.5956 -16.0523 32.1594 -38.2721 -12.1879 -23.6928 -30.2932 -8.70571 
-15.714 -30.2932 -11.8722 -0.959975 -30.2932 -16.0523 -7.73506 -22.8083 -16.0523 
-7.73506 -30.2932 -13.9529 35.7161 -30.2932 -16.0523 40.1383 -25.0303 -16.0523 
40.1383 -30.2932 -12.2629 -31.6717 -17.2388 -16.0523 -31.6717 -22.3143 -12.7282 
-23.6928 -20.6548 -16.0523 -23.6928 -22.3143 -15.2105 -10.0009 -22.3143 -16.0523 
-15.714 -21.3963 -16.0523 -15.714 -22.3143 -15.7161 41.8433 -22.3143 -16.0523 
-35.1623 -14.3354 -16.0523 -39.6506 -9.74313 -16.0523 -39.6506 -14.3354 -13.9304 
47.7291 -14.3354 -16.0523 48.1172 -13.823 -16.0523 48.1172 -14.3354 -15.6442 
-41.9238 -6.35653 -16.0523 -47.6295 -6.35653 -11.8769 51.8871 -6.35653 -16.0523 
-44.1247 1.62236 -16.0523 -47.6295 1.62236 -13.909 54.4435 1.62236 -16.0523 
56.0961 1.62236 -10.2702 -45.5554 9.60125 -16.0523 -47.6295 9.60125 -14.7573 
55.354 9.60125 -16.0523 56.0961 9.60125 -13.0354 -45.1182 17.5801 -16.0523 
-47.6295 17.5801 -13.4357 53.3969 17.5801 -16.0523 -40.2753 25.559 -16.0523 
-39.6506 26.2983 -16.0523 40.1383 32.8998 -16.0523 49.2923 25.559 -16.0523 
48.1172 26.7801 -16.0523 -31.9819 33.5379 -16.0523 -31.6717 33.7285 -16.0523 
-23.6928 37.2605 -16.0523 -15.714 38.8928 -16.0523 -7.73506 39.5284 -16.0523 
0.243829 39.7561 -16.0523 8.22272 39.6349 -16.0523 16.2016 38.88 -16.0523 
24.1805 37.6514 -16.0523 38.468 33.5379 -16.0523 32.1594 35.323 -16.0523 
40.1383 33.5379 -14.9605 -15.714 41.5168 -11.4234 -7.73506 41.5168 -13.1415 
0.243829 41.5168 -13.7038 8.22272 41.5168 -13.4354 16.2016 41.5168 -11.6802 
-7.73506 -39.3679 -8.07341 0.243829 -42.2228 -8.07341 8.22272 -44.2965 -8.07341 
8.22272 -46.251 -1.02832 16.2016 -45.1724 -8.07341 16.2016 -46.251 -0.876046 
24.1805 -44.3748 -8.07341 32.1594 -40.8366 -8.07341 -23.6928 -30.9497 -8.07341 
-9.97466 -38.2721 -8.07341 -15.714 -35.2447 -8.07341 -15.714 -38.2721 -4.48205 
35.52 -38.2721 -8.07341 40.1383 -33.4754 -8.07341 -24.8086 -30.2932 -8.07341 
-31.6717 -26.4407 -8.07341 -31.6717 -30.2932 -1.41943 42.6816 -30.2932 -8.07341 
-38.1442 -22.3143 -8.07341 -39.6506 -21.2107 -8.07341 -39.6506 -22.3143 -6.34137 
47.6332 -22.3143 -8.07341 48.1172 -21.4438 -8.07341 -46.2165 -14.3354 -8.07341 
-47.6295 -12.2568 -8.07341 -47.6295 -14.3354 -5.67538 51.6923 -14.3354 -8.07341 
-50.7367 -6.35653 -8.07341 54.7427 -6.35653 -8.07341 56.0961 -0.540791 -8.07341 
-52.9418 1.62236 -8.07341 -55.6084 1.62236 -0.606512 56.5725 1.62236 -8.07341 
56.0961 1.62236 -6.50652 -52.9165 9.60125 -8.07341 56.998 9.60125 -8.07341 
56.0961 16.6234 -8.07341 56.0961 9.60125 -5.04528 -51.1819 17.5801 -8.07341 
-47.6295 24.4221 -8.07341 55.9574 17.5801 -8.07341 -46.9509 25.559 -8.07341 
-47.6295 25.559 -4.13284 -39.6506 32.8773 -8.07341 51.4343 25.559 -8.07341 
48.1172 29.295 -8.07341 -38.7225 33.5379 -8.07341 -31.6717 37.7396 -8.07341 
-23.6928 40.8842 -8.07341 24.1805 41.402 -8.07341 32.1594 39.4082 -8.07341 
43.3199 33.5379 -8.07341 40.1383 35.7329 -8.07341 -20.9766 41.5168 -8.07341 
-15.714 42.7533 -8.07341 -7.73506 43.7324 -8.07341 0.243829 44.112 -8.07341 
8.22272 43.9621 -8.07341 23.6228 41.5168 -8.07341 16.2016 43.0178 -8.07341 
24.1805 41.5168 -2.84433 8.22272 -46.4687 -0.0945205 16.2016 -46.3556 -0.0945205 
-15.714 -41.3605 -0.0945205 -7.73506 -44.5447 -0.0945205 4.08043 -46.251 -0.0945205 
0.243829 -46.0359 -0.0945205 8.22272 -46.251 1.02241 16.9586 -46.251 -0.0945205 
16.2016 -46.251 0.184879 24.1805 -45.0292 -0.0945205 32.1594 -40.713 -0.0945205 
-31.6717 -30.9914 -0.0945205 -21.4205 -38.2721 -0.0945205 -23.6928 -36.8866 -0.0945205 
-23.6928 -38.2721 3.52369 35.5104 -38.2721 -0.0945205 32.1594 -38.2721 3.8925 
40.1383 -33.3572 -0.0945205 -32.6749 -30.2932 -0.0945205 -39.6506 -25.4556 -0.0945205 
42.3068 -30.2932 -0.0945205 40.1383 -30.2932 3.17932 -43.4351 -22.3143 -0.0945205 
-47.6295 -17.8332 -0.0945205 46.7989 -22.3143 -0.0945205 48.1172 -18.79 -0.0945205 
-50.2392 -14.3354 -0.0945205 49.6451 -14.3354 -0.0945205 48.1172 -14.3354 2.11916 
-54.1519 -6.35653 -0.0945205 -55.6084 0.814653 -0.0945205 52.3758 -6.35653 -0.0945205 
48.1172 -6.35653 4.89818 -55.7636 1.62236 -0.0945205 -55.6084 4.49833 -0.0945205 
-55.6084 1.62236 2.70729 53.5751 1.62236 -0.0945205 48.1172 1.62236 5.7229 
-55.338 9.60125 -0.0945205 54.074 9.60125 -0.0945205 48.1172 9.60125 5.85065 
-52.9471 17.5801 -0.0945205 53.0343 17.5801 -0.0945205 48.1172 17.5801 4.83306 
-48.3049 25.559 -0.0945205 -47.6295 26.4018 -0.0945205 -47.6295 25.559 2.22734 
-39.6506 33.4602 -0.0945205 48.3158 25.559 -0.0945205 48.1172 25.8341 -0.0945205 
48.1172 25.559 0.215941 -39.5177 33.5379 -0.0945205 -31.6717 37.6624 -0.0945205 
-23.6928 40.7183 -0.0945205 32.1594 39.0579 -0.0945205 41.6573 33.5379 -0.0945205 
40.1383 34.6858 -0.0945205 40.1383 33.5379 1.89187 -20.2294 41.5168 -0.0945205 
-15.714 42.5032 -0.0945205 -15.714 41.5168 2.69215 -7.73506 43.3868 -0.0945205 
-7.73506 41.5168 4.69396 0.243829 43.7336 -0.0945205 0.243829 41.5168 5.16076 
8.22272 43.7239 -0.0945205 8.22272 41.5168 5.24186 16.2016 43.1044 -0.0945205 
16.2016 41.5168 4.13267 24.3923 41.5168 -0.0945205 24.1805 41.5772 -0.0945205 
24.1805 41.5168 0.0871942 -23.6928 -39.5332 7.88437 -15.714 -43.6921 7.88437 
-7.73506 -45.8732 7.88437 0.243829 -46.017 7.88437 8.22272 -44.7161 7.88437 
16.2016 -42.7039 7.88437 24.1805 -40.2794 7.88437 -25.4674 -38.2721 7.88437 
-31.6717 -33.391 7.88437 16.2016 -38.2721 12.729 27.7653 -38.2721 7.88437 
24.1805 -38.2721 9.9617 32.1594 -34.7178 7.88437 -35.7397 -30.2932 7.88437 
-39.6506 -27.2715 7.88437 24.1805 -30.2932 14.7956 36.1633 -30.2932 7.88437 
32.1594 -30.2932 11.0563 40.1383 -23.7359 7.88437 -44.9422 -22.3143 7.88437 
-47.6295 -19.0849 7.88437 32.1594 -22.3143 13.67 40.917 -22.3143 7.88437 
40.1383 -22.3143 8.57169 -51.0013 -14.3354 7.88437 32.1594 -14.3354 14.9658 
43.2297 -14.3354 7.88437 40.1383 -14.3354 10.6181 -54.181 -6.35653 7.88437 
32.1594 -6.35653 15.0483 44.8595 -6.35653 7.88437 40.1383 -6.35653 11.19 
-55.3231 1.62236 7.88437 32.1594 1.62236 15.2014 45.4727 1.62236 7.88437 
40.1383 1.62236 11.456 -54.7381 9.60125 7.88437 32.1594 9.60125 15.3895 
45.6178 9.60125 7.88437 40.1383 9.60125 11.6201 -51.6034 17.5801 7.88437 
-47.6295 23.4414 7.88437 -47.6295 17.5801 15.6712 32.1594 17.5801 15.6151 
44.7669 17.5801 7.88437 40.1383 17.5801 11.3514 -45.7695 25.559 7.88437 
-39.6506 30.764 7.88437 -39.6506 25.559 15.5895 32.1594 25.559 14.0925 
42.3044 25.559 7.88437 40.1383 28.0854 7.88437 40.1383 25.559 9.62639 
-34.6566 33.5379 7.88437 -31.6717 35.0975 7.88437 -31.6717 33.5379 10.5904 
-23.6928 37.8588 7.88437 -23.6928 33.5379 13.8649 -15.714 39.3983 7.88437 
-15.714 33.5379 14.9849 -7.73506 40.0314 7.88437 -7.73506 33.5379 14.5613 
0.243829 40.1163 7.88437 0.243829 33.5379 14.1655 8.22272 40.149 7.88437 
8.22272 33.5379 13.989 16.2016 39.7839 7.88437 16.2016 33.5379 14.1681 
24.1805 38.3928 7.88437 24.1805 33.5379 12.8542 34.4088 33.5379 7.88437 
32.1594 35.1791 7.88437 32.1594 33.5379 9.57612 -23.6928 -39.2426 15.8633 
-15.714 -42.8568 15.8633 -7.73506 -43.9413 15.8633 0.243829 -42.0095 15.8633 
8.22272 -39.0512 15.8633 -25.2109 -38.2721 15.8633 -31.6717 -33.4421 15.8633 
-23.6928 -38.2721 17.64 -15.714 -38.2721 21.9301 -7.73506 -38.2721 21.7224 
0.243829 -38.2721 19.3129 9.76547 -38.2721 15.8633 8.22272 -38.2721 16.5212 
[...]
POINT_DATA 504
SCALARS ImageScalars float
LOOKUP_TABLE default
0 0 0 0 0 0 0 0 0 
0 0 0 0 0 0 0 0 0 
0 0 0 0 0 0 0 0 0 
0 0 0 0 0 0 0 0 0 
0 0 0 0 0 0 0 0 0 
0 0 0 0 0 0 0 0 0 
0 0 0 0 0 0 0 0 0 
0 0 0 0 0 0 0 0 0 
0 0 0 0 0 0 0 0 0 
0 0 0 0 0 0 0 0 0 
0 0 0 0 0 0 0 0 0 
0 0 0 0 0 0 0 0 0 
0 0 0 0 0 0 0 0 0 
0 0 0 0 0 0 0 0 0 
0 0 0 0 0 0 0 0 0 
0 0 0 0 0 0 0 0 0 
0 0 0 0 0 0 0 0 0 
0 0 0 0 0 0 0 0 0 
0 0 0 0 0 0 0 0 0 
0 0 0 0 0 0 0 0 0 
0 0 0 0 0 0 0 0 0 
0 0 0 0 0 0 0 0 0 
0 0 0 0 0 0 0 0 0 
0 0 0 0 0 0 0 0 0 
0 0 0 0 0 0 0 0 0 
0 0 0 0 0 0 0 0 0 
0 0 0 0 0 0 0 0 0 
0 0 0 0 0 0 0 0 0 
0 0 0 0 0 0 0 0 0 
0 0 0 0 0 0 0 0 0 
0 0 0 0 0 0 0 0 0 
0 0 0 0 0 0 0 0 0 
0 0 0 0 0 0 0 0 0 
0 0 0 0 0 0 0 0 0 
0 0 0 0 0 0 0 0 0 
0 0 0 0 0 0 0 0 0 
0 0 0 0 0 0 0 0 0 
0 0 0 0 0 0 0 0 0 
0 0 0 0 0 0 0 0 0 
0 0 0 0 0 0 0 0 0 
0 0 0 0 0 0 0 0 0 
0 0 0 0 0 0 0 0 0 
0 0 0 0 0 0 0 0 0 
0 0 0 0 0 0 0 0 0 
0 0 0 0 0 0 0 0 0 
0 0 0 0 0 0 0 0 0 
0 0 0 0 0 0 0 0 0 
0 0 0 0 0 0 0 0 0 
0 0 0 0 0 0 0 0 0 
0 0 0 0 0 0 0 0 0 
0 0 0 0 0 0 0 0 0 
0 0 0 0 0 0 0 0 0 
0 0 0 0 0 0 0 0 0 
0 0 0 0 0 0 0 0 0 
0 0 0 0 0 0 0 0 0 
0 0 0 0 0 0 0 0 0 

NORMALS Normals float
0.0257846 0.519436 0.854121 0.264423 0.295063 0.91816 0.162826 0.248088 0.954955 
0.0407522 0.232328 0.971783 -0.0919128 0.274721 0.957121 -0.292006 0.361302 0.885547 
0.127844 0.215807 0.968031 0.207743 0.0884319 0.974178 0.143307 0.0251795 0.989358 
0.068538 0.0646866 0.995549 -0.0128561 0.125752 0.991978 -0.203535 0.234161 0.950654 
-0.448887 0.345942 0.823908 0.257364 0.332717 0.907228 0.0687084 0.301686 0.950928 
-0.0680782 0.292758 0.95376 -0.0379753 0.162056 0.986051 0.0747601 -0.107768 0.991361 
0.144585 -0.0376262 0.988777 0.145772 0.023513 0.989039 0.0734106 0.0849068 0.993681 
-0.0684179 0.190542 0.979292 -0.279511 0.327708 0.902486 0.378202 0.22112 0.898927 
0.192677 0.160922 0.967977 0.0742939 0.103641 0.991836 -0.092717 0.130868 0.987055 
-0.282837 0.131503 0.950111 0.00373608 -0.0241374 0.999702 0.278763 0.119386 0.95291 
0.186396 0.0550985 0.980928 0.155695 0.0800169 0.984559 0.0552353 0.12766 0.990279 
-0.208431 0.191847 0.959037 -0.551485 0.287819 0.782959 0.331005 0.0979721 0.938529 
0.130608 0.0800438 0.988198 0.0374864 0.0345042 0.998701 -0.0398585 0.0113003 0.999141 
-0.167931 0.108334 0.979828 0.0780899 0.307116 0.948463 0.174886 0.135497 0.975221 
0.106404 0.0543907 0.992834 0.150695 0.0487923 0.987375 0.0537309 0.0426376 0.997645 
-0.134387 0.0451727 0.989899 -0.448981 0.139984 0.882508 0.313604 0.0609946 0.947593 
0.126273 0.0399905 0.991189 0.00578096 0.0818136 0.996631 -0.0292521 0.0644339 0.997493 
-0.0165029 0.0791488 0.996726 0.0353205 0.141169 0.989355 0.064454 0.0353912 0.997293 
0.103343 0.0739988 0.991889 0.15021 0.0431228 0.987713 0.0534445 0.02505 0.998257 
-0.129404 0.0179905 0.991429 -0.420538 0.0221924 0.907003 0.358473 -0.105964 0.927507 
0.159134 -0.026044 0.986913 0.0608394 0.0387004 0.997397 -0.0422336 0.0589877 0.997365 
-0.0726018 0.0503974 0.996087 0.0183956 0.0399934 0.999031 0.10627 0.036995 0.993649 
0.113697 0.0372745 0.992816 0.100882 -0.00970981 0.994851 0.0323975 -0.112582 0.993114 
-0.114749 -0.188952 0.975259 -0.499641 -0.226188 0.836181 0.509171 -0.435867 0.742136 
0.275985 -0.249637 0.928177 0.0872288 -0.148242 0.985097 -0.0172864 -0.117718 0.992897 
-0.035122 -0.0740172 0.996638 0.022351 -0.046273 0.998679 0.0621728 -0.0767024 0.995114 
0.0535532 -0.132912 0.98968 -0.00263799 -0.195779 0.980645 -0.117207 -0.326486 0.937907 
-0.270203 -0.433513 0.859684 -0.586169 -0.571597 0.574179 0.412294 -0.619957 0.667583 
0.193673 -0.507955 0.839328 0.0418556 -0.415366 0.908691 0.00740354 -0.362923 0.93179 
0.0120408 -0.340351 0.940221 0.00829033 -0.380558 0.92472 -0.0226953 -0.441215 0.897114 
-0.123253 -0.53186 0.837815 -0.212827 -0.662857 0.717862 0.0248973 0.532672 0.845956 
0.321446 0.631008 0.706046 0.26802 0.321777 0.908089 0.283149 0.608186 0.741577 
0.0587675 0.526523 0.848127 0.197096 0.466773 0.862135 0.205473 0.570953 0.794854 
-0.0267736 0.53909 0.841822 -0.149182 0.535907 0.830993 -0.168816 0.603283 0.779456 
-0.337014 0.468502 0.816656 -0.469084 0.717027 0.515589 0.365296 0.688493 0.626527 
0.263055 0.517738 0.814094 0.261741 0.304393 0.91588 0.1349 0.22411 0.965182 
0.248494 0.36884 0.89566 -0.431711 0.420655 0.797919 -0.50395 0.394417 0.76842 
-0.684808 0.552236 0.475471 0.282701 0.422572 0.861112 0.359089 0.621202 0.696537 
0.105825 0.458637 0.8823 0.129695 0.508249 0.851388 0.106622 0.259854 0.959743 
0.0378898 0.360005 0.932181 0.0545332 0.369439 0.927653 -0.515667 0.380812 0.767508 
0.343476 0.375895 0.860655 0.411806 0.30672 0.858102 0.475227 0.448055 0.757236 
-0.647136 0.416801 0.638351 -0.658379 0.414787 0.628083 -0.679645 0.42349 0.598948 
0.451261 0.236336 0.860529 0.683564 0.299687 0.665528 -0.735207 0.34016 0.586312 
0.479675 0.113313 0.870099 0.631541 0.132051 0.764014 -0.830794 0.16772 0.530708 
-0.984991 0.145821 0.0923496 0.542165 0.0255565 0.839883 0.649381 -0.00858213 0.760415 
-0.868737 -0.0465269 0.493084 -0.962317 -0.0427359 0.26855 0.597828 -0.186903 0.779531 
0.745392 -0.24906 0.618353 -0.78795 -0.327709 0.521288 0.526324 -0.445431 0.724275 
0.517825 -0.464247 0.718562 -0.410969 -0.730787 0.545027 -0.650406 -0.567486 0.504907 
-0.607972 -0.610016 0.508183 0.419568 -0.623741 0.659477 0.414137 -0.628391 0.658495 
0.246525 -0.711434 0.658094 0.10826 -0.714508 0.6912 0.0367343 -0.700363 0.712841 
0.00445574 -0.687751 0.725933 -0.0387366 -0.698297 0.71476 -0.0919397 -0.718027 0.689916 
-0.168868 -0.747365 0.642595 -0.377445 -0.739559 0.557304 -0.246085 -0.731639 0.635725 
-0.433912 -0.769995 0.46779 0.157634 -0.92619 0.342525 0.0590411 -0.875345 0.479881 
0.00801232 -0.847026 0.53149 -0.0554836 -0.858891 0.509144 -0.139175 -0.911434 0.387193 
0.316491 0.667136 0.674361 0.24084 0.774687 0.584684 0.156666 0.879092 0.45017 
0.0334971 0.997437 0.0632205 0.00456784 0.934708 0.355388 -0.0706684 0.994354 -0.0791586 
-0.255228 0.909513 0.328093 -0.509983 0.823944 0.24705 0.379485 0.695457 0.61019 
0.339954 0.651789 0.67794 0.353052 0.633742 0.688278 0.400121 0.730593 0.553296 
-0.611177 0.751101 0.24962 -0.736619 0.637109 0.226902 0.381143 0.704156 0.599078 
0.423318 0.731201 0.534927 0.506799 0.782636 0.361437 -0.782699 0.584764 0.213151 
0.502891 0.686025 0.525804 0.528402 0.663138 0.530131 0.539283 0.700669 0.467158 
-0.860676 0.48312 0.160724 -0.868708 0.47312 0.146645 0.687637 0.499753 0.52669 
0.724037 0.450609 0.522228 0.742212 0.51359 0.43052 -0.91128 0.406199 0.0676063 
0.796961 0.315265 0.515229 -0.954374 0.298451 0.00981563 -0.983475 0.178389 -0.0308848 
0.847808 0.121777 0.516132 0.98714 0.0709158 0.143267 -0.989925 0.134288 -0.0448848 
-0.983139 0.12917 -0.129433 0.88562 -0.0980681 0.453939 -0.997204 -0.0390321 -0.0637206 
-0.959687 -0.280464 -0.0184475 -0.972337 -0.0282035 -0.231875 0.87338 -0.306279 0.378681 
0.79853 -0.507882 0.323118 -0.949972 -0.312065 -0.0129904 0.777898 -0.544238 0.314132 
0.801541 -0.582919 0.133184 0.584725 -0.776487 0.234871 -0.801812 -0.596213 -0.0403555 
-0.720786 -0.693151 0.00294698 0.564535 -0.795255 0.221066 0.4341 -0.882199 0.182432 
0.285686 -0.945913 0.153727 -0.209441 -0.960121 0.185209 -0.347504 -0.92274 0.166709 
-0.580603 -0.81079 0.0743035 -0.497004 -0.862961 0.0910254 0.245212 -0.957486 0.151962 
0.172421 -0.972361 0.157433 0.0850174 -0.98065 0.176348 0.0141183 -0.983372 0.181052 
-0.0670045 -0.980134 0.186677 -0.205067 -0.96103 0.185386 -0.154014 -0.968235 0.196978 
-0.22814 -0.972978 -0.0355905 0.0193077 0.999635 0.0189171 -0.0781596 0.989419 -0.12223 
0.412128 0.825171 0.386321 0.250256 0.915113 0.316135 0.065005 0.992303 0.105401 
0.109026 0.976154 0.187717 -0.00653298 0.999515 -0.0304326 -0.097849 0.986682 -0.129941 
-0.0829548 0.987232 -0.135981 -0.298194 0.932902 -0.201928 -0.526354 0.819084 -0.228153 
0.525916 0.783912 0.329992 0.486644 0.7755 0.402216 0.511565 0.762437 0.396221 
0.533216 0.802972 0.266301 -0.614728 0.755235 -0.22744 -0.517819 0.720463 -0.461298 
-0.771359 0.588789 -0.241524 0.527982 0.786526 0.320331 0.582158 0.767559 0.268227 
-0.815258 0.51616 -0.262552 -0.755459 0.483045 -0.442662 0.647873 0.721074 0.245588 
0.758366 0.612399 0.223267 -0.871294 0.387786 -0.30078 -0.877779 0.329219 -0.348021 
0.818565 0.528406 0.225252 -0.870518 0.280622 -0.404289 -0.837187 0.245706 -0.488618 
0.934624 0.303845 0.184816 0.98769 0.0908399 0.127342 -0.857877 0.214651 -0.466875 
-0.721793 0.147609 -0.676185 0.990384 0.0675758 0.12072 0.993263 -0.0165508 0.114696 
0.998342 0.0572898 0.00564381 -0.842098 0.0835254 -0.532818 -0.674782 0.0408538 -0.736886 
0.981457 -0.162787 0.101203 -0.844465 -0.021084 -0.535196 -0.666391 -0.0384004 -0.744613 
0.925897 -0.37718 0.0212157 -0.824883 -0.279842 -0.491178 -0.680551 -0.198691 -0.705246 
0.795151 -0.604576 -0.0471485 0.777235 -0.626942 -0.0533764 0.770071 -0.623564 -0.134753 
0.532721 -0.838644 -0.113508 -0.767436 -0.48385 -0.420631 -0.764803 -0.490514 -0.417698 
-0.765155 -0.479258 -0.429941 0.529673 -0.84044 -0.114492 0.394295 -0.907506 -0.144793 
0.280169 -0.945328 -0.166915 -0.389083 -0.900445 -0.194455 -0.593343 -0.739151 -0.318747 
-0.557626 -0.773097 -0.302283 -0.569059 -0.724333 -0.389248 0.228013 -0.958014 -0.173839 
0.161703 -0.969377 -0.184826 0.150544 -0.946788 -0.28448 0.0757099 -0.976034 -0.204023 
0.0565412 -0.9205 -0.38663 0.0207606 -0.975401 -0.219459 0.0134534 -0.903191 -0.429028 
-0.0393255 -0.977817 -0.205737 -0.0244244 -0.90136 -0.432382 -0.12984 -0.976935 -0.169528 
-0.112024 -0.928329 -0.35448 -0.237674 -0.959557 -0.150871 -0.233929 -0.960589 -0.15015 
-0.23351 -0.959481 -0.1577 0.5394 0.834692 0.111072 0.372849 0.925671 0.0641611 
0.12837 0.991322 -0.0283163 -0.062791 0.979733 -0.19021 -0.186336 0.90945 -0.371724 
-0.235549 0.799196 -0.552994 -0.326149 0.721784 -0.610454 0.558727 0.820918 0.117974 
0.595743 0.794056 0.120689 -0.295239 0.612882 -0.732945 -0.4073 0.656132 -0.635293 
-0.345409 0.645995 -0.680723 -0.505179 0.539771 -0.673381 0.603553 0.791487 0.0962912 
0.638224 0.768158 0.0510238 -0.303582 0.333852 -0.892401 -0.593048 0.428965 -0.681383 
-0.49706 0.408989 -0.765284 -0.65233 0.31503 -0.689363 0.72865 0.684738 -0.0142455 
0.79353 0.606348 -0.0514939 -0.417715 0.196303 -0.887119 -0.662952 0.292036 -0.689354 
-0.641146 0.291154 -0.710043 0.870064 0.484099 -0.092937 -0.358683 0.0787786 -0.930129 
-0.657979 0.157782 -0.736321 -0.57351 0.125676 -0.809501 0.955857 0.243774 -0.164047 
-0.370375 0.0134828 -0.928785 -0.616669 0.095975 -0.78135 -0.515415 0.0432262 -0.85585 
0.977011 0.0352702 -0.210251 -0.366525 0.0200891 -0.930191 -0.604117 0.0289211 -0.796371 
-0.496465 0.0233609 -0.867742 0.948601 -0.214456 -0.232732 -0.366924 0.0238319 -0.929945 
-0.603662 -0.0277136 -0.796759 -0.501842 -0.00481734 -0.864946 0.853338 -0.436132 -0.285663 
0.73138 -0.597335 -0.329049 0.674116 -0.446168 -0.588644 -0.357012 -0.0710654 -0.931393 
-0.609668 -0.135189 -0.781043 -0.539143 -0.101541 -0.83607 0.670829 -0.653126 -0.351306 
0.514135 -0.770732 -0.376346 0.452 -0.619725 -0.641589 -0.384963 -0.28892 -0.876544 
-0.624423 -0.371454 -0.687108 -0.581989 -0.457163 -0.672526 -0.570289 -0.355077 -0.740737 
0.419211 -0.822833 -0.383678 0.370021 -0.843406 -0.389553 0.34997 -0.807942 -0.474079 
0.232136 -0.864047 -0.446695 0.154808 -0.716311 -0.680392 0.119695 -0.862444 -0.491796 
0.0242345 -0.616235 -0.787189 0.0386566 -0.84638 -0.531174 -0.0400908 -0.579872 -0.813721 
0.00606379 -0.827697 -0.561143 -0.0294944 -0.563674 -0.82547 -0.0172297 -0.822631 -0.568315 
-0.00018352 -0.553351 -0.832948 -0.0902569 -0.832657 -0.546384 -0.0567569 -0.547104 -0.835138 
-0.222485 -0.810033 -0.542538 -0.219284 -0.59794 -0.770962 -0.483647 -0.641992 -0.594922 
-0.438334 -0.692473 -0.573013 -0.43771 -0.621338 -0.649884 0.485994 0.83759 -0.249507 
0.255213 0.904363 -0.342043 -0.0307175 0.881989 -0.470267 -0.243019 0.727973 -0.641091 
-0.326063 0.577805 -0.748214 0.524221 0.815789 -0.244297 0.626437 0.736715 -0.254613 
0.475764 0.804911 -0.354638 0.123376 0.676946 -0.725619 -0.141119 0.580268 -0.802106 
-0.277195 0.551351 -0.786877 -0.327242 0.549157 -0.768986 -0.331378 0.541053 -0.772949 
-0.285316 0.396114 -0.872748 0.641943 0.715079 -0.276715 0.685394 0.63651 -0.353681 
0.566985 0.621681 -0.540408 -0.326291 0.234004 -0.915847 -0.328488 0.250047 -0.910809 
-0.282003 0.322339 -0.903644 -0.274779 0.31304 -0.909122 -0.299682 0.225169 -0.927086 
0.724816 0.5635 -0.39637 0.765505 0.411366 -0.494753 0.618255 0.484721 -0.618714 
-0.307077 0.0504189 -0.950348 -0.296216 0.0978889 -0.950092 -0.264003 0.125676 -0.956299 
-0.329813 0.152293 -0.931681 -0.298362 0.141814 -0.943858 0.772396 0.375231 -0.512451 
0.749936 0.36114 -0.554233 0.406772 0.169893 -0.897593 -0.277772 -0.0512184 -0.959281 
-0.266542 0.0432125 -0.962854 -0.246463 0.0818983 -0.965686 -0.313106 0.072157 -0.946973 
-0.254501 0.0658599 -0.964827 0.800965 0.173635 -0.57298 0.661146 0.153399 -0.734408 
0.297802 0.0159142 -0.954495 -0.215917 -0.171219 -0.961283 -0.155988 -0.0587053 -0.986013 
-0.246817 0.0522331 -0.967654 -0.348366 0.0180668 -0.937185 -0.301461 0.0358545 -0.952804 
0.80186 -0.00640452 -0.597477 0.615477 -0.0231571 -0.787814 0.255207 -0.03406 -0.966286 
-0.0560915 -0.162807 -0.985062 -0.147382 -0.211063 -0.966297 -0.194668 -0.0568186 -0.979222 
-0.0459591 -0.126041 -0.99096 -0.155088 -0.090504 -0.983746 -0.345767 0.0185266 -0.938137 
-0.287414 0.00897745 -0.957764 0.74829 -0.219836 -0.625887 0.671118 -0.437345 -0.598607 
0.621729 -0.20494 -0.755945 0.273659 -0.163592 -0.947812 -0.103289 -0.136753 -0.985206 
-0.116225 -0.147707 -0.982178 -0.0248601 -0.189792 -0.98151 -0.120324 -0.00598262 -0.992717 
-0.194682 -0.0685716 -0.978467 -0.110246 -0.0954843 -0.989307 -0.336111 0.0190352 -0.94163 
-0.192021 -0.013108 -0.981303 0.665788 -0.445046 -0.598882 0.446698 -0.610745 -0.653797 
0.333707 -0.378363 -0.863413 0.0697904 -0.293058 -0.953544 -0.0856266 -0.235716 -0.968042 
-0.107726 -0.17876 -0.977977 -0.0106225 -0.190515 -0.981627 -0.0624835 -0.218722 -0.973785 
-0.143 -0.119764 -0.98245 -0.0987877 -0.0802805 -0.991865 -0.333857 -0.0714105 -0.939915 
-0.167461 -0.0736395 -0.983125 0.436434 -0.614295 -0.657394 0.25934 -0.659087 -0.705937 
0.200005 -0.524016 -0.827892 0.102369 -0.618917 -0.778757 0.0183203 -0.428493 -0.903359 
0.00438498 -0.554387 -0.832247 -0.0602732 -0.33129 -0.941602 -0.0493784 -0.490422 -0.870085 
-0.054442 -0.316842 -0.946914 -0.0393576 -0.474432 -0.879412 -0.0486102 -0.367315 -0.928825 
-0.0210276 -0.41849 -0.907978 -0.0494795 -0.288531 -0.956191 -0.0607597 -0.379671 -0.923124 
-0.0669319 -0.237002 -0.969201 -0.244425 -0.261352 -0.933783 -0.191744 -0.31935 -0.928035 
-0.185391 -0.251178 -0.950021 0.299391 0.450858 -0.840888 0.0551095 0.486253 -0.872078 
-0.177894 0.368685 -0.912373 0.348521 0.415841 -0.840006 0.396337 0.293148 -0.870047 
0.264047 0.355598 -0.896565 0.0239859 0.279406 -0.959873 -0.271352 0.234265 -0.933535 
-0.193288 0.235106 -0.952557 0.388597 0.247687 -0.887493 0.346706 0.197133 -0.917024 
0.166262 0.0691248 -0.983656 -0.0387171 0.0282612 -0.99885 -0.301956 0.0493453 -0.952044 
-0.219683 0.035849 -0.974912 0.343889 0.128253 -0.930211 0.161079 0.0176065 -0.986784 
0.0922868 -0.0953713 -0.991155 -0.00829377 -0.142473 -0.989764 -0.271022 -0.0514259 -0.961198 
-0.176373 -0.0603552 -0.982471 0.249708 0.00360843 -0.968314 0.100481 -0.0228663 -0.994676 
-0.00356747 -0.106154 -0.994343 -0.0405379 -0.173804 -0.983946 -0.00223335 -0.20076 -0.979638 
-0.177196 -0.161568 -0.970823 -0.14126 -0.19747 -0.970078 -0.123456 -0.150468 -0.980876 
0.221566 -0.0383072 -0.974393 0.0403342 -0.0648103 -0.997082 -0.0687978 -0.134093 -0.988578 
-0.0962823 -0.124222 -0.987572 -0.0833258 -0.0999902 -0.991493 0.059712 -0.141013 -0.988205 
0.00194373 -0.138906 -0.990304 0.0393513 -0.148559 -0.98812 0.0376848 -0.13892 -0.989586 

