# vtk DataFile Version 4.2
vtk output
ASCII
DATASET POLYDATA
POINTS 550 float
-20.4626 -39.889 -12.2832 -13.1086 -39.889 -12.5016 -5.75454 -39.889 -12.7654 
1.59951 -39.889 -13.0433 8.95356 -39.889 -13.2257 16.3076 -39.889 -12.8369 
-35.1707 -32.535 -13.1493 -27.8167 -32.535 -14.6417 -20.4626 -32.535 -14.5786 
-13.1086 -32.535 -15.3981 -5.75454 -32.535 -14.5585 1.59951 -32.535 -15.0666 
8.95356 -32.535 -15.5255 16.3076 -32.535 -15.3926 23.6617 -32.535 -14.381 
31.0157 -32.535 -12.6569 -42.5248 -25.1809 -13.3594 -35.1707 -25.1809 -14.6726 
-27.8167 -25.1809 -15.8568 -20.4626 -25.1809 -15.0641 -13.1086 -25.1809 -15.1334 
-5.75454 -25.1809 -14.8651 1.59951 -25.1809 -15.6587 8.95356 -25.1809 -16.1859 
16.3076 -25.1809 -16.3374 23.6617 -25.1809 -15.23 31.0157 -25.1809 -14.0222 
38.3698 -25.1809 -12.1276 -42.5248 -17.8269 -14.9284 -35.1707 -17.8269 -16.2197 
-27.8167 -17.8269 -15.8161 -20.4626 -17.8269 -15.1137 -13.1086 -17.8269 -14.2178 
-5.75454 -17.8269 -14.0712 1.59951 -17.8269 -15.0882 8.95356 -17.8269 -15.6645 
16.3076 -17.8269 -15.4997 23.6617 -17.8269 -15.4112 31.0157 -17.8269 -15.3408 
38.3698 -17.8269 -13.8986 -49.8788 -10.4728 -12.5579 -42.5248 -10.4728 -14.9616 
-35.1707 -10.4728 -16.0307 -27.8167 -10.4728 -16.2123 -20.4626 -10.4728 -15.1065 
-13.1086 -10.4728 -13.6449 -5.75454 -10.4728 -15.1164 1.59951 -10.4728 -17.0072 
8.95356 -10.4728 -15.9333 16.3076 -10.4728 -14.6372 23.6617 -10.4728 -15.0813 
31.0157 -10.4728 -15.0689 38.3698 -10.4728 -14.1056 45.7238 -10.4728 -11.5703 
-49.8788 -3.11879 -12.3923 -42.5248 -3.11879 -15.0071 -35.1707 -3.11879 -15.946 
-27.8167 -3.11879 -15.6989 -20.4626 -3.11879 -15.0465 -13.1086 -3.11879 -16.8845 
-5.75454 -3.11879 -18.3359 1.59951 -3.11879 -15.582 8.95356 -3.11879 -18.0995 
16.3076 -3.11879 -15.2796 23.6617 -3.11879 -15.4103 31.0157 -3.11879 -15.2794 
38.3698 -3.11879 -14.2224 45.7238 -3.11879 -11.8641 -49.8788 4.23526 -11.9593 
-42.5248 4.23526 -14.8429 -35.1707 4.23526 -15.9717 -27.8167 4.23526 -15.8849 
-20.4626 4.23526 -15.4341 -13.1086 4.23526 -16.4771 -5.75454 4.23526 -16.8307 
1.59951 4.23526 -15.2567 8.95356 4.23526 -17.283 16.3076 4.23526 -16.1217 
23.6617 4.23526 -15.5022 31.0157 4.23526 -14.8691 38.3698 4.23526 -13.6933 
-49.8788 11.5893 -11.6405 -42.5248 11.5893 -14.7038 -35.1707 11.5893 -16.195 
-27.8167 11.5893 -16.8021 -20.4626 11.5893 -16.271 -13.1086 11.5893 -15.4779 
-5.75454 11.5893 -17.0669 1.59951 11.5893 -17.8 8.95356 11.5893 -16.4135 
16.3076 11.5893 -15.6025 23.6617 11.5893 -14.9012 31.0157 11.5893 -14.1483 
38.3698 11.5893 -12.6568 -49.8788 18.9434 -11.6977 -42.5248 18.9434 -14.7164 
-35.1707 18.9434 -16.6165 -27.8167 18.9434 -16.7405 -20.4626 18.9434 -16.3327 
-13.1086 18.9434 -15.5939 -5.75454 18.9434 -14.8656 1.59951 18.9434 -14.5759 
8.95356 18.9434 -14.7311 16.3076 18.9434 -14.6343 23.6617 18.9434 -13.99 
31.0157 18.9434 -12.7588 -42.5248 26.2974 -12.2322 -35.1707 26.2974 -15.1863 
-27.8167 26.2974 -16.4266 -20.4626 26.2974 -15.7355 -13.1086 26.2974 -15.6247 
-5.75454 26.2974 -14.7167 1.59951 26.2974 -14.5109 8.95356 26.2974 -14.2658 
16.3076 26.2974 -13.744 23.6617 26.2974 -12.8191 -35.1707 33.6515 -11.6072 
-27.8167 33.6515 -13.7364 -20.4626 33.6515 -14.3421 -13.1086 33.6515 -14.9735 
-5.75454 33.6515 -14.5925 1.59951 33.6515 -14.0159 8.95356 33.6515 -13.3387 
16.3076 33.6515 -12.2863 -13.1086 41.0055 -12.4053 -5.75454 41.0055 -12.8012 
1.59951 41.0055 -12.405 -20.4626 -41.0182 -11.421 -13.1086 -41.7691 -11.421 
-5.75454 -42.0248 -11.421 1.59951 -42.3034 -11.421 8.95356 -42.6024 -11.421 
16.3076 -42.0466 -11.421 -35.1707 -36.0265 -11.421 -35.1707 -39.889 -7.09552 
-24.0294 -39.889 -11.421 -27.8167 -38.7708 -11.421 -27.8167 -39.889 -10.3696 
22.2541 -39.889 -11.421 23.6617 -39.1255 -11.421 23.6617 -39.889 -10.9602 
31.0157 -35.3285 -11.421 31.0157 -39.889 -8.51048 -41.7303 -32.535 -11.421 
-42.5248 -31.8173 -11.421 -42.5248 -32.535 -10.995 35.3119 -32.535 -11.421 
38.3698 -28.5687 -11.421 38.3698 -32.535 -10.1093 -46.4517 -25.1809 -11.421 
-49.8788 -25.1809 -8.25807 40.0984 -25.1809 -11.421 45.7238 -25.1809 -8.27015 
-48.9692 -17.8269 -11.421 -49.8788 -14.9583 -11.421 -49.8788 -17.8269 -10.6509 
43.8157 -17.8269 -11.421 45.7238 -11.3806 -11.421 45.7238 -17.8269 -10.322 
53.0779 -17.8269 -4.92028 -51.2717 -10.4728 -11.421 46.0055 -10.4728 -11.421 
53.0779 -10.4728 -6.89007 -51.3275 -3.11879 -11.421 -57.2329 -3.11879 -4.64241 
46.5979 -3.11879 -11.421 45.7238 3.04112 -11.421 53.0779 -3.11879 -7.80204 
-50.6542 4.23526 -11.421 45.4727 4.23526 -11.421 45.7238 4.23526 -11.3412 
53.0779 4.23526 -7.75035 -50.1546 11.5893 -11.421 41.6891 11.5893 -11.421 
38.3698 17.0209 -11.421 45.7238 11.5893 -9.82586 53.0779 11.5893 -5.51734 
-50.1954 18.9434 -11.421 -49.8788 19.5801 -11.421 36.5346 18.9434 -11.421 
31.0157 25.4465 -11.421 38.3698 18.9434 -10.9392 45.7238 18.9434 -7.90563 
-43.8088 26.2974 -11.421 -49.8788 26.2974 -4.47662 -42.5248 27.7683 -11.421 
30.1969 26.2974 -11.421 23.6617 32.4226 -11.421 31.0157 26.2974 -11.2318 
38.3698 26.2974 -9.33702 45.7238 26.2974 -5.05553 -35.5653 33.6515 -11.421 
-42.5248 33.6515 -4.96099 -35.1707 33.8897 -11.421 -27.8167 37.42 -11.421 
-20.4626 39.9958 -11.421 8.95356 39.8596 -11.421 21.8604 33.6515 -11.421 
16.3076 35.8309 -11.421 23.6617 33.6515 -11.0995 31.0157 33.6515 -8.02129 
38.3698 33.6515 -5.4218 -27.8167 41.0055 -7.44046 -18.2125 41.0055 -11.421 
-20.4626 41.0055 -10.8043 -13.1086 42.9851 -11.421 -5.75454 44.0434 -11.421 
7.14182 41.0055 -11.421 1.59951 43.3342 -11.421 8.95356 41.0055 -11.0303 
16.3076 41.0055 -9.0088 23.6617 41.0055 -6.76271 -13.1086 48.3596 -4.93168 
-5.75454 48.3596 -6.78674 1.59951 48.3596 -6.88919 8.95356 48.3596 -4.19827 
-35.1707 -41.0123 -4.06699 -27.8167 -44.1596 -4.06699 -20.4626 -45.7993 -4.06699 
-13.1086 -46.4596 -4.06699 -5.75454 -46.513 -4.06699 1.59951 -46.7328 -4.06699 
8.95356 -47.1834 -4.06699 16.3076 -46.9165 -4.06699 23.6617 -45.4884 -4.06699 
31.0157 -42.4864 -4.06699 -37.0702 -39.889 -4.06699 -42.5248 -35.9887 -4.06699 
-35.1707 -39.889 -0.628819 35.274 -39.889 -4.06699 38.3698 -37.2714 -4.06699 
-46.2962 -32.535 -4.06699 -49.8788 -28.1893 -4.06699 43.8117 -32.535 -4.06699 
45.7238 -30.3003 -4.06699 -51.9627 -25.1809 -4.06699 -49.8788 -25.1809 2.10687 
49.2573 -25.1809 -4.06699 53.0779 -19.0844 -4.06699 -55.0255 -17.8269 -4.06699 
53.6833 -17.8269 -4.06699 -56.4595 -10.4728 -4.06699 -57.2329 -5.17569 -4.06699 
55.3436 -10.4728 -4.06699 -57.5076 -3.11879 -4.06699 -57.2329 1.88404 -4.06699 
-57.2329 -3.11879 -2.19042 56.2342 -3.11879 -4.06699 -57.0807 4.23526 -4.06699 
56.411 4.23526 -4.06699 -55.9467 11.5893 -4.06699 54.4326 11.5893 -4.06699 
53.0779 15.3728 -4.06699 -53.8917 18.9434 -4.06699 50.93 18.9434 -4.06699 
53.0779 18.9434 -1.11255 -50.0932 26.2974 -4.06699 -49.8788 26.5804 -4.06699 
-49.8788 26.2974 -3.09087 46.8172 26.2974 -4.06699 45.7238 27.5781 -4.06699 
-43.066 33.6515 -4.06699 -42.5248 34.0743 -4.06699 -42.5248 33.6515 -2.46426 
-35.1707 39.0715 -4.06699 31.0157 40.1739 -4.06699 39.983 33.6515 -4.06699 
38.3698 35.0666 -4.06699 -31.6869 41.0055 -4.06699 -27.8167 43.1175 -4.06699 
-20.4626 46.3416 -4.06699 16.3076 46.1715 -4.06699 29.4982 41.0055 -4.06699 
23.6617 43.2547 -4.06699 31.0157 41.0055 -1.94758 -14.3273 48.3596 -4.06699 
-13.1086 48.7175 -4.06699 -13.1086 48.3596 -1.92758 -5.75454 49.5578 -4.06699 
1.59951 49.7426 -4.06699 9.24175 48.3596 -4.06699 8.95356 48.4296 -4.06699 
8.95356 48.3596 -2.52055 -27.8167 -41.7668 3.28706 -20.4626 -43.0348 3.28706 
-13.1086 -44.1932 3.28706 -5.75454 -44.9978 3.28706 1.59951 -45.4752 3.28706 
8.95356 -46.0981 3.28706 16.3076 -45.9054 3.28706 23.6617 -44.649 3.28706 
31.0157 -41.9206 3.28706 -42.5248 -33.0483 3.28706 -32.1215 -39.889 3.28706 
-35.1707 -37.8824 3.28706 -27.8167 -39.889 5.36172 -20.4626 -39.889 6.85124 
-13.1086 -39.889 7.62737 -5.75454 -39.889 8.88782 1.59951 -39.889 9.60642 
8.95356 -39.889 10.3911 16.3076 -39.889 10.1437 23.6617 -39.889 8.73501 
34.8391 -39.889 3.28706 31.0157 -39.889 7.03059 38.3698 -37.8252 3.28706 
-43.0931 -32.535 3.28706 -42.5248 -32.535 3.79766 -35.1707 -32.535 7.87271 
-27.8167 -32.535 9.8137 44.9755 -32.535 3.28706 38.3698 -32.535 9.75176 
45.7238 -31.8007 3.28706 -49.2742 -25.1809 3.28706 -49.8788 -24.4394 3.28706 
-42.5248 -25.1809 8.93456 51.0592 -25.1809 3.28706 45.7238 -25.1809 10.2109 
53.0779 -21.3779 3.28706 -53.206 -17.8269 3.28706 -49.8788 -17.8269 7.25199 
54.7897 -17.8269 3.28706 53.0779 -17.8269 7.07387 -55.2208 -10.4728 3.28706 
-49.8788 -10.4728 10.0882 56.8561 -10.4728 3.28706 -56.2547 -3.11879 3.28706 
-49.8788 -3.11879 10.0961 58.1511 -3.11879 3.28706 -56.2901 4.23526 3.28706 
-49.8788 4.23526 10.4272 58.2699 4.23526 3.28706 -55.2612 11.5893 3.28706 
57.2365 11.5893 3.28706 -53.094 18.9434 3.28706 -49.8788 24.2545 3.28706 
-49.8788 18.9434 7.69357 54.9783 18.9434 3.28706 53.0779 22.3452 3.28706 
53.0779 18.9434 10.0717 -48.0919 26.2974 3.28706 -42.5248 31.7451 3.28706 
-42.5248 26.2974 9.22039 50.5939 26.2974 3.28706 45.7238 31.6771 3.28706 
-40.3934 33.6515 3.28706 -35.1707 37.2144 3.28706 -35.1707 33.6515 7.44132 
-27.8167 33.6515 9.65949 43.5923 33.6515 3.28706 38.3698 37.7873 3.28706 
-28.3944 41.0055 3.28706 -27.8167 41.3325 3.28706 -27.8167 41.0055 3.69672 
-20.4626 44.4048 3.28706 -20.4626 41.0055 7.71334 -13.1086 47.2589 3.28706 
-13.1086 41.0055 9.54451 8.95356 48.0447 3.28706 16.3076 46.8982 3.28706 
16.3076 41.0055 10.4642 23.6617 45.4121 3.28706 23.6617 41.0055 9.20102 
33.0864 41.0055 3.28706 31.0157 42.1544 3.28706 31.0157 41.0055 6.00937 
-7.98825 48.3596 3.28706 -5.75454 48.7406 3.28706 -5.75454 48.3596 3.8956 
6.15411 48.3596 3.28706 1.59951 48.7918 3.28706 1.59951 48.3596 4.01104 
-20.4626 -34.0655 10.6411 -13.1086 -35.0463 10.6411 -5.75454 -36.9497 10.6411 
1.59951 -38.3258 10.6411 8.95356 -39.4978 10.6411 16.3076 -39.1284 10.6411 
23.6617 -37.798 10.6411 31.0157 -36.0912 10.6411 -35.1707 -26.9851 10.6411 
-23.9513 -32.535 10.6411 -27.8167 -30.6712 10.6411 -20.4626 -32.535 11.3302 
[...]
POINT_DATA 550
SCALARS ImageScalars float
LOOKUP_TABLE default
0 0 0 0 0 0 0 0 0 
0 0 0 0 0 0 0 0 0 
0 0 0 0 0 0 0 0 0 
0 0 0 0 0 0 0 0 0 
0 0 0 0 0 0 0 0 0 
0 0 0 0 0 0 0 0 0 
0 0 0 0 0 0 0 0 0 
0 0 0 0 0 0 0 0 0 
0 0 0 0 0 0 0 0 0 
0 0 0 0 0 0 0 0 0 
0 0 0 0 0 0 0 0 0 
0 0 0 0 0 0 0 0 0 
0 0 0 0 0 0 0 0 0 
0 0 0 0 0 0 0 0 0 
0 0 0 0 0 0 0 0 0 
0 0 0 0 0 0 0 0 0 
0 0 0 0 0 0 0 0 0 
0 0 0 0 0 0 0 0 0 
0 0 0 0 0 0 0 0 0 
0 0 0 0 0 0 0 0 0 
0 0 0 0 0 0 0 0 0 
0 0 0 0 0 0 0 0 0 
0 0 0 0 0 0 0 0 0 
0 0 0 0 0 0 0 0 0 
0 0 0 0 0 0 0 0 0 
0 0 0 0 0 0 0 0 0 
0 0 0 0 0 0 0 0 0 
0 0 0 0 0 0 0 0 0 
0 0 0 0 0 0 0 0 0 
0 0 0 0 0 0 0 0 0 
0 0 0 0 0 0 0 0 0 
0 0 0 0 0 0 0 0 0 
0 0 0 0 0 0 0 0 0 
0 0 0 0 0 0 0 0 0 
0 0 0 0 0 0 0 0 0 
0 0 0 0 0 0 0 0 0 
0 0 0 0 0 0 0 0 0 
0 0 0 0 0 0 0 0 0 
0 0 0 0 0 0 0 0 0 
0 0 0 0 0 0 0 0 0 
0 0 0 0 0 0 0 0 0 
0 0 0 0 0 0 0 0 0 
0 0 0 0 0 0 0 0 0 
0 0 0 0 0 0 0 0 0 
0 0 0 0 0 0 0 0 0 
0 0 0 0 0 0 0 0 0 
0 0 0 0 0 0 0 0 0 
0 0 0 0 0 0 0 0 0 
0 0 0 0 0 0 0 0 0 
0 0 0 0 0 0 0 0 0 
0 0 0 0 0 0 0 0 0 
0 0 0 0 0 0 0 0 0 
0 0 0 0 0 0 0 0 0 
0 0 0 0 0 0 0 0 0 
0 0 0 0 0 0 0 0 0 
0 0 0 0 0 0 0 0 0 
0 0 0 0 0 0 0 0 0 
0 0 0 0 0 0 0 0 0 
0 0 0 0 0 0 0 0 0 
0 0 0 0 0 0 0 0 0 
0 0 0 0 0 0 0 0 0 
0 
NORMALS Normals float
0.121622 0.500316 0.857258 0.029173 0.46609 0.884256 0.0373284 0.434246 0.900021 
0.0327844 0.457519 0.888595 -0.0136297 0.469169 0.883003 -0.122687 0.490862 0.862556 
0.266423 0.337779 0.902731 0.0709431 0.27956 0.957504 0.0491822 0.154315 0.986797 
-0.00429136 0.179056 0.98383 -0.0198527 0.140986 0.989813 0.065507 0.170362 0.983202 
0.0203449 0.195768 0.980439 -0.0699139 0.220334 0.972916 -0.168014 0.236884 0.9569 
-0.262187 0.302998 0.916215 0.337567 0.297816 0.892947 0.145952 0.180286 0.972725 
0.0241411 0.0957744 0.99511 -0.0468639 0.0338965 0.998326 -0.0134965 -0.0787705 0.996801 
0.0339153 -0.0331168 0.998876 0.0910083 -0.000333447 0.99585 0.0446833 0.00825328 0.998967 
-0.0654675 0.00971665 0.997807 -0.15004 0.0638591 0.986615 -0.186605 0.156452 0.969898 
-0.312762 0.235335 0.920216 0.292882 0.0805469 0.95275 0.0744323 0.0915334 0.993016 
-0.0690309 0.0242302 0.99732 -0.11357 0.00301997 0.993525 -0.0644584 -0.10024 0.992873 
0.0595996 -0.00406406 0.998214 0.110152 0.0677756 0.991601 0.0278723 -0.0203294 0.999405 
-0.0170874 -0.114022 0.993331 -0.0106176 -0.0102246 0.999891 -0.110225 0.0670811 0.99164 
-0.290179 0.10961 0.950674 0.538365 0.100289 0.836723 0.199222 0.00554593 0.979939 
0.0799882 -0.0176805 0.996639 -0.0634232 -0.00807353 0.997954 -0.171879 -0.00446691 0.985108 
-0.0304237 0.120502 0.992247 0.241394 0.265979 0.933265 0.0335838 0.0743105 0.996669 
-0.162568 0.147319 0.975638 -0.0434993 -0.0154432 0.998934 0.0293284 2.14637e-05 0.99957 
-0.064632 -0.00340985 0.997903 -0.215851 0.022649 0.976164 -0.405844 0.0909232 0.909408 
0.488494 -0.0353965 0.871849 0.207226 -0.00774546 0.978262 0.0445008 -0.00401238 0.999001 
-0.0610056 -0.0222125 0.99789 0.0425671 0.0216203 0.99886 0.228497 0.229189 0.946183 
-0.0675479 0.0769134 0.994747 0.00434669 -0.1343 0.990931 -0.0866254 0.0784069 0.993151 
-0.143162 0.102783 0.984348 -7.12102e-05 0.0285885 0.999591 -0.0783235 -0.0133164 0.996839 
-0.21754 -0.0269836 0.975678 -0.379668 -0.0145807 0.925008 0.511768 -0.0445458 0.857968 
0.233753 -0.0195665 0.972099 0.0675835 0.0168733 0.997571 -0.0356717 0.0745802 0.996577 
0.034122 0.0795869 0.996244 0.0978298 -0.094429 0.990713 -0.0585842 -0.063457 0.996264 
0.056389 0.173296 0.983254 0.0176039 -0.099576 0.994874 -0.121796 0.0218693 0.992314 
-0.0842434 -0.0342383 0.995857 -0.119527 -0.0777281 0.989784 -0.221509 -0.102114 0.969797 
0.559234 -0.0149757 0.828875 0.267851 -0.00830267 0.963425 0.133831 0.0411392 0.99015 
0.00786315 0.0587021 0.998245 -0.0927282 0.061665 0.99378 0.0459169 -0.0544252 0.997462 
0.162516 -0.144529 0.976063 -0.0466584 -0.103448 0.99354 -0.141428 -0.179076 0.973617 
-0.0988768 -0.10051 0.990011 -0.0986987 -0.101088 0.98997 -0.147099 -0.136635 0.979639 
-0.275102 -0.168595 0.946517 0.640319 -0.210196 0.738789 0.317662 -0.124414 0.940006 
0.152206 -0.0789954 0.985187 -0.0200029 -0.023973 0.999512 -0.0742909 -0.0360377 0.996585 
-0.10229 0.0102237 0.994702 -0.0659849 -0.143404 0.987462 -0.0093298 -0.202836 0.979168 
0.00387752 -0.137005 0.990563 -0.049674 -0.12494 0.99092 -0.12163 -0.135644 0.983263 
-0.187764 -0.192552 0.963156 0.47549 -0.405736 0.780569 0.226564 -0.268673 0.936207 
0.0428545 -0.203847 0.978064 -0.0509343 -0.127803 0.990491 -0.0696734 -0.0389309 0.99681 
-0.0756973 -0.0190344 0.996949 -0.029654 -0.0378702 0.998843 -0.0528975 -0.0918998 0.994362 
-0.093389 -0.151671 0.984009 -0.169007 -0.178725 0.969275 0.342895 -0.585238 0.734793 
0.144079 -0.426776 0.892806 0.0835235 -0.276252 0.957449 0.0118139 -0.21667 0.976173 
-0.0626912 -0.132368 0.989216 -0.0848415 -0.148923 0.985202 -0.118619 -0.194797 0.973644 
-0.13313 -0.274795 0.952242 0.107393 -0.406437 0.907346 -0.00176146 -0.365721 0.930723 
-0.107539 -0.33893 0.934645 0.141037 0.56941 0.809865 0.0411227 0.565896 0.823451 
0.0236051 0.572934 0.819262 0.0270323 0.603958 0.796558 -0.0110053 0.623109 0.782058 
-0.140515 0.603594 0.784812 0.322553 0.510231 0.79726 0.447546 0.842666 0.299361 
0.148283 0.581226 0.800118 0.147998 0.592902 0.791558 0.187211 0.697218 0.691982 
-0.204132 0.55616 0.805616 -0.219901 0.535893 0.815145 -0.227267 0.590544 0.774343 
-0.301557 0.420543 0.855691 -0.41419 0.699295 0.582609 0.450039 0.483621 0.750716 
0.45527 0.481238 0.749092 0.486768 0.519432 0.702316 -0.378962 0.382626 0.842606 
-0.381408 0.328714 0.863988 -0.488124 0.475779 0.73169 0.494258 0.32662 0.805623 
0.765266 0.442258 0.467735 -0.369389 0.25952 0.892301 -0.630763 0.386979 0.672596 
0.589687 0.149269 0.793718 0.596104 0.134339 0.791589 0.659365 0.17135 0.732037 
-0.439259 0.139795 0.887417 -0.416185 0.0974803 0.904039 -0.50926 0.168862 0.843884 
-0.819687 0.342702 0.458986 0.600637 0.10772 0.792232 -0.414288 0.0914952 0.905535 
-0.756471 0.147311 0.637221 0.550834 -0.0251407 0.834236 0.974902 0.039146 0.219164 
-0.407036 -0.011477 0.91334 -0.365627 -0.106935 0.924598 -0.701395 0.042873 0.711483 
0.543477 -0.0499616 0.837936 -0.357789 -0.123976 0.925536 -0.363408 -0.125222 0.923176 
-0.665923 -0.128997 0.734783 0.571852 -0.0182453 0.820154 -0.342161 -0.170606 0.924024 
-0.278602 -0.186623 0.9421 -0.424637 -0.192359 0.884693 -0.690156 -0.295235 0.660698 
0.662137 -0.212384 0.718657 0.650062 -0.232608 0.723404 -0.254779 -0.192293 0.947687 
-0.190731 -0.275516 0.942185 -0.285811 -0.19918 0.937358 -0.481068 -0.293459 0.826108 
0.516132 -0.432117 0.739515 0.809184 -0.566382 0.156309 0.493192 -0.458065 0.739552 
-0.187855 -0.276101 0.942592 -0.257632 -0.290342 0.92159 -0.193668 -0.288913 0.937562 
-0.377901 -0.330594 0.864811 -0.574335 -0.471592 0.669134 0.353936 -0.590584 0.725217 
0.616481 -0.772687 0.151347 0.347369 -0.594409 0.725268 0.223116 -0.575046 0.787109 
0.216326 -0.529622 0.820185 -0.202898 -0.37907 0.90285 -0.240093 -0.303997 0.921923 
-0.15154 -0.339366 0.928367 -0.280542 -0.32035 0.904805 -0.337641 -0.435999 0.834208 
-0.507307 -0.585313 0.632494 0.382695 -0.822853 0.420069 0.206167 -0.514863 0.832112 
0.256933 -0.599019 0.758394 0.146864 -0.500019 0.853471 0.014527 -0.529667 0.848081 
-0.193979 -0.393377 0.898681 -0.125329 -0.462142 0.877905 -0.218207 -0.427543 0.877264 
-0.235222 -0.578966 0.780685 -0.316749 -0.681713 0.659498 0.212174 -0.957272 0.196502 
0.06088 -0.91375 0.40169 -0.105774 -0.889518 0.444488 -0.22088 -0.939286 0.262591 
0.461835 0.886754 0.019404 0.317828 0.945139 0.0754858 0.155779 0.986893 0.0421217 
0.0489724 0.996622 0.0659328 0.018385 0.993658 0.110933 0.0440512 0.991601 0.121603 
0.0131812 0.990129 0.13954 -0.10261 0.983009 0.1522 -0.29175 0.931484 0.217302 
-0.454048 0.864095 0.217208 0.513555 0.857857 0.0184802 0.653307 0.756636 0.026325 
0.48813 0.83999 -0.23695 -0.539019 0.802002 0.257393 -0.597159 0.742776 0.302794 
0.723658 0.689303 0.034353 0.813729 0.578781 0.0534527 -0.682753 0.632665 0.36549 
-0.717062 0.574974 0.393989 0.864154 0.498586 0.0681939 0.72026 0.542108 -0.432833 
-0.768204 0.481953 0.421406 -0.830679 0.371484 0.414695 0.949189 0.278161 0.1472 
-0.846154 0.341923 0.408794 0.973793 0.160194 0.161447 0.982719 0.0765212 0.168545 
-0.869493 0.172658 0.462787 0.983818 0.0416798 0.174255 0.978462 -0.0570789 0.198381 
0.998371 0.0470835 0.0322398 -0.865845 0.0672091 0.495777 0.971834 -0.102808 0.212059 
-0.847761 -0.108667 0.519127 0.955516 -0.202997 0.213965 -0.76673 -0.288675 0.573404 
-0.710488 -0.358043 0.605815 0.923102 -0.342422 0.175016 -0.650207 -0.391427 0.651164 
-0.808335 -0.433018 0.39886 0.815739 -0.564479 0.126227 0.810359 -0.572378 0.125305 
0.814183 -0.577724 0.0577995 -0.6092 -0.488575 0.624636 -0.601773 -0.499613 0.623101 
0.627893 -0.773586 0.0855328 0.617355 -0.782241 0.0834947 0.62335 -0.781553 -0.0247068 
0.512297 -0.852867 0.100843 -0.450836 -0.723358 0.522973 -0.553487 -0.599214 0.578441 
-0.528964 -0.629586 0.569051 0.475189 -0.872178 0.116193 0.44115 -0.885362 0.146697 
0.359976 -0.920729 0.150585 -0.292934 -0.872785 0.39043 -0.438493 -0.747854 0.498435 
-0.356512 -0.794052 0.492321 -0.474792 -0.819331 0.321355 0.235298 -0.963736 0.125888 
0.208698 -0.96981 0.126151 0.225882 -0.973763 -0.0276132 0.074229 -0.982041 0.173453 
-0.0842604 -0.977147 0.195153 -0.221988 -0.940829 0.256051 -0.219533 -0.942355 0.252531 
-0.204263 -0.969318 0.136746 0.275174 0.792951 -0.543606 0.151479 0.814534 -0.55999 
0.110191 0.846934 -0.520154 0.0747477 0.894782 -0.440202 0.0659981 0.91291 -0.40279 
0.0258134 0.929292 -0.368443 -0.0838164 0.925026 -0.370542 -0.254441 0.894913 -0.366593 
-0.389326 0.876708 -0.282505 0.550817 0.632602 -0.54444 0.381366 0.745255 -0.546951 
0.446333 0.704062 -0.552343 0.262262 0.691015 -0.673586 0.130412 0.678215 -0.723199 
0.104744 0.650608 -0.752156 0.1083 0.619157 -0.777763 0.0794873 0.623702 -0.77761 
0.0280894 0.580841 -0.813533 -0.0852601 0.619308 -0.780505 -0.136443 0.712352 -0.688431 
-0.450917 0.852719 -0.263712 -0.334167 0.788419 -0.516457 -0.520172 0.818645 -0.243397 
0.568192 0.622627 -0.538047 0.539743 0.619001 -0.570539 0.337065 0.541024 -0.770507 
0.187148 0.45255 -0.871879 -0.695362 0.692524 -0.192045 -0.408968 0.613493 -0.675552 
-0.714424 0.67474 -0.185268 0.668459 0.527784 -0.524029 0.686627 0.511205 -0.516926 
0.459453 0.429048 -0.777702 -0.835789 0.526771 -0.154818 -0.569776 0.429991 -0.700331 
-0.886034 0.44148 -0.14156 0.826166 0.313373 -0.468239 0.658227 0.33666 -0.673348 
-0.919257 0.369373 -0.136124 -0.83152 0.374397 -0.410368 0.893945 0.192312 -0.404819 
0.620298 0.149374 -0.770012 -0.968281 0.223308 -0.112098 0.914539 0.0608961 -0.399887 
0.647249 0.0175596 -0.762076 -0.990686 0.0963083 -0.0962644 0.932011 -0.0623049 -0.357033 
0.613481 0.0532474 -0.787912 -0.993768 -0.0619112 -0.0926935 0.921779 -0.204112 -0.329639 
-0.977315 -0.210897 0.0194477 0.849335 -0.385875 -0.360182 0.743541 -0.536275 -0.399445 
0.667703 -0.403298 -0.625718 -0.910781 -0.408665 0.0589101 -0.870214 -0.487486 0.0713021 
-0.761841 -0.377342 -0.526508 0.691433 -0.59044 -0.416294 0.578008 -0.691094 -0.43393 
0.461143 -0.50932 -0.726595 -0.799655 -0.596318 0.0704119 -0.701607 -0.710398 0.0555179 
0.538885 -0.716904 -0.442326 0.461128 -0.770622 -0.43989 0.385134 -0.625085 -0.678926 
0.284892 -0.520191 -0.805132 -0.668574 -0.742751 0.0364594 -0.573886 -0.818865 -0.0107005 
0.418887 -0.784262 -0.457676 0.41486 -0.785429 -0.459338 0.413181 -0.77248 -0.48224 
0.35131 -0.826597 -0.43968 0.295772 -0.688828 -0.661843 0.242254 -0.872864 -0.423582 
0.15024 -0.597349 -0.787783 -0.117873 -0.939704 -0.321034 -0.169423 -0.955134 -0.24293 
-0.0907517 -0.629358 -0.771798 -0.301168 -0.939791 -0.161527 -0.156479 -0.751065 -0.641417 
-0.476 -0.876573 -0.071021 -0.445703 -0.89055 -0.0909392 -0.405046 -0.868494 -0.285755 
0.137188 -0.911458 -0.387844 0.0900936 -0.921645 -0.377431 0.0923338 -0.905504 -0.414171 
-0.090813 -0.9368 -0.337874 -0.0449921 -0.928546 -0.368481 -0.0423815 -0.910865 -0.410523 
0.132953 0.432754 -0.891654 0.0873111 0.457969 -0.88467 0.110642 0.488063 -0.865767 
0.0814598 0.540443 -0.837428 0.0277657 0.558116 -0.829298 -0.0739229 0.577297 -0.813181 
-0.10091 0.597532 -0.79547 -0.269472 0.560323 -0.783213 0.242962 0.372277 -0.895756 
0.153548 0.413272 -0.897569 0.174359 0.415537 -0.892708 0.130322 0.386895 -0.912868 
0.0935662 0.388133 -0.916841 0.106831 0.363134 -0.925592 0.0727511 0.329205 -0.941452 
0.031806 0.292262 -0.955809 -0.00361744 0.321434 -0.946925 -0.099361 0.373116 -0.922449 
-0.353167 0.548491 -0.757912 -0.23264 0.43963 -0.867528 -0.375789 0.549718 -0.746052 
0.295679 0.362298 -0.88392 0.406928 0.330627 -0.851525 0.224975 0.33624 -0.91451 
0.157734 0.336204 -0.928486 0.0882867 0.28423 -0.954683 0.069636 0.251812 -0.965267 
0.0596853 0.20261 -0.977439 0.0277702 0.143505 -0.98926 0.032891 0.107868 -0.993621 
0.0319215 0.152276 -0.987822 -0.000349272 0.208107 -0.978106 -0.120442 0.287339 -0.950226 
-0.535879 0.413012 -0.73638 -0.303135 0.31678 -0.898754 -0.544205 0.404933 -0.734758 
0.437919 0.289243 -0.851214 0.392053 0.273793 -0.878255 0.218602 0.271645 -0.937242 
0.117809 0.246207 -0.962031 0.0361031 0.190779 -0.980969 0.0207387 0.13019 -0.991272 
-0.00252531 0.115466 -0.993308 -0.0297863 0.105695 -0.993952 0.0452799 0.0296303 -0.998535 
0.0941337 0.0512678 -0.994239 0.0277264 0.0961094 -0.994985 -0.0730035 0.118425 -0.990276 
-0.196625 0.178723 -0.964052 -0.618215 0.332083 -0.712412 -0.4517 0.265716 -0.851682 
-0.696055 0.140738 -0.70406 0.577692 0.156748 -0.801063 0.344417 0.190061 -0.919377 
0.212089 0.165379 -0.963155 0.0715038 0.128538 -0.989123 -0.0246551 0.0872977 -0.995877 
-0.0059422 0.00887857 -0.999943 0.0352258 0.0642351 -0.997313 -0.0618787 0.0835806 -0.994578 
-0.0217882 0.0911063 -0.995603 0.103445 -0.0288566 -0.994217 0.0692637 -0.0254021 -0.997275 
-0.0361686 0.02877 -0.998931 -0.207951 0.0615957 -0.976198 -0.354483 0.11742 -0.927661 
-0.699277 0.121279 -0.704488 -0.688078 0.119543 -0.715722 0.614227 0.0171785 -0.788943 
0.34918 0.0713286 -0.934337 0.176589 0.0699003 -0.9818 0.0353148 0.0435351 -0.998428 
-0.0891916 0.0232854 -0.995742 -0.00853635 0.000940954 -0.999963 0.0758286 0.0592785 -0.995357 
-0.000345045 -0.0835806 -0.996501 -0.0658161 0.113522 -0.991353 -0.0234311 -0.036004 -0.999077 
0.0810537 -0.0494317 -0.995483 0.0103581 -0.0378679 -0.999229 -0.125305 0.029697 -0.991674 
-0.298124 0.0753834 -0.951546 -0.70055 0.0306597 -0.712944 -0.687515 0.0307907 -0.725517 
0.597522 0.0515146 -0.800196 0.614902 0.000193435 -0.788603 0.362705 -0.0352446 -0.931237 
0.174959 -0.0262075 -0.984227 0.0257609 -0.0283887 -0.999265 -0.0666056 -0.0230457 -0.997513 
0.0253532 0.0404843 -0.998858 -0.0471335 -0.0181342 -0.998724 -0.00512834 -0.0302179 -0.99953 
0.0212897 -0.00538473 -0.999759 -0.0577332 0.0401592 -0.997524 0.072882 0.0382355 -0.996607 
0.0418835 0.0272945 -0.99875 -0.098647 0.058307 -0.993413 -0.286514 -0.00405715 -0.958067 
-0.728708 0.0780572 -0.680362 -0.689122 0.0800767 -0.720208 0.640782 -0.127698 -0.757028 
0.621589 -0.167246 -0.765282 0.617574 -0.126388 -0.776291 0.329819 -0.139245 -0.933719 
0.173392 -0.136163 -0.975395 0.0392074 -0.111365 -0.993006 -0.020807 -0.0769769 -0.996816 
0.00558537 -0.000331498 -0.999984 -0.00373067 -0.0366961 -0.999319 0.0103473 0.0827143 -0.99652 
0.00974364 -0.0295566 -0.999516 0.0163377 0.0628114 -0.997892 0.0699777 0.0348262 -0.99694 
0.0331575 -0.00328831 -0.999445 -0.172142 -0.0281472 -0.98467 -0.320862 -0.0245889 -0.946807 
-0.784573 -0.0751464 -0.615466 -0.738934 -0.340663 -0.581313 -0.660525 -0.061817 -0.748255 
0.461178 -0.343842 -0.817977 0.411742 -0.412545 -0.812573 0.38638 -0.311501 -0.868146 
0.211581 -0.282165 -0.935744 0.0944879 -0.22927 -0.968766 0.0476409 -0.143352 -0.988524 
0.0672156 -0.0550537 -0.996218 0.0357312 -0.0333987 -0.998803 0.002809 -0.0135637 -0.999904 
0.00117079 -0.0451402 -0.99898 0.00520477 -0.00978278 -0.999939 0.00613624 -0.0650566 -0.997863 
-0.0228499 -0.081841 -0.996383 -0.0895223 -0.211826 -0.973199 -0.729103 -0.364483 -0.579277 
-0.440327 -0.204244 -0.874298 0.326544 -0.446321 -0.833167 0.260213 -0.446032 -0.856356 
0.238708 -0.414945 -0.877974 0.260496 -0.467542 -0.844717 0.181454 -0.353446 -0.917688 
0.151487 -0.230116 -0.9613 0.116493 -0.185794 -0.975659 0.0375443 -0.166944 -0.985251 
-0.000314913 -0.155656 -0.987811 0.0128433 -0.160629 -0.986931 -0.00436591 -0.14643 -0.989211 
-0.00798279 -0.172197 -0.98503 -0.119068 -0.283066 -0.951681 -0.225259 -0.281626 -0.932709 
-0.638296 -0.505343 -0.580696 -0.590415 -0.557356 -0.583751 -0.514657 -0.481121 -0.709683 
0.262065 -0.461951 -0.847303 0.246061 -0.50104 -0.829707 0.216971 -0.375089 -0.901239 
0.13193 -0.520264 -0.843753 0.132807 -0.358529 -0.924024 0.0678048 -0.340434 -0.93782 
0.00810342 -0.320831 -0.947102 0.00312395 -0.326815 -0.945083 -0.0854694 -0.613357 -0.785168 
0.00153539 -0.342639 -0.939466 -0.11264 -0.644917 -0.755907 -0.0980872 -0.353423 -0.930307 
-0.250666 -0.633115 -0.732347 -0.167222 -0.44636 -0.87909 -0.462659 -0.662488 -0.589115 
-0.407761 -0.687475 -0.600924 -0.384677 -0.631936 -0.672816 0.0926669 -0.529907 -0.842978 
0.0885645 -0.530618 -0.842972 0.0874266 -0.52517 -0.846495 0.00562409 -0.54894 -0.835843 
0.00853423 -0.522612 -0.852528 -0.0703977 -0.597578 -0.798715 -0.0404231 -0.567524 -0.822364 
-0.0364192 -0.555455 -0.830749 
