# vtk DataFile Version 4.2
vtk output
ASCII
DATASET POLYDATA
POINTS 578 float
-28.2916 -39.2084 -14.7919 -20.0531 -39.2084 -16.3397 -11.8146 -39.2084 -16.9984 
-3.57605 -39.2084 -17.1355 4.66249 -39.2084 -16.8018 12.901 -39.2084 -16.2285 
21.1395 -39.2084 -15.336 -44.7687 -30.9698 -14.7187 -36.5302 -30.9698 -16.7846 
-28.2916 -30.9698 -18.2448 -20.0531 -30.9698 -18.7609 -11.8146 -30.9698 -18.9331 
-3.57605 -30.9698 -19.1697 4.66249 -30.9698 -19.0783 12.901 -30.9698 -19.0865 
21.1395 -30.9698 -18.969 29.3781 -30.9698 -17.9111 37.6166 -30.9698 -16.2251 
-53.0072 -22.7313 -14.431 -44.7687 -22.7313 -17.5915 -36.5302 -22.7313 -18.832 
-28.2916 -22.7313 -19.7412 -20.0531 -22.7313 -19.092 -11.8146 -22.7313 -18.9008 
-3.57605 -22.7313 -19.1212 4.66249 -22.7313 -19.0864 12.901 -22.7313 -19.0734 
21.1395 -22.7313 -19.3964 29.3781 -22.7313 -19.766 37.6166 -22.7313 -19.0645 
45.8551 -22.7313 -17.6154 54.0937 -22.7313 -14.4284 -53.0072 -14.4928 -16.7017 
-44.7687 -14.4928 -19.4379 -36.5302 -14.4928 -19.7782 -28.2916 -14.4928 -19.3237 
-20.0531 -14.4928 -18.2476 -11.8146 -14.4928 -17.7291 -3.57605 -14.4928 -18.168 
4.66249 -14.4928 -17.7822 12.901 -14.4928 -17.9739 21.1395 -14.4928 -18.8254 
29.3781 -14.4928 -19.7829 37.6166 -14.4928 -20.2101 45.8551 -14.4928 -20.0944 
54.0937 -14.4928 -17.5375 -53.0072 -6.25425 -17.393 -44.7687 -6.25425 -19.6879 
-36.5302 -6.25425 -19.5774 -28.2916 -6.25425 -18.9623 -20.0531 -6.25425 -17.3622 
-11.8146 -6.25425 -18.0065 -3.57605 -6.25425 -19.8302 4.66249 -6.25425 -19.2524 
12.901 -6.25425 -18.7487 21.1395 -6.25425 -18.6593 29.3781 -6.25425 -19.9462 
37.6166 -6.25425 -20.6285 45.8551 -6.25425 -20.2989 54.0937 -6.25425 -18.8613 
62.3322 -6.25425 -14.8383 -53.0072 1.98428 -17.2194 -44.7687 1.98428 -19.1104 
-36.5302 1.98428 -19.0883 -28.2916 1.98428 -18.4485 -20.0531 1.98428 -17.2194 
-11.8146 1.98428 -18.3816 -3.57605 1.98428 -16.0273 4.66249 1.98428 -19.0432 
12.901 1.98428 -20.8878 21.1395 1.98428 -18.2406 29.3781 1.98428 -19.6678 
37.6166 1.98428 -20.4782 45.8551 1.98428 -20.0148 54.0937 1.98428 -18.3387 
62.3322 1.98428 -14.6901 -53.0072 10.2228 -16.4978 -44.7687 10.2228 -18.3665 
-36.5302 10.2228 -18.5939 -28.2916 10.2228 -18.308 -20.0531 10.2228 -18.0448 
-11.8146 10.2228 -17.8943 -3.57605 10.2228 -17.4771 4.66249 10.2228 -19.2819 
12.901 10.2228 -17.9059 21.1395 10.2228 -17.8594 29.3781 10.2228 -18.9491 
37.6166 10.2228 -19.5911 45.8551 10.2228 -19.5397 54.0937 10.2228 -17.7772 
-53.0072 18.4613 -14.6557 -44.7687 18.4613 -16.6169 -36.5302 18.4613 -18.0025 
-28.2916 18.4613 -18.2018 -20.0531 18.4613 -17.6106 -11.8146 18.4613 -16.5623 
-3.57605 18.4613 -15.8548 4.66249 18.4613 -16.4455 12.901 18.4613 -17.238 
21.1395 18.4613 -18.2523 29.3781 18.4613 -19.0919 37.6166 18.4613 -18.756 
45.8551 18.4613 -18.0025 54.0937 18.4613 -16.6662 -44.7687 26.6999 -14.8729 
-36.5302 26.6999 -15.7068 -28.2916 26.6999 -16.2528 -20.0531 26.6999 -15.552 
-11.8146 26.6999 -14.5443 4.66249 26.6999 -13.9437 12.901 26.6999 -15.8891 
21.1395 26.6999 -17.5019 29.3781 26.6999 -17.8355 37.6166 26.6999 -17.6828 
45.8551 26.6999 -16.5997 21.1395 34.9384 -14.6221 29.3781 34.9384 -15.1854 
37.6166 34.9384 -15.5969 -28.2916 -40.8036 -13.4731 -20.0531 -42.5634 -13.4731 
-11.8146 -43.9617 -13.4731 -11.8146 -47.4469 -6.5404 -3.57605 -43.9662 -13.4731 
-3.57605 -47.4469 -5.50795 4.66249 -43.3731 -13.4731 12.901 -42.5011 -13.4731 
21.1395 -41.0263 -13.4731 -44.7687 -32.6533 -13.4731 -32.0534 -39.2084 -13.4731 
-36.5302 -36.5075 -13.4731 -36.5302 -39.2084 -10.3428 29.2744 -39.2084 -13.4731 
29.3781 -39.1743 -13.4731 29.3781 -39.2084 -13.4228 37.6166 -34.845 -13.4731 
-47.0716 -30.9698 -13.4731 -53.0072 -24.3801 -13.4731 -53.0072 -30.9698 -5.37699 
45.5178 -30.9698 -13.4731 45.8551 -30.7609 -13.4731 45.8551 -30.9698 -13.2871 
54.0937 -24.3718 -13.4731 54.0937 -30.9698 -5.4631 -54.2093 -22.7313 -13.4731 
55.7844 -22.7313 -13.4731 62.3322 -22.7313 -6.46162 -59.6637 -14.4928 -13.4731 
-61.2458 -14.4928 -11.8191 61.0639 -14.4928 -13.4731 62.3322 -11.1773 -13.4731 
62.3322 -14.4928 -12.3097 -59.864 -6.25425 -13.4731 -61.2458 -6.25425 -12.2365 
64.1246 -6.25425 -13.4731 70.5707 -6.25425 -5.49831 -60.3524 1.98428 -13.4731 
-61.2458 1.98428 -12.8516 63.9682 1.98428 -13.4731 62.3322 9.44139 -13.4731 
70.5707 1.98428 -5.5491 -58.8443 10.2228 -13.4731 -61.2458 10.2228 -11.8523 
62.1504 10.2228 -13.4731 62.3322 10.2228 -13.3362 -56.1443 18.4613 -13.4731 
-61.2458 18.4613 -10.5346 -53.0072 26.3161 -13.4731 -3.57605 26.0809 -13.4731 
59.9488 18.4613 -13.4731 54.0937 24.2982 -13.4731 62.3322 18.4613 -11.6606 
-61.2458 26.6999 -6.57794 -52.6622 26.6999 -13.4731 -53.0072 26.6999 -13.3842 
-44.7687 29.6143 -13.4731 -36.5302 31.389 -13.4731 -28.2916 33.0205 -13.4731 
-20.0531 32.4706 -13.4731 -4.85044 26.6999 -13.4731 -11.8146 29.8624 -13.4731 
-1.21692 26.6999 -13.4731 -3.57605 26.6999 -13.2846 4.66249 27.8637 -13.4731 
12.901 32.7603 -13.4731 52.2215 26.6999 -13.4731 45.8551 32.5389 -13.4731 
54.0937 26.6999 -12.0674 -53.0072 34.9384 -5.70677 -44.7687 34.9384 -9.76644 
-36.5302 34.9384 -11.5369 -28.2916 34.9384 -12.4363 -20.0531 34.9384 -12.3602 
-11.8146 34.9384 -11.3381 -3.57605 34.9384 -9.58904 4.66249 34.9384 -10.0642 
16.6788 34.9384 -13.4731 12.901 34.9384 -12.4421 21.1395 36.6622 -13.4731 
29.3781 37.4061 -13.4731 41.8724 34.9384 -13.4731 37.6166 37.7701 -13.4731 
45.8551 34.9384 -11.4216 54.0937 34.9384 -6.11231 21.1395 43.1769 -6.32136 
29.3781 43.1769 -7.55328 37.6166 43.1769 -6.58654 -11.8146 -47.9187 -5.23452 
-3.57605 -47.5342 -5.23452 -36.5302 -41.7059 -5.23452 -28.2916 -44.9869 -5.23452 
-18.2215 -47.4469 -5.23452 -20.0531 -47.307 -5.23452 -11.8146 -47.4469 -3.2751 
-2.46365 -47.4469 -5.23452 -3.57605 -47.4469 -4.85564 4.66249 -46.8848 -5.23452 
12.901 -46.1189 -5.23452 21.1395 -44.3414 -5.23452 29.3781 -42.4419 -5.23452 
-53.0072 -31.0361 -5.23452 -41.4914 -39.2084 -5.23452 -44.7687 -37.3612 -5.23452 
37.5412 -39.2084 -5.23452 37.6166 -39.1792 -5.23452 45.8551 -35.8868 -5.23452 
54.0937 -31.0582 -5.23452 -53.0748 -30.9698 -5.23452 -53.0072 -30.9698 -4.82222 
54.2106 -30.9698 -5.23452 54.0937 -30.9698 -4.74646 62.3322 -23.3767 -5.23452 
-60.2232 -22.7313 -5.23452 -61.2458 -21.0217 -5.23452 62.9421 -22.7313 -5.23452 
62.3322 -22.7313 0.268144 -64.6298 -14.4928 -5.23452 67.548 -14.4928 -5.23452 
70.5707 -6.64743 -5.23452 -67.0484 -6.25425 -5.23452 70.7021 -6.25425 -5.23452 
70.5707 -6.25425 -0.592444 -68.7321 1.98428 -5.23452 -69.4843 1.98428 0.243804 
70.7285 1.98428 -5.23452 70.5707 3.14551 -5.23452 70.5707 1.98428 1.5296 
-68.3656 10.2228 -5.23452 69.4504 10.2228 -5.23452 -65.6939 18.4613 -5.23452 
66.4025 18.4613 -5.23452 62.3322 25.8376 -5.23452 -62.3242 26.6999 -5.23452 
-61.2458 27.9851 -5.23452 61.6914 26.6999 -5.23452 -53.4921 34.9384 -5.23452 
-53.0072 35.2896 -5.23452 -44.7687 38.2389 -5.23452 -36.5302 41.1793 -5.23452 
-28.2916 41.9641 -5.23452 -20.0531 42.1138 -5.23452 -11.8146 41.993 -5.23452 
-3.57605 40.3083 -5.23452 4.66249 39.7645 -5.23452 12.901 42.0044 -5.23452 
45.8551 40.5782 -5.23452 54.6721 34.9384 -5.23452 54.0937 35.4298 -5.23452 
54.0937 34.9384 -0.618948 -28.2916 43.1769 -0.795907 -20.0531 43.1769 -1.63962 
-11.8146 43.1769 0.588325 18.1003 43.1769 -5.23452 21.1395 43.8168 -5.23452 
29.3781 44.5715 -5.23452 39.46 43.1769 -5.23452 37.6166 43.7646 -5.23452 
37.6166 43.1769 1.8863 -36.5302 -41.0842 3.00401 -28.2916 -44.1037 3.00401 
-20.0531 -45.507 3.00401 -11.8146 -45.7959 3.00401 -3.57605 -45.4292 3.00401 
4.66249 -44.5576 3.00401 12.901 -43.2249 3.00401 21.1395 -41.7102 3.00401 
29.3781 -39.6387 3.00401 -40.0436 -39.2084 3.00401 -44.7687 -36.3859 3.00401 
-36.5302 -39.2084 7.2081 4.66249 -39.2084 10.5416 12.901 -39.2084 8.49746 
21.1395 -39.2084 6.3487 30.7918 -39.2084 3.00401 29.3781 -39.2084 3.7098 
37.6166 -37.09 3.00401 45.8551 -34.3264 3.00401 -51.5514 -30.9698 3.00401 
-53.0072 -29.508 3.00401 -44.7687 -30.9698 11.2173 37.6166 -30.9698 11.2328 
51.6015 -30.9698 3.00401 45.8551 -30.9698 7.94322 54.0937 -29.4588 3.00401 
-58.8281 -22.7313 3.00401 -61.2458 -18.937 3.00401 62.0037 -22.7313 3.00401 
62.3322 -22.3367 3.00401 -63.9472 -14.4928 3.00401 -61.2458 -14.4928 7.08355 
67.3298 -14.4928 3.00401 62.3322 -14.4928 10.4976 -67.16 -6.25425 3.00401 
-69.4843 0.982896 3.00401 70.4635 -6.25425 3.00401 -69.7902 1.98428 3.00401 
-69.4843 8.76587 3.00401 -69.4843 1.98428 3.65908 70.5316 1.98428 3.00401 
-69.4186 10.2228 3.00401 69.4027 10.2228 3.00401 -68.1077 18.4613 3.00401 
66.5376 18.4613 3.00401 62.3322 25.3702 3.00401 62.3322 18.4613 9.16084 
-64.337 26.6999 3.00401 -61.2458 30.2641 3.00401 -61.2458 26.6999 9.53514 
61.3694 26.6999 3.00401 54.0937 34.5042 3.00401 -55.7163 34.9384 3.00401 
-53.0072 36.8671 3.00401 -53.0072 34.9384 7.72651 -44.7687 40.4208 3.00401 
-36.5302 42.694 3.00401 -3.57605 41.9379 3.00401 4.66249 41.2001 3.00401 
12.901 42.358 3.00401 37.6166 43.0687 3.00401 53.5706 34.9384 3.00401 
45.8551 40.1797 3.00401 45.8551 34.9384 10.258 -33.6239 43.1769 3.00401 
-28.2916 44.063 3.00401 -28.2916 43.1769 5.2932 -20.0531 44.2067 3.00401 
-20.0531 43.1769 5.69149 -10.0195 43.1769 3.00401 -11.8146 43.4974 3.00401 
-11.8146 43.1769 3.65829 18.6852 43.1769 3.00401 21.1395 43.5264 3.00401 
21.1395 43.1769 3.64427 36.8155 43.1769 3.00401 29.3781 44.0029 3.00401 
29.3781 43.1769 4.6073 -28.2916 -39.4226 11.2425 -20.0531 -40.4231 11.2425 
-11.8146 -40.2747 11.2425 -3.57605 -39.669 11.2425 -29.0586 -39.2084 11.2425 
-36.5302 -36.5995 11.2425 -28.2916 -39.2084 11.4879 -20.0531 -39.2084 12.5285 
-11.8146 -39.2084 12.2915 0.0241081 -39.2084 11.2425 -3.57605 -39.2084 11.6825 
4.66249 -38.4358 11.2425 12.901 -36.2241 11.2425 21.1395 -33.8156 11.2425 
29.3781 -32.5327 11.2425 -53.0072 -22.9137 11.2425 -44.7373 -30.9698 11.2425 
-44.7687 -30.9416 11.2425 -36.5302 -30.9698 15.8444 -28.2916 -30.9698 18.3159 
-20.0531 -30.9698 19.4056 -11.8146 -30.9698 18.0214 -3.57605 -30.9698 16.8627 
4.66249 -30.9698 16.0776 12.901 -30.9698 14.5965 21.1395 -30.9698 13.2353 
[...]
POINT_DATA 578
SCALARS ImageScalars float
LOOKUP_TABLE default
0 0 0 0 0 0 0 0 0 
0 0 0 0 0 0 0 0 0 
0 0 0 0 0 0 0 0 0 
0 0 0 0 0 0 0 0 0 
0 0 0 0 0 0 0 0 0 
0 0 0 0 0 0 0 0 0 
0 0 0 0 0 0 0 0 0 
0 0 0 0 0 0 0 0 0 
0 0 0 0 0 0 0 0 0 
0 0 0 0 0 0 0 0 0 
0 0 0 0 0 0 0 0 0 
0 0 0 0 0 0 0 0 0 
0 0 0 0 0 0 0 0 0 
0 0 0 0 0 0 0 0 0 
0 0 0 0 0 0 0 0 0 
0 0 0 0 0 0 0 0 0 
0 0 0 0 0 0 0 0 0 
0 0 0 0 0 0 0 0 0 
0 0 0 0 0 0 0 0 0 
0 0 0 0 0 0 0 0 0 
0 0 0 0 0 0 0 0 0 
0 0 0 0 0 0 0 0 0 
0 0 0 0 0 0 0 0 0 
0 0 0 0 0 0 0 0 0 
0 0 0 0 0 0 0 0 0 
0 0 0 0 0 0 0 0 0 
0 0 0 0 0 0 0 0 0 
0 0 0 0 0 0 0 0 0 
0 0 0 0 0 0 0 0 0 
0 0 0 0 0 0 0 0 0 
0 0 0 0 0 0 0 0 0 
0 0 0 0 0 0 0 0 0 
0 0 0 0 0 0 0 0 0 
0 0 0 0 0 0 0 0 0 
0 0 0 0 0 0 0 0 0 
0 0 0 0 0 0 0 0 0 
0 0 0 0 0 0 0 0 0 
0 0 0 0 0 0 0 0 0 
0 0 0 0 0 0 0 0 0 
0 0 0 0 0 0 0 0 0 
0 0 0 0 0 0 0 0 0 
0 0 0 0 0 0 0 0 0 
0 0 0 0 0 0 0 0 0 
0 0 0 0 0 0 0 0 0 
0 0 0 0 0 0 0 0 0 
0 0 0 0 0 0 0 0 0 
0 0 0 0 0 0 0 0 0 
0 0 0 0 0 0 0 0 0 
0 0 0 0 0 0 0 0 0 
0 0 0 0 0 0 0 0 0 
0 0 0 0 0 0 0 0 0 
0 0 0 0 0 0 0 0 0 
0 0 0 0 0 0 0 0 0 
0 0 0 0 0 0 0 0 0 
0 0 0 0 0 0 0 0 0 
0 0 0 0 0 0 0 0 0 
0 0 0 0 0 0 0 0 0 
0 0 0 0 0 0 0 0 0 
0 0 0 0 0 0 0 0 0 
0 0 0 0 0 0 0 0 0 
0 0 0 0 0 0 0 0 0 
0 0 0 0 0 0 0 0 0 
0 0 0 0 0 0 0 0 0 
0 0 0 0 0 0 0 0 0 
0 0 
NORMALS Normals float
0.23221 0.590189 0.773147 0.13145 0.505259 0.852898 0.0416077 0.441689 0.896203 
-0.0114076 0.457319 0.88923 -0.0537988 0.491416 0.869262 -0.079394 0.557407 0.826435 
-0.157102 0.649793 0.743699 0.365205 0.508506 0.779773 0.215632 0.386438 0.896754 
0.103644 0.266908 0.958133 0.0442553 0.13951 0.989231 0.0240293 0.107596 0.993904 
0.0088786 0.113323 0.993519 -0.00494371 0.126743 0.991923 -0.00600703 0.149274 0.988778 
-0.0749447 0.205543 0.975774 -0.145555 0.328219 0.93332 -0.231857 0.480976 0.84552 
0.517087 0.388733 0.762566 0.22697 0.270685 0.935529 0.120686 0.162568 0.979289 
0.0151237 0.0710069 0.997361 -0.0498736 -0.0316989 0.998252 0.0017602 -0.072808 0.997344 
0.0113061 -0.0610707 0.998069 -0.00291119 -0.078894 0.996879 0.0187362 -0.0674059 0.99755 
0.0414947 -0.0104509 0.999084 -0.0240436 0.115543 0.993011 -0.118251 0.206451 0.971285 
-0.233932 0.310806 0.921236 -0.435612 0.449528 0.77985 0.371146 0.148075 0.916692 
0.19473 0.121842 0.97326 -0.00852018 0.0445354 0.998971 -0.0920615 -0.0457876 0.9947 
-0.0960163 -0.100139 0.99033 -0.00473386 -0.0572141 0.998351 0.00318439 0.0354253 0.999367 
-0.0118045 0.00260542 0.999927 0.0631317 -0.0234517 0.99773 0.10918 -0.0440335 0.993046 
0.0831409 0.0108739 0.996478 0.0197308 0.101794 0.99461 -0.160884 0.152487 0.975123 
-0.370565 0.203936 0.906141 0.35752 0.0293384 0.933444 0.140269 -0.0192477 0.989926 
-0.0426342 -0.0416997 0.99822 -0.127488 -0.0533505 0.990404 -0.064567 -0.0642321 0.995844 
0.152677 0.0421329 0.987378 0.0637217 -0.0839228 0.994433 -0.0667837 0.0885003 0.993835 
-0.0361741 0.16138 0.986229 0.0746829 -0.0357795 0.996565 0.116387 -0.00696879 0.99318 
0.0202435 0.0158166 0.99967 -0.100099 -0.00678957 0.994954 -0.289627 0.0494043 0.955864 
-0.560073 0.105958 0.821639 0.317518 -0.0554611 0.946629 0.125685 -0.0784204 0.988966 
-0.040097 -0.0594909 0.997423 -0.109708 -0.038598 0.993214 -0.00841016 0.0428617 0.999046 
-0.0448883 -0.0113457 0.998928 -0.00501112 -0.155359 0.987845 0.292086 0.00296 0.956387 
-0.0900259 -0.0598575 0.994139 -0.039409 -0.048239 0.998058 0.133877 -0.0602239 0.989166 
0.019096 -0.0627472 0.997847 -0.121146 -0.0441395 0.991653 -0.2838 -0.0655862 0.956638 
-0.545037 -0.0769485 0.834874 0.328743 -0.135749 0.934612 0.137852 -0.148652 0.979234 
-0.00428932 -0.0677232 0.997695 -0.0332248 -0.0149794 0.999336 -0.0250917 0.0220976 0.999441 
-0.0330772 -0.104255 0.994 0.0835049 -0.0256859 0.996176 0.026117 -0.155156 0.987545 
-0.0884045 -0.192168 0.977372 0.0632738 0.000877972 0.997996 0.104646 -0.034973 0.993894 
0.0357699 -0.103893 0.993945 -0.118171 -0.122307 0.985432 -0.311227 -0.0826119 0.946738 
0.312232 -0.216343 0.925044 0.1858 -0.182316 0.965525 0.0895916 -0.159706 0.983091 
-0.0228543 -0.125881 0.991782 -0.0968633 -0.144683 0.984726 -0.104204 -0.196234 0.975005 
-0.00773257 -0.248851 0.968511 0.0819431 -0.315988 0.945218 0.105569 -0.116617 0.98755 
0.110075 -0.0193084 0.993736 0.0304648 -0.0655073 0.997387 -0.0630089 -0.109957 0.991937 
-0.108426 -0.183856 0.976955 -0.329331 -0.288005 0.899219 0.156041 -0.343717 0.926018 
0.0741626 -0.350215 0.933729 -0.00959725 -0.321629 0.946817 -0.100671 -0.294334 0.950386 
-0.13283 -0.279381 0.950948 0.149682 -0.330071 0.932013 0.207102 -0.252104 0.945279 
0.116013 -0.199182 0.973071 0.0105882 -0.215259 0.9765 -0.0857437 -0.164218 0.982691 
-0.257905 -0.294039 0.92034 0.145888 -0.459779 0.875968 0.0476662 -0.446225 0.89365 
-0.17479 -0.450026 0.875743 0.239891 0.672794 0.699858 0.153151 0.67536 0.721411 
0.0628131 0.712445 0.698911 0.0195681 0.989885 0.140517 -0.0287974 0.737496 0.674737 
-0.0613458 0.996305 0.0601091 -0.0723598 0.73505 0.67414 -0.119045 0.73937 0.662692 
-0.17783 0.750286 0.636747 0.390161 0.580244 0.714907 0.287793 0.645233 0.707708 
0.322484 0.592408 0.73828 0.396577 0.778604 0.486315 -0.262851 0.728775 0.632294 
-0.263664 0.727804 0.633075 -0.264591 0.731438 0.628482 -0.323836 0.663269 0.674689 
0.446479 0.543323 0.710954 0.548918 0.440177 0.710586 0.686362 0.716705 0.123452 
-0.350362 0.636331 0.687262 -0.352776 0.633099 0.689009 -0.357823 0.648291 0.672072 
-0.462889 0.505748 0.727978 -0.596211 0.795963 0.104762 0.558195 0.417108 0.717244 
-0.488023 0.470798 0.734972 -0.745261 0.625596 0.230686 0.641856 0.212962 0.73666 
0.755981 0.246259 0.606506 -0.604514 0.239708 0.759673 -0.612687 0.182531 0.768959 
-0.675245 0.267001 0.687572 0.60598 0.0228912 0.79515 0.684551 0.0437407 0.727651 
-0.61331 0.112845 0.78174 -0.953437 0.168635 0.250039 0.555405 -0.0321567 0.830958 
0.594713 -0.0240651 0.803578 -0.597505 -0.0744259 0.798404 -0.589929 -0.118563 0.798703 
-0.962146 -0.0684488 0.2638 0.504288 -0.101723 0.857523 0.599411 -0.0941085 0.79489 
-0.588582 -0.123247 0.798988 -0.598006 -0.125098 0.791669 0.40891 -0.218398 0.886056 
0.625244 -0.252671 0.738395 0.371792 -0.38496 0.844735 -0.0307964 -0.324449 0.945402 
-0.53815 -0.294791 0.789616 -0.45957 -0.36861 0.808036 -0.673461 -0.305474 0.673154 
0.687547 -0.515175 0.511736 0.366209 -0.391401 0.844213 0.37587 -0.394332 0.838585 
0.178968 -0.45224 0.873756 0.0876773 -0.470081 0.878258 0.031976 -0.462194 0.886202 
-0.067284 -0.417746 0.906069 -0.0474189 -0.323189 0.945146 -0.14195 -0.344044 0.928162 
0.0196748 -0.331709 0.943177 -0.0325986 -0.332806 0.942432 0.150242 -0.355427 0.92255 
0.22667 -0.440606 0.868612 -0.456479 -0.365777 0.81107 -0.312949 -0.496333 0.809764 
-0.536886 -0.416578 0.733632 0.484386 -0.739385 0.467632 0.274051 -0.692702 0.667128 
0.111593 -0.59474 0.796135 0.0410281 -0.530483 0.846702 -0.0537659 -0.503859 0.862111 
-0.149589 -0.50665 0.849076 -0.0626554 -0.562008 0.824755 0.154377 -0.614168 0.773928 
0.195094 -0.489563 0.849862 0.238357 -0.533788 0.81133 0.150344 -0.533269 0.832479 
0.0388203 -0.557861 0.829026 -0.269244 -0.526943 0.806126 -0.170381 -0.585707 0.792412 
-0.366731 -0.623937 0.69008 -0.627757 -0.733291 0.261162 0.157672 -0.933468 0.322144 
0.0155523 -0.921567 0.387909 -0.200439 -0.942891 0.266046 0.0143825 0.998265 0.0570953 
-0.0620008 0.997109 0.0439375 0.409219 0.898187 0.160621 0.3118 0.940553 0.13469 
0.138792 0.986479 0.0871493 0.173868 0.980019 0.0966057 0.00973817 0.99909 -0.0415307 
-0.0649617 0.997013 0.0417756 -0.0624427 0.997715 0.0257932 -0.0856323 0.995838 0.0312032 
-0.151993 0.988328 0.0102496 -0.212534 0.977006 0.0169882 -0.30096 0.953591 0.00937738 
0.685828 0.718598 0.115139 0.486811 0.860579 0.149729 0.542585 0.827712 0.143155 
-0.35642 0.933235 0.0451478 -0.357166 0.932915 0.0458518 -0.445042 0.88817 0.114419 
-0.595341 0.798339 0.090686 0.686851 0.7176 0.115264 0.688895 0.718577 0.095241 
-0.597822 0.796379 0.0915935 -0.594042 0.801542 0.0681416 -0.747272 0.646565 0.15342 
0.817346 0.555635 0.152364 0.844685 0.513572 0.150833 -0.759023 0.631773 0.15731 
-0.740985 0.656107 -0.143058 0.910222 0.364765 0.196066 -0.885029 0.394724 0.246811 
-0.955652 0.1786 0.234159 0.924906 0.231042 0.301941 -0.957239 0.1687 0.235021 
-0.982457 0.177183 -0.0581701 0.919261 0.0710539 0.387182 0.993524 0.113621 -0.000115971 
-0.967086 -0.0677287 0.245271 -0.964559 -0.0924943 0.247124 -0.978476 -0.0642312 -0.196109 
0.897457 -0.132179 0.420833 -0.929442 -0.24388 0.276875 0.79847 -0.339404 0.497243 
-0.877974 -0.394022 0.271861 -0.788683 -0.560915 0.2517 0.716065 -0.511609 0.474877 
0.686551 -0.552507 0.472635 -0.771661 -0.580691 0.259493 0.496789 -0.745234 0.444777 
0.484829 -0.753864 0.44343 0.339083 -0.826824 0.448758 0.183382 -0.885417 0.427093 
0.0491266 -0.894478 0.444405 0.00320661 -0.887408 0.460974 -0.0859635 -0.879982 0.467164 
-0.106119 -0.85531 0.507133 0.100069 -0.87518 0.473334 0.21935 -0.912417 0.345515 
-0.454247 -0.859283 0.235144 -0.643347 -0.737832 0.204226 -0.630029 -0.75005 0.201216 
-0.637811 -0.764187 -0.0959933 0.0781081 -0.986088 0.146729 -0.00672454 -0.979046 0.203526 
-0.123514 -0.992244 -0.0140172 0.177835 -0.941575 0.286027 0.154998 -0.952835 0.260922 
-0.00620226 -0.96778 0.251719 -0.266724 -0.947827 0.17459 -0.213267 -0.960894 0.176636 
-0.224201 -0.938772 -0.261612 0.411717 0.881108 -0.232677 0.244095 0.92954 -0.276356 
0.0990583 0.931559 -0.349836 -0.00406096 0.923174 -0.384361 -0.0683962 0.915871 -0.395604 
-0.119806 0.901327 -0.41624 -0.16038 0.865034 -0.475389 -0.199163 0.855249 -0.478417 
-0.252427 0.864976 -0.433702 0.46762 0.849564 -0.244075 0.542118 0.79392 -0.275317 
0.398115 0.824567 -0.401987 -0.130333 0.693907 -0.708171 -0.169399 0.731172 -0.660826 
-0.176348 0.774969 -0.606898 -0.255742 0.8669 -0.427878 -0.247713 0.852209 -0.460844 
-0.270252 0.872903 -0.406207 -0.406316 0.838771 -0.362451 0.665499 0.684896 -0.296694 
0.68983 0.658421 -0.301027 0.513425 0.587311 -0.625669 -0.174067 0.663954 -0.727232 
-0.489377 0.812594 -0.316545 -0.3417 0.754547 -0.560268 -0.529537 0.795979 -0.293271 
0.77281 0.550847 -0.31517 0.79793 0.512783 -0.316799 -0.708449 0.647175 -0.28154 
-0.718479 0.636309 -0.280887 0.836088 0.458474 -0.301262 0.735526 0.451653 -0.504986 
-0.870203 0.411579 -0.270832 -0.636788 0.397613 -0.660609 0.919536 0.31364 -0.236821 
0.972531 0.146067 -0.181241 -0.945042 0.173013 -0.27742 0.977585 0.126385 -0.168386 
0.984809 -0.054973 -0.164709 0.970865 0.130721 -0.200831 -0.955815 -0.0617611 -0.287407 
0.982306 -0.0944992 -0.161694 -0.936728 -0.227072 -0.266417 0.949873 -0.29396 -0.106439 
-0.869474 -0.411668 -0.273029 -0.781374 -0.55255 -0.290073 -0.664334 -0.404066 -0.628802 
0.82628 -0.555777 -0.0915072 0.725341 -0.682043 -0.0932602 0.644354 -0.559483 -0.521331 
-0.765176 -0.575629 -0.288371 -0.610387 -0.732552 -0.301322 0.567849 -0.817824 -0.0933337 
0.506845 -0.85706 -0.092506 0.516099 -0.759942 -0.395132 0.341421 -0.935658 -0.0893069 
0.206456 -0.971578 -0.115808 -0.135964 -0.978117 -0.157483 0.0236267 -0.982696 -0.183711 
0.132294 -0.964835 -0.227138 -0.221746 -0.91846 -0.327506 -0.598346 -0.741877 -0.302655 
-0.415061 -0.861508 -0.292452 -0.337588 -0.602465 -0.723236 0.167072 -0.980769 -0.100889 
0.0932061 -0.992454 -0.0796784 0.0949092 -0.969373 -0.226515 -0.0350352 -0.995833 -0.0842028 
-0.0540867 -0.964806 -0.257341 -0.133308 -0.975893 -0.172806 -0.133567 -0.975153 -0.176737 
-0.135452 -0.967438 -0.213815 0.111367 -0.959021 -0.260532 0.101435 -0.954885 -0.279116 
0.0991868 -0.945579 -0.309908 -0.202528 -0.924297 -0.32351 -0.0266512 -0.956189 -0.291535 
-0.0301286 -0.929978 -0.366378 0.161833 0.760619 -0.628705 0.0419858 0.758432 -0.650398 
-0.0354662 0.71765 -0.6955 -0.0777662 0.690831 -0.718822 0.179385 0.759615 -0.625144 
0.366503 0.707483 -0.604271 0.159769 0.755051 -0.635902 0.0332327 0.730852 -0.681726 
-0.0406715 0.687657 -0.724895 -0.100947 0.680276 -0.725971 -0.0784196 0.676026 -0.732693 
-0.130407 0.657168 -0.742378 -0.169593 0.594303 -0.786157 -0.1363 0.579824 -0.80326 
-0.122578 0.601914 -0.789097 0.599144 0.444618 -0.665839 0.512649 0.586762 -0.626819 
0.513014 0.586202 -0.627044 0.336189 0.506528 -0.793981 0.174062 0.488619 -0.854959 
-0.0166487 0.449287 -0.893233 -0.132883 0.431879 -0.892089 -0.102658 0.402917 -0.909461 
-0.127818 0.387349 -0.91303 -0.154204 0.40442 -0.90148 -0.121305 0.504022 -0.85513 
-0.17353 0.663201 -0.728046 -0.101502 0.567194 -0.817306 -0.173872 0.663508 -0.727685 
-0.274269 0.644582 -0.713646 -0.459756 0.542536 -0.70305 0.600784 0.442231 -0.665951 
0.596526 0.440482 -0.670919 0.431982 0.344703 -0.833409 0.294713 0.242112 -0.924406 
-0.159672 0.153577 -0.975151 -0.0762773 0.159902 -0.984181 0.00973444 0.278865 -0.960281 
-0.0209599 0.383135 -0.923454 -0.101835 0.427163 -0.898422 -0.2363 0.480165 -0.844751 
-0.488101 0.531184 -0.692532 -0.44118 0.518896 -0.732194 0.60357 0.372173 -0.705117 
0.654569 0.299992 -0.693934 0.516884 0.288956 -0.805813 0.311069 0.175712 -0.934003 
-0.202525 0.120465 -0.97184 -0.0296027 0.0819773 -0.996194 0.117108 0.105562 -0.987493 
0.0593132 0.179885 -0.981898 -0.0502805 0.219519 -0.974312 -0.185667 0.275795 -0.943114 
-0.598454 0.38154 -0.704471 -0.400324 0.300645 -0.865652 -0.616889 0.355127 -0.702377 
0.677039 0.262462 -0.687555 0.638873 0.259609 -0.724185 0.390542 0.171732 -0.904425 
0.238782 0.0945794 -0.966456 -0.0847711 0.118086 -0.989378 0.121903 0.020619 -0.992328 
-0.360336 0.0738017 -0.929899 -0.69026 0.165534 -0.704371 -0.564622 0.154134 -0.810829 
0.677089 0.176654 -0.714384 0.549032 0.168201 -0.818701 0.321964 0.0959823 -0.941874 
-0.0728738 -0.0535162 -0.995904 -0.0643678 0.0947375 -0.993419 0.0388146 0.00790439 -0.999215 
-0.341663 -0.0419744 -0.938885 -0.705486 -0.0669694 -0.705553 -0.569109 -0.0727776 -0.819035 
0.776628 -0.0193139 -0.629663 0.549989 -0.0166129 -0.835007 0.302201 -0.0454114 -0.952162 
-0.0678432 0.0161705 -0.997565 -0.0217435 0.0360512 -0.999113 0.0330609 -0.0427898 -0.998537 
-0.0373586 -0.124459 -0.991521 -0.140711 -0.170453 -0.975267 -0.343213 -0.145384 -0.927937 
-0.631308 -0.228485 -0.74111 -0.597074 -0.300423 -0.743807 -0.57464 -0.220724 -0.78808 
0.718288 -0.275878 -0.638712 0.606064 -0.475579 -0.637582 0.571434 -0.25885 -0.778756 
0.339529 -0.177818 -0.923635 -0.0426406 -0.120444 -0.991804 -0.0415122 -0.216207 -0.975465 
-0.0392818 -0.19983 -0.979043 0.0399866 -0.213942 -0.976028 0.0490284 -0.159232 -0.986023 
0.000465798 -0.0818116 -0.996648 -0.0644161 -0.13395 -0.988892 -0.128797 -0.178252 -0.975519 
-0.211751 -0.195084 -0.957655 -0.546833 -0.348139 -0.761428 -0.412891 -0.307782 -0.8572 
0.560257 -0.519491 -0.645167 0.46787 -0.596783 -0.65188 0.412146 -0.449222 -0.792676 
0.175572 -0.365089 -0.914267 0.0523046 -0.331168 -0.942121 -0.03032 -0.297593 -0.954211 
-0.0628605 -0.254247 -0.965094 -0.104488 -0.317646 -0.942435 -0.0605554 -0.353215 -0.93358 
0.0451237 -0.375539 -0.925708 0.0862915 -0.367285 -0.926097 0.0151549 -0.315798 -0.948706 
-0.0640016 -0.310525 -0.948408 -0.113758 -0.323755 -0.939277 -0.312256 -0.540903 -0.780974 
-0.270653 -0.368283 -0.889446 -0.485811 -0.433956 -0.758729 -0.483696 -0.437928 -0.757798 
-0.470067 -0.420476 -0.776039 0.365265 -0.6886 -0.626428 0.24691 -0.741035 -0.624421 
0.22613 -0.677733 -0.699674 0.142937 -0.716362 -0.68293 0.0895092 -0.569628 -0.817014 
0.0713064 -0.710512 -0.700063 0.0408478 -0.508947 -0.859828 -0.090131 -0.708689 -0.69974 
-0.0728386 -0.478742 -0.874929 -0.15829 -0.63387 -0.757069 -0.153234 -0.52319 -0.838326 
-0.104551 -0.597926 -0.794703 -0.102552 -0.559145 -0.822703 0.0142393 -0.618316 -0.785801 
0.0148543 -0.611639 -0.790997 0.123673 -0.630119 -0.766587 0.122445 -0.585699 -0.801227 
0.080955 -0.666752 -0.74087 0.0708846 -0.552474 -0.83051 -0.0755401 -0.660599 -0.746929 
-0.0683942 -0.526761 -0.847258 -0.254536 -0.58095 -0.773116 -0.18688 -0.611606 -0.768775 
-0.182506 -0.580841 -0.793294 0.15993 0.394005 -0.905087 -0.0175099 0.441116 -0.897279 
-0.136433 0.312651 -0.940019 -0.14633 0.216463 -0.965262 0.289996 0.241575 -0.926037 
0.292242 0.234704 -0.927097 0.128065 0.219366 -0.967201 -0.0441779 0.181651 -0.98237 
-0.130841 0.204484 -0.970086 -0.147669 0.210346 -0.96641 -0.147218 0.212808 -0.96594 
0.273953 0.128025 -0.953184 0.241001 0.0800526 -0.967218 0.101732 -0.00528285 -0.994798 
-0.043109 -0.0134466 -0.99898 -0.109967 0.0210512 -0.993712 -0.190673 0.0952233 -0.977024 
-0.162184 0.0463412 -0.985672 -0.169524 0.0900127 -0.981407 0.0674368 0.15365 -0.985821 
-0.0447958 0.200545 -0.97866 -0.166001 0.150233 -0.974615 0.224672 0.0835593 -0.970845 
0.220636 0.0853873 -0.971611 0.127159 0.00856365 -0.991845 0.0405155 -0.11112 -0.992981 
-0.0193443 -0.137787 -0.990273 -0.0709874 -0.0605726 -0.995636 -0.0596429 -0.110525 -0.992082 
-0.0569683 -0.141387 -0.988314 -0.113553 0.077617 -0.990496 -0.126038 0.0502928 -0.99075 
0.111753 0.0287558 -0.99332 0.100841 0.0364416 -0.994235 -0.00987144 0.0562323 -0.998369 
-0.212496 0.0718199 -0.974519 -0.156513 0.0735929 -0.98493 0.206694 0.0669534 -0.976112 
0.159491 0.0575117 -0.985523 0.0300739 0.0260127 -0.999209 -0.037183 -0.0444152 -0.998321 
0.00355535 -0.0939405 -0.995571 -0.0897072 -0.0423895 -0.995066 -0.107818 -0.0300681 -0.993716 
0.0478027 -0.0461669 -0.997789 -0.0200466 0.0480522 -0.998644 0.0689363 -0.043821 -0.996658 
-0.055991 0.0562788 -0.996844 0.074861 -0.0302568 -0.996735 0.0495835 -0.0448481 -0.997763 
0.096371 -0.05178 -0.993998 -0.0362707 -0.122362 -0.991823 -0.0110604 -0.062541 -0.997981 
-0.193273 -0.0745808 -0.978306 -0.160512 -0.105663 -0.981362 -0.169992 -0.079259 -0.982253 
0.21909 -0.018571 -0.975528 0.173544 0.00332584 -0.984821 0.0281037 -0.0450354 -0.99859 
-0.0819196 -0.0476278 -0.9955 -0.0300905 -0.0990756 -0.994625 -0.0055303 -0.0579402 -0.998305 
-0.0660204 0.0102872 -0.997765 -0.0387762 -0.188238 -0.981358 -0.0282636 -0.0927821 -0.995285 
-0.0285351 -0.0263109 -0.999246 0.0180564 -0.0837451 -0.996324 0.0164219 -0.0745154 -0.997085 
-0.0352615 0.00374185 -0.999371 0.000324773 -0.0763766 -0.997079 -0.0405119 -0.00916136 -0.999137 
0.215186 -0.182846 -0.959303 0.171305 -0.231829 -0.957554 0.1745 -0.193707 -0.965416 
0.0108748 -0.226267 -0.974005 -0.0191445 -0.167786 -0.985637 -0.0443338 -0.134584 -0.98991 
-0.0448855 -0.184923 -0.981727 -0.0478307 -0.157205 -0.986407 
