# vtk DataFile Version 4.2
vtk output
ASCII
DATASET POLYDATA
POINTS 528 float
-33.2125 -40.3748 -11.6146 -25.288 -40.3748 -11.1546 -17.3634 -40.3748 -12.2261 
-9.43886 -40.3748 -13.3739 -1.5143 -40.3748 -13.2514 6.41025 -40.3748 -13.5654 
14.3348 -40.3748 -14.1647 22.2593 -40.3748 -14.2985 30.1839 -40.3748 -11.7445 
-41.1371 -32.4503 -11.9366 -33.2125 -32.4503 -14.3149 -25.288 -32.4503 -14.2537 
-17.3634 -32.4503 -15.0752 -9.43886 -32.4503 -15.0782 -1.5143 -32.4503 -14.9631 
6.41025 -32.4503 -15.1076 14.3348 -32.4503 -15.5552 22.2593 -32.4503 -15.4913 
30.1839 -32.4503 -14.0702 38.1085 -32.4503 -13.5046 -49.0616 -24.5257 -12.5164 
-41.1371 -24.5257 -15.2765 -33.2125 -24.5257 -16.1263 -25.288 -24.5257 -15.7813 
-17.3634 -24.5257 -15.2697 -9.43886 -24.5257 -14.5907 -1.5143 -24.5257 -14.9292 
6.41025 -24.5257 -14.8494 14.3348 -24.5257 -15.2535 22.2593 -24.5257 -15.4363 
30.1839 -24.5257 -16.0489 38.1085 -24.5257 -14.3566 46.033 -24.5257 -11.8672 
-56.9862 -16.6012 -12.3615 -49.0616 -16.6012 -15.7661 -41.1371 -16.6012 -16.1193 
-33.2125 -16.6012 -16.4755 -25.288 -16.6012 -16.1572 -17.3634 -16.6012 -15.1109 
-9.43886 -16.6012 -14.2763 -1.5143 -16.6012 -14.5161 6.41025 -16.6012 -14.0073 
14.3348 -16.6012 -14.2633 22.2593 -16.6012 -15.2264 30.1839 -16.6012 -15.4587 
38.1085 -16.6012 -15.3706 46.033 -16.6012 -15.6527 53.9576 -16.6012 -11.2496 
-56.9862 -8.67663 -11.2433 -49.0616 -8.67663 -15.6214 -41.1371 -8.67663 -16.9978 
-33.2125 -8.67663 -16.4928 -25.288 -8.67663 -15.5773 -17.3634 -8.67663 -14.3277 
-9.43886 -8.67663 -15.2768 -1.5143 -8.67663 -16.9014 6.41025 -8.67663 -17.2512 
14.3348 -8.67663 -13.4645 22.2593 -8.67663 -14.1861 30.1839 -8.67663 -15.4184 
38.1085 -8.67663 -16.0629 46.033 -8.67663 -15.4341 53.9576 -8.67663 -12.1801 
-56.9862 -0.752074 -11.8732 -49.0616 -0.752074 -15.7412 -41.1371 -0.752074 -16.6744 
-33.2125 -0.752074 -16.2906 -25.288 -0.752074 -15.2376 -17.3634 -0.752074 -13.7276 
-9.43886 -0.752074 -14.9546 -1.5143 -0.752074 -14.9989 6.41025 -0.752074 -18.3488 
14.3348 -0.752074 -13.6766 22.2593 -0.752074 -14.2406 30.1839 -0.752074 -15.6029 
38.1085 -0.752074 -16.6896 46.033 -0.752074 -15.3625 53.9576 -0.752074 -13.2091 
-56.9862 7.17248 -12.262 -49.0616 7.17248 -15.4259 -41.1371 7.17248 -15.7856 
-33.2125 7.17248 -15.806 -25.288 7.17248 -15.003 -17.3634 7.17248 -13.7785 
-9.43886 7.17248 -14.8285 -1.5143 7.17248 -17.5145 6.41025 7.17248 -15.8625 
14.3348 7.17248 -12.7637 22.2593 7.17248 -14.1695 30.1839 7.17248 -15.5225 
38.1085 7.17248 -16.3869 46.033 7.17248 -15.2806 53.9576 7.17248 -13.2059 
-49.0616 15.097 -12.3583 -41.1371 15.097 -14.3575 -33.2125 15.097 -15.6262 
-25.288 15.097 -15.0869 -17.3634 15.097 -14.5932 -9.43886 15.097 -14.2559 
-1.5143 15.097 -14.0813 6.41025 15.097 -13.4755 14.3348 15.097 -12.709 
22.2593 15.097 -13.6949 30.1839 15.097 -14.5172 38.1085 15.097 -14.5975 
46.033 15.097 -14.1206 -41.1371 23.0216 -12.5313 -33.2125 23.0216 -13.7237 
-25.288 23.0216 -14.5348 -17.3634 23.0216 -14.58 -9.43886 23.0216 -14.2341 
-1.5143 23.0216 -13.5877 6.41025 23.0216 -12.9023 14.3348 23.0216 -12.0974 
22.2593 23.0216 -12.243 30.1839 23.0216 -12.2777 38.1085 23.0216 -11.994 
-25.288 30.9461 -12.6814 -17.3634 30.9461 -12.8581 -9.43886 30.9461 -12.9037 
-1.5143 30.9461 -12.1537 6.41025 30.9461 -11.1324 -33.2125 -40.9378 -11.0894 
-25.288 -40.4543 -11.0894 -17.3634 -42.7189 -11.0894 -9.43886 -44.4802 -11.0894 
-1.5143 -43.7996 -11.0894 6.41025 -44.5951 -11.0894 14.3348 -47.0535 -11.0894 
22.2593 -44.9296 -11.0894 30.1839 -41.2035 -11.0894 -34.4468 -40.3748 -11.0894 
-41.1371 -33.782 -11.0894 32.7859 -40.3748 -11.0894 38.1085 -37.4405 -11.0894 
38.1085 -40.3748 -3.60372 -43.9139 -32.4503 -11.0894 -49.0616 -28.501 -11.0894 
-49.0616 -32.4503 -6.7209 43.7163 -32.4503 -11.0894 46.033 -28.1422 -11.0894 
46.033 -32.4503 -7.8113 -51.9703 -24.5257 -11.0894 -56.9862 -19.9543 -11.0894 
-56.9862 -24.5257 -5.87823 47.3661 -24.5257 -11.0894 53.9576 -17.0143 -11.0894 
-58.632 -16.6012 -11.0894 54.1751 -16.6012 -11.0894 -57.227 -8.67663 -11.0894 
55.8475 -8.67663 -11.0894 61.8821 -8.67663 -5.29408 -58.2102 -0.752074 -11.0894 
-64.9107 -0.752074 -4.57313 57.7398 -0.752074 -11.0894 61.8821 -0.752074 -7.89119 
-58.5699 7.17248 -11.0894 -56.9862 10.6016 -11.0894 58.1393 7.17248 -11.0894 
53.9576 14.1244 -11.0894 61.8821 7.17248 -8.22057 -52.1945 15.097 -11.0894 
-56.9862 15.097 -8.5496 -49.0616 21.0895 -11.0894 53.2548 15.097 -11.0894 
46.033 21.5179 -11.0894 53.9576 15.097 -10.7836 61.8821 15.097 -3.87556 
-47.2551 23.0216 -11.0894 -49.0616 23.0216 -10.5962 -41.1371 27.0848 -11.0894 
-33.2125 30.7084 -11.0894 14.3348 28.2486 -11.0894 22.2593 26.183 -11.0894 
30.1839 25.5438 -11.0894 42.4976 23.0216 -11.0894 38.1085 24.8836 -11.0894 
46.033 23.0216 -10.3089 53.9576 23.0216 -5.52117 -41.1371 30.9461 -9.36197 
-32.8398 30.9461 -11.0894 -33.2125 30.9461 -10.9969 -25.288 33.7524 -11.0894 
-17.3634 34.3044 -11.0894 -9.43886 34.4379 -11.0894 -1.5143 33.2514 -11.0894 
6.97839 30.9461 -11.0894 6.41025 31.0353 -11.0894 14.3348 30.9461 -10.4858 
22.2593 30.9461 -9.2398 30.1839 30.9461 -8.08668 38.1085 30.9461 -6.84017 
-33.2125 38.8707 -3.87561 -25.288 38.8707 -6.90371 -17.3634 38.8707 -7.96319 
-9.43886 38.8707 -8.27306 -1.5143 38.8707 -7.69684 6.41025 38.8707 -6.37009 
14.3348 38.8707 -5.21852 -33.2125 -41.7793 -3.16482 -25.288 -43.9138 -3.16482 
-17.3634 -44.9344 -3.16482 -9.43886 -45.6369 -3.16482 -1.5143 -46.5855 -3.16482 
6.41025 -47.1685 -3.16482 14.3348 -47.4222 -3.16482 22.2593 -46.1117 -3.16482 
30.1839 -44.5111 -3.16482 38.1085 -40.4419 -3.16482 -49.0616 -33.4983 -3.16482 
-36.8803 -40.3748 -3.16482 -41.1371 -38.5692 -3.16482 -33.2125 -40.3748 -1.02507 
-25.288 -40.3748 2.26194 -17.3634 -40.3748 2.9842 -9.43886 -40.3748 3.00122 
-1.5143 -40.3748 3.13857 6.41025 -40.3748 4.10595 22.2593 -40.3748 4.61995 
30.1839 -40.3748 2.10264 38.2034 -40.3748 -3.16482 38.1085 -40.3748 -3.07478 
46.033 -33.8033 -3.16482 -50.3053 -32.4503 -3.16482 -56.9862 -25.8832 -3.16482 
-49.0616 -32.4503 -1.64171 -41.1371 -32.4503 4.42547 -33.2125 -32.4503 4.56837 
47.4296 -32.4503 -3.16482 46.033 -32.4503 -1.48967 -58.0883 -24.5257 -3.16482 
-56.9862 -24.5257 -1.10061 53.7481 -24.5257 -3.16482 46.033 -24.5257 4.22428 
53.9576 -24.2167 -3.16482 -62.2696 -16.6012 -3.16482 58.9594 -16.6012 -3.16482 
61.8821 -10.953 -3.16482 -64.6269 -8.67663 -3.16482 -64.9107 -6.59524 -3.16482 
63.0793 -8.67663 -3.16482 61.8821 -8.67663 2.45138 -65.6463 -0.752074 -3.16482 
-64.9107 2.73899 -3.16482 -64.9107 -0.752074 -0.50127 64.7684 -0.752074 -3.16482 
-63.8219 7.17248 -3.16482 65.1383 7.17248 -3.16482 -61.0805 15.097 -3.16482 
-56.9862 22.29 -3.16482 62.3414 15.097 -3.16482 61.8821 15.8981 -3.16482 
-56.4824 23.0216 -3.16482 -49.0616 30.7453 -3.16482 46.033 30.2208 -3.16482 
56.1436 23.0216 -3.16482 53.9576 25.118 -3.16482 -48.8015 30.9461 -3.16482 
-49.0616 30.9461 -0.211389 -41.1371 35.9487 -3.16482 22.2593 38.7669 -3.16482 
30.1839 36.4804 -3.16482 44.3789 30.9461 -3.16482 38.1085 33.5648 -3.16482 
46.033 30.9461 0.121306 -34.3864 38.8707 -3.16482 -33.2125 39.3297 -3.16482 
-25.288 41.5862 -3.16482 -17.3634 42.8174 -3.16482 -9.43886 43.2194 -3.16482 
-1.5143 42.8553 -3.16482 6.41025 41.6722 -3.16482 21.8885 38.8707 -3.16482 
14.3348 40.4961 -3.16482 22.2593 38.8707 -2.90398 30.1839 38.8707 3.58795 
14.3348 -40.5819 4.75973 -25.288 -35.8389 4.75973 -17.3634 -36.9866 4.75973 
-9.43886 -36.2373 4.75973 -1.5143 -35.8689 4.75973 12.1716 -40.3748 4.75973 
6.41025 -38.413 4.75973 19.5951 -40.3748 4.75973 14.3348 -40.3748 4.90621 
22.2593 -40.0626 4.75973 30.1839 -34.5351 4.75973 38.1085 -33.528 4.75973 
-49.0616 -26.7771 4.75973 -41.1371 -31.5721 4.75973 -32.1734 -32.4503 4.75973 
-33.2125 -32.1037 4.75973 -25.288 -32.4503 6.10966 -17.3634 -32.4503 6.40652 
-9.43886 -32.4503 5.90337 -1.5143 -32.4503 5.6873 6.41025 -32.4503 6.16788 
14.3348 -32.4503 6.94699 22.2593 -32.4503 7.0219 30.1839 -32.4503 5.59925 
39.517 -32.4503 4.75973 38.1085 -32.4503 5.48758 -51.8037 -24.5257 4.75973 
-56.9862 -17.8464 4.75973 -49.0616 -24.5257 6.03955 -41.1371 -24.5257 7.06119 
-33.2125 -24.5257 9.46687 -25.288 -24.5257 8.14089 -17.3634 -24.5257 8.13137 
-9.43886 -24.5257 7.52595 -1.5143 -24.5257 6.8844 6.41025 -24.5257 7.27967 
14.3348 -24.5257 8.50562 22.2593 -24.5257 8.72506 30.1839 -24.5257 8.31229 
44.7637 -24.5257 4.75973 38.1085 -24.5257 8.08262 46.033 -23.7066 4.75973 
53.9576 -18.9924 4.75973 -57.6531 -16.6012 4.75973 -56.9862 -16.6012 5.258 
-49.0616 -16.6012 8.2127 -41.1371 -16.6012 9.76166 -33.2125 -16.6012 9.75947 
-25.288 -16.6012 9.44586 -17.3634 -16.6012 8.6119 -9.43886 -16.6012 8.07255 
-1.5143 -16.6012 7.53129 6.41025 -16.6012 7.98085 14.3348 -16.6012 9.17892 
22.2593 -16.6012 11.0316 30.1839 -16.6012 12.293 38.1085 -16.6012 11.9694 
46.033 -16.6012 11.2891 56.0291 -16.6012 4.75973 53.9576 -16.6012 6.95597 
-59.4611 -8.67663 4.75973 -56.9862 -8.67663 6.60017 -49.0616 -8.67663 10.1434 
-41.1371 -8.67663 11.2476 -33.2125 -8.67663 11.2868 -25.288 -8.67663 10.6771 
-17.3634 -8.67663 8.72488 -9.43886 -8.67663 9.05327 61.1924 -8.67663 4.75973 
53.9576 -8.67663 11.3767 61.8821 -7.53496 4.75973 -62.2522 -0.752074 4.75973 
-56.9862 -0.752074 8.72505 -49.0616 -0.752074 11.3339 -25.288 -0.752074 12.4044 
-17.3634 -0.752074 11.1992 64.4542 -0.752074 4.75973 61.8821 -0.752074 8.73784 
-61.5196 7.17248 4.75973 -56.9862 7.17248 9.27869 -49.0616 7.17248 12.3409 
65.2312 7.17248 4.75973 61.8821 7.17248 10.425 -60.5938 15.097 4.75973 
-56.9862 22.2268 4.75973 -56.9862 15.097 8.71057 -49.0616 15.097 12.2389 
62.3795 15.097 4.75973 61.8821 16.0302 4.75973 61.8821 15.097 5.65553 
-56.3933 23.0216 4.75973 -49.0616 23.0216 10.3574 56.9995 23.0216 4.75973 
53.9576 26.1077 4.75973 53.9576 23.0216 9.34547 -49.3951 30.9461 4.75973 
-49.0616 31.2435 4.75973 -49.0616 30.9461 5.20807 -41.1371 36.712 4.75973 
-41.1371 30.9461 11.0954 38.1085 35.8311 4.75973 47.5399 30.9461 4.75973 
46.033 31.8685 4.75973 46.033 30.9461 6.95373 -37.0018 38.8707 4.75973 
[...]
POINT_DATA 528
SCALARS ImageScalars float
LOOKUP_TABLE default
0 0 0 0 0 0 0 0 0 
0 0 0 0 0 0 0 0 0 
0 0 0 0 0 0 0 0 0 
0 0 0 0 0 0 0 0 0 
0 0 0 0 0 0 0 0 0 
0 0 0 0 0 0 0 0 0 
0 0 0 0 0 0 0 0 0 
0 0 0 0 0 0 0 0 0 
0 0 0 0 0 0 0 0 0 
0 0 0 0 0 0 0 0 0 
0 0 0 0 0 0 0 0 0 
0 0 0 0 0 0 0 0 0 
0 0 0 0 0 0 0 0 0 
0 0 0 0 0 0 0 0 0 
0 0 0 0 0 0 0 0 0 
0 0 0 0 0 0 0 0 0 
0 0 0 0 0 0 0 0 0 
0 0 0 0 0 0 0 0 0 
0 0 0 0 0 0 0 0 0 
0 0 0 0 0 0 0 0 0 
0 0 0 0 0 0 0 0 0 
0 0 0 0 0 0 0 0 0 
0 0 0 0 0 0 0 0 0 
0 0 0 0 0 0 0 0 0 
0 0 0 0 0 0 0 0 0 
0 0 0 0 0 0 0 0 0 
0 0 0 0 0 0 0 0 0 
0 0 0 0 0 0 0 0 0 
0 0 0 0 0 0 0 0 0 
0 0 0 0 0 0 0 0 0 
0 0 0 0 0 0 0 0 0 
0 0 0 0 0 0 0 0 0 
0 0 0 0 0 0 0 0 0 
0 0 0 0 0 0 0 0 0 
0 0 0 0 0 0 0 0 0 
0 0 0 0 0 0 0 0 0 
0 0 0 0 0 0 0 0 0 
0 0 0 0 0 0 0 0 0 
0 0 0 0 0 0 0 0 0 
0 0 0 0 0 0 0 0 0 
0 0 0 0 0 0 0 0 0 
0 0 0 0 0 0 0 0 0 
0 0 0 0 0 0 0 0 0 
0 0 0 0 0 0 0 0 0 
0 0 0 0 0 0 0 0 0 
0 0 0 0 0 0 0 0 0 
0 0 0 0 0 0 0 0 0 
0 0 0 0 0 0 0 0 0 
0 0 0 0 0 0 0 0 0 
0 0 0 0 0 0 0 0 0 
0 0 0 0 0 0 0 0 0 
0 0 0 0 0 0 0 0 0 
0 0 0 0 0 0 0 0 0 
0 0 0 0 0 0 0 0 0 
0 0 0 0 0 0 0 0 0 
0 0 0 0 0 0 0 0 0 
0 0 0 0 0 0 0 0 0 
0 0 0 0 0 0 0 0 0 
0 0 0 0 0 0 
NORMALS Normals float
-0.216626 -0.721603 -0.657542 -0.0539088 -0.636267 -0.769583 -0.15115 -0.481967 -0.863054 
-0.0806248 -0.458662 -0.884946 -0.0125613 -0.456834 -0.889463 -0.0768752 -0.417679 -0.905337 
-0.0470142 -0.365986 -0.929432 0.135895 -0.444467 -0.885427 0.283989 -0.56202 -0.776842 
-0.337881 -0.559105 -0.757125 -0.105926 -0.298635 -0.948471 -0.0484535 -0.269882 -0.961674 
-0.0560415 -0.229285 -0.971745 0.00748958 -0.0894576 -0.995963 -0.00094698 -0.106482 -0.994314 
-0.0457885 -0.0801044 -0.995734 -0.0252705 -0.0811215 -0.996384 0.103226 -0.0596308 -0.992869 
0.118309 -0.250882 -0.960761 0.292082 -0.335287 -0.895696 -0.453572 -0.352381 -0.818597 
-0.187214 -0.201554 -0.961419 -0.0443311 -0.163973 -0.985468 0.0543007 -0.116108 -0.991751 
0.0773089 -0.00104542 -0.997007 0.0221606 0.0566683 -0.998147 -0.0174409 0.0297921 -0.999404 
-0.021503 0.0728256 -0.997113 -0.0373403 0.0856552 -0.995625 -0.0500957 0.0168948 -0.998601 
0.0679354 -0.0847054 -0.994087 0.226475 -0.10287 -0.96857 0.424666 -0.301776 -0.853575 
-0.556534 -0.14282 -0.818457 -0.295853 -0.169922 -0.939999 -0.0412318 -0.119659 -0.991958 
-0.00183378 -0.021953 -0.999757 0.0862761 0.0127703 -0.996189 0.118632 0.0592329 -0.99117 
0.0374362 -0.0368357 -0.99862 0.0176654 -0.123873 -0.992141 0.0160201 -0.09094 -0.995727 
-0.0764413 0.104238 -0.99161 -0.076295 0.0796763 -0.993897 -0.00925692 0.0385037 -0.999216 
-0.00772892 -0.106379 -0.994296 0.263463 -0.1668 -0.950139 0.57519 -0.24244 -0.781268 
-0.555327 0.0440259 -0.830466 -0.28938 -0.00174442 -0.957213 -0.0652385 -0.0347793 -0.997263 
0.0881034 0.0116129 -0.996044 0.135564 0.0575277 -0.989097 0.0249623 0.0881679 -0.995793 
-0.172826 -0.0537783 -0.983483 -0.111598 -0.0518771 -0.992398 0.214716 -0.313474 -0.925003 
0.135896 0.0466564 -0.989624 -0.115415 0.0619662 -0.991383 -0.116754 -0.00901891 -0.99312 
0.00518945 -0.082823 -0.996551 0.196999 0.0139299 -0.980305 0.478297 -0.115532 -0.870566 
-0.537683 -0.0590209 -0.841079 -0.23587 0.00758597 -0.971755 -0.0460231 0.0762032 -0.99603 
0.0893423 0.0428066 -0.995081 0.159804 0.0358048 -0.986499 0.0431952 0.0356075 -0.998432 
-0.0967678 0.0299432 -0.994856 -0.202866 -0.0236254 -0.978922 0.0246688 0.0778318 -0.996661 
0.256197 0.0566555 -0.964963 -0.109695 0.00100221 -0.993965 -0.151475 -0.00650981 -0.98844 
0.0144728 -0.0205188 -0.999685 0.18952 0.00997356 -0.981826 0.365968 -0.0566175 -0.928904 
-0.524379 0.125443 -0.842194 -0.244968 0.194707 -0.949779 -0.0201266 0.144179 -0.989347 
0.0494148 0.0416428 -0.99791 0.126508 0.00939358 -0.991921 0.0255419 -0.0553007 -0.998143 
-0.242747 0.0477198 -0.968915 -0.0624921 0.0902059 -0.993961 0.313538 0.308059 -0.898217 
0.0572301 0.0434754 -0.997414 -0.172943 0.0338206 -0.984351 -0.136237 0.0672774 -0.988389 
0.0138975 0.129448 -0.991489 0.179828 0.0679652 -0.981347 0.336898 0.13939 -0.931166 
-0.283604 0.273611 -0.919079 -0.180853 0.179095 -0.967066 -0.044024 0.126454 -0.990995 
0.0638325 0.0308999 -0.997482 0.0522314 -0.0502375 -0.997371 0.032178 0.0296476 -0.999042 
0.0496536 0.2195 -0.974348 0.0877381 0.149066 -0.984927 -0.013274 0.0413769 -0.999055 
-0.113493 0.116715 -0.98666 -0.0555809 0.19539 -0.979149 0.0210929 0.250042 -0.968005 
0.215907 0.283699 -0.934291 -0.199541 0.29082 -0.935739 -0.113725 0.254861 -0.960267 
-0.0511323 0.148789 -0.987546 0.0190019 0.101979 -0.994605 0.0612372 0.0764406 -0.995192 
0.0841406 0.119167 -0.989303 0.0923177 0.137983 -0.986123 0.0417973 0.13297 -0.990238 
-0.0112643 0.260026 -0.965536 0.012942 0.355655 -0.934528 0.109167 0.3833 -0.91715 
-0.0984538 0.385972 -0.917242 -0.0140018 0.341719 -0.939698 0.0442713 0.309135 -0.949987 
0.100485 0.299104 -0.948915 0.0988195 0.336447 -0.936503 -0.219366 -0.775153 -0.592466 
-0.0570479 -0.641682 -0.764846 -0.184819 -0.632987 -0.751777 -0.0383285 -0.759106 -0.649837 
-0.0014358 -0.720107 -0.693861 -0.145684 -0.719559 -0.678978 -0.0162885 -0.818225 -0.574667 
0.263798 -0.757546 -0.597105 0.291164 -0.609928 -0.737028 -0.258985 -0.74269 -0.617525 
-0.376561 -0.593382 -0.711406 0.335172 -0.608858 -0.718994 0.395036 -0.563862 -0.725263 
0.526542 -0.824688 0.206502 -0.402405 -0.572608 -0.714276 -0.492712 -0.458624 -0.739526 
-0.626805 -0.752336 -0.202747 0.515556 -0.422927 -0.745208 0.504686 -0.362203 -0.783646 
0.71287 -0.626524 -0.315094 -0.528057 -0.403237 -0.747366 -0.604867 -0.298996 -0.738063 
-0.774579 -0.601629 -0.195117 0.465177 -0.317965 -0.826141 0.580136 -0.252014 -0.774552 
-0.649269 -0.174497 -0.740271 0.582793 -0.246282 -0.774401 -0.56291 0.042101 -0.825445 
0.554374 -0.139686 -0.820462 0.888438 -0.352634 -0.293815 -0.574236 -0.0517432 -0.817053 
-0.973538 0.0553749 -0.221717 0.54114 -0.0740413 -0.837667 0.824704 -0.105278 -0.555679 
-0.587938 0.158304 -0.793265 -0.554732 0.276117 -0.784877 0.542187 0.154395 -0.825951 
0.425769 0.302833 -0.85265 0.794494 0.175154 -0.581464 -0.409426 0.339168 -0.846957 
-0.654977 0.468468 -0.592911 -0.37379 0.350196 -0.858862 0.416258 0.324598 -0.849333 
0.258123 0.467961 -0.845213 0.440389 0.33354 -0.833552 0.839363 0.423882 -0.340285 
-0.349772 0.360668 -0.864626 -0.409213 0.395227 -0.822399 -0.258442 0.405887 -0.876621 
-0.178664 0.438178 -0.880953 0.0871847 0.265746 -0.960093 0.0437013 0.336763 -0.940575 
0.031334 0.415233 -0.909175 0.198019 0.452618 -0.86944 0.133257 0.427361 -0.894206 
0.28041 0.522113 -0.805461 0.579664 0.667342 -0.467594 -0.353828 0.572162 -0.73989 
-0.176133 0.441856 -0.879625 -0.18098 0.446972 -0.876049 -0.114714 0.496527 -0.860408 
-0.0246223 0.471511 -0.881516 0.0310492 0.455449 -0.88972 0.0981133 0.388283 -0.916303 
0.0995067 0.3367 -0.936339 0.0989351 0.33962 -0.935345 0.111702 0.348896 -0.930481 
0.130822 0.473725 -0.870902 0.118199 0.593109 -0.796398 0.258378 0.71964 -0.644484 
-0.319694 0.85747 -0.403164 -0.168233 0.781971 -0.600183 -0.066122 0.719631 -0.691201 
0.0143521 0.692965 -0.720829 0.0955105 0.687151 -0.720209 0.124021 0.720644 -0.682122 
0.161095 0.769773 -0.617655 -0.329863 -0.918267 0.219034 -0.204028 -0.973884 0.0996167 
-0.117038 -0.955544 0.270626 -0.0942201 -0.939323 0.329839 -0.100056 -0.97593 0.193778 
-0.0449819 -0.94773 0.315888 0.0612784 -0.928645 0.365872 0.177389 -0.942147 0.284415 
0.327858 -0.938488 0.108395 0.521432 -0.81883 0.240055 -0.614268 -0.77897 0.126016 
-0.385878 -0.891131 0.238714 -0.458058 -0.871732 0.17397 -0.355825 -0.83851 0.412661 
-0.191038 -0.662506 0.724286 -0.0330885 -0.658824 0.751569 -0.00754274 -0.611295 0.791367 
-0.0547912 -0.468999 0.881498 -0.0822768 -0.519153 0.850712 0.135132 -0.529892 0.83723 
0.351678 -0.571175 0.741675 0.523094 -0.817291 0.24168 0.521951 -0.816598 0.246443 
0.686215 -0.703551 0.184728 -0.633566 -0.758039 0.154827 -0.781615 -0.620187 0.0666817 
-0.631199 -0.73619 0.244155 -0.279234 -0.615103 0.737344 -0.0921703 -0.479812 0.872517 
0.711681 -0.688796 0.138096 0.664845 -0.697263 0.267965 -0.809337 -0.585012 0.0523001 
-0.777184 -0.604834 0.17367 0.826029 -0.562569 0.0345169 0.407137 -0.517685 0.75249 
0.828493 -0.559241 0.0291334 -0.920065 -0.390152 0.0355326 0.863623 -0.496414 -0.0879089 
0.904923 -0.401572 -0.140903 -0.977767 -0.200186 -0.0624222 -0.987233 -0.13802 -0.0795104 
0.919059 -0.358185 -0.164419 0.840623 -0.4647 0.278222 -0.992902 0.0436072 -0.110654 
-0.976949 0.144289 -0.157326 -0.99337 0.0152814 0.113937 0.961664 -0.118173 -0.247462 
-0.944725 0.27231 -0.182599 0.943996 0.153761 -0.291942 -0.870899 0.421699 -0.252399 
-0.772166 0.560448 -0.299429 0.85707 0.421887 -0.295707 0.842324 0.449816 -0.296909 
-0.762333 0.574237 -0.298498 -0.609323 0.721662 -0.328526 0.404753 0.817255 -0.410207 
0.655691 0.680639 -0.326801 0.604741 0.714257 -0.352315 -0.604262 0.725397 -0.329646 
-0.650799 0.748142 -0.129398 -0.455157 0.816445 -0.355316 0.210526 0.829517 -0.517282 
0.269365 0.797251 -0.540216 0.379888 0.827521 -0.413393 0.325562 0.844232 -0.425772 
0.463187 0.863752 -0.198472 -0.341493 0.866126 -0.364977 -0.319571 0.874865 -0.363986 
-0.203451 0.904316 -0.375261 -0.104705 0.894819 -0.433976 -0.00258863 0.890521 -0.454935 
0.0900879 0.869761 -0.48518 0.141793 0.845557 -0.514712 0.209172 0.831538 -0.514579 
0.170841 0.846987 -0.503415 0.21232 0.841364 -0.497018 0.315559 0.948903 -0.00217132 
-0.0217296 -0.50991 0.859953 -0.135676 -0.388897 0.911236 -0.012524 -0.453783 0.891024 
0.0220346 -0.384975 0.922664 -0.0303113 -0.277973 0.960111 -0.0383194 -0.50006 0.865142 
-0.0807728 -0.422028 0.902977 0.0823174 -0.517984 0.85142 -0.0218857 -0.501752 0.864735 
0.133467 -0.513801 0.847464 0.141691 -0.343742 0.928313 0.283288 -0.45809 0.842557 
-0.372239 -0.423975 0.825641 -0.255447 -0.578596 0.77458 -0.091726 -0.454835 0.885839 
-0.0894534 -0.467224 0.879602 -0.105468 -0.334074 0.936628 0.0137031 -0.297631 0.954583 
0.042579 -0.253277 0.966456 -0.0161283 -0.216635 0.97612 -0.0760071 -0.203483 0.976124 
-0.0516277 -0.245893 0.967921 0.0743306 -0.275855 0.958321 0.0897277 -0.344844 0.934361 
0.285413 -0.472179 0.834018 0.242514 -0.436891 0.866206 -0.427808 -0.468083 0.773226 
-0.559524 -0.318475 0.765184 -0.263027 -0.369729 0.891133 -0.227163 -0.325952 0.917689 
-0.0400875 -0.278839 0.959501 0.0694322 -0.197794 0.977781 0.0368864 -0.128316 0.991047 
0.0788145 -0.130799 0.988271 0.0127932 -0.105915 0.994293 -0.0983707 -0.106579 0.989426 
-0.0922489 -0.12878 0.987373 0.010471 -0.23215 0.972624 0.0354489 -0.359751 0.932375 
0.358492 -0.477447 0.802201 0.185664 -0.398532 0.898165 0.371109 -0.509526 0.776313 
0.590932 -0.531613 0.606784 -0.556821 -0.277796 0.782802 -0.523836 -0.258395 0.811682 
-0.325362 -0.308978 0.893685 -0.0706765 -0.219323 0.973089 0.0213405 -0.111274 0.993561 
0.069419 -0.151633 0.985996 0.0890464 -0.0365595 0.995356 0.0656916 -0.0752794 0.994996 
0.00683898 -0.268618 0.963223 -0.0970604 -0.268642 0.958338 -0.190537 -0.307904 0.932143 
-0.186167 -0.440391 0.878292 -0.0554377 -0.480083 0.87547 0.0462638 -0.484767 0.873419 
0.231194 -0.535146 0.812507 0.641348 -0.551264 0.533648 0.55531 -0.542688 0.630175 
-0.677478 -0.208485 0.705377 -0.538362 -0.208027 0.816634 -0.227995 -0.161895 0.960108 
-0.080912 -0.264531 0.960977 0.0355017 -0.215883 0.975774 0.156642 -0.187469 0.9697 
0.112527 -0.153568 0.98171 -0.220992 -0.326571 0.918974 0.743937 -0.478503 0.466469 
0.521821 -0.401306 0.752766 0.781137 -0.442845 0.440129 -0.738885 -0.0750467 0.66964 
-0.53705 -0.144671 0.831052 -0.281141 -0.148795 0.948061 0.123328 -0.289627 0.949161 
-0.0807252 -0.496028 0.864546 0.926212 -0.192427 0.324195 0.799939 -0.245207 0.547696 
-0.821456 0.0898173 0.563154 -0.666189 0.00462356 0.745768 -0.256854 -0.057875 0.964716 
0.955686 0.128628 0.264799 0.785164 0.0942247 0.612078 -0.858729 0.284134 0.426441 
-0.775383 0.525776 0.349772 -0.666655 0.220677 0.71195 -0.345492 0.103359 0.932712 
0.874262 0.413523 0.254294 0.860588 0.442976 0.251318 0.858663 0.413575 0.302743 
-0.758798 0.551169 0.347043 -0.567008 0.32105 0.758571 0.724674 0.659419 0.200037 
0.667547 0.721335 0.184542 0.641871 0.598749 0.479063 -0.659198 0.707807 0.253904 
-0.654209 0.713031 0.252183 -0.654075 0.700393 0.285719 -0.521271 0.82233 0.228142 
-0.471409 0.552176 0.687659 0.414162 0.908089 0.0620082 0.538769 0.835072 0.111277 
0.511138 0.853861 0.0982805 0.510615 0.826661 0.236438 -0.411843 0.889894 0.196147 
-0.31801 0.928171 0.193308 -0.328839 0.872686 0.36095 -0.239944 0.960381 0.141757 
-0.264932 0.716257 0.64559 -0.15465 0.979231 0.131111 -0.0344959 0.992954 0.11337 
0.063427 0.993023 0.0994067 0.140524 0.985993 0.0898428 0.174608 0.981766 0.0751567 
0.219999 0.973544 0.0617421 0.213347 0.879401 0.425602 0.321824 0.94408 0.0717149 
0.312836 0.946796 0.0755774 0.310382 0.942584 0.123285 -0.197565 -0.526376 0.82698 
-0.0840934 -0.671128 0.736556 -0.18512 -0.528025 0.828806 -0.175428 -0.49672 0.849997 
-0.0563793 -0.485005 0.872692 0.0421779 -0.489527 0.870968 0.244954 -0.491053 0.835981 
-0.102472 -0.213282 0.971602 0.064891 -0.223065 0.972641 -0.213438 -0.528819 0.821459 
-0.363095 -0.628275 0.688064 -0.203447 -0.531345 0.822364 -0.0963754 -0.699338 0.708264 
-0.16986 -0.569697 0.80411 -0.133725 -0.512757 0.848056 -0.012598 -0.511666 0.859092 
0.115672 -0.499753 0.85841 0.447772 -0.396437 0.80146 0.298592 -0.419926 0.857033 
0.504979 -0.341699 0.792615 -0.169524 -0.167521 0.971184 -0.103016 -0.166089 0.980715 
0.106061 -0.267594 0.957676 0.069287 -0.226024 0.971655 0.102652 -0.291669 0.950995 
-0.244857 -0.594238 0.766111 -0.173363 -0.497463 0.849986 -0.372383 -0.582157 0.722789 
-0.226434 -0.560264 0.796764 0.033804 -0.485213 0.873742 0.00699288 -0.218562 0.975798 
-0.147742 -0.165649 0.975055 0.315194 -0.255232 0.914062 0.588308 -0.248545 0.769493 
0.498374 -0.234475 0.834652 -0.232346 -0.0573898 0.970939 -0.159082 -0.0760848 0.984329 
-0.0614849 -0.194865 0.978901 -0.0878931 -0.307792 0.947385 -0.235954 -0.412368 0.879931 
-0.254809 -0.187255 0.948687 0.125187 -0.129424 0.983655 -0.162112 -0.0181122 0.986606 
0.298431 0.0492414 0.95316 0.647821 0.064731 0.759038 0.481409 0.0238042 0.876173 
-0.316215 0.068076 0.946242 -0.233354 -0.0368849 0.971692 -0.177821 -0.101881 0.978775 
-0.173197 -0.19537 0.965315 -0.153474 -0.18742 0.970216 -0.114286 -0.110281 0.987308 
0.108713 -0.0785299 0.990966 0.00504991 0.0330664 0.99944 0.0217911 0.151734 0.988181 
0.144611 0.192394 0.970604 0.290861 0.283299 0.913861 0.597317 0.322474 0.734318 
0.563999 0.402654 0.720955 0.533886 0.296999 0.79168 -0.449379 0.211677 0.867901 
-0.418557 0.40016 0.81528 -0.32955 0.151417 0.931917 -0.234222 0.07607 0.969202 
-0.207466 0.042061 0.977337 -0.137374 0.0284071 0.990112 0.0753498 0.128196 0.988882 
0.0789647 0.170789 0.982138 0.0986414 0.254068 0.962143 0.231003 0.37736 0.896793 
0.494453 0.486465 0.720325 0.422895 0.575456 0.700008 0.383473 0.423959 0.820492 
-0.402127 0.477575 0.781163 -0.318674 0.574107 0.75422 -0.280694 0.374678 0.883644 
-0.259083 0.666989 0.698571 -0.204013 0.336082 0.919472 -0.141238 0.312537 0.939347 
-0.0318356 0.323498 0.945693 0.0380937 0.339264 0.939919 0.0607205 0.394099 0.91706 
0.0772131 0.398827 0.91377 0.192911 0.73066 0.654921 0.126011 0.449282 0.884458 
0.256375 0.683186 0.683761 0.241999 0.537385 0.80787 0.317158 0.617485 0.719808 
0.308285 0.618392 0.722877 0.304278 0.606996 0.734147 -0.234651 0.692939 0.681744 
-0.1236 0.739077 0.662184 -0.127869 0.682324 0.71978 -0.0302379 0.754522 0.655577 
-0.0261999 0.677467 0.735086 0.0568365 0.75148 0.657304 0.0563068 0.678172 0.732743 
0.0955944 0.738733 0.667185 0.089229 0.705378 0.703193 0.13527 0.762609 0.632558 
0.127026 0.763138 0.633628 0.125862 0.75621 0.64211 -0.04824 -0.235071 0.97078 
0.111094 -0.242995 0.963645 -0.227322 -0.237863 0.944323 0.0449509 -0.460534 0.886503 
-0.0726204 -0.20335 0.976409 -0.0523938 -0.214608 0.975294 0.123235 -0.235228 0.964096 
0.110335 -0.232811 0.966243 -0.234937 -0.137524 0.962233 -0.235538 -0.130869 0.963013 
0.140695 -0.114364 0.983425 0.152041 -0.0775495 0.985327 -0.136382 -0.0052568 0.990642 
0.00514871 0.129288 0.991594 -0.063408 0.0284872 0.997581 0.203321 0.0518649 0.977738 
0.116277 0.116991 0.986303 0.0965535 0.053581 0.993885 -0.114666 -0.045685 0.992353 
-0.0660307 0.0149209 0.997706 -0.114287 0.0197647 0.993251 0.103026 -0.063871 0.992626 
0.0379706 0.100668 0.994195 -0.069005 0.0471007 0.996504 -0.0487973 0.0786073 0.995711 
-0.0514119 0.0523359 0.997305 -0.00247739 0.14445 0.989509 -0.00878378 0.113293 0.993523 
0.0536339 0.16457 0.984906 0.0360781 0.222079 0.974361 0.0339989 0.198069 0.979598 

