# vtk DataFile Version 4.2
vtk output
ASCII
DATASET POLYDATA
POINTS 512 float
-21.2084 -41.783 -12.6752 -12.6272 -41.783 -13.0868 -46.9518 -33.2019 -12.6987 
-38.3707 -33.2019 -13.74 -29.7895 -33.2019 -15.0342 -21.2084 -33.2019 -16.3612 
-12.6272 -33.2019 -15.7762 -4.04606 -33.2019 -14.7456 4.53509 -33.2019 -14.2429 
-55.533 -24.6207 -13.3696 -46.9518 -24.6207 -15.4642 -38.3707 -24.6207 -15.9791 
-29.7895 -24.6207 -16.9287 -21.2084 -24.6207 -17.1956 -12.6272 -24.6207 -16.7777 
-4.04606 -24.6207 -15.9773 4.53509 -24.6207 -15.7404 13.1162 -24.6207 -15.5271 
21.6974 -24.6207 -14.5163 30.2785 -24.6207 -14.5337 38.8597 -24.6207 -14.0846 
47.4408 -24.6207 -13.6868 -55.533 -16.0396 -15.5541 -46.9518 -16.0396 -16.7835 
-38.3707 -16.0396 -18.062 -29.7895 -16.0396 -17.0861 -21.2084 -16.0396 -16.6308 
-12.6272 -16.0396 -17.0085 -4.04606 -16.0396 -16.7729 4.53509 -16.0396 -17.2323 
13.1162 -16.0396 -17.3059 21.6974 -16.0396 -16.3489 30.2785 -16.0396 -17.1858 
38.8597 -16.0396 -18.5167 47.4408 -16.0396 -17.9999 56.022 -16.0396 -16.758 
64.6031 -16.0396 -12.7788 -64.1141 -7.45841 -13.1366 -55.533 -7.45841 -18.7004 
-46.9518 -7.45841 -18.4292 -38.3707 -7.45841 -18.1599 -29.7895 -7.45841 -16.8624 
-21.2084 -7.45841 -15.6619 -12.6272 -7.45841 -18.787 -4.04606 -7.45841 -18.2479 
4.53509 -7.45841 -18.3081 13.1162 -7.45841 -17.0734 21.6974 -7.45841 -15.9209 
30.2785 -7.45841 -17.8522 38.8597 -7.45841 -19.2188 47.4408 -7.45841 -19.9635 
56.022 -7.45841 -18.902 64.6031 -7.45841 -15.8269 -64.1141 1.12274 -14.1285 
-55.533 1.12274 -17.9306 -46.9518 1.12274 -19.3303 -38.3707 1.12274 -18.6817 
-29.7895 1.12274 -17.572 -21.2084 1.12274 -16.1536 -12.6272 1.12274 -19.7382 
-4.04606 1.12274 -17.2462 4.53509 1.12274 -18.0049 13.1162 1.12274 -19.5907 
21.6974 1.12274 -16.8408 30.2785 1.12274 -18.6772 38.8597 1.12274 -20.0275 
47.4408 1.12274 -21.1169 56.022 1.12274 -18.8747 64.6031 1.12274 -16.0987 
-64.1141 9.70389 -12.9882 -55.533 9.70389 -17.4251 -46.9518 9.70389 -19.2254 
-38.3707 9.70389 -18.91 -29.7895 9.70389 -18.1209 -21.2084 9.70389 -16.9491 
-12.6272 9.70389 -16.3893 -4.04606 9.70389 -18.1371 4.53509 9.70389 -17.9782 
13.1162 9.70389 -18.0898 21.6974 9.70389 -18.2578 30.2785 9.70389 -19.4736 
38.8597 9.70389 -20.1315 47.4408 9.70389 -20.5121 56.022 9.70389 -18.9208 
64.6031 9.70389 -15.2583 -55.533 18.285 -16.2351 -46.9518 18.285 -17.8957 
-38.3707 18.285 -18.7738 -29.7895 18.285 -19.0148 -21.2084 18.285 -18.1451 
-12.6272 18.285 -17.4416 -4.04606 18.285 -18.0946 4.53509 18.285 -17.1629 
13.1162 18.285 -16.6013 21.6974 18.285 -17.9981 30.2785 18.285 -19.5255 
38.8597 18.285 -19.1576 47.4408 18.285 -18.7592 56.022 18.285 -17.6284 
-55.533 26.8662 -14.4184 -46.9518 26.8662 -16.2599 -38.3707 26.8662 -18.2973 
-29.7895 26.8662 -18.0725 -21.2084 26.8662 -18.5049 -12.6272 26.8662 -17.9028 
-4.04606 26.8662 -18.3274 4.53509 26.8662 -16.8629 13.1162 26.8662 -15.7236 
21.6974 26.8662 -16.1826 30.2785 26.8662 -16.7133 38.8597 26.8662 -16.5639 
47.4408 26.8662 -15.1036 -46.9518 35.4473 -12.9552 -38.3707 35.4473 -14.5752 
-29.7895 35.4473 -16.2455 -21.2084 35.4473 -16.5604 -12.6272 35.4473 -16.5193 
-4.04606 35.4473 -16.3458 4.53509 35.4473 -14.7789 13.1162 35.4473 -12.8614 
-21.2084 -41.864 -12.6216 -12.6272 -42.5419 -12.6216 -46.9518 -33.3009 -12.6216 
-38.3707 -35.0947 -12.6216 -38.3707 -41.783 -5.58789 -21.4728 -41.783 -12.6216 
-29.7895 -38.2377 -12.6216 -29.7895 -41.783 -10.1763 -6.22253 -41.783 -12.6216 
-4.04606 -41.1884 -12.6216 -4.04606 -41.783 -12.4303 4.53509 -37.2894 -12.6216 
4.53509 -41.783 -10.3021 13.1162 -41.783 -5.95554 -47.0866 -33.2019 -12.6216 
-55.533 -25.7142 -12.6216 11.805 -33.2019 -12.6216 13.1162 -32.3779 -12.6216 
13.1162 -33.2019 -12.269 21.6974 -27.9775 -12.6216 21.6974 -33.2019 -8.75632 
30.2785 -27.1059 -12.6216 30.2785 -33.2019 -6.14504 38.8597 -26.6691 -12.6216 
47.4408 -25.6483 -12.6216 -56.7558 -24.6207 -12.6216 51.2858 -24.6207 -12.6216 
56.022 -22.5825 -12.6216 56.022 -24.6207 -10.5463 64.6031 -16.2627 -12.6216 
-63.1441 -16.0396 -12.6216 -64.1141 -12.5263 -12.6216 -64.1141 -16.0396 -12.074 
64.8003 -16.0396 -12.6216 -64.9012 -7.45841 -12.6216 68.9248 -7.45841 -12.6216 
73.1843 -7.45841 -5.57835 -66.542 1.12274 -12.6216 -72.6953 1.12274 -6.58173 
69.2272 1.12274 -12.6216 73.1843 1.12274 -5.94212 -64.6385 9.70389 -12.6216 
-64.1141 12.6647 -12.6216 67.7366 9.70389 -12.6216 64.6031 18.1435 -12.6216 
-62.7199 18.285 -12.6216 -64.1141 18.285 -11.5234 64.5254 18.285 -12.6216 
56.022 26.6984 -12.6216 64.6031 18.285 -12.5381 -58.1438 26.8662 -12.6216 
-55.533 29.406 -12.6216 21.6974 35.354 -12.6216 30.2785 34.4566 -12.6216 
38.8597 33.7166 -12.6216 55.7334 26.8662 -12.6216 47.4408 30.2526 -12.6216 
56.022 26.8662 -12.4209 -47.4939 35.4473 -12.6216 -46.9518 35.7888 -12.6216 
-38.3707 38.0153 -12.6216 -29.7895 40.2345 -12.6216 -21.2084 40.6067 -12.6216 
-12.6272 41.5605 -12.6216 -4.04606 41.6332 -12.6216 4.53509 39.182 -12.6216 
20.4114 35.4473 -12.6216 13.1162 35.8246 -12.6216 21.6974 35.4473 -12.57 
30.2785 35.4473 -11.8331 38.8597 35.4473 -10.5236 -29.7895 44.0285 -5.34906 
-21.2084 44.0285 -7.32855 -12.6272 44.0285 -9.25978 -4.04606 44.0285 -9.96469 
4.53509 44.0285 -8.19517 13.1162 44.0285 -5.82934 -38.3707 -42.4733 -4.04041 
-29.7895 -45.9612 -4.04041 -21.2084 -48.3239 -4.04041 -12.6272 -49.5507 -4.04041 
-4.04606 -49.7432 -4.04041 4.53509 -47.9159 -4.04041 13.1162 -43.8369 -4.04041 
-39.62 -41.783 -4.04041 -46.9518 -37.5118 -4.04041 -38.3707 -41.783 -1.23791 
15.7632 -41.783 -4.04041 21.6974 -37.7586 -4.04041 21.6974 -41.783 4.37697 
30.2785 -34.7471 -4.04041 -53.3028 -33.2019 -4.04041 -55.533 -31.4262 -4.04041 
36.2718 -33.2019 -4.04041 38.8597 -32.5985 -4.04041 38.8597 -33.2019 -1.87831 
47.4408 -31.0249 -4.04041 56.022 -28.504 -4.04041 -63.2103 -24.6207 -4.04041 
-64.1141 -23.5853 -4.04041 61.2913 -24.6207 -4.04041 64.6031 -21.9741 -4.04041 
-69.5288 -16.0396 -4.04041 69.5545 -16.0396 -4.04041 73.1843 -8.67568 -4.04041 
-72.5924 -7.45841 -4.04041 -72.6953 -6.90564 -4.04041 73.7133 -7.45841 -4.04041 
73.1843 -7.45841 -2.12004 -74.0199 1.12274 -4.04041 -72.6953 7.34922 -4.04041 
-72.6953 1.12274 1.60347 73.8581 1.12274 -4.04041 73.1843 5.37718 -4.04041 
73.1843 1.12274 -1.68096 -72.1371 9.70389 -4.04041 72.4282 9.70389 -4.04041 
-68.5803 18.285 -4.04041 -64.1141 25.735 -4.04041 68.3508 18.285 -4.04041 
64.6031 23 -4.04041 -63.2563 26.8662 -4.04041 -55.533 33.8725 -4.04041 
47.4408 35.2217 -4.04041 60.4996 26.8662 -4.04041 56.022 30.4774 -4.04041 
-53.2889 35.4473 -4.04041 -46.9518 39.1772 -4.04041 -38.3707 42.4173 -4.04041 
21.6974 42.7373 -4.04041 30.2785 40.511 -4.04041 46.8453 35.4473 -4.04041 
38.8597 38.2711 -4.04041 -31.7928 44.0285 -4.04041 -29.7895 44.5461 -4.04041 
-29.7895 44.0285 -1.37139 -21.2084 45.3678 -4.04041 -21.2084 44.0285 3.05758 
-12.6272 46.3898 -4.04041 -4.04606 47.1955 -4.04041 4.53509 46.6821 -4.04041 
17.6263 44.0285 -4.04041 13.1162 45.3278 -4.04041 -29.7895 -43.1638 4.54074 
-21.2084 -46.3777 4.54074 -12.6272 -48.7938 4.54074 -4.04606 -50.0309 4.54074 
4.53509 -49.6739 4.54074 13.1162 -47.2161 4.54074 21.6974 -41.8543 4.54074 
-46.9518 -34.9872 4.54074 -33.6509 -41.783 4.54074 -38.3707 -39.582 4.54074 
-29.7895 -41.783 6.3312 -21.2084 -41.783 9.54885 -12.6272 -41.783 12.431 
21.873 -41.783 4.54074 21.6974 -41.783 4.91391 30.2785 -38.5803 4.54074 
38.8597 -35.3333 4.54074 -49.5443 -33.2019 4.54074 -55.533 -28.5779 4.54074 
-46.9518 -33.2019 6.48924 -38.3707 -33.2019 9.1836 -29.7895 -33.2019 12.9656 
44.7636 -33.2019 4.54074 47.4408 -32.3479 4.54074 56.022 -28.4344 4.54074 
-60.0531 -24.6207 4.54074 -64.1141 -19.9306 4.54074 -55.533 -24.6207 8.32773 
-46.9518 -24.6207 10.8147 60.456 -24.6207 4.54074 56.022 -24.6207 9.87215 
64.6031 -20.1352 4.54074 -67.2048 -16.0396 4.54074 -64.1141 -16.0396 7.16274 
67.4754 -16.0396 4.54074 64.6031 -16.0396 7.91194 -69.673 -7.45841 4.54074 
-64.1141 -7.45841 10.0254 70.7766 -7.45841 4.54074 64.6031 -7.45841 11.955 
-71.6824 1.12274 4.54074 -64.1141 1.12274 12.2854 70.7025 1.12274 4.54074 
64.6031 1.12274 11.2456 -69.7198 9.70389 4.54074 -64.1141 9.70389 10.6712 
69.619 9.70389 4.54074 64.6031 9.70389 10.1048 -66.6472 18.285 4.54074 
-64.1141 22.6643 4.54074 -64.1141 18.285 7.41916 -55.533 18.285 12.4132 
65.7032 18.285 4.54074 64.6031 19.7229 4.54074 64.6031 18.285 5.80626 
-60.8403 26.8662 4.54074 -55.533 31.6265 4.54074 -55.533 26.8662 9.23687 
-46.9518 26.8662 12.7406 47.4408 33.383 4.54074 47.4408 26.8662 11.6194 
57.8009 26.8662 4.54074 56.022 28.4045 4.54074 56.022 26.8662 6.37433 
-50.0635 35.4473 4.54074 -46.9518 37.2145 4.54074 -46.9518 35.4473 6.97534 
-38.3707 40.2435 4.54074 -38.3707 35.4473 10.0919 -29.7895 42.6175 4.54074 
-29.7895 35.4473 12.108 -21.2084 43.6796 4.54074 -21.2084 35.4473 13.0311 
-12.6272 35.4473 13.0421 13.1162 35.4473 12.9377 21.6974 42.202 4.54074 
21.6974 35.4473 12.066 30.2785 39.5662 4.54074 30.2785 35.4473 9.73694 
43.4693 35.4473 4.54074 38.8597 37.3217 4.54074 38.8597 35.4473 7.56133 
-19.1482 44.0285 4.54074 -12.6272 44.9356 4.54074 -12.6272 44.0285 5.79969 
-4.04606 45.7247 4.54074 -4.04606 44.0285 6.79092 4.53509 46.0021 4.54074 
4.53509 44.0285 7.12029 14.8146 44.0285 4.54074 13.1162 44.4395 4.54074 
13.1162 44.0285 5.12728 -4.04606 -42.6709 13.1219 4.53509 -43.5062 13.1219 
13.1162 -43.3087 13.1219 -21.2084 -36.6032 13.1219 -8.67177 -41.783 13.1219 
-12.6272 -40.7374 13.1219 -4.04606 -41.783 13.8376 4.53509 -41.783 14.5601 
17.3465 -41.783 13.1219 13.1162 -41.783 14.6385 21.6974 -39.9812 13.1219 
30.2785 -36.8261 13.1219 38.8597 -33.3609 13.1219 -38.3707 -26.1123 13.1219 
-29.1478 -33.2019 13.1219 -29.7895 -32.7207 13.1219 -21.2084 -33.2019 15.0106 
-12.6272 -33.2019 17.0887 -4.04606 -33.2019 17.6499 4.53509 -33.2019 17.9693 
13.1162 -33.2019 18.5614 21.6974 -33.2019 18.301 30.2785 -33.2019 17.1217 
39.196 -33.2019 13.1219 38.8597 -33.2019 13.2972 47.4408 -27.7225 13.1219 
-55.533 -16.6822 13.1219 -40.5172 -24.6207 13.1219 -46.9518 -19.5263 13.1219 
[...]
POINT_DATA 512
SCALARS ImageScalars float
LOOKUP_TABLE default
0 0 0 0 0 0 0 0 0 
0 0 0 0 0 0 0 0 0 
0 0 0 0 0 0 0 0 0 
0 0 0 0 0 0 0 0 0 
0 0 0 0 0 0 0 0 0 
0 0 0 0 0 0 0 0 0 
0 0 0 0 0 0 0 0 0 
0 0 0 0 0 0 0 0 0 
0 0 0 0 0 0 0 0 0 
0 0 0 0 0 0 0 0 0 
0 0 0 0 0 0 0 0 0 
0 0 0 0 0 0 0 0 0 
0 0 0 0 0 0 0 0 0 
0 0 0 0 0 0 0 0 0 
0 0 0 0 0 0 0 0 0 
0 0 0 0 0 0 0 0 0 
0 0 0 0 0 0 0 0 0 
0 0 0 0 0 0 0 0 0 
0 0 0 0 0 0 0 0 0 
0 0 0 0 0 0 0 0 0 
0 0 0 0 0 0 0 0 0 
0 0 0 0 0 0 0 0 0 
0 0 0 0 0 0 0 0 0 
0 0 0 0 0 0 0 0 0 
0 0 0 0 0 0 0 0 0 
0 0 0 0 0 0 0 0 0 
0 0 0 0 0 0 0 0 0 
0 0 0 0 0 0 0 0 0 
0 0 0 0 0 0 0 0 0 
0 0 0 0 0 0 0 0 0 
0 0 0 0 0 0 0 0 0 
0 0 0 0 0 0 0 0 0 
0 0 0 0 0 0 0 0 0 
0 0 0 0 0 0 0 0 0 
0 0 0 0 0 0 0 0 0 
0 0 0 0 0 0 0 0 0 
0 0 0 0 0 0 0 0 0 
0 0 0 0 0 0 0 0 0 
0 0 0 0 0 0 0 0 0 
0 0 0 0 0 0 0 0 0 
0 0 0 0 0 0 0 0 0 
0 0 0 0 0 0 0 0 0 
0 0 0 0 0 0 0 0 0 
0 0 0 0 0 0 0 0 0 
0 0 0 0 0 0 0 0 0 
0 0 0 0 0 0 0 0 0 
0 0 0 0 0 0 0 0 0 
0 0 0 0 0 0 0 0 0 
0 0 0 0 0 0 0 0 0 
0 0 0 0 0 0 0 0 0 
0 0 0 0 0 0 0 0 0 
0 0 0 0 0 0 0 0 0 
0 0 0 0 0 0 0 0 0 
0 0 0 0 0 0 0 0 0 
0 0 0 0 0 0 0 0 0 
0 0 0 0 0 0 0 0 0 
0 0 0 0 0 0 0 0 
NORMALS Normals float
0.120677 0.524845 0.8426 -0.0132716 0.457173 0.889279 0.350367 0.544208 0.762287 
0.152904 0.409741 0.899296 0.129744 0.321592 0.937947 0.0381814 0.249192 0.967701 
-0.0898397 0.209547 0.973663 -0.0882993 0.198737 0.976067 -0.127655 0.275343 0.952833 
0.397804 0.439998 0.80508 0.158859 0.259199 0.95267 0.0824944 0.209758 0.974267 
0.0660986 0.106913 0.992069 -0.00741492 0.0126464 0.999893 -0.0690914 0.0703831 0.995124 
-0.0606842 0.115369 0.991467 -0.0253849 0.1695 0.985203 -0.0688131 0.267253 0.961166 
-0.0569498 0.369707 0.927401 -0.0237765 0.486739 0.873224 -0.0404767 0.54859 0.835111 
-0.138416 0.676239 0.723562 0.27714 0.299577 0.912933 0.129853 0.154263 0.97946 
0.0153017 0.121409 0.992485 -0.081049 -0.00302121 0.996706 -0.00454977 -0.0885292 0.996063 
0.00888696 0.0843405 0.996397 0.0115344 0.122806 0.992364 0.0309338 0.145559 0.988866 
-0.0528772 0.0914387 0.994406 -0.00597049 0.0758356 0.997102 0.121215 0.177218 0.976678 
0.0408316 0.271101 0.961685 -0.0808656 0.291082 0.953274 -0.298816 0.413822 0.859919 
-0.540425 0.455298 0.707562 0.5418 0.0951105 0.835109 0.249651 0.0914357 0.964009 
-0.0292741 0.146333 0.988802 -0.0907819 0.0358944 0.995224 -0.147657 0.0286046 0.988625 
0.0537698 -0.0284169 0.998149 0.188416 0.16968 0.96732 -0.0221668 0.0543658 0.998275 
-0.056539 0.0524447 0.997022 -0.154848 0.0974996 0.983115 0.0629982 0.0288547 0.997596 
0.189456 0.0836168 0.978322 0.120177 0.084461 0.989153 -0.023864 0.192889 0.98093 
-0.194026 0.0929883 0.976579 -0.536159 0.189474 0.822577 0.505369 -0.00580891 0.862884 
0.240284 -0.0649671 0.968526 0.0591505 0.0463518 0.997172 -0.100511 0.0433796 0.99399 
-0.145766 0.0724743 0.986661 0.0570915 0.0770519 0.995391 0.142554 -0.199083 0.969559 
-0.0943778 0.00098623 0.995536 0.123788 -0.0237485 0.992024 -0.125033 0.0278927 0.99176 
0.00177779 0.137991 0.990432 0.182747 0.092991 0.978752 0.137589 0.0520609 0.98912 
-0.0648944 0.0311942 0.997404 -0.252739 0.00115868 0.967534 -0.505325 -0.027271 0.862498 
0.571839 -0.108029 0.813222 0.294266 -0.0856066 0.951882 0.0987171 -0.0816627 0.991759 
-0.0633377 0.00537765 0.997978 -0.113286 0.0832725 0.990067 -0.10017 0.115596 0.988232 
0.0704344 -0.0706493 0.995011 0.0938542 0.0325276 0.995054 -0.00275755 -0.0476419 0.998861 
0.0168819 -0.147235 0.988958 0.0801025 0.066917 0.994538 0.108767 0.0485921 0.992879 
0.0594268 -0.0496175 0.996999 -0.0789381 -0.131628 0.988151 -0.244879 -0.0511122 0.968206 
-0.577192 -0.200058 0.791723 0.355229 -0.200805 0.912957 0.130522 -0.171528 0.976495 
0.062509 -0.0328306 0.997504 -0.0369469 -0.0020308 0.999315 -0.0907853 0.0890707 0.991879 
-0.00289759 0.0873955 0.99617 -0.0129328 0.0107616 0.999858 -0.087938 -0.0644954 0.994036 
0.0472449 -0.136713 0.989483 0.165019 -0.11679 0.979351 0.0655409 -0.154568 0.985806 
-0.041672 -0.187556 0.98137 -0.0733212 -0.287435 0.954989 -0.336429 -0.344816 0.876309 
0.45438 -0.437568 0.775934 0.21918 -0.26183 0.939896 0.107389 -0.228862 0.967517 
0.0125683 -0.158727 0.987243 -0.0104039 -0.0733548 0.997252 -0.00998595 -0.0506574 0.998666 
-0.058768 -0.0981152 0.993438 -0.14677 -0.131379 0.980407 -0.0394656 -0.197046 0.9796 
0.0555241 -0.303447 0.951229 0.0216131 -0.391137 0.920078 -0.0838418 -0.414567 0.906148 
-0.212237 -0.522348 0.825899 0.373916 -0.652518 0.659095 0.181154 -0.532352 0.826912 
0.1089 -0.429038 0.896698 0.0162297 -0.4306 0.902397 -0.011872 -0.351249 0.936207 
-0.0970043 -0.37034 0.923817 -0.185641 -0.373008 0.909067 -0.124342 -0.44889 0.884894 
0.121605 0.528098 0.840431 -0.0100525 0.491109 0.87104 0.353308 0.550007 0.756747 
0.192449 0.488994 0.850793 0.450242 0.868689 0.206549 0.123492 0.527516 0.840522 
0.178242 0.496793 0.849368 0.252117 0.727674 0.637909 -0.102394 0.430486 0.896771 
-0.129386 0.40405 0.90554 -0.133291 0.427152 0.894301 -0.197409 0.380563 0.903439 
-0.2857 0.549065 0.785432 -0.459668 0.648619 0.606629 0.355998 0.548772 0.756383 
0.439389 0.489231 0.753386 -0.240943 0.413481 0.878055 -0.242384 0.422207 0.873494 
-0.263101 0.441135 0.858008 -0.130321 0.472178 0.871817 -0.272659 0.643279 0.715437 
-0.0456004 0.579656 0.813584 -0.197411 0.803751 0.561261 -0.0651036 0.613961 0.786647 
-0.146843 0.725401 0.672481 0.451676 0.478266 0.75316 -0.245584 0.67643 0.694356 
-0.366356 0.597014 0.713693 -0.405902 0.689187 0.600221 -0.542775 0.465383 0.699152 
0.48366 0.293176 0.824695 0.528545 0.209581 0.822627 0.537634 0.313707 0.782648 
-0.547592 0.458267 0.700096 0.563917 0.0986955 0.819913 -0.678351 0.197289 0.707755 
-0.961546 0.234768 0.142525 0.617938 -0.0112586 0.786146 0.958644 -0.0247673 0.28353 
-0.685336 -0.0487831 0.726591 -0.984191 -0.0712134 0.16216 0.588429 -0.114977 0.800332 
0.593383 -0.158932 0.789074 -0.719291 -0.221151 0.658569 -0.619427 -0.423562 0.660988 
0.575553 -0.25861 0.775796 0.659657 -0.297086 0.690357 -0.616875 -0.42757 0.660795 
-0.444475 -0.630842 0.635987 -0.6218 -0.429617 0.654824 0.549902 -0.465949 0.693181 
0.5067 -0.523358 0.685092 -0.041528 -0.51433 0.856586 -0.0434518 -0.611763 0.789847 
-0.155738 -0.676627 0.719667 -0.438658 -0.632155 0.638717 -0.277748 -0.645262 0.711683 
-0.451082 -0.640433 0.621587 0.38853 -0.659827 0.643174 0.375798 -0.666311 0.644055 
0.215988 -0.658037 0.721343 0.111996 -0.703203 0.702113 0.0548915 -0.677003 0.73393 
0.0400533 -0.662802 0.747723 -0.0800839 -0.633154 0.769871 -0.197327 -0.510651 0.836838 
-0.054873 -0.507191 0.860085 -0.126165 -0.461111 0.878327 -0.0432567 -0.518734 0.853841 
-0.0653399 -0.67286 0.736879 -0.207047 -0.806584 0.553672 0.169627 -0.971267 0.166932 
0.101251 -0.94477 0.311702 0.0726292 -0.881531 0.466507 -0.0476752 -0.827049 0.560104 
-0.163004 -0.836497 0.523166 -0.221375 -0.879368 0.42155 0.457865 0.884151 0.0929314 
0.331477 0.935866 0.119492 0.207231 0.966263 0.15294 0.0801498 0.972642 0.218043 
-0.0786597 0.948696 0.306249 -0.267263 0.856963 0.440665 -0.467481 0.714852 0.520047 
0.465773 0.88014 0.0916999 0.510366 0.856441 0.0776941 0.462055 0.881786 -0.0946481 
-0.469477 0.699477 0.538817 -0.392535 0.729185 0.56054 -0.44004 0.891096 0.110959 
-0.245128 0.829282 0.502199 0.616866 0.781687 0.0918807 0.64603 0.756422 0.102327 
-0.203472 0.894421 0.398259 -0.187444 0.913393 0.361357 -0.226399 0.934431 0.274921 
-0.214669 0.919429 0.329495 -0.442952 0.866138 0.231514 0.729955 0.675165 0.106391 
0.749591 0.652799 0.109393 -0.568881 0.799603 0.19238 -0.657537 0.737342 0.154829 
0.870404 0.472661 0.137797 -0.840683 0.531831 0.102023 -0.964096 0.262447 0.0405055 
0.962102 0.235159 0.138057 0.96596 0.21866 0.138239 -0.973746 0.225215 0.0331247 
-0.97129 0.223271 -0.0821329 0.989373 -0.0257084 0.143107 0.964399 -0.219614 0.147322 
0.952141 -0.014504 -0.305316 -0.997323 -0.0654367 0.032618 -0.981519 -0.18885 0.0309196 
-0.990706 -0.0730575 -0.114738 0.945285 -0.2893 0.150804 -0.946396 -0.320875 0.0370606 
0.873621 -0.463981 0.14666 0.783279 -0.609316 0.123319 -0.849157 -0.52661 0.040191 
-0.742857 -0.66813 0.0420282 0.762387 -0.63681 0.115062 0.615437 -0.782774 0.0922039 
-0.410452 -0.906081 0.102693 -0.642715 -0.764371 0.0515196 -0.564061 -0.822744 0.0702041 
0.57502 -0.813545 0.0865825 0.453017 -0.888903 0.0680252 0.284396 -0.95618 0.0695632 
-0.2665 -0.931293 0.248335 -0.239857 -0.948649 0.206238 -0.401374 -0.909903 0.104767 
-0.28668 -0.94718 0.143753 0.198141 -0.976208 0.0880784 0.174046 -0.980152 0.0949222 
0.179593 -0.982196 -0.0551213 0.105929 -0.989585 0.0974752 0.120129 -0.940883 -0.316715 
0.105269 -0.987691 0.115698 0.0193409 -0.98816 0.152204 -0.110736 -0.962321 0.248346 
-0.257066 -0.928265 0.268779 -0.231936 -0.926325 0.296863 0.312553 0.820182 -0.479179 
0.279143 0.845176 -0.455804 0.184929 0.919451 -0.347003 0.0405659 0.960333 -0.275888 
-0.142132 0.975707 -0.166714 -0.399657 0.914728 -0.0595478 -0.439469 0.892358 0.102779 
0.457666 0.722445 -0.518281 0.352346 0.795219 -0.493436 0.402618 0.741659 -0.536508 
0.302826 0.771313 -0.559798 0.250003 0.670953 -0.698083 0.192289 0.587797 -0.785824 
-0.436851 0.893525 0.103802 -0.437577 0.895541 0.0808197 -0.3388 0.933725 0.115637 
-0.336497 0.940122 0.0542292 0.491156 0.700592 -0.517626 0.55297 0.6575 -0.511779 
0.430005 0.656121 -0.620162 0.331367 0.539346 -0.774146 0.284999 0.371426 -0.883639 
-0.321788 0.946156 -0.0352232 -0.337142 0.9373 -0.0883397 -0.549924 0.794377 -0.257969 
0.612919 0.605793 -0.507292 0.66637 0.51327 -0.540838 0.452065 0.565869 -0.689514 
0.280509 0.406258 -0.869637 -0.642237 0.706981 -0.296158 -0.570061 0.585283 -0.576606 
-0.72686 0.562155 -0.394533 0.722367 0.421626 -0.548104 0.633008 0.409267 -0.657117 
-0.791139 0.417635 -0.446857 -0.693754 0.401753 -0.597746 0.808779 0.196691 -0.554246 
0.579838 0.235517 -0.779949 -0.848375 0.16474 -0.503111 -0.614657 0.14579 -0.775205 
0.84753 -0.00456853 -0.530728 0.540498 0.0273707 -0.8409 -0.829966 -0.0598883 -0.55459 
-0.619441 -0.0789305 -0.781065 0.830125 -0.244835 -0.500948 0.608177 -0.209766 -0.765584 
-0.824889 -0.251837 -0.506098 -0.625177 -0.234506 -0.74442 0.801542 -0.408265 -0.436863 
0.736188 -0.498357 -0.457895 0.679258 -0.405784 -0.611513 0.455569 -0.256191 -0.852539 
-0.717668 -0.503394 -0.481194 -0.69283 -0.535904 -0.482487 -0.685236 -0.495466 -0.533821 
0.665895 -0.598712 -0.445115 0.573365 -0.690866 -0.440404 0.504687 -0.511528 -0.695435 
0.328071 -0.43929 -0.836298 -0.43913 -0.799313 -0.410198 -0.373978 -0.592048 -0.713876 
-0.591926 -0.678437 -0.43514 -0.558773 -0.708286 -0.431397 -0.541806 -0.667335 -0.510989 
0.469808 -0.775995 -0.420846 0.405972 -0.809964 -0.423255 0.395446 -0.745086 -0.537094 
0.271528 -0.855822 -0.440274 0.210905 -0.666979 -0.714603 0.173371 -0.882526 -0.437139 
0.129444 -0.582895 -0.80217 0.118923 -0.904118 -0.410399 0.0421738 -0.526894 -0.848884 
0.0348098 -0.499496 -0.865616 -0.083682 -0.500303 -0.861797 -0.253483 -0.906874 -0.33664 
-0.140443 -0.580358 -0.80216 -0.263398 -0.892162 -0.366971 -0.185622 -0.724469 -0.663845 
-0.382238 -0.847387 -0.368551 -0.306494 -0.886726 -0.346089 -0.288487 -0.821643 -0.491608 
0.117418 -0.902664 -0.414018 0.112427 -0.891559 -0.438729 0.103147 -0.85905 -0.501392 
0.0632675 -0.89927 -0.432794 0.0573773 -0.831647 -0.552332 -0.0743588 -0.917833 -0.389941 
-0.0663611 -0.834829 -0.546495 -0.212463 -0.903594 -0.371991 -0.203151 -0.901008 -0.383295 
-0.197435 -0.888157 -0.414965 0.0969997 0.585192 -0.805072 0.0247074 0.634158 -0.772809 
-0.174269 0.744449 -0.644535 0.217886 0.48358 -0.847747 0.145877 0.565094 -0.812027 
0.183599 0.546761 -0.816911 0.100555 0.550129 -0.829004 0.0406953 0.54846 -0.835186 
-0.252039 0.779051 -0.57407 -0.146778 0.660214 -0.736596 -0.300145 0.79901 -0.521053 
-0.331619 0.816849 -0.472002 -0.394186 0.766975 -0.506327 0.253807 0.346342 -0.903122 
0.278782 0.371073 -0.885768 0.280767 0.359532 -0.889891 0.219975 0.4009 -0.88932 
0.140957 0.369564 -0.918452 0.0479987 0.283408 -0.957797 0.0489607 0.221035 -0.974036 
0.0210555 0.270546 -0.962477 -0.0707309 0.464241 -0.88288 -0.25599 0.623839 -0.73844 
-0.397166 0.76405 -0.508416 -0.393156 0.760732 -0.516445 -0.441086 0.576641 -0.687697 
0.368294 0.274878 -0.888145 0.248591 0.333637 -0.909334 0.184654 0.339539 -0.922289 
0.242415 0.315562 -0.917418 0.234732 0.211411 -0.948792 0.228407 0.196926 -0.953441 
0.089596 0.160277 -0.982997 -0.0268446 0.110723 -0.993489 0.0214917 0.0948563 -0.995259 
0.100607 0.104013 -0.989474 0.0438508 0.153846 -0.987121 -0.0744412 0.17185 -0.982307 
-0.288895 0.294039 -0.911088 -0.470618 0.46665 -0.748836 -0.414798 0.416189 -0.809153 
-0.477843 0.294065 -0.827763 0.381901 0.261565 -0.886417 0.364215 0.254337 -0.895913 
0.149 0.294879 -0.943846 0.117621 0.210014 -0.970597 0.166957 0.128485 -0.977557 
0.187704 0.0649843 -0.980074 0.0458219 0.00843962 -0.998914 -0.0268251 -0.0410927 -0.998795 
0.0550521 0.243484 -0.968341 0.0866568 0.0641566 -0.99417 0.016249 -0.038389 -0.999131 
-0.0716249 -0.00689532 -0.997408 -0.16435 0.0296838 -0.985955 -0.324332 0.178084 -0.929029 
-0.476296 0.254241 -0.841726 -0.459492 0.241239 -0.854793 0.364653 0.142928 -0.920109 
0.311698 0.115653 -0.943117 0.17908 0.132131 -0.974922 0.0919639 0.14051 -0.985799 
0.100643 0.117162 -0.988 0.111751 0.0566578 -0.99212 -0.0156701 0.0443797 -0.998892 
0.212229 0.0229464 -0.976951 -0.199736 -0.0283097 -0.979441 -0.0259485 -0.0571368 -0.998029 
-0.010948 -0.0114685 -0.999874 -0.108937 0.0113636 -0.993984 -0.213359 0.0336828 -0.976393 
-0.535365 0.139523 -0.833017 -0.349953 0.0992381 -0.931496 0.476052 0.0324497 -0.878818 
0.291027 0.0494619 -0.955435 0.159757 0.0578646 -0.985459 0.0935328 0.0632301 -0.993606 
0.0817295 0.0660621 -0.994463 0.112482 0.000101192 -0.993654 0.0170501 -0.0318732 -0.999346 
0.0821477 0.107866 -0.990766 -0.125932 -0.0265541 -0.991683 0.032443 0.0486081 -0.998291 
-0.00462366 0.0473323 -0.998869 -0.121462 -0.00248635 -0.992593 -0.234461 -0.0348973 -0.971499 
-0.52094 -0.0821295 -0.849633 -0.378661 -0.0620365 -0.923454 0.443488 -0.185392 -0.876897 
0.415365 -0.2215 -0.882275 0.338418 -0.15509 -0.928127 0.189447 -0.0553312 -0.980331 
0.10077 -0.0128313 -0.994827 0.041854 -0.0260838 -0.998783 0.0108855 -0.0739847 -0.9972 
0.0887805 -0.165346 -0.982231 0.130303 -0.0794996 -0.988282 -0.0124724 -0.160897 -0.986892 
-0.0165871 -0.055912 -0.998298 0.0475685 -0.0128329 -0.998786 -0.0610239 -0.0516874 -0.996797 
-0.188124 -0.0837498 -0.978568 -0.2728 -0.123119 -0.95416 -0.468672 -0.141138 -0.872025 
-0.403845 -0.0945644 -0.909927 0.422505 -0.244793 -0.872677 0.322324 -0.414771 -0.850924 
0.276497 -0.202637 -0.939408 0.129671 -0.152672 -0.979733 0.0204272 -0.141835 -0.98968 
-0.0243382 -0.133952 -0.990689 0.00810267 -0.147702 -0.988999 0.077984 -0.232528 -0.969458 
0.0262151 -0.264466 -0.964038 0.0241083 -0.230606 -0.972748 0.0354672 -0.243414 -0.969274 
-0.0720515 -0.276349 -0.958353 -0.187738 -0.269715 -0.944462 -0.338239 -0.512197 -0.789461 
-0.273293 -0.298358 -0.914491 -0.507156 -0.349969 -0.787601 -0.479073 -0.392965 -0.7849 
-0.466864 -0.337125 -0.817548 0.312182 -0.42801 -0.848145 0.197265 -0.508998 -0.837859 
0.177487 -0.368471 -0.912539 0.108891 -0.518113 -0.848352 0.0515263 -0.321818 -0.945398 
0.0409781 -0.519974 -0.853199 0.00468521 -0.288251 -0.957543 0.0336007 -0.493847 -0.8689 
-0.00697512 -0.264549 -0.964347 0.00676725 -0.270007 -0.962834 -0.00283816 -0.304664 -0.952456 
-0.0785101 -0.487463 -0.869607 -0.00457419 -0.32043 -0.947261 -0.111773 -0.519107 -0.847369 
-0.02461 -0.405567 -0.913734 -0.122987 -0.569684 -0.81261 -0.0932299 -0.484261 -0.869942 
-0.300259 -0.543289 -0.784016 -0.217942 -0.569728 -0.792408 -0.198563 -0.488049 -0.84993 
0.0348299 -0.490901 -0.870519 0.0415688 -0.4603 -0.88679 0.0372002 -0.432716 -0.900763 
-0.0726849 -0.480194 -0.874146 -0.0396824 -0.453304 -0.890472 -0.0357462 -0.421962 -0.905909 
0.0970451 0.215144 -0.971749 0.178902 0.114674 -0.977161 -0.120928 0.0224587 -0.992407 
0.117657 0.157989 -0.980406 0.0237682 -0.0738653 -0.996985 -0.0327568 -0.109649 -0.99343 
-0.00759652 -0.150329 -0.988607 0.00418683 -0.136492 -0.990632 
