# vtk DataFile Version 4.2
vtk output
ASCII
DATASET POLYDATA
POINTS 590 float
62.6435 -10.3806 -21.9724 -11.1222 -1.15992 -21.9673 62.6435 8.06079 -22.2574 
-11.1222 -47.2635 -14.7546 -1.90151 -47.2635 -16.5666 7.3192 -47.2635 -16.5353 
16.5399 -47.2635 -15.2828 25.7606 -47.2635 -13.8975 34.9813 -47.2635 -13.1826 
-48.0051 -38.0428 -15.0601 -38.7844 -38.0428 -15.9517 -29.5637 -38.0428 -16.052 
-20.3429 -38.0428 -16.2162 -11.1222 -38.0428 -17.678 -1.90151 -38.0428 -19.5149 
7.3192 -38.0428 -19.7719 16.5399 -38.0428 -19.0209 25.7606 -38.0428 -18.8632 
34.9813 -38.0428 -17.4162 44.2021 -38.0428 -16.5664 53.4228 -38.0428 -13.306 
-57.2258 -28.8221 -15.1224 -48.0051 -28.8221 -17.6987 -38.7844 -28.8221 -17.9171 
-29.5637 -28.8221 -17.8133 -20.3429 -28.8221 -17.4535 -11.1222 -28.8221 -18.3361 
-1.90151 -28.8221 -19.9514 7.3192 -28.8221 -20.7394 16.5399 -28.8221 -19.7243 
25.7606 -28.8221 -19.9424 34.9813 -28.8221 -19.8509 44.2021 -28.8221 -19.1882 
53.4228 -28.8221 -17.5332 62.6435 -28.8221 -14.7453 -66.4465 -19.6014 -14.5898 
-57.2258 -19.6014 -20.3985 -48.0051 -19.6014 -19.2286 -38.7844 -19.6014 -19.1313 
-29.5637 -19.6014 -18.6881 -20.3429 -19.6014 -17.6417 -11.1222 -19.6014 -17.5274 
-1.90151 -19.6014 -19.2893 7.3192 -19.6014 -19.9435 16.5399 -19.6014 -19.0018 
25.7606 -19.6014 -19.3995 34.9813 -19.6014 -20.4122 44.2021 -19.6014 -21.4699 
53.4228 -19.6014 -19.6537 62.6435 -11.7964 -21.6154 62.6435 -19.6014 -18.5989 
71.8642 -19.6014 -13.5704 -75.6672 -10.3806 -13.744 -66.4465 -10.3806 -17.6262 
-57.2258 -10.3806 -19.2848 -48.0051 -10.3806 -20.5631 -38.7844 -10.3806 -19.2573 
-29.5637 -10.3806 -17.8193 -20.3429 -10.3806 -16.8123 -11.1222 -2.1939 -21.6154 
-11.1222 -10.3806 -18.5426 -1.90151 -10.3806 -18.562 7.3192 -10.3806 -21.0984 
16.5399 -10.3806 -17.0865 25.7606 -10.3806 -18.5865 34.9813 -10.3806 -20.1098 
44.2021 -10.3806 -20.7133 58.744 -10.3806 -21.6154 53.4228 -10.3806 -20.9881 
63.5359 -10.3806 -21.6154 62.6435 -8.44643 -21.6154 71.8642 -10.3806 -17.4429 
-75.6672 -1.15992 -15.2604 -66.4465 -1.15992 -19.1316 -57.2258 -1.15992 -19.2716 
-48.0051 -1.15992 -20.1263 -38.7844 -1.15992 -18.7558 -29.5637 -1.15992 -16.8433 
-11.5466 -1.15992 -21.6154 -20.3429 -1.15992 -14.9856 -10.4977 -1.15992 -21.6154 
-11.1222 0.498416 -21.6154 -1.90151 -1.15992 -14.7569 7.3192 -1.15992 -20.6787 
16.5399 -1.15992 -16.2015 25.7606 -1.15992 -17.5693 34.9813 -1.15992 -19.6162 
44.2021 -1.15992 -20.8964 53.4228 -1.15992 -21.4873 62.6435 5.17334 -21.6154 
62.6435 -1.15992 -20.1848 71.8642 -1.15992 -17.2817 -75.6672 8.06079 -15.8447 
-66.4465 8.06079 -17.0274 -57.2258 8.06079 -18.3165 -48.0051 8.06079 -18.9599 
-38.7844 8.06079 -17.7362 -29.5637 8.06079 -16.5665 -20.3429 8.06079 -14.5048 
-11.1222 8.06079 -18.9406 -1.90151 8.06079 -17.3545 7.3192 8.06079 -19.2273 
16.5399 8.06079 -16.6297 25.7606 8.06079 -17.9069 34.9813 8.06079 -19.7598 
44.2021 8.06079 -20.59 56.9315 8.06079 -21.6154 53.4228 8.06079 -21.1339 
64.4011 8.06079 -21.6154 62.6435 11.1485 -21.6154 71.8642 8.06079 -17.83 
81.0849 8.06079 -14.3687 -66.4465 17.2815 -15.8093 -57.2258 17.2815 -16.8653 
-48.0051 17.2815 -16.815 -38.7844 17.2815 -16.2326 -29.5637 17.2815 -14.8975 
-20.3429 17.2815 -13.9296 -11.1222 17.2815 -13.8439 -1.90151 17.2815 -15.6077 
7.3192 17.2815 -13.6368 16.5399 17.2815 -14.0142 25.7606 17.2815 -16.835 
34.9813 17.2815 -18.5668 44.2021 17.2815 -20.0502 53.4228 17.2815 -19.5926 
62.6435 17.2815 -19.8448 71.8642 17.2815 -16.6666 -66.4465 26.5022 -13.0069 
-57.2258 26.5022 -14.9667 -48.0051 26.5022 -14.1888 -38.7844 26.5022 -14.5282 
-29.5637 26.5022 -13.5125 -20.3429 26.5022 -13.0066 -11.1222 26.5022 -12.5315 
-1.90151 26.5022 -13.2214 25.7606 26.5022 -13.9681 34.9813 26.5022 -16.0989 
44.2021 26.5022 -17.6589 53.4228 26.5022 -18.3659 62.6435 26.5022 -15.6094 
71.8642 26.5022 -13.4334 44.2021 35.7229 -12.651 53.4228 35.7229 -13.8343 
-11.1222 -50.5503 -12.3947 -1.90151 -52.7473 -12.3947 7.3192 -52.4801 -12.3947 
16.5399 -50.8311 -12.3947 25.7606 -49.084 -12.3947 34.9813 -47.9747 -12.3947 
-48.0051 -41.5144 -12.3947 -38.7844 -43.1464 -12.3947 -38.7844 -47.2635 -8.04275 
-29.5637 -44.522 -12.3947 -29.5637 -47.2635 -10.1692 -19.7125 -47.2635 -12.3947 
-20.3429 -46.8694 -12.3947 -20.3429 -47.2635 -12.1645 36.7814 -47.2635 -12.3947 
44.2021 -42.8839 -12.3947 53.4228 -39.0389 -12.3947 -54.7645 -38.0428 -12.3947 
-57.2258 -35.0251 -12.3947 -57.2258 -38.0428 -9.94845 54.7887 -38.0428 -12.3947 
62.6435 -31.8337 -12.3947 -64.5132 -28.8221 -12.3947 -66.4465 -26.6001 -12.3947 
-66.4465 -28.8221 -11.0989 65.7934 -28.8221 -12.3947 71.8642 -21.505 -12.3947 
-70.715 -19.6014 -12.3947 -75.6672 -14.1887 -12.3947 -75.6672 -19.6014 -7.44291 
73.374 -19.6014 -12.3947 -77.5326 -10.3806 -12.3947 78.9606 -10.3806 -12.3947 
81.0849 -10.3806 -7.93401 -79.8418 -1.15992 -12.3947 80.362 -1.15992 -12.3947 
81.0849 1.04031 -12.3947 81.0849 -1.15992 -11.6932 -78.3348 8.06079 -12.3947 
-84.8879 8.06079 -3.80558 -75.6672 13.3888 -12.3947 82.4352 8.06079 -12.3947 
81.0849 11.6302 -12.3947 -73.1815 17.2815 -12.3947 -75.6672 17.2815 -10.5972 
7.3192 22.7348 -12.3947 16.5399 24.2695 -12.3947 78.6314 17.2815 -12.3947 
81.0849 17.2815 -9.35423 -67.1211 26.5022 -12.3947 -75.6672 26.5022 -5.47694 
-66.4465 27.0655 -12.3947 -57.2258 31.1584 -12.3947 -48.0051 32.8925 -12.3947 
-38.7844 32.1245 -12.3947 -29.5637 31.0414 -12.3947 -20.3429 29.3992 -12.3947 
-11.1222 27.263 -12.3947 2.9269 26.5022 -12.3947 -1.90151 29.3286 -12.3947 
7.3192 26.5022 -11.6527 18.7524 26.5022 -12.3947 16.5399 26.5022 -11.9078 
25.7606 29.5844 -12.3947 34.9813 33.6333 -12.3947 62.6435 33.4988 -12.3947 
73.0347 26.5022 -12.3947 71.8642 27.6456 -12.3947 81.0849 26.5022 -4.13133 
-66.4465 35.7229 -4.68214 -57.2258 35.7229 -8.56083 -48.0051 35.7229 -11.4186 
-38.7844 35.7229 -11.0797 -29.5637 35.7229 -11.1588 -20.3429 35.7229 -10.9523 
-11.1222 35.7229 -10.6633 -1.90151 35.7229 -10.246 7.3192 35.7229 -9.01231 
16.5399 35.7229 -8.00867 25.7606 35.7229 -8.95655 42.6149 35.7229 -12.3947 
34.9813 35.7229 -11.2116 44.2021 36.0382 -12.3947 59.1691 35.7229 -12.3947 
53.4228 37.6519 -12.3947 62.6435 35.7229 -11.2165 71.8642 35.7229 -5.57192 
-48.0051 44.9436 -5.32819 -38.7844 44.9436 -7.11293 -29.5637 44.9436 -6.82743 
-20.3429 44.9436 -5.86903 -11.1222 44.9436 -4.97324 44.2021 44.9436 -3.32997 
53.4228 44.9436 -3.33795 -38.7844 -49.9032 -3.17398 -29.5637 -52.639 -3.17398 
-20.3429 -54.6066 -3.17398 -11.1222 -56.0187 -3.17398 -1.90151 -56.4643 -3.17398 
7.3192 -55.9122 -3.17398 16.5399 -54.89 -3.17398 25.7606 -53.1411 -3.17398 
34.9813 -50.6063 -3.17398 -57.2258 -41.3005 -3.17398 -45.8084 -47.2635 -3.17398 
-48.0051 -46.3807 -3.17398 42.8665 -47.2635 -3.17398 44.2021 -46.6664 -3.17398 
53.4228 -41.3444 -3.17398 -61.4289 -38.0428 -3.17398 -66.4465 -33.4527 -3.17398 
-57.2258 -38.0428 5.6007 58.5434 -38.0428 -3.17398 53.4228 -38.0428 3.99973 
62.6435 -35.1524 -3.17398 -70.9107 -28.8221 -3.17398 -75.6672 -22.6064 -3.17398 
69.4327 -28.8221 -3.17398 71.8642 -26.4152 -3.17398 -77.8213 -19.6014 -3.17398 
-75.6672 -19.6014 1.36226 77.5814 -19.6014 -3.17398 81.0849 -13.5963 -3.17398 
-82.6392 -10.3806 -3.17398 83.0183 -10.3806 -3.17398 81.0849 -10.3806 1.02557 
-84.8725 -1.15992 -3.17398 -84.8879 -0.808832 -3.17398 85.3679 -1.15992 -3.17398 
-85.2832 8.06079 -3.17398 -84.8879 10.7886 -3.17398 -84.8879 8.06079 -1.04477 
86.4339 8.06079 -3.17398 -83.7378 17.2815 -3.17398 84.8169 17.2815 -3.17398 
-77.7936 26.5022 -3.17398 -75.6672 29.2365 -3.17398 81.677 26.5022 -3.17398 
81.0849 27.2804 -3.17398 81.0849 26.5022 0.909248 -68.5766 35.7229 -3.17398 
-66.4465 37.4888 -3.17398 -57.2258 42.6344 -3.17398 -1.90151 44.126 -3.17398 
7.3192 41.9348 -3.17398 16.5399 40.8574 -3.17398 25.7606 42.1375 -3.17398 
34.9813 44.8283 -3.17398 62.6435 42.2691 -3.17398 73.9216 35.7229 -3.17398 
71.8642 37.8745 -3.17398 -53.6056 44.9436 -3.17398 -57.2258 44.9436 -0.0909995 
-48.0051 48.5222 -3.17398 -38.7844 49.1261 -3.17398 -29.5637 48.4933 -3.17398 
-20.3429 47.5558 -3.17398 -4.67242 44.9436 -3.17398 -11.1222 46.4606 -3.17398 
-1.90151 44.9436 -0.331399 39.2215 44.9436 -3.17398 34.9813 44.9436 -2.32959 
44.2021 45.049 -3.17398 53.7824 44.9436 -3.17398 53.4228 45.0723 -3.17398 
-38.7844 -48.8534 6.04674 -29.5637 -50.5268 6.04674 -20.3429 -52.8044 6.04674 
-11.1222 -54.0145 6.04674 -1.90151 -53.7559 6.04674 7.3192 -52.6882 6.04674 
16.5399 -51.3539 6.04674 25.7606 -49.2947 6.04674 34.9813 -47.5063 6.04674 
-42.1925 -47.2635 6.04674 -48.0051 -42.8247 6.04674 -38.7844 -47.2635 8.10919 
-29.5637 -47.2635 9.42742 -20.3429 -47.2635 11.4158 -11.1222 -47.2635 12.069 
-1.90151 -47.2635 11.8062 7.3192 -47.2635 10.9902 16.5399 -47.2635 9.91143 
25.7606 -47.2635 8.0814 35.5047 -47.2635 6.04674 34.9813 -47.2635 6.33874 
44.2021 -41.5138 6.04674 -66.4465 -29.1462 6.04674 -56.7583 -38.0428 6.04674 
-57.2258 -37.6118 6.04674 -48.0051 -38.0428 10.407 -38.7844 -38.0428 12.6828 
16.5399 -38.0428 14.9549 25.7606 -38.0428 14.645 34.9813 -38.0428 12.012 
50.9517 -38.0428 6.04674 44.2021 -38.0428 8.75218 53.4228 -36.3547 6.04674 
62.6435 -30.3966 6.04674 -66.7447 -28.8221 6.04674 -66.4465 -28.8221 6.28706 
-57.2258 -28.8221 10.5965 -48.0051 -28.8221 13.0887 44.2021 -28.8221 13.5719 
53.4228 -28.8221 10.4238 64.3731 -28.8221 6.04674 62.6435 -28.8221 7.37744 
71.8642 -20.9258 6.04674 -71.2248 -19.6014 6.04674 -75.6672 -16.2953 6.04674 
-66.4465 -19.6014 8.9046 -57.2258 -19.6014 13.0059 53.4228 -19.6014 14.3802 
62.6435 -19.6014 12.1067 72.991 -19.6014 6.04674 71.8642 -19.6014 7.01171 
-79.2171 -10.3806 6.04674 -75.6672 -10.3806 9.21404 62.6435 -10.3806 14.321 
77.6463 -10.3806 6.04674 71.8642 -10.3806 10.5204 81.0849 -3.90727 6.04674 
-82.2705 -1.15992 6.04674 -75.6672 -1.15992 11.791 -66.4465 -1.15992 14.9206 
71.8642 -1.15992 13.424 81.9778 -1.15992 6.04674 81.0849 -1.15992 6.95815 
-82.6765 8.06079 6.04674 -75.6672 8.06079 12.3841 83.6133 8.06079 6.04674 
81.0849 8.06079 9.16411 -82.0733 17.2815 6.04674 -75.6672 17.2815 13.0303 
[...]
POINT_DATA 590
SCALARS ImageScalars float
LOOKUP_TABLE default
0 0 0 0 0 0 0 0 0 
0 0 0 0 0 0 0 0 0 
0 0 0 0 0 0 0 0 0 
0 0 0 0 0 0 0 0 0 
0 0 0 0 0 0 0 0 0 
0 0 0 0 0 0 0 0 0 
0 0 0 0 0 0 0 0 0 
0 0 0 0 0 0 0 0 0 
0 0 0 0 0 0 0 0 0 
0 0 0 0 0 0 0 0 0 
0 0 0 0 0 0 0 0 0 
0 0 0 0 0 0 0 0 0 
0 0 0 0 0 0 0 0 0 
0 0 0 0 0 0 0 0 0 
0 0 0 0 0 0 0 0 0 
0 0 0 0 0 0 0 0 0 
0 0 0 0 0 0 0 0 0 
0 0 0 0 0 0 0 0 0 
0 0 0 0 0 0 0 0 0 
0 0 0 0 0 0 0 0 0 
0 0 0 0 0 0 0 0 0 
0 0 0 0 0 0 0 0 0 
0 0 0 0 0 0 0 0 0 
0 0 0 0 0 0 0 0 0 
0 0 0 0 0 0 0 0 0 
0 0 0 0 0 0 0 0 0 
0 0 0 0 0 0 0 0 0 
0 0 0 0 0 0 0 0 0 
0 0 0 0 0 0 0 0 0 
0 0 0 0 0 0 0 0 0 
0 0 0 0 0 0 0 0 0 
0 0 0 0 0 0 0 0 0 
0 0 0 0 0 0 0 0 0 
0 0 0 0 0 0 0 0 0 
0 0 0 0 0 0 0 0 0 
0 0 0 0 0 0 0 0 0 
0 0 0 0 0 0 0 0 0 
0 0 0 0 0 0 0 0 0 
0 0 0 0 0 0 0 0 0 
0 0 0 0 0 0 0 0 0 
0 0 0 0 0 0 0 0 0 
0 0 0 0 0 0 0 0 0 
0 0 0 0 0 0 0 0 0 
0 0 0 0 0 0 0 0 0 
0 0 0 0 0 0 0 0 0 
0 0 0 0 0 0 0 0 0 
0 0 0 0 0 0 0 0 0 
0 0 0 0 0 0 0 0 0 
0 0 0 0 0 0 0 0 0 
0 0 0 0 0 0 0 0 0 
0 0 0 0 0 0 0 0 0 
0 0 0 0 0 0 0 0 0 
0 0 0 0 0 0 0 0 0 
0 0 0 0 0 0 0 0 0 
0 0 0 0 0 0 0 0 0 
0 0 0 0 0 0 0 0 0 
0 0 0 0 0 0 0 0 0 
0 0 0 0 0 0 0 0 0 
0 0 0 0 0 0 0 0 0 
0 0 0 0 0 0 0 0 0 
0 0 0 0 0 0 0 0 0 
0 0 0 0 0 0 0 0 0 
0 0 0 0 0 0 0 0 0 
0 0 0 0 0 0 0 0 0 
0 0 0 0 0 0 0 0 0 
0 0 0 0 0 
NORMALS Normals float
-0.181792 0.0375413 0.98262 0.175884 0.0845977 0.980769 -0.141007 0.0123214 0.989932 
0.199301 0.477944 0.855481 0.0952314 0.486493 0.868479 -0.0676108 0.51798 0.852717 
-0.133844 0.57144 0.809655 -0.107086 0.624641 0.773535 -0.233466 0.728779 0.64372 
0.235218 0.485887 0.841776 0.0609531 0.425866 0.902731 0.0123052 0.332254 0.94311 
0.0881781 0.230843 0.968987 0.169558 0.179906 0.96896 0.111928 0.174039 0.978357 
-0.0301105 0.213662 0.976444 -0.0453591 0.216069 0.975324 -0.0798861 0.290619 0.953498 
-0.108733 0.356253 0.928042 -0.215238 0.499498 0.839151 -0.42041 0.665105 0.617163 
0.333006 0.44573 0.830922 0.115819 0.226134 0.967186 0.00770531 0.153609 0.988102 
-0.0247661 0.150381 0.988318 0.0253818 0.0731033 0.997001 0.13825 -0.00933864 0.990353 
0.124764 -0.0118435 0.992116 -0.0130271 0.00668509 0.999893 -0.0400629 0.000815852 0.999197 
0.00651186 0.0220063 0.999737 -0.0368827 0.143184 0.989009 -0.132426 0.229585 0.964238 
-0.23145 0.316488 0.919927 -0.461816 0.492923 0.737396 0.450837 0.285512 0.845712 
0.18284 0.154351 0.970951 -0.056224 0.163109 0.985005 -0.029083 0.0694002 0.997165 
-0.0806971 0.000366202 0.996739 -0.0625616 -0.0346688 0.997439 0.0852763 0.00401759 0.996349 
0.132835 -0.0757719 0.988238 -0.0171248 0.0128541 0.999771 -0.0295845 -0.140379 0.989656 
0.0759674 -0.0726251 0.994462 0.107853 0.0173557 0.994015 -0.038545 0.0778667 0.996218 
-0.144173 0.185669 0.971978 -0.205764 0.0902045 0.974435 -0.336858 0.381631 0.860747 
-0.557232 0.46018 0.691177 0.515452 0.238856 0.822956 0.344945 0.219451 0.912609 
0.139803 -0.0480422 0.989013 -0.00174711 0.0488535 0.998804 -0.14546 -0.020061 0.989161 
-0.131338 -0.0986312 0.986419 0.0224511 -0.14353 0.989391 0.170078 0.113013 0.978929 
0.106596 0.156598 0.981893 0.121924 -0.17429 0.977117 -0.0844383 0.0506037 0.995143 
-0.112152 -0.153947 0.981694 0.157703 -0.0949684 0.982909 0.117521 -0.0436773 0.992109 
0.0453229 -0.0293673 0.998541 -0.0801312 0.0640474 0.994725 0.0673523 0.0976076 0.992943 
-0.204664 0.056137 0.977221 -0.182489 0.0352599 0.982575 -0.457492 0.193804 0.867837 
0.466494 0.103624 0.878433 0.280513 -0.0394278 0.95904 0.0513084 -0.0521895 0.997318 
-0.028237 -0.0871212 0.995797 -0.172579 -0.0807519 0.98168 -0.200964 -0.0666839 0.977326 
0.188666 0.073901 0.979257 0.0663186 -0.132587 0.98895 0.162982 0.077058 0.983615 
0.190386 -0.0242804 0.981409 0.09713 -0.105227 0.989693 0.000448426 -0.103046 0.994676 
-0.129777 -0.0282644 0.99114 0.177549 -0.0376986 0.98339 0.172503 -0.0182001 0.984841 
0.0997754 -0.00655881 0.994988 -0.0521842 0.0076752 0.998608 -0.153798 0.010754 0.988044 
-0.183714 0.021056 0.982754 -0.384676 0.0184696 0.922867 0.478789 -0.185769 0.858051 
0.118574 -0.191114 0.97438 0.0960483 -0.121892 0.987885 -0.030964 -0.17486 0.984106 
-0.128239 -0.1344 0.982594 -0.176148 -0.106576 0.978577 0.020872 -0.0593739 0.998018 
0.19956 -0.372364 0.906378 0.0444196 0.00381669 0.999006 -0.0478808 -0.346518 0.93682 
-0.051153 -0.114036 0.992159 0.159259 -0.0390188 0.986466 0.150208 -0.0573918 0.986987 
0.0709564 -0.0448478 0.996471 0.00229829 -0.0604152 0.998171 0.0942884 -0.103495 0.990151 
-0.170022 -0.0132018 0.985352 -0.166043 -0.104858 0.980528 -0.345193 -0.0493974 0.937231 
-0.687151 -0.102845 0.719198 0.251673 -0.156417 0.955089 0.0720158 -0.202723 0.976584 
-0.0327536 -0.242944 0.969487 -0.103486 -0.177349 0.978692 -0.122164 -0.162627 0.979096 
-0.0561303 -0.0805009 0.995173 0.0907344 -0.240864 0.966308 -0.0137735 -0.217965 0.975859 
-0.0820663 -0.362471 0.928375 0.169284 -0.250064 0.953316 0.229284 -0.203504 0.951848 
0.166419 -0.183897 0.968755 0.0552312 -0.167412 0.984339 -0.0118691 -0.139154 0.9902 
-0.191529 -0.347509 0.917907 -0.382373 -0.156147 0.910719 0.426782 -0.561031 0.709296 
0.0340184 -0.346107 0.937578 -0.027195 -0.290045 0.956627 -0.0364239 -0.267985 0.962734 
-0.0831343 -0.190376 0.978185 -0.0525895 -0.151507 0.987056 0.010556 -0.14459 0.989435 
-0.0422007 -0.259374 0.964855 0.209656 -0.360972 0.908705 0.192908 -0.351167 0.916225 
0.108844 -0.335676 0.935668 -0.0900732 -0.314132 0.945097 -0.201811 -0.396395 0.895625 
-0.405893 -0.511418 0.757431 0.133302 -0.615497 0.776784 -0.0638546 -0.564717 0.822811 
0.197628 0.628229 0.75251 0.0745959 0.754104 0.652505 -0.082161 0.769827 0.632943 
-0.14072 0.735515 0.662733 -0.135249 0.703469 0.697738 -0.245026 0.761394 0.600201 
0.270666 0.69202 0.669215 0.125847 0.603702 0.787214 0.257193 0.825545 0.502322 
0.0928416 0.565633 0.819414 0.143204 0.721717 0.677213 0.237458 0.532421 0.812491 
0.230492 0.523254 0.820414 0.238698 0.546147 0.802962 -0.275141 0.754197 0.596226 
-0.339346 0.702571 0.625491 -0.445656 0.694081 0.56537 0.4216 0.577115 0.699422 
0.454417 0.526564 0.718496 0.538839 0.659821 0.523726 -0.468377 0.69778 0.541965 
-0.560445 0.635335 0.531273 0.465443 0.47433 0.747244 0.490206 0.436237 0.754583 
0.546804 0.53748 0.641967 -0.588122 0.589746 0.553454 -0.595546 0.527016 0.606283 
0.541737 0.379153 0.750176 0.566137 0.36452 0.739334 0.774301 0.572742 0.269119 
-0.598548 0.493107 0.631336 0.582562 0.269668 0.766747 -0.780372 0.27521 0.561498 
-0.897715 0.368158 0.242009 0.63733 0.0345642 0.769815 -0.746991 0.15169 0.647298 
-0.769863 0.108883 0.628852 -0.794224 0.173556 0.582311 0.624688 -0.24719 0.740717 
0.968001 -0.0556626 0.244696 0.557283 -0.348429 0.75368 -0.788643 -0.0742989 0.610345 
-0.73908 -0.190399 0.64615 0.491045 -0.340509 0.801828 0.592225 -0.409192 0.69414 
-0.0762978 -0.277191 0.957781 0.133685 -0.274391 0.95228 -0.629936 -0.289464 0.720688 
-0.80094 -0.311607 0.511269 0.446041 -0.564766 0.694325 0.659801 -0.536723 0.52592 
0.431517 -0.57595 0.694316 0.206325 -0.445744 0.871058 0.0400533 -0.394991 0.917812 
-0.0239325 -0.328678 0.944139 -0.0421725 -0.245014 0.968602 -0.0429446 -0.19678 0.979507 
0.00741444 -0.156995 0.987572 -0.059188 -0.238771 0.96927 -0.0551774 -0.304496 0.950914 
-0.0730715 -0.230271 0.970379 0.141284 -0.306181 0.941431 0.119351 -0.288297 0.950074 
0.191459 -0.433383 0.880638 0.178737 -0.480837 0.858399 -0.312282 -0.400478 0.861451 
-0.447796 -0.517127 0.729423 -0.414008 -0.538082 0.73421 -0.829644 -0.495551 0.257139 
0.423313 -0.651478 0.62959 0.324425 -0.555058 0.765937 0.0911779 -0.447516 0.889616 
-0.00951889 -0.369696 0.929104 -0.00590975 -0.317848 0.948123 -0.0254451 -0.321595 0.946535 
-0.0350356 -0.35054 0.935892 -0.080473 -0.464784 0.881759 -0.11326 -0.513824 0.850386 
-0.00292462 -0.603616 0.79727 0.16218 -0.621972 0.766061 0.141534 -0.600706 0.786842 
0.163813 -0.538012 0.826867 0.132195 -0.620248 0.773186 -0.231579 -0.482299 0.844842 
-0.0296556 -0.634805 0.772103 -0.338251 -0.465072 0.818104 -0.59045 -0.666738 0.454785 
0.232225 -0.54956 0.802531 0.0803096 -0.598405 0.797159 -0.0572604 -0.616339 0.785397 
-0.0859753 -0.656904 0.749057 -0.143491 -0.754937 0.639907 0.0109575 -0.896637 0.442631 
-0.158971 -0.880181 0.447225 0.331678 0.922834 0.195877 0.241121 0.949419 0.201157 
0.192977 0.968973 0.154438 0.09164 0.988745 0.118261 -0.0067006 0.999478 0.0315919 
-0.0851998 0.996362 0.00215675 -0.154067 0.98795 0.0147828 -0.224458 0.974477 -0.00356658 
-0.337198 0.941207 -0.0206516 0.556235 0.828901 0.0593712 0.402701 0.904697 0.139123 
0.421025 0.900692 0.107195 -0.42741 0.902866 -0.0464157 -0.44255 0.895354 -0.049898 
-0.532721 0.842141 -0.0837053 0.627572 0.777922 0.0314867 0.699101 0.714506 0.0271698 
0.522961 0.597599 -0.607772 -0.570496 0.817762 -0.076155 -0.483111 0.711523 -0.510234 
-0.626376 0.776771 -0.0654215 0.756038 0.654501 0.00593239 0.811235 0.584714 -0.0026266 
-0.706356 0.705919 -0.0523479 -0.722299 0.690319 -0.0417457 0.830821 0.556535 0.00238085 
0.760372 0.621001 -0.190241 -0.817958 0.574673 -0.0263682 -0.887273 0.460401 -0.0278978 
0.940528 0.336866 0.0439112 -0.912653 0.408363 -0.017448 -0.852376 0.426586 -0.302457 
0.98661 0.141167 0.0816904 0.987178 0.134048 0.0866659 -0.984863 0.168543 0.0404632 
0.977126 -0.0486843 0.207014 0.963958 -0.138286 0.227293 0.998233 -0.034023 0.048712 
-0.998894 -0.0278961 0.0378559 0.890913 -0.367527 0.266831 -0.963591 -0.24569 0.10549 
0.730425 -0.5703 0.375814 0.691936 -0.597544 0.405175 -0.841971 -0.502853 0.195507 
-0.83127 -0.520662 0.194681 -0.87367 -0.481984 -0.0662731 0.506484 -0.672706 0.539389 
0.457348 -0.686277 0.565559 0.431033 -0.686585 0.585501 -0.210047 -0.846239 0.489653 
-0.146876 -0.861321 0.486368 0.00727768 -0.852866 0.522078 0.178733 -0.850623 0.494465 
0.127612 -0.909857 0.394811 -0.296056 -0.923978 0.242106 -0.66905 -0.687486 0.282374 
-0.615349 -0.730588 0.29595 0.407503 -0.651457 0.639958 0.501904 -0.791386 0.348999 
0.264046 -0.639785 0.721772 -0.00893051 -0.805619 0.592367 -0.0748048 -0.774358 0.62831 
-0.10838 -0.782477 0.613174 -0.198293 -0.844137 0.498109 -0.162279 -0.829424 0.534529 
-0.249527 -0.924227 0.289034 0.0739185 -0.907635 0.4132 0.128595 -0.930862 0.341994 
0.0118647 -0.900686 0.434308 -0.169685 -0.886004 0.431514 -0.163719 -0.882021 0.441855 
0.320308 0.831199 -0.454435 0.202585 0.837338 -0.507765 0.159961 0.878581 -0.450009 
0.0459382 0.868164 -0.494146 -0.0579974 0.840855 -0.538144 -0.104912 0.813875 -0.57149 
-0.149164 0.795627 -0.587135 -0.181788 0.767261 -0.615032 -0.298232 0.771319 -0.562249 
0.391759 0.78359 -0.482194 0.448091 0.683014 -0.576807 0.309811 0.750963 -0.583156 
0.154202 0.713202 -0.683786 0.127082 0.627891 -0.767856 0.0182616 0.54897 -0.835642 
-0.0506478 0.54963 -0.833872 -0.0883053 0.584268 -0.806742 -0.132526 0.644626 -0.752924 
-0.157986 0.698301 -0.698152 -0.306503 0.766681 -0.564141 -0.296372 0.761931 -0.575868 
-0.385609 0.64392 -0.660812 0.564608 0.480191 -0.671293 0.507379 0.579494 -0.637772 
0.50774 0.574229 -0.642232 0.361207 0.49483 -0.790362 0.254522 0.374784 -0.891491 
-0.0436484 0.344348 -0.937827 -0.144032 0.384045 -0.912011 -0.268027 0.429578 -0.862336 
-0.421063 0.629808 -0.652723 -0.328109 0.545353 -0.77132 -0.424783 0.618919 -0.660681 
-0.49502 0.593225 -0.634854 0.567505 0.474485 -0.672906 0.555501 0.46538 -0.689087 
0.371317 0.391269 -0.84204 0.233205 0.244878 -0.94109 -0.250757 0.369975 -0.894561 
-0.306556 0.438739 -0.844708 -0.521684 0.590652 -0.61561 -0.452112 0.561806 -0.692798 
-0.591319 0.4951 -0.636568 0.595533 0.508002 -0.622314 0.633646 0.557506 -0.536358 
0.426197 0.420197 -0.801118 0.288423 0.21152 -0.933848 -0.200242 0.316651 -0.927165 
-0.374603 0.366726 -0.851578 -0.604197 0.464366 -0.647542 -0.566633 0.442422 -0.695119 
0.741077 0.380507 -0.55319 0.571708 0.30623 -0.761166 -0.280594 0.152048 -0.947707 
-0.666314 0.348136 -0.659414 -0.540755 0.309662 -0.782108 -0.719193 0.283316 -0.634424 
0.811087 0.169495 -0.559829 0.544497 0.1706 -0.82123 0.31924 0.00445161 -0.947663 
-0.429447 0.25868 -0.865251 -0.748739 0.2308 -0.621387 -0.706026 0.237317 -0.667238 
0.805175 -0.00263693 -0.593032 0.638753 0.0689466 -0.766316 -0.849359 0.0269229 -0.527129 
-0.743952 0.0324354 -0.667446 0.875383 -0.20077 -0.439768 0.584741 -0.112755 -0.803346 
-0.432853 -0.142701 -0.890098 -0.807701 -0.17812 -0.562043 -0.814908 -0.324565 -0.48019 
-0.746332 -0.167101 -0.644256 0.856558 -0.409673 -0.313809 0.807886 -0.538178 -0.240175 
0.765934 -0.384351 -0.515383 0.487916 -0.12501 -0.863893 -0.818099 -0.38413 -0.427969 
-0.545262 -0.326829 -0.771928 0.74915 -0.646144 -0.145849 0.671487 -0.73562 -0.0892719 
0.525977 -0.414711 -0.742538 -0.188784 -0.966973 -0.171239 0.0330745 -0.979598 -0.198228 
-0.00245261 -0.545277 -0.838252 0.169526 -0.969395 -0.177576 -0.382688 -0.899415 -0.211195 
-0.738312 -0.565316 -0.36785 -0.664073 -0.659434 -0.352354 -0.696789 -0.536079 -0.476556 
0.573137 -0.819027 -0.0266298 0.465442 -0.884896 -0.0179899 0.446003 -0.71143 -0.543092 
0.284993 -0.954257 -0.090406 0.176864 -0.606152 -0.775434 0.0669974 -0.996579 0.0483938 
-0.069907 -0.996212 0.051708 -0.226638 -0.969718 -0.0910028 -0.0934016 -0.581179 -0.808398 
-0.286487 -0.953615 -0.0924316 -0.17329 -0.70248 -0.690284 -0.233765 -0.962098 -0.140429 
-0.284226 -0.951241 -0.119815 -0.290189 -0.9095 -0.297659 0.149138 -0.973902 -0.171092 
0.118657 -0.979797 -0.160989 0.13583 -0.955043 -0.263522 0.0333575 -0.992623 -0.116567 
0.0311902 -0.92127 -0.38767 -0.278712 -0.942906 -0.182338 -0.175362 -0.969716 -0.169996 
-0.209389 -0.899818 -0.382731 0.136506 0.368845 -0.919413 0.0211299 0.311939 -0.949867 
0.0150855 0.315838 -0.948693 -0.0361216 0.313565 -0.94888 -0.0561823 0.304669 -0.9508 
0.157453 0.330734 -0.930496 0.199034 0.199138 -0.959547 0.136117 0.327119 -0.935128 
0.0127184 0.283738 -0.958817 0.0119952 0.260331 -0.965445 -0.0326091 0.269836 -0.962354 
-0.0487438 0.313693 -0.948272 -0.0535039 0.288988 -0.955836 -0.0396096 0.317841 -0.947316 
-0.128596 0.325335 -0.936814 -0.160917 0.302319 -0.939526 0.196202 0.190628 -0.961855 
0.198242 0.180088 -0.963467 0.196817 0.188017 -0.962243 0.109169 0.0881933 -0.990103 
0.0182964 0.112846 -0.993444 -0.00428231 0.0921821 -0.995733 -0.0190907 0.116641 -0.992991 
-0.00639238 0.109172 -0.994002 -0.0229537 0.152485 -0.988039 -0.0911882 0.187015 -0.978116 
-0.164156 0.303514 -0.93858 -0.15066 0.292946 -0.944184 -0.203802 0.261055 -0.943565 
0.330811 0.233717 -0.914298 0.211618 0.174633 -0.961624 0.0814817 0.250255 -0.964745 
0.199336 0.172075 -0.964705 0.0890485 0.092902 -0.991685 0.064541 0.0209743 -0.997695 
0.025594 0.0360948 -0.999021 0.0108462 0.060246 -0.998125 -0.0138866 0.154673 -0.987868 
-0.0116021 0.0621679 -0.997998 0.0326026 0.0612223 -0.997592 -0.00272863 0.08997 -0.995941 
-0.0981703 0.120252 -0.987878 -0.184694 0.26187 -0.947266 -0.175439 0.195126 -0.96496 
-0.183345 0.257167 -0.948815 0.348675 0.200403 -0.915568 0.331668 0.100282 -0.938051 
0.334726 0.20302 -0.920185 0.0590467 0.261335 -0.963441 0.0814205 0.130144 -0.988146 
0.0459198 0.0835431 -0.995446 0.0513207 0.0426613 -0.997771 0.0581602 0.0544988 -0.996819 
0.11599 0.168163 -0.978911 -0.0110349 0.0458404 -0.998888 -0.104217 0.133147 -0.985602 
0.00357141 -0.0302016 -0.999537 -0.029382 -0.0686928 -0.997205 -0.0411836 -0.00282613 -0.999148 
-0.060838 0.106426 -0.992458 -0.234524 0.14432 -0.961338 -0.170941 0.142934 -0.974858 
-0.211151 0.154238 -0.965208 0.301971 0.0306961 -0.952823 0.33816 0.0361549 -0.940394 
0.167847 0.204495 -0.96437 0.0313582 0.163575 -0.986032 0.000943299 0.136206 -0.99068 
0.0339652 0.0972136 -0.994684 0.152602 0.0258345 -0.98795 0.00215012 0.108457 -0.994099 
-0.0559249 -0.0225964 -0.998179 -0.0751952 0.0481673 -0.996005 -0.177307 -0.0571315 -0.982496 
0.0377841 -0.0455073 -0.998249 0.0751115 0.0275027 -0.996796 -0.0267699 0.08604 -0.995932 
-0.138528 0.0749834 -0.987516 -0.239373 0.18541 -0.95306 -0.18944 0.160054 -0.96876 
-0.393216 0.175029 -0.902633 0.402657 0.0897443 -0.910941 0.348258 0.0799781 -0.933981 
0.178555 0.0486591 -0.982726 0.0375706 0.138275 -0.989681 -0.0223454 0.139301 -0.989998 
-0.0609916 0.100398 -0.993076 0.0471791 -0.00131253 -0.998886 0.0853946 -0.129079 -0.987951 
-0.0654796 0.104827 -0.992332 -0.125122 -0.0147578 -0.992032 -0.0953071 0.105569 -0.989834 
0.0507323 0.14586 -0.988004 0.0841888 0.101543 -0.991262 -0.0121166 0.118975 -0.992823 
-0.0970837 0.0943953 -0.99079 -0.105207 0.0513159 -0.993125 -0.438909 0.0483582 -0.897229 
-0.410726 -0.102769 -0.905949 -0.330383 0.0430895 -0.942863 0.364878 -0.080704 -0.927551 
0.401216 -0.0872333 -0.91182 0.273692 -0.050925 -0.960468 0.198846 0.110954 -0.97373 
0.110823 0.042691 -0.992923 -0.0378599 0.05756 -0.997624 -0.104016 0.0825025 -0.991148 
-0.0635126 0.0528887 -0.996579 0.103021 -0.0477859 -0.993531 0.0414354 0.00139471 -0.99914 
-0.0909177 -0.0141101 -0.995758 -0.0100662 0.040278 -0.999138 0.0330719 0.1084 -0.993557 
0.054392 0.0724219 -0.99589 -0.032437 0.0772623 -0.996483 -0.202821 0.0487802 -0.978 
-0.374633 -0.125512 -0.918638 -0.24873 -0.069544 -0.966073 0.466428 -0.110115 -0.877678 
0.327263 -0.0591748 -0.943079 -0.0519263 -0.0407434 -0.997819 0.0180108 -0.0295451 -0.999401 
-0.0682216 -0.00199378 -0.997668 -0.0801885 -0.00173447 -0.996778 0.0228385 -0.0263722 -0.999391 
-0.0173661 -0.157268 -0.987403 -0.0957709 -0.193734 -0.976368 0.00165538 -0.49942 -0.866358 
0.041788 -0.20091 -0.978718 0.0776506 -0.165198 -0.983199 0.0446925 -0.110353 -0.992887 
-0.0517389 -0.185952 -0.981196 -0.203736 -0.0945009 -0.974454 -0.363402 -0.0985342 -0.926407 
-0.275338 0.00195459 -0.961345 0.407707 -0.340605 -0.847209 0.377184 -0.455718 -0.806258 
0.362538 -0.364674 -0.857659 0.173679 -0.590078 -0.788444 0.138389 -0.198728 -0.970235 
0.00247062 -0.116503 -0.993187 -0.0662029 -0.194808 -0.978605 -0.0915505 -0.550202 -0.829998 
-0.10413 -0.208024 -0.972565 -0.146093 -0.604912 -0.782776 -0.0661712 -0.238349 -0.968923 
-0.191768 -0.560092 -0.805929 -0.123359 -0.404834 -0.906031 -0.046233 -0.516084 -0.855289 
-0.140979 -0.52529 -0.839163 -0.133336 -0.486865 -0.86324 0.0399962 -0.530184 -0.846938 
0.124647 -0.561005 -0.818374 0.119212 -0.523851 -0.843427 0.107654 -0.54993 -0.828244 
0.0531304 -0.401815 -0.914178 -0.013963 -0.538445 -0.842545 -0.0325774 -0.374979 -0.926461 
-0.0698976 -0.497117 -0.864864 -0.0368272 -0.421936 -0.905877 -0.399729 -0.363666 -0.841406 
-0.342879 -0.445633 -0.826949 -0.313342 -0.311212 -0.897198 0.167761 -0.594137 -0.786675 
0.0872801 -0.607855 -0.789237 0.0495993 -0.529562 -0.84682 -0.0933151 -0.555735 -0.826106 
-0.142558 -0.528319 -0.836993 -0.130985 -0.471872 -0.871883 
