# vtk DataFile Version 4.2
vtk output
ASCII
DATASET POLYDATA
POINTS 494 float
-16.2515 -30.0217 -15.0501 -9.49462 -30.0217 -16.0584 -2.73775 -30.0217 -15.8 
-23.0084 -23.2649 -17.5916 -16.2515 -23.2649 -18.9454 -9.49462 -23.2649 -19.782 
-2.73775 -23.2649 -19.6386 4.01912 -23.2649 -18.852 10.776 -23.2649 -17.7708 
17.5329 -23.2649 -17.2479 24.2897 -23.2649 -15.7205 -29.7652 -16.508 -18.1081 
-23.0084 -16.508 -19.971 -16.2515 -16.508 -20.6991 -9.49462 -16.508 -21.0312 
-2.73775 -16.508 -21.0998 4.01912 -16.508 -20.2171 10.776 -16.508 -19.4551 
17.5329 -16.508 -19.3925 24.2897 -16.508 -19.0184 31.0466 -16.508 -17.3046 
-36.5221 -9.75112 -16.8369 -29.7652 -9.75112 -20.2693 -23.0084 -9.75112 -21.1854 
-16.2515 -9.75112 -21.2363 -9.49462 -9.75112 -21.028 -2.73775 -9.75112 -20.8374 
4.01912 -9.75112 -19.97 10.776 -9.75112 -19.4701 17.5329 -9.75112 -20.176 
24.2897 -9.75112 -20.3309 31.0466 -9.75112 -19.4939 37.8035 -9.75112 -16.235 
-36.5221 -2.99425 -18.0823 -29.7652 -2.99425 -20.6054 -23.0084 -2.99425 -21.4525 
-16.2515 -2.99425 -21.1875 -9.49462 -2.99425 -20.5613 -2.73775 -2.99425 -20.2158 
4.01912 -2.99425 -19.5306 10.776 -2.99425 -19.5595 17.5329 -2.99425 -20.5792 
24.2897 -2.99425 -21.1293 31.0466 -2.99425 -20.8126 37.8035 -2.99425 -17.9762 
-36.5221 3.76262 -17.8607 -29.7652 3.76262 -21.1068 -23.0084 3.76262 -21.3003 
-16.2515 3.76262 -21.1114 -9.49462 3.76262 -20.5983 -2.73775 3.76262 -20.2264 
4.01912 3.76262 -19.1943 10.776 3.76262 -19.98 17.5329 3.76262 -21.2729 
24.2897 3.76262 -21.7491 31.0466 3.76262 -21.3274 37.8035 3.76262 -18.028 
-36.5221 10.5195 -16.3572 -29.7652 10.5195 -19.9011 -23.0084 10.5195 -21.5196 
-16.2515 10.5195 -21.3873 -9.49462 10.5195 -21.2422 -2.73775 10.5195 -19.908 
4.01912 10.5195 -18.7545 10.776 10.5195 -19.9081 17.5329 10.5195 -21.4894 
24.2897 10.5195 -21.5776 31.0466 10.5195 -20.1389 37.8035 10.5195 -16.1174 
-29.7652 17.2764 -17.8902 -23.0084 17.2764 -20.4001 -16.2515 17.2764 -21.4373 
-9.49462 17.2764 -21.1869 -2.73775 17.2764 -20.0936 4.01912 17.2764 -19.0433 
10.776 17.2764 -19.5565 17.5329 17.2764 -20.2263 24.2897 17.2764 -19.8335 
31.0466 17.2764 -17.1905 -23.0084 24.0332 -17.8887 -16.2515 24.0332 -19.7386 
-9.49462 24.0332 -20.2299 -2.73775 24.0332 -19.4782 4.01912 24.0332 -18.625 
10.776 24.0332 -18.1014 17.5329 24.0332 -17.4006 24.2897 24.0332 -15.3721 
-16.2515 30.7901 -15.3194 -9.49462 30.7901 -16.6115 -2.73775 30.7901 -16.6988 
4.01912 30.7901 -15.9496 -16.2515 -30.0771 -14.994 -9.49462 -31.1385 -14.994 
-2.73775 -30.8531 -14.994 -16.407 -30.0217 -14.994 -23.0084 -27.0745 -14.994 
-23.0084 -30.0217 -11.5666 1.91046 -30.0217 -14.994 4.01912 -29.5041 -14.994 
4.01912 -30.0217 -14.5259 10.776 -27.7783 -14.994 10.776 -30.0217 -12.8895 
17.5329 -26.4717 -14.994 17.5329 -30.0217 -11.026 24.2897 -24.139 -14.994 
-28.833 -23.2649 -14.994 -29.7652 -22.463 -14.994 -29.7652 -23.2649 -14.3022 
25.9632 -23.2649 -14.994 31.0466 -20.0639 -14.994 31.0466 -23.2649 -11.7337 
-34.8402 -16.508 -14.994 -36.5221 -13.9209 -14.994 -36.5221 -16.508 -13.1368 
34.6618 -16.508 -14.994 37.8035 -12.3548 -14.994 37.8035 -16.508 -11.5352 
-38.4525 -9.75112 -14.994 39.244 -9.75112 -14.994 -39.8132 -2.99425 -14.994 
41.2702 -2.99425 -14.994 44.5603 -2.99425 -9.11219 -39.6048 3.76262 -14.994 
41.2762 3.76262 -14.994 44.5603 3.76262 -8.77212 -37.9504 10.5195 -14.994 
-36.5221 13.4102 -14.994 38.9365 10.5195 -14.994 37.8035 12.3801 -14.994 
-34.0364 17.2764 -14.994 -36.5221 17.2764 -11.8623 -29.7652 22.272 -14.994 
33.8987 17.2764 -14.994 31.0466 19.951 -14.994 37.8035 17.2764 -9.28878 
-27.9589 24.0332 -14.994 -29.7652 24.0332 -13.124 -23.0084 27.6067 -14.994 
10.776 30.0695 -14.994 17.5329 27.4862 -14.994 24.9647 24.0332 -14.994 
24.2897 24.444 -14.994 31.0466 24.0332 -9.50489 -16.9225 30.7901 -14.994 
-23.0084 30.7901 -10.2234 -16.2515 31.0892 -14.994 -9.49462 32.5522 -14.994 
-2.73775 32.8822 -14.994 8.73106 30.7901 -14.994 4.01912 32.0265 -14.994 
10.776 30.7901 -14.4392 17.5329 30.7901 -11.3736 -2.73775 37.547 -8.4019 
-23.0084 -32.0495 -8.23713 -16.2515 -34.3708 -8.23713 -9.49462 -35.3768 -8.23713 
-2.73775 -35.1873 -8.23713 4.01912 -34.3548 -8.23713 10.776 -33.2823 -8.23713 
17.5329 -31.8119 -8.23713 -26.4845 -30.0217 -8.23713 -29.7652 -27.7532 -8.23713 
23.1052 -30.0217 -8.23713 24.2897 -29.6015 -8.23713 24.2897 -30.0217 -6.29821 
31.0466 -25.4946 -8.23713 -34.3249 -23.2649 -8.23713 -36.5221 -20.6013 -8.23713 
33.8102 -23.2649 -8.23713 37.8035 -19.026 -8.23713 -39.2007 -16.508 -8.23713 
39.7766 -16.508 -8.23713 -41.9708 -9.75112 -8.23713 43.2942 -9.75112 -8.23713 
44.5603 -4.60154 -8.23713 -43.1476 -2.99425 -8.23713 -43.279 -2.99425 -4.06412 
44.9272 -2.99425 -8.23713 -43.0546 3.76262 -8.23713 44.7703 3.76262 -8.23713 
44.5603 4.42731 -8.23713 -41.5762 10.5195 -8.23713 42.5191 10.5195 -8.23713 
-38.4819 17.2764 -8.23713 -36.5221 20.1261 -8.23713 38.3299 17.2764 -8.23713 
37.8035 17.9239 -8.23713 -33.1394 24.0332 -8.23713 -29.7652 27.2292 -8.23713 
24.2897 29.432 -8.23713 31.9179 24.0332 -8.23713 31.0466 24.7801 -8.23713 
-24.7569 30.7901 -8.23713 -23.0084 31.861 -8.23713 -16.2515 34.8412 -8.23713 
-9.49462 36.8418 -8.23713 4.01912 37.2719 -8.23713 10.776 35.6515 -8.23713 
21.8001 30.7901 -8.23713 17.5329 32.9793 -8.23713 24.2897 30.7901 -3.70022 
-3.52113 37.547 -8.23713 -9.49462 37.547 -4.75853 -1.00532 37.547 -8.23713 
-2.73775 37.6324 -8.23713 4.01912 37.547 -7.13631 -23.0084 -33.0748 -1.48025 
-16.2515 -35.3984 -1.48025 -9.49462 -36.4429 -1.48025 -2.73775 -36.6548 -1.48025 
4.01912 -36.271 -1.48025 10.776 -35.39 -1.48025 17.5329 -33.6308 -1.48025 
24.2897 -30.9173 -1.48025 -28.1096 -30.0217 -1.48025 -29.7652 -28.8435 -1.48025 
25.8087 -30.0217 -1.48025 31.0466 -26.5297 -1.48025 -35.2514 -23.2649 -1.48025 
-36.5221 -21.5516 -1.48025 34.8531 -23.2649 -1.48025 37.8035 -20.0559 -1.48025 
-39.6307 -16.508 -1.48025 40.5414 -16.508 -1.48025 -42.2253 -9.75112 -1.48025 
-43.279 -3.49456 -1.48025 43.8846 -9.75112 -1.48025 44.5603 -6.83974 -1.48025 
-43.3589 -2.99425 -1.48025 -43.279 0.266088 -1.48025 -43.279 -2.99425 -1.19189 
45.4188 -2.99425 -1.48025 44.5603 -2.99425 2.01649 -43.1927 3.76262 -1.48025 
45.2183 3.76262 -1.48025 44.5603 5.85911 -1.48025 44.5603 3.76262 1.06272 
-41.706 10.5195 -1.48025 43.0175 10.5195 -1.48025 -38.7392 17.2764 -1.48025 
-36.5221 20.7439 -1.48025 39.1086 17.2764 -1.48025 37.8035 18.9678 -1.48025 
37.8035 17.2764 3.25438 -34.0145 24.0332 -1.48025 -29.7652 28.3605 -1.48025 
33.3335 24.0332 -1.48025 31.0466 26.1575 -1.48025 -26.6166 30.7901 -1.48025 
-23.0084 33.1022 -1.48025 -16.2515 36.2677 -1.48025 10.776 37.5226 -1.48025 
17.5329 34.9458 -1.48025 25.1193 30.7901 -1.48025 24.2897 31.3645 -1.48025 
24.2897 30.7901 3.07722 -11.7559 37.547 -1.48025 -9.49462 38.1548 -1.48025 
-2.73775 38.9787 -1.48025 10.6533 37.547 -1.48025 4.01912 38.8024 -1.48025 
-23.0084 -31.7913 5.27662 -16.2515 -34.4753 5.27662 -9.49462 -35.9453 5.27662 
-2.73775 -36.5841 5.27662 4.01912 -36.4973 5.27662 10.776 -35.6289 5.27662 
17.5329 -33.6471 5.27662 24.2897 -30.3569 5.27662 -25.9232 -30.0217 5.27662 
-29.7652 -27.2153 5.27662 -23.0084 -30.0217 9.42549 24.8098 -30.0217 5.27662 
24.2897 -30.0217 6.13947 31.0466 -25.3014 5.27662 -33.6036 -23.2649 5.27662 
-36.5221 -19.1708 5.27662 33.2423 -23.2649 5.27662 31.0466 -23.2649 8.92332 
37.8035 -17.8566 5.27662 -38.0759 -16.508 5.27662 -36.5221 -16.508 8.66506 
38.784 -16.508 5.27662 37.8035 -16.508 6.91567 -40.5528 -9.75112 5.27662 
42.1634 -9.75112 5.27662 37.8035 -9.75112 11.8537 -41.3339 -2.99425 5.27662 
43.651 -2.99425 5.27662 -40.9235 3.76262 5.27662 -36.5221 3.76262 11.8434 
43.2804 3.76262 5.27662 -39.4404 10.5195 5.27662 -36.5221 10.5195 9.55665 
41.068 10.5195 5.27662 37.8035 16.3061 5.27662 37.8035 10.5195 9.76519 
-36.5743 17.2764 5.27662 -36.5221 17.3657 5.27662 -36.5221 17.2764 5.36022 
37.1889 17.2764 5.27662 31.0466 17.2764 11.9771 -32.1151 24.0332 5.27662 
-29.7652 26.7362 5.27662 -29.7652 24.0332 8.7347 24.2897 30.4547 5.27662 
31.6376 24.0332 5.27662 31.0466 24.6216 5.27662 31.0466 24.0332 6.03571 
-25.228 30.7901 5.27662 -23.0084 32.3809 5.27662 -23.0084 30.7901 8.08982 
-16.2515 35.8273 5.27662 10.776 36.8632 5.27662 23.7798 30.7901 5.27662 
17.5329 34.2878 5.27662 17.5329 30.7901 10.8271 -10.151 37.547 5.27662 
-9.49462 37.7197 5.27662 -9.49462 37.547 5.69775 -2.73775 38.4608 5.27662 
-2.73775 37.547 7.52026 7.43401 37.547 5.27662 4.01912 38.2139 5.27662 
4.01912 37.547 6.85487 -16.2515 -31.9985 12.0335 -9.49462 -33.8451 12.0335 
-2.73775 -34.7018 12.0335 4.01912 -34.5525 12.0335 10.776 -33.4595 12.0335 
17.5329 -31.1451 12.0335 -29.7652 -23.3868 12.0335 -20.6267 -30.0217 12.0335 
-23.0084 -28.7381 12.0335 -16.2515 -30.0217 14.9202 -9.49462 -30.0217 17.2935 
-2.73775 -30.0217 17.9948 4.01912 -30.0217 17.5342 10.776 -30.0217 16.1696 
19.6427 -30.0217 12.0335 17.5329 -30.0217 13.4535 24.2897 -27.1105 12.0335 
-29.8798 -23.2649 12.0335 -29.7652 -23.2649 12.1639 -23.0084 -23.2649 17.6917 
28.8274 -23.2649 12.0335 24.2897 -23.2649 15.7416 31.0466 -20.7155 12.0335 
-34.6018 -16.508 12.0335 -36.5221 -10.9824 12.0335 -29.7652 -16.508 16.9158 
24.2897 -16.508 18.7576 34.1907 -16.508 12.0335 31.0466 -16.508 14.7729 
-36.8914 -9.75112 12.0335 -36.5221 -9.75112 12.4871 -29.7652 -9.75112 18.7468 
37.6309 -9.75112 12.0335 31.0466 -9.75112 17.0367 37.8035 -8.7995 12.0335 
-37.3309 -2.99425 12.0335 -36.5221 2.76965 12.0335 -36.5221 -2.99425 12.9832 
31.0466 -2.99425 16.9701 38.6608 -2.99425 12.0335 37.8035 -2.99425 12.8392 
-36.3561 3.76262 12.0335 -29.7652 3.76262 17.6789 24.2897 3.76262 18.509 
31.0466 3.76262 16.3937 38.1578 3.76262 12.0335 37.8035 4.82101 12.0335 
37.8035 3.76262 12.3622 -34.4098 10.5195 12.0335 -29.7652 10.5195 15.7033 
24.2897 10.5195 17.425 35.3398 10.5195 12.0335 31.0466 17.1699 12.0335 
31.0466 10.5195 14.7624 -31.085 17.2764 12.0335 -29.7652 19.5602 12.0335 
-29.7652 17.2764 13.1061 -23.0084 17.2764 17.3092 17.5329 17.2764 18.2562 
30.9601 17.2764 12.0335 24.2897 17.2764 15.3966 -26.7309 24.0332 12.0335 
[...]
POINT_DATA 494
SCALARS ImageScalars float
LOOKUP_TABLE default
0 0 0 0 0 0 0 0 0 
0 0 0 0 0 0 0 0 0 
0 0 0 0 0 0 0 0 0 
0 0 0 0 0 0 0 0 0 
0 0 0 0 0 0 0 0 0 
0 0 0 0 0 0 0 0 0 
0 0 0 0 0 0 0 0 0 
0 0 0 0 0 0 0 0 0 
0 0 0 0 0 0 0 0 0 
0 0 0 0 0 0 0 0 0 
0 0 0 0 0 0 0 0 0 
0 0 0 0 0 0 0 0 0 
0 0 0 0 0 0 0 0 0 
0 0 0 0 0 0 0 0 0 
0 0 0 0 0 0 0 0 0 
0 0 0 0 0 0 0 0 0 
0 0 0 0 0 0 0 0 0 
0 0 0 0 0 0 0 0 0 
0 0 0 0 0 0 0 0 0 
0 0 0 0 0 0 0 0 0 
0 0 0 0 0 0 0 0 0 
0 0 0 0 0 0 0 0 0 
0 0 0 0 0 0 0 0 0 
0 0 0 0 0 0 0 0 0 
0 0 0 0 0 0 0 0 0 
0 0 0 0 0 0 0 0 0 
0 0 0 0 0 0 0 0 0 
0 0 0 0 0 0 0 0 0 
0 0 0 0 0 0 0 0 0 
0 0 0 0 0 0 0 0 0 
0 0 0 0 0 0 0 0 0 
0 0 0 0 0 0 0 0 0 
0 0 0 0 0 0 0 0 0 
0 0 0 0 0 0 0 0 0 
0 0 0 0 0 0 0 0 0 
0 0 0 0 0 0 0 0 0 
0 0 0 0 0 0 0 0 0 
0 0 0 0 0 0 0 0 0 
0 0 0 0 0 0 0 0 0 
0 0 0 0 0 0 0 0 0 
0 0 0 0 0 0 0 0 0 
0 0 0 0 0 0 0 0 0 
0 0 0 0 0 0 0 0 0 
0 0 0 0 0 0 0 0 0 
0 0 0 0 0 0 0 0 0 
0 0 0 0 0 0 0 0 0 
0 0 0 0 0 0 0 0 0 
0 0 0 0 0 0 0 0 0 
0 0 0 0 0 0 0 0 0 
0 0 0 0 0 0 0 0 0 
0 0 0 0 0 0 0 0 0 
0 0 0 0 0 0 0 0 0 
0 0 0 0 0 0 0 0 0 
0 0 0 0 0 0 0 0 0 
0 0 0 0 0 0 0 0 
NORMALS Normals float
0.205278 0.683153 0.70083 0.0421933 0.653609 0.755655 -0.0868803 0.666214 0.740682 
0.273873 0.453478 0.848146 0.146923 0.35057 0.92494 0.0481554 0.314793 0.947938 
-0.0629669 0.334327 0.940351 -0.13185 0.349414 0.927645 -0.10855 0.387722 0.915363 
-0.126735 0.455031 0.881411 -0.282444 0.569239 0.772135 0.380094 0.356801 0.853359 
0.176164 0.246966 0.952877 0.0756631 0.158268 0.984493 0.0302826 0.0855406 0.995874 
-0.0581563 0.0832377 0.994831 -0.121579 0.0744248 0.989788 -0.0594851 0.119099 0.991099 
-0.0300259 0.201274 0.979075 -0.131583 0.285377 0.94934 -0.372601 0.426569 0.82414 
0.608216 0.252282 0.752613 0.27265 0.166943 0.947519 0.0631632 0.106133 0.992344 
-0.0115827 0.0372818 0.999238 -0.029228 -0.0346856 0.998971 -0.0772121 -0.0654124 0.994867 
-0.100861 -0.0502666 0.99363 0.0154286 0.00764587 0.999852 0.0636621 0.0854656 0.994305 
-0.0504448 0.151722 0.987135 -0.260551 0.222835 0.939392 -0.591511 0.305889 0.74602 
0.552916 0.0639477 0.83078 0.207998 0.0548272 0.976592 0.0440969 0.00884797 0.998988 
-0.0664759 -0.00923523 0.997745 -0.0707132 -0.0317647 0.996991 -0.0757149 -0.0443057 0.996145 
-0.0486039 -0.0567652 0.997204 0.0772639 0.0374435 0.996307 0.116913 0.0803593 0.989886 
0.0185235 0.101731 0.99464 -0.204968 0.131393 0.969909 -0.540589 0.113717 0.833566 
0.571661 -0.106096 0.813601 0.203501 -0.0418864 0.978178 -0.000935175 0.00431824 0.99999 
-0.0525521 0.0150286 0.998505 -0.0644576 0.0501659 0.996659 -0.104358 -0.0218213 0.9943 
-0.0183211 -0.0574883 0.998178 0.155077 0.0259394 0.987562 0.129024 0.0657995 0.989456 
0.00654709 0.0353786 0.999353 -0.236207 -0.0443572 0.97069 -0.578382 -0.110084 0.808304 
0.620846 -0.279189 0.732532 0.334001 -0.214642 0.917809 0.0953432 -0.0627628 0.993464 
-0.0200688 0.0236796 0.999518 -0.104826 0.0438019 0.993526 -0.187537 -0.0103803 0.982203 
0.00250958 -0.0111417 0.999935 0.198985 -0.0312796 0.979503 0.124536 -0.0732968 0.989504 
-0.0920123 -0.125021 0.987878 -0.343539 -0.254228 0.904074 -0.644872 -0.344879 0.682054 
0.450218 -0.356811 0.818529 0.234601 -0.2333 0.943681 0.055321 -0.111228 0.992254 
-0.0957266 -0.0683033 0.993061 -0.160134 -0.0301762 0.986634 -0.0370648 -0.00799773 0.999281 
0.0845885 -0.131759 0.987666 0.0242527 -0.273798 0.961481 -0.17878 -0.378012 0.908375 
-0.457358 -0.511693 0.72732 0.354568 -0.498443 0.791098 0.149523 -0.368289 0.917609 
-0.0197281 -0.30172 0.953192 -0.111047 -0.223653 0.968322 -0.0997239 -0.209411 0.972729 
-0.0826935 -0.327508 0.941223 -0.16601 -0.488868 0.856416 -0.34954 -0.640122 0.684153 
0.26264 -0.719532 0.64288 0.0780641 -0.62699 0.775106 -0.0451117 -0.54784 0.835366 
-0.139448 -0.534185 0.833787 0.205275 0.685747 0.698293 0.0449848 0.706334 0.706448 
-0.0873692 0.70436 0.704445 0.209059 0.68441 0.698482 0.333486 0.600234 0.726984 
0.393747 0.7733 0.496961 -0.128428 0.679232 0.7226 -0.146316 0.65825 0.738443 
-0.14661 0.691181 0.707654 -0.135968 0.602215 0.78667 -0.156829 0.739841 0.654247 
-0.173871 0.605449 0.77666 -0.223128 0.813254 0.537431 -0.293429 0.604112 0.74091 
0.466379 0.549501 0.69321 0.486293 0.537253 0.689114 0.511622 0.572453 0.640734 
-0.327262 0.594062 0.73484 -0.421043 0.553718 0.718414 -0.506087 0.700027 0.503824 
0.604336 0.42019 0.676919 0.657134 0.367369 0.658191 0.711454 0.452385 0.537756 
-0.526824 0.474989 0.70487 -0.621564 0.374989 0.68778 -0.709619 0.531574 0.46246 
0.713244 0.262716 0.649818 -0.659777 0.310311 0.684399 0.766281 0.0697662 0.638707 
-0.733153 0.112813 0.670642 -0.952951 0.102248 0.28536 0.751605 -0.112218 0.649998 
-0.751028 -0.138194 0.645647 -0.952451 -0.167128 0.254764 0.697416 -0.288012 0.656246 
0.664089 -0.355914 0.657503 -0.694262 -0.35839 0.624145 -0.667545 -0.410813 0.62098 
0.611939 -0.426835 0.66584 0.750405 -0.486204 0.447771 0.538215 -0.533401 0.652539 
-0.566054 -0.551241 0.612956 -0.49338 -0.602242 0.627599 -0.739275 -0.606594 0.292431 
0.508255 -0.575545 0.640643 0.580398 -0.620088 0.527853 0.40255 -0.650208 0.644347 
-0.204133 -0.586527 0.783783 -0.260044 -0.604553 0.752923 -0.370339 -0.649118 0.664451 
-0.358544 -0.651126 0.66894 -0.581829 -0.728799 0.361008 0.280045 -0.726931 0.627013 
0.448908 -0.803986 0.389985 0.265748 -0.731942 0.627407 0.106823 -0.704497 0.701621 
-0.0256491 -0.651924 0.757851 -0.193825 -0.593658 0.781027 -0.140798 -0.593756 0.79223 
-0.223309 -0.629006 0.744637 -0.352626 -0.754636 0.553335 0.0282918 -0.933526 0.357393 
0.406221 0.860546 0.307319 0.21902 0.921941 0.319459 0.0556103 0.944974 0.322384 
-0.0686729 0.931622 0.356882 -0.127204 0.903737 0.408752 -0.169381 0.883635 0.436462 
-0.248485 0.881911 0.400609 0.503014 0.808994 0.304146 0.603265 0.741046 0.294825 
-0.364702 0.860715 0.355192 -0.390121 0.852946 0.346827 -0.413939 0.873004 0.257911 
-0.55386 0.777024 0.299119 0.72144 0.638776 0.267375 0.78127 0.571182 0.251731 
-0.624606 0.72731 0.284407 -0.743938 0.6123 0.267665 0.852388 0.464388 0.240372 
-0.789607 0.550051 0.271966 0.936154 0.274457 0.219747 -0.911076 0.322332 0.25699 
-0.958537 0.15074 0.241836 0.97745 0.0734895 0.197965 0.997541 0.0700837 -0.000802171 
-0.965463 0.0999467 0.240609 0.974434 -0.106608 0.197771 -0.959212 -0.16784 0.227468 
-0.95523 -0.189814 0.226949 0.925316 -0.310336 0.217903 -0.888496 -0.394689 0.234085 
0.834122 -0.501808 0.228974 0.783707 -0.575112 0.234625 -0.755214 -0.60861 0.243405 
-0.744517 -0.620877 0.245371 0.693424 -0.674371 0.253748 0.618334 -0.737752 0.270896 
-0.480919 -0.793835 0.372213 -0.612378 -0.730974 0.301114 -0.59519 -0.742569 0.307149 
0.497972 -0.816183 0.293034 0.45917 -0.83628 0.299664 0.318854 -0.892361 0.319412 
0.184462 -0.92373 0.335704 -0.12716 -0.915684 0.381251 -0.268991 -0.868771 0.415789 
-0.447012 -0.805541 0.388952 -0.386092 -0.830695 0.401096 -0.528354 -0.834051 0.158749 
0.0468249 -0.936352 0.347926 0.190009 -0.963464 0.188771 -0.010299 -0.933895 0.357399 
0.0290551 -0.936403 0.349721 -0.123517 -0.937394 0.325631 0.425422 0.904872 -0.0149449 
0.230093 0.97315 0.0060422 0.0897987 0.995287 0.0366025 -0.0123797 0.995479 0.0941696 
-0.0910662 0.985379 0.143995 -0.188615 0.969713 0.155183 -0.31024 0.943246 0.118479 
-0.456097 0.888501 0.050418 0.572125 0.819854 -0.0226214 0.626521 0.778973 -0.0259412 
-0.488246 0.871804 0.0396559 -0.605025 0.796196 -0.00409738 0.776449 0.628987 -0.0387588 
0.813897 0.578944 -0.0489417 -0.689688 0.723466 -0.0304695 -0.767117 0.639826 -0.0464175 
0.892755 0.444721 -0.0721884 -0.831557 0.55231 -0.0588806 0.961298 0.259265 -0.0932145 
0.989534 0.0804815 -0.119773 -0.946412 0.31535 -0.0696975 -0.973241 0.217068 -0.0753861 
0.990323 0.0667776 -0.121663 0.991223 -0.0203826 -0.130618 0.98904 0.0651791 -0.13248 
-0.992139 0.0936147 -0.0830398 -0.966294 0.085372 -0.242874 0.983624 -0.11432 -0.139341 
-0.981024 -0.169536 -0.0940757 -0.967481 -0.236431 -0.0898903 -0.962762 -0.169157 -0.210892 
0.944674 -0.301111 -0.13009 -0.917362 -0.388825 -0.0852223 0.869891 -0.479374 -0.116151 
0.819974 -0.564656 -0.0938371 -0.807481 -0.586462 -0.0635344 -0.784455 -0.617967 -0.0524065 
-0.785972 -0.54597 -0.290112 0.754751 -0.653394 -0.0585477 0.659222 -0.751778 -0.0160032 
-0.69873 -0.71524 -0.0143954 -0.658764 -0.752344 0.0028083 0.576561 -0.816961 0.0123103 
0.49474 -0.868343 0.0348214 0.34052 -0.937955 0.0654663 -0.266507 -0.96111 0.0723998 
-0.410957 -0.9085 0.0757783 -0.553438 -0.831022 0.0557635 -0.538955 -0.840253 0.0591736 
-0.549906 -0.814748 -0.183816 0.239154 -0.969039 0.0613835 0.190256 -0.979909 0.0598431 
0.046747 -0.997131 0.0595312 -0.263567 -0.961938 0.0721678 -0.106456 -0.992209 0.0647102 
0.440441 0.85978 -0.258439 0.274797 0.934536 -0.226118 0.147733 0.973305 -0.175646 
0.0396778 0.990843 -0.12906 -0.0681286 0.991543 -0.110454 -0.198446 0.97262 -0.120951 
-0.354611 0.923148 -0.148487 -0.501528 0.840198 -0.206245 0.516842 0.813794 -0.265731 
0.635862 0.720284 -0.277258 0.454931 0.801034 -0.389079 -0.511072 0.833618 -0.20949 
-0.503885 0.829145 -0.242113 -0.635185 0.724902 -0.266565 0.737351 0.612557 -0.284758 
0.821328 0.48739 -0.29643 -0.675168 0.680708 -0.284227 -0.640548 0.642964 -0.419876 
-0.773213 0.539139 -0.333871 0.858911 0.41362 -0.301978 0.821908 0.398896 -0.406633 
-0.791281 0.506571 -0.342432 -0.769161 0.492811 -0.406852 0.913598 0.217147 -0.343783 
-0.875658 0.295921 -0.381645 -0.703109 0.232625 -0.671954 0.919404 0.0239911 -0.392583 
-0.910661 0.0728139 -0.406687 0.894216 -0.118345 -0.431709 0.740829 -0.151854 -0.654303 
-0.891381 -0.164664 -0.422285 0.853456 -0.281098 -0.438859 0.764295 -0.267908 -0.586582 
-0.831267 -0.365178 -0.419095 -0.772168 -0.496219 -0.396893 -0.698386 -0.344804 -0.62719 
0.809768 -0.424924 -0.404616 0.808944 -0.426808 -0.404283 0.808349 -0.424599 -0.407783 
-0.760691 -0.516848 -0.392705 -0.521815 -0.412127 -0.7469 0.737978 -0.575299 -0.352732 
0.691227 -0.643263 -0.329268 0.682587 -0.537578 -0.495061 -0.544497 -0.780937 -0.30604 
-0.667329 -0.654843 -0.354757 -0.658667 -0.665268 -0.351536 -0.653214 -0.647347 -0.392751 
0.574163 -0.767173 -0.285975 0.524063 -0.809124 -0.26585 0.52678 -0.741331 -0.415851 
0.346063 -0.905192 -0.246713 -0.260904 -0.929834 -0.259496 -0.533609 -0.789996 -0.30194 
-0.410725 -0.867827 -0.27961 -0.402139 -0.688862 -0.60312 0.193931 -0.954069 -0.228346 
0.178812 -0.957253 -0.22736 0.179927 -0.952114 -0.247196 0.0346607 -0.972051 -0.232196 
0.0331324 -0.939269 -0.341577 -0.185683 -0.950377 -0.249611 -0.111916 -0.963168 -0.244503 
-0.115205 -0.941826 -0.315741 0.310412 0.83713 -0.450398 0.175854 0.883652 -0.433861 
0.0477796 0.899454 -0.434395 -0.0801786 0.888236 -0.452336 -0.215548 0.851118 -0.478683 
-0.367835 0.792604 -0.486289 0.639283 0.579481 -0.50549 0.406852 0.784287 -0.468365 
0.460881 0.742249 -0.486472 0.309009 0.7583 -0.574017 0.143582 0.702577 -0.696972 
0.00932366 0.654695 -0.755836 -0.0963536 0.657602 -0.747179 -0.209069 0.691885 -0.691075 
-0.411221 0.767311 -0.492069 -0.360353 0.747759 -0.557676 -0.510475 0.68486 -0.519982 
0.641969 0.576278 -0.505747 0.639016 0.575423 -0.510438 0.44034 0.510708 -0.73843 
-0.59347 0.588621 -0.548925 -0.481183 0.512426 -0.711255 -0.624776 0.514757 -0.587095 
0.757338 0.378197 -0.532359 0.796866 0.192797 -0.572568 0.578165 0.333176 -0.744794 
-0.407041 0.206068 -0.889862 -0.659823 0.404193 -0.633452 -0.574405 0.355816 -0.737193 
0.798966 0.152811 -0.581638 0.788563 0.148308 -0.596802 0.546444 0.104773 -0.830916 
-0.695558 0.228579 -0.681139 -0.472161 0.127792 -0.8722 -0.695945 0.202093 -0.689071 
0.784853 -0.0289958 -0.619003 0.743522 -0.13423 -0.655101 0.761469 -0.0344315 -0.647286 
-0.415487 -0.0413148 -0.90866 -0.682889 0.0305874 -0.729881 -0.650314 0.0257838 -0.759228 
0.734383 -0.152691 -0.661338 0.56128 -0.193162 -0.804769 -0.291834 -0.134693 -0.946938 
-0.393258 -0.147821 -0.907467 -0.654302 -0.154868 -0.740206 -0.647425 -0.18225 -0.740018 
-0.640662 -0.154807 -0.752055 0.682839 -0.258081 -0.683466 0.542234 -0.267651 -0.796458 
-0.338366 -0.210101 -0.91726 -0.584703 -0.30932 -0.749962 -0.519601 -0.408994 -0.750159 
-0.436535 -0.271669 -0.857691 0.623552 -0.356355 -0.69584 0.614633 -0.394814 -0.682897 
0.588267 -0.341434 -0.733052 0.397225 -0.306299 -0.865097 -0.36584 -0.260744 -0.893406 
-0.519063 -0.409988 -0.749989 -0.395928 -0.314562 -0.862724 0.565594 -0.481998 -0.669165 
0.488924 -0.57346 -0.657341 0.441394 -0.444338 -0.779574 0.261902 -0.386424 -0.884355 
0.175516 -0.342198 -0.92309 -0.261796 -0.402896 -0.877005 -0.391831 -0.618608 -0.681023 
-0.375969 -0.416636 -0.827685 -0.479489 -0.487522 -0.729666 -0.474207 -0.495281 -0.727891 
-0.469801 -0.478837 -0.741622 0.397386 -0.66114 -0.636379 0.339647 -0.691933 -0.637078 
0.334262 -0.638938 -0.69284 0.181994 -0.770148 -0.611352 0.174804 -0.584034 -0.792684 
0.0283837 -0.79497 -0.605985 0.025291 -0.602522 -0.797701 -0.123019 -0.790782 -0.599608 
-0.110989 -0.611374 -0.78352 -0.36158 -0.657147 -0.661376 -0.277825 -0.726016 -0.629058 
-0.276276 -0.633113 -0.723076 0.277302 0.542484 -0.792978 0.122632 0.599028 -0.791282 
0.00337217 0.596283 -0.802767 -0.0946496 0.575829 -0.812073 -0.186006 0.522667 -0.831998 
-0.287561 0.447886 -0.846585 0.377801 0.473615 -0.795585 0.410227 0.427531 -0.805563 
0.250096 0.421635 -0.871594 0.0962208 0.382935 -0.918751 -0.00117226 0.391116 -0.920341 
-0.091781 0.413171 -0.906016 -0.178876 0.412711 -0.893125 -0.302923 0.434144 -0.848385 
-0.284611 0.429552 -0.857019 0.462892 0.302164 -0.833323 0.35392 0.274536 -0.894075 
0.197369 0.216396 -0.956147 0.0973199 0.17509 -0.979731 0.0325745 0.188319 -0.981568 
-0.0655162 0.253264 -0.965176 -0.196945 0.256717 -0.946208 -0.405486 0.205301 -0.890748 
-0.297105 0.188578 -0.936038 -0.403312 0.199014 -0.893159 0.543579 0.104564 -0.832819 
0.546747 0.0630902 -0.834917 0.328054 0.111496 -0.938056 0.149208 0.136721 -0.979308 
0.0768641 0.0815821 -0.993698 0.0816577 -0.00120556 -0.99666 -0.0234949 0.0275996 -0.999343 
-0.2437 0.0756582 -0.966895 -0.340103 0.0178225 -0.940219 -0.358705 0.0671308 -0.931034 
-0.321207 0.044074 -0.945983 0.547962 -0.0630449 -0.834124 0.545725 -0.0772566 -0.834395 
0.543665 -0.0629658 -0.836937 0.38613 -0.028015 -0.922019 0.158182 0.0489304 -0.986197 
-0.0408853 0.0320849 -0.998649 -0.0231237 -0.139167 -0.989999 0.0111043 -0.174969 -0.984511 
-0.202476 -0.0792655 -0.976074 -0.342037 -0.0726439 -0.936874 -0.33186 -0.0635371 -0.941186 
-0.296127 -0.113454 -0.948386 -0.306824 -0.0682619 -0.949315 0.52662 -0.196248 -0.827139 
0.434598 -0.185871 -0.881236 0.202202 -0.158035 -0.966509 -0.109121 -0.119674 -0.986798 
-0.121368 -0.109683 -0.986529 0.0313404 -0.108803 -0.993569 -0.143534 -0.119983 -0.982345 
-0.29779 -0.132158 -0.945439 -0.343889 -0.116485 -0.931757 0.44146 -0.283426 -0.851342 
0.410987 -0.292393 -0.863479 0.421862 -0.290049 -0.859013 0.228746 -0.329264 -0.916112 
0.0104126 -0.275942 -0.961118 -0.00537696 -0.0916604 -0.995776 -0.000840707 -0.072736 -0.997351 
-0.211545 -0.169872 -0.962493 -0.345009 -0.187171 -0.919748 -0.361571 -0.230915 -0.903297 
-0.353666 -0.174689 -0.918915 0.297645 -0.321088 -0.899061 0.244476 -0.346822 -0.905509 
0.238739 -0.335348 -0.911343 0.174017 -0.339874 -0.924231 0.130815 -0.293907 -0.94684 
0.0804193 -0.194617 -0.977577 -0.0454737 -0.218248 -0.974833 -0.346267 -0.262515 -0.900658 
-0.261412 -0.385322 -0.88498 -0.25601 -0.271314 -0.927819 0.168638 -0.342235 -0.924357 
0.0603234 -0.415148 -0.907752 0.0753134 -0.343158 -0.936254 -0.224835 -0.400043 -0.88849 
-0.0948719 -0.443384 -0.891297 -0.0877362 -0.38823 -0.917377 
