# vtk DataFile Version 4.2
vtk output
ASCII
DATASET POLYDATA
POINTS 537 float
35.9981 -20.5587 -23.1378 44.445 -3.66505 -23.237 52.8918 -3.66505 -22.9845 
44.445 4.78178 -23.1157 52.8918 4.78178 -22.9578 -6.23604 -37.4524 -15.4733 
2.2108 -37.4524 -18.3792 10.6576 -37.4524 -18.891 19.1045 -37.4524 -18.0224 
27.5513 -37.4524 -16.5449 -23.1297 -29.0056 -16.0244 -14.6829 -29.0056 -17.8715 
-6.23604 -29.0056 -19.8174 2.2108 -29.0056 -20.4777 10.6576 -29.0056 -21.642 
19.1045 -29.0056 -21.2229 27.5513 -29.0056 -21.1399 35.9981 -21.131 -22.9126 
35.9981 -29.0056 -19.8004 44.445 -29.0056 -18.2828 -40.0234 -20.5587 -16.449 
-31.5765 -20.5587 -17.4656 -23.1297 -20.5587 -18.095 -14.6829 -20.5587 -19.4981 
-6.23604 -20.5587 -20.2369 2.2108 -20.5587 -20.5084 10.6576 -20.5587 -21.2968 
19.1045 -20.5587 -21.7357 33.9805 -20.5587 -22.9126 27.5513 -20.5587 -22.243 
37.0647 -20.5587 -22.9126 35.9981 -14.3864 -22.9126 44.445 -20.5587 -21.5122 
52.8918 -20.5587 -19.5022 -48.4702 -12.1119 -16.3688 -40.0234 -12.1119 -18.6064 
-31.5765 -12.1119 -18.731 -23.1297 -12.1119 -18.5847 -14.6829 -12.1119 -19.8932 
-6.23604 -12.1119 -20.4806 2.2108 -12.1119 -19.7273 10.6576 -12.1119 -21.1615 
19.1045 -12.1119 -21.0795 27.5513 -12.1119 -21.9125 35.9981 -12.1119 -22.8362 
44.445 -9.57219 -22.9126 44.445 -12.1119 -22.7716 52.8918 -4.28926 -22.9126 
52.8918 -12.1119 -21.778 61.3386 -12.1119 -17.1549 -48.4702 -3.66505 -18.0312 
-40.0234 -3.66505 -19.6266 -31.5765 -3.66505 -19.7245 -23.1297 -3.66505 -19.0185 
-14.6829 -3.66505 -19.9558 -6.23604 -3.66505 -21.1499 2.2108 -3.66505 -18.9588 
10.6576 -3.66505 -22.2383 19.1045 -3.66505 -20.1811 27.5513 -3.66505 -21.5143 
39.0023 -3.66505 -22.9126 35.9981 -3.66505 -22.735 53.062 -3.66505 -22.9126 
61.3386 -3.66505 -18.6919 -56.917 4.78178 -15.0175 -48.4702 4.78178 -19.4587 
-40.0234 4.78178 -20.869 -31.5765 4.78178 -20.7491 -23.1297 4.78178 -19.9039 
-14.6829 4.78178 -19.5573 -6.23604 4.78178 -21.3401 2.2108 4.78178 -18.9167 
10.6576 4.78178 -21.874 19.1045 4.78178 -19.7772 27.5513 4.78178 -21.0448 
42.1605 4.78178 -22.9126 35.9981 4.78178 -22.3652 44.445 6.09821 -22.9126 
53.0006 4.78178 -22.9126 52.8918 5.0405 -22.9126 61.3386 4.78178 -18.9282 
-56.917 13.2286 -15.6734 -48.4702 13.2286 -20.2464 -40.0234 13.2286 -21.6476 
-31.5765 13.2286 -21.5572 -23.1297 13.2286 -20.6638 -14.6829 13.2286 -19.7008 
-6.23604 13.2286 -20.2763 2.2108 13.2286 -19.8242 10.6576 13.2286 -19.6066 
19.1045 13.2286 -19.6059 27.5513 13.2286 -20.8516 35.9981 13.2286 -21.6499 
44.445 13.2286 -21.8009 52.8918 13.2286 -21.147 61.3386 13.2286 -18.4153 
-48.4702 21.6755 -19.5021 -40.0234 21.6755 -21.1672 -31.5765 21.6755 -21.6605 
-23.1297 21.6755 -21.3514 -14.6829 21.6755 -20.3229 -6.23604 21.6755 -20.2573 
2.2108 21.6755 -20.2483 10.6576 21.6755 -19.7047 19.1045 21.6755 -19.4444 
27.5513 21.6755 -19.8237 35.9981 21.6755 -20.297 44.445 21.6755 -21.4114 
52.8918 21.6755 -18.9288 61.3386 21.6755 -14.486 -48.4702 30.1223 -16.4772 
-40.0234 30.1223 -19.971 -31.5765 30.1223 -20.4211 -23.1297 30.1223 -20.8124 
-14.6829 30.1223 -19.7855 -6.23604 30.1223 -19.8628 2.2108 30.1223 -19.9065 
10.6576 30.1223 -18.8065 19.1045 30.1223 -18.025 27.5513 30.1223 -17.8516 
35.9981 30.1223 -17.6939 44.445 30.1223 -17.0633 -40.0234 38.5691 -14.8425 
-31.5765 38.5691 -16.945 -23.1297 38.5691 -16.7898 -14.6829 38.5691 -16.8728 
-6.23604 38.5691 -16.8879 2.2108 38.5691 -16.4444 10.6576 38.5691 -15.1882 
-6.23604 -38.4413 -14.4658 2.2108 -41.9034 -14.4658 10.6576 -42.6713 -14.4658 
10.6576 -45.8992 -6.80655 19.1045 -41.4965 -14.4658 27.5513 -39.2409 -14.4658 
-31.5765 -37.4524 -6.29967 -23.1297 -31.3885 -14.4658 -23.1297 -37.4524 -7.62564 
-8.64237 -37.4524 -14.4658 -14.6829 -34.3312 -14.4658 -14.6829 -37.4524 -10.3364 
33.0577 -37.4524 -14.4658 35.9981 -36.2876 -14.4658 35.9981 -37.4524 -12.2315 
44.445 -33.3516 -14.4658 -48.4702 -29.0056 -8.91169 -40.0234 -25.5188 -14.4658 
-40.0234 -29.0056 -12.833 -31.3486 -29.0056 -14.4658 -31.5765 -28.8897 -14.4658 
-31.5765 -29.0056 -14.4187 52.7628 -29.0056 -14.4658 52.8918 -28.9133 -14.4658 
52.8918 -29.0056 -14.2473 -56.917 -20.5587 -8.29498 -47.9723 -20.5587 -14.4658 
-48.4702 -20.0426 -14.4658 -48.4702 -20.5587 -14.3339 60.1477 -20.5587 -14.4658 
61.3386 -18.4028 -14.4658 61.3386 -20.5587 -11.8599 -52.3458 -12.1119 -14.4658 
-56.917 -12.1119 -11.7945 64.2281 -12.1119 -14.4658 -55.6845 -3.66505 -14.4658 
-56.917 0.848222 -14.4658 -56.917 -3.66505 -13.711 66.537 -3.66505 -14.4658 
-57.6336 4.78178 -14.4658 67.2492 4.78178 -14.4658 69.7855 4.78178 -6.37264 
-58.5921 13.2286 -14.4658 -56.917 18.0485 -14.4658 65.4711 13.2286 -14.4658 
-55.6091 21.6755 -14.4658 -56.917 21.6755 -12.9574 52.8918 29.5514 -14.4658 
61.3629 21.6755 -14.4658 61.3386 21.709 -14.4658 -51.6816 30.1223 -14.4658 
-48.4702 32.868 -14.4658 19.1045 37.065 -14.4658 27.5513 36.4987 -14.4658 
35.9981 34.5067 -14.4658 51.9073 30.1223 -14.4658 44.445 33.6655 -14.4658 
52.8918 30.1223 -13.8812 -40.6962 38.5691 -14.4658 -40.0234 38.9712 -14.4658 
-31.5765 41.2269 -14.4658 -23.1297 41.3166 -14.4658 -14.6829 41.4976 -14.4658 
-6.23604 41.4442 -14.4658 2.2108 40.6999 -14.4658 14.5988 38.5691 -14.4658 
10.6576 39.4536 -14.4658 19.1045 38.5691 -13.387 27.5513 38.5691 -12.4974 
35.9981 38.5691 -10.4184 44.445 38.5691 -7.40457 10.6576 -46.1432 -6.01896 
-31.5765 -37.6552 -6.01896 -23.1297 -38.3834 -6.01896 -14.6829 -39.6285 -6.01896 
-6.23604 -42.1762 -6.01896 7.25802 -45.8992 -6.01896 2.2108 -45.4894 -6.01896 
12.6939 -45.8992 -6.01896 10.6576 -45.8992 -0.142898 19.1045 -45.1203 -6.01896 
27.5513 -42.6094 -6.01896 35.9981 -39.9012 -6.01896 -48.4702 -32.0752 -6.01896 
-32.9492 -37.4524 -6.01896 -40.0234 -36.223 -6.01896 -40.0234 -37.4524 -4.05725 
43.4607 -37.4524 -6.01896 44.445 -37.105 -6.01896 52.8918 -31.258 -6.01896 
-52.5474 -29.0056 -6.01896 -56.917 -23.6189 -6.01896 -56.917 -29.0056 1.73328 
55.7244 -29.0056 -6.01896 61.3386 -23.1657 -6.01896 -58.6476 -20.5587 -6.01896 
63.2938 -20.5587 -6.01896 61.3386 -20.5587 0.0511682 -62.4237 -12.1119 -6.01896 
67.034 -12.1119 -6.01896 -63.816 -3.66505 -6.01896 -65.3639 -3.66505 0.396233 
69.1317 -3.66505 -6.01896 69.7855 3.84547 -6.01896 -64.3058 4.78178 -6.01896 
-65.3639 4.78178 1.08532 69.7855 5.84043 -6.01896 69.7855 4.78178 -5.78875 
-63.4817 13.2286 -6.01896 69.2014 13.2286 -6.01896 -60.924 21.6755 -6.01896 
-56.917 28.9168 -6.01896 66.8058 21.6755 -6.01896 61.3386 29.1683 -6.01896 
-56.1444 30.1223 -6.01896 -48.4702 37.498 -6.01896 60.3533 30.1223 -6.01896 
52.8918 35.6787 -6.01896 -47.0069 38.5691 -6.01896 -40.0234 42.6875 -6.01896 
-31.5765 45.3668 -6.01896 -23.1297 46.1475 -6.01896 -14.6829 46.0206 -6.01896 
-6.23604 45.4762 -6.01896 2.2108 44.8033 -6.01896 10.6576 44.5146 -6.01896 
19.1045 43.7455 -6.01896 27.5513 42.5717 -6.01896 35.9981 41.4339 -6.01896 
46.3652 38.5691 -6.01896 44.445 39.2897 -6.01896 44.445 38.5691 2.06006 
-40.0234 -40.8519 2.42788 -31.5765 -41.3732 2.42788 -23.1297 -41.2564 2.42788 
-14.6829 -41.3664 2.42788 -6.23604 -43.0065 2.42788 2.2108 -45.6331 2.42788 
10.6576 -45.7961 2.42788 19.1045 -44.5462 2.42788 27.5513 -41.5853 2.42788 
35.9981 -38.3356 2.42788 -56.917 -29.3087 2.42788 -46.2612 -37.4524 2.42788 
-48.4702 -36.2649 2.42788 38.3668 -37.4524 2.42788 35.9981 -37.4524 4.20988 
44.445 -34.8848 2.42788 52.8918 -29.4902 2.42788 -57.1843 -29.0056 2.42788 
-56.917 -29.0056 3.94914 44.445 -29.0056 10.4684 53.4427 -29.0056 2.42788 
52.8918 -29.0056 3.08905 -62.0274 -20.5587 2.42788 60.4154 -20.5587 2.42788 
52.8918 -20.5587 10.1722 61.3386 -18.4934 2.42788 -64.8052 -12.1119 2.42788 
-65.3639 -7.18273 2.42788 63.7785 -12.1119 2.42788 61.3386 -12.1119 5.36009 
-65.7672 -3.66505 2.42788 -65.3639 -3.66505 4.47414 65.9017 -3.66505 2.42788 
61.3386 -3.66505 7.69432 -65.5364 4.78178 2.42788 -65.3639 6.49227 2.42788 
-65.3639 4.78178 3.24132 66.5701 4.78178 2.42788 61.3386 4.78178 8.22282 
-64.6184 13.2286 2.42788 66.0859 13.2286 2.42788 61.3386 13.2286 7.57787 
-61.0424 21.6755 2.42788 -56.917 27.7964 2.42788 63.8467 21.6755 2.42788 
61.3386 25.6414 2.42788 61.3386 21.6755 5.54787 -54.9381 30.1223 2.42788 
-48.4702 35.9494 2.42788 44.445 38.5284 2.42788 57.5602 30.1223 2.42788 
52.8918 34.1151 2.42788 52.8918 30.1223 7.32658 -44.339 38.5691 2.42788 
-40.0234 41.1164 2.42788 -40.0234 38.5691 6.66951 -31.5765 44.018 2.42788 
-23.1297 45.4612 2.42788 -14.6829 45.3813 2.42788 -6.23604 44.4593 2.42788 
2.2108 43.6597 2.42788 2.2108 38.5691 10.8122 10.6576 43.6884 2.42788 
19.1045 43.499 2.42788 27.5513 42.7176 2.42788 27.5513 38.5691 9.67179 
44.3405 38.5691 2.42788 35.9981 41.2875 2.42788 35.9981 38.5691 7.14315 
-40.0234 -40.212 10.8747 -31.5765 -42.233 10.8747 -23.1297 -42.9986 10.8747 
-14.6829 -43.0032 10.8747 -6.23604 -43.6514 10.8747 2.2108 -44.441 10.8747 
10.6576 -44.3303 10.8747 19.1045 -41.6435 10.8747 27.5513 -37.8391 10.8747 
-45.6423 -37.4524 10.8747 -48.4702 -35.4062 10.8747 -40.0234 -37.4524 15.7682 
10.6576 -37.4524 19.212 19.1045 -37.4524 15.3784 28.3734 -37.4524 10.8747 
27.5513 -37.4524 11.3347 35.9981 -33.1721 10.8747 -55.3814 -29.0056 10.8747 
-56.917 -26.9624 10.8747 -48.4702 -29.0056 16.7784 19.1045 -29.0056 19.2961 
27.5513 -29.0056 16.8611 43.808 -29.0056 10.8747 35.9981 -29.0056 14.2709 
44.445 -28.4564 10.8747 -60.2048 -20.5587 10.8747 -56.917 -20.5587 15.2462 
27.5513 -20.5587 19.0484 35.9981 -20.5587 17.372 51.8242 -20.5587 10.8747 
44.445 -20.5587 14.5863 52.8918 -17.9691 10.8747 -62.8059 -12.1119 10.8747 
-56.917 -12.1119 17.2886 35.9981 -12.1119 18.8322 44.445 -12.1119 16.1105 
54.7792 -12.1119 10.8747 52.8918 -12.1119 12.1493 -63.8831 -3.66505 10.8747 
-56.917 -3.66505 18.6448 35.9981 -3.66505 18.4581 44.445 -3.66505 16.5105 
56.6209 -3.66505 10.8747 52.8918 -3.66505 13.062 -63.5114 4.78178 10.8747 
-56.917 4.78178 18.7157 19.1045 4.78178 19.168 27.5513 4.78178 18.6722 
35.9981 4.78178 17.9478 44.445 4.78178 16.4426 57.1944 4.78178 10.8747 
52.8918 4.78178 13.4021 -61.9387 13.2286 10.8747 -56.917 13.2286 16.7802 
[...]
POINT_DATA 537
SCALARS ImageScalars float
LOOKUP_TABLE default
0 0 0 0 0 0 0 0 0 
0 0 0 0 0 0 0 0 0 
0 0 0 0 0 0 0 0 0 
0 0 0 0 0 0 0 0 0 
0 0 0 0 0 0 0 0 0 
0 0 0 0 0 0 0 0 0 
0 0 0 0 0 0 0 0 0 
0 0 0 0 0 0 0 0 0 
0 0 0 0 0 0 0 0 0 
0 0 0 0 0 0 0 0 0 
0 0 0 0 0 0 0 0 0 
0 0 0 0 0 0 0 0 0 
0 0 0 0 0 0 0 0 0 
0 0 0 0 0 0 0 0 0 
0 0 0 0 0 0 0 0 0 
0 0 0 0 0 0 0 0 0 
0 0 0 0 0 0 0 0 0 
0 0 0 0 0 0 0 0 0 
0 0 0 0 0 0 0 0 0 
0 0 0 0 0 0 0 0 0 
0 0 0 0 0 0 0 0 0 
0 0 0 0 0 0 0 0 0 
0 0 0 0 0 0 0 0 0 
0 0 0 0 0 0 0 0 0 
0 0 0 0 0 0 0 0 0 
0 0 0 0 0 0 0 0 0 
0 0 0 0 0 0 0 0 0 
0 0 0 0 0 0 0 0 0 
0 0 0 0 0 0 0 0 0 
0 0 0 0 0 0 0 0 0 
0 0 0 0 0 0 0 0 0 
0 0 0 0 0 0 0 0 0 
0 0 0 0 0 0 0 0 0 
0 0 0 0 0 0 0 0 0 
0 0 0 0 0 0 0 0 0 
0 0 0 0 0 0 0 0 0 
0 0 0 0 0 0 0 0 0 
0 0 0 0 0 0 0 0 0 
0 0 0 0 0 0 0 0 0 
0 0 0 0 0 0 0 0 0 
0 0 0 0 0 0 0 0 0 
0 0 0 0 0 0 0 0 0 
0 0 0 0 0 0 0 0 0 
0 0 0 0 0 0 0 0 0 
0 0 0 0 0 0 0 0 0 
0 0 0 0 0 0 0 0 0 
0 0 0 0 0 0 0 0 0 
0 0 0 0 0 0 0 0 0 
0 0 0 0 0 0 0 0 0 
0 0 0 0 0 0 0 0 0 
0 0 0 0 0 0 0 0 0 
0 0 0 0 0 0 0 0 0 
0 0 0 0 0 0 0 0 0 
0 0 0 0 0 0 0 0 0 
0 0 0 0 0 0 0 0 0 
0 0 0 0 0 0 0 0 0 
0 0 0 0 0 0 0 0 0 
0 0 0 0 0 0 0 0 0 
0 0 0 0 0 0 0 0 0 
0 0 0 0 0 0 
NORMALS Normals float
-0.0484383 0.173794 0.98359 0.0131203 0.0200333 0.999713 -0.239895 0.0590475 0.969001 
0.0340352 -0.0842484 0.995863 -0.231759 -0.0950953 0.968114 0.333453 0.671133 0.66211 
0.168558 0.499707 0.849636 -0.0206485 0.483544 0.875076 -0.114133 0.552783 0.825472 
-0.227907 0.697182 0.679703 0.188113 0.416872 0.889287 0.212786 0.365291 0.906247 
0.151806 0.219152 0.963809 0.0993905 0.103043 0.989699 0.0475071 0.114317 0.992308 
-0.0285226 0.197168 0.979955 -0.0792618 0.262131 0.961772 -0.055393 0.192357 0.97976 
-0.149793 0.459588 0.875409 -0.28097 0.567225 0.774152 0.177928 0.317194 0.93152 
0.0908417 0.230088 0.968921 0.11718 0.14249 0.982835 0.125024 0.112697 0.985732 
0.0588383 0.0369189 0.997585 0.0628673 -0.0443182 0.997037 0.0724056 -0.0274367 0.996998 
0.0554731 -0.00954838 0.998415 -0.016165 0.140804 0.989905 0.0795796 0.038786 0.996074 
-0.0679886 0.181135 0.981105 0.0253728 0.0281901 0.999281 -0.190813 0.228763 0.954598 
-0.364488 0.378711 0.850721 0.350943 0.205527 0.913563 0.124225 0.169881 0.977604 
-0.000725719 0.12844 0.991717 0.0660409 0.0538104 0.996365 0.114792 0.0269327 0.993024 
-0.0111972 0.0476846 0.9988 0.0407155 -0.0845197 0.99559 0.0794918 0.0488986 0.995635 
0.0441241 -0.0911906 0.994855 0.10353 -0.0425755 0.993715 0.0507468 -0.0224025 0.99846 
-0.0336456 0.079733 0.996248 -0.0557973 0.104969 0.992909 -0.243638 0.0695381 0.96737 
-0.299088 0.199215 0.933199 -0.636013 0.23892 0.733761 0.293412 0.169119 0.940908 
0.0922944 0.13797 0.986127 -0.035923 0.118615 0.99229 0.00846597 0.0769153 0.997002 
0.122126 -0.0199397 0.992314 -0.0500728 0.0567505 0.997132 0.0794592 -0.0549617 0.995322 
0.0425864 0.0470099 0.997986 -0.0306325 -0.0771548 0.996548 0.149463 -0.0507108 0.987466 
0.0710902 -0.0107624 0.997412 0.101523 -0.0278266 0.994444 -0.245139 0.0598039 0.967642 
-0.557383 0.0903924 0.82532 0.579755 0.0935171 0.809406 0.324027 0.122528 0.93808 
0.0679404 0.118063 0.990679 -0.0557682 0.107742 0.992614 -0.0703297 0.0990889 0.99259 
0.0763874 -0.0136812 0.996984 -0.0340673 -0.0594599 0.997649 0.0402741 0.0570243 0.99756 
0.0355946 -0.16037 0.986415 -0.0403718 -0.0339814 0.998607 0.151883 -0.0381519 0.987662 
0.0588299 -0.0786826 0.995162 0.120787 -0.0635959 0.990639 0.0268255 -0.08517 0.996005 
-0.234791 -0.0938366 0.967506 -0.229118 -0.100337 0.968213 -0.514481 -0.00798845 0.857464 
0.577569 -0.0632663 0.813886 0.315316 0.00385431 0.948979 0.0693072 0.0179322 0.997434 
-0.0582404 0.0540533 0.996838 -0.109052 0.084089 0.990473 -0.0227772 0.0446975 0.998741 
0.00729673 -0.0558816 0.998411 -0.0394581 0.0731785 0.996538 -0.0129864 -0.118483 0.992871 
0.070105 -0.0198985 0.997341 0.120912 -0.0736383 0.989928 0.0528304 -0.118497 0.991548 
-0.0262799 -0.0976683 0.994872 -0.155159 -0.244058 0.957268 -0.525427 -0.204781 0.825827 
0.362741 -0.207263 0.908549 0.114973 -0.0867341 0.989575 0.010058 -0.063703 0.997918 
-0.0795263 0.011221 0.99677 -0.0644765 0.00578078 0.997902 -0.00440834 -0.0236395 0.999711 
-0.0313149 0.00587216 0.999492 -0.0484259 -0.0464947 0.997744 0.00758513 -0.0879404 0.996097 
0.0485738 -0.173088 0.983708 0.0871427 -0.204073 0.975069 -0.0864331 -0.266084 0.960067 
-0.301562 -0.290069 0.908251 -0.613692 -0.400516 0.680418 0.445679 -0.460259 0.76781 
0.228375 -0.358653 0.905104 0.0436836 -0.255025 0.965947 -0.0364909 -0.230365 0.97242 
-0.0518839 -0.186592 0.981066 0.00704562 -0.184694 0.982771 -0.060372 -0.195015 0.97894 
-0.105597 -0.237919 0.965528 -0.0553364 -0.29618 0.953528 -0.0166337 -0.3497 0.936714 
-0.0489054 -0.432701 0.90021 -0.137364 -0.517824 0.844387 0.346143 -0.653513 0.673131 
0.103859 -0.606499 0.788272 -0.0037393 -0.58333 0.812226 0.00533569 -0.541424 0.840733 
-0.023293 -0.558485 0.829187 -0.094986 -0.608654 0.787729 -0.148769 -0.585814 0.796674 
0.341764 0.71823 0.606088 0.206598 0.767852 0.6064 -0.0218849 0.792209 0.609857 
-0.0242176 0.985922 0.165442 -0.173131 0.761543 0.624562 -0.255192 0.778535 0.573377 
0.105723 0.84065 0.53116 0.197432 0.521458 0.830122 0.122568 0.866321 0.484215 
0.322914 0.707089 0.629089 0.257891 0.623172 0.738342 0.235376 0.834589 0.498057 
-0.273778 0.771319 0.574555 -0.270619 0.756879 0.594895 -0.298869 0.843737 0.445854 
-0.327381 0.74879 0.576311 0.425002 0.602112 0.675896 0.216858 0.413479 0.884312 
0.258703 0.508224 0.821451 0.162696 0.474163 0.865274 0.161043 0.472238 0.866635 
0.161919 0.476371 0.864206 -0.515601 0.679337 0.522166 -0.518668 0.677059 0.522087 
-0.522771 0.684623 0.50794 0.71057 0.395209 0.582152 0.301109 0.338106 0.891637 
0.31333 0.329912 0.890496 0.312128 0.33989 0.887159 -0.722158 0.469743 0.507769 
-0.738953 0.432775 0.516385 -0.79558 0.510396 0.326418 0.46512 0.193124 0.863925 
0.621876 0.214158 0.753263 -0.751376 0.307003 0.584109 0.543974 0.160947 0.823522 
0.583039 0.12584 0.802639 0.600192 0.157188 0.784259 -0.779566 0.152067 0.607579 
0.603539 0.0976807 0.791327 -0.784266 -0.0424971 0.618968 -0.999169 0.0039085 -0.0405655 
0.651578 -0.0867746 0.753602 0.674037 -0.177928 0.716949 -0.694653 -0.255649 0.672385 
0.687773 -0.244893 0.683371 0.766626 -0.283384 0.576175 -0.389844 -0.640613 0.661541 
-0.614176 -0.400538 0.679968 -0.613896 -0.401157 0.679857 0.558884 -0.494321 0.665804 
0.488252 -0.575936 0.655673 -0.0983315 -0.571087 0.814979 -0.0856151 -0.617161 0.782165 
-0.110483 -0.616045 0.779924 -0.364083 -0.649416 0.667609 -0.179361 -0.658719 0.730697 
-0.406085 -0.676036 0.614874 0.366727 -0.664181 0.651441 0.351731 -0.668177 0.655611 
0.116889 -0.738161 0.664421 0.0131852 -0.684699 0.728706 0.00587522 -0.676395 0.736516 
-0.0413476 -0.696068 0.716784 -0.093454 -0.710615 0.697347 -0.131519 -0.608783 0.782359 
-0.147129 -0.623551 0.767813 -0.114442 -0.665525 0.73755 -0.11127 -0.753804 0.64761 
-0.180453 -0.837659 0.515524 -0.27687 -0.92238 0.269366 -0.0236162 0.991013 0.131665 
0.102545 0.846345 0.522671 0.103009 0.898228 0.42729 0.197003 0.927928 0.316448 
0.315005 0.923191 0.220205 0.0682498 0.986632 0.147983 0.211921 0.96194 0.172513 
-0.0658094 0.989214 0.130865 -0.0518707 0.998252 -0.0283299 -0.199464 0.970821 0.133122 
-0.294093 0.949261 0.111415 -0.323046 0.942646 0.0840225 0.437646 0.695832 0.569459 
0.126613 0.83768 0.531283 0.255816 0.773432 0.579967 0.264127 0.830014 0.491237 
-0.418665 0.905812 0.0649993 -0.433202 0.899177 0.0617861 -0.593974 0.804234 0.0200516 
0.549363 0.614707 0.565982 0.720966 0.473353 0.506108 0.77152 0.625558 0.115904 
-0.660825 0.750486 0.00902421 -0.809938 0.586501 -0.004141 0.772085 0.404098 0.4905 
-0.846719 0.531977 0.00820629 -0.796952 0.508089 -0.326669 0.843064 0.242651 0.479962 
-0.947249 0.318556 -0.0352315 0.900531 0.0950493 0.424276 0.994167 0.0550223 0.0927556 
-0.985844 0.157919 -0.0563354 -0.997853 0.0218095 -0.0617632 0.936112 -0.0243445 0.350859 
0.998091 -0.0597084 0.0157803 -0.998252 -0.015251 -0.0570983 -0.997464 0.00533919 -0.0709674 
0.95302 -0.180047 0.243591 -0.986235 -0.16453 -0.0164668 0.903013 -0.365458 0.225851 
0.820515 -0.560528 0.112084 -0.889876 -0.455457 0.0260617 -0.739307 -0.670215 0.0650919 
0.795677 -0.598483 0.0933555 0.597334 -0.796113 0.0969373 -0.705929 -0.704379 0.0742595 
-0.481806 -0.862652 0.153928 0.558228 -0.824764 0.0902602 0.385988 -0.918492 0.0859375 
0.215639 -0.967459 0.132374 0.0368998 -0.984097 0.173759 -0.0401352 -0.985177 0.166781 
-0.0727835 -0.989232 0.126978 -0.0564191 -0.989937 0.129772 -0.0626538 -0.983079 0.172134 
-0.114422 -0.960377 0.254133 -0.134144 -0.949344 0.284168 -0.20083 -0.941798 0.269598 
-0.323918 -0.927026 0.188942 -0.28827 -0.936057 0.201738 -0.368242 -0.885104 -0.284586 
0.277803 0.944514 0.175269 0.0206422 0.969258 0.245178 -0.000275006 0.964748 0.263176 
0.0959371 0.977599 0.187341 0.235172 0.968753 0.0788151 0.161149 0.984824 -0.0644415 
-0.0627837 0.993319 -0.0968292 -0.235205 0.958426 -0.161553 -0.340038 0.910265 -0.236204 
-0.346408 0.889832 -0.296984 0.77147 0.630901 0.0824516 0.449384 0.878633 0.161427 
0.505048 0.852094 0.137339 -0.366717 0.876471 -0.311957 -0.355685 0.863488 -0.357598 
-0.440623 0.820868 -0.363354 -0.599825 0.704624 -0.379098 0.778632 0.622197 0.0812594 
0.778931 0.627101 0.00327138 -0.451843 0.574493 -0.682492 -0.613059 0.691189 -0.382644 
-0.601617 0.687444 -0.40679 0.919359 0.389567 0.0549284 -0.748987 0.475586 -0.461342 
-0.543485 0.351191 -0.762423 -0.765597 0.430577 -0.47798 0.978558 0.205544 0.0132722 
0.993769 0.111324 0.0054846 -0.814375 0.267812 -0.514849 -0.736207 0.25849 -0.625446 
0.999049 0.0435842 0.00113488 0.994869 0.0416941 -0.0921759 -0.853156 0.142687 -0.501762 
-0.658515 0.125994 -0.741946 0.997107 -0.0638599 -0.0412269 0.993976 -0.101309 -0.0418113 
0.995162 -0.0653477 -0.0733588 -0.866704 0.010881 -0.498703 -0.62582 -0.00647381 -0.779941 
0.965761 -0.254077 -0.0524515 -0.849558 -0.153411 -0.504695 -0.637401 -0.127648 -0.759885 
0.873144 -0.460716 -0.15925 0.760395 -0.605907 -0.233828 -0.79941 -0.35656 -0.483537 
-0.73979 -0.501386 -0.448689 -0.719527 -0.331284 -0.610353 0.702636 -0.657615 -0.271744 
0.553252 -0.77695 -0.300436 -0.369995 -0.876818 -0.307073 -0.6563 -0.644833 -0.39174 
-0.517692 -0.774642 -0.363214 -0.465707 -0.57628 -0.671579 0.482712 -0.810259 -0.332368 
0.416346 -0.842166 -0.342655 0.398756 -0.762172 -0.509988 0.236932 -0.918776 -0.315774 
0.0745224 -0.966008 -0.247536 -0.0576765 -0.970362 -0.234671 -0.0997032 -0.957404 -0.270992 
-0.0446153 -0.949382 -0.31094 -0.0272131 -0.710079 -0.703596 -0.0094238 -0.960064 -0.27962 
-0.0561909 -0.97087 -0.232924 -0.126765 -0.964667 -0.230972 -0.15327 -0.77121 -0.617854 
-0.368352 -0.877992 -0.30569 -0.243752 -0.933018 -0.264692 -0.240695 -0.820611 -0.518328 
0.339681 0.904817 -0.256755 0.16352 0.979795 -0.115168 0.0462205 0.998588 -0.0261866 
0.0378501 0.999271 -0.00489008 0.0848582 0.990376 -0.109339 0.0403568 0.967522 -0.249545 
-0.130809 0.92774 -0.349553 -0.343455 0.794997 -0.500018 -0.374505 0.735854 -0.56415 
0.501289 0.825499 -0.259348 0.582214 0.753652 -0.305015 0.37783 0.766391 -0.519508 
-0.284851 0.495111 -0.820807 -0.360762 0.597931 -0.715772 -0.374907 0.731654 -0.569322 
-0.373067 0.720643 -0.584375 -0.361928 0.656241 -0.662084 0.707908 0.590198 -0.387985 
0.754946 0.529749 -0.386552 0.556039 0.455966 -0.694921 -0.295824 0.209257 -0.932041 
-0.271114 0.363242 -0.891377 -0.440584 0.564324 -0.698158 -0.317392 0.495099 -0.808789 
-0.447391 0.549252 -0.705807 0.845069 0.342432 -0.410608 0.715012 0.300471 -0.631248 
-0.156534 0.1669 -0.973469 -0.246632 0.235054 -0.940171 -0.515079 0.335803 -0.788625 
-0.381223 0.274814 -0.882692 -0.529603 0.281691 -0.800107 0.874753 0.19904 -0.441803 
0.642607 0.149316 -0.751506 -0.221175 0.0627949 -0.97321 -0.356761 0.10413 -0.928374 
-0.54673 0.156747 -0.822506 -0.507603 0.144071 -0.849461 0.906194 0.0359902 -0.421328 
0.580387 0.0689955 -0.811413 -0.173369 -0.052106 -0.983478 -0.296064 0.0182432 -0.954994 
-0.510493 0.0823868 -0.855926 -0.439844 0.0641166 -0.895782 0.904402 -0.0901876 -0.417041 
0.597851 -0.0725256 -0.798319 -0.117125 -0.0800727 -0.989884 -0.0712578 -0.0800147 -0.994243 
-0.12854 -0.0637344 -0.989654 -0.248162 -0.0479389 -0.967532 -0.49942 -0.0192268 -0.866147 
-0.418268 -0.0274403 -0.907909 0.826464 -0.309347 -0.470385 0.628119 -0.29513 -0.719976 
-0.107672 -0.031721 -0.99368 -0.0934145 -0.0598346 -0.993828 -0.139802 -0.0662176 -0.987963 
-0.262563 -0.115863 -0.957933 -0.468428 -0.0807276 -0.879806 -0.411138 -0.0775947 -0.908265 
0.684643 -0.512193 -0.518578 0.662984 -0.533182 -0.525518 0.653915 -0.515748 -0.553534 
0.368912 -0.502615 -0.781845 -0.0713124 -0.241812 -0.967699 -0.00244613 -0.187276 -0.982304 
-0.0781329 -0.135278 -0.987722 -0.106366 -0.137662 -0.984751 -0.186781 -0.189697 -0.963913 
-0.266498 -0.230517 -0.935864 -0.496316 -0.220004 -0.839803 -0.425528 -0.311447 -0.849663 
-0.429628 -0.226326 -0.874184 0.485875 -0.62536 -0.610614 0.47414 -0.63002 -0.615034 
0.465574 -0.617171 -0.634304 0.335035 -0.661619 -0.670829 0.274103 -0.575978 -0.770141 
0.183113 -0.43592 -0.88116 0.0845947 -0.364566 -0.927327 -0.0324933 -0.314769 -0.948612 
-0.161714 -0.381012 -0.910318 -0.0271399 -0.706393 -0.7073 -0.0565123 -0.394306 -0.91724 
0.0263011 -0.381535 -0.92398 -0.0535507 -0.367251 -0.928579 -0.152993 -0.692702 -0.70481 
-0.14709 -0.357941 -0.922086 -0.233171 -0.606211 -0.760355 -0.226825 -0.412178 -0.882417 
-0.325256 -0.485704 -0.811357 -0.323603 -0.488954 -0.810065 -0.323767 -0.484892 -0.812438 
0.275372 -0.713198 -0.644607 0.263948 -0.719181 -0.642736 0.263271 -0.710157 -0.652966 
0.117221 -0.761459 -0.637527 0.117182 -0.663227 -0.739188 -0.0693564 -0.799711 -0.596366 
-0.0552632 -0.685415 -0.726052 -0.0322328 -0.708874 -0.704598 -0.14764 -0.736761 -0.659837 
-0.153213 -0.700348 -0.697165 -0.0217252 -0.709586 -0.704284 0.0273834 -0.729965 -0.682936 
0.0279053 -0.714196 -0.699389 -0.0966243 -0.730374 -0.676178 -0.0605667 -0.739156 -0.670805 
-0.0586802 -0.720439 -0.691032 0.277536 0.711879 -0.645137 0.125897 0.818408 -0.560677 
0.0188228 0.867037 -0.497889 -0.0491543 0.828669 -0.557577 -0.150953 0.686223 -0.711556 
0.320535 0.662077 -0.67743 0.381139 0.521381 -0.763476 0.288322 0.636132 -0.715686 
0.150875 0.648104 -0.746457 0.0251508 0.658071 -0.752535 -0.102733 0.634863 -0.765764 
-0.281732 0.494632 -0.822172 -0.203709 0.532243 -0.821718 -0.285293 0.48216 -0.82833 
0.466677 0.356589 -0.809356 0.420486 0.313876 -0.851277 0.336421 0.289303 -0.896172 
0.204572 0.171835 -0.963651 0.168728 0.141328 -0.975478 0.0152714 0.155744 -0.987679 
-0.136723 0.153152 -0.978699 -0.239528 0.139277 -0.960848 -0.295566 0.208249 -0.932348 
-0.269565 0.135931 -0.95334 -0.291916 0.204409 -0.934346 0.42984 0.265157 -0.863093 
0.354052 0.254252 -0.900002 0.222812 0.0925752 -0.970456 0.137222 -0.00147833 -0.990539 
0.140269 -0.0999286 -0.985058 0.0422563 -0.100108 -0.994079 -0.134108 -0.0185241 -0.990794 
-0.245945 -0.0084734 -0.969247 -0.249098 0.00555141 -0.968462 -0.157172 0.138142 -0.977862 
-0.163679 0.0574065 -0.984842 -0.136404 0.125449 -0.982678 0.522153 0.127491 -0.843269 
0.305268 0.112161 -0.945638 0.0977902 0.0463139 -0.994129 0.0208936 -0.00915514 -0.99974 
0.0755751 -0.128547 -0.98882 0.0965617 -0.15535 -0.983129 -0.0587892 -0.0987783 -0.993371 
-0.196528 -0.118852 -0.973268 -0.225583 0.0314273 -0.973717 -0.12915 0.0120773 -0.991552 
-0.165323 0.047233 -0.985108 -0.0865883 0.0249495 -0.995932 0.524275 0.0619357 -0.849294 
0.278888 0.0368943 -0.959615 0.0820529 0.0350848 -0.99601 -0.0395056 0.0118405 -0.999149 
-0.00984882 -0.0538854 -0.998499 0.0700785 -0.130542 -0.988963 -0.103826 -0.126061 -0.986574 
-0.118122 -0.251041 -0.960742 -0.108731 -0.0930053 -0.989711 -0.125411 -0.0785548 -0.98899 
-0.178987 -0.0674677 -0.981535 -0.117983 -0.0737569 -0.990273 -0.101154 -0.0778569 -0.99182 
-0.108006 -0.0773514 -0.991136 0.548659 -0.0673459 -0.833329 0.280996 -0.0728237 -0.956942 
0.0693638 -0.0641975 -0.995524 -0.0665528 -0.0488638 -0.996586 -0.0643109 -0.0789885 -0.994799 
0.0289516 -0.150024 -0.988258 -0.174488 -0.1365 -0.975152 -0.168874 -0.0962808 -0.980924 
-0.109454 -0.0875085 -0.990132 -0.0455635 -0.151741 -0.98737 0.461697 -0.28999 -0.838297 
0.331178 -0.398603 -0.855241 0.302471 -0.275324 -0.912529 0.0984568 -0.241659 -0.965353 
-0.0600904 -0.212205 -0.975376 -0.0959591 -0.139199 -0.985604 0.0102798 -0.128326 -0.991679 
-0.0551383 -0.192596 -0.979728 -0.0935965 -0.179312 -0.97933 -0.135833 -0.0753875 -0.987859 
-0.0995318 -0.0547403 -0.993528 -0.0301574 -0.155686 -0.987346 -0.086299 -0.0950861 -0.991721 
0.201469 -0.438851 -0.875682 0.18434 -0.43748 -0.880131 0.173556 -0.424366 -0.888703 
0.103543 -0.350317 -0.93089 0.0532149 -0.309556 -0.949391 0.0514174 -0.301902 -0.951951 
0.00452803 -0.204065 -0.978947 -0.0288132 -0.272069 -0.961846 -0.024577 -0.14373 -0.989312 
-0.0898966 -0.240692 -0.966429 -0.134744 -0.285224 -0.948942 -0.116998 -0.239721 -0.963766 

