# vtk DataFile Version 4.2
vtk output
ASCII
DATASET POLYDATA
POINTS 570 float
-21.0801 -40.1489 -14.9415 -12.5812 -40.1489 -16.0805 -4.08223 -40.1489 -16.5363 
4.41672 -40.1489 -17.3338 12.9157 -40.1489 -17.9366 21.4146 -40.1489 -17.8102 
29.9136 -40.1489 -15.6704 -29.5791 -31.65 -16.5759 -21.0801 -31.65 -17.593 
-12.5812 -31.65 -18.1043 -4.08223 -31.65 -17.6045 4.41672 -31.65 -18.5201 
12.9157 -31.65 -19.5028 21.4146 -31.65 -20.0026 29.9136 -31.65 -18.5505 
38.4125 -31.65 -15.4498 -38.078 -23.151 -15.2809 -29.5791 -23.151 -17.2396 
-21.0801 -23.151 -18.1181 -12.5812 -23.151 -18.3819 -4.08223 -23.151 -17.8769 
4.41672 -23.151 -18.9111 12.9157 -23.151 -19.8073 21.4146 -23.151 -20.2974 
29.9136 -23.151 -20.2461 38.4125 -23.151 -17.966 -38.078 -14.6521 -14.7434 
-29.5791 -14.6521 -16.6163 -21.0801 -14.6521 -17.5345 -12.5812 -14.6521 -18.5138 
-4.08223 -14.6521 -19.4848 4.41672 -14.6521 -20.2506 12.9157 -14.6521 -19.1906 
21.4146 -14.6521 -19.7982 29.9136 -14.6521 -20.4076 38.4125 -14.6521 -19.6908 
46.9114 -14.6521 -16.5173 -21.0801 -6.15312 -15.2141 -12.5812 -6.15312 -21.2748 
-4.08223 -6.15312 -19.7371 4.41672 -6.15312 -21.2757 12.9157 -6.15312 -19.3432 
21.4146 -6.15312 -19.336 29.9136 -6.15312 -20.8374 38.4125 -6.15312 -20.9191 
46.9114 -6.15312 -19.1653 -12.5812 2.34583 -23.0165 -4.08223 2.34583 -17.3174 
4.41672 2.34583 -21.5845 12.9157 2.34583 -19.6466 21.4146 2.34583 -18.7686 
29.9136 2.34583 -20.7445 38.4125 2.34583 -21.5419 46.9114 2.34583 -20.3558 
55.4104 2.34583 -15.6587 -12.5812 10.8448 -19.1176 -4.08223 10.8448 -19.4343 
4.41672 10.8448 -22.0094 12.9157 10.8448 -18.9034 21.4146 10.8448 -19.167 
29.9136 10.8448 -20.7631 38.4125 10.8448 -21.6633 46.9114 10.8448 -20.8016 
55.4104 10.8448 -16.9018 -21.0801 19.3437 -15.7647 -12.5812 19.3437 -18.4921 
-4.08223 19.3437 -19.6176 4.41672 19.3437 -19.7762 12.9157 19.3437 -19.3242 
21.4146 19.3437 -20.0446 29.9136 19.3437 -20.8167 38.4125 19.3437 -21.1715 
46.9114 19.3437 -20.5641 55.4104 19.3437 -16.9873 -21.0801 27.8427 -17.2739 
-12.5812 27.8427 -19.6071 -4.08223 27.8427 -20.3022 4.41672 27.8427 -20.0321 
12.9157 27.8427 -19.7898 21.4146 27.8427 -19.8548 29.9136 27.8427 -20.7071 
38.4125 27.8427 -20.3165 46.9114 27.8427 -19.5097 -29.5791 36.3416 -15.2916 
-21.0801 36.3416 -17.9736 -12.5812 36.3416 -20.1775 -4.08223 36.3416 -20.2883 
4.41672 36.3416 -20.101 12.9157 36.3416 -18.7174 21.4146 36.3416 -18.5642 
29.9136 36.3416 -18.9578 38.4125 36.3416 -17.7116 -21.0801 44.8405 -15.7735 
-12.5812 44.8405 -17.741 -4.08223 44.8405 -17.7732 4.41672 44.8405 -16.6406 
-21.0801 -40.6338 -14.676 -21.0801 -48.6478 -8.48116 -12.5812 -43.0781 -14.676 
-12.5812 -48.6478 -11.4289 -4.08223 -44.9048 -14.676 -4.08223 -48.6478 -12.7781 
4.41672 -46.7483 -14.676 4.41672 -48.6478 -13.655 12.9157 -47.8694 -14.676 
12.9157 -48.6478 -14.1565 21.4146 -44.8106 -14.676 21.4146 -48.6478 -11.1903 
29.9136 -41.5063 -14.676 -38.078 -40.1489 -7.57847 -22.459 -40.1489 -14.676 
-29.5791 -36.594 -14.676 -29.5791 -40.1489 -12.9862 31.5547 -40.1489 -14.676 
38.4125 -32.9729 -14.676 38.4125 -40.1489 -7.01388 -46.5769 -31.65 -8.72399 
-36.5713 -31.65 -14.676 -38.078 -28.3614 -14.676 -38.078 -31.65 -14.2348 
39.4618 -31.65 -14.676 -55.0759 -23.151 -7.53303 -39.8411 -23.151 -14.676 
-46.5769 -23.151 -12.294 44.5664 -23.151 -14.676 46.9114 -19.4684 -14.676 
46.9114 -23.151 -12.349 -55.0759 -14.6521 -8.26496 -38.3593 -14.6521 -14.676 
-46.5769 -14.6521 -12.4838 -38.078 -14.2844 -14.676 -29.5791 -7.27807 -14.676 
49.4244 -14.6521 -14.676 55.4104 -14.6521 -6.51362 -55.0759 -6.15312 -8.02629 
-46.5769 -6.15312 -11.4506 -38.078 -6.15312 -13.2052 -26.0034 -6.15312 -14.676 
-29.5791 -6.15312 -14.3432 -21.0801 -5.29022 -14.676 53.8822 -6.15312 -14.676 
55.4104 -1.86418 -14.676 55.4104 -6.15312 -12.9933 -55.0759 2.34583 -6.96803 
-46.5769 2.34583 -10.3484 -38.078 2.34583 -12.0095 -29.5791 2.34583 -12.3983 
-16.9032 2.34583 -14.676 -21.0801 2.34583 -10.9841 56.6367 2.34583 -14.676 
-46.5769 10.8448 -10.3243 -38.078 10.8448 -12.0865 -29.5791 10.8448 -12.2378 
-17.9769 10.8448 -14.676 -21.0801 16.4366 -14.676 -21.0801 10.8448 -12.6784 
58.7581 10.8448 -14.676 -55.0759 19.3437 -6.97475 -46.5769 19.3437 -9.51298 
-38.078 19.3437 -12.151 -24.8523 19.3437 -14.676 -29.5791 19.3437 -13.4082 
58.499 19.3437 -14.676 55.4104 26.2297 -14.676 -46.5769 27.8427 -8.43454 
-38.078 27.8427 -12.1247 -28.6895 27.8427 -14.676 -29.5791 30.4649 -14.676 
-29.5791 27.8427 -14.371 54.6463 27.8427 -14.676 46.9114 36.0629 -14.676 
55.4104 27.8427 -13.7918 -46.5769 36.3416 -7.42207 -30.755 36.3416 -14.676 
-38.078 36.3416 -10.3956 -29.5791 37.9435 -14.676 12.9157 44.1802 -14.676 
21.4146 42.8094 -14.676 29.9136 41.1173 -14.676 46.4186 36.3416 -14.676 
38.4125 39.887 -14.676 46.9114 36.3416 -14.2589 -23.407 44.8405 -14.676 
-29.5791 44.8405 -11.1789 -21.0801 46.5004 -14.676 -12.5812 48.8234 -14.676 
-4.08223 49.0743 -14.676 11.387 44.8405 -14.676 4.41672 46.8414 -14.676 
12.9157 44.8405 -13.9571 21.4146 44.8405 -10.3967 29.9136 44.8405 -6.80369 
-21.0801 53.3395 -6.86416 -12.5812 53.3395 -7.90101 -21.0801 -50.3964 -6.17707 
-12.5812 -53.561 -6.17707 -4.08223 -55.3169 -6.17707 4.41672 -55.9731 -6.17707 
4.41672 -57.1468 -1.13463 12.9157 -54.8633 -6.17707 21.4146 -52.3715 -6.17707 
-38.078 -41.2404 -6.17707 -25.254 -48.6478 -6.17707 -29.5791 -46.656 -6.17707 
29.0021 -48.6478 -6.17707 29.9136 -48.1504 -6.17707 29.9136 -48.6478 -0.121464 
38.4125 -40.7536 -6.17707 -39.6752 -40.1489 -6.17707 -46.5769 -34.5008 -6.17707 
38.9912 -40.1489 -6.17707 -49.3974 -31.65 -6.17707 -55.0759 -25.1303 -6.17707 
45.5487 -31.65 -6.17707 46.9114 -29.5262 -6.17707 -56.3239 -23.151 -6.17707 
50.7392 -23.151 -6.17707 55.4104 -14.9765 -6.17707 -57.1756 -14.6521 -6.17707 
55.579 -14.6521 -6.17707 55.4104 -14.6521 0.749373 -57.4697 -6.15312 -6.17707 
59.3956 -6.15312 -6.17707 -56.2791 2.34583 -6.17707 -63.5748 2.34583 1.38103 
-55.0759 9.68867 -6.17707 61.9645 2.34583 -6.17707 -54.9074 10.8448 -6.17707 
-55.0759 11.7069 -6.17707 -55.0759 10.8448 -6.06096 63.8663 10.8448 -6.17707 
-56.0855 19.3437 -6.17707 -55.0759 22.2906 -6.17707 63.3448 19.3437 -6.17707 
-50.9278 27.8427 -6.17707 -55.0759 27.8427 -2.9729 60.1231 27.8427 -6.17707 
55.4104 33.8653 -6.17707 -48.0633 36.3416 -6.17707 -46.5769 38.22 -6.17707 
-38.078 44.4465 -6.17707 38.4125 43.376 -6.17707 52.4573 36.3416 -6.17707 
46.9114 40.2033 -6.17707 -37.6852 44.8405 -6.17707 -38.078 44.8405 -5.68024 
-29.5791 50.8791 -6.17707 -4.08223 53.13 -6.17707 4.41672 50.7598 -6.17707 
12.9157 48.4988 -6.17707 21.4146 46.1359 -6.17707 21.4146 44.8405 -2.0397 
31.0908 44.8405 -6.17707 29.9136 45.0566 -6.17707 29.9136 44.8405 -5.56011 
-22.6943 53.3395 -6.17707 -21.0801 53.7321 -6.17707 -21.0801 53.3395 0.457161 
-5.94909 53.3395 -6.17707 -12.5812 54.056 -6.17707 -12.5812 53.3395 -2.79994 
4.41672 -57.786 2.32187 -21.0801 -51.7328 2.32187 -12.5812 -54.9531 2.32187 
-3.16118 -57.1468 2.32187 -4.08223 -57.0697 2.32187 8.79658 -57.1468 2.32187 
4.41672 -57.1468 4.76697 12.9157 -56.5393 2.32187 21.4146 -53.7916 2.32187 
29.9136 -48.8305 2.32187 -38.078 -41.8892 2.32187 -27.1053 -48.6478 2.32187 
-29.5791 -47.3923 2.32187 -21.0801 -48.6478 8.54765 30.1539 -48.6478 2.32187 
29.9136 -48.6478 2.81406 38.4125 -41.0423 2.32187 -40.6913 -40.1489 2.32187 
-46.5769 -35.7553 2.32187 -38.078 -40.1489 6.33236 39.2608 -40.1489 2.32187 
38.4125 -40.1489 4.17807 -51.0876 -31.65 2.32187 -55.0759 -27.3848 2.32187 
45.5369 -31.65 2.32187 46.9114 -29.5128 2.32187 -58.0287 -23.151 2.32187 
-55.0759 -23.151 9.00405 50.7606 -23.151 2.32187 46.9114 -23.151 10.4688 
-61.8363 -14.6521 2.32187 55.3703 -14.6521 2.32187 55.4104 -14.5674 2.32187 
-63.2984 -6.15312 2.32187 -63.5748 -3.14389 2.32187 59.3766 -6.15312 2.32187 
55.4104 -6.15312 10.5894 -64.0395 2.34583 2.32187 -63.5748 7.34557 2.32187 
-63.5748 2.34583 3.88439 61.838 2.34583 2.32187 -63.1974 10.8448 2.32187 
63.2537 10.8448 2.32187 -61.3029 19.3437 2.32187 62.3515 19.3437 2.32187 
-58.1932 27.8427 2.32187 -55.0759 32.8971 2.32187 58.3477 27.8427 2.32187 
55.4104 31.1661 2.32187 55.4104 27.8427 6.31098 -52.7611 36.3416 2.32187 
-46.5769 42.9046 2.32187 21.4146 43.2838 2.32187 29.9136 41.9026 2.32187 
29.9136 36.3416 9.68073 38.4125 40.1544 2.32187 38.4125 36.3416 7.58455 
48.7258 36.3416 2.32187 46.9114 37.6689 2.32187 46.9114 36.3416 3.93442 
-43.9231 44.8405 2.32187 -38.078 48.4405 2.32187 -38.078 44.8405 10.4642 
-29.5791 51.4255 2.32187 -21.0801 53.2169 2.32187 -12.5812 52.0635 2.32187 
-4.08223 50.2291 2.32187 -4.08223 44.8405 8.97883 4.41672 47.7728 2.32187 
4.41672 44.8405 6.38259 14.4639 44.8405 2.32187 12.9157 45.2294 2.32187 
12.9157 44.8405 2.83013 -12.5812 -50.8441 10.8208 -4.08223 -53.9851 10.8208 
4.41672 -55.0849 10.8208 12.9157 -53.774 10.8208 21.4146 -50.4898 10.8208 
-29.5791 -41.5786 10.8208 -17.9846 -48.6478 10.8208 -21.0801 -47.1266 10.8208 
-12.5812 -48.6478 12.9174 -4.08223 -48.6478 15.6364 4.41672 -48.6478 16.5651 
12.9157 -48.6478 15.6964 24.5692 -48.6478 10.8208 21.4146 -48.6478 13.1123 
29.9136 -44.7783 10.8208 -46.5769 -31.8084 10.8208 -32.5446 -40.1489 10.8208 
-38.078 -37.013 10.8208 -29.5791 -40.1489 11.9827 -21.0801 -40.1489 15.6262 
-12.5812 -40.1489 17.7028 -4.08223 -40.1489 19.2042 12.9157 -40.1489 19.2938 
21.4146 -40.1489 18.413 34.7915 -40.1489 10.8208 29.9136 -40.1489 14.6156 
38.4125 -35.7034 10.8208 -46.7498 -31.65 10.8208 -46.5769 -31.65 10.9684 
-38.078 -31.65 14.1082 -29.5791 -31.65 17.0292 -21.0801 -31.65 18.6942 
29.9136 -31.65 18.7204 41.299 -31.65 10.8208 38.4125 -31.65 13.5404 
-53.4176 -23.151 10.8208 -55.0759 -21.1085 10.8208 -46.5769 -23.151 14.9563 
-38.078 -23.151 17.8758 46.6981 -23.151 10.8208 38.4125 -23.151 17.2605 
46.9114 -22.7503 10.8208 -57.8717 -14.6521 10.8208 -55.0759 -14.6521 13.3502 
-46.5769 -14.6521 16.7884 -38.078 -14.6521 18.6508 4.41672 -14.6521 19.0063 
38.4125 -14.6521 18.5165 50.9233 -14.6521 10.8208 46.9114 -14.6521 14.3835 
-58.8573 -6.15312 10.8208 -55.0759 -6.15312 14.1397 -46.5769 -6.15312 17.5852 
[...]
POINT_DATA 570
SCALARS ImageScalars float
LOOKUP_TABLE default
0 0 0 0 0 0 0 0 0 
0 0 0 0 0 0 0 0 0 
0 0 0 0 0 0 0 0 0 
0 0 0 0 0 0 0 0 0 
0 0 0 0 0 0 0 0 0 
0 0 0 0 0 0 0 0 0 
0 0 0 0 0 0 0 0 0 
0 0 0 0 0 0 0 0 0 
0 0 0 0 0 0 0 0 0 
0 0 0 0 0 0 0 0 0 
0 0 0 0 0 0 0 0 0 
0 0 0 0 0 0 0 0 0 
0 0 0 0 0 0 0 0 0 
0 0 0 0 0 0 0 0 0 
0 0 0 0 0 0 0 0 0 
0 0 0 0 0 0 0 0 0 
0 0 0 0 0 0 0 0 0 
0 0 0 0 0 0 0 0 0 
0 0 0 0 0 0 0 0 0 
0 0 0 0 0 0 0 0 0 
0 0 0 0 0 0 0 0 0 
0 0 0 0 0 0 0 0 0 
0 0 0 0 0 0 0 0 0 
0 0 0 0 0 0 0 0 0 
0 0 0 0 0 0 0 0 0 
0 0 0 0 0 0 0 0 0 
0 0 0 0 0 0 0 0 0 
0 0 0 0 0 0 0 0 0 
0 0 0 0 0 0 0 0 0 
0 0 0 0 0 0 0 0 0 
0 0 0 0 0 0 0 0 0 
0 0 0 0 0 0 0 0 0 
0 0 0 0 0 0 0 0 0 
0 0 0 0 0 0 0 0 0 
0 0 0 0 0 0 0 0 0 
0 0 0 0 0 0 0 0 0 
0 0 0 0 0 0 0 0 0 
0 0 0 0 0 0 0 0 0 
0 0 0 0 0 0 0 0 0 
0 0 0 0 0 0 0 0 0 
0 0 0 0 0 0 0 0 0 
0 0 0 0 0 0 0 0 0 
0 0 0 0 0 0 0 0 0 
0 0 0 0 0 0 0 0 0 
0 0 0 0 0 0 0 0 0 
0 0 0 0 0 0 0 0 0 
0 0 0 0 0 0 0 0 0 
0 0 0 0 0 0 0 0 0 
0 0 0 0 0 0 0 0 0 
0 0 0 0 0 0 0 0 0 
0 0 0 0 0 0 0 0 0 
0 0 0 0 0 0 0 0 0 
0 0 0 0 0 0 0 0 0 
0 0 0 0 0 0 0 0 0 
0 0 0 0 0 0 0 0 0 
0 0 0 0 0 0 0 0 0 
0 0 0 0 0 0 0 0 0 
0 0 0 0 0 0 0 0 0 
0 0 0 0 0 0 0 0 0 
0 0 0 0 0 0 0 0 0 
0 0 0 0 0 0 0 0 0 
0 0 0 0 0 0 0 0 0 
0 0 0 0 0 0 0 0 0 
0 0 0 
NORMALS Normals float
0.150203 0.40462 0.902065 0.0874743 0.319727 0.943463 0.0719659 0.251295 0.965231 
0.0831224 0.261598 0.961591 0.0302324 0.290235 0.956478 -0.121581 0.407336 0.905149 
-0.371039 0.495971 0.785075 0.194175 0.21622 0.956841 0.0817251 0.167393 0.982497 
0.00021445 0.124867 0.992173 0.024455 0.0790339 0.996572 0.110657 0.0943897 0.989366 
0.0846287 0.109872 0.990336 -0.0580462 0.13043 0.989757 -0.23956 0.24191 0.940261 
-0.50973 0.399603 0.761901 0.268077 0.0257521 0.963053 0.162455 -0.00121554 0.986715 
0.0662075 -0.00422218 0.997797 -0.0144276 0.0240606 0.999606 0.0307541 0.10092 0.994419 
0.113769 0.0961275 0.988846 0.0808622 -0.0184698 0.996554 0.0260683 -0.0128427 0.999578 
-0.137332 0.114016 0.983941 -0.351788 0.2276 0.907989 0.223526 -0.118571 0.967459 
0.165026 -0.167752 0.971919 0.109389 -0.134947 0.984796 0.112026 0.126194 0.98566 
0.105614 0.114714 0.987768 -0.0230334 0.138853 0.990045 -0.0220018 -0.0283198 0.999357 
0.0711826 -0.0560832 0.995885 -0.00419498 0.0343492 0.999401 -0.204396 0.170016 0.964011 
-0.494135 0.303656 0.814631 0.333681 -0.38829 0.859004 0.225604 0.244883 0.94294 
0.0181832 -0.0921569 0.995578 -0.0287842 0.0775185 0.996575 -0.109565 0.0238169 0.993694 
0.0890959 -0.0598955 0.994221 0.0925524 0.0200815 0.995505 -0.0847225 0.106561 0.99069 
-0.369782 0.200293 0.907273 0.0981544 -0.135412 0.985915 0.0140688 0.00680331 0.999878 
0.10602 0.0509784 0.993056 -0.147842 -0.026369 0.988659 0.0739425 -0.0102659 0.99721 
0.16033 -0.00445979 0.987053 -0.0181922 0.0435529 0.998885 -0.299153 0.0834001 0.950553 
-0.607312 0.171594 0.775711 0.371782 -0.16634 0.913296 0.15295 0.0924485 0.9839 
-0.00604815 -0.124265 0.992231 -0.169757 -0.00772511 0.985456 0.109153 0.0698963 0.991565 
0.143831 0.00413297 0.989594 0.00699343 -0.0218855 0.999736 -0.2562 0.010494 0.966567 
-0.517556 0.0683954 0.852912 0.285077 0.238562 0.928342 0.219831 0.0385223 0.974777 
0.0713898 0.0510177 0.996143 -0.0172882 -0.10435 0.99439 0.0113954 0.0489377 0.998737 
0.0922867 0.0426938 0.994817 0.0610622 -0.00302228 0.998129 -0.0114322 -0.0840731 0.996394 
-0.245873 -0.0831967 0.965725 -0.517436 -0.118041 0.847542 0.29547 0.122503 0.947465 
0.172778 0.0932988 0.980532 0.0240956 0.0391169 0.998944 -0.0300413 0.018815 0.999372 
-0.0106653 -0.0315128 0.999446 0.0519914 -0.0885105 0.994717 0.0238928 -0.0900265 0.995653 
-0.0693676 -0.183942 0.980486 -0.27593 -0.243422 0.929843 0.417266 -0.136737 0.898439 
0.288107 -0.084938 0.953824 0.14964 -0.0883075 0.984789 -0.00393973 -0.135762 0.990734 
-0.0883459 -0.146927 0.985194 -0.0886511 -0.272696 0.958007 0.00992602 -0.331895 0.943264 
-0.0463611 -0.472657 0.880026 -0.194363 -0.549116 0.812832 0.306622 -0.430086 0.849122 
0.118834 -0.459052 0.880426 -0.0498722 -0.486127 0.872464 -0.189726 -0.610929 0.768615 
0.151771 0.420286 0.894609 0.308236 0.801057 0.513126 0.118219 0.412859 0.90309 
0.193508 0.659708 0.726182 0.0920085 0.395448 0.913868 0.102072 0.550197 0.828773 
0.0719446 0.457477 0.886306 0.0607238 0.53587 0.842114 -0.0763715 0.566691 0.820383 
-0.0885822 0.605934 0.790567 -0.211306 0.558204 0.802345 -0.293733 0.732747 0.613842 
-0.380902 0.544654 0.747172 0.519605 0.74291 0.422013 0.170864 0.411528 0.895238 
0.246325 0.342562 0.906629 0.319264 0.498337 0.806059 -0.424803 0.522888 0.739006 
-0.536954 0.433594 0.723656 -0.698377 0.652015 0.295205 0.622466 0.525478 0.580008 
0.323497 0.273985 0.905694 0.322601 0.185002 0.92828 0.360169 0.297352 0.884229 
-0.548645 0.419131 0.723407 0.738865 0.312058 0.597242 0.298778 0.0496421 0.953031 
0.441296 0.175818 0.879969 -0.555703 0.356478 0.751078 -0.57721 0.359248 0.733328 
-0.688196 0.431689 0.583121 0.6326 0.0301526 0.773892 0.225325 -0.116734 0.967265 
0.3173 -0.0508575 0.946961 0.221393 -0.121336 0.967607 0.120856 -0.244498 0.962089 
-0.591149 0.329133 0.736352 -0.871422 0.430825 0.234551 0.552916 -0.0658308 0.830633 
0.250223 -0.117076 0.961084 0.15884 -0.168907 0.972749 0.199988 -0.323118 0.924986 
0.109763 -0.253916 0.960978 0.337027 -0.397803 0.853326 -0.63479 0.273715 0.722579 
-0.648444 0.232064 0.725029 -0.729772 0.303454 0.612657 0.471074 -0.0946593 0.877 
0.258802 -0.0616905 0.963959 0.112054 -0.0623758 0.991742 -0.0546832 -0.109032 0.992533 
0.535077 -0.177138 0.826023 0.30141 -0.135878 0.943763 -0.640783 0.190791 0.743637 
0.277324 -0.0483369 0.95956 0.132537 0.00879565 0.991139 0.0331803 0.05779 0.997777 
0.409612 0.192337 0.891754 0.310059 0.268384 0.912049 0.324364 0.284476 0.902143 
-0.610186 0.0813528 0.788071 0.541786 -0.0963382 0.834977 0.303205 -0.101707 0.947482 
0.243067 0.00235564 0.970007 0.244581 0.199254 0.948935 0.197881 0.122505 0.972541 
-0.642568 -0.170465 0.747027 -0.66182 -0.322892 0.676561 0.465582 -0.136011 0.874491 
0.307502 -0.104641 0.945776 0.280053 0.114251 0.953162 0.327389 0.0308418 0.944386 
0.279289 0.107812 0.954135 -0.659037 -0.358734 0.661044 -0.429668 -0.693355 0.578485 
-0.704623 -0.385461 0.595757 0.554932 -0.364407 0.747836 0.422857 -0.143922 0.894695 
0.404259 -0.241317 0.882236 0.415649 -0.192153 0.888996 -0.174784 -0.673703 0.718036 
-0.120448 -0.724284 0.6789 -0.132267 -0.726158 0.674685 -0.417891 -0.702083 0.576581 
-0.215338 -0.752775 0.622061 -0.435054 -0.717722 0.543694 0.322098 -0.44243 0.836964 
0.425563 -0.499733 0.754429 0.292087 -0.499463 0.815611 0.106532 -0.644304 0.757313 
-0.0929849 -0.705389 0.702695 -0.190154 -0.693103 0.695306 -0.224816 -0.70628 0.671287 
-0.196117 -0.739897 0.643499 -0.176793 -0.941699 0.286264 -0.155911 -0.986992 0.0392309 
0.153614 -0.941363 0.300396 -0.0109261 -0.977526 0.210531 0.349385 0.854958 0.383375 
0.2555 0.871444 0.418695 0.119172 0.884336 0.451384 -0.0249382 0.900251 0.434656 
-0.030193 0.989774 0.139413 -0.183077 0.896963 0.402417 -0.326994 0.870781 0.367171 
0.530288 0.777049 0.339101 0.397241 0.854209 0.335451 0.448888 0.839201 0.306988 
-0.494253 0.813043 0.307694 -0.516788 0.802403 0.298463 -0.56839 0.822729 -0.00697198 
-0.701649 0.665369 0.254896 0.542024 0.765902 0.345838 0.638976 0.649078 0.412804 
-0.710027 0.655905 0.256222 0.683298 0.5879 0.432986 0.769833 0.387578 0.50709 
-0.812612 0.53236 0.23718 -0.824245 0.515215 0.234891 0.787755 0.32586 0.52274 
-0.841725 0.491791 0.222803 -0.873999 0.434454 0.217659 0.725199 0.0650418 0.68546 
-0.874917 0.432192 0.218474 -0.888236 0.442424 -0.123686 0.628327 -0.0275052 0.777463 
-0.902566 0.362506 0.232301 0.540991 -0.0892097 0.836284 0.988187 -0.011549 0.152816 
0.550571 0.000932926 0.834788 -0.944583 0.24628 0.217048 0.554529 0.0137729 0.832051 
0.559979 0.00385459 0.828498 0.564806 0.0131935 0.825118 -0.984182 0.0767244 0.159687 
0.604433 -0.104907 0.789718 0.577127 -0.18387 0.795686 -0.967484 -0.205935 0.146852 
0.528154 -0.270288 0.804983 0.71718 -0.435182 0.544306 -0.87559 -0.466551 0.125191 
-0.6928 -0.719404 0.0498717 0.63093 -0.387394 0.6722 0.590999 -0.429562 0.682786 
0.532827 -0.632783 0.561855 -0.273099 -0.96194 -0.00941601 -0.583663 -0.811648 0.0237755 
-0.462243 -0.885753 0.0421115 0.536285 -0.64409 0.545478 0.539097 -0.667807 0.513232 
0.424843 -0.822155 0.378907 -0.191529 -0.981445 0.00908233 -0.273794 -0.961688 0.0138893 
-0.268482 -0.962722 0.0329319 -0.19123 -0.981545 0.000232171 -0.190884 -0.957451 -0.216451 
-0.168276 -0.985727 -0.00495355 -0.153084 -0.98821 -0.0024414 -0.155958 -0.987112 -0.0358743 
0.191573 -0.943983 0.268693 0.145625 -0.955359 0.257067 0.0693031 -0.982884 -0.170691 
-0.156965 -0.987214 0.0277615 -0.0344512 -0.99418 0.102078 -0.0897867 -0.991704 -0.0919868 
-0.0304874 0.99887 -0.0364507 0.42716 0.895042 -0.128194 0.282654 0.952357 -0.114552 
0.139197 0.988756 -0.0546394 0.159392 0.985591 -0.0566138 -0.129825 0.990687 -0.0410553 
-0.0265031 0.986204 -0.1634 -0.222415 0.973913 -0.0449919 -0.399617 0.91291 -0.0830794 
-0.574551 0.809683 -0.119602 0.541921 0.826937 -0.14999 0.469511 0.86828 -0.160151 
0.483697 0.85722 -0.176666 0.399488 0.776101 -0.48793 -0.578912 0.806604 -0.119376 
-0.574241 0.806633 -0.13997 -0.741447 0.654692 -0.147085 0.558812 0.81502 -0.153205 
0.621267 0.771937 -0.134686 0.513182 0.781181 -0.355529 -0.752171 0.641379 -0.151236 
-0.739641 0.633187 -0.228046 0.715491 0.688938 -0.115915 0.806072 0.579876 -0.118284 
-0.822925 0.540085 -0.17636 -0.834133 0.522691 -0.176114 0.859976 0.501504 -0.0945278 
0.694497 0.500431 -0.516955 -0.855895 0.485229 -0.178879 -0.736753 0.411903 -0.536219 
0.956238 0.292092 -0.0170646 -0.876912 0.437647 -0.198722 -0.87726 0.437 -0.198609 
0.991885 0.124856 0.0239821 0.995429 0.0805687 0.0512782 -0.909942 0.36316 -0.2003 
-0.749524 0.310848 -0.584454 0.994606 -0.00462817 0.103617 0.988231 -0.100186 0.115599 
0.999752 0.00285802 -0.0221063 -0.95271 0.210087 -0.219562 0.978322 -0.164216 0.126169 
-0.961166 0.0308814 -0.274238 0.957358 -0.265735 0.11336 -0.915254 -0.250436 -0.315581 
0.875357 -0.465945 0.129021 0.830029 -0.547109 0.108277 -0.744381 -0.557024 -0.368269 
-0.651582 -0.653409 -0.385353 -0.617383 -0.544886 -0.567395 0.80172 -0.592218 0.080769 
0.648813 -0.760731 0.0181718 -0.172885 -0.865312 -0.470474 -0.163331 -0.859558 -0.484234 
-0.13554 -0.703632 -0.697518 -0.210105 -0.853929 -0.476089 -0.22062 -0.759258 -0.612254 
-0.483844 -0.75223 -0.447264 -0.423038 -0.77916 -0.462547 -0.41582 -0.74366 -0.523511 
0.571168 -0.820795 0.00785598 0.443185 -0.895767 -0.0344579 0.333456 -0.72684 -0.600425 
0.247244 -0.947313 -0.203637 0.0448029 -0.956922 -0.286868 -0.167866 -0.892341 -0.418985 
-0.222145 -0.851714 -0.47459 -0.188696 -0.670313 -0.717687 -0.252145 -0.841703 -0.47745 
-0.236643 -0.758688 -0.606954 -0.231652 -0.83925 -0.491932 -0.241224 -0.833655 -0.496819 
-0.239423 -0.824475 -0.512754 0.301497 0.721313 -0.623544 0.195869 0.797767 -0.570265 
-0.0116243 0.839986 -0.542483 -0.223037 0.817254 -0.531367 -0.398759 0.755366 -0.520012 
0.379997 0.622884 -0.683826 0.346124 0.700136 -0.624506 0.36719 0.679678 -0.634988 
0.288279 0.638335 -0.713739 0.179541 0.55135 -0.814726 0.00451143 0.529776 -0.848125 
-0.15118 0.582784 -0.798441 -0.445223 0.726184 -0.523863 -0.37447 0.685787 -0.624074 
-0.516169 0.645175 -0.56331 0.533468 0.58418 -0.611674 0.392255 0.634004 -0.666464 
0.407065 0.627566 -0.663671 0.352931 0.585385 -0.729907 0.284234 0.441709 -0.850943 
0.191653 0.32788 -0.925075 0.119107 0.249166 -0.961109 -0.0721229 0.241518 -0.967712 
-0.23135 0.314819 -0.920525 -0.606984 0.552403 -0.571333 -0.466698 0.496038 -0.732215 
-0.652864 0.510865 -0.559272 0.536309 0.582532 -0.610761 0.530156 0.580736 -0.617803 
0.317041 0.460662 -0.829021 0.241557 0.359985 -0.901144 0.138464 0.24245 -0.960232 
-0.317065 0.263889 -0.910951 -0.674228 0.473787 -0.566518 -0.596958 0.432804 -0.675516 
0.603538 0.464772 -0.647865 0.646516 0.415659 -0.639722 0.4183 0.321423 -0.849536 
0.211563 0.23347 -0.94907 -0.725917 0.405533 -0.555507 -0.421476 0.233386 -0.876293 
-0.726026 0.403666 -0.556723 0.745053 0.22876 -0.62655 0.591892 0.213293 -0.777284 
0.293988 0.122269 -0.947956 0.182667 0.0629606 -0.981157 -0.0211064 0.0646343 -0.997686 
-0.29302 0.11203 -0.94952 -0.704523 0.359412 -0.61194 -0.57694 0.282033 -0.766549 
0.719346 0.11367 -0.685289 0.558817 0.101827 -0.823016 0.246745 0.0834877 -0.965477 
0.103047 0.0266439 -0.99432 -0.00634754 -0.0747109 -0.997185 -0.740347 0.306824 -0.598118 
-0.423777 0.166033 -0.890419 -0.742633 0.298702 -0.599394 0.763433 0.0352185 -0.644926 
0.520389 0.0319239 -0.853332 0.196624 0.0243048 -0.980178 0.0587067 0.00215429 -0.998273 
-0.0180658 -0.0108386 -0.999778 0.0210098 -0.00619417 -0.99976 0.0322726 0.00134336 -0.999478 
0.0331547 0.00828749 -0.999416 -0.353434 0.0392934 -0.934634 -0.74961 0.118629 -0.651163 
-0.661768 0.100998 -0.742875 0.761914 -0.127116 -0.635082 0.551476 -0.108176 -0.827147 
0.221033 -0.076345 -0.972273 0.0684548 -0.014274 -0.997552 0.00222299 0.0263626 -0.99965 
0.0230977 0.0407329 -0.998903 -0.334573 -0.104814 -0.936523 -0.694766 -0.0494047 -0.717537 
-0.598197 -0.0676876 -0.798485 0.748657 -0.199736 -0.632154 0.591768 -0.19302 -0.782659 
0.322481 -0.0639886 -0.944411 0.148961 -0.0369666 -0.988152 -0.0698117 -0.0848825 -0.993942 
0.0121895 -0.171021 -0.985192 0.106703 -0.176711 -0.978462 -0.0964259 -0.212565 -0.972378 
-0.180761 -0.261408 -0.948151 -0.33146 -0.259282 -0.907142 -0.619569 -0.255871 -0.742067 
-0.582306 -0.305085 -0.753553 -0.575922 -0.263984 -0.77371 0.718553 -0.36011 -0.594981 
0.704382 -0.380262 -0.599372 0.686373 -0.35475 -0.634858 0.379407 -0.211366 -0.900763 
0.0930604 -0.208501 -0.973585 0.0555677 -0.150415 -0.98706 -0.123378 -0.157218 -0.979827 
-0.0433204 -0.214102 -0.97585 0.0254914 -0.300041 -0.953586 -0.0326914 -0.383801 -0.922837 
-0.0962988 -0.423963 -0.900545 -0.133126 -0.659994 -0.739381 -0.125746 -0.458202 -0.879909 
-0.194076 -0.635615 -0.747214 -0.170001 -0.47982 -0.86074 -0.41958 -0.514753 -0.747651 
-0.340514 -0.573712 -0.744919 -0.348519 -0.520043 -0.779801 0.600794 -0.536016 -0.59307 
0.530822 -0.592191 -0.606249 0.48969 -0.51654 -0.702417 0.322034 -0.706607 -0.63008 
0.20899 -0.388897 -0.897264 0.105111 -0.308669 -0.945344 -0.0464069 -0.318633 -0.946742 
-0.154921 -0.34249 -0.926661 -0.168963 -0.580518 -0.796524 -0.133399 -0.403132 -0.905367 
-0.153824 -0.612076 -0.775694 -0.0985909 -0.518505 -0.849372 -0.144997 -0.66652 -0.73125 
-0.122867 -0.627139 -0.769155 -0.127692 -0.673193 -0.728359 -0.127515 -0.673544 -0.728065 
-0.126011 -0.668636 -0.732835 0.30542 -0.712819 -0.631354 0.114688 -0.72246 -0.681834 
0.104649 -0.64404 -0.7578 -0.0603087 -0.672162 -0.737944 -0.0716757 -0.607498 -0.791081 
-0.17092 -0.636277 -0.752289 -0.170174 -0.641277 -0.748201 -0.169939 -0.633274 -0.75504 
0.00564416 0.266593 -0.963793 0.108416 0.162257 -0.980775 0.0981079 0.244225 -0.964743 
0.114297 0.22933 -0.966615 -0.0680824 0.24047 -0.968266 0.00518917 0.220863 -0.975291 
-0.0708842 0.237378 -0.968828 -0.169193 0.228611 -0.958703 0.126511 0.158189 -0.979271 
0.106717 0.167941 -0.980004 0.0955373 0.16865 -0.981035 0.0953162 0.138365 -0.985784 
0.0656624 0.0436159 -0.996888 0.00642068 0.0150423 -0.999866 -0.0178561 0.0555877 -0.998294 
-0.243261 0.219139 -0.944882 -0.103388 0.135835 -0.985322 -0.266126 0.187795 -0.945468 
0.126512 0.155437 -0.979711 0.122776 0.151238 -0.980843 0.0456703 0.0783844 -0.995877 
-0.00439351 0.037545 -0.999285 -0.00429641 -0.0180842 -0.999827 -0.00933349 0.0182722 -0.999789 
0.018445 -0.0986705 -0.994949 0.0377686 -0.0445536 -0.998293 -0.00951721 0.00124848 -0.999954 
-0.255361 0.117296 -0.959704 -0.197946 0.0808994 -0.976869 0.127084 0.0273759 -0.991514 
0.0823075 0.0017978 -0.996605 -0.00284501 -0.071712 -0.997421 0.0228428 -0.0505708 -0.998459 
-0.000297357 -0.0511825 -0.998689 -0.0358674 0.0488933 -0.99816 -0.069418 0.011679 -0.997519 
0.0250593 0.024454 -0.999387 -0.0206446 0.0650756 -0.997667 0.0837107 -0.0273146 -0.996116 
0.0230567 -0.0687758 -0.997366 -0.199991 0.0576653 -0.978099 -0.108245 0.00227751 -0.994122 
-0.193751 0.0708449 -0.978489 0.037686 -0.0163956 -0.999155 0.00137296 -0.056283 -0.998414 
-0.00725912 -0.0198374 -0.999777 0.0103378 -0.0346127 -0.999347 0.0494295 -0.0401193 -0.997972 
0.0556581 -0.0362286 -0.997792 0.0497978 -0.0113257 -0.998695 0.113279 -0.0560311 -0.991982 
-0.0197027 0.0664877 -0.997593 -0.0966554 -0.00913304 -0.995276 0.0281581 -0.0183589 -0.999435 
0.0173672 -0.0731089 -0.997173 -0.0120497 -0.000326462 -0.999927 -0.192322 0.0702981 -0.978811 
-0.189074 0.0690074 -0.979535 0.0191381 0.0100428 -0.999766 0.0264904 0.00913247 -0.999607 
0.0193075 0.0198254 -0.999617 0.0320199 -0.00820095 -0.999454 0.0367103 -0.00877162 -0.999287 
0.0274138 -0.0437348 -0.998667 0.00199742 0.00945556 -0.999953 -0.0579001 0.0115309 -0.998256 
0.0326688 0.00560234 -0.999451 0.0239931 0.0123612 -0.999636 0.0312151 -0.0109762 -0.999452 
-0.179542 0.0125042 -0.983671 -0.139005 0.00575988 -0.990275 0.00747876 0.0184674 -0.999802 
0.0388439 0.0113834 -0.99918 -0.0116986 0.0267893 -0.999573 -0.00436546 -0.0610838 -0.998123 
0.0648251 -0.036887 -0.997215 0.0330731 -0.105424 -0.993877 0.0485465 -0.0503962 -0.997549 
0.0977907 -0.167104 -0.981078 -0.00879076 -0.0538517 -0.99851 -0.0461504 0.0302041 -0.998478 
-0.00517777 0.0246584 -0.999683 -0.0786466 -0.176748 -0.981109 -0.0146385 -0.0593636 -0.998129 
-0.151161 -0.103845 -0.983039 -0.142021 -0.118025 -0.982802 -0.137167 -0.103333 -0.985143 
0.0856567 -0.0298838 -0.995876 0.0442172 -0.0764915 -0.996089 0.0370099 -0.0255783 -0.998987 
-0.0509445 -0.019952 -0.998502 -0.0401581 0.0146549 -0.999086 0.0974735 -0.171511 -0.980348 
0.00731094 -0.211275 -0.977399 0.0204803 -0.129082 -0.991422 -0.081834 -0.189134 -0.978535 
-0.0608725 -0.182626 -0.981296 -0.0573443 -0.152218 -0.986682 -0.0263756 -0.116386 -0.992854 
-0.0381466 -0.114965 -0.992637 -0.034575 -0.118173 -0.992391 -0.0342379 -0.11327 -0.992974 

