# vtk DataFile Version 4.2
vtk output
ASCII
DATASET POLYDATA
POINTS 534 float
35.4339 -14.3314 -21.6455 -28.4246 -38.2783 -14.9691 -20.4423 -38.2783 -16.5356 
-12.46 -38.2783 -17.2284 -4.47766 -38.2783 -17.2583 3.50465 -38.2783 -15.9928 
11.487 -38.2783 -14.1048 -36.4069 -30.296 -16.5701 -28.4246 -30.296 -18.1642 
-20.4423 -30.296 -18.6254 -12.46 -30.296 -18.7241 -4.47766 -30.296 -19.3211 
3.50465 -30.296 -18.4639 11.487 -30.296 -17.6334 19.4693 -30.296 -17.2957 
27.4516 -30.296 -17.4434 35.4339 -30.296 -17.7188 43.4162 -30.296 -14.6374 
-44.3892 -22.3137 -17.5224 -36.4069 -22.3137 -18.835 -28.4246 -22.3137 -19.7122 
-20.4423 -22.3137 -18.7531 -12.46 -22.3137 -18.57 -4.47766 -22.3137 -19.1348 
3.50465 -22.3137 -19.0284 11.487 -22.3137 -18.1689 19.4693 -22.3137 -18.8957 
27.4516 -22.3137 -19.6665 35.4339 -14.5673 -21.5923 35.4339 -22.3137 -19.7907 
43.4162 -22.3137 -19.6396 51.3985 -22.3137 -16.4263 -52.3715 -14.3314 -14.9062 
-44.3892 -14.3314 -19.4243 -36.4069 -14.3314 -20.284 -28.4246 -14.3314 -19.5368 
-20.4423 -14.3314 -18.2046 -12.46 -14.3314 -17.2121 -4.47766 -14.3314 -18.2078 
3.50465 -14.3314 -18.9009 11.487 -14.3314 -18.0816 19.4693 -14.3314 -18.8533 
35.1589 -14.3314 -21.5923 27.4516 -14.3314 -20.1564 35.8785 -14.3314 -21.5923 
35.4339 -13.7419 -21.5923 43.4162 -14.3314 -20.6891 51.3985 -14.3314 -19.143 
59.3808 -14.3314 -14.86 -52.3715 -6.34911 -15.9842 -44.3892 -6.34911 -19.1796 
-36.4069 -6.34911 -20.709 -28.4246 -6.34911 -19.6699 -20.4423 -6.34911 -17.845 
-12.46 -6.34911 -17.4084 -4.47766 -6.34911 -18.8411 3.50465 -6.34911 -19.9707 
11.487 -6.34911 -19.9004 19.4693 -6.34911 -17.8603 27.4516 -6.34911 -19.5665 
35.4339 -6.34911 -20.9399 43.4162 -6.34911 -21.4047 51.3985 -6.34911 -21.0475 
59.3808 -6.34911 -18.5603 -52.3715 1.6332 -15.8165 -44.3892 1.6332 -18.9505 
-36.4069 1.6332 -20.2688 -28.4246 1.6332 -19.3015 -20.4423 1.6332 -17.6461 
-12.46 1.6332 -18.5624 -4.47766 1.6332 -17.4347 3.50465 1.6332 -17.7886 
11.487 1.6332 -19.417 19.4693 1.6332 -17.3466 27.4516 1.6332 -19.276 
35.4339 1.6332 -20.732 43.4162 1.6332 -21.1874 51.3985 1.6332 -20.5736 
59.3808 1.6332 -17.6311 -52.3715 9.61551 -14.7393 -44.3892 9.61551 -19.0062 
-36.4069 9.61551 -19.79 -28.4246 9.61551 -19.1989 -20.4423 9.61551 -18.1902 
-12.46 9.61551 -17.1311 -4.47766 9.61551 -17.2355 3.50465 9.61551 -18.1414 
11.487 9.61551 -17.9159 19.4693 9.61551 -18.0543 27.4516 9.61551 -19.9866 
35.4339 9.61551 -20.4974 43.4162 9.61551 -20.402 51.3985 9.61551 -19.213 
59.3808 9.61551 -15.3259 -44.3892 17.5978 -16.9841 -36.4069 17.5978 -18.8781 
-28.4246 17.5978 -18.9995 -20.4423 17.5978 -18.4316 -12.46 17.5978 -16.7479 
-4.47766 17.5978 -15.3994 3.50465 17.5978 -15.3053 11.487 17.5978 -16.5907 
19.4693 17.5978 -18.5179 27.4516 17.5978 -19.1111 35.4339 17.5978 -19.7256 
43.4162 17.5978 -19.6278 51.3985 17.5978 -16.9413 -44.3892 25.5801 -14.4974 
-36.4069 25.5801 -17.6406 -28.4246 25.5801 -17.8675 -20.4423 25.5801 -17.5577 
-12.46 25.5801 -15.8497 -4.47766 25.5801 -14.5074 3.50465 25.5801 -14.394 
11.487 25.5801 -15.1386 19.4693 25.5801 -16.3335 27.4516 25.5801 -17.4833 
35.4339 25.5801 -17.3735 43.4162 25.5801 -15.6228 -28.4246 33.5624 -14.6592 
-20.4423 33.5624 -14.5808 -28.4246 -39.8318 -13.61 -20.4423 -41.6221 -13.61 
-12.46 -43.2536 -13.61 -12.46 -46.2607 -6.4256 -4.47766 -43.07 -13.61 
-4.47766 -46.2607 -5.63677 3.50465 -41.3209 -13.61 11.487 -38.8946 -13.61 
-31.8442 -38.2783 -13.61 -36.4069 -35.1313 -13.61 -36.4069 -38.2783 -9.78429 
14.3061 -38.2783 -13.61 19.4693 -36.745 -13.61 19.4693 -38.2783 -11.784 
27.4516 -35.7761 -13.61 27.4516 -38.2783 -7.31235 35.4339 -34.4268 -13.61 
43.4162 -31.3249 -13.61 -43.7085 -30.296 -13.61 -44.3892 -29.8237 -13.61 
-44.3892 -30.296 -13.095 45.403 -30.296 -13.61 51.3985 -26.2477 -13.61 
-50.3061 -22.3137 -13.61 -52.3715 -17.9716 -13.61 -52.3715 -22.3137 -10.5049 
56.3239 -22.3137 -13.61 59.3808 -17.1473 -13.61 -53.9496 -14.3314 -13.61 
60.5069 -14.3314 -13.61 -55.2524 -6.34911 -13.61 63.5851 -6.34911 -13.61 
-55.0967 1.6332 -13.61 63.135 1.6332 -13.61 -53.7596 9.61551 -13.61 
-52.3715 13.2017 -13.61 61.0971 9.61551 -13.61 59.3808 13.0885 -13.61 
-50.0427 17.5978 -13.61 -52.3715 17.5978 -11.3867 56.5826 17.5978 -13.61 
51.3985 22.7948 -13.61 59.3808 17.5978 -10.4326 -45.8176 25.5801 -13.61 
-44.3892 27.1308 -13.61 -36.4069 33.4031 -13.61 -12.46 33.3945 -13.61 
-4.47766 28.9981 -13.61 3.50465 28.1262 -13.61 11.487 29.4492 -13.61 
19.4693 31.1397 -13.61 27.4516 32.1686 -13.61 35.4339 30.4883 -13.61 
47.6384 25.5801 -13.61 43.4162 28.024 -13.61 51.3985 25.5801 -10.6033 
-44.3892 33.5624 -7.09603 -35.8144 33.5624 -13.61 -36.4069 33.5624 -13.4983 
-28.4246 35.0145 -13.61 -12.8653 33.5624 -13.61 -20.4423 35.0754 -13.61 
-12.46 33.5624 -13.5558 -4.47766 33.5624 -12.2774 3.50465 33.5624 -11.5768 
11.487 33.5624 -11.6496 19.4693 33.5624 -12.0975 27.4516 33.5624 -12.1905 
35.4339 33.5624 -9.74834 -28.4246 41.5448 -6.65426 -20.4423 41.5448 -7.35447 
-12.46 41.5448 -6.53296 -12.46 -46.4972 -5.62766 -4.47766 -46.2633 -5.62766 
-36.4069 -40.2691 -5.62766 -28.4246 -43.7828 -5.62766 -15.0319 -46.2607 -5.62766 
-20.4423 -45.7456 -5.62766 -12.46 -46.2607 -4.97651 -4.45765 -46.2607 -5.62766 
-4.47766 -46.2607 -5.61907 3.50465 -45.1724 -5.62766 11.487 -43.241 -5.62766 
19.4693 -41.0351 -5.62766 27.4516 -38.7601 -5.62766 -39.2221 -38.2783 -5.62766 
-44.3892 -34.3684 -5.62766 19.4693 -38.2783 0.462941 29.6877 -38.2783 -5.62766 
27.4516 -38.2783 -4.45116 35.4339 -36.9029 -5.62766 43.4162 -33.8661 -5.62766 
-48.6156 -30.296 -5.62766 -52.3715 -25.5346 -5.62766 51.0493 -30.296 -5.62766 
51.3985 -30.095 -5.62766 -54.5687 -22.3137 -5.62766 58.9985 -22.3137 -5.62766 
59.3808 -21.8081 -5.62766 -57.9184 -14.3314 -5.62766 63.7768 -14.3314 -5.62766 
-59.5247 -6.34911 -5.62766 66.4671 -6.34911 -5.62766 -59.8562 1.6332 -5.62766 
-60.3538 1.6332 -2.08428 66.4545 1.6332 -5.62766 -58.7977 9.61551 -5.62766 
65.0938 9.61551 -5.62766 -55.9589 17.5978 -5.62766 -52.3715 25.1426 -5.62766 
61.8936 17.5978 -5.62766 59.3808 20.9163 -5.62766 -52.1224 25.5801 -5.62766 
-52.3715 25.5801 -3.18922 43.4162 33.2181 -5.62766 54.879 25.5801 -5.62766 
51.3985 28.4967 -5.62766 -45.3955 33.5624 -5.62766 -44.3892 34.4683 -5.62766 
-36.4069 39.5607 -5.62766 -4.47766 40.9582 -5.62766 3.50465 39.8233 -5.62766 
11.487 39.2578 -5.62766 19.4693 38.9643 -5.62766 27.4516 37.5978 -5.62766 
42.4796 33.5624 -5.62766 35.4339 35.8347 -5.62766 -30.5166 41.5448 -5.62766 
-28.4246 42.1904 -5.62766 -20.4423 42.6549 -5.62766 -8.11446 41.5448 -5.62766 
-12.46 42.1356 -5.62766 -4.47766 41.5448 -2.66596 -36.4069 -38.4094 2.35465 
-28.4246 -41.3545 2.35465 -20.4423 -42.6459 2.35465 -12.46 -43.0317 2.35465 
-4.47766 -43.3311 2.35465 3.50465 -42.6535 2.35465 11.487 -40.38 2.35465 
-36.6332 -38.2783 2.35465 -44.3892 -33.3536 2.35465 -36.4069 -38.2783 2.63431 
-28.4246 -38.2783 7.05529 -20.4423 -38.2783 8.09369 -12.46 -38.2783 7.51677 
-4.47766 -38.2783 8.13014 3.50465 -38.2783 7.90067 16.8887 -38.2783 2.35465 
11.487 -38.2783 5.00339 19.4693 -37.1782 2.35465 27.4516 -34.9164 2.35465 
35.4339 -33.035 2.35465 43.4162 -30.5047 2.35465 -47.706 -30.296 2.35465 
-52.3715 -24.8687 2.35465 -44.3892 -30.296 9.39069 19.4693 -30.296 9.20463 
27.4516 -30.296 7.47697 35.4339 -30.296 6.03865 43.9171 -30.296 2.35465 
43.4162 -30.296 2.63118 51.3985 -26.3087 2.35465 -54.2411 -22.3137 2.35465 
-52.3715 -22.3137 9.51261 55.5162 -22.3137 2.35465 51.3985 -22.3137 6.2252 
59.3808 -17.3645 2.35465 -58.0225 -14.3314 2.35465 61.14 -14.3314 2.35465 
59.3808 -14.3314 4.64088 -60.1825 -6.34911 2.35465 -60.3538 -4.52599 2.35465 
64.4048 -6.34911 2.35465 59.3808 -6.34911 8.71196 -60.933 1.6332 2.35465 
-60.3538 6.21672 2.35465 -60.3538 1.6332 8.16994 64.6939 1.6332 2.35465 
59.3808 1.6332 9.60484 -59.9243 9.61551 2.35465 63.8118 9.61551 2.35465 
59.3808 9.61551 9.24086 -57.1658 17.5978 2.35465 61.0287 17.5978 2.35465 
59.3808 19.8996 2.35465 59.3808 17.5978 5.08575 -52.893 25.5801 2.35465 
-52.3715 26.2804 2.35465 -52.3715 25.5801 4.86215 43.4162 33.4679 2.35465 
54.5459 25.5801 2.35465 51.3985 28.4002 2.35465 51.3985 25.5801 7.79141 
-46.1114 33.5624 2.35465 -44.3892 35.0497 2.35465 -44.3892 33.5624 7.71239 
-36.4069 40.155 2.35465 3.50465 41.3584 2.35465 11.487 40.7015 2.35465 
19.4693 39.7938 2.35465 27.4516 38.4524 2.35465 43.185 33.5624 2.35465 
35.4339 36.3923 2.35465 -32.5803 41.5448 2.35465 -28.4246 42.9862 2.35465 
-28.4246 41.5448 6.87665 -20.4423 43.6419 2.35465 -20.4423 41.5448 8.57587 
-12.46 43.2023 2.35465 -12.46 41.5448 7.42598 1.97885 41.5448 2.35465 
-4.47766 42.3376 2.35465 -4.47766 41.5448 4.89364 -36.4069 -33.6561 10.337 
-28.4246 -35.4306 10.337 -20.4423 -35.721 10.337 -12.46 -34.2649 10.337 
-4.47766 -35.3408 10.337 3.50465 -35.5795 10.337 11.487 -32.6707 10.337 
-43.3909 -30.296 10.337 -44.3892 -29.7466 10.337 -36.4069 -30.296 13.6729 
-28.4246 -30.296 15.2427 -20.4423 -30.296 14.1143 -12.46 -30.296 12.6104 
-4.47766 -30.296 13.269 3.50465 -30.296 13.9192 16.541 -30.296 10.337 
11.487 -30.296 12.1173 19.4693 -28.8089 10.337 27.4516 -26.7547 10.337 
35.4339 -25.7903 10.337 43.4162 -22.7825 10.337 -52.0504 -22.3137 10.337 
-52.3715 -21.869 10.337 -44.3892 -22.3137 17.1306 -20.4423 -22.3137 17.7123 
-12.46 -22.3137 15.4441 -4.47766 -22.3137 15.07 3.50465 -22.3137 17.1901 
11.487 -22.3137 16.0851 19.4693 -22.3137 14.6242 27.4516 -22.3137 13.5984 
35.4339 -22.3137 12.7821 44.2032 -22.3137 10.337 43.4162 -22.3137 10.7109 
51.3985 -15.9597 10.337 -56.157 -14.3314 10.337 -52.3715 -14.3314 16.2971 
-12.46 -14.3314 17.7763 -4.47766 -14.3314 17.3687 27.4516 -14.3314 17.5983 
35.4339 -14.3314 16.5633 43.4162 -14.3314 14.789 52.6728 -14.3314 10.337 
51.3985 -14.3314 11.1897 -58.9074 -6.34911 10.337 43.4162 -6.34911 16.9674 
57.2536 -6.34911 10.337 51.3985 -6.34911 14.0885 -60.127 1.6332 10.337 
43.4162 1.6332 18.0752 58.4969 1.6332 10.337 51.3985 1.6332 15.0582 
-58.9046 9.61551 10.337 58.3398 9.61551 10.337 51.3985 9.61551 15.4815 
[...]
POINT_DATA 534
SCALARS ImageScalars float
LOOKUP_TABLE default
0 0 0 0 0 0 0 0 0 
0 0 0 0 0 0 0 0 0 
0 0 0 0 0 0 0 0 0 
0 0 0 0 0 0 0 0 0 
0 0 0 0 0 0 0 0 0 
0 0 0 0 0 0 0 0 0 
0 0 0 0 0 0 0 0 0 
0 0 0 0 0 0 0 0 0 
0 0 0 0 0 0 0 0 0 
0 0 0 0 0 0 0 0 0 
0 0 0 0 0 0 0 0 0 
0 0 0 0 0 0 0 0 0 
0 0 0 0 0 0 0 0 0 
0 0 0 0 0 0 0 0 0 
0 0 0 0 0 0 0 0 0 
0 0 0 0 0 0 0 0 0 
0 0 0 0 0 0 0 0 0 
0 0 0 0 0 0 0 0 0 
0 0 0 0 0 0 0 0 0 
0 0 0 0 0 0 0 0 0 
0 0 0 0 0 0 0 0 0 
0 0 0 0 0 0 0 0 0 
0 0 0 0 0 0 0 0 0 
0 0 0 0 0 0 0 0 0 
0 0 0 0 0 0 0 0 0 
0 0 0 0 0 0 0 0 0 
0 0 0 0 0 0 0 0 0 
0 0 0 0 0 0 0 0 0 
0 0 0 0 0 0 0 0 0 
0 0 0 0 0 0 0 0 0 
0 0 0 0 0 0 0 0 0 
0 0 0 0 0 0 0 0 0 
0 0 0 0 0 0 0 0 0 
0 0 0 0 0 0 0 0 0 
0 0 0 0 0 0 0 0 0 
0 0 0 0 0 0 0 0 0 
0 0 0 0 0 0 0 0 0 
0 0 0 0 0 0 0 0 0 
0 0 0 0 0 0 0 0 0 
0 0 0 0 0 0 0 0 0 
0 0 0 0 0 0 0 0 0 
0 0 0 0 0 0 0 0 0 
0 0 0 0 0 0 0 0 0 
0 0 0 0 0 0 0 0 0 
0 0 0 0 0 0 0 0 0 
0 0 0 0 0 0 0 0 0 
0 0 0 0 0 0 0 0 0 
0 0 0 0 0 0 0 0 0 
0 0 0 0 0 0 0 0 0 
0 0 0 0 0 0 0 0 0 
0 0 0 0 0 0 0 0 0 
0 0 0 0 0 0 0 0 0 
0 0 0 0 0 0 0 0 0 
0 0 0 0 0 0 0 0 0 
0 0 0 0 0 0 0 0 0 
0 0 0 0 0 0 0 0 0 
0 0 0 0 0 0 0 0 0 
0 0 0 0 0 0 0 0 0 
0 0 0 0 0 0 0 0 0 
0 0 0 
NORMALS Normals float
0.0367515 0.0673329 0.997053 0.258995 0.606564 0.751666 0.143201 0.49915 0.854601 
0.0383351 0.421494 0.906021 -0.0753426 0.457682 0.885918 -0.190762 0.501721 0.843734 
-0.194472 0.614489 0.764581 0.293364 0.41658 0.860464 0.108775 0.265408 0.95798 
0.0380249 0.112623 0.99291 0.0420856 0.0797847 0.995923 -0.0151306 0.111577 0.993641 
-0.105609 0.176623 0.978596 -0.0684479 0.221115 0.972843 -0.0134139 0.339749 0.940421 
0.0242213 0.44065 0.897352 -0.150092 0.539969 0.828195 -0.381089 0.689729 0.615666 
0.335313 0.337671 0.879513 0.130792 0.207808 0.969386 -0.00676239 0.0942662 0.995524 
-0.0693359 -0.0257435 0.997261 0.0229991 -0.0948035 0.99523 0.0290046 -0.0676674 0.997286 
-0.0604641 0.0267168 0.997813 -0.00857089 0.0286675 0.999552 0.0962083 0.0871092 0.991542 
0.0536832 0.163645 0.985058 0.0363984 0.0720041 0.99674 2.51779e-05 0.231543 0.972825 
-0.203401 0.352384 0.913484 -0.436517 0.4414 0.783977 0.618442 0.207635 0.757903 
0.289378 0.0968074 0.952307 -0.000230467 0.116784 0.993157 -0.125992 -0.00228453 0.992029 
-0.145813 -0.0549964 0.987782 -0.000997991 -0.0747808 0.997199 0.106295 -0.0198537 0.994136 
-0.0099745 0.0473278 0.99883 -0.00145325 0.0808582 0.996725 0.129806 -0.0641118 0.989464 
0.0416639 0.0651393 0.997006 0.169063 -0.00430587 0.985596 0.0268768 0.0689878 0.997255 
0.0426319 0.0581303 0.997398 -0.14173 0.0994731 0.984895 -0.290036 0.269353 0.918329 
-0.673607 0.342709 0.654831 0.571651 0.049391 0.819009 0.263787 -0.0272796 0.964195 
0.036595 -0.00118755 0.999329 -0.16698 -0.0146802 0.985851 -0.144162 -0.0347717 0.988943 
0.064347 0.0735293 0.995215 0.149656 -0.0306955 0.988262 0.073327 -0.029393 0.996875 
-0.154431 0.110843 0.981766 0.0102264 -0.0964944 0.995281 0.195195 -0.0561518 0.979156 
0.113101 -0.0557505 0.992018 0.0094963 0.0304264 0.999492 -0.140424 0.0872911 0.986236 
-0.5612 0.122024 0.818636 0.560515 -0.0720098 0.825008 0.248659 -0.0116927 0.96852 
0.0262536 -0.0571154 0.998022 -0.155308 -0.0294507 0.987427 -0.062294 0.0234558 0.997782 
-7.41815e-05 -0.0274235 0.999624 -0.0507681 -0.122283 0.991196 0.111804 -0.120415 0.986408 
-0.0768289 -0.136327 0.98768 0.034621 0.00946652 0.999356 0.214902 0.0267109 0.97627 
0.117838 -0.0274865 0.992652 -0.00629639 -0.0618512 0.998066 -0.173696 -0.111008 0.978523 
-0.570886 -0.148838 0.807425 0.590871 -0.188402 0.784459 0.282655 -0.107289 0.953203 
0.00632025 -0.0867637 0.996209 -0.0985425 -0.0188078 0.994955 -0.130233 0.0470149 0.990368 
-0.0610495 -0.0938484 0.993713 0.0619575 -0.12841 0.989784 0.0437395 -0.168308 0.984764 
-0.00557327 -0.150127 0.988651 0.131448 0.0739333 0.988562 0.145403 -0.00983007 0.989324 
0.0259552 -0.0614661 0.997772 -0.0740031 -0.0917191 0.993031 -0.255416 -0.210387 0.943663 
-0.62099 -0.296468 0.725588 0.350593 -0.257797 0.900347 0.112756 -0.123763 0.985885 
-0.0278473 -0.0807447 0.996346 -0.140699 -0.0371674 0.989354 -0.189273 -0.0787942 0.978758 
-0.087979 -0.163606 0.982595 0.0721795 -0.226476 0.971339 0.195129 -0.164073 0.966956 
0.156128 -0.103643 0.982284 0.0734667 -0.155755 0.98506 0.0328795 -0.172715 0.984423 
-0.152148 -0.265163 0.952124 -0.402582 -0.380663 0.83248 0.454568 -0.394443 0.798613 
0.188844 -0.305389 0.933314 -0.00609702 -0.2415 0.970382 -0.125715 -0.227495 0.96563 
-0.180794 -0.185393 0.96589 -0.0892153 -0.181161 0.979399 0.0375879 -0.203863 0.978278 
0.119203 -0.269378 0.955629 0.141067 -0.332621 0.93245 0.0629344 -0.351625 0.934023 
-0.104329 -0.451685 0.886056 -0.283791 -0.563178 0.776075 0.0601831 -0.511622 0.8571 
-0.0640988 -0.458644 0.886305 0.26102 0.694098 0.670893 0.181365 0.686013 0.704622 
0.0675941 0.744621 0.664056 0.0348625 0.999153 0.0218741 -0.0949886 0.749475 0.655183 
-0.0805412 0.996717 -0.00825628 -0.204608 0.680231 0.703862 -0.20416 0.645631 0.735853 
0.327473 0.650604 0.685183 0.392628 0.574696 0.718031 0.488673 0.776683 0.397444 
-0.185305 0.66657 0.722044 -0.129124 0.680864 0.720938 -0.190984 0.832543 0.519997 
-0.113899 0.765943 0.632739 -0.233163 0.970647 0.0589813 -0.236296 0.790669 0.564806 
-0.393409 0.737584 0.548817 0.48188 0.563579 0.670947 0.491142 0.561278 0.666144 
0.510767 0.58661 0.628495 -0.433612 0.717697 0.544877 -0.510089 0.634227 0.581004 
0.669428 0.400904 0.625414 0.689713 0.316211 0.651388 0.791042 0.455878 0.407956 
-0.622114 0.537265 0.569491 -0.710886 0.416698 0.566571 0.688257 0.236347 0.685888 
-0.72841 0.344429 0.592273 0.716184 0.0516883 0.695995 -0.795532 0.139913 0.589536 
0.692524 -0.0706498 0.717927 -0.754588 -0.129364 0.643321 0.646281 -0.203341 0.735509 
0.636404 -0.251022 0.729368 -0.695128 -0.302256 0.652257 -0.662293 -0.373879 0.649293 
0.598198 -0.297832 0.743946 0.733811 -0.338636 0.588937 -0.587872 -0.455964 0.668209 
-0.480507 -0.568479 0.667791 -0.735027 -0.507136 0.450054 0.508645 -0.415706 0.753969 
0.477402 -0.450569 0.75437 0.26627 -0.555311 0.787864 -0.130256 -0.406163 0.904469 
-0.0951021 -0.275859 0.956482 0.0177867 -0.288437 0.957334 0.0774157 -0.39659 0.914726 
0.0803915 -0.52234 0.84894 -0.0388213 -0.648141 0.76053 -0.180911 -0.66261 0.726787 
-0.408495 -0.617648 0.672044 -0.315422 -0.647802 0.693442 -0.541906 -0.692227 0.476612 
0.619625 -0.707065 0.34077 0.252227 -0.557828 0.790702 0.269617 -0.563408 0.780947 
0.0675004 -0.567009 0.820942 -0.125668 -0.413992 0.901564 -0.0530597 -0.521762 0.85144 
-0.129196 -0.412516 0.901742 -0.110965 -0.439852 0.891188 -0.0376296 -0.523112 0.851433 
0.0264908 -0.582705 0.812252 0.0276498 -0.648767 0.760484 -0.0770418 -0.743383 0.664414 
-0.23443 -0.842878 0.484355 0.169687 -0.901049 0.399145 -0.00678984 -0.889546 0.456795 
-0.100925 -0.893057 0.438478 0.0314631 0.998957 -0.0330864 -0.0805074 0.996715 -0.00882311 
0.500177 0.861602 0.0864017 0.324832 0.943756 0.0617169 0.0729226 0.996985 -0.0265348 
0.161418 0.986883 -0.00246582 0.0342946 0.996759 -0.0727658 -0.0807584 0.996695 -0.00872841 
-0.0804668 0.996714 -0.00929747 -0.187146 0.981484 0.0408195 -0.259128 0.964823 0.04437 
-0.27164 0.962351 0.00961705 -0.240578 0.968989 -0.0564086 0.548712 0.830442 0.0963366 
0.643445 0.756313 0.118195 -0.295133 0.84672 -0.442675 -0.252471 0.965485 -0.0640083 
-0.243968 0.961643 -0.125392 -0.29174 0.953407 -0.0768314 -0.389258 0.919851 -0.0484995 
0.734903 0.664994 0.133045 0.817132 0.556591 0.150007 -0.567588 0.823287 -0.00649028 
-0.577631 0.816286 -0.00445329 0.857976 0.485393 0.168141 -0.761992 0.645127 -0.056382 
-0.775287 0.629377 -0.0530622 0.938644 0.294338 0.179757 -0.917749 0.397026 0.0103411 
0.963511 0.114554 0.241917 -0.987643 0.154389 0.0269238 0.956989 -0.0424976 0.286995 
0.986336 -0.0305177 0.161893 -0.995743 -0.0801833 0.0454571 0.929615 -0.218246 0.296959 
-0.952934 -0.283547 0.107321 0.876389 -0.369569 0.308805 0.813179 -0.519912 0.261592 
-0.843706 -0.51114 0.164001 -0.777057 -0.605164 0.173088 0.807485 -0.529361 0.260279 
0.822618 -0.544188 0.1648 -0.429453 -0.866098 0.255821 -0.655219 -0.72787 0.202222 
-0.567886 -0.794352 0.215664 0.650545 -0.708999 0.272236 0.626315 -0.730598 0.271947 
0.401683 -0.871878 0.280144 -0.128513 -0.894505 0.428189 -0.0937126 -0.881322 0.463131 
-0.0484387 -0.896905 0.439563 -0.0980953 -0.927508 0.360702 -0.182079 -0.935438 0.302989 
-0.409092 -0.875167 0.258313 -0.245329 -0.930526 0.271911 0.238821 -0.914628 0.326221 
0.179421 -0.920857 0.346167 -0.0041635 -0.930184 0.367071 -0.114588 -0.909059 0.400601 
-0.09919 -0.917712 0.384663 -0.126248 -0.965542 0.227574 0.417174 0.854859 -0.308514 
0.243181 0.873809 -0.421096 0.0949642 0.851342 -0.515944 0.0394788 0.825738 -0.56267 
-0.0214101 0.853134 -0.521252 -0.159976 0.865215 -0.475195 -0.276548 0.827199 -0.489144 
0.421249 0.853495 -0.30675 0.606785 0.76093 -0.229777 0.41469 0.852707 -0.317682 
0.164387 0.798469 -0.579158 0.0107284 0.716504 -0.6975 0.00305925 0.667488 -0.744614 
0.0195809 0.666711 -0.745059 -0.131817 0.719618 -0.681743 -0.291149 0.783311 -0.549232 
-0.285804 0.756425 -0.588335 -0.285369 0.763105 -0.579858 -0.213196 0.791768 -0.572409 
-0.23116 0.830523 -0.506752 -0.303055 0.819917 -0.485689 0.68923 0.694638 -0.20601 
0.801783 0.578599 -0.149559 0.524937 0.721541 -0.451465 -0.223104 0.609057 -0.761101 
-0.141711 0.677649 -0.721602 -0.204756 0.751837 -0.62675 -0.311714 0.815158 -0.488213 
-0.304191 0.814371 -0.494234 -0.5206 0.686593 -0.50751 0.84016 0.526305 -0.130899 
0.744046 0.567279 -0.352973 -0.644975 0.600989 -0.472037 -0.50638 0.57882 -0.639177 
-0.744218 0.482955 -0.461405 0.929823 0.355193 -0.0962719 -0.795729 0.399096 -0.455563 
-0.730539 0.402239 -0.55183 0.985058 0.168542 -0.0354125 0.991665 0.126602 -0.0239111 
-0.894328 0.203749 -0.398327 -0.625102 0.21885 -0.749234 0.999741 -0.0161403 0.016054 
0.991022 -0.133463 0.00790792 0.982989 -0.00671947 -0.183543 -0.932769 -0.0339053 -0.358876 
-0.646594 0.0274475 -0.76234 0.975647 -0.219319 0.00349419 -0.91332 -0.217803 -0.344106 
-0.731786 -0.161094 -0.662222 0.922187 -0.386735 0.00256797 -0.835521 -0.45886 -0.302246 
-0.802514 -0.522735 -0.287609 -0.79142 -0.438688 -0.425684 0.827077 -0.560371 -0.0438999 
0.817954 -0.573365 -0.0469487 0.808101 -0.573943 -0.132526 -0.453664 -0.877895 -0.153261 
-0.684352 -0.696778 -0.214853 -0.607235 -0.77168 -0.189143 -0.620688 -0.634814 -0.460172 
0.671367 -0.737314 -0.0750656 0.631645 -0.770888 -0.0821963 0.599383 -0.751874 -0.274637 
0.420751 -0.902741 -0.089597 -0.101282 -0.992952 -0.0615452 -0.0979436 -0.993223 -0.0625719 
-0.138221 -0.986899 -0.0832146 -0.204179 -0.975665 -0.0799328 -0.448653 -0.880727 -0.151759 
-0.28366 -0.95236 -0.112013 0.318218 -0.943263 -0.0948264 0.210543 -0.9719 -0.10527 
0.184575 -0.935072 -0.30261 0.0113378 -0.995129 -0.0979287 0.00879107 -0.920382 -0.390923 
-0.0811956 -0.992671 -0.0895028 -0.0758833 -0.93964 -0.333644 -0.103882 -0.992477 -0.064787 
-0.115056 -0.990558 -0.0745454 -0.109526 -0.974607 -0.195306 0.276616 0.741332 -0.611482 
0.0900066 0.720793 -0.687282 -0.0354233 0.639223 -0.768205 -0.0188265 0.524026 -0.851494 
0.0451792 0.538886 -0.841167 -0.105803 0.619716 -0.777662 -0.25938 0.570942 -0.77894 
0.476936 0.720981 -0.50271 0.508331 0.711942 -0.484497 0.222153 0.678613 -0.700095 
0.00737461 0.618204 -0.785983 -0.137402 0.51437 -0.846489 -0.0435461 0.416681 -0.908009 
0.074477 0.365152 -0.927964 -0.0549121 0.477704 -0.876803 -0.231672 0.573519 -0.785751 
-0.246004 0.522667 -0.816273 -0.20682 0.580598 -0.787484 -0.112872 0.608701 -0.78533 
-0.159226 0.59679 -0.786441 -0.295616 0.553836 -0.778381 0.725451 0.571135 -0.384091 
0.737788 0.559203 -0.378101 0.396586 0.535009 -0.745979 -0.254887 0.348836 -0.901857 
-0.159034 0.30439 -0.939178 0.107476 0.24534 -0.963461 0.0664347 0.309345 -0.948626 
-0.149119 0.410429 -0.899617 -0.130779 0.486296 -0.863952 -0.102219 0.534881 -0.838721 
-0.146734 0.522723 -0.839779 -0.304222 0.545438 -0.780991 -0.292913 0.540786 -0.788513 
-0.472719 0.395537 -0.787456 0.849718 0.388499 -0.356439 0.682852 0.376147 -0.62628 
-0.173558 0.24079 -0.954933 0.0963806 0.388722 -0.9163 -0.106212 0.287764 -0.951794 
-0.164675 0.312599 -0.935502 -0.28958 0.325784 -0.900005 -0.507869 0.356469 -0.784219 
-0.476515 0.360537 -0.80184 0.927289 0.218133 -0.304226 -0.246024 0.200485 -0.948303 
-0.544635 0.214687 -0.810729 -0.432021 0.206122 -0.877993 0.965196 -0.00264855 -0.261513 
-0.242483 0.0961487 -0.965379 -0.606061 0.0372211 -0.794547 -0.450033 0.0722274 -0.890086 
0.934102 -0.231093 -0.272121 -0.683368 -0.140106 -0.716504 -0.483496 -0.0304823 -0.874816 
0.863671 -0.409214 -0.294305 0.769951 -0.551579 -0.320836 0.69848 -0.410363 -0.586283 
-0.298909 -0.213905 -0.929999 -0.674822 -0.35593 -0.646475 -0.611123 -0.51834 -0.598207 
-0.560571 -0.307092 -0.769061 0.735445 -0.587854 -0.336969 0.575253 -0.72752 -0.373896 
0.476267 -0.521873 -0.707686 -0.226448 -0.409055 -0.883966 -0.567759 -0.585922 -0.578226 
-0.448812 -0.710597 -0.541867 -0.446032 -0.528351 -0.722427 0.54256 -0.746086 -0.385986 
0.380361 -0.819986 -0.427725 0.330669 -0.681122 -0.653246 0.160963 -0.869173 -0.467578 
0.115704 -0.598946 -0.792386 0.00658215 -0.874838 -0.484371 -0.0213686 -0.578012 -0.815749 
-0.0703143 -0.867631 -0.492212 -0.0634068 -0.564915 -0.82271 -0.0900209 -0.863253 -0.496679 
-0.0707847 -0.579004 -0.812246 -0.0786631 -0.866196 -0.493475 -0.0681179 -0.607078 -0.791717 
-0.07735 -0.863377 -0.498595 -0.0750613 -0.642915 -0.762251 -0.115134 -0.861441 -0.494634 
-0.0940169 -0.684135 -0.72327 -0.199917 -0.859385 -0.470628 -0.177961 -0.744791 -0.643131 
-0.319524 -0.818957 -0.476669 -0.311771 -0.82304 -0.474768 -0.311388 -0.816876 -0.485542 
0.152591 0.49718 -0.854124 -0.078855 0.458643 -0.885115 0.276195 0.49126 -0.826063 
0.355689 0.469912 -0.807878 0.123435 0.435385 -0.891742 -0.214972 0.355367 -0.909671 
-0.106597 0.370802 -0.922574 -0.260817 0.303982 -0.91628 0.0973954 0.226567 -0.969114 
-0.0848434 0.345234 -0.934674 -0.108211 0.309217 -0.944815 0.529601 0.356687 -0.769608 
0.624611 0.290309 -0.724971 0.273569 0.311698 -0.909947 0.0706462 0.226455 -0.971456 
-0.11876 0.1685 -0.978521 -0.194251 0.224237 -0.954979 -0.26554 0.153821 -0.95175 
-0.0989278 0.21869 -0.970767 0.108392 0.283466 -0.952837 0.0804099 0.386011 -0.918983 
0.113078 0.153667 -0.981631 -0.0560405 0.315188 -0.947373 -0.108181 0.305412 -0.946055 
-0.10817 0.306916 -0.94557 -0.103211 0.201306 -0.974076 -0.128181 0.18521 -0.974303 
0.662834 0.218944 -0.716041 0.606305 0.205556 -0.768206 0.189211 0.192677 -0.962847 
-0.0432216 0.132326 -0.990263 -0.189091 0.0465056 -0.980858 -0.173668 0.0224783 -0.984548 
0.0699086 0.184368 -0.980368 -0.00789045 0.324303 -0.94592 0.000237775 0.0581876 -0.998306 
0.0176083 0.195188 -0.980608 -0.15583 0.118714 -0.980624 -0.0967971 0.114088 -0.988744 
-0.13428 0.179705 -0.974513 -0.125342 0.177486 -0.976109 0.677111 0.0202231 -0.735603 
0.541663 0.0273947 -0.840149 0.225325 0.0377666 -0.973551 -0.078043 0.0485643 -0.995766 
-0.216211 0.0643491 -0.974224 -0.146367 0.139165 -0.979393 0.152099 0.191076 -0.969719 
-0.0612482 0.0271494 -0.997753 -0.00659669 0.0408156 -0.999145 5.29242e-06 -0.0196529 -0.999807 
-0.19675 0.0526732 -0.979038 -0.0522646 0.0940992 -0.99419 -0.215163 0.0979829 -0.97165 
-0.0898663 0.105126 -0.99039 -0.247033 0.0518908 -0.967617 0.696483 -0.210602 -0.685972 
0.651855 -0.324573 -0.685374 0.622754 -0.18588 -0.760017 0.206319 -0.143913 -0.967844 
-0.0190601 -0.0571219 -0.998185 -0.108355 0.0294537 -0.993676 -0.0726395 0.141956 -0.987204 
-0.0281789 0.0884277 -0.995684 -0.133381 -0.0817598 -0.987687 -0.0531975 0.017323 -0.998434 
0.0317196 -0.128237 -0.991236 -0.0413826 0.0352291 -0.998522 -0.0456362 0.086646 -0.995193 
-0.124777 0.0312119 -0.991694 -0.27961 -0.00960962 -0.960066 -0.272504 -0.0968055 -0.957272 
-0.255177 -0.00763725 -0.966864 0.596967 -0.38113 -0.705953 0.46849 -0.511529 -0.720316 
0.327239 -0.292272 -0.898605 0.0911749 -0.170717 -0.981093 -0.0213202 -0.0842002 -0.996221 
-0.0536374 -0.012359 -0.998484 -0.0935304 -0.0618339 -0.993694 -0.129038 -0.0926856 -0.987299 
-0.0636376 -0.0252088 -0.997655 0.0228826 -0.0892535 -0.995746 0.0208752 -0.0897951 -0.995741 
-0.0590255 -0.0780383 -0.995201 -0.269924 -0.192013 -0.943542 -0.219748 -0.372585 -0.901605 
-0.175687 -0.12567 -0.976392 0.461561 -0.515359 -0.722057 0.27646 -0.55018 -0.787954 
0.205772 -0.408033 -0.889476 0.114353 -0.592869 -0.797138 0.0558995 -0.295788 -0.953617 
-0.0213759 -0.577952 -0.815791 -0.0468884 -0.264926 -0.963128 -0.0676087 -0.520645 -0.851092 
-0.104157 -0.265432 -0.958487 -0.0749064 -0.45765 -0.885972 -0.0878538 -0.249555 -0.964367 
-0.0541893 -0.397593 -0.91596 -0.0479305 -0.220788 -0.974143 -0.0527179 -0.398712 -0.91556 
-0.0347081 -0.25184 -0.967146 -0.0608518 -0.395312 -0.916529 -0.043125 -0.315923 -0.947804 
-0.191571 -0.397257 -0.89749 -0.0890812 -0.419578 -0.903338 -0.0788603 -0.37077 -0.925371 

