# vtk DataFile Version 4.2
vtk output
ASCII
DATASET POLYDATA
POINTS 520 float
-22.7741 -42.6806 -13.7294 -14.6615 -42.6806 -14.9365 -6.54882 -42.6806 -14.704 
1.56382 -42.6806 -13.941 9.67646 -42.6806 -12.7816 -38.9994 -34.5679 -13.2838 
-30.8867 -34.5679 -16.4936 -22.7741 -34.5679 -17.6318 -14.6615 -34.5679 -18.0543 
-6.54882 -34.5679 -17.8958 1.56382 -34.5679 -16.9767 9.67646 -34.5679 -16.6367 
17.7891 -34.5679 -16.4868 25.9017 -34.5679 -15.4823 34.0144 -34.5679 -13.9235 
-47.112 -26.4553 -13.8036 -38.9994 -26.4553 -17.9396 -30.8867 -26.4553 -18.8342 
-22.7741 -26.4553 -19.944 -14.6615 -26.4553 -19.2475 -6.54882 -26.4553 -18.8613 
1.56382 -26.4553 -18.297 9.67646 -26.4553 -18.448 17.7891 -26.4553 -18.408 
25.9017 -26.4553 -18.0643 34.0144 -26.4553 -17.4075 42.127 -26.4553 -15.6755 
-47.112 -18.3427 -17.4745 -38.9994 -18.3427 -19.5062 -30.8867 -18.3427 -20.0279 
-22.7741 -18.3427 -19.7463 -14.6615 -18.3427 -18.9059 -6.54882 -18.3427 -18.9336 
1.56382 -18.3427 -18.6269 9.67646 -18.3427 -18.7391 17.7891 -18.3427 -18.6945 
25.9017 -18.3427 -18.4022 34.0144 -18.3427 -18.1127 42.127 -18.3427 -17.5205 
50.2397 -18.3427 -16.3969 58.3523 -18.3427 -12.9978 -55.2247 -10.23 -13.6755 
-47.112 -10.23 -18.7322 -38.9994 -10.23 -20.3502 -30.8867 -10.23 -20.4135 
-22.7741 -10.23 -19.3756 -14.6615 -10.23 -18.2104 -6.54882 -10.23 -19.5662 
1.56382 -10.23 -18.3944 9.67646 -10.23 -18.2773 17.7891 -10.23 -17.1216 
25.9017 -10.23 -17.8839 34.0144 -10.23 -18.5103 42.127 -10.23 -19.0194 
50.2397 -10.23 -17.3318 58.3523 -10.23 -13.0865 -55.2247 -2.11737 -14.4421 
-47.112 -2.11737 -18.3549 -38.9994 -2.11737 -19.8943 -30.8867 -2.11737 -19.9958 
-22.7741 -2.11737 -19.1821 -14.6615 -2.11737 -18.915 -6.54882 -2.11737 -19.867 
1.56382 -2.11737 -16.4265 9.67646 -2.11737 -19.5025 17.7891 -2.11737 -15.4953 
25.9017 -2.11737 -17.5259 34.0144 -2.11737 -18.6322 42.127 -2.11737 -18.9789 
50.2397 -2.11737 -17.8391 58.3523 -2.11737 -14.3916 -47.112 5.99526 -16.6767 
-38.9994 5.99526 -18.5136 -30.8867 5.99526 -18.8877 -22.7741 5.99526 -18.4543 
-14.6615 5.99526 -18.9941 -6.54882 5.99526 -19.2876 1.56382 5.99526 -17.9036 
9.67646 5.99526 -17.9848 17.7891 5.99526 -16.2348 25.9017 5.99526 -18.3281 
34.0144 5.99526 -19.3944 42.127 5.99526 -19.5984 50.2397 5.99526 -18.4959 
58.3523 5.99526 -14.8188 -47.112 14.1079 -15.3045 -38.9994 14.1079 -17.7358 
-30.8867 14.1079 -18.0897 -22.7741 14.1079 -18.1166 -14.6615 14.1079 -18.3566 
-6.54882 14.1079 -18.895 1.56382 14.1079 -17.5907 9.67646 14.1079 -16.1545 
17.7891 14.1079 -17.3998 25.9017 14.1079 -19.0449 34.0144 14.1079 -20.3757 
42.127 14.1079 -19.4981 50.2397 14.1079 -17.2805 -47.112 22.2205 -12.7042 
-38.9994 22.2205 -15.4745 -30.8867 22.2205 -16.9288 -22.7741 22.2205 -17.5572 
-14.6615 22.2205 -17.7062 -6.54882 22.2205 -17.6847 1.56382 22.2205 -17.4204 
9.67646 22.2205 -16.9384 17.7891 22.2205 -17.7627 25.9017 22.2205 -19.1536 
34.0144 22.2205 -18.9137 42.127 22.2205 -18.3529 50.2397 22.2205 -14.7641 
-38.9994 30.3332 -13.7637 -30.8867 30.3332 -15.3266 -22.7741 30.3332 -16.4491 
-14.6615 30.3332 -16.5028 -6.54882 30.3332 -16.6688 1.56382 30.3332 -16.6627 
9.67646 30.3332 -16.9271 17.7891 30.3332 -16.8942 25.9017 30.3332 -17.211 
34.0144 30.3332 -16.3385 42.127 30.3332 -13.8507 -22.7741 38.4458 -14.1465 
-14.6615 38.4458 -14.1474 -6.54882 38.4458 -14.1464 1.56382 38.4458 -14.1668 
9.67646 38.4458 -14.2546 17.7891 38.4458 -14.3498 25.9017 38.4458 -13.0988 
-22.7741 -43.9871 -12.6525 -14.6615 -45.6956 -12.6525 -6.54882 -45.4071 -12.6525 
1.56382 -44.2507 -12.6525 9.67646 -42.8547 -12.6525 -38.9994 -35.4426 -12.6525 
-25.8504 -42.6806 -12.6525 -30.8867 -40.1434 -12.6525 -30.8867 -42.6806 -9.89937 
10.5174 -42.6806 -12.6525 17.7891 -40.9501 -12.6525 17.7891 -42.6806 -11.0536 
25.9017 -38.7073 -12.6525 25.9017 -42.6806 -8.55275 34.0144 -36.6399 -12.6525 
34.0144 -42.6806 -5.05443 -40.1268 -34.5679 -12.6525 -47.112 -28.294 -12.6525 
37.3221 -34.5679 -12.6525 42.127 -31.7126 -12.6525 42.127 -34.5679 -10.0287 
-48.677 -26.4553 -12.6525 48.7255 -26.4553 -12.6525 50.2397 -24.8128 -12.6525 
50.2397 -26.4553 -11.5842 58.3523 -18.9479 -12.6525 -54.0123 -18.3427 -12.6525 
-55.2247 -14.1411 -12.6525 -55.2247 -18.3427 -11.204 58.7414 -18.3427 -12.6525 
-56.3254 -10.23 -12.6525 58.8913 -10.23 -12.6525 -57.1544 -2.11737 -12.6525 
-55.2247 5.1659 -12.6525 60.3505 -2.11737 -12.6525 -54.91 5.99526 -12.6525 
-55.2247 5.99526 -12.4501 60.6226 5.99526 -12.6525 58.3523 12.3598 -12.6525 
-53.7008 14.1079 -12.6525 -55.2247 14.1079 -11.4828 57.5458 14.1079 -12.6525 
58.3523 14.1079 -11.4135 -47.1957 22.2205 -12.6525 -55.2247 22.2205 -6.46138 
-47.112 22.4131 -12.6525 52.6107 22.2205 -12.6525 50.2397 24.8851 -12.6525 
-41.7643 30.3332 -12.6525 -47.112 30.3332 -9.87225 -38.9994 32.8346 -12.6525 
-30.8867 37.4569 -12.6525 34.0144 35.6732 -12.6525 44.0751 30.3332 -12.6525 
42.127 31.7237 -12.6525 -38.9994 38.4458 -9.70923 -29.3809 38.4458 -12.6525 
-30.8867 38.4458 -12.2285 -22.7741 41.6669 -12.6525 -14.6615 40.9643 -12.6525 
-6.54882 40.9683 -12.6525 1.56382 41.0659 -12.6525 9.67646 40.9114 -12.6525 
17.7891 40.8266 -12.6525 27.4387 38.4458 -12.6525 25.9017 39.0594 -12.6525 
34.0144 38.4458 -9.47759 -30.8867 46.5585 -5.6752 -22.7741 46.5585 -8.3995 
-14.6615 46.5585 -8.43467 -6.54882 46.5585 -8.58371 1.56382 46.5585 -8.39578 
9.67646 46.5585 -7.74017 17.7891 46.5585 -6.80569 -30.8867 -46.0403 -4.53981 
-22.7741 -48.9308 -4.53981 -14.6615 -50.4814 -4.53981 -6.54882 -50.6746 -4.53981 
1.56382 -50.289 -4.53981 9.67646 -48.9631 -4.53981 17.7891 -47.2881 -4.53981 
25.9017 -45.2615 -4.53981 34.0144 -42.9118 -4.53981 -36.6752 -42.6806 -4.53981 
-38.9994 -41.1508 -4.53981 34.4983 -42.6806 -4.53981 34.0144 -42.6806 -1.06978 
42.127 -38.5757 -4.53981 -46.9992 -34.5679 -4.53981 -47.112 -34.4637 -4.53981 
48.4565 -34.5679 -4.53981 50.2397 -33.1514 -4.53981 -54.2025 -26.4553 -4.53981 
-55.2247 -25.0294 -4.53981 57.1536 -26.4553 -4.53981 58.3523 -25.1093 -4.53981 
-59.2222 -18.3427 -4.53981 62.6374 -18.3427 -4.53981 -62.142 -10.23 -4.53981 
65.0516 -10.23 -4.53981 -63.3164 -2.11737 -4.53981 -63.3373 -2.11737 -4.30743 
65.4696 -2.11737 -4.53981 -62.2807 5.99526 -4.53981 64.8172 5.99526 -4.53981 
-59.9185 14.1079 -4.53981 61.3389 14.1079 -4.53981 58.3523 19.1801 -4.53981 
-56.5163 22.2205 -4.53981 -55.2247 24.2447 -4.53981 56.2858 22.2205 -4.53981 
50.2397 28.85 -4.53981 -50.9104 30.3332 -4.53981 -47.112 34.7929 -4.53981 
48.6818 30.3332 -4.53981 42.127 35.8946 -4.53981 -43.5797 38.4458 -4.53981 
-38.9994 42.3368 -4.53981 25.9017 45.5041 -4.53981 38.5196 38.4458 -4.53981 
34.0144 41.4654 -4.53981 -32.1688 46.5585 -4.53981 -30.8867 47.2604 -4.53981 
-22.7741 49.0314 -4.53981 -14.6615 49.8705 -4.53981 -6.54882 49.934 -4.53981 
1.56382 49.7031 -4.53981 9.67646 48.9403 -4.53981 22.9681 46.5585 -4.53981 
17.7891 48.1415 -4.53981 -30.8867 -45.991 3.57282 -22.7741 -48.6917 3.57282 
-14.6615 -50.0773 3.57282 -6.54882 -50.4289 3.57282 1.56382 -49.8564 3.57282 
9.67646 -48.7932 3.57282 17.7891 -47.1527 3.57282 25.9017 -45.2127 3.57282 
-36.6245 -42.6806 3.57282 -38.9994 -41.2018 3.57282 -30.8867 -42.6806 9.39958 
9.67646 -42.6806 10.9477 17.7891 -42.6806 9.44265 33.0827 -42.6806 3.57282 
25.9017 -42.6806 7.81875 34.0144 -42.2786 3.57282 42.127 -38.2104 3.57282 
-47.0672 -34.5679 3.57282 -47.112 -34.5261 3.57282 34.0144 -34.5679 11.3892 
47.5409 -34.5679 3.57282 42.127 -34.5679 9.10571 50.2397 -32.0009 3.57282 
-54.2995 -26.4553 3.57282 -55.2247 -25.1672 3.57282 55.9272 -26.4553 3.57282 
50.2397 -26.4553 10.6712 58.3523 -23.8159 3.57282 -59.445 -18.3427 3.57282 
61.8249 -18.3427 3.57282 58.3523 -18.3427 8.68372 -62.7091 -10.23 3.57282 
-63.3373 -6.11673 3.57282 64.3193 -10.23 3.57282 -63.9481 -2.11737 3.57282 
-63.3373 3.68579 3.57282 -63.3373 -2.11737 4.99049 64.7335 -2.11737 3.57282 
-63.0784 5.99526 3.57282 63.8951 5.99526 3.57282 -60.7851 14.1079 3.57282 
60.3739 14.1079 3.57282 58.3523 17.4483 3.57282 58.3523 14.1079 7.17049 
-56.8621 22.2205 3.57282 -55.2247 24.5566 3.57282 -55.2247 22.2205 6.42439 
55.0015 22.2205 3.57282 50.2397 27.7044 3.57282 50.2397 22.2205 10.4804 
-50.6548 30.3332 3.57282 -47.112 34.3129 3.57282 -47.112 30.3332 8.27594 
47.576 30.3332 3.57282 42.127 35.3519 3.57282 42.127 30.3332 10.1819 
-42.9429 38.4458 3.57282 -38.9994 41.9994 3.57282 -38.9994 38.4458 7.87061 
-30.8867 38.4458 11.4292 25.9017 46.3817 3.57282 38.2481 38.4458 3.57282 
34.0144 41.6605 3.57282 34.0144 38.4458 8.50427 -31.9807 46.5585 3.57282 
-30.8867 47.1968 3.57282 -30.8867 46.5585 4.56199 -22.7741 50.2874 3.57282 
-22.7741 46.5585 10.385 -14.6615 51.6729 3.57282 -14.6615 46.5585 11.4896 
-6.54882 52.0657 3.57282 1.56382 51.7409 3.57282 9.67646 51.0401 3.57282 
25.4731 46.5585 3.57282 17.7891 49.5554 3.57282 17.7891 46.5585 10.4708 
-22.7741 -43.564 11.6855 -14.6615 -44.4405 11.6855 -6.54882 -44.0663 11.6855 
1.56382 -43.1848 11.6855 -38.9994 -36.0519 11.6855 -25.731 -42.6806 11.6855 
-30.8867 -40.9851 11.6855 -22.7741 -42.6806 12.4707 -14.6615 -42.6806 13.1344 
-6.54882 -42.6806 12.6821 4.5807 -42.6806 11.6855 1.56382 -42.6806 12.0228 
9.67646 -41.4738 11.6855 17.7891 -39.5737 11.6855 25.9017 -38.5828 11.6855 
-40.9929 -34.5679 11.6855 -47.112 -28.7341 11.6855 -38.9994 -34.5679 13.0054 
-30.8867 -34.5679 16.3216 -22.7741 -34.5679 17.2069 -14.6615 -34.5679 16.9269 
-6.54882 -34.5679 15.7677 1.56382 -34.5679 15.0157 9.67646 -34.5679 14.7298 
17.7891 -34.5679 14.395 33.2387 -34.5679 11.6855 25.9017 -34.5679 13.7996 
34.0144 -34.0374 11.6855 42.127 -30.3227 11.6855 -48.9985 -26.4553 11.6855 
-55.2247 -18.8478 11.6855 -47.112 -26.4553 13.21 -38.9994 -26.4553 16.9502 
-30.8867 -26.4553 18.5148 -22.7741 -26.4553 19.5468 -14.6615 -26.4553 18.4334 
-6.54882 -26.4553 17.0435 1.56382 -26.4553 15.7166 9.67646 -26.4553 15.8319 
17.7891 -26.4553 16.3416 25.9017 -26.4553 16.1019 34.0144 -26.4553 15.0716 
48.0823 -26.4553 11.6855 42.127 -26.4553 13.487 50.2397 -24.306 11.6855 
-55.52 -18.3427 11.6855 -55.2247 -18.3427 11.9777 -47.112 -18.3427 16.4428 
[...]
POINT_DATA 520
SCALARS ImageScalars float
LOOKUP_TABLE default
0 0 0 0 0 0 0 0 0 
0 0 0 0 0 0 0 0 0 
0 0 0 0 0 0 0 0 0 
0 0 0 0 0 0 0 0 0 
0 0 0 0 0 0 0 0 0 
0 0 0 0 0 0 0 0 0 
0 0 0 0 0 0 0 0 0 
0 0 0 0 0 0 0 0 0 
0 0 0 0 0 0 0 0 0 
0 0 0 0 0 0 0 0 0 
0 0 0 0 0 0 0 0 0 
0 0 0 0 0 0 0 0 0 
0 0 0 0 0 0 0 0 0 
0 0 0 0 0 0 0 0 0 
0 0 0 0 0 0 0 0 0 
0 0 0 0 0 0 0 0 0 
0 0 0 0 0 0 0 0 0 
0 0 0 0 0 0 0 0 0 
0 0 0 0 0 0 0 0 0 
0 0 0 0 0 0 0 0 0 
0 0 0 0 0 0 0 0 0 
0 0 0 0 0 0 0 0 0 
0 0 0 0 0 0 0 0 0 
0 0 0 0 0 0 0 0 0 
0 0 0 0 0 0 0 0 0 
0 0 0 0 0 0 0 0 0 
0 0 0 0 0 0 0 0 0 
0 0 0 0 0 0 0 0 0 
0 0 0 0 0 0 0 0 0 
0 0 0 0 0 0 0 0 0 
0 0 0 0 0 0 0 0 0 
0 0 0 0 0 0 0 0 0 
0 0 0 0 0 0 0 0 0 
0 0 0 0 0 0 0 0 0 
0 0 0 0 0 0 0 0 0 
0 0 0 0 0 0 0 0 0 
0 0 0 0 0 0 0 0 0 
0 0 0 0 0 0 0 0 0 
0 0 0 0 0 0 0 0 0 
0 0 0 0 0 0 0 0 0 
0 0 0 0 0 0 0 0 0 
0 0 0 0 0 0 0 0 0 
0 0 0 0 0 0 0 0 0 
0 0 0 0 0 0 0 0 0 
0 0 0 0 0 0 0 0 0 
0 0 0 0 0 0 0 0 0 
0 0 0 0 0 0 0 0 0 
0 0 0 0 0 0 0 0 0 
0 0 0 0 0 0 0 0 0 
0 0 0 0 0 0 0 0 0 
0 0 0 0 0 0 0 0 0 
0 0 0 0 0 0 0 0 0 
0 0 0 0 0 0 0 0 0 
0 0 0 0 0 0 0 0 0 
0 0 0 0 0 0 0 0 0 
0 0 0 0 0 0 0 0 0 
0 0 0 0 0 0 0 0 0 
0 0 0 0 0 0 0 
NORMALS Normals float
0.211665 0.606446 0.766434 0.0536768 0.532209 0.84491 -0.0590623 0.519665 0.852326 
-0.107029 0.539665 0.835049 -0.138118 0.5751 0.80634 0.406033 0.559905 0.722249 
0.243021 0.410511 0.878875 0.0822284 0.330309 0.940284 0.0172891 0.252064 0.967556 
-0.0638915 0.241018 0.968415 -0.0754407 0.262244 0.962048 -0.0284527 0.324468 0.945469 
-0.0619821 0.376861 0.924194 -0.148797 0.424827 0.892962 -0.249735 0.483256 0.839104 
0.519152 0.465577 0.716742 0.257427 0.333125 0.907061 0.114734 0.198938 0.973273 
0.0225116 0.127101 0.991634 -0.0658565 0.0487894 0.996636 -0.0580056 0.0591601 0.996562 
-0.0265257 0.094784 0.995144 0.00710084 0.124647 0.992176 -0.0228064 0.131068 0.991111 
-0.0584719 0.159615 0.985446 -0.148293 0.2387 0.959704 -0.27302 0.332419 0.90275 
0.39692 0.250533 0.883 0.146838 0.131957 0.980319 0.0163359 0.0937675 0.99546 
-0.0692867 -0.0344586 0.997001 -0.049854 -0.0633265 0.996747 -0.017209 0.0414219 0.998994 
-0.0119907 0.0064765 0.999907 0.0041664 -0.0103888 0.999937 -0.0207233 -0.0760117 0.996892 
-0.0357588 -0.0118997 0.99929 -0.0520725 0.0636023 0.996616 -0.0905693 0.210097 0.973476 
-0.294344 0.292986 0.909682 -0.59809 0.291654 0.746476 0.64127 0.134119 0.755503 
0.344204 0.0555741 0.937249 0.0939196 0.0278455 0.99519 -0.0598627 -0.00194285 0.998205 
-0.135787 -0.0340521 0.990153 0.00722735 -0.00185476 0.999972 0.0119051 0.0554324 0.998391 
-0.0759414 -0.115152 0.990441 -0.0767623 0.0179215 0.996888 -0.0237491 -0.201118 0.979279 
0.0835764 -0.051871 0.99515 0.0681564 0.0317586 0.997169 -0.0811825 0.0834953 0.993196 
-0.293205 0.0699606 0.953486 -0.622616 0.0702766 0.779365 0.595299 -0.0623624 0.801081 
0.282703 -0.121095 0.951533 0.0921334 -0.11189 0.98944 -0.0407327 -0.0910139 0.995016 
-0.0675467 -0.0583024 0.996011 0.032513 0.0507562 0.998182 -0.133583 -0.0167019 0.990897 
-0.0600607 -0.0467395 0.9971 -0.117169 0.0124263 0.993034 -0.0382778 -0.0534477 0.997837 
0.197896 0.0238262 0.979934 0.0858836 0.0556986 0.994747 -0.0456412 0.0357193 0.998319 
-0.235084 0.071898 0.969312 -0.585899 0.0929492 0.805036 0.313071 -0.181738 0.932179 
0.126001 -0.127807 0.983763 -0.00418332 -0.118382 0.992959 0.00745691 -0.0627773 0.998 
0.0514863 -0.0357414 0.998034 -0.0626978 -0.0567092 0.99642 -0.0823936 0.062295 0.994651 
-0.125665 -0.207884 0.970048 0.0442212 0.119422 0.991858 0.198256 0.0916078 0.97586 
0.0724611 0.105909 0.991732 -0.049235 0.0313573 0.998295 -0.270662 -0.0358438 0.962007 
-0.624532 -0.116884 0.772203 0.332319 -0.200447 0.921621 0.172985 -0.174505 0.969342 
0.0217551 -0.118125 0.99276 0.0163637 -0.0568397 0.998249 0.04772 -0.0790422 0.995728 
-0.0469452 -0.0967645 0.9942 -0.171082 -0.0280295 0.984858 -0.0114136 -0.0301394 0.999481 
0.176809 0.0924174 0.979897 0.178242 0.0461007 0.982906 0.0233939 -0.0278671 0.999338 
-0.176545 -0.0647655 0.98216 -0.398913 -0.17994 0.899161 0.431984 -0.292967 0.852971 
0.220718 -0.210637 0.952321 0.121055 -0.159117 0.97981 0.0459758 -0.103641 0.993552 
0.0082133 -0.110898 0.993798 -0.0175575 -0.134147 0.990806 -0.0461143 -0.0572287 0.997295 
0.0201222 0.0475756 0.998665 0.134204 -0.0294259 0.990517 0.0689253 -0.113417 0.991154 
-0.0445487 -0.226616 0.972965 -0.20482 -0.324543 0.923429 -0.548812 -0.461572 0.696963 
0.284498 -0.308722 0.907608 0.146975 -0.249346 0.957196 0.0654825 -0.209249 0.975667 
0.0134615 -0.208179 0.977998 0.00953894 -0.202351 0.979267 0.0151441 -0.184406 0.982734 
0.014808 -0.147955 0.988883 0.0179767 -0.200795 0.979468 -0.027423 -0.329777 0.943661 
-0.19204 -0.433311 0.880546 -0.390767 -0.605391 0.6934 0.0941538 -0.383913 0.918556 
-1.73372e-06 -0.407377 0.91326 0.00109168 -0.406398 0.913695 0.00587299 -0.40647 0.913645 
0.0106658 -0.439835 0.898015 -0.0636818 -0.474659 0.877863 -0.197249 -0.585949 0.785975 
0.228695 0.658438 0.717048 0.0658057 0.673432 0.736314 -0.0704863 0.654819 0.752492 
-0.106939 0.612491 0.783211 -0.13818 0.582219 0.801203 0.420318 0.585082 0.69355 
0.269784 0.650133 0.710312 0.324598 0.625017 0.709923 0.379514 0.760644 0.526678 
-0.140488 0.584568 0.799089 -0.140292 0.60266 0.785569 -0.169157 0.710071 0.683509 
-0.159975 0.598079 0.785309 -0.209771 0.840192 0.500073 -0.269537 0.562396 0.781704 
-0.367459 0.903109 0.222188 0.437106 0.577664 0.689379 0.543332 0.516797 0.661597 
-0.306381 0.552212 0.775366 -0.343832 0.541528 0.767155 -0.408986 0.704131 0.580457 
0.565138 0.486721 0.666124 -0.449156 0.455092 0.768863 -0.448142 0.460198 0.766412 
-0.515858 0.507353 0.690278 -0.603779 0.313254 0.733023 0.681938 0.286231 0.673076 
0.685634 0.21067 0.696795 0.745954 0.31722 0.585597 -0.619458 0.294018 0.727891 
0.675221 0.140145 0.72418 -0.644011 0.0718206 0.761638 0.668942 -0.0526359 0.741448 
0.592045 -0.120673 0.796819 -0.644787 0.0773379 0.76044 0.579305 -0.12841 0.804933 
0.594733 -0.129764 0.793382 -0.719234 -0.14057 0.680399 -0.721482 -0.300654 0.623756 
0.561509 -0.231906 0.794309 0.645125 -0.246691 0.723158 -0.709747 -0.336014 0.619155 
-0.764991 -0.367829 0.528668 0.434468 -0.294734 0.851099 0.772045 -0.458896 0.439729 
0.434516 -0.296266 0.850542 -0.632848 -0.517875 0.575595 -0.596186 -0.569457 0.565933 
0.371855 -0.349861 0.859838 0.602383 -0.48151 0.636618 0.31999 -0.38393 0.866143 
0.223245 -0.421839 0.878757 -0.302049 -0.650918 0.696471 -0.45848 -0.643268 0.613191 
-0.42015 -0.658308 0.624583 0.464839 -0.612827 0.639036 0.20429 -0.434814 0.877042 
0.234354 -0.460458 0.856188 0.092322 -0.507174 0.856885 -0.020641 -0.489157 0.871951 
0.00338564 -0.493216 0.869901 -0.00220138 -0.501062 0.865408 -0.00883316 -0.531113 0.847255 
-0.0737062 -0.564833 0.821907 -0.229575 -0.618184 0.751761 -0.20886 -0.605107 0.76826 
-0.400811 -0.780162 0.480309 0.368487 -0.850545 0.375221 0.111255 -0.791146 0.601423 
0.00852234 -0.743339 0.66886 -0.00127377 -0.739063 0.673635 -0.0372236 -0.758537 0.650566 
-0.0690567 -0.798524 0.597988 -0.162248 -0.845209 0.509213 0.419813 0.876614 0.235171 
0.250555 0.945895 0.206167 0.0998876 0.977748 0.184478 -0.0102397 0.978509 0.20595 
-0.0959667 0.959573 0.264595 -0.172117 0.951798 0.253882 -0.213223 0.940266 0.265397 
-0.261091 0.928273 0.26484 -0.370639 0.908812 0.19154 0.524744 0.824994 0.209831 
0.563847 0.799971 0.205239 -0.377155 0.906295 0.190744 -0.396845 0.917562 -0.024366 
-0.473702 0.847968 0.237815 0.664785 0.721607 0.193248 0.666461 0.720104 0.193081 
-0.583675 0.78389 0.211754 -0.622289 0.757109 0.198855 0.771744 0.600548 0.209173 
0.795068 0.567834 0.213147 -0.742566 0.641325 0.193126 -0.773534 0.6076 0.180186 
0.886066 0.394844 0.242869 -0.89696 0.405842 0.175371 0.932793 0.228582 0.278652 
-0.959786 0.180697 0.214846 0.95148 0.0140719 0.307387 0.955744 0.0145217 0.29384 
-0.985309 -0.0134359 0.170255 0.922615 -0.177439 0.342486 -0.95337 -0.251943 0.166162 
0.876361 -0.341305 0.339857 -0.894819 -0.429494 0.121796 -0.835318 -0.541732 0.093648 
0.825724 -0.462763 0.322537 0.811808 -0.494759 0.310131 -0.787327 -0.611033 0.0821859 
-0.695776 -0.712813 0.0882774 0.767813 -0.584175 0.263064 0.717506 -0.649705 0.251134 
-0.6708 -0.735617 0.0943091 -0.588916 -0.794014 0.150731 0.653457 -0.712303 0.256159 
0.558585 -0.783109 0.273355 -0.373235 -0.872289 0.315923 -0.539844 -0.818889 0.194909 
-0.479709 -0.841104 0.249847 0.399821 -0.867634 0.295558 0.36822 -0.879443 0.301653 
0.16863 -0.904999 0.390564 0.0512274 -0.878006 0.475901 -0.00899197 -0.875641 0.482879 
-0.0583175 -0.873653 0.483043 -0.090249 -0.883915 0.458857 -0.308936 -0.886141 0.345417 
-0.185871 -0.896146 0.402956 0.408395 0.884653 -0.224949 0.227865 0.941053 -0.249994 
0.0999625 0.958436 -0.267222 -0.0119612 0.960848 -0.276819 -0.0928821 0.950563 -0.296316 
-0.157497 0.94341 -0.291844 -0.212751 0.929137 -0.302393 -0.285116 0.918923 -0.272562 
0.51249 0.83526 -0.199237 0.553927 0.810466 -0.190551 0.34323 0.779429 -0.524102 
-0.121521 0.575087 -0.809016 -0.137606 0.716855 -0.683508 -0.388818 0.868585 -0.307214 
-0.245121 0.808864 -0.534467 -0.400729 0.859662 -0.316855 -0.473182 0.829589 -0.296449 
0.669797 0.723449 -0.167313 0.670463 0.722826 -0.167336 -0.247923 0.534998 -0.807658 
-0.585421 0.745077 -0.319596 -0.402101 0.650089 -0.644747 -0.634838 0.701239 -0.324416 
0.773131 0.605712 -0.188099 0.792214 0.58225 -0.182707 -0.699552 0.631218 -0.334948 
-0.49714 0.495453 -0.712305 -0.744785 0.57029 -0.346504 0.885181 0.428636 -0.180903 
-0.844757 0.414763 -0.338168 -0.667681 0.413683 -0.618925 0.952502 0.252439 -0.170337 
0.975494 0.139185 -0.17041 -0.929426 0.17185 -0.326551 0.984413 0.0242029 -0.174201 
0.976266 -0.123693 -0.177777 0.965828 0.0211559 -0.258318 -0.953527 -0.0214496 -0.300543 
0.966578 -0.182545 -0.180012 -0.910628 -0.258731 -0.322204 0.909826 -0.367593 -0.192592 
-0.852138 -0.4362 -0.28912 -0.810956 -0.508722 -0.289055 -0.784853 -0.430405 -0.445822 
0.805223 -0.54275 -0.238826 0.78108 -0.571134 -0.252427 0.717821 -0.557277 -0.417343 
-0.74301 -0.6015 -0.293487 -0.688773 -0.670048 -0.276817 -0.616076 -0.517473 -0.593862 
0.736325 -0.605478 -0.302029 0.689313 -0.652611 -0.314559 0.58505 -0.528515 -0.615133 
-0.666158 -0.693026 -0.275587 -0.628782 -0.7363 -0.249989 -0.552433 -0.597827 -0.580879 
0.644203 -0.688495 -0.333131 0.584205 -0.744962 -0.322081 0.524137 -0.587872 -0.616188 
0.374621 -0.426814 -0.823097 -0.410668 -0.903293 -0.124151 -0.604397 -0.763377 -0.227947 
-0.570012 -0.796619 -0.201208 -0.54349 -0.685695 -0.484192 0.478955 -0.826344 -0.29624 
0.462081 -0.836523 -0.294466 0.467083 -0.808334 -0.358371 0.267347 -0.946408 -0.18121 
0.255167 -0.715625 -0.650208 0.109958 -0.983662 -0.142539 0.104782 -0.671899 -0.733193 
0.00423269 -0.996948 -0.0779523 -0.0635325 -0.995113 -0.0755907 -0.130919 -0.989993 -0.0526637 
-0.40117 -0.907819 -0.122177 -0.265132 -0.95953 -0.094908 -0.262655 -0.816926 -0.513462 
0.149643 0.688678 -0.709457 0.0255415 0.651953 -0.757829 -0.0524862 0.574729 -0.816659 
-0.088502 0.530727 -0.842909 0.46906 0.611492 -0.637228 0.20357 0.694513 -0.69008 
0.300115 0.688369 -0.660363 0.139989 0.657783 -0.740085 0.00882691 0.584803 -0.811127 
-0.0640081 0.513424 -0.855745 -0.0989721 0.524569 -0.845595 -0.0892183 0.508951 -0.856159 
-0.108095 0.506221 -0.855603 -0.0897937 0.532991 -0.841343 -0.183395 0.547279 -0.81661 
0.498554 0.594043 -0.631314 0.558544 0.527531 -0.64011 0.444924 0.560347 -0.698609 
0.20254 0.427995 -0.880794 0.0326015 0.369975 -0.928469 -0.0859125 0.288192 -0.953711 
-0.117905 0.251143 -0.960742 -0.061374 0.214985 -0.974687 -0.0365799 0.267744 -0.962795 
-0.0577218 0.339418 -0.938863 -0.234629 0.513125 -0.825622 -0.146056 0.388693 -0.909718 
-0.238844 0.513217 -0.824355 -0.302398 0.474335 -0.826778 0.575106 0.501196 -0.646572 
0.686597 0.352401 -0.635923 0.521741 0.457124 -0.720294 0.27954 0.277429 -0.919179 
0.142932 0.181466 -0.972955 -0.000838762 0.123577 -0.992335 -0.150146 0.108209 -0.982724 
-0.165098 0.0894227 -0.982215 -0.0736049 0.044509 -0.996294 0.037287 0.0939998 -0.994874 
0.0163558 0.154948 -0.987787 -0.0718822 0.218639 -0.973155 -0.143171 0.314181 -0.938505 
-0.41806 0.447337 -0.790642 -0.247819 0.366866 -0.896658 -0.452032 0.4271 -0.783104 
0.693392 0.341118 -0.634702 0.679928 0.340187 -0.649593 0.356246 0.213662 -0.909636 
0.183496 0.109838 -0.976865 0.0568682 0.0332034 -0.997829 -0.0496438 -0.0784805 -0.995679 
-0.118984 -0.0229726 -0.99263 -0.188506 0.150288 -0.970505 -0.0579943 0.111757 -0.992042 
0.0837121 0.117393 -0.989551 0.0717422 0.0530647 -0.996011 0.00825449 0.112918 -0.99357 
-0.0877194 0.196164 -0.97664 -0.199364 0.250309 -0.947417 -0.481031 0.338579 -0.808686 
-0.377582 0.296522 -0.877215 -0.607357 0.211834 -0.765666 0.686047 0.174214 -0.706392 
0.572149 0.1591 -0.80457 0.24818 0.107232 -0.962761 0.0726498 0.0426213 -0.996446 
-0.0425758 -0.0380899 -0.998367 -0.0587698 -0.0765078 -0.995335 0.0824706 0.00224408 -0.996591 
-0.011213 0.147929 -0.988934 -0.111475 0.0927893 -0.989426 -0.0345194 0.166407 -0.985453 
0.00573236 -0.0117481 -0.999915 0.0814072 0.054523 -0.995188 0.018093 0.132834 -0.990973 
-0.162512 0.173502 -0.971332 -0.352191 0.178317 -0.918784 -0.618011 0.190083 -0.762844 
-0.605273 0.190357 -0.772922 0.698645 -0.00682214 -0.715436 0.538746 -0.0246191 -0.842108 
0.209358 -0.0298338 -0.977384 0.0448294 -0.0263015 -0.998648 -0.0640882 -0.0207309 -0.997729 
-0.00906907 0.0123684 -0.999882 0.0995908 0.103831 -0.989596 -0.104666 -0.0518701 -0.993154 
-0.0303864 -0.00841015 -0.999503 -0.0371805 -0.100712 -0.994221 -0.0230173 -0.0596433 -0.997954 
0.150778 0.035029 -0.987947 0.0328202 0.0555551 -0.997916 -0.135905 0.061403 -0.988817 
-0.337914 0.0761292 -0.938093 -0.697705 0.0149349 -0.716229 -0.622998 0.0261591 -0.781786 
0.654809 -0.132171 -0.744147 0.555557 -0.136965 -0.82012 0.247223 -0.165687 -0.954688 
0.0834508 -0.0785708 -0.99341 -0.00392531 -0.0730565 -0.99732 0.057923 -0.00328051 -0.998316 
0.0327666 -0.00713098 -0.999438 -0.124461 -0.0288009 -0.991806 -0.177401 0.0816754 -0.980744 
-0.0862982 -0.192455 -0.977504 0.169547 -0.0234019 -0.985244 0.199236 -0.00561786 -0.979935 
0.0436821 -0.00628693 -0.999026 -0.136888 -0.0235446 -0.990307 -0.387009 -0.100363 -0.916598 
-0.710177 -0.215891 -0.670105 -0.698424 -0.253756 -0.669187 -0.68356 -0.211322 -0.698634 
0.625073 -0.280645 -0.72837 0.589096 -0.33169 -0.73685 0.577099 -0.275699 -0.768731 
0.301666 -0.272577 -0.913619 0.139544 -0.215198 -0.966549 0.0143104 -0.149442 -0.988667 
0.0672256 -0.0746932 -0.994938 0.0684383 -0.0902068 -0.993569 -0.0259259 -0.00300188 -0.999659 
-0.204408 0.0627916 -0.97687 -0.105878 0.134463 -0.985246 0.141324 0.0706002 -0.987443 
0.162779 -0.033441 -0.986096 0.012432 -0.139759 -0.990107 -0.219483 -0.195927 -0.955741 
-0.624559 -0.378392 -0.683188 -0.583634 -0.471686 -0.660972 -0.48463 -0.311917 -0.817216 
0.382313 -0.395259 -0.835229 0.381239 -0.394114 -0.83626 0.378235 -0.392351 -0.83845 
0.235753 -0.316502 -0.918829 0.142077 -0.199709 -0.9695 0.113926 -0.111197 -0.987247 
0.0992158 -0.0677853 -0.992754 0.0367153 -0.0489925 -0.998124 -0.0648604 0.0248098 -0.997586 
-0.0831516 0.151499 -0.984954 0.00510144 0.0796098 -0.996813 -0.00561039 -0.102393 -0.994728 
-0.115613 -0.234927 -0.965113 -0.569958 -0.489363 -0.660054 -0.50735 -0.549421 -0.663877 
-0.326477 -0.384281 -0.863563 0.312826 -0.362601 -0.877873 0.3074 -0.363251 -0.879519 
0.298488 -0.354636 -0.88608 0.362589 -0.407807 -0.837987 0.242186 -0.262981 -0.93391 
0.197514 -0.148696 -0.968957 0.134201 -0.124484 -0.983104 0.0649896 -0.1223 -0.990363 
0.00210092 -0.0852996 -0.996353 -0.059271 -0.0406668 -0.997413 -0.109077 -0.032738 -0.993494 
-0.159051 -0.204583 -0.965841 -0.496308 -0.549741 -0.671911 -0.456419 -0.563189 -0.688839 
-0.299578 -0.386785 -0.872153 0.364015 -0.412694 -0.834971 0.244365 -0.612003 -0.752156 
0.230686 -0.305216 -0.923919 0.10425 -0.653164 -0.750006 0.13017 -0.304036 -0.943726 
0.0776006 -0.304274 -0.949418 0.0177567 -0.30841 -0.951088 -0.0357014 -0.297099 -0.954179 
-0.251031 -0.742787 -0.620686 -0.16895 -0.30015 -0.938811 -0.449596 -0.569894 -0.687811 
-0.380485 -0.618894 -0.687169 -0.34491 -0.447035 -0.825346 0.100881 -0.66081 -0.743743 
0.078973 -0.681195 -0.727831 0.0746644 -0.63685 -0.767364 -0.00647774 -0.736447 -0.676464 
0.00251269 -0.672983 -0.739654 -0.199059 -0.758961 -0.619963 -0.110667 -0.749679 -0.652483 
-0.0942453 -0.703311 -0.704607 
