# vtk DataFile Version 4.2
vtk output
ASCII
DATASET POLYDATA
POINTS 522 float
23.4965 -24.9333 -21.8691 31.3635 -24.9333 -21.9161 -23.7056 -40.6674 -15.4569 
-15.8386 -40.6674 -16.4772 -7.97156 -40.6674 -16.9024 -0.104537 -40.6674 -17.651 
7.76248 -40.6674 -18.0614 15.6295 -40.6674 -17.6792 23.4965 -40.6674 -16.6581 
-39.4396 -32.8004 -14.0245 -31.5726 -32.8004 -17.6204 -23.7056 -32.8004 -18.6995 
-15.8386 -32.8004 -19.7091 -7.97156 -32.8004 -19.2778 -0.104537 -32.8004 -19.5865 
7.76248 -32.8004 -20.1196 15.6295 -32.8004 -20.6941 23.4965 -25.3105 -21.8238 
23.4965 -32.8004 -20.83 31.3635 -25.1911 -21.8238 31.3635 -32.8004 -19.0123 
39.2306 -32.8004 -15.4997 -39.4396 -24.9333 -16.9342 -31.5726 -24.9333 -19.1021 
-23.7056 -24.9333 -19.8608 -15.8386 -24.9333 -20.3186 -7.97156 -24.9333 -19.6046 
-0.104537 -24.9333 -19.6463 7.76248 -24.9333 -20.3991 22.9535 -24.9333 -21.8238 
15.6295 -24.9333 -21.2195 23.4965 -24.034 -21.8238 31.6142 -24.9333 -21.8238 
31.3635 -23.0485 -21.8238 39.2306 -24.9333 -18.9914 -47.3066 -17.0663 -14.9628 
-39.4396 -17.0663 -18.4758 -31.5726 -17.0663 -20.2946 -23.7056 -17.0663 -20.2833 
-15.8386 -17.0663 -19.5891 -7.97156 -17.0663 -19.0694 -0.104537 -17.0663 -18.4356 
7.76248 -17.0663 -19.4055 15.6295 -17.0663 -20.5276 23.4965 -17.0663 -21.4768 
31.3635 -17.0663 -21.5554 39.2306 -17.0663 -20.3952 47.0976 -17.0663 -17.2056 
-47.3066 -9.19931 -16.8063 -39.4396 -9.19931 -18.9679 -31.5726 -9.19931 -19.7646 
-23.7056 -9.19931 -19.2983 -15.8386 -9.19931 -18.6383 -7.97156 -9.19931 -19.68 
-0.104537 -9.19931 -19.6034 7.76248 -9.19931 -19.4669 15.6295 -9.19931 -19.5316 
23.4965 -9.19931 -20.8509 31.3635 -9.19931 -21.3 39.2306 -9.19931 -20.6463 
47.0976 -9.19931 -17.7404 -47.3066 -1.33229 -16.4135 -39.4396 -1.33229 -19.4236 
-31.5726 -1.33229 -20.0184 -23.7056 -1.33229 -19.3127 -15.8386 -1.33229 -18.187 
-7.97156 -1.33229 -20.312 -0.104537 -1.33229 -18.6153 7.76248 -1.33229 -21.5576 
15.6295 -1.33229 -19.7288 23.4965 -1.33229 -20.1649 31.3635 -1.33229 -20.7691 
39.2306 -1.33229 -20.1927 47.0976 -1.33229 -17.4389 -47.3066 6.53473 -15.5103 
-39.4396 6.53473 -18.9182 -31.5726 6.53473 -19.8456 -23.7056 6.53473 -19.2632 
-15.8386 6.53473 -17.9419 -7.97156 6.53473 -18.2595 -0.104537 6.53473 -17.9438 
7.76248 6.53473 -20.6017 15.6295 6.53473 -19.8759 23.4965 6.53473 -19.8396 
31.3635 6.53473 -20.035 39.2306 6.53473 -19.2201 47.0976 6.53473 -16.4793 
-39.4396 14.4017 -16.9797 -31.5726 14.4017 -19.19 -23.7056 14.4017 -18.884 
-15.8386 14.4017 -17.6364 -7.97156 14.4017 -17.023 -0.104537 14.4017 -19.0163 
7.76248 14.4017 -19.9052 15.6295 14.4017 -19.5452 23.4965 14.4017 -19.3899 
31.3635 14.4017 -18.9772 39.2306 14.4017 -17.5735 47.0976 14.4017 -14.1281 
-31.5726 22.2688 -15.8026 -23.7056 22.2688 -16.7873 -15.8386 22.2688 -15.7806 
-7.97156 22.2688 -14.8625 -0.104537 22.2688 -16.1849 7.76248 22.2688 -17.917 
15.6295 22.2688 -18.5134 23.4965 22.2688 -18.1702 31.3635 22.2688 -17.293 
39.2306 22.2688 -15.0915 7.76248 30.1358 -14.5317 15.6295 30.1358 -15.4333 
23.4965 30.1358 -14.8362 -23.7056 -42.1629 -13.9568 -15.8386 -43.2437 -13.9568 
-7.97156 -44.3853 -13.9568 -0.104537 -45.5534 -13.9568 -0.104537 -48.5344 -6.844 
7.76248 -45.9936 -13.9568 7.76248 -48.5344 -6.6473 15.6295 -44.963 -13.9568 
23.4965 -43.0551 -13.9568 -39.4396 -32.8989 -13.9568 -27.6504 -40.6674 -13.9568 
-31.5726 -38.3331 -13.9568 -31.5726 -40.6674 -10.9982 29.4556 -40.6674 -13.9568 
31.3635 -39.7557 -13.9568 31.3635 -40.6674 -11.519 39.2306 -34.3458 -13.9568 
-39.5327 -32.8004 -13.9568 40.8488 -32.8004 -13.9568 -44.2144 -24.9333 -13.9568 
-47.3066 -19.8705 -13.9568 -47.3066 -24.9333 -10.8406 46.5471 -24.9333 -13.9568 
47.0976 -24.0333 -13.9568 47.0976 -24.9333 -12.8657 -48.4533 -17.0663 -13.9568 
50.2041 -17.0663 -13.9568 -50.5742 -9.19931 -13.9568 51.3373 -9.19931 -13.9568 
54.9646 -9.19931 -7.04878 -50.2178 -1.33229 -13.9568 51.3153 -1.33229 -13.9568 
54.9646 -1.33229 -8.05573 -48.9648 6.53473 -13.9568 -47.3066 9.8295 -13.9568 
50.1231 6.53473 -13.9568 54.9646 6.53473 -6.19895 -44.1986 14.4017 -13.9568 
-47.3066 14.4017 -9.60786 -39.4396 20.0198 -13.9568 47.3018 14.4017 -13.9568 
47.0976 14.7115 -13.9568 -36.234 22.2688 -13.9568 -39.4396 22.2688 -11.7641 
-31.5726 25.5635 -13.9568 -23.7056 27.9056 -13.9568 -15.8386 27.9758 -13.9568 
-7.97156 27.5115 -13.9568 -0.104537 28.7579 -13.9568 31.3635 29.2224 -13.9568 
40.9169 22.2688 -13.9568 39.2306 24.0025 -13.9568 47.0976 22.2688 -6.93174 
-31.5726 30.1358 -10.4632 -23.7056 30.1358 -12.7478 -15.8386 30.1358 -13.2317 
-7.97156 30.1358 -13.4869 3.40647 30.1358 -13.9568 -0.104537 30.1358 -13.5404 
7.76248 31.3261 -13.9568 15.6295 32.4193 -13.9568 28.5578 30.1358 -13.9568 
23.4965 31.392 -13.9568 31.3635 30.1358 -13.3057 39.2306 30.1358 -7.7751 
-23.7056 38.0028 -7.82476 -15.8386 38.0028 -9.91911 -7.97156 38.0028 -10.5235 
-0.104537 38.0028 -10.7969 7.76248 38.0028 -10.4212 15.6295 38.0028 -9.45075 
23.4965 38.0028 -7.5341 -0.104537 -48.7653 -6.08974 7.76248 -48.6761 -6.08974 
-31.5726 -43.0965 -6.08974 -23.7056 -45.4474 -6.08974 -15.8386 -46.7483 -6.08974 
-2.71558 -48.5344 -6.08974 -7.97156 -48.0636 -6.08974 -0.104537 -48.5344 -5.48235 
8.8048 -48.5344 -6.08974 7.76248 -48.5344 -5.72344 15.6295 -47.5301 -6.08974 
23.4965 -45.6065 -6.08974 31.3635 -42.1007 -6.08974 -36.6871 -40.6674 -6.08974 
-39.4396 -38.9727 -6.08974 33.7969 -40.6674 -6.08974 31.3635 -40.6674 -1.58655 
39.2306 -37.2089 -6.08974 -45.3342 -32.8004 -6.08974 -47.3066 -29.9565 -6.08974 
44.0281 -32.8004 -6.08974 47.0976 -28.6477 -6.08974 -50.1954 -24.9333 -6.08974 
49.5311 -24.9333 -6.08974 -53.1319 -17.0663 -6.08974 53.7663 -17.0663 -6.08974 
54.9646 -11.2285 -6.08974 -54.89 -9.19931 -6.08974 55.3214 -9.19931 -6.08974 
54.9646 -9.19931 -3.47371 -55.0083 -1.33229 -6.08974 55.8176 -1.33229 -6.08974 
-53.0028 6.53473 -6.08974 55.0172 6.53473 -6.08974 54.9646 6.69904 -6.08974 
54.9646 6.53473 -4.38841 -48.926 14.4017 -6.08974 -47.3066 17.0874 -6.08974 
52.1861 14.4017 -6.08974 -43.4051 22.2688 -6.08974 -39.4396 26.8747 -6.08974 
47.6233 22.2688 -6.08974 47.0976 22.9969 -6.08974 -36.1323 30.1358 -6.08974 
-31.5726 34.683 -6.08974 31.3635 36.3765 -6.08974 40.6699 30.1358 -6.08974 
39.2306 31.3914 -6.08974 -26.872 38.0028 -6.08974 -31.5726 38.0028 -0.737118 
-23.7056 40.1193 -6.08974 -15.8386 43.4976 -6.08974 -7.97156 44.7563 -6.08974 
-0.104537 44.536 -6.08974 7.76248 43.0212 -6.08974 15.6295 41.32 -6.08974 
26.8401 38.0028 -6.08974 23.4965 39.1757 -6.08974 31.3635 38.0028 -1.8127 
-15.8386 45.8698 -3.62607 -7.97156 45.8698 -5.10475 -0.104537 45.8698 -4.87097 
7.76248 45.8698 -2.3289 -31.5726 -41.3035 1.77728 -23.7056 -43.3667 1.77728 
-15.8386 -44.8302 1.77728 -7.97156 -45.1097 1.77728 -0.104537 -45.4289 1.77728 
7.76248 -45.2114 1.77728 15.6295 -44.1997 1.77728 23.4965 -42.5184 1.77728 
-32.9314 -40.6674 1.77728 -39.4396 -36.9832 1.77728 -31.5726 -40.6674 2.72927 
-23.7056 -40.6674 5.67382 -15.8386 -40.6674 7.18968 -7.97156 -40.6674 7.18499 
-0.104537 -40.6674 7.05611 7.76248 -40.6674 6.83447 15.6295 -40.6674 5.98436 
28.1047 -40.6674 1.77728 23.4965 -40.6674 3.9102 31.3635 -39.3664 1.77728 
39.2306 -34.2288 1.77728 -43.8856 -32.8004 1.77728 -47.3066 -28.3175 1.77728 
-39.4396 -32.8004 6.768 31.3635 -32.8004 8.90633 40.6414 -32.8004 1.77728 
39.2306 -32.8004 3.39602 47.0976 -25.2551 1.77728 -49.3872 -24.9333 1.77728 
-47.3066 -24.9333 5.14796 47.357 -24.9333 1.77728 47.0976 -24.9333 2.12184 
-52.7353 -17.0663 1.77728 51.595 -17.0663 1.77728 47.0976 -17.0663 8.5214 
-54.6715 -9.19931 1.77728 54.1846 -9.19931 1.77728 54.9646 -3.38304 1.77728 
-54.9082 -1.33229 1.77728 55.2284 -1.33229 1.77728 54.9646 3.26464 1.77728 
54.9646 -1.33229 2.4021 -53.0227 6.53473 1.77728 54.7727 6.53473 1.77728 
-49.4539 14.4017 1.77728 -47.3066 18.1491 1.77728 52.2793 14.4017 1.77728 
-44.7326 22.2688 1.77728 -39.4396 30.0243 1.77728 48.162 22.2688 1.77728 
47.0976 23.8045 1.77728 47.0976 22.2688 4.51317 -39.3577 30.1358 1.77728 
-39.4396 30.1358 3.26581 42.2981 30.1358 1.77728 39.2306 33.1946 1.77728 
-32.8234 38.0028 1.77728 -31.5726 39.2833 1.77728 -23.7056 45.6073 1.77728 
15.6295 45.3564 1.77728 23.4965 42.7189 1.77728 33.0806 38.0028 1.77728 
31.3635 39.1103 1.77728 -23.2778 45.8698 1.77728 -23.7056 45.8698 7.23348 
-15.8386 49.3092 1.77728 -7.97156 50.8852 1.77728 -0.104537 50.3757 1.77728 
14.2619 45.8698 1.77728 7.76248 48.1104 1.77728 -31.5726 -34.3531 9.6443 
-23.7056 -36.7643 9.6443 -15.8386 -37.7412 9.6443 -7.97156 -37.0038 9.6443 
-0.104537 -36.3468 9.6443 7.76248 -36.0668 9.6443 15.6295 -35.8929 9.6443 
23.4965 -34.4582 9.6443 -34.4286 -32.8004 9.6443 -39.4396 -29.1275 9.6443 
-31.5726 -32.8004 10.8763 -23.7056 -32.8004 12.3984 -15.8386 -32.8004 12.4587 
-7.97156 -32.8004 11.9838 -0.104537 -32.8004 11.5105 7.76248 -32.8004 11.3629 
15.6295 -32.8004 11.5522 28.6903 -32.8004 9.6443 23.4965 -32.8004 10.8538 
31.3635 -31.7304 9.6443 39.2306 -25.2541 9.6443 -43.0527 -24.9333 9.6443 
-47.3066 -19.8611 9.6443 -39.4396 -24.9333 12.1485 -31.5726 -24.9333 14.6716 
-23.7056 -24.9333 15.5881 -15.8386 -24.9333 15.4435 -7.97156 -24.9333 15.0704 
-0.104537 -24.9333 14.4244 7.76248 -24.9333 14.147 15.6295 -24.9333 14.2448 
23.4965 -24.9333 14.4287 31.3635 -24.9333 12.9968 39.5223 -24.9333 9.6443 
39.2306 -24.9333 9.84592 -48.8338 -17.0663 9.6443 -47.3066 -17.0663 11.2708 
-39.4396 -17.0663 15.6663 -31.5726 -17.0663 17.1271 -0.104537 -17.0663 16.9643 
7.76248 -17.0663 15.3042 15.6295 -17.0663 15.148 23.4965 -17.0663 15.8862 
31.3635 -17.0663 15.1827 45.8579 -17.0663 9.6443 39.2306 -17.0663 13.3523 
47.0976 -14.9393 9.6443 -51.4475 -9.19931 9.6443 -47.3066 -9.19931 13.9398 
7.76248 -9.19931 15.9731 15.6295 -9.19931 15.5289 23.4965 -9.19931 17.124 
31.3635 -9.19931 17.3993 39.2306 -9.19931 16.3359 49.4295 -9.19931 9.6443 
47.0976 -9.19931 11.9408 -52.1014 -1.33229 9.6443 -47.3066 -1.33229 15.2589 
51.2501 -1.33229 9.6443 47.0976 -1.33229 13.8087 -51.0883 6.53473 9.6443 
-47.3066 6.53473 14.9753 51.1419 6.53473 9.6443 47.0976 6.53473 13.8434 
[...]
POINT_DATA 522
SCALARS ImageScalars float
LOOKUP_TABLE default
0 0 0 0 0 0 0 0 0 
0 0 0 0 0 0 0 0 0 
0 0 0 0 0 0 0 0 0 
0 0 0 0 0 0 0 0 0 
0 0 0 0 0 0 0 0 0 
0 0 0 0 0 0 0 0 0 
0 0 0 0 0 0 0 0 0 
0 0 0 0 0 0 0 0 0 
0 0 0 0 0 0 0 0 0 
0 0 0 0 0 0 0 0 0 
0 0 0 0 0 0 0 0 0 
0 0 0 0 0 0 0 0 0 
0 0 0 0 0 0 0 0 0 
0 0 0 0 0 0 0 0 0 
0 0 0 0 0 0 0 0 0 
0 0 0 0 0 0 0 0 0 
0 0 0 0 0 0 0 0 0 
0 0 0 0 0 0 0 0 0 
0 0 0 0 0 0 0 0 0 
0 0 0 0 0 0 0 0 0 
0 0 0 0 0 0 0 0 0 
0 0 0 0 0 0 0 0 0 
0 0 0 0 0 0 0 0 0 
0 0 0 0 0 0 0 0 0 
0 0 0 0 0 0 0 0 0 
0 0 0 0 0 0 0 0 0 
0 0 0 0 0 0 0 0 0 
0 0 0 0 0 0 0 0 0 
0 0 0 0 0 0 0 0 0 
0 0 0 0 0 0 0 0 0 
0 0 0 0 0 0 0 0 0 
0 0 0 0 0 0 0 0 0 
0 0 0 0 0 0 0 0 0 
0 0 0 0 0 0 0 0 0 
0 0 0 0 0 0 0 0 0 
0 0 0 0 0 0 0 0 0 
0 0 0 0 0 0 0 0 0 
0 0 0 0 0 0 0 0 0 
0 0 0 0 0 0 0 0 0 
0 0 0 0 0 0 0 0 0 
0 0 0 0 0 0 0 0 0 
0 0 0 0 0 0 0 0 0 
0 0 0 0 0 0 0 0 0 
0 0 0 0 0 0 0 0 0 
0 0 0 0 0 0 0 0 0 
0 0 0 0 0 0 0 0 0 
0 0 0 0 0 0 0 0 0 
0 0 0 0 0 0 0 0 0 
0 0 0 0 0 0 0 0 0 
0 0 0 0 0 0 0 0 0 
0 0 0 0 0 0 0 0 0 
0 0 0 0 0 0 0 0 0 
0 0 0 0 0 0 0 0 0 
0 0 0 0 0 0 0 0 0 
0 0 0 0 0 0 0 0 0 
0 0 0 0 0 0 0 0 0 
0 0 0 0 0 0 0 0 0 
0 0 0 0 0 0 0 0 0 

NORMALS Normals float
0.0444593 0.0345356 0.998414 -0.175728 0.1497 0.97299 0.224979 0.643775 0.731395 
0.0882128 0.60463 0.791606 0.0705762 0.500694 0.862742 0.0725618 0.447634 0.891268 
0.00395586 0.46289 0.886407 -0.0729726 0.569994 0.818402 -0.22837 0.680746 0.696011 
0.519256 0.46531 0.71684 0.268152 0.364113 0.891917 0.118622 0.254849 0.959678 
0.0333495 0.195608 0.980115 -0.00582657 0.158927 0.987273 0.0526134 0.120825 0.991279 
0.0718597 0.142131 0.987236 0.0427414 0.196749 0.979522 0.0382045 0.0442787 0.998288 
-0.101521 0.266733 0.958408 -0.178682 0.157884 0.971157 -0.281403 0.43572 0.854962 
-0.547887 0.581474 0.601422 0.404801 0.273115 0.872665 0.16547 0.153404 0.974211 
0.0743035 0.0958326 0.99262 -0.0170676 -0.00856256 0.999818 -0.0425336 -0.0134558 0.999004 
0.0501517 -0.072949 0.996074 0.0997572 -0.0420716 0.994122 0.047622 0.031882 0.998357 
0.0925246 -0.00911198 0.995669 0.0466045 0.0233578 0.99864 -0.183646 0.152319 0.97112 
-0.14907 0.103626 0.983382 -0.436 0.253162 0.863605 0.606718 0.262165 0.750442 
0.301465 0.109382 0.947183 0.116236 0.0371881 0.992525 -0.0430533 -0.0366603 0.9984 
-0.0783778 -0.108633 0.990987 -0.0720792 0.00207838 0.997397 0.0180861 -0.0077352 0.999807 
0.135951 -0.0608636 0.988844 0.130188 -0.109403 0.985435 0.0647281 -0.0641437 0.995839 
-0.064869 -0.0375753 0.997186 -0.247982 0.0995957 0.963631 -0.603769 0.22156 0.765751 
0.51458 0.0901257 0.852693 0.178003 0.060712 0.982155 0.0191339 -0.0161076 0.999687 
-0.0713147 -0.0612016 0.995574 0.0196077 -0.0858384 0.996116 0.0652423 0.081705 0.994519 
-0.0133846 0.0213304 0.999683 -0.00421237 0.134332 0.990927 0.0887115 -0.0517509 0.994712 
0.111818 -0.0807266 0.990444 -0.0112265 -0.0498116 0.998696 -0.19314 -0.0130754 0.981084 
-0.512385 0.0122896 0.858668 0.540392 -0.0771521 0.837869 0.199853 -0.00224879 0.979823 
-0.00908431 0.00518224 0.999945 -0.116747 -0.00222586 0.993159 0.0589457 -0.0445591 0.997266 
0.0440184 -0.0968506 0.994325 0.0788509 -0.108757 0.990936 0.0539699 0.0684377 0.996195 
-0.0861183 0.0229307 0.996021 0.0657703 -0.0656483 0.995673 0.00124496 -0.0800736 0.996788 
-0.188923 -0.0877091 0.978067 -0.494384 -0.0721548 0.866244 0.611955 -0.249064 0.750652 
0.248471 -0.147916 0.957279 0.0184156 -0.0488203 0.998638 -0.117301 -0.0265417 0.992742 
-0.0646352 -0.035208 0.997288 0.000876325 -0.198807 0.980038 0.150465 0.0296267 0.988171 
0.112559 -0.102839 0.988309 -0.0474408 -0.0122122 0.998799 0.010021 -0.049699 0.998714 
-0.0368167 -0.116502 0.992508 -0.207311 -0.16251 0.964683 -0.526008 -0.194472 0.827947 
0.387691 -0.339512 0.856988 0.109437 -0.229102 0.967231 -0.0968621 -0.149247 0.984044 
-0.115977 -0.13372 0.984209 0.0838887 -0.213445 0.973347 0.182632 -0.0948443 0.978596 
0.0310402 -0.1616 0.986368 -0.0332162 -0.0829345 0.996001 -0.0361692 -0.103209 0.994002 
-0.110696 -0.167473 0.979642 -0.28728 -0.240659 0.927121 -0.586232 -0.377439 0.716848 
0.224847 -0.450438 0.864031 -0.00685644 -0.355192 0.934768 -0.11553 -0.272845 0.955096 
0.0164132 -0.221083 0.975117 0.188965 -0.338132 0.921932 0.130847 -0.315277 0.939936 
0.0142068 -0.244347 0.969584 -0.0745311 -0.266573 0.960929 -0.179368 -0.320557 0.930092 
-0.422015 -0.439058 0.793178 0.112438 -0.418732 0.901122 0.0170988 -0.472444 0.881195 
-0.11005 -0.520186 0.846933 0.222529 0.734454 0.641138 0.125335 0.742706 0.657784 
0.118572 0.710421 0.693716 0.0809974 0.754332 0.651477 0.0427927 0.99897 0.0151013 
-0.0326009 0.795361 0.605259 -0.0733233 0.996886 -0.0290102 -0.154204 0.804002 0.574284 
-0.285746 0.797608 0.531197 0.520329 0.469098 0.713586 0.306672 0.684619 0.661248 
0.365743 0.610307 0.702679 0.397311 0.795741 0.457099 -0.396919 0.774599 0.492394 
-0.424515 0.757944 0.495286 -0.457789 0.830695 0.316818 -0.573879 0.634445 0.517824 
0.522532 0.466675 0.713565 -0.616485 0.599046 0.51097 0.538329 0.355407 0.764126 
0.623399 0.30846 0.718489 0.737312 0.425033 0.525089 -0.708413 0.44766 0.545667 
-0.719421 0.431371 0.544383 -0.749057 0.47057 0.466345 0.662177 0.257739 0.703628 
-0.785346 0.245417 0.568333 0.705415 0.0958157 0.702289 -0.769645 0.0673638 0.634908 
-0.978899 0.120615 0.164952 0.688784 -0.0876743 0.719645 -0.724219 -0.0606868 0.686895 
-0.960032 -0.0310339 0.278163 0.696088 -0.261024 0.668825 0.662687 -0.345033 0.664679 
-0.674173 -0.197479 0.711683 -0.950383 -0.211938 0.227716 0.585647 -0.431071 0.686436 
0.780968 -0.487551 0.390363 0.468435 -0.523956 0.711364 -0.595166 -0.379206 0.708506 
-0.59181 -0.384938 0.708226 0.388423 -0.536794 0.748986 0.542279 -0.605234 0.582773 
0.277477 -0.509149 0.814723 0.0753839 -0.452875 0.888381 -0.00281207 -0.32475 0.945796 
0.01434 -0.231631 0.972698 0.0814562 -0.300296 0.950362 -0.270162 -0.556067 0.786004 
-0.493484 -0.467124 0.733668 -0.450384 -0.489308 0.746815 -0.76793 -0.551055 0.32653 
0.411044 -0.612064 0.675588 0.122978 -0.489559 0.863254 0.0410054 -0.344257 0.937979 
0.0180984 -0.242797 0.969908 0.0825901 -0.349703 0.933213 0.0591817 -0.294026 0.953964 
0.0890903 -0.432735 0.897108 -0.0108738 -0.529497 0.848242 -0.219473 -0.564826 0.79549 
-0.120551 -0.555747 0.822564 -0.288617 -0.594914 0.750185 -0.562127 -0.695426 0.447656 
0.334379 -0.605637 0.722076 0.138535 -0.464626 0.874603 0.0506177 -0.422804 0.904807 
-0.00447811 -0.438892 0.898529 -0.0665212 -0.559509 0.826151 -0.130744 -0.6943 0.70771 
-0.227548 -0.780188 0.582691 0.0386518 0.99861 -0.0358292 -0.0749428 0.994932 -0.0670369 
0.368602 0.923624 0.105126 0.219148 0.973714 0.0620841 0.163647 0.983809 0.0730661 
0.0676736 0.997378 -0.0256403 0.127037 0.991896 0.00209781 0.0367662 0.996665 -0.0728482 
-0.0896628 0.993676 -0.0675943 -0.0749318 0.993464 -0.086112 -0.187787 0.980397 -0.0596459 
-0.321854 0.946526 -0.0223365 -0.467999 0.883384 -0.0246723 0.510994 0.850288 0.126076 
0.604767 0.7836 0.142226 -0.501698 0.864933 -0.013751 -0.431906 0.859267 -0.274077 
-0.599224 0.800577 0.00257698 0.771884 0.611983 0.172255 0.821077 0.540135 0.184626 
-0.747078 0.664671 -0.00930708 -0.826955 0.562095 0.0139641 0.884152 0.431206 0.179826 
-0.860466 0.507786 0.041844 0.938782 0.270923 0.212814 -0.941269 0.328836 0.0766783 
-0.978533 0.174884 0.109038 0.972896 0.109799 0.203513 -0.985171 0.122751 0.119872 
-0.988269 0.152009 -0.0147547 0.971926 -0.111558 0.207161 -0.984249 -0.0165963 0.176008 
0.915478 -0.349243 0.199824 -0.951736 -0.211723 0.222197 -0.950818 -0.215871 0.222137 
-0.969033 -0.208609 0.132125 0.842456 -0.494148 0.214675 0.81776 -0.528861 0.227101 
-0.880654 -0.409302 0.238582 0.729623 -0.620694 0.287034 0.674465 -0.642673 0.363412 
-0.78389 -0.550199 0.287746 -0.773644 -0.563308 0.290102 0.615671 -0.649111 0.446771 
0.535408 -0.659569 0.527548 -0.38299 -0.808865 0.446158 -0.612976 -0.703775 0.359111 
-0.578683 -0.726429 0.370712 0.444563 -0.646963 0.619517 0.644052 -0.696576 0.316195 
0.374636 -0.652609 0.658597 0.188862 -0.655312 0.731367 0.0455933 -0.655324 0.75397 
-0.0773526 -0.674541 0.734174 -0.143312 -0.724273 0.674456 -0.188208 -0.780137 0.596627 
-0.302168 -0.81362 0.496707 -0.252718 -0.810315 0.5287 -0.452313 -0.858599 0.241287 
0.237387 -0.783124 0.574773 0.0523348 -0.719333 0.692691 -0.0995248 -0.747304 0.656987 
-0.242337 -0.85979 0.449482 0.329564 0.858477 -0.392944 0.188732 0.893303 -0.40791 
0.107654 0.89154 -0.439963 0.0326518 0.8525 -0.521706 0.00631435 0.826017 -0.563609 
-0.070353 0.837718 -0.541552 -0.140957 0.839791 -0.524292 -0.265371 0.812716 -0.51872 
0.361866 0.843842 -0.396211 0.551082 0.741419 -0.382892 0.328616 0.836601 -0.438304 
0.171174 0.792115 -0.585878 0.0645461 0.715805 -0.69531 -0.00679226 0.672742 -0.739846 
-0.0171652 0.633258 -0.77375 -0.0518797 0.623826 -0.77984 -0.131682 0.699349 -0.702546 
-0.334558 0.802625 -0.493827 -0.250873 0.751603 -0.610045 -0.383687 0.796963 -0.466513 
-0.583453 0.671774 -0.4564 0.687853 0.634898 -0.351798 0.786543 0.531189 -0.314941 
0.513745 0.611485 -0.60179 -0.314267 0.579302 -0.752094 -0.61834 0.64093 -0.454824 
-0.571487 0.63173 -0.523755 -0.737985 0.539123 -0.405864 0.839059 0.464796 -0.282744 
0.733832 0.495266 -0.464975 -0.74255 0.533952 -0.40437 -0.734193 0.533789 -0.419559 
0.924669 0.302303 -0.231516 -0.849659 0.365881 -0.379751 -0.654817 0.388777 -0.648125 
0.975345 0.128362 -0.179514 -0.929471 0.211176 -0.302471 -0.9634 0.078129 -0.256431 
0.982595 -0.0997491 -0.156709 -0.969985 0.0335091 -0.240843 -0.971314 -0.0916871 -0.219416 
-0.963005 0.0372546 -0.266897 0.941227 -0.318975 -0.111116 -0.962461 -0.182429 -0.200967 
0.885179 -0.463586 -0.0393206 0.859644 -0.51074 -0.0125014 -0.915156 -0.366071 -0.168766 
0.8293 -0.556874 0.0464002 0.791436 -0.594029 0.144079 -0.834466 -0.535101 -0.131657 
-0.820092 -0.559002 -0.12233 -0.819237 -0.515052 -0.252134 0.790452 -0.59493 0.145755 
0.800693 -0.592387 0.0892624 -0.736374 -0.67427 -0.0557933 -0.672548 -0.739793 -0.0196363 
0.693803 -0.68932 0.208507 0.672295 -0.707834 0.216774 0.531595 -0.809427 0.24947 
-0.320341 -0.923796 0.209722 -0.365049 -0.915426 0.169512 -0.527093 -0.84715 0.0671565 
-0.492756 -0.866177 0.0832453 0.519573 -0.81716 0.249588 0.50584 -0.861472 -0.0446314 
0.295308 -0.919987 0.257714 0.0723238 -0.953941 0.291146 -0.169136 -0.955019 0.24358 
-0.319734 -0.923293 0.21284 -0.304473 -0.923251 0.234314 0.278061 0.576445 -0.76837 
0.128988 0.603932 -0.786529 0.017117 0.583539 -0.811905 -0.0438015 0.54161 -0.839488 
-0.0291784 0.496612 -0.867482 -0.0147524 0.47606 -0.879289 -0.0609728 0.515542 -0.854692 
-0.156818 0.555995 -0.816258 0.341513 0.556405 -0.757484 0.447873 0.510737 -0.733865 
0.265401 0.538346 -0.799842 0.0788083 0.484124 -0.871443 -0.0236329 0.438744 -0.898301 
-0.0544686 0.436218 -0.898191 -0.0354437 0.415684 -0.908818 0.00229944 0.414004 -0.910272 
-0.0258746 0.440601 -0.89733 -0.251901 0.554174 -0.793371 -0.141327 0.518522 -0.843304 
-0.29806 0.538976 -0.787823 -0.470267 0.458761 -0.753915 0.513549 0.471187 -0.717112 
0.647262 0.408807 -0.643373 0.411822 0.437198 -0.799538 0.188664 0.348969 -0.917947 
0.0425942 0.302134 -0.952313 -0.0316135 0.291355 -0.956092 -0.0625548 0.329572 -0.942056 
-0.0564779 0.315336 -0.947298 -0.0109878 0.230612 -0.972984 0.0169101 0.211619 -0.977206 
-0.0769184 0.27598 -0.958081 -0.238433 0.348244 -0.906574 -0.4758 0.454945 -0.752754 
-0.467664 0.453051 -0.75897 0.708103 0.346395 -0.615305 0.64264 0.357607 -0.677593 
0.307361 0.294843 -0.904764 0.106971 0.263786 -0.958631 -0.15029 0.294284 -0.943827 
-0.108975 0.111416 -0.987781 0.0352883 0.0773973 -0.996376 0.00155532 0.16467 -0.986347 
-0.145779 0.262408 -0.953882 -0.592438 0.379802 -0.71047 -0.342099 0.344056 -0.87441 
-0.634074 0.349622 -0.689721 0.803635 0.179445 -0.567424 0.606377 0.203176 -0.768782 
-0.227181 0.318192 -0.920403 0.0778141 0.273834 -0.958624 0.109295 0.220781 -0.96918 
-0.0411947 0.272868 -0.961169 -0.272448 0.267126 -0.924346 -0.701239 0.25008 -0.667626 
-0.613173 0.255122 -0.747617 0.862289 -0.0262329 -0.505736 0.649744 0.0579567 -0.757941 
-0.782346 0.0822097 -0.617395 -0.615463 0.0924611 -0.782723 0.888349 -0.217999 -0.404119 
0.741348 -0.130017 -0.658406 -0.797768 -0.128343 -0.589148 -0.648245 -0.0834494 -0.756845 
0.874955 -0.379846 -0.300285 0.873172 -0.403243 -0.273799 0.857959 -0.352175 -0.374005 
-0.778689 -0.319561 -0.53993 -0.765626 -0.379691 -0.51928 -0.718608 -0.295675 -0.629428 
0.859523 -0.472116 -0.195775 -0.748945 -0.433914 -0.5008 -0.562642 -0.320365 -0.762102 
0.814423 -0.561682 -0.145699 0.811019 -0.566948 -0.144284 0.809599 -0.55737 -0.184088 
-0.702932 -0.574184 -0.419762 -0.699033 -0.582139 -0.415291 -0.697648 -0.567419 -0.437405 
0.722688 -0.673824 -0.153892 0.692817 -0.704356 -0.154552 0.658095 -0.664861 -0.353372 
-0.312299 -0.92787 -0.20378 -0.4282 -0.875463 -0.224073 -0.381378 -0.602492 -0.701109 
-0.553364 -0.771579 -0.313776 -0.552498 -0.772371 -0.313352 -0.552618 -0.771078 -0.31631 
0.483772 -0.858392 -0.17067 0.479987 -0.860348 -0.171504 0.477773 -0.85902 -0.183894 
0.280417 -0.91844 -0.278987 0.195086 -0.793525 -0.57642 0.0503695 -0.954119 -0.29516 
0.0305101 -0.662515 -0.748427 -0.171909 -0.935236 -0.309484 -0.107765 -0.716107 -0.689621 
-0.307672 -0.928613 -0.207403 -0.259583 -0.931608 -0.254408 -0.211471 -0.842236 -0.495902 
0.0237786 0.237604 -0.971071 0.0102666 0.255003 -0.966886 -0.035083 0.379753 -0.924423 
0.285143 0.224394 -0.931848 0.0267648 0.238076 -0.970878 0.103753 0.251893 -0.962177 
0.0236895 0.237122 -0.971191 0.0104031 0.254922 -0.966906 -0.0632354 0.362659 -0.929774 
-0.0324206 0.384451 -0.922576 -0.196362 0.24575 -0.949236 0.2979 0.219209 -0.929087 
0.283501 0.220131 -0.933365 0.0900137 0.215281 -0.972395 0.034249 0.166826 -0.985391 
0.133497 0.180886 -0.974402 -0.022946 0.280276 -0.959645 -0.27938 0.220432 -0.934535 
-0.318468 0.0874661 -0.94389 -0.129234 0.350901 -0.927452 0.00484996 0.353314 -0.935492 
0.0899862 0.227308 -0.969656 -0.0434113 0.268662 -0.962256 -0.296488 0.15395 -0.942547 
0.45106 0.111993 -0.885439 0.28859 0.142758 -0.94675 0.0516197 0.171894 -0.983762 
-0.0218777 0.122765 -0.992195 0.124179 0.0588264 -0.990515 -0.103919 0.00201251 -0.994584 
-0.112454 0.0969486 -0.988916 0.0890412 0.318834 -0.943619 -0.0717339 0.390709 -0.917715 
-0.0213908 0.257139 -0.966138 -0.0982358 0.187228 -0.977392 -0.335159 0.111923 -0.93549 
-0.307711 0.116354 -0.944339 0.555496 -0.0446599 -0.830319 0.345656 0.0212876 -0.93812 
0.0602961 0.0960146 -0.993552 -0.0808754 0.150536 -0.985291 0.027215 0.1218 -0.992181 
0.00568043 0.0141378 -0.999884 -0.0146376 0.23156 -0.97271 0.0666717 0.0901788 -0.993691 
-0.014649 0.125248 -0.992017 -0.0805829 0.115739 -0.990006 -0.172114 0.0316115 -0.98457 
-0.404977 -0.0172008 -0.914165 -0.352146 -0.00803088 -0.93591 0.610543 -0.16503 -0.774598 
0.464312 -0.119413 -0.877585 0.167702 0.0127864 -0.985755 0.00892889 0.110017 -0.99389 
-0.00849824 0.193467 -0.98107 -0.0077939 0.0821567 -0.996589 -0.0258373 0.132249 -0.99088 
-0.0092956 0.101921 -0.994749 -0.039821 0.0925423 -0.994912 -0.129451 0.0544431 -0.99009 
-0.228487 -0.0538734 -0.972055 -0.414988 -0.162218 -0.895249 -0.416567 -0.17485 -0.892132 
-0.397915 -0.156245 -0.904019 0.653487 -0.307066 -0.691856 0.653142 -0.330088 -0.681504 
0.620238 -0.291296 -0.728321 0.275433 -0.0998851 -0.956117 0.0999092 -0.00739275 -0.994969 
-0.0119369 0.045914 -0.998874 -0.0525372 -0.0051353 -0.998606 0.00828921 -0.00137908 -0.999965 
0.0235542 0.0338353 -0.99915 -0.0579796 0.0380145 -0.997594 -0.217184 -0.0343599 -0.975526 
-0.456627 -0.215051 -0.863275 -0.38782 -0.131581 -0.912295 0.632307 -0.449638 -0.630883 
0.543977 -0.537155 -0.644634 0.448558 -0.371361 -0.81295 0.145634 -0.187394 -0.971429 
-0.00615773 -0.159484 -0.987181 -0.0526569 -0.142842 -0.988344 0.0113665 -0.145945 -0.989227 
0.0294635 -0.172247 -0.984613 -0.106602 -0.200508 -0.973875 -0.369908 -0.565562 -0.737094 
-0.28766 -0.268962 -0.91919 -0.486379 -0.366149 -0.793329 -0.48015 -0.381081 -0.790084 
-0.472578 -0.358768 -0.804957 0.442736 -0.581232 -0.682755 0.317208 -0.62756 -0.711019 
0.293779 -0.503613 -0.812446 0.115364 -0.618063 -0.777617 0.0553605 -0.42241 -0.904712 
0.0198604 -0.544677 -0.83841 -0.0243375 -0.336666 -0.941309 -0.070228 -0.552911 -0.830275 
-0.0248117 -0.354729 -0.93464 -0.115777 -0.594136 -0.795989 -0.0503298 -0.431755 -0.900586 
-0.351135 -0.584384 -0.731573 -0.201547 -0.650026 -0.732697 -0.173782 -0.536373 -0.825896 

