# vtk DataFile Version 4.2
vtk output
ASCII
DATASET POLYDATA
POINTS 526 float
-29.3346 -44.3894 -16.9424 -20.5695 -44.3894 -18.0128 -11.8044 -44.3894 -18.3394 
-3.03923 -44.3894 -18.3409 5.7259 -44.3894 -17.3086 -38.0997 -35.6243 -19.8908 
-29.3346 -35.6243 -21.6965 -20.5695 -35.6243 -22.3773 -11.8044 -35.6243 -21.7805 
-3.03923 -35.6243 -21.4228 5.7259 -35.6243 -21.1755 14.491 -35.6243 -20.8192 
23.2561 -35.6243 -20.723 32.0213 -35.6243 -19.0284 -46.8649 -26.8592 -19.9851 
-38.0997 -26.8592 -22.8257 -29.3346 -26.8592 -23.1999 -20.5695 -26.8592 -23.5184 
-11.8044 -26.8592 -22.4188 -3.03923 -26.8592 -22.321 5.7259 -26.8592 -22.3278 
14.491 -26.8592 -22.6398 23.2561 -26.8592 -23.3019 32.0213 -26.8592 -23.1183 
40.7864 -26.8592 -20.6004 49.5515 -26.8592 -16.5021 -55.63 -18.094 -17.3578 
-46.8649 -18.094 -21.9847 -38.0997 -18.094 -23.5074 -29.3346 -18.094 -23.8828 
-20.5695 -18.094 -22.7414 -11.8044 -18.094 -21.9225 -3.03923 -18.094 -22.2041 
5.7259 -18.094 -21.975 14.491 -18.094 -22.5051 23.2561 -18.094 -23.0045 
32.0213 -18.094 -23.1001 40.7864 -18.094 -21.4033 49.5515 -18.094 -18.6549 
-55.63 -9.32892 -19.8426 -46.8649 -9.32892 -22.7455 -38.0997 -9.32892 -23.5001 
-29.3346 -9.32892 -22.7483 -20.5695 -9.32892 -21.41 -11.8044 -9.32892 -22.2227 
-3.03923 -9.32892 -23.6474 5.7259 -9.32892 -22.4237 14.491 -9.32892 -22.1337 
23.2561 -9.32892 -21.7515 32.0213 -9.32892 -21.9563 40.7864 -9.32892 -21.2174 
49.5515 -9.32892 -18.8828 -55.63 -0.563796 -19.8081 -46.8649 -0.563796 -22.7828 
-38.0997 -0.563796 -23.3176 -29.3346 -0.563796 -22.377 -20.5695 -0.563796 -21.0256 
-11.8044 -0.563796 -24.1577 -3.03923 -0.563796 -21.8975 5.7259 -0.563796 -22.1456 
14.491 -0.563796 -24.0854 23.2561 -0.563796 -21.4577 32.0213 -0.563796 -21.7494 
40.7864 -0.563796 -21.1338 49.5515 -0.563796 -18.8302 -55.63 8.20133 -19.3493 
-46.8649 8.20133 -22.1293 -38.0997 8.20133 -23.0238 -29.3346 8.20133 -22.4949 
-20.5695 8.20133 -21.5692 -11.8044 8.20133 -23.3323 -3.03923 8.20133 -22.5655 
5.7259 8.20133 -22.7331 14.491 8.20133 -23.0331 23.2561 8.20133 -21.8391 
32.0213 8.20133 -22.0471 40.7864 8.20133 -21.2051 49.5515 8.20133 -18.4585 
-55.63 16.9665 -16.6907 -46.8649 16.9665 -21.2296 -38.0997 16.9665 -24.0943 
-29.3346 16.9665 -23.5097 -20.5695 16.9665 -22.5666 -11.8044 16.9665 -21.7992 
-3.03923 16.9665 -22.1928 5.7259 16.9665 -22.3144 14.491 16.9665 -21.9389 
23.2561 16.9665 -22.1776 32.0213 16.9665 -22.0302 40.7864 16.9665 -20.4452 
49.5515 16.9665 -17.135 -46.8649 25.7316 -19.0432 -38.0997 25.7316 -21.8988 
-29.3346 25.7316 -22.676 -20.5695 25.7316 -23.4024 -11.8044 25.7316 -22.5586 
-3.03923 25.7316 -22.7291 5.7259 25.7316 -22.8483 14.491 25.7316 -22.5431 
23.2561 25.7316 -22.4438 32.0213 25.7316 -21.7866 40.7864 25.7316 -18.3216 
-38.0997 34.4967 -18.8575 -29.3346 34.4967 -21.1644 -20.5695 34.4967 -22.6165 
-11.8044 34.4967 -22.3134 -3.03923 34.4967 -22.9849 5.7259 34.4967 -23.1454 
14.491 34.4967 -22.3129 23.2561 34.4967 -21.7291 32.0213 34.4967 -18.8209 
-20.5695 43.2618 -17.7794 -11.8044 43.2618 -19.6491 -3.03923 43.2618 -20.8079 
5.7259 43.2618 -20.8567 14.491 43.2618 -19.7317 23.2561 43.2618 -17.541 
-29.3346 -45.287 -15.9774 -20.5695 -46.4813 -15.9774 -11.8044 -47.3989 -15.9774 
-3.03923 -47.3842 -15.9774 5.7259 -45.9299 -15.9774 -31.3323 -44.3894 -15.9774 
-38.0997 -40.2902 -15.9774 -38.0997 -44.3894 -8.76134 11.1166 -44.3894 -15.9774 
14.491 -43.2452 -15.9774 14.491 -44.3894 -14.0698 23.2561 -40.8172 -15.9774 
32.0213 -38.6799 -15.9774 -44.6105 -35.6243 -15.9774 -46.8649 -33.447 -15.9774 
-46.8649 -35.6243 -13.1116 40.5673 -35.6243 -15.9774 40.7864 -35.4968 -15.9774 
40.7864 -35.6243 -15.814 49.5515 -27.7425 -15.9774 -51.9666 -26.8592 -15.9774 
-55.63 -20.9922 -15.9774 -55.63 -26.8592 -9.47816 50.2467 -26.8592 -15.9774 
-57.0545 -18.094 -15.9774 53.429 -18.094 -15.9774 58.3167 -18.094 -11.6964 
-59.8115 -9.32892 -15.9774 54.8459 -9.32892 -15.9774 58.3167 -9.32892 -13.5533 
-60.0843 -0.563796 -15.9774 -64.3951 -0.563796 -8.9146 54.5649 -0.563796 -15.9774 
58.3167 -0.563796 -13.2268 -59.3822 8.20133 -15.9774 53.4445 8.20133 -15.9774 
58.3167 8.20133 -11.4088 -56.4112 16.9665 -15.9774 -55.63 18.5547 -15.9774 
50.9326 16.9665 -15.9774 49.5515 19.1027 -15.9774 -51.0391 25.7316 -15.9774 
-55.63 25.7316 -8.82746 -46.8649 30.729 -15.9774 44.3858 25.7316 -15.9774 
40.7864 30.2199 -15.9774 49.5515 25.7316 -9.37253 -42.8655 34.4967 -15.9774 
-46.8649 34.4967 -10.8077 -38.0997 37.663 -15.9774 -29.3346 42.8274 -15.9774 
36.9393 34.4967 -15.9774 32.0213 39.422 -15.9774 40.7864 34.4967 -11.0192 
-28.0363 43.2618 -15.9774 -29.3346 43.2618 -15.2652 -20.5695 45.3195 -15.9774 
-11.8044 47.7111 -15.9774 -3.03923 49.2457 -15.9774 5.7259 49.2926 -15.9774 
14.491 47.8144 -15.9774 26.2972 43.2618 -15.9774 23.2561 44.7382 -15.9774 
32.0213 43.2618 -10.2548 -3.03923 52.027 -8.86216 5.7259 52.027 -8.38793 
-38.0997 -45.0483 -7.21225 -29.3346 -49.2293 -7.21225 -20.5695 -51.745 -7.21225 
-11.8044 -52.7789 -7.21225 -3.03923 -52.6706 -7.21225 5.7259 -50.8051 -7.21225 
14.491 -47.1643 -7.21225 -39.1185 -44.3894 -7.21225 -46.8649 -38.5345 -7.21225 
22.6786 -44.3894 -7.21225 23.2561 -44.1961 -7.21225 32.0213 -41.8918 -7.21225 
40.7864 -39.4648 -7.21225 -49.8374 -35.6243 -7.21225 -55.63 -28.2514 -7.21225 
48.9454 -35.6243 -7.21225 49.5515 -35.2744 -7.21225 49.5515 -35.6243 -3.12315 
-56.5917 -26.8592 -7.21225 57.5269 -26.8592 -7.21225 58.3167 -25.3773 -7.21225 
58.3167 -26.8592 -3.85453 -61.1836 -18.094 -7.21225 61.8874 -18.094 -7.21225 
-63.8481 -9.32892 -7.21225 -64.3951 -5.67437 -7.21225 64.0032 -9.32892 -7.21225 
-65.0995 -0.563796 -7.21225 -64.3951 4.57036 -7.21225 63.3163 -0.563796 -7.21225 
-63.8508 8.20133 -7.21225 61.3572 8.20133 -7.21225 58.3167 15.6896 -7.21225 
-60.943 16.9665 -7.21225 57.7161 16.9665 -7.21225 58.3167 16.9665 -5.3508 
-56.3911 25.7316 -7.21225 -55.63 26.7685 -7.21225 50.7816 25.7316 -7.21225 
49.5515 27.32 -7.21225 -48.7991 34.4967 -7.21225 -46.8649 36.1873 -7.21225 
-38.0997 42.3442 -7.21225 43.0345 34.4967 -7.21225 40.7864 36.778 -7.21225 
-36.2888 43.2618 -7.21225 -29.3346 46.5778 -7.21225 -20.5695 49.5785 -7.21225 
-11.8044 51.6079 -7.21225 14.491 51.4333 -7.21225 23.2561 48.8916 -7.21225 
33.7337 43.2618 -7.21225 32.0213 44.5284 -7.21225 -7.83358 52.027 -7.21225 
-3.03923 52.5189 -7.21225 -3.03923 52.027 -2.13634 8.89906 52.027 -7.21225 
5.7259 52.3502 -7.21225 5.7259 52.027 -4.67432 -38.0997 -44.5442 1.55288 
-29.3346 -48.8519 1.55288 -20.5695 -51.4674 1.55288 -11.8044 -52.701 1.55288 
-3.03923 -52.8334 1.55288 5.7259 -50.9398 1.55288 14.491 -47.6473 1.55288 
-38.3316 -44.3894 1.55288 -46.8649 -37.6723 1.55288 -38.0997 -44.3894 1.90898 
22.4198 -44.3894 1.55288 23.2561 -44.0963 1.55288 32.0213 -41.8841 1.55288 
40.7864 -39.5448 1.55288 49.5515 -35.9986 1.55288 -48.9066 -35.6243 1.55288 
-55.63 -27.0287 1.55288 -46.8649 -35.6243 5.53669 50.0349 -35.6243 1.55288 
49.5515 -35.6243 2.69362 58.3167 -28.2942 1.55288 -55.7518 -26.8592 1.55288 
-55.63 -26.8592 1.83615 59.494 -26.8592 1.55288 58.3167 -26.8592 5.39481 
-60.4601 -18.094 1.55288 64.3738 -18.094 1.55288 -63.5168 -9.32892 1.55288 
-64.3951 -1.62978 1.55288 66.5349 -9.32892 1.55288 -64.5167 -0.563796 1.55288 
-64.3951 0.317474 1.55288 -64.3951 -0.563796 1.91214 66.2192 -0.563796 1.55288 
-63.3027 8.20133 1.55288 64.0542 8.20133 1.55288 -60.2705 16.9665 1.55288 
60.0262 16.9665 1.55288 58.3167 19.1309 1.55288 -55.6323 25.7316 1.55288 
-55.63 25.7347 1.55288 -55.63 25.7316 1.55889 52.225 25.7316 1.55288 
49.5515 28.5425 1.55288 -47.9188 34.4967 1.55288 -46.8649 35.4562 1.55288 
-46.8649 34.4967 4.07506 -38.0997 41.8128 1.55288 43.3778 34.4967 1.55288 
40.7864 36.9876 1.55288 -35.5308 43.2618 1.55288 -29.3346 46.4381 1.55288 
-20.5695 49.5237 1.55288 -11.8044 51.2354 1.55288 -3.03923 51.6713 1.55288 
5.7259 51.2353 1.55288 14.491 50.41 1.55288 23.2561 48.2739 1.55288 
33.4673 43.2618 1.55288 32.0213 44.2929 1.55288 32.0213 43.2618 6.87544 
-29.3346 -45.0031 10.318 -20.5695 -46.9005 10.318 -11.8044 -48.3807 10.318 
-3.03923 -48.9171 10.318 5.7259 -47.7998 10.318 14.491 -45.2307 10.318 
-30.5641 -44.3894 10.318 -38.0997 -39.6554 10.318 -29.3346 -44.3894 11.0062 
-20.5695 -44.3894 12.79 -11.8044 -44.3894 14.1306 -3.03923 -44.3894 14.8488 
5.7259 -44.3894 14.261 16.9223 -44.3894 10.318 14.491 -44.3894 11.5857 
23.2561 -42.1415 10.318 32.0213 -40.0701 10.318 40.7864 -37.2582 10.318 
-43.3495 -35.6243 10.318 -46.8649 -32.3177 10.318 -38.0997 -35.6243 13.7559 
-29.3346 -35.6243 16.9266 -20.5695 -35.6243 17.6676 -11.8044 -35.6243 18.4216 
23.2561 -35.6243 18.142 32.0213 -35.6243 16.6318 44.4592 -35.6243 10.318 
40.7864 -35.6243 12.6822 49.5515 -33.0049 10.318 -51.2878 -26.8592 10.318 
-55.63 -20.3843 10.318 -46.8649 -26.8592 14.6116 -38.0997 -26.8592 18.5866 
56.431 -26.8592 10.318 49.5515 -26.8592 16.0201 58.3167 -24.4393 10.318 
-56.8833 -18.094 10.318 -55.63 -18.094 11.8452 -46.8649 -18.094 18.3285 
62.1581 -18.094 10.318 58.3167 -18.094 15.6057 -59.9437 -9.32892 10.318 
-55.63 -9.32892 15.6263 64.8372 -9.32892 10.318 58.3167 -9.32892 19.0324 
-61.1391 -0.563796 10.318 -55.63 -0.563796 16.4492 65.1842 -0.563796 10.318 
-59.7434 8.20133 10.318 -55.63 8.20133 15.5442 63.3359 8.20133 10.318 
58.3167 8.20133 18.8943 -56.6781 16.9665 10.318 -55.63 18.9745 10.318 
-55.63 16.9665 11.6577 59.4094 16.9665 10.318 58.3167 18.3708 10.318 
58.3167 16.9665 12.569 -51.5877 25.7316 10.318 -46.8649 31.3661 10.318 
-46.8649 25.7316 15.1362 51.5622 25.7316 10.318 49.5515 27.7835 10.318 
49.5515 25.7316 15.0197 -43.9144 34.4967 10.318 -38.0997 39.1962 10.318 
-38.0997 34.4967 15.794 32.0213 42.5538 10.318 42.3909 34.4967 10.318 
40.7864 35.9467 10.318 40.7864 34.4967 13.5984 -31.296 43.2618 10.318 
-29.3346 44.3122 10.318 -29.3346 43.2618 12.1174 -20.5695 47.79 10.318 
-20.5695 43.2618 17.4479 -11.8044 49.2117 10.318 -3.03923 49.2775 10.318 
-3.03923 43.2618 18.6792 5.7259 48.6924 10.318 5.7259 43.2618 18.3538 
14.491 48.1434 10.318 14.491 43.2618 18.248 30.6882 43.2618 10.318 
[...]
POINT_DATA 526
SCALARS ImageScalars float
LOOKUP_TABLE default
0 0 0 0 0 0 0 0 0 
0 0 0 0 0 0 0 0 0 
0 0 0 0 0 0 0 0 0 
0 0 0 0 0 0 0 0 0 
0 0 0 0 0 0 0 0 0 
0 0 0 0 0 0 0 0 0 
0 0 0 0 0 0 0 0 0 
0 0 0 0 0 0 0 0 0 
0 0 0 0 0 0 0 0 0 
0 0 0 0 0 0 0 0 0 
0 0 0 0 0 0 0 0 0 
0 0 0 0 0 0 0 0 0 
0 0 0 0 0 0 0 0 0 
0 0 0 0 0 0 0 0 0 
0 0 0 0 0 0 0 0 0 
0 0 0 0 0 0 0 0 0 
0 0 0 0 0 0 0 0 0 
0 0 0 0 0 0 0 0 0 
0 0 0 0 0 0 0 0 0 
0 0 0 0 0 0 0 0 0 
0 0 0 0 0 0 0 0 0 
0 0 0 0 0 0 0 0 0 
0 0 0 0 0 0 0 0 0 
0 0 0 0 0 0 0 0 0 
0 0 0 0 0 0 0 0 0 
0 0 0 0 0 0 0 0 0 
0 0 0 0 0 0 0 0 0 
0 0 0 0 0 0 0 0 0 
0 0 0 0 0 0 0 0 0 
0 0 0 0 0 0 0 0 0 
0 0 0 0 0 0 0 0 0 
0 0 0 0 0 0 0 0 0 
0 0 0 0 0 0 0 0 0 
0 0 0 0 0 0 0 0 0 
0 0 0 0 0 0 0 0 0 
0 0 0 0 0 0 0 0 0 
0 0 0 0 0 0 0 0 0 
0 0 0 0 0 0 0 0 0 
0 0 0 0 0 0 0 0 0 
0 0 0 0 0 0 0 0 0 
0 0 0 0 0 0 0 0 0 
0 0 0 0 0 0 0 0 0 
0 0 0 0 0 0 0 0 0 
0 0 0 0 0 0 0 0 0 
0 0 0 0 0 0 0 0 0 
0 0 0 0 0 0 0 0 0 
0 0 0 0 0 0 0 0 0 
0 0 0 0 0 0 0 0 0 
0 0 0 0 0 0 0 0 0 
0 0 0 0 0 0 0 0 0 
0 0 0 0 0 0 0 0 0 
0 0 0 0 0 0 0 0 0 
0 0 0 0 0 0 0 0 0 
0 0 0 0 0 0 0 0 0 
0 0 0 0 0 0 0 0 0 
0 0 0 0 0 0 0 0 0 
0 0 0 0 0 0 0 0 0 
0 0 0 0 0 0 0 0 0 
0 0 0 0 
NORMALS Normals float
-0.237799 -0.705668 -0.667446 -0.0710947 -0.624426 -0.777842 -0.0139786 -0.547986 -0.836371 
0.0524199 -0.522118 -0.851261 0.162412 -0.60787 -0.777249 -0.338988 -0.484826 -0.806245 
-0.115945 -0.309283 -0.943875 -0.00288097 -0.246271 -0.969197 0.0492743 -0.208024 -0.976882 
0.0353397 -0.211844 -0.976664 0.0336978 -0.255118 -0.966323 0.0252231 -0.365561 -0.930445 
0.092148 -0.49493 -0.864033 0.227263 -0.616109 -0.754163 -0.460744 -0.357679 -0.812269 
-0.154184 -0.178195 -0.97184 -0.0375317 -0.120874 -0.991958 0.0454134 -0.0144848 -0.998863 
0.0670281 -0.0099127 -0.997702 0.00521033 -0.0428836 -0.999066 -0.01818 -0.0430811 -0.998906 
-0.0543951 -0.0933945 -0.994142 -0.0282837 -0.114035 -0.993074 0.144688 -0.190031 -0.971058 
0.340649 -0.240375 -0.908943 0.543137 -0.352769 -0.761942 -0.664773 -0.324441 -0.672915 
-0.305238 -0.129513 -0.943428 -0.102219 -0.0338792 -0.994185 0.0432621 0.0268947 -0.998702 
0.106262 0.118971 -0.987195 0.0308027 0.0128695 -0.999443 -0.00300681 -0.0740298 -0.997252 
-0.0171599 -0.00514668 -0.999839 -0.0586217 0.0283142 -0.997879 -0.0333803 0.0875824 -0.995598 
0.0898666 0.0685322 -0.993593 0.225952 -0.0341994 -0.973538 0.424482 -0.126418 -0.896568 
-0.537762 -0.120543 -0.834435 -0.197546 -0.0468647 -0.979173 0.00156261 0.0108953 -0.999939 
0.118126 0.0800166 -0.989769 0.034073 0.0978341 -0.994619 -0.135299 -0.108886 -0.984804 
-0.00516929 -0.00266292 -0.999983 0.0845178 -0.0129878 -0.996337 0.0391269 -0.0817666 -0.995883 
0.00982765 0.0893834 -0.995949 0.0299274 0.0734745 -0.996848 0.164089 0.0149021 -0.986333 
0.35776 -0.00848641 -0.933775 -0.503449 0.0287622 -0.863546 -0.172501 0.0343583 -0.98441 
0.024289 0.0270617 -0.999339 0.129962 0.0142975 -0.991416 -0.0606406 -0.00944435 -0.998115 
-0.0881228 -0.0672444 -0.993837 0.104941 0.0743786 -0.991693 -0.132961 -0.0200432 -0.990919 
0.0646417 -0.0579919 -0.996222 0.118463 -0.00495765 -0.992946 0.017573 -0.00517693 -0.999832 
0.155624 0.000766117 -0.987816 0.368578 0.0213208 -0.929352 -0.528054 0.155353 -0.83488 
-0.200402 0.0884473 -0.975713 -0.0186447 -0.0402765 -0.999015 0.0824675 -0.0639609 -0.994539 
-0.0379976 -0.0849163 -0.995663 -0.0627824 0.130258 -0.98949 0.0319164 -0.00987724 -0.999442 
-0.025543 -0.00304045 -0.999669 0.0550384 0.124829 -0.990651 0.0495444 -0.040986 -0.997931 
0.0342 -0.0160231 -0.999287 0.187742 0.0372904 -0.98151 0.420569 0.087018 -0.903078 
-0.64835 0.331845 -0.685216 -0.356412 0.14341 -0.923257 -0.124352 0.0537205 -0.990783 
0.0822876 -0.0110426 -0.996547 0.099156 -0.105554 -0.989458 0.0190555 0.0356939 -0.999181 
-0.0296309 -0.0106677 -0.999504 0.014534 -0.00737661 -0.999867 0.00780513 0.0217872 -0.999732 
-0.00529971 -0.0341182 -0.999404 0.0930054 0.013508 -0.995574 0.25821 0.156335 -0.953356 
0.562758 0.309561 -0.766469 -0.456563 0.377182 -0.805782 -0.176107 0.253874 -0.95107 
-0.081572 0.131002 -0.98802 0.00746941 -0.00574994 -0.999956 0.0373395 -0.0296478 -0.998863 
-0.0165182 -0.0444483 -0.998875 0.0105845 -0.0466593 -0.998855 0.0229566 -0.0217491 -0.9995 
0.0401109 0.0211833 -0.998971 0.216401 0.168133 -0.961718 0.469514 0.337134 -0.816025 
-0.374137 0.520594 -0.767466 -0.1795 0.334599 -0.925107 -0.0634807 0.274032 -0.959623 
-0.022231 0.152837 -0.988001 -0.0472936 0.102834 -0.993574 0.0384456 0.106958 -0.99352 
0.0760251 0.147988 -0.986063 0.186003 0.206726 -0.960556 0.396535 0.401594 -0.825519 
-0.199667 0.629541 -0.750873 -0.162956 0.506315 -0.846812 -0.0676263 0.458678 -0.886026 
0.0602954 0.465176 -0.883162 0.158572 0.500534 -0.85107 0.325399 0.63723 -0.698608 
-0.243918 -0.746094 -0.619554 -0.104695 -0.70594 -0.700491 -0.0378995 -0.672223 -0.739378 
0.0654213 -0.657461 -0.750643 0.18629 -0.670972 -0.7177 -0.287987 -0.732266 -0.61713 
-0.435615 -0.653298 -0.619226 -0.506205 -0.832277 -0.225988 0.216831 -0.720312 -0.658889 
0.219104 -0.735855 -0.640711 0.269632 -0.815431 -0.512222 0.205783 -0.787643 -0.580751 
0.253891 -0.769486 -0.586029 -0.539824 -0.589419 -0.600978 -0.569707 -0.562333 -0.599345 
-0.630268 -0.644924 -0.432246 0.398465 -0.691831 -0.602159 0.402201 -0.686868 -0.605348 
0.402464 -0.696853 -0.593648 0.550432 -0.387326 -0.739597 -0.643548 -0.459501 -0.612131 
-0.700147 -0.380959 -0.603875 -0.815118 -0.525093 -0.244661 0.56215 -0.358034 -0.74552 
-0.719665 -0.332821 -0.609354 0.580863 -0.171463 -0.795738 0.762468 -0.2631 -0.591118 
-0.764448 -0.142269 -0.628792 0.532223 -0.0415484 -0.845584 0.673428 -0.0627279 -0.736587 
-0.727229 0.0224316 -0.686029 -0.969724 0.00310141 -0.244184 0.537304 0.0450843 -0.842183 
0.692117 0.0781093 -0.717547 -0.729657 0.164941 -0.663623 0.569322 0.14542 -0.809151 
0.772687 0.246151 -0.585119 -0.679302 0.335006 -0.652931 -0.666582 0.363026 -0.651061 
0.605005 0.324216 -0.727223 0.596384 0.364315 -0.715263 -0.596862 0.457421 -0.659183 
-0.804947 0.543847 -0.237257 -0.544407 0.544169 -0.638358 0.561074 0.425335 -0.710131 
0.557027 0.470734 -0.684201 0.733238 0.568043 -0.373749 -0.504314 0.601271 -0.61979 
-0.631233 0.705354 -0.322523 -0.43636 0.646624 -0.625673 -0.313878 0.740105 -0.594748 
0.53371 0.510408 -0.674267 0.472782 0.584433 -0.659481 0.668273 0.634792 -0.38788 
-0.303425 0.740851 -0.599227 -0.324344 0.769829 -0.549695 -0.231562 0.706847 -0.668391 
-0.18048 0.735627 -0.652901 -0.0732569 0.791453 -0.606824 0.0670214 0.797785 -0.599206 
0.208466 0.748249 -0.629814 0.402787 0.676469 -0.616564 0.348511 0.702756 -0.62022 
0.547294 0.777691 -0.309298 -0.0472848 0.983283 -0.175839 0.0614539 0.989684 -0.129414 
-0.50632 -0.848283 -0.155099 -0.336132 -0.925801 -0.172941 -0.199401 -0.958735 -0.202648 
-0.0498248 -0.974809 -0.217405 0.105576 -0.968141 -0.227063 0.298677 -0.929658 -0.215701 
0.351955 -0.915107 -0.196741 -0.525323 -0.837013 -0.153118 -0.673159 -0.726584 -0.137599 
0.299625 -0.941767 -0.15264 0.295137 -0.943347 -0.151627 0.24315 -0.958209 -0.150712 
0.33737 -0.922675 -0.186686 -0.72378 -0.677128 -0.132819 -0.824603 -0.549869 -0.132944 
0.528962 -0.807631 -0.260634 0.54697 -0.792408 -0.270026 0.544361 -0.833461 -0.0949433 
-0.838911 -0.527261 -0.134994 0.782269 -0.501683 -0.369281 0.796162 -0.46226 -0.390438 
0.803604 -0.554861 -0.215289 -0.921444 -0.359943 -0.146225 0.83935 -0.297489 -0.454963 
-0.963537 -0.203333 -0.173929 -0.977825 -0.117434 -0.173401 0.860535 -0.0764758 -0.503618 
-0.985336 0.000398002 -0.170628 -0.976473 0.125199 -0.175573 0.857462 0.128268 -0.498304 
-0.960176 0.215275 -0.178098 0.847049 0.289804 -0.445558 0.795606 0.456653 -0.398096 
-0.916197 0.366731 -0.161529 0.785135 0.484695 -0.385531 0.798709 0.507303 -0.323586 
-0.825221 0.543652 -0.153141 -0.810189 0.565959 -0.152595 0.756809 0.588551 -0.284338 
0.754821 0.596239 -0.273393 -0.673144 0.726131 -0.140037 -0.644553 0.751296 -0.141796 
-0.484134 0.860497 -0.158619 0.712695 0.667685 -0.215087 0.690543 0.692819 -0.20773 
-0.458826 0.874397 -0.157823 -0.371823 0.912632 -0.169852 -0.273446 0.944408 -0.182541 
-0.16089 0.975667 -0.148957 0.187872 0.977051 -0.100379 0.3527 0.92508 -0.140815 
0.582293 0.795336 -0.16845 0.549092 0.819478 -0.164174 -0.105495 0.986713 -0.123567 
-0.0406958 0.994363 -0.0979134 -0.0174128 0.998085 0.0593581 0.105309 0.991182 -0.0804308 
0.0601464 0.995507 -0.0731311 0.0639126 0.997943 0.00498469 -0.515804 -0.830591 0.209918 
-0.352845 -0.912906 0.20519 -0.213693 -0.951049 0.223251 -0.0740701 -0.977245 0.198761 
0.0959149 -0.980512 0.171456 0.259928 -0.954707 0.144815 0.382781 -0.91764 0.10684 
-0.519834 -0.828037 0.210066 -0.67752 -0.702479 0.21792 -0.516102 -0.827168 0.222333 
0.313315 -0.943706 0.106074 0.303597 -0.946821 0.106574 0.234382 -0.967232 0.0976076 
0.300554 -0.947545 0.108746 0.524992 -0.844794 0.103471 -0.710203 -0.669258 0.218414 
-0.811863 -0.543085 0.214329 -0.658291 -0.662858 0.356752 0.537767 -0.836805 0.102786 
0.526419 -0.837329 0.147521 0.76348 -0.64434 0.0438674 -0.813489 -0.540747 0.214075 
-0.810795 -0.541122 0.223158 0.793516 -0.607479 0.0360774 0.762118 -0.611591 0.212444 
-0.89993 -0.385385 0.203973 0.934945 -0.354636 -0.0105734 -0.959628 -0.210921 0.186081 
-0.97995 -0.015328 0.198653 0.994303 -0.101158 -0.0335893 -0.979812 0.0116892 0.199579 
-0.979221 0.0325606 0.200167 -0.977345 0.0117425 0.211328 0.988085 0.129232 -0.0835941 
-0.955088 0.220241 0.198244 0.934915 0.342931 -0.0912823 -0.897726 0.391955 0.201148 
0.825502 0.55867 -0.08021 0.798404 0.597484 -0.0745895 -0.80649 0.556905 0.198571 
-0.806452 0.556961 0.198572 -0.806451 0.5569 0.198743 0.736322 0.67556 -0.0380742 
0.716449 0.697535 -0.0120432 -0.671545 0.718856 0.179648 -0.65376 0.736082 0.175447 
-0.663069 0.707642 0.244094 -0.517334 0.844258 0.139977 0.689857 0.723508 0.0251615 
0.67808 0.734059 0.0369425 -0.480009 0.86765 0.129517 -0.393837 0.912404 0.111403 
-0.262357 0.960119 0.096648 -0.116928 0.984666 0.129462 2.43222e-05 0.984805 0.173663 
0.0718949 0.976734 0.202044 0.166074 0.969609 0.179658 0.325019 0.936868 0.129001 
0.559717 0.82371 0.0906542 0.530477 0.842138 0.0969395 0.51269 0.835706 0.196837 
-0.297805 -0.752971 0.586811 -0.163556 -0.74674 0.644693 -0.0951757 -0.764136 0.637994 
0.0315037 -0.798604 0.601032 0.197247 -0.82794 0.524985 0.284255 -0.86486 0.413783 
-0.322977 -0.744273 0.584588 -0.461127 -0.663359 0.589336 -0.291031 -0.732149 0.61584 
-0.144165 -0.660661 0.736711 -0.0982365 -0.607617 0.788131 -0.00933927 -0.607512 0.794256 
0.127591 -0.694132 0.70845 0.283493 -0.874649 0.393219 0.26544 -0.843256 0.467397 
0.270095 -0.882367 0.385327 0.246782 -0.89366 0.374793 0.344257 -0.843681 0.411935 
-0.541218 -0.614399 0.574106 -0.600468 -0.582838 0.547484 -0.395988 -0.551718 0.73403 
-0.190375 -0.407036 0.893353 -0.0779336 -0.317 0.945218 -0.0911904 -0.286818 0.953635 
0.125368 -0.530499 0.838364 0.209629 -0.640891 0.738454 0.41227 -0.80587 0.424979 
0.349942 -0.785773 0.510001 0.50455 -0.728755 0.462974 -0.665166 -0.514164 0.541469 
-0.748441 -0.410858 0.520607 -0.523649 -0.454796 0.720383 -0.200886 -0.307848 0.929986 
0.674364 -0.582826 0.453373 0.465103 -0.504636 0.727339 0.726132 -0.529503 0.438587 
-0.770866 -0.37068 0.518036 -0.727038 -0.369813 0.578493 -0.371465 -0.285488 0.883465 
0.82291 -0.379337 0.422994 0.640278 -0.384006 0.665269 -0.819961 -0.208958 0.532917 
-0.663932 -0.185629 0.724386 0.896006 -0.166223 0.411755 0.58839 -0.14175 0.796056 
-0.848176 0.0106663 0.529607 -0.623272 0.00251576 0.782001 0.940646 0.0792859 0.329998 
-0.825665 0.214585 0.521757 -0.691645 0.181611 0.699031 0.912645 0.310012 0.266406 
0.684257 0.194872 0.702722 -0.782627 0.364841 0.504367 -0.768745 0.399016 0.499817 
-0.75264 0.359886 0.551376 0.806223 0.540099 0.24145 0.788546 0.567296 0.237424 
0.778067 0.527055 0.341797 -0.709485 0.507058 0.48941 -0.657564 0.600268 0.455289 
-0.587487 0.44575 0.675401 0.725276 0.663611 0.183289 0.708666 0.680917 0.184782 
0.683008 0.628092 0.372829 -0.620853 0.655545 0.429888 -0.533529 0.744105 0.402062 
-0.499079 0.569582 0.653067 0.495553 0.827818 0.262955 0.650952 0.733007 0.197389 
0.640013 0.741119 0.202796 0.618468 0.711593 0.333367 -0.440491 0.822409 0.360017 
-0.41478 0.83723 0.356376 -0.414713 0.804568 0.425068 -0.248854 0.905379 0.344036 
-0.233138 0.690383 0.684848 -0.0811288 0.929394 0.360062 0.0278039 0.918157 0.39524 
0.0449406 0.614203 0.787867 0.0611212 0.914839 0.399166 0.0170518 0.649855 0.759867 
0.1196 0.92217 0.367829 0.0573049 0.681553 0.729522 0.463163 0.843497 0.272015 
0.274954 0.90748 0.317617 0.2208 0.780963 0.584246 -0.069192 -0.283765 0.956394 
0.012811 -0.355031 0.934767 0.084706 -0.414422 0.906134 -0.0588561 -0.220885 0.973522 
-0.0319198 -0.136283 0.990156 -0.077358 -0.271148 0.959424 -0.0788218 -0.17155 0.982017 
-0.070436 -0.266655 0.961215 -0.00339335 -0.308419 0.951245 0.088755 -0.422499 0.902007 
0.0799595 -0.401082 0.912546 0.0900442 -0.416687 0.904579 0.1295 -0.413399 0.901294 
0.250128 -0.413807 0.875328 -0.107789 -0.242319 0.96419 -0.173166 -0.277428 0.945012 
-0.0415873 -0.191805 0.980552 -0.0225218 -0.102059 0.994523 -0.0610706 -0.0410474 0.997289 
-0.0702774 -0.109036 0.99155 -0.0417004 -0.0978191 0.99433 -0.00903499 -0.0872445 0.996146 
0.00928621 -0.167841 0.98577 0.0733512 -0.261865 0.962313 0.28345 -0.382605 0.879357 
0.231034 -0.352408 0.90688 0.324518 -0.383963 0.864442 -0.273841 -0.254526 0.927485 
-0.345889 -0.235263 0.908302 -0.108407 -0.204447 0.972856 0.0454642 -0.106497 0.993273 
0.0707532 -0.0185826 0.997321 -0.0946627 0.0186263 0.995335 -0.121865 -0.102227 0.987268 
0.00650358 -0.0635442 0.997958 -0.0099023 0.0112157 0.999888 -0.057611 -0.0177497 0.998181 
-0.0158798 -0.0951999 0.995332 0.0906557 -0.212663 0.972911 0.371673 -0.363161 0.854384 
0.287973 -0.346833 0.892625 -0.431632 -0.146835 0.890019 -0.296296 -0.124779 0.94691 
-0.0468439 -0.112356 0.992563 0.137193 -0.10975 0.984446 0.0988616 -0.111001 0.988891 
-0.152229 -0.198855 0.968134 -0.128599 0.023296 0.991423 0.069049 -0.0911226 0.993443 
0.0386236 -0.105066 0.993715 -0.103726 -0.0737135 0.991871 -0.109578 -0.111332 0.987724 
0.0197606 -0.139048 0.990089 0.584412 -0.141784 0.798974 0.238723 -0.145191 0.960172 
0.588155 -0.125575 0.79894 -0.42095 -0.0162554 0.906938 -0.292503 -0.0290141 0.955824 
-0.0775087 -0.0239255 0.996705 0.0567643 -0.0678826 0.996077 -0.0147868 -0.130062 0.991396 
0.0369053 -0.0874232 0.995487 -0.0174527 -0.00671243 0.999825 -0.137814 -0.0918081 0.986194 
0.0144561 -0.119639 0.992712 -0.0584645 -0.137358 0.988795 -0.0909763 -0.131771 0.987097 
0.0405022 -0.0983971 0.994323 0.254669 -0.0691216 0.964555 0.600994 0.00384966 0.799244 
0.656518 0.137882 0.741601 0.586995 0.000969904 0.80959 -0.475012 0.123317 0.871296 
-0.307337 0.092296 0.947114 -0.0893213 0.0016199 0.996002 0.0208855 -0.0476883 0.998644 
0.0728112 -0.066276 0.995141 -0.0175611 0.0583158 0.998144 -0.125719 -0.0759724 0.989153 
-0.0384494 0.0161488 0.99913 -0.0203974 -0.015907 0.999665 -0.117344 -0.10533 0.98749 
-0.0666627 -0.069797 0.995331 0.0760759 -0.0139621 0.997004 0.671436 0.189425 0.716444 
0.307119 0.071539 0.948978 -0.437314 0.273034 0.85686 -0.436883 0.274127 0.85673 
-0.435634 0.272232 0.85797 -0.229869 0.122404 0.965493 -0.00728944 0.0322905 0.999452 
0.0868371 -0.0474303 0.995093 0.0286063 -0.101086 0.994466 -0.0718464 -0.0310249 0.996933 
-0.0654541 0.0248546 0.997546 -0.10474 -0.0681869 0.992159 -0.114208 -0.0219568 0.993214 
0.00553169 0.0456368 0.998943 0.167393 0.124349 0.978017 0.618769 0.3917 0.680952 
0.608573 0.504142 0.612764 0.48433 0.30466 0.820126 -0.376715 0.322135 0.868513 
-0.366063 0.359328 0.858418 -0.316304 0.290727 0.903011 -0.141778 0.149555 0.978536 
-0.0555916 0.0181371 0.998289 -0.00123862 -0.0539418 0.998543 -0.00515166 -0.0334605 0.999427 
-0.0743762 0.00498538 0.997218 -0.0665202 0.0238535 0.9975 -0.00367555 0.102472 0.994729 
0.0870383 0.195198 0.976894 0.571359 0.556009 0.603657 0.497913 0.594025 0.631836 
0.334443 0.416737 0.845268 -0.369981 0.419029 0.829174 -0.343598 0.45298 0.822648 
-0.311647 0.367148 0.876401 -0.202825 0.561451 0.802269 -0.113729 0.235856 0.96511 
-0.0243004 0.195491 0.980404 0.0418239 0.575097 0.817015 -0.0086963 0.201192 0.979513 
0.0105512 0.585783 0.8104 -0.00708939 0.234669 0.972049 0.0431741 0.616076 0.786502 
-0.00874052 0.288684 0.957385 0.164565 0.647587 0.744009 0.0653869 0.336237 0.939505 
0.4632 0.605576 0.647088 0.367883 0.632796 0.681345 0.30934 0.499043 0.809485 
-0.0850012 0.603908 0.792508 0.00236794 0.596208 0.802827 -0.0441581 0.603805 0.795908 
-0.0435651 0.58506 0.809819 
