# vtk DataFile Version 4.2
vtk output
ASCII
DATASET POLYDATA
POINTS 546 float
-22.7117 -41.1127 -14.0611 -14.8628 -41.1127 -14.6415 -7.01385 -41.1127 -15.0908 
0.835076 -41.1127 -14.3272 8.684 -41.1127 -13.5786 16.5329 -41.1127 -13.3096 
-30.5606 -33.2638 -14.7032 -22.7117 -33.2638 -16.3996 -14.8628 -33.2638 -16.8649 
-7.01385 -33.2638 -17.0869 0.835076 -33.2638 -16.7153 8.684 -33.2638 -16.5337 
16.5329 -33.2638 -16.36 24.3819 -33.2638 -15.3402 32.2308 -33.2638 -12.9153 
-30.5606 -25.4148 -14.9436 -22.7117 -25.4148 -16.8755 -14.8628 -25.4148 -17.2627 
-7.01385 -25.4148 -17.2392 0.835076 -25.4148 -16.9829 8.684 -25.4148 -16.7533 
16.5329 -25.4148 -17.217 24.3819 -25.4148 -16.458 32.2308 -25.4148 -15.4709 
40.0797 -25.4148 -12.8432 -38.4095 -17.5659 -13.9128 -30.5606 -17.5659 -15.4781 
-22.7117 -17.5659 -16.6998 -14.8628 -17.5659 -16.9086 -7.01385 -17.5659 -16.4155 
0.835076 -17.5659 -16.236 8.684 -17.5659 -15.7544 16.5329 -17.5659 -16.4461 
24.3819 -17.5659 -16.8676 32.2308 -17.5659 -16.6094 40.0797 -17.5659 -15.2055 
-38.4095 -9.717 -14.1559 -30.5606 -9.717 -15.7739 -22.7117 -9.717 -17.2559 
-14.8628 -9.717 -18.2217 -7.01385 -9.717 -17.8322 0.835076 -9.717 -18.9032 
8.684 -9.717 -14.9347 16.5329 -9.717 -15.6236 24.3819 -9.717 -16.792 
32.2308 -9.717 -17.1061 40.0797 -9.717 -16.6104 47.9286 -9.717 -14.5003 
-46.2585 -1.86807 -13.5893 -38.4095 -1.86807 -15.1542 -30.5606 -1.86807 -16.1716 
-22.7117 -1.86807 -17.3817 -14.8628 -1.86807 -19.9869 -7.01385 -1.86807 -17.5579 
0.835076 -1.86807 -16.6217 8.684 -1.86807 -19.587 16.5329 -1.86807 -15.0894 
24.3819 -1.86807 -16.2528 32.2308 -1.86807 -17.0512 40.0797 -1.86807 -17.0948 
47.9286 -1.86807 -15.4533 -46.2585 5.98085 -14.2318 -38.4095 5.98085 -15.7914 
-30.5606 5.98085 -16.4016 -22.7117 5.98085 -16.42 -14.8628 5.98085 -17.8703 
-7.01385 5.98085 -18.8158 0.835076 5.98085 -18.102 8.684 5.98085 -18.4668 
16.5329 5.98085 -15.9014 24.3819 5.98085 -16.676 32.2308 5.98085 -17.3559 
40.0797 5.98085 -17.4 47.9286 5.98085 -15.9364 -46.2585 13.8298 -15.0198 
-38.4095 13.8298 -16.1049 -30.5606 13.8298 -17.1148 -22.7117 13.8298 -17.0676 
-14.8628 13.8298 -16.8566 -7.01385 13.8298 -16.2771 0.835076 13.8298 -14.9178 
8.684 13.8298 -15.7235 16.5329 13.8298 -17.5418 24.3819 13.8298 -18.3063 
32.2308 13.8298 -18.1248 40.0797 13.8298 -17.7699 47.9286 13.8298 -14.8084 
-46.2585 21.6787 -13.9685 -38.4095 21.6787 -15.871 -30.5606 21.6787 -17.2694 
-22.7117 21.6787 -17.4377 -14.8628 21.6787 -17.4952 -7.01385 21.6787 -16.7179 
0.835076 21.6787 -16.1554 8.684 21.6787 -16.4706 16.5329 21.6787 -17.7695 
24.3819 21.6787 -18.5807 32.2308 21.6787 -18.1775 40.0797 21.6787 -16.2506 
47.9286 21.6787 -12.7672 -38.4095 29.5276 -15.0651 -30.5606 29.5276 -16.8312 
-22.7117 29.5276 -17.0721 -14.8628 29.5276 -17.4917 -7.01385 29.5276 -16.9881 
0.835076 29.5276 -16.5967 8.684 29.5276 -16.7565 16.5329 29.5276 -17.1326 
24.3819 29.5276 -17.3818 32.2308 29.5276 -16.6486 40.0797 29.5276 -13.5616 
-30.5606 37.3766 -13.5732 -22.7117 37.3766 -15.5622 -14.8628 37.3766 -15.6954 
-7.01385 37.3766 -15.5035 0.835076 37.3766 -15.2357 8.684 37.3766 -14.6518 
16.5329 37.3766 -13.572 24.3819 37.3766 -12.9156 -22.7117 -43.3617 -12.6693 
-14.8628 -43.8471 -12.6693 -7.01385 -44.5943 -12.6693 0.835076 -43.2138 -12.6693 
8.684 -42.2223 -12.6693 16.5329 -41.9462 -12.6693 -25.7541 -41.1127 -12.6693 
-30.5606 -37.1911 -12.6693 -30.5606 -41.1127 -9.36412 18.9332 -41.1127 -12.6693 
24.3819 -38.2881 -12.6693 24.3819 -41.1127 -10.3646 32.2308 -33.7465 -12.6693 
32.2308 -41.1127 -5.26062 -33.8665 -33.2638 -12.6693 -38.4095 -33.2638 -8.64035 
32.7015 -33.2638 -12.6693 40.0797 -25.7513 -12.6693 40.0797 -33.2638 -6.84749 
-46.2585 -25.4148 -6.46808 -36.1231 -25.4148 -12.6693 -38.4095 -22.3097 -12.6693 
-38.4095 -25.4148 -11.7287 40.4521 -25.4148 -12.6693 47.9286 -25.4148 -6.792 
-54.1074 -17.5659 -4.99933 -41.0665 -17.5659 -12.6693 -46.2585 -17.5659 -9.77946 
46.4848 -17.5659 -12.6693 47.9286 -15.7616 -12.6693 47.9286 -17.5659 -11.9324 
-54.1074 -9.717 -7.96987 -43.3168 -9.717 -12.6693 -46.2585 -5.63916 -12.6693 
-46.2585 -9.717 -11.8463 52.6646 -9.717 -12.6693 55.7775 -9.717 -10.5512 
-49.4169 -1.86807 -12.6693 -54.1074 -1.86807 -10.7344 54.0654 -1.86807 -12.6693 
55.7775 -1.86807 -11.6104 -53.4567 5.98085 -12.6693 -54.1074 5.98085 -12.4075 
54.7001 5.98085 -12.6693 55.7775 5.98085 -11.9748 -52.9236 13.8298 -12.6693 
-54.1074 13.8298 -12.0628 53.175 13.8298 -12.6693 55.7775 13.8298 -10.881 
-48.4729 21.6787 -12.6693 -54.1074 21.6787 -8.78823 -46.2585 24.5655 -12.6693 
48.0802 21.6787 -12.6693 47.9286 21.9064 -12.6693 55.7775 21.6787 -5.61605 
-42.991 29.5276 -12.6693 -46.2585 29.5276 -10.1582 -38.4095 34.1257 -12.6693 
32.2308 34.976 -12.6693 41.9644 29.5276 -12.6693 40.0797 30.7385 -12.6693 
47.9286 29.5276 -5.40339 -33.0872 37.3766 -12.6693 -38.4095 37.3766 -9.28275 
-30.5606 38.7452 -12.6693 -22.7117 40.9819 -12.6693 -14.8628 41.5952 -12.6693 
-7.01385 42.1897 -12.6693 0.835076 41.7225 -12.6693 8.684 40.0583 -12.6693 
16.5329 38.4522 -12.6693 25.3474 37.3766 -12.6693 24.3819 37.6379 -12.6693 
32.2308 37.3766 -8.6736 -22.7117 45.2255 -4.96228 -14.8628 45.2255 -8.00096 
-7.01385 45.2255 -9.1001 0.835076 45.2255 -8.6129 8.684 45.2255 -6.13359 
-30.5606 -44.81 -4.82038 -22.7117 -48.0028 -4.82038 -14.8628 -48.8676 -4.82038 
-7.01385 -48.3987 -4.82038 0.835076 -47.8896 -4.82038 8.684 -47.0646 -4.82038 
16.5329 -46.3702 -4.82038 24.3819 -44.7648 -4.82038 32.2308 -41.3395 -4.82038 
-37.1164 -41.1127 -4.82038 -38.4095 -39.7623 -4.82038 32.5612 -41.1127 -4.82038 
40.0797 -34.9059 -4.82038 -43.6581 -33.2638 -4.82038 -46.2585 -28.5798 -4.82038 
41.7836 -33.2638 -4.82038 47.9286 -26.9349 -4.82038 -47.868 -25.4148 -4.82038 
-54.1074 -17.8534 -4.82038 49.3157 -25.4148 -4.82038 -54.267 -17.5659 -4.82038 
55.5127 -17.5659 -4.82038 55.7775 -17.1457 -4.82038 55.7775 -17.5659 -1.3455 
-56.863 -9.717 -4.82038 59.8089 -9.717 -4.82038 -59.659 -1.86807 -4.82038 
-61.9563 -1.86807 2.80177 62.519 -1.86807 -4.82038 63.6265 -1.86807 2.54941 
-60.4929 5.98085 -4.82038 -61.9563 5.98085 2.77597 63.2165 5.98085 -4.82038 
63.6265 5.98085 -2.74466 -59.8554 13.8298 -4.82038 60.2097 13.8298 -4.82038 
-57.0183 21.6787 -4.82038 -54.1074 26.2933 -4.82038 56.327 21.6787 -4.82038 
55.7775 22.29 -4.82038 -51.4946 29.5276 -4.82038 -46.2585 34.423 -4.82038 
40.0797 34.9757 -4.82038 48.2276 29.5276 -4.82038 47.9286 29.7673 -4.82038 
47.9286 29.5276 -0.898248 -42.37 37.3766 -4.82038 -38.4095 39.89 -4.82038 
-30.5606 43.2341 -4.82038 16.5329 43.8335 -4.82038 24.3819 41.6733 -4.82038 
35.3037 37.3766 -4.82038 32.2308 38.8519 -4.82038 -22.9599 45.2255 -4.82038 
-22.7117 45.2875 -4.82038 -22.7117 45.2255 -4.42242 -14.8628 46.7079 -4.82038 
-7.01385 47.3124 -4.82038 0.835076 47.1919 -4.82038 11.2946 45.2255 -4.82038 
8.684 45.8724 -4.82038 8.684 45.2255 3.00322 -30.5606 -44.4872 3.02854 
-22.7117 -46.2255 3.02854 -14.8628 -46.9846 3.02854 -7.01385 -46.8621 3.02854 
0.835076 -46.1933 3.02854 8.684 -45.7778 3.02854 16.5329 -45.4392 3.02854 
24.3819 -44.2612 3.02854 32.2308 -41.2551 3.02854 -36.5505 -41.1127 3.02854 
-38.4095 -39.9373 3.02854 -30.5606 -41.1127 8.10229 -22.7117 -41.1127 9.30893 
-14.8628 -41.1127 10.5399 0.835076 -41.1127 10.8318 8.684 -41.1127 10.2264 
16.5329 -41.1127 9.46539 24.3819 -41.1127 7.69921 32.4506 -41.1127 3.02854 
32.2308 -41.1127 3.31113 40.0797 -35.1226 3.02854 -45.4928 -33.2638 3.02854 
-46.2585 -32.4 3.02854 -38.4095 -33.2638 10.2931 42.0878 -33.2638 3.02854 
40.0797 -33.2638 6.20492 47.9286 -27.3807 3.02854 -51.6649 -25.4148 3.02854 
-54.1074 -21.5031 3.02854 49.7472 -25.4148 3.02854 47.9286 -25.4148 6.08592 
55.7775 -17.9287 3.02854 -56.3508 -17.5659 3.02854 -54.1074 -17.5659 7.36203 
56.0641 -17.5659 3.02854 55.7775 -17.5659 3.64503 -59.8645 -9.717 3.02854 
-61.9563 -2.03384 3.02854 60.9566 -9.717 3.02854 63.6265 -2.04894 3.02854 
-62.0015 -1.86807 3.02854 -61.9563 -1.86807 3.11368 63.683 -1.86807 3.02854 
63.6265 -1.86807 3.16443 -61.9899 5.98085 3.02854 -61.9563 6.20785 3.02854 
-61.9563 5.98085 3.09226 64.5486 5.98085 3.02854 63.6265 8.66178 3.02854 
63.6265 5.98085 5.15656 -60.7003 13.8298 3.02854 61.7639 13.8298 3.02854 
-57.011 21.6787 3.02854 -54.1074 25.4761 3.02854 -54.1074 21.6787 7.40781 
47.9286 29.3024 3.02854 56.5281 21.6787 3.02854 55.7775 22.5473 3.02854 
55.7775 21.6787 4.53007 -50.3913 29.5276 3.02854 -46.2585 33.1748 3.02854 
-46.2585 29.5276 7.59623 -38.4095 29.5276 10.6333 47.5905 29.5276 3.02854 
40.0797 34.2063 3.02854 40.0797 29.5276 10.3115 -39.7528 37.3766 3.02854 
-38.4095 38.203 3.02854 -38.4095 37.3766 4.17842 -30.5606 41.532 3.02854 
-30.5606 37.3766 8.51779 -22.7117 43.8919 3.02854 8.684 45.2231 3.02854 
16.5329 43.1948 3.02854 24.3819 40.7543 3.02854 24.3819 37.3766 8.48622 
33.2934 37.3766 3.02854 32.2308 37.8763 3.02854 32.2308 37.3766 3.9901 
-17.2477 45.2255 3.02854 -14.8628 45.7402 3.02854 -14.8628 45.2255 3.98423 
-7.01385 46.6412 3.02854 -7.01385 45.2255 5.61364 8.67038 45.2255 3.02854 
0.835076 46.4558 3.02854 0.835076 45.2255 5.29155 -7.01385 -41.2179 10.8775 
-30.5606 -37.9547 10.8775 -22.7117 -39.2813 10.8775 -9.00068 -41.1127 10.8775 
-14.8628 -40.6973 10.8775 -1.18863 -41.1127 10.8775 -7.01385 -41.1127 10.9749 
0.835076 -41.0688 10.8775 8.684 -40.4604 10.8775 16.5329 -39.4959 10.8775 
24.3819 -38.212 10.8775 32.2308 -34.7488 10.8775 -46.2585 -26.9227 10.8775 
-37.2436 -33.2638 10.8775 -38.4095 -32.4385 10.8775 -30.5606 -33.2638 13.4651 
-22.7117 -33.2638 14.7208 -14.8628 -33.2638 15.2254 -7.01385 -33.2638 15.8662 
0.835076 -33.2638 16.0132 8.684 -33.2638 15.3381 16.5329 -33.2638 14.9658 
24.3819 -33.2638 14.293 34.4504 -33.2638 10.8775 32.2308 -33.2638 12.0476 
40.0797 -28.6617 10.8775 -47.4178 -25.4148 10.8775 -46.2585 -25.4148 11.7672 
-38.4095 -25.4148 14.2523 -30.5606 -25.4148 16.2374 -22.7117 -25.4148 16.7123 
-14.8628 -25.4148 17.2023 -7.01385 -25.4148 18.0008 0.835076 -25.4148 17.3794 
8.684 -25.4148 16.2843 16.5329 -25.4148 16.7025 24.3819 -25.4148 16.2614 
[...]
POINT_DATA 546
SCALARS ImageScalars float
LOOKUP_TABLE default
0 0 0 0 0 0 0 0 0 
0 0 0 0 0 0 0 0 0 
0 0 0 0 0 0 0 0 0 
0 0 0 0 0 0 0 0 0 
0 0 0 0 0 0 0 0 0 
0 0 0 0 0 0 0 0 0 
0 0 0 0 0 0 0 0 0 
0 0 0 0 0 0 0 0 0 
0 0 0 0 0 0 0 0 0 
0 0 0 0 0 0 0 0 0 
0 0 0 0 0 0 0 0 0 
0 0 0 0 0 0 0 0 0 
0 0 0 0 0 0 0 0 0 
0 0 0 0 0 0 0 0 0 
0 0 0 0 0 0 0 0 0 
0 0 0 0 0 0 0 0 0 
0 0 0 0 0 0 0 0 0 
0 0 0 0 0 0 0 0 0 
0 0 0 0 0 0 0 0 0 
0 0 0 0 0 0 0 0 0 
0 0 0 0 0 0 0 0 0 
0 0 0 0 0 0 0 0 0 
0 0 0 0 0 0 0 0 0 
0 0 0 0 0 0 0 0 0 
0 0 0 0 0 0 0 0 0 
0 0 0 0 0 0 0 0 0 
0 0 0 0 0 0 0 0 0 
0 0 0 0 0 0 0 0 0 
0 0 0 0 0 0 0 0 0 
0 0 0 0 0 0 0 0 0 
0 0 0 0 0 0 0 0 0 
0 0 0 0 0 0 0 0 0 
0 0 0 0 0 0 0 0 0 
0 0 0 0 0 0 0 0 0 
0 0 0 0 0 0 0 0 0 
0 0 0 0 0 0 0 0 0 
0 0 0 0 0 0 0 0 0 
0 0 0 0 0 0 0 0 0 
0 0 0 0 0 0 0 0 0 
0 0 0 0 0 0 0 0 0 
0 0 0 0 0 0 0 0 0 
0 0 0 0 0 0 0 0 0 
0 0 0 0 0 0 0 0 0 
0 0 0 0 0 0 0 0 0 
0 0 0 0 0 0 0 0 0 
0 0 0 0 0 0 0 0 0 
0 0 0 0 0 0 0 0 0 
0 0 0 0 0 0 0 0 0 
0 0 0 0 0 0 0 0 0 
0 0 0 0 0 0 0 0 0 
0 0 0 0 0 0 0 0 0 
0 0 0 0 0 0 0 0 0 
0 0 0 0 0 0 0 0 0 
0 0 0 0 0 0 0 0 0 
0 0 0 0 0 0 0 0 0 
0 0 0 0 0 0 0 0 0 
0 0 0 0 0 0 0 0 0 
0 0 0 0 0 0 0 0 0 
0 0 0 0 0 0 0 0 0 
0 0 0 0 0 0 0 0 0 
0 0 0 0 0 0 
NORMALS Normals float
0.242096 0.433891 0.86783 0.0652209 0.452284 0.889486 -0.0187577 0.437816 0.898869 
-0.0902605 0.497738 0.862618 -0.0604744 0.556251 0.828811 -0.134287 0.583149 0.801189 
0.378997 0.239671 0.893823 0.147535 0.180478 0.972451 0.0408255 0.148824 0.988021 
-0.00933967 0.121651 0.992529 -0.0349843 0.148908 0.988232 -0.023198 0.173638 0.984536 
-0.066402 0.219951 0.973248 -0.223752 0.285829 0.931792 -0.387993 0.393484 0.833446 
0.302852 0.0522661 0.951603 0.140004 0.0162483 0.990018 0.022613 0.00214783 0.999742 
-0.0177958 -0.0429136 0.99892 -0.0309462 -0.0302567 0.999063 0.011651 -0.0485151 0.998755 
-0.0192206 0.0104242 0.999761 -0.100373 0.0896181 0.990906 -0.223729 0.230799 0.94693 
-0.375854 0.38702 0.841991 0.327156 0.132562 0.935626 0.182724 0.0497618 0.981904 
0.0924397 0.0234387 0.995442 -0.0181059 0.0531538 0.998422 -0.0431271 0.0369599 0.998386 
-0.0424071 0.0972887 0.994352 0.01434 -0.10806 0.994041 0.0708043 -0.0970661 0.992756 
0.0105653 0.0208829 0.999726 -0.0986229 0.0960611 0.990478 -0.25173 0.226813 0.940844 
0.234453 0.0789691 0.968915 0.189647 0.0441819 0.980858 0.149948 0.0436121 0.987732 
0.0364736 0.201519 0.978805 0.0358578 0.0775433 0.996344 -0.145125 0.0739019 0.98665 
-0.190797 0.161288 0.968288 0.111092 -0.088189 0.98989 0.0937002 -0.0389125 0.99484 
-0.00998496 0.0278623 0.999562 -0.167277 0.116579 0.978993 -0.315196 0.189473 0.92992 
0.257965 0.158256 0.953105 0.15269 0.102088 0.982987 0.13685 0.0391197 0.989819 
0.241494 -0.0534857 0.968927 0.0318341 -0.015106 0.999379 -0.221455 0.0672792 0.972847 
0.0914836 -0.0431963 0.994869 -0.198926 0.223749 0.95413 -0.118237 0.0182063 0.992818 
0.126352 -0.00758957 0.991956 0.0534213 0.0158626 0.998446 -0.105503 0.0478535 0.993267 
-0.300646 0.0903059 0.949451 0.219403 0.0746295 0.972776 0.149001 0.0594899 0.987046 
0.0389162 0.0602852 0.997422 0.0828914 -0.0191813 0.996374 0.159178 -0.211212 0.964392 
0.0104303 -0.0975462 0.995176 -0.026738 -0.141591 0.989564 -0.162228 -0.253558 0.95362 
-0.0841656 0.160748 0.9834 0.0928028 0.123474 0.987999 0.0457708 0.0678162 0.996647 
-0.0988354 0.0402386 0.99429 -0.287967 -0.0360788 0.956961 0.281667 0.00143266 0.959511 
0.123285 0.00530834 0.992357 0.0592683 0.0553915 0.996704 -0.0164145 0.0644117 0.997788 
-0.0499801 -0.0151837 0.998635 -0.120917 -0.126151 0.984614 -0.0364599 -0.113983 0.992813 
0.166224 -0.096127 0.981391 0.159254 0.117841 0.980179 0.0382291 0.124633 0.991466 
-0.0317921 0.0525758 0.998111 -0.202748 -0.0660175 0.977003 -0.369843 -0.172608 0.91292 
0.381432 -0.242876 0.89192 0.18449 -0.0673747 0.980522 0.0957151 -0.0158088 0.995283 
0.0142461 0.000841121 0.999898 -0.0456099 0.0403948 0.998142 -0.0851063 0.0449859 0.995356 
-0.0170393 0.10426 0.994404 0.105104 0.0664785 0.992237 0.130562 -0.0242072 0.991145 
0.0262317 -0.0573195 0.998011 -0.139585 -0.0779794 0.987135 -0.280732 -0.233181 0.93103 
-0.49664 -0.318126 0.807555 0.330746 -0.267441 0.905032 0.137638 -0.229032 0.963639 
0.0400407 -0.116148 0.992424 -0.00614182 -0.0996519 0.995003 -0.055551 -0.0754817 0.995599 
-0.0150654 -0.0575532 0.998229 0.0338939 -0.0977723 0.994631 0.0394416 -0.2344 0.97134 
-0.0242098 -0.317548 0.947933 -0.233993 -0.416817 0.878357 -0.39093 -0.49784 0.774163 
0.290317 -0.508115 0.810885 0.13049 -0.441936 0.887505 -0.00404361 -0.417329 0.908746 
-0.0274561 -0.355527 0.934262 -0.0483397 -0.35237 0.934612 -0.0977628 -0.447244 0.889053 
-0.0977159 -0.58016 0.80862 -0.146953 -0.699162 0.699698 0.251467 0.558809 0.790251 
0.0521611 0.613001 0.788358 -0.0347276 0.667507 0.743794 -0.107754 0.631287 0.768027 
-0.0594305 0.621792 0.780924 -0.139568 0.630021 0.763934 0.312389 0.50081 0.807219 
0.401108 0.421321 0.813389 0.447645 0.676409 0.584881 -0.185556 0.612042 0.768748 
-0.279034 0.528094 0.802033 -0.314615 0.733862 0.60205 -0.393513 0.411299 0.822181 
-0.515662 0.815905 0.261517 0.465492 0.258947 0.846324 0.618219 0.373236 0.691737 
-0.399261 0.403126 0.823456 -0.383593 0.395242 0.83465 -0.631051 0.647488 0.427241 
0.678983 0.381663 0.627149 0.356334 0.21178 0.910042 0.357402 0.224083 0.90667 
0.391872 0.286066 0.874416 -0.385989 0.393706 0.834271 -0.682877 0.60344 0.411751 
0.748419 0.377362 0.545405 0.383296 0.152858 0.910889 0.486465 0.264017 0.832854 
-0.429895 0.325342 0.842225 -0.429652 0.31781 0.84522 -0.487726 0.365436 0.79283 
0.660787 0.270801 0.700019 0.268727 0.163743 0.949197 0.265008 0.200436 0.943184 
0.301498 0.222197 0.927215 -0.482323 0.230655 0.845082 -0.65769 0.277436 0.700338 
0.365054 0.176238 0.914153 0.555865 0.17703 0.812204 -0.505335 0.0555322 0.861134 
-0.584597 0.058129 0.809238 0.496087 0.0538512 0.866601 0.527548 0.0518546 0.847941 
-0.525056 -0.0193383 0.850848 -0.573543 -0.0227024 0.818861 0.506625 -0.143482 0.850144 
0.556692 -0.156737 0.815798 -0.518804 -0.207682 0.829283 -0.64265 -0.240813 0.727331 
0.449223 -0.271441 0.851186 0.717477 -0.364156 0.593816 0.444605 -0.303111 0.842882 
-0.499962 -0.322972 0.803572 -0.501811 -0.328069 0.800347 -0.751165 -0.568882 0.334851 
0.457572 -0.352022 0.816522 0.595327 -0.487241 0.638892 0.381692 -0.502174 0.775972 
-0.289302 -0.687738 0.665824 -0.44887 -0.533616 0.716777 -0.410665 -0.565549 0.715198 
-0.638992 -0.749178 0.174419 0.334525 -0.560485 0.757595 0.455511 -0.763617 0.4576 
0.299371 -0.575206 0.761259 0.119817 -0.678951 0.724341 0.0562963 -0.62471 0.778825 
0.00600329 -0.603625 0.797246 -0.0876882 -0.577472 0.811687 -0.142262 -0.573908 0.806468 
-0.111192 -0.635822 0.763785 -0.166262 -0.712691 0.68149 -0.150661 -0.710743 0.687129 
-0.353982 -0.867298 0.349987 0.213132 -0.966244 0.14473 0.123791 -0.917232 0.37863 
0.0189363 -0.874794 0.484125 -0.100604 -0.881531 0.461282 -0.202424 -0.938463 0.279842 
0.463193 0.84503 0.267165 0.22864 0.969382 0.0895662 0.0212866 0.995369 0.0937392 
-0.0652883 0.996053 0.0601396 -0.0877045 0.990814 0.102939 -0.0974361 0.985367 0.139853 
-0.140673 0.978965 0.147782 -0.310244 0.925787 0.216026 -0.516196 0.824062 0.233374 
0.645409 0.714242 0.270751 0.67536 0.669322 0.309673 -0.523335 0.819228 0.23449 
-0.65093 0.698175 0.298062 0.719846 0.522086 0.457436 0.729299 0.465655 0.501287 
-0.66553 0.681671 0.303963 -0.707597 0.645125 0.288305 0.713313 0.441798 0.544059 
0.752531 0.381614 0.53672 -0.719885 0.629786 0.291779 0.757037 0.376571 0.533938 
-0.777088 0.548242 0.309136 -0.782068 0.54126 0.308881 -0.805419 0.584874 0.0960386 
0.789381 0.28035 0.546151 -0.851371 0.382313 0.359173 0.820523 0.181756 0.541947 
0.977441 0.14365 -0.154835 -0.891506 0.180399 0.41554 -0.972113 0.204692 -0.114447 
0.880003 0.00668534 0.474922 0.97902 -0.0769064 -0.188694 -0.90681 -0.12026 0.404021 
-0.958128 -0.122699 0.258719 0.881153 -0.22387 0.416474 -0.844583 -0.357367 0.398709 
0.86093 -0.392497 0.323644 0.788954 -0.556433 0.260641 -0.768414 -0.572714 0.285551 
-0.757132 -0.58839 0.283809 0.719412 -0.653978 0.234005 0.640508 -0.748075 0.173591 
-0.484328 -0.866451 0.121202 -0.63902 -0.75536 0.145207 -0.63514 -0.759368 0.141274 
-0.601061 -0.797851 -0.0464647 0.555011 -0.822784 0.122433 0.473977 -0.872221 0.120731 
0.333165 -0.93943 0.0804513 -0.258715 -0.943475 0.207175 -0.304383 -0.94062 0.150283 
-0.419013 -0.90208 0.10334 -0.384386 -0.916295 0.112476 0.217848 -0.966668 0.134518 
0.214159 -0.96716 0.136882 0.21713 -0.969459 0.114037 0.126193 -0.979778 0.155276 
0.0319508 -0.983822 0.176278 -0.0942259 -0.977682 0.187776 -0.219786 -0.955547 0.196532 
-0.202001 -0.95989 0.19444 -0.196667 -0.935704 -0.292882 0.362062 0.880161 -0.306966 
0.144613 0.895089 -0.421785 0.033694 0.91122 -0.410539 -0.0475605 0.922712 -0.382545 
-0.0639214 0.925565 -0.373152 -0.0457334 0.936984 -0.346366 -0.0906802 0.938887 -0.332065 
-0.258102 0.917123 -0.303759 -0.480717 0.842666 -0.242538 0.518097 0.818683 -0.247656 
0.566835 0.792434 -0.225269 0.264743 0.746158 -0.610868 0.102705 0.700861 -0.705865 
0.0734397 0.657693 -0.749698 -0.0307484 0.717584 -0.695793 -0.0553953 0.722014 -0.689658 
-0.10459 0.739788 -0.664661 -0.216862 0.802816 -0.55539 -0.48602 0.839878 -0.24164 
-0.479123 0.839072 -0.257682 -0.643769 0.736353 -0.208194 0.727382 0.670522 -0.145997 
0.744699 0.655681 -0.124521 0.420069 0.539615 -0.729628 -0.666199 0.717435 -0.203632 
-0.611972 0.685587 -0.394285 -0.709382 0.676723 -0.197037 0.823795 0.563912 -0.0580097 
0.849379 0.518714 -0.0974181 -0.726172 0.6588 -0.196611 -0.677858 0.630894 -0.377467 
-0.788027 0.594785 -0.158883 0.877762 0.467621 -0.10423 0.76487 0.455706 -0.455309 
-0.790677 0.5914 -0.158354 -0.78208 0.592551 -0.192962 0.940054 0.324239 -0.105676 
0.974201 0.14593 -0.172155 -0.889856 0.430266 -0.151749 -0.967197 0.208988 -0.144405 
0.974873 0.141703 -0.171882 0.973747 0.141851 -0.178033 -0.968247 0.20436 -0.143994 
-0.966975 0.204682 -0.151873 0.975074 -0.0787977 -0.207416 0.973983 -0.0853053 -0.209953 
0.974137 -0.0792421 -0.211606 -0.984582 -0.114783 -0.131995 -0.96753 -0.214907 -0.133041 
-0.956843 -0.1142 -0.267227 0.920748 -0.294409 -0.25602 -0.901484 -0.416551 -0.117523 
0.794361 -0.536797 -0.284323 0.731776 -0.604749 -0.314296 0.640804 -0.530299 -0.555116 
-0.54691 -0.8061 -0.226037 -0.752702 -0.635621 -0.17154 -0.736905 -0.65273 -0.175823 
-0.723605 -0.6435 -0.249606 0.660302 -0.661535 -0.355489 0.55124 -0.746694 -0.372267 
0.495721 -0.601697 -0.626275 0.308085 -0.542933 -0.781222 -0.541486 -0.808651 -0.229948 
-0.444864 -0.85161 -0.277229 -0.362633 -0.698659 -0.616744 0.475277 -0.779035 -0.40892 
0.464959 -0.785634 -0.408157 0.461178 -0.750083 -0.474015 0.326938 -0.850946 -0.411098 
0.289715 -0.679711 -0.673838 0.243458 -0.895205 -0.373278 -0.196568 -0.935227 -0.294469 
-0.264095 -0.917206 -0.298308 -0.306904 -0.901006 -0.306593 -0.249208 -0.776634 -0.578563 
-0.392647 -0.872977 -0.289378 -0.383945 -0.875684 -0.292854 -0.377224 -0.862866 -0.336399 
0.188429 -0.92282 -0.336002 0.162808 -0.931245 -0.326001 0.164798 -0.912626 -0.374107 
0.0450479 -0.95056 -0.307256 0.0454273 -0.889838 -0.454009 -0.196386 -0.935269 -0.294455 
-0.088879 -0.947186 -0.308121 -0.0867849 -0.89566 -0.436189 0.0126644 0.677424 -0.735484 
0.225931 0.56577 -0.793007 0.0964272 0.613351 -0.783902 0.028552 0.668895 -0.742809 
0.0740921 0.63623 -0.767934 -0.0193663 0.706227 -0.707721 0.0133389 0.674001 -0.73861 
-0.0305756 0.71504 -0.698414 -0.0599671 0.679507 -0.731214 -0.0976257 0.645982 -0.757084 
-0.176365 0.629372 -0.756826 -0.380167 0.571158 -0.727497 0.562671 0.412837 -0.716217 
0.3771 0.503132 -0.777595 0.384003 0.493775 -0.78021 0.223586 0.411939 -0.883355 
0.106597 0.388962 -0.915066 0.0668301 0.359293 -0.930829 0.0476992 0.384742 -0.921791 
-0.0341204 0.351947 -0.935398 -0.0619209 0.316057 -0.946717 -0.0663713 0.358384 -0.931212 
-0.141746 0.407331 -0.902214 -0.424037 0.552102 -0.717897 -0.363913 0.518253 -0.773939 
-0.47731 0.519882 -0.708447 0.599494 0.383036 -0.702774 0.530352 0.363663 -0.765817 
0.260831 0.259295 -0.92991 0.159242 0.170961 -0.972324 0.0592537 0.132397 -0.989424 
0.0802109 0.13668 -0.987363 0.0107095 0.126168 -0.991951 -0.108114 0.0680218 -0.991809 
-0.043409 0.0312106 -0.99857 -0.000873578 0.101184 -0.994867 -0.0746972 0.191448 -0.978656 
-0.175306 0.277799 -0.944508 -0.506637 0.494702 -0.706108 -0.416838 0.433259 -0.799083 
-0.516012 0.485909 -0.705425 0.535653 0.316436 -0.782907 0.611732 0.23713 -0.754688 
0.405927 0.18947 -0.894049 0.169906 0.138055 -0.975742 0.0831037 0.0156245 -0.996418 
0.0671114 -0.0210439 -0.997524 0.0660398 -0.00658454 -0.997795 -0.0169315 0.044862 -0.99885 
-0.140742 -0.0131998 -0.989958 -0.0240521 0.0054176 -0.999696 0.0975035 0.0109668 -0.995175 
0.0178006 0.113307 -0.993401 -0.0967456 0.190203 -0.976966 -0.250679 0.263774 -0.931441 
-0.529517 0.483972 -0.696694 -0.459706 0.437207 -0.772994 -0.648164 0.36907 -0.666087 
0.636979 0.147483 -0.756642 0.559328 0.130181 -0.818661 0.270336 0.116285 -0.955718 
0.142175 0.0949849 -0.985274 0.000726841 0.0418496 -0.999124 0.0384452 -0.00228484 -0.999258 
0.154557 0.108541 -0.982004 0.0101274 0.0386064 -0.999203 -0.141838 -0.0570666 -0.988244 
-0.0185327 0.201385 -0.979337 0.101037 0.0170534 -0.994736 0.111871 0.0517715 -0.992373 
-0.0184471 0.122183 -0.992336 -0.176913 0.190735 -0.965568 -0.337563 0.258169 -0.905207 
-0.670645 0.329204 -0.664726 -0.626739 0.323768 -0.708782 0.591549 -0.0472272 -0.804884 
0.577644 -0.0501648 -0.814746 0.297863 0.0645108 -0.952426 0.12728 0.030459 -0.991399 
-0.0121127 0.104086 -0.994494 0.132339 0.179557 -0.974806 -0.207576 -0.153682 -0.966071 
0.0596143 -0.00763987 -0.998192 -0.040352 -0.0246152 -0.998882 0.124519 0.00756704 -0.992188 
-0.273968 0.146776 -0.950473 -0.700003 0.168232 -0.694041 -0.574447 0.166205 -0.80149 
0.60366 0.0264702 -0.796802 0.580044 0.0307122 -0.814006 0.292076 -0.0459892 -0.955289 
0.170933 -0.0115149 -0.985215 0.152327 0.0800101 -0.985086 -0.17179 -0.152998 -0.97318 
0.0154657 0.0238912 -0.999595 -0.0475598 -0.178216 -0.982841 0.09238 -0.00399496 -0.995716 
0.173671 0.0072666 -0.984777 -0.243514 -0.0539297 -0.968397 -0.738369 -0.0628615 -0.671461 
-0.55902 -0.0489146 -0.82771 0.585432 -0.173043 -0.792039 0.562434 -0.249697 -0.788238 
0.541564 -0.159716 -0.825348 0.321574 -0.216644 -0.921767 0.236041 -0.123044 -0.963922 
0.11218 -0.106146 -0.988002 -0.188721 -0.176638 -0.966014 -0.0849029 -0.0357719 -0.995747 
0.0217487 -0.1309 -0.991157 0.0282523 -0.057025 -0.997973 0.133281 0.00647116 -0.991057 
0.147449 -0.0481574 -0.987897 -0.343088 -0.253284 -0.90451 -0.714761 -0.344051 -0.608889 
-0.621806 -0.46957 -0.626787 -0.586283 -0.347921 -0.731589 0.440594 -0.408167 -0.799548 
0.41022 -0.416613 -0.811266 0.400161 -0.378572 -0.834599 0.304793 -0.530996 -0.790661 
0.25526 -0.328652 -0.909302 0.136164 -0.290273 -0.947207 0.0243753 -0.235999 -0.971448 
-0.0690472 -0.159278 -0.984816 -0.104237 -0.0321443 -0.994033 -0.00509113 -0.0986688 -0.995107 
0.0846635 -0.0940859 -0.991958 0.0964834 -0.127725 -0.987105 0.0308197 -0.198294 -0.979658 
-0.0645671 -0.335866 -0.939694 -0.350485 -0.676746 -0.647438 -0.206242 -0.433365 -0.877302 
-0.505273 -0.588847 -0.63084 -0.461677 -0.62218 -0.632255 -0.433298 -0.522502 -0.734332 
0.300905 -0.531563 -0.791768 0.260221 -0.551427 -0.792599 0.219036 -0.417705 -0.881786 
0.106724 -0.362184 -0.925977 0.0282737 -0.27469 -0.961117 -0.0278338 -0.196404 -0.980128 
-0.0418523 -0.170745 -0.984426 0.00817679 -0.234761 -0.972019 0.0110774 -0.319831 -0.94741 
-0.194895 -0.654697 -0.730334 -0.095002 -0.431735 -0.896984 -0.338878 -0.676894 -0.653435 
-0.264684 -0.666202 -0.697221 -0.213987 -0.568959 -0.794038 0.185689 -0.572047 -0.798926 
0.183483 -0.572245 -0.799293 0.18257 -0.569653 -0.801351 0.11329 -0.578053 -0.808097 
0.0950686 -0.493579 -0.864489 0.0150373 -0.561522 -0.827325 0.00246346 -0.44759 -0.894235 
-0.0442571 -0.534059 -0.844288 -0.0361987 -0.433735 -0.900313 -0.0976853 -0.552791 -0.827574 
-0.0791465 -0.480578 -0.873373 -0.155737 -0.614831 -0.773129 -0.154712 -0.613544 -0.774356 
-0.153769 -0.611831 -0.775898 0.129149 0.166183 -0.977601 0.0165783 0.0484391 -0.998689 
-0.00665592 0.107308 -0.994204 -0.110411 0.111 -0.987668 0.127133 0.184059 -0.974659 
0.106343 0.135331 -0.985077 -0.154827 -0.0986853 -0.983 0.116562 0.175374 -0.977577 
0.026033 0.0182001 -0.999495 0.00872223 0.00950609 -0.999917 0.00778809 -0.0194732 -0.99978 
0.019417 0.0159996 -0.999683 0.0747929 0.0270693 -0.996832 0.0479482 0.0383582 -0.998113 
-0.118532 0.102718 -0.987623 -0.0960989 0.0952733 -0.990802 0.125747 0.100306 -0.986978 
0.0944848 0.115413 -0.988814 -0.156214 -0.1232 -0.98001 -0.175595 -0.139951 -0.974464 
-0.151116 -0.0953691 -0.983905 0.121634 0.011894 -0.992504 0.0692352 0.0175102 -0.997447 
-0.152158 -0.0206959 -0.98814 -0.0654879 0.00999392 -0.997803 -0.00351753 -0.129255 -0.991605 
-0.0356971 -0.136606 -0.989982 -0.0207966 -0.136547 -0.990415 -0.0222946 -0.132935 -0.990874 
0.107968 -0.0867979 -0.990358 0.0249065 -0.188863 -0.981688 0.05124 -0.137051 -0.989238 
-0.190787 -0.179962 -0.964994 -0.163104 -0.204579 -0.965165 -0.160593 -0.168188 -0.972586 

