# vtk DataFile Version 4.2
vtk output
ASCII
DATASET POLYDATA
POINTS 508 float
-17.4538 -21.3278 -15.8562 -9.4453 -21.3278 -17.1439 -1.43677 -21.3278 -17.3924 
6.57176 -21.3278 -17.3741 14.5803 -21.3278 -17.2903 22.5888 -21.3278 -17.2468 
30.5974 -21.3278 -16.4838 -33.4709 -13.3193 -16.7312 -25.4624 -13.3193 -17.332 
-17.4538 -13.3193 -18.2699 -9.4453 -13.3193 -19.9736 -1.43677 -13.3193 -19.0899 
6.57176 -13.3193 -19.1377 14.5803 -13.3193 -18.7758 22.5888 -13.3193 -19.0008 
30.5974 -13.3193 -19.2903 38.6059 -13.3193 -18.8879 -41.4794 -5.31078 -17.8838 
-33.4709 -5.31078 -19.0569 -25.4624 -5.31078 -19.3425 -17.4538 -5.31078 -19.7043 
-9.4453 -5.31078 -20.8025 -1.43677 -5.31078 -18.2077 6.57176 -5.31078 -20.9521 
14.5803 -5.31078 -19.8862 22.5888 -5.31078 -20.393 30.5974 -5.31078 -21.7569 
38.6059 -5.31078 -21.4042 46.6144 -5.31078 -18.7725 -49.488 2.69775 -15.8205 
-41.4794 2.69775 -19.6621 -33.4709 2.69775 -21.1812 -25.4624 2.69775 -21.4212 
-17.4538 2.69775 -21.3236 -9.4453 2.69775 -22.2362 -1.43677 2.69775 -22.0742 
6.57176 2.69775 -23.0695 14.5803 2.69775 -20.7455 22.5888 2.69775 -21.704 
30.5974 2.69775 -22.6033 38.6059 2.69775 -22.4781 46.6144 2.69775 -20.2704 
-49.488 10.7063 -16.981 -41.4794 10.7063 -20.8231 -33.4709 10.7063 -22.3777 
-25.4624 10.7063 -22.6682 -17.4538 10.7063 -21.9828 -9.4453 10.7063 -21.49 
-1.43677 10.7063 -22.3992 6.57176 10.7063 -22.341 14.5803 10.7063 -21.716 
22.5888 10.7063 -22.5268 30.5974 10.7063 -23.1922 38.6059 10.7063 -22.7735 
46.6144 10.7063 -20.2607 -49.488 18.7148 -15.7152 -41.4794 18.7148 -20.9351 
-33.4709 18.7148 -22.4966 -25.4624 18.7148 -23.0555 -17.4538 18.7148 -22.4944 
-9.4453 18.7148 -22.0074 -1.43677 18.7148 -21.854 6.57176 18.7148 -22.2595 
14.5803 18.7148 -22.5871 22.5888 18.7148 -23.0935 30.5974 18.7148 -23.2223 
38.6059 18.7148 -22.1912 46.6144 18.7148 -18.6092 -41.4794 26.7233 -18.915 
-33.4709 26.7233 -22.2951 -25.4624 26.7233 -23.0844 -17.4538 26.7233 -22.9309 
-9.4453 26.7233 -22.9971 -1.43677 26.7233 -23.2528 6.57176 26.7233 -23.4689 
14.5803 26.7233 -22.9587 22.5888 26.7233 -22.8348 30.5974 26.7233 -22.5489 
38.6059 26.7233 -18.9607 -33.4709 34.7319 -18.5328 -25.4624 34.7319 -21.4041 
-17.4538 34.7319 -21.8855 -9.4453 34.7319 -22.3878 -1.43677 34.7319 -22.754 
6.57176 34.7319 -22.6053 14.5803 34.7319 -21.8702 22.5888 34.7319 -21.0877 
30.5974 34.7319 -17.5576 -17.4538 42.7404 -16.7863 -9.4453 42.7404 -17.8344 
-1.43677 42.7404 -18.1287 6.57176 42.7404 -17.7007 14.5803 42.7404 -16.135 
-9.4453 -37.3449 -8.4612 -1.43677 -37.3449 -9.92138 6.57176 -37.3449 -10.5078 
14.5803 -37.3449 -9.72639 -33.4709 -29.3364 -7.90625 -25.4624 -29.3364 -10.5632 
-17.4538 -22.2075 -15.4988 -17.4538 -29.3364 -12.4413 -9.4453 -25.0812 -15.4988 
-9.4453 -29.3364 -13.5864 -1.43677 -27.2348 -15.4988 -1.43677 -29.3364 -14.7906 
6.57176 -28.588 -15.4988 6.57176 -29.3364 -15.2975 14.5803 -27.0954 -15.4988 
14.5803 -29.3364 -14.7466 22.5888 -26.0296 -15.4988 22.5888 -29.3364 -14.0607 
30.5974 -23.2613 -15.4988 30.5974 -29.3364 -11.747 38.6059 -29.3364 -7.56165 
-41.4794 -21.3278 -9.95641 -33.4709 -16.3717 -15.4988 -33.4709 -21.3278 -13.3831 
-20.0749 -21.3278 -15.4988 -25.4624 -19.0846 -15.4988 -25.4624 -21.3278 -14.7679 
35.4239 -21.3278 -15.4988 38.6059 -20.0826 -15.4988 38.6059 -21.3278 -14.7119 
46.6144 -21.3278 -9.0601 -49.488 -13.3193 -9.19436 -38.1488 -13.3193 -15.4988 
-41.4794 -11.2596 -15.4988 -41.4794 -13.3193 -14.5329 46.5952 -13.3193 -15.4988 
46.6144 -13.2973 -15.4988 46.6144 -13.3193 -15.4879 -46.7825 -5.31078 -15.4988 
-49.488 1.27597 -15.4988 -49.488 -5.31078 -13.8064 51.6523 -5.31078 -15.4988 
54.623 -5.31078 -12.35 -49.8694 2.69775 -15.4988 53.4121 2.69775 -15.4988 
54.623 2.69775 -14.0531 -50.9608 10.7063 -15.4988 52.9944 10.7063 -15.4988 
54.623 10.7063 -13.1201 -49.6986 18.7148 -15.4988 -49.488 19.1952 -15.4988 
50.1066 18.7148 -15.4988 46.6144 24.137 -15.4988 -45.1981 26.7233 -15.4988 
-41.4794 31.209 -15.4988 44.5014 26.7233 -15.4988 38.6059 31.8503 -15.4988 
46.6144 26.7233 -12.0977 -37.9817 34.7319 -15.4988 -33.4709 37.817 -15.4988 
-25.4624 41.8622 -15.4988 22.5888 40.939 -15.4988 34.5589 34.7319 -15.4988 
30.5974 36.9795 -15.4988 38.6059 34.7319 -8.31363 -22.2817 42.7404 -15.4988 
-17.4538 43.7071 -15.4988 -9.4453 44.4752 -15.4988 -1.43677 44.6644 -15.4988 
6.57176 44.3154 -15.4988 16.4462 42.7404 -15.4988 14.5803 43.2143 -15.4988 
-9.4453 -38.3255 -7.49028 -1.43677 -39.8633 -7.49028 6.57176 -40.2779 -7.49028 
14.5803 -39.3791 -7.49028 -33.4709 -29.8013 -7.49028 -25.4624 -33.1989 -7.49028 
-25.4624 -37.3449 -2.38958 -13.5072 -37.3449 -7.49028 -17.4538 -36.2234 -7.49028 
-17.4538 -37.3449 -6.28155 21.543 -37.3449 -7.49028 22.5888 -36.9871 -7.49028 
22.5888 -37.3449 -6.78887 30.5974 -33.646 -7.49028 38.6059 -29.3984 -7.49028 
-34.1943 -29.3364 -7.49028 -41.4794 -24.2656 -7.49028 -41.4794 -29.3364 0.0173278 
38.691 -29.3364 -7.49028 46.6144 -22.7925 -7.49028 -44.6959 -21.3278 -7.49028 
-49.488 -15.671 -7.49028 -49.488 -21.3278 -0.0184679 47.9979 -21.3278 -7.49028 
-51.0313 -13.3193 -7.49028 53.771 -13.3193 -7.49028 54.623 -11.6455 -7.49028 
54.623 -13.3193 -4.92362 -54.6876 -5.31078 -7.49028 57.4824 -5.31078 -7.49028 
-56.5422 2.69775 -7.49028 -57.4965 2.69775 -2.84835 58.4471 2.69775 -7.49028 
-56.0988 10.7063 -7.49028 57.4268 10.7063 -7.49028 54.623 18.5992 -7.49028 
-53.5353 18.7148 -7.49028 -49.488 25.6945 -7.49028 54.5754 18.7148 -7.49028 
-48.8064 26.7233 -7.49028 -41.4794 33.8142 -7.49028 48.5454 26.7233 -7.49028 
46.6144 28.5958 -7.49028 -40.1295 34.7319 -7.49028 -33.4709 38.7091 -7.49028 
-33.4709 34.7319 -0.789677 -25.4624 41.483 -7.49028 22.5888 42.1886 -7.49028 
30.5974 39.1733 -7.49028 38.9175 34.7319 -7.49028 38.6059 34.9464 -7.49028 
38.6059 34.7319 -6.71247 -21.0321 42.7404 -7.49028 -17.4538 43.6544 -7.49028 
-17.4538 42.7404 -5.78475 -9.4453 44.229 -7.49028 -9.4453 42.7404 -4.64241 
-1.43677 44.3469 -7.49028 -1.43677 42.7404 -4.40717 6.57176 44.1835 -7.49028 
6.57176 42.7404 -4.62149 19.5416 42.7404 -7.49028 14.5803 43.6069 -7.49028 
14.5803 42.7404 -5.60621 -25.4624 -39.0782 0.518247 -17.4538 -42.0212 0.518247 
-9.4453 -43.7751 0.518247 -1.43677 -44.5505 0.518247 6.57176 -44.1314 0.518247 
14.5803 -42.6716 0.518247 22.5888 -40.2973 0.518247 -41.4794 -29.6031 0.518247 
-29.1121 -37.3449 0.518247 -33.4709 -35.0494 0.518247 30.0566 -37.3449 0.518247 
30.5974 -37.1167 0.518247 38.6059 -32.4493 0.518247 -41.796 -29.3364 0.518247 
-49.488 -21.6229 0.518247 42.8821 -29.3364 0.518247 46.6144 -26.0588 0.518247 
-49.7321 -21.3278 0.518247 51.053 -21.3278 0.518247 54.623 -16.0407 0.518247 
-54.5363 -13.3193 0.518247 56.1639 -13.3193 0.518247 -57.3229 -5.31078 0.518247 
-57.4965 -3.66929 0.518247 59.3461 -5.31078 0.518247 -58.1483 2.69775 0.518247 
-57.4965 7.15147 0.518247 -57.4965 2.69775 4.55456 59.8178 2.69775 0.518247 
-56.9282 10.7063 0.518247 58.1142 10.7063 0.518247 54.623 18.1997 0.518247 
-53.2928 18.7148 0.518247 -49.488 23.8062 0.518247 -49.488 18.7148 8.31769 
54.3175 18.7148 0.518247 -46.344 26.7233 0.518247 -41.4794 30.3313 0.518247 
-41.4794 26.7233 5.23046 -33.4709 33.8115 0.518247 -33.4709 26.7233 8.45872 
38.6059 32.3671 0.518247 38.6059 26.7233 7.1688 47.3093 26.7233 0.518247 
46.6144 27.327 0.518247 46.6144 26.7233 1.48616 -30.3213 34.7319 0.518247 
-25.4624 36.3982 0.518247 -25.4624 34.7319 2.05278 -17.4538 38.0895 0.518247 
-17.4538 34.7319 3.56758 -9.4453 39.0217 0.518247 -9.4453 34.7319 4.44009 
-1.43677 39.2339 0.518247 -1.43677 34.7319 4.64214 6.57176 39.1748 0.518247 
6.57176 34.7319 4.48434 14.5803 38.9058 0.518247 14.5803 34.7319 4.30927 
22.5888 37.9047 0.518247 22.5888 34.7319 3.58241 32.7005 34.7319 0.518247 
30.5974 35.5121 0.518247 30.5974 34.7319 1.46198 -25.4624 -40.2936 8.52678 
-17.4538 -43.4276 8.52678 -9.4453 -44.9873 8.52678 -1.43677 -45.2835 8.52678 
6.57176 -44.2357 8.52678 14.5803 -41.947 8.52678 22.5888 -39.0444 8.52678 
-41.4794 -30.3043 8.52678 -31.1077 -37.3449 8.52678 -33.4709 -35.9845 8.52678 
-25.4624 -37.3449 15.9552 26.4504 -37.3449 8.52678 22.5888 -37.3449 11.3314 
30.5974 -35.278 8.52678 38.6059 -30.7617 8.52678 -42.6008 -29.3364 8.52678 
-49.488 -22.099 8.52678 -41.4794 -29.3364 11.9497 30.5974 -29.3364 15.9751 
40.6173 -29.3364 8.52678 38.6059 -29.3364 10.7685 46.6144 -24.3533 8.52678 
-50.1023 -21.3278 8.52678 -49.488 -21.3278 10.4746 49.4207 -21.3278 8.52678 
46.6144 -21.3278 12.4826 54.623 -13.6896 8.52678 -54.6224 -13.3193 8.52678 
54.8386 -13.3193 8.52678 54.623 -13.3193 8.91053 -56.7827 -5.31078 8.52678 
58.0755 -5.31078 8.52678 54.623 -5.31078 13.8318 -56.8049 2.69775 8.52678 
57.8316 2.69775 8.52678 54.623 2.69775 13.4375 -54.638 10.7063 8.52678 
-49.488 18.5485 8.52678 -49.488 10.7063 14.9859 46.6144 10.7063 15.9244 
55.2549 10.7063 8.52678 54.623 11.8533 8.52678 54.623 10.7063 9.37264 
-49.3018 18.7148 8.52678 -41.4794 23.8803 8.52678 -41.4794 18.7148 14.2801 
-33.4709 26.6588 8.52678 -33.4709 18.7148 16.1439 -25.4624 18.7148 16.0963 
-17.4538 18.7148 15.4319 -9.4453 18.7148 14.752 -1.43677 18.7148 13.9061 
6.57176 18.7148 13.8228 14.5803 18.7148 13.7341 22.5888 18.7148 14.4999 
30.5974 18.7148 14.6464 38.6059 25.4394 8.52678 38.6059 18.7148 13.8685 
49.1802 18.7148 8.52678 46.6144 21.1317 8.52678 46.6144 18.7148 10.5968 
-32.9015 26.7233 8.52678 -25.4624 27.6603 8.52678 -25.4624 26.7233 9.37475 
-17.4538 28.5055 8.52678 -17.4538 26.7233 9.86022 -9.4453 29.2243 8.52678 
-9.4453 26.7233 10.162 -1.43677 29.0797 8.52678 -1.43677 26.7233 9.9481 
6.57176 28.2829 8.52678 6.57176 26.7233 9.36889 14.5803 28.0351 8.52678 
14.5803 26.7233 9.28462 22.5888 28.6094 8.52678 22.5888 26.7233 9.80512 
34.628 26.7233 8.52678 30.5974 27.9748 8.52678 30.5974 26.7233 9.54086 
-17.4538 -40.3124 16.5353 -9.4453 -41.9799 16.5353 -1.43677 -42.199 16.5353 
6.57176 -40.6148 16.5353 14.5803 -37.6386 16.5353 -33.4709 -32.9081 16.5353 
-24.7938 -37.3449 16.5353 -25.4624 -37.0282 16.5353 -17.4538 -37.3449 19.7357 
-9.4453 -37.3449 20.9565 -1.43677 -37.3449 21.2338 6.57176 -37.3449 19.8161 
[...]
POINT_DATA 508
SCALARS ImageScalars float
LOOKUP_TABLE default
0 0 0 0 0 0 0 0 0 
0 0 0 0 0 0 0 0 0 
0 0 0 0 0 0 0 0 0 
0 0 0 0 0 0 0 0 0 
0 0 0 0 0 0 0 0 0 
0 0 0 0 0 0 0 0 0 
0 0 0 0 0 0 0 0 0 
0 0 0 0 0 0 0 0 0 
0 0 0 0 0 0 0 0 0 
0 0 0 0 0 0 0 0 0 
0 0 0 0 0 0 0 0 0 
0 0 0 0 0 0 0 0 0 
0 0 0 0 0 0 0 0 0 
0 0 0 0 0 0 0 0 0 
0 0 0 0 0 0 0 0 0 
0 0 0 0 0 0 0 0 0 
0 0 0 0 0 0 0 0 0 
0 0 0 0 0 0 0 0 0 
0 0 0 0 0 0 0 0 0 
0 0 0 0 0 0 0 0 0 
0 0 0 0 0 0 0 0 0 
0 0 0 0 0 0 0 0 0 
0 0 0 0 0 0 0 0 0 
0 0 0 0 0 0 0 0 0 
0 0 0 0 0 0 0 0 0 
0 0 0 0 0 0 0 0 0 
0 0 0 0 0 0 0 0 0 
0 0 0 0 0 0 0 0 0 
0 0 0 0 0 0 0 0 0 
0 0 0 0 0 0 0 0 0 
0 0 0 0 0 0 0 0 0 
0 0 0 0 0 0 0 0 0 
0 0 0 0 0 0 0 0 0 
0 0 0 0 0 0 0 0 0 
0 0 0 0 0 0 0 0 0 
0 0 0 0 0 0 0 0 0 
0 0 0 0 0 0 0 0 0 
0 0 0 0 0 0 0 0 0 
0 0 0 0 0 0 0 0 0 
0 0 0 0 0 0 0 0 0 
0 0 0 0 0 0 0 0 0 
0 0 0 0 0 0 0 0 0 
0 0 0 0 0 0 0 0 0 
0 0 0 0 0 0 0 0 0 
0 0 0 0 0 0 0 0 0 
0 0 0 0 0 0 0 0 0 
0 0 0 0 0 0 0 0 0 
0 0 0 0 0 0 0 0 0 
0 0 0 0 0 0 0 0 0 
0 0 0 0 0 0 0 0 0 
0 0 0 0 0 0 0 0 0 
0 0 0 0 0 0 0 0 0 
0 0 0 0 0 0 0 0 0 
0 0 0 0 0 0 0 0 0 
0 0 0 0 0 0 0 0 0 
0 0 0 0 0 0 0 0 0 
0 0 0 0 
NORMALS Normals float
0.136905 0.333084 0.932905 0.0900211 0.374617 0.922799 0.0130252 0.258566 0.965906 
-0.00632162 0.231558 0.972801 -0.00769472 0.235401 0.971868 -0.0463601 0.284142 0.957661 
-0.133306 0.397834 0.907721 0.152829 0.324375 0.933501 0.0897307 0.263017 0.960609 
0.160409 0.227656 0.960438 0.0465665 0.213436 0.975847 -0.0508255 0.0479686 0.997555 
-0.0192434 0.215529 0.976308 -0.00842273 0.160315 0.98703 0.0311 0.193108 0.980684 
-0.00650947 0.306213 0.951941 -0.197797 0.354983 0.913709 0.273056 0.278289 0.920867 
0.0884798 0.262418 0.960889 0.039254 0.24997 0.967458 0.0909898 0.188213 0.977904 
-0.095765 0.140141 0.985489 0.00253729 0.14449 0.989503 0.106565 0.240611 0.964754 
-0.0330654 0.123946 0.991738 0.114424 0.165295 0.979584 0.0644942 0.202343 0.977189 
-0.163489 0.220687 0.961545 -0.422823 0.258622 0.868525 0.566351 0.149031 0.810578 
0.287392 0.176612 0.941389 0.102793 0.201491 0.974082 0.00851324 0.199206 0.979921 
0.0502059 0.138306 0.989116 0.0486903 0.0429629 0.99789 0.0549889 0.283861 0.957287 
-0.0960524 0.0828826 0.99192 -0.0819131 0.113195 0.99019 0.115253 0.131857 0.984546 
0.0470727 0.0883923 0.994973 -0.129568 0.0787744 0.988437 -0.420848 0.0812255 0.903487 
0.612811 -0.00513347 0.790213 0.288159 0.077721 0.954423 0.106799 0.0803826 0.991026 
-0.0249712 0.100885 0.994585 -0.0738672 0.0730384 0.99459 0.0228078 -0.0156533 0.999617 
0.0551883 -0.018171 0.998311 -0.0433954 -0.0501682 0.997798 0.0113844 0.114013 0.993414 
0.0918613 0.0853523 0.992107 0.0144884 0.0382013 0.999165 -0.163343 -0.0130493 0.986483 
-0.45439 -0.0751317 0.887629 0.745013 -0.23897 0.622775 0.360066 -0.0811784 0.929388 
0.135648 -0.00369155 0.99075 -0.000834426 0.0257245 0.999669 -0.0637004 0.059066 0.99622 
-0.04082 0.0961069 0.994534 0.0162449 0.049409 0.998646 0.045565 0.0695336 0.996538 
0.0520499 0.077356 0.995644 0.0393369 0.0197302 0.999031 -0.0509379 -0.033757 0.998131 
-0.234637 -0.221142 0.946595 -0.553985 -0.320971 0.768165 0.538463 -0.403363 0.739835 
0.217346 -0.221392 0.950656 0.0345824 -0.0871431 0.995595 -0.00516808 -0.0386684 0.999239 
0.0191021 0.0234101 0.999543 0.0304084 0.0610475 0.997672 -0.0193559 0.0263515 0.999465 
-0.0392351 -0.0432156 0.998295 -0.0234267 -0.116077 0.992964 -0.206903 -0.285075 0.935908 
-0.428735 -0.441478 0.788215 0.41998 -0.602647 0.678553 0.209514 -0.395869 0.894087 
0.0571245 -0.30736 0.949877 0.0574979 -0.26036 0.963798 0.0139421 -0.247893 0.968687 
-0.0578867 -0.284499 0.956927 -0.090556 -0.330874 0.93932 -0.232654 -0.400783 0.88614 
-0.403582 -0.630501 0.663016 0.14048 -0.871444 0.469948 0.0709062 -0.83326 0.548315 
-0.00646989 -0.835512 0.549434 -0.100239 -0.85091 0.515659 -0.195253 -0.879243 0.434521 
0.167872 0.668673 0.724359 0.0993298 0.656272 0.747958 -0.00875812 0.676677 0.736228 
-0.154427 0.718279 0.678401 0.359977 0.649232 0.67001 0.230354 0.557568 0.797531 
0.137983 0.346078 0.928004 0.160274 0.477746 0.863754 0.109369 0.399655 0.910118 
0.131321 0.440495 0.888098 0.0740573 0.353098 0.932651 0.0948886 0.39206 0.915033 
-0.00273905 0.3412 0.939987 -0.00269952 0.354752 0.934957 -0.0476667 0.348063 0.936259 
-0.0682684 0.398484 0.914631 -0.101184 0.386017 0.916926 -0.149636 0.48295 0.862768 
-0.168489 0.439119 0.882488 -0.297722 0.622042 0.724173 -0.475813 0.721958 0.502373 
0.466936 0.5541 0.689162 0.181454 0.36917 0.911476 0.241244 0.45579 0.856771 
0.13664 0.343494 0.929162 0.123871 0.335301 0.933932 0.138612 0.370678 0.91836 
-0.241803 0.481349 0.842517 -0.294338 0.506978 0.810147 -0.321228 0.539218 0.778496 
-0.605397 0.607142 0.514659 0.652408 0.462546 0.600345 0.263378 0.376101 0.888358 
0.323225 0.376504 0.868199 0.351737 0.41278 0.840174 -0.502728 0.416886 0.757279 
-0.503225 0.416583 0.757115 -0.503548 0.417051 0.756642 0.470854 0.283685 0.835356 
0.569279 0.169709 0.804438 0.599759 0.293693 0.744335 -0.614707 0.27574 0.738987 
-0.774131 0.273046 0.57111 0.581575 0.14494 0.800476 -0.706494 0.0463244 0.706202 
-0.779319 0.031099 0.625856 0.687691 -0.0196047 0.725739 -0.731186 -0.137392 0.6682 
-0.835048 -0.166051 0.524521 0.752819 -0.239312 0.613183 0.749484 -0.253784 0.611447 
-0.685778 -0.379009 0.621338 -0.637137 -0.509586 0.578255 0.657366 -0.500693 0.563184 
0.624739 -0.604323 0.494464 -0.598785 -0.556749 0.57575 -0.518697 -0.659913 0.54357 
-0.684863 -0.639059 0.350094 0.571599 -0.680685 0.458195 0.470825 -0.768571 0.433153 
0.330365 -0.900907 0.28147 -0.315679 -0.851524 0.418633 -0.490421 -0.700639 0.518258 
-0.44262 -0.729732 0.521133 -0.549473 -0.834676 0.0373506 0.259742 -0.917027 0.302647 
0.156174 -0.917824 0.364978 0.0647023 -0.935701 0.346811 -0.0111456 -0.943055 0.332451 
-0.0940192 -0.934352 0.343725 -0.224327 -0.894758 0.386115 -0.197644 -0.90009 0.388297 
0.16703 0.702326 0.691982 0.0942817 0.743291 0.66229 -0.0285877 0.789252 0.613403 
-0.172229 0.797911 0.577646 0.36613 0.662416 0.65357 0.266152 0.657089 0.705264 
0.339695 0.822035 0.457019 0.195617 0.688027 0.698822 0.215587 0.670509 0.709887 
0.229863 0.721098 0.653591 -0.273615 0.792019 0.545748 -0.286576 0.788485 0.544211 
-0.294989 0.813273 0.501566 -0.355617 0.761343 0.54212 -0.476933 0.723557 0.498998 
0.377428 0.658275 0.651323 0.505618 0.617614 0.602414 0.60801 0.747897 0.26641 
-0.478419 0.722813 0.498655 -0.625874 0.641026 0.44426 0.5705 0.576054 0.585399 
0.681049 0.493349 0.541091 0.762028 0.60664 0.226498 -0.650028 0.616514 0.444269 
0.71954 0.456591 0.523247 -0.796421 0.447405 0.406869 -0.824225 0.407787 0.39289 
-0.847228 0.447893 0.285652 0.841272 0.280955 0.461873 -0.894538 0.257461 0.365398 
0.917001 0.0737232 0.392012 0.985915 0.0144093 0.166623 -0.94445 -0.0049267 0.328619 
0.943971 -0.16645 0.28498 -0.942238 -0.219278 0.253191 -0.87274 -0.456614 0.172709 
0.899347 -0.395583 0.18625 0.820546 -0.566312 0.077422 -0.871032 -0.460361 0.17138 
0.799065 -0.598383 0.058592 0.58082 -0.810185 -0.0790474 -0.724101 -0.681899 0.103395 
-0.690758 -0.718085 0.0848942 0.548202 -0.829079 -0.110008 0.405556 -0.892094 -0.199229 
0.298436 -0.791874 -0.532796 0.289234 -0.928096 -0.23448 -0.256722 -0.957536 -0.131219 
-0.408047 -0.909043 -0.0844828 -0.548919 -0.835862 -0.00472346 -0.5433 -0.839504 -0.00753724 
-0.536472 -0.842614 -0.0468936 0.225318 -0.94048 -0.254417 0.165776 -0.948925 -0.268438 
0.154308 -0.922294 -0.35435 0.0430488 -0.96201 -0.2696 0.0460777 -0.91204 -0.407504 
-0.00289719 -0.96315 -0.268949 0.000929924 -0.909207 -0.416343 -0.046462 -0.966795 -0.251293 
-0.0359525 -0.918507 -0.393767 -0.208335 -0.965295 -0.157486 -0.125299 -0.970891 -0.204133 
-0.111441 -0.947191 -0.300681 0.368024 0.871348 0.324516 0.269736 0.898684 0.345847 
0.141825 0.9313 0.335509 0.0182284 0.96174 0.273356 -0.11116 0.973088 0.20185 
-0.22772 0.964268 0.13539 -0.335037 0.93711 0.0978506 0.611039 0.75243 0.245928 
0.419874 0.856148 0.30119 0.486132 0.83018 0.272904 -0.425211 0.902227 0.0719874 
-0.431988 0.899179 0.06974 -0.545383 0.836492 0.0532746 0.617344 0.747628 0.244824 
0.765048 0.610449 0.205067 -0.616576 0.78516 0.0579539 -0.689225 0.722234 0.0578506 
0.769251 0.605459 0.20414 -0.771314 0.634058 0.055187 -0.866021 0.497545 0.0495577 
0.890462 0.421692 0.171035 -0.900484 0.432035 0.0497317 0.973261 0.202544 0.10835 
0.983631 0.156635 0.0890793 -0.974077 0.22364 0.0340392 0.999661 -0.0219835 0.0139751 
0.988146 -0.152308 -0.0192179 0.987481 -0.0582063 -0.146605 -0.996916 -0.0706512 -0.0341534 
0.963149 -0.262954 -0.0565696 -0.945728 -0.304687 -0.112982 -0.823242 -0.53043 -0.202278 
0.828923 -0.517226 -0.212988 0.714515 -0.634356 -0.295061 0.624966 -0.59327 -0.507394 
-0.80903 -0.548363 -0.211586 0.598893 -0.699191 -0.39046 0.440219 -0.761831 -0.475207 
0.389413 -0.721588 -0.572423 0.268104 -0.762481 -0.588848 0.152902 -0.708125 -0.689334 
-0.40472 -0.799902 -0.443124 -0.288526 -0.695035 -0.658543 -0.609461 -0.731156 -0.306543 
-0.59283 -0.741473 -0.314277 -0.57901 -0.73489 -0.353107 0.243264 -0.743945 -0.622389 
0.209037 -0.718736 -0.663115 0.184978 -0.69742 -0.692379 0.112557 -0.728745 -0.675471 
0.11117 -0.661524 -0.741638 0.0505196 -0.741954 -0.668545 0.0519572 -0.644731 -0.762642 
0.00684621 -0.743775 -0.668395 0.00194085 -0.631794 -0.775134 -0.0149867 -0.740183 -0.672238 
-0.0165878 -0.614252 -0.788935 -0.0582721 -0.755963 -0.652016 -0.0434133 -0.631256 -0.774358 
-0.1691 -0.759388 -0.628279 -0.125767 -0.680276 -0.722085 -0.298828 -0.795996 -0.526395 
-0.26521 -0.793621 -0.547566 -0.249552 -0.77663 -0.57842 0.410819 0.907693 -0.0855606 
0.280193 0.956479 -0.0814821 0.110132 0.990598 -0.0811555 -0.044298 0.992963 -0.109829 
-0.196853 0.965005 -0.173246 -0.305673 0.91708 -0.255986 -0.364993 0.871156 -0.328433 
0.639506 0.764838 -0.0778152 0.487995 0.868609 -0.085908 0.521925 0.848702 -0.0854361 
0.36431 0.774505 -0.517127 -0.398628 0.852565 -0.337978 -0.369607 0.81032 -0.454722 
-0.433831 0.826237 -0.359337 -0.513975 0.783839 -0.348462 0.66182 0.745411 -0.0797339 
0.794669 0.59699 -0.11002 0.630689 0.740674 -0.231591 -0.334423 0.595963 -0.730061 
-0.544752 0.764332 -0.345023 -0.49581 0.744295 -0.447433 -0.65364 0.68201 -0.328049 
0.804452 0.583412 -0.111749 0.792766 0.578954 -0.190614 -0.706412 0.627545 -0.327367 
-0.614024 0.602028 -0.510428 -0.841255 0.437939 -0.317016 0.916573 0.370821 -0.149618 
-0.845843 0.429409 -0.316476 -0.839782 0.428456 -0.333455 0.967753 0.121724 -0.22054 
-0.918176 0.170926 -0.357404 -0.780566 0.142502 -0.608614 0.942707 -0.102711 -0.317419 
-0.903222 -0.151901 -0.401392 -0.762556 -0.177588 -0.622069 0.82413 -0.395152 -0.40579 
0.622802 -0.590377 -0.513393 0.605084 -0.454137 -0.653937 -0.395402 -0.436147 -0.808352 
-0.790065 -0.380163 -0.480909 -0.768005 -0.410818 -0.491322 -0.765942 -0.388505 -0.512247 
0.615311 -0.595927 -0.516007 0.349789 -0.703128 -0.619078 0.318529 -0.643555 -0.695971 
0.152212 -0.707616 -0.690008 0.0665737 -0.60589 -0.792758 -0.0370894 -0.573853 -0.818118 
-0.0710064 -0.524054 -0.84872 -0.0828331 -0.492705 -0.866245 -0.0499393 -0.469576 -0.881478 
-0.00965952 -0.617412 -0.78658 0.0370775 -0.529395 -0.847565 0.0482817 -0.47901 -0.876481 
-0.0329561 -0.524242 -0.850931 -0.260618 -0.665274 -0.699635 -0.186789 -0.554538 -0.810924 
-0.549943 -0.593034 -0.58811 -0.471294 -0.629246 -0.618006 -0.454175 -0.596056 -0.66215 
0.146482 -0.705434 -0.693474 0.0775782 -0.669358 -0.738879 0.0660796 -0.667992 -0.741228 
0.0600014 -0.599607 -0.798042 0.0382849 -0.590511 -0.806121 0.0223523 -0.556921 -0.830264 
0.00341438 -0.527667 -0.849444 -0.0299809 -0.520445 -0.853369 -0.0449336 -0.484138 -0.873837 
-0.0339926 -0.481384 -0.875851 -0.0361106 -0.463477 -0.885373 0.0137764 -0.494156 -0.869264 
0.02374 -0.479629 -0.87715 -0.00950336 -0.56411 -0.825645 0.0137214 -0.539061 -0.842155 
-0.196866 -0.648187 -0.735593 -0.132954 -0.625976 -0.768425 -0.116143 -0.604418 -0.788156 
0.252605 0.789581 -0.559243 0.101117 0.810157 -0.577426 -0.071626 0.814183 -0.576173 
-0.231937 0.767566 -0.597534 -0.351719 0.685023 -0.637994 0.435763 0.737411 -0.516078 
0.348986 0.756503 -0.553093 0.354409 0.752275 -0.555406 0.225149 0.651523 -0.724449 
0.0756634 0.585606 -0.807056 -0.0589359 0.583024 -0.810314 -0.219187 0.626898 -0.747633 
-0.353166 0.679231 -0.643366 -0.351204 0.67304 -0.650901 -0.328446 0.589116 -0.738286 
0.536348 0.693547 -0.480961 0.589194 0.652194 -0.476963 0.360363 0.615414 -0.701002 
0.192008 0.461921 -0.865888 0.107582 0.301648 -0.94733 -0.166715 0.280981 -0.945122 
-0.285402 0.365259 -0.886076 -0.321747 0.570044 -0.755995 -0.300726 0.473184 -0.828046 
-0.318092 0.564634 -0.761581 -0.39405 0.530554 -0.750491 0.69949 0.520411 -0.489781 
0.748416 0.410811 -0.52068 0.486424 0.441701 -0.753852 -0.199474 0.13907 -0.969984 
-0.20731 0.231292 -0.95054 -0.208932 0.365746 -0.90696 -0.441299 0.500519 -0.744806 
-0.358699 0.459677 -0.812423 -0.521243 0.42143 -0.742093 0.776238 0.29108 -0.55922 
0.710317 0.256304 -0.655559 -0.147321 -0.0315678 -0.988585 -0.0882796 0.0552896 -0.99456 
-0.100213 0.143837 -0.984514 -0.263633 0.227654 -0.937375 -0.564299 0.348922 -0.748211 
-0.488868 0.325972 -0.809167 0.782202 0.0217815 -0.622644 0.629587 0.0119265 -0.776838 
0.276678 -0.0866477 -0.957048 -0.0865691 -0.246927 -0.96516 -0.0691967 -0.219659 -0.97312 
-0.0575538 -0.157675 -0.985812 -0.0271675 -0.105149 -0.994085 -0.0397401 -0.0716643 -0.996637 
-0.164089 -0.011077 -0.986383 -0.638929 0.108377 -0.761593 -0.424953 0.0565724 -0.903446 
0.698775 -0.217986 -0.681319 0.599465 -0.381085 -0.703858 0.603555 -0.220877 -0.766117 
0.223229 -0.246796 -0.943006 -0.00692086 -0.256868 -0.966422 -0.084541 -0.272596 -0.958407 
-0.0121617 -0.299927 -0.953885 -0.0327207 -0.362383 -0.931455 -0.0457072 -0.348207 -0.936303 
0.0164608 -0.179076 -0.983698 -0.0346744 -0.220124 -0.974856 -0.00290868 -0.26689 -0.963722 
-0.00634488 -0.224776 -0.97439 -0.144526 -0.226324 -0.96327 -0.564085 -0.204946 -0.799878 
-0.389105 -0.398643 -0.83047 -0.372817 -0.211221 -0.903545 0.501448 -0.453665 -0.736708 
0.298993 -0.562518 -0.770829 0.255901 -0.433162 -0.864226 0.0629846 -0.591908 -0.803541 
0.0605784 -0.415371 -0.907633 -0.041541 -0.556683 -0.829686 -0.0696335 -0.367856 -0.927272 
-0.0811524 -0.483761 -0.87143 -0.087731 -0.364603 -0.927021 -0.07768 -0.476759 -0.875595 
-0.0562044 -0.44393 -0.894297 0.0314287 -0.457483 -0.888663 0.0906544 -0.428422 -0.899019 
0.00776465 -0.614426 -0.788937 0.0547923 -0.406624 -0.911951 -0.0531714 -0.51955 -0.852784 
-0.138079 -0.456049 -0.879177 0.0291681 -0.437458 -0.898766 -0.00714834 -0.393198 -0.919426 
-0.0189156 -0.480652 -0.876707 1.53614e-05 -0.400056 -0.916491 -0.339578 -0.432743 -0.835117 
-0.171374 -0.477803 -0.861589 -0.163256 -0.418002 -0.893656 0.0661973 0.245766 -0.967066 
-0.0328536 0.256156 -0.966077 0.223451 0.279942 -0.93365 0.0976986 0.281774 -0.954494 
0.0668222 0.245453 -0.967103 0.0573026 0.223604 -0.972994 0.06616 0.244643 -0.967353 
-0.080472 0.246791 -0.965722 -0.0319223 0.227042 -0.973362 -0.140379 0.196932 -0.970315 
0.224816 0.279207 -0.933542 0.348096 0.127693 -0.928722 0.222816 0.277794 -0.934443 
0.0564513 0.193675 -0.97944 -0.00707064 0.130294 -0.99145 -0.00114473 0.0687857 -0.997631 
-0.00863205 0.0472287 -0.998847 -0.152286 0.109203 -0.982285 -0.104013 0.0841506 -0.99101 
0.351331 0.119093 -0.928646 0.33752 0.0932412 -0.936689 0.344624 0.117871 -0.931311 
0.0928011 0.0317166 -0.995179 0.0172032 -0.0245429 -0.999551 -0.024395 -0.0572697 -0.998061 
-0.0242067 -0.00922448 -0.999664 -0.0817853 -0.233947 -0.968803 -0.0191668 -0.0636436 -0.997789 
-0.133812 -0.042026 -0.990115 -0.073644 -0.15981 -0.984397 -0.0756742 -0.0830168 -0.993671 
0.170231 -0.118226 -0.978286 0.0446682 -0.182763 -0.982142 0.075775 -0.141893 -0.986978 
-0.0458551 -0.215966 -0.975324 -0.0358567 -0.195467 -0.980055 0.00941333 -0.239134 -0.970941 
0.00967347 -0.237484 -0.971343 -0.0785487 -0.23945 -0.967726 -0.0145527 -0.228942 -0.973331 
-0.00770646 -0.173181 -0.98486 
