# vtk DataFile Version 4.2
vtk output
ASCII
DATASET POLYDATA
POINTS 564 float
-33.8623 -35.7348 -15.5003 -25.8948 -35.7348 -15.2809 -17.9273 -35.7348 -14.6069 
-49.7973 -27.7673 -13.6675 -41.8298 -27.7673 -16.3498 -33.8623 -27.7673 -18.2641 
-25.8948 -27.7673 -17.8697 -17.9273 -27.7673 -17.6164 -9.95983 -27.7673 -16.3421 
-1.99234 -27.7673 -15.9214 5.97515 -27.7673 -15.908 13.9426 -27.7673 -15.6209 
21.9101 -27.7673 -15.6271 29.8776 -27.7673 -16.3891 37.8451 -27.7673 -15.507 
45.8126 -27.7673 -15.007 -49.7973 -19.7998 -16.4754 -41.8298 -19.7998 -18.2721 
-33.8623 -19.7998 -18.4447 -25.8948 -19.7998 -18.3858 -17.9273 -19.7998 -18.2518 
-9.95983 -19.7998 -16.9745 -1.99234 -19.7998 -16.3203 5.97515 -19.7998 -16.6553 
13.9426 -19.7998 -16.9112 21.9101 -19.7998 -16.7082 29.8776 -19.7998 -17.6014 
37.8451 -19.7998 -18.0589 45.8126 -19.7998 -16.7857 53.7801 -19.7998 -14.8213 
-57.7648 -11.8323 -13.9224 -49.7973 -11.8323 -16.6596 -41.8298 -11.8323 -19.2437 
-33.8623 -11.8323 -18.584 -25.8948 -11.8323 -18.0376 -17.9273 -11.8323 -17.3138 
-9.95983 -11.8323 -18.8616 -1.99234 -11.8323 -18.0464 5.97515 -11.8323 -18.5387 
13.9426 -11.8323 -16.3973 21.9101 -11.8323 -16.805 29.8776 -11.8323 -17.9352 
37.8451 -11.8323 -18.6813 45.8126 -11.8323 -18.3884 53.7801 -11.8323 -16.8761 
-57.7648 -3.86486 -13.7911 -49.7973 -3.86486 -16.7864 -41.8298 -3.86486 -18.0727 
-33.8623 -3.86486 -18.395 -25.8948 -3.86486 -17.2304 -17.9273 -3.86486 -15.7416 
-9.95983 -3.86486 -20.6633 -1.99234 -3.86486 -16.0666 5.97515 -3.86486 -20.5709 
13.9426 -3.86486 -18.3674 21.9101 -3.86486 -17.0158 29.8776 -3.86486 -18.4399 
37.8451 -3.86486 -19.2727 45.8126 -3.86486 -19.345 53.7801 -3.86486 -17.0029 
-49.7973 4.10263 -16.0704 -41.8298 4.10263 -18.4778 -33.8623 4.10263 -17.9076 
-25.8948 4.10263 -16.8852 -17.9273 4.10263 -15.4056 -9.95983 4.10263 -19.9728 
-1.99234 4.10263 -17.1802 5.97515 4.10263 -20.2449 13.9426 4.10263 -17.5751 
21.9101 4.10263 -17.3656 29.8776 4.10263 -18.7763 37.8451 4.10263 -19.5419 
45.8126 4.10263 -19.1492 53.7801 4.10263 -16.446 -49.7973 12.0701 -15.0486 
-41.8298 12.0701 -16.835 -33.8623 12.0701 -17.2904 -25.8948 12.0701 -17.1822 
-17.9273 12.0701 -17.0885 -9.95983 12.0701 -18.1189 -1.99234 12.0701 -18.5174 
5.97515 12.0701 -18.0954 13.9426 12.0701 -16.6424 21.9101 12.0701 -17.3787 
29.8776 12.0701 -18.5684 37.8451 12.0701 -18.939 45.8126 12.0701 -18.0833 
53.7801 12.0701 -14.9076 -41.8298 20.0376 -15.6142 -33.8623 20.0376 -16.961 
-25.8948 20.0376 -18.4313 -17.9273 20.0376 -18.4622 -9.95983 20.0376 -17.9836 
-1.99234 20.0376 -17.4968 5.97515 20.0376 -18.1 13.9426 20.0376 -18.1331 
21.9101 20.0376 -18.0173 29.8776 20.0376 -18.3352 37.8451 20.0376 -17.8483 
45.8126 20.0376 -16.3955 -33.8623 28.0051 -15.3603 -25.8948 28.0051 -17.3995 
-17.9273 28.0051 -18.2986 -9.95983 28.0051 -17.8911 -1.99234 28.0051 -18.2185 
5.97515 28.0051 -18.7814 13.9426 28.0051 -18.5663 21.9101 28.0051 -17.7745 
29.8776 28.0051 -17.5296 37.8451 28.0051 -14.9032 -25.8948 35.9726 -14.849 
-17.9273 35.9726 -16.3319 -9.95983 35.9726 -17.0021 -1.99234 35.9726 -17.1473 
5.97515 35.9726 -17.6434 13.9426 35.9726 -17.4382 21.9101 35.9726 -15.7038 
-1.99234 43.9401 -13.8224 5.97515 43.9401 -14.0445 -33.8623 -38.6155 -13.6346 
-25.8948 -38.1474 -13.6346 -17.9273 -36.9363 -13.6346 -49.7973 -27.8758 -13.6346 
-49.7973 -35.7348 -9.57454 -40.0011 -35.7348 -13.6346 -41.8298 -34.3205 -13.6346 
-41.8298 -35.7348 -12.8063 -12.2085 -35.7348 -13.6346 -9.95983 -34.9372 -13.6346 
-9.95983 -35.7348 -13.159 -1.99234 -33.293 -13.6346 -1.99234 -35.7348 -11.8229 
5.97515 -32.7958 -13.6346 5.97515 -35.7348 -11.0777 13.9426 -31.9181 -13.6346 
13.9426 -35.7348 -10.4524 21.9101 -32.4418 -13.6346 21.9101 -35.7348 -11.1688 
29.8776 -32.9842 -13.6346 29.8776 -35.7348 -11.2437 37.8451 -31.1133 -13.6346 
37.8451 -35.7348 -9.98408 45.8126 -30.4077 -13.6346 45.8126 -35.7348 -8.81164 
-49.8727 -27.7673 -13.6346 -57.7648 -27.7673 -7.70503 48.5152 -27.7673 -13.6346 
53.7801 -22.3334 -13.6346 53.7801 -27.7673 -10.8918 -54.7137 -19.7998 -13.6346 
-57.7648 -12.6856 -13.6346 -57.7648 -19.7998 -10.9762 56.5806 -19.7998 -13.6346 
61.7476 -19.7998 -10.6674 -58.1553 -11.8323 -13.6346 59.5135 -11.8323 -13.6346 
61.7476 -11.8323 -11.6322 -57.9948 -3.86486 -13.6346 -57.7648 -2.9322 -13.6346 
60.7301 -3.86486 -13.6346 61.7476 -3.86486 -12.5813 -55.447 4.10263 -13.6346 
-57.7648 4.10263 -12.3525 58.5438 4.10263 -13.6346 61.7476 4.10263 -9.33359 
-52.1243 12.0701 -13.6346 -57.7648 12.0701 -9.76091 -49.7973 15.2168 -13.6346 
55.2624 12.0701 -13.6346 53.7801 14.7176 -13.6346 -46.23 20.0376 -13.6346 
-49.7973 20.0376 -11.2905 -41.8298 24.6439 -13.6346 50.5811 20.0376 -13.6346 
45.8126 25.0507 -13.6346 53.7801 20.0376 -10.0342 -37.8556 28.0051 -13.6346 
-41.8298 28.0051 -11.4238 -33.8623 32.0416 -13.6346 29.8776 35.6711 -13.6346 
41.0517 28.0051 -13.6346 37.8451 30.0258 -13.6346 45.8126 28.0051 -10.725 
-29.1771 35.9726 -13.6346 -33.8623 35.9726 -10.9648 -25.8948 37.6604 -13.6346 
-17.9273 40.761 -13.6346 -9.95983 42.6818 -13.6346 13.9426 42.5407 -13.6346 
29.3144 35.9726 -13.6346 21.9101 38.8202 -13.6346 29.8776 35.9726 -13.4164 
37.8451 35.9726 -7.27346 -17.9273 43.9401 -10.1737 -3.60414 43.9401 -13.6346 
-9.95983 43.9401 -12.4277 -1.99234 44.144 -13.6346 8.36604 43.9401 -13.6346 
5.97515 44.3651 -13.6346 13.9426 43.9401 -11.9312 21.9101 43.9401 -6.79013 
-49.7973 -37.7489 -5.66713 -41.8298 -41.8838 -5.66713 -33.8623 -43.4876 -5.66713 
-25.8948 -43.448 -5.66713 -17.9273 -42.8653 -5.66713 -9.95983 -40.998 -5.66713 
-1.99234 -39.5798 -5.66713 5.97515 -38.7776 -5.66713 13.9426 -38.4715 -5.66713 
21.9101 -38.9797 -5.66713 29.8776 -38.7864 -5.66713 37.8451 -38.7172 -5.66713 
45.8126 -37.2737 -5.66713 -52.2052 -35.7348 -5.66713 -57.7648 -29.2213 -5.66713 
49.6592 -35.7348 -5.66713 53.7801 -33.5419 -5.66713 -58.9025 -27.7673 -5.66713 
59.743 -27.7673 -5.66713 61.7476 -25.3262 -5.66713 -62.3097 -19.7998 -5.66713 
64.6402 -19.7998 -5.66713 -64.9875 -11.8323 -5.66713 65.0649 -11.8323 -5.66713 
-65.7187 -3.86486 -5.66713 65.1178 -3.86486 -5.66713 -63.9263 4.10263 -5.66713 
63.3137 4.10263 -5.66713 61.7476 8.50698 -5.66713 -61.2638 12.0701 -5.66713 
-57.7648 17.5941 -5.66713 60.3904 12.0701 -5.66713 -55.8872 20.0376 -5.66713 
-49.7973 26.5158 -5.66713 56.4228 20.0376 -5.66713 53.7801 23.8955 -5.66713 
-48.2795 28.0051 -5.66713 -49.7973 28.0051 2.05279 -41.8298 33.738 -5.66713 
50.1285 28.0051 -5.66713 45.8126 31.9546 -5.66713 -39.0948 35.9726 -5.66713 
-33.8623 39.4583 -5.66713 -25.8948 43.521 -5.66713 29.8776 41.1547 -5.66713 
39.6027 35.9726 -5.66713 37.8451 36.9464 -5.66713 -24.7826 43.9401 -5.66713 
-17.9273 46.2608 -5.66713 -9.95983 47.8879 -5.66713 -1.99234 48.7426 -5.66713 
5.97515 48.6823 -5.66713 13.9426 47.2699 -5.66713 23.2557 43.9401 -5.66713 
21.9101 44.4637 -5.66713 -49.7973 -36.7033 2.30036 -41.8298 -41.6691 2.30036 
-33.8623 -42.8792 2.30036 -25.8948 -42.8715 2.30036 -17.9273 -42.1064 2.30036 
-9.95983 -40.2652 2.30036 -1.99234 -38.9404 2.30036 5.97515 -38.0852 2.30036 
13.9426 -37.7624 2.30036 21.9101 -38.5329 2.30036 29.8776 -38.7442 2.30036 
37.8451 -39.0934 2.30036 45.8126 -38.7035 2.30036 -50.997 -35.7348 2.30036 
-57.7648 -27.9565 2.30036 -49.7973 -35.7348 3.96367 5.97515 -35.7348 10.0096 
13.9426 -35.7348 7.74578 21.9101 -35.7348 8.48478 51.5501 -35.7348 2.30036 
45.8126 -35.7348 8.69644 53.7801 -34.5914 2.30036 -57.8997 -27.7673 2.30036 
-57.7648 -27.7673 2.51466 61.0716 -27.7673 2.30036 61.7476 -26.7086 2.30036 
-61.8768 -19.7998 2.30036 -57.7648 -19.7998 8.17017 65.2631 -19.7998 2.30036 
-64.6224 -11.8323 2.30036 65.6199 -11.8323 2.30036 -65.129 -3.86486 2.30036 
64.3366 -3.86486 2.30036 61.7476 -3.86486 7.34114 -64.3109 4.10263 2.30036 
62.5736 4.10263 2.30036 61.7476 6.16294 2.30036 61.7476 4.10263 3.90764 
-61.7033 12.0701 2.30036 -57.7648 18.9144 2.30036 59.1723 12.0701 2.30036 
-57.0131 20.0376 2.30036 55.1618 20.0376 2.30036 53.7801 22.1762 2.30036 
53.7801 20.0376 4.69169 -49.8383 28.0051 2.30036 -49.7973 28.049 2.30036 
-49.7973 28.0051 2.40263 -41.8298 34.4567 2.30036 49.2406 28.0051 2.30036 
45.8126 31.3622 2.30036 45.8126 28.0051 7.64151 -39.4646 35.9726 2.30036 
-33.8623 39.2733 2.30036 -25.8948 43.1509 2.30036 29.8776 40.8828 2.30036 
39.3687 35.9726 2.30036 37.8451 36.8902 2.30036 37.8451 35.9726 4.29519 
-23.5745 43.9401 2.30036 -17.9273 45.88 2.30036 -17.9273 43.9401 7.08177 
-9.95983 47.8403 2.30036 -1.99234 48.9416 2.30036 5.97515 48.556 2.30036 
13.9426 46.7295 2.30036 13.9426 43.9401 8.23197 22.532 43.9401 2.30036 
21.9101 44.2061 2.30036 21.9101 43.9401 2.89964 -41.8298 -36.2744 10.2678 
-33.8623 -37.9465 10.2678 -25.8948 -39.3211 10.2678 -17.9273 -37.9115 10.2678 
-9.95983 -36.719 10.2678 -1.99234 -36.2956 10.2678 29.8776 -35.7765 10.2678 
37.8451 -36.0495 10.2678 -42.7788 -35.7348 10.2678 -49.7973 -29.7272 10.2678 
-41.8298 -35.7348 10.7556 -33.8623 -35.7348 12.4333 -25.8948 -35.7348 13.3303 
-17.9273 -35.7348 12.5414 -9.95983 -35.7348 11.5525 4.88493 -35.7348 10.2678 
-1.99234 -35.7348 11.0735 5.97515 -35.6433 10.2678 13.9426 -34.6042 10.2678 
29.55 -35.7348 10.2678 21.9101 -34.6693 10.2678 29.8776 -35.7348 10.3155 
40.3231 -35.7348 10.2678 37.8451 -35.7348 10.6939 45.8126 -34.6991 10.2678 
53.7801 -30.7332 10.2678 -51.3861 -27.7673 10.2678 -49.7973 -27.7673 11.3756 
-41.8298 -27.7673 14.5177 -33.8623 -27.7673 16.8434 -25.8948 -27.7673 17.4916 
-17.9273 -27.7673 17.7265 -9.95983 -27.7673 17.0854 -1.99234 -27.7673 17.8396 
5.97515 -27.7673 17.8888 13.9426 -27.7673 16.3494 21.9101 -27.7673 16.4271 
29.8776 -27.7673 17.3819 37.8451 -27.7673 17.2042 45.8126 -27.7673 16.5544 
56.8725 -27.7673 10.2678 53.7801 -27.7673 13.076 61.7476 -20.2105 10.2678 
-55.1967 -19.7998 10.2678 -57.7648 -15.6882 10.2678 -49.7973 -19.7998 13.6838 
-41.8298 -19.7998 16.7937 -33.8623 -19.7998 18.1281 53.7801 -19.7998 16.3942 
61.9854 -19.7998 10.2678 61.7476 -19.7998 10.518 -59.2619 -11.8323 10.2678 
-57.7648 -11.8323 11.587 -49.7973 -11.8323 15.9161 -41.8298 -11.8323 17.8375 
[...]
POINT_DATA 564
SCALARS ImageScalars float
LOOKUP_TABLE default
0 0 0 0 0 0 0 0 0 
0 0 0 0 0 0 0 0 0 
0 0 0 0 0 0 0 0 0 
0 0 0 0 0 0 0 0 0 
0 0 0 0 0 0 0 0 0 
0 0 0 0 0 0 0 0 0 
0 0 0 0 0 0 0 0 0 
0 0 0 0 0 0 0 0 0 
0 0 0 0 0 0 0 0 0 
0 0 0 0 0 0 0 0 0 
0 0 0 0 0 0 0 0 0 
0 0 0 0 0 0 0 0 0 
0 0 0 0 0 0 0 0 0 
0 0 0 0 0 0 0 0 0 
0 0 0 0 0 0 0 0 0 
0 0 0 0 0 0 0 0 0 
0 0 0 0 0 0 0 0 0 
0 0 0 0 0 0 0 0 0 
0 0 0 0 0 0 0 0 0 
0 0 0 0 0 0 0 0 0 
0 0 0 0 0 0 0 0 0 
0 0 0 0 0 0 0 0 0 
0 0 0 0 0 0 0 0 0 
0 0 0 0 0 0 0 0 0 
0 0 0 0 0 0 0 0 0 
0 0 0 0 0 0 0 0 0 
0 0 0 0 0 0 0 0 0 
0 0 0 0 0 0 0 0 0 
0 0 0 0 0 0 0 0 0 
0 0 0 0 0 0 0 0 0 
0 0 0 0 0 0 0 0 0 
0 0 0 0 0 0 0 0 0 
0 0 0 0 0 0 0 0 0 
0 0 0 0 0 0 0 0 0 
0 0 0 0 0 0 0 0 0 
0 0 0 0 0 0 0 0 0 
0 0 0 0 0 0 0 0 0 
0 0 0 0 0 0 0 0 0 
0 0 0 0 0 0 0 0 0 
0 0 0 0 0 0 0 0 0 
0 0 0 0 0 0 0 0 0 
0 0 0 0 0 0 0 0 0 
0 0 0 0 0 0 0 0 0 
0 0 0 0 0 0 0 0 0 
0 0 0 0 0 0 0 0 0 
0 0 0 0 0 0 0 0 0 
0 0 0 0 0 0 0 0 0 
0 0 0 0 0 0 0 0 0 
0 0 0 0 0 0 0 0 0 
0 0 0 0 0 0 0 0 0 
0 0 0 0 0 0 0 0 0 
0 0 0 0 0 0 0 0 0 
0 0 0 0 0 0 0 0 0 
0 0 0 0 0 0 0 0 0 
0 0 0 0 0 0 0 0 0 
0 0 0 0 0 0 0 0 0 
0 0 0 0 0 0 0 0 0 
0 0 0 0 0 0 0 0 0 
0 0 0 0 0 0 0 0 0 
0 0 0 0 0 0 0 0 0 
0 0 0 0 0 0 0 0 0 
0 0 0 0 0 0 0 0 0 
0 0 0 0 0 0 
NORMALS Normals float
-0.109556 -0.464506 -0.878767 0.052038 -0.465376 -0.883582 0.10912 -0.531916 -0.839737 
-0.373715 -0.349598 -0.859138 -0.237225 -0.267774 -0.933821 -0.0952625 -0.196581 -0.975849 
0.0371923 -0.170503 -0.984655 0.100999 -0.198874 -0.974807 0.102605 -0.188109 -0.976774 
0.0274769 -0.219571 -0.975209 0.0177789 -0.257007 -0.966246 0.0185245 -0.283929 -0.958666 
-0.0420997 -0.264294 -0.963523 0.0047353 -0.325616 -0.94549 0.0707197 -0.396281 -0.915401 
0.248046 -0.352658 -0.902278 -0.351028 -0.143553 -0.925295 -0.135853 -0.177147 -0.974763 
-0.00655907 -0.0191497 -0.999795 0.0120307 -0.00994566 -0.999878 0.0880389 0.0215516 -0.995884 
0.119409 -0.146666 -0.981952 0.0196216 -0.127138 -0.991691 -0.0363066 -0.151562 -0.987781 
-0.00323466 -0.0478635 -0.998849 -0.0425584 -0.0710433 -0.996565 -0.0879307 -0.0872815 -0.992295 
0.0456092 -0.178755 -0.982836 0.185109 -0.179922 -0.966107 0.323766 -0.313474 -0.892698 
-0.497412 -0.137734 -0.856511 -0.286829 -0.0198095 -0.957777 -0.10957 0.0154513 -0.993859 
0.0733272 0.00312817 -0.997303 0.0796381 0.0723864 -0.994192 -0.0425771 0.155534 -0.986913 
-0.0524865 -0.201456 -0.97809 0.0202368 -0.0170752 -0.999649 0.0969521 -0.217442 -0.971246 
0.105414 -0.068461 -0.992069 -0.0976727 -0.0201634 -0.995014 -0.114231 -0.0532819 -0.992024 
-0.0290925 -0.0790856 -0.996443 0.0980612 -0.158019 -0.982555 0.363224 -0.118011 -0.924198 
-0.487526 0.0794461 -0.869486 -0.230737 0.034953 -0.972388 -0.0945526 0.0444 -0.994529 
0.0525672 0.0423234 -0.99772 0.167871 0.0735745 -0.98306 -0.107009 0.125709 -0.986279 
-0.11294 -0.0945496 -0.989093 -0.00859236 0.0827617 -0.996532 -0.130693 -0.122515 -0.983824 
0.215764 -0.084507 -0.972782 -0.02478 -0.0339197 -0.999117 -0.140933 -0.0524385 -0.988629 
-0.0565673 -0.0544018 -0.996916 0.151496 -0.0469948 -0.98734 0.358292 0.0262978 -0.933239 
-0.31914 0.0917147 -0.943259 -0.106477 0.0694533 -0.991886 0.0974756 0.0687468 -0.992861 
0.149174 0.00294658 -0.988807 -0.0854263 -0.0844037 -0.992763 -0.16006 0.171804 -0.972041 
-0.0561397 -0.182337 -0.981632 -0.0134081 0.168189 -0.985664 0.163021 0.10956 -0.980521 
-0.0778259 -0.0227805 -0.996707 -0.134996 -0.00793492 -0.990814 -0.0246227 0.0201752 -0.999493 
0.191195 0.0742793 -0.978737 0.424802 0.10625 -0.899029 -0.362695 0.251039 -0.897459 
-0.121715 0.187514 -0.974692 -0.0197666 0.060853 -0.997951 0.0122173 -0.0942602 -0.995473 
-0.0592363 -0.187321 -0.980511 -0.0880698 0.0823324 -0.992706 3.63097e-06 -0.000187882 -1 
0.115994 0.105212 -0.987662 0.0409951 -0.0476179 -0.998024 -0.120625 -0.0415911 -0.991826 
-0.0968658 0.0271665 -0.994927 0.0254146 0.110451 -0.993557 0.207505 0.178527 -0.961806 
0.540854 0.287925 -0.790302 -0.293608 0.259405 -0.920056 -0.174178 0.106883 -0.978896 
-0.0989628 -0.015987 -0.994963 0.0283001 -0.0703642 -0.99712 0.0604154 0.0141712 -0.998073 
-0.00738407 0.0144157 -0.999869 -0.0404635 -0.0432644 -0.998244 0.00521762 -0.116145 -0.993219 
-0.0121436 -0.0251343 -0.99961 0.0123591 0.0585182 -0.99821 0.118616 0.222252 -0.967747 
0.331569 0.315103 -0.889254 -0.311237 0.300148 -0.901689 -0.171733 0.200288 -0.964569 
-0.0282706 0.128815 -0.991266 0.00608419 0.0639408 -0.997935 -0.0557448 0.0177983 -0.998286 
-0.0222163 0.0238277 -0.999469 0.0627204 0.0444558 -0.997041 0.0621176 0.123781 -0.990363 
0.161162 0.281165 -0.94603 0.294406 0.448183 -0.844072 -0.261104 0.471805 -0.842155 
-0.12348 0.374744 -0.918869 -0.0497513 0.277915 -0.959316 -0.0393945 0.256939 -0.965624 
-0.016901 0.272206 -0.962091 0.103056 0.315951 -0.943162 0.248474 0.443349 -0.861221 
-0.0672407 0.639596 -0.765765 0.064117 0.663455 -0.745464 -0.116923 -0.61835 -0.777157 
0.0763368 -0.610295 -0.788488 0.124163 -0.584726 -0.801673 -0.374963 -0.3528 -0.857283 
-0.552791 -0.681628 -0.47938 -0.235526 -0.519081 -0.821634 -0.268971 -0.482788 -0.833409 
-0.285961 -0.565887 -0.773303 0.126281 -0.584373 -0.801599 0.126059 -0.562576 -0.817079 
0.136673 -0.622296 -0.770759 0.0574794 -0.500334 -0.863923 0.0875985 -0.70438 -0.704398 
0.0410339 -0.519139 -0.853704 0.0545833 -0.781533 -0.621472 0.0134933 -0.504096 -0.863542 
-0.0039781 -0.83303 -0.553214 -0.0325835 -0.499881 -0.865481 -0.0303171 -0.766904 -0.641046 
0.0503129 -0.544522 -0.837236 0.0544405 -0.757228 -0.650877 0.0735255 -0.527542 -0.846341 
0.0824962 -0.808003 -0.583374 0.253145 -0.457769 -0.852271 0.270665 -0.819914 -0.504461 
-0.376169 -0.350141 -0.857845 -0.776211 -0.524805 -0.349393 0.328454 -0.386378 -0.861876 
0.358922 -0.351337 -0.864718 0.49325 -0.496564 -0.714233 -0.534837 -0.184992 -0.824456 
-0.51342 -0.144225 -0.845931 -0.706412 -0.256953 -0.659513 0.424594 -0.304791 -0.852539 
0.708258 -0.29488 -0.641418 -0.513119 -0.1391 -0.846971 0.604935 -0.106696 -0.789094 
0.749662 -0.068954 -0.658219 -0.49596 0.0788645 -0.864757 -0.492537 0.0925386 -0.865358 
0.669085 0.04313 -0.741933 0.753533 0.0570562 -0.654929 -0.467281 0.168894 -0.867827 
-0.574897 0.206365 -0.791774 0.631066 0.202496 -0.748833 0.880354 0.265966 -0.392732 
-0.437256 0.277061 -0.855596 -0.69338 0.363747 -0.622023 -0.424652 0.31974 -0.847017 
0.606113 0.322731 -0.726961 0.596698 0.351823 -0.72123 -0.416837 0.343169 -0.841713 
-0.535251 0.459727 -0.70863 -0.389643 0.391287 -0.83371 0.553294 0.396403 -0.732619 
0.426591 0.510754 -0.746425 0.751283 0.488357 -0.443939 -0.382585 0.398923 -0.83336 
-0.490624 0.52819 -0.693039 -0.369833 0.437618 -0.819582 0.311183 0.568453 -0.761595 
0.35725 0.525851 -0.771915 0.329804 0.524566 -0.784895 0.530234 0.662902 -0.528594 
-0.326327 0.517103 -0.791275 -0.464143 0.648731 -0.603092 -0.286175 0.556202 -0.78022 
-0.190064 0.594062 -0.781643 -0.112916 0.62724 -0.770597 0.209134 0.662104 -0.719639 
0.311918 0.570725 -0.759592 0.292381 0.573967 -0.764902 0.319013 0.58571 -0.7451 
0.464287 0.823057 -0.327132 -0.23908 0.833208 -0.498603 -0.0791299 0.651357 -0.754634 
-0.130597 0.728072 -0.672945 -0.0667845 0.65013 -0.756882 0.114593 0.687913 -0.71669 
0.0658347 0.68467 -0.725874 0.23487 0.777602 -0.583242 0.346207 0.898788 -0.268924 
-0.576608 -0.797913 -0.175665 -0.343315 -0.908639 -0.237719 -0.0789821 -0.982759 -0.167172 
0.0371913 -0.985854 -0.163429 0.146112 -0.968314 -0.202534 0.210863 -0.952807 -0.218392 
0.14096 -0.965634 -0.218362 0.0704023 -0.976975 -0.201403 -0.0118959 -0.978482 -0.20599 
-0.0198532 -0.97271 -0.231175 0.0163843 -0.973085 -0.229864 0.0889178 -0.946509 -0.310184 
0.278656 -0.910655 -0.305056 -0.66304 -0.725631 -0.183948 -0.796672 -0.572456 -0.193928 
0.376147 -0.870459 -0.317514 0.504485 -0.776236 -0.378091 -0.816754 -0.54428 -0.191501 
0.722924 -0.572368 -0.38701 0.805103 -0.480459 -0.347805 -0.895102 -0.346917 -0.280072 
0.911641 -0.260684 -0.317735 -0.954209 -0.184311 -0.235616 0.951779 -0.0336725 -0.304932 
-0.96832 0.0528529 -0.244056 0.977208 0.111563 -0.180607 -0.914542 0.248007 -0.319539 
0.948583 0.276095 -0.154794 0.931183 0.338812 -0.134553 -0.840059 0.420855 -0.342319 
-0.766826 0.54796 -0.334241 0.90907 0.393881 -0.135832 -0.725517 0.598487 -0.339761 
-0.678421 0.647747 -0.346653 0.839119 0.520672 -0.157417 0.782279 0.601074 -0.163554 
-0.675235 0.654143 -0.340814 -0.708091 0.702028 0.0759206 -0.603664 0.738265 -0.300923 
0.699407 0.688861 -0.190528 0.606055 0.76613 -0.213873 -0.576285 0.77564 -0.257446 
-0.510382 0.828755 -0.229511 -0.380019 0.901994 -0.204918 0.408098 0.885061 -0.223884 
0.492686 0.838085 -0.234254 0.472938 0.846967 -0.24285 -0.361449 0.910704 -0.199931 
-0.257481 0.944047 -0.206103 -0.160268 0.955257 -0.248592 -0.0488059 0.96411 -0.260978 
0.0880661 0.96988 -0.227104 0.265573 0.944089 -0.195362 0.353344 0.913263 -0.202729 
0.345658 0.916203 -0.202714 -0.581473 -0.762617 0.28338 -0.338784 -0.900075 0.274028 
-0.0625916 -0.962038 0.26564 0.0465492 -0.979682 0.19508 0.159901 -0.953699 0.254733 
0.189377 -0.953779 0.233326 0.133323 -0.974086 0.182705 0.072469 -0.981535 0.177022 
-0.027553 -0.975786 0.216984 -0.060988 -0.971546 0.228865 -0.0341427 -0.987708 0.152536 
0.000123171 -0.987446 0.157958 0.260826 -0.958969 0.111123 -0.612697 -0.738229 0.28217 
-0.796641 -0.521327 0.305911 -0.573252 -0.725828 0.380204 0.0908007 -0.895694 0.435302 
0.0224463 -0.913447 0.406337 -0.0619054 -0.862501 0.502255 0.416744 -0.8975 0.144282 
0.283763 -0.804391 0.521952 0.490218 -0.860063 0.14134 -0.798477 -0.517658 0.30735 
-0.795932 -0.515737 0.31703 0.822582 -0.550982 0.140635 0.852841 -0.500701 0.148192 
-0.886419 -0.386728 0.254366 -0.638472 -0.373892 0.672725 0.963694 -0.235512 0.12581 
-0.937585 -0.183682 0.295289 0.981883 0.0556823 0.181124 -0.954609 0.0181694 0.297307 
0.949491 0.188382 0.250957 0.826022 0.209808 0.523134 -0.956274 0.197938 0.215317 
0.920552 0.281029 0.271307 0.899626 0.32513 0.291483 0.888597 0.295306 0.350984 
-0.898301 0.405743 0.168606 -0.817432 0.560644 0.132222 0.837747 0.432059 0.333924 
-0.800033 0.58641 0.126766 0.807028 0.50082 0.312866 0.788627 0.533872 0.305039 
0.773344 0.486501 0.406517 -0.707068 0.70163 0.0881491 -0.706509 0.702181 0.0882468 
-0.706827 0.70122 0.0931993 -0.555607 0.822193 0.123691 0.714942 0.646516 0.266224 
0.6478 0.721202 0.245403 0.636256 0.588042 0.499385 -0.522337 0.840117 0.146177 
-0.464082 0.868237 0.175478 -0.362787 0.910299 0.199353 0.396042 0.893328 0.212403 
0.519955 0.829675 0.203191 0.497463 0.845184 0.195433 0.496929 0.819169 0.286399 
-0.339613 0.918894 0.200742 -0.285912 0.936762 0.201821 -0.2857 0.870754 0.400204 
-0.18228 0.96881 0.16787 -0.0432943 0.98769 0.150316 0.131457 0.973492 0.187168 
0.263216 0.936387 0.232158 0.270686 0.820028 0.504264 0.34866 0.911356 0.218784 
0.345175 0.912608 0.219092 0.343675 0.906375 0.245706 -0.298446 -0.634016 0.713409 
-0.147559 -0.699594 0.699139 0.00636751 -0.760887 0.648853 0.131853 -0.764663 0.630797 
0.0856452 -0.824184 0.559808 0.0612164 -0.875336 0.479625 -0.0728444 -0.812134 0.578906 
0.0433844 -0.841561 0.538417 -0.322375 -0.615898 0.718849 -0.496885 -0.41809 0.760464 
-0.304736 -0.609252 0.732085 -0.13937 -0.62713 0.766345 -0.00550508 -0.615631 0.788016 
0.0851599 -0.684548 0.723977 0.06852 -0.783631 0.617436 0.0871888 -0.888957 0.449614 
0.0556751 -0.854011 0.517268 0.0914355 -0.889909 0.44688 0.0537278 -0.846517 0.529643 
-0.072514 -0.811851 0.579344 -0.0536297 -0.797483 0.600954 -0.0729731 -0.810674 0.580932 
0.114942 -0.816269 0.566122 0.0443299 -0.827915 0.559099 0.272977 -0.733046 0.622999 
0.490851 -0.646915 0.583581 -0.535894 -0.3722 0.757816 -0.48083 -0.368695 0.795529 
-0.305753 -0.328254 0.893736 -0.182623 -0.301187 0.935914 -0.0494334 -0.310409 0.949317 
0.0237626 -0.320034 0.947108 -0.00804427 -0.327712 0.944744 -0.0472485 -0.319372 0.946451 
0.0874552 -0.351357 0.932148 0.0823788 -0.427397 0.900303 -0.0537443 -0.48637 0.872099 
-0.0408903 -0.506825 0.861079 0.0385182 -0.479717 0.876577 0.227249 -0.501582 0.83473 
0.599264 -0.534121 0.59632 0.482255 -0.497406 0.721122 0.724376 -0.255281 0.640399 
-0.525142 -0.307087 0.793677 -0.575858 -0.262243 0.774349 -0.446592 -0.244495 0.860684 
-0.247007 -0.199297 0.948298 -0.132988 -0.102903 0.985761 0.456331 -0.211974 0.864193 
0.727861 -0.237201 0.643392 0.720349 -0.23611 0.652188 -0.640272 -0.170175 0.749061 
-0.582525 -0.186642 0.791094 -0.367396 -0.110889 0.92343 -0.154408 -0.0739284 0.985237 
0.488012 0.0505665 0.871371 0.774181 0.105125 0.624174 0.773622 0.106241 0.624677 
0.773632 0.105174 0.624845 -0.683923 -0.0321974 0.728844 -0.587664 -0.0406937 0.808081 
-0.344239 -0.0256233 0.938532 -0.198315 -0.0423684 0.979222 -0.0695693 0.0268161 0.997217 
0.706733 0.20562 0.676941 0.547416 0.187711 0.815537 -0.727484 0.101807 0.67853 
-0.643408 0.0840563 0.760895 -0.362119 0.0014182 0.932131 0.313945 0.212948 0.925252 
0.674432 0.271148 0.686746 0.570984 0.252733 0.781091 -0.72645 0.318809 0.608795 
-0.721944 0.337873 0.603853 -0.712226 0.314081 0.627764 -0.460124 0.133777 0.877718 
0.0788805 0.13181 0.988132 -0.0858764 0.0746336 0.993506 0.434627 0.257734 0.862944 
0.640915 0.333234 0.691508 0.640758 0.334225 0.691175 0.639374 0.332682 0.693198 
-0.687807 0.485773 0.539394 -0.655475 0.547908 0.519759 -0.599907 0.413442 0.684965 
-0.316528 0.262771 0.911461 0.11393 -0.0299696 0.993037 -0.0513751 0.0633661 0.996667 
0.297886 0.271626 0.915141 0.607967 0.394504 0.689016 0.58248 0.470954 0.66251 
0.520386 0.339233 0.783658 -0.583129 0.636381 0.504955 -0.492457 0.707894 0.506332 
-0.460416 0.589272 0.663909 -0.249642 0.434118 0.865575 0.0584637 0.123102 0.990671 
0.0422641 0.283393 0.958072 0.214703 0.385807 0.897249 0.540315 0.529847 0.653699 
0.438341 0.622345 0.648493 0.388387 0.471865 0.791517 -0.39096 0.769429 0.505104 
-0.389543 0.769945 0.505411 -0.388792 0.767904 0.509081 -0.322145 0.759237 0.565493 
-0.281165 0.639156 0.71584 -0.277978 0.789315 0.547457 -0.20718 0.51719 0.830416 
-0.0747315 0.438124 0.895803 0.0722795 0.364456 0.928411 0.149915 0.335966 0.929867 
0.260966 0.731136 0.630347 0.186896 0.403636 0.895627 0.267941 0.710941 0.650208 
0.221192 0.570785 0.790746 0.349822 0.693488 0.62984 0.32653 0.700677 0.634373 
0.31473 0.676185 0.666123 -0.223762 0.820077 0.526691 -0.185072 0.833188 0.5211 
-0.181655 0.802487 0.568345 -0.0181133 0.837339 0.546383 -0.0012509 0.758816 0.651304 
0.220474 0.767745 0.60163 0.168582 0.786273 0.594437 0.169271 0.739848 0.651131 
-0.0470743 -0.208555 0.976877 0.0249173 -0.203935 0.978667 -0.000631222 -0.15542 0.987848 
-0.0415464 -0.205059 0.977867 0.0692043 -0.265946 0.961501 0.0138496 -0.162409 0.986626 
-0.105998 -0.276457 0.955163 -0.0461475 -0.42543 0.903814 0.0516019 -0.380141 0.923488 
0.213422 -0.292819 0.932045 -0.121788 -0.102717 0.987227 -0.121675 -0.093636 0.988143 
-0.0431059 -0.102401 0.993809 0.0273236 -0.0687367 0.997261 0.00139347 -0.109628 0.993972 
-0.0297467 -0.0414306 0.998698 0.019337 -0.0646021 0.997724 0.00418998 -0.131816 0.991265 
-0.118128 -0.187977 0.975044 -0.0584283 -0.19391 0.979278 0.070953 -0.219391 0.973054 
0.285506 -0.192479 0.938849 0.206266 -0.175412 0.962645 -0.115677 -0.067111 0.991017 
-0.0817582 -0.0614036 0.994759 -0.0180835 0.0379741 0.999115 -0.0597172 0.0284382 0.99781 
0.0174963 0.0430749 0.998919 0.0224804 -0.0597675 0.997959 -0.00371777 0.0325124 0.999464 
-0.00399064 -0.00530703 0.999978 -0.0460995 0.00349413 0.998931 -0.146012 -0.027436 0.988902 
-0.0905568 -0.0445424 0.994895 0.0723076 -0.0286382 0.996971 0.391947 0.0352948 0.919311 
0.239948 -0.000463276 0.970786 -0.160205 -0.0429219 0.98615 -0.193326 -0.0411697 0.980271 
-0.0260358 -0.0507141 0.998374 -0.0261207 0.0203498 0.999452 0.0609365 0.00733463 0.998115 
-0.0663248 0.0265513 0.997445 -0.0413404 -0.00735335 0.999118 -0.0119423 0.0250709 0.999614 
0.0256975 -0.00366178 0.999663 -0.00756822 -0.0518134 0.998628 -0.018705 -0.0157103 0.999702 
-0.157387 0.0335903 0.986966 -0.0617274 0.0677271 0.995793 0.111759 0.110036 0.987624 
0.341761 0.155407 0.926848 0.298326 0.179679 0.937399 0.281003 0.138503 0.94966 
-0.207803 -0.0381762 0.977425 -0.186495 -0.0425935 0.981532 -0.0350742 -0.0622667 0.997443 
0.0619809 -0.113116 0.991647 0.0344789 -0.0959493 0.994789 -0.00847431 -0.00733445 0.999937 
-0.0814811 -0.0720351 0.994068 0.0575633 0.121048 0.990976 -0.0132424 0.0794202 0.996753 
-0.0742704 0.069353 0.994824 0.0381418 0.0148163 0.999162 -0.06317 0.0207595 0.997787 
-0.0140721 0.103582 0.994521 0.25005 0.187493 0.949906 0.137216 0.144347 0.979967 
-0.277547 0.0492028 0.959451 -0.279676 0.150728 0.948189 -0.244138 0.0384545 0.968978 
-0.0895784 -0.0165525 0.995842 0.0236865 -0.0753408 0.996876 0.0345195 -0.122814 0.991829 
0.0168401 -0.119067 0.992743 0.0902364 0.0784647 0.992825 0.112127 -0.055945 0.992118 
-0.0843013 0.07234 0.993811 -0.0633366 0.0390428 0.997228 0.0555025 0.0768782 0.995494 
0.221883 0.155023 0.962671 0.22126 0.156066 0.962646 0.220159 0.154482 0.963154 
-0.274413 0.237488 0.931825 -0.20561 0.317112 0.925832 -0.145564 0.172583 0.97418 
-0.0443047 0.0878041 0.995152 -0.00429817 0.00967954 0.999944 0.054029 -0.0503675 0.997268 
0.129189 -0.030657 0.991146 0.168252 -0.0278486 0.985351 0.171974 0.0575996 0.983416 
-0.0542733 0.0964095 0.993861 -0.0337407 0.15675 0.987062 -0.0569055 0.113442 0.991914 
0.146743 0.18342 0.97202 0.129171 0.201457 0.970943 0.11397 0.165678 0.979572 
-0.166307 0.361599 0.917381 -0.150608 0.363926 0.919171 -0.139919 0.341574 0.929381 
-0.15051 0.343668 0.926951 -0.106158 0.209376 0.972056 -0.0663176 0.400128 0.914057 
-0.0165919 0.14219 0.9897 0.0786042 0.336559 0.938376 0.1296 0.0786625 0.988441 
0.172228 0.0621406 0.983095 0.173928 0.0646041 0.982637 0.174251 0.0611218 0.982802 

