# vtk DataFile Version 4.2
vtk output
ASCII
DATASET POLYDATA
POINTS 542 float
-30.8486 -33.0458 -9.9425 -23.8363 -33.0458 -11.434 -16.8239 -33.0458 -12.4806 
-9.81149 -33.0458 -13.0069 -2.7991 -33.0458 -12.4123 4.21329 -33.0458 -11.4148 
11.2257 -33.0458 -10.736 -30.8486 -26.0335 -11.6332 -23.8363 -26.0335 -13.0027 
-16.8239 -26.0335 -13.5876 -9.81149 -26.0335 -14.0967 -2.7991 -26.0335 -14.0465 
4.21329 -26.0335 -13.4929 11.2257 -26.0335 -13.2886 18.2381 -26.0335 -13.0629 
25.2505 -26.0335 -12.0928 32.2628 -26.0335 -10.1715 -37.861 -19.0211 -10.5185 
-30.8486 -19.0211 -12.6143 -23.8363 -19.0211 -13.3308 -16.8239 -19.0211 -13.855 
-9.81149 -19.0211 -13.7402 -2.7991 -19.0211 -13.3911 4.21329 -19.0211 -13.5819 
11.2257 -19.0211 -14.3034 18.2381 -19.0211 -14.304 25.2505 -19.0211 -13.5978 
32.2628 -19.0211 -12.5502 39.2752 -19.0211 -11.5547 -37.861 -12.0087 -12.5597 
-30.8486 -12.0087 -13.9843 -23.8363 -12.0087 -13.94 -16.8239 -12.0087 -13.049 
-9.81149 -12.0087 -12.3742 -2.7991 -12.0087 -12.7265 4.21329 -12.0087 -12.3119 
11.2257 -12.0087 -13.7471 18.2381 -12.0087 -14.1213 25.2505 -12.0087 -14.2447 
32.2628 -12.0087 -14.464 39.2752 -12.0087 -13.6173 46.2876 -12.0087 -10.9099 
-44.8734 -4.99629 -10.2669 -37.861 -4.99629 -13.6831 -30.8486 -4.99629 -14.9586 
-23.8363 -4.99629 -14.9289 -16.8239 -4.99629 -13.8052 -9.81149 -4.99629 -12.921 
-2.7991 -4.99629 -16.5681 4.21329 -4.99629 -13.473 11.2257 -4.99629 -13.0017 
18.2381 -4.99629 -13.6705 25.2505 -4.99629 -14.4458 32.2628 -4.99629 -14.6802 
39.2752 -4.99629 -14.0785 46.2876 -4.99629 -12.4064 -44.8734 2.01609 -11.4062 
-37.861 2.01609 -14.2524 -30.8486 2.01609 -15.3695 -23.8363 2.01609 -15.64 
-16.8239 2.01609 -15.3918 -9.81149 2.01609 -14.5117 -2.7991 2.01609 -9.94352 
4.21329 2.01609 -13.1514 11.2257 2.01609 -12.7892 18.2381 2.01609 -13.8811 
25.2505 2.01609 -14.7016 32.2628 2.01609 -14.8704 39.2752 2.01609 -13.9554 
46.2876 2.01609 -11.4457 -44.8734 9.02848 -11.2622 -37.861 9.02848 -13.5498 
-30.8486 9.02848 -14.704 -23.8363 9.02848 -15.0108 -16.8239 9.02848 -14.8746 
-9.81149 9.02848 -15.7833 -2.7991 9.02848 -16.0539 4.21329 9.02848 -15.3992 
11.2257 9.02848 -13.0812 18.2381 9.02848 -14.1526 25.2505 9.02848 -14.9354 
32.2628 9.02848 -14.7673 39.2752 9.02848 -13.3119 46.2876 9.02848 -10.549 
-44.8734 16.0409 -10.8153 -37.861 16.0409 -12.6785 -30.8486 16.0409 -13.8036 
-23.8363 16.0409 -13.9305 -16.8239 16.0409 -13.3996 -9.81149 16.0409 -12.9798 
-2.7991 16.0409 -14.1795 4.21329 16.0409 -13.7406 11.2257 16.0409 -13.5198 
18.2381 16.0409 -14.2885 25.2505 16.0409 -14.6175 32.2628 16.0409 -13.9606 
39.2752 16.0409 -11.6658 -37.861 23.0533 -10.2442 -30.8486 23.0533 -12.8044 
-23.8363 23.0533 -13.1468 -16.8239 23.0533 -12.7467 -9.81149 23.0533 -12.7665 
-2.7991 23.0533 -12.6772 4.21329 23.0533 -13.2263 11.2257 23.0533 -13.8411 
18.2381 23.0533 -13.9371 25.2505 23.0533 -13.8607 32.2628 23.0533 -12.3518 
-30.8486 30.0656 -10.2723 -23.8363 30.0656 -12.2458 -16.8239 30.0656 -12.2388 
-9.81149 30.0656 -12.8852 -2.7991 30.0656 -12.8023 4.21329 30.0656 -13.2253 
11.2257 30.0656 -13.6906 18.2381 30.0656 -12.8057 25.2505 30.0656 -11.9992 
-16.8239 37.078 -11.1593 -9.81149 37.078 -12.0889 -2.7991 37.078 -12.0517 
4.21329 37.078 -12.2605 11.2257 37.078 -12.3392 18.2381 37.078 -10.8897 
-9.81149 44.0904 -10.4457 4.21329 44.0904 -9.78319 -30.8486 -33.3222 -9.75651 
-23.8363 -36.4623 -9.75651 -23.8363 -40.0582 -7.48347 -16.8239 -38.8034 -9.75651 
-16.8239 -40.0582 -8.98519 -9.81149 -39.5182 -9.75651 -9.81149 -40.0582 -9.40984 
-2.7991 -37.9017 -9.75651 -2.7991 -40.0582 -8.25764 4.21329 -36.2233 -9.75651 
4.21329 -40.0582 -6.88698 11.2257 -34.6599 -9.75651 11.2257 -40.0582 -5.60301 
18.2381 -40.0582 -2.77793 -31.1464 -33.0458 -9.75651 -37.861 -33.0458 -2.90633 
17.7656 -33.0458 -9.75651 18.2381 -32.8986 -9.75651 18.2381 -33.0458 -9.67453 
25.2505 -30.2087 -9.75651 25.2505 -33.0458 -7.48557 32.2628 -26.6843 -9.75651 
32.2628 -33.0458 -4.78413 -36.1183 -26.0335 -9.75651 -37.861 -22.8667 -9.75651 
-37.861 -26.0335 -9.02374 34.2984 -26.0335 -9.75651 39.2752 -23.623 -9.75651 
39.2752 -26.0335 -8.50251 -39.2903 -19.0211 -9.75651 -44.8734 -19.0211 -5.08373 
45.6592 -19.0211 -9.75651 46.2876 -18.0937 -9.75651 46.2876 -19.0211 -9.52981 
-44.4056 -12.0087 -9.75651 -44.8734 -9.55757 -9.75651 -44.8734 -12.0087 -9.35651 
48.3389 -12.0087 -9.75651 53.3 -12.0087 -5.58111 -45.4564 -4.99629 -9.75651 
51.1916 -4.99629 -9.75651 53.3 -4.99629 -7.68839 -46.9762 2.01609 -9.75651 
48.7909 2.01609 -9.75651 53.3 2.01609 -4.27572 -46.7119 9.02848 -9.75651 
-51.8858 9.02848 -2.78307 47.1825 9.02848 -9.75651 46.2876 10.6542 -9.75651 
-46.1709 16.0409 -9.75651 -44.8734 18.445 -9.75651 41.9073 16.0409 -9.75651 
39.2752 21.7225 -9.75651 46.2876 16.0409 -2.82875 -38.9334 23.0533 -9.75651 
-44.8734 23.0533 -5.70387 -37.861 24.8637 -9.75651 38.4623 23.0533 -9.75651 
32.2628 28.2038 -9.75651 39.2752 23.0533 -8.89152 -32.7955 30.0656 -9.75651 
-37.861 30.0656 -7.73896 -30.8486 31.5161 -9.75651 -23.8363 35.931 -9.75651 
30.2477 30.0656 -9.75651 25.2505 36.6898 -9.75651 32.2628 30.0656 -8.37811 
-30.8486 37.078 -6.81688 -21.6103 37.078 -9.75651 -23.8363 37.078 -9.13763 
-16.8239 40.8962 -9.75651 -2.7991 43.5639 -9.75651 11.2257 42.829 -9.75651 
24.2974 37.078 -9.75651 18.2381 39.2917 -9.75651 25.2505 37.078 -9.50404 
-23.8363 44.0904 -2.92728 -12.8707 44.0904 -9.75651 -16.8239 44.0904 -8.07933 
-4.15505 44.0904 -9.75651 -9.81149 45.0259 -9.75651 3.4388 44.0904 -9.75651 
-2.7991 44.0904 -9.54642 4.46253 44.0904 -9.75651 4.21329 44.1333 -9.75651 
11.2257 44.0904 -9.00636 18.2381 44.0904 -6.45393 -23.8363 -43.3857 -2.74412 
-16.8239 -45.2339 -2.74412 -9.81149 -45.8059 -2.74412 -9.81149 -47.0706 3.57124 
-2.7991 -44.8391 -2.74412 4.21329 -43.2692 -2.74412 11.2257 -42.2685 -2.74412 
18.2381 -40.0826 -2.74412 -37.861 -33.2058 -2.74412 -30.0714 -40.0582 -2.74412 
-30.8486 -39.4953 -2.74412 -30.8486 -40.0582 -0.0100543 18.3131 -40.0582 -2.74412 
25.2505 -37.4222 -2.74412 32.2628 -34.5896 -2.74412 -37.991 -33.0458 -2.74412 
35.1407 -33.0458 -2.74412 39.2752 -30.6679 -2.74412 -42.8209 -26.0335 -2.74412 
-44.8734 -21.8337 -2.74412 45.4901 -26.0335 -2.74412 46.2876 -25.3685 -2.74412 
-46.1779 -19.0211 -2.74412 51.935 -19.0211 -2.74412 53.3 -16.2054 -2.74412 
-48.4293 -12.0087 -2.74412 54.9505 -12.0087 -2.74412 53.3 -12.0087 3.2809 
-50.5475 -4.99629 -2.74412 55.6629 -4.99629 -2.74412 -51.8591 2.01609 -2.74412 
-51.8858 6.12692 -2.74412 53.9942 2.01609 -2.74412 53.3 3.51343 -2.74412 
53.3 2.01609 -0.412694 -51.9035 9.02848 -2.74412 -51.8858 9.09734 -2.74412 
-51.8858 9.02848 -2.66692 50.5273 9.02848 -2.74412 -50.0098 16.0409 -2.74412 
46.3237 16.0409 -2.74412 46.2876 16.101 -2.74412 46.2876 16.0409 -2.603 
-46.7321 23.0533 -2.74412 -44.8734 25.7791 -2.74412 -44.8734 23.0533 3.5866 
42.1818 23.0533 -2.74412 39.2752 27.4493 -2.74412 -41.5629 30.0656 -2.74412 
-37.861 34.0263 -2.74412 37.3613 30.0656 -2.74412 32.2628 35.8876 -2.74412 
-34.4741 37.078 -2.74412 -30.8486 39.8638 -2.74412 31.023 37.078 -2.74412 
25.2505 41.82 -2.74412 -24.026 44.0904 -2.74412 -23.8363 44.1945 -2.74412 
-23.8363 44.0904 -2.39828 -16.8239 47.4476 -2.74412 -9.81149 49.4837 -2.74412 
-2.7991 50.9049 -2.74412 4.21329 51.0572 -2.74412 11.2257 49.6821 -2.74412 
22.074 44.0904 -2.74412 18.2381 46.4291 -2.74412 -9.81149 -47.1882 4.26827 
-30.8486 -40.7965 4.26827 -23.8363 -44.3226 4.26827 -11.2701 -47.0706 4.26827 
-16.8239 -46.5833 4.26827 -7.42722 -47.0706 4.26827 -9.81149 -47.0706 4.53578 
-2.7991 -46.8436 4.26827 4.21329 -45.8108 4.26827 11.2257 -44.4117 4.26827 
18.2381 -42.1852 4.26827 -31.8619 -40.0582 4.26827 -37.861 -34.7621 4.26827 
-30.8486 -40.0582 6.02187 -23.8363 -40.0582 11.0801 23.9249 -40.0582 4.26827 
18.2381 -40.0582 8.48633 25.2505 -39.4848 4.26827 32.2628 -34.8435 4.26827 
-39.3538 -33.0458 4.26827 -37.861 -33.0458 7.28378 35.3127 -33.0458 4.26827 
32.2628 -33.0458 7.2527 39.2752 -29.7588 4.26827 -43.2692 -26.0335 4.26827 
-44.8734 -22.0728 4.26827 32.2628 -26.0335 10.0705 43.9728 -26.0335 4.26827 
39.2752 -26.0335 7.76716 46.2876 -23.1388 4.26827 -45.9864 -19.0211 4.26827 
-44.8734 -19.0211 6.15068 39.2752 -19.0211 9.61127 48.9248 -19.0211 4.26827 
46.2876 -19.0211 6.325 -47.5041 -12.0087 4.26827 -44.8734 -12.0087 7.33464 
32.2628 -12.0087 11.2042 39.2752 -12.0087 10.3754 52.7883 -12.0087 4.26827 
46.2876 -12.0087 9.47902 53.3 -8.26556 4.26827 -48.9087 -4.99629 4.26827 
-44.8734 -4.99629 8.26937 11.2257 -4.99629 11.0219 18.2381 -4.99629 9.98269 
25.2505 -4.99629 11.0514 32.2628 -4.99629 11.243 39.2752 -4.99629 10.8623 
46.2876 -4.99629 11.1759 53.5982 -4.99629 4.26827 53.3 -3.97787 4.26827 
53.3 -4.99629 4.55554 -50.1388 2.01609 4.26827 -44.8734 2.01609 8.65932 
11.2257 2.01609 10.3792 18.2381 2.01609 10.3978 25.2505 2.01609 10.9808 
32.2628 2.01609 11.0518 39.2752 2.01609 10.1028 50.918 2.01609 4.26827 
46.2876 2.01609 8.03485 -49.6319 9.02848 4.26827 -44.8734 9.02848 8.04744 
32.2628 9.02848 10.9252 39.2752 9.02848 9.11542 48.0291 9.02848 4.26827 
46.2876 12.4817 4.26827 46.2876 9.02848 5.96472 -47.0169 16.0409 4.26827 
-44.8734 22.3135 4.26827 -44.8734 16.0409 6.6307 -37.861 16.0409 10.3735 
32.2628 16.0409 11.2372 43.8862 16.0409 4.26827 39.2752 16.0409 7.42326 
-44.5283 23.0533 4.26827 -37.861 23.0533 7.79531 -30.8486 23.0533 10.42 
32.2628 23.0533 10.1339 40.7649 23.0533 4.26827 39.2752 25.4701 4.26827 
39.2752 23.0533 6.1857 -39.1251 30.0656 4.26827 -37.861 31.3289 4.26827 
-37.861 30.0656 5.25272 -30.8486 30.0656 7.76409 -23.8363 30.0656 9.8059 
-16.8239 30.0656 11.0126 35.4554 30.0656 4.26827 32.2628 34.274 4.26827 
32.2628 30.0656 7.21303 -31.1197 37.078 4.26827 -30.8486 37.2827 4.26827 
-30.8486 37.078 4.45238 -23.8363 40.7143 4.26827 -23.8363 37.078 7.36811 
-16.8239 37.078 8.91643 -9.81149 37.078 10.7598 29.5713 37.078 4.26827 
25.2505 40.6499 4.26827 25.2505 37.078 7.47131 -19.617 44.0904 4.26827 
-16.8239 45.4859 4.26827 -16.8239 44.0904 5.69037 -9.81149 46.7928 4.26827 
[...]
POINT_DATA 542
SCALARS ImageScalars float
LOOKUP_TABLE default
0 0 0 0 0 0 0 0 0 
0 0 0 0 0 0 0 0 0 
0 0 0 0 0 0 0 0 0 
0 0 0 0 0 0 0 0 0 
0 0 0 0 0 0 0 0 0 
0 0 0 0 0 0 0 0 0 
0 0 0 0 0 0 0 0 0 
0 0 0 0 0 0 0 0 0 
0 0 0 0 0 0 0 0 0 
0 0 0 0 0 0 0 0 0 
0 0 0 0 0 0 0 0 0 
0 0 0 0 0 0 0 0 0 
0 0 0 0 0 0 0 0 0 
0 0 0 0 0 0 0 0 0 
0 0 0 0 0 0 0 0 0 
0 0 0 0 0 0 0 0 0 
0 0 0 0 0 0 0 0 0 
0 0 0 0 0 0 0 0 0 
0 0 0 0 0 0 0 0 0 
0 0 0 0 0 0 0 0 0 
0 0 0 0 0 0 0 0 0 
0 0 0 0 0 0 0 0 0 
0 0 0 0 0 0 0 0 0 
0 0 0 0 0 0 0 0 0 
0 0 0 0 0 0 0 0 0 
0 0 0 0 0 0 0 0 0 
0 0 0 0 0 0 0 0 0 
0 0 0 0 0 0 0 0 0 
0 0 0 0 0 0 0 0 0 
0 0 0 0 0 0 0 0 0 
0 0 0 0 0 0 0 0 0 
0 0 0 0 0 0 0 0 0 
0 0 0 0 0 0 0 0 0 
0 0 0 0 0 0 0 0 0 
0 0 0 0 0 0 0 0 0 
0 0 0 0 0 0 0 0 0 
0 0 0 0 0 0 0 0 0 
0 0 0 0 0 0 0 0 0 
0 0 0 0 0 0 0 0 0 
0 0 0 0 0 0 0 0 0 
0 0 0 0 0 0 0 0 0 
0 0 0 0 0 0 0 0 0 
0 0 0 0 0 0 0 0 0 
0 0 0 0 0 0 0 0 0 
0 0 0 0 0 0 0 0 0 
0 0 0 0 0 0 0 0 0 
0 0 0 0 0 0 0 0 0 
0 0 0 0 0 0 0 0 0 
0 0 0 0 0 0 0 0 0 
0 0 0 0 0 0 0 0 0 
0 0 0 0 0 0 0 0 0 
0 0 0 0 0 0 0 0 0 
0 0 0 0 0 0 0 0 0 
0 0 0 0 0 0 0 0 0 
0 0 0 0 0 0 0 0 0 
0 0 0 0 0 0 0 0 0 
0 0 0 0 0 0 0 0 0 
0 0 0 0 0 0 0 0 0 
0 0 0 0 0 0 0 0 0 
0 0 0 0 0 0 0 0 0 
0 0 
NORMALS Normals float
0.397735 0.434124 0.808296 0.183643 0.330912 0.92562 0.0984823 0.284183 0.953699 
-0.00335288 0.292292 0.956323 -0.107083 0.349852 0.930665 -0.111929 0.388391 0.914672 
-0.110844 0.452067 0.88507 0.272072 0.193403 0.942641 0.126393 0.119533 0.984752 
0.0759155 0.093235 0.992746 0.0328372 0.0466528 0.998371 -0.0429551 0.0612788 0.997196 
-0.0534156 0.143533 0.988203 -0.028945 0.239017 0.970584 -0.0862121 0.3002 0.949972 
-0.170408 0.354654 0.919338 -0.241234 0.442193 0.86387 0.389106 0.252819 0.885821 
0.17456 0.160174 0.971531 0.0844282 0.0644192 0.994345 0.02949 -0.0388211 0.998811 
-0.0325471 -0.121632 0.992042 -0.0122795 -0.0900699 0.99586 0.0664502 -0.0855083 0.994119 
0.0484685 0.0326822 0.99829 -0.0518795 0.0674977 0.99637 -0.117411 0.151353 0.981482 
-0.137907 0.265089 0.954311 -0.220664 0.368404 0.903098 0.307139 0.195303 0.931409 
0.0971714 0.158227 0.98261 -0.0664703 0.109695 0.99174 -0.111083 -0.00445246 0.993801 
-0.0264253 -0.0647677 0.99755 -0.00475759 0.153957 0.988066 0.0743339 -0.0256329 0.996904 
0.129833 -0.094191 0.987052 0.033995 -0.0446581 0.998424 0.0237325 0.061802 0.997806 
-0.0515354 0.148208 0.987612 -0.213004 0.150245 0.96543 -0.433071 0.186988 0.881751 
0.586535 0.116301 0.80153 0.277039 0.121957 0.953088 0.0824314 0.101684 0.991396 
-0.0822481 0.123168 0.988972 -0.137127 0.171627 0.975572 0.12436 0.158304 0.979528 
0.0982738 -0.0992768 0.990195 -0.214005 0.0737325 0.974046 0.0226443 -0.0654055 0.997602 
0.102857 -0.0174413 0.994543 0.0716028 0.0324739 0.996904 -0.0253726 0.0282519 0.999279 
-0.144754 0.0273295 0.98909 -0.397479 0.0390058 0.916782 0.527948 0.0561085 0.847421 
0.238046 -0.00995731 0.971203 0.0935555 -0.0181411 0.995449 0.00152868 0.00337627 0.999993 
-0.0741719 0.0747759 0.994438 -0.295101 0.192486 0.935876 -0.126997 0.0605066 0.990056 
0.152149 0.132195 0.979477 0.0542947 0.00567331 0.998509 0.136809 0.0343045 0.990003 
0.0691982 0.0347881 0.996996 -0.0509719 0.00619112 0.998681 -0.207086 -0.0543753 0.976811 
-0.492126 -0.127592 0.861123 0.513274 -0.0448573 0.857052 0.207723 -0.113004 0.971639 
0.0991024 -0.107975 0.989202 0.01212 -0.121408 0.992529 0.0503388 -0.142604 0.988499 
0.083751 -0.116308 0.989676 -0.0245355 0.242281 0.969896 -0.236483 0.0324562 0.971093 
-0.0587979 0.0506049 0.996986 0.133659 0.0287097 0.990611 0.0434913 -0.0057762 0.999037 
-0.114825 -0.0607142 0.991529 -0.287725 -0.134802 0.948179 -0.611819 -0.281132 0.739352 
0.522368 -0.24725 0.816088 0.217793 -0.197125 0.955881 0.0948965 -0.148874 0.984292 
-0.0290087 -0.131623 0.990875 -0.0666383 -0.151119 0.986267 0.0345176 -0.207887 0.977544 
0.0612992 -0.250611 0.966145 -0.0398424 -0.140531 0.989274 0.0396339 0.0557117 0.99766 
0.0754771 -0.0154816 0.997027 -0.0209345 -0.0731011 0.997105 -0.175795 -0.177296 0.96833 
-0.466522 -0.281511 0.838516 0.408105 -0.306646 0.859895 0.159529 -0.206543 0.965345 
-0.000892753 -0.130414 0.991459 -0.0262235 -0.0816858 0.996313 -0.00495736 -0.00638962 0.999967 
0.0327456 -0.069346 0.997055 0.0825706 -0.0343555 0.995993 0.0506904 0.0111769 0.998652 
0.00180033 -0.101627 0.994821 -0.117615 -0.199408 0.972833 -0.284698 -0.31461 0.905521 
0.281876 -0.367306 0.886359 0.110043 -0.23912 0.964734 0.0451251 -0.101655 0.993796 
0.0400709 -0.056184 0.997616 0.0237481 -0.0422437 0.998825 0.0618916 -0.0664875 0.995866 
-0.0270179 -0.114669 0.993036 -0.120184 -0.184349 0.975485 -0.238304 -0.285906 0.928153 
0.219163 -0.278226 0.935178 0.05178 -0.181042 0.982111 0.0112433 -0.198907 0.979954 
0.0203166 -0.215244 0.976349 -0.0717386 -0.287788 0.955003 -0.219139 -0.370204 0.902733 
0.0676807 -0.517372 0.85308 -0.0326475 -0.460515 0.887051 0.404115 0.444481 0.799454 
0.233494 0.476562 0.847567 0.314185 0.680044 0.662441 0.0967191 0.522681 0.847024 
0.0974453 0.600008 0.794037 -0.0362993 0.575939 0.816687 -0.0387669 0.607375 0.793469 
-0.115019 0.542034 0.832448 -0.127565 0.651529 0.747821 -0.125345 0.508601 0.85183 
-0.142325 0.704603 0.695182 -0.131095 0.507117 0.851849 -0.190636 0.751422 0.631682 
-0.290698 0.835381 0.466512 0.407106 0.442155 0.799227 0.68432 0.619088 0.385275 
-0.173077 0.528536 0.83108 -0.175334 0.529231 0.830164 -0.178228 0.535496 0.825518 
-0.214157 0.531581 0.819486 -0.259544 0.669456 0.696036 -0.248645 0.464074 0.850183 
-0.383657 0.782828 0.489885 0.444344 0.298218 0.844763 0.451888 0.297622 0.840963 
0.522262 0.345254 0.77977 -0.258806 0.468291 0.844821 -0.26714 0.471493 0.840435 
-0.343216 0.574336 0.743196 0.45203 0.285908 0.844941 0.815083 0.39674 0.42218 
-0.43502 0.343271 0.83242 -0.456756 0.317318 0.831074 -0.465735 0.350605 0.812507 
0.629603 0.208291 0.748475 0.631512 0.174132 0.75556 0.668597 0.216082 0.711538 
-0.540605 0.211809 0.814176 -0.887125 0.290262 0.358828 0.613473 0.120902 0.780406 
-0.610677 0.0056263 0.79186 -0.814374 -0.0240961 0.579839 0.626342 0.0637135 0.776941 
-0.589035 -0.182922 0.787133 -0.915109 -0.343989 0.210349 0.612594 -0.0484674 0.788911 
0.984114 -0.130674 0.120185 -0.667256 -0.297543 0.682816 -0.65046 -0.328659 0.684752 
0.609253 -0.250566 0.752348 0.555976 -0.313857 0.769665 -0.577674 -0.380104 0.722367 
-0.604086 -0.401707 0.688268 -0.852306 -0.517487 0.0760388 0.433728 -0.332517 0.837444 
0.727527 -0.542861 0.419532 0.419617 -0.337452 0.842643 -0.589751 -0.415691 0.692383 
-0.430959 -0.452718 0.78059 -0.660401 -0.446325 0.603874 0.327819 -0.386541 0.862044 
0.546077 -0.521582 0.655554 0.300005 -0.398755 0.866598 0.191794 -0.425412 0.884443 
-0.420097 -0.429741 0.799276 -0.346938 -0.526873 0.775912 -0.535026 -0.530183 0.657764 
0.488487 -0.6654 0.564467 0.216902 -0.402439 0.88938 0.223771 -0.490652 0.842133 
0.281359 -0.424323 0.86069 -0.0516642 -0.435916 0.898503 -0.130453 -0.506884 0.852086 
-0.336685 -0.521594 0.783953 -0.266188 -0.452779 0.850961 -0.361151 -0.551557 0.751901 
0.47709 -0.868279 0.135927 0.165969 -0.54188 0.823905 0.331914 -0.631819 0.700455 
-0.0326536 -0.472558 0.880694 0.0753968 -0.587757 0.805516 -0.0351078 -0.460443 0.886995 
-0.0513487 -0.467805 0.882339 -0.0364444 -0.464649 0.884745 -0.0329529 -0.462618 0.885945 
-0.153129 -0.58201 0.798634 -0.427453 -0.721271 0.545024 0.341018 0.869429 0.357491 
0.162519 0.912454 0.375521 -0.0223531 0.912027 0.409521 0.0125925 0.996118 -0.0871182 
-0.155461 0.870731 0.46654 -0.172221 0.836072 0.520887 -0.204469 0.840629 0.501534 
-0.290902 0.836336 0.464669 0.685974 0.622158 0.377306 0.515241 0.770392 0.37553 
0.536459 0.754587 0.377902 0.555963 0.808766 0.191841 -0.291449 0.836184 0.4646 
-0.33772 0.819513 0.462972 -0.421659 0.836852 0.349116 0.689204 0.619315 0.376093 
-0.455128 0.829902 0.322679 -0.521258 0.810904 0.265943 0.834451 0.450461 0.317453 
0.870096 0.40992 0.273677 -0.634422 0.745534 0.204179 -0.650303 0.734158 0.195237 
0.890408 0.380602 0.249631 -0.813767 0.551404 0.183676 -0.886534 0.425085 0.182648 
0.928345 0.322095 0.185554 -0.96149 0.23245 0.146641 -0.820096 0.212493 -0.531309 
0.96166 0.232059 0.146145 -0.991259 -0.0701848 0.111713 0.987946 0.0968039 0.120793 
0.992227 -0.0354532 0.119285 -0.936837 -0.341425 0.0759338 -0.926459 -0.369491 0.0717634 
-0.922531 -0.357738 -0.144776 0.984529 -0.130415 0.117023 0.984266 -0.132294 0.117131 
0.985181 -0.130934 0.110793 -0.880657 -0.470872 0.0521751 0.93896 -0.330155 0.0967057 
-0.853084 -0.51708 0.0698338 -0.853028 -0.517175 0.0698037 -0.853348 -0.517974 0.0591636 
0.835086 -0.532696 0.137357 0.800731 -0.583069 0.137329 0.737071 -0.437923 -0.514734 
-0.833232 -0.545273 0.0916609 -0.802603 -0.585237 0.115436 0.75368 -0.643193 0.135163 
0.692587 -0.709738 0.128822 -0.776155 -0.614094 0.143077 -0.690205 -0.697993 0.190846 
0.637852 -0.760133 0.123863 0.581173 -0.804825 0.120394 -0.671474 -0.717775 0.184176 
-0.594702 -0.776843 0.206988 0.478681 -0.869265 0.123459 0.475621 -0.870917 0.123643 
0.481083 -0.871776 0.0925534 0.368727 -0.917692 0.147928 0.257939 -0.953833 0.153851 
0.108671 -0.97232 0.206844 -0.0932393 -0.9662 0.240342 -0.306343 -0.921302 0.239493 
-0.556108 -0.797413 0.234257 -0.47979 -0.84454 0.237808 0.0156674 0.990819 -0.134281 
0.546891 0.830822 -0.103173 0.359586 0.92141 -0.147312 0.0522545 0.99056 -0.126726 
0.197358 0.975203 -0.100141 -0.0225157 0.992921 -0.116623 0.0148267 0.988305 -0.151766 
-0.096327 0.992027 -0.0812573 -0.177908 0.983382 -0.0361638 -0.255058 0.966688 -0.0214587 
-0.342607 0.937185 -0.0656079 0.572288 0.813552 -0.103047 0.751864 0.649164 -0.115271 
0.534168 0.812356 -0.233972 0.287773 0.663737 -0.690391 -0.418839 0.90387 -0.0871423 
-0.353066 0.817923 -0.454254 -0.443801 0.890873 -0.0968794 -0.58411 0.775425 -0.239858 
0.793467 0.596634 -0.120161 0.749965 0.557966 -0.355283 -0.597991 0.742135 -0.302726 
-0.575757 0.630206 -0.520908 -0.565574 0.711445 -0.417098 0.889018 0.402586 -0.21811 
0.91627 0.312576 -0.250493 -0.303648 0.299045 -0.904638 -0.612892 0.631132 -0.475432 
-0.45998 0.499517 -0.734099 -0.664333 0.514723 -0.541961 0.922268 0.259482 -0.286515 
0.890903 0.220664 -0.396987 -0.354165 0.126864 -0.926538 -0.693875 0.399943 -0.598818 
-0.616696 0.377991 -0.690514 0.887166 0.198164 -0.416735 0.788831 0.108427 -0.60497 
-0.11514 -0.0949399 -0.988802 -0.107284 0.0978692 -0.9894 -0.749721 0.198639 -0.631238 
-0.419933 0.229908 -0.877951 -0.770815 0.0486039 -0.635202 0.856881 0.152996 -0.492287 
0.653032 0.0747926 -0.753628 -0.336817 -0.278835 -0.899336 0.0170209 -0.112528 -0.993503 
0.0921606 -0.0778606 -0.992695 -0.0119036 -0.01087 -0.99987 -0.0150633 -0.0203579 -0.999679 
-0.348577 -0.0769704 -0.934114 -0.775129 -0.0906946 -0.625259 -0.766716 -0.128485 -0.628998 
-0.759936 -0.0886338 -0.643926 0.848664 0.0458805 -0.526939 0.600147 -0.0180974 -0.799685 
-0.293093 0.130821 -0.947091 0.0441766 0.149075 -0.987839 0.0448642 0.0588543 -0.997258 
-0.0595816 -0.0229466 -0.99796 -0.176882 -0.12475 -0.976294 -0.709487 -0.297537 -0.638828 
-0.488217 -0.268616 -0.830355 0.811562 -0.15898 -0.562221 0.575397 -0.102068 -0.811481 
-0.190388 0.00998583 -0.981658 -0.323216 -0.17604 -0.929807 -0.739493 -0.350473 -0.574733 
-0.719464 -0.399698 -0.56799 -0.641301 -0.328431 -0.693445 0.747599 -0.303307 -0.590848 
0.707922 -0.400824 -0.581538 0.644053 -0.263775 -0.718066 0.288303 -0.295629 -0.91076 
-0.357872 -0.0474187 -0.932566 -0.693762 -0.414601 -0.588898 -0.540369 -0.194142 -0.818725 
0.697909 -0.411146 -0.586414 0.406128 -0.336981 -0.849414 0.266558 -0.294768 -0.917638 
-0.394104 -0.238023 -0.887709 -0.793875 -0.418245 -0.441398 -0.774007 -0.464998 -0.429756 
-0.734211 -0.360813 -0.575107 0.586977 -0.559796 -0.584882 0.564323 -0.577982 -0.589471 
0.538936 -0.539361 -0.647022 0.301538 -0.391016 -0.869587 0.245289 -0.257039 -0.934754 
0.174951 -0.244756 -0.95367 -0.702658 -0.545896 -0.456365 -0.675223 -0.604037 -0.423337 
-0.612761 -0.443752 -0.653917 0.455279 -0.648768 -0.609772 0.451647 -0.653063 -0.607884 
0.450727 -0.640765 -0.621502 0.431525 -0.65624 -0.618979 0.317406 -0.512817 -0.797666 
0.196166 -0.373149 -0.906796 0.208548 -0.279877 -0.937111 -0.644443 -0.647349 -0.406979 
-0.597801 -0.691993 -0.404698 -0.512215 -0.570402 -0.642088 0.357571 -0.726203 -0.587173 
0.293362 -0.761504 -0.57797 0.292056 -0.682952 -0.669537 0.245396 -0.763111 -0.597865 
0.189667 -0.648621 -0.7371 0.185205 -0.801029 -0.569256 0.108409 -0.579345 -0.807841 
-0.0488273 -0.861891 -0.504737 0.0144191 -0.574489 -0.818385 -0.277407 -0.835626 -0.474104 
-0.121822 -0.660084 -0.741248 -0.506681 -0.789035 -0.347417 -0.420103 -0.838889 -0.346089 
-0.377232 -0.749462 -0.544061 0.16901 0.661514 -0.73064 0.0261417 0.668905 -0.742888 
-0.0476932 0.66841 -0.742263 -0.124273 0.655839 -0.744601 -0.236366 0.608573 -0.757476 
0.399828 0.546188 -0.736082 0.276608 0.647112 -0.710446 0.280779 0.645332 -0.710429 
0.141651 0.503982 -0.852019 0.0383997 0.443836 -0.895285 -0.0453326 0.423396 -0.90481 
-0.125081 0.470459 -0.873512 -0.26264 0.594329 -0.760127 -0.223301 0.557326 -0.799703 
-0.278421 0.500375 -0.819821 -0.276613 0.357102 -0.892168 0.52258 0.423071 -0.740217 
0.595704 0.264366 -0.758451 0.357869 0.384369 -0.850994 0.181297 0.303698 -0.93536 
0.0162372 0.270925 -0.962464 -0.0440751 0.176623 -0.983291 -0.0502033 0.122828 -0.991157 
-0.00180179 0.142784 -0.989752 -0.109014 0.250285 -0.962015 -0.238275 0.269865 -0.932951 
-0.294703 0.3407 -0.89279 -0.263453 0.320148 -0.909999 0.595724 0.255694 -0.761403 
0.591248 0.253632 -0.765569 0.324478 0.176958 -0.929193 0.133015 0.113794 -0.98456 
-0.021829 0.0998793 -0.99476 -0.134909 0.0373362 -0.990154 -0.0771967 -0.0212363 -0.99679 
0.00345582 -0.022577 -0.999739 -0.0608277 -0.0112194 -0.998085 -0.204302 0.0494882 -0.977656 
-0.261136 0.156447 -0.95254 -0.260759 0.066747 -0.963094 -0.228648 0.162493 -0.959852 
0.614693 0.133627 -0.777365 0.469446 0.106838 -0.876473 0.254465 -0.0293759 -0.966636 
0.0897504 -0.0389894 -0.995201 -0.0641483 -0.0917411 -0.993715 -0.155031 -0.047835 -0.986751 
-0.112552 -0.0833444 -0.990144 0.0150686 -0.0809304 -0.996606 -0.0332294 -0.109341 -0.993449 
-0.16391 -0.158578 -0.973646 -0.112153 -0.0285067 -0.993282 -0.251529 0.0690916 -0.96538 
-0.119825 -0.0866777 -0.989004 -0.195951 0.0499676 -0.97934 0.554682 -0.0221743 -0.831767 
0.398823 -0.0621532 -0.914919 0.191385 -0.113862 -0.974888 0.0764456 -0.16439 -0.983429 
-0.0302464 -0.191125 -0.9811 -0.119283 -0.10557 -0.987232 -0.112952 0.0639403 -0.991541 
-0.0271639 -0.0210617 -0.999409 -0.322704 -0.279778 -0.904205 -0.14801 -0.220318 -0.964133 
-0.0792372 -0.220476 -0.972169 -0.115766 -0.266679 -0.956807 -0.108751 -0.0963488 -0.989389 
0.0588872 -0.0837239 -0.994748 -0.0505403 -0.101704 -0.99353 0.412952 -0.0185466 -0.910564 
0.346198 -0.0429155 -0.93718 0.151909 -0.0977237 -0.983552 0.0174689 -0.157503 -0.987364 
-0.0165339 -0.171308 -0.985079 0.101433 -0.148057 -0.983763 -0.0206889 -0.04436 -0.998801 
-0.337927 -0.256646 -0.905504 -0.266481 0.0204444 -0.963623 0.402498 -0.0255815 -0.915063 
0.282641 -0.026725 -0.958853 0.0805713 -0.0600918 -0.994936 0.00479685 -0.0618325 -0.998075 
-0.0143235 -0.023307 -0.999626 0.00165844 0.00730175 -0.999972 0.0444204 -0.16397 -0.985465 
-0.283791 0.0791707 -0.955612 -0.162904 -0.0487422 -0.985437 -0.206299 0.163455 -0.96474 
-0.00499365 0.179399 -0.983764 0.00281994 0.0878955 -0.996126 0.35957 -0.137784 -0.92289 
0.293409 -0.219171 -0.930524 0.318228 -0.148561 -0.936302 0.129429 -0.111759 -0.985271 
0.0539879 -0.0636683 -0.99651 0.0482369 -0.00115201 -0.998835 -0.0434425 0.0226985 -0.998798 
-0.0623882 0.0311293 -0.997566 -0.0685558 -0.0200202 -0.997446 -0.0931218 0.185452 -0.978231 
-0.038706 0.206642 -0.977651 -0.147395 0.0629753 -0.987071 -0.0794096 0.142453 -0.986611 
0.19482 -0.22006 -0.955834 0.198632 -0.216534 -0.955855 0.156398 -0.173231 -0.972384 
0.112231 -0.140593 -0.983686 0.0742401 -0.102621 -0.991946 0.0331926 -0.0726398 -0.996806 
-0.00169156 0.0620035 -0.998074 -0.0237514 0.0760056 -0.996824 -0.0402724 0.142773 -0.988936 
-0.045407 0.117254 -0.992063 -0.353021 -0.0450805 -0.934529 -0.147568 0.0511684 -0.987728 
0.171227 -0.22599 -0.958963 0.154397 -0.206489 -0.96619 0.136406 -0.202735 -0.969687 
0.161958 -0.228864 -0.959891 0.116192 -0.16761 -0.978982 0.120112 -0.0960575 -0.988102 
0.0875208 -0.0267034 -0.995805 0.0120784 0.0187664 -0.999751 -0.0511629 0.028098 -0.998295 
-0.118363 -0.00906844 -0.992929 -0.315296 -0.164961 -0.934546 -0.240827 -0.0931128 -0.966091 
0.173606 -0.229951 -0.957593 0.199264 -0.237973 -0.950612 0.178785 -0.175427 -0.968123 
0.110734 -0.157887 -0.981229 0.0327758 -0.131869 -0.990725 -0.0669305 -0.0974942 -0.992983 
-0.170561 -0.174557 -0.969762 -0.360476 -0.290047 -0.886527 -0.348315 -0.308617 -0.885117 
-0.334811 -0.280343 -0.899616 0.162945 -0.292961 -0.942137 0.104528 -0.354814 -0.929075 
0.117833 -0.321572 -0.939525 0.0669537 -0.393471 -0.916896 0.0850298 -0.308357 -0.947463 
-0.0764432 -0.464626 -0.882201 -0.0826686 -0.315125 -0.945443 -0.323389 -0.31612 -0.891901 
-0.320381 -0.319216 -0.891884 -0.319974 -0.312511 -0.894401 
