# vtk DataFile Version 4.2
vtk output
ASCII
DATASET POLYDATA
POINTS 594 float
6.28455 21.62 -18.1588 -21.5958 -34.1406 -11.2149 -14.6257 -34.1406 -11.6184 
-7.6556 -34.1406 -11.5636 -0.685527 -34.1406 -11.4385 -35.5359 -27.1705 -13.8672 
-28.5658 -27.1705 -14.0916 -21.5958 -27.1705 -14.4404 -14.6257 -27.1705 -13.6937 
-7.6556 -27.1705 -14.0558 -0.685527 -27.1705 -14.0073 6.28455 -27.1705 -13.161 
13.2546 -27.1705 -12.8743 20.2247 -27.1705 -12.7516 27.1948 -27.1705 -12.8158 
34.1648 -27.1705 -11.128 -42.506 -20.2005 -14.1644 -35.5359 -20.2005 -15.9778 
-28.5658 -20.2005 -15.87 -21.5958 -20.2005 -15.4795 -14.6257 -20.2005 -14.3927 
-7.6556 -20.2005 -14.2011 -0.685527 -20.2005 -14.2212 6.28455 -20.2005 -13.7739 
13.2546 -20.2005 -13.9317 20.2247 -20.2005 -14.6506 27.1948 -20.2005 -14.6341 
34.1648 -20.2005 -13.8015 41.1349 -20.2005 -11.733 -49.4761 -13.2304 -12.6295 
-42.506 -13.2304 -15.6776 -35.5359 -13.2304 -16.6126 -28.5658 -13.2304 -16.8879 
-21.5958 -13.2304 -15.5624 -14.6257 -13.2304 -13.886 -7.6556 -13.2304 -13.5233 
-0.685527 -13.2304 -14.1215 6.28455 -13.2304 -13.3728 13.2546 -13.2304 -13.7599 
20.2247 -13.2304 -14.4804 27.1948 -13.2304 -14.8141 34.1648 -13.2304 -15.04 
41.1349 -13.2304 -13.8174 -49.4761 -6.26032 -14.2959 -42.506 -6.26032 -16.5845 
-35.5359 -6.26032 -17.0721 -28.5658 -6.26032 -16.642 -21.5958 -6.26032 -15.5319 
-14.6257 -6.26032 -13.5032 -7.6556 -6.26032 -13.8361 -0.685527 -6.26032 -14.324 
6.28455 -6.26032 -15.2689 13.2546 -6.26032 -12.9103 20.2247 -6.26032 -13.8982 
27.1948 -6.26032 -14.9339 34.1648 -6.26032 -15.182 41.1349 -6.26032 -14.1186 
48.105 -6.26032 -11.9958 -49.4761 0.709754 -14.7942 -42.506 0.709754 -16.7054 
-35.5359 0.709754 -17.111 -28.5658 0.709754 -16.5791 -21.5958 0.709754 -15.26 
-14.6257 0.709754 -14.2142 -7.6556 0.709754 -17.4674 6.28455 0.709754 -15.9449 
13.2546 0.709754 -12.7776 20.2247 0.709754 -13.8717 27.1948 0.709754 -15.2076 
34.1648 0.709754 -15.2426 41.1349 0.709754 -14.4396 48.105 0.709754 -12.2215 
-49.4761 7.67983 -13.6527 -42.506 7.67983 -16.1946 -35.5359 7.67983 -16.8153 
-28.5658 7.67983 -16.6265 -21.5958 7.67983 -16.0712 -14.6257 7.67983 -15.1169 
-7.6556 7.67983 -16.7353 -0.685527 7.67983 -15.8139 6.28455 7.67983 -15.8719 
13.2546 7.67983 -14.1239 20.2247 7.67983 -15.0077 27.1948 7.67983 -15.8039 
34.1648 7.67983 -15.6105 41.1349 7.67983 -14.5318 48.105 7.67983 -12.1231 
-49.4761 14.6499 -11.22 -42.506 14.6499 -15.2766 -35.5359 14.6499 -16.4693 
-28.5658 14.6499 -17.02 -21.5958 14.6499 -16.4173 -14.6257 14.6499 -15.8116 
-7.6556 14.6499 -15.7462 -0.685527 14.6499 -17.1663 6.28455 19.7092 -18.0112 
6.28455 14.6499 -17.6024 13.2546 14.6499 -16.3237 20.2247 14.6499 -16.0309 
27.1948 14.6499 -16.1047 34.1648 14.6499 -16.0206 41.1349 14.6499 -14.2495 
-42.506 21.62 -13.6189 -35.5359 21.62 -15.4318 -28.5658 21.62 -16.1991 
-21.5958 21.62 -16.8498 -14.6257 21.62 -16.2805 -7.6556 21.62 -16.2781 
4.86976 21.62 -18.0112 -0.685527 21.62 -17.4295 7.85402 21.62 -18.0112 
6.28455 22.5835 -18.0112 13.2546 21.62 -17.4955 20.2247 21.62 -16.2752 
27.1948 21.62 -15.3567 34.1648 21.62 -14.1759 41.1349 21.62 -11.8862 
-35.5359 28.5901 -13.1095 -28.5658 28.5901 -14.8689 -21.5958 28.5901 -15.4895 
-14.6257 28.5901 -15.6413 -7.6556 28.5901 -16.2551 -0.685527 28.5901 -16.6201 
6.28455 28.5901 -17.0758 13.2546 28.5901 -16.8066 20.2247 28.5901 -14.8319 
27.1948 28.5901 -13.217 -21.5958 35.5601 -12.4641 -14.6257 35.5601 -12.8304 
-7.6556 35.5601 -13.2809 -0.685527 35.5601 -13.5269 6.28455 35.5601 -13.4683 
13.2546 35.5601 -12.2318 -21.5958 -34.3733 -11.0411 -14.6257 -34.9132 -11.0411 
-7.6556 -34.857 -11.0411 -0.685527 -34.6779 -11.0411 -35.5359 -30.5384 -11.0411 
-35.5359 -34.1406 -7.02906 -22.5224 -34.1406 -11.0411 -28.5658 -32.1806 -11.0411 
-28.5658 -34.1406 -9.34615 2.90286 -34.1406 -11.0411 6.28455 -33.1889 -11.0411 
6.28455 -34.1406 -10.5674 13.2546 -30.786 -11.0411 13.2546 -34.1406 -8.42999 
20.2247 -29.8982 -11.0411 20.2247 -34.1406 -7.25487 27.1948 -29.8825 -11.0411 
27.1948 -34.1406 -6.12144 34.1648 -27.2839 -11.0411 -41.4684 -27.1705 -11.0411 
-42.506 -26.4139 -11.0411 -42.506 -27.1705 -10.3666 34.5007 -27.1705 -11.0411 
41.1349 -22.303 -11.0411 41.1349 -27.1705 -8.53758 -48.9648 -20.2005 -11.0411 
-49.4761 -19.019 -11.0411 -49.4761 -20.2005 -10.3663 42.9627 -20.2005 -11.0411 
48.105 -20.2005 -8.41179 -51.2134 -13.2304 -11.0411 47.0796 -13.2304 -11.0411 
48.105 -10.5134 -11.0411 48.105 -13.2304 -10.3803 55.0751 -13.2304 -4.35817 
-53.0077 -6.26032 -11.0411 -0.685527 0.177474 -11.0411 49.8719 -6.26032 -11.0411 
55.0751 -6.26032 -7.38485 -53.8765 0.709754 -11.0411 -56.4461 0.709754 -5.99471 
-1.00362 0.709754 -11.0411 -0.261772 0.709754 -11.0411 -0.685527 1.11266 -11.0411 
-0.685527 0.709754 -10.6219 50.1748 0.709754 -11.0411 55.0751 0.709754 -7.56662 
-52.3985 7.67983 -11.0411 49.9156 7.67983 -11.0411 48.105 12.1434 -11.0411 
55.0751 7.67983 -6.83026 -49.6779 14.6499 -11.0411 -49.4761 15.3762 -11.0411 
47.1952 14.6499 -11.0411 48.105 14.6499 -10.3865 -46.8346 21.62 -11.0411 
-49.4761 21.62 -7.91198 -42.506 25.7338 -11.0411 34.1648 28.0607 -11.0411 
42.6511 21.62 -11.0411 41.1349 22.9662 -11.0411 48.105 21.62 -6.65812 
-39.7091 28.5901 -11.0411 -42.506 28.5901 -8.65525 -35.5359 32.5153 -11.0411 
-28.5658 35.1272 -11.0411 20.2247 33.8068 -11.0411 33.4169 28.5901 -11.0411 
27.1948 31.4018 -11.0411 34.1648 28.5901 -10.5887 41.1349 28.5901 -5.13089 
-35.5359 35.5601 -6.64741 -27.472 35.5601 -11.0411 -28.5658 35.5601 -10.6083 
-21.5958 37.2385 -11.0411 -14.6257 37.5316 -11.0411 -7.6556 37.8313 -11.0411 
-0.685527 38.1842 -11.0411 6.28455 37.9155 -11.0411 16.2045 35.5601 -11.0411 
13.2546 36.5638 -11.0411 20.2247 35.5601 -7.87705 -35.5359 -35.8081 -4.07102 
-28.5658 -37.8684 -4.07102 -21.5958 -39.1254 -4.07102 -14.6257 -40.2712 -4.07102 
-7.6556 -40.9676 -4.07102 -7.6556 -41.1107 -1.34117 -0.685527 -40.6148 -4.07102 
6.28455 -39.0514 -4.07102 13.2546 -37.1647 -4.07102 20.2247 -36.184 -4.07102 
27.1948 -35.2406 -4.07102 -38.4253 -34.1406 -4.07102 -42.506 -31.3138 -4.07102 
30.8807 -34.1406 -4.07102 34.1648 -32.9656 -4.07102 41.1349 -30.1419 -4.07102 
-46.8446 -27.1705 -4.07102 -49.4761 -23.8051 -4.07102 45.5812 -27.1705 -4.07102 
48.105 -24.8324 -4.07102 -51.8263 -20.2005 -4.07102 51.6209 -20.2005 -4.07102 
55.0751 -13.6977 -4.07102 -54.6273 -13.2304 -4.07102 55.2823 -13.2304 -4.07102 
-56.2617 -6.26032 -4.07102 -56.4461 -4.60581 -4.07102 57.5353 -6.26032 -4.07102 
-57.0401 0.709754 -4.07102 -56.4461 5.45402 -4.07102 -56.4461 0.709754 -0.670445 
57.6125 0.709754 -4.07102 -56.1514 7.67983 -4.07102 56.9326 7.67983 -4.07102 
55.0751 13.0759 -4.07102 -54.1601 14.6499 -4.07102 54.4383 14.6499 -4.07102 
55.0751 14.6499 -0.805104 -50.9958 21.62 -4.07102 -49.4761 23.7943 -4.07102 
49.9271 21.62 -4.07102 48.105 23.6518 -4.07102 -45.6199 28.5901 -4.07102 
-42.506 31.6475 -4.07102 27.1948 34.5552 -4.07102 34.1648 32.2097 -4.07102 
42.0185 28.5901 -4.07102 41.1349 29.171 -4.07102 -37.0437 35.5601 -4.07102 
-35.5359 36.5125 -4.07102 -35.5359 35.5601 1.1028 -28.5658 39.1753 -4.07102 
-21.5958 40.2602 -4.07102 -14.6257 40.5448 -4.07102 -7.6556 41.2092 -4.07102 
-0.685527 41.0342 -4.07102 6.28455 40.5541 -4.07102 13.2546 39.1333 -4.07102 
24.3076 35.5601 -4.07102 20.2247 37.0557 -4.07102 -7.6556 -41.3097 2.89905 
-35.5359 -35.4652 2.89905 -28.5658 -38.1676 2.89905 -21.5958 -39.6201 2.89905 
-9.51792 -41.1107 2.89905 -14.6257 -40.5639 2.89905 -3.2656 -41.1107 2.89905 
-7.6556 -41.1107 3.38882 -0.685527 -40.9902 2.89905 6.28455 -39.8558 2.89905 
13.2546 -38.3248 2.89905 20.2247 -37.2148 2.89905 27.1948 -35.495 2.89905 
-37.6542 -34.1406 2.89905 -42.506 -30.4301 2.89905 -35.5359 -34.1406 5.43047 
32.8319 -34.1406 2.89905 27.1948 -34.1406 8.27806 34.1648 -33.8061 2.89905 
41.1349 -31.0931 2.89905 -45.578 -27.1705 2.89905 -49.4761 -21.6939 2.89905 
-42.506 -27.1705 7.14104 46.8198 -27.1705 2.89905 48.105 -26.0797 2.89905 
-50.397 -20.2005 2.89905 -49.4761 -20.2005 4.36372 53.0574 -20.2005 2.89905 
55.0751 -16.6185 2.89905 -53.1843 -13.2304 2.89905 -49.4761 -13.2304 8.48971 
56.6755 -13.2304 2.89905 55.0751 -13.2304 6.95656 -54.8927 -6.26032 2.89905 
58.8811 -6.26032 2.89905 -55.7206 0.709754 2.89905 58.9092 0.709754 2.89905 
-54.6356 7.67983 2.89905 58.2275 7.67983 2.89905 -52.7529 14.6499 2.89905 
-49.4761 14.6499 7.2479 55.6697 14.6499 2.89905 55.0751 15.6974 2.89905 
55.0751 14.6499 4.44076 -49.5509 21.62 2.89905 -49.4761 21.7279 2.89905 
-49.4761 21.62 3.00638 50.9229 21.62 2.89905 48.105 24.5214 2.89905 
48.105 21.62 8.50442 -43.9757 28.5901 2.89905 -42.506 30.0581 2.89905 
-42.506 28.5901 4.65002 -35.5359 35.1157 2.89905 27.1948 34.2909 2.89905 
34.1648 32.1034 2.89905 42.4101 28.5901 2.89905 41.1349 29.3883 2.89905 
41.1349 28.5901 4.60494 -34.612 35.5601 2.89905 -28.5658 37.7357 2.89905 
-28.5658 35.5601 5.96762 -21.5958 38.7581 2.89905 -21.5958 35.5601 7.42877 
-14.6257 39.0102 2.89905 -14.6257 35.5601 7.34109 -7.6556 39.0516 2.89905 
-7.6556 35.5601 7.35618 -0.685527 39.5652 2.89905 -0.685527 35.5601 8.45957 
6.28455 39.5278 2.89905 6.28455 35.5601 9.28948 13.2546 38.2309 2.89905 
13.2546 35.5601 7.73632 22.701 35.5601 2.89905 20.2247 36.2863 2.89905 
20.2247 35.5601 4.33763 -28.5658 -34.2418 9.86913 -21.5958 -36.3456 9.86913 
-14.6257 -37.5773 9.86913 -7.6556 -37.7026 9.86913 -0.685527 -37.6971 9.86913 
6.28455 -37.2279 9.86913 13.2546 -36.3637 9.86913 20.2247 -35.1328 9.86913 
-28.8113 -34.1406 9.86913 -35.5359 -30.3479 9.86913 -28.5658 -34.1406 9.98253 
-21.5958 -34.1406 12.0307 -14.6257 -34.1406 13.0565 -7.6556 -34.1406 13.3169 
-0.685527 -34.1406 13.1361 6.28455 -34.1406 13.2925 13.2546 -34.1406 12.5385 
25.0677 -34.1406 9.86913 20.2247 -34.1406 11.1629 27.1948 -33.594 9.86913 
34.1648 -31.2424 9.86913 41.1349 -28.0704 9.86913 -39.2416 -27.1705 9.86913 
-42.506 -23.1555 9.86913 -35.5359 -27.1705 12.3805 -28.5658 -27.1705 14.6277 
-21.5958 -27.1705 15.6638 -14.6257 -27.1705 16.3224 -7.6556 -27.1705 16.1261 
[...]
POINT_DATA 594
SCALARS ImageScalars float
LOOKUP_TABLE default
0 0 0 0 0 0 0 0 0 
0 0 0 0 0 0 0 0 0 
0 0 0 0 0 0 0 0 0 
0 0 0 0 0 0 0 0 0 
0 0 0 0 0 0 0 0 0 
0 0 0 0 0 0 0 0 0 
0 0 0 0 0 0 0 0 0 
0 0 0 0 0 0 0 0 0 
0 0 0 0 0 0 0 0 0 
0 0 0 0 0 0 0 0 0 
0 0 0 0 0 0 0 0 0 
0 0 0 0 0 0 0 0 0 
0 0 0 0 0 0 0 0 0 
0 0 0 0 0 0 0 0 0 
0 0 0 0 0 0 0 0 0 
0 0 0 0 0 0 0 0 0 
0 0 0 0 0 0 0 0 0 
0 0 0 0 0 0 0 0 0 
0 0 0 0 0 0 0 0 0 
0 0 0 0 0 0 0 0 0 
0 0 0 0 0 0 0 0 0 
0 0 0 0 0 0 0 0 0 
0 0 0 0 0 0 0 0 0 
0 0 0 0 0 0 0 0 0 
0 0 0 0 0 0 0 0 0 
0 0 0 0 0 0 0 0 0 
0 0 0 0 0 0 0 0 0 
0 0 0 0 0 0 0 0 0 
0 0 0 0 0 0 0 0 0 
0 0 0 0 0 0 0 0 0 
0 0 0 0 0 0 0 0 0 
0 0 0 0 0 0 0 0 0 
0 0 0 0 0 0 0 0 0 
0 0 0 0 0 0 0 0 0 
0 0 0 0 0 0 0 0 0 
0 0 0 0 0 0 0 0 0 
0 0 0 0 0 0 0 0 0 
0 0 0 0 0 0 0 0 0 
0 0 0 0 0 0 0 0 0 
0 0 0 0 0 0 0 0 0 
0 0 0 0 0 0 0 0 0 
0 0 0 0 0 0 0 0 0 
0 0 0 0 0 0 0 0 0 
0 0 0 0 0 0 0 0 0 
0 0 0 0 0 0 0 0 0 
0 0 0 0 0 0 0 0 0 
0 0 0 0 0 0 0 0 0 
0 0 0 0 0 0 0 0 0 
0 0 0 0 0 0 0 0 0 
0 0 0 0 0 0 0 0 0 
0 0 0 0 0 0 0 0 0 
0 0 0 0 0 0 0 0 0 
0 0 0 0 0 0 0 0 0 
0 0 0 0 0 0 0 0 0 
0 0 0 0 0 0 0 0 0 
0 0 0 0 0 0 0 0 0 
0 0 0 0 0 0 0 0 0 
0 0 0 0 0 0 0 0 0 
0 0 0 0 0 0 0 0 0 
0 0 0 0 0 0 0 0 0 
0 0 0 0 0 0 0 0 0 
0 0 0 0 0 0 0 0 0 
0 0 0 0 0 0 0 0 0 
0 0 0 0 0 0 0 0 0 
0 0 0 0 0 0 0 0 0 
0 0 0 0 0 0 0 0 0 

NORMALS Normals float
0.00525959 -0.037568 0.99928 0.1166 0.571192 0.812493 0.0244259 0.502626 0.864159 
-0.0118323 0.497813 0.867204 -0.0588361 0.506954 0.859963 0.202057 0.481284 0.852959 
0.035584 0.372624 0.9273 -0.0300586 0.295998 0.954716 -0.0224461 0.193082 0.980926 
0.0224237 0.169489 0.985277 -0.0631113 0.177937 0.982016 -0.079114 0.207 0.975137 
-0.0271922 0.308398 0.950869 -0.00429008 0.399241 0.916836 -0.0913183 0.435177 0.895702 
-0.241913 0.521598 0.818177 0.326736 0.298473 0.896748 0.124671 0.167702 0.977923 
-0.0346254 0.185848 0.981968 -0.105811 0.072473 0.991742 -0.090748 0.0125272 0.995795 
-0.0123973 -0.0389562 0.999164 -0.0304929 0.00748612 0.999507 -0.0208616 0.0132909 0.999694 
0.061358 0.061872 0.996196 0.0512236 0.106546 0.992987 -0.0554578 0.138383 0.988825 
-0.189519 0.237499 0.952721 -0.315108 0.323113 0.892359 0.601067 0.218091 0.768866 
0.233214 0.169069 0.957615 0.0808647 0.0735525 0.994008 -0.0747585 0.0529011 0.995797 
-0.21107 0.00389056 0.977463 -0.146672 -0.061418 0.987277 0.0174486 -0.0330738 0.999301 
-0.0108056 0.00659651 0.99992 -0.0264266 0.0723142 0.997032 0.0789764 -0.0667312 0.99464 
0.0753221 -0.053181 0.99574 0.0393052 0.022154 0.998982 -0.0851414 0.0971666 0.99162 
-0.281174 0.137403 0.949769 0.525619 0.119772 0.842246 0.158809 0.0720654 0.984676 
0.00162886 0.0355978 0.999365 -0.101286 -0.0219149 0.994616 -0.216622 -0.0223551 0.976 
-0.118341 0.0248506 0.992662 0.0620135 0.273823 0.959779 0.0825551 -0.147748 0.985574 
-0.100362 0.199924 0.974658 -0.0576658 -0.0749299 0.99552 0.140647 -0.0443169 0.989067 
0.092292 0.0266532 0.995375 -0.0548427 0.0136495 0.998402 -0.212918 0.046175 0.975978 
-0.396179 0.116311 0.910776 0.485426 -0.0349887 0.873577 0.135262 -0.0276846 0.990423 
-0.0112754 -0.0183074 0.999769 -0.131274 -0.00107458 0.991346 -0.172951 0.0368367 0.984241 
0.128067 0.117049 0.984834 -0.0454456 0.159902 0.986086 0.0129133 0.0369487 0.999234 
-0.121208 0.0892523 0.988606 0.163891 0.07402 0.983697 0.0929797 0.0624621 0.993707 
-0.0536182 0.030951 0.998082 -0.193967 0.0284646 0.980595 -0.414242 0.00852604 0.910127 
0.536688 -0.198806 0.820026 0.181668 -0.109757 0.977215 0.0276379 -0.0487825 0.998427 
-0.0499326 0.0312988 0.998262 -0.111917 0.0854301 0.990039 0.0353217 0.11635 0.99258 
0.0630554 -0.124359 0.990232 -0.0552845 0.325036 0.944084 -0.121158 0.120318 0.985314 
-0.0589329 0.246712 0.967295 0.118462 0.152903 0.981115 0.0385358 0.0624456 0.997304 
-0.0871305 0.0535297 0.994758 -0.222567 -0.0149481 0.974803 -0.442766 -0.113961 0.889366 
0.672999 -0.227087 0.70392 0.299605 -0.142319 0.943389 0.124651 -0.0880466 0.988286 
0.000280101 -0.0297048 0.999559 -0.0857695 0.0528402 0.994913 -0.0479262 0.0831276 0.995386 
0.0958015 -0.0219791 0.995158 0.131373 0.103874 0.985876 -0.0127152 0.0141583 0.999819 
-0.0605405 0.156201 0.985868 -0.108896 0.232759 0.966419 -0.0154143 0.0844455 0.996309 
-0.000338469 -0.0318701 0.999492 -0.138913 -0.0873476 0.986445 -0.340444 -0.14585 0.928884 
0.384062 -0.382218 0.84048 0.151938 -0.243917 0.95782 0.0956949 -0.14345 0.98502 
0.00490263 -0.0725803 0.997351 -0.0400707 -0.00987692 0.999148 0.0822593 0.0367128 0.995935 
0.0311756 -0.0384418 0.998774 0.133108 -0.0394901 0.990315 -0.0278804 -0.0193738 0.999424 
0.00797568 -0.0704308 0.997485 -0.139952 0.0405191 0.989329 -0.146294 -0.0752704 0.986373 
-0.142747 -0.185883 0.972148 -0.217123 -0.340392 0.914872 -0.388204 -0.44664 0.806108 
0.325285 -0.394964 0.859182 0.170243 -0.294535 0.940355 0.0489005 -0.274141 0.960445 
0.0534919 -0.213657 0.975443 0.0683214 -0.166675 0.983642 0.0557337 -0.23959 0.969273 
0.0161088 -0.284091 0.958662 -0.152601 -0.29201 0.944163 -0.234307 -0.398907 0.886551 
-0.272765 -0.491766 0.826901 0.109818 -0.622948 0.774517 0.0542002 -0.604766 0.794556 
0.0439698 -0.601613 0.797577 0.0109163 -0.618145 0.785989 -0.0717549 -0.671114 0.737874 
-0.228234 -0.741152 0.63135 0.119378 0.582492 0.804023 0.0254603 0.546362 0.837162 
-0.0114401 0.53493 0.844819 -0.0607463 0.536722 0.84157 0.258205 0.611385 0.748023 
0.361755 0.820043 0.443467 0.128246 0.585596 0.800394 0.152655 0.599245 0.785877 
0.197888 0.731847 0.652105 -0.105665 0.529579 0.841654 -0.141108 0.500064 0.854415 
-0.157635 0.565155 0.809785 -0.0950458 0.487988 0.86766 -0.162956 0.735193 0.65798 
-0.0348251 0.543348 0.838785 -0.107302 0.830515 0.546562 -0.113973 0.594576 0.79592 
-0.190032 0.895214 0.403087 -0.243459 0.527418 0.813977 0.443945 0.569041 0.692174 
0.463335 0.549477 0.695267 0.497712 0.59428 0.631755 -0.251507 0.523818 0.813854 
-0.347615 0.39623 0.849803 -0.455818 0.626111 0.632625 0.667481 0.397407 0.629712 
0.684071 0.370493 0.628317 0.716038 0.413985 0.562055 -0.365753 0.343856 0.864863 
-0.591965 0.4264 0.68393 0.701168 0.235797 0.672877 -0.496378 0.173104 0.850673 
-0.482442 0.151694 0.862693 -0.542247 0.187917 0.818936 -0.821545 0.355733 0.445554 
0.73461 0.135904 0.664739 -0.142437 0.0870858 0.985965 -0.466625 0.122429 0.875941 
-0.762275 0.160136 0.627131 0.739733 -0.0296142 0.672248 0.9767 -0.0120711 0.214268 
-0.177508 0.137265 0.974499 -0.14424 0.130775 0.980863 -0.157641 0.162302 0.974067 
-0.165898 0.124803 0.978214 -0.489296 0.00102676 0.872117 -0.767255 -0.0243592 0.64088 
0.698042 -0.208518 0.685024 -0.503482 -0.130246 0.854132 -0.529976 -0.189733 0.826515 
-0.79683 -0.205505 0.56818 0.679918 -0.228488 0.696781 0.677187 -0.2447 0.693931 
-0.544835 -0.223474 0.808217 -0.583876 -0.244617 0.774113 0.583625 -0.43574 0.68521 
0.778682 -0.487781 0.394618 0.493518 -0.511021 0.703774 -0.34378 -0.598555 0.723566 
-0.43327 -0.460849 0.774529 -0.40693 -0.502644 0.76273 -0.670641 -0.559589 0.48693 
0.473417 -0.492552 0.730253 0.612011 -0.612057 0.500828 0.378553 -0.590922 0.712397 
0.223255 -0.693157 0.68534 -0.268914 -0.728149 0.630464 -0.342929 -0.609321 0.714932 
-0.304359 -0.67418 0.672939 -0.355736 -0.638748 0.682242 -0.500356 -0.805352 0.317888 
0.462515 -0.840645 0.281774 0.208442 -0.705592 0.677268 0.229896 -0.736389 0.636301 
0.129496 -0.710904 0.691265 0.0369777 -0.725885 0.686822 0.0399167 -0.731444 0.680732 
0.00369629 -0.76736 0.641206 -0.105393 -0.796612 0.595232 -0.254138 -0.779469 0.572575 
-0.239501 -0.792219 0.561275 -0.304157 -0.87837 0.368719 0.398713 0.891529 0.214952 
0.23975 0.925195 0.294167 0.163543 0.943067 0.289619 0.12244 0.945046 0.303145 
0.0230651 0.951184 0.30776 0.0269804 0.99277 0.116962 -0.125225 0.945297 0.301219 
-0.232965 0.912305 0.33679 -0.19287 0.909101 0.369238 -0.13974 0.923201 0.358013 
-0.207734 0.936744 0.281703 0.482596 0.853366 0.197149 0.605806 0.780254 0.155574 
-0.267547 0.920836 0.283689 -0.324468 0.893963 0.309114 -0.474102 0.816397 0.329734 
0.734856 0.666708 0.124444 0.82354 0.561982 0.0771888 -0.596607 0.722636 0.349082 
-0.670202 0.641133 0.373868 0.883297 0.464036 0.0667578 -0.767151 0.509008 0.390372 
-0.826016 0.366928 0.427858 0.945026 0.318968 0.0720048 -0.830856 0.35549 0.428141 
0.985051 0.162586 0.0569224 0.990796 0.123031 0.0564446 -0.886198 0.160969 0.434444 
0.997722 -0.00670319 0.0671302 0.988033 -0.13588 0.0729922 0.989366 -0.0051187 -0.14536 
-0.904871 -0.0403082 0.423774 0.977204 -0.196776 0.0796939 -0.893113 -0.215545 0.394829 
-0.84831 -0.361324 0.387059 0.928008 -0.351844 0.122502 -0.828864 -0.399633 0.391507 
-0.891202 -0.426639 0.154076 0.850806 -0.5186 0.0847506 0.819397 -0.566762 0.0858499 
-0.727654 -0.605142 0.32299 -0.685326 -0.660052 0.307669 0.730704 -0.66962 0.132971 
0.646503 -0.751334 0.132402 -0.316596 -0.939193 0.132977 -0.360308 -0.90964 0.206719 
-0.518127 -0.816889 0.25345 -0.49538 -0.832135 0.249297 0.507228 -0.85761 0.0850036 
0.473102 -0.877122 0.082648 0.466838 -0.840984 -0.27351 0.256346 -0.960425 0.108949 
0.0966911 -0.993672 0.0571601 0.0692909 -0.995866 0.0587397 0.0350589 -0.998097 0.0507214 
-0.0465336 -0.99675 0.0657547 -0.133338 -0.987265 0.0867727 -0.242183 -0.965429 0.0964034 
-0.316478 -0.940961 0.12014 -0.318859 -0.93972 0.123515 0.0310129 0.983114 -0.180344 
0.462844 0.850073 -0.251298 0.282689 0.938591 -0.197824 0.166211 0.974608 -0.150046 
0.0547206 0.984028 -0.169396 0.116672 0.98288 -0.142602 -0.0541286 0.984409 -0.167359 
0.0291572 0.977862 -0.207209 -0.102845 0.981789 -0.159731 -0.185284 0.977327 -0.102482 
-0.184846 0.981836 -0.0427737 -0.197361 0.978264 -0.0636268 -0.224288 0.969941 -0.0943889 
0.514788 0.815608 -0.264154 0.646688 0.698136 -0.307246 0.465394 0.788122 -0.402831 
-0.270767 0.958408 -0.0902208 -0.232902 0.892161 -0.387048 -0.28792 0.95349 -0.089213 
-0.469992 0.875858 -0.109457 0.727478 0.598713 -0.33514 0.797587 0.481216 -0.363711 
0.625065 0.547406 -0.556453 -0.628541 0.768797 -0.117845 -0.670871 0.732695 -0.114408 
0.81375 0.448736 -0.369388 0.782198 0.445017 -0.436034 -0.812896 0.576251 -0.0844612 
-0.886353 0.455444 -0.083363 0.877761 0.304052 -0.370254 0.706167 0.279979 -0.650338 
-0.931829 0.353261 -0.0830751 -0.851533 0.363015 -0.378302 0.915609 0.159669 -0.369006 
-0.983803 0.157701 -0.08522 0.926323 -0.009193 -0.376617 -0.995632 -0.0443936 -0.082136 
0.898455 -0.191702 -0.395005 -0.969485 -0.230638 -0.0830942 0.854962 -0.324753 -0.404444 
0.687994 -0.319341 -0.651679 -0.898964 -0.426157 -0.101258 -0.881887 -0.460036 -0.103162 
-0.878087 -0.433059 -0.203529 0.757885 -0.513189 -0.402798 0.756129 -0.515162 -0.40358 
0.754877 -0.513275 -0.4083 -0.737155 -0.664981 -0.120016 -0.66052 -0.739243 -0.131272 
-0.611823 -0.601779 -0.513356 0.66264 -0.626905 -0.409754 0.626111 -0.665266 -0.406702 
0.614357 -0.609309 -0.501306 0.450415 -0.799533 -0.397334 -0.273818 -0.937457 -0.214936 
-0.319092 -0.924552 -0.208287 -0.486148 -0.855744 -0.177095 -0.452597 -0.872449 -0.184361 
-0.446824 -0.848067 -0.284835 0.422613 -0.814036 -0.398427 0.240517 -0.879162 -0.411369 
0.230942 -0.781077 -0.580159 0.0842494 -0.90565 -0.415572 0.0649275 -0.752279 -0.655638 
0.0206401 -0.903232 -0.428656 -0.00368753 -0.726756 -0.686886 0.0377288 -0.875075 -0.482514 
0.0542128 -0.715984 -0.696009 0.0308798 -0.914245 -0.403983 0.0909819 -0.710239 -0.698056 
-0.0930144 -0.940758 -0.326072 -0.0202241 -0.729334 -0.683859 -0.217792 -0.929328 -0.298188 
-0.185543 -0.805907 -0.562216 -0.272257 -0.928412 -0.252837 -0.270423 -0.920177 -0.283101 
-0.25549 -0.900225 -0.352589 0.289412 0.712879 -0.638784 0.188907 0.75735 -0.625089 
0.080431 0.780567 -0.619875 0.00684468 0.774674 -0.632324 -0.0292565 0.780387 -0.624612 
-0.0846515 0.823137 -0.561498 -0.140576 0.851807 -0.504641 -0.175164 0.852406 -0.492668 
0.294483 0.709757 -0.639941 0.436687 0.587711 -0.681102 0.288901 0.708495 -0.643872 
0.167535 0.650102 -0.741147 0.0764064 0.58407 -0.808099 0.00449498 0.575939 -0.81748 
-0.00205221 0.58713 -0.80949 -0.0311528 0.634865 -0.771995 -0.116795 0.722018 -0.681945 
-0.212772 0.848069 -0.485291 -0.168421 0.806664 -0.566505 -0.231371 0.836709 -0.496373 
-0.309842 0.776771 -0.548293 -0.45634 0.696088 -0.55427 0.516723 0.49599 -0.697847 
0.571724 0.413255 -0.708768 0.415189 0.461246 -0.784137 0.19648 0.372756 -0.906889 
0.108086 0.288518 -0.951354 0.0320459 0.257237 -0.965817 -0.00761247 0.215674 -0.976436 
0.010873 0.240987 -0.970467 0.0435943 0.212381 -0.976214 -0.0807265 0.33499 -0.938757 
-0.169734 0.422904 -0.890136 -0.26622 0.55747 -0.786355 -0.487591 0.674862 -0.55391 
-0.446721 0.65436 -0.610125 -0.605519 0.532311 -0.591601 0.602355 0.363469 -0.710675 
0.543839 0.337914 -0.768149 0.309174 0.227391 -0.92342 0.135635 0.202929 -0.969754 
0.0553072 0.120249 -0.991202 -0.347127 0.328179 -0.878522 -0.657293 0.486596 -0.575491 
-0.558715 0.473154 -0.681149 0.634353 0.261952 -0.727308 0.666537 0.195467 -0.719389 
0.462389 0.185199 -0.86712 0.280464 0.123479 -0.951889 -0.0631769 -0.0819747 -0.99463 
0.0116727 -0.00569108 -0.999916 -0.0265204 0.0240842 -0.999358 0.0413377 -0.0989513 -0.994233 
-0.185381 0.211141 -0.959715 -0.706824 0.328708 -0.626379 -0.482704 0.2445 -0.840962 
-0.75885 0.251556 -0.600721 0.680475 0.143206 -0.718641 0.651321 0.138786 -0.746002 
0.396022 0.0752396 -0.915153 0.197879 0.00900048 -0.980185 -0.0169995 -0.0161897 -0.999724 
-0.0647179 -0.0490534 -0.996697 0.118461 -0.0482382 -0.991786 -0.401383 0.0557482 -0.914212 
-0.796129 0.16284 -0.582806 -0.727477 0.163015 -0.666486 0.683935 -0.0257074 -0.72909 
0.616006 -0.0312604 -0.787121 0.342128 -0.062176 -0.937594 0.169875 -0.0826784 -0.981991 
-0.0320232 -0.103025 -0.994163 0.139738 -0.037429 -0.989481 -0.0819089 -0.207749 -0.974747 
-0.0957542 -0.0487221 -0.994212 0.113571 -0.0169864 -0.993385 -0.407996 0.0225139 -0.912706 
-0.809407 -0.0442968 -0.585576 -0.732928 -0.045763 -0.678765 0.651553 -0.209651 -0.729058 
0.640072 -0.222365 -0.735433 0.639511 -0.209787 -0.739605 0.35488 -0.161896 -0.920788 
0.185409 -0.140152 -0.972615 0.00529632 -0.135157 -0.99081 -0.0484594 -0.108283 -0.992938 
0.115446 -0.107987 -0.987426 -0.164486 0.0356603 -0.985735 0.024915 -0.168854 -0.985326 
0.093805 -0.0540598 -0.994122 0.150181 -0.0208995 -0.988438 -0.409407 -0.107452 -0.906002 
-0.768337 -0.235114 -0.595298 -0.757617 -0.261814 -0.597888 -0.749555 -0.233343 -0.619451 
0.518046 -0.284953 -0.806492 0.411937 -0.248529 -0.876665 0.193389 -0.229676 -0.953861 
0.0606974 -0.1536 -0.986267 -0.000203968 -0.0917323 -0.995784 -0.011803 -0.0982345 -0.995093 
-0.00190199 -0.223512 -0.974699 0.00970627 -0.00119945 -0.999952 0.0068789 0.0362441 -0.999319 
0.066896 -0.0180645 -0.997596 0.136784 -0.0808172 -0.987299 -0.0834826 -0.205588 -0.975071 
-0.186424 -0.269161 -0.94488 -0.686918 -0.38779 -0.614624 -0.581688 -0.531426 -0.615813 
-0.514859 -0.36549 -0.775459 0.496507 -0.374109 -0.783277 0.490789 -0.382874 -0.782645 
0.476692 -0.368026 -0.798324 0.262384 -0.273879 -0.925281 0.142044 -0.247369 -0.958453 
0.0117947 -0.201519 -0.979414 -0.0270793 -0.197741 -0.97988 0.0393086 -0.203407 -0.978305 
0.104493 -0.131864 -0.985745 0.00604826 -0.0799077 -0.996784 -0.027192 -0.112168 -0.993317 
0.00780038 -0.229572 -0.97326 -0.0337054 -0.359027 -0.932718 -0.139353 -0.382099 -0.913554 
-0.534753 -0.573012 -0.621045 -0.360573 -0.679824 -0.638613 -0.305081 -0.528042 -0.792526 
0.37003 -0.506699 -0.778674 0.356417 -0.512377 -0.781304 0.353406 -0.500589 -0.790263 
0.157341 -0.542386 -0.825264 0.130851 -0.442872 -0.886985 0.0412786 -0.571642 -0.819464 
0.0376035 -0.404442 -0.91379 -0.00389591 -0.546341 -0.837554 -0.00814045 -0.405937 -0.913865 
0.0718411 -0.53693 -0.840562 0.0698062 -0.382509 -0.921311 0.109062 -0.608718 -0.785855 
0.132275 -0.372746 -0.918457 -0.0119797 -0.688434 -0.7252 0.0264473 -0.365369 -0.930487 
-0.153454 -0.676029 -0.72072 -0.0879481 -0.387972 -0.917465 -0.172089 -0.687813 -0.705194 
-0.135808 -0.498448 -0.856216 -0.187431 -0.685933 -0.703111 -0.149098 -0.604423 -0.782587 
-0.267924 -0.750513 -0.604108 -0.259407 -0.753793 -0.603741 -0.255915 -0.745711 -0.615161 
-0.00797258 0.244251 -0.969679 0.0184689 0.134726 -0.990711 -0.0176001 0.0452806 -0.998819 
0.00883115 0.0888695 -0.996004 -0.00321055 0.237399 -0.971407 0.0181298 0.0602796 -0.998017 
-0.0107883 0.244219 -0.96966 -0.00682049 0.239585 -0.970852 -0.0269346 0.165791 -0.985793 
-0.0522429 0.19701 -0.979009 -0.181442 0.261756 -0.947926 0.119253 0.160905 -0.979739 
0.0544512 0.118621 -0.991446 0.0534994 0.118756 -0.991481 -0.0473279 -0.0575463 -0.99722 
0.00602546 0.0264644 -0.999632 -0.0127481 0.0216084 -0.999685 -0.0182496 0.0274843 -0.999456 
0.00827909 0.0470683 -0.998857 -0.00352657 0.0159666 -0.999866 0.00728551 0.0104417 -0.999919 
0.0286986 -0.059151 -0.997836 0.0192278 -0.0256477 -0.999486 0.00922048 0.0563412 -0.998369 
-0.0121886 0.119126 -0.992804 -0.197118 0.244566 -0.949385 -0.173093 0.233237 -0.95689 
0.19292 0.0944225 -0.976661 0.0825338 0.0601661 -0.99477 -0.0643929 -0.0629048 -0.99594 
-0.0677848 0.0147548 -0.997591 -0.00519988 0.0259346 -0.99965 0.0874188 0.142411 -0.98594 
-0.00662376 0.0272621 -0.999606 -0.00589929 0.0273001 -0.99961 -0.0663674 0.0577443 -0.996123 
0.0599143 -0.0715667 -0.995635 0.08248 -0.0565201 -0.994989 0.0672828 -0.0598579 -0.995937 
0.0257577 0.0121777 -0.999594 -0.153294 0.173255 -0.972874 -0.0511679 0.049885 -0.997443 
-0.18031 0.188492 -0.96538 0.159639 -0.00577186 -0.987159 0.0245382 -0.0530289 -0.998291 
-0.070797 -0.0470859 -0.996379 -0.0622517 -0.0768391 -0.995098 -0.0869812 -0.0547214 -0.994706 
0.0896698 0.147726 -0.984955 0.093395 0.15377 -0.983683 0.0193824 -0.162572 -0.986506 
0.0399358 -0.140859 -0.989224 -0.107106 0.0508718 -0.992945 -0.119861 0.109197 -0.986767 
0.10967 -0.0293906 -0.993533 0.0957921 -0.000621845 -0.995401 0.0126388 0.0430383 -0.998993 
-0.246871 0.0638598 -0.966942 -0.165857 0.0729611 -0.983447 0.0372781 -0.0788807 -0.996187 
0.0114417 -0.0834092 -0.99645 0.0207379 -0.0842038 -0.996233 0.0224546 -0.0782482 -0.996681 
0.0963705 -0.0262394 -0.995 -0.102879 -0.0726569 -0.992037 -0.102169 0.0301335 -0.99431 
0.0417247 -0.20986 -0.976841 -0.0133589 -0.129023 -0.991552 0.0639451 -0.207229 -0.9762 
0.0839646 -0.200777 -0.976032 0.114696 -0.0146353 -0.993293 0.116401 -0.0119683 -0.99313 
0.0204148 -0.0118057 -0.999722 -0.265633 0.00234504 -0.964071 -0.177479 -0.0202972 -0.983915 
-0.00541374 -0.227475 -0.973769 -0.0764381 -0.218012 -0.972948 -0.0428767 -0.26205 -0.964101 
-0.053351 -0.266616 -0.962325 0.120956 -0.0251259 -0.99234 0.101227 -0.0290623 -0.994439 
-0.0617997 -0.175297 -0.982574 0.00313938 -0.100667 -0.994915 -0.217767 -0.126294 -0.967795 
-0.132938 -0.180873 -0.974481 -0.11875 -0.140172 -0.98298 0.056076 -0.139817 -0.988588 
-0.0113188 -0.173693 -0.984735 0.0301143 -0.173816 -0.984318 0.0360998 -0.153889 -0.987428 

