# vtk DataFile Version 4.2
vtk output
ASCII
DATASET POLYDATA
POINTS 530 float
-25.1612 -34.8936 -14.8238 -16.92 -34.8936 -14.6986 -41.6436 -26.6523 -17.7257 
-33.4024 -26.6523 -19.0562 -25.1612 -26.6523 -19.2064 -16.92 -26.6523 -18.4545 
-8.67874 -26.6523 -17.7924 -0.437512 -26.6523 -16.5482 32.5274 -26.6523 -14.6357 
-49.8849 -18.4111 -17.7561 -41.6436 -18.4111 -20.2789 -33.4024 -18.4111 -21.2638 
-25.1612 -18.4111 -20.3027 -16.92 -18.4111 -19.0532 -8.67874 -18.4111 -18.7496 
-0.437512 -18.4111 -18.1654 7.80371 -18.4111 -14.93 16.0449 -18.4111 -15.3563 
24.2862 -18.4111 -17.1278 32.5274 -18.4111 -18.6232 40.7686 -18.4111 -18.9391 
49.0098 -18.4111 -17.9533 57.2511 -18.4111 -14.9152 -49.8849 -10.1699 -18.6467 
-41.6436 -10.1699 -20.9179 -33.4024 -10.1699 -21.0104 -25.1612 -10.1699 -19.9504 
-16.92 -10.1699 -18.5721 -8.67874 -10.1699 -19.9993 -0.437512 -10.1699 -19.7876 
7.80371 -10.1699 -17.702 16.0449 -10.1699 -17.2602 24.2862 -10.1699 -18.6794 
32.5274 -10.1699 -20.0632 40.7686 -10.1699 -20.6062 49.0098 -10.1699 -20.3552 
57.2511 -10.1699 -17.6242 -49.8849 -1.92867 -18.9471 -41.6436 -1.92867 -20.9509 
-33.4024 -1.92867 -21.2334 -25.1612 -1.92867 -20.354 -16.92 -1.92867 -19.0143 
-8.67874 -1.92867 -22.2419 -0.437512 -1.92867 -17.8748 7.80371 -1.92867 -21.4216 
16.0449 -1.92867 -18.9305 24.2862 -1.92867 -18.7023 32.5274 -1.92867 -20.1545 
40.7686 -1.92867 -20.9213 49.0098 -1.92867 -20.8228 57.2511 -1.92867 -18.3607 
-49.8849 6.31256 -17.7587 -41.6436 6.31256 -20.633 -33.4024 6.31256 -21.5786 
-25.1612 6.31256 -21.5813 -16.92 6.31256 -21.0092 -8.67874 6.31256 -22.3093 
-0.437512 6.31256 -19.5965 7.80371 6.31256 -20.8588 16.0449 6.31256 -18.2411 
24.2862 6.31256 -18.4613 32.5274 6.31256 -19.7459 40.7686 6.31256 -20.3807 
49.0098 6.31256 -20.0078 57.2511 6.31256 -17.6302 -49.8849 14.5538 -15.9983 
-41.6436 14.5538 -19.953 -33.4024 14.5538 -21.9873 -25.1612 14.5538 -22.2452 
-16.92 14.5538 -21.6601 -8.67874 14.5538 -20.6015 -0.437512 14.5538 -19.9966 
7.80371 14.5538 -19.1506 16.0449 14.5538 -18.3442 24.2862 14.5538 -19.455 
32.5274 14.5538 -20.1101 40.7686 14.5538 -19.4969 49.0098 14.5538 -17.7743 
-41.6436 22.795 -17.7879 -33.4024 22.795 -21.1944 -25.1612 22.795 -22.0537 
-16.92 22.795 -21.6507 -8.67874 22.795 -21.0832 -0.437512 22.795 -20.9554 
7.80371 22.795 -19.7319 16.0449 22.795 -18.5833 24.2862 22.795 -18.3363 
32.5274 22.795 -17.8654 40.7686 22.795 -16.9593 -33.4024 31.0362 -17.3185 
-25.1612 31.0362 -20.2076 -16.92 31.0362 -21.0792 -8.67874 31.0362 -22.1169 
-0.437512 31.0362 -21.7661 7.80371 31.0362 -19.3841 16.0449 31.0362 -16.4521 
-25.1612 39.2775 -15.4062 -16.92 39.2775 -18.642 -8.67874 39.2775 -20.212 
-0.437512 39.2775 -19.675 7.80371 39.2775 -16.0627 -8.67874 47.5187 -14.6584 
-25.1612 -35.1612 -14.5693 -16.92 -35.0503 -14.5693 -41.6436 -31.1416 -14.5693 
-41.6436 -34.8936 -9.63409 -32.2155 -34.8936 -14.5693 -33.4024 -34.8347 -14.5693 
-33.4024 -34.8936 -14.4983 -11.5074 -34.8936 -14.5693 -8.67874 -34.7362 -14.5693 
-8.67874 -34.8936 -14.4844 -0.437512 -32.5695 -14.5693 -0.437512 -34.8936 -13.6353 
7.80371 -34.8936 -11.4959 16.0449 -34.8936 -9.37828 24.2862 -34.8936 -6.58448 
32.5274 -26.7266 -14.5693 -48.51 -26.6523 -14.5693 -49.8849 -25.4176 -14.5693 
-49.8849 -26.6523 -13.5951 5.74052 -26.6523 -14.5693 7.80371 -21.3778 -14.5693 
7.80371 -26.6523 -13.9149 16.0449 -21.5655 -14.5693 16.0449 -26.6523 -13.2022 
32.0065 -26.6523 -14.5693 24.2862 -24.5787 -14.5693 24.2862 -26.6523 -13.6043 
33.414 -26.6523 -14.5693 40.7686 -25.8836 -14.5693 40.7686 -26.6523 -13.8551 
49.0098 -23.9124 -14.5693 49.0098 -26.6523 -11.1688 57.2511 -18.8239 -14.5693 
-54.6008 -18.4111 -14.5693 -58.1261 -18.4111 -10.5167 57.7049 -18.4111 -14.5693 
-56.4419 -10.1699 -14.5693 -58.1261 -10.1699 -13.2611 62.4627 -10.1699 -14.5693 
65.4923 -10.1699 -11.061 -57.4203 -1.92867 -14.5693 -58.1261 -1.92867 -14.0456 
63.0108 -1.92867 -14.5693 65.4923 -1.92867 -11.7746 -54.6806 6.31256 -14.5693 
-58.1261 6.31256 -11.5562 61.7918 6.31256 -14.5693 57.2511 13.3268 -14.5693 
65.4923 6.31256 -10.659 -51.7451 14.5538 -14.5693 -58.1261 14.5538 -7.113 
-49.8849 17.6093 -14.5693 56.0842 14.5538 -14.5693 49.0098 21.7021 -14.5693 
57.2511 14.5538 -13.8187 -46.1438 22.795 -14.5693 -49.8849 22.795 -10.3703 
-41.6436 27.6692 -14.5693 24.2862 31.0236 -14.5693 32.5274 29.411 -14.5693 
47.5105 22.795 -14.5693 40.7686 26.3095 -14.5693 49.0098 22.795 -13.7725 
-38.0819 31.0362 -14.5693 -41.6436 31.0362 -10.0013 -33.4024 34.5338 -14.5693 
24.2557 31.0362 -14.5693 16.0449 33.9726 -14.5693 24.2862 31.0362 -14.5591 
32.5274 31.0362 -13.0451 40.7686 31.0362 -8.70329 -26.4946 39.2775 -14.5693 
-25.1612 40.1282 -14.5693 -16.92 45.1282 -14.5693 -0.437512 45.7907 -14.5693 
10.1504 39.2775 -14.5693 7.80371 40.8901 -14.5693 -9.00764 47.5187 -14.5693 
-16.92 47.5187 -8.6272 -8.25036 47.5187 -14.5693 -8.67874 47.5874 -14.5693 
-0.437512 47.5187 -8.91928 -41.6436 -36.5653 -6.3281 -33.4024 -38.903 -6.3281 
-25.1612 -40.1121 -6.3281 -16.92 -40.4757 -6.3281 -8.67874 -41.0496 -6.3281 
-0.437512 -41.5573 -6.3281 7.80371 -40.4666 -6.3281 16.0449 -38.1365 -6.3281 
24.2862 -35.1243 -6.3281 -45.771 -34.8936 -6.3281 -49.8849 -32.6521 -6.3281 
25.5205 -34.8936 -6.3281 32.5274 -33.6139 -6.3281 32.5274 -34.8936 -3.16326 
40.7686 -32.3108 -6.3281 49.0098 -29.2138 -6.3281 -56.2794 -26.6523 -6.3281 
-58.1261 -23.937 -6.3281 53.9804 -26.6523 -6.3281 57.2511 -24.6357 -6.3281 
-61.0427 -18.4111 -6.3281 64.0654 -18.4111 -6.3281 65.4923 -15.913 -6.3281 
-63.9142 -10.1699 -6.3281 67.9698 -10.1699 -6.3281 -65.0401 -1.92867 -6.3281 
-66.3673 -1.92867 -1.00593 68.8835 -1.92867 -6.3281 -62.5161 6.31256 -6.3281 
68.1654 6.31256 -6.3281 65.4923 11.243 -6.3281 -58.7575 14.5538 -6.3281 
-58.1261 15.4721 -6.3281 63.3685 14.5538 -6.3281 57.2511 21.6179 -6.3281 
-52.8682 22.795 -6.3281 -49.8849 25.6178 -6.3281 55.9235 22.795 -6.3281 
49.0098 27.9854 -6.3281 -43.8322 31.0362 -6.3281 -41.6436 32.7772 -6.3281 
-33.4024 38.6215 -6.3281 16.0449 39.2197 -6.3281 24.2862 36.4121 -6.3281 
32.5274 34.7584 -6.3281 43.3101 31.0362 -6.3281 40.7686 32.2789 -6.3281 
-32.3855 39.2775 -6.3281 -25.1612 43.68 -6.3281 15.9509 39.2775 -6.3281 
7.80371 44.0316 -6.3281 -18.1882 47.5187 -6.3281 -16.92 48.1088 -6.3281 
-16.92 47.5187 -4.61243 -8.67874 49.527 -6.3281 -8.67874 47.5187 -1.12181 
0.712369 47.5187 -6.3281 -0.437512 48.051 -6.3281 -0.437512 47.5187 -4.76968 
-41.6436 -36.1648 1.91313 -33.4024 -38.4627 1.91313 -25.1612 -39.664 1.91313 
-16.92 -40.243 1.91313 -8.67874 -41.2409 1.91313 -0.437512 -42.6881 1.91313 
7.80371 -43.1053 1.91313 16.0449 -41.5532 1.91313 24.2862 -39.0327 1.91313 
32.5274 -36.6836 1.91313 -44.7229 -34.8936 1.91313 -49.8849 -32.3341 1.91313 
-41.6436 -34.8936 5.0064 39.809 -34.8936 1.91313 40.7686 -34.6423 1.91313 
49.0098 -30.3542 1.91313 -56.3421 -26.6523 1.91313 -58.1261 -24.7186 1.91313 
55.3586 -26.6523 1.91313 57.2511 -25.3083 1.91313 -62.4468 -18.4111 1.91313 
64.2797 -18.4111 1.91313 65.4923 -16.1276 1.91313 -66.1577 -10.1699 1.91313 
-66.3673 -7.92336 1.91313 67.991 -10.1699 1.91313 65.4923 -10.1699 7.99535 
-66.9267 -1.92867 1.91313 -66.3673 1.23466 1.91313 -66.3673 -1.92867 4.65612 
69.0149 -1.92867 1.91313 65.4923 -1.92867 10.0214 -65.4379 6.31256 1.91313 
67.8706 6.31256 1.91313 65.4923 10.7335 1.91313 65.4923 6.31256 8.36778 
-62.0489 14.5538 1.91313 -58.1261 19.5048 1.91313 63.2365 14.5538 1.91313 
57.2511 21.3231 1.91313 -55.0226 22.795 1.91313 -49.8849 27.0459 1.91313 
55.5043 22.795 1.91313 49.0098 27.5194 1.91313 -43.9314 31.0362 1.91313 
-41.6436 32.4421 1.91313 -41.6436 31.0362 5.1083 -33.4024 37.2922 1.91313 
16.0449 38.9727 1.91313 24.2862 36.8781 1.91313 32.5274 34.8321 1.91313 
42.6317 31.0362 1.91313 40.7686 31.9911 1.91313 40.7686 31.0362 4.28947 
-29.567 39.2775 1.91313 -25.1612 41.6172 1.91313 -25.1612 39.2775 5.67477 
-16.92 44.9706 1.91313 -16.92 39.2775 8.63384 -8.67874 46.0951 1.91313 
-8.67874 39.2775 9.49337 -0.437512 44.8824 1.91313 -0.437512 39.2775 9.0316 
15.2071 39.2775 1.91313 7.80371 42.0749 1.91313 7.80371 39.2775 6.94347 
-33.4024 -35.5008 10.1544 -25.1612 -36.3506 10.1544 -16.92 -36.6947 10.1544 
-8.67874 -37.812 10.1544 -0.437512 -39.6261 10.1544 7.80371 -40.7067 10.1544 
16.0449 -40.3906 10.1544 24.2862 -38.6561 10.1544 32.5274 -36.3882 10.1544 
-49.8849 -28.1362 10.1544 -35.3016 -34.8936 10.1544 -41.6436 -32.4969 10.1544 
-33.4024 -34.8936 10.9633 -25.1612 -34.8936 11.949 -16.92 -34.8936 12.4239 
-8.67874 -34.8936 13.4128 -0.437512 -34.8936 15.1418 7.80371 -34.8936 16.6711 
16.0449 -34.8936 17.1239 24.2862 -34.8936 16.4101 36.413 -34.8936 10.1544 
32.5274 -34.8936 12.9797 40.7686 -32.9721 10.1544 49.0098 -28.8809 10.1544 
-51.6784 -26.6523 10.1544 -58.1261 -20.261 10.1544 -49.8849 -26.6523 11.6648 
-41.6436 -26.6523 15.7868 -33.4024 -26.6523 18.0534 -25.1612 -26.6523 18.3903 
52.1095 -26.6523 10.1544 49.0098 -26.6523 13.4514 57.2511 -22.0058 10.1544 
-59.5071 -18.4111 10.1544 -58.1261 -18.4111 11.7368 -49.8849 -18.4111 17.3156 
60.5313 -18.4111 10.1544 57.2511 -18.4111 13.9967 -63.8441 -10.1699 10.1544 
-58.1261 -10.1699 17.0989 64.4109 -10.1699 10.1544 57.2511 -10.1699 17.7409 
-64.9829 -1.92867 10.1544 -0.437512 -1.92867 17.8993 65.4177 -1.92867 10.1544 
-63.6219 6.31256 10.1544 -58.1261 6.31256 17.0791 16.0449 6.31256 17.8598 
64.5325 6.31256 10.1544 57.2511 6.31256 16.7967 -59.916 14.5538 10.1544 
-58.1261 16.6771 10.1544 -58.1261 14.5538 11.9819 -49.8849 14.5538 17.2722 
16.0449 14.5538 18.3459 49.0098 14.5538 16.931 59.1271 14.5538 10.1544 
57.2511 16.7397 10.1544 57.2511 14.5538 12.1146 -51.6373 22.795 10.1544 
-49.8849 24.0405 10.1544 -49.8849 22.795 11.5649 -41.6436 28.6241 10.1544 
-41.6436 22.795 15.4008 -33.4024 22.795 16.7449 -25.1612 22.795 17.2395 
-16.92 22.795 17.1803 -8.67874 22.795 17.4451 -0.437512 22.795 17.8424 
24.2862 22.795 18.311 32.5274 22.795 16.5979 40.7686 27.8821 10.1544 
40.7686 22.795 14.7842 50.0126 22.795 10.1544 49.0098 23.5296 10.1544 
49.0098 22.795 10.9338 -36.3944 31.0362 10.1544 -33.4024 32.4058 10.1544 
[...]
POINT_DATA 530
SCALARS ImageScalars float
LOOKUP_TABLE default
0 0 0 0 0 0 0 0 0 
0 0 0 0 0 0 0 0 0 
0 0 0 0 0 0 0 0 0 
0 0 0 0 0 0 0 0 0 
0 0 0 0 0 0 0 0 0 
0 0 0 0 0 0 0 0 0 
0 0 0 0 0 0 0 0 0 
0 0 0 0 0 0 0 0 0 
0 0 0 0 0 0 0 0 0 
0 0 0 0 0 0 0 0 0 
0 0 0 0 0 0 0 0 0 
0 0 0 0 0 0 0 0 0 
0 0 0 0 0 0 0 0 0 
0 0 0 0 0 0 0 0 0 
0 0 0 0 0 0 0 0 0 
0 0 0 0 0 0 0 0 0 
0 0 0 0 0 0 0 0 0 
0 0 0 0 0 0 0 0 0 
0 0 0 0 0 0 0 0 0 
0 0 0 0 0 0 0 0 0 
0 0 0 0 0 0 0 0 0 
0 0 0 0 0 0 0 0 0 
0 0 0 0 0 0 0 0 0 
0 0 0 0 0 0 0 0 0 
0 0 0 0 0 0 0 0 0 
0 0 0 0 0 0 0 0 0 
0 0 0 0 0 0 0 0 0 
0 0 0 0 0 0 0 0 0 
0 0 0 0 0 0 0 0 0 
0 0 0 0 0 0 0 0 0 
0 0 0 0 0 0 0 0 0 
0 0 0 0 0 0 0 0 0 
0 0 0 0 0 0 0 0 0 
0 0 0 0 0 0 0 0 0 
0 0 0 0 0 0 0 0 0 
0 0 0 0 0 0 0 0 0 
0 0 0 0 0 0 0 0 0 
0 0 0 0 0 0 0 0 0 
0 0 0 0 0 0 0 0 0 
0 0 0 0 0 0 0 0 0 
0 0 0 0 0 0 0 0 0 
0 0 0 0 0 0 0 0 0 
0 0 0 0 0 0 0 0 0 
0 0 0 0 0 0 0 0 0 
0 0 0 0 0 0 0 0 0 
0 0 0 0 0 0 0 0 0 
0 0 0 0 0 0 0 0 0 
0 0 0 0 0 0 0 0 0 
0 0 0 0 0 0 0 0 0 
0 0 0 0 0 0 0 0 0 
0 0 0 0 0 0 0 0 0 
0 0 0 0 0 0 0 0 0 
0 0 0 0 0 0 0 0 0 
0 0 0 0 0 0 0 0 0 
0 0 0 0 0 0 0 0 0 
0 0 0 0 0 0 0 0 0 
0 0 0 0 0 0 0 0 0 
0 0 0 0 0 0 0 0 0 
0 0 0 0 0 0 0 0 
NORMALS Normals float
0.00861125 0.654649 0.755884 -0.0170743 0.620503 0.784018 0.27902 0.458779 0.843605 
0.0761123 0.349002 0.934026 -0.0399311 0.281194 0.95882 -0.0779146 0.233617 0.969202 
-0.113568 0.238858 0.964391 -0.219771 0.24873 0.94331 0.0228611 0.607038 0.794344 
0.436184 0.23508 0.868608 0.196275 0.162977 0.96691 0.00568248 0.123508 0.992327 
-0.131638 0.0382638 0.990559 -0.0927694 0.00839583 0.995652 -0.0517192 0.125199 0.990783 
-0.22973 0.190388 0.954451 -0.161577 0.191454 0.968111 0.132804 0.240425 0.96154 
0.184275 0.278138 0.942699 0.10988 0.299912 0.947618 -0.0401957 0.346065 0.937349 
-0.204845 0.406913 0.890202 -0.499232 0.504319 0.704578 0.39159 0.072191 0.917304 
0.128793 0.0436766 0.990709 -0.0584828 -0.00124937 0.998288 -0.146698 0.00331769 0.989176 
-0.00256485 -0.00267544 0.999993 0.0771511 0.184955 0.979714 -0.117316 -0.00223939 0.993092 
-0.159405 0.379367 0.911411 0.0670783 0.209899 0.975419 0.169124 0.09301 0.981196 
0.114508 0.0809927 0.990115 0.0192851 0.123039 0.992214 -0.180081 0.175849 0.967806 
-0.407933 0.173421 0.896391 0.350333 -0.048871 0.935349 0.126699 -0.016919 0.991797 
-0.0365174 0.0343157 0.998744 -0.133761 0.0953272 0.986418 0.0698794 0.154423 0.98553 
-0.0283025 0.151375 0.988071 -0.0253645 -0.0154463 0.999559 0.0477666 0.160612 0.985861 
-0.154567 0.0645748 0.98587 0.0768048 -0.0133778 0.996956 0.132995 -0.019 0.990934 
0.0408184 -0.0134306 0.999076 -0.164994 -0.0209583 0.986072 -0.406253 0.00113735 0.91376 
0.443135 -0.159425 0.882165 0.210607 -0.0592831 0.975772 0.0550776 0.0452844 0.997455 
-0.0350348 0.117069 0.992506 0.0429038 0.159693 0.986234 -0.0787407 -0.102815 0.991579 
-0.0896953 0.116563 0.989125 -0.0734835 -0.136422 0.987922 -0.149226 -0.0329964 0.988252 
0.0896142 0.0449875 0.99496 0.115118 -0.00345807 0.993346 0.0174647 -0.0927754 0.995534 
-0.161321 -0.18015 0.97032 -0.422545 -0.210929 0.881456 0.554333 -0.286095 0.781578 
0.32544 -0.140875 0.93501 0.135905 -0.0188206 0.990543 -0.020185 0.0269449 0.999433 
-0.0990438 0.0383691 0.994343 -0.10069 -0.0699812 0.992454 -0.0872575 0.0803886 0.992937 
-0.100255 -0.0646466 0.992859 0.0182426 0.0200136 0.999633 0.106259 -0.0118041 0.994268 
-0.00170477 -0.108244 0.994123 -0.128541 -0.178534 0.975501 -0.280019 -0.318444 0.905639 
0.476013 -0.38452 0.790921 0.209853 -0.239525 0.94794 0.0230239 -0.111546 0.993492 
-0.0580045 -0.034191 0.997731 -0.0428173 0.0910858 0.994922 -0.0800854 0.104708 0.991273 
-0.143133 0.0164639 0.989567 -0.0842707 -0.0993281 0.99148 -0.0400083 -0.249332 0.967591 
-0.0782491 -0.339515 0.93734 -0.212782 -0.471173 0.85599 0.393414 -0.534208 0.748229 
0.200187 -0.322443 0.925179 0.107517 -0.169061 0.979724 0.0422601 -0.0386973 0.998357 
-0.146364 -0.0561394 0.987637 -0.312613 -0.192288 0.930214 -0.273146 -0.412557 0.869016 
0.43296 -0.652575 0.621845 0.241705 -0.430941 0.869407 0.0654645 -0.388748 0.919015 
-0.219793 -0.422761 0.879184 -0.459578 -0.570821 0.680405 0.0249054 -0.845816 0.532893 
0.0115841 0.667616 0.744415 -0.0155981 0.627421 0.778524 0.322545 0.619771 0.715436 
0.338703 0.856048 0.390463 0.13557 0.718999 0.68166 0.155168 0.724886 0.671166 
0.156412 0.729682 0.665657 -0.0405752 0.577938 0.815071 -0.0550038 0.548079 0.834616 
-0.0526693 0.557301 0.828638 -0.176965 0.413756 0.893023 -0.151816 0.508272 0.84771 
-0.223168 0.497975 0.837984 -0.244856 0.581965 0.775475 -0.213368 0.76978 0.601591 
0.0223271 0.609827 0.79222 0.436585 0.521738 0.732928 0.469978 0.481756 0.739616 
0.487891 0.548405 0.679127 -0.200851 0.20234 0.958498 -0.172236 0.187164 0.967111 
-0.193866 0.189324 0.962586 0.0760216 0.264241 0.961456 -0.0206403 0.312006 0.949856 
0.026435 0.601847 0.798174 0.101984 0.456295 0.883965 0.0665956 0.517828 0.852888 
0.0089639 0.614354 0.788979 -0.0946887 0.636146 0.765736 -0.112396 0.676481 0.727833 
-0.27568 0.625824 0.72962 -0.329798 0.790746 0.515707 -0.504317 0.520508 0.689011 
0.615148 0.240258 0.750912 0.781632 0.310964 0.540696 -0.515966 0.508781 0.689145 
0.603059 0.108987 0.790216 0.671837 0.134759 0.728337 -0.623423 0.200736 0.755677 
-0.830995 0.227047 0.507836 0.623793 -0.0680962 0.778618 0.654333 -0.0711746 0.75285 
-0.655309 -0.0285238 0.754822 -0.815361 -0.0203413 0.578596 0.587198 -0.208241 0.782198 
0.703075 -0.262858 0.66075 -0.599365 -0.245051 0.762044 -0.519265 -0.416446 0.746282 
-0.813417 -0.272268 0.514025 0.603787 -0.310601 0.734145 0.760131 -0.441336 0.47689 
0.597667 -0.370896 0.710796 -0.502815 -0.425486 0.752422 -0.384303 -0.500078 0.776037 
-0.551599 -0.45865 0.696691 0.579361 -0.473239 0.663616 0.658665 -0.580219 0.479067 
0.549921 -0.557588 0.621838 -0.155678 -0.6299 0.760914 -0.171577 -0.621638 0.764283 
-0.35854 -0.526032 0.771193 -0.250335 -0.602425 0.757902 -0.41041 -0.55988 0.71979 
0.508309 -0.610987 0.606891 0.599944 -0.719579 0.349677 0.465027 -0.651274 0.59966 
-0.156315 -0.629817 0.760852 -0.350055 -0.564194 0.747761 -0.155971 -0.630819 0.760092 
-0.198875 -0.744124 0.637753 -0.350785 -0.865379 0.357866 0.458181 -0.67871 0.573954 
0.453122 -0.682181 0.573854 0.327868 -0.752257 0.5715 -0.313469 -0.800252 0.511208 
-0.468087 -0.637911 0.611526 -0.487072 -0.643676 0.59029 0.0381159 -0.848675 0.52754 
0.332116 -0.938063 0.0986727 0.00591345 -0.85042 0.526071 0.0248851 -0.84922 0.527452 
-0.331896 -0.938663 0.0935804 0.334324 0.921793 0.196277 0.204153 0.962065 0.180979 
0.0922483 0.976353 0.195512 0.0578519 0.969197 0.239395 0.0631 0.955413 0.288451 
-0.0255866 0.918255 0.395162 -0.179047 0.816519 0.548852 -0.275974 0.745082 0.6072 
-0.217791 0.776108 0.591797 0.440064 0.874159 0.2054 0.567979 0.791312 0.22633 
-0.206606 0.787922 0.58008 -0.139207 0.854047 0.501223 -0.192983 0.912493 0.360713 
-0.234283 0.887132 0.397628 -0.374369 0.881646 0.287311 0.738987 0.63172 0.234154 
0.795627 0.541688 0.271204 -0.500391 0.822162 0.271402 -0.592508 0.760933 0.264415 
0.857697 0.380233 0.346091 -0.783124 0.575426 0.235801 -0.84836 0.475555 0.232664 
0.881226 0.196291 0.430013 -0.93454 0.265252 0.237228 0.894646 -0.0653692 0.441967 
0.988798 -0.0490143 0.140983 -0.961159 0.0093292 0.275838 0.829136 -0.280327 0.483685 
-0.920369 -0.298168 0.253016 -0.866241 -0.441052 0.234733 0.770354 -0.448642 0.453073 
0.764026 -0.466759 0.44542 -0.812281 -0.533706 0.235281 -0.651074 -0.731071 0.204055 
0.700982 -0.629317 0.335534 0.666543 -0.684933 0.294258 -0.622325 -0.757691 0.19651 
-0.5185 -0.834659 0.185745 0.618479 -0.762364 0.190486 0.607183 -0.777367 0.164405 
0.547404 -0.832061 0.0895703 -0.425855 -0.889412 0.166116 -0.248626 -0.931415 0.265803 
-0.239925 -0.941295 0.237487 -0.40898 -0.890718 0.198384 -0.36401 -0.906481 0.213985 
0.541417 -0.836866 0.0807581 0.503798 -0.862831 0.0413675 -0.426614 -0.889482 0.163775 
-0.472882 -0.880438 0.0347979 0.347096 -0.937102 -0.0369229 0.314865 -0.948244 -0.0411567 
0.307082 -0.942517 -0.131769 -0.00322858 -0.997921 -0.064365 -0.00261458 -0.931334 -0.364157 
-0.34542 -0.936648 -0.0580933 -0.320667 -0.944899 -0.0658653 -0.30936 -0.940166 -0.142778 
0.331255 0.920342 -0.207946 0.199599 0.960766 -0.192584 0.102764 0.975348 -0.195282 
0.0960044 0.975505 -0.197924 0.146941 0.975652 -0.162823 0.111016 0.989634 -0.091106 
-0.066501 0.997785 0.00187723 -0.24203 0.96561 0.0949702 -0.283765 0.943762 0.169679 
-0.26462 0.953897 0.14162 0.402399 0.891809 -0.206767 0.540934 0.818486 -0.193576 
0.33115 0.886945 -0.321975 -0.329509 0.94291 0.0484313 -0.340011 0.939773 0.0349215 
-0.455956 0.889883 -0.0145433 0.690612 0.704108 -0.165188 0.742547 0.65506 -0.139718 
-0.595592 0.798603 -0.0866186 -0.644729 0.756134 -0.112184 0.866384 0.494292 -0.0710973 
-0.810748 0.561673 -0.164957 -0.86372 0.471921 -0.176859 0.971017 0.238987 0.00340144 
0.986469 0.163941 0.00131498 -0.950309 0.262987 -0.166583 -0.855293 0.254121 -0.451549 
0.999166 -0.0405814 -0.00453056 0.993348 -0.114147 0.0151876 0.989237 -0.0330953 -0.142531 
-0.982706 -0.00843075 -0.184981 -0.838182 0.0115468 -0.545269 0.968306 -0.244575 0.0506533 
-0.930134 -0.316027 -0.187023 -0.883395 -0.427018 -0.193053 -0.829935 -0.3119 -0.462522 
0.846232 -0.529878 0.0558641 0.763111 -0.645869 0.0226802 -0.820849 -0.536732 -0.195256 
-0.646958 -0.737045 -0.195474 0.693255 -0.720416 -0.0199821 0.610102 -0.788978 -0.0727282 
-0.607831 -0.768886 -0.198383 -0.514356 -0.833662 -0.20111 0.528289 -0.833816 -0.160194 
0.506637 -0.841088 -0.189448 0.467035 -0.832673 -0.297547 0.461385 -0.838275 -0.290549 
-0.293686 -0.944339 -0.148233 -0.234542 -0.965952 -0.109214 -0.284898 -0.945292 -0.158923 
-0.419612 -0.885978 -0.197405 -0.394071 -0.897849 -0.196407 -0.397192 -0.869512 -0.293577 
0.441408 -0.835474 -0.327327 0.399879 -0.840744 -0.365028 0.343984 -0.789087 -0.508936 
0.234206 -0.8415 -0.486853 0.135426 -0.668808 -0.730996 -0.00348767 -0.841918 -0.539594 
0.0197208 -0.635121 -0.772161 -0.216603 -0.854006 -0.473029 -0.0847296 -0.695281 -0.713726 
-0.297379 -0.939538 -0.169809 -0.32028 -0.88187 -0.346015 -0.186381 -0.835384 -0.517103 
0.192994 0.828834 -0.525155 0.0676509 0.830079 -0.553528 0.0771875 0.827803 -0.555683 
0.151349 0.812692 -0.562695 0.154063 0.826025 -0.542169 0.0373988 0.87773 -0.477694 
-0.119973 0.920987 -0.370662 -0.235264 0.933934 -0.269105 -0.309089 0.915953 -0.255917 
0.50268 0.683882 -0.528789 0.223493 0.82182 -0.524083 0.32286 0.774739 -0.543636 
0.189807 0.809934 -0.554959 0.0633348 0.774211 -0.629751 0.0676079 0.75966 -0.646796 
0.126568 0.698966 -0.703866 0.15527 0.609717 -0.777262 0.0952455 0.588665 -0.802746 
-0.0035529 0.641423 -0.767179 -0.149802 0.74352 -0.651719 -0.353604 0.892989 -0.278452 
-0.294503 0.862227 -0.412108 -0.404059 0.85636 -0.321532 -0.505514 0.787088 -0.35348 
0.537331 0.667211 -0.515854 0.687481 0.537335 -0.488509 0.485206 0.647638 -0.587487 
0.281524 0.57265 -0.769946 0.132147 0.477579 -0.868594 0.0219863 0.432221 -0.9015 
-0.562652 0.731168 -0.385767 -0.508421 0.690144 -0.514985 -0.652903 0.608632 -0.450871 
0.721481 0.495093 -0.484095 0.672809 0.495766 -0.549131 0.392871 0.388518 -0.83349 
-0.716006 0.505646 -0.481307 -0.621296 0.485511 -0.615037 0.839658 0.271789 -0.470218 
0.549571 0.283572 -0.785849 -0.794782 0.242735 -0.556238 -0.559451 0.181652 -0.808714 
0.892885 -0.0123227 -0.450116 0.0296347 -0.0850378 -0.995937 -0.83371 0.0112998 -0.552088 
0.867793 -0.232065 -0.43941 0.563815 -0.263909 -0.782601 0.0234779 -0.0723776 -0.997101 
-0.77872 -0.30351 -0.549068 -0.5252 -0.29235 -0.799185 0.730623 -0.513421 -0.450099 
0.689272 -0.568428 -0.449215 0.669756 -0.520121 -0.53 0.320081 -0.40464 -0.85663 
0.0261376 0.0400013 -0.998858 -0.362135 -0.442599 -0.820344 -0.654488 -0.519882 -0.54897 
-0.612813 -0.566996 -0.550432 -0.588518 -0.506685 -0.630013 0.529136 -0.711381 -0.46255 
0.496524 -0.72632 -0.475314 0.474382 -0.696237 -0.538717 0.366274 -0.759998 -0.536885 
0.234172 -0.529341 -0.815452 0.0966898 -0.421562 -0.90163 0.0239712 -0.30672 -0.951498 
0.0122269 -0.252553 -0.967506 0.0383526 -0.308655 -0.9504 0.0563846 -0.282011 -0.957753 
-0.105979 -0.239872 -0.965002 -0.17729 -0.430242 -0.885133 -0.363311 -0.729772 -0.57917 
-0.272329 -0.590565 -0.759651 -0.473215 -0.681855 -0.5578 -0.460132 -0.689138 -0.559792 
-0.449766 -0.668917 -0.591828 0.324575 -0.728987 -0.602685 0.299277 -0.700498 -0.64787 
0.262442 -0.665048 -0.699168 0.215067 -0.653102 -0.726088 0.137143 -0.525099 -0.839918 
0.107369 -0.602419 -0.790925 0.0583461 -0.440425 -0.895892 0.0234252 -0.605471 -0.795523 
0.0334973 -0.415394 -0.909025 -0.0551876 -0.647196 -0.760323 0.0610866 -0.447633 -0.892128 
-0.0778691 -0.754429 -0.651746 0.0371758 -0.511549 -0.858449 -0.147278 -0.838502 -0.524618 
-0.0901484 -0.571981 -0.815298 -0.244953 -0.827789 -0.504741 -0.21046 -0.651983 -0.72844 
-0.334879 -0.771306 -0.541242 -0.32108 -0.779949 -0.537203 -0.31929 -0.755595 -0.571953 
0.00784925 0.398663 -0.917064 0.0400606 0.332359 -0.942302 0.120582 0.333388 -0.935047 
0.114946 0.43354 -0.893773 0.0232281 0.526144 -0.850078 -0.102543 0.576505 -0.810633 
-0.207459 0.580453 -0.787423 -0.319164 0.535282 -0.782053 0.234113 0.417299 -0.878096 
0.122934 0.447275 -0.885908 0.0212781 0.43036 -0.902407 0.0219052 0.431746 -0.901729 
0.00665424 0.392133 -0.919885 0.0382975 0.324007 -0.945279 0.112696 0.270686 -0.956048 
0.129655 0.26177 -0.956382 0.0577838 0.25841 -0.964306 -0.0248169 0.298245 -0.954167 
-0.164707 0.436374 -0.884562 -0.325011 0.530663 -0.782793 -0.316591 0.525583 -0.789641 
-0.416859 0.425682 -0.803134 0.324589 0.350923 -0.878348 0.3335 0.321929 -0.886081 
0.187247 0.294242 -0.937209 0.0586852 0.20517 -0.976965 -0.00696571 0.184427 -0.982821 
-0.0625448 0.183819 -0.980968 -0.0139245 0.161213 -0.986821 0.091971 0.0783802 -0.992672 
0.10869 0.11445 -0.987465 0.0595663 0.0170843 -0.998078 0.043106 0.0512099 -0.997757 
-0.0384992 0.137257 -0.989787 -0.185894 0.271419 -0.944338 -0.436589 0.391087 -0.810211 
-0.397597 0.370594 -0.83939 0.425886 0.267595 -0.8643 0.534547 0.0495264 -0.843687 
0.25506 0.238415 -0.937071 0.078361 0.125035 -0.989053 -0.000708362 0.0643367 -0.997928 
-0.0011675 -0.00181206 -0.999998 -0.0162102 0.0712785 -0.997325 -0.0734412 0.124822 -0.989457 
0.0385916 -0.0987766 -0.994361 0.0717462 -0.131954 -0.988656 0.06229 0.0389704 -0.997297 
-0.00527938 -0.159796 -0.987136 0.112677 -0.0967383 -0.988911 0.0670219 -0.0131818 -0.997664 
-0.12883 0.0509652 -0.990356 -0.517291 0.172828 -0.838177 -0.309419 0.106018 -0.944997 
-0.528248 -0.0223123 -0.848797 0.54257 0.000658417 -0.84001 0.536171 -0.0443324 -0.842944 
0.532507 0.000454892 -0.846425 0.248973 0.00675644 -0.968487 0.0111249 -0.0179773 -0.999776 
-0.0603172 -0.0464503 -0.997098 -0.00224844 -0.103554 -0.994621 0.0658604 -0.0878434 -0.993955 
-0.00381721 -0.0670931 -0.997739 -0.218947 0.0570651 -0.974067 0.0369873 -0.0959577 -0.994698 
-0.0441747 -0.00639786 -0.999003 0.06169 -0.160791 -0.985059 -0.0143743 -0.122334 -0.992385 
-0.0831523 -0.224967 -0.970812 0.198228 -0.147315 -0.969022 0.106951 -0.125942 -0.986256 
-0.0703758 -0.102978 -0.992191 -0.261119 -0.0565576 -0.963648 -0.527002 -0.0400278 -0.848921 
-0.525113 -0.0489177 -0.849625 -0.52486 -0.0401611 -0.85024 0.440843 -0.254108 -0.860864 
0.272215 -0.33678 -0.901376 0.239146 -0.239854 -0.940893 0.0255569 -0.186128 -0.982193 
-0.084322 -0.133516 -0.987453 -0.0515075 -0.1303 -0.990136 0.145914 -0.199303 -0.969014 
-0.0601361 -0.128505 -0.989884 -0.158462 0.110816 -0.981127 -0.0117205 -0.121502 -0.992522 
-0.0883297 -0.232443 -0.968591 0.0702982 -0.0807471 -0.994253 0.203588 -0.111048 -0.972739 
0.105013 -0.186979 -0.976735 -0.0561983 -0.205446 -0.977054 -0.409222 -0.282155 -0.867713 
-0.31629 -0.364691 -0.875763 -0.254217 -0.256121 -0.932617 0.192163 -0.337043 -0.92167 
0.142464 -0.332341 -0.932338 0.126422 -0.303323 -0.944464 0.0401436 -0.317112 -0.947538 
-0.00169434 -0.235751 -0.971812 -0.0354469 -0.205971 -0.977916 -0.0649358 -0.151581 -0.98631 
0.049884 -0.175763 -0.983168 0.0579767 -0.1629 -0.984938 0.0510826 -0.298624 -0.953003 
0.0764471 -0.279964 -0.956962 0.0195556 -0.227987 -0.973468 -0.0825555 -0.0856736 -0.992897 
0.00780144 0.0232534 -0.999699 -0.0916296 -0.0678334 -0.99348 0.0305759 0.0312241 -0.999045 
0.0182448 -0.00651865 -0.999812 -0.0863263 -0.224737 -0.970588 0.0900628 -0.096057 -0.991293 
-0.0576585 -0.328027 -0.942907 0.0325464 -0.254603 -0.966498 -0.26096 -0.392962 -0.881749 
-0.181764 -0.416041 -0.890995 -0.146425 -0.344602 -0.927259 0.0418305 -0.142871 -0.988857 
0.0414925 -0.141156 -0.989118 0.0413964 -0.138609 -0.989482 -0.0716522 -0.207075 -0.975698 
-0.00989734 -0.16389 -0.986429 -0.00649122 -0.14388 -0.989574 
