# vtk DataFile Version 4.2
vtk output
ASCII
DATASET POLYDATA
POINTS 530 float
-1.56777 -28.124 -15.715 5.73788 -28.124 -15.4561 13.0435 -28.124 -15.7707 
20.3492 -28.124 -16.5885 27.6548 -28.124 -16.7268 34.9605 -28.124 -15.003 
-38.096 -20.8183 -14.2308 -30.7904 -20.8183 -14.5082 -23.4847 -20.8183 -14.0088 
-16.1791 -20.8183 -14.3215 -8.87343 -20.8183 -17.2474 -1.56777 -20.8183 -19.3234 
5.73788 -20.8183 -18.3977 13.0435 -20.8183 -18.1827 20.3492 -20.8183 -18.4446 
27.6548 -20.8183 -17.993 34.9605 -20.8183 -17.5527 42.2661 -20.8183 -14.8791 
-45.4017 -13.5127 -15.1859 -38.096 -13.5127 -17.4122 -30.7904 -13.5127 -16.7171 
-23.4847 -13.5127 -15.6355 -16.1791 -13.5127 -14.4394 -8.87343 -13.5127 -18.4801 
-1.56777 -13.5127 -20.9052 5.73788 -13.5127 -19.0409 13.0435 -13.5127 -17.9749 
20.3492 -13.5127 -17.3502 27.6548 -13.5127 -17.1477 34.9605 -13.5127 -17.2986 
42.2661 -13.5127 -16.8175 49.5718 -13.5127 -14.753 -45.4017 -6.20704 -15.8404 
-38.096 -6.20704 -17.0825 -30.7904 -6.20704 -17.5198 -23.4847 -6.20704 -16.3516 
-16.1791 -6.20704 -14.0516 -8.87343 -6.20704 -19.4825 -1.56777 -6.20704 -19.6246 
5.73788 -6.20704 -19.1609 13.0435 -6.20704 -17.3172 20.3492 -6.20704 -16.5292 
27.6548 -6.20704 -17.4127 34.9605 -6.20704 -17.8777 42.2661 -6.20704 -17.717 
49.5718 -6.20704 -16.0053 -45.4017 1.09862 -15.169 -38.096 1.09862 -17.0482 
-30.7904 1.09862 -17.0519 -23.4847 1.09862 -15.9806 -16.1791 1.09862 -14.4023 
-8.87343 1.09862 -20.9472 -1.56777 1.09862 -17.2871 5.73788 1.09862 -19.1919 
13.0435 1.09862 -19.6713 20.3492 1.09862 -18.1817 27.6548 1.09862 -18.9271 
34.9605 1.09862 -19.4105 42.2661 1.09862 -18.4511 49.5718 1.09862 -16.6858 
-45.4017 8.40427 -14.6952 -38.096 8.40427 -16.2096 -30.7904 8.40427 -16.301 
-23.4847 8.40427 -15.8003 -16.1791 8.40427 -15.1829 -8.87343 8.40427 -19.1728 
-1.56777 8.40427 -19.3343 5.73788 8.40427 -19.2316 13.0435 8.40427 -19.1273 
20.3492 8.40427 -19.4039 27.6548 8.40427 -20.1767 34.9605 8.40427 -20.0092 
42.2661 8.40427 -18.8821 49.5718 8.40427 -16.3782 -38.096 15.7099 -14.034 
-30.7904 15.7099 -15.291 -23.4847 15.7099 -15.7623 -16.1791 15.7099 -16.1113 
-8.87343 15.7099 -17.7595 -1.56777 15.7099 -19.0934 5.73788 15.7099 -19.3202 
13.0435 15.7099 -19.3125 20.3492 15.7099 -19.7323 27.6548 15.7099 -19.9921 
34.9605 15.7099 -19.53 42.2661 15.7099 -17.6979 -23.4847 23.0156 -14.8146 
-16.1791 23.0156 -15.7691 -8.87343 23.0156 -16.3567 -1.56777 23.0156 -17.4388 
5.73788 23.0156 -18.7854 13.0435 23.0156 -19.2438 20.3492 23.0156 -19.3607 
27.6548 23.0156 -18.927 34.9605 23.0156 -16.7063 -1.56777 30.3212 -14.6747 
5.73788 30.3212 -16.2348 13.0435 30.3212 -17.3864 20.3492 30.3212 -17.6123 
27.6548 30.3212 -15.1468 -1.56777 -30.0611 -13.9796 5.73788 -29.8406 -13.9796 
13.0435 -30.1672 -13.9796 20.3492 -31.4303 -13.9796 27.6548 -32.2757 -13.9796 
27.6548 -35.4296 -8.74269 34.9605 -29.6873 -13.9796 -38.096 -21.3212 -13.9796 
-38.096 -28.124 -8.04483 -30.7904 -21.8348 -13.9796 -30.7904 -28.124 -9.59846 
-23.4847 -20.8858 -13.9796 -23.4847 -28.124 -9.66053 -16.1791 -21.7518 -13.9796 
-16.1791 -28.124 -10.5403 -8.7773 -28.124 -13.9796 -8.87343 -28.0698 -13.9796 
-8.87343 -28.124 -13.9502 39.2795 -28.124 -13.9796 42.2661 -25.0335 -13.9796 
42.2661 -28.124 -13.0109 49.5718 -28.124 -7.71589 -52.7073 -20.8183 -7.90749 
-39.3614 -20.8183 -13.9796 -45.4017 -17.2662 -13.9796 -45.4017 -20.8183 -12.5429 
44.7813 -20.8183 -13.9796 49.5718 -15.4648 -13.9796 49.5718 -20.8183 -11.9968 
-48.4918 -13.5127 -13.9796 -52.7073 -13.5127 -11.9006 51.0913 -13.5127 -13.9796 
56.8774 -13.5127 -9.13937 -50.1024 -6.20704 -13.9796 -52.7073 -6.20704 -12.7925 
52.928 -6.20704 -13.9796 56.8774 -6.20704 -10.4929 -48.1639 1.09862 -13.9796 
-52.7073 1.09862 -11.5857 53.5476 1.09862 -13.9796 56.8774 1.09862 -10.0613 
-46.6847 8.40427 -13.9796 -52.7073 8.40427 -8.78147 -45.4017 10.2039 -13.9796 
52.7587 8.40427 -13.9796 49.5718 14.0368 -13.9796 56.8774 8.40427 -7.65945 
-38.2507 15.7099 -13.9796 -45.4017 15.7099 -10.9735 -38.096 15.8868 -13.9796 
-30.7904 21.8369 -13.9796 48.2364 15.7099 -13.9796 42.2661 22.0238 -13.9796 
49.5718 15.7099 -12.3929 -38.096 23.0156 -11.3466 -29.0726 23.0156 -13.9796 
-30.7904 23.0156 -13.7008 -23.4847 24.9713 -13.9796 -16.1791 27.6963 -13.9796 
-8.87343 29.2664 -13.9796 41.0815 23.0156 -13.9796 34.9605 27.1141 -13.9796 
42.2661 23.0156 -12.6526 -30.7904 30.3212 -8.91109 -23.4847 30.3212 -11.0382 
-16.1791 30.3212 -12.6573 -6.04371 30.3212 -13.9796 -8.87343 30.3212 -13.5128 
-1.56777 31.3822 -13.9796 5.73788 33.4972 -13.9796 13.0435 34.9895 -13.9796 
20.3492 34.7463 -13.9796 30.1518 30.3212 -13.9796 27.6548 31.7012 -13.9796 
34.9605 30.3212 -8.549 -1.56777 37.6269 -7.85441 5.73788 37.6269 -8.908 
13.0435 37.6269 -9.83188 20.3492 37.6269 -7.85883 27.6548 -36.2699 -6.67393 
-38.096 -28.9452 -6.67393 -30.7904 -30.4467 -6.67393 -23.4847 -30.502 -6.67393 
-16.1791 -31.2265 -6.67393 -8.87343 -33.3598 -6.67393 -1.56777 -34.6987 -6.67393 
5.73788 -34.211 -6.67393 13.0435 -33.9325 -6.67393 23.6477 -35.4296 -6.67393 
20.3492 -34.7642 -6.67393 31.9469 -35.4296 -6.67393 27.6548 -35.4296 -3.48295 
34.9605 -34.8397 -6.67393 42.2661 -32.7587 -6.67393 49.5718 -29.0783 -6.67393 
-52.7073 -21.9423 -6.67393 -40.9467 -28.124 -6.67393 -45.4017 -26.6608 -6.67393 
-45.4017 -28.124 -3.00974 50.6584 -28.124 -6.67393 -53.7865 -20.8183 -6.67393 
55.3497 -20.8183 -6.67393 56.8774 -17.1589 -6.67393 56.8774 -20.8183 -0.755103 
-58.1843 -13.5127 -6.67393 58.2726 -13.5127 -6.67393 -58.465 -6.20704 -6.67393 
-60.013 -6.20704 -0.62006 60.2228 -6.20704 -6.67393 -57.6786 1.09862 -6.67393 
59.1982 1.09862 -6.67393 -54.5582 8.40427 -6.67393 -52.7073 11.4466 -6.67393 
57.3919 8.40427 -6.67393 56.8774 9.45233 -6.67393 56.8774 8.40427 -1.01252 
-49.9409 15.7099 -6.67393 -45.4017 21.4609 -6.67393 53.0116 15.7099 -6.67393 
49.5718 19.235 -6.67393 -43.9407 23.0156 -6.67393 -45.4017 23.0156 -3.17125 
-38.096 27.8062 -6.67393 45.5545 23.0156 -6.67393 42.2661 25.6499 -6.67393 
-34.1264 30.3212 -6.67393 -38.096 30.3212 0.406683 -30.7904 32.1046 -6.67393 
-23.4847 34.3274 -6.67393 -16.1791 35.9726 -6.67393 -8.87343 37.4917 -6.67393 
27.6548 35.1422 -6.67393 36.0471 30.3212 -6.67393 34.9605 31.0723 -6.67393 
-16.1791 37.6269 -1.47529 -7.8991 37.6269 -6.67393 -8.87343 37.6269 -6.30011 
-1.56777 38.3984 -6.67393 5.73788 38.8562 -6.67393 13.0435 39.0137 -6.67393 
21.5228 37.6269 -6.67393 20.3492 38.0711 -6.67393 20.3492 37.6269 -1.45822 
-45.4017 -29.4708 0.631724 -38.096 -31.4125 0.631724 -30.7904 -32.8713 0.631724 
-23.4847 -33.4804 0.631724 -16.1791 -33.905 0.631724 -8.87343 -34.8417 0.631724 
-1.56777 -35.3193 0.631724 5.73788 -34.1913 0.631724 13.0435 -32.9435 0.631724 
20.3492 -33.4622 0.631724 27.6548 -34.2556 0.631724 34.9605 -34.2537 0.631724 
42.2661 -32.7617 0.631724 49.5718 -29.1808 0.631724 -47.2648 -28.124 0.631724 
-52.7073 -24.2739 0.631724 -45.4017 -28.124 6.2929 50.8356 -28.124 0.631724 
49.5718 -28.124 2.53712 56.8774 -21.2817 0.631724 -55.9232 -20.8183 0.631724 
57.2391 -20.8183 0.631724 56.8774 -20.8183 1.47921 -59.6921 -13.5127 0.631724 
-60.013 -9.81256 0.631724 59.6123 -13.5127 0.631724 56.8774 -13.5127 5.56224 
-60.2921 -6.20704 0.631724 -60.013 -4.30967 0.631724 -60.013 -6.20704 1.71838 
61.216 -6.20704 0.631724 -59.1688 1.09862 0.631724 59.5912 1.09862 0.631724 
56.8774 8.02548 0.631724 56.8774 1.09862 5.22196 -56.5106 8.40427 0.631724 
-52.7073 14.8178 0.631724 56.7222 8.40427 0.631724 -52.1185 15.7099 0.631724 
52.3259 15.7099 0.631724 49.5718 18.708 0.631724 49.5718 15.7099 5.13628 
-46.7098 23.0156 0.631724 -45.4017 24.4556 0.631724 -45.4017 23.0156 4.87827 
45.0634 23.0156 0.631724 42.2661 25.1403 0.631724 42.2661 23.0156 5.02386 
-38.2047 30.3212 0.631724 -38.096 30.3925 0.631724 -38.096 30.3212 0.980372 
-30.7904 34.3067 0.631724 -23.4847 36.8474 0.631724 20.3492 37.4466 0.631724 
27.6548 34.6697 0.631724 35.1451 30.3212 0.631724 34.9605 30.4437 0.631724 
34.9605 30.3212 0.930778 -19.3503 37.6269 0.631724 -16.1791 38.1927 0.631724 
-16.1791 37.6269 4.48575 -8.87343 39.6829 0.631724 -1.56777 40.4232 0.631724 
5.73788 40.1551 0.631724 19.6445 37.6269 0.631724 13.0435 39.2272 0.631724 
13.0435 37.6269 6.45555 -38.096 -30.7347 7.93738 -30.7904 -32.5509 7.93738 
-23.4847 -33.3441 7.93738 -16.1791 -33.4158 7.93738 -8.87343 -33.2162 7.93738 
-1.56777 -32.5726 7.93738 5.73788 -30.9598 7.93738 13.0435 -28.9438 7.93738 
20.3492 -28.6279 7.93738 27.6548 -29.6674 7.93738 34.9605 -30.1108 7.93738 
42.2661 -28.2206 7.93738 -52.7073 -22.0865 7.93738 -44.553 -28.124 7.93738 
-45.4017 -27.7129 7.93738 -38.096 -28.124 13.7633 -8.87343 -28.124 13.9245 
-1.56777 -28.124 12.6048 5.73788 -28.124 11.1928 13.0435 -28.124 9.01977 
20.3492 -28.124 8.61355 27.6548 -28.124 9.73481 34.9605 -28.124 9.96052 
42.5026 -28.124 7.93738 42.2661 -28.124 8.04205 49.5718 -23.8077 7.93738 
-53.8349 -20.8183 7.93738 -52.7073 -20.8183 9.49115 27.6548 -20.8183 15.0956 
34.9605 -20.8183 14.6873 42.2661 -20.8183 13.7838 52.8089 -20.8183 7.93738 
49.5718 -20.8183 9.79293 -57.7156 -13.5127 7.93738 -52.7073 -13.5127 14.0007 
54.9913 -13.5127 7.93738 49.5718 -13.5127 12.1293 56.8774 -6.52444 7.93738 
-58.2642 -6.20704 7.93738 -52.7073 -6.20704 15.0784 49.5718 -6.20704 13.2859 
56.9584 -6.20704 7.93738 56.8774 -5.92578 7.93738 56.8774 -6.20704 8.03042 
-57.1852 1.09862 7.93738 -52.7073 1.09862 13.5636 54.8665 1.09862 7.93738 
49.5718 1.09862 12.2534 -54.3454 8.40427 7.93738 -52.7073 11.2302 7.93738 
-52.7073 8.40427 10.1566 42.2661 8.40427 14.4093 52.2977 8.40427 7.93738 
49.5718 12.9691 7.93738 49.5718 8.40427 10.3548 -49.8437 15.7099 7.93738 
-45.4017 21.789 7.93738 -45.4017 15.7099 12.9878 47.6581 15.7099 7.93738 
42.2661 21.1721 7.93738 42.2661 15.7099 12.2605 -44.2996 23.0156 7.93738 
-38.096 28.6245 7.93738 -38.096 23.0156 13.3957 27.6548 23.0156 15.1048 
40.1955 23.0156 7.93738 34.9605 26.8954 7.93738 34.9605 23.0156 11.6411 
-35.8584 30.3212 7.93738 -30.7904 33.1682 7.93738 -30.7904 30.3212 12.0629 
[...]
POINT_DATA 530
SCALARS ImageScalars float
LOOKUP_TABLE default
0 0 0 0 0 0 0 0 0 
0 0 0 0 0 0 0 0 0 
0 0 0 0 0 0 0 0 0 
0 0 0 0 0 0 0 0 0 
0 0 0 0 0 0 0 0 0 
0 0 0 0 0 0 0 0 0 
0 0 0 0 0 0 0 0 0 
0 0 0 0 0 0 0 0 0 
0 0 0 0 0 0 0 0 0 
0 0 0 0 0 0 0 0 0 
0 0 0 0 0 0 0 0 0 
0 0 0 0 0 0 0 0 0 
0 0 0 0 0 0 0 0 0 
0 0 0 0 0 0 0 0 0 
0 0 0 0 0 0 0 0 0 
0 0 0 0 0 0 0 0 0 
0 0 0 0 0 0 0 0 0 
0 0 0 0 0 0 0 0 0 
0 0 0 0 0 0 0 0 0 
0 0 0 0 0 0 0 0 0 
0 0 0 0 0 0 0 0 0 
0 0 0 0 0 0 0 0 0 
0 0 0 0 0 0 0 0 0 
0 0 0 0 0 0 0 0 0 
0 0 0 0 0 0 0 0 0 
0 0 0 0 0 0 0 0 0 
0 0 0 0 0 0 0 0 0 
0 0 0 0 0 0 0 0 0 
0 0 0 0 0 0 0 0 0 
0 0 0 0 0 0 0 0 0 
0 0 0 0 0 0 0 0 0 
0 0 0 0 0 0 0 0 0 
0 0 0 0 0 0 0 0 0 
0 0 0 0 0 0 0 0 0 
0 0 0 0 0 0 0 0 0 
0 0 0 0 0 0 0 0 0 
0 0 0 0 0 0 0 0 0 
0 0 0 0 0 0 0 0 0 
0 0 0 0 0 0 0 0 0 
0 0 0 0 0 0 0 0 0 
0 0 0 0 0 0 0 0 0 
0 0 0 0 0 0 0 0 0 
0 0 0 0 0 0 0 0 0 
0 0 0 0 0 0 0 0 0 
0 0 0 0 0 0 0 0 0 
0 0 0 0 0 0 0 0 0 
0 0 0 0 0 0 0 0 0 
0 0 0 0 0 0 0 0 0 
0 0 0 0 0 0 0 0 0 
0 0 0 0 0 0 0 0 0 
0 0 0 0 0 0 0 0 0 
0 0 0 0 0 0 0 0 0 
0 0 0 0 0 0 0 0 0 
0 0 0 0 0 0 0 0 0 
0 0 0 0 0 0 0 0 0 
0 0 0 0 0 0 0 0 0 
0 0 0 0 0 0 0 0 0 
0 0 0 0 0 0 0 0 0 
0 0 0 0 0 0 0 0 
NORMALS Normals float
0.0851455 0.605295 0.791434 0.00326241 0.575296 0.817939 0.0717208 0.556024 0.828066 
0.0620498 0.479281 0.875465 -0.0981447 0.380632 0.919504 -0.205244 0.48678 0.84907 
0.106329 0.430274 0.896414 -0.0151644 0.385366 0.922639 -0.0106126 0.323552 0.946151 
0.177 0.191401 0.96542 0.362053 0.253062 0.89715 0.0507614 0.311419 0.948916 
-0.0758071 0.21798 0.973005 0.00370932 0.121832 0.992544 -0.0124915 0.0324115 0.999397 
-0.0657961 0.0271325 0.997464 -0.190546 0.127814 0.973322 -0.350044 0.197005 0.915783 
0.311015 0.182926 0.932635 0.0970443 0.171601 0.980375 -0.118875 0.197951 0.972977 
-0.149341 0.150915 0.977201 0.0988095 -0.0157914 0.994981 0.49466 0.108243 0.86232 
-0.0172357 0.0282945 0.999451 -0.200726 0.0506223 0.978339 -0.115274 -0.0536263 0.991885 
-0.0559956 -0.129013 0.990061 -0.00359958 -0.0388078 0.99924 -0.020267 0.0200498 0.999594 
-0.142857 0.186475 0.972018 -0.382732 0.270061 0.883506 0.247489 -0.000995593 0.96889 
0.10917 -0.0236498 0.993742 -0.0509428 0.0214597 0.998471 -0.226238 0.0239711 0.973777 
0.00556364 -0.00975808 0.999937 0.450773 0.108011 0.88608 -0.0311178 -0.235016 0.971493 
-0.138351 0.00995071 0.990333 -0.19778 0.093751 0.975753 0.0136888 0.0468112 0.99881 
0.0912056 0.120094 0.988564 0.0212825 0.142396 0.989581 -0.136766 0.11303 0.984134 
-0.375171 0.113433 0.919989 0.332563 -0.0772042 0.939916 0.116616 -0.0527436 0.991776 
-0.0728738 -0.0825882 0.993916 -0.154312 -0.0388191 0.987259 0.0705251 0.0867484 0.993731 
0.196089 -0.0752692 0.977693 0.0198729 -0.00584405 0.999785 0.144026 0.00556464 0.989558 
-0.0727375 0.113897 0.990826 -0.0327572 0.20281 0.97867 0.0788975 0.184684 0.979626 
-0.0367036 0.14718 0.988428 -0.184634 0.075559 0.979898 -0.417218 0.0291614 0.908338 
0.375096 -0.225113 0.899237 0.118693 -0.206458 0.97123 -0.0287958 -0.11905 0.992471 
-0.0744972 -0.0148678 0.99711 0.174475 0.105471 0.978997 0.311003 -0.155032 0.937679 
0.00151133 0.0938845 0.995582 -0.0138254 0.0083836 0.999869 0.0118344 -0.0175064 0.999777 
0.0691405 0.0980775 0.992774 0.0416421 0.0739826 0.99639 -0.0892539 0.00920053 0.995966 
-0.235245 -0.0321746 0.971403 -0.502457 -0.213388 0.837856 0.24307 -0.275549 0.930048 
0.108465 -0.159208 0.981269 0.0548514 -0.0642958 0.996422 0.131503 0.0379048 0.990591 
0.205188 -0.172032 0.963485 0.103081 -0.124305 0.986875 0.0146897 -0.028402 0.999489 
0.0281918 0.00803623 0.99957 0.0460379 -0.00204018 0.998938 -0.0123829 -0.0789763 0.9968 
-0.133037 -0.207878 0.969065 -0.393682 -0.323708 0.860365 0.133196 -0.262635 0.955658 
0.101377 -0.203774 0.973755 0.110633 -0.256803 0.960111 0.158673 -0.279322 0.946996 
0.120672 -0.196642 0.973021 0.0372233 -0.120494 0.992016 -0.0191739 -0.136674 0.990431 
-0.16219 -0.28734 0.943997 -0.327414 -0.4675 0.821123 0.165204 -0.470498 0.866798 
0.17114 -0.467579 0.867226 0.0880164 -0.431478 0.89782 -0.139041 -0.466004 0.873789 
-0.356552 -0.604866 0.712045 0.0870528 0.692813 0.715843 0.00530799 0.669419 0.742866 
0.0816898 0.684824 0.724115 0.113709 0.710471 0.694479 -0.0676363 0.65791 0.750053 
-0.00735955 0.973737 0.227557 -0.240815 0.564986 0.789176 0.112108 0.447205 0.887378 
0.215243 0.83968 0.498607 -0.0108199 0.418808 0.90801 0.0592195 0.736159 0.674213 
-0.00990709 0.326581 0.945117 0.0480702 0.725275 0.686779 0.17895 0.240673 0.953967 
0.206723 0.668347 0.714548 0.275648 0.564555 0.778008 0.278789 0.561132 0.779364 
0.278111 0.564493 0.777176 -0.355114 0.523581 0.774439 -0.41899 0.387556 0.821126 
-0.455805 0.573383 0.680789 -0.60624 0.651864 0.455572 0.623443 0.572173 0.532857 
0.140326 0.438406 0.887755 0.313451 0.331765 0.889764 0.328166 0.512024 0.793812 
-0.36562 0.274018 0.889514 -0.377586 0.325243 0.866975 -0.45266 0.412049 0.790769 
0.383678 0.204558 0.900526 0.553702 0.25685 0.792113 -0.450606 0.252509 0.856268 
-0.811343 0.237625 0.534094 0.417331 -0.0138288 0.908649 0.554075 -0.0196136 0.832235 
-0.520009 0.0827025 0.850148 -0.753693 0.0279817 0.65663 0.405901 -0.111556 0.907083 
0.588082 -0.220463 0.778175 -0.622038 -0.0109342 0.782911 -0.847536 -0.103892 0.52047 
0.423952 -0.241015 0.873027 0.712123 -0.376996 0.592246 0.389937 -0.287234 0.874898 
-0.668395 -0.242883 0.703033 -0.589891 -0.445815 0.673259 -0.906797 -0.335738 0.254947 
0.247178 -0.279 0.927934 0.511584 -0.474858 0.716095 0.246576 -0.278767 0.928164 
0.187092 -0.317279 0.929694 -0.568297 -0.488087 0.662428 -0.516371 -0.605109 0.605974 
-0.634794 -0.543439 0.549282 0.411078 -0.494456 0.765851 0.186958 -0.32889 0.925677 
0.205706 -0.354918 0.911986 0.153104 -0.344833 0.926094 0.118191 -0.408202 0.905208 
0.113354 -0.442727 0.889462 -0.500504 -0.615924 0.608386 -0.435636 -0.633388 0.639563 
-0.548939 -0.667259 0.50342 0.330938 -0.71317 0.617955 0.200691 -0.638209 0.743245 
0.135568 -0.554086 0.821346 0.135495 -0.474906 0.869543 0.117283 -0.485746 0.866196 
0.161577 -0.515209 0.841696 0.158846 -0.613496 0.773557 0.0567111 -0.703691 0.708239 
-0.173777 -0.744195 0.644962 -0.41422 -0.656145 0.630789 -0.378229 -0.667467 0.641429 
-0.538358 -0.807537 0.240947 0.095668 -0.862227 0.497406 0.0725268 -0.888809 0.452503 
-0.014693 -0.917998 0.396313 -0.23827 -0.949821 0.202652 0.00917317 0.997374 0.0718407 
0.213708 0.877014 0.430319 0.0926775 0.856173 0.508309 0.0487858 0.833905 0.549748 
0.183871 0.838106 0.513585 0.21959 0.903262 0.368643 0.0516184 0.958517 0.280322 
-0.0517197 0.973241 0.223889 0.0387613 0.991398 0.125007 0.0916058 0.993518 0.0673141 
0.1573 0.98475 0.074322 -0.125802 0.984519 0.12205 0.0269887 0.990952 -0.131477 
-0.221737 0.960304 0.169261 -0.371517 0.883036 0.286744 -0.593063 0.714538 0.371094 
0.623234 0.627538 0.466664 0.283694 0.843434 0.45622 0.391128 0.769601 0.504711 
0.435471 0.857008 0.275505 -0.642261 0.663705 0.383401 0.67357 0.575833 0.463379 
-0.807768 0.445891 0.385607 -0.852927 0.381198 0.356656 -0.864046 0.503395 0.00433133 
0.866653 0.265072 0.42267 -0.880377 0.29258 0.373274 0.901941 -0.0286144 0.430911 
0.998187 -0.0349965 0.0489687 -0.9072 0.0537139 0.417256 0.859738 -0.242389 0.449554 
-0.931008 -0.178105 0.318595 0.779758 -0.417955 0.466144 0.766009 -0.45452 0.454579 
-0.915246 -0.349518 0.200403 -0.902732 -0.382077 0.197717 -0.90415 -0.394181 -0.164726 
0.74037 -0.502116 0.446914 0.646074 -0.591104 0.482892 -0.773813 -0.608806 0.174838 
-0.716963 -0.675726 0.171346 0.616796 -0.619262 0.485878 0.712533 -0.656404 0.247853 
0.491695 -0.723868 0.483995 -0.650651 -0.743813 0.152957 -0.597398 -0.789681 0.139709 
0.414511 -0.770048 0.484981 0.543651 -0.837334 0.0575883 0.348313 -0.801416 0.48622 
0.235183 -0.832917 0.500938 0.185039 -0.854513 0.485354 0.145654 -0.87743 0.457058 
-0.427846 -0.892984 0.139738 -0.54945 -0.824427 0.135741 -0.541371 -0.830229 0.132802 
0.190228 -0.967173 0.168495 0.138117 -0.880832 0.452833 0.146601 -0.888797 0.434221 
0.0870462 -0.891746 0.444085 0.0399032 -0.938488 0.343 -0.0502185 -0.974607 0.218217 
-0.27534 -0.951674 0.136029 -0.246131 -0.959578 0.136487 -0.272998 -0.955956 -0.107795 
0.446752 0.893214 0.0508153 0.220154 0.969893 0.104109 0.130398 0.984066 0.120871 
0.0739357 0.982934 0.168445 0.0926256 0.987527 0.127322 0.0943875 0.995526 -0.00424391 
-0.0421447 0.99323 -0.108252 -0.157165 0.969618 -0.187456 -0.0525273 0.951086 -0.304428 
0.0819325 0.927758 -0.364077 0.0498604 0.913883 -0.402905 -0.0922979 0.959664 -0.265567 
-0.303178 0.912951 -0.273135 -0.558356 0.799964 -0.219765 0.495284 0.867659 0.043152 
0.664322 0.747427 0.0054604 0.486235 0.829785 -0.273919 -0.612851 0.761362 -0.211524 
-0.559114 0.770166 -0.306977 -0.85298 0.516705 -0.0737647 0.817995 0.57517 -0.00802575 
-0.86039 0.504218 -0.0741156 -0.85623 0.49993 -0.130155 0.9577 0.285148 -0.0387358 
0.992425 0.119394 -0.0289359 -0.962133 0.228045 -0.149317 -0.85447 0.200634 -0.479194 
0.999324 -0.0331507 -0.0159163 0.995493 -0.0915659 -0.0246818 0.996385 -0.0357495 -0.077061 
-0.987523 0.0062956 -0.15735 0.963055 -0.266061 -0.0416746 -0.93499 -0.277716 -0.220605 
-0.880442 -0.392452 -0.266089 -0.837212 -0.266024 -0.477816 0.906274 -0.422043 -0.023367 
0.845743 -0.533426 -0.0132464 -0.876528 -0.399607 -0.268352 0.836468 -0.547868 -0.0127348 
-0.756812 -0.606091 -0.244724 -0.71742 -0.654223 -0.239375 -0.678705 -0.569399 -0.463836 
0.755701 -0.654896 0.00525687 0.728171 -0.68534 0.00873056 0.723932 -0.65115 -0.227873 
-0.63812 -0.737783 -0.220179 -0.585766 -0.782103 -0.212585 -0.584326 -0.704302 -0.40314 
0.545884 -0.836631 0.0453766 0.543727 -0.837999 0.0460184 0.54705 -0.836621 0.0283171 
0.371434 -0.926686 0.0573572 0.265456 -0.962585 0.0544361 -0.280349 -0.937606 -0.205668 
-0.425526 -0.879533 -0.212952 -0.525316 -0.824106 -0.21188 -0.524073 -0.824891 -0.2119 
-0.523485 -0.822212 -0.223455 0.223465 -0.973142 0.0553037 0.191385 -0.979862 0.056945 
0.200619 -0.968257 -0.149099 0.150445 -0.986256 0.068304 0.0318398 -0.99722 0.0673747 
-0.0794664 -0.996783 0.0103789 -0.269743 -0.942766 -0.196039 -0.17671 -0.977785 -0.11274 
-0.252267 -0.901781 -0.35093 0.28807 0.924673 -0.248989 0.170334 0.956101 -0.238448 
0.0588948 0.972532 -0.225193 -0.00714913 0.957197 -0.289348 -0.0498162 0.901076 -0.43079 
-0.134485 0.829438 -0.542168 -0.206064 0.804238 -0.55744 -0.132186 0.813549 -0.566273 
0.0378479 0.809296 -0.58618 0.0835752 0.769011 -0.633749 -0.0834155 0.776307 -0.624811 
-0.263364 0.720786 -0.641176 0.67884 0.615008 -0.401176 0.463589 0.814035 -0.349905 
0.486098 0.793425 -0.366314 0.307188 0.754862 -0.579499 -0.142644 0.634048 -0.760023 
-0.139821 0.638174 -0.757089 -0.169465 0.711519 -0.681925 -0.125025 0.793058 -0.596178 
0.0343025 0.79826 -0.601335 0.0602324 0.730952 -0.679766 -0.0911734 0.695358 -0.712857 
-0.269876 0.719768 -0.63961 -0.261978 0.718373 -0.644444 -0.489336 0.542378 -0.682917 
0.725878 0.5519 -0.410498 0.691754 0.546995 -0.471457 -0.037379 0.381782 -0.923496 
-0.0760034 0.371048 -0.925498 -0.287667 0.390923 -0.874315 -0.599096 0.410576 -0.687394 
-0.470507 0.381569 -0.795631 0.874236 0.275809 -0.399551 0.582559 0.251171 -0.773006 
-0.714845 0.169417 -0.67845 -0.484956 0.208756 -0.849258 -0.750911 -0.00536725 -0.660381 
0.888854 -0.0338685 -0.456937 0.618187 -0.0206495 -0.78576 -0.41666 0.00718475 -0.909034 
-0.750417 -0.013053 -0.660836 -0.75102 -0.0222529 -0.659905 -0.747574 -0.0130544 -0.66405 
0.861148 -0.256471 -0.438916 0.652228 -0.237439 -0.719876 -0.716773 -0.22304 -0.660673 
-0.49481 -0.166922 -0.852819 0.801989 -0.404202 -0.439812 0.770218 -0.45781 -0.444043 
0.730364 -0.40178 -0.552396 -0.365289 -0.174416 -0.914409 -0.677509 -0.34091 -0.651738 
-0.637222 -0.4545 -0.622397 -0.591817 -0.320878 -0.739453 0.738125 -0.509952 -0.441724 
0.687322 -0.598016 -0.412268 0.58286 -0.413903 -0.699256 -0.615436 -0.514102 -0.597443 
-0.565635 -0.615527 -0.548802 -0.497909 -0.407233 -0.765669 0.666234 -0.620078 -0.414289 
0.567924 -0.728416 -0.383239 0.500781 -0.490484 -0.713193 -0.245335 -0.412495 -0.877302 
-0.5442 -0.64595 -0.535345 -0.486212 -0.696085 -0.528265 -0.44266 -0.561048 -0.699484 
0.513432 -0.776421 -0.365456 0.376075 -0.853494 -0.360716 0.354563 -0.726627 -0.588471 
0.248871 -0.905092 -0.344777 0.177321 -0.594793 -0.784078 0.203144 -0.915241 -0.347947 
-0.270123 -0.865416 -0.422005 -0.254938 -0.44051 -0.860789 -0.334293 -0.790712 -0.512857 
-0.303781 -0.591657 -0.746766 -0.419204 -0.747229 -0.515671 -0.39735 -0.756818 -0.518979 
-0.388455 -0.726984 -0.566214 0.190204 -0.920264 -0.341959 0.159754 -0.924082 -0.347206 
0.157922 -0.87961 -0.448716 0.0248456 -0.94346 -0.330553 0.0282704 -0.850897 -0.524571 
-0.242263 -0.88499 -0.39762 -0.146503 -0.927423 -0.344127 -0.152768 -0.862197 -0.482988 
0.109529 0.672339 -0.732095 -0.00112059 0.680992 -0.73229 -0.131453 0.611692 -0.780098 
0.437853 0.499231 -0.747698 0.147852 0.675614 -0.722278 0.288246 0.64988 -0.703257 
0.107383 0.66195 -0.741816 -0.00213926 0.612817 -0.790222 -0.134028 0.604847 -0.784982 
-0.132051 0.603607 -0.78627 -0.14094 0.541104 -0.829061 -0.101678 0.496499 -0.862062 
-0.0996873 0.54007 -0.835696 -0.101193 0.510237 -0.85406 -0.0419974 0.411351 -0.910509 
0.474821 0.461211 -0.749553 0.419693 0.460712 -0.78205 0.218973 0.351668 -0.910154 
0.0814587 0.322765 -0.942967 -0.0581189 0.257584 -0.964506 -0.0930792 0.279248 -0.955697 
-0.11468 0.367286 -0.923011 -0.0714865 0.410723 -0.908953 -0.076028 0.452717 -0.888407 
-0.104911 0.475926 -0.873206 -0.0416718 0.405156 -0.913297 -0.0423787 0.409477 -0.911336 
-0.0390609 0.360369 -0.931992 -0.081824 0.292746 -0.952683 -0.25157 0.139753 -0.957696 
0.503032 0.225792 -0.834252 0.376861 0.185544 -0.907496 0.153471 0.183627 -0.970942 
0.0102057 0.0914317 -0.995759 -0.0544604 0.0717788 -0.995933 -0.0171666 0.0905074 -0.995748 
-0.0362297 0.274811 -0.960816 -0.0869475 0.156564 -0.983833 -0.0889755 0.0698796 -0.99358 
-0.122774 0.159506 -0.979533 -0.0887591 0.140426 -0.986105 -0.050431 0.142851 -0.988459 
-0.0990219 0.141468 -0.984978 -0.255105 0.119427 -0.95951 -0.24681 0.115682 -0.962134 
0.607389 -0.0205231 -0.79414 0.371084 -0.0178455 -0.928428 0.119446 -0.0246423 -0.992535 
-0.0249825 -0.0370229 -0.999002 -0.0662237 -0.0439929 -0.996835 0.115357 -0.0519497 -0.991965 
-0.0207169 0.135376 -0.990578 -0.303458 0.0272976 -0.952454 -0.0615476 0.0539306 -0.996646 
-0.0443341 0.137233 -0.989546 -0.0694735 0.042098 -0.996695 -0.032559 0.0501292 -0.998212 
-0.100433 0.0382268 -0.994209 -0.270925 0.00157973 -0.962599 -0.231817 0.00288097 -0.972755 
0.534924 -0.214731 -0.817158 0.359429 -0.184396 -0.914773 0.140154 -0.171767 -0.975117 
-0.00703025 -0.128289 -0.991712 -0.0706753 -0.0968441 -0.992787 0.146768 -0.103604 -0.98373 
0.0709828 -0.200878 -0.977041 -0.151747 0.0601903 -0.986585 0.0252624 0.2162 -0.976022 
-0.164896 0.0703766 -0.983797 -0.171311 0.0515101 -0.983869 -0.0562331 0.0189579 -0.998238 
-0.144083 -0.0306021 -0.989092 -0.300455 -0.0944441 -0.949109 -0.302835 -0.101951 -0.947574 
-0.292918 -0.0912204 -0.951776 0.474236 -0.296897 -0.828826 0.469009 -0.313956 -0.825507 
0.429682 -0.282461 -0.857665 0.191289 -0.212382 -0.958281 0.0474067 -0.0954319 -0.994306 
-0.0346588 -0.0450621 -0.998383 0.00894997 -0.023994 -0.999672 0.112547 -0.242823 -0.96352 
0.117276 -0.0736325 -0.990366 -0.0617353 -0.102239 -0.992842 -0.197959 -0.198405 -0.959921 
-0.108191 -0.0171549 -0.993982 -0.11316 -0.0314392 -0.993079 -0.300521 -0.137195 -0.943856 
-0.207537 -0.095134 -0.97359 0.422822 -0.328331 -0.844642 0.404086 -0.365212 -0.83865 
0.324846 -0.269377 -0.906593 0.163135 -0.130523 -0.977932 -6.91594e-05 -0.0646298 -0.997909 
-0.0461703 -0.0138583 -0.998837 0.000763198 -0.0719825 -0.997406 0.0151146 -0.103797 -0.994484 
-0.101996 -0.181034 -0.978174 -0.076161 -0.143154 -0.986766 -0.0221661 -0.13831 -0.990141 
-0.238526 -0.397034 -0.886267 -0.138357 -0.166875 -0.976222 -0.304416 -0.276851 -0.911419 
-0.295272 -0.289971 -0.910347 -0.280991 -0.263867 -0.922723 0.403452 -0.414625 -0.815667 
0.31047 -0.513221 -0.800133 0.26648 -0.350707 -0.897771 0.165931 -0.555998 -0.814453 
0.0779753 -0.25662 -0.963362 -0.00202811 -0.199294 -0.979938 0.017459 -0.133632 -0.990877 
0.00872686 -0.118328 -0.992936 -0.11623 -0.129218 -0.984781 -0.242111 -0.407928 -0.880328 
-0.142203 -0.14726 -0.978822 -0.230801 -0.398354 -0.887719 -0.171391 -0.372092 -0.912235 
-0.123599 -0.291303 -0.948613 0.145668 -0.558131 -0.816866 0.107349 -0.548202 -0.829428 
0.101417 -0.517381 -0.849724 0.117273 -0.507059 -0.853896 0.0984086 -0.404141 -0.909388 
0.0271004 -0.548944 -0.83542 0.0227497 -0.376025 -0.92633 -0.241658 -0.428334 -0.870707 
-0.148275 -0.512761 -0.845631 -0.133654 -0.372738 -0.918261 
