# vtk DataFile Version 4.2
vtk output
ASCII
DATASET POLYDATA
POINTS 526 float
-23.9913 -32.2957 -18.8724 -15.8102 -32.2957 -19.4074 -7.62914 -32.2957 -18.6743 
-40.3535 -24.1146 -21.0699 -32.1724 -24.1146 -22.7292 -23.9913 -24.1146 -23.0832 
-15.8102 -24.1146 -22.763 -7.62914 -24.1146 -21.499 0.551947 -24.1146 -20.3287 
-48.5346 -15.9335 -21.7103 -40.3535 -15.9335 -23.5513 -32.1724 -15.9335 -24.8003 
-23.9913 -15.9335 -24.4139 -15.8102 -15.9335 -23.8954 -7.62914 -15.9335 -23.0665 
0.551947 -15.9335 -22.6519 8.73304 -15.9335 -20.9864 -56.7157 -7.75239 -18.4682 
-48.5346 -7.75239 -22.3209 -40.3535 -7.75239 -23.7459 -32.1724 -7.75239 -23.9554 
-23.9913 -7.75239 -23.6541 -15.8102 -7.75239 -24.7537 -7.62914 -7.75239 -25.1677 
0.551947 -7.75239 -22.4634 8.73304 -7.75239 -22.1363 16.9141 -7.75239 -18.6513 
25.0952 -7.75239 -19.5322 33.2763 -7.75239 -20.2153 41.4574 -7.75239 -19.9668 
-56.7157 0.428705 -18.6877 -48.5346 0.428705 -22.5146 -40.3535 0.428705 -23.1247 
-32.1724 0.428705 -22.9867 -23.9913 0.428705 -22.5524 -15.8102 0.428705 -24.9216 
-7.62914 0.428705 -25.4247 0.551947 0.428705 -20.3951 8.73304 0.428705 -22.3768 
16.9141 0.428705 -20.6898 25.0952 0.428705 -20.8778 33.2763 0.428705 -21.4266 
41.4574 0.428705 -21.1107 49.6385 0.428705 -19.2755 -48.5346 8.6098 -20.8054 
-40.3535 8.6098 -22.4085 -32.1724 8.6098 -22.3393 -23.9913 8.6098 -21.6779 
-15.8102 8.6098 -22.4054 -7.62914 8.6098 -23.8307 0.551947 8.6098 -21.9949 
8.73304 8.6098 -22.3104 16.9141 8.6098 -19.6916 25.0952 8.6098 -19.7037 
33.2763 8.6098 -20.5247 41.4574 8.6098 -20.0575 -40.3535 16.7909 -19.7373 
-32.1724 16.7909 -20.445 -23.9913 16.7909 -19.881 -15.8102 16.7909 -19.2907 
-7.62914 16.7909 -19.4418 0.551947 16.7909 -19.7337 8.73304 16.7909 -18.6553 
-23.9913 -33.0043 -18.1844 -15.8102 -33.7625 -18.1844 -7.62914 -32.9489 -18.1844 
-40.3535 -27.7012 -18.1844 -27.4744 -32.2957 -18.1844 -32.1724 -31.0844 -18.1844 
-32.1724 -32.2957 -16.1039 -5.39573 -32.2957 -18.1844 0.551947 -29.2937 -18.1844 
0.551947 -32.2957 -16.6511 8.73304 -32.2957 -13.9699 16.9141 -32.2957 -11.4756 
-47.2156 -24.1146 -18.1844 -48.5346 -23.1347 -18.1844 -48.5346 -24.1146 -17.1416 
8.53353 -24.1146 -18.1844 8.73304 -23.9378 -18.1844 8.73304 -24.1146 -18.1253 
16.9141 -24.1146 -14.9695 25.0952 -24.1146 -13.8937 33.2763 -24.1146 -13.5875 
41.4574 -24.1146 -12.0216 -55.7564 -15.9335 -18.1844 -56.7157 -10.4503 -18.1844 
-56.7157 -15.9335 -17.2755 13.744 -15.9335 -18.1844 16.9141 -9.63012 -18.1844 
16.9141 -15.9335 -16.692 25.0952 -11.3554 -18.1844 25.0952 -15.9335 -16.5504 
33.2763 -14.2956 -18.1844 33.2763 -15.9335 -17.6265 41.4574 -12.9349 -18.1844 
41.4574 -15.9335 -17.0618 49.6385 -15.9335 -14.9898 -57.0652 -7.75239 -18.1844 
49.1746 -7.75239 -18.1844 49.6385 -6.99164 -18.1844 49.6385 -7.75239 -18.0723 
57.8196 -7.75239 -13.5614 -57.344 0.428705 -18.1844 -56.7157 3.57819 -18.1844 
52.0105 0.428705 -18.1844 49.6385 8.05523 -18.1844 57.8196 0.428705 -15.0219 
-55.2151 8.6098 -18.1844 -56.7157 8.6098 -17.1981 -48.5346 15.2965 -18.1844 
16.9141 13.441 -18.1844 25.0952 13.9093 -18.1844 33.2763 16.6517 -18.1844 
49.3219 8.6098 -18.1844 41.4574 14.5486 -18.1844 49.6385 8.6098 -18.106 
57.8196 8.6098 -13.749 -56.7157 16.7909 -11.6584 -46.133 16.7909 -18.1844 
-48.5346 16.7909 -17.4561 -40.3535 20.1155 -18.1844 -32.1724 22.6439 -18.1844 
-23.9913 21.7829 -18.1844 -15.8102 19.6514 -18.1844 -7.62914 19.3511 -18.1844 
0.551947 20.2022 -18.1844 11.1013 16.7909 -18.1844 8.73304 18.4214 -18.1844 
16.9141 16.7909 -17.2137 25.0952 16.7909 -17.3896 33.2763 16.7909 -18.1412 
41.4574 16.7909 -17.3991 49.6385 16.7909 -15.2652 -48.5346 24.972 -12.0949 
-40.3535 24.972 -15.6206 -32.1724 24.972 -17.0352 -23.9913 24.972 -16.9469 
-15.8102 24.972 -16.0796 -7.62914 24.972 -15.7918 0.551947 24.972 -16.0734 
8.73304 24.972 -16.4713 16.9141 24.972 -15.9859 25.0952 24.972 -14.888 
33.2763 24.972 -14.2831 41.4574 24.972 -12.5752 -32.1724 33.1531 -10.4836 
-23.9913 33.1531 -11.4744 -15.8102 33.1531 -12.2653 -7.62914 33.1531 -12.1933 
0.551947 33.1531 -12.3074 8.73304 33.1531 -12.8142 16.9141 33.1531 -12.2684 
25.0952 33.1531 -10.984 -32.1724 -34.6435 -10.0033 -23.9913 -36.7765 -10.0033 
-15.8102 -38.2557 -10.0033 -7.62914 -38.9601 -10.0033 0.551947 -38.2984 -10.0033 
8.73304 -36.6687 -10.0033 16.9141 -34.5467 -10.0033 -48.5346 -28.0617 -10.0033 
-37.7988 -32.2957 -10.0033 -40.3535 -31.2735 -10.0033 22.5052 -32.2957 -10.0033 
25.0952 -31.077 -10.0033 25.0952 -32.2957 -9.29021 33.2763 -29.6728 -10.0033 
33.2763 -32.2957 -7.54859 41.4574 -26.4472 -10.0033 41.4574 -32.2957 -3.13893 
-55.4625 -24.1146 -10.0033 -56.7157 -22.9951 -10.0033 -56.7157 -24.1146 -3.6244 
46.8367 -24.1146 -10.0033 49.6385 -22.7035 -10.0033 49.6385 -24.1146 -8.50311 
-61.2488 -15.9335 -10.0033 57.0425 -15.9335 -10.0033 57.8196 -14.8731 -10.0033 
57.8196 -15.9335 -9.0723 -63.6319 -7.75239 -10.0033 61.1648 -7.75239 -10.0033 
-63.9888 0.428705 -10.0033 -64.8968 0.428705 -5.2921 62.2812 0.428705 -10.0033 
-61.8768 8.6098 -10.0033 61.3309 8.6098 -10.0033 57.8196 16.4621 -10.0033 
-58.0508 16.7909 -10.0033 -56.7157 18.8201 -10.0033 57.5722 16.7909 -10.0033 
49.6385 24.2483 -10.0033 57.8196 16.7909 -9.70448 -51.1012 24.972 -10.0033 
-48.5346 26.9195 -10.0033 -40.3535 31.0883 -10.0033 33.2763 31.9344 -10.0033 
48.2686 24.972 -10.0033 41.4574 28.0036 -10.0033 49.6385 24.972 -9.21087 
-33.6933 33.1531 -10.0033 -40.3535 33.1531 -5.17254 -32.1724 33.5733 -10.0033 
-23.9913 34.7132 -10.0033 -15.8102 36.0589 -10.0033 -7.62914 36.3452 -10.0033 
0.551947 36.5469 -10.0033 8.73304 36.82 -10.0033 16.9141 36.0636 -10.0033 
29.7473 33.1531 -10.0033 25.0952 34.3568 -10.0033 33.2763 33.1531 -8.78443 
41.4574 33.1531 -3.60892 -7.62914 41.3342 -3.29081 0.551947 41.3342 -3.48055 
8.73304 41.3342 -3.33419 16.9141 41.3342 -1.94873 -32.1724 -33.6976 -1.82223 
-23.9913 -35.4039 -1.82223 -15.8102 -37.6164 -1.82223 -7.62914 -38.9613 -1.82223 
0.551947 -39.6181 -1.82223 8.73304 -40.3233 -1.82223 16.9141 -40.3952 -1.82223 
25.0952 -38.9979 -1.82223 33.2763 -36.2762 -1.82223 41.4574 -33.2293 -1.82223 
-56.7157 -24.2853 -1.82223 -48.5346 -28.3916 -1.82223 -36.6006 -32.2957 -1.82223 
-40.3535 -31.0249 -1.82223 -32.1724 -32.2957 4.19677 42.9609 -32.2957 -1.82223 
49.6385 -28.3736 -1.82223 -56.9115 -24.1146 -1.82223 -56.7157 -24.1146 -1.13296 
54.7062 -24.1146 -1.82223 57.8196 -20.7524 -1.82223 -62.0922 -15.9335 -1.82223 
61.2119 -15.9335 -1.82223 -64.7274 -7.75239 -1.82223 -64.8968 -5.91221 -1.82223 
64.7001 -7.75239 -1.82223 -65.5315 0.428705 -1.82223 -64.8968 3.19052 -1.82223 
-64.8968 0.428705 1.73241 65.3041 0.428705 -1.82223 -63.7404 8.6098 -1.82223 
64.6137 8.6098 -1.82223 -60.5151 16.7909 -1.82223 -56.7157 23.034 -1.82223 
61.2578 16.7909 -1.82223 57.8196 21.5442 -1.82223 -55.1117 24.972 -1.82223 
-48.5346 30.4152 -1.82223 54.5807 24.972 -1.82223 49.6385 29.0891 -1.82223 
-43.1547 33.1531 -1.82223 -40.3535 34.3495 -1.82223 -32.1724 37.0272 -1.82223 
-23.9913 39.1653 -1.82223 -15.8102 40.8766 -1.82223 25.0952 39.8551 -1.82223 
33.2763 37.3087 -1.82223 43.1269 33.1531 -1.82223 41.4574 34.0993 -1.82223 
-12.5008 41.3342 -1.82223 -7.62914 41.9789 -1.82223 -7.62914 41.3342 2.12842 
0.551947 42.0751 -1.82223 8.73304 42.0215 -1.82223 17.2257 41.3342 -1.82223 
16.9141 41.391 -1.82223 -23.9913 -33.0037 6.35886 -15.8102 -34.2437 6.35886 
-7.62914 -33.9827 6.35886 0.551947 -33.9114 6.35886 8.73304 -36.1665 6.35886 
16.9141 -38.7331 6.35886 25.0952 -39.2048 6.35886 33.2763 -37.7628 6.35886 
41.4574 -34.8957 6.35886 -48.5346 -26.2026 6.35886 -40.3535 -29.7269 6.35886 
-28.5019 -32.2957 6.35886 -32.1724 -31.741 6.35886 -23.9913 -32.2957 7.5666 
-15.8102 -32.2957 8.64296 -7.62914 -32.2957 7.94503 0.551947 -32.2957 7.58753 
8.73304 -32.2957 9.92502 16.9141 -32.2957 14.012 45.991 -32.2957 6.35886 
41.4574 -32.2957 13.1386 49.6385 -29.9917 6.35886 -52.5601 -24.1146 6.35886 
-56.7157 -20.4345 6.35886 -48.5346 -24.1146 10.0586 -7.62914 -24.1146 11.7827 
0.551947 -24.1146 10.6736 8.73304 -24.1146 13.9923 56.0179 -24.1146 6.35886 
57.8196 -21.7938 6.35886 -59.6402 -15.9335 6.35886 -56.7157 -15.9335 10.6316 
-7.62914 -15.9335 13.7469 0.551947 -15.9335 11.3803 61.5089 -15.9335 6.35886 
-62.8676 -7.75239 6.35886 0.551947 -7.75239 13.9948 64.6936 -7.75239 6.35886 
-64.0033 0.428705 6.35886 64.9744 0.428705 6.35886 -62.1825 8.6098 6.35886 
64.0092 8.6098 6.35886 -59.1513 16.7909 6.35886 -56.7157 21.3033 6.35886 
-56.7157 16.7909 10.3046 60.0425 16.7909 6.35886 57.8196 20.2091 6.35886 
57.8196 16.7909 9.56083 -53.9358 24.972 6.35886 -48.5346 29.2488 6.35886 
-48.5346 24.972 12.2822 53.8747 24.972 6.35886 49.6385 28.6327 6.35886 
49.6385 24.972 10.6309 -40.5843 33.1531 6.35886 -40.3535 33.2493 6.35886 
-40.3535 33.1531 6.52423 -32.1724 35.7784 6.35886 -32.1724 33.1531 10.9632 
-23.9913 37.4387 6.35886 -23.9913 33.1531 11.5212 -15.8102 38.7421 6.35886 
-15.8102 33.1531 12.1871 -7.62914 40.4878 6.35886 -7.62914 33.1531 13.5488 
25.0952 40.2258 6.35886 33.2763 37.5655 6.35886 33.2763 33.1531 12.7049 
42.7433 33.1531 6.35886 41.4574 33.8599 6.35886 41.4574 33.1531 7.43994 
-1.61357 41.3342 6.35886 0.551947 41.5927 6.35886 0.551947 41.3342 6.81076 
8.73304 41.9757 6.35886 8.73304 41.3342 7.67612 18.9824 41.3342 6.35886 
16.9141 41.6951 6.35886 16.9141 41.3342 7.10767 25.0952 -33.52 14.54 
33.2763 -33.5718 14.54 -40.3535 -25.106 14.54 -32.1724 -26.5684 14.54 
-23.9913 -26.8155 14.54 -15.8102 -24.7204 14.54 19.2479 -32.2957 14.54 
16.9141 -31.3812 14.54 25.0952 -32.2957 15.6639 38.8457 -32.2957 14.54 
33.2763 -32.2957 16.0266 41.4574 -31.6039 14.54 49.6385 -26.3687 14.54 
-42.536 -24.1146 14.54 -48.5346 -20.4255 14.54 -40.3535 -24.1146 15.5557 
-32.1724 -24.1146 16.8007 -23.9913 -24.1146 16.6581 -14.8874 -24.1146 14.54 
-15.8102 -24.1146 14.9009 9.86031 -24.1146 14.54 8.73304 -21.5682 14.54 
16.9141 -24.1146 17.9898 25.0952 -24.1146 20.6722 33.2763 -24.1146 22.1983 
41.4574 -24.1146 21.6201 52.1112 -24.1146 14.54 49.6385 -24.1146 16.8569 
[...]
POINT_DATA 526
SCALARS ImageScalars float
LOOKUP_TABLE default
0 0 0 0 0 0 0 0 0 
0 0 0 0 0 0 0 0 0 
0 0 0 0 0 0 0 0 0 
0 0 0 0 0 0 0 0 0 
0 0 0 0 0 0 0 0 0 
0 0 0 0 0 0 0 0 0 
0 0 0 0 0 0 0 0 0 
0 0 0 0 0 0 0 0 0 
0 0 0 0 0 0 0 0 0 
0 0 0 0 0 0 0 0 0 
0 0 0 0 0 0 0 0 0 
0 0 0 0 0 0 0 0 0 
0 0 0 0 0 0 0 0 0 
0 0 0 0 0 0 0 0 0 
0 0 0 0 0 0 0 0 0 
0 0 0 0 0 0 0 0 0 
0 0 0 0 0 0 0 0 0 
0 0 0 0 0 0 0 0 0 
0 0 0 0 0 0 0 0 0 
0 0 0 0 0 0 0 0 0 
0 0 0 0 0 0 0 0 0 
0 0 0 0 0 0 0 0 0 
0 0 0 0 0 0 0 0 0 
0 0 0 0 0 0 0 0 0 
0 0 0 0 0 0 0 0 0 
0 0 0 0 0 0 0 0 0 
0 0 0 0 0 0 0 0 0 
0 0 0 0 0 0 0 0 0 
0 0 0 0 0 0 0 0 0 
0 0 0 0 0 0 0 0 0 
0 0 0 0 0 0 0 0 0 
0 0 0 0 0 0 0 0 0 
0 0 0 0 0 0 0 0 0 
0 0 0 0 0 0 0 0 0 
0 0 0 0 0 0 0 0 0 
0 0 0 0 0 0 0 0 0 
0 0 0 0 0 0 0 0 0 
0 0 0 0 0 0 0 0 0 
0 0 0 0 0 0 0 0 0 
0 0 0 0 0 0 0 0 0 
0 0 0 0 0 0 0 0 0 
0 0 0 0 0 0 0 0 0 
0 0 0 0 0 0 0 0 0 
0 0 0 0 0 0 0 0 0 
0 0 0 0 0 0 0 0 0 
0 0 0 0 0 0 0 0 0 
0 0 0 0 0 0 0 0 0 
0 0 0 0 0 0 0 0 0 
0 0 0 0 0 0 0 0 0 
0 0 0 0 0 0 0 0 0 
0 0 0 0 0 0 0 0 0 
0 0 0 0 0 0 0 0 0 
0 0 0 0 0 0 0 0 0 
0 0 0 0 0 0 0 0 0 
0 0 0 0 0 0 0 0 0 
0 0 0 0 0 0 0 0 0 
0 0 0 0 0 0 0 0 0 
0 0 0 0 0 0 0 0 0 
0 0 0 0 
NORMALS Normals float
0.116087 0.707701 0.69691 -0.0144654 0.590361 0.80701 -0.143443 0.524414 0.839294 
0.270113 0.497013 0.824632 0.111602 0.385635 0.915877 0.00256207 0.291891 0.956448 
-0.0976845 0.255322 0.961909 -0.139444 0.247993 0.958674 -0.185307 0.327131 0.926632 
0.3308 0.214984 0.918887 0.176746 0.135167 0.974931 0.0598715 0.0732463 0.995515 
-0.0555937 0.0355555 0.99782 -0.0795297 0.114793 0.990201 -0.0771511 0.216352 0.973262 
-0.11091 0.126027 0.985807 -0.366432 0.227446 0.902217 0.573343 0.0557968 0.817414 
0.279432 0.049802 0.958873 0.0965279 -0.0244509 0.99503 -0.00566164 -0.107661 0.994172 
0.0480469 -0.111302 0.992624 0.0938303 0.0650125 0.993463 -0.141063 0.145179 0.979298 
-0.177973 -0.127401 0.975753 -0.230805 0.0763058 0.970003 -0.147051 0.236819 0.960361 
0.0923494 0.260283 0.961106 0.026256 0.219138 0.975341 -0.119473 0.227216 0.966488 
0.587373 -0.0601653 0.807077 0.214459 -0.0973336 0.971871 0.0301589 -0.0786784 0.996444 
-0.0343073 -0.0981423 0.994581 0.100244 -0.12017 0.987679 0.179662 -0.135331 0.974375 
-0.266801 -0.0819271 0.960263 -0.16213 -0.0294009 0.986331 0.0109338 0.0102957 0.999887 
-0.0902669 0.0601032 0.994102 0.0451249 0.0143916 0.998878 0.0145422 0.0181475 0.99973 
-0.123515 0.00488068 0.992331 -0.326984 0.00211444 0.945028 0.272032 -0.270042 0.923621 
0.097005 -0.195362 0.975922 -0.0444457 -0.160259 0.986074 0.000382652 -0.162282 0.986744 
0.130646 -0.325049 0.936629 -0.0335247 -0.313646 0.948948 -0.0892373 -0.0354743 0.995378 
-0.137225 -0.202287 0.969665 -0.152807 -0.214151 0.964774 0.0514894 -0.212908 0.975715 
0.0188104 -0.190234 0.981559 -0.134985 -0.205295 0.969347 0.159296 -0.358163 0.91997 
0.00591742 -0.289414 0.957186 -0.0686254 -0.271652 0.959946 -0.0285625 -0.351984 0.93557 
0.0250753 -0.474538 0.879878 -0.0428873 -0.35547 0.933703 -0.151101 -0.344268 0.926633 
0.12727 0.740632 0.659748 0.00388967 0.663003 0.748607 -0.13966 0.556915 0.818744 
0.335532 0.696747 0.634005 0.1739 0.750237 0.63789 0.231214 0.740176 0.631411 
0.26418 0.838081 0.477315 -0.16675 0.527972 0.83273 -0.218329 0.449804 0.86603 
-0.226617 0.564373 0.793806 -0.269861 0.56137 0.782329 -0.236472 0.473872 0.848249 
0.416786 0.633487 0.651908 0.433614 0.601861 0.670628 0.447108 0.676465 0.585226 
-0.306298 0.350224 0.885169 -0.310513 0.348313 0.884455 -0.309 0.350785 0.884007 
-0.226545 0.294395 0.928444 -0.0764251 0.410287 0.908749 -0.0873028 0.496874 0.86342 
-0.231225 0.600606 0.765381 0.613163 0.277273 0.739696 0.603388 0.128019 0.787105 
0.670536 0.299264 0.678839 -0.296236 0.218257 0.929843 -0.168152 0.229501 0.958673 
-0.227328 0.209998 0.950906 0.0800431 0.290478 0.953528 0.0502618 0.312038 0.948739 
0.0388752 0.351715 0.935299 0.0376615 0.385281 0.922031 -0.123402 0.337887 0.933062 
-0.129523 0.410326 0.902694 -0.367985 0.466767 0.804186 0.587703 0.0571516 0.807056 
-0.309504 0.213616 0.926594 -0.322113 0.192863 0.926848 -0.32189 0.21322 0.922456 
-0.653778 0.269268 0.707156 0.611332 -0.060323 0.789072 0.593229 -0.143426 0.792154 
-0.402302 0.00227115 0.915504 -0.323703 -0.181419 0.928603 -0.639895 0.00719367 0.768429 
0.525778 -0.279043 0.80355 0.605737 -0.280627 0.744534 0.330092 -0.403579 0.853325 
-0.103239 -0.210171 0.972198 0.0569021 -0.257099 0.964708 0.00540387 -0.348711 0.937215 
-0.315745 -0.195429 0.9285 -0.137774 -0.331551 0.933323 -0.323633 -0.195406 0.925785 
-0.643223 -0.257913 0.720934 0.694284 -0.485436 0.531339 0.294286 -0.410122 0.863247 
0.3565 -0.433885 0.827437 0.187798 -0.432061 0.882075 0.0499917 -0.441609 0.895814 
-0.0674976 -0.367632 0.927518 -0.0519312 -0.360353 0.931369 0.0144897 -0.440272 0.897748 
-0.00561013 -0.379176 0.925308 -0.125852 -0.303221 0.944573 -0.11976 -0.334702 0.934683 
-0.0695789 -0.208589 0.975525 0.0530931 -0.278875 0.958859 0.00482288 -0.351577 0.936146 
-0.143536 -0.386622 0.911 -0.374288 -0.450399 0.810586 0.464431 -0.653714 0.597463 
0.224164 -0.570786 0.789907 0.067898 -0.512744 0.855852 -0.0525047 -0.43756 0.897655 
-0.0635048 -0.38759 0.919642 -0.000431601 -0.374985 0.927031 0.0391518 -0.400742 0.915354 
-0.00509855 -0.312067 0.950047 -0.092596 -0.26996 0.958409 -0.0935285 -0.35503 0.930165 
-0.112941 -0.475478 0.872448 -0.242736 -0.58797 0.771602 0.170292 -0.772094 0.612267 
0.0903025 -0.678555 0.728978 0.0364351 -0.555663 0.830609 0.00239318 -0.509803 0.860288 
0.0330151 -0.505387 0.862261 -0.00119638 -0.53239 0.846499 -0.100524 -0.53657 0.837847 
-0.156625 -0.585079 0.795708 0.315879 0.942374 0.110233 0.222854 0.968673 0.10958 
0.125257 0.977338 0.170647 0.00747693 0.964473 0.264076 -0.116087 0.903691 0.412148 
-0.173876 0.754591 0.63274 -0.220862 0.575134 0.78768 0.467631 0.855521 0.222272 
0.329479 0.936313 0.121496 0.344317 0.92956 0.131769 -0.188132 0.521669 0.832147 
-0.155537 0.523653 0.837614 -0.179134 0.562799 0.80695 -0.168431 0.621272 0.765279 
-0.240129 0.727337 0.642899 -0.258831 0.633031 0.729574 -0.4087 0.804291 0.431371 
0.625668 0.735617 0.25963 0.676895 0.684773 0.269997 0.648925 0.760851 -0.0012686 
-0.373204 0.614431 0.695121 -0.434664 0.59482 0.676207 -0.469383 0.640945 0.607346 
0.861823 0.417086 0.288617 -0.635375 0.496608 0.591337 -0.665209 0.466658 0.582862 
-0.678433 0.498265 0.539872 0.931408 0.141112 0.33551 -0.782071 0.263222 0.564871 
0.924475 -0.0996331 0.367995 0.986194 -0.0773324 0.146425 -0.838919 0.00694721 0.544213 
0.863223 -0.303819 0.403162 -0.803292 -0.25085 0.540181 -0.658587 -0.486996 0.573671 
0.755501 -0.480483 0.44537 0.719319 -0.521498 0.458933 -0.649015 -0.496635 0.576311 
-0.437824 -0.634878 0.636585 -0.664107 -0.498753 0.556962 0.553016 -0.668437 0.497358 
0.488113 -0.709344 0.508505 0.296919 -0.785065 0.54361 -0.241941 -0.659073 0.712101 
-0.410582 -0.641718 0.647782 -0.30524 -0.636976 0.707878 -0.459326 -0.664135 0.589867 
0.199866 -0.78839 0.581804 0.343831 -0.899427 0.269837 0.17766 -0.784969 0.593515 
0.119524 -0.730387 0.672495 0.0766772 -0.679723 0.72945 0.0204253 -0.638594 0.769273 
0.0189818 -0.63777 0.769993 -0.0218804 -0.682503 0.730555 -0.110671 -0.660933 0.742239 
-0.212971 -0.649636 0.729806 -0.170507 -0.632155 0.755849 -0.270122 -0.723422 0.63537 
-0.430848 -0.843267 0.321358 0.0703794 -0.969709 0.233905 0.00112359 -0.957683 0.287822 
-0.0425023 -0.95403 0.296683 -0.127337 -0.961528 0.243412 0.248529 0.954069 -0.167291 
0.237634 0.949464 -0.205058 0.213347 0.952502 -0.217307 0.119839 0.966981 -0.224915 
0.0850275 0.984495 -0.153428 0.0448855 0.998803 -0.0194475 -0.0781355 0.988621 0.128546 
-0.239039 0.921565 0.305905 -0.310005 0.87277 0.377053 -0.421358 0.830152 0.365109 
0.637287 0.766934 -0.0753488 0.425246 0.899271 -0.102357 0.27116 0.954525 -0.123912 
0.295127 0.951112 -0.0910222 0.200557 0.935441 -0.291078 -0.447416 0.82034 0.356175 
-0.555452 0.779442 0.289729 0.646377 0.759295 -0.0752884 0.641356 0.76075 -0.0996123 
-0.653272 0.701908 0.283834 -0.752384 0.611683 0.244464 0.888517 0.452659 -0.0750851 
-0.860329 0.466055 0.206462 0.982857 0.180891 -0.0356311 0.991364 0.128291 -0.0271718 
-0.953129 0.242769 0.180579 0.998077 -0.0619124 -0.00298278 0.991036 -0.133456 0.00600735 
0.987634 -0.0535708 -0.147339 -0.989517 -0.00538237 0.144316 0.962635 -0.270428 0.0142621 
-0.960174 -0.241708 0.140155 0.884705 -0.463311 0.0513804 0.781995 -0.617145 0.0872682 
-0.86966 -0.478947 0.119588 -0.768128 -0.623172 0.147091 0.724884 -0.68183 0.0982369 
0.547439 -0.829792 0.108422 -0.671228 -0.720305 0.174969 -0.569787 -0.799247 0.191173 
0.415898 -0.903249 0.10569 0.357772 -0.927947 0.104466 0.276343 -0.954096 0.115478 
0.227245 -0.966437 0.119832 0.168759 -0.980954 0.0961779 -0.23287 -0.935015 0.26743 
-0.341118 -0.902322 0.263541 -0.45636 -0.861671 0.221942 -0.433583 -0.874264 0.218329 
0.131277 -0.985046 0.111586 0.0741316 -0.987029 0.142402 0.117133 -0.98498 -0.126866 
0.00267835 -0.981494 0.191473 -0.0415334 -0.974756 0.219376 -0.130938 -0.962363 0.238145 
-0.127015 -0.963046 0.237507 0.141798 0.902615 -0.406422 0.0576364 0.822792 -0.565413 
-0.0175205 0.700703 -0.713238 0.100119 0.60137 -0.792673 0.22992 0.728453 -0.645363 
0.151317 0.906505 -0.394148 -0.0636849 0.963996 -0.258177 -0.243261 0.96203 -0.123783 
-0.42278 0.90247 -0.0824912 0.43839 0.833483 -0.336334 0.286748 0.913759 -0.287786 
0.161881 0.915124 -0.369247 0.18021 0.921889 -0.342993 0.116 0.885089 -0.450734 
0.00118309 0.754941 -0.655791 -0.0523353 0.620199 -0.782697 0.0969028 0.529166 -0.842967 
0.302079 0.547177 -0.780606 0.278359 0.532412 -0.799408 -0.509039 0.858352 -0.0641208 
-0.351064 0.815643 -0.45987 -0.589799 0.804225 -0.0732035 0.53573 0.765229 -0.356956 
0.701096 0.59697 -0.389987 0.438662 0.770009 -0.463316 -0.22844 0.281964 -0.931832 
0.102275 0.197698 -0.974913 0.418965 0.287327 -0.861343 -0.739908 0.66546 -0.0984806 
-0.796451 0.592895 -0.118921 0.805763 0.448095 -0.387243 0.724677 0.427647 -0.540334 
-0.327963 0.320976 -0.88849 0.108972 0.182202 -0.977204 -0.890709 0.425065 -0.16111 
0.904013 0.209803 -0.372482 -0.131084 0.273363 -0.952938 -0.960324 0.208029 -0.185749 
0.936325 -0.0396363 -0.348891 -0.966334 -0.0353349 -0.254854 0.907915 -0.244255 -0.340631 
-0.912327 -0.282029 -0.29685 0.854367 -0.409397 -0.320079 0.790246 -0.528581 -0.31002 
0.785445 -0.393319 -0.477887 -0.81504 -0.466925 -0.343061 -0.768466 -0.549422 -0.328019 
-0.752361 -0.454717 -0.47664 0.686944 -0.660389 -0.303306 0.533669 -0.789113 -0.304134 
0.513173 -0.637113 -0.5751 -0.663111 -0.678753 -0.31556 -0.581872 -0.7558 -0.300319 
-0.542024 -0.638895 -0.545915 0.327047 -0.889208 -0.319921 0.322054 -0.890869 -0.320365 
0.321449 -0.88882 -0.326603 0.226693 -0.917974 -0.325475 0.168106 -0.822402 -0.543502 
0.161178 -0.883364 -0.440101 0.0514265 -0.731436 -0.679968 0.164913 -0.857919 -0.4866 
0.100328 -0.613869 -0.783006 0.159108 -0.885444 -0.436663 0.1353 -0.492771 -0.859576 
-0.23563 -0.941601 -0.240555 -0.368778 -0.891 -0.264803 -0.311593 -0.660484 -0.683134 
-0.460897 -0.838106 -0.291809 -0.442161 -0.8473 -0.294241 -0.435992 -0.826933 -0.355096 
0.102089 -0.934272 -0.341635 0.0815171 -0.946364 -0.31265 0.087748 -0.937538 -0.336635 
0.00592704 -0.970771 -0.239935 0.0132615 -0.949073 -0.314777 -0.134403 -0.966544 -0.218468 
-0.102266 -0.970948 -0.216336 -0.103846 -0.960125 -0.259569 0.0706904 0.690187 -0.72017 
-0.0957474 0.787851 -0.608378 0.242041 0.721125 -0.64915 0.0826253 0.709092 -0.700258 
-0.0647292 0.623061 -0.77949 -0.257147 0.416301 -0.872106 0.223336 0.56353 -0.795333 
0.292032 0.496183 -0.81763 0.0988944 0.649102 -0.754246 -0.252463 0.78582 -0.564579 
-0.0771857 0.749301 -0.657716 -0.32671 0.773367 -0.54329 -0.547375 0.66574 -0.507121 
0.291159 0.698952 -0.653217 0.451866 0.580926 -0.67701 0.234758 0.680022 -0.694593 
0.052385 0.616078 -0.785941 -0.11331 0.505533 -0.855335 -0.268127 0.383969 -0.883558 
-0.270159 0.395774 -0.877711 0.421571 0.290236 -0.859093 0.446033 0.221411 -0.867198 
0.371627 0.328579 -0.868291 0.214198 0.385241 -0.897613 0.0612993 0.422729 -0.904181 
-0.236947 0.51656 -0.822813 -0.601563 0.611987 -0.513413 -0.523828 0.587653 -0.616659 
-0.761229 0.37167 -0.531406 0.57732 0.423289 -0.698233 0.675116 0.231859 -0.700328 
0.431572 0.404444 -0.806331 0.15051 0.369248 -0.917062 -0.0587031 0.306335 -0.950112 
-0.207492 0.2407 -0.948162 -0.332005 0.3119 -0.890219 -0.326539 0.225719 -0.917836 
-0.326392 0.359318 -0.874276 0.399144 0.11994 -0.90901 0.482488 0.086622 -0.871609 
0.407034 0.150473 -0.900934 -0.437742 0.272451 -0.856827 -0.763292 0.365763 -0.532543 
-0.76037 0.364033 -0.537882 0.682984 0.207004 -0.700487 0.670584 0.206161 -0.712611 
0.402665 0.163277 -0.900667 -0.237942 0.135828 -0.961735 -0.176309 0.179696 -0.967794 
-0.167679 0.314698 -0.934264 -0.2364 0.430269 -0.871197 0.0582309 0.235136 -0.970217 
-0.18251 0.32211 -0.928943 0.39101 0.130271 -0.911121 0.462272 0.109359 -0.879969 
-0.788106 0.130736 -0.601496 -0.698668 0.0937378 -0.709279 0.718587 -0.0152763 -0.695269 
0.655721 -0.01065 -0.754928 0.355901 0.010045 -0.93447 -0.162916 0.0501243 -0.985366 
-0.0684111 0.117894 -0.990667 -0.208644 0.0886838 -0.973962 -0.226715 0.351448 -0.908342 
0.376354 0.257756 -0.889898 0.289167 -0.0382942 -0.956512 -0.372328 -0.165892 -0.913155 
-0.745009 -0.11851 -0.656443 -0.671123 -0.120457 -0.731494 0.703162 -0.214131 -0.67802 
0.701727 -0.220195 -0.677564 0.699704 -0.213303 -0.681848 0.42657 -0.145082 -0.892743 
-0.16935 -0.0327545 -0.985011 -0.129215 -0.0328776 -0.991071 -0.104605 -0.14406 -0.984025 
0.00437612 0.0866343 -0.996231 0.0766383 -0.0272846 -0.996686 0.0823622 -0.209433 -0.974348 
0.129964 -0.281284 -0.950783 0.0503957 -0.288319 -0.956207 -0.138451 -0.330607 -0.933558 
-0.329364 -0.291788 -0.897986 -0.654364 -0.319199 -0.685507 -0.652942 -0.326305 -0.683515 
-0.648096 -0.317398 -0.692264 0.627882 -0.380333 -0.679052 0.497442 -0.532479 -0.684849 
0.457518 -0.353715 -0.81582 0.183024 -0.313564 -0.931762 -0.00248884 -0.29939 -0.954127 
-0.121116 -0.228922 -0.965881 -0.178102 -0.228901 -0.957018 -0.101842 -0.201743 -0.974129 
0.00584943 -0.0969494 -0.995272 0.0405415 -0.10322 -0.993832 0.0570083 -0.123113 -0.990754 
0.0811837 -0.203102 -0.975786 -0.0182803 -0.321228 -0.946825 -0.159907 -0.350463 -0.922824 
-0.534792 -0.425908 -0.729794 -0.45172 -0.48937 -0.745966 -0.386814 -0.41413 -0.823936 
0.405236 -0.611969 -0.679175 0.276099 -0.689229 -0.669875 0.242121 -0.585679 -0.773536 
0.0875772 -0.669153 -0.737946 0.0225023 -0.512412 -0.858445 -0.0356907 -0.598301 -0.800476 
-0.0771969 -0.489157 -0.868772 0.0202321 -0.483592 -0.87506 -0.0611418 -0.39993 -0.914504 
0.105301 -0.400693 -0.910141 0.0430228 -0.258328 -0.965099 0.104191 -0.16788 -0.980286 
0.0390382 -0.110838 -0.993071 -0.0214189 -0.132933 -0.990894 -0.0674109 -0.234489 -0.969779 
-0.229871 -0.527135 -0.8181 -0.111785 -0.359497 -0.926427 -0.354376 -0.523356 -0.77493 
-0.3116 -0.542291 -0.780273 -0.275751 -0.484904 -0.829958 0.138827 -0.44297 -0.885722 
0.143574 -0.454893 -0.878896 0.143019 -0.433555 -0.889705 0.083529 -0.550164 -0.830869 
0.0859476 -0.415404 -0.905567 -0.0793001 -0.556458 -0.827083 -0.0602307 -0.405929 -0.911918 
-0.212754 -0.532299 -0.819386 -0.190244 -0.526963 -0.828322 -0.181309 -0.498622 -0.847646 
0.279786 0.238359 -0.930003 0.0711363 0.3818 -0.921503 -0.203705 0.408065 -0.889937 
0.144733 0.147696 -0.978386 -0.102628 0.137208 -0.985211 0.306855 0.202549 -0.929954 
0.292072 0.20947 -0.933175 0.0726994 0.202569 -0.976566 -0.397709 0.259831 -0.879952 
-0.157018 0.192369 -0.968679 -0.415076 0.15689 -0.896157 0.162335 0.132285 -0.977828 
0.145818 0.13052 -0.980664 -0.103088 0.136895 -0.985207 -0.102682 0.136882 -0.985251 
0.35857 0.0754078 -0.930452 0.25731 0.0389567 -0.965543 0.0586616 -0.0188143 -0.998101 
-0.136946 -0.00934663 -0.990534 -0.402268 -0.012245 -0.91544 -0.373583 -0.079974 -0.924143 
-0.375352 -0.018077 -0.926706 0.118795 0.0188096 -0.992741 0.110356 0.019131 -0.993708 
-0.0791793 0.0463479 -0.995782 -0.0653075 0.0464281 -0.996785 0.23542 -0.0958607 -0.967155 
0.154284 -0.22602 -0.961827 0.169308 -0.172257 -0.970393 0.0496161 -0.282889 -0.957869 
0.025719 -0.171897 -0.984779 -0.306673 -0.169637 -0.936576 -0.141843 -0.287584 -0.947194 
-0.14879 -0.177334 -0.972838 0.221302 -0.0976845 -0.970301 0.178807 -0.144773 -0.973175 
0.17969 -0.0896318 -0.979631 -0.124651 -0.0515446 -0.990861 -0.0446339 -0.170194 -0.984399 
-0.0705435 -0.0697241 -0.995069 
