# vtk DataFile Version 4.2
vtk output
ASCII
DATASET POLYDATA
POINTS 564 float
-30.777 -29.3712 -13.2147 -0.607345 -29.3712 -12.7006 6.93506 -29.3712 -13.4119 
14.4775 -29.3712 -13.5305 22.0199 -29.3712 -13.8956 29.5623 -29.3712 -13.8452 
37.1047 -29.3712 -13.3274 -38.3194 -21.8288 -14.1412 -30.777 -21.8288 -15.4947 
-23.2346 -21.8288 -14.8361 -15.6922 -21.8288 -14.3156 -8.14975 -21.8288 -13.6759 
-0.607345 -21.8288 -14.7846 6.93506 -21.8288 -14.6995 14.4775 -21.8288 -14.804 
22.0199 -21.8288 -15.7229 29.5623 -21.8288 -15.8831 37.1047 -21.8288 -15.5272 
44.6471 -21.8288 -13.7168 -45.8618 -14.2864 -14.5895 -38.3194 -14.2864 -15.622 
-30.777 -14.2864 -15.9535 -23.2346 -14.2864 -15.3271 -15.6922 -14.2864 -14.3033 
-8.14975 -14.2864 -13.9264 -0.607345 -14.2864 -15.2013 6.93506 -14.2864 -14.9469 
14.4775 -14.2864 -15.0079 22.0199 -14.2864 -16.0563 29.5623 -14.2864 -16.6179 
37.1047 -14.2864 -17.0865 44.6471 -14.2864 -15.9224 -45.8618 -6.744 -15.0093 
-38.3194 -6.744 -16.4684 -30.777 -6.744 -16.304 -23.2346 -6.744 -15.5566 
-15.6922 -6.744 -14.2816 -8.14975 -6.744 -16.1856 -0.607345 -6.744 -16.157 
6.93506 -6.744 -16.5746 14.4775 -6.744 -15.2857 22.0199 -6.744 -15.7775 
29.5623 -6.744 -16.809 37.1047 -6.744 -17.1302 44.6471 -6.744 -16.398 
52.1895 -6.744 -14.4646 -45.8618 0.798402 -15.0562 -38.3194 0.798402 -16.7894 
-30.777 0.798402 -16.7114 -23.2346 0.798402 -15.9821 -15.6922 0.798402 -14.677 
-8.14975 0.798402 -17.5245 -0.607345 0.798402 -15.0301 6.93506 0.798402 -18.8406 
14.4775 0.798402 -18.3511 22.0199 0.798402 -17.0569 29.5623 0.798402 -17.7113 
37.1047 0.798402 -17.9847 44.6471 0.798402 -17.45 52.1895 0.798402 -16.326 
-45.8618 8.34081 -14.0697 -38.3194 8.34081 -16.04 -30.777 8.34081 -16.5138 
-23.2346 8.34081 -16.3264 -15.6922 8.34081 -16.0679 -8.14975 8.34081 -18.5761 
-0.607345 8.34081 -19.0764 6.93506 8.34081 -19.6703 14.4775 8.34081 -19.2248 
22.0199 8.34081 -18.5274 29.5623 8.34081 -18.6336 37.1047 8.34081 -18.6191 
44.6471 8.34081 -18.098 52.1895 8.34081 -15.9336 59.7319 8.34081 -12.7082 
-38.3194 15.8832 -14.2756 -30.777 15.8832 -15.2649 -23.2346 15.8832 -15.9721 
-15.6922 15.8832 -16.4961 -8.14975 15.8832 -18.8355 -0.607345 15.8832 -19.3517 
6.93506 15.8832 -18.7375 14.4775 15.8832 -18.6873 22.0199 15.8832 -18.9011 
29.5623 15.8832 -18.8496 37.1047 15.8832 -18.0475 44.6471 15.8832 -16.8138 
52.1895 15.8832 -14.1191 -30.777 23.4256 -12.7464 -23.2346 23.4256 -13.9829 
-15.6922 23.4256 -14.2822 -8.14975 23.4256 -14.9619 -0.607345 23.4256 -16.3279 
6.93506 23.4256 -17.6357 14.4775 23.4256 -18.4162 22.0199 23.4256 -18.0713 
29.5623 23.4256 -17.4379 37.1047 23.4256 -16.3857 44.6471 23.4256 -14.5744 
-0.607345 30.968 -14.181 6.93506 30.968 -16.2794 14.4775 30.968 -17.2031 
22.0199 30.968 -16.701 29.5623 30.968 -14.5732 6.93506 38.5104 -13.064 
14.4775 38.5104 -13.8528 22.0199 38.5104 -13.0185 -30.777 -30.2454 -12.6975 
-30.777 -36.9136 -5.9677 -23.2346 -36.9136 -5.96804 -15.6922 -36.9136 -6.42922 
-8.14975 -36.9136 -6.78337 -0.607345 -29.3774 -12.6975 -0.607345 -36.9136 -8.15726 
6.93506 -30.8992 -12.6975 6.93506 -36.9136 -9.2808 14.4775 -31.3049 -12.6975 
14.4775 -36.9136 -9.7094 22.0199 -31.8781 -12.6975 22.0199 -36.9136 -9.91502 
29.5623 -31.7393 -12.6975 29.5623 -36.9136 -9.17521 37.1047 -30.9031 -12.6975 
37.1047 -36.9136 -8.01802 -45.8618 -29.3712 -9.52874 -33.2126 -29.3712 -12.6975 
-38.3194 -26.0003 -12.6975 -38.3194 -29.3712 -11.3548 -26.194 -29.3712 -12.6975 
-23.2346 -28.3207 -12.6975 -23.2346 -29.3712 -12.3181 -15.6922 -26.7183 -12.6975 
-15.6922 -29.3712 -11.7573 -0.637143 -29.3712 -12.6975 -8.14975 -26.0606 -12.6975 
-8.14975 -29.3712 -11.8827 38.6828 -29.3712 -12.6975 44.6471 -23.7006 -12.6975 
44.6471 -29.3712 -9.21204 -53.4042 -21.8288 -8.07444 -44.6651 -21.8288 -12.6975 
-45.8618 -20.7739 -12.6975 -45.8618 -21.8288 -12.4103 47.3103 -21.8288 -12.6975 
52.1895 -21.8288 -10.0713 -51.4955 -14.2864 -12.6975 -53.4042 -14.2864 -11.773 
50.9793 -14.2864 -12.6975 52.1895 -11.7051 -12.6975 52.1895 -14.2864 -11.7799 
-50.5497 -6.744 -12.6975 -53.4042 -6.744 -10.8578 55.2785 -6.744 -12.6975 
59.7319 -6.744 -8.74544 -50.5563 0.798402 -12.6975 -53.4042 0.798402 -10.7756 
58.581 0.798402 -12.6975 59.7319 8.19388 -12.6975 59.7319 0.798402 -11.6816 
-48.4748 8.34081 -12.6975 -53.4042 8.34081 -9.15808 -45.8618 12.8871 -12.6975 
59.7433 8.34081 -12.6975 59.7319 8.37007 -12.6975 -53.4042 15.8832 -6.84385 
-42.958 15.8832 -12.6975 -45.8618 15.8832 -11.6435 -38.3194 20.06 -12.6975 
54.3509 15.8832 -12.6975 52.1895 19.8006 -12.6975 59.7319 15.8832 -6.45997 
-45.8618 23.4256 -7.61322 -31.0488 23.4256 -12.6975 -38.3194 23.4256 -11.3833 
-30.777 23.5335 -12.6975 -23.2346 26.4443 -12.6975 -15.6922 27.265 -12.6975 
-8.14975 30.4218 -12.6975 37.1047 30.5108 -12.6975 49.55 23.4256 -12.6975 
44.6471 26.5429 -12.6975 52.1895 23.4256 -9.73925 -38.3194 30.968 -6.18825 
-30.777 30.968 -9.21789 -23.2346 30.968 -10.4756 -15.6922 30.968 -11.1731 
-7.365 30.968 -12.6975 -8.14975 30.968 -12.5211 -0.607345 35.3222 -12.6975 
36.212 30.968 -12.6975 29.5623 33.6237 -12.6975 37.1047 30.968 -12.279 
-23.2346 38.5104 -5.33217 -15.6922 38.5104 -7.09554 -8.14975 38.5104 -8.84277 
5.1683 38.5104 -12.6975 -0.607345 38.5104 -11.4384 6.93506 38.9973 -12.6975 
14.4775 39.9404 -12.6975 22.7245 38.5104 -12.6975 22.0199 38.8843 -12.6975 
29.5623 38.5104 -7.09405 -30.777 -37.4893 -5.15505 -23.2346 -37.5169 -5.15505 
-15.6922 -38.1026 -5.15505 -8.14975 -38.508 -5.15505 -0.607345 -40.1439 -5.15505 
6.93506 -41.4382 -5.15505 14.4775 -41.794 -5.15505 22.0199 -41.7227 -5.15505 
29.5623 -40.0041 -5.15505 37.1047 -38.5656 -5.15505 -45.8618 -32.6339 -5.15505 
-34.4449 -36.9136 -5.15505 -38.3194 -36.2249 -5.15505 -38.3194 -36.9136 -3.48505 
40.4518 -36.9136 -5.15505 44.6471 -33.8502 -5.15505 -50.135 -29.3712 -5.15505 
-53.4042 -25.4594 -5.15505 49.8602 -29.3712 -5.15505 52.1895 -26.997 -5.15505 
-55.6213 -21.8288 -5.15505 55.3037 -21.8288 -5.15505 -58.9863 -14.2864 -5.15505 
58.8659 -14.2864 -5.15505 59.7319 -12.2411 -5.15505 -59.6855 -6.744 -5.15505 
-60.9466 -6.744 1.93494 61.7977 -6.744 -5.15505 -59.5143 0.798402 -5.15505 
-60.9466 0.798402 0.502365 62.8945 0.798402 -5.15505 -57.4447 8.34081 -5.15505 
63.0409 8.34081 -5.15505 -54.8252 15.8832 -5.15505 -53.4042 18.3877 -5.15505 
60.2903 15.8832 -5.15505 59.7319 16.7799 -5.15505 59.7319 15.8832 -3.33897 
-48.873 23.4256 -5.15505 -53.4042 23.4256 1.12393 -45.8618 27.0938 -5.15505 
44.6471 30.5984 -5.15505 54.2324 23.4256 -5.15505 52.1895 25.4658 -5.15505 
52.1895 23.4256 -0.310946 -40.5301 30.968 -5.15505 -45.8618 30.968 -0.80569 
-38.3194 32.1805 -5.15505 -30.777 37.2181 -5.15505 44.0385 30.968 -5.15505 
37.1047 34.9561 -5.15505 -24.198 38.5104 -5.15505 -30.777 38.5104 -3.47336 
-23.2346 38.666 -5.15505 -15.6922 40.9384 -5.15505 -8.14975 42.6203 -5.15505 
-0.607345 44.7113 -5.15505 6.93506 45.5164 -5.15505 14.4775 45.521 -5.15505 
22.0199 43.3603 -5.15505 31.3587 38.5104 -5.15505 29.5623 39.573 -5.15505 
29.5623 38.5104 -0.20147 -38.3194 -38.7123 2.38736 -30.777 -40.2461 2.38736 
-23.2346 -40.9559 2.38736 -15.6922 -41.7829 2.38736 -8.14975 -42.76 2.38736 
-0.607345 -43.9155 2.38736 6.93506 -44.4556 2.38736 14.4775 -44.0821 2.38736 
22.0199 -43.1729 2.38736 29.5623 -41.469 2.38736 37.1047 -38.6834 2.38736 
-42.2702 -36.9136 2.38736 -45.8618 -35.0428 2.38736 -38.3194 -36.9136 8.60289 
29.5623 -36.9136 9.53021 40.5391 -36.9136 2.38736 37.1047 -36.9136 5.58103 
44.6471 -34.2302 2.38736 -52.5354 -29.3712 2.38736 -53.4042 -28.2457 2.38736 
49.6545 -29.3712 2.38736 44.6471 -29.3712 8.30854 52.1895 -25.863 2.38736 
-57.4353 -21.8288 2.38736 54.6137 -21.8288 2.38736 52.1895 -21.8288 5.59805 
-60.5786 -14.2864 2.38736 -60.9466 -7.89172 2.38736 58.0325 -14.2864 2.38736 
52.1895 -14.2864 8.96916 59.7319 -9.3964 2.38736 -61.0075 -6.744 2.38736 
-60.9466 -6.744 2.53096 60.6006 -6.744 2.38736 59.7319 -6.744 3.64544 
-61.3056 0.798402 2.38736 -60.9466 2.34232 2.38736 -60.9466 0.798402 3.26653 
61.1217 0.798402 2.38736 59.7319 0.798402 4.14299 -59.5517 8.34081 2.38736 
52.1895 8.34081 9.87108 60.9079 8.34081 2.38736 59.7319 10.7885 2.38736 
59.7319 8.34081 3.48283 -57.2964 15.8832 2.38736 57.5705 15.8832 2.38736 
52.1895 22.1929 2.38736 52.1895 15.8832 7.24683 -53.9443 23.4256 2.38736 
-53.4042 24.1724 2.38736 -53.4042 23.4256 5.52392 37.1047 23.4256 9.26797 
50.7879 23.4256 2.38736 44.6471 28.0786 2.38736 44.6471 23.4256 6.99976 
-47.5182 30.968 2.38736 -45.8618 32.5815 2.38736 -38.3194 37.8372 2.38736 
29.5623 37.7282 2.38736 29.5623 30.968 7.91461 40.4398 30.968 2.38736 
37.1047 33.0422 2.38736 37.1047 30.968 4.80308 -36.9565 38.5104 2.38736 
-30.777 41.2348 2.38736 -23.2346 43.2438 2.38736 -15.6922 44.0582 2.38736 
-8.14975 44.6283 2.38736 -0.607345 44.613 2.38736 -0.607345 38.5104 9.76834 
6.93506 44.4605 2.38736 6.93506 38.5104 9.19572 14.4775 43.5575 2.38736 
14.4775 38.5104 8.08994 28.2497 38.5104 2.38736 22.0199 41.4019 2.38736 
22.0199 38.5104 5.89654 -30.777 -38.2702 9.92976 -23.2346 -39.5758 9.92976 
-15.6922 -40.6343 9.92976 -8.14975 -40.9275 9.92976 -0.607345 -41.3762 9.92976 
6.93506 -41.6059 9.92976 14.4775 -40.6093 9.92976 22.0199 -38.7611 9.92976 
-45.8618 -31.6362 9.92976 -36.4352 -36.9136 9.92976 -38.3194 -36.2602 9.92976 
-30.777 -36.9136 11.7672 -23.2346 -36.9136 13.0506 -15.6922 -36.9136 13.7712 
-8.14975 -36.9136 13.7827 -0.607345 -36.9136 13.7312 6.93506 -36.9136 13.2168 
14.4775 -36.9136 12.7273 28.3182 -36.9136 9.92976 22.0199 -36.9136 11.3857 
29.5623 -36.5035 9.92976 37.1047 -32.6196 9.92976 -48.2854 -29.3712 9.92976 
-53.4042 -22.3287 9.92976 -45.8618 -29.3712 11.8481 -38.3194 -29.3712 14.6125 
-30.777 -29.3712 16.6311 -23.2346 -29.3712 16.9767 -15.6922 -29.3712 16.9647 
-8.14975 -29.3712 16.4778 -0.607345 -29.3712 15.9608 6.93506 -29.3712 15.6147 
14.4775 -29.3712 15.3017 22.0199 -29.3712 15.3601 29.5623 -29.3712 14.2067 
41.8913 -29.3712 9.92976 37.1047 -29.3712 12.0222 44.6471 -25.5731 9.92976 
-53.6985 -21.8288 9.92976 -53.4042 -21.8288 10.2115 -45.8618 -21.8288 15.4475 
[...]
POINT_DATA 564
SCALARS ImageScalars float
LOOKUP_TABLE default
0 0 0 0 0 0 0 0 0 
0 0 0 0 0 0 0 0 0 
0 0 0 0 0 0 0 0 0 
0 0 0 0 0 0 0 0 0 
0 0 0 0 0 0 0 0 0 
0 0 0 0 0 0 0 0 0 
0 0 0 0 0 0 0 0 0 
0 0 0 0 0 0 0 0 0 
0 0 0 0 0 0 0 0 0 
0 0 0 0 0 0 0 0 0 
0 0 0 0 0 0 0 0 0 
0 0 0 0 0 0 0 0 0 
0 0 0 0 0 0 0 0 0 
0 0 0 0 0 0 0 0 0 
0 0 0 0 0 0 0 0 0 
0 0 0 0 0 0 0 0 0 
0 0 0 0 0 0 0 0 0 
0 0 0 0 0 0 0 0 0 
0 0 0 0 0 0 0 0 0 
0 0 0 0 0 0 0 0 0 
0 0 0 0 0 0 0 0 0 
0 0 0 0 0 0 0 0 0 
0 0 0 0 0 0 0 0 0 
0 0 0 0 0 0 0 0 0 
0 0 0 0 0 0 0 0 0 
0 0 0 0 0 0 0 0 0 
0 0 0 0 0 0 0 0 0 
0 0 0 0 0 0 0 0 0 
0 0 0 0 0 0 0 0 0 
0 0 0 0 0 0 0 0 0 
0 0 0 0 0 0 0 0 0 
0 0 0 0 0 0 0 0 0 
0 0 0 0 0 0 0 0 0 
0 0 0 0 0 0 0 0 0 
0 0 0 0 0 0 0 0 0 
0 0 0 0 0 0 0 0 0 
0 0 0 0 0 0 0 0 0 
0 0 0 0 0 0 0 0 0 
0 0 0 0 0 0 0 0 0 
0 0 0 0 0 0 0 0 0 
0 0 0 0 0 0 0 0 0 
0 0 0 0 0 0 0 0 0 
0 0 0 0 0 0 0 0 0 
0 0 0 0 0 0 0 0 0 
0 0 0 0 0 0 0 0 0 
0 0 0 0 0 0 0 0 0 
0 0 0 0 0 0 0 0 0 
0 0 0 0 0 0 0 0 0 
0 0 0 0 0 0 0 0 0 
0 0 0 0 0 0 0 0 0 
0 0 0 0 0 0 0 0 0 
0 0 0 0 0 0 0 0 0 
0 0 0 0 0 0 0 0 0 
0 0 0 0 0 0 0 0 0 
0 0 0 0 0 0 0 0 0 
0 0 0 0 0 0 0 0 0 
0 0 0 0 0 0 0 0 0 
0 0 0 0 0 0 0 0 0 
0 0 0 0 0 0 0 0 0 
0 0 0 0 0 0 0 0 0 
0 0 0 0 0 0 0 0 0 
0 0 0 0 0 0 0 0 0 
0 0 0 0 0 0 
NORMALS Normals float
0.0471908 0.430153 0.901522 0.0955643 0.377354 0.921125 0.0526437 0.313309 0.948191 
0.0298903 0.294862 0.955072 0.0209046 0.32463 0.94561 -0.0375462 0.349985 0.936003 
-0.226708 0.351334 0.908388 0.176892 0.240831 0.954311 0.0432604 0.189439 0.980939 
-0.0728384 0.180456 0.980882 -0.0760668 0.154572 0.985049 0.0329914 0.128651 0.991141 
0.0647019 0.156096 0.98562 0.00126284 0.0999458 0.994992 0.0666451 0.0965778 0.993092 
0.0714596 0.132497 0.988604 -0.0113881 0.168713 0.9856 -0.115094 0.242382 0.96333 
-0.285706 0.39629 0.87254 0.253071 0.163736 0.953491 0.0816258 0.15142 0.985094 
-0.0203887 0.0516308 0.998458 -0.103546 0.0471823 0.993505 -0.0961076 -0.00224153 0.995368 
0.0609389 0.118746 0.991053 0.0692455 0.0900708 0.993525 -0.0129034 0.115001 0.993282 
0.0729314 0.0309634 0.996856 0.106271 0.00342274 0.994331 0.0665 0.060941 0.995924 
-0.0629589 0.104479 0.992532 -0.273089 0.133284 0.952711 0.312846 0.0258231 0.949453 
0.0968966 0.0762373 0.99237 -0.0598479 0.0499002 0.996959 -0.129029 0.0430285 0.990707 
0.00196886 0.0260148 0.99966 0.140603 0.265113 0.953911 0.0245674 -0.00143023 0.999697 
-0.058143 0.238828 0.96932 -0.0462242 0.20003 0.978699 0.0999958 0.0659373 0.992801 
0.0889406 0.0720254 0.993429 -0.0252806 0.0593122 0.997919 -0.153626 0.107028 0.982316 
-0.379356 0.24692 0.891695 0.33106 -0.0616995 0.94159 0.117271 -0.0259065 0.992762 
-0.0533938 0.0140645 0.998474 -0.136183 0.0516865 0.989334 0.0716562 0.117427 0.990493 
0.0531362 0.13805 0.988999 0.0755103 0.183493 0.980117 0.206407 0.205181 0.956712 
-0.11932 0.270533 0.955288 -0.0302712 0.183075 0.982633 0.0606746 0.12011 0.990905 
-0.0160112 0.0983108 0.995027 -0.0941441 0.110242 0.989436 -0.365739 0.0761741 0.927595 
0.362369 -0.200269 0.910264 0.170926 -0.16266 0.971764 0.0170555 -0.0936076 0.995463 
-0.029082 -0.0010589 0.999576 0.127551 0.122817 0.984198 0.212571 0.0799988 0.973865 
0.0717764 0.266492 0.961161 0.00536485 -0.0164995 0.999849 -0.0763332 0.0141026 0.996983 
-0.0391192 0.120509 0.991941 0.00606145 0.0754773 0.997129 -0.0334487 0.00479374 0.999429 
-0.189685 -0.035606 0.981199 -0.326557 -0.104117 0.939425 -0.694233 -0.142959 0.70541 
0.213994 -0.278742 0.936221 0.10823 -0.231896 0.966701 0.078982 -0.150903 0.985388 
0.169136 -0.111526 0.979263 0.196875 -0.229695 0.953142 -0.0119224 -0.185647 0.982544 
-0.0404771 -0.132385 0.990372 0.0108223 -0.0532606 0.998522 0.010465 -0.031891 0.999437 
-0.05446 -0.0741624 0.995758 -0.126845 -0.129428 0.983442 -0.217954 -0.22888 0.948741 
-0.454073 -0.29755 0.839811 0.162064 -0.368943 0.915214 0.0942816 -0.343594 0.934374 
0.0600214 -0.337095 0.939555 0.130441 -0.376782 0.917072 0.165045 -0.310632 0.936092 
0.133135 -0.154502 0.978981 0.0275642 -0.0944476 0.995148 -0.061559 -0.142727 0.987846 
-0.103013 -0.249569 0.962862 -0.194242 -0.360306 0.912387 -0.297981 -0.429918 0.852278 
0.23325 -0.292288 0.927449 0.183413 -0.263639 0.947024 0.0238511 -0.264338 0.964135 
-0.142241 -0.307192 0.940957 -0.278566 -0.491382 0.825194 0.133131 -0.513265 0.847841 
-0.00534196 -0.552003 0.833825 -0.249722 -0.632554 0.733154 0.0484688 0.471239 0.880673 
0.0662825 0.845872 0.529252 0.0235835 0.814995 0.578989 0.0379928 0.731597 0.680678 
0.0905096 0.690042 0.718088 0.0955887 0.377527 0.921051 0.133873 0.635231 0.760631 
0.0602701 0.362725 0.929945 0.0838998 0.594156 0.799963 0.0291607 0.357208 0.93357 
0.0353107 0.591253 0.805713 0.0124909 0.408989 0.912454 -0.0233691 0.642956 0.765546 
-0.027694 0.447791 0.893709 -0.0876224 0.751486 0.653905 -0.233776 0.41405 0.879723 
-0.301997 0.808354 0.505333 0.427063 0.58473 0.689716 0.0849718 0.435027 0.896399 
0.174233 0.34692 0.921569 0.18762 0.476435 0.858958 -0.0356331 0.425213 0.904392 
-0.0884785 0.385497 0.918457 -0.0889504 0.427077 0.89983 -0.0451438 0.328119 0.943557 
-0.0263269 0.43136 0.901796 0.0954185 0.377324 0.921152 0.0477302 0.26364 0.96344 
0.0566924 0.376858 0.924534 -0.277909 0.375785 0.884054 -0.322094 0.437463 0.839572 
-0.5083 0.579499 0.637034 0.685373 0.410553 0.601424 0.271387 0.239571 0.932178 
0.283848 0.23255 0.930242 0.298938 0.243631 0.922648 -0.374818 0.394413 0.839017 
-0.658515 0.393649 0.641403 0.472215 0.110521 0.874527 0.562856 0.0978041 0.820748 
-0.524574 0.188679 0.830194 -0.511159 0.209694 0.833513 -0.595316 0.214716 0.774271 
0.470257 -0.0174138 0.882358 0.593212 -0.040922 0.804005 -0.502467 0.263843 0.823355 
-0.824572 0.295466 0.482474 0.483543 -0.0744288 0.872151 0.602187 -0.0881875 0.793469 
-0.637849 0.137222 0.757838 -0.69461 -0.137354 0.706152 -0.723634 0.132959 0.677257 
0.44552 -0.20824 0.870717 0.658728 -0.205401 0.723801 0.378635 -0.280417 0.882044 
-0.695005 -0.142981 0.704645 -0.694545 -0.144088 0.704873 0.715839 -0.356896 0.600167 
0.323738 -0.309193 0.8942 0.397768 -0.334227 0.854443 0.22928 -0.352099 0.907445 
-0.531935 -0.34895 0.771543 -0.523221 -0.424825 0.738758 -0.866529 -0.471352 0.16418 
0.506503 -0.489814 0.709604 0.164872 -0.370408 0.91412 0.251275 -0.419993 0.872048 
0.162636 -0.37048 0.914491 0.10256 -0.366787 0.924634 0.0828607 -0.373833 0.923787 
0.179824 -0.341803 0.922407 -0.28866 -0.584112 0.75861 -0.481338 -0.498539 0.720953 
-0.355449 -0.584005 0.729791 -0.648799 -0.636037 0.417751 0.347183 -0.616246 0.706898 
0.212138 -0.488896 0.846155 0.119946 -0.428688 0.895455 0.118699 -0.41386 0.902569 
0.188188 -0.335953 0.922887 0.184309 -0.343523 0.920881 0.231665 -0.376244 0.897091 
-0.294065 -0.585557 0.755413 -0.321881 -0.557687 0.7651 -0.310804 -0.61976 0.720624 
0.172664 -0.709678 0.683041 0.180633 -0.607982 0.77313 0.247538 -0.581025 0.775329 
0.154403 -0.500837 0.851659 0.24506 -0.493 0.834804 0.127922 -0.533051 0.836357 
-0.014687 -0.612498 0.790336 -0.26108 -0.640943 0.721823 -0.25055 -0.649836 0.717592 
-0.476627 -0.830601 0.287974 0.0668728 0.86397 0.499083 0.0334008 0.839551 0.542254 
0.0548447 0.775935 0.628424 0.102905 0.744683 0.659438 0.153251 0.761433 0.629868 
0.084749 0.800952 0.592701 0.0147138 0.839714 0.542829 -0.109151 0.880628 0.461065 
-0.186935 0.88868 0.418693 -0.336531 0.894721 0.293634 0.467397 0.758968 0.453329 
0.165572 0.852781 0.495329 0.273788 0.822922 0.497835 0.290519 0.882058 0.370908 
-0.457436 0.842069 0.285784 -0.576726 0.748682 0.326899 0.618213 0.643254 0.451706 
0.740545 0.50301 0.445617 -0.676315 0.668589 0.309172 -0.753482 0.605323 0.256612 
0.801296 0.413206 0.432649 -0.848757 0.478449 0.225163 0.850783 0.234236 0.470427 
-0.889734 0.389229 0.238482 -0.908235 0.360705 0.212135 0.889119 0.0255481 0.456962 
0.992648 0.0442368 -0.112663 -0.943865 0.273752 0.184874 0.864806 -0.12007 0.487538 
0.994309 -0.103766 0.0241512 -0.989329 0.0796844 0.121978 0.820182 -0.26419 0.50745 
-0.979762 -0.173803 0.099289 0.770946 -0.376561 0.513658 0.727996 -0.437322 0.527988 
-0.885017 -0.461196 0.0635872 -0.865861 -0.495866 0.0663395 -0.887806 -0.45775 -0.047599 
0.603106 -0.528982 0.597027 0.818389 -0.544753 0.182985 0.541382 -0.563815 0.623713 
-0.510142 -0.859757 0.023959 -0.694749 -0.71797 0.0429253 -0.65558 -0.755047 0.010904 
-0.60124 -0.724024 -0.338082 0.406605 -0.628078 0.663469 0.634819 -0.69688 0.333711 
0.37184 -0.639073 0.67329 0.258584 -0.698185 0.667586 -0.50687 -0.861566 0.0280381 
-0.507997 -0.858171 0.0740341 0.184975 -0.715866 0.67329 0.287555 -0.793002 0.537085 
0.175649 -0.714824 0.676886 0.213949 -0.707035 0.674038 0.21608 -0.791245 0.57205 
0.181872 -0.922287 0.34104 0.0452827 -0.974038 0.221808 -0.134711 -0.980302 0.14443 
-0.37589 -0.918295 0.124264 -0.496188 -0.85993 0.119658 -0.487926 -0.862552 0.133915 
-0.499169 -0.829922 -0.249119 0.311721 0.950136 -0.0085093 0.150723 0.987632 0.0431934 
0.102775 0.988477 0.111133 0.118714 0.984336 0.130341 0.139828 0.981889 0.127836 
0.114808 0.990958 0.0694346 0.00912727 0.999318 0.0357843 -0.0842357 0.995296 -0.0478653 
-0.171849 0.977111 -0.125384 -0.280791 0.946968 -0.15623 -0.424978 0.873901 -0.235987 
0.41179 0.911085 -0.0187812 0.523707 0.850675 -0.0456335 0.350945 0.826171 -0.440772 
-0.237381 0.698175 -0.675427 -0.500063 0.827181 -0.256337 -0.422917 0.791755 -0.440756 
-0.60749 0.748109 -0.267002 0.752358 0.650584 -0.103433 0.781805 0.614047 -0.108292 
-0.729862 0.610578 -0.3074 -0.5587 0.499099 -0.662386 -0.76529 0.542343 -0.346693 
0.891347 0.438543 -0.114803 -0.817092 0.481457 -0.317111 -0.713616 0.470111 -0.519372 
0.959728 0.231193 -0.159602 0.986645 0.0719213 -0.146144 -0.870119 0.329388 -0.366601 
-0.604926 0.252813 -0.755083 -0.8863 0.248055 -0.391078 0.988863 0.044991 -0.141868 
0.987722 0.0458915 -0.149332 -0.897713 0.192976 -0.396071 -0.864175 0.185383 -0.467798 
0.989741 -0.0948629 -0.106839 0.98683 -0.126685 -0.100588 0.982201 -0.0902719 -0.164716 
-0.878078 0.0234086 -0.477945 -0.812321 -0.0115028 -0.583098 0.965026 -0.251197 -0.0749948 
-0.452185 -0.229807 -0.861811 -0.783848 -0.212654 -0.583404 -0.78989 -0.278588 -0.546318 
-0.743962 -0.202879 -0.636679 0.9338 -0.357344 0.0179459 -0.777502 -0.399093 -0.48602 
-0.543906 -0.64839 -0.532688 -0.501813 -0.421546 -0.755303 0.841419 -0.528809 0.111245 
0.828831 -0.547286 0.116262 0.843484 -0.526307 -0.107408 -0.265715 -0.417858 -0.868787 
-0.519261 -0.676386 -0.522369 -0.508301 -0.745871 -0.430473 -0.405056 -0.521642 -0.750879 
0.698187 -0.703895 0.130639 0.661103 -0.737738 0.136692 0.487695 -0.858212 0.160081 
-0.467333 -0.752142 -0.464631 -0.344892 -0.526389 -0.777152 -0.483287 -0.763986 -0.427503 
-0.474757 -0.762044 -0.440334 -0.402781 -0.668095 -0.625633 0.462171 -0.873655 0.152069 
0.33274 -0.935538 0.11854 0.186613 -0.981641 0.0394568 0.0918887 -0.993182 -0.0717302 
0.0395113 -0.989006 -0.142498 -0.0105574 -0.952794 -0.303435 -0.0703284 -0.590647 -0.803859 
-0.0636995 -0.914782 -0.398895 -0.0828931 -0.6182 -0.781638 -0.181972 -0.863051 -0.4712 
-0.160173 -0.655127 -0.738345 -0.448474 -0.769185 -0.455221 -0.335532 -0.822427 -0.459383 
-0.310845 -0.709475 -0.632472 0.199641 0.853282 -0.48172 0.144915 0.876766 -0.458564 
0.0855744 0.877528 -0.471828 0.0432772 0.846861 -0.53005 0.0376447 0.805962 -0.590769 
-0.0412187 0.759336 -0.649392 -0.132093 0.712147 -0.689491 -0.199107 0.654559 -0.729321 
0.511365 0.605106 -0.610207 0.312728 0.790986 -0.525874 0.345932 0.75638 -0.555176 
0.195579 0.779104 -0.595605 0.103719 0.725173 -0.680711 0.0415518 0.634404 -0.771884 
-0.00239048 0.546853 -0.837225 -0.0351086 0.481832 -0.87556 -0.0646647 0.466944 -0.88192 
-0.109981 0.501197 -0.858315 -0.225059 0.667904 -0.709403 -0.174245 0.575571 -0.798972 
-0.230572 0.668463 -0.707102 -0.369283 0.564241 -0.738419 0.582795 0.546625 -0.601291 
0.653767 0.404013 -0.639814 0.465216 0.526448 -0.711636 0.289284 0.408263 -0.865816 
0.150176 0.322382 -0.934621 0.0194992 0.270021 -0.962657 -0.032744 0.24753 -0.968327 
-0.0665694 0.159813 -0.9849 -0.0564691 0.110419 -0.99228 -0.0429479 0.158514 -0.986422 
-0.0167544 0.221732 -0.974964 -0.0737001 0.303102 -0.950104 -0.180088 0.333191 -0.925501 
-0.460175 0.463924 -0.756977 -0.341705 0.45217 -0.823881 -0.517551 0.359475 -0.776478 
0.655299 0.391545 -0.645969 0.645883 0.384565 -0.659503 0.403338 0.214545 -0.889544 
0.154447 0.21514 -0.964293 -0.14405 -0.0134207 -0.989479 -0.0434015 -0.00649152 -0.999037 
0.0305265 0.00927014 -0.999491 0.0370907 0.0359026 -0.998667 -0.0305774 0.0531675 -0.998117 
-0.123722 0.12266 -0.984707 -0.266444 0.166317 -0.949393 -0.532103 0.306095 -0.789413 
-0.487427 0.280486 -0.826887 0.717834 0.160853 -0.677377 0.551099 0.141478 -0.822359 
0.331563 0.0331822 -0.942849 -0.116024 -0.108897 -0.987259 -0.0977348 0.00328899 -0.995207 
-0.0348399 0.134275 -0.990331 0.00166857 -0.0514393 -0.998675 0.0339468 -0.103883 -0.99401 
0.0130569 -0.058489 -0.998203 -0.0685379 -0.00604524 -0.99763 -0.143506 0.0305682 -0.989177 
-0.536858 0.229973 -0.811724 -0.362404 0.143949 -0.920838 -0.542871 0.198644 -0.815985 
0.701374 0.0253791 -0.712341 0.55032 0.0381671 -0.834081 0.282104 0.0774841 -0.95625 
-0.100993 -0.0228474 -0.994625 -0.0321781 -0.0338012 -0.99891 0.105627 0.128265 -0.986099 
-0.214043 0.0724258 -0.974136 0.0354741 -0.00867782 -0.999333 0.0693485 -0.0864574 -0.993839 
-0.0353178 -0.0715534 -0.996811 -0.12334 -0.0487991 -0.991164 -0.268994 -0.0305024 -0.962659 
-0.543655 0.123477 -0.830176 -0.480197 0.11234 -0.869937 0.730998 -0.029389 -0.681746 
0.570105 -0.00176603 -0.82157 0.260089 0.0395346 -0.964775 0.0342966 0.0868251 -0.995633 
-0.0966785 -0.0436462 -0.994358 0.0464121 0.118249 -0.991899 -0.132855 0.0693566 -0.988706 
-0.0511559 -0.0856381 -0.995012 -0.034265 -0.106646 -0.993706 -0.11172 -0.104034 -0.988279 
-0.23877 -0.0997008 -0.965944 -0.523372 -0.0730643 -0.848966 -0.452395 -0.224669 -0.863054 
-0.468123 -0.0756695 -0.880418 0.779817 -0.103726 -0.617354 0.652964 -0.0826634 -0.752864 
0.349313 -0.0241034 -0.936696 -0.069523 0.17824 -0.981528 -0.109704 -0.0207566 -0.993748 
-0.181476 -0.0594557 -0.981596 -0.0973899 -0.0728409 -0.992577 -0.0542921 -0.116241 -0.991736 
-0.122422 -0.148741 -0.981269 -0.446954 -0.227869 -0.865048 -0.2417 -0.135593 -0.960831 
0.837922 -0.201009 -0.507428 0.795322 -0.383338 -0.46959 0.746161 -0.175337 -0.642262 
0.374438 -0.0420836 -0.926296 -0.139552 -0.0904768 -0.986073 0.0484463 -0.147889 -0.987817 
-0.188298 -0.0687452 -0.979703 -0.173345 -0.0563979 -0.983245 -0.116758 -0.0872453 -0.989321 
-0.112294 -0.170359 -0.978963 -0.230367 -0.379655 -0.895987 -0.13131 -0.249311 -0.95948 
-0.358253 -0.329308 -0.87362 -0.325267 -0.343526 -0.881017 -0.280032 -0.282234 -0.917565 
0.761002 -0.469442 -0.447772 0.457944 -0.300761 -0.836559 -0.122586 -0.16301 -0.978979 
-0.00593187 -0.158067 -0.987411 0.0147638 -0.256767 -0.96636 -0.0926806 -0.195864 -0.976242 
-0.188729 -0.132668 -0.973027 -0.203625 -0.177159 -0.962887 -0.252097 -0.380247 -0.889865 
-0.278058 -0.399027 -0.873763 -0.222963 -0.296004 -0.9288 0.632633 -0.647805 -0.424411 
0.621591 -0.658289 -0.424594 0.619564 -0.644677 -0.447808 0.453278 -0.770137 -0.448808 
0.292739 -0.506826 -0.810822 0.0314787 -0.372901 -0.927337 -0.106171 -0.358931 -0.927306 
-0.121774 -0.299336 -0.946345 -0.0549112 -0.312553 -0.948312 -0.0697845 -0.577725 -0.813243 
-0.0325284 -0.37733 -0.925508 -0.0810656 -0.568312 -0.81881 -0.0613623 -0.388851 -0.919255 
-0.151123 -0.535404 -0.830966 -0.154106 -0.36828 -0.916854 -0.286616 -0.42131 -0.860435 
-0.271574 -0.442185 -0.854822 -0.262748 -0.368675 -0.891652 0.297687 -0.83176 -0.468569 
0.170688 -0.85331 -0.492674 0.143245 -0.792619 -0.592652 0.0184372 -0.73421 -0.678672 
-0.00413437 -0.693386 -0.720555 -0.0148514 -0.692361 -0.721398 -0.032963 -0.61071 -0.791168 
-0.074416 -0.581458 -0.810166 -0.0854996 -0.591116 -0.802042 -0.089547 -0.565488 -0.819881 
0.107314 0.204296 -0.973009 0.00550902 0.178258 -0.983968 -0.0658916 0.130049 -0.989316 
0.114907 0.173637 -0.978083 0.173927 0.125181 -0.97677 0.0755596 0.121705 -0.989686 
-0.0118746 0.0657723 -0.997764 -0.114725 0.011024 -0.993336 -0.113539 -0.0892094 -0.98952 
-0.0979898 0.0244181 -0.994888 0.229376 0.0286108 -0.972917 0.198917 0.0326031 -0.979474 
0.00519358 -0.0194982 -0.999796 -0.111294 -0.103195 -0.988415 -0.0923378 -0.0385172 -0.994982 
-0.0796641 -0.0652767 -0.994682 -0.0842544 -0.00123267 -0.996444 0.119878 0.00771892 -0.992759 
0.115538 0.00557676 -0.993287 -0.0646522 -0.0195819 -0.997716 -0.0245643 -0.0172999 -0.999549 
-0.0996611 0.0454073 -0.993985 -0.0241441 0.0215718 -0.999476 -0.00340684 0.106822 -0.994272 
-0.118256 -0.0197372 -0.992787 -0.0965717 -0.0395708 -0.994539 -0.0956458 -0.0356702 -0.994776 
0.170426 0.0646538 -0.983247 0.0990434 0.08481 -0.991462 -0.0293388 0.0798214 -0.996377 
-0.0656326 0.0871696 -0.994029 -0.0988385 0.0874071 -0.991257 -0.0304275 0.0847942 -0.995934 
-0.0218301 0.0266811 -0.999406 -0.103888 0.055763 -0.993025 -0.0986218 0.0829253 -0.991664 
0.271371 -0.00873139 -0.962435 0.152701 0.0215385 -0.988038 -0.0236895 0.090608 -0.995605 
-0.0961479 0.0529116 -0.99396 -0.0580667 -0.00967572 -0.998266 -0.0321632 0.0154011 -0.999364 
-0.0597353 0.118875 -0.991111 0.00304621 -0.134025 -0.990973 -0.0132448 -0.124603 -0.992118 
-0.0445166 0.104978 -0.993478 0.271389 -0.0450091 -0.961417 0.204266 -0.058402 -0.977172 
0.00500454 -0.073261 -0.9973 -0.148717 -0.0807247 -0.985579 -0.17364 -0.050013 -0.983539 
0.0246465 -0.0924766 -0.99541 -0.0377243 -0.0747097 -0.996491 0.0183415 -0.111197 -0.993629 
0.0182553 -0.0775201 -0.996824 0.179405 -0.187087 -0.965822 0.138225 -0.222945 -0.964981 
0.11487 -0.168893 -0.978918 -0.00565732 -0.256881 -0.966427 -0.0115387 -0.225516 -0.974171 
-0.115409 -0.15153 -0.981692 -0.114133 -0.170123 -0.978791 -0.114596 -0.150772 -0.981904 

