# vtk DataFile Version 4.2
vtk output
ASCII
DATASET POLYDATA
POINTS 560 float
9.61092 -5.89413 -21.8325 0.921728 -40.6509 -13.3625 9.61092 -40.6509 -13.9187 
18.3001 -40.6509 -15.9208 26.9893 -40.6509 -15.5454 35.6785 -40.6509 -14.6393 
44.3677 -40.6509 -13.7215 -16.4566 -31.9617 -13.0137 -7.76746 -31.9617 -14.7876 
0.921728 -31.9617 -15.5741 9.61092 -31.9617 -16.551 18.3001 -31.9617 -17.6397 
26.9893 -31.9617 -17.9737 35.6785 -31.9617 -18.2843 44.3677 -31.9617 -16.6147 
53.0569 -31.9617 -14.326 -42.5242 -23.2725 -13.5694 -33.835 -23.2725 -13.211 
-25.1458 -23.2725 -13.1822 -16.4566 -23.2725 -13.8561 -7.76746 -23.2725 -15.672 
0.921728 -23.2725 -15.731 9.61092 -23.2725 -16.6068 18.3001 -23.2725 -17.7609 
26.9893 -23.2725 -18.6481 35.6785 -23.2725 -18.3856 44.3677 -23.2725 -17.7179 
53.0569 -23.2725 -18.2797 61.7461 -23.2725 -14.18 -59.9026 -14.5833 -14.8562 
-51.2134 -14.5833 -14.6725 -42.5242 -14.5833 -14.8218 -33.835 -14.5833 -14.705 
-25.1458 -14.5833 -13.6982 -16.4566 -14.5833 -13.9265 -7.76746 -14.5833 -16.4474 
0.921728 -14.5833 -15.0937 9.61092 -6.40836 -21.61 9.61092 -14.5833 -17.2988 
18.3001 -14.5833 -16.3854 26.9893 -14.5833 -16.9411 35.6785 -14.5833 -18.0011 
44.3677 -14.5833 -19.1642 53.0569 -14.5833 -17.9641 61.7461 -14.5833 -16.5681 
70.4352 -14.5833 -14.7302 -59.9026 -5.89413 -13.7934 -51.2134 -5.89413 -16.5476 
-42.5242 -5.89413 -16.4855 -33.835 -5.89413 -15.9869 -25.1458 -5.89413 -14.4387 
-16.4566 -5.89413 -14.3441 -7.76746 -5.89413 -16.7676 9.16041 -5.89413 -21.61 
0.921728 -5.89413 -15.8575 10.0382 -5.89413 -21.61 9.61092 -5.32114 -21.61 
18.3001 -5.89413 -15.8381 26.9893 -5.89413 -16.2993 35.6785 -5.89413 -17.8462 
44.3677 -5.89413 -19.0636 53.0569 -5.89413 -18.5445 61.7461 -5.89413 -18.698 
70.4352 -5.89413 -16.1165 -59.9026 2.79506 -15.517 -51.2134 2.79506 -17.2373 
-42.5242 2.79506 -18.3315 -33.835 2.79506 -17.9085 -25.1458 2.79506 -16.8868 
-16.4566 2.79506 -15.3391 -7.76746 2.79506 -17.9915 0.921728 2.79506 -15.6669 
9.61092 2.79506 -17.57 18.3001 2.79506 -15.7899 26.9893 2.79506 -16.9255 
35.6785 2.79506 -18.1727 44.3677 2.79506 -19.3524 53.0569 2.79506 -18.7083 
61.7461 2.79506 -18.7718 70.4352 2.79506 -16.1579 -59.9026 11.4843 -15.0338 
-51.2134 11.4843 -18.3015 -42.5242 11.4843 -19.149 -33.835 11.4843 -19.4266 
-25.1458 11.4843 -18.039 -16.4566 11.4843 -15.6346 -7.76746 11.4843 -14.585 
0.921728 11.4843 -19.8059 9.61092 11.4843 -14.9518 18.3001 11.4843 -15.9538 
26.9893 11.4843 -17.5407 35.6785 11.4843 -18.8567 44.3677 11.4843 -19.5157 
53.0569 11.4843 -18.4693 61.7461 11.4843 -18.0592 70.4352 11.4843 -15.7163 
-59.9026 20.1734 -13.8815 -51.2134 20.1734 -17.9313 -42.5242 20.1734 -20.1207 
-33.835 20.1734 -19.4587 -25.1458 20.1734 -18.3042 -16.4566 20.1734 -17.1606 
-7.76746 20.1734 -16.1746 0.921728 20.1734 -16.4303 9.61092 20.1734 -15.3421 
18.3001 20.1734 -16.0199 26.9893 20.1734 -17.6971 35.6785 20.1734 -18.399 
44.3677 20.1734 -18.6938 53.0569 20.1734 -18.2437 61.7461 20.1734 -16.2483 
70.4352 20.1734 -13.5761 -51.2134 28.8626 -15.5567 -42.5242 28.8626 -17.9359 
-33.835 28.8626 -18.9587 -25.1458 28.8626 -17.837 -16.4566 28.8626 -17.3586 
-7.76746 28.8626 -16.2809 0.921728 28.8626 -14.4984 9.61092 28.8626 -13.0807 
18.3001 28.8626 -14.316 26.9893 28.8626 -16.0912 35.6785 28.8626 -16.5983 
44.3677 28.8626 -17.0376 53.0569 28.8626 -15.8541 61.7461 28.8626 -13.8241 
-33.835 37.5518 -14.1016 -25.1458 37.5518 -14.4734 -16.4566 37.5518 -13.6845 
0.921728 -41.3582 -12.9208 0.921728 -49.3401 -4.27732 9.61092 -41.9979 -12.9208 
18.3001 -44.2613 -12.9208 26.9893 -43.8919 -12.9208 35.6785 -42.2622 -12.9208 
44.3677 -41.3858 -12.9208 -42.5242 -40.6509 -6.28117 -33.835 -40.6509 -7.59537 
-25.1458 -40.6509 -8.97296 -16.4566 -32.2218 -12.9208 -16.4566 -40.6509 -9.4455 
-6.79983 -40.6509 -12.9208 -7.76746 -40.4227 -12.9208 -7.76746 -40.6509 -12.8596 
45.9002 -40.6509 -12.9208 53.0569 -34.0012 -12.9208 -59.9026 -31.9617 -7.03775 
-51.2134 -31.9617 -9.87012 -42.5242 -31.7003 -12.9208 -42.5242 -31.9617 -12.8931 
-33.835 -24.434 -12.9208 -33.835 -31.9617 -10.8933 -17.1355 -31.9617 -12.9208 
-25.1458 -25.0013 -12.9208 -25.1458 -31.9617 -11.772 57.079 -31.9617 -12.9208 
61.7461 -27.4516 -12.9208 61.7461 -31.9617 -10.32 -68.5918 -23.2725 -6.51527 
-59.9026 -21.0901 -12.9208 -59.9026 -23.2725 -11.7763 -46.6732 -23.2725 -12.9208 
-51.2134 -20.7786 -12.9208 -51.2134 -23.2725 -12.3298 65.7892 -23.2725 -12.9208 
70.4352 -20.207 -12.9208 70.4352 -23.2725 -10.7166 -63.926 -14.5833 -12.9208 
-68.5918 -14.5833 -10.1982 73.0351 -14.5833 -12.9208 -63.1274 -5.89413 -12.9208 
-68.5918 -5.89413 -10.791 75.3802 -5.89413 -12.9208 79.1244 -5.89413 -8.09239 
-68.1049 2.79506 -12.9208 -68.5918 2.79506 -12.6952 75.3237 2.79506 -12.9208 
79.1244 2.79506 -8.15281 -64.6561 11.4843 -12.9208 -68.5918 11.4843 -11.0681 
74.3213 11.4843 -12.9208 79.1244 11.4843 -6.18334 -61.5136 20.1734 -12.9208 
-68.5918 20.1734 -7.01265 -59.9026 23.489 -12.9208 71.3087 20.1734 -12.9208 
70.4352 21.4721 -12.9208 -56.7086 28.8626 -12.9208 -59.9026 28.8626 -10.4735 
-51.2134 32.8013 -12.9208 -42.5242 37.1097 -12.9208 -7.76746 35.8255 -12.9208 
0.921728 32.0759 -12.9208 9.61092 29.1441 -12.9208 18.3001 31.5174 -12.9208 
26.9893 33.4187 -12.9208 35.6785 35.1046 -12.9208 44.3677 35.5786 -12.9208 
53.0569 33.9922 -12.9208 63.2963 28.8626 -12.9208 61.7461 30.3388 -12.9208 
70.4352 28.8626 -4.32836 -51.2134 37.5518 -6.63326 -40.5758 37.5518 -12.9208 
-42.5242 37.5518 -12.4362 -33.835 38.7877 -12.9208 -25.1458 39.2572 -12.9208 
-12.551 37.5518 -12.9208 -16.4566 38.4568 -12.9208 -7.76746 37.5518 -11.7535 
0.921728 37.5518 -8.82081 9.61092 37.5518 -5.91473 18.3001 37.5518 -6.75943 
26.9893 37.5518 -8.96066 35.6785 37.5518 -10.8056 44.3677 37.5518 -10.7899 
53.0569 37.5518 -9.12419 0.921728 -49.3635 -4.23157 -42.5242 -42.7513 -4.23157 
-33.835 -43.7739 -4.23157 -25.1458 -44.1006 -4.23157 -16.4566 -47.2874 -4.23157 
0.577062 -49.3401 -4.23157 -7.76746 -48.683 -4.23157 1.12227 -49.3401 -4.23157 
0.921728 -49.3401 -4.14845 9.61092 -48.3471 -4.23157 18.3001 -47.1407 -4.23157 
26.9893 -46.0459 -4.23157 35.6785 -44.7589 -4.23157 44.3677 -42.5275 -4.23157 
-59.9026 -35.6205 -4.23157 -48.4641 -40.6509 -4.23157 -51.2134 -39.0966 -4.23157 
-51.2134 -40.6509 -0.91075 35.6785 -40.6509 3.99255 49.5831 -40.6509 -4.23157 
44.3677 -40.6509 -0.531716 53.0569 -39.3386 -4.23157 61.7461 -35.155 -4.23157 
-64.6502 -31.9617 -4.23157 -68.5918 -27.5442 -4.23157 65.8339 -31.9617 -4.23157 
61.7461 -31.9617 4.27627 70.4352 -27.9921 -4.23157 -71.2932 -23.2725 -4.23157 
74.7234 -23.2725 -4.23157 -75.0545 -14.5833 -4.23157 79.0726 -14.5833 -4.23157 
79.1244 -14.4649 -4.23157 -75.3984 -5.89413 -4.23157 -77.281 -5.89413 4.19316 
81.6287 -5.89413 -4.23157 -75.2021 2.79506 -4.23157 81.7997 2.79506 -4.23157 
-74.1792 11.4843 -4.23157 80.4643 11.4843 -4.23157 79.1244 14.6868 -4.23157 
79.1244 11.4843 1.11775 -70.4229 20.1734 -4.23157 -68.5918 23.5457 -4.23157 
76.8289 20.1734 -4.23157 -64.7601 28.8626 -4.23157 -59.9026 33.4283 -4.23157 
61.7461 36.6306 -4.23157 70.5036 28.8626 -4.23157 70.4352 28.9346 -4.23157 
70.4352 28.8626 -4.00977 -53.4379 37.5518 -4.23157 -51.2134 38.7029 -4.23157 
-42.5242 43.11 -4.23157 -33.835 44 -4.23157 -25.1458 44.4647 -4.23157 
-16.4566 44.4075 -4.23157 -7.76746 43.1493 -4.23157 0.921728 40.9384 -4.23157 
9.61092 38.7668 -4.23157 18.3001 38.9105 -4.23157 26.9893 40.5972 -4.23157 
35.6785 41.9047 -4.23157 44.3677 41.511 -4.23157 59.5774 37.5518 -4.23157 
53.0569 39.8554 -4.23157 -25.1458 46.241 3.47073 -16.4566 46.241 2.02576 
-51.2134 -42.1428 4.45762 -42.5242 -44.4797 4.45762 -33.835 -45.5615 4.45762 
-25.1458 -46.1414 4.45762 -16.4566 -46.9764 4.45762 -7.76746 -47.0776 4.45762 
0.921728 -45.7668 4.45762 9.61092 -43.1816 4.45762 18.3001 -41.0797 4.45762 
26.9893 -41.2812 4.45762 -56.3344 -40.6509 4.45762 -59.9026 -39.3344 4.45762 
-51.2134 -40.6509 6.95274 -42.5242 -40.6509 11.3123 -33.835 -40.6509 10.0125 
-25.1458 -40.6509 10.6264 -16.4566 -40.6509 10.6245 -7.76746 -40.6509 9.91597 
0.921728 -40.6509 8.3269 9.61092 -40.6509 6.47056 18.3001 -40.6509 4.8744 
33.1211 -40.6509 4.45762 26.9893 -40.6509 5.08953 35.6785 -40.2325 4.45762 
44.3677 -36.9529 4.45762 53.0569 -35.4221 4.45762 -68.0981 -31.9617 4.45762 
-68.5918 -31.3954 4.45762 -59.9026 -31.9617 12.1191 -51.2134 -31.9617 12.7886 
-7.76746 -31.9617 13.0931 0.921728 -31.9617 11.7946 9.61092 -31.9617 11.0308 
18.3001 -31.9617 10.6794 26.9893 -31.9617 10.0933 35.6785 -31.9617 9.60114 
44.3677 -31.9617 9.17665 61.5825 -31.9617 4.45762 53.0569 -31.9617 7.62077 
61.7461 -31.8219 4.45762 70.4352 -23.5395 4.45762 -73.7919 -23.2725 4.45762 
-68.5918 -23.2725 10.9143 18.3001 -23.2725 13.0411 26.9893 -23.2725 12.9146 
44.3677 -23.2725 12.9953 53.0569 -23.2725 11.4704 61.7461 -23.2725 9.02971 
70.6916 -23.2725 4.45762 70.4352 -23.2725 4.65691 -76.5457 -14.5833 4.45762 
-77.281 -6.38521 4.45762 76.4681 -14.5833 4.45762 70.4352 -14.5833 9.34705 
79.1244 -7.08306 4.45762 -77.3182 -5.89413 4.45762 -77.281 -5.48895 4.45762 
-77.281 -5.89413 4.51854 18.3001 -5.89413 13.0515 70.4352 -5.89413 11.4082 
79.479 -5.89413 4.45762 79.1244 -5.89413 4.81726 -76.3133 2.79506 4.45762 
70.4352 2.79506 11.7139 79.6917 2.79506 4.45762 79.1244 6.40709 4.45762 
79.1244 2.79506 5.03274 -74.5259 11.4843 4.45762 -68.5918 11.4843 12.964 
77.7433 11.4843 4.45762 70.4352 11.4843 10.1925 -70.5167 20.1734 4.45762 
-68.5918 23.5337 4.45762 -68.5918 20.1734 7.46325 74.434 20.1734 4.45762 
70.4352 25.7612 4.45762 70.4352 20.1734 7.97362 -64.7889 28.8626 4.45762 
-59.9026 33.6973 4.45762 -59.9026 28.8626 11.7724 53.0569 28.8626 11.8108 
67.8676 28.8626 4.45762 61.7461 34.6188 4.45762 61.7461 28.8626 9.21018 
-54.7135 37.5518 4.45762 -51.2134 39.6109 4.45762 -51.2134 37.5518 10.0595 
-42.5242 44.1536 4.45762 -33.835 45.6044 4.45762 -7.76746 45.8255 4.45762 
0.921728 44.1382 4.45762 9.61092 41.6475 4.45762 9.61092 37.5518 12.9289 
18.3001 40.0611 4.45762 18.3001 37.5518 9.59897 26.9893 40.26 4.45762 
[...]
POINT_DATA 560
SCALARS ImageScalars float
LOOKUP_TABLE default
0 0 0 0 0 0 0 0 0 
0 0 0 0 0 0 0 0 0 
0 0 0 0 0 0 0 0 0 
0 0 0 0 0 0 0 0 0 
0 0 0 0 0 0 0 0 0 
0 0 0 0 0 0 0 0 0 
0 0 0 0 0 0 0 0 0 
0 0 0 0 0 0 0 0 0 
0 0 0 0 0 0 0 0 0 
0 0 0 0 0 0 0 0 0 
0 0 0 0 0 0 0 0 0 
0 0 0 0 0 0 0 0 0 
0 0 0 0 0 0 0 0 0 
0 0 0 0 0 0 0 0 0 
0 0 0 0 0 0 0 0 0 
0 0 0 0 0 0 0 0 0 
0 0 0 0 0 0 0 0 0 
0 0 0 0 0 0 0 0 0 
0 0 0 0 0 0 0 0 0 
0 0 0 0 0 0 0 0 0 
0 0 0 0 0 0 0 0 0 
0 0 0 0 0 0 0 0 0 
0 0 0 0 0 0 0 0 0 
0 0 0 0 0 0 0 0 0 
0 0 0 0 0 0 0 0 0 
0 0 0 0 0 0 0 0 0 
0 0 0 0 0 0 0 0 0 
0 0 0 0 0 0 0 0 0 
0 0 0 0 0 0 0 0 0 
0 0 0 0 0 0 0 0 0 
0 0 0 0 0 0 0 0 0 
0 0 0 0 0 0 0 0 0 
0 0 0 0 0 0 0 0 0 
0 0 0 0 0 0 0 0 0 
0 0 0 0 0 0 0 0 0 
0 0 0 0 0 0 0 0 0 
0 0 0 0 0 0 0 0 0 
0 0 0 0 0 0 0 0 0 
0 0 0 0 0 0 0 0 0 
0 0 0 0 0 0 0 0 0 
0 0 0 0 0 0 0 0 0 
0 0 0 0 0 0 0 0 0 
0 0 0 0 0 0 0 0 0 
0 0 0 0 0 0 0 0 0 
0 0 0 0 0 0 0 0 0 
0 0 0 0 0 0 0 0 0 
0 0 0 0 0 0 0 0 0 
0 0 0 0 0 0 0 0 0 
0 0 0 0 0 0 0 0 0 
0 0 0 0 0 0 0 0 0 
0 0 0 0 0 0 0 0 0 
0 0 0 0 0 0 0 0 0 
0 0 0 0 0 0 0 0 0 
0 0 0 0 0 0 0 0 0 
0 0 0 0 0 0 0 0 0 
0 0 0 0 0 0 0 0 0 
0 0 0 0 0 0 0 0 0 
0 0 0 0 0 0 0 0 0 
0 0 0 0 0 0 0 0 0 
0 0 0 0 0 0 0 0 0 
0 0 0 0 0 0 0 0 0 
0 0 0 0 0 0 0 0 0 
0 0 
NORMALS Normals float
0.017904 -0.0301811 -0.999384 -0.0553921 -0.41311 -0.908995 -0.16092 -0.468636 -0.868611 
-0.0790445 -0.491074 -0.867524 0.066939 -0.551656 -0.831382 0.118605 -0.678798 -0.724683 
0.298845 -0.73921 -0.60354 -0.162449 -0.213296 -0.963387 -0.140191 -0.158615 -0.977337 
-0.0996494 -0.122785 -0.987418 -0.118765 -0.125216 -0.984995 -0.081871 -0.11104 -0.990438 
-0.0353008 -0.17268 -0.984345 0.102088 -0.170839 -0.979996 0.183051 -0.212254 -0.959917 
0.333935 -0.511213 -0.791927 -0.0560821 -0.123735 -0.990729 0.0200244 -0.198376 -0.979921 
-0.0369342 -0.105435 -0.99374 -0.142983 -0.0497035 -0.988476 -0.106019 -0.0936148 -0.989948 
-0.0531716 0.0229496 -0.998322 -0.117759 -0.0351032 -0.992422 -0.111736 0.0651987 -0.991597 
-0.0374483 0.057382 -0.99765 0.0512242 0.0169547 -0.998543 0.0114816 -0.153418 -0.988095 
0.19192 -0.162622 -0.967843 0.325887 -0.267016 -0.906918 -0.212083 -0.0674618 -0.97492 
0.00488896 -0.259016 -0.965861 -0.00144704 -0.1619 -0.986806 0.0643304 -0.157702 -0.985389 
0.0457593 -0.0684919 -0.996602 -0.166879 -0.0250943 -0.985658 -0.0593699 -0.0622162 -0.996295 
-0.0256873 0.00718145 -0.999644 0.0125768 -0.0513993 -0.998599 -0.0718522 -0.201614 -0.976826 
0.0117873 0.106282 -0.994266 -0.0914115 0.128424 -0.987497 -0.122591 0.0307947 -0.991979 
0.00202509 -0.0770768 -0.997023 0.132701 -0.0179603 -0.990993 0.239412 -0.251963 -0.937655 
0.435902 -0.22554 -0.871276 -0.268514 -0.00676021 -0.963252 -0.136147 -0.134448 -0.981523 
0.0320175 -0.204455 -0.978352 0.110717 -0.18355 -0.976755 0.0947027 -0.185966 -0.977982 
-0.139055 -0.0861658 -0.986529 -0.0868231 -0.0682796 -0.993881 -0.00259609 -0.0366314 -0.999325 
-0.166449 -0.0418337 -0.985162 0.0380664 -0.0240149 -0.998987 0.0283822 0.0070644 -0.999572 
0.176428 0.0372954 -0.983607 -0.107613 0.000738723 -0.994193 -0.157172 -0.00972263 -0.987523 
-0.0400726 -0.0109633 -0.999137 0.0221996 -0.0428164 -0.998836 0.199654 -0.117454 -0.972802 
0.387664 -0.0953759 -0.916853 -0.305574 -0.0763089 -0.949106 -0.149304 -0.102825 -0.98343 
-0.0373074 -0.149242 -0.988097 0.0834019 -0.196067 -0.977037 0.14729 -0.195015 -0.969678 
-0.0064448 -0.0655255 -0.99783 -0.0990858 0.0755591 -0.992206 -0.000606816 -0.270127 -0.962824 
0.0443448 0.324188 -0.944953 0.0155576 -0.0076707 -0.99985 -0.138169 -0.0719977 -0.987788 
-0.135487 -0.0575837 -0.989104 -0.0308167 -0.0260112 -0.999187 0.0338775 0.00418182 -0.999417 
0.209094 0.0350832 -0.977266 0.395927 0.0263695 -0.917903 -0.347783 0.0790999 -0.934232 
-0.204318 -0.0368884 -0.978209 -0.0626957 -0.101537 -0.992854 0.0634643 -0.0886793 -0.994036 
0.213107 -0.0805789 -0.9737 0.184972 -0.110102 -0.976557 -0.233559 0.0401622 -0.971513 
0.0947046 0.054406 -0.994018 0.176775 0.0931851 -0.97983 -0.14817 -0.0132817 -0.988873 
-0.164613 -0.0422888 -0.985451 -0.112289 -0.0131065 -0.993589 0.0218567 0.0369735 -0.999077 
0.0801575 0.0287911 -0.996366 0.212371 0.138656 -0.967302 0.424535 0.176919 -0.887958 
-0.49978 0.182609 -0.846684 -0.293723 0.126696 -0.947457 -0.102322 0.0764419 -0.99181 
0.101382 0.0238913 -0.994561 0.138719 0.0113719 -0.990266 0.122466 -0.097062 -0.987715 
0.0427828 -0.0638349 -0.997043 0.0508062 0.267862 -0.962117 0.0217468 0.0990642 -0.994843 
-0.13428 0.0933235 -0.986539 -0.136804 0.0726382 -0.987931 -0.0561087 0.121953 -0.990949 
0.0129822 0.150109 -0.988584 0.114993 0.121108 -0.985956 0.322662 0.243353 -0.914696 
0.480423 0.378315 -0.791246 -0.349295 0.414383 -0.840404 -0.161308 0.341924 -0.92578 
0.002209 0.272071 -0.962275 0.0843115 0.193087 -0.977553 0.0867268 0.168475 -0.981883 
0.158688 0.194329 -0.968016 0.176452 0.339364 -0.923957 0.00736399 0.401668 -0.915756 
-0.154913 0.343905 -0.926138 -0.136866 0.395767 -0.908095 -0.0543579 0.329083 -0.942735 
0.0328142 0.339794 -0.939927 0.20788 0.436207 -0.875506 0.378523 0.403391 -0.833065 
-0.0884627 0.654584 -0.750796 0.0218691 0.595936 -0.802734 0.127629 0.58547 -0.800585 
-0.0486044 -0.446765 -0.89333 0.0252745 -0.992077 -0.123066 -0.146777 -0.54216 -0.827356 
-0.0688267 -0.749214 -0.658742 0.102302 -0.764257 -0.636746 0.15146 -0.783208 -0.60303 
0.291594 -0.782579 -0.55004 -0.16384 -0.725873 -0.668031 -0.134927 -0.649887 -0.747958 
-0.10883 -0.634209 -0.765464 -0.161261 -0.219099 -0.962284 -0.207926 -0.543012 -0.813575 
-0.173926 -0.385388 -0.906215 -0.187746 -0.375099 -0.907773 -0.189569 -0.383831 -0.903735 
0.327972 -0.752935 -0.570546 0.383103 -0.557899 -0.736193 -0.340666 -0.521529 -0.782275 
-0.347822 -0.398074 -0.848856 -0.0183352 -0.37308 -0.927618 -0.0175208 -0.380622 -0.924565 
0.0243786 -0.211322 -0.977112 0.0355805 -0.335509 -0.941365 -0.158594 -0.208125 -0.965159 
-0.0521963 -0.11074 -0.992478 -0.126026 -0.173412 -0.976753 0.39967 -0.506968 -0.763706 
0.405879 -0.379049 -0.831615 0.529004 -0.627349 -0.571479 -0.568958 -0.417253 -0.708651 
-0.325187 -0.406345 -0.853895 -0.361649 -0.502904 -0.785046 -0.0677799 -0.162131 -0.984439 
-0.0475661 -0.225857 -0.972999 -0.0861761 -0.219167 -0.971874 0.475802 -0.406696 -0.779879 
0.559431 -0.472759 -0.680835 0.663736 -0.579701 -0.472653 -0.330459 -0.179022 -0.926687 
-0.522514 -0.248088 -0.81574 0.564064 -0.319477 -0.761424 -0.394221 -0.0504418 -0.91763 
-0.671195 -0.119984 -0.731506 0.622219 -0.117616 -0.773957 0.892146 -0.153671 -0.424807 
-0.523826 0.00311411 -0.851819 -0.542969 0.00461196 -0.83974 0.627427 0.0554329 -0.7767 
0.890487 0.0778026 -0.448307 -0.524424 0.147227 -0.838632 -0.692563 0.206222 -0.691252 
0.636412 0.218533 -0.739745 0.898408 0.303524 -0.31739 -0.556901 0.210305 -0.803513 
-0.798599 0.443772 -0.406578 -0.536363 0.282517 -0.795298 0.52108 0.386244 -0.761112 
0.500173 0.424295 -0.754851 -0.484689 0.457516 -0.74549 -0.598906 0.519357 -0.609574 
-0.384438 0.590254 -0.709794 -0.214004 0.678741 -0.702505 0.190991 0.536236 -0.822176 
0.195825 0.45824 -0.866988 0.00789308 0.411937 -0.911178 -0.143598 0.456058 -0.878288 
-0.116364 0.580106 -0.806186 -0.0850187 0.610627 -0.787341 0.0294925 0.659271 -0.751327 
0.203745 0.605772 -0.769108 0.418993 0.457048 -0.784571 0.405271 0.490527 -0.771452 
0.716639 0.68123 -0.149513 -0.426374 0.835412 -0.346831 -0.188473 0.688982 -0.699844 
-0.220694 0.704418 -0.674604 -0.0904077 0.701695 -0.706718 0.0121779 0.681362 -0.731845 
0.160883 0.602566 -0.781685 0.126126 0.626532 -0.769123 0.196087 0.638752 -0.744006 
0.2351 0.719723 -0.653243 0.0836844 0.82708 -0.55582 -0.118424 0.882629 -0.454909 
-0.141593 0.824222 -0.548279 -0.0769837 0.777424 -0.624249 0.0458617 0.796475 -0.60293 
0.248192 0.838152 -0.485698 0.0255636 -0.992443 -0.120012 -0.230372 -0.782111 -0.578991 
-0.075823 -0.869996 -0.487193 -0.16874 -0.862714 -0.476708 -0.234896 -0.907477 -0.348296 
0.0213163 -0.992198 -0.122834 -0.0954244 -0.975319 -0.199118 0.027928 -0.992668 -0.117601 
0.0267137 -0.993087 -0.114302 0.123917 -0.992172 -0.0154742 0.135645 -0.985489 0.102037 
0.138217 -0.979976 0.14333 0.209398 -0.970455 0.119872 0.298324 -0.943745 0.142644 
-0.457833 -0.656507 -0.599489 -0.33621 -0.82974 -0.445528 -0.354567 -0.837784 -0.415212 
-0.361543 -0.920942 -0.145439 0.178526 -0.731416 0.658148 0.345035 -0.931179 0.117713 
0.303797 -0.867649 0.393563 0.382673 -0.92271 0.0465688 0.553841 -0.828019 -0.0874391 
-0.580902 -0.638225 -0.505194 -0.653445 -0.578638 -0.488045 0.625137 -0.777968 -0.0629985 
0.539292 -0.5525 0.635537 0.724274 -0.685522 -0.074067 -0.687141 -0.477537 -0.547536 
0.837589 -0.533222 -0.11882 -0.924886 -0.196872 -0.325311 0.890589 -0.40541 -0.206139 
0.892135 -0.401915 -0.206301 -0.854708 -0.011731 -0.518977 -0.973109 0.00726756 0.230232 
0.976114 -0.152453 -0.154789 -0.909073 0.072768 -0.410232 0.983354 0.0663033 -0.169172 
-0.90303 0.230997 -0.362185 0.930091 0.308075 -0.200054 0.910107 0.360278 -0.204705 
0.929035 0.335409 0.156189 -0.83783 0.463172 -0.288986 -0.802234 0.528669 -0.277361 
0.888083 0.428612 -0.166134 -0.731137 0.630845 -0.259757 -0.64939 0.713835 -0.262168 
0.481278 0.864472 -0.145122 0.718341 0.68074 -0.143455 0.717375 0.681575 -0.144324 
0.719626 0.681225 -0.134431 -0.48081 0.839984 -0.251494 -0.42846 0.867934 -0.251221 
-0.267738 0.918185 -0.291981 -0.0690726 0.942533 -0.326896 -0.0224659 0.935569 -0.352428 
0.0695798 0.917947 -0.390555 0.175037 0.887547 -0.426171 0.236636 0.848143 -0.473981 
0.101822 0.868961 -0.484292 -0.10591 0.943362 -0.314408 -0.169386 0.949887 -0.262722 
-0.0550665 0.976703 -0.207411 0.1152 0.972019 -0.204713 0.425441 0.894179 -0.139441 
0.276656 0.950571 -0.140983 -0.0668871 0.992817 -0.0992 0.0456592 0.986762 -0.155617 
-0.299001 -0.942226 0.151024 -0.20168 -0.966925 0.156146 -0.103805 -0.966637 0.234176 
-0.0783022 -0.967915 0.238767 -0.0526636 -0.922507 0.382371 0.0521063 -0.877964 0.475883 
0.169883 -0.753368 0.635276 0.193938 -0.64604 0.738255 0.0745857 -0.681747 0.727776 
0.037131 -0.713966 0.699195 -0.410993 -0.898715 0.152956 -0.492472 -0.855983 0.157367 
-0.328031 -0.892217 0.310392 -0.0896015 -0.652213 0.752722 0.018145 -0.689428 0.724127 
-0.0349329 -0.642002 0.765907 0.0440719 -0.601851 0.797391 0.13115 -0.530237 0.837645 
0.183039 -0.524741 0.83135 0.163825 -0.576389 0.800586 0.0697444 -0.665778 0.742883 
0.13256 -0.709782 0.691836 0.0360623 -0.68812 0.7247 0.171704 -0.702795 0.69036 
0.192959 -0.690836 0.696787 0.188347 -0.781765 0.594449 -0.71225 -0.678645 0.179276 
-0.72713 -0.662287 0.180718 -0.390572 -0.517556 0.761307 -0.14108 -0.42452 0.894359 
0.119267 -0.225048 0.967021 0.116229 -0.27711 0.953782 0.0612041 -0.372915 0.925845 
0.0500838 -0.3815 0.923011 0.0555606 -0.411456 0.909734 0.0433864 -0.48592 0.872926 
0.107209 -0.575316 0.810874 0.528571 -0.547065 0.649102 0.23957 -0.582872 0.776445 
0.533285 -0.542806 0.648821 0.52378 -0.587465 0.616879 -0.895688 -0.39362 0.206895 
-0.630669 -0.440557 0.638879 0.0363553 -0.137644 0.989814 -0.0299834 -0.21039 0.977158 
0.114704 -0.303433 0.945924 0.197407 -0.353381 0.914414 0.387117 -0.506171 0.770669 
0.530503 -0.58089 0.61736 0.519845 -0.578893 0.628207 -0.949744 -0.194877 0.244968 
-0.968114 -0.00332615 0.250489 0.814705 -0.360922 0.453862 0.521414 -0.345045 0.78043 
0.779578 -0.193353 0.595712 -0.968134 0.00857372 0.250288 -0.967613 0.0161555 0.251919 
-0.967134 0.00842618 0.254127 0.065973 -0.0674237 0.995541 0.619365 -0.1549 0.769671 
0.772648 -0.160048 0.614329 0.755533 -0.152464 0.637122 -0.95073 0.163633 0.263319 
0.614496 0.0614679 0.786522 0.788432 0.0640562 0.611778 0.817218 0.166431 0.551775 
0.759893 0.0493269 0.648173 -0.919721 0.278438 0.27674 -0.56999 0.255687 0.780855 
0.850141 0.287094 0.441404 0.500054 0.234386 0.833672 -0.825821 0.492655 0.274427 
-0.794678 0.543487 0.270387 -0.761487 0.472702 0.443498 0.766364 0.398731 0.503687 
0.731402 0.544511 0.41056 0.607718 0.273778 0.74547 -0.745852 0.619556 0.244653 
-0.660078 0.720181 0.213629 -0.614327 0.478502 0.627406 0.25563 0.409544 0.875744 
0.688215 0.623975 0.370158 0.471532 0.739896 0.479803 0.341818 0.563309 0.752226 
-0.550594 0.821501 0.148265 -0.49312 0.863024 0.109647 -0.525559 0.755018 0.392091 
-0.309702 0.946448 0.091223 -0.125204 0.991739 -0.027898 0.150485 0.986071 -0.0708436 
0.249181 0.96815 -0.0243793 0.224161 0.973596 0.0431643 0.269019 0.688909 0.673077 
0.0781009 0.984903 0.154487 0.124768 0.861338 0.492473 -0.0429594 0.955913 0.290491 
0.0259039 0.84598 0.532585 -0.0238251 0.922101 0.386215 -0.0186741 0.785084 0.619107 
0.138154 0.919985 0.366799 0.138563 0.737771 0.660677 0.359058 0.820761 0.44433 
0.322383 0.836291 0.443494 0.332875 0.809022 0.484436 -0.0840098 0.994607 -0.0608221 
-0.0721683 0.994912 -0.0703012 -0.0730442 0.994819 0.070714 0.104147 0.99173 -0.0749996 
0.0336427 0.996547 -0.0759129 0.0575018 0.974636 0.216284 -0.0698238 -0.461426 0.884427 
0.0441978 -0.372471 0.926991 0.00105035 -0.307585 0.95152 0.058938 -0.280804 0.957954 
-0.311439 -0.269237 0.911327 -0.12989 -0.391303 0.911049 -0.139515 -0.400743 0.905506 
-0.0720998 -0.295871 0.952503 0.0492269 -0.305811 0.950819 0.0135763 -0.206673 0.978316 
0.115093 -0.223198 0.967955 0.0573331 -0.19628 0.97887 0.116798 -0.219201 0.968664 
0.034335 -0.17227 0.984451 0.0193151 -0.226324 0.973861 -0.00300999 -0.292192 0.956355 
-0.332572 -0.230035 0.914593 -0.505315 -0.288236 0.813374 -0.290308 -0.188352 0.938214 
-0.143449 -0.249662 0.957649 0.0557553 -0.146565 0.987629 0.0754639 -0.150105 0.985786 
0.101853 -0.0977019 0.98999 0.0511432 -0.0062159 0.998672 0.0765641 -0.134729 0.98792 
0.0279477 -0.165241 0.985857 0.0313691 -0.1498 0.988219 0.0125477 -0.199168 0.979885 
0.0378485 -0.0933347 0.994915 -0.0216665 -0.229066 0.97317 -0.0425542 -0.188634 0.981125 
0.0836964 -0.292214 0.952684 -0.00460539 -0.265536 0.96409 0.110856 -0.293524 0.949502 
0.114612 -0.299643 0.947142 0.294109 -0.307546 0.904939 -0.532495 -0.192571 0.824236 
-0.468879 -0.160741 0.868513 -0.214837 -0.232301 0.948621 -0.081354 -0.0421696 0.995793 
0.0272344 -0.133549 0.990668 0.120505 -0.112237 0.986347 0.165324 -0.11656 0.979327 
0.0202427 -0.0662933 0.997595 -0.059182 -0.359899 0.931112 0.0584354 -0.182785 0.981415 
0.0841349 -0.161749 0.983239 0.058541 -0.0470197 0.997177 0.040878 -0.00197375 0.999162 
-0.0826642 -0.113276 0.990119 -0.0975604 -0.116116 0.988433 0.0326066 -0.158534 0.986815 
0.0883822 -0.270037 0.958785 0.308903 -0.254621 0.916377 0.253099 -0.202315 0.946049 
-0.578018 -0.0174539 0.815837 -0.483995 -0.0239674 0.874742 -0.276436 -0.103428 0.955451 
-0.0379157 -0.102465 0.994014 -0.00946805 -0.10363 0.994571 0.0902859 -0.170093 0.981283 
0.0878069 -0.198102 0.97624 -0.212262 -0.341254 0.915691 0.11795 -0.182815 0.976046 
0.180116 -0.214823 0.959901 0.0706656 -0.0696009 0.995069 0.197869 -0.181907 0.963202 
0.0554062 -0.0675511 0.996176 0.0681235 -0.076568 0.994734 -0.133912 -0.0695327 0.988551 
-0.0636806 -0.072655 0.995322 -0.0462492 -0.0545873 0.997437 0.125151 -0.131405 0.983397 
0.336883 -0.0500993 0.940213 0.206357 0.00747623 0.978448 -0.618347 0.125593 0.775805 
-0.563828 0.245917 0.78843 -0.544354 0.1035 0.832446 -0.285924 0.0493544 0.95698 
-0.0853984 -0.0632588 0.994337 -0.0360178 -0.102572 0.994073 0.0305613 -0.118872 0.992439 
0.0321722 -0.143027 0.989196 0.00314307 0.00164779 0.999994 -0.0172606 0.161056 0.986794 
0.100732 -0.336928 0.936126 0.282884 -0.0345827 0.958531 0.104836 -0.19372 0.975439 
-0.0931608 -0.080777 0.992369 -0.0762606 -0.0642515 0.995016 -0.0242273 -0.0220357 0.999464 
0.133691 0.016626 0.990884 0.419534 0.0416702 0.906783 0.224704 0.018248 0.974256 
-0.556126 0.252372 0.791854 -0.384254 0.174221 0.90664 -0.180468 0.0424871 0.982663 
-0.0669786 -0.0435642 0.996803 0.0448901 -0.112459 0.992642 0.171657 -0.102939 0.979764 
0.121899 -0.0453982 0.991504 -0.236471 -0.000878505 0.971638 0.0222485 0.0469776 0.998648 
0.281688 -0.0690983 0.957015 0.0723418 -0.185292 0.980017 -0.00344432 -0.112483 0.993648 
-0.00425417 -0.0797973 0.996802 0.0337193 0.0472776 0.998312 0.165365 0.104554 0.980675 
0.273825 0.0386368 0.961003 0.259722 0.0115524 0.965614 -0.538966 0.274022 0.796509 
-0.559849 0.366512 0.743127 -0.497899 0.234744 0.83486 -0.310112 0.112086 0.944069 
-0.178422 0.0366488 0.983271 -0.0348454 -0.0251427 0.999076 0.108507 -0.0917428 0.989853 
0.111499 -0.19518 0.974409 0.028406 -0.146027 0.988873 0.0234226 0.143373 0.989392 
0.0917767 0.0145397 0.995673 0.0850574 0.00806536 0.996343 0.0110905 0.0192905 0.999752 
0.0856075 0.100436 0.991254 0.152025 0.115513 0.981603 0.186784 0.316262 0.930102 
0.11657 0.232166 0.965666 0.371572 0.211947 0.903888 0.324496 0.279941 0.903513 
0.339846 0.211884 0.916302 -0.561027 0.431416 0.706491 -0.505883 0.608458 0.611442 
-0.399199 0.304847 0.864701 -0.195564 0.238475 0.951254 -0.0845457 0.109293 0.990408 
-0.00412545 0.0652637 0.99786 0.0511753 -0.004816 0.998678 0.125439 0.0233205 0.991827 
0.166215 0.167625 0.971738 0.266836 0.670213 0.692541 0.138934 0.277485 0.950631 
0.133094 0.597671 0.790617 0.0871796 0.331636 0.939371 0.0802837 0.5485 0.832287 
0.0849051 0.341841 0.935915 0.0631486 0.492887 0.867799 0.0902241 0.388947 0.916831 
0.209515 0.34275 0.915765 0.164498 0.394333 0.904125 0.174124 0.315682 0.932752 
-0.482904 0.657314 0.578569 -0.394301 0.71333 0.579385 -0.369087 0.562963 0.739491 
-0.230171 0.866893 0.442173 -0.210368 0.46479 0.860067 -0.070712 0.912308 0.403354 
-0.0100423 0.367658 0.929907 0.0719526 0.904116 0.421186 0.0767675 0.358293 0.930448 
0.230235 0.831912 0.504891 0.210257 0.431024 0.877502 0.27089 0.67547 0.685827 
0.319599 0.726806 0.607955 0.293096 0.540231 0.788825 
