# vtk DataFile Version 4.2
vtk output
ASCII
DATASET POLYDATA
POINTS 496 float
21.9401 17.5129 -23.6411 8.02508 -24.232 -17.449 14.9826 -24.232 -18.3618 
21.9401 -24.232 -18.7299 28.8975 -24.232 -17.1728 -5.8899 -17.2745 -16.5857 
1.06759 -17.2745 -17.0841 8.02508 -17.2745 -18.0072 14.9826 -17.2745 -19.2955 
21.9401 -17.2745 -19.4102 28.8975 -17.2745 -19.4262 35.855 -17.2745 -17.6592 
-33.7198 -10.317 -16.5052 -26.7624 -10.317 -17.5692 -19.8049 -10.317 -17.5438 
-12.8474 -10.317 -17.1929 -5.8899 -10.317 -17.2581 1.06759 -10.317 -17.3952 
8.02508 -10.317 -17.5616 14.9826 -10.317 -18.7788 21.9401 -10.317 -20.0038 
28.8975 -10.317 -20.9306 35.855 -10.317 -19.8635 42.8125 -10.317 -16.6594 
-33.7198 -3.35952 -17.483 -26.7624 -3.35952 -18.2109 -19.8049 -3.35952 -17.3709 
-12.8474 -3.35952 -17.2655 -5.8899 -3.35952 -18.5388 1.06759 -3.35952 -19.4241 
8.02508 -3.35952 -18.9096 14.9826 -3.35952 -19.1744 21.9401 -3.35952 -20.6431 
28.8975 -3.35952 -21.6496 35.855 -3.35952 -21.4217 42.8125 -3.35952 -18.7458 
-33.7198 3.59797 -17.6002 -26.7624 3.59797 -18.3056 -19.8049 3.59797 -17.6035 
-12.8474 3.59797 -18.1393 -5.8899 3.59797 -20.2044 1.06759 3.59797 -19.9816 
8.02508 3.59797 -20.4251 14.9826 3.59797 -21.125 21.9401 3.59797 -22.3585 
28.8975 3.59797 -22.8838 35.855 3.59797 -22.2688 42.8125 3.59797 -18.8837 
-33.7198 10.5555 -16.9221 -26.7624 10.5555 -18.0522 -19.8049 10.5555 -18.4563 
-12.8474 10.5555 -19.4537 -5.8899 10.5555 -21.5146 1.06759 10.5555 -20.9481 
8.02508 10.5555 -21.0246 14.9826 10.5555 -22.3687 21.9401 13.351 -23.4584 
21.9401 10.5555 -23.3393 28.8975 10.5555 -23.3833 35.855 10.5555 -21.8083 
42.8125 10.5555 -17.5223 -26.7624 17.5129 -17.4538 -19.8049 17.5129 -18.1256 
-12.8474 17.5129 -19.3814 -5.8899 17.5129 -21.3161 1.06759 17.5129 -21.6134 
8.02508 17.5129 -21.704 20.4737 17.5129 -23.4584 14.9826 17.5129 -22.7904 
25.8567 17.5129 -23.4584 21.9401 18.3075 -23.4584 28.8975 17.5129 -23.3005 
35.855 17.5129 -20.4992 -12.8474 24.4704 -16.9892 -5.8899 24.4704 -19.0593 
1.06759 24.4704 -20.1507 8.02508 24.4704 -21.0785 14.9826 24.4704 -21.5398 
21.9401 24.4704 -21.8152 28.8975 24.4704 -19.9714 -5.8899 -31.1895 -11.1725 
1.06759 -31.1895 -12.7456 8.02508 -26.532 -16.501 8.02508 -31.1895 -13.8665 
14.9826 -28.2794 -16.501 14.9826 -31.1895 -14.5865 21.9401 -28.3219 -16.501 
21.9401 -31.1895 -13.6591 28.8975 -25.2402 -16.501 28.8975 -31.1895 -9.83432 
-26.7624 -24.232 -10.9218 -19.8049 -24.232 -12.4245 -12.8474 -24.232 -14.1438 
-5.8899 -17.7471 -16.501 -5.8899 -24.232 -15.2648 1.91165 -24.232 -16.501 
1.06759 -22.9363 -16.501 1.06759 -24.232 -16.3566 30.4929 -24.232 -16.501 
35.855 -19.6755 -16.501 35.855 -24.232 -12.8333 -33.7198 -10.3314 -16.501 
-33.7198 -17.2745 -14.0642 -26.7624 -15.362 -16.501 -26.7624 -17.2745 -16.035 
-19.8049 -15.9167 -16.501 -19.8049 -17.2745 -16.2358 -7.8203 -17.2745 -16.501 
-12.8474 -15.6287 -16.501 -12.8474 -17.2745 -16.276 37.8473 -17.2745 -16.501 
42.8125 -10.682 -16.501 42.8125 -17.2745 -11.413 -33.7303 -10.317 -16.501 
-40.6773 -10.317 -13.0019 43.0033 -10.317 -16.501 -36.2966 -3.35952 -16.501 
-40.6773 -3.35952 -14.5437 45.4148 -3.35952 -16.501 -36.5523 3.59797 -16.501 
-40.6773 3.59797 -14.6757 45.4712 3.59797 -16.501 -34.773 10.5555 -16.501 
-40.6773 10.5555 -13.7213 -33.7198 13.5282 -16.501 43.7657 10.5555 -16.501 
42.8125 12.6936 -16.501 -40.6773 17.5129 -10.9851 -31.3264 17.5129 -16.501 
-33.7198 17.5129 -15.8362 -26.7624 20.1033 -16.501 -19.8049 22.2239 -16.501 
40.2415 17.5129 -16.501 35.855 22.9606 -16.501 42.8125 17.5129 -11.5215 
-33.7198 24.4704 -10.5727 -26.7624 24.4704 -14.2066 -15.2754 24.4704 -16.501 
-19.8049 24.4704 -15.4676 -12.8474 25.1718 -16.501 -5.8899 27.8493 -16.501 
1.06759 29.7511 -16.501 8.02508 31.0086 -16.501 14.9826 31.3337 -16.501 
21.9401 30.7017 -16.501 34.2684 24.4704 -16.501 28.8975 28.1217 -16.501 
35.855 24.4704 -14.0628 -5.8899 31.4279 -11.9109 1.06759 31.4279 -14.221 
8.02508 31.4279 -15.8579 14.9826 31.4279 -16.3161 21.9401 31.4279 -14.8422 
-5.8899 -32.8477 -9.54347 1.06759 -34.4354 -9.54347 8.02508 -35.0384 -9.54347 
14.9826 -34.8693 -9.54347 21.9401 -33.8593 -9.54347 28.8975 -31.3653 -9.54347 
-26.7624 -25.384 -9.54347 -19.8049 -27.3418 -9.54347 -19.8049 -31.1895 -3.25229 
-9.96173 -31.1895 -9.54347 -12.8474 -29.8862 -9.54347 -12.8474 -31.1895 -7.77304 
29.1859 -31.1895 -9.54347 35.855 -26.5706 -9.54347 -30.6757 -24.232 -9.54347 
-33.7198 -22.976 -9.54347 -33.7198 -24.232 -5.93359 38.3361 -24.232 -9.54347 
42.8125 -18.8726 -9.54347 -40.1787 -17.2745 -9.54347 -40.6773 -16.6129 -9.54347 
-40.6773 -17.2745 -8.40998 43.8493 -17.2745 -9.54347 -43.9031 -10.317 -9.54347 
46.999 -10.317 -9.54347 -45.427 -3.35952 -9.54347 48.6355 -3.35952 -9.54347 
-45.6264 3.59797 -9.54347 -47.6348 3.59797 -2.8292 48.5543 3.59797 -9.54347 
-44.7602 10.5555 -9.54347 46.7104 10.5555 -9.54347 -41.9086 17.5129 -9.54347 
-40.6773 19.2185 -9.54347 43.5646 17.5129 -9.54347 42.8125 18.7205 -9.54347 
-34.9229 24.4704 -9.54347 -33.7198 25.2707 -9.54347 -26.7624 28.2931 -9.54347 
-19.8049 30.1401 -9.54347 -12.8474 31.3862 -9.54347 28.8975 30.9466 -9.54347 
38.0581 24.4704 -9.54347 35.855 26.5967 -9.54347 -19.8049 31.4279 -4.01163 
-12.6518 31.4279 -9.54347 -12.8474 31.4279 -9.3948 -5.8899 32.7341 -9.54347 
1.06759 33.745 -9.54347 8.02508 34.0717 -9.54347 14.9826 33.9599 -9.54347 
27.4825 31.4279 -9.54347 21.9401 33.1545 -9.54347 -19.8049 -31.5263 -2.58598 
-12.8474 -34.2805 -2.58598 -5.8899 -36.8362 -2.58598 1.06759 -37.6815 -2.58598 
1.06759 -38.147 2.69984 8.02508 -37.6443 -2.58598 14.9826 -36.7371 -2.58598 
21.9401 -34.8229 -2.58598 28.8975 -31.4767 -2.58598 -33.7198 -25.0806 -2.58598 
-20.5865 -31.1895 -2.58598 -26.7624 -28.6505 -2.58598 29.3316 -31.1895 -2.58598 
28.8975 -31.1895 -1.74947 35.855 -26.1036 -2.58598 -34.9466 -24.232 -2.58598 
-40.6773 -19.3174 -2.58598 37.7678 -24.232 -2.58598 35.855 -24.232 0.910903 
42.8125 -17.6689 -2.58598 -42.3303 -17.2745 -2.58598 43.0659 -17.2745 -2.58598 
42.8125 -17.2745 -2.07129 -46.019 -10.317 -2.58598 46.3735 -10.317 -2.58598 
-47.4444 -3.35952 -2.58598 -47.6348 1.88558 -2.58598 48.0375 -3.35952 -2.58598 
-47.6964 3.59797 -2.58598 -47.6348 4.28707 -2.58598 -47.6348 3.59797 0.0220701 
48.0552 3.59797 -2.58598 -47.0377 10.5555 -2.58598 46.1355 10.5555 -2.58598 
-44.1671 17.5129 -2.58598 -40.6773 22.1959 -2.58598 42.867 17.5129 -2.58598 
42.8125 17.5971 -2.58598 42.8125 17.5129 -2.44004 -38.1211 24.4704 -2.58598 
-33.7198 27.4453 -2.58598 -26.7624 30.2111 -2.58598 28.8975 30.6277 -2.58598 
37.492 24.4704 -2.58598 35.855 26.0437 -2.58598 35.855 24.4704 1.52813 
-21.035 31.4279 -2.58598 -19.8049 31.701 -2.58598 -12.8474 33.0607 -2.58598 
-5.8899 34.0732 -2.58598 1.06759 34.7092 -2.58598 8.02508 34.6001 -2.58598 
14.9826 34.0892 -2.58598 26.6858 31.4279 -2.58598 21.9401 32.9882 -2.58598 
1.06759 -38.2913 4.37151 -19.8049 -33.5718 4.37151 -12.8474 -36.0173 4.37151 
-0.643307 -38.147 4.37151 -5.8899 -37.6993 4.37151 3.04009 -38.147 4.37151 
1.06759 -38.147 4.88356 8.02508 -37.7724 4.37151 14.9826 -36.1641 4.37151 
21.9401 -33.2216 4.37151 -33.7198 -25.9996 4.37151 -24.9634 -31.1895 4.37151 
-26.7624 -30.3104 4.37151 25.4033 -31.1895 4.37151 21.9401 -31.1895 7.73576 
28.8975 -28.4626 4.37151 -35.8353 -24.232 4.37151 -40.6773 -19.3862 4.37151 
33.5918 -24.232 4.37151 28.8975 -24.232 8.53557 35.855 -21.5089 4.37151 
-42.2868 -17.2745 4.37151 -40.6773 -17.2745 8.83606 38.8944 -17.2745 4.37151 
35.855 -17.2745 7.23066 42.8125 -10.601 4.37151 -45.7329 -10.317 4.37151 
35.855 -10.317 10.4502 42.9447 -10.317 4.37151 42.8125 -10.317 4.53407 
-47.1524 -3.35952 4.37151 44.5381 -3.35952 4.37151 42.8125 -3.35952 6.38802 
-47.5313 3.59797 4.37151 44.7238 3.59797 4.37151 42.8125 3.59797 6.66386 
-46.9377 10.5555 4.37151 43.3003 10.5555 4.37151 42.8125 11.7172 4.37151 
42.8125 10.5555 5.05729 -43.842 17.5129 4.37151 -40.6773 21.6981 4.37151 
40.01 17.5129 4.37151 35.855 23.0744 4.37151 35.855 17.5129 9.14619 
-37.5328 24.4704 4.37151 -33.7198 27.0912 4.37151 -26.7624 30.0383 4.37151 
34.5511 24.4704 4.37151 28.8975 28.6019 4.37151 28.8975 24.4704 10.1212 
-21.6771 31.4279 4.37151 -19.8049 31.9134 4.37151 -19.8049 31.4279 6.12204 
-12.8474 32.8231 4.37151 -12.8474 31.4279 9.18228 -5.8899 33.6338 4.37151 
-5.8899 31.4279 10.8996 1.06759 34.0856 4.37151 8.02508 33.7889 4.37151 
8.02508 31.4279 10.3278 14.9826 32.9554 4.37151 14.9826 31.4279 8.14447 
22.1122 31.4279 4.37151 21.9401 31.4909 4.37151 21.9401 31.4279 4.50452 
-19.8049 -33.0528 11.329 -12.8474 -35.1763 11.329 -5.8899 -36.2977 11.329 
1.06759 -35.9688 11.329 8.02508 -34.5507 11.329 14.9826 -32.1612 11.329 
-33.7198 -24.3919 11.329 -23.6944 -31.1895 11.329 -26.7624 -29.4976 11.329 
-19.8049 -31.1895 14.8678 -12.8474 -31.1895 17.83 -5.8899 -31.1895 17.346 
1.06759 -31.1895 16.1392 8.02508 -31.1895 14.692 16.9536 -31.1895 11.329 
14.9826 -31.1895 12.2846 21.9401 -27.4657 11.329 -33.8926 -24.232 11.329 
-33.7198 -24.232 11.5835 -26.7624 -24.232 18.0074 8.02508 -24.232 18.1935 
14.9826 -24.232 16.3446 25.2031 -24.232 11.329 21.9401 -24.232 13.2623 
28.8975 -19.175 11.329 -39.5607 -17.2745 11.329 -40.6773 -15.3245 11.329 
-33.7198 -17.2745 17.5045 21.9401 -17.2745 15.4496 30.2196 -17.2745 11.329 
28.8975 -17.2745 12.1138 -43.2374 -10.317 11.329 -40.6773 -10.317 14.8873 
21.9401 -10.317 16.3659 34.2905 -10.317 11.329 28.8975 -10.317 13.8941 
35.855 -5.77624 11.329 -45.024 -3.35952 11.329 -40.6773 -3.35952 17.0811 
21.9401 -3.35952 16.8621 28.8975 -3.35952 14.6702 36.5266 -3.35952 11.329 
35.855 -3.35952 11.7568 -45.4923 3.59797 11.329 -40.6773 3.59797 17.533 
21.9401 3.59797 17.2319 28.8975 3.59797 15.3342 37.3219 3.59797 11.329 
35.855 3.59797 12.3511 -44.6645 10.5555 11.329 -40.6773 10.5555 16.3661 
21.9401 10.5555 17.3808 28.8975 10.5555 15.0896 36.5496 10.5555 11.329 
35.855 12.1608 11.329 35.855 10.5555 11.8077 -41.2873 17.5129 11.329 
-40.6773 18.2905 11.329 -40.6773 17.5129 12.1575 -33.7198 17.5129 17.6963 
21.9401 17.5129 16.492 33.1374 17.5129 11.329 28.8975 22.7816 11.329 
[...]
POINT_DATA 496
SCALARS ImageScalars float
LOOKUP_TABLE default
0 0 0 0 0 0 0 0 0 
0 0 0 0 0 0 0 0 0 
0 0 0 0 0 0 0 0 0 
0 0 0 0 0 0 0 0 0 
0 0 0 0 0 0 0 0 0 
0 0 0 0 0 0 0 0 0 
0 0 0 0 0 0 0 0 0 
0 0 0 0 0 0 0 0 0 
0 0 0 0 0 0 0 0 0 
0 0 0 0 0 0 0 0 0 
0 0 0 0 0 0 0 0 0 
0 0 0 0 0 0 0 0 0 
0 0 0 0 0 0 0 0 0 
0 0 0 0 0 0 0 0 0 
0 0 0 0 0 0 0 0 0 
0 0 0 0 0 0 0 0 0 
0 0 0 0 0 0 0 0 0 
0 0 0 0 0 0 0 0 0 
0 0 0 0 0 0 0 0 0 
0 0 0 0 0 0 0 0 0 
0 0 0 0 0 0 0 0 0 
0 0 0 0 0 0 0 0 0 
0 0 0 0 0 0 0 0 0 
0 0 0 0 0 0 0 0 0 
0 0 0 0 0 0 0 0 0 
0 0 0 0 0 0 0 0 0 
0 0 0 0 0 0 0 0 0 
0 0 0 0 0 0 0 0 0 
0 0 0 0 0 0 0 0 0 
0 0 0 0 0 0 0 0 0 
0 0 0 0 0 0 0 0 0 
0 0 0 0 0 0 0 0 0 
0 0 0 0 0 0 0 0 0 
0 0 0 0 0 0 0 0 0 
0 0 0 0 0 0 0 0 0 
0 0 0 0 0 0 0 0 0 
0 0 0 0 0 0 0 0 0 
0 0 0 0 0 0 0 0 0 
0 0 0 0 0 0 0 0 0 
0 0 0 0 0 0 0 0 0 
0 0 0 0 0 0 0 0 0 
0 0 0 0 0 0 0 0 0 
0 0 0 0 0 0 0 0 0 
0 0 0 0 0 0 0 0 0 
0 0 0 0 0 0 0 0 0 
0 0 0 0 0 0 0 0 0 
0 0 0 0 0 0 0 0 0 
0 0 0 0 0 0 0 0 0 
0 0 0 0 0 0 0 0 0 
0 0 0 0 0 0 0 0 0 
0 0 0 0 0 0 0 0 0 
0 0 0 0 0 0 0 0 0 
0 0 0 0 0 0 0 0 0 
0 0 0 0 0 0 0 0 0 
0 0 0 0 0 0 0 0 0 
0 
NORMALS Normals float
0.0377549 -0.092869 0.994962 0.137533 0.235926 0.961989 0.0963861 0.27164 0.95756 
-0.0683524 0.296536 0.952572 -0.30708 0.453918 0.836457 0.0570102 0.136111 0.989052 
0.100816 0.0738053 0.992164 0.157341 0.0085607 0.987507 0.101363 0.0262286 0.994504 
0.0092585 0.0930317 0.99562 -0.106694 0.237501 0.96551 -0.36636 0.377234 0.850573 
0.263054 0.201999 0.943398 0.069049 0.144107 0.98715 -0.027727 0.0768246 0.996659 
-0.0200715 0.0685304 0.997447 0.014491 0.137098 0.990452 0.0217858 0.161605 0.986615 
0.0976533 0.0559084 0.993649 0.176428 -0.00927737 0.98427 0.152618 0.0880329 0.984357 
-0.0117289 0.157861 0.987392 -0.262758 0.243171 0.933716 -0.602074 0.32604 0.728838 
0.228858 0.0754881 0.970529 -0.0118132 0.0523943 0.998557 -0.067363 0.00445972 0.997719 
0.0813821 0.0660902 0.994489 0.15095 0.206459 0.966741 0.0291363 0.189349 0.981478 
-0.0175731 0.214281 0.976614 0.123595 0.168811 0.977869 0.173052 0.162219 0.971462 
0.054104 0.135948 0.989237 -0.184484 0.165104 0.968869 -0.573093 0.14449 0.806652 
0.230987 -0.039062 0.972172 -0.00410144 -0.0113246 0.999927 -0.0125442 0.077329 0.996927 
0.186854 0.157655 0.969655 0.130075 0.213679 0.968205 0.0160632 0.10609 0.994227 
0.0800819 0.139613 0.986963 0.134177 0.222532 0.965648 0.123542 0.192754 0.973439 
-0.00423525 0.123315 0.992359 -0.260237 0.0334133 0.964966 -0.600261 -0.0690155 0.796821 
0.261544 -0.112528 0.958609 0.104094 -0.0630243 0.992569 0.0981793 0.0369999 0.994481 
0.22323 0.0884539 0.970744 0.104002 0.0779458 0.991518 -0.0356255 0.118503 0.992314 
0.0991501 0.0928137 0.990735 0.164316 0.117594 0.979373 0.0574964 0.0161472 0.998215 
0.0695761 0.0870537 0.993771 -0.105056 0.0293771 0.994032 -0.350206 -0.101214 0.931188 
-0.712367 -0.264619 0.650008 0.154481 -0.225128 0.962005 0.135708 -0.18476 0.973369 
0.230748 -0.157174 0.960235 0.157751 -0.156822 0.974947 0.0274751 -0.0509646 0.998322 
0.0838721 0.00731716 0.99645 0.0602806 -0.0853232 0.994528 0.136872 -0.0581083 0.988883 
-0.0806073 -0.151763 0.985125 0.0265728 -0.12507 0.991792 -0.172743 -0.197308 0.965002 
-0.50687 -0.348267 0.788538 0.224057 -0.478026 0.849288 0.207831 -0.470862 0.857377 
0.13119 -0.37528 0.917581 0.0976603 -0.310185 0.945647 0.047273 -0.353689 0.934168 
-0.0897266 -0.419331 0.903388 -0.343516 -0.56014 0.753817 0.242828 0.660847 0.710152 
0.153293 0.613792 0.774442 0.132146 0.349518 0.927564 0.101556 0.638721 0.762707 
0.0576185 0.491957 0.868711 7.86858e-06 0.697858 0.716236 -0.127091 0.544489 0.829083 
-0.190855 0.782019 0.593313 -0.320346 0.491652 0.809726 -0.430988 0.855284 0.287643 
0.213809 0.736724 0.641501 0.18817 0.61644 0.764588 0.178778 0.452299 0.873764 
0.0624661 0.148264 0.986973 0.143376 0.330264 0.932936 0.148752 0.251818 0.956274 
0.141982 0.220245 0.965056 0.151041 0.255274 0.954998 -0.348996 0.479597 0.805101 
-0.413014 0.440429 0.797146 -0.58266 0.6584 0.476463 0.263251 0.202408 0.943255 
0.374077 0.46611 0.801753 0.109327 0.316299 0.942339 0.12897 0.390049 0.911717 
0.00559451 0.267189 0.963628 0.0152423 0.314891 0.949006 0.0480812 0.15289 0.987073 
0.013667 0.165613 0.986096 0.0249841 0.197935 0.979897 -0.465895 0.406612 0.785881 
-0.60811 0.333939 0.7202 -0.806992 0.503501 0.308626 0.263483 0.202084 0.94326 
0.642562 0.298218 0.705819 -0.610887 0.328255 0.720462 0.342442 0.0799042 0.936135 
0.579161 0.0984066 0.809252 -0.722774 0.136979 0.677373 0.357073 -0.0434007 0.933068 
0.572528 -0.0503818 0.818336 -0.73196 -0.105706 0.673098 0.300561 -0.120974 0.946059 
0.603286 -0.209733 0.769453 0.303287 -0.190707 0.933621 -0.753309 -0.281006 0.594611 
-0.742238 -0.32598 0.585509 0.687226 -0.447623 0.572148 0.284623 -0.275463 0.91821 
0.361969 -0.318328 0.876154 0.179407 -0.351227 0.918941 0.146704 -0.397421 0.905834 
-0.697525 -0.44159 0.56432 -0.594271 -0.589926 0.546652 -0.836149 -0.494488 0.237354 
0.470912 -0.717724 0.512947 0.240367 -0.614311 0.751562 0.198314 -0.487947 0.850047 
0.159893 -0.52789 0.834126 0.220988 -0.511341 0.830479 0.213528 -0.637485 0.740283 
0.156378 -0.706104 0.690626 0.0803669 -0.780584 0.619862 -0.0186854 -0.829852 0.557671 
-0.185063 -0.828369 0.528732 -0.550245 -0.6304 0.547565 -0.378704 -0.74143 0.553954 
-0.630572 -0.669987 0.391786 0.179042 -0.869112 0.461072 0.140293 -0.840617 0.523145 
0.0721772 -0.819613 0.568353 -0.0206115 -0.838996 0.543747 -0.193711 -0.888328 0.416353 
0.247117 0.731359 0.635647 0.129449 0.779187 0.613279 0.0238659 0.843237 0.537012 
-0.0769553 0.897351 0.434556 -0.221941 0.91372 0.340378 -0.432518 0.861216 0.2669 
0.240634 0.785473 0.570199 0.25209 0.730221 0.635002 0.350478 0.85617 0.379655 
0.284167 0.715769 0.637905 0.292503 0.701298 0.650095 0.314774 0.766967 0.559176 
-0.440879 0.857531 0.265077 -0.633125 0.74425 0.212709 0.348259 0.780955 0.518484 
0.444938 0.750681 0.488373 0.495849 0.814396 0.301485 -0.691941 0.694272 0.197999 
-0.818848 0.545311 0.179229 0.674693 0.564296 0.475772 0.695142 0.541478 0.472841 
0.711381 0.571317 0.40931 -0.843947 0.504294 0.182868 0.813264 0.31561 0.488868 
-0.93398 0.316889 0.165113 0.868211 0.105191 0.484918 -0.984291 0.108522 0.139264 
0.86752 -0.0402393 0.495772 0.991836 -0.0267849 0.124675 -0.982522 -0.132991 0.130246 
0.836788 -0.23096 0.496432 -0.933329 -0.334854 0.129502 0.737489 -0.462147 0.492475 
0.701758 -0.515665 0.491554 -0.856374 -0.501141 0.124423 -0.836551 -0.53418 0.121795 
0.514336 -0.722904 0.461377 0.46947 -0.753183 0.460774 0.289822 -0.835535 0.46678 
0.200962 -0.877326 0.435791 0.166357 -0.900997 0.400662 -0.391262 -0.909573 0.139969 
-0.702442 -0.699943 0.129052 -0.648868 -0.749318 0.132258 0.201838 -0.965499 0.164539 
0.165991 -0.902128 0.398261 0.166271 -0.904345 0.393082 0.160891 -0.924596 0.345307 
0.0916479 -0.953627 0.286699 0.0147103 -0.974437 0.224178 -0.0633802 -0.982656 0.174273 
-0.347404 -0.927434 0.138483 -0.198019 -0.970337 0.138688 0.356371 0.862792 0.358595 
0.340371 0.875749 0.34236 0.220972 0.932061 0.287112 0.0500468 0.972881 0.225829 
0.0152885 0.999653 -0.0214735 -0.0660352 0.98452 0.162358 -0.192 0.978 0.081562 
-0.340427 0.939518 -0.0376143 -0.50829 0.850094 -0.137772 0.524224 0.835183 0.166305 
0.358175 0.86415 0.353491 0.381205 0.874888 0.298752 -0.518106 0.843604 -0.141063 
-0.518049 0.837609 -0.173309 -0.670836 0.712548 -0.205558 0.563886 0.811298 0.154363 
0.765779 0.630439 0.127004 -0.70841 0.671499 -0.217358 -0.676776 0.640914 -0.362221 
-0.828389 0.499656 -0.25321 0.812592 0.571774 0.113001 -0.833508 0.491102 -0.253149 
-0.826411 0.490924 -0.275752 0.939758 0.325623 0.104044 -0.91516 0.314316 -0.252362 
0.988495 0.111391 0.102321 0.993805 0.00702751 0.110915 -0.96107 0.112996 -0.252143 
0.993168 -0.0264775 0.113647 0.992266 -0.0466717 0.115022 0.999605 -0.0210447 0.0186271 
-0.963196 -0.12786 -0.236444 0.963592 -0.235527 0.126563 -0.921362 -0.324917 -0.213356 
0.866102 -0.487347 0.11118 0.736078 -0.668875 0.103896 -0.842829 -0.497997 -0.204054 
-0.841718 -0.499922 -0.203933 -0.842001 -0.497231 -0.209274 0.627533 -0.772233 0.0992908 
0.479959 -0.870982 0.105024 0.274016 -0.955794 0.106646 -0.413326 -0.899119 -0.144037 
-0.696958 -0.697249 -0.167611 -0.651721 -0.740079 -0.165963 -0.666232 -0.675062 -0.316901 
0.211417 -0.971597 0.106312 0.20007 -0.973956 0.106683 0.167273 -0.981488 0.0932805 
0.117595 -0.991306 0.0590295 0.0374299 -0.999047 0.0224682 -0.0441978 -0.998816 -0.0203472 
-0.11277 -0.991161 -0.0698839 -0.348828 -0.927733 -0.132778 -0.227956 -0.96717 -0.11233 
0.00537186 0.995285 -0.0968492 0.371703 0.923078 0.0988146 0.290489 0.955613 0.0491891 
0.0411302 0.995742 -0.0824935 0.153487 0.987518 -0.0353427 -0.0362789 0.992513 -0.116628 
-0.0010217 0.992523 -0.122054 -0.143483 0.974824 -0.170675 -0.293728 0.920171 -0.258861 
-0.444264 0.822622 -0.354856 0.609861 0.791826 -0.032879 0.440878 0.893843 0.0816839 
0.465785 0.882475 0.0654454 -0.508553 0.760492 -0.403764 -0.467378 0.720992 -0.511593 
-0.562036 0.671578 -0.482804 0.659297 0.749334 -0.0618472 0.787137 0.599986 -0.142937 
-0.625214 0.577285 -0.525213 -0.543232 0.505949 -0.670011 -0.644207 0.524551 -0.556637 
0.828212 0.538566 -0.154958 0.78773 0.517632 -0.333974 -0.670921 0.449237 -0.589958 
-0.600354 0.40371 -0.690357 -0.763869 0.29837 -0.572257 0.930698 0.325828 -0.166244 
-0.513328 0.240996 -0.82366 -0.766921 0.290902 -0.572022 -0.762565 0.290688 -0.577923 
0.980909 0.116149 -0.155974 -0.79305 0.11063 -0.599027 -0.734326 0.107648 -0.670207 
0.989959 -0.0120343 -0.140838 -0.809955 -0.0790835 -0.581136 -0.74673 -0.057811 -0.66261 
0.95936 -0.246619 -0.137144 -0.824632 -0.266527 -0.498945 -0.817909 -0.295956 -0.493391 
-0.810152 -0.259989 -0.525414 0.848492 -0.501863 -0.167916 0.731751 -0.657105 -0.180978 
-0.75863 -0.451948 -0.46928 -0.664755 -0.605759 -0.437215 -0.622123 -0.395367 -0.675757 
0.610471 -0.771904 -0.177451 0.4909 -0.854187 -0.171409 0.306729 -0.939811 -0.150574 
-0.628535 -0.654439 -0.420302 -0.454224 -0.800661 -0.390668 -0.467889 -0.593932 -0.654465 
0.221881 -0.966649 -0.127902 0.192186 -0.973559 -0.12348 0.19217 -0.961647 -0.195717 
0.125826 -0.979818 -0.155319 0.105721 -0.933468 -0.342726 0.0886864 -0.978315 -0.187177 
0.0492975 -0.897359 -0.43854 0.0106803 -0.976671 -0.214478 -0.0786726 -0.968558 -0.236022 
-0.0928024 -0.871572 -0.481404 -0.156324 -0.950847 -0.267307 -0.180973 -0.887267 -0.424272 
-0.273454 -0.906337 -0.322143 -0.269633 -0.907937 -0.320857 -0.271065 -0.905722 -0.325869 
0.362094 0.895266 -0.259589 0.21354 0.927976 -0.305386 0.0594877 0.910945 -0.408217 
-0.104397 0.853675 -0.510235 -0.222989 0.772113 -0.595078 -0.325641 0.682893 -0.653922 
0.649224 0.682593 -0.335522 0.443735 0.858596 -0.256733 0.511747 0.812233 -0.279986 
0.337555 0.807721 -0.483367 0.0810067 0.682923 -0.725985 -0.0953414 0.632285 -0.768847 
-0.152063 0.582534 -0.798456 -0.226216 0.597694 -0.769148 -0.365978 0.651057 -0.66497 
-0.324573 0.639308 -0.697093 -0.462064 0.515111 -0.721912 0.652708 0.678524 -0.337014 
0.648921 0.67628 -0.348635 0.413292 0.497344 -0.762784 -0.215234 0.347625 -0.912596 
-0.304772 0.362829 -0.880607 -0.486644 0.429911 -0.760496 -0.44317 0.383081 -0.810462 
-0.487626 0.344483 -0.802217 0.749802 0.494268 -0.439882 0.776315 0.450868 -0.440515 
0.52689 0.388315 -0.756041 -0.410413 0.192726 -0.891301 -0.489398 0.311351 -0.814586 
-0.470434 0.294968 -0.831676 0.835498 0.329511 -0.439734 0.732345 0.31324 -0.604609 
-0.387082 0.0937897 -0.917263 -0.476877 0.219007 -0.851249 -0.379546 0.16158 -0.910954 
-0.488113 0.157287 -0.858491 0.890293 0.136297 -0.434513 0.672148 0.120376 -0.730566 
-0.374903 0.0574447 -0.925283 -0.333144 0.0963167 -0.937944 -0.496656 0.114465 -0.860367 
-0.475556 0.11682 -0.871894 0.900816 -0.0174335 -0.433851 0.649225 -0.0322529 -0.759912 
-0.3608 0.0359109 -0.931951 -0.310107 0.0278625 -0.950293 -0.546382 -0.00224486 -0.837533 
-0.501105 0.00270818 -0.865382 0.855678 -0.258452 -0.448351 0.664796 -0.248826 -0.704367 
-0.35775 -0.0495217 -0.932503 -0.367235 -0.0981751 -0.924932 -0.540276 -0.168084 -0.82453 
-0.537018 -0.210724 -0.816828 -0.517347 -0.164652 -0.839787 0.726591 -0.507368 -0.463296 
0.707874 -0.53022 -0.46667 0.701648 -0.507357 -0.500278 0.416884 -0.460567 -0.783636 
-0.343248 -0.232685 -0.909966 -0.530576 -0.332116 -0.779864 -0.45686 -0.50113 -0.734947 
-0.431762 -0.275192 -0.858982 0.500975 -0.749288 -0.433118 0.49705 -0.752099 -0.432768 
0.497145 -0.748746 -0.438436 0.307905 -0.838164 -0.450195 0.264981 -0.677551 -0.686083 
0.184673 -0.877406 -0.442781 0.159692 -0.605444 -0.779703 0.097995 -0.893892 -0.437441 
0.0460398 -0.887844 -0.457835 -0.0989637 -0.841954 -0.530396 -0.170543 -0.585298 -0.79268 
-0.208245 -0.774138 -0.597783 -0.256913 -0.536587 -0.803784 -0.415366 -0.567221 -0.711148 
-0.318593 -0.65551 -0.684693 -0.315812 -0.52954 -0.787305 -0.00583275 -0.874981 -0.484122 
-0.0242422 -0.869517 -0.493307 -0.0181775 -0.8712 -0.490592 -0.0184862 -0.869944 -0.492804 
0.266184 0.58734 -0.764315 0.0688546 0.641743 -0.763823 -0.113314 0.552222 -0.82596 
-0.180535 0.423744 -0.887608 0.393157 0.482287 -0.782832 0.401607 0.471263 -0.785254 
0.223633 0.391655 -0.892522 0.0303652 0.349119 -0.936586 -0.127843 0.342968 -0.930607 
-0.213949 0.34718 -0.913067 -0.193941 0.345169 -0.918284 -0.215279 0.342679 -0.914454 
-0.324607 0.223674 -0.919021 0.474996 0.351837 -0.806591 0.485492 0.339415 -0.805665 
0.310677 0.253146 -0.916186 0.177473 0.172599 -0.968872 0.0417199 0.185153 -0.981824 
-0.115147 0.227317 -0.966989 -0.184969 0.184672 -0.965237 -0.21552 0.234953 -0.947812 
-0.330825 0.212234 -0.919517 -0.326109 0.21443 -0.920691 0.530829 0.256228 -0.807817 
0.38987 0.224595 -0.893061 0.207235 0.15046 -0.966652 0.158238 0.0693862 -0.98496 
0.0870811 0.138646 -0.986506 -0.142034 0.144208 -0.979301 -0.194253 -0.02421 -0.980653 
-0.173327 0.0812243 -0.981509 -0.386675 0.115934 -0.9149 -0.36756 0.139963 -0.919407 
0.576704 0.101251 -0.810654 0.344468 0.0743262 -0.935851 0.147453 0.0492132 -0.987844 
0.163155 -0.00876214 -0.986562 0.126444 0.0235656 -0.991694 -0.268774 0.0562067 -0.961562 
-0.239964 -0.0396624 -0.969971 -0.0451849 0.0304409 -0.998515 -0.37097 0.0660468 -0.926293 
-0.33396 0.0814469 -0.939062 0.583508 -0.0294738 -0.811572 0.32591 -0.0465982 -0.944252 
0.114297 -0.0810312 -0.990137 0.124239 -0.0773229 -0.989235 0.153401 -0.142766 -0.977797 
-0.180244 -0.0531491 -0.982185 -0.211435 0.188127 -0.959116 -0.065842 0.118035 -0.990824 
-0.363746 0.0280803 -0.931075 -0.341992 0.00952214 -0.939655 0.518542 -0.234417 -0.822291 
0.393917 -0.413934 -0.820663 0.310146 -0.209725 -0.927268 0.125607 -0.176289 -0.976291 
0.105553 -0.138256 -0.984756 0.149156 -0.208922 -0.966491 0.0345488 -0.167702 -0.985232 
-0.0885692 0.0564096 -0.994471 -0.201559 -0.0102265 -0.979423 -0.373405 -0.0669682 -0.925248 
-0.402784 -0.109326 -0.908742 0.367291 -0.434685 -0.822281 0.223962 -0.489682 -0.842646 
0.195341 -0.355566 -0.91401 0.148277 -0.534718 -0.83192 0.0963355 -0.288442 -0.952639 
0.105394 -0.298508 -0.94857 0.0828778 -0.355456 -0.931011 -0.0480457 -0.312027 -0.948857 
-0.178048 -0.562422 -0.807453 -0.236521 -0.329469 -0.914061 -0.349735 -0.263995 -0.898884 
-0.328043 -0.350021 -0.877424 -0.35544 -0.286435 -0.889729 0.105282 -0.570719 -0.814368 
0.0773704 -0.579453 -0.811325 0.0760522 -0.559547 -0.825302 0.0128533 -0.607546 -0.79418 
0.013376 -0.580499 -0.814151 -0.127663 -0.588991 -0.797992 -0.0563783 -0.617571 -0.784492 
-0.0564557 -0.597589 -0.799813 
