# vtk DataFile Version 4.2
vtk output
ASCII
DATASET POLYDATA
POINTS 518 float
39.0039 -12.7708 -23.2991 -17.3293 -36.9136 -17.0369 -9.28169 -36.9136 -19.4096 
-1.2341 -36.9136 -20.0052 6.81349 -36.9136 -20.1133 14.8611 -36.9136 -19.6655 
22.9087 -36.9136 -16.5549 -41.4721 -28.866 -15.0372 -33.4245 -28.866 -19.2653 
-25.3769 -28.866 -21.7875 -17.3293 -28.866 -21.1203 -9.28169 -28.866 -21.1339 
-1.2341 -28.866 -21.4288 6.81349 -28.866 -21.6025 14.8611 -28.866 -21.6095 
22.9087 -28.866 -20.7677 30.9563 -28.866 -19.8024 39.0039 -28.866 -16.0493 
-49.5196 -20.8184 -17.0465 -41.4721 -20.8184 -20.8896 -33.4245 -20.8184 -22.4484 
-25.3769 -20.8184 -22.8153 -17.3293 -20.8184 -22.7056 -9.28169 -20.8184 -21.4413 
-1.2341 -20.8184 -21.1769 6.81349 -20.8184 -21.2697 14.8611 -20.8184 -21.5152 
22.9087 -20.8184 -21.425 30.9563 -20.8184 -21.634 39.0039 -13.5948 -23.0182 
39.0039 -20.8184 -20.776 47.0515 -20.8184 -16.5647 -57.5672 -12.7708 -15.2682 
-49.5196 -12.7708 -21.228 -41.4721 -12.7708 -22.6394 -33.4245 -12.7708 -22.6356 
-25.3769 -12.7708 -22.7106 -17.3293 -12.7708 -22.515 -9.28169 -12.7708 -21.6495 
-1.2341 -12.7708 -20.4524 6.81349 -12.7708 -20.4703 14.8611 -12.7708 -19.9282 
22.9087 -12.7708 -21.1622 36.6828 -12.7708 -23.0182 30.9563 -12.7708 -22.3964 
39.7848 -12.7708 -23.0182 39.0039 -11.4528 -23.0182 47.0515 -12.7708 -20.1315 
-57.5672 -4.72321 -17.6771 -49.5196 -4.72321 -22.4757 -41.4721 -4.72321 -22.3686 
-33.4245 -4.72321 -21.5775 -25.3769 -4.72321 -20.3517 -17.3293 -4.72321 -19.7604 
-9.28169 -4.72321 -21.5775 -1.2341 -4.72321 -18.3364 6.81349 -4.72321 -20.9382 
14.8611 -4.72321 -18.3157 22.9087 -4.72321 -19.9055 30.9563 -4.72321 -21.7345 
39.0039 -4.72321 -21.7393 47.0515 -4.72321 -21.0907 55.099 -4.72321 -16.9901 
-57.5672 3.32438 -17.704 -49.5196 3.32438 -21.181 -41.4721 3.32438 -21.0031 
-33.4245 3.32438 -20.0297 -25.3769 3.32438 -18.0948 -17.3293 3.32438 -16.3832 
-9.28169 3.32438 -20.0462 -1.2341 3.32438 -16.8303 6.81349 3.32438 -21.1263 
14.8611 3.32438 -18.1904 22.9087 3.32438 -19.1577 30.9563 3.32438 -20.6567 
39.0039 3.32438 -21.6749 47.0515 3.32438 -20.3636 55.099 3.32438 -17.4999 
-57.5672 11.372 -16.456 -49.5196 11.372 -18.3107 -41.4721 11.372 -19.3268 
-33.4245 11.372 -18.7041 -25.3769 11.372 -16.5666 -9.28169 11.372 -16.5767 
-1.2341 11.372 -15.6925 6.81349 11.372 -17.2271 14.8611 11.372 -17.7428 
22.9087 11.372 -18.5956 30.9563 11.372 -19.7375 39.0039 11.372 -20.0037 
47.0515 11.372 -19.2021 55.099 11.372 -15.7397 -49.5196 19.4196 -15.5379 
-41.4721 19.4196 -16.2339 -33.4245 19.4196 -15.713 6.81349 19.4196 -15.5118 
14.8611 19.4196 -17.1755 22.9087 19.4196 -17.9296 30.9563 19.4196 -18.6159 
39.0039 19.4196 -18.2569 47.0515 19.4196 -16.8296 14.8611 27.4672 -15.2066 
22.9087 27.4672 -15.7015 30.9563 27.4672 -15.6245 39.0039 27.4672 -15.0003 
-17.3293 -38.7715 -14.9706 -9.28169 -41.6159 -14.9706 -1.2341 -43.7384 -14.9706 
6.81349 -43.7134 -14.9706 14.8611 -41.7727 -14.9706 22.9087 -38.3979 -14.9706 
-41.4721 -28.9102 -14.9706 -33.4245 -32.7421 -14.9706 -22.7174 -36.9136 -14.9706 
-25.3769 -35.8559 -14.9706 26.1676 -36.9136 -14.9706 30.9563 -34.5268 -14.9706 
39.0039 -29.6722 -14.9706 -41.54 -28.866 -14.9706 -49.5196 -22.8817 -14.9706 
40.1146 -28.866 -14.9706 47.0515 -22.5882 -14.9706 -51.7196 -20.8184 -14.9706 
-57.5672 -13.1797 -14.9706 48.7585 -20.8184 -14.9706 -57.8622 -12.7708 -14.9706 
54.0327 -12.7708 -14.9706 55.099 -10.5514 -14.9706 55.099 -12.7708 -13.4036 
-60.7706 -4.72321 -14.9706 57.5037 -4.72321 -14.9706 63.1466 -4.72321 -7.28112 
-61.8793 3.32438 -14.9706 -65.6148 3.32438 -8.3709 -17.3293 10.4492 -14.9706 
58.5119 3.32438 -14.9706 63.1466 3.32438 -8.79928 -60.05 11.372 -14.9706 
-57.5672 13.7299 -14.9706 -18.1273 11.372 -14.9706 -25.3769 18.0123 -14.9706 
-16.3044 11.372 -14.9706 -17.3293 11.372 -14.8126 -9.28169 15.1153 -14.9706 
-1.2341 15.4233 -14.9706 56.3685 11.372 -14.9706 55.099 13.4288 -14.9706 
-50.6131 19.4196 -14.9706 -57.5672 19.4196 -8.90401 -49.5196 20.2629 -14.9706 
-41.4721 21.1047 -14.9706 -28.0064 19.4196 -14.9706 -33.4245 20.4837 -14.9706 
-25.3769 19.4196 -14.6116 -17.3293 19.4196 -13.0695 -9.28169 19.4196 -13.6355 
2.90143 19.4196 -14.9706 -1.2341 19.4196 -14.4022 6.81349 22.8724 -14.9706 
50.8345 19.4196 -14.9706 47.0515 22.7263 -14.9706 55.099 19.4196 -11.7152 
-41.4721 27.4672 -9.41497 -33.4245 27.4672 -9.54011 -25.3769 27.4672 -9.61778 
-17.3293 27.4672 -9.5856 -9.28169 27.4672 -11.2122 -1.2341 27.4672 -12.957 
12.9693 27.4672 -14.9706 6.81349 27.4672 -14.2068 14.8611 27.8965 -14.9706 
22.9087 28.7929 -14.9706 30.9563 28.4672 -14.9706 39.0887 27.4672 -14.9706 
39.0039 27.5051 -14.9706 47.0515 27.4672 -10.2887 6.81349 35.5148 -8.38802 
14.8611 35.5148 -9.29489 22.9087 35.5148 -9.20746 30.9563 35.5148 -7.40338 
-17.3293 -39.4767 -6.92305 -9.28169 -42.6128 -6.92305 -1.2341 -44.4125 -6.92305 
6.81349 -44.2948 -6.92305 14.8611 -42.4124 -6.92305 22.9087 -39.1949 -6.92305 
-41.4721 -29.3523 -6.92305 -33.4245 -33.1629 -6.92305 -23.9986 -36.9136 -6.92305 
-25.3769 -36.3794 -6.92305 -17.3293 -36.9136 -2.0148 27.5692 -36.9136 -6.92305 
22.9087 -36.9136 -2.41651 30.9563 -35.1806 -6.92305 39.0039 -30.3546 -6.92305 
-42.3234 -28.866 -6.92305 -49.5196 -24.2524 -6.92305 -41.4721 -28.866 -5.57986 
41.1735 -28.866 -6.92305 39.0039 -28.866 -3.63817 47.0515 -24.4029 -6.92305 
-53.7945 -20.8184 -6.92305 -57.5672 -16.7957 -6.92305 51.3227 -20.8184 -6.92305 
55.099 -16.9276 -6.92305 -60.7158 -12.7708 -6.92305 58.3541 -12.7708 -6.92305 
63.1466 -5.08542 -6.92305 -64.559 -4.72321 -6.92305 -65.6148 0.52754 -6.92305 
63.3345 -4.72321 -6.92305 -66.1051 3.32438 -6.92305 -65.6148 7.18459 -6.92305 
-65.6148 3.32438 -3.38181 64.2441 3.32438 -6.92305 63.1466 10.7926 -6.92305 
-64.9288 11.372 -6.92305 63.0552 11.372 -6.92305 63.1466 11.372 -6.62833 
-59.2051 19.4196 -6.92305 -57.5672 21.0548 -6.92305 -49.5196 25.8318 -6.92305 
59.8304 19.4196 -6.92305 55.099 24.0913 -6.92305 -46.1531 27.4672 -6.92305 
-49.5196 27.4672 -2.66607 -41.4721 29.4201 -6.92305 -33.4245 30 -6.92305 
-25.3769 30.3659 -6.92305 -17.3293 30.9845 -6.92305 -9.28169 33.1058 -6.92305 
-1.2341 35.3084 -6.92305 39.0039 33.4095 -6.92305 50.7711 27.4672 -6.92305 
47.0515 29.7326 -6.92305 -25.3769 35.5148 -0.116745 -17.3293 35.5148 -1.71773 
-9.28169 35.5148 -3.76654 -0.212286 35.5148 -6.92305 -1.2341 35.5148 -6.56703 
6.81349 36.6361 -6.92305 14.8611 37.2556 -6.92305 22.9087 36.9925 -6.92305 
31.9684 35.5148 -6.92305 30.9563 35.8152 -6.92305 -9.28169 -38.1274 1.12454 
-1.2341 -40.1054 1.12454 6.81349 -40.0069 1.12454 14.8611 -38.1255 1.12454 
-33.4245 -29.5462 1.12454 -25.3769 -32.5432 1.12454 -12.3346 -36.9136 1.12454 
-17.3293 -35.0844 1.12454 -9.28169 -36.9136 2.78489 -1.2341 -36.9136 5.14067 
6.81349 -36.9136 5.05608 17.8746 -36.9136 1.12454 14.8611 -36.9136 2.83223 
22.9087 -34.9851 1.12454 30.9563 -31.1804 1.12454 -49.5196 -21.6941 1.12454 
-35.0049 -28.866 1.12454 -41.4721 -26.166 1.12454 -33.4245 -28.866 2.32027 
-25.3769 -28.866 7.03495 34.8252 -28.866 1.12454 30.9563 -28.866 4.90216 
39.0039 -26.5912 1.12454 47.0515 -22.1249 1.12454 -50.7001 -20.8184 1.12454 
-57.5672 -13.3863 1.12454 -49.5196 -20.8184 2.84838 48.8853 -20.8184 1.12454 
47.0515 -20.8184 4.5425 55.099 -16.2044 1.12454 -58.1525 -12.7708 1.12454 
-57.5672 -12.7708 2.29464 58.3553 -12.7708 1.12454 63.1466 -6.82664 1.12454 
-62.3984 -4.72321 1.12454 64.531 -4.72321 1.12454 -64.95 3.32438 1.12454 
65.947 3.32438 1.12454 -64.0159 11.372 1.12454 65.3045 11.372 1.12454 
63.1466 17.1984 1.12454 -60.2637 19.4196 1.12454 -57.5672 22.5836 1.12454 
-57.5672 19.4196 7.74795 62.0023 19.4196 1.12454 55.099 25.7297 1.12454 
-51.5656 27.4672 1.12454 -49.5196 28.9057 1.12454 -49.5196 27.4672 7.63571 
-41.4721 32.1038 1.12454 -33.4245 34.2387 1.12454 39.0039 34.2253 1.12454 
52.5286 27.4672 1.12454 47.0515 30.5763 1.12454 -28.3847 35.5148 1.12454 
-25.3769 36.2683 1.12454 -17.3293 37.2442 1.12454 -9.28169 38.0826 1.12454 
-1.2341 38.6457 1.12454 6.81349 39.1445 1.12454 14.8611 39.2066 1.12454 
22.9087 38.3683 1.12454 34.775 35.5148 1.12454 30.9563 36.6901 1.12454 
30.9563 35.5148 4.3153 -17.3293 -30.0012 9.17214 -9.28169 -32.7212 9.17214 
-1.2341 -33.9328 9.17214 6.81349 -33.7749 9.17214 14.8611 -32.6691 9.17214 
22.9087 -30.0952 9.17214 -41.4721 -21.979 9.17214 -33.4245 -25.3074 9.17214 
-21.1612 -28.866 9.17214 -25.3769 -27.7104 9.17214 -17.3293 -28.866 11.0312 
-9.28169 -28.866 15.018 -1.2341 -28.866 15.9089 6.81349 -28.866 15.0248 
14.8611 -28.866 13.9164 25.6553 -28.866 9.17214 22.9087 -28.866 10.9362 
30.9563 -26.5552 9.17214 39.0039 -23.2062 9.17214 -43.6205 -20.8184 9.17214 
-49.5196 -16.8691 9.17214 -41.4721 -20.8184 11.2003 30.9563 -20.8184 16.8879 
43.8014 -20.8184 9.17214 39.0039 -20.8184 13.2941 47.0515 -19.0092 9.17214 
55.099 -13.8466 9.17214 -54.1347 -12.7708 9.17214 -57.5672 -7.49814 9.17214 
-49.5196 -12.7708 14.5411 56.2362 -12.7708 9.17214 55.099 -12.7708 10.8865 
63.1466 -4.85235 9.17214 -58.8238 -4.72321 9.17214 -57.5672 -4.72321 11.0376 
63.2375 -4.72321 9.17214 63.1466 -4.72321 9.32298 -61.377 3.32438 9.17214 
-57.5672 3.32438 14.435 64.5412 3.32438 9.17214 63.1466 3.32438 11.6482 
-60.8928 11.372 9.17214 -57.5672 18.3055 9.17214 -57.5672 11.372 13.8119 
63.3918 11.372 9.17214 63.1466 12.0034 9.17214 63.1466 11.372 9.55488 
-56.8699 19.4196 9.17214 -49.5196 27.0492 9.17214 -49.5196 19.4196 16.6563 
47.0515 19.4196 16.9274 58.8329 19.4196 9.17214 55.099 22.5182 9.17214 
55.099 19.4196 12.6544 -48.9965 27.4672 9.17214 -41.4721 31.9 9.17214 
-41.4721 27.4672 15.4414 -33.4245 35.1805 9.17214 14.8611 27.4672 16.9871 
22.9087 27.4672 16.1043 30.9563 33.2979 9.17214 30.9563 27.4672 14.9818 
39.0039 30.7888 9.17214 39.0039 27.4672 12.7377 47.416 27.4672 9.17214 
47.0515 27.6618 9.17214 47.0515 27.4672 9.47059 -32.3931 35.5148 9.17214 
-25.3769 37.5547 9.17214 -25.3769 35.5148 13.4797 -17.3293 38.7843 9.17214 
-17.3293 35.5148 15.9432 -9.28169 38.9292 9.17214 -9.28169 35.5148 14.9233 
-1.2341 38.46 9.17214 -1.2341 35.5148 13.4947 6.81349 37.9925 9.17214 
[...]
POINT_DATA 518
SCALARS ImageScalars float
LOOKUP_TABLE default
0 0 0 0 0 0 0 0 0 
0 0 0 0 0 0 0 0 0 
0 0 0 0 0 0 0 0 0 
0 0 0 0 0 0 0 0 0 
0 0 0 0 0 0 0 0 0 
0 0 0 0 0 0 0 0 0 
0 0 0 0 0 0 0 0 0 
0 0 0 0 0 0 0 0 0 
0 0 0 0 0 0 0 0 0 
0 0 0 0 0 0 0 0 0 
0 0 0 0 0 0 0 0 0 
0 0 0 0 0 0 0 0 0 
0 0 0 0 0 0 0 0 0 
0 0 0 0 0 0 0 0 0 
0 0 0 0 0 0 0 0 0 
0 0 0 0 0 0 0 0 0 
0 0 0 0 0 0 0 0 0 
0 0 0 0 0 0 0 0 0 
0 0 0 0 0 0 0 0 0 
0 0 0 0 0 0 0 0 0 
0 0 0 0 0 0 0 0 0 
0 0 0 0 0 0 0 0 0 
0 0 0 0 0 0 0 0 0 
0 0 0 0 0 0 0 0 0 
0 0 0 0 0 0 0 0 0 
0 0 0 0 0 0 0 0 0 
0 0 0 0 0 0 0 0 0 
0 0 0 0 0 0 0 0 0 
0 0 0 0 0 0 0 0 0 
0 0 0 0 0 0 0 0 0 
0 0 0 0 0 0 0 0 0 
0 0 0 0 0 0 0 0 0 
0 0 0 0 0 0 0 0 0 
0 0 0 0 0 0 0 0 0 
0 0 0 0 0 0 0 0 0 
0 0 0 0 0 0 0 0 0 
0 0 0 0 0 0 0 0 0 
0 0 0 0 0 0 0 0 0 
0 0 0 0 0 0 0 0 0 
0 0 0 0 0 0 0 0 0 
0 0 0 0 0 0 0 0 0 
0 0 0 0 0 0 0 0 0 
0 0 0 0 0 0 0 0 0 
0 0 0 0 0 0 0 0 0 
0 0 0 0 0 0 0 0 0 
0 0 0 0 0 0 0 0 0 
0 0 0 0 0 0 0 0 0 
0 0 0 0 0 0 0 0 0 
0 0 0 0 0 0 0 0 0 
0 0 0 0 0 0 0 0 0 
0 0 0 0 0 0 0 0 0 
0 0 0 0 0 0 0 0 0 
0 0 0 0 0 0 0 0 0 
0 0 0 0 0 0 0 0 0 
0 0 0 0 0 0 0 0 0 
0 0 0 0 0 0 0 0 0 
0 0 0 0 0 0 0 0 0 
0 0 0 0 0 
NORMALS Normals float
-0.118152 0.0607327 0.991137 0.291458 0.735282 0.611893 0.174409 0.468047 0.866322 
0.0387297 0.398644 0.916288 -0.0192379 0.409275 0.912208 -0.196819 0.47681 0.856688 
-0.369391 0.734611 0.56912 0.506748 0.796125 0.330744 0.309365 0.62326 0.71822 
0.0893726 0.424386 0.90106 -0.0337921 0.32434 0.945337 0.0191337 0.101322 0.99467 
0.0305454 0.0714376 0.996977 0.0113177 0.0692216 0.997537 -0.0563286 0.103617 0.993021 
-0.108452 0.255277 0.960766 -0.237361 0.451395 0.860175 -0.528576 0.732343 0.429279 
0.576664 0.585852 0.569417 0.309304 0.343971 0.886575 0.110659 0.162735 0.980445 
0.0162721 0.0402577 0.999057 -0.0861961 0.0794205 0.993108 -0.0936824 0.032561 0.99507 
-0.0106248 -0.0610389 0.998079 0.0209886 -0.0700033 0.997326 0.00963692 -0.0962449 0.995311 
0.00773875 0.0274978 0.999592 -0.0406847 0.151847 0.987566 -0.127106 0.0865713 0.988104 
-0.250958 0.333298 0.908808 -0.62496 0.524553 0.57816 0.703801 0.435705 0.561094 
0.365429 0.266009 0.892021 0.0713037 0.0882831 0.99354 0.00444331 -0.0531306 0.998578 
-0.00699866 -0.147717 0.989005 -0.0639812 -0.162226 0.984677 -0.128834 0.00871017 0.991628 
-0.0689587 -0.15884 0.984893 -0.0299754 -0.0217192 0.999315 0.042773 -0.201612 0.978531 
0.147117 -0.0876236 0.98523 -0.0417572 0.0477546 0.997986 0.125161 0.00930577 0.992093 
-0.150394 0.0727211 0.985948 -0.107143 0.0348395 0.993633 -0.458854 0.223267 0.860003 
0.6068 0.116432 0.786281 0.2533 -0.0118954 0.967315 -0.0551687 -0.0993718 0.99352 
-0.120632 -0.15734 0.980149 -0.107671 -0.281767 0.953422 0.076841 -0.365109 0.927788 
-0.0831794 -0.0603614 0.994705 -0.0430769 -0.227983 0.972712 -0.0174491 0.0404843 0.999028 
-0.0696008 -0.102863 0.992258 0.20518 -0.125604 0.970631 0.107375 -0.111205 0.98798 
-0.0425271 -0.0897016 0.99506 -0.244753 0.00177562 0.969584 -0.617813 0.163403 0.76916 
0.4764 -0.0789979 0.875672 0.216795 -0.241405 0.945898 -0.0690424 -0.196641 0.978042 
-0.174283 -0.173283 0.969329 -0.210948 -0.223863 0.951518 0.027757 -0.295839 0.954835 
0.0550151 -0.299699 0.952446 0.119178 -0.15895 0.980067 0.0437943 -0.211232 0.976454 
-0.094622 -0.0375483 0.994805 0.150562 -0.0780219 0.985517 0.151939 -0.116386 0.981514 
-0.0211827 -0.107297 0.994001 -0.240506 -0.109579 0.964443 -0.499654 -0.0729395 0.863149 
0.396366 -0.377063 0.837088 0.197256 -0.352526 0.914776 0.01846 -0.25825 0.965902 
-0.166975 -0.245171 0.954993 -0.235435 -0.207593 0.949461 0.0756622 -0.354403 0.932027 
0.0460323 -0.15285 0.987177 0.116823 -0.329599 0.936866 0.0795381 -0.0626602 0.99486 
0.122397 -0.07492 0.989649 0.0863446 -0.12238 0.98872 -0.0281293 -0.21228 0.976804 
-0.255811 -0.227963 0.939464 -0.467754 -0.266808 0.842627 0.293511 -0.49516 0.817721 
0.016449 -0.538905 0.842206 -0.093426 -0.486089 0.868901 0.17294 -0.163191 0.971319 
0.144372 -0.144508 0.978915 0.0888988 -0.170212 0.981389 0.0194139 -0.245796 0.969127 
-0.103591 -0.283955 0.953225 -0.303037 -0.394539 0.867472 0.0875945 -0.379377 0.921087 
0.0240311 -0.38971 0.920624 -0.0409336 -0.479769 0.876439 -0.198821 -0.573223 0.794913 
0.32583 0.833141 0.44689 0.291426 0.8551 0.428805 0.107382 0.881453 0.459902 
-0.11459 0.885791 0.449715 -0.298825 0.861618 0.410266 -0.401394 0.802888 0.440743 
0.507013 0.797887 0.326059 0.37622 0.855116 0.356699 0.328727 0.851319 0.408893 
0.322558 0.860322 0.394717 -0.421466 0.813235 0.401267 -0.443353 0.810746 0.382268 
-0.54311 0.765688 0.344606 0.508028 0.797075 0.326465 0.618662 0.654534 0.434561 
-0.557847 0.752639 0.349774 -0.664339 0.5938 0.453933 0.662673 0.606075 0.43993 
0.710562 0.45279 0.538593 -0.685433 0.55338 0.473237 0.712841 0.443335 0.543427 
-0.686924 0.380029 0.619446 -0.696134 0.328287 0.638455 -0.735429 0.425447 0.52739 
0.73416 0.189122 0.652106 -0.694086 0.195188 0.692925 -0.88888 0.301797 0.34469 
0.68312 -0.0170881 0.730106 0.980706 0.0254 0.19383 -0.0206681 -0.195805 0.980425 
-0.652583 -0.0299691 0.757124 -0.894149 -0.00953468 0.447669 0.532272 -0.391373 0.750675 
0.446924 -0.446155 0.775374 -0.04262 -0.187739 0.981294 -0.166253 -0.341439 0.925083 
-0.0138924 -0.198516 0.979999 -0.0226865 -0.185255 0.982429 0.0649482 -0.29106 0.954498 
0.0842005 -0.145547 0.985762 -0.514541 -0.267335 0.814727 -0.48995 -0.321952 0.810121 
0.333564 -0.505708 0.795609 0.611744 -0.648515 0.452986 0.288185 -0.529013 0.798182 
0.0126533 -0.593533 0.804711 -0.131898 -0.410731 0.902166 -0.0801996 -0.513259 0.854478 
-0.14917 -0.372278 0.916055 -0.0493796 -0.300897 0.952377 0.0793895 -0.274638 0.958265 
0.143936 -0.153282 0.977644 0.112345 -0.149975 0.982286 0.15388 -0.222248 0.96277 
-0.433381 -0.426398 0.793955 -0.359441 -0.490777 0.793687 -0.590361 -0.517732 0.619215 
0.159607 -0.783474 0.600578 0.00996603 -0.700667 0.713419 0.0019926 -0.627386 0.778706 
0.0888029 -0.516187 0.85186 0.192183 -0.440394 0.876994 0.174971 -0.369632 0.912555 
0.0961016 -0.365205 0.925953 0.127016 -0.324517 0.937313 0.0859205 -0.397775 0.913451 
0.0162645 -0.444147 0.895806 -0.0549961 -0.515363 0.855205 -0.200868 -0.574351 0.793582 
-0.199156 -0.574933 0.793593 -0.450503 -0.733006 0.509656 0.116128 -0.807007 0.579011 
0.0372368 -0.815088 0.578139 -0.0709972 -0.857633 0.509338 -0.20962 -0.903458 0.37393 
0.372329 0.908854 -0.188031 0.28443 0.943333 -0.170945 0.104025 0.977441 -0.183815 
-0.121245 0.974264 -0.190022 -0.289283 0.939794 -0.181944 -0.41509 0.89286 -0.174647 
0.489906 0.860581 -0.13926 0.392683 0.907099 -0.151565 0.368394 0.914483 -0.167351 
0.364548 0.917208 -0.160733 0.316053 0.863618 -0.392778 -0.453076 0.87625 -0.164034 
-0.374008 0.857672 -0.352869 -0.476357 0.865433 -0.155272 -0.540438 0.827954 -0.149725 
0.503594 0.853646 -0.13297 0.598264 0.798708 -0.0643858 0.479977 0.858678 -0.179705 
-0.561168 0.816617 -0.135011 -0.51078 0.82242 -0.250457 -0.625513 0.779123 -0.041241 
0.67634 0.736252 -0.0223165 0.760883 0.648848 0.00738096 -0.687619 0.725835 0.0185215 
-0.763145 0.635178 0.118987 0.828654 0.557924 0.0453179 -0.805669 0.561504 0.188707 
-0.89097 0.317674 0.324432 0.954411 0.291651 0.0635544 0.989761 0.11193 0.0885725 
-0.893559 0.304902 0.329524 0.993991 0.0223874 0.107143 0.982962 -0.14653 0.110972 
0.996699 0.0516619 -0.0626196 -0.926617 -0.00753607 0.375932 -0.904182 -0.191007 0.382063 
0.928482 -0.346574 0.133442 -0.900078 -0.206389 0.383748 -0.906503 -0.206146 0.36845 
0.664594 -0.662916 0.344758 0.614039 -0.709734 0.345302 0.419494 -0.807586 0.414522 
-0.749079 -0.532189 0.394533 -0.627138 -0.686489 0.36801 0.33764 -0.821326 0.459808 
0.475429 -0.850228 0.22601 0.203065 -0.835104 0.51124 0.0526083 -0.782679 0.620199 
0.044443 -0.71305 0.699703 0.120134 -0.637047 0.761406 0.190043 -0.699183 0.689222 
0.169499 -0.801582 0.573356 -0.318704 -0.89224 0.319899 -0.54373 -0.772224 0.328675 
-0.470805 -0.824019 0.315176 0.16663 -0.893531 0.416938 0.12593 -0.861844 0.491291 
0.149252 -0.850613 0.504165 0.161748 -0.811834 0.561038 0.164685 -0.81856 0.550308 
0.109796 -0.853877 0.508762 0.0198792 -0.888304 0.458826 -0.084517 -0.918694 0.385822 
-0.225442 -0.912113 0.342382 -0.212232 -0.913562 0.346932 0.251949 0.79499 -0.551826 
0.0916474 0.825294 -0.557216 -0.0994831 0.827377 -0.552767 -0.251222 0.809109 -0.531253 
0.320399 0.835208 -0.446958 0.27786 0.831971 -0.480226 0.257978 0.799309 -0.542727 
0.27201 0.818019 -0.506809 0.239969 0.792928 -0.560072 0.0802553 0.800704 -0.59366 
-0.0824488 0.797188 -0.598075 -0.279262 0.807871 -0.518997 -0.237329 0.802091 -0.548019 
-0.333819 0.812792 -0.477425 -0.420072 0.788706 -0.448868 0.535619 0.77067 -0.345226 
0.332725 0.835347 -0.437596 0.404364 0.835065 -0.373036 0.311635 0.835612 -0.452367 
0.253603 0.844848 -0.471082 -0.437767 0.7925 -0.424621 -0.397711 0.797687 -0.453344 
-0.447549 0.810322 -0.378256 -0.52031 0.811093 -0.267219 0.572035 0.743356 -0.346696 
0.730922 0.604734 -0.316308 0.544447 0.753472 -0.368587 -0.545968 0.799728 -0.249707 
-0.506107 0.802101 -0.317002 -0.668564 0.729162 -0.146101 0.740709 0.595763 -0.31051 
0.726794 0.600926 -0.332654 -0.743046 0.66202 -0.0980392 -0.876655 0.480473 -0.0249441 
0.895905 0.31484 -0.313416 -0.913808 0.406145 -0.00091837 0.955463 0.0885372 -0.281518 
-0.998664 0.0491524 0.0159682 0.94032 -0.255279 -0.225012 -0.975045 -0.221529 0.014552 
-0.881487 -0.471966 -0.01512 0.807085 -0.579053 -0.115373 0.71882 -0.69249 -0.0612905 
0.758338 -0.509714 -0.406344 -0.815089 -0.578496 -0.0311867 -0.617554 -0.782693 -0.0775788 
0.540267 -0.839845 0.0526541 0.491849 -0.868418 0.0627233 0.549739 -0.786304 -0.281979 
0.289172 -0.946019 0.146381 0.233816 -0.936274 0.262148 -0.341894 -0.932523 -0.116227 
-0.553979 -0.827593 -0.0905419 -0.454892 -0.883637 -0.110723 0.203603 -0.921408 0.330989 
0.180069 -0.912292 0.36783 0.110003 -0.922505 0.369978 0.0850652 -0.954523 0.285744 
0.0655528 -0.984058 0.165327 0.0346648 -0.996824 0.0717016 -0.0469122 -0.998899 -0.000921777 
-0.151754 -0.985694 -0.0733355 -0.293266 -0.949107 -0.114848 -0.251488 -0.960036 -0.12282 
-0.24996 -0.928767 -0.273701 0.264865 0.819747 -0.5078 0.202171 0.819168 -0.536741 
0.0563976 0.801189 -0.595747 -0.066267 0.779815 -0.622493 -0.185615 0.790293 -0.583939 
-0.312515 0.790253 -0.5271 0.391259 0.810102 -0.436637 0.294857 0.842987 -0.449925 
0.253467 0.836041 -0.486611 0.240596 0.847874 -0.472465 0.255242 0.805171 -0.535305 
0.162664 0.756414 -0.633544 -0.00613987 0.715122 -0.698973 -0.0823534 0.678482 -0.729986 
-0.154625 0.703341 -0.693832 -0.33117 0.796972 -0.505136 -0.295573 0.770012 -0.565436 
-0.350388 0.807042 -0.475301 -0.374007 0.831187 -0.411396 0.434419 0.785574 -0.44063 
0.573798 0.679037 -0.457892 0.399499 0.794369 -0.457579 -0.209549 0.637009 -0.741828 
-0.438522 0.80785 -0.393799 -0.344045 0.773796 -0.531858 -0.479556 0.786208 -0.389748 
-0.612955 0.710004 -0.346671 0.65639 0.605808 -0.449609 0.773176 0.421691 -0.473683 
0.589806 0.579164 -0.562759 -0.641278 0.685722 -0.344307 -0.611676 0.674427 -0.413523 
-0.83278 0.414842 -0.366583 0.815937 0.325729 -0.477648 0.788413 0.324427 -0.52264 
-0.83498 0.410172 -0.366835 -0.832555 0.409783 -0.372734 0.848139 0.103431 -0.51958 
0.745715 0.090524 -0.660087 -0.937435 0.0119645 -0.347955 -0.894877 0.00700791 -0.446258 
0.846219 -0.220773 -0.484946 0.756641 -0.445622 -0.478452 0.721604 -0.228747 -0.653424 
-0.876682 -0.249067 -0.411577 -0.868026 -0.271477 -0.41573 -0.868832 -0.250911 -0.42682 
0.736816 -0.485291 -0.47074 0.554863 -0.746454 -0.367333 0.53539 -0.431045 -0.726332 
-0.282918 -0.531325 -0.798531 -0.661596 -0.595747 -0.455386 -0.547885 -0.692439 -0.469414 
-0.508933 -0.627655 -0.589098 0.543737 -0.759139 -0.357852 0.42511 -0.866711 -0.260947 
0.410841 -0.653501 -0.635725 0.331021 -0.927807 -0.172045 -0.0790765 -0.403341 -0.911626 
-0.10381 -0.498709 -0.860531 -0.232245 -0.807338 -0.542464 -0.162926 -0.590002 -0.790793 
-0.290466 -0.786548 -0.544951 -0.223802 -0.702089 -0.676005 -0.388462 -0.806018 -0.446579 
-0.382057 -0.80978 -0.445297 -0.380125 -0.803343 -0.458416 0.314541 -0.934835 -0.164762 
0.214728 -0.967884 -0.130742 0.22457 -0.868214 -0.442463 0.0889005 -0.989167 -0.11681 
0.0403301 -0.776694 -0.628586 -0.0201746 -0.97921 -0.201844 -0.0972376 -0.790824 -0.60427 
-0.0585197 -0.947772 -0.313533 -0.087378 -0.792915 -0.603035 -0.0788173 -0.915728 -0.393992 
-0.0925172 -0.776088 -0.623801 -0.141997 -0.872927 -0.466727 -0.152711 -0.789797 -0.594054 
-0.205782 -0.832963 -0.513641 -0.20436 -0.833531 -0.513286 -0.204235 -0.830443 -0.518316 
0.248928 0.756917 -0.604244 0.156222 0.700049 -0.696797 0.186603 0.652125 -0.734787 
0.13786 0.678438 -0.721607 -0.0232654 0.657905 -0.752741 -0.100746 0.57006 -0.815403 
-0.117777 0.534753 -0.83676 -0.160537 0.546517 -0.821917 0.251746 0.756422 -0.603696 
0.416532 0.673037 -0.611165 0.247838 0.75503 -0.607047 0.124856 0.645261 -0.75369 
0.141199 0.528987 -0.836801 0.0904353 0.44904 -0.888923 -0.0638513 0.405959 -0.911658 
-0.114381 0.402025 -0.908456 -0.0963592 0.402501 -0.910334 -0.194145 0.608496 -0.769441 
-0.130546 0.475776 -0.869824 -0.198194 0.615758 -0.762602 -0.266798 0.625649 -0.733064 
-0.370869 0.647482 -0.66575 0.527827 0.560249 -0.638373 0.595944 0.452229 -0.663581 
0.38081 0.489127 -0.78469 0.13227 0.384041 -0.913793 -0.0114985 0.340759 -0.94008 
0.0418809 0.284604 -0.95773 0.0376214 0.228955 -0.97271 -0.0808625 0.064178 -0.994657 
-0.125446 0.179108 -0.975799 -0.0867572 0.195083 -0.976942 -0.0299495 0.207404 -0.977797 
-0.0508403 0.302967 -0.951644 -0.178088 0.438563 -0.880879 -0.401738 0.625689 -0.66867 
-0.363512 0.616135 -0.698739 -0.587251 0.402989 -0.701951 0.655384 0.284503 -0.699664 
0.571692 0.258313 -0.778744 0.28075 0.155789 -0.947053 0.0819234 0.0778884 -0.99359 
-0.0121636 0.0605008 -0.998094 0.0110725 0.0636947 -0.997908 -0.130396 -0.121031 -0.984047 
0.013526 0.0206133 -0.999696 -0.0737895 0.108808 -0.99132 -0.0109452 0.0640345 -0.997888 
0.0398715 0.100447 -0.994143 -0.0281281 0.157453 -0.987126 -0.231347 0.216123 -0.948562 
-0.630736 0.328952 -0.702825 -0.562468 0.312457 -0.765506 0.648139 0.0503902 -0.759853 
0.489582 0.0172786 -0.871786 0.218998 -0.0453467 -0.974671 0.0396716 -0.0702657 -0.996739 
-0.03644 -0.117324 -0.992425 0.0342828 -0.14476 -0.988873 -0.127425 -0.0980847 -0.986986 
-0.138565 -0.00718218 -0.990327 0.0985917 -0.0588589 -0.993386 -0.0473121 -0.0214002 -0.998651 
-0.0295231 -0.0298466 -0.999118 0.0573111 -0.0306938 -0.997884 -0.0422011 -0.0542024 -0.997638 
-0.21653 -0.0648255 -0.974121 -0.623598 0.00359838 -0.781737 -0.457654 -0.00931637 -0.889081 
0.573582 -0.229517 -0.786337 0.522496 -0.39538 -0.755429 0.459328 -0.22028 -0.86052 
0.192922 -0.206843 -0.959165 0.0121021 -0.20282 -0.979141 -0.0841491 -0.129005 -0.988067 
0.0252322 -0.113071 -0.993266 -0.00306895 -0.200367 -0.979716 -0.0772221 -0.106867 -0.99127 
0.00349739 -0.219395 -0.97563 -0.0465583 -0.219217 -0.974565 -0.0209944 -0.170763 -0.985088 
0.0153876 -0.210782 -0.977412 -0.0593075 -0.257849 -0.964363 -0.275005 -0.515149 -0.811785 
-0.195289 -0.275235 -0.941333 -0.567802 -0.297522 -0.767517 -0.49536 -0.392455 -0.774982 
-0.488199 -0.291939 -0.822456 0.504037 -0.417677 -0.755971 0.370245 -0.544838 -0.752376 
0.258721 -0.363116 -0.895104 0.112186 -0.275742 -0.954663 0.0436561 -0.189473 -0.980915 
-0.0367839 -0.107105 -0.993567 -0.127806 -0.212362 -0.968797 -0.137115 -0.230963 -0.963252 
-0.0222839 -0.277717 -0.960404 -0.0716529 -0.392291 -0.917046 -6.27773e-05 -0.318297 -0.947991 
-0.0749061 -0.434552 -0.897526 -0.0256151 -0.316062 -0.948393 -0.09748 -0.481683 -0.870907 
-0.0395194 -0.391426 -0.91936 -0.260788 -0.519914 -0.813436 -0.14745 -0.527444 -0.836696 
-0.127979 -0.457842 -0.879774 0.339846 -0.574611 -0.744531 0.272919 -0.614322 -0.740353 
0.230941 -0.49781 -0.835973 0.171492 -0.610186 -0.773475 0.0913973 -0.385324 -0.918244 
0.0238509 -0.661718 -0.749373 -0.00250221 -0.315219 -0.949016 -0.12383 -0.58315 -0.802871 
-0.126981 -0.322156 -0.938132 -0.134662 -0.436788 -0.889428 -0.147359 -0.312103 -0.93855 
-0.0866772 -0.365423 -0.926797 -0.0981052 -0.346665 -0.932844 -0.0970013 -0.319656 -0.942555 
-0.121091 0.0664928 -0.990412 -0.11328 0.0601031 -0.991744 -0.127752 0.0567638 -0.99018 
-0.127809 0.0161631 -0.991667 -0.127517 0.0595947 -0.990044 
