# vtk DataFile Version 4.2
vtk output
ASCII
DATASET POLYDATA
POINTS 560 float
-50.2046 -30.3745 -13.0084 -42.2481 -30.3745 -14.9815 -34.2917 -30.3745 -15.5782 
-26.3352 -30.3745 -16.5727 -18.3787 -30.3745 -16.197 -10.4222 -30.3745 -15.4989 
-2.46574 -30.3745 -15.2578 5.49074 -30.3745 -15.2897 13.4472 -30.3745 -15.1028 
21.4037 -30.3745 -15.0058 29.3602 -30.3745 -13.6696 37.3167 -30.3745 -12.6169 
-50.2046 -22.418 -15.2193 -42.2481 -22.418 -16.4078 -34.2917 -22.418 -17.4269 
-26.3352 -22.418 -17.7726 -18.3787 -22.418 -17.5084 -10.4222 -22.418 -17.1973 
-2.46574 -22.418 -16.7149 5.49074 -22.418 -16.4919 13.4472 -22.418 -16.0596 
21.4037 -22.418 -15.6854 29.3602 -22.418 -15.7935 37.3167 -22.418 -14.3974 
45.2731 -22.418 -13.0478 -58.1611 -14.4616 -12.3096 -50.2046 -14.4616 -16.1638 
-42.2481 -14.4616 -17.6547 -34.2917 -14.4616 -17.5907 -26.3352 -14.4616 -17.2566 
-18.3787 -14.4616 -17.0097 -10.4222 -14.4616 -17.4193 -2.46574 -14.4616 -17.719 
5.49074 -14.4616 -17.5147 13.4472 -14.4616 -15.6292 21.4037 -14.4616 -15.316 
29.3602 -14.4616 -15.7744 37.3167 -14.4616 -15.8924 45.2731 -14.4616 -15.1041 
-58.1611 -6.50507 -13.3925 -50.2046 -6.50507 -16.3844 -42.2481 -6.50507 -18.7576 
-34.2917 -6.50507 -17.9474 -26.3352 -6.50507 -16.8562 -18.3787 -6.50507 -15.6826 
-10.4222 -6.50507 -18.0759 -2.46574 -6.50507 -17.7593 5.49074 -6.50507 -19.4485 
13.4472 -6.50507 -17.09 21.4037 -6.50507 -15.3124 29.3602 -6.50507 -16.3885 
37.3167 -6.50507 -16.3341 45.2731 -6.50507 -15.5921 53.2296 -6.50507 -13.6 
-58.1611 1.45141 -14.1606 -50.2046 1.45141 -16.9625 -42.2481 1.45141 -18.2964 
-34.2917 1.45141 -18.6851 -26.3352 1.45141 -17.5948 -18.3787 1.45141 -15.8699 
-10.4222 1.45141 -18.3448 -2.46574 1.45141 -15.0418 5.49074 1.45141 -17.6655 
13.4472 1.45141 -17.0482 21.4037 1.45141 -15.4628 29.3602 1.45141 -16.3857 
37.3167 1.45141 -16.6731 45.2731 1.45141 -15.8887 53.2296 1.45141 -13.7505 
-58.1611 9.40789 -12.8049 -50.2046 9.40789 -16.7399 -42.2481 9.40789 -18.6965 
-34.2917 9.40789 -19.3643 -26.3352 9.40789 -18.3778 -18.3787 9.40789 -17.0488 
-10.4222 9.40789 -16.3148 -2.46574 9.40789 -17.4881 5.49074 9.40789 -16.2573 
13.4472 9.40789 -14.571 21.4037 9.40789 -15.7523 29.3602 9.40789 -17.1263 
37.3167 9.40789 -16.7323 45.2731 9.40789 -15.6264 53.2296 9.40789 -13.2076 
-50.2046 17.3644 -16.0183 -42.2481 17.3644 -18.8226 -34.2917 17.3644 -18.9915 
-26.3352 17.3644 -18.629 -18.3787 17.3644 -17.514 -10.4222 17.3644 -17.0221 
-2.46574 17.3644 -16.9802 5.49074 17.3644 -15.7712 13.4472 17.3644 -15.2159 
21.4037 17.3644 -16.108 29.3602 17.3644 -16.6422 37.3167 17.3644 -16.5266 
45.2731 17.3644 -14.9962 53.2296 17.3644 -13.1383 -50.2046 25.3209 -13.1163 
-42.2481 25.3209 -16.5943 -34.2917 25.3209 -19.0581 -26.3352 25.3209 -18.4473 
-18.3787 25.3209 -17.9965 -10.4222 25.3209 -17.8389 -2.46574 25.3209 -17.5839 
5.49074 25.3209 -16.4778 13.4472 25.3209 -15.9906 21.4037 25.3209 -15.8899 
29.3602 25.3209 -16.142 37.3167 25.3209 -15.2004 45.2731 25.3209 -12.2301 
-42.2481 33.2773 -12.931 -34.2917 33.2773 -16.2498 -26.3352 33.2773 -17.489 
-18.3787 33.2773 -17.3268 -10.4222 33.2773 -17.6477 -2.46574 33.2773 -17.1077 
5.49074 33.2773 -15.8183 13.4472 33.2773 -15.0098 21.4037 33.2773 -14.1569 
29.3602 33.2773 -13.6008 -26.3352 41.2338 -13.5048 -18.3787 41.2338 -15.1062 
-10.4222 41.2338 -15.106 -2.46574 41.2338 -14.5753 5.49074 41.2338 -13.7924 
-50.2046 -31.5824 -12.1808 -42.2481 -34.9905 -12.1808 -42.2481 -38.331 -9.17789 
-34.2917 -36.107 -12.1808 -34.2917 -38.331 -10.4221 -26.3352 -38.3089 -12.1808 
-26.3352 -38.331 -12.1641 -18.3787 -37.9602 -12.1808 -18.3787 -38.331 -11.8952 
-10.4222 -37.259 -12.1808 -10.4222 -38.331 -11.4835 -2.46574 -37.2133 -12.1808 
-2.46574 -38.331 -11.534 5.49074 -38.0459 -12.1808 5.49074 -38.331 -12.0286 
13.4472 -38.2157 -12.1808 13.4472 -38.331 -12.1252 21.4037 -37.0271 -12.1808 
21.4037 -38.331 -11.5114 29.3602 -34.0498 -12.1808 29.3602 -38.331 -9.93334 
37.3167 -31.439 -12.1808 37.3167 -38.331 -8.45444 -51.494 -30.3745 -12.1808 
41.403 -30.3745 -12.1808 45.2731 -27.9152 -12.1808 45.2731 -30.3745 -11.5451 
53.2296 -30.3745 -5.42561 -56.9486 -22.418 -12.1808 -58.1611 -16.0189 -12.1808 
-58.1611 -22.418 -11.4377 48.7491 -22.418 -12.1808 53.2296 -22.418 -10.509 
-58.3544 -14.4616 -12.1808 52.7443 -14.4616 -12.1808 53.2296 -13.3807 -12.1808 
53.2296 -14.4616 -11.9609 61.1861 -14.4616 -6.93861 -59.8614 -6.50507 -12.1808 
56.3846 -6.50507 -12.1808 61.1861 -6.50507 -9.58996 -60.5832 1.45141 -12.1808 
56.4175 1.45141 -12.1808 61.1861 1.45141 -9.35645 -58.9043 9.40789 -12.1808 
-58.1611 14.457 -12.1808 55.0855 9.40789 -12.1808 61.1861 9.40789 -7.5819 
-57.6136 17.3644 -12.1808 -58.1611 17.3644 -11.2871 54.5434 17.3644 -12.1808 
53.2296 19.3237 -12.1808 -51.4529 25.3209 -12.1808 -50.2046 26.9098 -12.1808 
37.3167 31.3899 -12.1808 45.3711 25.3209 -12.1808 45.2731 25.4201 -12.1808 
53.2296 25.3209 -6.23374 -43.508 33.2773 -12.1808 -42.2481 34.1805 -12.1808 
-34.2917 39.2057 -12.1808 13.4472 40.8536 -12.1808 21.4037 37.3836 -12.1808 
34.0021 33.2773 -12.1808 29.3602 35.9539 -12.1808 37.3167 33.2773 -10.7446 
45.2731 33.2773 -5.74152 -29.9506 41.2338 -12.1808 -34.2917 41.2338 -8.86026 
-26.3352 42.909 -12.1808 -18.3787 44.9384 -12.1808 -10.4222 45.0781 -12.1808 
-2.46574 44.4961 -12.1808 12.7682 41.2338 -12.1808 5.49074 43.7229 -12.1808 
13.4472 41.2338 -11.9813 21.4037 41.2338 -9.76441 29.3602 41.2338 -7.13133 
-10.4222 49.1903 -6.08477 -2.46574 49.1903 -6.12915 5.49074 49.1903 -4.88627 
-42.2481 -41.1811 -4.22429 -34.2917 -42.7769 -4.22429 -26.3352 -43.5182 -4.22429 
-18.3787 -44.1755 -4.22429 -10.4222 -44.235 -4.22429 -2.46574 -44.6045 -4.22429 
5.49074 -44.9958 -4.22429 5.49074 -46.2875 3.55644 13.4472 -45.2199 -4.22429 
13.4472 -46.2875 3.51771 21.4037 -44.5026 -4.22429 29.3602 -43.2407 -4.22429 
37.3167 -41.3965 -4.22429 -47.6553 -38.331 -4.22429 -50.2046 -36.729 -4.22429 
44.414 -38.331 -4.22429 45.2731 -37.731 -4.22429 45.2731 -38.331 -1.92637 
53.2296 -31.529 -4.22429 -57.4718 -30.3745 -4.22429 -58.1611 -29.6075 -4.22429 
54.3699 -30.3745 -4.22429 -62.6511 -22.418 -4.22429 59.7045 -22.418 -4.22429 
61.1861 -20.0456 -4.22429 61.1861 -22.418 1.05982 -65.8323 -14.4616 -4.22429 
63.3956 -14.4616 -4.22429 -66.0962 -6.50507 -4.22429 65.5348 -6.50507 -4.22429 
-65.6531 1.45141 -4.22429 65.1359 1.45141 -4.22429 -63.9926 9.40789 -4.22429 
63.5491 9.40789 -4.22429 61.1861 15.3865 -4.22429 -60.6292 17.3644 -4.22429 
-58.1611 21.9709 -4.22429 -58.1611 17.3644 2.85534 60.2276 17.3644 -4.22429 
-56.0595 25.3209 -4.22429 -50.2046 32.1643 -4.22429 54.6617 25.3209 -4.22429 
53.2296 26.9104 -4.22429 -49.0765 33.2773 -4.22429 -42.2481 38.7721 -4.22429 
37.3167 39.0785 -4.22429 46.4401 33.2773 -4.22429 45.2731 34.2159 -4.22429 
-38.2787 41.2338 -4.22429 -34.2917 43.4349 -4.22429 -34.2917 41.2338 3.34702 
-26.3352 46.6597 -4.22429 -18.3787 49.0427 -4.22429 13.4472 47.9286 -4.22429 
21.4037 45.8814 -4.22429 33.2214 41.2338 -4.22429 29.3602 43.0022 -4.22429 
-17.2009 49.1903 -4.22429 -10.4222 50.0132 -4.22429 -10.4222 49.1903 0.224325 
-2.46574 50.1341 -4.22429 7.2868 49.1903 -4.22429 5.49074 49.5064 -4.22429 
13.4472 49.1903 3.58181 5.49074 -46.3121 3.73219 13.4472 -46.3126 3.73219 
-42.2481 -40.7034 3.73219 -34.2917 -42.7891 3.73219 -26.3352 -44.0318 3.73219 
-18.3787 -44.9814 3.73219 -10.4222 -45.5369 3.73219 4.7559 -46.2875 3.73219 
-2.46574 -46.0392 3.73219 5.49074 -46.2875 3.7898 13.6772 -46.2875 3.73219 
13.4472 -46.2875 3.78747 21.4037 -45.4583 3.73219 29.3602 -44.407 3.73219 
37.3167 -42.5724 3.73219 45.2731 -39.1854 3.73219 -46.4068 -38.331 3.73219 
-50.2046 -36.013 3.73219 -42.2481 -38.331 7.0423 -34.2917 -38.331 11.4827 
37.3167 -38.331 9.88089 46.5768 -38.331 3.73219 45.2731 -38.331 5.56925 
53.2296 -33.1974 3.73219 -56.2296 -30.3745 3.73219 -58.1611 -27.6224 3.73219 
-50.2046 -30.3745 9.52907 56.0762 -30.3745 3.73219 53.2296 -30.3745 8.88282 
61.1861 -23.1908 3.73219 -61.1648 -22.418 3.73219 -58.1611 -22.418 7.15115 
-50.2046 -22.418 11.6101 61.7043 -22.418 3.73219 61.1861 -22.418 4.75016 
-63.4998 -14.4616 3.73219 -58.1611 -14.4616 9.25308 64.7681 -14.4616 3.73219 
61.1861 -14.4616 10.7252 -63.6936 -6.50507 3.73219 -58.1611 -6.50507 9.63577 
66.5787 -6.50507 3.73219 -63.6538 1.45141 3.73219 -58.1611 1.45141 9.31444 
66.0577 1.45141 3.73219 -61.5719 9.40789 3.73219 -58.1611 16.7147 3.73219 
-58.1611 9.40789 7.46884 -50.2046 9.40789 11.5674 64.326 9.40789 3.73219 
61.1861 17.0608 3.73219 61.1861 9.40789 9.6734 -57.7096 17.3644 3.73219 
-50.2046 17.3644 10.1865 61.0449 17.3644 3.73219 -52.7404 25.3209 3.73219 
-50.2046 28.2321 3.73219 -50.2046 25.3209 6.02271 -42.2481 25.3209 10.2035 
55.1993 25.3209 3.73219 53.2296 27.4938 3.73219 53.2296 25.3209 7.11474 
-45.295 33.2773 3.73219 -42.2481 35.8381 3.73219 -42.2481 33.2773 6.29206 
-34.2917 41.0773 3.73219 -34.2917 33.2773 9.86439 37.3167 39.8554 3.73219 
46.9511 33.2773 3.73219 45.2731 34.6339 3.73219 45.2731 33.2773 6.38781 
-34.0026 41.2338 3.73219 -26.3352 44.4067 3.73219 -26.3352 41.2338 7.9428 
-18.3787 46.9859 3.73219 -18.3787 41.2338 9.96163 -10.4222 48.4119 3.73219 
21.4037 47.0298 3.73219 34.8063 41.2338 3.73219 29.3602 43.9784 3.73219 
29.3602 41.2338 9.74798 -4.56287 49.1903 3.73219 -2.46574 49.4238 3.73219 
-2.46574 49.1903 4.19578 5.49074 49.7726 3.73219 5.49074 49.1903 4.87892 
13.5227 49.1903 3.73219 13.4472 49.2101 3.73219 13.4472 49.1903 3.77976 
-26.3352 -38.6193 11.6887 -18.3787 -40.1591 11.6887 -10.4222 -40.4884 11.6887 
-2.46574 -41.0663 11.6887 5.49074 -41.3017 11.6887 13.4472 -41.1234 11.6887 
21.4037 -41.2525 11.6887 29.3602 -39.5286 11.6887 -42.2481 -31.1795 11.6887 
-31.3913 -38.331 11.6887 -34.2917 -38.0444 11.6887 -26.3352 -38.331 11.9115 
-18.3787 -38.331 13.0307 -10.4222 -38.331 13.3877 -2.46574 -38.331 13.879 
5.49074 -38.331 14.082 13.4472 -38.331 13.972 21.4037 -38.331 13.8941 
32.7598 -38.331 11.6887 29.3602 -38.331 12.6921 37.3167 -36.3736 11.6887 
45.2731 -32.6481 11.6887 -43.5237 -30.3745 11.6887 -42.2481 -30.3745 12.0858 
[...]
POINT_DATA 560
SCALARS ImageScalars float
LOOKUP_TABLE default
0 0 0 0 0 0 0 0 0 
0 0 0 0 0 0 0 0 0 
0 0 0 0 0 0 0 0 0 
0 0 0 0 0 0 0 0 0 
0 0 0 0 0 0 0 0 0 
0 0 0 0 0 0 0 0 0 
0 0 0 0 0 0 0 0 0 
0 0 0 0 0 0 0 0 0 
0 0 0 0 0 0 0 0 0 
0 0 0 0 0 0 0 0 0 
0 0 0 0 0 0 0 0 0 
0 0 0 0 0 0 0 0 0 
0 0 0 0 0 0 0 0 0 
0 0 0 0 0 0 0 0 0 
0 0 0 0 0 0 0 0 0 
0 0 0 0 0 0 0 0 0 
0 0 0 0 0 0 0 0 0 
0 0 0 0 0 0 0 0 0 
0 0 0 0 0 0 0 0 0 
0 0 0 0 0 0 0 0 0 
0 0 0 0 0 0 0 0 0 
0 0 0 0 0 0 0 0 0 
0 0 0 0 0 0 0 0 0 
0 0 0 0 0 0 0 0 0 
0 0 0 0 0 0 0 0 0 
0 0 0 0 0 0 0 0 0 
0 0 0 0 0 0 0 0 0 
0 0 0 0 0 0 0 0 0 
0 0 0 0 0 0 0 0 0 
0 0 0 0 0 0 0 0 0 
0 0 0 0 0 0 0 0 0 
0 0 0 0 0 0 0 0 0 
0 0 0 0 0 0 0 0 0 
0 0 0 0 0 0 0 0 0 
0 0 0 0 0 0 0 0 0 
0 0 0 0 0 0 0 0 0 
0 0 0 0 0 0 0 0 0 
0 0 0 0 0 0 0 0 0 
0 0 0 0 0 0 0 0 0 
0 0 0 0 0 0 0 0 0 
0 0 0 0 0 0 0 0 0 
0 0 0 0 0 0 0 0 0 
0 0 0 0 0 0 0 0 0 
0 0 0 0 0 0 0 0 0 
0 0 0 0 0 0 0 0 0 
0 0 0 0 0 0 0 0 0 
0 0 0 0 0 0 0 0 0 
0 0 0 0 0 0 0 0 0 
0 0 0 0 0 0 0 0 0 
0 0 0 0 0 0 0 0 0 
0 0 0 0 0 0 0 0 0 
0 0 0 0 0 0 0 0 0 
0 0 0 0 0 0 0 0 0 
0 0 0 0 0 0 0 0 0 
0 0 0 0 0 0 0 0 0 
0 0 0 0 0 0 0 0 0 
0 0 0 0 0 0 0 0 0 
0 0 0 0 0 0 0 0 0 
0 0 0 0 0 0 0 0 0 
0 0 0 0 0 0 0 0 0 
0 0 0 0 0 0 0 0 0 
0 0 0 0 0 0 0 0 0 
0 0 
NORMALS Normals float
-0.407784 -0.445373 -0.797092 -0.176921 -0.369568 -0.912205 -0.0842471 -0.352522 -0.932004 
-0.0350117 -0.318403 -0.947309 0.0622484 -0.313992 -0.947383 0.0570893 -0.323946 -0.944351 
0.0123949 -0.293428 -0.955901 0.00939235 -0.260031 -0.965555 0.0170336 -0.23431 -0.972013 
0.0864873 -0.240537 -0.966779 0.131808 -0.30337 -0.943712 0.119643 -0.296372 -0.947549 
-0.324312 -0.233849 -0.91659 -0.129089 -0.144195 -0.981093 -0.0790367 -0.11248 -0.990506 
-0.00687443 -0.0342703 -0.999389 0.0365675 -0.0485731 -0.99815 0.0485841 -0.111716 -0.992552 
0.0448721 -0.146969 -0.988123 0.0406039 -0.132661 -0.990329 0.0503321 -0.0304997 -0.998267 
0.0170336 -0.0162641 -0.999723 0.0771947 -0.12466 -0.989192 0.156041 -0.181035 -0.971019 
0.213029 -0.231716 -0.949171 -0.557905 -0.0944304 -0.824515 -0.277794 -0.058156 -0.958879 
-0.100734 -0.144636 -0.984344 0.0248184 -0.0334206 -0.999133 0.0364299 0.0569706 -0.997711 
-0.0102344 0.115096 -0.993302 -0.0443872 -0.0471153 -0.997903 -0.00651487 -0.0653456 -0.997841 
0.133293 -0.172548 -0.975941 0.137121 -0.039764 -0.989756 -0.00919404 0.0232695 -0.999687 
-0.0360358 -0.037412 -0.99865 0.0456817 -0.119862 -0.991739 0.22017 -0.141526 -0.96514 
-0.484563 -0.101596 -0.868837 -0.290164 -0.0486503 -0.95574 -0.095528 -0.038944 -0.994665 
0.116407 -0.0682309 -0.990855 0.140933 -0.0209081 -0.989798 -0.0460425 0.0720071 -0.996341 
-0.151668 -0.0611813 -0.986536 -0.0843665 0.131389 -0.987734 0.0150185 -0.0338104 -0.999315 
0.280088 -0.106365 -0.954063 0.0129532 -0.00957446 -0.99987 -0.0615963 -0.0387438 -0.997349 
0.0487787 -0.0477812 -0.997666 0.156706 -0.0498747 -0.986385 0.330543 -0.102359 -0.938224 
-0.536674 0.0300117 -0.843256 -0.223399 -0.0219342 -0.97448 -0.102251 -0.000489437 -0.994759 
0.0439741 -0.0889859 -0.995062 0.176047 -0.0951178 -0.979775 -0.00634042 -0.0832662 -0.996507 
-0.00923286 0.133618 -0.99099 0.0375184 -0.00734098 -0.999269 -0.107395 0.211458 -0.971469 
0.154312 0.187444 -0.970079 0.0187429 -0.0261207 -0.999483 -0.07731 -0.0470397 -0.995897 
0.0302041 -0.0249842 -0.999231 0.171614 -0.00239771 -0.985161 0.355559 0.0209724 -0.934419 
-0.598811 0.127795 -0.790629 -0.330894 0.0579052 -0.94189 -0.148207 -0.0304508 -0.988487 
0.0147452 -0.0195471 -0.9997 0.139403 -0.0646412 -0.988124 0.132097 -0.105176 -0.985641 
-0.0316345 0.0530025 -0.998093 -0.00857162 -0.0788869 -0.996847 0.196532 0.104477 -0.974915 
0.0214435 0.0806879 -0.996509 -0.164385 -0.0415495 -0.985521 -0.055767 -0.0163859 -0.998309 
0.0908186 0.00850008 -0.995831 0.199708 0.0566688 -0.978215 0.406525 0.0377813 -0.912858 
-0.387555 0.172578 -0.905549 -0.193118 0.124573 -0.973235 0.0130738 0.0197664 -0.999719 
0.0920555 -0.0044682 -0.995744 0.101173 -0.058666 -0.993138 0.0342669 -0.0982163 -0.994575 
0.0747431 -0.00575898 -0.997186 0.113199 -0.0187325 -0.993396 -0.0227926 -0.0920471 -0.995494 
-0.0896334 -0.00710665 -0.995949 -0.026663 0.0595896 -0.997867 0.109643 0.105077 -0.988401 
0.224033 0.183675 -0.957117 0.494521 0.25921 -0.829614 -0.535063 0.447023 -0.716853 
-0.297376 0.287589 -0.910417 -0.100805 0.171699 -0.979979 0.0629836 0.0643837 -0.995936 
0.0378179 0.0105292 -0.999229 0.0258122 -0.0372906 -0.998971 0.0853094 -0.00919276 -0.996312 
0.101942 -0.00254989 -0.994787 0.0359146 0.0136702 -0.999261 -0.00807845 0.113795 -0.993471 
0.0481827 0.19229 -0.980154 0.206207 0.283332 -0.93659 0.422749 0.399253 -0.81356 
-0.470298 0.554552 -0.686508 -0.204393 0.409738 -0.88901 -0.0695473 0.283443 -0.956464 
-0.0106574 0.177844 -0.984001 0.0133294 0.152237 -0.988254 0.113062 0.17178 -0.978626 
0.130135 0.164905 -0.977687 0.0968641 0.235635 -0.967002 0.0915864 0.316807 -0.944058 
0.16238 0.396519 -0.903552 -0.252941 0.584325 -0.771093 -0.0948152 0.479066 -0.872643 
0.0312421 0.468844 -0.882728 0.0798297 0.460144 -0.884248 0.150571 0.430651 -0.88987 
-0.435435 -0.515754 -0.737831 -0.207425 -0.561851 -0.800811 -0.294255 -0.766922 -0.570303 
-0.105189 -0.594573 -0.797131 -0.12065 -0.731862 -0.670687 -0.0650522 -0.638629 -0.76676 
-0.0650797 -0.640006 -0.765609 0.0313808 -0.608701 -0.792779 0.0297416 -0.630444 -0.775665 
0.0247157 -0.558209 -0.829332 0.0156974 -0.612458 -0.790347 -0.0196202 -0.519933 -0.853981 
-0.0258871 -0.575098 -0.817675 -0.0266516 -0.527309 -0.849256 -0.0280337 -0.541876 -0.83999 
0.0260466 -0.514136 -0.857313 0.0259763 -0.520095 -0.853713 0.101091 -0.467253 -0.878325 
0.104569 -0.532592 -0.839887 0.134164 -0.420245 -0.897438 0.149568 -0.632904 -0.759646 
0.136204 -0.336345 -0.931837 0.284837 -0.704193 -0.650369 -0.467161 -0.482286 -0.741053 
0.236067 -0.364206 -0.900903 0.304537 -0.364748 -0.879895 0.359219 -0.436568 -0.824845 
0.620326 -0.593413 -0.51289 -0.5376 -0.274762 -0.797177 -0.565168 -0.131119 -0.814489 
-0.605501 -0.297967 -0.737959 0.317445 -0.266855 -0.909955 0.489512 -0.339519 -0.803184 
-0.567865 -0.0958742 -0.817519 0.420118 -0.141814 -0.89632 0.418786 -0.135388 -0.897936 
0.435598 -0.146235 -0.888183 0.737631 -0.318079 -0.59559 -0.595268 -0.0890277 -0.79858 
0.432078 -0.105587 -0.895634 0.665946 -0.116386 -0.736865 -0.641602 0.0466555 -0.765617 
0.460279 0.0388781 -0.886923 0.704177 0.0837656 -0.705066 -0.644671 0.135519 -0.752353 
-0.692702 0.220489 -0.686694 0.465993 0.0687792 -0.882111 0.777831 0.274081 -0.565561 
-0.711306 0.272864 -0.647757 -0.767788 0.30358 -0.564217 0.55436 0.279158 -0.784064 
0.52569 0.33208 -0.783181 -0.579849 0.48021 -0.658159 -0.564657 0.50207 -0.655048 
0.28698 0.517604 -0.806057 0.424932 0.40171 -0.81121 0.423752 0.402092 -0.811638 
0.674172 0.608607 -0.418438 -0.508311 0.577854 -0.638517 -0.48809 0.589696 -0.643449 
-0.322743 0.685615 -0.652509 0.202026 0.498587 -0.842969 0.138237 0.46541 -0.874233 
0.250944 0.506162 -0.825123 0.202014 0.497392 -0.843677 0.338076 0.613489 -0.713678 
0.567329 0.735227 -0.370916 -0.309641 0.673908 -0.670798 -0.398532 0.838798 -0.370932 
-0.277489 0.662908 -0.695379 -0.103209 0.704506 -0.702154 0.018434 0.674092 -0.738418 
0.0581769 0.62634 -0.777376 0.201517 0.505208 -0.83914 0.14524 0.561794 -0.814428 
0.207756 0.517248 -0.830236 0.21165 0.662314 -0.71871 0.325261 0.80992 -0.488093 
-0.0586017 0.970482 -0.233945 0.0371109 0.951688 -0.304815 0.131315 0.947337 -0.292078 
-0.345231 -0.91114 -0.225031 -0.138802 -0.951221 -0.275522 -0.0819194 -0.953598 -0.289723 
-0.0465157 -0.941338 -0.334243 -0.0241015 -0.923524 -0.382782 -0.0427826 -0.919482 -0.390798 
-0.0343091 -0.925783 -0.376496 -0.0173443 -0.990711 0.134876 0.0303682 -0.930182 -0.36584 
0.0550792 -0.985847 0.158343 0.1106 -0.934095 -0.339461 0.186156 -0.898781 -0.39691 
0.311209 -0.865655 -0.392161 -0.485932 -0.849586 -0.205119 -0.548661 -0.81181 -0.199838 
0.491882 -0.759542 -0.425614 0.514725 -0.741047 -0.431171 0.53079 -0.80476 -0.265751 
0.622742 -0.628186 -0.46645 -0.719414 -0.664805 -0.201191 -0.741979 -0.640323 -0.198629 
0.648023 -0.599595 -0.46963 -0.895571 -0.408679 -0.175882 0.733297 -0.489263 -0.47212 
0.770723 -0.442982 -0.457987 0.859327 -0.508462 -0.0549831 -0.960578 -0.22109 -0.168551 
0.855229 -0.305255 -0.418811 -0.992423 0.0145569 -0.122006 0.903157 -0.10334 -0.416688 
-0.987446 0.129387 -0.0906042 0.91346 0.114721 -0.390421 -0.953473 0.292781 -0.0718849 
0.887034 0.292928 -0.35688 0.836039 0.421772 -0.350923 -0.896014 0.444015 -0.00306278 
-0.852208 0.523109 0.00990173 -0.75443 0.449323 0.478481 0.818451 0.460663 -0.343404 
-0.809012 0.587762 -0.00591259 -0.71447 0.699513 0.014636 0.728099 0.614674 -0.303393 
0.704648 0.644025 -0.29783 -0.69372 0.720148 0.0117858 -0.576674 0.81672 -0.020376 
0.474815 0.816705 -0.327939 0.597797 0.752857 -0.2754 0.580247 0.766593 -0.275042 
-0.501406 0.864462 -0.0360117 -0.434138 0.898574 -0.0639434 -0.440182 0.778166 0.447992 
-0.326933 0.943875 -0.0470641 -0.201041 0.975195 -0.0926108 0.208612 0.906163 -0.367898 
0.285201 0.879764 -0.380362 0.414984 0.853565 -0.314983 0.359227 0.874541 -0.325783 
-0.181709 0.978502 -0.0975498 -0.070444 0.990116 -0.12128 -0.104261 0.982117 0.156765 
0.0315543 0.98041 -0.194422 0.146036 0.949855 -0.276493 0.128143 0.958148 -0.255991 
0.171235 0.975457 0.138425 -0.0169564 -0.989305 0.144873 0.0554509 -0.983684 0.171146 
-0.390163 -0.859055 0.331356 -0.20101 -0.94523 0.257169 -0.134385 -0.969413 0.205378 
-0.0974835 -0.981348 0.16569 -0.0655881 -0.986936 0.14716 -0.0197686 -0.989408 0.14381 
-0.0474322 -0.989752 0.134687 -0.0168092 -0.988833 0.148075 0.057246 -0.983844 0.169631 
0.0551595 -0.98316 0.174225 0.114422 -0.985372 0.126294 0.176898 -0.97111 0.160166 
0.324498 -0.926496 0.190544 0.50315 -0.851742 0.146203 -0.47578 -0.811267 0.339824 
-0.545214 -0.760407 0.352879 -0.416961 -0.723218 0.550545 -0.194983 -0.639208 0.743905 
0.268374 -0.742772 0.613405 0.529053 -0.836186 0.144557 0.494386 -0.826205 0.270124 
0.655043 -0.744594 0.128446 -0.706471 -0.585468 0.39765 -0.753343 -0.497381 0.430216 
-0.472431 -0.449869 0.75791 0.728579 -0.672839 0.128298 0.606014 -0.614854 0.504681 
0.85757 -0.49652 0.134317 -0.841382 -0.349425 0.412284 -0.667988 -0.351786 0.655773 
-0.412586 -0.166871 0.895504 0.865056 -0.482737 0.136539 0.850416 -0.485698 0.202214 
-0.853303 -0.153066 0.498443 -0.67528 -0.141967 0.723769 0.9478 -0.283383 0.146184 
0.717209 -0.29411 0.631752 -0.850365 -0.00678055 0.526149 -0.593466 0.00188768 0.804857 
0.985446 -0.0783822 0.150839 -0.899538 0.12803 0.41766 -0.543314 0.123682 0.830369 
0.976084 0.135936 0.169648 -0.817862 0.319032 0.478874 -0.725087 0.432197 0.536148 
-0.62804 0.31299 0.712463 -0.363405 0.125938 0.92308 0.932302 0.311498 0.183801 
0.860551 0.471643 0.192368 0.766022 0.313505 0.561182 -0.717955 0.437617 0.541325 
-0.482658 0.287122 0.827407 0.857025 0.477614 0.193372 -0.664992 0.512911 0.542871 
-0.632216 0.557248 0.53831 -0.585501 0.496273 0.641016 -0.40273 0.347938 0.846609 
0.74701 0.636725 0.191199 0.7146 0.6734 0.18942 0.698065 0.603665 0.385089 
-0.579096 0.632158 0.514804 -0.533765 0.673365 0.511541 -0.498586 0.580072 0.64415 
-0.435657 0.762836 0.477791 -0.337696 0.480693 0.809256 0.512787 0.845034 0.151551 
0.616745 0.766167 0.180595 0.595482 0.783845 0.176036 0.592552 0.738917 0.320757 
-0.432197 0.766921 0.474383 -0.315677 0.83144 0.457226 -0.285328 0.694178 0.660837 
-0.220094 0.863905 0.453019 -0.175941 0.621089 0.763737 -0.131345 0.909089 0.395354 
0.298189 0.947231 0.117626 0.483819 0.863408 0.142985 0.411329 0.902046 0.130852 
0.389784 0.798227 0.459241 -0.0913703 0.942643 0.321054 -0.0783367 0.951047 0.298952 
-0.0804165 0.943228 0.322265 0.0154553 0.972044 0.234288 0.00882061 0.95536 0.295313 
0.171516 0.97423 0.146486 0.170256 0.97441 0.146759 0.169816 0.974107 0.149258 
-0.0904966 -0.579369 0.810026 -0.0843444 -0.641065 0.762838 -0.0414583 -0.640686 0.766683 
-0.0377415 -0.659611 0.750659 -0.00235267 -0.67143 0.741064 0.00218828 -0.672513 0.740082 
0.0748999 -0.692017 0.717985 0.201469 -0.649396 0.733277 -0.317919 -0.400195 0.859518 
-0.154826 -0.609716 0.777352 -0.193668 -0.618968 0.761165 -0.0871706 -0.565335 0.820242 
-0.0848183 -0.55147 0.829872 -0.0496474 -0.528377 0.847557 -0.0392495 -0.505044 0.8622 
-0.0051042 -0.504259 0.863537 0.0106984 -0.535483 0.844478 0.0704443 -0.549553 0.832484 
0.217501 -0.638917 0.737888 0.186653 -0.601958 0.776407 0.236707 -0.619662 0.748324 
0.34577 -0.589828 0.729758 -0.327509 -0.380477 0.864855 -0.307571 -0.382837 0.871112 
-0.179032 -0.23771 0.954694 -0.11278 -0.256532 0.959933 -0.0471637 -0.209817 0.976602 
-0.0370108 -0.214131 0.976104 -0.0246699 -0.175568 0.984158 -0.0295223 -0.200559 0.979237 
-0.0324216 -0.245023 0.968975 0.0109646 -0.265112 0.964155 0.0995048 -0.327338 0.939653 
0.186121 -0.41248 0.891751 0.427814 -0.539352 0.72531 0.321259 -0.519171 0.791994 
0.535488 -0.408536 0.739156 -0.408036 -0.165606 0.89782 -0.403015 -0.159586 0.901172 
-0.23045 -0.135267 0.963637 -0.0712385 -0.0917349 0.993232 -0.0654203 -0.0359465 0.99721 
-0.0583886 0.00293328 0.99829 -0.0287158 -0.0351658 0.998969 -0.0346024 -0.0779004 0.99636 
-0.0714909 -0.132829 0.988557 -0.0458338 -0.0843439 0.995382 -0.0196824 -0.0872504 0.995992 
-0.0120797 -0.110802 0.993769 0.123325 -0.197703 0.972473 0.27763 -0.245816 0.928707 
0.571389 -0.342551 0.745771 0.518584 -0.323941 0.791285 -0.400939 -0.111283 0.909321 
-0.272373 -0.084536 0.958471 -0.181092 0.00818495 0.983432 -0.0831377 0.00556983 0.996522 
-0.0120943 0.0726047 0.997287 -0.0504346 0.141481 0.988655 -0.121676 0.0210398 0.992347 
-0.120635 -0.0997558 0.987672 -0.0406131 -0.129441 0.990755 0.0158048 -0.0211602 0.999651 
-0.0199338 -0.00705796 0.999776 -0.0268589 -0.051131 0.998331 0.0338473 -0.0604856 0.997595 
0.145026 -0.16977 0.974754 0.653021 -0.283896 0.702116 0.414579 -0.197636 0.888293 
0.679887 -0.239127 0.693233 -0.424068 0.0185835 0.90544 -0.308031 0.00661539 0.951353 
-0.139972 0.00832738 0.99012 -0.0106568 0.0273386 0.999569 0.0655753 0.0579966 0.996161 
-0.0848534 0.0916045 0.992174 -0.283707 0.0953049 0.954163 -0.171644 0.0651237 0.983004 
0.0755723 -0.0381969 0.996408 -0.0511592 -0.0183346 0.998522 -0.0656671 -0.0528377 0.996442 
0.171147 -0.0527482 0.983832 0.354996 -0.0143858 0.934757 0.744625 -0.0784803 0.662853 
0.6379 -0.0799692 0.765956 -0.343252 0.103379 0.933537 -0.355514 0.119055 0.927057 
-0.297658 0.0881992 0.95059 -0.16442 0.0603943 0.98454 -0.0352371 0.00251425 0.999376 
0.0606176 -0.0247328 0.997855 -0.000398499 -0.0405287 0.999178 -0.158786 0.083122 0.983808 
-0.239079 0.0368144 0.970302 -0.148263 0.0566084 0.987326 0.0439216 -0.0465318 0.997951 
-0.0350017 -0.0871928 0.995576 0.202814 0.0407046 0.978371 0.385374 0.043571 0.921731 
0.721293 0.154459 0.675188 0.693677 0.22274 0.684982 0.670988 0.153554 0.725394 
-0.35594 0.122078 0.926501 -0.232656 0.0883324 0.968539 -0.0922348 0.0479719 0.994581 
0.0227793 -0.0164773 0.999605 0.007565 -0.0881727 0.996076 -0.176929 -0.0669868 0.981941 
-0.22494 0.0117912 0.974301 -0.0758211 0.117754 0.990144 -0.0655809 0.00696404 0.997823 
0.203311 0.13322 0.970009 0.654344 0.293331 0.696987 0.448985 0.176082 0.876018 
-0.373409 0.252066 0.892765 -0.329366 0.282838 0.900845 -0.260629 0.216916 0.940755 
-0.141572 0.131242 0.981189 -0.0766837 0.0286681 0.996643 -0.0580697 -0.0495723 0.997081 
-0.0592717 -0.0738158 0.995509 -0.0785335 0.045677 0.995865 -0.147094 0.0300257 0.988667 
-0.15145 -0.0106513 0.988408 0.1832 0.134994 0.973763 0.294125 0.2461 0.92354 
0.620002 0.370527 0.691598 0.60636 0.400699 0.686853 0.580016 0.356497 0.732456 
-0.344576 0.307296 0.887038 -0.302714 0.372695 0.87719 -0.263881 0.255867 0.929999 
-0.15425 0.16448 0.974245 -0.0947192 0.0964939 0.990816 -0.0842142 0.0688014 0.99407 
-0.112638 0.0364054 0.992969 -0.133566 0.0186606 0.990864 -0.0819645 0.0659233 0.994453 
0.121731 0.200549 0.972091 0.292177 0.300972 0.907771 0.52681 0.498808 0.688231 
0.490937 0.554025 0.672337 0.434951 0.451408 0.779133 -0.280416 0.394106 0.875241 
-0.251144 0.431912 0.866244 -0.239525 0.344045 0.907888 -0.162201 0.496855 0.852541 
-0.154213 0.31354 0.936969 -0.113258 0.270329 0.956083 -0.125099 0.237992 0.963177 
-0.114261 0.239059 0.964259 -0.0308555 0.272675 0.961611 0.0846062 0.329673 0.940297 
0.357481 0.715687 0.599999 0.2473 0.418605 0.873849 0.462907 0.599506 0.652924 
0.426551 0.629021 0.649913 0.399394 0.55765 0.727675 -0.170246 0.552208 0.816139 
-0.170687 0.553888 0.814907 -0.170173 0.54969 0.817852 -0.121164 0.598684 0.791768 
-0.130676 0.503088 0.854299 -0.0636835 0.662418 0.746423 -0.0911034 0.525009 0.846207 
0.0511416 0.732437 0.678912 0.0273849 0.562447 0.82638 0.318259 0.7275 0.607829 
0.234463 0.730679 0.641199 0.202763 0.647942 0.734206 0.00641863 -0.0631073 0.997986 
0.00599499 -0.0601399 0.998172 -0.016462 -0.0273146 0.999491 0.025778 -0.0466077 0.998581 
-0.120318 0.0388865 0.991973 0.0164035 -0.0471427 0.998753 -0.00187766 -0.0595471 0.998224 
-0.0671039 -0.0563158 0.996155 0.0168114 -0.0597521 0.998072 0.00489351 -0.060256 0.998171 
-0.0609836 -0.0654274 0.995992 -0.0552325 -0.0821808 0.995086 -0.0685486 -0.0594981 0.995872 
0.122866 0.0163642 0.992288 0.0346057 -0.0104945 0.999346 -0.0653764 -0.0335106 0.997298 
-0.0660914 -0.0791833 0.994667 0.0100996 -0.0172086 0.999801 0.119119 0.0724252 0.990235 
0.124362 0.0767434 0.989265 0.105007 0.0598489 0.992669 -0.108078 0.00348417 0.994136 
-0.0563386 0.0214362 0.998182 0.119966 0.0932551 0.988388 0.099761 0.14511 0.984373 
0.0690004 0.0637906 0.995575 0.00576352 0.134879 0.990845 0.0133155 0.140176 0.990037 
0.0109906 0.139505 0.99016 0.0107035 0.138713 0.990275 
