# vtk DataFile Version 4.2
vtk output
ASCII
DATASET POLYDATA
POINTS 536 float
-27.3998 -42.2313 -16.8666 -18.7794 -42.2313 -18.5578 -10.1589 -42.2313 -18.3829 
-1.53845 -42.2313 -18.0054 7.082 -42.2313 -16.4851 15.7025 -42.2313 -14.482 
-44.6407 -33.6109 -14.639 -36.0203 -33.6109 -18.7276 -27.3998 -33.6109 -20.5383 
-18.7794 -33.6109 -21.966 -10.1589 -33.6109 -21.2685 -1.53845 -33.6109 -20.9298 
7.082 -33.6109 -19.9779 15.7025 -33.6109 -18.8454 24.3229 -33.6109 -17.5937 
32.9434 -33.6109 -16.6307 41.5638 -33.6109 -14.2428 -53.2612 -24.9904 -15.4126 
-44.6407 -24.9904 -18.6288 -36.0203 -24.9904 -20.5876 -27.3998 -24.9904 -21.3382 
-18.7794 -24.9904 -21.8957 -10.1589 -24.9904 -21.7526 -1.53845 -24.9904 -21.2513 
7.082 -24.9904 -20.1661 15.7025 -24.9904 -19.8064 24.3229 -24.9904 -19.6311 
32.9434 -24.9904 -19.2277 41.5638 -24.9904 -18.4284 50.1843 -24.9904 -14.7894 
-53.2612 -16.37 -18.2586 -44.6407 -16.37 -21.4579 -36.0203 -16.37 -21.2024 
-27.3998 -16.37 -20.8376 -18.7794 -16.37 -21.2279 -10.1589 -16.37 -21.0847 
-1.53845 -16.37 -19.7083 7.082 -16.37 -19.3491 15.7025 -16.37 -19.095 
24.3229 -16.37 -19.8323 32.9434 -16.37 -20.4969 41.5638 -16.37 -19.5815 
50.1843 -16.37 -18.0673 -61.8816 -7.74953 -16.0496 -53.2612 -7.74953 -19.1627 
-44.6407 -7.74953 -20.3352 -36.0203 -7.74953 -20.0444 -27.3998 -7.74953 -19.7546 
-18.7794 -7.74953 -19.3229 -10.1589 -7.74953 -21.6424 -1.53845 -7.74953 -18.6053 
7.082 -7.74953 -20.1334 15.7025 -7.74953 -17.8169 24.3229 -7.74953 -18.7744 
32.9434 -7.74953 -19.9601 41.5638 -7.74953 -20.1306 50.1843 -7.74953 -19.0401 
58.8047 -7.74953 -15.8495 -61.8816 0.87093 -16.3082 -53.2612 0.87093 -19.413 
-44.6407 0.87093 -20.589 -36.0203 0.87093 -20.4475 -27.3998 0.87093 -19.3637 
-18.7794 0.87093 -18.3982 -10.1589 0.87093 -21.1884 -1.53845 0.87093 -16.5608 
7.082 0.87093 -18.8133 15.7025 0.87093 -16.6048 24.3229 0.87093 -18.2858 
32.9434 0.87093 -19.719 41.5638 0.87093 -20.1899 50.1843 0.87093 -19.4081 
58.8047 0.87093 -16.8608 -61.8816 9.49139 -13.819 -53.2612 9.49139 -18.2719 
-44.6407 9.49139 -20.4569 -36.0203 9.49139 -20.841 -27.3998 9.49139 -20.2783 
-18.7794 9.49139 -19.3838 -10.1589 9.49139 -18.356 -1.53845 9.49139 -18.6979 
7.082 9.49139 -17.6625 15.7025 9.49139 -15.7401 24.3229 9.49139 -17.5022 
32.9434 9.49139 -18.71 41.5638 9.49139 -19.0045 50.1843 9.49139 -18.1515 
58.8047 9.49139 -15.3492 -53.2612 18.1118 -15.4246 -44.6407 18.1118 -19.1726 
-36.0203 18.1118 -20.602 -27.3998 18.1118 -20.684 -18.7794 18.1118 -19.7824 
-10.1589 18.1118 -18.2378 -1.53845 18.1118 -17.4726 7.082 18.1118 -15.0348 
24.3229 18.1118 -14.5149 32.9434 18.1118 -15.2835 41.5638 18.1118 -15.8 
50.1843 18.1118 -14.5146 -44.6407 26.7323 -14.9209 -36.0203 26.7323 -18.338 
-27.3998 26.7323 -19.3515 -18.7794 26.7323 -18.8361 -10.1589 26.7323 -17.9434 
-1.53845 26.7323 -16.0949 7.082 26.7323 -13.5793 -27.3998 35.3528 -15.3351 
-18.7794 35.3528 -16.1611 -10.1589 35.3528 -15.6914 -1.53845 35.3528 -14.0336 
-27.3998 -45.5197 -13.4223 -18.7794 -47.4609 -13.4223 -18.7794 -50.8518 -5.39809 
-10.1589 -48.1028 -13.4223 -10.1589 -50.8518 -6.49318 -1.53845 -47.4152 -13.4223 
7.082 -45.539 -13.4223 15.7025 -43.2539 -13.4223 -44.6407 -35.2263 -13.4223 
-34.2063 -42.2313 -13.4223 -36.0203 -40.9539 -13.4223 -36.0203 -42.2313 -9.55951 
19.4638 -42.2313 -13.4223 24.3229 -40.4245 -13.4223 24.3229 -42.2313 -11.0143 
32.9434 -37.9708 -13.4223 32.9434 -42.2313 -5.02748 41.5638 -34.6617 -13.4223 
-46.8742 -33.6109 -13.4223 -53.2612 -27.5712 -13.4223 43.456 -33.6109 -13.4223 
50.1843 -27.42 -13.4223 50.1843 -33.6109 -6.40492 -55.84 -24.9904 -13.4223 
52.0971 -24.9904 -13.4223 58.8047 -24.9904 -4.91089 -61.635 -16.37 -13.4223 
-61.8816 -15.7289 -13.4223 -61.8816 -16.37 -13.0929 57.9102 -16.37 -13.4223 
58.8047 -14.4547 -13.4223 58.8047 -16.37 -12.5366 -65.2226 -7.74953 -13.4223 
62.022 -7.74953 -13.4223 67.4252 -7.74953 -6.37762 -65.4524 0.87093 -13.4223 
-70.5021 0.87093 -6.03573 63.8146 0.87093 -13.4223 67.4252 0.87093 -9.76529 
-62.3487 9.49139 -13.4223 -61.8816 10.3022 -13.4223 15.7025 18.034 -13.4223 
61.9512 9.49139 -13.4223 58.8047 14.1387 -13.4223 67.4252 9.49139 -8.88266 
-56.553 18.1118 -13.4223 -61.8816 18.1118 -7.2387 -53.2612 21.4306 -13.4223 
15.5811 18.1118 -13.4223 15.8754 18.1118 -13.4223 15.7025 18.1118 -13.4011 
24.3229 20.571 -13.4223 32.9434 21.8275 -13.4223 41.5638 21.6132 -13.4223 
53.6346 18.1118 -13.4223 50.1843 19.7858 -13.4223 58.8047 18.1118 -11.6107 
-47.3043 26.7323 -13.4223 -53.2612 26.7323 -7.58997 -44.6407 28.7711 -13.4223 
-36.0203 34.1754 -13.4223 7.84296 26.7323 -13.4223 7.082 27.4785 -13.4223 
15.7025 26.7323 -11.7897 24.3229 26.7323 -10.6783 32.9434 26.7323 -10.7478 
41.5638 26.7323 -9.3442 50.1843 26.7323 -7.92775 -44.6407 35.3528 -5.0607 
-33.5154 35.3528 -13.4223 -36.0203 35.3528 -12.3062 -27.3998 37.8196 -13.4223 
-18.7794 39.6056 -13.4223 -10.1589 39.4156 -13.4223 0.793909 35.3528 -13.4223 
-1.53845 36.6129 -13.4223 7.082 35.3528 -11.7477 15.7025 35.3528 -9.56141 
24.3229 35.3528 -6.58803 -27.3998 43.9732 -6.60184 -18.7794 43.9732 -9.27634 
-10.1589 43.9732 -9.95422 -1.53845 43.9732 -8.96228 7.082 43.9732 -6.94879 
-18.7794 -51.0234 -4.80186 -10.1589 -51.3528 -4.80186 -36.0203 -43.3217 -4.80186 
-19.3167 -50.8518 -4.80186 -27.3998 -47.9042 -4.80186 -18.7794 -50.8518 -4.13583 
-2.97545 -50.8518 -4.80186 -10.1589 -50.8518 -2.58197 -1.53845 -50.7521 -4.80186 
7.082 -49.2581 -4.80186 15.7025 -47.1298 -4.80186 24.3229 -45.1513 -4.80186 
32.9434 -42.3045 -4.80186 -37.5939 -42.2313 -4.80186 -44.6407 -36.9125 -4.80186 
-36.0203 -42.2313 -2.37343 33.1715 -42.2313 -4.80186 41.5638 -39.4018 -4.80186 
50.1843 -34.3466 -4.80186 -48.9981 -33.6109 -4.80186 -53.2612 -30.204 -4.80186 
-44.6407 -33.6109 0.484613 51.0591 -33.6109 -4.80186 50.1843 -33.6109 2.44285 
58.8047 -25.0649 -4.80186 -59.4864 -24.9904 -4.80186 -61.8816 -22.6131 -4.80186 
-53.2612 -24.9904 2.63107 58.8603 -24.9904 -4.80186 58.8047 -24.9904 -3.7775 
-66.8702 -16.37 -4.80186 64.2034 -16.37 -4.80186 67.4252 -9.48652 -4.80186 
-70.3154 -7.74953 -4.80186 -70.5021 -5.42342 -4.80186 68.2596 -7.74953 -4.80186 
-71.0055 0.87093 -4.80186 -70.5021 3.11325 -4.80186 -70.5021 0.87093 -2.19308 
70.1345 0.87093 -4.80186 -68.8642 9.49139 -4.80186 70.0597 9.49139 -4.80186 
67.4252 16.6203 -4.80186 -63.1842 18.1118 -4.80186 -61.8816 20.1193 -4.80186 
66.6285 18.1118 -4.80186 58.8047 24.8624 -4.80186 67.4252 18.1118 -0.471272 
-55.5589 26.7323 -4.80186 -53.2612 28.5845 -4.80186 32.9434 34.6183 -4.80186 
41.5638 31.8693 -4.80186 55.3748 26.7323 -4.80186 50.1843 29.1795 -4.80186 
58.8047 26.7323 0.328074 -44.8557 35.3528 -4.80186 -44.6407 35.5053 -4.80186 
-36.0203 40.8061 -4.80186 15.7025 43.7461 -4.80186 31.0471 35.3528 -4.80186 
24.3229 37.7735 -4.80186 32.9434 35.3528 -3.92426 41.5638 35.3528 2.27549 
-29.9134 43.9732 -4.80186 -27.3998 45.0917 -4.80186 -18.7794 47.1825 -4.80186 
-10.1589 48.211 -4.80186 -1.53845 47.9154 -4.80186 15.1627 43.9732 -4.80186 
7.082 46.1893 -4.80186 15.7025 43.9732 -4.52273 -27.3998 -44.5373 3.8186 
-18.7794 -47.9775 3.8186 -10.1589 -49.1286 3.8186 -1.53845 -48.9576 3.8186 
7.082 -47.9922 3.8186 15.7025 -46.0703 3.8186 24.3229 -44.0719 3.8186 
32.9434 -42.3207 3.8186 -31.16 -42.2313 3.8186 -36.0203 -37.4048 3.8186 
-27.3998 -42.2313 6.33335 -18.7794 -42.2313 9.91005 -10.1589 -42.2313 11.5322 
-1.53845 -42.2313 12.0141 7.082 -42.2313 11.7241 15.7025 -42.2313 9.77181 
24.3229 -42.2313 6.83813 33.1768 -42.2313 3.8186 32.9434 -42.2313 4.00131 
41.5638 -38.683 3.8186 -40.6186 -33.6109 3.8186 -44.6407 -30.1987 3.8186 
-36.0203 -33.6109 6.35834 -27.3998 -33.6109 11.7489 49.9879 -33.6109 3.8186 
41.5638 -33.6109 11.1833 50.1843 -33.4526 3.8186 -61.8816 -16.6044 3.8186 
-51.5454 -24.9904 3.8186 -53.2612 -23.8006 3.8186 -44.6407 -24.9904 7.13713 
-36.0203 -24.9904 10.3779 58.3448 -24.9904 3.8186 58.8047 -24.4253 3.8186 
-62.1198 -16.37 3.8186 -61.8816 -16.37 3.98766 -53.2612 -16.37 9.13847 
-44.6407 -16.37 11.6161 64.0922 -16.37 3.8186 58.8047 -16.37 12.4123 
67.4252 -9.25931 3.8186 -66.7037 -7.74953 3.8186 -61.8816 -7.74953 8.70766 
68.1532 -7.74953 3.8186 67.4252 -7.74953 5.21061 -69.0705 0.87093 3.8186 
70.3055 0.87093 3.8186 67.4252 0.87093 9.38094 -67.6878 9.49139 3.8186 
-61.8816 9.49139 11.7202 71.0803 9.49139 3.8186 67.4252 9.49139 11.497 
-63.2992 18.1118 3.8186 -61.8816 20.3605 3.8186 -61.8816 18.1118 6.36804 
67.9614 18.1118 3.8186 67.4252 18.9332 3.8186 67.4252 18.1118 5.08841 
-56.7077 26.7323 3.8186 -53.2612 29.9795 3.8186 -53.2612 26.7323 11.0438 
50.1843 32.5108 3.8186 60.2223 26.7323 3.8186 58.8047 27.9789 3.8186 
58.8047 26.7323 7.89226 -47.0284 35.3528 3.8186 -44.6407 37.1636 3.8186 
-44.6407 35.3528 9.14361 -36.0203 42.6742 3.8186 24.3229 43.6594 3.8186 
32.9434 39.5201 3.8186 43.0324 35.3528 3.8186 41.5638 35.9281 3.8186 
-33.1239 43.9732 3.8186 -27.3998 46.4678 3.8186 -18.7794 49.1832 3.8186 
-10.1589 50.7295 3.8186 -1.53845 51.0374 3.8186 7.082 50.1834 3.8186 
23.6681 43.9732 3.8186 15.7025 47.6268 3.8186 -18.7794 -38.3214 12.4391 
-10.1589 -40.7625 12.4391 -1.53845 -41.4377 12.4391 7.082 -41.1737 12.4391 
15.7025 -39.4252 12.4391 24.3229 -37.0475 12.4391 32.9434 -35.6077 12.4391 
-25.6229 -33.6109 12.4391 -27.3998 -30.654 12.4391 -18.7794 -33.6109 14.8111 
-10.1589 -33.6109 15.7153 -1.53845 -33.6109 15.6096 7.082 -33.6109 15.9894 
15.7025 -33.6109 15.8547 24.3229 -33.6109 14.8814 38.2353 -33.6109 12.4391 
32.9434 -33.6109 13.8774 41.5638 -32.2488 12.4391 50.1843 -25.7291 12.4391 
-30.4972 -24.9904 12.4391 -36.0203 -16.5203 12.4391 -27.3998 -24.9904 13.6757 
-18.7794 -24.9904 17.4882 -10.1589 -24.9904 17.6883 -1.53845 -24.9904 17.0259 
7.082 -24.9904 17.7185 15.7025 -24.9904 17.6259 24.3229 -24.9904 18.0256 
32.9434 -24.9904 17.8494 41.5638 -24.9904 16.857 50.9167 -24.9904 12.4391 
50.1843 -24.9904 12.9573 -53.2612 -8.74239 12.4391 -36.4172 -16.37 12.4391 
-44.6407 -14.2816 12.4391 -36.0203 -16.37 12.4793 -27.3998 -16.37 14.6305 
-18.7794 -16.37 18.6897 -10.1589 -16.37 19.4679 -1.53845 -16.37 16.8587 
[...]
POINT_DATA 536
SCALARS ImageScalars float
LOOKUP_TABLE default
0 0 0 0 0 0 0 0 0 
0 0 0 0 0 0 0 0 0 
0 0 0 0 0 0 0 0 0 
0 0 0 0 0 0 0 0 0 
0 0 0 0 0 0 0 0 0 
0 0 0 0 0 0 0 0 0 
0 0 0 0 0 0 0 0 0 
0 0 0 0 0 0 0 0 0 
0 0 0 0 0 0 0 0 0 
0 0 0 0 0 0 0 0 0 
0 0 0 0 0 0 0 0 0 
0 0 0 0 0 0 0 0 0 
0 0 0 0 0 0 0 0 0 
0 0 0 0 0 0 0 0 0 
0 0 0 0 0 0 0 0 0 
0 0 0 0 0 0 0 0 0 
0 0 0 0 0 0 0 0 0 
0 0 0 0 0 0 0 0 0 
0 0 0 0 0 0 0 0 0 
0 0 0 0 0 0 0 0 0 
0 0 0 0 0 0 0 0 0 
0 0 0 0 0 0 0 0 0 
0 0 0 0 0 0 0 0 0 
0 0 0 0 0 0 0 0 0 
0 0 0 0 0 0 0 0 0 
0 0 0 0 0 0 0 0 0 
0 0 0 0 0 0 0 0 0 
0 0 0 0 0 0 0 0 0 
0 0 0 0 0 0 0 0 0 
0 0 0 0 0 0 0 0 0 
0 0 0 0 0 0 0 0 0 
0 0 0 0 0 0 0 0 0 
0 0 0 0 0 0 0 0 0 
0 0 0 0 0 0 0 0 0 
0 0 0 0 0 0 0 0 0 
0 0 0 0 0 0 0 0 0 
0 0 0 0 0 0 0 0 0 
0 0 0 0 0 0 0 0 0 
0 0 0 0 0 0 0 0 0 
0 0 0 0 0 0 0 0 0 
0 0 0 0 0 0 0 0 0 
0 0 0 0 0 0 0 0 0 
0 0 0 0 0 0 0 0 0 
0 0 0 0 0 0 0 0 0 
0 0 0 0 0 0 0 0 0 
0 0 0 0 0 0 0 0 0 
0 0 0 0 0 0 0 0 0 
0 0 0 0 0 0 0 0 0 
0 0 0 0 0 0 0 0 0 
0 0 0 0 0 0 0 0 0 
0 0 0 0 0 0 0 0 0 
0 0 0 0 0 0 0 0 0 
0 0 0 0 0 0 0 0 0 
0 0 0 0 0 0 0 0 0 
0 0 0 0 0 0 0 0 0 
0 0 0 0 0 0 0 0 0 
0 0 0 0 0 0 0 0 0 
0 0 0 0 0 0 0 0 0 
0 0 0 0 0 0 0 0 0 
0 0 0 0 0 
NORMALS Normals float
-0.283842 -0.634325 -0.719073 -0.0758742 -0.552541 -0.830025 0.0282215 -0.505101 -0.862599 
0.099674 -0.521652 -0.847316 0.179199 -0.592651 -0.785272 0.224658 -0.678041 -0.69985 
-0.489139 -0.581868 -0.649749 -0.320455 -0.390179 -0.863174 -0.164504 -0.225286 -0.960304 
-0.0448225 -0.142957 -0.988713 0.0564777 -0.176497 -0.98268 0.076829 -0.166721 -0.983006 
0.112114 -0.1785 -0.977532 0.140247 -0.258853 -0.955681 0.113297 -0.378051 -0.918826 
0.190324 -0.474915 -0.859205 0.31568 -0.571566 -0.757403 -0.505808 -0.52655 -0.683303 
-0.254461 -0.384532 -0.887347 -0.145848 -0.129656 -0.980774 -0.0731684 -0.0183702 -0.99715 
-0.02386 0.0412166 -0.998865 0.0358678 0.010227 -0.999304 0.0937731 0.0719806 -0.992988 
0.0813516 0.0365201 -0.996016 0.0319926 -0.0115258 -0.999422 0.0315978 -0.123018 -0.991901 
0.0651991 -0.197461 -0.97814 0.213981 -0.304052 -0.928313 0.48047 -0.430474 -0.764095 
-0.369248 -0.150227 -0.917108 -0.17835 -0.0686676 -0.981568 0.0347707 0.0343919 -0.998803 
-0.00119309 0.0856356 -0.996326 -0.0147065 0.141724 -0.989797 0.0881283 0.00764551 -0.99608 
0.0979943 0.146565 -0.984335 0.0349629 0.00331908 -0.999383 -0.0284662 0.116031 -0.992838 
-0.0792837 0.0486033 -0.995667 0.0181669 -0.0408707 -0.998999 0.136658 -0.0868762 -0.986802 
0.329116 -0.187598 -0.925467 -0.536073 -0.14002 -0.832478 -0.206846 -0.0726423 -0.975673 
-0.0464537 0.0425523 -0.998014 0.0341572 0.0452825 -0.99839 0.0416101 0.089171 -0.995147 
-0.111055 0.166756 -0.979724 0.0486689 -0.0086702 -0.998777 0.0895336 0.162661 -0.982611 
0.0490284 0.023673 -0.998517 0.0756929 0.142751 -0.98686 -0.123155 0.0888958 -0.988398 
-0.0780302 0.0445305 -0.995956 0.0500963 -0.0373328 -0.998046 0.213206 -0.0792178 -0.97379 
0.500977 -0.201914 -0.841578 -0.50706 0.10311 -0.855721 -0.207667 0.0497694 -0.976933 
-0.0547729 -0.00652817 -0.998478 0.0705941 -0.0460517 -0.996442 0.122804 -0.033376 -0.99187 
-0.0903599 -0.00804289 -0.995877 0.0441313 0.201461 -0.978502 0.142637 -0.0085653 -0.989738 
0.0311216 0.146633 -0.988701 0.0187663 0.121719 -0.992387 -0.178746 0.0715965 -0.981287 
-0.108704 0.0709624 -0.991538 0.016113 0.0632954 -0.997865 0.166828 0.0498949 -0.984723 
0.446721 0.0258451 -0.8943 -0.589737 0.304632 -0.747937 -0.327506 0.20499 -0.922344 
-0.135392 0.0724244 -0.988141 0.00874228 -0.0095542 -0.999916 0.0861492 -0.0778674 -0.993235 
0.11013 -0.0797185 -0.990715 0.0403878 0.152292 -0.98751 0.0344912 -0.0254736 -0.99908 
0.178761 0.209035 -0.961431 0.000559718 0.182961 -0.98312 -0.173315 0.211025 -0.961993 
-0.083761 0.22609 -0.970499 0.0300507 0.23907 -0.970537 0.179834 0.241944 -0.953479 
0.42827 0.252639 -0.867616 -0.453508 0.401454 -0.795717 -0.264038 0.279529 -0.923118 
-0.0814521 0.1271 -0.98854 0.0477353 0.0492086 -0.997647 0.140541 0.0304716 -0.989606 
0.13196 0.0231132 -0.990986 0.174085 0.147406 -0.973635 0.235144 0.22064 -0.946586 
-0.101572 0.377881 -0.920266 -0.0707909 0.426094 -0.901905 0.0358157 0.472403 -0.880654 
0.201716 0.477393 -0.855223 -0.3962 0.523267 -0.754465 -0.22266 0.39519 -0.891205 
-0.0202993 0.277306 -0.960567 0.077535 0.196924 -0.977348 0.155329 0.143451 -0.977392 
0.241942 0.19215 -0.951074 0.238691 0.176825 -0.954861 -0.172736 0.545213 -0.820308 
-0.0139078 0.435091 -0.900279 0.116084 0.374594 -0.919893 0.213379 0.339517 -0.916077 
-0.288423 -0.810809 -0.509314 -0.134729 -0.798585 -0.586609 -0.185127 -0.981547 -0.0478911 
0.00338157 -0.792016 -0.610491 0.0153661 -0.99165 -0.128039 0.124242 -0.783721 -0.60856 
0.205163 -0.7514 -0.627142 0.230049 -0.729978 -0.643591 -0.516776 -0.651766 -0.555107 
-0.419189 -0.742125 -0.523003 -0.453988 -0.712954 -0.534408 -0.526038 -0.818941 -0.22939 
0.22167 -0.718231 -0.659551 0.196789 -0.680562 -0.705769 0.234374 -0.819524 -0.522925 
0.235389 -0.668026 -0.705927 0.299218 -0.940682 -0.159958 0.330069 -0.614708 -0.716372 
-0.541766 -0.631595 -0.554596 -0.567038 -0.629563 -0.531147 0.375561 -0.592416 -0.71274 
0.515077 -0.501354 -0.695226 0.626523 -0.744122 -0.231844 -0.58885 -0.583217 -0.559565 
0.530134 -0.46385 -0.709789 0.786641 -0.586446 -0.193071 -0.674308 -0.313666 -0.668522 
-0.672057 -0.302864 -0.675732 -0.691629 -0.330306 -0.642299 0.621757 -0.307137 -0.720476 
0.624635 -0.291515 -0.724465 0.669015 -0.331018 -0.665467 -0.652821 -0.137081 -0.745006 
0.619044 -0.233511 -0.749838 0.888396 -0.333337 -0.315655 -0.657737 0.118179 -0.743919 
-0.978653 0.0843105 -0.187428 0.626277 -0.00838785 -0.779556 0.833137 -0.0615231 -0.549634 
-0.602474 0.306424 -0.736973 -0.598907 0.318422 -0.734791 0.0252874 0.220765 -0.974999 
0.516128 0.246104 -0.820393 0.420627 0.378977 -0.824287 0.790371 0.223979 -0.570217 
-0.540071 0.439663 -0.717648 -0.764161 0.542502 -0.348927 -0.490433 0.498808 -0.714609 
0.0284732 0.221038 -0.974849 0.0232527 0.224328 -0.974236 0.0256956 0.221118 -0.974908 
-0.0575652 0.385064 -0.921093 -0.0230964 0.471345 -0.881647 0.0633851 0.56051 -0.825718 
0.286634 0.486119 -0.825548 0.209323 0.504666 -0.837554 0.43053 0.514355 -0.741676 
-0.441366 0.563549 -0.69829 -0.586727 0.699463 -0.408049 -0.419771 0.57701 -0.700608 
-0.323398 0.611823 -0.721863 0.231087 0.178421 -0.956433 0.237727 0.188012 -0.952962 
0.158831 0.205063 -0.965775 0.0572351 0.401735 -0.913965 0.0607356 0.541677 -0.83839 
0.124496 0.658709 -0.742027 0.267393 0.730941 -0.627874 -0.536201 0.779181 -0.3246 
-0.291169 0.617219 -0.730931 -0.34836 0.655739 -0.669814 -0.201871 0.616553 -0.760993 
-0.0625923 0.574287 -0.816258 0.0828815 0.50269 -0.860485 0.219043 0.332613 -0.917272 
0.207157 0.37487 -0.903636 0.231968 0.321219 -0.918155 0.271112 0.348383 -0.897289 
0.263676 0.534738 -0.802826 -0.299941 0.846868 -0.439146 -0.123463 0.77803 -0.615976 
0.0201973 0.711193 -0.702707 0.138686 0.657395 -0.740674 0.203722 0.657378 -0.725501 
-0.18528 -0.982565 -0.015406 0.0142765 -0.999361 -0.0327654 -0.545733 -0.832588 0.0947212 
-0.197872 -0.980136 -0.0134202 -0.3967 -0.917239 0.036082 -0.189047 -0.981805 0.017889 
0.101462 -0.993459 -0.0523922 0.00410605 -0.996997 0.0773289 0.118285 -0.991376 -0.056416 
0.204658 -0.973495 -0.102093 0.235361 -0.963035 -0.131028 0.265439 -0.95431 -0.137241 
0.299636 -0.942306 -0.149258 -0.557047 -0.822802 0.112675 -0.60581 -0.776212 0.17461 
-0.568657 -0.792103 0.221815 0.301519 -0.94178 -0.148782 0.408848 -0.900056 -0.15081 
0.621136 -0.770196 -0.144871 -0.636044 -0.747929 0.189872 -0.634432 -0.751684 0.180186 
-0.561503 -0.675952 0.477287 0.641003 -0.752826 -0.149557 0.613809 -0.759463 0.215533 
0.786975 -0.587824 -0.187438 -0.681882 -0.721285 0.121591 -0.72619 -0.68195 0.0871318 
-0.484921 -0.663773 0.569435 0.787801 -0.58676 -0.187304 0.792434 -0.594473 -0.136569 
-0.841465 -0.540204 -0.0107817 0.862617 -0.446288 -0.238157 0.903558 -0.362054 -0.229127 
-0.980247 -0.195934 -0.0269229 -0.990886 -0.125693 -0.0484327 0.911376 -0.338183 -0.234579 
-0.991274 0.0759198 -0.107756 -0.979009 0.161028 -0.124948 -0.997454 0.0490903 0.051724 
0.958681 -0.091802 -0.269266 -0.902348 0.392681 -0.177679 0.918239 0.188214 -0.348443 
0.803096 0.462956 -0.375112 -0.792136 0.566606 -0.22689 -0.77078 0.59331 -0.232124 
0.760839 0.521382 -0.386373 0.506793 0.725301 -0.465939 0.852711 0.508945 -0.117724 
-0.635499 0.719059 -0.28124 -0.612952 0.733802 -0.292958 0.223641 0.707705 -0.670178 
0.24388 0.747356 -0.618046 0.418472 0.771901 -0.478592 0.300909 0.823832 -0.480369 
0.574759 0.793518 -0.199952 -0.540293 0.780404 -0.314726 -0.537929 0.781736 -0.31547 
-0.451941 0.819047 -0.353428 0.344122 0.693217 -0.633269 0.242336 0.6843 -0.687755 
0.320913 0.599735 -0.73303 0.253785 0.745098 -0.616784 0.363809 0.903203 -0.227746 
-0.357209 0.864087 -0.35462 -0.314838 0.877817 -0.360992 -0.172696 0.890139 -0.421698 
-0.0408337 0.873105 -0.485819 0.0990642 0.814327 -0.57189 0.335992 0.700406 -0.629715 
0.207774 0.738056 -0.641953 0.347929 0.712018 -0.609898 -0.407357 -0.732555 0.545365 
-0.220837 -0.838599 0.497978 -0.0448909 -0.893525 0.446764 0.061417 -0.913838 0.401408 
0.157968 -0.924818 0.346059 0.214535 -0.921121 0.324825 0.214998 -0.917916 0.333475 
0.291404 -0.923354 0.250002 -0.474748 -0.672619 0.567625 -0.518114 -0.565481 0.641708 
-0.396775 -0.651187 0.646935 -0.229381 -0.61505 0.754386 -0.0906208 -0.583565 0.806994 
-0.0101592 -0.563791 0.825855 0.0840368 -0.626756 0.774671 0.180121 -0.758046 0.626835 
0.19306 -0.860295 0.471827 0.29442 -0.922255 0.250524 0.290712 -0.921187 0.258653 
0.403912 -0.865896 0.295093 -0.486406 -0.550237 0.678711 -0.463128 -0.562609 0.684823 
-0.475844 -0.462559 0.748072 -0.396019 -0.331571 0.856288 0.598235 -0.750267 0.281449 
0.335358 -0.690593 0.640794 0.60316 -0.746489 0.280985 -0.541011 -0.515455 0.66454 
-0.447913 -0.61141 0.652343 -0.44922 -0.619513 0.643743 -0.356106 -0.491203 0.794926 
-0.310683 -0.289405 0.905384 0.757026 -0.601773 0.254518 0.765968 -0.59182 0.251082 
-0.549415 -0.50994 0.661894 -0.536556 -0.508692 0.673305 -0.3773 -0.437341 0.81632 
-0.159297 -0.381956 0.910348 0.85535 -0.458303 0.241524 0.621717 -0.360765 0.69521 
0.896569 -0.372645 0.239374 -0.810931 -0.297181 0.504057 -0.513512 -0.4306 0.742219 
0.90389 -0.353403 0.241019 0.88385 -0.353312 0.306562 -0.898796 -0.0294566 0.437376 
0.961993 -0.152568 0.22648 0.829989 -0.17139 0.530795 -0.883983 0.290699 0.366154 
-0.629845 0.195427 0.751733 0.978429 0.133719 0.157466 0.778249 0.090553 0.621392 
-0.839105 0.493733 0.228319 -0.819282 0.53153 0.215064 -0.811811 0.458267 0.361876 
0.873897 0.466526 0.136591 0.857031 0.498781 0.12929 0.861465 0.464944 0.204216 
-0.721173 0.680915 0.127528 -0.68672 0.721788 0.0862423 -0.674684 0.54399 0.498876 
0.385727 0.916527 -0.105794 0.622809 0.78227 -0.0127385 0.591812 0.805675 -0.0254178 
0.64704 0.728188 0.226012 -0.618513 0.783626 0.0580804 -0.592417 0.804214 0.0477725 
-0.598465 0.739109 0.309123 -0.456601 0.889375 0.0229624 0.439866 0.89295 -0.0957028 
0.407835 0.899353 -0.157592 0.370171 0.916429 -0.152089 0.371028 0.915949 -0.152889 
-0.417402 0.908169 0.0317076 -0.349603 0.93564 0.0485444 -0.2348 0.971611 0.0290159 
-0.1078 0.994011 0.0179205 0.0306722 0.999479 -0.0100439 0.190414 0.98107 -0.0352729 
0.433932 0.89648 -0.0895898 0.354563 0.933684 -0.0501886 -0.223081 -0.4789 0.849052 
-0.0829488 -0.520484 0.849833 -0.0116071 -0.525568 0.850672 0.0662438 -0.568959 0.819693 
0.134776 -0.590149 0.795964 0.137389 -0.60102 0.787337 0.185436 -0.623905 0.759181 
-0.354701 -0.336045 0.872503 -0.391973 -0.266805 0.880439 -0.205462 -0.366675 0.907378 
-0.0428973 -0.309791 0.949836 -0.0148705 -0.265613 0.963965 -0.013623 -0.305995 0.951936 
0.0564219 -0.355165 0.933099 0.108567 -0.470918 0.875471 0.262697 -0.631292 0.729699 
0.160438 -0.554258 0.816736 0.315146 -0.6257 0.713571 0.500722 -0.510044 0.699381 
-0.358717 -0.193946 0.913075 -0.168313 -0.28578 0.943399 -0.390422 -0.150734 0.908213 
-0.208857 -0.210459 0.955032 0.027399 -0.207958 0.977754 -0.00456143 -0.0691318 0.997597 
-0.0340742 -0.132229 0.990633 -0.0169938 -0.12725 0.991725 -0.0127776 -0.210565 0.977496 
0.0637864 -0.297734 0.952515 0.229489 -0.371055 0.899807 0.510253 -0.502308 0.69809 
0.493769 -0.490739 0.717891 -0.291434 -0.346025 0.891814 -0.165183 -0.290288 0.942575 
-0.148032 -0.355906 0.922723 -0.165877 -0.286093 0.943735 -0.323412 -0.109598 0.93989 
-0.276747 -0.0403205 0.960097 0.116272 -0.161753 0.979958 0.0469131 -0.0818674 0.995538 
-0.0755248 -0.229255 0.970432 -0.0274211 0.0287051 0.999212 -0.0874102 -0.0141183 0.996072 
-0.0360496 -0.0997028 0.994364 0.163438 -0.159258 0.973614 0.620184 -0.360158 0.696891 
0.35405 -0.257436 0.899097 0.620653 -0.359475 0.696826 -0.293654 -0.356084 0.887114 
-0.54114 -0.166206 0.824344 -0.277822 -0.340287 0.898343 -0.140747 -0.290625 0.946429 
-0.0475124 -0.264736 0.96315 -0.120478 -0.135301 0.983452 -0.303557 0.12019 0.945202 
-0.0044896 -0.143745 0.989605 -0.0745472 -0.204326 0.97606 0.171352 0.0235712 0.984928 
-0.141136 0.00529756 0.989976 -0.0828526 -0.029656 0.99612 0.0518733 -0.0627588 0.99668 
0.229931 -0.170669 0.958125 0.640929 -0.262381 0.721364 0.516469 -0.229957 0.824851 
-0.570612 -0.106339 0.814306 -0.5893 0.0293772 0.80738 -0.548618 -0.113239 0.828369 
-0.25216 -0.189817 0.948886 -0.124794 -0.241923 0.962237 0.00224649 -0.237271 0.971441 
0.0487643 -0.21316 0.9758 -0.222806 -0.01957 0.974666 -0.0381155 -0.300467 0.95303 
0.196906 -0.277878 0.940219 -0.130877 -0.176463 0.975568 -0.101282 -0.113995 0.988305 
0.0237827 -0.105022 0.994186 0.193919 -0.123499 0.973213 0.674268 -0.161709 0.720564 
0.460718 -0.148323 0.875065 -0.588987 0.175626 0.788828 -0.402368 0.000806645 0.915477 
-0.148035 -0.0684801 0.986608 0.00139968 -0.14314 0.989701 0.0816245 -0.171664 0.981768 
-0.09025 -0.187065 0.978193 0.160719 -0.0379107 0.986272 0.727678 0.0807767 0.681146 
0.444294 0.0299692 0.89538 -0.608511 0.29471 0.736791 -0.641128 0.460182 0.614156 
-0.501734 0.22159 0.836159 -0.24753 0.126256 0.960619 -0.0963788 0.0182922 0.995177 
0.0167863 -0.0867031 0.996093 -0.0201783 -0.131571 0.991101 -0.155864 0.0152084 0.987661 
0.290037 0.224017 0.930427 0.678363 0.360555 0.640174 0.638047 0.531529 0.557111 
0.551883 0.315343 0.772 -0.63809 0.492571 0.59179 -0.562756 0.635948 0.528088 
-0.387866 0.321662 0.863767 -0.208411 0.190811 0.959248 -0.0720043 0.0528581 0.996003 
-0.00864017 0.0314549 0.999468 -0.0876006 -0.00346854 0.99615 0.2398 0.38749 0.890139 
0.601549 0.611848 0.513596 0.444796 0.773597 0.451335 0.415539 0.545397 0.727921 
-0.540405 0.668665 0.510734 -0.408842 0.74342 0.529316 -0.337831 0.510693 0.790609 
-0.14624 0.385405 0.911086 -0.0898629 0.284338 0.954503 -0.061152 0.203331 0.977199 
0.0470953 0.243319 0.968802 0.0912645 0.279469 0.955807 0.142286 0.403301 0.903937 
0.302098 0.772014 0.559223 0.158059 0.594769 0.788206 0.266636 0.859083 0.436901 
0.196994 0.742894 0.639767 0.358881 0.853141 0.378621 0.35155 0.856397 0.378149 
0.347525 0.845393 0.405631 -0.2953 0.78918 0.538509 -0.294479 0.789188 0.538948 
-0.294097 0.788418 0.540282 -0.215778 0.77853 0.589348 -0.201669 0.671334 0.71319 
-0.090776 0.825988 0.55633 -0.0979961 0.616647 0.781116 0.0294126 0.820546 0.570823 
0.0269293 0.616128 0.787186 0.172069 0.814976 0.553359 0.176603 0.624598 0.760716 
0.326013 0.759757 0.562571 0.318665 0.760349 0.56597 0.315071 0.731237 0.604998 
0.0392122 -0.28811 0.956794 -0.0648122 -0.120876 0.990549 0.0222722 -0.266041 0.963704 
0.152823 -0.213699 0.964872 0.0981827 -0.269091 0.958097 -0.256777 -0.0240985 0.96617 
-0.116967 -0.202017 0.972372 -0.228797 -0.0513342 0.97212 0.0194461 -0.225587 0.974029 
-0.0549998 -0.258997 0.964311 0.181946 -0.142755 0.972891 0.130406 -0.0420246 0.99057 
0.127255 -0.275215 0.952923 -0.00229841 -0.222488 0.974933 -0.0342402 -0.129506 0.990987 
0.0313092 -0.0837031 0.995999 -0.333224 0.0805999 0.939396 -0.29209 0.0726989 0.953624 
-0.341917 0.0935424 0.935063 -0.0925703 -0.114475 0.989104 0.0930185 0.00572038 0.995648 
0.0957772 -0.256737 0.961724 0.02104 -0.227226 0.973615 -0.00114935 -0.137983 0.990434 
0.114962 -0.0475868 0.992229 0.0403451 -0.0622066 0.997248 -0.147651 0.0324309 0.988508 
-0.111117 0.0896331 0.989757 -0.00611573 0.0906726 0.995862 -0.00362538 0.0222749 0.999745 
0.0108374 0.00476324 0.99993 0.0597912 0.0153909 0.998092 0.193434 0.132547 0.972119 
0.181714 0.225549 0.957135 0.116616 0.0606973 0.991321 -0.0792194 0.0181074 0.996693 
0.0136906 0.189732 0.98174 -0.0393073 0.121073 0.991865 0.0433989 0.19059 0.98071 
0.0257946 0.158004 0.987101 0.0296502 0.243879 0.969352 0.00767337 0.212833 0.977059 
0.025298 0.300598 0.953415 0.0158954 0.278393 0.960336 0.0977148 0.326296 0.940204 
0.0551716 0.322365 0.945006 0.052032 0.309891 0.949347 
