# vtk DataFile Version 4.2
vtk output
ASCII
DATASET POLYDATA
POINTS 528 float
-21.8506 -41.4192 -18.5906 -13.5451 -41.4192 -20.2764 -5.23958 -41.4192 -20.794 
3.06591 -41.4192 -20.5201 11.3714 -41.4192 -18.7872 -30.1561 -33.1137 -19.8896 
-21.8506 -33.1137 -22.4119 -13.5451 -33.1137 -22.8605 -5.23958 -33.1137 -23.2915 
3.06591 -33.1137 -23.0972 11.3714 -33.1137 -22.0605 19.6769 -33.1137 -20.6925 
27.9824 -33.1137 -16.49 -38.4616 -24.8082 -17.7434 -30.1561 -24.8082 -21.087 
-21.8506 -24.8082 -22.6302 -13.5451 -24.8082 -22.6716 -5.23958 -24.8082 -22.1343 
3.06591 -24.8082 -22.0783 11.3714 -24.8082 -22.4616 19.6769 -24.8082 -21.724 
27.9824 -24.8082 -19.9594 36.2879 -24.8082 -17.1143 -46.7671 -16.5027 -16.2057 
-38.4616 -16.5027 -19.5957 -30.1561 -16.5027 -20.9905 -21.8506 -16.5027 -21.5127 
-13.5451 -16.5027 -21.4058 -5.23958 -16.5027 -20.4526 3.06591 -16.5027 -20.4906 
11.3714 -16.5027 -21.3384 19.6769 -16.5027 -21.4402 27.9824 -16.5027 -21.3598 
36.2879 -16.5027 -20.4519 44.5934 -16.5027 -17.1267 -46.7671 -8.1972 -17.7543 
-38.4616 -8.1972 -21.1632 -30.1561 -8.1972 -21.9934 -21.8506 -8.1972 -21.9805 
-13.5451 -8.1972 -21.6998 -5.23958 -8.1972 -20.376 3.06591 -8.1972 -20.201 
11.3714 -8.1972 -21.3026 19.6769 -8.1972 -21.2391 27.9824 -8.1972 -21.9665 
36.2879 -8.1972 -21.7316 44.5934 -8.1972 -19.9137 -46.7671 0.108297 -18.7181 
-38.4616 0.108297 -22.2233 -30.1561 0.108297 -23.2813 -21.8506 0.108297 -23.2069 
-13.5451 0.108297 -23.8324 -5.23958 0.108297 -22.3829 3.06591 0.108297 -20.7178 
11.3714 0.108297 -21.5586 19.6769 0.108297 -21.2567 27.9824 0.108297 -22.4059 
36.2879 0.108297 -22.5923 44.5934 0.108297 -21.1253 52.8989 0.108297 -16.4808 
-46.7671 8.41379 -18.3569 -38.4616 8.41379 -21.7467 -30.1561 8.41379 -22.8067 
-21.8506 8.41379 -22.6324 -13.5451 8.41379 -22.1066 -5.23958 8.41379 -22.4914 
3.06591 8.41379 -21.9575 11.3714 8.41379 -20.0845 19.6769 8.41379 -20.7022 
27.9824 8.41379 -22.0541 36.2879 8.41379 -22.3892 44.5934 8.41379 -20.9884 
52.8989 8.41379 -16.996 -46.7671 16.7193 -16.806 -38.4616 16.7193 -20.9595 
-30.1561 16.7193 -22.3417 -21.8506 16.7193 -22.2406 -13.5451 16.7193 -22.0879 
-5.23958 16.7193 -22.8504 3.06591 16.7193 -22.8226 11.3714 16.7193 -21.0859 
19.6769 16.7193 -20.8959 27.9824 16.7193 -21.5899 36.2879 16.7193 -21.9843 
44.5934 16.7193 -19.6733 52.8989 16.7193 -15.7301 -38.4616 25.0248 -19.5317 
-30.1561 25.0248 -21.5995 -21.8506 25.0248 -22.8944 -13.5451 25.0248 -22.9194 
-5.23958 25.0248 -23.1629 3.06591 25.0248 -22.9959 11.3714 25.0248 -22.0685 
19.6769 25.0248 -21.1738 27.9824 25.0248 -20.4642 36.2879 25.0248 -19.6647 
44.5934 25.0248 -17.6809 -38.4616 33.3303 -17.0188 -30.1561 33.3303 -20.7144 
-21.8506 33.3303 -21.7345 -13.5451 33.3303 -22.4562 -5.23958 33.3303 -22.8382 
3.06591 33.3303 -22.38 11.3714 33.3303 -21.1425 19.6769 33.3303 -19.9636 
27.9824 33.3303 -18.1283 36.2879 33.3303 -16.1714 -30.1561 41.6358 -17.3469 
-21.8506 41.6358 -18.8864 -13.5451 41.6358 -20.0341 -5.23958 41.6358 -20.0473 
3.06591 41.6358 -19.1574 11.3714 41.6358 -17.3619 -21.8506 -44.7364 -15.5284 
-13.5451 -46.3612 -15.5284 -5.23958 -46.8455 -15.5284 3.06591 -46.6085 -15.5284 
11.3714 -44.5315 -15.5284 -29.8399 -41.4192 -15.5284 -30.1561 -41.2268 -15.5284 
-30.1561 -41.4192 -15.3097 19.0667 -41.4192 -15.5284 19.6769 -41.0296 -15.5284 
19.6769 -41.4192 -14.6984 27.9824 -34.3438 -15.5284 -38.3825 -33.1137 -15.5284 
-38.4616 -32.9508 -15.5284 -38.4616 -33.1137 -15.4542 29.6471 -33.1137 -15.5284 
36.2879 -27.3667 -15.5284 -42.3202 -24.8082 -15.5284 -46.7671 -18.149 -15.5284 
-46.7671 -24.8082 -11.1622 39.11 -24.8082 -15.5284 44.5934 -18.9344 -15.5284 
44.5934 -24.8082 -8.50577 -47.5098 -16.5027 -15.5284 46.484 -16.5027 -15.5284 
-49.4166 -8.1972 -15.5284 51.2845 -8.1972 -15.5284 52.8989 -3.51716 -15.5284 
52.8989 -8.1972 -13.375 -50.4667 0.108297 -15.5284 53.8795 0.108297 -15.5284 
-49.8585 8.41379 -15.5284 54.4924 8.41379 -15.5284 -48.0662 16.7193 -15.5284 
-46.7671 21.6243 -15.5284 53.1108 16.7193 -15.5284 52.8989 17.0897 -15.5284 
-45.5002 25.0248 -15.5284 -46.7671 25.0248 -14.221 47.4483 25.0248 -15.5284 
44.5934 27.9895 -15.5284 52.8989 25.0248 -7.66165 -40.6836 33.3303 -15.5284 
-46.7671 33.3303 -9.15485 -38.4616 36.3309 -15.5284 19.6769 41.0325 -15.5284 
27.9824 37.4003 -15.5284 37.4103 33.3303 -15.5284 36.2879 34.0567 -15.5284 
44.5934 33.3303 -7.93156 -33.6991 41.6358 -15.5284 -38.4616 41.6358 -10.922 
-30.1561 43.7366 -15.5284 -21.8506 46.0623 -15.5284 -13.5451 47.3459 -15.5284 
-5.23958 47.1778 -15.5284 3.06591 45.9097 -15.5284 18.2778 41.6358 -15.5284 
11.3714 43.6996 -15.5284 19.6769 41.6358 -14.8517 27.9824 41.6358 -8.89415 
-21.8506 49.9413 -8.52033 -13.5451 49.9413 -10.2949 -5.23958 49.9413 -9.47475 
-30.1561 -45.7469 -7.22286 -21.8506 -48.5386 -7.22286 -13.5451 -49.3949 -7.22286 
-13.5451 -49.7247 -0.976066 -5.23958 -49.624 -7.22286 -5.23958 -49.7247 -3.77466 
3.06591 -49.2679 -7.22286 11.3714 -47.1805 -7.22286 19.6769 -43.5088 -7.22286 
-37.0736 -41.4192 -7.22286 -38.4616 -40.2437 -7.22286 23.0033 -41.4192 -7.22286 
27.9824 -38.0017 -7.22286 -44.7203 -33.1137 -7.22286 -46.7671 -29.6991 -7.22286 
34.9528 -33.1137 -7.22286 36.2879 -32.1346 -7.22286 44.5934 -25.4841 -7.22286 
-49.3128 -24.8082 -7.22286 45.2971 -24.8082 -7.22286 -52.4639 -16.5027 -7.22286 
52.3287 -16.5027 -7.22286 52.8989 -15.4223 -7.22286 52.8989 -16.5027 -2.17834 
-54.2985 -8.1972 -7.22286 56.1494 -8.1972 -7.22286 -54.779 0.108297 -7.22286 
-55.0726 0.108297 -1.39059 58.3615 0.108297 -7.22286 -54.3576 8.41379 -7.22286 
59.1232 8.41379 -7.22286 -52.9276 16.7193 -7.22286 57.4499 16.7193 -7.22286 
-51.1316 25.0248 -7.22286 53.1424 25.0248 -7.22286 52.8989 25.3511 -7.22286 
-47.8333 33.3303 -7.22286 -46.7671 34.8723 -7.22286 36.2879 38.733 -7.22286 
45.0969 33.3303 -7.22286 44.5934 33.7288 -7.22286 44.5934 33.3303 0.0724967 
-40.792 41.6358 -7.22286 -38.4616 43.6435 -7.22286 -30.1561 48.0154 -7.22286 
3.06591 49.6999 -7.22286 11.3714 47.6494 -7.22286 19.6769 45.284 -7.22286 
29.7152 41.6358 -7.22286 27.9824 42.3461 -7.22286 -23.6978 49.9413 -7.22286 
-21.8506 50.4631 -7.22286 -21.8506 49.9413 -3.48481 -13.5451 51.054 -7.22286 
1.11408 49.9413 -7.22286 -5.23958 50.7102 -7.22286 -5.23958 49.9413 -0.00708368 
-13.5451 -49.8309 1.08263 -5.23958 -49.8639 1.08263 -30.1561 -46.0832 1.08263 
-14.6433 -49.7247 1.08263 -21.8506 -48.9923 1.08263 -13.5451 -49.7247 1.87325 
-3.6739 -49.7247 1.08263 -5.23958 -49.7247 2.28638 3.06591 -49.107 1.08263 
11.3714 -46.7522 1.08263 19.6769 -42.7806 1.08263 -37.665 -41.4192 1.08263 
-38.4616 -40.7534 1.08263 21.777 -41.4192 1.08263 27.9824 -37.1082 1.08263 
-45.1875 -33.1137 1.08263 -46.7671 -30.4874 1.08263 33.8835 -33.1137 1.08263 
36.2879 -31.5098 1.08263 44.5934 -25.2784 1.08263 -49.6993 -24.8082 1.08263 
-46.7671 -24.8082 7.42036 45.1117 -24.8082 1.08263 44.5934 -24.8082 7.09434 
52.8989 -16.8997 1.08263 -52.7949 -16.5027 1.08263 53.1953 -16.5027 1.08263 
52.8989 -16.5027 3.4266 -54.5474 -8.1972 1.08263 -55.0726 -1.43267 1.08263 
56.8609 -8.1972 1.08263 -55.1918 0.108297 1.08263 -55.0726 3.15417 1.08263 
-55.0726 0.108297 1.55964 59.0691 0.108297 1.08263 -54.8667 8.41379 1.08263 
59.6737 8.41379 1.08263 -53.6588 16.7193 1.08263 57.6954 16.7193 1.08263 
-51.6968 25.0248 1.08263 44.5934 33.2706 1.08263 53.0155 25.0248 1.08263 
52.8989 25.1867 1.08263 52.8989 25.0248 1.35094 -47.9667 33.3303 1.08263 
-46.7671 34.9914 1.08263 -46.7671 33.3303 4.07335 44.5035 33.3303 1.08263 
36.2879 38.121 1.08263 -40.1952 41.6358 1.08263 -38.4616 43.1011 1.08263 
-38.4616 41.6358 3.81359 -30.1561 47.2051 1.08263 -21.8506 49.299 1.08263 
-5.23958 49.8203 1.08263 3.06591 48.6855 1.08263 11.3714 46.7344 1.08263 
19.6769 44.5992 1.08263 19.6769 41.6358 6.98143 28.0808 41.6358 1.08263 
27.9824 41.6776 1.08263 27.9824 41.6358 1.1693 -14.56 49.9413 1.08263 
-10.0321 49.9413 1.08263 -13.5451 50.0322 1.08263 -13.5451 49.9413 1.27214 
-30.1561 -43.5089 9.38813 -21.8506 -47.2025 9.38813 -13.5451 -48.695 9.38813 
-5.23958 -48.8969 9.38813 3.06591 -48.003 9.38813 11.3714 -45.6583 9.38813 
19.6769 -41.5093 9.38813 -33.1229 -41.4192 9.38813 -38.4616 -36.1489 9.38813 
-30.1561 -41.4192 11.982 -21.8506 -41.4192 17.14 19.8169 -41.4192 9.38813 
19.6769 -41.4192 9.68223 27.9824 -36.0929 9.38813 -40.8833 -33.1137 9.38813 
-38.4616 -33.1137 11.6774 -30.1561 -33.1137 17.5273 32.2646 -33.1137 9.38813 
36.2879 -30.318 9.38813 -45.5199 -24.8082 9.38813 -46.7671 -22.374 9.38813 
-38.4616 -24.8082 14.7546 44.3644 -24.8082 9.38813 44.5934 -24.5913 9.38813 
-49.1389 -16.5027 9.38813 -46.7671 -16.5027 12.226 -38.4616 -16.5027 17.3353 
51.9122 -16.5027 9.38813 52.8989 -14.7081 9.38813 -51.7288 -8.1972 9.38813 
-46.7671 -8.1972 15.2178 55.7052 -8.1972 9.38813 52.8989 -8.1972 16.3336 
-52.8541 0.108297 9.38813 -46.7671 0.108297 17.518 57.6458 0.108297 9.38813 
-52.7036 8.41379 9.38813 -46.7671 8.41379 17.243 57.5877 8.41379 9.38813 
52.8989 8.41379 16.102 -51.4086 16.7193 9.38813 -46.7671 16.7193 15.4619 
54.8196 16.7193 9.38813 52.8989 19.7652 9.38813 52.8989 16.7193 12.3067 
-48.9005 25.0248 9.38813 -46.7671 28.9814 9.38813 -46.7671 25.0248 12.0898 
36.2879 25.0248 16.071 48.4578 25.0248 9.38813 44.5934 28.5282 9.38813 
44.5934 25.0248 12.756 -43.4514 33.3303 9.38813 -38.4616 37.9306 9.38813 
-38.4616 33.3303 13.6592 -30.1561 33.3303 17.0001 3.06591 33.3303 17.4836 
11.3714 33.3303 16.4688 19.6769 40.1172 9.38813 19.6769 33.3303 15.3186 
27.9824 37.0446 9.38813 27.9824 33.3303 12.9491 36.97 33.3303 9.38813 
36.2879 33.722 9.38813 36.2879 33.3303 9.82793 -32.8254 41.6358 9.38813 
-30.1561 43.0578 9.38813 -30.1561 41.6358 10.892 -21.8506 44.5857 9.38813 
-21.8506 41.6358 12.5447 -13.5451 45.4027 9.38813 -13.5451 41.6358 13.3261 
-5.23958 45.1315 9.38813 -5.23958 41.6358 12.9597 3.06591 44.0166 9.38813 
3.06591 41.6358 11.8279 14.1936 41.6358 9.38813 11.3714 42.2995 9.38813 
11.3714 41.6358 10.1513 -13.5451 -44.0843 17.6936 -5.23958 -44.2578 17.6936 
3.06591 -43.8759 17.6936 11.3714 -42.2974 17.6936 -20.5549 -41.4192 17.6936 
[...]
POINT_DATA 528
SCALARS ImageScalars float
LOOKUP_TABLE default
0 0 0 0 0 0 0 0 0 
0 0 0 0 0 0 0 0 0 
0 0 0 0 0 0 0 0 0 
0 0 0 0 0 0 0 0 0 
0 0 0 0 0 0 0 0 0 
0 0 0 0 0 0 0 0 0 
0 0 0 0 0 0 0 0 0 
0 0 0 0 0 0 0 0 0 
0 0 0 0 0 0 0 0 0 
0 0 0 0 0 0 0 0 0 
0 0 0 0 0 0 0 0 0 
0 0 0 0 0 0 0 0 0 
0 0 0 0 0 0 0 0 0 
0 0 0 0 0 0 0 0 0 
0 0 0 0 0 0 0 0 0 
0 0 0 0 0 0 0 0 0 
0 0 0 0 0 0 0 0 0 
0 0 0 0 0 0 0 0 0 
0 0 0 0 0 0 0 0 0 
0 0 0 0 0 0 0 0 0 
0 0 0 0 0 0 0 0 0 
0 0 0 0 0 0 0 0 0 
0 0 0 0 0 0 0 0 0 
0 0 0 0 0 0 0 0 0 
0 0 0 0 0 0 0 0 0 
0 0 0 0 0 0 0 0 0 
0 0 0 0 0 0 0 0 0 
0 0 0 0 0 0 0 0 0 
0 0 0 0 0 0 0 0 0 
0 0 0 0 0 0 0 0 0 
0 0 0 0 0 0 0 0 0 
0 0 0 0 0 0 0 0 0 
0 0 0 0 0 0 0 0 0 
0 0 0 0 0 0 0 0 0 
0 0 0 0 0 0 0 0 0 
0 0 0 0 0 0 0 0 0 
0 0 0 0 0 0 0 0 0 
0 0 0 0 0 0 0 0 0 
0 0 0 0 0 0 0 0 0 
0 0 0 0 0 0 0 0 0 
0 0 0 0 0 0 0 0 0 
0 0 0 0 0 0 0 0 0 
0 0 0 0 0 0 0 0 0 
0 0 0 0 0 0 0 0 0 
0 0 0 0 0 0 0 0 0 
0 0 0 0 0 0 0 0 0 
0 0 0 0 0 0 0 0 0 
0 0 0 0 0 0 0 0 0 
0 0 0 0 0 0 0 0 0 
0 0 0 0 0 0 0 0 0 
0 0 0 0 0 0 0 0 0 
0 0 0 0 0 0 0 0 0 
0 0 0 0 0 0 0 0 0 
0 0 0 0 0 0 0 0 0 
0 0 0 0 0 0 0 0 0 
0 0 0 0 0 0 0 0 0 
0 0 0 0 0 0 0 0 0 
0 0 0 0 0 0 0 0 0 
0 0 0 0 0 0 
NORMALS Normals float
0.24814 0.582305 0.774175 0.122465 0.531669 0.838052 0.0133218 0.487522 0.873009 
-0.103995 0.495366 0.862437 -0.272754 0.615135 0.739739 0.359822 0.272116 0.892458 
0.172358 0.202108 0.964077 0.0497195 0.12543 0.990856 0.0148241 0.0642541 0.997823 
-0.0735076 0.0762094 0.994379 -0.132437 0.191492 0.972518 -0.304721 0.318711 0.897535 
-0.471155 0.55762 0.683427 0.43378 0.213048 0.875468 0.274308 0.0640775 0.959505 
0.0894434 -0.0568793 0.994366 -0.0295786 -0.0869066 0.995777 -0.0366079 -0.169838 0.984792 
0.0202004 -0.153169 0.987993 -0.0196759 -0.0450341 0.998792 -0.150177 0.033586 0.988088 
-0.254408 0.25411 0.933115 -0.426568 0.458165 0.779823 0.58928 0.26867 0.761948 
0.27261 0.201582 0.94077 0.106331 0.058536 0.992606 0.0244633 -0.0376174 0.998993 
-0.0633697 -0.0595739 0.99621 -0.0558528 -0.105988 0.992798 0.054292 -0.113397 0.992065 
0.0553714 -0.0700947 0.996002 0.0014452 -0.0287435 0.999586 -0.0547492 0.122947 0.990902 
-0.196411 0.256361 0.946415 -0.521255 0.425217 0.739922 0.555008 0.136429 0.820581 
0.233823 0.149802 0.96067 0.0445586 0.13183 0.99027 -0.0170739 0.102212 0.994616 
-0.0925965 0.152364 0.983977 -0.0940847 0.114969 0.988904 0.0597826 0.0139903 0.998113 
0.0583798 0.0132827 0.998206 0.0399077 -0.0110103 0.999143 0.0299469 0.0619176 0.997632 
-0.115727 0.12026 0.985974 -0.369489 0.193694 0.908824 0.574894 0.033492 0.817542 
0.242444 0.0306259 0.969682 0.060247 0.0532412 0.996763 0.0332335 0.0403917 0.998631 
-0.0417274 0.0196722 0.998935 -0.194026 0.12191 0.973392 -0.0422269 0.105457 0.993527 
0.0312511 -0.074599 0.996724 0.0515854 -0.0323917 0.998143 0.0798644 0.00582809 0.996789 
-0.0725783 0.0388461 0.996606 -0.315841 0.0608384 0.946859 -0.68296 0.133899 0.718078 
0.585979 -0.0966139 0.804546 0.238749 -0.0727738 0.96835 0.0536329 -0.0554932 0.997018 
-0.0427989 -0.0592998 0.997322 -0.00708925 -0.105201 0.994426 -0.00843754 0.0269167 0.999602 
-0.145027 0.123193 0.981728 -0.0742004 -0.0289616 0.996823 0.116075 -0.0216003 0.993006 
0.101887 -0.0492247 0.993577 -0.0595281 -0.0350398 0.997611 -0.289464 -0.0855155 0.953361 
-0.637056 -0.0432744 0.769602 0.638668 -0.194619 0.744464 0.281215 -0.131874 0.950541 
0.0704162 -0.0759234 0.994624 -0.0151307 0.0161228 0.999756 0.0354665 0.0490187 0.998168 
0.0448302 0.0409545 0.998155 -0.105415 0.0617939 0.992507 -0.114977 0.117877 0.986349 
0.0302178 0.0282354 0.999144 0.064337 -0.0996349 0.992942 -0.107728 -0.16327 0.980682 
-0.3363 -0.183714 0.923662 -0.649512 -0.300774 0.698333 0.369905 -0.19988 0.907314 
0.189979 -0.0954375 0.977139 0.0844366 -0.0328804 0.995886 0.0161508 0.0230255 0.999604 
0.00463368 -0.000487359 0.999989 -0.0634553 -0.0248533 0.997675 -0.111038 0.00522698 0.993802 
-0.097856 -0.0479128 0.994047 -0.0888711 -0.195354 0.976698 -0.157532 -0.307238 0.938503 
-0.431192 -0.432893 0.791629 0.504006 -0.350422 0.789419 0.238721 -0.228352 0.943858 
0.102366 -0.217275 0.970728 0.0676279 -0.162755 0.984346 -0.00376738 -0.169606 0.985505 
-0.0976135 -0.205694 0.973736 -0.134553 -0.243628 0.96049 -0.176022 -0.312519 0.93346 
-0.203178 -0.432636 0.878376 -0.363266 -0.604183 0.709225 0.305364 -0.57871 0.756206 
0.148202 -0.499426 0.853586 0.0666534 -0.468887 0.88074 -0.0475621 -0.484191 0.873668 
-0.144414 -0.531804 0.834464 -0.218502 -0.610906 0.760954 0.247334 0.73809 0.627734 
0.108281 0.815355 0.568745 0.0134898 0.840867 0.541074 -0.127294 0.838853 0.529266 
-0.296115 0.784003 0.545578 0.416807 0.645231 0.640272 0.421968 0.638302 0.643827 
0.423992 0.651621 0.628984 -0.446649 0.723099 0.526908 -0.455406 0.714066 0.53171 
-0.465836 0.745059 0.477373 -0.495654 0.610378 0.617872 0.586085 0.382349 0.714362 
0.585527 0.37983 0.716161 0.589668 0.384983 0.709986 -0.497317 0.603835 0.622944 
-0.492763 0.548167 0.675795 0.543529 0.287634 0.78857 0.61206 0.290452 0.735541 
0.764624 0.402319 0.503478 -0.506418 0.517059 0.690066 -0.565303 0.493076 0.661294 
-0.680272 0.688459 0.251505 0.626763 0.272767 0.729908 -0.586087 0.454097 0.671043 
0.672159 0.145506 0.725968 -0.669792 0.291709 0.68285 -0.711265 0.208338 0.67134 
-0.7766 0.312066 0.547272 0.738298 0.0188327 0.674212 -0.719301 0.138838 0.680684 
0.728731 -0.115793 0.674939 -0.702219 -0.0421488 0.710712 0.696388 -0.196603 0.690211 
0.670311 -0.238382 0.70275 -0.658159 -0.30257 0.689404 -0.655822 -0.311147 0.687812 
0.638189 -0.260179 0.724584 0.713216 -0.273364 0.645441 -0.567779 -0.469318 0.67629 
-0.485573 -0.540178 0.687333 -0.790704 -0.560692 0.245789 0.567051 -0.382976 0.729235 
0.801528 -0.480823 0.355474 0.542198 -0.443556 0.713638 -0.257687 -0.67136 0.694891 
-0.276298 -0.623286 0.731556 -0.385939 -0.625695 0.677906 -0.375466 -0.631749 0.678173 
-0.581259 -0.775695 0.245836 0.426046 -0.604 0.673549 0.605874 -0.687991 0.39948 
0.328878 -0.672838 0.662668 0.169256 -0.704469 0.689257 0.0485724 -0.763282 0.644237 
-0.0681381 -0.77813 0.624397 -0.165566 -0.745536 0.645573 -0.256221 -0.684595 0.682407 
-0.232304 -0.706977 0.667996 -0.269307 -0.720501 0.639024 -0.360943 -0.899539 0.246068 
0.177717 -0.963667 0.199403 0.0249638 -0.959334 0.281168 -0.0791489 -0.970228 0.228896 
0.419202 0.881835 0.215956 0.204004 0.955908 0.211238 0.061732 0.981724 0.180018 
0.0530472 0.998514 0.0124852 -0.00722988 0.987566 0.157041 -0.02195 0.997076 0.0731909 
-0.140097 0.982383 0.12368 -0.318276 0.941499 0.110813 -0.48415 0.871495 0.0780733 
0.610517 0.755724 0.23696 0.653654 0.716489 0.243679 -0.525046 0.847828 0.0742568 
-0.564563 0.819753 0.0962983 0.790628 0.550014 0.269057 0.825561 0.49188 0.276593 
-0.583271 0.80396 0.115945 -0.590774 0.796817 0.126767 -0.683293 0.70614 0.185679 
0.86506 0.412348 0.285727 -0.692109 0.696687 0.188711 0.924369 0.275556 0.263841 
-0.81872 0.512809 0.258312 -0.834973 0.485925 0.258257 -0.837395 0.539246 0.089351 
0.963555 0.130873 0.233313 -0.908332 0.33309 0.252951 0.974493 0.00373975 0.224386 
0.999869 0.0147425 -0.00674782 -0.951604 0.162994 0.260542 0.963678 -0.105065 0.245532 
-0.964397 -0.0553485 0.258603 0.945014 -0.177903 0.274408 -0.919547 -0.318114 0.230733 
0.913144 -0.294293 0.282063 -0.795675 -0.561608 0.226929 -0.79047 -0.569223 0.226146 
0.83842 -0.481969 0.254476 0.816197 -0.519652 0.252556 -0.462165 -0.866924 0.186673 
-0.595682 -0.775974 0.207431 -0.584867 -0.783919 0.208331 -0.566345 -0.804345 -0.179671 
0.658884 -0.725026 0.200523 0.59009 -0.783282 0.195609 0.367622 -0.917857 0.149641 
-0.181963 -0.976544 0.115114 -0.256982 -0.958259 0.125297 -0.29896 -0.941388 0.156241 
-0.377245 -0.912169 0.160105 -0.355961 -0.921245 0.15684 0.215962 -0.967932 0.128328 
0.174264 -0.976329 0.128116 0.174463 -0.982605 -0.0636379 0.0132713 -0.993136 0.116214 
-0.157431 -0.981021 0.113198 -0.0788915 -0.990233 0.114954 -0.0779625 -0.970544 -0.22796 
0.0499585 0.9979 -0.0412292 -0.0422143 0.998168 -0.0433474 0.426505 0.898492 -0.103954 
0.070854 0.99646 -0.0452444 0.212865 0.974376 -0.0726623 0.0537508 0.996613 -0.062241 
-0.0666278 0.996558 -0.049334 -0.0420472 0.996583 -0.0710927 -0.175224 0.981714 -0.0743877 
-0.355569 0.930734 -0.0854713 -0.501087 0.858638 -0.107948 0.630704 0.76463 -0.132489 
0.655541 0.742792 -0.13611 -0.525753 0.843541 -0.109646 -0.56094 0.822068 -0.0977283 
0.799516 0.577433 -0.165365 0.838106 0.518896 -0.1683 -0.554487 0.826707 -0.0953905 
-0.561901 0.822143 -0.0913699 -0.66604 0.744791 -0.0409526 0.898912 0.402256 -0.173627 
0.784946 0.389669 -0.481683 -0.674452 0.737263 -0.0394707 -0.669298 0.730794 -0.134087 
-0.829479 0.558229 -0.018568 0.946793 0.276006 -0.165539 -0.835867 0.548668 -0.0170217 
-0.830627 0.551482 -0.076977 0.982014 0.137524 -0.129365 0.993608 0.0409014 -0.105217 
-0.939186 0.342444 -0.0257284 0.994791 0.0189898 -0.100155 0.995195 -0.0210069 -0.0956329 
0.99304 0.020485 -0.115983 -0.98685 0.156177 -0.0416668 0.992055 -0.0900932 -0.0878042 
-0.993042 -0.0827278 -0.0838061 0.980108 -0.181004 -0.0814043 -0.93138 -0.339192 -0.132209 
0.940301 -0.321843 -0.110686 -0.557128 -0.797144 -0.232743 -0.792271 -0.581085 -0.186135 
-0.789059 -0.585352 -0.186412 -0.788538 -0.582523 -0.197167 0.838825 -0.518325 -0.166469 
0.80995 -0.559168 -0.176955 0.788525 -0.542004 -0.290619 -0.555295 -0.798342 -0.233019 
-0.439644 -0.863706 -0.246423 0.614073 -0.753583 -0.234578 0.557257 -0.795783 -0.237052 
0.563639 -0.751479 -0.342914 0.31961 -0.915509 -0.244322 0.165169 -0.938161 -0.304259 
-0.0769321 -0.956966 -0.279815 -0.179315 -0.941537 -0.285226 -0.226744 -0.933343 -0.278315 
-0.278457 -0.924206 -0.261354 -0.25958 -0.83245 -0.489536 -0.346773 -0.903905 -0.250409 
-0.345694 -0.904334 -0.250351 -0.345677 -0.903435 -0.2536 0.0460126 -0.955969 -0.289838 
-0.0152562 -0.958566 -0.28446 0.0295373 -0.957291 -0.287614 0.0299602 -0.955153 -0.294592 
0.483877 0.754467 -0.443443 0.274922 0.8852 -0.375286 0.0926853 0.956336 -0.277185 
-0.0402536 0.967526 -0.249546 -0.183556 0.950967 -0.248935 -0.35715 0.907389 -0.22156 
-0.50387 0.840257 -0.200208 0.549332 0.693594 -0.466006 0.656234 0.533404 -0.533702 
0.490443 0.659583 -0.569575 0.345986 0.52277 -0.779105 -0.504912 0.839755 -0.199687 
-0.501725 0.839366 -0.209133 -0.547239 0.820021 -0.167614 0.682447 0.46971 -0.560034 
0.634742 0.419849 -0.648714 0.400065 0.256386 -0.879894 -0.555316 0.815226 -0.164411 
-0.559804 0.810517 -0.172284 0.714626 0.363799 -0.597461 0.73555 0.356885 -0.575847 
0.493681 0.273686 -0.825454 -0.66458 0.727252 -0.171577 -0.669026 0.72296 -0.172435 
0.768078 0.310326 -0.560138 0.676595 0.311567 -0.667192 0.328396 0.247103 -0.911645 
-0.800315 0.55208 -0.233885 -0.836232 0.49511 -0.235759 0.848459 0.192763 -0.492909 
0.614436 0.223269 -0.756716 -0.91914 0.310838 -0.241993 -0.824964 0.255833 -0.503968 
0.905159 0.0517894 -0.421906 0.596043 0.0931514 -0.797531 -0.946214 0.102092 -0.307011 
0.905607 -0.0799372 -0.416516 0.630559 -0.086243 -0.771335 -0.900238 -0.153391 -0.407484 
-0.687032 -0.206837 -0.696567 0.876914 -0.201264 -0.436479 0.674262 -0.216378 -0.706081 
-0.787305 -0.412332 -0.458403 -0.728595 -0.481763 -0.486881 -0.699011 -0.433948 -0.568395 
0.801596 -0.364358 -0.474012 0.737737 -0.45614 -0.497675 0.719976 -0.364392 -0.590638 
-0.237917 -0.475926 -0.846694 -0.591659 -0.587382 -0.552197 -0.491999 -0.658672 -0.569287 
-0.462424 -0.575908 -0.674162 0.624505 -0.564379 -0.53988 0.509442 -0.645854 -0.568631 
0.44779 -0.540217 -0.712496 0.21056 -0.454217 -0.865651 -0.0984737 -0.40718 -0.908024 
-0.109673 -0.460899 -0.88065 -0.238887 -0.761996 -0.601909 -0.176156 -0.505954 -0.844381 
-0.290148 -0.729774 -0.619067 -0.249949 -0.616523 -0.746609 -0.384743 -0.718172 -0.57983 
-0.377365 -0.721229 -0.580881 -0.373908 -0.711445 -0.595011 0.361179 -0.71458 -0.599103 
0.279981 -0.745717 -0.60458 0.275481 -0.701834 -0.656917 0.113358 -0.767624 -0.630796 
0.110501 -0.689786 -0.715531 0.0264912 -0.7786 -0.626962 0.0179331 -0.671566 -0.740728 
-0.0659967 -0.769382 -0.63537 -0.0688169 -0.664219 -0.744364 -0.141604 -0.758139 -0.636533 
-0.12764 -0.68703 -0.715331 -0.200258 -0.772261 -0.602917 -0.180811 -0.770563 -0.611179 
-0.174359 -0.75169 -0.636051 0.147423 0.647339 -0.747809 -0.0102658 0.702671 -0.711441 
-0.100945 0.741381 -0.663449 -0.263308 0.787076 -0.557836 0.315325 0.508021 -0.801551 
0.333819 0.463519 -0.820802 0.163466 0.493416 -0.854295 0.0157614 0.524267 -0.851408 
-0.0639677 0.620458 -0.781626 -0.301694 0.784113 -0.542354 -0.250156 0.750885 -0.611223 
-0.400642 0.771008 -0.495008 -0.492528 0.756952 -0.429465 0.389751 0.250372 -0.886232 
0.386642 0.225509 -0.894233 0.258698 0.19898 -0.945242 0.148484 0.139171 -0.979073 
0.0896029 0.135843 -0.98667 0.0790478 0.223633 -0.971463 -0.00723953 0.36076 -0.932631 
-0.231656 0.576054 -0.783899 -0.494796 0.756049 -0.428448 -0.487313 0.750107 -0.447063 
-0.551633 0.70176 -0.450814 0.355472 0.127075 -0.926009 0.32717 0.0942131 -0.940257 
0.229872 0.0132692 -0.97313 0.128642 -0.013779 -0.991595 0.141658 0.029398 -0.989479 
0.190275 0.10593 -0.975999 -0.26648 0.348093 -0.898788 -0.591669 0.651507 -0.474834 
-0.518956 0.587336 -0.621065 -0.651774 0.556347 -0.51543 0.295941 0.231256 -0.92679 
0.320874 0.242813 -0.915468 0.172702 0.162639 -0.971454 0.151314 0.0576038 -0.986806 
0.161495 0.0614481 -0.984959 0.206869 0.140734 -0.968194 0.229226 0.0827228 -0.969852 
-0.318309 0.224608 -0.920994 -0.692832 0.483347 -0.535126 -0.595062 0.430527 -0.678636 
0.424309 0.228944 -0.876097 0.308825 0.227235 -0.923575 0.138232 0.215268 -0.966722 
0.123919 0.17686 -0.976404 0.224102 0.159892 -0.96136 0.135826 0.0728838 -0.988048 
-0.0058335 -0.204795 -0.978787 -0.782371 0.238105 -0.575501 -0.428326 0.115813 -0.896172 
-0.770162 0.0667744 -0.634343 0.582091 0.0951768 -0.807534 0.290909 0.114412 -0.949885 
0.119699 0.0823303 -0.989391 0.0844558 0.0576439 -0.994758 0.0659558 -0.0767235 -0.994869 
0.0556888 -0.132786 -0.989579 0.0266658 -0.0353406 -0.99902 -0.0914033 -0.106945 -0.990055 
-0.0180108 -0.228662 -0.973339 0.0859747 -0.195842 -0.976859 -0.0587084 -0.191823 -0.979672 
-0.351031 -0.13197 -0.927017 -0.746619 -0.0295748 -0.664595 -0.72185 -0.07122 -0.688375 
-0.733253 -0.0343743 -0.679086 0.596397 -0.0857138 -0.7981 0.283852 -0.0467708 -0.957727 
0.0841112 -0.0563235 -0.994863 -0.016201 -0.0733571 -0.997174 0.022993 -0.121136 -0.99237 
0.181444 -0.099646 -0.97834 0.0696457 -0.118916 -0.990459 -0.2197 -0.171941 -0.960296 
-0.089721 -0.185845 -0.978474 0.0491203 -0.245037 -0.968269 -0.0811025 -0.288427 -0.954061 
-0.573469 -0.237081 -0.784172 -0.323566 -0.292237 -0.899946 0.5102 -0.210138 -0.833989 
0.31279 -0.194279 -0.929741 0.0937648 -0.141793 -0.985446 0.021197 -0.10354 -0.994399 
0.0335468 -0.0655968 -0.997282 0.0508675 -0.132682 -0.989853 -0.0420052 -0.320039 -0.946473 
-0.149472 -0.265966 -0.952324 -0.0887667 -0.197239 -0.976328 -0.028854 -0.273702 -0.961382 
-0.19306 -0.424214 -0.884743 -0.129831 -0.368992 -0.92032 -0.330207 -0.420326 -0.845156 
-0.327397 -0.421311 -0.845759 -0.326504 -0.419953 -0.846779 0.3865 -0.304952 -0.870415 
0.362442 -0.32854 -0.87218 0.354216 -0.301538 -0.885215 0.195405 -0.411509 -0.890212 
0.164722 -0.267811 -0.949286 0.0589785 -0.212062 -0.975475 -0.00485914 -0.19626 -0.98054 
-0.06486 -0.247045 -0.966831 -0.0962248 -0.396806 -0.912845 -0.0747884 -0.308949 -0.948134 
-0.100015 -0.394268 -0.913537 -0.091909 -0.297821 -0.950187 -0.130795 -0.334224 -0.933374 
-0.113812 -0.280088 -0.953204 -0.134026 -0.379645 -0.915373 -0.132128 -0.379071 -0.915886 
-0.130932 -0.37662 -0.917068 0.153231 -0.436398 -0.88661 0.102104 -0.454538 -0.884856 
0.0997741 -0.42179 -0.901187 0.00149259 -0.457887 -0.889009 -0.00229916 -0.397169 -0.917743 
-0.0928093 -0.406244 -0.909039 -0.0755471 -0.437552 -0.896014 -0.0766315 -0.407863 -0.909821 
0.129319 0.192819 -0.972675 -0.0764877 0.299874 -0.950908 0.152086 0.163648 -0.974725 
0.142901 0.17402 -0.974318 -0.205127 0.304744 -0.930083 -0.0382572 0.193586 -0.980337 
-0.22864 0.263754 -0.937101 0.179616 0.0434342 -0.982778 0.0515602 0.00479927 -0.998658 
0.110662 -0.0124456 -0.99378 -0.00527278 -0.192103 -0.981361 0.00463941 -0.0664118 -0.997782 
-0.221935 0.119165 -0.967752 -0.12118 0.0204836 -0.992419 -0.140441 0.024294 -0.989791 
0.0472497 0.00676167 -0.99886 0.0357874 -0.0041754 -0.999351 0.0364888 -0.00185501 -0.999332 
-0.00850411 -0.166818 -0.985951 -0.0188782 -0.125197 -0.991952 -0.0110102 -0.127665 -0.991756 
0.00972337 -0.159675 -0.987122 0.0140895 -0.151152 -0.98841 0.0127811 -0.150559 -0.988518 
-0.13461 0.00940216 -0.990854 -0.116511 -0.0150627 -0.993075 -0.123525 0.00559339 -0.992326 

