# vtk DataFile Version 4.2
vtk output
ASCII
DATASET POLYDATA
POINTS 546 float
-11.4876 -24.4727 -23.0069 -33.739 -31.8898 -16.8344 -26.3218 -31.8898 -19.544 
-18.9047 -31.8898 -20.5532 -11.4876 -25.4523 -22.8146 -11.4876 -31.8898 -21.3523 
-4.07048 -31.8898 -21.1263 3.34664 -31.8898 -20.084 10.7638 -31.8898 -18.492 
18.1809 -31.8898 -15.8859 -41.1561 -24.4727 -17.6538 -33.739 -24.4727 -20.5985 
-26.3218 -24.4727 -21.4447 -12.9606 -24.4727 -22.8146 -18.9047 -24.4727 -22.0479 
-7.63191 -24.4727 -22.8146 -11.4876 -23.205 -22.8146 -4.07048 -24.4727 -22.6391 
3.34664 -24.4727 -21.6823 10.7638 -24.4727 -20.4921 18.1809 -24.4727 -18.2896 
-48.5732 -17.0556 -15.8542 -41.1561 -17.0556 -19.8865 -33.739 -17.0556 -21.3948 
-26.3218 -17.0556 -22.1695 -18.9047 -17.0556 -21.7794 -11.4876 -17.0556 -21.8673 
-4.07048 -17.0556 -22.0059 3.34664 -17.0556 -20.8417 10.7638 -17.0556 -19.6516 
18.1809 -17.0556 -17.4178 -48.5732 -9.63843 -17.2058 -41.1561 -9.63843 -20.6508 
-33.739 -9.63843 -21.4614 -26.3218 -9.63843 -21.1106 -18.9047 -9.63843 -20.178 
-11.4876 -9.63843 -19.7542 -4.07048 -9.63843 -19.6982 3.34664 -9.63843 -18.3409 
10.7638 -9.63843 -17.7951 -48.5732 -2.22131 -17.7603 -41.1561 -2.22131 -20.7101 
-33.739 -2.22131 -21.4148 -26.3218 -2.22131 -20.8195 -18.9047 -2.22131 -19.4319 
-11.4876 -2.22131 -19.093 -4.07048 -2.22131 -19.2475 3.34664 -2.22131 -16.8918 
10.7638 -2.22131 -17.3425 -48.5732 5.19581 -17.1913 -41.1561 5.19581 -20.3601 
-33.739 5.19581 -21.2473 -26.3218 5.19581 -20.8849 -18.9047 5.19581 -19.967 
-11.4876 5.19581 -20.3436 -4.07048 5.19581 -20.4403 3.34664 5.19581 -18.6642 
10.7638 5.19581 -18.3735 18.1809 5.19581 -17.0405 25.598 5.19581 -17.1455 
33.0151 5.19581 -16.6698 -48.5732 12.6129 -16.7906 -41.1561 12.6129 -19.5281 
-33.739 12.6129 -20.9186 -26.3218 12.6129 -21.0594 -18.9047 12.6129 -20.5893 
-11.4876 12.6129 -20.3198 -4.07048 12.6129 -19.9803 3.34664 12.6129 -20.0402 
10.7638 12.6129 -20.0197 18.1809 12.6129 -19.1582 25.598 12.6129 -18.5421 
33.0151 12.6129 -17.6022 40.4322 12.6129 -15.4786 -41.1561 20.03 -18.7596 
-33.739 20.03 -20.6367 -26.3218 20.03 -21.3557 -18.9047 20.03 -21.4128 
-11.4876 20.03 -21.2786 -4.07048 20.03 -21.2558 3.34664 20.03 -21.4211 
10.7638 20.03 -21.0195 18.1809 20.03 -19.9649 25.598 20.03 -18.5538 
33.0151 20.03 -17.4631 -33.739 27.4472 -18.3469 -26.3218 27.4472 -20.6153 
-18.9047 27.4472 -21.1394 -11.4876 27.4472 -21.2981 -4.07048 27.4472 -21.4662 
3.34664 27.4472 -21.0876 10.7638 27.4472 -20.2676 18.1809 27.4472 -18.7987 
25.598 27.4472 -16.5695 -26.3218 34.8643 -16.6311 -18.9047 34.8643 -18.981 
-11.4876 34.8643 -19.058 -4.07048 34.8643 -18.6452 3.34664 34.8643 -17.463 
-33.739 -33.118 -15.3975 -26.3218 -36.3511 -15.3975 -18.9047 -37.7649 -15.3975 
-18.9047 -39.3069 -8.2832 -11.4876 -37.8895 -15.3975 -4.07048 -37.1245 -15.3975 
3.34664 -36.1769 -15.3975 10.7638 -35.2167 -15.3975 18.1809 -32.4711 -15.3975 
-35.906 -31.8898 -15.3975 -41.1561 -27.5503 -15.3975 18.9947 -31.8898 -15.3975 
25.598 -31.8898 -10.5386 -43.9858 -24.4727 -15.3975 -48.5732 -17.9704 -15.3975 
24.7175 -24.4727 -15.3975 25.598 -24.4727 -14.9588 33.0151 -24.4727 -10.5105 
-49.0369 -17.0556 -15.3975 23.4946 -17.0556 -15.3975 18.1809 -10.3078 -15.3975 
25.598 -17.0556 -14.5959 33.0151 -17.0556 -12.1835 40.4322 -17.0556 -9.57209 
-50.5367 -9.63843 -15.3975 17.6097 -9.63843 -15.3975 18.1809 -9.63843 -15.2057 
25.598 -9.63843 -14.5246 33.0151 -9.63843 -13.7296 40.4322 -9.63843 -12.1083 
47.8494 -9.63843 -8.86602 -51.2522 -2.22131 -15.3975 16.7818 -2.22131 -15.3975 
18.1809 -0.611713 -15.3975 18.1809 -2.22131 -14.9725 25.598 -1.72203 -15.3975 
25.598 -2.22131 -15.2648 33.0151 -0.389633 -15.3975 33.0151 -2.22131 -14.9803 
40.4322 -2.22131 -13.6239 47.8494 -2.22131 -10.6975 -50.6054 5.19581 -15.3975 
39.9802 5.19581 -15.3975 40.4322 9.24255 -15.3975 40.4322 5.19581 -15.3109 
47.8494 5.19581 -12.5435 -50.1471 12.6129 -15.3975 -48.5732 16.134 -15.3975 
40.5871 12.6129 -15.3975 40.4322 13.0223 -15.3975 47.8494 12.6129 -11.7156 
-45.9593 20.03 -15.3975 -48.5732 20.03 -12.6225 -41.1561 27.3552 -15.3975 
37.86 20.03 -15.3975 33.0151 24.3991 -15.3975 40.4322 20.03 -14.0006 
47.8494 20.03 -8.85727 -41.0712 27.4472 -15.3975 -41.1561 27.4472 -15.3281 
-33.739 32.6346 -15.3975 10.7638 34.8479 -15.3975 18.1809 32.0872 -15.3975 
28.5943 27.4472 -15.3975 25.598 29.0196 -15.3975 33.0151 27.4472 -13.1604 
40.4322 27.4472 -8.37593 -29.7532 34.8643 -15.3975 -33.739 34.8643 -12.2717 
-26.3218 36.2496 -15.3975 -18.9047 38.5303 -15.3975 -11.4876 38.8362 -15.3975 
-4.07048 38.0474 -15.3975 10.7156 34.8643 -15.3975 3.34664 36.7063 -15.3975 
10.7638 34.8643 -15.3682 18.1809 34.8643 -11.1292 -18.9047 -39.3586 -7.98035 
-33.739 -35.6303 -7.98035 -19.3002 -39.3069 -7.98035 -26.3218 -38.3403 -7.98035 
-17.9247 -39.3069 -7.98035 -18.9047 -39.3069 -7.68517 -11.4876 -38.9692 -7.98035 
-4.07048 -38.1685 -7.98035 3.34664 -37.3906 -7.98035 10.7638 -37.2197 -7.98035 
18.1809 -36.3843 -7.98035 25.598 -33.9201 -7.98035 -40.1435 -31.8898 -7.98035 
-41.1561 -31.1943 -7.98035 29.4774 -31.8898 -7.98035 33.0151 -28.7123 -7.98035 
33.0151 -31.8898 -4.69527 -48.2754 -24.4727 -7.98035 -48.5732 -24.0459 -7.98035 
38.3899 -24.4727 -7.98035 40.4322 -21.7385 -7.98035 40.4322 -24.4727 -6.81602 
-52.6682 -17.0556 -7.98035 43.7485 -17.0556 -7.98035 47.8494 -12.0198 -7.98035 
47.8494 -17.0556 -5.71133 -55.0911 -9.63843 -7.98035 49.4989 -9.63843 -7.98035 
55.2665 -9.63843 -1.78955 -55.8999 -2.22131 -7.98035 -55.9903 -2.22131 -6.91269 
51.6827 -2.22131 -7.98035 55.2665 -2.22131 -4.27361 -55.4191 5.19581 -7.98035 
53.0047 5.19581 -7.98035 55.2665 5.19581 -4.89425 -54.0802 12.6129 -7.98035 
52.0271 12.6129 -7.98035 55.2665 12.6129 -2.5024 -51.1124 20.03 -7.98035 
-48.5732 23.681 -7.98035 48.7846 20.03 -7.98035 47.8494 21.2114 -7.98035 
-45.5032 27.4472 -7.98035 -41.1561 31.4553 -7.98035 25.598 33.8997 -7.98035 
33.0151 31.4171 -7.98035 40.9309 27.4472 -7.98035 40.4322 27.7685 -7.98035 
-36.4188 34.8643 -7.98035 -33.739 36.5439 -7.98035 -26.3218 39.6387 -7.98035 
-18.9047 41.0119 -7.98035 -11.4876 40.9074 -7.98035 -4.07048 39.9052 -7.98035 
3.34664 38.6288 -7.98035 10.7638 37.4261 -7.98035 22.7021 34.8643 -7.98035 
18.1809 36.1779 -7.98035 25.598 34.8643 -1.05819 -33.739 -33.9604 -0.563234 
-26.3218 -36.6426 -0.563234 -18.9047 -37.9489 -0.563234 -11.4876 -37.6491 -0.563234 
-4.07048 -36.2894 -0.563234 3.34664 -35.8948 -0.563234 10.7638 -36.9421 -0.563234 
18.1809 -37.0293 -0.563234 25.598 -36.2255 -0.563234 33.0151 -34.1801 -0.563234 
-37.8759 -31.8898 -0.563234 -41.1561 -30.0728 -0.563234 -33.739 -31.8898 3.77591 
37.5924 -31.8898 -0.563234 40.4322 -30.2375 -0.563234 40.4322 -31.8898 3.85632 
-47.7689 -24.4727 -0.563234 -48.5732 -23.5314 -0.563234 47.4252 -24.4727 -0.563234 
47.8494 -24.0018 -0.563234 47.8494 -24.4727 0.133446 -52.7502 -17.0556 -0.563234 
52.926 -17.0556 -0.563234 55.2665 -11.407 -0.563234 55.2665 -17.0556 4.87811 
-55.5258 -9.63843 -0.563234 -55.9903 -6.22816 -0.563234 55.9477 -9.63843 -0.563234 
-56.5079 -2.22131 -0.563234 -55.9903 4.56459 -0.563234 -55.9903 -2.22131 1.02153 
57.7118 -2.22131 -0.563234 -55.9386 5.19581 -0.563234 57.8241 5.19581 -0.563234 
-54.4044 12.6129 -0.563234 56.2108 12.6129 -0.563234 55.2665 14.9946 -0.563234 
-50.9166 20.03 -0.563234 -48.5732 23.3903 -0.563234 -48.5732 20.03 4.2945 
52.8156 20.03 -0.563234 47.8494 25.6549 -0.563234 -45.0736 27.4472 -0.563234 
-41.1561 30.8612 -0.563234 -41.1561 27.4472 5.37078 33.0151 33.265 -0.563234 
45.5574 27.4472 -0.563234 40.4322 30.6802 -0.563234 -35.1747 34.8643 -0.563234 
-33.739 35.7077 -0.563234 -33.739 34.8643 1.25025 -26.3218 39.016 -0.563234 
-18.9047 40.5357 -0.563234 -11.4876 40.6685 -0.563234 -4.07048 39.6427 -0.563234 
3.34664 38.4135 -0.563234 10.7638 37.4619 -0.563234 18.1809 36.537 -0.563234 
25.8991 34.8643 -0.563234 25.598 34.9291 -0.563234 25.598 34.8643 -0.0339655 
-26.3218 -32.8664 6.85389 -18.9047 -34.718 6.85389 -11.4876 -35.45 6.85389 
-4.07048 -35.1031 6.85389 3.34664 -35.2945 6.85389 10.7638 -36.4487 6.85389 
18.1809 -37.3313 6.85389 25.598 -36.5524 6.85389 33.0151 -35.3084 6.85389 
40.4322 -32.7367 6.85389 -41.1561 -26.5153 6.85389 -29.2896 -31.8898 6.85389 
-33.739 -30.3154 6.85389 -26.3218 -31.8898 8.4122 -18.9047 -31.8898 11.5731 
41.8164 -31.8898 6.85389 40.4322 -31.8898 9.64834 47.8494 -27.5025 6.85389 
-43.7114 -24.4727 6.85389 -48.5732 -19.1943 6.85389 -41.1561 -24.4727 9.6561 
50.9053 -24.4727 6.85389 47.8494 -24.4727 13.3279 55.2665 -18.1837 6.85389 
-50.0664 -17.0556 6.85389 -48.5732 -17.0556 8.99942 55.9484 -17.0556 6.85389 
55.2665 -17.0556 8.25215 -53.0238 -9.63843 6.85389 -48.5732 -9.63843 13.2334 
57.9528 -9.63843 6.85389 55.2665 -9.63843 12.5557 -53.8662 -2.22131 6.85389 
-48.5732 -2.22131 14.077 58.656 -2.22131 6.85389 55.2665 -2.22131 12.9675 
-52.9372 5.19581 6.85389 -48.5732 5.19581 12.4007 58.28 5.19581 6.85389 
55.2665 5.19581 12.5958 -50.9844 12.6129 6.85389 -48.5732 17.2489 6.85389 
-48.5732 12.6129 9.55386 56.082 12.6129 6.85389 55.2665 14.3639 6.85389 
55.2665 12.6129 8.23269 -46.9159 20.03 6.85389 -41.1561 26.2921 6.85389 
-41.1561 20.03 11.8694 52.2927 20.03 6.85389 47.8494 24.8807 6.85389 
47.8494 20.03 12.987 -39.7574 27.4472 6.85389 -33.739 31.548 6.85389 
-33.739 27.4472 10.9319 -26.3218 27.4472 13.977 25.598 34.045 6.85389 
33.0151 32.5026 6.85389 44.4494 27.4472 6.85389 40.4322 29.9509 6.85389 
40.4322 27.4472 11.1506 -27.3566 34.8643 6.85389 -26.3218 35.3446 6.85389 
-26.3218 34.8643 7.45563 -18.9047 37.9212 6.85389 -18.9047 34.8643 10.8312 
-11.4876 39.039 6.85389 -11.4876 34.8643 13.2393 -4.07048 38.6454 6.85389 
-4.07048 34.8643 14.0755 3.34664 37.5381 6.85389 3.34664 34.8643 12.738 
10.7638 36.3397 6.85389 10.7638 34.8643 9.98371 21.0421 34.8643 6.85389 
18.1809 35.3861 6.85389 18.1809 34.8643 7.98533 -11.4876 -32.129 14.271 
-4.07048 -33.4855 14.271 3.34664 -34.6182 14.271 10.7638 -35.4195 14.271 
18.1809 -35.6806 14.271 25.598 -34.705 14.271 33.0151 -33.1677 14.271 
[...]
POINT_DATA 546
SCALARS ImageScalars float
LOOKUP_TABLE default
0 0 0 0 0 0 0 0 0 
0 0 0 0 0 0 0 0 0 
0 0 0 0 0 0 0 0 0 
0 0 0 0 0 0 0 0 0 
0 0 0 0 0 0 0 0 0 
0 0 0 0 0 0 0 0 0 
0 0 0 0 0 0 0 0 0 
0 0 0 0 0 0 0 0 0 
0 0 0 0 0 0 0 0 0 
0 0 0 0 0 0 0 0 0 
0 0 0 0 0 0 0 0 0 
0 0 0 0 0 0 0 0 0 
0 0 0 0 0 0 0 0 0 
0 0 0 0 0 0 0 0 0 
0 0 0 0 0 0 0 0 0 
0 0 0 0 0 0 0 0 0 
0 0 0 0 0 0 0 0 0 
0 0 0 0 0 0 0 0 0 
0 0 0 0 0 0 0 0 0 
0 0 0 0 0 0 0 0 0 
0 0 0 0 0 0 0 0 0 
0 0 0 0 0 0 0 0 0 
0 0 0 0 0 0 0 0 0 
0 0 0 0 0 0 0 0 0 
0 0 0 0 0 0 0 0 0 
0 0 0 0 0 0 0 0 0 
0 0 0 0 0 0 0 0 0 
0 0 0 0 0 0 0 0 0 
0 0 0 0 0 0 0 0 0 
0 0 0 0 0 0 0 0 0 
0 0 0 0 0 0 0 0 0 
0 0 0 0 0 0 0 0 0 
0 0 0 0 0 0 0 0 0 
0 0 0 0 0 0 0 0 0 
0 0 0 0 0 0 0 0 0 
0 0 0 0 0 0 0 0 0 
0 0 0 0 0 0 0 0 0 
0 0 0 0 0 0 0 0 0 
0 0 0 0 0 0 0 0 0 
0 0 0 0 0 0 0 0 0 
0 0 0 0 0 0 0 0 0 
0 0 0 0 0 0 0 0 0 
0 0 0 0 0 0 0 0 0 
0 0 0 0 0 0 0 0 0 
0 0 0 0 0 0 0 0 0 
0 0 0 0 0 0 0 0 0 
0 0 0 0 0 0 0 0 0 
0 0 0 0 0 0 0 0 0 
0 0 0 0 0 0 0 0 0 
0 0 0 0 0 0 0 0 0 
0 0 0 0 0 0 0 0 0 
0 0 0 0 0 0 0 0 0 
0 0 0 0 0 0 0 0 0 
0 0 0 0 0 0 0 0 0 
0 0 0 0 0 0 0 0 0 
0 0 0 0 0 0 0 0 0 
0 0 0 0 0 0 0 0 0 
0 0 0 0 0 0 0 0 0 
0 0 0 0 0 0 0 0 0 
0 0 0 0 0 0 0 0 0 
0 0 0 0 0 0 
NORMALS Normals float
-0.0402395 -0.0210005 -0.998969 -0.415381 -0.658186 -0.627893 -0.210275 -0.506556 -0.836173 
-0.112868 -0.436879 -0.892411 -0.0413653 -0.0708267 -0.996631 -0.0390664 -0.457212 -0.888499 
0.077071 -0.469918 -0.879339 0.168491 -0.515436 -0.8402 0.25558 -0.521936 -0.813795 
0.418675 -0.516974 -0.746625 -0.49269 -0.442646 -0.749213 -0.222634 -0.253778 -0.941292 
-0.0906602 -0.154634 -0.983803 -0.0528477 -0.0318157 -0.998096 -0.102651 -0.0723359 -0.992084 
0.027131 -0.0316448 -0.999131 -0.0358929 0.0187044 -0.999181 0.0883131 -0.0418333 -0.995214 
0.143014 -0.0332639 -0.989161 0.217665 -0.0619012 -0.974059 0.36847 -0.0796372 -0.926222 
-0.693219 -0.281846 -0.663333 -0.333531 -0.155904 -0.929759 -0.143491 -0.0483581 -0.988469 
-0.0341042 0.0248005 -0.999111 0.0188494 0.127081 -0.991713 -0.0144999 0.213552 -0.976824 
0.0669836 0.188829 -0.979723 0.152372 0.214837 -0.96469 0.221132 0.174326 -0.959537 
0.32572 0.187579 -0.926672 -0.592462 -0.108856 -0.79821 -0.248573 -0.0584621 -0.966847 
-0.0265452 -0.00184371 -0.999646 0.0852337 0.0849181 -0.992736 0.090953 0.150657 -0.984393 
0.0327149 0.182988 -0.982571 0.0944344 0.18354 -0.978466 0.122733 0.259536 -0.957903 
0.199082 0.156157 -0.967461 -0.547558 0.000928824 -0.836767 -0.212035 0.0190059 -0.977077 
-0.00404226 0.0144324 -0.999888 0.127547 0.0150766 -0.991718 0.116464 0.0153625 -0.993076 
0.0137634 -0.0376037 -0.999198 0.158219 -0.0551812 -0.985861 0.110223 -0.0267314 -0.993547 
0.135954 -0.0392664 -0.989937 -0.566028 0.0570368 -0.822411 -0.236188 0.0764065 -0.968699 
-0.0311759 0.0333607 -0.998957 0.0836054 -0.0161231 -0.996369 0.0388743 -0.0772561 -0.996253 
-0.0317153 -0.0766701 -0.996552 0.116181 -0.0389095 -0.992466 0.131865 -0.200345 -0.970811 
0.106383 -0.179897 -0.977916 0.0787849 -0.27871 -0.957138 0.0245673 -0.215469 -0.976202 
0.11705 -0.171469 -0.978211 -0.579613 0.206374 -0.788327 -0.267931 0.0947747 -0.958765 
-0.0955657 0.0392148 -0.99465 0.0221772 -0.0311437 -0.999269 0.0497685 -0.0943972 -0.99429 
0.0409073 -0.0631301 -0.997167 0.0189843 -0.052966 -0.998416 -0.00266736 -0.180874 -0.983503 
0.0585531 -0.173205 -0.983144 0.0989589 -0.188276 -0.977118 0.10154 -0.0937164 -0.990407 
0.186161 -0.0530357 -0.981087 0.371235 0.075482 -0.925466 -0.417211 0.255645 -0.872113 
-0.14964 0.170284 -0.973967 -0.0493177 0.0264744 -0.998432 0.0053582 -0.0381823 -0.999256 
0.0102872 -0.0657056 -0.997786 -0.00925185 -0.100794 -0.994864 0.016608 -0.0704537 -0.997377 
0.0956234 -0.0173039 -0.995267 0.162882 0.0188246 -0.986466 0.171277 0.116632 -0.978295 
0.27391 0.2195 -0.936372 -0.321324 0.385329 -0.865027 -0.172783 0.264436 -0.948799 
-0.0441753 0.143214 -0.988705 -0.0211183 0.128564 -0.991476 0.0133115 0.146625 -0.989103 
0.0817212 0.220102 -0.972048 0.149474 0.276644 -0.949276 0.241791 0.38339 -0.891375 
0.315735 0.463032 -0.828198 -0.293639 0.637673 -0.712144 -0.146316 0.527295 -0.83699 
0.0208347 0.544795 -0.83831 0.0958898 0.613817 -0.783603 0.175778 0.703998 -0.688106 
-0.433264 -0.730628 -0.527699 -0.273278 -0.80937 -0.519845 -0.0896359 -0.866754 -0.490615 
-0.0406687 -0.999071 -0.014267 0.0429933 -0.905937 -0.421223 0.110805 -0.910266 -0.398922 
0.122957 -0.886849 -0.445399 0.208865 -0.786761 -0.580846 0.416886 -0.556622 -0.718595 
-0.4747 -0.698691 -0.535248 -0.54647 -0.591378 -0.592994 0.430598 -0.524437 -0.734541 
0.458169 -0.654483 -0.601442 -0.591463 -0.513902 -0.62135 -0.704083 -0.31278 -0.637523 
0.437 -0.159241 -0.885253 0.4473 -0.174691 -0.877158 0.451993 -0.32889 -0.829177 
-0.714656 -0.28402 -0.639218 0.331608 0.0787915 -0.940121 0.227486 0.164814 -0.959732 
0.328037 0.0245618 -0.944346 0.302435 -0.192197 -0.933592 0.363671 -0.307404 -0.879345 
-0.68343 -0.122126 -0.719729 0.216486 0.161898 -0.962768 0.215246 0.160183 -0.963333 
0.0978739 -0.0426557 -0.994284 0.148525 -0.179286 -0.972521 0.300655 -0.242665 -0.922345 
0.433871 -0.263225 -0.861666 -0.677114 -0.00492837 -0.735862 0.131538 -0.102363 -0.986012 
0.119403 -0.151463 -0.981225 0.130266 -0.115118 -0.984773 0.000270858 -0.180833 -0.983514 
-0.000952279 -0.178192 -0.983995 0.108744 -0.185851 -0.976542 0.104313 -0.191814 -0.975872 
0.261107 -0.196192 -0.945162 0.470176 -0.213417 -0.856381 -0.661102 0.0586702 -0.747999 
0.239864 -0.124372 -0.962807 0.317252 -0.0147998 -0.948226 0.248662 -0.121218 -0.960975 
0.507869 -0.0612046 -0.859257 -0.67541 0.215924 -0.705123 -0.637313 0.316029 -0.702821 
0.374892 0.0776728 -0.923809 0.377714 0.088246 -0.921708 0.570797 0.187704 -0.799348 
-0.596841 0.385921 -0.703452 -0.731272 0.463397 -0.500505 -0.536954 0.530382 -0.65603 
0.399937 0.273978 -0.874635 0.335342 0.455702 -0.824549 0.467958 0.321845 -0.823062 
0.64478 0.446312 -0.620536 -0.535536 0.531833 -0.656015 -0.539264 0.535141 -0.650245 
-0.414105 0.627221 -0.659629 0.251882 0.799574 -0.545194 0.273041 0.667489 -0.692753 
0.341373 0.529808 -0.776381 0.330639 0.556703 -0.762076 0.373232 0.646521 -0.665363 
0.480792 0.717156 -0.504507 -0.365797 0.68295 -0.632275 -0.466364 0.791022 -0.395966 
-0.307369 0.696083 -0.648839 -0.146377 0.796422 -0.586759 0.0325166 0.808434 -0.587688 
0.13668 0.821864 -0.553044 0.25168 0.799998 -0.544665 0.20226 0.814783 -0.543341 
0.251718 0.801203 -0.542874 0.251283 0.886325 -0.388954 -0.039024 -0.999236 0.00235423 
-0.418583 -0.907548 -0.0338356 -0.0495358 -0.99877 0.00193913 -0.244915 -0.969514 -0.00768807 
-0.0242572 -0.999691 0.00534116 -0.0393444 -0.999134 0.013571 0.0775451 -0.996701 0.023973 
0.105457 -0.992469 0.0623175 0.063287 -0.997544 0.0300256 0.066252 -0.993979 -0.0872751 
0.206123 -0.949483 -0.236634 0.3981 -0.784458 -0.475543 -0.554327 -0.830161 -0.059624 
-0.580369 -0.811181 -0.0718096 0.46402 -0.681612 -0.565766 0.476694 -0.534662 -0.697782 
0.448943 -0.746364 -0.491315 -0.781922 -0.605213 -0.149382 -0.7923 -0.590831 -0.152244 
0.421192 -0.432353 -0.797288 0.402537 -0.398723 -0.824005 0.436485 -0.48283 -0.759181 
-0.898572 -0.388582 -0.203893 0.428111 -0.325592 -0.843037 0.449522 -0.297397 -0.842309 
0.544541 -0.400997 -0.736666 -0.94758 -0.198167 -0.250643 0.494413 -0.260202 -0.829368 
0.857531 -0.273625 -0.435626 -0.965277 -0.0213203 -0.260357 -0.978288 -0.0223037 -0.206045 
0.621343 -0.140234 -0.770888 0.830174 -0.104247 -0.547672 -0.958622 0.113298 -0.261166 
0.725328 -0.00464058 -0.688387 0.854912 0.050963 -0.516264 -0.930681 0.278783 -0.236883 
0.740873 0.201619 -0.640669 0.914137 0.263906 -0.307744 -0.852315 0.475656 -0.217511 
-0.800984 0.561698 -0.20717 0.675274 0.454964 -0.580528 0.650459 0.496088 -0.575152 
-0.727752 0.660673 -0.18409 -0.617765 0.769449 -0.162217 0.297815 0.910096 -0.288151 
0.347462 0.843146 -0.410335 0.49074 0.722055 -0.487659 0.479649 0.730959 -0.485423 
-0.514815 0.846768 -0.133977 -0.462635 0.878275 -0.120834 -0.304101 0.942827 -0.136379 
-0.0776747 0.991115 -0.107974 0.0773676 0.992506 -0.0945813 0.149026 0.985269 -0.0838867 
0.167576 0.981315 -0.0945478 0.168594 0.974783 -0.146203 0.270094 0.929458 -0.251309 
0.223549 0.950522 -0.215718 0.217217 0.975907 -0.0205485 -0.373979 -0.874631 0.308481 
-0.241653 -0.91048 0.335603 -0.056532 -0.953303 0.296677 0.10672 -0.966756 0.232364 
0.117885 -0.972621 0.200277 -0.0449487 -0.990574 0.129395 -0.0783837 -0.995454 0.0541036 
0.0436093 -0.997342 -0.0583697 0.180465 -0.971532 -0.153486 0.358266 -0.882215 -0.305521 
-0.445881 -0.849909 0.280793 -0.521797 -0.816271 0.247852 -0.352905 -0.839502 0.413152 
0.436756 -0.812421 -0.386285 0.487891 -0.752989 -0.441553 0.472044 -0.866361 -0.163071 
-0.715686 -0.668043 0.203745 -0.74779 -0.635302 0.192876 0.648031 -0.611128 -0.45451 
0.653729 -0.602391 -0.457999 0.66491 -0.62478 -0.409323 -0.894572 -0.423384 0.143129 
0.770635 -0.432513 -0.468032 0.867362 -0.313038 -0.386899 0.902718 -0.426392 -0.0573624 
-0.966264 -0.226572 0.122474 -0.983109 -0.135475 0.12306 0.882978 -0.280534 -0.376365 
-0.992027 -0.0270102 0.123096 -0.982932 0.11535 0.143317 -0.981577 -0.0213017 0.189874 
0.930115 -0.108366 -0.350917 -0.981 0.128711 0.145167 0.95126 0.100647 -0.291504 
-0.937877 0.310381 0.155083 0.935785 0.280911 -0.213063 0.912864 0.356985 -0.198092 
-0.840243 0.501212 0.206831 -0.795481 0.568847 0.208862 -0.756002 0.485786 0.438717 
0.819155 0.549234 -0.16531 0.658632 0.74131 -0.129087 -0.70036 0.677093 0.225921 
-0.587788 0.771952 0.242065 -0.554535 0.659253 0.507815 0.269041 0.960954 -0.0646925 
0.579246 0.806847 -0.116067 0.437035 0.892822 -0.108941 -0.47278 0.843425 0.255173 
-0.451846 0.853832 0.258469 -0.447868 0.830385 0.331473 -0.318377 0.914618 0.249219 
-0.0989708 0.976948 0.189149 0.0594218 0.991124 0.118922 0.149981 0.985278 0.0820541 
0.145041 0.986857 0.0712458 0.129529 0.989131 0.0695793 0.160656 0.985777 0.0493273 
0.212681 0.977102 -0.0061896 0.210891 0.977501 -0.00401421 0.209306 0.977779 0.0117991 
-0.251127 -0.839885 0.481175 -0.154084 -0.878465 0.452279 -0.0219908 -0.942009 0.334867 
0.00966312 -0.984769 0.173599 -0.0901345 -0.992409 0.0836725 -0.130124 -0.986515 0.0992805 
-0.00813186 -0.997059 0.0762057 0.124144 -0.988074 0.0910949 0.259369 -0.963681 0.0636162 
0.449064 -0.893385 0.0143343 -0.502207 -0.741181 0.445465 -0.287876 -0.82941 0.478756 
-0.339989 -0.807832 0.481472 -0.253969 -0.822954 0.50818 -0.208328 -0.794312 0.570673 
0.481386 -0.876389 0.0145091 0.464156 -0.863939 0.195367 0.657899 -0.752883 0.0183263 
-0.563941 -0.69188 0.450858 -0.731747 -0.5215 0.438843 -0.496529 -0.683379 0.535213 
0.758408 -0.651477 0.0198673 0.611568 -0.613371 0.499761 0.892726 -0.446018 0.0640975 
-0.782857 -0.44712 0.432688 -0.741308 -0.447511 0.500196 0.907084 -0.415444 0.0678611 
0.899109 -0.409759 0.15395 -0.882368 -0.210205 0.421 -0.698038 -0.198966 0.687863 
0.979818 -0.179484 0.0879932 0.831171 -0.161275 0.532115 -0.89364 0.00376899 0.448769 
-0.668809 0.0422224 0.742234 0.984582 -0.0207235 0.17369 0.796066 0.000604262 0.60521 
-0.863411 0.155105 0.480066 -0.668652 0.20321 0.715269 0.970516 0.153147 0.186129 
0.784005 0.1723 0.596364 -0.779454 0.324687 0.535752 -0.721914 0.418736 0.550908 
-0.696926 0.338757 0.632091 0.901275 0.346949 0.259481 0.881031 0.396921 0.257365 
0.877214 0.347224 0.331558 -0.681085 0.473128 0.558813 -0.539581 0.618459 0.571281 
-0.49321 0.452838 0.742753 0.777774 0.574503 0.254979 0.634619 0.725048 0.267513 
0.571789 0.504883 0.646645 -0.515363 0.640008 0.569904 -0.424381 0.710585 0.561222 
-0.394507 0.585545 0.708168 -0.24707 0.470576 0.847062 0.179099 0.953069 0.244098 
0.252927 0.927765 0.274371 0.523362 0.80933 0.266604 0.420491 0.86624 0.269844 
0.417992 0.760839 0.496394 -0.352329 0.767516 0.535521 -0.340902 0.773741 0.533958 
-0.340912 0.759361 0.554211 -0.217016 0.846147 0.486764 -0.257559 0.712786 0.652379 
-0.0415268 0.924212 0.379616 -0.143078 0.669769 0.728655 0.0976725 0.954797 0.280753 
0.00467296 0.704104 0.710082 0.14791 0.955951 0.253536 0.137078 0.811681 0.567788 
0.141194 0.946998 0.288545 0.145918 0.890325 0.431312 0.159185 0.948133 0.275143 
0.147216 0.942443 0.300216 0.14085 0.924697 0.353691 -0.20276 -0.770148 0.604782 
-0.165495 -0.864643 0.474346 -0.130556 -0.916618 0.377846 -0.0717141 -0.909872 0.408644 
0.0464529 -0.893976 0.445701 0.15435 -0.867356 0.473149 0.281789 -0.821207 0.496199 
-0.346859 -0.673264 0.652996 -0.238612 -0.70159 0.671444 -0.207182 -0.763223 0.612019 
-0.207682 -0.704624 0.678508 -0.204673 -0.759307 0.617707 -0.182514 -0.769205 0.612383 
-0.128893 -0.727373 0.674029 -0.0443335 -0.688814 0.723581 0.0634379 -0.649666 0.757568 
0.146175 -0.706018 0.692944 0.359401 -0.783366 0.507119 0.275492 -0.757507 0.59185 
0.441623 -0.716007 0.540651 -0.356456 -0.66741 0.653837 -0.493873 -0.527764 0.691053 
-0.347592 -0.666324 0.659691 -0.192418 -0.587434 0.786064 -0.127228 -0.498344 0.857593 
-0.14769 -0.396814 0.905939 -0.132545 -0.279642 0.950911 -0.095259 -0.216393 0.971648 
0.0799473 -0.252038 0.964409 0.161499 -0.321726 0.932958 0.57304 -0.589483 0.569328 
0.380923 -0.454178 0.80537 0.59465 -0.564674 0.572307 -0.593504 -0.421745 0.685481 
-0.483655 -0.400281 0.778366 -0.24343 -0.301038 0.922018 -0.114154 -0.230662 0.966315 
-0.0349603 -0.187364 0.981668 -0.0247194 -0.12233 0.992182 0.216571 -0.131603 0.967356 
0.750921 -0.315622 0.580086 0.534517 -0.284795 0.795728 -0.644204 -0.185474 0.742024 
-0.415163 -0.0957512 0.904694 -0.193182 -0.0482755 0.979975 -0.0729789 0.00718649 0.997308 
0.026905 0.0254087 0.999315 -0.0133448 0.0903391 0.995822 0.195301 -0.0359998 0.980082 
0.720227 -0.130133 0.681424 0.451461 -0.0328925 0.891684 -0.656561 0.0437853 0.753001 
-0.364107 0.0780174 0.928084 -0.162323 0.0857687 0.983003 -0.0219183 0.0975827 0.994986 
-0.0169503 0.0950617 0.995327 0.0173219 -0.00646005 0.999829 0.0250089 -0.0171432 0.99954 
-0.141952 0.0321613 0.989351 0.0425094 0.0914493 0.994902 0.186823 0.0305961 0.981917 
0.707935 0.00923609 0.706217 0.433742 0.0260935 0.900659 -0.559259 0.209615 0.802055 
-0.393051 0.20009 0.897483 -0.173941 0.154385 0.972579 -0.0644436 0.130069 0.989408 
-0.109258 0.0900644 0.989925 -0.0889049 0.088989 0.992057 0.0239005 -0.0456991 0.998669 
0.0058331 -0.050624 0.998701 0.0320666 0.1009 0.99438 0.010133 0.0602214 0.998134 
-0.0409768 0.0590212 0.997415 0.0345227 0.0770278 0.996431 0.178482 0.111942 0.977555 
0.671594 0.163489 0.722657 0.434796 0.139634 0.889638 -0.472551 0.315502 0.822894 
-0.44316 0.345668 0.827117 -0.426149 0.306899 0.851005 -0.225101 0.262975 0.938176 
-0.0953793 0.186872 0.977743 -0.0563168 0.153393 0.986559 -0.115597 0.21424 0.969917 
-0.12008 0.151833 0.981085 0.0130342 0.0624423 0.997963 0.0682524 0.10471 0.992158 
0.000315845 0.0773955 0.997 -0.00521061 0.102923 0.994676 0.0920812 0.127463 0.98756 
0.241207 0.174973 0.95457 0.639557 0.280715 0.715658 0.545962 0.413018 0.728931 
0.52493 0.277271 0.804717 -0.347403 0.396283 0.849865 -0.309164 0.422701 0.851905 
-0.285728 0.375688 0.8816 -0.237874 0.452696 0.85935 -0.166897 0.310292 0.935876 
-0.0850975 0.228967 0.969707 -0.0887342 0.185801 0.978573 -0.125377 0.181746 0.97532 
-0.0403503 0.224143 0.973721 0.0456224 0.194923 0.979757 0.0116192 0.232688 0.972482 
0.0142891 0.269334 0.962941 0.126872 0.341883 0.931139 0.49465 0.477911 0.725894 
0.378656 0.616075 0.690703 0.336318 0.420333 0.84274 -0.23728 0.453036 0.859335 
-0.225303 0.475803 0.850206 -0.194834 0.374759 0.906419 -0.153184 0.575199 0.803543 
-0.148919 0.295141 0.943777 0.000116406 0.686346 0.727275 -0.0767857 0.302887 0.949928 
0.11406 0.717247 0.687421 0.0224479 0.393112 0.919216 0.134796 0.702419 0.698883 
0.0824661 0.45507 0.886629 0.0941008 0.674994 0.731798 0.0820515 0.520005 0.850213 
0.124405 0.70079 0.702436 0.0966321 0.568852 0.816744 0.287891 0.675753 0.678584 
0.23758 0.695876 0.677725 0.226383 0.655277 0.720669 -0.0257213 -0.285794 0.957946 
0.0606804 -0.222217 0.973107 -0.055721 -0.0464955 0.997363 -0.0859245 -0.212486 0.973379 
-0.0894154 -0.188527 0.977989 -0.0211891 -0.19217 0.981133 0.0691643 -0.21958 0.97314 
0.058591 -0.189646 0.980103 0.0694941 -0.20008 0.977312 0.115767 -0.122978 0.985634 
-0.00926961 0.0260894 0.999617 -0.0380643 -0.0674587 0.996996 -0.0427969 -0.00582248 0.999067 
-0.0486728 -0.0250941 0.9985 -0.0505789 -0.0110354 0.998659 -0.012808 -0.00842594 0.999882 
0.0146219 -0.0179206 0.999732 0.043999 -0.0596886 0.997247 0.124281 -0.0990796 0.987288 
0.111242 -0.0953079 0.989213 -0.0144356 0.043631 0.998943 -0.000274776 0.0439153 0.999035 
-0.00700638 0.0496171 0.998744 -0.00670115 0.0481914 0.998816 -0.0665625 0.0929076 0.993447 
-0.083226 0.0880703 0.992631 -0.077535 0.0931166 0.992632 -0.0287285 0.00651019 0.999566 
0.0338535 0.0854822 0.995764 0.00417197 0.0649382 0.997881 0.00141947 0.0348382 0.999392 
0.138563 -0.021764 0.990114 0.072124 -0.00116426 0.997395 -0.0883313 0.0489172 0.994889 
0.0281467 0.0868136 0.995827 0.0179811 0.093684 0.99544 -0.0373894 0.0640044 0.997249 
0.00113784 0.0776774 0.996978 -0.0257553 0.0677469 0.99737 -0.0218972 0.0699485 0.99731 
0.0762315 0.0442272 0.996109 0.0371897 0.0607935 0.997457 0.039306 0.0486886 0.99804 

