# vtk DataFile Version 4.2
vtk output
ASCII
DATASET POLYDATA
POINTS 584 float
-27.9772 -42.8798 -10.6207 -20.2363 -42.8798 -11.3555 -12.4954 -42.8798 -12.3034 
-4.75448 -42.8798 -12.5824 2.98643 -42.8798 -13.6912 10.7273 -42.8798 -13.9594 
18.4682 -42.8798 -13.0723 26.2091 -42.8798 -10.9914 -35.7181 -35.1389 -11.789 
-27.9772 -35.1389 -13.9043 -20.2363 -35.1389 -14.6276 -12.4954 -35.1389 -15.0337 
-4.75448 -35.1389 -14.9087 2.98643 -35.1389 -15.5786 10.7273 -35.1389 -16.2979 
18.4682 -35.1389 -16.6905 26.2091 -35.1389 -15.1623 33.9501 -35.1389 -12.1228 
-43.459 -27.398 -12.436 -35.7181 -27.398 -14.6504 -27.9772 -27.398 -15.5369 
-20.2363 -27.398 -15.6584 -12.4954 -27.398 -15.7363 -4.75448 -27.398 -15.6116 
2.98643 -27.398 -15.7873 10.7273 -27.398 -16.6228 18.4682 -27.398 -16.9651 
26.2091 -27.398 -16.7906 33.9501 -27.398 -14.535 41.691 -27.398 -12.7116 
-51.1999 -19.6571 -11.8008 -43.459 -19.6571 -16.0838 -35.7181 -19.6571 -15.5281 
-27.9772 -19.6571 -15.6352 -20.2363 -19.6571 -15.6353 -12.4954 -19.6571 -15.2325 
-4.75448 -19.6571 -14.4383 2.98643 -19.6571 -14.6886 10.7273 -19.6571 -15.4514 
18.4682 -19.6571 -15.895 26.2091 -19.6571 -15.8017 33.9501 -19.6571 -16.013 
41.691 -19.6571 -14.8329 49.4319 -19.6571 -12.8017 -58.9408 -11.9162 -10.9744 
-51.1999 -11.9162 -14.1775 -43.459 -11.9162 -15.2281 -35.7181 -11.9162 -16.4445 
-27.9772 -11.9162 -15.5826 -20.2363 -11.9162 -14.6273 -12.4954 -11.9162 -13.9459 
-4.75448 -11.9162 -14.5921 2.98643 -11.9162 -13.9539 10.7273 -11.9162 -13.8156 
18.4682 -11.9162 -14.5445 26.2091 -11.9162 -15.3492 33.9501 -11.9162 -15.6333 
41.691 -11.9162 -15.4891 49.4319 -11.9162 -15.5753 57.1728 -11.9162 -12.766 
-58.9408 -4.17528 -12.1392 -51.1999 -4.17528 -15.3161 -43.459 -4.17528 -15.7083 
-35.7181 -4.17528 -15.8242 -27.9772 -4.17528 -15.352 -20.2363 -4.17528 -13.9179 
-12.4954 -4.17528 -14.313 -4.75448 -4.17528 -15.9599 2.98643 -4.17528 -15.5556 
10.7273 -4.17528 -14.3035 18.4682 -4.17528 -12.7433 26.2091 -4.17528 -14.5194 
33.9501 -4.17528 -15.5732 41.691 -4.17528 -15.9003 49.4319 -4.17528 -17.1824 
57.1728 -4.17528 -12.8577 -58.9408 3.56562 -12.2455 -51.1999 3.56562 -15.1919 
-43.459 3.56562 -15.7044 -35.7181 3.56562 -15.858 -27.9772 3.56562 -15.2829 
-20.2363 3.56562 -13.8826 -12.4954 3.56562 -13.2719 -4.75448 3.56562 -16.8453 
2.98643 3.56562 -12.9736 10.7273 3.56562 -14.8449 18.4682 3.56562 -12.4646 
26.2091 3.56562 -14.4329 33.9501 3.56562 -15.3031 41.691 3.56562 -15.7335 
49.4319 3.56562 -17.2038 57.1728 3.56562 -12.8678 -58.9408 11.3065 -11.4791 
-51.1999 11.3065 -14.6629 -43.459 11.3065 -15.3601 -35.7181 11.3065 -16.4118 
-27.9772 11.3065 -15.1743 -20.2363 11.3065 -13.6025 -12.4954 11.3065 -11.6127 
-4.75448 11.3065 -12.128 2.98643 11.3065 -14.6229 10.7273 11.3065 -13.5158 
18.4682 11.3065 -13.2967 26.2091 11.3065 -14.1738 33.9501 11.3065 -15.3172 
41.691 11.3065 -15.0361 49.4319 11.3065 -15.2319 57.1728 11.3065 -13.5955 
-51.1999 19.0474 -12.3467 -43.459 19.0474 -14.9795 -35.7181 19.0474 -15.5536 
-27.9772 19.0474 -15.0786 -20.2363 19.0474 -14.2574 -12.4954 19.0474 -12.4241 
-4.75448 19.0474 -11.1391 2.98643 19.0474 -10.2441 10.7273 19.0474 -11.4053 
18.4682 19.0474 -12.7193 26.2091 19.0474 -13.9022 33.9501 19.0474 -14.127 
41.691 19.0474 -14.9898 49.4319 19.0474 -12.7658 57.1728 19.0474 -11.9727 
-51.1999 26.7883 -10.6004 -43.459 26.7883 -13.3068 -35.7181 26.7883 -14.7227 
-27.9772 26.7883 -14.6698 -20.2363 26.7883 -14.4278 -12.4954 26.7883 -12.6891 
-4.75448 26.7883 -10.8928 18.4682 26.7883 -10.7827 26.2091 26.7883 -12.354 
33.9501 26.7883 -12.9363 41.691 26.7883 -11.5995 49.4319 26.7883 -11.0434 
-43.459 34.5293 -10.0461 -35.7181 34.5293 -11.9173 -27.9772 34.5293 -13.2979 
-20.2363 34.5293 -12.7836 -12.4954 34.5293 -11.7076 -20.2363 42.2702 -10.3348 
-27.9772 -43.7545 -9.78085 -20.2363 -44.652 -9.78085 -12.4954 -45.8019 -9.78085 
-4.75448 -47.0316 -9.78085 2.98643 -48.5128 -9.78085 2.98643 -50.6207 -3.92115 
10.7273 -47.9537 -9.78085 18.4682 -46.5648 -9.78085 26.2091 -43.957 -9.78085 
-29.9211 -42.8798 -9.78085 -35.7181 -38.3441 -9.78085 -35.7181 -42.8798 -2.99467 
28.0331 -42.8798 -9.78085 33.9501 -38.0233 -9.78085 -41.6146 -35.1389 -9.78085 
-43.459 -33.6906 -9.78085 -43.459 -35.1389 -8.53529 39.0253 -35.1389 -9.78085 
41.691 -32.9237 -9.78085 41.691 -35.1389 -6.64207 -49.9637 -27.398 -9.78085 
-51.1999 -25.8778 -9.78085 -51.1999 -27.398 -8.92482 48.4067 -27.398 -9.78085 
49.4319 -26.479 -9.78085 49.4319 -27.398 -8.93872 -55.0723 -19.6571 -9.78085 
-58.9408 -15.1507 -9.78085 -58.9408 -19.6571 -6.38364 55.7023 -19.6571 -9.78085 
57.1728 -18.4649 -9.78085 57.1728 -19.6571 -8.40523 -60.5102 -11.9162 -9.78085 
61.4399 -11.9162 -9.78085 64.9137 -11.9162 -3.65536 -62.195 -4.17528 -9.78085 
-66.6817 -4.17528 -2.73165 63.2953 -4.17528 -9.78085 64.9137 -4.17528 -8.5359 
-62.3257 3.56562 -9.78085 -66.6817 3.56562 -3.16059 64.4627 3.56562 -9.78085 
64.9137 3.56562 -9.51532 -61.1529 11.3065 -9.78085 -58.9408 16.3293 -9.78085 
63.0961 11.3065 -9.78085 64.9137 11.3065 -7.47334 -56.582 19.0474 -9.78085 
-58.9408 19.0474 -8.11442 2.98643 22.4591 -9.78085 10.7273 24.9879 -9.78085 
59.1088 19.0474 -9.78085 57.1728 21.7003 -9.78085 64.9137 19.0474 -4.27692 
-52.4798 26.7883 -9.78085 -51.1999 28.1766 -9.78085 0.358995 26.7883 -9.78085 
-4.75448 32.7649 -9.78085 2.98643 26.7883 -9.22916 13.3963 26.7883 -9.78085 
10.7273 26.7883 -9.31031 18.4682 29.3511 -9.78085 26.2091 32.5281 -9.78085 
33.9501 34.4238 -9.78085 41.691 31.8979 -9.78085 52.0718 26.7883 -9.78085 
49.4319 28.744 -9.78085 57.1728 26.7883 -5.9994 -43.9478 34.5293 -9.78085 
-43.459 34.8736 -9.78085 -35.7181 37.8733 -9.78085 -27.9772 42.119 -9.78085 
-5.84149 34.5293 -9.78085 -12.4954 41.0642 -9.78085 -4.75448 34.5293 -9.43963 
2.98643 34.5293 -7.43802 10.7273 34.5293 -6.89643 18.4682 34.5293 -7.46901 
26.2091 34.5293 -8.56857 33.9501 34.5293 -9.72203 41.691 34.5293 -8.60352 
49.4319 34.5293 -4.00707 -35.7181 42.2702 -5.11823 -27.267 42.2702 -9.78085 
-27.9772 42.2702 -9.68345 -15.421 42.2702 -9.78085 -20.2363 42.9919 -9.78085 
-12.4954 42.2702 -9.21736 -4.75448 42.2702 -6.51762 2.98643 42.2702 -3.56839 
2.98643 -51.0863 -2.03994 -35.7181 -43.2334 -2.03994 -27.9772 -46.6483 -2.03994 
-20.2363 -48.7716 -2.03994 -12.4954 -49.8635 -2.03994 -4.53165 -50.6207 -2.03994 
-4.75448 -50.607 -2.03994 7.38285 -50.6207 -2.03994 2.98643 -50.6207 -0.591075 
10.7273 -50.2665 -2.03994 18.4682 -48.5725 -2.03994 26.2091 -45.633 -2.03994 
-36.3269 -42.8798 -2.03994 -43.459 -38.3248 -2.03994 -35.7181 -42.8798 -0.840193 
31.3315 -42.8798 -2.03994 26.2091 -42.8798 4.43706 33.9501 -41.4185 -2.03994 
41.691 -36.7008 -2.03994 -47.7294 -35.1389 -2.03994 -51.1999 -32.1234 -2.03994 
43.9129 -35.1389 -2.03994 41.691 -35.1389 2.42089 49.4319 -30.9693 -2.03994 
-55.8969 -27.398 -2.03994 -58.9408 -23.533 -2.03994 53.7643 -27.398 -2.03994 
49.4319 -27.398 5.57213 57.1728 -23.9573 -2.03994 -61.4827 -19.6571 -2.03994 
61.0049 -19.6571 -2.03994 57.1728 -19.6571 5.63869 64.9137 -13.4636 -2.03994 
-65.3317 -11.9162 -2.03994 -66.6817 -5.79719 -2.03994 65.7319 -11.9162 -2.03994 
64.9137 -11.9162 -0.323019 -67.0353 -4.17528 -2.03994 -66.6817 -4.17528 0.834246 
68.7824 -4.17528 -2.03994 -67.267 3.56562 -2.03994 -66.6817 7.49489 -2.03994 
-66.6817 3.56562 2.78068 69.8116 3.56562 -2.03994 -66.1125 11.3065 -2.03994 
68.8707 11.3065 -2.03994 -62.8821 19.0474 -2.03994 -58.9408 25.6703 -2.03994 
66.6702 19.0474 -2.03994 64.9137 21.6569 -2.03994 64.9137 19.0474 3.03549 
-58.1282 26.7883 -2.03994 -51.1999 33.9073 -2.03994 60.7022 26.7883 -2.03994 
57.1728 30.8003 -2.03994 -50.4577 34.5293 -2.03994 -43.459 39.4911 -2.03994 
10.7273 41.8593 -2.03994 18.4682 41.2862 -2.03994 26.2091 41.8947 -2.03994 
33.9501 41.6809 -2.03994 41.691 39.5125 -2.03994 52.1329 34.5293 -2.03994 
49.4319 36.0924 -2.03994 -38.8644 42.2702 -2.03994 -35.7181 43.999 -2.03994 
-27.9772 47.2796 -2.03994 -20.2363 48.7779 -2.03994 -12.4954 48.1907 -2.03994 
-4.75448 46.5777 -2.03994 9.27837 42.2702 -2.03994 2.98643 43.6559 -2.03994 
10.7273 42.2702 -1.17896 18.4682 42.2702 0.221394 26.2091 42.2702 -0.522577 
33.9501 42.2702 1.85781 -27.9772 -43.2004 5.70096 -20.2363 -45.6625 5.70096 
-12.4954 -47.2046 5.70096 -4.75448 -47.949 5.70096 2.98643 -47.9176 5.70096 
10.7273 -46.9977 5.70096 18.4682 -44.3657 5.70096 -43.459 -36.1439 5.70096 
-28.9335 -42.8798 5.70096 -35.7181 -40.0149 5.70096 -27.9772 -42.8798 6.10393 
-20.2363 -42.8798 8.23613 -12.4954 -42.8798 9.6445 -4.75448 -42.8798 10.3883 
2.98643 -42.8798 10.2955 10.7273 -42.8798 9.27676 23.8296 -42.8798 5.70096 
18.4682 -42.8798 7.0894 26.2091 -42.0609 5.70096 33.9501 -36.9226 5.70096 
-44.8519 -35.1389 5.70096 -51.1999 -29.7889 5.70096 -43.459 -35.1389 6.72389 
-35.7181 -35.1389 9.22373 -27.9772 -35.1389 11.7913 -20.2363 -35.1389 12.9712 
10.7273 -35.1389 13.3778 18.4682 -35.1389 11.9288 26.2091 -35.1389 10.2294 
37.9736 -35.1389 5.70096 33.9501 -35.1389 7.32358 41.691 -32.9054 5.70096 
-53.4959 -27.398 5.70096 -58.9408 -20.9175 5.70096 -51.1999 -27.398 7.67831 
-43.459 -27.398 10.4624 26.2091 -27.398 12.8204 33.9501 -27.398 11.2499 
49.2811 -27.398 5.70096 41.691 -27.398 9.49906 49.4319 -27.2578 5.70096 
-59.8153 -19.6571 5.70096 -58.9408 -19.6571 6.59711 -51.1999 -19.6571 10.3728 
33.9501 -19.6571 12.8444 41.691 -19.6571 11.2562 57.1061 -19.6571 5.70096 
49.4319 -19.6571 9.26147 57.1728 -19.5234 5.70096 -62.9793 -11.9162 5.70096 
-58.9408 -11.9162 9.71364 -51.1999 -11.9162 12.7422 41.691 -11.9162 13.0365 
49.4319 -11.9162 11.0883 59.8073 -11.9162 5.70096 57.1728 -11.9162 7.47376 
64.9137 -5.61523 5.70096 -65.6811 -4.17528 5.70096 -58.9408 -4.17528 12.49 
49.4319 -4.17528 12.2998 57.1728 -4.17528 11.0431 65.5265 -4.17528 5.70096 
64.9137 -4.17528 6.28511 -66.133 3.56562 5.70096 -58.9408 3.56562 13.2812 
2.98643 3.56562 12.6915 49.4319 3.56562 13.0095 57.1728 3.56562 12.1299 
67.1364 3.56562 5.70096 64.9137 3.56562 7.63868 -64.4608 11.3065 5.70096 
-58.9408 11.3065 11.9614 49.4319 11.3065 13.0107 57.1728 11.3065 12.3928 
[...]
POINT_DATA 584
SCALARS ImageScalars float
LOOKUP_TABLE default
0 0 0 0 0 0 0 0 0 
0 0 0 0 0 0 0 0 0 
0 0 0 0 0 0 0 0 0 
0 0 0 0 0 0 0 0 0 
0 0 0 0 0 0 0 0 0 
0 0 0 0 0 0 0 0 0 
0 0 0 0 0 0 0 0 0 
0 0 0 0 0 0 0 0 0 
0 0 0 0 0 0 0 0 0 
0 0 0 0 0 0 0 0 0 
0 0 0 0 0 0 0 0 0 
0 0 0 0 0 0 0 0 0 
0 0 0 0 0 0 0 0 0 
0 0 0 0 0 0 0 0 0 
0 0 0 0 0 0 0 0 0 
0 0 0 0 0 0 0 0 0 
0 0 0 0 0 0 0 0 0 
0 0 0 0 0 0 0 0 0 
0 0 0 0 0 0 0 0 0 
0 0 0 0 0 0 0 0 0 
0 0 0 0 0 0 0 0 0 
0 0 0 0 0 0 0 0 0 
0 0 0 0 0 0 0 0 0 
0 0 0 0 0 0 0 0 0 
0 0 0 0 0 0 0 0 0 
0 0 0 0 0 0 0 0 0 
0 0 0 0 0 0 0 0 0 
0 0 0 0 0 0 0 0 0 
0 0 0 0 0 0 0 0 0 
0 0 0 0 0 0 0 0 0 
0 0 0 0 0 0 0 0 0 
0 0 0 0 0 0 0 0 0 
0 0 0 0 0 0 0 0 0 
0 0 0 0 0 0 0 0 0 
0 0 0 0 0 0 0 0 0 
0 0 0 0 0 0 0 0 0 
0 0 0 0 0 0 0 0 0 
0 0 0 0 0 0 0 0 0 
0 0 0 0 0 0 0 0 0 
0 0 0 0 0 0 0 0 0 
0 0 0 0 0 0 0 0 0 
0 0 0 0 0 0 0 0 0 
0 0 0 0 0 0 0 0 0 
0 0 0 0 0 0 0 0 0 
0 0 0 0 0 0 0 0 0 
0 0 0 0 0 0 0 0 0 
0 0 0 0 0 0 0 0 0 
0 0 0 0 0 0 0 0 0 
0 0 0 0 0 0 0 0 0 
0 0 0 0 0 0 0 0 0 
0 0 0 0 0 0 0 0 0 
0 0 0 0 0 0 0 0 0 
0 0 0 0 0 0 0 0 0 
0 0 0 0 0 0 0 0 0 
0 0 0 0 0 0 0 0 0 
0 0 0 0 0 0 0 0 0 
0 0 0 0 0 0 0 0 0 
0 0 0 0 0 0 0 0 0 
0 0 0 0 0 0 0 0 0 
0 0 0 0 0 0 0 0 0 
0 0 0 0 0 0 0 0 0 
0 0 0 0 0 0 0 0 0 
0 0 0 0 0 0 0 0 0 
0 0 0 0 0 0 0 0 0 
0 0 0 0 0 0 0 0 
NORMALS Normals float
0.242057 0.662311 0.70905 0.0993926 0.594075 0.798245 0.0703909 0.534247 0.842393 
0.0875201 0.463492 0.881768 0.0881317 0.424591 0.901085 -0.0343522 0.50848 0.860388 
-0.163953 0.5996 0.783326 -0.383069 0.726074 0.57103 0.305826 0.48434 0.819686 
0.15381 0.29506 0.943017 0.073286 0.236585 0.968843 0.0170475 0.189246 0.981782 
0.0343266 0.179396 0.983178 0.0919547 0.133889 0.986721 0.069334 0.150075 0.98624 
-0.0741467 0.216122 0.973547 -0.24432 0.309433 0.918999 -0.423195 0.489352 0.762522 
0.350697 0.389975 0.851429 0.166616 0.196146 0.966316 0.0728584 0.115658 0.990613 
0.0125589 0.0612442 0.998044 -0.00251131 0.00977507 0.999949 0.003397 -0.0286655 0.999583 
0.0643729 -0.0571301 0.996289 0.0756963 -0.0541166 0.995661 0.0115961 -0.0526873 0.998544 
-0.147925 0.0404401 0.988171 -0.228231 0.208614 0.950995 -0.329815 0.419662 0.845639 
0.420861 0.278263 0.863392 0.193727 0.136675 0.971488 -0.0228447 0.122235 0.992238 
0.0067692 0.00271103 0.999973 -0.0267159 -0.0683049 0.997307 -0.0756553 -0.11529 0.990447 
-0.0357244 -0.0626159 0.997398 0.0648209 -0.114267 0.991333 0.0786618 -0.17584 0.981271 
0.0222405 -0.154323 0.98777 0.00712129 -0.088268 0.996071 -0.0736905 0.0696323 0.994847 
-0.176546 0.141191 0.974113 -0.313766 0.362032 0.877772 0.515663 0.231169 0.825017 
0.297029 0.20519 0.932561 0.132796 -0.014446 0.991038 0.0219975 0.0181521 0.999593 
-0.115537 -0.0170407 0.993157 -0.104744 -0.10277 0.989175 -0.00552257 -0.0658279 0.997816 
0.00380892 0.0867629 0.996222 -0.0498684 0.0287216 0.998343 0.0399294 -0.0908778 0.995061 
0.0957801 -0.192216 0.976667 0.0701246 -0.0796921 0.99435 0.00914645 -0.0274625 0.999581 
-0.00469301 0.0745047 0.99721 -0.219779 0.272581 0.936695 -0.428962 0.148807 0.890982 
0.474864 0.0807135 0.87635 0.277312 0.0612719 0.958824 0.0293612 0.0305139 0.999103 
-0.0207426 -0.0372393 0.999091 -0.12005 -0.0199819 0.992567 -0.0679414 -0.0497793 0.996447 
0.129903 -0.024158 0.991232 0.0758566 0.136597 0.987718 -0.0870259 -0.0400767 0.9954 
-0.201522 0.0700544 0.976976 0.0544427 -0.137651 0.988983 0.17458 -0.0603492 0.982792 
0.0850257 -0.0212572 0.996152 0.0930501 0.0154129 0.995542 -0.152121 0.0830792 0.984864 
-0.413678 0.00726071 0.910394 0.465123 -0.0412535 0.884284 0.259749 -0.038647 0.964902 
0.0393654 -0.0223509 0.998975 -0.0272476 0.037538 0.998924 -0.127744 -0.0111827 0.991744 
-0.11871 -0.0204708 0.992718 0.138975 -0.190733 0.971754 -0.0469345 -0.143966 0.988469 
-0.101962 -0.0724691 0.992145 -0.0638567 -0.0764135 0.995029 0.0286101 0.0388905 0.998834 
0.1738 -0.0220659 0.984534 0.0841204 -0.0165113 0.996319 0.109837 -0.0553079 0.99241 
-0.139542 -0.10472 0.984663 -0.371691 0.0631916 0.926204 0.501884 -0.171102 0.847842 
0.276401 -0.168384 0.946176 0.105248 -0.0500709 0.993185 -0.0128269 -0.019239 0.999733 
-0.17671 -0.0129579 0.984178 -0.210595 0.0237034 0.977286 -0.119249 -0.0198739 0.992666 
0.156843 -0.327235 0.931836 0.0255136 -0.24113 0.970158 -0.0591759 -0.198863 0.978239 
0.0435259 0.0129322 0.998969 0.128852 -0.0336236 0.991094 0.055809 -0.0770517 0.995464 
-0.0066789 -0.0478348 0.998833 -0.135489 -0.274358 0.952035 -0.289612 -0.0216231 0.9569 
0.363954 -0.244927 0.898637 0.169455 -0.108238 0.979576 0.0113153 -0.11433 0.993378 
-0.0828266 -0.0320523 0.996048 -0.168649 0.0520926 0.984299 -0.201514 0.063035 0.977455 
-0.137177 -0.0493292 0.989317 0.0155812 -0.235113 0.971843 0.154627 -0.262444 0.952478 
0.156703 -0.150201 0.976158 0.0903772 -0.122194 0.988383 0.0646937 -0.142883 0.987623 
-0.0743603 -0.193842 0.978211 -0.162013 -0.257326 0.952646 -0.384094 -0.409816 0.827359 
0.455415 -0.376138 0.806919 0.285822 -0.3352 0.897745 0.0700179 -0.197689 0.977761 
-0.0191295 -0.101684 0.994633 -0.12839 -0.101133 0.986554 -0.216254 -0.0453119 0.975285 
-0.221592 -0.101382 0.969855 0.196947 -0.296183 0.934605 0.121671 -0.297081 0.947069 
-0.0389954 -0.297786 0.953836 -0.113534 -0.372535 0.921047 -0.230879 -0.380649 0.895434 
0.363431 -0.551093 0.751142 0.19628 -0.451568 0.87038 0.0450557 -0.350112 0.935624 
-0.0958062 -0.266094 0.959174 -0.205819 -0.213831 0.954942 -0.0207279 -0.553604 0.832522 
0.249616 0.725611 0.641234 0.111488 0.691278 0.713936 0.113945 0.693758 0.711138 
0.125903 0.699438 0.703516 0.0393889 0.78981 0.612085 -0.0106827 0.995195 0.0973315 
-0.102449 0.803371 0.5866 -0.228191 0.801068 0.553371 -0.396119 0.778206 0.487324 
0.298254 0.695662 0.653528 0.381762 0.596142 0.706309 0.479655 0.871731 0.100084 
-0.428858 0.75333 0.498572 -0.493273 0.623474 0.606599 0.411212 0.56587 0.71463 
0.430469 0.541863 0.721859 0.480635 0.635868 0.603872 -0.488603 0.605785 0.627927 
-0.463036 0.59098 0.660561 -0.552563 0.750412 0.362706 0.48496 0.433994 0.759251 
0.493913 0.409338 0.767133 0.540983 0.485004 0.687102 -0.470833 0.556476 0.684581 
-0.481851 0.544678 0.6864 -0.518022 0.603361 0.606307 0.49458 0.377813 0.782718 
0.539681 0.355676 0.763046 0.714438 0.544656 0.439237 -0.581068 0.544237 0.605117 
-0.600993 0.52982 0.598413 -0.648591 0.607534 0.458511 0.580209 0.24326 0.777291 
-0.663319 0.307424 0.682275 -0.890808 0.439349 0.115905 0.613908 0.0955543 0.783573 
0.966586 0.120823 0.226081 -0.621663 0.143189 0.770085 -0.746839 0.223218 0.626422 
0.615896 -0.0551383 0.785896 0.964562 -0.0590914 0.257155 -0.610081 -0.0536547 0.79052 
-0.644752 -0.0683133 0.761333 0.593287 -0.191018 0.781999 0.537463 -0.36543 0.759996 
-0.692632 -0.229029 0.683964 -0.821042 -0.265227 0.505514 0.510851 -0.37687 0.772658 
0.642512 -0.495466 0.584544 -0.0359689 -0.201601 0.978807 0.10622 -0.264921 0.958402 
-0.512529 -0.44593 0.733798 -0.447659 -0.483645 0.752123 -0.851145 -0.399831 0.340129 
0.505986 -0.404563 0.761778 0.487482 -0.434237 0.757496 -0.140302 -0.153457 0.978144 
-0.265648 -0.222949 0.937937 -0.0995889 -0.180342 0.978549 0.127791 -0.278383 0.951931 
0.0921874 -0.270813 0.958208 0.175378 -0.344426 0.922287 0.117212 -0.495454 0.860689 
0.00529568 -0.548677 0.836017 -0.199511 -0.393004 0.897632 -0.306037 -0.409378 0.859506 
-0.249572 -0.446427 0.859312 -0.614857 -0.57296 0.541911 0.37959 -0.561528 0.735253 
0.36997 -0.565772 0.736902 0.269045 -0.583402 0.766327 0.19727 -0.518902 0.83176 
-0.270517 -0.250283 0.929612 -0.222269 -0.484145 0.846286 -0.279393 -0.262498 0.923599 
-0.168755 -0.329453 0.928968 -0.00572702 -0.45609 0.889915 0.0981803 -0.5161 0.850883 
0.108624 -0.588214 0.801377 0.00607956 -0.553372 0.832912 -0.265375 -0.488546 0.831203 
-0.411648 -0.799745 0.436982 0.440364 -0.818505 0.368958 0.178665 -0.52749 0.830562 
0.200515 -0.527777 0.825376 -0.145229 -0.546906 0.824501 -0.0271133 -0.588243 0.808229 
-0.214325 -0.550414 0.806913 -0.272069 -0.520812 0.809156 -0.303514 -0.708524 0.637082 
-0.0224867 0.999009 -0.0384038 0.469909 0.882072 0.0336746 0.33455 0.942345 -0.00791459 
0.208371 0.97717 0.0414724 0.118474 0.991799 0.0479476 0.0751684 0.997013 0.0177421 
0.0779204 0.99677 0.0194312 -0.0992323 0.994251 -0.0402107 -0.0254421 0.991647 -0.126449 
-0.154886 0.987042 -0.0419427 -0.283464 0.953716 -0.100368 -0.42763 0.899024 -0.0942798 
0.47971 0.876689 0.0359881 0.579199 0.811802 0.074203 0.468491 0.882212 -0.0471034 
-0.482134 0.874188 -0.0578128 -0.339552 0.784767 -0.518503 -0.50201 0.863856 -0.0416918 
-0.554417 0.832173 -0.0104678 0.632318 0.770612 0.0795704 0.681054 0.725623 0.0981702 
-0.572988 0.819553 -0.00420553 -0.525937 0.777597 -0.344578 -0.630191 0.776386 0.00913222 
0.744246 0.659534 0.105417 0.7994 0.588131 0.122722 -0.686647 0.726971 0.0054154 
-0.503033 0.573134 -0.646896 -0.729337 0.68401 0.0140594 0.849266 0.519753 0.0927531 
-0.786491 0.617193 0.0224707 -0.592081 0.43147 -0.680642 -0.881279 0.472446 0.0119267 
0.936255 0.316602 0.152282 0.969776 0.159652 0.184516 -0.898077 0.439816 0.00438028 
-0.877956 0.458904 -0.136381 0.976317 0.12117 0.179228 0.989989 0.130639 -0.0534283 
-0.968987 0.246836 0.0116638 0.9817 -0.0585675 0.181203 0.970446 -0.153286 0.186379 
0.972749 -0.0668812 -0.222007 -0.999208 0.00850653 0.0388746 0.952689 -0.249219 0.173993 
-0.96858 -0.217129 0.121274 0.878025 -0.47469 0.0611658 0.787885 -0.60038 0.137045 
-0.887273 -0.432225 0.161025 -0.842895 -0.520505 0.136392 -0.828083 -0.430272 -0.359367 
0.773453 -0.61936 0.13477 0.652834 -0.744728 0.13852 -0.741854 -0.651257 0.159737 
-0.672395 -0.717783 0.180758 0.639427 -0.756353 0.138069 0.553695 -0.824989 0.113207 
-0.128385 -0.754196 0.643977 0.0044842 -0.811674 0.584094 0.017762 -0.848374 0.5291 
-0.158254 -0.876765 0.454135 -0.321032 -0.911926 0.255594 -0.514804 -0.820925 0.247099 
-0.45153 -0.841268 0.297302 0.48703 -0.855133 0.177621 0.435585 -0.882556 0.177091 
0.286811 -0.937788 0.195687 0.0672293 -0.933911 0.351128 -0.145365 -0.882264 0.44775 
-0.261961 -0.854701 0.448177 -0.164363 -0.763076 0.62506 -0.284739 -0.796528 0.533355 
-0.136963 -0.814139 0.564286 -0.0243872 -0.937948 0.345919 -0.00376486 -0.921959 0.387269 
-0.198803 -0.974363 0.105328 0.273013 0.766361 -0.581511 0.209544 0.76806 -0.605124 
0.114219 0.817638 -0.564289 0.0356843 0.83149 -0.554393 -0.045204 0.817278 -0.574468 
-0.175493 0.770476 -0.612837 -0.241067 0.711237 -0.660324 0.472953 0.699031 -0.53635 
0.285154 0.763829 -0.57901 0.350399 0.71241 -0.608023 0.267399 0.753405 -0.600732 
0.168747 0.659776 -0.732271 0.117882 0.634119 -0.764197 0.0349988 0.592386 -0.804894 
-0.0602532 0.58738 -0.807066 -0.168794 0.592182 -0.787927 -0.285444 0.727332 -0.624107 
-0.221851 0.657863 -0.719721 -0.311503 0.725093 -0.614172 -0.393887 0.651374 -0.64851 
0.495771 0.687135 -0.53109 0.590985 0.611016 -0.526684 0.453009 0.658016 -0.601496 
0.273381 0.530873 -0.802145 0.219703 0.403514 -0.888205 0.122809 0.390228 -0.912491 
-0.144576 0.334254 -0.931328 -0.18486 0.398782 -0.89822 -0.234429 0.446345 -0.863608 
-0.417203 0.651672 -0.633455 -0.351413 0.587329 -0.729077 -0.441278 0.628665 -0.640355 
0.621839 0.58043 -0.525754 0.710023 0.46513 -0.528699 0.553274 0.541938 -0.632607 
0.322896 0.378487 -0.867459 -0.188079 0.238679 -0.952711 -0.187905 0.298984 -0.935575 
-0.496414 0.566038 -0.658159 -0.346331 0.403712 -0.846801 -0.496435 0.565317 -0.658764 
0.735119 0.443049 -0.513135 0.676972 0.444237 -0.586824 0.395682 0.318378 -0.861436 
-0.180509 0.141925 -0.97328 -0.215015 0.189629 -0.958024 -0.587742 0.428644 -0.686166 
-0.350834 0.350289 -0.868454 -0.58892 0.425804 -0.686924 0.779332 0.306105 -0.546755 
0.596581 0.292966 -0.747169 0.229659 0.23289 -0.944997 -0.177184 0.139498 -0.974241 
-0.282962 0.158053 -0.946019 -0.593303 0.322324 -0.737631 -0.534351 0.290273 -0.793858 
-0.668175 0.315354 -0.673865 0.841206 0.134455 -0.523732 0.502102 0.138444 -0.853655 
-0.150396 0.129945 -0.980049 -0.382536 0.221508 -0.896995 -0.695014 0.286908 -0.659272 
-0.658273 0.28287 -0.697611 0.867202 -0.0632198 -0.493928 0.498932 -0.0217979 -0.866367 
0.0268525 0.05416 -0.998171 -0.109392 0.0458921 -0.992939 -0.367826 0.0633007 -0.927738 
-0.771555 0.0670649 -0.632617 -0.610339 0.0610729 -0.789782 0.826507 -0.281938 -0.487234 
0.545927 -0.236565 -0.803742 -0.108048 -0.055307 -0.992606 -0.372423 -0.062396 -0.925963 
-0.767239 -0.201698 -0.608821 -0.709997 -0.312737 -0.630952 -0.669076 -0.187073 -0.719264 
0.772293 -0.406852 -0.487889 0.754321 -0.443084 -0.484433 0.73626 -0.398522 -0.546901 
0.432775 -0.228385 -0.872093 -0.259177 -0.166687 -0.951337 -0.688318 -0.346562 -0.637269 
-0.525392 -0.299785 -0.796299 0.668597 -0.567828 -0.480156 0.609805 -0.633336 -0.47647 
0.542753 -0.503868 -0.671964 0.267182 -0.384136 -0.883772 -0.221694 -0.358741 -0.906728 
-0.319959 -0.266157 -0.909278 -0.716548 -0.465718 -0.519294 -0.650183 -0.578179 -0.492921 
-0.60898 -0.457935 -0.647641 0.543238 -0.697212 -0.467748 0.516685 -0.72292 -0.458719 
0.456545 -0.654802 -0.60233 0.315752 -0.41845 -0.851587 -0.324306 -0.32873 -0.886996 
-0.383798 -0.840644 -0.38212 -0.310501 -0.506199 -0.804582 -0.547139 -0.720103 -0.426721 
-0.509078 -0.757077 -0.40948 -0.489365 -0.6824 -0.543003 0.481763 -0.789456 -0.380345 
0.455472 -0.812122 -0.364696 0.442577 -0.770254 -0.459168 0.371253 -0.854812 -0.362585 
0.320856 -0.633847 -0.703768 0.126676 -0.958474 -0.255501 0.212442 -0.459089 -0.862616 
-0.0432395 -0.962774 -0.266827 -0.210053 -0.968523 -0.133572 -0.199503 -0.455485 -0.867601 
-0.276392 -0.946909 -0.164226 -0.234977 -0.671808 -0.702467 -0.14885 -0.970767 -0.188296 
-0.134376 -0.846928 -0.514446 -0.0655212 -0.977808 -0.198994 -0.0791954 -0.911171 -0.404346 
-0.0765848 -0.959967 -0.269442 -0.070284 -0.916354 -0.394152 -0.237822 -0.937763 -0.253064 
-0.205457 -0.947331 -0.245665 -0.203807 -0.927936 -0.312087 0.0974469 0.381525 -0.919208 
0.0260992 0.387129 -0.921656 -0.0679773 0.380151 -0.922423 0.234706 0.312214 -0.920563 
0.155375 0.287488 -0.945097 0.107301 0.369269 -0.923107 0.113477 0.34712 -0.93093 
0.0932379 0.347612 -0.932991 0.0197757 0.319519 -0.947374 -0.139816 0.333508 -0.932322 
-0.0679518 0.326006 -0.942922 -0.14319 0.327164 -0.934056 -0.165511 0.260684 -0.951131 
0.235493 0.310956 -0.920787 0.2844 0.267387 -0.920663 0.234147 0.309978 -0.92146 
0.118995 0.231224 -0.965596 0.0915509 0.187276 -0.978032 0.0485284 0.134074 -0.989782 
0.00665083 0.117407 -0.993062 -0.0460435 0.134951 -0.989782 -0.107214 0.119954 -0.986973 
-0.173404 0.209802 -0.962244 -0.151428 0.163026 -0.974932 -0.159532 0.170348 -0.972384 
0.287412 0.263088 -0.920966 0.28232 0.262335 -0.922754 0.125843 0.17419 -0.976638 
0.0866462 0.101865 -0.991018 0.0343621 0.031152 -0.998924 0.0176443 -0.0353084 -0.999221 
0.0178895 -0.0293254 -0.99941 -0.0646727 0.0225202 -0.997652 -0.113613 -0.0374821 -0.992818 
-0.0720181 -0.000573287 -0.997403 -0.154358 0.112153 -0.981629 -0.119858 0.074595 -0.989985 
-0.101889 0.111627 -0.988513 0.206937 0.188811 -0.959962 0.201783 0.201472 -0.958485 
0.202633 0.120381 -0.971827 0.0968088 0.0923938 -0.991005 -0.0238038 0.00953732 -0.999671 
-0.0438639 -0.0793555 -0.995881 -0.0150319 -0.1408 -0.989924 0.0649284 -0.014611 -0.997783 
-0.0559685 -0.0837458 -0.994914 -0.125675 0.085744 -0.988359 -0.0426326 0.00497891 -0.999078 
-0.0417653 -0.00317869 -0.999122 -0.11526 0.114953 -0.986661 -0.0644376 0.0982404 -0.993074 
-0.133333 0.0736223 -0.988333 0.379024 0.145393 -0.913894 0.208568 0.161874 -0.964519 
0.105567 0.112168 -0.988066 0.00923294 0.0385006 -0.999216 -0.0845381 0.0168304 -0.996278 
-0.118796 -0.040683 -0.992085 0.081429 -0.120753 -0.989337 0.0796867 -0.0218058 -0.996581 
0.0284382 -0.0556206 -0.998047 0.0419317 -0.254063 -0.966278 -0.0174068 0.0534826 -0.998417 
-0.164882 -0.00412442 -0.986305 -0.0307786 0.0240508 -0.999237 -0.044505 0.0629025 -0.997027 
-0.12136 0.0638767 -0.990551 -0.120988 0.057417 -0.990992 0.481129 -0.0200652 -0.87642 
0.231939 0.0197765 -0.972529 0.0923665 0.0324513 -0.995196 -9.56926e-06 0.0544392 -0.998517 
-0.0994505 0.0797067 -0.991845 -0.178344 0.101002 -0.978771 -0.00475669 0.0723573 -0.997367 
0.000121095 -0.0186143 -0.999827 -0.0404446 -0.158999 -0.98645 0.040796 -0.011676 -0.999099 
0.0257466 0.0675781 -0.997382 0.0926824 -0.151506 -0.984101 -0.0643901 -0.0469917 -0.996818 
0.0284875 0.0203398 -0.999387 -0.0264767 0.0451357 -0.99863 -0.106254 0.0433626 -0.993393 
-0.108937 0.0401651 -0.993237 0.408264 -0.202262 -0.890175 0.352358 -0.193777 -0.915584 
0.272097 -0.169057 -0.947303 0.138062 -0.0207278 -0.990207 0.056414 0.0201963 -0.998203 
-0.0332746 0.065273 -0.997312 -0.120154 0.132901 -0.983819 -0.163059 0.185355 -0.969049 
0.0200191 0.00955662 -0.999754 0.0347497 0.124171 -0.991652 -0.0819971 -0.0107057 -0.996575 
0.00417763 0.0386105 -0.999246 0.0596443 0.0204538 -0.99801 -0.0238877 0.0210365 -0.999493 
-0.109849 -0.00889443 -0.993909 -0.126989 0.0603756 -0.990065 0.38278 -0.204796 -0.900854 
0.258073 -0.355823 -0.898214 0.24776 -0.159886 -0.955537 0.0944514 -0.116585 -0.988679 
0.00915073 -0.0230212 -0.999693 -0.0591663 0.0511128 -0.996939 -0.129707 0.100733 -0.986422 
-0.092515 0.117437 -0.988762 -0.000481979 -0.028295 -0.9996 -0.00633379 0.0508606 -0.998686 
-0.030016 0.0655839 -0.997396 0.00961218 0.0364521 -0.999289 0.00566609 -0.0878414 -0.996118 
-0.205035 -0.119419 -0.971442 -0.211631 -0.314878 -0.925237 -0.161591 -0.0463484 -0.985769 
0.252541 -0.359378 -0.898371 0.266391 -0.344323 -0.900265 0.216734 -0.267473 -0.938874 
0.129208 -0.155721 -0.979314 0.00524038 -0.0442604 -0.999006 -0.0983982 -0.00118795 -0.995146 
-0.120939 0.0186355 -0.992485 -0.0322362 -0.0219115 -0.99924 0.0120619 -0.0659431 -0.99775 
-0.00954323 -0.0726826 -0.997309 -0.0949955 -0.0160345 -0.995349 -0.161596 -0.248444 -0.955072 
-0.150462 -0.175301 -0.97295 -0.111434 -0.152504 -0.982001 0.263133 -0.379525 -0.886974 
0.24938 -0.420151 -0.872515 0.230821 -0.353243 -0.906609 0.210468 -0.451127 -0.867288 
0.106407 -0.260094 -0.959703 -0.0627449 -0.170243 -0.983402 -0.191472 -0.403324 -0.894801 
-0.115472 -0.162022 -0.980008 -0.142829 -0.335557 -0.931129 -0.106041 -0.253939 -0.96139 
-0.0640879 -0.370548 -0.9266 -0.0592403 -0.334777 -0.940433 0.0515819 -0.355682 -0.933183 
0.0529156 -0.344043 -0.937462 -0.216091 -0.314095 -0.924472 -0.061113 -0.447883 -0.892001 
-0.0647812 -0.337145 -0.939221 0.196929 -0.460763 -0.865399 -0.149637 -0.459939 -0.875251 
-0.0124778 -0.564568 -0.825293 -0.013631 -0.503048 -0.864151 
