# vtk DataFile Version 4.2
vtk output
ASCII
DATASET POLYDATA
POINTS 491 float
-18.1148 -33.9984 -18.6297 -10.3788 -33.9984 -19.2944 -2.64283 -33.9984 -19.7882 
5.09318 -33.9984 -20.2579 12.8292 -33.9984 -19.7671 20.5652 -33.9984 -17.4516 
-33.5868 -26.2624 -19.9272 -25.8508 -26.2624 -22.1141 -18.1148 -26.2624 -22.4918 
-10.3788 -26.2624 -22.5997 -2.64283 -26.2624 -22.5834 5.09318 -26.2624 -22.8266 
12.8292 -26.2624 -22.9969 20.5652 -26.2624 -22.3055 28.3012 -26.2624 -19.8102 
-41.3229 -18.5264 -19.5706 -33.5868 -18.5264 -23.1338 -25.8508 -18.5264 -23.8282 
-18.1148 -18.5264 -23.5269 -10.3788 -18.5264 -23.1405 -2.64283 -18.5264 -23.4314 
5.09318 -18.5264 -23.1168 12.8292 -18.5264 -23.1307 20.5652 -18.5264 -23.318 
28.3012 -18.5264 -22.7859 36.0372 -18.5264 -20.608 -41.3229 -10.7904 -21.805 
-33.5868 -10.7904 -24.8045 -25.8508 -10.7904 -24.4078 -18.1148 -10.7904 -23.4515 
-10.3788 -10.7904 -22.8116 -2.64283 -10.7904 -24.0352 5.09318 -10.7904 -22.2763 
12.8292 -10.7904 -21.1361 20.5652 -10.7904 -22.5311 28.3012 -10.7904 -23.1511 
36.0372 -10.7904 -22.185 43.7732 -10.7904 -18.3427 -41.3229 -3.05437 -21.3214 
-33.5868 -3.05437 -23.6858 -25.8508 -3.05437 -24.1056 -18.1148 -3.05437 -23.2955 
-10.3788 -3.05437 -22.8157 -2.64283 -3.05437 -24.6347 5.09318 -3.05437 -22.5428 
12.8292 -3.05437 -21.2334 20.5652 -3.05437 -22.5992 28.3012 -3.05437 -23.8123 
36.0372 -3.05437 -22.7833 43.7732 -3.05437 -19.2843 -41.3229 4.68164 -18.9175 
-33.5868 4.68164 -22.79 -25.8508 4.68164 -23.4392 -18.1148 4.68164 -23.5806 
-10.3788 4.68164 -23.6517 -2.64283 4.68164 -23.4494 5.09318 4.68164 -23.6908 
12.8292 4.68164 -23.6918 20.5652 4.68164 -23.4368 28.3012 4.68164 -23.3047 
36.0372 4.68164 -21.9029 43.7732 4.68164 -17.8952 -33.5868 12.4176 -20.9606 
-25.8508 12.4176 -23.2325 -18.1148 12.4176 -24.4149 -10.3788 12.4176 -24.6512 
-2.64283 12.4176 -23.6349 5.09318 12.4176 -23.561 12.8292 12.4176 -23.6147 
20.5652 12.4176 -22.2898 28.3012 12.4176 -20.9638 36.0372 12.4176 -18.4502 
-33.5868 20.1536 -19.1449 -25.8508 20.1536 -22.8147 -18.1148 20.1536 -24.6532 
-10.3788 20.1536 -25.0127 -2.64283 20.1536 -24.3438 5.09318 20.1536 -23.6664 
12.8292 20.1536 -22.5531 20.5652 20.1536 -20.1674 28.3012 20.1536 -17.3309 
-25.8508 27.8897 -21.4103 -18.1148 27.8897 -23.532 -10.3788 27.8897 -24.6178 
-2.64283 27.8897 -23.9531 5.09318 27.8897 -23.408 12.8292 27.8897 -21.2673 
20.5652 27.8897 -18.2895 -18.1148 35.6257 -20.0518 -10.3788 35.6257 -21.6323 
-2.64283 35.6257 -21.9124 5.09318 35.6257 -20.9147 12.8292 35.6257 -18.4195 
-18.1148 -35.4854 -17.2954 -10.3788 -36.3103 -17.2954 -2.64283 -36.8992 -17.2954 
5.09318 -37.3578 -17.2954 12.8292 -36.6178 -17.2954 20.5652 -34.1466 -17.2954 
-33.5868 -29.4521 -17.2954 -33.5868 -33.9984 -10.1832 -24.2516 -33.9984 -17.2954 
-25.8508 -33.5372 -17.2954 -25.8508 -33.9984 -16.7031 20.8477 -33.9984 -17.2954 
28.3012 -29.4334 -17.2954 -37.8257 -26.2624 -17.2954 -41.3229 -22.427 -17.2954 
-41.3229 -26.2624 -12.7713 33.0173 -26.2624 -17.2954 36.0372 -23.6232 -17.2954 
36.0372 -26.2624 -14.2901 -43.8959 -18.5264 -17.2954 40.79 -18.5264 -17.2954 
43.7732 -13.4014 -17.2954 43.7732 -18.5264 -13.9664 -46.0868 -10.7904 -17.2954 
-49.0589 -10.7904 -10.5329 44.9058 -10.7904 -17.2954 -45.3444 -3.05437 -17.2954 
45.9959 -3.05437 -17.2954 -42.9469 4.68164 -17.2954 -41.3229 8.63357 -17.2954 
44.4415 4.68164 -17.2954 43.7732 5.92885 -17.2954 -39.2768 12.4176 -17.2954 
-41.3229 12.4176 -14.7966 38.1292 12.4176 -17.2954 36.0372 14.4648 -17.2954 
43.7732 12.4176 -13.0379 -36.0768 20.1536 -17.2954 -41.3229 20.1536 -10.3981 
-33.5868 26.2859 -17.2954 28.3953 20.1536 -17.2954 28.3012 20.2318 -17.2954 
36.0372 20.1536 -13.0377 -32.8062 27.8897 -17.2954 -33.5868 27.8897 -16.5044 
-25.8508 35.0122 -17.2954 22.3124 27.8897 -17.2954 20.5652 29.9959 -17.2954 
28.3012 27.8897 -12.7023 -24.9037 35.6257 -17.2954 -25.8508 35.6257 -16.6503 
-18.1148 38.8919 -17.2954 -10.3788 41.0384 -17.2954 -2.64283 41.6744 -17.2954 
5.09318 40.5934 -17.2954 15.0498 35.6257 -17.2954 12.8292 37.1965 -17.2954 
20.5652 35.6257 -13.3541 -18.1148 43.3617 -9.73228 -10.3788 43.3617 -13.6452 
-2.64283 43.3617 -14.8169 5.09318 43.3617 -13.595 12.8292 43.3617 -9.60277 
-33.5868 -34.2981 -9.55938 -25.8508 -37.9155 -9.55938 -18.1148 -40.0675 -9.55938 
-10.3788 -40.8606 -9.55938 -2.64283 -41.2768 -9.55938 5.09318 -41.3349 -9.55938 
12.8292 -40.1577 -9.55938 20.5652 -37.2632 -9.55938 -34.0247 -33.9984 -9.55938 
-41.3229 -27.9597 -9.55938 27.3823 -33.9984 -9.55938 28.3012 -33.5281 -9.55938 
36.0372 -28.7532 -9.55938 -42.87 -26.2624 -9.55938 39.4331 -26.2624 -9.55938 
43.7732 -21.9589 -9.55938 -47.7124 -18.5264 -9.55938 -49.0589 -12.3997 -9.55938 
46.4318 -18.5264 -9.55938 -49.3847 -10.7904 -9.55938 -49.0589 -7.85679 -9.55938 
49.4413 -10.7904 -9.55938 -48.5462 -3.05437 -9.55938 50.4676 -3.05437 -9.55938 
51.5092 -3.05437 -2.11668 -46.4052 4.68164 -9.55938 49.4479 4.68164 -9.55938 
-44.0864 12.4176 -9.55938 46.1126 12.4176 -9.55938 43.7732 15.6869 -9.55938 
-41.7393 20.1536 -9.55938 -41.3229 21.1843 -9.55938 39.3622 20.1536 -9.55938 
36.0372 23.5654 -9.55938 -38.069 27.8897 -9.55938 -33.5868 33.7339 -9.55938 
31.735 27.8897 -9.55938 28.3012 31.3437 -9.55938 -31.6373 35.6257 -9.55938 
-25.8508 39.6801 -9.55938 24.1973 35.6257 -9.55938 20.5652 38.8849 -9.55938 
-18.2848 43.3617 -9.55938 -18.1148 43.4366 -9.55938 -18.1148 43.3617 -1.98124 
-10.3788 45.2344 -9.55938 -2.64283 45.8549 -9.55938 5.09318 45.4078 -9.55938 
12.881 43.3617 -9.55938 12.8292 43.3849 -9.55938 -33.5868 -35.4771 -1.82337 
-25.8508 -38.9357 -1.82337 -18.1148 -40.5894 -1.82337 -10.3788 -41.2882 -1.82337 
-2.64283 -41.7116 -1.82337 5.09318 -41.623 -1.82337 12.8292 -40.0915 -1.82337 
20.5652 -37.0475 -1.82337 -35.7334 -33.9984 -1.82337 -41.3229 -29.2579 -1.82337 
27.9647 -33.9984 -1.82337 28.3012 -33.8539 -1.82337 36.0372 -29.8942 -1.82337 
-43.9709 -26.2624 -1.82337 41.2956 -26.2624 -1.82337 43.7732 -23.8574 -1.82337 
-48.1479 -18.5264 -1.82337 -49.0589 -14.5225 -1.82337 47.9335 -18.5264 -1.82337 
-49.8835 -10.7904 -1.82337 -49.0589 -6.12888 -1.82337 -49.0589 -10.7904 2.16389 
50.6483 -10.7904 -1.82337 51.5092 -3.39522 -1.82337 -48.5226 -3.05437 -1.82337 
51.5092 -2.66701 -1.82337 51.5092 -3.05437 -1.41706 -46.2968 4.68164 -1.82337 
50.7384 4.68164 -1.82337 -44.2002 12.4176 -1.82337 47.8516 12.4176 -1.82337 
43.7732 18.68 -1.82337 -42.075 20.1536 -1.82337 -41.3229 21.9447 -1.82337 
-41.3229 20.1536 0.727039 42.5702 20.1536 -1.82337 36.0372 27.1296 -1.82337 
-38.3173 27.8897 -1.82337 -33.5868 33.8167 -1.82337 35.2841 27.8897 -1.82337 
28.3012 34.4328 -1.82337 -31.6091 35.6257 -1.82337 -25.8508 39.7485 -1.82337 
-18.1148 43.36 -1.82337 26.927 35.6257 -1.82337 20.5652 40.6372 -1.82337 
-18.109 43.3617 -1.82337 -10.3788 45.3708 -1.82337 -10.3788 43.3617 4.837 
-2.64283 46.129 -1.82337 5.09318 45.8322 -1.82337 14.9208 43.3617 -1.82337 
12.8292 44.2224 -1.82337 12.8292 43.3617 1.59721 -33.5868 -34.6062 5.91263 
-25.8508 -37.7613 5.91263 -18.1148 -39.1743 5.91263 -10.3788 -39.6938 5.91263 
-2.64283 -40.0482 5.91263 5.09318 -39.9664 5.91263 12.8292 -38.5508 5.91263 
20.5652 -35.999 5.91263 -34.5549 -33.9984 5.91263 -41.3229 -28.2175 5.91263 
-33.5868 -33.9984 7.25301 -25.8508 -33.9984 12.7761 26.6302 -33.9984 5.91263 
20.5652 -33.9984 10.5858 28.3012 -33.4349 5.91263 36.0372 -29.9286 5.91263 
-42.8968 -26.2624 5.91263 -41.3229 -26.2624 9.08214 41.5689 -26.2624 5.91263 
43.7732 -24.0817 5.91263 -47.0315 -18.5264 5.91263 47.8502 -18.5264 5.91263 
-48.2387 -10.7904 5.91263 50.1297 -10.7904 5.91263 -46.7464 -3.05437 5.91263 
50.7799 -3.05437 5.91263 -44.2845 4.68164 5.91263 49.9624 4.68164 5.91263 
-41.9796 12.4176 5.91263 -41.3229 14.5215 5.91263 -41.3229 12.4176 7.44796 
47.1831 12.4176 5.91263 43.7732 17.843 5.91263 -39.4838 20.1536 5.91263 
41.9513 20.1536 5.91263 36.0372 26.2825 5.91263 -35.1386 27.8897 5.91263 
-33.5868 29.8328 5.91263 -33.5868 27.8897 8.08589 34.2591 27.8897 5.91263 
28.3012 33.0402 5.91263 -26.8553 35.6257 5.91263 -25.8508 36.2945 5.91263 
-25.8508 35.6257 6.84028 -18.1148 40.4426 5.91263 -18.1148 35.6257 12.7143 
-10.3788 42.9981 5.91263 12.8292 42.1548 5.91263 24.8943 35.6257 5.91263 
20.5652 38.5706 5.91263 20.5652 35.6257 10.8245 -7.75528 43.3617 5.91263 
-2.64283 44.0261 5.91263 -2.64283 43.3617 7.25158 6.99349 43.3617 5.91263 
5.09318 43.7398 5.91263 5.09318 43.3617 6.68257 -18.1148 -34.74 13.6486 
-10.3788 -35.007 13.6486 -2.64283 -35.2002 13.6486 5.09318 -35.1876 13.6486 
12.8292 -34.1847 13.6486 -33.5868 -29.9161 13.6486 -22.6391 -33.9984 13.6486 
-25.8508 -33.3622 13.6486 -18.1148 -33.9984 14.4276 -10.3788 -33.9984 14.6669 
-2.64283 -33.9984 14.8247 5.09318 -33.9984 14.8217 13.6895 -33.9984 13.6486 
12.8292 -33.9984 13.8501 20.5652 -32.41 13.6486 28.3012 -30.4224 13.6486 
36.0372 -27.2232 13.6486 -37.8901 -26.2624 13.6486 -41.3229 -22.2089 13.6486 
-33.5868 -26.2624 16.7002 -25.8508 -26.2624 19.2171 -18.1148 -26.2624 20.0185 
-10.3788 -26.2624 19.5742 -2.64283 -26.2624 19.4668 5.09318 -26.2624 19.5585 
12.8292 -26.2624 19.6245 20.5652 -26.2624 19.6438 28.3012 -26.2624 18.4104 
37.5012 -26.2624 13.6486 36.0372 -26.2624 14.832 43.7732 -19.8435 13.6486 
-43.3471 -18.5264 13.6486 -41.3229 -18.5264 16.2396 -33.5868 -18.5264 21.1541 
36.0372 -18.5264 21.2572 44.6933 -18.5264 13.6486 43.7732 -18.5264 14.8011 
-44.5886 -10.7904 13.6486 -41.3229 -10.7904 17.5102 47.3203 -10.7904 13.6486 
43.7732 -10.7904 18.2226 -43.5156 -3.05437 13.6486 -41.3229 -3.05437 16.803 
48.0492 -3.05437 13.6486 43.7732 -3.05437 19.3671 -41.3797 4.68164 13.6486 
-41.3229 4.8473 13.6486 -41.3229 4.68164 13.7446 47.1874 4.68164 13.6486 
43.7732 4.68164 18.4197 -38.5066 12.4176 13.6486 -33.5868 12.4176 20.5199 
44.2818 12.4176 13.6486 43.7732 13.2109 13.6486 43.7732 12.4176 14.3798 
-34.9701 20.1536 13.6486 -33.5868 22.2499 13.6486 -33.5868 20.1536 15.37 
28.3012 20.1536 20.7742 37.8962 20.1536 13.6486 36.0372 21.9974 13.6486 
36.0372 20.1536 15.674 -28.3909 27.8897 13.6486 -25.8508 30.033 13.6486 
[...]
POINT_DATA 491
SCALARS ImageScalars float
LOOKUP_TABLE default
0 0 0 0 0 0 0 0 0 
0 0 0 0 0 0 0 0 0 
0 0 0 0 0 0 0 0 0 
0 0 0 0 0 0 0 0 0 
0 0 0 0 0 0 0 0 0 
0 0 0 0 0 0 0 0 0 
0 0 0 0 0 0 0 0 0 
0 0 0 0 0 0 0 0 0 
0 0 0 0 0 0 0 0 0 
0 0 0 0 0 0 0 0 0 
0 0 0 0 0 0 0 0 0 
0 0 0 0 0 0 0 0 0 
0 0 0 0 0 0 0 0 0 
0 0 0 0 0 0 0 0 0 
0 0 0 0 0 0 0 0 0 
0 0 0 0 0 0 0 0 0 
0 0 0 0 0 0 0 0 0 
0 0 0 0 0 0 0 0 0 
0 0 0 0 0 0 0 0 0 
0 0 0 0 0 0 0 0 0 
0 0 0 0 0 0 0 0 0 
0 0 0 0 0 0 0 0 0 
0 0 0 0 0 0 0 0 0 
0 0 0 0 0 0 0 0 0 
0 0 0 0 0 0 0 0 0 
0 0 0 0 0 0 0 0 0 
0 0 0 0 0 0 0 0 0 
0 0 0 0 0 0 0 0 0 
0 0 0 0 0 0 0 0 0 
0 0 0 0 0 0 0 0 0 
0 0 0 0 0 0 0 0 0 
0 0 0 0 0 0 0 0 0 
0 0 0 0 0 0 0 0 0 
0 0 0 0 0 0 0 0 0 
0 0 0 0 0 0 0 0 0 
0 0 0 0 0 0 0 0 0 
0 0 0 0 0 0 0 0 0 
0 0 0 0 0 0 0 0 0 
0 0 0 0 0 0 0 0 0 
0 0 0 0 0 0 0 0 0 
0 0 0 0 0 0 0 0 0 
0 0 0 0 0 0 0 0 0 
0 0 0 0 0 0 0 0 0 
0 0 0 0 0 0 0 0 0 
0 0 0 0 0 0 0 0 0 
0 0 0 0 0 0 0 0 0 
0 0 0 0 0 0 0 0 0 
0 0 0 0 0 0 0 0 0 
0 0 0 0 0 0 0 0 0 
0 0 0 0 0 0 0 0 0 
0 0 0 0 0 0 0 0 0 
0 0 0 0 0 0 0 0 0 
0 0 0 0 0 0 0 0 0 
0 0 0 0 0 0 0 0 0 
0 0 0 0 0 
NORMALS Normals float
0.124963 0.637685 0.760093 0.0670879 0.58297 0.80972 0.0563335 0.547157 0.835132 
-0.000205444 0.539722 0.841843 -0.154149 0.609266 0.777838 -0.355285 0.717939 0.598612 
0.378504 0.529488 0.759195 0.141775 0.370733 0.917854 0.0296028 0.272122 0.961807 
0.00612517 0.223114 0.974773 0.0147995 0.20812 0.977991 0.0259501 0.160707 0.986661 
-0.0285971 0.186349 0.982067 -0.187478 0.311423 0.931594 -0.367799 0.506192 0.78006 
0.581173 0.351747 0.733834 0.224708 0.267641 0.93695 0.0249957 0.145261 0.989078 
-0.0441691 0.0629523 0.997039 -0.00594422 0.012169 0.999908 -0.00151299 0.0927069 0.995692 
-0.0195216 -0.031824 0.999303 0.0127824 -0.113185 0.993492 -0.0194525 0.00666747 0.999789 
-0.147626 0.18923 0.970772 -0.411234 0.354455 0.839791 0.535151 0.0926349 0.839662 
0.122762 0.0299676 0.991984 -0.0848778 0.0170267 0.996246 -0.102941 -0.0144731 0.994582 
0.036321 -0.0211142 0.999117 -0.0271293 0.0778306 0.996597 -0.189558 -0.0420564 0.980968 
0.0219054 -0.12666 0.991704 0.124639 -0.0455025 0.991158 -0.0192117 0.0643678 0.997741 
-0.2698 0.121356 0.955238 -0.627146 0.218539 0.747615 0.545681 -0.158219 0.822921 
0.13874 -0.115797 0.983536 -0.0221171 -0.0623513 0.997809 -0.0839232 0.00848625 0.996436 
0.0877089 0.0547461 0.994641 0.00250224 -0.0388696 0.999241 -0.235774 0.0987986 0.966773 
0.017791 0.164754 0.986174 0.163869 0.0587257 0.984733 0.0146238 0.0106409 0.999836 
-0.259558 -0.0176364 0.965566 -0.601244 -0.0223161 0.798753 0.628042 -0.291248 0.721622 
0.243842 -0.172973 0.954265 0.04636 -0.0558784 0.997361 0.0136658 0.0697291 0.997472 
-0.00847657 0.116328 0.993175 0.00268201 -0.0638162 0.997958 0.0156075 0.0530027 0.998472 
-0.0166196 0.151023 0.988391 -0.0241974 -0.0171482 0.99956 -0.095608 -0.176619 0.979625 
-0.297655 -0.234865 0.925332 -0.623028 -0.276242 0.731797 0.406135 -0.208012 0.889823 
0.210591 -0.0393388 0.976782 0.0893801 0.0700289 0.993533 -0.0507905 0.0877113 0.99485 
-0.0694699 0.0579384 0.9959 -0.00132738 -0.00161459 0.999998 -0.0789498 -0.0713789 0.99432 
-0.166499 -0.204252 0.964655 -0.207973 -0.348874 0.913802 -0.380926 -0.449928 0.80775 
0.535399 -0.233051 0.81181 0.316939 -0.106035 0.9425 0.138377 -0.0549219 0.988856 
-0.0201256 -0.000943495 0.999797 -0.0871252 0.0200099 0.995996 -0.112721 -0.00888781 0.993587 
-0.21606 -0.143685 0.96575 -0.310175 -0.240729 0.919696 -0.338823 -0.422977 0.84041 
0.376144 -0.314408 0.871587 0.188665 -0.257818 0.947595 0.0241325 -0.195904 0.980326 
-0.0725861 -0.143384 0.987002 -0.159798 -0.160807 0.973964 -0.307219 -0.24039 0.920776 
-0.440484 -0.329818 0.834982 0.254517 -0.558204 0.789702 0.104918 -0.501681 0.858666 
-0.0429565 -0.431059 0.901301 -0.20105 -0.450013 0.870096 -0.36266 -0.467361 0.806258 
0.135442 0.703001 0.698173 0.072334 0.692949 0.717349 0.0542474 0.70231 0.709801 
-0.0167177 0.733323 0.679675 -0.17916 0.74266 0.645258 -0.356937 0.72393 0.590357 
0.430854 0.64354 0.63263 0.503267 0.809681 0.301893 0.247282 0.707324 0.662227 
0.273016 0.702103 0.657657 0.282677 0.732099 0.619778 -0.360644 0.722157 0.590276 
-0.421515 0.641437 0.641002 0.534775 0.581318 0.613258 0.630165 0.472457 0.616179 
0.68232 0.624804 0.379551 -0.471876 0.591846 0.653492 -0.500486 0.54929 0.669175 
-0.537629 0.685058 0.491579 0.705703 0.35762 0.61163 -0.581232 0.42454 0.694216 
-0.650368 0.294225 0.700323 -0.71241 0.477452 0.514307 0.790811 0.0662825 0.608461 
0.970988 0.0455162 0.234758 -0.67315 0.22279 0.705148 0.780034 -0.170642 0.60202 
-0.694527 -0.0192013 0.71921 0.718386 -0.294493 0.630234 0.687784 -0.300638 0.660734 
-0.64697 -0.277999 0.710032 -0.626006 -0.309845 0.71562 0.642715 -0.286239 0.710622 
0.78797 -0.310711 0.531565 -0.445277 -0.463011 0.766387 -0.406615 -0.482841 0.775583 
-0.67905 -0.496072 0.541114 0.622184 -0.257911 0.739167 0.894645 -0.329841 0.301354 
0.601003 -0.358909 0.714128 -0.340374 -0.424701 0.838913 -0.341032 -0.423315 0.839346 
-0.53172 -0.594141 0.603549 0.591047 -0.386954 0.707764 0.63438 -0.408083 0.656529 
0.435375 -0.599216 0.671854 -0.46572 -0.360434 0.808203 -0.462746 -0.384976 0.798536 
-0.571527 -0.526138 0.629711 0.416299 -0.617972 0.666937 0.446279 -0.639655 0.62584 
0.269173 -0.694414 0.667335 0.131397 -0.735751 0.664384 -0.0177452 -0.740435 0.671894 
-0.191365 -0.673264 0.714209 -0.406423 -0.487442 0.772801 -0.363969 -0.531484 0.764886 
-0.565719 -0.577497 0.588608 0.326193 -0.921269 0.211804 0.146173 -0.890336 0.431202 
-0.00506674 -0.861503 0.507727 -0.171862 -0.864804 0.471781 -0.338474 -0.890312 0.304596 
0.505188 0.817516 0.276499 0.333083 0.903551 0.26954 0.175155 0.949815 0.259177 
0.0730258 0.965906 0.248379 0.0289877 0.970516 0.239288 -0.067101 0.974141 0.215746 
-0.237631 0.955174 0.176559 -0.385517 0.910312 0.150695 0.514239 0.811902 0.276356 
0.695891 0.673654 0.248849 -0.479497 0.855706 0.194548 -0.489648 0.847976 0.202931 
-0.543358 0.798979 0.257671 0.736819 0.629916 0.245568 -0.608746 0.742095 0.280579 
-0.734466 0.607929 0.301632 0.91357 0.356096 0.19643 0.97574 0.106532 0.191265 
-0.807549 0.497904 0.316159 0.980218 0.0440196 0.192961 0.983541 -0.0434919 0.175375 
-0.926988 0.22638 0.299074 0.971396 -0.18375 0.150416 -0.956733 0.00445676 0.290932 
-0.999581 0.0069541 0.0280838 0.944976 -0.279055 0.170729 -0.908635 -0.261275 0.325759 
0.928187 -0.296283 0.225135 -0.787918 -0.487252 0.376525 -0.721819 -0.567512 0.396115 
0.907606 -0.333156 0.255458 0.901155 -0.353534 0.250865 -0.635274 -0.633004 0.442418 
-0.617666 -0.631231 0.46908 0.832829 -0.506248 0.223849 0.709615 -0.671526 0.213305 
-0.619167 -0.612032 0.491985 -0.628941 -0.622097 0.466292 0.643223 -0.737879 0.204447 
0.494827 -0.84677 0.195259 -0.639879 -0.648553 0.412231 -0.579794 -0.719689 0.381951 
0.330577 -0.921795 0.202515 0.326913 -0.922962 0.203149 0.3281 -0.932129 -0.15325 
0.15178 -0.964346 0.216792 0.0112701 -0.973609 0.227945 -0.150809 -0.955287 0.25433 
-0.33963 -0.890519 0.3027 -0.338292 -0.89112 0.302428 0.507628 0.861435 0.0155782 
0.31079 0.950447 -0.00770425 0.144044 0.988076 -0.0543819 0.0715246 0.99498 -0.0699889 
0.0215206 0.997129 -0.0725953 -0.100054 0.991681 -0.0809842 -0.279612 0.955423 -0.0947795 
-0.382469 0.921026 -0.0736817 0.557241 0.830034 0.0229226 0.716182 0.69773 0.0160091 
-0.42119 0.906918 -0.00991888 -0.42304 0.906086 -0.00670107 -0.503759 0.861327 0.0658982 
0.796046 0.605236 -0.00111385 -0.640706 0.762643 0.0887225 -0.733216 0.673969 0.0903328 
0.942747 0.330925 -0.0414278 0.983549 0.171078 -0.0579948 -0.86406 0.496766 0.0813855 
0.997322 0.0212067 -0.0699895 0.98771 -0.126125 -0.0923096 0.98193 0.000748954 -0.189245 
-0.978086 0.20403 0.0414691 -0.999693 0.0152346 0.0195378 0.969635 -0.2197 -0.10742 
-0.999811 -0.00461926 0.0188624 -0.999957 0.00610031 0.00692688 0.954134 -0.271474 -0.126211 
-0.973042 -0.229014 0.0272557 0.954745 -0.271815 -0.120744 -0.895433 -0.441478 0.0574145 
-0.785842 -0.61199 0.0889986 0.936588 -0.329168 -0.120215 0.921708 -0.368621 -0.12072 
0.922397 -0.329825 -0.200997 -0.758505 -0.64382 0.100825 -0.707483 -0.69937 0.101733 
0.837354 -0.530264 -0.132887 0.700775 -0.698899 -0.143019 -0.704264 -0.703128 0.0981009 
-0.663121 -0.746454 0.0554697 0.641308 -0.752258 -0.151101 0.501944 -0.850108 -0.159276 
0.327686 -0.931065 -0.160438 -0.643014 -0.764856 0.0390998 -0.518847 -0.85438 -0.0288552 
0.327566 -0.93111 -0.160419 0.173403 -0.976243 -0.129927 0.196643 -0.91256 -0.358559 
0.0287499 -0.993726 -0.108088 -0.120057 -0.988138 -0.0957612 -0.355664 -0.932423 -0.0639538 
-0.300403 -0.951316 -0.0689586 -0.295262 -0.93595 -0.191881 0.466852 0.846591 -0.255605 
0.273121 0.916434 -0.292496 0.113203 0.939508 -0.32328 0.0528263 0.937931 -0.342775 
0.0166864 0.935589 -0.352695 -0.089477 0.93312 -0.348253 -0.235014 0.917234 -0.321636 
-0.304184 0.919298 -0.249727 0.493191 0.832113 -0.253674 0.726225 0.640013 -0.250959 
0.462722 0.829864 -0.311792 0.229064 0.787533 -0.572121 -0.343212 0.918275 -0.197424 
-0.244275 0.868885 -0.430545 -0.35595 0.916413 -0.182996 -0.474284 0.86894 -0.141413 
0.772706 0.58032 -0.257205 0.716431 0.583959 -0.381731 -0.651481 0.747095 -0.131993 
-0.746681 0.650726 -0.137925 0.919122 0.290303 -0.266344 -0.866904 0.468944 -0.16902 
0.951954 -0.0185364 -0.305679 -0.967615 0.162204 -0.193419 0.927648 -0.230837 -0.293571 
-0.977664 -0.00934509 -0.209964 0.914931 -0.279006 -0.291644 -0.952699 -0.218883 -0.210844 
0.903121 -0.27833 -0.326963 0.895095 -0.290059 -0.338632 0.891759 -0.286037 -0.350639 
-0.881203 -0.427748 -0.201278 -0.793808 -0.574496 -0.199555 0.859061 -0.344687 -0.378424 
-0.747947 -0.632423 -0.201534 -0.671856 -0.706737 -0.22166 0.720151 -0.538888 -0.437015 
0.67715 -0.58825 -0.442074 0.675215 -0.552159 -0.489085 -0.651666 -0.720141 -0.238178 
-0.599564 -0.74843 -0.283505 0.49801 -0.733292 -0.462892 0.477296 -0.746098 -0.464249 
0.475396 -0.732652 -0.487051 0.344256 -0.828267 -0.44211 0.355212 -0.699527 -0.62007 
0.200377 -0.895629 -0.397112 -0.284729 -0.890332 -0.355301 -0.552041 -0.77339 -0.311639 
-0.470151 -0.813535 -0.342227 -0.451135 -0.7458 -0.490163 0.145819 -0.910558 -0.386808 
0.0428661 -0.928892 -0.367862 0.0460911 -0.913861 -0.403402 -0.1518 -0.920353 -0.360427 
-0.109571 -0.925531 -0.362474 -0.108691 -0.917803 -0.381868 0.0805409 0.751905 -0.654333 
0.0242837 0.726769 -0.686453 0.00950189 0.715534 -0.698513 -0.0543335 0.719162 -0.692714 
-0.142035 0.747896 -0.648443 0.429192 0.660284 -0.616295 0.161729 0.758907 -0.630796 
0.220994 0.754258 -0.618269 0.0738166 0.72726 -0.682381 0.0205203 0.689335 -0.724152 
0.00803963 0.669329 -0.742923 -0.0481543 0.673708 -0.737427 -0.147995 0.754298 -0.639634 
-0.139433 0.741703 -0.656076 -0.185274 0.797698 -0.573892 -0.273959 0.821544 -0.500012 
-0.437856 0.758735 -0.48229 0.562791 0.566287 -0.602151 0.699828 0.429307 -0.570908 
0.401043 0.549972 -0.732595 0.174862 0.488022 -0.855136 0.0180212 0.442643 -0.896517 
-0.0318423 0.439778 -0.897542 -0.000860787 0.440272 -0.897864 0.00894508 0.461373 -0.887161 
0.00482209 0.518647 -0.854975 -0.0560587 0.586913 -0.807707 -0.224232 0.663792 -0.713513 
-0.482628 0.730801 -0.482701 -0.429609 0.727008 -0.535626 -0.733294 0.480295 -0.481245 
0.775063 0.293699 -0.55948 0.688925 0.299436 -0.660091 0.320151 0.325343 -0.88975 
-0.371866 0.410772 -0.832456 -0.757042 0.434739 -0.487739 -0.727729 0.429768 -0.534518 
0.830284 0.00650883 -0.557302 0.711407 0.0270557 -0.70226 -0.856651 0.172565 -0.48618 
-0.72429 0.187458 -0.663523 0.855035 -0.181318 -0.485838 0.793727 -0.139092 -0.592158 
-0.881593 -0.00826774 -0.471937 -0.707614 0.0116505 -0.706503 0.860706 -0.271639 -0.430577 
0.860241 -0.272603 -0.430899 0.85954 -0.271018 -0.43329 -0.858607 -0.214805 -0.46546 
-0.733404 -0.20176 -0.649163 0.821643 -0.332194 -0.463196 0.645804 -0.340995 -0.683125 
-0.772917 -0.434108 -0.462763 -0.759714 -0.455629 -0.463937 -0.757083 -0.434976 -0.487464 
0.712794 -0.437328 -0.548333 0.671927 -0.47734 -0.56627 0.667161 -0.454521 -0.590176 
-0.354888 -0.508338 -0.784632 -0.618601 -0.619283 -0.48355 -0.590996 -0.640918 -0.489844 
-0.568911 -0.605437 -0.556584 0.518443 -0.585285 -0.623425 0.461014 -0.622752 -0.632176 
0.450387 -0.592096 -0.668261 0.350284 -0.67765 -0.6466 0.290546 -0.537446 -0.791666 
-0.428383 -0.691863 -0.581218 -0.393868 -0.559876 -0.728977 -0.506378 -0.667191 -0.546294 
-0.503514 -0.667577 -0.548466 -0.500088 -0.663318 -0.556705 0.328755 -0.691597 -0.643129 
0.238841 -0.738482 -0.630555 0.243026 -0.667371 -0.703956 0.0715727 -0.796769 -0.600031 
0.0879438 -0.679119 -0.728741 -0.10499 -0.808237 -0.579422 -0.0911589 -0.703893 -0.704432 
-0.361853 -0.72865 -0.581492 -0.28554 -0.762396 -0.580706 -0.284126 -0.715988 -0.637679 
0.125155 0.390701 -0.91197 0.00293262 0.377231 -0.926114 -0.0105706 0.387399 -0.921851 
0.0200937 0.42468 -0.90512 0.0269519 0.460168 -0.887423 0.0218358 0.478179 -0.877991 
-0.0316306 0.502708 -0.863877 -0.174289 0.492366 -0.852759 0.29159 0.326173 -0.899215 
0.327049 0.301519 -0.895615 0.0995173 0.333325 -0.937545 -0.00724651 0.325605 -0.945478 
0.0131677 0.357122 -0.933965 0.0471667 0.424196 -0.904341 0.0413444 0.470834 -0.881253 
0.016351 0.443422 -0.896164 -0.0298259 0.400999 -0.915593 -0.35856 0.408603 -0.839332 
-0.149794 0.384146 -0.91104 -0.371595 0.398957 -0.838302 0.472864 0.113264 -0.873825 
0.38459 0.151648 -0.910545 0.160979 0.238623 -0.957677 0.0419941 0.297965 -0.953653 
0.0678015 0.307081 -0.949265 0.111981 0.27152 -0.955896 0.048869 0.292859 -0.954906 
-0.0545181 0.296296 -0.953539 -0.10448 0.247721 -0.963181 -0.165593 0.217566 -0.961896 
-0.529327 0.186644 -0.827634 -0.38503 0.194988 -0.902071 0.603633 -0.0328534 -0.796585 
0.48803 0.0253119 -0.87246 0.237178 0.123676 -0.963562 0.0559636 0.175149 -0.98295 
-0.00894614 0.133374 -0.991025 0.0555684 0.0651374 -0.996328 0.0730312 0.0569073 -0.995705 
-0.0400065 0.0658907 -0.997025 -0.114296 0.0632173 -0.991433 -0.209314 0.0533743 -0.976391 
-0.585526 0.0206829 -0.81039 -0.398323 0.0191714 -0.917045 0.6584 -0.182056 -0.730318 
0.62683 -0.294034 -0.721546 0.591161 -0.15818 -0.79089 0.285716 -0.0878649 -0.954278 
0.0562001 -0.0464795 -0.997337 -0.0373566 -0.048618 -0.998119 0.0369735 0.0102398 -0.999264 
0.052411 -0.00257073 -0.998622 -0.0501967 -0.0593265 -0.996976 -0.121451 -0.102196 -0.987322 
-0.217661 -0.124123 -0.9681 -0.573736 -0.186555 -0.797511 -0.416459 -0.16234 -0.894543 
0.595881 -0.3402 -0.727454 0.325879 -0.314835 -0.891449 0.100819 -0.269212 -0.957789 
0.0530033 -0.179775 -0.982279 0.102273 -0.0701629 -0.992279 0.002951 -0.0720748 -0.997395 
-0.142504 -0.153917 -0.977754 -0.176513 -0.239996 -0.954592 -0.339893 -0.479068 -0.8093 
-0.268058 -0.326999 -0.90621 -0.478343 -0.387088 -0.788258 -0.474727 -0.390993 -0.788517 
-0.473383 -0.38622 -0.791671 0.373419 -0.484637 -0.791003 0.37156 -0.485411 -0.791403 
0.371011 -0.484373 -0.792296 0.249742 -0.479676 -0.841154 0.201378 -0.420335 -0.88474 
0.154326 -0.309068 -0.938435 0.145672 -0.253783 -0.956229 -0.0301157 -0.265464 -0.96365 
-0.218717 -0.298516 -0.929005 -0.337347 -0.482098 -0.808566 -0.341133 -0.476636 -0.810214 
-0.291664 -0.388227 -0.874192 0.230557 -0.463625 -0.855509 0.226025 -0.463533 -0.856767 
0.225326 -0.456097 -0.860932 0.117918 -0.538206 -0.834524 0.135834 -0.44718 -0.88407 
-0.0679609 -0.585713 -0.807664 -0.0526268 -0.486341 -0.872183 -0.301208 -0.517462 -0.800941 
-0.257657 -0.540139 -0.801164 -0.251357 -0.49755 -0.830219 
