# vtk DataFile Version 4.2
vtk output
ASCII
DATASET POLYDATA
POINTS 494 float
-21.398 -35.2791 -15.95 -13.9285 -35.2791 -17.7513 -6.45902 -35.2791 -19.2087 
1.01046 -35.2791 -19.9262 8.47994 -35.2791 -19.532 15.9494 -35.2791 -19.0863 
23.4189 -35.2791 -16.161 -28.8675 -27.8096 -17.5319 -21.398 -27.8096 -18.8207 
-13.9285 -27.8096 -20.3218 -6.45902 -27.8096 -21.1772 1.01046 -27.8096 -21.8447 
8.47994 -27.8096 -21.4912 15.9494 -27.8096 -21.8389 23.4189 -27.8096 -20.5609 
30.8884 -27.8096 -19.0319 -36.3369 -20.3401 -17.9642 -28.8675 -20.3401 -19.3649 
-21.398 -20.3401 -20.0305 -13.9285 -20.3401 -20.4338 -6.45902 -20.3401 -21.3747 
1.01046 -20.3401 -21.5289 8.47994 -20.3401 -21.5062 15.9494 -20.3401 -21.8169 
23.4189 -20.3401 -21.6362 30.8884 -20.3401 -20.9923 38.3579 -20.3401 -18.6546 
-43.8064 -12.8706 -16.6757 -36.3369 -12.8706 -19.6029 -28.8675 -12.8706 -20.1725 
-21.398 -12.8706 -20.0798 -13.9285 -12.8706 -19.972 -6.45902 -12.8706 -20.9585 
1.01046 -12.8706 -21.0007 8.47994 -12.8706 -20.5226 15.9494 -12.8706 -20.9965 
23.4189 -12.8706 -21.8726 30.8884 -12.8706 -22.1235 38.3579 -12.8706 -21.0148 
45.8273 -12.8706 -16.7237 -43.8064 -5.40117 -17.895 -36.3369 -5.40117 -20.4358 
-28.8675 -5.40117 -20.7749 -21.398 -5.40117 -19.9788 -13.9285 -5.40117 -20.7231 
-6.45902 -5.40117 -22.0297 1.01046 -5.40117 -21.4427 8.47994 -5.40117 -21.6116 
15.9494 -5.40117 -20.7132 23.4189 -5.40117 -21.4964 30.8884 -5.40117 -22.0037 
38.3579 -5.40117 -21.3851 45.8273 -5.40117 -18.5219 -43.8064 2.06831 -17.0417 
-36.3369 2.06831 -19.8406 -28.8675 2.06831 -20.34 -21.398 2.06831 -19.8081 
-13.9285 2.06831 -21.2288 -6.45902 2.06831 -22.1056 1.01046 2.06831 -20.4368 
8.47994 2.06831 -21.9502 15.9494 2.06831 -20.6987 23.4189 2.06831 -21.2229 
30.8884 2.06831 -21.7063 38.3579 2.06831 -21.0119 45.8273 2.06831 -17.9646 
-36.3369 9.53779 -18.5622 -28.8675 9.53779 -19.65 -21.398 9.53779 -19.9531 
-13.9285 9.53779 -20.4405 -6.45902 9.53779 -21.319 1.01046 9.53779 -20.8023 
8.47994 9.53779 -21.4355 15.9494 9.53779 -20.8696 23.4189 9.53779 -21.0392 
30.8884 9.53779 -20.705 38.3579 9.53779 -19.3238 45.8273 9.53779 -15.1358 
-36.3369 17.0073 -17.8217 -28.8675 17.0073 -19.0427 -21.398 17.0073 -19.9303 
-13.9285 17.0073 -20.4784 -6.45902 17.0073 -20.9177 1.01046 17.0073 -21.6416 
8.47994 17.0073 -22.0506 15.9494 17.0073 -21.4417 23.4189 17.0073 -20.2325 
30.8884 17.0073 -18.5533 38.3579 17.0073 -15.2471 -36.3369 24.4768 -15.1562 
-28.8675 24.4768 -18.2507 -21.398 24.4768 -19.5783 -13.9285 24.4768 -20.1847 
-6.45902 24.4768 -20.5099 1.01046 24.4768 -20.8291 8.47994 24.4768 -21.5303 
15.9494 24.4768 -20.5938 23.4189 24.4768 -18.2761 -28.8675 31.9462 -15.1199 
-21.398 31.9462 -17.1407 -13.9285 31.9462 -17.898 -6.45902 31.9462 -18.0632 
1.01046 31.9462 -17.7356 8.47994 31.9462 -17.5511 15.9494 31.9462 -15.8629 
-21.398 -36.2777 -15.1062 -13.9285 -38.4878 -15.1062 -6.45902 -40.7344 -15.1062 
1.01046 -41.0394 -15.1062 1.01046 -42.7486 -7.91329 8.47994 -40.2538 -15.1062 
15.9494 -38.8444 -15.1062 23.4189 -36.1744 -15.1062 -23.9386 -35.2791 -15.1062 
-28.8675 -32.4822 -15.1062 -28.8675 -35.2791 -11.2422 25.4116 -35.2791 -15.1062 
30.8884 -32.359 -15.1062 -34.4195 -27.8096 -15.1062 -36.3369 -26.1396 -15.1062 
-36.3369 -27.8096 -13.7636 36.6069 -27.8096 -15.1062 38.3579 -25.9708 -15.1062 
38.3579 -27.8096 -10.6529 -43.3487 -20.3401 -15.1062 -43.8064 -19.2965 -15.1062 
-43.8064 -20.3401 -14.6914 43.0032 -20.3401 -15.1062 45.8273 -15.7709 -15.1062 
-45.6359 -12.8706 -15.1062 47.2923 -12.8706 -15.1062 -46.942 -5.40117 -15.1062 
-51.2759 -5.40117 -7.78093 49.6635 -5.40117 -15.1062 -45.9697 2.06831 -15.1062 
-43.8064 9.49392 -15.1062 48.9723 2.06831 -15.1062 -43.7862 9.53779 -15.1062 
-43.8064 9.53779 -15.0919 45.8573 9.53779 -15.1062 45.8273 9.58023 -15.1062 
-41.5113 17.0073 -15.1062 -43.8064 17.0073 -12.4172 30.8884 22.8263 -15.1062 
38.5726 17.0073 -15.1062 38.3579 17.1871 -15.1062 -36.4035 24.4768 -15.1062 
-36.3369 24.5696 -15.1062 28.9981 24.4768 -15.1062 23.4189 28.5914 -15.1062 
30.8884 24.4768 -12.8655 -28.8919 31.9462 -15.1062 -36.3369 31.9462 -8.05166 
-28.8675 31.9605 -15.1062 -21.398 34.6173 -15.1062 -13.9285 35.7844 -15.1062 
-6.45902 35.6797 -15.1062 1.01046 34.8474 -15.1062 8.47994 34.1455 -15.1062 
17.4305 31.9462 -15.1062 15.9494 32.5685 -15.1062 1.01046 -42.799 -7.63672 
-28.8675 -36.7692 -7.63672 -21.398 -39.4802 -7.63672 -13.9285 -41.3722 -7.63672 
-0.681382 -42.7486 -7.63672 -6.45902 -42.5761 -7.63672 1.36065 -42.7486 -7.63672 
1.01046 -42.7486 -7.47056 8.47994 -41.7164 -7.63672 15.9494 -39.6702 -7.63672 
23.4189 -37.1622 -7.63672 -31.8146 -35.2791 -7.63672 -36.3369 -32.6479 -7.63672 
27.8551 -35.2791 -7.63672 23.4189 -35.2791 -2.11839 30.8884 -33.8767 -7.63672 
38.3579 -28.661 -7.63672 -42.155 -27.8096 -7.63672 -43.8064 -25.9312 -7.63672 
39.3201 -27.8096 -7.63672 38.3579 -27.8096 -4.16299 -47.7302 -20.3401 -7.63672 
45.8013 -20.3401 -7.63672 45.8273 -20.3019 -7.63672 -50.5328 -12.8706 -7.63672 
-51.2759 -5.96766 -7.63672 50.2137 -12.8706 -7.63672 -51.3339 -5.40117 -7.63672 
-51.2759 -4.8977 -7.63672 -51.2759 -5.40117 -5.7171 52.9759 -5.40117 -7.63672 
-50.4647 2.06831 -7.63672 52.6658 2.06831 -7.63672 -48.8305 9.53779 -7.63672 
50.1453 9.53779 -7.63672 45.8273 15.4786 -7.63672 -46.1364 17.0073 -7.63672 
-43.8064 21.991 -7.63672 44.3549 17.0073 -7.63672 38.3579 21.9316 -7.63672 
45.8273 17.0073 -1.85367 -42.5552 24.4768 -7.63672 23.4189 31.3489 -7.63672 
34.6947 24.4768 -7.63672 30.8884 26.9745 -7.63672 -36.593 31.9462 -7.63672 
-36.3369 32.1959 -7.63672 -28.8675 36.6012 -7.63672 -21.398 38.5775 -7.63672 
-13.9285 39.2255 -7.63672 -6.45902 39.3748 -7.63672 1.01046 38.5068 -7.63672 
8.47994 37.0313 -7.63672 22.2767 31.9462 -7.63672 15.9494 34.9363 -7.63672 
23.4189 31.9462 -0.410912 -6.45902 39.4157 -0.547937 -28.8675 -36.2985 -0.167245 
-21.398 -37.8787 -0.167245 -13.9285 -39.1357 -0.167245 -6.45902 -40.0611 -0.167245 
1.01046 -40.0094 -0.167245 8.47994 -38.863 -0.167245 15.9494 -36.6534 -0.167245 
-31.2232 -35.2791 -0.167245 -36.3369 -32.4451 -0.167245 -28.8675 -35.2791 1.74533 
-21.398 -35.2791 4.38672 -13.9285 -35.2791 5.75137 -6.45902 -35.2791 5.88288 
1.01046 -35.2791 5.89207 8.47994 -35.2791 4.71014 20.8333 -35.2791 -0.167245 
15.9494 -35.2791 1.82145 23.4189 -34.4996 -0.167245 30.8884 -31.2215 -0.167245 
-42.1376 -27.8096 -0.167245 -43.8064 -25.9713 -0.167245 36.667 -27.8096 -0.167245 
30.8884 -27.8096 4.98786 38.3579 -26.6607 -0.167245 -47.4479 -20.3401 -0.167245 
-43.8064 -20.3401 7.18867 44.3998 -20.3401 -0.167245 45.8273 -18.3487 -0.167245 
-50.3189 -12.8706 -0.167245 49.1005 -12.8706 -0.167245 45.8273 -12.8706 6.3964 
-51.0894 -5.40117 -0.167245 52.6455 -5.40117 -0.167245 -50.0149 2.06831 -0.167245 
52.8818 2.06831 -0.167245 -48.3755 9.53779 -0.167245 51.004 9.53779 -0.167245 
-45.3687 17.0073 -0.167245 -43.8064 21.3685 -0.167245 -43.8064 17.0073 3.52503 
38.3579 23.5106 -0.167245 46.2172 17.0073 -0.167245 45.8273 17.4238 -0.167245 
45.8273 17.0073 6.17642 -42.5785 24.4768 -0.167245 36.9066 24.4768 -0.167245 
30.8884 28.1557 -0.167245 -36.9326 31.9462 -0.167245 -36.3369 32.5209 -0.167245 
-36.3369 31.9462 0.884443 -28.8675 36.3724 -0.167245 -21.398 38.1739 -0.167245 
-13.9285 38.99 -0.167245 1.01046 39.0627 -0.167245 8.47994 37.7692 -0.167245 
15.9494 35.3305 -0.167245 23.4573 31.9462 -0.167245 23.4189 31.9661 -0.167245 
-6.49628 39.4157 -0.167245 -6.4144 39.4157 -0.167245 -6.45902 39.4178 -0.167245 
-6.45902 39.4157 -0.156533 -36.3369 -28.2304 7.30224 -28.8675 -32.0155 7.30224 
-21.398 -33.4952 7.30224 -13.9285 -34.1067 7.30224 -6.45902 -34.0181 7.30224 
1.01046 -33.9705 7.30224 8.47994 -32.872 7.30224 15.9494 -30.8619 7.30224 
23.4189 -29.1153 7.30224 -36.8541 -27.8096 7.30224 -36.3369 -27.8096 7.83338 
-28.8675 -27.8096 12.5058 -21.398 -27.8096 14.1948 -13.9285 -27.8096 14.1227 
-6.45902 -27.8096 13.5195 1.01046 -27.8096 12.8984 8.47994 -27.8096 11.6081 
15.9494 -27.8096 10.3007 26.9141 -27.8096 7.30224 23.4189 -27.8096 8.78194 
30.8884 -26.1103 7.30224 38.3579 -21.1116 7.30224 -43.7367 -20.3401 7.30224 
-43.8064 -20.2004 7.30224 -36.3369 -20.3401 14.4988 30.8884 -20.3401 12.9011 
39.1542 -20.3401 7.30224 38.3579 -20.3401 8.10184 -46.6277 -12.8706 7.30224 
-43.8064 -12.8706 11.3155 45.2539 -12.8706 7.30224 38.3579 -12.8706 13.9121 
45.8273 -11.8829 7.30224 -47.3842 -5.40117 7.30224 -43.8064 -5.40117 12.928 
48.9929 -5.40117 7.30224 45.8273 -5.40117 11.4919 -46.574 2.06831 7.30224 
-43.8064 2.06831 11.8993 50.3768 2.06831 7.30224 45.8273 2.06831 14.363 
-44.8807 9.53779 7.30224 -43.8064 12.6152 7.30224 -43.8064 9.53779 9.09191 
49.5741 9.53779 7.30224 45.8273 16.8979 7.30224 45.8273 9.53779 14.661 
-42.2805 17.0073 7.30224 45.7597 17.0073 7.30224 38.3579 23.7448 7.30224 
-38.8611 24.4768 7.30224 -36.3369 27.774 7.30224 -36.3369 24.4768 10.9663 
37.3404 24.4768 7.30224 30.8884 28.5105 7.30224 -31.4236 31.9462 7.30224 
-28.8675 33.4721 7.30224 -28.8675 31.9462 9.93738 -21.398 35.9235 7.30224 
-13.9285 36.9424 7.30224 -6.45902 37.9354 7.30224 1.01046 38.5948 7.30224 
8.47994 38.0185 7.30224 15.9494 35.6013 7.30224 23.8482 31.9462 7.30224 
23.4189 32.1629 7.30224 23.4189 31.9462 9.12221 -28.8675 -25.1677 14.7717 
-21.398 -27.1877 14.7717 -13.9285 -27.1341 14.7717 -6.45902 -26.5189 14.7717 
1.01046 -25.3896 14.7717 8.47994 -23.0659 14.7717 15.9494 -21.6369 14.7717 
23.4189 -20.7278 14.7717 -35.8795 -20.3401 14.7717 -36.3369 -19.8902 14.7717 
-28.8675 -20.3401 18.0864 -21.398 -20.3401 19.5483 -13.9285 -20.3401 20.0292 
-6.45902 -20.3401 20.0016 1.01046 -20.3401 18.556 8.47994 -20.3401 16.4594 
15.9494 -20.3401 15.5997 24.514 -20.3401 14.7717 23.4189 -20.3401 15.045 
30.8884 -17.5165 14.7717 -40.6802 -12.8706 14.7717 -36.3369 -12.8706 18.2193 
-28.8675 -12.8706 21.2712 -21.398 -12.8706 22.1448 8.47994 -12.8706 21.5522 
15.9494 -12.8706 20.3708 23.4189 -12.8706 19.1445 36.7725 -12.8706 14.7717 
30.8884 -12.8706 17.2724 38.3579 -11.3212 14.7717 -42.2788 -5.40117 14.7717 
[...]
POINT_DATA 494
SCALARS ImageScalars float
LOOKUP_TABLE default
0 0 0 0 0 0 0 0 0 
0 0 0 0 0 0 0 0 0 
0 0 0 0 0 0 0 0 0 
0 0 0 0 0 0 0 0 0 
0 0 0 0 0 0 0 0 0 
0 0 0 0 0 0 0 0 0 
0 0 0 0 0 0 0 0 0 
0 0 0 0 0 0 0 0 0 
0 0 0 0 0 0 0 0 0 
0 0 0 0 0 0 0 0 0 
0 0 0 0 0 0 0 0 0 
0 0 0 0 0 0 0 0 0 
0 0 0 0 0 0 0 0 0 
0 0 0 0 0 0 0 0 0 
0 0 0 0 0 0 0 0 0 
0 0 0 0 0 0 0 0 0 
0 0 0 0 0 0 0 0 0 
0 0 0 0 0 0 0 0 0 
0 0 0 0 0 0 0 0 0 
0 0 0 0 0 0 0 0 0 
0 0 0 0 0 0 0 0 0 
0 0 0 0 0 0 0 0 0 
0 0 0 0 0 0 0 0 0 
0 0 0 0 0 0 0 0 0 
0 0 0 0 0 0 0 0 0 
0 0 0 0 0 0 0 0 0 
0 0 0 0 0 0 0 0 0 
0 0 0 0 0 0 0 0 0 
0 0 0 0 0 0 0 0 0 
0 0 0 0 0 0 0 0 0 
0 0 0 0 0 0 0 0 0 
0 0 0 0 0 0 0 0 0 
0 0 0 0 0 0 0 0 0 
0 0 0 0 0 0 0 0 0 
0 0 0 0 0 0 0 0 0 
0 0 0 0 0 0 0 0 0 
0 0 0 0 0 0 0 0 0 
0 0 0 0 0 0 0 0 0 
0 0 0 0 0 0 0 0 0 
0 0 0 0 0 0 0 0 0 
0 0 0 0 0 0 0 0 0 
0 0 0 0 0 0 0 0 0 
0 0 0 0 0 0 0 0 0 
0 0 0 0 0 0 0 0 0 
0 0 0 0 0 0 0 0 0 
0 0 0 0 0 0 0 0 0 
0 0 0 0 0 0 0 0 0 
0 0 0 0 0 0 0 0 0 
0 0 0 0 0 0 0 0 0 
0 0 0 0 0 0 0 0 0 
0 0 0 0 0 0 0 0 0 
0 0 0 0 0 0 0 0 0 
0 0 0 0 0 0 0 0 0 
0 0 0 0 0 0 0 0 0 
0 0 0 0 0 0 0 0 
NORMALS Normals float
0.264316 0.604644 0.75136 0.217823 0.504912 0.835235 0.134628 0.446068 0.884815 
0.0220532 0.457839 0.888762 -0.052591 0.497223 0.866027 -0.184703 0.610655 0.770056 
-0.364983 0.771981 0.520416 0.261504 0.35366 0.898076 0.178147 0.244732 0.953084 
0.160258 0.152309 0.975254 0.0981791 0.133548 0.986167 0.0207721 0.0977788 0.994991 
-0.00177876 0.118606 0.99294 -0.0670576 0.153104 0.985932 -0.170379 0.302817 0.937696 
-0.375407 0.484916 0.78989 0.274438 0.294511 0.915395 0.135957 0.171991 0.975671 
0.0733937 0.0848131 0.99369 0.0896048 -0.0243967 0.995679 0.0728202 -0.0148578 0.997234 
0.00895447 -0.0572217 0.998321 0.0179923 -0.0647326 0.99774 0.00772729 -0.0550372 0.998454 
-0.0529737 0.0828732 0.995151 -0.180909 0.18135 0.966636 -0.468507 0.371142 0.80172 
0.542685 0.179524 0.820526 0.18867 0.167421 0.967664 0.0289406 0.0960535 0.994955 
-0.0134386 -0.00352788 0.999904 0.0582106 0.0166604 0.998165 0.0697803 0.0431937 0.996627 
-0.0293072 -0.00544375 0.999556 -0.00194174 0.00248854 0.999995 0.0923769 -0.0719755 0.993119 
0.0715374 -0.00769754 0.997408 -0.0489251 0.0716925 0.996226 -0.307261 0.175845 0.935237 
-0.679456 0.313316 0.663455 0.519808 0.0182862 0.854087 0.149016 0.0147089 0.988725 
-0.0329218 0.0111229 0.999396 -0.00564722 -0.018156 0.999819 0.142437 0.0879988 0.985884 
0.0439479 0.0774959 0.996024 -0.0283441 -0.0365119 0.998931 -0.0506418 0.0987097 0.993827 
-0.00404618 -0.0189399 0.999812 0.0861152 -0.043076 0.995354 -0.0080884 -0.027633 0.999585 
-0.200029 -0.00338217 0.979784 -0.566044 0.0604213 0.822158 0.544534 -0.150783 0.825074 
0.17321 -0.114481 0.978209 -0.00511343 -0.0749822 0.997172 0.0584292 -0.00174592 0.99829 
0.155635 -0.0211817 0.987588 -0.0540195 -0.0482097 0.997375 -0.00594435 -0.0444048 0.998996 
0.0166322 -0.0134014 0.999772 -0.047725 0.010479 0.998806 0.0676149 -0.0305919 0.997242 
-0.0146151 -0.0824602 0.996487 -0.214642 -0.122215 0.969016 -0.570408 -0.176172 0.802246 
0.254428 -0.133961 0.957769 0.0870296 -0.0862449 0.992465 0.0516585 0.00805547 0.998632 
0.0916808 -0.0503008 0.994517 0.024203 -0.076992 0.996738 0.00873606 0.0795118 0.996796 
0.00432361 0.0074708 0.999963 -0.0268271 0.04949 0.998414 -0.00981949 -0.0677845 0.997652 
-0.104754 -0.204832 0.973175 -0.307221 -0.347652 0.885863 -0.631677 -0.431884 0.643786 
0.320255 -0.181463 0.929789 0.141815 -0.0873779 0.986029 0.0948022 -0.0240824 0.995205 
0.065892 -0.0180827 0.997663 0.0764969 -0.0524548 0.995689 0.076622 0.0034109 0.997054 
-0.0137474 0.00928768 0.999862 -0.122791 -0.0151498 0.992317 -0.182067 -0.161419 0.969946 
-0.297726 -0.372181 0.879113 -0.47723 -0.562723 0.674977 0.491902 -0.402924 0.771806 
0.253848 -0.212593 0.943592 0.123955 -0.167049 0.978126 0.0586677 -0.156774 0.985891 
0.0441191 -0.178849 0.982887 0.0637921 -0.228828 0.971374 -0.013842 -0.245227 0.969367 
-0.197313 -0.295491 0.934747 -0.392075 -0.44097 0.807355 0.357556 -0.59675 0.718362 
0.155791 -0.498909 0.852537 0.0564675 -0.478061 0.87651 -0.00893297 -0.504084 0.863608 
-0.031516 -0.584903 0.81049 -0.0968788 -0.686125 0.721004 -0.279843 -0.765909 0.578854 
0.277441 0.665292 0.693118 0.245393 0.741952 0.623931 0.131648 0.819544 0.557688 
-0.030472 0.850186 0.5256 -0.0566339 0.997467 -0.0430328 -0.136685 0.849926 0.508864 
-0.252489 0.860821 0.441855 -0.375051 0.816807 0.438364 0.31438 0.655254 0.686882 
0.369105 0.591487 0.716871 0.417204 0.825032 0.381134 -0.404056 0.807034 0.430622 
-0.483312 0.751989 0.448243 0.425826 0.509742 0.747553 0.432301 0.502403 0.748804 
0.500511 0.590776 0.63283 -0.607215 0.639417 0.471631 -0.628669 0.599792 0.495 
-0.660411 0.728922 0.180361 0.591974 0.381301 0.710053 0.60699 0.356086 0.710469 
0.625422 0.393626 0.673725 -0.691263 0.475065 0.54449 -0.734561 0.400366 0.547839 
0.630598 0.181224 0.754655 -0.744522 0.343338 0.572544 0.683809 0.0127033 0.72955 
0.981583 -0.00618678 0.190937 -0.765461 0.102469 0.635271 0.66085 -0.15371 0.734609 
0.61336 -0.203397 0.763164 -0.723015 -0.197183 0.662094 0.61269 -0.203426 0.763694 
0.614281 -0.20396 0.762272 -0.632865 -0.432161 0.642432 -0.632157 -0.433437 0.64227 
0.59856 -0.268231 0.754836 0.797582 -0.330063 0.504898 -0.478887 -0.589935 0.650111 
-0.483603 -0.566564 0.667183 -0.481563 -0.568585 0.66694 0.494395 -0.40427 0.769506 
0.493215 -0.405914 0.769398 -0.492754 -0.606722 0.623765 -0.45399 -0.684443 0.570465 
-0.523331 -0.690548 0.499267 0.358344 -0.596983 0.717775 0.637044 -0.725497 0.260439 
0.35767 -0.597499 0.717681 0.191775 -0.663437 0.723238 0.0504403 -0.716051 0.696224 
-0.0514136 -0.720045 0.69202 -0.0867829 -0.74148 0.665339 -0.135407 -0.801158 0.582933 
-0.320935 -0.78592 0.528517 -0.285075 -0.796023 0.533928 -0.0568768 0.996546 -0.0605081 
0.404576 0.901835 0.151697 0.293083 0.95395 0.063888 0.203113 0.979155 -0.000839766 
-0.022688 0.998049 -0.0581624 0.0944754 0.994321 -0.0489885 -0.063631 0.996072 -0.0615833 
-0.0574333 0.995971 -0.0688645 -0.202295 0.975838 -0.0825657 -0.291553 0.9486 -0.123109 
-0.350651 0.93126 -0.098984 0.460145 0.870385 0.175202 0.56096 0.795771 0.228195 
-0.432732 0.897863 -0.0811498 -0.312775 0.879115 -0.359623 -0.491265 0.868435 -0.0669375 
-0.643411 0.765487 0.0072205 0.701519 0.672342 0.236278 0.749044 0.623925 0.222824 
-0.663478 0.748087 0.0127755 -0.623839 0.766055 -0.154867 0.857229 0.474082 0.201007 
-0.815974 0.57538 0.0558972 -0.8166 0.574474 0.0560713 0.95588 0.213044 0.202251 
0.982967 0.0091846 0.183552 -0.908298 0.40797 0.0924953 0.983233 -0.0064432 0.182241 
0.983231 -0.0159607 0.181663 0.99707 -0.0100909 0.0758288 -0.972977 0.166031 0.160468 
0.971242 -0.157333 0.178707 -0.965377 -0.165238 0.201849 0.935869 -0.287057 0.204321 
-0.860928 -0.432439 0.267952 -0.705709 -0.646249 0.290408 0.913109 -0.371471 0.168054 
0.874694 -0.441011 0.201048 -0.661521 -0.689255 0.295495 -0.564744 -0.774215 0.285755 
-0.729446 -0.674601 0.113238 0.840079 -0.489689 0.233391 -0.470145 -0.869277 0.152709 
-0.542353 -0.797452 0.26443 -0.525333 -0.81695 0.237947 0.644115 -0.727733 0.235627 
0.635448 -0.73525 0.235825 0.354434 -0.911269 0.209678 0.165433 -0.974443 0.151961 
0.0515353 -0.989266 0.136737 -0.0458229 -0.982233 0.181987 -0.152372 -0.962437 0.224716 
-0.230844 -0.949931 0.210577 -0.451846 -0.87981 0.147545 -0.342618 -0.926119 0.157853 
-0.444112 -0.894469 0.0518596 0.00216754 -0.996515 -0.0833847 0.302416 0.912868 -0.274256 
0.173508 0.920784 -0.349358 0.125959 0.897677 -0.422268 0.0532252 0.877454 -0.476698 
-0.0687673 0.866627 -0.494195 -0.190252 0.852171 -0.487451 -0.253785 0.833448 -0.490875 
0.37246 0.889908 -0.263321 0.543668 0.806836 -0.231172 0.290699 0.891508 -0.347431 
0.141084 0.866732 -0.478405 0.0524037 0.80265 -0.594144 0.00554915 0.748959 -0.662593 
-0.0491615 0.739773 -0.671059 -0.166678 0.75822 -0.630334 -0.274576 0.840382 -0.467297 
-0.24008 0.807796 -0.538356 -0.290394 0.841764 -0.455088 -0.417566 0.811013 -0.409751 
0.691489 0.686003 -0.226367 0.751437 0.620585 -0.224091 -0.536258 0.760241 -0.366688 
-0.386973 0.756414 -0.527342 -0.58359 0.731705 -0.35218 0.868134 0.447622 -0.214424 
0.736848 0.461365 -0.494162 -0.746484 0.59048 -0.30675 -0.784646 0.545375 -0.294784 
0.949326 0.210773 -0.233143 -0.849906 0.45231 -0.270324 -0.737332 0.460697 -0.494065 
0.968799 -0.0202213 -0.247022 -0.937718 0.246915 -0.244374 0.9574 -0.159614 -0.240641 
-0.983912 -0.10883 -0.141679 0.929861 -0.277126 -0.24199 -0.933119 -0.357694 -0.0366578 
0.917014 -0.327966 -0.226989 0.894557 -0.389494 -0.219231 0.88403 -0.325651 -0.335323 
-0.556112 -0.8254 0.0972346 -0.743112 -0.666236 0.0625638 -0.734221 -0.675814 0.064763 
-0.780749 -0.609735 -0.136577 0.862679 -0.460289 -0.20957 -0.53757 -0.837392 0.0989615 
-0.478409 -0.873694 0.0882259 0.657503 -0.727303 -0.196777 0.633195 -0.747773 -0.19975 
0.63768 -0.730553 -0.244247 0.31591 -0.928816 -0.193654 0.159761 -0.970132 -0.182536 
0.0764468 -0.985915 -0.148756 -0.104869 -0.994476 0.00450665 -0.240331 -0.96852 0.0648871 
-0.361733 -0.931282 0.0431596 -0.443296 -0.895046 0.0488075 -0.443146 -0.895125 0.0487062 
0.00511794 -0.99519 -0.0978337 0.00409062 -0.995279 -0.0969648 0.00475789 -0.995218 -0.0975673 
0.0049077 -0.995201 -0.0977329 0.520393 0.6884 -0.505269 0.272034 0.788972 -0.550927 
0.114395 0.818317 -0.563268 0.0298415 0.776387 -0.62955 -0.00674818 0.727791 -0.685766 
-0.0516237 0.711657 -0.700628 -0.150128 0.700768 -0.697413 -0.184498 0.716267 -0.672995 
-0.22817 0.744859 -0.626995 0.534668 0.678098 -0.504295 0.520857 0.679706 -0.516438 
0.264086 0.682219 -0.681788 0.0734102 0.685598 -0.724269 -0.0316524 0.700406 -0.713042 
-0.0592951 0.701008 -0.710684 -0.0976279 0.638706 -0.763232 -0.131155 0.59734 -0.791191 
-0.142297 0.659362 -0.738236 -0.295781 0.738727 -0.605638 -0.213855 0.722338 -0.657642 
-0.374782 0.714739 -0.590497 -0.550181 0.612611 -0.567459 0.733533 0.46169 -0.498771 
0.736881 0.456694 -0.498434 0.481828 0.477147 -0.734964 -0.326149 0.56795 -0.755685 
-0.569536 0.598595 -0.563304 -0.54784 0.59842 -0.584607 0.840822 0.199021 -0.503397 
0.767564 0.220892 -0.601708 -0.71301 0.463694 -0.525932 -0.489856 0.447004 -0.748484 
-0.731265 0.442271 -0.519275 0.875181 -0.00558423 -0.483764 0.789358 0.0271327 -0.613333 
-0.81274 0.286174 -0.507502 -0.721095 0.321537 -0.613707 0.873928 -0.150453 -0.462184 
0.815176 -0.140973 -0.561796 -0.905432 0.0251442 -0.423746 -0.728788 0.127802 -0.672707 
0.854536 -0.249448 -0.45557 0.848799 -0.284132 -0.445881 0.834714 -0.252111 -0.489584 
-0.922137 -0.235469 -0.306949 -0.787126 -0.591262 -0.175616 -0.795594 -0.134071 -0.59081 
0.833372 -0.326666 -0.445848 -0.783373 -0.597001 -0.172963 -0.589848 -0.805251 -0.0604179 
0.750919 -0.474288 -0.459534 0.661263 -0.587909 -0.465935 0.685998 -0.490925 -0.537028 
-0.570097 -0.819957 -0.0515739 -0.473156 -0.87995 -0.0425515 0.484723 -0.760054 -0.432852 
0.404558 -0.81759 -0.409731 0.434894 -0.767349 -0.471214 0.204285 -0.916248 -0.344611 
0.133343 -0.949604 -0.283676 0.109549 -0.971968 -0.20803 0.00605735 -0.995258 -0.0970821 
-0.188355 -0.981579 -0.0320146 -0.368162 -0.929172 -0.0331078 -0.439437 -0.89737 -0.0402827 
-0.438219 -0.897952 -0.0405691 -0.43906 -0.892257 -0.10538 0.270496 0.597534 -0.754841 
0.0764904 0.665583 -0.742394 -0.0304155 0.685355 -0.727574 -0.071532 0.686128 -0.723956 
-0.134079 0.611335 -0.779931 -0.140728 0.531115 -0.835531 -0.0863974 0.547829 -0.832117 
-0.138408 0.559201 -0.817397 0.467519 0.476434 -0.744605 0.481811 0.464557 -0.742997 
0.278613 0.467859 -0.838739 0.110373 0.444531 -0.888937 0.0281772 0.483243 -0.875033 
-0.0772177 0.54895 -0.832281 -0.198382 0.550306 -0.811054 -0.15503 0.521954 -0.838767 
-0.0798375 0.533935 -0.841748 -0.162164 0.552834 -0.81736 -0.136766 0.551224 -0.823072 
-0.308145 0.49621 -0.811679 0.646387 0.251103 -0.720508 0.49077 0.274863 -0.826798 
0.228392 0.273087 -0.934484 0.100143 0.255113 -0.961711 -0.149773 0.549895 -0.821695 
-0.13831 0.518332 -0.843921 -0.177014 0.415921 -0.892006 -0.440755 0.436944 -0.784101 
-0.293241 0.411056 -0.863159 -0.475439 0.418477 -0.773844 0.731444 0.0412909 -0.680651 
0.514303 0.0673929 -0.854956 -0.247152 0.322541 -0.913719 -0.282293 0.32417 -0.902898 
-0.578821 0.331189 -0.745171 -0.438243 0.330042 -0.836071 0.743675 -0.127012 -0.656365 
0.554258 -0.0806568 -0.828428 -0.709079 0.134891 -0.692107 -0.457911 0.204875 -0.865069 
0.721876 -0.227796 -0.653455 0.608697 -0.197514 -0.768424 0.346635 -0.137671 -0.927842 
-0.791691 -0.131321 -0.59664 -0.456611 -0.0294691 -0.889178 0.690134 -0.302569 -0.657394 
0.670901 -0.342548 -0.657688 0.661916 -0.298766 -0.687463 0.409858 -0.237757 -0.880618 
-0.728061 -0.47182 -0.497305 -0.629917 -0.651718 -0.422455 -0.568935 -0.392038 -0.722924 
0.577357 -0.483384 -0.658026 0.464625 -0.607495 -0.644261 0.467408 -0.465304 -0.751679 
0.308231 -0.407322 -0.859699 -0.427435 -0.841282 -0.330974 -0.240903 -0.454478 -0.857564 
-0.556386 -0.741541 -0.374903 -0.479624 -0.801418 -0.357338 -0.437653 -0.664535 -0.605684 
0.307911 -0.753572 -0.580792 0.295542 -0.762261 -0.575858 0.297375 -0.751878 -0.588428 
0.239396 -0.845685 -0.476976 0.26317 -0.731491 -0.629018 0.205067 -0.905816 -0.370736 
0.223681 -0.643807 -0.731764 0.0719222 -0.944407 -0.320816 -0.171898 -0.935993 -0.307193 
-0.175686 -0.546296 -0.81896 -0.42076 -0.847067 -0.324713 -0.37333 -0.863955 -0.337944 
-0.352155 -0.724814 -0.592141 0.0850047 0.333258 -0.938996 -0.0287185 0.413628 -0.909993 
-0.146197 0.398039 -0.905644 0.238489 0.151567 -0.959245 0.0996118 0.25953 -0.960584 
0.102269 0.248074 -0.963328 0.0983335 0.2913 -0.951565 0.000274182 0.322686 -0.946506 
-0.14197 0.466618 -0.87299 -0.126122 0.361562 -0.923778 -0.132657 0.515079 -0.846815 
-0.183678 0.447895 -0.875016 0.279757 0.0952502 -0.955334 0.245248 0.10128 -0.964155 
0.138057 0.149461 -0.979082 0.119015 0.220006 -0.968211 -0.00751015 0.216621 -0.976227 
0.0022467 0.165004 -0.98629 -0.00881193 0.254568 -0.967015 -0.246807 0.322881 -0.913693 
-0.213181 0.330146 -0.919542 -0.246811 0.320437 -0.914552 -0.279564 0.212138 -0.936398 
0.344697 -0.0442237 -0.937672 0.334887 -0.114251 -0.935306 0.298921 -0.0386841 -0.953494 
0.212334 0.0312893 -0.976696 0.167636 0.0751039 -0.982984 -0.0520714 0.108855 -0.992693 
-0.0666748 0.0883139 -0.993859 0.0214804 -0.0112831 -0.999706 -0.105304 0.044034 -0.993465 
-0.204326 0.176433 -0.962872 -0.297629 0.196514 -0.934237 -0.278036 0.194746 -0.940622 
0.335914 -0.130862 -0.932758 0.247389 -0.0772977 -0.965828 0.200042 -0.0890576 -0.975731 
0.00306652 -0.042698 -0.999083 -0.11713 0.0565906 -0.991503 -0.0506311 -0.0457795 -0.997668 
-0.023651 -0.0648189 -0.997617 -0.111953 -0.0019957 -0.993712 -0.348136 0.00643612 -0.937422 
-0.259846 0.022869 -0.965379 0.318884 -0.202601 -0.925887 0.284489 -0.29488 -0.912202 
0.262117 -0.18446 -0.947243 0.202913 -0.172338 -0.963912 0.0937695 -0.129229 -0.987171 
-0.0720687 -0.0275011 -0.99702 -0.0993271 -0.036385 -0.994389 -0.0606371 -0.118715 -0.991075 
-0.224026 -0.419233 -0.879805 -0.122289 -0.188839 -0.974364 -0.347275 -0.248979 -0.904107 
-0.325116 -0.310102 -0.893385 -0.294434 -0.222432 -0.929426 0.27015 -0.374214 -0.887121 
0.249518 -0.428432 -0.868439 0.239098 -0.349889 -0.905765 0.21072 -0.534036 -0.818781 
0.159387 -0.301133 -0.940168 -0.01863 -0.212042 -0.977083 -0.174996 -0.53763 -0.824821 
-0.151027 -0.184204 -0.971216 -0.224375 -0.423492 -0.877673 -0.22244 -0.424139 -0.877853 
-0.176017 -0.305397 -0.935815 0.0962185 -0.599395 -0.794649 -0.145242 -0.552522 -0.820746 
0.0505631 -0.613409 -0.788145 0.0507745 -0.593099 -0.803527 
