# vtk DataFile Version 4.2
vtk output
ASCII
DATASET POLYDATA
POINTS 494 float
-32.6569 -31.8697 -16.3392 -24.9634 -31.8697 -18.9295 -17.27 -31.8697 -19.7427 
-9.57656 -31.8697 -21.0337 -1.88313 -31.8697 -21.6942 5.81031 -31.8697 -21.1056 
13.5037 -31.8697 -19.0099 21.1972 -31.8697 -16.5052 -40.3503 -24.1763 -17.6943 
-32.6569 -24.1763 -21.0603 -24.9634 -24.1763 -21.7369 -17.27 -24.1763 -22.0476 
-9.57656 -24.1763 -22.3629 -1.88313 -24.1763 -22.6835 5.81031 -24.1763 -22.4911 
13.5037 -24.1763 -22.1078 21.1972 -24.1763 -21.4069 28.8906 -24.1763 -18.9535 
-48.0437 -16.4828 -16.1187 -40.3503 -16.4828 -20.3501 -32.6569 -16.4828 -21.8646 
-24.9634 -16.4828 -22.2583 -17.27 -16.4828 -22.2327 -9.57656 -16.4828 -22.1451 
-1.88313 -16.4828 -21.8085 5.81031 -16.4828 -22.3108 13.5037 -16.4828 -22.3703 
21.1972 -16.4828 -22.1322 28.8906 -16.4828 -21.847 36.584 -16.4828 -20.1306 
44.2775 -16.4828 -16.136 -48.0437 -8.78941 -18.5361 -40.3503 -8.78941 -21.7204 
-32.6569 -8.78941 -22.5554 -24.9634 -8.78941 -22.2551 -17.27 -8.78941 -21.7201 
-9.57656 -8.78941 -22.0292 -1.88313 -8.78941 -21.0583 5.81031 -8.78941 -22.1467 
13.5037 -8.78941 -22.2003 21.1972 -8.78941 -21.5578 28.8906 -8.78941 -21.8984 
36.584 -8.78941 -21.7645 44.2775 -8.78941 -20.4758 51.9709 -8.78941 -15.9185 
-48.0437 -1.09597 -18.8189 -40.3503 -1.09597 -21.9293 -32.6569 -1.09597 -22.575 
-24.9634 -1.09597 -21.6322 -17.27 -1.09597 -21.5151 -9.57656 -1.09597 -23.449 
-1.88313 -1.09597 -21.976 5.81031 -1.09597 -22.9314 13.5037 -1.09597 -21.9949 
21.1972 -1.09597 -21.4386 28.8906 -1.09597 -22.4496 36.584 -1.09597 -22.9629 
44.2775 -1.09597 -22.2008 51.9709 -1.09597 -19.0333 -48.0437 6.59746 -16.8642 
-40.3503 6.59746 -20.7259 -32.6569 6.59746 -21.8931 -24.9634 6.59746 -21.8329 
-17.27 6.59746 -21.3731 -9.57656 6.59746 -22.6236 -1.88313 6.59746 -21.4348 
5.81031 6.59746 -22.0976 13.5037 6.59746 -22.2314 21.1972 6.59746 -21.914 
28.8906 6.59746 -22.642 36.584 6.59746 -23.0378 44.2775 6.59746 -22.2932 
51.9709 6.59746 -19.5418 -40.3503 14.2909 -18.553 -32.6569 14.2909 -20.6998 
-24.9634 14.2909 -21.0656 -17.27 14.2909 -21.2359 -9.57656 14.2909 -21.445 
-1.88313 14.2909 -21.7005 5.81031 14.2909 -22.0794 13.5037 14.2909 -21.7176 
21.1972 14.2909 -21.4254 28.8906 14.2909 -21.6831 36.584 14.2909 -21.3268 
44.2775 14.2909 -18.9286 -32.6569 21.9843 -18.4457 -24.9634 21.9843 -20.0707 
-17.27 21.9843 -20.5264 -9.57656 21.9843 -20.4705 -1.88313 21.9843 -20.2377 
5.81031 21.9843 -19.0775 13.5037 21.9843 -16.5286 -24.9634 29.6778 -17.9173 
-17.27 29.6778 -18.2893 -9.57656 29.6778 -17.659 -32.6569 -32.4048 -15.8124 
-24.9634 -35.1523 -15.8124 -17.27 -36.308 -15.8124 -9.57656 -37.6068 -15.8124 
-1.88313 -38.0073 -15.8124 -1.88313 -39.5631 -9.33527 5.81031 -37.0806 -15.8124 
13.5037 -34.872 -15.8124 21.1972 -32.4134 -15.8124 -33.7845 -31.8697 -15.8124 
-40.3503 -27.2335 -15.8124 22.4127 -31.8697 -15.8124 28.8906 -28.2392 -15.8124 
-43.3823 -24.1763 -15.8124 -48.0437 -17.1297 -15.8124 -48.0437 -24.1763 -8.66291 
35.1434 -24.1763 -15.8124 36.584 -23.0106 -15.8124 36.584 -24.1763 -11.2259 
44.2775 -16.7628 -15.8124 -48.3644 -16.4828 -15.8124 44.6188 -16.4828 -15.8124 
51.9709 -8.92442 -15.8124 -50.9108 -8.78941 -15.8124 52.0716 -8.78941 -15.8124 
-51.3131 -1.09597 -15.8124 -55.7372 -1.09597 -8.72189 55.2085 -1.09597 -15.8124 
-49.1238 6.59746 -15.8124 -48.0437 8.86872 -15.8124 55.7659 6.59746 -15.8124 
51.9709 12.6623 -15.8124 -44.7816 14.2909 -15.8124 -48.0437 14.2909 -11.533 
-40.3503 19.7383 -15.8124 21.1972 21.225 -15.8124 28.8906 21.0201 -15.8124 
36.584 19.639 -15.8124 50.0634 14.2909 -15.8124 44.2775 17.3468 -15.8124 
51.9709 14.2909 -13.4328 -37.9386 21.9843 -15.8124 -40.3503 21.9843 -13.8357 
-32.6569 27.1617 -15.8124 -1.88313 29.3434 -15.8124 5.81031 25.7422 -15.8124 
17.1487 21.9843 -15.8124 13.5037 22.6228 -15.8124 21.1972 21.9843 -14.5562 
28.8906 21.9843 -13.8826 -29.8658 29.6778 -15.8124 -32.6569 29.6778 -13.9613 
-24.9634 32.532 -15.8124 -17.27 33.2278 -15.8124 -2.67741 29.6778 -15.8124 
-9.57656 32.0545 -15.8124 -1.88313 29.6778 -15.4766 5.81031 29.6778 -9.97463 
-24.9634 37.3712 -9.94823 -17.27 37.3712 -11.1096 -9.57656 37.3712 -8.46292 
-1.88313 -39.7942 -8.11896 -32.6569 -35.2557 -8.11896 -24.9634 -37.4618 -8.11896 
-17.27 -38.4813 -8.11896 -4.87755 -39.5631 -8.11896 -9.57656 -39.1994 -8.11896 
-0.251761 -39.5631 -8.11896 -1.88313 -39.5631 -7.38103 5.81031 -38.6328 -8.11896 
13.5037 -36.5772 -8.11896 21.1972 -34.0854 -8.11896 -48.0437 -24.4604 -8.11896 
-39.4826 -31.8697 -8.11896 -40.3503 -31.341 -8.11896 25.6636 -31.8697 -8.11896 
28.8906 -30.2311 -8.11896 36.584 -24.713 -8.11896 -48.2992 -24.1763 -8.11896 
-48.0437 -24.1763 -5.87485 37.2907 -24.1763 -8.11896 36.584 -24.1763 -6.48587 
44.2775 -18.748 -8.11896 -52.9179 -16.4828 -8.11896 47.4241 -16.4828 -8.11896 
51.9709 -12.2722 -8.11896 -55.3028 -8.78941 -8.11896 -55.7372 -4.01059 -8.11896 
54.6065 -8.78941 -8.11896 -56.0021 -1.09597 -8.11896 -55.7372 -0.146386 -8.11896 
58.5562 -1.09597 -8.11896 -53.808 6.59746 -8.11896 58.857 6.59746 -8.11896 
-49.7877 14.2909 -8.11896 -48.0437 17.0298 -8.11896 36.584 21.9775 -8.11896 
44.2775 19.9405 -8.11896 54.0539 14.2909 -8.11896 51.9709 16.2039 -8.11896 
-44.4189 21.9843 -8.11896 -40.3503 26.9917 -8.11896 13.5037 27.1448 -8.11896 
21.1972 25.0404 -8.11896 36.5611 21.9843 -8.11896 28.8906 24.084 -8.11896 
36.584 21.9843 -8.01975 -37.9197 29.6778 -8.11896 -32.6569 34.3293 -8.11896 
-1.88313 34.4395 -8.11896 8.03843 29.6778 -8.11896 5.81031 30.6696 -8.11896 
-27.3514 37.3712 -8.11896 -24.9634 38.4776 -8.11896 -17.27 39.1192 -8.11896 
-9.0907 37.3712 -8.11896 -9.57656 37.5519 -8.11896 -32.6569 -33.0807 -0.42553 
-24.9634 -34.9733 -0.42553 -17.27 -35.9303 -0.42553 -9.57656 -36.875 -0.42553 
-1.88313 -37.1287 -0.42553 5.81031 -36.0356 -0.42553 13.5037 -34.1543 -0.42553 
21.1972 -31.8977 -0.42553 -35.6458 -31.8697 -0.42553 -40.3503 -29.628 -0.42553 
-32.6569 -31.8697 1.68917 -24.9634 -31.8697 4.16976 -17.27 -31.8697 5.64631 
-9.57656 -31.8697 7.11584 5.81031 -31.8697 7.19603 13.5037 -31.8697 4.16233 
21.2541 -31.8697 -0.42553 21.1972 -31.8697 -0.369104 28.8906 -26.8818 -0.42553 
-47.2893 -24.1763 -0.42553 -48.0437 -23.29 -0.42553 33.0291 -24.1763 -0.42553 
28.8906 -24.1763 4.33672 36.584 -22.0278 -0.42553 44.2775 -16.8292 -0.42553 
-52.3027 -16.4828 -0.42553 -48.0437 -16.4828 6.74474 44.8355 -16.4828 -0.42553 
44.2775 -16.4828 0.386413 51.9709 -10.8429 -0.42553 -55.4106 -8.78941 -0.42553 
-55.7372 -3.94701 -0.42553 53.6061 -8.78941 -0.42553 51.9709 -8.78941 3.75626 
-55.9092 -1.09597 -0.42553 -55.7372 -0.309395 -0.42553 -55.7372 -1.09597 -0.0133333 
57.9721 -1.09597 -0.42553 -54.0766 6.59746 -0.42553 58.3075 6.59746 -0.42553 
-50.3837 14.2909 -0.42553 -48.0437 18.1054 -0.42553 -48.0437 14.2909 6.75549 
44.2775 19.8881 -0.42553 53.2286 14.2909 -0.42553 51.9709 15.4549 -0.42553 
51.9709 14.2909 3.89565 -45.3994 21.9843 -0.42553 -40.3503 28.5391 -0.42553 
13.5037 29.5318 -0.42553 21.1972 27.2075 -0.42553 28.8906 24.8967 -0.42553 
38.2923 21.9843 -0.42553 36.584 22.5338 -0.42553 -39.3284 29.6778 -0.42553 
-32.6569 35.5071 -0.42553 -1.88313 35.7786 -0.42553 13.0762 29.6778 -0.42553 
5.81031 32.211 -0.42553 13.5037 29.6778 2.49821 -29.5847 37.3712 -0.42553 
-24.9634 39.6299 -0.42553 -17.27 40.4771 -0.42553 -5.64322 37.3712 -0.42553 
-9.57656 38.9496 -0.42553 -1.88313 -32.5099 7.2679 -40.3503 -24.3105 7.2679 
-32.6569 -28.044 7.2679 -24.9634 -29.6046 7.2679 -17.27 -30.7253 7.2679 
-8.49114 -31.8697 7.2679 -9.57656 -31.7596 7.2679 5.33353 -31.8697 7.2679 
-1.88313 -31.8697 8.15341 5.81031 -31.8265 7.2679 13.5037 -30.2446 7.2679 
21.1972 -27.552 7.2679 -40.5351 -24.1763 7.2679 -40.3503 -24.1763 7.39901 
-32.6569 -24.1763 11.2854 -24.9634 -24.1763 13.6092 26.6028 -24.1763 7.2679 
21.1972 -24.1763 12.9947 28.8906 -22.8166 7.2679 36.584 -18.46 7.2679 
-47.6476 -16.4828 7.2679 -48.0437 -15.8389 7.2679 -40.3503 -16.4828 13.1763 
39.8043 -16.4828 7.2679 36.584 -16.4828 13.8908 44.2775 -13.8195 7.2679 
-51.3267 -8.78941 7.2679 -48.0437 -8.78941 11.0318 50.4608 -8.78941 7.2679 
51.9709 -6.85696 7.2679 -52.1704 -1.09597 7.2679 -48.0437 -1.09597 12.1223 
55.3967 -1.09597 7.2679 -50.9364 6.59746 7.2679 -48.0437 13.859 7.2679 
-48.0437 6.59746 11.1219 55.9455 6.59746 7.2679 51.9709 12.7017 7.2679 
-47.8657 14.2909 7.2679 50.5164 14.2909 7.2679 44.2775 18.3014 7.2679 
-43.0992 21.9843 7.2679 -40.3503 25.5248 7.2679 -40.3503 21.9843 11.4681 
21.1972 28.2479 7.2679 28.8906 25.2279 7.2679 36.7363 21.9843 7.2679 
36.584 22.0513 7.2679 36.584 21.9843 7.94354 -36.5742 29.6778 7.2679 
-32.6569 33.1128 7.2679 -32.6569 29.6778 12.3574 -1.88313 35.478 7.2679 
5.81031 32.0457 7.2679 14.6178 29.6778 7.2679 13.5037 29.9074 7.2679 
13.5037 29.6778 9.91994 -25.6382 37.3712 7.2679 -24.9634 37.7004 7.2679 
-24.9634 37.3712 7.93998 -17.27 39.2343 7.2679 -17.27 37.3712 11.8299 
-7.00055 37.3712 7.2679 -9.57656 38.3043 7.2679 -9.57656 37.3712 10.8536 
-17.27 -24.2928 14.9613 -9.57656 -25.8159 14.9613 -1.88313 -26.4205 14.9613 
5.81031 -25.8267 14.9613 13.5037 -25.0283 14.9613 -32.6569 -19.1321 14.9613 
-17.987 -24.1763 14.9613 -24.9634 -22.4675 14.9613 -17.27 -24.1763 15.0805 
-9.57656 -24.1763 16.6929 -1.88313 -24.1763 17.231 5.81031 -24.1763 16.6477 
16.7976 -24.1763 14.9613 13.5037 -24.1763 15.9036 21.1972 -22.968 14.9613 
28.8906 -19.7698 14.9613 -36.4796 -16.4828 14.9613 -40.3503 -11.7575 14.9613 
-32.6569 -16.4828 16.507 -24.9634 -16.4828 18.2583 -17.27 -16.4828 19.7662 
-9.57656 -16.4828 21.3872 -1.88313 -16.4828 22.4505 13.5037 -16.4828 22.4739 
21.1972 -16.4828 21.761 35.8981 -16.4828 14.9613 28.8906 -16.4828 19.8345 
36.584 -16.14 14.9613 44.2775 -11.6609 14.9613 -42.1522 -8.78941 14.9613 
-40.3503 -8.78941 15.9002 -32.6569 -8.78941 18.3132 -24.9634 -8.78941 19.2885 
-17.27 -8.78941 20.4048 -9.57656 -8.78941 22.0215 47.3321 -8.78941 14.9613 
44.2775 -8.78941 19.0542 51.9709 -1.69532 14.9613 -44.1668 -1.09597 14.9613 
-40.3503 -1.09597 17.0776 -32.6569 -1.09597 19.1844 -24.9634 -1.09597 20.2989 
[...]
POINT_DATA 494
SCALARS ImageScalars float
LOOKUP_TABLE default
0 0 0 0 0 0 0 0 0 
0 0 0 0 0 0 0 0 0 
0 0 0 0 0 0 0 0 0 
0 0 0 0 0 0 0 0 0 
0 0 0 0 0 0 0 0 0 
0 0 0 0 0 0 0 0 0 
0 0 0 0 0 0 0 0 0 
0 0 0 0 0 0 0 0 0 
0 0 0 0 0 0 0 0 0 
0 0 0 0 0 0 0 0 0 
0 0 0 0 0 0 0 0 0 
0 0 0 0 0 0 0 0 0 
0 0 0 0 0 0 0 0 0 
0 0 0 0 0 0 0 0 0 
0 0 0 0 0 0 0 0 0 
0 0 0 0 0 0 0 0 0 
0 0 0 0 0 0 0 0 0 
0 0 0 0 0 0 0 0 0 
0 0 0 0 0 0 0 0 0 
0 0 0 0 0 0 0 0 0 
0 0 0 0 0 0 0 0 0 
0 0 0 0 0 0 0 0 0 
0 0 0 0 0 0 0 0 0 
0 0 0 0 0 0 0 0 0 
0 0 0 0 0 0 0 0 0 
0 0 0 0 0 0 0 0 0 
0 0 0 0 0 0 0 0 0 
0 0 0 0 0 0 0 0 0 
0 0 0 0 0 0 0 0 0 
0 0 0 0 0 0 0 0 0 
0 0 0 0 0 0 0 0 0 
0 0 0 0 0 0 0 0 0 
0 0 0 0 0 0 0 0 0 
0 0 0 0 0 0 0 0 0 
0 0 0 0 0 0 0 0 0 
0 0 0 0 0 0 0 0 0 
0 0 0 0 0 0 0 0 0 
0 0 0 0 0 0 0 0 0 
0 0 0 0 0 0 0 0 0 
0 0 0 0 0 0 0 0 0 
0 0 0 0 0 0 0 0 0 
0 0 0 0 0 0 0 0 0 
0 0 0 0 0 0 0 0 0 
0 0 0 0 0 0 0 0 0 
0 0 0 0 0 0 0 0 0 
0 0 0 0 0 0 0 0 0 
0 0 0 0 0 0 0 0 0 
0 0 0 0 0 0 0 0 0 
0 0 0 0 0 0 0 0 0 
0 0 0 0 0 0 0 0 0 
0 0 0 0 0 0 0 0 0 
0 0 0 0 0 0 0 0 0 
0 0 0 0 0 0 0 0 0 
0 0 0 0 0 0 0 0 0 
0 0 0 0 0 0 0 0 
NORMALS Normals float
-0.340886 -0.681193 -0.647898 -0.199851 -0.571319 -0.796024 -0.130054 -0.522986 -0.842361 
-0.116582 -0.424911 -0.897697 -0.00654993 -0.390058 -0.920767 0.152813 -0.447765 -0.880996 
0.253312 -0.642459 -0.723243 0.355082 -0.77982 -0.515555 -0.452794 -0.417935 -0.787596 
-0.235096 -0.30271 -0.923632 -0.0581293 -0.189249 -0.980207 -0.0405936 -0.144135 -0.988725 
-0.0402285 -0.0610184 -0.997326 -0.00912371 0.00382454 -0.999951 0.03663 -0.0641773 -0.997266 
0.0675336 -0.184475 -0.980514 0.191248 -0.2699 -0.943704 0.357213 -0.505808 -0.785211 
-0.643189 -0.312076 -0.699226 -0.308358 -0.234707 -0.921861 -0.115892 -0.0884169 -0.989319 
-0.0231118 -0.0320132 -0.99922 0.00734754 0.0215099 -0.999742 0.0274571 0.0221212 -0.999378 
-0.00999848 0.10702 -0.994207 -0.0368351 0.0222239 -0.999074 0.0115176 -0.00526141 -0.99992 
0.0327489 -0.00374061 -0.999457 0.114901 -0.17513 -0.977818 0.285938 -0.379845 -0.879748 
0.557396 -0.683871 -0.470776 -0.565518 -0.137592 -0.813178 -0.220713 -0.0988361 -0.970318 
-0.0299585 -0.0457248 -0.998505 0.0539519 0.0407746 -0.997711 0.0147222 0.0465611 -0.998807 
0.0429386 -0.0803266 -0.995843 -0.0054262 -0.00981371 -0.999937 -0.0763415 -0.0389587 -0.99632 
0.0386568 0.0236571 -0.998972 0.0195141 0.0445507 -0.998816 -0.0136563 -0.0389544 -0.999148 
0.0877959 -0.166072 -0.982198 0.313761 -0.297458 -0.901705 0.704984 -0.470115 -0.531027 
-0.54559 0.0841095 -0.833821 -0.190828 0.0578113 -0.97992 0.0238768 0.0422498 -0.998822 
0.0692736 0.0280889 -0.997202 -0.112404 0.0226026 -0.993405 -0.0330326 -0.0410015 -0.998613 
0.0337281 -0.0256392 -0.999102 -0.00391657 0.00286115 -0.999988 0.0973562 -0.00206875 -0.995247 
-0.0321414 -0.0232544 -0.999213 -0.0982063 -0.0479733 -0.994009 0.0134989 -0.0810612 -0.996618 
0.212366 -0.113145 -0.970618 0.590498 -0.180123 -0.786681 -0.612887 0.279896 -0.738936 
-0.272573 0.210963 -0.938722 -0.0653526 0.125802 -0.9899 0.033709 0.0364602 -0.998766 
-0.049332 0.0181141 -0.998618 -0.00452797 0.129808 -0.991529 0.03458 0.0175889 -0.999247 
-0.0525344 0.0535352 -0.997183 0.0122959 0.0172283 -0.999776 -0.0273284 -0.0023906 -0.999624 
-0.0722748 0.0440365 -0.996412 0.0183357 0.0842317 -0.996278 0.200722 0.172595 -0.964324 
0.560152 0.221142 -0.798327 -0.40266 0.326271 -0.855227 -0.150209 0.199364 -0.968345 
-0.0355717 0.111197 -0.993162 -0.0245486 0.0538416 -0.998248 -0.0298601 0.136918 -0.990132 
-0.0409807 0.0714083 -0.996605 -0.00228938 0.158778 -0.987312 0.0418938 0.278174 -0.959617 
0.00284293 0.324417 -0.94591 0.00323059 0.350668 -0.936494 0.148668 0.46192 -0.874373 
0.346884 0.596813 -0.723523 -0.293995 0.367212 -0.882452 -0.122903 0.197784 -0.97251 
-0.0245709 0.179746 -0.983406 0.0174696 0.222116 -0.974864 0.0777233 0.335313 -0.938895 
0.197967 0.545548 -0.814363 0.209074 0.736828 -0.64294 -0.212901 0.459246 -0.862419 
0.0140067 0.447915 -0.893967 0.145851 0.521247 -0.84085 -0.347996 -0.707323 -0.6153 
-0.222048 -0.795677 -0.563553 -0.141961 -0.810633 -0.568085 -0.0962375 -0.864836 -0.492744 
0.0336928 -0.883289 -0.467617 0.0341806 -0.999382 -0.0081764 0.187502 -0.871952 -0.452264 
0.285752 -0.819182 -0.49728 0.360055 -0.806586 -0.468807 -0.372503 -0.696345 -0.61347 
-0.497665 -0.563976 -0.658985 0.379335 -0.798489 -0.467462 0.443338 -0.714995 -0.540586 
-0.556852 -0.47559 -0.680978 -0.652955 -0.32995 -0.681749 -0.762711 -0.625065 -0.166031 
0.539581 -0.673807 -0.504813 0.547586 -0.666497 -0.505896 0.60727 -0.781634 -0.142375 
0.564133 -0.694718 -0.44623 -0.65683 -0.314246 -0.685437 0.566638 -0.69088 -0.449006 
0.706791 -0.474078 -0.525068 -0.703316 -0.146048 -0.695713 0.709103 -0.470596 -0.525083 
-0.695463 0.0903268 -0.712862 -0.966469 0.0921579 -0.239675 0.749263 -0.198674 -0.63177 
-0.660853 0.28731 -0.693344 -0.650304 0.330127 -0.684193 0.769405 0.238348 -0.592626 
0.606198 0.565501 -0.559225 -0.58789 0.406466 -0.699408 -0.77091 0.489571 -0.407454 
-0.527737 0.466752 -0.709673 0.0792192 0.794629 -0.601904 0.0866498 0.828371 -0.553438 
0.201092 0.840461 -0.503178 0.534933 0.644988 -0.545744 0.35765 0.762422 -0.539259 
0.612782 0.676397 -0.408637 -0.489465 0.481158 -0.727263 -0.608987 0.544895 -0.576389 
-0.416519 0.486618 -0.767929 0.288452 0.658321 -0.695276 0.30362 0.688487 -0.658635 
0.153208 0.785311 -0.599845 0.221422 0.756755 -0.615056 0.0934471 0.840087 -0.534343 
0.113969 0.890303 -0.440876 -0.374913 0.517076 -0.769462 -0.493576 0.578675 -0.649245 
-0.219325 0.587909 -0.778627 0.0221167 0.608469 -0.79327 0.28159 0.657579 -0.698783 
0.180676 0.626336 -0.758327 0.2997 0.676609 -0.672592 0.398196 0.829017 -0.392646 
-0.252254 0.862523 -0.43866 0.0440241 0.863144 -0.503035 0.269718 0.898174 -0.347182 
0.0339538 -0.997398 0.0635976 -0.349429 -0.936817 -0.0165376 -0.206346 -0.978348 0.016006 
-0.111343 -0.993261 0.032179 -0.0135094 -0.998173 0.0588845 -0.0860391 -0.99503 0.0501243 
0.0678362 -0.995565 0.0651769 0.0353619 -0.994683 0.0967268 0.198034 -0.977809 0.0683483 
0.271178 -0.961205 0.0504611 0.352052 -0.935216 0.037835 -0.761172 -0.634558 -0.133987 
-0.520328 -0.852734 -0.0458676 -0.546754 -0.835512 -0.0545791 0.461744 -0.885598 0.0500769 
0.539439 -0.839549 0.0645129 0.601385 -0.796321 0.0648747 -0.767055 -0.627007 -0.135975 
-0.763466 -0.645501 -0.0211953 0.602145 -0.796141 0.0598482 0.58631 -0.800792 0.122366 
0.601903 -0.798512 0.00950996 -0.908631 -0.377198 -0.179196 0.630712 -0.775739 -0.020789 
0.751728 -0.656428 -0.0633033 -0.960717 -0.184778 -0.207072 -0.978187 -0.0130276 -0.207317 
0.820241 -0.567282 -0.0734546 -0.974254 0.0911985 -0.206185 -0.970184 0.123056 -0.208806 
0.96622 -0.221745 -0.131332 -0.905554 0.355171 -0.232003 0.950697 0.275163 -0.143044 
-0.827589 0.507883 -0.239061 -0.80397 0.5412 -0.246443 0.259156 0.953436 -0.154265 
0.367688 0.920431 -0.132708 0.712525 0.692386 -0.113619 0.604476 0.789145 -0.108895 
-0.74968 0.598743 -0.281932 -0.712935 0.638747 -0.289355 0.318604 0.869187 -0.378161 
0.182843 0.925275 -0.332316 0.258884 0.95349 -0.154389 0.178661 0.961343 -0.209525 
0.259636 0.953631 -0.15224 -0.672646 0.674908 -0.303394 -0.550402 0.77533 -0.30971 
0.393326 0.862695 -0.317886 0.389905 0.856387 -0.338489 0.411368 0.852295 -0.323062 
-0.35028 0.873647 -0.337705 -0.258281 0.901596 -0.347009 0.0578409 0.933033 -0.355111 
0.279475 0.901421 -0.330657 0.271304 0.903418 -0.332009 -0.280416 -0.87504 0.394554 
-0.171813 -0.881531 0.439754 -0.107422 -0.891727 0.43964 -0.0680843 -0.901712 0.426942 
0.0496946 -0.908274 0.415415 0.173867 -0.904718 0.388916 0.242454 -0.900581 0.360791 
0.362054 -0.862424 0.353753 -0.347521 -0.860035 0.37359 -0.479593 -0.811305 0.334326 
-0.262635 -0.849235 0.458064 -0.143426 -0.815233 0.561092 -0.108905 -0.805019 0.583167 
-0.0942531 -0.804177 0.58687 0.125808 -0.835716 0.534557 0.22765 -0.868706 0.439914 
0.36337 -0.86181 0.3539 0.362126 -0.862035 0.354628 0.511379 -0.76282 0.395723 
-0.699023 -0.656965 0.282425 -0.729084 -0.626423 0.275738 0.509283 -0.772082 0.38016 
0.498539 -0.777833 0.382667 0.511763 -0.786236 0.346311 0.507924 -0.817304 0.272081 
-0.866719 -0.4278 0.256486 -0.695008 -0.432094 0.574681 0.513398 -0.815295 0.267799 
0.502927 -0.821378 0.269079 0.729173 -0.648542 0.218401 -0.954534 -0.198978 0.221973 
-0.975185 -0.0228369 0.220209 0.779877 -0.597335 0.187035 0.721767 -0.63549 0.274236 
-0.972957 0.0802155 0.216609 -0.971775 0.105347 0.211082 -0.969554 0.0775988 0.232255 
0.945492 -0.253236 0.204736 -0.933753 0.321204 0.157905 0.940936 0.290315 0.174231 
-0.868149 0.486518 0.0980702 -0.839452 0.536704 0.0852605 -0.824212 0.411288 0.389251 
0.433784 0.896334 0.0917424 0.704065 0.689825 0.168623 0.649433 0.742561 0.163829 
0.683113 0.69183 0.23394 -0.80482 0.590065 0.0639374 -0.746193 0.663679 0.0522174 
0.294241 0.943102 -0.154859 0.291712 0.936432 -0.194936 0.278197 0.957481 -0.0764004 
0.320161 0.947248 0.0148114 0.291878 0.956442 -0.00510139 -0.725839 0.68585 0.0526076 
-0.574339 0.816761 0.0551071 0.409588 0.910558 -0.0558786 0.298473 0.94264 -0.14948 
0.382613 0.920565 -0.0785265 0.26782 0.959491 -0.0874624 -0.462345 0.88524 0.0508693 
-0.28758 0.956741 0.0441007 0.0436407 0.999023 -0.00695041 0.34854 0.936126 -0.0467778 
0.284152 0.957771 -0.0439594 -0.00184351 -0.823122 0.567862 -0.435961 -0.651169 0.621222 
-0.241083 -0.744281 0.622836 -0.138452 -0.772015 0.620341 -0.108618 -0.786414 0.608076 
-0.0817438 -0.805695 0.586662 -0.0944909 -0.802473 0.589159 0.117447 -0.8346 0.538191 
-0.00484735 -0.815155 0.579222 0.125218 -0.834844 0.536057 0.219812 -0.841064 0.494261 
0.382663 -0.805147 0.453108 -0.440785 -0.64764 0.621507 -0.435978 -0.647237 0.625306 
-0.273572 -0.648436 0.710415 -0.17914 -0.664474 0.725523 0.467028 -0.794053 0.389057 
0.319029 -0.789233 0.524721 0.48973 -0.794701 0.35863 0.482532 -0.828095 0.285344 
-0.676324 -0.430739 0.597537 -0.689425 -0.413034 0.59506 -0.458062 -0.411399 0.787991 
0.488536 -0.830999 0.266032 0.44043 -0.824074 0.356264 0.533083 -0.804375 0.262303 
-0.792981 -0.215051 0.57003 -0.655391 -0.235195 0.717736 0.664091 -0.677703 0.315756 
0.751522 -0.567125 0.337022 -0.83628 0.0224318 0.547844 -0.671161 -0.011426 0.741224 
0.915424 -0.219644 0.337276 -0.843997 0.229539 0.484748 -0.819302 0.395273 0.415335 
-0.750017 0.191383 0.633125 0.904156 0.264668 0.33534 0.735837 0.609148 0.295773 
-0.81734 0.404234 0.410548 0.659984 0.702055 0.267468 0.509008 0.838648 0.193859 
-0.757869 0.547808 0.354319 -0.71913 0.600641 0.349403 -0.705114 0.502725 0.500082 
0.293526 0.955731 -0.0204993 0.376849 0.926237 0.0083154 0.385413 0.919575 0.0764071 
0.383277 0.920669 0.073944 0.390725 0.916151 0.0894485 -0.644754 0.67827 0.352481 
-0.565617 0.746036 0.351437 -0.549676 0.642995 0.533305 0.382166 0.919854 0.088418 
0.347184 0.936821 0.0427811 0.231688 0.972699 0.0133545 0.223968 0.974436 0.0176643 
0.226529 0.9699 0.0893174 -0.343113 0.872649 0.3475 -0.321689 0.881155 0.346528 
-0.325569 0.870775 0.36845 -0.0307022 0.962593 0.269205 -0.0971026 0.900721 0.423406 
0.278416 0.950303 0.139315 0.227773 0.960392 0.160518 0.175464 0.94617 0.271982 
-0.140489 -0.682813 0.716958 -0.107758 -0.728973 0.676008 -0.00206477 -0.72899 0.684521 
0.0712221 -0.729218 0.680565 0.142112 -0.748901 0.647265 -0.29125 -0.468666 0.833982 
-0.144719 -0.678108 0.720573 -0.192075 -0.583219 0.78928 -0.141343 -0.679262 0.720156 
-0.107902 -0.681839 0.7235 0.00169806 -0.67789 0.735162 0.0637461 -0.702911 0.708416 
0.203198 -0.762667 0.614043 0.13311 -0.731501 0.668722 0.276854 -0.775128 0.567915 
0.346847 -0.833249 0.430574 -0.366777 -0.393026 0.843211 -0.417698 -0.287131 0.862023 
-0.285138 -0.370017 0.884185 -0.199181 -0.297429 0.933736 -0.193043 -0.276456 0.941438 
-0.163807 -0.268122 0.949357 -0.103223 -0.386021 0.916697 0.0712931 -0.539148 0.839188 
0.111416 -0.575464 0.810202 0.424489 -0.82309 0.37727 0.262327 -0.736582 0.623404 
0.433529 -0.81997 0.373767 0.566824 -0.742366 0.357215 -0.440691 -0.220793 0.870082 
-0.394731 -0.214736 0.893351 -0.21043 -0.160512 0.964342 -0.136773 -0.125861 0.982574 
-0.170995 -0.0844117 0.981649 -0.259059 -0.153696 0.953554 0.639132 -0.658466 0.397407 
0.563703 -0.614068 0.552412 0.854714 -0.266018 0.445755 -0.504602 -0.0599976 0.861265 
-0.387442 -0.0920871 0.917283 -0.204616 -0.13476 0.969522 -0.122385 -0.166223 0.978464 
-0.226241 -0.21204 0.950712 0.862977 -0.235752 0.446869 0.854721 -0.235993 0.462341 
-0.577568 0.101085 0.81006 -0.469148 0.0446566 0.88199 -0.288976 -0.0863682 0.953433 
-0.192537 -0.159214 0.968287 0.849477 0.253253 0.462873 0.836951 0.301466 0.456761 
0.83581 0.251977 0.48778 -0.633344 0.264799 0.727157 -0.635184 0.327379 0.699546 
-0.594983 0.236771 0.768072 -0.375267 0.104011 0.921063 0.463372 0.844709 0.267866 
0.642851 0.677779 0.356872 0.574321 0.755728 0.314691 0.568063 0.650402 0.504264 
-0.609771 0.444779 0.656011 -0.52044 0.555693 0.648342 -0.458627 0.377579 0.804422 
-0.285973 0.256356 0.92331 0.230393 0.944009 0.236147 0.275172 0.927745 0.252131 
0.445529 0.858315 0.254557 0.376342 0.894699 0.240583 0.337282 0.765672 0.547711 
-0.482229 0.604369 0.634187 -0.377573 0.677332 0.631396 -0.383163 0.548542 0.743161 
-0.157395 0.812944 0.560668 -0.223799 0.494 0.840165 0.0981423 0.896648 0.43173 
-0.080361 0.514796 0.853538 0.276373 0.910577 0.307354 0.0982397 0.62606 0.773561 
0.246399 0.941673 0.229215 0.311413 0.92115 0.233461 0.271291 0.850837 0.449975 
0.00243635 -0.56356 0.826072 -0.0742414 -0.437657 0.896072 -0.123883 -0.370789 0.920418 
0.0516902 -0.541425 0.839159 -0.00490077 -0.549515 0.835469 0.0719014 -0.525836 0.847542 
0.0851586 -0.507434 0.857472 0.163843 -0.578285 0.799213 0.317342 -0.598282 0.735767 
-0.273465 -0.176893 0.945476 -0.283665 -0.186124 0.940687 -0.306446 -0.235819 0.922215 
-0.0775804 -0.268081 0.960268 0.100241 -0.243214 0.964779 0.0369449 -0.290799 0.956071 
0.0689507 -0.374582 0.924627 0.400237 -0.541089 0.739617 0.288652 -0.509467 0.810631 
0.530675 -0.346931 0.77332 -0.285793 -0.234901 0.929055 -0.242726 -0.207989 0.947536 
-0.320809 -0.244683 0.914993 -0.233124 -0.106157 0.966635 -0.0211121 -0.00111171 0.999776 
0.0649695 -0.0352309 0.997265 -0.0383539 -0.102713 0.993971 -0.00529543 -0.114786 0.993376 
0.183269 -0.157667 0.970337 0.586281 -0.208388 0.782847 0.498245 -0.198096 0.844103 
-0.212701 -0.177013 0.96095 -0.23335 -0.0175931 0.972234 -0.245194 -0.194464 0.94977 
-0.164161 -0.0804629 0.983146 -0.0765928 0.0147279 0.996954 -0.0104586 0.0690278 0.99756 
-0.000427697 0.00837997 0.999965 -0.0437888 0.00811067 0.999008 0.00670222 0.0761164 0.997076 
0.176778 0.141228 0.974066 0.589535 0.215273 0.778528 0.540591 0.36876 0.75616 
0.501898 0.203274 0.840701 -0.250079 0.0189791 0.96804 -0.248141 0.0466093 0.967602 
-0.241568 0.0136057 0.970289 -0.165823 0.011753 0.986085 -0.113073 0.0619612 0.991653 
-0.0792758 0.044347 0.995866 -0.0298574 0.0787897 0.996444 0.00450745 0.110464 0.99387 
0.0338377 0.21571 0.975871 0.271511 0.610322 0.74417 0.147176 0.349049 0.925475 
0.411648 0.566731 0.713696 0.350892 0.608552 0.711716 0.327875 0.541234 0.774315 
-0.239105 0.220083 0.945723 -0.208314 0.299343 0.931128 -0.196325 0.192224 0.961513 
-0.0897698 0.473598 0.876155 -0.13413 0.171073 0.976086 0.0832571 0.593304 0.800661 
-0.0558863 0.210377 0.976022 0.171312 0.635942 0.752482 0.063514 0.337065 0.939337 
0.177538 0.618345 0.765591 0.141581 0.448511 0.882492 0.242248 0.616181 0.749424 
0.2155 0.610802 0.761893 0.204697 0.565622 0.798856 
