# vtk DataFile Version 4.2
vtk output
ASCII
DATASET POLYDATA
POINTS 579 float
27.9681 -16.914 -23.4492 36.611 -8.27117 -23.0113 -23.8891 -42.8427 -15.6248 
-15.2462 -42.8427 -17.5673 -6.60336 -42.8427 -19.2579 2.03951 -42.8427 -17.8623 
10.6824 -42.8427 -14.7086 -32.532 -34.1998 -15.448 -23.8891 -34.1998 -17.8158 
-15.2462 -34.1998 -19.3034 -6.60336 -34.1998 -21.0183 2.03951 -34.1998 -21.3656 
10.6824 -34.1998 -19.8596 19.3253 -34.1998 -19.2302 27.9681 -34.1998 -17.953 
36.611 -34.1998 -17.6722 45.2539 -34.1998 -14.4278 -41.1749 -25.5569 -15.3681 
-32.532 -25.5569 -17.0414 -23.8891 -25.5569 -17.8317 -15.2462 -25.5569 -19.2533 
-6.60336 -25.5569 -21.3714 2.03951 -25.5569 -21.7673 10.6824 -25.5569 -21.634 
19.3253 -25.5569 -22.2273 27.9681 -19.5878 -23.0067 27.9681 -25.5569 -22.0855 
36.611 -25.5569 -21.9875 45.2539 -25.5569 -21.6607 53.8968 -25.5569 -16.7019 
-41.1749 -16.914 -14.7715 -32.532 -16.914 -16.1123 -23.8891 -16.914 -17.1182 
-15.2462 -16.914 -18.5225 -6.60336 -16.914 -21.3608 2.03951 -16.914 -22.0808 
10.6824 -16.914 -21.4797 24.8732 -16.914 -23.0067 19.3253 -16.914 -22.1527 
33.8818 -16.914 -23.0067 27.9681 -14.2561 -23.0067 36.611 -8.46539 -23.0067 
36.611 -16.914 -22.8051 45.2539 -16.914 -22.2875 53.8968 -16.914 -20.4903 
62.5396 -16.914 -14.4533 -32.532 -8.27117 -15.6349 -23.8891 -8.27117 -17.6752 
-15.2462 -8.27117 -21.0816 -6.60336 -8.27117 -22.0786 2.03951 -8.27117 -22.5375 
10.6824 -8.27117 -21.2921 19.3253 -8.27117 -20.6057 36.5705 -8.27117 -23.0067 
27.9681 -8.27117 -22.0186 37.499 -8.27117 -23.0067 36.611 -8.02087 -23.0067 
45.2539 -8.27117 -22.9654 53.8968 -8.27117 -21.5666 62.5396 -8.27117 -17.8704 
-32.532 0.371701 -14.8856 -23.8891 0.371701 -19.2024 -15.2462 0.371701 -22.408 
-6.60336 0.371701 -19.6865 2.03951 0.371701 -20.7579 10.6824 0.371701 -21.6011 
19.3253 0.371701 -20.5507 27.9681 0.371701 -22.0545 36.611 0.371701 -22.8512 
45.2539 0.371701 -22.5561 53.8968 0.371701 -20.7559 62.5396 0.371701 -16.3728 
-32.532 9.01457 -15.2808 -23.8891 9.01457 -18.6718 -15.2462 9.01457 -20.4975 
-6.60336 9.01457 -21.3597 2.03951 9.01457 -22.7083 10.6824 9.01457 -20.196 
19.3253 9.01457 -20.9902 27.9681 9.01457 -21.7233 36.611 9.01457 -21.7946 
45.2539 9.01457 -20.8944 53.8968 9.01457 -18.5461 -32.532 17.6574 -16.3531 
-23.8891 17.6574 -19.1469 -15.2462 17.6574 -19.9115 -6.60336 17.6574 -20.7435 
2.03951 17.6574 -20.4915 10.6824 17.6574 -20.0205 19.3253 17.6574 -20.6071 
27.9681 17.6574 -20.5096 36.611 17.6574 -19.6366 45.2539 17.6574 -17.3831 
-32.532 26.3003 -17.4991 -23.8891 26.3003 -19.9616 -15.2462 26.3003 -20.9438 
-6.60336 26.3003 -21.6079 2.03951 26.3003 -21.5292 10.6824 26.3003 -21.0399 
19.3253 26.3003 -20.8015 27.9681 26.3003 -19.4341 36.611 26.3003 -16.3715 
-32.532 34.9432 -17.2066 -23.8891 34.9432 -19.6846 -15.2462 34.9432 -21.1444 
-6.60336 34.9432 -21.6551 2.03951 34.9432 -21.7022 10.6824 34.9432 -21.028 
19.3253 34.9432 -19.748 27.9681 34.9432 -16.4987 -23.8891 43.5861 -17.1213 
-15.2462 43.5861 -18.956 -6.60336 43.5861 -19.82 2.03951 43.5861 -19.5286 
10.6824 43.5861 -18.1075 19.3253 43.5861 -16.0192 -23.8891 -44.5548 -14.3638 
-15.2462 -47.2236 -14.3638 -15.2462 -51.4855 -6.39079 -6.60336 -48.6884 -14.3638 
-6.60336 -51.4855 -6.52312 2.03951 -46.4599 -14.3638 10.6824 -43.1211 -14.3638 
-41.1749 -42.8427 -10.0124 -27.6212 -42.8427 -14.3638 -32.532 -37.5552 -14.3638 
-32.532 -42.8427 -12.2899 11.2368 -42.8427 -14.3638 19.3253 -38.7741 -14.3638 
27.9681 -37.2269 -14.3638 36.611 -36.8719 -14.3638 45.2539 -34.2572 -14.3638 
-49.8177 -34.1998 -9.45567 -37.4281 -34.1998 -14.3638 -41.1749 -30.5644 -14.3638 
-41.1749 -34.1998 -13.5741 45.3838 -34.1998 -14.3638 53.8968 -28.9758 -14.3638 
-58.4606 -25.5569 -7.19934 -43.4401 -25.5569 -14.3638 -49.8177 -25.5569 -11.2625 
57.2551 -25.5569 -14.3638 62.5396 -17.082 -14.3638 -58.4606 -16.914 -5.90619 
-42.2543 -16.914 -14.3638 -49.8177 -16.914 -11.6402 -41.1749 -12.6189 -14.3638 
62.6231 -16.914 -14.3638 -58.4606 -8.27117 -5.93605 -49.8177 -8.27117 -11.1188 
-39.0599 -8.27117 -14.3638 -41.1749 -8.27117 -13.9482 66.0969 -8.27117 -14.3638 
-58.4606 0.371701 -8.04837 -49.8177 0.371701 -10.5606 -34.7897 0.371701 -14.3638 
-41.1749 0.371701 -12.9423 64.7875 0.371701 -14.3638 62.5396 5.84474 -14.3638 
-58.4606 9.01457 -6.91354 -49.8177 9.01457 -9.72409 -35.271 9.01457 -14.3638 
-41.1749 9.01457 -12.4892 60.9175 9.01457 -14.3638 53.8968 16.5801 -14.3638 
62.5396 9.01457 -12.8833 -49.8177 17.6574 -9.3229 -37.4743 17.6574 -14.3638 
-41.1749 17.6574 -12.8189 52.4114 17.6574 -14.3638 45.2539 23.1468 -14.3638 
53.8968 17.6574 -13.573 62.5396 17.6574 -7.97999 -49.8177 26.3003 -7.78079 
-38.6384 26.3003 -14.3638 -41.1749 26.3003 -12.8846 41.1868 26.3003 -14.3638 
36.611 30.6486 -14.3638 45.2539 26.3003 -12.234 -49.8177 34.9432 -6.25838 
-37.1086 34.9432 -14.3638 -41.1749 34.9432 -11.6273 -32.532 41.2463 -14.3638 
32.3944 34.9432 -14.3638 27.9681 38.3439 -14.3638 36.611 34.9432 -11.542 
-41.1749 43.5861 -7.51933 -30.0031 43.5861 -14.3638 -32.532 43.5861 -12.8796 
-23.8891 46.8587 -14.3638 -15.2462 49.3681 -14.3638 -6.60336 50.0939 -14.3638 
2.03951 49.653 -14.3638 10.6824 47.6744 -14.3638 22.0552 43.5861 -14.3638 
19.3253 45.0599 -14.3638 27.9681 43.5861 -7.81886 -15.2462 52.2289 -6.9392 
-6.60336 52.2289 -7.49642 2.03951 52.2289 -5.81993 -15.2462 -51.7196 -5.72091 
-6.60336 -51.7115 -5.72091 -41.1749 -45.7846 -5.72091 -32.532 -49.3001 -5.72091 
-17.4637 -51.4855 -5.72091 -23.8891 -50.6885 -5.72091 -15.2462 -51.4855 -4.10125 
-5.61059 -51.4855 -5.72091 -6.60336 -51.4855 -4.55049 2.03951 -49.4439 -5.72091 
10.6824 -43.935 -5.72091 -46.3427 -42.8427 -5.72091 -49.8177 -39.3708 -5.72091 
13.1463 -42.8427 -5.72091 19.3253 -40.7325 -5.72091 27.9681 -39.6656 -5.72091 
36.611 -39.3243 -5.72091 45.2539 -37.0558 -5.72091 -53.8018 -34.1998 -5.72091 
-58.4606 -28.2072 -5.72091 50.5822 -34.1998 -5.72091 53.8968 -32.2032 -5.72091 
-59.708 -25.5569 -5.72091 61.364 -25.5569 -5.72091 62.5396 -24.1818 -5.72091 
-58.6757 -16.914 -5.72091 67.4538 -16.914 -5.72091 -58.7404 -8.27117 -5.72091 
70.6489 -8.27117 -5.72091 -61.3329 0.371701 -5.72091 -67.1035 0.371701 2.07284 
70.5714 0.371701 -5.72091 -59.9443 9.01457 -5.72091 -58.4606 14.3592 -5.72091 
68.1881 9.01457 -5.72091 -56.5437 17.6574 -5.72091 -58.4606 17.6574 -4.5249 
53.8968 26.286 -5.72091 64.0652 17.6574 -5.72091 62.5396 19.4193 -5.72091 
-52.6847 26.3003 -5.72091 -58.4606 26.3003 0.00348498 53.8799 26.3003 -5.72091 
45.2539 33.732 -5.72091 53.8968 26.3003 -5.69357 -50.2621 34.9432 -5.72091 
-49.8177 35.5247 -5.72091 43.7104 34.9432 -5.72091 36.611 39.3861 -5.72091 
45.2539 34.9432 -2.37242 -42.4742 43.5861 -5.72091 -41.1749 44.6508 -5.72091 
-32.532 48.7195 -5.72091 -23.8891 51.0992 -5.72091 10.6824 50.1536 -5.72091 
19.3253 47.8707 -5.72091 29.7839 43.5861 -5.72091 27.9681 44.5133 -5.72091 
-17.322 52.2289 -5.72091 -15.2462 52.2289 -4.23309 -6.60336 52.2289 -4.01361 
2.14257 52.2289 -5.72091 2.03951 52.2289 -5.64611 -41.1749 -46.0475 2.92197 
-32.532 -49.5518 2.92197 -23.8891 -49.9215 2.92197 -15.2462 -50.3856 2.92197 
-6.60336 -50.049 2.92197 2.03951 -47.7754 2.92197 10.6824 -43.5743 2.92197 
-47.4997 -42.8427 2.92197 -49.8177 -41.4693 2.92197 -41.1749 -42.8427 9.72119 
-32.532 -42.8427 11.3131 12.1115 -42.8427 2.92197 10.6824 -42.8427 5.67329 
19.3253 -39.5857 2.92197 27.9681 -38.0778 2.92197 36.611 -37.3685 2.92197 
45.2539 -35.335 2.92197 -56.8832 -34.1998 2.92197 -58.4606 -31.984 2.92197 
36.611 -34.1998 8.86968 47.275 -34.1998 2.92197 45.2539 -34.1998 4.8786 
53.8968 -30.3177 2.92197 -62.2103 -25.5569 2.92197 -58.4606 -25.5569 10.9276 
59.431 -25.5569 2.92197 53.8968 -25.5569 9.93494 62.5396 -22.2309 2.92197 
-65.3727 -16.914 2.92197 66.3552 -16.914 2.92197 62.5396 -16.914 9.3696 
-66.8666 -8.27117 2.92197 -67.1035 -6.07192 2.92197 70.0618 -8.27117 2.92197 
-67.6609 0.371701 2.92197 -67.1035 4.13547 2.92197 70.8005 0.371701 2.92197 
-66.1103 9.01457 2.92197 69.6891 9.01457 2.92197 -63.8411 17.6574 2.92197 
65.449 17.6574 2.92197 62.5396 21.407 2.92197 62.5396 17.6574 10.5048 
-60.147 26.3003 2.92197 -58.4606 28.8574 2.92197 57.8253 26.3003 2.92197 
53.8968 29.8349 2.92197 -53.988 34.9432 2.92197 -49.8177 39.284 2.92197 
36.611 40.9547 2.92197 47.1968 34.9432 2.92197 45.2539 36.2606 2.92197 
45.2539 34.9432 7.71815 -43.6625 43.5861 2.92197 -41.1749 45.0857 2.92197 
-41.1749 43.5861 6.87783 -32.532 49.0666 2.92197 -23.8891 50.0773 2.92197 
-15.2462 50.4481 2.92197 -6.60336 50.3647 2.92197 2.03951 49.4374 2.92197 
10.6824 47.8223 2.92197 10.6824 43.5861 10.3355 19.3253 45.9749 2.92197 
19.3253 43.5861 7.66592 28.9418 43.5861 2.92197 27.9681 43.9023 2.92197 
27.9681 43.5861 3.70025 -23.8891 -44.7132 11.5648 -15.2462 -46.2524 11.5648 
-6.60336 -47.3413 11.5648 2.03951 -45.3724 11.5648 -49.8177 -35.885 11.5648 
-41.1749 -40.8954 11.5648 -31.5339 -42.8427 11.5648 -32.532 -42.5683 11.5648 
-23.8891 -42.8427 13.367 -15.2462 -42.8427 15.5804 -6.60336 -42.8427 16.4808 
7.20996 -42.8427 11.5648 2.03951 -42.8427 14.8889 10.6824 -40.7788 11.5648 
19.3253 -36.2783 11.5648 27.9681 -34.6242 11.5648 -51.5899 -34.1998 11.5648 
-49.8177 -34.1998 12.8816 -41.1749 -34.1998 15.1834 -32.532 -34.1998 17.1064 
-23.8891 -34.1998 18.1082 -15.2462 -34.1998 19.8219 2.03951 -34.1998 20.0903 
10.6824 -34.1998 17.0112 19.3253 -34.1998 13.5742 29.8711 -34.1998 11.5648 
27.9681 -34.1998 12.0637 36.611 -32.2778 11.5648 45.2539 -29.4285 11.5648 
-57.7084 -25.5569 11.5648 -58.4606 -24.251 11.5648 -49.8177 -25.5569 15.7315 
-41.1749 -25.5569 17.7025 -32.532 -25.5569 18.9211 -23.8891 -25.5569 20.033 
10.6824 -25.5569 19.0679 19.3253 -25.5569 18.0642 27.9681 -25.5569 17.793 
36.611 -25.5569 17.3674 51.7195 -25.5569 11.5648 45.2539 -25.5569 14.9552 
53.8968 -23.8266 11.5648 -61.1075 -16.914 11.5648 -58.4606 -16.914 13.7933 
-49.8177 -16.914 17.9411 -41.1749 -16.914 19.3277 10.6824 -16.914 19.5451 
19.3253 -16.914 19.6635 45.2539 -16.914 19.3144 60.3987 -16.914 11.5648 
53.8968 -16.914 15.9773 62.5396 -13.639 11.5648 -65.266 -8.27117 11.5648 
[...]
POINT_DATA 579
SCALARS ImageScalars float
LOOKUP_TABLE default
0 0 0 0 0 0 0 0 0 
0 0 0 0 0 0 0 0 0 
0 0 0 0 0 0 0 0 0 
0 0 0 0 0 0 0 0 0 
0 0 0 0 0 0 0 0 0 
0 0 0 0 0 0 0 0 0 
0 0 0 0 0 0 0 0 0 
0 0 0 0 0 0 0 0 0 
0 0 0 0 0 0 0 0 0 
0 0 0 0 0 0 0 0 0 
0 0 0 0 0 0 0 0 0 
0 0 0 0 0 0 0 0 0 
0 0 0 0 0 0 0 0 0 
0 0 0 0 0 0 0 0 0 
0 0 0 0 0 0 0 0 0 
0 0 0 0 0 0 0 0 0 
0 0 0 0 0 0 0 0 0 
0 0 0 0 0 0 0 0 0 
0 0 0 0 0 0 0 0 0 
0 0 0 0 0 0 0 0 0 
0 0 0 0 0 0 0 0 0 
0 0 0 0 0 0 0 0 0 
0 0 0 0 0 0 0 0 0 
0 0 0 0 0 0 0 0 0 
0 0 0 0 0 0 0 0 0 
0 0 0 0 0 0 0 0 0 
0 0 0 0 0 0 0 0 0 
0 0 0 0 0 0 0 0 0 
0 0 0 0 0 0 0 0 0 
0 0 0 0 0 0 0 0 0 
0 0 0 0 0 0 0 0 0 
0 0 0 0 0 0 0 0 0 
0 0 0 0 0 0 0 0 0 
0 0 0 0 0 0 0 0 0 
0 0 0 0 0 0 0 0 0 
0 0 0 0 0 0 0 0 0 
0 0 0 0 0 0 0 0 0 
0 0 0 0 0 0 0 0 0 
0 0 0 0 0 0 0 0 0 
0 0 0 0 0 0 0 0 0 
0 0 0 0 0 0 0 0 0 
0 0 0 0 0 0 0 0 0 
0 0 0 0 0 0 0 0 0 
0 0 0 0 0 0 0 0 0 
0 0 0 0 0 0 0 0 0 
0 0 0 0 0 0 0 0 0 
0 0 0 0 0 0 0 0 0 
0 0 0 0 0 0 0 0 0 
0 0 0 0 0 0 0 0 0 
0 0 0 0 0 0 0 0 0 
0 0 0 0 0 0 0 0 0 
0 0 0 0 0 0 0 0 0 
0 0 0 0 0 0 0 0 0 
0 0 0 0 0 0 0 0 0 
0 0 0 0 0 0 0 0 0 
0 0 0 0 0 0 0 0 0 
0 0 0 0 0 0 0 0 0 
0 0 0 0 0 0 0 0 0 
0 0 0 0 0 0 0 0 0 
0 0 0 0 0 0 0 0 0 
0 0 0 0 0 0 0 0 0 
0 0 0 0 0 0 0 0 0 
0 0 0 0 0 0 0 0 0 
0 0 0 0 0 0 0 0 0 
0 0 0 
NORMALS Normals float
-0.0358882 0.0014585 -0.999355 -0.0543984 -0.00266512 -0.998516 -0.259055 -0.460101 -0.849233 
-0.205452 -0.418392 -0.884724 -0.0359822 -0.456688 -0.888899 0.238956 -0.608892 -0.756406 
0.39579 -0.79834 -0.453875 -0.218391 -0.221487 -0.950394 -0.213916 -0.124818 -0.968845 
-0.182366 -0.0951164 -0.978619 -0.114542 -0.112488 -0.987029 0.0662593 -0.187735 -0.979982 
0.123346 -0.347655 -0.929474 0.0937556 -0.561009 -0.822483 0.0808794 -0.711287 -0.698233 
0.158902 -0.702763 -0.693452 0.330594 -0.769025 -0.54709 -0.309539 -0.0578734 -0.949124 
-0.149119 -0.0337402 -0.988243 -0.120543 0.0403258 -0.991889 -0.207365 0.0437555 -0.977285 
-0.136174 -0.019543 -0.990492 -0.0149622 -0.0395156 -0.999107 -0.0249099 -0.087425 -0.99586 
-0.0254453 -0.140134 -0.989806 -0.0204699 -0.0747908 -0.996989 0.0127198 -0.236984 -0.97143 
0.0218074 -0.239059 -0.97076 0.258587 -0.334648 -0.90617 0.505402 -0.490483 -0.709926 
-0.256695 0.0822513 -0.962986 -0.133492 0.0787092 -0.987919 -0.134972 0.0102798 -0.990796 
-0.245512 -0.0889958 -0.9653 -0.199789 -0.0394067 -0.979046 -0.00572083 -0.0430055 -0.999058 
-0.00145171 0.0189912 -0.999819 -0.0658739 0.0364767 -0.997161 -0.111164 0.0961078 -0.989144 
0.0348019 -0.0379183 -0.998675 -0.0689443 0.0261781 -0.997277 -0.0517154 -0.00382829 -0.998655 
0.0641676 -0.0552902 -0.996406 0.140209 -0.0676816 -0.987806 0.333557 -0.235948 -0.912726 
0.72808 -0.316301 -0.608156 -0.205194 0.0684496 -0.976325 -0.293062 -0.103013 -0.950528 
-0.25317 -0.228617 -0.940021 -0.0779917 0.0915491 -0.992742 0.0438582 0.0652327 -0.996906 
0.111183 -0.00640653 -0.993779 -0.0445747 0.0857861 -0.995316 -0.0547872 -0.00227732 -0.998495 
-0.137764 0.0729682 -0.987774 -0.041198 -0.00390384 -0.999143 -0.053676 -0.000582694 -0.998558 
0.07684 -0.0149323 -0.996932 0.241097 -0.0226199 -0.970237 0.586661 -0.0752337 -0.80633 
-0.296655 0.020321 -0.954769 -0.448716 -0.0583459 -0.891768 0.00289403 0.045145 -0.998976 
0.109511 0.0370389 -0.993295 -0.114429 -0.00597384 -0.993413 0.0192465 0.0640694 -0.99776 
-0.0293505 -0.0224202 -0.999318 -0.132266 0.0166454 -0.991075 -0.029233 0.0694117 -0.99716 
0.113789 0.117761 -0.986501 0.300835 0.162629 -0.939707 0.593291 0.203571 -0.778823 
-0.330238 -0.0788367 -0.9406 -0.29994 -0.00232771 -0.953955 -0.14514 0.143753 -0.978912 
-0.122339 -0.0551282 -0.990956 0.0672422 0.0325155 -0.997207 0.0877898 0.09098 -0.991976 
-0.08589 -0.00319086 -0.9963 -0.0466899 0.0887717 -0.994957 0.046535 0.177155 -0.983082 
0.173712 0.267648 -0.947728 0.364956 0.33506 -0.868644 -0.330569 -0.122584 -0.935787 
-0.200985 -0.0738282 -0.976808 -0.0898459 -0.0264912 -0.995603 -0.0337902 -0.0149795 -0.999317 
0.0424712 0.0560093 -0.997527 -0.00677078 -0.0491034 -0.998771 -0.028374 0.0111027 -0.999536 
0.0528398 0.12632 -0.990581 0.16622 0.288542 -0.942928 0.287679 0.425966 -0.857784 
-0.357516 -0.0469198 -0.932728 -0.196629 -0.0286239 -0.98006 -0.0944998 -0.0710568 -0.992986 
-0.0336573 -0.0515848 -0.998101 0.0329072 -0.0697462 -0.997022 0.0417071 -0.0581261 -0.997438 
0.0879819 0.0448943 -0.99511 0.234482 0.207626 -0.949689 0.349308 0.375603 -0.858432 
-0.403127 0.210141 -0.890691 -0.215451 0.136152 -0.966977 -0.106485 0.104816 -0.988774 
-0.0338998 0.0965641 -0.994749 0.0391847 0.105082 -0.993691 0.102873 0.143781 -0.984248 
0.246605 0.235218 -0.940138 0.385052 0.419438 -0.822075 -0.30581 0.480803 -0.821772 
-0.139038 0.462128 -0.875846 -0.0346334 0.439185 -0.897729 0.0961378 0.473423 -0.875573 
0.183883 0.577358 -0.795515 0.360418 0.6585 -0.660663 -0.255555 -0.545228 -0.798385 
-0.187856 -0.664618 -0.723182 -0.0620452 -0.988023 -0.141285 0.0389675 -0.800933 -0.597484 
0.109302 -0.990327 -0.0854684 0.306365 -0.778362 -0.54799 0.401074 -0.807834 -0.431908 
-0.402619 -0.67361 -0.619796 -0.260538 -0.464562 -0.846346 -0.231181 -0.307605 -0.923003 
-0.264982 -0.536037 -0.801529 0.39239 -0.812994 -0.430198 0.243107 -0.837822 -0.488828 
0.105282 -0.85745 -0.503682 0.151408 -0.843646 -0.51511 0.331124 -0.771228 -0.543659 
-0.607586 -0.369418 -0.703114 -0.241223 -0.222394 -0.944644 -0.283065 -0.150616 -0.947201 
-0.279499 -0.233376 -0.931352 0.334446 -0.770443 -0.542737 0.53118 -0.647803 -0.546076 
-0.742545 -0.185557 -0.64358 -0.34173 -0.0560583 -0.938125 -0.438031 -0.0950836 -0.893917 
0.588403 -0.552763 -0.590115 0.729682 -0.320527 -0.604009 -0.663073 0.0648037 -0.745744 
-0.271986 0.0764545 -0.959259 -0.405455 0.010071 -0.91406 -0.261925 0.093761 -0.960523 
0.73045 -0.316782 -0.605055 -0.617915 -0.134391 -0.774674 -0.377684 0.0611205 -0.923915 
-0.250481 0.0953625 -0.963413 -0.264288 0.102814 -0.958948 0.716713 -0.110711 -0.688524 
-0.513744 -0.0253045 -0.85757 -0.296318 0.0842157 -0.951369 -0.279314 0.0375105 -0.959467 
-0.24837 0.0819098 -0.965196 0.657656 0.197911 -0.726856 0.628476 0.280156 -0.725624 
-0.561216 0.184842 -0.806765 -0.337706 0.0672895 -0.938843 -0.324364 -0.0534665 -0.94442 
-0.312813 0.00835743 -0.949778 0.589695 0.33686 -0.73402 0.394884 0.501378 -0.769861 
0.659902 0.33707 -0.671501 -0.447947 0.0906863 -0.889449 -0.341313 -0.0756849 -0.936898 
-0.360053 -0.0229029 -0.932651 0.37725 0.508404 -0.774085 0.358482 0.487572 -0.796093 
0.402142 0.531013 -0.74586 0.675013 0.56233 -0.477642 -0.577886 0.144839 -0.803162 
-0.447677 0.0219491 -0.893926 -0.485767 0.0558529 -0.872302 0.376837 0.454197 -0.807279 
0.413292 0.458522 -0.786732 0.419195 0.539353 -0.730325 -0.705417 0.411026 -0.577447 
-0.478107 0.191889 -0.857084 -0.539568 0.208287 -0.815771 -0.38476 0.45971 -0.800392 
0.429534 0.486154 -0.761022 0.440098 0.54166 -0.716183 0.485284 0.596361 -0.639416 
-0.613208 0.680773 -0.400655 -0.351655 0.539145 -0.765285 -0.376161 0.589414 -0.714909 
-0.318515 0.6472 -0.69259 -0.146587 0.766658 -0.625098 -0.0134922 0.821142 -0.570565 
0.128335 0.810109 -0.57206 0.24274 0.788627 -0.564929 0.41695 0.690446 -0.591132 
0.376229 0.734347 -0.564965 0.455205 0.845776 -0.278302 -0.101303 0.989963 -0.0985406 
0.0147102 0.995264 -0.0960852 0.148374 0.988296 0.0354548 -0.0534323 -0.993048 -0.104888 
0.113378 -0.992622 -0.0429842 -0.420679 -0.8511 -0.314099 -0.260214 -0.915541 -0.306714 
-0.0688353 -0.988936 -0.131407 -0.127725 -0.966913 -0.220831 -0.044273 -0.998281 -0.0384148 
0.144957 -0.988517 -0.0426823 0.11611 -0.993203 -0.00819276 0.393756 -0.918069 -0.0458796 
0.459714 -0.887749 -0.0237681 -0.547934 -0.743007 -0.384329 -0.64666 -0.597594 -0.474038 
0.389645 -0.920696 -0.0222567 0.221672 -0.974588 -0.0322588 0.0837466 -0.995969 -0.0321244 
0.146902 -0.988955 -0.0196951 0.369751 -0.928059 -0.0446172 -0.711172 -0.472543 -0.520517 
-0.77822 -0.28258 -0.560824 0.483157 -0.875412 -0.0146154 0.563351 -0.826017 -0.0181814 
-0.806701 -0.196721 -0.557256 0.734799 -0.675571 -0.0606149 0.768893 -0.634862 -0.0758605 
-0.67294 0.060314 -0.737234 0.892961 -0.426699 -0.14335 -0.625418 -0.135241 -0.768481 
0.972016 -0.178372 -0.152865 -0.661037 -0.0216226 -0.750042 -0.925494 0.0381638 -0.376836 
0.959803 0.115557 -0.255781 -0.622901 0.191389 -0.758528 -0.591364 0.21733 -0.776567 
0.842546 0.379063 -0.382659 -0.562183 0.218792 -0.797546 -0.639383 0.242062 -0.729792 
0.584856 0.675718 -0.448718 0.74133 0.557641 -0.373451 0.68944 0.613066 -0.385775 
-0.632043 0.229379 -0.740207 -0.797774 0.472931 -0.374022 0.58485 0.675697 -0.448759 
0.553239 0.70753 -0.43969 0.585399 0.676221 -0.44725 -0.716959 0.421499 -0.555256 
-0.71551 0.433173 -0.548093 0.552238 0.721258 -0.418115 0.509419 0.787236 -0.347494 
0.562199 0.787202 -0.253468 -0.625554 0.708621 -0.326404 -0.595493 0.744755 -0.30121 
-0.383902 0.879692 -0.280644 -0.199907 0.973818 -0.10824 0.245483 0.969324 0.0121845 
0.307075 0.951 -0.0361179 0.446485 0.872689 -0.197652 0.427996 0.887827 -0.169067 
-0.120252 0.991802 -0.043232 -0.0823649 0.995933 0.036521 0.0279456 0.996714 0.0760344 
0.149691 0.987875 0.0411834 0.148302 0.987942 0.0444693 -0.403379 -0.892078 0.203671 
-0.202449 -0.946272 0.252157 -0.0473889 -0.959827 0.276561 -0.0059996 -0.962653 0.270671 
0.131313 -0.965679 0.224102 0.352291 -0.914672 0.198158 0.447495 -0.884086 0.134684 
-0.521451 -0.827652 0.207557 -0.575378 -0.795025 0.19203 -0.336095 -0.732361 0.592189 
-0.132802 -0.683854 0.717431 0.420963 -0.896118 0.140578 0.450779 -0.863888 0.224711 
0.267891 -0.940327 0.209809 0.125627 -0.956278 0.264104 0.139964 -0.930049 0.339734 
0.36227 -0.863718 0.350359 -0.79258 -0.599846 0.109554 -0.828268 -0.549338 0.110451 
0.199886 -0.825929 0.527149 0.405995 -0.84673 0.343827 0.35855 -0.8347 0.417994 
0.54344 -0.772977 0.327383 -0.90452 -0.424704 0.0383383 -0.651022 -0.413134 0.636782 
0.654848 -0.680708 0.328345 0.517273 -0.612794 0.597422 0.728119 -0.608908 0.31476 
-0.960293 -0.263334 -0.0921518 0.829854 -0.471325 0.298656 0.681486 -0.469604 0.561293 
-0.961765 -0.132102 -0.239911 -0.959057 -0.0931824 -0.267444 0.931232 -0.246002 0.268869 
-0.942219 0.0327878 -0.333388 -0.929558 0.117127 -0.349577 0.979392 0.0188566 0.201086 
-0.915504 0.213984 -0.340682 0.946407 0.300156 0.119249 -0.914003 0.302649 -0.270189 
0.838929 0.537372 0.0861926 0.77667 0.627389 0.0562787 0.717925 0.48004 0.504128 
-0.839612 0.499278 -0.213946 -0.820266 0.540697 -0.186573 0.688904 0.724734 -0.013114 
0.641363 0.766973 -0.0201563 -0.77732 0.621849 -0.0952787 -0.680781 0.732044 -0.0254642 
0.40042 0.911495 0.0940268 0.552463 0.833518 0.005719 0.529189 0.848328 0.0172803 
0.497093 0.823244 0.274168 -0.510921 0.853245 0.104561 -0.463338 0.874775 0.141726 
-0.431921 0.849767 0.302227 -0.277983 0.941179 0.192116 -0.073931 0.958286 0.276084 
-0.0160523 0.942035 0.335131 0.0556867 0.932545 0.356735 0.135888 0.913796 0.382769 
0.187413 0.91266 0.363219 0.149149 0.768982 0.621628 0.210037 0.921324 0.327179 
0.170984 0.853217 0.492732 0.282276 0.93623 0.20927 0.268016 0.937075 0.223737 
0.260156 0.931581 0.253921 -0.161722 -0.715969 0.679142 -0.125936 -0.79794 0.589433 
0.044895 -0.862394 0.504242 0.308818 -0.844255 0.438024 -0.445893 -0.545296 0.709811 
-0.297875 -0.62076 0.725208 -0.135334 -0.676728 0.723688 -0.13222 -0.66956 0.730895 
-0.180018 -0.64848 0.73964 -0.149282 -0.649274 0.74576 0.023246 -0.646861 0.762254 
0.398497 -0.804151 0.441068 0.282916 -0.742885 0.606697 0.444112 -0.754615 0.483032 
0.281007 -0.746037 0.603708 0.176666 -0.794125 0.581511 -0.499022 -0.493109 0.712615 
-0.428865 -0.471552 0.770528 -0.25632 -0.388408 0.885121 -0.140276 -0.337922 0.930662 
-0.149551 -0.329559 0.932215 -0.151594 -0.244913 0.95762 0.195077 -0.270795 0.942664 
0.361435 -0.41439 0.835252 0.24633 -0.646912 0.721683 0.184624 -0.785271 0.590985 
0.172145 -0.777414 0.604974 0.211878 -0.740348 0.63796 0.326194 -0.675561 0.661222 
-0.603913 -0.401138 0.688751 -0.628563 -0.386205 0.675096 -0.332054 -0.314787 0.889185 
-0.159923 -0.218062 0.962743 -0.131171 -0.192805 0.97243 -0.117842 -0.137493 0.983468 
0.180565 -0.122972 0.975845 0.0748828 -0.301432 0.950543 0.035541 -0.424324 0.904813 
0.134918 -0.49993 0.855492 0.460831 -0.591963 0.661223 0.320781 -0.560375 0.763597 
0.496158 -0.559485 0.66393 -0.719439 -0.324052 0.614328 -0.590476 -0.314732 0.743157 
-0.256371 -0.191099 0.9475 -0.145346 -0.136304 0.979947 0.0655013 -0.14498 0.987264 
-0.0679198 -0.140028 0.987815 0.240001 -0.296647 0.924338 0.605334 -0.447931 0.657973 
0.439091 -0.394675 0.807113 0.654503 -0.37261 0.657866 -0.824054 -0.273025 0.49638 
-0.889701 -0.0978548 0.445933 -0.478887 -0.154877 0.864107 -0.115874 -0.193184 0.974296 
0.359716 -0.1708 0.917296 0.726096 -0.243753 0.642938 0.615244 -0.236989 0.751872 
-0.908843 -0.0295671 0.41609 -0.903698 0.0740021 0.421726 -0.881522 -0.031908 0.471063 
-0.450739 -0.0530929 0.891075 0.103137 0.0385077 0.993921 -0.0476896 0.110716 0.992707 
0.0396369 0.0210714 0.998992 -0.0256384 0.107862 0.993835 0.323358 -0.0131942 0.946185 
0.762237 -0.0399853 0.646062 0.596892 -0.0472129 0.800931 -0.883942 0.230088 0.40707 
-0.448504 0.0193706 0.893571 0.102965 -0.0684753 0.992325 0.0101541 -0.0969002 0.995242 
-0.202309 -0.0308691 0.978835 -0.00771487 -0.0707602 0.997464 0.285365 0.0545678 0.956864 
0.786393 0.204535 0.582882 0.700305 0.432811 0.567669 0.640015 0.192055 0.743973 
-0.808557 0.356139 0.468403 -0.620135 0.361007 0.696496 -0.198294 0.229757 0.952833 
-0.117206 0.0273688 0.99273 0.0275393 0.141073 0.989616 6.78714e-05 -0.0355457 0.999368 
0.103174 0.223187 0.9693 0.684959 0.462201 0.563206 0.418926 0.306478 0.854735 
-0.736525 0.491104 0.465133 -0.721164 0.501316 0.478127 -0.702112 0.493346 0.513467 
-0.393124 0.279196 0.876073 -0.221574 0.204262 0.95351 0.0551003 0.100285 0.993432 
-0.0267746 0.189953 0.981428 -0.00829455 0.196475 0.980474 -0.00139405 0.225554 0.97423 
0.139232 0.318756 0.937555 0.434314 0.731288 0.525917 0.334714 0.455926 0.82468 
0.585623 0.626856 0.513904 0.577715 0.635618 0.512089 0.56685 0.6208 0.54156 
-0.593832 0.636016 0.492796 -0.550641 0.66349 0.506533 -0.540201 0.613734 0.575771 
-0.353263 0.741238 0.570764 -0.266216 0.459545 0.847318 -0.172074 0.334357 0.926605 
-0.0380692 0.345852 0.937517 0.0231992 0.323107 0.946078 0.119164 0.30825 0.943812 
0.12484 0.309592 0.942639 0.132685 0.715334 0.68607 0.0609674 0.413127 0.90863 
0.120308 0.730365 0.672378 0.0491016 0.49323 0.868512 0.174488 0.753956 0.633328 
0.132957 0.558784 0.818586 0.380373 0.746883 0.54542 0.288559 0.739721 0.607904 
0.253725 0.673785 0.694001 -0.25339 0.768664 0.587324 -0.203693 0.760044 0.617124 
-0.191864 0.734539 0.650877 -0.0612169 0.784485 0.617118 -0.0610743 0.72516 0.685866 
0.00684566 0.787325 0.6165 0.013055 0.714515 0.699498 0.0755504 0.751475 0.655421 
0.0807543 0.693498 0.715918 0.132989 0.72436 0.676474 0.127297 0.720103 0.68209 
0.126199 0.694888 0.707958 -0.0108242 -0.309034 0.95099 -0.100115 -0.247695 0.963651 
-0.138437 -0.188833 0.972202 0.16103 -0.267758 0.949934 -0.0178169 -0.257876 0.966014 
0.191806 -0.2478 0.949634 -0.0828357 -0.090727 0.992425 -0.115836 -0.125423 0.985318 
-0.094407 -0.102438 0.990249 -0.106726 -0.0702803 0.991802 -0.0202214 0.0124307 0.999718 
0.173407 -0.0764214 0.981881 0.1669 -0.033205 0.985415 -0.0501278 -0.236265 0.970395 
0.0822108 -0.273553 0.958337 -0.0904925 -0.0844211 0.992313 -0.0340287 -0.0780691 0.996367 
-0.0759167 -0.0723136 0.994489 -0.0391248 -0.0183976 0.999065 -0.00168559 -0.0423467 0.999102 
0.0170037 0.0947482 0.995356 0.0647788 -0.0782119 0.99483 0.063411 -0.0186205 0.997814 
0.0661737 -0.115837 0.991061 -0.0663531 -0.170949 0.983043 -0.0165867 -0.0211072 0.99964 
-0.0639086 -0.19653 0.978413 0.141945 -0.253216 0.956939 0.0760839 -0.227828 0.970724 
0.199779 -0.196109 0.960015 -0.0403669 -0.0989562 0.994273 -0.139509 -0.145648 0.979451 
-0.0208085 -0.0719648 0.99719 0.00637626 0.0361646 0.999326 -0.00299272 0.0357548 0.999356 
-0.0849417 0.108649 0.990444 -0.0874245 0.107928 0.990307 0.00263141 0.00374042 0.99999 
0.00865463 -0.0170712 0.999817 0.0330959 0.0227382 0.999193 -0.089182 0.0304578 0.99555 
0.0758686 -0.0591708 0.995361 0.00696972 0.0549128 0.998467 0.0133354 0.0435874 0.998961 
-0.0745654 0.00928911 0.997173 0.0199768 -0.0430406 0.998874 0.230945 -0.127778 0.96454 
0.163474 -0.108443 0.980569 -0.238969 -0.0421547 0.970112 -0.197437 -0.0397912 0.979508 
0.0802163 0.0179101 0.996617 0.0637036 0.00205826 0.997967 -0.11736 0.135982 0.983736 
-0.173808 0.0635747 0.982725 -0.147151 0.14176 0.978903 0.0401759 0.0106222 0.999136 
0.0465154 -0.0973358 0.994164 0.0542152 0.0369878 0.997844 0.0414783 0.0233939 0.998865 
0.0712078 0.0701228 0.994994 0.0827198 0.0653281 0.994429 -0.122528 0.0581821 0.990758 
-0.153238 0.0439907 0.98721 -0.043377 0.0438942 0.998094 0.241399 0.00193201 0.970424 
0.116821 0.0202196 0.992947 -0.17032 0.080776 0.982072 -0.0750642 0.141876 0.987034 
-0.0555788 0.119167 0.991317 0.0588323 0.0205064 0.998057 0.0134812 0.0285381 0.999502 
0.0548287 0.0291673 0.99807 0.0474778 -0.0615575 0.996974 -0.0125314 -0.155009 0.987833 
-0.171616 -0.0149761 0.98505 -0.129272 -0.0591625 0.989843 -0.0949894 0.0206052 0.995265 
0.0464648 0.100384 0.993863 0.0600226 0.0529333 0.996793 0.136139 -0.0114766 0.990623 
0.173005 0.00870097 0.984883 -0.112953 0.000951944 0.9936 -0.139716 0.0189852 0.99001 
-0.00325235 0.065213 0.997866 0.157909 0.0643706 0.985353 0.104685 0.181932 0.977723 
0.113885 0.0714903 0.990918 -0.0987148 0.0114112 0.99505 -0.0250127 -0.0531655 0.998272 
-0.0146074 -0.162014 0.98668 -0.020671 -0.0963297 0.995135 0.0784693 0.111658 0.990644 
0.111766 0.0894311 0.989702 -0.0384151 0.0804779 0.996016 -0.0274079 0.0352407 0.999003 
-0.0421694 0.0829501 0.995661 -0.0432377 0.0766182 0.996123 -0.0125125 0.0293625 0.99949 
-0.0189435 0.0762545 0.996908 -0.0196746 0.0655591 0.997655 0.0649882 0.170671 0.983183 
0.0419729 0.145933 0.988404 0.0106237 0.0945295 0.995465 -0.138709 0.143506 0.979881 
-0.103573 0.148784 0.983431 -0.0852778 0.107474 0.990544 -0.03926 0.233467 0.971572 
-0.0458414 0.0464821 0.997867 0.0333366 0.249 0.96793 0.0606736 0.0826662 0.994729 
0.140749 0.0913633 0.985821 0.140853 0.0918633 0.985759 0.140904 0.0913615 0.985799 

