# vtk DataFile Version 4.2
vtk output
ASCII
DATASET POLYDATA
POINTS 520 float
-23.9217 -28.2164 -16.6853 -16.298 -28.2164 -16.6318 -8.67431 -28.2164 -16.937 
-1.05062 -28.2164 -16.5914 6.57308 -28.2164 -16.3277 14.1968 -28.2164 -16.4836 
21.8205 -28.2164 -15.7827 -39.1691 -20.5927 -17.203 -31.5454 -20.5927 -19.1702 
-23.9217 -20.5927 -18.8092 -16.298 -20.5927 -18.2416 -8.67431 -20.5927 -18.7432 
-1.05062 -20.5927 -19.7618 6.57308 -20.5927 -19.6504 14.1968 -20.5927 -19.0014 
21.8205 -20.5927 -18.1186 29.4442 -20.5927 -16.6251 -46.7928 -12.969 -15.9694 
-39.1691 -12.969 -19.8 -31.5454 -12.969 -20.7269 -23.9217 -12.969 -19.9794 
-16.298 -12.969 -18.5917 -8.67431 -12.969 -19.1604 -1.05062 -12.969 -21.5678 
6.57308 -12.969 -21.5692 14.1968 -12.969 -20.4264 21.8205 -12.969 -18.834 
29.4442 -12.969 -17.6684 37.0679 -12.969 -16.1348 -46.7928 -5.34532 -17.6889 
-39.1691 -5.34532 -21.3888 -31.5454 -5.34532 -22.2434 -23.9217 -5.34532 -20.8583 
-16.298 -5.34532 -19.1086 -8.67431 -5.34532 -20.2876 -1.05062 -5.34532 -21.1795 
6.57308 -5.34532 -20.8178 14.1968 -5.34532 -21.0812 21.8205 -5.34532 -18.6806 
29.4442 -5.34532 -17.4336 37.0679 -5.34532 -16.0981 -46.7928 2.27838 -17.8658 
-39.1691 2.27838 -21.6152 -31.5454 2.27838 -22.5586 -23.9217 2.27838 -21.1705 
-16.298 2.27838 -20.3527 -8.67431 2.27838 -22.9192 -1.05062 2.27838 -21.2524 
6.57308 2.27838 -20.6639 14.1968 2.27838 -21.9234 21.8205 2.27838 -18.9714 
29.4442 2.27838 -17.4485 37.0679 2.27838 -16.1505 -46.7928 9.90207 -17.0068 
-39.1691 9.90207 -20.7413 -31.5454 9.90207 -21.9122 -23.9217 9.90207 -21.5464 
-16.298 9.90207 -20.4128 -8.67431 9.90207 -20.9054 -1.05062 9.90207 -20.795 
6.57308 9.90207 -21.187 14.1968 9.90207 -21.53 21.8205 9.90207 -19.1354 
29.4442 9.90207 -17.1983 37.0679 9.90207 -16.0649 -39.1691 17.5258 -19.6377 
-31.5454 17.5258 -20.9008 -23.9217 17.5258 -21.3276 -16.298 17.5258 -20.9759 
-8.67431 17.5258 -20.6893 -1.05062 17.5258 -21.0721 6.57308 17.5258 -21.5377 
14.1968 17.5258 -20.9458 21.8205 17.5258 -18.6684 29.4442 17.5258 -16.5945 
-39.1691 25.1495 -16.7464 -31.5454 25.1495 -20.0012 -23.9217 25.1495 -20.9817 
-16.298 25.1495 -21.348 -8.67431 25.1495 -21.8486 -1.05062 25.1495 -21.5258 
6.57308 25.1495 -21.6794 14.1968 25.1495 -20.1646 21.8205 25.1495 -17.518 
-31.5454 32.7732 -16.5147 -23.9217 32.7732 -19.3124 -16.298 32.7732 -20.442 
-8.67431 32.7732 -20.7134 -1.05062 32.7732 -20.4946 6.57308 32.7732 -19.7781 
14.1968 32.7732 -17.8536 -16.298 40.3969 -15.9318 -8.67431 40.3969 -16.5185 
-1.05062 40.3969 -15.8489 -23.9217 -29.6094 -15.7661 -23.9217 -35.8401 -9.84202 
-16.298 -29.7881 -15.7661 -16.298 -35.8401 -11.1673 -8.67431 -30.31 -15.7661 
-8.67431 -35.8401 -11.6962 -1.05062 -29.6809 -15.7661 -1.05062 -35.8401 -11.617 
6.57308 -29.2078 -15.7661 6.57308 -35.8401 -11.3519 14.1968 -29.4271 -15.7661 
14.1968 -35.8401 -11.0138 21.8205 -28.2441 -15.7661 21.8205 -35.8401 -9.98061 
-39.1691 -23.1783 -15.7661 -39.1691 -28.2164 -11.2722 -28.8154 -28.2164 -15.7661 
-31.5454 -27.1759 -15.7661 -31.5454 -28.2164 -15.0996 21.897 -28.2164 -15.7661 
29.4442 -23.2652 -15.7661 29.4442 -28.2164 -13.943 37.0679 -28.2164 -10.7534 
-41.9656 -20.5927 -15.7661 -46.7928 -13.4577 -15.7661 -46.7928 -20.5927 -11.4948 
32.3388 -20.5927 -15.7661 37.0679 -14.6784 -15.7661 37.0679 -20.5927 -14.3361 
44.6916 -20.5927 -9.94932 -47.013 -12.969 -15.7661 38.0672 -12.969 -15.7661 
44.6916 -12.969 -12.6255 -48.787 -5.34532 -15.7661 38.1989 -5.34532 -15.7661 
44.6916 -5.34532 -13.7337 52.3153 -5.34532 -8.79298 -48.955 2.27838 -15.7661 
38.3516 2.27838 -15.7661 44.6916 2.27838 -13.7715 52.3153 2.27838 -8.97492 
-48.0605 9.90207 -15.7661 -46.7928 14.8688 -15.7661 38.1344 9.90207 -15.7661 
37.0679 11.3978 -15.7661 44.6916 9.90207 -13.4585 -45.9281 17.5258 -15.7661 
-46.7928 17.5258 -14.8232 32.3436 17.5258 -15.7661 29.4442 21.1813 -15.7661 
37.0679 17.5258 -14.4659 44.6916 17.5258 -11.2818 -40.4262 25.1495 -15.7661 
-39.1691 26.6519 -15.7661 26.8926 25.1495 -15.7661 21.8205 30.427 -15.7661 
29.4442 25.1495 -14.8673 37.0679 25.1495 -11.3564 -32.8961 32.7732 -15.7661 
-31.5454 33.7174 -15.7661 -23.9217 37.746 -15.7661 6.57308 38.7432 -15.7661 
19.6641 32.7732 -15.7661 14.1968 35.8225 -15.7661 21.8205 32.7732 -14.7772 
29.4442 32.7732 -10.7172 -16.8668 40.3969 -15.7661 -23.9217 40.3969 -9.87925 
-16.298 40.5434 -15.7661 -8.67431 41.1115 -15.7661 -0.611891 40.3969 -15.7661 
-1.05062 40.4728 -15.7661 6.57308 40.3969 -13.6589 14.1968 40.3969 -10.7505 
-23.9217 -37.0977 -8.14244 -16.298 -38.3186 -8.14244 -8.67431 -38.9516 -8.14244 
-1.05062 -39.0833 -8.14244 6.57308 -38.9311 -8.14244 14.1968 -38.5364 -8.14244 
21.8205 -37.4744 -8.14244 -39.1691 -30.4629 -8.14244 -27.6869 -35.8401 -8.14244 
-31.5454 -34.4354 -8.14244 -31.5454 -35.8401 -3.74254 28.3524 -35.8401 -8.14244 
29.4442 -35.502 -8.14244 29.4442 -35.8401 -7.55841 37.0679 -30.8552 -8.14244 
-42.0941 -28.2164 -8.14244 -46.7928 -23.5146 -8.14244 40.3131 -28.2164 -8.14244 
44.6916 -23.2206 -8.14244 -48.895 -20.5927 -8.14244 46.6478 -20.5927 -8.14244 
-52.2191 -12.969 -8.14244 50.1795 -12.969 -8.14244 52.3153 -7.37896 -8.14244 
52.3153 -12.969 -5.02888 -53.4928 -5.34532 -8.14244 -54.4165 -5.34532 -0.968201 
52.9785 -5.34532 -8.14244 -53.7619 2.27838 -8.14244 -54.4165 2.27838 -3.69812 
53.1738 2.27838 -8.14244 52.3153 7.45201 -8.14244 -53.0581 9.90207 -8.14244 
51.7947 9.90207 -8.14244 52.3153 9.90207 -7.51255 -50.6344 17.5258 -8.14244 
-46.7928 24.5448 -8.14244 48.6919 17.5258 -8.14244 44.6916 22.8011 -8.14244 
52.3153 17.5258 -2.3142 -46.4105 25.1495 -8.14244 -46.7928 25.1495 -3.71196 
-39.1691 32.5754 -8.14244 42.034 25.1495 -8.14244 37.0679 29.3311 -8.14244 
44.6916 25.1495 -5.09311 -38.9056 32.7732 -8.14244 -31.5454 37.5441 -8.14244 
21.8205 39.2474 -8.14244 33.1961 32.7732 -8.14244 29.4442 35.2485 -8.14244 
37.0679 32.7732 -2.93498 -25.1304 40.3969 -8.14244 -23.9217 40.8944 -8.14244 
-23.9217 40.3969 -4.70558 -16.298 43.0237 -8.14244 -8.67431 43.913 -8.14244 
-1.05062 43.7318 -8.14244 6.57308 43.1762 -8.14244 18.9548 40.3969 -8.14244 
14.1968 41.9429 -8.14244 21.8205 40.3969 -4.89686 -31.5454 -36.8078 -0.518744 
-23.9217 -39.78 -0.518744 -16.298 -41.4774 -0.518744 -8.67431 -42.4184 -0.518744 
-1.05062 -42.9187 -0.518744 6.57308 -42.9702 -0.518744 14.1968 -42.4597 -0.518744 
21.8205 -41.162 -0.518744 29.4442 -38.66 -0.518744 -33.4629 -35.8401 -0.518744 
-39.1691 -32.6961 -0.518744 34.7049 -35.8401 -0.518744 37.0679 -34.4312 -0.518744 
-44.5803 -28.2164 -0.518744 -46.7928 -25.7513 -0.518744 44.6878 -28.2164 -0.518744 
44.6916 -28.2125 -0.518744 -50.2139 -20.5927 -0.518744 50.7752 -20.5927 -0.518744 
52.3153 -17.6558 -0.518744 -53.1577 -12.969 -0.518744 -54.4165 -5.68544 -0.518744 
54.5499 -12.969 -0.518744 -54.4725 -5.34532 -0.518744 -54.4165 -5.34532 -0.302911 
57.0777 -5.34532 -0.518744 -54.857 2.27838 -0.518744 -54.4165 6.9512 -0.518744 
-54.4165 2.27838 1.14455 57.3047 2.27838 -0.518744 -54.1353 9.90207 -0.518744 
56.1726 9.90207 -0.518744 -51.6442 17.5258 -0.518744 53.2218 17.5258 -0.518744 
52.3153 18.9103 -0.518744 52.3153 17.5258 5.84528 -47.0611 25.1495 -0.518744 
-46.7928 25.511 -0.518744 -46.7928 25.1495 0.0586923 -39.1691 32.266 -0.518744 
47.336 25.1495 -0.518744 44.6916 27.6825 -0.518744 -38.2216 32.7732 -0.518744 
-31.5454 36.237 -0.518744 -31.5454 32.7732 6.24723 -23.9217 39.6968 -0.518744 
29.4442 38.1466 -0.518744 38.5272 32.7732 -0.518744 37.0679 33.7943 -0.518744 
37.0679 32.7732 4.86032 -21.1916 40.3969 -0.518744 -16.298 41.5452 -0.518744 
-16.298 40.3969 1.79208 -8.67431 42.7746 -0.518744 -8.67431 40.3969 4.86023 
-1.05062 43.3115 -0.518744 -1.05062 40.3969 6.69306 6.57308 43.4867 -0.518744 
14.1968 43.1316 -0.518744 24.6347 40.3969 -0.518744 21.8205 41.5454 -0.518744 
21.8205 40.3969 3.65072 -31.5454 -36.268 7.10495 -23.9217 -39.3336 7.10495 
-16.298 -41.3348 7.10495 -8.67431 -42.4921 7.10495 -1.05062 -43.1506 7.10495 
6.57308 -43.2448 7.10495 14.1968 -42.5453 7.10495 21.8205 -40.861 7.10495 
29.4442 -38.1387 7.10495 -32.3297 -35.8401 7.10495 -39.1691 -31.4894 7.10495 
-31.5454 -35.8401 7.95233 -23.9217 -35.8401 13.4924 33.5361 -35.8401 7.10495 
29.4442 -35.8401 11.2417 37.0679 -33.6419 7.10495 -42.7172 -28.2164 7.10495 
-46.7928 -23.061 7.10495 -39.1691 -28.2164 11.8175 43.7582 -28.2164 7.10495 
37.0679 -28.2164 14.4858 44.6916 -27.2453 7.10495 -48.4255 -20.5927 7.10495 
-46.7928 -20.5927 9.62247 49.9473 -20.5927 7.10495 44.6916 -20.5927 14.7131 
52.3153 -16.1088 7.10495 -51.1822 -12.969 7.10495 -46.7928 -12.969 13.032 
53.8151 -12.969 7.10495 52.3153 -12.969 9.64132 -52.2888 -5.34532 7.10495 
-46.7928 -5.34532 14.2387 56.1842 -5.34532 7.10495 52.3153 -5.34532 13.2832 
-52.6294 2.27838 7.10495 -46.7928 2.27838 14.2953 56.2575 2.27838 7.10495 
52.3153 2.27838 13.0497 -51.6948 9.90207 7.10495 -46.7928 9.90207 13.0405 
55.1039 9.90207 7.10495 52.3153 17.0824 7.10495 52.3153 9.90207 11.127 
-48.8959 17.5258 7.10495 -46.7928 20.4179 7.10495 -46.7928 17.5258 9.39552 
-39.1691 17.5258 14.2839 52.1144 17.5258 7.10495 -42.7098 25.1495 7.10495 
-39.1691 28.0749 7.10495 -39.1691 25.1495 10.1477 -31.5454 32.2073 7.10495 
-31.5454 25.1495 12.8731 37.0679 32.2728 7.10495 37.0679 25.1495 14.1633 
46.0255 25.1495 7.10495 44.6916 26.4361 7.10495 44.6916 25.1495 8.70728 
-30.1876 32.7732 7.10495 -23.9217 34.9728 7.10495 -23.9217 32.7732 9.53713 
-16.298 37.3874 7.10495 -16.298 32.7732 12.2986 -8.67431 39.2451 7.10495 
-8.67431 32.7732 14.4088 -1.05062 40.1955 7.10495 -1.05062 32.7732 14.4913 
6.57308 32.7732 14.1728 14.1968 32.7732 14.2986 21.8205 39.1363 7.10495 
21.8205 32.7732 13.4836 36.2998 32.7732 7.10495 29.4442 36.4891 7.10495 
29.4442 32.7732 11.972 2.71796 40.3969 7.10495 6.57308 40.5858 7.10495 
6.57308 40.3969 7.36458 14.4857 40.3969 7.10495 14.1968 40.4398 7.10495 
14.1968 40.3969 7.16424 -16.298 -37.075 14.7287 -8.67431 -38.5003 14.7287 
-1.05062 -38.8505 14.7287 6.57308 -38.9804 14.7287 14.1968 -38.3236 14.7287 
21.8205 -36.1531 14.7287 -31.5454 -30.6411 14.7287 -20.8423 -35.8401 14.7287 
[...]
POINT_DATA 520
SCALARS ImageScalars float
LOOKUP_TABLE default
0 0 0 0 0 0 0 0 0 
0 0 0 0 0 0 0 0 0 
0 0 0 0 0 0 0 0 0 
0 0 0 0 0 0 0 0 0 
0 0 0 0 0 0 0 0 0 
0 0 0 0 0 0 0 0 0 
0 0 0 0 0 0 0 0 0 
0 0 0 0 0 0 0 0 0 
0 0 0 0 0 0 0 0 0 
0 0 0 0 0 0 0 0 0 
0 0 0 0 0 0 0 0 0 
0 0 0 0 0 0 0 0 0 
0 0 0 0 0 0 0 0 0 
0 0 0 0 0 0 0 0 0 
0 0 0 0 0 0 0 0 0 
0 0 0 0 0 0 0 0 0 
0 0 0 0 0 0 0 0 0 
0 0 0 0 0 0 0 0 0 
0 0 0 0 0 0 0 0 0 
0 0 0 0 0 0 0 0 0 
0 0 0 0 0 0 0 0 0 
0 0 0 0 0 0 0 0 0 
0 0 0 0 0 0 0 0 0 
0 0 0 0 0 0 0 0 0 
0 0 0 0 0 0 0 0 0 
0 0 0 0 0 0 0 0 0 
0 0 0 0 0 0 0 0 0 
0 0 0 0 0 0 0 0 0 
0 0 0 0 0 0 0 0 0 
0 0 0 0 0 0 0 0 0 
0 0 0 0 0 0 0 0 0 
0 0 0 0 0 0 0 0 0 
0 0 0 0 0 0 0 0 0 
0 0 0 0 0 0 0 0 0 
0 0 0 0 0 0 0 0 0 
0 0 0 0 0 0 0 0 0 
0 0 0 0 0 0 0 0 0 
0 0 0 0 0 0 0 0 0 
0 0 0 0 0 0 0 0 0 
0 0 0 0 0 0 0 0 0 
0 0 0 0 0 0 0 0 0 
0 0 0 0 0 0 0 0 0 
0 0 0 0 0 0 0 0 0 
0 0 0 0 0 0 0 0 0 
0 0 0 0 0 0 0 0 0 
0 0 0 0 0 0 0 0 0 
0 0 0 0 0 0 0 0 0 
0 0 0 0 0 0 0 0 0 
0 0 0 0 0 0 0 0 0 
0 0 0 0 0 0 0 0 0 
0 0 0 0 0 0 0 0 0 
0 0 0 0 0 0 0 0 0 
0 0 0 0 0 0 0 0 0 
0 0 0 0 0 0 0 0 0 
0 0 0 0 0 0 0 0 0 
0 0 0 0 0 0 0 0 0 
0 0 0 0 0 0 0 0 0 
0 0 0 0 0 0 0 
NORMALS Normals float
0.076751 0.449988 0.88973 0.0158482 0.364389 0.931112 -0.00106337 0.381374 0.92442 
-0.0372085 0.448571 0.892972 -0.00586463 0.458601 0.888623 -0.032846 0.432483 0.901043 
-0.144704 0.426917 0.892638 0.340254 0.399761 0.851128 0.0971998 0.313808 0.944498 
-0.0589022 0.211544 0.975592 -0.00317001 0.122804 0.992426 0.0966072 0.13894 0.985577 
0.060094 0.30384 0.950826 -0.0476845 0.32076 0.94596 -0.0954756 0.247198 0.96425 
-0.147718 0.186621 0.971263 -0.229215 0.215147 0.949301 0.618562 0.260846 0.741175 
0.254842 0.255281 0.932677 0.00670659 0.193426 0.981092 -0.136696 0.126129 0.982551 
-0.0563764 0.0561997 0.996827 0.19957 0.0885527 0.975874 0.144215 0.0889622 0.985539 
-0.0738776 0.0721561 0.994654 -0.176572 0.129683 0.975707 -0.1791 0.0343748 0.98323 
-0.175876 0.0481861 0.983232 -0.289956 0.104304 0.951339 0.605868 0.0984073 0.789455 
0.237293 0.106871 0.965542 -0.0335538 0.116918 0.992575 -0.207904 0.079663 0.9749 
-0.0462686 0.118361 0.991892 0.147572 0.243341 0.958649 0.0244314 -0.0220025 0.999459 
-0.00589423 -0.0600659 0.998177 -0.139986 0.0980989 0.985282 -0.231311 0.00799733 0.972847 
-0.165057 -0.0150304 0.986169 -0.223843 0.000858572 0.974625 0.608624 -0.0346819 0.7927 
0.243701 -0.0379269 0.969109 -0.0362273 -0.0216936 0.999108 -0.144477 0.0437552 0.98854 
0.0925179 0.0854802 0.992035 0.0823917 0.0121046 0.996527 -0.146502 -0.027672 0.988823 
0.0510607 0.0259354 0.998359 -0.107087 0.0277644 0.993862 -0.292411 0.0292004 0.955847 
-0.176363 -0.0149171 0.984212 -0.224323 -0.00229118 0.974512 0.612409 -0.149002 0.776372 
0.271221 -0.130327 0.953653 0.0462852 -0.107806 0.993094 -0.0985357 0.0102958 0.99508 
-0.0432221 0.0412559 0.998213 0.0267561 -0.135045 0.990478 0.0192642 -0.00754119 0.999786 
0.0474443 0.0552468 0.997345 -0.127231 -0.0632869 0.989852 -0.278621 -0.0193809 0.960206 
-0.192639 -0.0518158 0.979901 -0.214315 -0.104592 0.971149 0.32468 -0.206129 0.923089 
0.110734 -0.117698 0.986856 0.00421993 -0.0361069 0.999339 -0.0418686 0.0613226 0.997239 
0.00636457 0.0626535 0.998015 0.0558001 0.0489811 0.99724 -0.00718782 0.031702 0.999472 
-0.183264 -0.0876059 0.979153 -0.271967 -0.100155 0.957081 -0.260781 -0.142496 0.954824 
0.494605 -0.443831 0.747248 0.231689 -0.264412 0.936166 0.0814784 -0.116846 0.989802 
0.0556763 -0.0347086 0.997845 0.0106375 0.00695567 0.999919 -0.010952 -0.0313029 0.99945 
-0.0865624 -0.109859 0.990171 -0.255774 -0.182277 0.949397 -0.32488 -0.217677 0.920364 
0.408142 -0.559875 0.721082 0.253303 -0.392655 0.884115 0.0817776 -0.298945 0.95076 
0.00480293 -0.301568 0.953433 -0.0604402 -0.321544 0.944964 -0.157578 -0.394248 0.905394 
-0.284959 -0.429446 0.856956 0.151447 -0.781853 0.604789 -0.00410883 -0.73799 0.6748 
-0.115515 -0.752207 0.648722 0.0991533 0.506134 0.856736 0.20115 0.799392 0.566137 
0.0261321 0.428139 0.903335 0.0860668 0.741521 0.665387 -0.00274194 0.458264 0.888812 
0.0208357 0.702432 0.711446 -0.0379776 0.481469 0.87564 -0.0174247 0.67569 0.73698 
-0.007652 0.478631 0.877983 -0.0303757 0.668349 0.743228 -0.0352585 0.465805 0.884185 
-0.0665232 0.695022 0.715905 -0.144783 0.427848 0.892179 -0.154618 0.736274 0.658783 
0.373855 0.486418 0.789703 0.482605 0.699523 0.52703 0.181174 0.538873 0.822673 
0.216797 0.550282 0.806343 0.24212 0.59457 0.766724 -0.145974 0.427179 0.892306 
-0.242777 0.297277 0.92341 -0.274181 0.47161 0.838098 -0.460071 0.56706 0.683211 
0.454308 0.430821 0.779742 0.622864 0.274033 0.732766 0.714378 0.49338 0.496226 
-0.275225 0.243343 0.930073 -0.304643 0.143511 0.941593 -0.367393 0.286503 0.884838 
-0.613968 0.40225 0.679145 0.628347 0.261162 0.732785 -0.315697 0.115018 0.941863 
-0.514521 0.203293 0.833031 0.697196 0.0948309 0.710581 -0.248274 0.00612973 0.96867 
-0.415706 0.0614587 0.90742 -0.709308 0.139058 0.691047 0.70429 -0.0368263 0.708956 
-0.251053 -0.0011568 0.967973 -0.4077 -0.0142679 0.913005 -0.701358 -0.0556829 0.710631 
0.669169 -0.150778 0.727653 0.670585 -0.246902 0.699539 -0.243702 -0.110355 0.963551 
-0.232327 -0.129743 0.963946 -0.453569 -0.145067 0.879335 0.653769 -0.294006 0.697242 
0.709906 -0.314092 0.630381 -0.280384 -0.175688 0.943673 -0.286741 -0.2111 0.934461 
-0.315971 -0.243035 0.917113 -0.483449 -0.34887 0.802849 0.533019 -0.468008 0.704883 
0.520755 -0.495183 0.695419 -0.316213 -0.262987 0.911508 -0.353927 -0.383906 0.852849 
-0.322661 -0.298112 0.898342 -0.45386 -0.478014 0.752006 0.445651 -0.583502 0.678911 
0.423385 -0.604392 0.674874 0.325929 -0.718303 0.614664 -0.187714 -0.689034 0.699997 
-0.342725 -0.454072 0.82241 -0.289052 -0.562235 0.774817 -0.371331 -0.480093 0.794748 
-0.452555 -0.610989 0.649528 0.166224 -0.789424 0.590914 0.343089 -0.926391 0.155207 
0.153729 -0.789716 0.593899 -0.00239222 -0.774789 0.632216 -0.120267 -0.753934 0.645848 
-0.115698 -0.756074 0.644179 -0.175537 -0.817825 0.548041 -0.254281 -0.845844 0.468923 
0.216961 0.840696 0.496144 0.109775 0.836793 0.536403 0.0437603 0.81832 0.573095 
-0.000741965 0.792991 0.609233 -0.0297344 0.777268 0.628467 -0.0788766 0.786202 0.612916 
-0.168206 0.790631 0.588735 0.515068 0.761044 0.394357 0.284375 0.838289 0.46519 
0.348948 0.827415 0.440022 0.392765 0.889827 0.232259 -0.312887 0.770238 0.55573 
-0.336181 0.762107 0.553331 -0.344021 0.783632 0.517272 -0.490516 0.673802 0.552617 
0.590337 0.713124 0.378096 0.741243 0.574683 0.34684 -0.550067 0.61813 0.561553 
-0.645014 0.482295 0.592747 0.804699 0.493606 0.329868 -0.684609 0.416461 0.598222 
0.911713 0.272613 0.307346 -0.696543 0.294495 0.654294 -0.72836 0.188188 0.658846 
-0.829649 0.343436 0.440152 0.952151 0.091642 0.291566 0.993171 0.106724 -0.0471213 
-0.732733 0.142948 0.665334 0.95169 -0.0281111 0.30577 0.995921 -0.0250422 0.0866873 
-0.733395 -0.0544857 0.677615 -0.712749 -0.166477 0.681377 0.933949 -0.1861 0.305132 
-0.696212 -0.215906 0.684597 -0.734171 -0.225614 0.640383 0.879953 -0.372336 0.295039 
0.802722 -0.536609 0.260171 -0.678106 -0.378566 0.629969 -0.555961 -0.540339 0.631618 
-0.851359 -0.462178 0.248153 0.793216 -0.551491 0.258197 0.808935 -0.587674 0.0162176 
0.602921 -0.779256 0.171015 -0.527209 -0.584315 0.61695 -0.518826 -0.605356 0.603626 
-0.619962 -0.666012 0.41482 0.597307 -0.78466 0.165932 0.465305 -0.879999 0.0953528 
-0.363483 -0.813999 0.453085 -0.495822 -0.668851 0.553895 -0.459086 -0.724296 0.514427 
-0.561433 -0.791074 0.242888 0.354048 -0.932896 0.0659904 0.335391 -0.939921 0.0637209 
0.328092 -0.939177 -0.1015 0.184603 -0.981291 0.054684 0.0493648 -0.995429 0.0817556 
-0.0475749 -0.987151 0.152545 -0.112314 -0.964453 0.2392 -0.309628 -0.862404 0.400488 
-0.228515 -0.911695 0.341457 -0.338558 -0.909283 0.242039 0.406333 0.908352 0.0989436 
0.275296 0.952452 0.130564 0.170028 0.970833 0.16904 0.0924515 0.975724 0.198534 
0.0355612 0.97452 0.221464 -0.0291628 0.972311 0.231865 -0.113944 0.969113 0.218716 
-0.238931 0.954232 0.17987 -0.384043 0.912252 0.142506 0.445278 0.890747 0.0910861 
0.577566 0.814398 0.0563377 -0.48237 0.865406 0.135613 -0.532434 0.835742 0.134349 
0.712312 0.701745 0.0128835 0.786741 0.617212 -0.00938337 -0.705882 0.69448 0.139383 
-0.705977 0.694381 0.139397 0.887134 0.460799 -0.02565 -0.847464 0.507546 0.155566 
-0.882788 0.441435 0.160688 0.962849 0.263908 -0.0572305 0.991216 0.114171 -0.0667526 
-0.918137 0.3606 0.164294 0.991957 0.107319 -0.0671147 0.991295 0.106894 -0.0768666 
-0.970313 0.177288 0.164504 0.997835 -0.0221267 -0.0619367 0.989466 -0.129158 -0.0653865 
0.990018 -0.0237619 -0.138925 -0.986346 -0.0570459 0.154489 0.9782 -0.196104 -0.0683289 
-0.956319 -0.248834 0.153413 0.910823 -0.40526 -0.0785244 -0.866355 -0.474131 0.156936 
-0.849043 -0.507262 0.147685 -0.838257 -0.480482 -0.257803 0.789409 -0.593918 -0.155226 
0.78174 -0.603691 -0.156333 0.782089 -0.596248 -0.181177 0.503495 -0.829864 -0.240454 
-0.725021 -0.677476 0.123982 -0.677789 -0.723062 0.133352 0.484098 -0.83872 -0.249396 
0.403756 -0.868333 -0.288061 0.367166 -0.757393 -0.539949 0.303589 -0.89805 -0.31834 
-0.453268 -0.890257 0.0446141 -0.572493 -0.813537 0.102023 -0.54893 -0.830309 0.0962431 
-0.540246 -0.811332 -0.223328 0.261093 -0.910015 -0.322028 0.191153 -0.925422 -0.327193 
0.199076 -0.893199 -0.403192 0.108877 -0.955787 -0.27316 0.140464 -0.883551 -0.446775 
0.0450923 -0.977131 -0.207802 0.072898 -0.866256 -0.494254 -0.0115442 -0.988856 -0.148425 
-0.131798 -0.987538 -0.0860109 -0.355648 -0.934608 0.0047156 -0.29591 -0.955197 -0.00594032 
-0.274716 -0.925765 -0.259789 0.429173 0.866896 -0.253579 0.304413 0.919362 -0.249209 
0.200424 0.953932 -0.223259 0.114954 0.974458 -0.192918 0.0485517 0.981166 -0.186965 
-0.0385 0.983549 -0.176494 -0.148276 0.967608 -0.204327 -0.27467 0.928494 -0.24991 
-0.409776 0.872968 -0.264595 0.444466 0.857745 -0.258309 0.604019 0.73078 -0.317997 
0.432669 0.851715 -0.295601 0.289101 0.7387 -0.608887 -0.480489 0.836076 -0.264777 
-0.386952 0.783663 -0.485943 -0.54109 0.794937 -0.274401 0.689436 0.638561 -0.341933 
0.78025 0.498014 -0.378407 0.586096 0.588705 -0.556702 -0.67269 0.686063 -0.277139 
-0.458282 0.574396 -0.678267 -0.694376 0.665095 -0.274757 0.817332 0.435017 -0.377794 
0.753822 0.425628 -0.500593 -0.805982 0.515683 -0.290627 -0.591811 0.408819 -0.694713 
-0.860888 0.414937 -0.294449 0.874338 0.227718 -0.428575 0.686474 0.180622 -0.704365 
-0.888173 0.351682 -0.29575 -0.834563 0.345649 -0.428988 0.892218 0.08434 -0.443661 
0.607926 0.0540897 -0.792149 -0.940313 0.150053 -0.305442 -0.738468 0.124274 -0.662738 
0.892585 -0.0340013 -0.449596 0.590057 -0.0563881 -0.80539 -0.943686 -0.0646779 -0.32446 
-0.727246 -0.0910343 -0.680313 0.849329 -0.201464 -0.487907 0.601565 -0.228126 -0.765557 
-0.90505 -0.240411 -0.350837 -0.820432 -0.459561 -0.34014 -0.767412 -0.24264 -0.593469 
0.73917 -0.435884 -0.513452 0.686166 -0.504163 -0.5244 0.650738 -0.438798 -0.619674 
0.364247 -0.366807 -0.856024 -0.813241 -0.47249 -0.339694 0.573271 -0.609851 -0.547213 
0.456497 -0.684933 -0.567871 0.42319 -0.583735 -0.692939 0.356226 -0.732576 -0.580031 
0.267726 -0.510194 -0.817328 -0.516977 -0.774945 -0.363586 -0.373668 -0.521041 -0.767391 
-0.660264 -0.669373 -0.340575 -0.635172 -0.693761 -0.339488 -0.614652 -0.658389 -0.434427 
0.344045 -0.740077 -0.577857 0.269488 -0.754949 -0.597853 0.266148 -0.691934 -0.671113 
0.225539 -0.787839 -0.573098 0.230194 -0.640348 -0.732779 0.149545 -0.835189 -0.52924 
0.104645 -0.589291 -0.801115 0.0734295 -0.854729 -0.513854 -0.0143999 -0.530869 -0.847332 
-0.0103142 -0.490122 -0.871593 -0.0340885 -0.500425 -0.865108 -0.228206 -0.837936 -0.495767 
-0.115067 -0.599459 -0.792091 -0.502228 -0.784394 -0.363996 -0.365784 -0.839469 -0.401862 
-0.279852 -0.687294 -0.670306 0.0441976 -0.855214 -0.516386 0.0134116 -0.853191 -0.521426 
0.012843 -0.846415 -0.532369 -0.0829687 -0.85645 -0.50952 -0.0769543 -0.856649 -0.510129 
-0.0769171 -0.854952 -0.512973 0.186067 0.670584 -0.71812 0.0929838 0.703093 -0.704992 
0.0248346 0.709878 -0.703887 -0.0280547 0.708043 -0.705611 -0.141302 0.694135 -0.705841 
-0.244418 0.666068 -0.704708 0.355592 0.551964 -0.754248 0.240764 0.671248 -0.701041 
0.267188 0.654567 -0.707215 0.172546 0.609345 -0.773903 0.0864095 0.551714 -0.829545 
0.0200128 0.533672 -0.845455 -0.0272406 0.534301 -0.844855 -0.130023 0.571903 -0.809951 
-0.255418 0.664185 -0.702581 -0.241477 0.653678 -0.717213 -0.330097 0.624463 -0.707871 
0.430638 0.499586 -0.751642 0.505074 0.404096 -0.762632 0.318565 0.451647 -0.833386 
0.172777 0.333063 -0.92694 0.0822169 0.254533 -0.963563 0.0499971 0.170203 -0.98414 
0.0146609 0.183459 -0.982918 0.0060611 0.205701 -0.978596 -0.0597828 0.259452 -0.963904 
-0.133084 0.328376 -0.935124 -0.446543 0.564784 -0.693987 -0.262144 0.439545 -0.859116 
-0.451067 0.560838 -0.694262 0.526773 0.327517 -0.784374 0.459847 0.287719 -0.840095 
0.229407 0.200981 -0.952355 0.0655894 0.103265 -0.992489 -0.0103502 0.0591462 -0.998196 
0.0289252 -0.0176661 -0.999425 0.0669799 0.0526159 -0.996366 0.037181 0.0765504 -0.996372 
-0.01544 0.0400073 -0.99908 -0.0605102 0.135003 -0.988996 -0.131336 0.221332 -0.966314 
-0.590934 0.408358 -0.69573 -0.320632 0.320234 -0.891429 -0.591223 0.407798 -0.695814 
0.573161 0.149095 -0.805765 0.36096 0.0857642 -0.928629 0.171435 0.0260493 -0.984851 
0.0336933 0.00969647 -0.999385 -0.0433474 0.0271818 -0.99869 0.0380965 0.0863801 -0.995534 
0.113196 0.11581 -0.9868 -0.00532188 0.108344 -0.994099 0.0056108 -0.0412456 -0.999133 
0.0533846 0.0134109 -0.998484 -0.0552118 0.0768608 -0.995512 -0.248413 0.140279 -0.958443 
-0.615403 0.267325 -0.741496 -0.500195 0.219175 -0.837716 0.566759 0.0475977 -0.822508 
0.319397 0.00607372 -0.947602 0.159176 -0.042811 -0.986322 0.0678427 -0.0469179 -0.996592 
0.071833 0.0585898 -0.995694 0.119283 0.193439 -0.973834 -0.107041 0.035332 -0.993627 
0.0532814 -0.0273869 -0.998204 -0.00868475 -0.0237784 -0.99968 -0.168584 0.00218161 -0.985685 
-0.646349 0.106675 -0.755549 -0.412168 0.051504 -0.909651 0.553879 -0.0574427 -0.830613 
0.277628 -0.0729228 -0.957917 0.12403 -0.091577 -0.988044 0.130324 -0.1052 -0.985875 
0.192905 -0.0566976 -0.979578 0.0217871 -0.143199 -0.989454 -0.121559 0.0492978 -0.991359 
-0.00588842 -0.0110368 -0.999922 -0.028441 -0.0298813 -0.999149 -0.174649 -0.0668358 -0.98236 
-0.612737 -0.0953261 -0.784516 -0.40815 -0.0799276 -0.909409 0.467286 -0.225846 -0.854773 
0.349587 -0.341058 -0.872621 0.300147 -0.205262 -0.931547 0.128244 -0.158246 -0.979036 
0.0969452 -0.134886 -0.986107 0.15053 -0.135059 -0.979336 0.0296684 -0.169678 -0.985053 
0.0305923 -0.132205 -0.99075 0.073845 -0.241689 -0.96754 -0.0430592 -0.0986123 -0.994194 
-0.0257124 -0.0802964 -0.996439 -0.0646107 -0.12336 -0.990256 -0.214617 -0.171154 -0.961585 
-0.553286 -0.207553 -0.806719 -0.440549 -0.195532 -0.876176 0.323185 -0.356552 -0.876597 
0.224317 -0.402305 -0.887599 0.182846 -0.31066 -0.932769 0.160591 -0.218735 -0.962479 
0.152372 -0.177046 -0.972336 0.0193184 -0.178396 -0.983769 -0.0489827 -0.154056 -0.986847 
0.0297482 -0.26975 -0.962471 0.0414875 -0.240915 -0.969659 -0.0249657 -0.207725 -0.977869 
-0.118278 -0.252191 -0.960422 -0.352009 -0.486997 -0.799327 -0.256693 -0.306441 -0.916626 
-0.492743 -0.362564 -0.791044 -0.477039 -0.376343 -0.794229 -0.470116 -0.361163 -0.805327 
0.231654 -0.422538 -0.876241 0.229104 -0.4272 -0.874649 0.223757 -0.406476 -0.885839 
0.210461 -0.490617 -0.845577 0.183639 -0.354896 -0.916693 0.100507 -0.567031 -0.817542 
0.0608778 -0.319096 -0.945765 -0.0187472 -0.512594 -0.858426 -0.0575997 -0.277659 -0.958951 
-0.0139169 -0.447724 -0.894064 -0.0224028 -0.290161 -0.956716 -0.0259804 -0.472405 -0.880999 
0.0187788 -0.330547 -0.943603 -0.0846675 -0.521214 -0.849216 -0.0413682 -0.356161 -0.933508 
-0.333584 -0.492257 -0.803993 -0.216104 -0.51678 -0.828394 -0.180605 -0.403205 -0.897111 
0.0805423 0.0331925 -0.996198 -0.0918042 0.105804 -0.99014 0.0808671 0.0348084 -0.996117 
0.0331637 0.00195187 -0.999448 0.0795925 0.0304104 -0.996364 0.0802609 0.0324939 -0.996244 
-0.122419 0.0908701 -0.98831 -0.123059 0.101958 -0.987148 0.0370374 -0.0406311 -0.998488 
0.0154263 -0.0547785 -0.998379 0.0157153 -0.0536216 -0.998438 0.0145891 -0.0389718 -0.999134 
0.00366083 -0.101867 -0.994791 -0.0416915 -0.0400064 -0.998329 0.0242861 -0.139456 -0.98993 
-0.00472754 -0.0799333 -0.996789 
