# vtk DataFile Version 4.2
vtk output
ASCII
DATASET POLYDATA
POINTS 514 float
30.1384 -17.3106 -19.6165 -19.8849 -31.603 -12.5998 -12.7387 -31.603 -14.8036 
-5.59251 -31.603 -16.0073 1.55367 -31.603 -16.0782 8.69985 -31.603 -16.001 
15.846 -31.603 -15.4966 22.9922 -31.603 -14.4699 30.1384 -31.603 -12.6861 
-27.031 -24.4568 -13.5427 -19.8849 -24.4568 -15.6498 -12.7387 -24.4568 -17.5301 
-5.59251 -24.4568 -18.4258 1.55367 -24.4568 -18.055 8.69985 -24.4568 -18.1922 
15.846 -24.4568 -18.6144 22.9922 -24.4568 -18.8269 30.1384 -17.8002 -19.4676 
30.1384 -24.4568 -17.2047 37.2846 -24.4568 -15.732 -34.1772 -17.3106 -13.7182 
-27.031 -17.3106 -15.2769 -19.8849 -17.3106 -16.1521 -12.7387 -17.3106 -17.6635 
-5.59251 -17.3106 -19.0643 1.55367 -17.3106 -18.3299 8.69985 -17.3106 -18.3651 
15.846 -17.3106 -19.2254 24.8195 -17.3106 -19.4676 22.9922 -17.3106 -19.4098 
30.6989 -17.3106 -19.4676 30.1384 -14.3509 -19.4676 37.2846 -17.3106 -17.5521 
44.4307 -17.3106 -15.5961 -41.3234 -10.1645 -13.4556 -34.1772 -10.1645 -15.5047 
-27.031 -10.1645 -16.3031 -19.8849 -10.1645 -16.2148 -12.7387 -10.1645 -17.1677 
-5.59251 -10.1645 -19.2392 1.55367 -10.1645 -17.5848 8.69985 -10.1645 -17.8563 
15.846 -10.1645 -18.9344 22.9922 -10.1645 -19.1664 30.1384 -10.1645 -19.233 
37.2846 -10.1645 -18.6614 44.4307 -10.1645 -17.2656 51.5769 -10.1645 -13.7725 
-41.3234 -3.01828 -13.5495 -34.1772 -3.01828 -15.6517 -27.031 -3.01828 -16.5173 
-19.8849 -3.01828 -16.72 -12.7387 -3.01828 -17.2932 -5.59251 -3.01828 -18.9251 
1.55367 -3.01828 -17.6079 8.69985 -3.01828 -19.1362 15.846 -3.01828 -18.7661 
22.9922 -3.01828 -18.9551 30.1384 -3.01828 -19.3949 37.2846 -3.01828 -19.339 
44.4307 -3.01828 -18.666 51.5769 -3.01828 -15.058 -41.3234 4.12789 -13.3495 
-34.1772 4.12789 -15.0774 -27.031 4.12789 -15.6033 -19.8849 4.12789 -15.7278 
-12.7387 4.12789 -17.0226 -5.59251 4.12789 -18.2055 1.55367 4.12789 -18.0189 
8.69985 4.12789 -19.0652 15.846 4.12789 -17.9187 22.9922 4.12789 -18.4283 
30.1384 4.12789 -19.1006 37.2846 4.12789 -19.3491 44.4307 4.12789 -18.5652 
51.5769 4.12789 -15.2976 -34.1772 11.2741 -13.4211 -27.031 11.2741 -14.3386 
-19.8849 11.2741 -14.5807 -12.7387 11.2741 -15.5882 -5.59251 11.2741 -17.4355 
1.55367 11.2741 -18.1679 8.69985 11.2741 -17.6452 15.846 11.2741 -16.852 
22.9922 11.2741 -17.5845 30.1384 11.2741 -18.2759 37.2846 11.2741 -18.1426 
44.4307 11.2741 -17.0755 51.5769 11.2741 -13.9004 -27.031 18.4202 -13.1719 
-19.8849 18.4202 -13.7772 -12.7387 18.4202 -14.2973 -5.59251 18.4202 -14.8401 
1.55367 18.4202 -15.8377 8.69985 18.4202 -16.2428 15.846 18.4202 -16.5156 
22.9922 18.4202 -16.7301 30.1384 18.4202 -16.9711 37.2846 18.4202 -17.166 
44.4307 18.4202 -14.8086 -12.7387 25.5664 -12.803 -5.59251 25.5664 -13.4453 
1.55367 25.5664 -14.0052 8.69985 25.5664 -14.3251 15.846 25.5664 -14.6191 
22.9922 25.5664 -14.9322 30.1384 25.5664 -14.6517 37.2846 25.5664 -13.5134 
-19.8849 -31.9381 -12.3214 -12.7387 -34.4774 -12.3214 -5.59251 -35.566 -12.3214 
1.55367 -35.3849 -12.3214 8.69985 -35.1308 -12.3214 15.846 -34.5395 -12.3214 
22.9922 -33.5617 -12.3214 30.1384 -31.9225 -12.3214 -20.6691 -31.603 -12.3214 
-27.031 -27.0385 -12.3214 -27.031 -31.603 -9.26678 30.9389 -31.603 -12.3214 
37.2846 -28.6425 -12.3214 37.2846 -31.603 -6.18612 -41.3234 -24.4568 -5.53715 
-30.87 -24.4568 -12.3214 -34.1772 -21.4612 -12.3214 -34.1772 -24.4568 -11.0989 
42.9459 -24.4568 -12.3214 44.4307 -23.0255 -12.3214 44.4307 -24.4568 -10.2994 
-38.2915 -17.3106 -12.3214 -41.3234 -14.1092 -12.3214 -41.3234 -17.3106 -11.0623 
49.1881 -17.3106 -12.3214 51.5769 -12.7977 -12.3214 51.5769 -17.3106 -8.30956 
-43.4191 -10.1645 -12.3214 -48.4696 -10.1645 -8.2987 52.8993 -10.1645 -12.3214 
-43.673 -3.01828 -12.3214 -48.4696 -3.01828 -9.38361 55.2329 -3.01828 -12.3214 
-43.2947 4.12789 -12.3214 -48.4696 4.12789 -8.83739 -41.3234 8.38121 -12.3214 
55.5905 4.12789 -12.3214 -48.4696 11.2741 -7.46819 -38.4086 11.2741 -12.3214 
-41.3234 11.2741 -11.4857 -34.1772 18.2916 -12.3214 53.1219 11.2741 -12.3214 
51.5769 16.0138 -12.3214 -48.4696 18.4202 -5.25141 -41.3234 18.4202 -9.29973 
-34.0249 18.4202 -12.3214 -34.1772 18.4202 -12.2991 -27.031 22.804 -12.3214 
-19.8849 25.4469 -12.3214 50.2852 18.4202 -12.3214 44.4307 23.0918 -12.3214 
51.5769 18.4202 -10.5196 -34.1772 25.5664 -9.20464 -27.031 25.5664 -11.6505 
-19.5307 25.5664 -12.3214 -19.8849 25.5664 -12.2952 -12.7387 26.9594 -12.3214 
-5.59251 28.6604 -12.3214 1.55367 29.7672 -12.3214 8.69985 29.7737 -12.3214 
15.846 29.8242 -12.3214 22.9922 30.0984 -12.3214 30.1384 28.6817 -12.3214 
40.6423 25.5664 -12.3214 37.2846 27.1035 -12.3214 44.4307 25.5664 -9.60111 
-27.031 32.7126 -6.93312 -19.8849 32.7126 -9.46743 -12.7387 32.7126 -10.0932 
-5.59251 32.7126 -10.7291 1.55367 32.7126 -10.8557 8.69985 32.7126 -10.5007 
15.846 32.7126 -10.213 22.9922 32.7126 -9.85304 30.1384 32.7126 -8.15643 
-27.031 -34.516 -5.17525 -19.8849 -37.0747 -5.17525 -12.7387 -38.2643 -5.17525 
-5.59251 -38.6898 -5.17525 1.55367 -38.3352 -5.17525 8.69985 -37.5307 -5.17525 
15.846 -36.6808 -5.17525 22.9922 -35.6778 -5.17525 30.1384 -34.4424 -5.17525 
37.2846 -31.9586 -5.17525 -41.3234 -24.7685 -5.17525 -32.559 -31.603 -5.17525 
-34.1772 -30.5853 -5.17525 -34.1772 -31.603 -1.93459 37.8799 -31.603 -5.17525 
37.2846 -31.603 -4.1608 44.4307 -26.8964 -5.17525 -41.6423 -24.4568 -5.17525 
47.1904 -24.4568 -5.17525 44.4307 -24.4568 -0.0963155 51.5769 -19.3115 -5.17525 
-48.0276 -17.3106 -5.17525 -48.4696 -16.4679 -5.17525 -48.4696 -17.3106 -4.11739 
52.9766 -17.3106 -5.17525 51.5769 -17.3106 -1.9658 -51.1431 -10.1645 -5.17525 
56.087 -10.1645 -5.17525 -52.8255 -3.01828 -5.17525 58.1184 -3.01828 -5.17525 
-52.4877 4.12789 -5.17525 -55.6157 4.12789 1.53301 58.1206 4.12789 -5.17525 
-50.7337 11.2741 -5.17525 56.8062 11.2741 -5.17525 -48.541 18.4202 -5.17525 
-48.4696 18.5324 -5.17525 -41.3234 25.4757 -5.17525 53.5922 18.4202 -5.17525 
51.5769 20.8951 -5.17525 51.5769 18.4202 -0.263051 -41.2292 25.5664 -5.17525 
-41.3234 25.5664 -5.08667 -34.1772 31.1423 -5.17525 37.2846 32.2206 -5.17525 
47.3677 25.5664 -5.17525 44.4307 28.0604 -5.17525 -31.1771 32.7126 -5.17525 
-34.1772 32.7126 -2.56662 -27.031 34.6352 -5.17525 -19.8849 37.5708 -5.17525 
-12.7387 38.5106 -5.17525 -5.59251 39.1307 -5.17525 1.55367 38.3697 -5.17525 
8.69985 37.1972 -5.17525 15.846 36.4583 -5.17525 22.9922 35.9305 -5.17525 
35.8882 32.7126 -5.17525 30.1384 34.6763 -5.17525 -12.7387 39.8588 -0.591892 
-5.59251 39.8588 -1.28001 -34.1772 -32.5529 1.97093 -27.031 -35.6725 1.97093 
-19.8849 -37.3905 1.97093 -12.7387 -38.3319 1.97093 -5.59251 -38.6033 1.97093 
1.55367 -38.0443 1.97093 8.69985 -36.5842 1.97093 15.846 -34.9915 1.97093 
22.9922 -33.4929 1.97093 30.1384 -31.8047 1.97093 -35.6719 -31.603 1.97093 
-41.3234 -27.4622 1.97093 -34.1772 -31.603 6.20437 15.846 -31.603 7.34632 
22.9922 -31.603 5.03969 30.6837 -31.603 1.97093 30.1384 -31.603 2.25838 
37.2846 -28.852 1.97093 -44.5099 -24.4568 1.97093 -48.4696 -19.8396 1.97093 
43.0458 -24.4568 1.97093 37.2846 -24.4568 6.33225 44.4307 -23.0865 1.97093 
-50.285 -17.3106 1.97093 37.2846 -17.3106 8.97667 49.3867 -17.3106 1.97093 
44.4307 -17.3106 5.8842 51.5769 -12.3709 1.97093 -53.8374 -10.1645 1.97093 
44.4307 -10.1645 7.82442 52.6654 -10.1645 1.97093 51.5769 -10.1645 2.82909 
-55.5897 -3.01828 1.97093 -55.6157 -1.96268 1.97093 54.3897 -3.01828 1.97093 
51.5769 -3.01828 4.77514 -55.7633 4.12789 1.97093 -55.6157 5.37754 1.97093 
-55.6157 4.12789 3.05784 54.8377 4.12789 1.97093 51.5769 4.12789 5.13737 
-54.877 11.2741 1.97093 44.4307 11.2741 8.95406 53.7413 11.2741 1.97093 
51.5769 16.041 1.97093 51.5769 11.2741 3.7728 -51.6692 18.4202 1.97093 
-48.4696 23.2608 1.97093 50.5663 18.4202 1.97093 44.4307 18.4202 7.04709 
-46.5582 25.5664 1.97093 -41.3234 30.2679 1.97093 37.2846 31.1499 1.97093 
37.2846 25.5664 7.92552 44.8674 25.5664 1.97093 44.4307 25.9888 1.97093 
44.4307 25.5664 2.44085 -37.5337 32.7126 1.97093 -34.1772 34.5543 1.97093 
-34.1772 32.7126 8.36479 -27.031 37.3829 1.97093 -19.8849 39.2769 1.97093 
1.55367 39.8389 1.97093 8.69985 38.2096 1.97093 15.846 37.2311 1.97093 
22.9922 36.2659 1.97093 22.9922 32.7126 8.03569 34.1786 32.7126 1.97093 
30.1384 34.5056 1.97093 30.1384 32.7126 4.85604 -16.2449 39.8588 1.97093 
-12.7387 40.4075 1.97093 -12.7387 39.8588 3.45672 1.29606 39.8588 1.97093 
-5.59251 40.3216 1.97093 -5.59251 39.8588 3.19082 -27.031 -33.3993 9.1171 
-19.8849 -34.9834 9.1171 -12.7387 -35.7583 9.1171 -5.59251 -35.7425 9.1171 
1.55367 -34.782 9.1171 8.69985 -32.4995 9.1171 -41.3234 -25.9605 9.1171 
-32.157 -31.603 9.1171 -34.1772 -30.7746 9.1171 -27.031 -31.603 11.5417 
-19.8849 -31.603 13.5462 -12.7387 -31.603 13.7326 -5.59251 -31.603 13.4923 
1.55367 -31.603 12.4444 11.4366 -31.603 9.1171 8.69985 -31.603 10.0331 
15.846 -30.0698 9.1171 22.9922 -27.874 9.1171 30.1384 -24.7174 9.1171 
-42.9641 -24.4568 9.1171 -48.4696 -18.1629 9.1171 -41.3234 -24.4568 11.2943 
-34.1772 -24.4568 16.0638 8.69985 -24.4568 15.4971 15.846 -24.4568 13.889 
22.9922 -24.4568 11.6845 30.6253 -24.4568 9.1171 30.1384 -24.4568 9.30661 
-49.0804 -17.3106 9.1171 -48.4696 -17.3106 10.1129 22.9922 -17.3106 14.641 
36.9337 -17.3106 9.1171 30.1384 -17.3106 11.9727 37.2846 -16.6578 9.1171 
-52.7283 -10.1645 9.1171 -48.4696 -10.1645 14.7964 22.9922 -10.1645 15.5021 
30.1384 -10.1645 12.6627 41.2006 -10.1645 9.1171 37.2846 -10.1645 10.5147 
44.4307 -4.43758 9.1171 -54.446 -3.01828 9.1171 -48.4696 -3.01828 16.261 
22.9922 -3.01828 15.378 30.1384 -3.01828 12.9958 37.2846 -3.01828 11.3179 
44.9004 -3.01828 9.1171 44.4307 -3.01828 9.36972 -54.6335 4.12789 9.1171 
-48.4696 4.12789 15.9778 22.9922 4.12789 15.3861 30.1384 4.12789 13.4144 
37.2846 4.12789 11.9456 45.2945 4.12789 9.1171 44.4307 9.73519 9.1171 
44.4307 4.12789 9.61508 -53.4288 11.2741 9.1171 -48.4696 11.2741 15.5554 
22.9922 11.2741 15.0009 30.1384 11.2741 13.2787 44.0179 11.2741 9.1171 
37.2846 11.2741 11.3124 -50.3492 18.4202 9.1171 -48.4696 21.0378 9.1171 
-48.4696 18.4202 11.4888 -41.3234 18.4202 15.4157 15.846 18.4202 16.1093 
[...]
POINT_DATA 514
SCALARS ImageScalars float
LOOKUP_TABLE default
0 0 0 0 0 0 0 0 0 
0 0 0 0 0 0 0 0 0 
0 0 0 0 0 0 0 0 0 
0 0 0 0 0 0 0 0 0 
0 0 0 0 0 0 0 0 0 
0 0 0 0 0 0 0 0 0 
0 0 0 0 0 0 0 0 0 
0 0 0 0 0 0 0 0 0 
0 0 0 0 0 0 0 0 0 
0 0 0 0 0 0 0 0 0 
0 0 0 0 0 0 0 0 0 
0 0 0 0 0 0 0 0 0 
0 0 0 0 0 0 0 0 0 
0 0 0 0 0 0 0 0 0 
0 0 0 0 0 0 0 0 0 
0 0 0 0 0 0 0 0 0 
0 0 0 0 0 0 0 0 0 
0 0 0 0 0 0 0 0 0 
0 0 0 0 0 0 0 0 0 
0 0 0 0 0 0 0 0 0 
0 0 0 0 0 0 0 0 0 
0 0 0 0 0 0 0 0 0 
0 0 0 0 0 0 0 0 0 
0 0 0 0 0 0 0 0 0 
0 0 0 0 0 0 0 0 0 
0 0 0 0 0 0 0 0 0 
0 0 0 0 0 0 0 0 0 
0 0 0 0 0 0 0 0 0 
0 0 0 0 0 0 0 0 0 
0 0 0 0 0 0 0 0 0 
0 0 0 0 0 0 0 0 0 
0 0 0 0 0 0 0 0 0 
0 0 0 0 0 0 0 0 0 
0 0 0 0 0 0 0 0 0 
0 0 0 0 0 0 0 0 0 
0 0 0 0 0 0 0 0 0 
0 0 0 0 0 0 0 0 0 
0 0 0 0 0 0 0 0 0 
0 0 0 0 0 0 0 0 0 
0 0 0 0 0 0 0 0 0 
0 0 0 0 0 0 0 0 0 
0 0 0 0 0 0 0 0 0 
0 0 0 0 0 0 0 0 0 
0 0 0 0 0 0 0 0 0 
0 0 0 0 0 0 0 0 0 
0 0 0 0 0 0 0 0 0 
0 0 0 0 0 0 0 0 0 
0 0 0 0 0 0 0 0 0 
0 0 0 0 0 0 0 0 0 
0 0 0 0 0 0 0 0 0 
0 0 0 0 0 0 0 0 0 
0 0 0 0 0 0 0 0 0 
0 0 0 0 0 0 0 0 0 
0 0 0 0 0 0 0 0 0 
0 0 0 0 0 0 0 0 0 
0 0 0 0 0 0 0 0 0 
0 0 0 0 0 0 0 0 0 
0 
NORMALS Normals float
-0.127369 0.135565 0.982547 0.289887 0.55555 0.779313 0.205492 0.538384 0.817261 
0.0805976 0.538339 0.838866 -0.000351082 0.525218 0.850967 -0.0350653 0.562911 0.825774 
-0.0942248 0.651341 0.752912 -0.159251 0.713875 0.681925 -0.27972 0.771745 0.571109 
0.284464 0.327036 0.901181 0.250762 0.208905 0.945239 0.187975 0.176163 0.966246 
0.0332778 0.181384 0.982849 -0.0168067 0.133192 0.990948 0.0370981 0.133945 0.990294 
0.0446459 0.219782 0.974527 -0.0985472 0.276337 0.955995 -0.131569 0.150792 0.979771 
-0.189294 0.386788 0.902531 -0.376342 0.49045 0.786019 0.26349 0.289845 0.920088 
0.156543 0.174569 0.972121 0.163365 0.0366208 0.985886 0.204444 -0.0250478 0.978558 
0.046553 0.0573449 0.997268 -0.0496284 -0.0332435 0.998214 0.0628544 -0.0219725 0.997781 
0.0718603 0.0205353 0.997203 -0.0126486 0.0499748 0.99867 0.0286382 0.0190249 0.999409 
-0.138122 0.138822 0.980638 -0.0900932 0.0745891 0.993136 -0.25977 0.183123 0.948149 
-0.393523 0.358613 0.846485 0.408485 0.142902 0.901509 0.195076 0.11913 0.973526 
0.0515404 0.0828572 0.995228 0.0582229 0.0395989 0.997518 0.214956 -0.0262741 0.97627 
0.025313 -0.00899354 0.999639 -0.0986322 -0.04965 0.993885 0.0963428 0.0523153 0.993972 
0.0885919 -0.0319734 0.995555 0.0208437 -0.0314711 0.999287 -0.0344871 -0.015363 0.999287 
-0.125698 0.126361 0.983988 -0.270766 0.214621 0.938416 -0.651091 0.288055 0.702214 
0.376655 -0.00780943 0.926321 0.193301 -0.030668 0.98066 0.0732773 -0.0483912 0.996137 
0.0521282 -0.0308026 0.998165 0.156057 -0.00959289 0.987701 0.0163932 -0.0727656 0.997214 
0.0142716 0.0290074 0.999477 0.0826508 0.0834569 0.993078 -0.011653 -0.0702819 0.997459 
0.0438876 -0.0513149 0.997718 0.0269152 -0.00920144 0.999595 -0.0459535 0.0475984 0.997809 
-0.277992 0.0778797 0.957421 -0.549613 0.0747838 0.832065 0.37196 -0.121986 0.920198 
0.156665 -0.145505 0.976875 0.0465583 -0.150907 0.987451 0.0946959 -0.150585 0.984051 
0.173519 -0.119487 0.977555 0.0652833 -0.0987047 0.992973 0.057805 0.0402553 0.997516 
-0.0105131 -0.100916 0.994839 -0.0396433 -0.133596 0.990243 0.0819454 -0.0952485 0.992075 
0.063721 -0.0777278 0.994936 -0.0328829 -0.0833672 0.995976 -0.261924 -0.0966567 0.960236 
-0.531434 -0.0507117 0.845581 0.182369 -0.206625 0.961274 0.0776852 -0.172616 0.981921 
0.0850669 -0.13121 0.987698 0.192026 -0.185268 0.963744 0.178096 -0.231523 0.956389 
0.0134941 -0.149545 0.988663 -0.0924373 -0.191844 0.977062 -0.000774596 -0.0969593 0.995288 
0.0999195 -0.118939 0.987861 0.0388246 -0.143431 0.988899 -0.0758112 -0.141061 0.987094 
-0.230471 -0.259511 0.937836 -0.61137 -0.249056 0.751131 0.104004 -0.178852 0.978363 
0.0795674 -0.151606 0.985233 0.0718298 -0.187532 0.979629 0.103632 -0.258683 0.960387 
0.0949272 -0.285678 0.953613 0.0452604 -0.21879 0.974722 0.0331955 -0.145083 0.988862 
0.0303298 -0.183118 0.982623 0.0287296 -0.222212 0.974575 -0.145217 -0.306959 0.940579 
-0.332112 -0.358147 0.872601 0.0742677 -0.263292 0.961853 0.0824732 -0.263259 0.961193 
0.058174 -0.311145 0.94858 0.040537 -0.33578 0.941068 0.0422565 -0.364664 0.93018 
0.00473264 -0.375532 0.926797 -0.10012 -0.449568 0.887618 -0.207916 -0.5555 0.805103 
0.289036 0.572495 0.767273 0.190529 0.707377 0.680674 0.0494621 0.784611 0.618012 
-0.0270105 0.792556 0.609201 -0.0541605 0.829635 0.555673 -0.10237 0.834615 0.541237 
-0.166644 0.822504 0.543799 -0.278982 0.786355 0.551194 0.300145 0.560049 0.772178 
0.323117 0.422321 0.8469 0.406068 0.672394 0.618866 -0.288536 0.779655 0.555774 
-0.385822 0.690719 0.611595 -0.444138 0.892519 0.078426 0.625529 0.627556 0.46356 
0.319445 0.395987 0.8609 0.313743 0.383449 0.868638 0.377184 0.475347 0.794844 
-0.523448 0.571166 0.632275 -0.542091 0.53662 0.646666 -0.60541 0.652605 0.455615 
0.360378 0.333807 0.871034 0.429773 0.261985 0.864094 0.460384 0.380401 0.802086 
-0.673805 0.41453 0.611679 -0.712963 0.374319 0.592932 -0.835125 0.501185 0.226674 
0.490463 0.153626 0.857814 0.711834 0.228285 0.664212 -0.711437 0.339277 0.615425 
0.448025 -0.00462694 0.894009 0.635207 0.0220555 0.772027 -0.713266 0.146312 0.685452 
0.438808 -0.107592 0.892116 0.622853 -0.0928082 0.776814 0.341824 -0.215305 0.914768 
-0.729626 -0.113909 0.674293 0.623343 -0.216036 0.751513 0.259502 -0.249076 0.93307 
0.325651 -0.275709 0.904398 0.244777 -0.259219 0.934286 -0.685273 -0.281237 0.671794 
-0.652246 -0.402423 0.642364 0.693715 -0.376848 0.613795 0.409188 -0.32859 0.851231 
0.242692 -0.258462 0.935039 0.245824 -0.260302 0.93371 0.154724 -0.285981 0.945661 
0.0738851 -0.276991 0.958028 -0.595717 -0.456282 0.661005 -0.425513 -0.571583 0.701592 
-0.719088 -0.514306 0.467335 0.335943 -0.450558 0.827128 0.191075 -0.362789 0.912071 
0.0739185 -0.278294 0.957648 0.0741908 -0.279309 0.957331 0.0746754 -0.299679 0.951113 
0.0713071 -0.350261 0.933934 0.0269922 -0.425715 0.904454 0.00197875 -0.491651 0.87079 
0.0130667 -0.537116 0.843407 -0.050829 -0.571714 0.818877 -0.152085 -0.599038 0.786145 
-0.331313 -0.616715 0.714069 -0.232396 -0.623923 0.746132 -0.53974 -0.724654 0.428435 
0.319552 -0.649348 0.690097 0.187497 -0.515776 0.835954 0.0801015 -0.512857 0.854729 
0.0476172 -0.503187 0.862864 -0.0112296 -0.557553 0.830065 -0.0357348 -0.658652 0.751599 
-0.0324106 -0.719153 0.694095 -0.0923988 -0.765665 0.636569 -0.236107 -0.851478 0.46823 
0.391802 0.847931 0.357077 0.23839 0.932187 0.272391 0.107018 0.973112 0.203961 
0.0036391 0.98685 0.161596 -0.0791834 0.986217 0.145276 -0.116336 0.989657 0.0839364 
-0.127456 0.991695 0.0172016 -0.151532 0.988364 -0.0131993 -0.268869 0.963094 -0.0126676 
-0.44604 0.895012 0.00100194 0.628911 0.638058 0.444243 0.482058 0.769723 0.418505 
0.502285 0.744038 0.440588 0.507285 0.828896 0.235784 -0.45863 0.888627 0.000480976 
-0.442809 0.894031 -0.0680272 -0.62684 0.779146 -0.0014624 0.633002 0.63297 0.44571 
-0.705186 0.709022 0.000449373 -0.621478 0.667472 -0.410177 -0.83045 0.557075 0.00451471 
0.753261 0.466521 0.463633 0.763752 0.443939 0.468615 0.780438 0.482577 0.397537 
-0.859305 0.511422 0.00645921 -0.844883 0.49438 -0.204354 0.806564 0.282022 0.519536 
-0.939779 0.341713 0.00692559 0.822192 0.0795444 0.563625 -0.987708 0.133155 -0.0818744 
0.780071 -0.100985 0.617488 0.99087 -0.0485508 0.125773 -0.993619 -0.0862994 -0.0726181 
0.71866 -0.236962 0.653741 -0.959969 -0.278091 0.0335351 0.696978 -0.37686 0.610081 
0.694716 -0.380538 0.610377 0.53778 -0.562357 0.62813 -0.825133 -0.564937 0.00103464 
-0.789372 -0.613811 -0.0112615 -0.795051 -0.540485 -0.275262 0.536948 -0.563687 0.62765 
0.5416 -0.567686 0.620002 0.395834 -0.693648 0.601804 -0.39494 -0.895068 0.207064 
-0.672667 -0.737128 0.0645037 -0.58833 -0.802662 0.0979841 0.375111 -0.715897 0.588884 
0.424715 -0.825141 0.372504 0.349272 -0.728276 0.589596 0.214639 -0.834552 0.507398 
0.0903242 -0.842747 0.530678 -0.0120782 -0.886219 0.46311 -0.124369 -0.884331 0.449989 
-0.12059 -0.9084 0.400333 -0.0824857 -0.928821 0.361231 -0.117794 -0.945947 0.302174 
-0.366613 -0.903409 0.222365 -0.250484 -0.931629 0.263298 0.0813077 -0.9897 0.117824 
-0.0308271 -0.991038 0.129975 0.485702 0.874104 0.00594399 0.323825 0.943718 -0.0673367 
0.176331 0.976444 -0.124354 0.0827822 0.986021 -0.144605 -0.0184412 0.985478 -0.1688 
-0.131139 0.970608 -0.201799 -0.207221 0.937407 -0.279871 -0.197757 0.9055 -0.375448 
-0.200394 0.886346 -0.417413 -0.274998 0.830945 -0.483639 0.516709 0.856115 0.00886867 
0.645802 0.762314 0.0426319 0.468353 0.854052 -0.226363 -0.205896 0.773679 -0.599189 
-0.216183 0.820053 -0.529884 -0.282385 0.826837 -0.486415 -0.277429 0.822951 -0.495767 
-0.400876 0.742286 -0.536945 0.707568 0.704676 0.052711 0.80407 0.592512 0.0490029 
-0.554581 0.605079 -0.571243 -0.429474 0.509516 -0.745617 -0.577602 0.564282 -0.589883 
0.849488 0.524745 0.0548873 -0.372011 0.241259 -0.896327 -0.72003 0.417406 -0.554373 
-0.458455 0.381827 -0.802513 -0.695386 0.336703 -0.634878 0.935921 0.342864 0.0805975 
-0.442423 0.210795 -0.871681 -0.671919 0.291191 -0.680979 -0.643569 0.271569 -0.71559 
0.988885 0.12558 0.0796035 0.991558 0.0999003 0.0826613 -0.769472 0.102505 -0.630401 
-0.635166 0.128198 -0.761662 0.993927 -0.0468357 0.0995768 0.991377 -0.0840205 0.100559 
0.998298 -0.0477976 0.0334166 -0.790171 -0.0247837 -0.612385 -0.624163 -0.0545362 -0.779389 
0.957743 -0.266135 0.109094 -0.440347 -0.15417 -0.884492 -0.717025 -0.244021 -0.652939 
-0.748355 -0.431687 -0.503598 -0.653392 -0.196121 -0.731174 0.874265 -0.474305 0.103417 
0.777803 -0.623293 0.0808028 -0.751129 -0.495498 -0.436218 -0.430914 -0.372923 -0.82173 
0.722542 -0.687619 0.0715 0.599873 -0.799111 0.0396757 -0.483774 -0.793304 -0.369637 
-0.429396 -0.467671 -0.772594 -0.631985 -0.634517 -0.444953 -0.623 -0.646522 -0.440318 
-0.622389 -0.626737 -0.468863 0.499272 -0.86567 0.0366523 0.428444 -0.902755 0.0383292 
0.353771 -0.807389 -0.472195 0.322647 -0.94552 -0.0434776 0.201641 -0.975506 -0.0879124 
-0.153741 -0.980531 -0.122156 -0.167585 -0.975717 -0.141036 -0.133761 -0.978577 -0.156507 
-0.181898 -0.958259 -0.220572 -0.226425 -0.752055 -0.618987 -0.419758 -0.8486 -0.321997 
-0.329749 -0.90072 -0.282789 -0.350035 -0.808229 -0.473542 0.136046 -0.987243 -0.0827155 
0.0725121 -0.994127 -0.0803371 0.0700655 -0.980748 -0.182273 -0.149594 -0.981205 -0.121897 
-0.0403054 -0.992095 -0.118843 -0.0439514 -0.978887 -0.199622 0.246218 0.85428 -0.457803 
0.143414 0.867296 -0.476687 0.0470503 0.85142 -0.522369 -0.0558333 0.829217 -0.556131 
-0.17681 0.794492 -0.580966 -0.255751 0.736429 -0.626309 0.599414 0.720351 -0.348994 
0.382597 0.823998 -0.417909 0.435753 0.804339 -0.403928 0.231647 0.793475 -0.562794 
0.101883 0.714289 -0.692395 -0.00454147 0.67021 -0.742158 -0.0693097 0.638833 -0.766217 
-0.181611 0.650009 -0.737906 -0.237894 0.725239 -0.646092 -0.253656 0.706156 -0.661062 
-0.213731 0.706855 -0.674296 -0.244588 0.622367 -0.74353 -0.30877 0.489124 -0.815732 
0.634076 0.6914 -0.346286 0.764949 0.549637 -0.335787 0.577632 0.674144 -0.460293 
0.302422 0.558624 -0.772321 -0.167718 0.471484 -0.865779 -0.221965 0.548747 -0.805983 
-0.267167 0.481288 -0.834856 -0.315669 0.478734 -0.819248 -0.309535 0.480039 -0.820823 
0.78018 0.527843 -0.335709 0.759844 0.522823 -0.386385 -0.363878 0.226687 -0.903441 
-0.370132 0.239472 -0.897583 -0.352728 0.203933 -0.913233 -0.367148 0.233198 -0.900456 
0.877926 0.324486 -0.352072 0.698677 0.253348 -0.669078 -0.477006 0.0454135 -0.877726 
-0.313355 0.0647247 -0.947428 -0.382343 0.192271 -0.903795 -0.323144 0.153483 -0.93382 
-0.408577 0.125158 -0.904102 0.920498 0.122032 -0.371202 0.616831 0.0563922 -0.785073 
-0.485768 -0.00756945 -0.874055 -0.265495 0.0524218 -0.962686 -0.255217 0.0962439 -0.962082 
-0.413017 0.103777 -0.904791 -0.400937 0.104334 -0.910145 0.92098 -0.0562344 -0.385529 
0.582887 -0.0332835 -0.811871 -0.374497 -0.0268104 -0.92684 -0.233006 0.0195642 -0.972278 
-0.25812 0.00132396 -0.966112 -0.459341 -0.028294 -0.887809 -0.4411 -0.127031 -0.888422 
-0.442646 -0.0260104 -0.896319 0.866728 -0.276994 -0.414798 0.583579 -0.227651 -0.779494 
-0.254899 -0.064387 -0.964822 -0.249644 -0.0511992 -0.966983 -0.430527 -0.153467 -0.889435 
-0.30055 -0.116281 -0.946651 0.774172 -0.469518 -0.424513 0.701213 -0.558169 -0.443562 
0.665292 -0.48158 -0.570498 0.334217 -0.409781 -0.848751 -0.181274 -0.172899 -0.968115 
-0.230122 -0.141385 -0.962837 -0.2739 -0.183596 -0.944072 -0.350054 -0.259737 -0.899999 
-0.383496 -0.327142 -0.86366 -0.337934 -0.21014 -0.917411 0.551328 -0.67577 -0.489257 
0.515928 -0.698395 -0.496047 0.478275 -0.640115 -0.601253 0.335965 -0.772558 -0.538778 
0.249354 -0.517244 -0.818707 0.0946016 -0.391224 -0.91542 -0.0106823 -0.368567 -0.92954 
-0.0326083 -0.321674 -0.946289 -0.0422467 -0.317903 -0.947182 -0.00985909 -0.355009 -0.934811 
-0.0376549 -0.375438 -0.926082 -0.131761 -0.35127 -0.926956 -0.23298 -0.660831 -0.713459 
-0.253405 -0.332081 -0.908575 -0.361034 -0.41224 -0.836488 -0.30984 -0.486181 -0.817085 
-0.294428 -0.377919 -0.877775 0.309485 -0.778949 -0.545397 0.199952 -0.778699 -0.594682 
0.174194 -0.73377 -0.656687 0.156136 -0.744776 -0.648792 0.0963393 -0.614788 -0.782786 
0.0339322 -0.74191 -0.66964 0.0097366 -0.530862 -0.847402 -0.0675906 -0.712129 -0.698788 
-0.0631149 -0.531221 -0.844879 -0.105766 -0.708014 -0.698233 -0.073345 -0.584471 -0.808093 
-0.103937 -0.735572 -0.669426 -0.0810288 -0.665026 -0.742412 -0.179426 -0.714797 -0.675923 
-0.133799 -0.742164 -0.656727 -0.127899 -0.704803 -0.697779 0.15786 0.580392 -0.79889 
0.0519572 0.544613 -0.837076 -0.0312226 0.507353 -0.861173 -0.0838466 0.462135 -0.882837 
-0.141808 0.400469 -0.905271 0.465918 0.464773 -0.752932 0.284268 0.551187 -0.784464 
0.296792 0.545693 -0.783667 0.133607 0.508842 -0.850429 0.0115581 0.425658 -0.90481 
-0.0433673 0.39454 -0.917855 -0.0932471 0.3803 -0.920151 -0.147795 0.409562 -0.900231 
-0.13704 0.375133 -0.916785 -0.144436 0.431734 -0.890362 -0.238109 0.434579 -0.868588 
0.499738 0.425814 -0.754284 0.450545 0.411187 -0.792423 0.249561 0.333583 -0.909088 
0.0628128 0.257643 -0.964196 -0.0333786 0.227285 -0.973256 -0.0679422 0.22326 -0.972388 
-0.103846 0.266968 -0.958094 -0.0853178 0.243244 -0.966206 -0.0740416 0.324556 -0.942964 
-0.309351 0.296835 -0.903433 -0.250337 0.361302 -0.898216 0.604677 0.223268 -0.764537 
0.360615 0.17822 -0.91553 0.166361 0.120236 -0.978707 0.0304184 0.0753553 -0.996693 
-0.038922 0.0320596 -0.998728 -0.0138816 0.0448986 -0.998895 -0.0797361 0.119712 -0.989602 
-0.0842894 0.0268313 -0.99608 -0.0325238 0.0786081 -0.996375 -0.464159 0.063784 -0.883452 
-0.305305 0.144407 -0.941242 0.616651 0.0563424 -0.785218 0.328742 -0.00591822 -0.944401 
0.130256 -0.0261443 -0.991136 -0.0278371 -0.0561714 -0.998033 -0.0661957 -0.0783131 -0.994729 
0.0193955 -0.0830928 -0.996353 -0.116488 -0.00668437 -0.99317 -0.137956 -0.0469601 -0.989325 
0.0519887 -0.0817192 -0.995299 -0.470618 -0.0196813 -0.882117 -0.255666 -0.0594987 -0.964933 
0.557464 -0.0359039 -0.829425 0.30207 -0.123623 -0.945236 0.112074 -0.153326 -0.9818 
-0.0213532 -0.160927 -0.986735 -0.0654703 -0.139478 -0.988058 0.0602053 -0.142088 -0.988021 
-0.0329186 -0.11515 -0.992803 -0.163318 0.00341558 -0.986568 -0.0505056 -0.0996186 -0.993743 
-0.36112 -0.0768009 -0.929351 -0.252853 -0.210963 -0.944224 0.515133 -0.229929 -0.825694 
0.304571 -0.35967 -0.881972 0.261839 -0.236713 -0.935632 0.0989108 -0.23962 -0.965815 
-0.0137684 -0.218394 -0.975764 -0.0497003 -0.187743 -0.98096 0.030814 -0.195551 -0.980209 
0.0201056 -0.304803 -0.952203 -0.103953 -0.17661 -0.978776 -0.153705 -0.14913 -0.976798 
-0.242666 -0.139391 -0.960043 -0.189779 -0.1743 -0.966231 -0.23054 -0.185607 -0.955197 
0.247213 -0.382711 -0.890179 0.183252 -0.400706 -0.897694 0.155969 -0.353343 -0.9224 
0.0829911 -0.362319 -0.928352 0.0414334 -0.269038 -0.962238 -0.0253832 -0.332022 -0.94293 
-0.0435629 -0.257928 -0.965182 -0.0382526 -0.289245 -0.95649 -0.0493552 -0.234963 -0.970751 
-0.0304925 -0.309086 -0.950545 -0.0193269 -0.312373 -0.949763 -0.00257261 -0.309662 -0.950843 
-0.00241475 -0.287298 -0.957838 -0.164243 -0.181653 -0.96955 -0.0551094 -0.281533 -0.957968 
-0.0690666 -0.227959 -0.971218 
