# vtk DataFile Version 4.2
vtk output
ASCII
DATASET POLYDATA
POINTS 528 float
-9.15382 -41.6621 -13.9072 -1.29544 -41.6621 -13.9303 6.56293 -41.6621 -13.8826 
14.4213 -41.6621 -13.5136 -24.8706 -33.8037 -13.3917 -17.0122 -33.8037 -15.185 
-9.15382 -33.8037 -16.2969 -1.29544 -33.8037 -17.0753 6.56293 -33.8037 -17.112 
14.4213 -33.8037 -16.3384 22.2797 -33.8037 -15.1417 -32.7289 -25.9453 -12.8893 
-24.8706 -25.9453 -14.2104 -17.0122 -25.9453 -15.6913 -9.15382 -25.9453 -17.1925 
-1.29544 -25.9453 -18.0317 6.56293 -25.9453 -18.0036 14.4213 -25.9453 -17.1913 
22.2797 -25.9453 -16.4709 30.1381 -25.9453 -15.826 37.9964 -25.9453 -13.8998 
-32.7289 -18.0869 -12.7815 -24.8706 -18.0869 -14.0843 -17.0122 -18.0869 -15.2555 
-9.15382 -18.0869 -16.8363 -1.29544 -18.0869 -17.451 6.56293 -18.0869 -17.1653 
14.4213 -18.0869 -16.7565 22.2797 -18.0869 -16.8479 30.1381 -18.0869 -17.0086 
37.9964 -18.0869 -17.2411 45.8548 -18.0869 -15.1797 -32.7289 -10.2286 -12.9187 
-24.8706 -10.2286 -13.4544 -17.0122 -10.2286 -14.3966 -9.15382 -10.2286 -17.0961 
-1.29544 -10.2286 -17.1127 6.56293 -10.2286 -18.3072 14.4213 -10.2286 -16.7393 
22.2797 -10.2286 -16.835 30.1381 -10.2286 -18.319 37.9964 -10.2286 -17.8683 
45.8548 -10.2286 -17.051 53.7132 -10.2286 -14.6318 -40.5873 -2.37018 -12.9953 
-32.7289 -2.37018 -13.3318 -24.8706 -2.37018 -13.5463 -17.0122 -2.37018 -14.1049 
-9.15382 -2.37018 -18.5913 -1.29544 -2.37018 -14.5186 6.56293 -2.37018 -20.2267 
14.4213 -2.37018 -17.8207 22.2797 -2.37018 -16.4688 30.1381 -2.37018 -17.5584 
37.9964 -2.37018 -18.1839 45.8548 -2.37018 -17.9711 53.7132 -2.37018 -16.4211 
-40.5873 5.4882 -13.2274 -32.7289 5.4882 -14.6445 -24.8706 5.4882 -14.8905 
-17.0122 5.4882 -14.574 -9.15382 5.4882 -14.5524 -1.29544 5.4882 -17.3441 
6.56293 5.4882 -17.2373 14.4213 5.4882 -17.6221 22.2797 5.4882 -17.6475 
30.1381 5.4882 -18.4233 37.9964 5.4882 -18.7363 45.8548 5.4882 -18.5456 
53.7132 5.4882 -17.1079 -40.5873 13.3466 -14.0739 -32.7289 13.3466 -15.6278 
-24.8706 13.3466 -15.9782 -17.0122 13.3466 -15.2908 -9.15382 13.3466 -14.2593 
-1.29544 13.3466 -17.1981 6.56293 13.3466 -16.7404 14.4213 13.3466 -18.2298 
22.2797 13.3466 -19.5982 30.1381 13.3466 -19.6166 37.9964 13.3466 -19.2937 
45.8548 13.3466 -17.2892 53.7132 13.3466 -14.0928 -40.5873 21.205 -14.1541 
-32.7289 21.205 -15.8108 -24.8706 21.205 -16.4186 -17.0122 21.205 -16.1461 
-9.15382 21.205 -16.2327 -1.29544 21.205 -17.0485 6.56293 21.205 -16.7354 
14.4213 21.205 -18.1531 22.2797 21.205 -19.3006 30.1381 21.205 -19.9492 
37.9964 21.205 -18.3798 45.8548 21.205 -15.7191 -32.7289 29.0633 -14.0327 
-24.8706 29.0633 -15.8834 -17.0122 29.0633 -16.2967 -9.15382 29.0633 -16.9678 
-1.29544 29.0633 -16.8156 6.56293 29.0633 -16.5371 14.4213 29.0633 -16.5172 
22.2797 29.0633 -17.0478 30.1381 29.0633 -16.6754 37.9964 29.0633 -14.5039 
-17.0122 36.9217 -14.2122 -9.15382 36.9217 -15.1952 -1.29544 36.9217 -15.2332 
6.56293 36.9217 -14.4043 14.4213 36.9217 -12.9222 -9.15382 -43.1742 -12.7451 
-1.29544 -43.1689 -12.7451 6.56293 -43.0775 -12.7451 14.4213 -42.6252 -12.7451 
-24.8706 -35.1727 -12.7451 -24.8706 -41.6621 -8.10268 -13.8486 -41.6621 -12.7451 
-17.0122 -39.6834 -12.7451 -17.0122 -41.6621 -11.6961 16.7047 -41.6621 -12.7451 
22.2797 -38.1329 -12.7451 22.2797 -41.6621 -9.73835 -40.5873 -33.8037 -6.3194 
-26.4307 -33.8037 -12.7451 -32.7289 -26.3737 -12.7451 -32.7289 -33.8037 -9.5687 
29.0082 -33.8037 -12.7451 30.1381 -32.888 -12.7451 30.1381 -33.8037 -12.1447 
37.9964 -27.6117 -12.7451 -48.4457 -25.9453 -5.74274 -33.0766 -25.9453 -12.7451 
-40.5873 -25.9453 -9.14977 40.986 -25.9453 -12.7451 45.8548 -22.5708 -12.7451 
45.8548 -25.9453 -5.24611 -48.4457 -18.0869 -7.52518 -32.9062 -18.0869 -12.7451 
-40.5873 -18.0869 -10.9904 52.151 -18.0869 -12.7451 53.7132 -15.7291 -12.7451 
53.7132 -18.0869 -9.77619 -56.3041 -10.2286 -5.76631 -48.4457 -10.2286 -11.1041 
-34.4578 -10.2286 -12.7451 -40.5873 -4.7842 -12.7451 -40.5873 -10.2286 -12.0824 
56.0627 -10.2286 -12.7451 -56.3041 -2.37018 -7.69187 -41.3225 -2.37018 -12.7451 
-48.4457 -2.37018 -10.3249 58.8758 -2.37018 -12.7451 61.5716 -2.37018 -8.23961 
-56.3041 5.4882 -7.14652 -42.3826 5.4882 -12.7451 -48.4457 5.4882 -11.3037 
59.5526 5.4882 -12.7451 61.5716 5.4882 -9.61693 -56.3041 13.3466 -7.41681 
-44.8477 13.3466 -12.7451 -48.4457 13.3466 -11.6891 55.3649 13.3466 -12.7451 
53.7132 17.7738 -12.7451 -56.3041 21.205 -5.85419 -43.7365 21.205 -12.7451 
-48.4457 21.205 -10.1232 -40.5873 24.6492 -12.7451 51.9649 21.205 -12.7451 
45.8548 25.6016 -12.7451 53.7132 21.205 -9.89372 -48.4457 29.0633 -5.46879 
-35.8812 29.0633 -12.7451 -40.5873 29.0633 -9.95318 -32.7289 31.2902 -12.7451 
-24.8706 36.0255 -12.7451 22.2797 35.2727 -12.7451 30.1381 33.3533 -12.7451 
41.0666 29.0633 -12.7451 37.9964 30.7376 -12.7451 -32.7289 36.9217 -6.3018 
-23.1509 36.9217 -12.7451 -24.8706 36.9217 -12.1066 -17.0122 39.1153 -12.7451 
-9.15382 41.1862 -12.7451 -1.29544 41.1779 -12.7451 6.56293 39.3754 -12.7451 
15.4854 36.9217 -12.7451 14.4213 37.1573 -12.7451 22.2797 36.9217 -10.9663 
30.1381 36.9217 -6.15964 -17.0122 44.7801 -5.15193 -9.15382 44.7801 -8.6676 
-1.29544 44.7801 -8.77062 6.56293 44.7801 -7.12155 -24.8706 -44.2492 -4.88677 
-17.0122 -47.2425 -4.88677 -9.15382 -49.0377 -4.88677 -1.29544 -49.3446 -4.88677 
6.56293 -49.093 -4.88677 14.4213 -48.0176 -4.88677 22.2797 -44.8188 -4.88677 
-40.5873 -35.2253 -4.88677 -30.4618 -41.6621 -4.88677 -32.7289 -40.2253 -4.88677 
27.6053 -41.6621 -4.88677 30.1381 -39.8107 -4.88677 -42.2817 -33.8037 -4.88677 
-48.4457 -27.1911 -4.88677 36.6608 -33.8037 -4.88677 37.9964 -32.7549 -4.88677 
45.8548 -26.0613 -4.88677 -49.3967 -25.9453 -4.88677 46.003 -25.9453 -4.88677 
45.8548 -25.9453 -4.45058 53.7132 -19.4922 -4.88677 -51.9706 -18.0869 -4.88677 
-56.3041 -12.3984 -4.88677 54.9939 -18.0869 -4.88677 53.7132 -18.0869 -1.90087 
-57.2618 -10.2286 -4.88677 60.1759 -10.2286 -4.88677 61.5716 -6.03752 -4.88677 
-59.3614 -2.37018 -4.88677 62.654 -2.37018 -4.88677 61.5716 -2.37018 -1.38059 
-59.0485 5.4882 -4.88677 -64.1624 5.4882 2.81643 63.2534 5.4882 -4.88677 
61.5716 10.7399 -4.88677 61.5716 5.4882 0.70822 -59.2597 13.3466 -4.88677 
60.6664 13.3466 -4.88677 -57.2538 21.205 -4.88677 -56.3041 22.3799 -4.88677 
45.8548 28.9124 -4.88677 55.5051 21.205 -4.88677 53.7132 23.2509 -4.88677 
-49.0399 29.0633 -4.88677 -48.4457 29.4925 -4.88677 -40.5873 33.3326 -4.88677 
45.6292 29.0633 -4.88677 37.9964 33.5339 -4.88677 -34.2696 36.9217 -4.88677 
-32.7289 37.7005 -4.88677 -24.8706 41.6165 -4.88677 14.4213 44.5525 -4.88677 
22.2797 40.8377 -4.88677 31.0978 36.9217 -4.88677 30.1381 37.4504 -4.88677 
30.1381 36.9217 1.6659 -17.3307 44.7801 -4.88677 -17.0122 44.8987 -4.88677 
-17.0122 44.7801 -4.02084 -9.15382 46.6581 -4.88677 -1.29544 46.8554 -4.88677 
13.3907 44.7801 -4.88677 6.56293 46.0932 -4.88677 14.4213 44.7801 1.20055 
-24.8706 -44.0596 2.9716 -17.0122 -46.3363 2.9716 -9.15382 -48.4393 2.9716 
-1.29544 -49.1636 2.9716 6.56293 -49.0076 2.9716 14.4213 -47.9574 2.9716 
22.2797 -44.6383 2.9716 -40.5873 -36.2982 2.9716 -30.303 -41.6621 2.9716 
-32.7289 -40.2899 2.9716 -24.8706 -41.6621 6.51951 -17.0122 -41.6621 8.32536 
27.0248 -41.6621 2.9716 22.2797 -41.6621 8.0613 30.1381 -39.1373 2.9716 
-43.8974 -33.8037 2.9716 -48.4457 -29.6121 2.9716 -40.5873 -33.8037 6.62723 
-32.7289 -33.8037 9.81026 35.6565 -33.8037 2.9716 30.1381 -33.8037 9.5822 
37.9964 -31.4659 2.9716 -51.6184 -25.9453 2.9716 -48.4457 -25.9453 7.28502 
43.5736 -25.9453 2.9716 37.9964 -25.9453 8.61251 45.8548 -23.7576 2.9716 
-56.1867 -18.0869 2.9716 -56.3041 -17.8988 2.9716 -48.4457 -18.0869 9.99386 
51.392 -18.0869 2.9716 45.8548 -18.0869 8.17072 53.7132 -15.0841 2.9716 
-60.1855 -10.2286 2.9716 -56.3041 -10.2286 10.0871 56.8956 -10.2286 2.9716 
53.7132 -10.2286 6.31092 -62.5545 -2.37018 2.9716 -64.1624 5.18882 2.9716 
59.7853 -2.37018 2.9716 53.7132 -2.37018 9.56079 -64.2233 5.4882 2.9716 
-64.1624 8.23635 2.9716 -64.1624 5.4882 3.13554 60.7111 5.4882 2.9716 
-64.0374 13.3466 2.9716 58.9064 13.3466 2.9716 53.7132 13.3466 9.7301 
-60.2943 21.205 2.9716 -56.3041 25.4004 2.9716 45.8548 27.9436 2.9716 
53.9347 21.205 2.9716 53.7132 21.4662 2.9716 53.7132 21.205 3.32045 
-51.278 29.0633 2.9716 -48.4457 31.3542 2.9716 -48.4457 29.0633 8.03032 
-40.5873 33.9408 2.9716 30.1381 36.8094 2.9716 44.1767 29.0633 2.9716 
37.9964 32.7408 2.9716 -33.0662 36.9217 2.9716 -32.7289 37.0549 2.9716 
-32.7289 36.9217 3.2448 -24.8706 40.7654 2.9716 -24.8706 36.9217 8.50034 
-17.0122 43.6542 2.9716 29.9476 36.9217 2.9716 22.2797 41.2513 2.9716 
-11.8653 44.7801 2.9716 -9.15382 45.2945 2.9716 -9.15382 44.7801 3.87523 
-1.29544 45.8271 2.9716 -1.29544 44.7801 4.79252 6.56293 45.9932 2.9716 
6.56293 44.7801 5.44782 14.5529 44.7801 2.9716 14.4213 44.8375 2.9716 
14.4213 44.7801 3.12135 -9.15382 -41.947 10.83 -1.29544 -44.3275 10.83 
6.56293 -44.7213 10.83 14.4213 -43.1616 10.83 -24.8706 -35.7204 10.83 
-9.89399 -41.6621 10.83 -17.0122 -37.5582 10.83 -9.15382 -41.6621 11.0448 
-1.29544 -41.6621 13.0096 6.56293 -41.6621 13.4581 17.8043 -41.6621 10.83 
14.4213 -41.6621 12.1127 22.2797 -39.1548 10.83 -40.5873 -26.9449 10.83 
-29.2288 -33.8037 10.83 -32.7289 -32.4016 10.83 -24.8706 -33.8037 11.949 
-17.0122 -33.8037 12.5662 -9.15382 -33.8037 14.5621 -1.29544 -33.8037 16.3947 
6.56293 -33.8037 16.9941 14.4213 -33.8037 16.2433 28.6929 -33.8037 10.83 
22.2797 -33.8037 14.4491 30.1381 -32.4477 10.83 -41.7268 -25.9453 10.83 
-40.5873 -25.9453 11.2397 -32.7289 -25.9453 13.7532 -24.8706 -25.9453 14.0427 
-17.0122 -25.9453 14.4128 -9.15382 -25.9453 15.715 -1.29544 -25.9453 17.6454 
6.56293 -25.9453 18.1913 14.4213 -25.9453 17.5587 22.2797 -25.9453 17.3286 
35.6148 -25.9453 10.83 30.1381 -25.9453 14.7366 37.9964 -22.329 10.83 
-47.0782 -18.0869 10.83 -48.4457 -15.9033 10.83 -40.5873 -18.0869 13.9165 
-32.7289 -18.0869 14.6094 -24.8706 -18.0869 14.8341 -17.0122 -18.0869 14.7793 
-9.15382 -18.0869 15.6944 -1.29544 -18.0869 17.3031 6.56293 -18.0869 17.0985 
14.4213 -18.0869 18.1585 30.1381 -18.0869 16.9872 41.6078 -18.0869 10.83 
[...]
POINT_DATA 528
SCALARS ImageScalars float
LOOKUP_TABLE default
0 0 0 0 0 0 0 0 0 
0 0 0 0 0 0 0 0 0 
0 0 0 0 0 0 0 0 0 
0 0 0 0 0 0 0 0 0 
0 0 0 0 0 0 0 0 0 
0 0 0 0 0 0 0 0 0 
0 0 0 0 0 0 0 0 0 
0 0 0 0 0 0 0 0 0 
0 0 0 0 0 0 0 0 0 
0 0 0 0 0 0 0 0 0 
0 0 0 0 0 0 0 0 0 
0 0 0 0 0 0 0 0 0 
0 0 0 0 0 0 0 0 0 
0 0 0 0 0 0 0 0 0 
0 0 0 0 0 0 0 0 0 
0 0 0 0 0 0 0 0 0 
0 0 0 0 0 0 0 0 0 
0 0 0 0 0 0 0 0 0 
0 0 0 0 0 0 0 0 0 
0 0 0 0 0 0 0 0 0 
0 0 0 0 0 0 0 0 0 
0 0 0 0 0 0 0 0 0 
0 0 0 0 0 0 0 0 0 
0 0 0 0 0 0 0 0 0 
0 0 0 0 0 0 0 0 0 
0 0 0 0 0 0 0 0 0 
0 0 0 0 0 0 0 0 0 
0 0 0 0 0 0 0 0 0 
0 0 0 0 0 0 0 0 0 
0 0 0 0 0 0 0 0 0 
0 0 0 0 0 0 0 0 0 
0 0 0 0 0 0 0 0 0 
0 0 0 0 0 0 0 0 0 
0 0 0 0 0 0 0 0 0 
0 0 0 0 0 0 0 0 0 
0 0 0 0 0 0 0 0 0 
0 0 0 0 0 0 0 0 0 
0 0 0 0 0 0 0 0 0 
0 0 0 0 0 0 0 0 0 
0 0 0 0 0 0 0 0 0 
0 0 0 0 0 0 0 0 0 
0 0 0 0 0 0 0 0 0 
0 0 0 0 0 0 0 0 0 
0 0 0 0 0 0 0 0 0 
0 0 0 0 0 0 0 0 0 
0 0 0 0 0 0 0 0 0 
0 0 0 0 0 0 0 0 0 
0 0 0 0 0 0 0 0 0 
0 0 0 0 0 0 0 0 0 
0 0 0 0 0 0 0 0 0 
0 0 0 0 0 0 0 0 0 
0 0 0 0 0 0 0 0 0 
0 0 0 0 0 0 0 0 0 
0 0 0 0 0 0 0 0 0 
0 0 0 0 0 0 0 0 0 
0 0 0 0 0 0 0 0 0 
0 0 0 0 0 0 0 0 0 
0 0 0 0 0 0 0 0 0 
0 0 0 0 0 0 
NORMALS Normals float
-0.117276 -0.50363 -0.855923 0.0012281 -0.533545 -0.845771 0.0250499 -0.547481 -0.836443 
0.178147 -0.549862 -0.816036 -0.310798 -0.278732 -0.908687 -0.192661 -0.22357 -0.955457 
-0.111833 -0.200942 -0.973199 -0.0503004 -0.234781 -0.970746 0.0454187 -0.233554 -0.971283 
0.114456 -0.220331 -0.968687 0.240656 -0.329994 -0.912792 -0.293632 -0.170652 -0.940563 
-0.192168 -0.0482406 -0.980176 -0.177858 -0.00255673 -0.984053 -0.14766 -0.0322168 -0.988513 
-0.050479 -0.0208312 -0.998508 0.0539776 -3.4588e-05 -0.998542 0.0951933 -0.0246009 -0.995155 
0.0819975 -0.0983712 -0.991766 0.162369 -0.282028 -0.945567 0.278393 -0.51094 -0.813288 
-0.182568 -0.00122498 -0.983192 -0.15321 0.0456874 -0.987137 -0.175617 0.081841 -0.981051 
-0.135623 0.00684968 -0.990737 -0.0204985 0.0579429 -0.998109 0.0432518 -0.0102582 -0.999012 
0.0205407 0.0291005 -0.999365 -0.0155685 -0.0226777 -0.999622 -0.0238425 -0.137287 -0.990244 
0.121874 -0.260194 -0.957834 0.309053 -0.354791 -0.882389 -0.081939 -0.0348402 -0.996028 
-0.0943547 0.034416 -0.994944 -0.216429 0.0674072 -0.973969 -0.175601 -0.111549 -0.978121 
-0.0660231 0.158064 -0.985219 0.017925 -0.173633 -0.984647 0.0868207 -0.0529282 -0.994817 
-0.0890712 0.0253941 -0.995701 -0.0630701 -0.0359303 -0.997362 0.0723707 -0.055661 -0.995823 
0.168763 -0.177046 -0.969625 0.50697 -0.261369 -0.821381 -0.197528 -0.0662675 -0.978055 
-0.0368169 -0.107503 -0.993523 -0.0426331 -0.0905546 -0.994979 -0.327421 -0.0123337 -0.944798 
-0.0193708 0.108583 -0.993899 -0.00753244 0.00508372 -0.999959 -0.221035 0.0900019 -0.971104 
0.23201 -0.0606179 -0.970823 -0.00642531 -0.052273 -0.998612 -0.109837 -0.0137203 -0.993855 
-0.0267045 -0.0551001 -0.998124 0.0911942 -0.0916026 -0.991611 0.414627 -0.121471 -0.901848 
-0.208857 -0.0658308 -0.975728 -0.104756 -0.144046 -0.984011 0.00500039 -0.157194 -0.987555 
0.021079 -0.0661146 -0.997589 -0.177508 0.29889 -0.937633 -0.138315 -0.157293 -0.977818 
-0.0191744 0.172152 -0.984884 -0.0259994 -0.0300236 -0.999211 -0.0516028 -0.203012 -0.977816 
-0.0680873 -0.129781 -0.989202 -0.00855043 -0.0696491 -0.997535 0.0849071 0.0422567 -0.995492 
0.418896 0.114154 -0.90083 -0.234318 -0.0565901 -0.970511 -0.119324 -0.0721321 -0.990232 
0.0182002 -0.0963368 -0.995182 0.109542 -0.103673 -0.988561 -0.11331 -0.106946 -0.987787 
-0.15877 0.0191769 -0.987129 -0.0671555 0.0306221 -0.997272 -0.181884 -0.0338098 -0.982739 
-0.0870015 -0.103647 -0.990802 0.0187695 -0.0950942 -0.995291 0.141424 0.0232617 -0.989676 
0.27423 0.16481 -0.947436 0.529319 0.279449 -0.80108 -0.311435 0.183732 -0.932336 
-0.152751 0.102472 -0.982938 -0.0196243 0.00225662 -0.999805 0.0120299 -0.0587466 -0.9982 
-0.0584203 -0.171246 -0.983495 -0.028404 0.0232893 -0.999325 -0.0682169 0.0133164 -0.997582 
-0.161572 0.0956061 -0.982219 -0.11083 0.140584 -0.983846 0.0628009 0.146411 -0.987228 
0.245053 0.245022 -0.938037 0.398552 0.364809 -0.841469 -0.290384 0.370251 -0.882378 
-0.143231 0.238109 -0.960619 -0.0702575 0.108149 -0.991649 -0.0310834 0.0659761 -0.997337 
0.0282992 0.112673 -0.993229 0.0185418 0.1268 -0.991755 -0.0276232 0.301639 -0.953022 
-0.0117404 0.443277 -0.896308 0.136599 0.565662 -0.813245 0.32457 0.665842 -0.671795 
-0.180026 0.426579 -0.886353 -0.0569528 0.376409 -0.924701 0.0426751 0.362793 -0.930892 
0.136748 0.436089 -0.889453 0.153876 0.528584 -0.834818 -0.105506 -0.5806 -0.807324 
0.00438727 -0.601828 -0.798614 0.0260282 -0.611591 -0.790746 0.176694 -0.598242 -0.781592 
-0.318508 -0.341744 -0.884174 -0.384991 -0.73735 -0.555064 -0.215778 -0.505328 -0.835514 
-0.260296 -0.43135 -0.863819 -0.294525 -0.543456 -0.786073 0.236265 -0.572478 -0.785142 
0.32239 -0.488681 -0.810713 0.41659 -0.70283 -0.576613 -0.550911 -0.600979 -0.57907 
-0.323979 -0.303228 -0.896153 -0.297776 -0.182432 -0.937042 -0.401439 -0.462428 -0.790574 
0.385713 -0.479931 -0.787967 0.38195 -0.479032 -0.790343 0.427992 -0.521201 -0.738358 
0.338353 -0.574811 -0.745057 -0.639384 -0.420873 -0.64347 -0.298266 -0.17379 -0.938528 
-0.416352 -0.258104 -0.871799 0.375606 -0.608058 -0.699418 0.439941 -0.595027 -0.672603 
0.627281 -0.777737 -0.0405343 -0.536483 -0.288455 -0.793083 -0.184329 -0.00496527 -0.982852 
-0.293697 -0.192188 -0.936379 0.579293 -0.504926 -0.639897 0.618822 -0.452679 -0.641982 
0.718738 -0.60672 -0.339569 -0.653505 -0.310505 -0.690303 -0.391869 -0.105454 -0.913958 
-0.0839607 -0.0536261 -0.995025 -0.167677 -0.0837557 -0.982278 -0.104127 -0.127291 -0.986385 
0.636706 -0.295914 -0.712068 -0.571868 -0.103935 -0.813735 -0.209982 -0.0582087 -0.975971 
-0.324148 -0.0347653 -0.945367 0.685365 -0.140232 -0.714569 0.943931 -0.175633 -0.279547 
-0.585349 0.0240358 -0.810425 -0.224013 -0.06934 -0.972116 -0.30271 -0.0886487 -0.948951 
0.706173 0.147999 -0.692398 0.897719 0.148353 -0.414839 -0.653416 0.0789804 -0.752867 
-0.277548 -0.00830862 -0.960676 -0.334278 0.0553838 -0.940846 0.602282 0.293651 -0.742311 
0.606529 0.400865 -0.686607 -0.646985 0.413212 -0.640832 -0.388756 0.218825 -0.894977 
-0.488108 0.318525 -0.812584 -0.365148 0.340043 -0.866624 0.594467 0.480649 -0.644659 
0.48562 0.62208 -0.614157 0.705728 0.579003 -0.408294 -0.532607 0.709815 -0.46097 
-0.341809 0.440979 -0.829882 -0.437091 0.606096 -0.664529 -0.330763 0.475068 -0.815418 
-0.28521 0.535761 -0.794743 0.145266 0.657747 -0.739099 0.221757 0.747408 -0.626263 
0.404013 0.724033 -0.559062 0.346948 0.74402 -0.571018 -0.44538 0.847221 -0.289573 
-0.277133 0.544363 -0.791749 -0.31631 0.59831 -0.736188 -0.210062 0.552886 -0.806344 
-0.0808066 0.579454 -0.810989 0.0698771 0.566727 -0.820937 0.164285 0.538574 -0.826407 
0.157946 0.554421 -0.817111 0.157441 0.537542 -0.828409 0.227794 0.746392 -0.625307 
0.411207 0.885006 -0.218341 -0.295552 0.940845 -0.165709 -0.111045 0.891537 -0.439124 
0.0602368 0.87882 -0.473336 0.163732 0.893173 -0.418849 -0.407303 -0.853849 -0.324109 
-0.285156 -0.933229 -0.218563 -0.120722 -0.961207 -0.248005 -0.00294317 -0.965911 -0.258857 
0.0759494 -0.96223 -0.261429 0.251919 -0.932669 -0.258195 0.442354 -0.866339 -0.231905 
-0.572793 -0.675243 -0.46471 -0.470171 -0.81857 -0.329973 -0.489142 -0.796188 -0.356124 
0.556782 -0.798163 -0.230064 0.60708 -0.76428 -0.217553 -0.599248 -0.644295 -0.475169 
-0.67755 -0.458456 -0.575103 0.622612 -0.76233 -0.176656 0.620371 -0.767726 -0.160427 
0.629137 -0.777015 -0.0208515 -0.703664 -0.430652 -0.565151 0.630437 -0.775994 -0.0195671 
0.632414 -0.774628 0.00197356 0.741865 -0.667899 0.0595666 -0.657333 -0.346777 -0.669073 
-0.682162 -0.343819 -0.645325 0.764507 -0.641739 0.0608226 0.741202 -0.63312 0.223112 
-0.703459 -0.31791 -0.635672 0.907762 -0.419205 0.0153277 0.958434 -0.285041 0.0124751 
-0.791031 -0.114856 -0.600898 0.983915 -0.177542 -0.0197745 0.951447 -0.205446 0.229216 
-0.73695 0.0107445 -0.675862 -0.995729 -0.0905773 -0.0178698 0.991502 0.120486 -0.0490598 
0.948717 0.308738 -0.0679409 0.927699 0.092395 0.361715 -0.730244 0.107841 -0.674622 
0.910429 0.400853 -0.102152 -0.699324 0.414638 -0.582256 -0.66536 0.464703 -0.584249 
0.529961 0.844492 -0.0772921 0.76033 0.647044 -0.0568579 0.712877 0.698303 -0.0646435 
-0.53862 0.725081 -0.429122 -0.530085 0.733512 -0.425405 -0.478772 0.816098 -0.32367 
0.526204 0.846888 -0.0767464 0.435245 0.895416 -0.0937624 -0.452464 0.865105 -0.216492 
-0.44705 0.871148 -0.203093 -0.424404 0.887521 -0.179409 0.297414 0.897139 -0.32663 
0.404263 0.871092 -0.278874 0.432036 0.890296 -0.143938 0.433272 0.887709 -0.155718 
0.491619 0.862487 0.120115 -0.300736 0.941658 -0.15112 -0.295221 0.943471 -0.150686 
-0.295619 0.949903 -0.101456 -0.123846 0.982363 -0.140089 0.0344627 0.984069 -0.174415 
0.27795 0.906463 -0.317914 0.145311 0.952413 -0.267944 0.292561 0.954359 0.0600616 
-0.325726 -0.890763 0.31693 -0.270046 -0.88988 0.367682 -0.158801 -0.935576 0.315404 
-0.0307095 -0.972184 0.232195 0.0724219 -0.97555 0.207502 0.252298 -0.941418 0.223783 
0.467817 -0.851467 0.236962 -0.517492 -0.826262 0.222471 -0.407678 -0.858892 0.310006 
-0.444314 -0.841157 0.308286 -0.286612 -0.78499 0.549221 -0.221736 -0.651384 0.725625 
0.577014 -0.778973 0.245471 0.443191 -0.741401 0.503891 0.637774 -0.725533 0.258545 
-0.595393 -0.778427 0.198894 -0.723998 -0.668377 0.170586 -0.468092 -0.717234 0.516203 
-0.245732 -0.61213 0.751607 0.667297 -0.689785 0.280911 0.553487 -0.56519 0.611729 
0.670933 -0.66792 0.322074 -0.79588 -0.585256 0.155083 -0.65177 -0.508426 0.562761 
0.640505 -0.651746 0.406178 0.619277 -0.477652 0.623173 0.628238 -0.643735 0.436947 
-0.866176 -0.486415 0.114629 -0.867839 -0.483864 0.112834 -0.512399 -0.280173 0.811757 
0.663746 -0.562361 0.493144 0.541009 -0.452121 0.709151 0.691424 -0.506934 0.514734 
-0.92407 -0.377512 0.0598191 -0.58168 -0.364055 0.727401 0.739297 -0.413818 0.53122 
0.606035 -0.388507 0.694107 -0.963728 -0.264459 0.0359196 -0.995326 -0.0961407 -0.00910143 
0.802339 -0.211545 0.558123 0.600392 -0.220282 0.768769 -0.995896 -0.0898823 -0.010631 
-0.999698 0.0205958 -0.0134085 -0.995795 -0.0915942 -0.0013887 0.848081 0.0646018 0.525914 
-0.973033 0.229926 -0.0184453 0.855874 0.323743 0.403323 0.664063 0.241952 0.707446 
-0.83532 0.549743 -0.00474535 -0.650045 0.75941 0.0271557 0.531659 0.806423 0.258884 
0.72701 0.609451 0.316269 0.722018 0.615396 0.316193 0.722536 0.606775 0.331308 
-0.534171 0.842004 0.0754394 -0.484416 0.871919 0.0714059 -0.474792 0.759543 0.444598 
-0.323322 0.931177 0.16844 0.498395 0.849031 0.175356 0.510675 0.823836 0.245977 
0.466902 0.855614 0.223442 -0.375336 0.893779 0.245524 -0.378467 0.891822 0.247821 
-0.37518 0.890167 0.258539 -0.36502 0.876123 0.314912 -0.278504 0.74134 0.610615 
-0.261367 0.902285 0.342885 0.497671 0.849766 0.173842 0.438948 0.888391 0.134485 
-0.176015 0.917695 0.356167 -0.127616 0.921535 0.366725 -0.12523 0.903485 0.409918 
-0.0439266 0.937599 0.344932 -0.0540617 0.895895 0.440964 0.0613331 0.966919 0.2476 
0.0322667 0.920659 0.389031 0.285807 0.943424 0.168127 0.282921 0.944183 0.168746 
0.281682 0.943208 0.176107 -0.234871 -0.558212 0.795761 -0.121754 -0.676912 0.725925 
0.0549296 -0.720293 0.691491 0.23661 -0.671398 0.702311 -0.178248 -0.451915 0.874071 
-0.232979 -0.550654 0.801561 -0.186039 -0.439304 0.878864 -0.235683 -0.547305 0.803064 
-0.136724 -0.557751 0.81867 0.0480656 -0.581915 0.811828 0.308415 -0.655173 0.689658 
0.22262 -0.614754 0.756649 0.402182 -0.614625 0.678591 -0.339711 -0.389941 0.855887 
-0.192156 -0.495909 0.846847 -0.206385 -0.524135 0.826249 -0.148006 -0.38015 0.913006 
-0.154722 -0.320522 0.93452 -0.224027 -0.255629 0.940461 -0.150159 -0.266686 0.952014 
0.0108805 -0.272681 0.962043 0.138724 -0.298126 0.944392 0.503697 -0.527942 0.683789 
0.331015 -0.419737 0.845133 0.520047 -0.515926 0.680714 -0.358178 -0.368487 0.857861 
-0.333134 -0.365079 0.869333 -0.144495 -0.241289 0.959636 -0.046519 -0.164181 0.985333 
-0.0991265 -0.132062 0.986273 -0.205774 -0.0706061 0.976049 -0.151683 -0.0538778 0.98696 
0.00568264 -0.00229498 0.999981 0.0531631 -0.118353 0.991547 0.157253 -0.251444 0.955012 
0.562938 -0.423205 0.709929 0.424117 -0.360855 0.830607 0.548333 -0.38323 0.74328 
-0.438222 -0.234741 0.867674 -0.409382 -0.264558 0.873164 -0.242885 -0.143886 0.959325 
-0.0638618 -0.108343 0.99206 -0.0104822 -0.0127036 0.999864 -0.0541473 0.00698373 0.998509 
-0.159746 -0.0771489 0.984139 -0.0879248 0.0176486 0.995971 -0.0512653 0.0833576 0.9952 
-0.107047 -0.0550403 0.992729 0.344468 -0.173281 0.922668 0.494343 -0.361399 0.790579 
0.476998 -0.304968 0.824298 0.466345 -0.312926 0.827405 -0.490236 -0.345346 0.800253 
-0.542323 -0.309629 0.781035 -0.251739 -0.321931 0.912682 -0.127576 -0.0898249 0.987753 
-0.0153649 -0.0313763 0.99939 0.0664338 0.0577211 0.99612 -0.157944 0.0906176 0.983281 
-0.206411 -0.147334 0.967309 0.017005 0.0827682 0.996424 -0.0650468 -0.0626163 0.995916 
-0.129096 0.0487005 0.990435 0.229428 -0.0620097 0.971348 0.372042 -0.21546 0.902863 
0.460109 -0.302287 0.834819 0.456259 -0.293746 0.839965 -0.630955 -0.164387 0.758203 
-0.528504 -0.148136 0.835906 -0.217536 -0.168787 0.961348 0.0409366 -0.207881 0.977297 
0.0937236 -0.0851864 0.991947 0.113415 -0.101041 0.988397 -0.191993 -0.0434277 0.980435 
-0.170252 0.0483831 0.984212 -0.0317534 -0.0437643 0.998537 -0.0890035 -0.110969 0.98983 
-0.0148848 0.0825144 0.996479 -0.0406398 0.0132698 0.999086 0.110221 -0.069559 0.99147 
0.259801 -0.171385 0.950332 0.534822 -0.233905 0.811945 0.391681 -0.239269 0.888446 
0.642805 -0.0319354 0.765364 -0.679822 -0.060349 0.730889 -0.518797 -0.0538727 0.853199 
-0.234087 -0.0325231 0.971671 -0.0585422 -0.184726 0.981045 0.0782249 -0.167788 0.982715 
0.101559 -0.220071 0.970183 -0.0292299 -0.216757 0.975788 -0.194713 0.0604345 0.978997 
-0.136014 -0.172131 0.975639 0.0852864 -0.0813018 0.993034 -0.0173637 -0.126032 0.991874 
-0.112675 -0.0928049 0.989288 0.211851 -0.105144 0.971629 0.388199 -0.0644151 0.919322 
0.650898 -0.00776549 0.759126 0.649541 0.0215668 0.76002 0.647441 -0.00877392 0.762065 
-0.745298 0.122788 0.655327 -0.537558 0.0839635 0.839036 -0.251149 0.0446957 0.966916 
-0.113208 0.0696021 0.99113 0.0630736 -0.0194169 0.99782 0.0655883 -0.0643074 0.995772 
0.0342835 -0.118593 0.992351 -0.106016 -0.0211895 0.994139 -0.171892 0.100392 0.979987 
0.279807 0.0310231 0.959555 0.612416 0.22506 0.757823 0.468058 0.162373 0.868652 
-0.602972 0.471147 0.643774 -0.568642 0.517112 0.63972 -0.55628 0.457749 0.693554 
-0.401085 0.641607 0.653813 -0.297969 0.410392 0.861854 -0.114856 0.324414 0.938916 
-0.0571925 0.239355 0.969246 -0.00357601 0.143439 0.989653 0.0224101 0.0724738 0.997119 
0.0134092 0.0742683 0.997148 -0.0931983 0.180737 0.979106 -0.17542 0.157203 0.971862 
0.353525 0.337314 0.87249 0.577687 0.488371 0.654042 0.565692 0.526114 0.634979 
0.560051 0.461646 0.687914 -0.333533 0.705656 0.625145 -0.240851 0.749787 0.616288 
-0.230582 0.702529 0.673264 -0.205836 0.698745 0.685118 -0.13616 0.54556 0.826937 
-0.210881 0.627169 0.749792 -0.117978 0.440636 0.889899 -0.0414739 0.320918 0.946198 
0.00564707 0.276249 0.96107 -0.0696531 0.265624 0.961557 -0.149945 0.301107 0.941728 
-0.0663405 0.313711 0.947198 0.108829 0.400547 0.90979 0.439485 0.742999 0.504783 
0.340117 0.561933 0.754024 0.463589 0.704066 0.537937 0.461625 0.706526 0.536399 
0.4602 0.701594 0.544042 -0.185584 0.630849 0.753385 -0.17394 0.63039 0.756541 
-0.166964 0.611536 0.7734 -0.0635372 0.591413 0.803862 -0.0491784 0.520725 0.852307 
-0.0548899 0.566894 0.82196 -0.0506186 0.491068 0.86965 -0.0768394 0.630995 0.771972 
-0.108009 0.506548 0.85542 0.12168 0.744859 0.656033 0.037226 0.574906 0.817372 
0.365242 0.764361 0.531367 0.335449 0.768086 0.545451 0.308787 0.732063 0.607235 
0.0723791 -0.101694 0.992179 0.0425889 -0.0875212 0.995252 0.0814079 -0.0960459 0.992042 
0.0672498 -0.0921 0.993476 -0.0325227 0.0353228 0.998847 0.0707276 0.0108845 0.997436 
0.00969897 0.0211643 0.999729 0.0370598 0.0259914 0.998975 0.0659201 -0.0886515 0.993879 
0.0738715 -0.0729964 0.994593 -0.0228203 -0.146552 0.98894 -0.0989147 -0.0931477 0.990727 
-0.110749 -0.0926694 0.989519 0.0872851 -0.0982498 0.991327 0.0487223 -0.0962945 0.99416 
-0.152239 0.0865034 0.984551 -0.147288 0.123505 0.981353 -0.0451195 0.0114986 0.998915 
-0.030512 -0.152654 0.987809 -0.0162062 -0.0899423 0.995815 0.220603 0.0118453 0.975292 
0.0973917 -0.0227245 0.994987 -0.161999 0.142728 0.976414 -0.0814035 0.213476 0.973551 
-0.102108 0.0780225 0.991709 0.07254 0.296162 0.952379 0.017027 0.116627 0.99303 
0.220856 0.233651 0.946905 0.19718 0.260067 0.945243 0.172848 0.198434 0.964753 

