# vtk DataFile Version 4.2
vtk output
ASCII
DATASET POLYDATA
POINTS 498 float
1.17399 -12.7053 -20.1497 -19.1748 -33.0541 -14.3642 -12.3919 -33.0541 -16.2416 
-5.60894 -33.0541 -16.596 1.17399 -33.0541 -15.9664 7.95692 -33.0541 -14.2869 
-25.9577 -26.2712 -16.4957 -19.1748 -26.2712 -18.2576 -12.3919 -26.2712 -19.1089 
-5.60894 -26.2712 -18.9855 1.17399 -26.2712 -18.6839 7.95692 -26.2712 -17.7576 
14.7398 -26.2712 -15.4804 -32.7407 -19.4882 -15.752 -25.9577 -19.4882 -18.7354 
-19.1748 -19.4882 -19.6135 -12.3919 -19.4882 -19.7864 -5.60894 -19.4882 -19.8858 
1.17399 -13.3818 -20.1241 1.17399 -19.4882 -19.889 7.95692 -19.4882 -19.0871 
14.7398 -19.4882 -17.5042 21.5228 -19.4882 -14.972 -32.7407 -12.7053 -18.0879 
-25.9577 -12.7053 -20.0483 -19.1748 -12.7053 -19.8291 -12.3919 -12.7053 -19.7265 
0.51164 -12.7053 -20.1241 -5.60894 -12.7053 -19.8872 1.48569 -12.7053 -20.1241 
1.17399 -12.5154 -20.1241 7.95692 -12.7053 -19.5849 14.7398 -12.7053 -17.909 
21.5228 -12.7053 -15.9657 -39.5236 -5.92239 -15.1704 -32.7407 -5.92239 -18.5938 
-25.9577 -5.92239 -19.6819 -19.1748 -5.92239 -19.6873 -12.3919 -5.92239 -19.6044 
-5.60894 -5.92239 -20.007 1.17399 -5.92239 -19.1934 7.95692 -5.92239 -19.1384 
14.7398 -5.92239 -17.2012 21.5228 -5.92239 -15.7241 28.3057 -5.92239 -14.8298 
-39.5236 0.860541 -16.2422 -32.7407 0.860541 -19.0539 -25.9577 0.860541 -19.793 
-19.1748 0.860541 -19.5629 -12.3919 0.860541 -19.2747 -5.60894 0.860541 -19.7731 
1.17399 0.860541 -17.7802 7.95692 0.860541 -18.4169 14.7398 0.860541 -17.0009 
21.5228 0.860541 -16.3828 28.3057 0.860541 -15.9603 35.0886 0.860541 -14.2402 
-39.5236 7.64347 -16.0046 -32.7407 7.64347 -18.9854 -25.9577 7.64347 -19.7254 
-19.1748 7.64347 -19.3705 -12.3919 7.64347 -18.367 -5.60894 7.64347 -17.5447 
1.17399 7.64347 -17.647 7.95692 7.64347 -17.7882 14.7398 7.64347 -17.6251 
21.5228 7.64347 -17.5907 28.3057 7.64347 -16.7655 35.0886 7.64347 -15.1355 
-39.5236 14.4264 -14.3098 -32.7407 14.4264 -18.3625 -25.9577 14.4264 -19.3731 
-19.1748 14.4264 -18.871 -12.3919 14.4264 -17.7114 -5.60894 14.4264 -17.1681 
1.17399 14.4264 -17.9284 7.95692 14.4264 -17.7067 14.7398 14.4264 -17.6534 
21.5228 14.4264 -18.089 28.3057 14.4264 -17.1688 35.0886 14.4264 -14.5869 
-32.7407 21.2093 -15.4964 -25.9577 21.2093 -17.6751 -19.1748 21.2093 -17.7103 
-12.3919 21.2093 -17.487 -5.60894 21.2093 -18.1136 1.17399 21.2093 -18.4901 
7.95692 21.2093 -18.288 14.7398 21.2093 -17.7282 21.5228 21.2093 -16.5525 
28.3057 21.2093 -15.2141 -25.9577 27.9923 -13.74 -19.1748 27.9923 -15.5185 
-12.3919 27.9923 -16.4949 -5.60894 27.9923 -17.4131 1.17399 27.9923 -18.1905 
7.95692 27.9923 -17.1428 14.7398 27.9923 -15.3725 -12.3919 34.7752 -13.4073 
-5.60894 34.7752 -14.517 1.17399 34.7752 -14.8135 -19.1748 -34.0679 -13.3412 
-12.3919 -36.0637 -13.3412 -5.60894 -36.5543 -13.3412 1.17399 -35.8638 -13.3412 
7.95692 -34.0475 -13.3412 -21.3315 -33.0541 -13.3412 -25.9577 -30.4052 -13.3412 
-25.9577 -33.0541 -7.46813 10.0469 -33.0541 -13.3412 14.7398 -29.8338 -13.3412 
14.7398 -33.0541 -10.1437 -30.4781 -26.2712 -13.3412 -32.7407 -23.5277 -13.3412 
-32.7407 -26.2712 -8.77504 18.9204 -26.2712 -13.3412 21.5228 -23.3027 -13.3412 
21.5228 -26.2712 -11.4322 -35.4939 -19.4882 -13.3412 24.4861 -19.4882 -13.3412 
28.3057 -19.4882 -10.5521 -39.2177 -12.7053 -13.3412 -39.5236 -11.9478 -13.3412 
-39.5236 -12.7053 -12.8413 28.2853 -12.7053 -13.3412 28.3057 -12.6696 -13.3412 
28.3057 -12.7053 -13.3327 35.0886 -12.7053 -9.98366 -41.4823 -5.92239 -13.3412 
32.914 -5.92239 -13.3412 35.0886 -3.00526 -13.3412 35.0886 -5.92239 -12.5717 
41.8716 -5.92239 -7.74012 -42.9849 0.860541 -13.3412 -46.3065 0.860541 -6.85751 
36.9161 0.860541 -13.3412 41.8716 0.860541 -10.2297 -42.5004 7.64347 -13.3412 
38.5868 7.64347 -13.3412 41.8716 7.64347 -10.9903 -40.4224 14.4264 -13.3412 
-39.5236 16.0258 -13.3412 37.3226 14.4264 -13.3412 35.0886 18.1463 -13.3412 
41.8716 14.4264 -9.25885 -35.7901 21.2093 -13.3412 -39.5236 21.2093 -7.24718 
-32.7407 24.1984 -13.3412 21.5228 27.7757 -13.3412 32.6872 21.2093 -13.3412 
28.3057 24.1053 -13.3412 35.0886 21.2093 -11.4847 -26.7768 27.9923 -13.3412 
-32.7407 27.9923 -7.60039 -25.9577 28.4761 -13.3412 -19.1748 31.7641 -13.3412 
7.95692 34.3002 -13.3412 21.1246 27.9923 -13.3412 14.7398 30.5853 -13.3412 
21.5228 27.9923 -13.1211 28.3057 27.9923 -7.89582 -12.6318 34.7752 -13.3412 
-19.1748 34.7752 -10.2816 -12.3919 34.8488 -13.3412 -5.60894 36.1152 -13.3412 
6.68761 34.7752 -13.3412 1.17399 36.1661 -13.3412 7.95692 34.7752 -12.4809 
-25.9577 -33.3738 -6.55823 -19.1748 -37.0565 -6.55823 -12.3919 -38.9572 -6.55823 
-5.60894 -39.625 -6.55823 1.17399 -39.307 -6.55823 7.95692 -37.8803 -6.55823 
14.7398 -35.2023 -6.55823 -26.3757 -33.0541 -6.55823 -32.7407 -27.2106 -6.55823 
-25.9577 -33.0541 -2.94169 18.2155 -33.0541 -6.55823 21.5228 -30.4924 -6.55823 
-33.5665 -26.2712 -6.55823 26.22 -26.2712 -6.55823 28.3057 -24.0776 -6.55823 
28.3057 -26.2712 -2.51027 -38.4674 -19.4882 -6.55823 -39.5236 -17.6659 -6.55823 
32.81 -19.4882 -6.55823 35.0886 -16.9446 -6.55823 35.0886 -19.4882 -2.37132 
-42.173 -12.7053 -6.55823 38.7589 -12.7053 -6.55823 41.8716 -7.8886 -6.55823 
41.8716 -12.7053 -1.59423 -44.8289 -5.92239 -6.55823 -46.3065 0.36658 -6.55823 
43.0208 -5.92239 -6.55823 -46.4195 0.860541 -6.55823 -46.3065 2.0929 -6.55823 
-46.3065 0.860541 -2.17869 45.1329 0.860541 -6.55823 -45.7977 7.64347 -6.55823 
45.4788 7.64347 -6.55823 -43.8598 14.4264 -6.55823 43.792 14.4264 -6.55823 
41.8716 17.3809 -6.55823 -39.8398 21.2093 -6.55823 -39.5236 21.6429 -6.55823 
38.8594 21.2093 -6.55823 35.0886 24.6285 -6.55823 -33.433 27.9923 -6.55823 
-32.7407 28.5604 -6.55823 -25.9577 33.3382 -6.55823 14.7398 34.0821 -6.55823 
21.5228 31.4489 -6.55823 29.576 27.9923 -6.55823 28.3057 28.6558 -6.55823 
-23.2872 34.7752 -6.55823 -19.1748 36.8199 -6.55823 -12.3919 38.9684 -6.55823 
-5.60894 39.619 -6.55823 1.17399 38.8102 -6.55823 12.9978 34.7752 -6.55823 
7.95692 36.7443 -6.55823 -19.1748 -36.7711 0.224696 -12.3919 -38.8566 0.224696 
-5.60894 -39.7935 0.224696 1.17399 -39.8179 0.224696 7.95692 -38.7553 0.224696 
14.7398 -36.6668 0.224696 -32.7407 -26.4202 0.224696 -25.5174 -33.0541 0.224696 
-25.9577 -32.7458 0.224696 21.395 -33.0541 0.224696 21.5228 -32.9693 0.224696 
28.3057 -27.4439 0.224696 -32.8723 -26.2712 0.224696 -32.7407 -26.2712 0.500291 
29.5796 -26.2712 0.224696 35.0886 -20.7323 0.224696 -38.0581 -19.4882 0.224696 
-39.5236 -17.1204 0.224696 36.2847 -19.4882 0.224696 41.8716 -13.7343 0.224696 
-41.9497 -12.7053 0.224696 -39.5236 -12.7053 6.05059 42.68 -12.7053 0.224696 
-44.9186 -5.92239 0.224696 46.002 -5.92239 0.224696 -46.244 0.860541 0.224696 
47.7945 0.860541 0.224696 -45.7721 7.64347 0.224696 47.5412 7.64347 0.224696 
-43.8697 14.4264 0.224696 45.2808 14.4264 0.224696 41.8716 19.3459 0.224696 
-39.995 21.2093 0.224696 -39.5236 21.9163 0.224696 -39.5236 21.2093 1.43989 
40.2484 21.2093 0.224696 35.0886 25.5678 0.224696 -34.1803 27.9923 0.224696 
-32.7407 29.2345 0.224696 -32.7407 27.9923 3.13156 -25.9577 34.2336 0.224696 
14.7398 34.3504 0.224696 21.5228 32.0636 0.224696 30.9706 27.9923 0.224696 
28.3057 29.3732 0.224696 28.3057 27.9923 6.78383 -24.959 34.7752 0.224696 
-19.1748 37.6389 0.224696 -12.3919 39.3723 0.224696 -5.60894 39.6494 0.224696 
1.17399 38.7226 0.224696 13.4986 34.7752 0.224696 7.95692 36.7127 0.224696 
-19.1748 -34.0531 7.00763 -12.3919 -36.8165 7.00763 -5.60894 -38.4008 7.00763 
1.17399 -38.676 7.00763 7.95692 -38.0608 7.00763 14.7398 -36.2492 7.00763 
-20.7911 -33.0541 7.00763 -25.9577 -29.2136 7.00763 -19.1748 -33.0541 8.29831 
-12.3919 -33.0541 12.0098 21.3544 -33.0541 7.00763 21.5228 -32.9635 7.00763 
28.3057 -27.8306 7.00763 -29.0982 -26.2712 7.00763 -32.7407 -22.1393 7.00763 
-25.9577 -26.2712 9.84941 -19.1748 -26.2712 13.7384 30.0136 -26.2712 7.00763 
28.3057 -26.2712 10.9654 35.0886 -21.2063 7.00763 -34.8081 -19.4882 7.00763 
-32.7407 -19.4882 9.23954 36.6917 -19.4882 7.00763 35.0886 -19.4882 10.9372 
41.8716 -13.6262 7.00763 -39.0438 -12.7053 7.00763 -39.5236 -11.7218 7.00763 
-32.7407 -12.7053 12.9646 42.554 -12.7053 7.00763 41.8716 -12.7053 8.60567 
-41.9697 -5.92239 7.00763 -39.5236 -5.92239 10.0132 45.7215 -5.92239 7.00763 
-43.3071 0.860541 7.00763 -39.5236 0.860541 11.0224 47.1168 0.860541 7.00763 
-42.9081 7.64347 7.00763 -39.5236 7.64347 11.326 46.5651 7.64347 7.00763 
-40.9899 14.4264 7.00763 -39.5236 17.2151 7.00763 -39.5236 14.4264 8.88564 
43.7957 14.4264 7.00763 41.8716 17.1205 7.00763 41.8716 14.4264 10.282 
-37.0478 21.2093 7.00763 -32.7407 26.0985 7.00763 -32.7407 21.2093 11.317 
28.3057 27.9426 7.00763 38.1718 21.2093 7.00763 35.0886 23.7501 7.00763 
35.0886 21.2093 10.9687 -30.6654 27.9923 7.00763 -25.9577 31.5167 7.00763 
-25.9577 27.9923 10.7277 -19.1748 27.9923 12.8304 -12.3919 27.9923 13.0101 
-5.60894 27.9923 13.4712 14.7398 33.1607 7.00763 28.2094 27.9923 7.00763 
21.5228 31.0509 7.00763 21.5228 27.9923 12.585 -19.4742 34.7752 7.00763 
-19.1748 34.9124 7.00763 -19.1748 34.7752 7.18048 -12.3919 36.7389 7.00763 
-12.3919 34.7752 9.45998 -5.60894 36.9476 7.00763 -5.60894 34.7752 9.49323 
1.17399 36.5002 7.00763 1.17399 34.7752 9.27575 8.75474 34.7752 7.00763 
7.95692 34.9956 7.00763 7.95692 34.7752 7.41472 -5.60894 -34.1005 13.7906 
1.17399 -35.2659 13.7906 7.95692 -35.0694 13.7906 14.7398 -33.3769 13.7906 
-8.19873 -33.0541 13.7906 -12.3919 -30.4688 13.7906 -5.60894 -33.0541 14.6749 
1.17399 -33.0541 15.9366 7.95692 -33.0541 15.8668 15.4911 -33.0541 13.7906 
14.7398 -33.0541 14.1469 21.5228 -29.873 13.7906 -25.9577 -19.8602 13.7906 
-19.034 -26.2712 13.7906 -19.1748 -26.0997 13.7906 -12.3919 -26.2712 15.7775 
-5.60894 -26.2712 17.698 1.17399 -26.2712 18.6283 7.95692 -26.2712 18.6357 
14.7398 -26.2712 18.4284 26.5312 -26.2712 13.7906 21.5228 -26.2712 16.9012 
28.3057 -24.7429 13.7906 -26.2993 -19.4882 13.7906 -25.9577 -19.4882 13.9602 
-19.1748 -19.4882 15.4476 -12.3919 -19.4882 16.7687 -5.60894 -19.4882 18.3001 
1.17399 -19.4882 19.2363 7.95692 -19.4882 19.3299 14.7398 -19.4882 19.7515 
[...]
POINT_DATA 498
SCALARS ImageScalars float
LOOKUP_TABLE default
0 0 0 0 0 0 0 0 0 
0 0 0 0 0 0 0 0 0 
0 0 0 0 0 0 0 0 0 
0 0 0 0 0 0 0 0 0 
0 0 0 0 0 0 0 0 0 
0 0 0 0 0 0 0 0 0 
0 0 0 0 0 0 0 0 0 
0 0 0 0 0 0 0 0 0 
0 0 0 0 0 0 0 0 0 
0 0 0 0 0 0 0 0 0 
0 0 0 0 0 0 0 0 0 
0 0 0 0 0 0 0 0 0 
0 0 0 0 0 0 0 0 0 
0 0 0 0 0 0 0 0 0 
0 0 0 0 0 0 0 0 0 
0 0 0 0 0 0 0 0 0 
0 0 0 0 0 0 0 0 0 
0 0 0 0 0 0 0 0 0 
0 0 0 0 0 0 0 0 0 
0 0 0 0 0 0 0 0 0 
0 0 0 0 0 0 0 0 0 
0 0 0 0 0 0 0 0 0 
0 0 0 0 0 0 0 0 0 
0 0 0 0 0 0 0 0 0 
0 0 0 0 0 0 0 0 0 
0 0 0 0 0 0 0 0 0 
0 0 0 0 0 0 0 0 0 
0 0 0 0 0 0 0 0 0 
0 0 0 0 0 0 0 0 0 
0 0 0 0 0 0 0 0 0 
0 0 0 0 0 0 0 0 0 
0 0 0 0 0 0 0 0 0 
0 0 0 0 0 0 0 0 0 
0 0 0 0 0 0 0 0 0 
0 0 0 0 0 0 0 0 0 
0 0 0 0 0 0 0 0 0 
0 0 0 0 0 0 0 0 0 
0 0 0 0 0 0 0 0 0 
0 0 0 0 0 0 0 0 0 
0 0 0 0 0 0 0 0 0 
0 0 0 0 0 0 0 0 0 
0 0 0 0 0 0 0 0 0 
0 0 0 0 0 0 0 0 0 
0 0 0 0 0 0 0 0 0 
0 0 0 0 0 0 0 0 0 
0 0 0 0 0 0 0 0 0 
0 0 0 0 0 0 0 0 0 
0 0 0 0 0 0 0 0 0 
0 0 0 0 0 0 0 0 0 
0 0 0 0 0 0 0 0 0 
0 0 0 0 0 0 0 0 0 
0 0 0 0 0 0 0 0 0 
0 0 0 0 0 0 0 0 0 
0 0 0 0 0 0 0 0 0 
0 0 0 0 0 0 0 0 0 
0 0 0 
NORMALS Normals float
-0.0217344 -0.0484409 0.99859 0.30144 0.684602 0.663667 0.134634 0.582095 0.801897 
-0.0163482 0.537196 0.843299 -0.143913 0.566305 0.811534 -0.286149 0.618969 0.731434 
0.397382 0.472418 0.786708 0.168748 0.32299 0.931236 0.0505506 0.224565 0.973147 
-0.0301389 0.205824 0.978125 -0.08286 0.245179 0.96593 -0.216258 0.305421 0.927335 
-0.368312 0.392113 0.842967 0.568356 0.377047 0.731305 0.242612 0.230199 0.942416 
0.0764383 0.110968 0.99088 0.0194563 0.0412026 0.998961 0.00791421 0.0670311 0.99772 
-0.0255103 -0.033129 0.999125 -0.0588148 0.106033 0.992622 -0.166983 0.122081 0.978373 
-0.290112 0.159414 0.943622 -0.421478 0.250746 0.871483 0.392911 0.179274 0.901932 
0.103298 0.0665554 0.992421 -0.022704 0.00527044 0.999728 0.00427785 -0.0136152 0.999898 
-0.0165933 -0.0429411 0.99894 0.0311676 0.00892583 0.999474 -0.0279517 -0.0460749 0.998547 
-0.0229226 -0.0521004 0.998379 -0.158571 0.00453937 0.987337 -0.257906 -0.0222403 0.965914 
-0.310724 0.0491682 0.949228 0.636995 0.180118 0.74953 0.283668 0.0661969 0.956635 
0.0801122 -0.0172075 0.996637 -0.00571422 -0.0196184 0.999791 0.0235501 -0.0332218 0.99917 
-0.0277916 -0.00767592 0.999584 -0.0654126 -0.178505 0.981762 -0.141723 -0.0860622 0.986158 
-0.25368 -0.0654053 0.965074 -0.164207 0.0313483 0.985928 -0.211167 0.189578 0.958889 
0.564123 0.0512484 0.824099 0.227339 0.0279217 0.973415 0.0400172 0.0031762 0.999194 
-0.0381278 -0.0233244 0.999001 0.014097 -0.0894395 0.995892 -0.110922 -0.180013 0.97739 
-0.0940995 -0.110051 0.989462 -0.0557836 -0.0971368 0.993707 -0.150928 0.0320378 0.988025 
-0.0777728 0.137905 0.987387 -0.151819 0.135007 0.979145 -0.358047 0.167269 0.918599 
0.587606 -0.106767 0.802072 0.242371 -0.0446879 0.969154 0.0295327 -0.0299788 0.999114 
-0.0963292 -0.0504395 0.994071 -0.135156 -0.116383 0.983965 -0.0517477 -0.189198 0.980574 
0.0176484 0.0109231 0.999785 -0.00163011 -0.0529897 0.998594 -0.0143237 0.0475305 0.998767 
-0.0623887 0.123613 0.990367 -0.177979 0.0895655 0.97995 -0.356644 0.0264024 0.933867 
0.667494 -0.33637 0.664309 0.28733 -0.228075 0.930281 0.0292236 -0.138432 0.989941 
-0.12218 -0.120109 0.985214 -0.124081 -0.0629868 0.990271 0.016344 0.0426778 0.998955 
0.0381094 0.0622877 0.99733 -0.0202216 0.0361369 0.999142 0.0270814 0.00715146 0.999608 
-0.0304331 -0.0745351 0.996754 -0.241033 -0.103378 0.964995 -0.4334 -0.185402 0.881924 
0.419151 -0.476949 0.772549 0.139196 -0.35457 0.92461 -0.0145652 -0.231024 0.972839 
0.0298784 -0.0874729 0.995719 0.0738932 0.0184777 0.997095 0.0129884 0.0208147 0.999699 
-0.0536904 -0.037753 0.997844 -0.126374 -0.13819 0.98231 -0.169455 -0.306851 0.936551 
-0.284886 -0.413866 0.864613 0.315935 -0.598597 0.736116 0.184268 -0.410772 0.892923 
0.127371 -0.264584 0.955914 0.122048 -0.236674 0.963893 -0.0199025 -0.234074 0.972015 
-0.193583 -0.330697 0.923669 -0.273472 -0.496893 0.823596 0.194343 -0.631154 0.750916 
0.0943837 -0.609812 0.786906 -0.0885423 -0.692019 0.716429 0.311983 0.733409 0.603969 
0.151501 0.772987 0.616067 -0.00987785 0.778238 0.627892 -0.149326 0.743034 0.652382 
-0.290096 0.672038 0.68133 0.370078 0.72055 0.586387 0.484975 0.667864 0.564585 
0.567893 0.807555 0.159225 -0.332653 0.641694 0.691065 -0.407642 0.54189 0.734971 
-0.448765 0.724159 0.523645 0.613575 0.569835 0.546638 0.662445 0.512179 0.546662 
0.740869 0.632403 0.226229 -0.457196 0.461646 0.760167 -0.47605 0.390335 0.788045 
-0.535324 0.533453 0.65487 0.694639 0.43416 0.573569 -0.477353 0.306182 0.823642 
-0.572817 0.437706 0.693033 0.74917 0.337092 0.570187 0.751277 0.325198 0.574307 
0.773454 0.348881 0.529198 -0.352105 0.247212 0.902723 -0.351549 0.247549 0.902847 
-0.352375 0.24792 0.902423 -0.54912 0.441776 0.709437 0.733492 0.219232 0.643371 
-0.343743 0.229953 0.910474 -0.385144 0.211342 0.898331 -0.41309 0.253119 0.874807 
-0.686916 0.365742 0.627996 0.74339 0.0593878 0.666217 0.979536 0.0670078 0.189788 
-0.418543 0.171967 0.891767 -0.651846 0.170353 0.73897 0.750668 -0.147367 0.644035 
-0.49861 0.0106366 0.866761 -0.684874 -0.032268 0.727946 0.709413 -0.348323 0.612703 
0.690109 -0.388357 0.610679 -0.51473 -0.227104 0.826727 -0.503211 -0.368021 0.781882 
-0.760275 -0.35549 0.543699 0.564656 -0.510331 0.648633 0.791666 -0.566882 0.227836 
0.465198 -0.586167 0.663324 -0.309218 -0.650288 0.69391 -0.460215 -0.482342 0.745351 
-0.353702 -0.567319 0.74367 -0.578367 -0.55644 0.596545 0.340269 -0.614477 0.711783 
0.589581 -0.753948 0.289753 0.328246 -0.613368 0.718355 0.27759 -0.581465 0.76475 
-0.303803 -0.752188 0.584736 -0.312616 -0.653041 0.689789 -0.337479 -0.650491 0.680419 
-0.316429 -0.668872 0.672668 -0.415078 -0.848826 0.327423 0.199307 -0.634741 0.746579 
0.360205 -0.782408 0.508025 0.195154 -0.634804 0.747623 0.0813199 -0.683278 0.725615 
-0.271138 -0.769193 0.578642 -0.117446 -0.779229 0.615637 -0.312832 -0.801308 0.509944 
0.571124 0.813702 0.108196 0.359858 0.920427 0.152698 0.179437 0.970441 0.161391 
0.0248584 0.983168 0.181007 -0.122134 0.966873 0.224145 -0.277164 0.919849 0.277592 
-0.442029 0.829024 0.342534 0.581843 0.806198 0.107253 0.746091 0.65804 0.101644 
0.58545 0.808089 -0.0651174 -0.522521 0.770445 0.365222 -0.58663 0.704542 0.399357 
0.761468 0.640093 0.10221 -0.63214 0.641716 0.434282 -0.63934 0.612021 0.465483 
-0.661933 0.694563 0.281827 0.835738 0.532928 0.132398 0.856358 0.497506 0.138344 
-0.639508 0.579861 0.504767 -0.637914 0.566669 0.52149 -0.691167 0.655466 0.304389 
0.898457 0.41017 0.15664 -0.662005 0.504675 0.554124 -0.710674 0.41337 0.569269 
-0.778043 0.560276 0.284146 0.9379 0.287903 0.193536 0.981349 0.0829867 0.1734 
-0.733732 0.373072 0.567851 0.982783 0.0671179 0.17214 0.984335 0.0230707 0.174792 
0.996359 0.060794 -0.0597778 -0.830933 0.13816 0.538945 0.966383 -0.176317 0.187126 
-0.868368 -0.0842629 0.48871 0.906026 -0.375958 0.19435 -0.832273 -0.389965 0.394016 
-0.785998 -0.497104 0.367552 0.800188 -0.568548 0.190924 0.792772 -0.578332 0.192472 
-0.699133 -0.638986 0.320797 -0.593899 -0.748993 0.293756 0.615539 -0.753126 0.232191 
0.6021 -0.762753 0.235973 0.483952 -0.825341 0.290864 -0.358003 -0.915155 0.185271 
-0.360849 -0.899968 0.244634 -0.436812 -0.860909 0.260826 -0.41187 -0.87445 0.25632 
0.442911 -0.84966 0.286194 0.37104 -0.88168 0.291494 0.194334 -0.944794 0.263814 
-0.00992359 -0.9798 0.199733 -0.208306 -0.96427 0.163686 -0.347935 -0.922921 0.164794 
-0.324278 -0.934948 0.143931 0.390146 0.901504 -0.187289 0.207183 0.968142 -0.140629 
0.0679998 0.994403 -0.0808579 -0.0755142 0.996108 -0.0454657 -0.220327 0.975379 0.00956265 
-0.383997 0.920911 0.0668475 0.733296 0.642689 -0.221874 0.571243 0.791445 -0.217476 
0.583551 0.781836 -0.219546 -0.564977 0.815244 0.127189 -0.568141 0.812775 0.128892 
-0.66047 0.729479 0.177876 0.735491 0.640284 -0.221562 0.732331 0.639826 -0.233053 
-0.672566 0.717598 0.180857 -0.705591 0.683703 0.186254 0.808046 0.552786 -0.203692 
0.837911 0.509281 -0.196313 -0.709787 0.67978 0.184667 -0.785377 0.590417 0.185988 
0.88559 0.427133 -0.182447 0.78819 0.415627 -0.453885 -0.804903 0.56427 0.183658 
0.941082 0.287817 -0.177556 -0.920854 0.3632 0.141826 0.980475 0.0560348 -0.188489 
-0.987517 0.100859 0.120988 0.97034 -0.157713 -0.183214 -0.985485 -0.157105 0.0643177 
0.909876 -0.374045 -0.179488 -0.878697 -0.477375 0.0022353 -0.786362 -0.617529 -0.0170758 
0.827404 -0.541128 -0.150273 0.816489 -0.557415 -0.15045 0.815477 -0.539725 -0.209032 
-0.727013 -0.686058 -0.0278774 -0.569069 -0.820657 -0.0517903 0.672875 -0.729277 -0.124074 
0.646696 -0.753727 -0.116959 0.641752 -0.718282 -0.268746 0.508921 -0.854864 -0.101029 
-0.317276 -0.946262 -0.0626421 -0.341642 -0.939362 -0.0296713 -0.470489 -0.880996 -0.0498647 
-0.422511 -0.905185 -0.0460902 -0.445468 -0.843314 -0.300631 0.481854 -0.870171 -0.103048 
0.339354 -0.933423 -0.116447 0.138313 -0.980081 -0.142514 -0.042635 -0.984038 -0.172775 
-0.219467 -0.962592 -0.158904 -0.313256 -0.946801 -0.0737407 -0.299494 -0.946751 -0.118178 
0.429652 0.759399 -0.488582 0.279324 0.859369 -0.428325 0.125753 0.934314 -0.333531 
-0.0266633 0.960235 -0.277916 -0.165398 0.960093 -0.225532 -0.335117 0.920513 -0.200879 
0.465643 0.734329 -0.493899 0.554236 0.650068 -0.51984 0.434219 0.71905 -0.542605 
0.320096 0.645065 -0.693851 -0.512652 0.844569 -0.154567 -0.517274 0.841978 -0.153298 
-0.654573 0.746354 -0.120375 0.608284 0.600413 -0.519129 0.665526 0.545527 -0.509387 
0.520872 0.561105 -0.643314 0.349214 0.375817 -0.858377 -0.676102 0.727091 -0.119271 
-0.625583 0.697395 -0.349695 -0.723959 0.679423 -0.119445 0.696326 0.508873 -0.506141 
0.628015 0.48648 -0.607399 -0.734499 0.666734 -0.126402 -0.698987 0.623911 -0.349502 
-0.808025 0.557873 -0.189402 0.760744 0.407067 -0.505534 0.771504 0.386912 -0.505056 
0.486465 0.277622 -0.828419 -0.82252 0.534235 -0.195075 -0.804765 0.523854 -0.279161 
0.809966 0.25179 -0.529677 0.703848 0.224102 -0.674074 -0.918765 0.320864 -0.230039 
0.818265 0.0603484 -0.571665 0.653928 0.0685686 -0.753443 -0.960213 0.0546002 -0.273879 
0.834299 -0.14654 -0.53148 0.667504 -0.104649 -0.737216 -0.926863 -0.206026 -0.313812 
0.797589 -0.330515 -0.50459 0.765586 -0.409891 -0.49585 0.741362 -0.330518 -0.584072 
-0.806733 -0.491056 -0.328703 -0.755641 -0.564321 -0.33249 -0.73827 -0.48183 -0.472014 
0.694581 -0.521289 -0.495798 0.608576 -0.631591 -0.480341 0.536262 -0.468196 -0.702293 
-0.445832 -0.839866 -0.309611 -0.644171 -0.685861 -0.338583 -0.569508 -0.74947 -0.337573 
-0.5532 -0.666307 -0.500005 0.56333 -0.669045 -0.484807 0.453794 -0.733409 -0.506145 
0.387601 -0.611737 -0.689596 0.125103 -0.452563 -0.882913 0.0447084 -0.311504 -0.949193 
0.0914755 -0.331924 -0.93886 -0.269971 -0.914145 -0.302415 -0.444371 -0.840883 -0.30895 
-0.34057 -0.894386 -0.289974 -0.301 -0.732365 -0.61077 0.321811 -0.78847 -0.52417 
0.315292 -0.790543 -0.525007 0.314926 -0.784425 -0.534321 0.134664 -0.822129 -0.553146 
0.121859 -0.707775 -0.695849 -0.0164615 -0.825548 -0.564092 -0.00955508 -0.715738 -0.698304 
-0.135424 -0.86476 -0.483581 -0.0847747 -0.795569 -0.599903 -0.227959 -0.90647 -0.355453 
-0.222628 -0.904093 -0.364764 -0.214271 -0.898593 -0.382908 0.220002 0.638971 -0.737099 
0.0519511 0.747121 -0.662655 -0.121999 0.767409 -0.629444 -0.287571 0.757867 -0.585611 
0.26352 0.592501 -0.761249 0.303384 0.4775 -0.824592 0.225883 0.575448 -0.786026 
0.0781514 0.603145 -0.793794 -0.106088 0.629626 -0.769621 -0.306161 0.752446 -0.583172 
-0.285092 0.740895 -0.60811 -0.441991 0.682016 -0.582664 0.347862 0.347601 -0.870727 
0.346737 0.372735 -0.860722 0.344814 0.370276 -0.862554 0.268261 0.271258 -0.924367 
0.209494 0.230772 -0.950188 0.0628324 0.200435 -0.97769 -0.0141153 0.209647 -0.977675 
-0.105989 0.340905 -0.934104 -0.541546 0.636051 -0.549697 -0.346243 0.515867 -0.78358 
-0.561703 0.622748 -0.544678 0.351081 0.343209 -0.871177 0.339404 0.336378 -0.878439 
0.198038 0.197043 -0.960185 0.204748 0.1086 -0.972771 0.176514 0.0601698 -0.982457 
0.0745282 0.0205278 -0.997008 0.0371837 0.0457701 -0.99826 0.0231141 0.139301 -0.98998 
-0.125055 0.242473 -0.962065 -0.623199 0.560714 -0.545181 -0.411996 0.425546 -0.805711 
-0.641176 0.533581 -0.551529 0.410585 0.239755 -0.879737 0.417603 0.186752 -0.889231 
0.237174 0.169265 -0.956608 0.122854 0.116323 -0.985584 0.146255 0.104651 -0.983696 
0.118296 0.105867 -0.987319 0.0485693 -0.00067215 -0.99882 0.104642 0.085655 -0.990814 
0.112224 0.132467 -0.984814 -0.247089 0.210707 -0.945806 -0.67511 0.435619 -0.595367 
-0.520477 0.377751 -0.765773 -0.742952 0.264775 -0.614749 0.414895 0.136023 -0.899644 
0.374243 0.126594 -0.918649 0.192581 0.077444 -0.97822 0.131187 0.0381862 -0.990622 
0.203037 0.0565383 -0.977537 0.0650518 0.00856384 -0.997845 0.0551895 -0.00227583 -0.998473 
-0.403114 0.157573 -0.901482 -0.746889 0.242578 -0.619123 -0.735673 0.238774 -0.633855 
0.437117 0.0550276 -0.89772 0.348458 0.0462904 -0.936181 0.149853 0.0253885 -0.988382 
0.100941 0.0118227 -0.994822 0.118997 -0.0965934 -0.988185 0.0575033 -0.211696 -0.975643 
0.2312 -0.0257883 -0.972564 -0.384206 -0.0197866 -0.923035 -0.740368 0.0115401 -0.672103 
-0.683497 0.00770713 -0.729913 0.447002 -0.0608498 -0.892461 0.334985 -0.044108 -0.941191 
0.156484 -0.0266125 -0.987322 0.0173604 -0.0280359 -0.999456 -0.0347747 -0.158052 -0.986818 
0.132852 -0.256412 -0.957394 0.302055 -0.100959 -0.947929 -0.372228 -0.197996 -0.906777 
-0.709402 -0.208764 -0.673176 -0.697914 -0.253568 -0.669791 -0.69158 -0.206886 -0.692037 
0.454073 -0.222742 -0.862673 0.440527 -0.257257 -0.86009 0.41916 -0.207963 -0.883774 
0.167217 -0.144876 -0.975218 -0.0291934 -0.1383 -0.98996 -0.115628 -0.154131 -0.981261 
0.0945971 -0.12809 -0.987241 0.295154 -0.178959 -0.93854 0.149745 -0.219203 -0.96412 
0.0311347 -0.25016 -0.967704 -0.0526064 -0.277981 -0.959145 -0.208782 -0.330941 -0.920265 
-0.58992 -0.439893 -0.677118 -0.506442 -0.546926 -0.666625 -0.43973 -0.401632 -0.803324 
0.323353 -0.37897 -0.867078 0.263115 -0.41227 -0.872241 0.228556 -0.341809 -0.911553 
0.0706023 -0.379536 -0.922479 0.00671156 -0.277904 -0.960585 0.0118886 -0.257595 -0.96618 
-0.0250489 -0.207904 -0.977829 0.0938425 -0.284534 -0.954062 0.100264 -0.115492 -0.988235 
0.211214 -0.200025 -0.956754 0.113653 -0.263112 -0.958047 -0.032407 -0.322325 -0.946074 
-0.272136 -0.658535 -0.701623 -0.160261 -0.416981 -0.894675 -0.434089 -0.602651 -0.669611 
-0.367986 -0.63369 -0.680458 -0.314825 -0.544279 -0.777589 0.10682 -0.35179 -0.929964 
0.114156 -0.4364 -0.892482 0.132136 -0.391441 -0.910667 -0.0135869 -0.615103 -0.788329 
0.022868 -0.500629 -0.86536 -0.229227 -0.665376 -0.710443 -0.168618 -0.662047 -0.730248 
-0.150309 -0.608062 -0.779531 -0.0482108 0.172302 -0.983864 0.180081 0.190265 -0.965075 
0.0402185 0.145123 -0.988596 0.109222 0.140559 -0.984029 -0.085561 0.167973 -0.982071 
-0.0303311 0.157244 -0.987094 -0.197673 0.139628 -0.970273 0.179642 0.189327 -0.965341 
0.181008 0.191462 -0.964665 0.0914331 0.172864 -0.980693 -0.0493836 0.11022 -0.99268 
-0.223945 0.116583 -0.967604 -0.176254 0.108286 -0.97837 0.259675 0.00825568 -0.965661 
0.264315 0.023437 -0.964152 0.0293672 -0.0109752 -0.999508 -0.0880649 -0.0398449 -0.995318 
-0.273881 -0.0245053 -0.961451 -0.199891 -0.0263661 -0.979463 0.204363 -0.175923 -0.962957 
0.17508 -0.198359 -0.964365 0.181603 -0.193604 -0.964125 0.0287612 -0.237049 -0.971072 
0.0242052 -0.218514 -0.975534 -0.060682 -0.230315 -0.971222 -0.0674816 -0.195764 -0.978327 
-0.154639 -0.176158 -0.97214 -0.153211 -0.177179 -0.97218 -0.15289 -0.175972 -0.97245 

