# vtk DataFile Version 4.2
vtk output
ASCII
DATASET POLYDATA
POINTS 524 float
-24.729 -34.3502 -13.6438 -17.3535 -34.3502 -14.7357 -9.978 -34.3502 -15.0662 
-2.6025 -34.3502 -14.5417 4.77299 -34.3502 -14.0351 12.1485 -34.3502 -13.1719 
-32.1045 -26.9747 -14.5409 -24.729 -26.9747 -16.3297 -17.3535 -26.9747 -16.3757 
-9.978 -26.9747 -15.7768 -2.6025 -26.9747 -14.981 4.77299 -26.9747 -15.153 
12.1485 -26.9747 -15.3614 19.524 -26.9747 -15.3638 26.8995 -26.9747 -14.5068 
-39.48 -19.5992 -13.6847 -32.1045 -19.5992 -16.3189 -24.729 -19.5992 -17.3596 
-17.3535 -19.5992 -16.4551 -9.978 -19.5992 -15.3402 -2.6025 -19.5992 -14.954 
4.77299 -19.5992 -15.1741 12.1485 -19.5992 -16.0961 19.524 -19.5992 -17.0546 
26.8995 -19.5992 -16.9449 34.275 -19.5992 -14.731 -39.48 -12.2237 -14.5072 
-32.1045 -12.2237 -16.5732 -24.729 -12.2237 -16.8935 -17.3535 -12.2237 -16.1357 
-9.978 -12.2237 -15.2155 -2.6025 -12.2237 -16.4131 4.77299 -12.2237 -16.5946 
12.1485 -12.2237 -16.4561 19.524 -12.2237 -17.17 26.8995 -12.2237 -17.1335 
34.275 -12.2237 -16.2191 -39.48 -4.84817 -16.8328 -32.1045 -4.84817 -17.5205 
-24.729 -4.84817 -16.7604 -17.3535 -4.84817 -15.5628 -9.978 -4.84817 -17.7799 
-2.6025 -4.84817 -18.0514 4.77299 -4.84817 -18.6275 12.1485 -4.84817 -16.4062 
19.524 -4.84817 -16.1406 26.8995 -4.84817 -16.5526 34.275 -4.84817 -15.9674 
41.6505 -4.84817 -13.7881 -46.8555 2.52733 -15.5049 -39.48 2.52733 -17.0043 
-32.1045 2.52733 -18.2525 -24.729 2.52733 -17.075 -17.3535 2.52733 -15.2441 
-9.978 2.52733 -19.1622 -2.6025 2.52733 -17.2575 4.77299 2.52733 -18.293 
12.1485 2.52733 -16.2937 19.524 2.52733 -14.7163 26.8995 2.52733 -15.6388 
34.275 2.52733 -15.5068 41.6505 2.52733 -13.8371 -46.8555 9.90282 -16.8375 
-39.48 9.90282 -17.7762 -32.1045 9.90282 -18.9077 -24.729 9.90282 -17.4591 
-17.3535 9.90282 -16.0083 -9.978 9.90282 -15.8094 -2.6025 9.90282 -16.3802 
4.77299 9.90282 -17.8281 12.1485 9.90282 -14.9483 19.524 9.90282 -14.7379 
26.8995 9.90282 -15.404 34.275 9.90282 -15.4483 41.6505 9.90282 -14.1523 
-46.8555 17.2783 -16.6928 -39.48 17.2783 -19.9719 -32.1045 17.2783 -18.6359 
-24.729 17.2783 -17.8154 -17.3535 17.2783 -16.9102 -9.978 17.2783 -16.125 
-2.6025 17.2783 -15.5335 4.77299 17.2783 -16.5258 12.1485 17.2783 -15.591 
19.524 17.2783 -14.5039 26.8995 17.2783 -14.3803 34.275 17.2783 -14.004 
-46.8555 24.6538 -15.6221 -39.48 24.6538 -17.4735 -32.1045 24.6538 -18.2027 
-24.729 24.6538 -17.9584 -17.3535 24.6538 -17.0331 -9.978 24.6538 -15.8848 
-2.6025 24.6538 -15.0066 4.77299 24.6538 -15.3338 12.1485 24.6538 -15.0195 
19.524 24.6538 -13.7673 -39.48 32.0293 -14.3276 -32.1045 32.0293 -15.9465 
-24.729 32.0293 -16.5504 -17.3535 32.0293 -15.2148 -9.978 32.0293 -13.5929 
-24.729 -35.3933 -13.0216 -24.729 -41.7257 -7.6688 -17.3535 -38.2855 -13.0216 
-17.3535 -41.7257 -11.182 -9.978 -39.8544 -13.0216 -9.978 -41.7257 -12.2387 
-2.6025 -39.1069 -13.0216 -2.6025 -41.7257 -11.9473 4.77299 -36.6858 -13.0216 
4.77299 -41.7257 -10.4324 12.1485 -34.6209 -13.0216 12.1485 -41.7257 -7.82291 
-26.7173 -34.3502 -13.0216 -32.1045 -30.397 -13.0216 -32.1045 -34.3502 -10.5351 
13.146 -34.3502 -13.0216 19.524 -32.3092 -13.0216 19.524 -34.3502 -11.8705 
26.8995 -29.2952 -13.0216 26.8995 -34.3502 -7.65335 -34.9207 -26.9747 -13.0216 
-39.48 -21.289 -13.0216 -39.48 -26.9747 -8.57229 29.7197 -26.9747 -13.0216 
34.275 -22.6043 -13.0216 34.275 -26.9747 -8.59219 -40.2008 -19.5992 -13.0216 
36.426 -19.5992 -13.0216 41.6505 -19.5992 -6.1655 -41.3855 -12.2237 -13.0216 
40.1663 -12.2237 -13.0216 41.6505 -8.20998 -13.0216 41.6505 -12.2237 -11.7901 
-45.6085 -4.84817 -13.0216 -46.8555 -3.33442 -13.0216 -46.8555 -4.84817 -10.9628 
42.9182 -4.84817 -13.0216 49.026 -4.84817 -7.8217 -49.8072 2.52733 -13.0216 
43.2445 2.52733 -13.0216 49.026 2.52733 -9.03269 -51.5023 9.90282 -13.0216 
43.7121 9.90282 -13.0216 41.6505 14.5571 -13.0216 49.026 9.90282 -8.84908 
-51.6911 17.2783 -13.0216 26.8995 23.9863 -13.0216 38.4462 17.2783 -13.0216 
34.275 20.9342 -13.0216 41.6505 17.2783 -12.1557 49.026 17.2783 -7.29217 
-49.7932 24.6538 -13.0216 -46.8555 27.9314 -13.0216 -2.6025 30.3152 -13.0216 
4.77299 31.0456 -13.0216 12.1485 30.4694 -13.0216 25.7536 24.6538 -13.0216 
19.524 26.9164 -13.0216 26.8995 24.6538 -12.8829 34.275 24.6538 -11.835 
41.6505 24.6538 -8.26851 -42.3627 32.0293 -13.0216 -46.8555 32.0293 -7.84675 
-39.48 33.7818 -13.0216 -32.1045 35.7562 -13.0216 -24.729 37.5875 -13.0216 
-17.3535 35.5778 -13.0216 -6.57534 32.0293 -13.0216 -9.978 32.8307 -13.0216 
-2.6025 32.0293 -12.2785 4.77299 32.0293 -12.5828 12.1485 32.0293 -12.3869 
19.524 32.0293 -10.9809 26.8995 32.0293 -9.23254 34.275 32.0293 -6.15725 
-32.1045 39.4048 -7.38273 -24.729 39.4048 -10.1652 -17.3535 39.4048 -8.55813 
-24.729 -43.2245 -5.64611 -17.3535 -46.696 -5.64611 -9.978 -47.8534 -5.64611 
-9.978 -49.1012 0.926016 -2.6025 -47.6771 -5.64611 -2.6025 -49.1012 1.32283 
4.77299 -46.2045 -5.64611 12.1485 -43.5462 -5.64611 -27.264 -41.7257 -5.64611 
-32.1045 -38.3977 -5.64611 15.7518 -41.7257 -5.64611 19.524 -39.884 -5.64611 
26.8995 -35.5547 -5.64611 -36.0823 -34.3502 -5.64611 -39.48 -29.5884 -5.64611 
28.4042 -34.3502 -5.64611 34.275 -28.8381 -5.64611 -40.9236 -26.9747 -5.64611 
-39.48 -26.9747 -1.74695 36.0211 -26.9747 -5.64611 41.6505 -20.0101 -5.64611 
-43.0758 -19.5992 -5.64611 41.9449 -19.5992 -5.64611 -45.3608 -12.2237 -5.64611 
-46.8555 -8.99501 -5.64611 46.7943 -12.2237 -5.64611 49.026 -8.08027 -5.64611 
-48.687 -4.84817 -5.64611 -46.8555 -4.84817 -2.85306 50.562 -4.84817 -5.64611 
-52.1266 2.52733 -5.64611 -46.8555 2.52733 1.67923 51.8415 2.52733 -5.64611 
-54.2249 9.90282 -5.64611 51.9839 9.90282 -5.64611 -53.7824 17.2783 -5.64611 
50.2275 17.2783 -5.64611 49.026 19.6639 -5.64611 -52.5341 24.6538 -5.64611 
45.3272 24.6538 -5.64611 41.6505 28.0557 -5.64611 49.026 24.6538 1.48121 
-47.8493 32.0293 -5.64611 -46.8555 33.056 -5.64611 -46.8555 32.0293 -3.9246 
-39.48 37.9563 -5.64611 -9.978 39.2819 -5.64611 -2.6025 38.2178 -5.64611 
4.77299 38.56 -5.64611 12.1485 38.7986 -5.64611 19.524 37.6736 -5.64611 
26.8995 35.8345 -5.64611 35.1311 32.0293 -5.64611 34.275 32.4288 -5.64611 
-35.1333 39.4048 -5.64611 -32.1045 40.1917 -5.64611 -32.1045 39.4048 -2.64548 
-24.729 40.9331 -5.64611 -10.4666 39.4048 -5.64611 -17.3535 40.9717 -5.64611 
-9.978 39.4048 -4.79017 -2.6025 39.4048 -0.618712 4.77299 39.4048 -2.66319 
12.1485 39.4048 -3.93876 19.524 39.4048 -1.31541 -9.978 -49.237 1.72939 
-2.6025 -49.1737 1.72939 -24.729 -43.5647 1.72939 -10.6626 -49.1012 1.72939 
-17.3535 -47.5653 1.72939 -9.978 -49.1012 2.11978 -2.29141 -49.1012 1.72939 
-2.6025 -49.1012 1.95573 4.77299 -47.381 1.72939 12.1485 -44.6117 1.72939 
-27.1515 -41.7257 1.72939 -32.1045 -37.1377 1.72939 -24.729 -41.7257 5.36879 
17.878 -41.7257 1.72939 12.1485 -41.7257 9.07669 19.524 -40.8462 1.72939 
26.8995 -35.2425 1.72939 -34.5392 -34.3502 1.72939 -32.1045 -34.3502 5.34031 
27.9417 -34.3502 1.72939 26.8995 -34.3502 3.76609 34.275 -28.2466 1.72939 
-37.9641 -26.9747 1.72939 -39.48 -22.3681 1.72939 -32.1045 -26.9747 8.62562 
35.4666 -26.9747 1.72939 34.275 -26.9747 4.38953 41.6505 -20.3443 1.72939 
-40.552 -19.5992 1.72939 -39.48 -19.5992 2.81445 42.2849 -19.5992 1.72939 
41.6505 -19.5992 3.73619 -41.5107 -12.2237 1.72939 -39.48 -12.2237 3.46522 
-32.1045 -12.2237 9.06727 48.0797 -12.2237 1.72939 49.026 -10.6857 1.72939 
-43.192 -4.84817 1.72939 -39.48 -4.84817 4.96963 52.1726 -4.84817 1.72939 
-46.8069 2.52733 1.72939 -46.8555 2.65218 1.72939 -39.48 2.52733 7.36897 
54.2139 2.52733 1.72939 -49.638 9.90282 1.72939 -46.8555 9.90282 4.02308 
-39.48 9.90282 8.65035 54.4235 9.90282 1.72939 -50.9529 17.2783 1.72939 
-46.8555 17.2783 4.4985 -39.48 17.2783 8.96589 53.1101 17.2783 1.72939 
-47.8498 24.6538 1.72939 -46.8555 25.8749 1.72939 -46.8555 24.6538 2.40113 
-39.48 24.6538 7.86774 41.6505 31.7288 1.72939 49.1031 24.6538 1.72939 
49.026 24.7509 1.72939 49.026 24.6538 2.05811 -42.0174 32.0293 1.72939 
-39.48 33.8866 1.72939 -39.48 32.0293 3.58411 -32.1045 37.9579 1.72939 
-32.1045 32.0293 8.36032 26.8995 38.6703 1.72939 41.1859 32.0293 1.72939 
34.275 35.855 1.72939 -28.1548 39.4048 1.72939 -24.729 40.3834 1.72939 
-24.729 39.4048 3.43598 -17.3535 40.7579 1.72939 -17.3535 39.4048 4.72077 
-9.978 40.2213 1.72939 -9.978 39.4048 4.06011 -2.6025 39.8726 1.72939 
-2.6025 39.4048 3.13307 4.77299 40.4377 1.72939 4.77299 39.4048 4.74776 
12.1485 41.0216 1.72939 12.1485 39.4048 7.14391 23.7018 39.4048 1.72939 
19.524 40.3327 1.72939 19.524 39.4048 7.86324 -17.3535 -43.4909 9.10488 
-9.978 -45.9827 9.10488 -2.6025 -46.146 9.10488 4.77299 -44.1519 9.10488 
-20.3886 -41.7257 9.10488 -24.729 -37.9122 9.10488 -17.3535 -41.7257 10.7661 
-9.978 -41.7257 13.2374 -2.6025 -41.7257 13.4057 12.1115 -41.7257 9.10488 
4.77299 -41.7257 11.6292 12.1485 -41.7104 9.10488 19.524 -37.1409 9.10488 
-27.8667 -34.3502 9.10488 -24.729 -34.3502 11.1273 -17.3535 -34.3502 15.3331 
4.77299 -34.3502 16.2563 12.1485 -34.3502 14.8825 23.3993 -34.3502 9.10488 
19.524 -34.3502 11.793 26.8995 -31.5023 9.10488 -31.5777 -26.9747 9.10488 
-32.1045 -23.8364 9.10488 -24.729 -26.9747 14.0118 19.524 -26.9747 16.055 
31.693 -26.9747 9.10488 26.8995 -26.9747 12.9529 34.275 -24.4912 9.10488 
-32.7998 -19.5992 9.10488 -32.1045 -12.7105 9.10488 -32.1045 -19.5992 9.64509 
-24.729 -19.5992 14.4677 26.8995 -19.5992 16.4094 39.3726 -19.5992 9.10488 
34.275 -19.5992 13.2525 41.6505 -17.3841 9.10488 -32.0524 -12.2237 9.10488 
-32.1045 -10.6745 9.10488 -24.729 -12.2237 14.0854 46.1114 -12.2237 9.10488 
41.6505 -12.2237 13.8504 49.026 -8.00209 9.10488 -32.3454 -4.84817 9.10488 
-32.1045 -4.84817 9.23508 -24.729 -4.84817 13.0435 50.7973 -4.84817 9.10488 
49.026 -4.84817 12.0124 -35.4852 2.52733 9.10488 -32.1045 2.52733 10.403 
-24.729 2.52733 13.309 -17.3535 2.52733 16.1615 52.7917 2.52733 9.10488 
49.026 2.52733 14.7311 -38.4095 9.90282 9.10488 -32.1045 9.90282 11.8246 
-24.729 9.90282 14.31 -17.3535 9.90282 16.0806 52.8871 9.90282 9.10488 
49.026 9.90282 14.5692 -39.1712 17.2783 9.10488 -32.1045 17.2783 12.1104 
[...]
POINT_DATA 524
SCALARS ImageScalars float
LOOKUP_TABLE default
0 0 0 0 0 0 0 0 0 
0 0 0 0 0 0 0 0 0 
0 0 0 0 0 0 0 0 0 
0 0 0 0 0 0 0 0 0 
0 0 0 0 0 0 0 0 0 
0 0 0 0 0 0 0 0 0 
0 0 0 0 0 0 0 0 0 
0 0 0 0 0 0 0 0 0 
0 0 0 0 0 0 0 0 0 
0 0 0 0 0 0 0 0 0 
0 0 0 0 0 0 0 0 0 
0 0 0 0 0 0 0 0 0 
0 0 0 0 0 0 0 0 0 
0 0 0 0 0 0 0 0 0 
0 0 0 0 0 0 0 0 0 
0 0 0 0 0 0 0 0 0 
0 0 0 0 0 0 0 0 0 
0 0 0 0 0 0 0 0 0 
0 0 0 0 0 0 0 0 0 
0 0 0 0 0 0 0 0 0 
0 0 0 0 0 0 0 0 0 
0 0 0 0 0 0 0 0 0 
0 0 0 0 0 0 0 0 0 
0 0 0 0 0 0 0 0 0 
0 0 0 0 0 0 0 0 0 
0 0 0 0 0 0 0 0 0 
0 0 0 0 0 0 0 0 0 
0 0 0 0 0 0 0 0 0 
0 0 0 0 0 0 0 0 0 
0 0 0 0 0 0 0 0 0 
0 0 0 0 0 0 0 0 0 
0 0 0 0 0 0 0 0 0 
0 0 0 0 0 0 0 0 0 
0 0 0 0 0 0 0 0 0 
0 0 0 0 0 0 0 0 0 
0 0 0 0 0 0 0 0 0 
0 0 0 0 0 0 0 0 0 
0 0 0 0 0 0 0 0 0 
0 0 0 0 0 0 0 0 0 
0 0 0 0 0 0 0 0 0 
0 0 0 0 0 0 0 0 0 
0 0 0 0 0 0 0 0 0 
0 0 0 0 0 0 0 0 0 
0 0 0 0 0 0 0 0 0 
0 0 0 0 0 0 0 0 0 
0 0 0 0 0 0 0 0 0 
0 0 0 0 0 0 0 0 0 
0 0 0 0 0 0 0 0 0 
0 0 0 0 0 0 0 0 0 
0 0 0 0 0 0 0 0 0 
0 0 0 0 0 0 0 0 0 
0 0 0 0 0 0 0 0 0 
0 0 0 0 0 0 0 0 0 
0 0 0 0 0 0 0 0 0 
0 0 0 0 0 0 0 0 0 
0 0 0 0 0 0 0 0 0 
0 0 0 0 0 0 0 0 0 
0 0 0 0 0 0 0 0 0 
0 0 
NORMALS Normals float
-0.202575 -0.456837 -0.866177 -0.0875438 -0.316891 -0.944413 0.0182062 -0.238197 -0.971046 
0.0625053 -0.190036 -0.979785 0.0919682 -0.291103 -0.952261 0.121904 -0.399143 -0.908749 
-0.3707 -0.326908 -0.869317 -0.102142 -0.220927 -0.969927 0.039758 -0.106485 -0.993519 
0.0920108 -0.0140017 -0.99566 0.0429335 -0.0289228 -0.998659 -0.0247657 -0.0677554 -0.997395 
-0.0152266 -0.18259 -0.983071 0.0471295 -0.310689 -0.949342 0.286667 -0.447952 -0.846854 
-0.639493 -0.236375 -0.731557 -0.23005 -0.115903 -0.966252 -0.0151182 -0.0453581 -0.998856 
0.134152 0.0162842 -0.990827 0.102273 0.0394608 -0.993973 0.0115122 -0.079073 -0.996802 
-0.0774153 -0.0889284 -0.993025 -0.125011 -0.0719267 -0.989545 -0.0578093 -0.116066 -0.991558 
0.129171 -0.152014 -0.979901 0.480385 -0.349921 -0.80423 -0.50014 -0.22224 -0.836941 
-0.135173 -0.0827872 -0.987357 0.0304645 0.039705 -0.998747 0.112683 0.0599354 -0.991822 
-0.00413953 -0.112321 -0.993663 -0.10221 -0.222113 -0.969649 -0.000756912 -0.23434 -0.972154 
-0.0399703 -0.0211273 -0.998977 -0.0456935 0.0613149 -0.997072 0.066006 0.0274339 -0.997442 
0.29996 -0.060694 -0.952019 -0.332942 -0.147873 -0.93128 0.0136705 -0.1076 -0.9941 
0.132191 -0.0123326 -0.991148 -0.0221121 0.0624541 -0.997803 -0.196497 -0.262054 -0.944837 
-0.0527355 -0.0556774 -0.997055 0.110952 -0.112993 -0.987382 0.168542 0.00898804 -0.985654 
-0.0111862 0.16331 -0.986511 0.0108056 0.100751 -0.994853 0.172442 0.0482478 -0.983837 
0.425748 -0.106199 -0.898588 -0.493625 -0.311774 -0.811869 -0.180877 -0.0637261 -0.981439 
-0.00307899 -0.0991119 -0.995072 0.194317 -0.0474516 -0.97979 -0.0166669 -0.0311255 -0.999377 
-0.222237 0.184436 -0.957389 0.0124051 0.128536 -0.991627 0.0440441 0.0616117 -0.997128 
0.266123 0.104355 -0.958274 0.00737801 0.0958341 -0.99537 -0.0514957 0.0776351 -0.995651 
0.112246 0.0339641 -0.9931 0.349718 -0.0263433 -0.936485 -0.381461 -0.0904171 -0.919952 
-0.139263 -0.177218 -0.974269 0.0223776 -0.0206749 -0.999536 0.196125 -0.0507508 -0.979265 
0.112737 -0.110825 -0.987425 -0.0262311 0.107735 -0.993833 -0.131233 0.103291 -0.985956 
0.0726145 0.117428 -0.990423 0.220952 0.0181547 -0.975116 -0.0339918 0.0148559 -0.999312 
-0.0484168 0.0844389 -0.995252 0.0886868 0.0932158 -0.991688 0.361903 0.0893533 -0.927924 
-0.486148 0.0534627 -0.87224 -0.141599 -0.00189692 -0.989922 0.13393 0.0521373 -0.989618 
0.110357 -0.0331167 -0.99334 0.119038 -0.071341 -0.990323 0.0882571 -0.00340312 -0.996092 
-0.0269004 0.090561 -0.995528 -0.00349692 0.161525 -0.986862 0.139193 9.24156e-05 -0.990265 
0.0787364 0.0626318 -0.994926 0.0323149 0.161183 -0.986395 0.130724 0.241704 -0.961504 
-0.485241 0.380958 -0.787028 -0.140501 0.370589 -0.918109 -0.0247699 0.14918 -0.9885 
0.082843 0.0697357 -0.99412 0.135995 0.109976 -0.984586 0.135956 0.153065 -0.978819 
0.0369803 0.197821 -0.97954 -0.00122195 0.247637 -0.968852 0.105346 0.200568 -0.973999 
0.133173 0.201864 -0.970317 -0.298244 0.544877 -0.783683 -0.145567 0.480967 -0.86457 
0.0546333 0.378998 -0.923783 0.170915 0.396403 -0.902027 0.186987 0.475367 -0.859687 
-0.216747 -0.493006 -0.842594 -0.418598 -0.785442 -0.455913 -0.141757 -0.412696 -0.899771 
-0.219853 -0.580804 -0.783793 -0.02449 -0.39482 -0.918432 -0.0363828 -0.472368 -0.88065 
0.0807934 -0.350189 -0.933188 0.0953732 -0.476798 -0.873823 0.129649 -0.362296 -0.923002 
0.217375 -0.584051 -0.78207 0.127192 -0.407302 -0.904393 0.344981 -0.75637 -0.55578 
-0.266294 -0.475863 -0.838238 -0.415397 -0.409198 -0.812406 -0.537506 -0.579797 -0.612309 
0.13209 -0.420208 -0.897763 0.158788 -0.483805 -0.86065 0.229213 -0.58702 -0.776446 
0.34396 -0.527886 -0.776549 0.549432 -0.756187 -0.355396 -0.464089 -0.386943 -0.796804 
-0.649143 -0.283106 -0.70602 -0.828044 -0.458799 -0.322252 0.414179 -0.510977 -0.753232 
0.534459 -0.461721 -0.707932 0.671134 -0.639375 -0.375204 -0.69305 -0.236312 -0.681056 
0.568336 -0.396935 -0.720719 0.785186 -0.553127 -0.278447 -0.645334 -0.265297 -0.716353 
0.548787 -0.234534 -0.802388 0.512536 -0.183249 -0.838884 0.634427 -0.300093 -0.712353 
-0.661773 -0.387094 -0.642039 -0.675945 -0.39897 -0.619614 -0.797748 -0.435316 -0.417251 
0.474646 -0.124605 -0.871312 0.804899 -0.262681 -0.532106 -0.725343 -0.342337 -0.59723 
0.415443 -0.0315272 -0.909073 0.732407 -0.0462012 -0.679298 -0.795656 -0.130496 -0.591525 
0.451603 0.0804153 -0.888588 0.338224 0.25009 -0.907226 0.712104 0.0717241 -0.698401 
-0.814133 0.0626421 -0.57729 0.107678 0.287086 -0.951833 0.232201 0.302569 -0.92441 
0.18674 0.292923 -0.937723 0.328395 0.349136 -0.877645 0.736422 0.31492 -0.598755 
-0.670901 0.443192 -0.594535 -0.55553 0.583858 -0.592027 0.0542595 0.430645 -0.900889 
-0.00414036 0.469225 -0.883069 0.0933379 0.422707 -0.901447 0.118053 0.284151 -0.951484 
0.147754 0.28551 -0.946917 0.116795 0.300727 -0.946532 0.252659 0.370819 -0.893676 
0.471326 0.521994 -0.710897 -0.420985 0.608613 -0.672578 -0.693697 0.709931 -0.121585 
-0.331875 0.62867 -0.703301 -0.172715 0.702659 -0.690246 -0.0010681 0.70107 -0.713092 
0.19265 0.573252 -0.79641 0.128849 0.49019 -0.862039 0.191664 0.511142 -0.837854 
0.0589955 0.523462 -0.850004 -0.00565103 0.515794 -0.856694 0.0895309 0.495329 -0.864079 
0.177942 0.526291 -0.831477 0.22646 0.588563 -0.776086 0.371055 0.738433 -0.563059 
-0.194433 0.960893 -0.197179 -0.0268497 0.894101 -0.447059 0.160057 0.887692 -0.431722 
-0.451601 -0.832264 -0.321547 -0.283377 -0.88952 -0.358401 -0.0579585 -0.917422 -0.393673 
-0.0905509 -0.994915 0.0440988 0.0981866 -0.907887 -0.407554 0.118512 -0.991762 0.0486023 
0.253713 -0.871828 -0.418981 0.377508 -0.835407 -0.399477 -0.507053 -0.815713 -0.278407 
-0.629143 -0.753798 -0.189648 0.409188 -0.829426 -0.380286 0.433365 -0.828998 -0.353493 
0.577777 -0.785505 -0.221709 -0.737267 -0.654215 -0.168644 -0.868641 -0.489923 -0.073745 
0.602135 -0.768909 -0.21497 0.704238 -0.685134 -0.186119 -0.914491 -0.402032 -0.0455577 
-0.892359 -0.394851 0.218606 0.735422 -0.652454 -0.182915 0.788671 -0.563468 -0.245973 
-0.959616 -0.276605 -0.0512482 0.788857 -0.561432 -0.249999 -0.929438 -0.368947 0.00470118 
-0.915934 -0.39526 0.0695267 0.811779 -0.473191 -0.342206 0.844093 -0.377509 -0.380781 
-0.900599 -0.414847 0.129703 -0.868398 -0.357546 0.343577 0.862402 -0.292863 -0.412909 
-0.931102 -0.35071 0.100252 -0.641581 -0.310622 0.701348 0.85146 -0.0932123 -0.516068 
-0.994171 -0.0982097 0.0444755 0.83052 0.0914185 -0.549436 -0.995131 0.0984233 -0.00517718 
0.790156 0.33238 -0.514953 0.755063 0.409495 -0.512048 -0.917452 0.389272 0.0821471 
0.608365 0.558568 -0.563821 0.508529 0.642864 -0.572822 0.801487 0.596103 -0.0477436 
-0.733119 0.677753 0.0564543 -0.691392 0.721092 0.0447626 -0.711882 0.680368 0.174137 
-0.441897 0.897001 0.0107564 0.175896 0.920413 -0.349142 0.0450693 0.897851 -0.437987 
-0.0341101 0.891194 -0.452337 0.0465881 0.873584 -0.484439 0.164157 0.820586 -0.547441 
0.279053 0.783993 -0.554514 0.393443 0.745644 -0.537789 0.378608 0.751743 -0.539943 
-0.278307 0.959188 -0.0500425 -0.177954 0.979851 -0.0906887 -0.264498 0.956538 0.122784 
-0.0495451 0.990968 -0.124612 0.171106 0.924971 -0.339341 0.10635 0.965992 -0.23569 
0.162962 0.941707 -0.294332 0.00233777 0.996805 -0.0798361 -0.054852 0.970711 -0.233906 
0.0354554 0.932346 -0.359824 0.15934 0.956003 -0.24631 -0.0940481 -0.991592 0.0888782 
0.119463 -0.990336 0.0704493 -0.54662 -0.814155 0.195854 -0.117893 -0.988754 0.0920101 
-0.361981 -0.921726 0.139255 -0.0949343 -0.989303 0.110753 0.125697 -0.989478 0.0716492 
0.119304 -0.989378 0.0830496 0.282648 -0.953472 0.104888 0.414703 -0.903915 0.10469 
-0.593713 -0.768971 0.237043 -0.697614 -0.631303 0.338808 -0.567063 -0.716848 0.40567 
0.486525 -0.866313 0.113113 0.368483 -0.764004 0.529639 0.509986 -0.85128 0.123436 
0.628317 -0.756934 0.179635 -0.777686 -0.524913 0.345934 -0.674001 -0.514172 0.530425 
0.639884 -0.746381 0.18293 0.619565 -0.738219 0.266782 0.711039 -0.678555 0.184357 
-0.815521 -0.330927 0.474776 -0.801954 -0.252197 0.541541 -0.6599 -0.184379 0.728379 
0.717566 -0.672342 0.18181 0.690358 -0.663863 0.287563 0.754474 -0.646814 0.11136 
-0.807332 -0.198986 0.555536 -0.766737 -0.171315 0.618681 0.759464 -0.642407 0.102602 
0.736636 -0.649438 0.188673 -0.751448 -0.139315 0.644917 -0.681656 -0.124726 0.720963 
-0.597886 0.0220743 0.801277 0.829038 -0.558708 0.0232679 0.852016 -0.523391 0.0114193 
-0.687555 -0.231592 0.68821 -0.567577 -0.208633 0.796447 0.92214 -0.386341 -0.0199918 
-0.638664 -0.309765 0.704382 -0.639906 -0.307871 0.704085 -0.482797 -0.218535 0.848027 
0.989063 -0.140024 -0.0463417 -0.715034 -0.188132 0.6733 -0.632138 -0.159993 0.758158 
-0.433297 -0.0873468 0.897008 0.996916 0.0665027 -0.0416572 -0.751242 0.0604094 0.657257 
-0.578437 0.0913908 0.810591 -0.461752 0.0370842 0.886233 0.937835 0.342396 -0.0568338 
-0.621157 0.371689 0.689936 -0.605342 0.400265 0.688003 -0.594362 0.353598 0.72229 
-0.491459 0.28294 0.823658 0.580763 0.81139 -0.0660317 0.803278 0.594663 -0.0334657 
0.800903 0.597845 -0.0337065 0.802634 0.59629 -0.0147216 -0.546472 0.59862 0.585681 
-0.481644 0.667162 0.568255 -0.488372 0.587301 0.645423 -0.369884 0.803358 0.466692 
-0.384121 0.508857 0.7704 0.281049 0.956418 -0.0792261 0.56825 0.819914 -0.0695236 
0.427459 0.896876 -0.113544 -0.262124 0.886287 0.381819 -0.15933 0.935023 0.316775 
-0.188644 0.891006 0.412942 0.0117132 0.973632 0.227823 -0.0340286 0.924719 0.379126 
0.0589816 0.992105 0.110676 0.0421283 0.969361 0.242001 -0.0150704 0.997709 0.0659583 
-0.016259 0.987768 0.155078 -0.0773061 0.995717 0.050711 -0.0890498 0.963007 0.254339 
0.00699985 0.999966 0.00438033 -0.0672215 0.92294 0.379029 0.222967 0.972027 -0.0738238 
0.153424 0.985808 -0.0681463 0.0871185 0.941922 0.324336 -0.360245 -0.697039 0.619967 
-0.12523 -0.79832 0.589069 0.0991582 -0.812743 0.574122 0.252713 -0.768636 0.587652 
-0.434786 -0.641834 0.631673 -0.528219 -0.520097 0.671181 -0.350289 -0.626581 0.696199 
-0.132035 -0.614074 0.778125 0.083651 -0.620755 0.779529 0.367484 -0.763056 0.531696 
0.220816 -0.678428 0.700696 0.368046 -0.762859 0.531591 0.455026 -0.696057 0.555388 
-0.547018 -0.427807 0.71955 -0.506793 -0.396248 0.765603 -0.337488 -0.326511 0.882888 
0.145453 -0.369658 0.917713 0.247833 -0.435492 0.865405 0.510391 -0.670253 0.538759 
0.407677 -0.604256 0.684597 0.55548 -0.641622 0.528926 -0.639835 -0.181055 0.746881 
-0.638174 -0.109339 0.762089 -0.458328 -0.177306 0.870918 0.241689 -0.338705 0.909321 
0.596529 -0.616383 0.514028 0.457457 -0.503902 0.732678 0.602662 -0.623256 0.498348 
-0.622204 -0.0230284 0.782516 -0.599124 0.0194749 0.80042 -0.614102 -0.0202159 0.788968 
-0.455084 -0.00391203 0.89044 0.255409 -0.297819 0.919821 0.626096 -0.632854 0.455521 
0.458469 -0.522131 0.719156 0.653516 -0.626113 0.425324 -0.59715 0.0229256 0.801802 
-0.571078 0.000236767 0.820896 -0.452706 0.0844706 0.887649 0.722852 -0.567566 0.394149 
0.527704 -0.525396 0.667449 0.809484 -0.466265 0.356838 -0.465294 -0.0856129 0.881006 
-0.46461 -0.0804856 0.88185 -0.475712 0.0457929 0.878408 0.853892 -0.381577 0.353932 
0.77482 -0.370726 0.512071 -0.408708 -0.183133 0.894103 -0.36264 -0.161195 0.917883 
-0.355576 -0.0785581 0.93134 -0.321995 0.0566572 0.945045 0.913763 -0.128438 0.385409 
0.705474 -0.0933108 0.702566 -0.416234 -0.0882294 0.904967 -0.347889 -0.104622 0.93168 
-0.274539 -0.0932981 0.957039 -0.203232 -0.0287724 0.978708 0.906756 0.0830946 0.413388 
0.695479 0.097348 0.711922 -0.456888 0.0358761 0.8888 -0.35423 0.0455538 0.934048 
-0.290276 0.029205 0.956497 0.845073 0.339747 0.412825 0.774212 0.481196 0.411153 
0.723289 0.33618 0.603189 -0.43503 0.253874 0.863885 -0.377988 0.432473 0.818592 
-0.351956 0.216153 0.910716 -0.313996 0.229387 0.921297 -0.184646 0.203119 0.961587 
0.0121697 0.305364 0.952158 0.706877 0.568416 0.420984 0.599255 0.697543 0.392844 
0.542621 0.48845 0.683359 -0.356881 0.495892 0.791661 -0.266262 0.591869 0.760786 
-0.282134 0.495649 0.821421 -0.115426 0.747817 0.653794 -0.138288 0.510465 0.848706 
0.00713009 0.791711 0.610854 0.0151055 0.543792 0.839084 -0.0187577 0.769896 0.637894 
-0.0155557 0.530019 0.847843 -0.105536 0.779932 0.616902 -0.123488 0.515508 0.84794 
-0.0972329 0.84068 0.532732 -0.148766 0.521346 0.840278 0.0688449 0.909302 0.410403 
-0.0484641 0.534568 0.843735 0.251813 0.897974 0.360877 0.148109 0.579776 0.801201 
0.542192 0.753372 0.372099 0.421732 0.829312 0.366583 0.395078 0.712779 0.579534 
-0.119752 -0.366377 0.922728 0.0602139 -0.394076 0.917103 -0.200431 -0.319826 0.926034 
-0.308165 -0.194341 0.931271 -0.123337 -0.319233 0.939616 0.125434 -0.361282 0.923981 
0.0555069 -0.328964 0.94271 0.141101 -0.344614 0.92808 0.174035 -0.285112 0.942562 
-0.32539 -0.134958 0.935899 -0.297574 -0.128223 0.946049 -0.125533 -0.113935 0.985525 
0.0330977 -0.0801874 0.99623 0.112213 -0.144237 0.98316 0.203714 -0.294024 0.933837 
0.138874 -0.216972 0.966249 0.21411 -0.293074 0.931807 -0.339655 -0.00457022 0.940539 
-0.28105 -0.00482547 0.959681 -0.0903766 0.024942 0.995595 0.0260817 0.0408795 0.998824 
0.0181968 -0.0433107 0.998896 0.0442822 -0.0965016 0.994347 0.249044 -0.290164 0.924003 
0.132436 -0.146198 0.98035 0.24822 -0.292877 0.923369 0.25856 -0.383181 0.886747 
-0.308788 0.0419686 0.950204 -0.272904 0.028847 0.961609 -0.0788292 -0.0284477 0.996482 
-0.0331251 0.0225961 0.999196 -0.0290449 -0.105856 0.993957 0.0376969 -0.0430244 0.998363 
0.0358113 -0.0512564 0.998043 0.0802824 -0.182645 0.979896 0.28239 -0.395834 0.873826 
0.226004 -0.363089 0.90393 0.405211 -0.374139 0.834161 -0.409609 0.0622056 0.910138 
-0.352102 0.0601279 0.934028 -0.395082 0.0611185 0.91661 -0.0820278 0.00832655 0.996595 
-0.0511259 -0.00590277 0.998675 -0.0542462 -0.117609 0.991577 0.104748 -0.0518986 0.993144 
-0.0100408 -0.0656256 0.997794 -0.053759 -0.122373 0.991027 0.0932325 -0.181292 0.979 
0.472974 -0.307119 0.825817 0.353215 -0.271645 0.895237 -0.296381 0.0694109 0.952544 
-0.144736 0.127543 0.981216 -0.15715 -0.0957984 0.982917 -0.0748326 -0.0958869 0.992575 
0.0881147 -0.0953381 0.991537 -0.039385 -0.102843 0.993918 -0.0494792 -0.081367 0.995455 
0.0728573 -0.0575283 0.995682 0.555667 -0.0773686 0.827797 0.297271 -0.0639839 0.952647 
-0.214002 -0.00969315 0.976785 -0.190695 -0.00277141 0.981645 -0.247214 0.0380528 0.968213 
-0.270062 0.0251853 0.962513 -0.0441114 0.0997816 0.994031 0.0932546 -0.0441345 0.994664 
0.0053625 -0.0957032 0.995395 -0.00774014 -0.038947 0.999211 0.114085 0.0168639 0.993328 
0.536717 0.103798 0.837354 0.319175 0.0833455 0.944024 -0.194092 0.00621929 0.980964 
-0.187009 0.0442729 0.98136 -0.187229 0.00465401 0.982305 -0.0896876 0.0451392 0.994947 
-0.0072239 0.291587 0.956517 -0.0822916 0.255973 0.963175 -0.145574 0.325348 0.934322 
-0.11487 0.146248 0.982556 -0.0314649 0.0477838 0.998362 0.063315 0.0510174 0.996689 
0.188358 0.156303 0.969583 0.452762 0.293143 0.842065 0.435017 0.33746 0.834794 
0.398917 0.272584 0.875536 -0.0726211 0.242644 0.967393 0.00311124 0.282424 0.959285 
-0.000722387 0.287354 0.957824 -0.00272911 0.266239 0.963903 -0.108809 0.32437 0.939651 
-0.140982 0.334862 0.93166 -0.142087 0.329358 0.933453 -0.164049 0.421676 0.891783 
-0.175863 0.317591 0.931777 -0.0542249 0.497228 0.865924 -0.0840687 0.289238 0.953558 
0.132401 0.521642 0.842828 0.096935 0.308929 0.946132 0.395533 0.402818 0.825404 
0.317749 0.469578 0.823731 0.288445 0.352577 0.890218 
