# vtk DataFile Version 4.2
vtk output
ASCII
DATASET POLYDATA
POINTS 536 float
-38.5798 -31.7949 -16.6647 -30.2624 -31.7949 -18.2395 -21.945 -31.7949 -18.6196 
-13.6277 -31.7949 -18.7076 -5.31028 -31.7949 -18.4101 3.00709 -31.7949 -17.76 
11.3245 -31.7949 -17.2703 -55.2145 -23.4775 -17.4728 -46.8971 -23.4775 -20.5608 
-38.5798 -23.4775 -21.2865 -30.2624 -23.4775 -21.44 -21.945 -23.4775 -21.5261 
-13.6277 -23.4775 -21.2209 -5.31028 -23.4775 -21.3979 3.00709 -23.4775 -21.1892 
11.3245 -23.4775 -20.7803 19.6418 -23.4775 -20.3184 27.9592 -23.4775 -20.0824 
36.2766 -23.4775 -19.8293 44.594 -23.4775 -18.5233 -55.2145 -15.1601 -20.2824 
-46.8971 -15.1601 -22.0411 -38.5798 -15.1601 -23.5117 -30.2624 -15.1601 -22.5995 
-21.945 -15.1601 -21.4435 -13.6277 -15.1601 -21.4832 -5.31028 -15.1601 -22.3753 
3.00709 -15.1601 -22.0407 11.3245 -15.1601 -21.2295 19.6418 -15.1601 -20.994 
27.9592 -15.1601 -22.0696 36.2766 -15.1601 -21.9456 44.594 -15.1601 -21.7441 
52.9113 -15.1601 -19.342 -63.5319 -6.84275 -17.6257 -55.2145 -6.84275 -21.2253 
-46.8971 -6.84275 -22.4795 -38.5798 -6.84275 -22.5014 -30.2624 -6.84275 -21.5496 
-21.945 -6.84275 -20.3915 -13.6277 -6.84275 -21.5235 -5.31028 -6.84275 -21.855 
3.00709 -6.84275 -21.1385 11.3245 -6.84275 -22.2552 19.6418 -6.84275 -20.6707 
27.9592 -6.84275 -21.5678 36.2766 -6.84275 -22.4822 44.594 -6.84275 -22.6668 
52.9113 -6.84275 -21.6162 61.2287 -6.84275 -18.2838 -63.5319 1.47462 -17.2035 
-55.2145 1.47462 -20.6866 -46.8971 1.47462 -21.8268 -38.5798 1.47462 -21.7984 
-30.2624 1.47462 -21.1617 -21.945 1.47462 -19.7892 -13.6277 1.47462 -23.3867 
-5.31028 1.47462 -21.8341 3.00709 1.47462 -21.1458 11.3245 1.47462 -24.5827 
19.6418 1.47462 -19.9721 27.9592 1.47462 -21.1744 36.2766 1.47462 -22.29 
44.594 1.47462 -22.5084 52.9113 1.47462 -21.4287 61.2287 1.47462 -17.958 
-55.2145 9.79199 -19.1296 -46.8971 9.79199 -21.1945 -38.5798 9.79199 -21.6649 
-30.2624 9.79199 -20.8321 -21.945 9.79199 -20.4094 -13.6277 9.79199 -22.7187 
-5.31028 9.79199 -22.0328 3.00709 9.79199 -21.1905 11.3245 9.79199 -21.8211 
19.6418 9.79199 -19.657 27.9592 9.79199 -20.6239 36.2766 9.79199 -21.7526 
44.594 9.79199 -21.689 52.9113 9.79199 -20.5079 61.2287 9.79199 -17.3511 
-55.2145 18.1094 -16.8406 -46.8971 18.1094 -19.0319 -38.5798 18.1094 -19.6518 
-30.2624 18.1094 -19.8359 -21.945 18.1094 -20.0906 -13.6277 18.1094 -20.9816 
-5.31028 18.1094 -20.5219 3.00709 18.1094 -20.0624 11.3245 18.1094 -20.0767 
19.6418 18.1094 -19.9001 27.9592 18.1094 -20.4799 36.2766 18.1094 -21.1653 
44.594 18.1094 -20.5056 52.9113 18.1094 -19.3774 -38.5798 26.4267 -17.2366 
-30.2624 26.4267 -17.9132 -21.945 26.4267 -18.9817 -13.6277 26.4267 -19.5631 
-5.31028 26.4267 -19.1844 3.00709 26.4267 -19.148 11.3245 26.4267 -19.0079 
19.6418 26.4267 -19.3192 27.9592 26.4267 -19.0335 36.2766 26.4267 -18.7674 
44.594 26.4267 -18.8167 -38.5798 -31.9545 -16.4963 -30.2624 -33.8562 -16.4963 
-21.945 -34.3923 -16.4963 -13.6277 -34.759 -16.4963 -5.31028 -34.1763 -16.4963 
3.00709 -33.3243 -16.4963 11.3245 -32.7409 -16.4963 -55.2145 -24.6918 -16.4963 
-39.4591 -31.7949 -16.4963 -46.8971 -29.8032 -16.4963 -46.8971 -31.7949 -13.2962 
17.2968 -31.7949 -16.4963 19.6418 -31.2254 -16.4963 19.6418 -31.7949 -16.0311 
27.9592 -29.5108 -16.4963 27.9592 -31.7949 -13.9577 36.2766 -28.4029 -16.4963 
36.2766 -31.7949 -10.5436 44.594 -25.8247 -16.4963 -56.6564 -23.4775 -16.4963 
49.6702 -23.4775 -16.4963 52.9113 -21.033 -16.4963 52.9113 -23.4775 -14.7201 
-62.3054 -15.1601 -16.4963 -63.5319 -11.6439 -16.4963 -63.5319 -15.1601 -15.5526 
58.6315 -15.1601 -16.4963 61.2287 -11.6274 -16.4963 61.2287 -15.1601 -14.8371 
-64.7974 -6.84275 -16.4963 64.1497 -6.84275 -16.4963 69.5461 -6.84275 -10.6059 
-64.5076 1.47462 -16.4963 -63.5319 4.15479 -16.4963 63.8691 1.47462 -16.4963 
69.5461 1.47462 -10.7663 -60.9324 9.79199 -16.4963 -63.5319 9.79199 -14.9863 
62.4873 9.79199 -16.4963 61.2287 11.9035 -16.4963 69.5461 9.79199 -9.34122 
-55.8361 18.1094 -16.4963 -63.5319 18.1094 -10.0049 -55.2145 18.738 -16.4963 
-46.8971 24.5334 -16.4963 57.9657 18.1094 -16.4963 52.9113 23.4903 -16.4963 
61.2287 18.1094 -13.9732 -55.2145 26.4267 -10.2964 -42.6181 26.4267 -16.4963 
-46.8971 26.4267 -15.5269 -38.5798 27.6213 -16.4963 -30.2624 29.3561 -16.4963 
-21.945 32.1195 -16.4963 -13.6277 33.5891 -16.4963 -5.31028 33.3747 -16.4963 
3.00709 32.1976 -16.4963 11.3245 31.9772 -16.4963 19.6418 32.3906 -16.4963 
27.9592 31.1283 -16.4963 36.2766 30.58 -16.4963 49.6038 26.4267 -16.4963 
44.594 29.423 -16.4963 52.9113 26.4267 -14.2038 -38.5798 34.7441 -10.525 
-30.2624 34.7441 -13.1682 -21.945 34.7441 -15.0076 -13.6277 34.7441 -15.8918 
-5.31028 34.7441 -15.7516 3.00709 34.7441 -14.6394 11.3245 34.7441 -14.4875 
19.6418 34.7441 -14.5591 27.9592 34.7441 -13.5683 36.2766 34.7441 -12.1745 
44.594 34.7441 -8.72498 -46.8971 -33.5673 -8.17891 -38.5798 -35.9969 -8.17891 
-30.2624 -37.6669 -8.17891 -21.945 -39.1494 -8.17891 -13.6277 -39.7156 -8.17891 
-5.31028 -39.5245 -8.17891 3.00709 -39.1086 -8.17891 11.3245 -38.3011 -8.17891 
19.6418 -36.3861 -8.17891 27.9592 -34.7619 -8.17891 36.2766 -32.7028 -8.17891 
-50.8345 -31.7949 -8.17891 -55.2145 -29.5722 -8.17891 41.1353 -31.7949 -8.17891 
44.594 -31.1168 -8.17891 44.594 -31.7949 -4.53028 52.9113 -28.2043 -8.17891 
-62.9681 -23.4775 -8.17891 -63.5319 -22.8398 -8.17891 60.5132 -23.4775 -8.17891 
61.2287 -22.8672 -8.17891 61.2287 -23.4775 -6.61046 -69.2991 -15.1601 -8.17891 
67.2655 -15.1601 -8.17891 69.5461 -10.2094 -8.17891 69.5461 -15.1601 -2.25092 
-70.9264 -6.84275 -8.17891 -71.8493 -6.84275 -0.745544 70.9941 -6.84275 -8.17891 
-71.5978 1.47462 -8.17891 -71.8493 1.47462 -6.69619 71.0856 1.47462 -8.17891 
-69.2805 9.79199 -8.17891 70.2707 9.79199 -8.17891 69.5461 11.4063 -8.17891 
-65.2754 18.1094 -8.17891 -63.5319 20.2584 -8.17891 66.5587 18.1094 -8.17891 
61.2287 25.0812 -8.17891 -57.6658 26.4267 -8.17891 -55.2145 28.3686 -8.17891 
-46.8971 33.0314 -8.17891 59.8453 26.4267 -8.17891 52.9113 31.396 -8.17891 
61.2287 26.4267 -3.87597 -42.9825 34.7441 -8.17891 -46.8971 34.7441 -2.60434 
-38.5798 36.4626 -8.17891 -30.2624 38.7417 -8.17891 -21.945 40.5185 -8.17891 
-13.6277 41.0928 -8.17891 -5.31028 40.1556 -8.17891 3.00709 39.0804 -8.17891 
11.3245 38.8262 -8.17891 19.6418 38.785 -8.17891 27.9592 38.063 -8.17891 
36.2766 36.9657 -8.17891 45.3961 34.7441 -8.17891 44.594 35.0837 -8.17891 
-46.8971 -33.6291 0.138468 -38.5798 -35.3228 0.138468 -30.2624 -36.798 0.138468 
-21.945 -38.5912 0.138468 -13.6277 -39.779 0.138468 -5.31028 -39.9524 0.138468 
3.00709 -39.8272 0.138468 11.3245 -38.8607 0.138468 19.6418 -36.812 0.138468 
27.9592 -35.0966 0.138468 36.2766 -33.5722 0.138468 44.594 -32.6172 0.138468 
-51.3347 -31.7949 0.138468 -55.2145 -29.6076 0.138468 -46.8971 -31.7949 6.03099 
47.1248 -31.7949 0.138468 44.594 -31.7949 5.35445 52.9113 -29.9869 0.138468 
61.2287 -25.4662 0.138468 -63.4314 -23.4775 0.138468 -63.5319 -23.3802 0.138468 
64.1379 -23.4775 0.138468 69.5461 -16.7721 0.138468 -69.8171 -15.1601 0.138468 
-71.8493 -7.33887 0.138468 70.3467 -15.1601 0.138468 69.5461 -15.1601 4.85281 
-71.9578 -6.84275 0.138468 -71.8493 -6.84275 0.524541 73.9256 -6.84275 0.138468 
-72.9453 1.47462 0.138468 -71.8493 6.83982 0.138468 -71.8493 1.47462 4.35452 
73.9747 1.47462 0.138468 -71.2843 9.79199 0.138468 72.9472 9.79199 0.138468 
69.5461 17.3922 0.138468 -67.8619 18.1094 0.138468 -63.5319 24.4246 0.138468 
69.2136 18.1094 0.138468 -61.6785 26.4267 0.138468 -55.2145 31.2779 0.138468 
52.9113 32.7802 0.138468 62.4058 26.4267 0.138468 61.2287 27.4427 0.138468 
61.2287 26.4267 2.84966 -48.4515 34.7441 0.138468 -46.8971 35.4513 0.138468 
-46.8971 34.7441 2.904 -38.5798 38.5426 0.138468 -30.2624 40.2603 0.138468 
-21.945 41.3232 0.138468 -13.6277 41.1363 0.138468 -5.31028 39.6381 0.138468 
-5.31028 34.7441 7.70861 3.00709 38.0954 0.138468 3.00709 34.7441 5.12895 
11.3245 37.9412 0.138468 11.3245 34.7441 4.9259 19.6418 38.1334 0.138468 
19.6418 34.7441 5.46614 27.9592 37.583 0.138468 27.9592 34.7441 5.8923 
36.2766 36.9527 0.138468 36.2766 34.7441 4.62678 47.5489 34.7441 0.138468 
44.594 35.8619 0.138468 44.594 34.7441 2.41273 -38.5798 -32.3232 8.45584 
-30.2624 -33.7597 8.45584 -21.945 -35.5257 8.45584 -13.6277 -36.9937 8.45584 
-5.31028 -37.6872 8.45584 3.00709 -37.6264 8.45584 11.3245 -36.7707 8.45584 
19.6418 -35.0716 8.45584 27.9592 -34.0753 8.45584 36.2766 -32.2794 8.45584 
-55.2145 -26.3715 8.45584 -41.7065 -31.7949 8.45584 -46.8971 -30.829 8.45584 
-38.5798 -31.7949 9.50902 -30.2624 -31.7949 13.0516 -21.945 -31.7949 15.6256 
3.00709 -31.7949 16.4044 11.3245 -31.7949 16.0031 19.6418 -31.7949 14.8567 
27.9592 -31.7949 13.1952 40.418 -31.7949 8.45584 36.2766 -31.7949 9.99874 
44.594 -31.2894 8.45584 52.9113 -28.813 8.45584 61.2287 -23.9505 8.45584 
-59.3571 -23.4775 8.45584 -63.5319 -19.2878 8.45584 -55.2145 -23.4775 13.9531 
61.9278 -23.4775 8.45584 61.2287 -23.4775 9.1993 -66.8852 -15.1601 8.45584 
-63.5319 -15.1601 12.6395 68.8705 -15.1601 8.45584 69.5461 -13.7371 8.45584 
-69.54 -6.84275 8.45584 -63.5319 -6.84275 16.5985 72.4831 -6.84275 8.45584 
69.5461 -6.84275 12.9599 -70.7418 1.47462 8.45584 72.4189 1.47462 8.45584 
69.5461 1.47462 12.7404 -68.988 9.79199 8.45584 -63.5319 9.79199 15.6999 
71.2088 9.79199 8.45584 69.5461 12.9986 8.45584 69.5461 9.79199 11.4604 
-65.6077 18.1094 8.45584 -63.5319 20.7352 8.45584 -63.5319 18.1094 10.8273 
3.00709 18.1094 16.3853 11.3245 18.1094 15.6302 66.8531 18.1094 8.45584 
61.2287 24.2008 8.45584 61.2287 18.1094 14.7267 -58.2496 26.4267 8.45584 
-55.2145 28.7177 8.45584 -55.2145 26.4267 11.4113 -46.8971 33.2098 8.45584 
-13.6277 26.4267 16.264 -5.31028 33.9769 8.45584 -5.31028 26.4267 13.7318 
3.00709 31.3714 8.45584 3.00709 26.4267 11.8384 11.3245 30.9798 8.45584 
11.3245 26.4267 11.2931 19.6418 32.0695 8.45584 19.6418 26.4267 12.5955 
27.9592 33.0227 8.45584 27.9592 26.4267 13.8613 36.2766 32.7253 8.45584 
36.2766 26.4267 15.0047 44.594 31.9186 8.45584 44.594 26.4267 14.7657 
[...]
POINT_DATA 536
SCALARS ImageScalars float
LOOKUP_TABLE default
0 0 0 0 0 0 0 0 0 
0 0 0 0 0 0 0 0 0 
0 0 0 0 0 0 0 0 0 
0 0 0 0 0 0 0 0 0 
0 0 0 0 0 0 0 0 0 
0 0 0 0 0 0 0 0 0 
0 0 0 0 0 0 0 0 0 
0 0 0 0 0 0 0 0 0 
0 0 0 0 0 0 0 0 0 
0 0 0 0 0 0 0 0 0 
0 0 0 0 0 0 0 0 0 
0 0 0 0 0 0 0 0 0 
0 0 0 0 0 0 0 0 0 
0 0 0 0 0 0 0 0 0 
0 0 0 0 0 0 0 0 0 
0 0 0 0 0 0 0 0 0 
0 0 0 0 0 0 0 0 0 
0 0 0 0 0 0 0 0 0 
0 0 0 0 0 0 0 0 0 
0 0 0 0 0 0 0 0 0 
0 0 0 0 0 0 0 0 0 
0 0 0 0 0 0 0 0 0 
0 0 0 0 0 0 0 0 0 
0 0 0 0 0 0 0 0 0 
0 0 0 0 0 0 0 0 0 
0 0 0 0 0 0 0 0 0 
0 0 0 0 0 0 0 0 0 
0 0 0 0 0 0 0 0 0 
0 0 0 0 0 0 0 0 0 
0 0 0 0 0 0 0 0 0 
0 0 0 0 0 0 0 0 0 
0 0 0 0 0 0 0 0 0 
0 0 0 0 0 0 0 0 0 
0 0 0 0 0 0 0 0 0 
0 0 0 0 0 0 0 0 0 
0 0 0 0 0 0 0 0 0 
0 0 0 0 0 0 0 0 0 
0 0 0 0 0 0 0 0 0 
0 0 0 0 0 0 0 0 0 
0 0 0 0 0 0 0 0 0 
0 0 0 0 0 0 0 0 0 
0 0 0 0 0 0 0 0 0 
0 0 0 0 0 0 0 0 0 
0 0 0 0 0 0 0 0 0 
0 0 0 0 0 0 0 0 0 
0 0 0 0 0 0 0 0 0 
0 0 0 0 0 0 0 0 0 
0 0 0 0 0 0 0 0 0 
0 0 0 0 0 0 0 0 0 
0 0 0 0 0 0 0 0 0 
0 0 0 0 0 0 0 0 0 
0 0 0 0 0 0 0 0 0 
0 0 0 0 0 0 0 0 0 
0 0 0 0 0 0 0 0 0 
0 0 0 0 0 0 0 0 0 
0 0 0 0 0 0 0 0 0 
0 0 0 0 0 0 0 0 0 
0 0 0 0 0 0 0 0 0 
0 0 0 0 0 0 0 0 0 
0 0 0 0 0 
NORMALS Normals float
0.174078 0.722506 0.669091 0.0942397 0.602051 0.792877 0.0272692 0.512217 0.858423 
-0.0121406 0.484504 0.874705 -0.0523384 0.533357 0.844269 -0.0627627 0.567053 0.821286 
-0.0813303 0.576503 0.813037 0.450015 0.498932 0.740644 0.225593 0.392089 0.891837 
0.045675 0.341404 0.938806 0.0131597 0.233398 0.972292 -0.012453 0.141491 0.989861 
-0.00695984 0.158367 0.987356 -0.00206702 0.219153 0.975688 -0.0357115 0.229736 0.972598 
-0.0508066 0.211855 0.97598 -0.0404905 0.233506 0.971512 -0.0276219 0.370351 0.928481 
-0.0836922 0.436995 0.895562 -0.243522 0.559981 0.791908 0.304547 0.21203 0.928598 
0.179793 0.0973083 0.97888 0.0321577 0.0655214 0.997333 -0.126137 0.0117264 0.991944 
-0.0657393 -0.0673148 0.995564 0.0564829 0.0175818 0.998249 0.0335486 0.0295807 0.998999 
-0.0675285 0.00084802 0.997717 -0.0627257 0.0829212 0.99458 0.0519477 0.0193518 0.998462 
0.0532702 0.0877851 0.994714 -0.0194392 0.14566 0.989144 -0.139943 0.208546 0.967948 
-0.346574 0.326192 0.87948 0.572276 0.0652314 0.817462 0.235165 0.0202178 0.971745 
0.0697119 -0.0130512 0.997482 -0.0554744 -0.103101 0.993123 -0.130659 -0.0857051 0.987716 
-0.00741005 -0.101512 0.994807 0.0936885 0.0874447 0.991754 -0.0229184 -0.0349796 0.999125 
0.0244415 -0.0585338 0.997986 -0.0363733 0.180334 0.982933 -0.0337251 -0.0603886 0.997605 
0.108482 -0.0532664 0.99267 0.0654155 0.0233293 0.997585 -0.0472616 0.0504774 0.997606 
-0.253377 0.120104 0.959883 -0.464371 0.134291 0.8754 0.514718 -0.127151 0.847879 
0.22964 -0.118888 0.965987 0.061895 -0.0807381 0.994812 -0.0361646 -0.050642 0.998062 
-0.126561 -0.0451645 0.99093 0.0787982 0.00210873 0.996888 0.174439 0.0799283 0.981419 
-0.122691 0.0116903 0.992376 0.160057 0.00352274 0.987101 -0.136686 -0.00358036 0.990608 
-0.148107 -0.0629682 0.986965 0.138307 -0.0562569 0.98879 0.0793604 -0.0435743 0.995893 
-0.0476293 -0.057921 0.997184 -0.262027 -0.0628934 0.963009 -0.45363 -0.0451423 0.890046 
0.319227 -0.219295 0.921956 0.136723 -0.148274 0.97945 -0.0196741 -0.126064 0.991827 
-0.0745415 -0.0768061 0.994256 0.0969879 0.0181284 0.99512 0.116313 -0.14204 0.983004 
-0.0896968 -0.0875006 0.992118 -0.0149221 -0.0710603 0.99736 -0.105344 -0.256734 0.960724 
-0.0460221 -0.0044312 0.998931 0.128195 -0.0422145 0.99085 0.063882 -0.066222 0.995758 
-0.0694317 -0.124196 0.989826 -0.217372 -0.123756 0.968212 -0.473557 -0.200845 0.857558 
0.377592 -0.382743 0.843168 0.165575 -0.332683 0.928389 0.0439318 -0.23931 0.969949 
0.0255787 -0.166355 0.985734 0.0674866 -0.0857677 0.994027 0.0258126 -0.172957 0.984591 
-0.0547587 -0.156451 0.986167 -0.0262059 -0.116391 0.992858 -0.00970098 -0.146849 0.989111 
0.0238031 -0.0227296 0.999458 0.0752256 -0.0879849 0.993277 -0.00088221 -0.183927 0.98294 
-0.105435 -0.172984 0.979265 -0.310737 -0.306205 0.899822 0.127197 -0.42538 0.896032 
0.100129 -0.331153 0.93825 0.0927053 -0.26797 0.958957 0.012911 -0.269488 0.962917 
-0.0235741 -0.254095 0.966892 -0.0104721 -0.262724 0.964814 0.0113745 -0.259936 0.965559 
0.0031361 -0.251575 0.967833 -0.0358091 -0.312817 0.949138 -0.0113571 -0.385959 0.922446 
-0.215759 -0.477709 0.851612 0.176331 0.729693 0.660648 0.118235 0.712992 0.691131 
0.0441856 0.664225 0.746226 -0.0110797 0.63948 0.768728 -0.0644132 0.644944 0.76151 
-0.0645186 0.633768 0.770827 -0.0877547 0.617642 0.781548 0.464495 0.552843 0.691815 
0.191319 0.728713 0.657552 0.306204 0.677104 0.669156 0.336524 0.832305 0.440477 
-0.119237 0.641934 0.757432 -0.126238 0.638679 0.759047 -0.137117 0.683244 0.7172 
-0.0941718 0.64653 0.757054 -0.151859 0.808331 0.568806 -0.158732 0.6897 0.706483 
-0.209728 0.920804 0.328837 -0.253727 0.661541 0.705681 0.496219 0.516531 0.697827 
-0.317547 0.571795 0.756449 -0.369833 0.482882 0.793756 -0.379282 0.602731 0.70204 
0.578045 0.317289 0.751792 0.608747 0.225622 0.760606 0.640756 0.353149 0.681702 
-0.494439 0.344856 0.797875 -0.515496 0.266842 0.814285 -0.573591 0.382696 0.72425 
0.62624 0.0784658 0.775672 -0.562735 0.166306 0.809736 -0.829162 0.191673 0.525121 
0.549912 -0.123083 0.826104 0.529535 -0.183134 0.828284 -0.542229 -0.0525156 0.838588 
-0.838452 -0.0400363 0.543503 0.48518 -0.270161 0.831633 0.585816 -0.312564 0.747745 
-0.515327 -0.215942 0.829341 -0.508464 -0.245204 0.825433 -0.845368 -0.240601 0.476932 
0.394689 -0.386715 0.83347 0.668583 -0.500896 0.549636 0.382503 -0.400878 0.832459 
0.257357 -0.454113 0.852965 -0.497361 -0.328998 0.80274 -0.405917 -0.439409 0.801343 
-0.611731 -0.382117 0.692656 0.497314 -0.661738 0.561054 0.206388 -0.460022 0.863588 
0.296999 -0.512139 0.805919 0.138416 -0.466253 0.873756 0.131385 -0.435037 0.890776 
0.112396 -0.454589 0.883582 0.0353752 -0.486052 0.873214 -0.040029 -0.505514 0.861889 
-0.0339351 -0.520654 0.853093 0.00683795 -0.516069 0.85652 -0.0267366 -0.546839 0.836811 
-0.0618079 -0.539675 0.839602 -0.0737808 -0.563272 0.822971 -0.353823 -0.511194 0.783256 
-0.223236 -0.620552 0.751718 -0.446766 -0.570008 0.689559 0.282982 -0.785138 0.55089 
0.200128 -0.701075 0.684429 0.127684 -0.589292 0.797767 0.0375642 -0.547059 0.836251 
-0.0529378 -0.591095 0.804863 -0.0565934 -0.709996 0.701928 -0.00356614 -0.731737 0.681578 
-0.0357413 -0.732348 0.679992 -0.0917698 -0.802558 0.589473 -0.175313 -0.852243 0.492897 
-0.306834 -0.883264 0.354538 0.334144 0.929072 0.158659 0.239023 0.958592 0.154819 
0.188829 0.973393 0.129804 0.119802 0.979539 0.16171 0.0238329 0.97714 0.211256 
-0.0349257 0.964875 0.260376 -0.0703033 0.952541 0.296181 -0.160981 0.947026 0.277898 
-0.212005 0.945002 0.249049 -0.20903 0.947563 0.241724 -0.209559 0.951333 0.225946 
0.405965 0.894555 0.186985 0.51374 0.831574 0.211083 -0.228385 0.933513 0.276395 
-0.24511 0.914315 0.322411 -0.231175 0.955862 0.181346 -0.399131 0.850303 0.343045 
0.717757 0.652728 0.242428 0.732022 0.633305 0.251135 -0.55716 0.74427 0.368286 
-0.578851 0.724261 0.374669 -0.576216 0.760556 0.299215 0.879221 0.390666 0.272674 
-0.791176 0.410033 0.453776 -0.859696 0.266964 0.435492 -0.889949 0.421838 0.173331 
0.947327 0.115355 0.298774 0.986922 0.156577 -0.0383204 -0.876674 0.191661 0.441258 
0.942083 -0.0893602 0.323255 0.964082 -0.0809145 0.252979 -0.893242 -0.0367624 0.44807 
0.86831 -0.29158 0.401271 -0.869504 -0.241167 0.431047 -0.863732 -0.269289 0.425969 
0.719802 -0.517097 0.463137 0.685434 -0.564208 0.460271 -0.789271 -0.422354 0.445722 
-0.640366 -0.65978 0.393219 0.570225 -0.678109 0.463694 0.520161 -0.711623 0.472255 
0.381733 -0.812053 0.441418 -0.606289 -0.700612 0.37624 -0.447662 -0.832562 0.326249 
-0.6415 -0.75283 0.147393 0.348725 -0.833348 0.428862 0.382639 -0.914863 0.12889 
0.303121 -0.845395 0.439801 0.225733 -0.882361 0.412897 0.13982 -0.926027 0.350605 
-0.0245116 -0.962443 0.270377 -0.12096 -0.964709 0.233892 -0.0831492 -0.971567 0.221683 
-0.0180574 -0.976194 0.216145 -0.0477065 -0.971702 0.231341 -0.109685 -0.965609 0.23573 
-0.170236 -0.951782 0.255208 -0.324802 -0.889123 0.322435 -0.312985 -0.890534 0.330137 
0.280506 0.94784 -0.151378 0.196661 0.957476 -0.211103 0.179742 0.957924 -0.223772 
0.166374 0.964084 -0.207031 0.0771988 0.985775 -0.149291 0.00232447 0.994975 -0.100094 
-0.0643856 0.994784 -0.07912 -0.17603 0.980802 -0.0839145 -0.228264 0.970528 -0.0772765 
-0.184892 0.981922 -0.0405517 -0.147991 0.988676 -0.0248788 -0.215711 0.976424 0.00807951 
0.402624 0.901912 -0.156363 0.518349 0.839369 -0.163628 0.287861 0.902549 -0.320221 
-0.257181 0.966297 0.0113357 -0.205782 0.962358 -0.17754 -0.361787 0.931934 0.0246785 
-0.571239 0.819649 0.0431388 0.700069 0.702281 -0.129242 0.703511 0.698909 -0.128832 
-0.645223 0.762631 0.0456262 -0.873435 0.481872 0.0700789 0.892713 0.438008 -0.105894 
0.981399 0.175897 -0.0769196 -0.898626 0.432449 0.073884 -0.891805 0.430165 -0.140152 
0.984034 0.161296 -0.0752352 0.982866 0.161229 -0.0893329 -0.975772 0.20637 0.0726712 
0.998037 -0.0432239 -0.0453135 0.982265 -0.185314 -0.0285381 0.977158 -0.0365058 -0.209354 
-0.996363 -0.0558259 0.0643699 0.964204 -0.264583 -0.0174923 -0.959764 -0.276664 0.0480592 
-0.894259 -0.447073 0.0206578 0.862515 -0.505884 0.0122286 0.759225 -0.65061 0.0168273 
-0.883988 -0.467168 0.0178784 0.702236 -0.711709 0.0183262 0.555832 -0.831256 0.00797246 
-0.417782 -0.905401 -0.0755469 -0.645751 -0.762172 -0.0458207 -0.620074 -0.783123 -0.0471821 
-0.615046 -0.771405 -0.163257 0.40049 -0.916301 0.000392284 0.370335 -0.928898 0.000203727 
0.370503 -0.921771 -0.114305 0.274163 -0.961103 -0.0334 0.163932 -0.981732 -0.0965848 
0.0517029 -0.982441 -0.179266 -0.0997456 -0.96684 -0.235096 -0.176262 -0.939793 -0.292782 
-0.199258 -0.708474 -0.677024 -0.0992437 -0.931981 -0.348659 -0.105256 -0.790893 -0.602834 
0.00222378 -0.937516 -0.347936 0.012282 -0.798467 -0.601913 -0.0217096 -0.943271 -0.331314 
0.0325487 -0.81477 -0.57887 -0.0673515 -0.964269 -0.256219 -0.0203397 -0.855078 -0.5181 
-0.0939258 -0.971319 -0.218441 -0.0935847 -0.914215 -0.394275 -0.301977 -0.942617 -0.142415 
-0.245235 -0.95191 -0.183647 -0.213036 -0.936404 -0.27886 0.15932 0.910248 -0.382186 
0.169804 0.921457 -0.349405 0.175358 0.908343 -0.379688 0.119076 0.910963 -0.394927 
0.034624 0.915999 -0.399683 -0.0510221 0.909465 -0.412638 -0.146206 0.910878 -0.385907 
-0.153653 0.935423 -0.318392 -0.158301 0.947137 -0.279057 -0.156988 0.963492 -0.216884 
0.490878 0.790105 -0.367114 0.207193 0.899344 -0.385035 0.293969 0.869424 -0.397095 
0.162009 0.900099 -0.404445 0.169544 0.867437 -0.46777 0.117396 0.781825 -0.612346 
-0.0458749 0.650792 -0.757869 -0.0519847 0.703242 -0.709047 -0.0936752 0.800762 -0.591612 
-0.109314 0.867062 -0.48606 -0.176922 0.952042 -0.249629 -0.156094 0.949205 -0.273211 
-0.200683 0.935563 -0.290599 -0.364987 0.89093 -0.270236 -0.551112 0.767874 -0.326565 
0.583096 0.720963 -0.374448 0.701843 0.574406 -0.421277 0.477889 0.700255 -0.530345 
-0.568316 0.754822 -0.327508 -0.550906 0.755038 -0.355557 0.790771 0.448579 -0.416483 
0.701808 0.446938 -0.554718 -0.846909 0.426678 -0.317318 -0.868948 0.376597 -0.321098 
0.894883 0.181366 -0.407787 0.640815 0.184336 -0.745235 -0.914971 0.18362 -0.359322 
-0.81992 0.147573 -0.553131 0.921982 -0.0309961 -0.385991 -0.922431 -0.0641185 -0.380802 
-0.824423 -0.0434404 -0.564305 0.881516 -0.237623 -0.408002 0.638864 -0.261082 -0.723664 
-0.886804 -0.299849 -0.351665 -0.858042 -0.373146 -0.352884 -0.826872 -0.27821 -0.488756 
0.758626 -0.490128 -0.429257 0.714858 -0.555154 -0.425184 0.70636 -0.475935 -0.523967 
-0.145115 -0.48654 -0.861522 0.034441 -0.573161 -0.818719 -0.757958 -0.512998 -0.402905 
-0.578359 -0.69018 -0.434916 -0.520533 -0.497401 -0.694001 0.595001 -0.692602 -0.40777 
0.52876 -0.742149 -0.41186 0.505916 -0.677411 -0.534007 0.350195 -0.852866 -0.387278 
-0.205508 -0.504176 -0.838793 -0.200697 -0.67134 -0.713459 -0.225427 -0.508724 -0.830893 
-0.105495 -0.62568 -0.772914 -0.122519 -0.512661 -0.849805 0.0290253 -0.60335 -0.796948 
0.039811 -0.484661 -0.873796 0.0766195 -0.681323 -0.727962 0.133876 -0.526797 -0.839382 
0.0222025 -0.760452 -0.649014 0.122935 -0.592568 -0.796084 -0.0566418 -0.823162 -0.564975 
0.0461785 -0.608451 -0.792247 -0.140962 -0.831816 -0.536854 -0.110923 -0.665146 -0.738429 
-0.50465 -0.735517 -0.452044 -0.354302 -0.804528 -0.47666 -0.333522 -0.692605 -0.639578 
0.274735 -0.866206 -0.417381 0.209157 -0.865583 -0.454994 0.193374 -0.833832 -0.51704 
0.0618429 -0.869242 -0.490503 0.0352795 -0.799679 -0.59939 -0.0374558 -0.813292 -0.580649 
-0.0755344 -0.741483 -0.666706 -0.185588 -0.694246 -0.695399 -0.140656 -0.739124 -0.65872 
-0.153485 -0.698655 -0.698801 0.0527715 0.708401 -0.703835 -0.0269712 0.672964 -0.739183 
0.296136 0.670655 -0.680092 0.189073 0.74703 -0.637336 0.141986 0.747683 -0.648699 
0.0673941 0.718494 -0.69226 0.0992601 0.727082 -0.679337 0.0508859 0.698418 -0.713879 
-0.0374362 0.651903 -0.757378 -0.0289078 0.659022 -0.751568 -0.0442651 0.624718 -0.779595 
-0.0377497 0.6533 -0.756157 -0.0661385 0.691565 -0.71928 -0.0669072 0.70461 -0.706433 
-0.118771 0.728718 -0.674436 -0.193334 0.702806 -0.684606 -0.392467 0.572765 -0.71966 
0.377042 0.65238 -0.657449 0.46995 0.570407 -0.673634 0.289012 0.626572 -0.723795 
0.139849 0.563612 -0.814116 0.0347815 0.466472 -0.883852 0.0224499 0.353282 -0.935248 
-0.0123184 0.257539 -0.966189 -0.0480037 0.263594 -0.963439 -0.00824446 0.315387 -0.948927 
0.0142746 0.340189 -0.940249 -0.0118402 0.319023 -0.947673 -0.0288682 0.381463 -0.923933 
-0.0716857 0.448761 -0.890772 -0.18468 0.537444 -0.822829 -0.398986 0.566999 -0.72064 
-0.390764 0.5618 -0.729167 -0.482409 0.457739 -0.746831 0.576133 0.383734 -0.721678 
0.430675 0.344986 -0.833969 0.213443 0.297398 -0.930589 0.0902449 0.199917 -0.975648 
-0.0185402 0.157463 -0.987351 -0.141106 0.0609488 -0.988117 -0.0663715 -0.0133952 -0.997705 
0.0245093 0.0943199 -0.99524 0.0269454 0.0952486 -0.995089 -0.0307571 0.0730914 -0.996851 
-0.022555 0.0131719 -0.999659 0.0386652 0.0790409 -0.996121 0.0213906 0.152149 -0.988126 
-0.0842495 0.245915 -0.965623 -0.284382 0.347614 -0.893471 -0.505961 0.424355 -0.75095 
-0.474268 0.422781 -0.772222 0.632275 0.181756 -0.753122 0.632606 0.151282 -0.759555 
0.420855 0.138879 -0.896434 0.139359 0.101546 -0.985022 -0.0233346 0.0570927 -0.998096 
-0.136193 -0.0357606 -0.990037 -0.154193 -0.0672909 -0.985747 0.0211674 0.0278707 -0.999387 
0.0600399 0.0467006 -0.997103 -0.0241939 -0.0708445 -0.997194 -0.073135 0.0571758 -0.995682 
-0.00279459 -0.0445013 -0.999005 0.12498 -0.00927724 -0.992116 0.102976 0.0402579 -0.993869 
0.0160027 0.0651115 -0.99775 -0.215621 0.0826131 -0.972976 -0.652999 0.132022 -0.745763 
-0.458226 0.137378 -0.878155 0.623292 -0.0363292 -0.781145 0.607077 -0.143558 -0.781568 
0.59091 -0.0377683 -0.805853 0.391835 -0.0506147 -0.918642 0.115353 -0.0570325 -0.991686 
-0.0400615 -0.059257 -0.997439 -0.137655 -0.047434 -0.989344 -0.0753013 0.00789862 -0.99713 
0.0486515 0.0875115 -0.994975 -0.0905698 -0.0591056 -0.994135 0.0484212 -0.106473 -0.993136 
-0.00450825 0.0174059 -0.999838 -0.0857571 -0.0193763 -0.996128 0.12142 -0.0411382 -0.991748 
0.0979253 -0.0590293 -0.993442 -0.0420918 -0.0836777 -0.995604 -0.208045 -0.10026 -0.972967 
-0.642132 -0.0524866 -0.764795 -0.437664 -0.104995 -0.892987 0.583055 -0.247196 -0.773913 
0.400342 -0.226616 -0.887903 0.135838 -0.205881 -0.969103 -0.0126974 -0.132618 -0.991086 
-0.0688044 -0.103201 -0.992278 -0.0249327 -0.0600409 -0.997885 -0.040821 -0.139835 -0.989333 
-0.120864 -0.252351 -0.960058 -0.13433 -0.470526 -0.872101 0.028446 -0.258678 -0.965545 
0.033846 -0.57577 -0.816911 0.00655367 -0.425187 -0.905082 -0.0407113 -0.220989 -0.974426 
0.0838589 -0.16015 -0.983524 0.0591459 -0.170534 -0.983575 -0.0382871 -0.188861 -0.981257 
-0.230434 -0.218527 -0.948233 -0.535787 -0.264937 -0.801711 -0.453435 -0.384826 -0.803932 
-0.407797 -0.263366 -0.874265 0.514444 -0.408403 -0.754025 0.450088 -0.474549 -0.756455 
0.426586 -0.405253 -0.808575 0.206988 -0.334295 -0.919458 0.0603841 -0.306769 -0.949867 
-0.0639564 -0.25629 -0.964482 -0.103317 -0.259032 -0.960327 -0.200883 -0.485437 -0.85088 
-0.149715 -0.35157 -0.924112 -0.159865 -0.477305 -0.864074 -0.225233 -0.457437 -0.860245 
-0.210982 -0.432673 -0.876516 0.167068 -0.492922 -0.853883 0.192861 -0.471992 -0.860249 
0.192908 -0.468978 -0.861885 0.161184 -0.501716 -0.849883 0.177165 -0.407003 -0.896081 
0.0520802 -0.533694 -0.844072 0.0599649 -0.391297 -0.918309 -0.0936417 -0.573217 -0.814036 
-0.0807897 -0.417901 -0.904893 -0.396618 -0.465628 -0.791129 -0.270165 -0.526806 -0.805907 
-0.260934 -0.442463 -0.857986 0.285348 -0.565224 -0.774014 0.274463 -0.571203 -0.773562 
0.273477 -0.559948 -0.782092 0.0910805 -0.599069 -0.7955 0.0832292 -0.539758 -0.837696 
-0.0178626 -0.571101 -0.820686 -0.026641 -0.485216 -0.873988 -0.178611 -0.497691 -0.848765 
-0.120162 -0.519538 -0.845956 -0.121345 -0.485279 -0.865898 
