# vtk DataFile Version 4.2
vtk output
ASCII
DATASET POLYDATA
POINTS 498 float
-1.89192 -0.478349 -22.9951 -16.5382 21.491 -23.2226 -16.5382 -37.0939 -15.7114 
-9.21504 -37.0939 -17.784 -1.89192 -37.0939 -18.254 5.43119 -37.0939 -17.9445 
12.7543 -37.0939 -16.4419 -23.8613 -29.7708 -18.0296 -16.5382 -29.7708 -20.038 
-9.21504 -29.7708 -21.0676 -1.89192 -29.7708 -21.1153 5.43119 -29.7708 -21.1183 
12.7543 -29.7708 -20.7123 20.0774 -29.7708 -18.9258 27.4005 -29.7708 -16.1288 
-31.1844 -22.4477 -18.6634 -23.8613 -22.4477 -21.2627 -16.5382 -22.4477 -21.8229 
-9.21504 -22.4477 -21.7865 -1.89192 -22.4477 -22.0076 5.43119 -22.4477 -22.1698 
12.7543 -22.4477 -22.017 20.0774 -22.4477 -21.5778 27.4005 -22.4477 -20.3903 
34.7237 -22.4477 -16.7169 -38.5075 -15.1246 -16.9072 -31.1844 -15.1246 -21.0907 
-23.8613 -15.1246 -22.4858 -16.5382 -15.1246 -22.5171 -9.21504 -15.1246 -21.9902 
-1.89192 -15.1246 -21.8183 5.43119 -15.1246 -21.9468 12.7543 -15.1246 -22.2752 
20.0774 -15.1246 -22.5083 27.4005 -15.1246 -22.0534 34.7237 -15.1246 -19.8121 
-38.5075 -7.80147 -19.0781 -31.1844 -7.80147 -22.5076 -23.8613 -7.80147 -22.5678 
-16.5382 -7.80147 -22.3048 -9.21504 -7.80147 -21.9413 -1.89192 -0.611953 -22.9806 
-1.89192 -7.80147 -22.1907 5.43119 -7.80147 -21.6806 12.7543 -7.80147 -21.9199 
20.0774 -7.80147 -22.5346 27.4005 -7.80147 -22.5707 34.7237 -7.80147 -20.986 
42.0468 -7.80147 -16.2724 -38.5075 -0.478349 -19.6427 -31.1844 -0.478349 -21.9648 
-23.8613 -0.478349 -22.4267 -16.5382 -0.478349 -21.6123 -1.97135 -0.478349 -22.9806 
-9.21504 -0.478349 -21.6569 -1.76445 -0.478349 -22.9806 -1.89192 -0.347238 -22.9806 
5.43119 -0.478349 -22.141 12.7543 -0.478349 -21.4879 20.0774 -0.478349 -22.0813 
27.4005 -0.478349 -22.3934 34.7237 -0.478349 -21.06 42.0468 -0.478349 -16.805 
-38.5075 6.84477 -19.1956 -31.1844 6.84477 -22.3721 -23.8613 6.84477 -22.3595 
-16.5382 6.84477 -21.8304 -9.21504 6.84477 -21.4218 -1.89192 6.84477 -22.1576 
5.43119 6.84477 -22.2178 12.7543 6.84477 -21.7179 20.0774 6.84477 -22.1185 
27.4005 6.84477 -21.9412 34.7237 6.84477 -20.5074 42.0468 6.84477 -16.2059 
-38.5075 14.1679 -17.9629 -31.1844 14.1679 -21.6989 -23.8613 14.1679 -22.8602 
-16.5382 16.1039 -22.9806 -16.5382 14.1679 -22.8923 -9.21504 14.1679 -21.973 
-1.89192 14.1679 -21.6113 5.43119 14.1679 -21.9982 12.7543 14.1679 -22.249 
20.0774 14.1679 -22.0602 27.4005 14.1679 -21.2992 34.7237 14.1679 -19.6531 
-31.1844 21.491 -20.1162 -18.0563 21.491 -22.9806 -23.8613 21.491 -22.0935 
-13.9317 21.491 -22.9806 -16.5382 22.6162 -22.9806 -9.21504 21.491 -22.5566 
-1.89192 21.491 -22.2069 5.43119 21.491 -22.1934 12.7543 21.491 -22.1243 
20.0774 21.491 -21.608 27.4005 21.491 -20.1228 34.7237 21.491 -16.7027 
-31.1844 28.8141 -16.5301 -23.8613 28.8141 -19.857 -16.5382 28.8141 -21.4902 
-9.21504 28.8141 -21.3567 -1.89192 28.8141 -21.3143 5.43119 28.8141 -21.1517 
12.7543 28.8141 -21.06 20.0774 28.8141 -19.3963 27.4005 28.8141 -16.6018 
-16.5382 36.1372 -15.9474 -9.21504 36.1372 -17.2324 -1.89192 36.1372 -17.3313 
5.43119 36.1372 -17.1521 12.7543 36.1372 -16.3373 -16.5382 -37.1546 -15.6575 
-9.21504 -39.3864 -15.6575 -1.89192 -39.8813 -15.6575 5.43119 -39.506 -15.6575 
12.7543 -37.9065 -15.6575 -16.6629 -37.0939 -15.6575 -23.8613 -32.9231 -15.6575 
-23.8613 -37.0939 -9.57421 14.6164 -37.0939 -15.6575 20.0774 -34.2887 -15.6575 
20.0774 -37.0939 -11.4378 27.4005 -30.3128 -15.6575 -27.9494 -29.7708 -15.6575 
-31.1844 -26.938 -15.6575 -31.1844 -29.7708 -11.9396 28.1853 -29.7708 -15.6575 
34.7237 -23.9955 -15.6575 -34.96 -22.4477 -15.6575 -38.5075 -17.3436 -15.6575 
-38.5075 -22.4477 -9.44921 35.9668 -22.4477 -15.6575 -39.6734 -15.1246 -15.6575 
40.3705 -15.1246 -15.6575 42.0468 -9.99161 -15.6575 42.0468 -15.1246 -12.7281 
-41.9412 -7.80147 -15.6575 42.6125 -7.80147 -15.6575 -42.6439 -0.478349 -15.6575 
43.1649 -0.478349 -15.6575 -42.1878 6.84477 -15.6575 42.595 6.84477 -15.6575 
42.0468 8.99881 -15.6575 -40.9104 14.1679 -15.6575 -38.5075 20.4368 -15.6575 
40.2777 14.1679 -15.6575 42.0468 14.1679 -13.3681 -37.9862 21.491 -15.6575 
-38.5075 21.491 -14.9765 36.1428 21.491 -15.6575 34.7237 23.2165 -15.6575 
-32.3509 28.8141 -15.6575 -31.1844 29.7878 -15.6575 -23.8613 34.1008 -15.6575 
20.0774 34.0398 -15.6575 28.9753 28.8141 -15.6575 27.4005 30.0166 -15.6575 
34.7237 28.8141 -8.60649 -17.4397 36.1372 -15.6575 -23.8613 36.1372 -11.7222 
-16.5382 36.3741 -15.6575 -9.21504 37.3877 -15.6575 -1.89192 37.7002 -15.6575 
5.43119 37.5788 -15.6575 14.7599 36.1372 -15.6575 12.7543 36.7707 -15.6575 
20.0774 36.1372 -12.9402 -23.8613 -37.6669 -8.33433 -16.5382 -41.4788 -8.33433 
-9.21504 -43.3186 -8.33433 -1.89192 -43.9379 -8.33433 -1.89192 -44.417 -1.15952 
5.43119 -43.3589 -8.33433 12.7543 -41.6671 -8.33433 20.0774 -38.5574 -8.33433 
-24.679 -37.0939 -8.33433 -31.1844 -31.7 -8.33433 22.7892 -37.0939 -8.33433 
27.4005 -34.4002 -8.33433 -33.1511 -29.7708 -8.33433 -38.5075 -23.1211 -8.33433 
33.5531 -29.7708 -8.33433 34.7237 -28.6484 -8.33433 -38.9728 -22.4477 -8.33433 
39.7785 -22.4477 -8.33433 42.0468 -18.5974 -8.33433 -42.7551 -15.1246 -8.33433 
43.832 -15.1246 -8.33433 -44.8531 -7.80147 -8.33433 45.8668 -7.80147 -8.33433 
-45.7477 -0.478349 -8.33433 46.6789 -0.478349 -8.33433 -45.5446 6.84477 -8.33433 
46.3547 6.84477 -8.33433 -44.4847 14.1679 -8.33433 44.5016 14.1679 -8.33433 
42.0468 19.0486 -8.33433 -41.9767 21.491 -8.33433 -38.5075 27.1297 -8.33433 
40.6484 21.491 -8.33433 -37.1485 28.8141 -8.33433 -31.1844 33.6363 -8.33433 
27.4005 34.8375 -8.33433 34.8606 28.8141 -8.33433 34.7237 28.9511 -8.33433 
-26.5549 36.1372 -8.33433 -23.8613 37.3442 -8.33433 -16.5382 39.1814 -8.33433 
-9.21504 39.8904 -8.33433 -1.89192 40.3642 -8.33433 5.43119 40.6913 -8.33433 
12.7543 40.3244 -8.33433 25.1478 36.1372 -8.33433 20.0774 38.5894 -8.33433 
-1.89192 -44.4266 -1.01122 -23.8613 -38.1156 -1.01122 -16.5382 -41.9251 -1.01122 
-2.03439 -44.417 -1.01122 -9.21504 -43.9215 -1.01122 -1.79468 -44.417 -1.01122 
-1.89192 -44.417 -0.966634 5.43119 -43.692 -1.01122 12.7543 -41.8877 -1.01122 
20.0774 -38.7134 -1.01122 -25.3149 -37.0939 -1.01122 -31.1844 -32.2633 -1.01122 
-23.8613 -37.0939 3.11416 23.0141 -37.0939 -1.01122 20.0774 -37.0939 4.06472 
27.4005 -34.3765 -1.01122 -33.6692 -29.7708 -1.01122 -38.5075 -23.6263 -1.01122 
33.2976 -29.7708 -1.01122 34.7237 -28.4069 -1.01122 -39.3075 -22.4477 -1.01122 
-38.5075 -22.4477 1.97838 39.5365 -22.4477 -1.01122 42.0468 -18.3207 -1.01122 
-42.8618 -15.1246 -1.01122 43.749 -15.1246 -1.01122 42.0468 -15.1246 4.15568 
-44.8389 -7.80147 -1.01122 45.9526 -7.80147 -1.01122 -45.7566 -0.478349 -1.01122 
46.8486 -0.478349 -1.01122 -45.5885 6.84477 -1.01122 46.609 6.84477 -1.01122 
-44.6459 14.1679 -1.01122 44.709 14.1679 -1.01122 42.0468 19.4251 -1.01122 
-42.4808 21.491 -1.01122 -38.5075 27.6883 -1.01122 40.8365 21.491 -1.01122 
-37.5984 28.8141 -1.01122 -31.1844 34.0121 -1.01122 27.4005 35.9117 -1.01122 
35.3733 28.8141 -1.01122 34.7237 29.5033 -1.01122 34.7237 28.8141 1.08005 
-27.2701 36.1372 -1.01122 -23.8613 37.697 -1.01122 -16.5382 39.2874 -1.01122 
-9.21504 39.8729 -1.01122 -1.89192 40.3738 -1.01122 5.43119 40.9747 -1.01122 
12.7543 41.0609 -1.01122 27.0199 36.1372 -1.01122 20.0774 39.4348 -1.01122 
-16.5382 -40.1808 6.3119 -9.21504 -42.2741 6.3119 -1.89192 -42.7542 6.3119 
5.43119 -41.8658 6.3119 12.7543 -39.7563 6.3119 -31.1844 -30.0013 6.3119 
-22.345 -37.0939 6.3119 -23.8613 -36.1795 6.3119 -16.5382 -37.0939 12.375 
18.4722 -37.0939 6.3119 12.7543 -37.0939 10.7319 20.0774 -36.2789 6.3119 
27.4005 -31.4423 6.3119 -31.4128 -29.7708 6.3119 -31.1844 -29.7708 6.68426 
29.431 -29.7708 6.3119 27.4005 -29.7708 8.71068 34.7237 -24.5703 6.3119 
-37.2395 -22.4477 6.3119 -38.5075 -20.0751 6.3119 36.4852 -22.4477 6.3119 
34.7237 -22.4477 8.96134 -40.8607 -15.1246 6.3119 -38.5075 -15.1246 10.4761 
41.2254 -15.1246 6.3119 42.0468 -13.0516 6.3119 -42.7094 -7.80147 6.3119 
-38.5075 -7.80147 13.418 43.8862 -7.80147 6.3119 42.0468 -7.80147 10.0441 
-43.6072 -0.478349 6.3119 45.0005 -0.478349 6.3119 42.0468 -0.478349 12.3569 
-43.3026 6.84477 6.3119 -38.5075 6.84477 13.5306 44.4434 6.84477 6.3119 
42.0468 6.84477 11.0311 -42.2361 14.1679 6.3119 -38.5075 14.1679 11.6543 
42.2749 14.1679 6.3119 42.0468 14.6153 6.3119 42.0468 14.1679 6.73431 
-39.6916 21.491 6.3119 -38.5075 23.4862 6.3119 -38.5075 21.491 7.99812 
38.3008 21.491 6.3119 34.7237 26.5139 6.3119 34.7237 21.491 12.2214 
-34.5353 28.8141 6.3119 -31.1844 31.6949 6.3119 -31.1844 28.8141 10.2046 
32.8755 28.8141 6.3119 27.4005 34.4652 6.3119 -23.8659 36.1372 6.3119 
-23.8613 36.1395 6.3119 -23.8613 36.1372 6.31645 -16.5382 38.0429 6.3119 
-16.5382 36.1372 10.5659 -9.21504 38.7263 6.3119 -9.21504 36.1372 12.5993 
-1.89192 39.0527 6.3119 -1.89192 36.1372 12.8864 5.43119 39.6079 6.3119 
5.43119 36.1372 13.3611 12.7543 39.7999 6.3119 12.7543 36.1372 13.4917 
24.7118 36.1372 6.3119 20.0774 38.3165 6.3119 20.0774 36.1372 10.7456 
-9.21504 -38.5666 13.635 -1.89192 -38.8576 13.635 5.43119 -37.5737 13.635 
-23.8613 -31.4714 13.635 -14.2636 -37.0939 13.635 -16.5382 -36.3016 13.635 
-9.21504 -37.0939 15.3503 -1.89192 -37.0939 15.6017 6.90342 -37.0939 13.635 
5.43119 -37.0939 14.1496 12.7543 -34.7823 13.635 20.0774 -31.0149 13.635 
-25.8249 -29.7708 13.635 -31.1844 -23.8734 13.635 -23.8613 -29.7708 15.1922 
-16.5382 -29.7708 19.2103 -9.21504 -29.7708 20.933 -1.89192 -29.7708 20.7841 
5.43119 -29.7708 19.4879 12.7543 -29.7708 17.5244 21.9279 -29.7708 13.635 
20.0774 -29.7708 14.751 27.4005 -25.6408 13.635 -32.2523 -22.4477 13.635 
-31.1844 -22.4477 14.6352 -23.8613 -22.4477 19.3621 20.0774 -22.4477 19.4738 
30.756 -22.4477 13.635 27.4005 -22.4477 16.2039 34.7237 -17.6509 13.635 
-36.1264 -15.1246 13.635 -31.1844 -15.1246 17.6666 27.4005 -15.1246 20.0828 
36.4347 -15.1246 13.635 34.7237 -15.1246 15.2953 -38.3332 -7.80147 13.635 
-38.5075 -5.99447 13.635 -31.1844 -7.80147 19.3731 39.9164 -7.80147 13.635 
34.7237 -7.80147 18.3792 -38.9659 -0.478349 13.635 -38.5075 5.74973 13.635 
[...]
POINT_DATA 498
SCALARS ImageScalars float
LOOKUP_TABLE default
0 0 0 0 0 0 0 0 0 
0 0 0 0 0 0 0 0 0 
0 0 0 0 0 0 0 0 0 
0 0 0 0 0 0 0 0 0 
0 0 0 0 0 0 0 0 0 
0 0 0 0 0 0 0 0 0 
0 0 0 0 0 0 0 0 0 
0 0 0 0 0 0 0 0 0 
0 0 0 0 0 0 0 0 0 
0 0 0 0 0 0 0 0 0 
0 0 0 0 0 0 0 0 0 
0 0 0 0 0 0 0 0 0 
0 0 0 0 0 0 0 0 0 
0 0 0 0 0 0 0 0 0 
0 0 0 0 0 0 0 0 0 
0 0 0 0 0 0 0 0 0 
0 0 0 0 0 0 0 0 0 
0 0 0 0 0 0 0 0 0 
0 0 0 0 0 0 0 0 0 
0 0 0 0 0 0 0 0 0 
0 0 0 0 0 0 0 0 0 
0 0 0 0 0 0 0 0 0 
0 0 0 0 0 0 0 0 0 
0 0 0 0 0 0 0 0 0 
0 0 0 0 0 0 0 0 0 
0 0 0 0 0 0 0 0 0 
0 0 0 0 0 0 0 0 0 
0 0 0 0 0 0 0 0 0 
0 0 0 0 0 0 0 0 0 
0 0 0 0 0 0 0 0 0 
0 0 0 0 0 0 0 0 0 
0 0 0 0 0 0 0 0 0 
0 0 0 0 0 0 0 0 0 
0 0 0 0 0 0 0 0 0 
0 0 0 0 0 0 0 0 0 
0 0 0 0 0 0 0 0 0 
0 0 0 0 0 0 0 0 0 
0 0 0 0 0 0 0 0 0 
0 0 0 0 0 0 0 0 0 
0 0 0 0 0 0 0 0 0 
0 0 0 0 0 0 0 0 0 
0 0 0 0 0 0 0 0 0 
0 0 0 0 0 0 0 0 0 
0 0 0 0 0 0 0 0 0 
0 0 0 0 0 0 0 0 0 
0 0 0 0 0 0 0 0 0 
0 0 0 0 0 0 0 0 0 
0 0 0 0 0 0 0 0 0 
0 0 0 0 0 0 0 0 0 
0 0 0 0 0 0 0 0 0 
0 0 0 0 0 0 0 0 0 
0 0 0 0 0 0 0 0 0 
0 0 0 0 0 0 0 0 0 
0 0 0 0 0 0 0 0 0 
0 0 0 0 0 0 0 0 0 
0 0 0 
NORMALS Normals float
0.034387 -0.00101221 0.999408 0.0326431 -0.084778 0.995865 0.303017 0.659956 0.687488 
0.143691 0.58784 0.796114 0.0113719 0.57805 0.815922 -0.102597 0.605483 0.789218 
-0.255194 0.664481 0.702383 0.363985 0.505329 0.782405 0.174508 0.358214 0.917186 
0.0709728 0.240737 0.967992 0.00314176 0.212441 0.977169 -0.0242141 0.239236 0.970659 
-0.137335 0.322975 0.93639 -0.262338 0.476885 0.838904 -0.412714 0.624763 0.662826 
0.46566 0.420947 0.778437 0.177218 0.257566 0.94987 0.0319784 0.16513 0.985753 
0.012645 0.0586217 0.9982 0.0261259 0.0488608 0.998464 0.000414387 0.0562187 0.998418 
-0.0401397 0.0951437 0.994654 -0.104254 0.219488 0.970029 -0.28044 0.346683 0.895078 
-0.579019 0.469058 0.666874 0.678668 0.337242 0.65244 0.322062 0.223155 0.920043 
0.0931695 0.0817526 0.992288 -0.0339734 0.0316553 0.998921 -0.0476293 0.0105269 0.99881 
-0.00295723 0.0121749 0.999922 0.03116 -0.0332938 0.99896 0.0382779 -0.00625184 0.999248 
-0.0152262 0.0657183 0.997722 -0.163747 0.138275 0.976763 -0.438612 0.245588 0.864469 
0.58512 0.149666 0.797016 0.194274 0.0520095 0.979568 -0.0142812 -0.0041968 0.999889 
-0.0427516 -0.0615682 0.997187 -0.00801613 -0.0226759 0.999711 0.0334557 0.000456283 0.99944 
-0.0179059 0.0807354 0.996575 -0.0180277 0.0124014 0.999761 0.0582827 -0.0538021 0.996849 
0.0452231 -0.0297286 0.998534 -0.101323 0.0236699 0.994572 -0.354962 0.0767146 0.931728 
-0.749064 0.139038 0.647743 0.539369 0.00820973 0.84203 0.153638 -0.00756871 0.988098 
-0.0227786 -0.0142147 0.999639 -0.0532655 -0.0328294 0.998041 0.0350573 -0.00140609 0.999384 
0.0954683 -0.0359712 0.994782 0.032021 -0.000373125 0.999487 0.0347798 -0.00270986 0.999391 
-0.104335 0.0372247 0.993845 -0.00291796 -0.0137188 0.999902 0.0615561 -0.028412 0.997699 
-0.0678089 -0.0428056 0.99678 -0.320024 -0.0319648 0.94687 -0.707664 -0.00487927 0.706533 
0.558888 -0.0966048 0.823597 0.16685 -0.0128218 0.985899 -0.0367726 0.0288536 0.998907 
-0.0643956 0.0843154 0.994356 0.0206304 0.0215137 0.999556 0.0556378 -0.0965903 0.993768 
-0.0303336 -0.00995536 0.99949 -0.00759557 0.0522432 0.998605 0.0156016 -0.00145525 0.999877 
-0.106831 -0.0756602 0.991394 -0.329683 -0.0846961 0.940285 -0.706978 -0.137433 0.693754 
0.610414 -0.211621 0.76329 0.293401 -0.145865 0.944796 0.0752658 -0.0188545 0.996985 
-0.0369557 0.0488741 0.998121 -0.0615146 0.0958043 0.993498 -0.0852131 0.078092 0.993298 
0.00179781 0.00446079 0.999988 0.0435071 -0.00173247 0.999052 0.00426258 0.0277625 0.999605 
-0.0661794 -0.0353672 0.997181 -0.140853 -0.118055 0.982967 -0.405929 -0.226717 0.885337 
0.38768 -0.283451 0.877132 0.0669592 -0.103629 0.99236 0.19245 -0.178293 0.964974 
-0.00375962 -0.0684669 0.997646 0.0398512 -0.125297 0.991319 -0.0676248 -0.0402785 0.996897 
-0.0248499 -0.0204199 0.999483 -0.00567293 -0.0577008 0.998318 -0.0407491 -0.0716637 0.996596 
-0.129892 -0.162981 0.978041 -0.292124 -0.27315 0.916544 -0.538074 -0.417359 0.732317 
0.491311 -0.575581 0.653698 0.278801 -0.461671 0.842099 0.0886485 -0.376631 0.922112 
-0.0110269 -0.279671 0.960032 -0.0138856 -0.276083 0.961033 -0.0165763 -0.287271 0.957706 
-0.109532 -0.317948 0.94176 -0.256117 -0.440482 0.860453 -0.415522 -0.555236 0.720455 
0.180471 -0.792839 0.582096 0.0706599 -0.758845 0.647426 -0.00546018 -0.717615 0.696419 
-0.0539341 -0.702389 0.709747 -0.179577 -0.715783 0.674838 0.303457 0.662563 0.68478 
0.140826 0.717804 0.681855 0.00815806 0.728874 0.684599 -0.107927 0.733543 0.671019 
-0.262043 0.7045 0.659555 0.305946 0.661853 0.684359 0.427937 0.615742 0.661613 
0.523344 0.802713 0.285942 -0.287709 0.696527 0.657323 -0.337963 0.664858 0.666142 
-0.416609 0.826587 0.378405 -0.424055 0.645703 0.635016 0.497782 0.583912 0.641295 
0.546682 0.560298 0.622258 0.630198 0.6672 0.397107 -0.439033 0.638043 0.632576 
-0.600981 0.519825 0.607127 0.623009 0.487848 0.611444 0.711133 0.393846 0.582388 
0.810576 0.532196 0.244405 -0.630858 0.486202 0.60467 0.737244 0.346018 0.580295 
-0.721981 0.317163 0.61494 -0.767623 0.195672 0.610301 -0.841783 0.349078 0.411759 
0.789852 0.173343 0.588291 -0.773022 0.143458 0.617945 0.793047 0.0168859 0.608927 
-0.758164 0.000412921 0.652064 0.777911 -0.0982697 0.620643 -0.73048 -0.138555 0.668731 
-0.722508 -0.181016 0.667245 0.736659 -0.216721 0.640598 0.685605 -0.353314 0.636486 
-0.674879 -0.283941 0.681114 -0.795581 -0.31489 0.517586 0.673086 -0.372748 0.638759 
0.707785 -0.385266 0.592123 -0.594875 -0.439739 0.672869 -0.570419 -0.476609 0.668929 
0.532823 -0.590095 0.606537 0.50285 -0.618552 0.603768 0.316015 -0.742737 0.590318 
-0.297969 -0.669149 0.680775 -0.470344 -0.586545 0.659349 -0.437679 -0.603798 0.666232 
-0.683088 -0.693544 0.228883 0.197739 -0.800268 0.566101 0.332384 -0.875842 0.349887 
0.181235 -0.803456 0.567109 0.0821145 -0.828737 0.553581 0.0123295 -0.800626 0.599037 
-0.0542036 -0.77443 0.630333 -0.217718 -0.730117 0.64771 -0.181587 -0.74447 0.642488 
-0.325575 -0.794093 0.513243 0.528995 0.818691 0.223405 0.351801 0.905208 0.238401 
0.155092 0.954361 0.255226 0.00183084 0.971535 0.236889 -0.0152591 0.99751 -0.0688484 
-0.146606 0.964894 0.217915 -0.304886 0.929364 0.208154 -0.434956 0.876278 0.207244 
0.544953 0.808392 0.222549 0.665615 0.714663 0.214974 -0.474637 0.857843 0.197041 
-0.543321 0.819336 0.183006 0.69894 0.683368 0.21093 0.816679 0.543933 0.192802 
-0.665904 0.729411 0.156623 -0.695734 0.701688 0.153583 0.825385 0.530863 0.192157 
-0.813061 0.561016 0.155537 -0.87566 0.456289 0.158179 0.916011 0.359814 0.177364 
-0.913926 0.36882 0.16944 0.968558 0.19291 0.157102 -0.964914 0.182653 0.188624 
0.985916 0.0475598 0.160339 -0.97807 0.0322815 0.20576 0.981523 -0.0832292 0.172295 
-0.96494 -0.140904 0.221441 0.954998 -0.221224 0.197583 -0.911197 -0.349357 0.218332 
-0.858314 -0.474886 0.194371 0.879697 -0.41908 0.224735 0.770274 -0.602217 0.209791 
-0.821999 -0.536521 0.190952 0.714526 -0.668247 0.207121 0.532803 -0.823061 0.196702 
-0.530145 -0.807954 0.257208 -0.68673 -0.693865 0.216687 -0.683878 -0.696499 0.217256 
0.401989 -0.896415 0.186668 0.331507 -0.92486 0.18638 0.172954 -0.971208 0.163834 
0.0798906 -0.986615 0.142153 0.0542899 -0.987146 0.15032 -0.00126421 -0.981476 0.191581 
-0.135503 -0.96025 0.244049 -0.472442 -0.840813 0.26426 -0.335489 -0.900608 0.276319 
-0.0155888 0.997072 -0.0748631 0.535525 0.841044 -0.0765333 0.362301 0.929025 -0.075169 
-0.0123072 0.997129 -0.0747124 0.158999 0.985097 -0.0656057 -0.0175044 0.997024 -0.0750838 
-0.0156371 0.99696 -0.0763286 -0.164531 0.982085 -0.0918571 -0.319178 0.941003 -0.11242 
-0.44839 0.885141 -0.124385 0.563767 0.82223 -0.0781321 0.682198 0.726893 -0.0789495 
0.536944 0.816342 -0.212783 -0.494123 0.859506 -0.130732 -0.449128 0.83822 -0.309309 
-0.564848 0.812189 -0.145928 0.726559 0.682109 -0.0827079 0.833712 0.544512 -0.0918188 
-0.667852 0.725387 -0.166696 -0.702163 0.691853 -0.168247 0.849452 0.519349 -0.0933097 
0.835208 0.514046 -0.195409 -0.811648 0.560502 -0.164513 -0.870194 0.467357 -0.156011 
0.93365 0.339693 -0.113608 -0.907035 0.393691 -0.149315 -0.857748 0.403311 -0.318761 
0.973223 0.18732 -0.133223 -0.971615 0.202169 -0.122848 0.989507 0.0505465 -0.135357 
-0.993431 0.0432183 -0.10596 0.98755 -0.0728218 -0.139435 -0.98265 -0.141957 -0.119363 
0.971735 -0.193647 -0.135025 -0.924731 -0.358425 -0.128076 -0.863119 -0.488288 -0.128844 
0.903538 -0.41035 -0.123422 0.776142 -0.619729 -0.11636 -0.835791 -0.534616 -0.125058 
0.73802 -0.665257 -0.11296 0.533741 -0.840323 -0.0947557 -0.557617 -0.830037 -0.0100506 
-0.734421 -0.672173 -0.0938567 -0.722069 -0.686025 -0.0893658 -0.731175 -0.662147 -0.164148 
0.413179 -0.907009 -0.0813552 0.3175 -0.945478 -0.0725577 0.152463 -0.985668 -0.0722114 
0.0728296 -0.994434 -0.0761356 0.0748407 -0.993519 -0.0855556 0.0466284 -0.996484 -0.0696038 
-0.100854 -0.994352 -0.0330461 -0.544748 -0.838549 -0.00922616 -0.32571 -0.945349 -0.0151162 
0.355602 0.879865 -0.315253 0.154032 0.93439 -0.321232 -0.025186 0.942468 -0.333345 
-0.182719 0.916014 -0.357117 -0.326328 0.864949 -0.381279 0.66862 0.666546 -0.329642 
0.495981 0.807421 -0.319492 0.533796 0.781652 -0.322618 0.347753 0.776415 -0.525593 
-0.420199 0.819352 -0.389994 -0.325801 0.774585 -0.542099 -0.446191 0.803857 -0.393354 
-0.560167 0.721553 -0.406908 0.672477 0.662435 -0.330083 0.668303 0.660792 -0.34165 
-0.591255 0.69296 -0.412581 -0.549791 0.683821 -0.479706 -0.687872 0.59766 -0.411868 
0.793251 0.496549 -0.35241 0.825284 0.437376 -0.357224 -0.722047 0.55971 -0.406661 
-0.677998 0.557841 -0.478677 0.873897 0.31613 -0.369278 0.798834 0.307602 -0.516958 
-0.825771 0.407274 -0.390168 -0.854957 0.3528 -0.380237 0.908274 0.167267 -0.383484 
0.762318 0.135668 -0.632823 -0.90751 0.222952 -0.355974 -0.856426 0.233468 -0.460463 
0.918169 0.0376666 -0.394394 -0.937782 0.0344426 -0.345511 -0.840276 0.0290104 -0.541382 
0.906655 -0.0834766 -0.413531 0.728418 -0.108524 -0.676484 -0.914181 -0.16296 -0.371102 
-0.840454 -0.178382 -0.51168 0.87582 -0.206054 -0.436441 0.739997 -0.219843 -0.635668 
-0.84765 -0.35642 -0.393007 -0.844504 -0.364534 -0.392336 -0.84242 -0.356594 -0.403943 
0.801579 -0.394043 -0.449669 0.772451 -0.45432 -0.443748 0.768039 -0.39147 -0.50682 
-0.787036 -0.492533 -0.371464 -0.736253 -0.577082 -0.353422 -0.709198 -0.455504 -0.538103 
0.648435 -0.636006 -0.418364 0.560061 -0.729222 -0.393151 0.566106 -0.609562 -0.55494 
-0.708659 -0.618148 -0.340139 -0.584624 -0.760046 -0.283803 0.3468 -0.87458 -0.338881 
0.346682 -0.874635 -0.338858 0.346707 -0.874557 -0.339034 0.168408 -0.943117 -0.28665 
0.192833 -0.871891 -0.450134 0.0647215 -0.962631 -0.262969 0.067378 -0.862852 -0.500945 
0.057773 -0.956633 -0.285511 0.0235655 -0.847229 -0.530705 0.0489592 -0.951328 -0.304268 
0.0184905 -0.814327 -0.580112 -0.0790165 -0.949845 -0.302573 -0.0799064 -0.799182 -0.595755 
-0.474922 -0.833812 -0.281435 -0.310402 -0.907206 -0.283949 -0.296224 -0.829985 -0.472626 
0.135511 0.797151 -0.588376 -0.0544925 0.782089 -0.62078 -0.202831 0.739617 -0.641737 
0.517757 0.61677 -0.592894 0.278197 0.765752 -0.579854 0.34313 0.738913 -0.579888 
0.130536 0.744563 -0.654666 -0.06259 0.713655 -0.697695 -0.225731 0.730234 -0.644828 
-0.203536 0.72248 -0.660755 -0.306543 0.675847 -0.67027 -0.396869 0.641236 -0.656743 
0.549808 0.584687 -0.596533 0.624732 0.464909 -0.627351 0.504612 0.560144 -0.656967 
0.303904 0.489586 -0.817281 0.0857973 0.426319 -0.900495 -0.0872584 0.405785 -0.909794 
-0.186521 0.423592 -0.886442 -0.262502 0.519887 -0.812902 -0.423689 0.626018 -0.654667 
-0.383005 0.60719 -0.696152 -0.502685 0.58201 -0.639196 0.639665 0.435532 -0.633357 
0.610975 0.422615 -0.669408 0.414327 0.33229 -0.8473 -0.269056 0.41165 -0.87072 
-0.560508 0.537115 -0.630348 -0.465145 0.512838 -0.721552 -0.636285 0.461884 -0.617903 
0.699674 0.28581 -0.654805 0.543453 0.252594 -0.800534 -0.366459 0.311405 -0.876775 
-0.667145 0.418871 -0.616008 -0.6148 0.408162 -0.674851 0.754125 0.13456 -0.642797 
0.755248 0.102234 -0.647416 0.504212 0.131045 -0.853579 -0.766135 0.23788 -0.597035 
-0.545937 0.212613 -0.8104 0.748584 0.00505673 -0.663021 0.729086 -0.0919432 -0.678219 
0.735345 0.00307031 -0.677686 0.516416 -0.00902588 -0.856291 -0.801178 0.0261559 -0.597854 
-0.519637 0.0161116 -0.854235 0.724174 -0.109056 -0.68094 0.507906 -0.139927 -0.849972 
-0.768265 -0.18182 -0.613768 -0.551591 -0.154378 -0.819704 0.655433 -0.217231 -0.723339 
0.502557 -0.219535 -0.836206 -0.713681 -0.335996 -0.614627 -0.690195 -0.414251 -0.593318 
-0.631751 -0.301971 -0.713935 0.587256 -0.355393 -0.727204 0.543493 -0.438834 -0.71557 
0.52322 -0.344099 -0.779639 0.375354 -0.308873 -0.873903 -0.677726 -0.439761 -0.58932 
-0.49691 -0.371624 -0.784204 0.473437 -0.556941 -0.682403 0.400692 -0.629445 -0.665766 
0.402595 -0.532468 -0.744577 0.218395 -0.769573 -0.600051 0.242117 -0.517956 -0.820427 
0.0678707 -0.832174 -0.550345 0.0705046 -0.531358 -0.844209 0.018786 -0.823976 -0.566314 
-0.0168569 -0.550609 -0.834593 0.0169604 -0.804644 -0.593515 0.00586244 -0.541008 -0.840997 
-0.0797931 -0.793943 -0.602733 -0.0690739 -0.531162 -0.84445 -0.291295 -0.736686 -0.610279 
-0.287524 -0.541211 -0.790203 -0.58972 -0.556618 -0.585155 -0.575335 -0.572897 -0.583763 
-0.572979 -0.550053 -0.607566 0.263189 0.361913 -0.894288 0.0854273 0.424491 -0.901393 
-0.0879303 0.394348 -0.914745 -0.149283 0.342696 -0.92751 -0.14848 0.354808 -0.923074 
0.31336 0.297168 -0.901941 0.37654 0.230527 -0.89726 0.242876 0.276697 -0.929758 
0.0520504 0.281194 -0.958238 -0.0961709 0.281345 -0.954776 -0.123449 0.304134 -0.944597 
-0.15287 0.353895 -0.922707 -0.145571 0.350488 -0.925185 -0.229253 0.318294 -0.919854 
0.389121 0.207317 -0.897555 0.367592 0.204022 -0.907332 0.243119 0.210608 -0.946857 
0.083824 0.23435 -0.968532 -0.052109 0.292628 -0.954805 -0.112121 0.327289 -0.938249 
-0.149794 0.27808 -0.948806 -0.295373 0.281756 -0.91289 -0.211025 0.253319 -0.944086 
-0.334276 0.227558 -0.914591 0.437137 0.130619 -0.889859 0.374446 0.135753 -0.917258 
0.268125 0.169402 -0.948373 0.121397 0.166051 -0.978616 -0.00899466 0.16615 -0.986059 
-0.132336 0.198917 -0.97104 -0.219743 0.159162 -0.962487 -0.223074 0.12277 -0.96704 
-0.36038 0.161386 -0.918739 -0.308204 0.147431 -0.939827 0.481136 -0.00660515 -0.876621 
0.40371 0.00408556 -0.914878 0.269617 0.0294151 -0.962518 0.0810815 0.0289521 -0.996287 
-0.0144013 0.0270742 -0.99953 -0.118577 0.0536572 -0.991494 -0.239848 0.0666333 -0.968521 
-0.22778 0.0460054 -0.972625 -0.393933 0.0203005 -0.918915 -0.280029 0.0241658 -0.959687 
0.452244 -0.146403 -0.879796 0.404713 -0.151711 -0.901771 0.295819 -0.166023 -0.940706 
0.117144 -0.118741 -0.985991 0.0154086 -0.0667151 -0.997653 -0.0909368 -0.0554822 -0.99431 
-0.232857 -0.0131064 -0.972423 -0.262651 -0.00650005 -0.964869 -0.405006 -0.0998036 -0.908851 
-0.335966 -0.0732379 -0.939022 0.383523 -0.231006 -0.894173 0.376963 -0.237278 -0.89532 
0.377769 -0.232121 -0.896332 0.299718 -0.258343 -0.918383 0.177166 -0.263645 -0.948211 
0.0493943 -0.25466 -0.965768 -0.0646371 -0.246858 -0.966894 -0.179042 -0.172142 -0.968665 
-0.287532 -0.128217 -0.94915 -0.423518 -0.201075 -0.88329 -0.418474 -0.21999 -0.881184 
-0.406954 -0.192925 -0.892843 0.296384 -0.307488 -0.904216 0.259041 -0.357629 -0.897218 
0.266374 -0.312494 -0.911807 0.0820108 -0.476879 -0.875134 0.126334 -0.357158 -0.925461 
-0.0105045 -0.503926 -0.863683 0.0241269 -0.416106 -0.908996 0.00187993 -0.499079 -0.866555 
-0.0126591 -0.425063 -0.905075 -0.0734329 -0.477488 -0.875564 -0.0982842 -0.360939 -0.927396 
-0.354296 -0.333271 -0.87373 -0.278428 -0.387992 -0.878601 -0.279525 -0.316947 -0.906317 

