# vtk DataFile Version 4.2
vtk output
ASCII
DATASET POLYDATA
POINTS 526 float
-41.8422 -36.3942 -12.2394 -33.4774 -36.3942 -14.5175 -25.1126 -36.3942 -14.8829 
-16.7478 -36.3942 -15.1879 -8.38298 -36.3942 -14.8689 -0.018162 -36.3942 -13.0386 
-50.207 -28.0294 -13.3352 -41.8422 -28.0294 -16.2682 -33.4774 -28.0294 -16.8224 
-25.1126 -28.0294 -16.6159 -16.7478 -28.0294 -17.058 -8.38298 -28.0294 -16.2039 
-0.018162 -28.0294 -15.3784 8.34665 -28.0294 -13.0767 -58.5719 -19.6646 -13.3966 
-50.207 -19.6646 -16.0941 -41.8422 -19.6646 -16.8914 -33.4774 -19.6646 -17.0588 
-25.1126 -19.6646 -17.0559 -16.7478 -19.6646 -16.0698 -8.38298 -19.6646 -15.3789 
-0.018162 -19.6646 -15.4883 8.34665 -19.6646 -13.9578 16.7115 -19.6646 -14.0893 
25.0763 -19.6646 -14.3991 33.4411 -19.6646 -15.4494 41.8059 -19.6646 -13.9727 
50.1707 -19.6646 -14.7162 58.5355 -19.6646 -13.8828 66.9004 -19.6646 -12.9759 
-58.5719 -11.2998 -14.3752 -50.207 -11.2998 -16.3316 -41.8422 -11.2998 -17.0704 
-33.4774 -11.2998 -16.8782 -25.1126 -11.2998 -16.0258 -16.7478 -11.2998 -14.7598 
-8.38298 -11.2998 -14.5903 -0.018162 -11.2998 -15.7583 8.34665 -11.2998 -14.44 
16.7115 -11.2998 -14.7219 25.0763 -11.2998 -15.176 33.4411 -11.2998 -15.2836 
41.8059 -11.2998 -15.7617 50.1707 -11.2998 -15.5453 58.5355 -11.2998 -15.8373 
66.9004 -11.2998 -15.7541 -50.207 -2.93499 -15.7045 -41.8422 -2.93499 -16.7462 
-33.4774 -2.93499 -16.5067 -25.1126 -2.93499 -15.5979 -16.7478 -2.93499 -14.4725 
-8.38298 -2.93499 -18.3826 -0.018162 -2.93499 -12.7253 8.34665 -2.93499 -17.0739 
16.7115 -2.93499 -12.7437 25.0763 -2.93499 -13.8137 33.4411 -2.93499 -14.5972 
41.8059 -2.93499 -16.2816 50.1707 -2.93499 -16.6234 58.5355 -2.93499 -17.0365 
66.9004 -2.93499 -14.4746 75.2652 -2.93499 -14.7685 -50.207 5.42982 -15.2356 
-41.8422 5.42982 -16.2245 -33.4774 5.42982 -16.3291 -25.1126 5.42982 -15.4627 
-16.7478 5.42982 -13.5394 -0.018162 5.42982 -15.9746 8.34665 5.42982 -16.6228 
16.7115 5.42982 -13.997 25.0763 5.42982 -12.9186 33.4411 5.42982 -15.72 
41.8059 5.42982 -15.7532 50.1707 5.42982 -19.5964 58.5355 5.42982 -16.5256 
66.9004 5.42982 -13.5971 75.2652 5.42982 -13.7972 -50.207 13.7946 -13.7008 
-41.8422 13.7946 -15.727 -33.4774 13.7946 -16.2879 -25.1126 13.7946 -15.726 
-16.7478 13.7946 -14.5163 -8.38298 13.7946 -15.0207 -0.018162 13.7946 -14.8192 
8.34665 13.7946 -13.509 16.7115 13.7946 -12.6899 33.4411 13.7946 -12.2004 
41.8059 13.7946 -13.9123 50.1707 13.7946 -14.0766 58.5355 13.7946 -12.1206 
66.9004 13.7946 -14.2377 -41.8422 22.1595 -15.1103 -33.4774 22.1595 -16.1634 
-25.1126 22.1595 -15.6688 -16.7478 22.1595 -15.4435 -8.38298 22.1595 -15.4228 
-0.018162 22.1595 -13.0688 8.34665 22.1595 -12.8792 -41.8422 30.5243 -12.1207 
-33.4774 30.5243 -14.6223 -25.1126 30.5243 -15.0912 -16.7478 30.5243 -15.6007 
-8.38298 30.5243 -14.3236 -25.1126 38.8891 -12.5435 -16.7478 38.8891 -13.1745 
-41.8422 -36.633 -12.0755 -33.4774 -40.24 -12.0755 -25.1126 -40.9482 -12.0755 
-16.7478 -40.7613 -12.0755 -8.38298 -39.6314 -12.0755 -0.018162 -37.4294 -12.0755 
-42.5279 -36.3942 -12.0755 -50.207 -31.5221 -12.0755 -50.207 -36.3942 -8.93801 
2.0581 -36.3942 -12.0755 8.34665 -30.3826 -12.0755 8.34665 -36.3942 -4.683 
-53.9969 -28.0294 -12.0755 -58.5719 -24.2236 -12.0755 -58.5719 -28.0294 -9.88167 
10.4971 -28.0294 -12.0755 16.7115 -23.4138 -12.0755 16.7115 -28.0294 -5.41082 
25.0763 -23.7634 -12.0755 33.4411 -24.9458 -12.0755 33.4411 -28.0294 -4.06824 
41.8059 -23.6917 -12.0755 41.8059 -28.0294 -6.50044 50.1707 -23.6268 -12.0755 
50.1707 -28.0294 -5.51822 58.5355 -22.3645 -12.0755 66.9004 -20.1267 -12.0755 
-60.435 -19.6646 -12.0755 67.485 -19.6646 -12.0755 -61.4894 -11.2998 -12.0755 
-66.9367 -11.2998 -4.21176 -58.5719 -4.76692 -12.0755 74.2716 -11.2998 -12.0755 
75.2652 -8.95662 -12.0755 75.2652 -11.2998 -11.1272 -57.351 -2.93499 -12.0755 
-58.5719 -2.93499 -11.2769 -8.38298 4.96825 -12.0755 77.615 -2.93499 -12.0755 
83.63 -2.93499 -6.75348 -57.7252 5.42982 -12.0755 -58.5719 5.42982 -11.6174 
-9.82057 5.42982 -12.0755 -7.2335 5.42982 -12.0755 -8.38298 6.4841 -12.0755 
-8.38298 5.42982 -11.7374 25.0763 10.3778 -12.0755 76.8521 5.42982 -12.0755 
75.2652 7.58083 -12.0755 83.63 5.42982 -5.86705 -53.3661 13.7946 -12.0755 
-58.5719 13.7946 -8.37921 -50.207 20.5259 -12.0755 20.4338 13.7946 -12.0755 
16.7115 19.8699 -12.0755 32.0438 13.7946 -12.0755 25.0763 13.7946 -11.4317 
33.4411 14.1537 -12.0755 41.8059 16.8735 -12.0755 50.1707 17.0449 -12.0755 
58.5355 13.8825 -12.0755 69.0001 13.7946 -12.0755 66.9004 15.481 -12.0755 
75.2652 13.7946 -7.4 -49.4276 22.1595 -12.0755 -50.207 22.1595 -11.6596 
-0.018162 29.3718 -12.0755 15.1565 22.1595 -12.0755 8.34665 24.9865 -12.0755 
16.7115 22.1595 -11.7665 25.0763 22.1595 -5.83381 33.4411 22.1595 -6.86773 
50.1707 22.1595 -7.48728 58.5355 22.1595 -5.17927 -41.9635 30.5243 -12.0755 
-50.207 30.5243 -8.14419 -41.8422 30.6267 -12.0755 -33.4774 36.4347 -12.0755 
-0.574683 30.5243 -12.0755 -8.38298 37.4808 -12.0755 -0.018162 30.5243 -11.8973 
8.34665 30.5243 -10.202 16.7115 30.5243 -4.80883 -41.8422 38.8891 -7.59113 
-27.2953 38.8891 -12.0755 -33.4774 38.8891 -10.6342 -25.1126 39.7519 -12.0755 
-10.7849 38.8891 -12.0755 -16.7478 40.707 -12.0755 -8.38298 38.8891 -11.3778 
-0.018162 38.8891 -6.28955 -25.1126 47.2539 -6.33396 -16.7478 47.2539 -6.0104 
-50.207 -39.0563 -3.71068 -41.8422 -43.3847 -3.71068 -33.4774 -44.511 -3.71068 
-25.1126 -44.6956 -3.71068 -16.7478 -44.6124 -3.71068 -8.38298 -42.8684 -3.71068 
-0.018162 -40.945 -3.71068 8.34665 -36.7738 -3.71068 -54.4491 -36.3942 -3.71068 
-58.5719 -33.0527 -3.71068 8.79736 -36.3942 -3.71068 8.34665 -36.3942 -2.80681 
16.7115 -28.9585 -3.71068 33.4411 -28.1165 -3.71068 41.8059 -28.989 -3.71068 
50.1707 -28.7 -3.71068 -63.0591 -28.0294 -3.71068 21.5054 -28.0294 -3.71068 
16.7115 -28.0294 -2.31823 32.3242 -28.0294 -3.71068 25.0763 -27.5459 -3.71068 
33.4411 -28.0294 -3.44222 41.8059 -28.0294 -0.596851 53.1615 -28.0294 -3.71068 
50.1707 -28.0294 -1.51391 58.5355 -26.7667 -3.71068 66.9004 -24.2413 -3.71068 
-66.3842 -19.6646 -3.71068 -66.9367 -14.6222 -3.71068 74.9336 -19.6646 -3.71068 
66.9004 -19.6646 3.88041 75.2652 -19.3963 -3.71068 -67.2315 -11.2998 -3.71068 
-66.9367 -7.44788 -3.71068 -66.9367 -11.2998 0.100128 83.0177 -11.2998 -3.71068 
83.63 -10.1198 -3.71068 -66.5197 -2.93499 -3.71068 86.7356 -2.93499 -3.71068 
83.63 -2.93499 3.11556 -63.9475 5.42982 -3.71068 85.6931 5.42982 -3.71068 
83.63 8.8205 -3.71068 83.63 5.42982 1.33393 -61.6019 13.7946 -3.71068 
-58.5719 21.3106 -3.71068 41.8059 21.5925 -3.71068 66.9004 22.005 -3.71068 
79.5444 13.7946 -3.71068 75.2652 17.6248 -3.71068 -58.1684 22.1595 -3.71068 
25.0763 23.6852 -3.71068 39.5033 22.1595 -3.71068 33.4411 23.7988 -3.71068 
43.6338 22.1595 -3.71068 41.8059 22.1595 -0.59841 50.1707 24.3568 -3.71068 
65.881 22.1595 -3.71068 58.5355 22.9343 -3.71068 58.5355 22.1595 1.04646 
-53.8452 30.5243 -3.71068 -50.207 35.0788 -3.71068 8.34665 36.3934 -3.71068 
17.4725 30.5243 -3.71068 16.7115 31.3348 -3.71068 -46.2024 38.8891 -3.71068 
-41.8422 42.3868 -3.71068 -33.4774 46.4758 -3.71068 -8.38298 46.1144 -3.71068 
3.66165 38.8891 -3.71068 -0.018162 40.9687 -3.71068 -31.3029 47.2539 -3.71068 
-33.4774 47.2539 -0.828206 -25.1126 48.9256 -3.71068 -11.2128 47.2539 -3.71068 
-16.7478 48.8398 -3.71068 -8.38298 47.2539 2.77961 -50.207 -37.6675 4.65414 
-41.8422 -41.2267 4.65414 -33.4774 -42.9955 4.65414 -25.1126 -43.3085 4.65414 
-16.7478 -43.0228 4.65414 -8.38298 -40.5922 4.65414 -0.018162 -37.9522 4.65414 
-52.2764 -36.3942 4.65414 -58.5719 -31.2121 4.65414 -50.207 -36.3942 6.51039 
-41.8422 -36.3942 9.69396 -8.38298 -36.3942 11.1259 2.87979 -36.3942 4.65414 
-0.018162 -36.3942 6.80427 8.34665 -31.6794 4.65414 -61.5425 -28.0294 4.65414 
-58.5719 -28.0294 7.75115 -50.207 -28.0294 11.8844 11.4229 -28.0294 4.65414 
8.34665 -28.0294 7.62721 16.7115 -23.4966 4.65414 25.0763 -23.313 4.65414 
33.4411 -25.2901 4.65414 41.8059 -25.9192 4.65414 50.1707 -25.3324 4.65414 
58.5355 -23.7404 4.65414 -64.8619 -19.6646 4.65414 -58.5719 -19.6646 12.1244 
8.34665 -19.6646 10.6393 16.7115 -19.6646 8.08612 25.0763 -19.6646 8.36231 
33.4411 -19.6646 9.87271 41.8059 -19.6646 9.91617 50.1707 -19.6646 10.2181 
65.8954 -19.6646 4.65414 58.5355 -19.6646 8.96556 66.9004 -18.7624 4.65414 
75.2652 -15.3566 4.65414 -66.443 -11.2998 4.65414 8.34665 -11.2998 12.1816 
25.0763 -11.2998 12.0184 33.4411 -11.2998 12.4904 50.1707 -11.2998 12.2341 
66.9004 -11.2998 9.50296 80.028 -11.2998 4.65414 -65.531 -2.93499 4.65414 
-58.5719 -2.93499 11.1798 16.7115 -2.93499 12.2191 25.0763 -2.93499 11.3399 
33.4411 -2.93499 12.6009 41.8059 -2.93499 12.6696 58.5355 -2.93499 12.6025 
66.9004 -2.93499 12.7637 82.846 -2.93499 4.65414 75.2652 -2.93499 9.15049 
-62.8789 5.42982 4.65414 -58.5719 5.42982 11.4608 16.7115 5.42982 10.1655 
25.0763 5.42982 11.1865 33.4411 5.42982 11.4451 58.5355 5.42982 12.4693 
66.9004 5.42982 12.5407 82.1092 5.42982 4.65414 75.2652 5.42982 8.85896 
-61.5504 13.7946 4.65414 -58.5719 21.8845 4.65414 -58.5719 13.7946 10.1177 
25.0763 13.7946 9.57025 33.4411 13.7946 10.9047 41.8059 13.7946 10.9063 
50.1707 13.7946 10.0729 58.5355 21.2707 4.65414 58.5355 13.7946 11.4055 
66.9004 18.2354 4.65414 66.9004 13.7946 6.95751 76.7212 13.7946 4.65414 
75.2652 14.7772 4.65414 75.2652 13.7946 10.3129 -58.4645 22.1595 4.65414 
25.0763 23.499 4.65414 25.0763 22.1595 5.73533 33.4411 22.7857 4.65414 
33.4411 22.1595 5.38735 41.8059 23.0012 4.65414 41.8059 22.1595 6.10154 
53.502 22.1595 4.65414 50.1707 22.5799 4.65414 50.1707 22.1595 5.14351 
-55.0554 30.5243 4.65414 -50.207 37.0476 4.65414 -50.207 30.5243 11.7755 
8.34665 38.0471 4.65414 18.8252 30.5243 4.65414 16.7115 32.5465 4.65414 
16.7115 30.5243 8.24569 -48.4937 38.8891 4.65414 -41.8422 44.4172 4.65414 
6.68178 38.8891 4.65414 -0.018162 42.4294 4.65414 -0.018162 38.8891 10.38 
-36.1217 47.2539 4.65414 -33.4774 48.3979 4.65414 -33.4774 47.2539 7.08979 
-25.1126 50.3756 4.65414 -25.1126 47.2539 10.4938 -16.7478 50.0121 4.65414 
[...]
POINT_DATA 526
SCALARS ImageScalars float
LOOKUP_TABLE default
0 0 0 0 0 0 0 0 0 
0 0 0 0 0 0 0 0 0 
0 0 0 0 0 0 0 0 0 
0 0 0 0 0 0 0 0 0 
0 0 0 0 0 0 0 0 0 
0 0 0 0 0 0 0 0 0 
0 0 0 0 0 0 0 0 0 
0 0 0 0 0 0 0 0 0 
0 0 0 0 0 0 0 0 0 
0 0 0 0 0 0 0 0 0 
0 0 0 0 0 0 0 0 0 
0 0 0 0 0 0 0 0 0 
0 0 0 0 0 0 0 0 0 
0 0 0 0 0 0 0 0 0 
0 0 0 0 0 0 0 0 0 
0 0 0 0 0 0 0 0 0 
0 0 0 0 0 0 0 0 0 
0 0 0 0 0 0 0 0 0 
0 0 0 0 0 0 0 0 0 
0 0 0 0 0 0 0 0 0 
0 0 0 0 0 0 0 0 0 
0 0 0 0 0 0 0 0 0 
0 0 0 0 0 0 0 0 0 
0 0 0 0 0 0 0 0 0 
0 0 0 0 0 0 0 0 0 
0 0 0 0 0 0 0 0 0 
0 0 0 0 0 0 0 0 0 
0 0 0 0 0 0 0 0 0 
0 0 0 0 0 0 0 0 0 
0 0 0 0 0 0 0 0 0 
0 0 0 0 0 0 0 0 0 
0 0 0 0 0 0 0 0 0 
0 0 0 0 0 0 0 0 0 
0 0 0 0 0 0 0 0 0 
0 0 0 0 0 0 0 0 0 
0 0 0 0 0 0 0 0 0 
0 0 0 0 0 0 0 0 0 
0 0 0 0 0 0 0 0 0 
0 0 0 0 0 0 0 0 0 
0 0 0 0 0 0 0 0 0 
0 0 0 0 0 0 0 0 0 
0 0 0 0 0 0 0 0 0 
0 0 0 0 0 0 0 0 0 
0 0 0 0 0 0 0 0 0 
0 0 0 0 0 0 0 0 0 
0 0 0 0 0 0 0 0 0 
0 0 0 0 0 0 0 0 0 
0 0 0 0 0 0 0 0 0 
0 0 0 0 0 0 0 0 0 
0 0 0 0 0 0 0 0 0 
0 0 0 0 0 0 0 0 0 
0 0 0 0 0 0 0 0 0 
0 0 0 0 0 0 0 0 0 
0 0 0 0 0 0 0 0 0 
0 0 0 0 0 0 0 0 0 
0 0 0 0 0 0 0 0 0 
0 0 0 0 0 0 0 0 0 
0 0 0 0 0 0 0 0 0 
0 0 0 0 
NORMALS Normals float
0.239092 0.570321 0.785856 0.12938 0.427106 0.894897 0.0408775 0.385047 0.921991 
0.00167101 0.437078 0.899422 -0.116988 0.475579 0.871859 -0.31463 0.577686 0.753185 
0.367863 0.31018 0.876622 0.164237 0.210959 0.963599 0.0270523 0.155601 0.98745 
0.0136604 0.11972 0.992714 -0.0255024 0.0389678 0.998915 -0.0967241 0.0149504 0.995199 
-0.171564 0.115198 0.978415 -0.38452 0.270925 0.882465 0.482238 0.209481 0.850626 
0.251155 0.165961 0.953613 0.0521241 0.0549913 0.997125 0.0095488 0.00265005 0.999951 
-0.0588357 -0.0352877 0.997644 -0.0989471 -0.133874 0.986046 -0.035135 -0.0873825 0.995555 
-0.0838734 0.0218365 0.996237 -0.0840217 0.0739559 0.993716 0.0273065 0.290713 0.956421 
0.0791128 0.322408 0.943289 -0.0236191 0.282427 0.958998 -0.0394981 0.300025 0.953113 
-0.0157395 0.365584 0.930645 -0.0676396 0.431038 0.899795 -0.429674 0.714794 0.55177 
0.49141 -0.0918674 0.86607 0.164199 -0.0285978 0.986013 0.0390858 -0.0087299 0.999198 
-0.0619855 -0.0329251 0.997534 -0.125367 -0.0863261 0.988348 -0.0839871 -0.0959147 0.99184 
0.0631467 0.155427 0.985827 -0.0199064 -0.103625 0.994417 -0.060863 0.155576 0.985947 
0.0445209 -0.0170007 0.998864 0.0346462 -0.0359311 0.998754 0.0346758 -0.0492282 0.998185 
0.0157725 0.130765 0.991288 0.0022967 0.0987422 0.99511 0.0115592 0.221552 0.97508 
-0.141309 0.0016552 0.989964 0.270813 -0.0633084 0.960548 0.0552322 -0.0504552 0.997198 
-0.0680361 -0.0327317 0.997146 -0.120882 -0.0333622 0.992106 0.125644 -0.0737958 0.989327 
0.0328432 0.0262195 0.999117 -0.136836 -0.134387 0.981436 0.0522386 0.164767 0.984948 
-0.181594 -0.132167 0.974451 0.0822804 -0.144681 0.986051 0.146256 0.0215857 0.989011 
0.120377 0.00132945 0.992727 0.0432026 0.205981 0.977602 -0.126383 0.0323444 0.991454 
-0.137876 -0.15954 0.977516 -0.477867 0.098947 0.872842 0.286518 -0.114564 0.951201 
0.0563526 -0.0606154 0.996569 -0.0452673 -0.0130614 0.99889 -0.163332 0.00645708 0.98655 
-0.175524 0.00271154 0.984471 0.234313 0.143351 0.961534 -0.0365675 -0.258013 0.965449 
-0.281 -0.0388733 0.95892 0.137861 -0.137555 0.980853 0.185148 -0.141353 0.972491 
0.191363 -0.157875 0.968739 0.0228147 -0.0839146 0.996212 -0.305125 -0.236353 0.922516 
-0.164097 -0.0289555 0.986019 -0.434443 -0.358089 0.826457 0.36162 -0.189782 0.912806 
0.136435 -0.068983 0.988244 0.00155352 -0.00969246 0.999952 -0.109318 0.0126247 0.993927 
-0.0474346 0.113307 0.992427 0.0292394 0.136277 0.990239 -0.106901 -0.184336 0.977032 
-0.0916633 -0.186547 0.978161 -0.137767 -0.0803696 0.987199 0.153662 -0.345982 0.925572 
0.0988848 -0.381775 0.91895 -0.0864635 -0.502634 0.860165 -0.0286866 -0.458917 0.888016 
-0.264087 -0.478438 0.837469 0.230348 -0.184301 0.955496 0.0379274 -0.108264 0.993398 
-0.041263 -0.0358982 0.998503 -0.0151841 0.0672518 0.99762 -0.135841 -0.0455033 0.989685 
-0.154437 -0.127566 0.979733 -0.0680149 -0.168378 0.983373 0.322695 -0.382965 0.865567 
0.149983 -0.2782 0.948741 0.0640294 -0.16904 0.983527 -0.0434191 -0.131933 0.990307 
-0.21888 -0.215028 0.951764 0.131161 -0.384489 0.913764 -0.0538962 -0.432486 0.900028 
0.241824 0.578298 0.779161 0.150049 0.640797 0.752904 0.0227428 0.685122 0.728073 
-0.0630235 0.714243 0.697055 -0.162211 0.710281 0.684973 -0.322759 0.647436 0.690401 
0.252422 0.573169 0.77959 0.39058 0.418355 0.820016 0.469602 0.703033 0.534058 
-0.385809 0.612261 0.690136 -0.459064 0.389573 0.798432 -0.625683 0.777978 0.0571873 
0.427593 0.373078 0.823394 0.495142 0.346265 0.796828 0.567349 0.498167 0.655701 
-0.374071 0.404147 0.834707 -0.0871948 0.514227 0.85321 -0.414795 0.905296 0.0915625 
0.0593128 0.609986 0.790189 0.00682546 0.646469 0.762909 0.0831718 0.996479 -0.0105908 
-0.0497022 0.570365 0.819887 0.00958846 0.98173 0.19004 -0.0648418 0.593078 0.80253 
-0.135783 0.977644 0.160546 -0.173579 0.593234 0.786094 -0.453897 0.751403 0.478927 
0.553004 0.211444 0.805902 -0.466822 0.739532 0.484943 0.644305 -0.0875134 0.759745 
0.956137 0.00628669 0.292851 0.541814 -0.154451 0.826185 -0.511137 0.45427 0.729643 
-0.543365 0.409232 0.732997 -0.565448 0.509827 0.648341 0.503312 -0.156913 0.849739 
0.565147 -0.161548 0.809019 0.028558 -0.283926 0.958421 -0.567474 0.0499926 0.821872 
-0.846006 0.0408807 0.531604 0.544574 -0.0991251 0.832834 0.587987 -0.0997871 0.802691 
-0.0230507 -0.215904 0.976143 0.082077 -0.237355 0.967949 0.0244102 -0.198061 0.979886 
0.0249896 -0.240752 0.970265 0.0575437 -0.223016 0.973115 -0.509075 -0.306158 0.804431 
-0.453915 -0.446958 0.770837 -0.850733 -0.295645 0.434565 0.465444 -0.223096 0.856499 
0.744619 -0.313429 0.589326 0.47114 -0.231656 0.851095 -0.078499 -0.165757 0.983037 
-0.278805 -0.242826 0.929141 0.126637 -0.336271 0.933212 -0.0186159 -0.310888 0.950264 
0.149431 -0.357969 0.921699 0.0615052 -0.533289 0.843694 -0.0772551 -0.614308 0.785275 
-0.030296 -0.46031 0.887241 -0.347431 -0.568519 0.745707 -0.321414 -0.597509 0.734626 
-0.523757 -0.701563 0.483205 0.473329 -0.239232 0.847778 0.506816 -0.249678 0.825105 
-0.213158 -0.268542 0.939387 -0.277813 -0.284068 0.917674 -0.126496 -0.276741 0.952582 
-0.341421 -0.323238 0.882581 -0.210016 -0.841709 0.497413 -0.0741288 -0.888951 0.451963 
0.0541707 -0.912469 0.405545 -0.138122 -0.947309 0.289013 0.325448 -0.383803 0.864164 
0.596362 -0.491931 0.634316 0.323593 -0.38486 0.86439 0.200745 -0.453853 0.86817 
-0.222024 -0.289713 0.931006 -0.302328 -0.431508 0.84994 -0.224301 -0.299209 0.92745 
-0.277259 -0.533207 0.799261 -0.669976 -0.633432 0.387163 0.446735 -0.620022 0.644981 
0.156381 -0.422836 0.892611 0.238679 -0.546247 0.802899 0.133764 -0.418284 0.898413 
-0.236942 -0.469397 0.850603 -0.0627195 -0.49838 0.864687 -0.327496 -0.498503 0.802646 
-0.431034 -0.713748 0.552063 0.124936 -0.841162 0.526154 -0.138791 -0.848624 0.510466 
0.506606 0.850439 0.141785 0.298402 0.946427 0.123419 0.0723404 0.993794 0.0845035 
0.00621423 0.998596 0.0525972 -0.112313 0.991807 0.0608638 -0.20896 0.977816 0.0145452 
-0.315858 0.948804 0.0021726 -0.615058 0.78838 -0.0126586 0.591418 0.789661 0.16328 
0.69771 0.690544 0.190657 -0.619256 0.78507 -0.013658 -0.625218 0.777707 -0.0653805 
-0.44933 0.892123 -0.0471163 0.0839263 0.995891 -0.0340138 0.0275469 0.999528 0.0135878 
-0.125834 0.991405 0.035796 0.825826 0.522521 0.212092 -0.203829 0.976929 -0.0637513 
-0.430733 0.890836 -0.144501 0.0695512 0.996824 -0.0387779 -0.0279756 0.99732 -0.0676059 
0.0857613 0.995222 -0.0466664 0.0318193 0.983088 -0.18035 -0.174161 0.98397 0.0383481 
-0.129542 0.98497 -0.114247 -0.272687 0.960538 0.0548472 -0.36529 0.930533 0.0258942 
0.946669 0.216144 0.238954 0.961691 0.0881357 0.259581 -0.667246 0.732974 0.13241 
-0.426109 0.617925 -0.660757 -0.675404 0.723281 0.143856 0.96484 0.00585157 0.262772 
0.960243 -0.0888015 0.264666 0.99917 0.0163373 -0.0373041 -0.723578 0.68835 0.0510731 
-0.768991 0.635036 0.0733628 0.944954 -0.19502 0.262736 -0.966219 0.05436 0.251923 
-0.88317 0.0977171 -0.458762 0.931693 -0.272179 0.240557 -0.906799 -0.338125 0.251767 
-0.827077 -0.517295 0.219884 -0.917317 -0.297201 -0.264953 0.900259 -0.328205 0.286036 
0.866462 -0.400302 0.298331 0.0331169 -0.962131 0.270569 -0.264093 -0.943352 0.200853 
-0.661976 -0.718302 0.214077 -0.583645 -0.77013 0.257406 0.860591 -0.406767 0.306469 
-0.26607 -0.909671 0.318914 -0.0070575 -0.967894 0.251258 -0.133232 -0.970653 0.200204 
0.0431673 -0.967096 0.250722 0.0163844 -0.996622 0.0804732 0.0853532 -0.979849 0.180585 
-0.244102 -0.948873 0.200134 -0.137864 -0.975905 0.169126 -0.136593 -0.97298 -0.186149 
0.760684 -0.528997 0.376195 0.672519 -0.628981 0.390001 -0.421945 -0.809009 0.409226 
-0.682559 -0.653479 0.327228 -0.684468 -0.650749 0.328678 0.585419 -0.693522 0.419896 
0.492688 -0.754286 0.433948 0.336271 -0.829147 0.446585 -0.424447 -0.828434 0.365434 
-0.432292 -0.80698 0.402377 -0.458251 -0.791661 0.404078 0.280554 -0.860981 0.424266 
0.345051 -0.906443 0.243517 0.122088 -0.912556 0.390302 -0.331951 -0.866912 0.371849 
-0.144524 -0.91114 0.385923 -0.43478 -0.899003 -0.0525354 0.437834 0.806309 -0.397702 
0.287495 0.851829 -0.437875 0.0971949 0.924478 -0.368637 0.000997586 0.942694 -0.333656 
-0.146712 0.926077 -0.347644 -0.261469 0.881703 -0.392726 -0.363853 0.802129 -0.473498 
0.501829 0.762988 -0.407452 0.664272 0.597098 -0.449685 0.43911 0.750113 -0.494483 
0.268704 0.695265 -0.666637 -0.278947 0.712103 -0.644281 -0.453088 0.741939 -0.494205 
-0.382041 0.740415 -0.553019 -0.636252 0.543125 -0.547904 0.73236 0.517567 -0.442463 
0.627716 0.543868 -0.556939 0.412859 0.403331 -0.816622 -0.565095 0.559137 -0.606658 
-0.619517 0.413646 -0.667156 -0.222826 0.700753 -0.677713 0.0997349 0.764458 -0.636912 
0.124393 0.807539 -0.576547 0.006715 0.820008 -0.572312 -0.114833 0.773973 -0.622719 
-0.265095 0.791123 -0.551225 0.865245 0.230957 -0.444982 0.566901 0.280785 -0.774456 
-0.387878 0.231343 -0.892206 -0.106811 0.613175 -0.782692 0.102236 0.590912 -0.800231 
0.068885 0.47468 -0.877459 0.015231 0.530228 -0.847718 -0.0423691 0.490916 -0.870176 
-0.398028 0.597008 -0.696531 -0.292254 0.633301 -0.716601 -0.401264 0.574281 -0.713574 
-0.528073 0.802851 -0.27671 0.913123 0.0277993 -0.406735 -0.0901813 0.239506 -0.966698 
-0.0511406 0.121613 -0.991259 0.101739 0.145237 -0.984152 0.0115762 0.163935 -0.986403 
-0.0869186 0.486841 -0.869156 -0.660212 0.705291 -0.258236 0.895003 -0.175946 -0.409894 
0.647398 -0.128161 -0.751299 -0.398868 -0.345123 -0.849585 0.0578978 -0.0520232 -0.996966 
0.0805196 -0.0628658 -0.994769 0.0518695 0.0474357 -0.997527 -0.0429578 -0.0926068 -0.994776 
-0.298693 0.1547 -0.941727 -0.795218 0.0839684 -0.600481 -0.395399 -0.1732 -0.902032 
0.905681 -0.218755 -0.363164 0.706875 -0.0325888 -0.706587 -0.293755 0.148972 -0.944201 
0.0776557 -0.126516 -0.98892 0.200355 -0.102366 -0.974361 -0.0373342 -0.0476552 -0.998166 
-0.29137 -0.272829 -0.916879 -0.767057 -0.233661 -0.597516 -0.434385 -0.00988948 -0.900673 
0.931657 -0.238851 -0.273798 0.91469 -0.342512 -0.214539 0.795762 -0.200469 -0.571467 
-0.103664 -0.281954 -0.953811 0.0970245 -0.353598 -0.930352 -0.0531143 -0.406313 -0.912189 
0.000693014 -0.416466 -0.909151 -0.140313 -0.854859 -0.499528 -0.129607 -0.490521 -0.861738 
-0.337173 -0.660851 -0.670515 -0.1964 -0.613982 -0.764495 -0.470643 -0.851823 -0.229983 
-0.443914 -0.863854 -0.238112 -0.192216 -0.429784 -0.882235 0.913673 -0.346087 -0.213134 
-0.413403 -0.778197 -0.472766 -0.385347 -0.695682 -0.606246 -0.0105751 -0.861424 -0.507777 
0.0163875 -0.83197 -0.554578 -0.010204 -0.970528 -0.240773 -0.00973431 -0.936127 -0.351528 
-0.110902 -0.851664 -0.51222 -0.094406 -0.845119 -0.526176 -0.10291 -0.827571 -0.551848 
0.848002 -0.49988 -0.176104 0.745353 -0.659135 -0.0999485 0.699124 -0.386078 -0.601806 
-0.446542 -0.886143 -0.123902 -0.726472 -0.6709 -0.14877 -0.716809 -0.681441 -0.147723 
-0.692382 -0.604301 -0.394243 0.699999 -0.709061 -0.0850514 0.537326 -0.837034 -0.103219 
-0.438922 -0.889536 -0.12678 -0.476731 -0.865418 -0.154205 -0.419666 -0.725809 -0.545052 
0.389004 -0.914931 -0.107597 0.326836 -0.938417 -0.112031 0.312495 -0.913566 -0.260277 
0.0884213 -0.986043 -0.14107 0.111339 -0.865967 -0.48755 -0.171429 -0.977373 -0.123913 
-0.149786 -0.812076 -0.564001 -0.429494 -0.888627 -0.16086 -0.423988 -0.891132 -0.161609 
-0.425062 -0.884577 -0.191954 0.20266 0.583369 -0.786517 0.0285851 0.667457 -0.744099 
-0.134863 0.678585 -0.722034 0.207895 0.579798 -0.787791 0.261604 0.508431 -0.820403 
0.203378 0.57444 -0.792879 0.0408415 0.60471 -0.795398 -0.191018 0.663023 -0.723818 
-0.129692 0.64707 -0.751319 -0.282178 0.584194 -0.760981 -0.405408 0.342284 -0.847636 
0.358748 0.378209 -0.85338 0.369308 0.358482 -0.857381 0.249351 0.338735 -0.907239 
0.144865 0.30555 -0.941092 0.0688456 0.248186 -0.966263 -0.107273 0.212045 -0.971354 
-0.271911 0.259524 -0.926667 -0.414624 0.323965 -0.850373 -0.403928 0.318951 -0.857387 
0.502656 0.285744 -0.815897 0.557716 0.184611 -0.809241 0.329639 0.263157 -0.90669 
0.162927 0.171429 -0.971631 0.0724948 0.129059 -0.988983 -0.0280327 0.0593836 -0.997842 
-0.104839 -0.0492183 -0.993271 -0.196084 -0.0440569 -0.979597 -0.357665 0.127046 -0.925168 
-0.342547 0.107773 -0.933299 -0.0201723 0.282056 -0.959186 -0.0013801 0.220956 -0.975283 
-0.194303 0.316597 -0.928446 -0.0908561 0.240041 -0.966502 0.606273 -0.0394348 -0.794278 
0.588939 -0.085286 -0.803665 0.534012 -0.0382071 -0.844613 0.275531 0.0419525 -0.960376 
0.17403 0.0564842 -0.983119 0.0438112 0.0570405 -0.99741 -0.112973 0.0209445 -0.993377 
-0.210962 -0.0587974 -0.975724 -0.117073 -0.0619509 -0.991189 -0.134803 0.177291 -0.974883 
-0.218416 0.12038 -0.968402 -0.0384747 0.245492 -0.968635 -0.116041 0.244387 -0.962709 
-0.0258799 0.201515 -0.979143 -0.201692 -0.00178656 -0.979447 -0.0185588 0.266156 -0.963751 
0.0560483 0.143321 -0.988088 0.00189441 0.148849 -0.988858 0.030498 0.0798113 -0.996343 
-0.0114022 0.145326 -0.989318 -0.0412915 0.168605 -0.984818 0.00418903 0.0909369 -0.995848 
-0.0811312 0.283355 -0.955577 -0.0641503 -0.0328355 -0.9974 -0.124908 0.177075 -0.976239 
0.00410038 0.173119 -0.984892 -0.478859 0.081366 -0.874113 -0.135256 -0.152978 -0.97893 
0.00351428 0.00992368 -0.999945 0.554368 -0.101409 -0.82607 0.362169 -0.0361465 -0.931411 
0.183158 0.00440107 -0.983074 0.0370875 0.010555 -0.999256 -0.134394 -0.0108354 -0.990869 
-0.163261 -0.0457797 -0.98552 -0.0288852 0.00908389 -0.999541 -0.0412091 0.134006 -0.990123 
-0.393498 -0.225115 -0.891338 -0.17617 0.283774 -0.942569 0.0265261 0.0524982 -0.998269 
0.0631776 0.0165841 -0.997864 -0.0216336 -0.0245971 -0.999463 -0.00465019 0.0576454 -0.998326 
0.61053 -0.020635 -0.791724 0.377658 -0.0469798 -0.924752 0.216946 0.0125358 -0.976103 
0.0268134 0.049592 -0.99841 -0.168731 0.0209999 -0.985438 -0.186805 0.0351484 -0.981768 
-0.0442827 0.0502109 -0.997756 0.0592635 -0.0307613 -0.997768 -0.413114 0.100322 -0.905137 
-0.292853 0.00374177 -0.95615 -0.452844 0.218267 -0.86446 0.156384 -0.106621 -0.981925 
0.03476 -0.232206 -0.972045 0.114518 -0.122928 -0.985786 -0.106155 -0.165207 -0.980529 
-0.118586 -0.22214 -0.967776 -0.134049 -0.209741 -0.968524 0.622042 -0.136189 -0.771048 
0.428255 -0.0327648 -0.903064 0.259555 0.0325215 -0.965181 0.0517778 0.0288362 -0.998242 
-0.168461 0.0442774 -0.984713 -0.159105 0.117663 -0.980225 -0.0615792 0.128673 -0.989773 
-0.0467506 -0.0134092 -0.998817 -0.165231 0.00660705 -0.986233 -0.414991 0.171143 -0.893584 
-0.455778 0.204659 -0.866246 0.645583 -0.224775 -0.729862 0.645231 -0.314967 -0.696041 
0.551295 -0.165589 -0.817713 0.277515 -0.0732442 -0.957925 0.0274011 -0.0884703 -0.995702 
-0.0749573 -0.0132045 -0.997099 -0.113509 0.100017 -0.98849 -0.126112 0.0449584 -0.990997 
-0.0926572 -0.052204 -0.994329 -0.144426 -0.0740279 -0.986743 -0.565161 -0.176543 -0.805869 
-0.581659 -0.298981 -0.756494 -0.556472 -0.156179 -0.816056 0.636492 -0.349839 -0.68738 
0.315693 -0.256504 -0.913534 0.096717 -0.201514 -0.974699 0.0216054 -0.112193 -0.993452 
-0.111857 -0.0776002 -0.99069 -0.190914 -0.126277 -0.973451 -0.323737 -0.514172 -0.794243 
-0.183904 -0.267672 -0.945797 -0.404201 -0.502065 -0.76456 -0.303586 -0.549946 -0.778072 
-0.274255 -0.454015 -0.847735 0.445268 -0.622384 -0.643719 0.442673 -0.624261 -0.643691 
0.442177 -0.62213 -0.646091 0.237069 -0.677668 -0.696106 0.194581 -0.454074 -0.869457 
0.0902363 -0.706198 -0.702241 0.0544516 -0.37069 -0.927159 -0.134816 -0.67496 -0.725434 
-0.122415 -0.417438 -0.900422 -0.361108 -0.58606 -0.725351 -0.352008 -0.605791 -0.713518 
-0.321064 -0.504747 -0.801342 
