# vtk DataFile Version 4.2
vtk output
ASCII
DATASET POLYDATA
POINTS 555 float
-10.759 -35.3888 -11.529 -3.10625 -35.3888 -11.6628 4.54646 -35.3888 -11.3163 
12.1992 -35.3888 -12.1969 19.8519 -35.3888 -12.759 27.5046 -35.3888 -13.3127 
35.1573 -35.3888 -12.1345 42.81 -35.3888 -12.2318 -41.3698 -27.7361 -11.4322 
-26.0644 -27.7361 -12.4211 -18.4117 -27.7361 -12.2588 -10.759 -27.7361 -12.7027 
-3.10625 -27.7361 -12.1093 4.54646 -27.7361 -12.9588 12.1992 -27.7361 -14.0588 
19.8519 -27.7361 -14.7741 27.5046 -27.7361 -14.7365 35.1573 -27.7361 -14.0459 
42.81 -27.7361 -12.5836 -33.7171 -20.0834 -12.4614 -26.0644 -20.0834 -12.2828 
-18.4117 -20.0834 -12.7369 -10.759 -20.0834 -12.8436 -3.10625 -20.0834 -12.5687 
4.54646 -20.0834 -14.0157 12.1992 -20.0834 -15.1298 19.8519 -20.0834 -15.4583 
27.5046 -20.0834 -15.3299 35.1573 -20.0834 -15.3206 42.81 -20.0834 -14.6573 
50.4627 -20.0834 -11.423 -41.3698 -12.4307 -11.4589 -33.7171 -12.4307 -12.5066 
-26.0644 -12.4307 -12.5123 -18.4117 -12.4307 -12.6699 -10.759 -12.4307 -14.2728 
-3.10625 -12.4307 -13.968 4.54646 -12.4307 -16.8628 12.1992 -12.4307 -16.5921 
19.8519 -12.4307 -15.6422 27.5046 -12.4307 -15.9942 35.1573 -12.4307 -16.0507 
42.81 -12.4307 -14.0656 -41.3698 -4.77795 -12.6393 -33.7171 -4.77795 -13.9615 
-26.0644 -4.77795 -14.0549 -18.4117 -4.77795 -14.2589 -10.759 -4.77795 -15.2166 
-3.10625 -4.77795 -14.8822 4.54646 -4.77795 -16.7912 12.1992 -4.77795 -18.9282 
19.8519 -4.77795 -16.1442 27.5046 -4.77795 -15.6339 35.1573 -4.77795 -15.3798 
42.81 -4.77795 -14.0651 -41.3698 2.87475 -13.0955 -33.7171 2.87475 -14.6346 
-26.0644 2.87475 -15.1881 -18.4117 2.87475 -14.7688 -10.759 2.87475 -12.3834 
-3.10625 2.87475 -15.9909 4.54646 2.87475 -16.1167 12.1992 2.87475 -17.1671 
19.8519 2.87475 -15.5424 27.5046 2.87475 -15.5768 35.1573 2.87475 -15.2973 
42.81 2.87475 -14.61 -41.3698 10.5275 -12.4798 -33.7171 10.5275 -14.4343 
-26.0644 10.5275 -14.9769 -18.4117 10.5275 -13.9512 -10.759 10.5275 -12.5346 
-3.10625 10.5275 -15.7761 4.54646 10.5275 -11.3159 12.1992 10.5275 -13.8534 
19.8519 10.5275 -15.5375 27.5046 10.5275 -16.0817 35.1573 10.5275 -16.356 
42.81 10.5275 -14.6511 50.4627 10.5275 -11.4375 -41.3698 18.1802 -11.66 
-33.7171 18.1802 -13.7978 -26.0644 18.1802 -14.6757 -18.4117 18.1802 -14.8957 
-10.759 18.1802 -15.2789 -3.10625 18.1802 -15.9687 4.54646 18.1802 -14.8514 
12.1992 18.1802 -15.302 19.8519 18.1802 -16.1502 27.5046 18.1802 -16.8536 
35.1573 18.1802 -17.1168 42.81 18.1802 -14.9391 50.4627 18.1802 -12.1236 
-33.7171 25.8329 -13.551 -26.0644 25.8329 -15.7286 -18.4117 25.8329 -16.2466 
-10.759 25.8329 -16.8318 -3.10625 25.8329 -17.1083 4.54646 25.8329 -16.5999 
12.1992 25.8329 -16.2983 19.8519 25.8329 -16.5997 27.5046 25.8329 -16.3769 
35.1573 25.8329 -15.6815 42.81 25.8329 -15.2349 50.4627 25.8329 -12.6376 
-33.7171 33.4856 -13.1476 -26.0644 33.4856 -15.0448 -18.4117 33.4856 -16.2735 
-10.759 33.4856 -16.6303 -3.10625 33.4856 -16.6294 4.54646 33.4856 -16.3005 
12.1992 33.4856 -15.8766 19.8519 33.4856 -15.251 27.5046 33.4856 -13.9106 
35.1573 33.4856 -12.5704 -33.7171 41.1383 -12.1688 -26.0644 41.1383 -13.3675 
-18.4117 41.1383 -14.1702 -10.759 41.1383 -13.5855 -3.10625 41.1383 -12.6002 
4.54646 41.1383 -12.2288 12.1992 41.1383 -11.4716 -33.7171 -43.0415 -6.00216 
-26.0644 -43.0415 -8.04944 -18.4117 -43.0415 -8.22445 -10.759 -36.2209 -11.3019 
-10.759 -43.0415 -8.46708 -3.10625 -36.6778 -11.3019 -3.10625 -43.0415 -8.36092 
4.54646 -35.4234 -11.3019 4.54646 -43.0415 -7.68095 12.1992 -37.4363 -11.3019 
12.1992 -43.0415 -8.58929 19.8519 -42.5968 -11.3019 19.8519 -43.0415 -11.1481 
27.5046 -42.4686 -11.3019 27.5046 -43.0415 -10.9991 35.1573 -38.1696 -11.3019 
35.1573 -43.0415 -9.13246 42.81 -36.8648 -11.3019 42.81 -43.0415 -4.70306 
-41.3698 -28.0504 -11.3019 -41.3698 -35.3888 -6.24826 -33.7171 -35.3888 -10.4359 
-26.0644 -31.6108 -11.3019 -26.0644 -35.3888 -10.0204 -15.7225 -35.3888 -11.3019 
-18.4117 -34.4672 -11.3019 -18.4117 -35.3888 -11.1587 44.3489 -35.3888 -11.3019 
50.4627 -35.3888 -4.26088 -41.63 -27.7361 -11.3019 -49.0225 -27.7361 -6.72719 
-39.7874 -27.7361 -11.3019 -41.3698 -26.8054 -11.3019 -31.0833 -27.7361 -11.3019 
-33.7171 -24.8838 -11.3019 -33.7171 -27.7361 -10.6225 46.4337 -27.7361 -11.3019 
50.4627 -20.8086 -11.3019 50.4627 -27.7361 -9.01317 -49.0225 -20.0834 -8.28101 
-37.3291 -20.0834 -11.3019 -41.3698 -13.2456 -11.3019 -41.3698 -20.0834 -10.0048 
50.608 -20.0834 -11.3019 50.4627 -17.7722 -11.3019 -42.4402 -12.4307 -11.3019 
-49.0225 -12.4307 -9.83674 49.7577 -12.4307 -11.3019 50.4627 -12.4307 -10.5971 
-47.4927 -4.77795 -11.3019 -49.0225 -4.77795 -10.7534 47.5253 -4.77795 -11.3019 
50.4627 -4.77795 -8.44785 -47.4625 2.87475 -11.3019 -49.0225 2.87475 -10.4841 
48.7711 2.87475 -11.3019 50.4627 9.83966 -11.3019 50.4627 2.87475 -9.70727 
-44.5832 10.5275 -11.3019 -49.0225 10.5275 -8.47539 50.6468 10.5275 -11.3019 
-42.0389 18.1802 -11.3019 -49.0225 18.1802 -6.983 -41.3698 19.8043 -11.3019 
51.7803 18.1802 -11.3019 58.1154 18.1802 -5.1728 -38.7787 25.8329 -11.3019 
-41.3698 25.8329 -10.0027 42.81 31.6702 -11.3019 52.1443 25.8329 -11.3019 
50.4627 27.8637 -11.3019 -38.6914 33.4856 -11.3019 -41.3698 33.4856 -9.83892 
19.8519 39.0897 -11.3019 27.5046 36.9282 -11.3019 38.814 33.4856 -11.3019 
35.1573 34.7807 -11.3019 42.81 33.4856 -9.82263 -35.0631 41.1383 -11.3019 
-41.3698 41.1383 -4.62564 -33.7171 42.4023 -11.3019 -26.0644 44.1301 -11.3019 
-18.4117 45.8188 -11.3019 -10.759 43.6694 -11.3019 -3.10625 42.2993 -11.3019 
4.54646 41.932 -11.3019 12.924 41.1383 -11.3019 12.1992 41.2882 -11.3019 
19.8519 41.1383 -7.60286 -26.0644 48.791 -5.97306 -18.4117 48.791 -4.8034 
-33.7171 -45.9798 -3.6492 -26.0644 -47.7276 -3.6492 -18.4117 -48.2982 -3.6492 
-18.4117 -50.6942 3.02195 -10.759 -47.7783 -3.6492 -3.10625 -47.3298 -3.6492 
4.54646 -47.5865 -3.6492 12.1992 -48.0707 -3.6492 19.8519 -48.5504 -3.6492 
27.5046 -48.4231 -3.6492 35.1573 -46.8724 -3.6492 42.81 -43.8842 -3.6492 
-40.3147 -43.0415 -3.6492 -41.3698 -41.8718 -3.6492 -41.3698 -43.0415 -2.77571 
44.0786 -43.0415 -3.6492 42.81 -43.0415 2.30945 50.4627 -36.101 -3.6492 
-48.8961 -35.3888 -3.6492 -49.0225 -35.3089 -3.6492 -49.0225 -35.3888 -3.56901 
50.8875 -35.3888 -3.6492 50.4627 -35.3888 -1.84288 -52.8199 -27.7361 -3.6492 
53.2976 -27.7361 -3.6492 -53.8849 -20.0834 -3.6492 54.5978 -20.0834 -3.6492 
-56.0738 -12.4307 -3.6492 -56.6752 -12.4307 -0.539663 53.3051 -12.4307 -3.6492 
50.4627 -12.4307 2.7408 -55.5314 -4.77795 -3.6492 53.3269 -4.77795 -3.6492 
50.4627 -4.77795 3.66538 -54.5474 2.87475 -3.6492 54.5046 2.87475 -3.6492 
-52.8211 10.5275 -3.6492 56.946 10.5275 -3.6492 58.1154 15.1722 -3.6492 
-51.5323 18.1802 -3.6492 -49.0225 25.7845 -3.6492 58.1154 20.433 -3.6492 
58.1154 18.1802 -0.712896 -49.0009 25.8329 -3.6492 -49.0225 25.8329 -3.41606 
56.2615 25.8329 -3.6492 50.4627 32.69 -3.6492 -45.596 33.4856 -3.6492 
27.5046 40.6151 -3.6492 35.1573 39.2563 -3.6492 49.3947 33.4856 -3.6492 
42.81 37.054 -3.6492 -42.0915 41.1383 -3.6492 -41.3698 42.0369 -3.6492 
-33.7171 48.4889 -3.6492 -10.759 47.7112 -3.6492 -3.10625 45.4628 -3.6492 
4.54646 44.7464 -3.6492 12.1992 44.4336 -3.6492 25.4451 41.1383 -3.6492 
19.8519 42.5278 -3.6492 -32.5559 48.791 -3.6492 -26.0644 49.9482 -3.6492 
-16.6413 48.791 -3.6492 -18.4117 49.2093 -3.6492 -18.4117 -50.9177 4.00351 
-41.3698 -46.1786 4.00351 -33.7171 -49.7961 4.00351 -22.2816 -50.6942 4.00351 
-26.0644 -50.4634 4.00351 -14.7767 -50.6942 4.00351 -18.4117 -50.6942 4.87838 
-10.759 -50.4314 4.00351 -3.10625 -49.9198 4.00351 4.54646 -49.44 4.00351 
12.1992 -49.9905 4.00351 19.8519 -49.4099 4.00351 27.5046 -48.4465 4.00351 
35.1573 -46.0539 4.00351 -45.705 -43.0415 4.00351 -49.0225 -39.9558 4.00351 
-41.3698 -43.0415 10.4692 -33.7171 -43.0415 11.5056 4.54646 -43.0415 11.5231 
12.1992 -43.0415 10.6261 19.8519 -43.0415 9.44733 27.5046 -43.0415 10.491 
42.2073 -43.0415 4.00351 35.1573 -43.0415 7.31534 42.81 -42.5241 4.00351 
-52.3921 -35.3888 4.00351 -49.0225 -35.3888 10.2132 35.1573 -35.3888 10.3171 
48.1755 -35.3888 4.00351 42.81 -35.3888 8.07412 50.4627 -29.7104 4.00351 
-55.2627 -27.7361 4.00351 50.9017 -27.7361 4.00351 50.4627 -27.7361 4.58983 
-56.3907 -20.0834 4.00351 -56.6752 -17.8005 4.00351 42.81 -20.0834 9.34188 
51.8723 -20.0834 4.00351 50.4627 -14.7283 4.00351 50.4627 -20.0834 5.44295 
-57.1461 -12.4307 4.00351 -56.6752 -6.54501 4.00351 -56.6752 -12.4307 4.62776 
-49.0225 -12.4307 9.21641 49.4566 -12.4307 4.00351 42.81 -12.4307 8.82997 
-56.4703 -4.77795 4.00351 -49.0225 -4.77795 9.13119 35.1573 -4.77795 10.9353 
50.2033 -4.77795 4.00351 42.81 -4.77795 8.13545 50.4627 -3.28902 4.00351 
-55.5251 2.87475 4.00351 -49.0225 2.87475 9.52709 35.1573 2.87475 11.2872 
42.81 2.87475 8.8125 51.0714 2.87475 4.00351 50.4627 2.87475 4.62411 
-53.8242 10.5275 4.00351 -49.0225 10.5275 9.31519 4.54646 10.5275 11.0316 
42.81 10.5275 10.8822 53.2781 10.5275 4.00351 50.4627 10.5275 6.73748 
-52.1717 18.1802 4.00351 -49.0225 18.1802 9.46653 56.1446 18.1802 4.00351 
50.4627 18.1802 9.28524 -49.5453 25.8329 4.00351 -49.0225 27.2249 4.00351 
-49.0225 25.8329 4.91079 42.81 25.8329 10.6728 54.1582 25.8329 4.00351 
50.4627 30.4465 4.00351 50.4627 25.8329 7.75926 -46.1442 33.4856 4.00351 
-41.3698 33.4856 11.4893 27.5046 40.0709 4.00351 35.1573 37.8098 4.00351 
35.1573 33.4856 8.81255 47.0173 33.4856 4.00351 42.81 35.978 4.00351 
42.81 33.4856 7.45368 -42.224 41.1383 4.00351 -41.3698 42.2433 4.00351 
-41.3698 41.1383 5.24423 -33.7171 48.5274 4.00351 -33.7171 41.1383 11.2817 
-10.759 48.3295 4.00351 -3.10625 45.8623 4.00351 4.54646 44.8628 4.00351 
12.1992 44.4297 4.00351 12.1992 41.1383 10.693 24.3591 41.1383 4.00351 
19.8519 42.5379 4.00351 19.8519 41.1383 7.01278 -32.9092 48.791 4.00351 
-26.0644 50.3768 4.00351 -26.0644 48.791 7.88754 -13.9179 48.791 4.00351 
-18.4117 49.6646 4.00351 -18.4117 48.791 6.71497 -26.0644 -45.5492 11.6562 
-18.4117 -46.943 11.6562 -10.759 -45.1082 11.6562 -3.10625 -43.8833 11.6562 
-41.3698 -39.2647 11.6562 -33.0893 -43.0415 11.6562 -33.7171 -42.8411 11.6562 
[...]
POINT_DATA 555
SCALARS ImageScalars float
LOOKUP_TABLE default
0 0 0 0 0 0 0 0 0 
0 0 0 0 0 0 0 0 0 
0 0 0 0 0 0 0 0 0 
0 0 0 0 0 0 0 0 0 
0 0 0 0 0 0 0 0 0 
0 0 0 0 0 0 0 0 0 
0 0 0 0 0 0 0 0 0 
0 0 0 0 0 0 0 0 0 
0 0 0 0 0 0 0 0 0 
0 0 0 0 0 0 0 0 0 
0 0 0 0 0 0 0 0 0 
0 0 0 0 0 0 0 0 0 
0 0 0 0 0 0 0 0 0 
0 0 0 0 0 0 0 0 0 
0 0 0 0 0 0 0 0 0 
0 0 0 0 0 0 0 0 0 
0 0 0 0 0 0 0 0 0 
0 0 0 0 0 0 0 0 0 
0 0 0 0 0 0 0 0 0 
0 0 0 0 0 0 0 0 0 
0 0 0 0 0 0 0 0 0 
0 0 0 0 0 0 0 0 0 
0 0 0 0 0 0 0 0 0 
0 0 0 0 0 0 0 0 0 
0 0 0 0 0 0 0 0 0 
0 0 0 0 0 0 0 0 0 
0 0 0 0 0 0 0 0 0 
0 0 0 0 0 0 0 0 0 
0 0 0 0 0 0 0 0 0 
0 0 0 0 0 0 0 0 0 
0 0 0 0 0 0 0 0 0 
0 0 0 0 0 0 0 0 0 
0 0 0 0 0 0 0 0 0 
0 0 0 0 0 0 0 0 0 
0 0 0 0 0 0 0 0 0 
0 0 0 0 0 0 0 0 0 
0 0 0 0 0 0 0 0 0 
0 0 0 0 0 0 0 0 0 
0 0 0 0 0 0 0 0 0 
0 0 0 0 0 0 0 0 0 
0 0 0 0 0 0 0 0 0 
0 0 0 0 0 0 0 0 0 
0 0 0 0 0 0 0 0 0 
0 0 0 0 0 0 0 0 0 
0 0 0 0 0 0 0 0 0 
0 0 0 0 0 0 0 0 0 
0 0 0 0 0 0 0 0 0 
0 0 0 0 0 0 0 0 0 
0 0 0 0 0 0 0 0 0 
0 0 0 0 0 0 0 0 0 
0 0 0 0 0 0 0 0 0 
0 0 0 0 0 0 0 0 0 
0 0 0 0 0 0 0 0 0 
0 0 0 0 0 0 0 0 0 
0 0 0 0 0 0 0 0 0 
0 0 0 0 0 0 0 0 0 
0 0 0 0 0 0 0 0 0 
0 0 0 0 0 0 0 0 0 
0 0 0 0 0 0 0 0 0 
0 0 0 0 0 0 0 0 0 
0 0 0 0 0 0 0 0 0 
0 0 0 0 0 0 
NORMALS Normals float
-0.0314448 -0.224293 -0.974014 0.0124386 -0.181263 -0.983356 -0.0292526 -0.300049 -0.953475 
-0.0883971 -0.311553 -0.946108 -0.0712134 -0.240346 -0.968071 0.0330327 -0.253177 -0.966856 
0.0730772 -0.267506 -0.960781 0.307991 -0.348482 -0.885269 -0.25479 -0.167145 -0.952442 
-0.0977136 -0.133135 -0.986269 -0.0186468 -0.0967051 -0.995138 0.00965834 -0.0892264 -0.995965 
-0.0138719 -0.0607152 -0.998059 -0.12487 -0.164807 -0.97839 -0.119451 -0.182805 -0.975866 
-0.0420778 -0.165125 -0.985375 0.0471181 -0.135333 -0.989679 0.119736 -0.182667 -0.975857 
0.265514 -0.143758 -0.953329 -0.142959 -0.120521 -0.982363 -0.01873 -0.00420546 -0.999816 
-0.03648 -0.0266648 -0.998979 0.0112395 -0.094922 -0.995421 -0.0681229 -0.104539 -0.992185 
-0.171386 -0.215565 -0.961332 -0.0878923 -0.156196 -0.983808 -0.0128431 -0.0594738 -0.998147 
0.00891551 -0.0811376 -0.996663 0.0371222 -0.129521 -0.990882 0.274715 -0.0777915 -0.958374 
0.610611 -0.0602884 -0.789633 -0.144782 -0.178403 -0.973247 -0.0642062 -0.0960352 -0.993305 
-0.0108594 -0.110279 -0.993841 -0.106303 -0.0996619 -0.989327 -0.0920892 -0.159858 -0.982835 
-0.139514 -0.161171 -0.977016 -0.162914 -0.193026 -0.967574 0.0794842 -0.250267 -0.964909 
0.0341653 -0.0445712 -0.998422 -0.026554 -0.0197874 -0.999452 0.127718 -0.00264123 -0.991807 
0.322159 0.0320828 -0.946142 -0.205806 -0.102816 -0.973177 -0.0960092 -0.138934 -0.985637 
-0.0197579 -0.174303 -0.984494 -0.0723982 -0.137485 -0.987854 -0.0449896 0.118775 -0.991901 
-0.0929134 -0.0976647 -0.990873 -0.274184 0.0431762 -0.960708 0.0646555 -0.0533771 -0.996479 
0.209183 0.00676306 -0.977853 0.0496397 0.0271921 -0.998397 0.099628 0.0473911 -0.993896 
0.333035 -0.0393527 -0.942093 -0.262632 0.00939256 -0.96485 -0.140315 -0.0300252 -0.989652 
-0.00938223 -0.0539908 -0.998497 0.170653 0.0204342 -0.985119 0.0284182 0.184771 -0.982371 
-0.30907 -0.0766675 -0.947944 -0.0681541 0.292831 -0.953732 0.0596974 0.347839 -0.935652 
0.0823616 0.0406085 -0.995775 0.0159275 -0.02924 -0.999445 0.0681687 -0.0665727 -0.99545 
0.273906 -0.0362472 -0.961073 -0.314829 0.0886355 -0.945001 -0.165252 0.0540436 -0.98477 
0.0328523 0.0331169 -0.998911 0.153429 -0.00552086 -0.988144 -0.0746093 -0.182244 -0.980419 
-0.000525608 -0.00515151 -0.999987 0.0926739 0.0358302 -0.995052 -0.223464 0.0860526 -0.970906 
-0.138013 -0.0407185 -0.989593 -0.0522023 -0.0850947 -0.995004 0.0871156 -0.11354 -0.989707 
0.273291 -0.0207625 -0.961707 0.519444 -0.117484 -0.84639 -0.373033 0.150626 -0.91551 
-0.175307 0.0563725 -0.982898 -0.0696061 -0.0466844 -0.996482 -0.0375903 -0.151961 -0.987671 
-0.0673763 -0.270259 -0.960427 0.0288807 -0.0872421 -0.995768 0.0432749 -0.275176 -0.96042 
-0.0862543 -0.15549 -0.984065 -0.0958496 -0.0651294 -0.993263 -0.0622421 -0.0163519 -0.997927 
0.123319 0.0377095 -0.99165 0.271422 -0.0327548 -0.961903 0.469276 -0.0790849 -0.879503 
-0.318876 0.036334 -0.9471 -0.170273 -0.025021 -0.985079 -0.0703651 -0.0857382 -0.99383 
-0.0561155 -0.0800262 -0.995212 0.015225 -0.0406948 -0.999056 0.0525908 -0.0889773 -0.994644 
0.000363094 -0.0306193 -0.999531 -0.00375576 0.0479171 -0.998844 0.054767 0.168308 -0.984212 
0.0733124 0.231456 -0.970079 0.224462 0.257257 -0.939913 0.501585 0.274417 -0.820432 
-0.307362 0.0952815 -0.94681 -0.189578 0.130559 -0.973147 -0.0955177 0.127323 -0.987251 
-0.0254934 0.186983 -0.982032 0.0213867 0.245396 -0.969187 0.0514328 0.234147 -0.97084 
0.0628905 0.254596 -0.965 0.126499 0.373763 -0.918858 0.145708 0.508524 -0.84863 
0.231863 0.598055 -0.767183 -0.386546 0.396627 -0.832628 -0.141101 0.413458 -0.899524 
-0.0101078 0.441417 -0.897245 0.0926182 0.58238 -0.807623 0.0804475 0.722054 -0.687144 
0.0629496 0.752628 -0.655429 0.134636 0.770991 -0.622451 -0.295324 -0.543252 -0.785914 
-0.156573 -0.466992 -0.870289 -0.0236938 -0.542987 -0.839406 -0.0327287 -0.255731 -0.966194 
-0.00745574 -0.574054 -0.818783 0.0244117 -0.241175 -0.970174 0.0452636 -0.606956 -0.793445 
-0.0288865 -0.301032 -0.953176 -0.023385 -0.610618 -0.79158 -0.116917 -0.364924 -0.923667 
-0.155996 -0.601857 -0.78322 -0.143534 -0.522342 -0.840569 -0.145045 -0.546237 -0.824977 
0.0752542 -0.538669 -0.83915 0.077978 -0.572393 -0.816264 0.145098 -0.368375 -0.918285 
0.280137 -0.654286 -0.702448 0.355489 -0.390442 -0.849224 0.498711 -0.784537 -0.368495 
-0.25573 -0.181935 -0.949475 -0.314071 -0.456632 -0.832374 -0.186709 -0.291328 -0.938226 
-0.0687681 -0.213641 -0.974489 -0.0485113 -0.295113 -0.95423 -0.0764732 -0.22367 -0.97166 
-0.0900523 -0.208013 -0.973972 -0.100665 -0.226384 -0.968822 0.407509 -0.38404 -0.828523 
0.847261 -0.465767 -0.255364 -0.262341 -0.167096 -0.950398 -0.573906 -0.176911 -0.799584 
-0.222165 -0.159552 -0.961866 -0.251012 -0.149818 -0.95632 -0.0825373 -0.125638 -0.988637 
-0.10108 -0.121369 -0.987447 -0.0842155 -0.129186 -0.988038 0.422136 -0.199773 -0.884246 
0.611626 -0.0815796 -0.78693 0.731384 -0.293256 -0.615694 -0.623061 -0.228922 -0.747924 
-0.173626 -0.0654274 -0.982636 -0.149309 -0.160361 -0.9757 -0.239115 -0.0181395 -0.970822 
0.619794 -0.0599067 -0.782475 0.635731 -0.00577637 -0.771889 -0.190737 -0.16877 -0.967024 
-0.504115 -0.107969 -0.856861 0.650929 0.112701 -0.750726 0.726142 0.123161 -0.676424 
-0.439671 -0.044204 -0.89707 -0.515497 -0.026612 -0.856478 0.559989 0.00974251 -0.828443 
0.845555 0.00381842 -0.533875 -0.499556 0.0703157 -0.863423 -0.583767 0.0897492 -0.806945 
0.595361 -0.101825 -0.79698 0.536371 -0.11726 -0.835797 0.751189 -0.151187 -0.64254 
-0.427121 0.13645 -0.893839 -0.676271 0.164796 -0.717983 0.527596 -0.120213 -0.840947 
-0.395744 0.160034 -0.90431 -0.760485 0.205993 -0.615817 -0.397366 0.138807 -0.907101 
0.483878 -0.0701275 -0.872321 0.953427 0.0568268 -0.296222 -0.427683 0.0686883 -0.901315 
-0.53155 0.112367 -0.83954 0.297904 0.576389 -0.76094 0.61062 0.300068 -0.732873 
0.523271 0.419285 -0.741881 -0.453656 0.168613 -0.875081 -0.606382 0.242534 -0.757283 
0.204588 0.716152 -0.667285 0.195987 0.71092 -0.675412 0.284155 0.632086 -0.720918 
0.250463 0.667675 -0.701055 0.340453 0.69815 -0.629824 -0.454372 0.429435 -0.780469 
-0.742364 0.55442 -0.376184 -0.401759 0.473753 -0.783676 -0.157629 0.570894 -0.80575 
0.0526133 0.704632 -0.707619 0.170178 0.708435 -0.684952 0.0979054 0.782289 -0.615173 
0.0629934 0.798029 -0.599317 0.141898 0.777305 -0.612912 0.134279 0.779151 -0.612285 
0.229427 0.896637 -0.37869 -0.0823269 0.907664 -0.411545 0.156172 0.955077 -0.251871 
-0.311146 -0.672815 -0.671199 -0.132189 -0.815247 -0.563825 -0.0107348 -0.809887 -0.586488 
-0.0038938 -0.998449 -0.0555344 0.0475391 -0.817643 -0.57376 0.00915247 -0.833016 -0.553173 
-0.0427922 -0.846211 -0.531127 -0.0509516 -0.885102 -0.4626 -0.0223626 -0.920532 -0.390026 
0.105738 -0.930064 -0.351854 0.263959 -0.924781 -0.274054 0.492677 -0.828016 -0.26769 
-0.455378 -0.577802 -0.67733 -0.463982 -0.554682 -0.690687 -0.501025 -0.617398 -0.60646 
0.534201 -0.793538 -0.291422 0.540004 -0.760303 0.36102 0.843647 -0.489408 -0.220771 
-0.605334 -0.60839 -0.513257 -0.609781 -0.607261 -0.509315 -0.612561 -0.610605 -0.501926 
0.860703 -0.461302 -0.215386 0.884281 -0.465668 -0.0346581 -0.803557 -0.27173 -0.529584 
0.968968 -0.227916 -0.0956812 -0.796427 -0.16286 -0.582392 0.997942 0.00085022 -0.0641113 
-0.830764 -0.0677788 -0.552483 -0.979836 -0.0426521 -0.1952 0.996156 0.0863268 0.0148669 
0.805368 0.0990845 0.584435 -0.892999 0.0738093 -0.443966 0.994732 -0.0806026 -0.0633375 
0.75269 -0.0766542 0.653898 -0.895299 0.144636 -0.421332 0.969519 -0.240153 -0.0485712 
-0.891004 0.190358 -0.412159 0.959503 -0.273088 -0.0691084 0.989691 -0.0968731 -0.105485 
-0.894261 0.218709 -0.390467 -0.852101 0.365069 -0.375031 0.981223 0.143286 -0.129112 
0.984871 0.0406413 0.168459 -0.851693 0.365906 -0.375142 -0.858273 0.368003 -0.357688 
0.918946 0.378331 -0.111375 0.578752 0.805937 -0.124548 -0.878535 0.376262 -0.294284 
0.210522 0.968049 -0.136244 0.252793 0.959453 -0.124686 0.528981 0.837227 -0.138672 
0.352256 0.923091 -0.154336 -0.762679 0.554717 -0.332581 -0.73701 0.588999 -0.331505 
-0.435004 0.839606 -0.325319 0.225954 0.943505 -0.242369 0.187311 0.960901 -0.203921 
0.0656883 0.982741 -0.172932 0.139616 0.973888 -0.179022 0.215397 0.966563 -0.139137 
0.234857 0.959259 -0.157048 -0.368891 0.872152 -0.321357 -0.0386941 0.961049 -0.273654 
0.18158 0.963883 -0.194828 0.165186 0.967981 -0.189016 0.00213164 -0.999913 0.0130431 
-0.516269 -0.856426 -0.000931804 -0.277542 -0.960472 0.0215345 -0.0346661 -0.99933 0.011745 
-0.0702142 -0.997424 0.0146482 0.031139 -0.998861 0.036166 0.00277305 -0.996144 0.0876838 
0.0629481 -0.996018 0.063129 0.0646058 -0.991858 0.109748 -0.000619696 -0.987575 0.157144 
-0.0045074 -0.977055 0.212941 0.0821947 -0.944996 0.316586 0.206801 -0.895313 0.394522 
0.311009 -0.846709 0.431691 -0.645708 -0.76333 0.0196989 -0.771452 -0.635239 0.0364956 
-0.422027 -0.571426 0.703822 -0.13408 -0.574485 0.807459 0.0986439 -0.493271 0.864264 
0.130875 -0.490044 0.861817 0.0303956 -0.584834 0.810583 0.0898714 -0.524228 0.846823 
0.494492 -0.69256 0.525203 0.356888 -0.685095 0.63504 0.518204 -0.667507 0.534696 
-0.887458 -0.453449 0.0824759 -0.61331 -0.394744 0.684126 0.210701 -0.254334 0.943885 
0.720487 -0.374217 0.583833 0.5328 -0.46155 0.709292 0.812097 -0.216157 0.542009 
-0.938225 -0.280994 0.201932 0.837183 -0.169022 0.52015 0.818538 -0.168499 0.549184 
-0.950379 -0.107861 0.291799 -0.946156 -0.0771327 0.314386 0.426211 0.138068 0.894025 
0.791553 0.0611682 0.608032 0.740711 0.0878539 0.666055 0.69652 0.0824104 0.712789 
-0.940336 -0.00420041 0.340223 -0.932116 0.074001 0.354519 -0.91098 -0.00381512 0.412434 
-0.491896 0.134761 0.860161 0.716635 0.0983479 0.690479 0.501279 0.0780471 0.861759 
-0.928854 0.0961297 0.357756 -0.531672 -0.0189433 0.846739 0.29333 0.0244348 0.955699 
0.723009 -0.0749417 0.686762 0.439962 -0.00714658 0.897988 0.729295 -0.0877506 0.678549 
-0.937014 0.155954 0.312544 -0.613301 -0.0165711 0.789675 0.28879 -0.129869 0.948543 
0.421935 -0.173283 0.889912 0.739805 -0.14649 0.65668 0.707028 -0.14718 0.691701 
-0.934584 0.205976 0.290046 -0.715126 0.00774352 0.698952 0.244393 -0.121891 0.961985 
0.328868 -0.198166 0.92335 0.750919 -0.277477 0.599272 0.601516 -0.259706 0.755468 
-0.930652 0.278057 0.237849 -0.722307 0.165602 0.671452 0.745606 -0.0167026 0.666178 
0.547742 -0.0330225 0.835995 -0.900749 0.357123 0.247214 -0.896433 0.372332 0.240369 
-0.880259 0.356364 0.313286 0.348911 0.250275 0.903119 0.806194 0.358212 0.470888 
0.612855 0.603906 0.509614 0.541457 0.402196 0.738284 -0.871387 0.434549 0.227709 
-0.552532 0.264403 0.790442 0.278812 0.918365 0.280836 0.281762 0.861186 0.423046 
0.234769 0.657322 0.716108 0.480198 0.751211 0.452871 0.35688 0.835801 0.417221 
0.356438 0.669357 0.651854 -0.780994 0.549219 0.297332 -0.752532 0.589392 0.293789 
-0.747904 0.553638 0.36623 -0.434361 0.855662 0.281377 -0.442685 0.441359 0.780533 
0.225971 0.96765 0.112204 0.225359 0.966509 0.122776 0.0936768 0.982969 0.158101 
0.145484 0.968021 0.204375 0.181187 0.731143 0.657724 0.272768 0.931921 0.239001 
0.274183 0.938544 0.209664 0.286516 0.876598 0.386633 -0.389387 0.881209 0.268046 
-0.0656264 0.982889 0.172114 -0.129199 0.895656 0.425569 0.195911 0.97478 0.106874 
0.151317 0.9815 0.117306 0.132025 0.953295 0.271659 -0.142854 -0.593252 0.79224 
0.0155316 -0.624456 0.780905 0.105639 -0.522694 0.84595 0.0806766 -0.494103 0.865652 
-0.371083 -0.318464 0.872283 -0.131069 -0.560378 0.817801 -0.132599 -0.559597 0.818089 
-0.136112 -0.454633 0.880217 0.0616751 -0.410334 0.909847 0.104436 -0.41665 0.903048 
0.0949254 -0.479594 0.872341 0.0712599 -0.455057 0.887606 0.0997612 -0.473172 0.875303 
0.0905798 -0.339512 0.93623 0.0191811 -0.362172 0.931914 0.160486 -0.300167 0.940289 
-0.439761 -0.235303 0.866743 -0.494816 -0.159692 0.854199 -0.369285 -0.145324 0.917883 
-0.15472 -0.140272 0.97795 0.0595704 -0.163062 0.984816 0.00687801 -0.108093 0.994117 
0.0406225 -0.194464 0.980068 0.0728219 -0.22113 0.972522 0.126578 -0.180821 0.975337 
0.0464236 -0.173854 0.983677 0.0449629 -0.211189 0.976411 0.225235 -0.151977 0.962379 
0.231003 -0.127811 0.964522 0.0974104 -0.172318 0.980213 0.353419 -0.0323165 0.934907 
-0.479318 -0.0690136 0.874923 -0.46399 -0.0631504 0.883587 -0.256834 -0.144759 0.955553 
-0.171838 0.151842 0.973353 -0.0668039 0.0330551 0.997218 0.0513538 0.0524082 0.997304 
0.0351004 0.0261227 0.999042 0.0518348 0.029906 0.998208 0.116815 -0.0215831 0.992919 
0.0967982 0.016469 0.995168 0.0650948 0.0278343 0.997491 0.0705549 -0.0703448 0.995024 
0.0708807 -0.148205 0.986413 0.355274 -0.0152073 0.934638 0.350633 -0.00419458 0.936504 
0.345579 -0.0110233 0.938325 -0.514447 0.177964 0.838852 -0.502496 0.183403 0.844903 
-0.508555 0.179991 0.842007 -0.198303 0.0211305 0.979913 -0.027175 0.13367 0.990653 
-0.0459026 0.199397 0.978843 0.0024926 0.202204 0.97934 0.0183999 0.0815215 0.996502 
0.0275444 0.00990238 0.999572 0.111536 -0.0339555 0.99318 0.107998 0.0645582 0.992053 
-0.0408342 -0.00500889 0.999153 0.0357684 -0.0271098 0.998992 0.294982 0.0566868 0.95382 
0.252634 0.0284416 0.967144 -0.328243 0.10977 0.938193 -0.266524 0.0776546 0.960695 
-0.00770708 0.0724161 0.997345 0.0133182 0.139589 0.99012 -0.0534093 0.18718 0.980873 
-0.17254 -0.0827702 0.981519 -0.0740761 0.00731839 0.997226 0.158415 -0.0415812 0.986497 
0.11584 -0.284124 0.951764 -0.0160447 -0.143761 0.989482 0.104677 0.0280778 0.99411 
0.258236 0.0975962 0.96114 0.252325 0.0896337 0.963482 0.246031 0.0987166 0.964222 
-0.34959 -0.0760589 0.93381 -0.257845 -0.0594609 0.964355 0.0313916 -0.105157 0.99396 
0.0551097 -0.0899726 0.994418 -0.166583 -0.203245 0.964853 -0.0965592 -0.120919 0.987955 
0.110563 0.0442176 0.992885 -0.183028 0.0301799 0.982644 0.00845124 -0.000377854 0.999964 
0.253877 -0.0106007 0.967179 0.274585 0.0152215 0.961442 0.256928 -0.0122693 0.966353 
-0.438578 -0.0645025 0.896375 -0.269138 -0.0513262 0.961733 -0.0493374 -0.158205 0.986173 
-0.058796 -0.208407 0.976273 -0.0696979 -0.13815 0.987956 0.00452451 0.231936 0.972721 
0.047455 -0.0436308 0.99792 0.216709 0.106063 0.970458 0.262686 0.0905736 0.960621 
-0.0316484 0.378286 0.925147 -0.0291526 0.121553 0.992157 0.262305 -0.117856 0.957761 
0.14427 -0.0658378 0.987346 0.267909 -0.137135 0.953634 -0.523944 -0.00234744 0.85175 
-0.328054 0.0419106 0.943729 -0.117749 -0.0604717 0.9912 0.0241284 -0.0943483 0.995247 
0.140996 -0.0390155 0.989241 0.048684 -0.0417918 0.99794 0.232233 -0.0923041 0.96827 
-0.016019 0.0132647 0.999784 -0.137153 -0.0990165 0.985589 0.165166 -0.166928 0.972037 
-0.141807 -0.0986946 0.984962 -0.144044 -0.058364 0.987849 0.00613743 -0.0717541 0.997403 
0.272312 -0.186321 0.943997 0.194412 -0.154202 0.968724 0.271139 -0.0514854 0.961162 
-0.504067 0.150133 0.850516 -0.3197 0.151508 0.935327 -0.194431 0.054729 0.979388 
-0.0367425 -0.0166428 0.999186 0.00649526 -0.155316 0.987844 0.0683967 -0.229376 0.970932 
0.180221 -0.0829131 0.980125 0.0543212 -0.170031 0.98394 -0.0780396 -0.240828 0.967425 
-0.0295746 -0.0979809 0.994749 0.0521735 -0.0070209 0.998613 0.146626 -0.00840779 0.989156 
0.292977 0.0104389 0.956062 0.275678 0.0703142 0.958675 0.253542 0.012189 0.967247 
-0.465345 0.125295 0.876216 -0.484161 0.15621 0.860922 -0.463839 0.124072 0.877188 
-0.24832 0.0593367 0.966859 -0.178861 -0.0165264 0.983736 -0.0750651 -0.0896212 0.993143 
0.0960563 -0.0773575 0.992365 0.14399 -0.0649144 0.987448 0.0327234 -0.105947 0.993833 
0.02894 -0.0985183 0.994714 0.093159 0.0715521 0.993077 0.0991606 0.160064 0.982113 
0.292493 0.245415 0.92424 0.218239 0.400017 0.890145 0.193387 0.244234 0.950237 
-0.538459 0.259233 0.801786 -0.4239 0.409468 0.807864 -0.339236 0.190237 0.921265 
-0.175629 0.123301 0.976704 -0.0508116 0.128501 0.990407 0.0934639 0.144181 0.985128 
0.141228 0.150945 0.978402 0.0332193 0.161436 0.986324 0.176241 0.642455 0.745782 
0.0974225 0.250292 0.963256 0.243276 0.511785 0.82395 0.217325 0.309732 0.925654 
0.243832 0.448784 0.859732 0.247115 0.451118 0.85757 0.243292 0.438025 0.865415 
-0.413937 0.426338 0.804296 -0.212419 0.628523 0.748222 -0.217206 0.378479 0.899764 
0.059282 0.750416 0.658302 -0.042381 0.414056 0.909264 0.18522 0.736292 0.650821 
0.120053 0.502058 0.856461 0.179561 0.72836 0.661249 0.163598 0.598616 0.784152 
0.16696 0.678749 0.715139 0.147704 0.70002 0.698681 0.145925 0.65052 0.745338 

