# vtk DataFile Version 4.2
vtk output
ASCII
DATASET POLYDATA
POINTS 613 float
-37.3874 -9.72769 -16.7331 47.6319 -9.72769 -17.2089 -37.3874 13.4594 -16.9484 
-29.6584 13.4594 -16.473 -29.6584 -40.6438 -10.0222 -21.9293 -40.6438 -11.471 
-14.2003 -40.6438 -12.4689 -6.47129 -40.6438 -13.0677 1.25774 -40.6438 -13.2345 
8.98676 -40.6438 -12.958 16.7158 -40.6438 -13.6778 24.4448 -40.6438 -12.5565 
32.1738 -40.6438 -11.2527 -45.1164 -32.9148 -9.68224 -37.3874 -32.9148 -12.4369 
-29.6584 -32.9148 -13.8519 -21.9293 -32.9148 -14.8569 -14.2003 -32.9148 -15.1333 
-6.47129 -32.9148 -15.4002 1.25774 -32.9148 -15.4665 8.98676 -32.9148 -15.3109 
16.7158 -32.9148 -15.8352 24.4448 -32.9148 -14.7979 32.1738 -32.9148 -15.6031 
39.9029 -32.9148 -11.5388 47.6319 -32.9148 -9.02195 -52.8455 -25.1857 -9.82276 
-45.1164 -25.1857 -13.3468 -37.3874 -25.1857 -15.0355 -29.6584 -25.1857 -16.1888 
-21.9293 -25.1857 -15.8125 -14.2003 -25.1857 -16.1756 -6.47129 -25.1857 -15.6901 
1.25774 -25.1857 -15.7291 8.98676 -25.1857 -15.5157 16.7158 -25.1857 -15.5406 
24.4448 -25.1857 -15.1299 32.1738 -25.1857 -14.6563 39.9029 -25.1857 -16.0895 
47.6319 -25.1857 -11.6142 -52.8455 -17.4567 -13.0098 -45.1164 -17.4567 -14.8668 
-37.3874 -14.8106 -16.4383 -37.3874 -17.4567 -16.2827 -29.6584 -17.4567 -16.0798 
-21.9293 -17.4567 -15.6889 -14.2003 -17.4567 -15.1911 -6.47129 -17.4567 -14.7194 
1.25774 -17.4567 -14.9037 8.98676 -17.4567 -14.5219 16.7158 -17.4567 -14.1454 
24.4448 -17.4567 -14.5815 32.1738 -17.4567 -15.4134 39.9029 -17.4567 -14.6597 
47.6319 -13.0412 -16.4383 47.6319 -17.4567 -14.8337 55.3609 -17.4567 -11.9135 
-60.5745 -9.72769 -11.398 -52.8455 -9.72769 -14.1936 -39.2246 -9.72769 -16.4383 
-45.1164 -9.72769 -15.4928 -34.9633 -9.72769 -16.4383 -37.3874 -6.17447 -16.4383 
-29.6584 -9.72769 -15.8034 -21.9293 -9.72769 -14.948 -14.2003 -9.72769 -13.9527 
-6.47129 -9.72769 -14.0152 1.25774 -9.72769 -15.0289 8.98676 -9.72769 -13.4727 
16.7158 -9.72769 -12.9149 24.4448 -9.72769 -14.0997 32.1738 -9.72769 -15.0982 
43.7553 -9.72769 -16.4383 39.9029 -9.72769 -15.4496 49.6635 -9.72769 -16.4383 
47.6319 -5.22683 -16.4383 55.3609 -9.72769 -13.0494 63.09 -9.72769 -11.8933 
-60.5745 -1.99866 -11.6181 -52.8455 -1.99866 -15.1167 -45.1164 -1.99866 -15.7756 
-37.3874 -1.99866 -16.0969 -29.6584 -1.99866 -15.5687 -21.9293 -1.99866 -14.1141 
-14.2003 -1.99866 -12.1886 -6.47129 -1.99866 -15.7325 1.25774 -1.99866 -9.68931 
8.98676 -1.99866 -15.8564 16.7158 -1.99866 -12.6298 24.4448 -1.99866 -13.6656 
32.1738 -1.99866 -15.088 39.9029 -1.99866 -15.7077 47.6319 -1.99866 -15.7258 
55.3609 -1.99866 -14.3434 63.09 -1.99866 -15.4075 -60.5745 5.73037 -11.5157 
-52.8455 5.73037 -14.9788 -45.1164 5.73037 -15.8971 -37.3874 7.03061 -16.4383 
-37.3874 5.73037 -16.3376 -29.6584 12.9834 -16.4383 -29.6584 5.73037 -15.9096 
-21.9293 5.73037 -14.8532 -14.2003 5.73037 -12.9818 -6.47129 5.73037 -14.4565 
1.25774 5.73037 -13.9862 8.98676 5.73037 -13.004 16.7158 5.73037 -11.6877 
24.4448 5.73037 -13.509 32.1738 5.73037 -14.4682 39.9029 5.73037 -15.387 
47.6319 5.73037 -15.4786 55.3609 5.73037 -14.5678 63.09 5.73037 -16.3405 
-60.5745 13.4594 -11.3102 -52.8455 13.4594 -13.9616 -40.0811 13.4594 -16.4383 
-45.1164 13.4594 -15.4847 -37.3874 16.4213 -16.4383 -29.3799 13.4594 -16.4383 
-29.6584 14.0579 -16.4383 -21.9293 13.4594 -15.5042 -14.2003 13.4594 -13.9973 
-6.47129 13.4594 -12.4928 1.25774 13.4594 -12.4469 8.98676 13.4594 -10.6178 
16.7158 13.4594 -11.2665 24.4448 13.4594 -12.4918 32.1738 13.4594 -13.9557 
39.9029 13.4594 -14.4493 47.6319 13.4594 -15.5308 55.3609 13.4594 -12.7536 
63.09 13.4594 -12.3018 -52.8455 21.1884 -12.2621 -45.1164 21.1884 -15.1525 
-37.3874 21.1884 -15.6014 -29.6584 21.1884 -16.0489 -21.9293 21.1884 -15.7358 
-14.2003 21.1884 -14.6555 -6.47129 21.1884 -13.5641 1.25774 21.1884 -12.4033 
8.98676 21.1884 -11.6222 16.7158 21.1884 -11.9501 24.4448 21.1884 -12.0058 
32.1738 21.1884 -12.5782 39.9029 21.1884 -13.7108 47.6319 21.1884 -12.3711 
55.3609 21.1884 -13.3382 -45.1164 28.9175 -11.6444 -37.3874 28.9175 -13.6535 
-29.6584 28.9175 -14.3096 -21.9293 28.9175 -15.0817 -14.2003 28.9175 -14.3489 
-6.47129 28.9175 -13.4876 1.25774 28.9175 -12.4025 8.98676 28.9175 -11.2315 
16.7158 28.9175 -10.7054 24.4448 28.9175 -11.1982 32.1738 28.9175 -10.6767 
39.9029 28.9175 -10.1775 47.6319 28.9175 -10.7549 -29.6584 36.6465 -11.2319 
-21.9293 36.6465 -12.4327 -14.2003 36.6465 -12.2077 -6.47129 36.6465 -11.5714 
1.25774 36.6465 -10.3707 8.98676 36.6465 -8.77508 -29.6584 -41.9074 -8.70924 
-21.9293 -43.3164 -8.70924 -14.2003 -45.1142 -8.70924 -6.47129 -46.0777 -8.70924 
1.25774 -46.3179 -8.70924 1.25774 -48.3728 -2.12483 8.98676 -46.0939 -8.70924 
8.98676 -48.3728 -1.34724 16.7158 -45.8559 -8.70924 24.4448 -45.1051 -8.70924 
32.1738 -43.322 -8.70924 -45.1164 -33.9672 -8.70924 -32.8936 -40.6438 -8.70924 
-37.3874 -37.9695 -8.70924 -37.3874 -40.6438 -3.69691 37.6661 -40.6438 -8.70924 
39.9029 -38.2922 -8.70924 39.9029 -40.6438 -5.14555 47.6319 -33.1439 -8.70924 
-46.5578 -32.9148 -8.70924 -52.8455 -26.8237 -8.70924 47.8653 -32.9148 -8.70924 
-54.3873 -25.1857 -8.70924 54.6665 -25.1857 -8.70924 55.3609 -24.706 -8.70924 
55.3609 -25.1857 -7.89503 -59.3818 -17.4567 -8.70924 -60.5745 -14.833 -8.70924 
-60.5745 -17.4567 -6.81406 59.9561 -17.4567 -8.70924 63.09 -11.8362 -8.70924 
63.09 -17.4567 -2.60041 -64.0434 -9.72769 -8.70924 64.8126 -9.72769 -8.70924 
-64.5481 -1.99866 -8.70924 -68.3035 -1.99866 -2.28279 66.5784 -1.99866 -8.70924 
-64.2076 5.73037 -8.70924 -68.3035 5.73037 -1.91828 -6.47129 5.73037 -6.09387 
1.25774 5.73037 -5.944 67.0643 5.73037 -8.70924 70.819 5.73037 -2.76833 
-64.0994 13.4594 -8.70924 -60.5745 16.9639 -8.70924 67.1558 13.4594 -8.70924 
63.09 18.3095 -8.70924 -58.0085 21.1884 -8.70924 -60.5745 21.1884 -5.15078 
-52.8455 26.5131 -8.70924 61.2243 21.1884 -8.70924 55.3609 26.9703 -8.70924 
63.09 21.1884 -7.25561 -49.9629 28.9175 -8.70924 -52.8455 28.9175 -5.24282 
-45.1164 32.2884 -8.70924 -37.3874 36.2095 -8.70924 16.7158 36.1953 -8.70924 
24.4448 34.6121 -8.70924 32.1738 33.2869 -8.70924 39.9029 31.6316 -8.70924 
51.9269 28.9175 -8.70924 47.6319 30.755 -8.70924 55.3609 28.9175 -7.19596 
-36.6402 36.6465 -8.70924 -37.3874 36.6465 -8.18956 -29.6584 39.2589 -8.70924 
-21.9293 40.6984 -8.70924 -14.2003 41.6015 -8.70924 -6.47129 40.8405 -8.70924 
1.25774 39.2486 -8.70924 11.4201 36.6465 -8.70924 8.98676 36.738 -8.70924 
16.7158 36.6465 -8.5376 24.4448 36.6465 -7.52824 32.1738 36.6465 -6.81983 
39.9029 36.6465 -4.55834 47.6319 36.6465 -1.57882 -21.9293 44.3755 -1.70434 
-14.2003 44.3755 -4.05125 -6.47129 44.3755 -3.83819 1.25774 44.3755 -2.53376 
1.25774 -48.6347 -0.980212 8.98676 -48.4551 -0.980212 -37.3874 -41.5491 -0.980212 
-29.6584 -44.7837 -0.980212 -21.9293 -46.6205 -0.980212 -14.2003 -47.7902 -0.980212 
-5.81349 -48.3728 -0.980212 -6.47129 -48.3471 -0.980212 1.25774 -48.3728 -0.396133 
10.7269 -48.3728 -0.980212 8.98676 -48.3728 -0.750562 16.7158 -48.0557 -0.980212 
24.4448 -47.5371 -0.980212 32.1738 -45.6061 -0.980212 39.9029 -41.9398 -0.980212 
-39.03 -40.6438 -0.980212 -45.1164 -36.997 -0.980212 -37.3874 -40.6438 2.21707 
-29.6584 -40.6438 6.38225 24.4448 -40.6438 6.38967 32.1738 -40.6438 4.35231 
41.7789 -40.6438 -0.980212 39.9029 -40.6438 0.920544 47.6319 -35.9855 -0.980212 
-50.4962 -32.9148 -0.980212 -52.8455 -30.8585 -0.980212 -45.1164 -32.9148 5.30304 
39.9029 -32.9148 5.74084 51.2034 -32.9148 -0.980212 47.6319 -32.9148 2.94439 
55.3609 -28.4792 -0.980212 -58.3955 -25.1857 -0.980212 -60.5745 -22.1951 -0.980212 
-52.8455 -25.1857 6.14415 47.6319 -25.1857 5.73043 57.958 -25.1857 -0.980212 
55.3609 -25.1857 2.28055 63.09 -18.5392 -0.980212 -63.6715 -17.4567 -0.980212 
55.3609 -17.4567 4.46268 63.8261 -17.4567 -0.980212 63.09 -17.4567 0.0435541 
-66.9151 -9.72769 -0.980212 -68.3035 -4.35735 -0.980212 67.9645 -9.72769 -0.980212 
63.09 -9.72769 5.18457 -68.9133 -1.99866 -0.980212 -68.3035 -1.99866 3.85223 
-6.47129 -1.28172 -0.980212 1.25774 -0.434942 -0.980212 70.6702 -1.99866 -0.980212 
63.09 -1.99866 4.65688 70.819 -1.28474 -0.980212 -68.7501 5.73037 -0.980212 
-68.3035 8.82382 -0.980212 -68.3035 5.73037 3.51399 -9.61575 5.73037 -0.980212 
-6.47129 8.9508 -0.980212 -6.47129 5.73037 2.75524 4.54732 5.73037 -0.980212 
1.25774 8.7127 -0.980212 1.25774 5.73037 2.91921 70.819 13.3108 -0.980212 
70.819 5.73037 0.991016 -67.5421 13.4594 -0.980212 70.7964 13.4594 -0.980212 
63.09 13.4594 6.48202 -63.0719 21.1884 -0.980212 -60.5745 24.4054 -0.980212 
-60.5745 21.1884 5.7982 68.3765 21.1884 -0.980212 63.09 27.7148 -0.980212 
-55.973 28.9175 -0.980212 -52.8455 31.6749 -0.980212 -45.1164 36.2262 -0.980212 
61.8943 28.9175 -0.980212 55.3609 33.6113 -0.980212 -44.3677 36.6465 -0.980212 
-37.3874 40.1455 -0.980212 -29.6584 42.8888 -0.980212 8.98676 43.7952 -0.980212 
16.7158 42.3004 -0.980212 24.4448 41.255 -0.980212 32.1738 41.1632 -0.980212 
39.9029 38.9345 -0.980212 48.5013 36.6465 -0.980212 47.6319 37.0312 -0.980212 
47.6319 36.6465 1.06578 -23.2125 44.3755 -0.980212 -21.9293 44.6551 -0.980212 
-21.9293 44.3755 0.559039 -14.2003 45.6268 -0.980212 -6.47129 45.7439 -0.980212 
6.00098 44.3755 -0.980212 1.25774 45.2412 -0.980212 -21.9293 -43.1323 6.74882 
-14.2003 -44.6209 6.74882 -6.47129 -44.2712 6.74882 1.25774 -43.8036 6.74882 
8.98676 -44.1242 6.74882 16.7158 -42.6466 6.74882 -37.3874 -38.2535 6.74882 
-28.9084 -40.6438 6.74882 -29.6584 -40.3005 6.74882 -21.9293 -40.6438 8.81817 
-14.2003 -40.6438 9.90882 -6.47129 -40.6438 10.0557 1.25774 -40.6438 9.52265 
8.98676 -40.6438 9.14913 23.0099 -40.6438 6.74882 16.7158 -40.6438 8.02154 
24.4448 -39.9857 6.74882 32.1738 -36.8366 6.74882 -43.3261 -32.9148 6.74882 
-45.1164 -31.6209 6.74882 -37.3874 -32.9148 9.59847 -29.6584 -32.9148 11.7857 
-21.9293 -32.9148 12.5702 -14.2003 -32.9148 13.0874 -6.47129 -32.9148 13.2994 
1.25774 -32.9148 12.9337 8.98676 -32.9148 11.7848 16.7158 -32.9148 11.3439 
24.4448 -32.9148 9.94098 37.6725 -32.9148 6.74882 32.1738 -32.9148 8.89069 
[...]
POINT_DATA 613
SCALARS ImageScalars float
LOOKUP_TABLE default
0 0 0 0 0 0 0 0 0 
0 0 0 0 0 0 0 0 0 
0 0 0 0 0 0 0 0 0 
0 0 0 0 0 0 0 0 0 
0 0 0 0 0 0 0 0 0 
0 0 0 0 0 0 0 0 0 
0 0 0 0 0 0 0 0 0 
0 0 0 0 0 0 0 0 0 
0 0 0 0 0 0 0 0 0 
0 0 0 0 0 0 0 0 0 
0 0 0 0 0 0 0 0 0 
0 0 0 0 0 0 0 0 0 
0 0 0 0 0 0 0 0 0 
0 0 0 0 0 0 0 0 0 
0 0 0 0 0 0 0 0 0 
0 0 0 0 0 0 0 0 0 
0 0 0 0 0 0 0 0 0 
0 0 0 0 0 0 0 0 0 
0 0 0 0 0 0 0 0 0 
0 0 0 0 0 0 0 0 0 
0 0 0 0 0 0 0 0 0 
0 0 0 0 0 0 0 0 0 
0 0 0 0 0 0 0 0 0 
0 0 0 0 0 0 0 0 0 
0 0 0 0 0 0 0 0 0 
0 0 0 0 0 0 0 0 0 
0 0 0 0 0 0 0 0 0 
0 0 0 0 0 0 0 0 0 
0 0 0 0 0 0 0 0 0 
0 0 0 0 0 0 0 0 0 
0 0 0 0 0 0 0 0 0 
0 0 0 0 0 0 0 0 0 
0 0 0 0 0 0 0 0 0 
0 0 0 0 0 0 0 0 0 
0 0 0 0 0 0 0 0 0 
0 0 0 0 0 0 0 0 0 
0 0 0 0 0 0 0 0 0 
0 0 0 0 0 0 0 0 0 
0 0 0 0 0 0 0 0 0 
0 0 0 0 0 0 0 0 0 
0 0 0 0 0 0 0 0 0 
0 0 0 0 0 0 0 0 0 
0 0 0 0 0 0 0 0 0 
0 0 0 0 0 0 0 0 0 
0 0 0 0 0 0 0 0 0 
0 0 0 0 0 0 0 0 0 
0 0 0 0 0 0 0 0 0 
0 0 0 0 0 0 0 0 0 
0 0 0 0 0 0 0 0 0 
0 0 0 0 0 0 0 0 0 
0 0 0 0 0 0 0 0 0 
0 0 0 0 0 0 0 0 0 
0 0 0 0 0 0 0 0 0 
0 0 0 0 0 0 0 0 0 
0 0 0 0 0 0 0 0 0 
0 0 0 0 0 0 0 0 0 
0 0 0 0 0 0 0 0 0 
0 0 0 0 0 0 0 0 0 
0 0 0 0 0 0 0 0 0 
0 0 0 0 0 0 0 0 0 
0 0 0 0 0 0 0 0 0 
0 0 0 0 0 0 0 0 0 
0 0 0 0 0 0 0 0 0 
0 0 0 0 0 0 0 0 0 
0 0 0 0 0 0 0 0 0 
0 0 0 0 0 0 0 0 0 
0 0 0 0 0 0 0 0 0 
0 0 0 0 0 0 0 0 0 
0 
NORMALS Normals float
0.0191095 -0.0130207 0.999733 -0.100508 0.0287942 0.99452 0.0629632 -0.044857 0.997007 
-0.0918575 0.00742763 0.995744 0.246686 0.692545 0.677885 0.149261 0.620196 0.770115 
0.0879506 0.533509 0.841209 0.0477288 0.489234 0.870845 -0.00737675 0.477053 0.878843 
0.0198663 0.486131 0.87366 -0.0130672 0.508214 0.861132 -0.164179 0.563683 0.80951 
-0.215221 0.615697 0.758022 0.435984 0.598391 0.672195 0.271878 0.518522 0.810689 
0.131861 0.352129 0.926616 0.0872623 0.229601 0.969365 0.0331322 0.214734 0.976111 
0.0219544 0.157148 0.987331 -0.00585468 0.151516 0.988437 0.0218481 0.156637 0.987415 
-0.0319465 0.0917548 0.995269 -0.023569 0.144173 0.989272 -0.157435 0.203922 0.966245 
-0.337942 0.448323 0.827528 -0.588994 0.611793 0.52801 0.49962 0.512096 0.698669 
0.354368 0.338174 0.871815 0.152024 0.199482 0.968037 0.0606888 0.149616 0.98688 
0.000171742 0.0496896 0.998765 -0.00805892 0.00844883 0.999932 -0.0285675 -0.0428054 0.998675 
-0.0112877 -0.0348326 0.999329 -0.0121952 -0.0489028 0.998729 -0.0251115 -0.107988 0.993835 
-0.0575515 -0.0154225 0.998223 0.0442617 0.000850591 0.99902 -0.185105 0.173244 0.967328 
-0.409476 0.29757 0.862428 0.352576 0.249632 0.901873 0.210111 0.115495 0.970832 
0.0628931 0.075723 0.995143 0.0848302 0.120231 0.989115 -0.0378767 -0.024523 0.998981 
-0.0557517 -0.0537516 0.996997 -0.0629646 -0.142838 0.987741 -0.0175719 -0.107037 0.9941 
-0.0123148 -0.0460779 0.998862 -0.0486622 -0.127479 0.990647 0.0047195 -0.166603 0.986013 
0.0817753 -0.0667888 0.99441 0.00547749 0.0284618 0.99958 -0.0411668 -0.0224107 0.998901 
-0.160324 0.163325 0.973458 -0.229878 0.370202 0.900059 -0.4197 0.211521 0.882672 
0.520487 0.202874 0.829419 0.21342 0.147273 0.965796 0.0492182 0.00605783 0.99877 
0.150143 0.0605392 0.986809 -0.0218695 -0.0189717 0.999581 0.00407069 -0.0184236 0.999822 
-0.111262 -0.0328353 0.993249 -0.119078 -0.102601 0.987569 -0.0582557 -0.185563 0.980904 
0.0717105 0.0309875 0.996944 -0.0307565 -0.210111 0.977194 -0.145369 0.0685521 0.987 
0.0446497 -0.100057 0.993979 0.13901 -0.0590563 0.988528 0.088774 -0.0213111 0.995824 
0.0169665 0.0517403 0.998516 0.140906 0.068061 0.987681 -0.124187 0.0829849 0.988783 
-0.0883747 -0.0611047 0.994211 -0.314922 0.184823 0.930948 -0.50969 0.416691 0.752718 
0.486438 0.00197793 0.873713 0.31279 0.0479316 0.948612 0.0575247 0.0259704 0.998006 
-0.0135379 -0.0249664 0.999597 -0.126965 0.00682146 0.991884 -0.211521 -0.00411432 0.977365 
0.0309174 -0.0663335 0.997318 -0.0283007 0.0599453 0.9978 0.160391 -0.31541 0.935303 
0.0432591 0.0514383 0.997739 -0.115717 -0.079954 0.990059 0.160639 -0.0379412 0.986284 
0.132971 -0.0407636 0.990281 0.041375 -0.00397896 0.999136 -0.0785514 -0.121557 0.989471 
-0.0688874 0.097759 0.992823 -0.385031 0.0938945 0.918115 0.507524 -0.0144036 0.861517 
0.305974 -0.067352 0.949655 0.081138 -0.0183119 0.996535 0.0109798 0.0376478 0.999231 
0.000580872 0.0540386 0.998539 -0.0919983 0.0105557 0.995703 -0.0950909 0.0582545 0.993763 
-0.180542 0.0888534 0.979546 -0.0540738 0.118119 0.991526 0.125728 -0.3217 0.938457 
-0.117915 0.181348 0.976324 -0.163761 -0.409729 0.897387 0.0708209 -0.0962972 0.99283 
0.172819 -0.0765126 0.981977 0.117094 -0.0725533 0.990467 0.065836 -0.0795372 0.994655 
-0.044387 -0.0123104 0.998939 -0.0179567 -0.110147 0.993753 -0.318176 -0.0862255 0.944102 
0.498078 -0.273069 0.823014 0.220494 -0.192622 0.95618 0.100255 -0.0417315 0.994086 
0.175322 -0.0441461 0.983521 0.0555462 -0.0981798 0.993617 -0.094195 0.0091832 0.995511 
-0.084069 -0.0032832 0.996455 -0.157908 0.0562985 0.985848 -0.189336 0.104844 0.976299 
-0.10368 -0.022888 0.994347 -0.135921 -0.0822654 0.987298 -0.0606749 -0.0187134 0.997982 
0.125671 0.0195908 0.991878 0.172194 -0.0926909 0.980692 0.123924 -0.120277 0.984975 
0.09361 -0.104652 0.990094 -0.106092 -0.200319 0.97397 -0.182563 -0.0860088 0.979425 
-0.474022 -0.485861 0.734331 0.406397 -0.322776 0.854785 0.249655 -0.266984 0.930802 
0.0556248 -0.190627 0.980085 0.0072193 -0.128224 0.991719 -0.0907683 -0.0242617 0.995576 
-0.139513 0.0223964 0.989967 -0.143079 0.0592047 0.987939 -0.125765 -0.00244177 0.992057 
-0.0285382 0.0402952 0.99878 0.0247243 -0.0358475 0.999051 0.0404258 -0.0785063 0.996094 
0.102419 -0.197207 0.974997 -0.00824417 -0.270777 0.962607 -0.038728 -0.256422 0.965789 
-0.22258 -0.251442 0.941932 0.321946 -0.523021 0.789177 0.167736 -0.403586 0.899435 
0.0818804 -0.300519 0.950255 -0.000125654 -0.183451 0.983029 -0.097995 -0.149381 0.983912 
-0.124374 -0.119552 0.985007 -0.143386 -0.123551 0.981924 -0.109149 -0.161786 0.980771 
-0.00458647 -0.213627 0.976905 0.00138083 -0.278815 0.960344 -0.0608085 -0.299065 0.952293 
-0.00514767 -0.421184 0.906961 -0.134176 -0.497347 0.857113 0.217109 -0.610241 0.761886 
0.0580472 -0.526079 0.848452 -0.0506159 -0.437129 0.897974 -0.115938 -0.415152 0.902334 
-0.165046 -0.425749 0.889662 -0.115894 -0.490719 0.863576 0.254534 0.766918 0.589109 
0.185024 0.76207 0.620496 0.143388 0.789689 0.596515 0.0629225 0.823549 0.563744 
0.000919099 0.827468 0.561512 0.00639808 0.999615 -0.0269839 -0.0236729 0.818412 0.574144 
-0.03594 0.998387 -0.0439492 -0.0492579 0.831685 0.553058 -0.163239 0.788923 0.592413 
-0.293855 0.782778 0.548551 0.452986 0.650852 0.609258 0.318187 0.741758 0.590384 
0.383827 0.699017 0.603368 0.45528 0.865668 0.208182 -0.474916 0.716944 0.510339 
-0.518716 0.665884 0.536221 -0.59253 0.793589 0.138296 -0.597173 0.628678 0.498145 
0.4782 0.630466 0.611422 0.529719 0.568963 0.629029 -0.601569 0.622719 0.500336 
0.55421 0.534099 0.638428 -0.498401 0.659156 0.563125 -0.506098 0.661192 0.553796 
-0.547179 0.694979 0.466475 0.65967 0.388364 0.643435 0.64945 0.38734 0.654357 
0.749408 0.453393 0.482517 -0.739369 0.338922 0.581778 -0.713463 0.483407 0.507236 
-0.828025 0.560213 -0.0231281 0.693605 0.233193 0.681567 -0.688717 0.484395 0.539473 
0.668487 -0.001819 0.743722 0.967194 0.0873657 0.238543 -0.860023 0.107158 0.498875 
0.671243 -0.0211674 0.740935 0.97023 -0.063361 0.23375 -0.849765 0.365719 -0.37967 
0.681825 0.667606 -0.299025 -0.831192 0.0346607 0.554904 -0.984435 0.0466989 0.169434 
0.661626 -0.298371 0.687914 0.600523 -0.421521 0.67948 -0.550436 -0.20819 0.808503 
-0.493378 -0.352801 0.795053 0.606583 -0.434105 0.66604 0.759343 -0.535619 0.369472 
0.520423 -0.572593 0.63348 -0.471093 -0.340715 0.813624 -0.309909 -0.493983 0.812365 
-0.579458 -0.38755 0.716961 0.477494 -0.627856 0.614652 0.591853 -0.722151 0.358061 
0.3749 -0.691316 0.617682 0.363749 -0.680288 0.636313 -0.0533219 -0.493538 0.868088 
-0.0637543 -0.50175 0.86266 -0.0924927 -0.503436 0.859068 -0.0868643 -0.506667 0.857755 
-0.240516 -0.540462 0.806258 -0.158288 -0.58918 0.792345 -0.373962 -0.611982 0.696871 
0.358815 -0.687774 0.631046 0.37734 -0.709424 0.595258 0.234693 -0.727242 0.645011 
0.128593 -0.736787 0.663784 0.0104481 -0.706402 0.707734 -0.102314 -0.641336 0.760408 
-0.174501 -0.544898 0.820143 -0.0960672 -0.498312 0.861659 -0.116692 -0.495733 0.8606 
-0.0570494 -0.518923 0.852915 -0.0828352 -0.631187 0.771195 -0.136568 -0.729909 0.669763 
-0.255308 -0.85628 0.449001 -0.309676 -0.918165 0.247131 0.171696 -0.974564 0.144033 
0.0525512 -0.945346 0.321806 -0.0511093 -0.922067 0.383641 -0.138939 -0.924709 0.354414 
0.00699347 0.993984 -0.109298 -0.0364686 0.996922 -0.0694001 0.446997 0.894265 0.0219801 
0.314899 0.948796 -0.0249996 0.18744 0.982275 -0.00145425 0.109902 0.993836 -0.0145756 
0.0507512 0.994483 -0.0918054 0.0548009 0.994439 -0.0899377 0.00833698 0.989245 -0.146033 
-0.0397629 0.996152 -0.0781029 -0.0359207 0.995721 -0.0851494 -0.0542485 0.99225 -0.111791 
-0.162159 0.973476 -0.161395 -0.328743 0.921824 -0.205348 -0.550514 0.817289 -0.170215 
0.468346 0.883292 0.02114 0.553828 0.831498 -0.0434317 0.427656 0.877065 -0.218785 
0.237879 0.745802 -0.622249 -0.238566 0.54402 -0.804443 -0.250099 0.656223 -0.711914 
-0.588809 0.790582 -0.168179 -0.534735 0.772459 -0.342585 -0.643605 0.746518 -0.16877 
0.644372 0.764365 -0.0230244 0.682574 0.730696 -0.0132888 0.476183 0.696614 -0.536636 
-0.330491 0.468305 -0.819431 -0.685734 0.708404 -0.167132 -0.560623 0.602466 -0.568099 
-0.752861 0.634682 -0.174297 0.775228 0.631636 0.00760268 0.814806 0.575407 0.0706899 
0.54989 0.554556 -0.624571 -0.412493 0.323763 -0.851485 -0.770274 0.595455 -0.228277 
-0.687125 0.504032 -0.523269 -0.792526 0.590342 -0.152967 0.868064 0.494631 0.0424842 
-0.49208 0.320572 -0.809377 -0.80578 0.576099 -0.137219 -0.784338 0.588326 -0.196691 
0.95338 0.30099 -0.0217032 0.979633 0.170293 0.106395 -0.894533 0.386964 -0.223762 
-0.586228 0.192749 -0.786883 0.981208 0.116323 0.153948 0.955157 0.150936 -0.254741 
-0.485938 -0.85337 0.18874 0.646126 -0.737765 0.195511 -0.945036 0.312816 -0.0951458 
-0.591587 0.149715 -0.792219 -0.95561 0.284559 -0.0763872 0.981127 -0.0810282 0.175569 
0.976543 -0.177637 0.121691 0.977176 -0.0839068 -0.195156 -0.923786 0.325271 0.202034 
-0.603055 0.760031 0.242235 -0.748487 0.390719 0.535823 0.940576 0.264071 0.213504 
0.599325 0.771287 0.214303 0.691078 0.545817 0.473809 -0.968952 -0.208971 -0.132148 
-0.989936 0.037905 -0.136345 0.942279 -0.333336 0.0315717 -0.967779 -0.212584 -0.134952 
-0.578344 0.0561216 -0.81386 0.820031 -0.565592 0.0874961 0.757034 -0.646691 0.0932211 
0.771093 -0.518934 -0.368948 -0.866066 -0.499684 -0.015677 -0.739563 -0.672217 0.0342179 
0.652771 -0.750658 0.101992 0.597201 -0.795206 0.104877 0.469378 -0.872778 0.133949 
-0.710678 -0.70313 0.0233243 -0.474066 -0.878212 0.0632821 0.458559 -0.878573 0.133536 
0.377455 -0.915905 0.13655 0.292699 -0.948029 0.124775 -0.186734 -0.925619 0.329181 
-0.156569 -0.944746 0.287995 -0.076514 -0.966785 0.243868 -0.146633 -0.963984 0.221884 
-0.259189 -0.950852 0.169416 -0.330668 -0.924455 0.189847 -0.320627 -0.925031 0.203756 
-0.326986 -0.943902 0.0461407 0.19009 -0.976238 0.10404 0.168996 -0.980469 0.100601 
0.175796 -0.984401 0.00710745 0.0681271 -0.990228 0.121687 -0.0224062 -0.976959 0.212249 
-0.165758 -0.941204 0.294379 -0.125385 -0.96054 0.248276 0.196587 0.72997 -0.654597 
0.0562902 0.759819 -0.647693 -0.0399812 0.751238 -0.658819 -0.00998417 0.704035 -0.710095 
-0.0452563 0.671735 -0.739408 -0.15293 0.583985 -0.797229 0.345073 0.67636 -0.65074 
0.226844 0.719946 -0.655912 0.229796 0.716035 -0.659157 0.158208 0.611598 -0.775189 
0.0738546 0.551678 -0.830781 -0.02034 0.554026 -0.832251 -0.0525721 0.547653 -0.835052 
-0.0926737 0.487792 -0.868027 -0.225069 0.519514 -0.824287 -0.147674 0.4954 -0.856021 
-0.229733 0.504644 -0.8322 -0.2253 0.469074 -0.853938 0.413692 0.609086 -0.676663 
0.426287 0.615701 -0.662716 0.286462 0.450467 -0.845588 0.203803 0.358192 -0.911133 
0.0705504 0.343374 -0.936545 0.0475974 0.265134 -0.963036 -0.00943233 0.251175 -0.967896 
-0.0970158 0.242318 -0.965334 -0.0972194 0.232159 -0.967807 -0.110789 0.265529 -0.957716 
-0.156554 0.267895 -0.950643 -0.283853 0.411649 -0.866009 -0.223813 0.340167 -0.913342 
-0.297939 0.38953 -0.871492 0.673811 0.441957 -0.592159 0.512391 0.527051 -0.677992 
0.512688 0.525593 -0.678899 0.32015 0.394687 -0.861235 0.187811 0.309949 -0.932018 
0.0905726 0.202456 -0.975094 -0.0325663 0.0808442 -0.996195 -0.0316037 0.0322984 -0.998978 
-0.0981914 0.0369662 -0.994481 -0.0954925 0.0708869 -0.992903 -0.0943631 0.0844173 -0.991952 
-0.114889 0.137202 -0.983858 -0.138829 0.173953 -0.974919 -0.354181 0.282682 -0.89143 
-0.258553 0.225415 -0.939329 -0.374024 0.318009 -0.871193 0.706498 0.394075 -0.587848 
0.665161 0.397866 -0.631873 0.370073 0.35725 -0.857565 0.229233 0.305147 -0.924304 
-0.0864841 0.00994075 -0.996204 -0.0546143 -0.0392085 -0.997737 -0.0607241 0.0405012 -0.997333 
-0.054765 0.101366 -0.993341 -0.0447391 0.100512 -0.993929 -0.0865313 0.0284451 -0.995843 
-0.131342 0.057572 -0.989664 -0.128145 0.118911 -0.984601 -0.39723 0.304978 -0.865561 
-0.349826 0.327576 -0.877676 -0.369845 0.298964 -0.879679 0.754814 0.303844 -0.581321 
0.592246 0.301707 -0.747139 0.262883 0.294633 -0.91874 0.000623278 0.153624 -0.988129 
-0.194091 0.178449 -0.964616 -0.150322 -0.0222144 -0.988388 -0.0447924 0.0502721 -0.997731 
-0.0534215 0.159518 -0.985748 -0.180304 0.0904732 -0.979441 -0.405801 0.256696 -0.877173 
-0.354501 0.325487 -0.876577 0.835383 0.162516 -0.525094 0.492098 0.00198343 -0.870537 
-0.123188 0.106046 -0.986701 -0.145754 0.0984996 -0.984405 0.0462189 0.141682 -0.988833 
-0.0646004 0.129521 -0.98947 -0.11179 0.152286 -0.981994 -0.492814 0.175172 -0.85232 
-0.408825 0.21505 -0.886914 -0.51867 0.119771 -0.846544 0.864626 -0.0769219 -0.496493 
0.551408 -0.0159993 -0.834083 -0.0841291 -0.019854 -0.996257 -0.0344249 0.196943 -0.97981 
-0.0111157 0.185472 -0.982587 -0.0393837 0.1042 -0.993776 -0.147656 0.109462 -0.982963 
-0.278002 0.150265 -0.948755 -0.551389 0.12341 -0.82507 -0.553446 0.0776812 -0.829255 
-0.492703 0.126776 -0.860913 0.81714 -0.341327 -0.46452 0.750976 -0.491073 -0.441455 
0.555037 -0.116206 -0.823669 -0.0465086 0.0377339 -0.998205 -0.141973 0.0656021 -0.987694 
-0.0385434 -0.0208871 -0.999039 -0.560666 0.0603427 -0.82584 -0.257361 0.123453 -0.958397 
-0.57656 0.0376779 -0.816185 0.744733 -0.498038 -0.444219 0.470443 -0.309061 -0.826538 
-0.1345 -0.0807645 -0.987617 -0.132698 -0.0140006 -0.991058 -0.266828 -0.288055 -0.919689 
-0.725978 -0.21155 -0.654371 -0.654292 -0.334858 -0.678065 -0.616545 -0.179499 -0.766585 
0.613589 -0.703056 -0.359473 0.612205 -0.704358 -0.359284 0.611612 -0.701756 -0.365333 
0.435597 -0.826592 -0.356371 0.363928 -0.544902 -0.755406 -0.0242794 -0.227143 -0.973559 
-0.132881 -0.348679 -0.927774 -0.299096 -0.773606 -0.558638 -0.241989 -0.350002 -0.904953 
-0.510997 -0.557534 -0.654246 -0.471823 -0.597168 -0.648671 -0.485082 -0.551787 -0.6784 
0.403491 -0.838344 -0.366572 0.379312 -0.838008 -0.392255 0.34725 -0.767725 -0.538531 
0.24554 -0.885262 -0.394997 0.193174 -0.646164 -0.738347 0.182317 -0.894432 -0.408353 
0.0890908 -0.559629 -0.823941 -0.173318 -0.956034 -0.23656 -0.245613 -0.908438 -0.338252 
-0.24214 -0.535622 -0.808998 -0.170454 -0.896112 -0.409792 -0.193267 -0.607008 -0.770836 
-0.180753 -0.834713 -0.520175 -0.167918 -0.690854 -0.703225 -0.271356 -0.829105 -0.488825 
-0.265311 -0.836838 -0.478866 -0.262182 -0.820883 -0.507358 0.150626 -0.921127 -0.358938 
0.146982 -0.923139 -0.355262 0.147932 -0.918529 -0.366634 0.0331962 -0.954448 -0.296525 
0.0434091 -0.897989 -0.437872 -0.158758 -0.957938 -0.23906 -0.084139 -0.960674 -0.264625 
-0.0814209 -0.937525 -0.338256 0.0341328 0.198896 -0.979426 0.0940318 0.233254 -0.967859 
0.0529415 0.17884 -0.982453 0.0605448 0.186604 -0.980568 -0.0174218 0.102057 -0.994626 
0.0282054 0.165241 -0.98585 0.171153 0.271948 -0.946969 0.22322 0.289303 -0.930847 
0.0627962 0.209762 -0.975734 0.0271737 0.174066 -0.984359 -0.0834999 0.0140398 -0.996409 
-0.0558178 0.0585913 -0.99672 -0.12394 0.026943 -0.991924 0.0495965 0.00645421 -0.998748 
-0.0302999 0.158139 -0.986952 0.229392 0.2614 -0.937576 0.231893 0.254849 -0.938764 
0.167889 0.167191 -0.971525 0.0513226 0.177869 -0.982715 -0.0674053 0.138006 -0.988135 
-0.135611 0.0820305 -0.98736 -0.126471 0.0301404 -0.991512 -0.127815 0.0287384 -0.991382 
0.0512469 0.0118306 -0.998616 -0.0227857 0.172148 -0.984808 0.0500013 0.00810835 -0.998716 
0.0534027 0.00597139 -0.998555 -0.0710928 0.168982 -0.983052 -0.0275916 0.163725 -0.98612 
-0.215114 0.13833 -0.966742 0.416093 0.0296272 -0.908839 0.210939 0.141348 -0.967226 
0.118807 0.116216 -0.986093 0.0330194 0.0819892 -0.996086 -0.0683828 0.0861837 -0.99393 
-0.160666 0.0642058 -0.984918 -0.0196485 0.0484905 -0.99863 -0.0908196 0.163334 -0.982382 
-0.0403266 0.229897 -0.972379 0.0426967 0.0533178 -0.997664 -0.137755 0.104352 -0.984954 
0.114619 -0.000635453 -0.993409 -0.244669 0.0364315 -0.968922 -0.117948 -0.0184779 -0.992848 
-0.270446 0.00450353 -0.962725 0.417724 0.00514864 -0.90856 0.331294 0.0136793 -0.943429 
0.143286 0.024451 -0.989379 0.020087 0.0385784 -0.999054 -0.0864199 0.0584445 -0.994543 
-0.172102 0.0739119 -0.982302 0.0101873 0.101026 -0.994832 0.137456 -0.09374 -0.986062 
-0.055183 0.0372489 -0.997781 -0.24576 0.00850193 -0.969293 -0.0943951 -0.0253466 -0.995212 
-0.10593 -0.0272951 -0.993999 -0.0540125 0.0112866 -0.998476 -0.00495825 0.133864 -0.990987 
-0.0293752 0.131934 -0.990823 0.482244 -0.121229 -0.867608 0.335355 -0.246087 -0.909383 
0.248993 -0.196106 -0.948443 0.138351 -0.0539049 -0.988915 0.0659852 -0.00930001 -0.997777 
-0.0286863 0.0300553 -0.999137 -0.118661 0.0835825 -0.989411 -0.13957 0.146541 -0.979309 
-0.054466 0.0297771 -0.998072 -0.128538 -0.0407906 -0.990865 -0.0252204 0.0501885 -0.998421 
-0.0450101 0.0420104 -0.998103 0.0375245 0.0946134 -0.994807 0.00784309 0.0829087 -0.996526 
0.00881242 0.108242 -0.994086 -0.114511 0.0709735 -0.990883 -0.0448486 0.0922978 -0.994721 
0.390823 -0.262546 -0.882228 0.314944 -0.420219 -0.851015 0.259029 -0.213328 -0.942016 
0.115316 -0.132663 -0.98443 0.00249192 -0.0893077 -0.996001 -0.0565649 -0.0262122 -0.998055 
-0.110792 0.0560671 -0.992261 -0.0754253 0.072303 -0.994527 -0.0115742 0.143 -0.989655 
-0.0488166 0.125071 -0.990946 -0.0715457 0.00940215 -0.997393 -0.0235243 -0.167838 -0.985534 
-0.0302992 -0.0441136 -0.998567 -0.112559 -0.0630152 -0.991645 -0.0554034 -0.0250786 -0.998149 
0.291683 -0.466533 -0.835025 0.252171 -0.519454 -0.816442 0.210521 -0.382639 -0.899593 
0.144229 -0.521255 -0.841125 0.0630381 -0.290952 -0.954659 0.0748397 -0.506705 -0.858865 
0.0264598 -0.227391 -0.973444 -0.0415787 -0.170511 -0.984478 -0.0406993 -0.0734388 -0.996469 
0.00390616 -0.0428989 -0.999072 -0.102901 -0.0755975 -0.991815 -0.060225 -0.202562 -0.977416 
-0.177974 -0.247701 -0.952349 -0.153229 -0.151671 -0.976482 -0.0486107 -0.262123 -0.963809 
-0.0880544 -0.303346 -0.948803 -0.0821557 -0.329035 -0.940737 -0.0808014 -0.30669 -0.948373 
0.0767893 -0.490625 -0.867981 0.0773933 -0.466764 -0.880989 0.0688332 -0.44597 -0.892397 
0.0609235 -0.418902 -0.905985 0.0556733 -0.34075 -0.938504 -0.0215409 -0.464339 -0.885396 
-0.00828329 -0.340387 -0.940249 -0.187885 -0.416218 -0.889641 -0.173482 -0.446665 -0.877721 
-0.161767 -0.391608 -0.905801 
