# vtk DataFile Version 4.2
vtk output
ASCII
DATASET POLYDATA
POINTS 546 float
-31.702 -22.2728 -11.9148 -24.0387 -22.2728 -12.1311 -16.3755 -22.2728 -12.3991 
-8.71228 -22.2728 -12.318 6.61419 -22.2728 -12.7179 14.2774 -22.2728 -12.2385 
-39.3652 -14.6095 -12.9007 -31.702 -14.6095 -13.3878 -24.0387 -14.6095 -13.1065 
-16.3755 -14.6095 -12.3829 -8.71228 -14.6095 -12.0254 6.61419 -14.6095 -12.4134 
14.2774 -14.6095 -12.4442 21.9407 -14.6095 -12.5918 29.6039 -14.6095 -13.914 
37.2671 -14.6095 -13.6351 44.9304 -14.6095 -14.7228 52.5936 -14.6095 -12.1903 
-47.0285 -6.9463 -13.5693 -39.3652 -6.9463 -14.5972 -31.702 -6.9463 -14.6618 
-24.0387 -6.9463 -13.8863 -16.3755 -6.9463 -12.1726 -1.04904 -6.9463 -14.5515 
6.61419 -6.9463 -14.0626 21.9407 -6.9463 -12.4389 29.6039 -6.9463 -14.1425 
37.2671 -6.9463 -15.679 44.9304 -6.9463 -15.437 52.5936 -6.9463 -16.0104 
60.2568 -6.9463 -14.0904 -47.0285 0.716939 -14.7709 -39.3652 0.716939 -15.2396 
-31.702 0.716939 -15.2457 -24.0387 0.716939 -14.3757 -16.3755 0.716939 -13.0101 
-8.71228 0.716939 -14.7925 6.61419 0.716939 -16.6139 21.9407 0.716939 -12.4264 
29.6039 0.716939 -14.6393 37.2671 0.716939 -16.4418 44.9304 0.716939 -16.2081 
52.5936 0.716939 -18.5357 60.2568 0.716939 -13.1734 -54.6917 8.38017 -12.2794 
-47.0285 8.38017 -14.5216 -39.3652 8.38017 -15.0806 -31.702 8.38017 -15.0919 
-24.0387 8.38017 -14.2364 -16.3755 8.38017 -12.792 -8.71228 8.38017 -14.5427 
-1.04904 8.38017 -15.9985 6.61419 8.38017 -17.2877 14.2774 8.38017 -12.3957 
21.9407 8.38017 -12.8307 29.6039 8.38017 -14.8197 37.2671 8.38017 -17.0084 
44.9304 8.38017 -16.1064 52.5936 8.38017 -19.1273 60.2568 8.38017 -13.1798 
-47.0285 16.0434 -12.9683 -39.3652 16.0434 -14.42 -31.702 16.0434 -15.6218 
-24.0387 16.0434 -14.5882 -16.3755 16.0434 -13.7634 -8.71228 16.0434 -14.0914 
-1.04904 16.0434 -15.8594 6.61419 16.0434 -16.305 14.2774 16.0434 -14.8336 
21.9407 16.0434 -14.6914 29.6039 16.0434 -15.0119 37.2671 16.0434 -15.8989 
44.9304 16.0434 -15.9102 52.5936 16.0434 -15.0081 60.2568 16.0434 -12.0004 
-39.3652 23.7066 -14.4872 -31.702 23.7066 -14.5258 -24.0387 23.7066 -14.5813 
-16.3755 23.7066 -14.608 -8.71228 23.7066 -14.2392 -1.04904 23.7066 -14.7367 
6.61419 23.7066 -15.7051 14.2774 23.7066 -15.7711 21.9407 23.7066 -15.0834 
29.6039 23.7066 -15.2194 37.2671 23.7066 -14.8606 44.9304 23.7066 -14.1443 
-31.702 31.3699 -13.4234 -24.0387 31.3699 -13.7201 -16.3755 31.3699 -14.4561 
-8.71228 31.3699 -14.2194 -1.04904 31.3699 -13.6151 6.61419 31.3699 -14.6863 
14.2774 31.3699 -15.0986 21.9407 31.3699 -14.5761 29.6039 31.3699 -13.3377 
-16.3755 39.0331 -11.9966 -24.0387 -37.5992 -4.62849 -16.3755 -37.5992 -6.12613 
-8.71228 -37.5992 -6.31201 -1.04904 -37.5992 -5.73532 6.61419 -37.5992 -4.47605 
-39.3652 -29.936 -6.12473 -31.702 -22.2905 -11.9072 -31.702 -29.936 -8.05948 
-24.0387 -23.1398 -11.9072 -24.0387 -29.936 -9.93302 -16.3755 -24.4912 -11.9072 
-16.3755 -29.936 -10.6161 -8.71228 -23.9851 -11.9072 -8.71228 -29.936 -10.4343 
-1.04904 -29.936 -10.1343 6.61419 -24.9074 -11.9072 6.61419 -29.936 -10.1083 
14.2774 -23.4583 -11.9072 14.2774 -29.936 -9.63746 21.9407 -29.936 -7.78437 
29.6039 -29.936 -6.77783 37.2671 -29.936 -5.03633 -47.0285 -22.2728 -8.15659 
-31.7358 -22.2728 -11.9072 -39.3652 -17.3702 -11.9072 -39.3652 -22.2728 -10.0879 
-1.111 -22.2728 -11.9072 -1.01901 -22.2728 -11.9072 -1.04904 -22.2728 -11.9038 
18.2584 -22.2728 -11.9072 21.9407 -19.9345 -11.9072 21.9407 -22.2728 -11.587 
29.6039 -20.2403 -11.9072 29.6039 -22.2728 -11.1918 37.2671 -20.1271 -11.9072 
37.2671 -22.2728 -11.2151 44.9304 -18.9746 -11.9072 44.9304 -22.2728 -9.96453 
52.5936 -15.2996 -11.9072 52.5936 -22.2728 -7.76113 -54.6917 -14.6095 -7.57796 
-43.0383 -14.6095 -11.9072 -47.0285 -11.4113 -11.9072 -47.0285 -14.6095 -10.8149 
-6.78119 -14.6095 -11.9072 -8.71228 -10.344 -11.9072 2.095 -14.6095 -11.9072 
-1.04904 -13.2236 -11.9072 -1.04904 -14.6095 -11.5564 14.2774 -7.34451 -11.9072 
53.6218 -14.6095 -11.9072 60.2568 -11.5974 -11.9072 60.2568 -14.6095 -9.51106 
-52.8574 -6.9463 -11.9072 -54.6917 -6.9463 -11.1548 -10.8625 -6.9463 -11.9072 
-8.28365 -6.9463 -11.9072 -8.71228 -6.49843 -11.9072 -8.71228 -6.9463 -11.8059 
-1.04904 -1.19411 -11.9072 14.1377 -6.9463 -11.9072 14.7354 -6.9463 -11.9072 
14.2774 -6.9463 -11.8776 64.2464 -6.9463 -11.9072 67.9201 -6.9463 -6.82637 
-62.3549 0.716939 -4.82057 -52.4373 0.716939 -11.9072 -54.6917 6.23224 -11.9072 
-54.6917 0.716939 -10.7174 -3.02768 0.716939 -11.9072 0.0818746 0.716939 -11.9072 
-1.04904 1.744 -11.9072 -1.04904 0.716939 -10.7832 12.173 0.716939 -11.9072 
19.5777 0.716939 -11.9072 14.2774 6.74697 -11.9072 14.2774 0.716939 -10.7495 
63.105 0.716939 -11.9072 67.9201 0.716939 -7.18258 -55.2132 8.38017 -11.9072 
-54.6917 10.5166 -11.9072 63.5959 8.38017 -11.9072 67.9201 8.38017 -6.33877 
-50.5158 16.0434 -11.9072 -54.6917 16.0434 -10.3955 -47.0285 19.175 -11.9072 
52.5936 22.7196 -11.9072 60.3971 16.0434 -11.9072 60.2568 16.1919 -11.9072 
-54.6917 23.7066 -6.05882 -44.1257 23.7066 -11.9072 -47.0285 23.7066 -10.427 
-39.3652 28.9699 -11.9072 37.2671 29.6849 -11.9072 51.3514 23.7066 -11.9072 
44.9304 26.8551 -11.9072 52.5936 23.7066 -9.46877 -47.0285 31.3699 -6.35401 
-36.5079 31.3699 -11.9072 -39.3652 31.3699 -10.6972 -31.702 37.023 -11.9072 
-24.0387 36.9305 -11.9072 -8.71228 38.4429 -11.9072 -1.04904 36.7067 -11.9072 
6.61419 37.5695 -11.9072 14.2774 38.1417 -11.9072 21.9407 36.0112 -11.9072 
34.1379 31.3699 -11.9072 29.6039 33.5085 -11.9072 37.2671 31.3699 -8.10859 
-31.702 39.0331 -10.4341 -17.2989 39.0331 -11.9072 -24.0387 39.0331 -10.9447 
-14.0991 39.0331 -11.9072 -16.3755 39.2087 -11.9072 -8.71228 39.0331 -11.5984 
-1.04904 39.0331 -10.6782 6.61419 39.0331 -10.5279 14.2774 39.0331 -10.8627 
21.9407 39.0331 -7.34546 -24.0387 -37.9378 -4.24393 -16.3755 -39.6342 -4.24393 
-8.71228 -39.9424 -4.24393 -1.04904 -39.219 -4.24393 6.61419 -37.8131 -4.24393 
-39.3652 -31.836 -4.24393 -25.0969 -37.5992 -4.24393 -31.702 -35.0293 -4.24393 
-31.702 -37.5992 0.0677285 7.33861 -37.5992 -4.24393 14.2774 -35.4755 -4.24393 
14.2774 -37.5992 0.887352 21.9407 -33.1651 -4.24393 29.6039 -31.6051 -4.24393 
37.2671 -30.3772 -4.24393 -42.6249 -29.936 -4.24393 -47.0285 -27.0501 -4.24393 
39.0261 -29.936 -4.24393 44.9304 -28.2807 -4.24393 52.5936 -24.5322 -4.24393 
-52.4232 -22.2728 -4.24393 -54.6917 -19.4982 -4.24393 -54.6917 -22.2728 3.19787 
56.5008 -22.2728 -4.24393 60.2568 -19.4568 -4.24393 -57.9359 -14.6095 -4.24393 
64.0468 -14.6095 -4.24393 60.2568 -14.6095 2.47101 67.9201 -8.81148 -4.24393 
-60.637 -6.9463 -4.24393 -62.3549 -1.18775 -4.24393 69.0173 -6.9463 -4.24393 
67.9201 -6.9463 -2.49869 -62.7676 0.716939 -4.24393 -62.3549 3.95693 -4.24393 
69.0497 0.716939 -4.24393 67.9201 0.716939 -2.70929 -61.6043 8.38017 -4.24393 
68.4343 8.38017 -4.24393 67.9201 9.19597 -4.24393 67.9201 8.38017 -2.52624 
-59.6968 16.0434 -4.24393 63.1359 16.0434 -4.24393 60.2568 19.1103 -4.24393 
60.2568 16.0434 -1.33726 -56.0383 23.7066 -4.24393 -54.6917 25.4868 -4.24393 
44.9304 28.2618 -4.24393 44.9304 23.7066 1.93171 53.9198 23.7066 -4.24393 
52.5936 24.5863 -4.24393 52.5936 23.7066 -3.21511 -48.6683 31.3699 -4.24393 
-47.0285 32.795 -4.24393 -39.3652 38.0352 -4.24393 29.6039 36.8951 -4.24393 
29.6039 31.3699 2.48772 39.4302 31.3699 -4.24393 37.2671 32.7759 -4.24393 
37.2671 31.3699 -2.64175 -37.5175 39.0331 -4.24393 -31.702 41.6275 -4.24393 
-24.0387 43.8847 -4.24393 -16.3755 44.6928 -4.24393 -8.71228 44.1253 -4.24393 
-1.04904 42.8721 -4.24393 6.61419 42.2107 -4.24393 14.2774 41.893 -4.24393 
14.2774 39.0331 2.124 24.8095 39.0331 -4.24393 21.9407 40.1812 -4.24393 
21.9407 39.0331 -2.06963 -31.702 -39.0404 3.41931 -24.0387 -42.1367 3.41931 
-16.3755 -44.2112 3.41931 -8.71228 -44.8847 3.41931 -1.04904 -44.2045 3.41931 
6.61419 -41.9987 3.41931 14.2774 -38.4885 3.41931 -34.6183 -37.5992 3.41931 
-39.3652 -35.0691 3.41931 -31.702 -37.5992 10.2605 16.3177 -37.5992 3.41931 
14.2774 -37.5992 7.48176 21.9407 -35.2869 3.41931 29.6039 -33.2832 3.41931 
37.2671 -31.1846 3.41931 -54.6917 -22.3336 3.41931 -46.9597 -29.936 3.41931 
-47.0285 -29.8828 3.41931 29.6039 -29.936 7.97196 40.6021 -29.936 3.41931 
37.2671 -29.936 5.46275 44.9304 -27.3682 3.41931 52.5936 -22.8667 3.41931 
-54.7427 -22.2728 3.41931 -54.6917 -22.2728 3.52216 37.2671 -22.2728 10.3156 
44.9304 -22.2728 8.05459 53.2459 -22.2728 3.41931 52.5936 -22.2728 3.91462 
-59.4324 -14.6095 3.41931 -54.6917 -14.6095 10.6588 44.9304 -14.6095 9.78402 
59.0984 -14.6095 3.41931 52.5936 -14.6095 6.58073 60.2568 -13.5718 3.41931 
-61.7714 -6.9463 3.41931 -62.3549 -4.23615 3.41931 44.9304 -6.9463 10.4305 
52.5936 -6.9463 9.44577 63.6833 -6.9463 3.41931 60.2568 -6.9463 6.1601 
-63.2451 0.716939 3.41931 -62.3549 6.13739 3.41931 -62.3549 0.716939 4.85389 
44.9304 0.716939 9.89123 52.5936 0.716939 8.12349 63.0669 0.716939 3.41931 
60.2568 0.716939 5.65925 -61.9069 8.38017 3.41931 29.6039 8.38017 9.92709 
37.2671 8.38017 9.42637 44.9304 8.38017 9.08154 52.5936 8.38017 6.06896 
61.3717 8.38017 3.41931 60.2568 8.89013 3.41931 60.2568 8.38017 4.09957 
-59.5666 16.0434 3.41931 -54.6917 16.0434 9.45517 21.9407 16.0434 9.44814 
29.6039 16.0434 8.10977 37.2671 16.0434 7.68518 44.9304 22.333 3.41931 
44.9304 16.0434 6.84763 53.7486 16.0434 3.41931 52.5936 17.0056 3.41931 
52.5936 16.0434 4.08991 -54.6981 23.7066 3.41931 -54.6917 23.7143 3.41931 
-54.6917 23.7066 3.42826 -47.0285 23.7066 10.0106 21.9407 23.7066 8.21542 
29.6039 29.5577 3.41931 29.6039 23.7066 5.71161 42.0494 23.7066 3.41931 
37.2671 25.8722 3.41931 37.2671 23.7066 4.84885 -47.1636 31.3699 3.41931 
-47.0285 31.4794 3.41931 -47.0285 31.3699 3.55119 -39.3652 35.6957 3.41931 
-39.3652 31.3699 7.67266 -31.702 31.3699 9.01037 -24.0387 31.3699 10.2378 
-8.71228 31.3699 10.8663 -1.04904 31.3699 9.28701 6.61419 31.3699 8.3825 
14.2774 38.101 3.41931 14.2774 31.3699 7.94153 27.7541 31.3699 3.41931 
21.9407 34.6391 3.41931 21.9407 31.3699 5.98036 -31.7231 39.0331 3.41931 
-31.702 39.0418 3.41931 -31.702 39.0331 3.42905 -24.0387 41.5181 3.41931 
[...]
POINT_DATA 546
SCALARS ImageScalars float
LOOKUP_TABLE default
0 0 0 0 0 0 0 0 0 
0 0 0 0 0 0 0 0 0 
0 0 0 0 0 0 0 0 0 
0 0 0 0 0 0 0 0 0 
0 0 0 0 0 0 0 0 0 
0 0 0 0 0 0 0 0 0 
0 0 0 0 0 0 0 0 0 
0 0 0 0 0 0 0 0 0 
0 0 0 0 0 0 0 0 0 
0 0 0 0 0 0 0 0 0 
0 0 0 0 0 0 0 0 0 
0 0 0 0 0 0 0 0 0 
0 0 0 0 0 0 0 0 0 
0 0 0 0 0 0 0 0 0 
0 0 0 0 0 0 0 0 0 
0 0 0 0 0 0 0 0 0 
0 0 0 0 0 0 0 0 0 
0 0 0 0 0 0 0 0 0 
0 0 0 0 0 0 0 0 0 
0 0 0 0 0 0 0 0 0 
0 0 0 0 0 0 0 0 0 
0 0 0 0 0 0 0 0 0 
0 0 0 0 0 0 0 0 0 
0 0 0 0 0 0 0 0 0 
0 0 0 0 0 0 0 0 0 
0 0 0 0 0 0 0 0 0 
0 0 0 0 0 0 0 0 0 
0 0 0 0 0 0 0 0 0 
0 0 0 0 0 0 0 0 0 
0 0 0 0 0 0 0 0 0 
0 0 0 0 0 0 0 0 0 
0 0 0 0 0 0 0 0 0 
0 0 0 0 0 0 0 0 0 
0 0 0 0 0 0 0 0 0 
0 0 0 0 0 0 0 0 0 
0 0 0 0 0 0 0 0 0 
0 0 0 0 0 0 0 0 0 
0 0 0 0 0 0 0 0 0 
0 0 0 0 0 0 0 0 0 
0 0 0 0 0 0 0 0 0 
0 0 0 0 0 0 0 0 0 
0 0 0 0 0 0 0 0 0 
0 0 0 0 0 0 0 0 0 
0 0 0 0 0 0 0 0 0 
0 0 0 0 0 0 0 0 0 
0 0 0 0 0 0 0 0 0 
0 0 0 0 0 0 0 0 0 
0 0 0 0 0 0 0 0 0 
0 0 0 0 0 0 0 0 0 
0 0 0 0 0 0 0 0 0 
0 0 0 0 0 0 0 0 0 
0 0 0 0 0 0 0 0 0 
0 0 0 0 0 0 0 0 0 
0 0 0 0 0 0 0 0 0 
0 0 0 0 0 0 0 0 0 
0 0 0 0 0 0 0 0 0 
0 0 0 0 0 0 0 0 0 
0 0 0 0 0 0 0 0 0 
0 0 0 0 0 0 0 0 0 
0 0 0 0 0 0 0 0 0 
0 0 0 0 0 0 
NORMALS Normals float
0.126518 0.30886 0.942655 0.0318496 0.188962 0.981468 0.0117525 0.107634 0.994121 
-0.0324741 0.100488 0.994408 0.0216653 0.134082 0.990733 -0.0723994 0.149655 0.986084 
0.149759 0.267546 0.951836 0.0129384 0.179615 0.983652 -0.0649442 0.108782 0.991942 
-0.0702931 -0.0135498 0.997434 -0.053316 -0.0288586 0.998161 0.0556652 0.058621 0.996727 
0.0116229 -0.00826347 0.999898 0.0925579 0.0525336 0.994321 0.0706299 0.190585 0.979126 
0.040363 0.260408 0.964655 -0.068125 0.326925 0.942592 -0.265592 0.381685 0.885312 
0.22208 0.240495 0.944903 0.0637024 0.150267 0.986591 -0.0431579 0.12058 0.991765 
-0.154722 0.0846319 0.984326 -0.125253 0.0432059 0.991184 0.110339 0.104481 0.988387 
-0.124319 0.270024 0.954794 0.139295 -0.0113771 0.990186 0.191977 0.0457949 0.98033 
0.0848235 0.172885 0.981283 0.0149701 0.0900988 0.99582 -0.106888 0.383061 0.917518 
-0.327175 0.206931 0.922028 0.271874 0.0563758 0.96068 0.02774 0.0312041 0.999128 
-0.0559948 0.0266201 0.998076 -0.144513 0.0203155 0.989294 -0.0280106 0.0373119 0.998911 
-0.014575 0.121873 0.992439 0.134339 0.276211 0.951662 0.219552 0.0214425 0.975365 
0.240621 0.0430243 0.969665 0.107563 0.0904998 0.990071 0.110831 0.0422892 0.992939 
-0.160012 0.189559 0.968743 -0.521926 -0.0710138 0.85003 0.509189 -0.00543909 0.860637 
0.207953 -0.104491 0.972542 0.0335163 -0.0534335 0.998009 -0.0547592 0.0236768 0.998219 
-0.142553 0.0139648 0.989689 -0.0284112 0.0515569 0.998266 0.233117 -0.0480566 0.97126 
0.156035 0.187771 0.96974 -0.15065 -0.0397036 0.98779 -0.30971 0.263386 0.913623 
0.155743 0.15696 0.975248 0.245699 0.0236066 0.969059 0.0857206 -0.0374775 0.995614 
0.0860622 -0.0237889 0.996006 -0.118019 -0.220195 0.96829 -0.484696 -0.0924113 0.869787 
0.264223 -0.255614 0.929972 0.156582 -0.0389375 0.986897 0.00981673 -0.0355478 0.99932 
-0.118792 0.0222533 0.99267 -0.0324104 0.112451 0.993129 0.134334 -0.00789954 0.990905 
0.148896 -0.0831277 0.985353 -0.0577532 -0.0936853 0.993925 -0.110879 0.172216 0.978799 
0.0130393 0.132864 0.991049 0.0749251 0.0244324 0.99689 0.0624639 -0.166147 0.984121 
-0.0417413 -0.100495 0.994062 -0.325211 -0.478603 0.815583 -0.536579 -0.417031 0.7336 
0.238817 -0.205732 0.949021 0.00578803 -0.149407 0.988759 0.00523695 -0.0537706 0.99854 
-0.0222006 0.0457813 0.998705 0.00806789 0.0081365 0.999934 0.0919803 -0.139079 0.986 
0.0683467 -0.111794 0.991378 -0.040462 0.00843395 0.999146 -0.0370318 -0.00323645 0.999309 
-0.0227545 -0.129164 0.991362 -0.0626642 -0.289358 0.955168 -0.278688 -0.571568 0.771779 
0.162604 -0.210268 0.964027 0.0647627 -0.187431 0.980141 0.0303586 -0.179668 0.983259 
-0.051709 -0.16183 0.985463 0.0310111 -0.227464 0.973292 0.0961722 -0.275261 0.956547 
-0.00117442 -0.260717 0.965415 -0.140176 -0.322443 0.936152 -0.226211 -0.472113 0.85202 
0.0286853 -0.422049 0.906119 0.213618 0.726932 0.652639 0.0792166 0.641468 0.763049 
-0.0211248 0.619179 0.784966 -0.0916281 0.636257 0.766016 -0.186019 0.744258 0.641465 
0.344497 0.651971 0.675467 0.126743 0.309282 0.942486 0.21745 0.524159 0.823391 
0.0439779 0.209623 0.976793 0.154617 0.399205 0.903731 0.0143868 0.173644 0.984703 
0.0273948 0.348611 0.936867 -0.0326052 0.153791 0.987565 -0.0295381 0.338705 0.940429 
-0.0205603 0.346757 0.93773 0.0122065 0.233708 0.97223 -0.0260281 0.438595 0.898308 
-0.0785974 0.196014 0.977446 -0.125157 0.520465 0.844661 -0.142902 0.657729 0.739576 
-0.126101 0.796666 0.591119 -0.195788 0.900528 0.388221 0.408636 0.506129 0.759507 
0.12697 0.309201 0.942483 0.177526 0.308223 0.934603 0.219113 0.399954 0.889958 
0.0283926 0.0880408 0.995712 0.028858 0.0881255 0.995691 0.0288816 0.087936 0.995707 
-0.0717399 0.202969 0.976554 -0.019057 0.190597 0.981483 -0.0698626 0.2605 0.962943 
0.000329036 0.276692 0.960959 -0.023111 0.33022 0.943621 -0.0444311 0.346252 0.937089 
-0.0790448 0.40475 0.911005 -0.106299 0.471614 0.875375 -0.168091 0.609225 0.774978 
-0.27038 0.41152 0.870371 -0.462528 0.79134 0.399811 0.626518 0.439872 0.643418 
0.21472 0.291751 0.932082 0.254285 0.286978 0.923571 0.303066 0.318729 0.898088 
-0.0342558 0.00173228 0.999412 0.0298588 0.0432298 0.998619 0.0393797 0.0826982 0.995796 
0.0451542 0.0927145 0.994668 0.0260295 0.0969679 0.994947 -0.0863058 -0.132841 0.987373 
-0.279563 0.407781 0.869229 -0.387445 0.400913 0.830153 -0.514815 0.594035 0.618133 
0.445461 0.172688 0.878489 0.53452 0.158494 0.830162 0.0361145 0.0991136 0.994421 
0.125069 0.119968 0.984868 0.10631 0.127897 0.986073 0.117767 0.125477 0.985082 
0.197571 0.166683 0.966014 -0.0938425 -0.134022 0.986525 -0.075627 -0.131566 0.988418 
-0.092707 -0.1404 0.985745 -0.630086 0.258507 0.732234 -0.941158 0.323652 0.0973149 
0.894793 0.0483405 0.443856 0.435779 0.0572304 0.898232 0.50775 0.015512 0.861365 
0.519485 0.0584683 0.852477 0.0843547 0.208557 0.974366 0.158307 0.263543 0.951569 
0.211169 0.257568 0.942903 0.104838 0.2472 0.963276 -0.240574 0.133853 0.961357 
0.142139 0.0246021 0.989541 -0.304711 0.251099 0.91875 -0.187264 0.0250021 0.981991 
-0.618011 -0.0408188 0.785109 -0.992194 -0.00327719 0.124658 0.529091 -0.00900031 0.848517 
0.508438 -0.0814593 0.857237 -0.619091 -0.170694 0.766544 -0.927228 -0.358756 0.107434 
0.367305 -0.269993 0.890051 0.535938 -0.288532 0.793423 0.326649 -0.26278 0.907881 
-0.485749 -0.58305 0.65123 -0.542819 -0.422516 0.725829 -0.540975 -0.426488 0.724882 
0.739964 -0.561908 0.369747 0.370768 -0.260165 0.891541 0.464039 -0.315467 0.827737 
0.310968 -0.374474 0.873538 -0.27546 -0.68631 0.673127 -0.47207 -0.610546 0.635912 
-0.340955 -0.722952 0.600907 -0.550155 -0.760297 0.345366 0.624937 -0.675338 0.391627 
0.270401 -0.345819 0.898495 0.360162 -0.480442 0.799662 0.225928 -0.513145 0.828033 
0.0509681 -0.425666 0.903444 -0.0546072 -0.464353 0.883965 -0.0149388 -0.436329 0.899663 
0.0389998 -0.570491 0.820377 -0.0578726 -0.633414 0.771646 -0.220717 -0.570681 0.790953 
-0.292124 -0.658378 0.693687 -0.274791 -0.601958 0.749758 -0.480546 -0.854876 0.195608 
0.27859 -0.702518 0.654871 0.0324318 -0.433067 0.900778 0.0793353 -0.592112 0.801941 
0.00464857 -0.442868 0.896575 0.0300251 -0.427487 0.903523 -0.0591591 -0.510726 0.857706 
-0.0536174 -0.624878 0.778879 0.00389291 -0.732831 0.6804 -0.0751642 -0.750498 0.656584 
-0.324013 -0.916039 0.236406 0.218409 0.738899 0.637437 0.105025 0.710349 0.69597 
-0.0210567 0.695928 0.717803 -0.108736 0.688708 0.716838 -0.190616 0.750361 0.632949 
0.382833 0.721287 0.577221 0.232698 0.738861 0.632405 0.304368 0.70811 0.637134 
0.400549 0.861361 0.312437 -0.195536 0.757739 0.622573 -0.241653 0.806336 0.53984 
-0.371936 0.906057 0.201805 -0.217514 0.832019 0.510326 -0.17975 0.889125 0.420888 
-0.194061 0.924094 0.329226 0.440862 0.712678 0.545647 0.517531 0.682236 0.516445 
-0.225478 0.918648 0.324415 -0.342744 0.887833 0.307048 -0.49741 0.844428 0.198806 
0.633523 0.604562 0.48286 0.696456 0.545686 0.466022 0.779984 0.618264 -0.0968225 
-0.563881 0.811008 0.155896 -0.659825 0.744214 0.103812 0.782189 0.418743 0.461341 
-0.802566 0.596527 0.00665299 -0.717172 0.567504 -0.404479 -0.924791 0.368853 -0.0933226 
0.861162 0.270984 0.430079 0.904519 0.104038 0.413548 -0.950944 0.297159 -0.086035 
-0.933948 0.285446 -0.215084 0.916638 0.0457246 0.397096 0.916932 -0.0532716 0.395471 
-0.982513 -0.0398883 -0.181871 -0.951689 -0.00637981 -0.306997 0.909185 -0.182638 0.3742 
-0.93649 -0.349361 -0.0305416 -0.923705 -0.381982 -0.0293017 -0.929643 -0.322433 -0.178328 
0.869572 -0.353168 0.345134 -0.755617 -0.630047 -0.179122 -0.670089 -0.723768 -0.164747 
-0.671633 -0.605655 -0.426721 0.786841 -0.554946 0.270031 0.750567 -0.610121 0.253776 
-0.44233 -0.885422 -0.14273 -0.450351 -0.6658 -0.594891 -0.507363 -0.82736 -0.240951 
-0.486337 -0.832755 -0.264566 -0.474024 -0.811673 -0.341304 0.660856 -0.721242 0.207556 
0.639191 -0.743897 0.195069 0.511981 -0.850216 0.122511 -0.429623 -0.895946 -0.112713 
-0.412347 -0.52926 -0.741521 -0.53241 -0.824595 -0.191265 -0.535718 -0.818728 -0.20662 
-0.50295 -0.796034 -0.336707 0.480533 -0.873208 0.0812104 0.366606 -0.929427 0.0420152 
0.208148 -0.973989 0.0895532 0.0135407 -0.998522 0.0526371 -0.127337 -0.98963 0.0664727 
-0.134282 -0.988775 0.0655221 -0.0667626 -0.997684 0.0129799 -0.126338 -0.991176 -0.0401069 
-0.185131 -0.821569 -0.539214 -0.353299 -0.93175 -0.0837898 -0.310831 -0.947639 -0.0732355 
-0.338881 -0.905079 -0.256886 0.425183 0.899152 0.10366 0.312493 0.935682 0.16385 
0.17766 0.96512 0.192304 -0.00042539 0.975081 0.22185 -0.18264 0.952005 0.245618 
-0.356617 0.915075 0.188313 -0.417805 0.906298 0.0637397 0.458466 0.883654 0.0946854 
0.511898 0.857511 0.051334 0.458982 0.78295 -0.419911 -0.389688 0.920576 0.0261261 
-0.502893 0.836975 -0.215805 -0.325626 0.941654 -0.0851765 -0.280931 0.937338 -0.206094 
-0.328103 0.910413 -0.251985 0.778996 0.616905 -0.112218 0.630931 0.775587 -0.0197899 
0.632358 0.774393 -0.0209555 -0.312035 0.739936 -0.595927 -0.377439 0.873023 -0.30882 
-0.333857 0.841594 -0.424569 -0.444391 0.789454 -0.423414 -0.577433 0.58783 -0.566592 
0.780126 0.615362 -0.112841 0.779121 0.615254 -0.120135 -0.22538 0.357314 -0.906383 
-0.399547 0.471224 -0.786327 -0.581587 0.57246 -0.577967 -0.565346 0.547724 -0.616752 
0.895914 0.401705 -0.189659 0.605723 0.329048 -0.72445 -0.328814 0.116285 -0.937208 
-0.684578 0.514988 -0.515888 -0.390709 0.343074 -0.854193 -0.68907 0.499261 -0.525282 
0.94412 0.231184 -0.234926 0.953363 0.154429 -0.259328 -0.135693 0.0140516 -0.990651 
-0.343928 0.0880903 -0.934855 -0.67151 0.190836 -0.716 -0.495 0.054157 -0.867203 
0.963688 0.0076003 -0.266924 0.943718 -0.156082 -0.291608 0.925977 0.00555836 -0.37754 
-0.190555 -0.0819936 -0.978246 -0.301618 -0.192862 -0.933719 -0.656015 -0.0646822 -0.751971 
-0.500266 -0.0758331 -0.862545 0.931969 -0.220555 -0.287731 -0.11398 -0.24577 -0.962604 
-0.0539896 -0.21969 -0.974075 -0.208828 -0.252619 -0.944762 -0.23723 -0.262366 -0.935353 
-0.392058 -0.4755 -0.787522 -0.343618 -0.523254 -0.779828 -0.329211 -0.484532 -0.810462 
0.8508 -0.405384 -0.33437 0.576423 -0.385859 -0.720312 -0.366679 -0.198358 -0.908956 
-0.112974 -0.261829 -0.958479 -0.0960947 -0.31475 -0.944298 -0.406849 -0.562947 -0.71942 
-0.219789 -0.305638 -0.926433 -0.468651 -0.402495 -0.786361 -0.449161 -0.419082 -0.789065 
-0.435922 -0.392092 -0.810084 0.673585 -0.630629 -0.385474 0.67345 -0.630751 -0.385511 
0.673337 -0.630576 -0.385994 0.383228 -0.496756 -0.778697 -0.337466 -0.194469 -0.921031 
-0.343629 -0.44487 -0.827048 -0.208502 -0.322931 -0.92317 -0.355241 -0.571636 -0.739619 
-0.210588 -0.560797 -0.800724 -0.166903 -0.484035 -0.858984 0.585372 -0.685826 -0.432414 
0.582759 -0.686646 -0.434637 0.579561 -0.685197 -0.44115 0.411088 -0.732104 -0.543167 
0.280123 -0.637612 -0.717622 0.145049 -0.540127 -0.82899 0.147319 -0.438812 -0.886421 
-0.125749 -0.462394 -0.877712 -0.148803 -0.441346 -0.884913 -0.0809022 -0.465928 -0.881116 
-0.18319 -0.73477 -0.653112 -0.12177 -0.472129 -0.873078 -0.378383 -0.479027 -0.79206 
-0.335549 -0.567955 -0.751554 -0.326452 -0.455162 -0.828406 0.330453 -0.765838 -0.551628 
0.329965 -0.766113 -0.551537 0.330098 -0.765711 -0.552017 0.167186 -0.828478 -0.534484 
0.165529 -0.660307 -0.732526 -0.0112815 -0.79998 -0.599921 -0.0219898 -0.695855 -0.717845 
-0.0904957 -0.798714 -0.594867 -0.0839914 -0.711619 -0.697527 -0.123867 -0.808587 -0.57519 
-0.117748 -0.728794 -0.674533 -0.135862 -0.762871 -0.632114 -0.118199 -0.769354 -0.627793 
-0.118442 -0.756724 -0.642916 0.34269 0.845543 -0.409414 0.195534 0.890791 -0.410192 
0.0295513 0.921621 -0.386964 -0.185205 0.913762 -0.361577 -0.424509 0.812343 -0.399864 
0.502806 0.599278 -0.622937 0.447784 0.753469 -0.48143 0.454134 0.745347 -0.488078 
0.320162 0.61467 -0.720886 0.124492 0.480263 -0.868245 -0.00833296 0.441136 -0.897401 
-0.117741 0.460313 -0.879914 -0.52852 0.706793 -0.470224 -0.370041 0.591026 -0.716769 
-0.533756 0.664963 -0.522426 -0.384742 0.572227 -0.724244 0.53498 0.541832 -0.64824 
0.536091 0.430681 -0.72603 0.479534 0.491051 -0.727267 0.351362 0.367814 -0.860963 
0.140566 0.236031 -0.961525 -0.209333 0.191461 -0.958917 -0.395787 0.32631 -0.858414 
-0.352375 0.54362 -0.76178 -0.364676 0.50494 -0.782334 -0.261715 0.350839 -0.899121 
0.533912 0.40635 -0.741497 0.499512 0.383009 -0.777041 0.334945 0.225723 -0.914801 
0.240541 0.0943934 -0.966038 -0.160946 -0.025141 -0.986643 -0.292259 0.0208574 -0.956112 
-0.268144 0.124488 -0.955302 -0.222303 0.301816 -0.927086 -0.231506 0.253989 -0.939092 
-0.212577 0.240894 -0.946985 0.572072 0.317866 -0.756105 0.588596 0.291723 -0.753958 
0.359434 0.149219 -0.921163 0.192362 0.113982 -0.974682 0.143298 -0.0323659 -0.98915 
0.0673206 -0.0982816 -0.992879 -0.113411 -0.132588 -0.984661 -0.0227111 -0.124399 -0.991972 
-0.105878 -0.156657 -0.981962 -0.228589 -0.0733593 -0.970755 -0.16715 -0.0131135 -0.985844 
-0.130248 0.0505045 -0.990194 -0.263651 0.0827701 -0.96106 -0.214926 0.0613981 -0.974699 
0.641177 0.0864186 -0.762512 0.533218 0.0656461 -0.843427 0.280224 0.0421735 -0.959008 
0.177172 0.0286861 -0.983762 0.0351783 -0.032692 -0.998846 0.0138101 -0.0689965 -0.997521 
-0.0393846 -0.126752 -0.991152 -0.0530625 -0.183088 -0.981664 -0.0696931 -0.0416669 -0.996698 
-0.116026 -0.33046 -0.936661 -0.124788 0.00377673 -0.992176 -0.160529 -0.01794 -0.986868 
-0.144621 -0.0750562 -0.986636 -0.140359 -0.0374887 -0.989391 -0.15157 -0.0751225 -0.985588 
0.573216 -0.015266 -0.819262 0.544154 -0.0159711 -0.838833 0.293748 -0.0106638 -0.955823 
0.139606 -0.00866387 -0.990169 0.0480095 -0.00400012 -0.998839 -0.0237289 -0.0106051 -0.999662 
-0.155213 -0.0542677 -0.986389 -0.0513627 -0.0713782 -0.996126 -0.186537 -0.0185714 -0.982272 
0.0124919 -0.172359 -0.984955 0.104171 0.0278134 -0.99417 -0.272237 -0.116043 -0.955207 
-0.135755 -0.211814 -0.967835 -0.15899 -0.188534 -0.969112 -0.134797 -0.129684 -0.98235 
-0.124056 -0.140014 -0.982347 -0.130054 -0.135024 -0.98227 0.617148 -0.133612 -0.77542 
0.540398 -0.265935 -0.798278 0.524847 -0.121357 -0.842501 0.283818 -0.139327 -0.948702 
0.178428 -0.116254 -0.977061 0.033694 -0.11819 -0.992419 -0.0358993 -0.102571 -0.994078 
-0.0998589 -0.0847319 -0.991387 -0.0244653 0.0840354 -0.996162 -0.191849 -0.131227 -0.972612 
-0.0420321 0.0507162 -0.997828 -0.0330112 -0.150822 -0.98801 -0.355346 -0.286995 -0.889586 
-0.386318 -0.283639 -0.877671 -0.388937 -0.291192 -0.874034 0.441553 -0.347021 -0.82741 
0.346504 -0.423454 -0.837031 0.324539 -0.297065 -0.898013 0.159389 -0.287941 -0.944291 
0.0568412 -0.256236 -0.964941 0.00523793 -0.263067 -0.964763 0.0344863 -0.197185 -0.97976 
-0.060742 -0.104665 -0.992651 -0.222324 -0.250312 -0.942293 -0.0763876 -0.0876117 -0.993222 
-0.314231 -0.221179 -0.923222 -0.200492 -0.265886 -0.942925 0.278395 -0.458809 -0.843796 
0.189358 -0.473408 -0.860249 0.182301 -0.433183 -0.882677 0.117147 -0.472198 -0.873673 
0.0819401 -0.413517 -0.906802 0.120184 -0.407256 -0.905372 0.0321798 -0.33228 -0.942632 
0.0484175 -0.282333 -0.958094 -0.122935 -0.452098 -0.883456 -0.0781411 -0.34136 -0.936679 
-0.146084 -0.369671 -0.917607 -0.152494 -0.333473 -0.930345 -0.0777935 -0.328393 -0.941332 
-0.0760096 -0.292292 -0.953304 -0.218935 -0.326454 -0.919508 -0.202314 -0.346694 -0.9159 
-0.209423 -0.339151 -0.917125 0.0717493 -0.387703 -0.918988 -0.069857 -0.428358 -0.900905 
0.0313292 -0.394672 -0.918288 0.0351228 -0.36804 -0.929146 0.0510937 0.157698 -0.986165 
0.00528708 0.161699 -0.986826 -0.0657187 0.158477 -0.985173 0.066239 0.152561 -0.986072 
0.116885 0.132793 -0.984228 0.0444697 0.128607 -0.990698 0.0111364 0.116309 -0.993151 
-0.105248 0.134914 -0.985252 -0.0588052 0.109432 -0.992253 0.154318 0.0505922 -0.986725 
0.06796 -0.0957 -0.993088 0.0964645 0.0239379 -0.995049 -0.00842577 0.0188246 -0.999787 
-0.067485 -0.0842185 -0.994159 -0.0432403 -0.0587598 -0.997335 -0.103217 -0.0612118 -0.992774 
-0.0319115 -0.106813 -0.993767 -0.0329425 -0.103982 -0.994034 0.0648643 -0.0987932 -0.992992 
-0.0688824 -0.124505 -0.989825 -0.0388703 -0.121661 -0.99181 -0.0386323 -0.118713 -0.992177 

