# vtk DataFile Version 4.2
vtk output
ASCII
DATASET POLYDATA
POINTS 542 float
-24.3331 -25.8041 -16.2574 -16.8582 -25.8041 -17.8167 -9.38328 -25.8041 -18.1045 
-1.90839 -25.8041 -18.3994 5.5665 -25.8041 -19.2327 13.0414 -25.8041 -19.3306 
20.5163 -25.8041 -16.9923 27.9912 -25.8041 -14.8548 -39.2828 -18.3292 -15.361 
-31.808 -18.3292 -16.9728 -24.3331 -18.3292 -18.6398 -16.8582 -18.3292 -19.9513 
-9.38328 -18.3292 -20.2754 -1.90839 -18.3292 -20.1242 5.5665 -18.3292 -21.0089 
13.0414 -18.3292 -21.3884 20.5163 -18.3292 -20.2662 27.9912 -18.3292 -18.6855 
35.4661 -18.3292 -17.9806 42.941 -18.3292 -16.8094 50.4159 -18.3292 -15.4551 
-54.2326 -10.8543 -15.3236 -46.7577 -10.8543 -16.682 -39.2828 -10.8543 -18.0611 
-31.808 -10.8543 -18.6271 -24.3331 -10.8543 -18.7988 -16.8582 -10.8543 -19.3268 
-9.38328 -10.8543 -20.9787 -1.90839 -10.8543 -20.8027 5.5665 -10.8543 -21.0094 
13.0414 -10.8543 -21.4358 20.5163 -10.8543 -20.5302 27.9912 -10.8543 -20.6414 
35.4661 -10.8543 -20.4316 42.941 -10.8543 -20.061 50.4159 -10.8543 -18.9341 
57.8908 -10.8543 -16.9367 -54.2326 -3.37941 -16.9378 -46.7577 -3.37941 -19.1605 
-39.2828 -3.37941 -19.8975 -31.808 -3.37941 -19.8145 -24.3331 -3.37941 -19.2386 
-16.8582 -3.37941 -18.9383 -9.38328 -3.37941 -22.0133 -1.90839 -3.37941 -20.9932 
5.5665 -3.37941 -20.8524 13.0414 -3.37941 -21.779 20.5163 -3.37941 -20.6394 
27.9912 -3.37941 -20.9502 35.4661 -3.37941 -21.6387 42.941 -3.37941 -21.7852 
50.4159 -3.37941 -21.4989 57.8908 -3.37941 -19.2925 -54.2326 4.09548 -17.3779 
-46.7577 4.09548 -19.5415 -39.2828 4.09548 -20.0134 -31.808 4.09548 -19.8045 
-24.3331 4.09548 -19.0906 -16.8582 4.09548 -18.5671 -9.38328 4.09548 -21.0409 
-1.90839 4.09548 -19.8653 5.5665 4.09548 -21.2657 13.0414 4.09548 -22.1744 
20.5163 4.09548 -20.4042 27.9912 4.09548 -20.8802 35.4661 4.09548 -21.6939 
42.941 4.09548 -21.8986 50.4159 4.09548 -21.5151 57.8908 4.09548 -19.4241 
-54.2326 11.5704 -14.8213 -46.7577 11.5704 -17.168 -39.2828 11.5704 -18.0776 
-31.808 11.5704 -18.3732 -24.3331 11.5704 -18.2315 -16.8582 11.5704 -18.271 
-9.38328 11.5704 -19.5557 -1.90839 11.5704 -18.6763 5.5665 11.5704 -20.3422 
13.0414 11.5704 -20.6068 20.5163 11.5704 -19.6857 27.9912 11.5704 -20.1791 
35.4661 11.5704 -21.1406 42.941 11.5704 -20.5368 50.4159 11.5704 -19.7208 
57.8908 11.5704 -17.492 -31.808 19.0453 -15.0927 -24.3331 19.0453 -15.3339 
-16.8582 19.0453 -16.805 -9.38328 19.0453 -17.3877 -1.90839 19.0453 -16.215 
5.5665 19.0453 -17.0969 13.0414 19.0453 -17.9063 20.5163 19.0453 -17.5135 
27.9912 19.0453 -18.018 35.4661 19.0453 -18.3215 42.941 19.0453 -17.8973 
50.4159 19.0453 -16.5844 -24.3331 -27.5047 -14.7804 -16.8582 -29.2755 -14.7804 
-9.38328 -29.847 -14.7804 -1.90839 -30.3661 -14.7804 5.5665 -31.4295 -14.7804 
5.5665 -33.279 -7.99403 13.0414 -31.2239 -14.7804 13.0414 -33.279 -7.9756 
20.5163 -28.4528 -14.7804 27.9912 -25.8801 -14.7804 -39.2828 -19.1292 -14.7804 
-39.2828 -25.8041 -7.38934 -27.9237 -25.8041 -14.7804 -31.808 -22.6235 -14.7804 
-31.808 -25.8041 -11.6703 28.2227 -25.8041 -14.7804 35.4661 -22.9616 -14.7804 
35.4661 -25.8041 -11.825 42.941 -21.0134 -14.7804 42.941 -25.8041 -8.95122 
50.4159 -19.0391 -14.7804 -54.2326 -11.6371 -14.7804 -54.2326 -18.3292 -7.83675 
-41.372 -18.3292 -14.7804 -46.7577 -15.2023 -14.7804 -46.7577 -18.3292 -13.0235 
51.9034 -18.3292 -14.7804 57.8908 -13.8786 -14.7804 57.8908 -18.3292 -10.7477 
-55.1274 -10.8543 -14.7804 -61.7075 -10.8543 -9.4364 61.7509 -10.8543 -14.7804 
65.3656 -10.8543 -11.4834 -58.0902 -3.37941 -14.7804 -61.7075 -3.37941 -12.1106 
64.7587 -3.37941 -14.7804 65.3656 -3.37941 -14.1697 -58.8753 4.09548 -14.7804 
-61.7075 4.09548 -12.7191 65.252 4.09548 -14.7804 65.3656 4.09548 -14.664 
-54.3237 11.5704 -14.7804 -61.7075 11.5704 -11.168 -54.2326 11.6365 -14.7804 
-46.7577 17.5509 -14.7804 -39.2828 18.7136 -14.7804 63.9375 11.5704 -14.7804 
57.8908 17.1712 -14.7804 65.3656 11.5704 -13.3011 -54.2326 19.0453 -9.2841 
-46.7577 19.0453 -13.8024 -36.7721 19.0453 -14.7804 -39.2828 19.0453 -14.567 
-31.808 19.4489 -14.7804 -24.3331 19.8355 -14.7804 -16.8582 22.1301 -14.7804 
-9.38328 23.4991 -14.7804 -1.90839 21.7416 -14.7804 5.5665 22.8332 -14.7804 
13.0414 23.855 -14.7804 20.5163 23.5783 -14.7804 27.9912 23.8622 -14.7804 
35.4661 24.078 -14.7804 42.941 23.4333 -14.7804 55.4024 19.0453 -14.7804 
50.4159 21.3622 -14.7804 57.8908 19.0453 -13.1489 -16.8582 26.5202 -10.0452 
-9.38328 26.5202 -11.7756 -1.90839 26.5202 -11.2528 5.5665 26.5202 -11.7028 
13.0414 26.5202 -12.0979 20.5163 26.5202 -12.0416 27.9912 26.5202 -12.1848 
35.4661 26.5202 -12.0632 42.941 26.5202 -10.9582 50.4159 26.5202 -7.84334 
5.5665 -33.4149 -7.30547 13.0414 -33.4342 -7.30547 -39.2828 -25.8513 -7.30547 
-31.808 -28.0136 -7.30547 -24.3331 -29.9257 -7.30547 -16.8582 -31.7215 -7.30547 
-9.38328 -32.2973 -7.30547 3.96989 -33.279 -7.30547 -1.90839 -32.7616 -7.30547 
5.5665 -33.279 -6.80949 13.7578 -33.279 -7.30547 13.0414 -33.279 -6.69466 
20.5163 -31.8474 -7.30547 27.9912 -30.1327 -7.30547 35.4661 -28.8083 -7.30547 
42.941 -26.7124 -7.30547 -54.2326 -18.8471 -7.30547 -39.4035 -25.8041 -7.30547 
-46.7577 -22.7583 -7.30547 46.3421 -25.8041 -7.30547 50.4159 -24.5827 -7.30547 
50.4159 -25.8041 -1.08319 57.8908 -20.8721 -7.30547 -54.8838 -18.3292 -7.30547 
-61.7075 -13.094 -7.30547 61.2493 -18.3292 -7.30547 65.3656 -14.1078 -7.30547 
-63.7421 -10.8543 -7.30547 67.8614 -10.8543 -7.30547 -67.1539 -3.37941 -7.30547 
-69.1824 -3.37941 -2.63097 71.2027 -3.37941 -7.30547 -68.0523 4.09548 -7.30547 
-69.1824 4.09548 -4.15872 71.3756 4.09548 -7.30547 -65.7293 11.5704 -7.30547 
-61.7075 15.8434 -7.30547 68.3957 11.5704 -7.30547 65.3656 16.3385 -7.30547 
-57.0959 19.0453 -7.30547 -54.2326 21.0163 -7.30547 -46.7577 23.0267 -7.30547 
-39.2828 25.1361 -7.30547 -31.808 25.5346 -7.30547 -24.3331 26.4737 -7.30547 
63.0337 19.0453 -7.30547 57.8908 22.6525 -7.30547 -39.2828 26.5202 -2.79094 
-31.808 26.5202 -4.87323 -24.1453 26.5202 -7.30547 -24.3331 26.5202 -7.17734 
-16.8582 28.1065 -7.30547 -9.38328 29.1197 -7.30547 -1.90839 29.3975 -7.30547 
5.5665 29.4064 -7.30547 13.0414 29.3111 -7.30547 20.5163 29.3383 -7.30547 
27.9912 29.6188 -7.30547 35.4661 29.8764 -7.30547 42.941 28.4078 -7.30547 
51.0335 26.5202 -7.30547 50.4159 26.827 -7.30547 -39.2828 -27.5217 0.169422 
-31.808 -28.2761 0.169422 -24.3331 -28.8424 0.169422 -16.8582 -29.6554 0.169422 
-9.38328 -30.5591 0.169422 -1.90839 -30.9409 0.169422 5.5665 -31.1608 0.169422 
13.0414 -31.3701 0.169422 20.5163 -31.0884 0.169422 27.9912 -30.5795 0.169422 
35.4661 -29.5226 0.169422 42.941 -27.8367 0.169422 50.4159 -26.0437 0.169422 
-54.2326 -22.4872 0.169422 -44.1339 -25.8041 0.169422 -46.7577 -24.7008 0.169422 
42.941 -25.8041 6.21797 50.8195 -25.8041 0.169422 50.4159 -25.8041 0.676093 
57.8908 -21.6994 0.169422 -59.0574 -18.3292 0.169422 -61.7075 -16.3774 0.169422 
62.7798 -18.3292 0.169422 57.8908 -18.3292 7.29041 65.3656 -15.333 0.169422 
-66.9959 -10.8543 0.169422 -69.1824 -5.61536 0.169422 68.439 -10.8543 0.169422 
65.3656 -10.8543 6.45236 -70.0753 -3.37941 0.169422 -69.1824 -3.37941 4.43271 
71.0326 -3.37941 0.169422 65.3656 -3.37941 7.31613 -70.3017 4.09548 0.169422 
-69.1824 7.82622 0.169422 -69.1824 4.09548 4.96142 71.1443 4.09548 0.169422 
65.3656 4.09548 7.07005 -67.907 11.5704 0.169422 -61.7075 18.4983 0.169422 
67.6241 11.5704 0.169422 65.3656 14.9219 0.169422 65.3656 11.5704 4.07761 
-61.0313 19.0453 0.169422 -54.2326 23.3045 0.169422 -46.7577 26.0039 0.169422 
62.1206 19.0453 0.169422 57.8908 22.557 0.169422 57.8908 19.0453 5.16751 
-43.8697 26.5202 0.169422 -39.2828 27.2618 0.169422 -31.808 28.2972 0.169422 
-24.3331 28.7939 0.169422 -16.8582 29.5027 0.169422 -9.38328 30.3973 0.169422 
-1.90839 30.7404 0.169422 5.5665 30.3185 0.169422 13.0414 29.9959 0.169422 
20.5163 30.3164 0.169422 27.9912 30.9527 0.169422 35.4661 30.6609 0.169422 
42.941 29.1104 0.169422 42.941 26.5202 6.70918 51.4515 26.5202 0.169422 
50.4159 27.0199 0.169422 50.4159 26.5202 1.07822 -39.2828 -26.2443 7.64431 
-31.808 -26.2544 7.64431 -24.3331 -26.1402 7.64431 -16.8582 -26.6787 7.64431 
-9.38328 -28.0494 7.64431 -1.90839 -28.0508 7.64431 5.5665 -27.1903 7.64431 
13.0414 -27.1888 7.64431 20.5163 -27.6114 7.64431 27.9912 -27.7344 7.64431 
35.4661 -27.1642 7.64431 -54.2326 -21.2371 7.64431 -40.5854 -25.8041 7.64431 
-46.7577 -23.7181 7.64431 -39.2828 -25.8041 8.59067 -31.808 -25.8041 8.60414 
-24.3331 -25.8041 8.38389 -16.8582 -25.8041 9.1231 -9.38328 -25.8041 11.2174 
-1.90839 -25.8041 11.5083 5.5665 -25.8041 9.67858 13.0414 -25.8041 9.48002 
20.5163 -25.8041 10.0362 27.9912 -25.8041 10.2145 40.8977 -25.8041 7.64431 
35.4661 -25.8041 9.40984 42.941 -25.1975 7.64431 50.4159 -22.2573 7.64431 
-57.8282 -18.3292 7.64431 -61.7075 -15.3497 7.64431 -54.2326 -18.3292 12.2874 
42.941 -18.3292 14.3744 57.5557 -18.3292 7.64431 50.4159 -18.3292 11.6044 
57.8908 -18.0074 7.64431 -65.7714 -10.8543 7.64431 -61.7075 -10.8543 13.656 
50.4159 -10.8543 15.0465 64.4721 -10.8543 7.64431 57.8908 -10.8543 11.4649 
-68.4641 -3.37941 7.64431 65.0776 -3.37941 7.64431 57.8908 -3.37941 12.9874 
-68.5037 4.09548 7.64431 64.8428 4.09548 7.64431 57.8908 4.09548 12.7886 
-66.5654 11.5704 7.64431 -61.7075 16.9146 7.64431 -61.7075 11.5704 13.859 
50.4159 11.5704 13.6723 62.1592 11.5704 7.64431 57.8908 16.0893 7.64431 
57.8908 11.5704 10.599 -58.9397 19.0453 7.64431 -54.2326 22.4684 7.64431 
-54.2326 19.0453 12.8441 -46.7577 25.3961 7.64431 42.941 25.9861 7.64431 
42.941 19.0453 13.3671 55.0838 19.0453 7.64431 50.4159 21.93 7.64431 
50.4159 19.0453 10.2245 -42.4595 26.5202 7.64431 -39.2828 27.2929 7.64431 
-39.2828 26.5202 9.82413 -31.808 28.4938 7.64431 -31.808 26.5202 12.6396 
-24.3331 29.1295 7.64431 -24.3331 26.5202 14.7625 -16.8582 29.5154 7.64431 
-9.38328 29.778 7.64431 -1.90839 29.74 7.64431 -1.90839 26.5202 14.3554 
5.5665 29.1899 7.64431 5.5665 26.5202 13.3369 13.0414 28.907 7.64431 
13.0414 26.5202 12.8132 20.5163 29.0644 7.64431 20.5163 26.5202 12.819 
27.9912 29.0108 7.64431 27.9912 26.5202 11.6348 41.5943 26.5202 7.64431 
[...]
POINT_DATA 542
SCALARS ImageScalars float
LOOKUP_TABLE default
0 0 0 0 0 0 0 0 0 
0 0 0 0 0 0 0 0 0 
0 0 0 0 0 0 0 0 0 
0 0 0 0 0 0 0 0 0 
0 0 0 0 0 0 0 0 0 
0 0 0 0 0 0 0 0 0 
0 0 0 0 0 0 0 0 0 
0 0 0 0 0 0 0 0 0 
0 0 0 0 0 0 0 0 0 
0 0 0 0 0 0 0 0 0 
0 0 0 0 0 0 0 0 0 
0 0 0 0 0 0 0 0 0 
0 0 0 0 0 0 0 0 0 
0 0 0 0 0 0 0 0 0 
0 0 0 0 0 0 0 0 0 
0 0 0 0 0 0 0 0 0 
0 0 0 0 0 0 0 0 0 
0 0 0 0 0 0 0 0 0 
0 0 0 0 0 0 0 0 0 
0 0 0 0 0 0 0 0 0 
0 0 0 0 0 0 0 0 0 
0 0 0 0 0 0 0 0 0 
0 0 0 0 0 0 0 0 0 
0 0 0 0 0 0 0 0 0 
0 0 0 0 0 0 0 0 0 
0 0 0 0 0 0 0 0 0 
0 0 0 0 0 0 0 0 0 
0 0 0 0 0 0 0 0 0 
0 0 0 0 0 0 0 0 0 
0 0 0 0 0 0 0 0 0 
0 0 0 0 0 0 0 0 0 
0 0 0 0 0 0 0 0 0 
0 0 0 0 0 0 0 0 0 
0 0 0 0 0 0 0 0 0 
0 0 0 0 0 0 0 0 0 
0 0 0 0 0 0 0 0 0 
0 0 0 0 0 0 0 0 0 
0 0 0 0 0 0 0 0 0 
0 0 0 0 0 0 0 0 0 
0 0 0 0 0 0 0 0 0 
0 0 0 0 0 0 0 0 0 
0 0 0 0 0 0 0 0 0 
0 0 0 0 0 0 0 0 0 
0 0 0 0 0 0 0 0 0 
0 0 0 0 0 0 0 0 0 
0 0 0 0 0 0 0 0 0 
0 0 0 0 0 0 0 0 0 
0 0 0 0 0 0 0 0 0 
0 0 0 0 0 0 0 0 0 
0 0 0 0 0 0 0 0 0 
0 0 0 0 0 0 0 0 0 
0 0 0 0 0 0 0 0 0 
0 0 0 0 0 0 0 0 0 
0 0 0 0 0 0 0 0 0 
0 0 0 0 0 0 0 0 0 
0 0 0 0 0 0 0 0 0 
0 0 0 0 0 0 0 0 0 
0 0 0 0 0 0 0 0 0 
0 0 0 0 0 0 0 0 0 
0 0 0 0 0 0 0 0 0 
0 0 
NORMALS Normals float
0.296373 0.570808 0.765729 0.128368 0.534673 0.835252 0.0398673 0.49709 0.866783 
0.0753065 0.466335 0.881397 0.0634884 0.458797 0.88627 -0.132479 0.452501 0.881868 
-0.266569 0.557942 0.785902 -0.256121 0.664335 0.702184 0.227429 0.492477 0.840085 
0.195847 0.334751 0.92173 0.191231 0.162324 0.96803 0.10733 0.088559 0.990271 
0.0108811 0.173571 0.984761 0.0487146 0.149564 0.987551 0.0832601 0.108228 0.990633 
-0.0495672 0.12875 0.990438 -0.176292 0.198152 0.964187 -0.148111 0.326049 0.933678 
-0.110711 0.439763 0.891264 -0.152423 0.533611 0.831881 -0.260706 0.607167 0.750587 
0.37009 0.442484 0.816848 0.181872 0.364094 0.913432 0.116773 0.262318 0.95789 
0.0465526 0.176683 0.983166 0.0457909 0.0388962 0.998194 0.145597 -0.0662638 0.987122 
0.099284 0.105497 0.989451 0.00200484 0.0578625 0.998323 0.0423188 -0.0100939 0.999053 
-0.0323692 0.025459 0.999152 -0.053705 0.0249961 0.998244 -0.00680404 0.150415 0.988599 
-0.0370078 0.22593 0.97344 -0.093648 0.291875 0.951861 -0.165418 0.350338 0.9219 
-0.358727 0.440676 0.822873 0.385732 0.13038 0.913352 0.206064 0.172464 0.963221 
0.0408806 0.125786 0.991215 -0.043796 0.0772387 0.99605 -0.0582009 0.0192909 0.998118 
0.158154 -0.051837 0.986053 0.151922 0.00772745 0.988362 -0.0703052 -0.0637739 0.995485 
0.0538315 0.0158134 0.998425 -0.0172467 0.0482635 0.998686 -0.0532984 -0.00838779 0.998543 
0.0654796 0.0153042 0.997737 0.0562581 0.0854497 0.994753 -0.00855759 0.119177 0.992836 
-0.17339 0.153614 0.972799 -0.365187 0.112679 0.92409 0.374491 -0.103156 0.921475 
0.190998 -0.122534 0.973912 0.0156825 -0.115498 0.993184 -0.0611767 -0.0957298 0.993526 
-0.0822015 -0.0641108 0.994552 0.123594 -0.0437724 0.991367 0.0901879 -0.15808 0.983299 
0.0125363 -0.150986 0.988456 0.156693 -0.0320974 0.987126 -0.0641037 -0.0742915 0.995174 
-0.0788251 -0.0615528 0.994986 0.0855943 -0.0500505 0.995072 0.0679996 -0.0308937 0.997207 
-0.0106654 -0.0812405 0.996637 -0.179077 -0.106679 0.978034 -0.337494 -0.102137 0.93577 
0.326641 -0.436823 0.838148 0.187609 -0.342801 0.920484 0.0735337 -0.303077 0.950125 
0.0096197 -0.294087 0.95573 -0.00703084 -0.23441 0.972112 0.0895065 -0.111817 0.98969 
0.0236139 -0.228018 0.973371 0.044535 -0.233314 0.971381 0.127635 -0.250685 0.959618 
-0.0436551 -0.264409 0.963422 -0.0255716 -0.177919 0.983713 0.0926008 -0.172914 0.980574 
0.0225756 -0.212549 0.97689 -0.0871828 -0.238875 0.967129 -0.191827 -0.310557 0.930998 
-0.33799 -0.33206 0.880624 0.0408206 -0.57738 0.815454 0.106451 -0.501579 0.858538 
0.132555 -0.391431 0.91061 -0.0381267 -0.400135 0.915663 -0.0234751 -0.398484 0.916875 
0.105407 -0.45409 0.884698 0.0228986 -0.439201 0.898097 0.00565408 -0.396473 0.918029 
0.0503996 -0.42439 0.904076 -0.00647884 -0.459376 0.888218 -0.112246 -0.471669 0.874602 
-0.218726 -0.52388 0.823231 0.309649 0.693356 0.650672 0.139942 0.780381 0.609444 
0.0637696 0.79678 0.600896 0.0858692 0.787567 0.610217 0.0457904 0.832182 0.552609 
0.0446174 0.998985 0.00618722 -0.151677 0.834158 0.53026 -0.11208 0.993314 0.0276561 
-0.293303 0.700561 0.650528 -0.25702 0.668201 0.698175 0.243065 0.524223 0.816155 
0.317323 0.865489 0.387601 0.33934 0.634846 0.694132 0.306772 0.534662 0.787419 
0.337671 0.789834 0.511997 -0.255202 0.667577 0.699437 -0.183948 0.633212 0.751802 
-0.217992 0.789351 0.573937 -0.193971 0.619303 0.760814 -0.257241 0.876096 0.407777 
-0.269511 0.635041 0.723938 0.382057 0.469772 0.79583 0.512965 0.672876 0.533015 
0.257126 0.515038 0.817693 0.266494 0.474127 0.839157 0.343781 0.600068 0.722311 
-0.298839 0.623151 0.722757 -0.396091 0.551881 0.733852 -0.489283 0.711097 0.504919 
0.402019 0.445456 0.799968 0.622498 0.463724 0.630441 -0.500903 0.438969 0.745924 
-0.718402 0.452235 0.528566 0.498684 0.145756 0.854441 0.622699 0.166511 0.764539 
-0.64768 0.104995 0.754643 -0.686477 0.104599 0.719589 0.507945 -0.079845 0.857681 
0.606881 -0.0465164 0.79343 -0.671106 -0.0131308 0.741245 -0.679119 -0.0133136 0.733908 
0.329019 -0.43648 0.837396 0.577328 -0.411775 0.705077 0.327671 -0.438333 0.836956 
0.241791 -0.528538 0.813747 0.0611352 -0.612193 0.788342 -0.596281 -0.333613 0.730172 
-0.417421 -0.558883 0.716526 -0.714641 -0.352904 0.603943 0.413431 -0.670793 0.61572 
0.251177 -0.614455 0.747901 0.0538779 -0.610467 0.790207 0.0613361 -0.630302 0.773924 
0.046244 -0.594737 0.802589 0.112973 -0.533928 0.837949 0.157972 -0.549084 0.820702 
-0.00340706 -0.607584 0.794248 -0.0271072 -0.491787 0.870293 0.0795844 -0.58002 0.810705 
0.0268673 -0.624098 0.780884 0.000261512 -0.589061 0.808089 0.0207753 -0.620083 0.784261 
-0.0180175 -0.661212 0.749983 -0.137175 -0.638868 0.756988 -0.370533 -0.595539 0.712769 
-0.250487 -0.625591 0.738845 -0.47325 -0.664905 0.577871 0.176867 -0.847835 0.499893 
0.0436162 -0.809615 0.585339 -0.000561845 -0.759542 0.650458 0.0386018 -0.78878 0.613463 
0.0152627 -0.806136 0.591534 0.00375529 -0.792499 0.609862 0.000674396 -0.782425 0.622745 
-0.0428826 -0.796184 0.603533 -0.166585 -0.862391 0.478049 -0.335559 -0.890571 0.307055 
0.0445881 0.998236 -0.0391956 -0.10813 0.994065 -0.0119437 0.316671 0.86763 0.383324 
0.26574 0.934875 0.235354 0.23383 0.970212 0.0633388 0.162447 0.986717 0.000114111 
0.0676947 0.997682 0.00699432 0.0506887 0.99821 -0.0317384 0.0737881 0.997271 0.0024246 
0.0437975 0.997166 -0.0611781 -0.118356 0.992969 -0.00208187 -0.100669 0.994109 -0.0401642 
-0.210227 0.97173 0.107452 -0.201972 0.946771 0.250665 -0.216915 0.92012 0.326078 
-0.25293 0.912617 0.321179 0.511781 0.690007 0.511831 0.316708 0.867252 0.384149 
0.346566 0.837331 0.422812 -0.283524 0.891007 0.35457 -0.324825 0.86334 0.386176 
-0.387926 0.920706 -0.0426024 -0.502083 0.801394 0.325086 0.524757 0.68111 0.510607 
0.625804 0.56577 0.536912 -0.606728 0.724461 0.327166 -0.758824 0.588884 0.278212 
0.682978 0.489656 0.542014 -0.807221 0.521589 0.276295 0.802775 0.223675 0.552741 
0.94577 0.227785 0.231589 -0.942399 0.192302 0.273687 0.853132 -0.0735855 0.516479 
0.951414 -0.102792 0.290251 -0.953094 -0.166121 0.253015 0.752864 -0.441036 0.488552 
0.6005 -0.629586 0.492972 -0.864063 -0.471069 0.177449 -0.784499 -0.598087 0.163873 
0.468289 -0.722492 0.508636 0.387852 -0.775691 0.49787 0.215011 -0.876618 0.430478 
0.153723 -0.870482 0.467578 0.0771427 -0.873911 0.479926 0.156883 -0.886307 0.435714 
-0.681244 -0.707369 0.188508 -0.522645 -0.824166 0.218154 0.148823 -0.958571 0.242884 
0.0844713 -0.923779 0.373492 0.157196 -0.88748 0.433208 0.155723 -0.889073 0.430464 
0.168176 -0.919107 0.356312 0.0848932 -0.933755 0.347701 0.0193877 -0.910543 0.41296 
-0.00603475 -0.936801 0.34981 -0.00436889 -0.955823 0.29391 0.0197254 -0.947111 0.320301 
0.0340351 -0.932003 0.360849 -0.0838038 -0.926879 0.365886 -0.184135 -0.947574 0.261148 
-0.352053 -0.893925 0.27741 -0.336414 -0.89919 0.279793 0.213362 0.976693 0.023396 
0.0943838 0.988744 -0.116093 0.0867651 0.965938 -0.243793 0.107959 0.944475 -0.310342 
0.0800734 0.959178 -0.271231 0.0375684 0.953918 -0.297705 0.0265239 0.925435 -0.377977 
-0.0051772 0.929372 -0.369108 -0.0500569 0.965841 -0.254254 -0.111203 0.983178 -0.144895 
-0.166731 0.981749 -0.0914893 -0.229973 0.970184 -0.0765232 -0.3914 0.911413 -0.127017 
0.481577 0.870863 0.098393 0.266266 0.96305 0.0404618 0.307345 0.950091 0.0535269 
-0.280058 0.867447 -0.411221 -0.400212 0.907529 -0.127366 -0.391914 0.907302 -0.152338 
-0.531304 0.837495 -0.127742 0.600406 0.794017 0.0951271 0.650214 0.754087 0.0925982 
-0.677103 0.722407 -0.140212 -0.540702 0.635257 -0.551444 -0.789554 0.594917 -0.150593 
0.847762 0.522834 0.0891301 0.950911 0.303696 0.0594673 -0.86401 0.468025 -0.185577 
-0.746113 0.334401 -0.575753 0.974595 0.216054 0.0590358 0.96713 0.195726 -0.16233 
-0.940306 0.157649 -0.301613 -0.724828 0.0107097 -0.688846 0.990401 -0.136052 0.024425 
0.957723 -0.287512 0.0101928 0.966864 -0.130129 -0.219639 -0.929664 -0.188731 -0.316396 
-0.715555 -0.0983257 -0.691602 0.888329 -0.458604 0.0235362 0.652843 -0.756771 0.0330784 
-0.823831 -0.488689 -0.287202 -0.790838 -0.545644 -0.277215 -0.760022 -0.417562 -0.498005 
0.62648 -0.77865 0.0350209 0.403084 -0.91354 0.0544806 0.271768 -0.951328 0.145319 
-0.684476 -0.671142 -0.284713 -0.561493 -0.788598 -0.250678 -0.555998 -0.63659 -0.534433 
0.217196 -0.966705 0.135308 0.138932 -0.983371 0.116959 0.103536 -0.97858 0.17794 
0.0792549 -0.98265 0.167682 0.106775 -0.99014 0.0906736 0.082084 -0.995786 0.0409077 
-0.00523174 -0.999818 0.0183592 -0.0493231 -0.998681 -0.0142725 -0.000187989 -0.999701 -0.0244379 
0.0629586 -0.997852 -0.0181028 0.022597 -0.99904 -0.0375202 -0.112186 -0.989096 -0.0954127 
-0.24632 -0.962206 -0.116128 -0.344981 -0.790053 -0.506759 -0.386652 -0.88899 -0.24535 
-0.363186 -0.899604 -0.242502 -0.371768 -0.881271 -0.291806 0.161047 0.934797 -0.316573 
-0.00654943 0.937417 -0.348146 0.0251213 0.92875 -0.369856 0.119485 0.888453 -0.443141 
0.083941 0.900348 -0.426998 -0.0497587 0.901115 -0.430715 -0.0538084 0.844247 -0.533246 
0.0244012 0.825915 -0.563266 0.0319521 0.838788 -0.54352 -0.0274193 0.85711 -0.514403 
-0.144209 0.847246 -0.511251 0.472164 0.834697 -0.283446 0.179876 0.933006 -0.31168 
0.276683 0.927643 -0.250847 0.157859 0.921254 -0.355487 -0.00589835 0.930151 -0.367131 
0.0198463 0.92094 -0.389199 0.104549 0.865419 -0.49002 0.0886149 0.808773 -0.581406 
-0.0622779 0.82736 -0.558208 -0.0753636 0.813983 -0.575979 0.0165125 0.785605 -0.618508 
0.0326166 0.773531 -0.632918 -0.0301717 0.778506 -0.626911 -0.244266 0.830067 -0.501321 
-0.141645 0.787027 -0.600437 -0.278406 0.819692 -0.500594 -0.359887 0.745316 -0.561236 
0.561938 0.786934 -0.254875 0.661413 0.698583 -0.272974 0.487887 0.71685 -0.498088 
-0.214663 0.465328 -0.858714 -0.529723 0.624089 -0.574376 -0.345825 0.555189 -0.756419 
-0.53519 0.613178 -0.58102 0.81816 0.478665 -0.318581 0.678147 0.428711 -0.596928 
-0.311762 0.265623 -0.912277 -0.681165 0.313942 -0.661404 -0.456453 0.287509 -0.842015 
0.926052 0.173149 -0.33533 -0.708606 0.00863089 -0.705552 -0.457044 0.0703065 -0.886661 
0.921972 -0.123739 -0.366954 -0.687756 -0.0978061 -0.719323 -0.453115 -0.106505 -0.885067 
0.83883 -0.424753 -0.340513 0.647681 -0.697164 -0.307361 0.636203 -0.386967 -0.66746 
-0.288671 -0.352189 -0.890299 -0.591331 -0.390785 -0.705418 -0.506508 -0.525939 -0.683255 
-0.465396 -0.38157 -0.79863 0.568053 -0.766928 -0.298559 0.454338 -0.845829 -0.279554 
0.44449 -0.672099 -0.592208 0.296241 -0.922591 -0.247117 -0.350762 -0.743701 -0.5691 
-0.296646 -0.453098 -0.840657 -0.469446 -0.577742 -0.667709 -0.392753 -0.642632 -0.657852 
-0.373385 -0.536922 -0.756504 0.235852 -0.951209 -0.198934 0.194111 -0.966818 -0.166085 
0.203437 -0.937941 -0.280856 0.122728 -0.978691 -0.164625 0.125487 -0.886808 -0.444775 
0.0651956 -0.988318 -0.13776 0.0797902 -0.822065 -0.563775 0.0442124 -0.984704 -0.168532 
0.0146349 -0.973185 -0.229558 -0.0380197 -0.961085 -0.273623 -0.0580894 -0.804882 -0.590585 
-0.053779 -0.957581 -0.283101 -0.0493158 -0.825972 -0.56155 -0.00798547 -0.960083 -0.2796 
-0.0165258 -0.844995 -0.534519 0.00669052 -0.953379 -0.301703 -0.0480764 -0.821246 -0.568545 
-0.0493176 -0.911653 -0.407991 -0.119375 -0.790231 -0.60107 -0.322402 -0.768712 -0.552393 
-0.166063 -0.850649 -0.498819 -0.200019 -0.764161 -0.61323 0.268331 0.802665 -0.532661 
0.120162 0.79937 -0.588701 0.000580014 0.827953 -0.560798 -0.0683242 0.780415 -0.621518 
-0.00883865 0.69935 -0.714725 0.0737238 0.621495 -0.779941 -0.0531059 0.676828 -0.734223 
-0.129422 0.666142 -0.734509 -0.0537495 0.53385 -0.843869 -0.0230923 0.463537 -0.885777 
-0.0311591 0.43601 -0.899402 -0.0704168 0.44759 -0.891462 0.393689 0.696185 -0.600279 
0.473476 0.60598 -0.639225 0.303538 0.655027 -0.691957 0.0972425 0.661036 -0.744026 
-0.0260921 0.633908 -0.772968 -0.104503 0.651086 -0.751776 -0.0688686 0.622413 -0.779653 
0.0427151 0.505374 -0.861843 -0.0143935 0.49491 -0.868825 -0.14266 0.581993 -0.800582 
-0.0784022 0.481772 -0.872782 -0.0330845 0.402865 -0.914661 -0.0302588 0.401987 -0.915145 
-0.123906 0.434056 -0.892324 -0.0682491 0.42209 -0.903981 -0.201485 0.386683 -0.899933 
0.628673 0.404932 -0.663928 0.664565 0.273759 -0.695276 0.419598 0.409064 -0.810311 
0.232187 0.324259 -0.917031 -0.0665925 0.389234 -0.918729 -0.00283604 0.236103 -0.971724 
-0.164957 0.244647 -0.955477 -0.206127 0.27456 -0.939217 -0.0685641 0.211956 -0.974871 
-0.0188867 0.220001 -0.975317 -0.0645373 0.207569 -0.976089 -0.306332 0.263384 -0.914762 
-0.174971 0.21789 -0.960161 -0.311333 0.256001 -0.91517 0.688028 0.130067 -0.713932 
0.632327 0.118506 -0.765584 0.360132 0.0514908 -0.931479 -0.1422 0.106589 -0.984082 
-0.112827 0.0386164 -0.992864 -0.176137 0.156419 -0.971859 -0.0971964 0.14077 -0.98526 
-0.0321449 0.0925269 -0.995191 -0.0828106 0.0623782 -0.994611 -0.16606 0.0573333 -0.984447 
-0.352038 0.0634611 -0.933832 -0.302266 0.0680271 -0.950793 0.653879 -0.139087 -0.743705 
0.622185 -0.241097 -0.744821 0.610443 -0.13812 -0.779925 0.358956 -0.131078 -0.924104 
-0.118225 -0.0271501 -0.992616 -0.116108 0.00260201 -0.993233 -0.131574 0.0585201 -0.989578 
-0.0953586 -0.0211572 -0.995218 -0.103453 -0.0809645 -0.991334 -0.173044 -0.126409 -0.976768 
-0.348847 -0.130841 -0.928001 -0.28942 -0.247905 -0.924543 -0.310107 -0.152611 -0.938373 
0.572796 -0.366203 -0.733349 0.419642 -0.552905 -0.719859 0.359107 -0.393214 -0.846419 
0.220996 -0.332065 -0.917002 -0.0638425 -0.231909 -0.97064 -0.00517431 -0.209608 -0.977772 
0.0605753 -0.21526 -0.974676 -0.140541 -0.163021 -0.976561 -0.0862659 -0.160443 -0.983268 
-0.122742 -0.109322 -0.986399 -0.173579 -0.129463 -0.976273 -0.183731 -0.202105 -0.961975 
-0.236129 -0.281957 -0.929916 -0.248035 -0.300504 -0.920965 -0.223391 -0.247394 -0.942811 
0.369327 -0.621006 -0.691338 0.297915 -0.697086 -0.652164 0.298493 -0.59294 -0.74788 
0.198668 -0.750358 -0.630472 0.148526 -0.54306 -0.826454 0.114983 -0.774738 -0.62174 
0.0829201 -0.481659 -0.872427 0.079054 -0.802466 -0.591437 0.0363979 -0.403963 -0.914051 
0.00173509 -0.365758 -0.930709 -0.00408771 -0.398304 -0.917244 -0.0612455 -0.767683 -0.637896 
-0.0764614 -0.448383 -0.890565 -0.0526737 -0.726833 -0.684791 -0.0947341 -0.413824 -0.905415 
-0.0289393 -0.70875 -0.704866 -0.057078 -0.3855 -0.920941 -0.0827598 -0.662987 -0.744042 
-0.0965427 -0.364914 -0.926022 -0.181013 -0.531228 -0.827666 -0.189512 -0.360849 -0.913167 
-0.224503 -0.386735 -0.894446 -0.213297 -0.399361 -0.891636 -0.212774 -0.379361 -0.900451 
0.0500825 -0.805368 -0.590655 0.0138637 -0.803474 -0.595178 0.0131963 -0.794304 -0.607377 
-0.0394052 -0.79291 -0.608064 -0.0358627 -0.795601 -0.604759 -0.0359503 -0.792792 -0.608431 
0.118429 0.372818 -0.920316 -0.00711043 0.42146 -0.906819 -0.093908 0.41986 -0.902717 
-0.151326 0.405459 -0.901501 0.184612 0.295963 -0.93719 0.232324 0.216155 -0.948316 
0.126208 0.268218 -0.955055 0.013806 0.325848 -0.945321 -0.0888143 0.334232 -0.938297 
-0.150242 0.404243 -0.902228 -0.151404 0.404356 -0.901983 -0.115809 0.28272 -0.952186 
0.277617 0.0520661 -0.95928 0.240547 0.0520755 -0.96924 0.110671 0.034083 -0.993273 
0.0216657 0.0257924 -0.999433 -0.0363864 0.0339364 -0.998761 -0.0808807 0.0704411 -0.994232 
-0.144723 0.11376 -0.982911 -0.155331 0.156887 -0.975325 -0.140775 0.0843414 -0.986443 
0.228288 -0.176183 -0.95752 0.215925 -0.199063 -0.955903 0.213835 -0.180211 -0.960103 
0.100163 -0.151942 -0.983301 0.0144519 -0.153722 -0.988008 -0.0636591 -0.230436 -0.971003 
-0.0424071 -0.17963 -0.98282 -0.013897 -0.200569 -0.979581 -0.0274368 -0.189962 -0.981408 
0.0509796 -0.203756 -0.977693 -0.0462894 -0.098911 -0.994019 -0.129181 0.00787347 -0.99159 
-0.135496 0.0291386 -0.990349 0.135225 -0.291212 -0.947053 0.133081 -0.293357 -0.946695 
0.132831 -0.290051 -0.947748 -0.0572856 -0.23938 -0.969235 0.00305864 -0.311413 -0.95027 
-0.00539162 -0.295371 -0.955368 0.0150857 -0.199005 -0.979882 -0.081106 -0.167404 -0.982547 
-0.0694041 -0.195216 -0.978301 -0.0684142 -0.1684 -0.983342 
