# vtk DataFile Version 4.2
vtk output
ASCII
DATASET POLYDATA
POINTS 552 float
-4.61444 -37.2928 -21.563 3.92223 -37.2928 -21.6618 12.4589 -28.7561 -21.6871 
38.0689 -11.6828 -21.3896 38.0689 -3.14611 -21.4593 -21.6878 -45.8295 -14.5277 
-13.1511 -45.8295 -17.6765 -4.61444 -38.9225 -21.2098 -4.61444 -45.8295 -18.9707 
3.92223 -39.0186 -21.2098 3.92223 -45.8295 -18.4745 12.4589 -45.8295 -15.4144 
-38.7611 -37.2928 -13.0989 -30.2244 -37.2928 -16.926 -21.6878 -37.2928 -18.7671 
-7.32536 -37.2928 -21.2098 -13.1511 -37.2928 -20.287 -4.61444 -34.8063 -21.2098 
8.71669 -37.2928 -21.2098 3.92223 -33.4193 -21.2098 12.4589 -33.3606 -21.2098 
12.4589 -37.2928 -20.7581 20.9956 -37.2928 -18.7732 29.5322 -37.2928 -15.4166 
-47.2978 -28.7561 -13.4437 -38.7611 -28.7561 -18.0908 -30.2244 -28.7561 -19.8822 
-21.6878 -28.7561 -20.2955 -13.1511 -28.7561 -20.5397 -4.61444 -28.7561 -20.2263 
8.77483 -28.7561 -21.2098 3.92223 -28.7561 -20.5902 17.8074 -28.7561 -21.2098 
12.4589 -25.719 -21.2098 20.9956 -28.7561 -20.9247 29.5322 -28.7561 -19.8256 
38.0689 -28.7561 -17.1828 -47.2978 -20.2195 -17.5737 -38.7611 -20.2195 -20.1899 
-30.2244 -20.2195 -21.015 -21.6878 -20.2195 -20.7369 -13.1511 -20.2195 -20.0412 
-4.61444 -20.2195 -18.9386 3.92223 -20.2195 -19.2558 12.4589 -20.2195 -20.3583 
20.9956 -20.2195 -20.9332 29.5322 -20.2195 -20.615 38.0689 -12.7156 -21.2098 
38.0689 -20.2195 -19.9754 46.6056 -20.2195 -17.6131 -55.8344 -11.6828 -14.1672 
-47.2978 -11.6828 -19.3596 -38.7611 -11.6828 -21.0662 -30.2244 -11.6828 -21.0949 
-21.6878 -11.6828 -20.4088 -13.1511 -11.6828 -19.2756 -4.61444 -11.6828 -19.3915 
3.92223 -11.6828 -19.6321 12.4589 -11.6828 -19.473 20.9956 -11.6828 -20.1217 
32.6554 -11.6828 -21.2098 29.5322 -11.6828 -21.1088 39.1653 -11.6828 -21.2098 
46.6056 -11.6828 -19.8858 55.1422 -11.6828 -15.4019 -55.8344 -3.14611 -15.1585 
-47.2978 -3.14611 -19.889 -38.7611 -3.14611 -21.1119 -30.2244 -3.14611 -20.8542 
-21.6878 -3.14611 -19.4691 -13.1511 -3.14611 -19.2633 -4.61444 -3.14611 -19.1681 
3.92223 -3.14611 -19.2064 12.4589 -3.14611 -18.8807 20.9956 -3.14611 -19.4542 
35.4131 -3.14611 -21.2098 29.5322 -3.14611 -20.627 39.8251 -3.14611 -21.2098 
38.0689 -1.80016 -21.2098 46.6056 -3.14611 -20.0947 55.1422 -3.14611 -15.8806 
-55.8344 5.39055 -16.1381 -47.2978 5.39055 -19.8406 -38.7611 5.39055 -20.8961 
-30.2244 5.39055 -20.6727 -21.6878 5.39055 -19.8431 -13.1511 5.39055 -20.024 
-4.61444 5.39055 -17.6593 3.92223 5.39055 -18.076 12.4589 5.39055 -19.6782 
20.9956 5.39055 -19.0098 29.5322 5.39055 -19.8423 38.0689 5.39055 -19.7641 
46.6056 5.39055 -18.2749 55.1422 5.39055 -14.8142 -55.8344 13.9272 -15.2006 
-47.2978 13.9272 -18.909 -38.7611 13.9272 -20.271 -30.2244 13.9272 -20.3345 
-21.6878 13.9272 -19.7808 -13.1511 13.9272 -19.08 -4.61444 13.9272 -19.4088 
3.92223 13.9272 -19.616 12.4589 13.9272 -17.9195 20.9956 13.9272 -17.4893 
29.5322 13.9272 -18.0141 38.0689 13.9272 -17.575 46.6056 13.9272 -15.9007 
-47.2978 22.4639 -17.5978 -38.7611 22.4639 -19.2964 -30.2244 22.4639 -20.1825 
-21.6878 22.4639 -19.6331 -13.1511 22.4639 -18.8891 -4.61444 22.4639 -17.7859 
3.92223 22.4639 -15.8258 12.4589 22.4639 -15.9048 20.9956 22.4639 -16.8882 
29.5322 22.4639 -16.4973 38.0689 22.4639 -15.7017 46.6056 22.4639 -12.7329 
-47.2978 31.0006 -14.8619 -38.7611 31.0006 -17.3887 -30.2244 31.0006 -18.8467 
-21.6878 31.0006 -19.1323 -13.1511 31.0006 -18.4086 -4.61444 31.0006 -16.9093 
3.92223 31.0006 -15.3497 12.4589 31.0006 -15.2476 20.9956 31.0006 -16.1379 
29.5322 31.0006 -15.6504 38.0689 31.0006 -14.1399 -38.7611 39.5372 -13.9264 
-30.2244 39.5372 -16.4761 -21.6878 39.5372 -17.13 -13.1511 39.5372 -16.6554 
-4.61444 39.5372 -15.0363 3.92223 39.5372 -14.0451 12.4589 39.5372 -14.0592 
20.9956 39.5372 -14.2425 29.5322 39.5372 -14.4368 -21.6878 -48.0184 -12.6732 
-13.1511 -51.3056 -12.6732 -13.1511 -54.3661 -4.29161 -4.61444 -51.9783 -12.6732 
3.92223 -50.8925 -12.6732 12.4589 -47.9703 -12.6732 -38.7611 -37.7907 -12.6732 
-25.7552 -45.8295 -12.6732 -30.2244 -43.244 -12.6732 -30.2244 -45.8295 -9.64271 
17.5285 -45.8295 -12.6732 20.9956 -44.2422 -12.6732 29.5322 -39.9184 -12.6732 
-39.368 -37.2928 -12.6732 -47.2978 -29.7771 -12.6732 34.3048 -37.2928 -12.6732 
38.0689 -34.7659 -12.6732 38.0689 -37.2928 -7.57264 -48.1511 -28.7561 -12.6732 
46.3155 -28.7561 -12.6732 46.6056 -28.5171 -12.6732 46.6056 -28.7561 -12.3959 
-54.0543 -20.2195 -12.6732 -55.8344 -15.4715 -12.6732 -55.8344 -20.2195 -8.86204 
54.4251 -20.2195 -12.6732 55.1422 -18.8996 -12.6732 55.1422 -20.2195 -11.8575 
-57.0694 -11.6828 -12.6732 58.3314 -11.6828 -12.6732 -58.8903 -3.14611 -12.6732 
59.0059 -3.14611 -12.6732 63.6789 -3.14611 -5.40193 -59.4649 5.39055 -12.6732 
-64.3711 5.39055 -4.14882 57.7956 5.39055 -12.6732 55.1422 10.0409 -12.6732 
-58.7807 13.9272 -12.6732 -55.8344 21.4778 -12.6732 52.3251 13.9272 -12.6732 
55.1422 13.9272 -10.4607 -55.4637 22.4639 -12.6732 -55.8344 22.4639 -12.2797 
46.7042 22.4639 -12.6732 46.6056 23.0226 -12.6732 55.1422 22.4639 -5.74651 
-50.2445 31.0006 -12.6732 -47.2978 34.3814 -12.6732 44.0295 31.0006 -12.6732 
38.0689 35.078 -12.6732 46.6056 31.0006 -11.3751 -41.0346 39.5372 -12.6732 
-47.2978 39.5372 -4.25348 -38.7611 40.8965 -12.6732 -30.2244 44.9377 -12.6732 
-21.6878 46.4371 -12.6732 -13.1511 46.3728 -12.6732 -4.61444 44.4708 -12.6732 
3.92223 43.048 -12.6732 12.4589 43.4757 -12.6732 20.9956 43.0056 -12.6732 
33.4854 39.5372 -12.6732 29.5322 44.0758 -12.6732 38.0689 39.5372 -10.6653 
46.6056 39.5372 -4.58276 -30.2244 48.0739 -6.72137 -21.6878 48.0739 -10.6656 
-13.1511 48.0739 -11.1886 -4.61444 48.0739 -10.4167 3.92223 48.0739 -10.3569 
12.4589 48.0739 -10.707 20.9956 48.0739 -9.99923 29.5322 48.0739 -10.7378 
38.0689 48.0739 -4.76283 -13.1511 -54.4112 -4.13649 -30.2244 -49.298 -4.13649 
-13.4184 -54.3661 -4.13649 -21.6878 -52.8014 -4.13649 -12.5912 -54.3661 -4.13649 
-13.1511 -54.3661 -3.76224 -4.61444 -53.7267 -4.13649 3.92223 -51.5042 -4.13649 
12.4589 -48.5731 -4.13649 -35.3685 -45.8295 -4.13649 -38.7611 -43.2977 -4.13649 
20.2568 -45.8295 -4.13649 20.9956 -45.5845 -4.13649 29.5322 -42.2458 -4.13649 
38.0689 -38.5 -4.13649 -45.2034 -37.2928 -4.13649 -47.2978 -34.9452 -4.13649 
40.3863 -37.2928 -4.13649 46.6056 -33.7038 -4.13649 -52.1587 -28.7561 -4.13649 
-55.8344 -22.97 -4.13649 53.2963 -28.7561 -4.13649 55.1422 -26.9267 -4.13649 
-57.4173 -20.2195 -4.13649 60.494 -20.2195 -4.13649 -61.2744 -11.6828 -4.13649 
63.439 -11.6828 -4.13649 63.6789 -9.2959 -4.13649 -63.2407 -3.14611 -4.13649 
-64.3711 5.35436 -4.13649 64.2695 -3.14611 -4.13649 63.6789 1.6748 -4.13649 
-64.3759 5.39055 -4.13649 -64.3711 5.48283 -4.13649 -64.3711 5.39055 -4.09151 
63.1514 5.39055 -4.13649 -63.9092 13.9272 -4.13649 59.8327 13.9272 -4.13649 
-60.9194 22.4639 -4.13649 -55.8344 30.786 -4.13649 56.1799 22.4639 -4.13649 
55.1422 24.8528 -4.13649 -55.6796 31.0006 -4.13649 51.8031 31.0006 -4.13649 
-47.3492 39.5372 -4.13649 -47.2978 39.5777 -4.13649 -47.2978 39.5372 -4.02194 
-38.7611 45.1673 -4.13649 46.926 39.5372 -4.13649 46.6056 39.9471 -4.13649 
-32.4775 48.0739 -4.13649 -30.2244 49.0338 -4.13649 -30.2244 48.0739 -0.953098 
-21.6878 51.1387 -4.13649 -13.1511 52.3067 -4.13649 -4.61444 53.0376 -4.13649 
3.92223 54.1097 -4.13649 12.4589 54.7614 -4.13649 20.9956 54.2005 -4.13649 
29.5322 52.7644 -4.13649 38.6224 48.0739 -4.13649 38.0689 48.5073 -4.13649 
38.0689 48.0739 2.11 -30.2244 -49.2911 4.40018 -21.6878 -52.7257 4.40018 
-13.1511 -53.2769 4.40018 -4.61444 -51.9066 4.40018 3.92223 -49.5634 4.40018 
12.4589 -47.3282 4.40018 -35.505 -45.8295 4.40018 -38.7611 -43.075 4.40018 
-30.2244 -45.8295 10.1462 3.92223 -45.8295 12.5635 17.3959 -45.8295 4.40018 
12.4589 -45.8295 9.53201 20.9956 -44.815 4.40018 29.5322 -42.1854 4.40018 
38.0689 -38.8539 4.40018 -44.4956 -37.2928 4.40018 -47.2978 -33.794 4.40018 
-38.7611 -37.2928 11.2536 41.1997 -37.2928 4.40018 38.0689 -37.2928 10.5287 
46.6056 -34.2464 4.40018 -50.7598 -28.7561 4.40018 -55.8344 -20.5648 4.40018 
-47.2978 -28.7561 9.06105 54.0056 -28.7561 4.40018 55.1422 -27.6306 4.40018 
-56.0311 -20.2195 4.40018 -55.8344 -20.2195 4.75139 60.9252 -20.2195 4.40018 
-60.0754 -11.6828 4.40018 -55.8344 -11.6828 10.9931 63.6159 -11.6828 4.40018 
63.6789 -11.0549 4.40018 -62.2313 -3.14611 4.40018 64.4449 -3.14611 4.40018 
63.6789 3.27968 4.40018 63.6789 -3.14611 6.16481 -63.3264 5.39055 4.40018 
63.4015 5.39055 4.40018 -62.3242 13.9272 4.40018 -55.8344 13.9272 11.1668 
60.2136 13.9272 4.40018 55.1422 13.9272 11.5897 -59.338 22.4639 4.40018 
-55.8344 27.6127 4.40018 -55.8344 22.4639 8.91016 56.6259 22.4639 4.40018 
55.1422 25.606 4.40018 55.1422 22.4639 7.01656 -52.2122 31.0006 4.40018 
-47.2978 35.6442 4.40018 -47.2978 31.0006 9.04197 -38.7611 31.0006 12.2345 
51.8462 31.0006 4.40018 46.6056 31.0006 11.91 -41.7516 39.5372 4.40018 
-38.7611 41.2699 4.40018 -38.7611 39.5372 6.42148 -30.2244 45.6755 4.40018 
-30.2244 39.5372 9.69327 -21.6878 39.5372 12.209 38.0689 47.8182 4.40018 
38.0689 39.5372 9.88865 46.8255 39.5372 4.40018 46.6056 39.8002 4.40018 
46.6056 39.5372 4.70227 -23.4535 48.0739 4.40018 -21.6878 48.5294 4.40018 
-21.6878 48.0739 5.00498 -13.1511 49.9422 4.40018 -13.1511 48.0739 6.78843 
-4.61444 52.3989 4.40018 -4.61444 48.0739 9.71732 3.92223 54.6424 4.40018 
3.92223 48.0739 11.91 12.4589 54.9348 4.40018 12.4589 48.0739 12.051 
20.9956 54.2254 4.40018 20.9956 48.0739 10.6924 37.5883 48.0739 4.40018 
29.5322 51.1906 4.40018 29.5322 48.0739 8.78951 -21.6878 -47.1267 12.9368 
-13.1511 -47.7514 12.9368 -4.61444 -46.7007 12.9368 -24.8203 -45.8295 12.9368 
-30.2244 -43.4014 12.9368 -21.6878 -45.8295 13.9725 -13.1511 -45.8295 14.5578 
2.32033 -45.8295 12.9368 -4.61444 -45.8295 13.802 3.92223 -45.6286 12.9368 
12.4589 -44.7718 12.9368 20.9956 -43.2332 12.9368 29.5322 -40.6515 12.9368 
-36.9986 -37.2928 12.9368 -38.7611 -35.2937 12.9368 -30.2244 -37.2928 16.9703 
-21.6878 -37.2928 18.2065 -13.1511 -37.2928 18.5108 -4.61444 -37.2928 19.154 
3.92223 -37.2928 20.0747 20.9956 -37.2928 20.5419 36.7041 -37.2928 12.9368 
[...]
POINT_DATA 552
SCALARS ImageScalars float
LOOKUP_TABLE default
0 0 0 0 0 0 0 0 0 
0 0 0 0 0 0 0 0 0 
0 0 0 0 0 0 0 0 0 
0 0 0 0 0 0 0 0 0 
0 0 0 0 0 0 0 0 0 
0 0 0 0 0 0 0 0 0 
0 0 0 0 0 0 0 0 0 
0 0 0 0 0 0 0 0 0 
0 0 0 0 0 0 0 0 0 
0 0 0 0 0 0 0 0 0 
0 0 0 0 0 0 0 0 0 
0 0 0 0 0 0 0 0 0 
0 0 0 0 0 0 0 0 0 
0 0 0 0 0 0 0 0 0 
0 0 0 0 0 0 0 0 0 
0 0 0 0 0 0 0 0 0 
0 0 0 0 0 0 0 0 0 
0 0 0 0 0 0 0 0 0 
0 0 0 0 0 0 0 0 0 
0 0 0 0 0 0 0 0 0 
0 0 0 0 0 0 0 0 0 
0 0 0 0 0 0 0 0 0 
0 0 0 0 0 0 0 0 0 
0 0 0 0 0 0 0 0 0 
0 0 0 0 0 0 0 0 0 
0 0 0 0 0 0 0 0 0 
0 0 0 0 0 0 0 0 0 
0 0 0 0 0 0 0 0 0 
0 0 0 0 0 0 0 0 0 
0 0 0 0 0 0 0 0 0 
0 0 0 0 0 0 0 0 0 
0 0 0 0 0 0 0 0 0 
0 0 0 0 0 0 0 0 0 
0 0 0 0 0 0 0 0 0 
0 0 0 0 0 0 0 0 0 
0 0 0 0 0 0 0 0 0 
0 0 0 0 0 0 0 0 0 
0 0 0 0 0 0 0 0 0 
0 0 0 0 0 0 0 0 0 
0 0 0 0 0 0 0 0 0 
0 0 0 0 0 0 0 0 0 
0 0 0 0 0 0 0 0 0 
0 0 0 0 0 0 0 0 0 
0 0 0 0 0 0 0 0 0 
0 0 0 0 0 0 0 0 0 
0 0 0 0 0 0 0 0 0 
0 0 0 0 0 0 0 0 0 
0 0 0 0 0 0 0 0 0 
0 0 0 0 0 0 0 0 0 
0 0 0 0 0 0 0 0 0 
0 0 0 0 0 0 0 0 0 
0 0 0 0 0 0 0 0 0 
0 0 0 0 0 0 0 0 0 
0 0 0 0 0 0 0 0 0 
0 0 0 0 0 0 0 0 0 
0 0 0 0 0 0 0 0 0 
0 0 0 0 0 0 0 0 0 
0 0 0 0 0 0 0 0 0 
0 0 0 0 0 0 0 0 0 
0 0 0 0 0 0 0 0 0 
0 0 0 0 0 0 0 0 0 
0 0 0 
NORMALS Normals float
0.0739963 0.0443427 0.996272 -0.0393047 0.0812008 0.995922 0.0206118 -0.0283165 0.999386 
-0.0658779 0.0914503 0.993628 -0.0261633 -0.0906129 0.995542 0.336606 0.588195 0.735338 
0.215039 0.473626 0.854071 0.075391 0.117578 0.990198 0.0459994 0.508536 0.859811 
-0.0605347 0.163348 0.98471 -0.146713 0.58341 0.798817 -0.335511 0.753554 0.565322 
0.475606 0.580863 0.660603 0.285537 0.438419 0.852208 0.179374 0.293791 0.938888 
0.105818 0.0726167 0.991731 0.166441 0.15236 0.974209 0.0575661 -0.0151163 0.998227 
-0.109861 0.17891 0.977713 0.0127132 -0.0199988 0.999719 -0.0775522 0.126656 0.98891 
-0.166432 0.273933 0.947239 -0.265483 0.432277 0.861775 -0.39498 0.644365 0.654817 
0.584309 0.519127 0.623771 0.310937 0.359839 0.879679 0.115907 0.226958 0.966983 
0.0364222 0.110606 0.993197 -0.00344408 -0.0141293 0.999894 0.00304222 -0.157019 0.987591 
0.0482714 -0.0775081 0.995822 0.0835519 -0.13902 0.986759 -0.0603665 0.0574692 0.996521 
0.0483395 -0.0640809 0.996773 -0.107729 0.109357 0.988148 -0.195497 0.238076 0.951368 
-0.335684 0.447554 0.828862 0.444063 0.282849 0.850179 0.184422 0.150192 0.971304 
0.0339184 0.0675577 0.997139 -0.0572034 0.00909983 0.998321 -0.106559 -0.0750442 0.99147 
-0.0435218 -0.0515816 0.99772 0.0837932 -0.0590014 0.994735 0.0992011 -0.130146 0.98652 
0.0150177 -0.0447334 0.998886 -0.0571942 0.0740411 0.995614 -0.0766595 0.105886 0.991419 
-0.159687 0.208459 0.964907 -0.380838 0.319263 0.867775 0.724609 0.200091 0.659474 
0.294361 0.125594 0.947406 0.0907486 0.0577733 0.994197 -0.0361831 -0.00941462 0.999301 
-0.108928 -0.0757734 0.991157 -0.0568416 -0.0440133 0.997413 0.0208744 0.0179028 0.999622 
0.00360358 0.00417162 0.999985 0.027889 -0.0862987 0.995879 0.0977949 -0.0882125 0.991289 
0.0219599 0.033664 0.999192 0.070812 0.000622095 0.99749 -0.0952683 0.0977623 0.990639 
-0.298308 0.130857 0.945457 -0.58266 0.16549 0.795689 0.593497 0.0797294 0.800877 
0.302283 0.0239511 0.952917 0.0491662 -0.0100191 0.99874 -0.0953231 -0.0246376 0.995141 
-0.0947622 -0.0304197 0.995035 -0.0166232 0.0448562 0.998855 -0.00475536 -0.103167 0.994653 
-0.0215496 -0.0882061 0.995869 0.0198882 0.00996484 0.999753 0.101981 -0.0629896 0.99279 
0.0190905 -0.0861277 0.996101 0.119695 -0.0752092 0.989958 -0.076704 -0.0902838 0.992958 
-0.0331254 -0.112547 0.993094 -0.286028 -0.0856676 0.954384 -0.564731 -0.0299224 0.824732 
0.574065 0.0115169 0.818729 0.21233 -0.0512004 0.975856 0.0422244 -0.0491818 0.997897 
-0.0612664 -0.0303889 0.997659 -0.0379921 0.0182172 0.999112 -0.105022 -0.0106448 0.994413 
-0.140742 0.0380504 0.989315 0.147694 0.0274792 0.988651 0.0316753 -0.0460472 0.998437 
0.0108062 -0.114321 0.993385 0.0442126 -0.15641 0.986702 -0.0840646 -0.227527 0.970136 
-0.261113 -0.234059 0.936502 -0.545062 -0.251654 0.799736 0.552167 -0.169606 0.8163 
0.245925 -0.136167 0.959677 0.0756473 -0.0975309 0.992353 -0.028751 -0.0285298 0.999179 
-0.0733675 -0.0123424 0.997229 -0.0222992 -0.0663461 0.997547 0.0290664 -0.00769053 0.999548 
-0.087983 -0.181479 0.979451 -0.108501 -0.232861 0.966438 0.00920063 -0.123896 0.992253 
0.00437504 -0.189699 0.981833 -0.118652 -0.228264 0.966342 -0.336697 -0.274684 0.900658 
0.320108 -0.179571 0.930207 0.148154 -0.149578 0.977587 0.0229725 -0.0946731 0.995243 
-0.0743127 -0.0368797 0.996553 -0.106726 -0.0391697 0.993517 -0.180661 -0.141401 0.973328 
-0.108207 -0.19597 0.974621 0.0615301 -0.142227 0.98792 0.0347276 -0.0826825 0.995971 
-0.0655902 -0.136086 0.988523 -0.177812 -0.203836 0.962722 -0.437084 -0.238742 0.867156 
0.439445 -0.441162 0.782473 0.206184 -0.269455 0.940682 0.0881648 -0.205536 0.97467 
-0.0249984 -0.133314 0.990759 -0.123645 -0.118221 0.985259 -0.180066 -0.153217 0.971648 
-0.0927112 -0.100978 0.990559 0.0504548 -0.105099 0.993181 0.0234945 -0.144852 0.989174 
-0.125262 -0.109242 0.986091 -0.215168 -0.258132 0.941844 0.392126 -0.566315 0.724931 
0.139224 -0.43986 0.887209 0.0142366 -0.359699 0.93296 -0.114533 -0.318771 0.940886 
-0.139267 -0.301204 0.943335 -0.0519673 -0.244263 0.968316 0.0108719 -0.221544 0.97509 
0.0192347 -0.320769 0.946962 -0.188483 -0.278188 0.941852 0.346937 0.666301 0.660059 
0.177225 0.803864 0.567798 0.0458615 0.994757 0.0914087 -0.0255557 0.873262 0.48658 
-0.211811 0.892977 0.39715 -0.356138 0.85894 0.36795 0.482573 0.593113 0.644469 
0.38243 0.64667 0.659974 0.389324 0.62967 0.672267 0.444865 0.737471 0.508164 
-0.379541 0.84214 0.383077 -0.385094 0.820084 0.423279 -0.429301 0.763267 0.482829 
0.491602 0.589247 0.641183 0.597472 0.544096 0.589056 -0.446479 0.727086 0.521539 
-0.454538 0.682067 0.57287 -0.449341 0.839389 0.305809 0.612423 0.530848 0.58578 
-0.50266 0.630406 0.591541 -0.504866 0.627015 0.593264 -0.509073 0.639201 0.576425 
0.740507 0.36298 0.565593 0.769662 0.290941 0.568307 0.848369 0.419865 0.322464 
-0.628218 0.414731 0.658286 -0.642015 0.382175 0.664649 -0.659969 0.431568 0.614971 
0.770522 0.22832 0.595118 -0.695689 0.178822 0.695729 0.712557 0.110314 0.692887 
-0.707265 -0.0208691 0.706641 -0.954388 -0.01307 0.298284 0.723407 -0.000641363 0.690421 
0.988864 0.0406463 0.143163 -0.652762 -0.260063 0.711526 -0.596232 -0.306924 0.741825 
0.675055 -0.177004 0.716219 0.6766 -0.273355 0.683732 -0.539645 -0.327722 0.775488 
-0.673868 -0.349483 0.650971 0.674808 -0.2828 0.681659 0.698529 -0.294427 0.652204 
-0.44019 -0.239666 0.865328 -0.44309 -0.242898 0.862944 -0.816987 -0.403275 0.412191 
0.545454 -0.482839 0.685089 0.496353 -0.553831 0.66851 -0.425473 -0.295178 0.855478 
-0.293105 -0.321856 0.900277 -0.560969 -0.332891 0.757956 0.450779 -0.60666 0.654799 
0.614488 -0.788914 0.00432956 0.416473 -0.629205 0.65624 0.210926 -0.724636 0.656058 
0.0686882 -0.708391 0.70247 -0.0576371 -0.641073 0.765313 -0.0941048 -0.479552 0.872453 
-0.0291179 -0.355465 0.934236 -0.00276181 -0.348939 0.937141 0.010417 -0.408868 0.912534 
-0.296966 -0.326359 0.897386 -0.172099 -0.432566 0.885025 -0.436523 -0.42826 0.791228 
-0.756029 -0.559358 0.339909 0.305522 -0.933956 0.185428 0.120409 -0.852767 0.508222 
-0.0209487 -0.773584 0.633348 -0.0340982 -0.701923 0.711436 0.0156403 -0.606147 0.795199 
-0.0200807 -0.577215 0.816345 -0.00543 -0.616413 0.787404 -0.18088 -0.627578 0.75725 
-0.589919 -0.74839 0.303164 0.0437503 0.995461 0.0845146 0.469039 0.851531 0.234301 
0.0508139 0.994854 0.0876519 0.28308 0.93852 0.197602 0.0302295 0.996499 0.0779422 
0.0401452 0.99682 0.0688294 -0.163257 0.986472 -0.0148651 -0.290489 0.953843 -0.0761508 
-0.338342 0.940154 -0.0404402 0.557119 0.798597 0.22773 0.608786 0.768125 0.198405 
-0.334925 0.942217 0.00727044 -0.334783 0.942198 0.0135045 -0.373676 0.922301 0.0986219 
-0.429966 0.887374 0.166425 0.712564 0.684589 0.153591 0.746962 0.651645 0.131933 
-0.45539 0.872585 0.176679 -0.549687 0.805622 0.220947 0.810287 0.578781 0.0919078 
0.869168 0.489113 0.0729129 -0.665163 0.710366 0.230084 -0.707246 0.665923 0.237382 
0.890834 0.448206 0.0743432 -0.834309 0.490375 0.251916 0.935497 0.328363 0.130476 
-0.957949 0.176179 0.226484 -0.965703 0.121844 0.229283 0.978252 0.164635 0.126168 
0.988955 0.0411744 0.142382 -0.97093 -0.0141705 0.238943 -0.960803 -0.146359 0.235451 
0.988962 0.0406477 0.142488 0.989114 0.0381205 0.142126 0.9893 0.0405688 0.140144 
-0.939343 -0.249881 0.234935 0.975437 -0.191092 0.109574 -0.87997 -0.363439 0.305884 
0.903707 -0.406308 0.135008 0.8033 -0.593362 0.0512897 -0.853949 -0.413494 0.315902 
-0.846974 -0.430187 0.31237 0.799835 -0.5983 0.0479671 -0.828943 -0.47863 0.289425 
0.614862 -0.788629 -0.00277442 0.613943 -0.789345 -0.00296534 0.613916 -0.789318 -0.0092036 
0.46782 -0.883724 -0.0132889 -0.769108 -0.558154 0.311346 -0.762221 -0.568312 0.309905 
0.359086 -0.933159 0.0164567 0.322905 -0.946015 0.0280719 0.336859 -0.926852 -0.165743 
0.19179 -0.980173 0.0497747 0.109108 -0.987247 0.115923 0.105495 -0.955269 0.276281 
0.0988824 -0.918208 0.383557 0.00697638 -0.919171 0.393797 -0.122857 -0.912911 0.389228 
-0.311517 -0.916291 0.251732 -0.597617 -0.753507 0.274009 -0.586484 -0.76203 0.274495 
-0.565832 -0.795993 -0.215011 0.453861 0.859803 -0.233985 0.224066 0.944351 -0.240825 
-0.0446069 0.950152 -0.308578 -0.199632 0.916455 -0.346782 -0.249796 0.918782 -0.305681 
-0.262769 0.942998 -0.204221 0.583495 0.78253 -0.217211 0.65619 0.717329 -0.234208 
0.410398 0.753372 -0.513814 -0.104035 0.838526 -0.534837 -0.268441 0.950903 -0.154024 
-0.182064 0.931668 -0.314401 -0.275101 0.953328 -0.124435 -0.326962 0.94172 -0.0791156 
-0.415031 0.904998 -0.0934236 0.723377 0.633512 -0.274569 0.759033 0.578372 -0.298923 
0.596575 0.535794 -0.597514 -0.459076 0.88296 -0.0981413 -0.44238 0.835726 -0.325365 
-0.545057 0.829872 -0.11927 0.787659 0.513007 -0.341201 0.825503 0.460957 -0.325675 
0.715455 0.451219 -0.533409 -0.681317 0.719503 -0.134618 -0.712862 0.686983 -0.141003 
0.827524 0.457269 -0.325745 0.822313 0.456545 -0.339659 -0.858658 0.479547 -0.180943 
0.884471 0.33508 -0.324703 0.741092 0.283882 -0.608435 -0.968639 0.168118 -0.182961 
-0.970652 0.15458 -0.184225 0.931549 0.169119 -0.321893 -0.978993 -0.0124465 -0.203512 
-0.964534 -0.181416 -0.191735 -0.957029 -0.0124527 -0.289726 0.937917 0.0120042 -0.346651 
-0.952904 -0.236496 -0.189849 0.880495 -0.224509 -0.417521 0.626819 -0.193529 -0.754748 
-0.901077 -0.362796 -0.237569 -0.658644 -0.306442 -0.687227 0.803867 -0.42158 -0.419604 
0.699554 -0.549546 -0.456753 0.636027 -0.403093 -0.658017 -0.872946 -0.430601 -0.229233 
-0.852551 -0.459564 -0.248911 -0.813755 -0.421358 -0.400326 0.621497 -0.609097 -0.492689 
0.534163 -0.662923 -0.524598 0.477951 -0.533788 -0.697592 0.244942 -0.414348 -0.876538 
-0.81241 -0.514429 -0.274505 -0.538477 -0.383468 -0.75033 0.43884 -0.717871 -0.540444 
0.401668 -0.73828 -0.541854 0.379811 -0.6868 -0.619717 0.320648 -0.771265 -0.54985 
0.252013 -0.579987 -0.774664 0.202628 -0.522186 -0.828411 -0.522199 -0.755374 -0.395876 
-0.440308 -0.491336 -0.751477 -0.727066 -0.599519 -0.334593 -0.721625 -0.605311 -0.335941 
-0.716285 -0.601407 -0.3539 0.222275 -0.83105 -0.509853 0.196772 -0.839343 -0.506739 
0.194987 -0.82421 -0.531656 0.209346 -0.850389 -0.482714 0.200758 -0.790085 -0.57919 
0.256419 -0.894399 -0.36647 0.223788 -0.717853 -0.659247 0.145915 -0.942479 -0.300736 
0.100341 -0.603497 -0.791026 -0.0221967 -0.950099 -0.311158 -0.0642409 -0.593386 -0.80235 
-0.191545 -0.910874 -0.365539 -0.13609 -0.622581 -0.770631 -0.509536 -0.765292 -0.39332 
-0.349697 -0.846341 -0.401771 -0.288666 -0.719279 -0.63191 0.177651 0.652176 -0.736958 
-0.0245707 0.670517 -0.741487 -0.100132 0.722391 -0.684196 0.249193 0.653716 -0.714534 
0.371935 0.629282 -0.682399 0.165165 0.605642 -0.778408 -0.00602356 0.593992 -0.804449 
-0.0973629 0.812592 -0.574643 -0.0825528 0.692043 -0.71712 -0.0941604 0.829732 -0.550162 
-0.122855 0.901066 -0.415916 -0.21809 0.896601 -0.385413 -0.354671 0.854974 -0.378454 
0.531035 0.492957 -0.689199 0.553687 0.467804 -0.688905 0.304827 0.369191 -0.87794 
0.0840182 0.312649 -0.946146 0.0534997 0.299587 -0.952568 0.0848601 0.32811 -0.94082 
0.119998 0.418877 -0.900079 -0.162468 0.562206 -0.810881 -0.435745 0.798262 -0.415816 
-0.337352 0.694594 -0.6354 -0.447455 0.781853 -0.434155 -0.544888 0.66189 -0.51478 
0.588977 0.380534 -0.712952 0.583369 0.38122 -0.717184 0.434309 0.306283 -0.847093 
0.190825 0.180361 -0.964912 0.0696041 0.145967 -0.986838 0.0330656 0.0859102 -0.995754 
0.136912 0.0605993 -0.988728 -0.364869 0.426618 -0.827567 -0.581572 0.61955 -0.527193 
-0.526521 0.596831 -0.605449 -0.68934 0.444378 -0.572135 0.582432 0.378817 -0.719215 
0.532455 0.355672 -0.768108 0.303335 0.197828 -0.932122 0.137412 0.146002 -0.979695 
-0.00244217 0.069845 -0.997555 -0.0266308 0.0203276 -0.999439 0.146763 0.0482765 -0.987993 
-0.378411 0.256503 -0.889388 -0.705725 0.403337 -0.58247 -0.678282 0.389836 -0.622865 
0.652678 0.256708 -0.71282 0.676521 0.111311 -0.727963 0.42271 0.213933 -0.880652 
0.234602 0.155659 -0.959548 0.057426 0.0743333 -0.995579 -0.0574361 0.038542 -0.997605 
0.0116035 0.129057 -0.991569 0.111181 0.095552 -0.989196 -0.301734 0.0191234 -0.9532 
-0.745536 0.143961 -0.650731 -0.592358 0.0976605 -0.799734 0.675571 0.0852227 -0.732353 
0.667068 0.0832281 -0.740333 0.374703 0.0449182 -0.926056 0.146213 -0.0012158 -0.989252 
0.0214264 -0.0402566 -0.99896 0.0528573 -0.0583974 -0.996893 -0.0075439 -0.1901 -0.981736 
-0.276873 -0.0947558 -0.956223 -0.722545 -0.0470009 -0.689725 -0.549541 -0.0765923 -0.831948 
0.625482 -0.0900202 -0.775028 0.612926 -0.108963 -0.782591 0.613086 -0.093943 -0.784411 
0.335404 -0.132702 -0.932681 0.143181 -0.172637 -0.974523 0.00139147 -0.165918 -0.986139 
0.0340891 -0.122592 -0.991871 -0.00950408 -0.0725196 -0.997322 0.0208729 -0.113789 -0.993286 
-0.0890438 -0.170681 -0.981295 0.0560329 -0.198418 -0.978514 -0.0577315 -0.204695 -0.977122 
-0.25852 -0.214092 -0.941983 -0.640778 -0.241962 -0.7286 -0.593286 -0.272746 -0.757378 
-0.538983 -0.229875 -0.810342 0.532492 -0.208924 -0.820246 0.341958 -0.245803 -0.906998 
0.138848 -0.24176 -0.960351 0.0694082 -0.188665 -0.979586 0.1363 -0.0887861 -0.986681 
0.0333531 -0.0573024 -0.9978 -0.0328388 -0.00574705 -0.999444 0.0144628 -0.135942 -0.990611 
-0.149723 -0.199012 -0.968492 -0.0979125 -0.0951603 -0.990635 0.0136316 -0.164766 -0.986238 
-0.0976045 -0.210844 -0.972635 -0.56045 -0.284988 -0.77761 -0.32633 -0.243496 -0.913355 
0.319622 -0.353152 -0.879275 0.31914 -0.35373 -0.879218 0.318619 -0.353041 -0.879684 
0.231781 -0.389275 -0.891483 0.21455 -0.320527 -0.922622 0.16969 -0.236842 -0.956614 
0.175224 -0.163577 -0.970845 0.0693286 -0.176344 -0.981884 -0.046303 -0.0881647 -0.995029 
-0.0759676 -0.120385 -0.989816 -0.109253 -0.112824 -0.98759 -0.0753914 -0.0753599 -0.994302 
-0.0703474 -0.143435 -0.987156 -0.14887 -0.234429 -0.960667 -0.464001 -0.272028 -0.843032 
-0.471716 -0.320288 -0.821523 -0.395037 -0.248623 -0.884382 0.231607 -0.394297 -0.889319 
0.224858 -0.434256 -0.872273 0.218474 -0.368478 -0.9036 0.199311 -0.488922 -0.849253 
0.183612 -0.336859 -0.923478 0.106053 -0.333593 -0.936733 0.0254868 -0.242317 -0.969862 
-0.0188786 -0.179145 -0.983642 -0.092007 -0.131771 -0.987001 -0.127161 -0.157399 -0.979314 
-0.138704 -0.172769 -0.975147 -0.431021 -0.355961 -0.829164 -0.252515 -0.375908 -0.891588 
-0.194296 -0.318494 -0.927799 0.19056 -0.512517 -0.837266 0.178537 -0.543457 -0.820231 
0.171272 -0.503153 -0.847056 0.169356 -0.531245 -0.830119 0.120028 -0.415525 -0.901627 
0.0805794 -0.52402 -0.847886 0.030279 -0.333591 -0.942232 -0.0731185 -0.51332 -0.855077 
-0.0905549 -0.293057 -0.951797 -0.110229 -0.418836 -0.901347 -0.111314 -0.300707 -0.947198 
-0.272886 -0.331448 -0.903148 -0.246408 -0.374772 -0.893773 -0.239134 -0.297515 -0.924284 
0.0347143 0.465995 -0.884106 0.0449752 0.452569 -0.890595 0.164912 0.2469 -0.954905 
0.00732411 0.471111 -0.882044 0.0365651 0.457144 -0.888641 -0.135124 0.461634 -0.876719 
-0.255212 0.363053 -0.896136 0.16429 0.0970357 -0.981628 0.190013 0.134771 -0.972488 
0.0924235 0.114987 -0.989058 -0.0726755 0.171778 -0.982451 -0.280877 0.308526 -0.908801 
-0.229022 0.243974 -0.942351 -0.253261 0.240936 -0.936915 0.172113 0.0195176 -0.984884 
0.190151 -0.0144977 -0.981648 0.0672117 -0.0941429 -0.993287 -0.0115816 -0.0958266 -0.995331 
-0.0739766 0.0132453 -0.997172 -0.259092 0.18381 -0.948201 -0.195628 0.146216 -0.969717 
0.0213765 0.0835268 -0.996276 0.102163 0.0790519 -0.991622 0.0848068 0.0588967 -0.994655 
0.0417218 -0.0321091 -0.998613 0.0109495 -0.101607 -0.994764 0.00694501 -0.180433 -0.983563 
0.0422583 -0.156021 -0.986849 0.000669278 -0.0959212 -0.995389 -0.214752 -0.0150953 -0.976552 
-0.120647 -0.0476587 -0.991551 0.0518777 -0.0541247 -0.997186 0.000162672 -0.0436126 -0.999049 
0.0296163 0.0452327 -0.998537 -0.00659788 -0.0935591 -0.995592 -0.0169057 -0.0843918 -0.996289 
9.59013e-05 -0.0278416 -0.999612 -0.0299529 -0.108314 -0.993665 -0.0566314 -0.00882721 -0.998356 
0.0138055 -0.175561 -0.984372 0.0354042 -0.170638 -0.984697 0.0311921 -0.163858 -0.985991 
-0.101673 -0.126583 -0.986732 -0.0791517 -0.137863 -0.987284 -0.081259 -0.130504 -0.988112 
0.11036 -0.0981471 -0.989034 0.100231 -0.105513 -0.989354 0.125415 -0.0927977 -0.987755 
-0.157805 -0.120476 -0.980093 -0.164708 -0.137008 -0.97678 -0.170875 -0.106889 -0.979478 

