# vtk DataFile Version 4.2
vtk output
ASCII
DATASET POLYDATA
POINTS 520 float
-9.01964 -1.62949 -24.2986 -17.0841 -33.8875 -17.6958 -9.01964 -33.8875 -17.9571 
-0.955139 -33.8875 -16.2494 -33.2131 -25.823 -17.4559 -25.1486 -25.823 -18.7326 
-17.0841 -25.823 -20.5365 -9.01964 -25.823 -21.3241 -0.955139 -25.823 -19.4671 
7.10936 -25.823 -17.0834 -49.3421 -17.7585 -16.3554 -41.2776 -17.7585 -18.9199 
-33.2131 -17.7585 -19.601 -25.1486 -17.7585 -19.8786 -17.0841 -17.7585 -20.7453 
-9.01964 -17.7585 -22.2247 -0.955139 -17.7585 -20.0436 7.10936 -17.7585 -18.0868 
-57.4066 -9.69398 -16.4867 -49.3421 -9.69398 -20.1879 -41.2776 -9.69398 -20.6965 
-33.2131 -9.69398 -20.5173 -25.1486 -9.69398 -19.6166 -17.0841 -9.69398 -19.5981 
-9.01964 -2.11797 -24.2335 -9.01964 -9.69398 -23.2284 -0.955139 -9.69398 -19.8893 
7.10936 -9.69398 -19.8896 15.1739 -9.69398 -17.5248 23.2383 -9.69398 -16.2277 
31.3028 -9.69398 -17.0986 39.3673 -9.69398 -17.0942 47.4318 -9.69398 -16.5605 
-57.4066 -1.62949 -17.8717 -49.3421 -1.62949 -21.764 -41.2776 -1.62949 -22.546 
-33.2131 -1.62949 -21.8842 -25.1486 -1.62949 -20.6028 -9.14062 -1.62949 -24.2335 
-17.0841 -1.62949 -19.683 -8.89094 -1.62949 -24.2335 -9.01964 -1.47736 -24.2335 
-0.955139 -1.62949 -18.9616 7.10936 -1.62949 -21.5708 15.1739 -1.62949 -18.969 
23.2383 -1.62949 -17.3764 31.3028 -1.62949 -18.5344 39.3673 -1.62949 -19.1544 
47.4318 -1.62949 -18.9055 55.4963 -1.62949 -17.1023 -57.4066 6.43501 -17.0478 
-49.3421 6.43501 -20.9595 -41.2776 6.43501 -23.1382 -33.2131 6.43501 -22.6672 
-25.1486 6.43501 -21.6027 -17.0841 6.43501 -19.7532 -9.01964 6.43501 -20.6142 
-0.955139 6.43501 -18.7501 7.10936 6.43501 -20.6514 15.1739 6.43501 -19.5887 
23.2383 6.43501 -19.3551 31.3028 6.43501 -20.2582 39.3673 6.43501 -20.8815 
47.4318 6.43501 -20.7269 55.4963 6.43501 -18.7346 -49.3421 14.4995 -19.1854 
-41.2776 14.4995 -21.8267 -33.2131 14.4995 -22.5183 -25.1486 14.4995 -21.9189 
-17.0841 14.4995 -21.0777 -9.01964 14.4995 -20.4707 -0.955139 14.4995 -20.563 
7.10936 14.4995 -21.1202 15.1739 14.4995 -20.7932 23.2383 14.4995 -20.8654 
31.3028 14.4995 -21.0747 39.3673 14.4995 -21.1391 47.4318 14.4995 -19.2982 
-41.2776 22.564 -17.928 -33.2131 22.564 -21.1832 -25.1486 22.564 -22.0353 
-17.0841 22.564 -21.9517 -9.01964 22.564 -21.7382 -0.955139 22.564 -21.8613 
7.10936 22.564 -21.6912 15.1739 22.564 -21.1985 23.2383 22.564 -20.9044 
31.3028 22.564 -20.8424 39.3673 22.564 -19.2337 47.4318 22.564 -16.2074 
-25.1486 30.6285 -19.6087 -17.0841 30.6285 -20.9653 -9.01964 30.6285 -21.655 
-0.955139 30.6285 -21.1907 7.10936 30.6285 -21.368 15.1739 30.6285 -19.7102 
23.2383 30.6285 -18.0456 -0.955139 38.693 -16.7273 7.10936 38.693 -16.3327 
-17.0841 -35.6549 -16.169 -9.01964 -36.0358 -16.169 -0.955139 -33.9888 -16.169 
-33.2131 -28.2898 -16.169 -33.2131 -33.8875 -10.4701 -22.1144 -33.8875 -16.169 
-25.1486 -31.9396 -16.169 -25.1486 -33.8875 -14.9342 -0.695673 -33.8875 -16.169 
7.10936 -28.2225 -16.169 7.10936 -33.8875 -13.4338 15.1739 -33.8875 -9.99183 
-49.3421 -18.0959 -16.169 -49.3421 -25.823 -9.86264 -37.4456 -25.823 -16.169 
-41.2776 -23.4374 -16.169 -41.2776 -25.823 -14.5881 9.89378 -25.823 -16.169 
15.1739 -25.823 -14.3024 23.2383 -25.823 -11.6862 31.3028 -25.823 -10.5723 
39.3673 -25.823 -9.21675 -49.7017 -17.7585 -16.169 -57.4066 -10.3317 -16.169 
-57.4066 -17.7585 -10.5073 14.2906 -17.7585 -16.169 15.1739 -16.2872 -16.169 
15.1739 -17.7585 -15.9291 23.2383 -10.0268 -16.169 23.2383 -17.7585 -14.7465 
31.3028 -13.0159 -16.169 31.3028 -17.7585 -14.7661 39.3673 -12.5952 -16.169 
39.3673 -17.7585 -14.4333 47.4318 -10.8578 -16.169 47.4318 -17.7585 -13.4112 
55.4963 -17.7585 -10.3343 -57.7931 -9.69398 -16.169 49.0985 -9.69398 -16.169 
55.4963 -4.90538 -16.169 55.4963 -9.69398 -14.4276 63.5608 -9.69398 -9.02966 
-59.5427 -1.62949 -16.169 57.1601 -1.62949 -16.169 63.5608 -1.62949 -11.1466 
-58.3989 6.43501 -16.169 -57.4066 8.45753 -16.169 59.284 6.43501 -16.169 
55.4963 13.6329 -16.169 63.5608 6.43501 -11.414 -53.4061 14.4995 -16.169 
-57.4066 14.4995 -10.5364 -49.3421 18.5733 -16.169 54.6318 14.4995 -16.169 
55.4963 14.4995 -15.671 -44.355 22.564 -16.169 -41.2776 24.389 -16.169 
-33.2131 29.0758 -16.169 31.3028 29.899 -16.169 39.3673 26.9771 -16.169 
47.4976 22.564 -16.169 47.4318 22.6102 -16.169 -30.9897 30.6285 -16.169 
-25.1486 33.7994 -16.169 -17.0841 36.7937 -16.169 -9.01964 38.5224 -16.169 
15.1739 36.1098 -16.169 29.577 30.6285 -16.169 23.2383 32.7527 -16.169 
31.3028 30.6285 -14.8559 -7.33175 38.693 -16.169 -9.01964 38.693 -15.3842 
-0.955139 39.1198 -16.169 7.67607 38.693 -16.169 7.10936 38.825 -16.169 
15.1739 38.693 -9.72293 -33.2131 -35.1749 -8.10454 -25.1486 -38.1765 -8.10454 
-17.0841 -40.5006 -8.10454 -9.01964 -41.2779 -8.10454 -0.955139 -40.4693 -8.10454 
-0.955139 -41.952 -0.521327 7.10936 -38.6911 -8.10454 15.1739 -35.6089 -8.10454 
-49.3421 -27.1214 -8.10454 -36.2576 -33.8875 -8.10454 -41.2776 -31.5091 -8.10454 
18.8976 -33.8875 -8.10454 23.2383 -31.1836 -8.10454 23.2383 -33.8875 -4.64758 
31.3028 -28.5956 -8.10454 39.3673 -27.0255 -8.10454 -51.4086 -25.823 -8.10454 
-57.4066 -20.4135 -8.10454 44.8478 -25.823 -8.10454 47.4318 -25.075 -8.10454 
47.4318 -25.823 -7.13455 55.4963 -20.2135 -8.10454 -59.349 -17.7585 -8.10454 
58.4939 -17.7585 -8.10454 63.5608 -10.9136 -8.10454 63.5608 -17.7585 -0.600293 
-63.7276 -9.69398 -8.10454 64.3205 -9.69398 -8.10454 -65.2984 -1.62949 -8.10454 
-65.4711 -1.62949 -7.08762 66.2896 -1.62949 -8.10454 -63.3744 6.43501 -8.10454 
66.153 6.43501 -8.10454 63.5608 11.7985 -8.10454 -58.8958 14.4995 -8.10454 
-57.4066 15.9386 -8.10454 -49.3421 22.1033 -8.10454 62.1262 14.4995 -8.10454 
55.4963 21.8639 -8.10454 -48.5476 22.564 -8.10454 -41.2776 26.7448 -8.10454 
-33.2131 30.0058 -8.10454 39.3673 30.5442 -8.10454 54.6547 22.564 -8.10454 
47.4318 27.1596 -8.10454 -31.9974 30.6285 -8.10454 -25.1486 34.1123 -8.10454 
-17.0841 37.7899 -8.10454 23.2383 35.9566 -8.10454 39.088 30.6285 -8.10454 
31.3028 32.8864 -8.10454 -13.2944 38.693 -8.10454 -9.01964 39.7926 -8.10454 
-9.01964 38.693 -3.07542 -0.955139 40.6262 -8.10454 7.10936 40.5399 -8.10454 
16.2631 38.693 -8.10454 15.1739 39.1083 -8.10454 15.1739 38.693 -5.38682 
-0.955139 -42.0363 -0.0400459 -33.2131 -35.0529 -0.0400459 -25.1486 -37.4183 -0.0400459 
-17.0841 -40.1216 -0.0400459 -3.93217 -41.952 -0.0400459 -9.01964 -41.8025 -0.0400459 
0.0496597 -41.952 -0.0400459 -0.955139 -41.952 0.384284 7.10936 -41.3382 -0.0400459 
15.1739 -39.2177 -0.0400459 23.2383 -36.2127 -0.0400459 -49.3421 -28.2971 -0.0400459 
-36.6049 -33.8875 -0.0400459 -41.2776 -32.045 -0.0400459 -33.2131 -33.8875 2.25609 
-25.1486 -33.8875 5.58491 30.5837 -33.8875 -0.0400459 31.3028 -33.6571 -0.0400459 
31.3028 -33.8875 3.61174 39.3673 -32.0116 -0.0400459 47.4318 -29.2095 -0.0400459 
-53.0597 -25.823 -0.0400459 -57.4066 -22.2669 -0.0400459 -49.3421 -25.823 5.03713 
54.382 -25.823 -0.0400459 55.4963 -25.1752 -0.0400459 63.5608 -18.0886 -0.0400459 
-61.0318 -17.7585 -0.0400459 63.8142 -17.7585 -0.0400459 63.5608 -17.7585 0.920608 
-65.2383 -9.69398 -0.0400459 -65.4711 -8.31139 -0.0400459 67.708 -9.69398 -0.0400459 
-66.5659 -1.62949 -0.0400459 -65.4711 2.70895 -0.0400459 -65.4711 -1.62949 4.25648 
68.5307 -1.62949 -0.0400459 -64.4834 6.43501 -0.0400459 67.3373 6.43501 -0.0400459 
63.5608 13.7737 -0.0400459 -59.9252 14.4995 -0.0400459 -57.4066 16.6895 -0.0400459 
-49.3421 21.9687 -0.0400459 63.1612 14.4995 -0.0400459 55.4963 22.0058 -0.0400459 
-48.1025 22.564 -0.0400459 -41.2776 26.2689 -0.0400459 -33.2131 28.5873 -0.0400459 
39.3673 29.3143 -0.0400459 54.6472 22.564 -0.0400459 47.4318 26.5114 -0.0400459 
-28.179 30.6285 -0.0400459 -25.1486 31.8836 -0.0400459 -25.1486 30.6285 7.44653 
-17.0841 35.951 -0.0400459 -9.01964 38.0687 -0.0400459 15.1739 37.8213 -0.0400459 
23.2383 34.5708 -0.0400459 34.3752 30.6285 -0.0400459 31.3028 31.4505 -0.0400459 
31.3028 30.6285 2.78145 -2.86421 38.693 -0.0400459 -0.955139 38.8763 -0.0400459 
-0.955139 38.693 0.506991 7.58504 38.693 -0.0400459 7.10936 38.7454 -0.0400459 
7.10936 38.693 0.115948 -17.0841 -35.0425 8.02445 -9.01964 -38.596 8.02445 
-0.955139 -40.1923 8.02445 7.10936 -39.8823 8.02445 15.1739 -38.4605 8.02445 
23.2383 -36.3842 8.02445 31.3028 -34.1542 8.02445 -41.2776 -28.2492 8.02445 
-33.2131 -29.9 8.02445 -20.2873 -33.8875 8.02445 -25.1486 -31.8026 8.02445 
-17.0841 -33.8875 9.14004 -9.01964 -33.8875 12.9903 -0.955139 -33.8875 14.8122 
7.10936 -33.8875 15.1522 15.1739 -33.8875 14.7857 23.2383 -33.8875 12.4608 
32.452 -33.8875 8.02445 31.3028 -33.8875 8.60136 39.3673 -32.1815 8.02445 
47.4318 -28.7934 8.02445 -57.4066 -17.8491 8.02445 -46.323 -25.823 8.02445 
-49.3421 -24.3487 8.02445 -41.2776 -25.823 10.721 -33.2131 -25.823 12.0071 
-25.1486 -25.823 12.6826 -17.0841 -25.823 13.5226 52.699 -25.823 8.02445 
47.4318 -25.823 13.0569 55.4963 -23.8792 8.02445 -57.4873 -17.7585 8.02445 
-57.4066 -17.7585 8.10853 -49.3421 -17.7585 14.9779 61.4028 -17.7585 8.02445 
55.4963 -17.7585 14.9381 63.5608 -13.5623 8.02445 -62.6215 -9.69398 8.02445 
-57.4066 -9.69398 14.8033 65.6266 -9.69398 8.02445 63.5608 -9.69398 10.3071 
-64.3848 -1.62949 8.02445 65.7451 -1.62949 8.02445 63.5608 -1.62949 10.8729 
-62.5362 6.43501 8.02445 -57.4066 6.43501 15.7768 65.0544 6.43501 8.02445 
63.5608 8.57252 8.02445 63.5608 6.43501 9.86557 -57.7122 14.4995 8.02445 
-57.4066 14.7852 8.02445 -57.4066 14.4995 8.47213 -49.3421 20.7047 8.02445 
59.143 14.4995 8.02445 55.4963 18.2046 8.02445 55.4963 14.4995 12.4664 
-45.7206 22.564 8.02445 -41.2776 24.901 8.02445 -41.2776 22.564 15.3864 
-33.2131 27.2457 8.02445 -25.1486 30.5446 8.02445 31.3028 29.2687 8.02445 
39.3673 26.7687 8.02445 49.3463 22.564 8.02445 47.4318 23.6628 8.02445 
47.4318 22.564 10.0264 -24.9787 30.6285 8.02445 -17.0841 34.4862 8.02445 
-9.01964 35.9773 8.02445 -0.955139 36.1268 8.02445 7.10936 36.0551 8.02445 
15.1739 34.9568 8.02445 27.7358 30.6285 8.02445 23.2383 32.4109 8.02445 
23.2383 30.6285 12.2595 -9.01964 -27.576 16.0889 -0.955139 -31.3974 16.0889 
[...]
POINT_DATA 520
SCALARS ImageScalars float
LOOKUP_TABLE default
0 0 0 0 0 0 0 0 0 
0 0 0 0 0 0 0 0 0 
0 0 0 0 0 0 0 0 0 
0 0 0 0 0 0 0 0 0 
0 0 0 0 0 0 0 0 0 
0 0 0 0 0 0 0 0 0 
0 0 0 0 0 0 0 0 0 
0 0 0 0 0 0 0 0 0 
0 0 0 0 0 0 0 0 0 
0 0 0 0 0 0 0 0 0 
0 0 0 0 0 0 0 0 0 
0 0 0 0 0 0 0 0 0 
0 0 0 0 0 0 0 0 0 
0 0 0 0 0 0 0 0 0 
0 0 0 0 0 0 0 0 0 
0 0 0 0 0 0 0 0 0 
0 0 0 0 0 0 0 0 0 
0 0 0 0 0 0 0 0 0 
0 0 0 0 0 0 0 0 0 
0 0 0 0 0 0 0 0 0 
0 0 0 0 0 0 0 0 0 
0 0 0 0 0 0 0 0 0 
0 0 0 0 0 0 0 0 0 
0 0 0 0 0 0 0 0 0 
0 0 0 0 0 0 0 0 0 
0 0 0 0 0 0 0 0 0 
0 0 0 0 0 0 0 0 0 
0 0 0 0 0 0 0 0 0 
0 0 0 0 0 0 0 0 0 
0 0 0 0 0 0 0 0 0 
0 0 0 0 0 0 0 0 0 
0 0 0 0 0 0 0 0 0 
0 0 0 0 0 0 0 0 0 
0 0 0 0 0 0 0 0 0 
0 0 0 0 0 0 0 0 0 
0 0 0 0 0 0 0 0 0 
0 0 0 0 0 0 0 0 0 
0 0 0 0 0 0 0 0 0 
0 0 0 0 0 0 0 0 0 
0 0 0 0 0 0 0 0 0 
0 0 0 0 0 0 0 0 0 
0 0 0 0 0 0 0 0 0 
0 0 0 0 0 0 0 0 0 
0 0 0 0 0 0 0 0 0 
0 0 0 0 0 0 0 0 0 
0 0 0 0 0 0 0 0 0 
0 0 0 0 0 0 0 0 0 
0 0 0 0 0 0 0 0 0 
0 0 0 0 0 0 0 0 0 
0 0 0 0 0 0 0 0 0 
0 0 0 0 0 0 0 0 0 
0 0 0 0 0 0 0 0 0 
0 0 0 0 0 0 0 0 0 
0 0 0 0 0 0 0 0 0 
0 0 0 0 0 0 0 0 0 
0 0 0 0 0 0 0 0 0 
0 0 0 0 0 0 0 0 0 
0 0 0 0 0 0 0 
NORMALS Normals float
0.0185339 -0.167859 0.985637 0.153605 0.553506 0.818558 -0.0807151 0.563525 0.822147 
-0.22945 0.539459 0.810146 0.209817 0.370287 0.904911 0.18624 0.251409 0.949794 
0.154191 0.159901 0.975016 -0.0629678 0.23946 0.968862 -0.254207 0.206811 0.944779 
-0.290306 0.231166 0.928593 0.376209 0.420202 0.82577 0.174516 0.316499 0.932401 
0.061552 0.196615 0.978547 0.0666308 0.0498891 0.99653 0.14946 -0.0582695 0.987049 
-0.046027 0.1131 0.992517 -0.258262 0.025838 0.965729 -0.235578 0.159454 0.958685 
0.544936 0.298974 0.783364 0.245347 0.292253 0.924334 0.0146554 0.228861 0.973349 
-0.0660318 0.136905 0.988381 -0.0565524 0.0449519 0.997387 0.226665 -0.0631173 0.971926 
0.0199506 -0.147966 0.988791 0.035467 0.115477 0.992677 -0.219156 -0.0562457 0.974067 
-0.119133 0.205412 0.971398 -0.243609 0.174774 0.953996 -0.00968895 0.156961 0.987557 
0.0540262 0.225786 0.972678 -0.0305746 0.2716 0.961925 -0.139927 0.299601 0.943748 
0.553182 0.0343868 0.83235 0.276702 0.0280303 0.960547 0.0012689 0.148488 0.988913 
-0.117349 0.131303 0.984372 -0.132334 0.124637 0.983338 0.0221937 -0.165716 0.985924 
0.157202 0.0103072 0.987513 0.0155811 -0.167556 0.985739 0.0168688 -0.169889 0.985319 
-0.127539 -0.0781224 0.988752 0.00701944 0.0463481 0.998901 -0.270589 0.124687 0.954586 
0.00190474 0.194558 0.980889 0.108571 0.190778 0.975611 0.0226655 0.22603 0.973857 
-0.1308 0.240677 0.961752 -0.369729 0.238103 0.898113 0.626912 -0.231136 0.744015 
0.329815 -0.123767 0.935897 0.110352 -0.0402629 0.993077 -0.0933166 0.0391556 0.994866 
-0.180346 0.0810249 0.98026 -0.0669202 0.0862527 0.994023 -0.0631355 -0.181927 0.981283 
0.0113107 0.106528 0.994245 0.0546921 -0.0171369 0.998356 -0.0826196 0.106973 0.990823 
0.0421966 0.214055 0.97591 0.0922409 0.153533 0.983829 0.0298091 0.121404 0.992155 
-0.147529 0.0266382 0.988699 -0.39613 -0.0570909 0.916418 0.453242 -0.400171 0.796514 
0.179313 -0.28993 0.9401 0.00211411 -0.0796236 0.996823 -0.0875536 0.0262391 0.995814 
-0.0880009 0.134967 0.986934 -0.0325619 0.0721242 0.996864 0.0397587 0.190805 0.980823 
0.013885 0.0641159 0.997846 -0.015449 0.0948298 0.995374 0.0173241 0.0940768 0.995414 
0.0168241 0.0377185 0.999147 -0.10465 -0.0978729 0.989681 -0.304166 -0.237113 0.922638 
0.417273 -0.628932 0.655994 0.231715 -0.384793 0.893444 0.0433046 -0.11943 0.991898 
-0.018214 -0.00434074 0.999825 -0.00551217 0.0717842 0.997405 -0.00291644 0.0377685 0.999282 
-0.0407732 0.017151 0.999021 -0.048118 -0.0628075 0.996865 -0.0222243 -0.145079 0.98917 
-0.101555 -0.285379 0.953019 -0.255866 -0.416877 0.872208 -0.438615 -0.545917 0.713856 
0.332543 -0.599209 0.728261 0.116906 -0.386241 0.91496 0.0131081 -0.257581 0.966168 
-0.0164656 -0.249946 0.96812 -0.0920268 -0.264032 0.960114 -0.190037 -0.379362 0.905522 
-0.24653 -0.576761 0.778826 0.0132711 -0.843812 0.536475 -0.139524 -0.82598 0.54616 
0.155616 0.647556 0.745959 -0.0731298 0.660596 0.747171 -0.229021 0.543965 0.807249 
0.253484 0.47059 0.845157 0.377954 0.840256 0.388743 0.231146 0.582749 0.779086 
0.251943 0.506278 0.824746 0.288755 0.645355 0.707204 -0.231637 0.539437 0.809538 
-0.293092 0.316075 0.902327 -0.297056 0.582591 0.756535 -0.361967 0.649229 0.66894 
0.381654 0.431101 0.817614 0.491889 0.760944 0.423095 0.266791 0.465749 0.843742 
0.27557 0.483565 0.830798 0.340209 0.589956 0.732263 -0.294145 0.247628 0.923125 
-0.309875 0.294188 0.904119 -0.209351 0.445942 0.870234 -0.130976 0.598786 0.790127 
-0.156198 0.673045 0.722919 0.386079 0.425981 0.818219 0.547657 0.319695 0.773219 
0.677215 0.550613 0.488063 -0.208796 0.169757 0.963113 -0.210185 0.168703 0.962996 
-0.205206 0.17221 0.963449 -0.011262 0.161034 0.986885 -0.0699518 0.26262 0.96236 
0.0245571 0.27987 0.959724 -0.0177793 0.363156 0.931559 -0.0402207 0.321792 0.945956 
-0.068556 0.428086 0.901134 -0.150411 0.321308 0.934953 -0.215225 0.48198 0.849337 
-0.431203 0.552184 0.713552 0.559761 0.30073 0.772159 -0.174526 0.315184 0.932845 
-0.348956 0.301088 0.887455 -0.340745 0.376289 0.861568 -0.720036 0.364901 0.59025 
0.638906 0.0278236 0.768781 -0.428915 0.217019 0.876889 -0.741306 0.0924764 0.664766 
0.667632 -0.236766 0.705839 0.647451 -0.309169 0.696579 -0.610706 -0.101907 0.785273 
-0.506379 -0.366352 0.780619 -0.832892 -0.185329 0.521482 0.576704 -0.498104 0.647537 
0.7017 -0.617008 0.356256 0.530927 -0.613376 0.58471 -0.490351 -0.384326 0.782208 
-0.524304 -0.40881 0.746981 0.479388 -0.695324 0.535456 0.453168 -0.717834 0.528538 
0.477722 -0.751272 0.455382 -0.252019 -0.726702 0.639055 -0.316469 -0.672949 0.66857 
-0.440346 -0.546678 0.712207 -0.439118 -0.548045 0.711914 0.482414 -0.767214 0.42268 
0.413568 -0.807891 0.41985 0.256226 -0.837916 0.481918 0.128099 -0.872951 0.470688 
-0.276036 -0.709929 0.647924 -0.264936 -0.728777 0.631422 -0.298804 -0.696832 0.652029 
-0.27769 -0.803732 0.526216 0.10581 -0.875958 0.47064 0.135543 -0.900253 0.413729 
0.0158884 -0.867825 0.496616 -0.151037 -0.829433 0.537799 -0.138759 -0.833353 0.53504 
-0.282532 -0.948784 0.141366 0.379473 0.894278 0.237207 0.315047 0.928481 0.196645 
0.191447 0.961348 0.197883 0.000258398 0.962655 0.270731 -0.142088 0.914292 0.379317 
-0.033863 0.999384 0.00919411 -0.261132 0.834493 0.485213 -0.363262 0.727572 0.581962 
0.498834 0.791483 0.353158 0.395389 0.880941 0.260019 0.423805 0.848547 0.316792 
-0.359134 0.704935 0.611628 -0.308858 0.657411 0.687327 -0.348184 0.816123 0.461206 
-0.171914 0.69015 0.70295 -0.165522 0.715658 0.678555 0.539212 0.764256 0.353784 
0.697187 0.609217 0.377869 -0.264783 0.709079 0.653527 -0.309367 0.700872 0.642705 
-0.325001 0.744987 0.582554 -0.463374 0.629829 0.623377 0.746781 0.546476 0.379055 
-0.542993 0.571562 0.615204 -0.730083 0.403951 0.551183 -0.811989 0.57194 0.116443 
0.880256 0.293508 0.37283 -0.7485 0.371248 0.549475 0.933631 -0.0185675 0.357755 
0.951742 -0.0218968 0.306117 -0.848742 0.0857453 0.521809 0.903928 -0.296932 0.307806 
-0.885155 -0.231235 0.403771 -0.844347 -0.394768 0.362266 0.735526 -0.629266 0.25105 
0.704106 -0.668459 0.239578 0.510922 -0.851583 0.117323 -0.807001 -0.482603 0.340358 
-0.626098 -0.74519 0.229549 0.500771 -0.858988 0.106627 0.430777 -0.898168 0.0878944 
0.442922 -0.895519 -0.0432004 -0.345229 -0.935265 0.0780753 -0.600703 -0.770094 0.214735 
-0.438277 -0.88603 0.151211 0.444667 -0.89367 -0.0602125 0.419849 -0.90145 -0.105425 
0.342752 -0.93755 -0.0593408 -0.364662 -0.928816 0.0657463 -0.343774 -0.935936 0.0764442 
-0.311504 -0.948233 0.0617997 0.26087 -0.964021 -0.0510898 0.165225 -0.985575 -0.0366278 
0.167167 -0.973308 -0.15725 0.0422188 -0.998865 -0.0220343 -0.0896991 -0.99594 -0.00760838 
-0.28524 -0.957241 0.0482421 -0.271479 -0.961297 0.0469898 -0.261369 -0.963962 -0.0496398 
-0.0275829 0.999553 -0.0115413 0.288338 0.926617 -0.241336 0.300032 0.901779 -0.311087 
0.251859 0.930568 -0.265726 0.0214664 0.998284 -0.0544881 0.107768 0.985693 -0.1296 
-0.0445241 0.999002 -0.00343421 -0.0235996 0.99925 -0.0306873 -0.168221 0.98406 0.0576865 
-0.304211 0.942558 0.137984 -0.325552 0.916972 0.230603 0.486298 0.865104 -0.122923 
0.313538 0.925758 -0.211344 0.366058 0.916488 -0.161405 0.262615 0.897333 -0.35472 
0.251043 0.779228 -0.574266 -0.250309 0.928602 0.273939 -0.241817 0.929484 0.278538 
-0.249868 0.966157 0.0640773 -0.253808 0.936046 0.243718 -0.353198 0.917998 0.180364 
0.575486 0.80834 -0.124107 0.707944 0.699587 -0.0969131 0.452646 0.80079 -0.392234 
-0.528144 0.830774 0.175723 -0.557609 0.812036 0.172246 -0.810098 0.579662 0.0879342 
0.803885 0.59107 -0.0663678 -0.819421 0.566865 0.0849328 -0.824305 0.565104 0.0343393 
0.958307 0.280155 -0.0562188 0.972757 0.225167 -0.0551703 -0.956864 0.284936 0.0567732 
0.997868 -0.0424439 -0.0495871 0.984146 -0.170991 -0.0471098 0.974739 -0.0239886 -0.222056 
-0.999424 -0.0171184 -0.0292929 0.952717 -0.300495 -0.0450765 -0.940913 -0.334133 -0.055123 
-0.871471 -0.471373 -0.135449 0.736725 -0.674449 -0.0485385 0.683295 -0.728219 -0.0529737 
0.443825 -0.893001 -0.0746248 -0.858036 -0.49336 -0.142726 -0.535793 -0.825616 -0.176871 
0.42874 -0.899914 -0.07961 0.368227 -0.92438 -0.0996533 0.315996 -0.934887 -0.161658 
-0.301094 -0.928385 -0.217814 -0.512245 -0.839606 -0.180742 -0.380945 -0.902782 -0.199662 
0.373738 -0.908111 -0.188822 0.412974 -0.887716 -0.203504 0.409651 -0.900472 -0.14607 
0.344696 -0.91661 -0.202511 0.164798 -0.959516 -0.228411 -0.235696 -0.939746 -0.24764 
-0.35626 -0.910396 -0.210378 -0.29926 -0.928655 -0.21919 -0.294509 -0.930167 -0.219212 
-0.298677 -0.924274 -0.237719 0.0690894 -0.963826 -0.257424 0.0399574 -0.963106 -0.266141 
0.0376924 -0.961985 -0.270489 -0.0705031 -0.960147 -0.270457 -0.0603652 -0.960512 -0.271612 
-0.0605051 -0.960037 -0.273253 0.323758 0.662627 -0.675357 0.266095 0.791575 -0.550094 
0.0649613 0.896635 -0.43798 -0.101096 0.914765 -0.391131 -0.208602 0.92816 -0.308226 
-0.253564 0.93895 -0.232546 -0.244581 0.950505 -0.191626 0.256651 0.790259 -0.556436 
0.155912 0.74232 -0.651654 0.28679 0.674987 -0.679812 0.206517 0.689995 -0.693728 
0.323212 0.623733 -0.711682 0.28699 0.563793 -0.774451 0.106267 0.564796 -0.81836 
0.00315834 0.597084 -0.802173 -0.101352 0.68376 -0.722634 -0.206156 0.836464 -0.507767 
-0.251919 0.94787 -0.195141 -0.242711 0.944147 -0.222887 -0.307039 0.922122 -0.235411 
-0.422633 0.864758 -0.271249 0.646202 0.582923 -0.492569 0.359355 0.754819 -0.548737 
0.422926 0.730187 -0.53662 0.244359 0.710001 -0.660445 0.0917332 0.658976 -0.746549 
0.0781264 0.539905 -0.838092 0.214919 0.398872 -0.891466 -0.513554 0.793312 -0.326984 
-0.416431 0.705476 -0.573489 -0.578215 0.730155 -0.364063 0.648 0.580786 -0.492731 
0.645993 0.580449 -0.495755 0.340066 0.552586 -0.760923 -0.777304 0.50046 -0.381233 
-0.472444 0.469585 -0.745846 -0.818438 0.360901 -0.447112 0.844757 0.308888 -0.437006 
0.583491 0.331754 -0.741267 -0.83418 0.240307 -0.496382 -0.779134 0.211845 -0.589976 
0.91727 -0.00488473 -0.398236 -0.864621 -0.0306715 -0.501488 -0.801722 -0.0179309 -0.597428 
0.881335 -0.294619 -0.369388 0.675 -0.234313 -0.699623 -0.816512 -0.335803 -0.469622 
-0.796304 -0.385473 -0.466166 -0.782297 -0.318716 -0.535192 0.69388 -0.645235 -0.319692 
0.688008 -0.65249 -0.31765 0.688906 -0.642614 -0.335344 0.478924 -0.857336 -0.1887 
-0.690501 -0.554809 -0.464107 -0.572328 -0.680184 -0.458028 -0.595396 -0.539413 -0.59543 
0.425145 -0.888254 -0.173942 0.364963 -0.906654 -0.211614 0.350851 -0.797846 -0.49025 
0.32558 -0.932867 -0.154132 0.409519 -0.901061 -0.142775 -0.301972 -0.912114 -0.27724 
-0.331561 -0.879696 -0.340885 -0.43365 -0.802705 -0.409406 -0.407804 -0.823568 -0.394249 
-0.424124 -0.783368 -0.454371 0.407936 -0.901676 -0.143416 0.30449 -0.929076 -0.210011 
0.0987917 -0.955209 -0.278955 0.00493235 -0.938525 -0.345175 -0.0676673 -0.926726 -0.369594 
-0.21128 -0.908364 -0.360881 -0.315512 -0.905523 -0.283692 -0.326852 -0.896437 -0.299279 
-0.295664 -0.847617 -0.4406 0.286379 0.371843 -0.883017 0.1134 0.454344 -0.883579 
0.0203151 0.509844 -0.860027 -0.0602308 0.576582 -0.814816 -0.124778 0.614685 -0.778841 
-0.183118 0.643091 -0.743574 -0.240063 0.609605 -0.755481 0.126485 0.496065 -0.859023 
0.0256307 0.481352 -0.876152 -0.0100613 0.427662 -0.903883 0.273617 0.346349 -0.897316 
0.157774 0.374211 -0.913823 0.282879 0.334965 -0.898765 0.11983 0.27048 -0.955239 
0.0534991 0.266483 -0.962354 0.0249193 0.335712 -0.941635 -0.0586744 0.409055 -0.910622 
-0.141604 0.519221 -0.842827 -0.258656 0.60049 -0.756643 -0.236272 0.592517 -0.770129 
-0.345648 0.513199 -0.785592 0.198868 0.506474 -0.839009 0.322071 0.499367 -0.804303 
0.116094 0.478164 -0.870564 0.0111143 0.42708 -0.904146 -0.0242423 0.404605 -0.91417 
0.14314 0.3714 -0.917373 0.18132 0.385632 -0.904661 0.0398888 0.199728 -0.979039 
0.0829731 0.185145 -0.979202 0.0754128 0.193372 -0.978223 0.00926723 0.189457 -0.981845 
-0.0645371 0.237052 -0.969351 -0.173238 0.307664 -0.935591 -0.399933 0.435196 -0.806634 
-0.305592 0.381472 -0.872406 -0.466335 0.362811 -0.806783 0.504742 0.325597 -0.799514 
0.571122 0.121108 -0.811882 0.295769 0.332517 -0.895518 0.0583815 0.339401 -0.938828 
-0.0237173 0.311342 -0.950002 -0.0213543 0.263287 -0.964481 0.202334 0.263248 -0.943272 
0.0909878 0.284805 -0.954258 -0.0881352 0.174362 -0.980729 0.0569441 0.213535 -0.975274 
0.0273745 0.129868 -0.991153 -0.0035245 0.106233 -0.994335 0.00617514 0.125699 -0.992049 
-0.125451 0.160163 -0.979086 -0.28083 0.168001 -0.944939 -0.565772 0.161607 -0.808569 
-0.486889 0.17193 -0.856376 0.586155 0.0408861 -0.809167 0.640033 -0.132282 -0.756875 
0.569729 0.0455112 -0.820572 0.342002 0.0642456 -0.9375 0.0883478 0.186368 -0.9785 
-0.0554109 0.190855 -0.980053 -0.0913989 0.144878 -0.985219 0.167429 0.0898898 -0.981778 
-0.0464491 0.16943 -0.984447 0.0432013 0.0757418 -0.996191 -0.0279131 -0.0069673 -0.999586 
0.00277931 0.0591634 -0.998244 -0.00630513 0.0779289 -0.996939 -0.117979 0.0454022 -0.991978 
-0.279584 0.0553316 -0.958525 -0.60415 -0.0188278 -0.796648 -0.507512 -0.00401588 -0.861635 
0.658593 -0.226268 -0.717675 0.399339 -0.134712 -0.906852 0.172518 -0.0436132 -0.98404 
-0.0779209 0.022156 -0.996713 -0.131 0.072096 -0.988757 0.0710472 0.0858115 -0.993775 
0.180838 -0.0786827 -0.980361 -0.121048 -0.0865314 -0.988868 0.0119783 -0.0707252 -0.997424 
0.0778974 -0.0030316 -0.996957 -0.00726275 -0.00825591 -0.99994 -0.138579 -0.0455916 -0.989301 
-0.322682 -0.147934 -0.934875 -0.599936 -0.260521 -0.756443 -0.572283 -0.346979 -0.743033 
-0.552514 -0.251475 -0.794663 0.586196 -0.490333 -0.644941 0.54226 -0.59808 -0.590131 
0.521096 -0.436937 -0.733175 0.347224 -0.776914 -0.525205 0.25846 -0.386714 -0.885241 
0.0605947 -0.199873 -0.977946 -0.0232555 -0.043218 -0.998795 0.0177737 0.0274256 -0.999466 
0.0601626 -0.0802971 -0.994954 -0.0557714 -0.154204 -0.986464 -0.0836017 -0.12594 -0.988509 
0.0543197 -0.0966649 -0.993834 0.0641402 -0.144648 -0.987402 -0.0507992 -0.246068 -0.967921 
-0.247686 -0.325154 -0.912648 -0.511186 -0.493959 -0.703344 -0.454382 -0.581251 -0.675044 
-0.438806 -0.452967 -0.776061 0.345941 -0.783134 -0.516745 0.356118 -0.80492 -0.474641 
0.287927 -0.639963 -0.712422 0.33261 -0.810809 -0.481621 0.136698 -0.412906 -0.900457 
0.0511891 -0.256368 -0.965223 -0.0085964 -0.231326 -0.972838 -0.063577 -0.307605 -0.949388 
-0.0566783 -0.24746 -0.967239 -0.0269872 -0.315526 -0.948533 -0.222128 -0.739821 -0.635078 
-0.0892443 -0.454322 -0.886356 -0.263007 -0.761905 -0.591885 -0.201886 -0.601989 -0.772561 
-0.372155 -0.725481 -0.578946 -0.361434 -0.73636 -0.571961 -0.359047 -0.721896 -0.591567 
0.283501 -0.81546 -0.504631 0.216512 -0.799244 -0.560653 0.197437 -0.733567 -0.650307 
0.0232976 -0.799847 -0.599751 0.0068382 -0.673662 -0.739008 -0.0550139 -0.753423 -0.65523 
-0.0606174 -0.664409 -0.744907 -0.0819412 -0.737062 -0.67084 -0.0803352 -0.673293 -0.734999 
-0.17736 -0.724795 -0.665745 -0.167484 -0.721257 -0.672114 -0.165604 -0.711044 -0.683368 
0.0905882 0.0787207 -0.992772 0.0957103 0.000751644 -0.995409 0.0712441 0.0183112 -0.997291 
0.114656 -0.0252973 -0.993083 0.0888884 -0.00517962 -0.996028 -0.0231077 0.0716496 -0.997162 
0.0401889 0.0153727 -0.999074 -0.0411229 0.0238196 -0.99887 -0.0299798 -0.0100675 -0.9995 
-0.0181542 0.0542002 -0.998365 
