# vtk DataFile Version 4.2
vtk output
ASCII
DATASET POLYDATA
POINTS 522 float
-24.0186 -37.9141 -17.5457 -15.935 -37.9141 -18.64 -7.85141 -37.9141 -18.5238 
0.232181 -37.9141 -18.1969 8.31577 -37.9141 -17.685 16.3994 -37.9141 -17.0307 
-40.1858 -29.8306 -17.4439 -32.1022 -29.8306 -20.9212 -24.0186 -29.8306 -22.0295 
-15.935 -29.8306 -22.5162 -7.85141 -29.8306 -21.8537 0.232181 -29.8306 -21.3855 
8.31577 -29.8306 -21.0924 16.3994 -29.8306 -20.9294 24.4829 -29.8306 -20.3758 
32.5665 -29.8306 -19.0031 -48.2693 -21.747 -17.2221 -40.1858 -21.747 -21.2908 
-32.1022 -21.747 -22.5208 -24.0186 -21.747 -23.1569 -15.935 -21.747 -23.3058 
-7.85141 -21.747 -22.9336 0.232181 -21.747 -22.4399 8.31577 -21.747 -22.187 
16.3994 -21.747 -22.5024 24.4829 -21.747 -22.8447 32.5665 -21.747 -21.9694 
40.6501 -21.747 -20.42 -48.2693 -13.6634 -20.2539 -40.1858 -13.6634 -23.2223 
-32.1022 -13.6634 -23.6423 -24.0186 -13.6634 -23.1304 -15.935 -13.6634 -22.658 
-7.85141 -13.6634 -22.9268 0.232181 -13.6634 -22.6546 8.31577 -13.6634 -22.6349 
16.3994 -13.6634 -22.2884 24.4829 -13.6634 -23.0767 32.5665 -13.6634 -23.3397 
40.6501 -13.6634 -22.6851 48.7337 -13.6634 -19.3187 -48.2693 -5.57979 -20.8875 
-40.1858 -5.57979 -23.1913 -32.1022 -5.57979 -23.5189 -24.0186 -5.57979 -22.3506 
-15.935 -5.57979 -21.6855 -7.85141 -5.57979 -22.909 0.232181 -5.57979 -22.3799 
8.31577 -5.57979 -23.7184 16.3994 -5.57979 -22.3446 24.4829 -5.57979 -22.4613 
32.5665 -5.57979 -23.0634 40.6501 -5.57979 -22.8694 48.7337 -5.57979 -20.7329 
-48.2693 2.50379 -21.4314 -40.1858 2.50379 -23.908 -32.1022 2.50379 -24.125 
-24.0186 2.50379 -23.095 -15.935 2.50379 -22.2094 -7.85141 2.50379 -23.756 
0.232181 2.50379 -22.1753 8.31577 2.50379 -23.4131 16.3994 2.50379 -22.2366 
24.4829 2.50379 -22.4502 32.5665 2.50379 -23.0474 40.6501 2.50379 -22.822 
48.7337 2.50379 -20.6077 -48.2693 10.5874 -20.1766 -40.1858 10.5874 -23.533 
-32.1022 10.5874 -24.0142 -24.0186 10.5874 -23.2662 -15.935 10.5874 -22.1347 
-7.85141 10.5874 -22.912 0.232181 10.5874 -22.5905 8.31577 10.5874 -22.1674 
16.3994 10.5874 -22.5414 24.4829 10.5874 -22.9605 32.5665 10.5874 -24.0405 
40.6501 10.5874 -22.8769 48.7337 10.5874 -20.0354 -40.1858 18.671 -21.8236 
-32.1022 18.671 -23.0283 -24.0186 18.671 -22.3611 -15.935 18.671 -21.909 
-7.85141 18.671 -22.5313 0.232181 18.671 -23.0988 8.31577 18.671 -22.6916 
16.3994 18.671 -23.1914 24.4829 18.671 -23.4751 32.5665 18.671 -23.2602 
40.6501 18.671 -21.4021 48.7337 18.671 -17.279 -40.1858 26.7546 -16.9056 
-32.1022 26.7546 -20.2023 -24.0186 26.7546 -21.1284 -15.935 26.7546 -22.0877 
-7.85141 26.7546 -23.2094 0.232181 26.7546 -23.2654 8.31577 26.7546 -23.3185 
16.3994 26.7546 -22.9496 24.4829 26.7546 -22.8691 32.5665 26.7546 -21.6574 
40.6501 26.7546 -18.0237 -24.0186 34.8381 -18.3575 -15.935 34.8381 -19.8992 
-7.85141 34.8381 -21.5147 0.232181 34.8381 -22.0395 8.31577 34.8381 -21.4872 
16.3994 34.8381 -20.4757 24.4829 34.8381 -19.3381 -24.0186 -39.1973 -16.1428 
-15.935 -40.4403 -16.1428 -7.85141 -40.4993 -16.1428 0.232181 -40.2397 -16.1428 
8.31577 -39.7597 -16.1428 16.3994 -38.9072 -16.1428 -40.1858 -31.1492 -16.1428 
-27.6037 -37.9141 -16.1428 -32.1022 -35.9569 -16.1428 -32.1022 -37.9141 -11.8563 
20.326 -37.9141 -16.1428 24.4829 -36.5861 -16.1428 24.4829 -37.9141 -14.6593 
32.5665 -33.7826 -16.1428 32.5665 -37.9141 -9.70728 -41.8011 -29.8306 -16.1428 
-48.2693 -23.2395 -16.1428 39.5564 -29.8306 -16.1428 40.6501 -29.0952 -16.1428 
40.6501 -29.8306 -15.3042 -49.3269 -21.747 -16.1428 48.5368 -21.747 -16.1428 
48.7337 -21.4422 -16.1428 48.7337 -21.747 -15.8996 -52.2274 -13.6634 -16.1428 
52.3463 -13.6634 -16.1428 -53.8445 -5.57979 -16.1428 -56.3529 -5.57979 -8.42642 
54.9476 -5.57979 -16.1428 56.8173 -5.57979 -13.0637 -53.7942 2.50379 -16.1428 
54.9835 2.50379 -16.1428 56.8173 2.50379 -13.3044 -51.7588 10.5874 -16.1428 
-48.2693 18.0865 -16.1428 53.3359 10.5874 -16.1428 56.8173 10.5874 -10.5361 
-47.8941 18.671 -16.1428 -48.2693 18.671 -13.924 50.0167 18.671 -16.1428 
48.7337 20.5599 -16.1428 -41.0009 26.7546 -16.1428 -40.1858 27.5731 -16.1428 
-32.1022 32.9248 -16.1428 32.5665 34.5343 -16.1428 43.5442 26.7546 -16.1428 
40.6501 29.1166 -16.1428 48.7337 26.7546 -9.56816 -29.3104 34.8381 -16.1428 
-32.1022 34.8381 -13.6652 -24.0186 37.6713 -16.1428 -15.935 40.0778 -16.1428 
-7.85141 41.4301 -16.1428 0.232181 41.3332 -16.1428 8.31577 40.7876 -16.1428 
16.3994 39.6948 -16.1428 31.9973 34.8381 -16.1428 24.4829 37.9472 -16.1428 
32.5665 34.8381 -15.5528 -7.85141 42.9217 -9.6341 -32.1022 -39.2779 -8.05923 
-24.0186 -42.2845 -8.05923 -15.935 -44.2453 -8.05923 -7.85141 -45.0921 -8.05923 
0.232181 -45.33 -8.05923 0.232181 -45.9977 -0.161694 8.31577 -45.0118 -8.05923 
8.31577 -45.9977 -0.847927 16.3994 -43.9085 -8.05923 24.4829 -41.8211 -8.05923 
32.5665 -38.686 -8.05923 -34.8009 -37.9141 -8.05923 -40.1858 -34.7889 -8.05923 
33.9833 -37.9141 -8.05923 40.6501 -34.0149 -8.05923 -46.352 -29.8306 -8.05923 
-48.2693 -27.8136 -8.05923 45.6397 -29.8306 -8.05923 48.7337 -26.5982 -8.05923 
-52.5774 -21.747 -8.05923 52.5061 -21.747 -8.05923 -55.8344 -13.6634 -8.05923 
-56.3529 -6.8806 -8.05923 56.5877 -13.6634 -8.05923 56.8173 -12.9062 -8.05923 
-56.4461 -5.57979 -8.05923 -56.3529 -4.81354 -8.05923 -56.3529 -5.57979 -6.44044 
58.9582 -5.57979 -8.05923 -55.4358 2.50379 -8.05923 59.1196 2.50379 -8.05923 
-53.0499 10.5874 -8.05923 57.9157 10.5874 -8.05923 56.8173 13.7118 -8.05923 
-48.9758 18.671 -8.05923 -48.2693 19.7793 -8.05923 -48.2693 18.671 -4.44268 
54.8181 18.671 -8.05923 -43.2895 26.7546 -8.05923 -40.1858 30.3725 -8.05923 
40.6501 33.5313 -8.05923 49.4895 26.7546 -8.05923 48.7337 27.511 -8.05923 
-35.6028 34.8381 -8.05923 -32.1022 37.5788 -8.05923 -24.0186 41.4535 -8.05923 
-15.935 42.8761 -8.05923 0.232181 42.497 -8.05923 8.31577 42.2178 -8.05923 
16.3994 41.754 -8.05923 24.4829 40.2675 -8.05923 38.2467 34.8381 -8.05923 
32.5665 37.4952 -8.05923 -14.708 42.9217 -8.05923 -4.68648 42.9217 -8.05923 
-7.85141 43.1959 -8.05923 -7.85141 42.9217 -6.2747 0.232181 -46.013 0.0243535 
8.31577 -46.1108 0.0243535 -32.1022 -38.6741 0.0243535 -24.0186 -42.3252 0.0243535 
-15.935 -44.5376 0.0243535 -0.082527 -45.9977 0.0243535 -7.85141 -45.6198 0.0243535 
0.232181 -45.9977 0.0903961 9.55336 -45.9977 0.0243535 8.31577 -45.9977 0.610087 
16.3994 -45.3563 0.0243535 24.4829 -43.3849 0.0243535 32.5665 -39.894 0.0243535 
-33.497 -37.9141 0.0243535 -40.1858 -33.6042 0.0243535 -32.1022 -37.9141 2.03837 
35.8028 -37.9141 0.0243535 40.6501 -34.5041 0.0243535 -45.0119 -29.8306 0.0243535 
-48.2693 -26.4358 0.0243535 -40.1858 -29.8306 6.76739 45.9527 -29.8306 0.0243535 
48.7337 -26.5113 0.0243535 -51.6011 -21.747 0.0243535 -48.2693 -21.747 6.21092 
52.1034 -21.747 0.0243535 48.7337 -21.747 7.05351 -55.3269 -13.6634 0.0243535 
56.0846 -13.6634 0.0243535 56.8173 -11.1379 0.0243535 -55.9508 -5.57979 0.0243535 
58.2834 -5.57979 0.0243535 56.8173 -5.57979 3.21439 -54.3713 2.50379 0.0243535 
58.584 2.50379 0.0243535 56.8173 2.50379 3.92679 -51.6079 10.5874 0.0243535 
-48.2693 16.8565 0.0243535 57.6756 10.5874 0.0243535 56.8173 13.5923 0.0243535 
56.8173 10.5874 2.09111 -47.3656 18.671 0.0243535 55.114 18.671 0.0243535 
-42.2437 26.7546 0.0243535 -40.1858 29.5156 0.0243535 40.6501 33.7934 0.0243535 
49.6775 26.7546 0.0243535 48.7337 27.683 0.0243535 48.7337 26.7546 2.41472 
-35.7867 34.8381 0.0243535 -32.1022 37.8605 0.0243535 -24.0186 41.5308 0.0243535 
-15.935 42.845 0.0243535 -7.85141 41.9463 0.0243535 0.232181 41.3408 0.0243535 
8.31577 41.3769 0.0243535 16.3994 41.3221 0.0243535 24.4829 40.0378 0.0243535 
38.6071 34.8381 0.0243535 32.5665 37.4661 0.0243535 -24.0186 -39.5457 8.10794 
-15.935 -42.2787 8.10794 -7.85141 -43.4041 8.10794 0.232181 -43.9807 8.10794 
8.31577 -44.4434 8.10794 16.3994 -44.0309 8.10794 24.4829 -41.9809 8.10794 
32.5665 -38.0394 8.10794 -27.3009 -37.9141 8.10794 -32.1022 -35.0235 8.10794 
-24.0186 -37.9141 10.4996 -15.935 -37.9141 14.3078 -7.85141 -37.9141 15.6654 
24.4829 -37.9141 14.9591 32.7568 -37.9141 8.10794 32.5665 -37.9141 8.32378 
40.6501 -31.6026 8.10794 -39.1059 -29.8306 8.10794 -40.1858 -28.8733 8.10794 
-32.1022 -29.8306 13.2644 42.4015 -29.8306 8.10794 40.6501 -29.8306 10.1847 
-46.9608 -21.747 8.10794 -48.2693 -19.8994 8.10794 -40.1858 -21.747 13.8534 
48.1628 -21.747 8.10794 40.6501 -21.747 15.4582 48.7337 -20.5934 8.10794 
-51.6306 -13.6634 8.10794 -48.2693 -13.6634 12.6244 51.7711 -13.6634 8.10794 
48.7337 -13.6634 11.5328 -53.2509 -5.57979 8.10794 54.0154 -5.57979 8.10794 
48.7337 -5.57979 13.7689 -52.6081 2.50379 8.10794 54.4829 2.50379 8.10794 
48.7337 2.50379 14.023 -50.3141 10.5874 8.10794 -48.2693 14.8232 8.10794 
53.9337 10.5874 8.10794 48.7337 10.5874 13.8117 -46.4121 18.671 8.10794 
51.4524 18.671 8.10794 48.7337 22.8626 8.10794 48.7337 18.671 11.2998 
-41.2581 26.7546 8.10794 -40.1858 28.1585 8.10794 -40.1858 26.7546 14.2894 
45.5598 26.7546 8.10794 40.6501 30.8281 8.10794 40.6501 26.7546 13.1713 
-34.1394 34.8381 8.10794 -32.1022 36.4609 8.10794 -32.1022 34.8381 13.1463 
-24.0186 40.0052 8.10794 -15.935 41.3845 8.10794 -7.85141 40.5613 8.10794 
0.232181 39.8748 8.10794 8.31577 40.0413 8.10794 16.3994 39.9351 8.10794 
24.4829 38.3287 8.10794 24.4829 34.8381 14.9914 33.6105 34.8381 8.10794 
32.5665 35.3329 8.10794 32.5665 34.8381 9.01797 0.232181 -38.1596 16.1915 
8.31577 -39.265 16.1915 16.3994 -39.2442 16.1915 -24.0186 -31.6711 16.1915 
-15.935 -35.6795 16.1915 -2.51875 -37.9141 16.1915 -7.85141 -37.1585 16.1915 
0.232181 -37.9141 16.4 8.31577 -37.9141 17.3822 21.3434 -37.9141 16.1915 
16.3994 -37.9141 17.4274 24.4829 -36.7107 16.1915 32.5665 -31.6485 16.1915 
-26.6044 -29.8306 16.1915 -32.1022 -24.8032 16.1915 -24.0186 -29.8306 17.3199 
-15.935 -29.8306 19.4029 -7.85141 -29.8306 19.856 0.232181 -29.8306 20.1692 
8.31577 -29.8306 21.3379 16.3994 -29.8306 21.8435 24.4829 -29.8306 20.2043 
34.4978 -29.8306 16.1915 32.5665 -29.8306 17.4231 -35.5367 -21.747 16.1915 
-40.1858 -18.2986 16.1915 -32.1022 -21.747 17.6049 -24.0186 -21.747 19.6428 
[...]
POINT_DATA 522
SCALARS ImageScalars float
LOOKUP_TABLE default
0 0 0 0 0 0 0 0 0 
0 0 0 0 0 0 0 0 0 
0 0 0 0 0 0 0 0 0 
0 0 0 0 0 0 0 0 0 
0 0 0 0 0 0 0 0 0 
0 0 0 0 0 0 0 0 0 
0 0 0 0 0 0 0 0 0 
0 0 0 0 0 0 0 0 0 
0 0 0 0 0 0 0 0 0 
0 0 0 0 0 0 0 0 0 
0 0 0 0 0 0 0 0 0 
0 0 0 0 0 0 0 0 0 
0 0 0 0 0 0 0 0 0 
0 0 0 0 0 0 0 0 0 
0 0 0 0 0 0 0 0 0 
0 0 0 0 0 0 0 0 0 
0 0 0 0 0 0 0 0 0 
0 0 0 0 0 0 0 0 0 
0 0 0 0 0 0 0 0 0 
0 0 0 0 0 0 0 0 0 
0 0 0 0 0 0 0 0 0 
0 0 0 0 0 0 0 0 0 
0 0 0 0 0 0 0 0 0 
0 0 0 0 0 0 0 0 0 
0 0 0 0 0 0 0 0 0 
0 0 0 0 0 0 0 0 0 
0 0 0 0 0 0 0 0 0 
0 0 0 0 0 0 0 0 0 
0 0 0 0 0 0 0 0 0 
0 0 0 0 0 0 0 0 0 
0 0 0 0 0 0 0 0 0 
0 0 0 0 0 0 0 0 0 
0 0 0 0 0 0 0 0 0 
0 0 0 0 0 0 0 0 0 
0 0 0 0 0 0 0 0 0 
0 0 0 0 0 0 0 0 0 
0 0 0 0 0 0 0 0 0 
0 0 0 0 0 0 0 0 0 
0 0 0 0 0 0 0 0 0 
0 0 0 0 0 0 0 0 0 
0 0 0 0 0 0 0 0 0 
0 0 0 0 0 0 0 0 0 
0 0 0 0 0 0 0 0 0 
0 0 0 0 0 0 0 0 0 
0 0 0 0 0 0 0 0 0 
0 0 0 0 0 0 0 0 0 
0 0 0 0 0 0 0 0 0 
0 0 0 0 0 0 0 0 0 
0 0 0 0 0 0 0 0 0 
0 0 0 0 0 0 0 0 0 
0 0 0 0 0 0 0 0 0 
0 0 0 0 0 0 0 0 0 
0 0 0 0 0 0 0 0 0 
0 0 0 0 0 0 0 0 0 
0 0 0 0 0 0 0 0 0 
0 0 0 0 0 0 0 0 0 
0 0 0 0 0 0 0 0 0 
0 0 0 0 0 0 0 0 0 

NORMALS Normals float
0.206459 0.724104 0.658064 0.0502856 0.622357 0.781117 -0.0235233 0.582816 0.812264 
-0.0442805 0.567227 0.82237 -0.0628662 0.571314 0.81832 -0.131223 0.622735 0.771351 
0.503199 0.604285 0.617762 0.231938 0.395069 0.88889 0.0917916 0.293694 0.951482 
-0.0116176 0.246762 0.969006 -0.0666721 0.227994 0.971377 -0.0466958 0.220293 0.974315 
-0.0275746 0.235361 0.971517 -0.0432471 0.302403 0.952199 -0.106602 0.400001 0.910294 
-0.245864 0.501907 0.829241 0.657298 0.416858 0.627845 0.273735 0.281007 0.919839 
0.113698 0.160271 0.980503 0.0475005 0.0660478 0.996685 -0.0136717 0.0050199 0.999894 
-0.0538024 0.0665732 0.99633 -0.0455936 0.0788318 0.995845 0.00359828 0.0956441 0.995409 
0.0399493 0.0789846 0.996075 -0.0339639 0.156521 0.98709 -0.136759 0.238886 0.961369 
-0.316669 0.355699 0.879317 0.556365 0.191105 0.808664 0.149892 0.113035 0.98222 
-0.0086194 0.060345 0.99814 -0.0609258 -0.0497821 0.9969 -0.0127063 -0.100334 0.994873 
-0.000252562 -0.00151953 0.999999 -0.0180501 -0.00370661 0.99983 -0.0225993 0.0941794 0.995299 
0.0273923 -0.00965177 0.999578 0.0641648 -0.0241691 0.997647 -0.0209867 0.0707807 0.997271 
-0.216042 0.149137 0.964927 -0.536638 0.247458 0.806712 0.482859 0.0598491 0.873651 
0.150664 0.0416812 0.987706 -0.0522494 0.0298175 0.998189 -0.113069 -0.00241381 0.993584 
0.0347901 -0.0278128 0.999008 0.0424995 0.051568 0.997765 0.0504387 -0.0299214 0.998279 
-0.000890345 0.0483296 0.998831 -0.0784039 -0.0032271 0.996916 0.0442919 -0.0385452 0.998275 
0.0246162 -0.0176604 0.999541 -0.131092 0.00712193 0.991345 -0.437199 0.0636861 0.897107 
0.526818 -0.0317928 0.849383 0.146299 0.0201001 0.989036 -0.0503062 0.0305489 0.998267 
-0.117844 0.0559273 0.991456 0.0420322 0.0281369 0.99872 -0.00176017 0.00276078 0.999995 
-0.022558 0.0128866 0.999662 0.00350809 -0.0957832 0.995396 -0.0588808 0.0123371 0.998189 
0.0503002 0.0309282 0.998255 0.0220648 0.0586828 0.998033 -0.137083 7.69542e-05 0.99056 
-0.426784 -0.035669 0.90365 0.662282 -0.25214 0.705555 0.187667 -0.114031 0.975591 
-0.0142267 -0.0651053 0.997777 -0.116017 -0.0454596 0.992206 -0.0220607 -0.0187756 0.99958 
0.0281824 -0.0775909 0.996587 -0.0451571 0.0574242 0.997328 -0.00263462 -0.0438516 0.999035 
0.0486882 0.0589034 0.997076 0.0925026 0.0641434 0.993644 -3.16012e-05 0.0155519 0.999879 
-0.208313 -0.0788515 0.974878 -0.496404 -0.162123 0.852818 0.307672 -0.364443 0.878931 
0.0238828 -0.209532 0.97751 -0.0687413 -0.12833 0.989346 0.0107168 -0.00182787 0.999941 
0.0745986 0.0189076 0.997034 0.0099169 0.0412692 0.999099 0.00571083 0.0698738 0.99754 
0.0483177 0.0254292 0.998508 0.0047962 -0.00319492 0.999983 -0.119901 -0.134766 0.983596 
-0.304575 -0.259928 0.916336 -0.595894 -0.381169 0.706839 0.535873 -0.639727 0.55099 
0.230487 -0.472165 0.850844 0.112435 -0.230751 0.966495 0.119752 -0.110245 0.986664 
0.0790449 -0.0564316 0.995273 0.00659129 -0.0578032 0.998306 -0.0195735 -0.0639949 0.997758 
-0.0270331 -0.150864 0.988185 -0.072758 -0.214762 0.973952 -0.256743 -0.362766 0.895815 
-0.468983 -0.517033 0.716053 0.280545 -0.512276 0.811706 0.183281 -0.442682 0.877748 
0.131559 -0.41973 0.898064 -0.000434835 -0.399106 0.916905 -0.0959929 -0.466361 0.879371 
-0.120768 -0.522466 0.844064 -0.239088 -0.619061 0.748065 0.223087 0.779115 0.585843 
0.0735031 0.755863 0.650591 -0.00902594 0.719344 0.694596 -0.0341474 0.685529 0.727244 
-0.0647857 0.661751 0.746919 -0.138037 0.664488 0.73444 0.521581 0.65329 0.548785 
0.288296 0.776262 0.560627 0.361474 0.738912 0.568635 0.392933 0.870469 0.296458 
-0.173365 0.670203 0.721646 -0.2019 0.663879 0.720071 -0.235282 0.742046 0.627702 
-0.317889 0.655379 0.685146 -0.407338 0.848293 0.33834 0.549011 0.631606 0.547413 
0.68056 0.461852 0.568797 -0.44343 0.632369 0.6352 -0.461098 0.623513 0.631363 
-0.482762 0.658908 0.576871 0.705038 0.420509 0.571047 -0.631312 0.473459 0.614232 
-0.635635 0.467962 0.613987 -0.64326 0.479517 0.596892 0.753624 0.241503 0.611332 
-0.688159 0.298426 0.661346 0.819785 0.0746668 0.567783 0.993248 -0.0214634 0.11401 
-0.738415 0.120429 0.663507 -0.883529 0.139543 0.447107 0.868185 -0.125666 0.480066 
-0.728673 -0.0711268 0.681159 -0.878757 -0.0696555 0.472159 0.849506 -0.324418 0.416043 
0.780369 -0.511848 0.359216 -0.693779 -0.214701 0.68744 -0.916579 -0.237187 0.32191 
0.769081 -0.525833 0.363338 0.813377 -0.527748 0.244744 -0.643426 -0.394681 0.655919 
-0.622631 -0.435057 0.650428 0.572569 -0.648467 0.501652 0.55151 -0.658886 0.511572 
0.415939 -0.629113 0.656667 -0.393615 -0.733747 0.55379 -0.541275 -0.558735 0.62836 
-0.497298 -0.613031 0.613911 -0.688907 -0.66748 0.282628 0.403177 -0.625691 0.667802 
0.498313 -0.708583 0.499593 0.316681 -0.669742 0.671684 0.181519 -0.751658 0.634083 
0.0553698 -0.862638 0.502782 -0.0355052 -0.89264 0.449369 -0.0917201 -0.867802 0.488371 
-0.152989 -0.828933 0.53802 -0.388022 -0.740258 0.549051 -0.277721 -0.799288 0.532925 
-0.397008 -0.757948 0.51759 -0.0119765 -0.995808 0.0906852 0.397802 0.909423 0.121261 
0.287798 0.943241 0.165738 0.16359 0.964876 0.205554 0.0675062 0.967945 0.241922 
-0.00444758 0.963774 0.266684 0.0294375 0.997352 -0.0665003 -0.0838413 0.953042 0.291002 
-0.0444526 0.999011 0.000755715 -0.182374 0.928825 0.322527 -0.294106 0.898553 0.325737 
-0.415518 0.86825 0.271083 0.449509 0.886067 0.113261 0.573495 0.813147 0.099476 
-0.437644 0.859007 0.265658 -0.558161 0.79568 0.235264 0.695502 0.71025 0.108728 
0.750626 0.651809 0.108196 -0.662432 0.718775 0.211062 -0.738232 0.649527 0.182011 
0.870419 0.480213 0.108474 -0.822586 0.545916 0.159144 0.966455 0.216664 0.137922 
0.994544 0.0120297 0.103624 -0.924234 0.349777 0.153128 -0.931237 0.331011 0.152411 
0.994961 -0.0250508 0.097086 0.995111 -0.0401889 0.0902127 0.998601 -0.0321479 0.0419746 
-0.977269 0.150394 0.14942 0.980555 -0.194911 0.0228577 -0.985293 -0.0606707 0.159737 
0.92676 -0.375648 -0.00188172 -0.953581 -0.236501 0.186416 -0.925663 -0.323746 0.195798 
0.863229 -0.503718 -0.0332283 0.855379 -0.517384 -0.0253109 0.868514 -0.489021 -0.0808778 
-0.859387 -0.465236 0.212152 0.782855 -0.620172 0.0502485 0.728253 -0.679068 0.0922732 
-0.524685 -0.830468 0.187159 -0.709185 -0.672435 0.211866 -0.686694 -0.696175 0.209264 
0.623597 -0.760115 0.182628 0.541153 -0.816001 0.203216 0.299897 -0.939299 0.166673 
0.0979744 -0.989315 0.107963 -0.0603117 -0.998138 -0.00910912 -0.0457109 -0.998739 0.0207567 
-0.116127 -0.990424 0.0746637 -0.245956 -0.964058 0.100491 -0.480138 -0.860219 0.171729 
-0.382105 -0.912784 0.144292 0.0802105 -0.992424 0.0930585 -0.0378536 -0.999282 0.00126992 
-0.0233736 -0.999675 0.0101643 -0.0378957 -0.998874 -0.0285248 0.0301702 0.996805 -0.0739595 
-0.0396308 0.998715 -0.0316007 0.456153 0.867823 -0.196997 0.33063 0.933073 -0.141628 
0.194155 0.975149 -0.106714 0.0325095 0.996679 -0.0746562 0.0902463 0.991616 -0.0924826 
0.0303999 0.996621 -0.0763088 -0.057472 0.998007 -0.026045 -0.03712 0.997918 -0.052744 
-0.159585 0.987164 0.00628343 -0.319405 0.947562 0.0103838 -0.470237 0.88211 -0.0275412 
0.475425 0.854903 -0.207635 0.574075 0.775919 -0.261511 0.467625 0.843774 -0.263388 
-0.523211 0.850904 -0.0470495 -0.612488 0.784717 -0.0952709 0.659548 0.698526 -0.277593 
0.743727 0.606288 -0.281576 0.577435 0.66238 -0.477307 -0.708659 0.691936 -0.137937 
-0.775646 0.606706 -0.174012 0.831171 0.494415 -0.254378 0.709187 0.527573 -0.467675 
-0.841008 0.501206 -0.203709 -0.759005 0.442543 -0.477563 0.946372 0.230089 -0.226803 
-0.913087 0.32626 -0.244592 -0.930234 0.269825 -0.248715 0.980491 -0.0586222 -0.18762 
-0.954531 0.148282 -0.258617 -0.912359 0.147251 -0.381992 0.958115 -0.231358 -0.168789 
-0.969055 -0.0359495 -0.244212 -0.915899 -0.02596 -0.400568 0.904687 -0.397701 -0.152892 
0.879733 -0.453108 -0.144093 -0.958483 -0.192905 -0.209996 -0.940507 -0.281528 -0.190234 
-0.938565 -0.180192 -0.294322 0.871771 -0.47018 -0.137646 -0.885382 -0.438131 -0.155372 
0.815549 -0.569139 -0.104689 0.780279 -0.618715 -0.0914202 -0.515683 -0.848918 -0.115798 
-0.716809 -0.680627 -0.15143 -0.688888 -0.709537 -0.148292 -0.698782 -0.671474 -0.24663 
0.663475 -0.745337 -0.0653748 0.559419 -0.826573 -0.0618685 0.271886 -0.958301 -0.0879607 
0.0221012 -0.995882 -0.0879202 -0.0906354 -0.982107 -0.165076 -0.0353723 -0.98534 -0.166897 
-0.00119786 -0.990529 -0.1373 -0.0789329 -0.99054 -0.112247 -0.222255 -0.968451 -0.11272 
-0.475864 -0.872037 -0.114477 -0.365947 -0.923487 -0.11513 0.360352 0.821153 -0.442553 
0.207464 0.885889 -0.414922 0.0975904 0.904834 -0.414429 0.0602006 0.916922 -0.3945 
0.00161383 0.937168 -0.348873 -0.137245 0.940886 -0.309672 -0.325995 0.890779 -0.316608 
-0.49136 0.801045 -0.341894 0.414596 0.786733 -0.457342 0.486281 0.717795 -0.498298 
0.362698 0.76395 -0.533695 0.194944 0.697831 -0.689223 0.0896546 0.634618 -0.767608 
-0.313901 0.705056 -0.635895 -0.494792 0.798488 -0.342925 -0.491642 0.797087 -0.350629 
-0.651377 0.633497 -0.417599 0.560916 0.642213 -0.522433 0.569152 0.632371 -0.525521 
0.445515 0.54685 -0.708852 -0.678302 0.594733 -0.431508 -0.64753 0.569874 -0.505913 
0.656708 0.532167 -0.534352 0.702833 0.488012 -0.517562 0.46223 0.504769 -0.729076 
-0.738817 0.428982 -0.519734 -0.552472 0.320448 -0.769472 -0.747913 0.405289 -0.525706 
0.822361 0.299123 -0.483992 0.695721 0.361605 -0.620656 -0.787032 0.267402 -0.555947 
-0.698658 0.250823 -0.670049 0.924795 0.0426413 -0.378069 -0.795655 0.1389 -0.58961 
-0.619902 0.113284 -0.776459 0.957089 -0.157907 -0.242994 -0.805988 -0.00577347 -0.591904 
-0.589317 0.00154173 -0.807901 0.920988 -0.360899 -0.14674 0.900638 -0.422459 -0.10188 
-0.813521 -0.142713 -0.563752 -0.62836 -0.107387 -0.770475 0.874173 -0.476369 -0.0943101 
-0.77377 -0.389103 -0.499878 -0.706379 -0.505263 -0.49572 -0.681217 -0.368383 -0.632643 
0.803798 -0.582543 -0.120631 0.783558 -0.607976 -0.128067 0.73696 -0.608963 -0.293351 
-0.641201 -0.617322 -0.455823 -0.544672 -0.7293 -0.414071 -0.560461 -0.560062 -0.610094 
0.61087 -0.76426 -0.206748 0.549421 -0.807717 -0.213844 0.527918 -0.773616 -0.350459 
0.267069 -0.935377 -0.231827 0.0323692 -0.969281 -0.243816 -0.0916016 -0.97397 -0.207346 
-0.0317245 -0.979255 -0.200132 0.00399135 -0.975225 -0.221179 -0.0971405 -0.960638 -0.260267 
-0.255348 -0.915727 -0.310227 -0.301884 -0.74883 -0.590017 -0.395612 -0.84668 -0.355844 
-0.378019 -0.857355 -0.349349 -0.382734 -0.842145 -0.379877 0.0871262 0.618208 -0.781171 
0.0507092 0.668967 -0.741561 -0.106967 0.697746 -0.708314 0.331736 0.470267 -0.817802 
0.175108 0.575229 -0.79903 0.0877855 0.613494 -0.784805 0.0845542 0.594945 -0.799307 
0.0873449 0.607835 -0.789245 0.0563522 0.611488 -0.789244 -0.22723 0.670768 -0.706 
-0.101072 0.641642 -0.760316 -0.297106 0.634307 -0.71371 -0.454916 0.49251 -0.741947 
0.355222 0.438821 -0.825381 0.345281 0.426558 -0.83596 0.314528 0.399667 -0.86101 
0.135777 0.344579 -0.928886 0.0463328 0.326422 -0.944088 0.0842319 0.332906 -0.939191 
0.0986378 0.351608 -0.930936 -0.0646406 0.333054 -0.940689 -0.244256 0.359167 -0.900743 
-0.484369 0.444762 -0.753375 -0.43853 0.425999 -0.791338 0.355333 0.429502 -0.830221 
0.406338 0.45586 -0.791885 0.291929 0.373236 -0.880609 0.2031 0.21164 -0.956012 
0.119267 0.167808 -0.978579 0.0740893 0.23321 -0.9696 0.119673 0.272862 -0.954581 
0.0706117 0.262323 -0.962393 -0.0956574 0.156168 -0.983088 -0.212496 0.127272 -0.968838 
-0.52241 0.293105 -0.800735 -0.362091 0.167686 -0.916936 -0.518849 0.26513 -0.812713 
0.509331 0.397776 -0.763122 0.706462 0.260628 -0.658015 0.361666 0.400167 -0.84206 
0.140627 0.324954 -0.935216 0.0950591 0.223764 -0.969997 0.169028 0.21181 -0.962583 
0.15508 0.269094 -0.950547 -0.255956 -0.0353006 -0.966044 -0.272767 0.00702934 -0.962054 
-0.504848 0.17369 -0.845553 -0.443315 0.136852 -0.885857 0.73206 0.231169 -0.640819 
0.710199 0.24145 -0.661301 0.320714 0.304866 -0.896771 0.0980931 0.318345 -0.942886 
0.0842299 0.312377 -0.946217 -0.298667 -0.0546394 -0.952792 -0.204905 -0.0231288 -0.978508 
-0.473751 0.0637434 -0.878349 -0.332882 0.0163534 -0.942827 0.869983 0.0040416 -0.493065 
0.795097 0.0462551 -0.604716 0.356636 0.152485 -0.921715 -0.0524087 0.137848 -0.989066 
-0.281042 0.0410189 -0.958819 -0.208495 0.0443479 -0.977017 -0.442555 0.0018572 -0.896739 
-0.32802 0.00759539 -0.94464 0.899494 -0.238709 -0.365963 0.887285 -0.303205 -0.347552 
0.876658 -0.225242 -0.425131 -0.239558 -0.087369 -0.966943 -0.204916 0.0419065 -0.977882 
-0.240446 0.0265996 -0.970298 -0.494196 -0.066389 -0.866812 -0.371607 -0.0395538 -0.927547 
0.811087 -0.481225 -0.332507 0.71538 -0.604034 -0.351247 0.577054 -0.356435 -0.734822 
-0.200054 -0.130984 -0.97099 -0.187013 -0.0979192 -0.977465 -0.284878 -0.13889 -0.948448 
-0.488339 -0.256435 -0.834126 -0.49132 -0.334568 -0.804157 -0.447724 -0.224757 -0.865464 
0.705178 -0.612219 -0.357648 0.500026 -0.739506 -0.450671 0.40112 -0.513352 -0.758665 
-0.2055 -0.307481 -0.929099 -0.187437 -0.304728 -0.933814 -0.296962 -0.684937 -0.665338 
-0.220209 -0.347155 -0.911587 -0.455097 -0.489427 -0.743873 -0.381642 -0.570313 -0.727387 
-0.348712 -0.441025 -0.82698 0.430308 -0.776295 -0.460653 0.255469 -0.837027 -0.483861 
0.239371 -0.741204 -0.627151 0.0592342 -0.867519 -0.493864 0.0734141 -0.709115 -0.70126 
-0.0434062 -0.89568 -0.442576 -0.0214816 -0.734144 -0.678654 -0.0580202 -0.891114 -0.450054 
-0.0885606 -0.747377 -0.658471 -0.0729869 -0.835788 -0.544179 -0.117792 -0.706524 -0.697817 
-0.26848 -0.717404 -0.642846 -0.170402 -0.760836 -0.626173 -0.180967 -0.677159 -0.713237 
0.118746 0.164329 -0.979232 0.0482638 0.241013 -0.969321 -0.17349 0.126061 -0.976734 
0.169071 0.304775 -0.937298 0.141398 0.217226 -0.965826 0.130441 0.257638 -0.957396 
0.116428 0.132212 -0.98436 -0.00953814 0.184206 -0.982841 -0.215434 0.0915688 -0.972216 
-0.207404 0.114669 -0.971512 0.108546 0.279871 -0.953881 0.136151 0.321508 -0.937067 
0.0866158 0.295987 -0.951257 0.166411 0.324365 -0.931179 -0.0219357 0.184662 -0.982557 
-0.00468106 0.0350481 -0.999375 0.0370903 -0.0530937 -0.9979 0.0604678 0.0204467 -0.997961 
-0.33037 0.00163762 -0.94385 -0.330668 0.0334816 -0.943153 0.331806 0.158405 -0.929953 
0.40137 0.000468867 -0.915916 0.121423 0.202593 -0.971706 0.083036 0.239597 -0.967315 
0.0497216 0.177148 -0.982927 -0.0729095 0.138136 -0.987726 -0.207196 0.121718 -0.970698 
-0.0345903 0.112404 -0.99306 -0.0626296 0.148519 -0.986924 0.0737824 -0.0378225 -0.996557 
-0.304757 -0.0478735 -0.951226 -0.241491 -0.0871687 -0.96648 -0.303249 -0.0769423 -0.9498 
0.424076 -0.0652622 -0.903272 0.425705 -0.078489 -0.901451 0.417618 -0.0638714 -0.906375 
0.180727 0.000885488 -0.983533 0.0688678 0.0271251 -0.997257 0.0412313 0.0104072 -0.999095 
-0.0712594 0.0662895 -0.995253 -0.12429 0.204974 -0.970844 -0.238394 -0.0869691 -0.967267 
-0.147331 -0.0440785 -0.988105 0.407246 -0.288599 -0.866523 0.294788 -0.370865 -0.880658 
0.208355 -0.230185 -0.95058 0.0916419 -0.142707 -0.985513 0.0869599 -0.116306 -0.989399 
-0.00899923 -0.102633 -0.994679 -0.163429 -0.0711833 -0.983984 -0.213168 -0.133386 -0.967868 
-0.213279 -0.261563 -0.941327 -0.229847 -0.135773 -0.96371 0.25766 -0.391124 -0.883534 
0.202946 -0.407689 -0.890282 0.194372 -0.336883 -0.921265 0.0661031 -0.463094 -0.883841 
0.0679627 -0.335245 -0.939676 -0.0215418 -0.503046 -0.863991 -0.0270629 -0.354676 -0.934598 
-0.191878 -0.313802 -0.929899 -0.131799 -0.444712 -0.885923 -0.145651 -0.344491 -0.927422 

