# vtk DataFile Version 4.2
vtk output
ASCII
DATASET POLYDATA
POINTS 560 float
-8.71262 -47.1368 -13.2332 -0.751764 -47.1368 -14.2614 7.2091 -47.1368 -14.803 
15.17 -47.1368 -14.4925 23.1308 -47.1368 -13.1249 -24.6343 -39.176 -15.3621 
-16.6735 -39.176 -16.2413 -8.71262 -39.176 -16.9704 -0.751764 -39.176 -17.8455 
7.2091 -39.176 -18.2393 15.17 -39.176 -17.7882 23.1308 -39.176 -16.8265 
31.0917 -39.176 -14.9243 -40.5561 -31.2151 -13.2334 -32.5952 -31.2151 -16.5942 
-24.6343 -31.2151 -17.6118 -16.6735 -31.2151 -18.0344 -8.71262 -31.2151 -18.2829 
-0.751764 -31.2151 -19.0145 7.2091 -31.2151 -19.3302 15.17 -31.2151 -19.0519 
23.1308 -31.2151 -18.2935 31.0917 -31.2151 -17.2679 39.0525 -31.2151 -14.5007 
-40.5561 -23.2543 -16.5366 -32.5952 -23.2543 -18.2559 -24.6343 -23.2543 -18.7877 
-16.6735 -23.2543 -18.3623 -8.71262 -23.2543 -18.176 -0.751764 -23.2543 -18.9444 
7.2091 -23.2543 -19.0236 15.17 -23.2543 -18.884 23.1308 -23.2543 -18.3533 
31.0917 -23.2543 -17.8566 39.0525 -23.2543 -16.167 -48.5169 -15.2934 -14.0144 
-40.5561 -15.2934 -18.7336 -32.5952 -15.2934 -19.6176 -24.6343 -15.2934 -18.9388 
-16.6735 -15.2934 -17.9 -8.71262 -15.2934 -17.3647 -0.751764 -15.2934 -18.2167 
7.2091 -15.2934 -18.3413 15.17 -15.2934 -17.8493 23.1308 -15.2934 -18.1347 
31.0917 -15.2934 -18.3124 39.0525 -15.2934 -17.5894 47.0134 -15.2934 -14.4659 
-48.5169 -7.33254 -15.8339 -40.5561 -7.33254 -18.5118 -32.5952 -7.33254 -19.1071 
-24.6343 -7.33254 -18.1175 -16.6735 -7.33254 -16.896 -8.71262 -7.33254 -18.8752 
-0.751764 -7.33254 -18.6786 7.2091 -7.33254 -20.0607 15.17 -7.33254 -17.1523 
23.1308 -7.33254 -16.8444 31.0917 -7.33254 -17.7765 39.0525 -7.33254 -17.1228 
47.0134 -7.33254 -15.0142 -48.5169 0.628321 -16.6714 -40.5561 0.628321 -18.7401 
-32.5952 0.628321 -18.9321 -24.6343 0.628321 -17.5564 -16.6735 0.628321 -15.8027 
-8.71262 0.628321 -20.1213 -0.751764 0.628321 -16.1082 7.2091 0.628321 -20.3284 
15.17 0.628321 -15.8974 23.1308 0.628321 -15.7975 31.0917 0.628321 -16.9376 
39.0525 0.628321 -16.7965 47.0134 0.628321 -14.7264 -48.5169 8.58918 -16.1626 
-40.5561 8.58918 -18.5745 -32.5952 8.58918 -19.2756 -24.6343 8.58918 -17.6746 
-16.6735 8.58918 -15.7536 -8.71262 8.58918 -16.3399 -0.751764 8.58918 -17.7955 
7.2091 8.58918 -19.5403 15.17 8.58918 -16.2442 23.1308 8.58918 -16.5186 
31.0917 8.58918 -16.6343 39.0525 8.58918 -16.1945 47.0134 8.58918 -14.1902 
-48.5169 16.55 -14.3076 -40.5561 16.55 -18.0627 -32.5952 16.55 -18.1814 
-24.6343 16.55 -17.7256 -16.6735 16.55 -16.7432 -8.71262 16.55 -16.7963 
-0.751764 16.55 -17.1294 7.2091 16.55 -17.3489 15.17 16.55 -17.5058 
23.1308 16.55 -17.4349 31.0917 16.55 -16.9768 39.0525 16.55 -16.132 
47.0134 16.55 -13.7392 -40.5561 24.5109 -15.8241 -32.5952 24.5109 -17.8307 
-24.6343 24.5109 -17.7181 -16.6735 24.5109 -17.6885 -8.71262 24.5109 -17.984 
-0.751764 24.5109 -16.9402 7.2091 24.5109 -16.5985 15.17 24.5109 -17.0968 
23.1308 24.5109 -17.7439 31.0917 24.5109 -17.2784 39.0525 24.5109 -15.3274 
-32.5952 32.4718 -15.3739 -24.6343 32.4718 -17.0813 -16.6735 32.4718 -17.3786 
-8.71262 32.4718 -17.4782 -0.751764 32.4718 -16.4787 7.2091 32.4718 -15.5123 
15.17 32.4718 -15.9452 23.1308 32.4718 -16.2232 31.0917 32.4718 -15.305 
39.0525 32.4718 -13.6198 -24.6343 40.4326 -14.0731 -16.6735 40.4326 -15.066 
-8.71262 40.4326 -15.2639 -0.751764 40.4326 -14.2705 7.2091 40.4326 -13.1963 
15.17 40.4326 -13.4843 23.1308 40.4326 -13.164 -8.71262 -47.9495 -12.6145 
-0.751764 -49.2885 -12.6145 7.2091 -50.0121 -12.6145 15.17 -49.8034 -12.6145 
23.1308 -47.6409 -12.6145 -24.6343 -42.986 -12.6145 -24.6343 -47.1368 -7.96258 
-11.8386 -47.1368 -12.6145 -16.6735 -45.5019 -12.6145 -16.6735 -47.1368 -11.3359 
24.6786 -47.1368 -12.6145 31.0917 -43.9555 -12.6145 31.0917 -47.1368 -9.06391 
-40.5561 -32.3526 -12.6145 -31.8334 -39.176 -12.6145 -32.5952 -38.584 -12.6145 
-32.5952 -39.176 -12.1537 35.2436 -39.176 -12.6145 39.0525 -34.8959 -12.6145 
39.0525 -39.176 -9.0568 -41.4723 -31.2151 -12.6145 42.5149 -31.2151 -12.6145 
47.0134 -31.2151 -6.0281 -46.5138 -23.2543 -12.6145 -48.5169 -19.2339 -12.6145 
-48.5169 -23.2543 -9.76385 46.0123 -23.2543 -12.6145 47.0134 -21.6238 -12.6145 
47.0134 -23.2543 -11.8166 -49.9779 -15.2934 -12.6145 49.6782 -15.2934 -12.6145 
-52.1694 -7.33254 -12.6145 51.819 -7.33254 -12.6145 54.9743 -7.33254 -8.60394 
-53.4094 0.628321 -12.6145 -56.4778 0.628321 -4.77206 51.4079 0.628321 -12.6145 
54.9743 0.628321 -9.15033 -53.1622 8.58918 -12.6145 50.2471 8.58918 -12.6145 
54.9743 8.58918 -8.56726 -50.6948 16.55 -12.6145 -48.5169 20.374 -12.6145 
48.5651 16.55 -12.6145 47.0134 20.4136 -12.6145 54.9743 16.55 -6.24578 
-45.8806 24.5109 -12.6145 -48.5169 24.5109 -9.7295 -40.5561 30.6624 -12.6145 
44.8228 24.5109 -12.6145 47.0134 24.5109 -11.2454 -38.5185 32.4718 -12.6145 
-40.5561 32.4718 -11.0563 -32.5952 37.4261 -12.6145 31.0917 39.0523 -12.6145 
40.9141 32.4718 -12.6145 39.0525 34.2067 -12.6145 47.0134 32.4718 -7.7631 
-28.1463 40.4326 -12.6145 -32.5952 40.4326 -9.86821 -24.6343 42.7168 -12.6145 
-16.6735 44.4312 -12.6145 -8.71262 45.051 -12.6145 -0.751764 43.5548 -12.6145 
7.2091 41.5558 -12.6145 15.17 42.3915 -12.6145 27.1474 40.4326 -12.6145 
23.1308 41.3494 -12.6145 31.0917 40.4326 -11.8391 39.0525 40.4326 -7.71132 
-24.6343 48.3935 -6.13291 -16.6735 48.3935 -9.12 -8.71262 48.3935 -10.15 
-0.751764 48.3935 -9.45483 7.2091 48.3935 -8.34654 15.17 48.3935 -8.1942 
23.1308 48.3935 -6.5899 -24.6343 -49.4285 -4.65365 -16.6735 -52.0298 -4.65365 
-8.71262 -53.8358 -4.65365 -0.751764 -54.5946 -4.65365 7.2091 -54.9688 -4.65365 
15.17 -54.9515 -4.65365 23.1308 -52.5702 -4.65365 31.0917 -49.2104 -4.65365 
-29.2769 -47.1368 -4.65365 -32.5952 -45.1998 -4.65365 34.0492 -47.1368 -4.65365 
39.0525 -42.7428 -4.65365 -40.2894 -39.176 -4.65365 -40.5561 -38.9273 -4.65365 
42.1683 -39.176 -4.65365 47.0134 -32.0754 -4.65365 -46.5993 -31.2151 -4.65365 
-48.5169 -27.7905 -4.65365 47.5677 -31.2151 -4.65365 47.0134 -31.2151 -2.19044 
-50.7804 -23.2543 -4.65365 51.5499 -23.2543 -4.65365 -53.2888 -15.2934 -4.65365 
54.6467 -15.2934 -4.65365 54.9743 -13.9831 -4.65365 -55.1929 -7.33254 -4.65365 
-56.4778 0.410563 -4.65365 56.5651 -7.33254 -4.65365 -56.5137 0.628321 -4.65365 
-56.4778 2.28144 -4.65365 -56.4778 0.628321 -4.17684 57.2451 0.628321 -4.65365 
-56.3423 8.58918 -4.65365 57.1542 8.58918 -4.65365 -54.9369 16.55 -4.65365 
55.9251 16.55 -4.65365 54.9743 19.4306 -4.65365 -51.8166 24.5109 -4.65365 
-48.5169 30.0496 -4.65365 52.8814 24.5109 -4.65365 -46.6089 32.4718 -4.65365 
-40.5561 38.7138 -4.65365 49.0018 32.4718 -4.65365 47.0134 35.0407 -4.65365 
-38.5461 40.4326 -4.65365 -32.5952 44.7519 -4.65365 31.0917 46.8616 -4.65365 
41.7333 40.4326 -4.65365 39.0525 42.6418 -4.65365 -26.3743 48.3935 -4.65365 
-24.6343 49.2393 -4.65365 -16.6735 51.514 -4.65365 -8.71262 53.0843 -4.65365 
-0.751764 52.7737 -4.65365 7.2091 51.9916 -4.65365 15.17 51.1916 -4.65365 
27.3696 48.3935 -4.65365 23.1308 49.8146 -4.65365 -24.6343 -49.4794 3.30721 
-16.6735 -52.4248 3.30721 -8.71262 -54.4643 3.30721 -0.751764 -54.8689 3.30721 
7.2091 -54.7171 3.30721 15.17 -54.1981 3.30721 23.1308 -52.1278 3.30721 
31.0917 -48.1616 3.30721 -29.0054 -47.1368 3.30721 -32.5952 -44.8772 3.30721 
-24.6343 -47.1368 7.98121 32.4749 -47.1368 3.30721 31.0917 -47.1368 4.81669 
39.0525 -40.9461 3.30721 -39.2627 -39.176 3.30721 -40.5561 -37.8449 3.30721 
-32.5952 -39.176 10.1956 31.0917 -39.176 11.1784 40.5362 -39.176 3.30721 
39.0525 -39.176 5.25223 -45.6725 -31.2151 3.30721 -48.5169 -26.0489 3.30721 
-40.5561 -31.2151 10.2552 45.5353 -31.2151 3.30721 39.0525 -31.2151 9.69703 
47.0134 -28.7981 3.30721 -49.8993 -23.2543 3.30721 -48.5169 -23.2543 6.13655 
49.8183 -23.2543 3.30721 47.0134 -23.2543 7.05848 -52.4595 -15.2934 3.30721 
-48.5169 -15.2934 11.0622 53.1349 -15.2934 3.30721 47.0134 -15.2934 9.76011 
54.9743 -10.239 3.30721 -54.3393 -7.33254 3.30721 55.8718 -7.33254 3.30721 
54.9743 -7.33254 4.71305 -55.8869 0.628321 3.30721 56.9504 0.628321 3.30721 
54.9743 0.628321 6.67296 -55.532 8.58918 3.30721 57.0219 8.58918 3.30721 
54.9743 8.58918 6.96244 -54.4866 16.55 3.30721 55.8432 16.55 3.30721 
54.9743 19.0165 3.30721 54.9743 16.55 4.76724 -51.5896 24.5109 3.30721 
-48.5169 30.0159 3.30721 -48.5169 24.5109 10.0688 52.9156 24.5109 3.30721 
-46.8796 32.4718 3.30721 -40.5561 39.4318 3.30721 48.5417 32.4718 3.30721 
47.0134 34.4992 3.30721 47.0134 32.4718 5.53048 -39.4798 40.4326 3.30721 
-32.5952 45.796 3.30721 31.0917 48.2189 3.30721 41.7167 40.4326 3.30721 
39.0525 42.7498 3.30721 39.0525 40.4326 6.88004 -28.1088 48.3935 3.30721 
-24.6343 50.169 3.30721 -24.6343 48.3935 8.26696 -16.6735 53.0328 3.30721 
-8.71262 55.1044 3.30721 -0.751764 55.3532 3.30721 7.2091 55.1587 3.30721 
15.17 54.2897 3.30721 30.7205 48.3935 3.30721 23.1308 51.7576 3.30721 
23.1308 48.3935 10.9278 -16.6735 -47.3724 11.2681 -8.71262 -49.3584 11.2681 
-0.751764 -49.8156 11.2681 7.2091 -49.2967 11.2681 15.17 -47.9823 11.2681 
23.1308 -47.1514 11.2681 -17.4838 -47.1368 11.2681 -24.6343 -44.2037 11.2681 
-16.6735 -47.1368 11.5015 -8.71262 -47.1368 12.9711 -0.751764 -47.1368 13.3262 
7.2091 -47.1368 12.8913 15.17 -47.1368 11.9912 23.1566 -47.1368 11.2681 
23.1308 -47.1368 11.2813 -30.9145 -39.176 11.2681 -32.5952 -37.8567 11.2681 
-24.6343 -39.176 14.0718 -16.6735 -39.176 15.9152 -8.71262 -39.176 16.6437 
-0.751764 -39.176 16.8089 7.2091 -39.176 17.0196 15.17 -39.176 15.9325 
30.9291 -39.176 11.2681 23.1308 -39.176 14.5725 31.0917 -39.0163 11.2681 
-39.3434 -31.2151 11.2681 -40.5561 -29.7076 11.2681 -32.5952 -31.2151 15.0051 
-24.6343 -31.2151 16.8295 -16.6735 -31.2151 18.0212 -8.71262 -31.2151 18.2727 
-0.751764 -31.2151 18.0375 7.2091 -31.2151 17.7975 15.17 -31.2151 17.647 
23.1308 -31.2151 16.6314 37.0051 -31.2151 11.2681 31.0917 -31.2151 14.584 
39.0525 -27.5802 11.2681 -44.8041 -23.2543 11.2681 -40.5561 -23.2543 14.3798 
-32.5952 -23.2543 17.2759 -24.6343 -23.2543 18.8372 -16.6735 -23.2543 18.8206 
-8.71262 -23.2543 18.7029 -0.751764 -23.2543 18.1942 7.2091 -23.2543 17.9562 
[...]
POINT_DATA 560
SCALARS ImageScalars float
LOOKUP_TABLE default
0 0 0 0 0 0 0 0 0 
0 0 0 0 0 0 0 0 0 
0 0 0 0 0 0 0 0 0 
0 0 0 0 0 0 0 0 0 
0 0 0 0 0 0 0 0 0 
0 0 0 0 0 0 0 0 0 
0 0 0 0 0 0 0 0 0 
0 0 0 0 0 0 0 0 0 
0 0 0 0 0 0 0 0 0 
0 0 0 0 0 0 0 0 0 
0 0 0 0 0 0 0 0 0 
0 0 0 0 0 0 0 0 0 
0 0 0 0 0 0 0 0 0 
0 0 0 0 0 0 0 0 0 
0 0 0 0 0 0 0 0 0 
0 0 0 0 0 0 0 0 0 
0 0 0 0 0 0 0 0 0 
0 0 0 0 0 0 0 0 0 
0 0 0 0 0 0 0 0 0 
0 0 0 0 0 0 0 0 0 
0 0 0 0 0 0 0 0 0 
0 0 0 0 0 0 0 0 0 
0 0 0 0 0 0 0 0 0 
0 0 0 0 0 0 0 0 0 
0 0 0 0 0 0 0 0 0 
0 0 0 0 0 0 0 0 0 
0 0 0 0 0 0 0 0 0 
0 0 0 0 0 0 0 0 0 
0 0 0 0 0 0 0 0 0 
0 0 0 0 0 0 0 0 0 
0 0 0 0 0 0 0 0 0 
0 0 0 0 0 0 0 0 0 
0 0 0 0 0 0 0 0 0 
0 0 0 0 0 0 0 0 0 
0 0 0 0 0 0 0 0 0 
0 0 0 0 0 0 0 0 0 
0 0 0 0 0 0 0 0 0 
0 0 0 0 0 0 0 0 0 
0 0 0 0 0 0 0 0 0 
0 0 0 0 0 0 0 0 0 
0 0 0 0 0 0 0 0 0 
0 0 0 0 0 0 0 0 0 
0 0 0 0 0 0 0 0 0 
0 0 0 0 0 0 0 0 0 
0 0 0 0 0 0 0 0 0 
0 0 0 0 0 0 0 0 0 
0 0 0 0 0 0 0 0 0 
0 0 0 0 0 0 0 0 0 
0 0 0 0 0 0 0 0 0 
0 0 0 0 0 0 0 0 0 
0 0 0 0 0 0 0 0 0 
0 0 0 0 0 0 0 0 0 
0 0 0 0 0 0 0 0 0 
0 0 0 0 0 0 0 0 0 
0 0 0 0 0 0 0 0 0 
0 0 0 0 0 0 0 0 0 
0 0 0 0 0 0 0 0 0 
0 0 0 0 0 0 0 0 0 
0 0 0 0 0 0 0 0 0 
0 0 0 0 0 0 0 0 0 
0 0 0 0 0 0 0 0 0 
0 0 0 0 0 0 0 0 0 
0 0 
NORMALS Normals float
0.140593 0.577659 0.80408 0.0892574 0.568791 0.817624 0.0128321 0.559253 0.828898 
-0.0803427 0.536797 0.839877 -0.223271 0.631628 0.742426 0.184295 0.450422 0.873588 
0.101419 0.325824 0.939975 0.0959908 0.284748 0.953784 0.0790071 0.268991 0.959897 
-0.00366879 0.257909 0.966162 -0.0810603 0.264229 0.961048 -0.18693 0.267921 0.945133 
-0.337885 0.353038 0.872467 0.492809 0.432971 0.754768 0.251616 0.301138 0.919785 
0.079942 0.210164 0.974392 0.044706 0.122958 0.991404 0.0604943 0.0744272 0.99539 
0.0656111 0.0701808 0.995374 0.00188934 0.0513119 0.998681 -0.0632151 0.0692897 0.995592 
-0.107439 0.085665 0.990514 -0.233916 0.185224 0.95445 -0.411466 0.316064 0.854868 
0.35176 0.307974 0.883978 0.130765 0.175966 0.975672 0.0054773 0.0850268 0.996364 
-0.0399063 -0.0090159 0.999163 0.0368146 -0.058094 0.997632 0.0521818 -0.0498975 0.99739 
-0.00378905 -0.0612352 0.998116 -0.0421688 -0.0757559 0.996234 -0.0639439 -0.0100359 0.997903 
-0.125711 0.0609483 0.990193 -0.301706 0.184605 0.935358 0.666974 0.243581 0.704141 
0.291706 0.106496 0.950561 0.00568378 0.0522271 0.998619 -0.105872 -0.0408768 0.993539 
-0.0992796 -0.0910562 0.990885 0.0199119 0.0329679 0.999258 0.0613758 -0.0174171 0.997963 
-0.0231986 0.0566882 0.998122 -0.0125659 -0.106783 0.994203 0.0287857 -0.0925596 0.995291 
-0.0306 -0.0053721 0.999517 -0.234235 0.0499623 0.970895 -0.500264 0.146203 0.85344 
0.543231 0.153735 0.825388 0.187929 0.00206951 0.98218 -0.0253826 -0.0420837 0.998792 
-0.140237 -0.0884344 0.986161 0.0322969 -0.13164 0.990771 0.121224 0.161312 0.97943 
0.0709303 -0.0976562 0.992689 -0.090944 0.123891 0.98812 -0.199274 -0.112948 0.973413 
0.0410424 -0.144973 0.988584 0.0147372 -0.0858634 0.996198 -0.168879 -0.0454822 0.984587 
-0.37559 0.0151091 0.926663 0.472078 0.0177284 0.881378 0.133666 0.00269218 0.991023 
-0.0736548 0.00846502 0.997248 -0.198772 -0.0287122 0.979625 0.0695816 -0.0724659 0.994941 
0.0980874 -0.161532 0.981981 0.0490524 -0.0678251 0.996491 -0.0181417 -0.037666 0.999126 
-0.251141 -0.0626306 0.965922 0.0691658 -0.0198023 0.997409 0.0572526 -0.0713669 0.995806 
-0.139923 -0.0580895 0.988457 -0.36267 -0.0511068 0.930515 0.488112 -0.137859 0.861824 
0.175638 -0.0374657 0.983742 -0.0465153 -0.0487939 0.997725 -0.206264 0.0108221 0.978437 
-0.0832685 0.0612493 0.994643 0.137179 -0.14039 0.980547 0.184722 0.0403113 0.981964 
-0.0809741 -0.175481 0.981147 -0.197655 0.102967 0.974849 0.0233623 0.101334 0.994578 
-0.0195903 0.0024266 0.999805 -0.150497 -0.0406218 0.987776 -0.365267 -0.0586878 0.929051 
0.548611 -0.292578 0.783214 0.214345 -0.177095 0.960569 -0.0221539 -0.0825607 0.99634 
-0.089472 0.00245633 0.995986 -0.0582508 0.116231 0.991513 0.024592 0.0996357 0.99472 
0.0346101 -0.0527734 0.998007 0.0238352 -0.18324 0.982779 0.00531354 0.0460915 0.998923 
-0.0330179 0.076385 0.996532 -0.0801138 0.0423466 0.995886 -0.180784 -0.0528928 0.9821 
-0.459946 -0.151584 0.874913 0.345114 -0.325388 0.880352 0.120924 -0.177642 0.976637 
-0.00829266 -0.0366457 0.999294 0.0166228 0.0400364 0.99906 -0.0470349 0.0438822 0.997929 
-0.0856736 -0.0395643 0.995537 0.00972329 -0.113446 0.993497 0.0708757 -0.0955905 0.992894 
0.00957732 -0.0689928 0.997571 -0.138538 -0.0922828 0.986048 -0.32997 -0.128173 0.935249 
0.27473 -0.361941 0.890799 0.128565 -0.215809 0.967935 0.022772 -0.149961 0.98843 
-0.0560903 -0.160267 0.985479 -0.120713 -0.156502 0.980273 -0.032265 -0.198939 0.979481 
0.0430376 -0.229063 0.97246 -0.0368745 -0.285321 0.957722 -0.135051 -0.297048 0.945264 
-0.340717 -0.357789 0.869424 0.234848 -0.461877 0.855287 0.0702381 -0.40938 0.909656 
-0.0461937 -0.373936 0.926304 -0.119367 -0.369542 0.921515 -0.0436619 -0.378195 0.924696 
-0.00275875 -0.375487 0.926824 -0.0760038 -0.446493 0.891554 0.148962 0.610063 0.778225 
0.0896252 0.658874 0.746895 0.0232277 0.683753 0.729344 -0.109419 0.65333 0.749125 
-0.231909 0.655291 0.718897 0.23541 0.60877 0.757615 0.330673 0.816011 0.474111 
0.181802 0.611173 0.770335 0.209707 0.598902 0.772878 0.24132 0.691124 0.681258 
-0.263835 0.646881 0.715497 -0.391784 0.546404 0.740235 -0.470345 0.763968 0.441733 
0.510974 0.468178 0.720912 0.379602 0.569579 0.729028 0.391268 0.559343 0.730784 
0.410004 0.591467 0.694308 -0.474676 0.438573 0.76311 -0.493901 0.420483 0.761089 
-0.666118 0.581172 0.467468 0.532021 0.447962 0.718529 -0.551322 0.369486 0.748013 
-0.845147 0.506565 0.17064 0.673352 0.349176 0.651669 0.718951 0.309929 0.622136 
0.823494 0.376782 0.424137 -0.597863 0.273373 0.753543 -0.608141 0.263904 0.748678 
-0.669736 0.307315 0.676026 0.733127 0.266402 0.625744 -0.612789 0.210601 0.761668 
0.763429 0.181457 0.619879 -0.60704 0.0823023 0.790398 -0.888852 0.150012 0.432942 
0.785914 0.0537148 0.615998 0.990441 0.0708901 0.118327 -0.563844 -0.0487687 0.82444 
-0.836984 -0.00717747 0.547181 0.76034 -0.125121 0.63736 -0.501017 -0.101288 0.85949 
-0.831161 -0.11406 0.544208 0.647389 -0.307754 0.697262 0.604864 -0.361214 0.709692 
-0.521177 -0.17231 0.835873 -0.504304 -0.195441 0.841118 -0.890845 -0.237844 0.387073 
0.556405 -0.392046 0.732608 0.72573 -0.438108 0.53045 0.462183 -0.489109 0.739703 
-0.489669 -0.2083 0.846661 -0.591938 -0.262099 0.762176 0.436977 -0.492843 0.752434 
0.525122 -0.557573 0.64293 0.362763 -0.521193 0.772503 -0.214211 -0.534896 0.817312 
-0.410624 -0.372427 0.832278 -0.361897 -0.419703 0.832394 -0.74107 -0.491907 0.456993 
0.317369 -0.532138 0.784925 0.448927 -0.663502 0.598523 0.258686 -0.545705 0.797049 
0.0867162 -0.56481 0.820652 -0.0252313 -0.538829 0.842037 -0.110643 -0.467056 0.877278 
-0.0378217 -0.411203 0.910759 -0.0130801 -0.442217 0.896813 -0.151332 -0.511737 0.845709 
-0.0969237 -0.476943 0.873574 -0.243434 -0.596516 0.764793 -0.505076 -0.714775 0.483731 
0.345052 -0.854158 0.389042 0.150168 -0.777727 0.610401 0.00859735 -0.696328 0.717672 
-0.0881324 -0.670881 0.736309 -0.0603522 -0.67173 0.738334 -0.0816022 -0.721485 0.687605 
-0.20629 -0.819561 0.534568 0.373347 0.881068 0.290398 0.256496 0.919856 0.296775 
0.150492 0.94422 0.292919 0.0650965 0.966301 0.24905 0.0208083 0.97883 0.203615 
-0.147418 0.973337 0.175734 -0.322313 0.92647 0.19434 -0.500999 0.85326 0.144731 
0.467409 0.848857 0.246924 0.533244 0.817494 0.21761 -0.583118 0.801473 0.132716 
-0.713386 0.682754 0.157881 0.685788 0.713265 0.144734 0.692696 0.707034 0.142393 
-0.773138 0.616378 0.149454 -0.848315 0.523968 0.0762859 0.833557 0.536895 0.130101 
0.875911 0.466987 0.121255 -0.854789 0.513266 0.0767714 -0.85112 0.520093 -0.0714005 
0.915399 0.381091 0.12967 -0.906572 0.402628 0.126561 0.958483 0.262395 0.111619 
-0.946177 0.293877 0.135592 -0.952484 0.272371 0.136336 0.975806 0.196785 0.0952801 
0.990925 0.074289 0.112025 -0.974797 0.163674 0.151599 0.991084 0.0709149 0.112798 
0.993412 0.0370551 0.108443 0.993131 0.0712556 0.0928098 -0.971498 0.0384208 0.233913 
0.991376 -0.0926692 0.0926616 -0.959784 -0.0879981 0.266592 0.951563 -0.263387 0.158603 
-0.928017 -0.23891 0.285844 -0.916819 -0.290744 0.273698 0.865176 -0.452449 0.216241 
0.785017 -0.574186 0.232506 -0.877849 -0.383646 0.286701 0.74038 -0.624693 0.248185 
0.648104 -0.707423 0.281982 -0.814554 -0.530023 0.235748 -0.769943 -0.594325 0.232304 
0.615485 -0.732291 0.291423 0.52299 -0.787997 0.324872 -0.378185 -0.83672 0.396076 
-0.609975 -0.746265 0.266494 -0.54282 -0.789927 0.285238 0.39478 -0.864678 0.310613 
0.355935 -0.880056 0.314342 0.217336 -0.894094 0.391613 0.079284 -0.878569 0.47099 
-0.059173 -0.843765 0.53344 -0.0845303 -0.802564 0.590547 -0.134319 -0.821067 0.554805 
-0.296401 -0.859989 0.415411 -0.218523 -0.867581 0.44671 0.417706 0.882137 -0.217615 
0.284462 0.935898 -0.20779 0.1493 0.971566 -0.183762 0.0142499 0.978434 -0.206066 
-0.038249 0.967678 -0.249272 -0.157117 0.938936 -0.306125 -0.331029 0.897792 -0.290497 
-0.548561 0.763276 -0.341307 0.502346 0.831248 -0.238068 0.56569 0.778282 -0.272529 
0.398767 0.77673 -0.487521 -0.580959 0.737396 -0.344579 -0.554382 0.719525 -0.418264 
-0.706765 0.596705 -0.380034 0.679056 0.678487 -0.280245 0.702951 0.65242 -0.283209 
0.473193 0.585628 -0.658125 -0.441232 0.449001 -0.77699 -0.733584 0.563497 -0.379902 
-0.68406 0.543715 -0.486246 0.806124 0.51729 -0.287359 0.862928 0.427802 -0.268963 
0.602668 0.470488 -0.644541 -0.76832 0.479848 -0.423592 -0.59645 0.34271 -0.725808 
-0.78893 0.455226 -0.412745 0.885341 0.379603 -0.268465 0.83659 0.381003 -0.393642 
-0.82721 0.384284 -0.409938 -0.724745 0.341124 -0.598648 0.928484 0.264569 -0.260615 
0.758171 0.247379 -0.603308 -0.852368 0.334623 -0.401867 -0.593374 0.24367 -0.767158 
-0.894461 0.266893 -0.358758 0.946515 0.200489 -0.252812 -0.911804 0.220826 -0.346193 
-0.875007 0.223736 -0.429308 0.967876 0.0730679 -0.240576 -0.951902 0.0693845 -0.298442 
-0.860817 0.0871996 -0.501389 0.965123 -0.0822037 -0.248558 -0.960078 -0.0699371 -0.270848 
-0.858685 -0.0735991 -0.507191 0.94458 -0.225281 -0.238784 -0.924349 -0.245112 -0.292403 
-0.913019 -0.287145 -0.289729 -0.891437 -0.247244 -0.379749 0.884473 -0.424012 -0.194734 
0.81698 -0.541102 -0.199379 0.75196 -0.383891 -0.535896 -0.883148 -0.384118 -0.269263 
0.782112 -0.591429 -0.196243 0.684913 -0.711538 -0.156867 -0.771619 -0.563005 -0.296024 
-0.746628 -0.600818 -0.285595 -0.720273 -0.553242 -0.418485 0.667016 -0.729291 -0.152397 
0.557502 -0.81874 -0.137317 -0.46274 -0.877404 -0.126623 -0.691162 -0.681462 -0.240634 
-0.64929 -0.724052 -0.232747 -0.628253 -0.635978 -0.448141 0.470019 -0.875291 -0.113791 
0.408277 -0.906978 -0.103447 0.398401 -0.836573 -0.376062 0.284958 -0.956095 -0.0684131 
0.145189 -0.987729 -0.0575418 0.00301074 -0.999941 0.0104517 -0.0648119 -0.997078 0.0404228 
-0.212271 -0.977171 -0.00879596 -0.456279 -0.881297 -0.122981 -0.354774 -0.933305 -0.0554737 
-0.359729 -0.747438 -0.558508 0.205656 0.660031 -0.72254 0.113956 0.668835 -0.734625 
-0.00250624 0.669965 -0.742388 -0.0788583 0.646229 -0.759058 -0.10615 0.622674 -0.775248 
-0.266429 0.611047 -0.74541 0.219784 0.658028 -0.720205 0.338493 0.600141 -0.724744 
0.202097 0.650198 -0.732393 0.0904367 0.574173 -0.813724 -0.00478445 0.556546 -0.830803 
-0.0689603 0.562845 -0.823681 -0.0978186 0.589433 -0.801873 -0.267107 0.610568 -0.745561 
-0.266397 0.610358 -0.745986 0.420122 0.537555 -0.731117 0.438262 0.535751 -0.721732 
0.280702 0.415924 -0.864993 0.154242 0.33561 -0.929287 0.0494477 0.303159 -0.951656 
0.0217755 0.268112 -0.963142 -0.0473044 0.279287 -0.959042 -0.149617 0.306211 -0.940133 
-0.43644 0.445397 -0.781755 -0.246059 0.32324 -0.913768 -0.439124 0.44367 -0.781235 
0.548161 0.449722 -0.705173 0.568457 0.436901 -0.697118 0.328118 0.362384 -0.872363 
0.1742 0.27301 -0.946108 0.0912056 0.168082 -0.981545 0.000482388 0.124944 -0.992164 
-0.0311725 0.0871448 -0.995708 -0.0236286 0.0520049 -0.998367 -0.0754311 0.139375 -0.987363 
-0.184932 0.191367 -0.963939 -0.526703 0.304332 -0.793704 -0.363318 0.241693 -0.899769 
-0.508436 0.278273 -0.814897 0.643346 0.358389 -0.676508 0.475492 0.33228 -0.814554 
0.246085 0.230743 -0.941382 0.0927435 0.145089 -0.985062 -0.00840126 0.0538086 -0.998516 
-0.0392923 0.0607838 -0.997377 -0.0466554 0.0239278 -0.998624 0.00697471 0.0409267 -0.999138 
-0.0100929 0.0623755 -0.998002 -0.13817 0.0659262 -0.988212 -0.297206 0.101511 -0.949402 
-0.497792 0.251286 -0.830096 -0.428994 0.220018 -0.876103 0.74845 0.246346 -0.615741 
0.751321 0.241152 -0.614298 0.380809 0.192378 -0.90442 0.127609 0.11272 -0.985399 
-0.000352855 -0.0518653 -0.998654 -0.0490796 0.0756108 -0.995929 0.0152253 0.16742 -0.985768 
-0.0481109 -0.0101101 -0.998791 -0.149344 -0.0742818 -0.985991 -0.214892 0.029525 -0.976191 
-0.498511 0.203444 -0.842673 -0.348518 0.148396 -0.92548 -0.519616 0.203233 -0.829877 
0.760831 0.174006 -0.625186 0.688752 0.15636 -0.707935 0.300586 0.0761981 -0.950706 
0.0541817 0.0184301 -0.998361 -0.0669801 -0.0473034 -0.996632 0.0526121 -0.132097 -0.98984 
-0.259458 -0.224063 -0.939403 -0.0964607 -0.109049 -0.989345 -0.0843391 0.0212946 -0.99621 
-0.23601 0.11017 -0.965485 -0.529927 0.192402 -0.825929 -0.48764 0.185244 -0.853166 
0.768031 0.0653096 -0.637074 0.629375 0.0572749 -0.774988 0.254805 0.027723 -0.966595 
-0.150139 0.0120567 -0.988591 -0.0390277 -0.000193033 -0.999238 -0.0499809 -0.124631 -0.990943 
0.0594283 -0.197091 -0.978582 -0.0613744 -0.202465 -0.977364 -0.17959 -0.105209 -0.978099 
0.0883899 0.00737068 -0.996059 0.0021253 0.0245588 -0.999696 -0.184561 0.0547047 -0.981297 
-0.567074 0.0892428 -0.818818 -0.439496 0.0828916 -0.894412 0.774174 -0.0812575 -0.627736 
0.639729 -0.0772312 -0.764711 0.265748 0.00252902 -0.964039 -0.0930591 0.077498 -0.99264 
-0.0724659 0.145008 -0.986773 -0.109981 0.00291691 -0.993929 -0.0193676 0.0723601 -0.997191 
0.0163608 -0.0637241 -0.997833 -0.0473581 0.187011 -0.981216 0.0279661 0.107757 -0.993784 
-0.0371732 0.0262043 -0.998965 -0.172409 -0.0189804 -0.984843 -0.580143 -0.0597871 -0.812318 
-0.437545 -0.0359112 -0.898479 0.734757 -0.186129 -0.652295 0.71961 -0.318742 -0.616899 
0.678767 -0.17976 -0.712012 0.352615 -0.11998 -0.928045 -0.100088 0.12276 -0.987376 
-0.124385 0.0845432 -0.988626 -0.0188737 0.166337 -0.985888 0.06422 0.100509 -0.992861 
-0.0115374 0.168959 -0.985556 -0.0712835 0.11213 -0.991134 -0.123026 -0.000265967 -0.992403 
-0.237967 -0.0854854 -0.967504 -0.572608 -0.129002 -0.809616 -0.506965 -0.111481 -0.854727 
0.703562 -0.36735 -0.608321 0.422055 -0.293614 -0.857706 0.195081 -0.1752 -0.965012 
-0.069596 0.0868564 -0.993787 -0.000669543 0.144834 -0.989456 0.0249712 0.104108 -0.994252 
-0.0335502 0.0919621 -0.995197 -0.152407 0.0180111 -0.988154 -0.231262 -0.0813062 -0.969488 
-0.313094 -0.170498 -0.934293 -0.596026 -0.264374 -0.758195 -0.583792 -0.286211 -0.759783 
-0.56724 -0.259971 -0.781443 0.624915 -0.510497 -0.590655 0.611628 -0.526773 -0.590273 
0.594959 -0.493386 -0.634503 0.310621 -0.323851 -0.893664 0.166393 -0.201627 -0.965225 
-0.227785 -0.144167 -0.96298 -0.326966 -0.182059 -0.927333 -0.498041 -0.399907 -0.769434 
-0.488582 -0.42583 -0.761549 -0.458215 -0.364307 -0.810753 0.511223 -0.633715 -0.580565 
0.500158 -0.643645 -0.579278 0.488193 -0.621679 -0.612522 0.370847 -0.728675 -0.575766 
0.285306 -0.446539 -0.848059 0.134819 -0.356493 -0.92452 0.0400128 -0.260844 -0.964551 
0.011697 -0.220309 -0.97536 -0.00915962 -0.231148 -0.972875 -0.148416 -0.303528 -0.941192 
-0.35612 -0.726882 -0.587215 -0.255946 -0.334274 -0.907057 -0.488433 -0.500406 -0.714862 
-0.463295 -0.553746 -0.691898 -0.430419 -0.445981 -0.784755 0.318572 -0.74967 -0.580092 
0.256874 -0.750418 -0.609006 0.236467 -0.697205 -0.676748 0.160955 -0.785108 -0.59808 
0.142771 -0.61582 -0.774843 0.0504752 -0.817032 -0.574379 0.0358366 -0.590022 -0.806591 
-0.101724 -0.810749 -0.576488 -0.0910764 -0.590361 -0.801984 -0.349174 -0.732266 -0.584692 
-0.238318 -0.749369 -0.617778 -0.199695 -0.64511 -0.737533 -0.00466055 -0.00794444 -0.999958 
-0.0300836 0.0615411 -0.997651 -0.00389528 -0.00774725 -0.999962 -0.00540894 -0.00958437 -0.999939 
-0.00580779 -0.00942062 -0.999939 -0.0054676 -0.00918886 -0.999943 -0.0298937 0.0609399 -0.997694 
-0.0300929 0.0615794 -0.997648 -0.0300472 0.0615408 -0.997652 0.0341569 -0.0927842 -0.9951 
-0.0206241 0.121795 -0.992341 0.0201688 0.0210694 -0.999575 0.0882794 -0.0802655 -0.992857 
0.0515308 -0.0856052 -0.994996 0.0987401 -0.0615372 -0.993209 0.0586789 -0.151229 -0.986756 
0.0587676 -0.143792 -0.987861 -0.186438 -0.110252 -0.976261 -0.0655044 -0.168853 -0.983462 
-0.0709207 0.031126 -0.996996 0.0220718 0.0220256 -0.999514 0.00314715 0.0213426 -0.999767 
0.0116985 0.021842 -0.999693 0.0735569 0.0313063 -0.9968 -0.00633758 0.0497614 -0.998741 
0.0400825 0.0352005 -0.998576 -0.0728707 0.0609771 -0.995476 0.201541 -0.0848379 -0.975799 
0.129929 -0.112686 -0.985099 0.0820519 -0.0578969 -0.994945 -0.0911813 0.109337 -0.989814 
-0.044352 0.036373 -0.998354 -0.0912179 0.112164 -0.989494 0.111318 -0.100711 -0.988669 
0.104709 -0.104627 -0.988984 0.0844053 -0.0749001 -0.993612 -0.0621478 0.0777613 -0.995033 
-0.0241239 0.0336721 -0.999142 -0.0487319 0.0408618 -0.997976 0.00105041 0.0501959 -0.998739 
0.0191682 0.0575233 -0.99816 -0.039793 0.0810539 -0.995915 0.101722 -0.141469 -0.984703 
0.0830169 -0.178485 -0.980434 0.064504 -0.112592 -0.991545 -0.000318813 -0.0928513 -0.99568 
-0.00951668 -0.045982 -0.998897 0.0048491 -0.0770283 -0.997017 0.00218591 -0.00911101 -0.999956 
0.0050601 -0.0910437 -0.995834 0.00819984 -0.0343398 -0.999377 -0.135544 -0.0630932 -0.98876 
-0.122679 -0.144696 -0.981842 -0.105524 -0.0392595 -0.993641 
