# vtk DataFile Version 4.2
vtk output
ASCII
DATASET POLYDATA
POINTS 506 float
-25.0525 -49.1939 -16.461 -15.939 -49.1939 -16.9566 -34.1659 -40.0804 -17.7297 
-25.0525 -40.0804 -20.4029 -15.939 -40.0804 -20.4035 -6.82557 -40.0804 -19.2764 
2.28788 -40.0804 -18.4749 11.4013 -40.0804 -18.2842 20.5148 -40.0804 -15.6273 
-43.2794 -30.967 -16.5418 -34.1659 -30.967 -20.8618 -25.0525 -30.967 -22.7367 
-15.939 -30.967 -21.6057 -6.82557 -30.967 -20.8727 2.28788 -30.967 -20.9798 
11.4013 -30.967 -20.8724 20.5148 -30.967 -19.611 29.6282 -30.967 -16.1661 
-43.2794 -21.8535 -19.7113 -34.1659 -21.8535 -22.388 -25.0525 -21.8535 -22.7471 
-15.939 -21.8535 -21.5544 -6.82557 -21.8535 -21.1873 2.28788 -21.8535 -21.8293 
11.4013 -21.8535 -21.288 20.5148 -21.8535 -19.5709 29.6282 -21.8535 -17.6231 
38.7417 -21.8535 -15.9629 -52.3928 -12.7401 -16.0169 -43.2794 -12.7401 -21.7131 
-34.1659 -12.7401 -23.5229 -25.0525 -12.7401 -22.6308 -15.939 -12.7401 -20.9666 
-6.82557 -12.7401 -23.2369 2.28788 -12.7401 -22.7625 11.4013 -12.7401 -20.6201 
20.5148 -12.7401 -18.9326 29.6282 -12.7401 -18.1492 38.7417 -12.7401 -18.1579 
47.8551 -12.7401 -15.6434 -52.3928 -3.62665 -16.9756 -43.2794 -3.62665 -22.0539 
-34.1659 -3.62665 -23.8656 -25.0525 -3.62665 -22.6938 -15.939 -3.62665 -21.5827 
-6.82557 -3.62665 -22.9536 2.28788 -3.62665 -19.1372 11.4013 -3.62665 -22.3815 
20.5148 -3.62665 -20.5163 29.6282 -3.62665 -19.0631 38.7417 -3.62665 -18.6035 
47.8551 -3.62665 -17.0143 -52.3928 5.4868 -16.4833 -43.2794 5.4868 -21.2955 
-34.1659 5.4868 -23.1163 -25.0525 5.4868 -22.23 -15.939 5.4868 -21.4619 
-6.82557 5.4868 -23.4158 2.28788 5.4868 -22.3159 11.4013 5.4868 -22.7518 
20.5148 5.4868 -20.2165 29.6282 5.4868 -19.4736 38.7417 5.4868 -18.7492 
47.8551 5.4868 -17.1891 -52.3928 14.6003 -16.1976 -43.2794 14.6003 -21.0453 
-34.1659 14.6003 -22.8327 -25.0525 14.6003 -22.7234 -15.939 14.6003 -21.7967 
-6.82557 14.6003 -22.0585 2.28788 14.6003 -23.6976 11.4013 14.6003 -21.5059 
20.5148 14.6003 -20.4208 29.6282 14.6003 -19.5659 38.7417 14.6003 -18.0221 
47.8551 14.6003 -15.7598 -43.2794 23.7137 -20.5181 -34.1659 23.7137 -22.9658 
-25.0525 23.7137 -23.8557 -15.939 23.7137 -22.8007 -6.82557 23.7137 -21.5546 
2.28788 23.7137 -21.6375 11.4013 23.7137 -22.1374 20.5148 23.7137 -22.1344 
29.6282 23.7137 -20.3508 38.7417 23.7137 -17.8107 -43.2794 32.8272 -19.2232 
-34.1659 32.8272 -22.2347 -25.0525 32.8272 -23.1823 -15.939 32.8272 -23.2705 
-6.82557 32.8272 -22.786 2.28788 32.8272 -22.4078 11.4013 32.8272 -22.6324 
20.5148 32.8272 -21.8318 29.6282 32.8272 -19.9051 -34.1659 41.9406 -19.8961 
-25.0525 41.9406 -21.9171 -15.939 41.9406 -22.5269 -6.82557 41.9406 -22.179 
2.28788 41.9406 -21.5868 11.4013 41.9406 -21.5236 20.5148 41.9406 -20.3056 
29.6282 41.9406 -17.5753 -25.0525 51.0541 -16.9935 -15.939 51.0541 -18.9506 
-6.82557 51.0541 -18.7248 2.28788 51.0541 -16.6757 11.4013 51.0541 -15.7442 
-25.0525 -50.4539 -15.4191 -15.939 -51.09 -15.4191 -27.3045 -49.1939 -15.4191 
-34.1659 -43.6251 -15.4191 -34.1659 -49.1939 -8.37448 -6.92751 -49.1939 -15.4191 
-6.82557 -49.1529 -15.4191 -6.82557 -49.1939 -15.3944 2.28788 -45.7566 -15.4191 
2.28788 -49.1939 -12.6332 11.4013 -43.8492 -15.4191 11.4013 -49.1939 -8.37259 
20.5148 -40.3266 -15.4191 -37.1048 -40.0804 -15.4191 -43.2794 -32.6548 -15.4191 
21.0021 -40.0804 -15.4191 29.6282 -32.7389 -15.4191 29.6282 -40.0804 -9.49521 
-44.4245 -30.967 -15.4191 31.9265 -30.967 -15.4191 38.7417 -23.6016 -15.4191 
38.7417 -30.967 -12.6769 47.8551 -30.967 -6.32804 -49.1441 -21.8535 -15.4191 
-52.3928 -14.2957 -15.4191 -52.3928 -21.8535 -9.96952 40.7439 -21.8535 -15.4191 
47.8551 -13.7314 -15.4191 47.8551 -21.8535 -13.4136 56.9686 -21.8535 -6.81949 
-52.9526 -12.7401 -15.4191 48.4261 -12.7401 -15.4191 56.9686 -12.7401 -11.4905 
-53.9811 -3.62665 -15.4191 52.1355 -3.62665 -15.4191 56.9686 -3.62665 -13.4683 
-53.5494 5.4868 -15.4191 52.3276 5.4868 -15.4191 56.9686 5.4868 -13.4343 
-53.3945 14.6003 -15.4191 -52.3928 22.9118 -15.4191 48.5718 14.6003 -15.4191 
47.8551 15.7615 -15.4191 56.9686 14.6003 -10.4348 -52.275 23.7137 -15.4191 
-52.3928 23.7137 -15.2984 43.03 23.7137 -15.4191 38.7417 29.6335 -15.4191 
47.8551 23.7137 -12.1309 -47.6472 32.8272 -15.4191 -52.3928 32.8272 -7.77368 
-43.2794 39.3615 -15.4191 37.0031 32.8272 -15.4191 38.7417 32.8272 -13.3526 
-40.9164 41.9406 -15.4191 -43.2794 41.9406 -11.8518 -34.1659 47.2939 -15.4191 
20.5148 48.9506 -15.4191 31.9197 41.9406 -15.4191 29.6282 44.1718 -15.4191 
-28.2066 51.0541 -15.4191 -34.1659 51.0541 -7.19931 -25.0525 52.5004 -15.4191 
-15.939 54.2941 -15.4191 -6.82557 54.0248 -15.4191 2.28788 52.1502 -15.4191 
12.6943 51.0541 -15.4191 11.4013 51.3174 -15.4191 20.5148 51.0541 -6.68745 
-34.1659 -50.362 -6.30564 -25.0525 -56.5631 -6.30564 -15.939 -57.9373 -6.30564 
-6.82557 -56.4704 -6.30564 2.28788 -53.9805 -6.30564 11.4013 -50.4203 -6.30564 
-35.2594 -49.1939 -6.30564 -34.1659 -49.1939 -2.2079 14.4558 -49.1939 -6.30564 
20.5148 -46.5711 -6.30564 29.6282 -41.9061 -6.30564 -42.0695 -40.0804 -6.30564 
-43.2794 -38.1646 -6.30564 33.0918 -40.0804 -6.30564 38.7417 -36.9306 -6.30564 
47.8551 -30.9829 -6.30564 -48.0922 -30.967 -6.30564 -52.3928 -24.4769 -6.30564 
47.8781 -30.967 -6.30564 56.9686 -22.3449 -6.30564 -53.9388 -21.8535 -6.30564 
57.3766 -21.8535 -6.30564 -57.8218 -12.7401 -6.30564 62.9193 -12.7401 -6.30564 
-59.7698 -3.62665 -6.30564 65.8135 -3.62665 -6.30564 66.082 -3.62665 -5.5829 
-60.1431 5.4868 -6.30564 -61.5063 5.4868 2.35029 66.0186 5.4868 -6.30564 
66.082 5.4868 -6.1445 -59.8575 14.6003 -6.30564 61.2908 14.6003 -6.30564 
56.9686 20.5548 -6.30564 -57.4101 23.7137 -6.30564 54.253 23.7137 -6.30564 
47.8551 29.6509 -6.30564 56.9686 23.7137 1.79558 -53.0888 32.8272 -6.30564 
-52.3928 33.9039 -6.30564 -52.3928 32.8272 -0.876359 44.5109 32.8272 -6.30564 
38.7417 38.1526 -6.30564 -45.8556 41.9406 -6.30564 -43.2794 44.3582 -6.30564 
-43.2794 41.9406 -0.76141 34.5883 41.9406 -6.30564 29.6282 46.1397 -6.30564 
29.6282 41.9406 1.47187 -34.6054 51.0541 -6.30564 -34.1659 51.3452 -6.30564 
-34.1659 51.0541 -5.77332 -25.0525 54.383 -6.30564 -25.0525 51.0541 0.337396 
-15.939 56.1583 -6.30564 -6.82557 55.6024 -6.30564 -6.82557 51.0541 2.0124 
2.28788 54.3508 -6.30564 2.28788 51.0541 -0.448414 11.4013 53.2649 -6.30564 
11.4013 51.0541 -2.55777 20.6746 51.0541 -6.30564 20.5148 51.1209 -6.30564 
20.5148 51.0541 -6.18184 -25.0525 -55.1859 2.80781 -15.939 -57.7595 2.80781 
-6.82557 -57.1491 2.80781 2.28788 -54.8544 2.80781 11.4013 -51.0831 2.80781 
-32.6746 -49.1939 2.80781 -34.1659 -47.5921 2.80781 -25.0525 -49.1939 10.9112 
15.0218 -49.1939 2.80781 11.4013 -49.1939 6.98497 20.5148 -46.0782 2.80781 
29.6282 -41.49 2.80781 -39.8458 -40.0804 2.80781 -43.2794 -35.0592 2.80781 
-34.1659 -40.0804 11.3586 32.8877 -40.0804 2.80781 29.6282 -40.0804 5.97094 
38.7417 -37.531 2.80781 47.8551 -33.3506 2.80781 -46.4641 -30.967 2.80781 
-52.3928 -24.5638 2.80781 -43.2794 -30.967 9.29348 51.4075 -30.967 2.80781 
47.8551 -30.967 8.90572 56.9686 -26.409 2.80781 -54.4608 -21.8535 2.80781 
-52.3928 -21.8535 9.91938 61.0451 -21.8535 2.80781 -59.2399 -12.7401 2.80781 
65.7683 -12.7401 2.80781 66.082 -11.6887 2.80781 -61.0619 -3.62665 2.80781 
-61.5063 4.37474 2.80781 68.307 -3.62665 2.80781 -61.5674 5.4868 2.80781 
-61.5063 6.13817 2.80781 -61.5063 5.4868 3.06006 68.4829 5.4868 2.80781 
66.082 11.9197 2.80781 -60.6694 14.6003 2.80781 64.9883 14.6003 2.80781 
-57.4744 23.7137 2.80781 -52.3928 32.0354 2.80781 47.8551 29.9086 2.80781 
57.2636 23.7137 2.80781 56.9686 23.9987 2.80781 56.9686 23.7137 4.03396 
-51.7179 32.8272 2.80781 -43.2794 40.2776 2.80781 -43.2794 32.8272 11.3286 
29.6282 41.1988 2.80781 42.9295 32.8272 2.80781 38.7417 35.3641 2.80781 
38.7417 32.8272 8.42841 -40.7651 41.9406 2.80781 -34.1659 45.8375 2.80781 
-34.1659 41.9406 7.33937 -25.0525 49.6971 2.80781 -25.0525 41.9406 10.7404 
-15.939 41.9406 11.8581 -6.82557 50.5067 2.80781 -6.82557 41.9406 11.2012 
2.28788 48.7085 2.80781 2.28788 41.9406 9.11248 11.4013 46.9977 2.80781 
11.4013 41.9406 8.05227 28.2522 41.9406 2.80781 20.5148 45.4865 2.80781 
20.5148 41.9406 6.62987 -18.2525 51.0541 2.80781 -11.6026 51.0541 2.80781 
-15.939 51.5152 2.80781 -15.939 51.0541 3.3117 -15.939 -52.1359 11.9213 
-6.82557 -52.2609 11.9213 2.28788 -50.5041 11.9213 -22.8729 -49.1939 11.9213 
-25.0525 -48.0003 11.9213 -15.939 -49.1939 14.3682 -6.82557 -49.1939 14.7141 
5.26933 -49.1939 11.9213 2.28788 -49.1939 13.1662 11.4013 -45.7601 11.9213 
20.5148 -40.7953 11.9213 -33.5459 -40.0804 11.9213 -34.1659 -39.4507 11.9213 
-25.0525 -40.0804 17.1978 -15.939 -40.0804 18.81 -6.82557 -40.0804 19.2482 
2.28788 -40.0804 18.2703 11.4013 -40.0804 16.0031 22.1112 -40.0804 11.9213 
20.5148 -40.0804 12.6119 29.6282 -36.9271 11.9213 38.7417 -33.8673 11.9213 
-41.6045 -30.967 11.9213 -43.2794 -29.3486 11.9213 -34.1659 -30.967 17.5058 
-25.0525 -30.967 20.3707 2.28788 -30.967 20.8779 11.4013 -30.967 20.139 
20.5148 -30.967 19.3852 29.6282 -30.967 17.493 45.2108 -30.967 11.9213 
38.7417 -30.967 14.9918 47.8551 -29.3099 11.9213 56.9686 -21.9047 11.9213 
-51.4294 -21.8535 11.9213 -52.3928 -20.495 11.9213 -43.2794 -21.8535 17.9607 
38.7417 -21.8535 20.581 47.8551 -21.8535 17.259 57.0145 -21.8535 11.9213 
56.9686 -21.8535 11.9698 -56.5433 -12.7401 11.9213 -52.3928 -12.7401 16.1384 
-43.2794 -12.7401 20.9693 61.9792 -12.7401 11.9213 56.9686 -12.7401 16.4021 
66.082 -3.64309 11.9213 -58.6711 -3.62665 11.9213 -52.3928 -3.62665 18.2159 
56.9686 -3.62665 20.4019 66.0874 -3.62665 11.9213 66.082 -3.62665 11.9294 
-58.7848 5.4868 11.9213 -52.3928 5.4868 17.8775 66.5801 5.4868 11.9213 
66.082 6.97086 11.9213 66.082 5.4868 12.665 -56.5628 14.6003 11.9213 
-52.3928 14.6003 15.8022 -43.2794 14.6003 20.0903 -6.82557 14.6003 19.9711 
63.1452 14.6003 11.9213 56.9686 21.8326 11.9213 56.9686 14.6003 19.0438 
-52.4434 23.7137 11.9213 -52.3928 23.7818 11.9213 -52.3928 23.7137 11.9684 
-43.2794 32.1599 11.9213 -43.2794 23.7137 17.1585 -34.1659 23.7137 19.5784 
[...]
POINT_DATA 506
SCALARS ImageScalars float
LOOKUP_TABLE default
0 0 0 0 0 0 0 0 0 
0 0 0 0 0 0 0 0 0 
0 0 0 0 0 0 0 0 0 
0 0 0 0 0 0 0 0 0 
0 0 0 0 0 0 0 0 0 
0 0 0 0 0 0 0 0 0 
0 0 0 0 0 0 0 0 0 
0 0 0 0 0 0 0 0 0 
0 0 0 0 0 0 0 0 0 
0 0 0 0 0 0 0 0 0 
0 0 0 0 0 0 0 0 0 
0 0 0 0 0 0 0 0 0 
0 0 0 0 0 0 0 0 0 
0 0 0 0 0 0 0 0 0 
0 0 0 0 0 0 0 0 0 
0 0 0 0 0 0 0 0 0 
0 0 0 0 0 0 0 0 0 
0 0 0 0 0 0 0 0 0 
0 0 0 0 0 0 0 0 0 
0 0 0 0 0 0 0 0 0 
0 0 0 0 0 0 0 0 0 
0 0 0 0 0 0 0 0 0 
0 0 0 0 0 0 0 0 0 
0 0 0 0 0 0 0 0 0 
0 0 0 0 0 0 0 0 0 
0 0 0 0 0 0 0 0 0 
0 0 0 0 0 0 0 0 0 
0 0 0 0 0 0 0 0 0 
0 0 0 0 0 0 0 0 0 
0 0 0 0 0 0 0 0 0 
0 0 0 0 0 0 0 0 0 
0 0 0 0 0 0 0 0 0 
0 0 0 0 0 0 0 0 0 
0 0 0 0 0 0 0 0 0 
0 0 0 0 0 0 0 0 0 
0 0 0 0 0 0 0 0 0 
0 0 0 0 0 0 0 0 0 
0 0 0 0 0 0 0 0 0 
0 0 0 0 0 0 0 0 0 
0 0 0 0 0 0 0 0 0 
0 0 0 0 0 0 0 0 0 
0 0 0 0 0 0 0 0 0 
0 0 0 0 0 0 0 0 0 
0 0 0 0 0 0 0 0 0 
0 0 0 0 0 0 0 0 0 
0 0 0 0 0 0 0 0 0 
0 0 0 0 0 0 0 0 0 
0 0 0 0 0 0 0 0 0 
0 0 0 0 0 0 0 0 0 
0 0 0 0 0 0 0 0 0 
0 0 0 0 0 0 0 0 0 
0 0 0 0 0 0 0 0 0 
0 0 0 0 0 0 0 0 0 
0 0 0 0 0 0 0 0 0 
0 0 0 0 0 0 0 0 0 
0 0 0 0 0 0 0 0 0 
0 0 
NORMALS Normals float
0.229711 0.592943 0.771785 -0.048572 0.549269 0.834233 0.477347 0.453973 0.752362 
0.111656 0.305526 0.945615 -0.0597 0.2503 0.966326 -0.102021 0.273952 0.956317 
-0.0520594 0.378295 0.92422 -0.127405 0.475842 0.870254 -0.330272 0.576454 0.747409 
0.650001 0.43476 0.623284 0.288843 0.229014 0.929582 0.0412856 0.130453 0.990595 
-0.0985489 0.0598978 0.993328 -0.0346524 0.100913 0.994292 0.000103214 0.171332 0.985213 
-0.0690905 0.156489 0.98526 -0.246651 0.171567 0.953797 -0.328973 0.273026 0.904009 
0.460239 0.249931 0.851889 0.146689 0.141264 0.979044 -0.0451058 -0.00586634 0.998965 
-0.08463 -0.0333742 0.995853 0.0148856 0.116786 0.993046 0.00518884 0.0943124 0.995529 
-0.12067 -0.0141479 0.992592 -0.198288 -0.0367924 0.979453 -0.190312 0.105317 0.976058 
-0.207121 0.270263 0.940244 0.719982 0.195624 0.665851 0.345108 0.121819 0.930624 
0.0411871 0.0850023 0.995529 -0.134649 -0.00287912 0.990889 0.0191557 0.00147498 0.999815 
0.100191 0.103886 0.98953 -0.144777 -0.120722 0.982072 -0.202257 0.052607 0.977919 
-0.13434 0.045286 0.9899 -0.0412624 0.076224 0.996237 -0.127738 0.130212 0.983223 
-0.325217 0.173776 0.929535 0.660769 0.0168415 0.7504 0.336205 -0.0222392 0.941526 
0.0258133 -0.0226842 0.999409 -0.122679 -0.0218304 0.992206 0.00979462 0.0259653 0.999615 
-0.108624 0.0119066 0.994012 -0.0354626 -0.0628036 0.997396 0.0585193 0.120796 0.990951 
-0.185325 0.073996 0.979887 -0.097965 0.0723569 0.992556 -0.109447 0.0342152 0.993404 
-0.252703 0.0789901 0.964314 0.635243 -0.0361138 0.771468 0.330582 -0.0529455 0.942291 
0.0431382 -0.0558212 0.997508 -0.091128 0.00168551 0.995838 0.0623719 0.0117214 0.997984 
0.0631896 -0.0484705 0.996824 -0.0412356 0.248896 0.967652 -0.120687 -0.0484434 0.991508 
-0.179999 -0.00402432 0.983659 -0.0792497 0.0274241 0.996477 -0.120448 -0.0304131 0.992254 
-0.263824 -0.0644587 0.962415 0.622805 -0.0544957 0.780477 0.319138 -0.0399491 0.946866 
0.093221 -0.00791694 0.995614 -0.0562727 0.0883404 0.9945 -0.0374862 0.0738157 0.996567 
0.103474 -0.106598 0.988903 -0.0332999 -0.0572284 0.997806 -0.173051 -0.0338974 0.984329 
-0.103998 0.102805 0.98925 -0.127178 0.0455307 0.990834 -0.200508 -0.048804 0.978476 
-0.345313 -0.213227 0.913944 0.376119 -0.0846038 0.922701 0.172464 -0.0294634 0.984575 
-0.00746806 0.025497 0.999647 -0.125498 0.0803376 0.988836 -0.0648289 0.0416976 0.997025 
0.0302409 -0.0622285 0.997604 0.0280117 0.0620162 0.997682 -0.0936132 0.0779665 0.992551 
-0.21249 0.0188716 0.976981 -0.38716 -0.164828 0.90716 0.488392 -0.307138 0.816786 
0.189232 -0.143844 0.971339 0.0527668 -0.107311 0.992824 -0.0216738 -0.0102496 0.999713 
-0.0472917 0.0390863 0.998116 -0.008526 0.00170233 0.999962 -0.0313886 -0.0299237 0.999059 
-0.149624 -0.100117 0.983661 -0.348875 -0.131139 0.927949 0.394691 -0.456328 0.797486 
0.115348 -0.290021 0.950043 0.0197408 -0.226224 0.973875 -0.05217 -0.216203 0.974954 
-0.0353705 -0.268994 0.962492 -0.0781583 -0.331806 0.940104 -0.196567 -0.38747 0.900682 
-0.556939 -0.538372 0.632435 0.30722 -0.751355 0.584022 0.0891287 -0.662992 0.743302 
-0.103613 -0.669466 0.735581 -0.156594 -0.767186 0.622016 -0.14429 -0.826435 0.54423 
0.230654 0.640405 0.732584 -0.0408977 0.618115 0.785023 0.309219 0.614674 0.725644 
0.520327 0.526133 0.67264 0.676221 0.702836 0.220789 -0.18397 0.55388 0.812017 
-0.185217 0.552594 0.81261 -0.185722 0.554504 0.811192 -0.154713 0.524543 0.837209 
-0.244457 0.69373 0.67748 -0.185664 0.60756 0.772269 -0.313337 0.867023 0.387417 
-0.332483 0.585581 0.73929 0.579085 0.494051 0.648517 0.676534 0.458215 0.57649 
-0.338245 0.580846 0.740411 -0.353155 0.343816 0.870099 -0.470395 0.782266 0.408397 
0.688856 0.446343 0.571188 -0.32002 0.320336 0.891612 -0.227149 0.30423 0.92512 
-0.359997 0.529019 0.768467 -0.545984 0.744294 0.384614 0.699979 0.340326 0.62786 
0.739197 0.229799 0.633072 0.832227 0.425555 0.355388 -0.226397 0.276257 0.934038 
-0.323471 0.186599 0.927657 -0.345921 0.343932 0.872954 -0.707502 0.526481 0.471444 
0.741904 0.201128 0.63963 -0.336145 0.173817 0.925632 -0.557199 0.238548 0.795377 
0.719541 0.027376 0.69391 -0.34934 0.0796796 0.933602 -0.490071 0.0888078 0.867147 
0.675519 -0.0250329 0.736918 -0.366114 -0.0888903 0.926315 -0.498734 -0.129083 0.857089 
0.654598 -0.0580544 0.753745 0.689633 -0.201774 0.695481 -0.36231 -0.219063 0.905949 
-0.365408 -0.235233 0.900634 -0.598667 -0.364503 0.713257 0.69093 -0.214449 0.690382 
0.697638 -0.216891 0.682832 -0.444065 -0.290451 0.847611 -0.570697 -0.350068 0.742804 
-0.558302 -0.468054 0.685 0.671041 -0.379072 0.637188 0.837185 -0.502828 0.21514 
0.5893 -0.523556 0.615317 -0.614862 -0.37688 0.692753 -0.671382 -0.4967 0.550032 
0.567954 -0.57447 0.589418 0.643893 -0.674789 0.360639 0.486476 -0.665192 0.566446 
-0.308646 -0.785619 0.536228 -0.635801 -0.575797 0.514018 -0.57959 -0.646713 0.49582 
0.3721 -0.77143 0.516176 0.481063 -0.875539 -0.0448381 0.303426 -0.815745 0.492436 
0.0815485 -0.858615 0.506094 -0.112913 -0.842603 0.526565 -0.164462 -0.820531 0.547431 
-0.169654 -0.835795 0.522172 -0.145081 -0.838815 0.524729 -0.330745 -0.930817 -0.155525 
0.68496 0.721478 0.101483 0.335598 0.920932 0.198136 -0.00332702 0.957792 0.287443 
-0.193688 0.93104 0.309272 -0.30663 0.894799 0.32452 -0.338866 0.895009 0.290048 
0.707973 0.700065 0.0931861 0.717018 0.689984 -0.0990273 -0.358684 0.895554 0.263303 
-0.421485 0.881698 0.212037 -0.465874 0.856686 0.221473 0.82843 0.556298 0.0650868 
0.832992 0.550344 0.0569643 -0.457064 0.85139 0.257346 -0.462535 0.81686 0.344675 
-0.546067 0.744813 0.383491 0.839719 0.536052 0.0867203 0.858027 0.479963 0.182825 
-0.546376 0.744515 0.383628 -0.7115 0.543163 0.445805 0.864346 0.455204 0.213764 
-0.71852 0.532364 0.44757 0.914884 0.293363 0.277355 -0.784237 0.324718 0.528707 
0.936849 0.114479 0.330468 -0.853941 0.124093 0.505357 -0.878181 0.127178 0.461111 
0.929902 0.00467243 0.367778 0.999232 -0.0182075 -0.0347046 -0.841168 -0.182539 0.509035 
-0.846673 -0.182766 0.499741 0.94348 -0.150193 0.295446 -0.721375 -0.43433 0.539421 
-0.669867 -0.571372 0.474144 0.917797 -0.321707 0.232709 -0.668843 -0.627323 0.398892 
-0.648165 -0.705036 0.28776 -0.64044 -0.765758 0.0587417 0.845656 -0.512009 0.15071 
0.834871 -0.533907 0.133917 0.792398 -0.599004 -0.115322 -0.651533 -0.731249 0.201941 
-0.707505 -0.703703 0.0651105 0.693388 -0.720537 -0.00630952 0.649802 -0.760087 -0.00509027 
0.615304 -0.732857 -0.290382 -0.671259 -0.738265 -0.0661524 -0.571576 -0.814175 -0.102076 
-0.498144 -0.725529 -0.474827 0.480682 -0.870908 -0.102297 0.471067 -0.875776 -0.105413 
0.467984 -0.873292 -0.135471 0.25821 -0.959954 -0.108699 0.264365 -0.846891 -0.461397 
0.0593019 -0.992248 -0.109208 -0.097713 -0.985254 -0.140453 -0.116675 -0.808869 -0.576297 
-0.133898 -0.981614 -0.136034 -0.149093 -0.862383 -0.483804 -0.171046 -0.969799 -0.173874 
-0.169269 -0.904871 -0.390585 -0.332144 -0.926152 -0.17867 -0.327967 -0.927384 -0.17999 
-0.32696 -0.926642 -0.185557 0.402335 0.854584 -0.328348 0.0937092 0.968038 -0.232641 
-0.143153 0.975461 -0.167283 -0.325589 0.933426 -0.150688 -0.42266 0.890834 -0.166654 
0.674776 0.651785 -0.346198 0.706849 0.617057 -0.345839 0.418984 0.627751 -0.656035 
-0.442767 0.876864 -0.187263 -0.417145 0.829701 -0.370926 -0.457601 0.860182 -0.225138 
-0.403458 0.890798 -0.209048 0.774054 0.543299 -0.325065 0.773057 0.570838 -0.276634 
0.589129 0.520824 -0.617794 -0.394947 0.899281 -0.187913 -0.375103 0.86958 -0.321137 
-0.393553 0.908583 -0.139975 -0.487165 0.870965 -0.0639571 0.753004 0.613759 -0.237245 
0.796917 0.58968 -0.131151 0.670368 0.612233 -0.419257 -0.559575 0.826328 -0.0636955 
-0.493849 0.78637 -0.371128 -0.711907 0.700818 -0.0451954 0.825193 0.556424 -0.0972037 
0.732311 0.560857 -0.386212 -0.807227 0.589227 -0.034599 0.935616 0.3506 -0.0412501 
-0.940439 0.338452 -0.0320227 -0.949654 0.312166 -0.0266416 0.992703 0.11106 -0.0469665 
0.998569 -0.00405812 -0.0533227 -0.990488 0.137167 0.0109031 0.998351 -0.0192734 -0.0540817 
0.997719 -0.031926 -0.0594778 0.997677 -0.0209428 -0.0648285 -0.985543 -0.166667 0.0304637 
-0.924091 -0.379237 0.0472838 0.969606 -0.205474 -0.132836 -0.87899 -0.47294 0.0608575 
0.88107 -0.43108 -0.194643 0.733193 -0.614808 -0.290585 -0.504628 -0.856368 -0.109475 
-0.635385 -0.771963 0.0189239 -0.629142 -0.777092 0.0175641 -0.632372 -0.7741 -0.0295803 
0.712451 -0.632165 -0.304599 0.560271 -0.690997 -0.45675 0.40394 -0.607358 -0.684068 
-0.467109 -0.710947 -0.525703 -0.471576 -0.853693 -0.220961 -0.480174 -0.823676 -0.301646 
-0.357985 -0.840581 -0.406534 0.515041 -0.709401 -0.481128 0.371862 -0.751547 -0.544882 
0.343022 -0.696955 -0.629753 0.253806 -0.769562 -0.585967 0.173399 -0.605384 -0.776816 
0.0194407 -0.580386 -0.81411 -0.118247 -0.779404 -0.615262 -0.116144 -0.583234 -0.803958 
-0.149966 -0.736949 -0.659103 -0.127054 -0.628768 -0.767143 -0.132971 -0.74269 -0.6563 
-0.10197 -0.67955 -0.726508 -0.438165 -0.714228 -0.545793 -0.217298 -0.77085 -0.598809 
-0.213283 -0.693706 -0.687955 0.0940027 -0.790901 -0.604681 -0.0354584 -0.789711 -0.612453 
0.0364976 -0.791989 -0.609443 0.037657 -0.783058 -0.620807 0.152679 0.685922 -0.711477 
-0.073351 0.734618 -0.674504 -0.258284 0.722796 -0.64098 0.349843 0.614225 -0.707346 
0.404368 0.592577 -0.696663 0.150663 0.583732 -0.797846 -0.0555973 0.623772 -0.779627 
-0.299303 0.708767 -0.638802 -0.246919 0.676578 -0.693738 -0.358511 0.668523 -0.651573 
-0.336568 0.703784 -0.625628 0.567799 0.515362 -0.641878 0.573566 0.517312 -0.635146 
0.316003 0.409511 -0.855829 0.0970883 0.335381 -0.937066 -0.0264131 0.308163 -0.950967 
-0.160751 0.368795 -0.915505 -0.259682 0.512054 -0.818759 -0.325933 0.715754 -0.617628 
-0.320406 0.688386 -0.650742 -0.285036 0.757476 -0.587354 -0.315816 0.770182 -0.554147 
0.610636 0.597812 -0.519369 0.617962 0.60483 -0.502299 0.383071 0.4551 -0.803828 
0.165465 0.252398 -0.953371 -0.0610641 0.21968 -0.973659 -0.0736215 0.342475 -0.936638 
-0.123472 0.453791 -0.882513 -0.200975 0.57283 -0.794654 -0.42763 0.722548 -0.543191 
-0.286928 0.6735 -0.681227 -0.467152 0.684639 -0.559499 -0.63835 0.546613 -0.541963 
0.68511 0.553118 -0.47401 0.707768 0.524378 -0.473384 0.44561 0.420988 -0.790064 
-0.220946 0.40679 -0.8864 -0.375703 0.464741 -0.801787 -0.639376 0.545432 -0.541943 
-0.637909 0.545212 -0.54389 0.805013 0.340401 -0.485882 0.653724 0.303428 -0.693236 
0.273776 0.172833 -0.946137 -0.729416 0.387927 -0.56344 -0.567086 0.36229 -0.739703 
-0.878395 0.183112 -0.441467 0.867194 0.0969385 -0.488444 0.56492 0.0726002 -0.821946 
-0.501034 0.213542 -0.838668 -0.87854 0.182743 -0.441329 -0.878364 0.182778 -0.441666 
0.84252 -0.0912601 -0.530878 0.545677 -0.114055 -0.830198 -0.891887 -0.135187 -0.431581 
-0.886873 -0.185265 -0.42324 -0.876927 -0.133206 -0.461795 0.747809 -0.270107 -0.606485 
0.585429 -0.266766 -0.765578 0.281574 -0.213257 -0.935541 0.0923905 -0.174824 -0.980255 
-0.804922 -0.446821 -0.390451 -0.627835 -0.685655 -0.368376 -0.579735 -0.379068 -0.721259 
0.626679 -0.445803 -0.639166 0.625441 -0.446841 -0.639654 0.624953 -0.445647 -0.640962 
0.391832 -0.590516 -0.70552 0.337798 -0.407755 -0.848309 0.14613 -0.356336 -0.92286 
-0.00719552 -0.308277 -0.95127 -0.0607679 -0.24739 -0.967009 0.0397384 -0.189816 -0.981015 
0.125565 -0.396685 -0.909326 -0.0237124 -0.446708 -0.894366 -0.0257451 -0.552084 -0.833391 
-0.269907 -0.81736 -0.508993 -0.122575 -0.631685 -0.765473 -0.555919 -0.753333 -0.351346 
-0.38132 -0.83922 -0.387691 -0.318154 -0.712305 -0.62562 0.372702 -0.594025 -0.712901 
0.260314 -0.587788 -0.765991 0.213934 -0.522783 -0.825185 0.157941 -0.57169 -0.805124 
0.0988064 -0.452164 -0.886445 0.0194002 -0.578053 -0.815769 0.00143855 -0.38169 -0.924289 
-0.112047 -0.557814 -0.822368 -0.0652453 -0.381699 -0.921981 -0.104956 -0.577373 -0.809706 
-0.0448977 -0.517559 -0.854469 -0.0835367 -0.628785 -0.773079 -0.047765 -0.588612 -0.807003 
-0.142921 -0.629031 -0.764129 -0.115663 -0.614951 -0.780037 -0.212287 -0.751518 -0.624624 
-0.189333 -0.71779 -0.670023 -0.175088 -0.714252 -0.677634 0.0499456 0.204715 -0.977547 
-0.0165823 0.181743 -0.983206 0.211196 0.251836 -0.944444 0.0689861 0.206536 -0.976004 
0.125145 0.208034 -0.970083 0.0477705 0.196334 -0.979373 -0.0448178 0.200207 -0.978728 
-0.016469 0.164552 -0.986231 -0.0526162 0.228512 -0.972118 -0.0446843 0.334565 -0.941313 
-0.084183 0.366764 -0.926498 -0.132608 0.369433 -0.919747 0.227249 0.244533 -0.942635 
0.192518 0.22192 -0.95587 0.0561471 0.121561 -0.990995 -0.000610409 0.0580219 -0.998315 
0.0117807 0.178908 -0.983795 0.0399401 0.332087 -0.942403 0.00533698 0.324525 -0.945862 
-0.0544584 0.285589 -0.956804 -0.187626 0.379957 -0.905775 -0.115206 0.318182 -0.941004 
-0.210125 0.385271 -0.898562 -0.336318 0.337234 -0.879297 0.265137 0.168204 -0.949426 
0.270613 0.162486 -0.948877 0.0845488 0.0811265 -0.993111 -0.0111581 -0.0152123 -0.999822 
0.103303 -0.0156594 -0.994527 0.254477 0.100312 -0.961862 0.0919129 0.158695 -0.98304 
-0.108306 0.218444 -0.969821 -0.114198 0.150585 -0.981979 -0.0642625 0.201046 -0.977472 
-0.148025 0.25431 -0.955727 -0.343387 0.332712 -0.878287 -0.334698 0.332038 -0.881889 
0.306812 0.0353658 -0.951113 0.231764 0.029942 -0.972311 0.00593762 0.0178452 -0.999823 
-0.0409842 0.019254 -0.998974 0.110928 0.0533596 -0.992395 0.19197 -0.127339 -0.973104 
0.173282 -0.129524 -0.976318 -0.0137024 0.0114688 -0.99984 -0.0720518 0.0425022 -0.996495 
0.00125178 0.10855 -0.99409 -0.0772152 0.18598 -0.979515 -0.459551 0.216012 -0.861483 
-0.25615 0.23915 -0.936587 -0.530349 0.0450549 -0.846581 0.284033 -0.0994798 -0.95364 
0.25757 -0.13731 -0.956454 0.245707 -0.0981784 -0.964359 0.0738233 -0.0591425 -0.995516 
0.023578 0.0152911 -0.999605 -0.0367676 -0.0273468 -0.99895 0.0730857 -0.1996 -0.977148 
0.0545335 -0.227284 -0.9723 0.252789 -0.114189 -0.960759 0.0532213 -0.11961 -0.991393 
-0.0215462 -0.0878364 -0.995902 0.0689792 -0.0447959 -0.996612 -0.0108976 -0.0408859 -0.999104 
-0.281451 -0.0295962 -0.959119 -0.55667 -0.0514826 -0.829137 -0.549392 -0.100453 -0.829505 
-0.544652 -0.0489413 -0.837233 0.190319 -0.185826 -0.963975 0.127481 -0.231463 -0.964455 
0.117597 -0.161307 -0.979873 -0.0111878 -0.243892 -0.969738 -0.00909566 -0.152372 -0.988281 
-0.0451466 -0.195739 -0.979616 -0.110647 -0.218613 -0.969518 -0.130843 -0.20477 -0.970026 
0.152634 -0.18631 -0.970563 0.158955 -0.363854 -0.917793 0.284804 -0.213586 -0.934488 
0.0120053 -0.27573 -0.96116 -0.0185477 -0.424316 -0.905324 0.00190625 -0.266526 -0.963826 
-0.0223348 -0.542928 -0.839482 0.0495599 -0.26906 -0.961847 -0.108259 -0.56549 -0.817619 
-0.0590658 -0.319606 -0.945708 -0.45581 -0.354918 -0.816254 -0.280387 -0.525526 -0.803247 
-0.266602 -0.359057 -0.894428 0.0479145 -0.438533 -0.897437 -0.00243614 -0.450562 -0.892742 
0.00875985 -0.462419 -0.886618 0.0105186 -0.454357 -0.890758 
