# vtk DataFile Version 4.2
vtk output
ASCII
DATASET POLYDATA
POINTS 556 float
2.89064 7.61823 -21.1581 -38.2531 -41.7542 -13.8346 -30.0243 -41.7542 -13.1488 
-21.7956 -41.7542 -13.1325 -13.5668 -41.7542 -12.9638 -46.4818 -33.5255 -13.0558 
-38.2531 -33.5255 -15.8575 -30.0243 -33.5255 -16.3653 -21.7956 -33.5255 -16.8685 
-13.5668 -33.5255 -15.6979 -5.3381 -33.5255 -15.4298 2.89064 -33.5255 -14.3509 
27.5768 -33.5255 -12.9912 35.8056 -33.5255 -13.1277 -46.4818 -25.2967 -15.2288 
-38.2531 -25.2967 -16.7297 -30.0243 -25.2967 -17.433 -21.7956 -25.2967 -17.4889 
-13.5668 -25.2967 -16.6454 -5.3381 -25.2967 -16.7746 2.89064 -25.2967 -16.1419 
11.1194 -25.2967 -14.816 19.3481 -25.2967 -14.9296 27.5768 -25.2967 -16.3375 
35.8056 -25.2967 -16.6533 44.0343 -25.2967 -16.4889 52.2631 -25.2967 -13.9291 
-54.7105 -17.068 -12.9533 -46.4818 -17.068 -15.4334 -38.2531 -17.068 -17.7824 
-30.0243 -17.068 -17.6927 -21.7956 -17.068 -17.139 -13.5668 -17.068 -16.1367 
-5.3381 -17.068 -16.9415 2.89064 -17.068 -17.6339 11.1194 -17.068 -15.7493 
19.3481 -17.068 -16.5035 27.5768 -17.068 -17.823 35.8056 -17.068 -17.9595 
44.0343 -17.068 -17.9558 52.2631 -17.068 -18.2084 -46.4818 -8.83925 -15.3589 
-38.2531 -8.83925 -17.1261 -30.0243 -8.83925 -17.4305 -21.7956 -8.83925 -17.1231 
-13.5668 -8.83925 -17.5465 -5.3381 -8.83925 -19.1837 2.89064 -8.83925 -19.2535 
11.1194 -8.83925 -18.4517 19.3481 -8.83925 -17.0169 27.5768 -8.83925 -17.9287 
35.8056 -8.83925 -18.6887 44.0343 -8.83925 -19.1039 52.2631 -8.83925 -17.4301 
60.4918 -8.83925 -14.7322 -46.4818 -0.61051 -15.5242 -38.2531 -0.61051 -17.4712 
-30.0243 -0.61051 -18.0958 -21.7956 -0.61051 -18.2256 -13.5668 -0.61051 -19.9219 
-5.3381 -0.61051 -18.0912 2.89064 7.15955 -20.9638 2.89064 -0.61051 -16.4509 
11.1194 -0.61051 -19.6702 19.3481 -0.61051 -17.1303 27.5768 -0.61051 -18.3664 
35.8056 -0.61051 -19.2942 44.0343 -0.61051 -19.0283 52.2631 -0.61051 -17.8546 
60.4918 -0.61051 -15.0231 -46.4818 7.61823 -15.467 -38.2531 7.61823 -17.7315 
-30.0243 7.61823 -18.2784 -21.7956 7.61823 -18.1921 -13.5668 7.61823 -17.5174 
2.23972 7.61823 -20.9638 -5.3381 7.61823 -18.6456 3.55935 7.61823 -20.9638 
2.89064 8.0113 -20.9638 11.1194 7.61823 -18.2247 19.3481 7.61823 -17.2906 
27.5768 7.61823 -18.8246 35.8056 7.61823 -19.608 44.0343 7.61823 -19.4647 
52.2631 7.61823 -17.9956 60.4918 7.61823 -15.3226 -46.4818 15.847 -14.9311 
-38.2531 15.847 -17.2293 -30.0243 15.847 -18.2285 -21.7956 15.847 -18.3659 
-13.5668 15.847 -17.9423 -5.3381 15.847 -17.4649 2.89064 15.847 -17.1585 
11.1194 15.847 -17.1802 19.3481 15.847 -17.8754 27.5768 15.847 -18.9342 
35.8056 15.847 -19.4609 44.0343 15.847 -19.3355 52.2631 15.847 -17.0123 
60.4918 15.847 -13.1363 -38.2531 24.0757 -15.67 -30.0243 24.0757 -17.7011 
-21.7956 24.0757 -19.0852 -13.5668 24.0757 -19.0577 -5.3381 24.0757 -18.3815 
2.89064 24.0757 -17.9201 11.1194 24.0757 -18.3744 19.3481 24.0757 -18.9765 
27.5768 24.0757 -19.5275 35.8056 24.0757 -18.6834 44.0343 24.0757 -17.5711 
52.2631 24.0757 -13.6476 -38.2531 32.3044 -13.7525 -30.0243 32.3044 -17.5325 
-21.7956 32.3044 -18.9961 -13.5668 32.3044 -19.5614 -5.3381 32.3044 -19.0325 
2.89064 32.3044 -18.7086 11.1194 32.3044 -19.1443 19.3481 32.3044 -19.4933 
27.5768 32.3044 -18.414 35.8056 32.3044 -17.2244 44.0343 32.3044 -12.991 
-30.0243 40.5332 -14.8226 -21.7956 40.5332 -17.8531 -13.5668 40.5332 -18.1831 
-5.3381 40.5332 -18.0937 2.89064 40.5332 -18.2413 11.1194 40.5332 -18.3456 
19.3481 40.5332 -18.2323 27.5768 40.5332 -16.0357 -21.7956 48.7619 -13.0805 
-13.5668 48.7619 -14.4996 -5.3381 48.7619 -14.7199 2.89064 48.7619 -14.8967 
11.1194 48.7619 -13.8815 -38.2531 -43.0184 -12.7351 -30.0243 -42.3569 -12.7351 
-21.7956 -42.3658 -12.7351 -13.5668 -42.0792 -12.7351 -40.8612 -41.7542 -12.7351 
-46.4818 -34.3343 -12.7351 -46.4818 -41.7542 -8.85022 -10.7543 -41.7542 -12.7351 
-5.3381 -40.6368 -12.7351 -5.3381 -41.7542 -12.1729 2.89064 -37.0264 -12.7351 
2.89064 -41.7542 -9.89966 11.1194 -41.7542 -7.33553 19.3481 -41.7542 -6.44604 
27.5768 -34.0422 -12.7351 27.5768 -41.7542 -7.08751 35.8056 -34.1656 -12.7351 
35.8056 -41.7542 -6.37334 -47.052 -33.5255 -12.7351 -54.7105 -33.5255 -7.57023 
10.9845 -33.5255 -12.7351 11.1194 -33.4261 -12.7351 11.1194 -33.5255 -12.7073 
24.305 -33.5255 -12.7351 19.3481 -32.2833 -12.7351 19.3481 -33.5255 -12.3458 
38.1064 -33.5255 -12.7351 44.0343 -32.2291 -12.7351 44.0343 -33.5255 -11.7639 
52.2631 -28.3731 -12.7351 52.2631 -33.5255 -9.87243 -53.5317 -25.2967 -12.7351 
-54.7105 -20.3398 -12.7351 -54.7105 -25.2967 -12.1284 55.4282 -25.2967 -12.7351 
60.4918 -25.2967 -10.2186 -54.9914 -17.068 -12.7351 -54.7105 -15.775 -12.7351 
60.4775 -17.068 -12.7351 60.4918 -17.0308 -12.7351 60.4918 -17.068 -12.7257 
68.7205 -17.068 -4.87174 -51.9679 -8.83925 -12.7351 -54.7105 -8.83925 -11.158 
64.0013 -8.83925 -12.7351 68.7205 -8.83925 -8.5809 -52.3919 -0.61051 -12.7351 
-54.7105 -0.61051 -11.4064 64.0847 -0.61051 -12.7351 68.7205 -0.61051 -8.00713 
-52.0665 7.61823 -12.7351 -54.7105 7.61823 -11.1378 63.7531 7.61823 -12.7351 
68.7205 7.61823 -5.37783 -51.5965 15.847 -12.7351 -54.7105 15.847 -10.4339 
-46.4818 22.5765 -12.7351 60.9531 15.847 -12.7351 60.4918 16.6064 -12.7351 
-54.7105 24.0757 -6.01075 -45.2243 24.0757 -12.7351 -46.4818 24.0757 -12.1223 
53.5455 24.0757 -12.7351 52.2631 25.4444 -12.7351 -40.5895 32.3044 -12.7351 
-46.4818 32.3044 -9.30209 -38.2531 35.1028 -12.7351 35.8056 38.7495 -12.7351 
44.416 32.3044 -12.7351 44.0343 32.5979 -12.7351 -34.2655 40.5332 -12.7351 
-38.2531 40.5332 -10.0013 -30.0243 45.4419 -12.7351 19.3481 48.0077 -12.7351 
33.3842 40.5332 -12.7351 27.5768 44.3968 -12.7351 35.8056 40.5332 -7.88616 
-23.0407 48.7619 -12.7351 -30.0243 48.7619 -8.88775 -21.7956 49.08 -12.7351 
-13.5668 50.8285 -12.7351 -5.3381 51.1662 -12.7351 2.89064 51.1951 -12.7351 
16.6457 48.7619 -12.7351 11.1194 49.9788 -12.7351 19.3481 48.7619 -10.5539 
-46.4818 -45.1576 -4.50632 -38.2531 -47.5384 -4.50632 -30.0243 -48.9114 -4.50632 
-21.7956 -49.4773 -4.50632 -21.7956 -49.9829 3.0342 -13.5668 -48.873 -4.50632 
-5.3381 -48.3366 -4.50632 2.89064 -46.6827 -4.50632 11.1194 -44.4548 -4.50632 
19.3481 -43.3843 -4.50632 27.5768 -43.4149 -4.50632 35.8056 -42.8427 -4.50632 
-50.8194 -41.7542 -4.50632 -54.7105 -37.344 -4.50632 39.9337 -41.7542 -4.50632 
44.0343 -40.502 -4.50632 52.2631 -36.9753 -4.50632 -57.087 -33.5255 -4.50632 
57.5547 -33.5255 -4.50632 60.4918 -30.8573 -4.50632 -59.6484 -25.2967 -4.50632 
65.0268 -25.2967 -4.50632 68.7205 -17.6223 -4.50632 -61.0731 -17.068 -4.50632 
68.934 -17.068 -4.50632 68.7205 -17.068 -2.70215 -61.4632 -8.83925 -4.50632 
71.0342 -8.83925 -4.50632 -61.6029 -0.61051 -4.50632 -62.9393 -0.61051 2.62027 
70.4933 -0.61051 -4.50632 -60.931 7.61823 -4.50632 69.0751 7.61823 -4.50632 
68.7205 8.35378 -4.50632 68.7205 7.61823 -2.99296 -58.9416 15.847 -4.50632 
64.8514 15.847 -4.50632 60.4918 21.8109 -4.50632 -55.8856 24.0757 -4.50632 
-54.7105 25.8558 -4.50632 58.4647 24.0757 -4.50632 52.2631 29.9324 -4.50632 
-50.4567 32.3044 -4.50632 -46.4818 36.8083 -4.50632 49.2142 32.3044 -4.50632 
44.0343 35.9551 -4.50632 -42.9633 40.5332 -4.50632 -38.2531 44.8444 -4.50632 
27.5768 46.4567 -4.50632 37.2896 40.5332 -4.50632 35.8056 41.5363 -4.50632 
35.8056 40.5332 -2.22873 -32.5723 48.7619 -4.50632 -30.0243 50.321 -4.50632 
-21.7956 53.5484 -4.50632 -13.5668 54.5232 -4.50632 -5.3381 54.498 -4.50632 
2.89064 53.9855 -4.50632 11.1194 52.5579 -4.50632 22.6285 48.7619 -4.50632 
19.3481 50.1477 -4.50632 19.3481 48.7619 -1.0947 -21.7956 -50.0228 3.72242 
-46.4818 -45.3492 3.72242 -38.2531 -48.115 3.72242 -22.3768 -49.9829 3.72242 
-30.0243 -49.431 3.72242 -20.779 -49.9829 3.72242 -21.7956 -49.9829 3.81788 
-13.5668 -49.6888 3.72242 -5.3381 -49.0901 3.72242 2.89064 -47.6541 3.72242 
11.1194 -46.3482 3.72242 19.3481 -45.2002 3.72242 27.5768 -44.2922 3.72242 
35.8056 -42.9661 3.72242 -51.2417 -41.7542 3.72242 -54.7105 -38.3473 3.72242 
-46.4818 -41.7542 8.91769 2.89064 -41.7542 11.2048 11.1194 -41.7542 9.64483 
19.3481 -41.7542 8.37418 27.5768 -41.7542 8.99206 39.9785 -41.7542 3.72242 
35.8056 -41.7542 5.86823 44.0343 -40.2264 3.72242 52.2631 -36.3337 3.72242 
-57.946 -33.5255 3.72242 -54.7105 -33.5255 8.93272 44.0343 -33.5255 9.99312 
56.2856 -33.5255 3.72242 52.2631 -33.5255 7.34578 60.4918 -29.5546 3.72242 
-61.04 -25.2967 3.72242 64.0184 -25.2967 3.72242 60.4918 -25.2967 7.41901 
-62.4815 -17.068 3.72242 67.7441 -17.068 3.72242 60.4918 -17.068 11.6183 
68.7205 -14.0774 3.72242 -62.7724 -8.83925 3.72242 -62.9393 -4.79249 3.72242 
70.1004 -8.83925 3.72242 68.7205 -8.83925 5.55565 -63.102 -0.61051 3.72242 
-62.9393 0.952828 3.72242 -62.9393 -0.61051 4.09196 69.1148 -0.61051 3.72242 
68.7205 1.04436 3.72242 68.7205 -0.61051 4.26162 -62.1945 7.61823 3.72242 
66.8796 7.61823 3.72242 60.4918 7.61823 10.2824 -60.8698 15.847 3.72242 
52.2631 15.847 10.7154 62.4232 15.847 3.72242 60.4918 18.2679 3.72242 
60.4918 15.847 5.78689 -57.251 24.0757 3.72242 -54.7105 28.2073 3.72242 
-54.7105 24.0757 9.87643 44.0343 24.0757 9.93076 54.8937 24.0757 3.72242 
52.2631 26.4386 3.72242 52.2631 24.0757 6.04369 -51.7129 32.3044 3.72242 
-46.4818 37.9338 3.72242 27.5768 32.3044 11.0606 35.8056 37.108 3.72242 
35.8056 32.3044 8.3484 44.2455 32.3044 3.72242 44.0343 32.4562 3.72242 
44.0343 32.3044 3.88587 -43.7313 40.5332 3.72242 -38.2531 44.8662 3.72242 
-38.2531 40.5332 10.8275 11.1194 40.5332 10.9633 19.3481 46.1295 3.72242 
19.3481 40.5332 8.62582 30.8463 40.5332 3.72242 27.5768 42.427 3.72242 
27.5768 40.5332 5.72165 -31.62 48.7619 3.72242 -30.0243 49.6007 3.72242 
-30.0243 48.7619 5.53505 -21.7956 52.3611 3.72242 -21.7956 48.7619 9.43688 
-13.5668 52.6253 3.72242 -13.5668 48.7619 8.96751 -5.3381 52.4063 3.72242 
-5.3381 48.7619 8.75051 2.89064 51.2723 3.72242 2.89064 48.7619 6.8299 
13.4761 48.7619 3.72242 11.1194 49.579 3.72242 11.1194 48.7619 4.7549 
-38.2531 -43.8424 11.9512 -30.0243 -44.1733 11.9512 -21.7956 -44.846 11.9512 
-13.5668 -44.7247 11.9512 -5.3381 -43.2981 11.9512 -42.598 -41.7542 11.9512 
[...]
POINT_DATA 556
SCALARS ImageScalars float
LOOKUP_TABLE default
0 0 0 0 0 0 0 0 0 
0 0 0 0 0 0 0 0 0 
0 0 0 0 0 0 0 0 0 
0 0 0 0 0 0 0 0 0 
0 0 0 0 0 0 0 0 0 
0 0 0 0 0 0 0 0 0 
0 0 0 0 0 0 0 0 0 
0 0 0 0 0 0 0 0 0 
0 0 0 0 0 0 0 0 0 
0 0 0 0 0 0 0 0 0 
0 0 0 0 0 0 0 0 0 
0 0 0 0 0 0 0 0 0 
0 0 0 0 0 0 0 0 0 
0 0 0 0 0 0 0 0 0 
0 0 0 0 0 0 0 0 0 
0 0 0 0 0 0 0 0 0 
0 0 0 0 0 0 0 0 0 
0 0 0 0 0 0 0 0 0 
0 0 0 0 0 0 0 0 0 
0 0 0 0 0 0 0 0 0 
0 0 0 0 0 0 0 0 0 
0 0 0 0 0 0 0 0 0 
0 0 0 0 0 0 0 0 0 
0 0 0 0 0 0 0 0 0 
0 0 0 0 0 0 0 0 0 
0 0 0 0 0 0 0 0 0 
0 0 0 0 0 0 0 0 0 
0 0 0 0 0 0 0 0 0 
0 0 0 0 0 0 0 0 0 
0 0 0 0 0 0 0 0 0 
0 0 0 0 0 0 0 0 0 
0 0 0 0 0 0 0 0 0 
0 0 0 0 0 0 0 0 0 
0 0 0 0 0 0 0 0 0 
0 0 0 0 0 0 0 0 0 
0 0 0 0 0 0 0 0 0 
0 0 0 0 0 0 0 0 0 
0 0 0 0 0 0 0 0 0 
0 0 0 0 0 0 0 0 0 
0 0 0 0 0 0 0 0 0 
0 0 0 0 0 0 0 0 0 
0 0 0 0 0 0 0 0 0 
0 0 0 0 0 0 0 0 0 
0 0 0 0 0 0 0 0 0 
0 0 0 0 0 0 0 0 0 
0 0 0 0 0 0 0 0 0 
0 0 0 0 0 0 0 0 0 
0 0 0 0 0 0 0 0 0 
0 0 0 0 0 0 0 0 0 
0 0 0 0 0 0 0 0 0 
0 0 0 0 0 0 0 0 0 
0 0 0 0 0 0 0 0 0 
0 0 0 0 0 0 0 0 0 
0 0 0 0 0 0 0 0 0 
0 0 0 0 0 0 0 0 0 
0 0 0 0 0 0 0 0 0 
0 0 0 0 0 0 0 0 0 
0 0 0 0 0 0 0 0 0 
0 0 0 0 0 0 0 0 0 
0 0 0 0 0 0 0 0 0 
0 0 0 0 0 0 0 0 0 
0 0 0 0 0 0 0 
NORMALS Normals float
0.0044395 -0.0369709 0.999306 0.188454 0.569019 0.800439 -0.0469589 0.496169 0.866955 
-0.0103749 0.512877 0.858399 -0.0488596 0.504498 0.862029 0.421696 0.284892 0.860819 
0.165482 0.173809 0.970776 0.0622188 0.219028 0.973733 -0.041247 0.251817 0.966896 
-0.0800327 0.210353 0.974344 -0.0793436 0.256253 0.963348 -0.155262 0.314676 0.936415 
0.0418897 0.428001 0.902807 -0.0623316 0.47479 0.877889 0.285149 0.1276 0.949952 
0.122159 0.121289 0.985072 0.0444505 0.0759185 0.996123 -0.0481775 0.0130376 0.998754 
-0.0429914 0.0249413 0.998764 -0.0295228 0.0884844 0.99564 -0.119882 0.189966 0.974444 
-0.0712355 0.171758 0.98256 0.0934098 0.237145 0.966973 0.0940462 0.269928 0.958277 
0.0085949 0.252299 0.967611 -0.129589 0.295788 0.946423 -0.33767 0.378346 0.861878 
0.571029 -0.0520148 0.819281 0.295757 0.00614298 0.955244 0.149979 0.0227846 0.988427 
-0.0389292 -0.000166007 0.999242 -0.0940989 -0.021949 0.995321 -0.012511 0.0361454 0.999268 
0.091941 0.122366 0.988217 -0.0738599 0.184803 0.979996 -0.0651572 0.207996 0.975957 
0.125027 0.119286 0.984956 0.086057 0.0981451 0.991444 0.00792978 0.118153 0.992964 
0.0124003 0.171042 0.985186 -0.263057 0.160856 0.951276 0.31362 0.00478303 0.949536 
0.119177 -0.0174536 0.99272 -0.000201991 0.0244812 0.9997 0.00150322 0.066396 0.997792 
0.118247 0.248891 0.961286 0.0942676 0.0939904 0.9911 -0.0435417 -0.029923 0.998603 
-0.136891 0.232776 0.962848 -0.0226703 0.0368698 0.999063 0.100356 0.032516 0.99442 
0.0709654 0.0804297 0.994231 -0.0753646 0.0636808 0.995121 -0.23501 -0.012574 0.971911 
-0.389328 0.124795 0.912606 0.318586 0.00632099 0.947873 0.150458 0.0366334 0.987937 
0.0459354 0.0519201 0.997594 0.103468 0.064476 0.992541 0.0144044 -0.034293 0.999308 
-0.208251 -0.0245853 0.977766 0.00866429 -0.0295985 0.999524 0.104905 0.111033 0.988264 
-0.0169063 -0.0020672 0.999855 -0.0540897 0.0160779 0.998407 0.131542 0.0547589 0.989797 
0.0400217 0.0556827 0.997646 -0.0847705 0.0234756 0.996124 -0.207465 0.0330587 0.977684 
-0.471854 0.030333 0.881155 0.345692 -0.0362868 0.937646 0.158785 -0.0155656 0.98719 
0.0276664 0.00810597 0.999584 -0.045994 0.00812665 0.998909 0.0246299 -0.11203 0.9934 
0.023015 -0.040862 0.9989 0.206538 -0.0454606 0.977382 -0.0157794 -0.0498187 0.998634 
0.00297727 -0.0464855 0.998915 -0.227977 -0.152549 0.961642 0.0503565 0.0467086 0.997638 
0.134379 0.0344119 0.990332 0.0382675 0.0101791 0.999216 -0.0911348 0.0186144 0.995665 
-0.21764 -0.0548697 0.974486 -0.539969 -0.123858 0.832522 0.352151 -0.166642 0.920989 
0.196138 -0.116037 0.973686 0.0717318 -0.0349767 0.99681 -0.0178132 0.0551701 0.998318 
-0.0540607 0.0946182 0.994045 -0.0486212 -0.01308 0.998732 -0.0178195 -0.167194 0.985763 
0.0442548 0.023202 0.998751 0.108323 0.101661 0.988904 0.0954263 0.0418576 0.994556 
0.02504 -0.05994 0.997888 -0.161546 -0.125002 0.978916 -0.340271 -0.202413 0.918284 
-0.641039 -0.338512 0.688824 0.293746 -0.202897 0.934102 0.197431 -0.0392558 0.97953 
0.0808411 0.036978 0.996041 -0.0434838 0.100212 0.994015 -0.0687492 0.0940331 0.993192 
-0.000403577 0.0936079 0.995609 0.0654989 0.121908 0.990378 0.0689194 0.0964109 0.992953 
-0.0218774 -0.0349794 0.999149 -0.116658 -0.130499 0.984561 -0.251244 -0.281804 0.925993 
-0.546621 -0.491403 0.678033 0.389709 -0.268619 0.880892 0.303844 -0.164779 0.938364 
0.106066 -0.0671363 0.99209 0.00113164 -0.0551294 0.998479 -0.0519877 -0.0214788 0.998417 
0.0067923 0.0173752 0.999826 0.0469289 -0.00444088 0.998888 -0.048529 -0.0342478 0.998234 
-0.135351 -0.196013 0.971215 -0.264164 -0.355738 0.896475 -0.525381 -0.633178 0.568384 
0.379063 -0.324392 0.866649 0.201855 -0.279003 0.938835 0.0114109 -0.272024 0.962223 
0.00398459 -0.238757 0.971071 0.0158331 -0.205275 0.978576 0.000998535 -0.275614 0.961268 
-0.132748 -0.368196 0.920222 -0.339441 -0.519482 0.784167 0.194471 -0.701958 0.685154 
0.0734481 -0.620276 0.780937 0.0230566 -0.606658 0.794628 -0.0460499 -0.633811 0.772116 
-0.147452 -0.721432 0.676604 0.187352 0.659253 0.728207 -0.0383822 0.52568 0.849816 
-0.0112472 0.535242 0.844624 -0.0498536 0.519222 0.853184 0.275883 0.5737 0.771205 
0.434316 0.303301 0.848161 0.494024 0.625927 0.603454 -0.0823063 0.511215 0.855503 
-0.136891 0.483887 0.864358 -0.146848 0.539291 0.829217 -0.184734 0.416254 0.890284 
-0.232417 0.638195 0.733955 -0.174428 0.735579 0.654598 -0.0160406 0.80484 0.593275 
0.0404378 0.443167 0.895527 0.00357375 0.846737 0.532 -0.0708757 0.493988 0.866575 
-0.163664 0.889765 0.426066 0.44431 0.291599 0.847088 0.740319 0.436548 0.511228 
-0.116429 0.361328 0.925141 -0.115311 0.359737 0.925901 -0.115836 0.362652 0.924697 
0.0301673 0.414984 0.909329 0.0272727 0.371068 0.928205 0.0153155 0.405785 0.91384 
-0.0819248 0.512151 0.854979 -0.126048 0.556659 0.821123 -0.139761 0.626095 0.767119 
-0.33558 0.439689 0.833102 -0.38744 0.679684 0.622832 0.546747 0.213843 0.80953 
0.584036 0.0565127 0.809758 0.600906 0.217493 0.769161 -0.402747 0.36384 0.83989 
-0.595097 0.436763 0.674609 0.583571 -0.0498163 0.810532 0.572185 -0.058753 0.818017 
-0.530578 0.194087 0.825117 -0.530446 0.193672 0.825299 -0.531173 0.194217 0.824703 
-0.912846 0.322197 0.250803 0.476739 -0.0570469 0.877192 0.593153 -0.058707 0.802947 
-0.570611 0.1306 0.810769 -0.887749 0.126597 0.442577 0.491166 0.00286959 0.871061 
0.589755 -0.000299018 0.807582 -0.585638 -0.00968292 0.810515 -0.898874 -0.0885017 0.429176 
0.504559 -0.0220795 0.863095 0.62053 -0.0408982 0.783115 -0.646921 -0.159429 0.745705 
-0.937108 -0.317485 0.145024 0.520091 -0.188698 0.833006 0.672917 -0.213808 0.708145 
0.433697 -0.270635 0.859456 -0.663364 -0.342224 0.665455 -0.653468 -0.360483 0.665606 
0.747187 -0.449432 0.489615 0.428558 -0.279699 0.859131 0.464155 -0.297532 0.834287 
-0.578216 -0.523299 0.625959 -0.570437 -0.537899 0.620699 0.430305 -0.315495 0.845755 
0.613282 -0.468789 0.635706 0.447388 -0.351788 0.822246 -0.485188 -0.695336 0.530189 
-0.532785 -0.641034 0.552463 -0.531071 -0.644533 0.550037 0.487356 -0.406156 0.772995 
0.594262 -0.547281 0.589353 0.439035 -0.546861 0.712876 -0.286639 -0.774961 0.56327 
-0.477791 -0.710392 0.516778 -0.400289 -0.750827 0.525383 -0.547417 -0.824859 0.141217 
0.238264 -0.707482 0.665356 0.478652 -0.788895 0.385405 0.200341 -0.714619 0.670211 
0.0996479 -0.713529 0.693503 0.0186287 -0.725461 0.688011 -0.0636675 -0.769354 0.635642 
-0.247553 -0.783189 0.57038 -0.160762 -0.777713 0.607716 -0.32002 -0.871138 0.372431 
0.458545 0.829006 0.320134 0.212284 0.929436 0.301801 0.100624 0.963912 0.246473 
0.0005363 0.951428 0.307872 0.0140065 0.989453 -0.144174 -0.0617745 0.941445 0.331458 
-0.11764 0.931642 0.343808 -0.204322 0.898415 0.38872 -0.184438 0.855621 0.483626 
-0.0512109 0.872507 0.48591 -0.0337885 0.927035 0.373449 -0.171476 0.937991 0.30128 
0.616925 0.715704 0.32737 0.755553 0.548594 0.358027 -0.25114 0.92418 0.287784 
-0.320797 0.903317 0.284793 -0.465979 0.851861 0.239158 0.82434 0.417952 0.381812 
-0.614252 0.756926 0.223062 -0.705222 0.671477 0.227553 0.8945 0.209614 0.394881 
-0.805465 0.539889 0.244429 -0.912891 0.335211 0.232946 0.899147 0.106098 0.424591 
-0.918766 0.319479 0.231954 -0.939306 0.328719 0.0982249 0.905431 0.026256 0.423681 
-0.97246 0.0965862 0.212117 0.904409 -0.0277156 0.425766 0.996207 -0.0334923 -0.080316 
-0.979016 -0.119312 0.165203 0.902777 -0.140568 0.406489 -0.943514 -0.320146 0.0853664 
-0.938564 -0.335167 0.0822302 -0.943466 -0.331242 -0.0122472 0.868889 -0.266625 0.417065 
-0.860857 -0.504321 0.0677149 -0.758929 -0.651048 0.0127468 0.793196 -0.450112 0.41017 
0.779809 -0.475513 0.407166 -0.716542 -0.697489 0.00876332 -0.639066 -0.76868 -0.0269437 
0.744101 -0.556144 0.370158 0.693586 -0.633777 0.34244 -0.602134 -0.797292 -0.0419667 
-0.564023 -0.824263 -0.0496817 0.667389 -0.675355 0.313827 0.61468 -0.743573 0.263189 
-0.477467 -0.873201 -0.0976978 -0.547105 -0.834131 -0.0700078 -0.544869 -0.836158 -0.0629016 
-0.54496 -0.815298 -0.195724 0.517853 -0.842036 0.151006 0.469977 -0.874152 0.122395 
0.253914 -0.958031 0.133059 0.054299 -0.996425 0.0647212 -0.0326232 -0.998941 0.0324499 
-0.119029 -0.99285 -0.00902253 -0.224203 -0.973717 -0.040104 -0.392496 -0.915378 -0.0896102 
-0.336876 -0.938624 -0.0741562 -0.365882 -0.886889 -0.282061 0.0148551 0.983204 -0.181905 
0.484453 0.83325 -0.266457 0.216047 0.953608 -0.209656 0.0218706 0.98354 -0.179361 
0.113487 0.981159 -0.156355 0.00633413 0.983812 -0.179092 0.0145616 0.982205 -0.187245 
-0.0539712 0.985318 -0.161976 -0.117816 0.974935 -0.188735 -0.167675 0.960441 -0.222347 
-0.156086 0.966336 -0.204528 -0.125972 0.969407 -0.210669 -0.13655 0.973719 -0.182278 
-0.231629 0.934738 -0.269468 0.621725 0.741928 -0.250998 0.726731 0.646401 -0.232438 
0.504256 0.641303 -0.578323 -0.169853 0.546624 -0.819971 -0.149729 0.704418 -0.693814 
-0.0422824 0.806242 -0.590073 -0.0826737 0.809028 -0.581927 -0.302799 0.909224 -0.285699 
-0.247336 0.8767 -0.412579 -0.367592 0.86924 -0.330603 -0.488671 0.790425 -0.369363 
0.852898 0.474965 -0.216734 0.663526 0.503088 -0.553747 -0.265668 0.5808 -0.769475 
-0.582299 0.716357 -0.384396 -0.472964 0.708275 -0.524073 -0.673862 0.616671 -0.406973 
0.955852 0.253161 -0.149188 -0.77113 0.535104 -0.344997 -0.581541 0.547538 -0.601675 
0.979572 0.108635 -0.169227 -0.862531 0.302484 -0.405639 -0.514099 0.275411 -0.812312 
-0.881548 0.223483 -0.415847 0.987652 0.0362097 -0.152423 0.988581 0.00207738 -0.150675 
-0.911132 0.0704288 -0.406052 -0.852414 0.0678625 -0.518445 0.988174 -0.0333967 -0.149653 
0.987111 -0.0518062 -0.151419 0.984392 -0.0336248 -0.172747 -0.877911 -0.176599 -0.445067 
-0.867031 -0.210777 -0.451476 -0.861952 -0.176389 -0.475316 0.978046 -0.130011 -0.16286 
-0.822302 -0.328085 -0.464951 -0.533134 -0.324343 -0.78139 0.947753 -0.286144 -0.141015 
-0.392929 -0.388722 -0.833368 -0.699885 -0.531396 -0.477262 -0.657828 -0.588048 -0.470598 
-0.621303 -0.511429 -0.593652 0.873436 -0.473918 -0.111851 0.82872 -0.550285 -0.102031 
0.769351 -0.395457 -0.501709 -0.336056 -0.474548 -0.813554 -0.582638 -0.644659 -0.494922 
-0.555585 -0.648821 -0.519958 -0.493368 -0.590722 -0.638464 0.768839 -0.625204 -0.134187 
0.705184 -0.693575 -0.147209 -0.209336 -0.418835 -0.883604 -0.456929 -0.664785 -0.590997 
-0.349495 -0.571012 -0.742831 -0.475469 -0.687383 -0.54903 -0.472099 -0.688148 -0.550977 
-0.470205 -0.684982 -0.556514 0.657219 -0.734787 -0.167782 0.539262 -0.81154 -0.224944 
0.44373 -0.682707 -0.58053 -0.210301 -0.447443 -0.869234 -0.343352 -0.708058 -0.61706 
-0.256536 -0.555338 -0.791068 -0.426352 -0.693536 -0.580717 -0.379417 -0.717525 -0.584124 
-0.363931 -0.666787 -0.650346 0.425163 -0.87084 -0.246727 0.398047 -0.881097 -0.255396 
0.387761 -0.857225 -0.338832 0.177514 -0.920137 -0.34905 0.0866425 -0.77795 -0.622324 
0.00257492 -0.903413 -0.428764 -0.0270466 -0.754356 -0.655908 -0.0749799 -0.891641 -0.446492 
-0.0955626 -0.722545 -0.684687 -0.166325 -0.839022 -0.518052 -0.177436 -0.743277 -0.645024 
-0.283487 -0.782399 -0.554515 -0.24117 -0.808247 -0.537191 -0.247935 -0.77527 -0.580934 
0.212305 0.704941 -0.676746 0.0498884 0.643944 -0.763444 0.0190473 0.6585 -0.75234 
-0.0627527 0.639581 -0.766158 -0.158206 0.547455 -0.821744 0.339904 0.588272 -0.733758 
0.43659 0.474003 -0.764663 0.209556 0.548734 -0.809307 0.0162323 0.554153 -0.832257 
0.0113298 0.521105 -0.853417 -0.0637934 0.488191 -0.870402 -0.163962 0.499172 -0.850849 
-0.160198 0.472951 -0.866403 -0.15342 0.454711 -0.877325 -0.0965212 0.444402 -0.890612 
-0.00608542 0.4759 -0.879478 -0.0512483 0.509218 -0.85911 -0.207805 0.486025 -0.84888 
0.484896 0.430999 -0.760997 0.584844 0.326176 -0.742675 0.390856 0.389568 -0.833947 
0.156054 0.256068 -0.953979 0.0696265 0.232327 -0.970142 -0.0261364 0.241405 -0.970073 
-0.102888 0.218826 -0.970324 -0.15042 0.222315 -0.963302 -0.0980065 0.188929 -0.977088 
-0.0399121 0.274154 -0.960857 -0.0192843 0.357717 -0.933631 -0.0443797 0.343464 -0.938117 
-0.208002 0.469716 -0.857964 -0.190236 0.444462 -0.875365 -0.231134 0.476772 -0.848095 
-0.374007 0.343088 -0.861632 0.678197 0.192082 -0.709333 0.537274 0.18542 -0.822774 
0.272503 0.155554 -0.949497 0.133922 0.165552 -0.977066 0.0050505 0.117062 -0.993112 
-0.0301375 0.0683536 -0.997206 -0.105437 0.0508292 -0.993126 -0.188747 0.095245 -0.977396 
-0.0975985 0.0694193 -0.992802 0.0639896 0.128239 -0.989677 0.0614492 0.191366 -0.979593 
-0.0134224 0.218884 -0.975659 -0.0488444 0.226694 -0.972741 -0.220233 0.34866 -0.911007 
-0.373256 0.340105 -0.863139 -0.371408 0.334245 -0.866219 0.638173 0.020687 -0.769615 
0.584105 0.0218419 -0.811384 0.270341 0.0934517 -0.958218 0.119025 0.0431061 -0.991955 
-0.0257729 0.0612749 -0.997788 -0.0977765 -0.00328685 -0.995203 -0.0685493 0.00292414 -0.997643 
-0.117543 0.186399 -0.975417 -0.0744645 0.272341 -0.959315 0.08241 0.220015 -0.972009 
0.0808433 0.107255 -0.990939 0.00589722 0.0934057 -0.995611 -0.0725832 0.125856 -0.98939 
-0.139648 0.0947456 -0.985658 -0.481031 0.268728 -0.834503 -0.264231 0.214671 -0.940265 
-0.501339 0.24545 -0.829707 0.671035 0.0459555 -0.74 0.585914 0.0511315 -0.808758 
0.253253 0.0506696 -0.966072 0.0830424 0.0374515 -0.995842 -0.0421431 0.0157973 -0.998987 
-0.0866527 0.0368137 -0.995558 0.0857149 0.106222 -0.990641 0.107508 0.0568357 -0.992578 
-0.0709047 0.0133952 -0.997393 -0.114505 0.176296 -0.977655 -0.0747054 0.0172576 -0.997056 
0.007807 0.00117423 -0.999969 -0.0334458 0.0240628 -0.999151 -0.0991164 0.0423738 -0.994173 
-0.259155 0.0387924 -0.965056 -0.535386 0.0609655 -0.842404 -0.467378 0.0610706 -0.881945 
0.679079 -0.0294405 -0.733475 0.589765 -0.0261194 -0.807153 0.249932 -0.00638739 -0.968242 
0.087063 0.00567693 -0.996187 -0.0254939 0.0284579 -0.99927 -0.0115788 0.0487397 -0.998744 
-0.0554075 0.0579434 -0.996781 -0.270381 -0.067791 -0.960364 0.119549 -0.06608 -0.990627 
0.0774513 -0.0770394 -0.994015 -0.091898 -0.077468 -0.99275 0.0124945 -0.0713696 -0.997372 
-0.0325985 -0.0791132 -0.996332 -0.125093 -0.0918465 -0.987885 -0.266185 -0.133509 -0.954631 
-0.537942 -0.163364 -0.827001 -0.504494 -0.229914 -0.832241 -0.497101 -0.155884 -0.853575 
0.670916 -0.103959 -0.73421 0.611199 -0.103148 -0.784727 0.283458 -0.0681439 -0.956561 
0.117206 -0.0243639 -0.992809 0.00117885 0.012067 -0.999927 -0.0562316 0.0354914 -0.997787 
-0.0156669 -0.05128 -0.998561 -0.00493142 -0.0705168 -0.997498 -0.100478 -0.103435 -0.989548 
-0.14127 -0.250764 -0.957685 -0.0571332 -0.0981226 -0.993533 0.00579558 -0.109253 -0.993997 
-0.0541242 -0.144813 -0.987978 -0.155105 -0.17751 -0.971819 -0.401071 -0.29192 -0.868289 
-0.347986 -0.323325 -0.879981 -0.289263 -0.247259 -0.924765 0.649067 -0.144231 -0.746933 
0.664666 -0.207141 -0.717853 0.63217 -0.140428 -0.761998 0.341156 -0.130433 -0.930913 
0.163683 -0.0274055 -0.986132 0.0327459 -0.00619482 -0.999444 -0.0744629 0.00959677 -0.997178 
-0.159867 -0.00728471 -0.987112 -0.246715 -0.121035 -0.9615 -0.103261 -0.165798 -0.980739 
0.0698618 -0.154168 -0.985572 0.0333946 -0.0922175 -0.995179 -0.0373615 -0.138287 -0.989687 
-0.109647 -0.232404 -0.966419 -0.329234 -0.353349 -0.875642 -0.284004 -0.386388 -0.877523 
-0.241819 -0.31439 -0.917977 0.663163 -0.337167 -0.668232 0.414874 -0.237557 -0.87832 
0.251827 -0.17709 -0.951432 0.0352503 -0.081009 -0.99609 -0.054726 -0.0745561 -0.995714 
-0.146918 -0.0395984 -0.988356 -0.216235 -0.0243131 -0.976039 -0.12831 0.0160544 -0.991604 
-0.028565 -0.0659861 -0.997412 -0.034093 -0.168591 -0.985096 -0.177731 -0.367414 -0.912918 
-0.129168 -0.260587 -0.956771 -0.251988 -0.364583 -0.896427 -0.240447 -0.369171 -0.897718 
-0.217624 -0.324495 -0.920512 0.575344 -0.512723 -0.637255 0.575244 -0.512815 -0.637271 
0.575169 -0.512621 -0.637496 0.411758 -0.63144 -0.657068 0.307395 -0.363049 -0.879604 
0.133626 -0.32014 -0.937899 -0.0274904 -0.234553 -0.971715 -0.10719 -0.211384 -0.971508 
-0.190881 -0.167168 -0.967274 -0.142193 -0.141513 -0.979671 -0.183075 -0.371712 -0.910118 
-0.113808 -0.210776 -0.970887 -0.183262 -0.368051 -0.911566 -0.185351 -0.370726 -0.910059 
-0.166904 -0.325248 -0.930783 0.380719 -0.63381 -0.673303 0.275904 -0.623975 -0.731117 
0.213001 -0.515957 -0.82971 0.0498176 -0.64307 -0.764185 0.0459238 -0.434846 -0.899333 
-0.0691073 -0.593954 -0.801525 -0.0864262 -0.436873 -0.895362 -0.113935 -0.509767 -0.852735 
-0.128811 -0.396598 -0.90891 -0.183537 -0.414644 -0.891283 -0.164165 -0.444265 -0.880726 
-0.163042 -0.388414 -0.906947 
