# vtk DataFile Version 4.2
vtk output
ASCII
DATASET POLYDATA
POINTS 560 float
-42.6809 9.95523 -19.9708 -19.265 -36.8766 -11.9374 -11.4597 -36.8766 -12.8733 
-3.6544 -36.8766 -12.5331 4.1509 -36.8766 -12.479 11.9562 -36.8766 -12.5178 
19.7615 -36.8766 -11.4069 -34.8756 -29.0713 -13.114 -27.0703 -29.0713 -14.8236 
-19.265 -29.0713 -15.2957 -11.4597 -29.0713 -15.7139 -3.6544 -29.0713 -15.6786 
4.1509 -29.0713 -15.3923 11.9562 -29.0713 -14.8555 19.7615 -29.0713 -14.8757 
27.5668 -29.0713 -13.621 35.3721 -29.0713 -12.7716 43.1774 -29.0713 -11.6863 
-50.4862 -21.266 -11.4167 -42.6809 -21.266 -14.4094 -34.8756 -21.266 -15.8754 
-27.0703 -21.266 -16.2552 -19.265 -21.266 -16.4125 -11.4597 -21.266 -16.665 
-3.6544 -21.266 -16.3242 4.1509 -21.266 -16.0427 11.9562 -21.266 -15.509 
19.7615 -21.266 -15.6478 27.5668 -21.266 -15.4385 35.3721 -21.266 -15.1489 
43.1774 -21.266 -14.0787 50.9827 -21.266 -12.5183 -58.2915 -13.4607 -11.5822 
-50.4862 -13.4607 -15.0343 -42.6809 -13.4607 -16.2926 -34.8756 -13.4607 -16.7794 
-27.0703 -13.4607 -17.0578 -19.265 -13.4607 -16.186 -11.4597 -13.4607 -15.8246 
-3.6544 -13.4607 -16.2291 4.1509 -13.4607 -15.9946 11.9562 -13.4607 -15.263 
19.7615 -13.4607 -15.6289 27.5668 -13.4607 -16.393 35.3721 -13.4607 -16.6822 
43.1774 -13.4607 -15.8803 50.9827 -13.4607 -14.6385 -58.2915 -5.65537 -12.4224 
-50.4862 -5.65537 -16.419 -42.6809 -5.65537 -18.0333 -34.8756 -5.65537 -17.5134 
-27.0703 -5.65537 -16.5602 -19.265 -5.65537 -15.3089 -11.4597 -5.65537 -15.9496 
-3.6544 -5.65537 -15.7277 4.1509 -5.65537 -17.1853 11.9562 -5.65537 -16.2202 
19.7615 -5.65537 -14.9386 27.5668 -5.65537 -16.2422 35.3721 -5.65537 -17.1228 
43.1774 -5.65537 -17.4864 50.9827 -5.65537 -16.179 58.788 -5.65537 -12.7562 
-58.2915 2.14993 -14.7265 -50.4862 2.14993 -16.9867 -42.6809 6.13876 -19.1606 
-42.6809 2.14993 -18.2641 -34.8756 2.14993 -18.3373 -27.0703 2.14993 -17.1861 
-19.265 2.14993 -15.8448 -11.4597 2.14993 -18.3155 -3.6544 2.14993 -15.8949 
4.1509 2.14993 -16.3095 11.9562 2.14993 -16.3032 19.7615 2.14993 -15.0149 
27.5668 2.14993 -16.5119 35.3721 2.14993 -17.5586 43.1774 2.14993 -17.9883 
50.9827 2.14993 -16.6891 58.788 2.14993 -13.1995 -58.2915 9.95523 -14.2141 
-45.2759 9.95523 -19.1606 -50.4862 9.95523 -17.1079 -36.9609 9.95523 -19.1606 
-42.6809 16.3943 -19.1606 -34.8756 9.95523 -18.8069 -27.0703 9.95523 -17.8197 
-19.265 9.95523 -16.7076 -11.4597 9.95523 -16.804 -3.6544 9.95523 -17.4512 
4.1509 9.95523 -16.788 11.9562 9.95523 -16.2221 19.7615 9.95523 -16.4298 
27.5668 9.95523 -17.4227 35.3721 9.95523 -17.8378 43.1774 9.95523 -17.8804 
50.9827 9.95523 -16.3712 58.788 9.95523 -13.8982 -58.2915 17.7605 -14.0994 
-50.4862 17.7605 -16.664 -42.6809 17.7605 -18.9452 -34.8756 17.7605 -18.5586 
-27.0703 17.7605 -18.0678 -19.265 17.7605 -17.6355 -11.4597 17.7605 -17.4313 
-3.6544 17.7605 -18.857 4.1509 17.7605 -18.4642 11.9562 17.7605 -17.6077 
19.7615 17.7605 -18.1776 27.5668 17.7605 -18.7744 35.3721 17.7605 -17.7775 
43.1774 17.7605 -17 50.9827 17.7605 -15.4539 -50.4862 25.5658 -14.6487 
-42.6809 25.5658 -16.5492 -34.8756 25.5658 -18.5901 -27.0703 25.5658 -17.5016 
-19.265 25.5658 -17.9306 -11.4597 25.5658 -17.839 -3.6544 25.5658 -18.5857 
4.1509 25.5658 -17.7562 11.9562 25.5658 -16.8948 19.7615 25.5658 -17.3584 
27.5668 25.5658 -17.3273 35.3721 25.5658 -16.7709 43.1774 25.5658 -15.8414 
50.9827 25.5658 -12.2083 -42.6809 33.3711 -13.2939 -34.8756 33.3711 -14.4006 
-27.0703 33.3711 -15.4915 -19.265 33.3711 -16.0807 -11.4597 33.3711 -16.086 
-3.6544 33.3711 -15.6597 4.1509 33.3711 -14.138 11.9562 33.3711 -13.4529 
19.7615 33.3711 -13.9739 27.5668 33.3711 -14.0442 35.3721 33.3711 -12.7185 
-19.265 -37.5951 -11.3553 -11.4597 -38.9419 -11.3553 -3.6544 -38.4107 -11.3553 
4.1509 -38.3968 -11.3553 11.9562 -38.6537 -11.3553 19.7615 -36.9531 -11.3553 
-34.8756 -32.0626 -11.3553 -34.8756 -36.8766 -3.80098 -21.7093 -36.8766 -11.3553 
-27.0703 -34.7906 -11.3553 -27.0703 -36.8766 -9.24549 20.0161 -36.8766 -11.3553 
27.5668 -33.7338 -11.3553 27.5668 -36.8766 -9.40279 35.3721 -32.0129 -11.3553 
35.3721 -36.8766 -6.80446 43.1774 -29.5194 -11.3553 -50.4862 -21.3603 -11.3553 
-39.9953 -29.0713 -11.3553 -42.6809 -27.344 -11.3553 -42.6809 -29.0713 -9.76954 
43.8086 -29.0713 -11.3553 50.9827 -23.116 -11.3553 -50.5837 -21.266 -11.3553 
-58.2915 -13.8402 -11.3553 52.8371 -21.266 -11.3553 -58.5568 -13.4607 -11.3553 
58.0306 -13.4607 -11.3553 58.788 -11.8754 -11.3553 58.788 -13.4607 -10.8383 
-59.652 -5.65537 -11.3553 60.8082 -5.65537 -11.3553 66.5933 -5.65537 -4.31694 
-62.4741 2.14993 -11.3553 -66.0968 2.14993 -5.26115 61.4588 2.14993 -11.3553 
66.5933 2.14993 -4.88648 -61.8879 9.95523 -11.3553 61.8804 9.95523 -11.3553 
58.788 17.2145 -11.3553 -61.3255 17.7605 -11.3553 -58.2915 23.6731 -11.3553 
58.3678 17.7605 -11.3553 58.788 17.7605 -10.872 -56.2609 25.5658 -11.3553 
-58.2915 25.5658 -6.11109 -50.4862 30.1964 -11.3553 43.1774 32.0162 -11.3553 
52.0617 25.5658 -11.3553 50.9827 26.614 -11.3553 -46.4632 33.3711 -11.3553 
-42.6809 35.0408 -11.3553 -34.8756 36.8893 -11.3553 -27.0703 37.8873 -11.3553 
-19.265 38.5056 -11.3553 -11.4597 39.1874 -11.3553 -3.6544 38.3362 -11.3553 
4.1509 36.5371 -11.3553 11.9562 35.9584 -11.3553 19.7615 36.6893 -11.3553 
27.5668 36.7829 -11.3553 39.8902 33.3711 -11.3553 35.3721 34.7515 -11.3553 
43.1774 33.3711 -9.31546 -11.4597 41.1764 -6.34093 -3.6544 41.1764 -5.67714 
4.1509 41.1764 -4.25459 11.9562 41.1764 -5.07334 19.7615 41.1764 -5.37393 
27.5668 41.1764 -4.70733 -34.8756 -36.9714 -3.54998 -27.0703 -40.1324 -3.54998 
-19.265 -42.3544 -3.54998 -11.4597 -43.7846 -3.54998 -3.6544 -44.478 -3.54998 
4.1509 -44.5811 -3.54998 11.9562 -44.1967 -3.54998 19.7615 -42.9467 -3.54998 
27.5668 -41.3692 -3.54998 35.3721 -38.6796 -3.54998 -35.0776 -36.8766 -3.54998 
-42.6809 -33.0164 -3.54998 -34.8756 -36.8766 -2.35541 39.1451 -36.8766 -3.54998 
43.1774 -34.7099 -3.54998 -49.0427 -29.0713 -3.54998 -50.4862 -28.0274 -3.54998 
50.5893 -29.0713 -3.54998 50.9827 -28.7394 -3.54998 -57.5815 -21.266 -3.54998 
-58.2915 -20.3583 -3.54998 58.3061 -21.266 -3.54998 58.788 -20.6576 -3.54998 
-62.8937 -13.4607 -3.54998 63.4258 -13.4607 -3.54998 66.5933 -6.53585 -3.54998 
-65.1838 -5.65537 -3.54998 -66.0968 -1.08218 -3.54998 66.9563 -5.65537 -3.54998 
66.5933 -5.65537 -1.92152 -66.7317 2.14993 -3.54998 -66.0968 6.6949 -3.54998 
-66.0968 2.14993 -1.67292 67.2028 2.14993 -3.54998 66.5933 5.53207 -3.54998 
66.5933 2.14993 -0.552503 -65.6413 9.95523 -3.54998 65.7332 9.95523 -3.54998 
-63.2744 17.7605 -3.54998 62.054 17.7605 -3.54998 58.788 21.9057 -3.54998 
-58.7752 25.5658 -3.54998 -58.2915 26.0872 -3.54998 -58.2915 25.5658 -2.56434 
-50.4862 32.3174 -3.54998 55.5224 25.5658 -3.54998 50.9827 29.8316 -3.54998 
-48.2936 33.3711 -3.54998 -42.6809 35.63 -3.54998 -42.6809 33.3711 0.999927 
-34.8756 37.8388 -3.54998 -34.8756 33.3711 3.73866 -27.0703 39.6907 -3.54998 
-19.265 41.009 -3.54998 35.3721 39.6432 -3.54998 46.3204 33.3711 -3.54998 
43.1774 35.6524 -3.54998 -17.9486 41.1764 -3.54998 -11.4597 41.983 -3.54998 
-11.4597 41.1764 -0.588619 -3.6544 41.9595 -3.54998 -3.6544 41.1764 1.20931 
4.1509 41.5148 -3.54998 4.1509 41.1764 0.524131 11.9562 42.064 -3.54998 
19.7615 42.0707 -3.54998 29.6817 41.1764 -3.54998 27.5668 41.7081 -3.54998 
-27.0703 -39.2772 4.25532 -19.265 -41.7335 4.25532 -11.4597 -43.5751 4.25532 
-3.6544 -44.2921 4.25532 4.1509 -44.156 4.25532 11.9562 -43.7088 4.25532 
19.7615 -42.5471 4.25532 27.5668 -40.952 4.25532 35.3721 -38.666 4.25532 
-42.6809 -32.7297 4.25532 -33.3876 -36.8766 4.25532 -34.8756 -36.313 4.25532 
-27.0703 -36.8766 8.33549 27.5668 -36.8766 10.1095 38.9327 -36.8766 4.25532 
35.3721 -36.8766 7.45126 43.1774 -34.0569 4.25532 -48.4627 -29.0713 4.25532 
-50.4862 -27.5717 4.25532 -42.6809 -29.0713 10.3423 49.7839 -29.0713 4.25532 
43.1774 -29.0713 9.33529 50.9827 -27.8881 4.25532 -56.7129 -21.266 4.25532 
-58.2915 -18.8569 4.25532 -50.4862 -21.266 10.8991 56.6709 -21.266 4.25532 
50.9827 -21.266 10.4967 58.788 -18.7841 4.25532 -61.3218 -13.4607 4.25532 
-58.2915 -13.4607 8.68733 61.9439 -13.4607 4.25532 58.788 -13.4607 7.99746 
-62.6119 -5.65537 4.25532 -58.2915 -5.65537 9.74168 64.7859 -5.65537 4.25532 
58.788 -5.65537 11.3056 -63.2553 2.14993 4.25532 -58.2915 2.14993 9.5158 
65.1977 2.14993 4.25532 58.788 2.14993 11.1842 -61.5694 9.95523 4.25532 
-58.2915 9.95523 7.66112 63.4435 9.95523 4.25532 58.788 9.95523 9.19477 
-59.1716 17.7605 4.25532 -58.2915 19.2886 4.25532 -58.2915 17.7605 5.09206 
-50.4862 17.7605 10.4434 50.9827 17.7605 11.1266 60.0749 17.7605 4.25532 
58.788 19.3209 4.25532 58.788 17.7605 5.65287 -52.7176 25.5658 4.25532 
-50.4862 27.1867 4.25532 -50.4862 25.5658 5.61011 -42.6809 30.9395 4.25532 
-42.6809 25.5658 8.99718 -34.8756 32.9259 4.25532 -34.8756 25.5658 10.0968 
-27.0703 25.5658 11.5491 43.1774 25.5658 10.1207 52.6383 25.5658 4.25532 
50.9827 27.1915 4.25532 50.9827 25.5658 5.832 -32.6582 33.3711 4.25532 
-27.0703 34.4874 4.25532 -27.0703 33.3711 5.50618 -19.265 37.0532 4.25532 
-19.265 33.3711 7.85329 -11.4597 39.4927 4.25532 -11.4597 33.3711 10.4565 
-3.6544 40.518 4.25532 -3.6544 33.3711 11.4197 4.1509 40.807 4.25532 
35.3721 38.6436 4.25532 35.3721 33.3711 10.0685 43.643 33.3711 4.25532 
43.1774 33.7606 4.25532 43.1774 33.3711 4.69163 6.00733 41.1764 4.25532 
11.9562 42.1894 4.25532 11.9562 41.1764 6.01079 19.7615 42.5136 4.25532 
19.7615 41.1764 6.94847 29.616 41.1764 4.25532 27.5668 41.8818 4.25532 
27.5668 41.1764 5.71561 -19.265 -36.9061 12.0606 -11.4597 -38.4501 12.0606 
-3.6544 -38.6608 12.0606 4.1509 -37.7932 12.0606 11.9562 -37.0092 12.0606 
19.7615 -37.1097 12.0606 -34.8756 -31.5438 12.0606 -19.3567 -36.8766 12.0606 
-27.0703 -34.152 12.0606 -19.265 -36.8766 12.0902 -11.4597 -36.8766 13.5275 
-3.6544 -36.8766 13.605 4.1509 -36.8766 12.8446 11.9562 -36.8766 12.1773 
20.7322 -36.8766 12.0606 19.7615 -36.8766 12.2595 27.5668 -34.8669 12.0606 
35.3721 -32.4241 12.0606 -39.9935 -29.0713 12.0606 -42.6809 -27.4377 12.0606 
[...]
POINT_DATA 560
SCALARS ImageScalars float
LOOKUP_TABLE default
0 0 0 0 0 0 0 0 0 
0 0 0 0 0 0 0 0 0 
0 0 0 0 0 0 0 0 0 
0 0 0 0 0 0 0 0 0 
0 0 0 0 0 0 0 0 0 
0 0 0 0 0 0 0 0 0 
0 0 0 0 0 0 0 0 0 
0 0 0 0 0 0 0 0 0 
0 0 0 0 0 0 0 0 0 
0 0 0 0 0 0 0 0 0 
0 0 0 0 0 0 0 0 0 
0 0 0 0 0 0 0 0 0 
0 0 0 0 0 0 0 0 0 
0 0 0 0 0 0 0 0 0 
0 0 0 0 0 0 0 0 0 
0 0 0 0 0 0 0 0 0 
0 0 0 0 0 0 0 0 0 
0 0 0 0 0 0 0 0 0 
0 0 0 0 0 0 0 0 0 
0 0 0 0 0 0 0 0 0 
0 0 0 0 0 0 0 0 0 
0 0 0 0 0 0 0 0 0 
0 0 0 0 0 0 0 0 0 
0 0 0 0 0 0 0 0 0 
0 0 0 0 0 0 0 0 0 
0 0 0 0 0 0 0 0 0 
0 0 0 0 0 0 0 0 0 
0 0 0 0 0 0 0 0 0 
0 0 0 0 0 0 0 0 0 
0 0 0 0 0 0 0 0 0 
0 0 0 0 0 0 0 0 0 
0 0 0 0 0 0 0 0 0 
0 0 0 0 0 0 0 0 0 
0 0 0 0 0 0 0 0 0 
0 0 0 0 0 0 0 0 0 
0 0 0 0 0 0 0 0 0 
0 0 0 0 0 0 0 0 0 
0 0 0 0 0 0 0 0 0 
0 0 0 0 0 0 0 0 0 
0 0 0 0 0 0 0 0 0 
0 0 0 0 0 0 0 0 0 
0 0 0 0 0 0 0 0 0 
0 0 0 0 0 0 0 0 0 
0 0 0 0 0 0 0 0 0 
0 0 0 0 0 0 0 0 0 
0 0 0 0 0 0 0 0 0 
0 0 0 0 0 0 0 0 0 
0 0 0 0 0 0 0 0 0 
0 0 0 0 0 0 0 0 0 
0 0 0 0 0 0 0 0 0 
0 0 0 0 0 0 0 0 0 
0 0 0 0 0 0 0 0 0 
0 0 0 0 0 0 0 0 0 
0 0 0 0 0 0 0 0 0 
0 0 0 0 0 0 0 0 0 
0 0 0 0 0 0 0 0 0 
0 0 0 0 0 0 0 0 0 
0 0 0 0 0 0 0 0 0 
0 0 0 0 0 0 0 0 0 
0 0 0 0 0 0 0 0 0 
0 0 0 0 0 0 0 0 0 
0 0 0 0 0 0 0 0 0 
0 0 
NORMALS Normals float
0.092421 0.0511072 0.994408 0.161255 0.589415 0.791572 0.0356025 0.524727 0.850526 
-0.023811 0.522347 0.8524 -0.000624187 0.505651 0.862738 -0.0669493 0.465127 0.882709 
-0.163095 0.517162 0.840205 0.247661 0.436889 0.86475 0.138393 0.329859 0.933831 
0.052033 0.257832 0.964788 0.024115 0.231196 0.972608 -0.0198523 0.215082 0.976394 
-0.050811 0.204404 0.977567 -0.0320877 0.186104 0.982006 -0.0751758 0.260662 0.962499 
-0.125429 0.320344 0.938961 -0.124974 0.383341 0.915113 -0.330818 0.526002 0.783506 
0.464692 0.468135 0.751605 0.239398 0.319497 0.916848 0.121871 0.232001 0.965051 
0.032795 0.13261 0.990626 0.0259199 0.0553052 0.998133 -0.00571322 0.00454935 0.999973 
-0.0396122 0.0329473 0.998672 -0.0521493 0.0367939 0.997961 -0.0253802 0.0247593 0.999371 
-0.00446404 0.0435056 0.999043 -0.0303218 0.166821 0.985521 -0.0863688 0.252543 0.963723 
-0.166894 0.266843 0.949179 -0.386002 0.429138 0.816605 0.595096 0.329191 0.73314 
0.281161 0.29761 0.912347 0.0980469 0.232419 0.967661 0.0468797 0.100053 0.993877 
-0.035202 0.0191565 0.999197 -0.0811238 -0.0728614 0.994037 0.00422428 -0.0465384 0.998908 
0.0108923 -0.0356973 0.999303 -0.0619911 0.0615588 0.996176 -0.0233235 0.0316122 0.999228 
0.0719007 -0.0451602 0.996389 0.0691994 0.0510786 0.996294 -0.02965 0.115925 0.992815 
-0.12111 0.211647 0.969813 -0.294867 0.248551 0.922646 0.587743 0.16723 0.791576 
0.278543 0.0998819 0.955216 0.0857698 0.125614 0.988365 -0.0919207 0.0990167 0.990831 
-0.140292 0.00816618 0.990076 -0.0425584 -0.0186287 0.99892 0.0305956 0.132679 0.990687 
0.0723423 -0.0265809 0.997026 0.0441968 0.0397598 0.998231 -0.157976 0.0766838 0.984461 
0.0198601 -0.0400546 0.999 0.139067 0.00750767 0.990255 0.0783066 0.0585066 0.995211 
-0.0674916 0.133861 0.988699 -0.25238 0.114805 0.960794 -0.511155 0.129432 0.849687 
0.508421 0.0976719 0.855552 0.206501 0.0488677 0.977225 0.084785 0.0843487 0.992823 
0.0767148 0.121183 0.989661 -0.06764 0.0822688 0.994312 -0.157579 0.0795059 0.984301 
0.0328519 0.0907339 0.995333 0.0521123 0.0476699 0.997503 -0.121145 0.134464 0.983485 
0.0253892 -0.0239518 0.999391 -0.101447 -0.00105834 0.99484 0.0361835 0.0954184 0.994779 
0.15979 0.074938 0.984303 0.0930464 0.0455375 0.99462 -0.0669422 0.0247272 0.99745 
-0.250708 0.0124383 0.967983 -0.519652 0.0689977 0.851587 0.496955 -0.0381459 0.866938 
0.162829 0.0204709 0.986442 0.321913 -0.0228084 0.946495 -0.0793011 0.024001 0.996562 
0.129548 -0.169956 0.976899 -0.144843 0.0141818 0.989353 -0.133278 0.0557945 0.989507 
-0.0645087 0.113752 0.991413 0.0475048 -0.0327928 0.998333 0.000511849 0.16656 0.986031 
-0.0777078 0.128059 0.988717 -0.0224975 0.0881558 0.995853 0.0761828 0.200033 0.976823 
0.0887151 0.141612 0.985939 0.0291222 0.0139992 0.999478 -0.101952 -0.0612562 0.992902 
-0.241995 -0.0679596 0.967895 -0.530416 -0.138524 0.836343 0.568894 -0.230819 0.789356 
0.295233 -0.119741 0.947892 0.135712 -0.220305 0.965944 -0.055621 -0.0143518 0.998349 
-0.0587328 -0.0194449 0.998084 -0.0407988 0.0774372 0.996162 0.0779986 0.0667289 0.994718 
0.0676775 0.070196 0.995235 -0.0814573 0.0613126 0.994789 -0.0157644 0.0393448 0.999101 
0.0743474 0.0623059 0.995284 -0.0262388 -0.0103002 0.999603 -0.10878 -0.061969 0.992132 
-0.132462 -0.112041 0.984835 -0.372795 -0.262652 0.889965 0.413182 -0.489051 0.768186 
0.210956 -0.332261 0.919293 0.059365 -0.285114 0.956653 -0.0333258 -0.16225 0.986187 
0.0207762 -0.0710087 0.997259 0.0424186 -0.0756979 0.996228 -0.0039784 -0.176501 0.984293 
-0.107589 -0.2368 0.965583 -0.0252803 -0.234719 0.971735 0.0275262 -0.230859 0.972598 
-0.0333377 -0.264722 0.963748 -0.0847136 -0.255774 0.963018 -0.283924 -0.371982 0.883751 
-0.515177 -0.536273 0.668583 0.300009 -0.720566 0.625123 0.135753 -0.627017 0.767086 
0.108052 -0.494812 0.862256 0.0390092 -0.48487 0.873716 -0.02492 -0.446964 0.894205 
-0.109358 -0.523787 0.844801 -0.123339 -0.5739 0.809584 -0.00943489 -0.557595 0.83006 
0.0338936 -0.523727 0.851211 -0.0563065 -0.562722 0.824727 -0.205185 -0.631442 0.747784 
0.172953 0.623484 0.762466 0.0412096 0.63021 0.77533 -0.0247037 0.596482 0.802246 
0.0101687 0.579894 0.814629 -0.0613355 0.558371 0.827321 -0.164056 0.52049 0.837959 
0.295214 0.57483 0.763164 0.403069 0.902402 0.152334 0.187831 0.631919 0.751929 
0.20621 0.623991 0.753733 0.264983 0.78615 0.558347 -0.163553 0.519997 0.838364 
-0.140498 0.495971 0.856897 -0.195757 0.681398 0.705249 -0.177372 0.500497 0.847373 
-0.357904 0.806415 0.470744 -0.34092 0.543563 0.767015 0.466279 0.470265 0.74929 
0.342103 0.564663 0.75108 0.357698 0.560776 0.746714 0.414827 0.67056 0.615035 
-0.352755 0.541589 0.76305 -0.457909 0.48557 0.744675 0.467666 0.469516 0.748895 
0.602208 0.341579 0.721574 -0.49551 0.470563 0.730096 0.61069 0.331944 0.718937 
-0.542718 0.319615 0.776726 -0.563238 0.282645 0.77645 -0.589134 0.340732 0.732681 
0.661615 0.171918 0.72987 -0.620068 0.14248 0.771502 -0.960209 0.224766 0.165769 
0.689526 0.0921186 0.718379 0.988315 0.041742 0.146595 -0.662981 0.0480624 0.747092 
-0.977564 -0.0699368 0.198688 0.753232 -0.0651222 0.654523 -0.719212 -0.165523 0.674786 
-0.607465 -0.43538 0.664402 0.811747 -0.270351 0.517664 0.664881 -0.520224 0.536004 
-0.59623 -0.45115 0.664058 -0.623628 -0.468127 0.626055 0.598662 -0.597509 0.533467 
0.741934 -0.666138 0.076122 0.512548 -0.67762 0.527376 -0.387298 -0.666708 0.636789 
-0.56453 -0.55639 0.609701 -0.536262 -0.573383 0.619398 0.447508 -0.758652 0.473479 
0.332926 -0.82031 0.465028 0.186536 -0.839343 0.510595 0.0924045 -0.850901 0.517136 
0.0762999 -0.797006 0.599133 -0.0103419 -0.792626 0.609621 -0.131467 -0.762459 0.63354 
-0.114163 -0.702263 0.702704 0.00317813 -0.653845 0.756622 0.0389128 -0.675618 0.736224 
-0.0862117 -0.700217 0.708706 -0.32318 -0.686069 0.651816 -0.22566 -0.685282 0.692435 
-0.453236 -0.757802 0.469376 0.0363647 -0.980872 0.191228 -0.0580707 -0.972612 0.225063 
-0.00347263 -0.971037 0.238903 0.0361061 -0.923959 0.380784 -0.00836638 -0.933487 0.358515 
-0.143513 -0.942809 0.300857 0.403384 0.904647 0.137461 0.325152 0.929271 0.175307 
0.223327 0.956875 0.185783 0.131514 0.970074 0.204107 0.0481961 0.967121 0.249706 
-0.0167429 0.971158 0.237848 -0.100487 0.974697 0.19967 -0.175803 0.958018 0.226482 
-0.260863 0.927201 0.268791 -0.396583 0.883117 0.25065 0.404615 0.90394 0.13849 
0.472728 0.854533 0.215179 0.402026 0.912077 0.080566 -0.458078 0.854811 0.24385 
-0.517635 0.825927 0.22338 0.599418 0.773401 0.206274 0.625862 0.751454 0.208837 
-0.63439 0.74613 0.202086 -0.640264 0.741746 0.199689 0.756594 0.62723 0.18479 
0.773139 0.610295 0.172614 -0.747785 0.643431 0.163749 -0.757595 0.630998 0.16701 
0.887519 0.443315 0.125622 -0.875057 0.459633 0.151698 -0.960912 0.246689 0.125671 
0.971091 0.221649 0.0886264 0.99374 0.103431 0.0422284 -0.967309 0.221455 0.123576 
-0.974371 0.224848 0.00668934 0.999501 0.0277092 0.015132 0.994381 -0.105027 -0.0132781 
0.99304 0.0144565 -0.116886 -0.989493 -0.0731023 0.124742 -0.979668 -0.172409 0.102597 
-0.990396 -0.085573 -0.108594 0.978945 -0.201609 -0.0319419 -0.949928 -0.30429 0.0710244 
0.904452 -0.413997 -0.102821 -0.842142 -0.535015 0.0674986 -0.778799 -0.625271 0.050089 
0.751314 -0.647629 -0.126901 0.736612 -0.665722 -0.119235 0.743614 -0.640388 -0.192202 
0.517199 -0.840489 -0.161501 -0.718985 -0.694631 0.0234396 -0.641126 -0.767005 0.0257074 
0.452945 -0.873492 -0.178473 0.320465 -0.928969 -0.185255 0.298631 -0.85338 -0.427272 
0.249464 -0.948551 -0.194982 0.158001 -0.766004 -0.623116 0.201022 -0.970474 -0.133305 
0.145801 -0.986544 -0.0739748 -0.342177 -0.924905 0.165728 -0.577112 -0.81532 0.046842 
-0.535556 -0.841201 0.0745686 0.130928 -0.989564 -0.0601826 0.059368 -0.998229 0.00375815 
0.102755 -0.980865 -0.165364 -0.0300122 -0.994876 0.0965441 0.0296187 -0.974411 -0.222812 
0.00638349 -0.979905 0.199365 0.0568511 -0.994919 -0.0830868 0.0367562 -0.954543 0.295799 
-0.022679 -0.962752 0.269433 -0.202451 -0.954248 0.220053 -0.148124 -0.959406 0.239998 
0.318266 0.900088 -0.297569 0.248924 0.927057 -0.28036 0.148149 0.951897 -0.268225 
0.0346455 0.959902 -0.278186 -0.0325381 0.944128 -0.327969 -0.0962774 0.934215 -0.343471 
-0.155366 0.946026 -0.284423 -0.238102 0.924004 -0.299206 -0.371264 0.892894 -0.254763 
0.456281 0.852844 -0.253899 0.35755 0.897078 -0.259633 0.368073 0.894809 -0.252662 
0.281868 0.829163 -0.482741 -0.190584 0.741417 -0.643412 -0.456974 0.846879 -0.271975 
-0.357639 0.820675 -0.445631 -0.556429 0.761178 -0.333158 0.58129 0.770111 -0.262738 
0.626181 0.72703 -0.281645 0.444845 0.710172 -0.545682 -0.64079 0.683206 -0.350168 
-0.509501 0.583045 -0.632825 -0.653534 0.670637 -0.350911 0.758452 0.56377 -0.326976 
0.801893 0.490174 -0.341609 0.592065 0.440833 -0.67463 -0.696671 0.603297 -0.388179 
-0.545654 0.433204 -0.717354 -0.735392 0.543268 -0.405042 0.859948 0.318084 -0.399138 
0.743882 0.285794 -0.604121 -0.815419 0.383948 -0.433216 -0.679682 0.365365 -0.636035 
0.854082 0.109894 -0.508397 0.689493 0.0324186 -0.723566 -0.859339 0.184384 -0.47701 
-0.59227 0.151506 -0.791367 0.801514 -0.0457247 -0.596225 0.625454 -0.0900868 -0.775043 
-0.857994 -0.0823314 -0.507018 -0.586122 -0.110433 -0.802662 0.759427 -0.201465 -0.618613 
0.648673 -0.216902 -0.729505 -0.820338 -0.27338 -0.502303 -0.599862 -0.265599 -0.754734 
0.663686 -0.350967 -0.660563 0.653363 -0.36266 -0.664526 0.636735 -0.345714 -0.689239 
0.428503 -0.377634 -0.82084 -0.429846 -0.372344 -0.822552 -0.694199 -0.539373 -0.476617 
-0.66378 -0.566174 -0.488716 -0.635827 -0.534778 -0.556539 0.484239 -0.544376 -0.684958 
0.403065 -0.610594 -0.681699 0.415456 -0.5528 -0.722363 0.263947 -0.720637 -0.641104 
0.244996 -0.538428 -0.806271 0.150826 -0.740012 -0.655465 0.129225 -0.533535 -0.835847 
0.174739 -0.532187 -0.828398 -0.435901 -0.441382 -0.784329 -0.619813 -0.600678 -0.504993 
-0.60009 -0.622341 -0.502576 -0.571009 -0.575759 -0.585192 0.163366 -0.738317 -0.654369 
0.204561 -0.719357 -0.663838 0.192735 -0.6988 -0.688863 0.242307 -0.750938 -0.614312 
0.227306 -0.640902 -0.733197 0.171519 -0.851455 -0.495587 0.176596 -0.628563 -0.757445 
0.0704198 -0.893708 -0.443089 0.0834289 -0.613882 -0.784977 0.103173 -0.929186 -0.354922 
-0.447253 -0.814887 -0.368678 -0.437352 -0.563811 -0.700601 -0.57592 -0.68325 -0.448871 
-0.573091 -0.688029 -0.445177 -0.571197 -0.671516 -0.472018 0.102503 -0.938007 -0.331113 
0.105366 -0.957157 -0.269718 0.120995 -0.91406 -0.387111 -0.0196211 -0.977203 -0.211399 
-0.00363024 -0.921718 -0.387844 -0.269346 -0.929489 -0.251996 -0.209783 -0.951055 -0.226903 
-0.221303 -0.922675 -0.315746 0.203883 0.711255 -0.672717 0.0865131 0.705994 -0.702914 
-0.0302161 0.676913 -0.735442 -0.0768151 0.639337 -0.76508 -0.032062 0.631581 -0.774646 
-0.0832602 0.648023 -0.757056 0.299886 0.696229 -0.652176 0.204342 0.711267 -0.672565 
0.231991 0.707841 -0.66719 0.203614 0.710268 -0.67384 0.0756215 0.648031 -0.75785 
-0.0374626 0.613159 -0.789071 -0.0760509 0.604835 -0.792711 -0.0320765 0.626887 -0.77845 
-0.0934818 0.646599 -0.75708 -0.0827219 0.638588 -0.76509 -0.168805 0.628967 -0.758885 
-0.330415 0.553529 -0.764482 0.380174 0.663456 -0.644433 0.435409 0.616219 -0.656272 
0.272059 0.606775 -0.746865 0.182774 0.535894 -0.824264 0.0762726 0.436878 -0.896281 
0.00684706 0.359992 -0.93293 -0.0599644 0.336626 -0.939727 -0.0788776 0.339482 -0.937299 
-0.0124729 0.376134 -0.926481 -0.0344301 0.411709 -0.910665 -0.160187 0.438544 -0.884319 
-0.402588 0.484866 -0.77642 -0.314494 0.435404 -0.843515 -0.416057 0.446645 -0.792089 
0.54915 0.407254 -0.72978 0.556413 0.352868 -0.752256 0.402342 0.34554 -0.847775 
0.223972 0.322783 -0.919591 0.107595 0.246702 -0.9631 -0.0773329 0.196383 -0.977473 
-0.0421417 0.166647 -0.985116 0.0421042 0.194489 -0.980001 -0.00744826 0.232292 -0.972618 
-0.124788 0.230455 -0.965048 -0.280287 0.251058 -0.926504 -0.464381 0.383884 -0.798113 
-0.362056 0.33183 -0.871094 -0.47092 0.29332 -0.831984 0.583067 0.239515 -0.776315 
0.497571 0.180796 -0.848372 0.312382 0.127299 -0.941388 -0.086029 0.0682488 -0.993952 
0.0584714 0.0354566 -0.997659 -0.142706 0.0714983 -0.987179 -0.231694 0.0880626 -0.968794 
-0.310118 0.186859 -0.932154 -0.4612 0.239494 -0.854364 -0.431809 0.221576 -0.874326 
0.57224 0.0136142 -0.819973 0.448063 -0.0193958 -0.893791 0.336431 -0.0472332 -0.940523 
-0.219068 -0.0268965 -0.975339 0.0475897 0.014671 -0.998759 -0.166851 0.0112775 -0.985918 
-0.219396 0.049597 -0.974374 -0.543772 0.147415 -0.826184 -0.364556 0.101149 -0.925672 
0.512874 -0.113876 -0.850878 0.428903 -0.113595 -0.89618 0.30367 -0.162179 -0.938873 
0.222259 -0.14581 -0.964023 -0.101133 0.0379535 -0.994149 -0.0378163 -0.148094 -0.98825 
0.0290028 0.0684339 -0.997234 -0.111688 -0.103862 -0.988301 -0.159106 -0.0969473 -0.98249 
-0.229523 -0.108714 -0.967213 -0.525922 -0.118123 -0.84229 -0.347585 -0.118712 -0.930103 
0.411262 -0.194373 -0.890552 0.395506 -0.235647 -0.887719 0.385846 -0.189431 -0.902906 
0.286867 -0.251347 -0.924409 0.270903 -0.272766 -0.923152 -0.139134 -0.104399 -0.984755 
-0.145415 -0.124961 -0.981448 -0.174006 -0.163173 -0.971132 -0.250831 -0.21041 -0.944887 
-0.39837 -0.210554 -0.892731 -0.393788 -0.281217 -0.875127 -0.356106 -0.194029 -0.91408 
0.303239 -0.343828 -0.888723 0.220635 -0.372956 -0.901235 0.220222 -0.327114 -0.918966 
0.155827 -0.475523 -0.865792 0.227227 -0.417178 -0.87996 0.184694 -0.526571 -0.829826 
0.265167 -0.459658 -0.847585 0.254371 -0.398095 -0.881372 -0.128894 -0.315712 -0.94006 
-0.0273148 -0.22934 -0.972963 -0.0774674 -0.131923 -0.988228 -0.173192 -0.13191 -0.976015 
-0.247418 -0.21158 -0.945526 -0.372403 -0.341387 -0.863001 -0.338202 -0.357301 -0.870606 
-0.26629 -0.291609 -0.918724 0.198133 -0.551333 -0.810416 0.232909 -0.604682 -0.761651 
0.25611 -0.602089 -0.756239 0.174992 -0.613327 -0.7702 0.158128 -0.597294 -0.786279 
0.0722682 -0.59451 -0.800834 -0.0590805 -0.533738 -0.843584 0.00131576 -0.397689 -0.91752 
0.100428 -0.321795 -0.941468 -0.0385179 -0.245442 -0.968646 -0.215243 -0.24428 -0.945515 
-0.394271 -0.360971 -0.845133 -0.390877 -0.421568 -0.818227 -0.34049 -0.287021 -0.895369 
0.110252 -0.526436 -0.843036 0.112929 -0.521648 -0.845654 0.112389 -0.519527 -0.84703 
0.12871 -0.554304 -0.822302 0.12376 -0.483965 -0.866292 0.0103447 -0.609038 -0.793074 
-0.00371158 -0.468065 -0.883686 -0.305388 -0.485364 -0.819244 -0.219073 -0.539903 -0.812718 
-0.205132 -0.440644 -0.87393 0.0239151 0.22535 -0.973984 -0.045861 0.170513 -0.984288 
0.190922 0.146845 -0.970559 0.0896184 0.232086 -0.968558 0.10022 0.230766 -0.967834 
0.0160033 0.178684 -0.983776 -0.0588662 0.170508 -0.983596 -0.0486123 0.156755 -0.98644 
-0.0728145 0.195647 -0.977968 -0.000923689 0.171153 -0.985244 0.201659 0.0960092 -0.974739 
0.180544 0.0872666 -0.979688 0.0314478 0.0916987 -0.99529 -0.0368235 0.0479149 -0.998172 
0.0163372 0.0291263 -0.999442 -0.0806839 0.0907923 -0.992596 -0.0476662 0.194825 -0.979679 
0.0477098 0.042336 -0.997964 -0.13143 0.0709972 -0.98878 0.00922096 0.0669745 -0.997712 
-0.130571 0.0372511 -0.990739 0.204159 -0.0553254 -0.977373 0.198577 -0.0810135 -0.976731 
0.189833 -0.0555319 -0.980245 0.0633921 -0.0104525 -0.997934 -0.0503274 0.0169296 -0.998589 
-0.0812515 0.0303005 -0.996233 0.0984999 -0.0393962 -0.994357 -0.217143 -0.0277285 -0.975746 
-0.0378362 -0.143284 -0.988958 -0.0186741 -0.0852999 -0.99618 0.039086 0.00214316 -0.999234 
0.0603089 0.0597057 -0.996393 0.0284516 -0.0203496 -0.999388 -0.113951 -0.0185831 -0.993312 
-0.110037 -0.0372084 -0.993231 -0.10966 -0.021123 -0.993745 0.183607 -0.124671 -0.975062 
0.103575 -0.0812279 -0.991299 -0.0989524 0.0375899 -0.994382 -0.0634987 0.0303397 -0.997521 
-0.0992 0.0411416 -0.994217 -0.0289806 -0.0553282 -0.998048 0.0598357 0.0653642 -0.996066 
0.0183033 0.0357912 -0.999192 0.0622161 0.0654156 -0.995917 -0.0677856 -0.0816675 -0.994352 
-0.0874979 -0.0847515 -0.992553 -0.0278876 -0.0612039 -0.997736 0.23844 -0.220146 -0.945876 
0.238562 -0.226866 -0.944256 0.236665 -0.21757 -0.946918 0.231276 -0.356225 -0.905326 
0.0680917 -0.0820286 -0.994301 -0.0684659 0.0917475 -0.993426 -0.016472 0.0826259 -0.996445 
-0.0742846 -0.180854 -0.980701 0.00241928 -0.0067567 -0.999974 -0.119915 -0.0947966 -0.988248 
-0.0635957 -0.130074 -0.989463 -0.0794386 -0.0736923 -0.994112 0.227596 -0.370635 -0.900461 
0.101335 -0.361684 -0.926777 0.0704724 -0.21969 -0.973021 -0.13814 -0.257415 -0.956376 
-0.12866 -0.292518 -0.947565 -0.139145 -0.178745 -0.974007 
