# vtk DataFile Version 4.2
vtk output
ASCII
DATASET POLYDATA
POINTS 494 float
-26.07 -29.1405 -19.1025 -18.3745 -29.1405 -22.5206 -10.679 -29.1405 -24.382 
-2.98357 -29.1405 -24.7755 4.71191 -29.1405 -24.9589 12.4074 -29.1405 -24.6793 
20.1029 -29.1405 -22.9579 27.7984 -29.1405 -19.9084 -33.7655 -21.4451 -19.77 
-26.07 -21.4451 -23.6276 -18.3745 -21.4451 -25.2923 -10.679 -21.4451 -25.5252 
-2.98357 -21.4451 -25.795 4.71191 -21.4451 -25.8749 12.4074 -21.4451 -25.7653 
20.1029 -21.4451 -25.4229 27.7984 -21.4451 -24.1113 35.4938 -21.4451 -22.5821 
43.1893 -21.4451 -19.4958 -33.7655 -13.7496 -22.4594 -26.07 -13.7496 -25.1417 
-18.3745 -13.7496 -25.5386 -10.679 -13.7496 -25.1792 -2.98357 -13.7496 -24.5495 
4.71191 -13.7496 -24.6814 12.4074 -13.7496 -24.7414 20.1029 -13.7496 -25.3602 
27.7984 -13.7496 -25.5649 35.4938 -13.7496 -24.91 43.1893 -13.7496 -23.3776 
-41.461 -6.0541 -18.7027 -33.7655 -6.0541 -23.161 -26.07 -6.0541 -24.613 
-18.3745 -6.0541 -25.0382 -10.679 -6.0541 -24.8903 -2.98357 -6.0541 -25.0828 
4.71191 -6.0541 -25.4048 12.4074 -6.0541 -24.8541 20.1029 -6.0541 -25.0027 
27.7984 -6.0541 -25.2016 35.4938 -6.0541 -24.8768 43.1893 -6.0541 -23.8041 
50.8848 -6.0541 -19.6133 -33.7655 1.64139 -22.259 -26.07 1.64139 -23.8278 
-18.3745 1.64139 -24.3728 -10.679 1.64139 -24.5179 -2.98357 1.64139 -25.1323 
4.71191 1.64139 -25.9246 12.4074 1.64139 -25.1444 20.1029 1.64139 -24.5204 
27.7984 1.64139 -24.5125 35.4938 1.64139 -24.2738 43.1893 1.64139 -22.4526 
-33.7655 9.33687 -19.555 -26.07 9.33687 -21.8013 -18.3745 9.33687 -22.5426 
-10.679 9.33687 -22.4217 -2.98357 9.33687 -22.3656 4.71191 9.33687 -23.4353 
12.4074 9.33687 -23.6158 20.1029 9.33687 -23.4741 27.7984 9.33687 -23.5392 
35.4938 9.33687 -22.5885 43.1893 9.33687 -20.4018 -18.3745 17.0323 -18.6033 
-10.679 17.0323 -19.4633 -2.98357 17.0323 -20.5365 4.71191 17.0323 -21.2838 
12.4074 17.0323 -21.3509 20.1029 17.0323 -21.5949 27.7984 17.0323 -21.8246 
35.4938 17.0323 -20.5405 -26.07 -29.6204 -18.5361 -18.3745 -33.0006 -18.5361 
-10.679 -34.8686 -18.5361 -2.98357 -35.9261 -18.5361 4.71191 -36.2012 -18.5361 
12.4074 -35.2678 -18.5361 20.1029 -33.3084 -18.5361 27.7984 -30.3984 -18.5361 
-26.8407 -29.1405 -18.5361 -33.7655 -23.1085 -18.5361 31.3941 -29.1405 -18.5361 
35.4938 -27.2728 -18.5361 35.4938 -29.1405 -14.4757 43.1893 -22.5429 -18.5361 
-35.3377 -21.4451 -18.5361 44.4502 -21.4451 -18.5361 -39.9365 -13.7496 -18.5361 
-41.461 -7.06902 -18.5361 -41.461 -13.7496 -16.9819 49.4119 -13.7496 -18.5361 
50.8848 -9.99238 -18.5361 50.8848 -13.7496 -16.9746 -41.6421 -6.0541 -18.5361 
-41.461 -4.17462 -18.5361 52.2409 -6.0541 -18.5361 50.8848 -0.228472 -18.5361 
-40.6211 1.64139 -18.5361 -41.461 1.64139 -17.9655 50.2861 1.64139 -18.5361 
50.8848 1.64139 -18.0894 -35.6832 9.33687 -18.5361 -41.461 9.33687 -14.2826 
-33.7655 10.9273 -18.5361 -26.07 15.0868 -18.5361 46.5261 9.33687 -18.5361 
43.1893 15.5198 -18.5361 50.8848 9.33687 -15.0919 -33.7655 17.0323 -13.7801 
-18.7957 17.0323 -18.5361 -26.07 17.0323 -17.1512 -18.3745 17.1316 -18.5361 
-10.679 18.615 -18.5361 -2.98357 20.8945 -18.5361 4.71191 22.1757 -18.5361 
12.4074 22.6362 -18.5361 20.1029 23.7886 -18.5361 27.7984 23.5223 -18.5361 
41.8641 17.0323 -18.5361 35.4938 21.4952 -18.5361 43.1893 17.0323 -17.9654 
-26.07 24.7278 -11.0315 -18.3745 24.7278 -13.0832 -10.679 24.7278 -14.5944 
-2.98357 24.7278 -16.2748 4.71191 24.7278 -16.9748 12.4074 24.7278 -17.3285 
20.1029 24.7278 -18.0278 27.7984 24.7278 -17.8195 35.4938 24.7278 -16.5496 
43.1893 24.7278 -10.9836 -2.98357 32.4233 -10.9296 4.71191 32.4233 -11.5655 
12.4074 32.4233 -11.4337 20.1029 32.4233 -11.356 -26.07 -32.6598 -10.8406 
-18.3745 -35.129 -10.8406 -10.679 -36.3029 -10.8406 -2.98357 -36.5385 -10.8406 
4.71191 -36.2558 -10.8406 12.4074 -35.5318 -10.8406 20.1029 -34.2632 -10.8406 
27.7984 -32.4918 -10.8406 35.4938 -30.1795 -10.8406 -32.5152 -29.1405 -10.8406 
-33.7655 -28.3406 -10.8406 -33.7655 -29.1405 -7.51387 37.6321 -29.1405 -10.8406 
35.4938 -29.1405 -6.98006 43.1893 -26.1305 -10.8406 -40.9425 -21.4451 -10.8406 
-41.461 -20.6664 -10.8406 -41.461 -21.4451 -8.61583 48.8912 -21.4451 -10.8406 
50.8848 -19.138 -10.8406 -45.5121 -13.7496 -10.8406 54.5697 -13.7496 -10.8406 
-47.6141 -6.0541 -10.8406 57.1752 -6.0541 -10.8406 -47.3041 1.64139 -10.8406 
-49.1565 1.64139 -4.09695 56.2888 1.64139 -10.8406 -44.5835 9.33687 -10.8406 
-41.461 13.7061 -10.8406 54.0192 9.33687 -10.8406 50.8848 16.8205 -10.8406 
-38.0832 17.0323 -10.8406 -41.461 17.0323 -7.68275 -33.7655 20.3738 -10.8406 
50.7715 17.0323 -10.8406 -26.4706 24.7278 -10.8406 -33.7655 24.7278 -6.68735 
-26.07 24.9866 -10.8406 -18.3745 27.9918 -10.8406 -10.679 30.9448 -10.8406 
27.7984 31.9259 -10.8406 35.4938 29.5509 -10.8406 43.3176 24.7278 -10.8406 
43.1893 24.842 -10.8406 -26.07 32.4233 -4.4753 -18.3745 32.4233 -7.48433 
-3.67858 32.4233 -10.8406 -10.679 32.4233 -9.87277 -2.98357 32.5517 -10.8406 
4.71191 33.3025 -10.8406 12.4074 33.059 -10.8406 23.9144 32.4233 -10.8406 
20.1029 32.9124 -10.8406 27.7984 32.4233 -9.51459 -2.98357 40.1188 -3.33423 
4.71191 40.1188 -3.38805 -33.7655 -30.1522 -3.14515 -26.07 -33.9776 -3.14515 
-18.3745 -35.8642 -3.14515 -10.679 -36.2079 -3.14515 -2.98357 -35.3021 -3.14515 
4.71191 -34.271 -3.14515 12.4074 -33.2861 -3.14515 20.1029 -32.0926 -3.14515 
27.7984 -30.2804 -3.14515 -35.1499 -29.1405 -3.14515 -41.461 -23.0126 -3.14515 
20.1029 -29.1405 3.39968 31.463 -29.1405 -3.14515 27.7984 -29.1405 -1.03318 
35.4938 -27.8846 -3.14515 43.1893 -24.3978 -3.14515 -42.6685 -21.4451 -3.14515 
46.7126 -21.4451 -3.14515 43.1893 -21.4451 1.01457 50.8848 -17.3185 -3.14515 
-46.7924 -13.7496 -3.14515 53.5551 -13.7496 -3.14515 50.8848 -13.7496 1.16932 
-48.9605 -6.0541 -3.14515 -49.1565 -2.48629 -3.14515 56.5265 -6.0541 -3.14515 
-49.387 1.64139 -3.14515 -49.1565 2.9857 -3.14515 56.2619 1.64139 -3.14515 
-47.9476 9.33687 -3.14515 54.3612 9.33687 -3.14515 50.8848 16.926 -3.14515 
50.8848 9.33687 3.09925 -44.1276 17.0323 -3.14515 -41.461 20.5329 -3.14515 
50.8277 17.0323 -3.14515 -37.2441 24.7278 -3.14515 -33.7655 28.0389 -3.14515 
35.4938 30.9389 -3.14515 44.2752 24.7278 -3.14515 43.1893 25.7067 -3.14515 
43.1893 24.7278 -1.13147 -27.8096 32.4233 -3.14515 -26.07 33.5811 -3.14515 
-18.3745 36.7378 -3.14515 -10.679 38.9767 -3.14515 12.4074 38.8655 -3.14515 
20.1029 36.8918 -3.14515 32.2611 32.4233 -3.14515 27.7984 34.2423 -3.14515 
27.7984 32.4233 2.77878 -18.3745 40.1188 3.22114 -3.81866 40.1188 -3.14515 
-10.679 40.1188 -0.634334 -2.98357 40.2342 -3.14515 5.63721 40.1188 -3.14515 
4.71191 40.2743 -3.14515 -33.7655 -30.5794 4.55033 -26.07 -34.8144 4.55033 
-18.3745 -36.2576 4.55033 -10.679 -35.8842 4.55033 -2.98357 -34.1421 4.55033 
4.71191 -32.2107 4.55033 12.4074 -30.6614 4.55033 -35.5787 -29.1405 4.55033 
-41.461 -22.8325 4.55033 18.2625 -29.1405 4.55033 12.4074 -29.1405 11.1006 
20.1029 -28.6049 4.55033 27.7984 -25.9037 4.55033 35.4938 -22.1728 4.55033 
-42.4477 -21.4451 4.55033 -41.461 -21.4451 8.22132 27.7984 -21.4451 9.73581 
37.034 -21.4451 4.55033 35.4938 -21.4451 5.39468 43.1893 -17.7206 4.55033 
-46.1787 -13.7496 4.55033 35.4938 -13.7496 11.2535 47.2705 -13.7496 4.55033 
43.1893 -13.7496 7.28352 50.8848 -7.96697 4.55033 -48.5245 -6.0541 4.55033 
-49.1565 -1.38828 4.55033 43.1893 -6.0541 10.2283 51.6895 -6.0541 4.55033 
50.8848 -6.0541 5.35239 -49.5489 1.64139 4.55033 -49.1565 4.34822 4.55033 
-49.1565 1.64139 6.31181 43.1893 1.64139 10.3593 52.0317 1.64139 4.55033 
50.8848 6.06074 4.55033 50.8848 1.64139 5.7175 -48.4191 9.33687 4.55033 
35.4938 9.33687 12.1966 49.6181 9.33687 4.55033 43.1893 9.33687 8.82777 
-45.63 17.0323 4.55033 -41.461 23.7142 4.55033 35.4938 17.0323 10.3685 
44.8252 17.0323 4.55033 43.1893 19.2508 4.55033 43.1893 17.0323 5.84736 
-40.6966 24.7278 4.55033 -33.7655 32.2667 4.55033 27.7984 31.6885 4.55033 
27.7984 24.7278 11.4491 38.1887 24.7278 4.55033 35.4938 26.6233 4.55033 
35.4938 24.7278 6.13279 -33.5745 32.4233 4.55033 -26.07 38.0342 4.55033 
12.4074 38.6329 4.55033 26.4515 32.4233 4.55033 20.1029 35.4387 4.55033 
20.1029 32.4233 8.88408 -20.2658 40.1188 4.55033 -18.3745 40.6926 4.55033 
-10.679 41.97 4.55033 -2.98357 41.8861 4.55033 -2.98357 40.1188 11.2705 
7.30033 40.1188 4.55033 4.71191 40.8331 4.55033 4.71191 40.1188 6.29436 
-33.7655 -29.1503 12.2458 -26.07 -33.5071 12.2458 -18.3745 -34.943 12.2458 
-10.679 -34.3854 12.2458 -2.98357 -32.5444 12.2458 4.71191 -30.6941 12.2458 
-33.7766 -29.1405 12.2458 -33.7655 -29.1405 12.2626 -2.98357 -29.1405 19.6208 
11.2666 -29.1405 12.2458 4.71191 -29.1405 15.9939 12.4074 -28.8519 12.2458 
20.1029 -24.5837 12.2458 -40.3095 -21.4451 12.2458 -41.461 -19.1457 12.2458 
24.4361 -21.4451 12.2458 20.1029 -21.4451 16.1516 27.7984 -18.0856 12.2458 
-43.8553 -13.7496 12.2458 -41.461 -13.7496 16.7669 33.4635 -13.7496 12.2458 
27.7984 -13.7496 14.8902 35.4938 -10.5275 12.2458 -46.2287 -6.0541 12.2458 
27.7984 -6.0541 16.5344 38.4278 -6.0541 12.2458 35.4938 -6.0541 13.4715 
-47.7629 1.64139 12.2458 27.7984 1.64139 16.3065 38.7479 1.64139 12.2458 
35.4938 9.06764 12.2458 35.4938 1.64139 13.6322 -47.0729 9.33687 12.2458 
20.1029 9.33687 19.7741 35.3608 9.33687 12.2458 27.7984 9.33687 15.0897 
-44.6982 17.0323 12.2458 -41.461 22.772 12.2458 -41.461 17.0323 18.0872 
20.1029 17.0323 18.026 31.629 17.0323 12.2458 27.7984 22.5926 12.2458 
27.7984 17.0323 13.9469 -40.1886 24.7278 12.2458 -33.7655 32.0533 12.2458 
-33.7655 24.7278 19.8248 12.4074 24.7278 18.2063 26.0979 24.7278 12.2458 
20.1029 28.678 12.2458 20.1029 24.7278 14.8045 -33.3362 32.4233 12.2458 
-26.07 37.6135 12.2458 -26.07 32.4233 18.8959 -2.98357 39.8087 12.2458 
4.71191 37.0254 12.2458 4.71191 32.4233 16.8991 14.1974 32.4233 12.2458 
12.4074 33.2718 12.2458 12.4074 32.4233 13.0517 -19.1337 40.1188 12.2458 
-18.3745 40.3575 12.2458 -18.3745 40.1188 12.7042 -4.90799 40.1188 12.2458 
-10.679 40.9104 12.2458 -10.679 40.1188 13.734 -26.07 -29.2361 19.9413 
-18.3745 -30.8546 19.9413 -10.679 -30.4693 19.9413 -26.237 -29.1405 19.9413 
[...]
POINT_DATA 494
SCALARS ImageScalars float
LOOKUP_TABLE default
0 0 0 0 0 0 0 0 0 
0 0 0 0 0 0 0 0 0 
0 0 0 0 0 0 0 0 0 
0 0 0 0 0 0 0 0 0 
0 0 0 0 0 0 0 0 0 
0 0 0 0 0 0 0 0 0 
0 0 0 0 0 0 0 0 0 
0 0 0 0 0 0 0 0 0 
0 0 0 0 0 0 0 0 0 
0 0 0 0 0 0 0 0 0 
0 0 0 0 0 0 0 0 0 
0 0 0 0 0 0 0 0 0 
0 0 0 0 0 0 0 0 0 
0 0 0 0 0 0 0 0 0 
0 0 0 0 0 0 0 0 0 
0 0 0 0 0 0 0 0 0 
0 0 0 0 0 0 0 0 0 
0 0 0 0 0 0 0 0 0 
0 0 0 0 0 0 0 0 0 
0 0 0 0 0 0 0 0 0 
0 0 0 0 0 0 0 0 0 
0 0 0 0 0 0 0 0 0 
0 0 0 0 0 0 0 0 0 
0 0 0 0 0 0 0 0 0 
0 0 0 0 0 0 0 0 0 
0 0 0 0 0 0 0 0 0 
0 0 0 0 0 0 0 0 0 
0 0 0 0 0 0 0 0 0 
0 0 0 0 0 0 0 0 0 
0 0 0 0 0 0 0 0 0 
0 0 0 0 0 0 0 0 0 
0 0 0 0 0 0 0 0 0 
0 0 0 0 0 0 0 0 0 
0 0 0 0 0 0 0 0 0 
0 0 0 0 0 0 0 0 0 
0 0 0 0 0 0 0 0 0 
0 0 0 0 0 0 0 0 0 
0 0 0 0 0 0 0 0 0 
0 0 0 0 0 0 0 0 0 
0 0 0 0 0 0 0 0 0 
0 0 0 0 0 0 0 0 0 
0 0 0 0 0 0 0 0 0 
0 0 0 0 0 0 0 0 0 
0 0 0 0 0 0 0 0 0 
0 0 0 0 0 0 0 0 0 
0 0 0 0 0 0 0 0 0 
0 0 0 0 0 0 0 0 0 
0 0 0 0 0 0 0 0 0 
0 0 0 0 0 0 0 0 0 
0 0 0 0 0 0 0 0 0 
0 0 0 0 0 0 0 0 0 
0 0 0 0 0 0 0 0 0 
0 0 0 0 0 0 0 0 0 
0 0 0 0 0 0 0 0 0 
0 0 0 0 0 0 0 0 
NORMALS Normals float
0.446683 0.694146 0.564478 0.274936 0.57953 0.767173 0.131039 0.418349 0.898784 
0.034998 0.345176 0.937885 -0.00470909 0.3291 0.944283 -0.118859 0.427281 0.896272 
-0.273235 0.551805 0.787943 -0.317285 0.723327 0.613293 0.542528 0.44242 0.714092 
0.320581 0.30796 0.895762 0.113197 0.161321 0.980389 0.032966 0.039095 0.998692 
0.022725 -0.0188284 0.999564 -0.00179073 -0.0215355 0.999766 -0.0285463 -0.00644944 0.999572 
-0.105648 0.118076 0.987368 -0.170865 0.300638 0.938308 -0.279271 0.425574 0.860752 
-0.491544 0.553005 0.672734 0.422762 0.181723 0.887834 0.178647 0.0555297 0.982345 
0.000888172 -0.0160996 0.99987 -0.0642612 -0.0412759 0.997079 -0.0322752 -0.0474576 0.998352 
0.0126152 -0.0320888 0.999405 0.0438826 -0.0577019 0.997369 0.0534649 -0.0270989 0.998202 
-0.0270308 0.070807 0.997124 -0.124229 0.141174 0.982159 -0.376848 0.237831 0.895222 
0.6412 0.0304907 0.766767 0.324827 -0.01165 0.945702 0.111972 -0.0817687 0.990341 
0.01757 -0.0750757 0.997023 0.00247162 -0.0423854 0.999098 0.0337217 0.0385167 0.998689 
-0.0159686 0.0815958 0.996538 -0.0253242 0.0257666 0.999347 0.0225274 -0.0543045 0.99827 
-0.00903105 -0.0676674 0.997667 -0.0805762 -0.0389895 0.995986 -0.309659 -0.0582509 0.949062 
-0.602637 0.0369148 0.797161 0.321386 -0.207854 0.923855 0.125812 -0.171366 0.977141 
0.0433475 -0.155909 0.98682 0.047101 -0.156888 0.986493 0.0913638 -0.17546 0.980238 
-0.00111744 -0.123789 0.992308 -0.0901208 -0.07876 0.992812 -0.0399768 -0.0992464 0.99426 
-0.0153793 -0.105315 0.99432 -0.121613 -0.143595 0.982136 -0.316007 -0.192655 0.928991 
0.355742 -0.424181 0.832777 0.175106 -0.37583 0.909994 0.0363998 -0.341316 0.939244 
-0.0109258 -0.305739 0.952053 0.0626162 -0.279411 0.958128 0.0783872 -0.288049 0.954402 
0.00194809 -0.233916 0.972255 -0.00484889 -0.183072 0.983088 -0.0548855 -0.165749 0.98464 
-0.182437 -0.231132 0.955665 -0.372461 -0.262033 0.890287 0.120503 -0.540547 0.832639 
0.113911 -0.448404 0.886543 0.111158 -0.350213 0.930051 0.0497472 -0.369671 0.92783 
0.0194504 -0.368312 0.929499 0.0281605 -0.320111 0.946961 -0.0659657 -0.331086 0.941292 
-0.213975 -0.325282 0.92109 0.448921 0.716582 0.533835 0.297086 0.81421 0.4988 
0.177976 0.877693 0.444949 0.080913 0.934166 0.347545 -0.0404123 0.952203 0.302782 
-0.175637 0.917222 0.35757 -0.296518 0.851903 0.431669 -0.325433 0.788272 0.522227 
0.463187 0.703562 0.538942 0.560879 0.510306 0.651923 -0.352046 0.770329 0.531655 
-0.378311 0.725384 0.575064 -0.393576 0.886211 0.244393 -0.510372 0.593112 0.622687 
0.583363 0.464986 0.66594 -0.539881 0.560822 0.627699 0.639164 0.256085 0.725182 
0.650961 0.0620227 0.756573 0.716147 0.293374 0.633297 -0.656811 0.323038 0.681355 
-0.664939 0.193989 0.721266 -0.737544 0.366139 0.567425 0.648638 0.0318509 0.760431 
0.634463 -0.0231189 0.772608 -0.649888 0.0461754 0.758626 -0.631186 -0.152321 0.760527 
0.56798 -0.193585 0.799952 0.608217 -0.193159 0.76991 -0.610546 -0.212653 0.762897 
-0.647931 -0.214514 0.730869 0.418398 -0.430527 0.799744 0.63572 -0.436229 0.63684 
0.366321 -0.465155 0.805878 0.21871 -0.538728 0.813596 -0.497079 -0.258109 0.828428 
-0.387526 -0.381453 0.839236 -0.747386 -0.301554 0.592013 0.38983 -0.609476 0.690342 
0.126582 -0.543371 0.829894 0.232489 -0.583776 0.777917 0.121462 -0.541426 0.831929 
0.12894 -0.471337 0.872477 0.123097 -0.452535 0.88321 0.0548906 -0.493131 0.868222 
0.0480714 -0.494052 0.868102 0.0275334 -0.507167 0.861408 -0.0655327 -0.520592 0.851287 
-0.354977 -0.397935 0.845955 -0.240244 -0.461427 0.854031 -0.406073 -0.426007 0.808469 
0.296852 -0.582761 0.756485 0.185166 -0.560688 0.807058 0.171286 -0.528066 0.83175 
0.1283 -0.537937 0.833164 0.0561764 -0.545493 0.836231 0.0557665 -0.541184 0.839053 
0.0268697 -0.537277 0.842978 -0.0704095 -0.566105 0.821321 -0.28874 -0.619016 0.730375 
-0.603262 -0.712467 0.358422 0.0861099 -0.568518 0.818152 0.0268824 -0.61137 0.790888 
-0.0106788 -0.67568 0.737118 -0.0525234 -0.76135 0.646211 0.374722 0.893984 0.245716 
0.219479 0.961897 0.163041 0.0886037 0.99343 0.0724272 -0.00302456 0.998915 -0.0464791 
-0.0677813 0.990249 -0.121705 -0.133252 0.98331 -0.123877 -0.192973 0.978365 -0.0745853 
-0.264974 0.964219 -0.00839428 -0.371581 0.928381 0.00603012 0.513861 0.807407 0.289897 
0.546196 0.779806 0.305897 0.540145 0.81283 0.218062 -0.412885 0.91052 0.0218769 
-0.350431 0.917156 -0.189795 -0.540191 0.838197 0.0749612 0.766282 0.554004 0.325409 
0.781875 0.53064 0.327249 0.790377 0.558538 0.251673 -0.706182 0.703015 0.0841216 
-0.780274 0.613894 0.119614 0.87212 0.354351 0.337404 -0.891565 0.41965 0.170311 
0.923098 0.0983872 0.371766 -0.972003 0.120265 0.201857 0.895908 -0.144996 0.41991 
0.984758 -0.0651368 0.161276 -0.943029 -0.188659 0.274052 0.745629 -0.42231 0.515453 
0.63604 -0.519317 0.570757 -0.882057 -0.34605 0.319727 -0.814605 -0.518804 0.259349 
0.51897 -0.594766 0.613941 0.661786 -0.567809 0.489523 0.417789 -0.624614 0.65978 
-0.811243 -0.524237 0.258959 0.306102 -0.584877 0.751146 0.499031 -0.636191 0.588413 
0.299758 -0.583821 0.754519 0.208324 -0.573922 0.791969 0.168574 -0.563306 0.808869 
-0.180003 -0.85467 0.486969 -0.354278 -0.850042 0.389763 -0.607238 -0.71328 0.349992 
-0.604076 -0.7157 0.350522 0.400379 -0.694685 0.597586 0.252054 -0.637466 0.728084 
0.0933161 -0.569048 0.816992 0.173612 -0.587549 0.790345 0.0857393 -0.571339 0.816223 
0.0161185 -0.632849 0.774107 -0.0180042 -0.692331 0.721355 -0.121361 -0.820016 0.559326 
-0.0640118 -0.775798 0.627726 -0.21738 -0.892218 0.395845 0.070219 -0.906528 0.416265 
-0.0800569 -0.928246 0.36325 0.535682 0.836601 0.114647 0.322808 0.937668 0.128739 
0.135422 0.988224 0.0712355 -0.0354967 0.99901 -0.0268298 -0.121399 0.980596 -0.153926 
-0.125459 0.957371 -0.260194 -0.129514 0.941347 -0.311596 -0.174294 0.92153 -0.346992 
-0.245316 0.895428 -0.371523 0.574259 0.811468 0.108381 0.790669 0.607301 0.0776399 
-0.252365 0.890727 -0.378045 -0.275641 0.8824 -0.381304 -0.256039 0.871894 -0.417426 
-0.317366 0.861158 -0.397097 -0.515538 0.773829 -0.367981 0.821269 0.565627 0.0747181 
-0.592678 0.713453 -0.373789 -0.498589 0.668071 -0.552349 -0.71773 0.606766 -0.341612 
0.9354 0.351979 0.0337402 -0.822975 0.465546 -0.325543 -0.700407 0.479242 -0.52892 
0.986267 0.157445 0.0498837 0.994449 0.0590813 0.0870674 -0.938041 0.169334 -0.302334 
0.98989 -0.056986 0.129887 0.985414 -0.101493 0.136597 -0.962298 -0.128243 -0.239867 
0.930241 -0.317169 0.184543 -0.918096 -0.330657 -0.218553 -0.828323 -0.518428 -0.212397 
-0.75145 -0.3032 -0.585997 0.786239 -0.526288 0.323804 0.717609 -0.585992 0.376364 
-0.826696 -0.520929 -0.21262 0.618118 -0.632267 0.467085 0.544473 -0.66123 0.516067 
-0.473489 -0.875168 -0.0994454 -0.67532 -0.721755 -0.151698 -0.652479 -0.743212 -0.14801 
-0.655749 -0.706989 -0.264876 0.44203 -0.703718 0.55623 0.406183 -0.718384 0.564748 
0.283652 -0.750441 0.596976 0.180902 -0.832044 0.524382 -0.208232 -0.939015 0.273661 
-0.284718 -0.951595 0.115775 -0.413181 -0.909273 -0.0500457 -0.348151 -0.937426 0.00484186 
-0.403513 -0.83711 -0.369357 0.245268 -0.937093 0.248394 0.0817048 -0.904482 0.418613 
0.146433 -0.915179 0.375507 0.0695383 -0.910652 0.40728 -0.0967582 -0.934813 0.341704 
-0.0807583 -0.932919 0.350914 0.582459 0.811385 -0.0489516 0.31833 0.947564 -0.028096 
0.0635812 0.996402 -0.0560414 -0.131363 0.985149 -0.110567 -0.228376 0.958927 -0.168236 
-0.214604 0.953029 -0.213732 -0.210318 0.943325 -0.25672 0.62864 0.775226 -0.0619437 
0.819999 0.560467 -0.116098 -0.252202 0.90216 -0.350003 -0.28821 0.90851 -0.302565 
-0.270524 0.881243 -0.387593 -0.318122 0.76875 -0.554818 -0.362693 0.686378 -0.630348 
0.843872 0.522643 -0.121339 0.829835 0.511231 -0.223646 -0.396396 0.629906 -0.667899 
-0.38555 0.663946 -0.640723 -0.371161 0.667293 -0.645724 -0.467096 0.542953 -0.697871 
0.92287 0.345759 -0.169593 -0.401752 0.364545 -0.840061 -0.565527 0.452244 -0.689677 
-0.472544 0.4341 -0.766981 -0.677781 0.257199 -0.688811 0.965288 0.202291 -0.165217 
0.98915 0.0751305 -0.126241 -0.456544 0.163304 -0.874585 -0.705553 0.18924 -0.682923 
-0.672518 0.189036 -0.715531 0.994933 -0.00773986 -0.10024 0.992041 -0.0895064 -0.0885644 
0.9884 0.0036614 -0.151826 -0.451166 -0.079118 -0.888926 -0.73774 -0.0897727 -0.66909 
-0.709303 -0.199852 -0.67598 -0.68305 -0.0877313 -0.725083 0.969585 -0.237476 -0.0592513 
-0.36124 -0.181947 -0.914549 -0.673853 -0.285797 -0.681353 -0.476788 -0.227827 -0.848981 
0.904847 -0.424441 0.0331979 0.80342 -0.584775 0.112043 -0.407512 -0.316106 -0.856744 
-0.589629 -0.421156 -0.689177 -0.570504 -0.462294 -0.67883 -0.549135 -0.396929 -0.735458 
0.784721 -0.606343 0.128691 0.639335 -0.744717 0.191437 -0.414084 -0.768209 -0.488252 
-0.431093 -0.456532 -0.778291 -0.521014 -0.566859 -0.638134 -0.48993 -0.612729 -0.620106 
-0.486687 -0.534012 -0.691351 0.634631 -0.7484 0.19272 0.446792 -0.86952 0.210503 
-0.321533 -0.908415 -0.267206 -0.409599 -0.78656 -0.462116 -0.393599 -0.840429 -0.372504 
-0.40439 -0.713747 -0.571869 0.280288 -0.940723 0.190996 0.231863 -0.956071 0.179357 
0.07118 -0.992568 0.0987049 -0.0699561 -0.997314 -0.0217056 -0.187421 -0.90983 -0.370247 
-0.239306 -0.951987 -0.190928 -0.200205 -0.966993 -0.157617 -0.228973 -0.94294 -0.241736 
0.610339 0.732056 -0.302621 0.307402 0.90301 -0.300128 0.051658 0.952285 -0.300807 
-0.146136 0.941041 -0.305101 -0.226735 0.927004 -0.298755 -0.220359 0.935354 -0.276684 
0.610679 0.73175 -0.302675 0.6104 0.731749 -0.303242 -0.178373 0.80416 -0.567018 
-0.289107 0.906463 -0.307803 -0.221505 0.879212 -0.421809 -0.306134 0.89762 -0.317113 
-0.508309 0.708965 -0.488866 0.795929 0.496217 -0.346794 0.826809 0.442087 -0.347773 
-0.472976 0.61308 -0.632792 -0.575741 0.547633 -0.607142 -0.436688 0.498162 -0.749091 
0.873928 0.325137 -0.361297 0.80585 0.327992 -0.492978 -0.417463 0.348561 -0.839184 
-0.486502 0.328912 -0.809402 -0.391382 0.255986 -0.883907 0.906885 0.22554 -0.355938 
-0.449211 0.0745871 -0.890307 -0.396304 0.138515 -0.90761 -0.366433 0.131647 -0.921084 
0.94137 0.0480198 -0.333942 -0.407918 -0.0866916 -0.908894 -0.399054 -0.0760271 -0.91377 
-0.36131 -0.177984 -0.915302 -0.358595 -0.0755067 -0.930435 0.937149 -0.176071 -0.301248 
-0.569837 -0.170168 -0.803946 -0.361289 -0.181072 -0.914704 -0.404765 -0.140776 -0.90352 
0.874987 -0.390705 -0.285915 0.806012 -0.527894 -0.267718 0.73026 -0.40023 -0.553658 
-0.454089 -0.265429 -0.8505 -0.392415 -0.25109 -0.884853 -0.422278 -0.377713 -0.824023 
-0.412953 -0.200779 -0.888345 0.77527 -0.570883 -0.270277 0.64313 -0.720909 -0.258212 
0.475083 -0.456935 -0.752002 -0.365952 -0.432688 -0.82393 -0.416829 -0.440047 -0.79537 
-0.386011 -0.543993 -0.745029 -0.377111 -0.429611 -0.820501 0.634196 -0.728825 -0.258088 
0.445702 -0.847996 -0.286798 0.413926 -0.586546 -0.696153 -0.20498 -0.882227 -0.423862 
-0.325474 -0.753359 -0.571416 -0.373686 -0.601067 -0.706454 -0.357305 -0.634877 -0.685029 
-0.349291 -0.647874 -0.676945 -0.349063 -0.626112 -0.697237 0.212559 -0.938639 -0.271617 
0.188347 -0.943979 -0.270978 0.18769 -0.937403 -0.293339 -0.159547 -0.903867 -0.396949 
-0.0311823 -0.9459 -0.322955 -0.0392497 -0.920002 -0.389944 0.318971 0.705881 -0.632447 
0.0630496 0.773722 -0.630381 -0.106334 0.794683 -0.597639 0.32501 0.702979 -0.632605 
0.572862 0.513324 -0.639005 0.31888 0.702083 -0.636706 0.0697789 0.704807 -0.705959 
-0.168023 0.795449 -0.582262 -0.097665 0.740468 -0.664957 -0.17622 0.79195 -0.584604 
-0.225563 0.730511 -0.644573 -0.379145 0.628397 -0.67924 0.604937 0.47438 -0.639543 
0.559273 0.466819 -0.68505 0.292435 0.398881 -0.869124 0.0849623 0.38207 -0.920219 
-0.0565716 0.347976 -0.935795 -0.147403 0.362819 -0.920128 -0.208045 0.392327 -0.895989 
-0.500306 0.496485 -0.709364 -0.37617 0.469734 -0.798653 -0.574852 0.284622 -0.767161 
0.716974 0.323543 -0.617469 0.77107 0.23871 -0.590312 0.501054 0.307845 -0.808812 
-0.175702 0.0901606 -0.980306 -0.165159 0.107838 -0.980354 -0.272977 0.19782 -0.941462 
-0.560818 0.236928 -0.793315 -0.556109 0.231829 -0.798122 0.782775 0.20777 -0.586596 
0.759638 0.203955 -0.617537 0.410708 0.140929 -0.90081 -0.183331 0.0712686 -0.980464 
-0.101371 0.107142 -0.989062 -0.222022 0.111576 -0.968637 -0.54855 0.0348029 -0.835393 
-0.563247 0.0402834 -0.825306 0.778344 0.0398191 -0.626574 0.700885 0.0232754 -0.712895 
0.353486 -0.0624791 -0.933351 -0.123827 0.00779214 -0.992273 -0.299848 -0.0731593 -0.951178 
-0.591856 -0.101309 -0.799652 -0.578191 -0.163084 -0.799436 -0.620478 -0.104345 -0.777251 
0.735645 -0.171768 -0.655227 0.695271 -0.290153 -0.657579 0.675991 -0.168826 -0.71731 
0.348799 -0.218223 -0.911437 -0.204251 -0.185726 -0.961139 -0.565682 -0.174763 -0.805892 
-0.341194 -0.280922 -0.897034 0.622161 -0.385949 -0.681145 0.469861 -0.451838 -0.758336 
0.36197 -0.353034 -0.862755 0.160301 -0.265707 -0.950633 0.0798193 -0.170241 -0.982164 
0.0319008 -0.127775 -0.99129 -0.171738 -0.162339 -0.971675 -0.314872 -0.253729 -0.914591 
-0.398105 -0.312136 -0.862603 -0.35651 -0.382917 -0.852218 -0.339675 -0.345702 -0.874706 
0.467331 -0.452558 -0.759469 0.381058 -0.52279 -0.762552 0.297537 -0.375172 -0.877905 
0.159958 -0.237687 -0.95808 -0.00141912 -0.260932 -0.965356 -0.243054 -0.332336 -0.911305 
-0.37821 -0.408498 -0.830715 -0.388936 -0.471745 -0.791319 -0.388126 -0.375292 -0.841733 
0.348996 -0.555677 -0.754602 0.187495 -0.655967 -0.731132 0.19533 -0.521573 -0.830547 
-0.0813629 -0.683069 -0.725808 -0.0791013 -0.555469 -0.827766 -0.313667 -0.58595 -0.747178 
-0.288179 -0.61467 -0.734257 -0.286374 -0.578379 -0.76385 0.233371 0.232436 -0.944199 
0.0626853 0.29257 -0.954187 -0.0869142 0.219078 -0.971828 0.241155 0.228602 -0.943178 
0.230812 0.225673 -0.946466 0.0311266 0.173631 -0.984319 -0.147063 0.109562 -0.983041 
-0.108198 0.135001 -0.98492 0.327008 0.11985 -0.937391 0.163693 0.0755668 -0.983613 
-0.00759832 0.0435503 -0.999022 -0.17638 0.066357 -0.982083 -0.146969 0.0480945 -0.987971 
-0.159993 0.0558446 -0.985537 0.315124 -0.0650806 -0.946817 0.131422 -0.0753355 -0.98846 
0.00284109 -0.110818 -0.993837 -0.080844 -0.0512716 -0.995407 -0.120606 0.0165873 -0.992562 
-0.117247 0.027948 -0.992709 0.139797 -0.195413 -0.970706 0.117396 -0.19957 -0.972826 
0.113739 -0.193266 -0.974532 0.0226257 -0.197994 -0.979942 0.0156093 -0.203298 -0.978993 
0.0121666 -0.127731 -0.991734 -0.00601705 -0.128874 -0.991643 -0.127625 -0.0952188 -0.987241 
-0.127641 -0.0976084 -0.987006 -0.121364 -0.0880617 -0.988694 
