# vtk DataFile Version 4.2
vtk output
ASCII
DATASET POLYDATA
POINTS 548 float
-32.8063 -2.48515 -18.1151 -32.8063 5.45538 -18.2743 -40.7468 -34.2473 -10.324 
-32.8063 -34.2473 -10.7607 -24.8657 -34.2473 -10.9551 -16.9252 -34.2473 -11.3349 
-8.98467 -34.2473 -11.2116 -1.04415 -34.2473 -11.8954 6.89638 -34.2473 -12.2537 
14.8369 -34.2473 -12.3685 22.7774 -34.2473 -11.0774 -48.6873 -26.3067 -12.5321 
-40.7468 -26.3067 -14.4024 -32.8063 -26.3067 -14.2006 -24.8657 -26.3067 -13.4873 
-16.9252 -26.3067 -12.8417 -8.98467 -26.3067 -12.7473 -1.04415 -26.3067 -13.3419 
6.89638 -26.3067 -13.6249 14.8369 -26.3067 -13.2263 22.7774 -26.3067 -12.8784 
30.718 -26.3067 -13.014 38.6585 -26.3067 -11.9901 46.599 -26.3067 -11.3347 
-56.6278 -18.3662 -11.4758 -48.6873 -18.3662 -15.3417 -40.7468 -18.3662 -15.7595 
-32.8063 -18.3662 -16.5751 -24.8657 -18.3662 -15.0372 -16.9252 -18.3662 -13.9931 
-8.98467 -18.3662 -13.4891 -1.04415 -18.3662 -13.8249 6.89638 -18.3662 -13.4511 
14.8369 -18.3662 -13.1269 22.7774 -18.3662 -13.7355 30.718 -18.3662 -14.4612 
38.6585 -18.3662 -14.4345 46.599 -18.3662 -13.8376 54.5395 -18.3662 -11.9883 
-56.6278 -10.4257 -13.0047 -48.6873 -10.4257 -16.2408 -40.7468 -10.4257 -17.5865 
-32.8063 -2.8649 -18.0718 -32.8063 -10.4257 -17.2025 -24.8657 -10.4257 -16.1675 
-16.9252 -10.4257 -14.6704 -8.98467 -10.4257 -15.7379 -1.04415 -10.4257 -16.0509 
6.89638 -10.4257 -14.5436 14.8369 -10.4257 -13.1436 22.7774 -10.4257 -14.3027 
30.718 -10.4257 -15.5334 38.6585 -10.4257 -16.4172 46.599 -10.4257 -15.4971 
54.5395 -10.4257 -13.1486 -56.6278 -2.48515 -13.483 -48.6873 -2.48515 -16.4971 
-34.0021 -2.48515 -18.0718 -40.7468 -2.48515 -17.8272 -32.4571 -2.48515 -18.0718 
-24.8657 -2.48515 -17.0632 -16.9252 -2.48515 -15.5176 -8.98467 -2.48515 -16.6751 
-1.04415 -2.48515 -12.2733 6.89638 -2.48515 -16.1072 14.8369 -2.48515 -14.2787 
22.7774 -2.48515 -15.4114 30.718 -2.48515 -16.7691 38.6585 -2.48515 -17.024 
46.599 -2.48515 -16.444 54.5395 -2.48515 -14.3885 -56.6278 5.45538 -13.849 
-48.6873 5.45538 -16.4585 -35.9204 5.45538 -18.0718 -40.7468 5.45538 -17.7823 
-31.304 5.45538 -18.0718 -32.8063 7.63343 -18.0718 -24.8657 5.45538 -17.2034 
-16.9252 5.45538 -15.7573 -8.98467 5.45538 -15.9569 -1.04415 5.45538 -17.0187 
6.89638 5.45538 -16.5707 14.8369 5.45538 -13.9276 22.7774 5.45538 -15.8955 
30.718 5.45538 -17.2988 38.6585 5.45538 -17.4256 46.599 5.45538 -16.6735 
54.5395 5.45538 -14.0958 -56.6278 13.3959 -11.6233 -48.6873 13.3959 -16.5753 
-40.7468 13.3959 -17.3287 -32.8063 13.3959 -17.535 -24.8657 13.3959 -16.8142 
-16.9252 13.3959 -15.7225 -8.98467 13.3959 -14.5464 -1.04415 13.3959 -14.1723 
6.89638 13.3959 -14.4213 14.8369 13.3959 -14.7987 22.7774 13.3959 -16.0349 
30.718 13.3959 -17.0626 38.6585 13.3959 -17.5682 46.599 13.3959 -15.6413 
54.5395 13.3959 -12.3569 -48.6873 21.3364 -12.6016 -40.7468 21.3364 -15.5132 
-32.8063 21.3364 -16.6548 -24.8657 21.3364 -17.0425 -16.9252 21.3364 -16.902 
-8.98467 21.3364 -16.1575 -1.04415 21.3364 -15.4634 6.89638 21.3364 -15.6567 
14.8369 21.3364 -15.9472 22.7774 21.3364 -16.5368 30.718 21.3364 -16.4193 
38.6585 21.3364 -15.7628 46.599 21.3364 -13.7207 -40.7468 29.277 -13.4295 
-32.8063 29.277 -15.3425 -24.8657 29.277 -16.9131 -16.9252 29.277 -17.9419 
-8.98467 29.277 -17.2278 -1.04415 29.277 -16.5424 6.89638 29.277 -16.6647 
14.8369 29.277 -16.3323 22.7774 29.277 -16.2904 30.718 29.277 -15.3829 
38.6585 29.277 -14.1035 -32.8063 37.2175 -14.3368 -24.8657 37.2175 -15.7047 
-16.9252 37.2175 -17.771 -8.98467 37.2175 -16.8234 -1.04415 37.2175 -16.2048 
6.89638 37.2175 -16.3798 14.8369 37.2175 -15.6779 22.7774 37.2175 -14.9685 
30.718 37.2175 -13.2877 -24.8657 45.158 -12.4411 -16.9252 45.158 -13.9657 
-8.98467 45.158 -14.286 -1.04415 45.158 -13.4507 6.89638 45.158 -12.8452 
14.8369 45.158 -12.6418 22.7774 45.158 -10.6982 -40.7468 -34.5149 -10.1312 
-32.8063 -35.1756 -10.1312 -32.8063 -42.1878 -4.36845 -24.8657 -35.8962 -10.1312 
-24.8657 -42.1878 -6.65948 -16.9252 -37.2812 -10.1312 -16.9252 -42.1878 -7.55192 
-8.98467 -38.5638 -10.1312 -8.98467 -42.1878 -8.84977 -1.04415 -38.6498 -10.1312 
-1.04415 -42.1878 -8.4588 6.89638 -39.2722 -10.1312 6.89638 -42.1878 -8.63425 
14.8369 -39.9954 -10.1312 14.8369 -42.1878 -8.88129 22.7774 -36.0596 -10.1312 
22.7774 -42.1878 -6.16619 30.718 -42.1878 -2.68957 -41.3721 -34.2473 -10.1312 
-48.6873 -30.5232 -10.1312 -48.6873 -34.2473 -5.9109 26.7982 -34.2473 -10.1312 
30.718 -32.5967 -10.1312 30.718 -34.2473 -9.19785 38.6585 -30.4211 -10.1312 
38.6585 -34.2473 -8.05772 46.599 -28.055 -10.1312 46.599 -34.2473 -3.55826 
-52.9882 -26.3067 -10.1312 -56.6278 -21.341 -10.1312 -56.6278 -26.3067 -6.09583 
49.1726 -26.3067 -10.1312 54.5395 -21.7499 -10.1312 54.5395 -26.3067 -6.28856 
-58.2698 -18.3662 -10.1312 57.3186 -18.3662 -10.1312 62.4801 -18.3662 -3.72689 
-60.1075 -10.4257 -10.1312 59.7301 -10.4257 -10.1312 62.4801 -10.4257 -7.44498 
-60.7904 -2.48515 -10.1312 -64.5684 -2.48515 -2.98376 61.1766 -2.48515 -10.1312 
62.4801 -2.48515 -8.3371 -60.7623 5.45538 -10.1312 59.6449 5.45538 -10.1312 
62.4801 5.45538 -5.56214 -58.3495 13.3959 -10.1312 -56.6278 16.5425 -10.1312 
57.0916 13.3959 -10.1312 54.5395 18.1239 -10.1312 -52.5863 21.3364 -10.1312 
-56.6278 21.3364 -3.97158 -48.6873 26.749 -10.1312 52.0061 21.3364 -10.1312 
46.599 29.0431 -10.1312 54.5395 21.3364 -5.04891 -46.6093 29.277 -10.1312 
-48.6873 29.277 -7.44063 -40.7468 35.6031 -10.1312 46.379 29.277 -10.1312 
38.6585 37.0124 -10.1312 46.599 29.277 -9.83905 -39.316 37.2175 -10.1312 
-40.7468 37.2175 -7.93681 -32.8063 42.6295 -10.1312 38.4003 37.2175 -10.1312 
30.718 42.0513 -10.1312 38.6585 37.2175 -9.87223 -29.0305 45.158 -10.1312 
-32.8063 45.158 -4.38766 -24.8657 47.1604 -10.1312 -16.9252 49.3685 -10.1312 
-8.98467 50.4289 -10.1312 -1.04415 49.4381 -10.1312 6.89638 48.8485 -10.1312 
14.8369 47.9925 -10.1312 24.4806 45.158 -10.1312 22.7774 45.7501 -10.1312 
30.718 45.158 -5.31009 -32.8063 -43.9193 -2.1907 -24.8657 -45.9016 -2.1907 
-16.9252 -47.0068 -2.1907 -8.98467 -47.9864 -2.1907 -1.04415 -48.4659 -2.1907 
6.89638 -48.156 -2.1907 14.8369 -47.2405 -2.1907 22.7774 -45.3119 -2.1907 
30.718 -42.5347 -2.1907 -48.6873 -36.6585 -2.1907 -38.6486 -42.1878 -2.1907 
-40.7468 -41.52 -2.1907 31.5072 -42.1878 -2.1907 38.6585 -39.0186 -2.1907 
46.599 -35.3495 -2.1907 -51.6676 -34.2473 -2.1907 -56.6278 -29.3817 -2.1907 
48.1026 -34.2473 -2.1907 54.5395 -29.5897 -2.1907 -58.9831 -26.3067 -2.1907 
57.8553 -26.3067 -2.1907 62.4801 -19.8109 -2.1907 -62.4772 -18.3662 -2.1907 
63.342 -18.3662 -2.1907 62.4801 -18.3662 2.73981 -64.5303 -10.4257 -2.1907 
-64.5684 -9.4637 -2.1907 65.3099 -10.4257 -2.1907 -64.8446 -2.48515 -2.1907 
-64.5684 -0.720623 -2.1907 -64.5684 -2.48515 -1.39852 64.954 -2.48515 -2.1907 
-63.589 5.45538 -2.1907 63.8328 5.45538 -2.1907 62.4801 8.4726 -2.1907 
62.4801 5.45538 2.71163 -61.5885 13.3959 -2.1907 60.1152 13.3959 -2.1907 
-57.2641 21.3364 -2.1907 -56.6278 22.2742 -2.1907 -56.6278 21.3364 -0.667034 
55.4394 21.3364 -2.1907 54.5395 22.6641 -2.1907 54.5395 21.3364 0.266028 
-50.985 29.277 -2.1907 -48.6873 31.8028 -2.1907 -48.6873 29.277 2.84681 
49.5925 29.277 -2.1907 46.599 32.6349 -2.1907 -43.2138 37.2175 -2.1907 
-40.7468 39.478 -2.1907 -40.7468 37.2175 2.4546 42.1189 37.2175 -2.1907 
38.6585 40.3708 -2.1907 -33.6796 45.158 -2.1907 -32.8063 45.8075 -2.1907 
-32.8063 45.158 -0.881628 -24.8657 49.5399 -2.1907 -24.8657 45.158 4.54029 
-16.9252 51.4432 -2.1907 -8.98467 52.365 -2.1907 -1.04415 52.3126 -2.1907 
6.89638 52.559 -2.1907 14.8369 52.3128 -2.1907 22.7774 50.2365 -2.1907 
32.4295 45.158 -2.1907 30.718 46.3047 -2.1907 30.718 45.158 1.90912 
-32.8063 -44.2061 5.74983 -24.8657 -47.1434 5.74983 -16.9252 -48.7684 5.74983 
-8.98467 -49.4951 5.74983 -1.04415 -49.5794 5.74983 6.89638 -49.1215 5.74983 
14.8369 -48.0505 5.74983 22.7774 -46.2478 5.74983 30.718 -43.348 5.74983 
-48.6873 -36.3307 5.74983 -40.1075 -42.1878 5.74983 -40.7468 -41.9412 5.74983 
-32.8063 -42.1878 7.99882 -24.8657 -42.1878 11.3841 -16.9252 -42.1878 13.68 
-8.98467 -42.1878 13.4109 22.7774 -42.1878 11.7408 33.7048 -42.1878 5.74983 
30.718 -42.1878 7.64126 38.6585 -40.0051 5.74983 46.599 -35.2714 5.74983 
-51.0524 -34.2473 5.74983 -56.6278 -27.9471 5.74983 -48.6873 -34.2473 8.04154 
-40.7468 -34.2473 10.7684 38.6585 -34.2473 12.2796 48.1511 -34.2473 5.74983 
46.599 -34.2473 7.37224 54.5395 -28.3672 5.74983 -57.7513 -26.3067 5.74983 
-56.6278 -26.3067 7.03816 -48.6873 -26.3067 10.5605 46.599 -26.3067 13.5256 
56.275 -26.3067 5.74983 54.5395 -26.3067 7.88953 -58.8118 -18.3662 5.74983 
-56.6278 -18.3662 7.89581 -48.6873 -18.3662 12.5426 61.767 -18.3662 5.74983 
54.5395 -18.3662 11.6167 62.4801 -16.2217 5.74983 -60.4305 -10.4257 5.74983 
-56.6278 -10.4257 9.20653 -48.6873 -10.4257 13.2861 54.5395 -10.4257 12.4618 
63.8966 -10.4257 5.74983 62.4801 -10.4257 7.46943 -60.5208 -2.48515 5.74983 
-56.6278 -2.48515 9.20678 -48.6873 -2.48515 12.5413 54.5395 -2.48515 11.9123 
62.7713 -2.48515 5.74983 62.4801 -0.463389 5.74983 62.4801 -2.48515 6.11599 
-58.3232 5.45538 5.74983 -56.6278 5.45538 7.23974 -48.6873 5.45538 11.3242 
-40.7468 5.45538 13.4912 61.063 5.45538 5.74983 54.5395 5.45538 10.474 
-57.9502 13.3959 5.74983 -56.6278 15.8625 5.74983 -56.6278 13.3959 6.93477 
-48.6873 13.3959 10.1324 -40.7468 13.3959 13.1173 46.599 13.3959 12.5746 
55.909 13.3959 5.74983 54.5395 16.2702 5.74983 54.5395 13.3959 7.19935 
-51.6799 21.3364 5.74983 -48.6873 26.0407 5.74983 -48.6873 21.3364 7.81867 
-40.7468 21.3364 10.8631 -32.8063 21.3364 12.8581 51.6556 21.3364 5.74983 
46.599 21.3364 9.43597 -46.1503 29.277 5.74983 -40.7468 34.3722 5.74983 
-40.7468 29.277 8.83561 -32.8063 29.277 11.0502 -24.8657 29.277 12.7517 
38.6585 29.277 10.5408 46.7113 29.277 5.74983 46.599 29.4046 5.74983 
46.599 29.277 5.86438 -37.2341 37.2175 5.74983 -32.8063 40.0953 5.74983 
-32.8063 37.2175 7.96195 -24.8657 44.0895 5.74983 -24.8657 37.2175 10.5387 
-16.9252 37.2175 11.9757 -8.98467 37.2175 12.341 -1.04415 37.2175 13.326 
[...]
POINT_DATA 548
SCALARS ImageScalars float
LOOKUP_TABLE default
0 0 0 0 0 0 0 0 0 
0 0 0 0 0 0 0 0 0 
0 0 0 0 0 0 0 0 0 
0 0 0 0 0 0 0 0 0 
0 0 0 0 0 0 0 0 0 
0 0 0 0 0 0 0 0 0 
0 0 0 0 0 0 0 0 0 
0 0 0 0 0 0 0 0 0 
0 0 0 0 0 0 0 0 0 
0 0 0 0 0 0 0 0 0 
0 0 0 0 0 0 0 0 0 
0 0 0 0 0 0 0 0 0 
0 0 0 0 0 0 0 0 0 
0 0 0 0 0 0 0 0 0 
0 0 0 0 0 0 0 0 0 
0 0 0 0 0 0 0 0 0 
0 0 0 0 0 0 0 0 0 
0 0 0 0 0 0 0 0 0 
0 0 0 0 0 0 0 0 0 
0 0 0 0 0 0 0 0 0 
0 0 0 0 0 0 0 0 0 
0 0 0 0 0 0 0 0 0 
0 0 0 0 0 0 0 0 0 
0 0 0 0 0 0 0 0 0 
0 0 0 0 0 0 0 0 0 
0 0 0 0 0 0 0 0 0 
0 0 0 0 0 0 0 0 0 
0 0 0 0 0 0 0 0 0 
0 0 0 0 0 0 0 0 0 
0 0 0 0 0 0 0 0 0 
0 0 0 0 0 0 0 0 0 
0 0 0 0 0 0 0 0 0 
0 0 0 0 0 0 0 0 0 
0 0 0 0 0 0 0 0 0 
0 0 0 0 0 0 0 0 0 
0 0 0 0 0 0 0 0 0 
0 0 0 0 0 0 0 0 0 
0 0 0 0 0 0 0 0 0 
0 0 0 0 0 0 0 0 0 
0 0 0 0 0 0 0 0 0 
0 0 0 0 0 0 0 0 0 
0 0 0 0 0 0 0 0 0 
0 0 0 0 0 0 0 0 0 
0 0 0 0 0 0 0 0 0 
0 0 0 0 0 0 0 0 0 
0 0 0 0 0 0 0 0 0 
0 0 0 0 0 0 0 0 0 
0 0 0 0 0 0 0 0 0 
0 0 0 0 0 0 0 0 0 
0 0 0 0 0 0 0 0 0 
0 0 0 0 0 0 0 0 0 
0 0 0 0 0 0 0 0 0 
0 0 0 0 0 0 0 0 0 
0 0 0 0 0 0 0 0 0 
0 0 0 0 0 0 0 0 0 
0 0 0 0 0 0 0 0 0 
0 0 0 0 0 0 0 0 0 
0 0 0 0 0 0 0 0 0 
0 0 0 0 0 0 0 0 0 
0 0 0 0 0 0 0 0 0 
0 0 0 0 0 0 0 0 
NORMALS Normals float
0.0438272 -0.0668882 -0.996797 0.034854 0.036411 -0.998729 -0.163535 -0.54151 -0.824635 
-0.0391364 -0.528261 -0.84818 -0.0332298 -0.384343 -0.922592 -0.0142847 -0.297785 -0.954526 
-0.0346162 -0.222154 -0.974397 -0.0625708 -0.270085 -0.960801 -0.029109 -0.273497 -0.961432 
0.0632105 -0.246537 -0.96707 0.189559 -0.343959 -0.919652 -0.323919 -0.376362 -0.868002 
-0.112293 -0.340924 -0.93336 0.0484658 -0.312176 -0.948787 0.0929882 -0.24418 -0.965261 
0.0422241 -0.155927 -0.986866 -0.0310619 -0.139415 -0.989747 -0.0549481 -0.117424 -0.991561 
0.0074558 -0.0713226 -0.997425 0.0460307 -0.0497003 -0.997703 0.0130913 -0.152768 -0.988175 
0.0465315 -0.289236 -0.956126 0.110515 -0.360756 -0.92609 0.231288 -0.441606 -0.866885 
-0.564801 -0.264993 -0.781524 -0.259487 -0.247496 -0.933495 -0.0719475 -0.186691 -0.979781 
0.0450478 -0.196717 -0.979425 0.159149 -0.156393 -0.974789 0.0951384 -0.113769 -0.988942 
0.0112678 -0.174563 -0.984581 0.00257457 -0.165328 -0.986235 0.0441405 -0.0496762 -0.99779 
-0.0177957 0.00522374 -0.999828 -0.082838 -0.0879592 -0.992674 -0.0442056 -0.163751 -0.985511 
0.0339297 -0.252468 -0.96701 0.164868 -0.280167 -0.945688 0.39205 -0.289204 -0.873303 
-0.527143 -0.126807 -0.840262 -0.243187 -0.0601931 -0.96811 -0.0663652 -0.127955 -0.989557 
0.045842 -0.0681323 -0.996623 0.0859812 -0.0950153 -0.991756 0.158694 -0.123019 -0.979634 
0.0315251 -0.0969163 -0.994793 -0.0920179 -0.211883 -0.972953 0.0710631 0.0290049 -0.99705 
0.187783 -0.162365 -0.968698 0.00489783 -0.0712527 -0.997446 -0.148437 -0.103834 -0.983456 
-0.131617 -0.143449 -0.980867 0.00187314 -0.16126 -0.98691 0.18195 -0.147684 -0.972154 
0.368745 -0.147577 -0.917741 -0.489509 -0.0525981 -0.870411 -0.240649 -0.014401 -0.970505 
0.0225509 -0.0583668 -0.99804 -0.0980504 -0.0115158 -0.995115 0.0491198 -0.0667126 -0.996562 
0.166369 -0.0643108 -0.983964 0.0217044 -0.0682518 -0.997432 0.125366 -0.0164299 -0.991974 
0.0681036 -0.0164492 -0.997543 -0.0687726 -0.125722 -0.989679 0.0302639 -0.0516085 -0.998209 
-0.15465 -0.0986497 -0.983032 -0.100885 -0.108955 -0.988914 0.0197456 -0.062756 -0.997834 
0.145855 -0.0725398 -0.986643 0.425846 -0.0559278 -0.903065 -0.532367 0.11075 -0.839238 
-0.245586 -0.00318343 -0.96937 -0.0267855 0.0329221 -0.999099 -0.116326 0.0284907 -0.992802 
0.0581174 0.0332431 -0.997756 0.0348311 0.0556483 -0.997843 0.156829 0.0160829 -0.987495 
0.0821196 -0.0130709 -0.996537 -0.0731007 0.145878 -0.986598 -0.0428592 -0.0366497 -0.998409 
0.221189 0.129156 -0.966641 0.00071487 -0.034129 -0.999417 -0.210677 -0.0394514 -0.976759 
-0.0923818 -0.018654 -0.995549 0.0380047 -0.0337416 -0.998708 0.182132 0.0515172 -0.981924 
0.509708 0.123603 -0.851422 -0.61814 0.360903 -0.69832 -0.319251 0.187041 -0.929029 
-0.0511679 0.161096 -0.985611 0.0329753 0.104601 -0.993967 0.113062 0.0100662 -0.993537 
0.14133 -0.0714478 -0.987381 0.0989508 -0.029514 -0.994655 0.00829763 0.0664142 -0.997758 
-0.0413296 0.0224804 -0.998893 -0.100409 -0.12586 -0.986954 -0.141167 -0.0394704 -0.989199 
-0.0942931 0.0542487 -0.994065 0.092781 0.0998595 -0.990666 0.296189 0.157645 -0.94203 
0.590812 0.301939 -0.74818 -0.468799 0.394951 -0.790089 -0.21433 0.205357 -0.95493 
-0.0986167 0.126959 -0.986994 -0.0168667 -0.00627029 -0.999838 0.0547735 -0.137567 -0.988977 
0.0918218 -0.171109 -0.980964 0.0323353 -0.151126 -0.987985 -0.0309771 -0.143587 -0.989153 
-0.0540412 -0.0957636 -0.993936 -0.0296968 -0.0145008 -0.999454 0.0451796 0.100444 -0.993916 
0.147722 0.194185 -0.969778 0.40468 0.342005 -0.848096 -0.364676 0.379831 -0.850141 
-0.203811 0.140368 -0.968895 -0.154401 0.0774357 -0.984969 -0.0195997 -0.0559103 -0.998243 
0.0875181 -0.0390308 -0.995398 0.0354249 -0.0451401 -0.998352 0.0133009 -0.043704 -0.998956 
0.0236884 0.0138325 -0.999624 0.0534047 0.0998782 -0.993565 0.129227 0.171816 -0.976616 
0.31326 0.34279 -0.885643 -0.375807 0.378471 -0.84589 -0.192826 0.226873 -0.954645 
-0.0531186 0.204362 -0.977453 0.0919544 0.167962 -0.981495 0.0313845 0.176 -0.98389 
0.0287861 0.219264 -0.975241 0.0922271 0.193704 -0.976715 0.119542 0.285735 -0.950823 
0.31218 0.411303 -0.856372 -0.317845 0.650586 -0.689719 -0.0882372 0.60021 -0.79496 
0.0350422 0.52137 -0.852611 0.0891416 0.524561 -0.846693 0.0464993 0.528957 -0.847374 
0.110952 0.550621 -0.827349 0.231661 0.671178 -0.704168 -0.167449 -0.550222 -0.818056 
-0.0513376 -0.551728 -0.832442 -0.269192 -0.818802 -0.50705 -0.0597007 -0.395871 -0.916363 
-0.156542 -0.632231 -0.758801 -0.0611539 -0.398523 -0.915117 -0.109462 -0.62195 -0.775368 
-0.0309311 -0.372519 -0.927509 -0.0362557 -0.544594 -0.837916 -0.0173527 -0.407175 -0.913185 
0.00872484 -0.569596 -0.821879 -0.0344332 -0.444147 -0.895292 -0.0214114 -0.590307 -0.806895 
0.0928192 -0.48819 -0.867787 0.108071 -0.615106 -0.781002 0.212455 -0.380823 -0.899909 
0.287123 -0.690625 -0.663775 0.369634 -0.839574 -0.398103 -0.190772 -0.553344 -0.810812 
-0.443621 -0.541388 -0.714212 -0.569519 -0.709078 -0.41576 0.174086 -0.420645 -0.890366 
0.13044 -0.451333 -0.882771 0.163319 -0.513696 -0.842284 0.167071 -0.460077 -0.872019 
0.25117 -0.631645 -0.733443 0.258405 -0.488386 -0.83349 0.482036 -0.786475 -0.386132 
-0.538295 -0.490359 -0.685409 -0.621359 -0.38333 -0.683352 -0.73059 -0.564225 -0.384563 
0.310182 -0.48199 -0.819434 0.435993 -0.405517 -0.803409 0.597201 -0.644407 -0.477589 
-0.629713 -0.300947 -0.716165 0.530396 -0.302139 -0.792081 0.882525 -0.384605 -0.270606 
-0.717512 -0.134101 -0.683516 0.610849 -0.175101 -0.772142 0.836419 -0.178996 -0.518039 
-0.738831 -0.032289 -0.673116 -0.997538 0.0562625 -0.0418694 0.709631 0.0165766 -0.704379 
0.840211 0.0436186 -0.540503 -0.802865 0.127842 -0.582293 0.711289 0.188133 -0.677254 
0.912741 0.275853 -0.301344 -0.695165 0.378489 -0.61114 -0.65446 0.432784 -0.619984 
0.717296 0.334368 -0.611297 0.671447 0.436068 -0.599169 -0.598166 0.453328 -0.660826 
-0.833705 0.541577 -0.107847 -0.583981 0.476868 -0.656935 0.620725 0.486981 -0.614451 
0.587671 0.536946 -0.605254 0.807272 0.562467 -0.178727 -0.560104 0.50286 -0.658343 
-0.687715 0.596041 -0.414467 -0.555318 0.536039 -0.635833 0.585858 0.53741 -0.606598 
0.505778 0.594936 -0.624691 0.600956 0.548758 -0.581135 -0.567538 0.541359 -0.620348 
-0.640714 0.634216 -0.43273 -0.482477 0.64234 -0.595495 0.504797 0.595306 -0.625133 
0.407928 0.61343 -0.676238 0.517296 0.607736 -0.602546 -0.42533 0.713118 -0.557277 
-0.551266 0.830087 -0.0840296 -0.340555 0.762536 -0.550056 -0.178003 0.796648 -0.577639 
-0.00663486 0.811875 -0.583793 0.081124 0.740966 -0.666625 0.0703726 0.679244 -0.73053 
0.155948 0.668845 -0.726861 0.269294 0.69099 -0.67083 0.235949 0.699102 -0.67497 
0.512739 0.818669 -0.258611 -0.274096 -0.890054 -0.364246 -0.18446 -0.905004 -0.38333 
-0.134435 -0.862437 -0.487986 -0.0816589 -0.877154 -0.473216 -0.00810743 -0.899677 -0.436481 
0.0780889 -0.90985 -0.407523 0.170219 -0.91148 -0.374473 0.294413 -0.891538 -0.344209 
0.370921 -0.852186 -0.369047 -0.587689 -0.779164 -0.218001 -0.367508 -0.857065 -0.361079 
-0.392359 -0.852098 -0.346385 0.369374 -0.851682 -0.371754 0.353712 -0.860687 -0.366205 
0.504804 -0.812971 -0.290259 -0.64807 -0.724893 -0.233528 -0.752933 -0.625371 -0.204948 
0.52358 -0.803885 -0.282195 0.643798 -0.741692 -0.188194 -0.822299 -0.541364 -0.175355 
0.738746 -0.655418 -0.157102 0.882865 -0.440337 -0.163254 -0.939899 -0.335611 -0.0628852 
0.902279 -0.39709 -0.167966 0.898994 -0.379092 0.219317 -0.989996 -0.138824 -0.025232 
-0.993104 -0.115098 -0.0222967 0.986491 -0.102997 -0.127383 -0.998301 0.0581718 0.00341215 
-0.99646 0.0838234 0.00634838 -0.996385 0.0612289 0.0588981 0.994632 0.0917189 -0.0478992 
-0.98149 0.186058 0.0453891 0.955909 0.288574 -0.0544415 0.934416 0.355043 -0.0284828 
0.890032 0.319608 0.325107 -0.920307 0.389523 0.0361529 0.88886 0.456683 0.036991 
-0.851299 0.523947 0.0277281 -0.839646 0.542535 0.0255024 -0.832161 0.5362 0.141411 
0.833845 0.551468 0.0241862 0.824932 0.564985 0.016738 0.825283 0.537213 0.174096 
-0.749796 0.661615 0.00849001 -0.73012 0.683224 0.0113935 -0.686048 0.597516 0.415107 
0.766951 0.641641 -0.00903756 0.736612 0.676204 -0.0122742 -0.680101 0.732487 0.0304172 
-0.66046 0.749714 0.0415035 -0.611946 0.687082 0.391715 0.691127 0.722353 -0.0234613 
0.653962 0.755827 -0.0325297 -0.555292 0.82772 0.0808139 -0.540791 0.836872 0.0847947 
-0.531803 0.828741 0.174281 -0.317762 0.939306 0.129351 -0.276413 0.754906 0.594738 
-0.167034 0.980456 0.103947 -0.05988 0.992625 0.105408 -0.0125062 0.999465 0.0302228 
-0.000580702 0.999463 -0.0327736 0.148176 0.986577 -0.068634 0.339374 0.93895 -0.0565488 
0.556378 0.830089 -0.0373639 0.525957 0.849619 -0.0389592 0.52005 0.822246 0.231213 
-0.328433 -0.872994 0.360573 -0.260299 -0.938891 0.225227 -0.145572 -0.980169 0.13445 
-0.0473655 -0.973408 0.224128 0.024478 -0.973972 0.225341 0.0935006 -0.969929 0.224713 
0.176008 -0.960277 0.216539 0.282916 -0.940122 0.190077 0.360038 -0.905401 0.224992 
-0.593785 -0.699925 0.396894 -0.434557 -0.836523 0.333751 -0.442941 -0.830815 0.336972 
-0.301823 -0.785344 0.540497 -0.303797 -0.617533 0.725507 -0.0995278 -0.420612 0.901765 
-0.0160341 -0.498864 0.866532 0.275458 -0.69044 0.668891 0.382527 -0.899905 0.209391 
0.350489 -0.867842 0.352149 0.433585 -0.875299 0.214139 0.526767 -0.809326 0.259823 
-0.638812 -0.648818 0.413466 -0.752548 -0.440128 0.489856 -0.557129 -0.589923 0.584464 
-0.340388 -0.463301 0.818223 0.322467 -0.587756 0.741995 0.549227 -0.792423 0.265359 
0.518002 -0.768691 0.375218 0.697234 -0.621766 0.356752 -0.788496 -0.384917 0.479702 
-0.715399 -0.38974 0.57992 -0.43118 -0.274308 0.859558 0.334855 -0.375819 0.864079 
0.73202 -0.565712 0.379627 0.682285 -0.524041 0.509773 -0.781611 -0.137902 0.608332 
-0.698238 -0.109063 0.707509 -0.326916 -0.154962 0.932262 0.81872 -0.336417 0.465318 
0.583417 -0.17727 0.792591 0.842197 -0.2644 0.46989 -0.732405 -0.0745518 0.676775 
-0.593691 -0.0570923 0.802665 -0.304932 -0.00817095 0.952339 0.4704 -0.0168711 0.882292 
0.86768 -0.0519844 0.494397 0.81597 -0.0492294 0.575994 -0.710049 0.0869254 0.698767 
-0.547728 0.090006 0.831801 -0.273745 0.117263 0.954627 0.500974 0.106622 0.858869 
0.836645 0.142521 0.528879 0.820514 0.186228 0.54044 0.821777 0.143502 0.551444 
-0.655775 0.114171 0.746273 -0.606181 0.114912 0.786981 -0.322412 0.148102 0.934942 
-0.176656 0.0755478 0.981369 0.756128 0.309287 0.576726 0.552725 0.220412 0.803688 
-0.696771 0.248856 0.672742 -0.666461 0.32269 0.672087 -0.64572 0.244687 0.723308 
-0.354483 0.170795 0.919332 -0.234334 0.147683 0.960873 0.409191 0.292042 0.86445 
0.707377 0.380631 0.595598 0.708067 0.39338 0.586424 0.668073 0.350088 0.656595 
-0.560944 0.427991 0.708637 -0.558742 0.458464 0.6911 -0.471767 0.347859 0.810204 
-0.278357 0.227122 0.933238 -0.196478 0.161519 0.967113 0.681643 0.425265 0.595409 
0.528877 0.350808 0.772802 -0.545023 0.484851 0.68401 -0.48455 0.536648 0.690811 
-0.384954 0.382912 0.839755 -0.222133 0.269077 0.937152 -0.160886 0.229196 0.959992 
0.425578 0.39545 0.813943 0.653377 0.539258 0.531319 0.652424 0.540882 0.530839 
0.650153 0.537287 0.537237 -0.473247 0.554846 0.68424 -0.408549 0.577506 0.706806 
-0.379488 0.481222 0.790199 -0.25065 0.680781 0.688267 -0.186233 0.391935 0.900946 
-0.112157 0.369619 0.92239 -0.079005 0.328308 0.941261 -0.116401 0.335771 0.934724 
0.216399 0.410584 0.885772 0.453126 0.708782 0.540652 0.371244 0.483848 0.792508 
0.586088 0.630808 0.50851 0.578557 0.637576 0.508692 0.568819 0.620494 0.539845 
-0.226908 0.680411 0.696817 -0.185113 0.66313 0.725253 -0.165476 0.611346 0.773869 
-0.0972818 0.709057 0.698408 -0.10337 0.610631 0.78514 -0.0874678 0.760074 0.643923 
-0.100919 0.619224 0.778702 -0.046036 0.80558 0.590696 -0.0431378 0.628946 0.776252 
0.145093 0.795458 0.588383 0.12532 0.62579 0.769859 0.398777 0.732249 0.552076 
0.305458 0.738701 0.600846 0.267365 0.679149 0.683573 -0.0293034 -0.526913 0.849414 
-0.020094 -0.565806 0.824293 0.0906624 -0.619799 0.779506 -0.217455 -0.383593 0.897536 
-0.171263 -0.3226 0.930913 -0.0994559 -0.419331 0.902369 -0.0227937 -0.501437 0.864894 
-0.0165858 -0.464195 0.885578 -0.0315065 -0.512867 0.85789 -0.0225535 -0.55078 0.834346 
0.144583 -0.59697 0.789128 0.0931604 -0.582209 0.807684 0.230582 -0.527722 0.817521 
0.249438 -0.51792 0.818254 -0.232674 -0.35872 0.903981 -0.305946 -0.27786 0.910599 
-0.207932 -0.34178 0.916488 -0.117795 -0.230184 0.965992 -0.106029 -0.190297 0.975984 
-0.0687486 -0.22044 0.972975 -0.0691468 -0.238305 0.968726 -0.0160125 -0.255224 0.966749 
0.0587729 -0.269346 0.961248 0.154574 -0.342508 0.926712 0.256979 -0.500516 0.826707 
0.227356 -0.466687 0.8547 0.283159 -0.442789 0.85074 -0.322306 -0.231849 0.917805 
-0.298556 -0.234447 0.925148 -0.0813142 -0.148609 0.985547 -0.0866756 -0.119262 0.989072 
-0.0930454 -0.0583847 0.993949 -0.0940818 -0.0784867 0.992466 -0.0788222 -0.0718655 0.994295 
-0.0332897 -0.0543618 0.997966 0.00559066 -0.0811248 0.996688 0.0715156 -0.135336 0.988215 
0.158587 -0.209594 0.964842 0.325765 -0.365795 0.871821 0.250612 -0.268283 0.930171 
0.330826 -0.358452 0.872964 -0.264807 -0.0844998 0.960592 -0.233843 -0.0218893 0.972028 
-0.112918 -0.0314978 0.993105 -0.0364883 -0.0307247 0.998862 -0.0656017 -0.0480677 0.996687 
-0.0888982 -0.134013 0.986984 -0.0487469 -0.0507687 0.99752 -0.0275781 0.0247099 0.999314 
-0.0173408 0.0305607 0.999382 0.0117898 0.00679005 0.999907 0.0614142 -0.048545 0.996931 
0.179676 -0.115455 0.976927 0.47056 -0.12635 0.873275 0.317869 -0.109441 0.941797 
-0.264777 -0.00543896 0.964294 -0.149673 0.0195883 0.988542 -0.0908323 0.0711598 0.993321 
-0.102018 0.0416346 0.993911 -0.199879 -0.120344 0.972402 -0.0931631 -0.126486 0.987584 
0.086523 0.109815 0.990179 0.0472221 -0.052758 0.99749 -0.012056 0.0406305 0.999102 
-0.00856157 0.0339385 0.999387 0.0516415 0.0237293 0.998384 0.157892 0.0240613 0.987163 
0.396888 0.00815551 0.917831 0.293899 0.0340611 0.955229 -0.197931 0.10218 0.974876 
-0.172846 0.0782696 0.981834 -0.159137 0.0908814 0.983065 -0.0996864 0.0939964 0.990569 
-0.20537 0.0895404 0.97458 -0.243245 0.00943714 0.969919 0.177069 0.0663565 0.981959 
-0.0184224 0.055238 0.998303 -0.0958046 -0.11433 0.988812 0.0690733 0.0540824 0.996145 
-0.00460221 0.0336678 0.999422 0.0538431 0.0379572 0.997828 0.166993 0.0435751 0.984995 
0.400385 0.0735895 0.913387 0.310663 0.0579596 0.948751 -0.156031 0.0763305 0.984798 
-0.0905109 0.0814087 0.992563 -0.145519 0.0890907 0.985336 -0.25999 0.253298 0.931797 
-0.0813469 0.202914 0.975812 -0.0927636 -0.118653 0.988593 0.104824 0.059225 0.992726 
0.122601 0.0741932 0.989679 -0.024896 0.0346431 0.99909 0.0627399 0.0526858 0.996638 
0.182645 0.0880688 0.979227 0.416049 0.164562 0.894328 0.379758 0.2312 0.895729 
0.353872 0.15689 0.922041 -0.138282 0.112925 0.983934 -0.113223 0.11076 0.987377 
-0.0890064 0.0960391 0.99139 -0.0666805 0.0419388 0.996893 -0.0878184 0.12224 0.988608 
-0.172892 0.24034 0.955168 -0.143906 0.188733 0.971427 0.0751675 0.20603 0.975654 
0.0302632 0.0198939 0.999344 -0.0257893 0.0558541 0.998106 0.108976 0.112096 0.987704 
0.357479 0.263245 0.896053 0.280851 0.199121 0.938868 -0.148528 0.130925 0.980203 
-0.131739 0.159735 0.97833 -0.114414 0.110594 0.987258 -0.0427658 0.0708777 0.996568 
-0.0696914 0.110082 0.991476 -0.12177 0.151732 0.980892 -0.0785889 0.109288 0.990899 
-0.00790916 0.040581 0.999145 0.0658465 0.131285 0.989155 0.191887 0.206586 0.959428 
0.36257 0.282581 0.888083 0.362551 0.282597 0.888086 0.362532 0.282567 0.888103 
-0.104151 0.170163 0.979896 -0.0942036 0.183731 0.978452 -0.0900616 0.154506 0.983878 
-0.0801332 0.204315 0.97562 -0.0858354 0.159679 0.98343 -0.119433 0.3009 0.946147 
-0.135464 0.150743 0.979248 -0.059247 0.154865 0.986158 0.0485107 0.170702 0.984128 
0.216359 0.410474 0.885833 0.144093 0.205351 0.968023 0.284824 0.336187 0.897694 
0.283953 0.337442 0.897498 0.281663 0.33479 0.899212 -0.0918694 0.337001 0.937011 
-0.0525889 0.376851 0.92478 -0.0542428 0.338805 0.939292 0.216081 0.410475 0.8859 
0.046107 0.377564 0.924835 0.0393552 0.345661 0.937534 
