# vtk DataFile Version 4.2
vtk output
ASCII
DATASET POLYDATA
POINTS 518 float
12.6418 2.99508 -20.0285 -18.7389 -28.3856 -12.1703 -10.8938 -28.3856 -13.1128 
-3.0486 -28.3856 -13.1712 4.79658 -28.3856 -12.786 12.6418 -28.3856 -13.1915 
20.4869 -28.3856 -13.3653 28.3321 -28.3856 -13.3161 -34.4293 -20.5405 -12.6716 
-26.5841 -20.5405 -13.801 -18.7389 -20.5405 -14.0506 -10.8938 -20.5405 -14.3922 
-3.0486 -20.5405 -14.9327 4.79658 -20.5405 -15.3767 12.6418 -20.5405 -16.3407 
20.4869 -20.5405 -15.7796 28.3321 -20.5405 -14.5802 36.1773 -20.5405 -13.8492 
-34.4293 -12.6953 -13.9763 -26.5841 -12.6953 -15.6604 -18.7389 -12.6953 -15.6603 
-10.8938 -12.6953 -14.9887 -3.0486 -12.6953 -15.9895 4.79658 -12.6953 -16.951 
12.6418 -12.6953 -17.8909 20.4869 -12.6953 -16.5139 28.3321 -12.6953 -15.513 
36.1773 -12.6953 -14.8464 44.0225 -12.6953 -13.7825 -34.4293 -4.8501 -14.151 
-26.5841 -4.8501 -15.5366 -18.7389 -4.8501 -15.8772 -10.8938 -4.8501 -15.0746 
-3.0486 -4.8501 -18.6365 4.79658 -4.8501 -17.4041 12.6418 2.45689 -19.9051 
12.6418 -4.8501 -18.2244 20.4869 -4.8501 -16.5952 28.3321 -4.8501 -16.2964 
36.1773 -4.8501 -16.0664 44.0225 -4.8501 -15.1499 51.8676 -4.8501 -12.1953 
-42.2745 2.99508 -12.1459 -34.4293 2.99508 -13.8707 -26.5841 2.99508 -14.5783 
-18.7389 2.99508 -14.4806 -10.8938 2.99508 -16.1882 -3.0486 2.99508 -14.2516 
12.3007 2.99508 -19.9051 4.79658 2.99508 -15.9952 12.933 2.99508 -19.9051 
12.6418 3.35382 -19.9051 20.4869 2.99508 -16.7879 28.3321 2.99508 -16.7606 
36.1773 2.99508 -16.7816 44.0225 2.99508 -15.8436 51.8676 2.99508 -12.9883 
-42.2745 10.8403 -12.6856 -34.4293 10.8403 -13.8169 -26.5841 10.8403 -14.1406 
-18.7389 10.8403 -13.8536 -10.8938 10.8403 -15.5983 -3.0486 10.8403 -17.0012 
4.79658 10.8403 -17.0596 12.6418 10.8403 -16.5282 20.4869 10.8403 -15.1654 
28.3321 10.8403 -16.018 36.1773 10.8403 -16.3986 44.0225 10.8403 -15.1429 
51.8676 10.8403 -12.1137 -42.2745 18.6854 -12.6303 -34.4293 18.6854 -13.6732 
-26.5841 18.6854 -14.063 -18.7389 18.6854 -14.3188 -10.8938 18.6854 -13.9099 
-3.0486 18.6854 -15.5418 4.79658 18.6854 -16.2292 12.6418 18.6854 -14.7897 
20.4869 18.6854 -14.8381 28.3321 18.6854 -14.7712 36.1773 18.6854 -15.0614 
44.0225 18.6854 -14.7575 -34.4293 26.5306 -14.4107 -26.5841 26.5306 -14.3197 
-18.7389 26.5306 -14.0793 -10.8938 26.5306 -14.3451 -3.0486 26.5306 -14.666 
4.79658 26.5306 -14.9792 12.6418 26.5306 -14.9703 20.4869 26.5306 -14.4042 
28.3321 26.5306 -14.4646 36.1773 26.5306 -14.5406 -26.5841 34.3758 -14.3455 
-18.7389 34.3758 -13.8429 -10.8938 34.3758 -14.7447 -3.0486 34.3758 -14.8622 
4.79658 34.3758 -14.8772 12.6418 34.3758 -14.6338 20.4869 34.3758 -13.7984 
28.3321 34.3758 -14.1038 -18.7389 42.221 -12.8323 -10.8938 42.221 -13.7881 
-3.0486 42.221 -14.0898 4.79658 42.221 -13.9389 12.6418 42.221 -13.3554 
-18.7389 -44.076 -4.99706 -10.8938 -44.076 -6.5002 -3.0486 -44.076 -7.65429 
4.79658 -44.076 -7.21961 12.6418 -44.076 -6.55084 20.4869 -44.076 -6.79608 
28.3321 -44.076 -4.53599 -34.4293 -36.2308 -5.53546 -26.5841 -36.2308 -7.86334 
-18.7389 -28.7158 -12.0599 -18.7389 -36.2308 -9.54557 -10.8938 -32.6131 -12.0599 
-10.8938 -36.2308 -11.0234 -3.0486 -33.2816 -12.0599 -3.0486 -36.2308 -11.3332 
4.79658 -31.3053 -12.0599 4.79658 -36.2308 -10.7531 12.6418 -31.6632 -12.0599 
12.6418 -36.2308 -10.4753 20.4869 -32.0261 -12.0599 20.4869 -36.2308 -10.4427 
28.3321 -31.2513 -12.0599 28.3321 -36.2308 -9.43076 36.1773 -36.2308 -6.56725 
-42.2745 -28.3856 -6.24607 -34.4293 -22.0368 -12.0599 -34.4293 -28.3856 -9.18604 
-19.9278 -28.3856 -12.0599 -26.5841 -26.4075 -12.0599 -26.5841 -28.3856 -11.3943 
32.2184 -28.3856 -12.0599 36.1773 -25.2154 -12.0599 36.1773 -28.3856 -10.6975 
44.0225 -28.3856 -7.96491 -35.9283 -20.5405 -12.0599 -42.2745 -20.5405 -8.97557 
40.6 -20.5405 -12.0599 44.0225 -16.9188 -12.0599 44.0225 -20.5405 -10.3006 
51.8676 -20.5405 -4.73143 -50.1197 -12.6953 -6.45933 -39.4049 -12.6953 -12.0599 
-42.2745 -12.6953 -10.9061 49.4106 -12.6953 -12.0599 51.8676 -5.73201 -12.0599 
51.8676 -12.6953 -10.7123 -50.1197 -4.8501 -6.97606 -41.0083 -4.8501 -12.0599 
-42.2745 1.71611 -12.0599 -42.2745 -4.8501 -11.6188 52.0528 -4.8501 -12.0599 
-42.4998 2.99508 -12.0599 -50.1197 2.99508 -8.43578 53.1687 2.99508 -12.0599 
-44.5258 10.8403 -12.0599 -50.1197 10.8403 -9.92551 51.9409 10.8403 -12.0599 
51.8676 12.5313 -12.0599 -43.396 18.6854 -12.0599 -50.1197 18.6854 -7.42391 
-42.2745 20.6571 -12.0599 51.3224 18.6854 -12.0599 44.0225 23.5133 -12.0599 
51.8676 18.6854 -11.6305 -50.1197 26.5306 -5.22114 -39.6665 26.5306 -12.0599 
-42.2745 26.5306 -10.5332 -34.4293 33.5579 -12.0599 41.6589 26.5306 -12.0599 
36.1773 32.7053 -12.0599 44.0225 26.5306 -10.5747 -42.2745 34.3758 -9.08372 
-33.5961 34.3758 -12.0599 -34.4293 34.3758 -11.7126 -26.5841 39.5741 -12.0599 
20.4869 41.6178 -12.0599 34.2159 34.3758 -12.0599 28.3321 38.8309 -12.0599 
36.1773 34.3758 -11.175 44.0225 34.3758 -6.91581 -34.4293 42.221 -7.77305 
-21.036 42.221 -12.0599 -26.5841 42.221 -10.445 -18.7389 43.9378 -12.0599 
-10.8938 48.1594 -12.0599 -3.0486 45.9836 -12.0599 4.79658 45.6822 -12.0599 
19.7884 42.221 -12.0599 12.6418 46.3484 -12.0599 20.4869 42.221 -11.9101 
28.3321 42.221 -9.83754 36.1773 42.221 -6.03068 -18.7389 50.0661 -6.41242 
-10.8938 50.0661 -10.4548 -3.0486 50.0661 -8.4805 4.79658 50.0661 -8.14194 
12.6418 50.0661 -8.68649 -18.7389 -44.8437 -4.21476 -10.8938 -46.2857 -4.21476 
-3.0486 -47.6975 -4.21476 4.79658 -47.5878 -4.21476 4.79658 -51.9212 3.06274 
12.6418 -46.8157 -4.21476 20.4869 -46.7488 -4.21476 28.3321 -44.3874 -4.21476 
-34.4293 -37.5716 -4.21476 -20.771 -44.076 -4.21476 -26.5841 -40.794 -4.21476 
-26.5841 -44.076 1.69496 29.0194 -44.076 -4.21476 36.1773 -38.8912 -4.21476 
-36.2891 -36.2308 -4.21476 -42.2745 -30.9048 -4.21476 39.5093 -36.2308 -4.21476 
44.0225 -33.0714 -4.21476 -44.4777 -28.3856 -4.21476 47.6804 -28.3856 -4.21476 
51.8676 -21.2343 -4.21476 -48.858 -20.5405 -4.21476 -50.1197 -18.3308 -4.21476 
-50.1197 -20.5405 -2.4667 52.2231 -20.5405 -4.21476 51.8676 -20.5405 0.49994 
-52.3245 -12.6953 -4.21476 55.9539 -12.6953 -4.21476 -52.8894 -4.8501 -4.21476 
58.4039 -4.8501 -4.21476 -54.5334 2.99508 -4.21476 -57.9648 2.99508 3.01703 
58.6398 2.99508 -4.21476 -54.5515 10.8403 -4.21476 57.5377 10.8403 -4.21476 
-52.8093 18.6854 -4.21476 54.914 18.6854 -4.21476 51.8676 25.1255 -4.21476 
51.8676 18.6854 1.36066 -50.856 26.5306 -4.21476 -50.1197 27.748 -4.21476 
-50.1197 26.5306 0.231301 51.1212 26.5306 -4.21476 -45.7652 34.3758 -4.21476 
-42.2745 38.0973 -4.21476 -42.2745 34.3758 2.11746 45.4299 34.3758 -4.21476 
44.0225 36.0399 -4.21476 44.0225 34.3758 -1.86828 -37.101 42.221 -4.21476 
-34.4293 44.0368 -4.21476 -34.4293 42.221 -1.16356 -26.5841 48.1103 -4.21476 
20.4869 49.9034 -4.21476 28.3321 47.4783 -4.21476 37.4367 42.221 -4.21476 
36.1773 43.1665 -4.21476 36.1773 42.221 -2.55272 -21.1695 50.0661 -4.21476 
-18.7389 50.9263 -4.21476 -18.7389 50.0661 -2.56262 -10.8938 52.6405 -4.21476 
-10.8938 50.0661 0.622988 -3.0486 53.135 -4.21476 -3.0486 50.0661 1.83016 
4.79658 52.8404 -4.21476 4.79658 50.0661 1.47008 19.8452 50.0661 -4.21476 
12.6418 51.7895 -4.21476 12.6418 50.0661 -0.585155 4.79658 -52.1272 3.63042 
-26.5841 -44.7141 3.63042 -18.7389 -47.7798 3.63042 -10.8938 -50.0399 3.63042 
2.03895 -51.9212 3.63042 -3.0486 -51.5244 3.63042 7.52036 -51.9212 3.63042 
4.79658 -51.9212 4.25236 12.6418 -51.5233 3.63042 20.4869 -49.7683 3.63042 
28.3321 -46.8843 3.63042 -28.0196 -44.076 3.63042 -34.4293 -41.0649 3.63042 
-26.5841 -44.076 6.2211 -18.7389 -44.076 10.5792 20.4869 -44.076 10.7327 
33.3605 -44.076 3.63042 28.3321 -44.076 8.508 36.1773 -41.777 3.63042 
-41.2843 -36.2308 3.63042 -42.2745 -35.3911 3.63042 41.9537 -36.2308 3.63042 
36.1773 -36.2308 10.3435 44.0225 -34.1166 3.63042 -48.3501 -28.3856 3.63042 
-50.1197 -25.5227 3.63042 36.1773 -28.3856 11.3766 47.9055 -28.3856 3.63042 
44.0225 -28.3856 8.41911 -52.8754 -20.5405 3.63042 -50.1197 -20.5405 11.2399 
51.5506 -20.5405 3.63042 44.0225 -20.5405 9.12237 51.8676 -19.756 3.63042 
-55.6158 -12.6953 3.63042 44.0225 -12.6953 10.4417 54.0124 -12.6953 3.63042 
51.8676 -12.6953 5.94148 -57.3587 -4.8501 3.63042 -57.9648 1.0798 3.63042 
44.0225 -4.8501 10.9805 55.505 -4.8501 3.63042 51.8676 -4.8501 7.15876 
-58.1594 2.99508 3.63042 -57.9648 6.47863 3.63042 -57.9648 2.99508 4.38081 
44.0225 2.99508 9.98452 55.3849 2.99508 3.63042 51.8676 2.99508 6.88116 
-57.6686 10.8403 3.63042 36.1773 10.8403 10.8583 44.0225 10.8403 9.40504 
53.2971 10.8403 3.63042 51.8676 14.8617 3.63042 51.8676 10.8403 4.86274 
-54.6678 18.6854 3.63042 -50.1197 25.7368 3.63042 -50.1197 18.6854 10.5107 
-42.2745 18.6854 11.3752 12.6418 18.6854 9.81193 20.4869 18.6854 10.2121 
28.3321 18.6854 10.3936 36.1773 18.6854 8.81687 49.3233 18.6854 3.63042 
44.0225 18.6854 6.44186 -49.073 26.5306 3.63042 -42.2745 33.0144 3.63042 
-42.2745 26.5306 8.54491 -34.4293 26.5306 9.18343 -26.5841 26.5306 9.90143 
-18.7389 26.5306 9.97579 -10.8938 26.5306 9.45778 -3.0486 26.5306 10.2655 
4.79658 26.5306 9.96808 12.6418 26.5306 9.13961 20.4869 26.5306 9.32209 
28.3321 26.5306 8.58437 36.1773 26.5306 7.74741 46.0569 26.5306 3.63042 
44.0225 29.4505 3.63042 44.0225 26.5306 5.1189 -38.6968 34.3758 3.63042 
-34.4293 36.264 3.63042 -34.4293 34.3758 4.77305 -26.5841 34.3758 7.463 
-18.7389 34.3758 8.03938 -10.8938 34.3758 8.37046 -3.0486 34.3758 8.86939 
4.79658 34.3758 8.7483 12.6418 34.3758 8.19798 20.4869 34.3758 8.914 
28.3321 34.3758 7.03511 39.791 34.3758 3.63042 36.1773 37.7567 3.63042 
36.1773 34.3758 5.66265 -28.5337 42.221 3.63042 -26.5841 43.24 3.63042 
-26.5841 42.221 4.38815 -18.7389 43.3845 3.63042 -18.7389 42.221 4.28279 
-10.8938 46.4965 3.63042 -10.8938 42.221 5.89975 -3.0486 48.0526 3.63042 
-3.0486 42.221 6.75561 4.79658 47.7718 3.63042 4.79658 42.221 6.61013 
12.6418 46.0133 3.63042 12.6418 42.221 5.7974 20.4869 45.545 3.63042 
20.4869 42.221 6.0989 29.0958 42.221 3.63042 28.3321 42.6432 3.63042 
28.3321 42.221 3.94774 -10.8938 -45.0403 11.4756 -3.0486 -46.8094 11.4756 
[...]
POINT_DATA 518
SCALARS ImageScalars float
LOOKUP_TABLE default
0 0 0 0 0 0 0 0 0 
0 0 0 0 0 0 0 0 0 
0 0 0 0 0 0 0 0 0 
0 0 0 0 0 0 0 0 0 
0 0 0 0 0 0 0 0 0 
0 0 0 0 0 0 0 0 0 
0 0 0 0 0 0 0 0 0 
0 0 0 0 0 0 0 0 0 
0 0 0 0 0 0 0 0 0 
0 0 0 0 0 0 0 0 0 
0 0 0 0 0 0 0 0 0 
0 0 0 0 0 0 0 0 0 
0 0 0 0 0 0 0 0 0 
0 0 0 0 0 0 0 0 0 
0 0 0 0 0 0 0 0 0 
0 0 0 0 0 0 0 0 0 
0 0 0 0 0 0 0 0 0 
0 0 0 0 0 0 0 0 0 
0 0 0 0 0 0 0 0 0 
0 0 0 0 0 0 0 0 0 
0 0 0 0 0 0 0 0 0 
0 0 0 0 0 0 0 0 0 
0 0 0 0 0 0 0 0 0 
0 0 0 0 0 0 0 0 0 
0 0 0 0 0 0 0 0 0 
0 0 0 0 0 0 0 0 0 
0 0 0 0 0 0 0 0 0 
0 0 0 0 0 0 0 0 0 
0 0 0 0 0 0 0 0 0 
0 0 0 0 0 0 0 0 0 
0 0 0 0 0 0 0 0 0 
0 0 0 0 0 0 0 0 0 
0 0 0 0 0 0 0 0 0 
0 0 0 0 0 0 0 0 0 
0 0 0 0 0 0 0 0 0 
0 0 0 0 0 0 0 0 0 
0 0 0 0 0 0 0 0 0 
0 0 0 0 0 0 0 0 0 
0 0 0 0 0 0 0 0 0 
0 0 0 0 0 0 0 0 0 
0 0 0 0 0 0 0 0 0 
0 0 0 0 0 0 0 0 0 
0 0 0 0 0 0 0 0 0 
0 0 0 0 0 0 0 0 0 
0 0 0 0 0 0 0 0 0 
0 0 0 0 0 0 0 0 0 
0 0 0 0 0 0 0 0 0 
0 0 0 0 0 0 0 0 0 
0 0 0 0 0 0 0 0 0 
0 0 0 0 0 0 0 0 0 
0 0 0 0 0 0 0 0 0 
0 0 0 0 0 0 0 0 0 
0 0 0 0 0 0 0 0 0 
0 0 0 0 0 0 0 0 0 
0 0 0 0 0 0 0 0 0 
0 0 0 0 0 0 0 0 0 
0 0 0 0 0 0 0 0 0 
0 0 0 0 0 
NORMALS Normals float
-0.0343217 -0.0632417 0.997408 0.105784 0.277988 0.954742 0.0599512 0.204267 0.977078 
-0.0196787 0.221551 0.97495 -0.000762609 0.270585 0.962696 0.0359345 0.357537 0.933208 
0.00669837 0.315739 0.948822 -0.151688 0.292032 0.944303 0.266107 0.273591 0.924302 
0.0858038 0.257854 0.962366 0.0372528 0.213523 0.976228 0.0553484 0.12074 0.99114 
0.0597968 0.175615 0.982641 0.0875121 0.263903 0.960571 0.0219919 0.284733 0.958355 
-0.111689 0.191079 0.9752 -0.12505 0.14256 0.981855 -0.232235 0.231225 0.944776 
0.279726 0.0925077 0.955613 0.10106 0.109864 0.988796 -0.042873 0.114609 0.992485 
0.0212393 0.0431308 0.998844 0.123747 0.204432 0.971028 0.121257 0.12105 0.985213 
-0.0277341 0.113 0.993208 -0.149866 0.050294 0.987426 -0.10341 0.110187 0.988517 
-0.115416 0.151831 0.981645 -0.230487 0.273281 0.933913 0.237227 -0.00695387 0.971429 
0.108344 -0.0699595 0.991649 -0.0318222 -0.0754893 0.996639 0.138173 0.071907 0.987794 
0.175432 -0.0390147 0.983718 -0.0154111 -0.0342349 0.999295 -0.0360297 -0.0485264 0.998172 
-0.0534674 0.114354 0.992 -0.119003 0.0173085 0.992743 -0.033459 0.078105 0.996383 
-0.0682023 0.119118 0.990535 -0.20747 0.137025 0.968597 -0.514681 0.112768 0.849933 
0.298676 0.0644469 0.952176 0.143358 -0.020808 0.989452 0.0374247 -0.0851172 0.995668 
0.0941279 -0.129873 0.987053 0.0213994 0.0451957 0.998749 -0.0508561 -0.0887695 0.994753 
-0.0197134 -0.062052 0.997878 0.355439 -0.032679 0.934128 -0.041847 -0.0644167 0.997045 
-0.0388867 -0.0786721 0.996142 -0.16535 -0.0866435 0.982422 -0.000395023 -0.0176798 0.999844 
-0.0563849 0.0197711 0.998213 -0.197098 -0.00267885 0.98038 -0.518138 -0.00703522 0.855268 
0.225328 0.0303825 0.973809 0.083576 -0.0125148 0.996423 0.00190039 -0.0327332 0.999462 
0.0725857 -0.0101105 0.997311 0.218027 -0.159127 0.962883 0.0863968 0.0502282 0.994994 
-0.0233361 -0.00294516 0.999723 -0.127513 -0.318875 0.93918 -0.0104528 -0.129694 0.991499 
0.0755912 -0.124981 0.989275 -0.0521313 -0.104249 0.993184 -0.235951 -0.0617465 0.969801 
-0.542059 -0.063184 0.837962 0.31839 -0.138983 0.937716 0.0822108 0.0493218 0.995394 
0.0405663 0.0110935 0.999115 -0.00963009 0.014369 0.99985 0.066163 -0.0615233 0.99591 
0.152917 -0.151019 0.976632 -0.0551799 -0.134301 0.989403 -0.0812055 -0.0707498 0.994183 
-0.00117371 -0.047045 0.998892 0.0134949 -0.0978192 0.995113 0.0035509 -0.133422 0.991053 
-0.229542 -0.255031 0.939292 0.200347 -0.0871596 0.97584 -0.0228474 0.0187418 0.999563 
0.00190225 -0.029875 0.999552 0.0372275 0.0519525 0.997955 0.0404638 -0.035217 0.99856 
0.0190544 -0.078556 0.996728 -0.0366916 -0.00920238 0.999284 -0.0324092 -0.0653219 0.997338 
0.0100411 -0.0485173 0.998772 -0.184311 -0.192683 0.963796 0.0987789 -0.190342 0.976736 
0.0160884 -0.0663244 0.997668 0.0665937 -0.0477127 0.996639 0.00793709 -0.0435043 0.999022 
-0.0134977 -0.0733291 0.997216 -0.0702564 -0.114621 0.990922 -0.0285634 -0.138501 0.98995 
-0.125479 -0.237274 0.963305 0.24038 -0.297507 0.923963 0.0688501 -0.215079 0.974167 
0.0109403 -0.304918 0.952316 -0.0502474 -0.319433 0.946276 -0.11716 -0.245424 0.96231 
0.235499 0.711978 0.661534 0.140759 0.661984 0.736182 0.0328586 0.594398 0.8035 
-0.052675 0.555301 0.82998 -0.0170379 0.577944 0.815898 -0.113538 0.598632 0.792937 
-0.342739 0.72596 0.596248 0.403861 0.603024 0.687937 0.239654 0.521662 0.818801 
0.107238 0.282962 0.953117 0.161182 0.403711 0.900576 0.0881384 0.263338 0.960669 
0.109196 0.336786 0.935228 -0.0194699 0.249716 0.968123 -0.016375 0.285986 0.958094 
-0.0206885 0.266462 0.963623 -0.0501153 0.294885 0.954218 0.0134163 0.339034 0.940679 
-0.0183758 0.349631 0.936707 -0.0159674 0.362483 0.931854 -0.0625717 0.42181 0.904523 
-0.147699 0.371145 0.916753 -0.1761 0.512775 0.840268 -0.446702 0.633566 0.631705 
0.533744 0.467746 0.704508 0.271446 0.298129 0.915115 0.287313 0.404561 0.868206 
0.116301 0.282686 0.952136 0.150657 0.293228 0.944097 0.175734 0.315113 0.932642 
-0.221022 0.321332 0.920812 -0.270473 0.300109 0.914756 -0.30213 0.370301 0.878405 
-0.569644 0.448832 0.688517 0.309153 0.271073 0.911561 0.496155 0.261231 0.828003 
-0.344144 0.285143 0.894572 -0.330997 0.303498 0.893493 -0.470199 0.337457 0.815497 
-0.808685 0.496624 0.315266 0.653366 0.187897 0.733353 0.3766 0.120894 0.918454 
0.432532 0.142936 0.890216 -0.460136 0.28933 0.839382 -0.520984 0.133052 0.843133 
-0.615091 0.313636 0.723392 0.633921 0.0967659 0.76732 0.342756 0.0602848 0.937488 
0.309845 0.06542 0.948534 0.36986 0.0715579 0.926328 -0.518624 0.113922 0.847379 
0.305902 0.0664664 0.94974 0.575303 0.129503 0.807623 -0.547824 -0.00741709 0.836561 
0.311105 0.0133039 0.950283 0.571305 -0.0349498 0.819993 -0.544431 -0.063527 0.836397 
-0.556073 -0.102256 0.824819 0.360378 -0.146418 0.921243 0.719337 -0.203706 0.664122 
0.353124 -0.138459 0.925274 -0.573399 -0.247689 0.780938 -0.364995 -0.301014 0.881005 
-0.6229 -0.256644 0.739005 0.857765 -0.392424 0.332028 0.374512 -0.129827 0.918088 
0.508843 -0.178473 0.842156 0.28762 -0.291612 0.91227 -0.37186 -0.269424 0.88833 
-0.288495 -0.345273 0.89306 -0.511702 -0.34741 0.785791 0.620497 -0.476079 0.623163 
0.276507 -0.303398 0.911863 0.308344 -0.33007 0.892176 0.151731 -0.402778 0.902634 
-0.206873 -0.312689 0.927054 -0.267388 -0.348571 0.898333 -0.16122 -0.403279 0.900763 
-0.343111 -0.416193 0.842056 -0.738796 -0.618976 0.266551 0.519474 -0.764168 0.382353 
0.232235 -0.359999 0.903586 0.217686 -0.588455 0.778674 0.267825 -0.380346 0.885216 
0.00599109 -0.547026 0.837094 -0.0597668 -0.484955 0.872495 0.00262417 -0.486496 0.873679 
-0.217134 -0.317337 0.92312 -0.0873684 -0.473569 0.876413 -0.226001 -0.334446 0.914915 
-0.264524 -0.632739 0.727783 -0.574348 -0.799821 0.174389 0.323314 -0.92928 0.178623 
0.00713902 -0.755455 0.655161 -0.0774745 -0.841918 0.534015 -0.00267581 -0.866316 0.499489 
-0.111407 -0.880883 0.460036 0.24016 0.761598 0.601907 0.150382 0.756523 0.636441 
0.0654715 0.751264 0.656747 -0.0373646 0.698531 0.714604 -0.00188726 0.998297 0.0583128 
-0.0384895 0.653035 0.756349 -0.146215 0.760898 0.632183 -0.345099 0.740799 0.576302 
0.422693 0.672304 0.607732 0.274885 0.74221 0.611198 0.350651 0.678549 0.645457 
0.399439 0.901772 0.165094 -0.361601 0.733059 0.576081 -0.503325 0.706306 0.497791 
0.445804 0.651623 0.613716 0.571455 0.549752 0.609271 -0.553676 0.692904 0.461873 
-0.653961 0.625124 0.426093 0.607436 0.493479 0.622495 -0.761592 0.524133 0.381134 
-0.818423 0.494604 0.29249 0.692674 0.376164 0.615389 0.722149 0.334594 0.605432 
0.778699 0.409273 0.475525 -0.823534 0.489343 0.28694 -0.884589 0.445118 -0.139185 
0.768218 0.210831 0.604477 -0.911505 0.377599 0.163029 0.712929 0.110266 0.692512 
-0.980486 0.185686 0.0645524 0.766821 0.0799049 0.636868 0.997277 0.0255332 0.0691856 
-0.998366 -0.0571296 0.00103905 0.855018 -0.0900669 0.510718 -0.973522 -0.228375 -0.010021 
0.848177 -0.22014 0.481803 -0.910084 -0.408952 -0.0671223 -0.866102 -0.495501 -0.0659212 
-0.79092 -0.429532 -0.43583 0.878625 -0.394575 0.268938 0.86777 -0.427686 0.2531 
0.800265 -0.573137 -0.176324 -0.856053 -0.51513 -0.0426024 0.785083 -0.610004 0.107427 
0.703067 -0.709438 0.0489206 0.482414 -0.643636 -0.594146 -0.771511 -0.636198 0.00488252 
-0.74797 -0.663524 0.0165997 -0.75656 -0.623694 -0.196526 0.592721 -0.805254 -0.0157772 
0.548564 -0.836106 0.00208055 0.591767 -0.76189 -0.263316 0.385809 -0.922579 8.83729e-05 
-0.261843 -0.964634 -0.030311 -0.413566 -0.909646 0.0388171 -0.604145 -0.796746 0.0142889 
-0.577164 -0.816627 0.00166094 -0.565809 -0.812599 -0.139797 0.332017 -0.941261 -0.0615877 
0.304764 -0.951532 -0.0413087 0.32829 -0.924643 -0.193033 0.153068 -0.987968 0.0221082 
0.202461 -0.83544 -0.510929 0.0134749 -0.988627 0.149785 0.0442798 -0.814674 -0.578226 
-0.0933452 -0.983657 0.153963 -0.111701 -0.848373 -0.517481 -0.257302 -0.965671 -0.0357049 
-0.198239 -0.980135 0.00602628 -0.233158 -0.910954 -0.340295 -0.000565679 0.999866 0.0163462 
0.384868 0.92222 0.0372407 0.325582 0.944354 -0.046823 0.23745 0.971021 -0.0271366 
0.0456283 0.99892 0.00877002 0.133186 0.991064 -0.00734282 -0.0515421 0.998621 0.00994516 
-0.00177381 0.999413 -0.0342213 -0.149237 0.988794 -0.00386236 -0.288229 0.955132 -0.0681738 
-0.445088 0.88887 -0.108664 0.399007 0.915752 0.0468173 0.497865 0.865426 0.0562928 
0.354177 0.926618 -0.126247 0.162538 0.788515 -0.593148 -0.195815 0.524983 -0.828281 
-0.565498 0.807068 -0.169863 -0.411405 0.700563 -0.583059 -0.636179 0.749536 -0.182952 
0.643119 0.758814 0.102949 0.663309 0.74091 0.105228 -0.718097 0.654402 -0.236844 
-0.474901 0.418214 -0.774316 -0.745961 0.599833 -0.289383 0.822103 0.564107 0.077011 
0.864555 0.496683 0.0764815 -0.261646 0.1818 -0.947887 -0.829871 0.458031 -0.318623 
-0.616298 0.326662 -0.716567 0.911418 0.406541 0.0635755 0.78136 0.343625 -0.52096 
-0.831179 0.362927 -0.421218 -0.557563 0.121128 -0.82125 -0.83021 0.353697 -0.43087 
0.95498 0.287212 0.0743178 -0.407106 0.111554 -0.906543 -0.830006 0.235191 -0.505742 
-0.717312 0.206535 -0.665438 0.982824 0.155726 0.0990308 0.997431 0.0547694 0.0461652 
-0.358232 -0.0334117 -0.933034 -0.835319 0.0805722 -0.543829 -0.606397 0.0482751 -0.793695 
0.999295 0.0227833 0.0298371 0.996637 -0.0819 -0.00284877 0.999623 0.0124619 -0.0244584 
-0.32089 -0.0885115 -0.942972 -0.802306 -0.118371 -0.585059 -0.570633 -0.143696 -0.808536 
0.973205 -0.224017 -0.0518569 -0.127477 -0.203502 -0.97074 -0.360925 -0.193636 -0.912271 
-0.663615 -0.268451 -0.698247 -0.668301 -0.340372 -0.661454 -0.601933 -0.237211 -0.7625 
0.876356 -0.440846 -0.194048 0.654443 -0.612008 -0.444016 0.472859 -0.451734 -0.756532 
0.123464 -0.365051 -0.922765 -0.10907 -0.307252 -0.945357 0.037153 -0.172959 -0.984228 
-0.0843991 -0.195742 -0.977017 -0.232496 -0.184862 -0.954867 -0.635083 -0.353631 -0.686743 
-0.344849 -0.268591 -0.89941 0.619179 -0.619252 -0.48285 0.401291 -0.604132 -0.688469 
0.329953 -0.536659 -0.776614 0.0724895 -0.439808 -0.895162 0.0551593 -0.299504 -0.952499 
-0.0281366 -0.256893 -0.96603 0.0202203 -0.203224 -0.978924 0.0323135 -0.233106 -0.971914 
-0.0728956 -0.193983 -0.978293 -0.0427199 -0.10566 -0.993484 -0.0374667 -0.0851867 -0.99566 
-0.0937957 -0.203811 -0.974507 -0.274357 -0.254881 -0.927235 -0.570921 -0.318631 -0.756653 
-0.540492 -0.367826 -0.756685 -0.476776 -0.292873 -0.828801 0.328088 -0.577047 -0.747914 
0.317643 -0.545695 -0.775448 0.269454 -0.521571 -0.809542 0.177808 -0.400015 -0.899095 
0.0503889 -0.317517 -0.946913 0.0571277 -0.21094 -0.975828 0.0245615 -0.212516 -0.976849 
-0.0440563 -0.2028 -0.978229 0.00566783 -0.202404 -0.979286 -0.054902 -0.230833 -0.971443 
-0.232998 -0.342945 -0.910001 -0.461623 -0.43381 -0.773766 -0.356574 -0.510228 -0.782638 
-0.311758 -0.37267 -0.874028 0.263992 -0.539538 -0.799504 0.19047 -0.559694 -0.806514 
0.172999 -0.522725 -0.834763 0.103991 -0.539406 -0.8356 0.0835611 -0.509686 -0.856293 
0.174429 -0.521632 -0.835149 0.14908 -0.377255 -0.914032 0.0484631 -0.583187 -0.810891 
0.0430199 -0.341141 -0.939027 -0.0859589 -0.584119 -0.807104 -0.0602397 -0.34659 -0.93608 
-0.0947664 -0.554396 -0.82684 -0.0261223 -0.394613 -0.918476 -0.171284 -0.624379 -0.762111 
-0.121309 -0.471551 -0.873455 -0.354516 -0.536984 -0.765485 -0.347505 -0.537851 -0.768086 
-0.34416 -0.521643 -0.780668 0.143158 0.594155 -0.791508 0.0965582 0.596497 -0.796786 
-0.0317591 0.58383 -0.811254 -0.17333 0.528023 -0.831353 0.414576 0.669863 -0.615963 
0.238173 0.792889 -0.560892 0.133097 0.666007 -0.733975 0.120728 0.722257 -0.681006 
0.115757 0.553914 -0.824488 0.0692283 0.46129 -0.884544 -0.014298 0.403751 -0.914757 
-0.17308 0.464916 -0.868272 -0.146172 0.436426 -0.887787 -0.1727 0.417905 -0.891925 
-0.20668 0.311619 -0.927457 0.480714 0.643386 -0.595792 0.555581 0.577837 -0.597858 
0.381415 0.596767 -0.705969 0.187112 0.450553 -0.872921 0.00510037 0.379486 -0.925184 
-0.0264126 0.346886 -0.937536 -0.0246946 0.239549 -0.97057 -0.0543479 0.184348 -0.981357 
-0.14611 0.160654 -0.976136 -0.155845 0.232378 -0.960059 -0.291026 0.296405 -0.909641 
-0.164257 0.226571 -0.960044 0.621187 0.483101 -0.617041 0.495232 0.4328 -0.753279 
0.304543 0.309866 -0.900687 0.0788923 0.207693 -0.975007 -0.0208621 0.170355 -0.985162 
-0.11088 0.175155 -0.978277 -0.115263 0.0954972 -0.988734 -0.0778409 0.070199 -0.994491 
-0.0854703 0.0460231 -0.995277 -0.139301 0.0942227 -0.985757 -0.256317 0.176342 -0.950371 
-0.206179 0.121755 -0.97091 -0.260145 0.174983 -0.949582 0.769041 0.338186 -0.542409 
0.770816 0.336822 -0.540734 0.322235 0.258942 -0.910557 0.162284 0.091617 -0.982482 
0.0766799 0.0281352 -0.996659 -0.13322 -0.0127742 -0.991004 -0.133147 -0.018618 -0.990921 
-0.0994267 0.095008 -0.990499 -0.106483 0.0798306 -0.991105 -0.08461 0.0118898 -0.996343 
-0.108118 0.0666814 -0.991899 -0.398347 0.0848307 -0.913304 -0.287758 0.0802483 -0.954335 
0.777676 0.275211 -0.565224 0.615391 0.183451 -0.766577 0.207713 0.174275 -0.96254 
0.0427914 0.0702893 -0.996608 -0.0361594 -0.0376969 -0.998635 -0.0646191 -0.166093 -0.983991 
-0.104262 -0.143444 -0.984151 -0.0115647 0.0216204 -0.999699 0.0328445 0.052989 -0.998055 
-0.176911 0.0956948 -0.979564 -0.157618 0.0425953 -0.986581 -0.128953 0.00593447 -0.991633 
-0.316246 0.0461868 -0.947552 -0.226165 -0.0230694 -0.973816 0.793247 0.0902399 -0.602176 
0.543076 -0.00851022 -0.83964 0.241653 0.0103954 -0.970307 -0.0387532 -0.0128625 -0.999166 
-0.158244 -0.0438519 -0.986426 -0.129738 -0.0972116 -0.986771 0.0521666 -0.0929385 -0.994304 
0.0760481 0.0956564 -0.992505 -0.045922 -0.185269 -0.981614 -0.115761 -0.106348 -0.987567 
-0.161486 -0.00310585 -0.98687 -0.159496 -0.0506413 -0.985899 -0.320076 -0.039863 -0.946553 
-0.209734 -0.0537954 -0.976277 0.71781 -0.136838 -0.68266 0.495528 -0.10504 -0.862217 
0.227488 -0.219707 -0.948672 -0.0106095 -0.175377 -0.984444 -0.117922 -0.132779 -0.984106 
-0.109555 -0.0542159 -0.992501 0.0282933 -0.0194436 -0.999411 -0.121828 -0.229104 -0.965748 
-0.0568111 -0.0868612 -0.994599 0.0240679 -0.163317 -0.98628 -0.120858 -0.20216 -0.971866 
-0.175316 -0.168854 -0.969924 -0.246894 -0.113939 -0.962321 -0.167328 -0.167211 -0.971618 
-0.217795 -0.133108 -0.966875 0.577204 -0.291645 -0.762744 0.482198 -0.363092 -0.797276 
0.521348 -0.282708 -0.805154 0.124484 -0.362226 -0.92374 0.166517 -0.368658 -0.914529 
0.0547998 -0.349448 -0.935352 -0.0297433 -0.331273 -0.943066 -0.00499294 -0.290041 -0.957001 
-0.0499318 -0.246973 -0.967735 -0.0134809 -0.211403 -0.977306 -0.0453931 -0.116766 -0.992122 
-0.175654 -0.350815 -0.919823 -0.244145 -0.333419 -0.910618 -0.0806626 -0.260577 -0.962078 
-0.13611 -0.300341 -0.944071 -0.0846069 -0.192812 -0.977581 -0.0722692 -0.18971 -0.979177 
-0.0726882 -0.191238 -0.978849 0.115501 -0.366947 -0.923044 0.0486605 -0.41276 -0.909539 
0.0547391 -0.415616 -0.907891 -0.00710831 -0.339412 -0.940611 -0.0469966 -0.376207 -0.925343 
-0.0482857 -0.33648 -0.940452 -0.0507373 -0.367281 -0.928725 0.0414528 -0.440442 -0.896824 
0.0421949 -0.443925 -0.89507 0.0306494 -0.271949 -0.961823 0.0329893 -0.321084 -0.946476 
-0.177159 -0.381278 -0.907327 -0.162415 -0.348134 -0.923268 -0.189618 -0.400326 -0.89654 
-0.0312563 -0.0170502 -0.999366 -0.0109031 -0.0165984 -0.999803 -0.0375812 -0.026457 -0.998943 
-0.0329155 -0.0318614 -0.99895 -0.0318141 -0.0270311 -0.999128 
