# vtk DataFile Version 4.2
vtk output
ASCII
DATASET POLYDATA
POINTS 528 float
-30.724 -39.2187 -14.7517 -22.771 -39.2187 -16.8869 -14.8181 -39.2187 -16.5277 
-6.86519 -39.2187 -16.692 1.08774 -39.2187 -17.006 9.04067 -39.2187 -17.2418 
16.9936 -39.2187 -17.5617 24.9465 -39.2187 -15.5187 -38.6769 -31.2658 -16.7731 
-30.724 -31.2658 -18.3515 -22.771 -31.2658 -19.2818 -14.8181 -31.2658 -18.9899 
-6.86519 -31.2658 -18.6787 1.08774 -31.2658 -18.8891 9.04067 -31.2658 -19.3511 
16.9936 -31.2658 -19.9752 24.9465 -31.2658 -18.8253 32.8995 -31.2658 -18.2313 
40.8524 -31.2658 -15.1778 -46.6298 -23.3129 -16.0945 -38.6769 -23.3129 -19.5299 
-30.724 -23.3129 -20.0832 -22.771 -23.3129 -19.7893 -14.8181 -23.3129 -19.3606 
-6.86519 -23.3129 -18.7995 1.08774 -23.3129 -19.0562 9.04067 -23.3129 -19.6808 
16.9936 -23.3129 -20.3101 24.9465 -23.3129 -19.8899 32.8995 -23.3129 -19.9204 
40.8524 -23.3129 -19.3297 48.8053 -23.3129 -15.0001 -54.5828 -15.3599 -13.7539 
-46.6298 -15.3599 -17.9165 -38.6769 -15.3599 -19.4731 -30.724 -15.3599 -19.8306 
-22.771 -15.3599 -19.2359 -14.8181 -15.3599 -18.428 -6.86519 -15.3599 -17.9073 
1.08774 -15.3599 -18.5984 9.04067 -15.3599 -19.2608 16.9936 -15.3599 -19.5481 
24.9465 -15.3599 -20.5523 32.8995 -15.3599 -20.521 40.8524 -15.3599 -19.8699 
48.8053 -15.3599 -17.884 -54.5828 -7.40701 -16.2299 -46.6298 -7.40701 -19.2871 
-38.6769 -7.40701 -20.1068 -30.724 -7.40701 -19.8193 -22.771 -7.40701 -19.0563 
-14.8181 -7.40701 -18.1257 -6.86519 -7.40701 -17.3767 1.08774 -7.40701 -18.6707 
9.04067 -7.40701 -20.0234 16.9936 -7.40701 -18.5707 24.9465 -7.40701 -19.684 
32.8995 -7.40701 -20.552 40.8524 -7.40701 -20.3764 48.8053 -7.40701 -18.6905 
56.7582 -7.40701 -14.1471 -54.5828 0.545921 -16.7007 -46.6298 0.545921 -19.3588 
-38.6769 0.545921 -19.9714 -30.724 0.545921 -19.7537 -22.771 0.545921 -19.1517 
-14.8181 0.545921 -19.8089 -6.86519 0.545921 -19.5219 1.08774 0.545921 -17.09 
9.04067 0.545921 -20.0571 16.9936 0.545921 -17.904 24.9465 0.545921 -19.3918 
32.8995 0.545921 -20.3265 40.8524 0.545921 -20.1849 48.8053 0.545921 -18.4712 
56.7582 0.545921 -13.9674 -54.5828 8.49885 -15.0388 -46.6298 8.49885 -18.2753 
-38.6769 8.49885 -19.0801 -30.724 8.49885 -19.1895 -22.771 8.49885 -18.7192 
-14.8181 8.49885 -18.6825 -6.86519 8.49885 -18.4885 1.08774 8.49885 -17.8505 
9.04067 8.49885 -19.4949 16.9936 8.49885 -18.7167 24.9465 8.49885 -19.5742 
32.8995 8.49885 -20.0546 40.8524 8.49885 -19.6828 48.8053 8.49885 -17.8776 
56.7582 8.49885 -13.153 -46.6298 16.4518 -16.4129 -38.6769 16.4518 -18.0706 
-30.724 16.4518 -18.9822 -22.771 16.4518 -18.8574 -14.8181 16.4518 -18.2725 
-6.86519 16.4518 -16.8856 1.08774 16.4518 -16.0768 9.04067 16.4518 -17.2043 
16.9936 16.4518 -18.2713 24.9465 16.4518 -19.1885 32.8995 16.4518 -19.6223 
40.8524 16.4518 -19.1532 48.8053 16.4518 -16.4639 -38.6769 24.4047 -15.6554 
-30.724 24.4047 -17.4815 -22.771 24.4047 -18.344 -14.8181 24.4047 -17.4659 
-6.86519 24.4047 -16.0524 1.08774 24.4047 -14.4371 9.04067 24.4047 -14.3899 
16.9936 24.4047 -15.5718 24.9465 24.4047 -16.5848 32.8995 24.4047 -16.8414 
40.8524 24.4047 -15.9649 -30.724 32.3576 -14.5131 -22.771 32.3576 -15.4776 
-14.8181 32.3576 -14.9881 -6.86519 32.3576 -13.2904 -30.724 -41.4864 -12.6292 
-22.771 -43.6778 -12.6292 -14.8181 -44.1033 -12.6292 -6.86519 -44.9697 -12.6292 
-6.86519 -47.1717 -5.80944 1.08774 -44.921 -12.6292 9.04067 -44.9447 -12.6292 
16.9936 -43.7876 -12.6292 24.9465 -41.9886 -12.6292 -35.1412 -39.2187 -12.6292 
-38.6769 -37.0977 -12.6292 -38.6769 -39.2187 -5.94909 32.1612 -39.2187 -12.6292 
32.8995 -38.8123 -12.6292 32.8995 -39.2187 -11.7649 40.8524 -34.8772 -12.6292 
-45.4102 -31.2658 -12.6292 -46.6298 -29.8522 -12.6292 -46.6298 -31.2658 -10.1267 
45.6823 -31.2658 -12.6292 48.8053 -27.9342 -12.6292 48.8053 -31.2658 -6.07009 
-52.8375 -23.3129 -12.6292 -54.5828 -18.9289 -12.6292 -54.5828 -23.3129 -8.06559 
51.875 -23.3129 -12.6292 -55.731 -15.3599 -12.6292 55.6081 -15.3599 -12.6292 
56.7582 -11.5754 -12.6292 56.7582 -15.3599 -10.6278 -58.2537 -7.40701 -12.6292 
58.0634 -7.40701 -12.6292 -59.24 0.545921 -12.6292 -62.5357 0.545921 -6.51473 
58.0733 0.545921 -12.6292 -57.1996 8.49885 -12.6292 -54.5828 13.3127 -12.6292 
57.2863 8.49885 -12.6292 56.7582 11.2369 -12.6292 -52.8214 16.4518 -12.6292 
-54.5828 16.4518 -10.8822 -46.6298 24.0206 -12.6292 55.4158 16.4518 -12.6292 
48.8053 23.8633 -12.6292 56.7582 16.4518 -11.1332 -46.083 24.4047 -12.6292 
-46.6298 24.4047 -12.3101 -38.6769 29.9707 -12.6292 1.08774 28.9572 -12.6292 
9.04067 27.8047 -12.6292 16.9936 29.3126 -12.6292 24.9465 31.2176 -12.6292 
32.8995 30.6366 -12.6292 48.1684 24.4047 -12.6292 40.8524 28.9304 -12.6292 
48.8053 24.4047 -12.2323 -35.5235 32.3576 -12.6292 -38.6769 32.3576 -10.6031 
-30.724 34.7557 -12.6292 -22.771 35.9699 -12.6292 -14.8181 35.8795 -12.6292 
-4.34197 32.3576 -12.6292 -6.86519 33.3495 -12.6292 1.08774 32.3576 -10.9218 
9.04067 32.3576 -9.76114 16.9936 32.3576 -10.2985 24.9465 32.3576 -11.6412 
32.8995 32.3576 -10.9003 40.8524 32.3576 -8.96591 -22.771 40.3106 -7.05735 
-14.8181 40.3106 -7.5376 -6.86519 40.3106 -6.05387 -6.86519 -47.4202 -4.67624 
-38.6769 -39.547 -4.67624 -30.724 -43.4285 -4.67624 -22.771 -45.6092 -4.67624 
-9.32735 -47.1717 -4.67624 -14.8181 -46.6088 -4.67624 -4.049 -47.1717 -4.67624 
-6.86519 -47.1717 -4.12159 1.08774 -46.7084 -4.67624 9.04067 -46.8205 -4.67624 
16.9936 -45.6332 -4.67624 24.9465 -43.4284 -4.67624 32.8995 -41.4476 -4.67624 
-39.1345 -39.2187 -4.67624 -46.6298 -33.3169 -4.67624 -38.6769 -39.2187 -4.05731 
-30.724 -39.2187 2.89876 37.2764 -39.2187 -4.67624 32.8995 -39.2187 0.862342 
40.8524 -37.3779 -4.67624 48.8053 -31.6468 -4.67624 -48.6641 -31.2658 -4.67624 
-54.5828 -24.3648 -4.67624 -46.6298 -31.2658 -0.760966 49.2189 -31.2658 -4.67624 
48.8053 -31.2658 -3.56205 -55.3469 -23.3129 -4.67624 -54.5828 -23.3129 -2.41028 
55.6038 -23.3129 -4.67624 56.7582 -21.2344 -4.67624 -59.5875 -15.3599 -4.67624 
59.6037 -15.3599 -4.67624 -61.9998 -7.40701 -4.67624 -62.5357 -3.70397 -4.67624 
62.0512 -7.40701 -4.67624 -63.1461 0.545921 -4.67624 -62.5357 5.37209 -4.67624 
-62.5357 0.545921 1.55945 62.4513 0.545921 -4.67624 -62.1104 8.49885 -4.67624 
62.1932 8.49885 -4.67624 -59.0077 16.4518 -4.67624 -54.5828 23.2098 -4.67624 
59.9854 16.4518 -4.67624 56.7582 22.2664 -4.67624 -53.5624 24.4047 -4.67624 
-46.6298 31.6616 -4.67624 55.262 24.4047 -4.67624 48.8053 30.6483 -4.67624 
-45.6836 32.3576 -4.67624 -38.6769 36.4248 -4.67624 -30.724 39.7134 -4.67624 
1.08774 39.0874 -4.67624 9.04067 37.7436 -4.67624 16.9936 37.2536 -4.67624 
24.9465 37.4727 -4.67624 32.8995 37.163 -4.67624 46.1132 32.3576 -4.67624 
40.8524 35.061 -4.67624 -28.3341 40.3106 -4.67624 -22.771 41.5972 -4.67624 
-14.8181 41.9871 -4.67624 -2.8342 40.3106 -4.67624 -6.86519 41.3403 -4.67624 
1.08774 40.3106 -2.84799 9.04067 40.3106 -0.161784 16.9936 40.3106 1.62378 
-22.771 -41.6708 3.27669 -14.8181 -42.4848 3.27669 -6.86519 -42.7934 3.27669 
1.08774 -41.8801 3.27669 9.04067 -41.4352 3.27669 16.9936 -40.616 3.27669 
24.9465 -39.7672 3.27669 -38.6769 -34.7263 3.27669 -30.0563 -39.2187 3.27669 
-30.724 -38.9006 3.27669 -22.771 -39.2187 5.78631 -14.8181 -39.2187 6.40282 
-6.86519 -39.2187 6.63013 1.08774 -39.2187 5.8176 9.04067 -39.2187 5.48657 
16.9936 -39.2187 4.79054 27.7661 -39.2187 3.27669 24.9465 -39.2187 3.93949 
32.8995 -38.0099 3.27669 40.8524 -34.6505 3.27669 -43.5168 -31.2658 3.27669 
-46.6298 -28.6931 3.27669 -38.6769 -31.2658 6.26338 -30.724 -31.2658 8.42775 
-22.771 -31.2658 10.127 -14.8181 -31.2658 10.9454 1.08774 -31.2658 10.9762 
9.04067 -31.2658 10.4527 16.9936 -31.2658 10.903 24.9465 -31.2658 11.2202 
32.8995 -31.2658 9.67669 45.7358 -31.2658 3.27669 40.8524 -31.2658 7.31459 
48.8053 -28.5786 3.27669 -51.8756 -23.3129 3.27669 -54.5828 -19.5739 3.27669 
-46.6298 -23.3129 7.53938 -38.6769 -23.3129 10.8069 53.5036 -23.3129 3.27669 
48.8053 -23.3129 8.45297 56.7582 -18.2161 3.27669 -56.8955 -15.3599 3.27669 
-54.5828 -15.3599 6.14843 58.2682 -15.3599 3.27669 56.7582 -15.3599 5.7148 
-59.9866 -7.40701 3.27669 61.1606 -7.40701 3.27669 56.7582 -7.40701 10.0457 
-62.3371 0.545921 3.27669 61.9408 0.545921 3.27669 -60.9984 8.49885 3.27669 
61.785 8.49885 3.27669 -58.4937 16.4518 3.27669 -54.5828 22.8429 3.27669 
-54.5828 16.4518 10.6627 59.6293 16.4518 3.27669 56.7582 21.7546 3.27669 
56.7582 16.4518 8.33256 -53.4128 24.4047 3.27669 -46.6298 31.6078 3.27669 
55.0988 24.4047 3.27669 48.8053 30.9962 3.27669 -45.5907 32.3576 3.27669 
-38.6769 36.53 3.27669 -38.6769 32.3576 11.1583 -30.724 40.2947 3.27669 
24.9465 40.2386 3.27669 32.8995 39.0534 3.27669 47.0469 32.3576 3.27669 
40.8524 36.2096 3.27669 40.8524 32.3576 10.6437 -30.6808 40.3106 3.27669 
-22.771 42.9981 3.27669 -14.8181 44.3693 3.27669 -6.86519 44.388 3.27669 
1.08774 43.2386 3.27669 9.04067 41.8774 3.27669 24.1482 40.3106 3.27669 
16.9936 40.9638 3.27669 -6.86519 -31.6359 11.2296 -30.724 -26.4147 11.2296 
-22.771 -28.8354 11.2296 -10.1275 -31.2658 11.2296 -14.8181 -30.4579 11.2296 
-3.30873 -31.2658 11.2296 -6.86519 -31.2658 11.4236 1.08774 -30.7188 11.2296 
9.04067 -29.7098 11.2296 16.9936 -30.6095 11.2296 24.9465 -31.2492 11.2296 
32.8995 -28.7886 11.2296 40.8524 -25.5573 11.2296 -46.6298 -16.5939 11.2296 
-37.1773 -23.3129 11.2296 -38.6769 -22.5894 11.2296 -30.724 -23.3129 12.8818 
-22.771 -23.3129 13.484 -14.8181 -23.3129 13.6061 -6.86519 -23.3129 14.3835 
1.08774 -23.3129 14.4781 9.04067 -23.3129 14.0952 16.9936 -23.3129 14.4423 
24.9465 -23.3129 14.7003 32.8995 -23.3129 14.0812 43.7621 -23.3129 11.2296 
40.8524 -23.3129 12.4596 48.8053 -18.5487 11.2296 -47.6941 -15.3599 11.2296 
-54.5828 -7.59992 11.2296 -46.6298 -15.3599 11.9091 -38.6769 -15.3599 15.4648 
-30.724 -15.3599 16.6499 -22.771 -15.3599 17.3036 -14.8181 -15.3599 16.8462 
-6.86519 -15.3599 17.0797 1.08774 -15.3599 17.4918 9.04067 -15.3599 15.9764 
16.9936 -15.3599 15.9378 24.9465 -15.3599 16.6951 32.8995 -15.3599 16.6753 
40.8524 -15.3599 15.619 51.1134 -15.3599 11.2296 48.8053 -15.3599 12.867 
[...]
POINT_DATA 528
SCALARS ImageScalars float
LOOKUP_TABLE default
0 0 0 0 0 0 0 0 0 
0 0 0 0 0 0 0 0 0 
0 0 0 0 0 0 0 0 0 
0 0 0 0 0 0 0 0 0 
0 0 0 0 0 0 0 0 0 
0 0 0 0 0 0 0 0 0 
0 0 0 0 0 0 0 0 0 
0 0 0 0 0 0 0 0 0 
0 0 0 0 0 0 0 0 0 
0 0 0 0 0 0 0 0 0 
0 0 0 0 0 0 0 0 0 
0 0 0 0 0 0 0 0 0 
0 0 0 0 0 0 0 0 0 
0 0 0 0 0 0 0 0 0 
0 0 0 0 0 0 0 0 0 
0 0 0 0 0 0 0 0 0 
0 0 0 0 0 0 0 0 0 
0 0 0 0 0 0 0 0 0 
0 0 0 0 0 0 0 0 0 
0 0 0 0 0 0 0 0 0 
0 0 0 0 0 0 0 0 0 
0 0 0 0 0 0 0 0 0 
0 0 0 0 0 0 0 0 0 
0 0 0 0 0 0 0 0 0 
0 0 0 0 0 0 0 0 0 
0 0 0 0 0 0 0 0 0 
0 0 0 0 0 0 0 0 0 
0 0 0 0 0 0 0 0 0 
0 0 0 0 0 0 0 0 0 
0 0 0 0 0 0 0 0 0 
0 0 0 0 0 0 0 0 0 
0 0 0 0 0 0 0 0 0 
0 0 0 0 0 0 0 0 0 
0 0 0 0 0 0 0 0 0 
0 0 0 0 0 0 0 0 0 
0 0 0 0 0 0 0 0 0 
0 0 0 0 0 0 0 0 0 
0 0 0 0 0 0 0 0 0 
0 0 0 0 0 0 0 0 0 
0 0 0 0 0 0 0 0 0 
0 0 0 0 0 0 0 0 0 
0 0 0 0 0 0 0 0 0 
0 0 0 0 0 0 0 0 0 
0 0 0 0 0 0 0 0 0 
0 0 0 0 0 0 0 0 0 
0 0 0 0 0 0 0 0 0 
0 0 0 0 0 0 0 0 0 
0 0 0 0 0 0 0 0 0 
0 0 0 0 0 0 0 0 0 
0 0 0 0 0 0 0 0 0 
0 0 0 0 0 0 0 0 0 
0 0 0 0 0 0 0 0 0 
0 0 0 0 0 0 0 0 0 
0 0 0 0 0 0 0 0 0 
0 0 0 0 0 0 0 0 0 
0 0 0 0 0 0 0 0 0 
0 0 0 0 0 0 0 0 0 
0 0 0 0 0 0 0 0 0 
0 0 0 0 0 0 
NORMALS Normals float
0.316386 0.650135 0.690814 0.10011 0.509481 0.854639 -0.0112264 0.512034 0.858892 
0.0305587 0.443161 0.895921 0.0358276 0.448067 0.893282 0.0320024 0.478768 0.877358 
-0.0949582 0.557809 0.824519 -0.283553 0.647044 0.707765 0.332745 0.417018 0.8458 
0.150643 0.296602 0.943045 0.0416812 0.174609 0.983755 -0.036082 0.156 0.987098 
-0.00749382 0.126626 0.991922 0.0431401 0.127696 0.990875 0.0664096 0.147501 0.98683 
-0.0297579 0.130095 0.991055 -0.101531 0.247317 0.963601 -0.205742 0.396991 0.894465 
-0.381616 0.528453 0.758358 0.442441 0.299132 0.845438 0.232131 0.155894 0.96011 
0.0117172 0.0970533 0.99521 -0.0446286 -0.00423156 0.998995 -0.0623237 -0.033886 0.997481 
-0.0190176 -0.046866 0.99872 0.0559134 -0.017547 0.998281 0.078227 -0.00601528 0.996917 
0.0134412 -0.0261409 0.999568 -0.0243656 0.101833 0.994503 -0.0294264 0.126046 0.991588 
-0.259199 0.255346 0.931458 -0.541659 0.395251 0.741877 0.655693 0.25471 0.710767 
0.287376 0.196921 0.937357 0.109775 0.0365488 0.993284 -0.0152322 -0.0160054 0.999756 
-0.0898675 -0.0470953 0.99484 -0.08387 -0.0786724 0.993366 0.00946543 -0.0897783 0.995917 
0.0852789 -0.0251362 0.99604 0.057113 0.0173915 0.998216 0.0778152 -0.110625 0.990811 
0.0599605 -0.0134332 0.99811 -0.0413904 0.0379981 0.99842 -0.17189 0.0598138 0.983299 
-0.392752 0.190433 0.899712 0.559334 0.132766 0.818241 0.197308 0.0872194 0.976454 
0.0283658 0.0312193 0.99911 -0.0655104 -0.00482387 0.99784 -0.105664 -0.00524506 0.994388 
-0.104297 0.07654 0.991597 0.0265415 0.0771249 0.996668 0.172896 -0.0815622 0.981557 
-0.0156518 0.0524004 0.998504 -0.01396 -0.100618 0.994827 0.123624 -0.0683682 0.989971 
0.0434172 -0.0122084 0.998982 -0.107969 0.0192588 0.993968 -0.311998 0.0420168 0.949153 
-0.703949 0.12425 0.699298 0.510879 -0.0564945 0.857794 0.169878 -0.0625621 0.983477 
0.0210281 -0.0641054 0.997722 -0.0512124 -0.0394732 0.997907 -0.00055917 -0.0212454 0.999774 
0.0283276 0.0384688 0.998858 -0.153454 0.0807239 0.984853 0.0482153 -0.0541765 0.997367 
0.0129349 -0.0358741 0.999273 -0.0236368 0.00942332 0.999676 0.151385 -0.00680725 0.988451 
0.0495812 -0.03121 0.998282 -0.108658 -0.0429989 0.993149 -0.327339 -0.047887 0.943693 
-0.676064 -0.0473741 0.735318 0.546314 -0.263909 0.794917 0.205065 -0.192922 0.959547 
0.0533603 -0.123494 0.99091 -0.022808 -0.0480538 0.998584 -0.0317603 -0.0186015 0.999322 
-0.0139832 -0.0929775 0.99557 -0.053003 -0.15787 0.986036 0.0685621 -0.074149 0.994888 
0.0497506 -0.165092 0.985023 0.00548132 0.0242099 0.999692 0.0840387 -0.0120106 0.99639 
0.00721292 -0.0431542 0.999042 -0.127503 -0.0612733 0.989944 -0.338629 -0.121114 0.933093 
-0.675334 -0.119008 0.727847 0.339327 -0.277785 0.898717 0.158197 -0.191056 0.968747 
0.0527378 -0.112815 0.992215 -0.0444058 -0.0218685 0.998774 -0.119121 -0.0729142 0.990199 
-0.136832 -0.142853 0.98024 0.0170458 -0.205972 0.978409 0.133977 -0.30956 0.941394 
0.119388 -0.17846 0.976677 0.0828566 -0.175181 0.981044 0.000158397 -0.194919 0.980819 
-0.183965 -0.210661 0.960093 -0.396294 -0.27085 0.877264 0.268777 -0.36944 0.889535 
0.149089 -0.258267 0.9545 0.00259126 -0.178892 0.983865 -0.136187 -0.194494 0.971404 
-0.184723 -0.210282 0.960031 -0.100355 -0.285066 0.95324 0.0618427 -0.39642 0.915984 
0.12942 -0.418804 0.898807 0.0713328 -0.404136 0.911913 -0.0343587 -0.430814 0.901787 
-0.222186 -0.474834 0.851567 0.21049 -0.542615 0.813181 0.0282136 -0.496811 0.8674 
-0.125261 -0.451403 0.883484 -0.223445 -0.47489 0.851206 0.341305 0.772272 0.535823 
0.143646 0.844759 0.515508 0.0673936 0.788273 0.611624 0.0407564 0.793495 0.60721 
0.0108129 0.999428 -0.0320425 -0.00108559 0.829701 0.558207 -0.0627379 0.844412 0.532008 
-0.173032 0.848948 0.499347 -0.270571 0.827303 0.492302 0.433409 0.746828 0.504386 
0.484963 0.711349 0.508718 0.535585 0.843713 -0.036011 -0.336808 0.749541 0.569867 
-0.339834 0.740313 0.580043 -0.352633 0.785484 0.508592 -0.445959 0.685543 0.575458 
0.622913 0.576304 0.529011 0.626764 0.553425 0.548532 0.690681 0.648844 0.319314 
-0.552413 0.609213 0.568946 -0.608596 0.554358 0.567713 -0.68369 0.727518 0.0573245 
0.701681 0.41331 0.58036 0.721895 0.333564 0.606302 0.831065 0.522738 0.189938 
-0.651322 0.444518 0.614966 0.709768 0.267599 0.651628 -0.75517 0.254414 0.604145 
-0.770108 0.201967 0.605097 -0.837501 0.291093 0.462446 0.740242 0.156516 0.653869 
-0.762604 0.136008 0.632406 0.72564 -0.0460644 0.68653 0.973437 -0.00216931 0.228944 
-0.727623 -0.0377138 0.68494 0.663332 -0.270065 0.697893 0.622804 -0.325795 0.711317 
-0.693728 -0.12037 0.710107 -0.69183 -0.187917 0.697179 0.592122 -0.350936 0.725421 
0.689226 -0.392847 0.608801 0.447511 -0.521745 0.726303 -0.65456 -0.316262 0.68668 
-0.478382 -0.525251 0.703749 -0.741181 -0.335325 0.581557 0.439632 -0.524357 0.729228 
0.459573 -0.539555 0.705459 0.367217 -0.555534 0.746012 -0.14889 -0.417111 0.896577 
0.022585 -0.471226 0.881723 0.112937 -0.557728 0.822305 0.0412058 -0.639897 0.767355 
-0.0933867 -0.655288 0.749584 -0.465083 -0.537493 0.703419 -0.254493 -0.637338 0.727347 
-0.490442 -0.547251 0.678221 0.320986 -0.604449 0.729115 0.412178 -0.68562 0.600029 
0.226429 -0.652491 0.723177 0.0546952 -0.655554 0.753165 -0.105364 -0.588149 0.80186 
-0.212028 -0.489814 0.845652 -0.224106 -0.509415 0.830827 -0.179683 -0.536908 0.824284 
-0.0325245 -0.610515 0.791337 0.0804806 -0.669529 0.738413 0.0297108 -0.693883 0.719475 
-0.108773 -0.734793 0.669513 -0.286356 -0.796306 0.53282 0.11844 -0.890673 0.438945 
-0.0464731 -0.840792 0.53936 -0.170484 -0.803639 0.570175 0.00676103 0.992962 -0.118242 
0.530157 0.840139 -0.114456 0.35449 0.924738 -0.138552 0.19447 0.974961 -0.107851 
0.0401327 0.992804 -0.112821 0.112975 0.989029 -0.0951768 -0.00852592 0.991271 -0.131566 
0.00470653 0.988263 -0.152691 -0.0378804 0.987341 -0.154025 -0.0606481 0.977441 -0.202316 
-0.20702 0.960683 -0.185017 -0.242343 0.961685 -0.128183 -0.358694 0.932407 -0.0442306 
0.53872 0.835014 -0.111947 0.683661 0.727792 -0.0540911 0.525634 0.836462 -0.155048 
0.333789 0.70989 -0.620194 -0.43707 0.897158 -0.0638594 -0.323855 0.85936 -0.39575 
-0.503335 0.862505 -0.0523283 -0.676037 0.73638 -0.0268083 0.714756 0.696225 -0.0663005 
0.818512 0.571762 -0.0559164 0.672314 0.670094 -0.314591 -0.685344 0.72779 -0.0249945 
-0.675311 0.73299 -0.0817327 0.832692 0.55167 -0.0477848 0.807448 0.563538 -0.174507 
-0.843342 0.5352 0.0483194 -0.873725 0.481824 0.0667151 0.917448 0.397489 0.0170626 
-0.929063 0.350582 0.118045 0.977237 0.205479 0.0527888 0.990408 0.112688 0.0799559 
-0.973276 0.176619 0.146766 0.993385 0.00829303 0.114528 0.98202 -0.140488 0.126092 
0.972265 0.0389401 -0.230616 -0.983114 0.00881029 0.182781 0.961102 -0.239247 0.137996 
-0.966688 -0.154877 0.203784 0.865223 -0.451002 0.219056 0.752394 -0.625428 0.206742 
-0.906557 -0.372488 0.198515 -0.823756 -0.526446 0.210428 0.731581 -0.648792 0.209422 
0.605004 -0.765425 0.219303 -0.772526 -0.59043 0.233658 -0.55666 -0.786577 0.267256 
0.583492 -0.782013 0.219074 0.448563 -0.859425 0.245316 0.291572 -0.917697 0.26985 
-0.177121 -0.778424 0.602233 -0.0860376 -0.791301 0.605343 -0.0114491 -0.83385 0.551873 
-0.00517554 -0.882422 0.47043 -0.154002 -0.895825 0.41687 -0.468031 -0.834489 0.290818 
-0.328142 -0.881458 0.339639 0.240477 -0.926743 0.288648 0.130055 -0.932967 0.335645 
-0.0119792 -0.911563 0.410986 -0.170194 -0.812625 0.557382 -0.156009 -0.838279 0.522445 
-0.175274 -0.844824 0.505521 -0.128522 -0.918172 0.374756 -0.0828202 -0.964861 0.249368 
0.186226 0.746637 -0.638633 0.0597673 0.749385 -0.659431 -0.0289906 0.754133 -0.656082 
-0.0681981 0.72327 -0.687189 -0.0654157 0.730907 -0.679335 -0.0891042 0.760314 -0.643416 
-0.129715 0.802642 -0.582185 0.382973 0.656331 -0.650047 0.317135 0.696129 -0.644073 
0.324811 0.69065 -0.646143 0.173172 0.630432 -0.756681 0.043966 0.635458 -0.770882 
-0.0292991 0.636304 -0.770882 -0.0587702 0.646918 -0.760292 -0.0510226 0.653928 -0.754834 
-0.0749446 0.72104 -0.688829 -0.186832 0.797767 -0.57329 -0.125877 0.785099 -0.606444 
-0.278446 0.78161 -0.558171 -0.428568 0.76377 -0.482684 0.517696 0.598944 -0.610948 
0.577729 0.570502 -0.583744 0.352501 0.580099 -0.734322 0.203461 0.51192 -0.834591 
0.140794 0.421143 -0.896 0.071883 0.39701 -0.914995 -0.0537237 0.457406 -0.887634 
-0.00576684 0.48135 -0.87651 0.0396948 0.509501 -0.859554 -0.0563374 0.542692 -0.83804 
-0.186937 0.590718 -0.784925 -0.5422 0.707798 -0.452815 -0.371966 0.656116 -0.656623 
-0.617257 0.656523 -0.433556 0.655285 0.543947 -0.524141 0.727704 0.479492 -0.490444 
0.468259 0.512007 -0.720127 0.278444 0.482179 -0.830646 -0.720178 0.558208 -0.412004 
-0.534566 0.515419 -0.669763 -0.812427 0.454699 -0.364981 0.788634 0.40778 -0.460187 
0.671252 0.428904 -0.604534 -0.848768 0.395003 -0.351518 -0.788153 0.400244 -0.467568 
0.866598 0.291106 -0.405296 -0.923065 0.225392 -0.311688 -0.694959 0.242956 -0.67676 
0.943202 0.0478166 -0.328759 -0.959888 0.0362064 -0.278037 0.925468 -0.212116 -0.313872 
-0.953407 -0.142513 -0.265906 0.883608 -0.39591 -0.249985 0.78449 -0.585748 -0.203654 
0.745065 -0.311123 -0.589983 -0.893555 -0.36182 -0.265794 -0.834808 -0.489484 -0.251993 
-0.773411 -0.350255 -0.528353 0.752442 -0.628686 -0.196429 0.607409 -0.767047 -0.206624 
-0.792157 -0.558217 -0.246742 -0.620049 -0.762466 -0.184895 0.586965 -0.783439 -0.204196 
0.485479 -0.853902 -0.187516 0.482732 -0.693362 -0.534994 0.367642 -0.922882 -0.114574 
-0.115171 -0.988781 0.0951191 -0.252451 -0.967476 -0.0161118 -0.57266 -0.803146 -0.164368 
-0.425446 -0.897875 -0.113207 -0.466119 -0.686781 -0.557733 0.366869 -0.923271 -0.113915 
0.238512 -0.971131 -0.00398029 0.0844675 -0.99065 0.107134 -0.0730101 -0.983179 0.167416 
-0.148962 -0.965621 0.213043 -0.146623 -0.964052 0.221598 -0.113087 -0.98815 0.10378 
-0.0981088 -0.978417 0.181864 0.00121074 0.422639 -0.906297 0.170693 0.467494 -0.86736 
0.109402 0.404479 -0.90798 0.0302891 0.407137 -0.912865 0.0688175 0.385577 -0.920106 
-0.0224254 0.433708 -0.900774 0.00229113 0.414898 -0.909865 -0.05037 0.449944 -0.891635 
-0.00275633 0.44985 -0.8931 0.0418741 0.491686 -0.869765 -0.0562279 0.542176 -0.838382 
-0.170805 0.512877 -0.841298 -0.293982 0.475023 -0.829414 0.436079 0.456608 -0.775464 
0.253463 0.476124 -0.842058 0.275939 0.479491 -0.833034 0.141443 0.445264 -0.884157 
0.042779 0.394235 -0.918013 0.0515005 0.322483 -0.945173 0.0524644 0.32346 -0.944786 
-0.0174542 0.372811 -0.927743 -0.00209904 0.318541 -0.947907 0.0369008 0.296092 -0.954446 
-0.0197527 0.328025 -0.944462 -0.131768 0.381419 -0.914963 -0.356546 0.448547 -0.819561 
-0.278694 0.426488 -0.860487 -0.470441 0.408833 -0.78201 0.450634 0.452796 -0.769353 
0.662372 0.296225 -0.688124 0.437583 0.448736 -0.779203 0.239776 0.443913 -0.863394 
0.0997502 0.461309 -0.881614 0.010935 0.46226 -0.886677 -0.0114101 0.447286 -0.894318 
0.0378914 0.430302 -0.901889 -0.0726459 0.414652 -0.907076 -0.0898436 0.258489 -0.961827 
0.0459221 0.16751 -0.9848 0.0476296 0.22345 -0.973551 -0.061695 0.276731 -0.958965 
-0.203152 0.317096 -0.92638 -0.527703 0.366494 -0.766297 -0.448899 0.35701 -0.819167 
0.667296 0.291249 -0.685485 0.663547 0.292606 -0.68854 0.417206 0.329182 -0.8471 
-0.265133 0.395745 -0.879256 -0.00935293 0.287766 -0.957655 0.0789992 0.22863 -0.970303 
-0.039551 0.204429 -0.978082 -0.187217 0.199973 -0.961749 -0.625049 0.240169 -0.74272 
-0.408966 0.1971 -0.89101 -0.685407 0.142349 -0.714111 0.699803 0.0689284 -0.711002 
0.664869 0.0781405 -0.742861 0.424947 0.154537 -0.891929 -0.214682 0.0892376 -0.972599 
-0.402597 0.0579266 -0.913543 -0.719594 0.063982 -0.691441 -0.690919 0.0663923 -0.719877 
0.742114 -0.112107 -0.660832 0.734716 -0.261142 -0.626096 0.711592 -0.103122 -0.694983 
0.47866 -0.0864406 -0.873735 -0.24405 -0.0161756 -0.969628 -0.42154 -0.0945777 -0.901864 
-0.710803 -0.134151 -0.690479 -0.702705 -0.171698 -0.690453 -0.693025 -0.133284 -0.708485 
0.724353 -0.303457 -0.619053 0.520558 -0.272514 -0.80917 -0.329091 -0.155467 -0.931412 
-0.642343 -0.317559 -0.697533 -0.482738 -0.255596 -0.837636 0.601962 -0.549806 -0.579099 
0.578089 -0.573426 -0.580513 0.569715 -0.531977 -0.626439 0.482345 -0.691046 -0.538329 
0.371515 -0.450117 -0.812017 -0.296328 -0.24722 -0.922535 -0.463595 -0.655206 -0.596477 
-0.394352 -0.36171 -0.844779 -0.588033 -0.447368 -0.673854 -0.587624 -0.448301 -0.673591 
-0.587318 -0.446807 -0.674849 0.481936 -0.691712 -0.537841 0.427373 -0.767114 -0.478424 
0.383402 -0.568754 -0.727682 -0.218554 -0.912487 -0.345834 -0.253133 -0.470452 -0.845339 
-0.460732 -0.668117 -0.584248 -0.378322 -0.787965 -0.485781 -0.383125 -0.548941 -0.742886 
0.385763 -0.829695 -0.403476 0.361 -0.851857 -0.379499 0.362029 -0.802678 -0.473965 
0.172513 -0.931698 -0.319653 0.16955 -0.750366 -0.638908 -0.0413382 -0.958704 -0.281387 
-0.00810855 -0.756855 -0.653533 -0.147748 -0.953568 -0.262446 -0.124213 -0.808401 -0.575377 
-0.14542 -0.956534 -0.252777 -0.13699 -0.895915 -0.422575 -0.176013 -0.943253 -0.28159 
-0.15753 -0.953775 -0.255926 -0.159301 -0.936466 -0.312498 0.269477 0.343053 -0.899831 
0.114743 0.409291 -0.90516 0.0219014 0.430356 -0.902394 0.00399802 0.432298 -0.901722 
0.0288713 0.418605 -0.90771 -0.122236 0.357341 -0.925941 0.274258 0.340589 -0.899323 
0.270409 0.340695 -0.900447 0.122676 0.360442 -0.92468 0.0358447 0.366045 -0.929906 
0.0265111 0.382332 -0.923645 0.0139168 0.342428 -0.939441 -0.258054 0.38242 -0.887222 
-0.163913 0.225792 -0.960287 -0.248116 0.38841 -0.887455 -0.0742373 0.313999 -0.946516 
0.0353317 0.213739 -0.976252 -0.0536315 0.174888 -0.983127 0.392032 0.15947 -0.906025 
0.252169 0.161688 -0.954079 0.130658 0.1513 -0.979815 0.0223666 0.150019 -0.98843 
-0.0370425 0.137058 -0.98987 -0.115149 0.0913435 -0.98914 -0.0569292 0.0399917 -0.997577 
-0.0450968 0.244054 -0.968713 -0.107388 0.317898 -0.942024 -0.0279567 0.186113 -0.982131 
-0.198286 0.0933298 -0.975691 -0.0784157 0.123225 -0.989276 0.44936 -0.0791819 -0.889835 
0.266226 -0.0146454 -0.963799 0.118835 -0.0067046 -0.992891 0.0228606 0.0211802 -0.999514 
-0.0346779 0.0501748 -0.998138 -0.0920849 0.0694434 -0.993327 -0.0113444 0.140766 -0.989978 
0.0208592 0.1283 -0.991516 -0.105636 0.177667 -0.978405 -0.118166 0.0956553 -0.988376 
-0.243441 -0.0158636 -0.969786 -0.137977 0.0272926 -0.990059 0.417706 -0.244903 -0.874954 
0.346771 -0.366339 -0.86345 0.3194 -0.231332 -0.91895 0.165925 -0.160678 -0.97296 
0.0796266 -0.0747755 -0.994016 0.00974958 0.0220261 -0.99971 -0.0274441 0.0365208 -0.998956 
0.00457903 0.0891049 -0.996012 -0.00182728 0.0333677 -0.999441 -0.137749 0.0457231 -0.989411 
-0.188341 0.00980427 -0.982055 -0.298498 -0.141069 -0.943927 -0.284418 -0.22926 -0.930885 
-0.19284 -0.0928592 -0.976826 0.321765 -0.393026 -0.861393 0.311914 -0.410183 -0.857006 
0.267972 -0.32554 -0.906761 0.194291 -0.228439 -0.953974 0.0775663 -0.133173 -0.988053 
-0.0222173 -0.105426 -0.994179 -0.0163642 -0.103013 -0.994545 -0.0233656 -0.15168 -0.988153 
-0.124489 -0.160787 -0.979107 -0.292936 -0.239794 -0.925574 -0.252644 -0.444974 -0.859168 
-0.254227 -0.162326 -0.953425 0.295846 -0.459251 -0.837594 0.285526 -0.473218 -0.83339 
0.275981 -0.437285 -0.85593 0.159114 -0.55152 -0.818846 0.147936 -0.381965 -0.912259 
0.00625728 -0.604444 -0.796623 0.00753124 -0.316781 -0.948469 -0.0865854 -0.582311 -0.808342 
-0.0470308 -0.358211 -0.932455 -0.0923054 -0.586174 -0.80491 -0.0660904 -0.41567 -0.907111 
-0.242136 -0.464243 -0.851968 -0.154021 -0.565035 -0.810563 -0.145892 -0.453574 -0.879197 

