# vtk DataFile Version 4.2
vtk output
ASCII
DATASET POLYDATA
POINTS 534 float
-16.688 -51.1751 -12.274 -8.71594 -51.1751 -12.0627 -0.743907 -51.1751 -13.6665 
7.22812 -51.1751 -14.1981 15.2002 -51.1751 -12.5469 -24.66 -43.2031 -11.5233 
-16.688 -43.2031 -14.2721 -8.71594 -43.2031 -15.2708 -0.743907 -43.2031 -16.429 
7.22812 -43.2031 -17.0585 15.2002 -43.2031 -16.4387 23.1722 -43.2031 -14.6068 
-24.66 -35.2311 -14.0832 -16.688 -35.2311 -15.5666 -8.71594 -35.2311 -16.3986 
-0.743907 -35.2311 -17.2221 7.22812 -35.2311 -17.8112 15.2002 -35.2311 -17.7887 
23.1722 -35.2311 -18.0024 31.1442 -35.2311 -15.4549 -32.632 -27.2591 -12.6359 
-24.66 -27.2591 -14.6282 -16.688 -27.2591 -15.4693 -8.71594 -27.2591 -16.2989 
-0.743907 -27.2591 -16.9976 7.22812 -27.2591 -17.5299 15.2002 -27.2591 -17.808 
23.1722 -27.2591 -18.1415 31.1442 -27.2591 -18.3493 39.1162 -27.2591 -14.9645 
-32.632 -19.287 -13.6806 -24.66 -19.287 -14.4541 -16.688 -19.287 -14.8234 
-8.71594 -19.287 -15.7684 -0.743907 -19.287 -16.4467 7.22812 -19.287 -16.4733 
15.2002 -19.287 -17.1356 23.1722 -19.287 -17.604 31.1442 -19.287 -17.8832 
39.1162 -19.287 -16.9401 47.0883 -19.287 -13.1169 -40.6041 -11.315 -13.7275 
-32.632 -11.315 -15.9953 -24.66 -11.315 -15.9434 -16.688 -11.315 -14.7092 
-8.71594 -11.315 -15.7098 -0.743907 -11.315 -18.9248 7.22812 -11.315 -16.7064 
15.2002 -11.315 -15.8469 23.1722 -11.315 -17.3129 31.1442 -11.315 -18.3858 
39.1162 -11.315 -17.4615 47.0883 -11.315 -14.8726 -40.6041 -3.34297 -15.7091 
-32.632 -3.34297 -18.0843 -24.66 -3.34297 -17.4928 -16.688 -3.34297 -15.8254 
-8.71594 -3.34297 -14.8977 -0.743907 -3.34297 -14.9093 7.22812 -3.34297 -19.3693 
15.2002 -3.34297 -16.3794 23.1722 -3.34297 -16.6907 31.1442 -3.34297 -17.6021 
39.1162 -3.34297 -17.5762 47.0883 -3.34297 -15.8375 -40.6041 4.62906 -16.0132 
-32.632 4.62906 -18.2279 -24.66 4.62906 -17.6357 -16.688 4.62906 -15.8368 
-8.71594 4.62906 -16.3342 -0.743907 4.62906 -15.5533 7.22812 4.62906 -16.8326 
15.2002 4.62906 -16.3907 23.1722 4.62906 -16.7824 31.1442 4.62906 -17.5559 
39.1162 4.62906 -17.5783 47.0883 4.62906 -16.0719 55.0603 4.62906 -12.0359 
-40.6041 12.6011 -15.6227 -32.632 12.6011 -17.4813 -24.66 12.6011 -17.3884 
-16.688 12.6011 -16.4233 -8.71594 12.6011 -15.7779 -0.743907 12.6011 -16.0591 
7.22812 12.6011 -15.6282 15.2002 12.6011 -16.3338 23.1722 12.6011 -17.0535 
31.1442 12.6011 -17.584 39.1162 12.6011 -17.7695 47.0883 12.6011 -15.7654 
55.0603 12.6011 -12.7822 -48.5761 20.5731 -11.9108 -40.6041 20.5731 -15.6101 
-32.632 20.5731 -17.3289 -24.66 20.5731 -17.7628 -16.688 20.5731 -17.4925 
-8.71594 20.5731 -16.6256 -0.743907 20.5731 -16.6422 7.22812 20.5731 -16.8629 
15.2002 20.5731 -17.3505 23.1722 20.5731 -17.2565 31.1442 20.5731 -16.9657 
39.1162 20.5731 -16.1531 47.0883 20.5731 -14.2829 -48.5761 28.5451 -11.5399 
-40.6041 28.5451 -15.2708 -32.632 28.5451 -17.6057 -24.66 28.5451 -17.7294 
-16.688 28.5451 -18.0187 -8.71594 28.5451 -17.1981 -0.743907 28.5451 -17.2299 
7.22812 28.5451 -17.3521 15.2002 28.5451 -17.5969 23.1722 28.5451 -16.7393 
31.1442 28.5451 -16.1913 39.1162 28.5451 -14.3129 47.0883 28.5451 -12.6695 
-40.6041 36.5172 -12.7759 -32.632 36.5172 -15.6859 -24.66 36.5172 -16.5703 
-16.688 36.5172 -17.0451 -8.71594 36.5172 -16.3789 -0.743907 36.5172 -16.5157 
7.22812 36.5172 -16.4109 15.2002 36.5172 -16.3368 23.1722 36.5172 -14.8623 
31.1442 36.5172 -13.2207 39.1162 36.5172 -11.5634 -32.632 44.4892 -11.6681 
-24.66 44.4892 -11.7876 -16.688 44.4892 -12.3779 -8.71594 44.4892 -12.6056 
-0.743907 44.4892 -12.7767 7.22812 44.4892 -12.4032 -16.688 -52.1849 -11.434 
-8.71594 -52.1265 -11.434 -0.743907 -54.0691 -11.434 -0.743907 -59.1472 -3.52111 
7.22812 -54.2909 -11.434 15.2002 -52.2842 -11.434 -18.6017 -51.1751 -11.434 
-24.66 -43.403 -11.434 -24.66 -51.1751 -6.62753 17.7807 -51.1751 -11.434 
23.1722 -48.399 -11.434 -24.9216 -43.2031 -11.434 -32.632 -43.2031 -8.42712 
29.5234 -43.2031 -11.434 31.1442 -41.9054 -11.434 31.1442 -43.2031 -6.12156 
-40.6041 -35.2311 -5.64045 -31.5099 -35.2311 -11.434 -32.632 -33.034 -11.434 
-32.632 -35.2311 -10.8651 37.6083 -35.2311 -11.434 39.1162 -33.5248 -11.434 
39.1162 -35.2311 -4.80993 -36.3636 -27.2591 -11.434 -40.6041 -27.2591 -9.01639 
44.4022 -27.2591 -11.434 47.0883 -22.4917 -11.434 -39.0286 -19.287 -11.434 
-40.6041 -17.7075 -11.434 -40.6041 -19.287 -10.7926 48.6461 -19.287 -11.434 
-44.2054 -11.315 -11.434 -48.5761 -11.315 -6.97382 51.9777 -11.315 -11.434 
55.0603 -11.315 -3.89973 -46.7179 -3.34297 -11.434 -48.5761 -3.34297 -9.50952 
54.2357 -3.34297 -11.434 55.0603 0.751614 -11.434 55.0603 -3.34297 -10.5483 
-47.4438 4.62906 -11.434 -48.5761 4.62906 -10.348 55.7282 4.62906 -11.434 
-47.862 12.6011 -11.434 -48.5761 16.5624 -11.434 -48.5761 12.6011 -10.895 
56.6347 12.6011 -11.434 55.0603 17.6926 -11.434 -49.0539 20.5731 -11.434 
53.1255 20.5731 -11.434 55.0603 20.5731 -10.2162 -48.7002 28.5451 -11.434 
-48.5761 28.9444 -11.434 48.8872 28.5451 -11.434 47.0883 30.4087 -11.434 
55.0603 28.5451 -3.76733 -43.4233 36.5172 -11.434 -48.5761 36.5172 -8.12532 
-40.6041 38.9325 -11.434 15.2002 44.3548 -11.434 23.1722 42.1167 -11.434 
31.1442 39.4767 -11.434 39.3394 36.5172 -11.434 39.1162 36.6707 -11.434 
47.0883 36.5172 -3.56932 -33.2504 44.4892 -11.434 -40.6041 44.4892 -6.39051 
-32.632 44.7331 -11.434 -24.66 44.8095 -11.434 -16.688 45.4977 -11.434 
-8.71594 45.7701 -11.434 -0.743907 45.9628 -11.434 14.5334 44.4892 -11.434 
7.22812 45.5259 -11.434 15.2002 44.4892 -11.2934 23.1722 44.4892 -9.02731 
31.1442 44.4892 -4.44104 -0.743907 -59.1695 -3.46197 -24.66 -53.2807 -3.46197 
-16.688 -56.552 -3.46197 -2.75686 -59.1472 -3.46197 -8.71594 -59.064 -3.46197 
-0.417817 -59.1472 -3.46197 -0.743907 -59.1472 -3.35265 7.22812 -58.5975 -3.46197 
15.2002 -55.7354 -3.46197 -28.6224 -51.1751 -3.46197 -32.632 -48.405 -3.46197 
22.8444 -51.1751 -3.46197 23.1722 -50.9412 -3.46197 31.1442 -43.6835 -3.46197 
-37.7165 -43.2031 -3.46197 -40.6041 -38.7518 -3.46197 31.6493 -43.2031 -3.46197 
31.1442 -43.2031 -2.45641 39.1162 -35.4857 -3.46197 -42.5019 -35.2311 -3.46197 
39.349 -35.2311 -3.46197 39.1162 -35.2311 -3.01799 -45.0695 -27.2591 -3.46197 
45.5942 -27.2591 -3.46197 47.0883 -25.0392 -3.46197 -48.5026 -19.287 -3.46197 
-48.5761 -19.0737 -3.46197 -48.5761 -19.287 -3.15065 50.7222 -19.287 -3.46197 
55.0603 -11.5543 -3.46197 -50.7218 -11.315 -3.46197 55.1897 -11.315 -3.46197 
55.0603 -11.315 -2.96861 -52.3434 -3.34297 -3.46197 59.0898 -3.34297 -3.46197 
-53.3029 4.62906 -3.46197 61.2661 4.62906 -3.46197 -54.8261 12.6011 -3.46197 
-56.5481 12.6011 3.67311 61.2977 12.6011 -3.46197 -54.5754 20.5731 -3.46197 
60.0269 20.5731 -3.46197 -54.4953 28.5451 -3.46197 55.2609 28.5451 -3.46197 
55.0603 28.7905 -3.46197 -51.6229 36.5172 -3.46197 -48.5761 40.3155 -3.46197 
39.1162 41.4847 -3.46197 47.1703 36.5172 -3.46197 47.0883 36.5839 -3.46197 
47.0883 36.5172 0.949891 -43.16 44.4892 -3.46197 -40.6041 45.9379 -3.46197 
-32.632 48.565 -3.46197 -24.66 48.9591 -3.46197 -16.688 48.9609 -3.46197 
-8.71594 49.4725 -3.46197 -0.743907 49.4902 -3.46197 7.22812 49.199 -3.46197 
15.2002 48.6605 -3.46197 23.1722 47.4101 -3.46197 32.1836 44.4892 -3.46197 
31.1442 44.9004 -3.46197 31.1442 44.4892 2.58757 -24.66 -52.9408 4.51006 
-16.688 -54.4242 4.51006 -8.71594 -56.5992 4.51006 -0.743907 -56.9164 4.51006 
7.22812 -55.3936 4.51006 15.2002 -52.5906 4.51006 -29.2139 -51.1751 4.51006 
-32.632 -49.1482 4.51006 -24.66 -51.1751 6.94156 -16.688 -51.1751 8.97904 
-8.71594 -51.1751 9.11189 -0.743907 -51.1751 9.46944 7.22812 -51.1751 9.4144 
17.3947 -51.1751 4.51006 15.2002 -51.1751 5.96647 23.1722 -46.0501 4.51006 
-38.3801 -43.2031 4.51006 -40.6041 -40.7865 4.51006 -32.632 -43.2031 9.16591 
-24.66 -43.2031 12.2425 15.2002 -43.2031 11.4105 26.1519 -43.2031 4.51006 
23.1722 -43.2031 6.90701 31.1442 -38.3939 4.51006 -44.1608 -35.2311 4.51006 
-40.6041 -35.2311 9.24087 33.9763 -35.2311 4.51006 31.1442 -35.2311 7.11265 
39.1162 -29.3295 4.51006 -47.3678 -27.2591 4.51006 -48.5761 -23.7159 4.51006 
40.7882 -27.2591 4.51006 39.1162 -27.2591 6.21936 47.0883 -19.5734 4.51006 
-49.979 -19.287 4.51006 -48.5761 -19.287 7.57094 39.1162 -19.287 11.3351 
47.2792 -19.287 4.51006 47.0883 -19.287 4.73598 -52.1157 -11.315 4.51006 
-48.5761 -11.315 11.9341 52.5115 -11.315 4.51006 47.0883 -11.315 10.0761 
55.0603 -7.94201 4.51006 -53.6753 -3.34297 4.51006 57.8212 -3.34297 4.51006 
55.0603 -3.34297 8.45399 -55.2175 4.62906 4.51006 -56.5481 11.7079 4.51006 
60.3422 4.62906 4.51006 55.0603 4.62906 11.7478 -56.7153 12.6011 4.51006 
-56.5481 17.7743 4.51006 -56.5481 12.6011 5.06405 61.3902 12.6011 4.51006 
-56.4577 20.5731 4.51006 60.1563 20.5731 4.51006 55.0603 20.5731 12.3457 
-55.5361 28.5451 4.51006 47.0883 36.4471 4.51006 47.0883 28.5451 11.5846 
55.7854 28.5451 4.51006 55.0603 29.3986 4.51006 55.0603 28.5451 5.7574 
-52.4351 36.5172 4.51006 -48.5761 40.5319 4.51006 -48.5761 36.5172 10.1377 
31.1442 44.3424 4.51006 46.9811 36.5172 4.51006 39.1162 40.7829 4.51006 
39.1162 36.5172 9.57967 -42.1353 44.4892 4.51006 -40.6041 45.2216 4.51006 
-40.6041 44.4892 5.82424 -32.632 47.1242 4.51006 -32.632 44.4892 9.09285 
-24.66 47.3159 4.51006 -24.66 44.4892 9.18586 -16.688 47.2516 4.51006 
-16.688 44.4892 8.57129 -8.71594 47.2979 4.51006 -8.71594 44.4892 8.27216 
-0.743907 47.4527 4.51006 -0.743907 44.4892 8.65644 7.22812 47.6298 4.51006 
7.22812 44.4892 9.16368 15.2002 47.4521 4.51006 15.2002 44.4892 9.02599 
30.6648 44.4892 4.51006 23.1722 46.4729 4.51006 23.1722 44.4892 7.7431 
-16.688 -46.7051 12.4821 -8.71594 -46.4391 12.4821 -0.743907 -45.4664 12.4821 
7.22812 -46.4471 12.4821 -32.632 -38.7213 12.4821 -23.7063 -43.2031 12.4821 
-24.66 -42.661 12.4821 -16.688 -43.2031 13.9298 -8.71594 -43.2031 14.2781 
-0.743907 -43.2031 13.5446 11.9793 -43.2031 12.4821 7.22812 -43.2031 13.7637 
15.2002 -40.9974 12.4821 23.1722 -35.4423 12.4821 -36.4307 -35.2311 12.4821 
-40.6041 -29.8388 12.4821 -32.632 -35.2311 14.3477 -24.66 -35.2311 15.5647 
-16.688 -35.2311 16.0781 -8.71594 -35.2311 15.7992 -0.743907 -35.2311 15.6651 
[...]
POINT_DATA 534
SCALARS ImageScalars float
LOOKUP_TABLE default
0 0 0 0 0 0 0 0 0 
0 0 0 0 0 0 0 0 0 
0 0 0 0 0 0 0 0 0 
0 0 0 0 0 0 0 0 0 
0 0 0 0 0 0 0 0 0 
0 0 0 0 0 0 0 0 0 
0 0 0 0 0 0 0 0 0 
0 0 0 0 0 0 0 0 0 
0 0 0 0 0 0 0 0 0 
0 0 0 0 0 0 0 0 0 
0 0 0 0 0 0 0 0 0 
0 0 0 0 0 0 0 0 0 
0 0 0 0 0 0 0 0 0 
0 0 0 0 0 0 0 0 0 
0 0 0 0 0 0 0 0 0 
0 0 0 0 0 0 0 0 0 
0 0 0 0 0 0 0 0 0 
0 0 0 0 0 0 0 0 0 
0 0 0 0 0 0 0 0 0 
0 0 0 0 0 0 0 0 0 
0 0 0 0 0 0 0 0 0 
0 0 0 0 0 0 0 0 0 
0 0 0 0 0 0 0 0 0 
0 0 0 0 0 0 0 0 0 
0 0 0 0 0 0 0 0 0 
0 0 0 0 0 0 0 0 0 
0 0 0 0 0 0 0 0 0 
0 0 0 0 0 0 0 0 0 
0 0 0 0 0 0 0 0 0 
0 0 0 0 0 0 0 0 0 
0 0 0 0 0 0 0 0 0 
0 0 0 0 0 0 0 0 0 
0 0 0 0 0 0 0 0 0 
0 0 0 0 0 0 0 0 0 
0 0 0 0 0 0 0 0 0 
0 0 0 0 0 0 0 0 0 
0 0 0 0 0 0 0 0 0 
0 0 0 0 0 0 0 0 0 
0 0 0 0 0 0 0 0 0 
0 0 0 0 0 0 0 0 0 
0 0 0 0 0 0 0 0 0 
0 0 0 0 0 0 0 0 0 
0 0 0 0 0 0 0 0 0 
0 0 0 0 0 0 0 0 0 
0 0 0 0 0 0 0 0 0 
0 0 0 0 0 0 0 0 0 
0 0 0 0 0 0 0 0 0 
0 0 0 0 0 0 0 0 0 
0 0 0 0 0 0 0 0 0 
0 0 0 0 0 0 0 0 0 
0 0 0 0 0 0 0 0 0 
0 0 0 0 0 0 0 0 0 
0 0 0 0 0 0 0 0 0 
0 0 0 0 0 0 0 0 0 
0 0 0 0 0 0 0 0 0 
0 0 0 0 0 0 0 0 0 
0 0 0 0 0 0 0 0 0 
0 0 0 0 0 0 0 0 0 
0 0 0 0 0 0 0 0 0 
0 0 0 
NORMALS Normals float
0.215051 0.538673 0.814607 0.0714182 0.504869 0.860237 0.108785 0.501814 0.858108 
-0.047023 0.542082 0.839009 -0.266302 0.669232 0.693695 0.328455 0.366495 0.870516 
0.199 0.210817 0.957056 0.135688 0.227552 0.964266 0.108798 0.188968 0.975938 
0.00216053 0.18678 0.982399 -0.152141 0.266986 0.951615 -0.312761 0.48327 0.817698 
0.250286 0.156802 0.95539 0.15758 0.0813561 0.984149 0.101439 0.0605287 0.992999 
0.0880552 0.032698 0.995579 0.0355312 0.0259541 0.999031 0.0105329 0.0780985 0.99689 
-0.137003 0.202194 0.969715 -0.38114 0.406116 0.830543 0.2836 0.154047 0.946489 
0.187956 0.0276953 0.981787 0.104744 -0.0472608 0.993376 0.0930683 -0.0390886 0.994892 
0.0764937 -0.0484453 0.995892 0.0507726 -0.0837868 0.995189 0.0378246 -0.0370813 0.998596 
0.032769 -0.026353 0.999115 -0.179701 0.139936 0.973717 -0.484776 0.33294 0.808791 
0.198488 0.209681 0.957411 0.0682976 0.0734088 0.994961 0.0816736 -0.0455524 0.995618 
0.102249 -0.0366681 0.994083 0.0444474 0.095949 0.994393 0.0399983 -0.0537323 0.997754 
0.073574 -0.120971 0.989926 0.0439184 -0.0513319 0.997715 -0.0355473 0.0057314 0.999352 
-0.245672 0.166822 0.95489 -0.683517 0.328664 0.651755 0.414541 0.264034 0.870886 
0.125475 0.258267 0.957891 -0.0827903 0.196002 0.977102 -0.0135019 0.0607586 0.998061 
0.25059 -0.0560357 0.96647 0.0663999 -0.0179555 0.997632 -0.181626 0.157861 0.970614 
0.0468746 -0.0435807 0.99795 0.150909 -0.0571116 0.986897 0.00862021 -0.0181982 0.999797 
-0.201811 0.0357427 0.978772 -0.476835 0.140787 0.867645 0.419333 0.132607 0.898095 
0.0926048 0.134667 0.986554 -0.138814 0.0987832 0.985379 -0.160587 0.071282 0.984444 
-0.0588828 0.0340724 0.997683 0.275446 -0.227014 0.934127 0.0156983 0.00735138 0.99985 
-0.136463 0.034256 0.990053 0.0773407 -0.0340151 0.996424 0.0552878 -0.0513675 0.997148 
-0.104773 0.00737372 0.994469 -0.343883 0.0697261 0.93642 0.399543 -0.00574627 0.916697 
0.0841209 -0.0369986 0.995768 -0.152013 -0.00680516 0.988355 -0.0868336 0.037983 0.995498 
-0.0066908 0.054726 0.998479 0.0354178 0.0740262 0.996627 0.0388817 -0.22424 0.973758 
0.000434308 -0.00303398 0.999995 0.0731402 0.0230767 0.997055 0.0497944 -0.0011422 0.998759 
-0.0880381 0.0114197 0.996052 -0.291164 -0.00609127 0.956654 -0.613285 0.111732 0.781919 
0.35052 -0.0230056 0.936273 0.101511 -0.0553841 0.993292 -0.0658793 0.00803301 0.997795 
-0.10164 0.104214 0.989348 -0.024543 0.0240677 0.999409 -0.00909329 0.0633289 0.997951 
0.0186967 0.0116569 0.999757 0.0884494 0.0605483 0.994239 0.0779696 0.0296165 0.996516 
0.0443614 -0.0368336 0.998336 -0.117825 -0.0830431 0.989556 -0.299149 -0.0936393 0.949601 
-0.593734 -0.0917409 0.799414 0.650253 0.0264246 0.759258 0.298732 -0.0213682 0.954098 
0.126644 0.0067739 0.991925 0.0104093 0.0221454 0.999701 -0.0712751 0.0991326 0.992518 
-0.0531156 0.0887553 0.994636 0.0149346 0.0722207 0.997277 0.044266 0.10572 0.99341 
0.0246282 0.0788508 0.996582 -0.0239883 -0.019214 0.999528 -0.0665079 -0.0833907 0.994295 
-0.147918 -0.210009 0.966445 -0.335238 -0.20601 0.919334 0.606012 -0.139242 0.783174 
0.352539 -0.138435 0.925501 0.154013 -0.109689 0.981961 0.0251979 -0.0700756 0.997223 
-0.0342963 -0.0212375 0.999186 -0.048236 -0.0170782 0.99869 0.00965999 -0.00933026 0.99991 
0.0226054 -0.0290331 0.999323 -0.0385318 -0.0548113 0.997753 -0.0836626 -0.137207 0.987003 
-0.15503 -0.224905 0.961968 -0.213254 -0.266812 0.939859 -0.416687 -0.406542 0.813078 
0.403017 -0.391459 0.827247 0.189379 -0.323347 0.927136 0.0851094 -0.288228 0.953772 
-0.0153899 -0.301489 0.953345 -0.0275586 -0.24874 0.968178 0.00217139 -0.241095 0.970499 
-0.0107432 -0.265619 0.964018 -0.0884923 -0.332718 0.938865 -0.180949 -0.365312 0.913129 
-0.193223 -0.448412 0.872692 -0.367613 -0.56754 0.736722 0.174483 -0.696934 0.695585 
0.0410895 -0.727271 0.685119 0.0406703 -0.686734 0.72577 0.0224698 -0.659982 0.750945 
-0.0111399 -0.65725 0.75359 -0.0787925 -0.676017 0.732662 0.224991 0.603131 0.765253 
0.0780493 0.546815 0.833608 0.0777874 0.639293 0.765019 -0.0290464 0.995242 0.0930041 
-0.0848297 0.699572 0.709509 -0.283348 0.725597 0.627075 0.263963 0.562845 0.78328 
0.331686 0.371895 0.866994 0.476541 0.728782 0.491716 -0.346523 0.723658 0.596859 
-0.451466 0.687014 0.569378 0.332098 0.367014 0.868914 0.532598 0.456221 0.712883 
-0.561589 0.66741 0.489061 -0.582648 0.662477 0.470794 -0.676863 0.733756 0.0588025 
0.737923 0.368955 0.565103 0.431136 0.213067 0.876769 0.410052 0.202929 0.8892 
0.469604 0.226387 0.853358 -0.660439 0.601622 0.449301 -0.671945 0.585441 0.453595 
-0.742232 0.66808 -0.0525506 0.410393 0.197738 0.890212 0.615647 0.259893 0.743932 
-0.728215 0.488488 0.480711 -0.761434 0.432184 0.483151 0.400398 0.226682 0.887861 
0.44495 0.240589 0.862633 0.465747 0.242027 0.851177 -0.760366 0.384823 0.523215 
0.564336 0.251727 0.786231 0.816039 0.233343 0.528802 -0.723157 0.259663 0.640015 
-0.883605 0.466468 0.0406253 0.6732 0.122773 0.729197 0.774382 0.127565 0.619726 
-0.685931 0.155182 0.710927 -0.669791 0.141593 0.728924 -0.750344 0.190354 0.633048 
0.673517 0.0434732 0.737892 0.730364 0.0573599 0.680646 -0.644368 0.118222 0.755522 
0.620503 0.0618402 0.781762 0.651441 0.0506666 0.757005 0.653432 0.0683603 0.753892 
-0.685005 -0.0813641 0.723981 -0.58413 -0.253557 0.771039 0.672212 0.0287112 0.739802 
-0.506564 -0.319816 0.800694 -0.597073 -0.356205 0.718764 0.610895 -0.139063 0.779403 
0.607721 -0.152849 0.779302 -0.511181 -0.432016 0.743005 -0.469459 -0.462333 0.752234 
-0.752923 -0.58115 0.308824 0.475174 -0.408447 0.779346 0.668172 -0.482808 0.566076 
0.42318 -0.476903 0.770378 -0.139828 -0.693488 0.70677 -0.180358 -0.631672 0.753964 
-0.239174 -0.577638 0.780468 -0.37317 -0.571395 0.730925 -0.369353 -0.573565 0.731165 
-0.594281 -0.76286 0.254705 0.194389 -0.698023 0.689186 0.453835 -0.807704 0.376361 
0.173593 -0.706525 0.686067 0.0416434 -0.741424 0.669743 0.0505731 -0.731074 0.680421 
0.0245209 -0.721722 0.691749 -0.012982 -0.729867 0.683466 -0.135078 -0.698172 0.703072 
-0.0822823 -0.724816 0.684011 -0.139778 -0.704887 0.695411 -0.204281 -0.813001 0.545251 
-0.35194 -0.909124 0.222784 -0.0293943 0.995606 0.0889119 0.454424 0.848396 0.271519 
0.318695 0.936913 0.143619 0.0194522 0.995123 0.0967038 0.173054 0.977483 0.120748 
-0.0359912 0.995612 0.0863831 -0.029913 0.996205 0.0817372 -0.194029 0.980626 0.0269469 
-0.440476 0.897763 -0.00126688 0.527529 0.791547 0.308491 0.609565 0.710548 0.351498 
-0.600738 0.796237 -0.07156 -0.607124 0.790995 -0.0756855 -0.683066 0.721551 -0.113068 
0.739136 0.565444 0.365995 0.779471 0.455507 0.430044 -0.685354 0.719237 -0.113961 
-0.679249 0.715627 -0.162783 -0.735486 0.664082 -0.13437 0.802974 0.373617 0.464375 
-0.737472 0.661829 -0.134601 -0.734343 0.660746 -0.155417 0.820942 0.324851 0.469602 
-0.80847 0.569956 -0.146721 -0.82061 0.557833 -0.124185 0.869856 0.298494 0.392749 
0.871687 0.296358 0.390299 0.879246 0.298926 0.370903 -0.848649 0.523174 -0.0779938 
-0.880673 0.473589 0.0113456 0.903935 0.230324 0.36035 -0.8814 0.472148 0.014497 
-0.877991 0.478558 -0.0106418 0.925774 0.150915 0.346651 -0.927418 0.343149 0.148812 
0.908013 0.138635 0.395339 -0.970885 0.137734 0.195988 0.899693 0.0743315 0.430148 
0.996964 0.0776649 -0.00562075 -0.956407 -0.0729477 0.282779 0.913971 -0.0181082 0.405375 
-0.88424 -0.353626 0.305069 0.916564 -0.167728 0.363013 -0.756753 -0.582017 0.297626 
-0.75239 -0.587897 0.297128 0.808247 -0.494481 0.319728 0.712044 -0.641112 0.2863 
-0.467071 -0.860062 0.205274 -0.595628 -0.763693 0.248999 -0.594286 -0.764888 0.248536 
-0.598196 -0.800478 -0.037364 0.510767 -0.832294 0.215416 0.416689 -0.889641 0.186842 
0.190857 -0.973037 0.129505 0.0237934 -0.994051 0.10629 0.0325125 -0.996895 0.0717167 
0.0338209 -0.997392 0.0637528 -0.0173875 -0.998073 0.0595599 -0.0521387 -0.994388 0.0920528 
-0.11769 -0.982839 0.142041 -0.221736 -0.961033 0.165069 -0.365667 -0.914913 0.170943 
-0.349307 -0.922372 0.164966 -0.324906 -0.928874 -0.177848 0.286431 0.884277 -0.368797 
0.198622 0.86125 -0.467759 0.128997 0.841386 -0.524814 -0.0584616 0.844215 -0.532807 
-0.213831 0.804105 -0.554699 -0.394857 0.735337 -0.550788 0.437137 0.844032 -0.31068 
0.557588 0.775281 -0.296706 0.261518 0.802665 -0.536038 0.0944185 0.719387 -0.688162 
0.0251569 0.639589 -0.768306 0.0177251 0.59279 -0.805162 -0.165185 0.644377 -0.746654 
-0.447668 0.702015 -0.553867 -0.388901 0.681018 -0.620459 -0.555463 0.619105 -0.55513 
0.710627 0.655397 -0.255861 0.763576 0.610662 -0.209866 0.440658 0.593624 -0.673373 
0.262272 0.427647 -0.865061 -0.314308 0.449254 -0.83629 -0.565463 0.604438 -0.561164 
-0.510182 0.569875 -0.644172 -0.595448 0.579231 -0.556716 0.857102 0.481922 -0.182011 
0.687892 0.460624 -0.560919 -0.61267 0.556907 -0.560794 -0.564624 0.534617 -0.628796 
-0.643221 0.523111 -0.559126 0.937163 0.340628 -0.0754917 0.947581 0.305625 -0.0931833 
-0.653277 0.514179 -0.555742 -0.626363 0.492119 -0.604557 -0.698547 0.491335 -0.520213 
0.953255 0.278379 -0.117519 0.911255 0.271523 -0.309661 -0.530979 0.392048 -0.751238 
-0.700358 0.490228 -0.518821 -0.695164 0.488404 -0.527456 0.968451 0.228285 -0.0999381 
0.70883 0.233336 -0.665668 -0.729223 0.514334 -0.451324 -0.565997 0.474501 -0.674164 
-0.775742 0.483323 -0.405738 0.97739 0.194317 -0.0833625 -0.83137 0.410565 -0.374514 
-0.733752 0.38923 -0.556873 0.980994 0.190155 -0.0386254 0.994892 0.0891062 -0.047434 
-0.911998 0.213216 -0.350426 -0.726398 0.180253 -0.663216 0.995777 0.0768474 -0.0502262 
0.998173 -0.0161868 -0.058205 0.993555 0.074953 -0.0850292 -0.960571 -0.0126984 -0.277745 
0.995707 -0.0674365 -0.0633977 -0.905678 -0.332537 -0.262994 -0.609067 -0.233504 -0.757966 
0.962791 -0.21917 -0.158105 -0.561623 -0.778105 -0.281304 -0.439137 -0.517704 -0.734262 
-0.752546 -0.617665 -0.228396 -0.728776 -0.644855 -0.230321 -0.718606 -0.623977 -0.307015 
0.80142 -0.557344 -0.21701 0.651345 -0.712623 -0.26061 0.565841 -0.535921 -0.626588 
-0.308187 -0.90664 -0.28814 -0.56033 -0.778869 -0.281767 -0.447399 -0.826344 -0.342037 
-0.370304 -0.691974 -0.619715 0.378493 -0.87425 -0.304024 0.321114 -0.895078 -0.309388 
0.328248 -0.867417 -0.373953 0.137032 -0.921314 -0.363871 0.119686 -0.800878 -0.586745 
0.00634958 -0.924107 -0.382082 -0.0224564 -0.798275 -0.601875 -0.00116692 -0.912597 -0.408858 
-0.0352538 -0.80412 -0.593421 0.011921 -0.885714 -0.464079 0.00371425 -0.782635 -0.62247 
0.0193245 -0.897578 -0.440433 0.0364556 -0.783702 -0.620066 -0.000251325 -0.919739 -0.39253 
0.0157771 -0.791825 -0.610544 -0.0734916 -0.929017 -0.362665 -0.0562689 -0.808154 -0.586277 
-0.29999 -0.908644 -0.29047 -0.183135 -0.921815 -0.341642 -0.163258 -0.845984 -0.507601 
0.0951662 0.471267 -0.876842 -0.0340953 0.462021 -0.886213 -0.0117056 0.399663 -0.916587 
-0.126322 0.449107 -0.884503 0.313408 0.438404 -0.842364 0.244427 0.408819 -0.879274 
0.247596 0.409639 -0.878005 0.107912 0.340368 -0.934079 -0.0198303 0.358523 -0.93331 
-0.0351829 0.342427 -0.938886 -0.229495 0.400854 -0.886932 -0.115266 0.341794 -0.932679 
-0.277428 0.412083 -0.867883 -0.364552 0.446153 -0.817343 0.431477 0.389421 -0.813744 
0.504483 0.329842 -0.797936 0.284519 0.358899 -0.888955 0.107028 0.260241 -0.959593 
0.0115968 0.203188 -0.979071 -0.0243457 0.139948 -0.989859 0.00799784 0.168811 -0.985616 
-0.0329183 0.192777 -0.98069 -0.188069 0.339381 -0.921656 -0.366738 0.446022 -0.816436 
-0.361578 0.443582 -0.820059 -0.472359 0.424564 -0.772414 0.54297 0.301068 -0.783927 
0.461383 0.285472 -0.840018 0.216727 0.192536 -0.957058 0.0295066 0.134827 -0.99043 
-0.0406054 0.10181 -0.993975 -0.0385946 0.080619 -0.995997 0.0264826 0.0488074 -0.998457 
0.0568491 0.0808943 -0.9951 -0.0297287 0.1836 -0.982551 -0.247445 0.313003 -0.916951 
-0.476257 0.419966 -0.772534 -0.466617 0.415051 -0.781026 0.61684 0.213418 -0.757602 
0.390168 0.199635 -0.898841 0.145357 0.104012 -0.983897 0.0271429 0.0679056 -0.997322 
-0.0481748 0.0320482 -0.998325 -0.0822945 0.127618 -0.988403 0.00635508 0.0622595 -0.99804 
0.112692 0.0131467 -0.993543 0.0548317 0.0507912 -0.997203 -0.132796 0.0957314 -0.986509 
-0.495482 0.36059 -0.790235 -0.362772 0.256249 -0.895954 -0.48765 0.370691 -0.790434 
0.663353 0.227056 -0.713028 0.676172 0.220334 -0.703025 0.33266 0.118231 -0.935606 
0.0683231 0.0616618 -0.995756 -0.0447761 -0.0211149 -0.998774 0.0209543 -0.0439055 -0.998816 
-0.00360526 0.124419 -0.992223 -0.0925074 0.013046 -0.995627 0.0411859 0.16047 -0.986181 
0.0545212 -0.059987 -0.996709 -0.0336163 -0.017005 -0.99929 -0.173418 0.126885 -0.97664 
-0.475507 0.420051 -0.772949 -0.372842 0.324056 -0.869469 -0.495739 0.435532 -0.751369 
0.711596 0.178745 -0.679471 0.621339 0.163777 -0.766234 0.249833 0.0481147 -0.967093 
0.0138667 -0.00769124 -0.999874 -0.0827417 -0.0603768 -0.99474 0.0967057 -0.0668613 -0.993065 
-0.0194597 0.0697018 -0.997378 0.0453317 -0.0902172 -0.99489 0.0262685 0.222829 -0.974504 
-0.129027 -0.0303118 -0.991178 0.0528156 0.00157667 -0.998603 -0.023986 0.0750279 -0.996893 
-0.187679 0.216448 -0.958085 -0.556775 0.369979 -0.743718 -0.414082 0.349519 -0.84046 
0.722216 0.137376 -0.677888 0.534002 0.098029 -0.839781 0.179033 0.0889087 -0.979818 
-0.0311542 0.0330234 -0.998969 -0.104433 0.0344502 -0.993935 0.141445 0.0314082 -0.989448 
-0.00699685 -0.0396681 -0.999188 0.0276074 0.0582585 -0.99792 0.0871699 -0.102279 -0.990929 
-0.13725 0.0651492 -0.988392 0.0690139 0.0231909 -0.997346 0.0393759 0.0283699 -0.998822 
-0.0899174 0.0643618 -0.993867 -0.686441 0.1693 -0.707203 -0.324163 0.109557 -0.939636 
-0.64443 0.064213 -0.761963 0.710549 0.0271191 -0.703124 0.482771 0.0541069 -0.874074 
0.197117 0.0245538 -0.980072 -0.0522285 0.0142279 -0.998534 -0.0804422 0.0516688 -0.995419 
0.0251168 0.0985284 -0.994817 -0.0123568 -0.109098 -0.993954 0.00596291 0.097382 -0.995229 
0.061544 -0.0850714 -0.994472 -0.0275977 0.0732947 -0.996928 0.0219399 0.0220052 -0.999517 
0.0188197 -0.043435 -0.998879 -0.10868 -0.0351983 -0.993453 -0.3079 -0.0959947 -0.946563 
-0.622515 0.0245145 -0.782224 -0.612545 -0.150455 -0.775985 -0.61639 0.0217149 -0.787141 
0.706967 -0.136796 -0.693891 0.492634 -0.100146 -0.864455 0.116567 -0.127705 -0.984938 
0.00269489 -0.0541956 -0.998527 -0.018549 -0.0401749 -0.99902 -0.0105884 -0.00518694 -0.999931 
-0.0192082 -0.0808029 -0.996545 0.0555432 0.00446593 -0.998446 0.066524 -0.0257888 -0.997451 
-0.0306017 -0.0108491 -0.999473 -0.0471823 -0.0483968 -0.997713 -0.0191362 -0.10762 -0.994008 
-0.151828 -0.201771 -0.967593 -0.59681 -0.232619 -0.767923 -0.405328 -0.455211 -0.792775 
-0.318211 -0.241664 -0.916701 0.608574 -0.253638 -0.751868 0.550633 -0.335156 -0.764509 
0.566861 -0.26284 -0.780759 0.220582 -0.226337 -0.948744 0.0348248 -0.198235 -0.979536 
-0.0302821 -0.174757 -0.984146 -0.0142548 -0.192315 -0.98123 -0.000632634 -0.193365 -0.981127 
0.0592159 -0.162723 -0.984893 0.0467241 -0.190641 -0.980547 -0.0488472 -0.182312 -0.982027 
-0.0814847 -0.203818 -0.975612 -0.124922 -0.280271 -0.951758 -0.394839 -0.481925 -0.782209 
-0.303914 -0.553538 -0.775392 -0.245951 -0.398919 -0.883387 0.331172 -0.518946 -0.788049 
0.245769 -0.572057 -0.782527 0.228041 -0.518048 -0.824393 0.106657 -0.593161 -0.797988 
0.0791306 -0.424445 -0.90199 -0.0391634 -0.582981 -0.811541 -0.0151925 -0.402137 -0.915453 
-0.0407867 -0.569592 -0.820915 -0.027552 -0.423541 -0.905458 0.0115812 -0.561178 -0.827614 
0.012975 -0.441149 -0.89734 0.0527816 -0.574688 -0.816669 0.0594557 -0.428701 -0.901488 
0.0295044 -0.610863 -0.791186 0.0383535 -0.435863 -0.899195 -0.0555875 -0.623575 -0.779785 
-0.0470711 -0.445259 -0.894164 -0.140333 -0.587647 -0.796855 -0.144624 -0.455321 -0.878503 
-0.261107 -0.534452 -0.803856 -0.243705 -0.535266 -0.808764 -0.234611 -0.494562 -0.836879 

