# vtk DataFile Version 4.2
vtk output
ASCII
DATASET POLYDATA
POINTS 520 float
-13.3571 -37.4883 -17.2772 -5.4757 -37.4883 -17.3498 2.40569 -37.4883 -16.2913 
-29.1199 -29.6069 -18.6365 -21.2385 -29.6069 -20.6785 -13.3571 -29.6069 -21.3988 
-5.4757 -29.6069 -20.3306 2.40569 -29.6069 -19.0185 10.2871 -29.6069 -17.7402 
18.1685 -29.6069 -16.9498 -37.0013 -21.7255 -18.3918 -29.1199 -21.7255 -21.4106 
-21.2385 -21.7255 -22.2948 -13.3571 -21.7255 -22.6991 -5.4757 -21.7255 -21.7163 
2.40569 -21.7255 -19.7121 10.2871 -21.7255 -19.0005 18.1685 -21.7255 -19.2614 
26.0499 -21.7255 -19.1393 33.9313 -21.7255 -17.8018 -44.8827 -13.8441 -16.0719 
-37.0013 -13.8441 -21.1846 -29.1199 -13.8441 -22.8111 -21.2385 -13.8441 -22.3389 
-13.3571 -13.8441 -22.4144 -5.4757 -13.8441 -22.0919 2.40569 -13.8441 -20.1764 
10.2871 -13.8441 -19.6338 18.1685 -13.8441 -20.4865 26.0499 -13.8441 -21.0455 
33.9313 -13.8441 -20.4175 41.8127 -13.8441 -17.9042 -44.8827 -5.96272 -18.5575 
-37.0013 -5.96272 -22.0042 -29.1199 -5.96272 -22.7483 -21.2385 -5.96272 -22.2536 
-13.3571 -5.96272 -21.7431 -5.4757 -5.96272 -21.5823 2.40569 -5.96272 -20.4145 
10.2871 -5.96272 -20.9807 18.1685 -5.96272 -21.2251 26.0499 -5.96272 -21.9627 
33.9313 -5.96272 -21.7366 41.8127 -5.96272 -20.0783 -44.8827 1.91867 -19.8743 
-37.0013 1.91867 -22.7415 -29.1199 1.91867 -23.4477 -21.2385 1.91867 -22.7408 
-13.3571 1.91867 -22.4884 -5.4757 1.91867 -21.8389 2.40569 1.91867 -21.2407 
10.2871 1.91867 -22.4473 18.1685 1.91867 -21.6802 26.0499 1.91867 -22.3087 
33.9313 1.91867 -22.2344 41.8127 1.91867 -20.5528 49.6941 1.91867 -16.0698 
-44.8827 9.80007 -19.9052 -37.0013 9.80007 -22.6503 -29.1199 9.80007 -23.5455 
-21.2385 9.80007 -23.2161 -13.3571 9.80007 -22.6474 -5.4757 9.80007 -22.234 
2.40569 9.80007 -22.707 10.2871 9.80007 -23.0923 18.1685 9.80007 -22.2295 
26.0499 9.80007 -22.478 33.9313 9.80007 -22.1605 41.8127 9.80007 -20.2848 
49.6941 9.80007 -15.8845 -44.8827 17.6815 -18.2952 -37.0013 17.6815 -22.4672 
-29.1199 17.6815 -23.5587 -21.2385 17.6815 -23.3761 -13.3571 17.6815 -23.014 
-5.4757 17.6815 -22.866 2.40569 17.6815 -23.0186 10.2871 17.6815 -23.0085 
18.1685 17.6815 -22.7553 26.0499 17.6815 -22.3781 33.9313 17.6815 -21.6306 
41.8127 17.6815 -19.1551 -37.0013 25.5629 -20.1887 -29.1199 25.5629 -21.9744 
-21.2385 25.5629 -23.5124 -13.3571 25.5629 -23.5418 -5.4757 25.5629 -23.3915 
2.40569 25.5629 -23.1946 10.2871 25.5629 -23.2814 18.1685 25.5629 -22.6278 
26.0499 25.5629 -21.8508 33.9313 25.5629 -20.0669 41.8127 25.5629 -16.1111 
-29.1199 33.4442 -19.7241 -21.2385 33.4442 -21.3464 -13.3571 33.4442 -22.6392 
-5.4757 33.4442 -23.3601 2.40569 33.4442 -22.8319 10.2871 33.4442 -21.9621 
18.1685 33.4442 -21.0515 26.0499 33.4442 -19.7374 33.9313 33.4442 -15.7191 
-21.2385 41.3256 -16.8833 -13.3571 41.3256 -18.9459 -5.4757 41.3256 -19.3312 
2.40569 41.3256 -18.6652 10.2871 41.3256 -17.5757 -13.3571 -39.1432 -15.6833 
-5.4757 -39.4406 -15.6833 2.40569 -38.2527 -15.6833 -29.1199 -33.4544 -15.6833 
-29.1199 -37.4883 -9.85093 -20.9251 -37.4883 -15.6833 -21.2385 -37.4011 -15.6833 
-21.2385 -37.4883 -15.5853 5.24227 -37.4883 -15.6833 10.2871 -34.9435 -15.6833 
10.2871 -37.4883 -14.2908 18.1685 -31.897 -15.6833 18.1685 -37.4883 -11.3922 
-34.0696 -29.6069 -15.6833 -37.0013 -26.5398 -15.6833 -37.0013 -29.6069 -12.4049 
25.709 -29.6069 -15.6833 26.0499 -29.4902 -15.6833 26.0499 -29.6069 -15.6116 
33.9313 -25.2651 -15.6833 33.9313 -29.6069 -11.357 -40.6686 -21.7255 -15.6833 
-44.8827 -14.5552 -15.6833 -44.8827 -21.7255 -9.17702 38.3551 -21.7255 -15.6833 
41.8127 -18.3228 -15.6833 41.8127 -21.7255 -12.9499 -45.2187 -13.8441 -15.6833 
45.0118 -13.8441 -15.6833 49.6941 -13.8441 -9.72517 -47.9829 -5.96272 -15.6833 
48.6904 -5.96272 -15.6833 49.6941 -0.7385 -15.6833 49.6941 -5.96272 -14.4963 
-49.7302 1.91867 -15.6833 -52.7641 1.91867 -8.05505 50.0875 1.91867 -15.6833 
-49.5655 9.80007 -15.6833 -52.7641 9.80007 -7.85519 49.8949 9.80007 -15.6833 
49.6941 10.642 -15.6833 -47.7481 17.6815 -15.6833 -44.8827 24.7216 -15.6833 
47.3506 17.6815 -15.6833 49.6941 17.6815 -12.5269 -44.4225 25.5629 -15.6833 
-44.8827 25.5629 -15.0375 -37.0013 33.1519 -15.6833 42.2619 25.5629 -15.6833 
41.8127 26.0873 -15.6833 -36.6672 33.4442 -15.6833 -37.0013 33.4442 -15.3438 
-29.1199 39.0933 -15.6833 18.1685 41.2429 -15.6833 26.0499 38.5313 -15.6833 
33.9741 33.4442 -15.6833 33.9313 33.4772 -15.6833 -24.2804 41.3256 -15.6833 
-29.1199 41.3256 -10.7962 -21.2385 42.4119 -15.6833 -13.3571 44.2083 -15.6833 
-5.4757 44.6067 -15.6833 2.40569 44.085 -15.6833 17.8816 41.3256 -15.6833 
10.2871 42.9693 -15.6833 18.1685 41.3256 -15.4715 -29.1199 -38.6136 -7.80186 
-21.2385 -42.0813 -7.80186 -13.3571 -43.8441 -7.80186 -5.4757 -44.4077 -7.80186 
-5.4757 -45.3697 -0.687089 2.40569 -44.0402 -7.80186 10.2871 -42.3088 -7.80186 
18.1685 -39.9851 -7.80186 -30.8526 -37.4883 -7.80186 -37.0013 -32.6714 -7.80186 
23.7461 -37.4883 -7.80186 26.0499 -36.3352 -7.80186 26.0499 -37.4883 -2.47446 
33.9313 -32.0163 -7.80186 -39.921 -29.6069 -7.80186 -44.8827 -22.8112 -7.80186 
37.3452 -29.6069 -7.80186 41.8127 -25.8821 -7.80186 -45.5705 -21.7255 -7.80186 
45.6684 -21.7255 -7.80186 49.6941 -15.7378 -7.80186 -49.1275 -13.8441 -7.80186 
50.7532 -13.8441 -7.80186 -51.4933 -5.96272 -7.80186 -52.7641 1.45658 -7.80186 
53.6613 -5.96272 -7.80186 -52.8419 1.91867 -7.80186 -52.7641 1.91867 -6.06686 
54.6026 1.91867 -7.80186 -52.7819 9.80007 -7.80186 -52.7641 9.90353 -7.80186 
-52.7641 9.80007 -6.73367 54.176 9.80007 -7.80186 -51.3839 17.6815 -7.80186 
52.0552 17.6815 -7.80186 49.6941 21.544 -7.80186 -48.2871 25.5629 -7.80186 
-44.8827 30.4581 -7.80186 46.8365 25.5629 -7.80186 41.8127 30.8645 -7.80186 
-42.2723 33.4442 -7.80186 -37.0013 37.8155 -7.80186 26.0499 40.7126 -7.80186 
38.6391 33.4442 -7.80186 33.9313 36.6473 -7.80186 -30.9692 41.3256 -7.80186 
-29.1199 42.2672 -7.80186 -29.1199 41.3256 -3.569 -21.2385 44.7722 -7.80186 
-13.3571 46.004 -7.80186 -5.4757 46.1599 -7.80186 2.40569 46.0475 -7.80186 
10.2871 44.8837 -7.80186 24.2954 41.3256 -7.80186 18.1685 43.347 -7.80186 
-5.4757 -45.4675 0.0795353 -29.1199 -40.7197 0.0795353 -21.2385 -43.984 0.0795353 
-11.7418 -45.3697 0.0795353 -13.3571 -45.3442 0.0795353 -4.04168 -45.3697 0.0795353 
-5.4757 -45.3697 0.948514 2.40569 -44.9224 0.0795353 10.2871 -43.3786 0.0795353 
18.1685 -41.3216 0.0795353 26.0499 -37.9758 0.0795353 -33.9668 -37.4883 0.0795353 
-37.0013 -35.022 0.0795353 27.0409 -37.4883 0.0795353 26.0499 -37.4883 4.53731 
33.9313 -33.9375 0.0795353 -41.9163 -29.6069 0.0795353 -44.8827 -25.2667 0.0795353 
40.0835 -29.6069 0.0795353 41.8127 -28.1733 0.0795353 -46.9481 -21.7255 0.0795353 
47.6665 -21.7255 0.0795353 49.6941 -18.5651 0.0795353 -49.9581 -13.8441 0.0795353 
52.3151 -13.8441 0.0795353 -51.7711 -5.96272 0.0795353 55.1831 -5.96272 0.0795353 
-52.4879 1.91867 0.0795353 55.7524 1.91867 0.0795353 -52.6424 9.80007 0.0795353 
55.1026 9.80007 0.0795353 -51.1881 17.6815 0.0795353 52.3692 17.6815 0.0795353 
49.6941 21.974 0.0795353 -47.7073 25.5629 0.0795353 -44.8827 29.7033 0.0795353 
-44.8827 25.5629 5.34682 46.6759 25.5629 0.0795353 41.8127 29.8837 0.0795353 
41.8127 25.5629 7.90849 -41.4037 33.4442 0.0795353 -37.0013 36.7453 0.0795353 
-37.0013 33.4442 5.53424 -29.1199 40.4395 0.0795353 26.0499 38.6642 0.0795353 
35.9734 33.4442 0.0795353 33.9313 34.542 0.0795353 33.9313 33.4442 2.0055 
-25.8322 41.3256 0.0795353 -21.2385 42.5505 0.0795353 -21.2385 41.3256 2.11293 
-13.3571 43.6817 0.0795353 -13.3571 41.3256 3.8166 -5.4757 44.0231 0.0795353 
-5.4757 41.3256 4.39092 2.40569 43.7094 0.0795353 2.40569 41.3256 4.18214 
10.2871 42.9833 0.0795353 10.2871 41.3256 2.99862 19.2431 41.3256 0.0795353 
18.1685 41.6831 0.0795353 18.1685 41.3256 0.70452 -29.1199 -40.1276 7.96093 
-21.2385 -43.3811 7.96093 -13.3571 -44.6464 7.96093 -5.4757 -44.5704 7.96093 
2.40569 -43.9382 7.96093 10.2871 -42.3446 7.96093 18.1685 -40.1603 7.96093 
-33.0021 -37.4883 7.96093 -37.0013 -34.1801 7.96093 -29.1199 -37.4883 13.1146 
25.1061 -37.4883 7.96093 18.1685 -37.4883 14.725 26.0499 -37.1143 7.96093 
33.9313 -33.0576 7.96093 -41.1027 -29.6069 7.96093 -44.8827 -23.9415 7.96093 
-37.0013 -29.6069 15.443 38.8591 -29.6069 7.96093 33.9313 -29.6069 15.5299 
41.8127 -27.1832 7.96093 -46.1537 -21.7255 7.96093 -44.8827 -21.7255 11.1632 
46.7834 -21.7255 7.96093 49.6941 -17.2118 7.96093 -48.8521 -13.8441 7.96093 
51.5561 -13.8441 7.96093 49.6941 -13.8441 12.7088 -49.9763 -5.96272 7.96093 
54.2461 -5.96272 7.96093 -50.1486 1.91867 7.96093 54.6606 1.91867 7.96093 
-49.4488 9.80007 7.96093 -44.8827 9.80007 14.1497 53.4703 9.80007 7.96093 
49.6941 9.80007 15.1916 -47.3515 17.6815 7.96093 -44.8827 22.8275 7.96093 
-44.8827 17.6815 11.1769 41.8127 25.5358 7.96093 49.9635 17.6815 7.96093 
49.6941 18.0351 7.96093 49.6941 17.6815 8.41475 -43.1647 25.5629 7.96093 
-37.0013 31.693 7.96093 -37.0013 25.5629 13.3477 41.7722 25.5629 7.96093 
33.9313 30.2361 7.96093 33.9313 25.5629 14.0201 -33.9367 33.4442 7.96093 
-29.1199 35.6996 7.96093 -29.1199 33.4442 10.5072 -21.2385 37.3084 7.96093 
-21.2385 33.4442 12.2043 -13.3571 38.2734 7.96093 -13.3571 33.4442 12.8189 
-5.4757 38.6622 7.96093 -5.4757 33.4442 12.8534 2.40569 38.7301 7.96093 
2.40569 33.4442 13.1879 10.2871 37.9519 7.96093 10.2871 33.4442 12.8428 
18.1685 36.1061 7.96093 18.1685 33.4442 10.9951 26.5772 33.4442 7.96093 
26.0499 33.6749 7.96093 26.0499 33.4442 8.26268 -21.2385 -39.4326 15.8423 
-13.3571 -41.2108 15.8423 -5.4757 -41.2294 15.8423 2.40569 -40.6409 15.8423 
10.2871 -39.1205 15.8423 -25.6696 -37.4883 15.8423 -29.1199 -35.5382 15.8423 
-21.2385 -37.4883 17.6843 -13.3571 -37.4883 19.4875 -5.4757 -37.4883 19.446 
2.40569 -37.4883 19.1732 16.3172 -37.4883 15.8423 10.2871 -37.4883 17.7448 
18.1685 -36.902 15.8423 26.0499 -33.5798 15.8423 -36.6459 -29.6069 15.8423 
-37.0013 -29.2694 15.8423 -29.1199 -29.6069 20.1874 -21.2385 -29.6069 21.6499 
-13.3571 -29.6069 22.1416 -5.4757 -29.6069 22.8099 2.40569 -29.6069 23.5282 
10.2871 -29.6069 23.0919 18.1685 -29.6069 22.0968 33.6268 -29.6069 15.8423 
[...]
POINT_DATA 520
SCALARS ImageScalars float
LOOKUP_TABLE default
0 0 0 0 0 0 0 0 0 
0 0 0 0 0 0 0 0 0 
0 0 0 0 0 0 0 0 0 
0 0 0 0 0 0 0 0 0 
0 0 0 0 0 0 0 0 0 
0 0 0 0 0 0 0 0 0 
0 0 0 0 0 0 0 0 0 
0 0 0 0 0 0 0 0 0 
0 0 0 0 0 0 0 0 0 
0 0 0 0 0 0 0 0 0 
0 0 0 0 0 0 0 0 0 
0 0 0 0 0 0 0 0 0 
0 0 0 0 0 0 0 0 0 
0 0 0 0 0 0 0 0 0 
0 0 0 0 0 0 0 0 0 
0 0 0 0 0 0 0 0 0 
0 0 0 0 0 0 0 0 0 
0 0 0 0 0 0 0 0 0 
0 0 0 0 0 0 0 0 0 
0 0 0 0 0 0 0 0 0 
0 0 0 0 0 0 0 0 0 
0 0 0 0 0 0 0 0 0 
0 0 0 0 0 0 0 0 0 
0 0 0 0 0 0 0 0 0 
0 0 0 0 0 0 0 0 0 
0 0 0 0 0 0 0 0 0 
0 0 0 0 0 0 0 0 0 
0 0 0 0 0 0 0 0 0 
0 0 0 0 0 0 0 0 0 
0 0 0 0 0 0 0 0 0 
0 0 0 0 0 0 0 0 0 
0 0 0 0 0 0 0 0 0 
0 0 0 0 0 0 0 0 0 
0 0 0 0 0 0 0 0 0 
0 0 0 0 0 0 0 0 0 
0 0 0 0 0 0 0 0 0 
0 0 0 0 0 0 0 0 0 
0 0 0 0 0 0 0 0 0 
0 0 0 0 0 0 0 0 0 
0 0 0 0 0 0 0 0 0 
0 0 0 0 0 0 0 0 0 
0 0 0 0 0 0 0 0 0 
0 0 0 0 0 0 0 0 0 
0 0 0 0 0 0 0 0 0 
0 0 0 0 0 0 0 0 0 
0 0 0 0 0 0 0 0 0 
0 0 0 0 0 0 0 0 0 
0 0 0 0 0 0 0 0 0 
0 0 0 0 0 0 0 0 0 
0 0 0 0 0 0 0 0 0 
0 0 0 0 0 0 0 0 0 
0 0 0 0 0 0 0 0 0 
0 0 0 0 0 0 0 0 0 
0 0 0 0 0 0 0 0 0 
0 0 0 0 0 0 0 0 0 
0 0 0 0 0 0 0 0 0 
0 0 0 0 0 0 0 0 0 
0 0 0 0 0 0 0 
NORMALS Normals float
0.0885889 0.636537 0.766141 -0.0577829 0.556632 0.828747 -0.1599 0.530031 0.832766 
0.347087 0.47349 0.809529 0.154103 0.354964 0.922092 -0.0217911 0.29164 0.95628 
-0.141054 0.247758 0.958499 -0.157436 0.194184 0.968249 -0.121144 0.257966 0.958529 
-0.127351 0.394403 0.91007 0.483934 0.368738 0.793625 0.218758 0.232676 0.947632 
0.0811185 0.0992347 0.991752 -0.0358697 0.0576918 0.99769 -0.186926 0.1069 0.97654 
-0.170867 0.0709581 0.982736 -0.0277361 0.1162 0.992838 0.00883712 0.203008 0.979137 
-0.0847467 0.323883 0.942294 -0.286232 0.428662 0.856925 0.708611 0.33852 0.619092 
0.320681 0.207167 0.924254 0.0556925 0.0821585 0.995062 -0.0235789 -0.00265731 0.999718 
-0.015455 -0.0613157 0.997999 -0.140914 -0.00824708 0.989987 -0.154767 0.0446716 0.986941 
0.0198083 0.124819 0.991982 0.0898133 0.12635 0.987912 -0.00449936 0.170371 0.98537 
-0.181415 0.229493 0.956254 -0.452395 0.33656 0.825873 0.606907 0.189209 0.771922 
0.224482 0.0866949 0.970614 0.0179545 0.04103 0.998997 -0.062955 0.0253997 0.997693 
-0.0423789 0.00457275 0.999091 -0.0855437 -0.0164025 0.996199 -0.0368385 0.0635149 0.997301 
0.0512821 0.174437 0.983332 0.0616964 0.0750264 0.995271 0.0329141 0.0813193 0.996144 
-0.116223 0.116262 0.986395 -0.359809 0.155675 0.919947 0.529691 0.0767206 0.844714 
0.208406 0.0441559 0.977045 -0.00202156 0.0495331 0.99877 -0.0613073 0.0617625 0.996206 
-0.0554924 0.0576021 0.996796 -0.0787475 0.0421934 0.996001 0.0414774 0.153048 0.987348 
0.0227057 0.13259 0.990911 -0.00971876 0.0635531 0.997931 0.0360097 0.0332718 0.998797 
-0.104145 0.0263251 0.994214 -0.3431 0.0135118 0.939202 -0.690719 0.050302 0.721372 
0.526898 -0.0884518 0.845313 0.215248 -0.0158407 0.976431 0.0334329 0.00699602 0.999416 
-0.0567436 0.0400551 0.997585 -0.0621689 0.0326951 0.99753 0.00359829 0.0638306 0.997954 
0.0540609 0.106646 0.992826 -0.0306851 0.03542 0.998901 -0.0376689 0.0683155 0.996952 
-0.0041363 0.00398558 0.999983 -0.129338 -0.0393814 0.990818 -0.3525 -0.0842177 0.932015 
-0.699844 -0.111905 0.705476 0.601478 -0.241452 0.761528 0.284102 -0.143992 0.94792 
0.0470813 -0.0978806 0.994084 -0.0336427 0.0184364 0.999264 -0.032566 0.056946 0.997846 
0.000406446 0.0733681 0.997305 0.00906956 0.0309502 0.99948 -0.0166833 0.011868 0.99979 
-0.0398651 0.0252572 0.998886 -0.0724954 -0.0380442 0.996643 -0.187972 -0.116277 0.975267 
-0.427684 -0.207312 0.879834 0.353143 -0.342033 0.870806 0.19297 -0.219236 0.956399 
0.0965909 -0.120027 0.988061 -0.00783512 -0.0207139 0.999755 -0.0218956 0.0314793 0.999265 
-0.00708326 -0.00961205 0.999929 -0.0359646 -0.059897 0.997556 -0.0877319 -0.102999 0.990805 
-0.150104 -0.155864 0.976307 -0.309216 -0.303989 0.901097 -0.594391 -0.500155 0.629717 
0.305941 -0.436057 0.846318 0.168925 -0.343908 0.923684 0.125083 -0.247154 0.960869 
0.012442 -0.201186 0.979474 -0.0812156 -0.228069 0.970252 -0.110006 -0.308851 0.944727 
-0.13059 -0.363583 0.922363 -0.271013 -0.463052 0.843881 -0.542868 -0.644843 0.538027 
0.266809 -0.735954 0.622242 0.134312 -0.685529 0.715549 -0.0150619 -0.661283 0.749985 
-0.0956719 -0.677569 0.72921 -0.161062 -0.734955 0.65871 0.103905 0.707829 0.6987 
-0.0402663 0.656813 0.752977 -0.155066 0.570885 0.806253 0.406469 0.626915 0.664651 
0.457981 0.79515 0.39748 0.244349 0.703651 0.66721 0.249522 0.702109 0.666919 
0.25118 0.707161 0.660932 -0.17887 0.538627 0.823339 -0.187929 0.449044 0.873523 
-0.224295 0.593538 0.772919 -0.171133 0.483029 0.858718 -0.316366 0.760675 0.566821 
0.519429 0.559688 0.645711 0.571353 0.503744 0.647918 0.634845 0.609385 0.474996 
-0.2222 0.525597 0.821204 -0.224345 0.52761 0.819327 -0.227709 0.532519 0.815213 
-0.35279 0.54659 0.759459 -0.46426 0.71817 0.518357 0.620998 0.421217 0.661013 
0.716145 0.35327 0.601945 0.816001 0.471712 0.334111 -0.443126 0.501743 0.742895 
-0.518708 0.457984 0.721937 -0.589006 0.566354 0.576468 0.72247 0.342329 0.600707 
-0.578316 0.370054 0.727056 -0.817714 0.401844 0.412148 0.754128 0.230239 0.615045 
-0.686297 0.209874 0.696383 -0.707953 0.107132 0.698087 -0.749795 0.220296 0.623921 
0.788469 0.0838218 0.609336 0.986728 0.0795314 0.141574 -0.707439 0.0506386 0.704958 
0.793451 -0.101334 0.600138 0.983458 -0.0884033 0.1581 -0.709277 -0.112975 0.695818 
-0.708244 -0.137505 0.692447 0.726808 -0.261162 0.635251 0.680215 -0.411513 0.606601 
-0.658114 -0.315931 0.683428 -0.798852 -0.375489 0.46994 0.669789 -0.426593 0.607783 
0.701539 -0.438052 0.562098 0.52452 -0.587911 0.615824 -0.608329 -0.509412 0.608634 
-0.602098 -0.520171 0.605723 0.521681 -0.592109 0.614211 0.533519 -0.605235 0.590802 
0.38551 -0.710978 0.588126 -0.230514 -0.81379 0.533488 -0.370268 -0.759443 0.534927 
-0.54384 -0.645612 0.536119 -0.543359 -0.646246 0.535843 0.316236 -0.771379 0.552241 
0.402762 -0.887597 0.223506 0.270228 -0.78911 0.551617 0.131369 -0.85157 0.507515 
-0.00621578 -0.870264 0.492547 -0.104094 -0.840419 0.531846 -0.228875 -0.815734 0.53122 
-0.170948 -0.83192 0.527907 -0.232664 -0.82389 0.516791 0.46238 0.823021 0.32991 
0.28518 0.894729 0.343704 0.135563 0.936533 0.323309 0.0132058 0.952898 0.303003 
-0.0223052 0.99917 0.0340946 -0.125241 0.939923 0.317585 -0.244844 0.907391 0.341604 
-0.338595 0.864427 0.371645 0.501999 0.800246 0.328029 0.657258 0.684413 0.315581 
-0.405591 0.840907 0.358289 -0.422993 0.829862 0.363877 -0.421657 0.896879 0.133467 
-0.498486 0.783964 0.370017 0.716272 0.627527 0.30523 0.824026 0.489637 0.285021 
-0.553804 0.747032 0.367757 -0.639154 0.676643 0.365563 0.836996 0.469838 0.280517 
-0.720666 0.592561 0.359879 -0.831675 0.442136 0.335906 0.911385 0.330376 0.245417 
-0.854984 0.399969 0.330192 0.956908 0.219941 0.189613 0.987322 0.0874625 0.132457 
-0.912651 0.23205 0.336484 0.988413 0.079372 0.129381 0.99501 0.0743807 0.0665018 
-0.950676 0.0277173 0.308945 0.983841 -0.0882802 0.155766 0.983633 -0.0903724 0.155881 
0.990185 -0.0867017 0.109623 -0.947696 -0.145753 0.283952 0.951955 -0.257619 0.165569 
-0.887126 -0.398589 0.232669 -0.833724 -0.50774 0.217033 0.867202 -0.473469 0.154235 
0.776221 -0.611137 0.154899 -0.761439 -0.620391 0.18795 -0.66724 -0.733154 0.13144 
0.69272 -0.703616 0.158314 0.56511 -0.815929 0.122107 -0.382677 -0.923851 -0.00765167 
-0.599794 -0.795201 0.088902 -0.52156 -0.852382 0.0376777 0.42897 -0.9018 0.0523639 
0.392 -0.918885 0.0445747 0.358974 -0.917447 -0.171547 0.228597 -0.973518 0.002517 
0.0849502 -0.995889 -0.0314268 0.00282545 -0.999379 -0.035125 -0.0811276 -0.996232 -0.0306536 
-0.16503 -0.986279 -0.00439123 -0.348722 -0.93722 -0.00348101 -0.246543 -0.969023 0.0145551 
-0.0263155 0.999627 0.0073443 0.476909 0.875376 0.0792172 0.262054 0.962102 0.0754173 
0.0647247 0.997156 0.0386081 0.0882241 0.995008 0.0466381 -0.0452821 0.998965 0.0042366 
-0.0279918 0.999463 -0.0170433 -0.130904 0.991354 -0.00904177 -0.21905 0.97571 -0.00250191 
-0.326877 0.94504 0.00716506 -0.411514 0.910722 0.0352417 0.596253 0.799612 0.0714373 
0.681807 0.728611 0.0653111 -0.420506 0.906517 0.0374316 -0.403647 0.908914 -0.104615 
-0.514006 0.856252 0.0512774 0.787865 0.613753 0.050755 0.854074 0.518732 0.0384021 
-0.633634 0.771789 0.053384 -0.67178 0.738736 0.054603 0.895085 0.445073 0.0270566 
-0.805164 0.591008 0.0491969 -0.859294 0.509493 0.0450732 0.959812 0.280144 -0.0167213 
-0.913155 0.405364 0.0427557 0.983698 0.154825 -0.0914702 -0.974945 0.22007 0.0324374 
0.98545 0.0531084 -0.161457 -0.999982 -0.00570014 0.00176253 0.977809 -0.072427 -0.196582 
-0.98138 -0.187753 -0.0405158 0.938 -0.265505 -0.222852 -0.88019 -0.461031 -0.112767 
-0.805371 -0.575039 -0.143901 0.844552 -0.480276 -0.236783 0.76517 -0.59913 -0.235708 
0.747139 -0.478252 -0.461583 -0.704452 -0.68287 -0.193481 -0.589971 -0.765522 -0.256732 
-0.525687 -0.727888 -0.440264 0.631864 -0.7323 -0.253938 0.502461 -0.816498 -0.284365 
0.465909 -0.729899 -0.500176 0.315086 -0.8774 -0.361787 -0.362323 -0.851654 -0.378691 
-0.46602 -0.823687 -0.323057 -0.436923 -0.833674 -0.337765 -0.421204 -0.82223 -0.382786 
0.25617 -0.888189 -0.381442 0.178833 -0.898707 -0.400431 0.172539 -0.87065 -0.460651 
0.0839971 -0.90076 -0.426118 0.0781805 -0.839455 -0.537776 0.0013253 -0.910213 -0.414139 
0.0138145 -0.837326 -0.546529 -0.0613686 -0.911527 -0.406635 -0.0473469 -0.85473 -0.516909 
-0.12366 -0.916004 -0.381635 -0.121929 -0.873622 -0.471081 -0.252574 -0.890824 -0.377677 
-0.236185 -0.895721 -0.376698 -0.236143 -0.886876 -0.397099 0.471033 0.852638 -0.226134 
0.2552 0.938729 -0.231651 0.0701094 0.973522 -0.217576 -0.0428028 0.973635 -0.224059 
-0.138446 0.96264 -0.232715 -0.224574 0.946484 -0.231809 -0.307048 0.921431 -0.238089 
0.568374 0.792395 -0.221497 0.684837 0.695606 -0.217095 0.454803 0.759888 -0.464462 
-0.382676 0.898243 -0.216145 -0.286237 0.824318 -0.488434 -0.392768 0.893844 -0.216277 
-0.508611 0.831219 -0.224476 0.771405 0.596254 -0.222295 0.857427 0.465773 -0.218803 
0.59348 0.558418 -0.579612 -0.598539 0.76956 -0.22255 -0.474905 0.711784 -0.517522 
-0.663672 0.713705 -0.223976 0.882687 0.415551 -0.2195 0.845212 0.411782 -0.340664 
-0.777903 0.58749 -0.222982 -0.855043 0.470177 -0.218713 0.941017 0.224146 -0.253466 
-0.893439 0.393002 -0.21752 -0.833041 0.388077 -0.394258 0.944134 0.0759096 -0.320699 
-0.950827 0.192729 -0.242455 0.914907 -0.0302722 -0.402528 -0.962673 -0.0449902 -0.266903 
0.867081 -0.154833 -0.473494 0.684359 -0.201206 -0.700835 -0.91314 -0.25465 -0.318321 
-0.743 -0.30749 -0.594476 0.798976 -0.300119 -0.52112 0.725379 -0.41518 -0.549046 
0.716173 -0.326149 -0.617028 -0.525154 -0.727484 -0.441566 -0.770121 -0.519814 -0.36974 
-0.762542 -0.528966 -0.372457 -0.762096 -0.522567 -0.382274 0.662538 -0.48114 -0.574063 
0.454452 -0.66431 -0.593435 0.468554 -0.501106 -0.727564 -0.524226 -0.727911 -0.441964 
-0.380816 -0.76752 -0.515647 -0.316199 -0.687165 -0.654081 0.364325 -0.716245 -0.595197 
0.252454 -0.756969 -0.602715 0.252643 -0.712568 -0.654537 0.128439 -0.759835 -0.637302 
0.105358 -0.689351 -0.716725 0.0653968 -0.752618 -0.655201 0.0287126 -0.661158 -0.749697 
0.0223296 -0.750736 -0.660224 0.0180226 -0.633417 -0.773601 -0.0350177 -0.773978 -0.632244 
0.00144501 -0.641628 -0.767015 -0.127981 -0.77574 -0.617938 -0.0958793 -0.677215 -0.729512 
-0.214102 -0.760177 -0.613426 -0.190888 -0.721675 -0.665392 -0.298006 -0.773586 -0.559247 
-0.291735 -0.77351 -0.562648 -0.289845 -0.770614 -0.567577 0.261902 0.721812 -0.64062 
0.0940835 0.781724 -0.616487 -0.0315305 0.790422 -0.611751 -0.114491 0.811924 -0.572425 
-0.201836 0.80537 -0.557352 0.356276 0.692029 -0.627825 0.416913 0.653802 -0.631448 
0.25489 0.637852 -0.726758 0.0969315 0.555531 -0.825827 -0.0167158 0.597535 -0.801669 
-0.0835717 0.674037 -0.733955 -0.260231 0.798671 -0.54259 -0.184759 0.738366 -0.648598 
-0.277111 0.792373 -0.543465 -0.358823 0.743631 -0.564144 0.57543 0.550852 -0.604518 
0.582434 0.547044 -0.60126 0.315187 0.416708 -0.85265 0.106564 0.316418 -0.942615 
0.0709623 0.213112 -0.974447 0.0871522 0.242762 -0.966163 0.0179488 0.285501 -0.95821 
-0.0803304 0.390173 -0.917231 -0.182612 0.462294 -0.86772 -0.466753 0.705327 -0.533531 
-0.302688 0.59257 -0.746485 -0.470638 0.70283 -0.533414 -0.607991 0.585857 -0.535835 
0.718523 0.394937 -0.572494 0.791584 0.21896 -0.570483 0.442619 0.345197 -0.827604 
0.176998 0.230791 -0.956769 0.0358873 0.201219 -0.978889 0.0195599 0.137555 -0.990301 
-0.343009 0.437941 -0.830995 -0.629663 0.562074 -0.536281 -0.596175 0.555276 -0.579866 
0.79828 0.170835 -0.57755 0.778479 0.166273 -0.605247 0.394185 0.111655 -0.912223 
-0.758037 0.373347 -0.534783 -0.489973 0.308847 -0.815193 -0.802926 0.265444 -0.533713 
0.784195 -0.0165549 -0.620294 0.743647 -0.025064 -0.668103 0.398301 -0.0675701 -0.914763 
-0.372996 0.0821161 -0.924192 -0.822155 0.156731 -0.547263 -0.777142 0.149457 -0.61132 
0.707382 -0.131518 -0.694488 0.696696 -0.141423 -0.703288 0.700294 -0.133317 -0.701295 
0.392055 -0.170169 -0.904066 0.200211 -0.183908 -0.962337 -0.35953 -0.132321 -0.923704 
-0.806886 -0.0866359 -0.584319 -0.742456 -0.263748 -0.615789 -0.752508 -0.0946763 -0.651743 
0.593532 -0.21433 -0.775746 0.403292 -0.226555 -0.886582 0.225483 -0.20076 -0.953338 
0.203931 -0.159181 -0.965957 -0.165609 -0.263094 -0.95045 -0.712129 -0.311774 -0.629023 
-0.400085 -0.322099 -0.858012 0.502372 -0.310587 -0.806944 0.446304 -0.376356 -0.811892 
0.434836 -0.303571 -0.847798 0.25986 -0.286997 -0.922012 0.186517 -0.29879 -0.935914 
0.102275 -0.360147 -0.927272 -0.0148367 -0.377571 -0.925862 -0.0689 -0.345361 -0.935937 
-0.0663592 -0.335989 -0.939525 -0.0615628 -0.32838 -0.942537 -0.0975167 -0.401011 -0.910868 
-0.292544 -0.635112 -0.714878 -0.233113 -0.480842 -0.845251 -0.494086 -0.539066 -0.682119 
-0.455068 -0.566272 -0.687204 -0.440873 -0.530949 -0.723688 0.30549 -0.489608 -0.816677 
0.242928 -0.521992 -0.817625 0.238203 -0.480075 -0.844268 0.0948003 -0.57753 -0.810847 
0.101727 -0.49452 -0.863193 0.0120259 -0.601342 -0.798901 0.0223142 -0.552278 -0.833361 
0.0120993 -0.586109 -0.810142 0.00425601 -0.563012 -0.826438 0.0132165 -0.573213 -0.8193 
0.00221044 -0.518508 -0.85507 -0.058471 -0.586993 -0.807478 -0.035187 -0.502767 -0.863706 
-0.133716 -0.6148 -0.777265 -0.102503 -0.545267 -0.831972 -0.231407 -0.646885 -0.72663 
-0.199716 -0.644018 -0.738481 -0.190003 -0.623525 -0.758364 0.0879733 0.124283 -0.988339 
0.0303623 0.260362 -0.965033 -0.0558058 0.332646 -0.941399 -0.125352 0.321478 -0.938583 
-0.181612 0.337042 -0.923807 0.159798 0.153955 -0.97507 0.0307591 0.18801 -0.981685 
0.0747243 0.118701 -0.990114 0.00834744 0.141286 -0.989934 0.0878363 0.114075 -0.989582 
0.0963084 0.132216 -0.986531 -0.00172139 0.194105 -0.980979 -0.0894231 0.243078 -0.965876 
-0.187385 0.334755 -0.923486 -0.177724 0.328721 -0.927554 -0.260002 0.273172 -0.926162 
0.210231 0.114988 -0.970866 0.152471 0.116629 -0.981402 0.00813904 0.110792 -0.99381 
-0.00799896 0.147289 -0.989061 0.0806686 0.0945113 -0.99225 0.108535 0.0549073 -0.992575 
0.0426186 0.113286 -0.992648 -0.0421597 0.125921 -0.991144 -0.105384 0.141009 -0.984383 
-0.308125 0.236296 -0.921533 -0.230094 0.20216 -0.951939 0.265742 -0.0577719 -0.962312 
0.193579 -0.152847 -0.969105 0.168139 -0.0472519 -0.98463 0.0636699 -0.0230529 -0.997705 
0.0018068 0.0648719 -0.997892 -0.00126046 -0.00903916 -0.999958 0.115313 -0.082722 -0.989879 
0.0676492 -0.0249237 -0.997398 -0.054823 -0.0421539 -0.997606 -0.0950572 -0.0161498 -0.995341 
-0.35331 0.0759372 -0.932419 -0.163514 0.0122406 -0.986465 0.177553 -0.164819 -0.970211 
0.180903 -0.146039 -0.972598 0.12326 -0.116209 -0.985547 0.00611912 -0.0403215 -0.999168 
-0.072264 -0.0101034 -0.997334 0.0950681 -0.0670869 -0.993208 0.0796031 -0.166731 -0.982784 
-0.0327296 -0.184462 -0.982295 -0.0493612 -0.133378 -0.989835 -0.283367 -0.12376 -0.950992 
-0.161206 -0.241918 -0.956812 -0.137343 -0.105748 -0.984863 0.18662 -0.15401 -0.970285 
0.105677 -0.298857 -0.948429 0.106827 -0.130721 -0.985647 -0.0161736 -0.342377 -0.939424 
-0.0284234 -0.0554517 -0.998057 -0.0606467 -0.222971 -0.972937 -0.0442502 -0.0761636 -0.996113 
-0.0549876 -0.258838 -0.964354 -0.0450334 -0.220298 -0.974393 -0.0203752 -0.235549 -0.971649 
-0.0176404 -0.229463 -0.973158 -0.126895 -0.258603 -0.957613 -0.0280135 -0.269659 -0.962548 
-0.0188945 -0.247402 -0.968729 
