# vtk DataFile Version 4.2
vtk output
ASCII
DATASET POLYDATA
POINTS 512 float
-19.2736 -29.5724 -14.9278 -12.0722 -29.5724 -15.9495 -4.87081 -29.5724 -15.4111 
2.33058 -29.5724 -14.5009 9.53198 -29.5724 -14.351 16.7334 -29.5724 -14.3156 
-26.475 -22.371 -14.8973 -19.2736 -22.371 -16.0457 -12.0722 -22.371 -16.7246 
-4.87081 -22.371 -17.1318 2.33058 -22.371 -16.5964 9.53198 -22.371 -16.2322 
16.7334 -22.371 -15.7411 23.9348 -22.371 -14.7167 -33.6764 -15.1696 -15.0179 
-26.475 -15.1696 -16.3941 -19.2736 -15.1696 -15.812 -12.0722 -15.1696 -15.7071 
-4.87081 -15.1696 -17.3466 2.33058 -15.1696 -18.8901 9.53198 -15.1696 -18.1248 
16.7334 -15.1696 -16.8214 23.9348 -15.1696 -16.0915 31.1362 -15.1696 -14.7043 
-33.6764 -7.96822 -16.2123 -26.475 -7.96822 -17.6073 -19.2736 -7.96822 -17.3445 
-12.0722 -7.96822 -16.9105 -4.87081 -7.96822 -18.3055 2.33058 -7.96822 -19.1388 
9.53198 -7.96822 -19.3238 16.7334 -7.96822 -17.623 23.9348 -7.96822 -16.8442 
31.1362 -7.96822 -16.344 38.3375 -7.96822 -14.9795 -33.6764 -0.766828 -15.7892 
-26.475 -0.766828 -17.169 -19.2736 -0.766828 -17.8194 -12.0722 -0.766828 -20.1382 
-4.87081 -0.766828 -19.6495 2.33058 -0.766828 -15.3862 9.53198 -0.766828 -17.9773 
16.7334 -0.766828 -17.696 23.9348 -0.766828 -17.4675 31.1362 -0.766828 -17.3275 
38.3375 -0.766828 -16.2703 45.5389 -0.766828 -14.272 -33.6764 6.43457 -13.7132 
-26.475 6.43457 -15.5723 -19.2736 6.43457 -15.8654 -12.0722 6.43457 -17.1727 
-4.87081 6.43457 -18.8847 2.33058 6.43457 -16.8933 9.53198 6.43457 -16.1441 
16.7334 6.43457 -16.3694 23.9348 6.43457 -17.0544 31.1362 6.43457 -17.4727 
38.3375 6.43457 -16.6253 45.5389 6.43457 -14.7753 -26.475 13.636 -14.489 
-19.2736 13.636 -16.1209 -12.0722 13.636 -17.8396 -4.87081 13.636 -18.6504 
2.33058 13.636 -16.5961 9.53198 13.636 -14.6525 16.7334 13.636 -15.1551 
23.9348 13.636 -15.9818 31.1362 13.636 -16.2219 38.3375 13.636 -15.4615 
-19.2736 20.8374 -16.0071 -12.0722 20.8374 -17.5223 -4.87081 20.8374 -17.2672 
2.33058 20.8374 -15.3457 9.53198 20.8374 -14.3555 16.7334 20.8374 -14.4439 
23.9348 20.8374 -14.4435 31.1362 20.8374 -14.2536 -12.0722 28.0387 -14.6456 
-4.87081 28.0387 -14.9257 2.33058 28.0387 -13.9429 -26.475 -36.7738 -7.71667 
-19.2736 -33.6164 -13.6018 -19.2736 -36.7738 -12.0238 -12.0722 -34.6638 -13.6018 
-12.0722 -36.7738 -12.3564 -4.87081 -33.0779 -13.6018 -4.87081 -36.7738 -11.3949 
2.33058 -31.5863 -13.6018 2.33058 -36.7738 -10.9325 9.53198 -31.2601 -13.6018 
9.53198 -36.7738 -10.5422 16.7334 -31.1399 -13.6018 16.7334 -36.7738 -9.97007 
-33.6764 -29.5724 -8.32216 -24.0666 -29.5724 -13.6018 -26.475 -27.1565 -13.6018 
-26.475 -29.5724 -12.7916 19.3631 -29.5724 -13.6018 23.9348 -25.6568 -13.6018 
23.9348 -29.5724 -12.0879 31.1362 -29.5724 -8.88033 -40.8778 -22.371 -6.81031 
-30.8882 -22.371 -13.6018 -33.6764 -19.407 -13.6018 -33.6764 -22.371 -12.5439 
28.0235 -22.371 -13.6018 31.1362 -19.2733 -13.6018 31.1362 -22.371 -12.6958 
38.3375 -22.371 -9.87737 -36.9702 -15.1696 -13.6018 -40.8778 -15.1696 -11.3958 
35.3525 -15.1696 -13.6018 38.3375 -12.49 -13.6018 38.3375 -15.1696 -12.7412 
45.5389 -15.1696 -9.09677 -39.4695 -7.96822 -13.6018 -40.8778 -7.96822 -12.7173 
42.2156 -7.96822 -13.6018 45.5389 -3.5375 -13.6018 45.5389 -7.96822 -12.3056 
-37.9726 -0.766828 -13.6018 -40.8778 -0.766828 -11.4493 46.5292 -0.766828 -13.6018 
52.7403 -0.766828 -7.17731 -33.8799 6.43457 -13.6018 -40.8778 6.43457 -8.38606 
-33.6764 6.78026 -13.6018 47.4111 6.43457 -13.6018 45.5389 11.8171 -13.6018 
52.7403 6.43457 -8.19626 -28.4912 13.636 -13.6018 -33.6764 13.636 -11.0112 
-26.475 18.0427 -13.6018 44.1458 13.636 -13.6018 38.3375 18.8979 -13.6018 
45.5389 13.636 -13.1205 -33.6764 20.8374 -7.67583 -25.1421 20.8374 -13.6018 
-26.475 20.8374 -12.9377 -19.2736 26.2298 -13.6018 9.53198 24.8143 -13.6018 
16.7334 24.262 -13.6018 23.9348 22.9002 -13.6018 34.4702 20.8374 -13.6018 
31.1362 22.236 -13.6018 38.3375 20.8374 -12.8657 45.5389 20.8374 -8.15872 
-26.475 28.0387 -8.4536 -16.0271 28.0387 -13.6018 -19.2736 28.0387 -12.6117 
-12.0722 29.9097 -13.6018 -4.87081 30.8249 -13.6018 4.83485 28.0387 -13.6018 
2.33058 28.8865 -13.6018 9.53198 28.0387 -12.9812 16.7334 28.0387 -12.4831 
23.9348 28.0387 -11.22 31.1362 28.0387 -10.2977 -19.2736 35.2401 -7.83974 
-12.0722 35.2401 -10.4035 -4.87081 35.2401 -11.3291 2.33058 35.2401 -10.7982 
9.53198 35.2401 -9.91543 16.7334 35.2401 -7.55002 -26.475 -37.9623 -6.40039 
-19.2736 -41.1495 -6.40039 -12.0722 -41.8228 -6.40039 -4.87081 -41.4445 -6.40039 
-4.87081 -43.9752 0.547794 2.33058 -41.4292 -6.40039 2.33058 -43.9752 -0.76514 
9.53198 -40.6883 -6.40039 16.7334 -39.7206 -6.40039 -28.1849 -36.7738 -6.40039 
-33.6764 -31.9297 -6.40039 23.4915 -36.7738 -6.40039 23.9348 -36.5271 -6.40039 
23.9348 -36.7738 -3.62826 31.1362 -31.7851 -6.40039 -35.7076 -29.5724 -6.40039 
-40.8778 -22.8862 -6.40039 34.0984 -29.5724 -6.40039 38.3375 -26.1259 -6.40039 
-41.2344 -22.371 -6.40039 42.366 -22.371 -6.40039 45.5389 -18.7793 -6.40039 
-44.7379 -15.1696 -6.40039 48.6931 -15.1696 -6.40039 -45.7065 -7.96822 -6.40039 
51.6426 -7.96822 -6.40039 52.7403 -3.40733 -6.40039 52.7403 -7.96822 -1.23352 
-45.033 -0.766828 -6.40039 -48.0792 -0.766828 0.235913 53.347 -0.766828 -6.40039 
-42.6671 6.43457 -6.40039 -40.8778 10.256 -6.40039 54.1295 6.43457 -6.40039 
52.7403 10.9057 -6.40039 -39.099 13.636 -6.40039 -40.8778 13.636 -3.81167 
51.9551 13.636 -6.40039 -34.9997 20.8374 -6.40039 -33.6764 22.5632 -6.40039 
38.3375 27.7262 -6.40039 47.3376 20.8374 -6.40039 45.5389 22.5091 -6.40039 
-28.9741 28.0387 -6.40039 -33.6764 28.0387 -1.24587 -26.475 30.6124 -6.40039 
23.9348 33.53 -6.40039 37.716 28.0387 -6.40039 31.1362 31.1013 -6.40039 
-21.4177 35.2401 -6.40039 -26.475 35.2401 -2.52771 -19.2736 37.4104 -6.40039 
-12.0722 40.4383 -6.40039 -4.87081 41.844 -6.40039 2.33058 40.5204 -6.40039 
9.53198 38.3566 -6.40039 19.527 35.2401 -6.40039 16.7334 36.1842 -6.40039 
-19.2736 42.4415 -1.82121 -12.0722 42.4415 -4.31278 -4.87081 42.4415 -5.6894 
2.33058 42.4415 -2.4036 -4.87081 -44.0521 0.801008 2.33058 -44.5108 0.801008 
-26.475 -39.644 0.801008 -19.2736 -42.4381 0.801008 -5.98924 -43.9752 0.801008 
-12.0722 -43.5534 0.801008 -4.87081 -43.9752 1.13358 6.14914 -43.9752 0.801008 
2.33058 -43.9752 2.63221 9.53198 -43.4767 0.801008 16.7334 -41.2014 0.801008 
23.9348 -37.1198 0.801008 -30.7759 -36.7738 0.801008 -33.6764 -34.4008 0.801008 
24.4521 -36.7738 0.801008 23.9348 -36.7738 1.34017 31.1362 -32.5313 0.801008 
-38.2444 -29.5724 0.801008 -40.8778 -26.1456 0.801008 36.1076 -29.5724 0.801008 
31.1362 -29.5724 5.21398 38.3375 -28.1087 0.801008 -43.4268 -22.371 0.801008 
44.8567 -22.371 0.801008 45.5389 -21.6481 0.801008 -46.6255 -15.1696 0.801008 
50.2481 -15.1696 0.801008 52.7403 -8.99819 0.801008 -47.9443 -7.96822 0.801008 
-48.0792 -5.09836 0.801008 53.1492 -7.96822 0.801008 52.7403 -7.96822 1.49038 
-48.2793 -0.766828 0.801008 -48.0792 0.0336524 0.801008 -48.0792 -0.766828 3.26847 
54.2351 -0.766828 0.801008 52.7403 -0.766828 3.03175 -46.2787 6.43457 0.801008 
54.5495 6.43457 0.801008 52.7403 12.1138 0.801008 52.7403 6.43457 3.42259 
-43.4031 13.636 0.801008 -40.8778 18.9304 0.801008 52.268 13.636 0.801008 
-39.8423 20.8374 0.801008 -40.8778 20.8374 6.12875 38.3375 27.3526 0.801008 
47.4996 20.8374 0.801008 45.5389 22.8893 0.801008 45.5389 20.8374 2.71332 
-35.1139 28.0387 0.801008 -33.6764 30.2005 0.801008 23.9348 34.1747 0.801008 
23.9348 28.0387 6.93224 37.0707 28.0387 0.801008 31.1362 31.5693 0.801008 
31.1362 28.0387 4.73925 -29.8606 35.2401 0.801008 -26.475 39.3225 0.801008 
9.53198 40.5747 0.801008 21.8382 35.2401 0.801008 16.7334 37.3513 0.801008 
16.7334 35.2401 4.32461 -22.597 42.4415 0.801008 -19.2736 44.1536 0.801008 
-12.0722 46.0383 0.801008 -4.87081 46.117 0.801008 5.26128 42.4415 0.801008 
2.33058 43.6886 0.801008 2.33058 42.4415 4.20347 -26.475 -37.5316 8.0024 
-19.2736 -40.1361 8.0024 -12.0722 -41.3886 8.0024 -4.87081 -41.9852 8.0024 
2.33058 -41.7648 8.0024 9.53198 -39.7007 8.0024 16.7334 -37.3723 8.0024 
-27.6511 -36.7738 8.0024 -33.6764 -32.044 8.0024 -26.475 -36.7738 9.03865 
-19.2736 -36.7738 12.0088 -12.0722 -36.7738 12.914 -4.87081 -36.7738 12.87 
2.33058 -36.7738 12.1687 9.53198 -36.7738 10.2392 17.6327 -36.7738 8.0024 
16.7334 -36.7738 8.56786 23.9348 -30.9292 8.0024 -36.0616 -29.5724 8.0024 
-40.8778 -23.2869 8.0024 -33.6764 -29.5724 10.7445 2.33058 -29.5724 14.3174 
9.53198 -29.5724 13.0329 16.7334 -29.5724 11.2786 26.3473 -29.5724 8.0024 
23.9348 -29.5724 8.93695 31.1362 -26.7432 8.0024 38.3375 -22.9165 8.0024 
-41.4823 -22.371 8.0024 -40.8778 -22.371 8.82832 -33.6764 -22.371 14.7745 
2.33058 -22.371 14.6135 9.53198 -22.371 13.9129 16.7334 -22.371 13.0252 
23.9348 -22.371 11.891 31.1362 -22.371 10.961 38.9515 -22.371 8.0024 
38.3375 -22.371 8.43154 45.5389 -15.2738 8.0024 -44.9221 -15.1696 8.0024 
-40.8778 -15.1696 12.735 2.33058 -15.1696 13.4816 9.53198 -15.1696 14.2454 
16.7334 -15.1696 13.8786 23.9348 -15.1696 13.4221 31.1362 -15.1696 12.7173 
38.3375 -15.1696 11.1505 45.6298 -15.1696 8.0024 45.5389 -15.1696 8.06613 
-47.2144 -7.96822 8.0024 16.7334 -7.96822 13.5857 23.9348 -7.96822 14.0182 
31.1362 -7.96822 13.5931 38.3375 -7.96822 12.241 48.0067 -7.96822 8.0024 
45.5389 -7.96822 9.80478 -47.6683 -0.766828 8.0024 2.33058 -0.766828 14.4889 
9.53198 -0.766828 15.0605 16.7334 -0.766828 13.4322 23.9348 -0.766828 13.6594 
31.1362 -0.766828 13.5608 38.3375 -0.766828 12.6418 49.0274 -0.766828 8.0024 
45.5389 -0.766828 10.6227 -46.7662 6.43457 8.0024 -4.87081 6.43457 14.6581 
9.53198 6.43457 14.0657 16.7334 6.43457 12.8699 23.9348 6.43457 13.6997 
31.1362 6.43457 13.5738 38.3375 6.43457 12.4173 48.861 6.43457 8.0024 
45.5389 6.43457 10.2759 -44.669 13.636 8.0024 -4.87081 13.636 14.6004 
9.53198 13.636 14.6269 16.7334 13.636 11.9204 23.9348 13.636 12.2984 
31.1362 13.636 11.9288 38.3375 13.636 10.7985 46.1176 13.636 8.0024 
45.5389 14.2004 8.0024 45.5389 13.636 8.29701 -41.2126 20.8374 8.0024 
-40.8778 21.3733 8.0024 -40.8778 20.8374 8.91231 9.53198 20.8374 13.643 
[...]
POINT_DATA 512
SCALARS ImageScalars float
LOOKUP_TABLE default
0 0 0 0 0 0 0 0 0 
0 0 0 0 0 0 0 0 0 
0 0 0 0 0 0 0 0 0 
0 0 0 0 0 0 0 0 0 
0 0 0 0 0 0 0 0 0 
0 0 0 0 0 0 0 0 0 
0 0 0 0 0 0 0 0 0 
0 0 0 0 0 0 0 0 0 
0 0 0 0 0 0 0 0 0 
0 0 0 0 0 0 0 0 0 
0 0 0 0 0 0 0 0 0 
0 0 0 0 0 0 0 0 0 
0 0 0 0 0 0 0 0 0 
0 0 0 0 0 0 0 0 0 
0 0 0 0 0 0 0 0 0 
0 0 0 0 0 0 0 0 0 
0 0 0 0 0 0 0 0 0 
0 0 0 0 0 0 0 0 0 
0 0 0 0 0 0 0 0 0 
0 0 0 0 0 0 0 0 0 
0 0 0 0 0 0 0 0 0 
0 0 0 0 0 0 0 0 0 
0 0 0 0 0 0 0 0 0 
0 0 0 0 0 0 0 0 0 
0 0 0 0 0 0 0 0 0 
0 0 0 0 0 0 0 0 0 
0 0 0 0 0 0 0 0 0 
0 0 0 0 0 0 0 0 0 
0 0 0 0 0 0 0 0 0 
0 0 0 0 0 0 0 0 0 
0 0 0 0 0 0 0 0 0 
0 0 0 0 0 0 0 0 0 
0 0 0 0 0 0 0 0 0 
0 0 0 0 0 0 0 0 0 
0 0 0 0 0 0 0 0 0 
0 0 0 0 0 0 0 0 0 
0 0 0 0 0 0 0 0 0 
0 0 0 0 0 0 0 0 0 
0 0 0 0 0 0 0 0 0 
0 0 0 0 0 0 0 0 0 
0 0 0 0 0 0 0 0 0 
0 0 0 0 0 0 0 0 0 
0 0 0 0 0 0 0 0 0 
0 0 0 0 0 0 0 0 0 
0 0 0 0 0 0 0 0 0 
0 0 0 0 0 0 0 0 0 
0 0 0 0 0 0 0 0 0 
0 0 0 0 0 0 0 0 0 
0 0 0 0 0 0 0 0 0 
0 0 0 0 0 0 0 0 0 
0 0 0 0 0 0 0 0 0 
0 0 0 0 0 0 0 0 0 
0 0 0 0 0 0 0 0 0 
0 0 0 0 0 0 0 0 0 
0 0 0 0 0 0 0 0 0 
0 0 0 0 0 0 0 0 0 
0 0 0 0 0 0 0 0 
NORMALS Normals float
0.194857 0.234049 0.952498 0.0409678 0.256748 0.96561 -0.0959096 0.333765 0.937764 
-0.0665013 0.343449 0.936814 -0.0121156 0.332462 0.943039 -0.132359 0.323304 0.936993 
0.209999 0.219627 0.952714 0.134457 0.06622 0.988704 0.0740333 -0.0199457 0.997056 
-0.00782086 0.121168 0.992601 -0.0616533 0.287583 0.955769 -0.0567821 0.24249 0.968491 
-0.100636 0.172474 0.97986 -0.19225 0.252079 0.948418 0.287893 0.230065 0.929617 
0.0437248 0.194538 0.97992 -0.0463777 0.0835729 0.995422 0.0965671 -0.00424989 0.995317 
0.227515 0.0756598 0.970831 0.0492582 0.17325 0.983645 -0.141955 0.21631 0.96595 
-0.13683 0.126918 0.98243 -0.139014 0.138452 0.980564 -0.217805 0.230444 0.948397 
0.292754 0.0461534 0.955073 0.0748962 0.0538468 0.995736 -0.0432475 0.14079 0.989094 
0.0636857 0.30198 0.951185 0.142003 0.14638 0.978983 0.0666498 -0.217351 0.973815 
-0.105475 -0.0108159 0.994363 -0.171209 0.0597214 0.983423 -0.087948 0.0984825 0.991245 
-0.121031 0.179866 0.976217 -0.258821 0.231759 0.93771 0.322198 -0.172611 0.930803 
0.135135 -0.144519 0.980231 0.176798 -0.106301 0.97849 0.132507 -0.0133553 0.991092 
-0.309077 0.0313947 0.950519 -0.0660721 -0.153443 0.985946 0.135826 -0.220526 0.965878 
-0.0347337 -0.0864526 0.99565 -0.0255007 0.0140462 0.999576 -0.0825142 0.0751488 0.993753 
-0.213677 0.106145 0.971121 -0.466053 0.152502 0.871515 0.382812 -0.28428 0.878999 
0.14435 -0.169564 0.97489 0.104294 -0.107103 0.988763 0.219093 -0.133008 0.966596 
-0.024466 -0.0592025 0.997946 -0.193702 0.0720796 0.978409 -0.0346863 -0.224944 0.973754 
0.0629481 -0.173574 0.982807 0.0747854 -0.0983796 0.992335 -0.0310622 -0.0729122 0.996855 
-0.188451 -0.0481709 0.9809 -0.431019 -0.0712363 0.899527 0.306553 -0.164713 0.937494 
0.215831 0.0101407 0.976378 0.175119 0.02176 0.984307 -0.0814883 -0.108721 0.990727 
-0.281622 -0.106224 0.953628 -0.0895563 -0.120156 0.988707 0.0882724 -0.133091 0.987165 
0.0737398 -0.178607 0.981153 -0.0325961 -0.201093 0.97903 -0.205119 -0.246149 0.947279 
0.293294 -0.204739 0.933842 0.0834879 -0.200657 0.976098 -0.146318 -0.25006 0.957111 
-0.194078 -0.170679 0.966024 -0.0606294 -0.113349 0.991704 0.00591808 -0.172043 0.985072 
-0.0108685 -0.288802 0.957327 -0.107405 -0.365402 0.924633 0.133564 -0.444408 0.885812 
-0.0460514 -0.369283 0.928175 -0.128402 -0.279211 0.951606 0.478394 0.701395 0.528379 
0.207033 0.408306 0.889058 0.225085 0.598195 0.76909 -0.0274349 0.494555 0.868713 
-0.0381468 0.623796 0.780656 -0.0955433 0.478011 0.873142 -0.0805334 0.647348 0.757928 
-0.0577532 0.400035 0.914678 -0.0465375 0.594948 0.802416 -0.0133439 0.39166 0.920013 
-0.0529284 0.64647 0.761101 -0.143261 0.371881 0.917159 -0.212299 0.682846 0.699035 
0.609347 0.529404 0.590278 0.30282 0.321903 0.897039 0.308229 0.317885 0.896629 
0.366467 0.379911 0.849335 -0.189944 0.356445 0.914805 -0.236336 0.329203 0.914205 
-0.313853 0.463669 0.828558 -0.501838 0.644641 0.576713 0.724801 0.485701 0.488628 
0.33107 0.300198 0.89458 0.358324 0.301292 0.883644 0.422076 0.364857 0.829898 
-0.242107 0.288258 0.92644 -0.255443 0.275382 0.926776 -0.297147 0.332298 0.895144 
-0.463263 0.529101 0.710942 0.419639 0.252673 0.871814 0.637664 0.278218 0.718317 
-0.281882 0.267011 0.921546 -0.300578 0.27231 0.914057 -0.339767 0.304622 0.889811 
-0.575045 0.464869 0.673217 0.556544 0.0172262 0.830639 0.641446 0.00554991 0.767148 
-0.329568 0.268854 0.905043 -0.443918 0.208429 0.87149 -0.439126 0.295511 0.848435 
0.506809 -0.203533 0.837687 0.660567 -0.220197 0.71775 -0.510353 0.145075 0.84764 
-0.872483 0.146236 0.46625 0.389872 -0.285921 0.875357 0.689441 -0.31891 0.650359 
0.388245 -0.285252 0.876297 -0.518284 -0.0461697 0.853962 -0.386845 -0.259844 0.884778 
-0.867247 -0.0608511 0.494145 0.359103 -0.205923 0.910297 0.521982 -0.31522 0.792573 
0.395917 -0.261888 0.88015 -0.332099 -0.307204 0.891816 -0.256174 -0.391018 0.884013 
-0.387133 -0.327102 0.862051 0.620885 -0.443701 0.646244 0.420999 -0.301267 0.855569 
0.453465 -0.328201 0.828645 0.325499 -0.419236 0.847521 -0.0751905 -0.180017 0.980786 
-0.0440829 -0.259442 0.964752 -0.042319 -0.346531 0.937084 -0.192619 -0.404965 0.893813 
-0.128155 -0.414167 0.901134 -0.290882 -0.467843 0.834572 -0.61543 -0.647981 0.448739 
0.5051 -0.521878 0.687399 0.245191 -0.46991 0.847978 0.337571 -0.485218 0.806604 
0.150789 -0.473925 0.867559 -0.0191141 -0.422516 0.906154 -0.115046 -0.264329 0.957546 
-0.118428 -0.304903 0.944992 -0.0966085 -0.248496 0.963803 -0.112205 -0.390462 0.913756 
-0.13379 -0.57943 0.803966 -0.26706 -0.700048 0.662277 0.399136 -0.517415 0.75695 
0.195149 -0.549912 0.812104 0.0216003 -0.522153 0.852578 -0.0782976 -0.545836 0.834226 
-0.186035 -0.645604 0.740666 -0.28487 -0.786705 0.547671 0.481964 0.758916 0.4379 
0.218822 0.886202 0.408365 0.0202854 0.896623 0.44233 -0.0250125 0.844392 0.535142 
0.0651173 0.996587 0.0507275 -0.0447332 0.791372 0.609696 -0.0395952 0.990191 0.133996 
-0.10498 0.816924 0.56711 -0.257078 0.862523 0.435849 0.526986 0.728706 0.437349 
0.643564 0.615447 0.455029 -0.462163 0.804395 0.373301 -0.473295 0.799129 0.370654 
-0.525374 0.839591 0.138092 -0.542336 0.744198 0.389925 0.670584 0.57156 0.472903 
0.732256 0.496248 0.466411 -0.551299 0.71933 0.42265 -0.571927 0.670891 0.472022 
0.737845 0.486452 0.46792 -0.64377 0.618961 0.449942 -0.659641 0.582727 0.474661 
0.862072 0.249796 0.440948 -0.732112 0.484446 0.478878 0.890373 0.0225365 0.454673 
-0.879625 0.258469 0.399316 -0.895049 0.190003 0.403466 -0.964204 0.262917 -0.0344334 
0.831824 -0.179205 0.525314 0.978719 -0.111886 0.17202 -0.894237 0.155865 0.41958 
0.759439 -0.314316 0.569613 0.731359 -0.347226 0.586982 -0.920213 -0.0986671 0.378779 
-0.921492 -0.25036 0.296938 0.703677 -0.368198 0.607675 0.783833 -0.382175 0.489436 
-0.901804 -0.342365 0.263698 0.653553 -0.457225 0.60317 0.633791 -0.474367 0.61097 
-0.462751 -0.829729 0.312109 -0.676395 -0.662143 0.322579 -0.631369 -0.706167 0.320471 
0.561145 -0.530867 0.635056 0.722264 -0.532556 0.44127 0.527064 -0.528741 0.66531 
-0.307623 -0.853827 0.419938 -0.455674 -0.833448 0.312611 -0.349466 -0.854493 0.384338 
0.451982 -0.516653 0.727174 0.604362 -0.548085 0.578229 0.38982 -0.559961 0.731084 
0.17747 -0.657883 0.731912 -0.00349987 -0.7197 0.694277 -0.191406 -0.765469 0.614346 
-0.263256 -0.813486 0.518592 -0.306082 -0.844009 0.440412 -0.294977 -0.840895 0.453744 
0.35821 -0.780011 0.513097 0.163215 -0.768498 0.618686 -0.0209191 -0.765016 0.643671 
-0.313318 -0.912888 0.261663 0.0672181 0.997097 0.0357719 -0.038536 0.999079 0.0188663 
0.468969 0.882474 -0.0361623 0.252424 0.965887 -0.057826 0.0735464 0.99691 0.0275873 
0.108188 0.993921 -0.0203806 0.0664879 0.997672 0.0151414 -0.132126 0.991194 0.00880662 
-0.0502255 0.992954 -0.107334 -0.218111 0.975855 -0.0116268 -0.390952 0.911828 -0.125408 
-0.544071 0.809027 -0.222402 0.588726 0.807962 -0.0245021 0.667997 0.744061 -0.0124091 
-0.545485 0.807281 -0.225262 -0.54716 0.795412 -0.260645 -0.512123 0.830458 -0.219249 
0.757674 0.652547 0.01066 0.817834 0.575376 0.00951696 -0.553225 0.814262 -0.175838 
-0.433467 0.724763 -0.53556 -0.588819 0.793339 -0.154612 0.868818 0.495123 0.00304503 
-0.714218 0.686232 -0.13776 -0.730399 0.669275 -0.136337 0.959396 0.281708 0.0141707 
-0.865894 0.479979 -0.140883 -0.941668 0.286811 -0.17607 0.98981 0.10984 0.090621 
0.993354 0.0269023 0.111908 -0.948913 0.258727 -0.18062 -0.941386 0.247733 -0.228957 
0.983803 -0.107627 0.143344 0.97989 -0.12988 0.151484 0.99648 -0.0838309 0.000821283 
-0.96447 0.0931643 -0.24722 -0.914465 0.0787125 -0.396937 0.927786 -0.295263 0.228109 
-0.9486 -0.135194 -0.286149 -0.92813 -0.307476 -0.209841 -0.884696 -0.0945861 -0.456471 
0.873926 -0.379122 0.304171 0.832227 -0.457554 0.313118 -0.912016 -0.357344 -0.201327 
0.813249 -0.486635 0.319081 0.865053 -0.501318 0.0190662 -0.435041 -0.83025 -0.348458 
-0.689631 -0.652039 -0.315046 -0.638257 -0.711493 -0.293949 -0.629794 -0.631731 -0.451969 
0.764111 -0.537955 0.356005 0.751135 -0.55272 0.360966 -0.371017 -0.88212 -0.290192 
-0.266121 -0.55896 -0.78533 -0.425061 -0.835535 -0.348144 -0.390113 -0.874925 -0.28691 
-0.352228 -0.676196 -0.647067 0.705126 -0.583163 0.403383 0.646011 -0.653005 0.395291 
-0.420074 -0.902861 -0.0915437 -0.377789 -0.890894 -0.252158 -0.395449 -0.897929 -0.193247 
-0.39171 -0.78603 -0.478247 0.503805 -0.781312 0.368419 0.366188 -0.852275 0.373542 
0.134431 -0.946434 0.293582 -0.149467 -0.978771 0.14024 -0.386319 -0.922152 -0.0198447 
-0.367786 -0.929776 0.0158406 -0.43274 -0.875949 -0.21319 0.430964 0.788968 -0.437948 
0.22781 0.845263 -0.483356 0.112359 0.857877 -0.501421 0.0250646 0.852636 -0.521904 
-0.109501 0.795191 -0.596389 -0.251161 0.673353 -0.695352 -0.375454 0.624667 -0.684708 
0.462069 0.774084 -0.432766 0.62614 0.661506 -0.412746 0.420252 0.763004 -0.491135 
0.181107 0.703544 -0.687187 0.0446583 0.625206 -0.779181 -0.0473972 0.517785 -0.854197 
-0.161149 0.478078 -0.863408 -0.227975 0.516904 -0.825129 -0.391076 0.605053 -0.69352 
-0.371632 0.587651 -0.718718 -0.368647 0.523879 -0.767887 0.674627 0.612251 -0.412343 
0.763702 0.494516 -0.414985 0.596152 0.566923 -0.568508 -0.175621 0.1534 -0.972433 
-0.197956 0.216976 -0.955895 -0.259837 0.2809 -0.923894 -0.348636 0.546304 -0.761581 
-0.32639 0.489426 -0.808661 -0.326025 0.564189 -0.75855 -0.455985 0.533329 -0.712487 
0.773695 0.476669 -0.417353 0.752246 0.469968 -0.461796 0.419708 0.288637 -0.860543 
-0.128071 -0.0586777 -0.990028 -0.107634 0.0830363 -0.990717 -0.135386 0.174111 -0.975375 
-0.131121 0.279983 -0.951008 -0.221282 0.409145 -0.885231 -0.468523 0.523132 -0.711912 
-0.447393 0.507756 -0.736222 -0.519592 0.410503 -0.749341 0.836622 0.346648 -0.424146 
0.628959 0.335958 -0.701101 -0.069055 0.0355679 -0.996979 0.027814 0.0989417 -0.994704 
-0.0570529 0.0375241 -0.997666 -0.0778514 0.140209 -0.987056 -0.143622 0.159764 -0.976652 
-0.310703 0.246715 -0.91793 -0.521625 0.406973 -0.749853 -0.517591 0.405862 -0.753244 
0.937342 0.167295 -0.305619 -0.0887565 -0.0307982 -0.995577 0.000991634 0.0159723 -0.999872 
-0.120415 0.0547532 -0.991213 -0.252719 0.0925053 -0.963107 -0.6101 0.168149 -0.774276 
-0.48413 0.170994 -0.858125 0.962141 -0.033105 -0.270535 -0.159759 0.0306454 -0.98668 
-0.0844247 -0.0925483 -0.992123 -0.0884944 -0.0492035 -0.994861 0.00894151 -0.0220596 -0.999717 
-0.0722926 -0.00130917 -0.997383 -0.206786 0.0116579 -0.978317 -0.654129 0.0434845 -0.755132 
-0.46087 0.0305747 -0.886941 0.969041 -0.196808 -0.149087 -0.063914 -0.180719 -0.981456 
-0.205391 -0.0354582 -0.978037 -0.0206303 -0.105386 -0.994217 0.0497995 -0.0931583 -0.994405 
-0.0878481 -0.107226 -0.990346 -0.223294 -0.114935 -0.967951 -0.612532 -0.105713 -0.783345 
-0.445668 -0.156365 -0.881437 0.938382 -0.336339 -0.0794729 0.0528614 0.0678406 -0.996295 
-0.368442 -0.0263423 -0.929278 -0.12488 -0.117971 -0.985133 0.00146846 -0.217535 -0.976052 
-0.0933828 -0.265976 -0.959446 -0.241886 -0.290624 -0.925758 -0.41544 -0.372412 -0.829891 
-0.397196 -0.385797 -0.832704 -0.388799 -0.372426 -0.842695 0.864739 -0.496243 -0.0772601 
0.860888 -0.503076 -0.0760703 0.858704 -0.494816 -0.13336 -0.315599 -0.173699 -0.932859 
-0.196079 -0.173816 -0.96506 -0.217818 -0.472564 -0.853955 -0.115027 -0.324398 -0.938901 
-0.210475 -0.454574 -0.865484 -0.164651 -0.410764 -0.896751 -0.302788 -0.493441 -0.815375 
-0.30092 -0.494542 -0.815399 -0.300507 -0.492904 -0.816542 0.820194 -0.56458 -0.0923694 
0.798521 -0.595614 -0.0872238 0.651821 -0.548384 -0.523836 -0.264667 -0.192269 -0.944978 
-0.329509 -0.301948 -0.894568 -0.265427 -0.450648 -0.852329 -0.319562 -0.45788 -0.829594 
-0.29289 -0.340352 -0.893519 0.762747 -0.638252 -0.10417 0.645152 -0.749739 -0.147212 
0.466172 -0.49869 -0.730747 -0.279589 -0.255208 -0.92558 -0.466419 -0.696288 -0.54556 
-0.393135 -0.391734 -0.831859 -0.390112 -0.562368 -0.729078 -0.396138 -0.563591 -0.724872 
-0.393683 -0.553868 -0.733651 0.568307 -0.808474 -0.15296 0.321792 -0.925544 -0.199545 
0.254869 -0.731628 -0.632267 -0.0421899 -0.951482 -0.304798 -0.104096 -0.6634 -0.740989 
-0.426144 -0.768402 -0.477452 -0.307221 -0.855389 -0.417043 -0.335123 -0.678523 -0.653681 
0.294311 0.420964 -0.858004 0.110726 0.467869 -0.876834 -0.0295145 0.430531 -0.902093 
-0.146837 0.232516 -0.961444 0.299816 0.417666 -0.857709 0.293018 0.415404 -0.86115 
0.0903744 0.358349 -0.929203 -0.0694461 0.303938 -0.950157 -0.169699 0.172293 -0.970318 
-0.16521 0.186249 -0.968513 0.38428 0.264446 -0.884532 0.386217 0.262484 -0.884273 
0.236534 0.166724 -0.957212 0.0304727 0.107699 -0.993716 -0.161664 0.0587554 -0.985095 
-0.180498 -0.0423157 -0.982665 -0.233809 -0.022523 -0.972022 0.411568 0.2495 -0.876562 
0.489785 0.239885 -0.838192 0.289356 0.206697 -0.934639 0.113421 0.0681543 -0.991207 
-0.0150487 -0.060371 -0.998063 -0.192285 -0.086758 -0.977497 -0.285997 0.0268763 -0.957853 
-0.294713 0.025497 -0.955246 -0.0594736 0.0847123 -0.994629 -0.104157 0.0693976 -0.992137 
0.506013 0.220701 -0.833812 0.466808 0.219175 -0.856769 0.188309 0.188361 -0.963877 
-0.038319 0.089327 -0.995265 -0.128152 -0.0269973 -0.991387 -0.0821924 -0.0902 -0.992526 
-0.0835117 0.13528 -0.987282 -0.083824 0.0740553 -0.993725 -0.0574248 0.0898143 -0.994302 
-0.130145 0.0500384 -0.990232 -0.105326 -0.0324801 -0.993907 -0.136344 0.0624543 -0.988691 
0.646465 0.0863672 -0.75804 0.521629 0.107736 -0.846343 0.139834 0.108153 -0.984251 
-0.0903773 0.119284 -0.988738 -0.195315 0.0999114 -0.975638 -0.0505674 0.00311358 -0.998716 
-0.157931 -0.00621738 -0.987431 -0.0771018 -0.169585 -0.982495 -0.109094 -0.104328 -0.988541 
-0.0989548 0.10503 -0.989534 0.706625 -0.069493 -0.704167 0.547259 -0.0455965 -0.835721 
0.180952 0.0570644 -0.981835 -0.0526744 0.0644228 -0.996532 -0.232342 0.0482552 -0.971436 
-0.126554 -0.142158 -0.98172 -0.284409 -0.016147 -0.958567 -0.0533246 -0.0187959 -0.9984 
-0.103246 0.10231 -0.98938 -0.0395322 0.162359 -0.98594 0.725479 -0.278884 -0.62921 
0.715995 -0.320615 -0.620127 0.681808 -0.265271 -0.68174 0.252926 -0.111937 -0.960988 
-0.0950244 -0.0850625 -0.991834 -0.2734 -0.0415106 -0.961004 -0.0800389 0.0387781 -0.996037 
-0.27656 0.00415367 -0.960988 0.0428423 0.0449825 -0.998069 -0.0190933 0.0792425 -0.996673 
-0.287059 -0.0217476 -0.957666 0.0214658 -0.0193645 -0.999582 0.641829 -0.420021 -0.64159 
0.532652 -0.486997 -0.692181 0.34459 -0.336652 -0.876312 0.00915355 -0.183282 -0.983018 
-0.148978 -0.0227854 -0.988578 -0.194441 0.0589193 -0.979143 -0.0719662 0.0890381 -0.993425 
-0.164987 -0.16634 -0.972168 -0.171157 -0.168148 -0.970789 -0.12027 -0.160405 -0.979697 
0.466087 -0.463225 -0.753781 0.364656 -0.412008 -0.83503 0.231506 -0.298401 -0.925939 
-0.0252648 -0.060524 -0.997847 -0.161954 -0.00226364 -0.986796 -0.214339 -0.108 -0.97077 
-0.264901 -0.224378 -0.937807 -0.168304 -0.0343352 -0.985137 0.343762 -0.412884 -0.843419 
0.203735 -0.5081 -0.836855 0.1408 -0.34676 -0.927326 -0.269359 -0.247127 -0.930792 
-0.117978 -0.490974 -0.863149 -0.138128 -0.169646 -0.975777 
