# vtk DataFile Version 4.2
vtk output
ASCII
DATASET POLYDATA
POINTS 526 float
30.1737 7.90318 -21.056 -23.089 -37.7506 -16.135 -15.4801 -37.7506 -17.6054 
-7.87111 -37.7506 -17.9253 -0.262147 -37.7506 -17.104 7.34682 -37.7506 -16.5097 
14.9558 -37.7506 -16.3385 22.5647 -37.7506 -16.2092 30.1737 -37.7506 -14.5335 
-30.698 -30.1416 -14.3219 -23.089 -30.1416 -17.9025 -15.4801 -30.1416 -19.6957 
-7.87111 -30.1416 -20.0973 -0.262147 -30.1416 -19.2244 7.34682 -30.1416 -18.4133 
14.9558 -30.1416 -18.6932 22.5647 -30.1416 -18.6876 30.1737 -30.1416 -18.7984 
37.7827 -30.1416 -15.4375 -30.698 -22.5327 -15.8451 -23.089 -22.5327 -18.2703 
-15.4801 -22.5327 -19.7725 -7.87111 -22.5327 -20.5962 -0.262147 -22.5327 -19.6095 
7.34682 -22.5327 -18.7353 14.9558 -22.5327 -19.0057 22.5647 -22.5327 -18.8018 
30.1737 -22.5327 -18.6654 37.7827 -22.5327 -18.226 45.3916 -22.5327 -13.6065 
-30.698 -14.9237 -15.5855 -23.089 -14.9237 -17.0399 -15.4801 -14.9237 -18.7448 
-7.87111 -14.9237 -19.7734 -0.262147 -14.9237 -20.0728 7.34682 -14.9237 -18.5488 
14.9558 -14.9237 -17.3926 22.5647 -14.9237 -18.4695 30.1737 -14.9237 -18.5952 
37.7827 -14.9237 -18.1549 45.3916 -14.9237 -16.6891 -38.307 -7.31475 -15.1484 
-30.698 -7.31475 -16.1443 -23.089 -7.31475 -16.594 -15.4801 -7.31475 -17.0558 
-7.87111 -7.31475 -18.5057 -0.262147 -7.31475 -19.1626 7.34682 -7.31475 -19.8148 
14.9558 -7.31475 -16.2324 22.5647 -7.31475 -17.7642 30.1737 -7.31475 -19.023 
37.7827 -7.31475 -19.1107 45.3916 -7.31475 -17.404 -45.9159 0.294213 -13.8329 
-38.307 0.294213 -16.0652 -30.698 0.294213 -16.8769 -23.089 0.294213 -16.0739 
-15.4801 0.294213 -16.0904 -7.87111 0.294213 -19.1335 -0.262147 0.294213 -15.7621 
7.34682 0.294213 -19.3059 14.9558 0.294213 -17.5345 22.5647 0.294213 -18.9183 
30.1737 7.82558 -21.047 30.1737 0.294213 -20.1789 37.7827 0.294213 -20.2716 
45.3916 0.294213 -18.5683 -45.9159 7.90318 -14.1265 -38.307 7.90318 -16.7812 
-30.698 7.90318 -17.9003 -23.089 7.90318 -16.7274 -15.4801 7.90318 -16.0321 
-7.87111 7.90318 -19.2187 -0.262147 7.90318 -18.158 7.34682 7.90318 -17.6697 
14.9558 7.90318 -18.7176 30.0886 7.90318 -21.047 22.5647 7.90318 -20.2149 
35.26 7.90318 -21.047 30.1737 11.9513 -21.047 37.7827 7.90318 -21.0424 
45.3916 7.90318 -19.1191 -45.9159 15.5121 -13.4686 -38.307 15.5121 -17.0306 
-30.698 15.5121 -17.981 -23.089 15.5121 -17.707 -15.4801 15.5121 -17.5064 
-7.87111 15.5121 -17.651 -0.262147 15.5121 -17.5523 7.34682 15.5121 -18.4278 
14.9558 15.5121 -19.4442 22.5647 15.5121 -20.5301 30.1737 15.5121 -21.0392 
37.7827 15.5121 -20.3247 45.3916 15.5121 -18.1388 -38.307 23.1211 -15.2071 
-30.698 23.1211 -17.2015 -23.089 23.1211 -18.118 -15.4801 23.1211 -18.254 
-7.87111 23.1211 -17.8724 -0.262147 23.1211 -18.4597 7.34682 23.1211 -19.5522 
14.9558 23.1211 -20.1793 22.5647 23.1211 -20.6886 30.1737 23.1211 -20.7338 
37.7827 23.1211 -18.3645 45.3916 23.1211 -13.9875 -30.698 30.7301 -14.9903 
-23.089 30.7301 -16.5947 -15.4801 30.7301 -17.0842 -7.87111 30.7301 -17.3063 
-0.262147 30.7301 -17.9438 7.34682 30.7301 -19.1124 14.9558 30.7301 -19.7497 
22.5647 30.7301 -19.9259 30.1737 30.7301 -17.8162 37.7827 30.7301 -14.3881 
-7.87111 38.339 -13.5272 -0.262147 38.339 -14.7261 7.34682 38.339 -16.1248 
14.9558 38.339 -16.5084 22.5647 38.339 -15.7709 -23.089 -40.5349 -13.4381 
-15.4801 -42.6946 -13.4381 -15.4801 -45.3596 -6.33233 -7.87111 -43.1961 -13.4381 
-7.87111 -45.3596 -7.1701 -0.262147 -42.3342 -13.4381 7.34682 -41.8526 -13.4381 
14.9558 -41.6666 -13.4381 22.5647 -40.7363 -13.4381 30.1737 -38.8751 -13.4381 
-27.4915 -37.7506 -13.4381 -30.698 -32.7634 -13.4381 -30.698 -37.7506 -10.8468 
32.0419 -37.7506 -13.4381 37.7827 -33.1054 -13.4381 -32.264 -30.1416 -13.4381 
-38.307 -30.1416 -9.15319 40.6843 -30.1416 -13.4381 45.3916 -22.8781 -13.4381 
-35.7515 -22.5327 -13.4381 -38.307 -22.5327 -11.9472 45.6166 -22.5327 -13.4381 
-45.9159 -14.9237 -8.12819 -37.9834 -14.9237 -13.4381 -38.307 -14.4911 -13.4381 
-38.307 -14.9237 -13.3347 49.527 -14.9237 -13.4381 53.0006 -14.9237 -6.95544 
-41.9921 -7.31475 -13.4381 -45.9159 -1.18672 -13.4381 -45.9159 -7.31475 -11.2712 
51.1712 -7.31475 -13.4381 53.0006 -7.31475 -11.2088 -46.4736 0.294213 -13.4381 
52.4466 0.294213 -13.4381 53.0006 0.294213 -12.6752 -46.969 7.90318 -13.4381 
52.5251 7.90318 -13.4381 53.0006 7.90318 -12.616 -45.9597 15.5121 -13.4381 
-45.9159 15.6125 -13.4381 50.2069 15.5121 -13.4381 53.0006 15.5121 -7.61339 
-41.5132 23.1211 -13.4381 -45.9159 23.1211 -9.69558 -38.307 27.0099 -13.4381 
45.9499 23.1211 -13.4381 45.3916 23.8009 -13.4381 -34.2771 30.7301 -13.4381 
-38.307 30.7301 -10.6219 -30.698 32.7864 -13.4381 -23.089 35.6303 -13.4381 
-15.4801 37.3629 -13.4381 30.1737 36.7548 -13.4381 38.8781 30.7301 -13.4381 
37.7827 31.6749 -13.4381 -23.089 38.339 -9.96924 -8.88061 38.339 -13.4381 
-15.4801 38.339 -12.523 -7.87111 38.4349 -13.4381 -0.262147 39.7007 -13.4381 
7.34682 41.0961 -13.4381 14.9558 41.3799 -13.4381 27.2886 38.339 -13.4381 
22.5647 40.3095 -13.4381 30.1737 38.339 -9.41153 -15.4801 -45.5035 -5.82911 
-7.87111 -45.7126 -5.82911 -30.698 -41.2519 -5.82911 -16.6128 -45.3596 -5.82911 
-23.089 -44.5088 -5.82911 -15.4801 -45.3596 -5.18172 -4.34672 -45.3596 -5.82911 
-7.87111 -45.3596 -4.61884 -0.262147 -44.9534 -5.82911 7.34682 -44.7099 -5.82911 
14.9558 -44.385 -5.82911 22.5647 -43.4154 -5.82911 30.1737 -40.677 -5.82911 
-35.5266 -37.7506 -5.82911 -38.307 -34.5951 -5.82911 36.0515 -37.7506 -5.82911 
30.1737 -37.7506 0.477946 37.7827 -36.7698 -5.82911 -41.4223 -30.1416 -5.82911 
45.0181 -30.1416 -5.82911 45.3916 -29.6929 -5.82911 -45.049 -22.5327 -5.82911 
-45.9159 -20.3652 -5.82911 -45.9159 -22.5327 -4.02449 50.0409 -22.5327 -5.82911 
53.0006 -16.1031 -5.82911 -47.9822 -14.9237 -5.82911 53.5027 -14.9237 -5.82911 
53.0006 -14.9237 -1.25699 -50.8453 -7.31475 -5.82911 55.6302 -7.31475 -5.82911 
-52.7716 0.294213 -5.82911 -53.5249 0.294213 -0.889834 56.0388 0.294213 -5.82911 
-52.8645 7.90318 -5.82911 55.5807 7.90318 -5.82911 -51.6124 15.5121 -5.82911 
53.6754 15.5121 -5.82911 53.0006 16.8183 -5.82911 53.0006 15.5121 -2.72117 
-48.5914 23.1211 -5.82911 -45.9159 27.0268 -5.82911 48.9985 23.1211 -5.82911 
45.3916 27.3597 -5.82911 -42.4735 30.7301 -5.82911 -38.307 34.2771 -5.82911 
-30.698 38.1081 -5.82911 41.9817 30.7301 -5.82911 37.7827 34.2656 -5.82911 
-30.0371 38.339 -5.82911 -30.698 38.339 -2.53454 -23.089 40.4694 -5.82911 
-15.4801 42.1078 -5.82911 -7.87111 42.9365 -5.82911 -0.262147 43.6582 -5.82911 
7.34682 44.1567 -5.82911 14.9558 43.9078 -5.82911 22.5647 42.3925 -5.82911 
31.7598 38.339 -5.82911 30.1737 39.2782 -5.82911 30.1737 38.339 -2.99151 
-30.698 -41.427 1.77985 -23.089 -43.2854 1.77985 -15.4801 -43.7467 1.77985 
-7.87111 -43.3504 1.77985 -0.262147 -42.4225 1.77985 7.34682 -41.7479 1.77985 
14.9558 -40.8104 1.77985 22.5647 -39.6417 1.77985 -37.1818 -37.7506 1.77985 
-38.307 -36.9206 1.77985 -0.262147 -37.7506 9.17077 7.34682 -37.7506 7.19927 
14.9558 -37.7506 5.63401 27.9621 -37.7506 1.77985 22.5647 -37.7506 3.64626 
30.1737 -37.0018 1.77985 37.7827 -33.8553 1.77985 -43.8729 -30.1416 1.77985 
-45.9159 -26.7561 1.77985 30.1737 -30.1416 8.79871 41.6142 -30.1416 1.77985 
37.7827 -30.1416 5.706 45.3916 -26.4597 1.77985 -48.1657 -22.5327 1.77985 
48.5934 -22.5327 1.77985 45.3916 -22.5327 6.57849 -50.5392 -14.9237 1.77985 
52.6372 -14.9237 1.77985 53.0006 -13.771 1.77985 -52.4426 -7.31475 1.77985 
-53.5249 -1.48214 1.77985 54.9516 -7.31475 1.77985 53.0006 -7.31475 5.70911 
-53.8536 0.294213 1.77985 -53.5249 5.33186 1.77985 -53.5249 0.294213 2.87184 
55.2365 0.294213 1.77985 53.0006 0.294213 6.44475 -53.3572 7.90318 1.77985 
54.4263 7.90318 1.77985 53.0006 12.1944 1.77985 53.0006 7.90318 4.67862 
-52.0034 15.5121 1.77985 51.7582 15.5121 1.77985 -48.8992 23.1211 1.77985 
-45.9159 27.2916 1.77985 46.735 23.1211 1.77985 45.3916 24.6466 1.77985 
45.3916 23.1211 3.94692 -42.7847 30.7301 1.77985 -38.307 34.3851 1.77985 
30.1737 36.4423 1.77985 38.7048 30.7301 1.77985 37.7827 31.581 1.77985 
37.7827 30.7301 2.99223 -31.2757 38.339 1.77985 -30.698 38.6206 1.77985 
-30.698 38.339 3.24587 -23.089 41.3683 1.77985 -15.4801 43.1194 1.77985 
-7.87111 43.9579 1.77985 -0.262147 44.2388 1.77985 7.34682 43.8852 1.77985 
14.9558 42.6452 1.77985 26.5029 38.339 1.77985 22.5647 40.1904 1.77985 
22.5647 38.339 5.3896 -30.698 -38.2334 9.38882 -23.089 -39.6708 9.38882 
-15.4801 -40.223 9.38882 -7.87111 -39.0658 9.38882 -31.7275 -37.7506 9.38882 
-38.307 -33.3982 9.38882 -30.698 -37.7506 10.0207 -23.089 -37.7506 11.9533 
-15.4801 -37.7506 12.2521 -1.0601 -37.7506 9.38882 -7.87111 -37.7506 11.0076 
-0.262147 -37.572 9.38882 7.34682 -35.5294 9.38882 14.9558 -33.4731 9.38882 
22.5647 -31.5099 9.38882 -41.368 -30.1416 9.38882 -45.9159 -23.7413 9.38882 
-38.307 -30.1416 12.7283 -0.262147 -30.1416 15.8027 7.34682 -30.1416 13.4992 
14.9558 -30.1416 11.7754 27.7484 -30.1416 9.38882 22.5647 -30.1416 10.49 
30.1737 -29.4884 9.38882 37.7827 -25.9694 9.38882 -46.5288 -22.5327 9.38882 
-45.9159 -22.5327 10.3376 7.34682 -22.5327 16.3752 14.9558 -22.5327 15.3211 
22.5647 -22.5327 15.0597 30.1737 -22.5327 14.3309 42.017 -22.5327 9.38882 
37.7827 -22.5327 11.8614 45.3916 -19.0176 9.38882 -48.8465 -14.9237 9.38882 
-45.9159 -14.9237 13.4335 37.7827 -14.9237 15.4327 47.8813 -14.9237 9.38882 
45.3916 -14.9237 11.705 -50.3786 -7.31475 9.38882 -45.9159 -7.31475 15.4596 
37.7827 -7.31475 16.8448 50.5802 -7.31475 9.38882 45.3916 -7.31475 13.7287 
-51.3028 0.294213 9.38882 -45.9159 0.294213 16.6224 51.1508 0.294213 9.38882 
45.3916 0.294213 14.438 -51.1718 7.90318 9.38882 -45.9159 7.90318 16.264 
50.0901 7.90318 9.38882 45.3916 7.90318 13.7077 -49.5327 15.5121 9.38882 
-45.9159 15.5121 14.4891 37.7827 15.5121 16.052 47.1537 15.5121 9.38882 
45.3916 17.9777 9.38882 45.3916 15.5121 11.2338 -46.376 23.1211 9.38882 
-45.9159 23.7611 9.38882 -45.9159 23.1211 10.0768 30.1737 23.1211 15.8747 
40.6155 23.1211 9.38882 37.7827 25.702 9.38882 37.7827 23.1211 11.5795 
-40.0281 30.7301 9.38882 -38.307 32.2066 9.38882 -38.307 30.7301 11.6233 
[...]
POINT_DATA 526
SCALARS ImageScalars float
LOOKUP_TABLE default
0 0 0 0 0 0 0 0 0 
0 0 0 0 0 0 0 0 0 
0 0 0 0 0 0 0 0 0 
0 0 0 0 0 0 0 0 0 
0 0 0 0 0 0 0 0 0 
0 0 0 0 0 0 0 0 0 
0 0 0 0 0 0 0 0 0 
0 0 0 0 0 0 0 0 0 
0 0 0 0 0 0 0 0 0 
0 0 0 0 0 0 0 0 0 
0 0 0 0 0 0 0 0 0 
0 0 0 0 0 0 0 0 0 
0 0 0 0 0 0 0 0 0 
0 0 0 0 0 0 0 0 0 
0 0 0 0 0 0 0 0 0 
0 0 0 0 0 0 0 0 0 
0 0 0 0 0 0 0 0 0 
0 0 0 0 0 0 0 0 0 
0 0 0 0 0 0 0 0 0 
0 0 0 0 0 0 0 0 0 
0 0 0 0 0 0 0 0 0 
0 0 0 0 0 0 0 0 0 
0 0 0 0 0 0 0 0 0 
0 0 0 0 0 0 0 0 0 
0 0 0 0 0 0 0 0 0 
0 0 0 0 0 0 0 0 0 
0 0 0 0 0 0 0 0 0 
0 0 0 0 0 0 0 0 0 
0 0 0 0 0 0 0 0 0 
0 0 0 0 0 0 0 0 0 
0 0 0 0 0 0 0 0 0 
0 0 0 0 0 0 0 0 0 
0 0 0 0 0 0 0 0 0 
0 0 0 0 0 0 0 0 0 
0 0 0 0 0 0 0 0 0 
0 0 0 0 0 0 0 0 0 
0 0 0 0 0 0 0 0 0 
0 0 0 0 0 0 0 0 0 
0 0 0 0 0 0 0 0 0 
0 0 0 0 0 0 0 0 0 
0 0 0 0 0 0 0 0 0 
0 0 0 0 0 0 0 0 0 
0 0 0 0 0 0 0 0 0 
0 0 0 0 0 0 0 0 0 
0 0 0 0 0 0 0 0 0 
0 0 0 0 0 0 0 0 0 
0 0 0 0 0 0 0 0 0 
0 0 0 0 0 0 0 0 0 
0 0 0 0 0 0 0 0 0 
0 0 0 0 0 0 0 0 0 
0 0 0 0 0 0 0 0 0 
0 0 0 0 0 0 0 0 0 
0 0 0 0 0 0 0 0 0 
0 0 0 0 0 0 0 0 0 
0 0 0 0 0 0 0 0 0 
0 0 0 0 0 0 0 0 0 
0 0 0 0 0 0 0 0 0 
0 0 0 0 0 0 0 0 0 
0 0 0 0 
NORMALS Normals float
0.0514057 0.0562143 0.997095 0.351446 0.487477 0.799282 0.0969042 0.478886 0.872512 
-0.0335698 0.475537 0.879055 -0.0941058 0.483875 0.870063 -0.0510132 0.466231 0.883191 
-0.0188646 0.5133 0.858002 -0.12101 0.575584 0.808739 -0.344774 0.684339 0.642504 
0.46312 0.248437 0.850764 0.321901 0.109437 0.940427 0.136012 0.12808 0.982393 
-0.0303833 0.16444 0.985919 -0.109138 0.155943 0.981718 -0.0323121 0.140546 0.989547 
0.0172367 0.162197 0.986608 0.00585202 0.141476 0.989924 -0.206371 0.243373 0.947724 
-0.473301 0.429926 0.768862 0.372293 0.0688791 0.925556 0.262332 -0.0578015 0.963245 
0.145389 -0.0599624 0.987556 -0.0116195 -0.0226626 0.999676 -0.118718 0.0547669 0.991417 
-0.0414981 0.00905166 0.999098 0.00457998 -0.0771808 0.997007 -0.020602 -0.0147909 0.999678 
-0.0335966 -0.0119638 0.999364 -0.289893 0.167638 0.942263 -0.5753 0.417379 0.703438 
0.226846 0.0184905 0.973755 0.200762 -0.10568 0.973923 0.179284 -0.17247 0.968561 
0.0833537 -0.133265 0.987569 -0.0757628 -0.0207591 0.99691 -0.175249 0.0545837 0.98301 
-0.00166068 -0.1778 0.984065 0.0721835 -0.0677742 0.995086 -0.0200969 0.0235215 0.999521 
-0.12823 0.0580165 0.990046 -0.426722 0.218824 0.87751 0.28099 0.174444 0.943723 
0.0894035 0.087422 0.992151 0.0571723 -0.0629339 0.996379 0.127517 -0.164745 0.978059 
0.126689 -0.0454223 0.990902 0.0824368 -0.27762 0.957148 -0.225232 0.0545155 0.972779 
-0.0867895 0.0163373 0.996093 0.182995 0.0246607 0.982804 0.0860106 0.103328 0.990922 
-0.0900997 0.137236 0.986432 -0.378462 0.125095 0.917125 0.500739 0.151207 0.852289 
0.203163 0.104666 0.973535 0.00101669 0.113015 0.993593 -0.0549867 0.00497061 0.998475 
0.195933 -0.067251 0.978308 -0.0209473 0.049856 0.998537 0.0179204 -0.0481 0.998682 
0.0970617 -0.142939 0.984961 -0.0242099 0.165974 0.985833 0.174039 0.156655 0.972198 
0.0516819 0.056992 0.997036 0.0827755 0.131996 0.987788 -0.0921802 0.124515 0.987927 
-0.387619 0.0958112 0.916827 0.500924 -0.0214188 0.865226 0.232166 0.0601968 0.970812 
0.00862559 0.0767377 0.997014 -0.125375 0.111055 0.985874 0.143444 0.0961443 0.984977 
0.154163 -0.106644 0.982273 -0.0972367 0.103972 0.989816 0.0379334 -0.0543431 0.997802 
0.16137 0.12343 0.979145 0.0525143 0.0566824 0.99701 0.154528 0.101667 0.982744 
-0.0541579 0.0227284 0.998274 0.0184542 0.0160992 0.9997 -0.108875 0.00518111 0.994042 
-0.420768 -0.0226957 0.906884 0.543993 -0.186457 0.818111 0.283891 -0.0887205 0.954743 
0.0381963 -0.0452029 0.998247 -0.0308712 0.0871968 0.995713 -0.00366506 0.144797 0.989455 
0.00297878 -0.0740815 0.997248 0.0473949 0.0213486 0.998648 0.125944 0.125434 0.984075 
0.133567 0.0953127 0.986446 0.103546 0.0297475 0.99418 -0.0107315 -0.0194551 0.999753 
-0.171924 -0.167573 0.970753 -0.473134 -0.265029 0.840181 0.355519 -0.305798 0.883229 
0.177853 -0.172988 0.968733 0.0654171 -0.0697735 0.995416 -0.0158031 -0.0211353 0.999652 
0.0136215 -0.0229619 0.999644 0.109769 0.0267717 0.993596 0.112434 0.0413977 0.992797 
0.0738731 0.0178147 0.997109 0.0366997 -0.0343135 0.998737 -0.13558 -0.183709 0.973586 
-0.368292 -0.324473 0.871251 -0.63155 -0.526542 0.569121 0.303231 -0.478999 0.823778 
0.118973 -0.370166 0.921316 0.0486838 -0.304974 0.951115 0.0534917 -0.243697 0.968375 
0.116933 -0.212175 0.97021 0.120785 -0.196997 0.972935 0.0493462 -0.196497 0.979262 
-0.120825 -0.268646 0.955631 -0.303827 -0.459843 0.834406 -0.525721 -0.628474 0.57327 
0.107893 -0.672143 0.732518 0.154111 -0.62634 0.764165 0.106808 -0.607394 0.787188 
-0.0142753 -0.646566 0.762724 -0.232417 -0.710624 0.664075 0.341751 0.662199 0.666857 
0.136981 0.787794 0.600514 0.0805647 0.994851 0.0614888 -0.0187618 0.812754 0.582305 
-0.0335421 0.996783 0.0727853 -0.0722263 0.782689 0.618208 -0.0359103 0.745198 0.665876 
-0.0585926 0.761676 0.645304 -0.173075 0.775215 0.607525 -0.366601 0.745012 0.55728 
0.464129 0.50185 0.729884 0.49239 0.328914 0.805834 0.555429 0.565158 0.609996 
-0.419539 0.719848 0.552997 -0.540825 0.581148 0.608091 0.499067 0.267963 0.824092 
0.667731 0.399841 0.627903 -0.57263 0.504228 0.646413 -0.581095 0.427674 0.692404 
0.441312 0.152448 0.88431 0.50606 0.208457 0.836928 -0.584038 0.41982 0.69473 
0.712669 0.296479 0.635769 0.378208 0.174577 0.90911 0.379352 0.182077 0.907161 
0.386624 0.182326 0.904035 -0.692623 0.237895 0.68094 -0.920287 0.325991 0.216339 
0.399055 0.230825 0.887398 0.507821 0.176069 0.843278 0.576901 0.275773 0.768853 
-0.693412 0.157671 0.703078 -0.843216 0.18462 0.504878 0.528442 0.151845 0.83528 
-0.755087 0.0552901 0.653289 -0.804945 0.0473517 0.591457 0.553228 -0.0205688 0.832776 
-0.788045 -0.128884 0.601975 -0.830583 -0.139167 0.539226 0.54584 -0.187041 0.816746 
0.545286 -0.18937 0.81658 -0.772241 -0.318246 0.549875 -0.910473 -0.37476 0.17491 
0.479608 -0.340943 0.808538 0.732295 -0.446186 0.514454 0.422041 -0.428779 0.798768 
-0.653564 -0.53136 0.53899 -0.644159 -0.547892 0.533735 0.383652 -0.52211 0.761717 
0.513785 -0.634615 0.577311 0.318984 -0.575176 0.753274 0.185456 -0.641385 0.744467 
0.118937 -0.662654 0.739421 -0.43233 -0.730782 0.52825 -0.564515 -0.646962 0.512603 
-0.546128 -0.658655 0.517609 0.229975 -0.842039 0.487937 0.110845 -0.678015 0.726642 
0.131438 -0.736605 0.663429 0.108427 -0.676585 0.728338 0.151548 -0.698189 0.699689 
0.097627 -0.767812 0.633193 -0.0479855 -0.81643 0.575448 -0.380809 -0.774205 0.505559 
-0.262675 -0.815265 0.516086 -0.470958 -0.856953 0.209354 0.0767004 0.996551 0.0316733 
-0.0364853 0.999248 -0.0131392 0.515978 0.815038 0.263591 0.0995591 0.994173 0.0413178 
0.242474 0.963697 0.111782 0.0717534 0.99741 0.00494105 -0.0499298 0.998506 -0.0222126 
-0.0437158 0.996467 -0.0717075 -0.0657635 0.99748 -0.0266266 -0.0357884 0.998496 -0.0415346 
-0.0796066 0.993388 -0.0827205 -0.226997 0.97289 -0.0442446 -0.380357 0.920902 -0.0852565 
0.656113 0.671849 0.343707 0.704677 0.570184 0.42228 -0.522258 0.852768 -0.0058384 
-0.297993 0.81966 -0.489242 -0.567759 0.82282 0.0248522 0.751724 0.456425 0.476012 
-0.754546 0.655085 0.0390371 -0.766002 0.641176 0.0462038 0.793131 0.338899 0.506054 
0.79485 0.337032 0.504601 0.847095 0.36364 0.38755 -0.874129 0.473455 0.108346 
-0.923502 0.354451 0.14666 0.795861 0.317677 0.515448 -0.92982 0.333513 0.155577 
-0.930456 0.352703 -0.0992633 0.867004 0.26202 0.423852 -0.972664 0.165554 0.16284 
0.915316 0.118086 0.385035 0.994335 0.0811218 0.0686763 -0.990652 -0.00357491 0.136368 
0.956082 -0.0711939 0.284322 -0.982023 -0.161984 0.0969087 0.927427 -0.248547 0.279471 
-0.923005 -0.376658 0.0786764 -0.90894 -0.41089 0.070696 -0.911609 -0.402372 -0.084055 
0.839185 -0.472742 0.268857 0.765137 -0.591661 0.253976 -0.812906 -0.581674 0.0289618 
-0.731128 -0.682045 0.0163436 0.658753 -0.711091 0.245752 0.551705 -0.79561 0.250254 
0.336104 -0.905039 0.260649 -0.663671 -0.747996 -0.00647114 -0.600734 -0.799435 0.00473262 
0.32416 -0.909565 0.260023 0.366766 -0.922505 0.12028 0.240371 -0.931195 0.274038 
0.156561 -0.940799 0.300644 0.10017 -0.946067 0.308098 0.0782072 -0.964667 0.251598 
0.01557 -0.98859 0.149826 -0.108773 -0.992285 0.059489 -0.30859 -0.951113 -0.0124796 
-0.487303 -0.872952 -0.0221404 -0.457716 -0.888654 -0.0280995 -0.458387 -0.872612 -0.168608 
0.371493 0.912448 -0.171555 0.140533 0.946906 -0.289171 0.00542417 0.950919 -0.309392 
-0.083487 0.913712 -0.397693 -0.0972441 0.898521 -0.428023 -0.0961631 0.863195 -0.495628 
-0.110486 0.839451 -0.532085 -0.2102 0.780361 -0.588942 0.596963 0.79834 -0.0792986 
0.648268 0.759009 -0.060446 -0.164467 0.760758 -0.627851 -0.147253 0.739655 -0.656679 
-0.161103 0.72633 -0.6682 -0.259794 0.773942 -0.577513 -0.21748 0.725799 -0.652624 
-0.273828 0.777197 -0.566554 -0.469079 0.738768 -0.483928 0.826897 0.562193 0.0134489 
0.873407 0.484443 0.0497582 -0.216681 0.649422 -0.728903 -0.595677 0.658093 -0.460525 
-0.445552 0.645673 -0.620153 -0.689589 0.610591 -0.389417 0.918029 0.391516 0.0627524 
-0.761673 0.551648 -0.339909 -0.625822 0.55248 -0.550557 0.962496 0.268967 0.0354651 
-0.894187 0.353483 -0.274735 -0.905789 0.324511 -0.272466 0.978015 0.205965 -0.0326367 
0.992245 0.0967557 -0.0780206 -0.94996 0.163879 -0.265934 -0.874597 0.165639 -0.455679 
0.994009 0.0611051 -0.0906254 0.993831 -0.057383 -0.0949021 0.988585 0.0596332 -0.138363 
-0.963311 -0.0315667 -0.266523 -0.875931 -0.0310253 -0.481438 0.988605 -0.115526 -0.0965125 
-0.933795 -0.2077 -0.291354 -0.890734 -0.324167 -0.318606 -0.884417 -0.209165 -0.417201 
0.958645 -0.257922 -0.120313 -0.844745 -0.420112 -0.331529 0.860938 -0.496072 -0.112687 
0.781331 -0.612453 -0.120099 -0.722813 -0.591201 -0.357802 -0.690204 -0.624635 -0.365308 
-0.679829 -0.598129 -0.424351 0.684013 -0.721611 -0.106785 0.574588 -0.811708 -0.104778 
-0.440438 -0.799747 -0.407945 -0.589613 -0.703656 -0.396516 -0.576271 -0.714301 -0.397097 
-0.573703 -0.698622 -0.427543 0.410942 -0.909518 -0.0624782 0.399318 -0.915032 -0.0571093 
0.408405 -0.906808 -0.104422 0.276631 -0.960968 -0.00389445 0.164185 -0.986416 -0.00525627 
0.0740704 -0.997146 -0.0145829 -0.00457609 -0.998057 -0.0621388 -0.0999317 -0.982927 -0.154495 
-0.221654 -0.93914 -0.262461 -0.397118 -0.835551 -0.379673 -0.349373 -0.868962 -0.35049 
-0.376237 -0.815391 -0.439981 0.281354 0.813497 -0.508983 0.110967 0.828059 -0.549549 
-0.0330474 0.822583 -0.567685 -0.140185 0.795625 -0.589346 0.31842 0.802873 -0.503987 
0.593996 0.65562 -0.466187 0.279489 0.800116 -0.530755 0.0971542 0.769223 -0.631551 
-0.0437212 0.742746 -0.668144 -0.163458 0.760064 -0.628955 -0.138749 0.762142 -0.632367 
-0.167492 0.753513 -0.635739 -0.179138 0.656507 -0.73274 -0.171159 0.586892 -0.791367 
-0.165608 0.614827 -0.771078 0.686936 0.582246 -0.434867 0.824547 0.403178 -0.396951 
0.56608 0.556502 -0.608161 -0.232199 0.457315 -0.858456 -0.222636 0.470752 -0.853713 
-0.163584 0.516184 -0.840711 -0.195134 0.63167 -0.750277 -0.155766 0.595855 -0.787841 
-0.212102 0.632029 -0.745354 -0.391019 0.559695 -0.730648 0.840407 0.370352 -0.39567 
0.817057 0.367328 -0.444396 -0.18741 0.281657 -0.941035 -0.0797591 0.333898 -0.939229 
-0.0582356 0.385762 -0.920758 -0.169526 0.446668 -0.878492 -0.495845 0.52294 -0.693305 
-0.37359 0.496854 -0.783305 -0.587442 0.445087 -0.675877 0.881626 0.233593 -0.410085 
0.764168 0.21613 -0.607729 -0.300817 0.285234 -0.910028 -0.660285 0.347626 -0.665717 
-0.567789 0.331634 -0.753416 0.894059 0.144179 -0.424112 0.697556 0.137597 -0.703195 
-0.235625 0.126129 -0.963625 -0.733372 0.162174 -0.660201 -0.524223 0.145953 -0.83898 
0.8953 0.0469071 -0.442987 0.6644 0.0345361 -0.746579 -0.769045 -0.0254415 -0.638688 
-0.53119 0.000928526 -0.847252 0.895397 -0.103772 -0.433008 0.669486 -0.0892552 -0.737443 
-0.738361 -0.200541 -0.643899 -0.57581 -0.157389 -0.802292 0.862129 -0.255666 -0.437457 
0.741202 -0.234087 -0.629144 -0.391265 -0.301829 -0.869374 -0.689102 -0.405187 -0.600801 
-0.647738 -0.465493 -0.603118 -0.635511 -0.393107 -0.664525 0.7796 -0.476515 -0.406396 
0.769787 -0.493289 -0.405086 0.767815 -0.473557 -0.431513 -0.349993 -0.443707 -0.825002 
-0.551235 -0.565363 -0.6136 -0.515133 -0.597811 -0.614214 -0.496736 -0.539837 -0.67958 
0.637561 -0.678776 -0.364388 0.600748 -0.715022 -0.357554 0.600836 -0.667231 -0.440226 
0.43916 -0.842076 -0.313124 -0.3884 -0.725053 -0.568721 -0.345633 -0.55272 -0.758313 
-0.450969 -0.661108 -0.599635 -0.443347 -0.666328 -0.599542 -0.439712 -0.654001 -0.615578 
0.386589 -0.87095 -0.303307 0.288682 -0.910053 -0.297433 0.272951 -0.827973 -0.489855 
0.147398 -0.937811 -0.314298 0.110353 -0.738485 -0.665178 0.0381333 -0.935241 -0.351952 
-0.0152014 -0.67683 -0.735983 -0.0726811 -0.910819 -0.406357 -0.116709 -0.662393 -0.74001 
-0.191518 -0.86295 -0.467588 -0.209042 -0.697892 -0.685017 -0.3315 -0.779116 -0.532059 
-0.300187 -0.799271 -0.520629 -0.300484 -0.761082 -0.57486 0.22233 0.475564 -0.851122 
0.0799491 0.532902 -0.842391 -0.032252 0.54161 -0.840011 -0.144389 0.506551 -0.850034 
0.223621 0.475106 -0.85104 0.448973 0.313407 -0.836779 0.222215 0.474789 -0.851584 
0.0804878 0.479895 -0.873626 -0.0283855 0.484097 -0.874554 -0.178611 0.464786 -0.867221 
-0.145861 0.474439 -0.86812 -0.242035 0.361995 -0.90021 0.4573 0.300214 -0.837107 
0.444253 0.298708 -0.844638 0.24639 0.290959 -0.924465 0.0886111 0.283172 -0.954967 
-0.056429 0.299278 -0.952496 -0.194029 0.298508 -0.934476 -0.207233 0.273151 -0.939384 
-0.253536 0.261733 -0.931244 -0.183378 0.281876 -0.941763 -0.0634444 0.174998 -0.982523 
-0.0311429 0.203262 -0.978629 -0.117526 0.216121 -0.969267 0.558686 0.200223 -0.804848 
0.423717 0.192336 -0.885139 0.218377 0.161198 -0.962459 0.0873322 0.114228 -0.989609 
-0.024364 0.132745 -0.990851 -0.183019 0.153567 -0.971041 -0.262193 0.209993 -0.941891 
-0.181536 0.293952 -0.938423 -0.0601857 0.13483 -0.989039 -0.0256935 0.166374 -0.985728 
-0.120794 0.214507 -0.969224 -0.116943 0.213224 -0.969979 0.603554 0.132935 -0.786162 
0.388412 0.104272 -0.915567 0.176825 0.0540601 -0.982757 0.0699438 0.0141583 -0.99745 
-0.0203376 -0.0271948 -0.999423 -0.132952 -0.0373274 -0.990419 -0.125209 -0.058459 -0.990407 
-0.252247 0.0920679 -0.963273 -0.206114 0.0181573 -0.97836 0.0220259 0.0613578 -0.997873 
-0.208448 0.12158 -0.970447 -0.0553746 0.0981189 -0.993633 -0.235687 0.106553 -0.96597 
0.63963 0.0342132 -0.767921 0.345996 0.0412982 -0.937327 0.135109 0.0242334 -0.990534 
0.00640686 0.0138776 -0.999883 -0.0760047 0.00405567 -0.997099 -0.218532 0.0765747 -0.972821 
-0.126057 0.064253 -0.98994 -0.111708 0.0075049 -0.993713 -0.107175 0.143587 -0.983817 
0.0547122 0.13011 -0.989989 -0.0488797 0.0781973 -0.995739 -0.288898 0.0334768 -0.956774 
-0.237887 0.0399642 -0.97047 0.625124 -0.085178 -0.775864 0.374394 -0.0306652 -0.926762 
0.149068 0.0284459 -0.988418 0.048428 0.0405947 -0.998001 0.0432139 0.0917821 -0.994841 
-0.0434495 0.179843 -0.982735 -0.203082 0.263327 -0.943089 -0.189816 0.0962041 -0.977095 
-0.0869436 0.178299 -0.980128 -0.0466515 0.0904259 -0.99481 -0.141179 0.0088762 -0.989944 
-0.336999 -0.0933777 -0.936863 -0.333242 -0.161971 -0.928825 -0.302031 -0.0867055 -0.949347 
0.626516 -0.202905 -0.752534 0.440658 -0.163882 -0.882589 0.185763 -0.0801753 -0.979318 
0.0654173 -0.0331421 -0.997307 0.0620325 -0.00949641 -0.998029 -0.2161 -0.107684 -0.970415 
-0.185451 -0.0559512 -0.981059 -0.110462 -0.0144967 -0.993775 -0.115867 -0.0874739 -0.989406 
-0.328968 -0.257827 -0.908463 -0.302213 -0.347785 -0.887532 -0.218757 -0.179772 -0.959076 
0.563298 -0.383658 -0.73178 0.539263 -0.436921 -0.719928 0.513692 -0.368508 -0.774805 
0.279789 -0.284118 -0.917058 0.113972 -0.213821 -0.970201 -0.0232215 -0.211382 -0.977128 
-0.139692 -0.274295 -0.951445 -0.14755 -0.251832 -0.956457 -0.104791 -0.199945 -0.974187 
-0.121101 -0.215088 -0.969057 -0.296758 -0.377242 -0.877282 -0.269351 -0.388946 -0.881006 
-0.222515 -0.294125 -0.929504 0.419194 -0.583219 -0.695796 0.376427 -0.613553 -0.694158 
0.358684 -0.561246 -0.745888 0.207533 -0.658247 -0.723631 0.143206 -0.478072 -0.866567 
0.0845553 -0.648685 -0.756345 0.00775409 -0.424386 -0.905448 -0.0298246 -0.60969 -0.792078 
-0.0847075 -0.362257 -0.928221 -0.124472 -0.516825 -0.846994 -0.127514 -0.325055 -0.937059 
-0.156425 -0.436346 -0.886078 -0.135604 -0.353485 -0.925559 -0.195343 -0.436837 -0.878074 
-0.193212 -0.437342 -0.878294 -0.192082 -0.434363 -0.880019 -0.0466401 -0.0663961 -0.996703 
-0.0317171 -0.0857956 -0.995808 -0.056489 -0.0993823 -0.993445 -0.0504076 -0.103828 -0.993317 
-0.047096 -0.0984674 -0.994025 
