# vtk DataFile Version 4.2
vtk output
ASCII
DATASET POLYDATA
POINTS 501 float
45.2181 -7.60112 -25.0385 45.2181 0.541011 -25.6776 45.2181 8.68315 -24.7324 
-19.919 -32.0275 -17.5438 -11.7769 -32.0275 -19.399 -3.63475 -32.0275 -19.4334 
4.50738 -32.0275 -19.5207 12.6495 -32.0275 -19.7407 20.7917 -32.0275 -19.9819 
28.9338 -32.0275 -19.3253 37.0759 -32.0275 -16.4448 -36.2033 -23.8854 -18.4674 
-28.0612 -23.8854 -19.7345 -19.919 -23.8854 -21.276 -11.7769 -23.8854 -22.6383 
-3.63475 -23.8854 -21.489 4.50738 -23.8854 -21.2849 12.6495 -23.8854 -22.3312 
20.7917 -23.8854 -23.1819 28.9338 -23.8854 -23.0973 37.0759 -23.8854 -23.0798 
45.2181 -23.8854 -20.1887 -44.3454 -15.7433 -17.5272 -36.2033 -15.7433 -20.4094 
-28.0612 -15.7433 -21.3299 -19.919 -15.7433 -21.7679 -11.7769 -15.7433 -22.3957 
-3.63475 -15.7433 -21.1784 4.50738 -15.7433 -19.8117 12.6495 -15.7433 -21.6792 
20.7917 -15.7433 -22.9513 28.9338 -15.7433 -23.6625 37.0759 -15.7433 -23.4867 
45.2181 -10.272 -24.5412 45.2181 -15.7433 -23.4409 53.3602 -15.7433 -21.7058 
-44.3454 -7.60112 -17.6607 -36.2033 -7.60112 -19.9499 -28.0612 -7.60112 -20.5789 
-19.919 -7.60112 -20.6275 -11.7769 -7.60112 -21.0912 -3.63475 -7.60112 -20.417 
4.50738 -7.60112 -19.8109 12.6495 -7.60112 -20.9177 20.7917 -7.60112 -21.6367 
28.9338 -7.60112 -22.7856 41.2626 -7.60112 -24.5412 37.0759 -7.60112 -24.0401 
47.2889 -7.60112 -24.5412 53.3602 -7.60112 -23.2255 61.5023 -7.60112 -20.4541 
-44.3454 0.541011 -16.4721 -36.2033 0.541011 -18.8049 -28.0612 0.541011 -19.7237 
-19.919 0.541011 -19.9894 -11.7769 0.541011 -20.8613 -3.63475 0.541011 -20.0998 
4.50738 0.541011 -22.0692 12.6495 0.541011 -21.7666 20.7917 0.541011 -21.1121 
28.9338 0.541011 -22.7836 38.4969 0.541011 -24.5412 37.0759 0.541011 -24.3072 
50.0382 0.541011 -24.5412 53.3602 0.541011 -23.758 61.5023 0.541011 -21.9463 
-36.2033 8.68315 -17.0609 -28.0612 8.68315 -18.2595 -19.919 8.68315 -19.1992 
-11.7769 8.68315 -21.0468 -3.63475 8.68315 -20.2406 4.50738 8.68315 -20.1506 
12.6495 8.68315 -22.1089 20.7917 8.68315 -22.1517 28.9338 8.68315 -22.963 
43.3001 8.68315 -24.5412 37.0759 8.68315 -23.9358 46.4655 8.68315 -24.5412 
45.2181 9.27365 -24.5412 53.3602 8.68315 -23.5769 61.5023 8.68315 -21.6546 
-19.919 16.8253 -16.4848 -11.7769 16.8253 -18.6018 -3.63475 16.8253 -20.0708 
4.50738 16.8253 -18.9352 12.6495 16.8253 -20.2291 20.7917 16.8253 -21.1735 
28.9338 16.8253 -22.0437 37.0759 16.8253 -22.1262 45.2181 16.8253 -22.1876 
53.3602 16.8253 -22.2475 61.5023 16.8253 -18.2177 20.7917 24.9674 -16.5945 
28.9338 24.9674 -17.2443 37.0759 24.9674 -16.8402 45.2181 24.9674 -16.7616 
-19.919 -33.2654 -16.399 -11.7769 -35.3297 -16.399 -3.63475 -35.8122 -16.399 
4.50738 -35.9967 -16.399 12.6495 -35.8576 -16.399 20.7917 -35.4794 -16.399 
28.9338 -34.4757 -16.399 37.0759 -32.0631 -16.399 -36.2033 -27.0656 -16.399 
-36.2033 -32.0275 -10.2333 -23.5311 -32.0275 -16.399 -28.0612 -29.8456 -16.399 
-28.0612 -32.0275 -14.3386 37.1756 -32.0275 -16.399 45.2181 -28.5711 -16.399 
-41.2368 -23.8854 -16.399 -44.3454 -19.2905 -16.399 -44.3454 -23.8854 -14.3445 
52.2015 -23.8854 -16.399 53.3602 -22.7996 -16.399 -46.1974 -15.7433 -16.399 
-52.4876 -15.7433 -11.328 60.0818 -15.7433 -16.399 61.5023 -14.1107 -16.399 
-46.6106 -7.60112 -16.399 -52.4876 -7.60112 -12.5647 65.9771 -7.60112 -16.399 
-44.5005 0.541011 -16.399 -52.4876 0.541011 -11.8949 -44.3454 0.850696 -16.399 
68.0593 0.541011 -16.399 -52.4876 8.68315 -10.0855 -38.3652 8.68315 -16.399 
-44.3454 8.68315 -14.5813 -36.2033 11.0342 -16.399 -28.0612 15.166 -16.399 
67.9757 8.68315 -16.399 69.6445 8.68315 -10.9989 -44.3454 16.8253 -11.7856 
-36.2033 16.8253 -14.7262 -21.1201 16.8253 -16.399 -28.0612 16.8253 -15.8886 
-19.919 16.9826 -16.399 -11.7769 20.6482 -16.399 -3.63475 22.9462 -16.399 
4.50738 21.8939 -16.399 12.6495 24.0571 -16.399 53.3602 23.233 -16.399 
63.6024 16.8253 -16.399 61.5023 18.9542 -16.399 -36.2033 24.9674 -9.63996 
-28.0612 24.9674 -10.897 -19.919 24.9674 -11.4053 -11.7769 24.9674 -13.2547 
-3.63475 24.9674 -14.5317 4.50738 24.9674 -14.0748 18.6393 24.9674 -16.399 
12.6495 24.9674 -15.709 20.7917 25.1734 -16.399 28.9338 25.7569 -16.399 
37.0759 25.4237 -16.399 46.4481 24.9674 -16.399 45.2181 25.2485 -16.399 
53.3602 24.9674 -13.0857 -36.2033 -33.2193 -8.25691 -28.0612 -35.897 -8.25691 
-19.919 -37.9525 -8.25691 -11.7769 -39.2728 -8.25691 -3.63475 -40.0109 -8.25691 
4.50738 -40.099 -8.25691 12.6495 -39.0879 -8.25691 20.7917 -37.4322 -8.25691 
28.9338 -35.8994 -8.25691 37.0759 -32.8432 -8.25691 -38.5263 -32.0275 -8.25691 
-44.3454 -28.7185 -8.25691 39.1599 -32.0275 -8.25691 37.0759 -32.0275 -5.63884 
45.2181 -29.5297 -8.25691 -49.8989 -23.8854 -8.25691 -52.4876 -20.098 -8.25691 
53.1356 -23.8854 -8.25691 53.3602 -23.6951 -8.25691 -54.907 -15.7433 -8.25691 
60.7034 -15.7433 -8.25691 53.3602 -15.7433 -0.752791 61.5023 -14.5235 -8.25691 
-56.3249 -7.60112 -8.25691 66.5574 -7.60112 -8.25691 61.5023 -7.60112 -2.90089 
-56.0399 0.541011 -8.25691 -60.6297 0.541011 -0.117565 68.4591 0.541011 -8.25691 
69.6445 5.07953 -8.25691 -54.7416 8.68315 -8.25691 -52.4876 12.8649 -8.25691 
69.6445 10.2423 -8.25691 69.6445 8.68315 -6.96398 -49.7075 16.8253 -8.25691 
-52.4876 16.8253 -5.69776 -44.3454 22.1685 -8.25691 66.4101 16.8253 -8.25691 
61.5023 21.8898 -8.25691 -39.5032 24.9674 -8.25691 -44.3454 24.9674 -5.67823 
-36.2033 26.2779 -8.25691 -28.0612 27.6338 -8.25691 -19.919 28.3112 -8.25691 
-11.7769 29.1112 -8.25691 -3.63475 29.2593 -8.25691 4.50738 29.2137 -8.25691 
12.6495 30.139 -8.25691 20.7917 30.1417 -8.25691 28.9338 29.8528 -8.25691 
37.0759 30.0438 -8.25691 45.2181 28.5328 -8.25691 56.9323 24.9674 -8.25691 
53.3602 27.416 -8.25691 53.3602 24.9674 -0.383814 -28.0612 33.1096 -0.124213 
-19.919 33.1096 -1.10563 -11.7769 33.1096 -0.76755 -36.2033 -34.9041 -0.114778 
-28.0612 -37.5737 -0.114778 -19.919 -38.9767 -0.114778 -11.7769 -39.3283 -0.114778 
-3.63475 -39.6409 -0.114778 4.50738 -39.6208 -0.114778 12.6495 -37.9877 -0.114778 
20.7917 -35.1199 -0.114778 28.9338 -32.5846 -0.114778 -41.6707 -32.0275 -0.114778 
-44.3454 -30.4077 -0.114778 20.7917 -32.0275 4.28416 30.7262 -32.0275 -0.114778 
28.9338 -32.0275 0.536075 37.0759 -28.9673 -0.114778 45.2181 -24.3588 -0.114778 
-51.9449 -23.8854 -0.114778 -52.4876 -23.2659 -0.114778 28.9338 -23.8854 6.29324 
37.0759 -23.8854 3.50431 45.7698 -23.8854 -0.114778 45.2181 -23.8854 0.239392 
-57.3727 -15.7433 -0.114778 28.9338 -15.7433 7.61082 37.0759 -15.7433 4.98307 
51.8502 -15.7433 -0.114778 45.2181 -15.7433 2.7109 53.3602 -13.2908 -0.114778 
-59.9091 -7.60112 -0.114778 -60.6297 0.526051 -0.114778 20.7917 -7.60112 8.00618 
28.9338 -7.60112 6.91832 37.0759 -7.60112 5.99375 45.2181 -7.60112 5.12839 
56.4581 -7.60112 -0.114778 53.3602 -7.60112 1.24468 61.5023 -2.90088 -0.114778 
-60.631 0.541011 -0.114778 -60.6297 0.556944 -0.114778 12.6495 0.541011 7.39518 
20.7917 0.541011 7.72628 45.2181 0.541011 5.96906 53.3602 0.541011 3.84481 
63.0735 0.541011 -0.114778 61.5023 0.541011 1.12789 -59.901 8.68315 -0.114778 
53.3602 8.68315 5.42203 63.3019 8.68315 -0.114778 61.5023 8.68315 1.19365 
-56.5534 16.8253 -0.114778 -52.4876 22.683 -0.114778 53.3602 24.8453 -0.114778 
53.3602 16.8253 7.14044 62.8834 16.8253 -0.114778 61.5023 18.6119 -0.114778 
61.5023 16.8253 1.07423 -50.2018 24.9674 -0.114778 -44.3454 28.683 -0.114778 
-36.2033 32.0531 -0.114778 -3.63475 32.2502 -0.114778 4.50738 31.7413 -0.114778 
12.6495 31.743 -0.114778 20.7917 30.7642 -0.114778 28.9338 29.9519 -0.114778 
37.0759 30.161 -0.114778 37.0759 24.9674 6.53411 53.1831 24.9674 -0.114778 
45.2181 28.1869 -0.114778 45.2181 24.9674 4.54198 -28.1084 33.1096 -0.114778 
-36.2033 33.1096 3.43987 -28.0612 33.115 -0.114778 -19.919 33.645 -0.114778 
-9.67835 33.1096 -0.114778 -11.7769 33.4083 -0.114778 -3.63475 33.1096 2.84956 
4.50738 33.1096 6.41571 -36.2033 -32.725 8.02736 -28.0612 -35.7252 8.02736 
-19.919 -36.5436 8.02736 -11.7769 -35.9051 8.02736 -3.63475 -35.6685 8.02736 
4.50738 -35.6549 8.02736 12.6495 -33.2004 8.02736 -37.5248 -32.0275 8.02736 
-44.3454 -27.8306 8.02736 -36.2033 -32.0275 9.25055 -28.0612 -32.0275 13.6502 
-19.919 -32.0275 14.2529 -11.7769 -32.0275 12.7684 -3.63475 -32.0275 11.9897 
4.50738 -32.0275 11.6056 14.8762 -32.0275 8.02736 12.6495 -32.0275 9.10657 
20.7917 -26.647 8.02736 -48.9869 -23.8854 8.02736 -52.4876 -20.0571 8.02736 
-44.3454 -23.8854 13.8091 12.6495 -23.8854 12.4035 24.3596 -23.8854 8.02736 
20.7917 -23.8854 9.29331 -55.395 -15.7433 8.02736 -52.4876 -15.7433 13.3347 
12.6495 -15.7433 12.8556 27.4271 -15.7433 8.02736 20.7917 -7.69247 8.02736 
20.7917 -15.7433 9.81152 -59.2705 -7.60112 8.02736 -60.6297 -1.52293 8.02736 
20.7384 -7.60112 8.02736 12.6495 -0.907531 8.02736 12.6495 -7.60112 15.7748 
28.9338 0.0929638 8.02736 37.0759 0.289765 8.02736 -61.0832 0.541011 8.02736 
-60.6297 7.40874 8.02736 -60.6297 0.541011 9.5156 11.9132 0.541011 8.02736 
12.6495 1.68315 8.02736 12.6495 0.541011 15.4984 27.4873 0.541011 8.02736 
20.7917 1.35245 8.02736 28.9338 0.541011 8.09287 37.3285 0.541011 8.02736 
37.0759 0.541011 8.09494 45.2181 7.88094 8.02736 -60.5455 8.68315 8.02736 
12.6495 8.68315 14.3029 20.7917 8.68315 10.9229 28.9338 8.68315 10.618 
37.0759 8.68315 9.24109 45.8003 8.68315 8.02736 45.2181 8.68315 8.25859 
-57.8877 16.8253 8.02736 -52.4876 24.7514 8.02736 20.7917 16.8253 13.0168 
28.9338 16.8253 10.816 37.0759 22.0342 8.02736 37.0759 16.8253 9.87792 
48.2135 16.8253 8.02736 45.2181 17.8179 8.02736 45.2181 16.8253 8.40198 
-52.2882 24.9674 8.02736 -44.3454 30.6912 8.02736 12.6495 31.8081 8.02736 
20.7917 27.8237 8.02736 20.7917 24.9674 11.8584 31.9709 24.9674 8.02736 
28.9338 25.6945 8.02736 28.9338 24.9674 8.75086 -38.9372 33.1096 8.02736 
-36.2033 34.3415 8.02736 -28.0612 35.756 8.02736 -19.919 36.5616 8.02736 
-11.7769 36.0686 8.02736 -3.63475 34.5579 8.02736 6.23526 33.1096 8.02736 
4.50738 33.4436 8.02736 -36.2033 -27.2524 16.1695 -28.0612 -29.7661 16.1695 
-19.919 -29.9123 16.1695 -11.7769 -27.8278 16.1695 -3.63475 -26.4006 16.1695 
[...]
POINT_DATA 501
SCALARS ImageScalars float
LOOKUP_TABLE default
0 0 0 0 0 0 0 0 0 
0 0 0 0 0 0 0 0 0 
0 0 0 0 0 0 0 0 0 
0 0 0 0 0 0 0 0 0 
0 0 0 0 0 0 0 0 0 
0 0 0 0 0 0 0 0 0 
0 0 0 0 0 0 0 0 0 
0 0 0 0 0 0 0 0 0 
0 0 0 0 0 0 0 0 0 
0 0 0 0 0 0 0 0 0 
0 0 0 0 0 0 0 0 0 
0 0 0 0 0 0 0 0 0 
0 0 0 0 0 0 0 0 0 
0 0 0 0 0 0 0 0 0 
0 0 0 0 0 0 0 0 0 
0 0 0 0 0 0 0 0 0 
0 0 0 0 0 0 0 0 0 
0 0 0 0 0 0 0 0 0 
0 0 0 0 0 0 0 0 0 
0 0 0 0 0 0 0 0 0 
0 0 0 0 0 0 0 0 0 
0 0 0 0 0 0 0 0 0 
0 0 0 0 0 0 0 0 0 
0 0 0 0 0 0 0 0 0 
0 0 0 0 0 0 0 0 0 
0 0 0 0 0 0 0 0 0 
0 0 0 0 0 0 0 0 0 
0 0 0 0 0 0 0 0 0 
0 0 0 0 0 0 0 0 0 
0 0 0 0 0 0 0 0 0 
0 0 0 0 0 0 0 0 0 
0 0 0 0 0 0 0 0 0 
0 0 0 0 0 0 0 0 0 
0 0 0 0 0 0 0 0 0 
0 0 0 0 0 0 0 0 0 
0 0 0 0 0 0 0 0 0 
0 0 0 0 0 0 0 0 0 
0 0 0 0 0 0 0 0 0 
0 0 0 0 0 0 0 0 0 
0 0 0 0 0 0 0 0 0 
0 0 0 0 0 0 0 0 0 
0 0 0 0 0 0 0 0 0 
0 0 0 0 0 0 0 0 0 
0 0 0 0 0 0 0 0 0 
0 0 0 0 0 0 0 0 0 
0 0 0 0 0 0 0 0 0 
0 0 0 0 0 0 0 0 0 
0 0 0 0 0 0 0 0 0 
0 0 0 0 0 0 0 0 0 
0 0 0 0 0 0 0 0 0 
0 0 0 0 0 0 0 0 0 
0 0 0 0 0 0 0 0 0 
0 0 0 0 0 0 0 0 0 
0 0 0 0 0 0 0 0 0 
0 0 0 0 0 0 0 0 0 
0 0 0 0 0 0 
NORMALS Normals float
-0.055111 0.129774 0.990011 -0.0314416 -0.0189735 0.999326 -0.0258716 -0.214662 0.976346 
0.235254 0.616937 0.751029 0.100776 0.568673 0.816367 0.00742209 0.470992 0.882107 
0.0181186 0.459515 0.887985 0.0272731 0.531738 0.846469 -0.0180943 0.635898 0.771561 
-0.182701 0.705922 0.68432 -0.316115 0.843041 0.435147 0.266607 0.408843 0.872793 
0.167219 0.330283 0.928951 0.172247 0.220685 0.960015 0.0147572 0.153213 0.988083 
-0.0816486 0.0935563 0.99226 0.0490776 0.0127467 0.998714 0.118729 0.108186 0.987015 
0.0439043 0.149686 0.987758 -0.00640659 0.215562 0.976469 -0.20032 0.376005 0.904706 
-0.36272 0.509034 0.780589 0.436633 0.147738 0.887426 0.203908 0.0867181 0.975142 
0.0815886 0.0493371 0.995444 0.0635125 -0.0396977 0.997191 -0.0302823 -0.0916396 0.995332 
-0.163145 -0.0651097 0.984451 0.0322663 -0.0901862 0.995402 0.194607 -0.0851813 0.977176 
0.119247 -0.0959547 0.988217 0.0335102 -0.021217 0.999213 -0.0131818 0.0554318 0.998375 
-0.0596193 0.186651 0.980616 -0.0881622 0.311296 0.946215 -0.409773 0.386875 0.826084 
0.390348 -0.0615654 0.918607 0.162502 -0.0921917 0.982392 0.0415572 -0.0981206 0.994306 
0.0305544 -0.111908 0.993249 -0.0116224 -0.0956599 0.995346 -0.0753081 -0.0653495 0.995017 
0.0349898 0.137894 0.989829 0.103703 0.00227297 0.994606 0.115372 -0.113231 0.986848 
0.145997 -0.0510596 0.987967 0.0390036 0.0915502 0.995036 0.134591 0.049861 0.989646 
-0.100694 0.117671 0.987934 -0.247193 0.101535 0.963632 -0.58641 0.383328 0.713571 
0.350398 -0.17223 0.920629 0.192361 -0.172507 0.966043 0.0687331 -0.13708 0.988172 
0.0699243 -0.0864809 0.993797 0.00740729 -0.00252167 0.999969 0.0646574 -0.0109753 0.997847 
0.110558 0.0144473 0.993765 -0.0605218 0.0777027 0.995138 0.0661188 0.0321324 0.997294 
0.194223 0.0110471 0.980895 0.138119 -0.00793401 0.990384 0.172295 -0.00601133 0.985027 
-0.145814 0.00629062 0.989292 -0.227541 0.0233698 0.973488 -0.459019 0.0661862 0.885958 
0.211437 -0.232935 0.949229 0.126333 -0.225177 0.966093 0.16619 -0.201513 0.965284 
0.0671386 -0.119124 0.990607 -0.0559897 -0.00145786 0.99843 0.119445 -0.189595 0.97457 
0.113714 -0.086011 0.989783 0.0533969 0.00617081 0.998554 0.107271 -0.0382775 0.993493 
0.00631509 -0.196676 0.980448 0.10785 -0.134167 0.985072 -0.0503516 -0.193813 0.979746 
-0.0223849 -0.22465 0.974182 -0.181497 -0.0820556 0.979962 -0.400025 -0.236102 0.885571 
0.1413 -0.407849 0.902049 0.213963 -0.398643 0.891798 0.00810221 -0.262159 0.964991 
0.00614015 -0.291622 0.956514 0.135517 -0.341704 0.929986 0.101412 -0.291136 0.951291 
0.0583617 -0.303883 0.95092 0.00810987 -0.356789 0.93415 0.00708778 -0.38159 0.924305 
-0.216848 -0.435983 0.873439 -0.545491 -0.526594 0.652027 0.0716386 -0.677115 0.732382 
0.0135439 -0.708806 0.705274 -0.0238705 -0.726897 0.686331 -0.111275 -0.807235 0.579646 
0.237545 0.676146 0.697423 0.124882 0.739566 0.661397 0.0348481 0.691462 0.721572 
0.0012867 0.699347 0.714781 -0.0290978 0.760083 0.649175 -0.080889 0.844363 0.52963 
-0.20903 0.864585 0.456946 -0.316449 0.844536 0.431995 0.288083 0.551221 0.783048 
0.362498 0.823945 0.435557 0.247715 0.651887 0.716715 0.236496 0.590478 0.771625 
0.267116 0.724925 0.634928 -0.317898 0.844214 0.43156 -0.428764 0.776709 0.461394 
0.422794 0.429958 0.797735 0.476421 0.27278 0.835831 0.537957 0.494061 0.683012 
-0.589439 0.682367 0.432362 -0.603802 0.676256 0.42202 0.481536 0.161357 0.861445 
0.740942 0.27893 0.610904 -0.678976 0.593557 0.432067 -0.708937 0.566883 0.419585 
0.448787 -0.0442873 0.892541 0.673899 0.0172768 0.738621 -0.796336 0.424343 0.431025 
0.353134 -0.171948 0.919636 0.615613 -0.131154 0.777058 0.351133 -0.174269 0.919965 
-0.906616 0.105166 0.408642 0.598381 -0.254384 0.759756 0.253313 -0.23121 0.939348 
0.373482 -0.241263 0.895714 0.208627 -0.262255 0.942177 0.106534 -0.357564 0.927792 
-0.851766 -0.248819 0.461069 -0.979745 -0.196925 0.0363311 0.397319 -0.413519 0.819231 
0.2063 -0.361781 0.90915 0.135067 -0.405608 0.904013 0.0999425 -0.39307 0.914061 
0.141027 -0.411368 0.900493 0.202593 -0.528088 0.824669 0.0398382 -0.613256 0.788879 
0.0283726 -0.520628 0.853312 0.110364 -0.607662 0.78649 -0.289949 -0.744361 0.601545 
-0.643414 -0.544866 0.537717 -0.55901 -0.622773 0.547414 0.221083 -0.674764 0.704142 
0.0825197 -0.651509 0.754139 0.102623 -0.63834 0.762883 0.146098 -0.687496 0.71134 
0.0360543 -0.741415 0.670077 0.0487615 -0.708222 0.704304 0.0808256 -0.668574 0.73924 
0.105592 -0.657858 0.745703 0.0696103 -0.685468 0.724768 0.0126948 -0.747594 0.664035 
-0.0278206 -0.742924 0.668797 -0.140799 -0.811835 0.566656 -0.11229 -0.821319 0.559308 
-0.345477 -0.849016 0.399772 0.376895 0.858048 0.348859 0.260474 0.898367 0.353682 
0.1947 0.938655 0.284638 0.120244 0.974496 0.189472 0.0492852 0.986355 0.157081 
-0.0560044 0.985742 0.158673 -0.159688 0.982649 0.0943449 -0.189242 0.981698 -0.0213756 
-0.267025 0.959451 -0.0902824 -0.35774 0.92823 -0.10204 0.420865 0.842234 0.336918 
0.549841 0.767078 0.330554 -0.378103 0.917657 -0.122241 -0.376858 0.893314 -0.244883 
-0.469383 0.861679 -0.192843 0.696234 0.614054 0.371748 0.777144 0.467902 0.420851 
-0.634781 0.731661 -0.248444 -0.638282 0.72791 -0.250486 0.834708 0.311547 0.454095 
-0.780788 0.549345 -0.297642 -0.483379 0.359027 -0.798401 -0.789088 0.531321 -0.308282 
0.833277 0.0587189 0.549729 -0.813911 0.446535 -0.371693 -0.621441 0.436564 -0.650556 
0.789283 -0.0732139 0.609649 0.96591 0.00261793 0.258863 -0.906984 0.230975 -0.352179 
-0.964207 0.0150069 -0.264727 0.67913 -0.245538 0.691733 0.626165 -0.342914 0.700234 
-0.961599 -0.225735 -0.156111 -0.958417 -0.138972 -0.249247 0.563604 -0.43157 0.704342 
0.680924 -0.444759 0.581835 0.402884 -0.557318 0.726004 -0.855859 -0.513848 -0.0588767 
-0.623578 -0.781757 0.00270554 0.287004 -0.668255 0.686341 0.401497 -0.681542 0.611801 
0.213001 -0.71812 0.662521 0.0962382 -0.736365 0.669706 0.0739551 -0.741245 0.667148 
0.046899 -0.815503 0.576849 0.00491544 -0.892862 0.450304 0.0504873 -0.893484 0.446249 
0.0527544 -0.928192 0.368343 -0.0173645 -0.961204 0.275292 -0.00643208 -0.974715 0.223357 
-0.0829925 -0.969491 0.23065 -0.142012 -0.977238 0.157602 -0.461639 -0.885171 0.0579742 
-0.369345 -0.923066 0.107394 -0.516487 -0.707177 -0.482849 0.0841716 -0.900821 0.425954 
0.0234211 -0.89675 0.441918 -0.0732502 -0.919066 0.387236 0.397816 0.917093 -0.0261204 
0.231668 0.972744 -0.0100054 0.103085 0.992071 -0.0718871 0.0399803 0.983999 -0.173631 
0.0175486 0.974989 -0.221557 -0.0939264 0.970514 -0.221994 -0.254787 0.922876 -0.288763 
-0.301396 0.852868 -0.426352 -0.281402 0.776504 -0.563786 0.506344 0.86179 -0.0305675 
0.56619 0.823471 -0.0364016 -0.361946 0.696049 -0.620089 -0.304101 0.763938 -0.56914 
-0.286492 0.751762 -0.59395 -0.385676 0.657869 -0.646887 -0.453194 0.48925 -0.745151 
0.735647 0.67672 -0.0295527 0.7539 0.656565 -0.0236255 -0.300232 0.330605 -0.894741 
-0.371951 0.379522 -0.847122 -0.449145 0.482269 -0.752121 -0.443383 0.464654 -0.766491 
0.907885 0.418588 0.0230122 -0.287322 0.0283449 -0.957415 -0.262469 0.129391 -0.956226 
-0.443571 0.328047 -0.834044 -0.359464 0.298738 -0.884048 -0.445194 0.311801 -0.839394 
0.972223 0.178966 0.150845 0.965984 0.00295172 0.258586 -0.26887 -0.133124 -0.953932 
-0.115773 0.0317828 -0.992767 -0.102909 0.182629 -0.977781 -0.2635 0.169968 -0.949568 
-0.456741 0.318823 -0.830506 -0.400692 0.25349 -0.880448 -0.561531 0.291635 -0.774359 
0.965934 0.00262625 0.258775 0.965935 0.0022263 0.258774 -0.621309 0.100726 -0.777065 
0.0463525 0.181773 -0.982247 -0.232888 0.172815 -0.957026 -0.331693 0.256453 -0.907861 
-0.639787 0.198374 -0.742509 -0.540561 0.186763 -0.820313 0.942713 -0.207245 0.261421 
-0.343465 0.141725 -0.92841 -0.652346 -0.0115788 -0.757833 -0.579993 -0.00329278 -0.814615 
0.82842 -0.447631 0.33667 0.696128 -0.635946 0.333134 -0.51664 -0.692794 -0.50311 
-0.458035 -0.174045 -0.871729 -0.688842 -0.32421 -0.648371 -0.629498 -0.419593 -0.653967 
-0.619487 -0.314845 -0.719102 0.598357 -0.725903 0.339165 0.421656 -0.83622 0.35063 
0.240666 -0.879035 0.411556 -0.0956146 -0.948851 0.300897 -0.0293481 -0.970859 0.237846 
-0.0573433 -0.993912 0.0940745 -0.111627 -0.987382 -0.112326 -0.0381504 -0.975372 -0.217241 
-0.11537 -0.952655 -0.281315 -0.181951 -0.587685 -0.788366 -0.512876 -0.699181 -0.4981 
-0.260331 -0.904742 -0.337149 -0.295397 -0.693377 -0.657243 0.0850314 -0.900875 0.425669 
0.271025 -0.922143 0.276041 0.08414 -0.900929 0.425732 0.0165807 -0.908067 0.418497 
-0.0851325 -0.93063 0.355922 -0.0806903 -0.924076 0.373594 -0.121305 -0.960246 0.251423 
-0.138319 -0.980285 0.141098 0.3928 0.846865 -0.358508 0.203939 0.900991 -0.382914 
0.0127769 0.895655 -0.444566 -0.0480896 0.841341 -0.538361 -0.0132721 0.807044 -0.590342 
-0.116105 0.778854 -0.616366 -0.330211 0.633879 -0.699398 0.419298 0.833934 -0.358807 
0.56059 0.746114 -0.35924 0.386929 0.832708 -0.396085 0.157955 0.780161 -0.605309 
-0.042494 0.730962 -0.681094 -0.096689 0.704819 -0.702767 -0.0526251 0.681422 -0.729996 
-0.145126 0.631428 -0.761733 -0.350372 0.592176 -0.72565 -0.335279 0.574326 -0.746818 
-0.362034 0.362764 -0.858681 0.650296 0.677283 -0.344096 0.737285 0.590909 -0.327471 
0.520259 0.671056 -0.528217 -0.390166 0.18761 -0.901428 -0.315736 0.270288 -0.909536 
-0.342053 0.233138 -0.9103 0.804305 0.504163 -0.314505 0.716769 0.502628 -0.483329 
-0.445529 0.0946708 -0.890248 -0.289326 0.00636492 -0.957209 -0.269577 -0.13241 -0.953832 
-0.30105 -0.0647679 -0.951406 0.927232 0.297346 -0.227651 0.979719 0.133237 -0.149665 
-0.271048 -0.134729 -0.95309 -0.660564 -0.0117233 -0.750678 -0.747987 0.202288 -0.632136 
0.0142445 0.211702 -0.977231 -0.127045 0.199719 -0.971582 0.989199 0.0769941 -0.124731 
0.981398 -0.139317 -0.132096 0.978141 0.0809462 -0.191541 -0.698977 0.101105 -0.707961 
-0.626026 0.188982 -0.756557 -0.873014 -0.0745102 -0.48197 0.0260081 0.215378 -0.976184 
0.0328947 0.194831 -0.980285 0.0215262 0.222151 -0.974775 -0.131449 0.199283 -0.971086 
-0.128257 0.200256 -0.971312 -0.248947 0.146995 -0.957297 0.975066 -0.177762 -0.132839 
-0.66459 0.250487 -0.703972 -0.155093 0.297458 -0.942053 -0.102576 0.167642 -0.980497 
-0.139615 0.103472 -0.984785 -0.256468 0.14697 -0.955314 -0.250965 0.146111 -0.956905 
0.906143 -0.416823 -0.0718545 0.715212 -0.697817 -0.0390393 -0.425987 0.0842107 -0.900802 
-0.178041 -0.092124 -0.979701 -0.17577 -0.380648 -0.907861 -0.135479 -0.131197 -0.982055 
-0.280444 -0.16533 -0.945525 -0.176653 -0.227379 -0.957649 -0.164812 -0.172732 -0.971082 
0.706611 -0.7066 -0.0376402 0.470919 -0.880883 0.047745 -0.313926 -0.944887 -0.092948 
-0.396094 -0.762239 -0.511958 -0.529088 -0.503069 -0.683365 -0.21418 -0.571378 -0.792247 
-0.220174 -0.636477 -0.739202 -0.243878 -0.586415 -0.772425 0.354239 -0.9305 0.0931912 
0.30125 -0.947655 0.105824 0.12606 -0.973246 0.192098 0.0187153 -0.977197 0.211507 
-0.120511 -0.975677 0.183118 -0.159747 -0.972979 0.16671 -0.190479 -0.978318 0.0813066 
-0.163365 -0.979416 0.118558 0.319742 0.686091 -0.653487 0.114494 0.691303 -0.713436 
-0.0676126 0.64447 -0.761634 -0.124439 0.568317 -0.813345 -0.115128 0.529963 -0.840169 
-0.295284 0.327214 -0.897629 0.433398 0.646742 -0.627607 0.492955 0.621708 -0.608667 
0.277465 0.600912 -0.749612 0.0513937 0.544075 -0.837461 -0.113634 0.481114 -0.869262 
-0.136559 0.47691 -0.868279 -0.131472 0.489501 -0.862035 -0.298744 0.321633 -0.898501 
-0.29712 0.324264 -0.898094 0.631077 0.500252 -0.592865 0.695468 0.432861 -0.573547 
0.441762 0.482603 -0.756268 0.198087 0.426484 -0.882538 -0.166818 0.361117 -0.917478 
-0.137254 0.344217 -0.928804 -0.193891 0.275791 -0.941459 -0.506906 0.207404 -0.836678 
-0.501765 0.204642 -0.840448 0.757755 0.338691 -0.55776 0.674575 0.323413 -0.66359 
-0.292178 0.144495 -0.945385 -0.739247 0.224598 -0.634877 -0.379247 0.0751232 -0.922241 
-0.855405 0.0110882 -0.51784 0.839825 0.0991239 -0.53373 0.62898 0.0868455 -0.772556 
-0.457435 0.226529 -0.859906 -0.449746 0.181148 -0.874594 -0.882738 -0.0852377 -0.462069 
-0.878302 -0.0744022 -0.472282 -0.880954 -0.0865124 -0.465226 0.83589 -0.144795 -0.529455 
0.673179 -0.0951076 -0.733338 -0.716601 0.181879 -0.673352 -0.495994 0.347252 -0.795868 
-0.71683 0.180184 -0.673564 0.805077 -0.357241 -0.473529 0.746456 -0.511975 -0.425072 
0.719753 -0.312014 -0.620163 -0.621373 0.205925 -0.75597 -0.672068 0.238529 -0.70102 
0.66953 -0.63234 -0.389711 0.56758 -0.758532 -0.320127 0.558887 -0.539618 -0.629649 
-0.677528 -0.315262 -0.664504 -0.654931 -0.604888 -0.452964 -0.678211 -0.241398 -0.694087 
0.403206 -0.883575 -0.238161 0.363028 -0.900056 -0.241062 0.364547 -0.870338 -0.331085 
0.185154 -0.972107 -0.143967 0.218801 -0.766809 -0.603432 0.0021223 -0.990067 -0.140583 
-0.125013 -0.978327 -0.16507 -0.139253 -0.767986 -0.625145 -0.168879 -0.970581 -0.171614 
-0.178807 -0.873215 -0.453348 -0.313644 -0.922858 -0.223518 -0.258293 -0.946384 -0.194014 
-0.268451 -0.924607 -0.270252 -0.00660238 0.415802 -0.909431 0.376516 0.307686 -0.873822 
0.178933 0.423891 -0.887862 0.196785 0.422429 -0.884776 -0.118062 0.372429 -0.92052 
-0.0154164 0.392587 -0.919586 -0.168924 0.351113 -0.920969 -0.221151 0.307618 -0.925453 
0.405188 0.279686 -0.870401 0.367178 0.275338 -0.888464 0.163091 0.261803 -0.951242 
-0.0273804 0.258507 -0.965621 -0.174977 0.279708 -0.944005 -0.250757 0.268951 -0.929939 
-0.239253 0.299926 -0.923473 0.488912 0.0905193 -0.867624 0.370591 0.106577 -0.922661 
0.166367 0.113103 -0.979556 -0.00203362 0.142912 -0.989733 -0.117084 0.195942 -0.9736 
-0.456002 0.226983 -0.860547 -0.253169 0.252541 -0.933878 -0.456422 0.226468 -0.86046 
0.526667 -0.0628668 -0.847744 0.394329 -0.0508141 -0.917564 0.203583 0.00241098 -0.979055 
0.056769 0.0491928 -0.997175 -0.0698577 0.104144 -0.992106 -0.208931 0.121603 -0.97034 
-0.42876 0.301775 -0.851526 -0.350431 0.194759 -0.916115 -0.431419 0.266983 -0.861741 
0.512669 -0.246871 -0.822329 0.487442 -0.327663 -0.809344 0.453629 -0.236259 -0.859303 
0.255535 -0.139474 -0.956686 0.101122 -0.0785239 -0.99177 -0.0389765 -0.0474705 -0.998112 
-0.168438 -0.0474641 -0.984569 -0.221861 0.0305168 -0.974601 -0.468641 0.185067 -0.863786 
-0.367294 0.146149 -0.918551 0.447111 -0.460733 -0.766692 0.368362 -0.572009 -0.732882 
0.357444 -0.432671 -0.827666 0.217417 -0.731838 -0.645866 0.155959 -0.310789 -0.937596 
-0.0364095 -0.291866 -0.955766 -0.137596 -0.718962 -0.681293 -0.132213 -0.274061 -0.952581 
-0.172709 -0.590136 -0.788614 -0.157853 -0.275929 -0.948127 -0.442106 -0.242814 -0.863472 
-0.307518 -0.421447 -0.853121 -0.288802 -0.248227 -0.924649 0.145149 -0.749399 -0.646013 
-0.0851259 -0.743607 -0.663176 -0.00523757 -0.753042 -0.657951 -0.00568509 -0.731085 -0.682263 

