# vtk DataFile Version 4.2
vtk output
ASCII
DATASET POLYDATA
POINTS 516 float
-20.7669 -40.027 -15.768 -13.0852 -40.027 -16.9505 -5.40338 -40.027 -18.1351 
2.2784 -40.027 -18.0289 9.96019 -40.027 -16.8717 17.642 -40.027 -15.6033 
-28.4487 -32.3452 -16.374 -20.7669 -32.3452 -18.3531 -13.0852 -32.3452 -19.2915 
-5.40338 -32.3452 -20.077 2.2784 -32.3452 -20.3115 9.96019 -32.3452 -19.5015 
17.642 -32.3452 -18.9934 25.3238 -32.3452 -17.8331 33.0055 -32.3452 -16.7533 
-36.1305 -24.6634 -15.2703 -28.4487 -24.6634 -17.5569 -20.7669 -24.6634 -18.8718 
-13.0852 -24.6634 -19.6236 -5.40338 -24.6634 -20.4333 2.2784 -24.6634 -20.6397 
9.96019 -24.6634 -19.6374 17.642 -24.6634 -19.3816 25.3238 -24.6634 -20.1222 
33.0055 -24.6634 -18.5862 40.6873 -24.6634 -17.4549 -36.1305 -16.9816 -15.8968 
-28.4487 -16.9816 -17.7452 -20.7669 -16.9816 -18.6767 -13.0852 -16.9816 -18.9006 
-5.40338 -16.9816 -20.0321 2.2784 -16.9816 -20.0181 9.96019 -16.9816 -18.3376 
17.642 -16.9816 -18.4569 25.3238 -16.9816 -19.382 33.0055 -16.9816 -19.9309 
40.6873 -16.9816 -19.4159 48.3691 -16.9816 -14.9993 -36.1305 -9.29987 -15.6772 
-28.4487 -9.29987 -16.786 -20.7669 -9.29987 -16.7802 -13.0852 -9.29987 -17.7425 
-5.40338 -9.29987 -19.4541 2.2784 -9.29987 -19.6159 9.96019 -9.29987 -17.5314 
17.642 -9.29987 -17.5324 25.3238 -9.29987 -18.784 33.0055 -9.29987 -19.4193 
40.6873 -9.29987 -18.8993 48.3691 -9.29987 -15.9722 -43.8123 -1.61808 -13.6353 
-36.1305 -1.61808 -15.9592 -28.4487 -1.61808 -16.2073 -20.7669 -1.61808 -15.9989 
-13.0852 -1.61808 -17.5606 -5.40338 -1.61808 -18.103 2.2784 -1.61808 -17.3761 
9.96019 -1.61808 -20.095 17.642 -1.61808 -17.7192 25.3238 -1.61808 -18.7137 
33.0055 -1.61808 -19.3228 40.6873 -1.61808 -18.6482 48.3691 -1.61808 -16.0878 
-43.8123 6.0637 -14.1513 -36.1305 6.0637 -16.2488 -28.4487 6.0637 -17.4746 
-20.7669 6.0637 -17.5823 -13.0852 6.0637 -18.0826 -5.40338 6.0637 -19.3713 
2.2784 6.0637 -19.5296 9.96019 6.0637 -18.6779 17.642 6.0637 -17.6366 
25.3238 6.0637 -18.7392 33.0055 6.0637 -19.2931 40.6873 6.0637 -18.5905 
48.3691 6.0637 -15.4026 -43.8123 13.7455 -14.1843 -36.1305 13.7455 -17.507 
-28.4487 13.7455 -18.8214 -20.7669 13.7455 -18.8 -13.0852 13.7455 -17.9891 
-5.40338 13.7455 -17.572 2.2784 13.7455 -18.404 9.96019 13.7455 -17.7027 
17.642 13.7455 -18.4408 25.3238 13.7455 -19.2419 33.0055 13.7455 -19.6707 
40.6873 13.7455 -18.5727 48.3691 13.7455 -13.4806 -36.1305 21.4273 -17.3983 
-28.4487 21.4273 -19.9413 -20.7669 21.4273 -19.6977 -13.0852 21.4273 -18.7366 
-5.40338 21.4273 -18.6327 2.2784 21.4273 -18.6595 9.96019 21.4273 -18.9696 
17.642 21.4273 -19.5261 25.3238 21.4273 -19.1553 33.0055 21.4273 -18.5824 
40.6873 21.4273 -16.1211 -36.1305 29.1091 -15.7937 -28.4487 29.1091 -18.3942 
-20.7669 29.1091 -19.6494 -13.0852 29.1091 -18.9894 -5.40338 29.1091 -19.2378 
2.2784 29.1091 -19.4663 9.96019 29.1091 -19.1676 17.642 29.1091 -18.9247 
25.3238 29.1091 -18.4277 33.0055 29.1091 -17.0865 -28.4487 36.7908 -14.7477 
-20.7669 36.7908 -17.3391 -13.0852 36.7908 -17.79 -5.40338 36.7908 -18.1678 
2.2784 36.7908 -18.0823 9.96019 36.7908 -17.5991 17.642 36.7908 -16.4508 
25.3238 36.7908 -14.9208 -5.40338 44.4726 -13.1963 -20.7669 -43.0842 -12.998 
-13.0852 -45.0154 -12.998 -13.0852 -47.7088 -6.81198 -5.40338 -46.1614 -12.998 
-5.40338 -47.7088 -6.20065 2.2784 -45.3366 -12.998 9.96019 -43.8248 -12.998 
17.642 -41.9865 -12.998 -26.5286 -40.027 -12.998 -28.4487 -38.2934 -12.998 
-28.4487 -40.027 -11.3225 23.6379 -40.027 -12.998 25.3238 -39.2556 -12.998 
25.3238 -40.027 -9.54963 33.0055 -36.3749 -12.998 -34.1659 -32.3452 -12.998 
-36.1305 -29.9466 -12.998 -36.1305 -32.3452 -11.1447 39.5584 -32.3452 -12.998 
40.6873 -31.4407 -12.998 40.6873 -32.3452 -9.23586 -39.0314 -24.6634 -12.998 
-43.8123 -24.6634 -6.20396 46.2066 -24.6634 -12.998 48.3691 -20.9342 -12.998 
48.3691 -24.6634 -6.78705 -40.852 -16.9816 -12.998 -43.8123 -16.9816 -10.4839 
50.4946 -16.9816 -12.998 -43.5358 -9.29987 -12.998 -43.8123 -8.21582 -12.998 
-43.8123 -9.29987 -12.8518 51.8935 -9.29987 -12.998 -44.9981 -1.61808 -12.998 
51.9599 -1.61808 -12.998 -45.302 6.0637 -12.998 51.1258 6.0637 -12.998 
-45.1724 13.7455 -12.998 -43.8123 20.4871 -12.998 48.887 13.7455 -12.998 
48.3691 14.867 -12.998 -43.5452 21.4273 -12.998 -43.8123 21.4273 -12.675 
44.7397 21.4273 -12.998 40.6873 27.4742 -12.998 48.3691 21.4273 -5.85085 
-39.7642 29.1091 -12.998 -36.1305 33.2332 -12.998 39.2899 29.1091 -12.998 
33.0055 34.2607 -12.998 40.6873 29.1091 -11.0899 -31.5802 36.7908 -12.998 
-36.1305 36.7908 -6.92682 -28.4487 38.6638 -12.998 -20.7669 41.2973 -12.998 
-13.0852 43.5216 -12.998 2.2784 44.2974 -12.998 9.96019 42.6862 -12.998 
17.642 40.655 -12.998 29.0566 36.7908 -12.998 25.3238 38.5559 -12.998 
33.0055 36.7908 -7.83496 -6.77042 44.4726 -12.998 -13.0852 44.4726 -10.6103 
-0.999015 44.4726 -12.998 -5.40338 44.6331 -12.998 2.2784 44.4726 -12.5651 
9.96019 44.4726 -7.94933 -13.0852 -48.1961 -5.31619 -5.40338 -47.8634 -5.31619 
-28.4487 -43.5908 -5.31619 -16.21 -47.7088 -5.31619 -20.7669 -46.9508 -5.31619 
-13.0852 -47.7088 -3.43375 -4.03256 -47.7088 -5.31619 -5.40338 -47.7088 -4.89391 
2.2784 -46.8463 -5.31619 9.96019 -44.2924 -5.31619 17.642 -42.5925 -5.31619 
25.3238 -40.6959 -5.31619 -33.5774 -40.027 -5.31619 -36.1305 -37.5312 -5.31619 
17.642 -40.027 -0.62815 27.592 -40.027 -5.31619 25.3238 -40.027 -4.03915 
33.0055 -38.0094 -5.31619 40.6873 -33.1279 -5.31619 -39.9804 -32.3452 -5.31619 
-43.8123 -25.6742 -5.31619 41.6267 -32.3452 -5.31619 40.6873 -32.3452 -3.85491 
48.3691 -25.3169 -5.31619 -44.3182 -24.6634 -5.31619 48.8568 -24.6634 -5.31619 
48.3691 -24.6634 -4.19078 -47.4745 -16.9816 -5.31619 52.906 -16.9816 -5.31619 
-50.2652 -9.29987 -5.31619 54.9108 -9.29987 -5.31619 -51.2097 -1.61808 -5.31619 
-51.4941 -1.61808 0.0126856 55.4581 -1.61808 -5.31619 -51.0224 6.0637 -5.31619 
54.676 6.0637 -5.31619 -49.6534 13.7455 -5.31619 52.513 13.7455 -5.31619 
-47.4105 21.4273 -5.31619 -43.8123 28.1003 -5.31619 48.5665 21.4273 -5.31619 
48.3691 21.7444 -5.31619 48.3691 21.4273 -3.96648 -43.1796 29.1091 -5.31619 
43.3343 29.1091 -5.31619 40.6873 32.0307 -5.31619 -36.8019 36.7908 -5.31619 
-36.1305 37.4249 -5.31619 -36.1305 36.7908 -2.18481 -28.4487 41.9473 -5.31619 
-20.7669 44.4006 -5.31619 17.642 43.2387 -5.31619 25.3238 40.8919 -5.31619 
34.3834 36.7908 -5.31619 33.0055 37.7306 -5.31619 33.0055 36.7908 -1.86373 
-20.4325 44.4726 -5.31619 -13.0852 45.9832 -5.31619 -13.0852 44.4726 0.784769 
-5.40338 46.6239 -5.31619 2.2784 46.38 -5.31619 2.2784 44.4726 2.03326 
12.7857 44.4726 -5.31619 9.96019 45.1779 -5.31619 9.96019 44.4726 -2.64461 
-28.4487 -43.3496 2.3656 -20.7669 -46.0934 2.3656 -13.0852 -46.1394 2.3656 
-5.40338 -44.7697 2.3656 2.2784 -42.5816 2.3656 9.96019 -40.2906 2.3656 
-33.0432 -40.027 2.3656 -36.1305 -36.8542 2.3656 -28.4487 -40.027 9.79702 
-5.40338 -40.027 9.4181 2.2784 -40.027 6.19389 10.8234 -40.027 2.3656 
9.96019 -40.027 2.7094 17.642 -38.155 2.3656 25.3238 -36.2826 2.3656 
33.0055 -33.4692 2.3656 -39.5102 -32.3452 2.3656 -43.8123 -24.8043 2.3656 
-36.1305 -32.3452 9.32221 25.3238 -32.3452 7.42526 35.0721 -32.3452 2.3656 
33.0055 -32.3452 3.73021 40.6873 -28.7266 2.3656 -43.8839 -24.6634 2.3656 
-43.8123 -24.6634 2.53719 44.9238 -24.6634 2.3656 40.6873 -24.6634 6.38416 
48.3691 -20.2122 2.3656 -47.7343 -16.9816 2.3656 50.3275 -16.9816 2.3656 
48.3691 -16.9816 5.05262 -50.5301 -9.29987 2.3656 -51.4941 -2.47601 2.3656 
53.1145 -9.29987 2.3656 48.3691 -9.29987 9.28188 -51.6055 -1.61808 2.3656 
-51.4941 0.189707 2.3656 -51.4941 -1.61808 2.7051 54.0274 -1.61808 2.3656 
-51.1333 6.0637 2.3656 53.6 6.0637 2.3656 -49.2702 13.7455 2.3656 
51.2408 13.7455 2.3656 48.3691 19.6117 2.3656 48.3691 13.7455 7.77564 
-46.6502 21.4273 2.3656 -43.8123 26.7253 2.3656 -43.8123 21.4273 9.42419 
47.3703 21.4273 2.3656 -42.3565 29.1091 2.3656 -36.1305 35.6851 2.3656 
33.0055 35.6691 2.3656 41.5114 29.1091 2.3656 40.6873 29.9278 2.3656 
40.6873 29.1091 3.79468 -34.5163 36.7908 2.3656 -28.4487 40.1292 2.3656 
-20.7669 42.5813 2.3656 -13.0852 44.065 2.3656 2.2784 44.3846 2.3656 
9.96019 43.0901 2.3656 17.642 41.2808 2.3656 30.5748 36.7908 2.3656 
25.3238 38.9973 2.3656 25.3238 36.7908 7.97274 -8.65171 44.4726 2.3656 
0.552383 44.4726 2.3656 -5.40338 44.7622 2.3656 -5.40338 44.4726 3.05775 
-20.7669 -42.1781 10.0474 -13.0852 -41.8667 10.0474 -28.0492 -40.027 10.0474 
-28.4487 -39.8696 10.0474 -20.7669 -40.027 12.4468 -6.95385 -40.027 10.0474 
-13.0852 -40.027 12.1442 -5.40338 -39.4965 10.0474 2.2784 -37.0813 10.0474 
9.96019 -34.7928 10.0474 17.642 -32.4013 10.0474 -35.6834 -32.3452 10.0474 
-36.1305 -31.6248 10.0474 -28.4487 -32.3452 15.8475 -5.40338 -32.3452 16.7507 
2.2784 -32.3452 14.7921 9.96019 -32.3452 12.9393 17.8316 -32.3452 10.0474 
17.642 -32.3452 10.11 25.3238 -29.3823 10.0474 33.0055 -25.3355 10.0474 
-39.9082 -24.6634 10.0474 -43.8123 -17.0228 10.0474 -36.1305 -24.6634 13.7254 
17.642 -24.6634 16.0808 25.3238 -24.6634 13.3424 34.0627 -24.6634 10.0474 
33.0055 -24.6634 10.5375 40.6873 -19.2097 10.0474 -43.8314 -16.9816 10.0474 
-43.8123 -16.9816 10.0705 -36.1305 -16.9816 16.7309 25.3238 -16.9816 16.7979 
33.0055 -16.9816 14.8546 42.634 -16.9816 10.0474 40.6873 -16.9816 11.3074 
-47.0281 -9.29987 10.0474 -43.8123 -9.29987 13.5018 33.0055 -9.29987 17.6405 
47.5853 -9.29987 10.0474 40.6873 -9.29987 14.7712 48.3691 -6.03383 10.0474 
-48.5262 -1.61808 10.0474 -43.8123 -1.61808 15.3922 40.6873 -1.61808 16.3134 
49.1758 -1.61808 10.0474 48.3691 -1.61808 10.9009 -48.0342 6.0637 10.0474 
-43.8123 6.0637 15.2256 40.6873 6.0637 16.5089 48.9758 6.0637 10.0474 
48.3691 8.36389 10.0474 48.3691 6.0637 10.728 -46.1144 13.7455 10.0474 
-43.8123 20.6741 10.0474 -43.8123 13.7455 13.2381 46.8075 13.7455 10.0474 
40.6873 13.7455 15.2748 -43.5325 21.4273 10.0474 33.0055 21.4273 16.8642 
42.5868 21.4273 10.0474 40.6873 24.065 10.0474 40.6873 21.4273 11.9092 
-38.8872 29.1091 10.0474 -36.1305 32.0849 10.0474 -36.1305 29.1091 13.6135 
25.3238 35.8482 10.0474 25.3238 29.1091 16.7837 36.3936 29.1091 10.0474 
[...]
POINT_DATA 516
SCALARS ImageScalars float
LOOKUP_TABLE default
0 0 0 0 0 0 0 0 0 
0 0 0 0 0 0 0 0 0 
0 0 0 0 0 0 0 0 0 
0 0 0 0 0 0 0 0 0 
0 0 0 0 0 0 0 0 0 
0 0 0 0 0 0 0 0 0 
0 0 0 0 0 0 0 0 0 
0 0 0 0 0 0 0 0 0 
0 0 0 0 0 0 0 0 0 
0 0 0 0 0 0 0 0 0 
0 0 0 0 0 0 0 0 0 
0 0 0 0 0 0 0 0 0 
0 0 0 0 0 0 0 0 0 
0 0 0 0 0 0 0 0 0 
0 0 0 0 0 0 0 0 0 
0 0 0 0 0 0 0 0 0 
0 0 0 0 0 0 0 0 0 
0 0 0 0 0 0 0 0 0 
0 0 0 0 0 0 0 0 0 
0 0 0 0 0 0 0 0 0 
0 0 0 0 0 0 0 0 0 
0 0 0 0 0 0 0 0 0 
0 0 0 0 0 0 0 0 0 
0 0 0 0 0 0 0 0 0 
0 0 0 0 0 0 0 0 0 
0 0 0 0 0 0 0 0 0 
0 0 0 0 0 0 0 0 0 
0 0 0 0 0 0 0 0 0 
0 0 0 0 0 0 0 0 0 
0 0 0 0 0 0 0 0 0 
0 0 0 0 0 0 0 0 0 
0 0 0 0 0 0 0 0 0 
0 0 0 0 0 0 0 0 0 
0 0 0 0 0 0 0 0 0 
0 0 0 0 0 0 0 0 0 
0 0 0 0 0 0 0 0 0 
0 0 0 0 0 0 0 0 0 
0 0 0 0 0 0 0 0 0 
0 0 0 0 0 0 0 0 0 
0 0 0 0 0 0 0 0 0 
0 0 0 0 0 0 0 0 0 
0 0 0 0 0 0 0 0 0 
0 0 0 0 0 0 0 0 0 
0 0 0 0 0 0 0 0 0 
0 0 0 0 0 0 0 0 0 
0 0 0 0 0 0 0 0 0 
0 0 0 0 0 0 0 0 0 
0 0 0 0 0 0 0 0 0 
0 0 0 0 0 0 0 0 0 
0 0 0 0 0 0 0 0 0 
0 0 0 0 0 0 0 0 0 
0 0 0 0 0 0 0 0 0 
0 0 0 0 0 0 0 0 0 
0 0 0 0 0 0 0 0 0 
0 0 0 0 0 0 0 0 0 
0 0 0 0 0 0 0 0 0 
0 0 0 0 0 0 0 0 0 
0 0 0 
NORMALS Normals float
0.275277 0.515348 0.811566 0.14385 0.482211 0.864164 0.0712409 0.464694 0.882601 
-0.0778873 0.521197 0.849875 -0.147664 0.629737 0.762644 -0.251705 0.731137 0.634101 
0.364527 0.304794 0.879898 0.173115 0.185557 0.967264 0.105945 0.158278 0.981694 
0.0675865 0.139064 0.987974 -0.0414075 0.156475 0.986814 -0.0817645 0.15179 0.985025 
-0.120966 0.204438 0.971377 -0.13806 0.422674 0.895704 -0.340968 0.546826 0.764672 
0.485748 0.225238 0.844581 0.226095 0.076263 0.971115 0.13047 0.0201899 0.991247 
0.100788 -0.0243221 0.994611 0.0658266 -0.00275105 0.997827 -0.0515742 -0.0195645 0.998478 
-0.0814916 -0.0744179 0.993892 0.0290435 -0.0372744 0.998883 -0.0504313 0.0996319 0.993746 
-0.169449 0.19384 0.966288 -0.362839 0.403514 0.839955 0.3553 0.0230118 0.934469 
0.163329 -0.0570282 0.984922 0.0751576 -0.132545 0.988323 0.0855837 -0.11929 0.989164 
0.0724015 -0.0639461 0.995324 -0.109298 -0.0658451 0.991826 -0.10233 -0.135431 0.985488 
0.0675076 -0.119085 0.990586 0.0936862 -0.0834644 0.992097 0.00854317 0.0521736 0.998601 
-0.277598 0.082275 0.957168 -0.662755 0.247173 0.706868 0.248775 0.0076217 0.968531 
0.073154 -0.0940711 0.992874 0.0607717 -0.167602 0.98398 0.173081 -0.0867033 0.981084 
0.117176 -0.113354 0.986621 -0.118396 -0.142132 0.982742 -0.13843 0.0958528 0.985723 
0.0829693 -0.0490736 0.995343 0.125608 -0.0445392 0.99108 0.00563634 -0.0383518 0.999248 
-0.201555 -0.0424891 0.978555 -0.56521 0.0653496 0.822355 0.433499 0.0804491 0.897556 
0.165106 0.0368802 0.985586 0.00405362 0.036345 0.999331 0.0741841 0.0542951 0.995765 
0.147367 0.0230047 0.988814 -0.00765496 -0.00823876 0.999937 0.133735 -0.0140718 0.990917 
-0.0145214 0.0843249 0.996332 -0.0686663 0.00681794 0.997616 0.103094 -0.00289736 0.994667 
-0.00334372 -0.00821562 0.999961 -0.198292 -0.0211763 0.979914 -0.527832 -0.0334931 0.848688 
0.497071 0.0365359 0.86694 0.210886 0.106769 0.971662 0.086139 0.173175 0.981117 
0.0373149 0.182754 0.98245 0.120113 0.024818 0.99245 0.0910258 -0.0469198 0.994743 
-0.0408906 0.0415119 0.998301 -0.131329 -0.153886 0.979322 0.0122882 0.0469307 0.998823 
0.107449 0.0342959 0.993619 -0.0117681 0.02162 0.999697 -0.220559 -0.00456118 0.975363 
-0.589619 -0.154025 0.792859 0.614375 -0.0708678 0.785825 0.281555 0.0728975 0.956772 
0.0866261 0.149192 0.985006 -0.0526411 0.135641 0.989359 -0.0801884 0.0431967 0.995843 
0.0266653 -0.0497387 0.998406 0.0109955 -0.0528876 0.99854 0.0037371 0.0278872 0.999604 
0.0981288 0.117266 0.988241 0.0788658 0.0270063 0.996519 -0.0328364 -0.0439012 0.998496 
-0.345072 -0.135281 0.928776 -0.67225 -0.284842 0.683334 0.39488 -0.0952568 0.913781 
0.136508 -0.028629 0.990225 -0.0773952 0.0552104 0.995471 -0.0684773 0.0637385 0.995615 
-0.00513004 0.110511 0.993862 0.0221929 0.0687533 0.997387 0.0534774 0.0913696 0.99438 
0.0126989 0.0300456 0.999468 -0.0572003 -0.0496336 0.997128 -0.175904 -0.147716 0.973261 
-0.450314 -0.3552 0.819177 0.499339 -0.39273 0.772285 0.216367 -0.281574 0.934827 
0.0428035 -0.12244 0.991552 -0.0238673 -0.0601979 0.997901 0.0309003 -0.0260666 0.999183 
-0.0044497 -0.0290872 0.999567 -0.0363881 -0.0849162 0.995723 -0.0440742 -0.170038 0.984451 
-0.109479 -0.237743 0.965139 -0.351444 -0.404899 0.844123 0.365358 -0.631226 0.684154 
0.173622 -0.510193 0.842353 0.0470955 -0.366396 0.929267 0.0208831 -0.332042 0.943033 
-0.0384023 -0.357597 0.933086 -0.101794 -0.416314 0.903505 -0.160091 -0.548689 0.820555 
-0.302729 -0.667877 0.679924 0.0408885 -0.826858 0.560922 0.280048 0.711165 0.644839 
0.166212 0.765016 0.622193 0.0794492 0.988297 0.130215 0.0102294 0.863788 0.503752 
-0.0725444 0.99662 -0.0385565 -0.137759 0.877443 0.459474 -0.221067 0.879457 0.421528 
-0.280829 0.865369 0.415056 0.449454 0.570239 0.687618 0.478241 0.513044 0.712792 
0.511246 0.627771 0.586968 -0.319588 0.832228 0.453057 -0.317651 0.816407 0.482263 
-0.321788 0.930726 0.173788 -0.395106 0.772565 0.497025 0.527973 0.440316 0.7262 
0.559997 0.39922 0.725966 0.635327 0.499956 0.58856 -0.552833 0.685088 0.474374 
-0.570289 0.665774 0.481161 -0.610587 0.769849 0.185784 0.625759 0.2526 0.737983 
0.872569 0.401261 0.27859 -0.722799 0.490029 0.487271 -0.745133 0.410497 0.525613 
-0.819197 0.571767 0.04471 0.571455 0.166598 0.803544 0.744745 0.278867 0.606291 
-0.745479 0.299732 0.595334 0.482386 0.142598 0.864274 0.483485 0.136864 0.864587 
0.496537 0.148167 0.855276 -0.760688 0.0851665 0.643506 0.494207 0.0681092 0.866672 
-0.738763 -0.0409795 0.672718 0.578324 0.0041693 0.815796 -0.727955 -0.169264 0.664402 
0.6837 -0.0891024 0.724303 0.702701 -0.231057 0.672922 -0.690531 -0.296279 0.659838 
-0.694067 -0.313065 0.648276 0.701394 -0.248471 0.668064 0.722017 -0.259035 0.641555 
-0.664591 -0.404855 0.628022 -0.587365 -0.511008 0.627593 -0.854846 -0.505024 0.119116 
0.669504 -0.452885 0.588778 0.560703 -0.570277 0.60033 -0.573268 -0.541559 0.61488 
-0.463586 -0.656819 0.594707 -0.647772 -0.599103 0.470602 0.443919 -0.680175 0.583351 
0.63236 -0.75478 0.174437 0.370594 -0.727625 0.577253 0.253698 -0.759448 0.599063 
0.16109 -0.80815 0.566518 -0.10526 -0.838423 0.53476 -0.182649 -0.809276 0.558311 
-0.230554 -0.780718 0.580796 -0.403124 -0.723074 0.560941 -0.322818 -0.768809 0.552015 
-0.505902 -0.837355 0.20712 0.0640626 -0.835128 0.546312 0.165312 -0.912063 0.375252 
-0.0441007 -0.841713 0.538121 0.0405032 -0.836446 0.546551 -0.10721 -0.860077 0.498771 
-0.205528 -0.963782 0.16995 0.0553512 0.99787 0.0345075 -0.0804605 0.991875 -0.0985424 
0.492331 0.85171 0.179445 0.137689 0.987387 0.0781635 0.263431 0.952844 0.15064 
0.0247185 0.997769 -0.0620167 -0.103242 0.988631 -0.109318 -0.0863884 0.989574 -0.115237 
-0.215243 0.963846 -0.157072 -0.258895 0.9484 -0.18306 -0.21748 0.954887 -0.202222 
-0.276278 0.944333 -0.178619 0.640286 0.739742 0.20692 0.728248 0.653378 0.206765 
-0.216069 0.873821 -0.435605 -0.30976 0.934071 -0.177651 -0.272596 0.929427 -0.248709 
-0.40273 0.901236 -0.159947 -0.591696 0.795704 -0.129425 0.818689 0.542044 0.189569 
0.875018 0.430364 0.221652 -0.613231 0.780419 -0.122043 -0.58031 0.785458 -0.215165 
-0.806551 0.589685 -0.0418031 0.880991 0.414412 0.228293 -0.818047 0.573708 -0.0407209 
-0.807761 0.579034 -0.110641 0.893414 0.346432 0.286001 -0.939033 0.343598 -0.0125268 
0.932195 0.226157 0.282606 -0.986102 0.159422 0.0467603 0.965653 0.0429015 0.256268 
0.999022 0.0366623 -0.0247196 -0.995574 -0.0148131 0.0928086 0.950336 -0.0960524 0.296032 
-0.974734 -0.193703 0.11123 0.950615 -0.225432 0.213333 -0.929519 -0.354182 0.102712 
0.915688 -0.372331 0.151276 0.831559 -0.545428 0.104967 -0.857188 -0.506392 0.0937846 
-0.854148 -0.51174 0.0924871 -0.859709 -0.509754 0.0324312 0.814523 -0.57141 0.100215 
-0.747339 -0.660628 0.0711 -0.69025 -0.720783 0.0634609 0.653519 -0.752849 0.078302 
0.632853 -0.770441 0.0769346 0.627905 -0.776682 -0.0500036 0.410319 -0.910185 0.0565853 
0.242978 -0.969438 0.0339344 -0.258118 -0.966054 0.0107204 -0.326153 -0.945198 0.0150244 
-0.529885 -0.847068 0.0412014 -0.491583 -0.870074 0.0362889 -0.486376 -0.866147 -0.115013 
0.238405 -0.970632 0.0322094 0.142245 -0.989765 0.0114623 0.137504 -0.959476 -0.245963 
0.0261691 -0.999657 -0.00093438 -0.0974306 -0.995225 -0.00589717 -0.102626 -0.944037 -0.313467 
-0.223551 -0.974692 0.000223028 -0.202512 -0.979279 -0.000818133 -0.199498 -0.973376 -0.112867 
0.470377 0.860742 -0.1946 0.157165 0.952546 -0.260684 -0.0799563 0.925732 -0.369632 
-0.204852 0.882559 -0.423231 -0.24801 0.823226 -0.510676 -0.248943 0.809425 -0.531845 
0.632748 0.748934 -0.196795 0.739151 0.642825 -0.201079 0.421174 0.735931 -0.530111 
-0.248102 0.741108 -0.623863 -0.26271 0.785689 -0.560069 -0.246531 0.807984 -0.535149 
-0.249821 0.806755 -0.535477 -0.212488 0.803727 -0.555762 -0.250668 0.794829 -0.552642 
-0.369404 0.752221 -0.545623 0.80678 0.553579 -0.206533 0.867407 0.45324 -0.205373 
0.716221 0.486412 -0.50043 -0.269034 0.705166 -0.65602 -0.402431 0.735207 -0.545454 
-0.376307 0.722629 -0.579828 -0.513058 0.658739 -0.550303 0.868199 0.451762 -0.205284 
0.866913 0.451168 -0.21192 -0.634821 0.561357 -0.530924 -0.512107 0.567738 -0.644531 
-0.732954 0.473207 -0.488727 0.903467 0.386948 -0.184441 -0.789423 0.40817 -0.458486 
-0.715615 0.431921 -0.548944 0.956136 0.245137 -0.160348 0.988392 0.0568158 -0.140898 
-0.895107 0.212343 -0.392039 -0.700805 0.239107 -0.672087 0.989777 0.0337395 -0.138573 
0.9896 -0.00846891 -0.143598 0.987633 0.0338463 -0.153084 -0.938482 0.0278674 -0.344202 
0.976745 -0.144378 -0.158507 -0.933677 -0.173436 -0.313316 0.944539 -0.263415 -0.196108 
-0.887066 -0.346316 -0.305252 -0.838661 -0.460476 -0.290877 -0.795798 -0.314517 -0.517479 
0.888323 -0.405206 -0.216081 0.831073 -0.514671 -0.21079 0.819341 -0.373937 -0.43457 
-0.817832 -0.49746 -0.289283 0.793397 -0.572437 -0.20697 0.606117 -0.758077 -0.240709 
-0.469112 -0.830476 -0.300406 -0.681319 -0.669018 -0.297017 -0.664617 -0.683984 -0.30075 
-0.666569 -0.661101 -0.344428 0.552072 -0.798102 -0.241349 0.39144 -0.883739 -0.256476 
0.228011 -0.931746 -0.282594 0.132667 -0.941314 -0.310365 -0.10248 -0.939502 -0.326853 
-0.186811 -0.930062 -0.316365 -0.245429 -0.918793 -0.309166 -0.413397 -0.862134 -0.292966 
-0.318618 -0.903893 -0.285411 -0.317354 -0.850517 -0.419413 0.0680442 -0.945763 -0.317653 
-0.0752393 -0.942343 -0.32608 0.0197377 -0.946582 -0.32186 0.0184112 -0.940868 -0.338272 
0.103513 0.793202 -0.600097 -0.122974 0.781809 -0.611272 0.401712 0.734696 -0.54667 
0.419076 0.727188 -0.543667 0.0970723 0.722282 -0.684752 -0.226188 0.737531 -0.636307 
-0.122443 0.730022 -0.672366 -0.247841 0.724305 -0.643395 -0.237212 0.738751 -0.630855 
-0.227379 0.760234 -0.608558 -0.239703 0.713689 -0.658172 0.694295 0.477305 -0.538642 
0.701671 0.464815 -0.540004 0.392707 0.409095 -0.823664 -0.179602 0.469023 -0.864732 
-0.186304 0.633716 -0.750796 -0.216723 0.707783 -0.672364 -0.240616 0.71204 -0.659624 
-0.240136 0.712298 -0.65952 -0.286143 0.609613 -0.739253 -0.339648 0.548635 -0.763962 
0.722968 0.385253 -0.573496 0.747994 0.342159 -0.568711 0.602926 0.334955 -0.724076 
-0.299626 0.404128 -0.864236 -0.300144 0.47672 -0.826227 -0.355658 0.542103 -0.761335 
-0.334747 0.538468 -0.773302 -0.47376 0.46281 -0.749239 0.748042 0.341943 -0.568778 
0.747529 0.341752 -0.569566 0.479465 0.273414 -0.833881 -0.188636 0.309991 -0.931838 
-0.297409 0.391202 -0.870924 -0.514868 0.43032 -0.741442 -0.461433 0.422548 -0.780085 
0.791878 0.251032 -0.556698 0.682438 0.242842 -0.689424 -0.233071 0.227481 -0.945479 
-0.664439 0.242245 -0.706993 -0.436129 0.266425 -0.85954 -0.699524 0.163828 -0.695577 
0.848274 0.0487936 -0.527306 0.668732 0.0815861 -0.739014 -0.420406 0.0997953 -0.901831 
-0.728935 0.0617666 -0.68179 -0.70329 0.0665149 -0.707785 0.847533 -0.133206 -0.513755 
0.709372 -0.0880135 -0.699317 -0.420277 -0.0573785 -0.90558 -0.749831 -0.120009 -0.650655 
-0.749637 -0.1725 -0.638975 -0.731232 -0.116276 -0.672146 0.837557 -0.241202 -0.490224 
0.814206 -0.356522 -0.458215 0.774479 -0.2148 -0.595015 -0.728952 -0.288371 -0.620864 
-0.507545 -0.22374 -0.832069 0.810328 -0.369971 -0.454413 -0.385745 -0.279794 -0.879156 
-0.667109 -0.441409 -0.600103 -0.641806 -0.492784 -0.587579 -0.619397 -0.422067 -0.661972 
0.705288 -0.556392 -0.439313 0.630957 -0.643822 -0.432882 0.63162 -0.540461 -0.555841 
-0.317763 -0.809882 -0.493069 -0.30422 -0.47424 -0.826164 -0.569703 -0.613029 -0.547388 
-0.492538 -0.686203 -0.535287 -0.484778 -0.577835 -0.65658 0.393928 -0.815249 -0.424488 
0.363168 -0.829204 -0.424888 0.36077 -0.815033 -0.453394 0.181688 -0.873912 -0.450852 
0.156515 -0.798314 -0.581547 0.0894757 -0.864133 -0.495245 0.0458771 -0.754255 -0.654977 
0.00454844 -0.847199 -0.531257 -0.00798275 -0.706187 -0.70798 -0.0834462 -0.846165 -0.526348 
-0.0587166 -0.714459 -0.697209 -0.154762 -0.850357 -0.502934 -0.125556 -0.757071 -0.641155 
-0.271525 -0.836211 -0.476472 -0.212318 -0.853489 -0.475898 -0.208699 -0.814986 -0.540594 
0.124877 0.408099 -0.904357 -0.0627744 0.420112 -0.905299 0.152268 0.396076 -0.905504 
0.346508 0.267479 -0.899104 0.125854 0.395206 -0.90993 -0.10141 0.412906 -0.90511 
-0.0619792 0.388033 -0.919559 -0.125665 0.377448 -0.917464 -0.101477 0.463877 -0.880069 
-0.202242 0.429863 -0.879952 0.371774 0.238158 -0.897254 0.336351 0.22596 -0.914226 
0.082792 0.186084 -0.979039 -0.0383044 0.158904 -0.986551 -0.0247078 0.225554 -0.973917 
-0.0470694 0.352492 -0.93463 -0.23634 0.373073 -0.897196 -0.192862 0.362227 -0.911919 
-0.22046 0.207859 -0.952991 0.400832 0.253425 -0.880403 0.45312 0.245724 -0.856914 
0.245725 0.208715 -0.946603 0.0513069 0.164586 -0.985027 -0.0265395 0.176126 -0.98401 
0.0438149 0.189074 -0.980985 -0.0260962 0.21393 -0.9765 -0.2113 0.146277 -0.966414 
-0.199712 0.207158 -0.957706 -0.205005 0.174246 -0.963126 -0.141033 0.244426 -0.959357 
0.489571 0.221359 -0.843398 0.432708 0.216403 -0.875176 0.222803 0.211557 -0.951631 
0.0629781 0.249955 -0.966207 -0.0166677 0.301941 -0.953181 0.00790969 0.197798 -0.980211 
-0.0862879 0.0407363 -0.995437 -0.246037 0.104115 -0.963652 -0.142613 0.114017 -0.983189 
-0.221998 0.222992 -0.949206 -0.0899371 0.172541 -0.980888 -0.23005 0.21486 -0.949164 
0.555622 0.0991647 -0.8255 0.430115 0.120297 -0.894723 0.260501 0.143613 -0.954733 
0.121542 0.145987 -0.981792 -0.0706682 0.142819 -0.987223 -0.214395 0.0900328 -0.972589 
-0.116103 0.0240385 -0.992946 -0.1481 0.0391171 -0.988198 -0.13302 0.0339811 -0.990531 
-0.0705409 0.0654178 -0.995362 -0.285818 0.0867531 -0.954349 -0.195732 0.0733805 -0.977908 
0.604692 -0.0557029 -0.794509 0.467629 -0.0190016 -0.88372 0.247866 0.00375453 -0.968787 
0.0674566 -0.0186168 -0.997549 -0.0795466 -0.0702648 -0.994352 -0.121129 0.0308885 -0.992156 
-0.138386 0.140927 -0.9803 -0.234859 0.0206297 -0.971811 -0.11707 0.0333886 -0.992562 
-0.051183 0.022506 -0.998436 -0.295228 -0.0333594 -0.954844 -0.190334 -0.00658185 -0.981697 
0.614192 -0.159697 -0.772829 0.506969 -0.133621 -0.851544 0.256093 -0.0937679 -0.962093 
0.04991 -0.0933282 -0.994384 -0.0265207 -0.111756 -0.993382 -0.00265709 -0.0512161 -0.998684 
-0.124159 -0.0142515 -0.99216 -0.253266 0.0176659 -0.967235 -0.131979 0.0607943 -0.989386 
-0.103195 -0.028205 -0.994261 -0.344004 -0.144696 -0.927752 -0.333764 -0.196307 -0.92199 
-0.285713 -0.115293 -0.951355 0.598872 -0.302513 -0.741511 0.580279 -0.344703 -0.737873 
0.564628 -0.29325 -0.771492 0.278191 -0.211303 -0.936996 0.0521166 -0.20706 -0.976939 
-0.0341597 -0.198192 -0.979568 -0.0200218 -0.208893 -0.977733 -0.0713213 -0.229146 -0.970776 
-0.154479 -0.138576 -0.978229 -0.16695 -0.0820708 -0.982544 -0.31872 -0.241548 -0.916555 
-0.272661 -0.360541 -0.892001 -0.217734 -0.178185 -0.959605 0.4602 -0.516154 -0.722358 
0.361162 -0.588078 -0.723689 0.353097 -0.503544 -0.788522 0.126208 -0.654757 -0.745228 
0.0767676 -0.449564 -0.889943 0.00832736 -0.625331 -0.780315 -0.0318588 -0.397504 -0.917047 
-0.0216011 -0.58748 -0.808951 -0.0355167 -0.409055 -0.911818 -0.0537141 -0.575651 -0.815929 
-0.0595072 -0.419901 -0.905617 -0.0960433 -0.541811 -0.834995 -0.0934994 -0.392895 -0.914818 
-0.250139 -0.429988 -0.867491 -0.185031 -0.487324 -0.853392 -0.170802 -0.384822 -0.907049 

