# vtk DataFile Version 4.2
vtk output
ASCII
DATASET POLYDATA
POINTS 472 float
-3.00988 -38.7964 -17.3818 4.39001 -38.7964 -17.6687 -17.8096 -31.3965 -18.8019 
-10.4098 -31.3965 -20.2909 -3.00988 -31.3965 -21.0426 4.39001 -31.3965 -21.1191 
11.7899 -31.3965 -19.6504 -25.2095 -23.9967 -17.6386 -17.8096 -23.9967 -20.5923 
-10.4098 -23.9967 -21.977 -3.00988 -23.9967 -21.967 4.39001 -23.9967 -22.0534 
11.7899 -23.9967 -20.749 -25.2095 -16.5968 -19.7905 -17.8096 -16.5968 -21.6882 
-10.4098 -16.5968 -22.1887 -3.00988 -16.5968 -21.9088 4.39001 -16.5968 -22.2502 
11.7899 -16.5968 -20.7895 19.1898 -16.5968 -17.8643 -32.6094 -9.19689 -18.0069 
-25.2095 -9.19689 -21.597 -17.8096 -9.19689 -23.0263 -10.4098 -9.19689 -23.5455 
-3.00988 -9.19689 -22.1468 4.39001 -9.19689 -21.7068 11.7899 -9.19689 -20.647 
19.1898 -9.19689 -18.8632 26.5897 -9.19689 -19.1061 33.9895 -9.19689 -18.9057 
41.3894 -9.19689 -17.1284 -32.6094 -1.79701 -19.4523 -25.2095 -1.79701 -21.8655 
-17.8096 -1.79701 -23.3103 -10.4098 -1.79701 -24.3209 -3.00988 -1.79701 -22.7343 
4.39001 -1.79701 -21.6933 11.7899 -1.79701 -20.8224 19.1898 -1.79701 -19.8176 
26.5897 -1.79701 -20.0322 33.9895 -1.79701 -19.618 41.3894 -1.79701 -18.1842 
-32.6094 5.60288 -19.5383 -25.2095 5.60288 -21.4483 -17.8096 5.60288 -21.8142 
-10.4098 5.60288 -22.1164 -3.00988 5.60288 -21.8866 4.39001 5.60288 -22.015 
11.7899 5.60288 -21.3265 19.1898 5.60288 -20.5948 26.5897 5.60288 -20.5437 
33.9895 5.60288 -19.7443 41.3894 5.60288 -17.3347 -32.6094 13.0028 -18.7943 
-25.2095 13.0028 -21.0466 -17.8096 13.0028 -21.8636 -10.4098 13.0028 -21.6066 
-3.00988 13.0028 -21.4176 4.39001 13.0028 -21.8694 11.7899 13.0028 -21.6879 
19.1898 13.0028 -21.2691 26.5897 13.0028 -20.9116 33.9895 13.0028 -19.3859 
-25.2095 20.4026 -20.6237 -17.8096 20.4026 -21.9042 -10.4098 20.4026 -21.8753 
-3.00988 20.4026 -21.7876 4.39001 20.4026 -22.057 11.7899 20.4026 -21.9366 
19.1898 20.4026 -21.327 26.5897 20.4026 -20.2186 33.9895 20.4026 -17.5905 
-25.2095 27.8025 -17.5933 -17.8096 27.8025 -20.1266 -10.4098 27.8025 -20.762 
-3.00988 27.8025 -21.0826 4.39001 27.8025 -21.39 11.7899 27.8025 -21.1517 
19.1898 27.8025 -20.1978 26.5897 27.8025 -17.649 -3.00988 35.2024 -17.6523 
4.39001 35.2024 -18.1818 11.7899 35.2024 -17.5301 -3.00988 -39.2551 -16.9938 
4.39001 -39.6341 -16.9938 -17.8096 -34.5673 -16.9938 -17.8096 -38.7964 -12.8264 
-6.85421 -38.7964 -16.9938 -10.4098 -38.1424 -16.9938 -10.4098 -38.7964 -16.5062 
8.01134 -38.7964 -16.9938 11.7899 -37.4154 -16.9938 11.7899 -38.7964 -15.9497 
-21.3858 -31.3965 -16.9938 -25.2095 -25.7796 -16.9938 -25.2095 -31.3965 -13.7276 
15.4438 -31.3965 -16.9938 19.1898 -31.3965 -11.277 -26.1563 -23.9967 -16.9938 
17.0709 -23.9967 -16.9938 19.1898 -19.3929 -16.9938 19.1898 -23.9967 -14.7587 
-30.0585 -16.5968 -16.9938 -32.6094 -12.0195 -16.9938 -32.6094 -16.5968 -14.3634 
23.0773 -16.5968 -16.9938 26.5897 -14.7124 -16.9938 26.5897 -16.5968 -16.0359 
33.9895 -13.127 -16.9938 33.9895 -16.5968 -14.1318 41.3894 -9.46021 -16.9938 
41.3894 -16.5968 -10.9194 -33.7181 -9.19689 -16.9938 41.6662 -9.19689 -16.9938 
48.7893 -9.19689 -10.975 -35.4683 -1.79701 -16.9938 43.4225 -1.79701 -16.9938 
48.7893 -1.79701 -10.951 -35.8133 5.60288 -16.9938 41.9154 5.60288 -16.9938 
41.3894 6.85251 -16.9938 -35.0211 13.0028 -16.9938 -32.6094 20.3337 -16.9938 
38.4763 13.0028 -16.9938 41.3894 13.0028 -14.4618 -32.5732 20.4026 -16.9938 
-32.6094 20.4026 -16.9668 34.8222 20.4026 -16.9938 33.9895 21.6359 -16.9938 
-26.2041 27.8025 -16.9938 -32.6094 27.8025 -9.88704 -25.2095 28.5966 -16.9938 
-17.8096 32.3689 -16.9938 -10.4098 34.5038 -16.9938 19.1898 33.3597 -16.9938 
27.9146 27.8025 -16.9938 26.5897 28.7006 -16.9938 33.9895 27.8025 -11.8246 
-17.8096 35.2024 -13.7646 -7.42771 35.2024 -16.9938 -10.4098 35.2024 -16.3843 
-3.00988 35.9642 -16.9938 4.39001 36.5852 -16.9938 14.0716 35.2024 -16.9938 
11.7899 35.8309 -16.9938 19.1898 35.2024 -14.9076 -17.8096 -40.9187 -9.59394 
-10.4098 -43.4077 -9.59394 -3.00988 -44.98 -9.59394 4.39001 -45.9573 -9.59394 
4.39001 -46.1963 -7.99699 11.7899 -43.4759 -9.59394 -20.9706 -38.7964 -9.59394 
-25.2095 -35.0504 -9.59394 16.9725 -38.7964 -9.59394 19.1898 -33.8799 -9.59394 
-28.108 -31.3965 -9.59394 20.0379 -31.3965 -9.59394 -32.3459 -23.9967 -9.59394 
-32.6094 -23.4115 -9.59394 -32.6094 -23.9967 -8.01773 23.4128 -23.9967 -9.59394 
26.5897 -21.6272 -9.59394 33.9895 -19.6501 -9.59394 41.3894 -17.5514 -9.59394 
-35.4451 -16.5968 -9.59394 43.5415 -16.5968 -9.59394 48.7893 -11.3469 -9.59394 
-37.5946 -9.19689 -9.59394 49.6519 -9.19689 -9.59394 -38.8422 -1.79701 -9.59394 
49.531 -1.79701 -9.59394 48.7893 0.851607 -9.59394 -39.6236 5.60288 -9.59394 
47.3219 5.60288 -9.59394 -39.6239 13.0028 -9.59394 44.4715 13.0028 -9.59394 
41.3894 19.4657 -9.59394 -37.7278 20.4026 -9.59394 40.8599 20.4026 -9.59394 
-32.7815 27.8025 -9.59394 -32.6094 27.9907 -9.59394 -25.2095 34.1263 -9.59394 
26.5897 34.4565 -9.59394 35.3265 27.8025 -9.59394 33.9895 29.0935 -9.59394 
-23.2396 35.2024 -9.59394 -25.2095 35.2024 -5.3156 -17.8096 37.7454 -9.59394 
-10.4098 39.9298 -9.59394 -3.00988 41.0644 -9.59394 4.39001 41.4912 -9.59394 
11.7899 40.6301 -9.59394 25.2258 35.2024 -9.59394 19.1898 38.0441 -9.59394 
4.39001 -46.9807 -2.19406 -17.8096 -41.875 -2.19406 -10.4098 -44.4755 -2.19406 
-2.20271 -46.1963 -2.19406 -3.00988 -46.1037 -2.19406 7.06137 -46.1963 -2.19406 
4.39001 -46.1963 0.919135 11.7899 -44.3318 -2.19406 -22.3471 -38.7964 -2.19406 
-25.2095 -36.3221 -2.19406 17.1584 -38.7964 -2.19406 19.1898 -31.8594 -2.19406 
-29.1042 -31.3965 -2.19406 -32.6094 -25.5332 -2.19406 19.3002 -31.3965 -2.19406 
19.1898 -31.3965 -1.92389 -33.4291 -23.9967 -2.19406 21.741 -23.9967 -2.19406 
19.1898 -23.9967 1.49258 26.5897 -21.0875 -2.19406 33.9895 -19.7401 -2.19406 
41.3894 -18.4523 -2.19406 -36.205 -16.5968 -2.19406 45.6912 -16.5968 -2.19406 
41.3894 -16.5968 3.38222 48.7893 -13.4157 -2.19406 -37.5903 -9.19689 -2.19406 
50.4498 -9.19689 -2.19406 48.7893 -9.19689 3.17956 -38.3333 -1.79701 -2.19406 
50.0463 -1.79701 -2.19406 48.7893 1.8379 -2.19406 48.7893 -1.79701 1.87257 
-39.3702 5.60288 -2.19406 47.3737 5.60288 -2.19406 -39.9624 13.0028 -2.19406 
44.1169 13.0028 -2.19406 41.3894 18.0599 -2.19406 41.3894 13.0028 4.02812 
-38.5215 20.4026 -2.19406 40.0321 20.4026 -2.19406 -34.0712 27.8025 -2.19406 
-32.6094 29.5242 -2.19406 26.5897 34.3073 -2.19406 34.7307 27.8025 -2.19406 
33.9895 28.537 -2.19406 33.9895 27.8025 -0.69311 -26.2074 35.2024 -2.19406 
-25.2095 35.9299 -2.19406 -17.8096 39.8932 -2.19406 -10.4098 41.8407 -2.19406 
-3.00988 42.4797 -2.19406 4.39001 42.3081 -2.19406 11.7899 41.1846 -2.19406 
25.1012 35.2024 -2.19406 19.1898 38.3791 -2.19406 -17.8096 -40.4662 5.20582 
-10.4098 -43.3343 5.20582 -3.00988 -44.8589 5.20582 4.39001 -44.9814 5.20582 
11.7899 -41.1189 5.20582 -20.2406 -38.7964 5.20582 -25.2095 -34.6339 5.20582 
-17.8096 -38.7964 8.96587 13.6705 -38.7964 5.20582 11.7899 -38.7964 8.00924 
-27.9273 -31.3965 5.20582 -32.6094 -24.3327 5.20582 -25.2095 -31.3965 11.8425 
16.6061 -31.3965 5.20582 -32.8025 -23.9967 5.20582 -32.6094 -23.9967 5.96296 
17.5654 -23.9967 5.20582 19.1898 -21.5055 5.20582 26.5897 -19.1971 5.20582 
33.9895 -18.6404 5.20582 -35.7169 -16.5968 5.20582 26.5897 -16.5968 10.3993 
39.9916 -16.5968 5.20582 33.9895 -16.5968 9.54682 41.3894 -15.8655 5.20582 
-37.437 -9.19689 5.20582 47.992 -9.19689 5.20582 41.3894 -9.19689 12.3278 
-38.1326 -1.79701 5.20582 47.5682 -1.79701 5.20582 -39.106 5.60288 5.20582 
45.1333 5.60288 5.20582 41.3894 11.7857 5.20582 41.3894 5.60288 9.7007 
-39.698 13.0028 5.20582 40.7585 13.0028 5.20582 -38.3677 20.4026 5.20582 
36.6331 20.4026 5.20582 33.9895 23.955 5.20582 33.9895 20.4026 8.64167 
-34.3918 27.8025 5.20582 -32.6094 30.0474 5.20582 -32.6094 27.8025 11.7485 
30.3103 27.8025 5.20582 26.5897 31.169 5.20582 26.5897 27.8025 9.0064 
-27.1804 35.2024 5.20582 -25.2095 36.6692 5.20582 -25.2095 35.2024 10.2583 
-17.8096 40.3467 5.20582 -10.4098 41.7526 5.20582 -3.00988 41.6701 5.20582 
4.39001 40.9046 5.20582 11.7899 39.2444 5.20582 11.7899 35.2024 11.0482 
20.5315 35.2024 5.20582 19.1898 35.9573 5.20582 19.1898 35.2024 6.31778 
-10.4098 -40.0581 12.6057 -3.00988 -40.8423 12.6057 4.39001 -39.5641 12.6057 
-13.7577 -38.7964 12.6057 -17.8096 -37.0286 12.6057 -10.4098 -38.7964 14.2155 
-3.00988 -38.7964 14.8469 5.71417 -38.7964 12.6057 4.39001 -38.7964 13.2813 
11.7899 -32.9333 12.6057 -24.7954 -31.3965 12.6057 -25.2095 -30.9781 12.6057 
-17.8096 -31.3965 18.8996 -3.00988 -31.3965 19.8852 4.39001 -31.3965 17.8871 
12.4662 -31.3965 12.6057 11.7899 -31.3965 13.4602 -30.5923 -23.9967 12.6057 
-32.6094 -20.8425 12.6057 -25.2095 -23.9967 19.6484 15.0941 -23.9967 12.6057 
11.7899 -23.9967 16.1592 19.1898 -18.0753 12.6057 -35.0429 -16.5968 12.6057 
-32.6094 -16.5968 17.5559 11.7899 -16.5968 19.0732 22.4373 -16.5968 12.6057 
19.1898 -16.5968 13.9246 26.5897 -15.3443 12.6057 33.9895 -14.128 12.6057 
-37.4058 -9.19689 12.6057 19.1898 -9.19689 18.8441 26.5897 -9.19689 18.1609 
40.978 -9.19689 12.6057 33.9895 -9.19689 16.264 41.3894 -6.51491 12.6057 
-38.5025 -1.79701 12.6057 19.1898 -1.79701 19.3516 26.5897 -1.79701 18.9768 
33.9895 -1.79701 17.3645 41.8482 -1.79701 12.6057 41.3894 -0.525363 12.6057 
41.3894 -1.79701 13.0224 -39.0512 5.60288 12.6057 19.1898 5.60288 19.1224 
26.5897 5.60288 18.7806 38.8453 5.60288 12.6057 33.9895 5.60288 16.1855 
-38.5816 13.0028 12.6057 19.1898 13.0028 18.6563 26.5897 13.0028 17.1295 
34.875 13.0028 12.6057 33.9895 14.4875 12.6057 33.9895 13.0028 13.3508 
-36.7675 20.4026 12.6057 -32.6094 27.4606 12.6057 -32.6094 20.4026 19.3055 
11.7899 20.4026 18.7709 19.1898 20.4026 17.0867 29.5341 20.4026 12.6057 
26.5897 23.5376 12.6057 26.5897 20.4026 14.455 -32.3553 27.8025 12.6057 
-25.2095 34.4984 12.6057 4.39001 27.8025 18.1438 11.7899 33.5566 12.6057 
11.7899 27.8025 16.1855 21.6715 27.8025 12.6057 19.1898 29.59 12.6057 
19.1898 27.8025 13.8775 -23.8582 35.2024 12.6057 -17.8096 37.9485 12.6057 
[...]
POINT_DATA 472
SCALARS ImageScalars float
LOOKUP_TABLE default
0 0 0 0 0 0 0 0 0 
0 0 0 0 0 0 0 0 0 
0 0 0 0 0 0 0 0 0 
0 0 0 0 0 0 0 0 0 
0 0 0 0 0 0 0 0 0 
0 0 0 0 0 0 0 0 0 
0 0 0 0 0 0 0 0 0 
0 0 0 0 0 0 0 0 0 
0 0 0 0 0 0 0 0 0 
0 0 0 0 0 0 0 0 0 
0 0 0 0 0 0 0 0 0 
0 0 0 0 0 0 0 0 0 
0 0 0 0 0 0 0 0 0 
0 0 0 0 0 0 0 0 0 
0 0 0 0 0 0 0 0 0 
0 0 0 0 0 0 0 0 0 
0 0 0 0 0 0 0 0 0 
0 0 0 0 0 0 0 0 0 
0 0 0 0 0 0 0 0 0 
0 0 0 0 0 0 0 0 0 
0 0 0 0 0 0 0 0 0 
0 0 0 0 0 0 0 0 0 
0 0 0 0 0 0 0 0 0 
0 0 0 0 0 0 0 0 0 
0 0 0 0 0 0 0 0 0 
0 0 0 0 0 0 0 0 0 
0 0 0 0 0 0 0 0 0 
0 0 0 0 0 0 0 0 0 
0 0 0 0 0 0 0 0 0 
0 0 0 0 0 0 0 0 0 
0 0 0 0 0 0 0 0 0 
0 0 0 0 0 0 0 0 0 
0 0 0 0 0 0 0 0 0 
0 0 0 0 0 0 0 0 0 
0 0 0 0 0 0 0 0 0 
0 0 0 0 0 0 0 0 0 
0 0 0 0 0 0 0 0 0 
0 0 0 0 0 0 0 0 0 
0 0 0 0 0 0 0 0 0 
0 0 0 0 0 0 0 0 0 
0 0 0 0 0 0 0 0 0 
0 0 0 0 0 0 0 0 0 
0 0 0 0 0 0 0 0 0 
0 0 0 0 0 0 0 0 0 
0 0 0 0 0 0 0 0 0 
0 0 0 0 0 0 0 0 0 
0 0 0 0 0 0 0 0 0 
0 0 0 0 0 0 0 0 0 
0 0 0 0 0 0 0 0 0 
0 0 0 0 0 0 0 0 0 
0 0 0 0 0 0 0 0 0 
0 0 0 0 0 0 0 0 0 
0 0 0 0 
NORMALS Normals float
0.0600684 0.594424 0.801905 -0.0620346 0.554114 0.830126 0.312934 0.369603 0.874909 
0.143725 0.324209 0.935004 0.0516736 0.266172 0.96254 -0.0890958 0.254292 0.963015 
-0.404346 0.261019 0.876569 0.501229 0.295859 0.813165 0.261533 0.182988 0.94769 
0.0913975 0.117743 0.988829 0.00516966 0.0535951 0.998549 -0.0714822 0.0711701 0.9949 
-0.35201 0.0738338 0.93308 0.371902 0.241379 0.89634 0.151762 0.161413 0.975148 
0.0149611 0.102115 0.99466 0.00416782 0.0117507 0.999922 -0.0659261 -0.0235438 0.997547 
-0.290003 -0.00669985 0.957002 -0.285607 0.199568 0.937337 0.62194 0.246649 0.743206 
0.297639 0.132081 0.945498 0.123211 0.110317 0.98623 -0.0586606 0.145417 0.98763 
-0.123513 0.0546122 0.990839 -0.0950553 -0.0375632 0.994763 -0.197412 0.00259166 0.980317 
-0.0948255 0.126349 0.987443 0.00205047 0.233995 0.972236 -0.127754 0.26451 0.955884 
-0.352284 0.311397 0.882569 0.541492 0.0927935 0.835569 0.237819 -0.0104497 0.971253 
0.166519 -0.081846 0.982636 -0.0342261 -0.0964282 0.994751 -0.182362 -0.0187298 0.983053 
-0.120958 0.0206398 0.992443 -0.130394 0.0453641 0.990424 -0.0495151 0.115753 0.992043 
-0.013207 0.0972325 0.995174 -0.125056 0.0580305 0.990451 -0.380556 0.0178276 0.924586 
0.475322 -0.0442004 0.878701 0.145597 -0.0550512 0.987811 0.0444845 -0.0965777 0.994331 
0.00493322 -0.184966 0.982733 -0.00672924 -0.0862714 0.996249 -0.0364102 0.0119874 0.999265 
-0.0970655 0.0573491 0.993624 -0.0513408 0.0976891 0.993892 -0.0564434 0.0606068 0.996565 
-0.203488 -0.0156082 0.978953 -0.48704 -0.194393 0.851471 0.49089 -0.147892 0.858577 
0.197858 -0.0515322 0.978875 0.0369864 0.00598137 0.999298 -0.0303536 -0.0160459 0.99941 
0.0179489 -0.00644766 0.999818 0.0179482 0.00289302 0.999835 -0.0403687 0.0403504 0.99837 
-0.0537265 0.0492536 0.99734 -0.123312 -0.0187122 0.992191 -0.343857 -0.120711 0.931231 
0.278777 -0.204423 0.938347 0.0768755 -0.105281 0.991467 -0.00783242 -0.0548552 0.998464 
0.0123062 -0.020732 0.999709 0.010098 -0.0304914 0.999484 -0.0487228 -0.0363346 0.998151 
-0.112268 -0.069771 0.991225 -0.221582 -0.192584 0.955936 -0.478975 -0.3357 0.811103 
0.41645 -0.515206 0.749088 0.191542 -0.399733 0.896395 0.058997 -0.313405 0.947785 
0.0415157 -0.249666 0.967442 0.0037591 -0.236034 0.971738 -0.0769954 -0.259418 0.962691 
-0.21094 -0.32705 0.921164 -0.388002 -0.48178 0.785711 0.0965471 -0.604589 0.790664 
-0.00721455 -0.589927 0.807425 -0.141714 -0.628678 0.764645 0.0616706 0.615352 0.785837 
-0.0628925 0.590963 0.804243 0.338772 0.497111 0.79882 0.416737 0.754701 0.506712 
0.123698 0.612409 0.780804 0.180275 0.597389 0.781426 0.190391 0.639973 0.744436 
-0.220846 0.583608 0.781427 -0.399395 0.53123 0.74718 -0.415182 0.608562 0.676222 
0.459 0.40289 0.791833 0.532504 0.32552 0.78133 0.678539 0.480104 0.555955 
-0.616254 0.270126 0.739773 -0.906408 0.311285 0.285526 0.536154 0.311448 0.784563 
-0.591195 0.201164 0.781039 -0.423704 0.238188 0.873923 -0.744451 0.340692 0.574214 
0.566613 0.307739 0.76436 0.645965 0.286552 0.707543 0.744789 0.344921 0.571243 
-0.233797 0.374285 0.897357 -0.131257 0.445512 0.885602 -0.203353 0.557429 0.804935 
-0.168726 0.487079 0.856905 -0.237772 0.766631 0.596441 -0.352985 0.324815 0.877438 
-0.343811 0.826499 0.445751 0.680262 0.249748 0.689108 -0.364989 0.310303 0.877779 
-0.872913 0.196388 0.446603 0.728873 0.117313 0.674523 -0.494549 -0.00385067 0.869141 
-0.914434 -0.128283 0.383868 0.69172 -0.0215214 0.721845 -0.513225 -0.204279 0.833588 
-0.517895 -0.214501 0.828115 0.62316 -0.16228 0.765073 0.597224 -0.352528 0.72045 
-0.535371 -0.231692 0.812217 -0.735267 -0.327288 0.593519 0.596623 -0.353736 0.720355 
0.598729 -0.354659 0.718151 -0.519185 -0.350452 0.779507 -0.498535 -0.381214 0.778549 
0.447625 -0.526983 0.722441 0.700675 -0.641819 0.311645 0.422872 -0.546935 0.722524 
0.254413 -0.617919 0.743942 0.150008 -0.632494 0.759901 -0.293905 -0.613683 0.732811 
-0.419664 -0.506616 0.753142 -0.403922 -0.522825 0.750667 -0.644783 -0.682467 0.344227 
0.30368 -0.776133 0.552626 0.133352 -0.641586 0.755371 0.162272 -0.675938 0.718871 
0.0990338 -0.635608 0.765633 -0.00634799 -0.650149 0.75978 -0.193431 -0.656159 0.729411 
-0.145778 -0.654317 0.742036 -0.329309 -0.756632 0.564857 0.434139 0.845898 0.309805 
0.241335 0.914561 0.324555 0.155404 0.92444 0.348223 -0.0679093 0.931283 0.35791 
-0.0708874 0.960977 0.267391 -0.491987 0.811262 0.315917 0.545866 0.782507 0.299521 
0.709503 0.638806 0.297542 -0.779322 0.568729 0.263066 -0.900643 0.384912 0.201707 
0.783294 0.537458 0.312393 -0.923255 0.339861 0.179148 0.8486 0.415532 0.327432 
0.853973 0.408162 0.322698 0.869659 0.419709 0.259879 -0.705273 0.685605 0.180377 
-0.484265 0.841413 0.239815 -0.255966 0.919944 0.296958 -0.348631 0.862198 0.36752 
0.902649 0.326372 0.280547 -0.447148 0.813294 0.372307 -0.860604 0.352608 0.367462 
0.955498 0.213295 0.203786 -0.914518 0.190462 0.356905 0.98027 0.134541 0.144805 
-0.94376 -0.140727 0.299188 -0.937157 -0.21764 0.272708 0.982493 0.0522606 0.178819 
-0.908089 -0.344241 0.238481 0.964841 -0.107832 0.239697 -0.893056 -0.387934 0.227944 
-0.850416 -0.492259 0.185672 0.874678 -0.385957 0.293216 -0.840171 -0.510195 0.183885 
0.705904 -0.642986 0.297101 0.701627 -0.647369 0.297713 0.514034 -0.786599 0.342098 
-0.509298 -0.832038 0.219836 -0.697074 -0.692545 0.185658 -0.660107 -0.72624 0.191923 
0.46218 -0.814225 0.351323 0.536761 -0.815189 0.217609 0.33181 -0.86249 0.382116 
0.20292 -0.894046 0.399381 0.0979375 -0.927498 0.36077 -0.0266525 -0.948777 0.314821 
-0.225842 -0.931267 0.285897 -0.482205 -0.848392 0.218425 -0.37408 -0.896552 0.237187 
-0.0849118 0.99491 -0.054255 0.451393 0.891984 -0.0246864 0.262176 0.965008 -0.00477417 
0.135208 0.990706 -0.0148302 0.160777 0.986945 -0.00954491 -0.242823 0.967875 -0.0652238 
-0.107457 0.976151 -0.188634 -0.562878 0.821021 -0.0953612 0.603488 0.796851 -0.0288119 
0.718906 0.694736 -0.0227319 -0.848721 0.498227 -0.177318 -0.941384 0.241442 -0.23559 
0.828042 0.560573 -0.0102085 0.893709 0.44828 0.0181465 -0.94335 0.229922 -0.23922 
-0.94311 0.22422 -0.245499 0.906599 0.421352 0.0232641 -0.748156 0.600678 -0.281867 
-0.82553 0.445656 -0.346253 -0.345072 0.92532 -0.157187 -0.178214 0.980964 -0.0771352 
-0.308424 0.946451 -0.0954165 0.962208 0.272035 0.0123673 -0.545126 0.832084 -0.102343 
-0.383626 0.860044 -0.336385 -0.854307 0.508827 -0.106087 0.990278 0.13871 -0.0104814 
-0.981141 0.167907 -0.0957569 -0.913732 0.17403 -0.367162 0.991807 0.11902 -0.046412 
-0.976931 -0.181422 -0.112661 -0.95103 -0.292578 -0.0996941 -0.943651 -0.157452 -0.291087 
0.99348 0.108805 -0.0340509 -0.909171 -0.403793 -0.101779 0.998768 -0.0494899 0.00370634 
-0.879383 -0.430183 -0.20403 -0.848288 -0.482373 -0.218457 -0.802246 -0.417042 -0.427175 
0.939368 -0.340921 0.0368916 -0.833178 -0.508265 -0.217902 0.783566 -0.61526 0.0864785 
0.746475 -0.658245 0.0974074 -0.54283 -0.826685 -0.148081 -0.697921 -0.683835 -0.21278 
-0.679498 -0.702894 -0.210292 -0.681087 -0.682753 -0.264518 0.571249 -0.809715 0.134301 
0.551359 -0.822979 0.136781 0.348507 -0.924239 0.155968 0.163651 -0.980443 0.109312 
0.0307812 -0.998879 0.0359592 -0.0833168 -0.995892 -0.0354575 -0.252123 -0.964354 -0.08035 
-0.514482 -0.846087 -0.139447 -0.418583 -0.901661 -0.108612 0.458916 0.848591 -0.263228 
0.255078 0.929308 -0.267062 0.100828 0.94606 -0.307904 -0.161126 0.904354 -0.395199 
-0.623548 0.646634 -0.439376 0.533194 0.804558 -0.261516 0.706434 0.666476 -0.238245 
0.452764 0.810566 -0.371466 -0.707958 0.539102 -0.456251 -0.64396 0.569939 -0.510377 
0.776512 0.59218 -0.215298 0.872288 0.46256 -0.158596 0.667199 0.623092 -0.40817 
-0.889022 0.212627 -0.405498 0.875954 0.45635 -0.15636 0.868067 0.464414 -0.17544 
-0.830519 0.399497 -0.388125 -0.669722 0.633553 -0.387406 -0.164942 0.907546 -0.386204 
-0.17715 0.94364 -0.279573 0.954034 0.291568 -0.0693283 -0.142707 0.861586 -0.487139 
-0.362168 0.846672 -0.389848 -0.208518 0.840371 -0.500297 -0.432032 0.790556 -0.434014 
0.986538 0.163075 -0.0122635 -0.853612 0.198379 -0.481655 -0.560795 0.311791 -0.767004 
0.993708 0.111501 0.0105847 -0.881113 -0.132666 -0.453915 0.99429 0.104563 -0.0213301 
-0.808027 -0.402968 -0.429779 -0.782794 -0.409361 -0.468675 -0.70558 -0.364394 -0.607761 
0.994886 -0.042896 -0.0914459 -0.78209 -0.410894 -0.46851 0.946 -0.305198 -0.109264 
-0.730865 -0.486748 -0.478448 -0.673812 -0.558364 -0.483949 -0.654059 -0.47922 -0.585282 
0.815534 -0.571941 -0.0882438 0.769965 -0.63313 -0.0793726 0.75487 -0.571065 -0.322578 
-0.610618 -0.632682 -0.476298 -0.555556 -0.696604 -0.453982 -0.534737 -0.599041 -0.595991 
0.596688 -0.799332 -0.0709376 0.550624 -0.831422 -0.0745045 0.512024 -0.808631 -0.289738 
0.293528 -0.949007 -0.115011 0.0837944 -0.978631 -0.187774 -0.0535761 -0.959385 -0.276964 
-0.14963 -0.922986 -0.354554 -0.286409 -0.871016 -0.399125 -0.282502 -0.700911 -0.654917 
-0.446139 -0.787266 -0.425644 -0.427332 -0.798614 -0.423795 -0.422221 -0.77755 -0.46599 
0.2012 0.821604 -0.533371 -0.0114775 0.786443 -0.617556 -0.272568 0.646676 -0.712402 
0.306634 0.801124 -0.513981 0.436232 0.75655 -0.487169 0.184007 0.784313 -0.592447 
-0.0519077 0.711968 -0.700291 -0.336235 0.621596 -0.707505 -0.275619 0.62256 -0.732429 
-0.684574 0.365729 -0.630556 0.646481 0.626999 -0.434666 0.657757 0.620175 -0.427479 
0.34137 0.574907 -0.743606 -0.152244 0.403657 -0.902155 -0.334609 0.388723 -0.858447 
-0.719555 0.31739 -0.61766 -0.687032 0.317336 -0.653671 0.768466 0.530539 -0.357756 
0.826217 0.472068 -0.307438 0.506703 0.520289 -0.687423 -0.735667 0.406711 -0.541647 
-0.631127 0.295969 -0.716994 -0.526966 0.670451 -0.522305 0.887611 0.394674 -0.237442 
0.761044 0.438502 -0.478047 -0.403418 0.272148 -0.873607 -0.335425 0.774833 -0.535839 
-0.446651 0.663208 -0.600548 -0.176946 0.808498 -0.561267 -0.269652 0.653618 -0.707157 
0.962628 0.212563 -0.167822 -0.172752 0.233277 -0.956942 -0.165075 0.33986 -0.925875 
-0.547399 0.314411 -0.775565 -0.342788 0.364521 -0.865806 -0.60454 0.164094 -0.77949 
0.985956 0.107219 -0.12804 -0.123675 0.0167664 -0.992181 -0.121328 0.0346381 -0.992008 
-0.351432 -0.00283417 -0.936209 -0.663317 -0.0988649 -0.741779 -0.658889 -0.139511 -0.73919 
-0.647156 -0.0957223 -0.756324 0.98399 0.00484001 -0.17816 -0.117291 -0.0452778 -0.992065 
-0.172047 -0.117705 -0.978031 -0.618346 -0.312238 -0.721218 -0.456102 -0.229877 -0.859725 
0.949914 -0.138699 -0.280047 -0.19019 -0.129645 -0.97315 -0.303398 -0.258815 -0.917041 
-0.603269 -0.372707 -0.705093 -0.590074 -0.387145 -0.708472 -0.574657 -0.36488 -0.732552 
0.874045 -0.349509 -0.337475 0.750072 -0.559152 -0.353187 0.654157 -0.361968 -0.664121 
-0.255276 -0.246143 -0.935012 -0.251986 -0.280994 -0.926038 -0.51129 -0.443457 -0.736158 
-0.4687 -0.484658 -0.73853 -0.422485 -0.409853 -0.80841 0.740688 -0.570141 -0.355416 
0.491865 -0.777477 -0.391916 -0.22562 -0.433952 -0.872228 -0.270338 -0.612837 -0.742528 
-0.249815 -0.414288 -0.87519 -0.408005 -0.529779 -0.743549 -0.370696 -0.554844 -0.744804 
-0.350999 -0.497337 -0.793382 0.439016 -0.801061 -0.406899 0.219076 -0.85928 -0.462217 
0.180879 -0.767385 -0.615145 -0.0176353 -0.831479 -0.555276 -0.0666757 -0.707892 -0.703166 
-0.144062 -0.74925 -0.646429 -0.169797 -0.67528 -0.71775 -0.220231 -0.670042 -0.708902 
-0.186992 -0.689269 -0.699958 -0.190076 -0.664148 -0.723034 0.0482883 0.506067 -0.861142 
0.136181 0.515274 -0.846137 0.30058 0.526095 -0.795535 -0.10989 0.422661 -0.899601 
0.0410544 0.48397 -0.874121 -0.155063 0.394243 -0.90583 -0.308414 0.2472 -0.918571 
0.478678 0.511431 -0.713657 0.493766 0.510561 -0.703934 0.206613 0.39783 -0.893892 
-0.0474573 0.317581 -0.947043 -0.203667 0.243976 -0.948154 -0.328299 0.233988 -0.915134 
-0.307 0.227668 -0.924077 0.642517 0.440105 -0.627279 0.716125 0.378287 -0.586569 
0.365735 0.381148 -0.849096 0.093897 0.267115 -0.959079 -0.111734 0.230833 -0.966557 
-0.245561 0.229754 -0.941761 -0.34481 0.244041 -0.906394 -0.283499 0.235231 -0.929675 
-0.354818 0.184726 -0.916505 0.783496 0.259102 -0.564801 0.68523 0.255931 -0.681879 
0.278323 0.167836 -0.94571 0.037156 0.131295 -0.990647 -0.0948225 0.107277 -0.989697 
-0.184874 0.177703 -0.966563 -0.303552 0.247343 -0.920151 -0.261992 0.148557 -0.953568 
-0.338014 0.115748 -0.933996 0.829451 0.078744 -0.553002 0.626655 0.0564051 -0.777253 
0.22932 -0.00142167 -0.97335 -0.0693473 0.00710429 -0.997567 -0.0959026 0.0845318 -0.991795 
-0.325501 0.108897 -0.93925 -0.249717 0.00221203 -0.968316 -0.42031 -0.00707072 -0.907353 
0.780913 -0.0768905 -0.619889 0.598951 -0.107987 -0.793471 0.225801 -0.0984562 -0.969185 
0.0476136 -0.0582488 -0.997166 0.00107241 0.00313952 -0.999995 -0.0735777 0.0325743 -0.996757 
-0.363052 -0.0668112 -0.929371 -0.300281 -0.0488458 -0.952599 -0.435564 -0.054376 -0.898514 
0.69935 -0.198026 -0.6868 0.636088 -0.323957 -0.700317 0.606357 -0.20491 -0.768338 
0.294795 -0.168749 -0.940542 0.131514 -0.107484 -0.98547 0.0218129 -0.0905654 -0.995652 
-0.156369 -0.16468 -0.973873 -0.424083 -0.269967 -0.864449 -0.331206 -0.121404 -0.935715 
-0.337226 -0.133941 -0.931847 -0.348361 -0.122785 -0.929284 0.608683 -0.352893 -0.710614 
0.335722 -0.28289 -0.898479 0.129429 -0.265898 -0.955273 -0.0680122 -0.300482 -0.951359 
-0.266058 -0.410629 -0.872122 -0.289118 -0.305073 -0.907382 -0.282438 -0.386853 -0.877823 
-0.32579 -0.370665 -0.869752 0.438669 -0.525335 -0.729104 0.41551 -0.53881 -0.732827 
0.410806 -0.517977 -0.750292 0.10959 -0.604173 -0.789281 0.0954929 -0.486336 -0.868538 
-0.131031 -0.579131 -0.804635 -0.142801 -0.515938 -0.844639 -0.233731 -0.49655 -0.835947 
-0.233182 -0.501149 -0.833352 -0.234243 -0.498993 -0.834348 0.0340001 0.0753465 -0.996578 
0.075902 -0.00952233 -0.99707 -0.0168246 -0.00291267 -0.999854 0.036757 -0.0306567 -0.998854 
0.0296535 -0.0116464 -0.999492 
