# vtk DataFile Version 4.2
vtk output
ASCII
DATASET POLYDATA
POINTS 534 float
-36.497 -9.38962 -23.9595 -36.497 -1.18865 -23.8285 -11.8941 -42.1935 -18.2928 
-3.69312 -42.1935 -19.7894 4.50785 -42.1935 -19.8644 12.7088 -42.1935 -18.1914 
-28.296 -33.9925 -18.5649 -20.0951 -33.9925 -21.2526 -11.8941 -33.9925 -21.7123 
-3.69312 -33.9925 -22.402 4.50785 -33.9925 -22.2851 12.7088 -33.9925 -21.1747 
20.9098 -33.9925 -18.6289 -44.698 -25.7916 -17.0357 -36.497 -25.7916 -21.1114 
-28.296 -25.7916 -22.2865 -20.0951 -25.7916 -23.0741 -11.8941 -25.7916 -22.2021 
-3.69312 -25.7916 -22.3508 4.50785 -25.7916 -22.1809 12.7088 -25.7916 -21.208 
20.9098 -25.7916 -19.4316 29.1108 -25.7916 -16.9704 -52.8989 -17.5906 -15.9769 
-44.698 -17.5906 -21.409 -36.497 -11.2222 -23.7697 -36.497 -17.5906 -23.1478 
-28.296 -17.5906 -23.3306 -20.0951 -17.5906 -22.8385 -11.8941 -17.5906 -21.2733 
-3.69312 -17.5906 -20.3006 4.50785 -17.5906 -20.2315 12.7088 -17.5906 -19.9938 
20.9098 -17.5906 -18.928 29.1108 -17.5906 -17.8852 37.3117 -17.5906 -16.3383 
-52.8989 -9.38962 -19.2034 -38.8691 -9.38962 -23.7697 -44.698 -9.38962 -23.2576 
-34.3748 -9.38962 -23.7697 -28.296 -9.38962 -23.232 -20.0951 -9.38962 -21.9362 
-11.8941 -9.38962 -20.5425 -3.69312 -9.38962 -20.0463 4.50785 -9.38962 -18.6295 
12.7088 -9.38962 -18.7807 20.9098 -9.38962 -18.2482 29.1108 -9.38962 -17.7782 
37.3117 -9.38962 -17.213 -52.8989 -1.18865 -20.3623 -37.9185 -1.18865 -23.7697 
-44.698 -1.18865 -23.4657 -36.0068 -1.18865 -23.7697 -36.497 -0.239071 -23.7697 
-28.296 -1.18865 -22.8481 -20.0951 -1.18865 -21.1473 -11.8941 -1.18865 -21.6851 
-3.69312 -1.18865 -21.9375 4.50785 -1.18865 -17.8586 12.7088 -1.18865 -19.6517 
20.9098 -1.18865 -17.6279 29.1108 -1.18865 -17.5151 37.3117 -1.18865 -17.1471 
45.5127 -1.18865 -15.6443 -52.8989 7.01232 -19.266 -44.698 7.01232 -22.5875 
-36.497 7.01232 -23.3207 -28.296 7.01232 -22.8067 -20.0951 7.01232 -21.5299 
-11.8941 7.01232 -21.9125 -3.69312 7.01232 -19.701 4.50785 7.01232 -17.3677 
12.7088 7.01232 -16.7838 29.1108 7.01232 -16.4018 37.3117 7.01232 -16.5328 
-52.8989 15.2133 -17.558 -44.698 15.2133 -21.3075 -36.497 15.2133 -22.4339 
-28.296 15.2133 -22.6621 -20.0951 15.2133 -21.0657 -11.8941 15.2133 -19.1487 
-3.69312 15.2133 -18.0566 4.50785 15.2133 -17.1895 -44.698 23.4143 -18.3367 
-36.497 23.4143 -20.1483 -28.296 23.4143 -19.9189 -20.0951 23.4143 -18.1826 
-11.8941 -45.1488 -15.5688 -3.69312 -47.0777 -15.5688 4.50785 -47.2755 -15.5688 
4.50785 -50.3945 -7.81416 12.7088 -45.4983 -15.5688 -28.296 -37.4697 -15.5688 
-19.5117 -42.1935 -15.5688 -20.0951 -41.9066 -15.5688 -20.0951 -42.1935 -15.1389 
20.6924 -42.1935 -15.5688 20.9098 -42.017 -15.5688 20.9098 -42.1935 -15.4456 
29.1108 -42.1935 -7.6431 -44.698 -27.1041 -15.5688 -34.5494 -33.9925 -15.5688 
-36.497 -32.8266 -15.5688 -36.497 -33.9925 -12.6514 27.5076 -33.9925 -15.5688 
29.1108 -31.2094 -15.5688 29.1108 -33.9925 -14.6862 37.3117 -33.9925 -9.56491 
-46.2405 -25.7916 -15.5688 -52.8989 -18.106 -15.5688 32.7865 -25.7916 -15.5688 
37.3117 -20.0925 -15.5688 37.3117 -25.7916 -13.6838 45.5127 -25.7916 -9.17944 
-53.271 -17.5906 -15.5688 39.796 -17.5906 -15.5688 45.5127 -17.5906 -13.4227 
-56.4054 -9.38962 -15.5688 43.7479 -9.38962 -15.5688 45.5127 -2.33614 -15.5688 
45.5127 -9.38962 -15.0902 53.7137 -9.38962 -10.9935 -57.9317 -1.18865 -15.5688 
-61.0999 -1.18865 -9.05039 20.9098 6.41479 -15.5688 45.7156 -1.18865 -15.5688 
45.5127 -0.272853 -15.5688 53.7137 -1.18865 -12.3858 -56.7563 7.01232 -15.5688 
19.7652 7.01232 -15.5688 12.7088 8.92436 -15.5688 22.2536 7.01232 -15.5688 
20.9098 7.01232 -15.4017 29.1108 9.70365 -15.5688 42.4991 7.01232 -15.5688 
37.3117 10.2177 -15.5688 45.5127 7.01232 -14.9776 53.7137 7.01232 -12.1151 
-55.0922 15.2133 -15.5688 -52.8989 19.2639 -15.5688 -11.8941 22.9155 -15.5688 
-3.69312 20.7355 -15.5688 7.11321 15.2133 -15.5688 4.50785 19.3353 -15.5688 
12.7088 15.2133 -12.1879 20.9098 15.2133 -12.9113 29.1108 15.2133 -13.832 
37.3117 15.2133 -13.9285 45.5127 15.2133 -12.8918 53.7137 15.2133 -9.74 
-49.3452 23.4143 -15.5688 -52.8989 23.4143 -12.0538 -44.698 27.9958 -15.5688 
-36.497 31.0151 -15.5688 -28.296 29.9661 -15.5688 -12.6211 23.4143 -15.5688 
-20.0951 28.0684 -15.5688 -11.8941 23.4143 -15.3344 -3.69312 23.4143 -14.3984 
4.50785 23.4143 -13.857 12.7088 23.4143 -10.5208 20.9098 23.4143 -10.3491 
29.1108 23.4143 -10.7078 37.3117 23.4143 -10.5726 45.5127 23.4143 -9.60315 
-44.698 31.6152 -11.4765 -36.497 31.6152 -15.0857 -28.296 31.6152 -14.2838 
-20.0951 31.6152 -13.3461 -11.8941 31.6152 -11.6253 -3.69312 31.6152 -10.8807 
4.50785 31.6152 -9.47312 12.7088 31.6152 -7.57122 4.50785 -50.5321 -7.36779 
-20.0951 -45.7482 -7.36779 -11.8941 -48.9487 -7.36779 -1.69546 -50.3945 -7.36779 
-3.69312 -50.3504 -7.36779 5.53601 -50.3945 -7.36779 4.50785 -50.3945 -6.43656 
12.7088 -49.4059 -7.36779 20.9098 -46.6286 -7.36779 29.1108 -42.3518 -7.36779 
-36.497 -35.6164 -7.36779 -26.1812 -42.1935 -7.36779 -28.296 -40.8811 -7.36779 
29.338 -42.1935 -7.36779 29.1108 -42.1935 -2.47154 37.3117 -35.895 -7.36779 
-38.7658 -33.9925 -7.36779 -44.698 -29.757 -7.36779 -36.497 -33.9925 0.795348 
39.474 -33.9925 -7.36779 45.5127 -27.8424 -7.36779 -49.5291 -25.7916 -7.36779 
-52.8989 -22.2489 -7.36779 47.702 -25.7916 -7.36779 -56.4785 -17.5906 -7.36779 
53.6549 -17.5906 -7.36779 53.7137 -17.4986 -7.36779 53.7137 -17.5906 -7.27196 
-60.0315 -9.38962 -7.36779 -61.0999 -4.20677 -7.36779 58.0724 -9.38962 -7.36779 
-61.7221 -1.18865 -7.36779 -61.0999 5.18166 -7.36779 -61.0999 -1.18865 -0.459138 
59.5752 -1.18865 -7.36779 61.9146 -1.18865 -3.02763 -60.923 7.01232 -7.36779 
61.174 7.01232 -7.36779 61.9146 7.01232 -6.16953 -59.1815 15.2133 -7.36779 
57.4735 15.2133 -7.36779 53.7137 19.4364 -7.36779 61.9146 15.2133 -0.842466 
-55.5249 23.4143 -7.36779 -52.8989 26.8734 -7.36779 20.9098 31.0987 -7.36779 
29.1108 30.4115 -7.36779 37.3117 29.3186 -7.36779 49.7139 23.4143 -7.36779 
45.5127 27.3077 -7.36779 53.7137 23.4143 -4.02258 -47.6673 31.6152 -7.36779 
-44.698 33.732 -7.36779 -36.497 38.0097 -7.36779 -28.296 38.6087 -7.36779 
-20.0951 38.465 -7.36779 -11.8941 37.8373 -7.36779 -3.69312 36.8242 -7.36779 
4.50785 34.7708 -7.36779 16.6428 31.6152 -7.36779 12.7088 31.9506 -7.36779 
20.9098 31.6152 -7.134 29.1108 31.6152 -6.75769 37.3117 31.6152 -5.71008 
45.5127 31.6152 -2.45816 -36.497 39.8162 -0.974087 -28.296 39.8162 -5.53935 
-20.0951 39.8162 -5.82486 -11.8941 39.8162 -5.55483 -3.69312 39.8162 -4.73426 
4.50785 39.8162 -3.19396 12.7088 39.8162 -1.58369 20.9098 39.8162 -0.53959 
29.1108 39.8162 0.585607 -20.0951 -45.4715 0.833181 -11.8941 -48.7208 0.833181 
-3.69312 -49.7018 0.833181 4.50785 -49.2557 0.833181 12.7088 -48.0481 0.833181 
20.9098 -45.7178 0.833181 -25.2272 -42.1935 0.833181 -28.296 -40.0302 0.833181 
-20.0951 -42.1935 6.69616 28.8613 -42.1935 0.833181 20.9098 -42.1935 6.40715 
29.1108 -42.0913 0.833181 37.3117 -37.2771 0.833181 -44.698 -28.2 0.833181 
-36.4857 -33.9925 0.833181 -36.497 -33.9842 0.833181 41.6899 -33.9925 0.833181 
37.3117 -33.9925 6.5586 45.5127 -30.8146 0.833181 -47.6451 -25.7916 0.833181 
-52.8989 -20.5138 0.833181 -44.698 -25.7916 4.52942 50.5259 -25.7916 0.833181 
53.7137 -22.1005 0.833181 -55.1849 -17.5906 0.833181 -52.8989 -17.5906 4.67513 
56.9895 -17.5906 0.833181 -59.2812 -9.38962 0.833181 61.2101 -9.38962 0.833181 
61.9146 -7.06896 0.833181 -60.9811 -1.18865 0.833181 63.5374 -1.18865 0.833181 
61.9146 -1.18865 7.35591 -60.3964 7.01232 0.833181 64.4888 7.01232 0.833181 
-58.8885 15.2133 0.833181 62.5724 15.2133 0.833181 61.9146 16.7043 0.833181 
61.9146 15.2133 5.45249 -55.4014 23.4143 0.833181 -52.8989 27.1464 0.833181 
-52.8989 23.4143 7.39274 57.8175 23.4143 0.833181 53.7137 28.1087 0.833181 
-49.1461 31.6152 0.833181 -44.698 35.5211 0.833181 37.3117 37.5194 0.833181 
48.9415 31.6152 0.833181 45.5127 33.9231 0.833181 -37.3741 39.8162 0.833181 
-36.497 40.2598 0.833181 -36.497 39.8162 3.61957 -28.296 43.0168 0.833181 
-20.0951 44.1362 0.833181 -11.8941 44.5998 0.833181 -3.69312 44.1689 0.833181 
4.50785 43.1601 0.833181 12.7088 41.9427 0.833181 20.9098 40.8219 0.833181 
29.8663 39.8162 0.833181 29.1108 40.0054 0.833181 37.3117 39.8162 8.24307 
-11.8941 -43.9299 9.03415 -3.69312 -44.691 9.03415 4.50785 -43.5376 9.03415 
12.7088 -42.4756 9.03415 -28.296 -34.1805 9.03415 -16.3293 -42.1935 9.03415 
-20.0951 -40.3011 9.03415 -11.8941 -42.1935 10.7635 -3.69312 -42.1935 11.183 
4.50785 -42.1935 10.2406 13.8247 -42.1935 9.03415 12.7088 -42.1935 9.28299 
20.9098 -39.6458 9.03415 29.1108 -36.0141 9.03415 -28.5488 -33.9925 9.03415 
-36.497 -27.2951 9.03415 -28.296 -33.9925 9.18695 -20.0951 -33.9925 12.9197 
-11.8941 -33.9925 15.2277 -3.69312 -33.9925 14.9603 4.50785 -33.9925 14.219 
12.7088 -33.9925 13.269 20.9098 -33.9925 12.3256 33.5549 -33.9925 9.03415 
29.1108 -33.9925 10.7744 37.3117 -31.9869 9.03415 45.5127 -26.2974 9.03415 
-38.8158 -25.7916 9.03415 -44.698 -22.0833 9.03415 -36.497 -25.7916 10.3068 
-28.296 -25.7916 13.2119 -20.0951 -25.7916 14.6156 -11.8941 -25.7916 16.0762 
-3.69312 -25.7916 16.0463 4.50785 -25.7916 15.6947 12.7088 -25.7916 15.544 
20.9098 -25.7916 15.3518 29.1108 -25.7916 14.8552 37.3117 -25.7916 13.0812 
46.0573 -25.7916 9.03415 45.5127 -25.7916 9.48341 53.7137 -17.7904 9.03415 
-49.361 -17.5906 9.03415 -52.8989 -13.0228 9.03415 -44.698 -17.5906 12.5696 
-36.497 -17.5906 14.7111 -28.296 -17.5906 15.6546 -20.0951 -17.5906 15.4626 
-11.8941 -17.5906 15.3387 -3.69312 -17.5906 15.6109 4.50785 -17.5906 16.1551 
12.7088 -17.5906 16.5568 20.9098 -17.5906 17.0163 37.3117 -17.5906 16.9066 
45.5127 -17.5906 15.0096 53.8642 -17.5906 9.03415 53.7137 -17.5906 9.1986 
-54.9039 -9.38962 9.03415 -52.8989 -9.38962 11.1066 -44.698 -9.38962 15.6361 
-36.497 -9.38962 17.1761 -20.0951 -9.38962 16.3752 -11.8941 -9.38962 16.7342 
58.5696 -9.38962 9.03415 53.7137 -9.38962 14.0086 -57.1932 -1.18865 9.03415 
-52.8989 -1.18865 13.3612 -11.8941 -1.18865 17.102 61.3729 -1.18865 9.03415 
61.9146 1.18903 9.03415 -56.7561 7.01232 9.03415 -52.8989 7.01232 13.2374 
[...]
POINT_DATA 534
SCALARS ImageScalars float
LOOKUP_TABLE default
0 0 0 0 0 0 0 0 0 
0 0 0 0 0 0 0 0 0 
0 0 0 0 0 0 0 0 0 
0 0 0 0 0 0 0 0 0 
0 0 0 0 0 0 0 0 0 
0 0 0 0 0 0 0 0 0 
0 0 0 0 0 0 0 0 0 
0 0 0 0 0 0 0 0 0 
0 0 0 0 0 0 0 0 0 
0 0 0 0 0 0 0 0 0 
0 0 0 0 0 0 0 0 0 
0 0 0 0 0 0 0 0 0 
0 0 0 0 0 0 0 0 0 
0 0 0 0 0 0 0 0 0 
0 0 0 0 0 0 0 0 0 
0 0 0 0 0 0 0 0 0 
0 0 0 0 0 0 0 0 0 
0 0 0 0 0 0 0 0 0 
0 0 0 0 0 0 0 0 0 
0 0 0 0 0 0 0 0 0 
0 0 0 0 0 0 0 0 0 
0 0 0 0 0 0 0 0 0 
0 0 0 0 0 0 0 0 0 
0 0 0 0 0 0 0 0 0 
0 0 0 0 0 0 0 0 0 
0 0 0 0 0 0 0 0 0 
0 0 0 0 0 0 0 0 0 
0 0 0 0 0 0 0 0 0 
0 0 0 0 0 0 0 0 0 
0 0 0 0 0 0 0 0 0 
0 0 0 0 0 0 0 0 0 
0 0 0 0 0 0 0 0 0 
0 0 0 0 0 0 0 0 0 
0 0 0 0 0 0 0 0 0 
0 0 0 0 0 0 0 0 0 
0 0 0 0 0 0 0 0 0 
0 0 0 0 0 0 0 0 0 
0 0 0 0 0 0 0 0 0 
0 0 0 0 0 0 0 0 0 
0 0 0 0 0 0 0 0 0 
0 0 0 0 0 0 0 0 0 
0 0 0 0 0 0 0 0 0 
0 0 0 0 0 0 0 0 0 
0 0 0 0 0 0 0 0 0 
0 0 0 0 0 0 0 0 0 
0 0 0 0 0 0 0 0 0 
0 0 0 0 0 0 0 0 0 
0 0 0 0 0 0 0 0 0 
0 0 0 0 0 0 0 0 0 
0 0 0 0 0 0 0 0 0 
0 0 0 0 0 0 0 0 0 
0 0 0 0 0 0 0 0 0 
0 0 0 0 0 0 0 0 0 
0 0 0 0 0 0 0 0 0 
0 0 0 0 0 0 0 0 0 
0 0 0 0 0 0 0 0 0 
0 0 0 0 0 0 0 0 0 
0 0 0 0 0 0 0 0 0 
0 0 0 0 0 0 0 0 0 
0 0 0 
NORMALS Normals float
0.00586789 -0.0435736 -0.999033 0.0395036 0.038814 -0.998465 -0.228992 -0.587462 -0.776178 
-0.0868384 -0.514848 -0.852872 0.0897953 -0.494676 -0.864426 0.223091 -0.53275 -0.816338 
-0.325774 -0.5881 -0.740277 -0.162864 -0.381253 -0.910012 -0.065058 -0.206744 -0.97623 
-0.0346495 -0.141404 -0.989345 0.0787212 -0.128694 -0.988555 0.201493 -0.153702 -0.967355 
0.365807 -0.185097 -0.912099 -0.536611 -0.630099 -0.56127 -0.269967 -0.438287 -0.857334 
-0.103882 -0.245346 -0.963854 0.00461303 -0.0838045 -0.996472 0.0420645 0.0245122 -0.998814 
0.000716971 0.129693 -0.991554 0.0678225 0.126218 -0.989681 0.156901 0.0717682 -0.985003 
0.248834 -0.0137366 -0.968449 0.309205 -0.164975 -0.936577 -0.709733 -0.440478 -0.54978 
-0.359889 -0.2946 -0.885263 -0.0202199 -0.0661634 -0.997604 -0.106567 -0.147146 -0.983357 
0.0161925 -0.0585754 -0.998152 0.122995 0.0701183 -0.989927 0.149796 0.102812 -0.983357 
0.0614748 0.134373 -0.989022 0.0185538 0.210141 -0.977495 0.0797144 0.145428 -0.986152 
0.124577 0.0692189 -0.989793 0.152687 -0.0462555 -0.987191 0.242337 -0.196994 -0.949982 
-0.60911 -0.200968 -0.7672 -0.0636643 -0.066575 -0.995748 -0.247248 -0.123918 -0.960996 
0.0354539 -0.0247144 -0.999066 0.12151 0.029185 -0.992161 0.163047 0.0958625 -0.98195 
0.114297 -0.0193795 -0.993258 0.126482 -0.0766713 -0.989001 0.0678336 0.139138 -0.987947 
0.023197 0.0209951 -0.99951 0.0608615 0.0785535 -0.99505 0.0628447 0.022207 -0.997776 
0.155105 -0.0446088 -0.98689 -0.536395 -0.00244784 -0.843964 0.00425565 0.0394111 -0.999214 
-0.178289 0.0411342 -0.983118 0.0460628 0.0379971 -0.998216 0.0336722 0.0448503 -0.998426 
0.155781 0.025721 -0.987457 0.0770968 0.0252559 -0.996704 -0.0470336 -0.0920757 -0.994641 
0.262557 0.00817783 -0.964882 0.0859579 0.0810619 -0.992996 0.0216111 0.0925426 -0.995474 
0.126663 0.166264 -0.977912 0.029106 0.0825303 -0.996163 0.110732 0.0427649 -0.99293 
0.262888 0.00784943 -0.964794 -0.539015 0.146212 -0.829509 -0.208788 0.13281 -0.968901 
-0.0104094 0.0888048 -0.995995 0.108629 0.0110052 -0.994021 0.0558732 0.00501791 -0.998425 
0.0878933 0.146685 -0.985271 0.28523 0.220616 -0.932723 0.155002 0.0406732 -0.987077 
0.124392 0.465685 -0.876164 -0.0675657 0.220775 -0.972982 0.0821911 0.184668 -0.979358 
-0.611152 0.290045 -0.736456 -0.260029 0.214799 -0.941407 -0.0793397 0.173101 -0.981703 
0.0792663 0.16149 -0.983686 0.204605 0.178477 -0.962436 0.175023 0.35862 -0.916929 
0.112708 0.293274 -0.949362 0.341994 0.201122 -0.917927 -0.341734 0.448041 -0.826122 
-0.0765157 0.414745 -0.906715 0.10302 0.427191 -0.898273 0.246275 0.416234 -0.87527 
-0.250708 -0.729662 -0.636191 -0.107153 -0.781992 -0.614009 0.0696757 -0.784232 -0.616543 
0.0555154 -0.993188 -0.10245 0.250708 -0.7037 -0.664795 -0.405955 -0.715228 -0.568902 
-0.350042 -0.709696 -0.611394 -0.353545 -0.707519 -0.611901 -0.364334 -0.726404 -0.582751 
0.416629 -0.604429 -0.679033 0.421467 -0.59658 -0.682977 0.422446 -0.609972 -0.670428 
0.558485 -0.788592 -0.257327 -0.55521 -0.685417 -0.471111 -0.454263 -0.732727 -0.506712 
-0.470366 -0.732136 -0.49268 -0.522556 -0.791083 -0.317998 0.423727 -0.312006 -0.850357 
0.390161 -0.279588 -0.877271 0.447801 -0.365697 -0.815929 0.584765 -0.610752 -0.533883 
-0.580065 -0.657948 -0.480238 -0.716706 -0.454451 -0.528968 0.340803 -0.225613 -0.912662 
0.283939 -0.230744 -0.930664 0.408987 -0.326879 -0.851986 0.576227 -0.538212 -0.615053 
-0.724372 -0.441704 -0.529323 0.292663 -0.222488 -0.929972 0.442812 -0.295884 -0.846386 
-0.768964 -0.229519 -0.59667 0.289192 -0.0926122 -0.952781 0.271946 -0.00742789 -0.962284 
0.330227 -0.111342 -0.937311 0.577804 -0.255447 -0.775171 -0.773045 -0.0226933 -0.633945 
-0.973233 -0.050255 -0.22426 0.0188396 0.271908 -0.962139 0.267713 0.00685373 -0.963474 
0.262225 0.0231966 -0.964728 0.520686 -0.0547223 -0.851993 -0.759802 0.141159 -0.634646 
0.0243725 0.307651 -0.951187 0.154202 0.4651 -0.871725 -0.00292909 0.270606 -0.962686 
0.00841432 0.280202 -0.959904 -0.0675606 0.253295 -0.965027 0.189682 0.162742 -0.968264 
0.0679415 0.242703 -0.967719 0.252318 0.15239 -0.955569 0.441129 0.149845 -0.884846 
-0.714472 0.292229 -0.635714 -0.640501 0.399006 -0.656165 0.203607 0.412632 -0.887851 
0.0878757 0.352977 -0.931496 0.338535 0.264075 -0.903138 0.301054 0.318586 -0.898815 
0.206437 0.323439 -0.923456 -0.0954127 0.291748 -0.951724 -0.058559 0.317544 -0.946434 
0.0497808 0.333111 -0.941573 0.232517 0.313999 -0.920511 0.441604 0.357946 -0.822715 
-0.516924 0.498897 -0.695623 -0.705719 0.530719 -0.469359 -0.383844 0.586379 -0.713319 
-0.05044 0.628694 -0.776015 0.0912373 0.60584 -0.790338 0.209667 0.415857 -0.884931 
0.195066 0.507232 -0.839444 0.203588 0.414422 -0.887021 0.0791325 0.387194 -0.918596 
0.234285 0.406682 -0.883018 0.190027 0.25675 -0.947612 -0.00967197 0.335515 -0.941985 
-0.0133876 0.396904 -0.917763 0.064387 0.415082 -0.907503 0.273738 0.445859 -0.852219 
-0.460146 0.74411 -0.484321 -0.0565194 0.6512 -0.756799 0.0775479 0.64604 -0.759354 
0.135545 0.581748 -0.801995 0.118362 0.484303 -0.866857 0.114066 0.489331 -0.864606 
0.173802 0.507908 -0.843696 0.126287 0.445778 -0.88619 0.0555174 -0.995261 -0.0798331 
-0.430246 -0.888449 -0.159834 -0.259824 -0.951121 -0.166916 -0.056235 -0.992758 -0.106159 
-0.0918356 -0.989137 -0.114783 0.0758903 -0.993993 -0.0788584 0.0603071 -0.997537 -0.0358197 
0.223538 -0.970845 -0.0865484 0.399778 -0.902395 -0.160813 0.555601 -0.795583 -0.241569 
-0.565424 -0.823216 -0.0510953 -0.516618 -0.847497 -0.121877 -0.537595 -0.83644 -0.106585 
0.558198 -0.793013 -0.244021 0.494517 -0.866784 0.0643336 0.613562 -0.684646 -0.393448 
-0.572713 -0.818386 -0.0473751 -0.601848 -0.79698 -0.051006 -0.55297 -0.768299 0.322399 
0.627961 -0.664462 -0.405162 0.617358 -0.603135 -0.505071 -0.671359 -0.738716 -0.0597999 
-0.75596 -0.649878 -0.0786318 0.641799 -0.567463 -0.515829 -0.853311 -0.51311 -0.0926196 
0.690979 -0.436765 -0.576007 0.691506 -0.43557 -0.57628 0.695056 -0.439476 -0.568997 
-0.949788 -0.283657 -0.132064 -0.981395 -0.138386 -0.133089 0.759604 -0.286214 -0.584023 
-0.989486 -0.0532689 -0.134462 -0.983233 0.0990224 -0.153128 -0.981538 -0.063935 0.180265 
0.780454 -0.122548 -0.613085 0.936091 -0.17114 -0.307318 -0.976908 0.14245 -0.159243 
0.771906 0.0554587 -0.633313 0.837933 0.0485689 -0.543608 -0.936174 0.303917 -0.176672 
0.592111 0.377311 -0.712068 0.499305 0.438275 -0.747402 0.911295 0.344725 -0.225181 
-0.828222 0.51682 -0.216669 -0.752735 0.612319 -0.241774 0.0406572 0.424171 -0.904669 
0.0461374 0.490562 -0.870184 0.101501 0.586467 -0.803588 0.426148 0.472604 -0.77139 
0.287592 0.558623 -0.777966 0.611603 0.558384 -0.56049 -0.578957 0.765853 -0.279782 
-0.503777 0.809212 -0.302297 -0.244343 0.8675 -0.433291 -0.0255677 0.776239 -0.62992 
0.0306342 0.707241 -0.706309 0.0629082 0.633452 -0.771221 0.110234 0.610934 -0.78397 
0.1641 0.566161 -0.807795 0.0858677 0.439658 -0.894051 0.123159 0.45556 -0.881644 
0.0435251 0.435077 -0.899341 0.0597806 0.518633 -0.852904 0.161155 0.666271 -0.728088 
0.376561 0.758577 -0.531754 -0.373325 0.919582 -0.122462 -0.0802417 0.843876 -0.530505 
0.00222474 0.771024 -0.636802 0.0452242 0.725673 -0.686552 0.102586 0.729617 -0.676118 
0.138181 0.73363 -0.665352 0.111074 0.73497 -0.668941 0.100214 0.791239 -0.603239 
0.15528 0.840311 -0.51939 -0.444076 -0.8653 0.232492 -0.230799 -0.943169 0.23909 
-0.0305782 -0.962114 0.270927 0.0960728 -0.936794 0.336431 0.192461 -0.916101 0.351736 
0.325864 -0.894021 0.307473 -0.530274 -0.805985 0.263054 -0.570817 -0.769741 0.285772 
-0.434614 -0.729491 0.528161 0.423139 -0.866254 0.265626 0.303596 -0.73805 0.602587 
0.425615 -0.865734 0.263357 0.560474 -0.814081 0.152122 -0.578663 -0.752712 0.313967 
-0.552759 -0.767761 0.324037 -0.552678 -0.767787 0.324115 0.619648 -0.777431 0.107872 
0.474371 -0.733793 0.486333 0.674147 -0.735875 0.0633606 -0.617151 -0.722708 0.311156 
-0.728705 -0.618279 0.294483 -0.530715 -0.701753 0.475273 0.735552 -0.674703 0.0611476 
0.789015 -0.613667 0.0294623 -0.789568 -0.539308 0.292797 -0.708373 -0.541169 0.453148 
0.847467 -0.530833 0.00392088 -0.918158 -0.296723 0.262567 0.928521 -0.371273 0.00212077 
0.947919 -0.317954 -0.0188337 -0.968753 -0.0653408 0.239264 0.979719 -0.185181 -0.0765433 
0.908376 -0.229592 0.349487 -0.966765 0.118644 0.226472 0.994027 0.0594798 -0.0914977 
-0.93254 0.290587 0.214311 0.937124 0.326437 -0.123437 0.917394 0.37359 -0.137182 
0.938681 0.305498 0.159842 -0.864147 0.475298 0.165355 -0.807517 0.568712 0.156468 
-0.762252 0.457622 0.457771 0.752588 0.599562 -0.272281 0.643353 0.708658 -0.289657 
-0.707926 0.698386 0.105343 -0.601302 0.797644 0.0469055 0.280423 0.829009 -0.483847 
0.51868 0.787673 -0.332479 0.443717 0.813062 -0.376889 -0.416981 0.908276 -0.0340857 
-0.398045 0.916402 -0.0420357 -0.433863 0.89631 0.0916084 -0.221512 0.962213 -0.158363 
-0.100731 0.955034 -0.278861 -0.00285151 0.932542 -0.36105 0.0809024 0.901075 -0.426051 
0.120467 0.85344 -0.507077 0.124281 0.802823 -0.58312 0.109187 0.827554 -0.550666 
0.164444 0.846943 -0.505614 0.15554 0.847825 -0.506952 0.353672 0.935344 -0.00683986 
-0.191344 -0.709566 0.678162 0.0162922 -0.698963 0.714972 0.106124 -0.65918 0.744459 
0.146721 -0.62972 0.762841 -0.463393 -0.570544 0.678047 -0.314961 -0.675046 0.667168 
-0.394959 -0.617686 0.680052 -0.178843 -0.639707 0.747523 0.0274546 -0.594714 0.803468 
0.10398 -0.606287 0.788418 0.163427 -0.627909 0.760935 0.146724 -0.61729 0.772933 
0.237251 -0.603951 0.760891 0.287283 -0.616186 0.733337 -0.462906 -0.570234 0.678639 
-0.415988 -0.590368 0.691679 -0.460318 -0.565516 0.684324 -0.313028 -0.356637 0.88024 
-0.117282 -0.256211 0.95948 0.0571882 -0.260224 0.963853 0.0983384 -0.282507 0.954211 
0.110321 -0.3491 0.930569 0.126426 -0.438802 0.889645 0.342262 -0.63802 0.689773 
0.238844 -0.563867 0.790574 0.385626 -0.637673 0.666832 0.526334 -0.609075 0.593296 
-0.414584 -0.598418 0.685578 -0.453842 -0.592486 0.665573 -0.380566 -0.564069 0.732799 
-0.214144 -0.34883 0.912392 -0.166228 -0.146745 0.975107 -0.0883988 -0.000712518 0.996085 
0.0230297 -0.0402013 0.998926 0.0303412 -0.114684 0.992939 0.0206075 -0.186154 0.982304 
0.0384007 -0.267092 0.962905 0.124539 -0.335048 0.933934 0.26482 -0.462599 0.846092 
0.535256 -0.6037 0.590802 0.515171 -0.596301 0.61565 0.65705 -0.538248 0.527801 
-0.564393 -0.509912 0.649192 -0.65911 -0.405317 0.633475 -0.405029 -0.475831 0.780728 
-0.160051 -0.351933 0.92224 -0.0406407 -0.247474 0.968042 0.0187454 -0.108403 0.99393 
-0.00901749 -0.0355974 0.999326 -0.0491918 -0.101035 0.993666 -0.0571557 -0.152918 0.986585 
-0.0514226 -0.165636 0.984845 -0.0426539 -0.186689 0.981493 0.10365 -0.32026 0.941642 
0.368444 -0.400637 0.838892 0.659847 -0.535255 0.527356 0.654696 -0.534133 0.53486 
-0.716217 -0.321823 0.619243 -0.636801 -0.328128 0.697722 -0.321376 -0.244982 0.914714 
-0.0927051 -0.224338 0.970092 0.0381588 -0.113123 0.992848 -0.10098 -0.118139 0.987849 
0.787537 -0.391827 0.475665 0.510701 -0.375497 0.773425 -0.802143 -0.0966091 0.589264 
-0.586106 -0.106704 0.803177 -0.0903017 -0.107185 0.99013 0.854484 -0.232993 0.464297 
0.879334 -0.16599 0.44634 -0.814287 0.110443 0.569859 -0.634942 0.0875226 0.767586 
0.916253 0.00501187 0.400568 0.901245 0.183042 0.39275 0.875549 4.59968e-05 0.48313 
-0.788189 0.239624 0.566867 -0.739575 0.395094 0.544912 -0.701234 0.22818 0.675429 
-0.394556 0.162232 0.904437 0.884616 0.267268 0.382129 -0.715515 0.439313 0.543178 
-0.513153 0.322405 0.795443 0.831098 0.483106 0.275472 0.723615 0.658933 0.205398 
0.659374 0.407975 0.631493 -0.627337 0.608973 0.485386 -0.612447 0.625109 0.483889 
-0.602383 0.597847 0.528879 -0.479841 0.78352 0.394777 -0.418932 0.476822 0.772746 
0.66172 0.7337 0.154308 0.554622 0.822753 0.124386 0.502183 0.568076 0.651998 
-0.430606 0.822619 0.371318 -0.310861 0.877602 0.364939 -0.284937 0.78401 0.551489 
-0.191901 0.93878 0.286123 -0.196158 0.673071 0.71309 -0.0936283 0.972109 0.215029 
-0.128347 0.538513 0.832785 -0.0141034 0.992356 0.122597 0.0222158 0.994152 0.10568 
0.089054 0.995587 0.0295862 0.165973 0.985325 -0.0398483 0.248266 0.96867 0.00653249 
0.25861 0.803431 0.536302 0.3669 0.929264 0.0430512 0.358031 0.932954 0.0375655 
0.362208 0.929137 0.0742344 0.00637584 -0.241584 0.970359 0.0430706 -0.17492 0.98364 
-0.0859908 -0.178606 0.980156 -0.0415031 -0.163061 0.985743 -0.035287 -0.193355 0.980494 
-0.00162161 -0.233378 0.972385 -0.0425858 -0.187693 0.981304 0.0145863 -0.248754 0.968457 
0.00492408 -0.240624 0.970606 0.0978791 -0.307197 0.946599 0.276247 -0.285546 0.917688 
-0.29486 -0.132106 0.946364 -0.0414319 -0.205012 0.977882 -0.0916578 -0.220864 0.970988 
0.0466906 -0.164503 0.985271 0.048163 -0.169982 0.984269 0.0814679 -0.109118 0.990685 
-0.10493 -0.156323 0.982117 -0.096591 -0.212743 0.972322 -0.0215828 -0.174509 0.984419 
-0.0054706 -0.240043 0.970747 -0.0389676 -0.194067 0.980214 -0.0340584 -0.223789 0.974042 
0.0863804 -0.24658 0.965265 0.278606 -0.280669 0.918479 0.265898 -0.272414 0.92471 
0.501283 -0.202117 0.841346 -0.302742 -0.12206 0.945224 -0.294356 -0.122863 0.947765 
-0.0633333 -0.136112 0.988667 0.0845265 -0.131296 0.987733 -0.00245528 -0.108091 0.994138 
0.0878434 -0.108145 0.990246 -0.0920569 -0.114147 0.98919 -0.0996535 -0.119951 0.987766 
-0.102816 -0.182076 0.977894 -0.105076 -0.174741 0.978992 -0.0741875 -0.180628 0.98075 
-0.0300483 -0.225519 0.973775 -0.0359489 -0.209039 0.977246 0.0656137 -0.200348 0.977525 
0.212241 -0.191563 0.958257 0.510875 -0.192814 0.837753 0.503365 -0.193787 0.842063 
-0.361148 0.0323174 0.931948 -0.369413 0.109675 0.922771 -0.332655 0.0259773 0.942691 
-0.0996189 -0.0336763 0.994456 0.0723144 -0.0967625 0.992677 0.06802 -0.184559 0.980465 
-0.175081 -0.211788 0.961505 -0.149536 -0.157816 0.97608 -0.0263922 -0.121255 0.99227 
-0.0649861 -0.0720977 0.995278 -0.0708504 -0.145239 0.986857 -0.0157231 -0.144056 0.989445 
0.0929664 -0.112178 0.98933 0.246513 -0.116836 0.962071 0.5068 -0.039275 0.861168 
0.463369 -0.0435308 0.885096 -0.365559 0.144368 0.919524 -0.179597 0.0415396 0.982863 
-0.0585392 -0.0404724 0.997464 -0.0298282 -0.162837 0.986202 -0.0734059 -0.140981 0.987287 
-0.0293683 0.00975816 0.999521 -0.0127863 0.00393492 0.999911 -0.100354 -0.0550226 0.993429 
-0.100862 -0.0423178 0.994 -0.00259371 -0.0289641 0.999577 0.104798 -0.00256594 0.99449 
0.262951 0.0254671 0.964473 0.628056 0.12927 0.767356 0.601968 0.203214 0.77223 
0.588958 0.120936 0.799064 -0.381845 0.244815 0.891213 -0.350193 0.322796 0.879299 
-0.289943 0.204248 0.934995 -0.133763 0.0894342 0.98697 -0.050362 0.0374925 0.998027 
0.00675156 0.0523924 0.998604 -0.0028935 0.0965255 0.995326 -0.0883696 0.0292513 0.995658 
-0.113688 0.0158087 0.993391 -0.043671 0.0460893 0.997982 0.0231611 0.0994563 0.994772 
0.148636 0.170488 0.974085 0.518787 0.350511 0.779745 0.477263 0.520359 0.708129 
0.407102 0.304159 0.861252 -0.299366 0.402327 0.865166 -0.228236 0.45857 0.858849 
-0.21675 0.355544 0.90918 -0.134791 0.471577 0.871462 -0.0684779 0.311578 0.94775 
-0.113804 0.476878 0.871571 -0.0168362 0.241824 0.970174 -0.0520335 0.190147 0.980376 
-0.0916584 0.186265 0.978215 -0.0881914 0.225225 0.970307 -0.0110026 0.231698 0.972725 
0.246065 0.733353 0.633755 0.131791 0.298924 0.945133 0.463719 0.534471 0.706616 
0.325606 0.636669 0.699023 0.253445 0.415668 0.87349 -0.0903899 0.495742 0.863753 
-0.0391982 0.50177 0.864112 -0.0439093 0.468532 0.882355 -0.00721496 0.576531 0.817043 
-0.0124359 0.557853 0.829847 -0.0571233 0.643537 0.763281 -0.0575655 0.601514 0.796785 
0.207706 0.746093 0.632617 0.0728659 0.725559 0.684291 0.0479509 0.645265 0.762452 

