# vtk DataFile Version 4.2
vtk output
ASCII
DATASET POLYDATA
POINTS 574 float
-27.2233 -41.6392 -11.0095 -19.4008 -41.6392 -12.6625 -11.5783 -41.6392 -13.0433 
-3.75577 -41.6392 -13.0192 4.06676 -41.6392 -13.1814 11.8893 -41.6392 -13.3235 
19.7118 -41.6392 -12.853 27.5343 -41.6392 -10.9024 -35.0459 -33.8167 -13.3521 
-27.2233 -33.8167 -15.0883 -19.4008 -33.8167 -16.587 -11.5783 -33.8167 -15.9662 
-3.75577 -33.8167 -15.2276 4.06676 -33.8167 -15.081 11.8893 -33.8167 -15.4315 
19.7118 -33.8167 -15.3954 27.5343 -33.8167 -14.1661 35.3569 -33.8167 -13.5769 
43.1794 -33.8167 -11.714 -42.8684 -25.9941 -13.6083 -35.0459 -25.9941 -15.4895 
-27.2233 -25.9941 -16.4266 -19.4008 -25.9941 -17.3684 -11.5783 -25.9941 -16.8526 
-3.75577 -25.9941 -15.8793 4.06676 -25.9941 -15.2928 11.8893 -25.9941 -15.9759 
19.7118 -25.9941 -15.5767 27.5343 -25.9941 -16.0447 35.3569 -25.9941 -14.5572 
43.1794 -25.9941 -14.1782 51.0019 -25.9941 -12.0392 -50.6909 -18.1716 -12.5525 
-42.8684 -18.1716 -15.5653 -35.0459 -18.1716 -16.8391 -27.2233 -18.1716 -16.6287 
-19.4008 -18.1716 -16.6862 -11.5783 -18.1716 -16.4635 -3.75577 -18.1716 -15.1888 
4.06676 -18.1716 -14.1716 11.8893 -18.1716 -14.5159 19.7118 -18.1716 -14.7397 
27.5343 -18.1716 -15.0636 35.3569 -18.1716 -15.4007 43.1794 -18.1716 -15.3023 
51.0019 -18.1716 -13.11 58.8244 -18.1716 -11.3047 -58.5135 -10.3491 -11.7674 
-50.6909 -10.3491 -15.1758 -42.8684 -10.3491 -15.9581 -35.0459 -10.3491 -16.3469 
-27.2233 -10.3491 -16.2456 -19.4008 -10.3491 -15.2673 -11.5783 -10.3491 -15.1748 
-3.75577 -10.3491 -15.1887 4.06676 -10.3491 -14.5561 11.8893 -10.3491 -13.2589 
19.7118 -10.3491 -13.2811 27.5343 -10.3491 -14.4782 35.3569 -10.3491 -15.2781 
43.1794 -10.3491 -14.9106 51.0019 -10.3491 -14.5224 58.8244 -10.3491 -13.0539 
-58.5135 -2.52654 -13.0923 -50.6909 -2.52654 -16.3337 -42.8684 -2.52654 -16.3103 
-35.0459 -2.52654 -16.2741 -27.2233 -2.52654 -15.4743 -19.4008 -2.52654 -14.003 
-11.5783 -2.52654 -13.4331 -3.75577 -2.52654 -14.6269 4.06676 -2.52654 -13.9568 
11.8893 -2.52654 -18.3528 19.7118 -2.52654 -12.4888 27.5343 -2.52654 -13.6324 
35.3569 -2.52654 -14.5513 43.1794 -2.52654 -14.7179 51.0019 -2.52654 -14.1906 
58.8244 -2.52654 -13.5974 -58.5135 5.29598 -12.5307 -50.6909 5.29598 -15.3504 
-42.8684 5.29598 -15.9708 -35.0459 5.29598 -16.0984 -27.2233 5.29598 -15.2456 
-19.4008 5.29598 -13.8723 -11.5783 5.29598 -12.646 -3.75577 5.29598 -18.2445 
4.06676 5.29598 -12.9866 11.8893 5.29598 -15.2917 19.7118 5.29598 -11.926 
27.5343 5.29598 -12.7747 35.3569 5.29598 -13.6884 43.1794 5.29598 -14.6548 
51.0019 5.29598 -13.4439 58.8244 5.29598 -13.459 -50.6909 13.1185 -13.4738 
-42.8684 13.1185 -15.0031 -35.0459 13.1185 -16.2005 -27.2233 13.1185 -15.3776 
-19.4008 13.1185 -14.275 -11.5783 13.1185 -12.9722 -3.75577 13.1185 -13.2251 
4.06676 13.1185 -14.0341 11.8893 13.1185 -15.1066 19.7118 13.1185 -12.872 
27.5343 13.1185 -13.0742 35.3569 13.1185 -12.7857 43.1794 13.1185 -13.3776 
51.0019 13.1185 -11.519 58.8244 13.1185 -11.3111 -50.6909 20.941 -11.1685 
-42.8684 20.941 -13.9299 -35.0459 20.941 -14.5644 -27.2233 20.941 -15.0479 
-19.4008 20.941 -14.641 -11.5783 20.941 -13.8406 -3.75577 20.941 -13.4963 
4.06676 20.941 -13.8012 11.8893 20.941 -14.4932 19.7118 20.941 -13.5527 
27.5343 20.941 -12.5318 35.3569 20.941 -12.7883 43.1794 20.941 -11.112 
51.0019 20.941 -11.6652 -35.0459 28.7636 -12.5979 -27.2233 28.7636 -13.382 
-19.4008 28.7636 -14.0371 -11.5783 28.7636 -13.7654 -3.75577 28.7636 -13.4385 
4.06676 28.7636 -13.4063 11.8893 28.7636 -13.5792 19.7118 28.7636 -12.7373 
27.5343 28.7636 -11.7921 -19.4008 36.5861 -11.4982 -11.5783 36.5861 -12.2441 
-3.75577 36.5861 -11.8554 4.06676 36.5861 -11.6099 11.8893 36.5861 -11.4132 
-27.2233 -41.7901 -10.856 -19.4008 -43.9657 -10.856 -11.5783 -44.5976 -10.856 
-3.75577 -44.8635 -10.856 4.06676 -45.15 -10.856 4.06676 -49.4617 -3.43756 
11.8893 -45.2525 -10.856 19.7118 -43.8842 -10.856 27.5343 -41.6929 -10.856 
-27.6368 -41.6392 -10.856 -35.0459 -37.6268 -10.856 -35.0459 -41.6392 -4.21772 
27.731 -41.6392 -10.856 35.3569 -38.4574 -10.856 35.3569 -41.6392 -6.46588 
43.1794 -34.9688 -10.856 -41.2901 -33.8167 -10.856 -42.8684 -32.3903 -10.856 
-42.8684 -33.8167 -9.55176 44.6054 -33.8167 -10.856 51.0019 -27.9399 -10.856 
-49.1263 -25.9941 -10.856 -50.6909 -23.8116 -10.856 -50.6909 -25.9941 -9.63217 
52.9207 -25.9941 -10.856 58.8244 -18.5533 -10.856 -53.7928 -18.1716 -10.856 
-58.5135 -12.7879 -10.856 -58.5135 -18.1716 -6.50562 59.0737 -18.1716 -10.856 
-59.6813 -10.3491 -10.856 62.1777 -10.3491 -10.856 66.647 -10.3491 -4.21612 
-61.5795 -2.52654 -10.856 -66.336 -2.52654 -3.91801 63.1225 -2.52654 -10.856 
66.647 -2.52654 -6.782 -60.8165 5.29598 -10.856 -66.336 5.29598 -3.3793 
-58.5135 13.0177 -10.856 63.1352 5.29598 -10.856 66.647 5.29598 -7.03901 
-58.4333 13.1185 -10.856 -58.5135 13.1185 -10.8248 59.1601 13.1185 -10.856 
58.8244 13.6388 -10.856 66.647 13.1185 -4.46803 -51.3184 20.941 -10.856 
-58.5135 20.941 -6.28351 -50.6909 21.6124 -10.856 -42.8684 27.7223 -10.856 
35.3569 26.5403 -10.856 43.1794 22.5546 -10.856 52.0427 20.941 -10.856 
51.0019 22.0527 -10.856 58.8244 20.941 -7.12065 -50.6909 28.7636 -6.73316 
-41.1937 28.7636 -10.856 -42.8684 28.7636 -10.3258 -35.0459 32.7921 -10.856 
-27.2233 34.8065 -10.856 19.7118 34.3027 -10.856 31.9987 28.7636 -10.856 
27.5343 32.3216 -10.856 35.3569 28.7636 -10.1565 43.1794 28.7636 -9.55097 
51.0019 28.7636 -6.86393 -42.8684 36.5861 -3.76194 -35.0459 36.5861 -8.6794 
-22.7496 36.5861 -10.856 -27.2233 36.5861 -9.91572 -19.4008 37.5722 -10.856 
-11.5783 39.4793 -10.856 -3.75577 39.3327 -10.856 4.06676 38.6742 -10.856 
15.1959 36.5861 -10.856 11.8893 37.8017 -10.856 19.7118 36.5861 -10.0052 
27.5343 36.5861 -9.15195 35.3569 36.5861 -6.76577 43.1794 36.5861 -3.9716 
-19.4008 44.4086 -4.81706 -11.5783 44.4086 -7.15628 -3.75577 44.4086 -7.95498 
4.06676 44.4086 -7.65902 11.8893 44.4086 -6.60828 19.7118 44.4086 -3.9738 
4.06676 -49.6133 -3.03348 -35.0459 -42.0412 -3.03348 -27.2233 -45.8084 -3.03348 
-19.4008 -48.0916 -3.03348 -11.5783 -48.907 -3.03348 0.913572 -49.4617 -3.03348 
-3.75577 -49.2262 -3.03348 6.65923 -49.4617 -3.03348 4.06676 -49.4617 -1.7896 
11.8893 -49.1525 -3.03348 19.7118 -48.2215 -3.03348 27.5343 -46.202 -3.03348 
35.3569 -42.8409 -3.03348 -35.7011 -41.6392 -3.03348 -42.8684 -36.7949 -3.03348 
-35.0459 -41.6392 -1.56727 37.4395 -41.6392 -3.03348 35.3569 -41.6392 -0.00373749 
43.1794 -38.0783 -3.03348 -46.5731 -33.8167 -3.03348 -50.6909 -30.0707 -3.03348 
48.8013 -33.8167 -3.03348 51.0019 -32.024 -3.03348 -54.7513 -25.9941 -3.03348 
-58.5135 -21.19 -3.03348 57.1621 -25.9941 -3.03348 58.8244 -24.0878 -3.03348 
-60.518 -18.1716 -3.03348 -58.5135 -18.1716 3.97121 63.5702 -18.1716 -3.03348 
58.8244 -18.1716 4.20836 66.647 -11.9672 -3.03348 -64.4653 -10.3491 -3.03348 
-66.336 -4.2283 -3.03348 67.3994 -10.3491 -3.03348 66.647 -10.3491 -1.3369 
-66.8561 -2.52654 -3.03348 -66.336 -2.52654 -0.16246 69.7104 -2.52654 -3.03348 
-66.5393 5.29598 -3.03348 -66.336 7.03481 -3.03348 -66.336 5.29598 0.67049 
70.1224 5.29598 -3.03348 -65.5035 13.1185 -3.03348 68.1288 13.1185 -3.03348 
66.647 17.5831 -3.03348 -61.1552 20.941 -3.03348 -58.5135 24.4648 -3.03348 
65.1058 20.941 -3.03348 58.8244 27.0834 -3.03348 -54.525 28.7636 -3.03348 
-50.6909 32.6057 -3.03348 56.854 28.7636 -3.03348 51.0019 32.7095 -3.03348 
58.8244 28.7636 2.27765 -44.0182 36.5861 -3.03348 -42.8684 37.1577 -3.03348 
-35.0459 40.717 -3.03348 -27.2233 43.4031 -3.03348 27.5343 42.0382 -3.03348 
35.3569 39.995 -3.03348 44.7207 36.5861 -3.03348 43.1794 37.37 -3.03348 
-23.9904 44.4086 -3.03348 -27.2233 44.4086 2.0625 -19.4008 45.6098 -3.03348 
-11.5783 47.2737 -3.03348 -3.75577 47.8657 -3.03348 4.06676 47.7622 -3.03348 
11.8893 47.0783 -3.03348 21.7719 44.4086 -3.03348 19.7118 45.0809 -3.03348 
-27.2233 -42.789 4.78905 -19.4008 -45.6827 4.78905 -11.5783 -47.269 4.78905 
-3.75577 -48.2031 4.78905 4.06676 -48.491 4.78905 11.8893 -47.876 4.78905 
19.7118 -46.0724 4.78905 27.5343 -42.8874 4.78905 -42.8684 -34.1357 4.78905 
-30.1124 -41.6392 4.78905 -35.0459 -38.961 4.78905 -27.2233 -41.6392 6.22113 
-19.4008 -41.6392 8.72351 -11.5783 -41.6392 10.5258 -3.75577 -41.6392 11.7335 
4.06676 -41.6392 12.0858 11.8893 -41.6392 11.2728 19.7118 -41.6392 9.37992 
30.3362 -41.6392 4.78905 27.5343 -41.6392 6.26588 35.3569 -38.371 4.78905 
43.1794 -33.963 4.78905 -43.2728 -33.8167 4.78905 -50.6909 -26.984 4.78905 
-42.8684 -33.8167 5.10736 -35.0459 -33.8167 8.38698 -27.2233 -33.8167 11.6345 
27.5343 -33.8167 10.9389 35.3569 -33.8167 8.43246 43.3516 -33.8167 4.78905 
43.1794 -33.8167 4.90507 51.0019 -27.1691 4.78905 -51.745 -25.9941 4.78905 
-50.6909 -25.9941 5.61272 -42.8684 -25.9941 9.12849 -35.0459 -25.9941 12.5031 
35.3569 -25.9941 10.4237 43.1794 -25.9941 8.25765 52.1709 -25.9941 4.78905 
51.0019 -25.9941 5.60008 -58.116 -18.1716 4.78905 -58.5135 -17.5041 4.78905 
-50.6909 -18.1716 10.6003 35.3569 -18.1716 12.075 43.1794 -18.1716 10.0884 
57.7965 -18.1716 4.78905 51.0019 -18.1716 7.45803 58.8244 -17.5547 4.78905 
-61.7822 -10.3491 4.78905 -58.5135 -10.3491 8.15244 -50.6909 -10.3491 12.1549 
35.3569 -10.3491 12.2673 43.1794 -10.3491 11.5233 51.0019 -10.3491 11.6126 
63.5602 -10.3491 4.78905 58.8244 -10.3491 8.09281 66.647 -4.03518 4.78905 
-64.9717 -2.52654 4.78905 -58.5135 -2.52654 11.2558 51.0019 -2.52654 11.5702 
58.8244 -2.52654 10.0653 67.2522 -2.52654 4.78905 66.647 -2.52654 5.34335 
-66.0063 5.29598 4.78905 58.8244 5.29598 11.5786 68.231 5.29598 4.78905 
66.647 5.29598 6.18655 -65.1551 13.1185 4.78905 67.7693 13.1185 4.78905 
66.647 16.2718 4.78905 66.647 13.1185 5.90903 -61.801 20.941 4.78905 
-58.5135 25.7999 4.78905 -58.5135 20.941 9.27365 51.0019 20.941 12.1679 
64.8473 20.941 4.78905 58.8244 20.941 10.7904 -55.9974 28.7636 4.78905 
-50.6909 33.8484 4.78905 -50.6909 28.7636 12.2248 43.1794 28.7636 12.0748 
51.0019 34.6255 4.78905 51.0019 28.7636 11.4997 59.454 28.7636 4.78905 
58.8244 29.4122 4.78905 58.8244 28.7636 5.48174 -46.6841 36.5861 4.78905 
[...]
POINT_DATA 574
SCALARS ImageScalars float
LOOKUP_TABLE default
0 0 0 0 0 0 0 0 0 
0 0 0 0 0 0 0 0 0 
0 0 0 0 0 0 0 0 0 
0 0 0 0 0 0 0 0 0 
0 0 0 0 0 0 0 0 0 
0 0 0 0 0 0 0 0 0 
0 0 0 0 0 0 0 0 0 
0 0 0 0 0 0 0 0 0 
0 0 0 0 0 0 0 0 0 
0 0 0 0 0 0 0 0 0 
0 0 0 0 0 0 0 0 0 
0 0 0 0 0 0 0 0 0 
0 0 0 0 0 0 0 0 0 
0 0 0 0 0 0 0 0 0 
0 0 0 0 0 0 0 0 0 
0 0 0 0 0 0 0 0 0 
0 0 0 0 0 0 0 0 0 
0 0 0 0 0 0 0 0 0 
0 0 0 0 0 0 0 0 0 
0 0 0 0 0 0 0 0 0 
0 0 0 0 0 0 0 0 0 
0 0 0 0 0 0 0 0 0 
0 0 0 0 0 0 0 0 0 
0 0 0 0 0 0 0 0 0 
0 0 0 0 0 0 0 0 0 
0 0 0 0 0 0 0 0 0 
0 0 0 0 0 0 0 0 0 
0 0 0 0 0 0 0 0 0 
0 0 0 0 0 0 0 0 0 
0 0 0 0 0 0 0 0 0 
0 0 0 0 0 0 0 0 0 
0 0 0 0 0 0 0 0 0 
0 0 0 0 0 0 0 0 0 
0 0 0 0 0 0 0 0 0 
0 0 0 0 0 0 0 0 0 
0 0 0 0 0 0 0 0 0 
0 0 0 0 0 0 0 0 0 
0 0 0 0 0 0 0 0 0 
0 0 0 0 0 0 0 0 0 
0 0 0 0 0 0 0 0 0 
0 0 0 0 0 0 0 0 0 
0 0 0 0 0 0 0 0 0 
0 0 0 0 0 0 0 0 0 
0 0 0 0 0 0 0 0 0 
0 0 0 0 0 0 0 0 0 
0 0 0 0 0 0 0 0 0 
0 0 0 0 0 0 0 0 0 
0 0 0 0 0 0 0 0 0 
0 0 0 0 0 0 0 0 0 
0 0 0 0 0 0 0 0 0 
0 0 0 0 0 0 0 0 0 
0 0 0 0 0 0 0 0 0 
0 0 0 0 0 0 0 0 0 
0 0 0 0 0 0 0 0 0 
0 0 0 0 0 0 0 0 0 
0 0 0 0 0 0 0 0 0 
0 0 0 0 0 0 0 0 0 
0 0 0 0 0 0 0 0 0 
0 0 0 0 0 0 0 0 0 
0 0 0 0 0 0 0 0 0 
0 0 0 0 0 0 0 0 0 
0 0 0 0 0 0 0 0 0 
0 0 0 0 0 0 0 0 0 
0 0 0 0 0 0 0 
NORMALS Normals float
0.254143 0.674328 0.69332 0.104233 0.576327 0.810544 0.0205407 0.529409 0.848118 
0.00912776 0.459419 0.888173 0.019791 0.434826 0.900297 -0.0140364 0.458871 0.888392 
-0.138051 0.536517 0.832521 -0.212516 0.61697 0.75775 0.297975 0.420546 0.856944 
0.178194 0.286353 0.941408 0.0446356 0.267131 0.962626 -0.0807663 0.22484 0.971043 
-0.0586846 0.174479 0.982911 0.0147328 0.130362 0.991357 0.0193714 0.160468 0.986851 
-0.0823029 0.13872 0.986906 -0.100679 0.27254 0.956863 -0.195211 0.371568 0.907651 
-0.394781 0.510812 0.763688 0.324887 0.345071 0.880554 0.157355 0.191246 0.968847 
0.114796 0.0896005 0.98934 0.0271617 0.00136665 0.99963 -0.0924042 0.0346271 0.995119 
-0.100775 -0.000964324 0.994909 0.00715717 -0.0578122 0.998302 0.0183486 -0.0566099 0.998228 
0.00344426 -0.0377219 0.999282 -0.0656013 0.0549646 0.996331 -0.10895 0.0978271 0.989222 
-0.208351 0.298707 0.931324 -0.425041 0.358673 0.83108 0.429624 0.282977 0.857524 
0.222866 0.115376 0.967998 0.0829678 0.0514187 0.995225 -0.00919901 -0.0101651 0.999906 
-0.0104308 -0.13154 0.991256 -0.0911119 -0.105729 0.990212 -0.149685 -0.0439114 0.987758 
-0.0401393 -0.0531098 0.997782 0.0353989 -0.15108 0.987888 0.0362626 -0.150511 0.987943 
0.039978 -0.0973331 0.994449 0.0138006 0.0454397 0.998872 -0.109898 0.0292815 0.993511 
-0.260885 0.17821 0.948778 -0.616907 0.503893 0.60458 0.538678 0.250675 0.804356 
0.2994 0.214429 0.92972 0.0682878 0.0522087 0.996299 0.0179924 -0.0347063 0.999236 
-0.0700273 -0.0753926 0.994692 -0.0649899 -0.171562 0.983027 -0.00503645 -0.179326 0.983777 
-0.0308788 -0.0301018 0.99907 -0.116189 0.00303081 0.993223 -0.0764492 0.0906182 0.992947 
0.0770321 -0.134872 0.987864 0.125327 -0.0890102 0.988115 0.0273006 -0.0540277 0.998166 
-0.0451884 -0.0432198 0.998043 -0.160703 0.0590853 0.985233 -0.365283 0.0939468 0.926144 
0.49474 0.0492567 0.867644 0.231225 0.00675017 0.972877 -0.00362154 0.000406748 0.999993 
-0.0529184 -0.0158433 0.998473 -0.146853 -0.0619822 0.987214 -0.126102 -0.0886468 0.988049 
0.0288101 -0.161615 0.986433 0.0538813 0.162349 0.985261 0.164017 -0.137328 0.976852 
-0.32643 0.129942 0.936247 -0.11085 -0.0834835 0.990325 0.132239 -0.109058 0.9852 
0.0670342 -0.100945 0.992631 -0.0210691 -0.0169284 0.999635 -0.0900904 -0.0633844 0.993915 
-0.301672 0.0294952 0.952956 0.492078 -0.140502 0.859138 0.255595 -0.171057 0.951531 
0.0431126 -0.0825701 0.995652 -0.0460073 -0.0048386 0.998929 -0.136804 -0.00618058 0.990579 
-0.14942 0.0179624 0.988611 0.202245 -0.02598 0.97899 -0.0323985 -0.0865526 0.99572 
-0.15973 0.035273 0.98653 -0.0711249 -0.131467 0.988766 -0.1101 0.0259751 0.993581 
0.103337 -0.0337652 0.994073 0.126947 -0.111143 0.985663 -0.00504474 -0.0766038 0.997049 
-0.0940961 -0.174967 0.980068 -0.262952 -0.0850713 0.961051 0.260767 -0.238424 0.935497 
0.157547 -0.117754 0.980466 0.0229333 -0.0970599 0.995014 -0.120874 -0.0139948 0.992569 
-0.152369 0.0465736 0.987226 -0.0715272 0.0721761 0.994824 0.0744758 -0.231843 0.969898 
0.112237 0.0437603 0.992717 -0.0799812 -0.0493963 0.995572 -0.125149 0.0936499 0.987708 
-0.00564948 -0.0153257 0.999867 0.0173012 -0.057552 0.998193 -0.0770167 -0.237171 0.96841 
-0.124856 -0.104626 0.986643 -0.481296 -0.543854 0.687443 0.378919 -0.34053 0.8605 
0.201832 -0.272506 0.940747 0.0678401 -0.210158 0.975311 0.0040318 -0.119666 0.992806 
-0.0787273 -0.0135536 0.996804 -0.0727948 0.0504403 0.996071 -0.0025481 0.00993839 0.999947 
0.0634262 -0.0388974 0.997228 -0.0155331 -0.0975524 0.995109 -0.124437 -0.00686095 0.992204 
-0.0497312 -0.0826306 0.995339 -0.0894919 -0.169183 0.981513 -0.077772 -0.214322 0.973662 
-0.292084 -0.301454 0.907641 0.174363 -0.326519 0.928969 0.0824135 -0.294353 0.952137 
0.0236261 -0.17904 0.983558 -0.0369597 -0.101567 0.994142 -0.0228246 -0.0995417 0.994772 
0.0091736 -0.133559 0.990998 -0.0400126 -0.190962 0.980781 -0.115712 -0.203133 0.97229 
-0.161018 -0.183974 0.969653 0.134575 -0.446587 0.884562 0.0163638 -0.333786 0.942507 
-0.0406897 -0.278865 0.959468 -0.0276952 -0.291286 0.956235 -0.0913709 -0.36678 0.92581 
0.25687 0.681707 0.68505 0.139619 0.683408 0.716561 0.0404402 0.680195 0.731915 
0.0252529 0.646187 0.762761 0.0173958 0.645724 0.763373 -0.00458802 0.987979 0.154521 
-0.0574214 0.681738 0.729339 -0.170436 0.663503 0.728502 -0.212589 0.619695 0.755502 
0.265273 0.680107 0.683436 0.37862 0.597635 0.706738 0.502828 0.857533 0.108634 
-0.216066 0.619725 0.75449 -0.296424 0.578768 0.759711 -0.448244 0.849758 0.27747 
-0.430544 0.582139 0.689743 0.456596 0.55337 0.696636 0.462476 0.543867 0.700232 
0.52788 0.626918 0.572989 -0.449922 0.569697 0.687761 -0.494575 0.474003 0.728504 
0.473994 0.448349 0.757834 0.50107 0.402147 0.766294 0.560406 0.514857 0.648743 
-0.521146 0.432201 0.735941 -0.634509 0.530193 0.5624 0.563442 0.336332 0.754595 
0.591041 0.328415 0.736759 0.793117 0.515288 0.32472 -0.636186 0.524654 0.56569 
0.584769 0.283174 0.760169 -0.579308 0.225723 0.783231 -0.9234 0.34831 0.161284 
0.629465 0.0647555 0.774326 0.955623 0.134387 0.262153 -0.598944 0.0530475 0.799032 
-0.863986 0.121327 0.488679 0.5838 -0.145478 0.798758 0.951123 -0.0825343 0.29758 
0.471238 -0.305381 0.827452 -0.554525 -0.202057 0.807264 -0.818962 -0.158509 0.551522 
0.468548 -0.306553 0.828546 0.471963 -0.307479 0.826261 -0.493467 -0.538823 0.682759 
-0.47518 -0.542232 0.692956 -0.764116 -0.275408 0.583333 0.392822 -0.347469 0.851444 
0.653529 -0.50997 0.559313 0.379916 -0.363553 0.850584 0.281829 -0.451424 0.846634 
-0.110817 -0.278972 0.953884 -0.104706 -0.263489 0.958963 -0.320214 -0.32426 0.890123 
-0.304954 -0.347185 0.886829 -0.432452 -0.37643 0.81932 0.479317 -0.62211 0.619059 
0.268282 -0.443465 0.855198 0.299207 -0.483597 0.822562 0.218501 -0.461431 0.859848 
0.122874 -0.475833 0.870911 -0.112775 -0.363963 0.924561 -0.136105 -0.260458 0.955844 
-0.166314 -0.326799 0.930345 -0.127856 -0.331096 0.934895 -0.22839 -0.48349 0.84503 
-0.330331 -0.565497 0.755708 0.435324 -0.769707 0.466952 0.268509 -0.644992 0.715463 
0.137157 -0.482648 0.865008 0.144083 -0.549763 0.822801 0.148828 -0.482938 0.862914 
0.0643337 -0.459826 0.885675 -0.0196946 -0.396066 0.918011 -0.0407938 -0.373488 0.926738 
-0.101287 -0.393848 0.913578 -0.106593 -0.409058 0.906261 -0.124113 -0.455201 0.881696 
-0.182402 -0.549779 0.815152 -0.283033 -0.707255 0.64783 -0.387893 -0.761641 0.519078 
0.22187 -0.835537 0.502644 0.12977 -0.757054 0.640335 0.0232319 -0.702756 0.711051 
-0.0636941 -0.701731 0.709589 -0.167419 -0.750156 0.639716 -0.285054 -0.832227 0.475545 
-0.0053231 0.991595 0.129274 0.500764 0.865132 0.0279609 0.349914 0.936036 0.0373648 
0.194833 0.978712 0.0645157 0.0707907 0.991878 0.105677 0.0151266 0.991694 0.127729 
0.0446527 0.990754 0.128112 -0.0330895 0.992358 0.118869 -0.00722682 0.998414 0.0558348 
-0.0871419 0.991086 0.100772 -0.18377 0.980097 0.0750909 -0.32959 0.943646 0.0300341 
-0.458786 0.888371 -0.0176802 0.510174 0.859605 0.0283309 0.607291 0.793537 0.0386893 
0.504322 0.860987 -0.0660326 -0.484256 0.874616 -0.0233064 -0.476899 0.844607 -0.243323 
-0.57395 0.817924 -0.0397714 0.650868 0.757806 0.045836 0.695135 0.716328 0.06051 
-0.634621 0.771211 -0.0499008 -0.652982 0.755987 -0.0458119 0.744914 0.663537 0.0694365 
0.810771 0.576797 0.0997772 -0.74351 0.667315 -0.0433913 -0.759994 0.648464 -0.0436366 
0.841874 0.527132 0.115672 0.739725 0.457473 -0.493483 -0.83452 0.550966 0.00365423 
-0.509828 0.526853 -0.680075 -0.915992 0.393856 0.0763931 0.928923 0.342513 0.140666 
0.961722 0.18692 0.200377 -0.929482 0.360051 0.0801621 -0.922424 0.385135 -0.0283716 
0.970662 0.137796 0.197045 0.98446 0.167408 -0.0530361 -0.966146 0.179335 0.185474 
0.958473 -0.0818178 0.273195 0.950499 -0.130833 0.281842 0.997566 -0.0461628 -0.0522596 
-0.964068 -0.104481 0.244246 0.909698 -0.29575 0.291516 -0.831785 -0.313453 0.458128 
-0.82666 -0.45714 0.328109 0.771868 -0.548029 0.32231 0.713696 -0.625666 0.314928 
-0.796604 -0.53526 0.280925 -0.621949 -0.687711 0.374477 0.658055 -0.670972 0.341702 
0.564868 -0.717856 0.406948 -0.584427 -0.719381 0.375415 -0.477837 -0.767808 0.426781 
-0.694317 -0.713756 -0.0920671 0.449768 -0.784771 0.426431 0.434909 -0.79211 0.428271 
0.32743 -0.851565 0.409422 0.285568 -0.865048 0.412484 -0.289164 -0.84759 0.444944 
-0.281337 -0.852639 0.440291 -0.435899 -0.79207 0.427337 -0.41347 -0.792601 0.448137 
0.264874 -0.87722 0.400408 0.295203 -0.953826 0.055422 0.226611 -0.884166 0.408531 
0.137932 -0.900895 0.411538 0.0326532 -0.894304 0.446267 -0.0519197 -0.886501 0.459805 
-0.170505 -0.889361 0.424222 -0.289954 -0.861252 0.417338 -0.284249 -0.869687 0.403544 
0.31583 0.790035 -0.525448 0.24166 0.816279 -0.52468 0.134424 0.882628 -0.450441 
0.0676129 0.924849 -0.374275 -0.0178775 0.926441 -0.376014 -0.133473 0.908589 -0.395791 
-0.263167 0.829802 -0.492109 -0.360425 0.747542 -0.55792 0.511705 0.657939 -0.552516 
0.360738 0.768248 -0.528832 0.439301 0.688702 -0.576805 0.301964 0.742325 -0.59814 
0.20677 0.638011 -0.741747 0.155863 0.567028 -0.808818 0.0810766 0.516663 -0.852342 
-0.0236034 0.504644 -0.863005 -0.139963 0.523023 -0.840748 -0.241191 0.614168 -0.751415 
-0.393944 0.709828 -0.583912 -0.361014 0.689859 -0.627506 -0.423556 0.614649 -0.665438 
-0.471525 0.541047 -0.696371 0.516458 0.654658 -0.551992 0.570501 0.589426 -0.571931 
0.50734 0.648433 -0.567574 0.368236 0.501994 -0.782563 0.25149 0.351125 -0.901923 
-0.249583 0.345089 -0.904777 -0.37629 0.433106 -0.819039 -0.472833 0.540101 -0.696218 
-0.467857 0.533416 -0.704682 -0.494246 0.483691 -0.722332 0.58203 0.579406 -0.570553 
0.547827 0.573509 -0.609076 0.373554 0.403036 -0.835475 0.272825 0.305097 -0.912405 
-0.278303 0.188142 -0.941886 -0.322466 0.349783 -0.879584 -0.488313 0.469771 -0.735436 
-0.455072 0.420443 -0.784944 0.699583 0.437692 -0.564809 0.709633 0.424703 -0.562182 
0.4318 0.358946 -0.82747 -0.231588 0.107093 -0.966901 -0.239352 0.167546 -0.956367 
-0.476305 0.487384 -0.73184 -0.396378 0.348269 -0.849466 -0.484432 0.493385 -0.722425 
0.768057 0.339049 -0.543262 0.626798 0.326824 -0.707327 0.343544 0.153234 -0.926551 
-0.0997568 0.0750107 -0.99218 -0.044001 0.212153 -0.976245 -0.244361 0.203997 -0.947984 
-0.701369 0.367637 -0.610675 -0.42071 0.305555 -0.854189 -0.712349 0.286937 -0.640489 
0.833246 0.196458 -0.516822 0.521026 0.205662 -0.828393 -0.173528 0.110542 -0.978605 
-0.511321 0.258858 -0.819477 -0.711224 0.247941 -0.657789 -0.675257 0.232549 -0.699964 
0.903907 0.00239497 -0.427721 -0.477344 0.118186 -0.870732 -0.778629 0.0364818 -0.626423 
-0.688877 0.0435313 -0.72357 0.892874 -0.24805 -0.375828 -0.83895 -0.21651 -0.499286 
-0.81825 -0.310063 -0.484075 -0.78188 -0.196692 -0.591588 0.852421 -0.443007 -0.27771 
0.775386 -0.588599 -0.228754 0.678106 -0.416422 -0.605611 -0.252437 -0.0755531 -0.964659 
-0.816457 -0.406177 -0.410389 -0.567993 -0.380349 -0.729876 0.721322 -0.667134 -0.186081 
0.623103 -0.768853 -0.143552 0.522252 -0.383538 -0.761677 -0.194661 -0.350817 -0.915988 
-0.46879 -0.854537 -0.223613 -0.324902 -0.408564 -0.852944 -0.703089 -0.666477 -0.247939 
-0.680045 -0.686229 -0.258126 -0.675187 -0.671372 -0.305583 0.541696 -0.833559 -0.108376 
0.481065 -0.871856 -0.091894 0.440856 -0.749189 -0.49433 0.357634 -0.929309 -0.0920997 
-0.309238 -0.93224 -0.187882 -0.240816 -0.458237 -0.855586 -0.351062 -0.891013 -0.287839 
-0.226257 -0.695034 -0.682448 -0.400902 -0.890532 -0.215011 -0.357979 -0.90838 -0.216093 
-0.327461 -0.831484 -0.448779 0.294514 -0.950105 -0.102767 0.284553 -0.952407 -0.10932 
0.277487 -0.945309 -0.171441 0.243917 -0.961634 -0.125555 0.204815 -0.809397 -0.550389 
0.162267 -0.979445 -0.119821 0.139467 -0.649271 -0.747661 0.0638775 -0.993653 -0.0925938 
-0.0833426 -0.991037 -0.1044 -0.235491 -0.957537 -0.166335 -0.255676 -0.691621 -0.675492 
-0.301599 -0.93365 -0.193223 -0.293342 -0.92992 -0.221808 -0.278218 -0.854945 -0.437795 
0.154169 0.357955 -0.920923 0.135635 0.396956 -0.90776 0.0766089 0.421639 -0.903522 
-0.0234281 0.445373 -0.895039 -0.13525 0.402119 -0.905543 -0.213532 0.328469 -0.920061 
0.180434 0.332544 -0.925666 0.204145 0.280577 -0.937871 0.154286 0.330402 -0.931145 
0.109799 0.291032 -0.950392 0.0426753 0.201299 -0.9786 -0.00397678 0.179672 -0.983719 
-0.115048 0.257531 -0.959397 -0.214827 0.293677 -0.931452 -0.21304 0.283514 -0.935005 
-0.245717 0.184814 -0.95156 0.182109 0.375131 -0.908907 0.26369 0.297741 -0.917506 
0.264072 0.296113 -0.917923 0.151035 0.210748 -0.965802 0.100797 0.154506 -0.982837 
0.0228283 0.0721397 -0.997133 -0.0229279 0.0148996 -0.999626 0.0201309 -0.0416842 -0.998928 
-0.0306299 0.00871038 -0.999493 -0.152985 0.10912 -0.982186 -0.251166 0.150102 -0.956235 
-0.251205 0.147397 -0.956645 0.195544 0.371195 -0.907732 0.177161 0.372707 -0.910881 
0.138479 0.185953 -0.972751 0.104406 0.101398 -0.989352 0.027175 0.0395854 -0.998847 
-0.041495 -0.0319356 -0.998628 -0.0748656 0.0371108 -0.996503 -0.0105761 -0.121453 -0.992541 
0.0453334 -0.0540733 -0.997507 -0.0815378 -0.00574704 -0.996654 -0.21643 0.0685819 -0.973886 
-0.185775 0.000324579 -0.982592 0.312722 0.14581 -0.938586 0.304468 0.155213 -0.939792 
0.181598 0.131002 -0.974608 0.059641 0.118902 -0.991113 0.0041948 0.0401722 -0.999184 
-0.0316675 -0.0407921 -0.998666 0.0205997 -0.0882085 -0.995889 -0.0990005 0.0137222 -0.994993 
-0.0737182 -0.0840072 -0.993735 0.0817846 0.093556 -0.992249 -0.106826 -0.0681868 -0.991937 
-0.115291 0.0305616 -0.992862 -0.140453 -0.0301544 -0.989628 -0.0603801 0.0962626 -0.993523 
-0.0778671 0.187743 -0.979127 0.37546 0.190882 -0.90697 0.500868 0.119496 -0.857235 
0.240939 0.179795 -0.953741 0.124869 0.093022 -0.987803 0.0299817 0.0685487 -0.997197 
-0.0528878 0.0415421 -0.997736 -0.0999892 -0.0224245 -0.994736 -0.00590974 -0.0638676 -0.997941 
-0.039051 0.0529002 -0.997836 0.113576 0.126154 -0.985488 0.0281176 0.0508229 -0.998312 
-0.22122 -0.0535852 -0.973751 -0.0272169 0.0632057 -0.997629 0.0126164 0.139148 -0.990191 
-0.126549 0.1409 -0.981903 -0.108536 0.164928 -0.980316 -0.151069 0.0949864 -0.983949 
0.513935 0.088034 -0.8533 0.498903 0.0893319 -0.862041 0.246733 0.119783 -0.961652 
0.0850654 0.0852036 -0.992726 0.00483792 0.084764 -0.996389 -0.0873545 0.0865218 -0.992413 
-0.135234 0.0765255 -0.987854 0.0863804 0.0589542 -0.994516 0.0719282 0.00853633 -0.997373 
-0.0694178 0.220457 -0.972923 -0.0781665 -0.0565989 -0.995332 -0.0967371 0.0542475 -0.993831 
0.0445998 0.117018 -0.992128 -0.00102899 0.130789 -0.99141 -0.061132 0.078617 -0.995029 
-0.3307 0.106519 -0.937705 -0.154522 0.0904764 -0.983838 -0.540145 -0.0330625 -0.840922 
0.560325 -0.158979 -0.812872 0.547206 -0.205711 -0.811325 0.533742 -0.151656 -0.831937 
0.27582 -0.0858723 -0.957366 0.0865124 0.00311539 -0.996246 0.0292554 0.0964043 -0.994912 
-0.0530727 0.105747 -0.992976 -0.121558 0.131131 -0.983884 -0.0523245 0.161805 -0.985435 
0.091624 -0.00800862 -0.995761 -0.00111441 0.120651 -0.992694 -0.120939 0.0342313 -0.99207 
-0.0283112 0.107397 -0.993813 0.0405648 0.0618481 -0.997261 -0.0245294 0.0294348 -0.999266 
-0.142187 0.0732733 -0.987124 -0.165248 -0.080339 -0.982974 -0.112424 -0.0862213 -0.989912 
-0.558709 -0.0727772 -0.826165 -0.553738 -0.103633 -0.826217 -0.553234 -0.0634566 -0.830606 
0.42951 -0.239365 -0.870762 0.485183 -0.330681 -0.809473 0.378783 -0.193099 -0.905117 
0.247533 -0.0699691 -0.96635 0.108468 -0.0417848 -0.993221 -0.0597738 0.0240879 -0.997921 
-0.0783205 0.0656185 -0.994766 -0.0462881 0.131421 -0.990245 0.024746 0.119341 -0.992545 
-0.019871 0.0440484 -0.998832 -0.0967726 0.0834603 -0.991801 -0.069748 0.0261393 -0.997222 
-0.0340018 -0.0404306 -0.998604 0.0159431 -0.0614133 -0.997985 -0.235237 -0.0838596 -0.968314 
-0.189708 -0.299679 -0.934988 -0.175404 -0.137992 -0.974778 0.489536 -0.361507 -0.793515 
0.34899 -0.540189 -0.765769 0.285084 -0.313245 -0.905872 0.134801 -0.270701 -0.953179 
0.0532211 -0.143906 -0.988159 -0.0176176 -0.0669655 -0.9976 -0.00511928 -0.0248638 -0.999678 
0.00385395 -0.00378504 -0.999985 -0.0353588 -0.0311853 -0.998888 -0.139526 -0.0373554 -0.989514 
-0.148786 -0.137227 -0.979302 -0.170735 -0.358805 -0.917665 -0.0399827 -0.172805 -0.984144 
-0.17772 -0.32465 -0.928988 -0.134554 -0.429368 -0.89305 -0.114936 -0.284361 -0.951803 
0.322186 -0.578981 -0.748984 0.281197 -0.583318 -0.762016 0.261734 -0.51504 -0.816229 
0.170181 -0.682098 -0.711182 0.133221 -0.418855 -0.898227 0.137185 -0.60585 -0.783662 
0.0553016 -0.371078 -0.926953 0.136956 -0.635908 -0.759516 0.0244035 -0.258133 -0.965801 
0.0167664 -0.230642 -0.972894 -0.0514962 -0.23495 -0.970642 -0.247212 -0.498598 -0.830835 
-0.220344 -0.317127 -0.922431 -0.207872 -0.380818 -0.900981 -0.198648 -0.389087 -0.899528 
-0.190751 -0.346063 -0.918616 0.130346 -0.637521 -0.759327 0.0407165 -0.619966 -0.783571 
0.0359326 -0.567043 -0.822904 -0.162821 -0.598521 -0.784387 -0.12631 -0.622744 -0.772163 
-0.126503 -0.592854 -0.795312 
