# vtk DataFile Version 4.2
vtk output
ASCII
DATASET POLYDATA
POINTS 562 float
-32.4781 -35.082 -11.8701 -25.0127 -35.082 -14.5458 -17.5474 -35.082 -15.6196 
-10.082 -35.082 -15.4896 -2.61667 -35.082 -14.9812 4.84869 -35.082 -13.6995 
12.3141 -35.082 -11.649 19.7794 -35.082 -12.1416 27.2448 -35.082 -11.5133 
-39.9435 -27.6167 -13.9372 -32.4781 -27.6167 -16.4166 -25.0127 -27.6167 -17.181 
-17.5474 -27.6167 -17.7648 -10.082 -27.6167 -17.1896 -2.61667 -27.6167 -16.7592 
4.84869 -27.6167 -15.3613 12.3141 -27.6167 -13.7861 19.7794 -27.6167 -14.459 
27.2448 -27.6167 -14.0186 34.7101 -27.6167 -14.3177 42.1755 -27.6167 -12.2686 
-47.4088 -20.1513 -12.6594 -39.9435 -20.1513 -15.5125 -32.4781 -20.1513 -16.8682 
-25.0127 -20.1513 -18.1553 -17.5474 -20.1513 -17.467 -10.082 -20.1513 -16.747 
-2.61667 -20.1513 -16.9586 4.84869 -20.1513 -15.1119 12.3141 -20.1513 -13.5783 
19.7794 -20.1513 -14.6073 27.2448 -20.1513 -15.3561 34.7101 -20.1513 -16.1183 
42.1755 -20.1513 -14.9822 49.6409 -20.1513 -12.307 -54.8742 -12.6859 -11.835 
-47.4088 -12.6859 -14.6488 -39.9435 -12.6859 -15.3748 -32.4781 -12.6859 -15.9943 
-25.0127 -12.6859 -16.4455 -17.5474 -12.6859 -16.1428 -10.082 -12.6859 -15.5429 
-2.61667 -12.6859 -16.1516 4.84869 -12.6859 -15.4447 12.3141 -12.6859 -13.3192 
19.7794 -12.6859 -14.9543 27.2448 -12.6859 -16.2036 34.7101 -12.6859 -16.3031 
42.1755 -12.6859 -15.4388 49.6409 -12.6859 -14.2367 -54.8742 -5.22057 -11.9869 
-47.4088 -5.22057 -14.3722 -39.9435 -5.22057 -14.7678 -32.4781 -5.22057 -14.921 
-25.0127 -5.22057 -14.8295 -17.5474 -5.22057 -14.4241 -10.082 -5.22057 -17.0152 
-2.61667 -5.22057 -16.109 4.84869 -5.22057 -16.9081 12.3141 -5.22057 -17.1165 
19.7794 -5.22057 -15.5206 27.2448 -5.22057 -15.9609 34.7101 -5.22057 -16.3982 
42.1755 -5.22057 -16.3074 49.6409 -5.22057 -16.585 57.1062 -5.22057 -12.6591 
-54.8742 2.24479 -11.9255 -47.4088 2.24479 -13.689 -39.9435 2.24479 -14.3557 
-32.4781 2.24479 -14.4838 -25.0127 2.24479 -14.0684 -17.5474 2.24479 -15.0284 
-10.082 2.24479 -18.292 -2.61667 2.24479 -14.0892 4.84869 2.24479 -16.0737 
12.3141 2.24479 -16.5102 19.7794 2.24479 -15.1766 27.2448 2.24479 -15.8332 
34.7101 2.24479 -16.3012 42.1755 2.24479 -16.1435 49.6409 2.24479 -15.8526 
57.1062 2.24479 -12.9366 -47.4088 9.71015 -12.7443 -39.9435 9.71015 -13.9877 
-32.4781 9.71015 -14.5544 -25.0127 9.71015 -14.8589 -17.5474 9.71015 -16.0499 
-10.082 9.71015 -16.3802 -2.61667 9.71015 -16.4363 4.84869 9.71015 -17.8517 
12.3141 9.71015 -13.9182 19.7794 9.71015 -15.2685 27.2448 9.71015 -16.1608 
34.7101 9.71015 -16.391 42.1755 9.71015 -16.0449 49.6409 9.71015 -15.5237 
57.1062 9.71015 -12.4491 -39.9435 17.1755 -13.5081 -32.4781 17.1755 -14.4614 
-25.0127 17.1755 -15.0715 -17.5474 17.1755 -15.6396 -10.082 17.1755 -15.2039 
-2.61667 17.1755 -14.8196 4.84869 17.1755 -13.8565 12.3141 17.1755 -13.7337 
19.7794 17.1755 -14.8899 27.2448 17.1755 -16.2128 34.7101 17.1755 -16.8374 
42.1755 17.1755 -15.4612 49.6409 17.1755 -14.038 -32.4781 24.6409 -12.9408 
-25.0127 24.6409 -13.8207 -17.5474 24.6409 -14.2949 -10.082 24.6409 -14.4843 
-2.61667 24.6409 -14.1955 4.84869 24.6409 -13.3638 12.3141 24.6409 -12.5865 
19.7794 24.6409 -13.1598 27.2448 24.6409 -14.1516 34.7101 24.6409 -14.1339 
42.1755 24.6409 -13.4409 49.6409 24.6409 -11.6837 -17.5474 32.1062 -11.9285 
-10.082 32.1062 -12.5657 -2.61667 32.1062 -12.3915 -32.4781 -35.7448 -11.163 
-25.0127 -38.65 -11.163 -17.5474 -39.7439 -11.163 -10.082 -40.6704 -11.163 
-2.61667 -40.2477 -11.163 4.84869 -38.272 -11.163 12.3141 -35.7901 -11.163 
19.7794 -36.9329 -11.163 27.2448 -35.4836 -11.163 -34.49 -35.082 -11.163 
-39.9435 -32.545 -11.163 -39.9435 -35.082 -4.08088 28.2087 -35.082 -11.163 
34.7101 -32.7992 -11.163 34.7101 -35.082 -8.14968 42.1755 -29.5418 -11.163 
-47.0082 -27.6167 -11.163 -47.4088 -26.7513 -11.163 -47.4088 -27.6167 -10.7311 
45.392 -27.6167 -11.163 49.6409 -23.6865 -11.163 49.6409 -27.6167 -8.34179 
-50.1211 -20.1513 -11.163 -54.8742 -14.65 -11.163 -54.8742 -20.1513 -7.18099 
51.9989 -20.1513 -11.163 57.1062 -20.1513 -5.76491 -55.7186 -12.6859 -11.163 
56.6088 -12.6859 -11.163 57.1062 -11.9568 -11.163 57.1062 -12.6859 -10.8546 
-56.0694 -5.22057 -11.163 59.0693 -5.22057 -11.163 -56.0033 2.24479 -11.163 
-62.3395 2.24479 -4.05554 -54.8742 8.66644 -11.163 59.5011 2.24479 -11.163 
-54.1837 9.71015 -11.163 -54.8742 9.71015 -10.9302 -47.4088 15.7955 -11.163 
58.8769 9.71015 -11.163 57.1062 13.9483 -11.163 -54.8742 17.1755 -7.66766 
-46.561 17.1755 -11.163 -47.4088 17.1755 -10.8325 -39.9435 23.6347 -11.163 
54.7786 17.1755 -11.163 57.1062 17.1755 -9.58483 -47.4088 24.6409 -8.5353 
-38.6348 24.6409 -11.163 -39.9435 24.6409 -10.7526 -32.4781 28.2455 -11.163 
-25.0127 31.4417 -11.163 4.84869 31.8485 -11.163 12.3141 28.8714 -11.163 
19.7794 28.2741 -11.163 27.2448 29.2261 -11.163 34.7101 28.9636 -11.163 
42.1755 27.5547 -11.163 50.4122 24.6409 -11.163 49.6409 25.3066 -11.163 
-39.9435 32.1062 -6.41489 -32.4781 32.1062 -8.69988 -23.0757 32.1062 -11.163 
-25.0127 32.1062 -10.8699 -17.5474 33.3437 -11.163 -10.082 34.4618 -11.163 
4.35639 32.1062 -11.163 -2.61667 34.1862 -11.163 4.84869 32.1062 -11.0758 
12.3141 32.1062 -9.72202 19.7794 32.1062 -8.10742 27.2448 32.1062 -8.31048 
34.7101 32.1062 -6.33653 42.1755 32.1062 -4.46759 -25.0127 39.5716 -4.51719 
-17.5474 39.5716 -6.04623 -10.082 39.5716 -7.00839 -2.61667 39.5716 -6.89068 
4.84869 39.5716 -4.83902 -39.9435 -35.1699 -3.69769 -32.4781 -37.8119 -3.69769 
-25.0127 -40.0418 -3.69769 -17.5474 -41.5441 -3.69769 -10.082 -42.2879 -3.69769 
-2.61667 -42.2278 -3.69769 4.84869 -41.6401 -3.69769 12.3141 -41.1766 -3.69769 
19.7794 -40.5768 -3.69769 27.2448 -39.5554 -3.69769 34.7101 -37.6384 -3.69769 
-40.0943 -35.082 -3.69769 -47.4088 -30.6484 -3.69769 -39.9435 -35.082 -3.40626 
41.2086 -35.082 -3.69769 34.7101 -35.082 1.45791 42.1755 -34.658 -3.69769 
49.6409 -29.6833 -3.69769 -51.1421 -27.6167 -3.69769 -54.8742 -23.2718 -3.69769 
51.9286 -27.6167 -3.69769 49.6409 -27.6167 0.844756 57.1062 -21.3969 -3.69769 
-56.9217 -20.1513 -3.69769 58.0209 -20.1513 -3.69769 57.1062 -20.1513 -1.38611 
-60.5656 -12.6859 -3.69769 61.5438 -12.6859 -3.69769 -61.9341 -5.22057 -3.69769 
-62.3395 -1.07334 -3.69769 63.6587 -5.22057 -3.69769 -62.5946 2.24479 -3.69769 
-62.3395 4.11842 -3.69769 64.1796 2.24479 -3.69769 -61.2709 9.71015 -3.69769 
63.464 9.71015 -3.69769 -58.6413 17.1755 -3.69769 -54.8742 22.9282 -3.69769 
61.1866 17.1755 -3.69769 57.1062 22.8703 -3.69769 -53.4191 24.6409 -3.69769 
-54.8742 24.6409 1.50029 -47.4088 30.4199 -3.69769 55.4513 24.6409 -3.69769 
49.6409 29.0875 -3.69769 -44.5739 32.1062 -3.69769 -47.4088 32.1062 2.22828 
-39.9435 34.414 -3.69769 -32.4781 37.2496 -3.69769 12.3141 37.1548 -3.69769 
19.7794 35 -3.69769 27.2448 34.4768 -3.69769 34.7101 33.2122 -3.69769 
42.9048 32.1062 -3.69769 42.1755 32.447 -3.69769 42.1755 32.1062 2.31533 
-26.662 39.5716 -3.69769 -25.0127 40.089 -3.69769 -17.5474 41.3163 -3.69769 
-10.082 41.8977 -3.69769 -2.61667 41.7635 -3.69769 6.74623 39.5716 -3.69769 
4.84869 40.3322 -3.69769 -32.4781 -35.5131 3.76767 -25.0127 -37.2917 3.76767 
-17.5474 -38.2386 3.76767 -10.082 -38.7742 3.76767 -2.61667 -38.3208 3.76767 
4.84869 -37.3298 3.76767 12.3141 -36.6277 3.76767 19.7794 -35.859 3.76767 
27.2448 -35.8765 3.76767 -47.4088 -28.7419 3.76767 -33.766 -35.082 3.76767 
-39.9435 -32.835 3.76767 -32.4781 -35.082 4.52507 -25.0127 -35.082 6.63951 
-17.5474 -35.082 7.62438 -10.082 -35.082 7.79159 -2.61667 -35.082 6.96474 
4.84869 -35.082 5.84802 12.3141 -35.082 5.11913 19.7794 -35.082 4.4904 
30.1884 -35.082 3.76767 27.2448 -35.082 4.55875 34.7101 -33.1611 3.76767 
42.1755 -30.4527 3.76767 -48.5199 -27.6167 3.76767 -54.8742 -20.8816 3.76767 
-47.4088 -27.6167 4.86518 -39.9435 -27.6167 9.23999 4.84869 -27.6167 10.7573 
12.3141 -27.6167 9.56865 19.7794 -27.6167 9.11424 27.2448 -27.6167 8.46606 
34.7101 -27.6167 7.23315 47.2122 -27.6167 3.76767 42.1755 -27.6167 6.19349 
49.6409 -25.8215 3.76767 -55.4138 -20.1513 3.76767 -54.8742 -20.1513 4.40247 
-47.4088 -20.1513 9.29339 34.7101 -20.1513 11.028 42.1755 -20.1513 9.47845 
54.6271 -20.1513 3.76767 49.6409 -20.1513 7.45527 57.1062 -16.4547 3.76767 
-59.296 -12.6859 3.76767 -54.8742 -12.6859 8.63733 49.6409 -12.6859 9.69432 
59.217 -12.6859 3.76767 57.1062 -12.6859 5.84884 -60.9359 -5.22057 3.76767 
-62.3395 0.233667 3.76767 -54.8742 -5.22057 11.1736 61.2886 -5.22057 3.76767 
57.1062 -5.22057 7.9564 -62.6951 2.24479 3.76767 -62.3395 5.68199 3.76767 
-62.3395 2.24479 4.29997 -54.8742 2.24479 10.3648 61.9909 2.24479 3.76767 
57.1062 2.24479 8.92254 -61.8025 9.71015 3.76767 62.2759 9.71015 3.76767 
57.1062 9.71015 9.26169 -59.7452 17.1755 3.76767 59.6357 17.1755 3.76767 
57.1062 21.0688 3.76767 57.1062 17.1755 6.73317 -55.3912 24.6409 3.76767 
-54.8742 25.2338 3.76767 -54.8742 24.6409 4.7474 42.1755 32.0142 3.76767 
54.106 24.6409 3.76767 49.6409 28.2111 3.76767 49.6409 24.6409 8.67054 
-47.8442 32.1062 3.76767 -47.4088 32.4392 3.76767 -47.4088 32.1062 4.52287 
-39.9435 36.301 3.76767 -39.9435 32.1062 9.87926 -32.4781 38.9669 3.76767 
12.3141 38.5453 3.76767 19.7794 36.043 3.76767 27.2448 34.9662 3.76767 
41.7461 32.1062 3.76767 34.7101 33.3632 3.76767 34.7101 32.1062 7.3579 
-29.8875 39.5716 3.76767 -25.0127 40.6196 3.76767 -25.0127 39.5716 5.97414 
-17.5474 42.2823 3.76767 -17.5474 39.5716 8.45335 -10.082 42.538 3.76767 
-10.082 39.5716 9.56992 -2.61667 42.4381 3.76767 -2.61667 39.5716 10.2182 
9.43395 39.5716 3.76767 4.84869 41.169 3.76767 4.84869 39.5716 8.18191 
-32.4781 -28.767 11.233 -25.0127 -30.54 11.233 -17.5474 -31.2073 11.233 
-10.082 -30.8245 11.233 -2.61667 -29.1707 11.233 -34.6022 -27.6167 11.233 
-39.9435 -24.164 11.233 -32.4781 -27.6167 11.9691 -25.0127 -27.6167 13.4668 
-17.5474 -27.6167 13.8583 -10.082 -27.6167 13.3849 2.41598 -27.6167 11.233 
-2.61667 -27.6167 12.2041 4.84869 -26.719 11.233 12.3141 -24.1453 11.233 
19.7794 -22.9413 11.233 27.2448 -21.3982 11.233 -43.9835 -20.1513 11.233 
-47.4088 -14.716 11.233 -39.9435 -20.1513 13.1773 -32.4781 -20.1513 15.3182 
[...]
POINT_DATA 562
SCALARS ImageScalars float
LOOKUP_TABLE default
0 0 0 0 0 0 0 0 0 
0 0 0 0 0 0 0 0 0 
0 0 0 0 0 0 0 0 0 
0 0 0 0 0 0 0 0 0 
0 0 0 0 0 0 0 0 0 
0 0 0 0 0 0 0 0 0 
0 0 0 0 0 0 0 0 0 
0 0 0 0 0 0 0 0 0 
0 0 0 0 0 0 0 0 0 
0 0 0 0 0 0 0 0 0 
0 0 0 0 0 0 0 0 0 
0 0 0 0 0 0 0 0 0 
0 0 0 0 0 0 0 0 0 
0 0 0 0 0 0 0 0 0 
0 0 0 0 0 0 0 0 0 
0 0 0 0 0 0 0 0 0 
0 0 0 0 0 0 0 0 0 
0 0 0 0 0 0 0 0 0 
0 0 0 0 0 0 0 0 0 
0 0 0 0 0 0 0 0 0 
0 0 0 0 0 0 0 0 0 
0 0 0 0 0 0 0 0 0 
0 0 0 0 0 0 0 0 0 
0 0 0 0 0 0 0 0 0 
0 0 0 0 0 0 0 0 0 
0 0 0 0 0 0 0 0 0 
0 0 0 0 0 0 0 0 0 
0 0 0 0 0 0 0 0 0 
0 0 0 0 0 0 0 0 0 
0 0 0 0 0 0 0 0 0 
0 0 0 0 0 0 0 0 0 
0 0 0 0 0 0 0 0 0 
0 0 0 0 0 0 0 0 0 
0 0 0 0 0 0 0 0 0 
0 0 0 0 0 0 0 0 0 
0 0 0 0 0 0 0 0 0 
0 0 0 0 0 0 0 0 0 
0 0 0 0 0 0 0 0 0 
0 0 0 0 0 0 0 0 0 
0 0 0 0 0 0 0 0 0 
0 0 0 0 0 0 0 0 0 
0 0 0 0 0 0 0 0 0 
0 0 0 0 0 0 0 0 0 
0 0 0 0 0 0 0 0 0 
0 0 0 0 0 0 0 0 0 
0 0 0 0 0 0 0 0 0 
0 0 0 0 0 0 0 0 0 
0 0 0 0 0 0 0 0 0 
0 0 0 0 0 0 0 0 0 
0 0 0 0 0 0 0 0 0 
0 0 0 0 0 0 0 0 0 
0 0 0 0 0 0 0 0 0 
0 0 0 0 0 0 0 0 0 
0 0 0 0 0 0 0 0 0 
0 0 0 0 0 0 0 0 0 
0 0 0 0 0 0 0 0 0 
0 0 0 0 0 0 0 0 0 
0 0 0 0 0 0 0 0 0 
0 0 0 0 0 0 0 0 0 
0 0 0 0 0 0 0 0 0 
0 0 0 0 0 0 0 0 0 
0 0 0 0 0 0 0 0 0 
0 0 0 0 
NORMALS Normals float
0.321116 0.731196 0.601861 0.211117 0.583948 0.783859 0.0595052 0.513568 0.855983 
-0.0423135 0.437915 0.89802 -0.110629 0.441512 0.890409 -0.215018 0.466562 0.857955 
-0.0852255 0.463408 0.882037 -0.000991332 0.430982 0.90236 -0.209713 0.56813 0.795769 
0.339833 0.345394 0.874767 0.2382 0.275497 0.931323 0.0800795 0.212788 0.973811 
0.00449182 0.0973763 0.995238 -0.0646468 0.0768275 0.994946 -0.124435 0.12522 0.984295 
-0.192127 0.0745824 0.978532 -0.0658189 0.10389 0.992409 0.0176374 0.177667 0.983933 
-0.0040945 0.216011 0.976382 -0.0777809 0.35417 0.931941 -0.342245 0.483816 0.805476 
0.425944 0.213404 0.879221 0.248794 0.0978462 0.963601 0.16596 -0.0314416 0.985631 
0.0403005 -0.0433234 0.998248 -0.0925295 -0.102928 0.990376 -0.0340472 -0.109311 0.993424 
-0.0950399 -0.0407832 0.994638 -0.235423 -0.00120914 0.971892 -0.0220754 -0.0310161 0.999275 
0.118521 0.0320339 0.992435 0.0963534 0.137546 0.985798 -0.0354498 0.160953 0.986325 
-0.210008 0.15423 0.965458 -0.403837 0.269262 0.874308 0.536832 0.18325 0.823548 
0.273248 0.0963672 0.957104 0.0819139 -0.0499306 0.995388 0.0716299 -0.132735 0.98856 
0.0105898 -0.218958 0.975677 -0.0603096 -0.203719 0.97717 0.00213077 -0.00299317 0.999993 
0.00704742 -0.0582103 0.998279 -0.219214 0.122574 0.967947 0.00701527 0.166417 0.98603 
0.191757 0.0609152 0.97955 0.0893824 0.0400517 0.995192 -0.0499951 0.0178438 0.99859 
-0.123772 0.0916053 0.988073 -0.331587 0.261767 0.906382 0.49062 0.006307 0.871351 
0.244452 -0.0640934 0.967541 0.0327028 -0.0673397 0.997194 0.00407835 -0.101874 0.994789 
-0.0334919 -0.160135 0.986527 0.115778 -0.0816575 0.989913 0.138255 0.203021 0.969365 
-0.000998654 -0.125052 0.99215 0.065044 0.0305526 0.997415 -0.109911 0.25233 0.961379 
-0.0456491 0.0149445 0.998846 0.0586793 -0.0247247 0.997971 0.0233373 -0.000145649 0.999728 
0.0090625 0.0471194 0.998848 -0.267423 0.0849149 0.95983 -0.553811 0.1273 0.822854 
0.460215 -0.0709051 0.884971 0.197864 -0.103456 0.974755 0.0487478 -0.0518793 0.997463 
-0.0193232 -0.0244848 0.999513 0.0246902 0.00223903 0.999693 0.295257 0.118875 0.947994 
-0.0448993 -0.0563066 0.997403 -0.19349 0.0348685 0.980482 0.159069 0.042685 0.986344 
-0.0714831 -0.221097 0.972629 -0.0332619 -0.0175877 0.999292 0.0743831 0.0132883 0.997141 
0.0209681 -0.00047606 0.99978 -0.0274885 -0.0175101 0.999469 -0.242027 -0.0585716 0.9685 
-0.506263 -0.0138147 0.862269 0.226683 -0.184904 0.956256 0.113165 -0.059093 0.991817 
0.0564551 -0.00117978 0.998404 0.100614 0.0677782 0.992614 0.102208 0.0291032 0.994337 
0.0262444 -0.204608 0.978492 0.0758621 0.0151858 0.997003 -0.203891 -0.177366 0.962793 
-0.106153 -0.167478 0.980144 0.15415 -0.018639 0.987872 0.0723667 0.0262149 0.997034 
-0.00720734 0.0345758 0.999376 -0.0532103 -0.0448944 0.997574 -0.260052 -0.100907 0.960308 
-0.504297 -0.185033 0.843473 0.216775 -0.188984 0.957754 0.112135 -0.114517 0.987072 
0.0769604 -0.0641543 0.994968 0.00885121 -0.113785 0.993466 -0.0553352 -0.123764 0.990768 
-0.085792 -0.143742 0.985889 -0.0776071 -0.23288 0.969404 0.0666867 -0.0868546 0.993986 
0.163945 -0.129706 0.977905 0.126099 -0.11633 0.985173 -0.0467135 -0.130383 0.990363 
-0.165362 -0.141507 0.976028 -0.380095 -0.261924 0.887087 0.182706 -0.322826 0.928656 
0.0921129 -0.266763 0.95935 0.0426029 -0.233034 0.971535 -0.00791014 -0.160164 0.987059 
-0.0720034 -0.145099 0.986794 -0.108817 -0.164041 0.980433 -0.0152393 -0.237573 0.97125 
0.0947313 -0.357585 0.929063 0.0612238 -0.397965 0.915355 -0.0377634 -0.452362 0.891034 
-0.174844 -0.477973 0.860797 -0.409781 -0.498252 0.764084 0.103558 -0.433364 0.895249 
0.0290591 -0.389574 0.920537 -0.0889768 -0.381662 0.920009 0.328878 0.766659 0.551429 
0.229751 0.84264 0.487003 0.121474 0.836287 0.534666 0.0312567 0.832021 0.553863 
-0.122599 0.787778 0.603635 -0.215569 0.674762 0.705852 -0.0728815 0.511157 0.856392 
-0.0149751 0.555171 0.831601 -0.222978 0.59486 0.772283 0.351811 0.754501 0.554037 
0.401557 0.660085 0.634854 0.438119 0.898895 -0.00634589 -0.218517 0.598646 0.770632 
-0.168763 0.630301 0.757786 -0.268308 0.857548 0.438888 -0.357034 0.549915 0.755063 
0.575822 0.44841 0.683636 0.570542 0.422795 0.704078 0.596583 0.477737 0.644869 
-0.424403 0.507888 0.749621 -0.483168 0.385457 0.786112 -0.606308 0.655243 0.450608 
0.491101 0.278005 0.82555 0.560142 0.246566 0.790852 0.759455 0.480338 0.438752 
-0.546387 0.333338 0.76834 -0.826411 0.545844 0.138199 0.566869 0.19582 0.800196 
-0.5484 0.248965 0.798294 -0.563665 0.237152 0.791228 -0.578631 0.255583 0.774509 
0.534957 0.0173192 0.844702 -0.655994 0.134453 0.742694 0.507977 -0.0727958 0.858289 
0.912737 -0.0337822 0.407149 0.478634 -0.219349 0.850174 -0.651432 -0.0080029 0.758664 
0.457097 -0.238257 0.856911 0.486794 -0.242114 0.839292 0.32669 -0.22603 0.917706 
-0.600653 -0.198672 0.774432 -0.549236 -0.294145 0.782188 0.561457 -0.432151 0.7057 
0.336542 -0.231255 0.912831 0.354506 -0.237709 0.904334 0.2577 -0.358554 0.897234 
-0.516104 -0.326257 0.791955 -0.629195 -0.399401 0.666778 0.425166 -0.459487 0.779812 
0.24963 -0.374094 0.893162 0.264042 -0.389179 0.882509 0.201142 -0.437128 0.876619 
0.169733 -0.430468 0.886503 -0.145865 -0.411694 0.899573 -0.0814 -0.386691 0.91861 
0.0234819 -0.506574 0.861876 0.0226526 -0.624272 0.780879 -0.0717448 -0.703624 0.706941 
-0.195957 -0.633498 0.748519 -0.449865 -0.519154 0.726705 -0.424491 -0.544679 0.723278 
0.341053 -0.70293 0.624157 0.24021 -0.602843 0.760841 0.158406 -0.444121 0.881853 
0.180228 -0.453552 0.872817 0.10165 -0.481065 0.870772 0.0339428 -0.498694 0.866113 
-0.142868 -0.419187 0.896589 -0.0914972 -0.483357 0.870629 -0.147869 -0.422777 0.894089 
-0.15673 -0.556992 0.815595 -0.0752482 -0.767847 0.636199 -0.0475198 -0.834215 0.549388 
-0.131836 -0.931221 0.339775 -0.277984 -0.931417 0.234921 0.234417 -0.881439 0.410017 
0.114651 -0.826816 0.550664 0.0426949 -0.823359 0.565912 -0.0995629 -0.825416 0.555676 
-0.27953 -0.854874 0.437096 0.435976 0.899372 -0.0324903 0.296654 0.9545 -0.0304214 
0.237808 0.968434 -0.0747159 0.15284 0.983967 -0.0919132 0.0467786 0.99266 -0.111526 
-0.0450837 0.992912 -0.10997 -0.0716532 0.995137 -0.0675824 -0.0743977 0.997146 -0.0128523 
-0.11244 0.990183 -0.0830342 -0.198701 0.978473 -0.0557473 -0.331715 0.94326 -0.0150336 
0.438642 0.898137 -0.0307034 0.58141 0.811609 0.0570313 0.433011 0.900087 -0.0484249 
-0.446369 0.891097 -0.0818569 -0.325873 0.818037 -0.473943 -0.462542 0.882233 -0.0878647 
-0.62986 0.776427 -0.0209135 0.676032 0.733893 0.066187 0.803344 0.581605 0.127959 
-0.696599 0.71745 -0.00382771 -0.594843 0.717082 -0.363256 -0.826953 0.562031 0.0164329 
0.853992 0.49608 0.15685 -0.84172 0.539312 0.0254969 -0.820794 0.562348 -0.100306 
0.929377 0.296883 0.219361 -0.92834 0.353488 0.11503 0.946409 0.133353 0.294154 
0.93646 0.0446801 0.347917 -0.96934 0.180075 0.167194 0.924632 -0.0315703 0.37955 
0.915562 -0.0867908 0.392701 -0.983567 -0.0162119 0.179814 0.880581 -0.240249 0.408481 
-0.965154 -0.196741 0.172542 0.838317 -0.411224 0.357937 0.701592 -0.567585 0.430831 
-0.883665 -0.429064 0.187191 -0.746507 -0.64236 0.173493 0.666087 -0.606739 0.433815 
0.767069 -0.640143 0.0426805 0.525643 -0.720083 0.452968 -0.688929 -0.706547 0.161764 
-0.481785 -0.864461 0.143492 0.463524 -0.762873 0.450744 0.575978 -0.817406 0.00981288 
0.378366 -0.79895 0.467459 0.322935 -0.831347 0.452299 -0.331444 -0.855578 0.397657 
-0.168837 -0.92099 0.3511 -0.111699 -0.959278 0.259439 -0.141231 -0.967876 0.208015 
-0.2971 -0.937786 0.179692 -0.279202 -0.941962 0.186426 -0.327625 -0.927656 -0.179212 
0.259502 -0.89306 0.367564 0.237672 -0.904589 0.35388 0.125432 -0.904739 0.407081 
0.0291429 -0.933268 0.357995 -0.103554 -0.929049 0.355167 -0.305512 -0.877741 0.369098 
-0.281023 -0.886256 0.368206 0.254931 0.873814 -0.414077 0.1668 0.844412 -0.509065 
0.0824418 0.836641 -0.541512 0.00689844 0.799711 -0.600346 -0.0765032 0.7554 -0.650783 
-0.0877367 0.712886 -0.69577 -0.0725583 0.679186 -0.730371 -0.0389608 0.670363 -0.74101 
-0.121348 0.721637 -0.681553 0.598028 0.651544 -0.466748 0.265069 0.868967 -0.417893 
0.343458 0.808457 -0.477948 0.252082 0.860762 -0.442203 0.121865 0.782794 -0.610232 
0.051169 0.74184 -0.668621 -0.035322 0.693183 -0.719896 -0.100386 0.661179 -0.743481 
-0.0985124 0.645004 -0.757803 -0.0709732 0.628736 -0.774374 -0.0327364 0.643446 -0.764791 
-0.183289 0.708448 -0.681547 -0.116338 0.684583 -0.719591 -0.260772 0.667129 -0.697809 
-0.354845 0.685533 -0.635712 0.628695 0.627676 -0.459092 0.702212 0.557114 -0.443308 
0.58231 0.606957 -0.54085 0.351214 0.576997 -0.737376 -0.154696 0.486584 -0.859829 
-0.0956352 0.464302 -0.880499 -0.0715259 0.441755 -0.89428 -0.111778 0.444575 -0.88874 
-0.148195 0.502252 -0.851928 -0.455726 0.650732 -0.60734 -0.286098 0.543459 -0.789177 
-0.521726 0.616554 -0.58963 0.716637 0.539076 -0.442526 0.691509 0.534473 -0.485958 
0.480587 0.375467 -0.792503 -0.148509 0.398774 -0.904944 -0.220411 0.390723 -0.893731 
-0.677237 0.542897 -0.496602 -0.360481 0.447844 -0.818223 -0.736265 0.455114 -0.500785 
0.839007 0.309699 -0.447385 0.595053 0.305043 -0.743546 -0.396008 0.272739 -0.876807 
-0.766356 0.334642 -0.548373 -0.652966 0.288091 -0.700457 0.877713 0.209219 -0.431101 
0.923999 0.0872808 -0.372301 0.559822 0.0858916 -0.824149 -0.79177 0.176336 -0.584813 
-0.688309 0.187751 -0.7007 0.940056 0.0384883 -0.33884 0.940738 -0.0667744 -0.332495 
0.922977 0.0431708 -0.382427 0.578781 0.0866623 -0.810865 -0.830342 0.0568958 -0.554342 
-0.698099 0.0718151 -0.712391 0.934765 -0.184388 -0.303672 -0.880679 -0.152533 -0.448485 
-0.593179 -0.115589 -0.79673 0.906295 -0.367228 -0.209219 -0.807231 -0.426138 -0.408393 
-0.722525 -0.551233 -0.417254 -0.666397 -0.42101 -0.615358 0.775258 -0.618879 -0.126345 
0.764137 -0.633436 -0.121875 0.760746 -0.619458 -0.193745 -0.333289 -0.904612 -0.265698 
-0.650454 -0.662179 -0.372059 -0.521996 -0.787799 -0.326945 -0.540508 -0.54016 -0.645041 
0.582933 -0.806135 -0.101663 0.571298 -0.814534 -0.100763 0.572412 -0.805096 -0.155449 
0.414259 -0.900634 -0.131332 0.347716 -0.723381 -0.5965 0.275021 -0.955148 -0.1098 
-0.342803 -0.937707 -0.0564915 -0.239918 -0.969933 -0.0408498 -0.16938 -0.981637 -0.0877477 
-0.325148 -0.909858 -0.257753 -0.195993 -0.968731 -0.152142 -0.249437 -0.914729 -0.317887 
0.248866 -0.958678 -0.13785 0.209786 -0.960449 -0.183105 0.192153 -0.930858 -0.310774 
0.130671 -0.973 -0.190255 0.122955 -0.836277 -0.534344 0.0106369 -0.983558 -0.180279 
0.0649447 -0.831199 -0.552169 -0.0911337 -0.984942 -0.146917 -0.0288612 -0.839355 -0.542817 
-0.31067 -0.947075 -0.0808232 -0.240682 -0.96414 -0.111827 -0.20924 -0.909455 -0.35932 
0.238173 0.53235 -0.812328 0.0961429 0.619571 -0.779031 0.0141233 0.612063 -0.790683 
-0.0779655 0.564599 -0.821675 -0.145441 0.511853 -0.846672 0.266482 0.505997 -0.820338 
0.345184 0.434101 -0.832108 0.23645 0.487849 -0.840294 0.110818 0.525586 -0.843492 
-0.00557549 0.51036 -0.859943 -0.0975129 0.480607 -0.871497 -0.154466 0.484582 -0.861 
-0.152318 0.481398 -0.863166 -0.156688 0.47151 -0.867829 -0.109631 0.452668 -0.884914 
-0.0791768 0.4173 -0.905313 -0.0883549 0.404812 -0.910121 0.41592 0.323636 -0.849865 
0.376534 0.277855 -0.883753 0.345356 0.290114 -0.892504 0.230907 0.254927 -0.938986 
0.10743 0.266313 -0.957881 -0.0301024 0.290423 -0.956425 -0.0907396 0.287831 -0.953373 
-0.112851 0.345822 -0.931489 -0.148465 0.354598 -0.923157 -0.131088 0.449751 -0.883482 
-0.0829161 0.428147 -0.899897 -0.131545 0.398322 -0.907764 -0.0831146 0.398609 -0.913347 
-0.148651 0.389326 -0.909026 -0.234882 0.346531 -0.908156 0.382368 0.269428 -0.883857 
0.345579 0.256276 -0.902717 0.259667 0.153629 -0.9534 0.223814 0.101329 -0.96935 
0.15997 0.0978361 -0.982261 -0.0537157 0.173444 -0.983378 -0.112658 0.230591 -0.966507 
-0.0680414 0.0546395 -0.996185 -0.00155645 0.274883 -0.961476 -0.130387 0.362393 -0.92286 
-0.163254 0.288229 -0.943542 -0.157781 0.270385 -0.949735 -0.303341 0.290817 -0.907419 
-0.240013 0.306654 -0.921063 -0.350854 0.180924 -0.918786 0.554712 0.0873623 -0.827443 
0.318751 0.177534 -0.931064 0.190808 0.155423 -0.969245 0.179502 0.103267 -0.978323 
0.154296 0.0642024 -0.985937 -0.09296 0.153734 -0.98373 0.174676 0.160361 -0.97148 
-0.0869901 0.165821 -0.982312 -0.186446 0.160714 -0.969231 -0.14038 0.150843 -0.97854 
-0.22853 0.144583 -0.962741 -0.373966 0.173234 -0.91112 -0.339308 0.166439 -0.925834 
0.524859 0.0882126 -0.846606 0.565651 0.0729306 -0.821413 0.359675 0.0754404 -0.930023 
0.214427 0.141883 -0.96638 0.135703 0.107802 -0.984867 -0.016199 -0.0327308 -0.999333 
-0.191715 0.189181 -0.963045 -0.173783 0.122603 -0.977122 -0.220184 0.0586908 -0.973691 
-0.449363 0.054793 -0.891667 -0.293797 0.0673415 -0.953493 0.622039 0.0261834 -0.782548 
0.560095 0.0404319 -0.827441 0.371089 0.0240055 -0.928287 0.215884 0.0250134 -0.976099 
0.0828327 0.0177686 -0.996405 0.028905 0.0143658 -0.999479 0.0162748 -0.0237285 -0.999586 
-0.27651 0.112093 -0.954451 -0.27316 0.0549117 -0.9604 -0.434885 -0.0857267 -0.896396 
-0.367592 -0.040575 -0.929101 0.585908 -0.266524 -0.765295 0.585085 -0.27083 -0.764412 
0.583284 -0.265414 -0.767682 0.388315 -0.179513 -0.903873 0.174035 -0.180108 -0.968129 
0.0858933 -0.109918 -0.990222 0.0148073 -0.137643 -0.990371 0.0194701 -0.126154 -0.99182 
0.0077854 0.00778001 -0.999939 -0.315638 -0.0323659 -0.948327 -0.336669 -0.115606 -0.9345 
-0.542035 -0.213536 -0.812773 -0.540701 -0.247302 -0.804042 -0.537497 -0.202415 -0.818612 
0.503655 -0.412295 -0.759174 0.486453 -0.428859 -0.761212 0.481609 -0.400826 -0.779354 
0.320807 -0.627319 -0.709615 0.262634 -0.347748 -0.900053 0.124448 -0.297969 -0.946429 
0.0244666 -0.274671 -0.961227 0.0674803 -0.219644 -0.973244 0.12946 -0.180142 -0.975084 
-0.305694 -0.77589 -0.551856 -0.345157 -0.400239 -0.848926 -0.454858 -0.496012 -0.739646 
-0.390478 -0.607253 -0.691933 -0.411853 -0.497133 -0.763699 0.293259 -0.643426 -0.707108 
0.217766 -0.670217 -0.709498 0.191668 -0.547218 -0.814749 0.108529 -0.671131 -0.733351 
0.0921544 -0.497331 -0.862652 0.120698 -0.656417 -0.74468 0.121346 -0.45722 -0.881036 
0.0846814 -0.734001 -0.673848 0.129445 -0.433457 -0.891829 -0.0153953 -0.787643 -0.615939 
0.0448536 -0.448043 -0.892886 -0.159164 -0.808845 -0.566071 -0.0671577 -0.464203 -0.883179 
-0.230691 -0.825769 -0.514673 -0.132971 -0.607995 -0.782727 -0.198542 -0.879457 -0.432592 
-0.160417 -0.790902 -0.590543 -0.240129 -0.845666 -0.476641 -0.216905 -0.865934 -0.450677 
-0.216523 -0.828315 -0.516732 0.00805343 0.140765 -0.99001 0.00866572 0.140383 -0.990059 
0.00785697 0.140678 -0.990024 0.0081225 0.140534 -0.990043 -0.0192741 0.0854415 -0.996157 
-0.18105 0.162051 -0.970031 0.115599 0.0645012 -0.9912 0.137041 0.0578948 -0.988872 
0.0424963 0.0664427 -0.996885 -0.014743 -0.0269693 -0.999528 1.34406e-05 0.0362319 -0.999343 
-0.214193 0.118823 -0.969537 -0.223422 0.105766 -0.968967 -0.0255217 0.215398 -0.976193 
0.0632879 0.145134 -0.987386 -0.11059 0.155187 -0.981676 0.125335 0.0658167 -0.989929 
0.122754 0.05296 -0.991023 -0.0161616 -0.0321658 -0.999352 -0.0189965 -0.0129846 -0.999735 
-0.0147038 -0.0309532 -0.999413 0.0244687 0.0164404 -0.999565 0.0135836 -0.00429743 -0.999898 
-0.0183708 0.214259 -0.976604 0.00211562 0.134017 -0.990977 -0.138683 0.15981 -0.977358 
-0.123389 0.149818 -0.980984 -0.209681 0.198026 -0.957507 0.0742011 0.0109579 -0.997183 
0.0178137 -0.117725 -0.992886 0.0336755 -0.0242517 -0.999139 0.00823335 -0.0157916 -0.999841 
-0.0105305 -0.109036 -0.993982 -0.0424577 -0.0901406 -0.995024 0.0258334 0.0130763 -0.999581 
0.0524201 -0.00307368 -0.99862 0.0161032 -0.0230976 -0.999604 0.0113127 0.00268472 -0.999932 
0.0187117 -0.0227154 -0.999567 0.114143 0.0327493 -0.992924 -0.0254889 0.127588 -0.9915 
-0.241196 0.171321 -0.955235 -0.209213 0.195853 -0.958056 0.0594004 -0.0601104 -0.996423 
0.094256 -0.0656957 -0.993378 0.0807475 -0.0238784 -0.996449 0.00573976 0.00486444 -0.999972 
-0.0156786 -0.0279835 -0.999485 0.018457 0.00350526 -0.999824 0.000915103 -0.0428087 -0.999083 
0.156499 -0.0549267 -0.98615 0.0384174 -0.0341707 -0.998677 -0.279999 -0.0251105 -0.959672 
-0.212597 -0.0288886 -0.976713 0.0796973 -0.16535 -0.98301 0.0437016 -0.209528 -0.976825 
0.040393 -0.155306 -0.98704 -0.0103159 -0.122605 -0.992402 -0.00784635 -0.106828 -0.994247 
0.048842 -0.249293 -0.967196 0.0655638 -0.217533 -0.973848 -0.0294839 -0.438864 -0.89807 
-0.000461162 -0.340201 -0.940353 -0.213876 -0.361554 -0.907489 -0.197837 -0.383552 -0.90208 
-0.196631 -0.36235 -0.911065 
