# vtk DataFile Version 4.2
vtk output
ASCII
DATASET POLYDATA
POINTS 510 float
-17.3811 -40.7969 -19.9696 -9.2229 -40.7969 -23.1501 -1.06472 -40.7969 -22.1538 
7.09347 -40.7969 -21.5649 15.2516 -40.7969 -19.1225 -33.6974 -32.6387 -18.0659 
-25.5393 -32.6387 -21.3258 -17.3811 -32.6387 -23.2531 -9.2229 -32.6387 -23.9794 
-1.06472 -32.6387 -23.5857 7.09347 -32.6387 -23.1083 15.2516 -32.6387 -21.2091 
23.4098 -32.6387 -20.0768 -41.8556 -24.4805 -18.8036 -33.6974 -24.4805 -21.341 
-25.5393 -24.4805 -22.1452 -17.3811 -24.4805 -22.8078 -9.2229 -24.4805 -23.5387 
-1.06472 -24.4805 -22.673 7.09347 -24.4805 -21.3761 15.2516 -24.4805 -21.1299 
23.4098 -24.4805 -21.335 31.568 -24.4805 -20.4387 39.7262 -24.4805 -16.0318 
-50.0138 -16.3224 -16.5183 -41.8556 -16.3224 -20.5698 -33.6974 -16.3224 -21.6362 
-25.5393 -16.3224 -21.7444 -17.3811 -16.3224 -21.3138 -9.2229 -16.3224 -21.5564 
-1.06472 -16.3224 -20.4335 7.09347 -16.3224 -19.0591 15.2516 -16.3224 -20.095 
23.4098 -16.3224 -21.3509 31.568 -16.3224 -21.5958 39.7262 -16.3224 -20.2878 
47.8844 -16.3224 -16.4667 -50.0138 -8.16418 -17.337 -41.8556 -8.16418 -21.0308 
-33.6974 -8.16418 -21.9686 -25.5393 -8.16418 -21.4318 -17.3811 -8.16418 -20.2312 
-9.2229 -8.16418 -20.4203 -1.06472 -8.16418 -19.7238 7.09347 -8.16418 -18.836 
15.2516 -8.16418 -19.4996 23.4098 -8.16418 -21.1302 31.568 -8.16418 -22.2091 
39.7262 -8.16418 -21.9285 47.8844 -8.16418 -19.7213 -50.0138 -0.00599657 -18.171 
-41.8556 -0.00599657 -21.379 -33.6974 -0.00599657 -22.0619 -25.5393 -0.00599657 -21.236 
-17.3811 -0.00599657 -20.5655 -9.2229 -0.00599657 -22.0326 -1.06472 -0.00599657 -18.3788 
7.09347 -0.00599657 -20.2915 15.2516 -0.00599657 -19.4354 23.4098 -0.00599657 -20.366 
31.568 -0.00599657 -21.7818 39.7262 -0.00599657 -22.1543 47.8844 -0.00599657 -19.7885 
-50.0138 8.15219 -17.6942 -41.8556 8.15219 -20.9007 -33.6974 8.15219 -21.796 
-25.5393 8.15219 -21.0545 -17.3811 8.15219 -19.5938 -9.2229 8.15219 -19.4011 
-1.06472 8.15219 -19.0126 7.09347 8.15219 -19.375 15.2516 8.15219 -18.6554 
23.4098 8.15219 -19.9263 31.568 8.15219 -20.994 39.7262 8.15219 -21.0124 
47.8844 8.15219 -19.1157 -50.0138 16.3104 -16.8687 -41.8556 16.3104 -20.2157 
-33.6974 16.3104 -21.3518 -25.5393 16.3104 -20.1382 -17.3811 16.3104 -18.0593 
-1.06472 16.3104 -17.9213 7.09347 16.3104 -18.4172 15.2516 16.3104 -17.4801 
23.4098 16.3104 -18.586 31.568 16.3104 -19.1303 39.7262 16.3104 -18.9766 
47.8844 16.3104 -16.6232 -41.8556 24.4686 -17.0569 -33.6974 24.4686 -18.9148 
-25.5393 24.4686 -18.4057 -17.3811 24.4686 -16.6085 -1.06472 24.4686 -16.1156 
7.09347 24.4686 -16.5468 31.568 24.4686 -16.355 -17.3811 -44.5264 -16.001 
-9.2229 -47.4427 -16.001 -1.06472 -48.1256 -16.001 7.09347 -46.9031 -16.001 
15.2516 -44.4757 -16.001 -33.6974 -35.2049 -16.001 -24.9241 -40.7969 -16.001 
-25.5393 -40.3714 -16.001 -25.5393 -40.7969 -14.7673 21.1211 -40.7969 -16.001 
23.4098 -38.8576 -16.001 23.4098 -40.7969 -11.5034 -37.6641 -32.6387 -16.001 
-41.8556 -28.7688 -16.001 30.8175 -32.6387 -16.001 31.568 -31.9454 -16.001 
31.568 -32.6387 -14.2183 39.7262 -24.5151 -16.001 -45.5717 -24.4805 -16.001 
-50.0138 -17.5577 -16.001 -50.0138 -24.4805 -8.04056 39.7673 -24.4805 -16.001 
47.8844 -16.8791 -16.001 -50.5491 -16.3224 -16.001 48.3834 -16.3224 -16.001 
-51.4621 -8.16418 -16.001 52.2328 -8.16418 -16.001 56.0426 -8.16418 -9.69998 
-52.5367 -0.00599657 -16.001 53.7261 -0.00599657 -16.001 56.0426 -0.00599657 -12.9242 
-52.0063 8.15219 -16.001 -9.2229 16.2994 -16.001 52.2436 8.15219 -16.001 
56.0426 8.15219 -11.4134 -51.0552 16.3104 -16.001 -50.0138 18.1967 -16.001 
-9.23936 16.3104 -16.001 -9.20357 16.3104 -16.001 -9.2229 16.3104 -15.997 
15.2516 24.2027 -16.001 23.4098 24.3135 -16.001 39.7262 22.5007 -16.001 
48.7125 16.3104 -16.001 47.8844 17.2336 -16.001 -43.9234 24.4686 -16.001 
-50.0138 24.4686 -10.7389 -41.8556 25.9878 -16.001 -33.6974 29.482 -16.001 
-25.5393 29.7512 -16.001 -12.8218 24.4686 -16.001 -17.3811 27.2001 -16.001 
-2.67514 24.4686 -16.001 -9.2229 24.4686 -15.5226 -1.06472 24.9489 -16.001 
14.5719 24.4686 -16.001 7.09347 26.3857 -16.001 15.2516 24.4686 -15.9511 
24.4155 24.4686 -16.001 23.4098 24.4686 -15.9506 33.7403 24.4686 -16.001 
31.568 25.0583 -16.001 39.7262 24.4686 -14.6078 47.8844 24.4686 -8.67463 
-41.8556 32.6267 -8.33662 -33.6974 32.6267 -13.4829 -25.5393 32.6267 -14.5155 
-17.3811 32.6267 -14.5944 -9.2229 32.6267 -14.5222 -1.06472 32.6267 -14.0624 
7.09347 32.6267 -14.0924 15.2516 32.6267 -13.7419 23.4098 32.6267 -11.7195 
31.568 32.6267 -9.5802 -17.3811 40.7849 -8.3024 -9.2229 40.7849 -9.28747 
-1.06472 40.7849 -9.47403 7.09347 40.7849 -8.85238 -25.5393 -42.3009 -7.84278 
-17.3811 -45.8156 -7.84278 -9.2229 -48.0513 -7.84278 -1.06472 -48.7315 -7.84278 
7.09347 -48.4005 -7.84278 15.2516 -46.5928 -7.84278 23.4098 -41.8961 -7.84278 
-28.3782 -40.7969 -7.84278 -33.6974 -38.0268 -7.84278 -25.5393 -40.7969 -3.36444 
24.8342 -40.7969 -7.84278 23.4098 -40.7969 -3.57338 31.568 -34.5309 -7.84278 
-50.0138 -24.5795 -7.84278 -41.8531 -32.6387 -7.84278 -41.8556 -32.6367 -7.84278 
33.4231 -32.6387 -7.84278 31.568 -32.6387 -2.10703 39.7262 -27.1242 -7.84278 
-50.0906 -24.4805 -7.84278 -50.0138 -24.4805 -7.45454 43.1941 -24.4805 -7.84278 
47.8844 -20.6108 -7.84278 -54.2368 -16.3224 -7.84278 52.1861 -16.3224 -7.84278 
56.0426 -9.89699 -7.84278 -56.2842 -8.16418 -7.84278 56.8801 -8.16418 -7.84278 
-57.648 -0.00599657 -7.84278 58.5365 -0.00599657 -7.84278 -57.5917 8.15219 -7.84278 
57.9778 8.15219 -7.84278 56.0426 13.6876 -7.84278 -56.0795 16.3104 -7.84278 
54.9511 16.3104 -7.84278 -51.9871 24.4686 -7.84278 -50.0138 26.6417 -7.84278 
39.7262 30.7 -7.84278 48.5422 24.4686 -7.84278 47.8844 25.0771 -7.84278 
-42.3396 32.6267 -7.84278 -41.8556 32.9211 -7.84278 -33.6974 36.8903 -7.84278 
-25.5393 39.3547 -7.84278 15.2516 39.7313 -7.84278 23.4098 36.862 -7.84278 
35.291 32.6267 -7.84278 31.568 34.1286 -7.84278 39.7262 32.6267 -3.16891 
-19.0363 40.7849 -7.84278 -17.3811 41.1194 -7.84278 -9.2229 41.9567 -7.84278 
-1.06472 42.102 -7.84278 10.9836 40.7849 -7.84278 7.09347 41.5829 -7.84278 
15.2516 40.7849 -5.6749 -17.3811 -42.9668 0.315401 -9.2229 -45.1042 0.315401 
-1.06472 -45.6336 0.315401 7.09347 -45.4227 0.315401 15.2516 -43.8423 0.315401 
-33.6974 -34.9705 0.315401 -22.4182 -40.7969 0.315401 -25.5393 -39.3332 0.315401 
-17.3811 -40.7969 3.49643 -9.2229 -40.7969 6.29437 -1.06472 -40.7969 6.66826 
7.09347 -40.7969 6.37509 21.4128 -40.7969 0.315401 15.2516 -40.7969 4.67258 
23.4098 -39.6946 0.315401 -37.8769 -32.6387 0.315401 -41.8556 -30.035 0.315401 
-33.6974 -32.6387 3.20378 -25.5393 -32.6387 8.27028 30.8035 -32.6387 0.315401 
31.568 -31.9422 0.315401 39.7262 -25.6371 0.315401 -47.9502 -24.4805 0.315401 
-50.0138 -21.6408 0.315401 -41.8556 -24.4805 6.18498 41.5351 -24.4805 0.315401 
39.7262 -24.4805 3.74287 47.8844 -20.0705 0.315401 -52.8618 -16.3224 0.315401 
-50.0138 -16.3224 4.90762 51.5975 -16.3224 0.315401 56.0426 -9.75142 0.315401 
-56.3023 -8.16418 0.315401 56.9255 -8.16418 0.315401 56.0426 -8.16418 3.97737 
-58.0004 -0.00599657 0.315401 58.7837 -0.00599657 0.315401 -57.8391 8.15219 0.315401 
58.4097 8.15219 0.315401 56.0426 15.28 0.315401 -56.4564 16.3104 0.315401 
55.6951 16.3104 0.315401 -52.5313 24.4686 0.315401 -50.0138 27.3682 0.315401 
-50.0138 24.4686 7.25244 50.4645 24.4686 0.315401 47.8844 27.2127 0.315401 
-43.0363 32.6267 0.315401 -41.8556 33.3126 0.315401 -41.8556 32.6267 2.78167 
-33.6974 37.8323 0.315401 -25.5393 40.4269 0.315401 23.4098 40.6202 0.315401 
31.568 37.5579 0.315401 41.3744 32.6267 0.315401 39.7262 33.76 0.315401 
-24.3567 40.7849 0.315401 -17.3811 42.8314 0.315401 -9.2229 44.2179 0.315401 
-1.06472 44.6838 0.315401 7.09347 44.4427 0.315401 22.8647 40.7849 0.315401 
15.2516 42.983 0.315401 -17.3811 -36.477 8.47358 -9.2229 -38.7463 8.47358 
-1.06472 -38.9465 8.47358 7.09347 -38.692 8.47358 15.2516 -37.8141 8.47358 
23.4098 -34.4346 8.47358 -33.6974 -27.1105 8.47358 -25.1353 -32.6387 8.47358 
-25.5393 -32.3736 8.47358 -17.3811 -32.6387 11.5747 -9.2229 -32.6387 13.0384 
-1.06472 -32.6387 13.0606 7.09347 -32.6387 13.0471 15.2516 -32.6387 13.2536 
25.8004 -32.6387 8.47358 23.4098 -32.6387 10.5329 31.568 -28.5788 8.47358 
-37.9637 -24.4805 8.47358 -41.8556 -21.9829 8.47358 -33.6974 -24.4805 10.5084 
-25.5393 -24.4805 13.272 -17.3811 -24.4805 15.5778 37.5388 -24.4805 8.47358 
31.568 -24.4805 14.6083 39.7262 -23.0968 8.47358 47.8844 -17.3951 8.47358 
-47.0944 -16.3224 8.47358 -50.0138 -12.4276 8.47358 -41.8556 -16.3224 12.5703 
-33.6974 -16.3224 15.8427 49.032 -16.3224 8.47358 47.8844 -16.3224 10.4916 
-52.2867 -8.16418 8.47358 -50.0138 -8.16418 11.2157 54.9304 -8.16418 8.47358 
56.0426 -3.88553 8.47358 -54.8489 -0.00599657 8.47358 -50.0138 -0.00599657 14.4845 
56.9305 -0.00599657 8.47358 56.0426 -0.00599657 10.5171 -55.2998 8.15219 8.47358 
-50.0138 8.15219 15.578 56.7226 8.15219 8.47358 56.0426 10.571 8.47358 
56.0426 8.15219 10.1452 -54.0186 16.3104 8.47358 -50.0138 23.796 8.47358 
-50.0138 16.3104 14.4878 54.3352 16.3104 8.47358 -49.5657 24.4686 8.47358 
-41.8556 31.0806 8.47358 49.0799 24.4686 8.47358 47.8844 25.838 8.47358 
47.8844 24.4686 11.1003 -39.2383 32.6267 8.47358 -33.6974 35.5624 8.47358 
-33.6974 32.6267 14.5394 -25.5393 38.7546 8.47358 23.4098 40.3752 8.47358 
31.568 37.2996 8.47358 40.2911 32.6267 8.47358 39.7262 33.0237 8.47358 
39.7262 32.6267 9.57932 -19.1866 40.7849 8.47358 -17.3811 41.3374 8.47358 
-17.3811 40.7849 9.76166 -9.2229 43.1847 8.47358 -9.2229 40.7849 13.6889 
-1.06472 43.9978 8.47358 -1.06472 40.7849 15.5881 7.09347 43.9206 8.47358 
7.09347 40.7849 15.4997 21.9639 40.7849 8.47358 15.2516 42.6224 8.47358 
15.2516 40.7849 12.8467 -9.2229 -25.9393 16.6318 -1.06472 -26.4874 16.6318 
7.09347 -27.4556 16.6318 15.2516 -27.8193 16.6318 23.4098 -25.9339 16.6318 
-25.5393 -18.3045 16.6318 -12.6195 -24.4805 16.6318 -17.3811 -22.0621 16.6318 
-9.2229 -24.4805 17.3692 -1.06472 -24.4805 17.8129 7.09347 -24.4805 18.6547 
15.2516 -24.4805 18.6407 27.0334 -24.4805 16.6318 23.4098 -24.4805 17.6233 
[...]
POINT_DATA 510
SCALARS ImageScalars float
LOOKUP_TABLE default
0 0 0 0 0 0 0 0 0 
0 0 0 0 0 0 0 0 0 
0 0 0 0 0 0 0 0 0 
0 0 0 0 0 0 0 0 0 
0 0 0 0 0 0 0 0 0 
0 0 0 0 0 0 0 0 0 
0 0 0 0 0 0 0 0 0 
0 0 0 0 0 0 0 0 0 
0 0 0 0 0 0 0 0 0 
0 0 0 0 0 0 0 0 0 
0 0 0 0 0 0 0 0 0 
0 0 0 0 0 0 0 0 0 
0 0 0 0 0 0 0 0 0 
0 0 0 0 0 0 0 0 0 
0 0 0 0 0 0 0 0 0 
0 0 0 0 0 0 0 0 0 
0 0 0 0 0 0 0 0 0 
0 0 0 0 0 0 0 0 0 
0 0 0 0 0 0 0 0 0 
0 0 0 0 0 0 0 0 0 
0 0 0 0 0 0 0 0 0 
0 0 0 0 0 0 0 0 0 
0 0 0 0 0 0 0 0 0 
0 0 0 0 0 0 0 0 0 
0 0 0 0 0 0 0 0 0 
0 0 0 0 0 0 0 0 0 
0 0 0 0 0 0 0 0 0 
0 0 0 0 0 0 0 0 0 
0 0 0 0 0 0 0 0 0 
0 0 0 0 0 0 0 0 0 
0 0 0 0 0 0 0 0 0 
0 0 0 0 0 0 0 0 0 
0 0 0 0 0 0 0 0 0 
0 0 0 0 0 0 0 0 0 
0 0 0 0 0 0 0 0 0 
0 0 0 0 0 0 0 0 0 
0 0 0 0 0 0 0 0 0 
0 0 0 0 0 0 0 0 0 
0 0 0 0 0 0 0 0 0 
0 0 0 0 0 0 0 0 0 
0 0 0 0 0 0 0 0 0 
0 0 0 0 0 0 0 0 0 
0 0 0 0 0 0 0 0 0 
0 0 0 0 0 0 0 0 0 
0 0 0 0 0 0 0 0 0 
0 0 0 0 0 0 0 0 0 
0 0 0 0 0 0 0 0 0 
0 0 0 0 0 0 0 0 0 
0 0 0 0 0 0 0 0 0 
0 0 0 0 0 0 0 0 0 
0 0 0 0 0 0 0 0 0 
0 0 0 0 0 0 0 0 0 
0 0 0 0 0 0 0 0 0 
0 0 0 0 0 0 0 0 0 
0 0 0 0 0 0 0 0 0 
0 0 0 0 0 0 0 0 0 
0 0 0 0 0 0 
NORMALS Normals float
-0.364901 -0.593326 -0.717503 -0.0971516 -0.411751 -0.906103 0.0792494 -0.393323 -0.915979 
0.179518 -0.394753 -0.901079 0.32925 -0.502228 -0.7996 -0.403441 -0.529458 -0.746264 
-0.29906 -0.292865 -0.908181 -0.152035 -0.132805 -0.979412 -0.0178407 -0.0113496 -0.999776 
0.0522138 -0.026649 -0.99828 0.147344 0.0243221 -0.988786 0.173237 -0.109291 -0.978798 
0.327641 -0.3218 -0.888311 -0.456717 -0.383495 -0.802709 -0.177639 -0.205754 -0.962346 
-0.0852545 -0.017662 -0.996203 -0.0827358 0.115738 -0.989828 0.00740528 0.144 -0.98955 
0.125528 0.182277 -0.975201 0.0956988 0.238506 -0.966414 0.00187184 0.067394 -0.997725 
0.0346563 -0.0677788 -0.997098 0.290498 -0.327444 -0.899106 0.557631 -0.621267 -0.550523 
-0.694887 -0.226795 -0.68242 -0.277826 -0.106453 -0.954715 -0.0735935 -0.0360595 -0.996636 
0.019613 0.0433036 -0.998869 0.0123703 0.156618 -0.987582 0.0492992 0.186026 -0.981307 
0.149806 0.185187 -0.971218 0.0154369 0.151475 -0.98834 -0.137739 0.100944 -0.985311 
-0.0904364 0.0117689 -0.995833 0.0562048 -0.0979108 -0.993607 0.279736 -0.329334 -0.901824 
0.608759 -0.505861 -0.611161 -0.609897 -0.0889486 -0.787473 -0.246927 -0.0508284 -0.9677 
-0.020236 -0.0261253 -0.999454 0.102898 0.0303941 -0.994227 0.0636581 0.0465866 -0.996884 
0.031208 -0.0320225 -0.999 0.0940713 0.113193 -0.98911 0.0134607 -0.0761807 -0.997003 
-0.132757 0.04038 -0.990326 -0.166182 0.0608089 -0.984218 -0.0463063 -0.0122766 -0.998852 
0.124561 -0.106031 -0.98653 0.475243 -0.165188 -0.864209 -0.543146 -0.018267 -0.83944 
-0.205004 0.00835883 -0.978725 0.0096109 0.0104883 -0.999899 0.0929319 0.0234915 -0.995395 
-0.0498879 0.039334 -0.99798 0.0990428 0.0495115 -0.993851 0.127116 0.0469797 -0.990775 
-0.0486618 -0.0264392 -0.998465 -0.00803046 0.0524809 -0.99859 -0.138975 0.0714713 -0.987713 
-0.110113 0.075333 -0.99106 0.115098 0.0533304 -0.991922 0.410108 0.0303007 -0.911533 
-0.544315 0.0711683 -0.835856 -0.217065 0.0730267 -0.973422 -0.00681282 0.0424389 -0.999076 
0.132697 0.0623581 -0.989193 0.101428 0.152696 -0.983055 0.0366129 0.377023 -0.92548 
-0.00140225 0.0287426 -0.999586 0.0218292 0.107706 -0.993943 -0.0325059 0.117468 -0.992545 
-0.142163 0.105741 -0.984179 -0.0653086 0.157664 -0.985331 0.0946796 0.196202 -0.975982 
0.415777 0.178275 -0.891822 -0.591976 0.245785 -0.767564 -0.242027 0.194341 -0.950607 
-0.00544039 0.171064 -0.985245 0.198071 0.157964 -0.967375 0.243225 0.180647 -0.953 
-0.154813 0.190417 -0.969419 0.0303689 0.175859 -0.983947 -0.0104905 0.162948 -0.986579 
-0.100157 0.23141 -0.967687 -0.0226524 0.27718 -0.960551 0.131553 0.325865 -0.936219 
0.479993 0.430311 -0.764486 -0.320247 0.490489 -0.81047 -0.0647555 0.395338 -0.91625 
0.142013 0.301076 -0.942966 0.1664 0.193101 -0.966966 -0.0610422 0.214657 -0.97478 
0.00891978 0.245802 -0.969279 0.0523544 0.457262 -0.88779 -0.377248 -0.825761 -0.419288 
-0.194996 -0.902734 -0.383469 0.0232602 -0.914675 -0.40352 0.195565 -0.871682 -0.449361 
0.364055 -0.748174 -0.554708 -0.455721 -0.658385 -0.599038 -0.454721 -0.756418 -0.470171 
-0.457583 -0.74712 -0.482109 -0.466098 -0.796318 -0.385526 0.522238 -0.675685 -0.520305 
0.535722 -0.652396 -0.53608 0.592185 -0.780609 -0.199915 -0.502092 -0.621917 -0.600934 
-0.54677 -0.573155 -0.610357 0.594136 -0.590362 -0.546329 0.595898 -0.590897 -0.543825 
0.651379 -0.640326 -0.407048 0.558467 -0.622394 -0.548398 -0.605882 -0.470312 -0.641649 
-0.711818 -0.266376 -0.649892 -0.821701 -0.562714 -0.0903418 0.558456 -0.622241 -0.548582 
0.620151 -0.525781 -0.582209 -0.722081 -0.230649 -0.652227 0.626604 -0.511306 -0.588161 
-0.678378 -0.0984133 -0.728092 0.681976 -0.248369 -0.687911 0.900071 -0.317921 -0.297992 
-0.66032 -0.0284614 -0.750445 0.679668 -0.00743372 -0.733482 0.857469 -0.0357561 -0.513292 
-0.631203 0.0695807 -0.772491 0.0178507 0.207392 -0.978095 0.611459 0.210452 -0.762776 
0.862756 0.213592 -0.458292 -0.641375 0.246061 -0.7267 -0.605154 0.310266 -0.73316 
0.0182571 0.207128 -0.978144 0.0174624 0.207137 -0.978156 0.0178304 0.207143 -0.978148 
0.0345119 0.209609 -0.977176 -0.0252238 0.360761 -0.932317 0.252516 0.536727 -0.805084 
0.522188 0.430529 -0.736182 0.492914 0.45109 -0.744012 -0.390852 0.516366 -0.761971 
-0.68974 0.587249 -0.423554 -0.338451 0.5456 -0.766662 -0.131241 0.558436 -0.8191 
0.0259083 0.450228 -0.892538 0.0901594 0.130114 -0.987391 0.112307 0.245223 -0.96294 
-0.0436128 0.188429 -0.981118 0.0299756 0.0835647 -0.996051 -0.0558054 0.219063 -0.974114 
0.0338639 0.214128 -0.976218 0.00987167 0.269641 -0.96291 0.036073 0.211425 -0.976728 
-0.0141903 0.375232 -0.926822 -0.0232183 0.363495 -0.931307 0.114762 0.497925 -0.859593 
0.0639719 0.473544 -0.878444 0.304413 0.614188 -0.728084 0.603742 0.679007 -0.417666 
-0.479717 0.827908 -0.290585 -0.216016 0.710807 -0.669396 -0.0526618 0.563713 -0.82429 
-0.000170271 0.391301 -0.920263 0.0313049 0.298505 -0.953895 0.0230115 0.3313 -0.943245 
0.0177138 0.380876 -0.924456 0.12408 0.432185 -0.893208 0.207145 0.602826 -0.770514 
0.267755 0.744973 -0.611002 -0.146271 0.854255 -0.498852 -0.0522565 0.781468 -0.621753 
0.0201003 0.764643 -0.64414 0.124609 0.782614 -0.609908 -0.436254 -0.898027 0.0568381 
-0.330771 -0.940019 0.0833912 -0.172129 -0.977381 0.122874 -0.0202669 -0.991487 0.128622 
0.122245 -0.988884 0.0846399 0.34787 -0.936697 0.0398148 0.578409 -0.81571 -0.00768864 
-0.452814 -0.890318 0.0478845 -0.48915 -0.871872 0.0239096 -0.420778 -0.867122 0.266542 
0.605639 -0.795678 -0.00988545 0.558136 -0.809474 0.182308 0.707524 -0.706551 0.0140199 
-0.821036 -0.565476 -0.0783353 -0.612401 -0.790484 -0.00999241 -0.612455 -0.790442 -0.0100161 
0.700964 -0.713186 0.00387518 0.676346 -0.708045 0.203047 0.627195 -0.777742 -0.041753 
-0.822866 -0.56272 -0.0789752 -0.822024 -0.566349 -0.0593674 0.622865 -0.778924 -0.0729105 
0.677492 -0.725451 -0.121346 -0.935105 -0.332908 -0.12145 0.770968 -0.621122 -0.140765 
0.90293 -0.383112 -0.194787 -0.953894 -0.200421 -0.223421 0.923585 -0.324917 -0.203516 
-0.969446 -0.076331 -0.233127 0.970581 -0.0600627 -0.233161 -0.963709 0.0873956 -0.252245 
0.942465 0.200514 -0.267496 0.883488 0.375404 -0.280214 -0.921918 0.28409 -0.263364 
0.833794 0.465497 -0.296817 -0.769021 0.578278 -0.272399 -0.711047 0.646792 -0.27581 
0.420742 0.775992 -0.469906 0.630716 0.678268 -0.377028 0.611342 0.693047 -0.38203 
-0.49321 0.827789 -0.267414 -0.482996 0.833894 -0.267087 -0.332112 0.875221 -0.351696 
-0.232632 0.88901 -0.394389 0.226264 0.79079 -0.568732 0.271367 0.755306 -0.59655 
0.353764 0.783499 -0.510863 0.30194 0.785989 -0.539494 0.487221 0.834443 -0.257526 
-0.173273 0.875637 -0.450816 -0.151712 0.86842 -0.47205 -0.0595082 0.839058 -0.540778 
0.0220476 0.832512 -0.553567 0.178878 0.812224 -0.555243 0.124841 0.819781 -0.558904 
0.237521 0.868137 -0.4358 -0.294467 -0.84666 0.443232 -0.141077 -0.873743 0.465479 
-0.0167487 -0.872336 0.488619 0.0905254 -0.872804 0.479603 0.283761 -0.853838 0.436395 
-0.434509 -0.763768 0.477348 -0.352816 -0.820312 0.450122 -0.390586 -0.799846 0.455729 
-0.287211 -0.786589 0.546614 -0.117025 -0.752954 0.647584 -0.00255006 -0.730246 0.68318 
0.0721201 -0.735009 0.674211 0.459097 -0.798175 0.390059 0.252705 -0.787588 0.562001 
0.523833 -0.770219 0.363815 -0.480663 -0.749184 0.455726 -0.535052 -0.728192 0.428317 
-0.41175 -0.7017 0.581446 -0.357799 -0.596413 0.718521 0.647871 -0.703349 0.292511 
0.646787 -0.709325 0.280224 0.546176 -0.813443 0.200004 -0.69543 -0.60256 0.391533 
-0.773618 -0.525804 0.353617 -0.462096 -0.609634 0.64406 0.548582 -0.81475 0.187725 
0.523748 -0.815069 0.24769 0.653022 -0.743315 0.145073 -0.852689 -0.414903 0.317456 
-0.741988 -0.448077 0.498678 0.7457 -0.65223 0.136116 0.901387 -0.418023 0.112954 
-0.938477 -0.271026 0.214025 0.924481 -0.366019 0.106604 0.907881 -0.367499 0.201732 
-0.985638 -0.087896 0.144195 0.991939 -0.0808069 0.0976072 -0.987599 0.0888695 0.129423 
0.980193 0.181802 0.078542 0.917947 0.393896 0.0471042 -0.957268 0.265675 0.114259 
0.904433 0.424673 0.0406729 -0.806105 0.580262 0.116148 -0.729321 0.674795 0.112881 
-0.741765 0.578156 0.339884 0.767791 0.640466 -0.0173278 0.70194 0.71094 -0.0429559 
-0.522065 0.847362 0.0970848 -0.500731 0.860347 0.0952483 -0.503183 0.848633 0.163183 
-0.378016 0.922849 0.0738513 -0.289726 0.956292 0.0395443 0.310714 0.937067 -0.159257 
0.392068 0.907077 -0.153275 0.546386 0.831532 -0.100082 0.513662 0.851297 -0.106982 
-0.279983 0.959423 0.0334333 -0.225575 0.974202 -0.00681272 -0.110106 0.992077 -0.0605014 
-0.0130767 0.99503 -0.0987173 0.0996107 0.987761 -0.120025 0.305213 0.939214 -0.157231 
0.226955 0.964102 -0.137838 -0.262134 -0.640699 0.721658 -0.102411 -0.683965 0.72229 
0.00199676 -0.672716 0.739898 0.0491516 -0.672822 0.73817 0.192904 -0.717047 0.669799 
0.427232 -0.717956 0.549557 -0.345261 -0.593331 0.727154 -0.351494 -0.591907 0.725326 
-0.354524 -0.589193 0.726061 -0.237538 -0.538856 0.808214 -0.0753706 -0.532828 0.84286 
-0.000475 -0.53585 0.844313 -0.00907792 -0.577694 0.816203 0.100815 -0.633643 0.767029 
0.458016 -0.729392 0.508143 0.389553 -0.700698 0.597722 0.511666 -0.760724 0.39937 
-0.381077 -0.581303 0.718935 -0.441816 -0.557142 0.703129 -0.321683 -0.567101 0.758232 
-0.254808 -0.4678 0.846307 -0.215879 -0.394255 0.893286 0.502242 -0.796386 0.336931 
0.37032 -0.704446 0.605491 0.506928 -0.798526 0.324623 0.647435 -0.696483 0.309418 
-0.598745 -0.471771 0.647253 -0.697449 -0.404806 0.591352 -0.435835 -0.489114 0.755523 
-0.255473 -0.465865 0.847174 0.677566 -0.668384 0.306866 0.647749 -0.671204 0.360425 
-0.76532 -0.332669 0.551014 -0.685589 -0.351153 0.637699 0.866903 -0.379105 0.323664 
0.924181 -0.219466 0.312608 -0.846028 -0.168823 0.505702 -0.678403 -0.195992 0.708065 
0.948201 -0.0900808 0.304631 0.92655 -0.0972581 0.363382 -0.894438 0.046938 0.444721 
-0.678551 -0.00503508 0.734536 0.948055 0.145536 0.282862 0.937686 0.214358 0.273487 
0.933565 0.140512 0.329715 -0.864946 0.278747 0.417336 -0.742842 0.54957 0.382306 
-0.733248 0.243998 0.634675 0.887114 0.386577 0.252165 -0.724496 0.575759 0.378956 
-0.515384 0.788991 0.334474 0.747538 0.618074 0.243253 0.72426 0.647506 0.237029 
0.718479 0.615241 0.324449 -0.470415 0.8225 0.319694 -0.396834 0.858822 0.323957 
-0.388943 0.757308 0.524602 -0.323512 0.901758 0.286656 0.299445 0.933664 0.196479 
0.402913 0.894158 0.195301 0.544154 0.815292 0.197979 0.533003 0.822897 0.196846 
0.53042 0.813758 0.237596 -0.27033 0.919766 0.284521 -0.253084 0.923779 0.28737 
-0.248635 0.910436 0.330585 -0.155657 0.950557 0.268723 -0.155298 0.859851 0.486352 
-0.0438555 0.971549 0.232744 -0.0536436 0.813355 0.57929 0.0808119 0.970473 0.227272 
0.0724648 0.819452 0.568548 0.283348 0.938487 0.197374 0.207956 0.95488 0.212036 
0.197243 0.888215 0.414933 -0.108083 -0.440527 0.891209 -0.0492086 -0.510334 0.858567 
-0.0414982 -0.55849 0.828473 0.0569306 -0.524157 0.849716 0.199745 -0.547976 0.812295 
-0.191613 -0.431993 0.881287 -0.155074 -0.41314 0.897367 -0.20576 -0.394341 0.895633 
-0.119617 -0.428075 0.895792 -0.0679616 -0.51054 0.857164 -0.0427071 -0.543004 0.838643 
0.055565 -0.451912 0.89033 0.247483 -0.596365 0.763611 0.174073 -0.515524 0.839008 
0.293905 -0.645403 0.705036 0.395443 -0.663053 0.635599 -0.400198 -0.377569 0.835035 
-0.222013 -0.44525 0.867446 -0.24579 -0.436346 0.865557 -0.177942 -0.419712 0.890044 
-0.197312 -0.40582 0.8924 -0.182668 -0.376343 0.908294 -0.122889 -0.269149 0.955226 
0.0303413 -0.329205 0.943771 0.113065 -0.301983 0.946585 0.0677302 -0.342259 0.937161 
0.140975 -0.473516 0.86943 0.463893 -0.632803 0.619971 0.348691 -0.599666 0.720288 
0.619064 -0.497031 0.608045 -0.424803 -0.359085 0.831024 -0.395996 -0.356491 0.846228 
-0.212259 -0.316836 0.924425 -0.181162 -0.275718 0.944013 -0.180938 -0.263286 0.947598 
0.00558312 -0.233978 0.972226 -0.0446578 -0.0868982 0.995216 -0.0717631 -0.136987 0.98797 
0.0527823 -0.208593 0.976577 -0.00488367 -0.255273 0.966857 0.0469395 -0.29908 0.953073 
0.258571 -0.343707 0.902777 0.677561 -0.388973 0.624188 0.589257 -0.381002 0.71247 
-0.556964 -0.199544 0.806209 -0.362985 -0.203144 0.909381 -0.164571 -0.210933 0.963547 
-0.122404 -0.12966 0.983974 -0.184455 -0.0490572 0.981616 -0.0214759 -0.172214 0.984825 
0.786279 -0.123054 0.605493 0.573525 -0.145993 0.806074 -0.617705 -0.0169072 0.786228 
-0.389139 -0.0513741 0.919746 -0.139506 -0.0791647 0.987052 -0.0294552 -0.0923393 0.995292 
-0.095607 -0.0045739 0.995409 -0.113444 0.119335 0.986352 0.810781 0.112296 0.574477 
0.600453 0.0839824 0.795238 -0.635225 0.211983 0.742665 -0.420949 0.171667 0.890692 
-0.200428 0.0786936 0.976543 -0.0517748 -0.00671295 0.998636 0.0307548 0.0138163 0.999431 
0.0633355 0.105493 0.992401 0.0367443 0.153105 0.987527 -0.0507462 0.136694 0.989313 
-0.139926 0.11901 0.982984 0.294735 0.257302 0.920286 0.756241 0.362463 0.544721 
0.688889 0.489996 0.534167 0.646537 0.347366 0.67921 -0.517423 0.503366 0.692023 
-0.50213 0.526538 0.686019 -0.497782 0.493661 0.7131 -0.379717 0.680458 0.626732 
-0.315915 0.374333 0.871821 -0.0900972 0.25428 0.962925 0.0147841 0.193398 0.981009 
0.0328143 0.108306 0.993576 0.0188031 0.0451338 0.998804 -0.022395 0.048628 0.998566 
-0.042494 0.148999 0.987924 0.00186043 0.249639 0.968337 0.133159 0.412154 0.901331 
0.609362 0.58011 0.54051 0.495586 0.677227 0.543837 0.441681 0.523456 0.728637 
-0.338654 0.712086 0.615017 -0.280779 0.734295 0.618041 -0.251979 0.652343 0.714811 
-0.193399 0.735555 0.649273 -0.143865 0.530514 0.835379 -0.136841 0.737251 0.661616 
-0.0909018 0.395186 0.914093 -0.0521612 0.757515 0.65073 -0.0274532 0.325201 0.945246 
0.0661685 0.759603 0.647012 0.0497062 0.32122 0.945699 0.163848 0.741759 0.650344 
0.0897573 0.432661 0.897077 0.247503 0.738811 0.626818 0.187808 0.575786 0.795738 
0.349059 0.743553 0.570339 0.313816 0.751215 0.580685 0.303321 0.724674 0.618743 
-0.00214171 -0.119298 0.992856 -0.0756319 -0.118894 0.990022 0.0269179 -0.138649 0.989976 
-0.0230916 -0.186759 0.982134 0.0385791 -0.248861 0.967771 0.242797 -0.188429 0.951601 
-0.0761979 -0.0467348 0.995997 -0.0153423 -0.100294 0.99484 -0.102797 0.101784 0.989481 
-0.0108227 -0.0496042 0.99871 -0.0555438 -0.109949 0.992384 -0.0237866 -0.0436641 0.998763 
-0.0888314 -0.034013 0.995466 0.00558396 -0.0770424 0.997012 -0.0378502 -0.135643 0.990034 
0.0234815 -0.163657 0.986238 0.27604 -0.159316 0.94785 0.242347 -0.16074 0.956781 
-0.10611 0.115673 0.987603 -0.0069462 0.0972935 0.995232 -0.0234828 0.0769425 0.996759 
0.00509311 0.181617 0.983356 0.0148875 0.187395 0.982172 -0.0818989 0.113273 0.990183 
-0.0555871 0.110232 0.99235 -0.0957047 0.0308897 0.99493 0.0195813 0.0295806 0.999371 
0.337973 0.0569953 0.939429 0.279452 0.181425 0.942863 0.256818 0.0502026 0.965155 
-0.121705 0.152223 0.980824 -0.0965273 0.173427 0.980105 -0.115908 0.161714 0.980007 
0.20245 0.236889 0.950209 0.0682986 0.272623 0.959694 0.0428523 0.203738 0.978087 

