# vtk DataFile Version 4.2
vtk output
ASCII
DATASET POLYDATA
POINTS 526 float
-29.443 -39.0495 -13.1555 -21.7341 -39.0495 -13.6628 -14.0253 -39.0495 -13.9801 
-6.31642 -39.0495 -12.2972 1.39243 -39.0495 -12.656 -44.8607 -31.3407 -11.8175 
-37.1518 -31.3407 -16.7122 -29.443 -31.3407 -15.2373 -21.7341 -31.3407 -16.1325 
-14.0253 -31.3407 -14.6022 -6.31642 -31.3407 -14.0777 1.39243 -31.3407 -13.6187 
9.10128 -31.3407 -13.838 16.8101 -31.3407 -14.8564 24.519 -31.3407 -15.7661 
32.2278 -31.3407 -15.7204 39.9367 -31.3407 -13.7481 -52.5695 -23.6318 -12.1958 
-44.8607 -23.6318 -14.8866 -37.1518 -23.6318 -15.5753 -29.443 -23.6318 -16.5709 
-21.7341 -23.6318 -15.684 -14.0253 -23.6318 -15.0397 -6.31642 -23.6318 -13.9353 
1.39243 -23.6318 -14.0911 9.10128 -23.6318 -14.7397 16.8101 -23.6318 -16.5895 
24.519 -23.6318 -17.2007 32.2278 -23.6318 -17.1595 39.9367 -23.6318 -16.1056 
47.6455 -23.6318 -12.9729 -52.5695 -15.923 -12.6059 -44.8607 -15.923 -15.5768 
-37.1518 -15.923 -15.9874 -29.443 -15.923 -16.2859 -21.7341 -15.923 -15.5502 
-14.0253 -15.923 -14.5242 -6.31642 -15.923 -13.7936 1.39243 -15.923 -16.6529 
9.10128 -15.923 -15.6379 16.8101 -15.923 -16.191 24.519 -15.923 -17.3655 
32.2278 -15.923 -17.7637 39.9367 -15.923 -17.5835 47.6455 -15.923 -15.5189 
55.3544 -15.923 -11.9245 -44.8607 -8.21414 -14.5141 -37.1518 -8.21414 -15.764 
-29.443 -8.21414 -15.9776 -21.7341 -8.21414 -15.8829 -14.0253 -8.21414 -16.8264 
-6.31642 -8.21414 -17.7773 1.39243 -8.21414 -18.6921 9.10128 -8.21414 -16.2984 
16.8101 -8.21414 -15.8043 24.519 -8.21414 -17.3514 32.2278 -8.21414 -18.2112 
39.9367 -8.21414 -17.9731 47.6455 -8.21414 -16.3616 55.3544 -8.21414 -12.7174 
-44.8607 -0.505297 -13.7032 -37.1518 -0.505297 -14.9198 -29.443 -0.505297 -15.2189 
-21.7341 -0.505297 -15.5729 -14.0253 -0.505297 -18.5214 -6.31642 -0.505297 -15.6423 
1.39243 -0.505297 -14.8944 9.10128 -0.505297 -18.414 16.8101 -0.505297 -15.7396 
24.519 -0.505297 -17.2858 32.2278 -0.505297 -17.8555 39.9367 -0.505297 -17.8547 
47.6455 -0.505297 -16.4551 55.3544 -0.505297 -12.872 -44.8607 7.20355 -12.7669 
-37.1518 7.20355 -13.9894 -29.443 7.20355 -14.4282 -21.7341 7.20355 -14.5728 
-14.0253 7.20355 -15.7733 -6.31642 7.20355 -17.3934 1.39243 7.20355 -18.4051 
9.10128 7.20355 -17.1821 16.8101 7.20355 -15.3977 24.519 7.20355 -16.4267 
32.2278 7.20355 -17.2317 39.9367 7.20355 -17.2905 47.6455 7.20355 -15.7674 
55.3544 7.20355 -12.9484 -37.1518 14.9124 -12.7815 -29.443 14.9124 -14.1829 
-21.7341 14.9124 -14.4293 -14.0253 14.9124 -15.0535 -6.31642 14.9124 -16.1852 
1.39243 14.9124 -16.1995 9.10128 14.9124 -15.8886 16.8101 14.9124 -15.011 
24.519 14.9124 -14.8278 32.2278 14.9124 -15.3446 39.9367 14.9124 -14.3694 
47.6455 14.9124 -13.2742 -29.443 22.6212 -13.036 -21.7341 22.6212 -13.7341 
-14.0253 22.6212 -13.8446 -6.31642 22.6212 -13.2818 1.39243 22.6212 -14.0912 
9.10128 22.6212 -14.6269 16.8101 22.6212 -13.8278 24.519 22.6212 -12.7015 
32.2278 22.6212 -12.6263 -21.7341 30.3301 -11.963 -14.0253 30.3301 -12.1548 
-6.31642 30.3301 -12.0333 1.39243 30.3301 -12.2611 9.10128 30.3301 -12.4973 
-29.443 -41.1105 -11.6717 -21.7341 -43.5445 -11.6717 -14.0253 -44.5943 -11.6717 
-6.31642 -40.9193 -11.6717 -6.31642 -46.7584 -5.38481 1.39243 -41.2913 -11.6717 
-44.8607 -31.6247 -11.6717 -33.2396 -39.0495 -11.6717 -37.1518 -37.2617 -11.6717 
-37.1518 -39.0495 -8.76296 7.04452 -39.0495 -11.6717 9.10128 -37.9121 -11.6717 
9.10128 -39.0495 -11.1689 16.8101 -37.7087 -11.6717 16.8101 -39.0495 -10.7414 
24.519 -38.5522 -11.6717 24.519 -39.0495 -11.3238 32.2278 -38.0111 -11.6717 
32.2278 -39.0495 -10.565 39.9367 -34.4361 -11.6717 39.9367 -39.0495 -5.5429 
-45.1096 -31.3407 -11.6717 -52.5695 -24.6848 -11.6717 43.8916 -31.3407 -11.6717 
47.6455 -26.8294 -11.6717 47.6455 -31.3407 -7.90286 -53.1522 -23.6318 -11.6717 
49.5632 -23.6318 -11.6717 55.3544 -16.4681 -11.6717 -53.8367 -15.923 -11.6717 
-52.5695 -12.2949 -11.6717 55.6282 -15.923 -11.6717 -50.4263 -8.21414 -11.6717 
-52.5695 -8.21414 -10.3404 56.6006 -8.21414 -11.6717 -60.2783 -0.505297 -4.08264 
-49.2309 -0.505297 -11.6717 -52.5695 -0.505297 -9.81744 56.8004 -0.505297 -11.6717 
-48.656 7.20355 -11.6717 -52.5695 7.20355 -10.0349 -44.8607 11.0628 -11.6717 
56.9273 7.20355 -11.6717 55.3544 10.0234 -11.6717 -52.5695 14.9124 -6.97791 
-41.2515 14.9124 -11.6717 -44.8607 14.9124 -10.7038 -37.1518 22.1297 -11.6717 
39.9367 21.8548 -11.6717 50.5391 14.9124 -11.6717 47.6455 17.8522 -11.6717 
55.3544 14.9124 -7.68785 -44.8607 22.6212 -8.88236 -36.7436 22.6212 -11.6717 
-37.1518 22.6212 -11.5868 -29.443 28.2843 -11.6717 16.8101 29.0513 -11.6717 
24.519 25.4053 -11.6717 38.2358 22.6212 -11.6717 32.2278 24.9581 -11.6717 
39.9367 22.6212 -11.2929 47.6455 22.6212 -8.56212 -44.8607 30.3301 -4.45929 
-37.1518 30.3301 -9.45947 -24.5828 30.3301 -11.6717 -29.443 30.3301 -11.186 
-21.7341 31.0204 -11.6717 -14.0253 31.7278 -11.6717 -6.31642 31.4887 -11.6717 
1.39243 32.2312 -11.6717 14.174 30.3301 -11.6717 9.10128 32.5149 -11.6717 
16.8101 30.3301 -11.2236 24.519 30.3301 -9.72285 32.2278 30.3301 -8.47551 
39.9367 30.3301 -6.25948 -29.443 38.0389 -6.89488 -21.7341 38.0389 -8.40864 
-14.0253 38.0389 -9.42009 -6.31642 38.0389 -9.47081 1.39243 38.0389 -9.74129 
9.10128 38.0389 -9.58862 16.8101 38.0389 -7.88322 24.519 38.0389 -5.09114 
-14.0253 45.7478 -4.74871 -6.31642 45.7478 -6.15565 1.39243 45.7478 -5.0913 
9.10128 45.7478 -5.38524 -6.31642 -47.1626 -3.96284 -37.1518 -40.8995 -3.96284 
-29.443 -43.9043 -3.96284 -21.7341 -45.5659 -3.96284 -13.9494 -46.7584 -3.96284 
-14.0253 -46.7544 -3.96284 -3.40186 -46.7584 -3.96284 -6.31642 -46.7584 -2.9404 
1.39243 -45.9937 -3.96284 9.10128 -45.0899 -3.96284 16.8101 -44.5844 -3.96284 
24.519 -44.2983 -3.96284 32.2278 -43.1445 -3.96284 39.9367 -39.6847 -3.96284 
-40.9056 -39.0495 -3.96284 -44.8607 -36.8661 -3.96284 -37.1518 -39.0495 -0.663387 
-29.443 -39.0495 2.85391 40.8869 -39.0495 -3.96284 39.9367 -39.0495 -1.58948 
47.6455 -33.394 -3.96284 -51.0613 -31.3407 -3.96284 -52.5695 -29.604 -3.96284 
49.6876 -31.3407 -3.96284 47.6455 -31.3407 2.12016 -56.5856 -23.6318 -3.96284 
55.1885 -23.6318 -3.96284 55.3544 -23.3812 -3.96284 -58.8496 -15.923 -3.96284 
59.4706 -15.923 -3.96284 -60.0223 -8.21414 -3.96284 -60.2783 -2.80463 -3.96284 
61.6388 -8.21414 -3.96284 -60.3606 -0.505297 -3.96284 -60.2783 -0.187157 -3.96284 
-60.2783 -0.505297 0.314722 62.115 -0.505297 -3.96284 -57.6325 7.20355 -3.96284 
61.089 7.20355 -3.96284 -55.219 14.9124 -3.96284 -52.5695 20.5906 -3.96284 
57.485 14.9124 -3.96284 55.3544 17.9979 -3.96284 -51.0042 22.6212 -3.96284 
-52.5695 22.6212 3.08926 51.5553 22.6212 -3.96284 47.6455 26.4147 -3.96284 
-45.3412 30.3301 -3.96284 -44.8607 30.8615 -3.96284 -37.1518 37.6838 -3.96284 
32.2278 36.3753 -3.96284 42.772 30.3301 -3.96284 39.9367 32.4309 -3.96284 
-36.5171 38.0389 -3.96284 -37.1518 38.0389 -3.34741 -29.443 41.0399 -3.96284 
-21.7341 44.1277 -3.96284 16.8101 43.7788 -3.96284 28.2709 38.0389 -3.96284 
24.519 39.3442 -3.96284 32.2278 38.0389 -1.96601 -17.0579 45.7478 -3.96284 
-21.7341 45.7478 -1.05399 -14.0253 46.4899 -3.96284 -6.31642 47.9161 -3.96284 
1.39243 46.9163 -3.96284 13.0842 45.7478 -3.96284 9.10128 47.1434 -3.96284 
16.8101 45.7478 -1.50155 -21.7341 -40.3242 3.74601 -14.0253 -40.277 3.74601 
-6.31642 -42.2255 3.74601 1.39243 -42.679 3.74601 9.10128 -43.1148 3.74601 
16.8101 -43.2322 3.74601 24.519 -42.6453 3.74601 32.2278 -41.5174 3.74601 
-44.8607 -31.6034 3.74601 -37.1518 -33.8349 3.74601 -26.6747 -39.0495 3.74601 
-29.443 -37.6982 3.74601 -21.7341 -39.0495 4.7954 -14.0253 -39.0495 4.6636 
-6.31642 -39.0495 5.91417 1.39243 -39.0495 7.06586 9.10128 -39.0495 7.88217 
16.8101 -39.0495 8.45557 24.519 -39.0495 7.79518 37.152 -39.0495 3.74601 
32.2278 -39.0495 6.84959 39.9367 -36.948 3.74601 -45.2078 -31.3407 3.74601 
-52.5695 -24.1737 3.74601 -44.8607 -31.3407 3.97378 -37.1518 -31.3407 5.19132 
-29.443 -31.3407 7.08857 -21.7341 -31.3407 7.7834 -14.0253 -31.3407 8.35109 
-6.31642 -31.3407 9.64592 1.39243 -31.3407 11.3483 46.85 -31.3407 3.74601 
39.9367 -31.3407 9.4058 47.6455 -30.5302 3.74601 -52.9926 -23.6318 3.74601 
-52.5695 -23.6318 4.17101 -44.8607 -23.6318 7.70603 -37.1518 -23.6318 9.52487 
-29.443 -23.6318 10.2963 -21.7341 -23.6318 10.3711 52.7773 -23.6318 3.74601 
47.6455 -23.6318 9.14292 55.3544 -20.228 3.74601 -57.3221 -15.923 3.74601 
-52.5695 -15.923 8.2103 -44.8607 -15.923 10.6236 57.7556 -15.923 3.74601 
55.3544 -15.923 6.58151 -59.1975 -8.21414 3.74601 59.9053 -8.21414 3.74601 
55.3544 -8.21414 9.10215 -60.1891 -0.505297 3.74601 59.6269 -0.505297 3.74601 
55.3544 -0.505297 8.77267 -58.5878 7.20355 3.74601 59.4054 7.20355 3.74601 
55.3544 7.20355 8.18151 -56.6054 14.9124 3.74601 -52.5695 14.9124 9.82476 
47.6455 14.9124 10.217 56.0661 14.9124 3.74601 55.3544 16.2533 3.74601 
55.3544 14.9124 4.59128 -52.6545 22.6212 3.74601 -52.5695 22.7576 3.74601 
-52.5695 22.6212 3.91083 51.6539 22.6212 3.74601 47.6455 28.0316 3.74601 
47.6455 22.6212 8.68728 -47.3646 30.3301 3.74601 -44.8607 33.2372 3.74601 
-44.8607 30.3301 8.44292 45.6978 30.3301 3.74601 39.9367 35.4886 3.74601 
39.9367 30.3301 9.73455 -40.0347 38.0389 3.74601 -37.1518 40.3574 3.74601 
-37.1518 38.0389 9.44954 -29.443 44.8238 3.74601 24.519 45.0647 3.74601 
36.547 38.0389 3.74601 32.2278 40.91 3.74601 32.2278 38.0389 10.0009 
-26.9648 45.7478 3.74601 -21.7341 47.5385 3.74601 -21.7341 45.7478 7.86315 
-14.0253 49.7069 3.74601 -6.31642 51.3458 3.74601 1.39243 52.0189 3.74601 
9.10128 50.8031 3.74601 23.0066 45.7478 3.74601 16.8101 48.3773 3.74601 
16.8101 45.7478 11.2072 9.10128 -34.1019 11.4549 16.8101 -34.9929 11.4549 
24.519 -33.9913 11.4549 32.2278 -31.5566 11.4549 -14.0253 -23.6396 11.4549 
-6.31642 -27.3774 11.4549 1.84481 -31.3407 11.4549 1.39243 -31.0966 11.4549 
9.10128 -31.3407 13.1165 16.8101 -31.3407 13.6907 24.519 -31.3407 12.9452 
32.7874 -31.3407 11.4549 32.2278 -31.3407 11.5743 39.9367 -26.648 11.4549 
-37.1518 -18.6222 11.4549 -29.443 -20.1667 11.4549 -14.0455 -23.6318 11.4549 
[...]
POINT_DATA 526
SCALARS ImageScalars float
LOOKUP_TABLE default
0 0 0 0 0 0 0 0 0 
0 0 0 0 0 0 0 0 0 
0 0 0 0 0 0 0 0 0 
0 0 0 0 0 0 0 0 0 
0 0 0 0 0 0 0 0 0 
0 0 0 0 0 0 0 0 0 
0 0 0 0 0 0 0 0 0 
0 0 0 0 0 0 0 0 0 
0 0 0 0 0 0 0 0 0 
0 0 0 0 0 0 0 0 0 
0 0 0 0 0 0 0 0 0 
0 0 0 0 0 0 0 0 0 
0 0 0 0 0 0 0 0 0 
0 0 0 0 0 0 0 0 0 
0 0 0 0 0 0 0 0 0 
0 0 0 0 0 0 0 0 0 
0 0 0 0 0 0 0 0 0 
0 0 0 0 0 0 0 0 0 
0 0 0 0 0 0 0 0 0 
0 0 0 0 0 0 0 0 0 
0 0 0 0 0 0 0 0 0 
0 0 0 0 0 0 0 0 0 
0 0 0 0 0 0 0 0 0 
0 0 0 0 0 0 0 0 0 
0 0 0 0 0 0 0 0 0 
0 0 0 0 0 0 0 0 0 
0 0 0 0 0 0 0 0 0 
0 0 0 0 0 0 0 0 0 
0 0 0 0 0 0 0 0 0 
0 0 0 0 0 0 0 0 0 
0 0 0 0 0 0 0 0 0 
0 0 0 0 0 0 0 0 0 
0 0 0 0 0 0 0 0 0 
0 0 0 0 0 0 0 0 0 
0 0 0 0 0 0 0 0 0 
0 0 0 0 0 0 0 0 0 
0 0 0 0 0 0 0 0 0 
0 0 0 0 0 0 0 0 0 
0 0 0 0 0 0 0 0 0 
0 0 0 0 0 0 0 0 0 
0 0 0 0 0 0 0 0 0 
0 0 0 0 0 0 0 0 0 
0 0 0 0 0 0 0 0 0 
0 0 0 0 0 0 0 0 0 
0 0 0 0 0 0 0 0 0 
0 0 0 0 0 0 0 0 0 
0 0 0 0 0 0 0 0 0 
0 0 0 0 0 0 0 0 0 
0 0 0 0 0 0 0 0 0 
0 0 0 0 0 0 0 0 0 
0 0 0 0 0 0 0 0 0 
0 0 0 0 0 0 0 0 0 
0 0 0 0 0 0 0 0 0 
0 0 0 0 0 0 0 0 0 
0 0 0 0 0 0 0 0 0 
0 0 0 0 0 0 0 0 0 
0 0 0 0 0 0 0 0 0 
0 0 0 0 0 0 0 0 0 
0 0 0 0 
NORMALS Normals float
0.220773 0.497931 0.838644 0.0485755 0.390223 0.919438 -0.0788775 0.256014 0.96345 
-0.102036 0.275747 0.955799 -0.0722582 0.313003 0.946999 0.499027 0.394347 0.771662 
0.186579 0.238746 0.952989 -0.0138519 0.214816 0.976556 -0.052294 0.162788 0.985274 
-0.12128 0.0717866 0.990019 -0.0632757 0.0952728 0.993438 -0.0151527 0.0995831 0.994914 
0.0818243 0.219948 0.972074 0.115833 0.322306 0.939522 0.0600957 0.300097 0.952014 
-0.0945356 0.33205 0.938512 -0.367906 0.428656 0.825166 0.592575 0.271056 0.75854 
0.273515 0.23525 0.932656 0.112424 -0.0253161 0.993338 0.00474805 0.0539174 0.998534 
-0.109979 -0.0352754 0.993308 -0.112898 -0.00498551 0.993594 -0.0613126 -0.0165877 0.997981 
0.0510968 0.164157 0.98511 0.157665 0.119915 0.980185 0.156091 0.0897264 0.983659 
0.0358911 0.0888982 0.995394 -0.0634096 0.133198 0.989059 -0.2386 0.207677 0.948652 
-0.484761 0.349169 0.801928 0.531075 -0.0980049 0.841638 0.252121 -0.0421901 0.966776 
0.0431317 0.0130459 0.998984 -0.0279373 -0.0417099 0.998739 -0.114446 0.0134936 0.993338 
-0.108383 0.0849223 0.990475 0.116237 0.215826 0.969489 0.0936225 0.312154 0.945407 
-0.0185341 0.0982578 0.994988 0.115056 -0.0495861 0.992121 0.101468 0.00955071 0.994793 
0.0147883 0.0709575 0.99737 -0.149295 0.119431 0.981553 -0.338746 0.179618 0.923574 
-0.652876 0.25302 0.713956 0.296837 -0.108864 0.948702 0.104516 -0.068905 0.992133 
0.00659475 -0.068147 0.997653 0.0403453 0.00132934 0.999185 0.127476 0.272202 0.953759 
0.112499 0.116556 0.986792 -0.103859 -0.0556829 0.993032 -0.176549 0.166835 0.97005 
0.0743726 -0.030113 0.996776 0.14971 -0.00486993 0.988718 0.0395648 0.00597859 0.999199 
-0.112468 0.0157154 0.993531 -0.295216 0.0600017 0.953545 -0.597075 0.0592277 0.799996 
0.284574 -0.10553 0.952828 0.10633 -0.112686 0.987925 0.0414056 -0.100906 0.994034 
0.182386 -0.0880659 0.979275 0.0487786 -0.0900355 0.994743 -0.226843 -0.00310674 0.973926 
0.19918 -0.0163828 0.979826 -0.0329846 0.0631128 0.997461 -0.0456982 -0.0260951 0.998614 
0.14038 -0.059228 0.988325 0.0353531 -0.0645609 0.997287 -0.0860596 -0.042116 0.995399 
-0.268073 -0.0387367 0.962619 -0.580132 0.0133824 0.814413 0.234343 -0.201726 0.950994 
0.0989763 -0.135897 0.985766 0.0370309 -0.0673291 0.997043 0.0815557 -0.0735446 0.993952 
0.180846 -0.194696 0.964048 0.16641 0.018529 0.985883 -0.00378704 0.0122205 0.999918 
-0.205408 -0.162994 0.965008 -0.0307856 -0.0472811 0.998407 0.118617 -0.153982 0.980928 
0.0541446 -0.166384 0.984573 -0.0940139 -0.212103 0.972715 -0.269071 -0.171302 0.947764 
-0.577641 -0.213862 0.787778 0.213894 -0.138493 0.96699 0.101399 -0.084754 0.991229 
0.0561572 -0.0533812 0.996994 0.107865 -0.120561 0.986828 0.0772091 -0.271713 0.959276 
-0.0197978 -0.26857 0.963057 -0.0744186 -0.147665 0.986234 -0.0675009 -0.0988285 0.992812 
0.0225111 -0.228044 0.973391 -0.0256927 -0.298039 0.954208 -0.121693 -0.338924 0.93291 
-0.317162 -0.424818 0.847902 0.123774 -0.184459 0.975015 0.0497731 -0.153061 0.986962 
-0.0284161 -0.181139 0.983047 0.0147578 -0.243944 0.969677 0.084915 -0.241434 0.966695 
-0.0161697 -0.21399 0.976702 -0.118659 -0.232172 0.96541 -0.0761695 -0.310777 0.947426 
-0.0701871 -0.378807 0.92281 0.0582565 -0.308882 0.949314 0.00440414 -0.27326 0.96193 
0.00681765 -0.230316 0.973092 0.0290681 -0.263999 0.964085 -0.0617775 -0.311458 0.94825 
0.302672 0.636239 0.709641 0.127479 0.673447 0.728161 -0.0447676 0.679885 0.731951 
-0.110052 0.39106 0.913762 -0.0587667 0.996058 0.0664425 -0.10299 0.467057 0.878209 
0.503336 0.403031 0.764342 0.307374 0.637643 0.706351 0.312767 0.671422 0.67184 
0.394754 0.84424 0.36253 -0.104144 0.405261 0.908249 -0.0860574 0.403334 0.910997 
-0.116096 0.464444 0.87796 0.0218461 0.545406 0.837887 0.00421684 0.627826 0.778342 
0.00670795 0.613246 0.789863 -0.00153836 0.649869 0.760044 -0.133502 0.683742 0.717408 
-0.160615 0.761504 0.627945 -0.410021 0.559392 0.720391 -0.51089 0.841758 0.174455 
0.510788 0.401652 0.760113 0.618465 0.339449 0.708714 -0.500813 0.491796 0.712266 
-0.536137 0.432901 0.724675 -0.682712 0.627861 0.373757 0.615005 0.296406 0.730693 
-0.549771 0.396518 0.735204 -0.661404 0.267859 0.700568 0.604041 -0.0764631 0.793277 
0.534035 -0.14046 0.833713 -0.668052 0.255235 0.698972 0.465376 -0.142529 0.873562 
0.569233 -0.150548 0.808275 -0.635975 0.0672522 0.768773 0.919198 -0.123359 0.373975 
0.404389 -0.051687 0.913125 0.542589 -0.0231815 0.839678 -0.614647 0.0159724 0.788641 
0.380756 -0.174255 0.908108 0.576379 -0.149627 0.803367 0.269612 -0.201553 0.94164 
-0.640018 -0.218883 0.736524 -0.594592 -0.319267 0.737922 0.673389 -0.363832 0.643563 
0.268063 -0.164784 0.949204 0.331953 -0.201168 0.921596 0.226347 -0.180009 0.957269 
-0.211176 -0.47396 0.854849 -0.435255 -0.466782 0.76985 -0.356989 -0.492435 0.793768 
-0.711997 -0.542147 0.446248 0.480671 -0.36276 0.798348 0.220855 -0.183762 0.957839 
0.228935 -0.185247 0.955653 0.120629 -0.271361 0.954888 -0.155641 -0.32804 0.931754 
-0.0898017 -0.338714 0.936594 -0.184374 -0.464667 0.866078 -0.105997 -0.434684 0.894323 
-0.223123 -0.494216 0.840218 -0.473091 -0.623378 0.622563 0.630283 -0.564184 0.533329 
0.375374 -0.421355 0.825563 0.0797735 -0.306401 0.948554 0.126234 -0.311988 0.941663 
0.0608067 -0.324772 0.943836 0.014017 -0.30163 0.953322 0.00948209 -0.251338 0.967853 
0.0213751 -0.290341 0.956684 -0.12829 -0.335799 0.933156 -0.0732665 -0.34079 0.93728 
-0.163557 -0.348478 0.922936 -0.147775 -0.404055 0.902719 -0.1939 -0.563312 0.80317 
-0.409812 -0.6383 0.651634 0.25238 -0.641928 0.724039 0.128734 -0.520484 0.844112 
0.0607877 -0.432526 0.89957 0.0197731 -0.36804 0.9296 0.00618889 -0.389033 0.921203 
-0.103289 -0.411889 0.905361 -0.244408 -0.485979 0.8391 -0.280262 -0.596398 0.752172 
0.191005 -0.724567 0.662208 0.0282772 -0.611885 0.790441 -0.0469661 -0.634127 0.771801 
-0.136029 -0.676896 0.7234 -0.043352 0.997984 -0.0463474 0.425459 0.903092 -0.0583899 
0.300117 0.929561 -0.214119 0.180226 0.95843 -0.221202 0.0984467 0.980238 -0.171585 
0.0997879 0.979916 -0.172649 -0.0771433 0.996053 -0.0438949 -0.0321694 0.990204 -0.135874 
-0.140196 0.990076 -0.00971327 -0.0881666 0.986854 0.135445 -0.0520365 0.976281 0.210162 
-0.0949358 0.983705 0.152679 -0.280164 0.948573 0.147372 -0.513002 0.856234 0.0607672 
0.48033 0.867254 -0.130973 0.538239 0.833363 -0.125713 0.455301 0.784042 -0.421875 
0.230034 0.651545 -0.722893 -0.539993 0.839517 0.0601581 -0.536799 0.838247 -0.0958574 
-0.711867 0.69928 0.0652136 0.732765 0.679401 -0.038338 0.791591 0.609641 -0.0414905 
-0.746883 0.661544 0.0672717 -0.668516 0.642872 -0.373902 0.914952 0.401852 0.0371046 
-0.842256 0.531589 0.0895401 -0.845249 0.526865 0.089256 0.954177 0.221411 0.201306 
-0.920123 0.375535 0.111115 0.945747 0.0869892 0.313043 0.934482 -0.058863 0.351112 
-0.977871 0.173194 0.117358 0.92325 -0.122273 0.364224 0.920407 -0.13074 0.368453 
0.995289 -0.0840997 -0.0482461 -0.994928 -0.030806 0.0957589 0.859762 -0.291645 0.419228 
-0.945619 -0.302492 0.119597 0.839709 -0.346995 0.417713 0.748906 -0.479185 0.457736 
-0.834205 -0.525635 0.166763 -0.784413 -0.583971 0.208983 0.708552 -0.526314 0.470051 
0.842518 -0.523247 -0.127968 -0.683475 -0.663145 0.305123 -0.59005 -0.706007 0.391657 
0.649285 -0.574825 0.498001 0.640814 -0.583216 0.499215 0.477936 -0.688164 0.545901 
-0.341267 -0.667294 0.662009 -0.494957 -0.706858 0.50534 -0.462157 -0.708316 0.533572 
0.461076 -0.69724 0.548877 0.493864 -0.712025 0.499118 0.316226 -0.74709 0.584687 
0.241554 -0.746227 0.62032 -0.332785 -0.662609 0.670972 -0.325767 -0.647829 0.688617 
-0.308351 -0.618792 0.722507 -0.429466 -0.754119 0.496854 0.216983 -0.759276 0.613529 
0.28369 -0.88917 0.359023 0.196085 -0.76175 0.617485 0.0396852 -0.762224 0.646096 
-0.0483086 -0.691959 0.720319 -0.24061 -0.716969 0.654265 -0.142685 -0.757269 0.637326 
-0.364525 -0.80196 0.473267 0.102413 0.608596 -0.786843 0.0748973 0.550052 -0.831765 
0.103506 0.601687 -0.791997 0.0456804 0.772251 -0.633673 0.0289992 0.863048 -0.504289 
-0.0265532 0.899505 -0.436103 -0.108727 0.879192 -0.463896 -0.285018 0.844377 -0.453644 
0.354566 0.575118 -0.73724 0.239883 0.520819 -0.81927 0.164062 0.595356 -0.786534 
0.207445 0.577797 -0.789378 0.0916947 0.552013 -0.828778 0.0616246 0.497737 -0.865136 
0.124861 0.520423 -0.84473 0.113644 0.632052 -0.766548 0.0738853 0.691869 -0.718232 
-0.00182239 0.714228 -0.699911 -0.084128 0.723985 -0.684667 -0.442999 0.763082 -0.470593 
-0.26709 0.720379 -0.640091 -0.519104 0.709462 -0.47665 0.366286 0.571292 -0.73448 
0.564294 0.552965 -0.613027 0.350801 0.567865 -0.744626 0.183807 0.534576 -0.82489 
0.139833 0.437309 -0.888374 0.0707198 0.360383 -0.93012 0.114557 0.370184 -0.921868 
0.178207 0.419692 -0.89 0.207999 0.415273 -0.885599 -0.618441 0.614552 -0.489752 
-0.413365 0.510763 -0.753824 -0.63489 0.599994 -0.486745 0.579321 0.546028 -0.605178 
0.553171 0.545241 -0.629852 0.315176 0.455744 -0.832443 0.133549 0.392339 -0.910074 
0.0536572 0.337396 -0.939832 0.0696221 0.345586 -0.935801 -0.719388 0.519535 -0.461046 
-0.544445 0.412408 -0.73041 -0.751551 0.467081 -0.46584 0.859663 0.329538 -0.390364 
0.488256 0.37788 -0.786646 0.252277 0.294143 -0.921866 -0.815289 0.370703 -0.444841 
-0.695721 0.373022 -0.613862 0.888609 0.171229 -0.425505 -0.881693 0.116803 -0.457138 
-0.639076 0.113175 -0.760772 0.927244 -0.042329 -0.372057 -0.829753 -0.0325812 -0.557178 
-0.650775 -0.049019 -0.757687 0.940581 -0.210627 -0.266351 -0.845983 -0.210959 -0.489703 
-0.685443 -0.21359 -0.696094 0.910038 -0.35699 -0.210688 0.6748 -0.285591 -0.680502 
-0.517173 -0.159066 -0.84097 -0.798 -0.417223 -0.43488 -0.790849 -0.440998 -0.424357 
-0.769022 -0.413618 -0.487365 0.839597 -0.513749 -0.176463 0.838799 -0.515373 -0.175519 
0.837651 -0.513154 -0.187119 -0.79417 -0.524996 -0.30606 -0.766311 -0.619889 -0.168832 
-0.673506 -0.329648 -0.661606 0.786692 -0.607445 -0.110118 0.74726 -0.658504 -0.0892962 
0.708956 -0.519215 -0.477281 -0.728952 -0.672632 -0.127263 -0.633852 -0.773274 -0.0166986 
-0.611202 -0.470879 -0.636164 0.648622 -0.75999 -0.0412924 0.584114 -0.811174 -0.0284044 
0.547615 -0.678638 -0.489458 0.422832 -0.906106 0.0136175 -0.438318 -0.884876 0.15771 
-0.582541 -0.811409 0.0475595 -0.524637 -0.848837 0.0650507 -0.508014 -0.708228 -0.49024 
0.379519 -0.925175 0.00409559 0.303085 -0.952903 -0.0107577 0.279334 -0.907647 -0.313289 
0.241331 -0.969671 0.0386855 0.150191 -0.985433 0.0797799 -0.0341936 -0.991608 0.12468 
-0.229312 -0.968622 0.0958511 -0.426215 -0.893295 0.142709 -0.353103 -0.931301 0.0894183 
-0.283932 -0.784693 -0.551035 0.116305 0.504091 -0.855784 -0.00117037 0.532995 -0.846118 
-0.109541 0.484325 -0.868004 -0.181182 0.415107 -0.891549 0.177455 0.427917 -0.886226 
0.182193 0.417475 -0.890236 0.203661 0.415228 -0.886627 0.206721 0.410938 -0.887917 
0.133245 0.431019 -0.892451 -0.00981335 0.414422 -0.910032 -0.116725 0.397852 -0.909994 
-0.19475 0.414347 -0.889038 -0.18005 0.409209 -0.8945 -0.319666 0.346547 -0.881884 
0.130628 0.313434 -0.940582 0.0476539 0.299333 -0.952958 0.17722 0.427779 -0.88634 
0.100215 0.31846 -0.942624 0.177513 0.428021 -0.886164 0.178575 0.429617 -0.885178 
0.151762 0.31506 -0.936859 0.0825771 0.260021 -0.962066 -0.0311452 0.189368 -0.981412 
-0.112129 0.219777 -0.969085 -0.166246 0.251659 -0.953431 -0.356855 0.307412 -0.882129 
-0.277697 0.267256 -0.922745 -0.423732 0.196449 -0.884228 0.489824 0.251205 -0.834846 
0.198538 0.281617 -0.938762 0.226785 0.279262 -0.93305 0.137142 0.277611 -0.950854 
0.0476025 0.259439 -0.964586 0.158215 0.27419 -0.948572 0.230925 0.286431 -0.929855 
0.0538815 0.204954 -0.977287 0.0325114 0.187018 -0.981818 0.019646 0.152049 -0.988178 
-0.0545691 0.0542363 -0.997036 -0.0579876 0.0912328 -0.99414 -0.141018 0.132001 -0.981167 
-0.262116 0.158642 -0.951908 -0.423039 0.191814 -0.885576 -0.420229 0.190104 -0.887281 
0.493139 0.24828 -0.833769 0.491277 0.248757 -0.834725 0.197723 0.235792 -0.951477 
0.0561651 0.205377 -0.97707 0.0489903 0.202454 -0.978066 0.125483 0.17837 -0.975929 
0.123027 0.124058 -0.984619 0.0814763 0.112221 -0.990337 0.10327 0.167106 -0.980516 
-0.0679801 0.0960953 -0.993048 -0.0932313 -0.0351129 -0.995025 -0.0302254 -0.0313758 -0.999051 
-0.101209 -0.0128139 -0.994783 -0.203941 0.0344029 -0.978378 -0.445224 0.0964739 -0.890207 
-0.349504 0.0683342 -0.93444 0.56591 0.035343 -0.823709 0.503654 0.0423264 -0.862868 
0.21299 0.0552246 -0.975492 0.128232 0.124643 -0.98388 0.0315584 0.149054 -0.988325 
0.101155 0.170971 -0.98007 0.15997 0.115279 -0.980367 0.0822829 0.0648972 -0.994494 
0.0122143 -0.0299975 -0.999475 -0.176567 -0.0289429 -0.983863 -0.17325 -0.0956934 -0.980218 
-0.0361656 -0.114698 -0.992742 -0.0764685 -0.102767 -0.991762 -0.181044 -0.0869258 -0.979626 
-0.44023 -0.065831 -0.895468 -0.332855 -0.0752814 -0.939968 0.598169 -0.128816 -0.790949 
0.589788 -0.179381 -0.787383 0.565276 -0.122899 -0.815695 0.274292 -0.0280033 -0.961239 
0.156821 0.0431026 -0.986686 0.0950606 0.114394 -0.988877 0.0896299 0.139376 -0.986175 
0.0208541 0.0381302 -0.999055 -0.0484313 -0.0439185 -0.99786 -0.00324423 -0.0603458 -0.998172 
-0.14136 -0.1077 -0.984082 -0.167297 -0.00804669 -0.985874 -0.0375117 -0.0245376 -0.998995 
-0.0751919 -0.0299847 -0.996718 -0.180818 -0.0435987 -0.98255 -0.344951 -0.156693 -0.925449 
-0.354211 -0.144302 -0.923965 -0.312413 -0.14927 -0.938145 0.52934 -0.237466 -0.814499 
0.355304 -0.129089 -0.925794 0.266718 -0.032332 -0.963232 0.122704 0.0437794 -0.991477 
0.0283182 0.0637581 -0.997564 -0.0270912 0.016793 -0.999492 -0.0203291 0.0441585 -0.998818 
-0.0496612 0.0525345 -0.997384 -0.113147 -0.00342755 -0.993572 -0.0996124 0.117739 -0.988036 
-0.056846 0.104545 -0.992894 -0.112811 0.0285318 -0.993207 -0.440772 -0.0992138 -0.892119 
-0.290055 -0.0356281 -0.956346 0.542882 -0.278224 -0.792383 0.550713 -0.303449 -0.777582 
0.511783 -0.250784 -0.821697 0.304008 -0.162662 -0.93868 0.18477 -0.0703672 -0.980259 
0.0610934 -0.0477159 -0.996991 0.000630951 0.00804393 -0.999967 -0.0116508 0.0221193 -0.999687 
-0.0528807 0.0227914 -0.998341 -0.0731612 0.047208 -0.996202 -0.0654114 0.0679194 -0.995544 
-0.122267 0.0867356 -0.9887 -0.22888 -0.0262029 -0.973102 -0.462581 -0.239249 -0.853685 
-0.482382 -0.336082 -0.808923 -0.338602 -0.209305 -0.917355 0.545713 -0.375496 -0.749133 
0.480609 -0.534323 -0.695351 0.401822 -0.283525 -0.87072 0.233219 -0.258845 -0.937341 
0.107175 -0.180067 -0.977798 0.0431214 -0.0730621 -0.996395 -0.0050469 -0.10007 -0.994968 
-0.0273103 -0.0710985 -0.997095 -0.0645353 -0.0575657 -0.996254 -0.0590205 -0.0600368 -0.99645 
-0.164204 -0.146629 -0.975468 -0.533984 -0.357908 -0.766005 -0.473545 -0.599518 -0.645239 
-0.361306 -0.207255 -0.909122 0.448725 -0.57677 -0.682629 0.355172 -0.614059 -0.704829 
0.324725 -0.493417 -0.806904 0.234335 -0.730684 -0.641239 0.231766 -0.393041 -0.889833 
0.0821432 -0.361805 -0.928628 0.0135061 -0.259685 -0.965599 -0.0127766 -0.243695 -0.969768 
-0.0724953 -0.26196 -0.962352 -0.277137 -0.767336 -0.578264 -0.187292 -0.306023 -0.933419 
-0.455216 -0.622394 -0.636714 -0.359224 -0.704156 -0.612472 -0.280408 -0.431925 -0.857212 
0.25434 -0.712202 -0.654278 0.262621 -0.692816 -0.671592 0.245731 -0.66547 -0.704816 
0.157334 -0.744739 -0.648544 0.131674 -0.587622 -0.79835 -0.0252147 -0.744164 -0.667521 
-0.0274681 -0.563252 -0.825829 -0.274203 -0.768521 -0.578091 -0.207985 -0.732056 -0.648719 
-0.144113 -0.610804 -0.778556 
