# vtk DataFile Version 4.2
vtk output
ASCII
DATASET POLYDATA
POINTS 606 float
49.6941 -6.12963 -17.6729 -20.3143 -45.0232 -10.0992 -12.5356 -45.0232 -11.481 
-4.75692 -45.0232 -12.5781 3.02179 -45.0232 -12.6299 10.8005 -45.0232 -12.0239 
18.5792 -45.0232 -10.485 26.3579 -45.0232 -9.83423 -35.8718 -37.2445 -10.5466 
-28.0931 -37.2445 -12.6138 -20.3143 -37.2445 -14.1499 -12.5356 -37.2445 -15.0677 
-4.75692 -37.2445 -15.4085 3.02179 -37.2445 -14.8412 10.8005 -37.2445 -14.2991 
18.5792 -37.2445 -13.8964 26.3579 -37.2445 -14.1518 34.1366 -37.2445 -11.533 
-43.6505 -29.4658 -10.4796 -35.8718 -29.4658 -14.4105 -28.0931 -29.4658 -14.7839 
-20.3143 -29.4658 -15.5744 -12.5356 -29.4658 -15.7921 -4.75692 -29.4658 -15.9445 
3.02179 -29.4658 -15.0946 10.8005 -29.4658 -14.789 18.5792 -29.4658 -15.082 
26.3579 -29.4658 -15.4399 34.1366 -29.4658 -14.748 41.9154 -29.4658 -12.761 
-51.4292 -21.687 -11.6373 -43.6505 -21.687 -14.389 -35.8718 -21.687 -14.985 
-28.0931 -21.687 -15.591 -20.3143 -21.687 -15.8932 -12.5356 -21.687 -15.5186 
-4.75692 -21.687 -15.1711 3.02179 -21.687 -14.3137 10.8005 -21.687 -14.2437 
18.5792 -21.687 -15.4873 26.3579 -21.687 -15.7689 34.1366 -21.687 -16.1367 
41.9154 -21.687 -15.059 49.6941 -21.687 -12.5736 -51.4292 -13.9083 -12.8137 
-43.6505 -13.9083 -14.7362 -35.8718 -13.9083 -16.134 -28.0931 -13.9083 -15.8168 
-20.3143 -13.9083 -15.2609 -12.5356 -13.9083 -14.6545 -4.75692 -13.9083 -14.2319 
3.02179 -13.9083 -12.8228 10.8005 -13.9083 -13.0889 18.5792 -13.9083 -14.5121 
26.3579 -13.9083 -15.5029 34.1366 -13.9083 -16.016 41.9154 -13.9083 -15.8388 
49.6941 -7.30466 -17.4381 49.6941 -13.9083 -15.3104 57.4728 -13.9083 -11.9689 
-59.2079 -6.12963 -11.2941 -51.4292 -6.12963 -14.3594 -43.6505 -6.12963 -15.4887 
-35.8718 -6.12963 -15.9136 -28.0931 -6.12963 -15.7178 -20.3143 -6.12963 -14.7117 
-12.5356 -6.12963 -14.5374 -4.75692 -6.12963 -15.2391 3.02179 -6.12963 -14.9695 
10.8005 -6.12963 -13.5007 18.5792 -6.12963 -13.052 26.3579 -6.12963 -14.5873 
34.1366 -6.12963 -15.7104 48.1423 -6.12963 -17.4381 41.9154 -6.12963 -16.1761 
50.306 -6.12963 -17.4381 49.6941 1.38867 -17.4381 57.4728 -6.12963 -14.3107 
-59.2079 1.64909 -11.8188 -51.4292 1.64909 -14.8716 -43.6505 1.64909 -15.7957 
-35.8718 1.64909 -16.0658 -28.0931 1.64909 -15.7442 -20.3143 1.64909 -14.2678 
-12.5356 1.64909 -13.9284 -4.75692 1.64909 -16.1871 3.02179 1.64909 -10.6571 
10.8005 1.64909 -15.1446 18.5792 1.64909 -12.5517 26.3579 1.64909 -14.268 
34.1366 1.64909 -15.3221 41.9154 1.64909 -15.7611 49.6941 1.64909 -17.4253 
57.4728 1.64909 -12.477 -59.2079 9.4278 -10.7418 -51.4292 9.4278 -14.1988 
-43.6505 9.4278 -15.6285 -35.8718 9.4278 -16.1693 -28.0931 9.4278 -15.9238 
-20.3143 9.4278 -14.5316 -12.5356 9.4278 -12.4259 -4.75692 9.4278 -15.278 
3.02179 9.4278 -12.8932 10.8005 9.4278 -12.3151 18.5792 9.4278 -12.9979 
26.3579 9.4278 -14.4896 34.1366 9.4278 -15.1853 41.9154 9.4278 -15.3463 
49.6941 9.4278 -15.9534 57.4728 9.4278 -13.7565 -51.4292 17.2065 -12.0813 
-43.6505 17.2065 -15.0489 -35.8718 17.2065 -16.284 -28.0931 17.2065 -15.7136 
-20.3143 17.2065 -14.6935 -12.5356 17.2065 -12.8064 -4.75692 17.2065 -12.2524 
3.02179 17.2065 -12.126 10.8005 17.2065 -11.0578 18.5792 17.2065 -12.5138 
26.3579 17.2065 -13.9435 34.1366 17.2065 -14.796 41.9154 17.2065 -14.8368 
49.6941 17.2065 -14.2128 57.4728 17.2065 -12.3812 -51.4292 24.9852 -9.97073 
-43.6505 24.9852 -13.4032 -35.8718 24.9852 -14.7052 -28.0931 24.9852 -15.4738 
-20.3143 24.9852 -14.234 -12.5356 24.9852 -13.1954 -4.75692 24.9852 -12.6741 
3.02179 24.9852 -11.6695 10.8005 24.9852 -10.278 18.5792 24.9852 -10.8987 
26.3579 24.9852 -12.4424 34.1366 24.9852 -13.4815 41.9154 24.9852 -13.7221 
49.6941 24.9852 -11.7469 -43.6505 32.7639 -10.4345 -35.8718 32.7639 -12.7074 
-28.0931 32.7639 -14.4789 -20.3143 32.7639 -13.2252 -12.5356 32.7639 -12.5144 
-4.75692 32.7639 -11.8139 3.02179 32.7639 -10.1611 26.3579 32.7639 -9.86396 
34.1366 32.7639 -11.5922 41.9154 32.7639 -11.5886 -20.3143 40.5426 -9.89293 
-12.5356 40.5426 -9.74628 -20.3143 -45.454 -9.65934 -12.5356 -46.8571 -9.65934 
-4.75692 -48.391 -9.65934 3.02179 -48.7729 -9.65934 3.02179 -52.8019 -2.61967 
10.8005 -47.9536 -9.65934 10.8005 -52.8019 -1.95642 18.5792 -46.0339 -9.65934 
26.3579 -45.2171 -9.65934 -35.8718 -38.2556 -9.65934 -21.4408 -45.0232 -9.65934 
-28.0931 -41.2411 -9.65934 26.7808 -45.0232 -9.65934 34.1366 -39.9769 -9.65934 
-37.439 -37.2445 -9.65934 -43.6505 -30.7976 -9.65934 38.8626 -37.2445 -9.65934 
41.9154 -35.0687 -9.65934 41.9154 -37.2445 -6.10181 -45.2701 -29.4658 -9.65934 
-51.4292 -25.1746 -9.65934 -51.4292 -29.4658 -3.73259 47.9462 -29.4658 -9.65934 
49.6941 -27.664 -9.65934 49.6941 -29.4658 -7.11779 -54.4391 -21.687 -9.65934 
-59.2079 -21.687 -2.89977 54.5406 -21.687 -9.65934 57.4728 -18.7767 -9.65934 
57.4728 -21.687 -4.01242 -58.7613 -13.9083 -9.65934 -59.2079 -13.2202 -9.65934 
-59.2079 -13.9083 -9.40478 60.3442 -13.9083 -9.65934 -61.3946 -6.12963 -9.65934 
63.2409 -6.12963 -9.65934 65.2515 -6.12963 -5.282 -62.15 1.64909 -9.65934 
-66.9866 1.64909 -3.18624 63.113 1.64909 -9.65934 65.2515 1.64909 -7.56683 
-60.5706 9.4278 -9.65934 -59.2079 12.4176 -9.65934 63.6785 9.4278 -9.65934 
65.2515 9.4278 -7.11703 -55.6871 17.2065 -9.65934 -59.2079 17.2065 -6.56782 
61.3272 17.2065 -9.65934 57.4728 24.3371 -9.65934 65.2515 17.2065 -3.9735 
-51.8514 24.9852 -9.65934 -51.4292 25.4708 -9.65934 10.8005 27.5493 -9.65934 
18.5792 28.8356 -9.65934 56.4292 24.9852 -9.65934 49.6941 30.5016 -9.65934 
57.4728 24.9852 -9.23037 -44.772 32.7639 -9.65934 -43.6505 33.7912 -9.65934 
-35.8718 38.0424 -9.65934 -28.0931 40.3744 -9.65934 -4.75692 38.2944 -9.65934 
5.09372 32.7639 -9.65934 3.02179 34.0469 -9.65934 10.8005 32.7639 -8.40745 
25.2706 32.7639 -9.65934 18.5792 32.7639 -8.34235 26.3579 33.0456 -9.65934 
34.1366 35.6541 -9.65934 47.6706 32.7639 -9.65934 41.9154 37.5885 -9.65934 
49.6941 32.7639 -8.62101 57.4728 32.7639 -3.3605 -35.8718 40.5426 -7.494 
-25.6634 40.5426 -9.65934 -28.0931 40.5426 -9.55051 -20.3143 40.8901 -9.65934 
-11.9074 40.5426 -9.65934 -12.5356 40.6712 -9.65934 -4.75692 40.5426 -8.61325 
3.02179 40.5426 -6.92096 10.8005 40.5426 -4.13601 18.5792 40.5426 -3.17001 
26.3579 40.5426 -3.43514 34.1366 40.5426 -4.7017 41.9154 40.5426 -3.83303 
-20.3143 48.3214 -2.43151 -12.5356 48.3214 -2.47407 3.02179 -53.059 -1.88063 
10.8005 -52.8314 -1.88063 -20.3143 -48.062 -1.88063 -12.5356 -50.3881 -1.88063 
0.849276 -52.8019 -1.88063 -4.75692 -52.133 -1.88063 3.02179 -52.8019 -0.485815 
10.9551 -52.8019 -1.88063 10.8005 -52.8019 -1.74959 18.5792 -51.2851 -1.88063 
26.3579 -48.775 -1.88063 -35.8718 -41.2854 -1.88063 -27.5736 -45.0232 -1.88063 
-28.0931 -44.8101 -1.88063 -20.3143 -45.0232 4.45707 33.1763 -45.0232 -1.88063 
26.3579 -45.0232 4.58961 34.1366 -44.4419 -1.88063 41.9154 -38.6593 -1.88063 
-51.4292 -30.5271 -1.88063 -42.6984 -37.2445 -1.88063 -43.6505 -36.6417 -1.88063 
-35.8718 -37.2445 5.52868 43.5731 -37.2445 -1.88063 41.9154 -37.2445 1.03244 
49.6941 -31.4869 -1.88063 -52.6084 -29.4658 -1.88063 -59.2079 -22.4643 -1.88063 
-51.4292 -29.4658 2.06758 51.8231 -29.4658 -1.88063 49.6941 -29.4658 1.35991 
57.4728 -22.6337 -1.88063 -59.7985 -21.687 -1.88063 -59.2079 -21.687 2.93775 
58.2258 -21.687 -1.88063 57.4728 -21.687 -0.670972 -65.0305 -13.9083 -1.88063 
63.0461 -13.9083 -1.88063 65.2515 -9.63138 -1.88063 -66.9721 -6.12963 -1.88063 
-66.9866 -5.98553 -1.88063 -66.9866 -6.12963 -0.575903 66.7364 -6.12963 -1.88063 
65.2515 -6.12963 1.06988 -67.7633 1.64909 -1.88063 -66.9866 5.35889 -1.88063 
67.7342 1.64909 -1.88063 65.2515 1.64909 3.38906 -66.1347 9.4278 -1.88063 
68.0976 9.4278 -1.88063 65.2515 9.4278 4.59719 -62.1894 17.2065 -1.88063 
-59.2079 22.3271 -1.88063 66.5204 17.2065 -1.88063 65.2515 20.8667 -1.88063 
65.2515 17.2065 1.08387 -57.3024 24.9852 -1.88063 -51.4292 31.1118 -1.88063 
63.594 24.9852 -1.88063 -49.894 32.7639 -1.88063 -43.6505 38.6161 -1.88063 
49.6941 38.97 -1.88063 58.4791 32.7639 -1.88063 57.4728 33.7795 -1.88063 
-41.0708 40.5426 -1.88063 -35.8718 43.9462 -1.88063 -28.0931 47.1951 -1.88063 
-4.75692 47.5848 -1.88063 3.02179 45.7673 -1.88063 10.8005 42.7476 -1.88063 
18.5792 41.8632 -1.88063 26.3579 42.142 -1.88063 34.1366 42.7375 -1.88063 
43.9524 40.5426 -1.88063 41.9154 41.0219 -1.88063 -22.1132 48.3214 -1.88063 
-20.3143 48.6581 -1.88063 -9.4951 48.3214 -1.88063 -12.5356 48.7069 -1.88063 
-4.75692 48.3214 1.79919 -12.5356 -47.1626 5.89808 -4.75692 -49.7839 5.89808 
3.02179 -51.1831 5.89808 10.8005 -50.3953 5.89808 18.5792 -48.0094 5.89808 
-28.0931 -41.5097 5.89808 -18.112 -45.0232 5.89808 -20.3143 -44.0739 5.89808 
-12.5356 -45.0232 8.09698 -4.75692 -45.0232 10.3686 3.02179 -45.0232 11.0108 
10.8005 -45.0232 10.2641 24.3861 -45.0232 5.89808 18.5792 -45.0232 8.2173 
26.3579 -44.0229 5.89808 34.1366 -38.887 5.89808 -43.6505 -32.7581 5.89808 
-35.3735 -37.2445 5.89808 -35.8718 -36.979 5.89808 -28.0931 -37.2445 9.05409 
-20.3143 -37.2445 11.6402 -12.5356 -37.2445 13.4525 10.8005 -37.2445 13.1654 
18.5792 -37.2445 12.5179 26.3579 -37.2445 10.4465 36.287 -37.2445 5.89808 
34.1366 -37.2445 6.94549 41.9154 -31.7028 5.89808 -49.1146 -29.4658 5.89808 
-51.4292 -27.5615 5.89808 -43.6505 -29.4658 7.98804 -35.8718 -29.4658 11.101 
-28.0931 -29.4658 12.6358 26.3579 -29.4658 12.3751 34.1366 -29.4658 10.8692 
44.0222 -29.4658 5.89808 41.9154 -29.4658 7.02922 49.6941 -22.6969 5.89808 
-58.3281 -21.687 5.89808 -59.2079 -20.5429 5.89808 -51.4292 -21.687 8.86478 
-43.6505 -21.687 12.061 -35.8718 -21.687 13.168 34.1366 -21.687 12.9477 
41.9154 -21.687 10.3294 50.431 -21.687 5.89808 49.6941 -21.687 6.31668 
57.4728 -15.2077 5.89808 -63.2524 -13.9083 5.89808 -66.9866 -6.45391 5.89808 
-59.2079 -13.9083 8.87485 -51.4292 -13.9083 12.4092 34.1366 -13.9083 13.266 
41.9154 -13.9083 11.9329 49.6941 -13.9083 9.96189 58.2348 -13.9083 5.89808 
57.4728 -13.9083 6.49518 -67.0584 -6.12963 5.89808 -66.9866 -6.12963 5.98847 
-59.2079 -6.12963 13.6011 34.1366 -6.12963 13.5991 41.9154 -6.12963 13.0206 
[...]
POINT_DATA 606
SCALARS ImageScalars float
LOOKUP_TABLE default
0 0 0 0 0 0 0 0 0 
0 0 0 0 0 0 0 0 0 
0 0 0 0 0 0 0 0 0 
0 0 0 0 0 0 0 0 0 
0 0 0 0 0 0 0 0 0 
0 0 0 0 0 0 0 0 0 
0 0 0 0 0 0 0 0 0 
0 0 0 0 0 0 0 0 0 
0 0 0 0 0 0 0 0 0 
0 0 0 0 0 0 0 0 0 
0 0 0 0 0 0 0 0 0 
0 0 0 0 0 0 0 0 0 
0 0 0 0 0 0 0 0 0 
0 0 0 0 0 0 0 0 0 
0 0 0 0 0 0 0 0 0 
0 0 0 0 0 0 0 0 0 
0 0 0 0 0 0 0 0 0 
0 0 0 0 0 0 0 0 0 
0 0 0 0 0 0 0 0 0 
0 0 0 0 0 0 0 0 0 
0 0 0 0 0 0 0 0 0 
0 0 0 0 0 0 0 0 0 
0 0 0 0 0 0 0 0 0 
0 0 0 0 0 0 0 0 0 
0 0 0 0 0 0 0 0 0 
0 0 0 0 0 0 0 0 0 
0 0 0 0 0 0 0 0 0 
0 0 0 0 0 0 0 0 0 
0 0 0 0 0 0 0 0 0 
0 0 0 0 0 0 0 0 0 
0 0 0 0 0 0 0 0 0 
0 0 0 0 0 0 0 0 0 
0 0 0 0 0 0 0 0 0 
0 0 0 0 0 0 0 0 0 
0 0 0 0 0 0 0 0 0 
0 0 0 0 0 0 0 0 0 
0 0 0 0 0 0 0 0 0 
0 0 0 0 0 0 0 0 0 
0 0 0 0 0 0 0 0 0 
0 0 0 0 0 0 0 0 0 
0 0 0 0 0 0 0 0 0 
0 0 0 0 0 0 0 0 0 
0 0 0 0 0 0 0 0 0 
0 0 0 0 0 0 0 0 0 
0 0 0 0 0 0 0 0 0 
0 0 0 0 0 0 0 0 0 
0 0 0 0 0 0 0 0 0 
0 0 0 0 0 0 0 0 0 
0 0 0 0 0 0 0 0 0 
0 0 0 0 0 0 0 0 0 
0 0 0 0 0 0 0 0 0 
0 0 0 0 0 0 0 0 0 
0 0 0 0 0 0 0 0 0 
0 0 0 0 0 0 0 0 0 
0 0 0 0 0 0 0 0 0 
0 0 0 0 0 0 0 0 0 
0 0 0 0 0 0 0 0 0 
0 0 0 0 0 0 0 0 0 
0 0 0 0 0 0 0 0 0 
0 0 0 0 0 0 0 0 0 
0 0 0 0 0 0 0 0 0 
0 0 0 0 0 0 0 0 0 
0 0 0 0 0 0 0 0 0 
0 0 0 0 0 0 0 0 0 
0 0 0 0 0 0 0 0 0 
0 0 0 0 0 0 0 0 0 
0 0 0 0 0 0 0 0 0 
0 0 0 
NORMALS Normals float
-0.138737 0.0961378 0.985652 0.244147 0.734975 0.632616 0.143358 0.640578 0.754393 
0.0588238 0.540919 0.839015 -0.0291758 0.479291 0.877171 -0.113815 0.483533 0.867895 
-0.125042 0.566358 0.814618 -0.232553 0.672543 0.70257 0.360724 0.60592 0.709041 
0.243344 0.456881 0.855595 0.13388 0.319693 0.938015 0.0845244 0.225049 0.970674 
-0.0150528 0.181381 0.983298 -0.0704383 0.129458 0.98908 -0.0594051 0.14628 0.987458 
-0.0116274 0.249561 0.968289 -0.121391 0.340382 0.932419 -0.329363 0.540281 0.774349 
0.407309 0.456766 0.790863 0.235188 0.27147 0.933269 0.073876 0.162457 0.983946 
0.0609584 0.110892 0.991961 0.0243358 0.0258239 0.99937 -0.0458493 -0.0147016 0.99884 
-0.0719775 -0.0344427 0.996811 -0.00079434 -0.0045213 0.999989 0.0404497 0.0978497 0.994379 
-0.0252527 0.0918617 0.995452 -0.143977 0.248803 0.957793 -0.390196 0.446549 0.805196 
0.43422 0.298404 0.849946 0.24829 0.253646 0.934888 0.0718099 0.103811 0.992001 
0.0564491 0.0636427 0.996375 -0.00466698 -0.0189996 0.999809 -0.0448418 -0.0726989 0.996345 
-0.079059 -0.110497 0.990727 -0.0564293 -0.146126 0.987655 0.0754013 -0.107517 0.99134 
0.0979488 -0.0362917 0.994529 0.0408753 0.00331615 0.999159 -0.0550576 0.0907789 0.994348 
-0.195188 0.165091 0.966771 -0.425152 0.394337 0.814705 0.277894 0.180858 0.943433 
0.190912 0.0654772 0.979421 0.0687353 0.0581547 0.995938 -0.0555475 0.00852739 0.99842 
-0.0743417 -0.0735562 0.994516 -0.0658214 -0.0624929 0.995873 -0.1189 -0.000637085 0.992906 
-0.0769481 0.0183488 0.996866 0.108604 -0.0558364 0.992516 0.150616 -0.143354 0.978143 
0.0956385 -0.071384 0.992853 0.0218175 -0.0269983 0.999397 -0.0401271 0.0786501 0.996094 
-0.161495 0.128918 0.978417 -0.289205 0.310378 0.905553 -0.522007 0.358655 0.77387 
0.492983 0.105597 0.863607 0.291249 0.120441 0.949035 0.0923127 0.0672541 0.993456 
0.0151756 -0.00408031 0.999876 -0.0758134 -0.00493657 0.99711 -0.0730135 -0.0630806 0.995334 
0.0298288 -0.0415048 0.998693 0.0366837 0.121842 0.991871 -0.114954 -0.0348516 0.992759 
-0.126598 0.0946453 0.987429 0.0765952 -0.133797 0.988044 0.16269 -0.0810611 0.983342 
0.0968769 -0.0444583 0.994303 -0.0913472 0.0826279 0.992385 0.116878 -0.00548938 0.993131 
-0.159337 0.10173 0.981969 -0.150264 -0.0905529 0.98449 -0.461724 0.0575562 0.885155 
0.474663 -0.0309827 0.879622 0.286253 -0.00973178 0.958105 0.070503 0.00903704 0.997471 
-0.00199518 0.016437 0.999863 -0.11146 0.0135556 0.993676 -0.1098 -0.010519 0.993898 
0.0619143 -0.150217 0.986712 -0.126133 0.0357608 0.991369 -0.0670326 -0.16669 0.983728 
0.00391408 -0.106304 0.994326 0.0306169 0.000158771 0.999531 0.178687 -0.00497796 0.983893 
0.095701 -0.0336073 0.994843 0.117424 -0.0525498 0.991691 -0.150648 -0.0972544 0.983792 
-0.450616 -0.0347368 0.892042 0.532511 -0.210421 0.819851 0.316576 -0.157934 0.935327 
0.115871 -0.0507018 0.991969 0.018289 0.0138027 0.999737 -0.104497 -0.00279894 0.994521 
-0.219619 0.0251545 0.975261 -0.0513791 -0.0595104 0.996905 0.0595679 -0.314496 0.947388 
-0.121498 0.0400547 0.991783 0.0123363 -0.188274 0.982039 0.130614 -0.00206805 0.991431 
0.139352 -0.0203996 0.990033 0.0558023 -0.0341479 0.997858 0.0448253 -0.059075 0.997247 
-0.154273 -0.198857 0.96781 -0.318291 -0.0340212 0.947382 0.423418 -0.25674 0.868793 
0.227269 -0.116184 0.966876 0.0501221 -0.0933547 0.994371 -0.0947721 -0.0283127 0.995096 
-0.191846 -0.0196331 0.981229 -0.143325 0.0481091 0.988506 -0.0455055 -0.0680436 0.996644 
-0.0783071 -0.074645 0.994131 0.0226027 -0.116451 0.992939 0.183875 -0.122537 0.975282 
0.143872 -0.127324 0.981371 0.0565507 -0.107241 0.992624 -0.0336094 -0.0953893 0.994873 
-0.187424 -0.253524 0.948998 -0.379782 -0.228307 0.89646 0.52956 -0.416949 0.738728 
0.315114 -0.324607 0.891815 0.114826 -0.200395 0.972963 -0.0321482 -0.0708327 0.99697 
-0.143466 -0.0897946 0.985573 -0.0994747 -0.0175562 0.994885 -0.0973255 -0.0277859 0.994865 
-0.151452 -0.115933 0.981642 -0.0533103 -0.166141 0.98466 0.139049 -0.252718 0.957496 
0.152582 -0.241629 0.958298 0.0790399 -0.2224 0.971746 -0.108907 -0.24752 0.962742 
-0.214794 -0.2767 0.936643 0.432992 -0.500773 0.749496 0.255351 -0.401731 0.879436 
0.0119304 -0.331063 0.943533 -0.110688 -0.242163 0.963901 -0.0870915 -0.193889 0.97715 
-0.138464 -0.227657 0.963846 -0.218371 -0.277903 0.935459 0.212502 -0.488355 0.846376 
0.0971995 -0.432112 0.896566 -0.12556 -0.33392 0.934201 0.0105739 -0.504721 0.863218 
-0.0696304 -0.477919 0.87564 0.245791 0.759939 0.601731 0.161111 0.739948 0.653085 
0.0962969 0.722604 0.684522 -0.0177546 0.676854 0.735903 0.0405556 0.990578 0.130807 
-0.120016 0.638982 0.759801 -0.109448 0.990222 0.0864942 -0.132837 0.619078 0.774014 
-0.235728 0.682065 0.692257 0.38861 0.661835 0.641059 0.26449 0.750921 0.605113 
0.345837 0.65668 0.6702 -0.246463 0.680023 0.690525 -0.383143 0.631232 0.67435 
0.4174 0.641657 0.64347 0.446301 0.509884 0.735414 -0.436533 0.624171 0.647957 
-0.48829 0.611019 0.623081 -0.60938 0.734663 0.298206 0.41886 0.517651 0.746052 
0.452236 0.497918 0.739973 0.627489 0.748556 0.214293 -0.539189 0.566101 0.623542 
-0.562157 0.541487 0.625118 -0.646372 0.657269 0.387557 0.538989 0.344755 0.768528 
0.790036 0.563502 0.241474 -0.654968 0.516448 0.551632 -0.657201 0.530275 0.535626 
-0.784143 0.619363 0.0388481 0.587192 0.348838 0.730423 0.593471 0.339719 0.729646 
0.61246 0.368401 0.699409 -0.681148 0.436582 0.587736 0.574312 0.14501 0.805691 
-0.797704 0.165517 0.57989 -0.939648 0.271057 0.20878 0.594091 -0.041579 0.803323 
0.933432 -0.051396 0.355053 -0.67773 0.0296001 0.734715 -0.879311 0.0668871 0.471527 
0.582491 -0.223157 0.781604 0.560467 -0.316413 0.765349 -0.756025 -0.123409 0.642804 
-0.905411 -0.146735 0.398371 0.540448 -0.359361 0.760773 0.699209 -0.504775 0.50627 
-0.621465 -0.230426 0.748789 -0.35798 -0.49754 0.790129 -0.945641 -0.235632 0.224143 
0.542471 -0.424787 0.724763 0.540165 -0.433872 0.721094 -0.0715839 -0.220375 0.972785 
0.117461 -0.315429 0.941651 -0.332002 -0.484736 0.809201 -0.351422 -0.475562 0.806439 
-0.382145 -0.528377 0.758144 0.47143 -0.527486 0.706762 0.452758 -0.541852 0.708101 
0.287244 -0.57765 0.764076 0.0843601 -0.575517 0.813427 -0.154069 -0.423005 0.892933 
-0.186854 -0.293648 0.937473 -0.223017 -0.315029 0.922508 -0.110431 -0.3539 0.928741 
0.1995 -0.476644 0.856161 0.0808723 -0.421588 0.903174 0.209727 -0.496873 0.842099 
0.167965 -0.530599 0.830814 -0.342731 -0.488719 0.802302 -0.173161 -0.583108 0.793725 
-0.418689 -0.589812 0.690522 -0.667549 -0.672204 0.320186 0.380779 -0.719518 0.580777 
0.0624208 -0.558583 0.827096 0.0869574 -0.58348 0.807459 0.0126103 -0.518329 0.855088 
-0.0764657 -0.480758 0.873513 -0.0697784 -0.483082 0.87279 -0.159142 -0.530848 0.832391 
-0.251995 -0.563292 0.786893 -0.211789 -0.694261 0.687856 -0.0471716 -0.776306 0.628589 
0.0853476 -0.800526 0.59319 0.0567399 -0.830214 0.55455 -0.210043 -0.93222 0.2947 
0.0970126 -0.941634 0.322357 -0.063282 -0.918076 0.39132 0.0442284 0.995762 0.08063 
-0.109074 0.990703 0.0812988 0.341636 0.938524 -0.0495663 0.25386 0.9672 0.00895338 
0.0780664 0.994405 0.0711689 0.167851 0.984633 0.048212 0.043888 0.999 -0.00852983 
-0.111578 0.990425 0.0812947 -0.109799 0.991284 0.0728007 -0.249486 0.965109 0.0795097 
-0.404531 0.914479 -0.00904707 0.465823 0.884439 -0.0278763 0.387873 0.921698 -0.00519694 
0.390993 0.920394 -0.000351605 0.289189 0.832421 -0.4727 -0.530227 0.847842 -0.00494109 
-0.355466 0.760318 -0.543655 -0.548123 0.836396 -0.00193919 -0.648793 0.758668 -0.0590792 
0.65962 0.744381 0.103917 0.544898 0.837789 0.0345899 0.557263 0.828807 0.0503566 
0.366701 0.743953 -0.558627 -0.666775 0.742126 -0.0682596 -0.642034 0.711605 -0.285325 
-0.701188 0.706862 -0.0931743 0.67419 0.733743 0.0841985 0.787901 0.594304 0.161291 
0.650526 0.726793 -0.220426 -0.720989 0.685271 -0.102857 -0.669903 0.647339 -0.363569 
-0.77993 0.615948 -0.110984 0.79611 0.579932 0.17288 0.759442 0.604601 -0.240219 
-0.788653 0.605527 -0.106597 -0.765321 0.609105 -0.208024 0.88275 0.412165 0.225551 
-0.885231 0.454187 -0.100398 -0.930217 0.361986 -0.0605161 0.95084 0.148073 0.271989 
0.951273 0.14428 0.272513 0.972189 0.158033 0.172841 -0.957408 0.281794 -0.0629393 
-0.894784 0.300353 -0.330378 0.959766 -0.051204 0.276094 0.946268 -0.172144 0.273756 
-0.993532 0.0925317 -0.06582 -0.821044 0.11871 -0.558386 0.918325 -0.307901 0.248751 
-0.996835 -0.0794155 0.00361281 -0.782139 -0.0620381 -0.620008 0.833789 -0.516021 0.196263 
0.785394 -0.576826 0.224562 -0.962883 -0.26266 0.0621826 -0.930018 -0.366651 0.0251781 
-0.938102 -0.261813 -0.226757 0.765703 -0.616472 0.183469 0.731542 -0.665467 0.148327 
-0.875 -0.483413 -0.0262035 0.718428 -0.680073 0.146161 0.629245 -0.763527 0.145182 
-0.430081 -0.846152 0.314733 -0.712589 -0.671019 0.204818 -0.674686 -0.706491 0.213703 
0.585153 -0.793936 0.165114 0.468315 -0.864189 0.184009 0.263273 -0.924264 0.276447 
-0.174874 -0.874948 0.451536 -0.279586 -0.834995 0.473936 -0.215991 -0.816011 0.536166 
-0.0424757 -0.838061 0.543921 0.0574947 -0.871889 0.486317 -0.0832943 -0.934941 0.344889 
-0.269047 -0.941392 0.203457 -0.215762 -0.963367 0.159285 0.139764 -0.947324 0.288172 
0.0990708 -0.952189 0.289001 -0.104091 -0.914038 0.392045 -0.0570108 -0.932422 0.356847 
-0.160514 -0.979129 0.124666 0.282469 0.772945 -0.568126 0.203903 0.823662 -0.529155 
0.0336323 0.859394 -0.510207 -0.147365 0.816639 -0.558019 -0.295787 0.704566 -0.645056 
0.326715 0.709142 -0.624799 0.270336 0.771723 -0.575641 0.268505 0.764274 -0.586336 
0.251212 0.700226 -0.668263 0.150284 0.60229 -0.784003 -0.0102066 0.532455 -0.846397 
-0.165823 0.526978 -0.833545 -0.323635 0.681718 -0.656141 -0.269578 0.573959 -0.773239 
-0.327385 0.675246 -0.660955 -0.449392 0.571803 -0.686358 0.403524 0.648912 -0.645044 
0.355382 0.722699 -0.592799 0.355424 0.724371 -0.590728 0.278068 0.53217 -0.799671 
0.252283 0.438287 -0.862704 0.161446 0.396672 -0.903652 -0.0997724 0.239055 -0.965867 
-0.176502 0.311548 -0.933694 -0.271541 0.357954 -0.893384 -0.467404 0.547717 -0.693931 
-0.426362 0.518973 -0.740866 -0.512135 0.481414 -0.711308 0.502142 0.614583 -0.608393 
0.533739 0.598597 -0.597331 0.35918 0.545314 -0.757378 0.273429 0.352261 -0.895069 
0.200467 0.311182 -0.928966 -0.180922 0.209751 -0.96087 -0.260839 0.290667 -0.920584 
-0.512925 0.460213 -0.724646 -0.483949 0.426176 -0.764308 -0.519267 0.38436 -0.763301 
0.634076 0.55316 -0.540334 0.657921 0.536418 -0.528579 0.417132 0.467669 -0.779286 
0.228248 0.406926 -0.884485 0.159623 0.244113 -0.956519 -0.222424 0.156846 -0.962251 
-0.335591 0.234836 -0.912267 -0.520611 0.38116 -0.76399 -0.511041 0.368129 -0.776736 
-0.573227 0.323353 -0.752897 0.734784 0.447575 -0.509675 0.881829 0.194804 -0.429452 
0.571284 0.424685 -0.702337 0.303063 0.333653 -0.892653 -0.141177 0.0398236 -0.989183 
-0.192803 0.178145 -0.964931 -0.341106 0.250876 -0.90593 -0.596926 0.295932 -0.745724 
-0.559879 0.283815 -0.77845 0.88668 0.181982 -0.425065 0.882384 0.182482 -0.433704 
0.470826 0.106268 -0.875802 -0.0637288 0.0339306 -0.99739 -0.179068 0.0908172 -0.979636 
-0.300435 0.0738289 -0.950941 -0.586594 0.155829 -0.794748 -0.521267 0.115922 -0.845484 
0.920522 -0.06884 -0.384578 0.90156 -0.217002 -0.374298 0.888291 -0.0596941 -0.455385 
0.521567 -0.110942 -0.845967 -0.0433551 -0.0297162 -0.998618 -0.146534 0.0558571 -0.987627 
-0.26547 0.0530534 -0.962658 -0.597539 0.11563 -0.793458 -0.468571 0.120725 -0.875138 
0.856651 -0.335986 -0.391487 0.57926 -0.151933 -0.800859 0.0562671 -0.0498212 -0.997172 
-0.0795037 -0.0752099 -0.993993 -0.243835 0.0481397 -0.968621 -0.663624 -0.0486343 -0.746484 
-0.454787 -0.0219033 -0.890331 0.805738 -0.47434 -0.354666 0.728141 -0.582201 -0.361735 
0.690607 -0.386791 -0.611109 0.35105 -0.273916 -0.895396 -0.0194268 0.0746211 -0.997023 
-0.369867 -0.040308 -0.92821 -0.616527 -0.169873 -0.76879 -0.532681 -0.142519 -0.83423 
0.662092 -0.645552 -0.380654 0.662445 -0.63429 -0.398552 0.558315 -0.535946 -0.633282 
-0.380901 -0.120735 -0.916699 -0.68557 -0.15541 -0.711226 -0.661611 -0.123939 -0.739534 
0.626654 -0.63701 -0.448913 0.587584 -0.665673 -0.460027 0.516624 -0.578025 -0.631654 
0.310739 -0.292775 -0.904281 -0.0763647 -0.232652 -0.969557 0.0200302 -0.352697 -0.935523 
-0.110568 -0.37316 -0.921155 -0.189166 -0.366423 -0.911016 -0.501615 -0.716026 -0.485477 
-0.388154 -0.43863 -0.810519 -0.698864 -0.484432 -0.526227 -0.69501 -0.488985 -0.527119 
-0.693313 -0.483826 -0.534069 0.541334 -0.748158 -0.383689 0.485871 -0.792906 -0.367737 
0.449272 -0.707985 -0.544896 0.310213 -0.893667 -0.324233 0.25019 -0.53597 -0.806313 
-0.238062 -0.949932 -0.202375 -0.153007 -0.455231 -0.877128 -0.262776 -0.944894 -0.195252 
-0.178653 -0.61149 -0.77082 -0.143672 -0.956891 -0.252425 -0.172625 -0.766677 -0.61839 
-0.0260753 -0.93883 -0.343392 -0.0730893 -0.808192 -0.584366 -0.0923193 -0.908284 -0.40804 
-0.0625202 -0.75445 -0.653373 -0.365002 -0.847891 -0.384517 -0.239362 -0.914247 -0.326893 
-0.236112 -0.870249 -0.432339 0.140066 -0.921885 -0.36126 0.131783 -0.921738 -0.364735 
0.13105 -0.919899 -0.369609 0.0383964 -0.960092 -0.277037 0.0470588 -0.921891 -0.384581 
-0.172006 -0.963073 -0.207132 -0.125961 -0.966335 -0.224344 -0.118743 -0.945357 -0.303645 
0.0646804 0.393519 -0.917038 -0.0762031 0.308613 -0.94813 0.203435 0.251766 -0.946165 
0.138064 0.385239 -0.91243 0.157225 0.373041 -0.914396 0.0454613 0.344568 -0.93766 
-0.0915779 0.252381 -0.963285 -0.0888378 0.265968 -0.95988 -0.104719 0.165845 -0.980576 
-0.133708 0.111429 -0.984736 0.192974 0.240071 -0.951382 0.165425 0.221875 -0.96094 
0.185449 0.196483 -0.96281 0.123402 0.165549 -0.978451 -0.00541597 0.0889445 -0.996022 
-0.123932 0.062514 -0.990319 -0.114915 0.071599 -0.990792 -0.133702 0.106506 -0.985282 
-0.131805 0.103012 -0.985909 -0.0904666 0.129854 -0.987397 0.184877 0.321442 -0.928707 
0.150159 0.207439 -0.966655 0.11084 0.229014 -0.967092 0.130833 0.139148 -0.981591 
0.105815 0.0267157 -0.994027 0.055647 -0.00809755 -0.998418 -0.0601237 -0.0770471 -0.995213 
-0.118412 -0.0509312 -0.991657 -0.0635941 0.000480665 -0.997976 -0.0307811 0.0651286 -0.997402 
-0.105049 0.127862 -0.986213 -0.0811217 0.121173 -0.989311 0.228127 0.286751 -0.930447 
0.223505 0.315877 -0.922099 0.155462 0.224799 -0.961924 -0.0205218 0.18675 -0.982193 
-0.0218521 0.0584349 -0.998052 0.0446428 -0.0414185 -0.998144 0.018522 -0.125694 -0.991896 
-0.0487619 -0.118663 -0.991737 -0.0436705 0.0217674 -0.998809 -0.00119243 0.106274 -0.994336 
-0.0116455 0.0383972 -0.999195 -0.120195 0.027622 -0.992366 -0.0945452 0.0136499 -0.995427 
0.461049 0.110466 -0.880472 0.18174 0.276022 -0.943813 0.043462 0.137295 -0.989576 
-0.0239796 0.124423 -0.991939 -0.0995006 0.0948947 -0.990502 -0.0836673 0.0113656 -0.996429 
-0.0175684 -0.112496 -0.993497 0.0854959 0.016286 -0.996205 0.0169504 -0.100927 -0.994749 
0.117017 -0.139717 -0.983253 -0.0534145 0.00311315 -0.998568 -0.122252 -0.0669633 -0.990237 
-0.0664024 0.0225134 -0.997539 -0.0800421 -0.0300211 -0.996339 -0.0473402 0.0346555 -0.998277 
0.439243 -0.0791183 -0.894878 0.250351 0.0482105 -0.966954 0.0600881 0.0790423 -0.995059 
-0.0553931 0.086546 -0.994707 -0.135926 0.0980342 -0.985857 -0.155395 0.0915606 -0.9836 
0.0261585 -0.0104823 -0.999603 -0.0801923 -0.0770352 -0.993798 -0.000835681 -0.0814347 -0.996678 
-0.0796106 -0.102468 -0.991545 0.0335018 -0.1258 -0.99149 -0.00623451 0.0439595 -0.999014 
-0.0240121 -0.107321 -0.993934 0.0714149 -0.166972 -0.983372 -0.0488255 -0.070972 -0.996283 
0.00509011 0.0193354 -0.9998 -0.0621704 0.0422166 -0.997172 -0.0229263 0.035845 -0.999094 
-0.142557 0.0707337 -0.987256 0.455465 -0.162436 -0.875309 0.347751 -0.264174 -0.8996 
0.359739 -0.163069 -0.918693 0.0679444 -0.0787366 -0.994577 -0.00415062 0.0172854 -0.999842 
-0.0933883 0.0724781 -0.992988 -0.179864 0.110611 -0.977453 -0.145228 0.0551498 -0.98786 
-0.21604 0.0945748 -0.971793 0.0538877 0.022019 -0.998304 -0.0181983 0.0943076 -0.995377 
-0.0515184 -0.0277859 -0.998285 0.0341844 0.0972708 -0.994671 0.0478156 -0.00623998 -0.998837 
0.069329 0.00558122 -0.997578 0.0259867 0.0599099 -0.997865 -0.0273067 0.0568568 -0.998009 
-0.149598 0.0819748 -0.985343 -0.138812 0.085473 -0.986623 0.338708 -0.262198 -0.90362 
0.225139 -0.177261 -0.958066 0.0891606 -0.094796 -0.991496 -0.0425119 -0.021729 -0.99886 
-0.138577 0.0584938 -0.988623 -0.141365 0.12161 -0.98246 -0.0741806 0.192074 -0.978573 
-0.03914 0.0470733 -0.998124 -0.0709253 0.00203733 -0.99748 0.0520865 0.0347379 -0.998038 
-0.0326852 0.0666376 -0.997242 0.0859915 0.0169197 -0.996152 0.0517771 0.0486208 -0.997474 
-0.00132805 0.0102656 -0.999946 -0.236236 -0.000212443 -0.971696 -0.144424 0.0472719 -0.988386 
0.278212 -0.389188 -0.87814 0.268069 -0.389335 -0.881225 0.26099 -0.382082 -0.886509 
0.298225 -0.28398 -0.911272 0.155895 -0.244702 -0.956984 0.0644967 -0.13983 -0.988073 
-0.042032 -0.0344226 -0.998523 -0.0784528 0.0398613 -0.996121 -0.0693121 0.0859047 -0.993889 
-0.0824161 0.0526474 -0.995206 -0.0648256 0.0534931 -0.996462 -0.00162783 -0.107598 -0.994193 
0.0441991 -0.0430667 -0.998094 0.0235796 -0.264726 -0.964035 0.018367 -0.107506 -0.994035 
-0.0973949 -0.31614 -0.9437 -0.0309431 -0.0660059 -0.997339 -0.254248 -0.189201 -0.948452 
-0.201388 -0.259854 -0.944415 -0.217362 -0.215535 -0.951997 0.294051 -0.287102 -0.91165 
0.193254 -0.367501 -0.909723 0.170738 -0.274581 -0.946284 0.0430292 -0.175009 -0.983626 
-0.0243276 -0.128013 -0.991474 -0.0610283 -0.0958777 -0.99352 -0.122151 -0.283825 -0.951064 
-0.0968007 -0.130296 -0.986738 -0.0993041 -0.191234 -0.976508 -0.126596 -0.239409 -0.96263 
-0.120865 -0.166775 -0.978559 0.136125 -0.471954 -0.871051 0.110789 -0.499783 -0.859036 
0.108674 -0.463458 -0.87943 -0.0125143 -0.409895 -0.912047 -0.0144133 -0.390102 -0.920659 
-0.0876148 -0.397105 -0.913581 -0.0733799 -0.416281 -0.90627 -0.0738839 -0.392966 -0.91658 

