# vtk DataFile Version 4.2
vtk output
ASCII
DATASET POLYDATA
POINTS 526 float
-24.0376 -46.7959 -15.0153 -15.5796 -46.7959 -18.7611 -7.1215 -46.7959 -19.8061 
1.33657 -46.7959 -19.0087 9.79464 -46.7959 -16.2355 -32.4957 -38.3378 -16.0837 
-24.0376 -38.3378 -19.413 -15.5796 -38.3378 -21.3277 -7.1215 -38.3378 -21.528 
1.33657 -38.3378 -20.8474 9.79464 -38.3378 -20.4108 18.2527 -38.3378 -19.484 
26.7108 -38.3378 -18.822 35.1689 -38.3378 -13.6873 -40.9538 -29.8798 -15.6672 
-32.4957 -29.8798 -19.1352 -24.0376 -29.8798 -21.4708 -15.5796 -29.8798 -21.8595 
-7.1215 -29.8798 -21.7304 1.33657 -29.8798 -21.0121 9.79464 -29.8798 -20.984 
18.2527 -29.8798 -21.2027 26.7108 -29.8798 -21.174 35.1689 -29.8798 -17.1254 
-40.9538 -21.4217 -18.8578 -32.4957 -21.4217 -20.9354 -24.0376 -21.4217 -21.1083 
-15.5796 -21.4217 -20.9191 -7.1215 -21.4217 -20.7332 1.33657 -21.4217 -19.7266 
9.79464 -21.4217 -19.9334 18.2527 -21.4217 -21.4453 26.7108 -21.4217 -21.0826 
35.1689 -21.4217 -18.5757 -49.4119 -12.9636 -15.7432 -40.9538 -12.9636 -19.9092 
-32.4957 -12.9636 -20.7701 -24.0376 -12.9636 -20.3472 -15.5796 -12.9636 -19.5715 
-7.1215 -12.9636 -20.2731 1.33657 -12.9636 -19.4204 9.79464 -12.9636 -19.4414 
18.2527 -12.9636 -21.1191 26.7108 -12.9636 -20.8793 35.1689 -12.9636 -18.8523 
43.6269 -12.9636 -14.9242 -49.4119 -4.50555 -18.0344 -40.9538 -4.50555 -20.8039 
-32.4957 -4.50555 -21.1223 -24.0376 -4.50555 -20.0979 -15.5796 -4.50555 -18.6721 
-7.1215 -4.50555 -21.1892 1.33657 -4.50555 -19.9923 9.79464 -4.50555 -20.4745 
18.2527 -4.50555 -20.6889 26.7108 -4.50555 -20.9934 35.1689 -4.50555 -20.1752 
43.6269 -4.50555 -18.2581 52.085 -4.50555 -14.3604 -49.4119 3.95252 -19.2255 
-40.9538 3.95252 -21.3905 -32.4957 3.95252 -21.216 -24.0376 3.95252 -20.0248 
-15.5796 3.95252 -18.8694 -7.1215 3.95252 -21.0803 1.33657 3.95252 -18.9447 
9.79464 3.95252 -19.9445 18.2527 3.95252 -19.2148 26.7108 3.95252 -20.6138 
35.1689 3.95252 -21.2369 43.6269 3.95252 -20.0796 52.085 3.95252 -16.3107 
-49.4119 12.4106 -19.1274 -40.9538 12.4106 -20.9594 -32.4957 12.4106 -20.9512 
-24.0376 12.4106 -19.7406 -15.5796 12.4106 -19.1197 -7.1215 12.4106 -19.7386 
1.33657 12.4106 -20.3547 9.79464 12.4106 -20.7197 18.2527 12.4106 -18.7508 
26.7108 12.4106 -20.1302 35.1689 12.4106 -21.0585 43.6269 12.4106 -19.9058 
52.085 12.4106 -16.9345 -49.4119 20.8687 -18.4652 -40.9538 20.8687 -20.0066 
-32.4957 20.8687 -21.1344 -24.0376 20.8687 -20.2398 -15.5796 20.8687 -19.8691 
-7.1215 20.8687 -19.0705 1.33657 20.8687 -19.2679 9.79464 20.8687 -20.2455 
18.2527 20.8687 -19.3141 26.7108 20.8687 -18.8456 35.1689 20.8687 -18.651 
43.6269 20.8687 -17.6837 52.085 20.8687 -13.6229 -49.4119 29.3267 -15.3621 
-40.9538 29.3267 -18.2963 -32.4957 29.3267 -19.4639 -24.0376 29.3267 -20.5915 
-15.5796 29.3267 -20.1631 -7.1215 29.3267 -19.7676 1.33657 29.3267 -19.3594 
9.79464 29.3267 -20.0206 18.2527 29.3267 -19.2317 26.7108 29.3267 -17.5168 
35.1689 29.3267 -15.3906 -40.9538 37.7848 -14.7531 -32.4957 37.7848 -17.3445 
-24.0376 37.7848 -18.6655 -15.5796 37.7848 -19.0055 -7.1215 37.7848 -18.7083 
1.33657 37.7848 -18.0416 9.79464 37.7848 -18.1194 18.2527 37.7848 -16.6597 
26.7108 37.7848 -14.0893 -24.0376 46.2429 -14.7185 -15.5796 46.2429 -15.7267 
-7.1215 46.2429 -15.3914 1.33657 46.2429 -14.3638 -24.0376 -48.3753 -13.5197 
-15.5796 -52.0885 -13.5197 -7.1215 -52.9869 -13.5197 1.33657 -51.8948 -13.5197 
9.79464 -49.1231 -13.5197 -26.3772 -46.7959 -13.5197 -32.4957 -41.8429 -13.5197 
-32.4957 -46.7959 -6.32189 17.9709 -46.7959 -13.5197 18.2527 -46.6987 -13.5197 
18.2527 -46.7959 -13.0686 26.7108 -44.0299 -13.5197 35.1689 -38.5333 -13.5197 
-36.3626 -38.3378 -13.5197 -40.9538 -33.3753 -13.5197 -40.9538 -38.3378 -8.00179 
35.3671 -38.3378 -13.5197 -43.6839 -29.8798 -13.5197 39.163 -29.8798 -13.5197 
43.6269 -29.8798 -7.92667 -48.645 -21.4217 -13.5197 -49.4119 -19.7481 -13.5197 
-49.4119 -21.4217 -12.4265 41.5791 -21.4217 -13.5197 43.6269 -16.7611 -13.5197 
43.6269 -21.4217 -11.235 -51.6095 -12.9636 -13.5197 45.6894 -12.9636 -13.5197 
52.085 -5.83067 -13.5197 52.085 -12.9636 -7.45623 -54.073 -4.50555 -13.5197 
53.1393 -4.50555 -13.5197 60.5431 -4.50555 -5.09266 -55.8037 3.95252 -13.5197 
55.7029 3.95252 -13.5197 60.5431 3.95252 -7.85448 -56.8741 12.4106 -13.5197 
-57.8699 12.4106 -9.64424 56.9163 12.4106 -13.5197 60.5431 12.4106 -8.2257 
-55.1999 20.8687 -13.5197 43.6269 27.4962 -13.5197 52.2147 20.8687 -13.5197 
52.085 21.0393 -13.5197 -51.1157 29.3267 -13.5197 -49.4119 32.0334 -13.5197 
40.2922 29.3267 -13.5197 35.1689 32.0929 -13.5197 43.6269 29.3267 -11.8391 
-43.6798 37.7848 -13.5197 -40.9538 39.8546 -13.5197 -32.4957 44.11 -13.5197 
9.79464 45.1245 -13.5197 18.2527 42.1765 -13.5197 27.7941 37.7848 -13.5197 
26.7108 38.4528 -13.5197 35.1689 37.7848 -7.67901 -28.0868 46.2429 -13.5197 
-32.4957 46.2429 -11.5933 -24.0376 47.7308 -13.5197 -15.5796 48.9929 -13.5197 
-7.1215 48.5213 -13.5197 5.81969 46.2429 -13.5197 1.33657 47.2037 -13.5197 
9.79464 46.2429 -12.2412 18.2527 46.2429 -7.61199 -32.4957 -47.4938 -5.06167 
-24.0376 -52.4403 -5.06167 -15.5796 -55.0756 -5.06167 -7.1215 -55.0128 -5.06167 
1.33657 -53.3943 -5.06167 9.79464 -50.6734 -5.06167 18.2527 -48.1742 -5.06167 
-33.3743 -46.7959 -5.06167 -40.9538 -40.2716 -5.06167 24.2345 -46.7959 -5.06167 
18.2527 -46.7959 -0.635226 26.7108 -46.2457 -5.06167 35.1689 -42.1689 -5.06167 
-42.7389 -38.3378 -5.06167 40.1038 -38.3378 -5.06167 43.6269 -33.1862 -5.06167 
-49.0548 -29.8798 -5.06167 -49.4119 -29.1442 -5.06167 45.6456 -29.8798 -5.06167 
-52.5027 -21.4217 -5.06167 49.6513 -21.4217 -5.06167 52.085 -17.003 -5.06167 
52.085 -21.4217 0.202039 -54.8772 -12.9636 -5.06167 54.154 -12.9636 -5.06167 
60.5431 -4.5387 -5.06167 -56.0323 -4.50555 -5.06167 60.5618 -4.50555 -5.06167 
-57.4085 3.95252 -5.06167 -57.8699 7.213 -5.06167 62.1253 3.95252 -5.06167 
-58.6184 12.4106 -5.06167 -57.8699 16.6552 -5.06167 -57.8699 12.4106 -3.07026 
62.0291 12.4106 -5.06167 60.5431 16.978 -5.06167 -57.1269 20.8687 -5.06167 
58.9631 20.8687 -5.06167 52.085 28.5267 -5.06167 -54.5321 29.3267 -5.06167 
-49.4119 37.6748 -5.06167 51.0963 29.3267 -5.06167 43.6269 35.0828 -5.06167 
52.085 29.3267 2.19096 -49.3268 37.7848 -5.06167 -40.9538 45.2626 -5.06167 
26.7108 43.6103 -5.06167 38.7892 37.7848 -5.06167 35.1689 39.49 -5.06167 
-39.5169 46.2429 -5.06167 -32.4957 50.2766 -5.06167 -24.0376 52.8484 -5.06167 
-15.5796 53.8238 -5.06167 -7.1215 53.3153 -5.06167 1.33657 52.3869 -5.06167 
9.79464 50.0203 -5.06167 21.0356 46.2429 -5.06167 18.2527 47.4245 -5.06167 
-32.4957 -48.1269 3.39641 -24.0376 -52.3747 3.39641 -15.5796 -53.9898 3.39641 
-7.1215 -53.2329 3.39641 1.33657 -50.9961 3.39641 9.79464 -47.7084 3.39641 
-34.2696 -46.7959 3.39641 -40.9538 -40.9382 3.39641 -32.4957 -46.7959 7.69824 
1.33657 -46.7959 9.8686 13.386 -46.7959 3.39641 9.79464 -46.7959 4.97252 
18.2527 -45.5208 3.39641 26.7108 -43.9006 3.39641 35.1689 -41.1736 3.39641 
-43.4088 -38.3378 3.39641 -40.9538 -38.3378 9.88534 26.7108 -38.3378 11.656 
38.819 -38.3378 3.39641 35.1689 -38.3378 7.94164 43.6269 -34.0675 3.39641 
-49.1725 -29.8798 3.39641 -49.4119 -29.2656 3.39641 47.2431 -29.8798 3.39641 
43.6269 -29.8798 9.82483 52.085 -23.1649 3.39641 -52.2588 -21.4217 3.39641 
-49.4119 -21.4217 11.8193 53.2489 -21.4217 3.39641 52.085 -21.4217 10.2269 
-54.3081 -12.9636 3.39641 58.3695 -12.9636 3.39641 60.5431 -8.67595 3.39641 
-54.425 -4.50555 3.39641 62.4521 -4.50555 3.39641 60.5431 -4.50555 11.8458 
-54.4284 3.95252 3.39641 -49.4119 3.95252 10.7101 63.7057 3.95252 3.39641 
-54.7843 12.4106 3.39641 -49.4119 12.4106 9.70103 62.7834 12.4106 3.39641 
60.5431 18.3181 3.39641 60.5431 12.4106 9.58719 -53.7333 20.8687 3.39641 
-49.4119 20.8687 8.89996 59.3639 20.8687 3.39641 -51.4044 29.3267 3.39641 
-49.4119 33.2953 3.39641 -49.4119 29.3267 5.8665 43.6269 36.2582 3.39641 
52.2113 29.3267 3.39641 52.085 29.443 3.39641 52.085 29.3267 3.70817 
-46.7216 37.7848 3.39641 -40.9538 43.8758 3.39641 -40.9538 37.7848 9.62774 
26.7108 44.2527 3.39641 40.897 37.7848 3.39641 35.1689 40.705 3.39641 
35.1689 37.7848 11.3567 -37.8373 46.2429 3.39641 -32.4957 49.3618 3.39641 
-32.4957 46.2429 8.54995 -24.0376 52.631 3.39641 -15.5796 53.8475 3.39641 
-7.1215 53.6725 3.39641 1.33657 52.4341 3.39641 9.79464 49.9866 3.39641 
9.79464 46.2429 11.6546 21.1772 46.2429 3.39641 18.2527 47.2582 3.39641 
18.2527 46.2429 6.0717 -24.0376 -48.7815 11.8545 -15.5796 -49.6346 11.8545 
-7.1215 -48.1153 11.8545 -29.0745 -46.7959 11.8545 -32.4957 -45.1125 11.8545 
-24.0376 -46.7959 14.0782 -15.5796 -46.7959 14.839 -3.56956 -46.7959 11.8545 
-7.1215 -46.7959 13.0454 1.33657 -44.9013 11.8545 9.79464 -41.7613 11.8545 
18.2527 -39.9342 11.8545 -39.977 -38.3378 11.8545 -40.9538 -37.176 11.8545 
-32.4957 -38.3378 17.3587 -24.0376 -38.3378 19.7448 -15.5796 -38.3378 20.271 
-7.1215 -38.3378 18.7834 1.33657 -38.3378 16.48 9.79464 -38.3378 15.0168 
25.974 -38.3378 11.8545 18.2527 -38.3378 13.5468 26.7108 -38.1416 11.8545 
35.1689 -35.0151 11.8545 -45.8219 -29.8798 11.8545 -40.9538 -29.8798 16.3397 
-32.4957 -29.8798 19.7641 1.33657 -29.8798 19.3678 9.79464 -29.8798 19.4809 
18.2527 -29.8798 19.0296 26.7108 -29.8798 17.0865 41.6426 -29.8798 11.8545 
35.1689 -29.8798 15.2618 43.6269 -28.5069 11.8545 -49.3944 -21.4217 11.8545 
-49.4119 -21.2976 11.8545 -40.9538 -21.4217 18.571 1.33657 -21.4217 20.2691 
18.2527 -21.4217 20.2639 26.7108 -21.4217 19.25 35.1689 -21.4217 18.4956 
51.6758 -21.4217 11.8545 43.6269 -21.4217 17.099 52.085 -20.9389 11.8545 
-50.3456 -12.9636 11.8545 -49.4119 -12.9636 12.9094 -40.9538 -12.9636 18.6894 
43.6269 -12.9636 20.0562 57.0352 -12.9636 11.8545 52.085 -12.9636 16.6515 
-49.803 -4.50555 11.8545 -49.4119 -1.74664 11.8545 -49.4119 -4.50555 12.3162 
-40.9538 -4.50555 18.6026 60.5406 -4.50555 11.8545 52.085 -4.50555 19.3107 
60.5431 -4.48929 11.8545 -48.3791 3.95252 11.8545 -40.9538 3.95252 17.5588 
52.085 3.95252 19.5056 61.6294 3.95252 11.8545 60.5431 8.68779 11.8545 
60.5431 3.95252 13.4274 -47.0206 12.4106 11.8545 -40.9538 12.4106 16.098 
[...]
POINT_DATA 526
SCALARS ImageScalars float
LOOKUP_TABLE default
0 0 0 0 0 0 0 0 0 
0 0 0 0 0 0 0 0 0 
0 0 0 0 0 0 0 0 0 
0 0 0 0 0 0 0 0 0 
0 0 0 0 0 0 0 0 0 
0 0 0 0 0 0 0 0 0 
0 0 0 0 0 0 0 0 0 
0 0 0 0 0 0 0 0 0 
0 0 0 0 0 0 0 0 0 
0 0 0 0 0 0 0 0 0 
0 0 0 0 0 0 0 0 0 
0 0 0 0 0 0 0 0 0 
0 0 0 0 0 0 0 0 0 
0 0 0 0 0 0 0 0 0 
0 0 0 0 0 0 0 0 0 
0 0 0 0 0 0 0 0 0 
0 0 0 0 0 0 0 0 0 
0 0 0 0 0 0 0 0 0 
0 0 0 0 0 0 0 0 0 
0 0 0 0 0 0 0 0 0 
0 0 0 0 0 0 0 0 0 
0 0 0 0 0 0 0 0 0 
0 0 0 0 0 0 0 0 0 
0 0 0 0 0 0 0 0 0 
0 0 0 0 0 0 0 0 0 
0 0 0 0 0 0 0 0 0 
0 0 0 0 0 0 0 0 0 
0 0 0 0 0 0 0 0 0 
0 0 0 0 0 0 0 0 0 
0 0 0 0 0 0 0 0 0 
0 0 0 0 0 0 0 0 0 
0 0 0 0 0 0 0 0 0 
0 0 0 0 0 0 0 0 0 
0 0 0 0 0 0 0 0 0 
0 0 0 0 0 0 0 0 0 
0 0 0 0 0 0 0 0 0 
0 0 0 0 0 0 0 0 0 
0 0 0 0 0 0 0 0 0 
0 0 0 0 0 0 0 0 0 
0 0 0 0 0 0 0 0 0 
0 0 0 0 0 0 0 0 0 
0 0 0 0 0 0 0 0 0 
0 0 0 0 0 0 0 0 0 
0 0 0 0 0 0 0 0 0 
0 0 0 0 0 0 0 0 0 
0 0 0 0 0 0 0 0 0 
0 0 0 0 0 0 0 0 0 
0 0 0 0 0 0 0 0 0 
0 0 0 0 0 0 0 0 0 
0 0 0 0 0 0 0 0 0 
0 0 0 0 0 0 0 0 0 
0 0 0 0 0 0 0 0 0 
0 0 0 0 0 0 0 0 0 
0 0 0 0 0 0 0 0 0 
0 0 0 0 0 0 0 0 0 
0 0 0 0 0 0 0 0 0 
0 0 0 0 0 0 0 0 0 
0 0 0 0 0 0 0 0 0 
0 0 0 0 
NORMALS Normals float
0.416087 0.608997 0.675274 0.232706 0.478501 0.84669 0.0121069 0.483737 0.87513 
-0.173514 0.516424 0.83857 -0.268639 0.70784 0.653296 0.442229 0.465887 0.766409 
0.274082 0.320457 0.906745 0.122625 0.15513 0.980254 -0.0279793 0.0862768 0.995878 
-0.0674785 0.0928982 0.993386 -0.0862326 0.232372 0.968797 -0.0869809 0.376737 0.922227 
-0.281831 0.475197 0.833522 -0.595754 0.511255 0.619431 0.516741 0.399845 0.757036 
0.29642 0.248902 0.922054 0.153505 0.0875949 0.984258 0.0138237 -0.0267037 0.999548 
-0.04824 -0.046093 0.997772 -0.0449153 -0.0642373 0.996923 0.0112375 -0.0268445 0.999576 
0.0113683 0.115229 0.993274 -0.187161 0.10541 0.976657 -0.573454 0.241948 0.782695 
0.383997 0.226882 0.895026 0.116966 0.0974038 0.988348 -0.00150302 -0.0650631 0.99788 
-0.0218961 -0.133581 0.990796 -0.0676693 -0.0858981 0.994003 -0.0488802 -0.0910809 0.994643 
0.105807 -0.093226 0.990007 0.0624871 -0.00508445 0.998033 -0.159809 -0.0171923 0.986998 
-0.476205 0.0786592 0.875809 0.664594 0.252996 0.703071 0.248018 0.101342 0.96344 
0.0276359 0.0115738 0.999551 -0.070469 -0.0592763 0.995751 -0.00425208 -0.132007 0.99124 
-0.0042291 0.024426 0.999693 -0.0522857 0.0124377 0.998555 0.103244 0.0349155 0.994043 
0.0787983 -0.044502 0.995897 -0.123754 -0.004939 0.992301 -0.326156 0.0948199 0.940549 
-0.493994 0.304267 0.814488 0.550632 0.188833 0.813109 0.164424 0.0910209 0.982181 
-0.0425132 0.0263107 0.998749 -0.144812 -0.0190174 0.989276 0.0568988 -0.0420864 0.997492 
0.0915005 0.0501857 0.99454 -0.0417812 -0.0249497 0.998815 0.0371275 0.0282474 0.998911 
0.0306612 -0.109326 0.993533 -0.0303399 -0.0155643 0.999418 -0.139315 0.137615 0.980639 
-0.327926 0.297225 0.896729 -0.542713 0.380729 0.748671 0.422996 0.0607917 0.90409 
0.0968039 0.00839848 0.995268 -0.0797506 -0.0100872 0.996764 -0.138897 -0.021121 0.990082 
0.0520369 0.0275096 0.998266 0.023231 -0.0897354 0.995695 -0.0671371 0.0272844 0.997371 
0.00971387 0.0105287 0.999897 0.0428703 -0.114972 0.992443 0.116097 -0.0507352 0.991941 
-0.0306319 0.052508 0.998151 -0.258035 0.074434 0.963264 -0.554389 0.136783 0.820941 
0.391471 -0.0490307 0.918883 0.0911231 -0.0872877 0.992007 -0.0717296 -0.00503641 0.997411 
-0.107815 0.0127251 0.99409 -0.000218933 0.0589449 0.998261 0.0716753 -0.113367 0.990965 
0.0592867 0.0104826 0.998186 -0.0960508 0.0154902 0.995256 -0.0243345 0.00698527 0.999679 
0.130216 -0.103926 0.986024 -0.0161335 -0.161544 0.986734 -0.221533 -0.123763 0.967267 
-0.48837 -0.107726 0.865962 0.441848 -0.158656 0.882949 0.145039 -0.136736 0.979932 
0.0198222 -0.087406 0.995976 -0.0734015 0.0493256 0.996082 -0.0688574 0.0613835 0.995736 
-0.0362838 0.00150892 0.99934 0.0705969 -0.0550134 0.995987 0.000585445 -0.0382629 0.999268 
-0.0839649 0.0272767 0.996095 -0.0395161 -0.151561 0.987658 -0.0613174 -0.2941 0.953806 
-0.237536 -0.374023 0.896484 -0.540734 -0.430969 0.722407 0.563433 -0.463831 0.68367 
0.181576 -0.316553 0.931034 0.122811 -0.203034 0.97144 0.0412741 -0.0997743 0.994154 
-0.0476458 -0.0481605 0.997703 -0.0475973 -0.0182001 0.998701 0.0145819 -0.0699166 0.997446 
-0.00837631 -0.118881 0.992873 -0.14517 -0.141289 0.979267 -0.208648 -0.248189 0.945975 
-0.266123 -0.486071 0.832415 0.350473 -0.470242 0.809964 0.230252 -0.355582 0.90584 
0.0839975 -0.299372 0.950432 0.00420631 -0.24576 0.969321 -0.055602 -0.238461 0.969559 
-0.0336683 -0.269916 0.962295 -0.0759103 -0.378634 0.922428 -0.213619 -0.458783 0.862488 
-0.365249 -0.572842 0.733788 0.173637 -0.602762 0.778799 0.0360475 -0.553722 0.831921 
-0.07627 -0.563931 0.822293 -0.138473 -0.606759 0.782731 0.417819 0.674739 0.608404 
0.223155 0.811908 0.539452 -0.0140264 0.860181 0.509797 -0.21389 0.86053 0.462319 
-0.284741 0.834229 0.472213 0.4592 0.641517 0.614485 0.50737 0.573398 0.643265 
0.584189 0.755974 0.295342 -0.254925 0.849904 0.461168 -0.253166 0.849077 0.463654 
-0.254917 0.864483 0.433228 -0.356467 0.778891 0.516004 -0.597234 0.521426 0.609447 
0.543955 0.540963 0.641461 0.585001 0.485559 0.64962 0.681677 0.632983 0.366945 
-0.602702 0.512665 0.611494 0.620543 0.435723 0.651975 -0.668152 0.26155 0.696537 
-0.801437 0.356609 0.480135 0.699952 0.344729 0.625483 0.719505 0.330601 0.61075 
0.755569 0.34966 0.553943 -0.640312 0.219064 0.736215 -0.581986 0.276646 0.764696 
-0.679427 0.276507 0.679649 0.766427 0.261325 0.58677 -0.536343 0.33673 0.773918 
-0.561557 0.397303 0.725813 -0.693427 0.412587 0.590704 0.83771 0.213316 0.502731 
-0.574365 0.384604 0.722624 -0.823466 0.378779 0.42241 0.877546 0.145869 0.456767 
-0.655748 0.151445 0.739635 -0.870512 0.109309 0.479854 0.878294 -0.0400221 0.476443 
0.984956 -0.0317959 0.169853 -0.688311 -0.111773 0.716753 -0.900031 -0.140505 0.412557 
0.827629 -0.240643 0.507071 -0.33165 -0.588068 0.737688 -0.545193 -0.432559 0.718093 
-0.542154 -0.437289 0.717528 0.660621 -0.478234 0.578681 0.601352 -0.534212 0.594132 
-0.318518 -0.58331 0.747192 -0.328513 -0.569498 0.753493 -0.377681 -0.660861 0.648552 
0.438952 -0.526063 0.728409 0.385124 -0.547361 0.743018 0.283527 -0.611305 0.738864 
-0.192106 -0.670787 0.716338 -0.270163 -0.642562 0.717026 -0.376111 -0.595485 0.709886 
-0.375661 -0.601722 0.704847 -0.423079 -0.79122 0.44156 0.237498 -0.648771 0.722974 
0.327433 -0.740236 0.587229 0.191666 -0.652945 0.732753 0.0345387 -0.665244 0.745827 
-0.0878734 -0.659265 0.746759 -0.176504 -0.666123 0.724656 -0.145803 -0.645381 0.749817 
-0.220497 -0.749213 0.624549 -0.341071 -0.879494 0.331904 0.582636 0.775762 0.24234 
0.385096 0.905956 0.17591 0.136227 0.988122 0.0711152 -0.0896669 0.99597 -0.00194187 
-0.242899 0.968541 -0.0541059 -0.286753 0.954445 -0.0825134 -0.243592 0.967336 -0.0701667 
0.594358 0.765844 0.245401 0.693045 0.677175 0.247228 -0.294042 0.954806 -0.0434061 
-0.220475 0.946209 -0.236809 -0.320026 0.946957 -0.0292465 -0.555748 0.825958 0.0945357 
0.71933 0.648037 0.250224 -0.720424 0.680174 0.135473 -0.819025 0.500969 0.279693 
0.850861 0.479377 0.21502 0.860947 0.464272 0.207898 -0.832325 0.429443 0.350449 
0.934381 0.320819 0.154944 -0.761905 0.388991 0.517868 -0.751188 0.399424 0.525526 
-0.832229 0.503773 0.231532 0.971978 0.20004 0.123458 -0.736496 0.424945 0.526303 
-0.823631 0.379332 0.421592 0.988904 0.148472 0.00509969 -0.824102 0.378647 0.421286 
0.985364 0.148879 -0.0830256 0.991796 0.0864539 -0.0941575 -0.927593 0.086243 0.363502 
0.995273 -0.0153178 -0.0959012 0.987846 -0.118533 -0.100551 0.977921 -0.0243157 -0.207554 
-0.951555 -0.153849 0.266219 -0.905922 -0.337983 0.255095 0.970761 -0.222288 -0.0906108 
-0.82543 -0.50363 0.254994 -0.637156 -0.735696 0.229749 0.911364 -0.410693 -0.0273312 
0.77041 -0.637045 0.025334 -0.616985 -0.750328 0.237356 -0.511151 -0.801602 0.310096 
-0.672533 -0.737362 -0.0632159 0.767457 -0.640542 0.0267447 0.583229 -0.804152 0.114821 
-0.41782 -0.871855 0.255531 -0.462618 -0.828759 0.314869 -0.43177 -0.839903 0.328844 
0.551995 -0.824005 0.127735 0.388622 -0.902615 0.185094 0.208617 -0.955454 0.208775 
0.0257619 -0.975342 0.219189 -0.0834514 -0.968703 0.233776 -0.193296 -0.950232 0.244329 
-0.27745 -0.938005 0.207767 -0.368559 -0.904648 0.213952 -0.344153 -0.91738 0.199932 
0.547092 0.830919 -0.101311 0.309325 0.934123 -0.178134 0.0477272 0.961163 -0.271823 
-0.172 0.932839 -0.316587 -0.297655 0.871078 -0.390672 -0.287266 0.865379 -0.410606 
0.581868 0.807711 -0.0950414 0.703885 0.702441 -0.105468 0.523595 0.804722 -0.27977 
-0.276478 0.737326 -0.616368 -0.248378 0.881809 -0.4009 -0.277691 0.849026 -0.449492 
-0.19448 0.896437 -0.39822 -0.21482 0.894581 -0.391889 -0.469573 0.828908 -0.303995 
0.746714 0.656643 -0.10601 0.688065 0.619227 -0.378318 -0.192044 0.699172 -0.688678 
-0.5745 0.775387 -0.262154 -0.407275 0.753943 -0.515458 -0.696197 0.699804 -0.159954 
0.890216 0.433809 -0.139014 0.896471 0.420157 -0.140739 -0.763206 0.639767 -0.0906359 
-0.57968 0.65827 -0.480262 -0.827834 0.557674 0.0607554 0.947219 0.274397 -0.165776 
0.816844 0.208958 -0.537682 -0.835029 0.543938 0.0828085 -0.755742 0.573123 -0.316833 
0.965365 0.124938 -0.229042 -0.870892 0.477629 0.115831 -0.919996 0.388325 0.053014 
0.945229 0.00686974 -0.326336 -0.956712 0.291003 0.00444515 -0.874886 0.227449 -0.4276 
0.876937 0.0174871 -0.480287 0.752493 -0.095741 -0.651604 -0.999478 0.0206072 -0.0248816 
0.80927 -0.0415216 -0.585968 0.701529 -0.0706959 -0.709125 -0.966837 -0.223826 -0.123 
-0.89224 -0.425785 -0.150382 -0.855331 -0.281417 -0.434987 0.82421 -0.169848 -0.540212 
0.707089 -0.152342 -0.690519 -0.840518 -0.515705 -0.166067 0.802232 -0.329826 -0.497633 
0.749748 -0.456371 -0.479169 0.731479 -0.334959 -0.59392 -0.53627 -0.838118 -0.0998673 
-0.676084 -0.728796 -0.108474 -0.674127 -0.730711 -0.107768 -0.674749 -0.727816 -0.122467 
0.694928 -0.571617 -0.436267 0.618629 -0.707706 -0.341247 0.583703 -0.455016 -0.672497 
-0.351661 -0.927646 -0.125729 -0.497336 -0.862508 -0.0934681 -0.432386 -0.897711 -0.0846039 
-0.37404 -0.785271 -0.4934 0.547921 -0.776913 -0.310143 0.443841 -0.847816 -0.290194 
0.437162 -0.710718 -0.551152 0.246878 -0.937987 -0.243374 0.0566213 -0.981655 -0.182064 
-0.0797961 -0.98581 -0.147686 -0.215401 -0.959441 -0.181868 -0.286577 -0.939529 -0.187505 
-0.252814 -0.782106 -0.569557 -0.327711 -0.930422 -0.164075 -0.315488 -0.931181 -0.182674 
-0.30103 -0.907644 -0.292511 0.210413 0.799899 -0.56204 -0.0156814 0.786724 -0.617106 
-0.219694 0.702103 -0.677337 0.368702 0.774639 -0.513803 0.480104 0.726739 -0.491275 
0.188554 0.733936 -0.652522 -0.0419643 0.689506 -0.723064 -0.241789 0.685763 -0.686489 
-0.220099 0.661175 -0.71722 -0.255988 0.663055 -0.703441 -0.197262 0.711506 -0.674424 
-0.159889 0.733139 -0.661017 0.650998 0.589083 -0.47873 0.667257 0.564422 -0.486 
0.395994 0.444142 -0.803695 0.140938 0.348287 -0.926732 -0.0467332 0.350553 -0.935376 
-0.204052 0.370287 -0.906229 -0.190113 0.452177 -0.871432 -0.140658 0.615889 -0.775175 
-0.187623 0.696174 -0.692921 -0.154864 0.685515 -0.711398 -0.191055 0.689395 -0.698736 
-0.336507 0.625844 -0.703621 0.745333 0.390719 -0.540201 0.549236 0.321357 -0.771407 
0.265342 0.190021 -0.945244 -0.08291 0.197775 -0.976735 -0.0173577 0.2971 -0.954689 
-0.134188 0.309157 -0.941496 -0.195746 0.374124 -0.906485 -0.478402 0.612499 -0.629267 
-0.294885 0.480461 -0.825954 -0.502691 0.622264 -0.600074 0.815615 0.208534 -0.539709 
0.815738 0.205887 -0.540539 0.433336 0.112885 -0.894135 0.00515844 0.143597 -0.989623 
-0.106498 0.112663 -0.98791 -0.10201 0.197313 -0.975019 -0.119203 0.336612 -0.934068 
-0.705431 0.565907 -0.426751 -0.31648 0.445594 -0.837428 -0.714714 0.559305 -0.419954 
0.793681 0.0254265 -0.607803 0.759623 0.0211179 -0.650021 0.363849 0.00112583 -0.931457 
-0.247456 0.26464 -0.932057 -0.791934 0.435237 -0.428263 -0.553925 0.36678 -0.747422 
0.777202 -0.0861876 -0.623321 0.760471 -0.0925652 -0.64274 0.764907 -0.0870705 -0.638229 
0.409742 -0.0593871 -0.910266 -0.874677 0.227352 -0.428079 -0.437999 0.1426 -0.887594 
-0.874794 0.226844 -0.428109 0.714947 -0.110353 -0.690416 0.474818 -0.131407 -0.870218 
-0.387828 -0.0921446 -0.917114 -0.889349 -0.046713 -0.454837 -0.839232 -0.185814 -0.51104 
-0.841881 -0.0574329 -0.536598 0.637621 -0.0990163 -0.76396 0.48829 -0.138496 -0.861622 
0.259921 -0.120934 -0.958027 -0.767396 -0.297793 -0.567823 -0.478056 -0.250344 -0.841897 
0.598526 -0.14812 -0.787291 0.486036 -0.144744 -0.861869 0.298497 -0.125854 -0.946076 
-0.311262 -0.314809 -0.896667 -0.655173 -0.469305 -0.592031 -0.619955 -0.528748 -0.579725 
-0.576659 -0.434764 -0.691698 0.548409 -0.256584 -0.795872 0.54151 -0.32517 -0.775262 
0.522785 -0.241799 -0.817453 0.348705 -0.204596 -0.914628 0.191677 -0.129742 -0.972845 
-0.104516 -0.323403 -0.940472 -0.368531 -0.769857 -0.521061 -0.276273 -0.413754 -0.867456 
-0.56224 -0.598818 -0.570354 -0.511911 -0.646014 -0.566227 -0.486883 -0.551783 -0.677112 
0.499403 -0.407429 -0.76459 0.412404 -0.534662 -0.737604 0.39786 -0.375114 -0.837255 
0.250107 -0.342192 -0.905733 0.113907 -0.278742 -0.953587 0.0230978 -0.257525 -0.965996 
-0.0887387 -0.324404 -0.941747 -0.250577 -0.774377 -0.580992 -0.135041 -0.447848 -0.883853 
-0.237804 -0.781269 -0.57712 -0.160677 -0.552062 -0.818175 -0.36321 -0.772409 -0.521021 
-0.2836 -0.787632 -0.546999 -0.24974 -0.66133 -0.7073 0.319459 -0.637672 -0.700943 
0.269424 -0.666723 -0.694903 0.269932 -0.628469 -0.729495 0.117771 -0.757313 -0.642345 
0.132548 -0.621825 -0.771858 -0.0591581 -0.787085 -0.614001 -0.0313797 -0.627385 -0.778077 
-0.248902 -0.775973 -0.57958 -0.193455 -0.786016 -0.587158 -0.173164 -0.689093 -0.70368 
0.13366 0.268404 -0.953989 -0.0463521 0.344665 -0.937581 -0.169236 0.186685 -0.967734 
0.216094 0.163196 -0.962637 0.227813 0.131985 -0.964718 0.123076 0.111209 -0.986146 
-0.0342025 0.0956266 -0.99483 -0.127278 0.145458 -0.981143 -0.154562 0.114455 -0.981331 
-0.00632211 0.232639 -0.972543 0.264488 0.0657824 -0.962143 0.182043 0.0447092 -0.982274 
0.0462117 -0.0548583 -0.997424 -0.0459035 -0.0626374 -0.99698 -0.00168457 0.140418 -0.990091 
-0.103565 0.0923582 -0.990325 0.00478451 0.146056 -0.989265 0.00541788 0.140948 -0.990002 
-0.0997769 0.117218 -0.988081 -8.89856e-05 0.185321 -0.982678 -0.107382 0.114789 -0.987569 
-0.00664424 0.181831 -0.983307 -0.0626166 0.268797 -0.961159 0.138919 -0.0122458 -0.990228 
0.107829 -0.0135549 -0.994077 0.0241715 -0.0697839 -0.997269 0.107734 -0.0622745 -0.992227 
0.0532186 0.177684 -0.982648 0.0133279 0.0508763 -0.998616 -0.0355707 0.17951 -0.983113 
-0.121559 0.156226 -0.980213 0.0241325 0.177002 -0.983915 -0.210778 0.257415 -0.943032 
-0.0331277 0.21906 -0.975149 -0.236255 0.244589 -0.940404 0.186298 -0.00706957 -0.982468 
0.107568 0.0102174 -0.994145 -0.00237526 0.051728 -0.998658 0.21391 0.0951895 -0.972205 
-0.0090117 0.0286602 -0.999549 0.00875193 -0.0128359 -0.999879 0.10945 0.112676 -0.987585 
-0.117735 0.134428 -0.983904 -0.0327302 0.114487 -0.992885 -0.0159345 0.0682429 -0.997541 
-0.328242 0.12711 -0.936002 -0.165971 0.116721 -0.979199 0.242916 -0.0789688 -0.966828 
0.227787 -0.0910388 -0.969446 0.208171 -0.0712032 -0.975497 0.100486 0.0252213 -0.994619 
0.0962158 -0.00446416 -0.99535 -0.0385001 -0.13524 -0.990065 0.102629 0.159047 -0.981922 
0.0891238 -0.0225779 -0.995765 -0.122067 -0.0369997 -0.991832 -0.0431703 -0.00586533 -0.99905 
-0.0298185 -0.0353767 -0.998929 -0.313008 -0.0860199 -0.945847 -0.171901 -0.0745308 -0.982291 
0.176221 -0.0955265 -0.979704 0.0806941 -0.0637831 -0.994696 0.0365999 -0.091542 -0.995128 
0.147949 -0.104044 -0.983507 0.118316 0.0147512 -0.992866 -0.0701908 -0.151313 -0.985991 
-0.0907022 -0.0808123 -0.992594 -0.0372709 -0.0531947 -0.997888 -0.0854497 -0.0845802 -0.992746 
-0.2489 -0.17481 -0.952623 -0.238272 -0.197666 -0.95087 -0.221682 -0.171564 -0.959908 
0.138282 -0.0693989 -0.987958 0.139593 -0.0745841 -0.987396 0.132824 -0.06753 -0.988836 
0.0552943 -0.0167991 -0.998329 0.0727812 -0.030886 -0.99687 0.0483992 -0.133074 -0.989924 
-0.00864314 -0.147921 -0.988961 -0.0238227 -0.104358 -0.994254 -0.099688 -0.306625 -0.946596 
-0.0462517 -0.107801 -0.993096 -0.212896 -0.223703 -0.951122 -0.198209 -0.255328 -0.94632 
-0.162042 -0.177039 -0.970773 0.135791 -0.109748 -0.98464 0.0877079 -0.152555 -0.984395 
0.0729161 -0.0877471 -0.993471 0.0244686 -0.231405 -0.97255 0.0284451 -0.0661228 -0.997406 
-0.0549053 -0.252206 -0.966115 0.00262934 -0.135683 -0.990749 -0.0704526 -0.277834 -0.958042 
-0.0391108 -0.193182 -0.980383 -0.090943 -0.299964 -0.949606 -0.0669244 -0.26824 -0.961025 
-0.0571826 -0.243475 -0.96822 
