# vtk DataFile Version 4.2
vtk output
ASCII
DATASET POLYDATA
POINTS 540 float
0.0382811 -34.4776 -14.7256 7.0705 -34.4776 -15.1536 14.1027 -34.4776 -14.8428 
-21.0584 -27.4454 -15.5972 -14.0262 -27.4454 -16.624 -6.99394 -27.4454 -17.4151 
0.0382811 -27.4454 -18.0474 7.0705 -27.4454 -18.2249 14.1027 -27.4454 -18.0253 
21.1349 -27.4454 -17.9651 28.1672 -27.4454 -16.1369 -28.0906 -20.4132 -15.9509 
-21.0584 -20.4132 -17.3666 -14.0262 -20.4132 -18.372 -6.99394 -20.4132 -19.0764 
0.0382811 -20.4132 -19.238 7.0705 -20.4132 -19.0556 14.1027 -20.4132 -19.2912 
21.1349 -20.4132 -19.7536 28.1672 -20.4132 -18.9058 35.1994 -20.4132 -16.735 
-35.1228 -13.381 -15.8145 -28.0906 -13.381 -17.6095 -21.0584 -13.381 -18.5847 
-14.0262 -13.381 -19.5282 -6.99394 -13.381 -20.1172 0.0382811 -13.381 -19.9524 
7.0705 -13.381 -19.4913 14.1027 -13.381 -19.6648 21.1349 -13.381 -20.3745 
28.1672 -13.381 -20.4972 35.1994 -13.381 -19.0776 42.2316 -13.381 -15.0034 
-35.1228 -6.34876 -17.0287 -28.0906 -6.34876 -18.4874 -21.0584 -6.34876 -19.1881 
-14.0262 -6.34876 -20.5693 -6.99394 -6.34876 -20.7195 0.0382811 -6.34876 -19.9381 
7.0705 -6.34876 -20.5736 14.1027 -6.34876 -19.7431 21.1349 -6.34876 -20.2325 
28.1672 -6.34876 -20.587 35.1994 -6.34876 -19.7131 42.2316 -6.34876 -16.3721 
-42.155 0.683454 -14.3981 -35.1228 0.683454 -17.4129 -28.0906 0.683454 -18.4983 
-21.0584 0.683454 -18.4452 -14.0262 0.683454 -19.1639 -6.99394 0.683454 -19.6264 
0.0382811 0.683454 -18.7592 7.0705 0.683454 -20.7084 14.1027 0.683454 -19.2559 
21.1349 0.683454 -19.8497 28.1672 0.683454 -20.3594 35.1994 0.683454 -19.7486 
42.2316 0.683454 -16.6966 -35.1228 7.71567 -16.8591 -28.0906 7.71567 -17.8868 
-21.0584 7.71567 -17.9091 -14.0262 7.71567 -17.5051 -6.99394 7.71567 -18.4851 
0.0382811 7.71567 -19.697 7.0705 7.71567 -20.3955 14.1027 7.71567 -19.5749 
21.1349 7.71567 -19.7309 28.1672 7.71567 -20.5289 35.1994 7.71567 -19.6365 
42.2316 7.71567 -16.1817 -35.1228 14.7479 -16.0938 -28.0906 14.7479 -17.4986 
-21.0584 14.7479 -17.9054 -14.0262 14.7479 -18.1739 -6.99394 14.7479 -18.6898 
0.0382811 14.7479 -19.377 7.0705 14.7479 -20.2707 14.1027 14.7479 -20.4128 
21.1349 14.7479 -20.2098 28.1672 14.7479 -19.6867 35.1994 14.7479 -18.0637 
42.2316 14.7479 -14.1122 -28.0906 21.7801 -16.3717 -21.0584 21.7801 -17.5068 
-14.0262 21.7801 -18.3039 -6.99394 21.7801 -18.4958 0.0382811 21.7801 -18.619 
7.0705 21.7801 -19.6395 14.1027 21.7801 -20.1696 21.1349 21.7801 -19.8794 
28.1672 21.7801 -18.5979 35.1994 21.7801 -15.2462 -21.0584 28.8123 -16.043 
-14.0262 28.8123 -16.753 -6.99394 28.8123 -17.0791 0.0382811 28.8123 -17.1387 
7.0705 28.8123 -18.0916 14.1027 28.8123 -18.359 21.1349 28.8123 -17.4777 
28.1672 28.8123 -14.516 7.0705 35.8445 -14.0358 0.0382811 -35.3929 -13.9665 
7.0705 -35.9012 -13.9665 14.1027 -35.5154 -13.9665 -21.0584 -30.5891 -13.9665 
-21.0584 -34.4776 -10.8385 -14.0262 -32.5564 -13.9665 -14.0262 -34.4776 -12.5787 
-6.68623 -34.4776 -13.9665 -6.99394 -34.4125 -13.9665 -6.99394 -34.4776 -13.9229 
18.3423 -34.4776 -13.9665 21.1349 -33.5883 -13.9665 21.1349 -34.4776 -13.0855 
28.1672 -30.6915 -13.9665 28.1672 -34.4776 -8.65671 -35.1228 -27.4454 -8.31421 
-25.7034 -27.4454 -13.9665 -28.0906 -25.2827 -13.9665 -28.0906 -27.4454 -12.9206 
32.823 -27.4454 -13.9665 35.1994 -25.4256 -13.9665 35.1994 -27.4454 -11.5911 
-33.1445 -20.4132 -13.9665 -35.1228 -18.4259 -13.9665 -35.1228 -20.4132 -13.0496 
38.9275 -20.4132 -13.9665 42.2316 -15.3021 -13.9665 42.2316 -20.4132 -8.16787 
-38.9171 -13.381 -13.9665 -42.155 -13.381 -11.5462 43.1587 -13.381 -13.9665 
-41.4059 -6.34876 -13.9665 -42.155 -2.88617 -13.9665 -42.155 -6.34876 -13.5075 
44.7046 -6.34876 -13.9665 -42.7036 0.683454 -13.9665 -42.155 5.9345 -13.9665 
45.1361 0.683454 -13.9665 -41.8598 7.71567 -13.9665 -42.155 7.71567 -13.8088 
44.4222 7.71567 -13.9665 -39.7061 14.7479 -13.9665 -42.155 14.7479 -12.1066 
-35.1228 20.9487 -13.9665 42.3754 14.7479 -13.9665 42.2316 14.9988 -13.9665 
-34.3045 21.7801 -13.9665 -35.1228 21.7801 -13.5767 -28.0906 27.6463 -13.9665 
37.0865 21.7801 -13.9665 35.1994 23.7047 -13.9665 -35.1228 28.8123 -7.32743 
-26.8051 28.8123 -13.9665 -28.0906 28.8123 -13.3067 -21.0584 31.9404 -13.9665 
-14.0262 33.5202 -13.9665 -6.99394 34.4494 -13.9665 0.0382811 35.044 -13.9665 
14.1027 35.4381 -13.9665 21.1349 33.2529 -13.9665 29.092 28.8123 -13.9665 
28.1672 29.4421 -13.9665 35.1994 28.8123 -7.38848 -21.0584 35.8445 -8.74168 
-14.0262 35.8445 -11.5999 -6.99394 35.8445 -12.7079 6.14148 35.8445 -13.9665 
0.0382811 35.8445 -13.3578 8.40214 35.8445 -13.9665 7.0705 35.9211 -13.9665 
14.1027 35.8445 -13.4854 21.1349 35.8445 -9.96358 -21.0584 -37.1618 -6.93426 
-14.0262 -38.9296 -6.93426 -6.99394 -39.8902 -6.93426 -6.99394 -41.5099 -1.01766 
0.0382811 -40.4069 -6.93426 0.0382811 -41.5099 -1.15655 7.0705 -40.5495 -6.93426 
14.1027 -39.9542 -6.93426 21.1349 -38.3529 -6.93426 28.1672 -35.2706 -6.93426 
-35.1228 -28.6922 -6.93426 -27.0022 -34.4776 -6.93426 -28.0906 -33.861 -6.93426 
-28.0906 -34.4776 -5.2431 29.3893 -34.4776 -6.93426 35.1994 -29.959 -6.93426 
-36.4118 -27.4454 -6.93426 37.7114 -27.4454 -6.93426 42.2316 -21.2367 -6.93426 
-41.9526 -20.4132 -6.93426 -42.155 -20.0918 -6.93426 -42.155 -20.4132 -6.36743 
42.7687 -20.4132 -6.93426 -45.4854 -13.381 -6.93426 46.1964 -13.381 -6.93426 
-47.6349 -6.34876 -6.93426 48.1183 -6.34876 -6.93426 -48.517 0.683454 -6.93426 
-49.1872 0.683454 -2.35536 48.7254 0.683454 -6.93426 49.2638 0.683454 -1.90714 
-47.9958 7.71567 -6.93426 48.2858 7.71567 -6.93426 -45.8565 14.7479 -6.93426 
-42.155 21.4141 -6.93426 46.3305 14.7479 -6.93426 42.2316 21.7397 -6.93426 
-41.9126 21.7801 -6.93426 -42.155 21.7801 -6.00777 42.2028 21.7801 -6.93426 
42.2316 21.7801 -6.77769 -35.4659 28.8123 -6.93426 -35.1228 29.0893 -6.93426 
-28.0906 33.7524 -6.93426 28.1672 33.8562 -6.93426 35.4853 28.8123 -6.93426 
35.1994 29.0584 -6.93426 -23.3127 35.8445 -6.93426 -21.0584 36.7541 -6.93426 
-14.0262 38.5912 -6.93426 -6.99394 39.5018 -6.93426 0.0382811 40.0473 -6.93426 
7.0705 40.2005 -6.93426 14.1027 39.3924 -6.93426 24.2815 35.8445 -6.93426 
21.1349 37.281 -6.93426 -6.99394 -41.7826 0.0979603 0.0382811 -41.7259 0.0979603 
-28.0906 -36.0687 0.0979603 -21.0584 -39.0664 0.0979603 -8.74957 -41.5099 0.0979603 
-14.0262 -40.7164 0.0979603 -6.99394 -41.5099 1.36661 4.27076 -41.5099 0.0979603 
0.0382811 -41.5099 0.968165 7.0705 -41.364 0.0979603 14.1027 -40.6225 0.0979603 
21.1349 -38.8156 0.0979603 28.1672 -35.4141 0.0979603 -30.7507 -34.4776 0.0979603 
-35.1228 -31.3611 0.0979603 29.6402 -34.4776 0.0979603 28.1672 -34.4776 2.57524 
35.1994 -30.225 0.0979603 -39.181 -27.4454 0.0979603 -42.155 -23.4405 0.0979603 
37.982 -27.4454 0.0979603 35.1994 -27.4454 6.27891 42.2316 -21.9058 0.0979603 
-44.0544 -20.4132 0.0979603 43.1987 -20.4132 0.0979603 42.2316 -20.4132 3.25285 
-46.9855 -13.381 0.0979603 46.7553 -13.381 0.0979603 -48.5937 -6.34876 0.0979603 
-49.1872 -1.83851 0.0979603 48.7995 -6.34876 0.0979603 49.2638 -1.55479 0.0979603 
-49.5277 0.683454 0.0979603 -49.1872 4.21394 0.0979603 -49.1872 0.683454 1.56586 
49.4696 0.683454 0.0979603 49.2638 3.79295 0.0979603 49.2638 0.683454 1.21984 
-48.8631 7.71567 0.0979603 48.9947 7.71567 0.0979603 -47.2053 14.7479 0.0979603 
47.1158 14.7479 0.0979603 -43.589 21.7801 0.0979603 -42.155 23.7162 0.0979603 
43.2807 21.7801 0.0979603 42.2316 23.1318 0.0979603 42.2316 21.7801 4.48873 
-37.331 28.8123 0.0979603 -35.1228 30.5719 0.0979603 -28.0906 34.6875 0.0979603 
28.1672 35.1874 0.0979603 37.0578 28.8123 0.0979603 35.1994 30.4464 0.0979603 
35.1994 28.8123 7.01678 -25.2795 35.8445 0.0979603 -21.0584 37.5111 0.0979603 
-21.0584 35.8445 6.8082 -14.0262 39.3718 0.0979603 -6.99394 40.3178 0.0979603 
0.0382811 40.6853 0.0979603 7.0705 40.5826 0.0979603 14.1027 39.8617 0.0979603 
26.6928 35.8445 0.0979603 21.1349 38.0984 0.0979603 -28.0906 -34.7279 7.13018 
-21.0584 -37.7793 7.13018 -14.0262 -39.321 7.13018 -6.99394 -40.0734 7.13018 
0.0382811 -39.6885 7.13018 7.0705 -39.0217 7.13018 14.1027 -37.893 7.13018 
21.1349 -35.9289 7.13018 -28.5031 -34.4776 7.13018 -35.1228 -29.5928 7.13018 
-28.0906 -34.4776 7.55524 -21.0584 -34.4776 12.2818 -14.0262 -34.4776 13.7532 
-6.99394 -34.4776 13.778 0.0382811 -34.4776 13.0872 7.0705 -34.4776 12.4124 
14.1027 -34.4776 11.269 24.2869 -34.4776 7.13018 21.1349 -34.4776 9.05564 
28.1672 -32.3882 7.13018 -37.1762 -27.4454 7.13018 -42.155 -20.7306 7.13018 
-35.1228 -27.4454 10.0337 34.6899 -27.4454 7.13018 28.1672 -27.4454 11.9502 
35.1994 -26.9865 7.13018 -42.3498 -20.4132 7.13018 -42.155 -20.4132 7.45953 
40.7967 -20.4132 7.13018 35.1994 -20.4132 12.7305 42.2316 -18.277 7.13018 
-45.1533 -13.381 7.13018 -42.155 -13.381 11.8148 44.9418 -13.381 7.13018 
42.2316 -13.381 11.3266 -46.8378 -6.34876 7.13018 -42.155 -6.34876 14.1623 
47.2996 -6.34876 7.13018 -47.8727 0.683454 7.13018 48.1003 0.683454 7.13018 
-47.568 7.71567 7.13018 47.5683 7.71567 7.13018 -45.8797 14.7479 7.13018 
-42.155 14.7479 13.7878 45.6329 14.7479 7.13018 42.2316 20.678 7.13018 
42.2316 14.7479 12.7517 -42.3061 21.7801 7.13018 -42.155 21.971 7.13018 
-42.155 21.7801 7.38468 41.5062 21.7801 7.13018 35.1994 28.7792 7.13018 
-35.194 28.8123 7.13018 -35.1228 28.8657 7.13018 -35.1228 28.8123 7.22131 
-28.0906 32.9818 7.13018 -28.0906 28.8123 13.6957 -21.0584 35.7586 7.13018 
35.1588 28.8123 7.13018 28.1672 33.5369 7.13018 28.1672 28.8123 13.6903 
-20.7486 35.8445 7.13018 -14.0262 37.5586 7.13018 -14.0262 35.8445 10.1328 
-6.99394 38.3205 7.13018 -6.99394 35.8445 11.2891 0.0382811 38.3193 7.13018 
0.0382811 35.8445 11.0805 7.0705 38.0601 7.13018 7.0705 35.8445 10.4973 
14.1027 37.661 7.13018 14.1027 35.8445 9.95853 22.4179 35.8445 7.13018 
21.1349 36.3098 7.13018 21.1349 35.8445 7.96548 -28.0906 -29.1721 14.1624 
-21.0584 -32.4989 14.1624 -14.0262 -33.9574 14.1624 -6.99394 -33.8339 14.1624 
0.0382811 -32.5861 14.1624 7.0705 -31.8916 14.1624 14.1027 -30.6151 14.1624 
21.1349 -28.8135 14.1624 -30.448 -27.4454 14.1624 -35.1228 -22.2502 14.1624 
[...]
POINT_DATA 540
SCALARS ImageScalars float
LOOKUP_TABLE default
0 0 0 0 0 0 0 0 0 
0 0 0 0 0 0 0 0 0 
0 0 0 0 0 0 0 0 0 
0 0 0 0 0 0 0 0 0 
0 0 0 0 0 0 0 0 0 
0 0 0 0 0 0 0 0 0 
0 0 0 0 0 0 0 0 0 
0 0 0 0 0 0 0 0 0 
0 0 0 0 0 0 0 0 0 
0 0 0 0 0 0 0 0 0 
0 0 0 0 0 0 0 0 0 
0 0 0 0 0 0 0 0 0 
0 0 0 0 0 0 0 0 0 
0 0 0 0 0 0 0 0 0 
0 0 0 0 0 0 0 0 0 
0 0 0 0 0 0 0 0 0 
0 0 0 0 0 0 0 0 0 
0 0 0 0 0 0 0 0 0 
0 0 0 0 0 0 0 0 0 
0 0 0 0 0 0 0 0 0 
0 0 0 0 0 0 0 0 0 
0 0 0 0 0 0 0 0 0 
0 0 0 0 0 0 0 0 0 
0 0 0 0 0 0 0 0 0 
0 0 0 0 0 0 0 0 0 
0 0 0 0 0 0 0 0 0 
0 0 0 0 0 0 0 0 0 
0 0 0 0 0 0 0 0 0 
0 0 0 0 0 0 0 0 0 
0 0 0 0 0 0 0 0 0 
0 0 0 0 0 0 0 0 0 
0 0 0 0 0 0 0 0 0 
0 0 0 0 0 0 0 0 0 
0 0 0 0 0 0 0 0 0 
0 0 0 0 0 0 0 0 0 
0 0 0 0 0 0 0 0 0 
0 0 0 0 0 0 0 0 0 
0 0 0 0 0 0 0 0 0 
0 0 0 0 0 0 0 0 0 
0 0 0 0 0 0 0 0 0 
0 0 0 0 0 0 0 0 0 
0 0 0 0 0 0 0 0 0 
0 0 0 0 0 0 0 0 0 
0 0 0 0 0 0 0 0 0 
0 0 0 0 0 0 0 0 0 
0 0 0 0 0 0 0 0 0 
0 0 0 0 0 0 0 0 0 
0 0 0 0 0 0 0 0 0 
0 0 0 0 0 0 0 0 0 
0 0 0 0 0 0 0 0 0 
0 0 0 0 0 0 0 0 0 
0 0 0 0 0 0 0 0 0 
0 0 0 0 0 0 0 0 0 
0 0 0 0 0 0 0 0 0 
0 0 0 0 0 0 0 0 0 
0 0 0 0 0 0 0 0 0 
0 0 0 0 0 0 0 0 0 
0 0 0 0 0 0 0 0 0 
0 0 0 0 0 0 0 0 0 
0 0 0 0 0 0 0 0 0 

NORMALS Normals float
0.0771404 0.58525 0.807175 0.00745785 0.579789 0.814732 -0.102972 0.598295 0.794632 
0.226052 0.36307 0.903925 0.121156 0.347654 0.929762 0.0956175 0.331025 0.938765 
0.0538731 0.288252 0.956038 -0.0019258 0.247041 0.969003 -0.0171629 0.283783 0.958735 
-0.119057 0.362287 0.924432 -0.30692 0.485673 0.818487 0.265905 0.295995 0.917432 
0.16171 0.206098 0.965077 0.118222 0.199597 0.97272 0.0593396 0.179884 0.981896 
-0.00135375 0.128437 0.991717 0.00375084 0.0862814 0.996264 0.0481407 0.112674 0.992465 
-0.0278665 0.158149 0.987022 -0.187111 0.275443 0.942932 -0.457819 0.376391 0.805439 
0.346016 0.233459 0.908719 0.188957 0.165132 0.968001 0.1364 0.125489 0.982674 
0.107672 0.151681 0.982547 0.029554 0.117258 0.992662 -0.0440607 0.049232 0.997815 
-0.0203626 0.105723 0.994187 0.0622774 0.0317932 0.997552 0.0590472 0.0320464 0.997741 
-0.0809753 0.120744 0.989375 -0.326953 0.192044 0.925322 -0.694935 0.289726 0.658122 
0.303688 0.110293 0.946366 0.149323 0.0656223 0.986609 0.141114 -0.0102646 0.98994 
0.111611 -0.021294 0.993524 -0.045322 -0.0302582 0.998514 -0.0112999 -0.0807812 0.996668 
-0.014388 0.0867869 0.996123 -0.0225685 -0.0289901 0.999325 0.0599546 -0.037158 0.997509 
-0.0355114 -0.0100123 0.999319 -0.252048 0.0417819 0.966812 -0.629962 0.0998394 0.770182 
0.541531 0.0162822 0.840523 0.254571 -0.011675 0.966984 0.0690263 -0.0426402 0.996703 
0.044756 -0.0925407 0.994703 0.0844157 -0.221753 0.971442 -0.0284849 -0.16307 0.986203 
0.0845814 -0.0195611 0.996225 0.0279347 -0.0130179 0.999525 -0.0597159 -0.0127612 0.998134 
0.0782383 -0.0355569 0.9963 -0.00694658 -0.00440245 0.999966 -0.22123 -0.00466197 0.975211 
-0.595986 -0.00921806 0.802942 0.251786 -0.0934171 0.963264 0.0703022 -0.0728107 0.994865 
-0.0270968 -0.0380853 0.998907 0.0398131 -0.0646855 0.997111 0.153623 -0.0610433 0.986242 
0.136329 0.0412152 0.989806 -0.0080029 -0.0309866 0.999488 -0.0478564 0.083367 0.995369 
0.0660281 0.0253725 0.997495 -0.000273158 -0.0447002 0.999 -0.245029 -0.106185 0.963683 
-0.62024 -0.147365 0.770445 0.316262 -0.191564 0.92913 0.126505 -0.0976208 0.987151 
0.049434 -0.0280249 0.998384 0.0565657 0.0575475 0.996739 0.0831843 0.000814508 0.996534 
0.112751 -0.0769624 0.990638 0.0724887 -0.054519 0.995878 -0.00431579 0.0405325 0.999169 
-0.050475 0.0121675 0.998651 -0.140387 -0.125806 0.982071 -0.332807 -0.279427 0.900644 
-0.665961 -0.347502 0.660104 0.246672 -0.258102 0.934096 0.131185 -0.127009 0.983188 
0.0682016 -0.0959867 0.993043 0.0227325 -0.115158 0.993087 0.0819274 -0.150435 0.985219 
0.108491 -0.138502 0.984402 0.0192885 -0.137496 0.990315 -0.101675 -0.172271 0.979788 
-0.285365 -0.302535 0.909417 -0.489633 -0.455016 0.743788 0.204697 -0.400148 0.893297 
0.0710543 -0.364048 0.928666 0.0261146 -0.335727 0.941597 0.0642777 -0.330286 0.94169 
0.0838095 -0.366003 0.926832 -0.0360068 -0.396356 0.917391 -0.229952 -0.466483 0.854117 
-0.416608 -0.600765 0.68229 0.0102735 -0.661258 0.750088 0.0771333 0.628811 0.773723 
0.00610384 0.649255 0.760546 -0.113517 0.649918 0.751479 0.251368 0.499216 0.829215 
0.287571 0.723885 0.627131 0.132241 0.54598 0.827296 0.146 0.653565 0.742655 
0.116416 0.598891 0.792324 0.117884 0.596858 0.79364 0.118148 0.600434 0.790899 
-0.182417 0.662795 0.726242 -0.218847 0.662826 0.716078 -0.243293 0.725124 0.644208 
-0.359188 0.621433 0.69628 -0.471474 0.825984 0.308971 0.592768 0.613042 0.522308 
0.326035 0.434028 0.839834 0.341013 0.419354 0.841339 0.382055 0.488523 0.784461 
-0.482381 0.580839 0.655694 -0.547365 0.547113 0.633292 -0.609695 0.642056 0.464797 
0.394983 0.366368 0.842474 0.418098 0.343648 0.840892 0.462471 0.402008 0.790259 
-0.633905 0.443177 0.633844 -0.721838 0.348421 0.597957 -0.820326 0.506332 0.265882 
0.495637 0.26499 0.827118 0.686256 0.31213 0.656984 -0.740426 0.299635 0.601654 
0.555226 0.134971 0.820675 0.567395 0.0789435 0.819653 0.598716 0.144229 0.787868 
-0.75935 0.126548 0.638258 0.571631 0.0168544 0.820337 0.556584 -0.0797023 0.82696 
-0.75296 -0.0152117 0.657891 0.546118 -0.110791 0.83035 0.563801 -0.114246 0.817971 
-0.730522 -0.160063 0.663866 0.516777 -0.253081 0.817858 0.666655 -0.30862 0.678472 
0.436368 -0.381127 0.815062 -0.672903 -0.347869 0.652832 -0.669427 -0.354935 0.652601 
0.428028 -0.393052 0.813819 0.459535 -0.415085 0.785195 0.37757 -0.489597 0.785962 
-0.54895 -0.488837 0.678006 -0.517341 -0.523108 0.677285 0.593565 -0.714586 0.3702 
0.368073 -0.510613 0.777043 0.409478 -0.550272 0.727688 0.249855 -0.589073 0.768483 
0.111224 -0.61237 0.782708 0.0594881 -0.617164 0.784583 0.0584327 -0.606376 0.793028 
-0.125388 -0.712967 0.689896 -0.295853 -0.69241 0.658057 -0.439434 -0.61424 0.655444 
-0.425275 -0.622721 0.65678 -0.610223 -0.727683 0.313218 0.304664 -0.876274 0.373262 
0.150492 -0.791011 0.593004 0.0761024 -0.725864 0.683615 0.0167192 -0.658943 0.752007 
0.0608913 -0.664794 0.744541 -0.0167531 -0.676111 0.736609 0.00967805 -0.664392 0.747322 
-0.136098 -0.745315 0.652673 -0.338154 -0.851239 0.401302 0.306018 0.85033 0.428127 
0.177614 0.885793 0.428748 0.096293 0.903514 0.4176 0.0777173 0.99427 0.0733989 
0.0430202 0.933318 0.356464 -0.0176122 0.999483 0.0268987 -0.0311204 0.952513 0.302905 
-0.144943 0.948909 0.280293 -0.307623 0.91426 0.263621 -0.482116 0.850212 0.211432 
0.60595 0.653996 0.452894 0.438948 0.785616 0.436041 0.460034 0.76733 0.446736 
0.469459 0.815032 0.339604 -0.510378 0.833455 0.21182 -0.660663 0.721623 0.206845 
0.634795 0.626261 0.452584 -0.720714 0.662131 0.205314 -0.828284 0.520701 0.206922 
0.749648 0.496857 0.437219 0.756796 0.490084 0.432525 0.768395 0.498492 0.401341 
-0.838172 0.504736 0.206663 0.857216 0.333696 0.392208 -0.917947 0.329719 0.220587 
0.910735 0.197413 0.362753 -0.954498 0.17589 0.240826 0.937154 0.0237315 0.348107 
0.996153 0.0208415 0.0851157 -0.96702 0.0114549 0.254443 -0.99908 0.0126735 0.0409741 
0.917662 -0.172354 0.358036 -0.95241 -0.153012 0.263633 0.861284 -0.341284 0.37645 
0.755698 -0.528052 0.387404 -0.887909 -0.374597 0.267011 -0.765196 -0.583009 0.273086 
0.748098 -0.537153 0.389636 0.768203 -0.543684 0.338041 -0.764304 -0.584134 0.273181 
-0.766396 -0.584649 0.266124 0.602263 -0.717716 0.349518 0.594399 -0.72472 0.348525 
0.44163 -0.838067 0.320322 -0.489358 -0.821535 0.292591 -0.616636 -0.730425 0.293665 
-0.611534 -0.734707 0.293653 0.34692 -0.894055 0.283394 0.30839 -0.909504 0.278742 
0.186456 -0.933395 0.306608 0.100773 -0.943599 0.315383 0.0495287 -0.951732 0.302907 
-0.0456035 -0.963526 0.263702 -0.191599 -0.949112 0.249954 -0.410674 -0.87084 0.270159 
-0.347677 -0.90123 0.25866 0.0738135 0.997169 0.014314 -0.0292986 0.998851 -0.037925 
0.465561 0.883934 0.043747 0.304381 0.951836 0.0368923 0.102257 0.994645 0.0149881 
0.183665 0.982814 0.0185371 0.0683638 0.995958 -0.0582546 -0.0566644 0.996036 -0.0685608 
-0.0341002 0.995861 -0.0842466 -0.0754993 0.993115 -0.0895652 -0.167014 0.977878 -0.125943 
-0.335756 0.930729 -0.144956 -0.487824 0.859576 -0.152171 0.526911 0.848782 0.0439784 
0.652948 0.756197 0.0427218 -0.51904 0.841182 -0.151688 -0.48362 0.832633 -0.269877 
-0.660555 0.737335 -0.141438 0.750006 0.660876 0.0270888 0.835327 0.549428 0.018908 
-0.728075 0.671893 -0.135892 -0.618018 0.659435 -0.428018 -0.834891 0.540428 -0.104376 
0.881169 0.47275 0.0069458 -0.852672 0.512452 -0.101707 -0.817495 0.523154 -0.240859 
0.95571 0.293557 -0.0210439 -0.932517 0.353762 -0.0725648 0.982978 0.17514 -0.0554979 
0.995996 0.0742204 -0.0498267 -0.981108 0.18686 -0.0501091 -0.996799 0.0672896 -0.0431756 
0.998753 0.0192536 -0.0460638 0.996718 -0.0704205 -0.0399356 0.993752 0.0247074 -0.108842 
-0.999106 0.0131358 -0.0401706 -0.997137 -0.0620051 -0.0432745 -0.996327 0.0131557 -0.084608 
0.986591 -0.15991 -0.03266 -0.98611 -0.159386 -0.0467295 0.943925 -0.33016 -0.000851256 
-0.93042 -0.364105 -0.0418001 0.834812 -0.550301 0.0160464 0.800638 -0.599008 0.0129724 
-0.816938 -0.575559 -0.0366568 -0.792757 -0.608683 -0.0322576 -0.792031 -0.567345 -0.225402 
0.645108 -0.76402 -0.0104471 0.585255 -0.810662 -0.0174008 0.430533 -0.901228 -0.0492861 
-0.46999 -0.882477 -0.018544 -0.669694 -0.742491 -0.0147377 -0.62983 -0.776634 -0.0123915 
-0.613002 -0.719781 -0.325796 0.378801 -0.923749 -0.0565469 0.308209 -0.94914 -0.0643454 
0.292659 -0.894951 -0.336768 0.190241 -0.979226 -0.0701778 0.0930358 -0.992565 -0.0784767 
0.0188647 -0.993356 -0.113523 -0.0569524 -0.988573 -0.139568 -0.168081 -0.979001 -0.115352 
-0.434796 -0.900093 -0.0280131 -0.315944 -0.946708 -0.0626367 0.460827 0.822253 -0.333975 
0.287342 0.890632 -0.352434 0.147545 0.915899 -0.373308 0.0279041 0.904202 -0.426192 
-0.0666404 0.883085 -0.464456 -0.112808 0.865177 -0.488614 -0.190009 0.841451 -0.505823 
-0.313014 0.814568 -0.488367 0.470348 0.816656 -0.334433 0.650889 0.675226 -0.347006 
0.459668 0.814745 -0.353406 0.244717 0.736603 -0.630499 0.0635844 0.649965 -0.757299 
-0.0362568 0.584362 -0.810683 -0.0733474 0.592228 -0.802425 -0.095237 0.638129 -0.764017 
-0.163218 0.695002 -0.700237 -0.379714 0.786915 -0.486397 -0.304391 0.76523 -0.567247 
-0.461426 0.731834 -0.501503 0.696181 0.62433 -0.354323 0.814385 0.453703 -0.361843 
0.63646 0.600496 -0.48407 -0.596068 0.649212 -0.472468 -0.414114 0.551287 -0.724288 
-0.605095 0.642894 -0.469624 0.818883 0.445339 -0.362082 0.812785 0.445157 -0.375787 
-0.731832 0.522632 -0.437353 -0.485191 0.479254 -0.731372 -0.774597 0.480749 -0.410951 
0.871998 0.292847 -0.39225 0.76002 0.268324 -0.591923 -0.841488 0.381918 -0.382147 
-0.708645 0.38791 -0.589362 0.904177 0.177051 -0.388738 0.702483 0.177573 -0.689192 
-0.909679 0.206432 -0.360375 0.931341 0.047674 -0.361013 -0.941024 0.0162409 -0.337949 
0.932531 -0.129907 -0.336912 -0.926164 -0.155493 -0.343573 0.896196 -0.309519 -0.317852 
0.734371 -0.291041 -0.613183 -0.867524 -0.366249 -0.336548 -0.780625 -0.522887 -0.342365 
-0.722399 -0.349668 -0.59655 0.780447 -0.544377 -0.3075 0.77625 -0.550194 -0.307771 
0.775792 -0.544465 -0.318911 -0.761714 -0.550096 -0.342325 -0.61232 -0.717987 -0.330996 
0.549793 -0.769531 -0.324885 0.547983 -0.770712 -0.325141 0.547612 -0.769436 -0.328769 
0.399381 -0.846771 -0.351387 0.345375 -0.667962 -0.659199 0.290902 -0.890097 -0.35086 
-0.611162 -0.71895 -0.331048 -0.434766 -0.831287 -0.346325 -0.374767 -0.617078 -0.691929 
0.285572 -0.891574 -0.351489 0.16661 -0.909778 -0.380192 0.152887 -0.848676 -0.506335 
0.0518347 -0.916302 -0.397118 0.0368025 -0.827851 -0.55974 -0.0169478 -0.901537 -0.432369 
-0.0334487 -0.820019 -0.571358 -0.0435533 -0.888511 -0.456784 -0.0472119 -0.814223 -0.578629 
-0.111296 -0.896693 -0.428434 -0.094348 -0.831698 -0.547154 -0.286694 -0.886497 -0.363222 
-0.255119 -0.89364 -0.369217 -0.248392 -0.880711 -0.4033 0.370045 0.570107 -0.733516 
0.206483 0.629666 -0.748923 0.0546361 0.61985 -0.782816 -0.0430948 0.551347 -0.833162 
-0.0641357 0.501647 -0.862692 -0.069812 0.518355 -0.852311 -0.118497 0.508338 -0.852966 
-0.240592 0.462865 -0.853154 0.430728 0.530379 -0.730186 0.544793 0.414892 -0.728742 
0.350257 0.507451 -0.787282 0.146565 0.449426 -0.881212 -0.0258006 0.386882 -0.921768 
-0.0876105 0.341342 -0.935847 -0.0397848 0.332582 -0.942235 -0.0394693 0.371769 -0.927486 
-0.102233 0.394891 -0.913022 -0.28207 0.443947 -0.850499 -0.225936 0.406172 -0.885425 
-0.312522 0.420393 -0.851821 0.564932 0.37659 -0.734188 0.523469 0.364277 -0.770248 
0.312843 0.298311 -0.901742 0.0991978 0.239048 -0.965928 -0.0757278 0.238178 -0.968265 
-0.116552 0.246857 -0.962017 -0.0473714 0.268422 -0.962136 -0.0274635 0.265005 -0.963856 
-0.0993459 0.199524 -0.974844 -0.164206 0.213813 -0.962975 -0.366255 0.413182 -0.83375 
-0.242916 0.337986 -0.909262 -0.41483 0.415065 -0.809714 0.649328 0.251341 -0.717775 
0.452318 0.228254 -0.862153 0.240422 0.160674 -0.957278 -0.0449752 0.236704 -0.97054 
-0.0192082 0.285837 -0.958086 -0.123672 0.302576 -0.945068 -0.164406 0.191004 -0.967723 
-0.084875 0.205042 -0.975066 -0.13029 0.279883 -0.951152 -0.504756 0.359598 -0.7848 
-0.327846 0.323402 -0.887653 -0.643951 0.230289 -0.729585 0.70248 0.177573 -0.689195 
0.702482 0.17757 -0.689194 0.396655 0.14654 -0.906196 0.193766 0.0885392 -0.977044 
-0.19337 0.247215 -0.94947 -0.0620691 0.236386 -0.969675 -0.0998754 0.213563 -0.971811 
-0.315236 0.214206 -0.924523 -0.653912 0.207536 -0.727549 -0.638744 0.207033 -0.741042 
0.733696 0.0639221 -0.676464 0.676243 0.0610955 -0.734141 0.35944 0.0717776 -0.930404 
-0.0110421 -0.0055553 -0.999924 -0.148159 0.0769061 -0.985969 -0.318021 0.0730272 -0.945267 
-0.709127 0.0315348 -0.704375 -0.637438 0.0393661 -0.769495 0.738302 -0.0947331 -0.667784 
0.7258 -0.253312 -0.639568 0.696134 -0.0887558 -0.712404 0.359134 -0.0479114 -0.932055 
-0.127126 -0.0516486 -0.990541 -0.337565 -0.0921116 -0.936785 -0.71669 -0.140468 -0.683099 
-0.696084 -0.240297 -0.676553 -0.676516 -0.135116 -0.723927 0.715444 -0.28842 -0.63636 
0.374914 -0.257766 -0.890503 0.120398 -0.194959 -0.973394 0.0283938 -0.161009 -0.986544 
0.0958999 -0.117852 -0.98839 -0.0419331 -0.165904 -0.98525 -0.0354075 -0.163147 -0.985966 
-0.180649 -0.19249 -0.964528 -0.651921 -0.331244 -0.682112 -0.399095 -0.286852 -0.870884 
0.528852 -0.513791 -0.675525 0.470572 -0.567768 -0.675427 0.450832 -0.504057 -0.736666 
0.33356 -0.644226 -0.688267 0.223852 -0.411258 -0.883605 0.0880112 -0.307026 -0.947623 
0.117909 -0.255682 -0.959544 0.100839 -0.270192 -0.957511 -0.134691 -0.255344 -0.957423 
-0.0538707 -0.255375 -0.96534 -0.0789794 -0.293489 -0.952694 -0.361668 -0.589657 -0.72215 
-0.258246 -0.37571 -0.890029 -0.530747 -0.480785 -0.697964 -0.514244 -0.498537 -0.697864 
-0.504428 -0.470211 -0.724192 0.320655 -0.648152 -0.690709 0.221599 -0.661255 -0.716684 
0.195265 -0.561028 -0.804437 0.129871 -0.672557 -0.728561 0.126717 -0.505163 -0.853671 
0.0349868 -0.71443 -0.698832 0.0520193 -0.526838 -0.848372 -0.046239 -0.70935 -0.703338 
-0.0550587 -0.547779 -0.83481 -0.0643373 -0.662709 -0.746109 -0.0843732 -0.509474 -0.85634 
-0.0620348 -0.629479 -0.774537 -0.0622318 -0.499908 -0.86384 -0.341949 -0.598847 -0.724191 
-0.179277 -0.645196 -0.742686 -0.164718 -0.526682 -0.833951 0.0714833 0.118992 -0.990319 
-0.0369848 0.155716 -0.987109 0.0868971 0.111053 -0.990008 0.0686026 0.105842 -0.992014 
-0.0356325 0.164142 -0.985793 -0.0339291 0.150688 -0.987999 -0.0318398 0.206994 -0.977824 
-0.00796849 0.201431 -0.97947 -0.119418 0.247962 -0.961381 0.157946 0.0758803 -0.984528 
0.174516 0.0638467 -0.982582 0.0929691 0.0544059 -0.994181 0.0461526 0.0658392 -0.996762 
0.00347885 0.109274 -0.994006 -0.00856299 -0.00194638 -0.999961 0.0124374 0.0231535 -0.999655 
-0.174486 0.219888 -0.959794 -0.0948745 0.113799 -0.988963 -0.158826 0.199739 -0.966891 
-0.0984064 0.130252 -0.986585 0.193976 0.0436429 -0.980035 0.152238 0.0367002 -0.987662 
0.0453367 -0.00268431 -0.998968 0.0261199 -0.0478969 -0.998511 -0.0173577 -0.0044856 -0.999839 
-0.0807833 0.00533612 -0.996717 -0.000664373 -0.0123363 -0.999924 -0.0169327 0.00887565 -0.999817 
0.0885617 -0.0720968 -0.993458 -0.057116 0.0556503 -0.996815 -0.122366 0.0943148 -0.987994 
-0.105579 0.106804 -0.988659 0.157161 -0.0554615 -0.986014 0.12248 -0.0980853 -0.987612 
0.124028 -0.0574748 -0.990613 0.0212546 -0.132285 -0.990984 0.00896017 -0.0783067 -0.996889 
0.0868597 -0.108903 -0.99025 0.0541716 -0.078186 -0.995466 0.0496877 -0.0076786 -0.998735 
-0.0654887 0.125465 -0.989934 -0.0360501 -0.0741168 -0.996598 -0.0236856 -0.142811 -0.989467 
-0.00886048 -0.125539 -0.992049 -0.0913715 -0.0557573 -0.994255 -0.0461065 -0.0921284 -0.994679 
-0.0516217 -0.0609737 -0.996804 0.0977752 -0.115907 -0.988436 0.102128 -0.259684 -0.960278 
0.122844 -0.0930145 -0.988058 -0.0772712 -0.0659312 -0.994828 -0.15896 -0.121921 -0.979728 
-0.161413 -0.122387 -0.979269 -0.161699 -0.120805 -0.979418 0.0160716 -0.28659 -0.957919 
-0.0893536 -0.300872 -0.949469 -0.0855063 -0.309954 -0.946899 -0.0864067 -0.303798 -0.94881 

